ITEM: TIMESTEP
30000
ITEM: NUMBER OF ATOMS
1000
ITEM: BOX BOUNDS pp pp pp
-30.0 30.0
-30.0 30.0
-30.0 30.0
ITEM: ATOMS id type x y z Coordination
1 1 -12.0631 -7.2141 -3.32856 11
2 1 -11.615 -0.851497 -5.74816 15
3 1 -12.4762 -4.26963 -4.46627 14
4 1 -11.5785 -1.61993 -2.77309 17
5 1 -11.9767 1.31253 -1.25415 15
6 1 -12.7297 -4.4248 -1.41276 16
7 1 -7.56809 -10.9899 -3.12133 8
8 1 -7.48187 -6.13367 -10.7771 10
9 1 -9.30937 -6.63525 -7.9717 14
10 1 -6.84555 -8.93387 -8.4523 9
11 1 -6.025 -6.37147 -6.06793 23
12 1 -9.33412 -6.47418 -4.69603 20
13 1 -10.2622 -9.41922 -5.70049 7
14 1 -6.93761 -8.80952 -4.91135 16
15 1 -6.10144 -6.31638 -2.61746 23
16 1 -8.92645 -7.2909 -1.40917 17
17 1 -6.99159 -9.73096 -0.325411 17
18 1 -5.55189 -1.11497 -13.0336 12
19 1 -9.70674 -0.409604 -10.6068 13
20 1 -6.89168 -3.28917 -11.2726 16
21 1 -9.74817 -3.73106 -9.42932 13
22 1 -6.17931 -1.33846 -9.24552 22
23 1 -9.46165 -0.82656 -7.59445 22
24 1 -7.19045 -3.76304 -7.49136 22
25 1 -9.79865 -3.89795 -6.10914 20
26 1 -5.90188 -0.987798 -6.01222 24
27 1 -8.65807 -1.01083 -4.83264 20
28 1 -6.87966 -3.67494 -4.36342 25
29 1 -9.70466 -4.39223 -2.90033 22
30 1 -5.88527 -1.15427 -2.85116 22
31 1 -8.47471 -1.95479 -1.32305 21
32 1 -6.69733 -4.08488 -1.02202 21
33 1 -0.289395 -12.2567 -5.69473 10
34 1 -3.45342 -11.776 -3.87664 13
35 1 -0.432631 -12.1864 -2.90855 15
36 1 -2.90441 -11.5604 -0.895889 18
37 1 -1.11712 -6.55793 -12.2619 12
38 1 -3.97186 -5.92176 -11.2108 14
39 1 -2.21592 -8.58844 -9.77549 11
40 1 0.0369927 -6.32087 -9.40955 21
41 1 -3.41924 -6.64576 -7.7639 19
42 1 -1.06036 -9.29461 -7.55706 17
43 1 -4.17034 -9.20497 -6.22631 15
44 1 -0.212083 -6.51805 -6.19171 25
45 1 -3.17001 -6.50903 -4.44055 23
46 1 -1.35223 -9.23619 -4.46358 21
47 1 -4.28454 -9.20756 -2.94144 20
48 1 0.0599618 -6.76795 -3.07604 20
49 1 -2.94839 -6.41952 -1.26868 22
50 1 -1.16171 -8.99785 -0.764995 21
51 1 -2.91838 0.106971 -12.9416 12
52 1 0.0662969 -1.38167 -12.4117 15
53 1 -3.07657 -1.88235 -10.8568 22
54 1 -3.10856 -3.7539 -13.3252 10
55 1 -4.2705 -4.01476 -8.97125 18
56 1 -0.21184 -1.42073 -9.5333 21
57 1 -3.02983 -1.24142 -7.64994 23
58 1 -1.18165 -3.94892 -7.66246 22
59 1 -4.23505 -3.75707 -6.01094 24
60 1 -0.315163 -1.13039 -6.23127 22
61 1 -2.77862 -1.30233 -4.77198 22
62 1 -0.998643 -4.00735 -4.40268 21
63 1 -4.10487 -3.73139 -2.72045 23
64 1 0.0632332 -1.16634 -2.90046 23
65 1 -2.75718 -1.43898 -1.38731 22
66 1 -0.974238 -3.98669 -1.0212 21
67 2 -11.7087 -7.98255 1.60893 11
68 2 -12.1926 -0.842474 -7.49694 10
69 2 -10.7967 -5.16366 -4.80299 16
70 2 -12.4859 -2.10668 -4.33054 14
71 2 -13.1107 -5.38931 -2.92945 10
72 2 -11.4035 -3.91204 -2.5992 18
73 2 -7.7098 -7.46364 -9.17028 9
74 2 -9.6778 -7.71399 -6.5879 14
75 2 -6.19615 -8.89705 -6.82148 13
76 2 -8.72046 -9.81358 -4.57478 10
77 2 -7.23808 -6.92258 -4.64575 20
78 2 -10.1187 -7.00763 -2.82457 18
79 2 -6.93254 -11.3628 -1.51694 10
80 2 -8.76226 -9.03409 0.647445 15
81 2 -6.98599 -6.81006 -0.979805 17
82 2 -8.43074 -4.1961 -10.8068 12
83 2 -6.89364 -1.40523 -11.5119 15
84 2 -9.51908 -1.83415 -9.37923 18
85 2 -6.25753 -3.62961 -9.30912 19
86 2 -9.12425 -4.6355 -7.681 18
87 2 -7.25193 -1.6593 -7.42489 21
88 2 -9.95324 -1.98045 -6.20179 22
89 2 -6.1424 -4.58949 -6.17491 22
90 2 -8.62625 -4.15875 -4.4297 22
91 2 -6.69451 -1.78074 -4.47281 22
92 2 -9.51936 -0.991927 -2.83928 23
93 2 -6.08147 -4.37187 -2.76055 23
94 2 -8.51462 -3.87124 -1.0291 20
95 2 -6.69668 -1.58525 -1.0693 22
96 2 -6.00207 -9.90033 -3.59887 16
97 2 -1.76615 -12.3434 -4.35693 10
98 2 -4.23359 -12.1202 -2.18714 13
99 2 -1.00118 -11.9884 -1.08399 15
100 2 -2.75486 -7.34435 -11.0755 13
101 2 -5.71181 -6.18038 -11.0252 10
102 2 -0.310791 -9.10431 -9.41072 13
103 2 -2.92343 -8.88754 -7.57333 15
104 2 -1.14981 -6.9727 -7.91658 20
105 2 -4.12291 -7.02914 -5.98891 20
106 2 -0.0607781 -10.1982 -5.98298 20
107 2 -3.18176 -9.95972 -4.53967 21
108 2 -1.24306 -7.25068 -4.85279 22
109 2 -4.19922 -6.99196 -2.69207 20
110 2 -0.101764 -8.93807 -2.91206 17
111 2 -3.26969 -9.58232 -1.1254 21
112 2 -1.13203 -6.91096 -1.1137 21
113 2 -1.0011 0.19342 -12.3258 15
114 2 -3.9029 -2.10947 -13.1572 14
115 2 -1.71775 -4.85115 -12.6684 13
116 2 -3.25746 -4.22252 -10.989 17
117 2 -1.15922 -2.14132 -11.0647 21
118 2 -4.29715 -1.86575 -9.26084 21
119 2 -0.116968 -4.28401 -9.17646 22
120 2 -3.30555 -4.76948 -7.59757 21
121 2 -1.21354 -1.84837 -7.68784 25
122 2 -4.25877 -1.8653 -6.2054 24
123 2 0.0361851 -4.57379 -6.21808 22
124 2 -3.29954 -4.19645 -4.39224 22
125 2 -0.672791 -1.9333 -4.55077 23
126 2 -3.77724 -1.90901 -2.98145 24
127 2 -0.0608974 -4.43358 -2.8546 23
128 2 -2.81788 -4.35644 -1.15008 23
129 2 -0.969989 -1.90915 -1.13037 24
130 1 -11.5568 -6.61591 0.457309 16
131 1 -11.385 -7.99913 3.51714 13
132 1 -11.6637 -1.0451 0.418196 17
133 1 -11.5915 4.15652 0.801606 19
134 1 -12.8997 -3.80311 2.00194 11
135 1 -11.6219 -1.09821 3.47665 17
136 1 -12.3508 -4.16159 5.1436 12
137 1 -11.3294 -0.986318 6.31664 15
138 1 -5.5744 -12.5434 -0.910562 12
139 1 -5.34534 -11.7686 2.49289 14
140 1 -10.495 -9.67446 1.2368 13
141 1 -5.98501 -6.91096 0.603405 22
142 1 -8.71157 -7.29429 1.81332 19
143 1 -7.35304 -9.46301 2.32301 16
144 1 -10.5478 -9.88164 5.12047 10
145 1 -5.97258 -6.64909 3.70717 22
146 1 -8.70648 -7.29661 5.20893 20
147 1 -6.84485 -10.0355 5.21269 14
148 1 -5.63335 -7.19708 6.78477 21
149 1 -11.5191 -6.96798 6.55056 10
150 1 -8.10593 -6.41121 7.89334 14
151 1 -5.38749 -6.89754 10.0801 13
152 1 -9.55457 -4.40309 0.526251 23
153 1 -5.60614 -1.20083 0.491608 24
154 1 -8.54655 -1.83082 2.19737 22
155 1 -6.43841 -3.91309 2.14413 22
156 1 -9.77238 -4.82836 3.65149 21
157 1 -5.74798 -1.24729 4.17454 21
158 1 -8.83115 -1.98257 5.27964 22
159 1 -7.03715 -4.40322 5.5757 23
160 1 -10.1395 -4.18554 7.51452 15
161 1 -5.89019 -1.43697 7.24657 22
162 1 -8.76969 -1.36408 8.39725 15
163 1 -7.00076 -4.02801 8.74381 17
164 1 -5.98729 -1.39158 10.5387 13
165 1 -2.86116 -6.8342 12.1036 14
166 1 0.293361 -11.7147 0.566224 16
167 1 -2.73229 -13.0952 2.0042 10
168 1 -0.0587684 -11.9181 3.65329 18
169 1 -2.69141 -12.1545 5.14553 15
170 1 1.1368 -11.9791 6.12658 16
171 1 -4.10705 -9.38309 0.732127 20
172 1 0.0293275 -6.311 0.309628 22
173 1 -2.98295 -6.57917 1.96773 24
174 1 -1.11383 -9.24469 2.11837 23
175 1 -4.07464 -9.44012 3.83454 20
176 1 -0.029988 -6.59135 3.73933 23
177 1 -2.86903 -6.56594 5.20268 21
178 1 -1.10518 -9.36535 5.34851 21
179 1 -4.13504 -10.1069 7.03051 12
180 1 -0.237462 -6.83774 7.26906 21
181 1 -3.00187 -7.34327 8.65954 23
182 1 -0.962531 -10.1928 8.39628 14
183 1 0.242224 -7.83916 10.132 18
184 1 -2.29933 -9.36899 11.0243 10
185 1 -3.82771 -3.72902 0.395543 24
186 1 -0.0572248 -1.34201 0.50647 22
187 1 -2.83329 -1.13576 2.15222 24
188 1 -1.03911 -3.8065 2.15463 25
189 1 -3.80179 -4.17233 3.93615 22
190 1 0.17105 -1.06976 3.78495 23
191 1 -2.95982 -1.33891 5.188 20
192 1 -1.18099 -3.85519 5.25238 21
193 1 -4.33663 -4.48154 7.10791 23
194 1 -0.408031 -1.64238 7.3167 20
195 1 -2.90492 -1.60288 8.5668 21
196 1 -1.32595 -4.7112 8.82035 21
197 1 -3.73869 -4.21026 10.2322 19
198 1 0.24159 -1.88866 10.552 23
199 1 -2.62653 -1.62038 11.6074 18
200 1 -1.02887 -4.37887 11.8404 17
201 1 -0.123496 -1.67528 13.8133 12
202 2 -11.6812 -8.37772 5.48332 10
203 2 -12.4639 -4.8866 0.417725 11
204 2 -12.4072 -2.11131 2.09951 15
205 2 -11.6586 -4.58792 3.07206 16
206 2 -12.1086 -2.30581 5.31988 15
207 2 -11.6819 -5.04656 6.63642 12
208 2 -9.78011 -6.3569 0.155146 19
209 2 -5.83337 -10.3058 1.12183 16
210 2 -11.2079 -10.2647 3.16689 8
211 2 -6.87977 -7.42382 2.18534 24
212 2 -9.59156 -6.86939 3.37938 23
213 2 -5.92496 -10.4248 3.72191 16
214 2 -8.79418 -9.33987 4.7422 15
215 2 -6.92926 -6.63006 5.52902 20
216 2 -9.53926 -6.93955 6.95108 16
217 2 -5.58031 -9.2583 6.50915 15
218 2 -6.44628 -6.91183 8.60692 15
219 2 -9.47349 -1.16691 0.548123 21
220 2 -5.58333 -4.57477 0.544598 24
221 2 -8.63261 -3.87686 2.21618 19
222 2 -6.41426 -1.79448 2.12814 21
223 2 -9.6182 -1.04623 3.64469 23
224 2 -5.72719 -4.64704 3.75133 22
225 2 -8.79696 -4.0381 5.03665 22
226 2 -7.24827 -1.01869 5.79735 20
227 2 -10.0288 -2.21761 7.04308 17
228 2 -6.16027 -3.57011 7.00582 22
229 2 -8.58728 -4.4954 8.1692 15
230 2 -6.93161 -1.99527 9.11373 14
231 2 -8.50709 0.561232 8.66484 16
232 2 -5.6438 -4.88823 10.0777 17
233 2 -2.72252 -4.88271 11.6185 17
234 2 -4.35394 -12.9682 0.849678 12
235 2 -1.0235 -12.1006 2.11129 16
236 2 -3.75758 -12.6197 3.63984 11
237 2 -0.710919 -12.671 5.50377 12
238 2 -3.88879 -7.19576 0.359939 22
239 2 0.172027 -9.55544 0.620159 22
240 2 -2.96194 -9.59767 2.15133 22
241 2 -0.912766 -7.02209 1.82593 23
242 2 -4.12557 -7.24004 3.76054 22
243 2 0.0184255 -9.81689 3.84482 22
244 2 -2.95352 -10.2081 5.27901 20
245 2 -1.00487 -7.46963 5.30369 23
246 2 -3.96837 -6.36957 7.30487 21
247 2 0.335896 -10.383 6.9701 20
248 2 -2.95212 -9.31296 8.39829 16
249 2 -1.19431 -6.82148 9.03172 21
250 2 -3.6764 -7.83509 10.6396 14
251 2 -0.580334 -9.40266 10.077 12
252 2 -3.66184 -1.75654 0.463419 22
253 2 0.211711 -4.23024 0.719479 21
254 2 -3.05795 -4.70563 2.23421 25
255 2 -0.796249 -1.75962 2.34448 21
256 2 -4.00337 -2.14245 3.71274 21
257 2 -0.0124257 -4.65467 3.52245 24
258 2 -2.97908 -4.49337 5.51506 19
259 2 -1.08192 -1.87827 5.41984 22
260 2 -3.92184 -0.851078 7.14414 23
261 2 -0.18076 -4.85373 7.1995 18
262 2 -2.85949 -3.67351 8.48097 22
263 2 -1.17435 -0.951545 8.91403 23
264 2 -4.05354 -2.2203 10.3042 19
265 2 -0.374651 -3.5164 10.1261 21
266 2 -1.52539 -8.07319 12.4124 10
267 2 -1.14921 -2.43138 12.4712 17
268 2 -2.57375 0.112761 12.1214 17
269 2 0.244917 -5.70879 12.7874 13
270 1 -12.7712 -0.15642 -8.9649 8
271 1 -10.9751 5.32722 -6.78662 12
272 1 -12.4279 2.44054 -4.62962 13
273 1 -12.521 6.28136 -4.6013 13
274 1 -11.5137 4.12676 -2.45419 18
275 1 -9.64506 13.62 -0.108689 6
276 1 -8.03683 3.04814 -11.1783 12
277 1 -6.90722 0.560833 -11.3943 14
278 1 -9.91329 2.24314 -9.33738 13
279 1 -5.64127 4.07788 -9.41363 21
280 1 -8.78347 4.22088 -7.65732 17
281 1 -7.13363 1.5158 -7.80451 24
282 1 -9.94912 1.94803 -6.15736 20
283 1 -6.0094 4.08784 -6.19524 22
284 1 -9.00578 4.46158 -4.34796 25
285 1 -6.82392 1.67714 -4.41279 21
286 1 -9.50845 1.24895 -2.89871 20
287 1 -5.94627 4.46584 -3.03782 23
288 1 -8.65505 3.93051 -1.16201 22
289 1 -6.55149 1.73963 -1.30246 20
290 1 -7.31628 6.92116 -7.96665 16
291 1 -9.84896 7.68199 -5.81501 13
292 1 -6.17194 9.68819 -6.22686 12
293 1 -8.66938 9.27757 -1.18681 14
294 1 -7.20529 7.26173 -4.47605 23
295 1 -10.2915 6.84519 -2.79393 19
296 1 -8.17896 10.8593 -3.59164 9
297 1 -11.0083 11.0287 2.17783 4
298 1 -7.19862 6.87578 -0.965121 21
299 1 -5.4536 9.80118 0.297412 20
300 1 -0.127305 3.60656 -12.7963 14
301 1 -5.14881 2.55747 -12.7433 13
302 1 -2.82737 4.9719 -13.823 9
303 1 -3.04297 4.0589 -11.0139 19
304 1 -1.43732 1.46719 -10.7766 20
305 1 -4.10534 0.940809 -9.29185 22
306 1 -0.0280362 3.98796 -9.3572 23
307 1 -2.98741 4.07818 -7.73435 23
308 1 -0.928102 1.52927 -7.76388 23
309 1 -3.90427 1.50317 -6.11798 22
310 1 -0.047105 3.98201 -6.27727 22
311 1 -3.21346 4.09186 -4.59066 22
312 1 -0.877777 1.64427 -4.71881 23
313 1 -3.7111 1.5113 -3.08375 23
314 1 -0.188923 4.14409 -2.87458 23
315 1 -3.27924 4.19924 -1.30718 23
316 1 -1.25155 1.45003 -1.33769 21
317 1 -3.15752 8.06632 -11.5215 8
318 1 -4.31021 6.76941 -9.44238 17
319 1 -0.0905314 9.05716 -9.69926 11
320 1 -5.86191 9.49571 -9.39884 8
321 1 -1.04046 6.66048 -7.7921 21
322 1 -4.39237 6.61089 -6.0623 19
323 1 -0.299409 9.27216 -6.38877 18
324 1 -3.05857 9.17562 -4.91885 18
325 1 -1.07383 6.52665 -4.72529 20
326 1 -3.841 7.15867 -2.8766 23
327 1 0.142351 9.78965 -3.08227 23
328 1 -2.82539 9.91012 -1.36965 25
329 1 -1.02232 6.69701 -1.66667 24
330 1 -3.86505 11.7443 -3.11247 13
331 1 -1.0639 12.0941 -5.10641 12
332 1 -5.69909 9.40445 -2.71795 20
333 1 -0.852472 12.4184 -1.4207 16
334 2 -12.6 4.32604 -4.30365 13
335 2 -11.9333 7.00149 -6.23356 9
336 2 -11.6085 1.06666 -5.48986 17
337 2 -12.3714 -0.461833 -1.25698 13
338 2 -12.3549 4.68885 -0.875475 14
339 2 -10.0683 3.846 -5.96019 21
340 2 -12.3438 6.88792 -2.69696 11
341 2 -4.7641 0.63438 -13.2548 11
342 2 -8.61049 1.16781 -10.8758 14
343 2 -6.2726 2.36147 -11.2228 17
344 2 -9.17033 3.78744 -9.79134 13
345 2 -6.09242 0.548824 -9.39781 20
346 2 -11.0839 0.690306 -9.92441 9
347 2 -6.98516 3.51723 -8.01822 20
348 2 -9.11488 1.05787 -7.76955 21
349 2 -5.91718 0.972319 -5.9356 21
350 2 -8.7291 1.08408 -4.70958 21
351 2 -7.19593 3.56178 -4.58482 23
352 2 -9.5046 4.76317 -2.5397 23
353 2 -5.3922 0.782394 -2.87626 22
354 2 -8.97241 1.88302 -1.05279 21
355 2 -6.55117 3.60875 -1.47985 21
356 2 -5.90046 5.88825 -8.72635 17
357 2 -9.08478 6.34689 -7.04611 15
358 2 -6.78149 8.89964 -7.89995 13
359 2 -6.20807 6.16199 -6.11506 24
360 2 -9.36632 6.72262 -4.43355 17
361 2 -7.78829 9.33322 -4.60529 16
362 2 -6.72031 8.95628 -1.04228 20
363 2 -6.16357 6.76488 -2.85221 22
364 2 -9.04781 7.46826 -1.4159 17
365 2 -7.97603 13.7241 -0.134615 6
366 2 -8.7182 11.286 -1.92372 12
367 2 -3.92598 3.99665 -12.731 11
368 2 1.60939 3.02431 -12.5732 13
369 2 -3.27055 0.419047 -10.8842 22
370 2 -1.13806 3.3574 -11.0919 19
371 2 -3.84348 3.31047 -9.30343 23
372 2 -0.197744 0.776831 -9.3845 22
373 2 -2.9307 0.916694 -7.75991 22
374 2 -1.14716 3.5511 -7.77362 23
375 2 -4.13378 3.41951 -6.22623 24
376 2 0.200709 0.87185 -6.33979 22
377 2 -2.67762 0.650641 -4.81726 23
378 2 -1.1151 3.54439 -4.57599 25
379 2 -4.17234 3.68414 -3.05289 22
380 2 -0.509817 0.594146 -2.89693 23
381 2 -3.01684 0.844008 -1.28427 22
382 2 -1.34244 3.51374 -1.30931 24
383 2 -2.74514 6.09526 -10.9196 18
384 2 -4.59862 8.43345 -10.2116 9
385 2 -1.25175 8.40765 -10.98 11
386 2 -4.32413 8.66139 -6.08605 17
387 2 0.162555 5.90474 -9.57329 22
388 2 -2.9669 6.32458 -7.52387 21
389 2 -0.728974 8.64188 -8.11176 16
390 2 -6.13268 11.295 -3.04304 15
391 2 0.0323973 5.95231 -6.13274 21
392 2 -3.11382 6.21602 -4.56222 24
393 2 -1.07966 8.62804 -4.64226 22
394 2 -3.74282 9.06958 -2.886 20
395 2 -0.0408437 6.18767 -3.11004 23
396 2 -3.04664 6.21113 -1.53507 23
397 2 -0.886437 9.23216 -1.47676 24
398 2 0.0468822 11.3321 -6.1865 13
399 2 -2.8823 11.4923 -4.66182 14
400 2 -0.142255 11.8072 -3.18852 16
401 2 -2.85244 12.213 -1.54407 16
402 1 -13.02 6.54614 -0.990293 9
403 1 -12.4874 1.62589 2.47238 14
404 1 -11.4518 4.46947 3.9547 17
405 1 -12.5881 1.74321 5.64196 13
406 1 -11.4628 4.37127 7.41086 12
407 1 -12.2212 7.58405 2.25234 11
408 1 -9.62052 0.985131 0.528733 22
409 1 -5.92862 4.10049 0.325585 20
410 1 -8.67534 3.57596 2.12146 19
411 1 -6.75889 1.45033 2.00845 21
412 1 -9.69372 1.00146 3.77581 24
413 1 -5.98644 4.68267 3.77968 21
414 1 -8.65119 3.78972 5.37684 21
415 1 -7.09833 0.812695 5.37971 21
416 1 -9.40392 1.62062 7.14375 18
417 1 -5.86985 3.74127 7.05812 19
418 1 -9.64811 7.40547 7.23669 15
419 1 -6.7266 1.54775 9.09869 16
420 1 -8.10334 4.59907 8.16462 16
421 1 -3.58091 6.77618 10.1103 16
422 1 -5.5045 3.8424 10.9535 11
423 1 -9.8367 6.67545 0.464202 20
424 1 -6.26059 14.1039 0.904883 7
425 1 -6.8885 12.2799 -1.37481 13
426 1 -6.61477 7.01699 2.16077 20
427 1 -12.3387 6.73968 5.644 8
428 1 -5.70072 9.41254 3.9607 15
429 1 -8.77221 9.28254 5.2505 11
430 1 -9.50633 6.64052 3.79185 16
431 1 -6.52863 6.80825 5.48211 20
432 1 -5.87184 10.5362 6.74259 16
433 1 -6.62064 7.61577 8.90278 14
434 1 -3.73705 1.46814 0.352452 22
435 1 -0.118348 4.24031 0.334104 25
436 1 -3.04999 4.27838 2.14513 24
437 1 -0.859861 1.82657 1.89877 24
438 1 -4.12726 1.6991 3.64181 21
439 1 -0.0399814 4.18927 3.72452 21
440 1 -3.1684 4.36037 5.57526 21
441 1 -1.23932 1.46519 5.51018 22
442 1 -4.07383 1.04542 7.19476 21
443 1 0.0105675 3.75966 7.09483 20
444 1 -2.9318 3.58027 8.75689 20
445 1 -1.0174 1.09364 8.91091 21
446 1 -3.84518 1.06496 10.6538 18
447 1 0.120975 3.89852 10.2085 22
448 1 -3.17587 4.12148 12.513 12
449 1 -0.890885 1.11967 11.804 22
450 1 -3.34933 1.13757 13.652 9
451 1 -0.721955 3.83851 14.0946 11
452 1 -4.06194 6.92355 0.212004 24
453 1 0.196098 9.41024 -0.0189253 22
454 1 -2.77113 9.68821 1.73323 24
455 1 -0.999544 6.97587 1.71847 24
456 1 -3.61381 7.3016 3.51648 23
457 1 0.0699756 9.44725 3.41787 24
458 1 -2.7013 10.2693 4.61167 21
459 1 -1.08003 6.69256 5.0154 21
460 1 -3.81237 7.37745 7.02645 19
461 1 -0.87451 8.74346 7.22376 20
462 1 -5.18892 10.1738 9.65617 12
463 1 -0.771321 6.37661 8.69263 19
464 1 -8.41258 10.8197 8.11398 8
465 1 -1.90252 9.71359 10.3154 14
466 1 -1.22883 7.00244 12.1428 13
467 1 -3.98481 12.4794 0.237562 14
468 1 -0.668756 11.6733 1.75088 17
469 1 -3.17638 13.1497 3.21658 11
470 1 -0.564912 12.4529 5.46977 13
471 1 -2.77724 11.4582 7.73972 13
472 2 -11.3667 2.26745 -2.89377 17
473 2 -11.7153 0.963237 0.89728 16
474 2 -12.1184 3.44162 2.45196 15
475 2 -12.0519 0.793747 4.09725 15
476 2 -12.0601 3.82778 5.70054 15
477 2 -11.0475 0.831733 6.68342 16
478 2 -11.8245 7.00723 0.534327 12
479 2 -11.4545 6.65424 4.00009 15
480 2 -9.72339 4.238 0.56632 21
481 2 -5.83785 0.949355 0.396511 20
482 2 -8.80981 1.67137 2.13352 22
483 2 -6.75413 3.48433 2.33054 21
484 2 -9.33871 4.62307 3.58227 20
485 2 -5.75347 0.695464 3.83585 21
486 2 -8.75814 1.73523 5.16844 23
487 2 -6.80108 4.54667 5.52493 20
488 2 -11.2252 6.25788 7.58784 10
489 2 -6.23623 1.55221 7.15545 19
490 2 -9.59651 3.7862 7.21417 17
491 2 -8.20785 6.41569 8.17809 14
492 2 -5.55004 0.484906 10.1789 17
493 2 -6.68391 3.67531 9.15154 15
494 2 -10.2298 12.1406 1.05308 6
495 2 -5.92305 6.10978 0.491349 24
496 2 -8.63186 6.69854 2.06528 17
497 2 -6.15203 9.01793 1.96651 15
498 2 -11.7611 9.30343 2.36606 7
499 2 -5.45952 6.65159 3.82731 20
500 2 -8.34182 7.39547 5.13105 18
501 2 -6.95676 10.31 5.12321 12
502 2 -5.89136 7.41118 7.13811 22
503 2 -9.36533 9.40064 7.12004 10
504 2 -6.6266 10.6973 8.57342 10
505 2 -4.91908 8.2335 9.75027 12
506 2 -5.61064 11.7123 -0.112566 17
507 2 -4.53331 13.5665 1.92795 6
508 2 -3.81817 3.59058 0.569603 23
509 2 -0.203881 0.949248 0.49643 22
510 2 -2.66563 0.990041 2.05733 23
511 2 -1.04068 3.68694 2.02743 20
512 2 -4.10052 3.59012 3.82423 21
513 2 -0.033707 1.1273 3.90795 18
514 2 -3.38966 0.899454 5.31699 21
515 2 -1.15606 3.62372 5.27834 22
516 2 -4.0364 3.99444 7.22895 16
517 2 -0.479307 1.76407 7.12132 19
518 2 -2.99871 1.51134 8.88214 19
519 2 -1.01983 4.06728 8.65816 18
520 2 -4.1474 5.20089 11.2059 11
521 2 0.35227 1.87023 10.3297 21
522 2 -4.07081 2.44047 12.1346 12
523 2 -1.91339 2.36197 13.937 10
524 2 0.0838314 0.206306 13.2297 17
525 2 -3.67824 9.01755 0.161922 23
526 2 -0.183108 6.28697 -0.0150523 23
527 2 -2.92 6.43991 1.71554 22
528 2 -0.966791 8.9932 1.86281 24
529 2 -3.76775 9.31177 3.33929 21
530 2 -0.169782 6.30656 3.31705 21
531 2 -3.06213 6.54379 5.21188 20
532 2 -1.3816 8.9668 5.03223 20
533 2 -3.95049 10.5199 6.4581 15
534 2 0.0907664 7.05164 6.91307 20
535 2 -2.64618 6.53753 8.47909 19
536 2 -3.2222 10.7149 9.32204 11
537 2 -0.157215 6.45239 10.5213 16
538 2 -2.25837 8.10873 11.1773 12
539 2 0.0635819 11.4989 0.128893 21
540 2 -2.54859 11.7315 1.85251 18
541 2 0.324352 11.4066 3.32236 19
542 2 -2.22351 12.337 4.54244 15
543 2 -0.989098 11.9983 7.42987 13
544 1 2.91836 -11.8708 -4.43714 12
545 1 5.50473 -11.9758 -2.40573 11
546 1 3.14767 -11.3461 -0.946065 17
547 1 2.27448 -6.40872 -11.3383 12
548 1 1.55579 -9.03971 -9.32493 14
549 1 5.21127 -6.91797 -9.65531 14
550 1 2.66994 -6.31876 -7.63186 24
551 1 4.32553 -9.31899 -7.11278 15
552 1 1.64972 -9.30878 -6.08116 20
553 1 6.03721 -6.58714 -6.3635 22
554 1 3.19063 -6.70677 -4.61104 23
555 1 5.0969 -9.27461 -4.02791 20
556 1 1.90832 -9.12333 -2.82704 22
557 1 5.90376 -6.64388 -2.92883 23
558 1 2.76313 -6.50976 -1.33597 23
559 1 4.94165 -9.05399 -1.09723 21
560 1 -1.31079 -4.15259 -10.9124 19
561 1 8.19919 0.229811 -12.5383 9
562 1 3.07929 -1.44755 -11.161 17
563 1 4.63028 -4.38313 -11.2347 13
564 1 1.6614 -3.6313 -9.58542 22
565 1 5.92064 -1.42317 -9.33432 20
566 1 2.98326 -1.38926 -7.77448 23
567 1 4.8444 -3.86934 -7.91408 24
568 1 1.91264 -3.64043 -6.13317 26
569 1 5.75965 -0.915689 -6.15619 22
570 1 3.02426 -0.928741 -4.56138 24
571 1 4.83943 -3.93622 -4.4695 23
572 1 1.88645 -4.08971 -3.07635 21
573 1 5.65798 -1.32313 -2.86424 20
574 1 2.87305 -1.03769 -1.29815 23
575 1 4.69614 -3.85494 -1.21801 21
576 1 8.48266 -6.5907 -7.87334 16
577 1 7.70205 -9.26836 -6.00147 12
578 1 11.2722 -6.34929 -6.60178 11
579 1 8.92551 -7.11493 -4.6529 20
580 1 7.86385 -9.48798 -2.56691 15
581 1 11.7628 -6.78928 -3.15551 12
582 1 8.62672 -6.70827 -1.24087 19
583 1 10.4648 -8.19111 -0.418932 14
584 1 10.4632 -1.3707 -10.2493 11
585 1 7.33969 -4.61332 -9.4384 16
586 1 8.81963 -1.77601 -8.02705 19
587 1 10.2929 -4.25868 -8.59211 13
588 1 7.58796 -3.97135 -6.15841 23
589 1 11.4504 -2.22133 -6.98761 14
590 1 8.71496 -1.68221 -4.50501 22
591 1 10.6057 -3.87854 -4.42642 19
592 1 7.60458 -4.49894 -2.62348 22
593 1 11.749 -0.913147 -2.92478 17
594 1 8.40719 -2.16735 -1.06602 24
595 1 10.9429 -4.61514 -1.37904 21
596 1 13.2174 -4.11217 -2.49845 13
597 1 14.3403 -1.10174 -1.39981 14
598 2 0.977729 -12.268 -4.24076 12
599 2 3.64514 -11.8238 -2.77758 12
600 2 4.72311 -11.7342 3.13361 16
601 2 0.5513 -6.53608 -11.4539 15
602 2 4.10887 -6.18592 -11.0176 14
603 2 1.7979 -6.92926 -9.37197 17
604 2 2.44828 -9.74376 -7.84505 12
605 2 4.72394 -7.25105 -7.5325 19
606 2 1.88848 -7.41719 -6.17124 23
607 2 5.79531 -9.31288 -5.81822 15
608 2 2.94946 -9.72921 -4.62423 17
609 2 4.99665 -7.04537 -4.59872 22
610 2 2.11998 -7.11653 -3.10763 22
611 2 5.89403 -10.0056 -2.49636 18
612 2 3.02045 -9.35139 -1.30243 20
613 2 4.84116 -7.06189 -1.32791 24
614 2 2.00361 -0.527597 -12.372 13
615 2 2.89798 -3.50022 -11.1063 16
616 2 9.33642 -0.13408 -10.9148 13
617 2 1.62416 -1.63425 -9.47774 19
618 2 5.80078 -3.45602 -9.69639 18
619 2 2.82955 -4.39207 -7.84353 23
620 2 4.81478 -1.81866 -7.81127 21
621 2 1.89794 -1.53382 -6.09659 20
622 2 5.78118 -4.64315 -6.1436 25
623 2 3.02856 -4.67226 -4.78464 23
624 2 4.81631 -1.73894 -4.5692 24
625 2 2.07548 -1.88585 -2.90485 22
626 2 5.85008 -3.76355 -2.71091 22
627 2 2.79181 -4.58938 -1.23993 23
628 2 4.57036 -1.87389 -1.00211 22
629 2 6.95176 -6.41718 -8.97875 15
630 2 7.78271 -7.29066 -6.26775 18
631 2 8.62806 -9.24176 -4.31165 11
632 2 10.8884 -6.88551 -4.8528 13
633 2 7.77465 -6.64569 -2.98387 21
634 2 8.60498 -8.77961 -0.865102 16
635 2 10.7211 -6.52245 -1.49877 19
636 2 10.8482 -3.09142 -9.79717 10
637 2 7.64393 -0.586445 -8.9629 20
638 2 10.3974 -6.16831 -8.34388 10
639 2 10.5336 -0.738028 -7.7227 19
640 2 8.502 -3.98901 -7.71598 23
641 2 11.1219 -4.01841 -6.43365 17
642 2 8.62047 -4.05287 -4.37958 20
643 2 10.5314 -1.93919 -3.88514 20
644 2 7.83573 -1.1497 -2.75969 22
645 2 11.6351 -4.96028 -3.43858 15
646 2 9.02122 -4.08494 -1.24516 20
647 2 11.2343 -0.696319 -1.14865 19
648 2 13.1477 -1.51661 -6.4932 9
649 2 13.4544 -2.27982 -2.57642 16
650 2 14.2841 -4.90195 -1.12921 11
651 1 5.77887 -11.9473 1.46595 13
652 1 2.81895 -11.8268 2.61989 17
653 1 7.15595 -11.4693 6.33746 8
654 1 3.70947 -11.7076 5.1279 15
655 1 2.08045 -8.87155 0.50345 21
656 1 5.74837 -6.58916 0.50625 22
657 1 2.87029 -6.33902 2.28445 24
658 1 4.52754 -9.18338 1.8434 22
659 1 1.80981 -9.21116 3.75382 26
660 1 5.62505 -6.48491 3.91634 21
661 1 3.27436 -6.64879 5.58861 23
662 1 5.1252 -9.19821 5.66374 20
663 1 1.80433 -9.09748 6.41508 20
664 1 5.91335 -6.63762 7.343 14
665 1 3.03755 -7.62324 8.6258 18
666 1 3.63898 -11.0698 8.0367 11
667 1 4.51919 -6.09187 11.1151 11
668 1 -0.358047 -7.34106 13.6044 8
669 1 2.10841 -3.86502 0.376096 24
670 1 5.67668 -1.15124 0.417939 23
671 1 2.95077 -1.28466 1.8893 22
672 1 4.86748 -3.77202 2.33742 21
673 1 1.87499 -3.94198 3.75449 20
674 1 5.77694 -1.16466 3.85136 24
675 1 2.88169 -1.32291 5.47588 21
676 1 4.74389 -3.91404 5.22959 21
677 1 1.77236 -4.21399 7.04077 20
678 1 5.63008 -1.38725 7.22041 19
679 1 2.65957 -1.59365 8.82491 20
680 1 4.52366 -4.03497 8.80177 22
681 1 2.06611 -4.93149 10.4005 21
682 1 5.51083 -1.23466 10.6732 18
683 1 2.43469 -1.23579 12.7322 16
684 1 4.61064 -3.59961 12.4568 12
685 1 1.62825 -4.52711 13.0683 15
686 1 7.84336 -9.72558 0.682545 17
687 1 12.7684 -6.99619 2.00754 11
688 1 8.63053 -7.14194 2.06178 20
689 1 11.1365 -9.41784 2.39553 10
690 1 8.26995 -10.3452 3.54558 14
691 1 11.7571 -7.07823 5.06506 12
692 1 8.15121 -7.97373 5.49128 15
693 1 9.90158 -6.82088 7.71415 10
694 1 8.0428 -4.19362 0.532845 21
695 1 11.8912 -1.52355 0.362193 22
696 1 8.83982 -1.86452 2.31782 20
697 1 11.1719 -4.52513 1.73709 19
698 1 7.94779 -4.28923 3.84037 18
699 1 11.4277 -1.17725 4.02804 16
700 1 8.51397 -1.96966 5.68038 21
701 1 10.9142 -4.0221 5.82914 16
702 1 7.68292 -4.51263 7.32247 20
703 1 10.9762 -1.03494 7.57973 14
704 1 8.42315 -0.9446 9.32847 18
705 1 10.3251 -3.96435 9.12632 12
706 1 7.40819 -3.93068 10.5123 13
707 1 13.7633 -3.77381 0.652001 14
708 1 14.4836 -1.09402 2.34787 12
709 1 13.3891 -4.01743 3.90156 11
710 2 2.14102 -12.2651 0.585073 15
711 2 7.34346 -11.255 2.36748 10
712 2 1.75767 -11.8147 4.25099 17
713 2 2.83359 -12.6089 6.74467 10
714 2 1.80608 -6.78943 0.599812 22
715 2 5.84718 -9.55587 0.465557 21
716 2 2.61921 -9.71335 2.21935 22
717 2 4.57299 -7.29498 1.89768 21
718 2 2.18261 -6.97479 4.04665 20
719 2 7.25448 -10.1038 5.13324 13
720 2 3.24261 -9.53101 5.30428 21
721 2 5.19015 -7.11631 5.63882 21
722 2 1.53215 -7.28834 6.97755 20
723 2 5.30124 -11.2365 6.78847 9
724 2 3.00902 -9.35411 8.0681 16
725 2 4.71113 -6.47081 8.9785 16
726 2 1.93454 -6.81385 10.1196 14
727 2 1.78696 -1.784 0.295847 23
728 2 5.73963 -4.52879 0.487383 22
729 2 3.21782 -4.40075 2.37551 22
730 2 4.97676 -1.5754 2.16273 22
731 2 2.17508 -1.89985 3.49573 23
732 2 5.96438 -4.41893 3.9301 22
733 2 3.03178 -4.72727 5.34932 22
734 2 4.75947 -1.83128 5.67185 21
735 2 1.44919 -1.05089 7.10143 19
736 2 5.63061 -4.57365 7.0923 19
737 2 2.59656 -3.84947 8.87963 17
738 2 4.69409 -1.89324 8.74854 19
739 2 1.86555 -1.01282 10.7597 21
740 2 5.83517 -4.67747 11.4212 11
741 2 3.15745 -4.69101 12.0604 13
742 2 4.4408 -1.79374 12.5356 13
743 2 1.48589 -2.68129 13.5889 13
744 2 5.25576 -12.1482 -0.421413 14
745 2 7.61969 -6.17956 0.543291 22
746 2 9.27129 -9.19989 2.00709 15
747 2 11.8127 -8.67334 0.86204 9
748 2 7.6988 -7.09958 3.75822 18
749 2 12.1598 -7.99265 3.45059 11
750 2 10.3457 -6.22841 1.48229 22
751 2 9.97944 -7.47532 5.70384 13
752 2 7.95854 -6.85356 7.23316 14
753 2 7.8047 -1.49386 0.624904 20
754 2 11.6762 -3.45608 0.072013 22
755 2 8.91687 -3.90941 2.30921 18
756 2 10.6555 -1.14814 2.04494 22
757 2 7.89759 -1.20708 3.85402 20
758 2 12.1539 -5.18157 4.68397 12
759 2 8.46816 -3.8936 5.60065 19
760 2 10.7857 -2.04983 5.81617 17
761 2 7.67618 -1.111 7.36987 20
762 2 10.7061 -5.15495 7.60904 12
763 2 8.40825 -4.34003 9.06552 15
764 2 10.3718 -1.99474 9.09807 13
765 2 7.33515 -1.83736 10.5963 16
766 2 14.1217 -1.82439 0.369713 15
767 2 13.0301 -4.7649 2.33861 14
768 2 13.2107 -2.08484 3.45027 16
769 1 2.44164 1.34273 -13.0024 12
770 1 6.2616 3.13176 -13.4834 9
771 1 3.12125 3.3688 -11.3492 17
772 1 5.69573 0.965617 -11.5673 16
773 1 1.69557 1.02229 -9.42437 20
774 1 6.62951 3.94412 -10.2143 20
775 1 3.0229 3.9385 -8.09949 19
776 1 4.89892 1.44485 -8.40408 21
777 1 1.95188 1.63944 -6.33884 23
778 1 5.86104 3.95318 -6.33656 18
779 1 2.69208 4.10424 -4.73723 25
780 1 4.71773 1.48425 -4.43596 23
781 1 1.68056 1.80368 -2.93629 23
782 1 5.83011 4.55658 -3.04386 21
783 1 2.78288 4.18626 -1.14032 24
784 1 4.48483 1.78711 -1.29799 24
785 1 -0.575924 6.4378 -11.4237 16
786 1 5.09923 6.13542 -11.6963 9
787 1 2.09059 6.54934 -10.0059 17
788 1 3.05115 9.13264 -8.2491 15
789 1 5.08802 6.3594 -8.38147 19
790 1 1.89662 6.86175 -6.7268 23
791 1 5.93228 8.9499 -6.27712 18
792 1 2.97508 9.44748 -4.68579 22
793 1 4.444 6.49306 -4.877 20
794 1 1.71077 6.81908 -3.17565 23
795 1 5.37633 9.82983 -3.10506 19
796 1 2.80145 9.41764 -1.32653 19
797 1 4.50674 6.95253 -1.42512 22
798 1 1.89622 11.625 -6.83091 9
799 1 4.60374 12.9168 -4.46566 9
800 1 2.21912 12.3563 -3.04512 18
801 1 3.73094 14.3615 -1.13775 7
802 1 9.28288 3.7329 -8.15915 17
803 1 8.09287 1.16998 -9.83944 19
804 1 10.9277 6.58902 -7.5006 12
805 1 10.644 1.11174 -7.96697 16
806 1 7.7145 1.64426 -6.24098 19
807 1 11.8346 3.5301 -6.08704 17
808 1 8.71351 3.57276 -4.27774 18
809 1 10.8154 1.30039 -4.62221 17
810 1 7.75027 0.872619 -2.80263 18
811 1 11.4389 4.02573 -2.54806 18
812 1 8.44327 3.20325 -0.886876 22
813 1 10.4888 1.03395 -1.05926 20
814 1 7.94285 6.61638 -9.35881 11
815 1 7.88171 5.71412 -6.15248 22
816 1 9.17061 8.16093 -5.55591 11
817 1 10.5335 5.98952 -4.223 15
818 1 7.45225 7.21275 -3.01459 21
819 1 8.43375 9.15619 -1.12554 14
820 1 10.2677 6.50885 -0.971699 17
821 1 7.75411 10.7793 -4.21748 10
822 1 13.2557 0.148047 -5.65195 12
823 1 13.7079 1.81227 -3.02345 16
824 1 14.2428 4.58414 -1.14059 10
825 2 -1.10247 5.12341 -13.3327 8
826 2 4.8027 -0.675768 -10.9383 20
827 2 4.25948 1.75069 -12.4594 14
828 2 5.59123 4.1556 -11.9652 11
829 2 1.98922 2.95302 -9.46814 23
830 2 6.19222 2.01275 -10.0131 19
831 2 3.187 0.585568 -7.76949 21
832 2 4.6608 3.25576 -7.61815 18
833 2 1.80199 3.79408 -6.7495 22
834 2 6.0339 0.892505 -6.62619 21
835 2 2.65211 1.07179 -4.53808 21
836 2 4.5279 3.53807 -4.27349 20
837 2 1.68063 3.63975 -3.23496 22
838 2 5.66061 1.04019 -2.79514 21
839 2 2.79362 1.0612 -1.35669 21
840 2 4.65789 3.77894 -1.30266 22
841 2 3.18512 5.41466 -11.3223 15
842 2 1.80421 8.46561 -9.58444 14
843 2 6.16607 6.53878 -9.999 11
844 2 2.8912 5.99199 -8.31352 19
845 2 4.71977 8.69877 -7.71364 14
846 2 2.10819 9.44762 -6.62538 17
847 2 5.45747 6.01981 -6.47153 21
848 2 2.5381 6.86503 -5.02448 21
849 2 4.75641 8.48062 -4.75356 21
850 2 1.84015 9.01488 -2.88267 22
851 2 5.34291 6.43195 -3.02078 20
852 2 2.62401 6.05022 -1.68917 23
853 2 4.68525 8.93531 -1.33438 21
854 2 2.90444 11.5507 -4.77521 14
855 2 3.87059 13.5253 -2.79606 8
856 2 2.37974 11.3548 -1.40643 21
857 2 7.11437 1.65558 -12.9393 10
858 2 8.26436 4.75651 -9.56886 14
859 2 11.7215 1.63407 -6.35326 14
860 2 9.08739 1.85506 -8.34622 18
861 2 10.9504 4.75508 -7.40574 13
862 2 7.84532 3.7748 -6.64155 18
863 2 7.40352 -2.02904 -6.15967 19
864 2 8.89404 1.63375 -4.38099 21
865 2 10.832 3.99778 -4.46404 19