ITEM: TIMESTEP
101000
ITEM: NUMBER OF ATOMS
1000
ITEM: BOX BOUNDS pp pp pp
-30.0 30.0
-30.0 30.0
-30.0 30.0
ITEM: ATOMS id type x y z Coordination
1 1 -10.9798 -7.34012 -2.18632 14
2 1 -11.7366 -1.95939 -6.00786 13
3 1 -12.4755 -4.75626 -4.16955 11
4 1 -11.6261 -1.6209 -2.79133 18
5 1 -12.5665 0.658531 -1.02547 14
6 1 -12.5992 -4.42116 -1.07262 14
7 1 -5.07612 -9.89252 -8.50868 13
8 1 -6.64739 -4.61723 -10.5458 15
9 1 -8.64933 -6.40124 -8.03626 16
10 1 -5.72973 -7.11962 -8.38332 16
11 1 -5.86214 -6.51953 -5.5888 25
12 1 -8.3555 -6.88815 -4.09233 18
13 1 -6.22666 -9.19551 -3.81547 19
14 1 -8.32034 -8.83113 -6.83914 14
15 1 -5.81299 -6.41629 -2.12921 22
16 1 -8.17422 -6.24304 -0.664162 24
17 1 -6.7126 -9.25523 -0.701205 17
18 1 -2.32471 0.742197 -13.6413 13
19 1 -7.88705 -1.35942 -11.8223 11
20 1 -4.84699 -0.885937 -13.0983 15
21 1 -9.5309 -3.48306 -9.8148 12
22 1 -5.83225 -1.37094 -9.51964 23
23 1 -8.47482 -1.3343 -7.77612 20
24 1 -6.84134 -4.08401 -7.67752 22
25 1 -9.57203 -4.3718 -5.86718 19
26 1 -5.99912 -1.43839 -6.10167 22
27 1 -9.01975 -1.71283 -4.24527 21
28 1 -6.83719 -4.03407 -4.12878 23
29 1 -9.85461 -4.26939 -2.53829 21
30 1 -5.40388 -1.25701 -2.77616 23
31 1 -8.45791 -1.3943 -1.06156 21
32 1 -7.06131 -3.59843 -0.872868 20
33 1 -0.649532 -12.787 -6.30838 9
34 1 -3.98729 -12.4325 -7.57423 9
35 1 -0.798872 -12.2365 -2.77719 15
36 1 -4.21316 -10.9759 -2.92823 14
37 1 -1.43646 -6.06561 -12.474 13
38 1 -3.80154 -3.95251 -12.5213 13
39 1 -2.24087 -8.3859 -9.9062 12
40 1 -0.0916043 -6.64556 -9.49008 20
41 1 -2.93202 -6.93358 -7.38601 23
42 1 -1.6443 -10.4551 -7.74686 15
43 1 -3.5564 -9.53359 -5.82245 21
44 1 -0.0226451 -6.6264 -6.13755 23
45 1 -3.01337 -6.62436 -4.07323 21
46 1 -1.26847 -9.3377 -4.20956 22
47 1 -3.82964 -8.84284 -1.90763 24
48 1 0.115413 -6.83287 -2.6106 22
49 1 -2.53354 -6.47254 -0.750163 22
50 1 -0.780292 -9.45239 -0.775635 24
51 1 -5.069 2.79324 -13.2084 12
52 1 0.487463 -1.19033 -13.7432 12
53 1 -2.8203 -1.49883 -10.5141 24
54 1 -1.90893 -2.447 -13.5537 14
55 1 -3.50602 -4.33514 -9.63349 22
56 1 0.0273241 -1.65348 -9.08083 24
57 1 -3.29522 -1.48711 -7.60948 23
58 1 -1.00655 -4.18384 -7.6633 25
59 1 -4.00356 -4.30334 -5.90825 21
60 1 -0.050872 -1.49185 -5.94657 24
61 1 -2.68116 -1.77518 -4.28478 23
62 1 -1.00308 -4.23438 -4.34551 23
63 1 -4.11147 -4.20207 -2.33037 21
64 1 0.239331 -1.31933 -2.9449 22
65 1 -3.05094 -1.47134 -1.03977 20
66 1 -1.23455 -3.75763 -1.39956 22
67 2 -11.8787 -7.8274 2.99261 13
68 2 -6.74784 -5.74371 -8.6532 18
69 2 -11.5057 -5.14531 -5.9825 13
70 2 -11.7358 0.0673575 -5.68776 14
71 2 -11.2027 -8.01747 -0.578644 12
72 2 -11.6345 -5.40894 -2.53924 16
73 2 -8.00327 -6.66104 -6.2698 20
74 2 -10.1332 -7.61581 -7.66735 10
75 2 -6.74384 -9.05951 -8.03107 15
76 2 -5.63706 -12.7319 -6.67296 7
77 2 -7.78587 -9.56616 -5.14268 12
78 2 -9.21661 -7.09396 -2.49343 18
79 2 -6.32203 -7.21264 -3.83591 22
80 2 -8.35636 -9.56169 0.327319 13
81 2 -6.48631 -7.08498 -0.542192 21
82 2 -1.36648 -0.727843 -14.102 14
83 2 -5.86863 -1.44995 -11.5592 16
84 2 -9.3439 -1.55972 -9.55121 12
85 2 -7.90639 -3.45117 -11.0653 13
86 2 -8.78346 -4.42382 -8.12574 15
87 2 -6.69161 -1.97375 -8.03314 22
88 2 -9.5731 -2.51035 -6.1598 20
89 2 -6.03886 -4.52284 -5.81499 22
90 2 -8.56153 -4.77083 -4.02296 22
91 2 -6.8904 -1.60657 -4.42544 20
92 2 -9.49656 -2.32391 -2.49594 21
93 2 -5.98996 -4.42938 -2.38554 22
94 2 -9.10461 -4.38365 -0.828454 21
95 2 -6.46295 -1.78317 -1.10602 21
96 2 -3.5819 -10.5048 -7.38702 17
97 2 -1.87098 -12.2621 -7.64644 9
98 2 -4.94433 -10.3736 -4.95953 17
99 2 -2.74127 -12.1678 -2.16169 15
100 2 -1.53183 -6.74108 -10.6755 18
101 2 -4.6884 -4.59161 -10.8146 16
102 2 -0.844067 -9.54698 -9.27549 14
103 2 -4.10693 -8.16562 -8.486 15
104 2 -0.904835 -6.62131 -7.62577 21
105 2 -4.02805 -6.9915 -5.94705 20
106 2 -0.963904 -9.4702 -6.08574 20
107 2 -3.14566 -9.09637 -3.69877 20
108 2 -1.22842 -7.38835 -3.84642 23
109 2 -3.77703 -6.51934 -2.21481 23
110 2 -0.449236 -10.2645 -2.56388 22
111 2 -2.88395 -9.87622 -0.395093 21
112 2 -0.860018 -7.26382 -0.999487 23
113 2 0.498347 0.526545 -12.695 18
114 2 -1.48404 2.33961 -13.3376 15
115 2 -1.8855 -4.26373 -12.4263 14
116 2 -3.72285 -2.2598 -12.9599 14
117 2 -1.08781 -2.08638 -10.8112 23
118 2 -3.80093 -2.49878 -9.29573 22
119 2 -0.0682461 -4.33756 -9.38036 23
120 2 -3.01376 -4.91178 -7.85297 23
121 2 -1.08012 -2.31467 -7.65728 24
122 2 -3.71201 -2.03299 -5.9636 21
123 2 -0.0868365 -4.62675 -5.86572 23
124 2 -3.12663 -4.54358 -4.26743 22
125 2 -0.782995 -2.33269 -4.14264 22
126 2 -3.69523 -2.05899 -2.68981 21
127 2 -0.190671 -4.9996 -2.54514 24
128 2 -3.03343 -3.84018 -0.658741 20
129 2 -0.882266 -1.8237 -1.47079 22
130 1 -11.5215 -7.01996 1.11261 17
131 1 -13.0199 -7.17599 4.03232 10
132 1 -11.3044 -1.82788 0.964912 20
133 1 -11.8041 3.78249 0.232986 16
134 1 -12.7549 -4.28313 2.37604 14
135 1 -12.0448 -1.3611 4.05254 16
136 1 -12.9308 -3.8225 5.74038 11
137 1 -11.439 -1.0862 7.21471 14
138 1 -6.6513 -11.2745 -5.6432 12
139 1 -5.02715 -12.2948 4.42109 8
140 1 -10.1362 -9.09204 0.596794 13
141 1 -5.56098 -7.14746 1.41754 20
142 1 -8.34471 -7.30442 2.477 21
143 1 -7.54955 -10.0785 2.36147 14
144 1 -10.4826 -8.1995 4.16728 15
145 1 -5.77603 -6.67728 4.66564 19
146 1 -8.2611 -7.08564 5.76528 20
147 1 -6.44325 -10.0915 5.34931 13
148 1 -5.48024 -7.31527 7.30623 18
149 1 -11.6397 -6.53457 6.99009 12
150 1 -8.52282 -6.31237 8.83689 13
151 1 -5.81184 -6.64241 10.9489 10
152 1 -9.5618 -4.90974 1.22363 21
153 1 -5.90068 -1.71251 0.996393 21
154 1 -8.90068 -2.01264 2.50025 21
155 1 -6.48906 -4.55378 2.52373 24
156 1 -9.69494 -4.57008 4.33917 23
157 1 -6.02853 -1.31157 4.22525 20
158 1 -8.76499 -1.6002 5.75458 21
159 1 -6.83668 -3.94333 6.31545 22
160 1 -9.81597 -4.30698 7.57104 16
161 1 -6.02193 -1.49433 7.92367 22
162 1 -8.66261 -1.05665 9.07196 15
163 1 -6.91328 -3.60006 9.6408 16
164 1 -6.06884 -0.593193 10.9957 12
165 1 -2.13645 -6.5293 10.9927 18
166 1 0.0700957 -13.2986 0.36743 12
167 1 -2.53348 -11.9641 -0.329289 14
168 1 0.563425 -10.8855 2.61922 17
169 1 0.169136 -11.1681 5.15735 13
170 1 -2.01078 -12.5043 2.89328 11
171 1 -3.96572 -9.81174 1.37557 18
172 1 0.0796667 -6.27532 0.507082 21
173 1 -2.91483 -6.35351 2.70172 22
174 1 -0.963875 -8.43543 2.26955 19
175 1 -3.62838 -9.8388 4.21022 21
176 1 0.343271 -6.76446 4.39301 22
177 1 -2.87812 -7.02189 5.92175 22
178 1 -1.13717 -9.02316 5.73544 22
179 1 -2.95986 -10.5119 7.08328 15
180 1 -0.45016 -6.79445 7.58635 21
181 1 -3.19911 -7.70109 8.88041 21
182 1 -0.342094 -10.3921 8.32471 15
183 1 0.369287 -8.56678 11.2767 12
184 1 -2.33366 -10.062 10.6256 9
185 1 -3.89665 -4.27948 0.841229 21
186 1 0.131722 -1.73658 0.571112 22
187 1 -3.03165 -1.83741 2.45732 23
188 1 -1.01551 -4.29752 2.44314 23
189 1 -3.80825 -4.07782 4.34969 23
190 1 -0.152921 -1.3864 3.98785 23
191 1 -3.04915 -1.57277 5.94299 23
192 1 -1.13973 -4.12527 5.84851 22
193 1 -4.04721 -4.25702 7.59299 23
194 1 -0.0446846 -1.73528 7.5008 21
195 1 -3.01117 -1.36188 9.3393 19
196 1 -1.24401 -4.41289 9.23179 25
197 1 -3.83347 -3.42211 11.1256 17
198 1 -0.156679 -1.41958 10.7521 20
199 1 -3.34338 -0.962658 12.9782 13
200 1 -0.837274 -4.00379 12.3251 18
201 1 -0.743227 -1.12391 14.2322 12
202 2 -11.7778 -7.95573 5.65828 9
203 2 -12.1395 -5.02226 0.669456 15
204 2 -11.9226 -2.72779 2.72567 16
205 2 -13.3134 -5.35315 4.09907 11
206 2 -12.6405 -1.87253 5.95926 11
207 2 -11.6161 -4.59546 6.60545 14
208 2 -9.3789 -6.69881 0.706784 20
209 2 -5.62782 -9.94485 -2.12832 17
210 2 -9.08 -9.02483 2.85591 15
211 2 -6.59929 -6.48623 2.83209 23
212 2 -9.23321 -6.50357 4.21859 21
213 2 -6.54052 -11.1197 3.81631 10
214 2 -6.7569 -8.32771 5.30695 18
215 2 -6.46615 -5.96259 6.23906 22
216 2 -9.57418 -6.57687 7.12628 15
217 2 -4.57257 -10.9263 5.89173 12
218 2 -6.62227 -7.14336 9.04362 13
219 2 -9.38704 -1.31555 0.723282 20
220 2 -5.80021 -3.73383 0.656495 25
221 2 -8.86013 -3.99239 2.48983 21
222 2 -6.79332 -1.26052 2.60345 21
223 2 -9.87027 -1.18239 4.39452 21
224 2 -5.73834 -3.77049 4.25709 22
225 2 -8.69584 -3.71065 5.88266 19
226 2 -6.87072 -0.915923 6.06524 24
227 2 -9.87635 -1.86476 7.49803 17
228 2 -5.55858 -3.30272 7.78765 19
229 2 -8.28068 -4.50705 8.59199 16
230 2 -7.00078 -1.67062 9.70252 15
231 2 -8.86995 0.857157 8.85328 18
232 2 -5.62428 -4.72686 10.8024 14
233 2 -2.6365 -4.66815 11.911 15
234 2 -5.73686 -9.21672 1.1883 17
235 2 -1.73433 -13.0313 1.15538 11
236 2 -3.82526 -11.621 3.05267 14
237 2 -0.504437 -12.2936 3.77841 13
238 2 -3.54332 -6.38879 0.950351 24
239 2 0.17674 -9.48521 0.994379 20
240 2 -2.73028 -9.13323 2.81088 19
241 2 -0.730907 -6.40211 2.30162 20
242 2 -3.7766 -6.39691 4.29768 24
243 2 0.0456532 -8.61112 3.98853 23
244 2 -3.04169 -8.87504 5.67709 22
245 2 -1.01047 -6.33569 5.86288 24
246 2 -3.67611 -6.33132 7.47145 21
247 2 0.119805 -8.71074 7.3054 23
248 2 -2.89537 -9.85494 8.86641 14
249 2 -1.34832 -6.39837 9.24783 22
250 2 -3.93972 -7.37406 10.516 12
251 2 -0.581637 -9.79794 10.1395 13
252 2 -3.97822 -1.41523 0.753805 20
253 2 -0.104212 -4.28613 0.694196 21
254 2 -2.92342 -3.91664 2.64377 20
255 2 -0.92451 -1.40449 2.35458 19
256 2 -4.00147 -1.19441 4.29381 22
257 2 0.137103 -4.3756 4.25215 23
258 2 -2.89019 -3.54516 5.95566 21
259 2 -0.927155 -0.984961 5.69193 24
260 2 -4.01377 -0.809471 7.56751 20
261 2 -0.216774 -3.65247 7.5174 20
262 2 -2.94365 -3.40743 9.22188 24
263 2 -1.27353 -0.813396 8.86425 22
264 2 -4.59079 -1.51698 11.5921 14
265 2 -0.09026 -3.40164 10.4965 23
266 2 -0.508753 -7.08637 11.7705 16
267 2 -1.58805 -2.08532 12.1714 17
268 2 -3.47163 2.70725 12.819 13
269 2 0.633155 -4.26011 13.439 13
270 1 -11.5946 -7.07189 -6.64923 7
271 1 -11.9075 3.82993 -5.93738 13
272 1 -12.6775 1.09579 -4.46115 14
273 1 -11.9831 7.27746 -4.78741 10
274 1 -11.6765 4.00106 -2.69989 20
275 1 -8.80109 9.06363 -1.69181 17
276 1 -5.62253 3.61928 -9.81472 20
277 1 -5.74334 0.790954 -11.1562 20
278 1 -9.22102 0.419377 -9.67318 16
279 1 -3.64384 5.47384 -10.0184 18
280 1 -8.6831 3.62558 -8.39681 16
281 1 -6.77881 1.25629 -7.95851 24
282 1 -9.72025 0.87052 -6.3793 21
283 1 -5.8116 3.74009 -6.48169 24
284 1 -9.02408 3.73269 -4.89238 20
285 1 -6.98207 1.05282 -4.7251 21
286 1 -9.82602 1.03041 -2.67239 21
287 1 -5.80784 3.91535 -3.40561 21
288 1 -8.87238 3.75413 -1.57121 21
289 1 -6.67778 0.664244 -1.46953 20
290 1 -6.73399 6.20485 -8.32624 17
291 1 -9.76286 6.44177 -6.60396 14
292 1 -5.95405 9.14452 -6.83674 14
293 1 -9.44007 9.62717 4.77494 12
294 1 -6.71936 6.46875 -5.05074 24
295 1 -9.60711 6.40285 -3.34185 22
296 1 -8.76203 9.08661 -4.95308 12
297 1 -7.47345 11.0768 0.470074 14
298 1 -6.93 5.93284 -1.68794 18
299 1 -5.90773 8.43637 -0.106554 22
300 1 -0.147697 4.1111 -12.7735 13
301 1 -8.12855 2.13626 -11.5237 12
302 1 -3.05865 5.82623 -12.8122 13
303 1 -2.478 2.71193 -11.5039 20
304 1 -0.513593 0.127515 -10.9508 23
305 1 -3.51159 1.23019 -9.26144 23
306 1 -0.0551884 4.07776 -9.44067 22
307 1 -2.65714 3.76101 -8.05096 23
308 1 -0.838336 1.36344 -7.5238 26
309 1 -3.81879 0.874465 -6.19595 21
310 1 -0.0179522 3.93997 -6.31733 22
311 1 -2.7629 3.59696 -4.82184 23
312 1 -0.893036 0.93728 -4.23855 23
313 1 -3.7616 1.23902 -2.88178 21
314 1 -0.0598198 3.97787 -3.19093 24
315 1 -3.08938 3.72094 -1.44565 19
316 1 -0.933199 1.12971 -1.17361 21
317 1 -2.49408 8.89953 -11.2688 11
318 1 -5.26351 8.33105 -10.1324 10
319 1 0.314009 8.76921 -9.70277 14
320 1 -2.87268 9.19463 -7.9514 16
321 1 -1.05254 6.77664 -8.10144 23
322 1 -3.73758 6.45178 -6.77075 23
323 1 0.330298 8.91038 -6.37523 20
324 1 -2.84675 8.9602 -4.86101 18
325 1 -1.09854 6.55519 -4.86562 23
326 1 -3.99664 6.01506 -3.48876 21
327 1 -0.41204 8.99676 -3.03258 23
328 1 -2.85157 8.66103 -1.63708 19
329 1 -0.745516 6.38171 -1.43466 22
330 1 -3.6914 11.8511 -3.65276 12
331 1 -0.713381 11.6245 -5.29114 13
332 1 -5.84823 8.36203 -3.64068 17
333 1 -0.970756 11.4563 -1.63818 16
334 2 -11.4067 5.72927 -5.86116 13
335 2 -10.1767 8.08265 -4.40014 13
336 2 -12.4206 3.01105 -4.3502 13
337 2 -12.3283 -2.32843 -0.946573 16
338 2 -12.2295 2.55662 -1.26812 15
339 2 -9.26766 2.86348 -6.54036 20
340 2 -11.9352 6.18813 -3.06272 14
341 2 -4.85307 0.949453 -13.3408 14
342 2 -7.78331 0.380149 -11.2404 16
343 2 -6.15721 2.51706 -11.6989 17
344 2 -9.13797 2.38314 -9.81406 14
345 2 -5.25766 0.569726 -9.22001 22
346 2 -12.2297 -2.84285 -4.41172 15
347 2 -6.51006 3.12363 -8.12769 21
348 2 -8.56321 0.620758 -7.80018 19
349 2 -6.00737 0.412154 -6.41977 22
350 2 -9.08595 0.367945 -4.5314 24
351 2 -6.91402 3.42151 -4.83408 21
352 2 -9.81782 3.33907 -3.2544 22
353 2 -5.64197 0.725365 -3.15334 20
354 2 -8.7117 0.571176 -1.32362 22
355 2 -6.80154 3.42974 -1.48116 18
356 2 -5.57406 5.44205 -9.69829 17
357 2 -8.53783 5.57246 -7.70422 16
358 2 -6.47662 8.4373 -8.52253 12
359 2 -5.57044 5.70043 -6.68679 23
360 2 -8.58035 5.77696 -4.93784 24
361 2 -7.08954 8.26544 -5.38358 17
362 2 -8.24823 11.0399 -1.29649 10
363 2 -5.96173 6.00752 -3.2692 20
364 2 -8.7755 6.15979 -1.54261 21
365 2 -9.40492 9.48066 6.62452 11
366 2 -6.86797 8.67347 -2.10663 20
367 2 -3.98251 4.26456 -12.2254 14
368 2 1.70747 3.54761 -12.3614 15
369 2 -2.26165 0.431939 -10.4446 22
370 2 -0.882612 3.66624 -11.0131 22
371 2 -3.43249 3.30048 -9.8206 21
372 2 0.143022 0.361312 -8.99881 22
373 2 -2.63905 0.373141 -7.73908 22
374 2 -0.88539 3.31715 -7.87346 21
375 2 -3.84233 2.79362 -6.74147 22
376 2 0.203823 0.362693 -5.68676 23
377 2 -2.8022 0.777379 -4.63139 22
378 2 -0.74119 2.87896 -4.63313 24
379 2 -3.78684 3.31973 -3.35481 21
380 2 0.0457242 0.559767 -2.65865 24
381 2 -2.69237 0.611451 -1.33816 23
382 2 -1.10226 3.62898 -1.2264 22
383 2 -2.80505 7.02951 -11.2949 16
384 2 -3.54516 9.15204 -9.77156 13
385 2 -0.709569 8.49242 -11.2641 12
386 2 -4.20969 8.48464 -6.59169 20
387 2 0.483752 6.37333 -9.73704 20
388 2 -2.56285 5.75376 -8.33712 21
389 2 -0.82486 8.74714 -8.00573 20
390 2 -5.41145 11.2351 -3.72055 13
391 2 0.0552831 6.05453 -6.37376 23
392 2 -2.90974 5.66695 -5.3387 24
393 2 -0.916012 8.5976 -4.91972 24
394 2 -3.6662 8.02384 -3.55759 21
395 2 -0.0299435 5.87443 -3.39427 23
396 2 -2.91262 5.89379 -1.70176 22
397 2 -0.83216 8.23306 -1.3434 21
398 2 0.957872 10.7701 -6.17936 16
399 2 -2.45135 11.0427 -4.88209 14
400 2 0.158402 11.1744 -3.19073 18
401 2 -2.86989 11.6881 -1.77028 13
402 1 -11.9684 7.39831 -1.29854 11
403 1 -12.722 1.38373 2.04504 14
404 1 -11.8967 4.32328 3.48524 16
405 1 -12.3592 1.6063 5.11745 16
406 1 -11.4365 4.66182 6.93593 13
407 1 -9.00048 8.87475 1.41521 15
408 1 -9.584 0.815015 0.478226 21
409 1 -6.07978 3.3742 0.337568 20
410 1 -9.06943 3.58093 2.02314 19
411 1 -7.00893 0.926147 2.16986 20
412 1 -9.67934 0.653228 3.80813 23
413 1 -6.2106 3.44805 3.81526 20
414 1 -9.33595 3.65887 5.18612 21
415 1 -6.9854 0.994053 6.12336 21
416 1 -9.96553 1.68716 7.45879 17
417 1 -6.04781 4.12281 6.96045 21
418 1 -10.0458 7.99265 7.36953 12
419 1 -7.06567 1.58059 9.12165 19
420 1 -8.82696 4.60761 8.51614 17
421 1 -4.78468 6.81136 10.6455 18
422 1 -6.31763 4.41795 10.0937 16
423 1 -9.67167 5.8817 0.167288 21
424 1 -7.25919 11.802 4.23081 11
425 1 -6.61416 10.9846 -2.24199 13
426 1 -6.96679 5.98969 1.89159 22
427 1 -12.3524 7.47348 4.80234 9
428 1 -6.2534 9.29087 3.06009 18
429 1 -8.04939 10.4513 7.33423 11
430 1 -10.0767 6.6422 3.16554 16
431 1 -7.29762 6.31336 5.25971 20
432 1 -4.90599 11.1693 6.45553 11
433 1 -7.2118 7.31621 8.60029 17
434 1 -3.96478 0.730857 0.33197 22
435 1 -0.319909 3.74728 0.39717 21
436 1 -3.21138 3.24317 2.12684 22
437 1 -1.35558 0.707197 2.42696 22
438 1 -4.09913 0.70735 3.99401 24
439 1 -0.304549 3.74723 3.86319 20
440 1 -3.24307 3.62558 5.65988 22
441 1 -1.00315 1.0177 5.42631 23
442 1 -3.77104 1.11761 7.37353 21
443 1 -0.551945 3.80966 7.27854 22
444 1 -3.46444 3.68461 9.1147 22
445 1 -1.07884 1.05969 8.90198 20
446 1 -4.54809 2.14084 11.3521 12
447 1 -1.47638 6.62637 12.0212 16
448 1 -3.25995 4.58576 12.4996 16
449 1 -0.758583 3.93214 10.8003 20
450 1 -2.3908 2.03223 14.2554 10
451 1 -0.180229 4.37691 13.9515 11
452 1 -3.89051 6.10536 0.192821 20
453 1 -0.455222 8.88301 0.438781 20
454 1 -3.48296 8.64025 2.06177 20
455 1 -1.09172 6.25659 1.97943 20
456 1 -4.34714 6.35256 3.79669 20
457 1 -0.436089 9.07746 3.73309 19
458 1 -3.16702 9.53602 5.27682 20
459 1 -1.33082 6.61702 5.26043 20
460 1 -4.09329 6.6367 7.1977 20
461 1 -0.694861 9.25376 10.4686 13
462 1 -3.55183 9.10542 8.86883 18
463 1 -1.48379 6.4763 8.64985 23
464 1 -5.88871 10.0599 9.7699 11
465 1 -0.182459 9.25383 7.14695 20
466 1 -3.80362 8.46124 12.7732 10
467 1 -3.91247 12.3296 -0.346339 12
468 1 -1.05628 11.9585 1.75293 15
469 1 -4.4546 11.6684 2.42368 12
470 1 -1.0356 11.6987 5.38525 15
471 1 -1.98214 11.5615 7.87335 12
472 2 -11.6893 0.478877 -2.92614 18
473 2 -11.6706 0.158325 0.804771 17
474 2 -12.2034 3.18933 1.98947 16
475 2 -11.7292 0.67586 3.58381 16
476 2 -11.822 3.57778 5.25593 16
477 2 -11.7874 0.735448 6.79087 15
478 2 -11.7871 5.63603 -0.197087 16
479 2 -8.031 9.99087 3.53455 15
480 2 -9.88317 3.84217 0.138251 20
481 2 -5.85169 1.24776 0.254556 22
482 2 -8.86806 1.37811 2.20584 22
483 2 -7.20798 3.66473 2.11895 19
484 2 -9.88417 4.60743 3.42428 21
485 2 -5.76908 1.34801 3.61897 22
486 2 -9.0275 1.2263 5.70517 21
487 2 -7.61684 4.27604 5.30152 20
488 2 -12.1242 6.36857 2.96186 12
489 2 -5.76681 1.58828 7.37378 20
490 2 -9.70947 3.71718 7.23998 16
491 2 -8.99043 6.5124 7.98626 16
492 2 -5.99097 1.33329 10.7903 14
493 2 -7.29426 3.36972 8.44799 20
494 2 -5.8074 11.8849 -0.444532 13
495 2 -6.00207 6.27342 0.0803481 19
496 2 -8.95494 7.02157 1.70452 21
497 2 -7.27974 9.01529 1.16427 19
498 2 -10.4854 8.5436 -0.90952 13
499 2 -6.09763 7.16104 3.51486 19
500 2 -10.3214 7.88107 4.55659 13
501 2 -11.4931 6.61414 6.66119 13
502 2 -6.17156 6.40499 7.07838 18
503 2 -7.26774 9.27722 8.70019 13
504 2 -6.70334 11.1748 6.01184 13
505 2 -4.70794 8.87753 10.8128 11
506 2 -3.01857 12.22 1.50504 12
507 2 -6.27471 11.8124 2.67149 11
508 2 -4.01873 3.63846 0.486692 19
509 2 -0.246848 0.923933 0.712858 19
510 2 -3.2039 1.22642 2.22324 19
511 2 -1.3218 4.11218 2.05962 20
512 2 -4.57399 4.23952 4.25432 22
513 2 -0.238977 1.65466 3.79893 21
514 2 -2.9392 1.60001 5.61437 22
515 2 -1.5962 4.56008 5.60894 21
516 2 -4.24342 4.66855 7.39101 23
517 2 -0.322062 1.76816 6.91736 22
518 2 -2.98651 1.61582 8.89163 18
519 2 -1.60541 4.39184 8.95074 23
520 2 -6.47434 6.33172 10.0154 16
521 2 -0.227064 1.98678 10.5331 18
522 2 -4.55389 4.01672 10.934 17
523 2 -0.432752 2.428 14.2844 13
524 2 -2.26569 0.106078 14.2069 8
525 2 -3.87225 8.14666 -0.135353 16
526 2 0.0433445 6.23215 0.361876 21
527 2 -3.28304 6.37119 2.08399 20
528 2 -1.57833 8.97543 2.07043 21
529 2 -3.41806 7.19936 9.05273 23
530 2 -0.261893 6.94607 3.69696 21
531 2 -3.24324 7.19681 5.59496 20
532 2 -1.11191 9.54939 5.30602 19
533 2 -4.60358 10.5784 8.13909 12
534 2 -0.39283 7.0101 6.87988 23
535 2 -1.9189 8.49991 11.8075 14
536 2 -1.42789 10.0496 8.81459 17
537 2 -0.517847 6.0917 10.3974 20
538 2 -3.62273 6.6228 12.3903 12
539 2 -0.318724 11.0805 0.152919 19
540 2 -4.44499 9.88857 3.56258 18
541 2 -0.202156 12.0238 3.53296 14
542 2 -3.068 11.2082 6.20849 12
543 2 -0.314676 11.9172 7.1847 10
544 1 1.80307 -11.9264 -4.134 13
545 1 4.83094 -12.0779 -2.06618 11
546 1 2.38524 -11.6422 -0.755962 20
547 1 2.20815 -6.81103 -11.4031 14
548 1 0.999599 -9.41715 -9.1181 14
549 1 4.54529 -4.07908 -11.0442 15
550 1 2.75225 -6.86317 -7.90512 19
551 1 4.34575 -9.8785 -7.46893 12
552 1 1.39178 -9.42741 -6.1093 20
553 1 5.82161 -6.84898 -6.12697 20
554 1 2.9037 -6.70755 -4.48826 24
555 1 4.26726 -9.77285 -4.54491 20
556 1 1.77079 -9.41182 -2.75304 23
557 1 5.88114 -7.11797 -2.78242 20
558 1 3.1193 -6.65282 -1.07049 21
559 1 4.62681 -9.19004 -0.911437 20
560 1 -0.290508 -3.7202 -11.4274 22
561 1 11.4909 4.36586 -9.7564 10
562 1 2.77936 -1.60627 -10.9411 25
563 1 2.21558 -4.13179 -12.8253 12
564 1 1.85633 -4.14033 -9.51815 23
565 1 4.43081 0.920816 -10.8517 19
566 1 2.93499 -1.66051 -7.68622 22
567 1 4.86327 -4.24911 -7.76752 22
568 1 1.7996 -4.09484 -6.40315 23
569 1 6.23431 -1.6701 -6.10186 22
570 1 3.13226 -1.72028 -4.69956 22
571 1 4.91692 -4.21038 -4.51283 21
572 1 2.0019 -4.09874 -2.89498 23
573 1 5.96921 -1.76538 -2.59602 19
574 1 3.05779 -1.33688 -1.26358 22
575 1 4.81043 -3.89061 -1.0552 22
576 1 7.22013 -6.08934 -9.36259 13
577 1 7.26485 -10.0722 -5.63696 11
578 1 10.5531 -4.70016 -7.76324 13
579 1 9.05376 -7.33929 -6.55361 11
580 1 9.05077 -8.40449 -3.0979 11
581 1 10.5302 -4.95671 -4.51701 14
582 1 9.08061 -6.62819 -0.766416 20
583 1 12.3899 -5.60047 -0.871395 12
584 1 4.99789 -1.92312 -13.0489 12
585 1 5.83065 -1.6051 -9.43267 19
586 1 9.16173 -3.28339 -9.71466 12
587 1 8.34284 -2.55889 -13.1502 6
588 1 7.80457 -4.63985 -6.44725 21
589 1 8.70966 -1.50612 -7.80031 19
590 1 9.18693 -2.2671 -4.37469 22
591 1 11.5245 -2.32521 -6.1799 13
592 1 7.53289 -5.08322 -2.26593 20
593 1 11.6012 -1.15839 -2.87999 20
594 1 8.79922 -1.17674 -0.805362 21
595 1 10.267 -3.66817 -1.76046 21
596 1 13.4083 -3.92029 -3.41217 11
597 1 13.469 -2.56899 -0.675419 13
598 2 -0.0894343 -12.4968 -4.58008 12
599 2 3.18817 -12.5397 -2.81123 12
600 2 5.23997 -11.8097 2.72284 11
601 2 0.565371 -6.35596 -12.3643 12
602 2 4.56546 -2.17277 -10.6864 18
603 2 1.53251 -7.33342 -9.6483 17
604 2 2.36382 -10.1793 -8.02287 12
605 2 4.44607 -7.75984 -7.24578 18
606 2 1.65895 -7.62659 -6.0959 24
607 2 5.60732 -10.3846 -5.81187 10
608 2 2.28367 -10.1498 -4.58339 18
609 2 4.60909 -7.75913 -4.40575 21
610 2 1.92911 -7.56892 -3.03588 24
611 2 5.02895 -10.1383 -2.5743 17
612 2 2.64558 -9.58479 -1.02644 23
613 2 5.03537 -7.29131 -1.16675 21
614 2 0.729891 -2.72071 -12.7205 19
615 2 2.58865 -4.82785 -11.024 17
616 2 5.52166 1.30837 -12.5879 13
617 2 1.96665 -2.28437 -9.26315 25
618 2 3.90531 -3.46412 -12.9762 8
619 2 2.73002 -4.89529 -7.96288 23
620 2 4.90825 -2.22035 -7.75121 24
621 2 1.72426 -2.21921 -5.80336 23
622 2 5.88287 -4.94355 -6.04028 19
623 2 2.88718 -4.60334 -4.60202 21
624 2 5.43139 -2.45494 -4.40041 22
625 2 2.25888 -2.06683 -2.85486 21
626 2 5.67016 -5.04002 -2.71105 21
627 2 2.891 -4.49087 -1.22985 22
628 2 4.73854 -1.87274 -1.08094 22
629 2 5.67636 -5.02883 -9.51876 17
630 2 7.44578 -7.02692 -7.42758 13
631 2 8.52222 -8.55399 -5.21705 9
632 2 10.0748 -5.82538 -6.09438 12
633 2 7.81696 -6.91548 -2.32237 16
634 2 9.13985 -9.11635 -1.19827 10
635 2 11.9139 -4.54363 -2.46702 14
636 2 8.75492 -3.48748 -11.6352 6
637 2 6.86407 -1.28987 -13.3645 8
638 2 8.38327 1.33799 -11.379 12
639 2 10.5452 2.83784 -9.24982 13
640 2 8.69308 -4.88149 -9.00154 13
641 2 7.71658 -1.45792 -9.45133 16
642 2 9.01425 -4.16729 -3.81632 18
643 2 10.7838 -1.28667 -4.66255 18
644 2 8.02662 -1.44598 -2.68209 20
645 2 12.3003 -3.65001 -5.07268 13
646 2 8.86236 -4.74272 -0.75526 19
647 2 10.5386 -2.03977 -0.90856 21
648 2 10.3603 -2.57147 -7.73254 14
649 2 13.188 -2.18299 -2.38848 14
650 2 13.6404 -4.54785 -0.284224 11
651 1 6.30679 -11.9254 0.651593 12
652 1 3.57549 -12.1175 1.66769 14
653 1 6.0243 -10.8414 4.25966 12
654 1 3.39891 -10.7727 6.52819 11
655 1 2.18892 -8.95709 0.71163 23
656 1 6.04754 -6.47656 0.533576 22
657 1 2.75805 -6.37217 2.50597 23
658 1 5.18742 -9.14312 2.29371 20
659 1 2.30353 -8.89343 4.1957 21
660 1 5.72128 -6.57557 4.50916 22
661 1 3.09986 -6.25632 6.05943 23
662 1 5.76398 -8.81043 6.68419 16
663 1 3.79693 -8.77759 9.58225 12
664 1 5.51194 -6.40372 7.97047 19
665 1 2.11172 -6.14028 9.67724 22
666 1 1.96219 -8.28795 7.4462 21
667 1 4.23914 -6.03012 11.4406 14
668 1 0.995853 -6.33514 12.9765 13
669 1 1.86107 -3.91442 0.689449 22
670 1 6.10198 -1.07707 0.57744 24
671 1 3.06256 -1.4353 2.51318 22
672 1 4.68191 -3.95931 2.21553 22
673 1 1.97675 -3.86836 3.86609 20
674 1 6.15157 -1.12218 3.87965 22
675 1 2.96785 -1.1274 5.41716 21
676 1 4.76457 -3.78228 5.62124 20
677 1 1.66587 -4.41724 7.51321 21
678 1 5.74176 -0.744775 7.06678 24
679 1 2.69899 -0.953158 9.21668 21
680 1 4.40384 -3.53628 9.32094 20
681 1 1.8714 -3.81446 11.1984 21
682 1 5.65359 -0.867958 10.4078 19
683 1 2.60253 -0.701784 12.6206 15
684 1 4.83111 -2.77472 12.6932 13
685 1 1.72699 -3.09722 14.5984 10
686 1 7.68231 -9.4914 -0.090017 17
687 1 10.9539 -8.75405 2.9734 10
688 1 8.66418 -6.37724 2.49744 20
689 1 11.0395 -8.83865 -0.465841 10
690 1 9.68854 -11.365 2.08337 8
691 1 8.49392 -6.15527 6.29036 18
692 1 8.31802 -8.58311 3.95522 16
693 1 7.3859 -3.75588 7.64796 21
694 1 7.86446 -3.87218 0.843142 20
695 1 11.3755 -1.02105 0.648143 21
696 1 8.76607 -1.04634 2.4994 23
697 1 10.8908 -3.64576 3.05357 18
698 1 7.28588 -3.78222 4.05588 20
699 1 11.6465 -1.25367 4.11046 19
700 1 8.76406 -0.910796 5.47657 23
701 1 10.2576 -3.58537 6.27624 18
702 1 10.0259 -4.97118 9.02528 10
703 1 11.3805 -1.67404 7.70367 11
704 1 8.76094 -1.17698 9.12878 16
705 1 11.1442 -6.45462 5.71135 13
706 1 7.20998 -3.71866 10.7955 11
707 1 13.8939 -4.40246 1.54732 10
708 1 14.9133 -1.37608 3.01966 10
709 1 13.3959 -3.82355 4.68296 11
710 2 0.291154 -12.5049 -1.3385 15
711 2 8.09925 -11.8478 0.859388 9
712 2 1.93077 -10.6166 5.62368 15
713 2 3.45228 -9.44056 7.94816 16
714 2 2.11603 -7.02156 0.645066 21
715 2 5.72378 -10.0863 0.617394 21
716 2 1.61328 -11.8788 1.19296 14
717 2 4.52629 -7.07658 2.87782 19
718 2 2.37334 -7.04564 4.44636 20
719 2 9.17786 -9.98775 3.27321 12
720 2 1.88302 -8.19306 10.1502 16
721 2 4.67385 -7.32776 6.0065 21
722 2 1.79642 -6.439 7.56656 20
723 2 4.95998 -10.4355 5.67844 10
724 2 -1.19701 -10.9834 6.50763 13
725 2 4.49539 -7.0012 9.57529 17
726 2 2.29371 -5.51224 11.8175 17
727 2 2.07427 -2.00747 0.729646 21
728 2 6.09873 -4.61166 0.315974 23
729 2 2.85934 -4.41849 2.36071 22
730 2 4.91605 -1.70447 2.13712 23
731 2 1.70282 -1.85992 3.86171 20
732 2 5.35856 -4.53666 4.01595 21
733 2 2.83397 -4.26696 5.60725 22
734 2 5.13722 -1.64597 5.59934 22
735 2 1.87018 -0.902115 7.29524 22
736 2 5.00301 -4.69771 7.46129 20
737 2 2.5531 -4.22303 9.41857 19
738 2 4.54493 -1.66374 8.85743 21
739 2 1.88756 -0.806209 10.8335 22
740 2 5.09975 -4.15113 11.444 14
741 2 3.29758 -3.20577 13.5708 12
742 2 4.59706 -0.485657 12.3209 14
743 2 1.04278 -1.14041 13.9554 16
744 2 4.45815 -12.0754 0.0328409 15
745 2 7.80577 -7.29052 0.805441 22
746 2 10.6166 -9.58412 1.22588 13
747 2 11.0815 -6.97667 -0.766913 12
748 2 2.89758 -9.50093 2.34315 20
749 2 10.4033 -7.47769 4.19075 12
750 2 7.96948 -4.27545 5.70034 24
751 2 7.90671 -6.75439 4.10063 19
752 2 6.57923 -8.97112 3.85379 15
753 2 7.97237 -1.76208 1.01971 20
754 2 12.4054 -5.14041 2.74515 13
755 2 8.96922 -4.37451 2.4343 18
756 2 10.7457 -1.45215 2.55067 18
757 2 7.81979 -1.71103 3.90117 23
758 2 11.3351 -4.37316 4.93655 16
759 2 7.0608 -7.29939 7.01648 14
760 2 10.5673 -1.62457 6.05247 18
761 2 7.70415 -1.4281 7.40225 21
762 2 10.2812 -5.8084 7.17556 12
763 2 8.12605 -4.55626 9.35151 16
764 2 10.8037 -3.37685 8.51492 11
765 2 7.44016 -1.83172 10.4266 16
766 2 13.3438 -1.17796 0.514302 16
767 2 14.9877 -3.04667 1.92144 9
768 2 13.5727 -2.13861 4.22165 14
769 1 2.09628 1.6192 -12.811 15
770 1 9.33579 2.81096 -10.777 13
771 1 2.74127 4.04479 -10.8098 21
772 1 5.51678 3.33504 -12.6113 14
773 1 1.94743 1.17625 -9.3537 24
774 1 5.70681 3.73855 -9.58942 24
775 1 2.88383 3.70611 -7.731 22
776 1 4.87251 1.04814 -7.74609 21
777 1 2.06384 0.962287 -5.89119 24
778 1 5.91125 3.6087 -6.0985 21
779 1 3.02147 3.70348 -4.66873 22
780 1 4.8295 1.01717 -4.29626 21
781 1 1.90905 1.35428 -2.89021 23
782 1 5.83847 3.97376 -2.84465 22
783 1 2.80704 4.12905 -1.3999 23
784 1 4.85511 1.31264 -1.07328 23
785 1 -7.04792e-04 6.65994 -11.6805 16
786 1 5.34449 6.63312 -11.5125 12
787 1 2.33595 6.89453 -9.60723 19
788 1 3.41199 8.88996 -7.77118 16
789 1 4.89966 6.10882 -7.74217 23
790 1 2.018 6.25397 -6.19877 22
791 1 5.77798 9.4096 -6.4273 17
792 1 3.00295 9.1638 -4.72546 23
793 1 5.02512 6.43323 -4.67711 24
794 1 1.90114 6.67112 -3.11912 26
795 1 5.50401 9.31617 -2.8365 19
796 1 2.53383 9.31196 -1.52336 23
797 1 4.77658 6.78489 -1.24802 23
798 1 2.55819 11.6112 -6.67666 13
799 1 5.094 12.0368 -5.13461 10
800 1 1.80687 12.0803 -3.70856 15
801 1 4.312 12.3117 -1.87798 12
802 1 8.35245 4.13235 -7.87498 24
803 1 7.51717 1.32298 -9.33092 21
804 1 10.8298 6.86354 -7.9074 14
805 1 7.2246 0.36183 -12.6757 11
806 1 7.90807 1.10062 -6.10456 19
807 1 11.4592 3.94604 -6.19475 14
808 1 8.96927 3.41678 -4.37939 20
809 1 10.9421 0.937604 -4.54682 16
810 1 7.8202 0.789322 -2.76382 19
811 1 11.8089 4.68527 -2.59829 17
812 1 8.70419 4.10098 -1.22769 20
813 1 10.6124 1.87771 -1.11118 24
814 1 7.97551 5.65316 -10.7276 12
815 1 7.8074 6.7667 -6.10995 21
816 1 7.13915 8.07158 -8.72287 13
817 1 10.8169 6.41544 -4.65321 14
818 1 7.79581 6.74735 -2.90917 22
819 1 8.20057 9.99012 -1.34899 11
820 1 10.5115 7.05389 -0.724387 16
821 1 9.17069 8.75866 -5.48984 11
822 1 10.5502 1.37494 -8.00887 15
823 1 13.2172 2.08274 -2.74032 11
824 1 14.8606 3.31999 -0.79357 8
825 2 -0.951856 5.79295 -13.1114 12
826 2 2.42621 0.284912 -11.2653 20
827 2 4.41207 3.0429 -10.8405 19
828 2 9.67567 4.78003 -10.7891 12
829 2 1.61678 3.2 -9.26716 21
830 2 5.70242 0.459976 -9.41839 23
831 2 3.00431 0.537327 -7.69827 24
832 2 4.89285 3.10526 -7.72173 24
833 2 1.89713 2.99099 -6.06195 24
834 2 5.95093 0.468863 -5.93255 22
835 2 3.27267 0.165217 -4.43791 24
836 2 4.9267 3.18386 -4.30605 21
837 2 1.7389 3.29922 -3.04443 21
838 2 5.96798 0.614825 -2.57186 21
839 2 2.87275 0.701777 -0.944391 23
840 2 4.6516 3.49966 -0.989263 21
841 2 3.49006 6.14388 -11.1806 15
842 2 2.23125 8.85021 -9.18906 16
843 2 6.94209 7.2012 -10.3886 12
844 2 3.10142 5.77533 -8.1159 20
845 2 5.33101 8.03656 -7.9885 17
846 2 2.34918 8.21629 -6.31994 22
847 2 6.0884 5.47969 -6.2693 23
848 2 3.21185 5.75467 -4.55071 24
849 2 4.90839 8.47563 -4.5326 23
850 2 1.64701 8.65811 -3.28267 23
851 2 5.78938 6.56503 -2.89633 20
852 2 2.75677 6.08414 -1.48765 22
853 2 4.1686 8.63411 -0.860079 22
854 2 2.98784 12.6972 -5.1505 11
855 2 4.77966 11.1498 -3.49508 16
856 2 2.51161 11.4882 -1.8961 18
857 2 6.29353 4.79464 -11.9014 12
858 2 7.61236 3.4507 -9.56791 20
859 2 10.8135 2.09467 -6.18286 14
860 2 8.77543 0.661582 -7.8449 20
861 2 11.4823 4.92051 -7.94641 12
862 2 8.01171 3.20053 -6.36498 21
863 2 8.09984 -2.51226 -6.34018 23