ITEM: TIMESTEP
16000
ITEM: NUMBER OF ATOMS
2000
ITEM: BOX BOUNDS pp pp pp
-30.0 30.0
-30.0 30.0
-30.0 30.0
ITEM: ATOMS id type x y z Coordination
1 1 -10.0632 3.78304 -10.1328 17
2 1 -4.17889 -11.8063 -10.0821 21
3 1 0.30669 13.4006 10.8954 14
4 1 5.86174 -11.5715 8.54758 9
5 1 -12.4113 12.5218 -0.430854 13
6 1 6.10043 -10.6276 -7.48532 20
7 1 -11.335 3.53828 -3.37116 21
8 1 -2.9472 -9.69724 7.20513 20
9 1 -7.44958 -2.13698 -10.4906 17
10 1 -13.6063 -9.75834 3.53079 15
11 1 14.2246 0.373716 -10.2356 13
12 1 -5.52345 -12.1412 -0.0211292 22
13 1 -11.8022 -10.3003 0.876373 13
14 1 0.900706 2.2126 14.4386 16
15 1 7.06269 -2.13433 6.32433 20
16 1 1.23373 4.83151 9.49027 18
17 1 8.03111 -4.32211 1.31067 17
18 1 -0.351614 9.87422 -8.8351 19
19 1 -0.555625 -0.667749 11.2923 18
20 1 -9.21355 -0.420581 -12.113 20
21 1 -11.7862 -3.13388 15.6109 9
22 1 18.0961 6.14053 2.63792 12
23 1 1.91087 9.65023 -10.8914 20
24 1 5.8772 5.00112 -11.5918 20
25 1 12.0528 5.3682 13.0224 17
26 1 -6.97836 1.90388 -1.38935 20
27 1 -14.4545 5.31829 -7.58573 15
28 1 -3.78671 1.07647 -9.14471 18
29 1 -11.3261 5.87739 10.6015 19
30 1 3.65726 -15.4796 4.86713 16
31 1 1.9893 -0.356661 9.84419 19
32 1 -1.257 -12.8 -13.6754 12
33 1 7.45815 -13.1682 3.30488 17
34 1 -6.48222 -13.275 -10.3871 14
35 1 -12.9301 -6.70155 11.4108 19
36 1 4.57518 -8.57114 -4.49001 17
37 1 0.0662695 -7.93047 -13.9499 17
38 1 5.14001 -8.71277 -9.4032 20
39 1 -2.32559 8.22492 -13.7609 13
40 1 2.57344 4.94931 13.5259 23
41 1 0.54303 -10.2668 7.89009 14
42 1 2.63469 -3.05335 8.5578 20
43 1 -13.2226 -1.76489 0.771235 18
44 1 -13.4492 -0.345624 6.92471 17
45 1 -8.34296 -0.981415 -1.23118 21
46 1 -5.03386 11.5774 -1.90755 19
47 1 -3.508 -15.1722 -11.6162 12
48 1 2.0432 3.90339 -9.91924 21
49 1 0.997629 -9.24644 -11.1517 16
50 1 -1.99837 -9.07442 10.6046 16
51 1 -11.9214 -0.31702 -2.09029 19
52 1 5.8348 11.4429 -11.46 12
53 1 -1.16869 14.7398 7.17853 19
54 1 -12.2804 6.47748 -9.92191 16
55 1 -5.01142 13.7866 -3.82533 21
56 1 0.409811 -12.876 -0.118271 22
57 1 7.06343 -10.2834 -4.84501 18
58 1 3.31619 -3.84039 -12.1448 19
59 1 -14.2623 6.28034 12.1629 11
60 1 -10.5278 -4.35038 -9.51653 20
61 1 8.68388 1.01431 1.43251 21
62 1 -16.0623 9.45392 -5.00392 7
63 1 -6.11585 -8.25334 6.92175 19
64 1 -4.84514 12.4583 11.3175 13
65 1 -15.9208 6.06386 -4.91047 10
66 1 -9.28167 6.14078 12.5228 14
67 1 2.32911 5.19415 -6.98008 16
68 1 -1.25659 7.38015 4.36146 17
69 1 -7.7068 -14.4882 6.17916 17
70 1 0.512262 6.75948 7.20279 19
71 1 2.98554 -15.5112 -7.46267 13
72 1 2.34299 11.1938 13.138 16
73 1 -13.6337 2.3709 -6.74857 17
74 1 -13.2499 3.57079 -9.78385 13
75 1 9.2377 3.03744 15.7979 15
76 1 13.0898 -2.91032 -11.3276 12
77 1 8.04194 -11.4795 5.62012 13
78 1 -13.94 -4.51544 3.23009 19
79 1 -7.22852 -3.86221 -1.0034 22
80 1 1.55137 11.7309 2.56786 18
81 1 8.52925 -1.19126 10.936 16
82 1 -9.62939 -13.6196 3.30281 15
83 1 -11.0248 -4.39292 -3.23149 16
84 1 11.668 0.121774 3.91679 19
85 1 6.51249 -0.802556 -3.32662 18
86 1 -1.99508 11.893 8.74232 20
87 1 3.54203 -0.331275 7.03145 19
88 1 -8.85067 -5.7184 4.89933 18
89 1 -3.26129 -8.15544 -10.4861 20
90 1 -15.634 1.32966 8.76925 14
91 1 -11.2179 8.53536 -0.545521 21
92 1 -5.4938 8.65955 -6.41669 21
93 1 2.90727 -3.61245 -6.04294 20
94 1 8.0233 -3.65057 -5.04885 19
95 1 10.9277 9.8841 -9.15891 10
96 1 4.15794 -8.85099 1.21406 19
97 1 3.44749 -8.7804 10.7888 14
98 1 -7.09759 14.4212 -6.2896 8
99 1 -9.71336 10.7887 3.74677 18
100 1 -8.20718 -3.69013 16.9457 11
101 1 -7.21849 6.13099 6.63912 19
102 1 -7.99262 -5.28519 12.5336 20
103 1 12.0997 -8.47024 -2.50716 20
104 1 -11.8722 0.519501 4.3733 18
105 1 -10.5283 -18.8953 4.95025 11
106 1 12.3438 -4.82959 -8.66587 15
107 1 1.7049 -2.4846 -13.9 20
108 1 -6.497 -0.0862706 -16.4577 9
109 1 -0.366409 12.1585 0.703779 19
110 1 -11.1394 7.48855 -5.97559 17
111 1 -1.96038e-04 7.42001 17.9214 9
112 1 -2.67088 10.513 -6.86346 18
113 1 -14.5292 10.4408 1.61651 11
114 1 -0.137503 7.11816 -0.691028 21
115 1 -7.04104 -10.8465 11.8305 12
116 1 14.8384 -2.28523 6.30693 8
117 1 -1.46919 -6.46646 -6.61369 20
118 1 3.42194 -11.0913 -9.8152 22
119 1 -3.93462 3.01467 7.72476 19
120 1 10.1317 0.678958 9.54091 15
121 1 -13.8809 -7.92612 6.33184 17
122 1 6.07702 -4.52454 4.04721 19
123 1 -8.75993 -8.48403 -4.21317 20
124 1 10.4446 -13.7196 4.34063 9
125 1 -5.06051 9.08343 0.313192 22
126 1 8.06802 -1.65084 -14.5223 14
127 1 4.35171 15.4572 -0.459006 14
128 1 -9.62683 -14.851 10.1162 11
129 1 -7.68848 -9.60419 8.70106 21
130 1 4.14579 -12.6105 -13.2504 15
131 1 4.07921 7.90515 -6.13795 20
132 1 13.8704 -11.4087 -0.493135 14
133 1 -4.29049 -16.9603 1.71631 17
134 1 -9.02908 -8.7775 0.0410623 17
135 1 16.596 7.97605 4.25702 13
136 1 14.2572 -7.43112 -7.75656 10
137 1 -15.5811 -5.41021 1.15616 16
138 1 10.6584 8.68249 6.11157 21
139 1 16.6911 10.6098 1.95484 10
140 1 -1.73 3.24128 14.9061 15
141 1 3.05144 5.04203 1.28369 22
142 1 -12.2365 9.2269 12.7809 8
143 1 -2.75186 11.6531 -4.67615 19
144 1 -0.00893347 -3.45689 -10.4748 19
145 1 5.36558 -13.3901 -8.33628 14
146 1 3.45313 13.4901 -10.843 14
147 1 8.28081 -4.22007 12.2185 12
148 1 2.3742 2.15494 -15.7961 16
149 1 -5.5798 10.8226 -4.98929 19
150 1 11.4758 2.32005 -3.66642 18
151 1 -12.603 9.7436 -9.23493 10
152 1 -8.33438 10.4734 -1.30649 23
153 1 8.81892 -0.171776 -9.64451 19
154 1 5.75916 -9.98722 3.84141 24
155 1 -5.49657 5.37485 -7.02841 19
156 1 -6.75957 8.0434 9.15694 21
157 1 13.5792 3.28642 -10.8112 12
158 1 7.14406 12.8459 -5.91721 21
159 1 -4.73358 16.6 4.48695 11
160 1 4.70311 9.02202 0.603636 20
161 1 -4.85171 8.58321 -2.48572 20
162 1 3.84761 15.8205 -8.41323 11
163 1 4.74176 9.03064 -12.2064 17
164 1 -13.1185 -12.5702 5.76522 11
165 1 -11.7808 9.49881 1.74865 21
166 1 -5.54006 -5.36908 -14.8408 16
167 1 3.54495 -9.6023 -15.2392 10
168 1 8.51813 15.0212 7.98982 10
169 1 -1.3847 16.2422 4.46922 15
170 1 -12.5038 0.460769 -4.6858 19
171 1 -12.2212 6.24409 2.7093 24
172 1 16.3505 -3.77219 -1.88607 11
173 1 -12.4026 1.35143 -12.0814 15
174 1 6.36618 4.55093 15.4157 17
175 1 4.39645 14.6697 2.3566 10
176 1 -5.78864 5.17145 9.37908 21
177 1 1.83779 -7.44787 -17.0633 9
178 1 -5.32394 11.5641 8.65397 17
179 1 -2.85324 7.47819 -8.08702 18
180 1 3.14354 -3.2497 11.7817 15
181 1 -13.3272 -3.5032 6.11072 18
182 1 -3.89838 -12.3691 -13.0602 13
183 1 -10.5507 8.98118 -11.5487 13
184 1 -2.38143 -12.7615 5.34792 17
185 1 1.13334 -16.3845 -9.57123 12
186 1 -5.36973 11.9395 -10.048 13
187 1 -15.302 -2.00448 8.71112 17
188 1 2.05958 10.165 -0.636403 22
189 1 12.1869 9.30482 -6.12698 14
190 1 -6.51247 3.89747 12.6333 17
191 1 -0.721062 -9.9257 4.40006 20
192 1 -9.02586 4.74386 -1.30992 21
193 1 -2.50666 15.58 1.87025 20
194 1 -0.843041 8.94348 9.3847 20
195 1 14.3411 4.95239 11.0433 10
196 1 -7.80004 14.3639 2.11709 13
197 1 11.5919 -8.14141 -9.22846 13
198 1 -7.79694 12.4225 9.18223 11
199 1 -6.31625 0.286095 -9.07938 21
200 1 7.84816 -8.88886 1.24901 16
201 1 -5.49734 -6.33041 4.4083 20
202 1 -16.3895 -2.88628 5.62191 15
203 1 -11.1553 -16.8678 2.38798 10
204 1 3.65304 7.54293 14.3999 15
205 1 -16.8498 -4.02922 -4.52856 9
206 1 -4.09425 -14.285 -2.3607 20
207 1 -5.30176 -2.69784 -3.68025 24
208 1 6.01095 -12.4726 0.480433 17
209 1 -3.91385 9.97881 3.46445 20
210 1 -7.24798 0.126565 1.64485 18
211 1 -0.217545 16.2399 9.20786 13
212 1 -10.0249 -0.071832 -3.85261 19
213 1 -7.37062 11.1092 -7.13327 18
214 1 -12.971 -8.46818 -8.22807 12
215 1 -6.63571 -1.61454 12.5835 15
216 1 0.825884 -8.92765 2.03753 22
217 1 0.38807 -16.0227 5.49006 16
218 1 -13.0986 9.08997 4.23384 17
219 1 16.5337 5.09358 -0.928959 13
220 1 7.84943 1.42341 -5.65733 15
221 1 -7.22721 -7.63397 -16.3293 8
222 1 5.36105 -1.39209 8.79317 18
223 1 3.25418 -18.5316 1.26834 11
224 1 -2.93872 11.4724 -12.6538 10
225 1 1.36139 -12.8663 -11.0442 21
226 1 10.6244 -3.38018 -14.1473 11
227 1 4.46713 7.0224 -14.0415 19
228 1 -6.41659 -3.57161 -6.54208 21
229 1 -3.84412 15.7131 -6.05503 12
230 1 -13.1115 -12.9133 9.53801 11
231 1 9.82607 13.4677 -2.15873 14
232 1 -3.57549 -0.0144805 15.3406 14
233 1 -9.52067 14.396 -1.48436 14
234 1 8.17093 0.646925 7.17323 18
235 1 -5.02721 -3.84022 -12.094 20
236 1 -4.01642 9.69342 -9.41617 21
237 1 3.03809 6.82012 -11.0964 19
238 1 -7.92561 -11.1612 5.92252 20
239 1 -7.28745 3.30111 7.37759 23
240 1 -9.05222 6.67023 8.48248 19
241 1 -1.14616 -10.7103 -11.6925 18
242 1 -6.28658 -15.2846 0.0813733 19
243 1 11.8738 -13.541 -1.30214 15
244 1 2.94344 -5.94892 -3.18893 20
245 1 12.2046 8.37297 11.9483 10
246 1 7.39083 7.45203 -7.63234 21
247 1 -1.64339 9.55227 -0.940136 18
248 1 -10.9234 -0.215397 1.36779 22
249 1 -13.1135 10.185 -2.86368 13
250 1 2.13606 8.96107 9.22567 18
251 1 5.41247 -16.6394 2.41083 19
252 1 11.5736 -6.2377 -0.637057 18
253 1 4.12446 8.44447 6.55352 23
254 1 -11.0971 3.68474 7.98329 19
255 1 -8.78557 -6.47544 -1.81081 19
256 1 6.95612 0.0310469 -12.5698 16
257 1 -0.639448 -1.64796 7.42692 20
258 1 6.01267 10.4298 -8.47844 20
259 1 1.16316 -8.70461 -3.62322 17
260 1 -1.81692 -2.50162 -13.3584 21
261 1 -2.60878 -18.1348 4.48981 12
262 1 4.27904 -0.98773 -6.90479 17
263 1 -12.6206 -5.81455 8.91442 19
264 1 0.159878 -17.7164 -0.00111121 13
265 1 -7.84742 -4.39653 -8.53502 19
266 1 6.85277 14.6116 -2.92027 18
267 1 0.805319 -0.726364 -18.0671 10
268 1 8.69761 6.11541 13.3363 19
269 1 16.2975 1.58076 1.25167 14
270 1 -4.1542 -5.68219 1.50732 22
271 1 6.13234 -5.12008 -9.68371 21
272 1 -2.61875 -7.94692 2.90803 21
273 1 -10.72 -3.62412 -13.0087 17
274 1 -6.97358 2.98251 -9.30459 20
275 1 -7.6376 -17.8346 6.67753 13
276 1 13.8098 0.429954 6.71948 13
277 1 7.95448 -9.33383 7.52938 14
278 1 -7.98769 -7.36335 -9.98871 23
279 1 2.69273 -9.00748 4.40831 18
280 1 -1.16603 7.5904 -11.3925 14
281 1 8.53332 10.9762 0.0504198 23
282 1 -8.15786 -8.87574 3.08017 18
283 1 3.51958 15.5091 5.21499 13
284 1 -6.59465 -3.91394 10.2434 19
285 1 -10.6529 -9.31593 -10.0504 15
286 1 -7.28247 -2.83087 -14.3375 18
287 1 -5.04868 10.1154 -12.5376 14
288 1 -6.92158 -6.68481 -6.78649 22
289 1 -5.98414 -8.7699 0.625921 21
290 1 8.14183 -5.13811 -12.5155 16
291 1 13.9466 -1.99806 -7.50566 16
292 1 10.1207 3.12413 3.37038 23
293 1 -3.67298 -5.70326 -3.84224 22
294 1 -10.2411 -5.97609 10.779 21
295 1 -4.10767 -9.7463 -1.74448 19
296 1 7.60139 8.68478 13.0244 17
297 1 -6.33332 -15.2166 3.84671 16
298 1 -3.56359 -11.1879 3.25987 21
299 1 -3.70733 14.6685 -0.983537 20
300 1 7.06768 -4.21004 -15.4601 13
301 1 -8.90866 -5.57704 -14.999 10
302 1 -10.1564 -8.69286 11.1478 19
303 1 3.39109 5.477 16.5619 14
304 1 4.69615 -5.93666 -0.682224 21
305 1 -6.98633 -10.7433 -12.6934 13
306 1 -11.424 5.18762 -7.08288 20
307 1 8.58542 3.6709 5.78028 22
308 1 -7.52784 4.58157 -11.6827 21
309 1 0.982283 7.00135 -9.0876 17
310 1 -6.08294 -4.67458 7.2177 20
311 1 3.39679 -9.53383 -6.88252 16
312 1 -5.32126 16.9282 0.908548 12
313 1 1.87005 6.79433 4.19954 21
314 1 12.3828 -4.56041 4.67025 14
315 1 -9.96151 1.65483 -0.932642 22
316 1 -4.41544 -8.94062 12.7723 12
317 1 -9.98982 7.93626 4.81507 20
318 1 2.07027 -1.14216 -10.732 21
319 1 17.2436 8.64625 -1.06729 11
320 1 4.00872 -13.3347 -0.607806 19
321 1 -1.33224 -6.9959 14.0712 11
322 1 -17.0519 -6.01151 6.1598 11
323 1 -5.3872 -16.7405 -3.09304 17
324 1 -11.149 4.13868 13.2705 14
325 1 -10.7582 7.15419 15.2076 5
326 1 -15.7993 -6.86238 12.0461 8
327 1 -13.9265 -10.2171 11.0676 8
328 1 16.2018 -6.33903 0.507686 9
329 1 -10.5845 -11.1504 7.39875 19
330 1 8.83352 -3.87884 -8.54978 23
331 1 9.63132 -15.848 -1.35723 14
332 1 5.11959 17.3882 -2.91575 9
333 1 -3.59078 -4.1208 4.55277 20
334 1 -10.6994 11.426 -3.12262 16
335 1 -0.402089 2.9089 8.2822 15
336 1 12.1131 8.81335 8.92215 19
337 1 -8.61292 -3.00915 1.42475 20
338 1 10.9583 -13.6902 -4.06258 12
339 1 -6.25462 13.0395 5.00717 11
340 1 -9.50445 4.36618 4.36839 19
341 1 4.37586 -9.56744 6.90732 18
342 1 10.0581 -5.46883 6.92504 15
343 1 -2.05476 5.20768 8.90299 22
344 1 -7.1478 -5.64573 -4.12962 21
345 1 4.20726 2.78029 12.944 20
346 1 -2.27696 10.0683 6.13323 19
347 1 9.40164 8.97146 15.2178 12
348 1 -7.6217 12.0719 -3.77599 18
349 1 4.06005 -4.65975 -16.6073 13
350 1 -3.18946 2.53928 -6.19012 21
351 1 6.39911 -11.74 -10.7507 10
352 1 -9.70278 -0.43673 15.4346 14
353 1 -17.7102 -1.38187 3.67421 12
354 1 -3.32982 -3.808 -6.33968 23
355 1 -7.30825 7.5396 -0.667782 22
356 1 12.362 -3.94341 7.47722 12
357 1 -11.541 -13.5722 1.34757 12
358 1 5.72058 -7.71201 8.39219 20
359 1 -10.417 -11.5001 10.5834 18
360 1 -11.9997 4.9284 -0.759296 24
361 1 -2.0587 -5.86956 10.9266 20
362 1 2.01535 -10.4037 -0.805714 18
363 1 -2.45774 -5.36068 -8.99175 22
364 1 10.0237 -3.03565 -10.9714 18
365 1 5.58594 11.0387 5.11721 21
366 1 -8.13996 3.4089 -3.67183 22
367 1 5.67433 -10.0771 -12.9684 12
368 1 9.54594 1.58807 -13.8567 12
369 1 -4.37069 -14.5231 -8.29625 16
370 1 -11.2536 -8.74758 -5.72491 14
371 1 -5.64342 -6.88259 -1.69051 19
372 1 12.1481 6.78741 15.3166 10
373 1 14.1841 0.981117 -3.93834 18
374 1 -10.0568 0.866672 -9.59413 19
375 1 -2.03971 12.7891 -2.15198 21
376 1 -16.0435 -2.8208 -7.08231 10
377 1 -12.311 6.82914 7.05125 17
378 1 -7.04842 8.28515 3.81298 21
379 1 -6.00539 4.69595 4.38973 19
380 1 8.965 8.45871 10.174 20
381 1 11.5294 -2.37122 -0.749247 17
382 1 11.1818 -2.59008 14.3421 7
383 1 11.5642 -0.384761 -5.74608 16
384 1 -8.51087 -16.1657 -2.98218 13
385 1 -5.56394 4.92292 -1.49843 24
386 1 1.26343 -6.83218 -5.9095 20
387 1 1.62927 7.87339 1.68292 22
388 1 -7.10313 1.97167 -6.61947 22
389 1 9.22468 -10.9797 2.80164 19
390 1 11.8288 5.08959 6.67891 18
391 1 -10.0049 -3.0506 -6.4094 21
392 1 -5.09612 -9.50625 4.43475 20
393 1 -7.19795 -6.47733 15.2441 12
394 1 -3.60317 12.1149 1.20671 22
395 1 -11.7164 -10.2747 -2.27115 11
396 1 6.82564 11.2713 13.3782 16
397 1 -9.88514 6.69149 -2.92205 20
398 1 0.951894 12.832 -8.73494 17
399 1 2.96186 12.1493 5.81015 18
400 1 -15.3409 -6.77446 -1.7672 10
401 1 -2.81379 -10.3212 -7.28053 21
402 1 -10.8846 -1.29623 6.87649 21
403 1 -13.7787 7.48981 -0.317072 17
404 1 2.61774 -11.1968 1.8315 20
405 1 -5.50964 -11.7095 -7.24864 19
406 1 14.7727 8.92478 6.8511 13
407 1 7.3312 7.83284 -14.3684 9
408 1 -11.057 0.795138 -15.3344 9
409 1 1.04175 15.8752 -9.45684 10
410 1 -8.34241 4.63739 -6.58463 18
411 1 -0.79587 -15.0451 2.32898 19
412 1 13.1742 5.09569 1.96584 21
413 1 1.6165 8.07873 -13.7605 15
414 1 -6.13696 1.34485 14.0033 19
415 1 -16.722 -2.19596 1.1122 13
416 1 -7.33135 -3.43396 4.55165 20
417 1 -6.79542 -11.8774 2.57705 19
418 1 0.911766 -5.73052 -8.88623 19
419 1 8.80522 -9.07849 -7.25827 15
420 1 -4.44205 -2.12934 7.32774 22
421 1 -8.71283 -0.951089 4.30553 20
422 1 -15.7419 -4.48773 9.26245 15
423 1 -16.5738 3.70894 3.57069 12
424 1 2.60833 -11.3821 9.11206 12
425 1 -9.51078 2.73449 -13.3797 20
426 1 5.03347 -11.9766 -3.26711 20
427 1 1.64159 -11.0001 -13.1412 15
428 1 -3.93491 -7.34988 9.13307 21
429 1 6.35527 -6.28684 -4.01469 18
430 1 -6.35774 5.27965 -17.1753 11
431 1 4.59639 -16.2128 -0.54519 20
432 1 0.613451 11.4674 -2.83657 22
433 1 -14.3839 5.87223 4.99427 14
434 1 -1.96601 -3.90891 16.1153 10
435 1 -10.0174 -6.95642 -7.42912 20
436 1 -7.28048 -6.39067 9.6359 18
437 1 5.17746 -6.23365 11.5213 13
438 1 10.9407 3.30036 -0.898939 18
439 1 -6.99392 1.98132 4.21026 22
440 1 2.98259 2.30077 -6.59055 21
441 1 8.1676 -8.01286 4.41003 17
442 1 14.6123 7.07598 -1.46275 18
443 1 1.4842 1.54592 6.96114 16
444 1 1.8107 13.2821 -0.269456 19
445 1 5.946 -3.99385 9.57727 19
446 1 -2.33126 -17.0891 -8.80644 12
447 1 -0.506897 4.91379 12.1027 19
448 1 -3.50359 13.0282 5.90528 17
449 1 -9.05353 -13.5689 -7.49759 13
450 1 8.77443 12.394 3.12203 17
451 1 4.58858 6.91359 9.07547 18
452 1 -9.09464 -2.5075 9.76902 23
453 1 -5.23234 -8.93392 -4.73094 22
454 1 -8.54669 3.98301 10.2101 18
455 1 -8.50669 -9.76283 -7.79128 23
456 1 -3.64853 6.30672 6.70407 18
457 1 -5.6515 -9.01334 -8.50466 17
458 1 -2.93854 -6.22306 -13.5665 20
459 1 -8.7568 -12.7063 0.0643542 18
460 1 -7.45584 -1.72584 7.01501 23
461 1 6.76233 2.31179 3.76082 18
462 1 -5.01829 -3.82235 14.4039 18
463 1 -9.24849 6.38161 -9.409 19
464 1 7.73067 3.69173 0.380327 23
465 1 -5.98877 -14.1968 -5.10626 19
466 1 -0.332337 4.18456 -7.87307 18
467 1 -0.496118 15.8545 -0.41539 13
468 1 0.212205 7.29705 -6.13645 22
469 1 -3.50119 9.87019 11.1274 22
470 1 -12.9357 -2.43898 -5.25569 20
471 1 2.43847 17.1017 -5.64851 10
472 1 6.71341 8.95397 -5.09767 19
473 1 -8.04974 -4.66476 -11.9884 21
474 1 7.02547 2.65158 13.5167 17
475 1 -2.46047 -13.6011 -6.13617 22
476 1 1.46366 1.77537 -11.3573 20
477 1 6.43803 -17.8488 5.00659 5
478 1 -12.5203 3.37518 5.42281 19
479 1 0.622931 7.16922 14.9281 19
480 1 10.0283 8.25909 -0.977129 20
481 1 5.54497 5.91752 0.409607 19
482 1 -7.49547 9.50192 -9.99071 19
483 1 5.58458 5.28044 -5.7833 19
484 1 2.43527 -6.16197 1.03986 17
485 1 -10.6409 -3.3617 -0.81401 23
486 1 -2.54762 17.5487 7.44182 9
487 1 -4.93762 8.4115 -15.2884 13
488 1 7.77961 7.70159 1.17309 22
489 1 7.41573 15.4542 -7.69827 11
490 1 6.15295 -6.51463 1.93827 20
491 1 14.9961 -1.09254 -1.72344 17
492 1 3.01375 4.7365 -12.9432 21
493 1 0.631995 -7.43769 -0.933849 18
494 1 -2.5749 -15.4471 5.57667 18
495 1 2.8503 -14.1255 7.69252 11
496 1 -8.34572 7.41453 -6.79004 22
497 1 -11.2473 -15.427 4.88791 14
498 1 -1.17566 -10.6118 -16.0892 7
499 1 5.64774 13.1209 8.03407 16
500 1 -3.10224 4.20315 -13.0319 19
501 1 9.32184 -0.0764868 13.5596 16
502 1 -17.5818 0.32648 6.83818 10
503 1 -2.10455 -15.9365 -0.0125846 21
504 1 -12.8353 -4.36166 0.886623 18
505 1 15.5624 -7.91462 -5.27217 8
506 1 6.06749 -2.94111 -1.22407 18
507 1 -6.69255 6.39348 -3.97881 22
508 1 0.672553 -11.1437 -8.38718 17
509 1 4.80094 4.55831 -8.58582 21
510 1 11.0242 -5.5025 -3.60415 20
511 1 -5.10481 -2.46075 16.9812 10
512 1 5.09064 12.2376 -0.390112 23
513 1 -4.36361 -2.07561 -15.2825 18
514 1 5.10441 -2.36482 -14.5986 19
515 1 -9.31019 -4.24814 7.68999 19
516 1 -4.83951 14.2543 2.81152 19
517 1 -6.93086 0.289855 -13.6614 19
518 1 -18.1628 -4.75485 3.2447 10
519 1 -4.71695 -9.49212 -13.6727 13
520 1 -7.47418 -12.3847 8.86003 18
521 1 0.619293 11.1421 -5.66347 19
522 1 14.5665 3.95078 7.75921 15
523 1 11.7404 6.11798 -3.99792 21
524 1 -11.059 -13.7193 -2.21645 11
525 1 -0.828157 -10.1839 -2.00781 22
526 1 -0.52444 -2.03695 -15.9645 17
527 1 -13.9294 4.3922 8.98527 16
528 1 3.73089 -3.18345 -9.25057 20
529 1 3.5524 7.29722 -1.54322 22
530 1 7.91039 -4.28764 -2.58657 20
531 1 1.97554 13.6232 -5.889 17
532 1 7.3381 -10.723 -1.79572 18
533 1 12.7461 8.60029 -2.92233 19
534 1 4.25052 10.3196 15.4848 11
535 1 -9.58831 1.68486 6.27597 21
536 1 3.14922 14.9372 10.7992 11
537 1 11.5366 0.810868 15.0184 13
538 1 0.0123533 2.75415 -13.5127 18
539 1 -4.09985 -7.17529 -7.2813 22
540 1 5.538 -0.347201 12.1894 13
541 1 6.41018 16.265 9.35022 9
542 1 9.04318 6.30354 -9.54299 19
543 1 -9.6246 9.53825 -8.19656 17
544 1 -0.95954 13.8391 -5.62776 19
545 1 10.8636 -2.83715 11.263 16
546 1 11.9595 -0.570755 -12.5263 12
547 1 13.1718 -11.0813 -3.25575 12
548 1 9.77435 11.6242 8.45749 16
549 1 -15.3684 -9.48833 1.14418 9
550 1 -7.90079 8.31082 -13.2254 14
551 1 -2.0072 2.16976 10.7969 19
552 1 -13.9781 -3.68317 12.7081 15
553 1 -4.51016 12.9039 -7.49858 16
554 1 1.85638 -12.1815 -3.52646 22
555 1 2.45919 1.25415 -8.69573 20
556 1 -6.68229 16.1837 -1.93607 11
557 1 -8.68087 -8.36949 -13.0835 13
558 1 3.02626 -18.2558 4.70371 10
559 1 -15.0136 -5.87947 -7.79772 12
560 1 2.84802 11.3486 -13.5692 9
561 1 -6.98049 0.325377 -3.97752 23
562 1 -3.15806 11.1067 13.7634 15
563 1 -12.4135 -9.14309 8.41946 19
564 1 6.46958 4.91224 -2.76029 23
565 1 2.95876 -12.3361 -6.18085 20
566 1 -0.446192 -3.10329 10.0192 20
567 1 11.9414 -3.94657 -5.96597 19
568 1 -14.6738 1.88995 -2.97167 16
569 1 3.59827 2.05198 15.7377 12
570 1 7.37785 17.7899 -5.17443 8
571 1 11.7551 -9.50753 0.509719 19
572 1 4.1773 12.3573 10.7066 17
573 1 2.82024 4.98431 -16.4301 10
574 1 -6.32466 -15.5915 9.36698 10
575 1 -1.16238 -0.499009 -11.2506 21
576 1 3.6912 -0.602199 -16.3289 15
577 1 4.77373 10.4451 7.88367 18
578 1 11.4123 4.05258 -8.53774 22
579 1 0.19742 -5.08381 -14.7662 18
580 1 -3.67597 -11.8998 -4.16159 20
581 1 -12.9041 -4.18838 -11.4572 12
582 1 13.2062 -0.181934 0.450821 16
583 1 17.9939 3.81546 -2.96581 10
584 1 10.2751 -11.0907 -2.61658 17
585 1 14.7977 6.04501 4.43135 20
586 1 5.04419 -8.70249 -1.58251 18
587 1 6.46524 4.94875 -15.9194 9
588 1 6.81655 10.4381 2.47491 19
589 1 -7.61141 3.55346 1.4248 21
590 1 9.97525 11.2647 12.2625 15
591 1 11.0268 6.81148 -7.2136 17
592 1 11.5603 -4.0677 1.97173 15
593 1 12.9165 3.78846 -5.96818 20
594 1 10.2178 3.77485 9.48859 18
595 1 15.0256 6.49436 8.36292 14
596 1 -2.60473 -4.7604 7.77579 22
597 1 19.0681 8.05235 -4.14385 7
598 1 2.53765 -0.0231066 13.1116 14
599 1 16.345 -1.75313 -4.57611 14
600 1 12.1705 6.15836 9.73442 17
601 1 -8.32214 -0.907786 -6.95739 21
602 1 12.3299 5.99169 -0.943033 22
603 1 8.9197 -4.64988 4.42094 21
604 1 -2.26451 -7.07594 -1.05704 20
605 1 -13.2907 2.86974 11.5354 15
606 1 7.96902 14.1416 11.4398 11
607 1 10.8769 1.85808 6.40546 21
608 1 1.38721 12.3258 8.63866 19
609 1 -11.0873 11.1661 9.91693 9
610 1 5.50392 2.45784 6.39469 20
611 1 -2.51456 -19.2626 1.88258 13
612 1 -7.36648 8.99682 -3.92207 23
613 1 14.3415 5.53112 -8.65464 14
614 1 11.1681 -5.69314 -11.2406 15
615 1 1.11254 15.1743 -3.16693 17
616 1 -3.36221 -16.4743 -5.49861 12
617 1 8.3426 -7.07553 -9.66386 19
618 1 -15.5003 0.97013 5.07051 21
619 1 -6.60944 6.77446 -9.29465 19
620 1 -5.11459 -20.3162 2.22496 10
621 1 -3.46125 -2.29942 -9.16793 23
622 1 -13.3757 4.53973 -4.84414 17
623 1 12.7924 -12.3281 2.02451 13
624 1 9.97946 9.14306 2.35693 24
625 1 1.37118 -9.71581 12.2993 7
626 1 -13.0968 -3.08052 -8.1994 17
627 1 3.89797 -0.0471288 -12.8617 20
628 1 4.72782 -4.56433 7.17052 22
629 1 1.18113 2.27771 11.206 20
630 1 7.85021 8.46545 -11.3704 17
631 1 13.6581 2.93473 13.1772 11
632 1 9.4456 3.81795 -4.47111 18
633 1 12.2393 10.7832 1.31124 15
634 1 0.0682954 -14.0713 -7.94731 22
635 1 -11.2221 -3.71975 12.5287 18
636 1 17.4619 1.544 4.58024 8
637 1 -0.552518 12.0423 14.5949 11
638 1 9.44006 12.8157 -7.96947 12
639 1 -9.62247 6.40897 1.07685 21
640 1 12.9801 8.32336 4.13593 21
641 1 -9.33016 -16.4045 0.038424 13
642 1 9.80106 -7.20423 1.6903 21
643 1 6.9175 14.2511 5.20247 14
644 1 -3.53904 6.86725 10.6418 17
645 1 -10.9992 -9.10644 5.2823 16
646 1 -12.7424 -1.26818 -11.1235 15
647 1 5.95675 5.49687 12.5356 23
648 1 -4.62205 -10.8614 9.83278 15
649 1 7.6228 5.99969 10.1869 16
650 1 -6.69577 11.666 1.88336 21
651 1 14.3657 2.63221 -1.21758 17
652 1 4.47001 4.42349 4.01573 21
653 1 -0.0362696 5.76777 -14.1694 16
654 1 -9.6747 0.255545 9.13779 18
655 1 8.1224 -1.32416 -6.79092 20
656 1 -0.105866 -3.93664 -6.0813 22
657 1 8.27142 -12.8802 -6.25196 11
658 1 9.46828 5.98321 7.57188 20
659 1 3.15462 5.1885 7.17648 18
660 1 -8.85226 2.20423 15.4262 12
661 1 7.62244 9.04787 7.43651 17
662 1 -0.191728 -3.94192 13.2302 16
663 1 -1.53362 8.24176 12.6055 16
664 1 0.622804 0.191862 -14.0336 22
665 1 -8.5274 1.51764 12.053 16
666 1 9.97383 3.11317 12.2461 21
667 1 -10.675 -17.0455 7.6582 10
668 1 15.4374 6.98511 1.3437 22
669 1 7.30129 -14.88 0.0227757 21
670 1 -2.44827 5.15723 -5.86134 19
671 1 8.74856 6.76261 -4.78782 22
672 1 9.69982 13.7142 5.90801 12
673 1 5.9495 -1.70385 -17.3509 10
674 1 -2.71655 0.581107 6.86777 21
675 1 3.77335 13.6411 -2.71935 18
676 1 12.6364 7.70407 1.46351 19
677 1 -7.445 -9.93802 -1.943 17
678 1 -0.807332 1.8433 -16.6218 13
679 1 -12.5833 12.4562 2.788 11
680 1 6.86228 -6.90494 -7.21754 19
681 1 7.97684 5.58079 3.26718 20
682 1 10.4197 4.37775 -11.6591 16
683 1 15.7137 8.96056 -3.74002 13
684 1 -1.58314 3.92164 5.43359 21
685 1 -11.2178 3.34092 1.94998 20
686 1 9.16363 5.39757 -1.92892 21
687 1 12.0823 3.63048 16.4126 11
688 1 11.8807 1.00223 11.5792 17
689 1 -3.27066 -13.8121 8.34526 10
690 1 -5.27516 6.84656 -12.4501 22
691 1 -2.19976 14.3391 12.4268 9
692 1 5.58533 -6.77471 -12.4878 16
693 1 4.05479 1.71042 9.50562 20
694 1 9.30221 14.9296 -5.42493 12
695 1 8.83834 10.9752 5.29449 21
696 1 14.6925 -4.56603 -6.39095 14
697 1 6.17937 7.39899 15.6525 15
698 1 -15.1824 -7.14269 8.53298 13
699 1 8.80723 -15.9942 2.306 13
700 1 -0.611844 -2.49951 -8.21055 19
701 1 -9.88555 12.0619 1.14232 18
702 1 -4.20598 7.52951 4.33839 17
703 1 5.68215 -4.15931 -6.59215 19
704 1 3.65351 9.7449 3.50944 18
705 1 -12.7769 -1.87535 3.80815 18
706 1 -3.79651 0.562521 12.2736 18
707 1 -7.54595 6.12163 -14.9077 15
708 1 -9.91609 6.31707 -12.4055 15
709 1 -0.628328 -13.4889 -2.64064 21
710 1 10.3773 7.77974 -12.3236 10
711 1 4.7137 -6.79747 5.35788 18
712 1 -1.95455 9.14889 1.85779 20
713 1 -14.1346 -0.448428 12.0828 15
714 1 5.43263 -0.0413072 -10.1318 19
715 1 -0.192428 -13.3976 7.77496 13
716 1 -1.78173 16.2523 -3.93666 12
717 1 -2.2989 -2.48112 13.1892 18
718 1 -5.29652 -5.59435 -9.60166 22
719 1 -3.50009 -7.70255 -16.5216 9
720 1 -9.02295 -12.0847 -10.5303 11
721 1 -1.14213 17.7109 -7.43261 6
722 1 3.66965 -6.05666 -7.65523 17
723 1 -3.75038 8.66533 8.39064 17
724 1 3.65751 -14.5825 -3.63456 20
725 1 6.5346 -18.1872 0.390412 11
726 1 0.89698 -4.68809 7.37353 20
727 1 13.3339 1.22941 -7.47427 18
728 1 -1.53789 -16.454 -3.15835 16
729 1 -12.2742 -3.0107 9.86841 20
730 1 -1.63801 2.51017 -10.8145 19
731 1 -7.60104 -19.4466 -2.08136 5
732 1 -7.64204 -11.554 -5.14607 15
733 1 -10.617 -0.611243 12.1383 16
734 1 -8.66572 -18.9304 2.16277 10
735 1 16.0312 2.9076 -8.66608 10
736 1 -5.86961 9.72294 6.38606 19
737 1 -6.1657 0.897656 7.34531 22
738 1 -15.6975 7.30791 2.4063 13
739 1 10.1813 -2.031 5.90841 18
740 1 -13.985 0.336395 -9.31022 13
741 1 -2.34174 8.25216 -4.77179 18
742 1 9.74225 1.49117 -7.74241 20
743 1 5.02623 13.7027 13.8533 11
744 1 14.3082 4.85077 -3.25626 20
745 1 -15.6749 -0.286825 -4.9984 12
746 1 -13.5835 -7.11023 -10.8483 9
747 1 -4.36142 3.46211 15.391 10
748 1 5.02928 8.14397 -9.25669 18
749 1 11.637 11.054 4.11469 16
750 1 -3.37481 0.032547 9.6445 21
751 1 -0.627195 -17.1634 -6.93199 11
752 1 -4.75602 -16.4654 6.99391 15
753 1 -0.703889 -7.7006 7.92507 19
754 1 12.5822 11.2696 6.7118 14
755 1 -0.674534 -5.8894 -11.5364 17
756 1 -8.81634 9.33094 1.59843 22
757 1 5.08306 6.92831 3.01583 21
758 1 -10.8999 -3.90315 3.52044 17
759 1 8.49685 4.84516 -13.4817 13
760 1 4.21012 -14.8146 -10.8688 13
761 1 0.577046 -18.7946 2.5502 14
762 1 -2.40142 -12.7043 -0.162262 21
763 1 8.16305 3.35842 -10.081 22
764 1 7.80881 14.1204 0.184711 11
765 1 -2.69273 0.570017 -13.6258 22
766 1 -0.689281 -0.840038 14.5363 13
767 1 -4.51541 2.56411 -15.9442 16
768 1 -12.7912 -1.87439 -14.2445 10
769 1 -11.8509 -7.44781 -2.78137 14
770 1 4.60534 15.3015 -4.85185 17
771 1 8.37482 -1.2322 -0.663016 18
772 1 -2.6731 -4.52519 -16.5268 13
773 1 -7.24657 -5.78818 1.07142 21
774 1 14.0535 6.87607 -5.93977 19
775 1 8.35988 -7.27987 -1.24514 19
776 1 -9.02227 9.00438 10.6733 18
777 1 4.02603 -12.3053 4.79626 16
778 1 14.6983 -8.91665 1.24707 12
779 1 12.5607 -1.01361 8.97254 13
780 1 1.08795 9.7899 5.39972 15
781 1 -12.3696 1.38359 14.3415 9
782 1 -12.5964 1.01428 9.19481 18
783 1 -3.77337 -13.8243 2.54321 21
784 1 9.56951 -1.9015 2.42367 18
785 1 4.59597 9.1175 11.6762 19
786 1 -14.387 -3.70985 -1.52798 17
787 1 9.4689 -12.0624 0.41999 25
788 1 -12.9521 10.7126 -5.74926 12
789 1 1.02942 4.02975 5.22487 21
790 1 1.76042 -15.5955 1.94856 20
791 1 6.98268 1.31529 10.3235 16
792 1 1.06094 15.7824 2.13927 13
793 1 2.24367 -7.66332 7.21313 18
794 1 -8.44496 -2.57066 -3.59704 22
795 1 3.59843 4.58791 10.8844 19
796 1 -14.1608 -5.63344 -4.17332 16
797 1 -2.02413 9.53561 15.9107 11
798 1 6.54464 11.5783 -3.21858 20
799 1 -9.72036 -7.33968 7.49583 19
800 1 -5.42734 -18.0737 4.74704 15
801 1 7.68881 -6.14879 6.48559 18
802 1 8.12321 -6.6211 10.1542 16
803 1 6.02568 5.81016 6.27451 21
804 1 -3.47506 5.57921 -2.92438 21
805 1 -0.823739 -8.54202 -8.50117 18
806 1 -6.21507 3.57839 -14.0407 21
807 1 -4.13676 -6.47451 15.4267 11
808 1 0.503642 14.2342 4.511 16
809 1 12.628 2.311 1.09171 18
810 1 0.966509 8.40708 -3.50161 21
811 1 -6.14901 7.16453 12.1799 15
812 1 7.23061 11.1988 10.5289 18
813 1 6.64149 -2.68508 -11.5555 19
814 1 -7.10541 -13.4774 -2.57031 18
815 1 -4.98596 -0.699767 -6.36428 24
816 1 10.6874 6.22345 4.1839 22
817 1 -0.441048 1.10864 -8.54823 21
818 1 -2.0733 5.8735 16.8103 10
819 1 6.68282 -15.9478 -2.78353 16
820 1 6.42747 1.19888 -15.1675 15
821 1 -1.88697 -8.64136 -4.70466 22
822 1 11.0939 1.76291 -11.0607 19
823 1 12.8402 -7.07399 2.51857 12
824 1 0.19246 -6.90932 11.453 16
825 1 -5.70476 -7.39471 -12.4068 20
826 1 9.89491 12.1099 -4.57794 17
827 1 0.445375 -6.86073 4.77883 19
828 1 -13.707 1.91785 2.79443 17
829 1 16.1923 4.84406 -5.80304 15
830 1 19.1994 3.51367 0.395444 7
831 1 2.94879 -6.95834 -10.8783 17
832 1 -11.9533 9.92982 6.58885 14
833 1 14.1634 12.9601 2.49301 8
834 1 8.20771 4.56587 -7.25007 22
835 1 4.88825 2.92502 -14.1319 18
836 1 9.31887 -7.90542 -3.46696 19
837 1 -15.3635 -0.413858 -1.26284 16
838 1 9.83779 5.62231 1.0288 22
839 1 -13.617 -7.36276 1.18645 17
840 1 -14.0654 8.12048 -6.78034 16
841 1 6.93584 4.09526 8.6078 19
842 1 -11.5587 -0.7182 -7.548 20
843 1 -16.0329 3.46608 6.53917 13
844 1 -4.86787 2.35754 -11.6418 18
845 1 11.9107 -8.85831 -5.76599 15
846 1 -10.9843 -11.4305 -7.79104 12
847 1 15.5875 -8.64206 -1.91561 12
848 1 -16.85 0.922871 1.83903 13
849 1 -12.476 -5.34229 -6.47547 19
850 1 13.1627 2.97855 4.74058 20
851 1 -11.2592 -11.6085 4.16713 17
852 1 9.34564 6.19874 16.3744 12
853 1 14.8323 0.119247 3.65572 13
854 1 8.41281 0.305421 4.40265 20
855 1 -12.8461 2.04234 -0.518211 22
856 1 -0.0348118 10.5957 11.542 20
857 1 2.58932 10.0376 -7.59811 19
858 1 1.38913 -4.23343 -17.6352 10
859 1 -8.93548 9.47568 6.88579 18
860 1 -11.1284 -14.236 8.09712 15
861 1 9.35795 9.7436 -3.42985 20
862 1 1.46407 7.44052 11.7103 21
863 1 14.1348 -5.66528 -3.58835 17
864 1 1.92337 -5.42708 10.8663 16
865 1 -2.36399 13.7155 -10.0979 10
866 1 4.3408 11.3662 -5.71173 20
867 1 -3.68258 -3.39123 10.3669 17
868 1 16.3281 3.84792 3.40195 17
869 1 -4.63899 -0.606621 -11.5407 20
870 1 14.856 10.4392 -0.623769 14
871 1 -16.8888 1.88961 -1.54713 8