ITEM: TIMESTEP
25000
ITEM: NUMBER OF ATOMS
2000
ITEM: BOX BOUNDS pp pp pp
-30.0 30.0
-30.0 30.0
-30.0 30.0
ITEM: ATOMS id type x y z Coordination
1 1 -11.7707 5.44095 -11.3685 20
2 1 -6.47382 -6.29553 -9.49067 20
3 1 0.619135 14.77 10.8513 12
4 1 11.4887 -9.65399 5.51913 9
5 1 -9.91216 11.4661 0.0872193 19
6 1 8.98752 -5.46374 -14.1308 19
7 1 -10.4431 6.20133 -4.23942 19
8 1 -0.0034245 0.932158 9.30266 22
9 1 -9.57428 5.26578 -12.5121 20
10 1 -11.7212 -4.803 6.94295 12
11 1 14.2939 4.42332 -10.44 12
12 1 -3.41525 2.70802 -7.11497 22
13 1 -2.55003 -9.72029 -1.08185 21
14 1 -12.0101 -8.67671 3.33042 15
15 1 1.90681 2.97664 17.5504 11
16 1 8.22359 -1.30539 8.32903 18
17 1 1.86218 6.71687 8.67778 19
18 1 11.389 -4.97569 6.33662 17
19 1 -3.5308 14.3284 -10.4622 16
20 1 -0.652888 3.50456 13.1031 18
21 1 -8.74548 2.04501 -14.3811 20
22 1 -13.3461 -0.0723571 11.4502 13
23 1 16.6584 7.6013 8.94906 8
24 1 0.928302 14.619 -13.2677 15
25 1 0.43555 9.01207 -15.8431 17
26 1 15.5855 4.92237 7.76688 17
27 1 -6.10034 3.46049 -2.35974 23
28 1 -11.7462 6.09385 -7.52151 16
29 1 1.26447 0.711895 -9.39686 19
30 1 -10.4451 9.83801 6.34706 17
31 1 8.42774 -10.0353 3.53609 15
32 1 1.14987 -1.85898 7.27619 22
33 1 4.37394 -12.1176 -10.484 15
34 1 10.528 -11.1493 -1.27152 13
35 1 -5.91192 -10.3964 -5.60004 18
36 1 -14.1213 -3.79123 11.6239 11
37 1 2.85892 -1.54028 -7.4611 20
38 1 0.319667 -2.326 -14.333 18
39 1 9.65931 -6.50699 -16.6288 9
40 1 -5.01148 7.63992 -16.0199 17
41 1 -1.51262 6.05076 9.22054 21
42 1 0.963839 -8.63268 5.72062 24
43 1 6.70477 -2.16489 14.0791 13
44 1 -10.7136 -1.26675 3.55707 18
45 1 -17.5861 0.871515 7.09365 13
46 1 -7.73655 0.246761 -2.77024 21
47 1 0.519695 16.8212 -7.4219 16
48 1 2.40281 -10.0954 -14.0466 13
49 1 2.97883 3.25092 -10.3892 19
50 1 7.01 -2.05157 -11.1456 17
51 1 -0.385505 -1.73036 10.3583 20
52 1 -13.8098 8.60652 0.0814586 11
53 1 3.84051 12.8664 -14.6568 11
54 1 0.530698 12.1096 8.94525 19
55 1 -9.63938 12.976 -11.0662 10
56 1 0.160794 12.993 -3.24755 17
57 1 2.82712 -8.89574 2.96258 19
58 1 5.89313 -1.64168 -4.11661 21
59 1 5.46639 -4.49913 -16.8569 16
60 1 -7.9344 9.39352 7.48254 16
61 1 -13.8154 -2.5798 -9.18299 12
62 1 11.377 -1.9842 5.34254 18
63 1 -6.53894 8.87617 -5.05018 20
64 1 -6.41751 -7.9106 2.61105 21
65 1 -6.53865 14.6668 6.22237 16
66 1 -11.9096 8.55837 -5.01463 19
67 1 -8.7083 11.6373 11.0936 14
68 1 0.710136 6.42519 -6.76118 20
69 1 0.284648 11.4096 3.81629 21
70 1 -5.51181 -13.43 7.6119 10
71 1 2.27894 8.17915 3.68801 21
72 1 7.77799 -12.3218 -5.56297 14
73 1 2.95906 12.5012 11.2429 19
74 1 -15.1314 2.21333 -8.4529 11
75 1 -9.78384 8.18092 -7.12236 20
76 1 4.28847 5.55914 11.3897 20
77 1 14.2463 -1.60449 -11.6567 11
78 1 11.0679 -9.2237 2.44282 14
79 1 -16.2188 -1.6022 4.33766 13
80 1 -8.07986 -2.29653 3.242 18
81 1 5.48529 18.0891 4.71108 10
82 1 4.03321 -0.353852 13.1708 20
83 1 -6.76605 -10.684 1.51163 17
84 1 -7.91027 -2.89272 0.160948 19
85 1 9.21783 2.90421 9.82832 21
86 1 6.24415 -1.48413 -1.3286 22
87 1 0.141569 14.3402 7.4222 18
88 1 4.24749 3.37184 5.45158 19
89 1 -5.26123 -1.98883 1.60032 21
90 1 -1.61882 -4.36745 -8.92547 19
91 1 -7.14718 12.0329 4.84934 18
92 1 -8.64394 14.4952 -7.1408 12
93 1 -3.98465 8.95787 -12.9766 20
94 1 7.51736 0.283894 -8.92868 20
95 1 6.87651 1.08997 -6.03131 23
96 1 11.3043 15.5595 -10.5235 9
97 1 6.17227 -4.91764 2.79893 19
98 1 8.89096 -8.395 7.53392 12
99 1 -5.50039 15.0932 -4.85027 15
100 1 -8.10222 17.7293 0.216984 12
101 1 -9.73883 -0.203709 11.8924 13
102 1 -5.82594 8.63163 4.58838 22
103 1 -5.8845 -4.73683 8.40519 21
104 1 13.5076 -7.15608 -8.71522 12
105 1 -9.54061 3.17113 -0.868974 20
106 1 -12.2716 -15.3611 -0.567961 6
107 1 8.17788 -6.14651 -7.27264 20
108 1 6.19403 1.24305 -11.5723 23
109 1 -5.35393 1.71179 -18.03 14
110 1 2.00821 11.2564 -1.24643 21
111 1 -6.68847 8.59236 -8.28919 19
112 1 2.94682 9.79192 16.7567 10
113 1 2.54272 13.731 -7.31679 18
114 1 -13.482 11.5211 -0.822776 16
115 1 0.438632 9.17837 1.59312 24
116 1 -2.67427 -9.47392 8.84857 19
117 1 10.2153 -1.09257 10.5838 16
118 1 2.75864 -3.7419 -9.55039 21
119 1 6.29087 -7.81999 -9.74166 23
120 1 3.33783 2.47083 10.5496 21
121 1 6.77116 0.70434 15.0041 18
122 1 -9.21459 -5.53693 -0.911867 21
123 1 8.94463 -6.87189 3.40701 17
124 1 -9.98689 -10.3898 0.761755 21
125 1 13.5696 -5.02585 -0.503499 18
126 1 -5.56492 9.1788 1.25566 21
127 1 6.13964 7.63035 -16.0424 16
128 1 7.37261 17.8081 -3.70481 12
129 1 -8.3827 -9.759 10.3435 14
130 1 -11.0495 -11.1219 8.40852 12
131 1 5.61752 -4.06166 -13.9165 20
132 1 3.74278 6.45933 -8.16897 20
133 1 12.2034 -7.39535 -3.2727 16
134 1 1.34205 -11.9824 6.49882 14
135 1 -12.6844 -9.03614 -0.16491 11
136 1 15.6995 4.39993 4.69908 16
137 1 15.1852 -1.32361 -8.16671 14
138 1 -13.6286 -2.63419 2.53439 17
139 1 12.3599 8.66771 6.34358 16
140 1 15.7114 10.0396 0.197662 16
141 1 -7.51017 6.12682 13.4654 18
142 1 10.5701 11.339 -5.16746 17
143 1 -3.74117 13.4749 7.38054 18
144 1 -4.79224 14.612 -7.64304 15
145 1 -0.691811 -1.29603 -8.44547 17
146 1 9.23596 -8.71729 -13.3568 13
147 1 4.25108 14.2324 -11.9479 15
148 1 5.85204 1.20235 9.51709 22
149 1 2.87451 1.86624 -19.2344 10
150 1 -2.57187 11.6195 -7.92928 20
151 1 12.8286 0.708854 -3.52354 18
152 1 -13.5015 9.18986 -8.22494 12
153 1 -10.8583 16.7253 -0.762728 10
154 1 8.55513 3.34722 -9.9398 20
155 1 13.6883 -6.82401 5.57002 10
156 1 -5.75776 2.20364 -9.16331 17
157 1 -11.3987 9.5586 10.51 13
158 1 14.7582 7.49595 -10.2283 12
159 1 5.04712 11.7782 -2.92523 20
160 1 0.344734 16.342 1.69219 20
161 1 11.8764 11.7585 -0.208195 20
162 1 -4.22773 11.246 -3.7353 21
163 1 1.66442 14.0867 -10.1848 17
164 1 2.11695 8.21405 -18.4813 10
165 1 -11.615 -11.9395 2.42743 13
166 1 -11.1723 11.8458 -2.97325 20
167 1 -4.53331 0.572751 -11.2102 20
168 1 1.02331 -7.77954 -15.7972 16
169 1 12.9977 14.5444 6.60845 14
170 1 0.112845 16.4911 5.05132 16
171 1 -11.925 -1.27457 -6.17452 15
172 1 -7.81903 14.8712 3.16814 20
173 1 15.9232 1.57541 -2.4895 15
174 1 -10.3691 5.14218 -15.0413 13
175 1 8.86611 2.6965 15.4281 10
176 1 4.24598 16.0162 2.72927 21
177 1 -1.00975 9.1869 8.48705 19
178 1 3.202 -6.25581 -17.6922 14
179 1 -4.60453 14.1406 3.70314 21
180 1 -0.97705 12.6255 -10.5697 21
181 1 1.6316 -2.502 13.4134 15
182 1 -10.6845 -4.42242 3.75165 19
183 1 -3.56665 -9.4304 -13.763 11
184 1 -12.382 11.4977 -10.9025 9
185 1 -2.52585 -11.2984 2.43001 17
186 1 5.22556 -12.1154 -6.73777 17
187 1 -4.79343 13.8126 -15.1971 9
188 1 -17.8358 4.18059 6.12662 13
189 1 -0.26963 9.28786 -1.71627 19
190 1 8.9545 8.32729 -6.83747 21
191 1 -10.177 6.54596 12.0946 16
192 1 2.85926 -7.95881 9.77505 15
193 1 -7.89996 0.629537 1.62125 19
194 1 0.756252 15.5178 -4.37014 20
195 1 -0.426702 5.79409 6.16638 21
196 1 15.419 6.59329 11.6196 11
197 1 -9.63024 17.4346 2.30088 10
198 1 13.5439 -4.89042 -10.6778 10
199 1 -8.48421 13.8346 9.03999 10
200 1 -5.27849 7.09605 -10.7125 21
201 1 11.7709 -2.68731 8.54548 22
202 1 -8.59946 -3.73085 8.52835 21
203 1 -16.8583 1.26622 4.62016 13
204 1 -8.0036 -8.43735 -0.76335 20
205 1 2.46513 7.84339 13.8148 19
206 1 -13.2691 0.402375 -3.04516 16
207 1 -3.72864 -15.3895 -1.3149 12
208 1 -6.30769 -2.4727 -5.13563 20
209 1 8.13532 -3.98158 -2.63241 21
210 1 -5.55605 15.3462 0.733709 20
211 1 -5.7409 0.307394 3.29051 25
212 1 5.21921 10.1513 11.3863 20
213 1 -7.17149 0.863223 -6.4578 22
214 1 -4.64884 11.2072 -9.85557 19
215 1 -15.1657 -3.48979 -6.77573 8
216 1 -8.21264 -1.51103 6.38269 21
217 1 0.656694 -6.09068 2.99419 24
218 1 5.11911 -11.6273 5.06841 9
219 1 -13.6289 12.0278 2.67543 13
220 1 15.2014 1.74827 3.66368 19
221 1 9.87352 5.59086 -8.1292 18
222 1 -5.19023 -3.09769 -13.3233 17
223 1 4.88014 1.72096 12.931 20
224 1 8.83855 -12.955 1.03973 11
225 1 -3.56304 12.1307 -12.9408 20
226 1 4.07807 -8.86344 -16.2183 10
227 1 7.71301 3.56237 -13.2524 18
228 1 3.05108 6.84394 -15.3639 21
229 1 -4.04522 -3.94104 -6.71565 21
230 1 -0.909712 14.1267 -8.36384 22
231 1 -11.5272 -8.5952 9.92324 12
232 1 10.145 16.8365 -2.47651 10
233 1 -7.69601 4.92176 8.72432 18
234 1 -2.17269 15.9377 -5.5923 18
235 1 4.20265 4.49387 8.17038 22
236 1 -0.329271 -3.02174 -11.3103 19
237 1 -0.763721 10.5386 -13.2582 20
238 1 4.03677 7.29869 -11.2524 20
239 1 -6.7268 -12.0386 4.78648 18
240 1 -9.4448 3.81189 6.42097 20
241 1 -6.02608 7.5592 8.07921 21
242 1 3.74753 -9.55993 -10.9914 22
243 1 -3.09422 -14.8723 1.78168 20
244 1 10.7053 -11.8665 -4.47791 12
245 1 1.53525 -4.46126 -3.65517 18
246 1 14.1095 9.81976 11.1306 10
247 1 7.50527 12.5035 -4.81891 17
248 1 -2.03025 11.5018 -1.41059 23
249 1 -11.4218 -3.50631 0.405641 16
250 1 -15.0968 12.7436 -3.33002 8
251 1 0.915349 5.87698 11.6005 19
252 1 5.90397 -14.1048 0.108257 12
253 1 15.3214 -0.0247599 0.381151 17
254 1 2.39783 9.79364 8.67797 20
255 1 -9.5951 8.77814 0.0369117 18
256 1 -9.54143 -5.11703 -3.59594 18
257 1 6.09474 6.89909 -13.5394 22
258 1 2.84094 -0.561266 10.1678 23
259 1 10.4578 12.414 -12.4419 11
260 1 1.36487 -6.97557 -5.43073 22
261 1 -2.7349 2.46882 -13.0699 20
262 1 1.17494 -16.9839 3.57475 10
263 1 12.2999 0.583591 -6.52142 20
264 1 -11.212 1.68465 5.53646 21
265 1 5.46431 -13.3971 -3.28465 14
266 1 -8.71486 -3.28397 -8.21503 21
267 1 8.55747 14.7709 -2.53091 20
268 1 2.24105 -0.732995 -18.4566 12
269 1 5.79639 7.76828 13.5058 23
270 1 18.1863 0.644111 3.46649 8
271 1 -3.43322 -8.79523 1.6274 21
272 1 10.0264 -3.27075 -12.1684 19
273 1 0.573525 -5.08201 5.42778 23
274 1 -8.38315 -2.4953 -11.4865 21
275 1 -7.98375 1.3839 -9.8227 20
276 1 -8.06615 -10.5477 6.95731 18
277 1 6.53178 5.22151 5.89276 21
278 1 7.5829 -4.91787 12.0064 12
279 1 -7.63549 -5.69306 -12.9713 11
280 1 2.5449 -3.42943 9.54754 19
281 1 -1.5619 7.5678 -14.1107 22
282 1 7.94536 9.42099 -3.76491 21
283 1 -10.0451 -7.33388 1.46153 21
284 1 2.77182 14.0575 0.824826 21
285 1 -3.16093 -0.835254 10.9101 18
286 1 -10.1724 -7.64765 -8.2573 12
287 1 -6.60786 -0.940551 -9.23131 22
288 1 -2.33883 9.8655 -15.7556 16
289 1 -5.3705 -7.43283 -6.27312 22
290 1 0.240234 -8.51395 0.533386 22
291 1 8.63014 -0.904694 -13.8831 19
292 1 14.8813 1.38498 -9.60561 12
293 1 10.3166 4.45872 3.26962 20
294 1 -3.01593 -2.23181 -4.15092 22
295 1 -12.6235 -2.4039 9.41698 19
296 1 -1.24472 -12.283 -3.76111 20
297 1 12.6848 11.6027 7.8847 19
298 1 -5.3531 -14.8516 4.26532 16
299 1 0.229952 -10.8124 -1.17655 21
300 1 -0.791342 17.993 -3.37642 14
301 1 5.52168 3.77305 -18.4901 13
302 1 -9.90585 -0.616542 -14.5833 11
303 1 -11.1238 -5.22415 9.98145 17
304 1 5.30688 7.73151 17.1203 11
305 1 2.56613 -12.3075 -4.86365 15
306 1 -2.75842 -11.5069 -10.9807 15
307 1 -6.47445 10.0449 -11.3336 20
308 1 9.86831 6.76013 5.65638 22
309 1 -7.11626 4.90249 -9.23523 21
310 1 1.2424 8.06576 -12.3815 21
311 1 -2.34863 -3.46804 3.2251 20
312 1 7.23713 -10.1958 -11.3706 17
313 1 -3.87413 16.89 -3.07138 15
314 1 2.4681 11.2307 5.59462 19
315 1 9.78387 4.01012 6.46282 21
316 1 -9.95491 2.59437 2.0488 20
317 1 -3.10358 -6.04158 9.74922 15
318 1 -6.83861 12.1328 1.90003 18
319 1 4.34348 -0.739121 -13.8242 18
320 1 15.1271 10.8992 -2.51233 13
321 1 4.69947 -9.70688 0.143095 16
322 1 -0.677459 -0.692289 12.9218 17
323 1 -16.4409 -2.1898 7.25541 12
324 1 0.506558 -14.8811 -4.09953 13
325 1 -8.18601 9.04347 13.4156 12
326 1 -5.93015 4.13017 11.9704 19
327 1 -16.4107 -4.1402 8.9792 10
328 1 -14.6041 -6.77753 10.9825 11
329 1 13.9213 -4.66554 -3.64654 16
330 1 -16.3226 -5.01305 5.64628 12
331 1 11.6465 -1.95793 -9.32882 16
332 1 10.2795 -11.3499 -7.82222 12
333 1 3.53511 16.5426 -5.95794 17
334 1 -2.3306 -6.10075 1.0504 17
335 1 -8.67437 16.2213 -4.18314 10
336 1 1.31335 3.94075 6.61081 21
337 1 11.0709 12.4732 5.33846 15
338 1 -11.0235 -1.48826 6.90886 19
339 1 6.89295 -6.82975 -3.9392 20
340 1 -2.42789 11.3261 2.1637 22
341 1 -8.21938 9.11473 2.96532 21
342 1 6.41398 -9.21936 5.33759 15
343 1 13.8305 -2.34895 0.796661 18
344 1 -3.69179 6.26307 7.39374 20
345 1 -4.2125 -0.774252 -7.40549 21
346 1 -0.29259 1.91024 15.8625 14
347 1 -2.62423 16.837 2.2514 17
348 1 10.3564 8.02686 12.735 17
349 1 -7.57131 11.6247 -8.96155 19
350 1 1.3535 -3.49967 -18.5159 12
351 1 -8.84869 3.10928 -6.72308 20
352 1 6.65416 -6.01875 -18.6442 8
353 1 -10.633 6.82117 7.56894 18
354 1 -11.6 4.51176 1.28731 20
355 1 -7.0424 -0.255691 -12.5179 18
356 1 -4.44225 11.9779 -0.152691 21
357 1 10.6632 0.280663 7.24663 20
358 1 -8.96592 -10.5837 3.93055 23
359 1 11.2445 -8.44024 9.12883 9
360 1 -8.5138 -6.7543 10.5023 14
361 1 -14.4488 9.34944 -3.39635 12
362 1 0.0891142 0.47525 6.17996 21
363 1 1.831 -9.23663 -4.12817 18
364 1 -6.65608 3.93951 -12.1174 19
365 1 8.81896 -0.173603 -16.5473 14
366 1 4.89408 11.889 0.0912155 20
367 1 -10.1336 0.317985 -8.24524 18
368 1 6.19698 -7.50934 -12.9839 20
369 1 8.98059 5.80731 -14.9475 15
370 1 -2.76001 -11.4527 -5.87705 19
371 1 -11.0361 -7.33756 -5.08924 10
372 1 -1.84852 -5.23086 -2.50354 20
373 1 12.5161 5.00812 13.6117 13
374 1 8.37029 4.13197 -2.946 21
375 1 -8.71338 7.76873 -10.662 20
376 1 4.00319 17.6984 0.268077 11
377 1 -14.8768 -0.205255 -6.36581 14
378 1 -9.83969 11.2259 3.01232 24
379 1 -4.82694 18.1042 0.285327 12
380 1 -7.97193 5.63859 0.0758918 19
381 1 10.0947 7.79706 8.94183 19
382 1 12.6283 -2.46027 -2.40923 22
383 1 4.27365 -3.54183 12.2022 17
384 1 13.0788 4.03104 -7.38962 22
385 1 -4.31887 -12.3631 -2.96396 16
386 1 -5.01371 6.15996 -4.13553 21
387 1 0.818161 -4.86861 -7.41222 19
388 1 2.6747 11.0072 2.26251 21
389 1 -8.61096 3.64683 -3.84885 21
390 1 7.22914 -6.74599 -0.38068 17
391 1 13.7751 3.95264 10.1359 21
392 1 -9.0202 -2.04935 -4.97955 15
393 1 -1.5978 -7.19214 4.72384 20
394 1 -8.66093 -3.44502 11.5296 12
395 1 0.318817 15.6149 -1.15807 22
396 1 -5.92124 -10.3426 -2.15862 19
397 1 5.69526 12.5315 13.1299 14
398 1 -9.2243 11.0263 -6.19324 18
399 1 2.55381 9.08498 -6.74033 20
400 1 8.56674 13.625 0.430158 17
401 1 -12.9592 -5.71142 -1.90521 11
402 1 -0.563524 -7.86761 -8.63793 21
403 1 -13.5838 -0.109301 4.93189 17
404 1 -13.3802 11.4732 -5.79338 13
405 1 6.56993 -6.43604 5.60002 17
406 1 -4.57262 -12.7038 0.187255 18
407 1 12.8837 13.73 9.97234 9
408 1 3.68925 10.0222 -16.2517 14
409 1 -14.1285 5.54345 -9.19053 13
410 1 -1.06712 15.8551 -11.3706 15
411 1 -4.75412 5.96892 -7.64585 20
412 1 -0.415878 -9.18917 3.20881 20
413 1 12.6776 3.69846 4.85866 21
414 1 -2.1983 6.65586 -17.0854 17
415 1 -2.00255 2.02733 10.7401 21
416 1 -15.4096 1.89597 0.21643 14
417 1 -6.88153 3.2146 3.68503 22
418 1 0.267011 -14.5204 2.07102 21
419 1 3.0647 -6.82198 -9.09637 21
420 1 10.8499 -5.10962 -8.83191 20
421 1 -0.0260229 -2.12044 4.63351 20
422 1 -12.9218 1.36276 1.92571 14
423 1 -16.1763 2.70147 8.72456 15
424 1 -9.34096 6.06482 2.37432 17
425 1 -0.215725 -4.17362 7.80251 19
426 1 -5.46445 1.69781 -14.6287 18
427 1 8.10467 -5.44239 -10.8324 19
428 1 3.14906 -5.67938 -14.6827 21
429 1 -3.01984 -3.11936 8.85833 17
430 1 4.03446 -6.11863 -3.62029 16
431 1 -5.24416 4.81639 -18.1326 13
432 1 3.17061 -11.5458 -2.36141 17
433 1 4.75722 11.9701 -6.29556 19
434 1 -11.9044 11.4869 4.86635 17
435 1 -5.31152 0.808101 11.9322 16
436 1 -9.9459 -5.05687 -10.5171 15
437 1 -8.88657 -6.44679 7.61459 17
438 1 10.4476 -4.41087 11.1193 17
439 1 8.11985 3.93659 0.61706 22
440 1 -5.81693 6.13115 2.43074 22
441 1 4.08713 1.14021 -8.2703 20
442 1 12.6336 -5.48036 8.83678 15
443 1 15.2512 8.43486 -6.52631 16
444 1 -3.28943 4.60114 11.8781 16
445 1 3.24277 14.3371 -2.14304 18
446 1 8.5503 -3.80903 5.29 17
447 1 2.23635 -8.59414 -7.61854 19
448 1 -6.68399 4.98533 16.2489 10
449 1 -5.81734 16.9932 3.11851 17
450 1 -7.77935 -9.72542 -8.39069 16
451 1 10.4425 16.7424 1.80316 10
452 1 5.24569 10.6649 8.62144 21
453 1 -12.581 3.9888 3.94052 16
454 1 -6.88434 -7.16961 -3.44182 19
455 1 -14.8485 8.17118 10.4585 10
456 1 -7.57354 -5.2377 -6.32553 21
457 1 -3.57388 10.8456 4.54255 18
458 1 -5.0692 -11.3976 -8.54438 12
459 1 -0.062735 -5.2038 -13.6791 20
460 1 -10.0292 -14.0222 0.312017 16
461 1 -5.18887 -2.87064 4.61813 20
462 1 7.33877 0.039897 5.80484 16
463 1 -5.95088 -2.2787 10.3816 15
464 1 -9.69214 5.20377 -9.09834 20
465 1 9.94508 6.74503 -4.48417 19
466 1 -7.86055 -11.9959 -0.825687 17
467 1 0.945052 6.05877 -10.0635 22
468 1 1.52733 18.075 -0.810963 14
469 1 -2.44694 6.83373 -11.0962 18
470 1 -3.56432 11.6503 10.4532 18
471 1 -10.5609 0.746324 -4.40673 20
472 1 -0.350477 18.5561 -9.84177 10
473 1 10.0181 13.5349 -7.98918 23
474 1 -2.82594 -4.92808 -12.2834 18
475 1 5.36417 4.01383 17.0356 11
476 1 0.675247 -12.7035 -10.4156 12
477 1 -1.24397 -0.25075 -12.2807 20
478 1 7.82128 -10.0536 -0.0941193 16
479 1 -11.1669 7.97543 3.85405 20
480 1 -0.31869 9.93369 11.4656 17
481 1 10.152 9.16746 -1.50985 19
482 1 5.99492 8.85107 -1.47469 20
483 1 -9.39614 10.7062 -13.0442 14
484 1 5.90701 3.31552 -8.07926 19
485 1 3.46948 -6.27019 4.44775 19
486 1 -14.6262 -0.766413 -0.209778 12
487 1 2.15304 18.2436 3.13176 11
488 1 -7.43052 4.42722 -15.1434 18
489 1 8.60918 6.20992 -0.883439 20
490 1 8.12481 16.3139 -8.76765 14
491 1 8.18471 -4.06346 0.623633 18
492 1 16.2764 5.08758 -2.23516 14
493 1 0.693934 2.59067 -13.8198 23
494 1 2.857 -6.51406 1.03069 19
495 1 0.997295 -11.3924 3.08477 16
496 1 5.83693 -7.5415 8.223 16
497 1 -7.80926 5.97867 -6.21856 22
498 1 -11.989 -9.77358 6.2778 16
499 1 -1.07561 -9.95595 -14.0891 14
500 1 10.2643 15.6008 4.74131 13
501 1 2.6336 5.06513 -13.6255 21
502 1 3.08842 1.69544 15.4544 17
503 1 -16.9004 5.62746 9.41156 8
504 1 -0.924946 -16.3068 -1.66552 13
505 1 -8.80295 0.953004 4.63237 19
506 1 15.0775 -4.30516 -7.0735 9
507 1 11.664 -0.0367334 -0.672081 24
508 1 -5.47441 11.3302 -6.62866 20
509 1 3.3878 -3.73659 -5.98955 21
510 1 5.62562 4.42494 -11.2939 19
511 1 9.67137 -4.31705 -5.58841 17
512 1 -9.10551 3.58533 13.6503 14
513 1 7.87188 11.2042 -1.07951 19
514 1 -7.95191 0.412281 -17.39 8
515 1 8.04598 5.35772 -18.3922 8
516 1 -5.07673 0.857993 8.93869 20
517 1 -2.52416 14.1813 -2.8407 24
518 1 -4.50052 -1.50932 -16.6567 13
519 1 -17.1657 0.597809 1.89932 8
520 1 -2.13124 -6.9481 -15.5643 13
521 1 -5.58678 -10.0039 11.3586 8
522 1 2.32039 8.86403 -9.49812 19
523 1 17.3432 2.22329 6.42275 12
524 1 12.8313 1.54918 1.4259 18
525 1 -11.1076 -12.0356 -1.48627 14
526 1 2.31016 -8.22102 -1.61375 20
527 1 0.380874 -0.812957 -20.6066 10
528 1 -11.3603 12.1548 8.49017 13
529 1 2.66761 -3.6336 -12.2814 24
530 1 5.92039 6.55962 0.723545 20
531 1 12.4161 -0.599247 2.99411 21
532 1 5.41963 11.8014 -9.75449 22
533 1 10.5408 -5.99585 0.926897 18
534 1 15.2116 6.36076 -7.7644 17
535 1 3.47778 10.6616 13.9149 15
536 1 -8.30535 7.09798 5.48493 19
537 1 5.18056 13.7486 6.29912 22
538 1 10.1996 0.248783 14.4476 16
539 1 -1.49186 8.42627 -19.4093 6
540 1 -2.24438 -6.82805 -4.94183 22
541 1 1.34506 1.31421 12.1544 20
542 1 5.37333 16.4553 7.94685 14
543 1 7.05592 6.19824 -9.21807 22
544 1 -7.54612 11.861 -3.7303 20
545 1 -1.43225 12.3702 -4.93686 18
546 1 9.70627 -2.60663 13.6743 14
547 1 11.1473 4.15777 -12.9701 15
548 1 12.5652 -9.56722 -6.04558 11
549 1 11.0588 10.7202 11.212 18
550 1 -14.6797 -8.03895 5.45418 10
551 1 -6.24159 13.1557 -11.7554 14
552 1 0.662535 3.24271 9.90481 21
553 1 -15.252 2.57047 11.4963 10
554 1 -2.8614 16.8155 -8.49296 12
555 1 5.03619 -9.99949 -4.67838 20
556 1 6.53427 -4.22188 -5.15642 17
557 1 1.80556 18.805 -5.51257 10
558 1 -3.86334 -0.537955 -13.6816 19
559 1 6.47674 -11.538 2.10344 17
560 1 -14.2666 -4.23671 0.18417 10
561 1 0.829885 11.9573 -15.6992 12
562 1 -5.85979 3.78463 -5.72053 21
563 1 -2.62812 10.1232 13.0096 15
564 1 -16.7171 -7.13705 8.69095 9
565 1 2.14602 8.56959 -3.40183 17
566 1 0.760971 -7.94153 -12.6154 19
567 1 5.10955 -5.80057 10.4331 14
568 1 9.51487 1.5139 -4.55121 23
569 1 -11.9938 9.54277 1.83772 23
570 1 7.94447 7.21275 11.333 23
571 1 6.20142 17.9648 -6.71054 13
572 1 12.0683 -2.1767 -5.35863 19
573 1 2.65492 8.87215 11.3801 20
574 1 -0.818527 4.65888 -19.2072 14
575 1 -7.96301 -12.4695 9.44694 10
576 1 -3.40728 3.74369 -10.1933 21
577 1 8.81825 3.19426 -16.4008 14
578 1 2.02085 14.009 4.61942 22
579 1 9.45111 8.95713 -13.0092 15
580 1 -1.01274 -1.55815 -17.2785 16
581 1 -3.45915 -9.01319 -7.68441 18
582 1 -11.9563 -1.88479 -12.1009 11
583 1 11.6187 7.02174 0.746147 22
584 1 16.3641 8.32168 -3.00362 14
585 1 8.60833 -3.15939 -8.68344 21
586 1 15.2734 7.59527 5.25551 15
587 1 4.75799 -7.27981 -6.90769 22
588 1 2.38377 4.99791 -18.4756 15
589 1 4.97006 12.9397 2.75536 22
590 1 -6.27052 3.31336 0.774695 24
591 1 8.12506 10.4335 13.1619 17
592 1 11.1826 6.37658 -1.82896 19
593 1 16.7864 -2.14543 1.52725 11
594 1 11.9279 6.95898 -7.30304 20
595 1 8.24246 2.10825 12.3258 19
596 1 17.1188 4.85902 10.6149 10
597 1 4.42039 -1.51118 8.05957 18
598 1 12.5693 15.0723 -7.32886 11
599 1 0.652043 5.72465 15.0057 15
600 1 15.1086 1.09017 -6.21265 15
601 1 6.56057 3.60686 10.7341 23
602 1 -11.0378 2.70002 -10.0933 18
603 1 15.1506 7.22372 0.0172745 16
604 1 11.0207 -3.22658 2.80799 19
605 1 0.396573 -5.39955 -0.596263 19
606 1 -8.26945 7.74681 10.1539 18
607 1 8.24154 12.5982 10.6722 16
608 1 11.6986 2.37945 11.6508 20
609 1 6.96922 13.3303 8.10528 18
610 1 1.80378 16.6549 8.25827 11
611 1 4.4833 8.37601 6.14078 21
612 1 1.30559 -18.1539 -0.0209271 10
613 1 -6.03925 9.26651 -2.00324 21
614 1 11.7127 10.1308 -7.9057 21
615 1 11.9455 -0.98146 -12.4155 16
616 1 4.15566 17.2863 -3.04485 12
617 1 0.52579 -9.90933 -10.5545 21
618 1 11.0288 -2.91262 -15.114 13
619 1 -15.8408 5.84644 3.42091 13
620 1 -2.26717 9.50007 -9.92202 20
621 1 -1.01022 -12.9972 4.6431 17
622 1 -8.47232 3.90408 -18.2733 9
623 1 -14.7647 3.53743 -5.94957 13
624 1 14.3287 -3.25675 7.352 10
625 1 15.2641 13.8511 3.36308 10
626 1 0.52691 -9.9295 8.62759 17
627 1 -12.4403 2.8895 -7.50524 15
628 1 0.455712 2.52475 -17.2725 21
629 1 6.55156 -3.8256 7.19232 15
630 1 -3.28826 6.10545 15.5763 15
631 1 7.10564 11.6672 -12.1626 17
632 1 12.3183 -1.33118 12.538 17
633 1 9.36528 8.49366 -9.36233 17
634 1 12.5754 14.608 2.01308 15
635 1 4.98905 -9.93664 -8.21584 20
636 1 -9.64681 1.44831 8.29626 21
637 1 10.3579 1.41082 4.54666 22
638 1 -2.4978 15.2345 9.74737 8
639 1 7.6194 14.1038 -10.6474 16
640 1 -10.6757 13.7818 -5.22559 15
641 1 16.1369 10.6787 3.56976 14
642 1 -6.45592 -15.6059 0.531132 13
643 1 14.0076 -3.77896 3.69112 17
644 1 7.56443 16.4041 2.39456 16
645 1 -3.11745 7.98093 10.7113 21
646 1 -8.0018 -5.09118 2.15271 18
647 1 -10.8544 -2.31187 -9.3441 17
648 1 6.96561 -0.772133 11.5513 20
649 1 -0.197552 -7.72483 10.5926 14
650 1 9.73559 4.9054 11.7743 19
651 1 -2.25063 14.3577 0.269363 21
652 1 10.9697 3.6423 -0.575036 22
653 1 8.02627 8.58186 4.34191 18
654 1 0.561814 5.22149 -15.8979 22
655 1 -14.6091 2.88763 6.31286 20
656 1 11.4021 0.951801 -14.9604 14
657 1 -1.17128 -4.04528 -5.36849 22
658 1 10.3062 -7.83928 -7.79445 20
659 1 7.46553 8.2821 8.11887 18
660 1 10.9038 9.33224 3.12239 19
661 1 -11.5565 2.28482 12.1463 13
662 1 10.2025 13.6968 7.90721 15
663 1 -0.32727 -4.566 11.9721 11
664 1 0.365734 9.08205 6.16202 20
665 1 -1.46782 0.729688 -15.4861 17
666 1 -6.87786 1.63676 6.64413 21
667 1 6.74909 4.99208 13.967 19
668 1 -10.4329 -12.692 5.51115 13
669 1 12.6605 8.83405 -4.40357 21
670 1 7.47982 -9.53441 -6.36332 23
671 1 -0.239167 9.44886 -4.86006 22
672 1 12.7084 12.1966 -3.2916 17
673 1 10.1894 12.1493 2.27104 15
674 1 1.64563 0.0994984 -15.7514 19
675 1 -2.03731 2.97297 7.36521 22
676 1 5.91089 14.9391 -4.48435 20
677 1 13.4104 9.22174 1.64333 19
678 1 -5.48214 -5.89292 0.587444 17
679 1 -3.0853 -0.591201 -19.7015 10
680 1 -12.5642 14.3016 -1.92492 12
681 1 10.1082 1.60551 -11.9631 18
682 1 8.30145 6.54932 3.12657 20
683 1 12.9775 10.2863 -11.4974 12
684 1 14.3079 12.1901 -5.89465 13
685 1 -3.24544 5.03256 4.38947 21
686 1 -5.41981 6.54305 -0.885815 19
687 1 7.9363 11.1309 -7.49527 20
688 1 15.5963 2.70834 12.0504 13
689 1 14.7596 -0.402311 11.8365 11
690 1 -1.65444 -12.5498 8.31358 10
691 1 -6.40325 11.0299 -13.9727 19
692 1 2.8104 13.5272 8.19726 23
693 1 8.95335 -3.2584 -16.8654 12
694 1 2.89686 1.22222 7.82784 20
695 1 6.44321 13.8803 -7.62553 21
696 1 7.87552 13.5774 4.59356 19
697 1 9.38572 -1.39267 -2.58136 22
698 1 8.01916 7.38703 14.8471 13
699 1 -16.3872 -0.372427 10.1242 12
700 1 0.527054 -13.6402 -1.19281 19
701 1 4.19686 -1.30132 -10.3471 19
702 1 -11.0388 14.4243 1.20071 15
703 1 2.86553 5.70522 4.72938 21
704 1 6.21372 -2.47588 -7.83141 20
705 1 5.25382 9.47171 2.15709 22
706 1 -12.8769 0.873004 8.09702 16
707 1 -3.17523 3.03323 15.7526 13
708 1 -8.25531 9.3733 -15.6346 10
709 1 -11.0946 8.05833 -13.3677 12
710 1 3.08233 -12.3582 0.412257 19
711 1 6.8811 8.939 -10.971 21
712 1 5.87696 -2.18656 4.70211 18
713 1 -2.9776 7.99086 2.95822 19
714 1 -12.7876 6.387 9.84701 16
715 1 3.56769 2.28276 -13.4142 21
716 1 3.64838 -9.29844 7.21622 14
717 1 5.7155 14.706 0.0810097 17
718 1 -6.50865 2.26222 15.1344 10
719 1 -6.27786 -3.46152 -9.73538 17
720 1 -5.0456 -6.84995 -12.52 16
721 1 -5.85392 -9.6857 -11.191 15
722 1 2.20539 16.9653 -11.2933 11
723 1 5.74741 -4.68926 -9.20071 20
724 1 -1.70911 14.0801 3.49192 22
725 1 5.4592 -10.319 -13.3793 12
726 1 8.07919 -12.8987 -2.30511 15
727 1 2.67024 -5.9481 8.02116 21
728 1 13.5304 6.02451 -4.71084 23
729 1 2.47961 -13.616 -8.23801 9
730 1 -8.00388 -0.892194 9.19175 20
731 1 -0.0456959 3.46969 -8.26503 23
732 1 -1.17874 -17.9318 1.55277 13
733 1 -8.8443 -10.2918 -3.37031 14
734 1 -13.0255 5.46643 12.6298 9
735 1 -8.12483 -16.7133 3.20526 8
736 1 17.1772 6.18942 -5.50105 11
737 1 -5.40715 13.37 -2.87901 17
738 1 -6.28058 5.23169 5.99358 19
739 1 -14.3447 9.17483 4.73582 15
740 1 8.7939 -0.932768 3.69138 21
741 1 -10.3451 0.282052 -11.9376 19
742 1 5.18417 9.17721 -4.78228 22
743 1 11.5642 4.34742 -9.98793 22
744 1 5.80616 14.3908 10.2847 13
745 1 8.16271 4.00322 -5.94726 20
746 1 -11.8262 3.21332 -4.16842 21
747 1 -11.9874 -4.86518 -7.75541 13
748 1 -0.929781 4.36552 17.4555 9
749 1 4.05873 10.0189 -12.0468 17
750 1 13.2212 11.7096 2.62034 19
751 1 -2.27475 -0.709727 7.45237 22
752 1 -2.4576 -15.0843 -4.55804 13
753 1 -7.81332 -13.3137 2.1145 21
754 1 -3.08756 -4.73611 6.5007 22
755 1 15.4073 12.5781 8.76419 11
756 1 3.76982 -6.17864 -11.7038 21
757 1 -9.21589 9.39735 -2.99119 20
758 1 7.5832 11.2725 2.355 19
759 1 -4.73027 -6.04793 3.56221 22
760 1 6.27593 9.83511 -13.8479 16
761 1 -0.695721 -13.9413 -7.06199 12
762 1 3.33306 -16.1132 1.14257 13
763 1 -1.51727 -12.4613 0.510846 15
764 1 9.03968 6.27077 -12.0861 21
765 1 7.94245 17.5854 -0.339683 11
766 1 -2.83026 2.48583 -18.7331 16
767 1 1.38224 -0.303296 15.4517 12
768 1 -0.751872 5.14143 -12.7553 20
769 1 -11.9427 2.78447 -12.9122 14
770 1 -9.30245 -2.34092 -2.04479 15
771 1 3.13731 18.2591 -8.6694 12
772 1 8.7184 -0.884051 0.834785 19
773 1 -2.45829 -3.61934 -15.7351 15
774 1 -4.4676 -5.11402 -3.98918 20
775 1 13.626 3.63624 -1.54129 18
776 1 10.6011 -4.81983 -3.1722 22
777 1 -6.1308 9.35654 10.6818 21
778 1 12.8692 -7.85112 -0.546602 12
779 1 12.9204 -6.93772 2.65687 11
780 1 12.8227 0.553408 9.44387 17
781 1 -1.64729 11.9431 5.97537 21
782 1 -10.0684 4.50078 9.95824 20
783 1 -12.8598 9.05567 7.73144 17
784 1 -3.69974 -12.3115 5.62021 17
785 1 7.53464 2.62529 3.78729 22
786 1 8.11148 9.47296 10.7621 20
787 1 -15.5257 3.51211 -2.70499 12
788 1 9.93823 -7.9165 -4.97857 20
789 1 -10.8791 11.8589 -7.73794 17
790 1 2.94911 8.24305 0.120866 20
791 1 2.53895 -13.9176 3.68916 17
792 1 8.81177 -0.683086 16.6809 9
793 1 0.0543156 12.4726 0.787736 20
794 1 3.15123 -3.15808 5.77252 21
795 1 -5.39362 -2.01437 -2.20847 20
796 1 3.46891 4.87971 13.8609 20
797 1 -14.7185 -2.32364 -3.33246 7
798 1 0.128581 9.94675 14.2291 12
799 1 8.86855 8.70047 0.698957 22
800 1 -9.11553 -7.6223 4.51476 19
801 1 -4.52572 -17.3957 2.4514 11
802 1 12.8203 -6.91336 11.6696 6
803 1 13.919 -3.84294 11.3981 10
804 1 5.9174 11.0667 5.24642 19
805 1 -2.85875 8.71851 -3.24605 17
806 1 0.494482 -6.0086 -10.5368 23
807 1 -1.98059 6.14571 -8.21803 20
808 1 -3.21665 0.954677 13.9388 16
809 1 -2.11832 16.8011 -0.692088 19
810 1 12.0189 3.54503 8.06794 16
811 1 2.63765 11.402 -4.38734 19
812 1 -6.06269 8.44311 15.8601 9
813 1 9.45509 11.124 8.1364 17
814 1 6.23042 1.45671 -15.066 16
815 1 -3.919 -7.43175 -1.74502 19
816 1 -2.25627 0.981368 -9.01021 21
817 1 14.032 1.24566 6.35024 20
818 1 1.84356 -0.562577 -12.6238 21
819 1 -5.90433 10.9434 13.0811 12
820 1 10.2349 -9.9665 -10.4886 12
821 1 4.80058 7.56716 -18.9481 12
822 1 -0.75819 -8.07391 -2.86499 24
823 1 12.4692 6.99574 -12.5065 13
824 1 15.6678 -1.781 -2.06619 13
825 1 2.30852 -6.00527 12.575 13
826 1 -3.65419 -6.43088 -9.11772 17
827 1 11.043 14.6839 -4.44228 15
828 1 -0.900912 -6.81304 7.70451 21
829 1 -13.2303 6.82447 2.49456 17
830 1 11.7809 3.4759 -4.68562 18
831 1 13.124 4.66155 1.50899 19
832 1 2.93772 -3.00066 -15.6009 19
833 1 -10.6612 14.3187 3.82919 12
834 1 15.06 10.0355 7.14918 16
835 1 12.521 12.8188 -9.94554 14
836 1 5.57324 4.41686 -15.062 24
837 1 10.863 -3.13227 -0.0729659 23
838 1 -12.8778 2.88392 -1.40513 18
839 1 12.7603 6.98011 3.97418 18
840 1 -12.0221 -5.87283 1.61301 20
841 1 -11.4864 8.62976 -9.89578 16
842 1 4.73623 7.71521 9.06095 20
843 1 -13.486 0.309308 -10.4521 16
844 1 -13.3101 6.36038 6.09075 19
845 1 -0.200945 8.76259 -8.2768 22
846 1 10.3842 -6.75119 -11.0756 17
847 1 -8.66338 -8.70203 -5.4112 17
848 1 12.0756 -6.1009 -6.17351 18
849 1 -15.3112 5.43117 0.242922 14
850 1 -6.63179 -4.80343 -1.74575 17
851 1 12.3388 7.47354 10.638 15
852 1 -4.31806 -9.48292 4.49462 18
853 1 13.5759 1.56096 14.2452 10
854 1 15.8266 1.50134 9.00957 14
855 1 15.4024 -1.48101 4.12466 15
856 1 -10.3631 0.968271 -1.26763 16
857 1 -0.438121 13.0274 12.4462 12
858 1 5.7298 8.63688 -7.72341 22
859 1 0.0068375 -5.63532 -17.6583 10
860 1 -9.12542 12.9636 6.26259 18
861 1 -13.9678 -8.42637 8.73141 11
862 1 8.91264 15.646 -6.18318 18
863 1 -1.56449 6.86248 12.6675 19
864 1 15.0098 -1.75926 -5.09321 16
865 1 8.17822 -7.42968 10.5218 12
866 1 -1.27694 14.2434 -14.6968 9
867 1 1.56979 11.1658 -10.7645 15
868 1 -4.75411 3.94712 8.55416 19
869 1 16.6214 7.53576 2.64751 12
870 1 -3.5074 -2.13305 -10.5929 19
871 1 14.6355 13.3246 -0.198681 12
872 1 -17.6146 4.14577 2.63648 11
873 1 -5.40564 -10.3587 7.58874 21
874 1 4.81055 15.5705 -8.87535 18