ITEM: TIMESTEP
9000
ITEM: NUMBER OF ATOMS
2000
ITEM: BOX BOUNDS pp pp pp
-30.0 30.0
-30.0 30.0
-30.0 30.0
ITEM: ATOMS id type x y z Coordination
1 1 -5.29546 5.40261 -14.9572 15
2 1 -2.28014 -12.9428 -9.11794 10
3 1 2.81806 9.27187 19.0687 15
4 1 9.97882 -10.1553 7.94829 11
5 1 -8.26462 9.01295 2.56266 18
6 1 15.6651 -7.13451 -10.1122 7
7 1 -11.25 4.24139 -8.30498 17
8 1 2.54858 -8.54315 12.69 11
9 1 -5.29426 -1.01432 -13.3934 16
10 1 -11.9003 -8.06583 5.47931 18
11 1 14.3618 2.65502 -14.4154 8
12 1 -2.6798 -10.3431 1.86345 19
13 1 -13.3215 -8.04587 3.15596 10
14 1 7.34601 6.37282 19.0412 17
15 1 9.04929 -1.06726 9.81741 21
16 1 2.17031 3.74128 7.67921 20
17 1 7.51226 -3.9314 4.1325 22
18 1 -3.65767 11.2604 -6.92761 21
19 1 3.10857 5.46599 10.3559 24
20 1 -6.91759 0.307483 -15.9588 15
21 1 -9.62351 -2.73308 11.1973 12
22 1 14.1518 7.01649 7.6375 21
23 1 1.51788 6.7774 -13.7656 18
24 1 4.37166 5.85958 -13.3774 19
25 1 14.2913 1.77817 13.3092 14
26 1 -5.96501 1.10903 1.82803 22
27 1 -11.1132 5.71052 -10.9553 11
28 1 -0.998442 -1.0791 -8.81032 22
29 1 -7.97396 12.8415 12.0907 11
30 1 7.04216 -8.63368 12.0735 10
31 1 0.766636 0.528852 7.45983 20
32 1 6.36964 -14.7475 -7.38517 14
33 1 7.5962 -7.09945 3.63275 19
34 1 0.299467 -10.0217 -3.18529 22
35 1 -9.28142 -3.87178 7.97332 17
36 1 8.8118 -3.79619 -13.7446 15
37 1 11.923 -8.30033 -10.8231 10
38 1 -2.95064 6.13983 -13.8683 18
39 1 4.51899 4.83199 13.1276 22
40 1 -0.120855 -8.75467 12.919 12
41 1 3.99665 -2.58717 15.1976 17
42 1 -10.0706 4.36225 1.6023 21
43 1 -12.9602 2.51858 9.91742 11
44 1 -5.94406 3.1179 -0.815724 23
45 1 1.55151 18.1391 -5.21364 15
46 1 -0.554158 -14.4411 -6.39969 15
47 1 4.01534 1.72958 -8.79355 24
48 1 8.21257 -2.80108 -10.1407 18
49 1 0.136979 -4.26368 16.3727 11
50 1 -13.3483 6.48845 -3.09055 9
51 1 7.37045 10.1042 -10.1846 17
52 1 3.78296 13.9431 11.9393 17
53 1 -10.2153 12.5217 -7.44716 6
54 1 -0.571548 18.9059 0.913566 12
55 1 1.92038 -9.68222 4.75425 16
56 1 7.80632 -4.51816 -4.00792 20
57 1 11.1739 -5.32087 -14.0585 9
58 1 -4.48134 9.47314 15.4863 11
59 1 -9.90761 -5.47828 -7.84502 20
60 1 7.57626 2.24556 5.20539 23
61 1 -7.12689 11.3983 -0.583348 19
62 1 -5.3603 -12.3935 2.94603 21
63 1 1.12693 12.1635 13.7232 20
64 1 -7.05893 16.1804 -6.28667 11
65 1 3.83901 10.5781 14.5568 16
66 1 3.786 3.2466 -5.7477 24
67 1 -5.02843 -10.6661 9.46954 18
68 1 4.14738 6.73245 7.48268 20
69 1 8.21478 -13.689 -3.58393 19
70 1 6.05706 15.9016 20.2154 3
71 1 -11.3524 0.668575 -6.46961 17
72 1 -6.65717 9.95149 -13.1554 12
73 1 2.96407 10.9008 11.8164 18
74 1 13.6748 -1.81645 -10.2618 14
75 1 8.77664 -11.5455 4.21625 18
76 1 -14.1335 -0.147683 2.64821 14
77 1 -5.87596 -1.86712 -1.01104 23
78 1 6.50157 15.103 6.38375 13
79 1 3.91433 -0.705217 12.4557 15
80 1 -7.85546 -13.8687 1.59544 12
81 1 -6.26648 0.210033 7.28138 20
82 1 13.0132 6.56461 10.8847 18
83 1 7.57027 1.14797 -3.34609 22
84 1 1.08827 13.9053 10.2863 16
85 1 0.734682 -2.04011 9.64517 21
86 1 -8.77101 -1.34154 4.26716 18
87 1 -2.40519 -3.99259 -8.90079 24
88 1 -8.90882 11.0049 9.211 15
89 1 -3.00812 14.9302 0.151857 17
90 1 -3.06885 7.972 -7.70839 18
91 1 9.19976 0.489025 -6.48051 21
92 1 7.41994 13.7171 -6.82673 15
93 1 9.51894 -8.95861 5.48249 18
94 1 8.99044 -7.42474 8.09587 18
95 1 -1.01453 17.4465 -7.45508 13
96 1 -6.28405 14.3693 4.91119 15
97 1 -6.43265 -1.0212 18.5515 12
98 1 -5.06705 9.50178 5.86242 17
99 1 -6.07648 0.927994 13.2809 19
100 1 13.3185 -9.47048 -2.37658 18
101 1 -7.59272 1.22408 4.69778 22
102 1 -8.73925 -12.5546 3.69641 15
103 1 14.6874 -8.54435 -6.03926 11
104 1 7.32637 4.41261 -16.1202 13
105 1 -4.50537 -0.560331 -17.4613 10
106 1 0.633422 13.342 2.80889 21
107 1 -6.36076 6.47847 -8.98807 20
108 1 4.4677 15.5624 16.8793 10
109 1 -1.2022 17.0121 -1.76228 12
110 1 -10.6854 11.5681 1.01226 15
111 1 2.45123 10.2311 2.44412 19
112 1 -4.79414 -7.28235 9.6209 16
113 1 13.1912 -1.7343 12.767 14
114 1 0.826018 -4.04594 -9.33135 22
115 1 4.41287 -7.96095 -11.6867 19
116 1 -0.876462 3.20198 7.33765 21
117 1 5.41726 -1.81879 17.6852 15
118 1 -7.50019 -4.5132 -2.16808 18
119 1 7.12175 -4.70354 0.914097 20
120 1 -8.78045 -8.27079 -1.77518 14
121 1 13.265 -5.409 4.27534 13
122 1 -3.90326 9.47421 2.98485 20
123 1 4.74133 7.28331 -17.997 8
124 1 5.15742 16.8465 -2.16698 20
125 1 -5.93275 -10.9019 12.2511 11
126 1 -5.91428 -12.759 8.21973 16
127 1 9.41606 -5.57622 -10.405 20
128 1 5.44105 6.21473 -5.52592 23
129 1 12.8443 -8.12513 1.06782 19
130 1 2.5356 -14.4804 7.7324 12
131 1 -9.38814 -5.8349 -0.462042 22
132 1 16.2367 3.84082 7.57428 13
133 1 14.9035 1.6784 -8.22391 14
134 1 -13.3408 -5.26947 5.14671 15
135 1 14.1408 12.3242 8.32894 18
136 1 16.395 11.1374 5.31737 13
137 1 1.75126 1.63125 17.776 22
138 1 9.0072 6.04848 -0.725463 23
139 1 -1.75636 15.8191 10.8974 12
140 1 -2.70061 16.0633 -4.89148 16
141 1 7.78077 -6.88605 -12.989 12
142 1 9.93752 -12.1851 -5.76817 19
143 1 7.6281 11.1332 -13.3622 10
144 1 7.66462 0.628667 11.8694 17
145 1 2.71792 -1.65659 -16.5154 15
146 1 -2.22761 7.00492 -2.84133 23
147 1 9.07108 -0.308107 -0.654438 21
148 1 -9.18776 7.64245 -8.06966 15
149 1 -5.7564 14.57 -0.266685 19
150 1 9.82666 2.386 -8.69628 21
151 1 9.26444 -8.6549 1.98309 21
152 1 -5.55268 2.8223 -6.13239 22
153 1 -5.22926 13.779 10.2204 17
154 1 14.0263 9.65414 -5.02014 16
155 1 5.65644 10.0945 -2.73286 20
156 1 -4.16979 15.8456 2.97817 16
157 1 9.14786 9.98763 2.62454 20
158 1 -1.54409 12.7411 -4.10872 15
159 1 1.59716 13.1615 -12.4345 12
160 1 1.02904 10.4324 -11.0249 17
161 1 -9.49706 -8.98891 4.30528 17
162 1 -9.61887 11.7986 -2.42145 16
163 1 -2.37742 0.627318 -13.8369 20
164 1 4.32105 -6.22251 -14.0876 15
165 1 12.188 16.4916 10.6498 7
166 1 2.37087 14.7778 7.34671 14
167 1 -9.41234 4.8264 -3.3374 19
168 1 -7.58996 12.6558 2.05995 18
169 1 16.0407 1.77441 -1.69763 14
170 1 -9.65759 -0.452163 -10.6551 15
171 1 6.52642 3.22282 15.485 18
172 1 1.9481 17.9201 5.92709 13
173 1 -2.9956 9.38837 8.76288 18
174 1 7.93475 -8.8044 -10.2316 18
175 1 -5.62093 12.3263 13.197 15
176 1 1.72879 12.5841 -5.38581 17
177 1 3.118 -4.69367 17.6956 7
178 1 -11.6625 -1.19481 1.18522 20
179 1 10.8114 -7.12556 -8.65956 19
180 1 -6.00951 12.528 -10.8292 11
181 1 -2.52183 -9.35772 7.87454 23
182 1 8.14997 -10.2083 -4.15145 18
183 1 -1.45889 9.86601 -9.1497 17
184 1 -12.6326 6.19738 11.6223 10
185 1 0.771145 8.76397 -0.371306 21
186 1 9.49881 11.9086 0.788605 20
187 1 -1.55619 7.17846 15.3878 15
188 1 0.99926 -4.95276 7.82195 21
189 1 -4.19376 5.92396 -0.769786 21
190 1 -0.305882 19.5766 6.50195 12
191 1 -2.1864 6.04915 8.15966 20
192 1 13.0729 2.68474 15.9767 15
193 1 -4.6834 13.1498 7.52241 19
194 1 12.1408 0.609564 -6.62626 24
195 1 -0.659789 11.9357 16.677 13
196 1 -2.44793 1.41131 -8.26822 24
197 1 12.668 -7.98888 4.11973 14
198 1 -4.60881 -5.43142 4.06212 22
199 1 -12.9627 4.71992 7.18758 10
200 1 -6.41626 -8.96967 7.28107 21
201 1 -0.110726 4.64163 17.1069 18
202 1 -8.92311 3.09056 -1.49451 20
203 1 -0.03728 -14.7797 2.56865 18
204 1 5.96603 -5.35743 -5.94742 23
205 1 -1.82625 10.7881 4.94891 18
206 1 -5.89821 3.5896 4.70188 21
207 1 7.64204 12.5305 18.6342 10
208 1 -5.51437 1.16622 -3.43394 24
209 1 -5.8185 13.7808 -8.37054 19
210 1 -13.3916 -1.17462 -5.83171 13
211 1 -11.8032 0.673728 7.44318 16
212 1 2.08208 -6.41629 10.2102 17
213 1 5.25153 -11.3862 11.9564 10
214 1 -11.8134 9.91185 4.14397 14
215 1 14.3408 3.90451 4.72252 19
216 1 8.71754 4.00696 -2.9233 23
217 1 -5.35747 -7.93892 -12.7458 14
218 1 2.54588 2.3973 12.3058 21
219 1 7.8571 -11.984 -0.975094 19
220 1 -0.899298 6.37283 -12.0225 20
221 1 5.42165 -9.55379 -9.665 19
222 1 7.20141 2.22517 -17.6928 11
223 1 3.44993 8.61383 -12.4078 17
224 1 -7.65692 -10.9282 -7.14953 10
225 1 -0.273661 15.7534 -10.0378 13
226 1 -10.1864 -7.48984 10.5804 10
227 1 4.08616 17.9888 -5.48159 12
228 1 -3.86594 0.746982 19.4741 10
229 1 1.13345 19.8678 -2.30854 12
230 1 7.38736 0.546233 7.6719 24
231 1 1.26452 -8.09111 -11.795 18
232 1 -3.38946 9.36678 -4.71854 18
233 1 2.19195 4.84035 -8.58075 22
234 1 -7.14776 -11.5288 6.0904 19
235 1 -6.74157 6.82979 13.0423 18
236 1 -7.59484 8.52555 8.69579 19
237 1 6.30023 -14.4117 -10.2104 8
238 1 0.214544 -13.8658 -1.18447 20
239 1 10.4412 -10.8295 1.30765 22
240 1 4.21846 -9.16836 -1.08357 19
241 1 11.911 6.27518 15.9372 16
242 1 5.48278 10.4809 -7.87252 18
243 1 2.06516 11.8251 0.163488 20
244 1 -7.01923 4.05764 2.16009 18
245 1 -9.44438 14.1131 -4.49643 15
246 1 3.69344 7.52607 13.0412 20
247 1 9.35769 -13.9633 2.7838 13
248 1 12.3442 -0.07126 -1.20073 21
249 1 1.08689 6.46138 7.97218 20
250 1 -5.20863 11.1667 10.0182 22
251 1 -9.36707 1.18064 -3.69838 21
252 1 7.36969 8.07814 -15.7455 10
253 1 2.70061 -0.200097 10.2269 21
254 1 10.7316 7.60266 -7.6836 19
255 1 2.64915 -13.7062 -2.89416 21
256 1 4.07039 -2.18923 -11.1964 23
257 1 5.74317 -12.4787 3.77017 20
258 1 14.241 3.43929 -6.13772 21
259 1 -6.3399 -4.76936 6.99785 16
260 1 5.39037 -11.9571 -2.43566 17
261 1 -10.2092 -1.44363 -4.55149 23
262 1 3.9669 13.0236 -1.48427 16
263 1 2.63242 -3.26713 -13.767 21
264 1 3.69994 3.05531 15.9186 21
265 1 16.6113 5.53404 3.10243 15
266 1 -2.26303 -4.70936 -3.74255 22
267 1 13.7425 -1.7595 -7.48744 18
268 1 -0.87796 -7.67125 1.8955 21
269 1 -3.8593 -7.07404 -9.11667 22
270 1 -6.32948 1.50321 -8.77966 20
271 1 -2.83034 -12.7485 8.11021 19
272 1 13.118 -2.91757 10.2716 12
273 1 5.98225 -2.20673 7.24742 24
274 1 -4.28364 -11.0141 -7.53255 16
275 1 2.04404 -5.59149 4.97744 15
276 1 2.1159 7.13568 -10.7058 20
277 1 5.86195 10.1186 2.85479 22
278 1 -7.31118 -6.75103 5.31431 18
279 1 4.31251 12.6843 2.52058 17
280 1 -9.2842 1.31679 12.1541 16
281 1 -8.72687 -3.86692 -10.6264 17
282 1 -1.96945 -8.034 -11.8187 21
283 1 -0.714938 8.08766 -15.2002 13
284 1 -2.56177 -10.4223 -4.16016 19
285 1 -2.61311 -8.29166 -1.20602 25
286 1 12.046 0.186894 -13.8111 13
287 1 17.0228 1.98844 -5.27757 10
288 1 10.7964 0.399676 7.06799 18
289 1 -2.51898 -2.64111 -6.2696 24
290 1 -7.13799 -2.6383 9.41766 18
291 1 -1.26797 -15.6725 0.178637 14
292 1 7.73949 3.27132 18.7724 15
293 1 -1.97545 -12.3344 3.92228 20
294 1 3.94048 -10.474 2.23664 20
295 1 2.63125 18.57 0.211916 13
296 1 5.63283 -0.892192 -18.0358 10
297 1 -3.0525 -6.07496 -14.5562 17
298 1 -5.90008 -5.581 13.9974 15
299 1 5.89583 9.53294 19.7926 12
300 1 2.55439 -13.5655 1.03359 16
301 1 1.07838 -13.2409 -9.2468 15
302 1 -8.65333 8.39148 -10.7307 13
303 1 10.6424 6.42544 8.0686 21
304 1 -8.90911 1.88285 -8.64357 18
305 1 0.179316 7.77031 -8.27396 18
306 1 -0.627429 -5.21921 13.0013 20
307 1 9.32629 -13.5984 -8.68714 11
308 1 -1.12941 16.2381 2.5031 20
309 1 3.00172 10.1348 8.38966 18
310 1 12.4059 -0.711457 4.61612 17
311 1 -11.4604 -0.727438 4.42335 18
312 1 6.10314 -9.97236 9.16171 17
313 1 -1.89492 12.2949 8.73617 18
314 1 7.17986 -2.66566 -15.9554 15
315 1 13.0822 12.5854 0.243295 14
316 1 7.151 -8.44131 -0.686776 18
317 1 -2.51538 -1.29842 17.647 11
318 1 -12.1733 -5.4434 8.15921 12
319 1 5.38719 -15.7521 -4.71049 14
320 1 -1.28248 10.5787 14.2793 17
321 1 -8.95432 6.71231 15.6953 13
322 1 -8.93081 0.465266 16.9363 14
323 1 -10.1015 -4.98651 5.42779 20
324 1 15.8911 -4.60235 -0.885193 11
325 1 -9.81454 -7.65274 7.26964 18
326 1 11.415 -4.10385 -7.86657 22
327 1 13.7647 -13.3466 -2.33463 9
328 1 3.58839 15.2625 -4.1574 20
329 1 -4.18575 13.3566 -2.71366 19
330 1 9.55915 9.35541 13.5638 19
331 1 -9.20958 -0.813453 7.11294 18
332 1 5.7878 -7.63678 -3.60848 22
333 1 -2.33328 12.9729 2.6694 19
334 1 -4.11632 5.83358 4.55454 18
335 1 3.54285 -11.4798 6.0563 17
336 1 13.8705 -7.50762 10.6088 5
337 1 -5.15063 7.51002 8.0156 17
338 1 -5.59269 -2.47963 -6.51591 23
339 1 1.21697 5.42351 13.5234 20
340 1 -0.351218 16.4956 7.83739 21
341 1 10.6296 5.91962 18.5718 13
342 1 -4.43679 17.1446 -7.23736 13
343 1 1.91628 -5.63097 -16.4985 12
344 1 -3.99561 0.217015 -6.26601 21
345 1 10.9878 -10.8797 -8.60512 12
346 1 -3.63625 5.28561 16.3606 14
347 1 -11.4355 7.27164 8.84623 10
348 1 -4.22396 -1.15065 -8.93793 19
349 1 -6.99949 12.6887 -3.08177 22
350 1 10.6031 -2.87899 4.86589 20
351 1 -8.8204 -9.97056 0.680605 14
352 1 7.63806 -5.36544 6.81694 18
353 1 -8.06088 -8.08921 12.8661 11
354 1 -12.0161 9.04565 0.815991 12
355 1 1.74057 -3.04796 12.2908 20
356 1 4.94246 -10.8766 -7.43935 22
357 1 -1.41379 -5.1151 -11.5538 21
358 1 9.34309 0.0558862 -16.7742 9
359 1 3.61087 14.1537 4.62378 18
360 1 -7.41041 0.26797 -1.03708 22
361 1 6.20341 -7.37077 -8.66613 22
362 1 7.32455 4.85209 -12.9645 18
363 1 -0.868049 -11.2551 -6.74111 22
364 1 -11.5017 -8.07814 -1.32655 12
365 1 0.514683 -10.1021 2.09744 18
366 1 8.80638 7.28329 16.1215 18
367 1 13.7559 2.35666 -0.227706 19
368 1 -7.20901 1.20795 -12.5118 18
369 1 2.31285 16.7488 -1.79289 19
370 1 -12.3487 0.747073 -8.95164 13
371 1 -7.97264 9.9808 11.5538 15
372 1 -5.06529 12.1063 4.35449 17
373 1 -6.58511 5.24561 10.356 19
374 1 13.5243 5.11741 13.868 14
375 1 16.5642 -0.771138 -3.39765 12
376 1 7.03591 -3.27253 12.8893 13
377 1 11.0001 1.54792 -3.33689 21
378 1 -2.18121 -14.4239 -3.17203 14
379 1 -2.55037 8.69843 0.123682 20
380 1 2.72495 -7.55411 -3.97686 22
381 1 0.956442 8.55504 4.93426 22
382 1 -9.6059 3.17069 -5.96729 16
383 1 3.85107 -10.4457 -4.15211 19
384 1 9.40556 -2.37415 7.02869 18
385 1 -7.46425 -1.68493 -3.78169 24
386 1 -3.98434 -7.60939 1.28291 19
387 1 -6.75785 -2.5532 12.4161 14
388 1 0.45453 14.6684 -0.0642271 20
389 1 -4.32518 -7.36075 -4.26883 22
390 1 4.96917 8.45421 16.239 18
391 1 -9.59253 10.2872 -5.29117 18
392 1 3.02752 13.8852 -7.59095 18
393 1 4.25062 14.4216 8.94661 10
394 1 -10.9015 -8.32397 1.63547 17
395 1 0.957641 -8.39004 -6.48278 22
396 1 -12.0622 3.99022 3.9844 18
397 1 -11.7939 9.16546 -2.41566 13
398 1 8.17052 -11.67 10.4164 11
399 1 -6.07039 -7.09719 -0.0449496 17
400 1 12.1904 8.74363 13.0653 14
401 1 11.9343 7.87537 -12.7865 11
402 1 -8.60051 6.5622 -13.3465 13
403 1 -2.33496 14.7668 -7.76301 18
404 1 -6.49534 9.87808 -4.63195 19
405 1 -0.544862 -12.0665 9.81101 13
406 1 12.4597 3.73612 7.56603 20
407 1 4.79725 11.5783 -13.2222 13
408 1 -4.26602 -0.753607 10.5458 19
409 1 -12.069 3.66368 -1.38877 16
410 1 -7.08794 9.48505 14.3822 12
411 1 -4.09848 -10.9069 5.97997 20
412 1 4.10191 -2.44199 -5.96912 22
413 1 9.42364 -5.77046 -6.26548 19
414 1 -1.9536 -1.81822 7.67769 20
415 1 -10.5558 1.84583 3.8123 23
416 1 -9.03291 2.60842 14.7694 19
417 1 -9.08883 9.27797 5.65721 16
418 1 2.89241 -2.08126 7.18798 21
419 1 -7.77469 3.53829 -14.2919 14
420 1 10.8379 -11.2694 -2.12308 22
421 1 0.500626 -6.05895 -13.8095 21
422 1 3.02495 0.611187 14.8126 19
423 1 4.12276 -8.54217 -6.76947 24
424 1 -6.15623 2.64443 -16.9442 11
425 1 7.25976 -10.4886 1.60343 21
426 1 4.77488 12.6289 -5.48331 18
427 1 -10.5786 12.0489 6.80532 8
428 1 -4.68289 -1.00672 15.2218 17
429 1 -7.16176 -6.52723 -10.3552 22
430 1 -4.57563 -3.70102 9.19475 17
431 1 8.10123 -6.11332 11.0561 16
432 1 12.5117 5.77386 5.15044 21
433 1 2.30959 -1.14303 -8.80459 23
434 1 12.3803 -6.05198 7.44678 15
435 1 11.9787 10.6982 -2.62827 19
436 1 -3.10139 1.09852 12.5477 20
437 1 6.64294 11.6079 -0.459148 19
438 1 4.42531 -8.07918 6.84409 15
439 1 2.26753 -16.2377 -5.15505 11
440 1 3.43516 -0.00623614 20.6341 9
441 1 2.12871 17.0618 11.4666 8
442 1 -6.14917 -9.46087 -9.84735 16
443 1 11.6315 12.8003 2.94714 18
444 1 1.81998 8.18004 10.3432 19
445 1 -3.75281 7.291 13.8622 15
446 1 -5.56081 -4.47848 -4.29888 20
447 1 -13.9867 1.81228 5.07342 10
448 1 -5.59144 -8.47451 -7.1359 19
449 1 -9.08903 12.0929 4.17995 15
450 1 -6.13588 -9.33173 -2.0725 19
451 1 -3.94522 -10.2479 -13.3806 7
452 1 -2.80463 -13.2806 1.10741 23
453 1 -2.28003 -4.63558 7.19558 21
454 1 3.95171 0.655987 7.71925 24
455 1 -8.86797 0.167596 9.3399 20
456 1 -5.70004 4.17055 -11.5034 22
457 1 10.415 3.03567 -0.038556 23
458 1 -1.36854 -11.3013 -1.10503 21
459 1 1.80891 6.47792 -5.95079 21
460 1 0.619469 18.419 3.23289 13
461 1 -1.10487 5.95551 -5.4288 22
462 1 4.7707 8.37621 10.2145 21
463 1 -12.7653 -1.61616 -2.88513 14
464 1 2.13702 17.2143 -8.32198 12
465 1 9.07698 10.7502 -8.05771 18
466 1 -9.30594 -9.39918 -10.4989 7
467 1 1.65599 -1.21422 17.791 17
468 1 3.77197 -12.6722 -9.26355 18
469 1 0.696385 -2.44065 -11.6512 21
470 1 12.2111 -12.917 2.37597 10
471 1 -10.9209 7.1736 2.4794 17
472 1 5.80492 3.26902 20.8971 10
473 1 10.5407 8.86646 -0.113592 19
474 1 4.25869 9.18697 -0.100211 24
475 1 -7.99393 4.67159 -11.0168 18
476 1 5.72333 0.526564 -5.99638 24
477 1 5.48425 -7.29675 1.75456 19
478 1 -14.9173 -0.55607 -0.308747 9
479 1 1.45479 19.1645 9.17177 10
480 1 -4.18165 4.05726 -8.76478 21
481 1 10.6141 6.75229 2.3852 22
482 1 6.97482 17.6132 -4.64813 10
483 1 7.53133 -2.72753 -0.852008 21
484 1 16.2332 5.02903 -3.60331 15
485 1 -1.28517 2.97441 -13.8698 17
486 1 2.45275 -8.0321 1.43592 18
487 1 2.78399 -10.9126 14.7181 4
488 1 0.241572 -9.29811 10.1626 17
489 1 -7.86259 4.40089 -7.66714 20
490 1 -9.02816 -13.3065 6.84941 11
491 1 -0.42586 -11.1145 -11.4626 13
492 1 12.4499 15.7226 2.57667 8
493 1 4.05827 3.54077 -11.5387 21
494 1 6.12907 0.336105 15.7141 20
495 1 -12.1561 -0.174537 10.8349 9
496 1 2.06065 -16.7003 1.30793 10
497 1 -13.5145 -3.03011 2.76622 14
498 1 15.57 -3.29709 -5.04007 12
499 1 12.8472 -1.43954 -4.01747 21
500 1 -4.47157 9.78786 -2.09346 19
501 1 2.63756 -11.0467 -11.8817 15
502 1 5.70139 4.81841 -7.99755 23
503 1 10.3702 -0.998972 -8.65896 20
504 1 -1.57407 2.20324 16.8624 18
505 1 6.8142 17.8936 0.197408 14
506 1 -6.00343 -2.62898 -15.7201 10
507 1 4.25987 4.21566 -16.6422 14
508 1 -5.98928 1.94626 10.0369 18
509 1 -2.86221 19.0841 3.78487 9
510 1 -6.97606 -4.83139 -13.2379 14
511 1 -12.6922 1.7385 1.12336 18
512 1 3.2001 -5.22079 -11.7695 21
513 1 -1.09804 -4.10824 10.057 19
514 1 -0.381658 9.58173 -5.23964 20
515 1 14.9887 1.39358 6.56497 14
516 1 13.9023 7.55493 -2.50006 19
517 1 -6.89406 -11.6195 -0.21096 13
518 1 0.548254 -8.53623 -1.08209 21
519 1 -2.67563 -3.37828 -16.7528 13
520 1 -6.49967 10.8405 7.70841 18
521 1 6.17124 -5.23014 -10.8271 20
522 1 3.92986 7.35731 -2.969 22
523 1 10.7537 0.590757 1.94431 20
524 1 5.23262 13.07 -9.34829 17
525 1 5.8331 -5.81974 -1.27307 19
526 1 12.4423 3.88177 -8.48276 18
527 1 5.53737 11.3978 9.92654 17
528 1 -9.22295 4.67494 12.9542 23
529 1 7.93147 9.15356 10.8727 20
530 1 7.82958 -2.05759 15.7647 12
531 1 1.12784 1.97927 -16.4738 12
532 1 -3.78775 -5.46339 -6.49271 22
533 1 -1.24684 0.923113 10.022 21
534 1 7.54266 12.6808 7.19609 15
535 1 8.80899 7.07584 -11.1565 18
536 1 -7.3344 10.8654 -8.40229 14
537 1 0.571865 13.001 -2.4117 15
538 1 4.36817 -5.66268 11.909 15
539 1 13.4196 5.8583 -14.4443 9
540 1 9.37708 -7.27329 -3.39374 21
541 1 16.8387 13.5989 7.4056 9
542 1 -10.7076 -6.10507 3.15764 21
543 1 -1.39996 11.9885 -12.0843 16
544 1 0.515344 3.72867 10.5472 20
545 1 -8.85674 3.80903 17.7742 12
546 1 -4.16128 15.667 -10.171 14
547 1 6.37537 -15.1354 -1.67301 21
548 1 7.07314 1.62263 -8.4091 20
549 1 -0.805647 19.0392 -4.43084 12
550 1 -10.2527 -6.77898 -10.8375 9
551 1 5.48212 -12.98 8.1306 13
552 1 -11.7971 -4.75994 -2.57945 18
553 1 0.262318 12.3682 -8.95853 18
554 1 -7.93284 7.07915 -5.51609 18
555 1 2.68592 12.5371 17.7495 15
556 1 -7.52925 -5.32251 11.0298 16
557 1 9.20435 6.19446 -5.34028 19
558 1 2.03683 -11.8675 -6.06131 23
559 1 3.76875 -3.69193 9.4879 20
560 1 7.34013 3.45789 -5.68929 24
561 1 -6.05376 8.57105 0.100918 19
562 1 10.733 2.38835 18.2841 11
563 1 5.34734 15.8572 -7.76992 15
564 1 11.6039 -5.46932 -4.76635 17
565 1 5.39784 11.22 17.6196 17
566 1 -2.39917 3.58528 -11.2692 23
567 1 -3.46499 -5.18729 12.1486 19
568 1 0.869325 1.71841 -8.75196 24
569 1 4.37946 1.52962 -16.5448 14
570 1 5.46889 17.8906 6.47023 5
571 1 11.1519 5.5281 -9.95123 17
572 1 -0.82328 -3.03429 -14.2342 22
573 1 -2.02559 -8.31851 -6.41346 24
574 1 -6.69104 -5.10272 -7.81107 22
575 1 12.1894 3.72266 2.4526 21
576 1 14.5952 9.38816 -0.159987 12
577 1 7.55967 -4.2207 -8.14957 23
578 1 15.7548 5.15699 10.6481 11
579 1 13.8261 -5.94527 -7.76135 15
580 1 4.20303 8.61302 -15.6082 19
581 1 8.01628 12.9302 3.19967 16
582 1 -8.82169 4.52953 4.98413 20
583 1 8.82951 9.0638 18.9133 13
584 1 10.4454 7.22883 -2.82658 23
585 1 16.0964 -0.624934 3.70905 10
586 1 15.7749 7.27933 -5.78142 13
587 1 10.9768 2.11508 13.4241 17
588 1 13.1119 3.70244 11.3359 16
589 1 -0.138372 0.146552 13.0367 17
590 1 10.0198 15.6136 -4.93113 10
591 1 5.34231 1.78681 12.4525 22
592 1 12.22 4.20931 -2.97771 19
593 1 9.27035 3.26639 7.38842 21
594 1 -8.2204 -3.62019 -6.26419 22
595 1 12.1539 5.63379 -0.282392 20
596 1 9.56664 -2.2972 1.83617 18
597 1 -10.2645 7.98016 13.3987 14
598 1 9.0604 12.2916 13.5779 16
599 1 13.4896 4.41114 18.1331 8
600 1 7.14351 13.2342 15.4145 15
601 1 -1.05907 14.3458 14.3818 12
602 1 5.80996 3.68279 7.38422 21
603 1 -0.588937 -15.1652 6.07882 14
604 1 -7.14108 12.3231 -5.85789 20
605 1 15.1737 9.46879 -8.25078 8
606 1 9.20082 2.48981 -14.8479 19
607 1 4.25613 15.2897 0.442086 17
608 1 -0.31828 -7.1291 -9.30905 24
609 1 10.5724 -2.70794 -11.5111 18
610 1 -10.4788 2.94332 7.2088 22
611 1 -4.41353 9.94279 -9.9209 20
612 1 -2.89985 -14.9872 4.09602 17
613 1 -3.68524 1.1657 -10.9777 22
614 1 -6.71735 4.03073 -3.55294 23
615 1 10.1248 -6.25511 4.77377 19
616 1 14.8527 11.2693 2.8329 15
617 1 5.52601 -9.63847 4.54968 19
618 1 -7.75149 0.200292 -6.21304 22
619 1 2.0316 6.61939 -16.8403 12
620 1 2.59642 3.35255 21.1501 13
621 1 6.42833 8.40656 -12.4337 18
622 1 12.353 -0.331927 15.636 11
623 1 11.0708 3.66111 -5.61523 19
624 1 13.8473 13.3889 5.05819 13
625 1 5.59287 -12.6596 -5.29382 20
626 1 -8.40232 -2.95695 17.1346 8
627 1 12.9791 -2.80507 6.92549 16
628 1 2.91192 6.59926 16.7616 20
629 1 6.34672 14.102 -11.9762 8
630 1 -6.10534 15.5129 -3.92203 15
631 1 12.6995 9.88429 6.72695 15
632 1 -4.61812 -14.5685 -0.651824 13
633 1 13.8987 -2.61586 3.14946 15
634 1 7.14846 16.2348 3.22215 11
635 1 -2.66215 4.08237 10.2791 18
636 1 -13.8455 -3.19599 -0.254401 13
637 1 -6.17981 -2.84954 -10.8315 19
638 1 11.0903 -0.325618 11.1117 14
639 1 -2.51831 -6.49867 14.7638 13
640 1 9.34594 3.97714 16.2108 19
641 1 -2.17863 14.3253 5.97836 17
642 1 7.69887 6.54822 7.62684 19
643 1 8.97861 5.43683 5.01334 23
644 1 2.65828 0.831427 -11.6009 25
645 1 -11.7509 -2.79762 6.04648 17
646 1 9.76629 5.84911 -14.4766 14
647 1 -0.638165 -5.71765 -6.6466 21
648 1 12.8715 -11.6059 -5.35684 13
649 1 8.28218 3.67493 13.0851 21
650 1 5.92828 5.78595 4.86661 20
651 1 -5.00798 -3.55989 17.1017 11
652 1 10.2399 11.6278 10.1647 16
653 1 4.76578 1.27659 18.7809 18
654 1 -0.386622 6.61093 11.1462 17
655 1 5.72509 -2.82692 -13.155 22
656 1 -1.62476 3.86108 13.8925 18
657 1 7.04132 7.45093 13.2623 22
658 1 -5.67108 -13.8084 5.42447 16
659 1 13.8992 6.60236 1.9362 19
660 1 11.5785 -8.79909 -5.77219 17
661 1 -2.33924 3.50083 -6.36367 19
662 1 8.64889 9.94082 -2.47843 22
663 1 9.07598 11.3161 5.23101 18
664 1 4.06345 -0.0176961 -13.8766 20
665 1 -4.40873 3.28819 7.51233 18
666 1 6.35638 13.9812 -3.01889 18
667 1 12.5474 9.44969 2.72074 20
668 1 -4.27597 -5.45077 -1.22039 18
669 1 -1.3074 -0.472063 -16.4992 16
670 1 -8.59995 14.4841 -0.954899 13
671 1 16.7827 -2.9093 -8.33104 7
672 1 7.5641 6.93034 2.55412 22
673 1 15.4607 6.94581 -11.3748 9
674 1 7.79832 15.0848 0.0185161 21
675 1 -2.16503 8.45501 5.80568 19
676 1 -5.70718 6.31523 2.20132 20
677 1 7.31031 8.02587 -8.46373 19
678 1 9.6802 0.947898 15.4478 16
679 1 11.0882 -3.17892 15.071 10
680 1 -0.724708 -7.00425 10.0938 17
681 1 -1.61666 10.8643 -15.4121 11
682 1 6.75458 13.5432 11.5425 14
683 1 12.6618 -5.43587 -10.8114 16
684 1 3.98186 2.75842 9.92542 23
685 1 7.43431 9.41453 -5.25836 21
686 1 9.37382 9.69234 8.0025 20
687 1 15.2459 -6.68505 -3.62481 12
688 1 6.01319 5.68884 16.3985 18
689 1 -10.4992 -3.84616 1.7104 22
690 1 3.57127 -14.4886 3.88682 14
691 1 0.755104 -2.55054 -6.32618 22
692 1 -7.13128 15.7565 1.8882 10
693 1 -2.9118 0.362258 7.30731 17
694 1 4.07859 -4.85941 -3.80547 20
695 1 5.78532 11.764 5.10609 20
696 1 -11.118 0.409137 -1.10621 19
697 1 4.25552 4.30789 18.7448 22
698 1 -4.23661 8.8017 -15.5006 12
699 1 -4.20098 12.3867 -13.4708 12
700 1 4.59852 -17.8454 0.507775 10
701 1 10.7082 9.34372 -4.95897 20
702 1 4.84105 -6.51733 4.6333 18
703 1 -1.9112 6.78858 2.71053 19
704 1 -11.6778 5.13571 14.3972 13
705 1 7.29158 -0.526377 -14.1858 19
706 1 7.13634 -14.2165 5.3345 13
707 1 2.16342 16.0658 2.25176 15
708 1 -0.347189 -0.751496 15.6287 15
709 1 -7.43179 -6.80393 -5.45983 20
710 1 -4.07218 -7.84594 -16.151 6
711 1 -4.77133 -12.4855 -3.35997 13
712 1 0.342366 15.9584 -3.79395 20
713 1 4.52293 -4.24165 -8.67899 24
714 1 0.721995 12.8084 6.68149 19
715 1 10.4639 -8.394 -0.942643 17
716 1 10.5504 -13.7711 -0.524396 18
717 1 4.4772 -4.671 6.81679 20
718 1 14.907 0.932372 -12.2738 11
719 1 8.83992 -14.9886 -5.62447 13
720 1 -11.961 2.81619 12.9056 14
721 1 1.10875 -13.0721 5.09154 18
722 1 -6.05009 -9.80224 -4.7898 16
723 1 -11.5866 2.41715 16.5585 9
724 1 -1.96946 -17.7026 3.24437 8
725 1 17.2962 4.2086 -6.95772 11
726 1 -2.4013 18.7738 9.35347 10
727 1 -7.80812 2.49629 7.56143 18
728 1 -7.14852 6.70009 5.2209 19
729 1 9.26914 -0.488252 4.91597 21
730 1 -7.66398 -1.5467 -8.67977 20
731 1 -1.18001 9.94936 -2.47702 20
732 1 7.52467 3.24546 -10.6053 20
733 1 10.8133 10.5339 16.0571 10
734 1 11.8813 11.0755 -7.51979 13
735 1 -14.042 4.36294 -9.36421 7
736 1 -10.958 -6.99971 -5.15656 13
737 1 1.25036 6.21225 19.1562 14
738 1 5.88151 6.2612 -10.9596 23
739 1 15.0019 11.2314 11.3831 9
740 1 -4.83812 3.90247 12.4296 22
741 1 0.0801837 -16.4606 -3.43924 13
742 1 -3.48361 -15.5059 7.60245 12
743 1 -3.96452 -7.45872 6.16393 21
744 1 16.931 9.94016 7.91919 10
745 1 2.5017 -5.20986 -6.30972 21
746 1 -4.60613 11.5938 0.582076 20
747 1 7.43799 8.74706 0.246659 22
748 1 -7.96974 -4.09488 3.81696 20
749 1 13.0124 8.98367 -9.80249 16
750 1 3.15087 -15.1392 -7.65722 12
751 1 7.85967 -16.5922 0.764758 12
752 1 9.60323 -16.1861 -2.28876 11
753 1 8.59744 5.14302 -8.50139 20
754 1 4.30807 19.2496 -2.34533 13
755 1 -4.69779 2.20705 -13.9594 23
756 1 0.667713 2.78377 14.5913 18
757 1 2.44324 2.97072 -14.0343 18
758 1 -8.39583 -1.85609 -13.3728 13
759 1 -13.0373 1.75912 -3.61605 11
760 1 3.0203 14.4381 -10.3109 15
761 1 11.2945 2.48823 4.91228 21
762 1 -4.08951 -5.00527 -11.8045 19
763 1 -6.00654 -4.69113 0.970977 21
764 1 14.5742 6.13705 -8.8657 17
765 1 12.8627 -6.39098 -2.05755 18
766 1 -3.85119 9.93904 12.3815 18
767 1 11.8305 -11.3465 5.61557 8
768 1 16.6393 -1.13766 0.185569 9
769 1 10.5668 -7.52294 10.8161 12
770 1 2.72234 11.1319 5.42204 17
771 1 -6.06629 3.06681 17.5208 13
772 1 -3.98689 6.88192 10.8916 19
773 1 -4.21637 -13.6187 10.6757 11
774 1 8.78065 3.95557 2.36954 22
775 1 8.05432 10.1028 15.7767 21
776 1 -9.40975 -2.35421 -1.58224 21
777 1 9.31828 -5.38372 -1.32317 18
778 1 -4.40382 13.7181 -5.67842 19
779 1 4.40241 8.7076 5.79441 19
780 1 2.87845 -11.5217 8.83184 15
781 1 10.8219 1.93271 9.85211 17
782 1 0.585205 15.2913 4.99369 17
783 1 0.0357538 -10.6066 6.78475 18
784 1 -9.18474 1.06874 1.41 21
785 1 6.27689 5.79909 10.3227 20
786 1 -12.0386 -4.15926 -5.88966 14
787 1 0.837634 14.6249 16.4832 12
788 1 9.72652 17.8142 1.0879 10
789 1 -10.4951 -15.3505 3.74109 5
790 1 -0.607793 -14.4372 9.31276 13
791 1 7.07722 -3.65913 9.56145 22
792 1 10.042 -4.29183 9.12119 18
793 1 6.28507 9.72879 7.92697 20
794 1 -1.41427 11.8376 -0.335439 19
795 1 1.88612 -9.92468 -8.73942 24
796 1 -0.228494 0.978331 -11.4912 20
797 1 -4.281 2.19818 15.3542 17
798 1 -3.15158 17.484 6.08549 13
799 1 13.7062 -0.270728 9.43867 14
800 1 3.93378 9.38915 -5.71743 18
801 1 0.224379 9.05045 17.5318 15
802 1 9.48859 5.96128 10.2889 18
803 1 9.30525 0.710966 -11.4292 18
804 1 -5.36756 -9.15755 3.69423 20
805 1 -2.95612 -1.9696 -11.8487 22
806 1 15.7055 1.81989 10.1442 10
807 1 5.80001 -0.0220091 -11.2885 24
808 1 -0.416374 2.55082 19.7722 10
809 1 13.7333 -11.1801 0.310978 13
810 1 1.75013 9.69572 -16.9543 10
811 1 -0.553253 -7.41166 -4.01326 21
812 1 14.9714 3.48463 -11.0561 16
813 1 13.7494 0.129457 2.10203 16
814 1 2.10604 -5.41919 14.355 13
815 1 -2.7814 -9.89407 -9.68629 19
816 1 8.62178 16.5379 -2.08886 14
817 1 -1.42241 -5.53173 4.28732 21
818 1 -10.8152 6.60525 5.40397 16
819 1 14.0216 1.64401 -3.81186 19
820 1 16.1453 8.36288 2.84016 15
821 1 4.38578 -4.22153 -16.5463 14
822 1 -6.00196 16.5434 7.6534 10
823 1 17.5855 7.14614 5.61675 11
824 1 9.37508 12.1362 -4.67464 18
825 1 5.81311 2.32243 -13.3807 20
826 1 11.503 -3.45801 -2.2228 18
827 1 -7.58077 5.93425 -0.874003 19
828 1 14.6782 8.07196 4.99689 20
829 1 -12.4509 -5.53596 0.426353 15
830 1 -2.85735 9.09211 -12.5154 23
831 1 7.58375 2.61286 9.91016 24
832 1 -10.5989 -2.12318 -8.31791 21
833 1 -9.74573 3.72089 10.2633 20
834 1 -0.800168 4.38443 -8.84458 22
835 1 16.548 -5.91949 -6.59948 9
836 1 -9.36529 -9.56884 -4.39771 11
837 1 15.5744 -7.82201 -0.425329 13
838 1 -12.8527 5.41091 0.890607 13
839 1 -9.44301 -4.62394 -4.126 21
840 1 14.5306 8.74098 9.88219 15
841 1 -2.95585 -10.15 11.4274 15
842 1 7.86628 0.273484 17.9143 14
843 1 12.5603 -5.41415 12.5477 10
844 1 10.9582 -5.33745 2.01142 17
845 1 -8.34574 5.83264 7.90239 20
846 1 12.1649 13.2556 10.8907 14
847 1 3.83978 7.66741 -8.23268 18
848 1 -0.831138 -6.5885 -16.7443 11
849 1 -2.81266 13.0281 11.9409 17
850 1 -10.3225 -10.3715 8.42603 10
851 1 9.92384 12.8219 -1.80346 19
852 1 4.06653 13.5606 14.844 20
853 1 10.8022 -2.5293 -5.8496 23
854 1 5.75496 -6.5385 9.36435 19
855 1 -3.07517 13.2092 -9.79812 19
856 1 2.44006 11.0094 -8.24866 16
857 1 -1.70844 -2.19554 12.3307 20
858 1 17.0774 2.60845 4.75054 10
859 1 3.00406 -7.00876 -9.19214 24
860 1 10.9941 14.9439 0.0750259 14
861 1 -9.3325 7.96159 -3.18568 21
862 1 -5.06311 -8.09033 13.4812 12
863 1 10.3868 10.5176 -11.1628 11
864 1 5.79762 -0.564897 9.89884 22
865 1 3.40684 -16.7412 -1.98459 13
866 1 -3.36658 15.9002 8.92804 17
867 1 -12.6173 4.17918 -5.80903 13
868 1 11.7003 3.28169 -13.1005 17
869 1 5.83128 -11.0842 -12.2234 9
870 1 -11.1509 6.41036 -1.00715 21
871 1 12.6388 13.1834 -4.04394 8
872 1 -5.32792 -2.54422 5.73652 20
873 1 10.5658 -1.74807 -15.112 12
874 1 -10.0505 -8.62784 -7.56344 14
875 1 2.46943 -11.3409 -0.726306 21
876 1 0.419476 11.8777 19.2168 8