ITEM: TIMESTEP
280000
ITEM: NUMBER OF ATOMS
2000
ITEM: BOX BOUNDS pp pp pp
-30.0 30.0
-30.0 30.0
-30.0 30.0
ITEM: ATOMS id type x y z Coordination
1 1 -14.0067 -2.96179 -2.08455 19
2 1 -10.5785 -10.1194 6.12839 21
3 1 -15.1189 8.5305 9.32961 8
4 2 -13.434 -7.46834 -12.2549 8
5 2 -12.1298 6.06084 7.60448 17
6 2 -16.3109 -0.242895 3.49158 15
7 1 -5.48373 -15.1249 -4.40087 14
8 1 -3.35856 -17.1953 -3.64488 10
9 1 -3.07859 -15.5334 0.916678 12
10 2 -1.48635 -16.3747 -0.224592 12
11 2 6.11732 -8.80306 -12.1654 15
12 2 0.11456 -16.6087 -5.63924 10
13 2 5.05595 12.3145 -8.98894 17
14 1 -4.53945 5.67523 -17.8337 12
15 1 -4.05495 5.40706 -14.9368 16
16 2 -6.1939 -1.16029 -16.1447 11
17 1 -11.9141 -13.5671 5.87746 11
18 1 -10.5006 -4.72189 -15.9686 11
19 1 -13.6581 -3.99941 -4.38053 19
20 1 -12.2106 -6.48083 -3.62471 21
21 1 -13.7439 -11.0572 0.86564 10
22 1 -10.9776 -2.43643 -10.9467 20
23 1 -9.46115 -11.6681 -2.71631 17
24 1 -15.2675 -6.68665 -5.48591 15
25 1 -17.8659 -3.78111 3.09403 6
26 1 -7.09492 -3.01215 -16.0386 10
27 1 -13.8351 -3.67559 -11.0762 13
28 1 -14.6233 4.37062 -10.6886 9
29 1 -13.8512 -8.77395 -7.68553 12
30 1 -11.3154 -5.57259 -12.5435 16
31 1 -12.2744 -1.83542 -13.8963 12
32 1 -13.7403 2.40476 -8.99944 17
33 1 -12.8117 -0.157876 -8.08858 18
34 1 -13.8755 -8.92132 -3.94415 12
35 1 -10.495 -9.24703 2.82875 15
36 1 -11.2204 1.83962 -7.21816 20
37 1 -12.3118 -0.352623 -3.12524 20
38 1 -17.0863 -3.80369 -6.59157 8
39 1 -9.51135 -12.0197 -9.4186 12
40 1 -15.0032 -7.64335 5.80478 9
41 1 -10.344 -11.4593 -12.4676 12
42 1 -10.6464 -8.72622 -3.97524 19
43 1 -12.161 -10.3619 -5.92586 15
44 1 -8.73452 -15.9291 -0.509985 8
45 1 -6.72957 -12.4581 -3.88866 19
46 1 -9.35482 -12.3619 8.21413 19
47 1 -5.34463 -8.14652 -14.2698 15
48 1 -9.34885 -9.3186 -7.35446 17
49 1 -9.69841 -12.8288 -6.42934 12
50 1 -10.5629 -6.82676 -9.07042 18
51 1 -7.38075 -9.02253 -17.1398 6
52 1 -11.2584 -3.57509 -7.47518 19
53 1 -14.8084 -6.88089 -11.2765 8
54 1 -6.51483 -6.60261 -11.6048 18
55 1 -7.06052 -6.53029 -7.66409 21
56 1 -11.7098 -9.87055 -9.40803 13
57 1 -7.88662 -10.1493 -5.29658 17
58 1 -9.81149 -5.69343 -5.69018 21
59 1 -6.8371 -6.6455 -4.49773 20
60 1 -9.79398 -6.21102 -2.10731 22
61 1 -7.99223 -9.04765 -2.30831 21
62 1 -1.79182 4.07574 -16.2329 14
63 1 -1.92839 7.16424 -15.7306 12
64 1 -9.30489 -0.207459 -11.9981 23
65 1 -6.95374 -5.15421 -14.2855 13
66 1 -11.8529 -8.56452 -12.724 10
67 1 -8.50727 -7.67476 -13.1365 16
68 1 -0.64864 -2.73364 -15.4929 13
69 1 -15.7313 -5.85657 -8.81582 11
70 1 -6.95019 -0.291763 -10.5083 19
71 1 -13.4612 -0.0409263 -11.3117 13
72 1 -7.61114 -3.43728 -9.19939 19
73 1 -9.75363 -0.912752 -8.74457 19
74 1 -6.90197 -1.41995 -7.21047 19
75 1 -9.98944 -0.833649 -5.4526 20
76 1 -8.01997 -3.70099 -5.62199 21
77 1 -11.1404 -3.25169 -4.01197 22
78 1 -6.78913 -1.45976 -3.68977 20
79 1 -9.69286 -1.29585 -1.92521 19
80 1 -7.73169 -4.31498 -2.63118 21
81 1 -2.28707 -14.1034 -7.9619 15
82 1 -4.57994 -16.4358 -6.91532 9
83 1 6.95967 -13.4659 -6.76027 10
84 1 -6.31596 -13.4957 -7.44659 14
85 1 0.709429 -14.042 -8.60029 14
86 1 -7.99978 -13.5623 -13.5322 9
87 1 -0.307467 -11.5665 -7.27842 23
88 1 -3.76659 -11.4613 -5.88532 20
89 1 2.85306 -11.7179 -7.68002 16
90 1 -5.92334 -13.876 0.977061 14
91 1 -2.18927 -14.4717 -1.68335 18
92 1 -3.91971 -12.0912 -2.20341 18
93 1 -0.00550782 -16.7926 -1.44241 11
94 1 6.6703 -8.04839 -5.09217 17
95 1 -5.46571 -13.1612 -13.9316 8
96 1 -0.161508 -10.3274 -12.9113 14
97 1 -5.81839 -15.1348 -10.9668 7
98 1 -7.83968 -10.3224 -14.5115 14
99 1 -9.45304 -8.95269 -11.0027 16
100 1 -6.93001 -10.2431 -11.0775 16
101 1 -1.62004 -11.9992 -10.6731 16
102 1 -0.73115 -6.78237 -10.3427 19
103 1 -3.89164 -6.84734 -8.89004 19
104 1 -4.48216 -12.6522 -9.59908 14
105 1 -5.22865 -9.78267 -7.44045 17
106 1 -0.952819 -6.38778 -7.34213 20
107 1 -3.8057 -6.90906 -5.84859 20
108 1 -1.6947 -9.17904 -5.20916 20
109 1 -4.79865 -9.52714 -4.02231 20
110 1 -0.810906 -6.38907 -4.1497 22
111 1 -3.92135 -6.83831 -2.36093 22
112 1 -2.19321 -9.85971 -2.31504 21
113 1 -7.40849 -3.04117 -11.9929 17
114 1 2.02707 3.63846 -15.8153 19
115 1 -9.0679 -3.09001 -14.0917 16
116 1 -4.54282 -9.17226 -10.6249 17
117 1 -9.59724 -6.69199 -18.2434 5
118 1 0.462313 -2.07589 -12.9746 19
119 1 -2.9485 -1.75017 -12.9769 18
120 1 -1.52263 -4.39262 -11.8778 22
121 1 -4.55577 -4.28494 -11.0557 18
122 1 -0.774653 -1.54417 -10.3465 23
123 1 -3.97969 -1.20388 -9.13661 18
124 1 -1.92677 -3.86944 -8.88722 19
125 1 -4.7995 -3.89882 -7.40923 20
126 1 -1.19824 -1.26612 -6.87194 22
127 1 -3.94673 -1.5493 -5.49512 23
128 1 -2.14557 -4.38041 -5.98511 20
129 1 -4.81398 -4.23714 -4.19101 20
130 1 -0.765335 -1.03744 -3.75584 19
131 1 -3.81491 -0.716074 -2.24615 20
132 1 -1.96578 -4.34925 -2.15532 23
133 2 -11.3178 -0.196051 -13.7321 12
134 2 -16.1552 -6.18106 5.84934 9
135 2 -9.57683 -13.1322 -13.1211 9
136 2 -12.3058 -8.34297 -3.1304 19
137 2 -12.3472 -13.4866 7.67337 8
138 2 -12.6354 -10.2718 -7.75115 13
139 2 -9.70593 -13.4121 11.6794 12
140 2 -11.4279 -12.5401 -2.43285 11
141 2 -7.73582 4.19808 -8.38555 23
142 2 -6.45532 -9.17257 -15.5113 9
143 2 -15.1529 -5.30532 -10.4921 9
144 2 -9.58491 -10.1638 -13.6187 14
145 2 -15.7911 -4.34391 -7.77121 14
146 2 -11.0082 -1.27369 -7.18891 20
147 2 -13.4599 -6.10608 -5.10023 19
148 2 -14.3006 -2.22291 -3.91627 19
149 2 -11.3759 -12.9109 -5.46454 9
150 2 -12.8477 -4.69405 -2.68761 21
151 2 -10.3049 -6.45902 -4.09105 20
152 2 -13.0272 -1.25913 -1.49612 18
153 2 0.157521 -8.51482 -9.5059 21
154 2 -12.3401 -3.77183 2.31868 18
155 2 -14.4523 -7.05504 -7.92785 11
156 2 -7.94251 -12.2372 -5.5207 16
157 2 -8.8506 -5.86731 -8.79443 19
158 2 -5.90076 -14.0673 -9.30397 9
159 2 -12.6147 -12.8092 0.862917 9
160 2 -7.29443 -15.3694 -1.38274 12
161 2 -4.52472 -11.5622 -7.84676 17
162 2 -6.26375 -14.0895 -12.6271 9
163 2 -7.49377 -13.1331 0.465145 14
164 2 -8.74529 -11.2817 -10.8868 14
165 2 -10.1319 -8.58497 -9.06963 16
166 2 -13.9194 -8.47437 -5.66688 13
167 2 -2.70203 -13.2639 -9.79455 14
168 2 -10.9872 -3.44338 -14.3532 11
169 2 -9.44791 -3.20799 -10.0226 20
170 2 -12.9273 -10.8087 -4.29221 13
171 2 -6.99572 -9.63262 -7.13475 18
172 2 -9.87429 -14.4696 0.107911 11
173 2 -7.96845 -6.00438 -6.16411 20
174 2 -10.1216 -8.92329 -5.72104 20
175 2 -6.6314 -8.80389 -4.11694 19
176 2 -7.74187 -11.3814 -2.49518 16
177 2 -10.1849 -3.73185 -5.67984 19
178 2 0.483145 -1.3163 -14.862 17
179 2 -10.6059 -5.65323 -17.3908 5
180 2 -0.248945 9.2226 -15.2001 9
181 2 -7.17685 -0.976091 -12.3881 18
182 2 -7.20586 -12.2806 -14.5557 9
183 2 -8.18316 -7.6951 -17.9378 4
184 2 -9.11975 -4.02534 -12.3181 20
185 2 -12.9253 -1.79394 -12.0139 12
186 2 -7.69668 -8.27505 -11.2609 20
187 2 -12.8416 -3.71088 -6.23848 21
188 2 -6.89332 -4.49828 -10.9215 20
189 2 -12.3401 1.48962 -11.8269 17
190 2 -6.79934 -3.20703 -7.15117 21
191 2 -7.57375 -1.16658 -8.91115 19
192 2 -7.80587 -0.572459 -5.46306 23
193 2 -10.9312 -1.36903 -3.74388 20
194 2 -6.69697 -3.49588 -4.17471 20
195 2 -9.71948 -4.00795 -2.16094 20
196 2 -7.68069 -1.0274 -2.08632 19
197 2 -5.77949 -14.7411 -6.12902 13
198 2 -11.4037 -5.70234 -7.76904 17
199 2 -4.70538 -16.744 -4.84875 8
200 2 1.55381 -6.29972 -13.5897 15
201 2 1.92229 -13.9298 -10.1453 9
202 2 -3.99238 -14.6852 -0.721451 16
203 2 -4.8084 -11.4748 -4.24992 21
204 2 -1.79753 -11.8796 -6.0257 14
205 2 -6.75556 -9.49339 -0.725467 19
206 2 2.79371 -14.5157 -4.40982 15
207 2 -2.05348 -12.219 -1.92585 19
208 2 4.20785 -16.165 -1.03783 14
209 2 -9.30526 -11.3031 -7.73624 15
210 2 -3.74662 -12.7031 -13.5667 8
211 2 -5.31029 2.33492 -17.2744 12
212 2 -11.9167 -4.56794 -11.1126 17
213 2 -2.44989 -8.45896 -10.722 18
214 2 -4.11117 -8.71379 -8.70467 17
215 2 -2.35976 -15.5877 -3.37533 16
216 2 -3.42252 -3.5013 -12.3515 19
217 2 -1.53306 -6.17436 -12.2254 20
218 2 -0.276486 -11.8751 -9.16896 20
219 2 -1.81325 -5.95287 -8.84102 23
220 2 -5.19187 -5.94892 -7.6108 22
221 2 0.0985022 -8.2187 -5.11853 18
222 2 -3.7402 -9.08923 -5.73022 21
223 2 -1.97457 -6.65468 -5.73442 22
224 2 -4.58484 -6.26866 -4.26251 21
225 2 -0.703727 -10.5039 -3.93673 19
226 2 -4.03062 -9.04849 -2.09686 20
227 2 -1.84134 -6.47836 -2.36598 22
228 2 -9.62187 1.78437 -12.3989 19
229 2 -2.66149 -2.76627 -14.977 13
230 2 -3.38004 1.61571 -12.2188 16
231 2 -0.0530121 3.25462 -16.0406 15
232 2 -4.07698 -8.77116 -12.794 16
233 2 -6.78251 -7.02946 -13.9255 14
234 2 -10.9929 -10.2283 -11.0624 15
235 2 -1.09581 -0.991118 -12.2049 21
236 2 -4.37909 -0.950262 -13.9873 17
237 2 -0.387288 -3.44978 -10.6138 21
238 2 -3.79456 -3.39267 -9.06497 20
239 2 -1.81188 -1.05223 -8.80284 21
240 2 -5.02069 -0.679516 -7.29508 21
241 2 -0.78076 -3.77025 -7.05558 21
242 2 -3.83414 -3.82547 -5.79339 19
243 2 -2.0621 -0.915192 -5.19419 21
244 2 -4.9753 -0.857895 -4.06338 19
245 2 -1.55406 -3.15655 -3.9522 21
246 2 -4.06468 -4.05142 -2.33664 20
247 2 -1.84255 -0.691416 -2.32244 20
248 1 -11.574 -13.5297 -0.801101 11
249 1 -5.74242 -10.8905 3.63981 17
250 1 -13.9146 -3.82581 4.8767 16
251 1 -12.7557 -7.47891 3.4362 15
252 1 -12.1 -10.6467 -2.24605 15
253 1 -12.7406 -5.85549 6.25318 18
254 1 -13.3125 -10.7498 4.34961 10
255 1 -16.8479 -4.39101 6.05318 9
256 1 -11.1197 -12.3506 11.1397 14
257 1 -16.9537 1.67737 8.86947 12
258 1 -12.5678 -8.51949 8.48726 17
259 1 -14.4068 -5.40846 -1.62544 15
260 1 -12.2432 -0.436742 0.147608 22
261 1 -16.1744 -3.42424 0.0189658 10
262 1 -9.28681 -14.6622 10.3595 9
263 1 -12.6571 -8.03106 -1.22685 16
264 1 -12.5657 -1.91232 3.19036 16
265 1 -14.4686 -0.161183 4.5237 19
266 1 -13.6338 -4.89906 1.99927 12
267 1 -15.5787 -1.23558 7.93601 16
268 1 -12.6765 -1.29295 6.54746 20
269 1 -10.1345 -2.01893 14.5054 9
270 1 -10.0581 -4.42141 6.52775 16
271 1 -9.2555 -2.05482 11.1172 19
272 1 -4.69855 5.55541 11.2751 16
273 1 -16.0846 2.73239 11.092 9
274 1 -7.06617 -11.4009 -0.557539 18
275 1 -11.6235 -13.1936 2.72365 11
276 1 -8.816 -14.0462 1.70518 12
277 1 -3.51601 -14.2945 3.64854 16
278 1 -4.5326 -17.0968 5.80129 7
279 1 -7.4187 -13.9615 7.50471 11
280 1 -7.29281 -8.61504 10.0807 21
281 1 -9.6289 -9.63261 9.33009 20
282 1 -2.19185 -13.184 13.4442 13
283 1 -10.5473 -9.13325 0.0176534 17
284 1 -6.58199 -6.13875 -0.745251 21
285 1 -9.92799 -6.69246 1.05 18
286 1 -7.54809 -9.10443 1.06839 18
287 1 -12.7994 -11.7579 8.19321 14
288 1 -6.78296 -6.04119 2.82171 23
289 1 -9.52293 -7.09203 4.64004 21
290 1 -7.95224 -9.23135 3.74603 18
291 1 -7.0366 -12.045 9.94178 18
292 1 -6.7459 -7.3288 5.82682 21
293 1 -6.63252 -9.82837 7.84978 15
294 1 -7.97369 -13.0379 12.9181 11
295 1 -12.3916 -5.72333 10.845 11
296 1 -7.3775 -6.02581 10.7922 18
297 1 -8.80961 -12.4214 4.95089 16
298 1 -6.87784 -6.64745 13.3239 15
299 1 -10.7379 -9.81458 12.8682 13
300 1 -10.9281 -3.7626 -0.299701 20
301 1 -6.67731 -0.952407 -0.179591 23
302 1 -9.48289 -1.26507 1.59658 21
303 1 -7.85673 -3.75943 0.965319 20
304 1 -10.6421 -4.55895 3.12449 20
305 1 -6.47077 -1.03896 3.15629 24
306 1 -9.80342 -1.37817 4.80329 21
307 1 -7.6461 -4.10254 4.54183 21
308 1 -14.1566 -3.87969 8.48206 13
309 1 -6.94889 -1.13812 6.24423 22
310 1 -9.93285 -1.40232 7.79906 20
311 1 -7.34417 -3.73555 8.22027 22
312 1 -14.8468 0.301268 11.7049 10
313 1 -6.84356 -1.01458 9.70641 18
314 1 -7.97107 -9.78797 12.5351 15
315 1 -9.59114 -7.00988 7.75374 21
316 1 -4.25168 -4.34767 13.2641 15
317 1 -4.25076 -1.93847 15.614 11
318 1 -4.08502 -6.31391 15.485 11
319 1 -13.22 -9.31018 11.1528 10
320 1 -5.61219 -14.8348 -1.64462 16
321 1 0.803944 -8.85512 -0.418286 17
322 1 -4.03125 -11.8384 1.1185 20
323 1 -0.055576 -15.2091 0.975392 16
324 1 -3.25958 -17.0247 9.06793 5
325 1 -0.976362 -11.7927 -0.35515 18
326 1 -0.623622 -12.6438 2.53129 18
327 1 6.22384e-04 -13.4862 7.5517 19
328 1 -5.24847 -14.457 13.025 6
329 1 -0.011871 -15.3268 4.05525 12
330 1 -3.35335 -14.3517 7.30045 13
331 1 2.04216 -15.6938 6.9518 10
332 1 -1.11954 -16.7046 12.3581 9
333 1 -1.65527 -11.927 10.3673 15
334 1 -2.01786 -10.9162 7.66975 18
335 1 -4.97047 -8.647 -0.411681 21
336 1 -1.18896 -7.18368 -0.563385 23
337 1 -3.96876 -6.18422 1.03202 21
338 1 -2.01434 -9.57238 1.15084 19
339 1 -4.62967 -8.58763 2.67946 25
340 1 -1.09396 -6.8055 2.57576 23
341 1 -4.35783 -6.50198 4.56937 20
342 1 -2.21198 -9.1946 4.23235 20
343 1 -4.2716 -9.64117 5.86427 19
344 1 -1.34296 -7.04068 5.99227 20
345 1 -5.45882 -6.90443 8.08246 20
346 1 -2.22096 -6.66027 9.25383 18
347 1 -0.108769 -16.3368 15.7619 5
348 1 1.14384 -6.55756 11.1472 20
349 1 0.547267 -8.84415 9.7955 20
350 1 -6.27326 -9.32439 15.2222 10
351 1 -4.86333 -11.3077 12.5353 16
352 1 -4.44602 -7.38655 11.8918 21
353 1 -1.07328 -7.57441 12.0266 18
354 1 0.990692 -15.8662 9.69133 11
355 1 -4.92042 -3.59166 -0.514237 21
356 1 -0.774929 -1.53771 -0.363588 21
357 1 -4.04194 -0.843655 1.09593 23
358 1 -2.29954 -4.21724 1.25652 23
359 1 -4.70531 -3.55618 2.68943 22
360 1 -1.47247 -1.33124 3.11372 23
361 1 -3.92358 -1.59654 4.73352 22
362 1 -2.10465 -4.10399 4.51821 21
363 1 -5.27408 -4.24973 6.50542 18
364 1 -1.26077 -0.923089 6.0155 20
365 1 -4.00349 -1.38727 7.79807 22
366 1 -2.25594 -3.85213 7.72226 21
367 1 -4.65665 -3.86725 9.77343 19
368 1 -1.3345 -1.46622 9.54505 24
369 1 -4.2359 -1.60151 11.6421 17
370 1 -1.87496 -4.3478 11.2558 19
371 1 -1.08597 -4.62951 16.2726 10
372 1 -1.38382 -2.07117 13.4965 21
373 1 -1.04632 -1.61471 16.6735 15
374 1 3.86827 -4.02015 18.2176 10
375 2 -12.6798 -12.6135 4.05954 12
376 2 -12.5415 -10.7873 6.46507 15
377 2 -14.2375 -4.94586 0.254093 11
378 2 -10.54 -8.80766 7.7133 21
379 2 -12.3459 -9.33428 3.3635 16
380 2 -15.5554 -3.74783 7.40387 14
381 2 -13.8117 -1.80883 4.80251 19
382 2 -16.5514 0.847601 10.5372 9
383 2 -4.73515 -15.7365 4.47773 12
384 2 -12.1391 -4.07237 9.96216 14
385 2 -14.439 -7.4002 -1.66062 12
386 2 -10.749 -7.01203 3.20089 19
387 2 -17.5101 -4.0963 1.217 6
388 2 -13.5764 -0.893415 1.91092 16
389 2 -13.4506 1.08299 5.87221 22
390 2 -9.69123 -13.0519 3.26156 14
391 2 -13.6443 -1.44104 8.28329 18
392 2 -16.9692 -3.12493 4.49886 11
393 2 -13.5833 -0.677473 10.7695 17
394 2 -12.3611 -10.0098 -0.214273 14
395 2 -11.0959 1.87268 11.6782 17
396 2 -9.04815 -8.86563 11.2235 23
397 2 -10.0384 7.12882 5.24021 20
398 2 -16.1652 4.69789 6.77795 11
399 2 -10.12 -12.5211 6.47529 17
400 2 -5.21224 -12.0341 -0.659322 19
401 2 -4.27646 -11.6579 5.08371 21
402 2 -9.38465 -8.62225 1.60268 16
403 2 -7.46139 -13.6583 5.65542 14
404 2 1.83334 -10.1555 -7.51854 18
405 2 -3.82655 -16.1828 7.54878 7
406 2 -8.14716 -10.5895 8.46682 19
407 2 -1.18015 -12.9922 11.9332 13
408 2 0.622123 -15.0606 8.1624 13
409 2 -10.8316 -7.2471 -0.532676 21
410 2 -7.78797 -6.40002 -2.75434 21
411 2 -10.2012 -9.74741 -2.34146 18
412 2 -7.16682 -7.00623 0.756234 22
413 2 -13.4322 -5.67366 4.30137 14
414 2 -6.38708 -9.66791 2.3759 19
415 2 -7.22933 -14.9828 2.24516 11
416 2 -7.45707 -7.07089 4.26631 22
417 2 -12.9116 -4.12479 6.74236 16
418 2 -5.94407 -9.03075 6.01948 20
419 2 -6.95554 -14.7459 12.5169 8
420 2 -7.3797 -7.57676 7.88754 22
421 2 -13.7213 -10.0953 9.43645 10
422 2 -12.2292 -10.7293 11.9869 12
423 2 -8.26712 -13.8273 8.9691 13
424 2 -8.03318 -5.62328 12.3383 14
425 2 -10.6565 0.793642 14.6849 9
426 2 -15.8687 -0.288486 6.21375 16
427 2 -4.88113 -2.43524 13.7956 12
428 2 -10.5116 -1.65481 -0.103404 21
429 2 -7.17449 -4.31142 -0.703478 20
430 2 -9.86392 -4.48884 1.2249 19
431 2 -7.72421 -1.83477 1.1936 21
432 2 -10.7847 -0.621836 6.18435 22
433 2 -6.62646 -4.23653 2.39526 20
434 2 -9.57586 -4.29141 4.63918 18
435 2 -7.97196 -0.818273 4.66371 21
436 2 -6.62674 1.02498 9.69524 17
437 2 -7.19356 -3.25396 6.19806 19
438 2 -10.446 -6.27259 6.26021 22
439 2 -7.83145 -1.27344 8.00693 20
440 2 -9.44556 -11.0655 13.3276 10
441 2 -4.00226 -3.54648 11.6091 18
442 2 -9.72678 -6.494 9.71824 21
443 2 -7.56507 -8.46775 14.0437 16
444 2 -11.002 -6.08243 12.2395 12
445 2 -5.81483 -4.98849 8.85502 16
446 2 -4.85709 -6.07303 13.4751 17
447 2 -13.6685 -7.21374 7.11099 13
448 2 -5.26607 -13.6196 -3.14043 17
449 2 0.158594 -13.4371 -4.56813 19
450 2 -7.32167 -10.8347 4.85719 17
451 2 -2.1613 -11.71 1.69999 20
452 2 -4.63366 -13.1918 2.4805 19
453 2 0.846126 -14.2864 2.47359 16
454 2 -2.58231 -17.2296 10.7366 5
455 2 0.974913 -11.5823 3.34128 19
456 2 -2.8992 -10.9577 9.55279 12
457 2 -1.91433 -12.8037 7.3846 18
458 2 -6.97836 -11.4682 11.7673 17
459 2 -1.61854 -13.5832 4.32675 17
460 2 -4.03762 -13.1061 12.9371 11
461 2 -5.32125 -13.9543 7.21426 13
462 2 -4.41583 -6.58016 -0.664539 22
463 2 -1.56938 -8.97695 -0.875462 20
464 2 -3.99528 -9.82585 1.33193 21
465 2 -2.13863 -6.18238 0.920675 21
466 2 -4.96761 -6.7993 2.7727 24
467 2 -0.934275 -8.96746 2.58596 23
468 2 -3.77922 -8.37182 4.5653 19
469 2 -2.30916 -6.09036 3.91656 23
470 2 -5.28184 -6.15923 6.35893 20
471 2 -0.306369 -8.53811 5.39081 19
472 2 -5.63385 -9.41797 9.22015 17
473 2 -1.52162 -5.79828 7.53697 18
474 2 -3.94871 -9.36233 12.2576 19
475 2 0.335155 -15.5936 11.3899 12
476 2 -10.5758 -11.2435 9.74808 22
477 2 -3.91027 -7.63897 9.02842 19
478 2 -4.87999 -8.02178 15.2091 11
479 2 -2.07572 -10.436 5.87591 16
480 2 -0.800664 -16.2469 14.1862 7
481 2 -6.18879 -7.35132 11.287 18
482 2 -4.52263 -1.62542 -0.785609 22
483 2 -0.968666 -3.70084 -0.629859 19
484 2 -4.07353 -4.02279 0.851913 21
485 2 -1.8606 -1.07354 1.13551 19
486 2 -4.7397 -1.61048 2.76649 21
487 2 -1.46883 -3.30199 2.85487 23
488 2 -4.16509 -3.58922 4.62997 23
489 2 -2.32157 -0.407502 4.60462 22
490 2 -4.92176 -0.657887 6.04093 23
491 2 -1.40701 -3.07134 6.13789 24
492 2 -4.23133 -3.45125 7.95621 21
493 2 -1.89898 -0.69336 7.82597 21
494 2 -5.03452 -1.69855 9.6964 19
495 2 -1.13626 -3.5627 9.53323 23
496 2 0.628297 -7.09608 12.817 20
497 2 -2.12737 -1.08714 11.6616 20
498 2 -4.29106 -0.0726074 15.8218 13
499 2 -0.259628 -3.19247 12.1522 16
500 2 -9.5068 1.97316 8.26846 19
501 2 -1.13629 -0.408412 14.9294 19
502 1 -9.65335 3.51455 -11.6117 22
503 1 -14.5816 -2.73856 -7.48773 16
504 1 -12.6759 -12.7724 -4.18085 8
505 1 -14.0746 1.62686 -5.57695 15
506 1 -16.9523 -3.98916 -3.45001 11
507 1 -11.1435 7.70546 -12.5433 11
508 1 -12.9422 4.30551 -6.26814 17
509 1 -15.2765 -0.81303 -5.19097 16
510 1 -15.5419 -0.70023 1.65411 15
511 1 -12.6115 3.11589 -3.6592 20
512 1 -16.8274 1.66246 -0.246449 11
513 1 -14.9282 -0.101215 -2.14215 17
514 1 -16.3683 4.61187 -8.49788 7
515 1 -15.8566 2.64738 -3.50588 14
516 1 -10.3489 7.25924 -15.218 8
517 1 -8.21388 12.9924 8.72928 15
518 1 -15.3434 5.55855 -4.74515 14
519 1 -12.6084 13.0199 4.92906 14
520 1 -11.8603 9.07258 -1.65626 18
521 1 -8.70315 12.0888 0.298333 18
522 1 8.21283 9.413 -13.4171 11
523 1 -8.079 2.30791 -13.7441 17
524 1 -2.44189 11.8564 -12.1477 14
525 1 -11.661 1.82761 -13.5716 14
526 1 -3.62902 1.16903 -14.3543 19
527 1 -6.58731 5.22825 -12.402 16
528 1 -12.6263 4.78141 -13.6856 12
529 1 -11.7218 5.54722 -10.435 17
530 1 -6.53398 3.25736 -10.4624 20
531 1 -9.77053 3.98498 -8.51156 20
532 1 -7.94817 1.73628 -8.33644 21
533 1 -11.1315 1.65524 -10.1792 18
534 1 -6.26593 3.91948 -6.93413 20
535 1 -9.87051 4.51164 -5.26859 20
536 1 -7.9538 1.87608 -5.30551 20
537 1 -10.0631 1.78021 -3.79195 19
538 1 -7.01518 4.15945 -3.60343 22
539 1 -10.0637 4.58011 -1.922 20
540 1 -7.75633 1.05605 -1.97184 20
541 1 -12.9879 -5.43037 -6.99504 18
542 1 -12.5423 8.71147 -9.20456 12
543 1 0.599435 12.0606 -7.07776 22
544 1 -7.46923 5.61493 -15.2737 13
545 1 -7.02082 9.51816 -7.25517 15
546 1 -9.37661 8.32895 -9.61386 17
547 1 -5.90517 0.56604 -16.5246 13
548 1 -10.5571 6.32925 -7.39884 18
549 1 -7.42676 6.25622 -8.95479 17
550 1 -15.483 7.05332 -7.79934 9
551 1 -11.4665 11.1019 -4.32819 15
552 1 -11.3679 13.242 -1.7667 12
553 1 -7.82459 6.93804 -5.51387 20
554 1 -10.7084 7.52541 -3.53032 16
555 1 -6.86574 9.16999 -3.58525 17
556 1 -14.476 11.2385 -3.12913 11
557 1 -7.58965 6.66991 -1.92131 17
558 1 -8.1642 11.24 -9.98221 10
559 1 -12.7823 12.1775 0.0610827 16
560 1 -13.5707 10.4833 -6.7274 9
561 1 -15.6351 8.05304 -2.07438 14
562 1 -15.5807 10.6136 -0.0850781 12
563 1 -6.48397 15.3685 -3.68671 10
564 1 -6.99586 12.2253 -5.86677 13
565 1 -7.97384 12.3067 5.05769 20
566 1 -4.62084 7.89428 -13.7499 14
567 1 0.712358 11.9292 -11.3709 15
568 1 -9.96593 4.10765 -15.3942 13
569 1 -3.94768 -1.46868 -15.6531 15
570 1 -8.82697 -4.95878 -10.6514 17
571 1 -0.593432 3.518 -13.5942 20
572 1 -3.52918 3.95953 -12.1586 19
573 1 -1.47915 0.9982 -12.2946 22
574 1 -4.57678 1.49989 -10.7079 15
575 1 -1.04854 4.24319 -10.1791 23
576 1 -3.85271 4.18522 -8.80729 21
577 1 -1.90265 1.2335 -8.64334 22
578 1 -4.46366 1.18055 -7.28374 23
579 1 -0.820234 3.80898 -7.05269 23
580 1 -3.77975 3.9573 -5.56161 21
581 1 -1.66638 0.984516 -5.40783 21
582 1 -4.9994 1.16683 -3.97191 22
583 1 -0.825284 3.87814 -3.97531 23
584 1 -3.99563 3.93487 -2.34787 21
585 1 -1.87364 1.44487 -2.37124 22
586 1 1.80512 8.72521 -15.325 10
587 1 5.18237 9.67992 -15.693 9
588 1 -1.97772 9.40992 -14.2125 11
589 1 -5.58272 10.6041 -11.6803 14
590 1 1.08254 6.22991 -13.5091 18
591 1 -4.94904 12.9924 -10.4644 11
592 1 -1.63891 6.60919 -12.4004 22
593 1 -4.92856 7.18266 -10.5285 19
594 1 2.33842 8.63063 -11.214 16
595 1 -3.52913 9.87605 -9.44757 21
596 1 -1.8117 6.84338 -9.21898 23
597 1 -4.60558 6.93302 -7.37663 18
598 1 -1.54019 9.77564 -7.23352 18
599 1 -4.18392 9.24807 -5.33182 19
600 1 -1.71031 6.50971 -5.57774 24
601 1 -4.72513 6.24091 -4.121 22
602 1 -0.780709 9.11484 -3.74581 24
603 1 -4.05354 9.66471 -2.0175 20
604 1 -2.48519 6.78749 -2.28194 20
605 1 -0.363983 14.3477 -11.0834 9
606 1 -13.739 8.07375 -5.09535 14
607 1 -10.0896 9.9257 -7.07757 13
608 1 -1.7581 12.8016 -9.04559 20
609 1 -8.32522 9.36791 -13.0233 8
610 1 -1.12435 9.50395 -10.9529 19
611 1 -3.60618 15.1882 -5.01335 12
612 1 -4.65123 12.0024 -3.91622 22
613 1 -4.19627 11.7247 -7.22677 16
614 1 -4.01077 14.8017 -1.87631 17
615 1 -7.42624 14.5209 -0.461541 13
616 1 -2.06142 11.9334 -2.02255 22
617 2 -16.3641 5.63317 -6.94849 11
618 2 -16.6932 4.96294 -3.55551 11
619 2 -13.3655 -2.91694 -9.07716 17
620 2 -13.2284 2.42974 -7.25667 17
621 2 -14.3036 -0.952701 -7.04795 14
622 2 -16.0796 -5.1881 -4.62456 14
623 2 -10.7267 3.83136 -10.2601 19
624 2 -16.343 -2.53436 -5.18494 13
625 2 -15.1919 3.30648 -8.98583 11
626 2 -15.9949 -3.8435 -1.76534 14
627 2 -12.5973 1.12984 -3.97409 23
628 2 -15.4569 6.75213 9.05869 11
629 2 -13.275 3.96856 -1.9821 20
630 2 -15.5264 0.774356 -3.72851 16
631 2 -16.5743 9.39007 0.793311 10
632 2 -17.0094 7.0564 -1.07906 11
633 2 -15.7803 -0.127925 -0.24098 15
634 2 -11.5625 6.24089 -13.9668 10
635 2 -14.4528 3.43812 -4.61304 16
636 2 -10.5854 9.55396 -2.84521 15
637 2 -14.8228 10.1347 -1.69375 13
638 2 -15.5211 5.85837 -9.70358 9
639 2 -9.37634 5.8137 -15.7161 10
640 2 -11.5289 3.40492 -14.5445 12
641 2 -11.7562 10.8349 -6.492 10
642 2 -4.59698 9.14698 -10.7405 17
643 2 -13.3129 0.710132 -9.64587 14
644 2 -10.2969 -0.420625 -10.4931 19
645 2 -3.52144 6.76481 -12.0136 22
646 2 -13.0813 4.78414 -11.8364 14
647 2 -6.96203 1.46775 -10.2896 19
648 2 -9.76449 1.42362 -8.60919 23
649 2 -11.0573 4.34866 -7.04665 18
650 2 -9.95619 6.42446 -5.35633 17
651 2 -6.68347 1.82449 -6.83947 20
652 2 -10.0437 1.30764 -5.68317 23
653 2 -7.61441 4.39524 -5.4956 23
654 2 -10.4983 3.80743 -3.63837 21
655 2 -7.80888 2.18566 -3.49164 19
656 2 -9.91356 0.651994 -1.81653 22
657 2 -7.88383 4.58195 -1.81506 19
658 2 -7.95742 3.93382 -12.3475 14
659 2 -4.36991 12.0273 -12.1908 10
660 2 -8.90231 9.79126 -11.0992 11
661 2 -14.0513 8.40849 -7.25598 11
662 2 -6.70507 6.02272 -10.7229 17
663 2 -9.53079 6.18275 -9.0332 16
664 2 -12.3582 7.28378 -1.79105 15
665 2 -10.7988 8.35677 -8.33655 13
666 2 -6.96772 7.42604 -7.38205 21
667 2 -13.4138 10.382 -4.88048 12
668 2 -7.7202 9.89447 -5.20402 17
669 2 -14.9601 7.22282 -3.81235 14
670 2 -7.21384 7.16323 -3.62038 18
671 2 -9.80123 6.56752 -2.156 18
672 2 -7.27463 9.90517 -1.92401 17
673 2 -6.80376 1.07428 -14.8174 15
674 2 -3.77472 12.24 -8.867 17
675 2 -9.49757 12.8618 -1.39449 17
676 2 -15.51 2.25634 -1.53987 16
677 2 -6.458 11.9661 -10.2057 12
678 2 -6.77739 14.0071 -5.01308 10
679 2 -10.0757 12.2852 -3.91366 14
680 2 -7.49225 14.597 -2.1765 12
681 2 -2.90466 5.59467 -16.6035 12
682 2 -1.81163 10.1368 -12.4701 18
683 2 -10.2706 -7.1912 -13.0825 14
684 2 -9.88513 8.46269 -13.4458 9
685 2 -8.68033 -4.52232 -15.2286 14
686 2 0.319759 1.35057 -13.4526 19
687 2 -6.75463 -3.20194 -13.9367 16
688 2 -1.6182 4.25216 -12.0362 21
689 2 -4.45862 3.3776 -10.4504 20
690 2 -0.636286 1.92127 -10.59 24
691 2 -3.64401 0.831359 -9.29513 17
692 2 -2.09587 3.83703 -8.51659 21
693 2 -4.3893 4.58914 -7.17746 21
694 2 -0.831561 1.61075 -6.92563 21
695 2 -3.78055 1.93181 -5.37721 21
696 2 -1.84802 4.45395 -5.67646 23
697 2 -5.09217 3.99859 -3.98266 20
698 2 -0.624974 1.79867 -4.19429 19
699 2 -4.03817 1.37548 -2.05311 19
700 2 -2.02541 4.1789 -2.39509 20
701 2 9.12644 10.4535 -12.2465 13
702 2 3.41697 9.58798 -15.0264 12
703 2 7.60482 1.84372 -11.783 20
704 2 -3.30107 8.00184 -15.0262 13
705 2 -0.739584 6.95111 -14.0037 20
706 2 -5.97456 9.02051 -13.0344 13
707 2 5.77879 9.24563 -13.7491 12
708 2 -11.8547 7.49837 -10.7152 12
709 2 -0.627592 7.43476 -11.0477 21
710 2 -3.85166 6.62552 -8.9468 19
711 2 -1.31834 12.7739 -11.0554 14
712 2 -5.94865 10.901 -7.15531 16
713 2 -1.01083 6.83453 -7.20793 22
714 2 -4.03906 7.37854 -5.21242 21
715 2 -2.58076 10.3112 -5.67993 19
716 2 -4.83911 9.89577 -3.76686 20
717 2 -1.10542 7.03354 -3.67576 18
718 2 -4.34134 6.25174 -2.26729 21
719 2 -2.16526 9.79747 -2.41489 20
720 2 1.41407 13.6428 -11.7331 10
721 2 -8.10702 3.4101 -15.264 15
722 2 8.69093 10.6905 -9.49695 19
723 2 -13.4888 6.1204 -6.19638 13
724 2 -8.5076 10.1417 -8.38284 12
725 2 -1.13528 12.5147 -3.70333 20
726 2 -1.20112 11.9373 -7.32991 19
727 2 -3.96529 12.6532 -5.68431 17
728 2 -0.175088 14.522 -8.927 12
729 2 -4.61488 15.3155 -3.5788 12
730 2 -1.92567 14.8121 -5.63351 13
731 2 -3.79804 12.2493 -2.21569 19
732 2 -5.23164 14.2042 -0.602976 15
733 1 -16.8429 -1.46849 5.18025 14
734 1 -13.8264 2.64036 -0.766866 20
735 1 -14.8771 5.26477 0.910883 14
736 1 -14.0272 1.90647 1.92059 20
737 1 -16.9763 1.61659 3.42165 11
738 1 -12.2373 4.65833 1.79937 20
739 1 -16.7996 7.5946 0.681563 10
740 1 -12.4859 2.76498 4.81665 18
741 1 -13.4794 5.56307 6.20076 16
742 1 -12.6886 3.23462 7.77434 21
743 1 -15.3026 1.49709 6.49097 20
744 1 -9.47687 2.6392 12.3353 13
745 1 -13.6899 0.388321 9.13773 22
746 1 -16.021 5.07548 8.5132 11
747 1 -17.5453 5.90431 -2.4895 7
748 1 -14.0644 11.1244 2.67342 14
749 1 -12.7458 8.14546 1.70556 18
750 1 -14.8137 7.76874 3.67388 14
751 1 -12.3452 9.68465 4.17001 21
752 1 -10.2819 15.0971 4.85085 12
753 1 -9.4695 8.93276 4.22402 20
754 1 -16.09 3.89566 4.97046 11
755 1 -11.2817 13.9726 8.19824 11
756 1 -12.9741 8.39439 6.62989 18
757 1 -10.5753 1.90835 -0.424542 22
758 1 -7.00966 4.25592 -0.16717 24
759 1 -9.60039 4.17026 1.55208 22
760 1 -7.6366 1.43414 1.49861 21
761 1 -10.871 0.931086 3.1167 22
762 1 -6.95704 3.82861 3.22843 21
763 1 -9.69875 3.60786 5.29313 21
764 1 -7.96563 1.28088 4.596 22
765 1 -10.7783 1.30324 6.70763 20
766 1 -6.38375 4.50299 6.47313 23
767 1 -12.5253 2.97196 11.287 13
768 1 -7.58511 1.85497 7.88744 19
769 1 -8.64438 0.49004 14.6477 13
770 1 -6.887 4.36553 9.92326 18
771 1 -10.6067 0.854711 9.57115 22
772 1 -10.3171 -4.69763 9.38928 19
773 1 -7.76888 5.67843 11.6837 15
774 1 -5.24101 1.57421 16.0899 10
775 1 -10.3188 7.02342 10.3371 16
776 1 -11.4885 0.498946 12.9624 16
777 1 -11.1075 6.40879 0.0884704 20
778 1 -7.00318 9.59199 -0.0584647 17
779 1 -10.3343 9.64588 1.43265 20
780 1 -7.91381 7.10008 1.38754 22
781 1 -10.4088 6.44814 3.40861 20
782 1 -6.84121 9.36488 3.14549 21
783 1 -10.734 11.1645 6.81143 19
784 1 -7.67611 6.66549 4.99113 19
785 1 -10.495 7.03992 7.19834 19
786 1 -7.14503 9.33284 6.54639 21
787 1 -5.66533 11.493 9.0696 18
788 1 -8.63742 10.1829 9.97576 15
789 1 -0.648517 9.39095 14.3676 15
790 1 -8.89567 16.1252 9.99525 5
791 1 -9.32884 3.99054 8.80194 21
792 1 -2.41043 14.9917 13.3417 5
793 1 -13.0748 6.20149 9.36608 16
794 1 -6.87199 13.3691 11.617 9
795 1 -2.18436 4.25938 10.4411 20
796 1 -9.17529 10.7475 -2.33231 15
797 1 -8.56116 13.1966 -3.34412 13
798 1 -10.8828 14.1471 1.66555 14
799 1 -7.35319 14.5183 2.84416 15
800 1 -13.454 5.81612 -2.05615 20
801 1 -10.6615 12.0608 3.42932 21
802 1 -4.29857 14.6182 7.27085 13
803 1 -13.8488 11.0835 7.49173 12
804 1 -7.17311 14.7406 6.29724 14
805 1 -5.12892 11.8816 5.91166 20
806 1 -4.85395 1.78678 -0.469226 18
807 1 -1.0114 3.94807 -0.570155 20
808 1 -4.20995 4.71102 1.09086 20
809 1 -1.79753 1.01431 0.96125 20
810 1 -5.07964 1.94431 2.61291 20
811 1 -0.681171 3.86343 2.81983 21
812 1 -4.19737 4.13548 4.51482 21
813 1 -2.14371 1.50896 4.24742 21
814 1 -4.87073 1.21364 6.24225 23
815 1 -1.03872 4.15169 5.85719 26
816 1 -3.17092 4.20064 7.89014 21
817 1 -1.61281 1.54635 7.71056 20
818 1 -4.94057 1.75995 8.9958 20
819 1 0.816465 3.33288 12.0149 19
820 1 -6.83415 1.42925 11.8079 16
821 1 -3.0 0.909943 11.8882 17
822 1 -1.26506 4.0844 15.5311 16
823 1 -3.99875 3.0656 13.4812 18
824 1 -10.1511 -7.40638 11.3114 21
825 1 -1.87265 6.12034 12.5864 21
826 1 -4.68931 6.80545 -0.527841 20
827 1 -1.16028 8.87695 -0.950494 21
828 1 -3.82067 9.12234 1.22978 21
829 1 -1.84248 6.4594 1.31068 21
830 1 -5.37234 6.57038 2.76866 22
831 1 -1.31264 9.23929 2.98445 21
832 1 -3.9893 9.09327 4.4255 20
833 1 -2.32446 6.50528 4.85857 20
834 1 -4.56191 6.86616 6.28585 22
835 1 -1.10691 9.16878 6.39257 21
836 1 -3.77604 9.55359 7.39978 20
837 1 -1.67604 6.78078 8.5748 23
838 1 -7.4237 7.0777 8.64526 18
839 1 0.941426 8.37889 12.3015 15
840 1 1.97769 11.16 13.0416 13
841 1 -4.74096 8.08054 9.69777 16
842 1 -11.6248 9.23494 9.51424 17
843 1 2.15884 9.51713 15.4048 10
844 1 0.00154564 1.36908 17.1828 13
845 1 7.61013 7.9671 14.0047 17
846 1 -4.96583 11.6763 -0.585349 20
847 1 -0.757523 14.989 -0.362463 15
848 1 -3.93523 14.6201 0.91573 16
849 1 -1.8848 12.3181 1.3243 20
850 1 -5.06161 12.1778 2.70522 19
851 1 -1.26159 14.7163 2.95455 16
852 1 -4.5623 15.3054 4.47651 14
853 1 -1.95884 11.9221 4.8219 21
854 1 -1.64302 12.4627 8.23969 17
855 1 -2.08976 8.83187 11.0519 16
856 1 -3.84317 12.2512 13.2322 7
857 1 2.07466 15.6367 4.08223 9