ITEM: TIMESTEP
72000
ITEM: NUMBER OF ATOMS
2000
ITEM: BOX BOUNDS pp pp pp
-30.0 30.0
-30.0 30.0
-30.0 30.0
ITEM: ATOMS id type x y z Coordination
1 1 -20.0037 8.75355 -14.86 16
2 1 -19.6701 -11.1124 -6.4384 24
3 1 -9.32063 14.5587 8.04985 18
4 1 -5.09118 -7.67074 8.77387 11
5 1 -23.2983 9.60704 -3.74545 20
6 1 0.410806 -6.44745 -12.2959 11
7 1 -23.7233 3.51326 -10.0102 23
8 1 -12.4465 -4.69522 8.41004 23
9 1 -17.2505 7.13057 -15.1293 19
10 1 -22.3333 -7.48725 3.32106 18
11 1 2.74476 5.21358 -9.19506 15
12 1 -16.4917 -13.5476 0.538165 16
13 1 -26.1527 -8.05126 -1.53462 13
14 1 -6.96906 7.38344 15.2261 19
15 1 -13.9942 17.7458 -10.1874 13
16 1 -7.1741 1.46807 12.0679 21
17 1 -19.8203 -0.117723 -13.3108 23
18 1 -22.6933 -1.45531 10.2421 16
19 1 0.783503 6.38478 7.39838 23
20 1 -9.45181 14.5546 -11.3227 23
21 1 -7.07656 6.9191 -14.8288 21
22 1 3.62297 6.31987 5.86357 12
23 1 -26.1875 3.26217 -12.1075 11
24 1 -23.0919 11.6766 5.26713 12
25 1 -4.5276 -8.57917 5.09987 16
26 1 -11.3813 -12.9218 -9.90741 13
27 1 -2.10703 -10.2068 -1.04223 15
28 1 -22.6883 -12.9362 -6.8903 12
29 1 -25.9509 -2.96581 5.01562 12
30 1 -11.8751 -7.53501 -13.1799 20
31 1 -9.86305 -11.3504 -12.8632 16
32 1 -13.9776 8.41318 -18.2145 11
33 1 -12.7216 1.55185 14.2904 14
34 1 -14.9108 -8.47658 4.99272 21
35 1 -7.43609 -1.33636 10.2839 20
36 1 -23.0559 1.00576 -1.65053 19
37 1 -25.654 1.58473 7.45258 10
38 1 -15.3887 15.0646 -1.5419 20
39 1 -14.5659 -11.2723 -9.90583 18
40 1 -5.86941 -1.5161 -13.233 23
41 1 -12.5811 -1.50806 9.64297 23
42 1 -23.0155 7.01908 -1.76195 21
43 1 -3.75633 14.2983 -11.0419 17
44 1 -9.80761 14.7338 4.62915 22
45 1 -20.7171 8.86839 -8.45655 22
46 1 -12.1222 15.8249 -3.3529 22
47 1 -7.25579 -9.97736 -1.62121 25
48 1 -1.42776 -7.56838 -9.31418 16
49 1 -6.53112 -4.71823 -17.9586 12
50 1 -20.7322 9.07326 8.41512 18
51 1 -22.911 -4.58181 -11.5692 15
52 1 -17.7749 9.86908 -6.55857 21
53 1 -20.3133 -5.78992 3.50568 20
54 1 -14.5801 17.9756 2.99367 20
55 1 -25.4867 5.79823 -10.4719 13
56 1 -20.302 12.4484 6.71613 14
57 1 -17.8317 -10.3701 4.99093 22
58 1 -3.78032 -11.0222 -6.5244 18
59 1 -7.92133 15.673 10.1443 12
60 1 -24.8869 -0.304889 -10.1149 18
61 1 -19.9584 8.58122 -11.8485 23
62 1 -7.2203 10.1233 10.0943 21
63 1 0.223312 -2.70427 -12.0202 17
64 1 -4.7795 -8.07522 1.99195 21
65 1 -28.1876 -4.85761 -0.171883 14
66 1 -6.30979 18.6412 1.63297 19
67 1 -5.27814 -2.88002 11.796 13
68 1 -17.7247 -7.74233 3.56152 21
69 1 0.775463 3.23794 5.17493 18
70 1 -12.2318 13.3472 8.26126 23
71 1 -17.0501 -4.4258 -8.22252 22
72 1 -20.9307 9.43594 4.95847 23
73 1 -18.3653 15.3776 -3.53528 19
74 1 -11.3277 12.4423 -11.4461 22
75 1 -3.24281 19.7836 -4.68346 12
76 1 -1.5036 -4.23698 5.52975 13
77 1 -14.1378 17.5444 -6.84207 18
78 1 -22.9668 11.8128 -1.90488 18
79 1 -19.5995 -3.74803 13.913 11
80 1 -14.6373 12.1244 3.50275 19
81 1 -17.6533 -1.64728 9.64052 20
82 1 1.43625 -5.17861 -10.004 11
83 1 -20.5139 5.95677 3.47607 21
84 1 -20.6044 -11.7592 0.136895 19
85 1 0.00570278 -6.1512 -6.40181 14
86 1 -6.653 1.21564 -18.2278 12
87 1 -17.0367 3.92603 -16.3465 15
88 1 -12.5526 15.8994 -0.11195 20
89 1 -17.0844 12.5494 -11.7966 20
90 1 -12.0385 9.46973 16.5892 11
91 1 -12.456 15.1835 -6.77964 20
92 1 -25.243 11.1312 -5.0754 11
93 1 -17.7642 -4.51134 8.50979 21
94 1 -0.0387577 -0.582617 8.73727 14
95 1 -6.51453 -4.37152 -11.6818 20
96 1 -3.39613 1.24562 15.9652 10
97 1 -20.3938 -5.5921 -3.33211 22
98 1 -19.6823 -8.40899 -4.99869 22
99 1 -1.74294 -7.24968 0.379887 16
100 1 -4.41581 3.16029 -14.3523 22
101 1 -8.90116 23.2737 -3.18518 12
102 1 -17.9789 -10.4466 8.55609 16
103 1 -20.6527 -11.3871 6.80953 12
104 1 -8.07184 -8.04206 -17.4664 14
105 1 -1.61962 -4.28901 -4.20715 20
106 1 -15.4303 -11.0677 3.29464 21
107 1 -20.6889 -8.42116 -1.68393 24
108 1 3.35407 8.36347 3.49516 14
109 1 1.76986 3.16963 -11.5055 14
110 1 -22.4749 -4.50594 -1.92086 16
111 1 -1.69634 9.4396 3.83065 20
112 1 -0.739377 12.536 5.60898 20
113 1 -17.7522 4.38298 9.90821 22
114 1 -18.4441 15.5526 6.58727 16
115 1 -15.3394 14.6047 -8.3506 21
116 1 -11.6736 -1.57723 -13.4376 24
117 1 -2.93811 -11.0313 -14.213 10
118 1 -10.9605 17.8563 -11.4386 13
119 1 -2.56066 -2.09174 10.7889 12
120 1 -14.1055 3.10393 -17.9907 15
121 1 -14.6491 12.0846 -10.0596 21
122 1 -0.134549 0.279952 -7.61014 23
123 1 -22.6859 12.2993 -5.61886 16
124 1 -14.6579 17.5018 -3.81015 17
125 1 -2.99267 5.82665 -9.68105 21
126 1 -4.30505 -5.35181 0.265471 24
127 1 -17.0793 16.5033 8.67811 10
128 1 4.7659 9.15872 -6.02827 13
129 1 -3.6588 14.0287 -7.86428 20
130 1 -17.2616 18.2172 1.46162 16
131 1 -0.225716 12.4647 -1.41208 19
132 1 -14.4253 11.7766 -6.59856 22
133 1 -8.36136 17.4872 -9.63741 15
134 1 -5.78682 11.8489 -15.0602 13
135 1 -22.6485 -4.6384 1.67749 19
136 1 -23.7428 9.40839 -10.4086 14
137 1 -16.9243 -1.69688 -13.4499 21
138 1 -10.89 -9.29724 -18.9278 10
139 1 -6.36506 18.6622 4.59596 17
140 1 -11.9007 15.8981 6.44202 21
141 1 -23.4041 -1.81593 -6.27535 22
142 1 -26.0815 8.99723 -2.03482 11
143 1 2.11735 0.0450314 -2.51327 13
144 1 -23.3083 3.3798 -13.9357 16
145 1 -6.98776 5.04314 16.9465 11
146 1 -9.20395 23.2469 -0.15752 11
147 1 -14.8919 12.0297 6.54316 20
148 1 -9.67913 -6.07553 -19.2612 13
149 1 -11.7837 18.4573 4.91092 20
150 1 -12.4347 15.353 -10.0851 23
151 1 -12.4572 -4.25037 11.3665 16
152 1 -20.1799 -2.70567 1.95174 20
153 1 -11.4379 -10.1678 -15.3117 14
154 1 -21.4954 14.0353 -12.1531 10
155 1 -15.2249 -8.40726 1.89249 25
156 1 -12.2053 -13.3081 -3.31619 16
157 1 -14.4473 11.4903 -16.7732 14
158 1 -26.5229 5.9802 3.24021 12
159 1 -3.99079 14.7536 -1.41453 20
160 1 -20.7852 8.97234 11.7187 11
161 1 -12.7676 -7.35674 10.1358 13
162 1 -8.91012 17.8432 2.96465 22
163 1 -12.6676 10.013 6.77559 21
164 1 0.300248 2.79532 8.90751 18
165 1 -18.3658 15.6164 3.08376 20
166 1 -1.3242 -1.56407 -9.65425 19
167 1 -15.2225 17.7192 6.80048 18
168 1 -3.84967 -5.27902 -3.04859 19
169 1 -27.9842 1.4266 -4.50187 14
170 1 -17.4877 -10.5297 -1.54264 23
171 1 -2.31653 9.92828 10.6193 20
172 1 -25.2505 0.0516612 -2.91219 18
173 1 -14.3269 -10.9944 -3.38285 21
174 1 -11.7906 12.9027 1.5877 20
175 1 -11.5641 16.3291 9.62955 15
176 1 -18.4956 14.9256 -10.3872 14
177 1 -27.9349 -3.99216 -3.3836 13
178 1 -19.532 3.19964 11.6154 19
179 1 -9.78231 -8.20999 1.77124 22
180 1 -7.10189 -10.0088 8.74218 11
181 1 -20.863 14.7245 1.26612 12
182 1 2.11887 0.940785 6.93139 12
183 1 -15.2292 -5.2853 -16.6344 15
184 1 -7.38074 4.24265 10.3463 26
185 1 -5.22594 -12.0015 5.93439 11
186 1 -14.4758 5.81464 -13.0075 21
187 1 -8.54644 -8.58653 -14.2793 22
188 1 -1.51311 4.09505 -16.0302 11
189 1 -9.2615 8.93097 -15.1465 20
190 1 -20.3772 -2.59855 -11.5367 20
191 1 -16.7447 17.3642 -8.6601 14
192 1 -20.2762 -8.28065 8.43573 18
193 1 -6.54995 20.8498 -3.74333 14
194 1 -19.2821 6.59717 13.5139 13
195 1 -18.2329 15.2293 -7.2033 19
196 1 -4.8337 3.52769 8.72764 22
197 1 -14.7035 -5.40286 -13.5648 21
198 1 -14.2624 11.5351 -13.3893 23
199 1 -9.59261 8.66679 -11.6043 20
200 1 -20.3964 -8.59951 4.9476 21
201 1 -18.2651 10.2305 6.61177 20
202 1 -17.0579 12.8215 8.08086 18
203 1 -12.2023 -7.50432 -9.89439 19
204 1 -19.0727 -13.6861 -1.77873 16
205 1 -4.67692 -11.1507 -3.21516 20
206 1 -2.41004 12.8669 12.2492 13
207 1 -7.08079 9.36814 -9.82801 21
208 1 -23.9569 14.5823 -7.23906 10
209 1 -12.7574 7.24887 8.35861 22
210 1 -2.39006 -12.9987 0.713346 10
211 1 1.48273 3.2266 -7.81015 22
212 1 -23.2041 6.87947 1.67992 20
213 1 -23.1595 -4.71992 -4.83169 23
214 1 -3.15263 5.7526 -12.8126 20
215 1 -10.0544 0.438233 9.84871 24
216 1 -3.92146 14.1032 -4.68088 21
217 1 -14.1974 0.108024 -13.0593 21
218 1 -10.3115 -13.4638 1.48983 16
219 1 -4.23929 3.2981 -10.9126 22
220 1 -23.1085 1.2199 1.74743 20
221 1 -8.48275 -13.8413 -8.45005 13
222 1 -19.9277 -2.70243 -8.10994 20
223 1 -5.60871 18.0909 -4.91202 18
224 1 -12.2187 1.25178 -15.0799 21
225 1 -4.29406 8.97985 15.2323 15
226 1 5.80884 6.3179 -1.00878 12
227 1 -3.38563 -3.59868 -16.2799 12
228 1 -17.0882 1.23626 -11.7364 19
229 1 -19.8071 5.83105 -13.4112 21
230 1 -17.8713 -13.3887 7.03357 11
231 1 -2.02724 1.62607 8.53345 19
232 1 -17.9392 -4.09952 -14.8575 17
233 1 -8.87469 11.4706 -13.1988 24
234 1 -9.6839 14.8134 -1.53727 22
235 1 -19.8907 0.101472 9.68168 21
236 1 -24.3038 -9.50897 -7.20747 10
237 1 -17.6216 -4.61645 -11.7234 21
238 1 -13.7435 14.5672 -15.0289 12
239 1 -16.831 -7.39289 -6.63636 22
240 1 -3.72373 -5.44015 -13.2182 17
241 1 -1.42792 3.27861 -12.8148 18
242 1 -0.462532 7.25113 -0.765852 19
243 1 -20.2997 -2.85938 8.45094 22
244 1 -14.7065 -8.22789 -1.50661 20
245 1 -1.96898 4.27552 10.5082 23
246 1 -24.0787 -9.29947 4.90293 11
247 1 -12.3876 -9.93025 -1.66933 23
248 1 -14.6653 20.3103 -2.32272 14
249 1 -9.09381 0.0255817 -16.4558 22
250 1 -17.2387 0.847469 -14.9023 20
251 1 -22.8944 -6.03902 8.9021 13
252 1 -12.3085 10.0536 10.1744 21
253 1 -10.2272 -11.3065 -2.88119 21
254 1 -16.8774 -9.93566 -11.9327 15
255 1 -22.5372 6.12015 -11.7358 20
256 1 -1.70735 7.21113 2.43606 19
257 1 -16.956 6.45677 -11.5982 21
258 1 -6.37863 9.66043 -13.2337 21
259 1 -5.73692 -12.7103 -10.0843 16
260 1 -19.8567 17.6641 -7.44284 10
261 1 -9.435 11.9007 3.28661 20
262 1 -1.17596 4.41344 3.6921 22
263 1 -20.729 2.97055 5.29069 21
264 1 -14.9653 -2.34373 11.9492 17
265 1 -20.5747 11.8594 -0.0460493 21
266 1 -8.9049 -2.65447 -14.7811 21
267 1 -0.102449 17.4674 -4.9674 15
268 1 -4.89091 -11.3028 0.478553 21
269 1 -14.7765 0.166256 13.0491 17
270 1 -25.538 -3.1129 1.53561 17
271 1 -9.68768 -13.3678 -5.0343 16
272 1 -17.9603 7.37124 11.1536 21
273 1 -20.5332 5.97992 9.87348 24
274 1 -23.2897 0.935406 5.30104 21
275 1 -25.3932 -6.28446 5.49169 14
276 1 1.14393 -1.76934 -4.7709 18
277 1 -22.7444 -4.63889 5.16448 20
278 1 -3.2079 0.694376 -9.49513 21
279 1 -1.98308 -10.7509 -9.06362 14
280 1 -8.64267 17.3524 -6.51699 18
281 1 -21.0843 14.7585 -5.41774 16
282 1 -1.18212 12.4798 9.09132 16
283 1 -6.47762 -9.95819 -4.82944 21
284 1 -17.6752 12.9011 1.84913 22
285 1 -7.25152 -7.21463 6.9476 23
286 1 -1.52226 -4.44204 2.26225 18
287 1 -8.34487 -0.719232 13.0318 15
288 1 -12.7665 15.6674 3.38963 19
289 1 -4.49297 12.068 13.6225 14
290 1 -21.2232 14.26 -8.90992 18
291 1 -11.993 -4.58984 -18.0347 16
292 1 -5.93639 -9.71251 -15.5845 12
293 1 -23.2166 6.93144 8.4776 13
294 1 -26.363 3.55437 -4.98415 14
295 1 -17.5441 12.8564 -1.68484 21
296 1 -4.65645 0.755025 6.7532 21
297 1 -23.0555 -10.3856 -1.24407 15
298 1 -7.20043 -4.16898 5.09443 23
299 1 -20.3087 -5.46872 10.2658 19
300 1 -25.3553 11.6918 -8.71052 11
301 1 -9.15994 -8.34629 -8.13158 20
302 1 -17.5794 -1.58256 -10.0492 22
303 1 -3.88082 3.03096 -17.5471 12
304 1 -6.7653 15.591 3.44623 21
305 1 -22.4172 1.09733 -4.9021 22
306 1 -6.81882 -10.0963 -11.8576 19
307 1 -3.87038 6.36076 -15.9176 12
308 1 -17.1833 -13.1263 -10.3028 14
309 1 -25.0591 -4.0124 -9.38627 15
310 1 -1.69946 7.14005 15.4118 12
311 1 -1.26581 3.08527 -6.48667 22
312 1 -16.9946 9.67885 -13.5065 22
313 1 -12.2127 21.397 -0.26128 15
314 1 -28.0212 0.71325 -8.05652 15
315 1 -23.3575 12.4382 1.70027 12
316 1 -20.1498 12.0018 -3.77831 22
317 1 -20.5465 12.2913 3.31745 22
318 1 3.08793 8.11035 8.30009 11
319 1 1.16145 -2.70928 -8.30449 17
320 1 -2.37245 -1.47355 13.4759 10
321 1 -1.02148 3.43975 -9.66758 21
322 1 -16.7826 -12.7232 -4.01332 17
323 1 -6.94248 -7.04023 -3.24737 22
324 1 -1.84764 1.22211 5.26625 22
325 1 -19.6824 -5.58865 -6.50858 22
326 1 -17.7633 -7.58428 0.0704914 23
327 1 -19.9914 -2.29564 11.6949 21
328 1 -14.9035 20.6934 1.13454 12
329 1 -29.2172 -7.21206 -2.1298 9
330 1 -7.2314 12.9649 11.9584 15
331 1 -20.9717 8.87065 -5.0733 22
332 1 -9.44573 14.6551 -7.97185 21
333 1 -6.52549 12.789 4.94635 21
334 1 -25.0429 -6.13885 -6.80348 15
335 1 -14.7012 -5.42686 -9.90914 21
336 1 -25.774 2.97541 -1.56801 16
337 1 -23.5599 9.71449 -6.94983 17
338 1 -7.04322 -7.22776 3.5368 21
339 1 -17.2016 -10.0599 -5.20597 23
340 1 -3.72395 17.4385 7.08073 11
341 1 -3.03704 8.91622 -14.2155 12
342 1 -25.0493 6.40933 -13.5074 9
343 1 -11.3645 17.8932 -8.39286 17
344 1 -22.708 6.6126 -8.35954 22
345 1 -12.5197 -10.2972 1.80991 24
346 1 -2.02916 7.24991 5.80741 21
347 1 -6.92157 13.7802 -12.98 19
348 1 -29.2731 3.66258 -6.69505 7
349 1 -17.847 -10.4511 1.56131 22
350 1 -5.4257 -7.45983 -13.1776 14
351 1 -25.5455 -0.0187152 3.59677 12
352 1 -25.6377 2.98982 1.69358 15
353 1 -26.0435 8.80723 1.41203 13
354 1 -20.1353 2.65297 -15.0723 17
355 1 -3.58359 -8.08234 -4.51727 21
356 1 -12.7351 -10.0944 -11.8742 17
357 1 -14.887 -2.5705 8.08892 20
358 1 -16.7636 9.77734 -16.4977 13
359 1 -7.4271 -10.3498 1.82308 23
360 1 -5.89937 12.045 -8.21263 21
361 1 -23.95 9.7199 3.31226 19
362 1 -17.6293 1.13183 11.7666 22
363 1 -23.3498 -7.17149 -9.34289 17
364 1 -22.4292 -4.27767 12.1203 11
365 1 -4.99241 -1.95361 8.69334 19
366 1 -4.25224 -5.33501 3.90506 22
367 1 -0.109899 11.7707 -4.68265 20
368 1 -15.0941 6.1801 10.0542 23
369 1 -9.44325 14.6875 -4.66125 19
370 1 -14.4259 -10.9852 -6.52892 20
371 1 -12.5058 6.65578 15.1133 15
372 1 -11.8929 19.0038 1.43398 24
373 1 -19.4077 -8.34396 -8.28186 22
374 1 -3.39029 21.8117 -1.55555 11
375 1 -7.43813 9.78094 6.65569 21
376 1 -17.9015 4.33475 6.61317 23
377 1 -23.5509 3.98776 6.66151 22
378 1 -20.1248 -5.36968 -9.96493 22
379 1 -18.3219 10.1931 3.31718 21
380 1 -14.8511 -8.20271 -8.2431 22
381 1 -12.0551 -4.50318 -15.0653 22
382 1 -22.1898 -13.0541 -3.28786 12
383 1 -1.83245 4.45884 7.06943 22
384 1 -17.2981 -1.59174 13.7551 14
385 1 -19.6319 5.73103 -16.5036 11
386 1 -0.954147 9.7591 -2.65471 20
387 1 -22.3116 -10.5494 -5.25536 17
388 1 -11.8769 21.4884 3.25209 12
389 1 -17.0041 12.814 11.503 12
390 1 -26.5889 -6.39919 -4.01962 13
391 1 -12.0313 21.5927 -3.71678 13
392 1 -2.59106 16.8106 -9.6767 13
393 1 -17.592 -7.12719 -10.3862 23
394 1 -10.8669 3.86248 15.2339 15
395 1 -14.2576 -14.3887 -8.78217 9
396 1 -9.60658 -2.55995 -11.4163 21
397 1 -4.75626 -11.3611 3.17513 16
398 1 -23.5919 9.51971 -0.08668 20
399 1 -4.38131 6.18692 13.5425 23
400 1 -3.29665 11.4596 -2.88371 19
401 1 -17.6239 9.71854 -10.24 20
402 1 -26.8591 -1.17965 -5.11607 17
403 1 -9.01176 20.5735 4.94589 13
404 1 -14.8266 2.84723 -14.6192 22
405 1 -1.71171 9.96622 0.549164 21
406 1 -2.93523 16.8982 -6.37396 18
407 1 4.23609 4.09653 -3.23611 14
408 1 -9.36046 2.56755 -14.4805 21
409 1 -12.7159 -10.4826 5.24255 20
410 1 -9.80663 -5.53078 10.1128 13
411 1 -19.897 5.99182 -9.93424 20
412 1 -23.6595 -10.0528 1.99462 14
413 1 -14.3533 -8.31898 -14.9101 17
414 1 -6.75272 21.7856 2.63733 11
415 1 -9.00311 5.85896 -13.0304 22
416 1 -9.28095 -2.71095 11.6841 15
417 1 -23.1648 -1.94118 7.22046 17
418 1 -12.7441 -13.0851 -0.174701 19
419 1 -22.7511 -1.82023 0.220565 20
420 1 3.38156 -0.93818 -7.55779 12
421 1 -0.263802 1.03139 -4.45553 21
422 1 -9.09738 -5.55352 -9.79451 20
423 1 -6.88183 3.85692 -12.6505 21
424 1 -0.837038 -4.70877 -14.3368 12
425 1 -15.5009 3.28555 11.7396 23
426 1 -3.12401 17.2642 0.353384 19
427 1 -15.1863 0.0334317 -16.9694 17
428 1 -9.40359 6.04652 -16.6101 18
429 1 -17.9552 -2.05393 6.38896 23
430 1 -17.3712 17.8145 -2.11265 14
431 1 -20.1226 -2.34088 -15.0933 17
432 1 -29.6226 -1.84812 -6.04384 9
433 1 -11.2692 -7.67568 -16.6013 21
434 1 -17.3791 -7.47415 9.99959 14
435 1 -11.3993 12.6389 -8.37355 19
436 1 2.01927 11.5997 3.85584 12
437 1 4.96714 6.05979 2.57201 10
438 1 -20.1299 -13.2213 -8.62153 15
439 1 -17.1547 -2.37763 -17.0618 14
440 1 -15.1126 15.0928 5.01472 24
441 1 -0.529521 1.17573 -1.12423 23
442 1 -5.51795 17.1658 -11.8175 14
443 1 1.71885 8.4377 -7.66441 20
444 1 -11.8817 10.6275 13.2987 19
445 1 -20.6752 6.15553 6.62624 22
446 1 -6.92777 12.8134 8.33578 20
447 1 -4.80691 0.0975077 13.8173 19
448 1 -6.66166 6.70327 -17.7348 12
449 1 -12.6362 1.44115 11.2459 22
450 1 -3.42267 11.8558 3.39958 24
451 1 -2.99552 11.3274 -6.45992 22
452 1 -20.0193 11.7644 -6.95612 18
453 1 -14.9309 14.6975 -5.02704 21
454 1 -1.30982 1.11213 11.4514 17
455 1 -0.55726 0.837421 -11.7866 18
456 1 -1.40882 -7.73621 -2.93756 15
457 1 -1.94739 15.8802 9.58695 10
458 1 -25.5141 -6.13467 1.29299 17
459 1 -14.4805 8.95631 -11.5989 24
460 1 -28.8227 -7.62931 0.741567 11
461 1 -12.0853 15.5419 -13.2692 16
462 1 -6.66756 -12.5646 -6.83324 18
463 1 -6.2645 1.09106 -11.0802 21
464 1 -11.4917 18.2695 -4.99076 19
465 1 -20.2241 -5.04553 -12.9038 16
466 1 -10.1194 -11.1829 3.74794 21
467 1 -23.3923 -1.8538 -3.14968 21
468 1 -9.72506 14.2673 -14.8195 14
469 1 -14.8433 9.50783 15.5167 13
470 1 -20.5731 -2.76339 5.05472 24
471 1 -9.62228 -8.61091 -11.4187 22
472 1 -7.09929 -4.42657 8.47937 18
473 1 -20.7244 9.09426 -1.80327 21
474 1 -3.81738 6.51497 17.0116 12
475 1 -9.14285 20.2729 -5.13618 14
476 1 -1.51374 -2.73565 -6.33354 20
477 1 -10.1811 8.9917 8.64934 23
478 1 -9.88117 8.43581 -18.2433 13
479 1 -15.4839 -11.2449 6.6653 16
480 1 -8.69783 -1.88908 -18.512 16
481 1 -9.17122 20.6379 1.48388 20
482 1 -0.610982 9.82589 -11.9093 15
483 1 -14.3815 -2.47801 -15.3022 22
484 1 -14.1936 -8.20476 -5.05588 21
485 1 -23.0237 -1.61392 -13.1487 16
486 1 2.50487 6.26697 -2.4189 22
487 1 5.55821 6.38383 -4.24775 14
488 1 -1.35264 -4.43736 -10.6074 18
489 1 0.655066 9.55332 9.59115 15
490 1 -6.50066 -6.80355 -6.33144 21
491 1 -6.51892 9.32854 -16.8488 13
492 1 -4.14919 14.5833 1.82479 21
493 1 -4.86678 15.0472 11.571 14
494 1 1.89841 14.7293 -5.40326 14
495 1 1.53436 3.28163 -1.22355 19
496 1 -0.152035 6.05284 -7.85195 21
497 1 -1.94292 7.13085 12.1877 16
498 1 0.889525 6.29961 10.7113 14
499 1 -0.755159 14.7082 -3.20378 18
500 1 -9.90383 6.0408 13.3356 22
501 1 1.60347 0.30321 -10.1294 18
502 1 -7.28202 4.39872 13.5791 23
503 1 -19.8995 0.396918 -9.99117 22
504 1 1.78886 5.92151 3.96575 19
505 1 -23.6773 9.81394 7.00895 11
506 1 -4.10041 12.0025 6.91012 18
507 1 -4.83056 5.98508 10.3704 22
508 1 -9.60049 11.8074 6.70938 21
509 1 -12.5452 18.6956 8.02694 15
510 1 -13.1548 -12.8267 3.08257 14
511 1 -17.1191 12.6709 -4.96383 20
512 1 3.63296 10.6079 -8.65617 10
513 1 -2.2527 -1.73404 -13.8583 17
514 1 -11.6865 18.9 -1.69905 23
515 1 -11.6732 -10.2196 -8.50005 22
516 1 -2.20823 -7.7813 -14.1556 11
517 1 -22.9409 7.23785 5.11509 19
518 1 -14.2869 8.66767 -15.1119 22
519 1 -14.8873 -10.9803 -0.0869657 20
520 1 -17.87 3.64267 -13.2552 20
521 1 -23.6897 3.94767 -6.52878 23
522 1 -1.30917 -1.55072 0.659208 23
523 1 1.80996 9.18986 -0.963639 22
524 1 -12.5925 -7.20894 2.90682 20
525 1 -22.2804 -1.72684 -9.60945 24
526 1 -11.3943 3.15055 -19.9989 11
527 1 -12.4248 7.363 11.5556 20
528 1 -3.30117 11.5754 -12.6787 16
529 1 2.57153 4.26387 8.38959 13
530 1 -1.08817 8.35881 -9.44404 23
531 1 -1.35634 14.3741 0.405773 18
532 1 -8.78142 -11.3144 -9.69752 21
533 1 -19.9798 -0.130601 13.8405 13
534 1 1.66355 0.486159 0.610288 15
535 1 -13.9839 16.8066 10.7233 9
536 1 -5.8386 15.4366 -14.9162 7
537 1 -23.9966 14.8856 -9.9641 10
538 1 -0.568128 12.4064 2.08184 18
539 1 -22.4592 -7.27152 -6.3206 19
540 1 1.05085 -2.4735 2.54628 14
541 1 -6.40733 21.4651 -0.299203 18
542 1 -15.407 9.10803 8.28237 23
543 1 -23.1541 -8.10887 -3.46771 19
544 1 -20.7509 3.10379 -11.6896 22
545 1 -4.41908 3.01094 12.2439 20
546 1 -15.2282 -5.20957 10.11 18
547 1 -1.5572 9.99972 13.59 12
548 1 -18.2102 15.7031 -0.265111 21
549 1 -12.2418 0.90181 -18.3728 16
550 1 -20.4615 0.0814967 6.78786 23
551 1 -3.50945 0.528347 -12.6893 22
552 1 -4.15279 -5.29011 -9.52416 22
553 1 -4.70018 6.11264 7.10192 22
554 1 -17.8885 4.29773 13.3422 19
555 1 -1.88849 10.1041 7.33176 23
556 1 -11.8225 -1.48421 13.1929 12
557 1 -15.3771 9.3216 11.6261 21
558 1 -11.4608 -1.75707 -16.7389 19
559 1 -20.3103 3.21459 8.23756 23
560 1 -9.93152 2.94681 11.8536 22
561 1 -26.7067 -8.45322 3.19235 11
562 1 2.11005 9.09062 -4.23017 19
563 1 -5.88035 -10.0215 -8.36592 21
564 1 -6.09237 12.2218 -4.80819 20
565 1 -3.90186 20.2022 1.5768 11
566 1 -9.22551 0.535152 -19.8526 10
567 1 -8.92425 17.5947 -3.38201 22
568 1 2.87648 11.7871 -2.86409 11
569 1 -17.8067 -7.44775 -3.08196 22
570 1 -11.3899 3.62859 -16.3292 21
571 1 -20.6808 14.2328 -1.79543 15
572 1 -3.74889 -8.34288 -10.8424 18
573 1 0.234861 11.0394 -8.04372 21
574 1 -2.12377 19.221 -1.4303 14
575 1 -2.08004 3.94312 13.5982 16
576 1 -4.72559 3.32006 15.3177 20
577 1 -12.6183 -7.44867 6.80685 23
578 1 -16.8658 12.8166 -14.8676 13
579 1 -13.199 13.4314 11.8836 14
580 1 -5.22099 -12.5297 -13.634 8
581 1 0.30931 16.8423 -7.8269 14
582 1 -4.05312 14.6839 5.10422 21
583 1 2.4576 -4.37463 -6.28066 10
584 1 -4.99968 8.87638 11.8958 24
585 1 -25.8706 -2.99544 -1.57056 13
586 1 -4.48465 -13.6551 -5.0479 12
587 1 -17.234 17.8687 -5.60963 18
588 1 -6.34948 12.844 -1.71173 22
589 1 -22.9596 -1.9658 3.70465 21
590 1 -9.39493 9.63207 15.0406 12
591 1 -19.9204 11.2932 -13.3384 16
592 1 -15.222 14.846 -11.7906 16
593 1 -4.94096 -14.1309 -1.78606 13
594 1 -1.1053 8.80001 -6.07202 23
595 1 -23.1143 3.98229 9.95751 14
596 1 -5.80934 -1.85918 -16.4502 18
597 1 -9.86107 -8.34364 8.3083 18
598 1 -6.63512 15.6432 -3.35465 22
599 1 -13.0007 4.47153 12.7461 22
600 1 -20.8856 -7.66146 -11.3658 15
601 1 -17.2378 -7.09722 -13.4248 18
602 1 -19.5849 -10.8519 -11.1076 16
603 1 -6.70681 15.0381 -9.4814 23
604 1 -15.5236 14.7265 1.7232 22
605 1 -6.74482 -7.45652 -10.0789 21
606 1 -2.28307 -12.8749 -2.3038 9
607 1 -10.1089 -5.27464 6.72393 23
608 1 4.17679 3.90645 -6.3384 15
609 1 -16.9591 -13.0913 -7.11389 16
610 1 -22.6592 1.22606 8.62682 18
611 1 -15.0977 -14.4367 -2.01079 11
612 1 -20.1095 -11.3387 -3.18333 20
613 1 -21.9528 1.37209 11.8823 15
614 1 -18.8539 -14.1858 1.82763 14
615 1 5.07779 9.01341 -2.82791 13
616 1 -14.7665 17.6685 -0.560497 21
617 1 -25.5382 6.13251 -0.246146 19
618 1 -1.21138 1.34287 2.05087 21
619 1 -22.6404 0.773665 -11.4765 21
620 1 0.0702863 6.18227 -11.2357 18
621 1 -4.46494 14.725 8.44809 20
622 1 -22.8829 1.23533 -8.18347 20
623 1 -22.3203 -4.45458 -8.27019 23
624 1 -9.70936 6.84795 16.7047 11
625 1 -3.96569 9.04123 -11.2753 20
626 1 -4.16176 17.44 3.47345 15
627 1 -15.1777 3.53367 8.25097 22
628 1 -9.96387 -10.8551 0.23312 23
629 1 -19.5912 -14.6225 5.13359 9
630 1 -0.731425 15.1267 7.22874 13
631 1 -9.6362 -5.30948 -13.08 21
632 1 -6.79953 12.8254 1.6105 21
633 1 -20.3083 -5.61846 6.64862 23
634 1 -2.82906 11.3904 -9.5619 22
635 1 -12.4941 -13.3886 -6.75916 13
636 1 -5.01347 -13.9527 2.99616 11
637 1 -7.39404 -12.5224 -3.27271 22
638 1 -5.88522 6.56759 -11.3848 21
639 1 -6.22964 24.37 -1.27274 7
640 1 -14.357 5.68231 -16.1847 20
641 1 -12.4952 4.57904 9.96244 22
642 1 -8.90287 11.6951 -16.5885 15
643 1 -22.0519 0.560688 -15.6996 12
644 1 -20.6346 -2.77068 -5.05352 23
645 1 -5.54034 17.862 -8.06106 16
646 1 -14.3479 -3.05276 -18.2736 13
647 1 -0.163353 6.89943 -4.08644 20
648 1 -1.12719 -9.30445 -6.1978 13
649 1 -15.5245 6.58586 13.5138 20
650 1 -7.15291 -7.19414 0.0762517 22
651 1 1.40386 -5.65056 -3.28858 10
652 1 -2.24335 -1.52591 7.18907 19
653 1 -12.0474 12.7856 5.03837 20
654 1 -21.6975 4.66961 12.9596 11
655 1 -17.9636 7.25125 7.97998 23
656 1 -12.7903 -10.2589 8.52135 14
657 1 -4.57973 11.8527 10.3797 23
658 1 -25.2575 -0.0842991 0.373326 15
659 1 -3.64617 -5.08084 -6.44998 20
660 1 -20.4904 11.5367 -10.4133 21
661 1 -9.87502 -11.1509 7.21071 14
662 1 -7.30989 1.55757 15.6455 12
663 1 -8.97623 20.1911 -1.68753 24
664 1 -9.98504 -8.47661 5.1498 24
665 1 -9.87807 6.18698 10.2975 24
666 1 -26.2777 -1.57378 -7.95089 17
667 1 -12.8725 12.543 15.2469 9
668 1 -6.79545 15.8044 0.0383433 22
669 1 -20.3247 -8.65944 1.33647 20
670 1 -16.3559 -14.3519 3.9475 11
671 1 -4.68439 -2.44185 5.32957 24
672 1 -1.92766 -7.29919 3.31153 11
673 1 -4.62517 9.15255 5.47248 22
674 1 -12.2832 -4.36735 -11.5962 22
675 1 -12.1381 3.76292 -13.0379 20
676 1 -15.1353 0.349422 9.87014 21
677 1 -8.76104 17.6284 -0.141664 19
678 1 1.55655 3.09646 2.02865 16
679 1 -8.82223 11.7739 -9.97457 20
680 1 -17.7064 9.59639 13.5271 14
681 1 -4.73657 9.01122 8.75663 22
682 1 -4.08856 -2.43552 -11.368 22
683 1 -19.7589 -13.9473 -5.34598 15
684 1 0.586779 0.368709 4.07221 19
685 1 -8.74061 -0.219141 -12.5977 22
686 1 -7.39216 7.34398 11.9574 20
687 1 -1.15109 -10.3342 -11.686 11
688 1 -8.93358 5.05877 -19.2489 12
689 1 1.77729 9.13754 -10.9437 10
690 1 1.4134 -2.83688 -0.96886 12
691 1 -9.87078 -2.70923 8.51628 21
692 1 -14.4823 -8.04778 -11.6426 20
693 1 -5.86747 18.3633 -1.70319 23
694 1 -22.7655 4.13545 3.44496 18
695 1 2.88256 11.7219 -5.95278 17
696 1 1.121 8.74323 2.02047 22
697 1 -11.4032 -2.84579 -20.159 9
698 1 -17.4127 13.137 4.53416 22
699 1 1.58534 11.3294 7.22483 13
700 1 -0.918793 13.9288 -6.41152 25
701 1 -7.26055 3.49396 -16.4814 20
702 1 -0.976917 -1.33845 -2.51151 20
703 1 -23.4344 3.91528 -3.30361 22
704 1 2.31616 6.04784 0.730519 22
705 1 -23.17 -7.36333 0.16144 21
706 1 -24.3261 12.0213 -11.8694 10
707 1 -7.25388 7.27046 8.66163 23
708 1 -20.7691 3.3105 -8.4317 21
709 1 -26.4728 8.39893 5.18708 9
710 1 -3.98949 -8.01409 -7.74276 20
711 1 -26.7232 -4.06508 -6.02981 16
712 1 -1.48195 -4.41996 -1.04768 21
713 1 -25.4901 5.92939 -3.31913 16
714 1 1.10583 8.99388 5.5309 22
715 1 -17.6836 -4.82177 5.08404 23
716 1 -1.56589 4.05912 16.4481 10
717 1 0.690815 -2.12241 5.92188 15
718 1 -22.9361 4.01718 -0.108716 20
719 1 -9.80168 11.9177 10.2137 20
720 1 -1.01943 13.9775 -9.73492 18
721 1 -13.9407 -7.26398 -18.1626 10
722 1 -17.2746 17.8134 4.95422 14
723 1 -22.8567 -7.79864 6.80187 14
724 1 0.271826 12.7269 -12.063 8
725 1 -9.69435 9.08647 11.717 20
726 1 4.25119 2.1304 -8.9883 12
727 1 -4.33017 -5.3342 7.1353 13
728 1 -11.821 12.3255 -14.7164 20
729 1 -5.9208 11.8537 -11.388 21
730 1 -17.695 1.52016 8.06623 21
731 1 4.40351 8.64933 0.368428 15
732 1 -15.0163 -2.55861 -11.6833 23
733 1 0.0270053 16.8583 -1.57043 10
734 1 -25.1871 0.890015 -6.3203 22
735 1 -14.9563 -8.23025 8.27645 19
736 1 -8.39897 16.8673 -13.2205 13
737 1 -7.21417 1.45386 8.73798 23
738 1 -11.8733 -10.428 -5.14214 21
739 1 -14.5088 20.1884 5.30009 10
740 1 -25.5478 6.15255 -6.87463 12
741 1 -1.06987 1.06957 -15.3315 11
742 1 -8.72945 -10.5704 -16.3748 13
743 1 -21.0306 8.88738 1.62922 24
744 1 1.64292 13.7004 -8.97719 12
745 1 -6.58328 -4.59311 -14.9413 18
746 1 -19.3746 -8.90709 -13.932 8
747 1 -9.37045 -8.49338 -4.74694 21
748 1 -15.5026 12.3074 13.8313 12
749 1 -9.05852 -11.0669 -6.54843 23
750 1 -11.8367 9.72028 -16.4321 17
751 1 2.93886 1.59402 -5.50068 17
752 1 -4.14814 11.7429 0.185158 20
753 1 -9.72251 -13.9947 -1.51285 13
754 1 -9.31701 -5.48567 -15.8515 17
755 1 2.77409 6.34132 -5.84625 21
756 1 -11.5838 6.65147 -14.878 24
757 1 -15.0831 -5.42791 6.56207 25
758 1 -4.07169 8.72608 -7.96119 23
759 1 -22.8583 6.78424 -5.08446 19
760 1 -26.1608 4.31189 5.26361 10
761 1 -6.79446 10.1259 13.7956 16
762 1 -17.9236 -7.77086 6.82526 23
763 1 -9.87185 15.0375 1.71996 21
764 1 -7.33821 -13.1252 0.407642 18
765 1 -6.6101 15.1243 -6.29448 21
766 1 -14.6918 12.1283 10.0357 16
767 1 -14.7181 3.47923 14.8761 13
768 1 -21.2851 14.7182 4.8249 12
769 1 -17.7844 -4.86055 11.9033 15
770 1 -7.35424 -10.2111 5.50257 21
771 1 -2.03107 6.95462 9.08255 23
772 1 -4.20683 -2.23273 -8.06459 22
773 1 -2.88584 -13.1435 -11.2292 10
774 1 -19.176 -0.180579 -17.0262 11
775 1 -12.0332 5.72141 -18.3025 17
776 1 -6.61529 16.1155 6.6642 18
777 1 -22.5499 -1.77182 13.8286 10
778 1 -17.1172 11.7838 -8.49779 24
779 1 -26.2717 3.48573 -8.25323 17
780 1 -2.90731 16.9171 -3.10854 23
781 1 -19.986 -11.6735 3.67234 16
782 1 -1.53903 15.2688 3.73921 13
783 1 -21.6591 -10.2617 -8.97452 18
784 1 -9.42457 17.4785 6.00211 15
785 1 -16.5933 1.50726 14.9682 14
786 1 -17.1581 -10.4184 -8.70968 22
787 1 -4.71943 0.350387 10.6094 22
788 1 -7.64544 -12.9914 3.72313 16
789 1 -10.525 13.8297 12.9403 11
790 1 -3.75908 0.278691 -15.84 18
791 1 -4.50925 -8.34501 -1.16827 22
792 1 -6.48059 1.23775 -14.7286 21
793 1 -24.8296 0.469429 -13.5827 11
794 1 -22.702 9.02502 -13.1955 13
795 1 -18.1697 10.172 9.84269 20
796 1 -2.11855 -1.47585 3.67877 24
797 1 -20.106 -5.67842 0.127714 20
798 1 1.25092 3.89195 -4.226 19
799 1 -11.7059 9.58999 -13.2798 22
800 1 2.37104 11.7964 0.452739 13
801 1 -14.3415 15.1787 8.2779 20
802 1 -27.8451 -5.52273 2.84921 12
803 1 -4.748 -14.048 -8.07709 11
804 2 -22.585 2.81905 -11.3344 22
805 2 -17.4367 14.8196 -2.00034 19
806 2 -8.3413 1.04152 -14.9918 24
807 2 -17.3707 9.13339 11.2602 22
808 2 -9.60543 -13.1506 -9.73856 14
809 2 -23.6456 -5.25452 -9.74936 16
810 2 -12.589 3.54107 14.5053 15
811 2 -2.68833 2.89417 15.4733 13
812 2 -22.8056 -8.32639 -1.48615 19
813 2 -23.5692 6.06481 -6.61916 20
814 2 -9.01607 15.6243 0.0479337 20
815 2 -22.7955 2.90421 -1.92419 19
816 2 -6.31011 17.1043 -9.69946 16
817 2 -1.45938 6.29642 0.680095 19
818 2 -11.5607 14.7009 -8.335 21
819 2 -5.13949 19.9805 -4.72883 11
820 2 -23.3121 -0.33693 -14.5565 12
821 2 -25.84 -4.53219 -7.76535 17
822 2 -9.41198 6.93255 8.62315 24
823 2 -3.19365 -1.51393 -9.67882 21
824 2 -9.56012 -12.9119 3.24445 14
825 2 -17.8913 11.9874 -3.46678 21
826 2 -26.3364 5.63557 -8.49526 13
827 2 -1.5092 6.35778 4.13816 21
828 2 -2.02657 -9.12251 -10.3881 13
829 2 -23.0219 -10.9883 -7.33505 15
830 2 -19.74 -1.49167 3.50681 22
831 2 -16.8874 -11.7535 0.0601566 21
832 2 -4.57252 -7.18902 6.76101 12
833 2 -15.4598 -13.0237 -9.69861 14
834 2 -7.19102 -2.18417 12.1685 17
835 2 -9.37661 12.5978 -11.6845 22
836 2 -12.2572 -11.3858 3.63445 18
837 2 -23.9819 -7.79164 -7.56064 15
838 2 -9.31905 7.10968 11.8798 20
839 2 -20.1856 9.78943 0.128672 21
840 2 -11.9336 5.99912 13.1205 19
841 2 -20.2263 14.8554 -3.47417 15
842 2 -1.6303 -8.44065 -1.11956 12
843 2 -8.9044 15.4686 -9.80377 22
844 2 -4.77303 17.8915 5.47949 14
845 2 -5.72453 20.6864 1.43439 16
846 2 -3.8837 -1.33012 -13.0041 18
847 2 -20.0706 14.3983 6.23923 14
848 2 -6.744 8.77834 -14.8277 20
849 2 -14.9628 9.83308 -13.4345 24
850 2 1.64899 10.9755 -4.30839 21
851 2 -17.1434 -3.57815 13.2753 10
852 2 -25.8283 9.01284 3.39024 13
853 2 0.567467 -0.916118 -11.4798 14
854 2 -22.3772 -5.28923 10.4946 12
855 2 -9.28371 -10.5673 -14.4966 15
856 2 -11.1323 0.222133 -16.8327 20
857 2 -26.9616 -4.91765 1.30895 14
858 2 -1.27677 11.9213 -3.08375 20
859 2 -15.6141 12.7079 1.85488 21
860 2 -17.6343 -9.20206 -13.5954 13
861 2 -14.7928 15.7868 3.25153 21
862 2 -3.04273 -0.0637119 14.7376 10