ITEM: TIMESTEP
78000
ITEM: NUMBER OF ATOMS
2000
ITEM: BOX BOUNDS pp pp pp
-30.0 30.0
-30.0 30.0
-30.0 30.0
ITEM: ATOMS id type x y z Coordination
1 1 -21.0434 8.9436 -15.3522 12
2 1 -21.0008 -11.1599 -7.07157 21
3 1 -9.89662 14.7253 8.0558 21
4 1 -6.31237 -8.34465 8.22641 10
5 1 -24.6333 9.77048 -3.62501 21
6 1 0.286658 -5.71558 -12.1984 11
7 1 -24.569 3.70338 -10.1316 22
8 1 -13.7338 -4.25227 8.27316 25
9 1 -17.9261 7.08186 -14.861 19
10 1 -23.9298 -7.46769 3.40703 22
11 1 2.07734 5.50923 -8.92682 15
12 1 -17.8642 -13.3266 0.125653 14
13 1 -26.8545 -8.83757 -1.66349 13
14 1 -8.11187 7.59821 15.1785 17
15 1 -14.615 17.4294 -10.2909 15
16 1 -8.27151 1.81844 11.8354 22
17 1 -20.855 0.326266 -13.6037 23
18 1 -26.6614 -1.37697 8.11223 13
19 1 -0.269106 5.95878 7.20992 24
20 1 -10.6484 14.8263 -11.2037 23
21 1 -7.78864 7.08005 -14.5279 21
22 1 2.74164 5.63572 5.78769 13
23 1 -26.6614 3.14963 -12.2575 16
24 1 -23.7331 11.9444 4.72978 13
25 1 -5.90159 -8.2224 5.00242 20
26 1 -12.3132 -13.0502 -9.41823 13
27 1 -2.35157 -10.0605 -1.16141 13
28 1 -23.5029 -12.7759 -6.95949 11
29 1 -26.6038 -3.08721 4.95522 13
30 1 -12.962 -7.17657 -13.3346 22
31 1 -10.5811 -10.4451 -13.2781 13
32 1 -15.0879 8.89527 -18.4883 12
33 1 -13.6244 1.93528 14.7892 12
34 1 -15.926 -8.10983 5.31036 23
35 1 -8.57585 -1.12315 10.2257 23
36 1 -24.5562 1.46409 -1.83467 21
37 1 -26.9695 1.94686 6.73964 10
38 1 -16.4109 15.6654 -1.92763 19
39 1 -15.4937 -11.1577 -10.3016 17
40 1 -6.77429 -1.44304 -13.2507 20
41 1 -13.2726 -1.36983 10.3447 24
42 1 -23.9094 7.22802 -2.02288 20
43 1 -4.9811 14.6982 -11.8117 19
44 1 -10.5594 15.0698 4.39715 21
45 1 -22.407 8.83488 -8.46789 20
46 1 -13.4287 15.6541 -3.53507 19
47 1 -8.02594 -9.95352 -1.62322 24
48 1 -2.17244 -7.44848 -10.0308 17
49 1 -7.63548 -4.16544 -18.1098 12
50 1 -21.8989 9.27405 7.9547 18
51 1 -24.107 -4.74817 -11.2908 15
52 1 -19.0657 9.44669 -6.76145 21
53 1 -21.2642 -5.40813 3.28455 22
54 1 -15.5197 18.1837 3.16469 20
55 1 -26.5638 5.70435 -10.7754 14
56 1 -20.9073 12.4355 6.59641 17
57 1 -18.7368 -10.3001 5.08908 22
58 1 -4.39848 -10.7843 -6.16706 18
59 1 -9.17047 15.5456 10.9776 11
60 1 -26.6988 1.08478 -10.0025 18
61 1 -20.8862 8.64793 -11.6765 20
62 1 -7.37289 10.2518 10.4065 19
63 1 -0.53117 -1.7936 -12.8755 13
64 1 -5.36974 -7.86607 1.82079 21
65 1 -29.957 -4.68435 -0.26508 11
66 1 -6.69496 18.8058 1.12195 21
67 1 -6.38971 -2.28464 12.0061 15
68 1 -18.5071 -7.15402 3.41839 23
69 1 0.0912895 3.59008 5.64238 19
70 1 -13.1774 13.3002 8.33006 20
71 1 -18.0486 -4.18017 -8.34263 19
72 1 -21.7286 9.4246 4.81738 21
73 1 -19.433 16.0228 -3.44862 18
74 1 -12.6201 12.6862 -11.7705 21
75 1 -4.17014 20.2366 -4.99519 11
76 1 -3.01927 -4.07593 5.17811 15
77 1 -15.2668 17.9783 -6.98879 15
78 1 -24.2139 12.255 -2.21066 16
79 1 -21.3962 -2.27704 11.6554 16
80 1 -15.5215 12.3279 2.94189 19
81 1 -18.6806 -1.52217 10.2532 23
82 1 0.384564 -5.69605 -9.14727 11
83 1 -21.1811 6.48023 3.2048 18
84 1 -21.6 -11.2468 0.239667 19
85 1 -0.461757 -4.93404 -6.47949 16
86 1 -7.8917 1.57027 -17.9919 15
87 1 -18.2947 3.76312 -16.6951 13
88 1 -13.4585 15.8869 -0.221594 20
89 1 -18.1079 12.6474 -11.8497 20
90 1 -12.8444 9.93676 16.5816 12
91 1 -13.3472 15.6843 -6.65895 21
92 1 -26.6344 11.6248 -4.97433 10
93 1 -18.2778 -4.23808 8.32943 18
94 1 -0.398609 -0.561453 9.28697 12
95 1 -7.41975 -4.37411 -11.6042 21
96 1 -4.50203 1.29737 16.3885 9
97 1 -21.4739 -5.54971 -3.41061 22
98 1 -20.7679 -8.50148 -5.34876 20
99 1 -2.67401 -6.93271 -0.219604 15
100 1 -4.80012 4.0215 -14.7504 20
101 1 -10.2261 23.2897 -3.04759 12
102 1 -18.4896 -9.84947 7.91455 15
103 1 -21.6733 -10.6962 6.78143 16
104 1 -9.02501 -7.68201 -18.0941 14
105 1 -2.32233 -3.98542 -4.13373 19
106 1 -16.0822 -10.9983 3.44784 19
107 1 -21.6114 -8.23467 -1.68654 24
108 1 3.20016 8.63497 4.37055 15
109 1 1.05921 3.22235 -11.4442 15
110 1 -23.8372 -5.00217 -1.71127 19
111 1 -2.23164 9.93307 3.55457 24
112 1 -2.08324 12.6689 5.35066 20
113 1 -19.0372 4.50557 9.80027 22
114 1 -19.2893 15.4653 6.46174 15
115 1 -16.3772 14.9742 -8.14831 20
116 1 -12.473 -1.68465 -13.0519 20
117 1 -3.80853 -10.1713 -15.3104 8
118 1 -12.0327 18.3413 -11.5787 11
119 1 -3.16724 -1.8233 10.6369 14
120 1 -15.4404 3.13263 -18.3713 12
121 1 -15.3085 12.1177 -10.0176 20
122 1 -1.67199 0.685386 -8.43702 21
123 1 -24.1765 12.9666 -5.51272 17
124 1 -15.1314 18.0298 -3.47606 20
125 1 -3.6485 5.95152 -9.81659 23
126 1 -5.47153 -5.11754 0.337548 22
127 1 -18.3547 16.6004 8.90201 9
128 1 3.71295 8.68871 -6.36896 14
129 1 -4.7589 14.5414 -8.55584 23
130 1 -17.7646 18.929 1.34416 13
131 1 -1.30246 12.6238 -1.66212 19
132 1 -15.5563 12.2401 -6.82224 20
133 1 -9.45493 17.4439 -9.42762 16
134 1 -6.20091 12.6943 -14.4743 17
135 1 -23.8995 -4.53485 1.53721 21
136 1 -24.9473 10.186 -10.1466 14
137 1 -17.7681 -1.22811 -13.3002 20
138 1 -11.8405 -8.55676 -19.5925 10
139 1 -7.09595 19.0593 4.442 17
140 1 -13.0187 16.0971 6.32363 21
141 1 -24.5518 -1.4813 -6.5986 19
142 1 -27.2771 9.37171 -2.08215 12
143 1 1.53386 0.824288 -3.06406 18
144 1 -24.0832 3.54662 -13.4954 20
145 1 -8.01902 4.97216 16.78 13
146 1 -9.43415 23.4404 0.199436 13
147 1 -15.8401 12.3786 6.51136 22
148 1 -10.0515 -5.43002 -19.5549 12
149 1 -12.5544 19.0676 4.89098 19
150 1 -13.2989 15.1861 -9.91402 21
151 1 -13.4729 -4.34873 11.6643 15
152 1 -21.2738 -2.5962 1.71231 20
153 1 -12.6792 -10.4301 -15.1728 10
154 1 -22.1546 14.1857 -11.5401 12
155 1 -15.868 -8.28385 1.58908 20
156 1 -13.7952 -13.0567 -3.3088 16
157 1 -15.0785 11.2185 -16.5771 16
158 1 -26.7477 5.89664 2.56744 17
159 1 -5.07312 14.4258 -1.92711 22
160 1 -21.6221 8.87116 11.7499 12
161 1 -13.5064 -7.23376 10.0804 13
162 1 -9.53734 17.7686 2.90229 21
163 1 -13.7184 10.1947 6.7737 22
164 1 -0.527163 2.521 9.66913 16
165 1 -19.3139 15.8661 3.2669 18
166 1 -2.07232 -1.38128 -9.96986 17
167 1 -16.1248 17.9536 6.79672 17
168 1 -5.20941 -5.32628 -2.88716 21
169 1 -29.295 1.52447 -4.75963 12
170 1 -19.1444 -10.1216 -1.5578 22
171 1 -1.77756 10.4172 10.4817 16
172 1 -26.7977 0.13475 -3.23842 17
173 1 -15.5561 -10.7092 -3.74222 19
174 1 -12.6958 13.1264 1.49682 21
175 1 -12.1999 16.0697 9.88952 17
176 1 -19.3407 15.1666 -10.0662 15
177 1 -29.8111 -4.17011 -3.61347 12
178 1 -21.4085 3.42984 11.3198 20
179 1 -10.8203 -8.04184 1.50822 24
180 1 -8.41167 -10.0287 8.30884 9
181 1 -22.0338 14.9014 1.25446 13
182 1 0.362081 1.10894 6.88387 18
183 1 -16.3178 -4.97744 -16.565 15
184 1 -8.26411 4.52181 10.1814 23
185 1 -5.2886 -11.1081 6.93262 9
186 1 -15.2394 6.20601 -13.2278 19
187 1 -9.27232 -7.98906 -14.4861 17
188 1 -2.69052 5.4359 -16.3039 11
189 1 -9.712 9.07334 -15.0774 20
190 1 -21.7212 -2.44779 -11.4466 23
191 1 -18.1266 18.4529 -9.21991 8
192 1 -21.4402 -8.61843 8.65751 14
193 1 -7.50905 21.2775 -3.2696 18
194 1 -20.6861 6.57685 13.1544 12
195 1 -19.5546 15.7086 -6.64147 17
196 1 -5.54651 3.65759 8.88062 21
197 1 -15.8983 -5.1456 -13.2216 23
198 1 -15.1702 11.7658 -13.32 24
199 1 -10.2636 9.19858 -11.5042 21
200 1 -21.078 -8.22134 4.6745 22
201 1 -19.0214 10.3706 6.25431 23
202 1 -18.4782 13.0876 8.2429 18
203 1 -13.076 -7.30047 -9.8999 22
204 1 -20.2637 -13.7098 -1.52281 16
205 1 -5.16225 -10.9396 -3.18889 20
206 1 -2.81163 12.8838 12.1813 10
207 1 -7.42891 9.8323 -9.96411 21
208 1 -24.7853 16.087 -7.26263 9
209 1 -13.6334 7.58023 7.98744 21
210 1 -3.26145 -12.8235 1.05808 10
211 1 0.947261 3.01917 -7.90073 23
212 1 -23.6727 6.97855 1.25208 19
213 1 -23.9437 -4.38209 -5.02311 19
214 1 -3.28906 6.69411 -13.2444 18
215 1 -11.0607 0.779495 10.3329 21
216 1 -4.94017 14.461 -5.52246 22
217 1 -14.9181 0.404309 -12.7139 21
218 1 -11.0647 -13.6499 1.3484 15
219 1 -4.78792 3.52991 -11.5106 21
220 1 -23.5039 1.18483 1.45426 22
221 1 -9.38921 -14.0226 -8.29213 11
222 1 -21.7786 -2.07334 -8.64906 20
223 1 -6.71367 18.3995 -5.12411 17
224 1 -13.2596 1.23245 -14.9184 20
225 1 -5.16761 9.16986 15.2136 16
226 1 4.05266 6.34777 -1.05734 13
227 1 -4.93355 -3.55524 -16.2401 15
228 1 -17.9324 1.59173 -11.4227 21
229 1 -21.7176 6.10079 -13.6907 21
230 1 -19.1569 -12.7513 6.53396 12
231 1 -2.87908 1.53155 8.79344 23
232 1 -19.2311 -4.26798 -14.8854 15
233 1 -9.76115 11.8111 -13.1262 22
234 1 -10.3812 14.967 -1.8064 20
235 1 -21.6195 0.37732 10.0543 22
236 1 -25.241 -9.49354 -6.74261 14
237 1 -18.5621 -4.07217 -11.7256 21
238 1 -14.8971 14.3431 -15.1671 12
239 1 -18.1045 -7.23918 -6.78997 22
240 1 -4.68299 -5.22947 -13.3894 19
241 1 -1.86573 4.1877 -13.0457 17
242 1 -1.51308 6.96505 -1.291 22
243 1 -21.0802 -2.18672 8.23655 22
244 1 -16.0655 -8.24683 -1.77057 21
245 1 -2.93419 4.32993 10.3767 23
246 1 -24.8786 -9.63238 5.12528 14
247 1 -13.4057 -10.1182 -1.79952 19
248 1 -15.3377 20.7751 -1.38686 12
249 1 -10.2976 0.632784 -16.4421 20
250 1 -18.8002 1.22205 -14.7308 18
251 1 -24.4136 -4.25136 7.47266 15
252 1 -13.4513 10.6255 9.85276 20
253 1 -9.69419 -11.1344 -3.39816 23
254 1 -17.7662 -9.92421 -11.9573 15
255 1 -23.436 6.91772 -11.831 21
256 1 -1.66161 7.09431 2.10414 24
257 1 -17.8882 6.99713 -11.4762 19
258 1 -7.12416 10.2981 -13.3633 18
259 1 -7.23453 -12.9079 -10.0961 12
260 1 -21.4486 16.8738 -9.43299 11
261 1 -9.94206 12.3389 3.0522 21
262 1 -1.94957 4.5311 3.63573 23
263 1 -21.67 3.43122 4.47729 22
264 1 -15.6085 -2.4217 11.8307 17
265 1 -21.28 11.8625 -0.00341647 20
266 1 -9.82234 -2.49675 -15.1161 19
267 1 -1.16499 17.2833 -5.11658 13
268 1 -5.62852 -10.5706 0.0244477 22
269 1 -15.6536 0.249101 13.3417 17
270 1 -26.7824 -3.10875 1.58232 16
271 1 -11.0432 -13.6028 -4.99005 16
272 1 -18.7903 7.66862 10.9571 21
273 1 -21.6757 6.51772 9.31893 23
274 1 -24.2947 1.5788 4.84248 22
275 1 -26.1612 -6.38288 5.12829 15
276 1 0.527078 -1.7081 -4.51187 18
277 1 -23.5316 -4.80655 4.80926 20
278 1 -4.4486 0.400125 -9.89729 23
279 1 -3.01865 -10.6234 -8.81153 15
280 1 -9.36776 17.6173 -6.28913 19
281 1 -21.9309 15.2071 -5.38136 13
282 1 -2.48305 12.8641 8.52367 17
283 1 -7.23492 -9.83124 -5.09489 22
284 1 -18.0411 12.9264 1.03576 21
285 1 -8.30932 -6.8528 6.52578 23
286 1 -3.00004 -4.03079 2.12596 22
287 1 -9.01664 -0.962615 13.7134 13
288 1 -13.4094 15.8632 2.99963 20
289 1 -5.33789 12.36 13.5752 12
290 1 -22.2444 14.3212 -8.42068 20
291 1 -12.9227 -5.18799 -18.306 17
292 1 -6.75916 -9.08949 -16.0634 11
293 1 -24.6996 6.89758 8.20204 15
294 1 -27.4348 3.8217 -4.91822 16
295 1 -18.0718 12.9184 -1.8291 21
296 1 -5.81928 0.778076 6.9904 24
297 1 -23.981 -10.4695 -1.16809 15
298 1 -8.4693 -3.81118 5.12971 23
299 1 -21.4331 -5.43371 10.0333 13
300 1 -25.6565 12.8107 -8.15372 15
301 1 -9.61014 -7.95591 -8.089 21
302 1 -18.7037 -1.24723 -10.023 21
303 1 -4.9165 3.01467 -17.8532 12
304 1 -7.73914 15.5139 2.83787 21
305 1 -23.954 1.07255 -5.10857 20
306 1 -7.52749 -10.371 -11.734 16
307 1 -5.18811 6.69906 -16.1937 13
308 1 -18.526 -12.8676 -10.3535 13
309 1 -26.9331 -4.24319 -9.43547 13
310 1 -2.47739 7.20213 15.0792 14
311 1 -2.32101 3.50094 -6.67412 22
312 1 -18.2603 9.82827 -13.5718 22
313 1 -12.3973 21.7072 -0.910116 16
314 1 -29.4186 1.41704 -7.79702 14
315 1 -24.3536 12.5552 1.16227 12
316 1 -21.2594 11.9573 -3.72424 19
317 1 -21.4183 12.3534 2.77995 19
318 1 2.21752 7.78978 7.94639 11
319 1 1.55573 -3.08295 -9.62167 10
320 1 -3.39972 -1.20796 14.0521 9
321 1 -1.86763 3.43887 -9.9465 22
322 1 -18.0521 -12.5834 -3.70974 16
323 1 -7.9186 -6.86598 -3.31418 21
324 1 -2.75156 1.61574 5.41593 21
325 1 -20.9631 -5.39617 -6.56704 20
326 1 -18.2903 -7.25084 0.0680766 22
327 1 -26.0241 0.529678 10.1204 13
328 1 -14.7529 20.8468 1.34662 16
329 1 -29.7941 -7.37494 -2.26839 11
330 1 -8.29679 13.0171 11.6668 15
331 1 -22.1234 9.37082 -5.49642 19
332 1 -10.3857 14.5626 -7.8885 20
333 1 -7.40548 12.8344 4.86833 20
334 1 -26.0643 -6.25199 -6.53736 16
335 1 -15.9575 -5.48044 -9.94241 20
336 1 -27.6287 2.89457 -1.83483 16
337 1 -25.0924 9.88441 -6.71967 16
338 1 -8.19623 -6.96185 3.15369 23
339 1 -18.164 -10.1261 -5.25117 20
340 1 -4.93081 18.0459 6.64506 12
341 1 -4.41898 9.59447 -14.7735 15
342 1 -25.4334 6.2266 -13.7899 11
343 1 -12.1794 17.784 -8.01751 17
344 1 -23.8832 6.56004 -8.64852 17
345 1 -13.7152 -10.4449 1.54192 21
346 1 -2.46104 7.19193 5.30154 21
347 1 -7.96834 14.3227 -13.0748 17
348 1 29.5567 4.27792 -6.1269 9
349 1 -18.8522 -10.4276 1.67405 22
350 1 -6.48699 -7.40684 -12.9454 15
351 1 -26.29 -0.0918083 3.32768 13
352 1 -26.466 2.81013 1.77985 17
353 1 -27.4511 8.88329 1.65753 11
354 1 -21.4375 3.70563 -15.0358 18
355 1 -4.3633 -8.23603 -4.88509 19
356 1 -13.4963 -10.0192 -11.6856 20
357 1 -16.0002 -2.13699 8.57053 22
358 1 -17.9787 9.62937 -16.5511 15
359 1 -8.01126 -9.86361 1.52397 23
360 1 -6.8063 12.498 -8.03075 20
361 1 -24.7349 9.72535 3.27087 18
362 1 -18.7886 1.49431 11.4974 22
363 1 -25.387 -7.37675 -9.55849 14
364 1 -23.7107 -1.67015 9.85449 15
365 1 -5.79482 -2.24054 8.7642 16
366 1 -5.61622 -4.98401 3.67026 23
367 1 -0.934926 12.2387 -5.06728 20
368 1 -16.3943 6.39309 9.80472 23
369 1 -10.7394 15.1539 -5.06447 21
370 1 -15.5247 -10.9595 -6.99974 21
371 1 -13.4414 7.15335 15.0638 15
372 1 -12.6226 18.6164 1.55715 21
373 1 -20.4441 -8.33371 -8.47826 20
374 1 -4.2374 22.0928 -2.03473 11
375 1 -8.26947 10.1545 6.66658 21
376 1 -18.9755 4.52243 6.52731 23
377 1 -24.2948 3.87037 6.71175 17
378 1 -20.8597 -5.25233 -9.95149 21
379 1 -19.1392 10.2041 2.96451 22
380 1 -15.4404 -8.25735 -8.34726 22
381 1 -13.128 -4.47313 -15.0592 23
382 1 -23.3501 -13.059 -2.96066 10
383 1 -2.85697 4.11844 7.03654 20
384 1 -18.6205 -1.11365 13.2618 14
385 1 -20.2606 6.0009 -16.6446 10
386 1 -1.99367 9.57856 -3.29314 20
387 1 -23.489 -10.2825 -4.58341 17
388 1 -12.4846 21.8408 3.69378 11
389 1 -17.9512 11.4129 11.3148 15
390 1 -27.042 -5.75592 -3.30115 17
391 1 -13.0942 21.1707 -3.6677 12
392 1 -3.70369 17.0325 -10.6678 10
393 1 -18.4892 -7.272 -10.4542 21
394 1 -10.7623 4.30398 15.24 15
395 1 -15.6587 -13.8659 -9.05208 12
396 1 -10.2468 -2.59887 -11.5458 21
397 1 -5.11485 -10.6707 3.32801 16
398 1 -25.0143 9.73806 -0.0311543 21
399 1 -5.70937 6.61361 13.6592 23
400 1 -3.93938 11.7683 -3.38039 22
401 1 -19.0814 9.729 -9.92349 19
402 1 -26.8054 -2.65373 -4.87717 19
403 1 -9.67945 20.4075 4.66749 14
404 1 -15.9197 3.21042 -14.9342 21
405 1 -1.99313 9.85638 -0.0147159 21
406 1 -3.68572 17.1287 -7.11302 17
407 1 3.39322 3.6182 -3.35174 15
408 1 -10.3824 3.30724 -14.4043 20
409 1 -13.5004 -10.2835 4.65366 21
410 1 -11.0847 -5.49288 10.2738 13
411 1 -21.2189 5.90666 -10.011 20
412 1 -24.3251 -10.19 2.09312 14
413 1 -14.9354 -7.51415 -15.2528 15
414 1 -7.23215 22.0379 2.6148 10
415 1 -9.7398 6.34024 -12.9148 22
416 1 -10.2829 -2.50919 12.0035 15
417 1 -23.888 -1.59037 6.43048 22
418 1 -13.9046 -13.7552 -0.102026 13
419 1 -23.7585 -1.66894 -0.0299001 20
420 1 1.69096 -0.694927 -7.74697 15
421 1 -1.58756 1.22078 -4.95359 21
422 1 -10.2216 -5.44673 -10.1667 21
423 1 -7.69793 4.17283 -13.1573 22
424 1 -1.57553 -4.32472 -14.8592 11
425 1 -16.49 3.52792 11.3259 25
426 1 -4.00842 17.4999 -0.219775 19
427 1 -15.9648 0.370634 -15.9954 18
428 1 -10.4732 5.8531 -16.6894 18
429 1 -18.4608 -1.51302 6.82602 20
430 1 -18.0105 18.5216 -1.93582 14
431 1 -21.0396 -2.57655 -14.1452 15
432 1 -29.4366 -1.49613 -5.88887 14
433 1 -12.1509 -7.59174 -16.6269 20
434 1 -18.8419 -7.17027 10.2031 14
435 1 -12.655 12.8905 -8.23541 21
436 1 0.787252 11.6949 4.1811 15
437 1 3.57708 6.53719 2.49055 11
438 1 -20.5868 -13.8513 -8.48233 11
439 1 -17.9279 -2.03765 -16.2424 14
440 1 -16.0259 15.1932 4.63001 25
441 1 -1.89704 1.59808 -1.58583 22
442 1 -6.43439 17.8045 -11.5884 12
443 1 0.985947 8.30669 -8.01213 22
444 1 -13.3833 10.8139 12.983 19
445 1 -21.9097 6.42123 6.19207 22
446 1 -7.71722 12.7681 8.26333 18
447 1 -5.65701 0.408268 13.6368 19
448 1 -7.56585 7.14104 -17.9616 14
449 1 -13.6137 1.86899 11.8467 21
450 1 -4.71876 11.8989 3.42166 22
451 1 -3.61218 11.7023 -6.82528 21
452 1 -21.2926 11.8644 -6.9356 20
453 1 -16.4122 14.8949 -5.21001 22
454 1 -2.8531 1.54454 11.7542 18
455 1 -1.69604 1.17069 -12.1967 18
456 1 -2.10479 -7.18456 -3.06894 15
457 1 -3.39851 16.104 9.0704 9
458 1 -27.3142 -6.01882 0.19852 21
459 1 -16.3448 9.16207 -11.7281 19
460 1 -29.8711 -8.30149 0.57299 11
461 1 -13.5991 15.5994 -13.0704 15
462 1 -7.92771 -12.7398 -6.37441 20
463 1 -7.06268 1.37664 -11.4144 19
464 1 -12.3504 18.4651 -5.22428 21
465 1 -21.3639 -5.70885 -12.9693 15
466 1 -10.7152 -10.9625 2.9228 22
467 1 -23.9962 -1.58099 -3.32539 18
468 1 -10.7359 14.4872 -14.4293 15
469 1 -15.6234 9.61918 14.9648 13
470 1 -20.9376 -2.50113 5.03383 21
471 1 -10.3196 -8.10183 -11.5707 19
472 1 -8.05599 -4.2172 8.50138 16
473 1 -21.9445 9.45357 -1.92002 19
474 1 -5.11389 6.13733 16.5656 14
475 1 -10.086 20.6715 -5.03174 15
476 1 -2.17539 -2.24278 -6.41611 20
477 1 -10.9067 9.57509 8.24352 21
478 1 -9.57371 9.76084 -18.79 11
479 1 -16.1936 -11.4597 6.77939 16
480 1 -9.57596 -1.25927 -18.5522 15
481 1 -10.939 20.7158 1.82314 18
482 1 -1.72966 9.46556 -12.6969 16
483 1 -15.3335 -2.25316 -14.8683 21
484 1 -15.2012 -7.86776 -5.03183 24
485 1 -23.7689 -1.14631 -14.1346 13
486 1 1.34743 5.89783 -2.86124 22
487 1 4.55791 6.38003 -4.23601 13
488 1 -2.07591 -4.56851 -11.5097 20
489 1 -0.355834 8.77486 8.74195 17
490 1 -7.10558 -6.92631 -6.58987 23
491 1 -6.95758 10.0045 -16.38 16
492 1 -5.19357 14.5276 1.40105 21
493 1 -5.52497 14.794 11.4275 12
494 1 1.18447 14.4167 -4.9948 14
495 1 0.58917 3.39451 -1.23405 18
496 1 -0.793429 5.85683 -7.86079 21
497 1 -2.59724 7.35542 11.7556 19
498 1 -0.121505 5.93174 10.3709 14
499 1 -2.525 14.7031 -3.5948 20
500 1 -11.2493 6.47353 12.9136 19
501 1 0.874045 0.331211 -10.3473 17
502 1 -8.22705 4.71317 13.4445 20
503 1 -21.1031 0.551417 -10.0476 21
504 1 0.694372 6.20942 3.89164 22
505 1 -24.8014 9.5153 6.70063 13
506 1 -4.7326 12.1183 6.82734 21
507 1 -5.53244 6.41738 10.4246 22
508 1 -10.5689 12.2277 6.39328 19
509 1 -13.1291 18.5756 8.22308 13
510 1 -13.7405 -13.2081 3.37776 14
511 1 -18.6028 12.7765 -5.19332 21
512 1 2.31114 10.874 -9.32843 11
513 1 -3.53317 -2.14473 -14.5455 15
514 1 -12.5458 18.7281 -1.88788 23
515 1 -12.6763 -10.1918 -8.80463 20
516 1 -2.66264 -7.34118 -13.6729 16
517 1 -25.1805 6.54182 4.94984 18
518 1 -15.069 8.91823 -15.0959 21
519 1 -16.2998 -10.9172 -0.162847 22
520 1 -18.6777 4.44784 -13.165 22
521 1 -24.7547 4.14411 -6.73636 22
522 1 -2.80514 -1.27636 0.38808 22
523 1 0.702122 9.00482 -1.45371 18
524 1 -13.3745 -7.61847 3.29901 21
525 1 -24.8408 -1.8477 -9.66087 18
526 1 -12.4855 4.00364 -19.1898 12
527 1 -13.7357 7.42534 11.415 21
528 1 -3.30073 12.3433 -13.1856 13
529 1 1.59912 3.86381 8.73022 11
530 1 -1.85537 8.58334 -9.76446 23
531 1 -2.26454 15.3394 0.229115 15
532 1 -9.96536 -10.8691 -10.0651 19
533 1 -21.5582 0.611065 13.2334 13
534 1 0.330888 0.27741 0.436774 15
535 1 -14.8871 17.0151 10.4823 11
536 1 -5.67619 16.4351 -14.2582 9
537 1 -24.729 15.341 -10.0509 11
538 1 -1.52451 12.2894 1.83879 19
539 1 -23.2133 -7.46842 -6.64739 21
540 1 -0.161405 -1.92484 2.26497 15
541 1 -6.7252 21.621 -0.33707 17
542 1 -16.3235 9.33121 7.88838 21
543 1 -24.3154 -7.51808 -3.44584 20
544 1 -21.8194 3.31635 -11.7046 22
545 1 -5.25143 3.36314 12.0672 20
546 1 -16.2279 -5.23938 9.79331 19
547 1 -2.357 9.85474 13.5508 14
548 1 -19.1045 15.8818 0.0890418 18
549 1 -13.2914 0.800946 -18.395 16
550 1 -21.3495 0.588972 6.43268 22
551 1 -4.28709 0.395244 -12.7728 18
552 1 -4.57244 -5.24137 -9.59851 18
553 1 -5.62027 6.42322 6.96711 21
554 1 -18.9218 4.27767 13.1174 14
555 1 -2.60911 9.9534 6.8786 23
556 1 -12.6641 -1.28967 13.507 13
557 1 -16.1916 9.19255 11.1259 23
558 1 -12.5634 -1.59947 -16.6152 20
559 1 -21.2741 3.3491 7.78611 19
560 1 -11.1384 3.70869 11.8086 21
561 1 -26.877 -8.18414 2.25233 18
562 1 0.937277 9.08267 -4.59196 19
563 1 -7.23243 -10.1459 -8.24487 22
564 1 -6.74236 12.4578 -4.82947 23
565 1 -4.21235 20.4589 1.12589 12
566 1 -10.7253 0.615443 -19.9216 11
567 1 -9.56911 17.8106 -3.16884 20
568 1 1.63047 11.7779 -2.96844 12
569 1 -18.893 -7.29777 -3.34955 20
570 1 -13.2253 3.9725 -16.268 23
571 1 -21.4 14.5221 -1.91365 16
572 1 -4.65832 -8.16866 -11.3605 19
573 1 -0.58907 11.282 -8.32915 23
574 1 -3.27089 19.6838 -2.15834 13
575 1 -3.14634 4.71753 13.5287 17
576 1 -5.71969 3.42898 15.1815 22
577 1 -13.3416 -7.23784 6.76376 24
578 1 -17.6931 12.585 -15.062 14
579 1 -14.6304 13.6301 11.5149 18
580 1 -5.48762 -11.847 -13.9421 8
581 1 0.0833424 16.7122 -7.6608 10
582 1 -5.2398 14.8925 4.73584 21
583 1 1.92484 -3.38518 -6.51534 11
584 1 -5.19286 9.39607 11.9695 23
585 1 -27.5848 -2.4007 -1.52566 14
586 1 -4.8335 -13.7257 -4.79503 10
587 1 -18.0504 17.8458 -5.29977 12
588 1 -7.02542 12.6106 -1.76124 21
589 1 -23.8324 -1.84025 3.2966 21
590 1 -10.2148 10.1753 15.1757 11
591 1 -20.9657 11.558 -13.5382 16
592 1 -16.3829 14.9792 -11.969 15
593 1 -6.36491 -14.692 -0.148925 9
594 1 -2.08999 8.57079 -6.61578 21
595 1 -23.9197 4.16828 9.71495 14
596 1 -7.21758 -1.61542 -16.3209 20
597 1 -10.3597 -8.20092 8.14913 14
598 1 -7.91982 15.531 -3.55589 21
599 1 -13.6717 4.49558 13.3834 20
600 1 -22.3978 -7.98768 -11.0184 14
601 1 -18.504 -7.06687 -13.5175 18
602 1 -20.4264 -11.1911 -11.3528 13
603 1 -7.78484 15.1593 -9.80268 22
604 1 -16.2587 15.1759 1.28434 20
605 1 -7.2745 -7.24721 -9.75181 18
606 1 -3.49516 -13.1538 -1.64137 11
607 1 -10.721 -5.12125 6.67253 22
608 1 3.06102 3.86009 -6.34812 15
609 1 -17.7589 -12.8158 -6.6463 20
610 1 -23.9639 1.25124 7.74866 20
611 1 -16.4609 -13.8898 -2.11131 12
612 1 -21.1852 -11.0208 -3.22708 21
613 1 -24.4543 2.64838 12.5831 9
614 1 -20.3617 -14.167 1.87111 10
615 1 3.70973 9.3077 -2.67532 11
616 1 -15.488 18.1757 -0.176927 19
617 1 -26.681 6.3198 -0.621679 16
618 1 -2.10617 1.52818 1.94129 23
619 1 -23.729 0.814959 -11.6345 23
620 1 -0.25718 6.38603 -11.291 18
621 1 -6.0777 15.1509 7.87971 19
622 1 -23.7966 1.18623 -8.30028 21
623 1 -23.8108 -4.57189 -8.22273 22
624 1 -10.8466 7.24807 16.9399 11
625 1 -4.66974 8.89415 -11.4112 19
626 1 -4.97164 17.4179 3.08368 17
627 1 -16.428 3.47025 8.16099 22
628 1 -10.7795 -10.8171 -0.093437 23
629 1 -21.0261 -13.6087 4.85664 10
630 1 -2.53181 15.7868 6.56828 12
631 1 -10.2458 -5.197 -13.1965 21
632 1 -7.2576 12.5042 1.51255 20
633 1 -21.1861 -5.33273 6.62081 20
634 1 -3.55759 11.6015 -10.1145 20
635 1 -13.8614 -13.2908 -6.58785 15
636 1 -3.64917 -13.188 4.58874 6
637 1 -7.77138 -13.3821 -3.36564 15
638 1 -6.93496 7.27404 -11.4167 21
639 1 -7.23975 24.478 -1.98297 9
640 1 -16.1756 6.09104 -16.7702 18
641 1 -13.6627 4.60093 9.81837 22
642 1 -9.41757 11.7404 -16.5225 15
643 1 -24.8408 1.85603 -15.4776 10
644 1 -21.7716 -2.36043 -5.07306 21
645 1 -6.48434 17.6608 -8.44415 16
646 1 -15.207 -3.05612 -18.1447 13
647 1 -1.32011 6.65071 -4.94736 21
648 1 -1.81893 -7.79555 -6.80485 15
649 1 -16.9859 6.59258 13.6657 16
650 1 -8.13769 -6.86321 -0.135638 24
651 1 0.605507 -5.01783 -3.21884 12
652 1 -2.84933 -1.16568 7.35815 20
653 1 -12.8607 13.1004 4.94094 21
654 1 -23.2737 5.93813 11.7716 12
655 1 -18.9795 7.38085 7.96303 22
656 1 -13.6125 -9.75374 7.94099 16
657 1 -5.03863 12.1144 10.043 21
658 1 -26.4225 -0.150208 -0.0157095 16
659 1 -3.97936 -5.2253 -6.2071 21
660 1 -21.4339 11.3207 -10.1523 21
661 1 -11.1135 -10.966 6.23938 12
662 1 -8.09605 1.6877 15.2 13
663 1 -9.82084 20.4601 -1.4097 21
664 1 -10.7953 -8.1924 4.92143 21
665 1 -10.9175 6.31768 9.73769 22
666 1 -27.5174 -1.26109 -8.19449 16
667 1 -13.6606 12.6773 14.9841 11
668 1 -7.56144 15.6369 -0.235886 20
669 1 -21.3024 -8.12826 1.60201 24
670 1 -17.6054 -13.4684 3.40344 14
671 1 -5.62358 -2.15047 5.40718 21
672 1 -2.8992 -6.79143 3.30015 12
673 1 -5.42061 8.99834 5.02832 21
674 1 -13.24 -4.51665 -11.3777 23
675 1 -13.1467 4.37909 -13.1048 21
676 1 -15.9414 0.654947 10.0152 23
677 1 -9.68148 17.8635 -0.150172 20
678 1 0.704372 3.3303 2.00803 17
679 1 -9.58797 12.0329 -9.95193 22
680 1 -18.5755 9.46978 13.4607 13
681 1 -5.36162 9.28613 8.46249 21
682 1 -4.46304 -2.6783 -11.5258 20
683 1 -20.6546 -13.7756 -5.02491 15
684 1 0.162403 0.541572 3.78946 17
685 1 -9.68466 0.420402 -13.2907 20
686 1 -8.47751 7.34443 11.7284 21
687 1 -2.66909 -10.1392 -12.4217 12
688 1 -10.0968 6.55798 -19.6904 10
689 1 0.986425 9.36099 -11.2887 12
690 1 0.936014 -2.04171 -1.23845 14
691 1 -10.7802 -2.34319 8.53167 23
692 1 -15.6411 -7.90293 -11.7697 19
693 1 -6.79616 18.454 -1.84261 20
694 1 -23.6423 4.37972 2.68216 18
695 1 2.13645 12.0764 -6.25064 15
696 1 0.418801 9.31061 2.25522 19
697 1 -12.1871 -2.56622 -19.8529 12
698 1 -18.1754 13.0365 4.41935 21
699 1 0.192796 11.2973 7.53183 13
700 1 -2.10727 14.5873 -6.8999 22
701 1 -7.57334 4.13497 -16.397 18
702 1 -1.7629 -1.30214 -2.87849 20
703 1 -24.4265 4.03608 -3.41249 18
704 1 1.0827 6.31137 0.626142 22
705 1 -24.1211 -7.69118 -0.0030238 22
706 1 -24.8137 12.243 -11.4871 11
707 1 -8.22777 7.48277 8.26282 24
708 1 -21.8357 3.41214 -8.5499 20
709 1 -27.2627 8.3419 4.84829 10
710 1 -4.43073 -7.90545 -7.95248 19
711 1 -28.6043 -4.18026 -6.58133 13
712 1 -1.48659 -4.13593 -1.05737 17
713 1 -26.736 6.115 -3.65175 17
714 1 0.257821 8.70253 5.25413 23
715 1 -18.4207 -4.2242 5.08683 21
716 1 -2.62739 4.04225 16.5695 10
717 1 -0.624685 -1.74118 5.78485 15
718 1 -24.7819 4.35356 -0.407775 20
719 1 -10.1591 12.2093 9.80156 22
720 1 -1.77212 14.2377 -9.85917 18
721 1 -15.0894 -7.09757 -18.6224 8
722 1 -18.2809 18.052 4.94685 12
723 1 -23.5258 -7.74306 6.26526 18
724 1 -0.139565 12.2935 -11.9026 13
725 1 -10.6148 9.44708 11.8842 18
726 1 3.32236 1.91514 -9.09086 12
727 1 -5.67575 -5.14322 6.69302 17
728 1 -12.4506 12.2668 -14.9774 18
729 1 -6.31233 12.1344 -11.3364 23
730 1 -18.8119 1.34662 8.3285 22
731 1 3.12905 8.61725 0.585126 16
732 1 -15.6691 -2.49277 -11.3479 22
733 1 -1.21199 16.7791 -1.89757 12
734 1 -26.5957 1.03897 -6.49025 22
735 1 -16.1698 -8.47798 8.7722 16
736 1 -9.26482 17.1491 -12.7583 14
737 1 -8.3601 1.58876 8.78416 22
738 1 -12.5251 -10.2081 -5.28169 23
739 1 -15.037 20.2302 5.9189 10
740 1 -26.8162 6.53217 -7.24061 14
741 1 -2.72161 1.80064 -15.5739 12
742 1 -10.0788 -10.3641 -16.7914 12
743 1 -21.6979 9.19536 1.68837 20
744 1 1.19235 13.8886 -8.55278 15
745 1 -7.40399 -4.41068 -14.8512 19
746 1 -21.1249 -9.31105 -13.5354 10
747 1 -9.98406 -8.34088 -4.92058 22
748 1 -16.5162 12.3152 13.4859 13
749 1 -10.1466 -10.768 -6.71078 21
750 1 -12.4335 9.48478 -17.0007 18
751 1 1.62431 1.43849 -5.77498 17
752 1 -4.07287 11.934 0.0106457 23
753 1 -11.0204 -13.9857 -1.93023 14
754 1 -10.2796 -5.40084 -16.2899 20
755 1 1.88253 6.25969 -5.93197 22
756 1 -12.2421 7.03409 -14.6818 21
757 1 -15.8247 -5.39112 6.8156 20
758 1 -4.63002 8.95483 -8.23901 22
759 1 -23.791 6.83416 -5.21619 20
760 1 -27.1117 4.38875 4.77295 14
761 1 -7.83705 10.498 13.3415 16
762 1 -18.5775 -7.15194 6.66817 22
763 1 -10.3885 14.9756 1.25139 21
764 1 -8.3435 -12.5751 -0.441275 20
765 1 -7.42192 15.3468 -6.60247 20
766 1 -16.029 12.0541 9.60344 20
767 1 -16.549 3.19137 14.7714 12
768 1 -21.9807 14.8526 4.52581 11
769 1 -19.1625 -4.43478 11.8197 13
770 1 -8.14824 -9.87899 4.75995 21
771 1 -2.93862 6.95083 8.77418 22
772 1 -4.85648 -2.08033 -8.34243 20
773 1 -4.32451 -12.1558 -11.2102 11
774 1 -22.3107 1.17732 -16.3937 10
775 1 -13.043 6.63034 -18.2283 14
776 1 -7.66353 16.4421 6.18714 16
777 1 -24.3413 -0.305426 12.7218 11
778 1 -18.3809 12.5157 -8.3391 20
779 1 -27.5519 3.98168 -8.37154 18
780 1 -4.24322 17.4119 -3.56537 19
781 1 -21.6248 -11.0087 3.51032 19
782 1 -2.79679 14.6875 3.26445 14
783 1 -23.2497 -10.1926 -9.14805 14
784 1 -10.2105 17.6279 5.86536 17
785 1 -19.0944 1.2289 14.7562 12
786 1 -18.0467 -9.90815 -8.64856 22
787 1 -5.51925 0.419021 10.4598 22
788 1 -8.00246 -12.8532 2.79202 14
789 1 -11.8381 13.7133 12.2758 13
790 1 -4.91861 0.0802627 -16.9348 14
791 1 -5.2862 -8.13094 -1.3595 21
792 1 -7.51531 1.57646 -14.7778 20
793 1 -26.4873 0.570646 -13.6437 11
794 1 -23.676 9.27802 -13.3064 15
795 1 -19.6371 9.98607 9.6379 17
796 1 -2.80302 -1.31068 3.62907 22
797 1 -21.0686 -5.41074 0.00823605 22
798 1 0.0886845 3.53953 -4.51509 22
799 1 -12.1594 9.76912 -13.5042 22
800 1 1.19285 11.5596 0.493348 14
801 1 -15.5728 15.2231 8.15249 21
802 1 -28.6106 -6.05497 3.01625 12
803 1 -5.44073 -12.9927 -7.93331 14
804 2 -23.9321 2.84462 -11.6843 24
805 2 -18.2106 15.0838 -1.98031 21
806 2 -9.5711 1.55457 -14.9036 19
807 2 -17.9886 9.43835 10.896 21
808 2 -10.3989 -12.7391 -9.19982 15
809 2 -25.2773 -5.30567 -9.70664 15
810 2 -12.3882 3.31403 14.6133 15
811 2 -3.97554 2.93218 16.3968 10
812 2 -23.8379 -8.33651 -1.83991 19
813 2 -24.8732 6.33652 -6.98049 20
814 2 -9.695 15.9366 -0.208408 21
815 2 -23.8761 3.45547 -1.64467 19
816 2 -7.45719 17.5543 -10.0043 15
817 2 -2.19039 6.39104 0.538224 22
818 2 -12.4742 15.0694 -8.25586 22
819 2 -6.49409 20.2205 -4.74208 16
820 2 -24.7904 -0.0625851 -13.0026 17
821 2 -27.2312 -5.22784 -7.64806 13
822 2 -10.1841 7.14826 8.1074 21
823 2 -4.02185 -1.60706 -10.1291 20
824 2 -9.87719 -12.6478 2.51091 16
825 2 -19.3845 12.2922 -3.62645 20
826 2 -26.9049 5.96191 -9.00322 13
827 2 -2.61717 6.39952 3.52713 22
828 2 -2.44531 -8.32651 -11.9059 15
829 2 -24.0675 -11.2123 -7.76925 12
830 2 -20.4636 -1.13226 3.37401 20
831 2 -18.4476 -11.148 0.0311645 19
832 2 -6.01105 -7.09993 6.81382 14
833 2 -16.548 -12.7699 -10.4115 15
834 2 -8.32043 -1.9715 12.047 14
835 2 -10.5518 12.6283 -11.5326 23
836 2 -12.789 -11.5164 3.20612 20
837 2 -25.8375 -7.96843 -7.65885 12
838 2 -10.4099 7.50956 11.4977 21
839 2 -21.3389 9.88567 -0.0860069 21
840 2 -13.1386 6.58499 13.2927 18
841 2 -21.0641 15.2088 -3.79265 15
842 2 -1.96105 -8.25761 -1.41369 11
843 2 -9.66764 15.3501 -9.45751 22
844 2 -5.29933 18.4508 4.78619 13
845 2 -6.02895 20.9497 1.42759 13
846 2 -4.80921 -1.48853 -13.2853 20
847 2 -21.0892 14.6163 6.19031 11
848 2 -7.69165 9.21963 -14.8206 22
849 2 -16.2454 10.2225 -13.5015 21
850 2 1.00321 12.5857 -4.7678 14
851 2 -18.6607 -2.57886 12.0375 14
852 2 -26.627 8.98062 3.2184 15
853 2 -0.176232 -0.258568 -11.9351 14
854 2 -23.1482 -2.7358 8.14508 21
855 2 -10.7056 -10.525 -15.151 12
856 2 -12.4785 0.378113 -16.6702 19
857 2 -28.7426 -4.83995 1.3214 14
858 2 -1.94357 11.915 -3.55187 18
859 2 -16.2946 13.2008 1.25799 20
860 2 -19.4564 -10.2185 -12.9499 12
861 2 -15.5998 15.8787 2.94509 21
862 2 -3.92548 0.00764187 15.2069 10
863 2 -10.0662 -4.43903 8.97478 18