ITEM: TIMESTEP
2000
ITEM: NUMBER OF ATOMS
500
ITEM: BOX BOUNDS pp pp pp
-30.0 30.0
-30.0 30.0
-30.0 30.0
ITEM: ATOMS id type x y z Coordination
1 1 7.7046 -4.45657 6.79717 10
2 1 1.71044 3.59771 9.16153 11
3 1 -2.8854 -1.15832 -7.5837 22
4 1 -9.3379 0.39341 -2.29467 14
5 1 1.50067 1.13995 -9.20951 16
6 1 7.17319 -8.20912 -4.17957 11
7 1 7.75176 1.18177 7.26197 11
8 1 3.01143 5.92522 7.82677 12
9 1 -8.52375 -2.32488 -0.413743 17
10 1 8.48382 -2.23945 -1.45538 16
11 1 5.05849 -1.32505 7.5701 14
12 1 -8.10694 -9.18149 2.70406 9
13 1 -1.39009 -3.98664 -7.91682 16
14 1 5.80868 -3.59814 -6.81158 16
15 1 6.96334 -8.66613 1.42641 12
16 1 -4.37819 8.87832 5.49711 13
17 1 2.67156 11.1898 1.70593 13
18 1 -1.32193 -2.73279 -11.6967 9
19 1 -0.0958738 4.50039 7.24134 16
20 1 -3.9883 6.0721 4.31179 22
21 1 2.58686 6.28788 -6.1807 21
22 1 7.8825 5.38403 2.48506 14
23 1 -2.81885 6.02194 -5.47784 16
24 1 -6.21842 2.97653 -6.86046 15
25 1 -0.766929 7.83934 -3.43822 17
26 1 -9.22022 3.20182 0.084947 14
27 1 -0.219179 10.5342 4.21144 10
28 1 -4.27398 1.7729 -9.26505 13
29 1 -5.89684 -7.1667 4.52207 20
30 1 4.79524 -9.47789 -4.38842 11
31 1 -7.91313 -3.28427 -6.28741 10
32 1 -0.959871 -9.30324 2.17241 17
33 1 5.38349 4.28195 -5.74526 18
34 1 -4.11155 -5.26943 -5.78626 17
35 1 1.78842 4.79623 -10.3866 9
36 1 0.413611 9.98686 -0.975857 12
37 1 -9.94022 1.58657 3.22732 10
38 1 1.93553 8.74992 6.8198 12
39 1 2.16617 -2.42584 9.13434 17
40 1 1.4776 -10.8739 -3.41893 11
41 1 5.54785 -0.919149 -6.07841 18
42 1 4.69093 -4.18987 8.60034 13
43 1 1.90116 -5.7804 6.71728 21
44 1 5.38747 9.48132 0.807522 13
45 1 -5.88156 -6.92352 1.2593 21
46 1 -2.64253 -10.5428 0.513369 12
47 1 -5.65694 -2.17973 7.61407 16
48 1 -7.76068 0.129726 5.52761 16
49 1 1.22251 -10.0767 0.294998 15
50 1 -8.85645 -1.82262 2.63483 12
51 1 -2.85311 8.6447 2.74228 17
52 1 -6.37955 4.24365 4.50553 16
53 1 -3.19514 6.39692 7.30504 11
54 1 -7.07406 -5.11932 -4.28055 18
55 1 -8.84393 5.0217 -5.69702 9
56 1 -3.72363 -3.93676 -9.10479 11
57 1 9.95913 -1.73955 6.13145 9
58 1 -0.397877 -4.60339 8.7388 13
59 1 -4.09548 -0.380198 -11.1038 11
60 1 -8.67606 -2.39595 -3.47245 14
61 1 -3.05304 -6.94225 2.68391 22
62 1 -6.94602 6.67869 6.14381 12
63 1 -0.945034 -8.78697 -5.05142 14
64 1 0.718367 8.39514 1.54571 17
65 1 -7.50718 -0.409902 -5.71142 18
66 1 -9.78537 3.39195 -3.00306 11
67 1 -3.57945 -7.82408 -3.77502 22
68 1 4.53761 -7.27043 4.1205 19
69 1 -8.86464 6.03529 -0.781741 12
70 1 -6.31454 -1.47317 10.6072 6
71 1 -8.66993 3.22283 6.08346 14
72 1 -6.38844 -7.20183 -6.36374 9
73 1 -1.06687 -7.10219 7.78478 12
74 1 2.03485 -8.01867 -4.26855 18
75 1 2.89906 -1.35241 -7.59863 18
76 1 7.34057 -7.20538 4.97808 12
77 1 -4.78782 -10.0072 -1.86836 13
78 1 -7.61953 -3.35827 6.50556 10
79 1 10.0808 1.02355 5.08447 11
80 1 7.55407 5.79758 -1.01428 12
81 1 2.56056 3.55554 -7.72971 17
82 1 -1.02363 6.73081 -9.53143 10
83 1 3.35616 10.3298 -0.790745 10
84 1 4.90413 5.23413 -8.3057 13
85 1 1.94313 -7.88218 2.45163 20
86 1 4.45973 -6.87177 -2.51361 22
87 1 -1.08104 -9.36526 -1.65157 21
88 1 -9.42202 2.15607 -5.49213 10
89 1 10.4966 0.0706707 -0.239963 11
90 1 -5.70587 6.43058 -5.43234 11
91 1 6.59973 -5.17897 -3.59946 19
92 1 -6.6024 -5.77341 7.36029 9
93 1 -2.29197 -10.9102 -3.25305 12
94 1 0.665286 -6.58329 -6.84205 12
95 1 4.38046 -6.95038 0.740678 21
96 1 -6.51513 -7.15617 -2.29389 19
97 1 -0.483776 -1.6551 11.0464 11
98 1 -0.782437 1.75568 9.38763 16
99 1 6.53025 -6.33819 -6.97079 11
100 1 4.96381 8.03853 -2.42102 14
101 1 8.36331 -2.36015 -4.76973 13
102 1 -1.19886 0.816345 -11.2891 12
103 1 -8.4992 4.2005 2.69702 13
104 1 1.96515 -6.19275 9.64778 9
105 1 -6.21648 -1.45729 -8.95033 12
106 1 7.14426 -5.32008 3.28771 17
107 1 5.91468 4.02633 7.27931 12
108 1 1.30138 -9.11825 5.27209 12
109 1 7.27309 1.81257 3.03771 20
110 1 8.49387 3.27616 5.22109 14
111 1 4.8199 7.04044 5.63514 15
112 1 -3.18084 4.21772 -7.70553 16
113 1 -3.41668 -7.69295 -0.246008 23
114 1 -6.64889 7.91496 0.159254 13
115 1 6.96323 6.64881 -4.28386 12
116 1 1.73766 0.635467 11.0725 8
117 1 2.19368 -2.53799 -10.3481 9
118 1 5.21663 11.9612 2.55924 9
119 1 3.99112 -5.98306 -5.47768 20
120 1 4.08882 -7.5162 7.18528 13
121 1 -5.79685 4.00853 7.49285 13
122 1 11.158 -1.2367 2.97035 11
123 1 -0.391558 7.94467 -6.14246 12
124 1 7.5546 1.75718 -6.00994 12
125 1 -2.8615 -1.38536 9.00331 14
126 1 -3.84902 -4.87041 6.96405 17
127 1 -5.07449 10.077 1.83621 11
128 1 4.56948 7.12839 2.4838 14
129 1 -8.43171 -6.01471 4.44951 10
130 1 8.71199 -3.35832 0.894758 14
131 1 -6.82453 -9.26474 -0.414386 13
132 1 10.5998 1.99036 2.4708 11
133 1 5.71752 -8.96418 -1.16259 16
134 1 2.38601 11.4407 5.05672 9
135 1 -9.71114 -5.35245 -1.36647 13
136 1 2.32303 7.65151 -8.78541 11
137 1 -5.44026 -2.51267 -5.84212 21
138 1 3.77303 -4.87478 -8.83633 10
139 1 -4.35372 -9.35926 -5.95419 10
140 1 6.61967 -5.40589 -0.225772 21
141 1 -10.0122 -4.39951 1.95034 11
142 1 -1.19076 3.7245 -9.60834 16
143 1 -7.48198 -8.98186 -4.14071 11
144 1 9.33278 -4.03131 4.3919 10
145 1 -0.299852 -1.29418 -9.09424 19
146 1 -6.40135 8.21916 3.46351 14
147 1 -7.03681 1.0104 8.26087 12
148 1 6.85565 8.71177 3.49504 10
149 1 8.79248 3.21438 -0.10663 15
150 1 -3.15194 -7.32041 5.89439 16
151 1 4.75532 1.72589 -7.64848 15
152 1 4.86361 7.98889 -6.27269 12
153 1 5.04762 10.238 5.57797 10
154 1 2.02836 9.22022 -3.96303 15
155 1 7.67303 3.38605 -3.48254 16
156 1 9.08744 -5.14527 -2.55209 9
157 1 -0.989473 7.62179 5.27359 17
158 1 -2.29476 8.85377 -0.403392 14
159 1 -4.49543 -9.66029 3.33051 13
160 1 4.29353 -10.2271 1.95392 10
161 1 -8.9581 -7.41595 0.324722 12
162 1 -7.38055 7.32417 -3.34027 10
163 2 -9.06106 0.0850638 3.84984 13
164 2 7.3858 4.37339 4.10777 15
165 2 -6.83306 -1.91457 -4.47175 22
166 2 -4.19544 -7.89191 3.99974 17
167 2 -0.441523 0.526128 10.7766 12
168 2 -1.69233 9.62403 3.63021 15
169 2 3.88369 -7.41039 -4.2805 20
170 2 -2.98854 0.640103 -7.9792 21
171 2 0.298597 -2.50866 -10.7234 11
172 2 -3.22798 7.43176 5.67867 18
173 2 8.43449 -4.11198 2.54699 12
174 2 6.63123 7.11177 2.6647 11
175 2 0.354986 9.09525 5.64678 12
176 2 4.20885 11.7443 4.24368 9
177 2 3.83916 8.13456 -7.59609 8
178 2 4.71727 -1.91018 -7.32044 18
179 2 -8.72793 0.953842 -4.27968 14
180 2 -0.99054 -7.70606 6.13485 15
181 2 -9.17446 2.15401 1.61654 12
182 2 7.96822 -6.81307 -3.28873 14
183 2 -4.82373 -9.02637 -0.0949473 16
184 2 2.71706 7.16188 6.12274 16
185 2 1.43684 -4.44642 9.65308 14
186 2 -5.87171 -5.45462 3.65158 22
187 2 -0.701181 -10.3104 0.273421 15
188 2 -7.42992 -8.25214 1.16756 15
189 2 -2.94203 -10.4537 -1.42746 14
190 2 -6.81092 -9.1655 -2.30352 12
191 2 -4.62308 9.3851 3.56792 12
192 2 6.42829 6.61971 -2.4136 14
193 2 3.12658 5.58804 -8.89787 13
194 2 7.19856 2.19488 0.812257 19
195 2 1.83825 10.0128 0.347515 13
196 2 -6.29014 8.62343 6.09424 7
197 2 2.0785 10.4411 -2.55192 11
198 2 1.00362 7.41307 -7.37982 13
199 2 -0.814092 6.21369 6.80416 16
200 2 1.45922 -1.22467 10.5082 13
201 2 5.0734 -5.18589 -7.75443 11
202 2 0.622806 -8.05043 -5.67481 13
203 2 -8.10185 -6.53373 -1.2176 16
204 2 6.70118 -7.33248 -0.0306447 15
205 2 4.09333 5.88619 3.70026 17
206 2 -0.419024 0.633516 -9.60682 16
207 2 2.58353 -3.39222 -8.28403 16
208 2 -3.234 -4.87062 -7.42051 14
209 2 2.64718 -5.96667 -7.30195 14
210 2 6.95941 -2.39912 -6.07862 12
211 2 1.91023 -0.852439 -9.13261 14
212 2 -3.34983 -9.80274 -4.31564 12
213 2 -0.895769 3.27483 -7.65484 20
214 2 -6.2712 -9.68053 2.96527 10
215 2 -5.60447 6.35673 0.629269 20
216 2 -8.15298 -7.62142 3.73425 12
217 2 -8.83381 -3.80691 -1.77598 15
218 2 5.51043 -7.52649 5.77372 13
219 2 3.28235 9.94903 6.26546 9
220 2 -2.35229 0.656716 8.86603 14
221 2 -9.30453 3.29986 4.28721 13
222 2 -6.09594 -4.38918 -5.95036 16
223 2 8.15874 4.0427 -1.82717 14
224 2 -9.66753 -2.53824 1.07723 13
225 2 -4.38593 5.18182 -6.22492 15
226 2 2.7893 1.40679 -7.53703 18
227 2 -9.27077 4.81668 -2.03351 12
228 2 5.9059 -8.88651 -3.03744 12
229 2 -0.552287 -10.4499 -3.59788 12
230 2 -6.90127 9.19518 1.76759 7
231 2 2.8236 -10.4534 0.989533 12
232 2 4.95302 5.70586 7.52126 10
233 2 -0.807779 8.80703 -1.88782 16
234 2 -1.91983 -5.27735 7.41714 15
235 2 0.00626644 5.26322 -9.82697 13
236 2 4.12452 -2.18113 8.82435 14
237 2 7.99595 4.95587 0.694404 12
238 2 5.38708 8.39511 4.57218 12
239 2 -8.57672 -4.5031 3.22008 14
240 2 1.8355 4.37363 7.38838 14
241 2 8.86098 -3.17088 6.19957 8
242 2 2.09464 3.00156 -9.62056 14
243 2 1.9243 1.88015 9.51512 10
244 2 4.70839 -5.55704 3.6662 18
245 2 -7.22001 -1.59327 -7.32798 12
246 2 -5.58595 6.43854 -3.27448 15
247 2 -10.0356 3.796 -4.77684 8
248 2 -2.96299 -5.84452 4.84086 19
249 2 6.27147 10.4457 2.92429 10
250 2 -4.67397 -2.58199 -8.3172 16
251 2 10.8213 -0.834149 1.29654 11
252 2 -7.50647 7.44191 -1.53614 10
253 2 7.48213 -7.85668 3.18419 11
254 2 -4.90444 -6.65264 6.72071 12
255 2 -7.04889 -7.03408 -4.54294 15
256 2 0.724002 8.46696 -4.82161 12
257 2 -6.17369 6.32835 4.46824 17
258 2 0.621107 -6.18911 7.89185 15
259 2 -8.80681 4.94634 0.926896 13
260 2 -0.418122 3.54116 8.98115 11
261 2 -6.24495 1.37078 -5.7213 16
262 2 4.97736 8.95219 -0.800864 11
263 2 -4.17573 4.87069 7.01224 14
264 2 -2.24948 -0.996009 -11.4103 11
265 2 -1.52762 -7.63784 -3.71673 21
266 2 6.0326 0.278228 7.01012 12
267 2 8.32495 1.72917 -4.30541 10
268 2 2.68107 -8.49562 6.41371 10
269 2 -5.61326 2.07713 8.03077 14
270 2 -8.71172 -3.77213 -4.68739 14
271 2 -8.56233 1.56676 7.13082 11
272 2 -7.76527 -5.22778 5.8906 11
273 2 -4.47986 -7.31541 -2.0065 24
274 2 -2.50536 5.19452 -9.17595 11
275 2 4.58245 5.96149 -6.48835 16
276 2 5.78524 -4.97653 -5.34828 19
277 2 9.19282 0.0649333 6.50765 10
278 2 7.51565 3.17127 6.77265 14
279 2 -1.32628 6.34465 -6.32734 17
280 2 -2.00579 -3.53545 -9.97324 11
281 2 -1.02818 8.06187 1.29569 18
282 2 -2.48645 7.17123 -4.04054 17
283 2 -7.39598 6.041 -5.09606 11
284 2 -7.27661 4.58663 6.23331 12
285 2 6.43906 -7.85853 -5.85537 10
286 2 -8.21481 3.29574 -6.37748 11
287 2 -2.87628 1.49244 -10.7109 10
288 2 5.8591 -4.83872 7.17708 14
289 2 -6.84937 -0.354443 9.2511 9
290 2 -7.53419 -1.92033 5.46986 12
291 2 8.30254 -5.51215 5.09403 12
292 2 -8.88853 1.97583 -1.22304 13
293 2 -4.69833 -1.95197 9.41079 11
294 2 0.55173 -9.15861 3.53835 14
295 2 11.0726 0.5265 3.53524 10
296 2 1.23196 -9.55675 -1.47282 14
297 2 -3.65901 9.32423 0.882295 13
298 2 -5.1221 0.020692 -9.63442 10
299 2 -6.20618 -4.04915 7.79584 11
300 2 3.46999 -5.83214 8.46518 13
301 2 4.77545 3.53276 -7.32675 16
302 2 9.05504 1.86516 3.73473 14
303 2 10.3558 -2.42646 4.02813 11
304 2 8.6191 -3.4724 -3.37002 10
305 2 5.41027 -9.83965 0.509105 10
306 2 7.08437 4.75309 -4.55199 14
307 2 -10.0029 -5.80953 0.590987 11
308 2 -9.22138 -1.25523 -1.90353 12
309 2 4.02895 -8.09172 2.31729 18
310 2 2.89267 7.92454 -3.04635 17
311 2 8.89009 0.00463933 -1.17687 14
312 2 5.41822 7.86721 -4.50745 13
313 2 8.16241 -4.30428 -0.904774 14
314 2 3.02568 -9.93854 -4.12786 12
315 2 -4.29051 -7.25616 -5.63677 17
316 2 4.28588 11.2921 0.869834 9
317 2 1.61627 10.8917 3.50431 13
318 2 -2.90423 -9.90972 2.38197 13
319 2 -1.18844 -2.40158 9.39428 15
320 2 10.203 2.19424 0.614639 12
321 2 5.88541 1.07361 -6.12614 16
322 2 -4.73094 2.98484 -7.91353 15
323 2 -6.28462 -9.27654 -5.72463 8
324 2 3.96437 -7.82025 -0.951911 24
325 1 -5.87484 -1.17787 -2.70728 25
326 1 -6.76757 -4.38255 -1.32563 21
327 1 -0.50725 -6.54037 -2.49706 21
328 1 -0.0553301 -1.18176 -5.58628 22
329 1 -2.98119 -2.43451 -4.06956 22
330 1 -1.17743 -4.51531 -4.57905 20
331 1 -3.82584 -5.08233 -2.4891 23
332 1 -0.737097 -1.20252 -2.52827 22
333 1 -3.78431 -1.90714 -0.807059 21
334 1 -1.34088 -3.88855 -0.993119 22
335 2 -5.57699 -5.04967 -2.75915 22
336 2 -6.40382 -1.85186 -0.979856 23
337 2 -1.48507 -7.47651 -0.935629 24
338 2 -0.864069 -2.12829 -7.38928 23
339 2 -3.86889 -1.52596 -5.78746 22
340 2 0.00926316 -4.80646 -6.20263 16
341 2 -3.03016 -4.83085 -4.38811 20
342 2 -1.1845 -1.90772 -4.22964 20
343 2 -4.00005 -1.22274 -2.91116 19
344 2 -0.441221 -4.57908 -2.65149 19
345 2 -3.4616 -3.87425 -1.02738 21
346 2 -1.3031 -1.84569 -0.946152 22
347 1 -6.19662 -1.27045 0.814539 19
348 1 -6.79366 -4.20487 2.19997 22
349 1 -5.79712 -1.47731 4.41871 18
350 1 -0.772271 -6.60395 0.808702 19
351 1 -0.402716 -6.7672 4.38877 20
352 1 -4.30434 -4.68934 0.516049 22
353 1 -0.433091 -1.09175 0.879739 20
354 1 -3.26327 -2.00196 2.23013 21
355 1 -1.23692 -4.03647 2.53768 24
356 1 -4.12413 -4.52363 4.05231 21
357 1 -0.223483 -1.08688 4.27989 20
358 1 -3.14941 -1.7356 5.61081 18
359 1 -1.29099 -4.16073 5.70965 21
360 1 -0.219453 -1.40187 7.70081 20
361 2 -6.36526 -4.81114 0.399285 24
362 2 -6.61929 -2.02375 2.70148 21
363 2 -4.0767 -6.383 1.18248 24
364 2 -1.06657 -7.23372 2.63302 22
365 2 -4.11667 -0.944044 0.72338 21
366 2 -0.692725 -4.56517 0.651286 23
367 2 -3.27429 -4.04686 2.26307 23
368 2 -1.11102 -1.96406 2.43564 20
369 2 -3.7128 -1.21344 3.84871 19
370 2 -0.294071 -4.63788 4.32041 23
371 2 -3.64775 -3.50508 5.65385 19
372 2 -1.14329 -2.03992 6.00128 20
373 2 -3.93478 -1.10875 7.18102 19
374 1 -6.96794 1.92373 -3.85121 20
375 1 -5.84606 5.06541 -1.94857 20
376 1 -6.735 1.67308 -0.824261 19
377 1 -1.093 1.28691 -7.72846 20
378 1 -4.64249 0.34822 -5.4674 19
379 1 -0.517935 4.38206 -6.12831 21
380 1 -3.37818 3.44883 -4.19554 24
381 1 -1.09019 1.55657 -4.39672 19
382 1 -3.82279 0.677326 -2.54539 22
383 1 -0.469426 4.08106 -2.82474 23
384 1 -3.26408 3.62385 -0.777834 22
385 1 -1.23275 1.53425 -1.0041 17
386 1 -3.6136 6.37071 -2.62835 20
387 1 -0.746321 6.4303 -0.888696 20
388 2 -5.5581 0.901685 -2.84011 21
389 2 -6.2619 3.61744 -0.913742 19
390 2 -0.145005 0.818649 -5.88963 21
391 2 -3.42212 1.6022 -4.42341 17
392 2 -1.2979 3.44056 -4.526 20
393 2 -3.80744 4.21719 -2.67691 18
394 2 -0.749446 0.752233 -2.6091 20
395 2 -3.21215 1.50581 -0.994261 21
396 2 -1.32758 3.74684 -0.780867 23
397 2 0.054196 6.06577 -2.82854 22
398 2 -2.69802 6.5825 -1.0431 21
399 1 -5.89031 4.28928 1.05914 21
400 1 -6.4177 1.41704 2.62168 22
401 1 -4.02904 1.06355 0.521098 20
402 1 -0.0521036 3.7151 0.716926 21
403 1 -3.32323 3.62732 2.58032 21
404 1 -1.19544 1.59006 2.48887 20
405 1 -3.91057 0.638574 4.3117 17
406 1 -0.174772 4.04813 3.81015 20
407 1 -3.03056 3.49627 5.76039 19
408 1 -0.785446 1.18815 5.94998 21
409 1 -4.10039 0.888689 7.59242 16
410 1 -3.63965 6.38771 0.769709 20
411 1 -1.1197 6.27657 2.07175 22
412 2 -6.19693 0.678702 0.746851 20
413 2 -6.57933 3.62085 2.76471 21
414 2 -6.18769 0.835854 4.43237 19
415 2 -3.93524 4.37551 0.825461 20
416 2 -0.33373 0.98876 0.715772 20
417 2 -3.27396 1.55733 2.52955 20
418 2 -1.47765 3.68227 2.39875 21
419 2 -4.11148 4.24943 4.16533 21
420 2 0.0953451 0.772274 3.89702 21
421 2 -3.23269 1.47485 5.68031 18
422 2 -0.880544 3.30993 5.74891 19
423 2 0.192704 0.497248 7.35865 21
424 2 0.166635 5.53225 0.709653 21
425 2 -3.0419 6.81073 2.6523 23
426 2 -0.333712 6.11777 3.97187 20
427 1 2.09021 -7.78248 -1.2758 20
428 1 1.96192 -4.2409 -6.57472 19
429 1 2.45353 -1.82484 -4.04405 20
430 1 4.63927 -3.55564 -4.07034 21
431 1 1.56089 -4.46012 -2.88887 21
432 1 5.69075 -1.20654 -2.46942 22
433 1 2.33897 -1.80047 -1.0746 20
434 1 4.12927 -4.04129 -1.02817 20
435 2 1.32746 -6.75486 -3.13274 22
436 2 1.81266 -1.11899 -5.90217 18
437 2 2.53565 -3.9283 -4.48312 20
438 2 4.61677 -1.68857 -4.13301 22
439 2 1.75791 -0.872667 -2.53827 20
440 2 4.9189 -4.96779 -2.62275 20
441 2 2.20681 -3.62856 -1.13094 20
442 2 4.71909 -2.16218 -1.25854 22
443 2 7.60117 -1.12192 -3.24887 17
444 1 1.48057 -4.68367 0.295091 20
445 1 5.44931 -1.87419 0.719283 20
446 1 2.12509 -2.06327 2.30228 20
447 1 4.32264 -4.07986 2.40696 17
448 1 1.54315 -4.78602 3.63901 20
449 1 5.40034 -1.06953 4.2558 16
450 1 2.61787 -2.32846 5.67133 20
451 1 4.80104 -4.37144 5.59992 21
452 2 1.39946 -6.68491 0.444383 20
453 2 1.71416 -6.8235 3.97885 16
454 2 1.59158 -1.50019 0.557594 19
455 2 4.77499 -4.94155 0.462796 20
456 2 2.47206 -4.04048 2.05171 21
457 2 4.98616 -2.26576 2.7156 18
458 2 1.81453 -1.49499 4.14035 20
459 2 2.79167 -4.3957 5.93726 21
460 2 4.48606 -2.00387 5.89844 17
461 2 1.76732 -1.54672 7.30808 18
462 2 7.36262 -2.11119 0.438471 16
463 1 1.79093 0.865312 -6.035 19
464 1 2.50254 3.83911 -4.28015 20
465 1 4.64551 1.72048 -4.05619 24
466 1 1.77493 1.18221 -2.58712 20
467 1 4.75068 4.82059 -2.14835 21
468 1 2.73294 3.35875 -0.759212 20
469 1 4.80316 1.2098 -0.833593 19
470 1 1.88424 6.47991 -2.37294 18
471 1 7.5723 0.714636 -2.7393 18
472 2 1.68559 4.45556 -6.06454 20
473 2 2.79033 1.00589 -4.35267 20
474 2 4.53757 3.80496 -3.92681 19
475 2 1.58546 3.32277 -2.55833 21
476 2 5.5561 0.899925 -2.66165 20
477 2 2.87186 1.24817 -0.713607 19
478 2 5.015 3.32142 -1.12023 21
479 2 3.09596 5.65822 -1.2001 18
480 1 1.6671 0.758623 0.770103 20
481 1 5.95008 3.57559 0.657045 19
482 1 2.55131 3.05745 2.7307 21
483 1 4.63761 1.19557 2.38802 19
484 1 2.17262 0.443756 4.29827 21
485 1 5.17779 4.29223 4.07794 21
486 1 2.48069 3.50464 5.86596 19
487 1 5.01933 1.55526 5.90764 17
488 1 1.94568 0.329784 7.83887 19
489 1 2.33233 6.08029 0.595302 18
490 1 1.91647 6.11177 4.48213 22
491 1 7.40003 0.24047 0.441574 20
492 2 1.97565 3.57178 0.974295 19
493 2 5.2507 0.0993848 1.04372 19
494 2 2.47163 1.22802 2.56541 20
495 2 4.63753 3.38343 2.27141 20
496 2 1.71639 4.08009 4.16662 20
497 2 5.67829 1.13837 4.04974 21
498 2 2.60427 1.37971 6.08171 22
499 2 4.60538 3.46731 5.75955 19
500 2 2.61862 7.39386 2.10444 15
