ITEM: TIMESTEP
4000
ITEM: NUMBER OF ATOMS
3840
ITEM: BOX BOUNDS pp pp pp
0.0 34.6
0.0 35.94
0.0 36.72
ITEM: ATOMS id type x y z Coordination
100 1 6.75504 3.96647 2.17521 18
342 2 6.96769 3.989 4.24339 20
3 1 1.2756 1.12839 2.22768 21
293 2 4.98873 0.847761 4.20416 19
241 2 1.1242 0.811428 0.053367 22
6 1 1.34225 3.12291 4.67889 22
292 2 4.83535 3.10435 2.16326 19
245 2 1.79763 1.29686 5.09565 22
51 1 4.78137 1.01835 2.03286 21
52 1 3.09551 4.0429 2.10377 22
294 2 3.24929 4.20202 4.79675 20
54 1 4.99612 3.01952 4.43116 20
244 2 1.50394 3.01886 2.55316 22
291 2 3.22373 6.02098 2.13103 20
53 1 3.39204 6.12728 4.48747 21
101 1 6.94243 5.99592 4.14096 21
1045 1 3.35377 0.0767207 4.3406 20
289 2 4.83236 0.744947 -0.167359 20
338 2 6.73651 4.01676 -0.0357961 19
7 1 1.59666 1.01376 6.95622 21
8 1 -0.242157 4.17066 7.11249 22
298 2 3.50135 4.0352 9.05594 20
10 1 1.8155 3.00349 9.19868 19
11 1 1.84628 0.911408 11.7932 23
296 2 5.04426 2.98225 6.64892 20
55 1 5.0645 1.02134 6.67874 20
56 1 3.22291 3.95255 6.88697 21
1335 2 6.88291 0.0414185 6.84516 20
58 1 5.29869 3.20317 8.81147 21
59 1 5.3035 1.19024 11.3121 22
60 1 3.44157 3.96405 11.519 20
249 2 1.84673 1.16702 9.60873 22
297 2 5.42936 1.2826 8.8023 21
300 2 5.20883 3.11081 11.5191 19
252 2 1.84992 2.94368 11.9165 22
248 2 1.32839 3.03791 7.13171 21
1291 2 3.73882 0.143376 11.6534 21
1243 2 0.0680815 -2.9957e-04 12.0112 21
1049 1 3.49316 0.224385 9.24303 20
1287 2 3.54613 -0.0207363 7.22047 21
1097 1 7.22807 0.230561 8.83751 22
346 2 7.06688 4.07538 8.99739 20
104 1 7.00842 3.62513 6.45627 22
112 1 7.3451 4.08653 15.853 23
14 1 1.75924 3.06139 13.9242 21
15 1 1.70972 1.16402 15.9409 19
1343 2 6.99019 0.174896 16.139 22
302 2 3.54362 4.21162 13.9071 20
62 1 5.23772 3.16434 13.8543 19
63 1 5.30781 1.17 16.0438 19
64 1 3.50494 4.33782 16.0958 23
304 2 5.63771 3.21744 16.2078 22
16 1 0.0344905 4.46749 16.0784 21
253 2 1.98925 1.00088 13.8802 22
301 2 5.41655 1.23576 14.0331 21
1053 1 3.78251 0.247073 13.8877 23
256 2 1.65276 3.25404 16.169 21
254 2 0.227395 4.42259 14.1326 22
1101 1 7.2222 0.328481 13.8583 19
1005 1 0.215491 0.00948757 13.9869 21
255 2 0.288606 6.67317 16.1855 22
481 1 0.146774 6.1364 18.4137 21
1521 1 3.48387 0.208204 18.2183 21
721 2 1.90997 1.0379 18.4686 19
772 2 5.52637 2.99392 20.956 22
485 1 0.213951 5.93801 22.9242 20
483 1 2.07801 1.08652 20.614 20
773 2 5.37928 1.03507 23.1868 19
770 2 3.58405 4.0718 18.3952 18
486 1 1.78869 2.92171 23.0479 20
725 2 1.78138 0.842333 23.0606 21
724 2 2.01866 3.05521 20.7821 18
531 1 5.50526 1.06259 20.6055 22
532 1 3.9006 3.90122 20.5882 22
530 1 5.27577 3.26402 18.3571 22
534 1 5.55995 2.98267 22.919 23
774 2 3.48819 4.04279 23.3657 21
769 2 5.32941 1.1032 18.3005 22
726 2 0.0715174 3.97527 23.2956 22
722 2 -0.00345908 4.15744 18.6681 20
580 1 7.19785 4.03296 20.6679 23
484 1 0.202975 3.99065 20.7584 19
482 1 1.78807 3.13784 18.3245 18
822 2 6.90873 4.1689 23.5925 24
818 2 6.97814 4.05948 18.5897 19
487 1 1.80092 0.841176 25.1422 22
730 2 0.0323015 3.89371 27.3385 22
780 2 5.14111 2.81553 29.9155 21
490 1 1.75567 2.87881 27.5358 20
491 1 1.80978 0.862538 29.4509 24
732 2 1.63425 2.87137 29.6404 19
535 1 5.4062 0.938692 25.35 22
536 1 3.60158 4.02967 25.5322 21
492 1 0.0357013 4.05219 29.6147 20
538 1 5.30726 2.8282 27.6418 19
539 1 5.03588 0.744576 29.733 20
540 1 3.44474 3.9169 29.7061 19
488 1 0.258274 3.92177 25.3735 21
778 2 3.51719 3.92788 27.5815 19
777 2 4.86848 0.709897 27.6961 21
776 2 5.35733 2.86894 25.4596 21
728 2 1.84547 2.72761 25.3068 22
729 2 1.4887 0.770903 27.268 23
779 2 3.56116 5.96237 29.9852 23
1771 2 3.35074 -0.358063 30.1591 22
1481 1 -0.137914 -0.202227 27.2589 23
736 2 1.34448 2.98851 34.6934 24
494 1 1.6481 3.18095 31.8874 22
495 1 1.24772 1.01241 34.0121 22
49 1 2.99333 5.71891 36.5533 21
50 1 4.79932 3.03357 36.5997 20
542 1 5.00298 3.01596 32.1294 20
543 1 4.93299 0.782332 34.4392 19
544 1 3.09045 3.81616 34.5931 21
782 2 3.32231 3.87828 32.2458 21
781 2 5.10385 0.753228 32.0323 18
733 2 1.45087 1.20413 32.0219 22
784 2 4.84153 2.83009 34.4554 19
2 1 1.28463 2.74506 36.6793 21
1089 1 6.60534 -0.0327477 36.8301 20
783 2 3.21914 5.85382 34.5952 22
589 1 6.88789 5.88839 32.1563 20
290 2 3.14528 3.70148 36.6056 21
541 1 3.41305 5.83487 32.1919 20
831 2 6.77953 5.97483 34.1129 22
1041 1 2.95069 0.121096 36.5481 21
830 2 6.79149 3.89835 32.365 21
735 2 -0.162402 5.9995 34.5523 22
493 1 -0.0874977 6.13184 31.9063 20
117 1 6.67926 11.948 4.25343 21
310 2 3.23839 9.88962 4.63509 22
19 1 1.57716 7.10069 2.36223 21
309 2 5.28276 6.91431 4.59888 21
308 2 5.00784 8.94733 2.31036 22
22 1 1.65117 8.95262 4.77468 22
260 2 1.617 9.14902 2.52364 19
261 2 1.53218 6.90518 4.59308 20
67 1 4.90841 6.97829 2.12906 20
68 1 3.32604 9.99275 2.16264 22
307 2 3.19504 11.981 2.32872 21
70 1 5.1181 8.94893 4.54121 20
358 2 6.85388 10.0318 4.35438 19
266 2 -0.121423 9.86416 9.31989 23
312 2 5.12119 8.82704 6.599 22
9 1 0.0419918 5.96274 9.4157 22
26 1 1.71887 9.00335 9.28746 21
27 1 1.83195 7.0093 11.6385 21
23 1 1.61084 6.99048 6.82805 24
71 1 5.3851 6.86726 6.65371 23
72 1 3.23946 9.78322 6.76146 21
265 2 1.67178 7.06085 9.19114 21
74 1 5.19042 8.81118 8.65719 21
75 1 5.23486 6.90433 11.2201 21
76 1 3.64839 10.0075 11.2392 23
314 2 3.43637 9.97308 9.29313 23
313 2 5.20746 7.08619 9.36638 22
268 2 1.88878 9.09909 11.5125 19
316 2 5.15502 9.06045 11.8385 25
264 2 1.4613 8.97795 6.9948 22
73 1 3.47853 11.953 8.81694 20
311 2 3.4303 11.9019 6.7635 21
251 2 -0.0367991 5.99646 11.6047 20
24 1 -0.123993 10.0819 6.79624 21
28 1 0.00433917 10.0643 11.382 19
57 1 3.22524 5.99242 9.27462 20
359 2 6.93769 11.74 6.73786 20
267 2 0.0460005 12.0943 11.6968 23
295 2 3.49448 6.11205 6.52827 21
299 2 3.49269 6.02684 11.4613 21
343 2 7.13613 5.77848 6.79147 22
498 1 1.67061 9.08417 18.7022 22
30 1 2.00723 9.10899 13.4889 23
31 1 2.12018 7.3862 16.053 21
29 1 0.056588 11.9165 13.7623 20
77 1 3.72858 11.7646 13.8259 22
78 1 5.35225 9.09542 13.7792 21
79 1 5.39575 7.06876 16.4252 20
80 1 3.71925 10.0452 16.276 22
320 2 5.58243 9.05675 16.4223 22
272 2 2.00846 9.26433 16.6323 23
269 2 2.03412 7.14186 14.0464 21
318 2 3.66473 9.89131 14.3316 25
317 2 5.25292 7.17393 13.9562 23
13 1 0.289988 6.19755 13.9376 21
61 1 3.78496 6.1568 13.7031 21
303 2 3.74038 6.20481 16.4436 20
270 2 0.311576 9.96555 13.7217 21
497 1 0.215857 12.2298 18.3809 22
533 1 3.64098 6.04806 23.1951 19
789 2 5.32805 6.98942 23.2042 19
499 1 1.88585 6.92479 20.9801 19
771 2 3.73055 5.85695 20.9306 22
788 2 5.50457 9.06646 20.7849 19
502 1 1.8041 9.01948 22.8845 20
740 2 1.70443 8.90211 20.8188 22
741 2 1.9109 6.98448 23.1945 18
547 1 5.54891 7.08923 20.8121 22
548 1 3.57482 10.0344 20.9564 19
786 2 3.64854 10.0598 19.0396 22
550 1 5.42377 8.95937 22.8227 20
790 2 3.54631 10.1743 22.9504 20
529 1 3.4783 6.23595 18.5613 20
546 1 5.45097 9.12573 18.6345 20
785 2 5.50383 7.03792 18.8114 23
819 2 7.1522 5.93445 21.0681 23
838 2 6.86955 10.0777 23.1595 18
581 1 6.97758 5.89984 22.9958 24
723 2 -0.0415982 5.89413 20.9092 21
738 2 0.146812 10.2961 18.656 23
737 2 1.78841 7.1799 18.8482 21
503 1 1.80427 6.93497 25.2139 21
551 1 5.20804 7.26227 25.4888 19
748 2 1.61137 8.9861 30.1603 22
506 1 1.69497 8.97242 27.6054 21
507 1 1.66453 7.01173 29.7637 22
745 2 1.72423 6.92798 27.7862 21
504 1 0.121195 10.2467 25.2271 20
552 1 3.2834 10.1755 25.1297 22
796 2 4.75885 9.15283 29.8905 23
554 1 5.07828 9.0397 27.8918 19
555 1 5.23917 7.19872 29.9587 21
556 1 3.32068 10.3069 29.9382 22
794 2 3.33078 10.1451 27.621 20
793 2 4.97994 7.0698 27.687 20
744 2 1.70025 8.94494 25.3522 20
792 2 4.85077 9.16456 25.3864 22
727 2 0.00263985 6.02274 25.4653 20
775 2 3.63225 6.00065 25.4859 20
823 2 6.93125 6.05317 25.6971 24
600 1 6.71625 9.99707 25.5657 20
604 1 6.78568 10.1399 29.9279 18
842 2 6.76166 10.1842 27.98 21
827 2 6.83266 6.06293 30.0969 17
489 1 0.0393325 5.91204 27.5274 20
731 2 -0.0341826 5.98423 29.7975 21
537 1 3.45134 5.90535 27.582 20
585 1 6.83211 6.18655 27.7673 21
798 2 3.32927 10.2012 32.3095 21
510 1 1.83909 8.81589 32.0435 21
511 1 1.52206 7.13812 34.5216 23
797 2 5.0826 7.16841 32.2719 20
752 2 1.37524 9.09923 34.764 22
558 1 4.95939 9.14629 32.1071 22
559 1 5.05986 6.93462 34.5367 21
560 1 3.0465 9.99032 34.4906 20
800 2 4.82936 8.93607 34.4799 19
306 2 3.20649 9.97792 36.7109 20
749 2 1.69406 6.84199 32.0188 20
305 2 4.78681 6.7923 36.5443 22
18 1 1.4613 8.92483 36.9249 22
846 2 6.77617 9.99929 32.3291 19
66 1 4.9004 8.87258 36.5815 22
847 2 6.59714 12.0721 34.5771 22
608 1 6.64183 10.0498 34.4241 22
557 1 3.42539 12.011 32.1546 22
257 2 1.38291 6.91361 36.8881 21
605 1 6.87563 12.081 32.3609 20
85 1 3.46157 17.8908 4.41724 23
324 2 5.00026 14.9741 2.22155 22
35 1 1.5862 13.1249 2.01484 23
325 2 5.09401 13.0051 4.58595 19
326 2 3.41011 15.8858 4.56113 22
38 1 1.64066 14.9721 4.66198 21
34 1 1.64874 15.1011 -0.118863 21
277 2 1.4975 12.8237 4.77221 23
83 1 4.89037 13.0122 2.34923 20
84 1 3.40483 16.1373 2.31482 22
69 1 3.34627 12.1429 4.61743 20
86 1 5.1762 15.1629 4.72678 20
276 2 1.63052 14.9079 2.52902 23
273 2 1.464 13.222 -0.123739 21
132 1 6.97475 15.9258 2.29875 22
323 2 3.44393 18.0603 2.41347 20
278 2 -0.172737 15.7094 5.17083 22
322 2 3.37884 16.116 -0.0265505 21
133 1 6.87048 17.6784 4.38407 23
82 1 5.09201 15.0232 0.0868947 22
321 2 4.80448 13.1307 0.111571 20
39 1 1.70517 12.7941 6.8187 21
328 2 5.18493 14.868 6.74633 19
331 2 3.70134 17.8485 11.3003 20
42 1 1.89514 14.9677 9.34431 20
43 1 1.94709 12.9509 11.4404 20
330 2 3.75667 15.8977 9.0995 23
87 1 5.34289 12.8035 6.74378 21
88 1 3.30729 15.8313 6.98974 24
89 1 3.74625 18.1049 9.25885 22
90 1 5.22498 14.7834 8.78846 21
91 1 5.14521 12.9801 11.1398 23
92 1 3.50868 15.7592 11.2981 21
284 2 1.77507 14.8969 11.5786 21
332 2 5.34396 14.7651 11.2939 22
327 2 3.48538 17.9386 7.1759 20
329 2 5.28771 12.8326 9.05102 21
280 2 1.68267 14.8424 7.24297 22
281 2 1.90948 12.9645 9.29014 25
40 1 -0.17201 15.4507 7.1652 23
283 2 -0.0014293 17.8787 11.3882 21
44 1 0.0474771 15.8697 11.475 21
282 2 9.63004e-04 15.7509 9.18681 20
136 1 7.17105 15.8671 6.86906 19
315 2 3.52784 11.8562 11.7646 24
514 1 2.13817 15.1379 18.1941 22
46 1 2.07585 14.7653 13.8375 22
47 1 1.92502 12.8499 16.2133 23
45 1 0.209058 17.7371 13.9545 21
286 2 0.297059 15.8277 13.7656 19
94 1 5.42662 14.6988 13.3681 23
95 1 5.40956 13.0926 15.9145 24
96 1 3.74319 16.0413 15.7138 22
336 2 5.30087 14.988 16.3882 24
334 2 3.65915 15.873 13.5899 22
285 2 2.05032 12.7164 14.1306 24
319 2 3.75771 12.0162 16.193 19
93 1 3.64402 17.9686 13.2708 21
288 2 2.18943 14.7953 15.9483 18
333 2 5.39964 12.8366 13.8351 20
562 1 5.43772 15.1301 18.5008 19
271 2 0.412455 11.9273 16.3463 22
287 2 0.00438507 17.6126 16.1802 20
335 2 3.6343 17.9647 16.2699 25
802 2 3.75064 15.8765 18.7075 23
609 1 7.03261 17.871 17.9897 24
801 2 5.39904 12.9698 18.6433 20
787 2 3.55914 12.2874 20.7817 19
515 1 1.75686 13.0693 20.8787 21
755 2 0.168218 18.2033 20.5472 19
757 2 1.80989 13.0061 23.0754 22
518 1 1.71002 15.042 23.2231 20
613 1 7.08975 18.181 22.8933 24
756 2 1.80576 15.1061 21.1908 24
563 1 5.35985 13.2981 20.5354 22
564 1 3.56761 16.0626 20.9758 22
597 1 6.88115 12.0066 23.266 20
566 1 5.39535 14.9998 22.831 23
806 2 3.62243 16.0785 23.2035 20
805 2 5.30436 13.2396 23.1491 23
804 2 5.43263 15.2563 20.874 21
753 2 1.87675 13.2023 18.819 22
850 2 7.27387 16.0168 18.7463 23
835 2 7.03498 12.0777 20.7317 22
501 1 0.028863 12.1439 23.1971 19
549 1 3.48626 12.2435 23.0226 20
612 1 7.03965 16.3866 20.7341 22
545 1 3.64053 11.9415 18.6515 22
593 1 7.07707 11.9192 18.1504 22
513 1 0.280555 18.0364 18.1027 21
519 1 1.90151 13.2224 25.4796 19
567 1 5.21508 13.1516 25.4218 19
812 2 5.12172 15.1215 30.3105 20
522 1 1.59323 15.1599 27.8566 22
523 1 1.50158 13.246 30.0547 20
810 2 3.28398 15.9657 28.0385 21
761 2 1.82345 13.1262 27.8687 22
568 1 3.50658 16.0938 25.2324 22
809 2 5.06247 13.3009 27.9652 22
570 1 5.15289 15.2622 27.8303 23
571 1 4.89222 13.1232 30.1727 21
572 1 3.10356 16.1398 30.1597 21
553 1 3.5574 12.1425 27.6502 25
808 2 5.2156 15.1417 25.6762 23
839 2 6.8854 11.9899 25.4739 19
764 2 1.38152 15.117 30.0217 22
760 2 1.74857 15.2008 25.3129 20
791 2 3.48952 12.2803 25.2787 22
858 2 6.79652 16.2224 28.0496 21
601 1 6.68761 12.1475 27.7608 19
620 1 6.98266 15.958 30.1825 23
505 1 -0.0830383 12.3894 27.5511 20
617 1 6.65527 18.2521 28.0156 18
795 2 3.06087 12.1883 30.1532 21
813 2 5.10173 13.0017 32.2157 21
526 1 1.55456 15.0906 32.4563 21
527 1 1.47673 13.2642 34.3056 21
816 2 5.20412 15.0238 34.5775 20
768 2 1.81243 15.1781 34.5281 21
574 1 5.21313 15.004 32.4632 22
575 1 4.7576 13.0096 34.5959 21
576 1 3.54652 16.1919 34.5373 19
814 2 3.19412 16.2352 32.4798 21
65 1 3.11237 11.927 36.605 22
765 2 1.36152 12.9698 32.3029 20
624 1 6.82329 15.7926 34.6161 19
862 2 7.11622 15.9186 32.5692 21
799 2 3.2672 11.8532 34.6403 21
370 2 6.8819 15.6816 36.8923 21
1204 2 1.69253 20.9826 2.6655 23
1298 2 6.90748 21.9472 0.239272 19
963 1 1.62203 18.9892 2.46525 20
1252 2 5.12687 21.0197 2.83777 21
1250 2 3.46463 22.0509 0.679539 25
966 1 1.70203 20.9435 4.69322 19
1010 1 5.11975 21.1112 0.223748 20
1253 2 5.2497 18.8367 4.81873 19
1011 1 5.10411 19.0087 2.4514 21
1012 1 3.47541 22.1297 2.73052 21
1254 2 3.56145 21.9993 4.9428 20
1014 1 5.23484 20.8696 5.03835 21
1205 2 1.79406 18.8881 4.94179 20
962 1 1.70066 21.0842 0.442686 21
964 1 -0.0823424 22.0653 2.52403 20
1249 2 5.26704 19.182 0.257669 21
81 1 3.50312 18.1447 0.0686703 20
1201 2 1.69463 19.0117 0.512106 22
967 1 1.68033 19.0104 6.96247 19
1209 2 1.94615 18.802 9.23998 22
1257 2 5.562 19.1117 9.14408 21
970 1 1.79378 20.9645 9.09486 21
971 1 1.83823 18.8325 11.4081 19
1208 2 1.74461 21.03 7.03074 19
1015 1 5.224 18.9967 7.09736 20
1016 1 3.44049 21.975 6.98629 19
1256 2 5.17333 21.0753 7.20358 22
1018 1 5.46107 21.1494 9.21823 21
1019 1 5.3851 19.0263 11.2164 21
1020 1 3.49162 21.9394 11.5473 20
1258 2 3.43 21.9202 9.48545 22
1260 2 5.35488 20.9368 11.4158 20
1212 2 1.7996 20.8545 11.4444 21
972 1 0.359606 22.0236 11.4943 20
1259 2 3.36921 23.8737 11.4815 19
1210 2 0.018886 21.8671 9.36188 20
1211 2 0.0520418 23.991 11.6016 19
1264 2 5.44204 20.7566 15.841 21
974 1 2.00682 20.6756 13.7567 18
975 1 1.96602 18.7972 16.1022 20
976 1 0.167423 21.936 15.7602 22
1262 2 3.84837 21.9857 13.7672 22
1022 1 5.5325 20.9628 13.4721 22
1023 1 5.31836 18.7765 15.5493 22
1024 1 3.61716 21.7384 15.7258 23
1442 1 1.95041 21.1414 17.9887 22
1261 2 5.30051 18.8877 13.5607 21
1213 2 1.85358 18.5754 13.5488 22
561 1 3.57751 17.9294 18.4559 19
973 1 0.318889 23.9194 13.7626 20
1216 2 1.87216 20.8722 16.0268 22
1021 1 3.49969 24.0295 13.4639 23
1214 2 0.319152 21.8454 13.7395 20
1490 1 5.36105 20.9351 17.9315 25
1489 1 3.56788 23.8827 17.842 23
1682 2 0.171681 22.0549 18.3311 24
1681 2 1.97862 19.0205 18.1267 22
1730 2 3.5071 21.9887 18.1913 22
1734 2 3.57319 21.8542 23.1916 22
1729 2 5.38336 18.9692 18.351 20
1443 1 1.82826 19.2239 20.2195 23
1782 2 6.96679 21.9301 22.9603 23
1685 2 1.63959 19.0897 23.2863 23
1446 1 1.75876 21.0161 23.0105 21
1684 2 1.98491 21.073 20.9334 25
1733 2 5.34605 18.9612 23.2805 24
1491 1 5.28819 18.9234 20.4197 23
1492 1 3.52094 22.0936 20.3685 22
1732 2 5.10688 20.8997 20.9751 23
1494 1 5.3767 20.9289 23.0184 21
1541 1 6.87693 23.759 23.1436 22
1778 2 6.94905 21.6672 18.2321 22
517 1 0.0676433 18.2078 22.9257 22
803 2 3.45657 18.0787 20.7189 19
1444 1 0.296499 22.0858 20.4881 21
565 1 3.47819 18.0638 23.0735 22
1686 2 -0.0981059 22.15 23.2495 24
1731 2 3.48538 24.0639 20.7465 21
1441 1 0.0888909 23.9824 17.7314 25
1447 1 1.74499 19.0944 25.443 19
1786 2 6.59034 21.775 27.8476 22
1548 1 6.40219 22.2178 29.8964 22
1450 1 1.5517 21.0078 27.7869 22
1451 1 1.48944 19.1002 30.1071 22
1689 2 1.63722 19.0574 27.6307 21
1495 1 5.09235 18.9874 25.285 23
1496 1 3.36448 22.1109 25.1982 22
1736 2 4.9969 21.0319 25.5497 22
1498 1 4.7924 21.0996 27.7643 21
1499 1 4.93138 19.1043 30.1612 20
1500 1 3.18681 21.8309 29.9459 24
1738 2 3.29158 22.1316 28.0383 22
1692 2 1.27892 21.0357 29.9104 22
1740 2 4.92145 21.0811 30.4983 23
1737 2 4.93624 19.1863 28.1036 23
1688 2 1.83394 21.082 25.5815 22
569 1 3.33781 17.938 27.8653 20
859 2 6.66509 18.049 30.314 21
811 2 3.27436 17.9915 30.3375 20
807 2 3.37742 17.8527 25.6704 21
1787 2 6.33236 24.261 30.2432 22
1783 2 6.70503 23.8467 25.5535 20
1544 1 6.68079 21.8291 25.6756 22
1448 1 -0.0498394 22.0413 25.2975 22
1545 1 6.66162 23.8419 27.5775 22
1742 2 3.18203 21.8996 32.6655 20
1454 1 1.45211 21.1719 32.2285 23
1455 1 1.6969 19.2331 34.4282 23
1552 1 7.02015 22.2254 34.8801 21
1741 2 4.88704 19.2895 32.6736 21
1502 1 5.06327 21.1847 32.4865 21
1503 1 5.12236 19.0705 34.6522 20
1504 1 3.27694 21.8579 34.7329 20
1696 2 1.48289 21.1009 34.8842 19
621 1 6.68812 18.2114 32.5299 17
1693 2 1.51643 19.2924 32.3527 20
1744 2 5.26414 21.2145 34.8716 21
1790 2 6.76005 22.2777 32.4951 21
815 2 3.30551 18.2628 34.7533 19
863 2 6.68678 17.8896 34.6921 21
1791 2 6.62004 24.2534 34.8891 20
573 1 3.30319 18.1902 32.4024 22
129 1 6.71282 17.6637 36.8666 21
1549 1 6.5691 24.2868 32.5783 21
978 1 1.42343 26.9781 -0.138342 22
1217 2 1.48088 25.1326 0.142224 21
979 1 1.3674 25.2899 2.69024 20
1270 2 3.35501 28.0881 4.95486 20
1269 2 5.01572 25.051 4.9211 20
982 1 1.52772 27.1745 4.81489 21
1009 1 3.0291 23.9849 0.541776 21
1076 1 6.67978 27.9468 2.45913 19
1027 1 4.6902 25.1818 2.43743 20
1028 1 3.17608 28.1719 2.22193 22
1221 2 1.4655 25.098 4.94241 20
1030 1 4.89989 27.1825 4.58909 22
1220 2 1.53034 27.1474 2.7094 20
1266 2 3.05105 28.0782 0.12698 22
1268 2 4.90625 27.1777 2.36703 18
1265 2 4.76981 24.9824 0.421196 21
1061 1 6.65544 24.1129 4.68784 21
1251 2 3.05562 24.2867 2.69134 22
1314 2 6.94093 28.1456 0.44292 21
1057 1 6.55461 23.9991 0.262026 20
1013 1 3.18732 24.0069 4.86594 19
983 1 1.58028 25.187 6.91172 23
1228 2 1.92847 27.0617 11.5477 22
988 1 -0.141342 28.0646 11.6353 17
986 1 1.7143 27.0734 9.38131 18
987 1 1.78793 25.1274 11.5624 21
1224 2 1.7375 27.162 7.25952 18
1031 1 4.9625 24.9807 7.09434 20
1032 1 3.36718 28.1672 6.9883 21
1272 2 5.28049 27.0439 7.16949 21
1034 1 5.29866 27.1759 9.29581 20
1035 1 5.14271 24.8231 11.2702 21
1036 1 3.77419 28.0548 11.4389 20
1273 2 5.16105 24.8529 9.28937 19
1225 2 1.49291 24.9727 9.47267 19
1274 2 3.63927 28.2036 9.27756 19
1226 2 0.1084 28.1554 9.68288 21
1276 2 5.2571 26.8528 11.4205 22
1033 1 3.52759 30.2859 9.20366 19
1255 2 3.2265 24.0539 7.24504 20
1017 1 3.237 23.9844 9.41676 21
1280 2 5.43421 26.5183 16.0411 22
990 1 2.03695 27.1766 13.7521 21
991 1 1.99481 25.0786 15.9176 20
1506 1 5.18705 26.7025 17.9314 23
1278 2 3.74426 28.1615 13.5832 24
1038 1 5.3434 26.7255 13.4904 22
1039 1 5.21127 24.7192 15.5836 22
1040 1 3.90363 28.1759 15.8584 19
1232 2 2.02772 27.1698 15.8447 20
1277 2 5.17302 24.7979 13.4633 22
1229 2 1.85663 25.1452 13.7784 21
1230 2 0.123415 28.0146 13.7158 18
1698 2 0.119706 27.7762 18.4621 22
1746 2 3.54304 27.8467 18.151 23
1458 1 1.97831 26.9407 18.2198 19
992 1 0.259234 27.9173 15.866 22
1215 2 0.395603 23.9014 15.8159 21
1745 2 5.20786 24.7652 18.4863 23
1279 2 3.51902 29.9897 16.0821 23
1263 2 3.50475 23.6723 15.954 23
1748 2 5.31054 26.7857 21.064 25
1747 2 3.70511 29.8053 20.5794 20
1459 1 1.95244 24.945 20.0756 25
1509 1 3.56729 29.9211 22.571 23
1750 2 3.43153 28.0254 23.077 22
1462 1 1.9269 26.8388 22.8417 23
1749 2 5.20874 24.9109 23.0914 23
1701 2 2.02876 24.893 23.2005 23
1507 1 5.08358 25.0165 20.4386 21
1508 1 3.82747 27.8114 20.5188 21
1493 1 3.73251 23.8012 22.9309 23
1510 1 5.12382 26.9254 23.1859 20
1700 2 1.96777 26.8268 20.539 19
1460 1 0.283621 27.8164 20.5224 20
1702 2 0.224254 27.8885 22.8972 21
1445 1 0.241048 24.0777 22.9002 21
1683 2 0.138113 24.0443 20.9237 23
1697 2 1.97051 24.8616 18.0697 22
1463 1 1.64699 24.9255 25.1806 22
1705 2 1.55836 24.963 27.7846 20
1803 2 6.94402 29.7525 29.9929 21
1466 1 1.70014 26.8343 27.5196 22
1467 1 1.48762 24.9517 29.948 23
1756 2 4.99255 27.1675 30.43 23
1511 1 5.03152 24.9373 25.1628 22
1512 1 3.27767 27.9568 25.302 23
1708 2 1.42869 26.8597 30.2038 22
1514 1 5.06205 26.9566 27.5198 21
1515 1 4.68799 25.1377 29.9643 22
1516 1 3.24001 27.8843 29.9627 23
1753 2 5.00828 25.096 27.8726 23
1449 1 -0.0606246 24.1067 27.3932 24
1754 2 3.35678 27.7561 28.0204 23
1752 2 4.94089 26.9255 25.3247 22
1704 2 1.66814 26.8266 25.2577 22
1751 2 3.3781 29.8094 25.3721 21
1497 1 3.20494 23.945 27.6131 21
1564 1 6.73774 27.7781 29.9782 22
1560 1 6.8599 27.7466 25.5322 19
1739 2 3.25188 23.8951 30.1907 21
1464 1 -0.0295985 27.873 24.8953 24
1687 2 -0.173147 24.1193 25.3911 23
1703 2 0.0947769 29.8427 25.4169 23
1755 2 3.39918 30.0389 30.2724 22
1735 2 3.41964 24.0089 25.6468 24
1806 2 6.63098 27.812 32.2682 21
1470 1 1.39637 26.9377 32.2989 20
1471 1 1.53308 25.1018 34.4968 20
1760 2 5.01962 27.179 34.7865 21
1568 1 6.87914 27.822 34.3415 22
1518 1 4.85165 26.8716 32.4663 22
1519 1 4.81746 24.9965 35.0152 21
1520 1 3.3491 28.0848 34.5175 20
1565 1 6.85644 29.9173 32.1894 23
1712 2 1.59953 27.1326 34.5311 21
1709 2 1.66318 24.9576 32.4866 21
1757 2 4.74844 24.9731 32.5724 22
1758 2 3.18094 28.0484 32.3703 20
1501 1 3.31487 23.9724 32.2986 20
1743 2 3.21574 23.8414 35.0084 23
1807 2 6.86426 29.7726 34.3685 20
1026 1 5.01816 27.0263 36.9336 20
1237 2 1.66465 30.9832 4.91283 21
1334 2 6.73749 33.9698 4.4579 20
995 1 1.62905 31.1084 2.31557 24
1286 2 3.14719 34.1329 4.57469 18
1285 2 4.9666 31.0434 4.75732 20
998 1 1.39205 33.1777 4.59064 21
1281 2 4.8463 30.9783 0.141485 21
1267 2 3.3753 30.0628 2.42902 23
1043 1 5.06067 31.0723 2.13543 22
1044 1 3.13341 34.0204 2.21779 21
1236 2 1.34722 33.0808 2.26587 19
1046 1 5.00087 33.0695 4.43129 20
1092 1 6.78066 33.7457 2.0477 19
1284 2 4.98434 32.9862 2.20731 20
1233 2 1.53049 30.9922 0.373052 22
1029 1 3.37594 30.0902 4.78792 20
1025 1 3.08476 30.0226 -0.187984 21
1282 2 3.12332 34.0295 0.0772713 21
1283 2 2.95444 36.1391 2.43771 22
1077 1 6.78072 29.9921 4.51594 20
1093 1 6.7839 36.0971 4.23762 20
1315 2 6.83056 29.9886 2.54672 20
994 1 1.30289 33.0343 -0.108324 20
999 1 1.59316 31.2541 7.2466 18
1242 2 -0.010138 34.0639 9.81963 21
1289 2 5.10451 31.3377 9.20481 20
1002 1 1.63843 33.3995 9.18699 21
1003 1 1.95881 31.0276 11.4516 24
1000 1 -0.346344 34.1983 6.94442 22
1047 1 5.26125 31.2073 7.16276 20
1048 1 3.19803 34.2441 6.81932 21
1288 2 5.07629 33.1813 6.63524 19
1050 1 5.15093 33.3698 9.00513 21
1051 1 5.45501 31.318 11.2686 21
1052 1 3.71805 34.2145 11.5571 22
1241 2 1.67507 31.2347 9.36608 19
1292 2 5.27887 33.2071 11.5541 22
1244 2 2.02275 33.118 11.598 21
1290 2 3.41772 34.2641 9.33851 21
1240 2 1.3359 33.2732 7.10213 21
1319 2 6.93164 30.1012 7.00176 21
1271 2 3.36629 30.3321 7.10463 18
1223 2 0.032086 30.2814 7.34327 22
985 1 -0.137099 30.1809 9.32437 18
1096 1 6.85318 34.0164 6.50951 22
1275 2 3.75295 29.9604 11.3851 20
1227 2 0.0163179 30.0934 11.5997 19
1296 2 5.51665 32.9946 15.9314 20
1006 1 2.09326 33.0908 13.7147 22
1007 1 2.10332 31.2173 15.9938 20
1457 1 0.194953 29.9216 18.0053 24
1293 2 5.49241 31.2294 13.6588 23
1054 1 5.57527 33.2311 13.5436 22
1055 1 5.1226 30.9963 15.7209 21
1056 1 3.75402 34.1466 16.0881 23
1248 2 2.04979 33.1346 16.3347 21
1294 2 3.73952 34.166 14.0104 23
1245 2 1.87185 31.103 13.8358 22
1522 1 5.43668 33.1321 18.2883 21
989 1 0.26702 30.0659 13.8815 22
1474 1 1.97386 33.1023 18.3794 20
1008 1 0.199953 33.8914 15.9652 20
1085 1 7.26784 29.8894 13.5924 24
1762 2 3.76626 34.1816 18.4353 21
1231 2 0.137542 29.9032 15.9988 19
1037 1 3.76691 30.1957 13.4033 22
1247 2 0.154765 35.8403 16.2763 21
1295 2 3.52988 36.2928 16.1607 22
1505 1 3.65335 29.9243 18.3742 18
1713 2 1.90813 31.1252 18.3641 18
1473 1 0.296069 35.7902 18.3961 21
1714 2 0.117357 33.6977 18.4599 21
1764 2 5.50742 32.847 20.7578 19
1461 1 0.0184364 29.731 22.6314 21
1475 1 1.61371 30.8836 20.5486 20
1699 2 0.107467 29.8408 20.3981 20
1525 1 3.59793 35.9703 23.0905 21
1478 1 1.9599 32.8093 22.7541 19
1718 2 0.292576 33.8753 22.8972 20
1717 2 1.75456 30.6207 22.8667 22
1523 1 5.4289 30.7695 20.5526 19
1524 1 3.75676 34.2132 20.7139 19
1476 1 -0.057058 33.8487 20.6859 21
1526 1 5.50032 32.646 22.6925 21
1766 2 3.77942 33.769 22.7668 20
1765 2 5.24949 30.744 23.2007 22
1716 2 1.88766 32.9494 20.6181 19
1761 2 5.62139 31.0646 18.3839 20
1477 1 0.141881 35.9102 22.803 18
1763 2 3.83498 36.1615 21.0816 21
1715 2 0.396069 35.7912 20.4279 20
1479 1 1.64595 30.597 24.7793 23
1580 1 6.8786 33.5462 29.8573 21
1722 2 0.251331 33.6319 27.6989 22
1482 1 1.71034 32.4399 26.9465 22
1483 1 1.81522 30.8932 29.6458 22
1768 2 5.21866 32.6708 25.3977 20
1527 1 5.21768 30.7178 25.093 20
1528 1 3.7001 33.8598 24.844 23
1769 2 4.92132 30.7701 28.0581 24
1530 1 5.15737 32.4723 27.3745 22
1531 1 5.24726 30.8645 29.9725 19
1532 1 3.4382 33.7169 29.5345 24
1724 2 1.76371 32.8678 29.958 21
1772 2 5.08323 32.7809 29.9827 22
1480 1 0.047554 33.7768 25.0247 22
1770 2 3.09662 33.7804 27.3647 24
1720 2 1.86245 32.9189 24.8556 21
1721 2 1.7118 30.6639 27.6329 24
1767 2 3.52066 35.8221 25.2559 18
1529 1 3.10798 35.6265 27.2776 22
1719 2 -0.120192 35.6267 25.0642 22
1819 2 6.97688 35.6858 29.6598 20
1513 1 3.36883 29.8236 27.4849 24
1759 2 3.2774 30.1678 34.4844 18
1486 1 1.52236 32.9933 31.9113 21
1487 1 1.43005 30.8234 34.115 20
1042 1 4.82726 33.2432 36.6266 20
1533 1 3.32672 35.9264 32.1392 19
1534 1 5.02 33.0663 32.1879 22
1535 1 5.19651 30.9868 34.5615 21
1536 1 3.19494 33.9243 34.375 20
1774 2 3.25504 34.0082 32.4661 22
1773 2 5.21555 31.0285 32.4567 21
1725 2 1.67077 31.0465 32.1604 19
1776 2 4.96976 32.9897 34.5905 18
1728 2 1.22923 32.7542 34.4781 22
1073 1 6.66274 29.8582 36.5974 21
1822 2 6.89143 33.8534 32.2144 19
1584 1 6.89233 33.8076 34.4433 21
1581 1 6.86067 35.7841 31.9156 22
1775 2 3.01037 36.0832 34.4349 20
1330 2 6.8375 33.7467 36.796 21
1823 2 6.78485 35.7654 34.5812 19
1517 1 3.49184 30.0793 32.2607 22
340 2 8.65254 2.70611 2.01601 22
99 1 8.63365 0.713294 2.0315 20
102 1 8.70148 2.70229 4.1779 20
149 1 10.3264 5.84075 4.19096 19
341 2 8.73227 0.725088 4.41436 21
147 1 12.1702 1.02419 1.92093 21
148 1 10.3667 3.86739 1.88454 19
388 2 12.1631 2.89433 2.23415 21
150 1 12.045 2.80137 4.45508 20
390 2 10.255 3.86844 4.19636 19
389 2 12.0134 0.944778 4.04985 21
387 2 10.216 6.03036 2.14257 20
339 2 6.68585 6.0334 2.00863 19
103 1 8.69143 0.829859 6.50182 21
106 1 8.66009 3.02167 8.98312 22
107 1 8.79194 1.26561 11.4242 19
151 1 12.3666 1.04429 6.70003 21
152 1 10.2732 3.84791 6.53925 20
344 2 8.63894 2.68495 6.70317 22
154 1 11.9734 3.04399 8.8358 22
155 1 11.9996 1.15484 11.6319 24
156 1 10.4623 4.12892 11.2937 23
393 2 12.0697 1.04964 8.61811 23
108 1 6.97717 4.10156 11.7353 21
396 2 12.1108 3.00623 11.2873 20
394 2 10.2757 3.99645 9.17176 21
345 2 8.90922 1.06749 9.36348 22
348 2 8.83038 3.06049 11.7159 21
392 2 12.1586 3.10084 6.68783 20
395 2 10.5647 6.05843 11.3944 19
442 2 13.6549 3.90932 8.9349 21
1383 2 10.4271 -0.0999622 6.76834 20
1145 1 10.5124 0.00509871 9.04888 21
204 1 13.8384 4.02659 11.0052 22
1387 2 10.5064 0.145561 11.518 22
443 2 13.736 5.90859 11.321 22
347 2 7.07939 6.07292 11.4316 20
105 1 6.93542 6.09788 8.88362 20
1339 2 7.03717 0.297377 11.648 22
110 1 8.99901 3.14652 13.7307 20
111 1 8.77577 1.1396 16.0023 23
1391 2 10.333 -0.00358088 16.3536 21
158 1 12.1186 3.07884 13.6502 22
159 1 11.9872 1.17619 16.3224 21
160 1 10.5111 4.25796 15.7524 23
350 2 7.00738 4.14687 13.7472 20
446 2 13.9106 3.8029 13.8188 23
349 2 8.90211 1.10829 13.9692 23
352 2 8.91769 3.1013 16.2973 22
397 2 12.133 0.990358 14.0156 24
398 2 10.6362 4.31537 13.7209 22
1197 1 13.9364 -0.0418328 14.2348 24
400 2 12.1115 3.14901 16.5491 24
1149 1 10.4841 -0.0205097 14.0556 20
1439 2 13.684 -0.116184 16.3826 21
868 2 12.0408 2.98454 21.1034 21
579 1 8.60119 1.04845 20.7078 20
582 1 8.79667 3.23696 23.1313 22
870 2 10.5348 4.17618 23.3495 21
821 2 8.6068 1.03922 23.1598 21
627 1 11.998 0.948467 20.8387 19
628 1 10.5366 4.22289 20.5784 22
869 2 12.0131 0.724711 23.2649 21
630 1 11.8366 2.77954 23.1782 20
820 2 8.84722 3.12609 21.0325 23
865 2 11.883 1.0762 18.3429 22
578 1 8.72399 2.96848 18.2015 23
626 1 12.1504 3.02124 18.5761 23
866 2 10.2523 4.18099 18.6261 21
1665 1 13.6127 -0.0869581 18.4439 21
676 1 13.8438 3.74798 20.9736 20
817 2 8.50333 1.15618 18.5967 20
1617 1 10.2052 0.0754037 18.6225 19
1569 1 6.96507 0.0528921 18.2148 20
583 1 8.37774 1.05002 25.3303 20
586 1 8.42126 2.96964 27.6683 21
587 1 8.65925 0.955213 29.7968 18
631 1 11.9452 0.897538 25.4448 19
632 1 10.2594 4.02693 25.5383 21
826 2 6.64535 4.16738 27.8193 21
634 1 11.9765 2.72408 27.5967 24
635 1 12.2739 0.878216 29.9753 20
636 1 10.5091 3.96616 29.7715 19
876 2 12.2781 2.81446 30.0364 25
872 2 12.3584 2.74423 25.4392 23
874 2 10.3132 4.03762 27.6498 20
824 2 8.69381 2.94275 25.4409 22
825 2 8.49809 0.906991 27.5534 21
828 2 8.60234 3.02975 29.6865 21
873 2 12.0677 0.898024 27.5876 20
588 1 6.89579 4.10043 30.0017 21
680 1 13.9992 3.85019 25.324 21
584 1 6.97252 4.12245 25.4579 21
1863 2 10.3493 -0.258928 25.5907 21
1577 1 6.69488 -0.122278 27.5852 19
590 1 8.48886 2.93597 32.2203 19
591 1 8.44743 0.919088 34.2651 19
145 1 10.3516 5.85845 36.3886 20
638 1 12.0772 2.95222 31.9972 20
639 1 12.1963 0.776355 34.3629 22
640 1 10.2676 4.01769 34.0634 21
880 2 12.1741 3.0734 34.1328 19
878 2 10.3105 3.84543 32.1239 19
829 2 8.44528 0.930266 31.7438 19
832 2 8.66239 2.89824 34.3269 20
877 2 12.1132 0.879752 32.241 18
685 1 14.0638 5.6974 32.0468 22
385 2 12.0469 0.901919 36.4295 18
98 1 8.49797 2.85222 36.414 20
146 1 11.9471 2.91455 36.3122 20
592 1 6.65182 3.86681 34.24 19
879 2 10.3358 5.84598 34.3281 19
926 2 13.943 3.85644 32.159 20
97 1 6.60424 5.98049 36.5791 20
337 2 8.49225 0.719603 36.6256 18
386 2 10.274 3.79607 36.5638 19
404 2 12.081 8.89445 2.06144 19
115 1 8.57127 6.93021 1.96118 19
118 1 8.56464 8.93978 4.09541 21
357 2 8.66322 7.08685 4.42968 23
356 2 8.25786 8.76169 2.09075 22
163 1 12.1285 6.95273 2.07585 21
164 1 10.1886 9.80608 1.99326 20
165 1 10.5357 11.8413 4.36297 20
166 1 12.1981 8.89006 4.25995 18
406 2 10.4391 9.85891 3.99725 22
405 2 12.1755 6.83466 4.25058 20
403 2 10.5244 11.7421 1.8842 23