ITEM: TIMESTEP
3000
ITEM: NUMBER OF ATOMS
2000
ITEM: BOX BOUNDS pp pp pp
-30.0 30.0
-30.0 30.0
-30.0 30.0
ITEM: ATOMS id type x y z Coordination
1 1 -8.59589 3.54387 -10.6428 21
2 1 0.585234 -9.05254 -10.6244 21
3 1 5.74684 13.0986 14.3801 10
4 1 8.06266 -6.75139 13.0662 13
5 1 -10.1649 10.0853 -4.35075 15
6 1 8.83957 -8.2872 -3.77232 17
7 1 -11.4182 3.86493 -5.18821 24
8 1 3.6475 -3.15587 15.5186 17
9 1 -11.3044 2.55148 -11.4931 15
10 1 -11.2713 -9.24057 10.5334 10
11 1 11.9166 -0.61373 -9.00388 16
12 1 -2.95166 -13.9515 3.69325 20
13 1 -12.1584 -9.24808 2.69089 13
14 1 -0.599946 6.56361 16.5639 17
15 1 4.97138 -4.48446 5.98441 20
16 1 -0.83171 3.76254 14.8629 20
17 1 -4.06323 10.0828 -11.3246 14
18 1 -0.283965 -5.39382 12.797 20
19 1 -11.7109 -3.32043 -13.7657 9
20 1 -12.7325 -4.36448 13.6773 13
21 1 15.8592 4.97333 10.435 14
22 1 -0.076796 10.1753 -12.3121 16
23 1 -1.15409 2.00001 -12.8549 18
24 1 15.2396 2.27502 12.3012 11
25 1 -8.86973 1.3546 0.945959 20
26 1 -12.3314 8.75545 -6.35914 13
27 1 -0.154626 1.68208 -7.35357 22
28 1 -8.07689 6.43117 4.7381 22
29 1 7.22107 -10.384 8.0106 16
30 1 2.59579 -5.73372 14.1464 19
31 1 4.37426 -12.8856 -10.4522 10
32 1 8.68436 -7.4797 6.64712 21
33 1 -7.26785 -14.0659 -1.96121 9
34 1 -14.2605 -4.02921 8.23925 13
35 1 -1.41752 -7.07968 -12.6074 18
36 1 11.101 -8.54755 -11.441 11
37 1 -6.63718 3.66978 -15.4716 11
38 1 1.91454 7.40875 14.1212 18
39 1 1.21655 -9.90749 9.35693 19
40 1 9.93499 -4.10396 14.1238 15
41 1 -10.7028 -1.31097 4.8977 20
42 1 -16.6865 -0.573696 8.04022 17
43 1 -6.29087 1.76164 -3.8653 21
44 1 -2.85006 12.1366 -1.07692 21
45 1 0.719203 -12.1938 -9.1036 16
46 1 2.27632 3.89256 -7.65583 22
47 1 4.32416 -3.81805 -8.07942 20
48 1 -1.55374 -2.12396 12.3704 18
49 1 -10.476 4.6459 5.02158 20
50 1 4.93594 14.0596 -9.87389 14
51 1 1.56892 8.98743 11.5177 19
52 1 -5.33255 10.2896 -4.80569 19
53 1 -2.72318 14.6027 0.615524 20
54 1 4.5163 -12.5981 2.63656 21
55 1 12.658 -5.06908 -5.03443 18
56 1 5.10629 -6.96183 -16.3895 15
57 1 -7.62533 8.63684 13.3491 20
58 1 -8.37063 -1.10638 -4.00015 25
59 1 7.86915 1.14211 4.37821 23
60 1 -2.67366 9.23174 -3.56456 23
61 1 -5.94165 -9.9861 5.58973 18
62 1 -0.604689 16.8728 11.5409 10
63 1 -7.71056 7.00372 -5.12647 19
64 1 -5.20937 10.4266 14.2892 16
65 1 2.67091 8.69936 -5.99641 18
66 1 -0.440476 -15.4306 8.14142 12
67 1 3.10227 3.57617 9.10173 18
68 1 7.91325 -11.0471 -3.51213 16
69 1 5.89151 11.0904 16.7761 13
70 1 -10.3993 6.10248 -6.42673 21
71 1 -10.1361 10.5315 -8.43389 12
72 1 9.74196 3.58269 12.1124 20
73 1 18.2861 1.46173 -9.1388 5
74 1 5.11315 -10.4725 5.33909 21
75 1 -16.7975 -1.37724 4.61064 13
76 1 6.76867 14.325 11.5568 12
77 1 -1.02247 -2.1081 15.2472 15
78 1 -1.26172 -11.0245 8.45435 16
79 1 -8.15656 -1.91096 2.33108 21
80 1 14.6946 4.9546 14.2879 10
81 1 8.90451 -1.32023 -7.44626 20
82 1 -5.40875 10.6486 7.78705 16
83 1 4.9596 1.08737 8.97227 20
84 1 -6.1063 -3.98822 2.74662 19
85 1 -4.00886 -2.39338 -10.4937 21
86 1 -12.673 7.36189 10.1829 15
87 1 -7.85185 10.8022 -0.018933 19
88 1 -0.610674 7.11464 -7.40828 20
89 1 9.22075 1.0679 -10.0792 20
90 1 8.67999 12.9494 -7.18214 12
91 1 12.2882 -7.38871 1.89579 15
92 1 4.48233 -6.48941 11.8908 19
93 1 -5.66508 13.6172 0.209816 20
94 1 -7.5871 13.3576 6.8784 18
95 1 -10.0289 -2.06736 15.0946 16
96 1 -2.8981 9.42333 6.42015 19
97 1 -5.60451 -4.49765 12.5711 17
98 1 14.6051 -8.00853 -0.341903 11
99 1 -7.7103 3.95235 6.46329 20
100 1 -5.48652 -9.66162 2.56107 18
101 1 12.9467 -7.97218 -5.2479 14
102 1 4.97193 2.85144 -14.9771 15
103 1 -8.38569 -1.01322 -14.8538 13
104 1 0.480675 13.5533 2.66829 21
105 1 -5.56176 4.30236 -5.42231 21
106 1 2.36135 7.25884 17.1472 19
107 1 -0.0607884 13.0266 -3.69627 22
108 1 -12.576 8.73515 -1.9766 12
109 1 2.63238 11.8293 1.11785 22
110 1 -2.97956 -8.21707 9.24261 21
111 1 16.0072 1.6681 9.53911 11
112 1 1.6656 -4.73821 -9.09219 19
113 1 3.51253 -6.729 -7.00299 22
114 1 -0.127364 3.91814 11.5196 22
115 1 6.20043 -2.32396 17.7427 11
116 1 -9.72612 -6.6084 -0.983256 19
117 1 8.38824 -4.33007 4.6911 21
118 1 -4.85331 -8.41774 -1.89352 21
119 1 11.78 -6.81752 4.73955 13
120 1 -2.88756 9.01929 3.04083 21
121 1 2.0487 3.32787 -13.7981 18
122 1 4.94645 13.3702 -1.0778 18
123 1 -8.12193 -9.38945 12.1424 15
124 1 -6.53242 -12.1123 8.72379 15
125 1 6.21071 -9.03555 -14.247 15
126 1 4.7393 3.83514 -5.90724 22
127 1 14.9241 -5.05447 2.80705 10
128 1 2.65033 -14.3246 8.3562 13
129 1 -5.93693 -11.5129 -0.707052 18
130 1 12.0036 9.51334 9.82245 17
131 1 13.5642 -3.40184 -8.225 17
132 1 -17.0568 -4.96008 3.40532 8
133 1 13.9387 6.54287 5.21724 22
134 1 14.8791 8.89584 6.83564 15
135 1 -7.9559 0.958136 18.5706 11
136 1 7.6576 8.59034 -0.436885 25
137 1 -6.03995 12.7904 9.41924 19
138 1 -6.66454 15.2801 -2.89519 14
139 1 -0.253453 -1.24029 -8.84659 20
140 1 11.4033 -8.81015 -8.0197 15
141 1 0.895015 14.9307 -9.98005 16
142 1 6.14413 -4.53878 15.1093 20
143 1 1.95414 -3.29709 -18.6221 14
144 1 -0.0564237 10.4946 -5.10722 20
145 1 12.9151 -1.54191 -4.38581 19
146 1 -8.89857 8.92366 -6.73033 17
147 1 -8.9716 13.9923 0.448275 12
148 1 4.42865 5.40296 -15.2127 12
149 1 9.95674 -7.88254 9.97051 10
150 1 -3.36194 3.18275 -10.4457 17
151 1 -11.2244 9.91662 10.9358 11
152 1 10.4041 6.80842 -1.91385 22
153 1 9.11756 15.146 -5.62022 11
154 1 -2.75929 17.0239 6.14176 13
155 1 9.80204 3.46427 2.08972 21
156 1 -3.11381 8.84518 0.0483304 23
157 1 1.76465 14.7475 -6.7238 17
158 1 4.05242 8.43061 -15.937 8
159 1 -10.2156 -7.91962 4.76773 19
160 1 -15.6341 6.08865 -2.09853 8
161 1 -8.7082 -2.26531 -9.9685 20
162 1 4.40825 -10.3982 -16.4604 11
163 1 10.8287 12.1091 9.05376 16
164 1 -1.01982 17.3911 8.8187 10
165 1 -9.76564 -7.62358 1.47395 17
166 1 -10.7593 7.91751 5.50556 16
167 1 18.353 -0.139313 -3.68644 13
168 1 -12.7526 0.883607 -10.1662 13
169 1 8.05665 0.609894 16.9518 14
170 1 1.85323 12.924 7.61972 19
171 1 -5.27226 9.70729 11.1573 21
172 1 2.02334 -7.87813 -17.0082 14
173 1 -7.9502 15.1407 10.1633 9
174 1 -2.10097 14.8365 -2.43894 22
175 1 1.99166 -4.76513 10.991 21
176 1 -10.9995 -5.89904 11.8942 19
177 1 -0.840826 -11.6449 -12.0394 13
178 1 -6.03536 10.4411 -8.25614 16
179 1 -3.03524 -10.3765 4.22982 17
180 1 2.79174 -10.6835 -2.48997 21
181 1 -1.78118 12.7116 -9.74418 16
182 1 -15.7501 5.3471 6.15334 10
183 1 2.52206 9.25525 -0.750482 18
184 1 10.1577 7.03739 -4.71378 20
185 1 -10.1275 2.951 17.4812 13
186 1 2.96899 -4.72881 17.3837 12
187 1 -8.36751 4.34123 -0.441664 22
188 1 2.19287 15.9877 3.83157 14
189 1 4.0572 10.6918 8.72232 16
190 1 13.148 6.50798 11.2871 18
191 1 -6.01771 16.1957 5.41613 14
192 1 15.8872 -1.4145 -8.81062 9
193 1 -6.96466 11.8117 11.9458 13
194 1 -6.05012 1.95821 -10.6684 20
195 1 12.9631 -2.54498 0.440526 19
196 1 -5.9055 -4.12348 6.16103 20
197 1 -17.0461 2.01166 5.78298 11
198 1 -8.7262 -11.5009 3.80201 20
199 1 4.775 7.91894 12.0224 20
200 1 -11.7612 1.84094 3.28285 21
201 1 -3.20201 -13.0201 0.542542 20
202 1 11.4259 -8.83737 -1.39297 18
203 1 -0.211733 9.19034 4.74685 20
204 1 -6.00883 1.3298 6.05927 23
205 1 8.96184 12.4787 13.7312 15
206 1 -9.36205 1.99598 -2.53668 22
207 1 -3.90495 15.165 -4.87837 15
208 1 -14.5207 -6.50402 -5.11563 6
209 1 -9.91475 3.0453 11.9732 19
210 1 2.43118 -10.6297 3.77057 21
211 1 6.56404 -12.9629 5.76776 20
212 1 -12.3684 9.80462 4.07579 14
213 1 16.5418 0.330768 5.71131 12
214 1 6.58416 1.65494 -7.31794 20
215 1 -6.92586 -7.57778 -15.4394 11
216 1 1.62964 -0.974066 14.2138 23
217 1 6.44545 -16.1273 0.571004 10
218 1 -1.8778 8.81476 -9.72404 18
219 1 6.11067 -11.5562 -12.2886 12
220 1 7.02273 -2.42732 -15.3751 18
221 1 1.76759 5.67833 -15.9472 11
222 1 -6.801 -3.90934 -7.43842 20
223 1 -3.64301 17.2872 -2.8786 13
224 1 -9.24017 -7.98812 9.12665 20
225 1 8.9827 14.3459 1.25292 15
226 1 -13.3146 3.30498 15.6762 12
227 1 -6.39278 13.0361 -5.62301 17
228 1 6.82095 0.914217 11.965 20
229 1 -3.66791 -4.89178 -16.132 13
230 1 -3.06896 12.1425 -4.50968 20
231 1 -0.206141 4.39872 -12.0768 18
232 1 -4.48019 -9.63877 7.84726 19
233 1 -6.37125 6.59075 10.685 20
234 1 -3.85765 8.0201 13.0437 21
235 1 2.349 -11.0063 -11.176 18
236 1 -1.23089 -12.7727 -2.60873 22
237 1 13.5684 -10.5431 1.7671 7
238 1 11.4183 8.36497 17.4467 11
239 1 7.61675 13.282 -11.8563 7
240 1 0.0851212 13.3047 -0.504627 17
241 1 -15.5888 1.48649 2.93313 12
242 1 -10.3056 12.3577 -1.72125 14
243 1 2.44676 2.6581 13.6743 20
244 1 4.25992 -15.9957 3.10453 21
245 1 15.0644 -1.6758 -2.07676 23
246 1 2.57215 5.71268 4.02636 20
247 1 -7.76297 6.64926 7.9669 17
248 1 -11.7597 -9.67355 -0.986418 15
249 1 8.02757 4.25083 -14.0394 12
250 1 3.25511 -1.97152 9.35167 21
251 1 12.276 7.95421 -7.26513 11
252 1 -0.25608 -10.0297 -4.13352 19
253 1 -2.83931 0.433973 -8.86355 21
254 1 2.83295 -17.0971 6.02388 12
255 1 12.6922 1.24008 -6.50329 16
256 1 -8.89973 -4.75819 4.33576 18
257 1 3.02696 -14.0119 -5.21115 14
258 1 -5.9494 -7.2167 -8.98036 22
259 1 5.13699 9.30152 -2.60598 17
260 1 -1.09784 -3.00997 -17.2459 19
261 1 7.38574 5.55904 16.4185 22
262 1 17.148 4.37637 4.41324 12
263 1 -5.91472 -6.8163 1.08233 22
264 1 12.369 -5.37378 -11.1755 14
265 1 0.302901 -7.13572 4.21624 18
266 1 -10.9571 0.441129 -7.85824 17
267 1 -8.46611 3.46519 -7.08583 21
268 1 -3.0836 -11.6401 10.7145 13
269 1 6.36772 -1.5697 10.6074 23
270 1 2.14543 -4.20381 7.8616 21
271 1 -3.79632 -5.26953 -12.2695 21
272 1 -0.236473 -6.77587 7.59482 21
273 1 4.43605 7.91367 -10.7319 17
274 1 7.40311 9.39483 2.34101 20
275 1 -4.97375 -6.80384 4.39782 19
276 1 2.05209 11.2522 4.64945 19
277 1 -8.26268 2.9204 15.3793 19
278 1 -11.0377 -7.30883 -9.32945 14
279 1 -6.52047 -4.2277 -10.6823 20
280 1 -2.36709 6.66613 -11.6764 20
281 1 -6.48587 -9.92976 -10.5993 15
282 1 -0.0305667 -9.68999 2.19014 20
283 1 12.1476 -3.77949 -13.929 9
284 1 18.726 1.65735 -5.72755 10
285 1 13.1171 0.891815 5.05347 19
286 1 -9.40909 0.0145177 12.7473 19
287 1 -2.98381 -10.5751 -2.06542 20
288 1 8.01539 3.78271 18.9456 10
289 1 -2.8186 -17.0511 6.50757 11
290 1 -0.727646 -12.387 3.99232 17
291 1 -0.833802 18.7309 -2.6247 12
292 1 4.65462 -0.0135077 -16.2123 16
293 1 -6.1112 -4.81192 -14.5083 18
294 1 -10.6757 -7.93602 13.4086 12
295 1 3.2211 10.1836 17.5918 14
296 1 2.35431 -10.6146 0.247208 21
297 1 -3.10464 -7.83202 -10.3407 18
298 1 -8.27082 6.42789 -8.72614 22
299 1 16.2699 7.68254 4.32775 14
300 1 -10.5564 8.26946 -11.1936 10
301 1 0.337387 10.3539 -8.12805 18
302 1 -2.78593 -4.8156 7.70858 21
303 1 7.96796 -9.95517 -6.5469 19
304 1 -6.81719 15.508 2.59959 14
305 1 2.71575 8.71071 2.69806 21
306 1 9.86311 3.18388 8.35972 19
307 1 -14.5092 0.43466 5.54052 19
308 1 -4.38497 -2.5707 14.3549 18
309 1 -5.67551 10.1245 4.94017 21
310 1 3.51547 -4.06069 -11.747 19
311 1 13.3678 11.2132 -1.56266 8
312 1 7.84038 -9.5304 4.55124 25
313 1 -2.86093 0.473687 14.0235 20
314 1 -17.1403 -3.61821 6.59889 11
315 1 1.81422 -16.4573 -4.93387 9
316 1 -9.32155 8.2475 16.4199 8
317 1 -10.5552 7.53859 13.3535 12
318 1 -15.4021 -2.59633 12.8844 12
319 1 -14.5266 -3.50807 4.76691 19
320 1 15.4419 -5.45963 -5.37836 12
321 1 -8.77652 -10.5171 6.92079 17
322 1 8.60293 -2.39316 -9.98611 15
323 1 10.3322 -12.1629 -1.52179 9
324 1 3.99765 16.4356 -1.64937 14
325 1 -9.39992 13.191 -4.75766 11
326 1 10.1479 5.97104 9.53359 20
327 1 -8.89717 0.615549 4.25597 22
328 1 8.37734 -3.72071 -5.09824 20
329 1 -4.17358 12.627 6.34248 22
330 1 -2.43226 6.29105 4.59168 24
331 1 4.52978 -9.27979 9.87028 15
332 1 9.17182 -2.23849 8.89736 22
333 1 -2.40309 6.18383 7.75484 19
334 1 -6.46237 -3.89057 -4.11257 21
335 1 -2.93407 3.43215 17.452 11
336 1 -1.81492 11.728 4.69368 18
337 1 8.18418 8.97174 17.0991 18
338 1 -7.07852 12.7517 -2.12848 17
339 1 -1.03635 -4.20938 -13.9329 20
340 1 -5.38476 4.52358 -1.95855 22
341 1 4.62348 -8.93871 -11.5926 21
342 1 -15.2256 3.15642 13.6097 11
343 1 -13.1333 3.93149 5.20561 16
344 1 -5.74302 -0.951497 -8.74408 22
345 1 -5.3983 10.5063 1.53482 21
346 1 7.43743 0.359924 8.22506 22
347 1 -11.2386 -11.4884 5.33936 12
348 1 7.38449 -4.20223 11.7183 23
349 1 -7.91723 -7.50981 15.8696 11
350 1 -13.331 6.79729 -0.120252 14
351 1 -2.70963 -2.16101 9.43961 22
352 1 1.7719 -8.90939 -7.63692 21
353 1 -8.41165 0.632969 -9.39114 19
354 1 6.9083 -4.04698 -12.496 19
355 1 1.42695 14.9826 9.68229 17
356 1 -12.2476 -3.89175 -3.78144 13
357 1 7.90884 -8.30122 -12.1105 16
358 1 11.4564 3.03798 -9.92854 15
359 1 -1.28676 -10.2237 -7.1988 18
360 1 -8.65123 -7.75297 -7.3317 17
361 1 -2.51449 -7.15519 -0.642401 22
362 1 8.04919 7.20851 19.9234 10
363 1 15.4147 0.388011 -4.45791 20
364 1 -10.7102 3.28082 -8.25031 19
365 1 1.22543 17.8133 0.629055 11
366 1 -13.3631 1.16705 -6.56128 17
367 1 -5.03424 7.17436 6.36202 19
368 1 -7.03586 12.1094 3.95543 17
369 1 -5.10414 4.41393 8.08446 23
370 1 13.5268 12.1944 12.2745 11
371 1 11.2358 -2.73564 -6.16893 19
372 1 7.3718 -1.55295 13.6766 22
373 1 6.02746 1.38647 -10.513 16
374 1 -5.58433 -12.6074 -4.34594 13
375 1 -1.06595 -4.3024 -7.35449 19
376 1 0.962482 9.7562 8.13501 17
377 1 -5.50037 1.91097 -7.21677 21
378 1 8.57309 -9.50179 0.95245 18
379 1 9.77878 -1.87117 11.9816 22
380 1 -11.1981 -1.48856 -1.81473 16
381 1 -2.40038 -9.9163 0.858291 21
382 1 -7.50316 -2.02684 13.6131 18
383 1 -2.64097 11.8146 1.68423 22
384 1 -11.3031 -11.6716 1.67144 11
385 1 6.21147 9.79277 19.2668 10
386 1 -8.13532 7.38027 -1.90026 19
387 1 2.1467 12.6163 -8.89795 17
388 1 8.25421 11.0245 5.61625 20
389 1 -11.9738 -6.86211 -3.05395 18
390 1 -0.342604 -7.05934 -8.91068 19
391 1 -13.2687 -1.78639 7.19817 18
392 1 -10.8155 7.08125 -3.67508 22
393 1 3.59634 -7.88867 5.7063 19
394 1 -7.14088 -8.93094 -0.242455 14
395 1 9.33647 10.1661 11.4461 17
396 1 10.9441 5.55936 -11.9509 13
397 1 -13.0403 8.26418 -9.68118 9
398 1 -2.3878 15.6347 -9.60203 8
399 1 -8.51232 4.45582 -3.66517 22
400 1 1.05232 -12.408 6.54024 19
401 1 14.6986 3.42844 6.62467 18
402 1 3.03898 9.70543 -13.1679 13
403 1 -3.55627 0.931046 7.86673 22
404 1 -15.3444 4.73937 1.21927 11
405 1 -5.20811 4.48186 4.8043 23
406 1 -4.46629 -12.5918 5.71878 15
407 1 1.88003 -4.58797 -5.67184 23
408 1 10.173 -10.8717 -9.07118 10
409 1 -11.8452 1.42107 6.09974 18
410 1 -9.91486 0.85946 10.2665 16
411 1 -9.2116 10.6762 5.60512 17
412 1 0.0895458 -7.75633 14.5145 15
413 1 -9.89148 2.22362 -15.5345 9
414 1 7.93116 -8.48051 -8.77248 18
415 1 2.32324 -8.68428 -13.4289 21
416 1 -4.85027 0.464723 16.5056 16
417 1 3.13697 -7.98472 -0.860313 21
418 1 -5.35116 0.742802 -14.8652 16
419 1 10.3672 -9.73654 6.89266 12
420 1 2.78467 11.582 -2.66114 19
421 1 -12.575 9.95988 7.80253 12
422 1 -7.59877 -0.00242334 15.8241 16
423 1 -13.6793 -1.61697 -8.22039 11
424 1 -10.1433 -3.24068 11.4359 17
425 1 10.4502 -1.56963 14.9732 13
426 1 10.3056 0.299367 7.0624 16
427 1 3.55165 1.46617 -8.51568 21
428 1 10.6829 -5.44073 7.01112 16
429 1 15.0325 4.98843 -1.67928 17
430 1 -2.65491 3.60353 9.75688 19
431 1 1.01877 16.2582 -1.76641 17
432 1 5.7417 -7.7568 7.41375 21
433 1 -2.46149 -12.694 -6.11274 16
434 1 -8.02487 3.66037 20.3753 7
435 1 -2.20484 14.4933 13.4006 15
436 1 -7.61149 -9.51374 -3.94811 19
437 1 6.33692 12.9434 1.2245 20
438 1 5.10019 6.07431 5.93363 15
439 1 -7.87257 -1.78128 10.2208 20
440 1 -7.25726 -7.96881 4.59341 20
441 1 -16.8197 3.12232 8.17482 9
442 1 -5.88268 -7.12036 -5.40948 25
443 1 -2.83382 11.7188 8.91772 18
444 1 -4.06377 -10.3489 -4.93095 20
445 1 -0.393339 -9.00979 -14.4219 14
446 1 -4.97946 -17.0224 3.93714 12
447 1 -5.38364 -1.48189 7.76476 21
448 1 11.0875 6.24581 6.76972 19
449 1 -6.29631 -2.23692 17.3389 12
450 1 -7.93158 10.3451 -9.96109 14
451 1 9.07395 5.00777 0.0267686 19
452 1 -3.84647 -14.0773 -1.93287 16
453 1 2.15219 6.06479 -5.98647 18
454 1 -0.743628 16.4883 2.96628 14
455 1 0.832686 7.03796 -10.7938 19
456 1 -1.17627 8.86886 14.3283 20
457 1 -13.4247 -0.394714 0.673903 13
458 1 -1.99803 17.4535 -0.172516 15
459 1 5.87253 10.3427 -5.47751 16
460 1 -5.49182 -7.35993 -12.4155 21
461 1 5.2977 2.52853 17.1518 16
462 1 3.83001 -12.1995 -7.80023 16
463 1 -4.0248 -2.47972 -13.7998 24
464 1 7.70169 -11.71 2.88859 21
465 1 -10.0383 9.40127 -1.06225 17
466 1 0.249751 10.099 16.9582 13
467 1 10.8994 9.7983 -1.24285 20
468 1 4.87971 6.70584 -0.861123 23
469 1 -5.45055 7.77581 -10.2658 21
470 1 3.38089 6.79749 -8.49191 16
471 1 2.83012 -7.815 2.50351 22
472 1 -12.0322 -4.31827 -0.183414 20
473 1 6.20543 16.2826 8.89734 11
474 1 -6.31768 4.76646 -12.2842 18
475 1 15.8849 0.837484 2.992 16
476 1 5.5919 14.2207 -6.46953 17
477 1 8.17375 -4.29016 1.34702 22
478 1 14.8293 -0.136966 0.465931 21
479 1 -1.2426 -0.805408 -14.6269 19
480 1 4.07827 -13.964 5.73277 21
481 1 0.936837 -9.12252 6.76867 16
482 1 2.46126 -8.14632 12.3563 18
483 1 -5.9218 4.67374 -8.7043 21
484 1 -8.45958 -13.4659 6.25271 13
485 1 -3.95117 -10.4316 -8.62885 18
486 1 8.64163 13.6249 7.49716 17
487 1 3.64671 1.12494 -11.9142 18
488 1 0.369065 1.10629 15.8938 14
489 1 -14.7087 2.47673 10.8564 17
490 1 1.03794 -14.7072 -1.96951 18
491 1 -11.4004 -3.65187 3.12831 21
492 1 13.4182 -6.54309 -2.55734 19
493 1 9.38978 -1.99657 -3.78897 20
494 1 -2.71625 6.33062 -2.23575 22
495 1 -0.0448834 -6.93051 -5.78982 22
496 1 -0.779126 7.23038 -14.1112 13
497 1 9.82478 -6.29718 -6.29461 21
498 1 -5.6223 3.18678 18.6619 13
499 1 4.01315 13.4524 3.38242 21
500 1 -5.65837 -1.78821 -16.3363 10
501 1 4.36682 -2.84155 -19.7798 9
502 1 -5.58277 -4.29696 9.26018 21
503 1 -2.2154 14.3341 4.49517 22
504 1 -11.1713 -7.48683 -12.9316 9
505 1 -13.654 -1.39689 3.14339 18
506 1 -1.33086 -6.39795 -16.2328 18
507 1 -5.53428 -7.4553 14.1151 16
508 1 2.69014 11.6966 -5.87499 20
509 1 13.4232 1.00667 8.69475 20
510 1 18.7965 1.10513 2.82222 8
511 1 -8.25036 -12.2802 1.00866 13
512 1 -0.127565 -9.36779 -1.27849 24
513 1 -0.119505 -5.55037 -18.7146 9
514 1 -10.012 11.8447 8.65253 11
515 1 6.49993 -6.29835 -6.61622 18
516 1 11.9237 -0.263471 -1.62219 22
517 1 3.73876 16.2819 -8.14418 11
518 1 5.95922 -6.92189 0.757115 21
519 1 14.1996 6.07092 -5.9705 11
520 1 4.33311 4.87204 14.8121 22
521 1 -10.6109 3.39666 8.15146 19
522 1 7.52039 8.20297 10.4407 21
523 1 9.66488 3.07711 16.5698 15
524 1 -3.4404 2.807 -16.4294 10
525 1 -3.53556 -5.06116 -5.58267 21
526 1 0.860394 -1.66311 10.8174 19
527 1 7.38735 11.1559 9.10944 19
528 1 10.0083 8.68462 -9.97839 13
529 1 -5.27209 7.54737 -6.94351 24
530 1 -4.94676 16.1329 -0.364944 16
531 1 8.75017 -3.35383 17.3859 7
532 1 9.88934 2.38634 -13.1274 15
533 1 10.9657 -9.93229 3.5463 17
534 1 10.0161 9.53018 14.5163 17
535 1 -14.5374 -3.66147 0.806034 14
536 1 -4.09443 12.8786 -7.5783 16
537 1 -0.445619 1.39317 9.41449 21
538 1 -16.5596 0.382786 11.7535 12
539 1 -1.2546 13.4088 -7.25397 19
540 1 5.53413 -9.10243 -2.08317 21
541 1 5.8415 -1.19128 -8.25131 17
542 1 -3.68627 16.4925 2.77217 16
543 1 -9.43954 -5.53119 -14.949 10
544 1 5.65143 -18.103 4.88186 7
545 1 -6.68425 -6.51939 -2.42419 21
546 1 2.27237 12.7992 -12.0496 15
547 1 -2.93063 3.623 -6.96253 21
548 1 -2.43797 11.642 15.8882 14
549 1 -8.33124 -6.21371 6.78 17
550 1 5.81582 4.24477 -2.80931 19
551 1 3.48998 -7.50634 -4.20635 22
552 1 4.95087 -7.03203 15.1205 11
553 1 8.3413 0.366095 -2.38154 19
554 1 -8.70277 6.53986 1.69306 16
555 1 4.48709 5.32051 17.8241 13
556 1 6.44991 16.3394 -3.85363 10
557 1 10.4295 -5.74196 -3.07983 21
558 1 5.63085 5.38879 9.92697 16
559 1 1.48651 0.285406 -13.1495 21
560 1 -5.35605 -10.1354 11.7216 15
561 1 -0.364787 4.59703 -5.58834 20
562 1 6.64062 -4.35305 -17.6729 14
563 1 2.13857 11.6861 10.6001 16
564 1 8.37513 4.01497 -10.7327 21
565 1 -6.48262 -1.20034 -12.273 22
566 1 -8.91921 -12.2306 -4.56036 10
567 1 -11.1959 0.250917 -13.6769 12
568 1 10.4178 2.12903 -0.724141 20
569 1 17.4391 0.618185 -0.181254 13
570 1 5.69457 -6.09819 -10.0192 21
571 1 13.1966 10.421 14.8707 10
572 1 7.87694 -4.33318 -7.91943 19
573 1 2.10424 0.200183 -19.1215 9
574 1 5.08383 12.262 6.2945 21
575 1 -8.16365 3.67548 2.96734 20
576 1 11.5421 12.8589 15.2306 11
577 1 11.4622 4.33084 -5.77475 18
578 1 14.1344 -1.84013 3.49582 20
579 1 7.12421 7.18806 -14.9849 10
580 1 9.93165 6.08166 18.0829 13
581 1 12.8483 7.45474 14.2778 16
582 1 -2.90978 -5.22309 10.8514 22
583 1 11.4646 10.0302 -4.57219 13
584 1 -0.264865 1.05252 12.6858 25
585 1 16.0667 -2.26836 -5.28272 15
586 1 12.7156 3.81408 9.38604 17
587 1 -8.51882 -1.65537 -7.00026 21
588 1 15.5454 6.03528 1.52894 11
589 1 11.9759 -1.75327 6.70635 19
590 1 -9.38581 6.62807 10.8916 22
591 1 10.3287 15.2732 12.4997 9
592 1 10.3139 5.51389 14.8592 18
593 1 9.43493 8.71958 8.12901 23
594 1 -3.0419 14.7197 10.3008 17
595 1 7.37389 3.27564 10.3879 22
596 1 -0.0516202 -17.7924 0.26744 9
597 1 -4.97977 10.2556 -1.61943 22
598 1 9.08301 9.41414 -6.20744 21
599 1 13.6494 -2.3261 -11.2972 11
600 1 2.73447 15.0151 0.778595 17
601 1 4.13815 -10.2585 -5.60036 20
602 1 9.97196 -3.95813 -15.7337 11
603 1 -14.9031 5.82391 9.71445 12
604 1 -3.20435 6.21728 -8.67635 22
605 1 -0.0889143 -14.815 2.05033 20
606 1 -8.02369 1.35972 -13.0422 20
607 1 -12.0239 1.88041 -0.349878 17
608 1 7.94733 -4.86526 8.00364 21
609 1 14.2775 10.3874 4.17135 11
610 1 2.693 -7.06751 8.94637 21
611 1 -9.77901 1.13265 -5.31614 21
612 1 -0.464365 1.23001 -17.3557 14
613 1 -3.33664 5.99795 15.6107 20
614 1 7.97725 7.58903 -11.7455 15
615 1 12.1364 1.32554 11.236 18
616 1 9.58134 2.24121 -7.3857 17
617 1 10.2169 9.30918 4.95755 18
618 1 5.20947 -8.93635 -7.99817 21
619 1 -12.9162 -2.33764 15.7677 10
620 1 15.4082 -1.83642 8.30967 13
621 1 1.24653 14.7017 12.7644 13
622 1 7.29548 15.369 -9.02306 9
623 1 -13.344 6.42831 -4.00317 18
624 1 9.08407 3.93616 5.14282 20
625 1 -4.72036 -15.5737 1.3317 13
626 1 16.5154 -3.25076 5.90356 10
627 1 7.09621 16.1289 6.31031 9
628 1 -3.42874 6.79391 10.6481 18
629 1 -8.15071 -1.98838 6.06107 21
630 1 -11.0566 -3.50273 -7.48587 21
631 1 6.75106 2.56302 14.6591 20
632 1 -2.7478 -5.68732 14.4242 18
633 1 6.97304 5.62618 13.0299 22
634 1 -4.64125 13.5547 3.44694 21
635 1 10.3194 1.3221 3.68486 20
636 1 6.23238 3.36871 6.93431 22
637 1 1.3531 -2.59912 -14.5486 19
638 1 -9.84155 -3.55037 7.51035 22
639 1 7.77151 0.951613 -15.4488 12
640 1 -3.91921 -5.00619 -8.82655 19
641 1 13.0644 -10.3794 -2.67093 10
642 1 7.74481 5.95157 7.88902 19
643 1 6.08563 4.18203 4.09741 23
644 1 -11.512 1.14151 15.2883 17
645 1 13.5033 6.81803 8.79515 21
646 1 0.144622 -5.40045 16.5413 13
647 1 -0.952311 6.39094 12.8511 21
648 1 1.00693 -5.94544 -12.7173 22
649 1 -8.0635 3.81359 9.46804 20
650 1 3.93596 -0.204944 13.04 19
651 1 -5.76219 -15.4114 6.65716 12
652 1 13.6492 7.94235 -0.961492 12
653 1 6.04542 -8.6069 -4.78303 21
654 1 -2.89153 6.4652 -5.30571 21
655 1 5.45321 10.1377 0.476236 23
656 1 6.2511 8.85986 7.06356 19
657 1 1.42762 -0.961233 -16.6591 18
658 1 8.07655 11.6909 -1.15819 22
659 1 12.3361 4.34652 -0.474417 20
660 1 -5.77272 -12.4555 2.41031 20
661 1 3.91033 -6.16129 -19.1243 11
662 1 -10.7196 11.5072 1.57328 16
663 1 9.37707 -6.14039 -9.92837 21
664 1 8.02464 6.28383 2.1324 21
665 1 12.9125 5.23232 -3.25606 18
666 1 10.9788 13.4557 -0.829496 15
667 1 -5.85269 7.58603 3.42586 22
668 1 7.65916 6.35136 -3.05535 19
669 1 12.4187 3.01904 14.222 14
670 1 9.51528 1.05518 13.548 17
671 1 -0.539827 -10.0936 11.9806 13
672 1 -4.91982 7.86938 -13.2615 13
673 1 5.76602 11.3291 11.5891 18
674 1 9.9031 -6.35261 -13.2472 15
675 1 2.16722 0.908467 10.8647 21
676 1 6.59042 15.5033 -0.205145 12
677 1 12.1149 10.5205 6.72901 14
678 1 12.1798 -3.16714 -2.36268 21
679 1 4.3134 8.02865 19.9719 10
680 1 -13.1804 -3.68618 10.6549 15
681 1 5.63885 -11.6657 -0.232402 19
682 1 2.30912 -1.8662 -10.4147 20
683 1 -11.5248 13.5655 3.24226 9
684 1 0.255029 3.85404 7.72293 22
685 1 8.02409 -3.76192 -1.7974 20
686 1 4.98752 10.1606 4.21206 21
687 1 -12.0742 -4.95866 5.8338 16
688 1 -4.79044 6.15642 18.8557 11
689 1 -9.4946 4.25542 -13.712 14
690 1 -8.00085 7.07323 -11.7894 14
691 1 5.27706 -9.8368 1.97257 23
692 1 6.98494 6.80288 -9.60366 19
693 1 5.9742 -7.20491 4.00747 18
694 1 -0.130237 6.70662 2.79152 19
695 1 -12.5831 1.37791 12.2461 20
696 1 4.22938 -1.37752 -13.0257 19
697 1 4.29694 -11.6103 7.99343 15
698 1 3.40131 16.1659 7.03806 13
699 1 -4.88523 3.0713 14.7667 16
700 1 -9.64312 -9.04174 -14.568 9
701 1 -6.63593 -10.3761 -13.9557 11
702 1 -6.04287 -10.249 -6.9008 16
703 1 -0.543249 16.0606 -4.91991 16
704 1 2.79585 -1.33904 -7.18302 21
705 1 0.0734942 6.84462 9.55514 17
706 1 2.53803 -7.13096 -10.3063 23
707 1 8.28999 -14.1147 0.823457 14
708 1 -0.242122 -4.16903 9.51783 21
709 1 16.0632 0.683915 -7.03073 14
710 1 5.25844 -12.0311 -3.61492 17
711 1 -17.0338 -2.90452 9.81418 11
712 1 -1.14449 -15.1406 -4.33779 13
713 1 -10.9667 -10.1215 -3.94714 12
714 1 -14.4998 -1.0567 10.254 17
715 1 -1.88406 -17.0817 3.12588 15
716 1 17.4471 4.99069 -3.99876 9
717 1 -1.42324 13.9753 7.47927 20
718 1 -9.20986 0.197797 7.50897 20
719 1 -13.5076 6.93316 6.34211 15
720 1 8.55233 -1.33487 2.75781 22
721 1 -11.0961 -4.81123 -10.8114 17
722 1 -0.45981 10.615 -1.74653 19
723 1 5.32117 4.80419 -12.1808 17
724 1 8.69611 12.1099 17.0805 10
725 1 7.48249 2.47833 -4.57892 18
726 1 -11.307 -1.28537 -5.23927 18
727 1 -13.0008 -5.24146 -7.6609 14
728 1 4.20675 10.3946 14.3189 18
729 1 5.32259 11.1991 -11.1015 17
730 1 10.4414 12.6753 4.27038 12
731 1 -3.40282 0.737823 11.0209 21
732 1 0.104146 -12.4114 0.300462 23
733 1 -3.46652 -14.3106 8.69712 14
734 1 0.0857401 -7.52943 10.7422 21
735 1 12.4209 14.8338 10.2661 9
736 1 4.70822 -6.04621 -13.6548 19
737 1 -6.15971 7.4267 0.0698018 23
738 1 12.1699 4.0023 4.70741 17
739 1 -8.81542 -5.15082 9.63146 19
740 1 7.32411 9.86587 -8.29564 15
741 1 0.0648382 -14.8173 -7.37344 11
742 1 3.04156 -16.9454 0.074118 12
743 1 2.88133 -13.6199 0.199272 20
744 1 5.05657 3.9091 -9.04311 21
745 1 6.01389 15.4931 3.01089 13
746 1 -2.96686 -0.214703 -16.5251 14
747 1 -3.11175 3.85388 12.844 19
748 1 -0.518317 4.04355 -15.6719 16
749 1 -13.208 5.65661 -7.61724 13
750 1 -9.19091 -4.10564 -2.3728 23
751 1 2.31451 17.5187 -4.67613 12
752 1 9.4778 -1.45423 -0.208394 23
753 1 -3.77409 -7.7116 -14.6025 15
754 1 -6.39659 -3.70155 -0.403411 23
755 1 10.0969 6.31538 -7.91702 17
756 1 10.972 -3.47287 2.87031 21
757 1 -12.0 4.42265 10.326 20
758 1 7.10417 -7.23167 9.87527 21
759 1 17.5486 -2.82291 0.201829 10
760 1 13.714 -4.387 7.86207 12
761 1 -1.55742 9.02343 10.5542 17
762 1 -14.3572 0.143538 14.2501 13
763 1 -8.13941 5.44868 17.7393 13
764 1 -0.284385 -13.2006 10.4163 12
765 1 9.41127 -6.80291 3.42185 18
766 1 9.72549 7.06714 12.4252 19
767 1 -10.6033 -1.46986 1.40519 23
768 1 9.3688 -7.0384 -0.605336 17
769 1 -7.34191 10.0169 -3.21443 21
770 1 5.34233 7.08524 2.32154 22
771 1 7.59102 -15.5559 4.06564 12
772 1 1.85164 3.78931 16.6918 14
773 1 -0.61994 13.1812 10.8577 21
774 1 5.67902 -16.1344 6.95942 12
775 1 -8.21373 -1.0363 -0.96432 22
776 1 4.50238 0.0584794 15.7682 17
777 1 -11.4095 -7.49296 -5.93668 16
778 1 2.30754 12.7402 15.7024 11
779 1 7.46795 13.3915 4.233 17
780 1 -11.848 -8.5742 6.91213 11
781 1 -0.350105 -15.5303 5.0558 19
782 1 9.05292 -1.4756 5.62697 21
783 1 12.6269 -3.35958 12.2505 10
784 1 7.74808 7.42699 4.94345 24
785 1 0.0238522 7.42615 -4.0163 21
786 1 -1.25557 -4.19259 -10.7527 20
787 1 0.643006 1.37364 -10.0957 23
788 1 -6.27729 1.30377 13.1545 21
789 1 0.488722 15.2107 6.14325 19
790 1 13.0884 2.24028 1.86179 19
791 1 7.73719 4.92841 -6.57114 21
792 1 -5.94176 7.54235 16.2474 16
793 1 7.10067 8.9352 13.5179 19
794 1 9.95067 -0.884144 -14.6094 13
795 1 -1.62446 -15.5767 -0.729932 16
796 1 -5.73893 -1.16847 -5.57167 22
797 1 13.1857 -4.38997 4.84588 15
798 1 7.14908 -0.444006 -12.4719 17
799 1 0.0772852 11.8898 13.5629 19
800 1 11.0072 -10.2954 -5.4744 13
801 1 6.27606 10.3057 -13.9673 11
802 1 -3.25291 -7.85562 -7.23559 21
803 1 12.9251 6.28457 -9.41086 10
804 1 11.8796 -0.830614 1.95884 19
805 1 0.59679 -2.52392 17.2403 10
806 1 -3.97128 -11.0009 -11.786 14
807 1 8.9975 11.4015 1.42038 22
808 1 -2.40099 -7.4639 2.60329 22
809 1 -10.5282 6.23705 7.55906 20
810 1 14.8473 3.30289 -4.84875 18
811 1 16.5175 5.94711 7.1661 15
812 1 7.20566 -5.43083 -15.0534 17
813 1 -8.28588 9.32081 9.89446 16
814 1 15.0838 8.19095 12.503 13
815 1 9.4248 15.6203 -2.2824 11
816 1 2.31513 2.00948 -16.0415 17
817 1 11.1298 -5.19932 -0.220099 19
818 1 -11.4217 4.70072 1.52308 17
819 1 12.9802 8.41933 2.59484 16
820 1 -12.8301 -7.20787 0.407585 14
821 1 -8.07013 12.864 -8.12609 9
822 1 4.79687 3.43186 11.9423 21
823 1 -9.26512 -5.23085 -8.92166 20
824 1 -12.5469 1.16384 8.64324 19
825 1 -0.847371 4.21708 -9.07424 19
826 1 13.3356 -6.04417 -8.08183 14
827 1 -9.31864 -7.20068 -4.1648 17
828 1 15.2922 -4.57317 -0.980885 14
829 1 -13.2683 6.24281 3.3455 18
830 1 -9.65823 -4.43108 -5.41485 21
831 1 14.9629 9.87789 10.5657 14
832 1 -5.72693 -6.89504 10.6747 23
833 1 13.1036 5.2714 17.0294 11
834 1 12.2061 -1.83849 9.98028 20
835 1 5.97963 -2.22119 7.50168 24
836 1 -11.3802 8.2582 1.52786 18
837 1 -2.66953 11.2639 12.4738 23
838 1 4.3183 10.6393 -8.41423 20
839 1 1.27809 -11.0296 -14.9481 12
840 1 -5.5253 15.7899 8.59058 14
841 1 -6.74132 -9.1285 9.47746 20
842 1 8.37386 9.37463 -3.21603 22
843 1 2.69665 5.444 11.5742 18
844 1 17.7181 -3.71155 -3.18647 10
845 1 9.7278 -4.90995 10.5864 18
846 1 -1.14928 13.2985 -12.4757 11
847 1 2.20261 9.63933 -10.5687 18
848 1 -5.47496 -1.39598 11.1471 18
849 1 16.4735 8.06248 9.36369 13
850 1 -2.84542 -2.43075 -7.34486 21
851 1 12.0156 11.0839 1.59674 16
852 1 -12.7498 1.35878 -3.56545 17
853 1 -2.73643 -8.39778 12.5262 18
854 1 3.55042 14.5152 -4.20833 19
855 1 4.95029 -4.69924 9.7985 23
856 1 1.09672 -11.8593 -5.70701 18
857 1 -9.10094 14.906 5.08789 12
858 1 -14.4674 3.484 -2.16444 14
859 1 10.847 -3.91748 -8.70473 21
860 1 3.7227 -11.8302 -14.1062 13
861 1 -8.42364 9.31596 2.91767 19
862 1 9.71196 12.3048 -3.87911 20
863 1 -6.79768 1.1456 9.5418 20
864 1 4.27423 -3.46196 -15.2609 19
865 1 -8.90746 -7.77901 -11.336 14
866 1 -2.47876 -7.56816 -3.93607 25
867 1 -4.6805 13.6012 13.8091 12
868 1 10.7418 -12.2552 1.97942 13
869 1 -2.43479 10.3797 -13.9028 10
870 1 17.1015 2.62398 -2.84996 16
871 1 16.4998 3.00522 1.17797 14
872 1 4.27455 -15.0748 -2.73553 14
873 1 1.78294 -4.98819 -16.0573 20
874 1 9.53668 3.85341 -2.88687 20