ITEM: TIMESTEP
5000
ITEM: NUMBER OF ATOMS
1000
ITEM: BOX BOUNDS pp pp pp
-30.0 30.0
-30.0 30.0
-30.0 30.0
ITEM: ATOMS id type x y z Coordination
1 1 1.55165 -7.38121 -10.3605 22
2 1 7.41842 -10.9398 7.6648 13
3 1 -4.49894 9.60586 -2.65634 19
4 1 -9.8935 4.30837 -6.34605 17
5 1 -0.568404 -6.97267 9.16003 18
6 1 -6.7126 0.883937 -13.2757 12
7 1 -6.79973 -0.335423 -8.00658 21
8 1 -2.29989 -11.6073 0.0243538 16
9 1 6.3814 -2.63945 2.93638 21
10 1 2.36169 1.88396 8.45047 22
11 1 6.28559 -3.70892 -0.427474 20
12 1 -1.26642 6.2869 -10.874 11
13 1 -1.34818 -1.91573 9.18378 21
14 1 -8.38752 1.55553 -2.21541 21
15 1 -3.20202 -0.344584 -7.21472 23
16 1 -0.0468738 -2.287 6.2967 23
17 1 1.9736 -6.47738 -7.21052 21
18 1 3.04045 -0.128358 13.1627 11
19 1 -0.724232 -13.8991 5.01588 14
20 1 -11.6523 0.789553 1.76415 12
21 1 -5.76448 -0.186379 -5.37826 18
22 1 -3.53872 12.3215 -5.07726 14
23 1 6.22339 -4.11447 -11.1664 24
24 1 6.19416 -8.09205 -10.7693 17
25 1 -2.48211 -4.54654 10.4812 14
26 1 -10.5187 2.51708 -0.180576 13
27 1 -1.31436 11.2221 -1.8361 19
28 1 3.22737 -12.5233 2.72367 17
29 1 9.76653 -7.53873 -6.19247 15
30 1 8.72681 -0.481275 1.80622 21
31 1 -6.7318 7.65725 -7.9919 15
32 1 -1.09087 6.30644 -5.52701 20
33 1 2.70294 4.86618 3.64841 21
34 1 3.5426 4.77448 6.88421 17
35 1 -5.03938 -3.01507 -0.489117 18
36 1 3.97442 -3.25419 11.7188 15
37 1 -12.6306 -4.85887 1.30066 10
38 1 13.6067 2.01512 4.76649 11
39 1 6.53589 -3.94316 -3.26217 22
40 1 4.39774 -0.441972 9.54195 21
41 1 -5.6998 -5.85016 1.22145 18
42 1 -0.209672 -4.97213 -8.98023 22
43 1 -7.23146 7.82253 -0.408111 16
44 1 -0.996843 3.49302 -13.1014 12
45 1 5.48906 1.3271 -5.67757 18
46 1 7.04127 -2.36225 -6.13312 19
47 1 5.39057 -8.68361 3.04795 19
48 1 4.14346 -11.5858 8.17561 13
49 1 -2.75249 4.93768 3.42617 20
50 1 -7.06831 -7.74615 9.07467 13
51 1 -8.08902 1.4267 4.95784 20
52 1 8.31542 -6.47773 -3.88669 19
53 1 5.9403 0.0557668 -14.6151 11
54 1 5.7301 -2.4425 6.17774 17
55 1 0.453084 10.7531 1.09459 16
56 1 -4.13152 6.93058 -10.0845 13
57 1 1.75241 7.82869 1.80039 18
58 1 -4.96221 -10.3161 7.70361 14
59 1 4.18273 -7.9231 -8.05428 23
60 1 3.33892 -8.23494 -12.8426 12
61 1 -2.34314 1.88834 5.25792 21
62 1 -10.4885 -9.29084 0.606481 9
63 1 5.19298 -5.6262 1.26717 22
64 1 -7.29304 -9.10015 -4.08464 18
65 1 10.8453 -9.18909 2.99691 13
66 1 -2.56974 7.4677 1.8345 23
67 1 -3.94002 4.56396 0.284705 22
68 1 3.88818 4.45153 -7.83935 21
69 1 11.2423 -10.0439 0.0308582 11
70 1 -8.67447 -11.9741 -2.82045 11
71 1 9.99558 7.36598 4.19541 15
72 1 8.40879 5.37908 -3.70177 21
73 1 -5.7077 9.77149 -5.50106 15
74 1 0.286212 -9.71338 -12.4519 12
75 1 -0.658748 10.7919 -7.68494 11
76 1 11.0299 1.9592 -7.48999 17
77 1 6.78304 -0.245626 -11.4328 19
78 1 10.1963 -8.78326 6.26426 15
79 1 -5.49293 1.80249 -10.6282 23
80 1 5.02337 10.3832 -1.80158 14
81 1 9.84653 8.0059 -4.15443 17
82 1 -1.77435 7.60606 -2.77286 20
83 1 -0.97208 -4.39494 -11.7646 18
84 1 -9.46362 -0.864644 -7.45754 16
85 1 -5.32588 7.78292 8.27165 17
86 1 0.857018 8.53289 -6.22521 17
87 1 4.97582 -5.7019 11.4668 10
88 1 -10.3202 -3.64322 2.78402 15
89 1 -2.77399 -12.0815 2.84604 24
90 1 0.621372 5.94138 -2.29746 22
91 1 9.96392 7.69669 -7.90578 11
92 1 0.745736 -11.7613 7.77429 15
93 1 -7.43643 4.42785 -3.22067 19
94 1 2.59165 4.98262 10.0555 14
95 1 -4.66723 -1.25429 -9.96588 20
96 1 -4.48664 -5.96244 5.15923 19
97 1 -7.65312 -11.2842 0.914769 15
98 1 -5.20933 -3.41711 -3.8105 22
99 1 6.44074 -8.51148 -3.27064 20
100 1 -1.96835 8.55013 9.31977 9
101 1 -5.87052 -0.64914 1.56799 20
102 1 -7.86754 -2.10484 -5.74044 19
103 1 0.477033 -10.8565 2.0525 18
104 1 7.80244 3.35031 -6.06171 20
105 1 5.57429 -0.390357 13.2265 9
106 1 0.703478 0.720105 -11.7472 22
107 1 -7.16305 -4.89896 -10.7542 11
108 1 -5.58478 12.2058 -2.52354 8
109 1 7.8928 -0.304147 10.468 13
110 1 -4.23053 9.95592 -8.07954 13
111 1 3.29508 1.45078 -9.63825 22
112 1 -6.97472 0.245207 7.50491 21
113 1 -7.46192 5.9654 9.11779 13
114 1 -0.189565 -10.4596 -9.19862 18
115 1 0.628223 0.533096 4.71447 19
116 1 2.26119 -5.19375 -3.86025 19
117 1 6.18406 7.70514 -9.16457 11
118 1 0.454551 9.57536 -3.30971 19
119 1 -11.3568 6.23858 4.62038 11
120 1 5.53193 4.61723 8.9662 17
121 1 10.625 -0.0564207 -2.93972 19
122 1 6.57248 2.95105 5.83756 18
123 1 -8.46137 6.6329 3.7092 19
124 1 -10.8057 -1.71021 -3.98216 12
125 1 3.72852 -3.30578 8.04796 17
126 1 4.49852 -10.7717 -5.52522 20
127 1 2.72719 -4.81888 -12.3652 19
128 1 8.71183 1.44105 -10.7601 17
129 1 -8.78844 -2.25182 5.67306 17
130 1 -2.81045 -9.89987 -10.5607 12
131 1 -5.3571 -10.1593 1.684 20
132 1 -0.627533 -8.23159 2.90457 21
133 1 -5.13718 -7.62044 -10.2297 12
134 1 -8.42156 3.2156 -11.4085 12
135 1 8.94473 -2.07044 4.83774 23
136 1 5.99822 -5.81022 4.5448 20
137 1 3.59088 -6.8857 6.16411 19
138 1 2.75354 8.21186 -0.90458 23
139 1 -6.7591 -7.79581 3.44971 22
140 1 3.4411 11.0193 1.22795 14
141 1 -3.64536 -4.90422 -10.582 19
142 1 -3.92284 -9.0415 -7.85043 17
143 1 -6.48262 -10.9551 -1.64862 16
144 1 2.71943 -6.49178 3.11143 21
145 1 13.2309 3.38024 -0.929923 16
146 1 -3.13541 -5.77669 -3.49821 20
147 1 -8.10372 -4.23259 8.42006 13
148 1 -3.94803 -14.5991 0.322653 14
149 1 3.17602 0.447035 -6.86882 18
150 1 -1.94137 -15.1017 -1.78625 13
151 1 3.51806 -9.61497 -1.88604 22
152 1 -0.498481 -14.1497 1.28467 18
153 1 -9.38072 5.82365 -9.63386 12
154 1 11.7183 4.43247 4.08705 15
155 1 -4.16502 -1.00171 -13.9326 13
156 1 2.18878 3.50439 -12.4067 12
157 1 -2.9177 -6.26902 3.05014 20
158 1 1.99207 10.799 4.06069 11
159 1 8.48469 2.51192 2.07943 21
160 1 -9.28981 -0.948887 2.66329 20
161 1 -3.99374 -7.92429 10.0358 11
162 1 -3.63202 7.36444 5.02355 17
163 1 5.99951 -6.11495 -13.1999 13
164 1 3.82277 -13.039 -2.80825 16
165 1 13.0309 -0.975207 -11.5502 9
166 1 -1.99592 -6.15542 -0.27299 18
167 1 3.17355 -0.360598 6.5138 20
168 1 -7.4836 -3.52172 0.997002 21
169 1 11.3986 -8.60237 -3.48548 12
170 1 -4.38938 6.96281 -1.09019 20
171 1 -6.53746 5.8439 6.48321 21
172 1 7.98222 -10.5544 4.66385 18
173 1 0.533491 2.97769 6.55715 20
174 1 -6.00785 -5.6802 -5.07082 20
175 1 -1.91444 9.65157 6.49084 12
176 1 -8.23482 1.96707 -5.55812 17
177 1 -9.84576 3.71393 6.53817 15
178 1 -0.941423 -7.85933 -7.52048 21
179 1 -3.86519 10.3691 3.68932 13
180 1 10.4438 -5.05639 3.14659 18
181 1 6.70626 -8.18077 6.04655 22
182 1 -5.40017 1.8263 -0.0526131 21
183 1 -1.48667 -7.10593 6.34749 22
184 1 7.10063 -11.7107 -6.42071 12
185 1 -4.57467 -3.73769 -12.7131 12
186 1 -8.70549 -0.484243 0.0173745 20
187 1 -2.04867 -9.50595 -2.66773 19
188 1 9.25708 3.75548 -1.00131 22
189 1 -6.32201 5.32063 -9.56389 17
190 1 -9.27773 9.11929 5.09412 11
191 1 -6.96942 9.50871 2.4539 13
192 1 -4.84152 4.08289 9.00494 18
193 1 12.318 -3.80388 -6.85581 14
194 1 12.05 2.00703 -10.1877 14
195 1 3.34019 2.275 4.64565 19
196 1 -3.93729 5.00885 -3.35186 21
197 1 0.475009 -7.80425 -3.81802 21
198 1 -0.625684 9.08784 3.63386 18
199 1 7.48654 0.399882 -3.95037 18
200 1 -11.3362 1.02984 -6.14266 12
201 1 6.74129 -11.6933 -3.14257 12
202 1 11.2358 -0.442052 6.23236 14
203 1 -9.1896 -4.56077 -7.48377 11
204 1 -5.76345 -13.5148 2.64097 11
205 1 -0.608465 8.49086 -0.169095 23
206 1 -9.7062 6.54534 -2.02667 11
207 1 -0.996547 -11.0055 -6.08477 20
208 1 5.65953 -12.8938 5.62519 13
209 1 -5.29881 -16.1374 -2.65168 8
210 1 -8.89075 7.69663 -5.20278 12
211 1 -2.85289 -15.1904 3.62317 11
212 1 -2.92716 -1.21089 6.23683 20
213 1 -9.12292 6.64183 6.89531 13
214 1 1.5615 -9.6787 -6.1804 19
215 1 0.935918 -5.38607 4.8743 19
216 1 -10.7066 0.337865 5.3735 14
217 1 1.12109 -8.36569 7.27624 21
218 1 -5.33796 -4.88397 8.92311 17
219 1 3.70659 -7.90057 -4.91241 21
220 1 5.18786 -12.2905 0.00971403 18
221 1 3.7933 12.3061 -4.50677 10
222 1 -5.06177 -7.78995 6.8801 23
223 1 11.2093 -5.7957 7.90477 13
224 1 7.55157 1.14385 -0.875891 21
225 1 -7.39463 4.25963 3.83354 21
226 1 4.94416 -0.990806 -8.66823 20
227 1 8.63867 -5.5959 5.93569 21
228 1 2.57404 5.3162 0.626351 19
229 1 -2.1056 1.26561 10.7059 13
230 1 2.21082 11.6067 -1.95263 15
231 1 7.9468 -7.17404 3.09998 18
232 1 -0.971092 -14.8194 -4.62458 11
233 1 7.98452 6.65242 9.58101 9
234 1 -7.39698 -1.79557 10.0961 9
235 1 -2.08352 -8.57976 -5.16697 21
236 1 -6.74933 -8.98328 -7.0376 14
237 1 -7.72966 9.41142 7.98499 10
238 1 -4.43661 -14.0531 -5.14503 11
239 1 -4.53708 -3.16576 3.04034 21
240 1 8.00084 -0.0277164 6.27955 17
241 1 11.8541 5.7957 -3.37485 15
242 1 0.385067 0.168168 -8.64742 22
243 1 0.913098 2.83328 -6.76148 19
244 1 0.206499 6.19704 8.16293 17
245 1 -12.1137 -4.76506 -2.3886 10
246 1 5.65044 10.1494 -6.69625 10
247 1 -6.22733 -6.16388 -7.82084 19
248 1 0.638263 -6.2499 -13.3028 13
249 1 8.64759 9.72576 -1.75288 14
250 1 3.96522 5.23511 -2.15714 22
251 1 3.5993 3.40409 -4.5419 20
252 1 2.10789 -9.61013 4.16631 19
253 1 -1.05807 0.599904 -14.2027 12
254 1 11.7449 9.40823 -1.31701 10
255 1 4.7948 -6.20101 -2.0452 19
256 1 2.45413 -0.523057 -14.276 12
257 1 2.16196 -12.3257 -0.243169 19
258 1 1.95213 -9.25625 9.68897 13
259 1 -8.05952 2.73647 -8.56132 22
260 1 8.20188 5.61671 1.42983 21
261 1 3.31392 -1.7704 -11.069 23
262 1 -8.97101 -4.49481 -1.1032 20
263 1 12.8821 -1.515 -4.9007 15
264 1 -4.56385 2.01682 -7.7821 20
265 1 -4.46945 5.08137 -6.78653 21
266 1 8.06344 -8.94139 -8.81242 13
267 1 4.34084 1.11194 -12.3922 19
268 1 9.64066 -4.01704 -7.59944 18
269 1 3.05182 -9.6479 1.24347 21
270 1 -7.77056 -6.09058 6.2004 16
271 1 -2.72477 12.0794 0.645228 9
272 1 0.753157 5.81537 -8.10709 20
273 1 13.835 6.41726 -0.726613 11
274 1 -2.17444 -12.1239 -3.4291 18
275 1 3.63687 -12.6386 -7.64294 13
276 1 5.11735 6.21621 1.12505 21
277 1 12.7287 -5.45862 -4.08076 10
278 1 5.70707 -8.44491 -0.466853 20
279 1 9.07427 -3.29189 1.56215 21
280 1 -7.37174 2.94236 8.44673 15
281 1 -6.34486 -5.88141 -2.19955 19
282 1 -3.07338 -5.60359 -7.23525 19
283 1 0.720749 -4.58222 8.09249 22
284 1 7.06369 5.67809 -7.32059 18
285 1 -1.96057 7.74098 -7.89477 19
286 1 0.092386 12.2783 -4.3257 14
287 1 0.383772 0.284567 8.34913 20
288 1 0.956518 -10.5207 -3.44582 21
289 1 7.61294 -2.68386 -9.26466 20
290 1 -9.63961 -7.52642 -2.22938 14
291 1 -5.17404 2.03979 -3.21665 21
292 1 -9.10368 -6.3779 1.69314 19
293 1 6.66166 3.70331 -3.25368 21
294 1 5.51275 -10.6138 -8.98997 13
295 1 5.06015 -8.55265 8.71342 18
296 1 10.7597 -0.723004 -9.26859 19
297 1 -9.39896 5.49406 1.30184 15
298 1 6.54002 -8.19257 -6.17699 24
299 1 4.59699 7.38567 8.11881 16
300 1 -2.12859 -1.56805 -12.053 21
301 1 7.36421 2.66944 -12.7447 14
302 1 -1.2446 -7.33687 -11.0651 18
303 1 -4.573 -9.95433 -4.54328 20
304 1 13.7603 0.310508 -2.12209 16
305 1 10.629 -3.32175 -10.262 16
306 1 9.18566 -10.1357 -4.33294 14
307 1 6.88958 8.58153 -3.41392 14
308 1 -8.31979 1.90802 1.5627 22
309 1 10.6431 4.76622 -6.04485 18
310 1 5.7151 -5.73934 8.11024 20
311 1 10.4638 0.866429 3.82174 19
312 1 9.38442 1.235 8.47961 14
313 1 -7.50699 -2.86982 -9.10897 17
314 1 13.9106 4.40872 2.09108 13
315 1 12.8378 -7.0723 1.45643 12
316 1 0.425498 -8.60606 -0.461491 20
317 1 3.96727 10.3674 7.28279 10
318 1 5.95671 0.336627 3.98387 21
319 1 -2.97156 13.9268 -2.43109 9
320 1 -4.58532 -11.8156 -7.53711 13
321 1 -3.71943 1.64201 -13.4667 14
322 1 -7.19039 -2.36878 -13.6922 8
323 1 -11.5415 0.563657 -2.66328 12
324 1 8.01158 -6.456 0.368819 17
325 1 2.4812 -13.1214 5.53854 15
326 1 3.74802 -3.56798 4.45334 20
327 1 10.2595 3.89646 -11.9728 12
328 1 9.96611 -0.791464 -6.01307 20
329 1 14.2364 -1.89163 0.616104 14
330 1 7.66083 8.24819 3.52542 16
331 1 14.7584 -2.79001 -2.58759 9
332 1 -2.62562 4.40959 6.93563 20
333 1 -9.58468 -9.46861 3.55672 10
334 1 -8.38856 0.211426 -10.6668 15
335 1 6.97125 -2.88907 11.0484 14
336 1 -4.33151 9.77399 0.496849 16
337 1 6.09046 3.31967 -0.265733 23
338 1 4.29687 -2.0849 -4.71434 20
339 1 11.0982 4.15865 1.186 21
340 1 -10.0179 -1.03847 8.36584 10
341 1 11.0113 -2.3467 -13.3937 9
342 1 -0.479221 -4.92828 -5.63414 22
343 1 7.97547 3.27863 10.6432 12
344 1 8.84333 4.75628 4.06944 20
345 1 1.12779 -4.91008 11.1271 15
346 1 -0.657439 3.59831 9.26226 17
347 1 -3.1402 1.03978 7.88583 21
348 1 -3.01895 2.32877 -5.14423 19
349 1 -1.84732 3.78774 -7.49058 20
350 1 7.50267 6.46938 -1.02953 20
351 1 -1.71101 -3.61846 4.46952 21
352 1 2.28174 11.196 -6.64213 9
353 1 -7.41745 -14.8118 -3.55869 10
354 1 5.15804 6.21135 4.57381 20
355 1 -4.91319 2.14623 3.1295 19
356 1 -6.93692 4.40703 0.349476 18
357 1 5.5808 5.91519 -4.95303 21
358 1 1.21229 2.19686 11.7482 15
359 1 10.0064 7.08705 6.85225 11
360 1 -5.86669 -0.522665 -1.87372 23
361 1 2.16066 -2.89657 -7.74501 21
362 1 0.033559 3.2681 3.43158 19
363 1 4.87064 -5.26428 -6.18176 22
364 1 2.03188 7.98803 5.79666 18
365 1 -12.414 -1.77206 2.93055 10
366 1 2.93682 -14.7569 0.25511 13
367 1 7.78018 4.92823 -9.93048 15
368 1 8.42268 -9.86624 1.35491 17
369 1 -0.153761 5.78651 1.75848 21
370 1 7.58492 -3.05778 -13.3437 12
371 1 6.81697 -5.98638 -8.18833 20
372 1 -4.32497 10.3931 9.21363 7
373 1 4.46978 -9.91119 5.87222 21
374 1 1.05952 -2.44785 -10.4543 21
375 1 -6.94534 -12.1076 -5.85917 13
376 1 -5.33871 2.81419 5.93911 20
377 1 13.2522 -1.67726 4.27773 13
378 1 -2.26346 9.63453 -4.68842 24
379 1 10.6868 1.24292 -13.3326 10
380 1 12.6516 2.55878 -4.12682 13
381 1 4.8821 4.60659 -10.7962 16
382 1 1.74532 -1.84945 9.30745 21
383 1 -3.32393 -9.28374 4.4466 23
384 1 2.87416 -9.61803 -10.07 17
385 1 -6.89244 7.24013 -3.49217 20
386 1 9.43577 9.50227 1.35046 12
387 1 -7.20304 -4.15078 4.12786 19
388 1 5.97863 2.47482 -9.19351 21
389 1 0.385427 -1.07456 11.7584 14
390 1 -9.43208 -4.45153 -4.23932 17
391 1 8.54331 -1.59622 -1.02918 21
392 1 -4.65468 -8.73 -1.20745 20
393 1 12.6014 -4.63731 -1.38095 16
394 1 8.32257 -12.0653 -0.413817 10
395 1 1.75012 8.13896 9.18031 11
396 1 -5.61801 0.885708 10.6223 10
397 1 11.7001 -1.39671 1.50113 18
398 1 9.21049 -4.6174 -1.56205 21
399 1 5.66636 3.68564 2.51813 22
400 1 4.77992 9.80796 4.26136 12
401 1 1.3669 -15.7275 3.59594 8
402 1 -8.00871 -2.12193 -2.32565 20
403 1 4.47377 2.30302 10.8802 15
404 1 6.11789 8.98134 0.574237 15
405 1 10.1109 -2.45634 8.89684 12
406 1 12.4976 -6.8877 4.71429 13
407 1 8.84337 4.31384 7.64992 17
408 1 -4.26732 7.18902 -5.21647 22
409 1 2.46579 -12.5715 -10.2488 9
410 1 0.671554 -2.45481 -13.4666 15
411 1 -4.48078 -1.59258 9.02778 18
412 1 13.7322 1.56621 1.24288 16
413 1 3.7257 7.31706 -7.29842 19
414 1 9.53577 -5.10797 -12.8322 11
415 1 -7.28802 -14.3328 -0.328655 11
416 1 -4.74399 -2.98766 -7.04439 23
417 1 3.75964 -4.9931 -9.30001 17
418 1 1.45327 -12.8653 -4.79657 19
419 1 2.85063 -6.2663 9.5424 20
420 1 -0.802204 -10.6371 5.35107 21
421 1 10.6736 4.94167 -9.11285 14
422 1 -5.8741 8.9758 5.40581 17
423 1 10.1408 -3.54163 -4.52729 17
424 1 -11.1472 -2.40136 -0.344318 20
425 1 11.9281 7.32806 1.73349 15
426 1 6.11968 1.25778 8.20985 17
427 1 -10.922 2.448 -8.95504 13
428 1 -2.53415 1.07464 -9.98041 22
429 1 11.4178 -6.90106 -1.09133 14
430 1 -8.81402 -7.2091 -5.57828 13
431 1 -6.47831 -10.5067 4.46912 14
432 1 12.7513 -4.156 2.10526 14
433 1 -10.5475 3.68254 3.28026 19
434 1 2.3391 6.46283 -10.6018 11
435 1 8.17987 -7.38181 8.35465 15
436 1 -2.62914 -4.58909 7.49124 22
437 1 -2.34046 -2.4705 -9.36118 21
438 1 -2.62986 -12.7437 6.73953 11
439 1 7.81009 -3.74004 8.10839 19
440 1 1.07196 -14.8775 -2.28535 14
441 1 12.9683 -0.742441 -7.81036 13
442 1 -5.43926 6.88379 1.86453 19
443 1 -5.73916 -0.991292 4.93647 22
444 1 -2.37266 -3.00522 -5.02924 22
445 1 0.388665 -13.4661 -7.70748 12
446 1 10.8297 6.32362 -1.18936 20
447 1 11.0824 0.979826 0.0828987 22
448 1 -1.73682 -9.7142 8.28433 17
449 1 8.82236 10.517 -5.46212 8
450 1 7.24376 0.0594408 -7.80874 20
451 1 -10.3004 3.50077 -3.53808 14
452 1 1.94788 5.67612 -4.98033 25
453 1 6.83301 8.6883 5.97636 13
454 1 3.14739 8.06114 -3.8576 17
455 1 -3.41906 5.90452 9.93651 10
456 1 9.59437 2.28157 -4.24318 20
457 1 6.95076 -12.6907 2.6518 12
458 1 -5.62969 -3.18128 6.63008 22
459 1 11.4338 4.27846 6.67343 10
460 1 9.2272 -6.09802 -9.48169 16
461 1 -0.791889 -2.36186 -7.0597 19
462 1 -3.06601 3.86123 -10.3608 18
463 1 -0.766142 6.12075 5.14513 21
464 1 -1.36993 5.36805 -0.642838 21
465 1 -2.64308 -9.01983 1.02178 21
466 1 8.91815 -8.5127 -1.32187 19
467 1 4.74492 -2.79433 -13.8495 14
468 1 -7.45895 -8.13826 -0.36786 22
469 1 -7.41446 5.16197 -6.14553 22
470 1 11.6227 -3.85614 6.39085 15
471 1 -8.03511 -9.33468 6.50268 13
472 1 11.2412 -2.16718 -1.15482 21
473 1 -0.125048 3.47813 -9.79445 22
474 2 -9.43991 2.09421 -10.4404 13
475 2 -5.7741 10.6041 -3.66713 12
476 2 2.77312 -3.37268 -10.0677 20
477 2 -0.456283 4.72148 6.55087 18
478 2 -5.35952 -5.85373 -10.7278 13
479 2 4.42179 1.27993 12.6832 11
480 2 -7.82673 -0.307717 -1.66224 20
481 2 9.73104 -0.560079 5.10328 16
482 2 2.77914 0.342218 4.62768 19
483 2 -2.82302 -2.29614 -7.20163 22
484 2 -5.76962 -8.45721 -8.5562 15
485 2 -5.06642 0.306205 -3.40626 22
486 2 1.42973 -6.63235 6.37128 20
487 2 6.28578 -0.313387 9.25418 18
488 2 10.1257 -5.00381 -10.7941 14
489 2 10.0038 -1.53243 0.277646 19
490 2 -5.88756 8.02801 -2.04014 19
491 2 12.4126 5.38543 2.39924 17
492 2 -12.2806 -3.642 2.70916 9
493 2 -1.86193 -13.9249 -0.212969 15
494 2 12.294 -5.81355 6.28481 12
495 2 -8.49677 8.7699 3.45554 13
496 2 -7.10843 8.47724 -5.97715 16
497 2 -0.793733 4.88493 3.34405 19
498 2 -2.81872 5.6771 5.61646 18
499 2 5.31133 -8.91548 -4.94225 22
500 2 -3.03981 -0.605885 -9.51331 22
501 2 4.02812 -11.0954 -9.95341 11
502 2 12.0285 -2.40938 -11.6902 11
503 2 -0.710178 -9.4592 1.13969 19
504 2 9.39382 9.95644 -3.70219 11
505 2 -2.95777 9.33955 4.91703 14
506 2 -2.8995 -7.74942 -6.7964 21
507 2 3.61718 -9.9606 9.01272 15
508 2 10.5199 0.189524 1.9414 22
509 2 -10.8644 -1.2942 -1.92456 17
510 2 10.1265 9.26554 -0.397815 14
511 2 7.87319 -11.7895 1.41363 11
512 2 0.331252 7.71613 4.83374 20
513 2 7.70344 4.09963 2.58846 21
514 2 5.01041 4.50463 -3.49 22
515 2 -6.74442 -0.252578 9.49456 13
516 2 7.1425 0.675348 -9.57686 22
517 2 -10.5564 2.56555 -5.1414 16
518 2 -9.76997 1.86829 6.10185 14
519 2 -9.31291 -10.4299 1.56588 12
520 2 0.345701 -10.1586 3.85528 19
521 2 -0.641656 -5.0829 10.2228 16
522 2 2.70047 2.6973 6.54558 21
523 2 -10.1357 2.18239 -1.99486 15
524 2 5.20792 -11.456 -7.26844 14
525 2 11.3119 0.0214271 -7.04317 17
526 2 -3.54137 -10.8096 1.45061 20
527 2 6.43335 -1.87596 -8.14545 18
528 2 3.42487 8.84979 8.31997 9
529 2 10.611 -9.11833 -5.15479 11
530 2 8.45827 -2.17197 10.0059 13
531 2 -6.85138 -7.35494 1.29852 19
532 2 13.4141 2.25088 -2.48341 14
533 2 2.3105 -11.4348 1.43116 22
534 2 12.9457 -5.95718 -0.0440001 13
535 2 -1.00908 2.41887 -5.62095 17
536 2 0.605921 -5.94157 -3.89694 22
537 2 -3.10691 -7.95492 -10.6336 16
538 2 -6.14612 -6.72613 5.37391 21
539 2 -6.15824 -9.87589 -0.0254088 17
540 2 -4.90927 -9.89565 -6.47106 15
541 2 -3.56824 7.75793 0.27245 21
542 2 2.05021 1.29874 -8.18916 18
543 2 10.1984 6.10239 -4.55256 17
544 2 2.46972 4.17198 -6.40095 21
545 2 -5.9735 2.6348 9.70933 15
546 2 -9.20923 3.74908 0.634468 18
547 2 -2.67572 4.47156 8.91747 17
548 2 -10.3359 5.69546 3.09639 14
549 2 -3.97533 3.30013 -6.51635 19
550 2 11.6288 3.40139 -8.80779 12
551 2 11.7814 -6.56389 -2.89547 16
552 2 7.13065 4.53613 -1.17932 19
553 2 -0.612709 7.86993 1.84413 20
554 2 -5.11126 7.33654 6.24572 20
555 2 1.70055 5.99703 2.46895 18
556 2 11.3272 7.7838 -2.74699 13
557 2 -0.833147 7.03241 -1.34353 22
558 2 5.48483 8.53308 -7.53723 13
559 2 1.58666 7.44535 7.49451 16
560 2 -2.44251 -0.040124 4.78536 20
561 2 3.67311 -2.21792 6.08428 20
562 2 7.01739 -2.27618 -11.3002 19
563 2 -0.595184 2.20408 10.9271 13
564 2 6.34928 1.11549 -12.7345 14
565 2 -5.90206 -9.66688 6.28688 14
566 2 -0.0887228 -9.265 -2.41199 18
567 2 -0.102434 -5.96224 -7.25506 22
568 2 5.0346 -12.7077 2.1607 15
569 2 10.4325 5.97287 -7.57737 14
570 2 0.542772 -0.360829 -13.9321 13
571 2 -2.76076 9.93163 8.10859 9
572 2 -7.74511 -0.0130428 -6.15541 19
573 2 4.82116 5.72987 -6.70585 19
574 2 0.376644 11.4116 -2.65204 18
575 2 0.714758 4.77109 9.73044 15
576 2 2.08857 -13.7369 -3.19177 15
577 2 7.86238 1.52658 7.31903 16
578 2 10.942 -3.82083 -1.77736 21
579 2 7.56608 0.721566 2.90186 22
580 2 -1.94746 2.15212 -14.0403 11
581 2 7.0848 -9.09799 8.19404 18
582 2 -0.586651 -12.4364 6.44998 14
583 2 8.72214 -9.99691 6.45189 13
584 2 -2.33625 9.72293 -7.79625 14
585 2 -5.77064 -15.0844 -4.37789 9
586 2 -3.5934 -2.54754 -11.0692 19
587 2 -0.469541 -11.699 -7.79002 16
588 2 10.6811 8.45414 2.71765 12
589 2 -8.73647 -7.67212 -3.84319 16
590 2 -11.0249 4.38329 5.20204 13
591 2 10.6961 -4.12147 8.24073 13
592 2 -3.83747 -15.748 -1.58418 11
593 2 3.18638 -1.36458 -7.29071 19
594 2 -0.58953 -2.45452 -11.7813 20
595 2 -6.77525 -3.81623 -12.3697 10
596 2 -3.10483 -3.06621 8.69026 19
597 2 -5.07891 -5.04718 -6.85876 20
598 2 2.88876 -6.57516 -9.39305 21
599 2 9.41819 -2.14086 -8.86886 21
600 2 -6.35525 -4.57906 -0.21978 20
601 2 3.20899 -4.5828 -7.36375 19
602 2 2.45555 2.62247 -3.21125 21
603 2 -0.187287 -11.8045 -4.27499 21
604 2 3.01628 4.77384 -11.4011 13
605 2 5.38307 9.98104 6.07231 11
606 2 12.3911 0.432229 4.80321 13
607 2 -8.9147 -2.7248 3.78876 20
608 2 -0.861152 -12.4569 1.97429 19
609 2 1.65164 -0.65604 -10.2412 21
610 2 -3.10249 2.76827 3.65899 21
611 2 -3.27546 -7.7354 -0.309492 21
612 2 -6.00258 3.34897 4.31129 16
613 2 -4.81542 0.033109 3.08868 21
614 2 -7.69025 -3.86948 6.3576 16
615 2 -0.598916 -15.0671 3.29706 11
616 2 -7.71521 -0.336266 1.65557 20
617 2 -7.74691 -12.2368 -0.924637 13
618 2 -7.97392 -7.73933 7.35677 11
619 2 9.78298 -7.09087 7.32752 16
620 2 4.18685 11.1332 -5.81208 10
621 2 5.03327 7.68288 -3.73074 20
622 2 11.1542 1.37665 -3.9844 18
623 2 -1.80485 11.8925 -4.58353 16
624 2 -8.60807 -0.903247 -9.16932 14
625 2 -11.4674 -1.25104 1.3245 16
626 2 -0.048002 -14.3197 -6.19339 10
627 2 2.54666 -4.73602 8.02119 24
628 2 11.0288 -3.31316 1.89763 22
629 2 -4.94699 8.31922 -8.62917 16
630 2 9.17329 2.09697 0.112016 23
631 2 3.52345 -2.34479 10.0888 19
632 2 0.0715951 -5.74488 -10.8219 21
633 2 5.43739 2.46589 4.15334 20
634 2 9.45918 7.44091 8.68025 8
635 2 -1.1798 -0.500895 10.9364 16
636 2 -6.95527 5.65155 2.11088 19
637 2 9.46626 8.90872 -6.46929 8
638 2 -7.42289 -10.4922 -6.15937 14
639 2 -5.89978 -2.20131 -5.25644 23
640 2 -8.84867 -2.43403 8.95233 10
641 2 6.63299 9.52886 -1.84031 14
642 2 -0.157208 -2.97548 -8.95386 19
643 2 10.3269 3.46745 3.07763 22
644 2 11.3314 -8.23547 4.81285 15
645 2 -9.04154 -2.78251 -0.0124466 22
646 2 -1.55785 10.5252 0.259492 18
647 2 -2.20765 6.75297 -9.48147 16
648 2 4.83332 -0.6164 -10.9146 22
649 2 -6.21907 2.44854 -1.68165 21
650 2 3.1795 -5.34999 4.6023 19
651 2 3.22546 7.24537 0.608898 18
652 2 -8.07371 -4.86661 2.46429 19
653 2 9.46369 -6.47112 -0.927396 19
654 2 1.3373 -14.0923 -0.534891 14
655 2 -3.84739 6.64986 3.0872 20
656 2 3.14958 -8.45936 3.32319 19
657 2 -9.08698 5.87952 -5.85669 18
658 2 2.78878 -11.4194 -1.9652 20
659 2 5.36985 3.88735 7.01319 19
660 2 2.69046 1.58681 -11.4717 19
661 2 0.543609 5.8068 -10.0836 12
662 2 9.16777 2.30351 -12.4573 14
663 2 -1.77439 9.57229 -2.82692 17
664 2 -6.11989 -3.11542 9.06253 14
665 2 -3.46327 -7.77005 5.58958 24
666 2 -2.53799 -8.14569 2.87215 22
667 2 -11.435 -3.58116 -3.79411 12
668 2 -1.8535 -5.64988 4.68341 21
669 2 0.017804 4.98556 -4.42695 21
670 2 6.5291 -6.38764 -3.22047 22
671 2 2.15719 -0.215532 8.59072 20
672 2 -8.94462 -2.36328 -4.18594 18
673 2 6.20767 -1.98531 -14.3297 13
674 2 9.73018 3.19357 -5.96649 20
675 2 5.94964 7.97988 4.0862 14
676 2 8.15457 -3.53659 -0.188758 21
677 2 -8.02107 -5.14161 -2.8999 20
678 2 -4.20654 13.1534 -3.49696 10
679 2 4.35564 1.3243 8.92736 15
680 2 3.95041 -13.5805 -0.609764 14
681 2 -2.58519 -14.2707 5.41381 10
682 2 -2.97995 0.454819 -5.24242 19
683 2 5.72573 -3.68074 8.04977 18
684 2 9.61151 5.24242 -10.7742 13
685 2 2.03253 11.7053 0.067927 14
686 2 7.21202 -12.3109 4.56 12
687 2 7.7955 -11.5389 -4.5972 13
688 2 4.20204 3.13487 -9.1522 18
689 2 5.99877 -6.74779 2.73323 19
690 2 6.12649 3.35846 10.4724 15
691 2 2.95882 3.00523 2.87401 20
692 2 9.91 -4.71248 4.88028 21
693 2 4.21298 0.457647 -14.2291 12
694 2 13.2781 -2.2745 -6.72284 11
695 2 -6.17004 8.67837 1.06089 17
696 2 5.25085 -8.81092 -9.25312 16
697 2 1.62708 0.363475 12.3869 12
698 2 -8.0668 7.21073 -9.2039 10
699 2 8.33107 -4.29496 -3.16264 18
700 2 7.6754 9.48745 1.88103 14
701 2 14.0855 4.73126 0.247522 13
702 2 13.9029 2.61573 2.96719 13
703 2 -11.5758 -0.192901 -4.58714 10
704 2 -6.1501 5.43315 -4.34742 19
705 2 -6.11329 2.07289 -8.73666 25
706 2 -6.23146 -2.60928 -2.1361 22
707 2 12.2208 4.40795 -4.88831 11
708 2 -8.95692 6.89261 -0.212402 14
709 2 -2.31342 -7.8416 9.29317 17
710 2 4.23849 -1.57542 12.8702 11
711 2 2.57089 -11.2877 -6.09622 19
712 2 2.10723 -8.69773 -11.5363 17
713 2 3.9556 11.5358 -2.81909 11
714 2 4.75555 10.2681 0.0846537 13
715 2 -7.52116 -5.03 -8.66033 16
716 2 -7.76395 -13.0912 -4.3616 11
717 2 10.8771 -1.73707 -4.43472 17
718 2 -5.46801 5.59834 -0.0825714 20
719 2 4.08673 -12.4028 4.56164 16
720 2 8.98578 -5.90278 2.03613 20
721 2 -4.84229 -5.22822 2.99398 21
722 2 -0.373861 -9.26191 -5.66351 21
723 2 2.72473 2.95034 10.7663 17
724 2 2.6757 7.52722 -5.71847 22
725 2 -8.14084 5.73974 5.33956 22
726 2 7.09787 -0.542894 0.0922331 21
727 2 -5.2287 -8.75337 8.72467 14
728 2 -2.5414 13.1298 -0.950001 10
729 2 -0.518509 -15.652 -2.9934 11
730 2 -0.975615 -5.65538 7.53366 22
731 2 8.74941 1.57812 10.2157 13
732 2 -6.33598 2.55806 1.28686 18
733 2 -0.480887 8.1741 -4.54453 23
734 2 0.866739 -0.476979 6.39109 22
735 2 -0.103264 -8.22282 -9.06911 23
736 2 11.4559 -4.66202 -5.31582 15
737 2 7.985 -7.52069 -5.41833 16
738 2 -4.10356 8.92717 -4.5205 19
739 2 -3.89305 0.599814 9.7211 15
740 2 -8.28431 3.29001 -6.73428 19
741 2 8.71562 -3.40105 -5.91531 18
742 2 5.85751 1.94806 -1.72917 25
743 2 -1.7057 -0.546124 7.94358 20
744 2 0.263639 -3.60787 4.62128 20
745 2 0.518947 2.4917 -12.5299 12
746 2 -10.3609 4.36732 -8.42069 13
747 2 -2.81264 -4.55346 -12.2737 15
748 2 -2.97663 6.68783 -3.7748 21
749 2 -5.258 -2.41406 -13.7509 11
750 2 5.71127 -4.8019 -9.47519 21
751 2 -2.45857 -7.79473 -3.50218 19
752 2 -0.779997 -8.94881 6.65639 21
753 2 -2.87262 2.47853 -8.84286 20
754 2 6.00424 -3.87754 4.61505 20
755 2 5.09215 5.39787 2.8485 20
756 2 11.3736 -3.94585 -8.61024 13
757 2 2.25086 -14.5628 2.17779 14
758 2 7.99767 4.45607 5.94415 19
759 2 -5.92735 9.72453 8.67909 9
760 2 -10.4571 -5.68582 -1.91024 14
761 2 8.82368 3.64903 -2.91511 25
762 2 6.1143 -9.3682 4.68849 22
763 2 -5.53276 9.41083 3.61355 14
764 2 7.33162 3.78705 -8.20495 22
765 2 5.38385 2.29155 0.932642 21
766 2 -8.59258 2.68052 3.51974 24
767 2 2.6065 6.47016 -8.66814 18
768 2 -4.85549 -0.103401 -0.325948 22
769 2 9.39949 -3.21117 -13.3563 11
770 2 -4.73079 -0.917764 7.11044 18
771 2 0.00765384 2.09594 8.30704 22
772 2 12.7155 3.36943 5.73224 11
773 2 11.4865 -0.540255 -13.3779 8
774 2 -9.17601 -5.5372 -5.97985 13
775 2 2.48277 -8.64066 -0.532313 21
776 2 12.7375 -0.175019 -9.87163 14
777 2 -3.21872 5.27075 -1.52284 15
778 2 1.30567 -10.9802 -10.043 13
779 2 -8.58864 4.64879 7.86465 13
780 2 -5.76571 -2.60037 1.41178 24
781 2 8.281 -9.02246 -3.03116 20
782 2 -3.32747 -10.8884 -8.93624 13
783 2 -2.52596 -11.2176 -1.76901 19
784 2 11.8669 -0.15661 -1.38789 23
785 2 -1.71503 4.38419 -11.4439 15
786 2 3.45971 6.07786 5.26591 15
787 2 -2.55326 -13.6789 -4.58834 13
788 2 6.46477 -0.812579 5.54224 20
789 2 -3.56893 7.62594 9.18631 12
790 2 -3.42646 3.0762 -3.21201 19
791 2 -4.59696 5.07557 -9.89998 18
792 2 2.1852 -13.4684 -8.46616 11
793 2 -7.9769 -8.91748 4.55955 15
794 2 -8.77625 7.34726 -3.37362 12
795 2 5.3791 5.88769 -9.35626 16
796 2 0.0105369 3.99915 -7.75442 20
797 2 4.15559 4.7596 -0.408525 24
798 2 -0.547676 -7.9191 -12.863 14
799 2 2.61735 -8.17938 -6.59344 22
800 2 -10.4666 0.741696 -7.78548 15
801 2 11.0909 6.16234 5.56435 15
802 2 -2.49439 -0.343983 -13.3934 15
803 2 -9.63963 -8.03629 2.24159 11
804 2 10.3249 -0.919426 7.94869 17
805 2 8.30093 4.96596 9.44456 12
806 2 11.7351 2.89465 -12.1252 11
807 2 -0.242461 7.27518 -6.99477 19
808 2 -4.51393 10.9714 -6.43977 12
809 2 14.4536 -0.0860664 0.811516 11
810 2 -5.07156 0.114495 -7.24741 21
811 2 6.97169 10.1508 -5.44453 11
812 2 0.896225 -2.8138 11.0816 16
813 2 -2.30848 -5.03796 -9.01099 22
814 2 -5.07465 -5.4046 -3.39348 18
815 2 6.93635 -1.21796 12.0669 11
816 2 -2.28707 5.29585 1.09504 21
817 2 11.7934 -8.75179 1.55815 12
818 2 7.72059 -7.3403 -10.1207 16
819 2 -0.405108 7.7642 9.34864 9
820 2 5.12114 -7.4243 7.13881 19
821 2 -2.82252 6.14656 -6.47525 20
822 2 2.77429 10.2161 5.77163 10
823 2 -6.2686 5.83592 -7.43265 20
824 2 1.8373 8.79636 -2.48107 21
825 2 -6.80736 -7.30875 -5.81688 17
826 2 7.63952 -5.29797 -12.7 16
827 2 -5.66351 4.51694 7.33081 20
828 2 14.0906 -4.44968 -3.00965 10
829 2 0.954026 10.0447 -7.38384 12
830 2 -7.34105 -0.451847 5.68668 18
831 2 -5.29176 -12.9566 -6.25852 11
832 2 6.30848 6.60956 8.61554 14
833 2 -0.898997 -10.4631 -11.1968 11
834 2 -6.8691 2.32748 -12.052 14
835 2 -0.264355 -0.625765 -6.91179 21
836 2 2.84092 -2.2161 -13.6785 17
837 2 -7.53837 9.36642 6.12484 15
838 2 -7.5633 7.25189 7.73516 15
839 2 1.84609 12.2497 -5.06112 11
840 2 -7.08387 -15.4961 -1.83658 10
841 2 10.2645 1.35743 -9.58161 16
842 2 8.15052 -4.63824 -8.86023 17
843 2 -6.46847 -11.508 2.57997 15
844 2 -7.73749 2.43935 -3.77634 18
845 2 -5.27179 -9.2764 3.626 20
846 2 -0.461571 1.18815 -10.2172 20
847 2 4.86265 -8.26811 -2.01747 18
848 2 2.67266 -12.2736 7.25451 13
849 2 10.2368 2.81644 7.47159 13
850 2 7.61641 -5.82527 7.74501 17
851 2 -1.99873 -2.79785 6.13057 19
852 2 6.85247 3.8019 -11.2801 15
853 2 3.75855 5.62061 8.74259 16
854 2 -2.46644 -5.00762 -5.46624 22
855 2 -7.96336 -10.3299 -2.97256 15
856 2 -2.46834 -11.3853 4.6299 18
857 2 -9.7079 0.996672 0.627115 20
858 2 -3.95377 2.24364 -11.613 20
859 2 -8.63497 -2.87859 -7.37033 14
860 2 -3.57643 10.7973 1.93833 13
861 2 7.47418 -6.86598 5.03582 21
862 2 8.48623 6.42291 3.186 23
863 2 -5.90438 -13.9751 0.890556 12
864 2 -10.7737 -5.52243 1.72255 15
865 2 -11.0449 -0.261593 3.63252 17
866 2 0.420243 -2.66465 8.29964 22
867 2 2.97497 -5.29994 11.2907 13
868 2 1.28282 -14.5326 5.15146 11