ITEM: TIMESTEP
21000
ITEM: NUMBER OF ATOMS
2000
ITEM: BOX BOUNDS pp pp pp
-30.0 30.0
-30.0 30.0
-30.0 30.0
ITEM: ATOMS id type x y z Coordination
1 1 -9.83247 0.0659206 -16.7986 8
2 1 -6.63583 -14.7789 -11.526 8
3 1 1.82696 12.4317 11.8023 14
4 1 7.1029 -10.5885 4.89098 18
5 1 -12.3216 6.10887 -2.68991 19
6 1 10.9859 -5.43664 -6.4708 18
7 1 -14.0421 4.46141 -6.74465 21
8 1 -3.81423 -6.29666 10.7376 22
9 1 -8.59751 -0.74559 -9.79907 20
10 1 -12.2305 -13.4762 7.29344 13
11 1 12.9595 0.476026 -9.05203 13
12 1 -4.82434 -14.1433 -1.78661 17
13 1 -15.6128 -11.7126 7.6966 10
14 1 -2.25314 2.35793 17.1632 12
15 1 0.205096 3.54519 9.25154 20
16 1 -3.93 10.2028 -10.8105 24
17 1 -0.423293 -2.91989 12.543 21
18 1 -10.79 -2.19574 -15.8896 14
19 1 -17.6564 -2.70911 13.9268 10
20 1 8.38727 2.89974 7.58193 20
21 1 -0.13258 10.1758 -11.5289 21
22 1 -0.237374 10.0984 -15.4227 15
23 1 11.49 1.50137 12.8866 17
24 1 -14.4322 3.33246 -9.68318 14
25 1 -9.83267 9.80851 9.57935 14
26 1 5.7792 -14.3348 3.86835 16
27 1 2.35548 -9.55709 -11.0533 18
28 1 8.00764 -14.4174 0.781758 15
29 1 -9.53571 -13.6066 -8.54422 13
30 1 -18.836 -5.87668 8.39101 11
31 1 0.0184456 -7.41709 -7.34542 19
32 1 10.3089 -10.3651 -6.45881 10
33 1 -2.2078 11.9411 -17.0283 10
34 1 -2.27046 2.13661 13.5474 20
35 1 -2.69255 -12.1526 7.52864 18
36 1 4.60432 -4.38933 11.9203 19
37 1 -17.0625 -2.32253 1.29891 19
38 1 -18.5143 -4.52529 10.9092 12
39 1 -11.2363 -1.4163 -1.06287 21
40 1 -5.56803 12.6637 -2.76735 19
41 1 -0.724178 -12.8626 -12.053 10
42 1 -0.178854 -1.89753 -14.1594 20
43 1 2.27013 -3.53568 -11.3224 19
44 1 -6.81629 -1.70351 15.4701 16
45 1 -14.944 6.4859 -4.35167 21
46 1 0.568718 12.7035 -14.5555 11
47 1 -5.1966 8.65911 5.25693 20
48 1 -10.3726 9.30913 -5.36173 18
49 1 -2.74703 12.187 -1.1109 19
50 1 1.2489 -15.6754 2.32526 12
51 1 4.87267 -4.82691 -6.09581 18
52 1 0.188337 -7.36777 -14.678 17
53 1 -8.37213 9.36564 13.0897 11
54 1 -14.6369 -6.08346 -9.39498 11
55 1 -4.47531 8.61461 -4.80702 21
56 1 -6.70949 -11.4993 8.1492 13
57 1 -1.49813 12.5969 13.1292 11
58 1 -11.0641 5.23737 -5.15942 17
59 1 -6.37946 10.7798 10.5814 12
60 1 -2.40067 -16.4544 6.3698 11
61 1 3.0371 3.48124 7.51048 23
62 1 5.45298 -16.2201 -0.892555 16
63 1 5.22993 12.1022 12.0333 13
64 1 -15.2505 1.69764 -6.83319 14
65 1 -13.6492 7.00343 -9.29699 14
66 1 2.41939 9.61856 9.85646 17
67 1 12.7531 -5.50354 -8.70787 12
68 1 10.1934 -10.51 5.36182 12
69 1 -18.0886 -2.2217 8.15458 13
70 1 3.48925 14.7892 1.25786 16
71 1 -1.46449 -5.06472 14.64 12
72 1 -7.99778 -9.06171 6.59862 19
73 1 -14.2484 -0.408002 -2.97986 21
74 1 7.71579 0.309136 9.82876 21
75 1 -1.24689 16.0479 8.48083 10
76 1 2.60805 -2.14123 7.60729 20
77 1 -2.71921 -6.9153 -6.48397 18
78 1 -12.6538 7.68024 9.08703 11
79 1 -10.2187 9.07715 -2.32617 17
80 1 -5.19562 6.70559 -10.2831 22
81 1 6.1044 -2.95114 -4.05654 23
82 1 5.72008 10.6401 -11.1988 14
83 1 4.39837 -4.65433 4.43577 19
84 1 3.39907 -10.2803 8.09035 12
85 1 -4.95507 11.861 -6.25882 19
86 1 -8.95237 15.7963 6.20344 7
87 1 -9.95867 0.413991 14.915 15
88 1 -7.34088 7.25015 11.217 18
89 1 -6.74516 -5.08519 14.7046 15
90 1 13.5578 -7.11656 -3.79218 13
91 1 -17.4162 1.15261 3.74832 14
92 1 -12.301 -14.3132 -0.270329 8
93 1 8.67117 -7.4083 -6.6679 14
94 1 2.15679 -4.63979 -14.2788 18
95 1 -8.27963 -1.31517 -13.2665 22
96 1 -2.39482 9.00384 0.724594 22
97 1 -7.68259 8.84214 -10.024 20
98 1 2.48343 6.24105 17.5757 12
99 1 -1.14235 16.2815 -2.25245 17
100 1 -12.408 11.0209 0.663673 12
101 1 0.296248 8.85527 2.12349 23
102 1 -10.6014 -5.32316 10.3648 21
103 1 7.90892 -2.57403 11.8484 22
104 1 2.22326 -4.13938 -7.9835 18
105 1 6.82636 -8.36586 -9.48802 13
106 1 -5.63863 4.03474 8.57805 20
107 1 1.66169 -2.70301 13.9708 18
108 1 -12.3908 -9.48042 -3.24071 21
109 1 -11.1529 -8.56806 -6.2772 19
110 1 7.5269 -11.0019 7.77966 10
111 1 -9.08943 6.12847 2.05941 18
112 1 3.4346 6.58609 -13.3256 17
113 1 1.89323 16.8674 -3.10574 18
114 1 -12.0234 -13.1885 13.347 10
115 1 -10.2438 -15.0045 11.2275 12
116 1 3.20932 -7.94201 -13.9564 13
117 1 2.90427 5.77957 -7.68661 20
118 1 9.62644 -8.87406 -0.2785 17
119 1 -5.09091 -13.8642 7.53974 17
120 1 -10.3702 -7.64052 -1.62944 17
121 1 15.4176 6.61746 9.65291 13
122 1 12.7717 -2.43583 -10.7414 12
123 1 -13.8777 -7.28023 2.93213 16
124 1 9.49499 7.66559 -0.961571 13
125 1 14.1359 5.13405 3.3589 13
126 1 -8.4327 5.31309 16.6805 13
127 1 0.399135 7.60196 9.1856 19
128 1 -5.04127 9.14821 -7.96799 21
129 1 -3.86702 -7.59886 -9.52482 21
130 1 6.89539 -10.3841 -7.00089 15
131 1 -0.363698 18.5707 -8.09807 12
132 1 6.10827 -5.3059 9.62761 16
133 1 -1.76264 -2.06481 -17.1787 14
134 1 -3.11571 6.29511 -7.69853 22
135 1 8.06637 -0.536629 -4.79589 20
136 1 -14.8425 8.01357 -6.75021 13
137 1 -8.73709 16.8529 -0.253779 7
138 1 4.32302 3.10287 -8.58063 17
139 1 3.76587 -12.7114 2.7312 16
140 1 -9.04085 7.13735 -7.66291 21
141 1 -6.59893 14.7408 9.0418 9
142 1 8.68842 7.53653 -9.4131 15
143 1 0.159192 12.1951 -2.62786 19
144 1 -4.12991 18.62 -3.06796 14
145 1 6.0354 8.40308 -0.325007 18
146 1 -1.87878 8.3781 -6.09868 23
147 1 -1.07737 17.3066 -11.0088 10
148 1 -0.693007 7.49945 -13.0884 19
149 1 -13.9192 -12.5126 5.07537 12
150 1 -15.2189 7.31648 -1.29892 20
151 1 -8.53516 -7.08902 -13.2091 22
152 1 0.882877 -10.2003 -13.3436 16
153 1 9.59036 12.9632 4.93794 13
154 1 -5.78294 14.5563 5.61757 19
155 1 -17.4417 -0.132016 -4.67701 12
156 1 -10.215 11.8453 3.70179 16
157 1 13.3355 -1.46997 -1.12345 17
158 1 -9.74088 3.21429 -16.2262 8
159 1 1.50525 0.276183 15.8958 14
160 1 0.665811 17.4708 0.608899 11
161 1 -0.267571 10.3164 11.7288 19
162 1 -1.04116 -10.5181 -16.0263 6
163 1 -4.15447 13.5093 9.08919 16
164 1 -1.9021 11.0296 -8.25436 20
165 1 0.744976 -7.80666 10.8409 14
166 1 -16.4961 -4.88173 3.63711 17
167 1 1.04748 -11.953 -10.2239 13
168 1 -9.82281 12.1201 -7.78453 13
169 1 -6.46935 -6.80235 4.98493 25
170 1 4.69807 -19.0165 -2.48904 9
171 1 -6.51065 10.2843 -12.9958 22
172 1 -15.1973 7.24854 4.01135 15
173 1 7.31106 10.2411 -5.29365 20
174 1 -9.30243 3.11539 13.9867 16
175 1 -3.35762 -9.12479 8.87957 21
176 1 -10.6723 3.64704 -2.12351 18
177 1 -2.44651 14.0695 0.736678 17
178 1 2.72381 5.72927 9.42445 24
179 1 15.0666 0.686926 13.1334 6
180 1 -7.63989 16.9741 4.01632 11
181 1 9.19819 -3.32508 -5.63273 19
182 1 -2.49017 10.3479 9.78942 17
183 1 -5.9786 1.38944 -9.46748 18
184 1 11.4653 -8.23488 2.46504 12
185 1 -9.54109 -3.55177 5.02594 22
186 1 -16.4516 -5.54775 0.177301 14
187 1 -11.9868 -7.3859 8.84298 21
188 1 8.2096 10.3059 11.6353 17
189 1 -16.786 -1.68393 -2.12493 15
190 1 0.228215 -13.0537 -4.36838 19
191 1 2.41555 -8.46152 -2.24393 18
192 1 -5.01517 9.35451 2.08322 20
193 1 3.59369 12.6371 9.22319 19
194 1 -11.8241 -1.73564 -4.6435 21
195 1 -7.70002 14.333 -10.6442 13
196 1 -16.9418 -2.94783 -5.62417 15
197 1 -11.9478 -2.21676 8.14087 18
198 1 -5.08401 -9.49006 2.75017 21
199 1 1.17541 -11.2757 5.79974 16
200 1 -11.5101 8.77427 5.21076 19
201 1 15.2028 2.69292 5.44842 10
202 1 3.82548 3.04836 -5.2778 21
203 1 -9.08071 -5.75806 -16.2375 13
204 1 1.18693 0.247462 12.0684 16
205 1 2.24588 -14.22 5.02381 15
206 1 -4.31022 7.60569 -12.9504 19
207 1 1.06313 -6.88696 -11.8509 22
208 1 7.67448 3.32311 -10.7691 17
209 1 -2.17557 7.81256 -16.4874 11
210 1 -9.0183 -3.86378 -8.48824 20
211 1 -7.65535 18.5752 -3.0244 7
212 1 -16.691 -5.48203 12.7604 14
213 1 5.46231 13.6541 -0.228454 20
214 1 -11.2267 3.65392 15.6097 12
215 1 -5.79315 16.4226 -7.97703 11
216 1 2.13654 0.766934 9.32961 20
217 1 -6.1025 -5.06027 -8.38348 17
218 1 -4.43521 13.4025 -8.94165 20
219 1 -0.916193 1.39192 -12.1371 23
220 1 -10.6018 -10.3205 9.0767 20
221 1 -12.6611 5.69293 6.80047 17
222 1 -4.22487 3.42799 15.4881 15
223 1 -0.244104 -10.0375 -5.46659 20
224 1 -4.27195 -17.1343 -2.50097 15
225 1 8.13439 -8.5515 -2.74422 18
226 1 10.786 3.15949 15.6017 11
227 1 1.25467 9.9473 -9.06963 19
228 1 -2.07917 9.42385 -2.67479 22
229 1 -14.3366 -0.839826 0.116559 23
230 1 -14.5412 10.5496 -1.24737 14
231 1 3.10598 2.85778 10.7784 19
232 1 -0.692713 -18.0365 -4.13051 15
233 1 8.20814 -0.33403 -0.274842 23
234 1 2.45314 6.63068 5.68607 20
235 1 -11.9412 3.49958 5.23191 17
236 1 -16.5908 -9.66242 -4.29896 13
237 1 5.07105 2.17847 -12.4239 18
238 1 -0.271107 -2.43143 9.33294 17
239 1 6.68414 7.71122 -11.491 15
240 1 5.03407 -12.7554 -6.11432 14
241 1 -10.4055 1.90827 -10.8454 15
242 1 -3.65939 -16.3361 3.00989 12
243 1 5.483 0.267962 -5.22272 21
244 1 -11.5868 -1.8639 1.50629 21
245 1 2.98364 -14.2583 -2.96503 18
246 1 -10.2145 -3.18397 -11.4498 22
247 1 1.67644 14.7586 -1.02796 16
248 1 -3.03255 -1.71363 -12.802 22
249 1 2.83134 5.2094 14.4005 18
250 1 12.3636 1.26987 5.79394 16
251 1 11.3552 -3.68418 -13.0735 7
252 1 -12.857 0.89025 -9.174 18
253 1 -11.3838 -1.80202 -8.39447 18
254 1 -9.36871 -13.2051 13.9176 12
255 1 5.14563 -1.99971 9.89802 24
256 1 1.82761 -4.78123 9.3596 20
257 1 -10.3933 -8.37657 -14.2499 12
258 1 0.905547 6.75692 -15.3446 13
259 1 3.74254 8.09822 -2.51116 20
260 1 -11.3921 -7.89577 1.40836 16
261 1 -3.01479 11.7035 2.44606 19
262 1 -9.52375 -6.64873 15.4327 12
263 1 -13.0718 -9.23865 -9.43499 14
264 1 -8.59291 -11.0006 -13.5978 13
265 1 -4.41447 9.51197 -15.2338 17
266 1 -7.87445 -9.59898 -5.85031 21
267 1 -3.52481 -11.6931 4.01557 20
268 1 6.88426 -4.66422 -16.5108 12
269 1 10.2886 2.1789 -8.28866 19
270 1 9.2351 2.47921 4.49071 20
271 1 -10.3623 -8.01326 12.7224 18
272 1 -5.64407 -9.3886 0.138059 18
273 1 5.32039 7.26506 15.3562 16
274 1 -5.54622 -16.7856 7.15032 11
275 1 -2.66667 -14.0415 1.56259 20
276 1 -2.6474 20.9962 -5.74235 6
277 1 5.85176 2.07912 -15.2566 10
278 1 -8.69529 -4.37858 -13.8466 22
279 1 -13.4106 -6.68504 12.01 16
280 1 5.3849 9.12616 13.168 19
281 1 -1.35394 -13.135 -1.0795 18
282 1 -6.89241 -12.1307 -11.1952 15
283 1 -11.9283 9.49718 -8.53499 13
284 1 5.46232 6.15092 4.33906 16
285 1 -5.05922 4.05251 -11.3855 19
286 1 -5.13352 12.6694 -15.0111 13
287 1 5.78217 -13.5393 -3.33741 19
288 1 -4.87126 14.6089 -5.00027 18
289 1 2.45109 12.0912 6.20222 23
290 1 7.47136 0.125057 6.19537 17
291 1 -12.9688 1.02322 3.22982 19
292 1 -6.87331 -6.82101 12.4074 21
293 1 -7.87857 13.2786 2.09388 16
294 1 -0.523406 -3.23783 -9.219 20
295 1 11.9693 11.716 -3.48293 6
296 1 3.54497 -11.1464 -3.55641 17
297 1 -6.55084 -2.65649 12.4529 18
298 1 -18.2031 -7.25343 5.14872 9
299 1 1.88351 -13.2915 -0.263814 17
300 1 -5.61181 8.80183 13.4944 15
301 1 -10.1866 7.43688 11.2918 15
302 1 -16.8693 -0.745513 11.3468 13
303 1 -13.5614 -5.22826 8.58822 20
304 1 15.3777 -4.33951 -3.01318 9
305 1 -12.3153 -10.3594 12.3849 14
306 1 6.26889 -2.35295 -7.44734 22
307 1 8.50131 -15.0523 -2.59671 10
308 1 4.08386 19.1302 -3.67704 7
309 1 -6.94837 11.5513 -9.38748 24
310 1 8.83475 8.93734 8.70926 19
311 1 -12.8464 -4.68012 3.74852 22
312 1 5.88108 -7.79304 -4.59944 19
313 1 -5.80524 12.2309 0.37824 18
314 1 -8.83333 3.73534 6.90537 19
315 1 2.37643 -9.67379 3.14823 16
316 1 11.1384 -2.99227 -0.179963 21
317 1 -2.55078 2.95075 10.2451 19
318 1 -10.5122 -4.62316 -5.35874 18
319 1 3.74181 1.75133 13.8354 20
320 1 -8.13056 9.45055 3.81347 22
321 1 8.15042 5.31222 16.508 12
322 1 -7.21314 14.2267 -7.37949 15
323 1 -0.0684743 -4.28255 -16.1502 16
324 1 4.90945 -7.96244 -11.5459 16
325 1 -6.81825 5.25278 14.2054 15
326 1 -19.786 -1.03482 2.33161 7
327 1 -7.0454 -8.92166 -10.6466 22
328 1 -8.70019 6.43987 -1.56683 18
329 1 4.58522 -4.83525 7.33581 21
330 1 -14.3998 -12.0277 -3.71786 11
331 1 10.5068 -7.52166 9.86616 12
332 1 -11.7079 -5.16659 13.084 16
333 1 -14.766 8.6789 1.62582 17
334 1 -4.47973 -4.00924 8.70855 21
335 1 2.28726 -6.91549 -9.5765 19
336 1 -6.37163 -3.03603 -11.0755 23
337 1 7.04848 -1.07132 -15.2445 13
338 1 2.81785 9.24413 3.93359 20
339 1 -14.0408 -4.16259 -5.04437 17
340 1 6.07596 -5.94397 -13.5611 15
341 1 10.5828 2.01611 -12.09 9
342 1 -7.7592 -12.8414 -3.96336 17
343 1 -10.7327 -11.6054 -5.68235 18
344 1 -8.17351 -9.23129 2.89649 22
345 1 7.96807 2.11521 15.8563 14
346 1 10.6661 -0.755873 -2.75278 21
347 1 -9.50169 3.92925 -13.0871 19
348 1 -2.16788 18.6111 -0.618719 10
349 1 -17.4343 -6.2446 -5.05373 13
350 1 -8.12821 9.34731 6.58946 20
351 1 -8.09076 10.233 0.583347 17
352 1 -3.36645 6.4156 8.95889 17
353 1 8.47084 4.37615 13.6209 16
354 1 12.6909 -2.80979 -7.53755 19
355 1 1.71344 -5.78291 13.0257 14
356 1 9.81677 2.83827 -5.09932 21
357 1 -6.80866 -16.1156 -8.29688 13
358 1 0.0104037 -7.00208 -4.38275 17
359 1 0.220151 9.21781 5.69425 24
360 1 -15.9399 3.05214 -4.59413 16
361 1 5.98181 -10.2068 -2.12932 17
362 1 11.7434 -2.45396 6.32688 14
363 1 -12.048 -6.04439 -8.4455 18
364 1 -9.93882 -6.33395 3.68963 18
365 1 -14.4467 -4.74659 14.9702 9
366 1 -5.27547 9.65423 -1.44191 23
367 1 -10.7509 -11.2345 1.77963 14
368 1 10.7934 6.41151 16.1902 7
369 1 -11.2205 0.427342 -3.07164 18
370 1 -1.99826 7.85634 -9.0741 22
371 1 -1.87658 12.9525 7.50422 18
372 1 -12.7011 -10.2404 -0.210505 16
373 1 -4.54714 -8.64565 -4.32876 21
374 1 -16.5203 0.601393 6.05421 15
375 1 -17.9607 7.16574 0.0642725 8
376 1 4.06285 -8.99934 5.34929 19
377 1 -2.50702 -11.5103 -3.92465 18
378 1 8.84589 9.61203 5.01609 19
379 1 5.5037 8.56171 -13.8947 8
380 1 -13.6179 2.03871 -12.3745 14
381 1 -3.80135 15.5217 -10.287 15
382 1 -12.2981 1.31988 -6.24636 20
383 1 -4.45342 -9.54423 6.20695 22
384 1 11.5123 6.85793 9.81124 20
385 1 -2.0194 13.9443 -14.0482 13
386 1 -6.26204 -1.61601 8.71542 24
387 1 -17.5572 0.411062 0.389345 17
388 1 -13.1529 0.12736 6.26283 17
389 1 -9.77766 -13.317 8.87424 17
390 1 4.67043 -7.65118 -7.51915 16
391 1 -16.5333 7.37449 7.40309 6
392 1 -14.7848 -0.376711 9.0411 21
393 1 -14.0223 8.82831 6.68199 11
394 1 -3.32462 -6.64645 7.25451 24
395 1 -9.31477 1.0212 -14.1073 16
396 1 2.44422 -17.9888 -0.302419 13
397 1 -4.23067 -9.92587 -15.2485 12
398 1 -7.00835 -4.76594 10.2998 21
399 1 -6.66253 4.75652 -17.3252 11
400 1 2.75491 -10.2646 -0.121582 17
401 1 0.569014 11.3098 -6.0556 18
402 1 -13.0011 11.2747 4.14151 11
403 1 -7.41921 -0.346696 18.0148 7
404 1 -12.8862 -7.55925 -12.3564 11
405 1 -13.9159 -9.19394 10.0249 16
406 1 10.348 -4.31699 8.68906 16
407 1 -0.316951 1.09424 -8.81758 21
408 1 7.77899 -5.41966 6.69792 19
409 1 12.5812 7.23504 -2.02959 11
410 1 -6.80197 1.55108 10.0125 21
411 1 0.00955338 11.9029 0.960491 21
412 1 7.47941 -4.78038 3.31236 20
413 1 -4.00014 -16.3333 -8.06049 11
414 1 -6.14653 6.09173 18.929 8
415 1 -4.18552 14.9847 11.9489 6
416 1 -6.36798 -8.82287 -8.04904 18
417 1 5.47908 11.1959 1.3397 18
418 1 3.82741 9.60512 6.88613 20
419 1 -9.4128 1.08556 8.66969 17
420 1 -9.39505 -6.90872 -4.09748 18
421 1 -11.6021 -0.299416 10.3915 18
422 1 -5.66971 -6.04343 -12.4872 24
423 1 -9.52974 6.15306 8.42253 19
424 1 -5.41514 -11.0693 -5.77226 20
425 1 -6.36748 -5.20287 -15.7571 20
426 1 -6.84409 -11.4949 4.93588 20
427 1 4.99529 0.57981 7.83002 22
428 1 -9.24371 -3.04385 15.8106 13
429 1 -12.1458 5.04007 -11.283 18
430 1 5.28712 5.47853 1.39419 18
431 1 -5.37622 -14.5136 -4.43745 19
432 1 -6.86486 15.6274 -2.59341 12
433 1 -2.39957 3.17108 -9.02217 22
434 1 -2.03724 5.09786 12.0968 19
435 1 -17.2855 -8.00912 -1.90611 13
436 1 -5.55303 18.4679 -5.38334 12
437 1 4.3035 10.7471 -7.52623 20
438 1 -6.55224 -13.2489 -7.76099 18
439 1 2.44497 3.1067 17.3447 13
440 1 -1.24945 -15.453 -9.76027 9
441 1 -2.62599 -0.0423852 -15.1944 22
442 1 8.72445 -13.2221 4.08629 12
443 1 -6.76197 11.625 4.94525 19
444 1 4.55477 4.65925 12.1464 17
445 1 3.07416 10.9422 -4.38114 18
446 1 0.654564 9.34449 -0.853939 24
447 1 -11.9696 8.62745 -11.6073 11
448 1 1.03231 3.38775 -7.36465 23
449 1 -0.620145 -6.94667 5.70658 22
450 1 -15.338 -8.77923 1.19507 13
451 1 -1.87883 16.9716 2.82193 13
452 1 -7.28065 2.0877 -12.4808 18
453 1 12.5918 1.15499 -3.54133 17
454 1 1.72569 16.2343 -9.85082 13
455 1 8.09019 -8.85485 2.81032 22
456 1 12.1719 2.00826 2.69594 16
457 1 -4.09373 2.40408 -13.5783 18
458 1 -2.67434 -10.6383 0.86385 19
459 1 -3.79082 -14.9941 9.67964 11
460 1 -2.04906 -8.29619 11.5076 14
461 1 -11.1072 4.10285 -8.24654 23
462 1 -12.6253 -10.5369 7.13721 15
463 1 -3.97738 -12.2103 -12.7856 14
464 1 6.97052 13.3658 2.74348 15
465 1 -1.52283 3.70954 -14.3804 15
466 1 -1.37988 -1.41945 15.4118 11
467 1 -16.8932 3.87675 7.45014 10
468 1 -2.44246 -20.0241 -2.28374 10
469 1 -14.5801 -3.76848 1.75015 19
470 1 15.1972 -3.49369 -9.227 8
471 1 13.0535 -1.78967 -4.25786 15
472 1 -5.88014 6.55423 -6.73466 22
473 1 2.71727 -8.1602 -5.58674 17
474 1 0.936063 2.99146 -10.449 23
475 1 8.33051 -2.94888 1.16338 24
476 1 -8.15687 3.10381 18.5023 8
477 1 7.29783 15.8646 0.519235 8
478 1 -5.91444 -0.297102 -15.0358 19
479 1 -1.13665 4.75723 -17.5145 12
480 1 -9.49765 -3.28724 8.79875 23
481 1 -8.58552 11.7681 -1.50745 14
482 1 -11.9969 -1.41481 -13.3885 13
483 1 -17.4828 -2.13456 4.68414 17
484 1 -1.33552 -9.49261 -10.9682 20
485 1 -10.1279 -10.0027 15.0285 10
486 1 -0.129274 5.29096 -8.76708 22
487 1 12.6774 1.05491 10.1192 16
488 1 9.96688 2.46128 -1.79169 18
489 1 -11.0491 -12.9478 -3.63673 14
490 1 -2.88856 -8.95912 -1.81029 18
491 1 -3.17858 -6.49225 -16.0548 14
492 1 -5.39391 8.36873 8.37457 19
493 1 0.791689 -0.860184 -11.613 20
494 1 8.07874 -5.39766 -0.838571 22
495 1 -1.63169 14.3771 -7.69285 18
496 1 2.46322 -6.82283 3.84524 19
497 1 11.5456 6.09125 -7.35699 11
498 1 2.90325 10.2322 12.995 17
499 1 -11.6439 4.00469 9.3179 19
500 1 7.02245 14.5807 6.17566 11
501 1 4.32332 -2.092 16.3329 10
502 1 -4.45216 2.20317 -16.8052 15
503 1 -8.7656 -6.22792 -7.35008 19
504 1 -0.909059 -4.9586 10.8461 21
505 1 8.8216 11.9372 7.88473 16
506 1 3.84415 8.27705 -9.11633 18
507 1 -11.478 11.4868 -2.72571 13
508 1 -2.46433 11.6142 -4.7785 19
509 1 8.46109 -5.41319 11.7319 14
510 1 6.28102 5.38229 -13.368 14
511 1 9.94206 -6.75631 -3.37674 22
512 1 13.3612 9.06443 10.8919 13
513 1 -15.9086 -9.521 4.84577 10
514 1 -10.2579 11.5059 -10.926 14
515 1 -4.22234 1.11752 8.85264 22
516 1 -14.6594 -2.32471 13.2467 15
517 1 -7.85956 12.6503 -13.2684 12
518 1 0.238669 -10.7992 -2.06728 20
519 1 3.91027 -1.77874 -9.39242 17
520 1 -4.28285 15.8635 -1.90978 15
521 1 -11.1456 -5.37299 -14.4434 14
522 1 -0.420732 -12.4848 2.31603 19
523 1 -15.0178 -3.6634 -1.52585 22
524 1 0.411745 14.7251 -11.6244 14
525 1 -0.539709 7.85253 16.5903 15
526 1 -12.8164 -2.97889 10.5217 18
527 1 4.90471 8.14231 -5.87661 20
528 1 -4.52355 -10.9972 -9.54696 23
529 1 3.94858 -7.64162 10.879 15
530 1 -14.3981 5.91822 1.54714 20
531 1 2.85608 7.06028 11.9851 17
532 1 2.40185 17.752 -6.54596 12
533 1 8.70771 -3.20364 -2.47925 23
534 1 0.430973 10.9925 8.1441 18
535 1 -2.05385 1.5173 -18.1346 13
536 1 -5.8638 -12.9624 12.3617 14
537 1 -3.62032 1.43926 -11.0351 19
538 1 3.78481 4.02298 -14.7434 13
539 1 1.10568 15.25 6.41092 13
540 1 6.88306 9.45363 -8.02661 18
541 1 -6.24012 -7.69537 -17.0788 9
542 1 -5.66843 -11.1364 -2.87352 18
543 1 -12.4701 -4.68085 -11.5835 17
544 1 9.01986 2.7685 1.15471 17
545 1 12.8842 2.29351 -0.0225122 18
546 1 8.07588 -12.0095 -0.806742 17
547 1 15.3807 4.09936 12.0215 10
548 1 5.49646 -15.9905 -4.13058 14
549 1 -4.34642 5.54936 -15.3007 21
550 1 2.57486 11.7874 2.78843 22
551 1 -11.6689 3.85645 1.88605 17
552 1 12.9392 6.63787 12.9566 12
553 1 10.1971 8.43603 -4.04144 16
554 1 10.5308 -0.98147 3.48077 20
555 1 6.30885 5.20733 -4.80387 19
556 1 4.78789 1.03943 16.2806 15
557 1 12.7793 4.23337 10.4765 21
558 1 -0.725047 -6.71704 8.79246 21
559 1 9.32994 10.4734 -8.38879 7
560 1 0.551422 4.99681 11.8119 19
561 1 14.6141 -0.387585 -6.79026 9
562 1 5.00714 -1.45783 13.0572 23
563 1 -9.66136 1.49672 -7.75299 19
564 1 15.0518 2.91975 1.89108 10
565 1 9.65245 -6.88929 4.78116 17
566 1 -13.3072 2.11963 11.3413 18
567 1 10.9491 11.5937 10.1186 10
568 1 7.38264 -1.19992 16.3994 13
569 1 -0.560422 6.17481 7.21548 20
570 1 3.80823 15.0174 6.74465 11
571 1 5.81934 3.145 5.78153 22
572 1 -2.5865 -16.6739 -0.402333 16
573 1 -8.8679 12.5853 -4.34874 15
574 1 9.01051 7.35048 -6.31828 15
575 1 8.16934 0.321837 -12.2563 14
576 1 0.206623 19.0352 -4.013 12
577 1 -4.52013 -14.0797 -9.91942 17
578 1 10.3886 -3.76989 -9.55165 17
579 1 -16.3978 2.41571 10.6872 11
580 1 -9.42752 7.38319 -11.2541 17
581 1 -6.63106 -15.3976 3.90188 14
582 1 -7.99553 4.92083 -9.65898 19
583 1 -15.7968 1.51553 -1.72648 19
584 1 7.67151 -6.81406 1.19424 19
585 1 10.2708 9.3702 2.01163 13
586 1 -0.865087 -9.34291 6.98887 18
587 1 -17.7503 -4.52441 -7.93834 10
588 1 1.64207 -1.37618 -16.9188 13
589 1 -4.38585 -0.0300741 15.2846 17
590 1 2.66553 11.9371 -11.9265 13
591 1 9.76344 -3.87612 14.5838 11
592 1 7.11549 7.89516 -3.18113 22
593 1 12.2938 12.0545 2.93237 9
594 1 2.36586 -14.1 -5.78427 14
595 1 -11.2602 -2.11109 13.6175 17
596 1 10.2373 -4.23443 3.42402 15
597 1 -0.381077 13.7222 10.2391 15
598 1 3.82961 13.5243 -10.0823 13
599 1 -12.4648 7.1288 -6.15317 19
600 1 10.4595 14.5874 1.97919 9
601 1 -7.54594 -12.4347 -0.816032 14
602 1 13.6644 -7.27115 9.82771 6
603 1 2.8209 11.6439 -0.6997 22
604 1 -2.20225 7.47269 14.4945 16
605 1 -13.4736 -7.33131 -0.77019 21
606 1 -8.85979 -5.75313 -10.4265 19
607 1 4.95637 0.751621 11.133 19
608 1 -8.81817 -12.3239 11.1742 21
609 1 6.88265 6.29233 12.5524 18
610 1 -7.67367 10.1253 -3.25284 21
611 1 8.62682 5.68004 5.79403 21
612 1 6.32765 3.03467 2.7481 19
613 1 0.567 1.78981 -16.7361 11
614 1 -9.02885 -4.28806 12.3628 21
615 1 7.67887 -2.51598 -11.0512 19
616 1 11.5386 -4.51884 -2.82179 18
617 1 5.98607 7.54271 9.7911 21
618 1 -13.2237 0.545814 14.2879 13
619 1 11.3442 9.4328 8.02863 18
620 1 -3.68024 -3.00453 13.9438 19
621 1 -0.861374 4.69491 15.0659 19
622 1 -3.35673 -4.38729 -11.1692 21
623 1 -8.11454 4.49332 10.9639 17
624 1 7.2158 2.88502 11.2514 19
625 1 -10.2281 -13.5204 5.31753 14
626 1 14.7103 5.69532 -0.0696796 10
627 1 5.53941 -13.5898 -0.158979 17
628 1 5.56618 10.9451 -2.3991 20
629 1 6.67845 8.69626 2.91053 16
630 1 4.06845 0.301044 -16.1058 14
631 1 -0.826419 14.2223 -4.48339 15
632 1 7.87905 10.7704 -1.21521 18
633 1 -8.12278 -10.1003 -2.47629 15
634 1 -4.02903 -3.71791 -16.9852 13
635 1 -10.8614 9.09173 2.14174 19
636 1 7.43517 -5.24243 -11.3087 18
637 1 8.58045 4.68731 -7.44367 16
638 1 3.81969 13.6023 -3.60849 19
639 1 -12.2118 7.52268 -0.150056 18
640 1 3.88072 3.15136 -2.34987 18
641 1 9.53094 -0.118591 11.7708 19
642 1 7.04017 -3.5765 14.5057 12
643 1 -4.59764 -9.73957 12.3546 16
644 1 -9.37496 9.52776 -13.1283 13
645 1 4.05379 13.7602 4.40147 17
646 1 9.0044 -6.07692 -14.1058 9
647 1 -1.275 -0.20931 10.9671 17
648 1 4.41611 16.2466 -5.24666 14
649 1 6.36329 8.61907 6.34183 19
650 1 14.421 -5.59062 -6.2608 13
651 1 5.35834 3.98354 15.6658 16
652 1 -11.6469 -4.92958 7.0305 21
653 1 0.177188 -15.8726 -2.37925 18
654 1 -2.4317 -0.941472 -9.44249 20
655 1 -10.1641 15.1526 2.97344 8
656 1 3.28538 8.78709 0.976298 21
657 1 -16.3004 -5.15886 6.955 18
658 1 -0.405133 4.07958 19.5077 8
659 1 -7.61426 7.50463 -15.3545 14
660 1 -10.1935 6.47877 -13.7606 13
661 1 3.32693 -16.813 2.87215 10
662 1 3.74759 13.7296 -6.93908 16
663 1 -16.5706 0.455389 14.4396 9
664 1 4.19617 -0.721849 -12.5045 19
665 1 0.44978 -11.0039 9.25216 12
666 1 -4.81898 14.3492 3.05869 21
667 1 -5.34306 1.39123 17.6603 8
668 1 -9.93638 -9.10821 -11.3243 16
669 1 -6.37056 -8.98442 -14.1942 16
670 1 -9.80161 -10.3063 -8.29274 17
671 1 -3.15984 17.4416 -8.0813 15
672 1 4.85123 -5.00613 -9.46375 21
673 1 -2.38027 9.03374 4.05595 21
674 1 4.23424 -10.0848 -8.55195 18
675 1 7.04213 -16.1858 2.35759 10
676 1 2.34955 -7.16337 7.43295 22
677 1 12.734 2.72906 -6.31993 16
678 1 1.52757 -10.0824 -8.13503 16
679 1 -15.7754 -3.45638 9.74847 23
680 1 -4.13823 -19.5197 -4.98298 7
681 1 -10.3757 -12.5692 -0.631858 13
682 1 -14.4124 -3.37393 6.32966 22
683 1 -6.13607 -15.7361 0.317238 11
684 1 13.1964 3.7889 -2.63743 13
685 1 -4.45432 17.4605 0.62316 14
686 1 -12.235 6.47355 3.33478 20
687 1 8.47855 -2.58264 5.04692 21
688 1 -14.8619 -3.38669 -8.619 15
689 1 -0.0487394 6.23898 -5.87818 17
690 1 5.93435 0.198587 -9.72781 20
691 1 10.829 10.3691 12.9544 9
692 1 5.20605 5.61755 -1.99876 21
693 1 -18.5851 -1.21538 -7.67175 7
694 1 -13.4926 -10.8594 -5.98562 16
695 1 -2.47794 5.49554 18.3172 15
696 1 3.27599 4.71428 -10.7373 21
697 1 12.0642 6.75733 1.50426 13
698 1 -3.62869 -2.46399 10.9336 20
699 1 -2.24807 -15.1446 -3.09056 18
700 1 -6.9286 -15.0334 10.3377 14
701 1 -6.13011 -7.38069 8.6031 20
702 1 13.9663 8.79366 7.80407 11
703 1 -0.819369 -6.66654 -9.89731 20
704 1 -8.38721 6.85797 -4.7169 21
705 1 8.36884 6.18036 8.55214 19
706 1 -14.9751 -1.31753 3.74962 21
707 1 6.1589 5.8665 -9.01904 19
708 1 -0.827676 -15.4878 -6.3654 14
709 1 -0.520775 -18.9563 -0.937443 11
710 1 2.58843 -17.7096 -4.26118 16
711 1 6.59529 2.29501 -6.89377 19
712 1 7.93242 13.9229 -1.77248 17
713 1 -7.65743 -2.71392 -16.1262 17
714 1 0.295976 2.08104 13.9793 15
715 1 -4.21251 4.74163 -18.4087 11
716 1 -13.7984 0.223846 -14.8105 6
717 1 -14.8221 -6.45795 -3.44814 20
718 1 -2.00373 16.7501 -5.21346 18
719 1 -5.54843 -3.28031 -13.9642 22
720 1 -8.28984 -6.6276 0.521474 20
721 1 11.7956 5.55088 -4.7667 13
722 1 6.05136 -6.94643 4.50647 22
723 1 -7.49906 8.58109 16.1582 11
724 1 5.25802 -8.28675 2.31125 17
725 1 10.3337 -6.0275 0.956875 18
726 1 11.855 -4.82275 11.5967 13
727 1 -3.75695 11.7322 5.06549 21
728 1 -12.0343 4.70432 12.6935 15
729 1 -9.45536 6.13365 14.0351 18
730 1 -2.97188 -11.9243 10.7356 14
731 1 7.57974 -0.442724 2.92894 21
732 1 6.36673 13.4004 8.75233 11
733 1 -17.4875 -4.53748 -2.95002 12
734 1 5.05407 -7.32614 -1.08073 18
735 1 -16.1647 9.35938 -3.89507 9
736 1 -0.100717 -13.6691 7.43799 11
737 1 7.27265 0.286576 13.3607 20
738 1 0.883496 14.7327 3.11328 16
739 1 -1.37547 -9.45019 3.56249 20
740 1 -12.2697 -5.47058 -3.46932 18
741 1 -4.49377 0.0962505 12.0844 21
742 1 -15.3801 -9.98359 -1.41514 16
743 1 -0.25946 10.281 14.8608 14
744 1 -0.156642 11.5136 4.3959 22
745 1 -10.3213 -10.2559 4.43683 15
746 1 -7.79516 -14.4866 6.60089 15
747 1 6.08638 -8.3005 7.45637 20
748 1 10.9795 -7.77775 7.30306 11
749 1 5.51267 10.2543 9.75514 18
750 1 -2.59368 -6.61226 -12.8833 19
751 1 -5.64603 7.69259 -17.5885 10
752 1 -8.50911 -1.36821 10.8658 21
753 1 -6.23957 11.3477 7.81829 17
754 1 13.9937 -0.473423 7.47683 11
755 1 1.66831 8.45155 -7.00078 20
756 1 -4.43186 7.99156 17.1002 10
757 1 9.96642 7.43795 11.958 20
758 1 7.90492 -3.1926 -13.9852 17
759 1 -12.5899 -14.7431 3.24686 8
760 1 10.3152 0.154464 8.04496 21
761 1 2.60226 1.23477 -10.8594 22
762 1 -0.209845 7.62628 19.6333 6
763 1 8.71107 -11.7206 -4.26626 13
764 1 2.33775 9.53636 -14.2186 13
765 1 -6.09806 -6.45821 -5.40231 21
766 1 9.69731 5.24209 -11.7598 10
767 1 15.8847 -3.20658 0.0571489 6
768 1 -4.20411 -6.5567 13.95 14
769 1 -2.98156 -9.42925 -7.25013 23
770 1 4.88187 15.512 -2.06995 16
771 1 -15.6853 3.68819 4.58535 15
772 1 8.3188 4.575 -2.07643 15
773 1 13.4349 5.81164 6.95929 18
774 1 -0.49974 -3.99882 -12.2764 22
775 1 -9.89324 11.6667 6.57631 13
776 1 12.122 7.21323 5.27005 17
777 1 6.71776 14.1299 -4.87874 14
778 1 1.5777 1.29394 -13.859 20
779 1 4.57956 -5.37918 -3.06239 18
780 1 -15.3323 2.45592 1.45184 22
781 1 10.9973 4.03211 7.69551 20
782 1 -13.8965 -11.887 1.38123 13
783 1 -13.3722 9.31701 -3.90321 19
784 1 6.04172 4.45907 9.34705 20
785 1 -15.0668 -1.01536 -6.35562 18
786 1 -14.1415 2.5494 7.88936 18
787 1 -5.27797 3.85359 -8.24618 19
788 1 7.4575 -5.27065 -8.43304 16
789 1 -12.1788 -11.881 -8.52527 12
790 1 11.9001 -6.86782 -1.19301 13
791 1 -16.9107 4.62795 2.28596 13
792 1 -14.3594 -7.62939 -6.05466 18
793 1 13.5035 3.76676 13.9783 11
794 1 -8.96136 -6.34579 7.55044 23
795 1 9.75991 -0.274527 15.023 15
796 1 12.5189 -2.20285 9.35438 11
797 1 5.14552 -2.11091 6.2155 22
798 1 -12.6003 1.60259 -0.15614 21
799 1 -2.40312 9.12472 7.24608 20
800 1 1.18242 4.83584 -12.6812 18
801 1 -2.6695 -4.36154 -14.5135 22
802 1 -4.5133 17.0492 4.04748 13
803 1 -12.2232 -12.3904 10.0559 16
804 1 1.0337 15.167 -7.12814 16
805 1 0.355769 7.48565 13.9055 19
806 1 12.0881 -8.16651 -6.2281 13
807 1 7.89358 -7.41066 8.71199 15
808 1 -5.125 13.0729 -12.2631 19
809 1 1.02735 7.25715 -10.9228 19
810 1 -8.66063 -1.12854 6.55574 21
811 1 14.8365 3.35674 8.479 13
812 1 -5.63526 -0.205426 -12.1875 20
813 1 10.4588 12.5364 -0.371877 11
814 1 -18.0135 3.78116 -0.596471 12
815 1 -3.98175 -14.3385 4.89085 19
816 1 0.908212 12.606 -9.21686 20
817 1 2.475 -2.22722 11.1791 20
818 1 -1.44609 -12.1124 -8.40407 19
819 1 -6.58866 15.8242 1.07796 15
820 1 -15.0284 4.24822 -1.19891 22
821 1 8.45087 -0.349157 -7.76432 17
822 1 -4.25783 -9.20095 -11.9827 17
823 1 -9.56448 6.85653 5.46204 21
824 1 6.41483 12.5739 -8.41333 14
825 1 -11.6692 -1.8379 4.92762 21
826 1 3.0863 -4.7521 -17.6981 9
827 1 -10.2535 -12.9178 -11.4791 9
828 1 -3.54209 -13.8073 -6.68523 17
829 1 -2.43854 7.92156 11.3674 15
830 1 6.44185 -11.6121 1.6852 20
831 1 -2.27675 13.2543 -11.3248 19
832 1 11.2167 -0.164185 -6.00393 22
833 1 9.00411 6.77952 2.95494 16
834 1 1.31748 -20.4254 -3.09716 10
835 1 4.95342 -2.5808 -16.321 13
836 1 10.6835 0.0598191 0.61434 23
837 1 -2.76783 10.8791 -13.2645 23
838 1 -8.77945 -8.1468 10.0378 18
839 1 2.64532 6.04163 -4.17752 22
840 1 2.66309 0.668916 -7.33375 23
841 1 -13.1311 3.01977 -3.70426 22
842 1 -14.856 3.11203 13.8145 9
843 1 3.07778 9.31855 15.837 13
844 1 -7.81718 -10.2995 13.0628 18
845 1 5.19465 6.17736 6.93998 19
846 1 -5.33819 -13.4097 1.85561 20
847 1 1.03397 9.05365 -4.14372 19
848 1 -3.29486 10.3426 13.2059 13
849 1 -5.2916 3.64086 12.1681 19
850 1 -6.83322 6.1581 6.8411 18
851 1 6.37009 2.81497 -0.439468 23
852 1 -6.60888 -8.46721 15.3031 12
853 1 4.92154 -12.835 6.0827 11
854 1 9.90238 2.79914 10.1087 16
855 1 7.69831 -5.5599 -4.27279 20
856 1 3.95999 -12.6568 -8.88083 8
857 1 -12.4251 4.24592 -14.6724 9
858 1 -5.22765 -0.838373 -18.0058 11
859 1 5.61302 11.3643 4.81668 18
860 1 -16.4215 -7.09426 10.0842 16
861 1 -7.68888 9.8975 -6.62262 20
862 1 -17.609 5.83892 -3.72452 11
863 1 9.1643 11.9902 -3.6257 15
864 1 -8.56986 -12.9786 2.63281 15
865 1 -3.72467 6.40855 5.8565 23
866 1 11.6634 10.2553 5.31983 13
867 1 -8.60613 -14.6822 -5.86912 14
868 1 1.91715 15.1938 9.71327 11
869 1 -9.93263 1.70952 11.387 20
870 1 -6.12436 -17.194 -5.33332 10
871 1 11.4808 -2.04509 12.6708 15