ITEM: TIMESTEP
26000
ITEM: NUMBER OF ATOMS
2000
ITEM: BOX BOUNDS pp pp pp
-30.0 30.0
-30.0 30.0
-30.0 30.0
ITEM: ATOMS id type x y z Coordination
1 1 -10.8514 1.54335 -17.1383 12
2 1 -6.04391 -16.2757 -9.6111 10
3 1 0.924752 11.8916 11.1864 16
4 1 7.38163 -9.7873 5.89882 20
5 1 -12.6161 6.26281 -3.07169 19
6 1 11.8754 -6.81846 -7.84192 13
7 1 -14.2002 4.33298 -6.83991 18
8 1 -4.59181 -6.94623 10.4382 20
9 1 -8.80861 -2.02884 -10.2665 20
10 1 -12.128 -14.2105 8.00009 13
11 1 13.7795 1.65578 -9.3528 10
12 1 -5.35813 -14.5732 -0.314471 20
13 1 -14.9922 -12.5938 8.0519 10
14 1 -3.72724 -0.216202 18.0858 11
15 1 -0.425777 3.36868 9.11681 21
16 1 -3.85854 10.4349 -9.52945 21
17 1 -1.17935 -2.91963 12.2802 20
18 1 -10.2759 -1.38869 -16.5501 12
19 1 -18.1366 -4.16624 14.4501 6
20 1 8.26518 2.40798 7.63372 19
21 1 -1.21482 11.2672 -11.0344 19
22 1 -0.15227 10.9695 -16.7664 9
23 1 11.3625 0.844316 12.8608 13
24 1 -13.8791 4.24866 -10.0505 11
25 1 -9.6246 8.9052 10.1788 13
26 1 5.12593 -14.3276 3.71758 13
27 1 1.52619 -11.9605 -13.4548 13
28 1 10.8275 -11.7646 0.0201287 11
29 1 -7.91332 -14.6741 -7.52396 17
30 1 -20.6497 -3.85832 8.18089 7
31 1 -0.904657 -8.57904 -7.8809 16
32 1 6.44918 -11.414 -5.49132 17
33 1 -2.40041 11.6608 -14.1741 18
34 1 -2.65034 1.9426 13.3212 19
35 1 -3.70665 -13.0572 7.88041 21
36 1 3.59585 -6.29934 13.1727 11
37 1 -18.6687 -4.8271 2.45332 13
38 1 -18.5161 -1.7199 10.3499 12
39 1 -11.9444 -1.70678 -1.62775 22
40 1 -6.08257 11.8997 -2.90008 19
41 1 -1.64501 -11.1329 -13.8278 14
42 1 -0.157795 -1.66593 -16.1408 21
43 1 0.806414 -4.5225 -11.8221 19
44 1 -8.53935 -1.42698 15.0572 15
45 1 -15.198 6.13431 -4.22959 17
46 1 0.412766 13.476 -14.0633 12
47 1 -5.71145 9.29873 4.97404 22
48 1 -11.3272 10.079 -5.50546 16
49 1 -2.99095 11.8897 -1.01547 20
50 1 0.200787 -15.0755 2.15018 14
51 1 3.75897 -5.99859 -7.45892 19
52 1 1.9395 -7.57169 -16.8334 9
53 1 -6.95119 8.29543 13.1639 13
54 1 -14.8359 -10.4859 -9.46377 6
55 1 -4.94976 8.68405 -4.39262 21
56 1 -6.96319 -12.5482 8.04131 15
57 1 -1.91556 13.7972 13.0751 10
58 1 -11.1555 3.5717 -5.292 20
59 1 -6.34036 10.4424 10.5053 13
60 1 -2.95723 -16.2139 7.5507 11
61 1 2.50398 2.63787 7.55895 21
62 1 6.2015 -15.2145 -0.327127 10
63 1 4.23621 11.66 11.3964 12
64 1 -15.7712 1.80859 -7.45874 11
65 1 -12.2845 6.58548 -9.36977 16
66 1 1.54622 9.61791 9.61599 21
67 1 14.104 -4.71608 -7.71863 8
68 1 10.1559 -11.1739 6.73855 12
69 1 -19.7764 -1.07147 7.17696 9
70 1 4.26381 13.1361 2.16032 17
71 1 -2.05251 -5.2282 13.8537 11
72 1 -9.04208 -9.78712 6.48523 19
73 1 -14.6136 -1.9356 -3.6847 20
74 1 7.12945 -0.195651 9.15076 20
75 1 -0.800651 12.1684 9.32991 20
76 1 1.78821 -1.85626 7.20054 21
77 1 -3.70557 -7.64041 -6.63976 20
78 1 -11.9161 8.55498 8.23618 13
79 1 -11.0975 8.96749 -2.53552 17
80 1 -6.42852 5.74511 -8.94888 22
81 1 5.87835 -3.45974 -4.19702 19
82 1 7.46718 12.908 -11.489 8
83 1 4.23788 -4.8318 3.7401 21
84 1 2.48811 -10.8858 8.50883 13
85 1 -5.88353 11.1677 -6.32984 25
86 1 -6.99739 15.2455 4.93963 11
87 1 -10.2018 1.23554 15.2212 22
88 1 -7.32668 5.89087 10.2614 17
89 1 -7.54109 -4.79846 13.8765 16
90 1 12.4439 -6.9509 -1.58699 9
91 1 -16.0845 1.19411 1.78121 21
92 1 -12.1765 -13.3535 -1.14069 14
93 1 8.21214 -8.19757 -8.38573 14
94 1 1.8578 -6.10458 -14.695 14
95 1 -8.31254 -1.95235 -13.594 18
96 1 -2.86093 9.04968 0.809027 21
97 1 -7.94322 8.2622 -10.6303 20
98 1 1.55487 5.36128 16.2932 18
99 1 1.58476 14.9805 -1.78423 14
100 1 -13.358 11.2388 0.413219 10
101 1 0.310217 8.97281 2.71244 25
102 1 -10.5204 -7.39915 10.1766 18
103 1 7.16105 -3.41991 10.589 19
104 1 2.03476 -4.65636 -8.44761 20
105 1 6.02534 -7.84272 -11.1019 14
106 1 -6.42477 3.53405 8.76501 21
107 1 1.62786 -3.51623 14.1444 17
108 1 -11.5281 -10.9933 -4.22047 18
109 1 -12.0365 -7.63812 -4.86826 15
110 1 9.169 -8.69134 8.26932 13
111 1 -9.81622 6.70022 2.01151 21
112 1 2.02197 8.36141 -16.0987 11
113 1 4.34323 16.2227 -4.0181 16
114 1 -10.6162 -12.0039 12.8093 16
115 1 -10.8951 -15.0222 11.8355 8
116 1 4.93 -10.0189 -14.9948 7
117 1 2.45835 5.10272 -8.09127 23
118 1 11.2625 -8.71267 1.67971 15
119 1 -4.66217 -9.689 6.34006 16
120 1 -11.7761 -8.41241 -1.70387 17
121 1 15.5892 5.58318 8.01701 11
122 1 12.5442 -2.02356 -9.8397 13
123 1 -14.6246 -8.4959 4.28855 21
124 1 7.97138 5.53262 -1.42935 20
125 1 14.5692 3.56747 2.19428 8
126 1 -11.9607 4.14387 16.6045 11
127 1 -1.14148 7.12271 10.7594 20
128 1 -4.57455 8.18966 -7.88012 22
129 1 -2.99108 -7.87501 -9.37073 19
130 1 6.83178 -10.669 -8.96399 13
131 1 1.57301 17.8562 -8.10991 12
132 1 5.44259 -6.41095 10.6062 15
133 1 -0.378466 0.131882 -18.7757 14
134 1 -3.56825 5.65283 -7.60519 23
135 1 7.6923 -0.118955 -4.26609 20
136 1 -14.4377 8.1897 -6.53483 15
137 1 -7.4942 15.1553 -2.45388 17
138 1 3.70176 2.70357 -10.0911 18
139 1 2.64591 -12.0902 3.2451 23
140 1 -9.67206 5.73463 -8.244 18
141 1 -5.37648 15.2178 7.97687 11
142 1 8.29266 8.92854 -9.02823 15
143 1 -0.733936 12.4827 -3.75772 17
144 1 -1.84225 19.1521 -2.83474 12
145 1 6.23311 8.08823 -0.954951 17
146 1 -2.17155 8.4531 -5.87943 19
147 1 -0.0710494 15.9159 -10.3903 15
148 1 -1.65328 8.40172 -12.3997 17
149 1 -12.9563 -13.2998 4.64214 16
150 1 -15.6237 7.47481 -1.73043 19
151 1 -7.95707 -8.06352 -12.5487 14
152 1 0.248743 -9.86503 -11.1657 18
153 1 9.53791 12.7196 4.17654 11
154 1 -5.03328 13.2562 5.28335 19
155 1 -17.4103 -1.6434 -3.22905 16
156 1 -10.1381 13.1729 0.324498 10
157 1 13.1037 -0.660495 -2.11425 16
158 1 -9.09561 5.2162 -16.9834 8
159 1 1.22773 -0.672036 15.7892 16
160 1 1.24055 13.2305 0.112119 18
161 1 -0.362965 9.58483 11.8162 17
162 1 -0.189253 -10.2969 -17.1339 6
163 1 -3.94957 12.9174 10.8489 15
164 1 -2.14153 11.1745 -7.05582 19
165 1 1.55109 -9.40894 11.9203 10
166 1 -15.6681 -5.02861 3.59276 22
167 1 0.906119 -13.1184 -10.4396 19
168 1 -10.1562 11.7412 -8.01366 15
169 1 -7.08185 -7.23143 5.27285 20
170 1 3.07143 -17.1886 -1.83953 15
171 1 -6.19974 11.4983 -12.0018 18
172 1 -16.2596 6.75577 4.60308 13
173 1 5.53112 10.3267 -6.37707 16
174 1 -9.00757 3.53094 13.6784 19
175 1 -3.62824 -9.65791 9.0767 20
176 1 -11.3498 3.19702 -2.0966 21
177 1 -1.85613 14.5525 0.875394 19
178 1 1.66643 6.08847 9.59299 16
179 1 13.2324 2.81945 11.3329 14
180 1 -6.9926 18.5648 3.03895 7
181 1 9.12959 -2.79989 -5.30423 20
182 1 -3.0288 10.0038 9.74304 21
183 1 -7.17699 0.809466 -9.65516 24
184 1 11.0906 -8.72462 5.16513 18
185 1 -10.3997 -3.99055 5.09957 24
186 1 -17.5093 -7.21535 1.75745 14
187 1 -12.861 -8.13027 7.78986 17
188 1 6.82025 9.54442 11.578 18
189 1 -19.1166 -0.697518 -0.970741 11
190 1 -1.18292 -12.9544 -4.26065 19
191 1 1.66833 -7.74382 -3.43028 19
192 1 -5.7266 9.27394 1.63127 20
193 1 2.69896 12.2285 8.3976 21
194 1 -12.0308 -1.42827 -5.65527 20
195 1 -9.35587 13.9216 -10.4805 12
196 1 -18.9116 -4.24701 -4.37337 11
197 1 -12.4619 -3.05321 7.78472 21
198 1 -5.44492 -9.53821 1.93267 21
199 1 0.658386 -10.879 5.79231 21
200 1 -11.894 8.71619 5.01844 19
201 1 13.0942 1.95946 4.2939 16
202 1 3.12027 2.69482 -6.0072 20
203 1 -8.72169 -6.74132 -15.1721 14
204 1 0.347734 -0.359265 12.4999 19
205 1 2.18461 -14.1371 5.16694 13
206 1 -5.08775 8.12105 -11.3436 23
207 1 0.00980878 -8.61202 -13.986 19
208 1 6.47166 2.21227 -11.4269 22
209 1 -2.30244 8.65771 -15.0353 18
210 1 -9.87086 -4.42728 -8.6105 20
211 1 -6.91878 16.924 -5.20378 9
212 1 -16.1633 -4.40994 11.6447 15
213 1 7.02509 13.8842 0.29023 14
214 1 -12.6128 1.37844 17.9783 10
215 1 -4.75759 16.1701 -6.91069 17
216 1 1.09356 0.39895 9.06627 22
217 1 -6.32438 -7.06196 -8.29799 18
218 1 -5.12663 13.439 -7.73514 22
219 1 -0.516332 0.492081 -14.1697 19
220 1 -9.91477 -11.6489 9.25884 18
221 1 -13.2257 5.99795 6.8373 20
222 1 -6.96495 4.02978 15.6118 13
223 1 -0.253892 -11.2059 -6.18999 16
224 1 -4.14796 -18.9393 -0.968154 10
225 1 7.57647 -9.46262 -3.1045 14
226 1 10.4087 3.84652 13.3569 14
227 1 2.00405 10.5937 -12.2288 20
228 1 -2.48898 9.04353 -2.50456 20
229 1 -15.1142 -1.59465 -0.472617 22
230 1 -15.7523 10.7665 -2.06158 12
231 1 1.99779 2.52132 11.0858 22
232 1 -1.0695 -18.6643 -4.92102 11
233 1 7.28339 -0.160673 -0.94596 22
234 1 1.87433 5.62815 5.54001 21
235 1 -12.2506 3.29172 4.81568 18
236 1 -15.5485 -9.64508 -6.1547 9
237 1 5.21205 0.439762 -13.7124 20
238 1 -1.23103 -2.05254 8.8357 21
239 1 6.15972 7.93237 -11.1786 15
240 1 3.89831 -11.0502 -6.555 18
241 1 -11.028 -0.0682397 -11.9 19
242 1 -4.38689 -17.4167 4.28948 11
243 1 4.33437 -0.00648557 -5.57853 16
244 1 -12.427 -1.49687 1.76816 18
245 1 1.65981 -14.581 -4.14999 19
246 1 -9.2503 -4.50694 -12.5507 21
247 1 4.40381 13.2976 -1.23711 18
248 1 -0.977297 -2.05927 -13.2865 15
249 1 0.864092 2.00102 14.3674 20
250 1 12.4881 -0.976202 3.73711 13
251 1 10.6442 -2.16284 -12.7144 12
252 1 -13.471 0.899935 -9.62027 16
253 1 -11.6312 -1.4208 -8.83252 20
254 1 -8.9107 -12.9531 14.783 7
255 1 4.56058 -2.84248 8.9971 20
256 1 1.16934 -5.20907 9.05057 19
257 1 -11.9309 -6.74987 -13.821 11
258 1 -0.691492 6.5029 -16.492 15
259 1 2.92629 8.05772 -2.68403 20
260 1 -11.8314 -9.31755 1.74566 18
261 1 -2.92441 11.7486 2.56245 23
262 1 -9.97853 -6.6172 14.7439 13
263 1 -11.5247 -10.3379 -8.35378 15
264 1 -10.3954 -9.16298 -12.8681 10
265 1 -4.76454 10.0603 -14.3941 15
266 1 -8.23109 -9.17202 -3.64304 18
267 1 -3.83831 -12.3334 4.57812 17
268 1 8.42243 -3.52164 -18.0926 5
269 1 8.25802 1.4498 -9.14703 18
270 1 8.25261 2.87354 3.57715 19
271 1 -9.88668 -9.37142 11.7107 18
272 1 -8.93023 -9.27623 0.649739 17
273 1 5.01574 7.16398 15.7953 14
274 1 -7.82966 -18.3052 7.40302 5
275 1 -2.75967 -14.6635 2.2312 19
276 1 -0.104042 19.9026 -5.67335 10
277 1 7.62012 2.321 -14.5971 11
278 1 -8.04072 -3.21622 -16.0227 17
279 1 -12.6886 -6.97186 12.3732 20
280 1 4.35391 9.88292 14.388 13
281 1 -2.42549 -14.7152 -0.667617 19
282 1 -7.75588 -14.1612 -10.8977 11
283 1 -12.283 9.29741 -8.83321 12
284 1 4.64456 5.64301 3.92038 20
285 1 -4.51139 2.50697 -10.7261 17
286 1 -4.81202 13.7377 -13.9344 13
287 1 7.22553 -14.3114 -7.27396 6
288 1 -5.39191 14.5856 -4.39137 20
289 1 1.93133 10.4529 6.14809 22
290 1 6.88997 -0.00593426 5.65737 19
291 1 -13.6892 0.566472 4.1203 18
292 1 -7.32641 -7.47893 11.9274 20
293 1 -8.50245 17.8182 -0.0524305 7
294 1 -1.14718 -4.37932 -9.49339 18
295 1 10.1853 9.66949 -4.04055 13
296 1 2.24947 -11.4972 -4.39884 17
297 1 -7.70412 -2.47641 12.0068 18
298 1 -17.2471 -7.26233 4.66019 14
299 1 1.92079 -13.3178 -1.40739 18
300 1 -5.86427 5.58549 13.6282 18
301 1 -12.5637 6.82013 10.5979 16
302 1 -18.0189 -0.682628 13.7823 5
303 1 -13.3361 -5.73351 9.39835 19
304 1 13.4757 -4.29159 -2.48779 12
305 1 -12.1676 -9.8623 10.6744 14
306 1 4.81431 -3.20078 -7.88197 19
307 1 7.55018 -12.1875 -1.44047 16
308 1 7.26538 16.8871 -5.23389 7
309 1 -7.13617 11.155 -9.36008 21
310 1 8.7302 8.1547 6.9764 18
311 1 -12.9276 -5.5141 2.85019 20
312 1 4.73646 -8.39009 -5.09927 16
313 1 -6.51774 12.495 -0.17208 19
314 1 -9.36036 3.98571 6.68986 20
315 1 0.444413 -9.36227 3.28032 18
316 1 10.9869 -3.05863 -1.24325 19
317 1 -3.57327 2.92118 10.2987 22
318 1 -10.5872 -3.41303 -4.52477 17
319 1 3.40343 -0.657222 13.567 21
320 1 -8.73266 9.65653 3.59588 19
321 1 7.9005 5.53371 15.1877 13
322 1 -7.78525 14.1891 -7.31353 16
323 1 0.74261 -4.25775 -17.8347 13
324 1 2.6665 -8.82961 -13.1354 17
325 1 -9.11616 6.66561 12.2673 20
326 1 -18.0789 -1.81438 1.46977 17
327 1 -7.11613 -11.3516 -11.9338 13
328 1 -9.8257 6.2148 -1.45237 19
329 1 3.3581 -5.88247 6.63905 16
330 1 -15.3949 -11.5496 -3.33512 8
331 1 11.5961 -6.71339 9.19471 11
332 1 -12.6295 -6.81363 15.7049 9
333 1 -15.8381 8.98823 0.92648 12
334 1 -4.69497 -4.43496 8.79444 23
335 1 1.45629 -7.24649 -10.0813 16
336 1 -7.13994 -5.4123 -10.4741 21
337 1 6.29723 -2.57851 -12.5172 22
338 1 3.19435 8.55537 3.96661 20
339 1 -12.9457 -4.16798 -7.0215 21
340 1 5.3125 -6.35873 -14.6881 13
341 1 10.2514 3.04678 -10.9251 11
342 1 -8.41955 -14.4797 -1.36717 19
343 1 -9.88112 -13.7396 -3.23756 18
344 1 -8.23099 -9.22671 3.45461 20
345 1 6.80089 2.28084 15.6428 12
346 1 10.0693 -0.194075 -2.78614 20
347 1 -8.53422 2.53668 -12.3591 18
348 1 -0.73138 17.5147 -0.326309 9
349 1 -17.0301 -6.66909 -4.39208 13
350 1 -8.7424 8.8026 6.68698 18
351 1 -8.80392 9.82153 0.235468 18
352 1 -4.41863 6.17358 9.39973 21
353 1 7.56808 3.97378 12.6523 17
354 1 10.9227 -3.33397 -7.87654 22
355 1 1.05376 -6.18096 11.9616 17
356 1 8.96004 2.44591 -5.90276 18
357 1 -4.8833 -15.7432 -6.4236 15
358 1 -0.893859 -6.96572 -4.41798 19
359 1 0.255765 8.48482 5.39676 22
360 1 -18.0483 2.43 -5.52321 8
361 1 4.88994 -12.9633 -2.59336 16
362 1 11.9559 -2.82705 7.18513 14
363 1 -11.9962 -6.99083 -8.22513 19
364 1 -10.0356 -6.75841 3.51466 21
365 1 -15.5914 -6.97102 14.1045 9
366 1 -5.61597 9.43776 -1.2933 20
367 1 -10.1713 -11.502 3.97665 21
368 1 8.83987 7.40936 12.988 18
369 1 -13.1953 1.08489 -3.53925 17
370 1 -2.1733 8.16482 -9.00783 21
371 1 -3.26872 13.3743 7.8268 19
372 1 -13.4417 -10.6093 -1.12678 19
373 1 -2.58647 -9.33095 -4.18461 20
374 1 -17.6198 0.69994 4.07713 16
375 1 -18.649 6.41846 -0.00379509 11
376 1 3.70538 -9.08165 5.59011 18
377 1 -2.83893 -12.1011 -1.82872 17
378 1 7.90564 8.41316 4.67742 19
379 1 3.88379 7.80874 -13.0137 14
380 1 -12.0981 2.60998 -12.1366 15
381 1 -3.73694 16.3185 -9.90088 13
382 1 -13.2397 1.12583 -6.77466 21
383 1 -2.26782 -9.83011 3.34838 24
384 1 14.0877 7.67479 9.71533 11
385 1 -1.79771 14.9833 -12.5565 12
386 1 -7.04289 -1.72766 8.60961 24
387 1 -18.986 1.47163 1.45296 11
388 1 -13.4135 0.0726515 6.73559 20
389 1 -9.78863 -15.1861 9.32609 12
390 1 5.01485 -8.81292 -8.05837 19
391 1 -16.3216 6.88495 7.94485 9
392 1 -17.0768 0.731347 7.16246 13
393 1 -14.6708 8.81765 5.97918 12
394 1 -3.6884 -7.14557 7.60153 20
395 1 -9.86906 0.810142 -14.1941 20
396 1 0.875682 -16.3827 -0.441054 13
397 1 -3.19367 -8.80751 -15.2809 11
398 1 -7.52147 -4.5783 10.465 20
399 1 -5.83891 5.06664 -19.4958 6
400 1 2.35371 -10.822 -0.256349 16
401 1 1.86443 11.5498 -6.00735 21
402 1 -12.6035 11.8653 4.97863 6
403 1 -10.1584 -0.78147 17.6753 10
404 1 -12.9896 -8.03693 -10.7029 15
405 1 -16.8566 -9.84507 9.1319 7
406 1 9.50359 -3.64053 6.05301 20
407 1 -1.10166 0.478792 -8.8779 21
408 1 5.90112 -4.92632 7.19337 18
409 1 10.4703 6.67587 -3.03008 17
410 1 -7.73756 1.24139 10.3612 19
411 1 -0.512699 11.1607 0.776292 20
412 1 7.17478 -5.26282 2.29081 17
413 1 -3.50332 -15.1183 -9.47795 15
414 1 -5.93898 2.92036 18.9081 10
415 1 -2.55089 15.4287 10.1107 13
416 1 -6.61365 -9.94029 -7.06448 21
417 1 6.19334 10.8275 0.775367 20
418 1 2.77435 7.68274 7.5518 21
419 1 -10.6111 1.47638 8.80492 22
420 1 -9.03724 -6.478 -3.4065 18
421 1 -12.8506 -1.1433 10.1241 20
422 1 -6.31169 -4.62138 -13.2014 18
423 1 -10.1376 6.50817 8.49623 21
424 1 -5.48774 -10.2868 -4.30201 20
425 1 -5.69583 -3.41326 -18.5075 9
426 1 -6.93443 -11.5278 4.11602 16
427 1 4.22256 -0.132539 7.55077 19
428 1 -10.8439 -3.67224 15.0262 15
429 1 -12.4902 5.64634 -13.2528 11
430 1 4.91174 5.50712 0.82972 21
431 1 -5.99653 -13.8663 -3.0128 18
432 1 -4.80912 17.5212 -2.68635 16
433 1 -2.34286 3.40502 -9.49555 20
434 1 -2.88589 5.30831 12.5365 19
435 1 -17.446 -7.02871 -1.22263 13
436 1 -3.4297 19.1285 -5.49898 11
437 1 3.06604 10.5947 -8.50194 20
438 1 -7.20919 -12.3678 -5.13985 21
439 1 2.22644 2.2734 17.3897 13
440 1 -0.355104 -15.5152 -9.59204 13
441 1 -2.5905 0.971967 -16.6544 21
442 1 8.15972 -12.4749 4.81482 14
443 1 -6.7847 12.2603 3.02525 16
444 1 4.92805 2.36545 12.7918 17
445 1 2.25286 11.9399 -3.06527 19
446 1 0.054716 8.49769 -0.911974 18
447 1 -10.6195 7.85155 -11.5738 15
448 1 0.438657 2.99398 -7.97664 20
449 1 -1.26859 -7.51538 5.34572 21
450 1 -16.993 -10.3122 2.89848 11
451 1 -1.25877 16.7092 3.01573 10
452 1 -6.10657 0.625337 -12.8089 16
453 1 11.9117 1.6443 -4.27158 19
454 1 3.56821 15.9161 -10.1756 12
455 1 8.73585 -8.03254 2.77203 23
456 1 11.0212 1.49389 2.03693 19
457 1 -3.82457 2.46902 -14.1966 17
458 1 -3.97653 -12.0194 1.244 22
459 1 -4.4833 -15.0342 10.4025 10
460 1 -2.03005 -8.88658 11.2864 14
461 1 -11.2967 3.83474 -8.8144 23
462 1 -12.3418 -11.1456 6.97602 20
463 1 -4.85391 -14.0778 -12.5035 13
464 1 7.03419 11.9223 3.34417 20
465 1 -0.802985 3.68978 -14.7764 18
466 1 -2.22003 -2.22958 15.4678 11
467 1 -17.5369 4.12479 6.46047 11
468 1 -3.66366 -18.2969 -3.82296 13
469 1 -15.7066 -4.63791 0.711227 22
470 1 13.2559 -1.14245 -7.53584 13
471 1 11.9118 -2.0017 -4.95157 20
472 1 -6.90241 5.48987 -6.33055 19
473 1 1.6845 -8.25862 -6.17144 21
474 1 0.374837 2.63986 -11.2946 17
475 1 8.12736 -3.62048 0.604001 19
476 1 -9.523 2.23909 18.1423 11
477 1 9.08228 11.9707 0.747149 15
478 1 -7.19716 2.4431 -16.149 17
479 1 -3.96651 5.64865 -13.7 19
480 1 -9.81968 -3.63867 8.95286 19
481 1 -9.16346 11.8935 -2.32183 15
482 1 -11.5086 -2.79195 -12.8983 16
483 1 -19.1284 -2.27225 4.64256 10
484 1 -2.69004 -11.8264 -10.1462 18
485 1 -10.1753 -9.54915 15.3455 11
486 1 -0.511582 5.55332 -9.16676 19
487 1 10.7926 1.49367 8.52067 19
488 1 8.71176 2.61504 -2.97925 19
489 1 -12.1752 -15.2638 -4.59121 8
490 1 -4.84808 -9.64914 -1.36506 18
491 1 -2.69531 -5.01397 -18.1453 10
492 1 -5.45119 8.67386 7.7669 21
493 1 0.878969 -0.708534 -11.0668 20
494 1 7.08565 -6.73394 -3.46909 17
495 1 -2.57289 14.0202 -6.27503 17
496 1 2.41455 -7.49759 3.6324 18
497 1 11.0672 4.36222 -8.7947 15
498 1 1.49604 10.9697 13.7912 14
499 1 -11.7948 4.04275 9.76728 19
500 1 6.27777 14.1202 4.9925 11
501 1 4.08918 -2.48609 15.718 13
502 1 -5.28401 1.86428 -18.6724 12
503 1 -9.23041 -6.39151 -6.66523 23
504 1 -2.14272 -4.99231 10.6356 20
505 1 8.60425 11.2357 6.5861 17
506 1 3.34122 7.96821 -10.1856 21
507 1 -12.6203 11.419 -3.42518 11
508 1 -3.51515 11.3357 -3.97796 21
509 1 9.34782 -5.45435 11.8392 11
510 1 5.90076 5.1215 -13.0341 11
511 1 9.36419 -6.2808 -6.28906 17
512 1 11.4136 9.10856 8.32015 18
513 1 -15.402 -11.1173 6.06296 12
514 1 -10.5559 10.7349 -10.9972 13
515 1 -4.44556 0.98036 8.6551 22
516 1 -14.4519 -2.89566 14.3917 13
517 1 -7.90794 13.541 -13.462 9
518 1 0.329544 -10.6461 -2.152 17
519 1 2.95231 -2.71291 -10.7209 16
520 1 -4.48071 14.6682 -1.26019 19
521 1 -11.0291 -4.38347 -15.7783 11
522 1 -0.696347 -11.8679 1.15406 23
523 1 -16.0628 -4.54636 -2.33979 21
524 1 1.70786 13.4578 -11.3272 19
525 1 -1.43642 7.25599 16.9343 13
526 1 -12.9316 -3.92543 11.5259 17
527 1 3.31683 8.12042 -6.26903 22
528 1 -5.80562 -11.9833 -9.37906 21
529 1 2.78661 -7.93539 9.79391 18
530 1 -15.5947 6.6252 1.57036 20
531 1 2.14149 4.84653 12.9044 19
532 1 3.05058 18.312 -5.45362 10
533 1 8.3438 -2.74913 -2.3828 19
534 1 -0.909786 10.389 7.48888 20
535 1 0.196988 3.49689 -18.2555 9
536 1 -6.22223 -12.687 11.4742 13
537 1 -2.93727 0.385954 -11.285 18
538 1 2.56563 5.0455 -16.1997 13
539 1 0.26488 13.6366 6.52279 17
540 1 5.39871 10.5004 -10.4469 17
541 1 -5.41028 -6.31861 -16.4986 11
542 1 -6.7404 -11.4571 -1.13305 21
543 1 -11.9598 -4.92943 -10.3886 17
544 1 8.90841 3.25494 0.492106 23
545 1 11.7888 2.14593 -1.1991 23
546 1 8.09404 -10.2629 0.84075 20
547 1 16.741 3.68086 10.3138 5
548 1 4.45095 -14.2233 -5.85537 16
549 1 -5.93919 4.61144 -15.7111 16
550 1 2.27821 11.0638 2.50406 19
551 1 -11.6292 4.53827 1.29075 20
552 1 11.833 7.78818 11.4408 12
553 1 9.08835 7.91951 -6.15646 17
554 1 10.4096 -3.09051 2.55037 17
555 1 5.06543 4.98271 -6.02411 23
556 1 4.37344 0.568697 16.6052 14
557 1 10.7698 4.53438 10.6439 20
558 1 -1.24339 -7.00704 8.88908 23
559 1 10.4472 10.9168 -6.92845 12
560 1 -0.886081 3.54684 12.051 22
561 1 14.8321 1.37402 -6.02508 9
562 1 4.5035 -3.4059 12.0904 19
563 1 -9.97289 0.555222 -8.19961 24
564 1 14.704 2.61227 -0.709211 11
565 1 8.42862 -6.78746 6.17846 20
566 1 -13.5939 3.28149 11.5184 15
567 1 8.72799 11.2408 9.36472 12
568 1 7.06845 -0.887464 16.217 11
569 1 -0.227609 6.04014 7.28223 19
570 1 3.61761 15.1982 7.20509 9
571 1 5.08287 2.91222 5.46098 19
572 1 -2.30563 -17.7432 0.866952 11
573 1 -8.82633 11.3622 -5.50021 17
574 1 6.04639 7.3847 -7.82959 23
575 1 8.5897 0.0605087 -11.8059 21
576 1 1.29324 18.0194 -2.99241 10
577 1 -1.23662 -13.5725 -12.4976 13
578 1 10.4891 -4.79691 -10.5723 12
579 1 -13.8891 1.37836 9.1333 18
580 1 -10.2924 4.86267 -11.7242 20
581 1 -7.49033 -16.8908 4.43284 12
582 1 -7.91887 3.2553 -9.83206 20
583 1 -16.359 1.05758 -1.36632 17
584 1 7.55643 -7.01504 -0.251874 17
585 1 10.0704 7.81209 3.01039 18
586 1 -2.1545 -10.8842 6.5361 20
587 1 -16.1507 -4.30022 -5.99384 18
588 1 2.56539 -1.52726 -17.3962 15
589 1 -4.90179 -0.0758199 15.3808 13
590 1 4.44667 12.6621 -13.6517 8
591 1 9.65703 -2.28035 13.6957 10
592 1 6.21589 7.82411 -4.26654 19
593 1 11.3532 10.4603 1.90053 12
594 1 1.93264 -14.9649 -7.63763 16
595 1 -11.0544 -1.63775 12.9595 21
596 1 11.51 -5.36438 4.21756 12
597 1 -0.603847 16.9757 11.689 5
598 1 4.83813 13.4511 -10.0757 17
599 1 -12.1992 6.65634 -6.29915 18
600 1 11.0903 11.1408 -1.67824 10
601 1 -8.20634 -11.8635 1.412 21
602 1 12.1965 -5.93177 6.83993 15
603 1 3.1173 10.8554 -0.388509 21
604 1 -3.95439 7.44544 15.1223 13
605 1 -14.4491 -7.51459 0.778927 22
606 1 -6.02155 -8.7841 -10.4069 21
607 1 4.0612 0.483541 10.8083 21
608 1 -8.16388 -14.2804 12.0132 14
609 1 5.32225 5.96834 12.8395 19
610 1 -7.96439 9.45541 -3.36798 21
611 1 7.64727 4.73303 6.2726 20
612 1 5.64686 2.92021 2.29893 21
613 1 1.27401 1.08182 -16.2753 19
614 1 -10.1057 -5.05017 11.7362 20
615 1 8.09688 -2.71291 -10.3869 18
616 1 10.2072 -5.99663 -3.34325 19
617 1 3.02092 8.87465 11.9341 19
618 1 -12.5295 -0.835169 15.7014 14
619 1 11.0292 6.87837 5.54398 22
620 1 -4.37198 -4.09696 12.272 18
621 1 -0.757742 4.23408 15.247 21
622 1 -3.96346 -4.97021 -11.124 20
623 1 -9.20491 4.07756 10.2745 24
624 1 5.37425 2.27121 9.45385 20
625 1 -10.1803 -14.679 4.10884 13
626 1 13.0595 5.27297 -1.25175 11
627 1 4.99151 -12.5291 0.941879 19
628 1 5.47518 10.6419 -2.6312 20
629 1 6.40797 8.35016 2.38742 18
630 1 4.28089 1.86065 -16.4233 11
631 1 2.38329 14.474 -4.85144 19
632 1 8.58787 9.15241 -0.860654 16
633 1 -10.0611 -11.2914 -1.90315 20
634 1 -0.363124 -2.46633 -19.5234 9
635 1 -11.4024 10.1664 1.79978 16
636 1 7.31247 -5.32629 -11.8628 14
637 1 8.12439 5.29455 -7.81739 21
638 1 5.06985 13.0904 -5.11518 20
639 1 -12.6328 7.44292 0.31971 23
640 1 3.0764 3.57491 -2.45835 19
641 1 8.62273 1.98287 10.8602 18
642 1 7.09658 -4.1837 13.7512 12
643 1 -4.74257 -10.3751 13.3188 13
644 1 -7.97362 9.84091 -13.3664 14
645 1 3.98287 12.1911 5.44443 16
646 1 8.09218 -4.48703 -14.7518 10
647 1 -1.41812 0.66246 10.6922 24
648 1 5.47706 14.7201 -7.09864 17
649 1 5.6914 6.93824 6.90244 18
650 1 11.9688 -5.12971 -5.4505 19
651 1 4.38925 3.98353 15.263 16
652 1 -12.9383 -5.84423 5.86924 22
653 1 -0.504934 -15.7381 -2.59988 18
654 1 -3.0392 -2.27356 -9.47377 20
655 1 -10.9835 16.1744 2.02298 4
656 1 3.76745 8.53646 0.859836 19
657 1 -18.1033 -4.21279 6.99447 15
658 1 -0.754536 1.73577 19.1901 9
659 1 -6.3874 7.56398 -13.7877 16
660 1 -9.99869 7.25971 -14.4314 12
661 1 3.37656 -14.7633 0.45274 18
662 1 2.84933 14.0297 -7.7273 20
663 1 -16.0498 0.496513 11.2822 13
664 1 2.39838 -1.08221 -14.008 20
665 1 -0.468817 -10.2235 9.53277 17
666 1 -4.60472 14.0238 1.98336 17
667 1 -7.03325 0.636174 16.9994 15
668 1 -9.19157 -8.24315 -9.48238 21
669 1 -4.24614 -8.02933 -12.7855 15
670 1 -9.31127 -10.2355 -5.95987 15
671 1 -1.72719 17.6843 -7.91435 14
672 1 4.21034 -5.0184 -10.6607 19
673 1 -2.76474 8.55718 4.26327 20
674 1 3.86719 -10.7158 -11.2364 17
675 1 8.14555 -13.3648 1.93542 16
676 1 0.998042 -7.80707 6.95465 20
677 1 12.5608 2.9215 -6.58543 15
678 1 1.09626 -10.5914 -8.86024 17
679 1 -15.5017 -3.41998 9.0097 18
680 1 -2.55685 -17.645 -7.97604 10
681 1 -11.5487 -12.2627 1.53372 21
682 1 -15.4204 -2.50675 6.29315 18
683 1 -5.89322 -16.9387 1.43916 16
684 1 13.1942 4.14705 -3.79223 15
685 1 -3.37041 17.6527 0.27308 13
686 1 -13.1678 6.26611 3.41187 19
687 1 7.5367 -2.65909 4.26919 22
688 1 -14.7892 -5.00048 -9.45037 12
689 1 -0.450834 5.65433 -6.10913 22
690 1 5.56059 -0.638453 -9.83166 21
691 1 9.58653 10.1885 12.5687 10
692 1 4.93995 5.63901 -2.76845 20
693 1 -17.6771 -0.94973 -5.56947 13
694 1 -14.2061 -12.9014 -6.27129 10
695 1 -3.01742 3.04172 18.2865 15
696 1 2.82965 5.23718 -11.6339 19
697 1 11.5141 4.66002 1.17335 17
698 1 -4.19023 -1.73781 10.5296 21
699 1 -3.46508 -15.4347 -3.54183 19
700 1 -7.72549 -17.4204 10.9433 6
701 1 -6.84266 -7.59117 8.31969 19
702 1 13.8354 8.14482 6.28509 13
703 1 -1.52738 -7.07364 -11.708 20
704 1 -9.74186 7.10736 -4.92539 18
705 1 9.98918 5.55936 8.1338 17
706 1 -15.4996 -2.00942 2.6666 19
707 1 5.57632 5.14261 -9.68007 20
708 1 -1.33679 -15.6875 -5.64164 21
709 1 -0.348897 -18.7427 -1.58635 13
710 1 2.93474 -17.2483 -5.12944 10
711 1 6.04353 3.24373 -7.81243 18
712 1 8.72864 13.2798 -2.53745 11
713 1 -7.95787 -0.32452 -18.0441 12
714 1 -1.32942 0.683836 16.0129 18
715 1 -3.04908 4.89918 -16.3445 15
716 1 -12.4723 -0.73367 -14.5908 11
717 1 -14.6278 -7.66956 -2.30204 17
718 1 -2.24444 16.0619 -4.13631 18
719 1 -5.27134 -0.59252 -16.4914 16
720 1 -10.1523 -6.62383 0.309515 20
721 1 11.3775 6.26978 -5.9385 13
722 1 5.98678 -7.63536 4.08774 17
723 1 -10.0433 6.87241 15.326 7
724 1 4.29824 -9.16478 1.85161 18
725 1 11.105 -5.5482 0.600988 15
726 1 12.2282 -4.07715 10.5796 9
727 1 -3.52012 11.0705 6.05195 21
728 1 -13.2871 2.55275 14.855 15
729 1 -11.8476 4.79627 13.2113 15
730 1 -2.97022 -11.9057 11.3393 12
731 1 7.20916 0.27365 2.2484 17
732 1 5.99681 12.8803 7.56011 16
733 1 -19.0743 -4.30045 -0.775499 14
734 1 4.699 -8.01498 -0.623206 14
735 1 -17.1463 8.5887 -4.32773 9
736 1 -0.593948 -14.3765 6.83889 11
737 1 6.55135 -0.915135 12.4643 20
738 1 0.591735 12.9293 3.14815 19
739 1 -2.19374 -9.42982 0.681239 21
740 1 -13.572 -4.43624 -3.90151 21
741 1 -5.06066 0.662726 11.7905 17
742 1 -16.1906 -9.95608 -0.0909333 15
743 1 -0.960035 9.8132 15.4103 11
744 1 -1.09671 11.3693 4.59097 22
745 1 -12.1226 -8.94873 4.87512 18
746 1 -9.5105 -13.1667 6.35755 18
747 1 5.89014 -8.98777 8.15888 14
748 1 13.2953 -9.22991 7.46348 7
749 1 4.90583 9.86966 8.71181 21
750 1 -3.2547 -6.10579 -14.4312 17
751 1 -4.77423 7.413 -16.9534 13
752 1 -10.0229 -1.21738 9.84582 20
753 1 -6.95237 11.4396 7.40918 13
754 1 13.1137 -0.17695 6.52925 13
755 1 1.18147 8.39197 -7.53348 19
756 1 -4.87598 5.93377 17.276 9
757 1 9.12514 7.31547 9.92865 21
758 1 8.2384 -1.25535 -14.384 14
759 1 -13.2828 -14.415 2.03129 10
760 1 9.684 -0.632216 6.64613 21
761 1 3.5582 0.47634 -11.5719 20
762 1 0.0439182 4.55724 18.706 10
763 1 9.11511 -11.0935 -6.60995 11
764 1 0.633969 9.74632 -14.3229 17
765 1 -6.3189 -7.39753 -4.92494 19
766 1 8.51737 5.99512 -10.3749 15
767 1 14.9593 -2.79791 0.141183 7
768 1 -4.49414 -7.13491 13.6475 14
769 1 -3.97096 -10.6739 -7.29195 19
770 1 6.35426 15.6546 -2.05065 9
771 1 -15.4097 2.62117 4.90421 21
772 1 7.87948 5.20913 -4.79651 22
773 1 13.4919 4.64721 5.54397 14
774 1 -1.08065 -4.819 -14.3755 17
775 1 -8.90408 12.0903 5.43522 12
776 1 12.8567 7.40156 3.40248 14
777 1 8.98326 13.4844 -5.99634 11
778 1 2.61264 2.48949 -13.5664 20
779 1 4.67092 -5.76613 -2.81461 18
780 1 -14.699 3.82286 2.36408 20
781 1 10.5483 2.97316 5.81219 19
782 1 -14.2626 -10.8395 2.64633 18
783 1 -15.0973 10.933 -5.15134 9
784 1 5.52245 7.46872 10.3273 16
785 1 -15.0126 -1.15806 -7.0852 16
786 1 -14.8603 3.70441 8.06858 15
787 1 -5.18092 2.94548 -7.67311 23
788 1 7.57065 -4.76785 -8.98614 16
789 1 -10.6336 -13.0332 -6.23712 19
790 1 9.84779 -9.00597 -0.76466 19
791 1 -17.5133 4.23566 3.12398 18
792 1 -14.614 -7.17714 -6.65407 14
793 1 14.1184 5.32868 12.0479 10
794 1 -10.0532 -6.6364 7.0779 20
795 1 9.73676 0.744884 15.4957 8
796 1 9.85282 -1.51725 9.27531 16
797 1 4.83733 -2.47721 5.61462 23
798 1 -13.4116 1.07405 -0.401414 18
799 1 -2.72273 7.65528 7.54769 18
800 1 0.964897 6.85588 -13.3518 18
801 1 -3.26645 -2.64472 -15.2738 12
802 1 -4.5212 16.8517 5.04553 11
803 1 -13.2872 -13.4776 10.9149 9
804 1 0.224197 15.4735 -7.03146 18
805 1 -0.485919 6.90118 13.9706 21
806 1 11.2074 -8.6701 -5.02802 13
807 1 8.66846 -5.39831 8.97269 17
808 1 -6.70702 14.9235 -10.8393 13
809 1 0.931878 8.32376 -10.4072 18
810 1 -9.76491 -1.33545 6.5888 23
811 1 13.1524 3.16871 7.91487 17
812 1 -5.93044 -1.70185 -11.301 19
813 1 9.97039 6.68052 -0.00988811 16
814 1 -17.16 3.94942 0.239981 15
815 1 -5.67724 -15.5713 7.25176 13
816 1 0.603588 12.0366 -8.83054 19
817 1 1.76349 -2.32382 10.6579 20
818 1 -1.22492 -13.2043 -7.97665 20
819 1 -6.19923 16.5589 0.17932 14
820 1 -14.0883 4.8781 -0.832323 18
821 1 7.84937 -1.49825 -7.46194 16
822 1 -4.31452 -10.9559 -12.2454 15
823 1 -10.0388 6.34731 4.9828 20
824 1 7.4427 11.9629 -8.09046 17
825 1 -12.8582 -2.54373 4.32267 20
826 1 5.25047 -2.35951 -19.1153 5
827 1 -8.69233 -11.6125 -8.49801 17
828 1 -3.97236 -12.8421 -5.69024 18
829 1 -3.98045 7.9357 11.8369 20
830 1 5.99014 -10.7784 3.36096 21
831 1 -1.66968 13.5707 -9.46921 22
832 1 10.5111 0.277617 -6.72973 20
833 1 7.65507 5.48722 2.29846 20
834 1 1.90256 -18.9028 -3.58925 8
835 1 5.35254 -2.52022 -15.7421 16
836 1 9.88086 -1.06566 0.78064 17
837 1 -4.23983 13.265 -11.3421 19
838 1 -7.32353 -9.91179 10.2772 16
839 1 2.39304 5.79295 -4.44601 18
840 1 2.51809 0.57806 -8.11167 19
841 1 -15.454 2.51151 -4.35853 15
842 1 -13.359 0.279493 12.6053 18
843 1 2.21657 8.4623 16.0441 13
844 1 -7.61627 -10.8232 13.5966 19
845 1 4.0037 4.90705 8.23048 18
846 1 -6.17278 -14.6159 3.06672 18
847 1 0.401177 9.15871 -4.21616 21
848 1 -4.16186 10.7538 12.7481 11
849 1 -6.07828 3.26525 12.0142 20
850 1 -7.24368 6.28875 6.84574 21
851 1 5.98929 3.26215 -0.986699 20
852 1 -6.84985 -8.38012 15.2771 12
853 1 4.70861 -12.0782 6.23472 17
854 1 6.9664 4.98342 9.69869 22
855 1 6.37256 -5.92676 -6.32638 16
856 1 3.88593 -13.0212 -8.9134 15
857 1 -9.932 3.73144 -14.6032 17
858 1 -3.28917 -0.621914 -19.3007 11
859 1 5.34846 9.62847 6.09325 20
860 1 -15.5977 -7.1087 10.6038 12
861 1 -7.95371 8.47263 -6.98601 17
862 1 -17.7797 4.96264 -3.07378 11
863 1 7.93846 10.7615 -4.75237 20
864 1 -8.9421 -14.9339 1.94126 16
865 1 -4.16547 6.31895 5.43459 23
866 1 11.1923 9.68869 5.07969 19
867 1 -8.18327 -15.4625 -4.55158 14
868 1 1.30501 14.8293 9.676 13
869 1 -10.5489 1.25159 12.3334 24
870 1 -6.22916 -16.8108 -2.43645 16
871 1 13.0337 -0.359511 9.82966 12