ITEM: TIMESTEP
7000
ITEM: NUMBER OF ATOMS
2000
ITEM: BOX BOUNDS pp pp pp
-30.0 30.0
-30.0 30.0
-30.0 30.0
ITEM: ATOMS id type x y z Coordination
1 1 -11.6227 2.78068 -15.074 10
2 1 -0.26712 -13.0364 -10.0384 18
3 1 8.02144 13.3174 10.7806 13
4 1 4.38636 -6.66827 9.7028 11
5 1 -12.2778 6.43813 -1.09329 14
6 1 11.2496 -8.274 -10.8596 14
7 1 -11.7032 6.06074 -8.52442 17
8 1 0.0398894 -9.53958 2.48048 15
9 1 -8.20957 -2.24892 -11.2973 19
10 1 -14.1082 -9.13971 6.16178 14
11 1 10.9961 2.31646 -7.02603 22
12 1 -4.28411 -12.803 -1.44177 19
13 1 -10.5384 -6.77508 3.84915 20
14 1 1.45458 4.32447 15.2202 20
15 1 9.47447 1.04358 4.48116 22
16 1 0.588438 6.06555 8.95208 19
17 1 8.60144 -1.78156 -0.179057 16
18 1 -5.32127 9.8485 -12.485 16
19 1 1.27842 -1.06188 8.90648 18
20 1 -5.11833 0.378081 -16.1743 16
21 1 -11.4027 1.50932 12.6766 15
22 1 10.1732 5.11174 12.0531 20
23 1 -1.7915 6.21207 -14.7996 16
24 1 2.35377 8.3724 -11.4836 20
25 1 11.7145 1.56846 12.2745 21
26 1 -9.93403 0.493318 -0.689833 19
27 1 -9.64926 8.52624 -9.32164 18
28 1 -3.08462 0.983566 -9.77029 19
29 1 -7.58823 9.94774 4.83957 17
30 1 7.50815 -12.7315 4.4999 10
31 1 3.81805 -1.08483 6.72248 24
32 1 2.80399 -14.2425 -11.1608 10
33 1 12.0499 -9.91602 0.166623 11
34 1 -8.6522 -13.7878 -5.84479 13
35 1 -10.4097 -6.74802 9.96965 19
36 1 4.20765 -6.06731 -15.5133 17
37 1 9.53396 -8.7986 -13.2193 13
38 1 -8.41238 1.15091 -15.9934 12
39 1 -1.1741 6.26643 14.0332 21
40 1 1.59555 -11.0412 6.45746 12
41 1 2.61922 -3.9245 11.4678 13
42 1 -10.9603 -1.4241 1.11468 21
43 1 -14.9322 -2.78988 7.85614 12
44 1 -6.57267 2.15031 -2.20857 20
45 1 -6.59476 13.2421 -1.59224 20
46 1 0.482042 -10.3184 -11.9821 15
47 1 2.95392 3.05655 -9.73804 23
48 1 4.53702 -6.94578 -6.25528 18
49 1 -3.44727 -1.68568 10.923 14
50 1 -10.8379 12.4096 3.6016 10
51 1 2.0106 13.7674 -12.4698 13
52 1 4.79367 16.3353 6.77306 18
53 1 -11.7902 11.8679 -5.112 16
54 1 6.99079 14.0794 2.54432 16
55 1 3.24622 -13.1296 -0.280712 20
56 1 7.24114 -8.53352 -7.1089 18
57 1 9.27527 -6.92316 -16.5603 8
58 1 -11.9984 6.65738 8.30458 19
59 1 -12.5094 0.793379 -4.79752 21
60 1 7.67009 3.2944 7.00699 22
61 1 -4.49575 8.82481 -4.53998 22
62 1 -4.37221 -11.5747 6.50163 17
63 1 -2.06834 12.0405 8.07112 20
64 1 -11.9235 8.79611 -6.6239 16
65 1 -1.47207 8.72204 12.4411 16
66 1 3.96182 6.32897 -3.74476 21
67 1 -2.35596 -14.8158 6.56697 15
68 1 6.9593 8.14531 8.05485 20
69 1 9.94011 -10.4892 -5.20899 17
70 1 1.40193 14.8777 11.5058 11
71 1 -8.51199 2.27121 -12.2264 20
72 1 -11.0571 8.17957 -12.3611 15
73 1 4.95764 11.0249 14.9657 16
74 1 16.4583 -5.06621 -10.0611 12
75 1 10.1558 -11.9899 -0.638303 9
76 1 -14.0928 0.125957 6.49766 13
77 1 -6.32726 0.221106 0.496282 21
78 1 8.9343 18.637 5.14663 10
79 1 4.24035 -1.30065 16.1381 9
80 1 -4.26902 -13.8861 8.23555 10
81 1 -8.15754 -0.551114 -2.78775 20
82 1 13.8421 1.35683 8.84725 19
83 1 9.37651 -0.482375 -2.00398 19
84 1 -0.246682 11.6568 10.8427 18
85 1 1.05262 -2.10346 5.9544 19
86 1 -6.63412 -4.71991 -0.38325 19
87 1 -3.37662 -5.20711 -10.1675 15
88 1 -10.0901 6.68869 5.07914 19
89 1 -4.04893 8.74144 2.10458 19
90 1 -1.71583 8.13162 -11.9541 21
91 1 5.38399 -0.229613 -6.48247 22
92 1 10.7842 4.80319 -8.27841 20
93 1 5.21522 -6.73132 -2.21014 19
94 1 4.06573 -9.24113 7.11567 15
95 1 -6.89593 17.5232 -4.98445 9
96 1 -8.5474 13.9852 4.19105 11
97 1 -6.16814 -4.63894 13.4881 12
98 1 -2.20999 13.9592 3.63718 18
99 1 -7.93701 -6.60987 12.0875 16
100 1 12.9397 -3.74504 -8.95258 19
101 1 -10.7095 1.87392 1.89674 17
102 1 -9.12211 -15.0887 1.63616 10
103 1 9.83129 -4.12268 -7.85277 18
104 1 5.1627 2.11567 -12.0242 18
105 1 -6.42053 -6.44805 -15.1932 14
106 1 -1.48671 15.4227 1.28952 18
107 1 -6.60945 8.95847 -7.32954 21
108 1 0.364577 12.509 16.0056 10
109 1 -2.85372 12.2007 -10.8872 19
110 1 -11.2968 12.417 -1.74957 15
111 1 8.3072 8.67887 2.07266 18
112 1 -0.804825 -3.00498 12.9967 9
113 1 16.1232 -0.892354 7.7528 13
114 1 1.41473 -3.09271 -7.07004 21
115 1 3.11831 -7.26967 -12.6929 20
116 1 -0.556625 4.84281 5.9039 24
117 1 7.65658 -0.332082 10.0444 23
118 1 -9.42544 -4.11862 -3.02848 21
119 1 6.81237 -6.15457 0.362996 21
120 1 -11.7957 -9.24816 -3.60788 14
121 1 8.4529 -7.39499 2.75538 18
122 1 -7.29004 5.46627 5.92169 18
123 1 5.1823 5.80811 -16.5584 12
124 1 3.37936 15.0059 -1.45961 18
125 1 -10.6061 -8.63226 11.6507 15
126 1 -10.2615 -12.1941 7.9467 14
127 1 6.45117 -4.30422 -16.663 11
128 1 3.59398 7.69474 -6.2726 21
129 1 13.7906 -7.84083 -2.10915 11
130 1 2.35854 -16.9396 3.88117 11
131 1 -13.6603 -7.32536 -2.20166 11
132 1 14.7953 2.18762 11.7718 13
133 1 16.4061 -2.04778 -11.7717 8
134 1 -13.2091 -3.85405 2.39943 16
135 1 11.9401 9.17966 7.0068 19
136 1 15.3683 8.17008 5.69661 10
137 1 -7.08544 7.0076 16.4547 8
138 1 10.511 8.14921 -0.226215 21
139 1 -4.49687 7.75446 11.5898 18
140 1 -2.74998 10.4113 -7.13907 22
141 1 -0.827547 -11.489 -7.17847 21
142 1 10.8367 -11.4957 -11.26 6
143 1 -0.0487528 10.3834 -10.8405 15
144 1 7.96295 -3.42645 12.2212 11
145 1 0.216297 -2.00189 -17.5155 15
146 1 -1.15797 9.12871 -4.93317 19
147 1 14.859 -1.42828 -8.92851 18
148 1 -10.7846 13.9405 -7.63949 8
149 1 -8.70547 14.9586 -2.43862 15
150 1 7.88763 0.199836 -11.3097 21
151 1 11.2013 -7.11674 2.91196 14
152 1 -4.72352 -0.859513 -11.8032 20
153 1 -4.65756 12.1294 8.17075 13
154 1 16.1419 11.3305 -2.26829 12
155 1 3.58981 8.25545 -1.38675 19
156 1 -5.46543 16.5768 -2.3827 16
157 1 4.89349 11.2416 -1.94897 16
158 1 -6.11205 11.3742 -5.62125 18
159 1 3.31664 14.1774 -8.71138 17
160 1 -0.678238 8.05845 -17.8462 11
161 1 -5.76702 -7.93768 0.42593 20
162 1 -14.3803 12.1449 -3.08284 8
163 1 -2.5993 -2.8267 -12.1702 21
164 1 -1.41452 -7.63391 -16.2179 13
165 1 10.6601 8.38538 9.20254 19
166 1 0.788014 15.5023 3.74749 17
167 1 -13.2944 -1.75292 -7.64155 21
168 1 -9.64029 13.7787 0.669223 11
169 1 14.0478 -0.198864 -4.09605 18
170 1 -11.9302 2.62826 -11.7536 18
171 1 9.78356 4.18521 14.8385 16
172 1 6.15188 20.2953 3.04227 8
173 1 4.38193 14.1716 3.57782 21
174 1 2.04472 -7.72353 -16.8647 14
175 1 -1.83532 10.9567 5.27516 20
176 1 -5.33672 14.5484 -13.7137 8
177 1 1.10941 -2.12561 14.4613 10
178 1 -8.05657 -6.54651 1.82916 19
179 1 -1.47118 -10.7629 -14.6212 17
180 1 -9.45583 16.5452 -4.53038 10
181 1 -1.17468 -11.8984 6.60466 16
182 1 5.57284 -15.5492 -4.12199 12
183 1 -2.60623 13.074 -15.6512 10
184 1 -15.9267 -0.0105869 8.69175 9
185 1 0.184204 8.03445 -2.08367 18
186 1 9.24194 8.03456 -3.16804 20
187 1 -5.63798 10.4423 13.9436 10
188 1 -0.297855 -9.68442 8.70823 9
189 1 -9.01583 3.60992 -1.38661 18
190 1 -1.42356 20.4318 3.01159 8
191 1 -3.03744 9.38278 9.43022 19
192 1 12.7707 3.0282 14.5467 11
193 1 -4.07137 15.4183 2.27117 18
194 1 12.447 -2.77103 -4.62649 19
195 1 -6.5908 9.34578 10.4091 11
196 1 -3.1208 3.34431 -7.28406 20
197 1 13.4502 -6.84503 0.974569 15
198 1 -3.33277 -4.68794 9.13235 17
199 1 -12.827 -0.953914 3.88605 16
200 1 -11.2711 -9.48022 4.09537 20
201 1 6.1326 10.1564 17.9192 6
202 1 -13.5266 3.46812 -7.07495 19
203 1 -4.70658 -17.2969 -3.06709 12
204 1 7.10165 -9.81585 -2.69872 24
205 1 0.922628 12.7827 8.01084 19
206 1 -9.27185 5.1783 1.4891 21
207 1 8.64014 13.6557 7.65572 17
208 1 -6.4419 0.409223 -4.90313 21
209 1 -8.97187 13.4686 -10.0848 13
210 1 -12.9463 -4.09901 -10.0721 13
211 1 -7.79936 -5.89457 8.67217 19
212 1 -3.90558 -9.05669 3.76051 17
213 1 4.58675 -15.1321 4.4529 10
214 1 -10.929 10.4774 1.02604 13
215 1 17.7267 3.14389 3.11335 11
216 1 7.27716 2.51598 -6.46956 26
217 1 -5.83585 -8.53528 -12.6652 13
218 1 5.32813 1.57302 12.2612 17
219 1 5.68451 -14.7277 -1.25939 16
220 1 -6.95551 5.21503 -17.1405 12
221 1 1.07567 -6.0879 -14.1745 21
222 1 10.5169 1.0326 -10.9109 18
223 1 5.02627 8.50733 -17.8045 8
224 1 -9.0462 -4.73989 -6.55195 23
225 1 -4.48325 16.8116 -7.56199 11
226 1 -9.09831 -12.061 10.8059 11
227 1 4.52614 15.1354 -4.37431 15
228 1 -9.6067 -0.694649 11.8354 15
229 1 -0.650442 13.2218 -5.47212 21
230 1 8.89398 0.0634035 7.6269 19
231 1 -1.32513 -9.64881 -9.51837 18
232 1 -4.53782 11.018 -9.42159 20
233 1 0.538262 8.25038 -13.8643 22
234 1 -10.7993 -14.1083 5.16744 10
235 1 -6.33648 0.955974 9.19793 21
236 1 -9.69358 8.26064 9.45801 13
237 1 -1.19793 -7.54077 -6.65406 17
238 1 -6.6589 -20.5474 1.71588 4
239 1 7.91206 -7.44094 -9.3925 16
240 1 3.37818 -5.06741 -4.1945 20
241 1 7.45447 5.5498 13.219 19
242 1 7.24083 7.988 -5.85757 22
243 1 1.61001 19.8025 2.71163 12
244 1 -9.3796 -3.64608 2.66925 18
245 1 -9.9811 7.76259 -0.667316 20
246 1 3.38248 7.59898 9.00574 19
247 1 2.97313 -15.643 -3.56397 19
248 1 13.9664 3.73128 -1.91905 18
249 1 2.81299 4.75058 6.78822 20
250 1 -11.9694 6.52856 2.4602 20
251 1 -14.2285 -4.45978 -4.98598 15
252 1 7.61062 6.54037 -15.8623 10
253 1 4.77175 -0.614763 9.76932 21
254 1 7.20693 10.7323 -10.6135 15
255 1 2.21266 -11.6035 -5.33128 20
256 1 -1.57176 0.444662 -12.506 20
257 1 0.721438 -17.3986 0.974894 15
258 1 10.0853 0.0920772 -5.33894 22
259 1 -7.40423 2.62354 1.29258 20
260 1 -1.43586 -18.4315 -3.66185 14
261 1 -14.3313 -5.74348 -8.04132 9
262 1 5.87433 11.2577 -5.42935 19
263 1 3.06129 -4.18383 -17.8456 12
264 1 3.64844 5.23361 18.3647 10
265 1 14.8125 3.8447 2.55906 16
266 1 -7.36176 -10.9746 0.115497 23
267 1 13.9649 -4.90978 -12.1311 13
268 1 -2.01406 -11.6668 1.37483 18
269 1 -8.65949 -4.5514 -9.52779 22
270 1 -5.58159 2.93508 -14.5964 20
271 1 -6.97732 -11.2455 8.58792 17
272 1 9.94165 -2.86627 9.30706 17
273 1 6.75968 -2.33837 4.50613 18
274 1 -9.31821 -8.00283 -11.3463 10
275 1 1.60079 -6.43307 3.49 16
276 1 2.55084 10.8856 -14.0831 21
277 1 3.32138 11.983 0.409421 19
278 1 -5.45625 0.47968 3.14773 18
279 1 7.7153 17.21 2.76089 14
280 1 -6.59031 -2.04379 4.80192 17
281 1 -11.1511 -6.29369 -8.86679 14
282 1 -6.37063 -7.15753 -10.2411 19
283 1 -3.21739 10.2146 -17.2501 11
284 1 -3.51438 -9.97571 -5.89827 19
285 1 -4.68983 -10.8167 1.26546 22
286 1 11.9101 -3.28146 -13.8313 10
287 1 16.984 3.9437 -2.84816 16
288 1 13.4666 3.5631 5.88167 21
289 1 -3.35277 -5.22794 -4.64232 22
290 1 -7.96438 -7.22946 5.15261 18
291 1 -4.016 -9.67317 -1.17238 18
292 1 4.73043 1.95416 17.1667 11
293 1 -6.73476 -16.6791 2.93192 14
294 1 -1.74541 -12.581 -1.23702 17
295 1 4.9676 17.0984 3.5532 16
296 1 7.32188 2.8122 -16.0832 10
297 1 -5.63314 -4.11721 -10.8165 20
298 1 -13.7691 -6.99847 11.3067 12
299 1 1.18843 7.70396 19.9581 8
300 1 1.42924 -12.5251 -2.95638 20
301 1 -4.78025 -11.3096 -13.7463 12
302 1 -9.69638 5.33645 -11.0552 18
303 1 5.89473 5.56609 6.92875 20
304 1 -4.89224 2.73213 -11.6685 19
305 1 0.706258 6.1256 -9.69721 18
306 1 -5.10115 -5.67519 4.26213 16
307 1 7.8052 -12.8192 -10.4913 11
308 1 -3.62929 15.6919 -5.16449 15
309 1 2.49196 9.06248 3.08912 17
310 1 16.0974 5.23692 5.43432 14
311 1 -9.87278 -1.95546 5.02591 17
312 1 -6.95333 -1.76063 14.7288 12
313 1 -5.57413 16.0582 4.81543 10
314 1 2.39134 -5.39362 -9.56419 19
315 1 14.1219 13.9707 -0.682256 10
316 1 8.47682 -8.92002 -0.422044 22
317 1 -2.42433 2.69246 14.8513 19
318 1 -10.2173 -3.61392 10.3091 21
319 1 2.22107 -19.0393 -4.10778 10
320 1 -12.292 6.52506 15.2965 7
321 1 -12.8163 9.4263 13.4601 4
322 1 -14.8391 -1.52087 11.223 8
323 1 -12.7785 -8.32248 8.81049 19
324 1 17.7193 2.62296 -5.00389 9
325 1 -15.8808 -9.18803 9.8161 9
326 1 7.81741 -3.40127 -10.3108 18
327 1 13.6345 -8.89472 -7.86827 7
328 1 0.768268 16.0957 -1.36741 16
329 1 -4.38403 10.6862 -2.23576 22
330 1 8.27304 7.9084 10.7958 20
331 1 -4.17044 -3.01218 3.11155 16
332 1 4.92022 -12.7627 -3.57869 19
333 1 -5.96582 10.9616 0.859585 19
334 1 -5.98355 7.78903 4.48498 20
335 1 7.34213 -10.5838 5.99706 12
336 1 15.9123 -4.78844 1.48426 14
337 1 -0.0918121 9.60845 7.81654 18
338 1 -6.70104 -2.28617 -8.17916 19
339 1 -3.78393 8.01663 15.5765 16
340 1 -1.83655 17.3335 4.00711 15
341 1 8.34859 9.79786 15.717 12
342 1 -6.33677 14.5238 -4.9043 21
343 1 -1.55152 -3.77054 -14.6489 21
344 1 -7.52059 3.11985 -7.30445 21
345 1 7.00128 -7.67726 -14.1453 15
346 1 -6.11424 3.49996 14.4921 17
347 1 -13.875 -1.32924 0.336095 15
348 1 -4.1176 -1.75478 -9.07139 21
349 1 -3.03486 7.957 -2.67354 22
350 1 6.68126 0.211163 6.47295 21
351 1 -12.1378 -11.4361 2.14889 13
352 1 5.52454 -7.81693 5.45429 17
353 1 -15.7967 -12.0202 11.9263 6
354 1 -14.858 7.86374 3.34559 11
355 1 -4.13036 -0.307998 6.30456 24
356 1 2.71806 -11.2471 -8.11351 15
357 1 -6.89108 0.64264 -10.3374 23
358 1 5.55134 -1.6471 -11.8879 24
359 1 3.60002 19.4126 5.02869 11
360 1 -9.71095 1.22532 -4.59418 22
361 1 5.81737 -10.3325 -9.29156 16
362 1 9.00291 3.20907 -12.6823 16
363 1 -2.62428 -13.761 -6.67858 18
364 1 -11.9443 -6.37076 -5.77751 16
365 1 -7.23905 -12.948 -2.48425 21
366 1 10.7073 -0.0336998 14.7722 13
367 1 10.7995 2.64998 -0.401695 22
368 1 -10.0245 0.149661 -10.2843 23
369 1 3.6777 18.5119 -0.245406 11
370 1 -15.4856 -3.33688 -7.40939 10
371 1 -5.00525 10.5657 5.80451 18
372 1 -7.96424 10.6244 -1.6419 22
373 1 -4.61976 7.41918 7.86797 22
374 1 6.58719 7.12068 16.611 12
375 1 16.6847 -0.254446 -6.58815 13
376 1 13.1823 -2.4925 12.0156 9
377 1 16.0438 1.94056 -8.35337 12
378 1 -6.45648 -15.0344 -4.76927 14
379 1 -3.17547 6.53019 0.395081 20
380 1 1.79457 -8.12823 -3.85549 21
381 1 -0.979068 8.90412 2.38449 22
382 1 -11.7064 3.52891 -3.98303 20
383 1 3.56572 -14.0065 -6.373 15
384 1 12.1107 -1.45764 4.18123 20
385 1 -11.5235 -1.45399 -2.41476 17
386 1 -7.18408 -9.02719 3.23475 19
387 1 -10.8972 -5.53602 13.3679 12
388 1 -3.73579 12.8252 0.140292 18
389 1 -11.0192 -6.14165 -3.2799 18
390 1 11.7646 9.55703 15.1968 8
391 1 -10.4489 6.36356 -3.97805 18
392 1 -0.310744 11.0876 -16.0524 15
393 1 9.95778 16.0 5.94105 13
394 1 -11.6512 -2.69087 -4.68262 20
395 1 -0.157566 -14.0709 -4.7156 23
396 1 -8.70552 -3.25187 13.2524 15
397 1 -13.6512 8.80778 -1.6547 9
398 1 3.34702 -9.13602 3.931 20
399 1 -3.61847 -12.3051 -4.24757 21
400 1 8.58768 10.8754 9.48695 20
401 1 5.61584 10.6435 -15.8197 12
402 1 -10.9601 9.57749 -15.7925 10
403 1 0.267364 14.5502 -10.0099 10
404 1 -6.3576 6.21728 -5.78736 20
405 1 -3.27768 -12.8268 4.03419 21
406 1 12.6615 7.54862 2.52092 17
407 1 -5.26428 7.99602 -15.7003 17
408 1 -0.474363 2.84164 8.80482 18
409 1 -15.8945 3.24142 -0.557349 11
410 1 -6.5572 5.07173 3.03738 19
411 1 -5.52158 -13.7622 1.60696 21
412 1 1.88966 -6.04936 -6.66359 20
413 1 9.30345 -3.94224 -15.6383 11
414 1 -2.48832 2.25078 6.10897 23
415 1 -14.7872 2.92323 -4.1217 16
416 1 -8.0204 0.843507 14.2102 15
417 1 -13.2636 10.5455 4.83944 11
418 1 -5.47445 -3.95206 6.85638 19
419 1 -7.34515 5.66986 -14.0614 17
420 1 11.3219 -6.00527 -9.47498 16
421 1 1.1241 -12.4849 -14.0179 11
422 1 -6.38187 -3.95102 10.2399 21
423 1 4.91257 -9.79872 -4.86835 16
424 1 -5.76435 11.9922 -15.3585 13
425 1 5.20049 -13.3952 1.95638 15
426 1 0.857937 10.4643 -5.51482 20
427 1 -9.61284 9.02253 2.9914 15
428 1 -7.04869 -1.32544 11.4517 23
429 1 -12.301 -2.72108 -13.8436 9
430 1 -11.8827 -7.22696 6.72658 20
431 1 7.96388 -5.03817 5.91363 19
432 1 9.02804 5.54179 -0.737959 20
433 1 4.8186 0.505691 -9.18362 21
434 1 6.93422 -7.39548 8.07531 13
435 1 11.9279 9.93909 -9.8529 8
436 1 -5.01577 1.11923 12.7247 20
437 1 1.22293 15.6638 -4.27796 14
438 1 8.38833 -4.09896 2.44681 17
439 1 -6.64773 -9.29415 -6.73394 14
440 1 -1.50794 8.8361 17.4587 11
441 1 -3.83989 15.3669 7.92187 10
442 1 -10.3385 -11.3133 -6.16849 12
443 1 8.69876 16.1121 -0.361845 14
444 1 9.75759 11.3882 6.7765 16
445 1 -8.64746 -0.297342 3.13888 20
446 1 -6.83994 -11.7012 -5.07934 20
447 1 -15.6234 7.30979 7.94311 7
448 1 -9.2117 -8.08644 -4.63937 20
449 1 -10.4246 9.39184 6.50076 19
450 1 -6.24564 -13.7399 -7.80257 12
451 1 1.21725 -8.81186 -7.70561 18
452 1 -6.01292 -11.8437 3.83759 19
453 1 -5.72297 2.50905 5.80099 20
454 1 12.3239 -1.79504 8.06028 19
455 1 -4.94623 0.709692 15.3158 13
456 1 -4.5517 8.08406 -9.95794 21
457 1 13.0398 5.16019 -0.0935799 19
458 1 -9.61397 -12.3977 2.86899 17
459 1 2.08043 5.59298 -6.96182 23
460 1 -0.247621 17.9197 1.08532 19
461 1 -1.37852 5.38924 -7.14208 20
462 1 -0.959009 13.5305 13.1505 14
463 1 -14.6148 -1.45608 -4.2986 19
464 1 0.739094 18.5524 -4.13754 6
465 1 9.18571 10.5125 -7.19098 17
466 1 -6.52322 -6.6282 -6.96507 21
467 1 4.71422 5.12829 15.6655 15
468 1 1.05243 -14.1424 -7.96862 17
469 1 -0.260292 -5.32517 -8.92778 21
470 1 6.43974 -10.9944 -0.209605 20
471 1 -11.1724 9.17477 -3.29743 19
472 1 4.88581 6.71132 11.345 18
473 1 11.0054 5.31318 -2.81713 24
474 1 2.00401 12.7716 -3.20036 21
475 1 -7.64436 7.75339 -11.9146 17
476 1 4.04489 2.58767 -6.66238 24
477 1 1.68934 -8.27925 0.526688 20
478 1 -12.5752 -3.72625 5.86814 14
479 1 -0.0023849 19.0786 5.71392 11
480 1 2.1524 9.56983 -16.7107 17
481 1 17.2026 8.83262 0.197663 12
482 1 5.44851 16.1298 -7.49832 10
483 1 7.03435 -3.73249 -1.87694 20
484 1 16.6824 3.43128 -0.16975 16
485 1 1.65791 2.13965 -12.512 20
486 1 3.42585 -9.88505 -1.66253 20
487 1 -0.455745 -12.9341 3.88006 21
488 1 -0.17205 -3.35888 9.23012 16
489 1 -9.90878 2.53265 -9.41646 18
490 1 -13.8378 -12.0353 4.49163 7
491 1 0.531361 -7.83239 -10.821 18
492 1 10.9511 15.9303 3.16172 12
493 1 3.88067 7.51752 -14.1692 20
494 1 2.85632 1.24723 14.7694 18
495 1 -12.6991 -0.943725 10.3802 18
496 1 -1.69868 -17.864 -0.826092 17
497 1 -10.5449 -4.34008 -0.373211 22
498 1 16.1549 -5.73491 -7.48052 11
499 1 12.0018 -0.832439 -1.009 18
500 1 -3.74926 7.69247 -7.15939 20
501 1 -1.66231 -7.89344 -3.75067 19
502 1 3.69662 5.06959 -12.1955 18
503 1 13.12 -0.488591 -6.74892 19
504 1 -3.87257 5.70746 17.7624 12
505 1 6.89932 18.8284 0.439095 10
506 1 1.22789 -3.27847 -15.0101 24
507 1 0.0742927 3.47357 -14.8165 16
508 1 -5.3631 -1.49617 8.57245 21
509 1 -5.541 7.78139 -0.867363 20
510 1 -7.39951 -2.09603 -17.5866 8
511 1 -16.8004 0.62901 -3.49266 9
512 1 -3.16515 -9.04245 -12.1292 18
513 1 -7.54011 -9.01815 10.6279 14
514 1 0.675786 8.44243 -7.37232 19
515 1 15.0466 -0.64717 10.8069 13
516 1 16.2599 12.0828 1.06661 9
517 1 -9.40953 -14.9914 -3.03233 11
518 1 0.0342412 -9.29272 -1.83658 21
519 1 -4.06551 -5.66721 -16.3754 11
520 1 -7.36625 8.3319 7.79681 16
521 1 2.94927 -2.14237 -9.84864 21
522 1 6.33787 11.0585 2.77876 18
523 1 14.7212 -2.45408 -2.36402 16
524 1 6.00871 9.23493 -8.35667 18
525 1 5.25791 -8.45499 0.514778 22
526 1 14.3585 8.63069 -8.16696 12
527 1 5.23278 14.0868 13.1233 11
528 1 -13.7236 2.98099 8.00247 13
529 1 6.76281 11.4835 6.64022 20
530 1 5.06802 -2.05756 12.8837 17
531 1 -2.93429 4.53498 -12.5594 22
532 1 -5.69481 -4.11065 -5.90766 18
533 1 -1.5233 -0.81054 7.35802 18
534 1 12.1177 11.9736 4.32576 15
535 1 5.95533 7.50392 -11.1632 22
536 1 -7.92312 15.8332 -7.6657 16
537 1 -1.16635 11.4818 -2.74505 18
538 1 12.7751 0.742291 6.15335 18
539 1 8.90187 2.68624 -9.04458 22
540 1 12.9048 -5.6957 -6.59736 20
541 1 11.727 8.39426 12.3346 17
542 1 -13.7108 -7.91907 3.41227 14
543 1 -9.27562 11.2391 -7.48572 19
544 1 0.143828 0.933446 11.124 17
545 1 -13.6947 2.31732 11.2489 10
546 1 -5.36296 14.5926 -9.86792 16
547 1 4.96062 -12.7818 -9.68428 15
548 1 6.00516 -2.22655 -8.81016 22
549 1 -3.61295 14.1872 -2.88828 15
550 1 -9.25691 -4.12264 -15.397 10
551 1 1.33454 -14.1589 1.77764 21
552 1 -6.83218 -6.13306 -4.08606 23
553 1 -7.6654 10.1413 -17.1825 11
554 1 -8.20761 3.37527 -5.01678 20
555 1 -2.84863 11.8221 15.1063 10
556 1 -15.1453 -6.21571 8.21522 12
557 1 7.37753 5.35148 -3.67665 24
558 1 1.6275 -10.954 -16.9889 8
559 1 5.83502 -4.76446 10.6347 13
560 1 7.12965 0.326269 -3.96573 21
561 1 -16.1782 7.0249 0.107411 8
562 1 0.977313 6.96055 16.9059 16
563 1 1.85543 16.9781 -7.06797 8
564 1 10.6507 -5.55195 -3.78859 17
565 1 3.50204 12.3514 10.3842 20
566 1 -4.10017 5.07817 -15.786 17
567 1 -5.61749 -8.84124 6.18322 18
568 1 -0.555811 3.16868 -10.1907 20
569 1 3.27341 4.53581 -14.6799 17
570 1 4.01759 13.4278 6.76373 22
571 1 4.65084 5.85463 -8.98607 20
572 1 -5.10268 -3.14068 -14.6338 20
573 1 -3.33962 -12.4551 -9.01334 19
574 1 -10.2835 -4.1861 -12.1882 13
575 1 14.051 1.72665 0.0147681 20
576 1 16.4733 7.28792 -6.15666 12
577 1 10.8654 -0.697897 -8.74301 21
578 1 12.1968 5.88763 13.9509 13
579 1 9.2565 -7.53458 -5.15107 18
580 1 -1.18241 4.53799 -17.2079 12
581 1 13.8162 12.8065 -4.54191 11
582 1 -9.61876 3.89614 3.80035 16
583 1 9.26451 7.68354 13.7596 19
584 1 15.3043 6.47714 -0.872496 18
585 1 17.1254 -2.89107 3.56945 11
586 1 8.13834 5.59398 -10.5032 19
587 1 8.67059 1.46376 12.8767 19
588 1 14.0813 0.140022 13.8419 13
589 1 -1.09907 -5.22495 7.18246 15
590 1 12.1966 15.1407 -3.11738 13
591 1 0.668939 4.57706 11.8571 20
592 1 14.2365 6.48388 -3.40669 20
593 1 8.86804 2.81854 9.92486 19
594 1 -8.44008 -0.11782 -7.44556 19
595 1 16.4121 8.25429 -3.14251 15
596 1 9.99912 -6.21942 7.54209 10
597 1 -13.0334 9.5044 8.18373 12
598 1 5.69505 9.67509 10.4891 18
599 1 11.3488 3.17143 3.26647 21
600 1 -2.692 8.09268 5.45304 22
601 1 5.50347 15.2226 9.74714 15
602 1 3.98175 2.61421 6.91325 22
603 1 -3.46589 -16.2961 -0.503163 18
604 1 -8.11829 7.73925 -2.81297 17
605 1 10.7338 7.81344 -6.23025 16
606 1 13.4208 -0.633734 -11.7874 13
607 1 2.43069 16.4436 1.6817 15
608 1 -2.52101 -12.1428 -11.6617 18
609 1 11.0994 -2.57188 -11.1122 19
610 1 -13.5827 2.52862 4.40119 14
611 1 -6.41456 4.94161 -11.2785 17
612 1 -3.75042 -15.5758 3.73664 14
613 1 -6.9749 -0.174775 -13.3643 21
614 1 -10.4894 3.77845 -6.44729 19
615 1 10.1849 -5.75504 0.437045 18
616 1 10.4475 13.7159 1.11043 16
617 1 -0.233336 -8.37631 5.93702 17
618 1 -13.6105 0.983452 -9.44543 14
619 1 1.21546 1.66051 -17.2299 12
620 1 -1.488 5.36829 16.5893 16
621 1 2.69541 12.999 -16.0632 11
622 1 11.0802 0.0265105 9.97832 18
623 1 13.6591 3.95332 -8.08374 18
624 1 12.9485 14.4806 5.33188 10
625 1 4.13865 -12.07 -12.7638 11
626 1 -11.4781 5.53358 11.827 16
627 1 14.049 -3.47207 3.47576 19
628 1 -3.3518 11.6392 11.8327 14
629 1 5.41489 13.3173 -10.5158 12
630 1 -8.55046 12.7419 -4.43511 21
631 1 10.8193 10.3317 1.31889 19
632 1 -10.2732 -12.8124 -0.512436 18
633 1 14.4693 -6.31244 4.56204 12
634 1 6.95237 14.8186 4.99772 19
635 1 -3.88776 5.24469 13.8827 20
636 1 -9.82956 -9.39027 0.926827 22
637 1 -10.8233 -2.79624 -8.30186 20
638 1 10.329 -1.62094 12.4327 17
639 1 -8.27532 -2.66661 8.40979 21
640 1 3.17647 7.68926 15.1619 20
641 1 -3.18022 12.2417 -5.22359 19
642 1 8.58263 4.14152 4.38686 21
643 1 6.27287 2.31073 4.46201 22
644 1 0.0768512 -0.0228786 -14.8954 21
645 1 -10.322 0.937115 6.28372 17
646 1 5.80022 0.629885 -14.429 16
647 1 -1.93545 -4.217 -6.77376 22
648 1 14.1777 -7.0393 -10.3665 12
649 1 5.79268 2.40191 9.46192 20
650 1 4.87298 5.11531 4.52274 23
651 1 -13.3864 7.2835 10.5616 10
652 1 12.9021 6.43841 10.7386 15
653 1 -1.48817 0.176533 14.8323 15
654 1 -2.23236 5.9026 11.0972 21
655 1 -0.64283 -5.12687 -12.0481 20
656 1 -3.12865 4.39318 8.7868 20
657 1 7.20338 5.76229 9.40062 18
658 1 -8.4471 -14.4945 7.91897 11
659 1 15.1692 10.3063 -5.40937 12
660 1 8.75338 -11.6502 -8.17512 13
661 1 -3.13201 5.72884 -4.85674 20
662 1 9.25983 12.321 4.07949 19
663 1 12.0766 16.4943 -0.512906 10
664 1 4.18059 1.72779 -16.528 12
665 1 -6.26383 4.84518 8.53992 19
666 1 2.50187 12.8828 -6.24567 19
667 1 13.8143 9.09356 -0.489849 18
668 1 -12.5837 -10.9061 -1.11311 14
669 1 -1.84881 0.593965 -17.1039 12
670 1 -11.8982 14.7547 -4.38235 10
671 1 6.96876 -4.74955 -7.74316 17
672 1 6.85541 5.56051 1.86207 22
673 1 9.08812 7.85871 -9.12165 19
674 1 8.11246 11.012 -2.56237 16
675 1 0.721326 10.0598 4.98144 19
676 1 -4.77102 5.05137 -2.25842 19
677 1 9.30503 2.80333 -3.81573 22
678 1 8.21109 1.67987 16.2367 10
679 1 6.39016 8.63137 13.5754 20
680 1 -4.21198 -10.1062 9.57431 12
681 1 -6.41455 12.6376 -11.7326 18
682 1 6.0768 12.368 9.70844 17
683 1 11.233 -6.12634 -14.1065 12
684 1 2.65257 1.24925 8.91006 20
685 1 7.60949 14.613 -5.534 11
686 1 3.34581 10.6489 6.94499 18
687 1 15.2579 -2.97719 -6.24796 17
688 1 2.07811 10.4623 16.6368 12
689 1 -11.4213 -1.57536 7.71049 17
690 1 7.5229 -11.0072 -5.36785 15
691 1 0.145342 -2.37391 -12.2563 21
692 1 -6.03506 12.9136 3.30028 19
693 1 0.859425 1.57674 6.23412 22
694 1 7.80611 -1.75398 -6.41892 19
695 1 3.91934 11.31 3.83913 21
696 1 -13.8456 -4.61786 -0.522897 14
697 1 0.350165 1.99325 17.284 12
698 1 -9.12129 7.6283 -17.289 10
699 1 -9.72658 11.8718 -16.047 8
700 1 7.79934 -12.2205 -2.91452 14
701 1 9.09968 5.17894 -5.88411 20
702 1 5.81011 -6.19145 2.94491 21
703 1 1.72303 9.98283 0.32434 16
704 1 -12.7457 8.04319 5.50693 18
705 1 3.16115 -0.94568 -17.308 12
706 1 4.63498 -12.0879 5.06366 15
707 1 6.03872 16.9827 -2.38573 12
708 1 -2.41553 3.25327 19.2929 8
709 1 -7.82509 -4.68348 -13.0437 16
710 1 -4.2678 -8.93407 -15.8331 12
711 1 -6.01284 -12.4439 -11.0623 10
712 1 -2.7591 13.9894 -8.22908 17
713 1 4.18363 -3.38806 -6.95876 22
714 1 -2.87092 11.7226 2.59915 18
715 1 5.89344 -7.40433 -11.4795 18
716 1 10.5664 -9.28257 -2.95789 19
717 1 2.93188 -6.6342 6.41337 17
718 1 16.6766 4.16191 -6.67096 13
719 1 0.826789 -16.8119 -5.85387 14
720 1 -7.34247 0.0603796 6.29782 23
721 1 0.638054 0.397649 -9.78845 16
722 1 -4.97609 -18.3167 1.01586 14
723 1 -9.34698 -10.6175 -2.38151 22
724 1 -9.01677 -0.11488 9.07935 22
725 1 -6.8757 -15.2194 -0.407122 13
726 1 11.8113 6.65879 -10.3707 17
727 1 -3.77576 17.7631 0.276382 10
728 1 -4.07516 5.31789 5.72259 22
729 1 -11.9475 3.98343 -0.520958 19
730 1 11.046 -2.80108 1.57334 24
731 1 -13.7911 0.854383 -13.0882 10
732 1 -1.76776 8.7635 -9.05005 18
733 1 12.6698 5.46366 -5.8341 17
734 1 7.71369 11.4716 12.9396 16
735 1 14.7987 3.51387 -4.84192 20
736 1 -14.1441 5.15571 -10.7357 8
737 1 -12.1543 -1.70423 -11.2474 21
738 1 -0.855032 5.81296 22.5672 4
739 1 2.91404 11.3337 -11.3627 18
740 1 13.8618 11.2619 6.39083 12
741 1 -1.81079 3.11074 12.0194 22
742 1 -5.74535 -20.5057 -1.79147 6
743 1 -5.82183 -15.9115 5.99849 11
744 1 -2.15607 -7.36964 9.10733 13
745 1 11.7091 3.31574 10.0586 19
746 1 3.90873 -8.07764 -9.40088 18
747 1 -7.25056 5.64296 -0.367331 20
748 1 7.89817 6.73714 4.99619 18
749 1 -9.83807 -4.77414 7.0462 19
750 1 8.30939 8.7318 -13.2446 10
751 1 -2.00396 -16.5744 -6.52007 12
752 1 1.1528 -19.5924 -1.42883 8
753 1 -0.0587283 -15.0096 -1.19809 20
754 1 6.01399 3.13796 -9.05204 19
755 1 6.06206 13.8101 -1.36648 15
756 1 -5.68018 7.87424 -18.5064 8
757 1 0.41594 2.39364 13.7536 20
758 1 0.279979 5.36963 -12.7506 21
759 1 -10.3087 0.321853 -13.8303 15
760 1 -8.37216 -2.05459 -4.9073 22
761 1 -0.382114 11.971 -8.06158 21
762 1 8.44189 2.60306 1.87429 20
763 1 -4.26415 -5.23238 -13.1513 19
764 1 -4.71786 -6.24376 -1.67952 22
765 1 15.3343 5.83477 -8.81251 12
766 1 15.8825 -5.3962 -1.33743 10
767 1 -8.40495 5.75005 10.8464 17
768 1 9.65287 -10.3856 3.02609 12
769 1 17.1353 -2.18237 0.315359 13
770 1 15.0565 -3.32052 9.40977 10
771 1 2.07296 16.3814 5.63673 20
772 1 -9.07453 7.34737 13.4498 13
773 1 -8.75965 2.97868 7.30747 18
774 1 -0.576042 -16.7808 3.91686 14
775 1 10.3189 0.105592 1.91116 21
776 1 3.63391 9.3882 12.2511 17
777 1 -16.1447 -2.87054 -2.14426 8
778 1 8.43208 -6.45532 -2.60871 22
779 1 -6.80558 12.7783 -8.1557 19
780 1 5.23632 8.61747 1.60598 18
781 1 1.31525 -14.6639 5.48028 14
782 1 7.6903 -0.719531 14.3654 17
783 1 0.731314 12.1821 2.50314 21
784 1 3.65068 -11.2372 1.94127 20
785 1 -5.95461 -3.08137 -2.95097 21
786 1 3.26595 3.97544 13.066 18
787 1 -14.862 0.666811 -6.52958 15
788 1 -1.33629 14.6016 9.86351 14
789 1 7.73486 11.659 0.216228 16
790 1 -12.712 -8.25296 0.321466 13
791 1 -1.49856 -14.8792 1.36485 20
792 1 5.47358 -4.58499 7.35537 17
793 1 12.4666 -5.06489 7.59557 11
794 1 10.6066 8.96237 4.05284 16
795 1 0.268059 12.9412 -0.362317 16
796 1 -3.75058 -6.66433 -7.6166 20
797 1 -9.99611 6.13878 -15.033 13
798 1 -5.10917 -7.18782 11.087 14
799 1 -1.70543 17.0345 -2.06308 13
800 1 12.7963 0.957456 3.02081 20
801 1 5.75741 8.65244 -3.32382 22
802 1 -4.26971 5.63038 21.4774 5
803 1 9.75679 5.86779 7.58241 20
804 1 5.16708 -5.04049 -10.8053 23
805 1 -8.05356 -10.8317 5.47009 21
806 1 -5.25307 0.76874 -7.263 22
807 1 17.5533 0.680545 2.33273 10
808 1 6.76461 -4.74254 -13.2339 22
809 1 0.937327 9.11787 14.4592 18
810 1 6.68647 -10.4148 -12.4409 14
811 1 1.29823 6.26181 -16.2494 21
812 1 -4.81142 -8.50146 -4.25501 20
813 1 9.70111 6.43349 -13.1963 12
814 1 16.6257 0.584558 -2.16326 13
815 1 2.57116 -0.0659992 12.1823 19
816 1 -4.96782 -9.39311 -9.36109 19
817 1 9.12261 15.0955 -2.57725 12
818 1 -1.42334 -6.51855 2.82243 15
819 1 -14.7668 4.83033 2.13008 16
820 1 12.0062 8.23982 -2.79204 11
821 1 14.7621 10.0264 3.23077 12
822 1 3.08862 -4.0771 -12.5773 22
823 1 -6.8719 14.1055 6.62381 12
824 1 15.0713 4.27193 8.79794 14
825 1 10.3275 12.9687 -4.43293 15
826 1 6.69482 4.32078 -13.3696 20
827 1 10.5619 -3.73235 -1.87585 19
828 1 -14.0484 6.33472 -5.47319 12
829 1 11.1321 6.15489 5.26127 19
830 1 -11.0436 -6.13934 1.22102 19
831 1 -10.729 11.0825 -12.3236 10
832 1 3.17402 4.43738 9.69631 19
833 1 -11.3406 0.458405 -7.52941 21
834 1 -11.3497 4.39652 6.35484 16
835 1 -4.22626 7.20382 -13.1174 20
836 1 9.46467 -6.17281 -11.4036 21
837 1 -8.86796 -7.87089 -8.60395 16
838 1 13.8364 -5.35645 -4.2515 16
839 1 -15.617 5.84756 -2.3192 11
840 1 -6.77163 -9.10804 -2.6593 22
841 1 13.2459 6.52703 7.70255 16
842 1 -9.50561 -8.84447 7.08021 18
843 1 5.96198 2.32939 14.6026 16
844 1 15.0978 -3.91387 6.4639 13
845 1 10.9757 -4.7454 4.27866 18
846 1 -14.3372 1.73774 1.55282 13
847 1 2.16305 15.0531 8.6736 17
848 1 3.19955 10.6954 -8.37656 19
849 1 -0.0229496 -5.34177 -17.1137 13
850 1 -0.865994 15.713 6.75823 19
851 1 -13.7528 -11.4529 8.73306 11
852 1 5.95841 12.9132 -7.97655 16
853 1 1.41168 7.24021 11.865 21
854 1 18.1212 -2.93617 -8.93674 9
855 1 3.29143 -3.45921 8.15112 19
856 1 -0.458359 12.8108 -13.2679 14
857 1 5.40694 10.4836 -12.8292 18
858 1 -7.80051 2.51816 11.3888 20
859 1 16.1586 2.01267 6.24257 14
860 1 -0.562615 -2.27254 -9.27646 19
861 1 11.1732 11.8706 -1.11964 15
862 1 -13.8607 1.00079 -1.93209 18
863 1 -0.701105 -13.2372 9.38305 6
864 1 4.88822 13.0173 -13.7636 12
865 1 6.59701 -2.32304 8.00366 20
866 1 -2.85604 -15.1184 -3.45118 20
867 1 -6.78737 15.5702 0.518912 11
868 1 -15.0777 9.91326 -5.66787 8
869 1 13.1277 1.32006 -9.05829 18
870 1 0.534748 -8.86684 -14.6206 19
871 1 -7.49785 8.24853 1.40615 18
872 1 12.4246 11.2911 -6.92289 12