ITEM: TIMESTEP
29000
ITEM: NUMBER OF ATOMS
2000
ITEM: BOX BOUNDS pp pp pp
-30.0 30.0
-30.0 30.0
-30.0 30.0
ITEM: ATOMS id type x y z Coordination
1 1 -5.59876 -1.94984 -16.7312 15
2 1 -2.08308 -16.4686 -12.4588 9
3 1 6.86512 12.295 10.8017 12
4 1 14.2835 -5.10128 -0.196744 20
5 1 -6.31272 13.2223 -5.0016 15
6 1 14.0074 -10.7312 -13.3227 13
7 1 -7.11247 0.806767 -10.8742 19
8 1 6.47125 -5.08679 11.8937 11
9 1 -0.401893 -3.28778 -21.6085 11
10 1 -9.38066 -6.01096 -0.89862 17
11 1 13.2326 -1.79603 -16.5121 19
12 1 3.70643 -17.6045 -6.70705 14
13 1 -3.81893 -6.48387 -1.26194 17
14 1 12.7583 -2.51107 13.3062 15
15 1 10.4127 -4.12581 0.552225 17
16 1 6.75213 4.99761 6.3876 15
17 1 12.6694 -3.19626 -3.89781 20
18 1 1.65213 10.3266 -12.3918 13
19 1 12.6426 9.03461 7.98596 22
20 1 -3.37238 -5.17537 -16.2829 16
21 1 -8.03762 -2.43812 7.92362 13
22 1 21.7209 1.63785 8.36881 9
23 1 3.85483 6.58604 -19.5177 14
24 1 -2.1357 2.19134 -20.9042 13
25 1 17.2738 4.08789 4.05284 15
26 1 -2.81495 -0.813218 -1.11325 17
27 1 -5.35472 4.44901 -10.177 15
28 1 2.72966 -4.66676 -13.1296 16
29 1 -2.82219 8.53915 8.04597 10
30 1 8.14225 -10.0698 10.245 11
31 1 6.02934 -3.08148 4.72055 17
32 1 8.31067 -18.0957 -15.0752 12
33 1 7.85863 -14.8319 -1.17975 18
34 1 0.889741 -17.1968 -11.5625 15
35 1 -1.57899 -5.1566 4.2216 18
36 1 5.92085 -9.91311 -16.7322 22
37 1 12.9986 -6.89121 -14.5238 21
38 1 2.48942 0.344259 -13.1129 23
39 1 9.95109 -3.42522 12.2207 17
40 1 4.85112 -14.6269 7.05872 13
41 1 10.8101 -6.7335 5.92688 19
42 1 -3.3725 7.08146 -2.80086 20
43 1 -12.5998 -9.98078 -0.746796 7
44 1 2.20809 1.02652 -3.66383 15
45 1 4.50701 13.5777 -9.02076 17
46 1 5.40438 -14.8509 -12.9815 17
47 1 8.25954 4.40858 -12.6638 21
48 1 11.8172 -2.7227 -8.52073 16
49 1 1.27588 -7.4859 5.75284 21
50 1 -10.7075 4.08979 -3.86419 9
51 1 3.49759 10.4649 -10.2699 21
52 1 7.12514 8.80995 10.9728 19
53 1 3.1925 9.15001 -16.8868 20
54 1 1.41343 17.006 -5.04528 12
55 1 8.77804 -11.0302 -1.85539 15
56 1 12.2912 -6.00684 -6.08534 23
57 1 4.05153 -8.06855 -21.1268 16
58 1 4.36051 7.30617 10.4837 17
59 1 -2.82236 -4.91903 -10.6053 21
60 1 11.9977 -1.57326 6.11432 18
61 1 -8.2111 3.88894 -5.89646 20
62 1 -4.30973 -11.6949 0.854136 17
63 1 6.77955 14.8669 8.96783 9
64 1 -1.62042 15.5555 -13.851 11
65 1 3.37836 4.58395 10.0758 15
66 1 8.53869 1.13744 -4.4791 19
67 1 -4.90981 -12.2775 7.0586 9
68 1 7.86566 2.47102 5.07391 21
69 1 11.3088 -19.8641 -5.90802 9
70 1 10.0583 3.47426 14.3574 11
71 1 -7.82208 -7.86856 -9.82714 15
72 1 1.10112 7.87602 -15.2808 20
73 1 8.1295 13.3652 6.46677 16
74 1 13.9892 -4.21782 -18.4757 13
75 1 10.2647 -14.4931 3.39829 13
76 1 -11.2274 1.46666 -1.47023 12
77 1 0.268652 -4.13043 -9.89384 22
78 1 8.12366 12.4049 3.21543 17
79 1 9.96848 -5.22884 9.9431 17
80 1 0.991941 -20.1742 -3.70972 9
81 1 0.234975 -2.18968 6.95889 21
82 1 13.7831 -0.391163 4.09932 22
83 1 11.8339 -0.630795 -5.54908 22
84 1 8.21661 2.59641 8.58094 19
85 1 4.05525 -7.20679 4.05954 20
86 1 -0.871231 -7.17578 -1.85301 22
87 1 -2.71852 -5.60369 -13.5132 19
88 1 -8.97212 1.96288 3.96806 14
89 1 1.57196 9.03411 -4.65445 19
90 1 2.59574 4.86237 -10.5781 19
91 1 14.0971 -3.09524 -10.7796 19
92 1 12.4688 8.62635 -15.447 8
93 1 11.4229 -11.8902 3.06365 17
94 1 11.3352 -9.90836 7.88292 17
95 1 3.47081 12.0214 -15.5566 17
96 1 -9.44749 13.3526 -5.26183 8
97 1 2.31688 -7.78558 8.68776 14
98 1 -2.54325 15.6029 -0.770941 15
99 1 -6.39248 -6.70572 11.0703 9
100 1 18.9797 -4.96734 -8.3403 13
101 1 -4.78956 -5.09882 5.00327 18
102 1 -10.3152 -8.09529 1.3661 12
103 1 17.623 -10.353 -11.2013 9
104 1 11.2016 -5.27136 -16.7387 21
105 1 1.03968 -11.4469 -21.2434 11
106 1 0.557708 10.3992 -2.32198 22
107 1 -1.65716 3.12157 -5.90503 20
108 1 3.4724 6.10925 14.5239 11
109 1 -0.965743 15.3196 -11.1951 20
110 1 -7.49556 8.27353 -7.98195 14
111 1 3.7769 9.73324 -3.62362 19
112 1 -4.49906 -8.83037 11.3645 13
113 1 13.876 -3.28459 5.25899 19
114 1 7.98218 -9.00722 -17.8678 17
115 1 0.931043 -13.2401 -16.2086 18
116 1 3.19323 0.98486 2.70421 19
117 1 15.714 -3.76303 12.5154 10
118 1 -5.01599 -9.75876 -1.47784 18
119 1 8.8811 -6.49666 -5.99955 21
120 1 -9.67804 -9.85546 -6.37588 12
121 1 15.6135 -14.0561 -0.833251 11
122 1 -1.81612 9.78352 -3.97985 24
123 1 3.55865 0.862196 -16.0856 20
124 1 9.84855 14.6032 -6.30062 14
125 1 0.22571 -18.1984 0.583303 12
126 1 2.3994 -14.5313 -2.37001 20
127 1 7.4074 -12.4786 -21.1418 11
128 1 10.7364 3.89598 -8.36216 19
129 1 17.3164 -12.4912 -2.79122 11
130 1 10.4494 -17.292 -5.72089 20
131 1 1.51236 -10.7487 -6.14035 19
132 1 20.7832 0.588478 5.50544 12
133 1 18.9436 -2.5358 -6.34388 16
134 1 -10.6717 -0.552247 3.04407 12
135 1 19.4843 10.3435 6.45466 11
136 1 19.8458 11.693 1.25204 10
137 1 3.42558 2.91134 13.879 15
138 1 14.4121 8.36281 -3.99052 14
139 1 1.89202 9.78965 7.63357 13
140 1 -0.224039 10.8011 -9.63157 19
141 1 8.84441 -9.37527 -14.4004 19
142 1 17.1636 -13.0308 -8.42111 12
143 1 10.7255 4.82805 -11.3888 19
144 1 9.77977 -6.98617 2.58993 17
145 1 5.31964 -1.33001 -20.4507 13
146 1 1.20194 2.99029 -7.83763 21
147 1 14.5785 -0.588907 -4.95938 20
148 1 -7.26399 7.09062 -11.2369 9
149 1 -1.31601 13.6979 -8.54089 21
150 1 19.0808 1.73921 -7.00042 12
151 1 17.8704 -11.7495 -0.179293 11
152 1 -0.501944 -0.164845 -14.3034 21
153 1 0.251849 12.3099 6.58671 14
154 1 15.4659 5.47719 -9.43219 20
155 1 9.19775 6.95393 -4.59404 19
156 1 -5.53129 12.1362 0.993046 9
157 1 14.9716 10.3555 -1.21588 19
158 1 -0.488176 7.68142 -7.70057 20
159 1 6.05883 9.04842 -10.6024 18
160 1 2.50192 2.95317 -13.3545 21
161 1 -7.15571 -10.6873 0.941969 17
162 1 -5.7231 10.9881 -7.23245 18
163 1 -0.0548909 -6.03653 -14.8392 17
164 1 5.84671 -9.93093 -23.5207 8
165 1 10.7202 14.0567 5.55669 12
166 1 4.78233 14.511 3.09406 15
167 1 -4.93208 -3.28096 -8.62631 20
168 1 -5.97663 13.8409 -8.37531 18
169 1 18.3655 -0.119719 -4.49114 15
170 1 -4.19654 1.93097 -15.6179 17
171 1 13.9612 -1.60786 8.05937 17
172 1 2.21152 12.6081 -1.02346 19
173 1 2.2533 3.85782 6.69093 16
174 1 9.09486 -11.3964 -16.3716 21
175 1 1.17515 7.82269 12.5014 8
176 1 -3.60191 17.9342 -11.6761 9
177 1 2.31552 -4.06893 11.9876 14
178 1 -10.3428 -4.32213 -5.05154 7
179 1 2.44545 -11.2441 -12.6788 17
180 1 -1.27166 5.83393 -16.1068 18
181 1 0.934583 -14.2672 -5.17734 19
182 1 10.5287 -15.7152 -10.3149 15
183 1 4.65728 -2.13046 -13.7246 20
184 1 -3.92542 4.75451 -0.151286 20
185 1 4.82387 3.87064 -3.6769 20
186 1 9.30486 11.3886 -6.48074 19
187 1 -2.10064 1.24231 5.59671 18
188 1 4.10056 -7.31295 10.4057 11
189 1 -0.110321 3.77171 -2.61348 19
190 1 -0.22348 12.7667 3.558 17
191 1 3.37336 7.00123 1.6273 20
192 1 17.6007 -2.67595 10.5146 10
193 1 -9.19153 10.7651 -7.63603 11
194 1 13.7581 -5.51278 -8.58507 17
195 1 1.62369 4.50123 12.6022 15
196 1 -3.686 -2.50633 -14.451 20
197 1 12.609 -14.6994 0.507559 14
198 1 -2.07263 -12.486 3.51361 13
199 1 -4.75819 7.3387 1.3927 15
200 1 -0.623286 -9.92499 6.03964 20
201 1 8.55974 -0.0618879 10.7383 18
202 1 -3.58064 4.07978 -2.95471 17
203 1 4.77378 -15.2289 0.669109 21
204 1 11.6546 -9.29136 -13.1816 21
205 1 2.7971 12.1996 1.85689 20
206 1 -1.72952 -1.53409 3.87317 14
207 1 15.2458 6.965 13.5576 12
208 1 -0.65723 1.01994 -8.11994 20
209 1 1.3311 7.77973 -10.4343 21
210 1 -9.11079 -4.9977 -13.3498 8
211 1 -5.71862 -2.77576 6.78844 19
212 1 7.1853 -10.0833 7.51265 18
213 1 7.68469 -14.3869 5.5571 14
214 1 -4.9926 9.31528 -4.77035 18
215 1 13.4946 2.02518 3.22955 19
216 1 13.3712 2.06898 -5.93729 20
217 1 -1.75078 -11.283 -14.6814 13
218 1 9.82255 -2.41761 15.5594 8
219 1 11.5169 -13.2931 -1.99359 19
220 1 0.773908 5.1314 -13.0129 21
221 1 7.93526 -5.72899 -10.7552 17
222 1 12.1831 -2.2421 -20.79 10
223 1 6.21856 8.5274 -18.7482 9
224 1 -4.81456 -6.61198 -8.90647 23
225 1 1.04572 16.5955 -8.60315 16
226 1 -6.42949 -10.5964 4.29105 11
227 1 8.87627 11.5992 -9.09747 16
228 1 -3.58702 -5.50413 12.0526 8
229 1 -0.407935 12.8817 -5.56483 17
230 1 13.5435 1.27093 9.1058 20
231 1 -1.54317 -8.70312 -12.9505 18
232 1 3.80693 8.38242 -7.29338 19
233 1 4.52211 -0.417801 -10.8324 20
234 1 -6.34984 -6.51274 0.339537 21
235 1 -5.36477 0.815975 7.42431 20
236 1 -0.479225 7.33602 6.69978 20
237 1 8.7895 -13.8815 -18.8582 16
238 1 -0.503495 -15.5843 -9.76542 19
239 1 15.8449 -10.7117 -5.63337 15
240 1 7.14667 -11.2311 -10.4369 20
241 1 17.1764 13.6007 6.25204 10
242 1 10.9696 13.6064 -14.0581 4
243 1 9.04935 9.76857 -4.29074 20
244 1 0.031482 6.40003 -4.93793 18
245 1 -5.21965 16.8756 -9.4439 11
246 1 8.63741 7.90738 13.8752 17
247 1 13.7278 -18.3965 -7.69245 13
248 1 19.2112 -2.23779 -0.60124 14
249 1 5.99417 5.25288 2.91271 20
250 1 5.34313 7.86612 13.9499 11
251 1 -5.4404 -0.64502 -9.00439 21
252 1 0.940979 2.15352 -19.143 16
253 1 3.36871 -2.21005 6.58147 18
254 1 13.4646 3.92389 -10.5151 19
255 1 0.532994 -20.683 -7.32074 11
256 1 7.69346 -5.7967 -16.5694 20
257 1 10.1472 -15.9707 -1.99012 18
258 1 20.2721 0.372588 -1.79111 14
259 1 -1.83757 -7.9977 3.41929 16
260 1 8.66773 -15.042 -4.60489 16
261 1 -9.94489 -1.63232 -2.63074 19
262 1 8.30911 9.92527 -12.0681 18
263 1 9.98379 -4.90675 -22.2553 12
264 1 19.7309 6.11372 11.3904 11
265 1 20.941 5.47688 -3.59401 8
266 1 0.706926 -9.66744 -10.7497 22
267 1 17.1684 -7.17077 -9.94105 12
268 1 3.10076 -12.1578 -4.27845 17
269 1 -2.0258 -14.1403 -14.6975 16
270 1 -1.09866 -2.44748 -16.1526 18
271 1 3.39392 -18.5323 2.64889 9
272 1 17.2291 -9.69782 2.60699 9
273 1 16.1089 -1.6718 2.5899 22
274 1 0.546086 -12.3767 -8.90412 22
275 1 7.89888 -10.8658 2.69915 17
276 1 8.6056 8.85981 -16.3376 15
277 1 4.83642 10.1884 0.441967 19
278 1 -0.286219 -12.0313 0.18202 17
279 1 6.16327 10.2721 -2.42563 18
280 1 -5.13799 -1.97641 9.95911 15
281 1 -4.68105 -7.90883 -11.6907 19
282 1 0.0217419 -8.11026 -19.6133 16
283 1 1.33735 5.20026 -18.5607 15
284 1 -0.349739 -16.9994 -15.248 12
285 1 -0.148641 -7.60791 -5.03617 20
286 1 8.9638 -6.20773 -19.2792 18
287 1 16.6414 -1.39709 -7.91648 18
288 1 17.8337 4.59281 -2.951 18
289 1 2.53569 -7.84641 -12.7949 21
290 1 -2.47981 -7.24926 6.17446 20
291 1 1.63489 -17.5672 -2.92161 16
292 1 14.501 -0.753619 11.3815 19
293 1 -1.41072 -18.8656 -5.4118 9
294 1 5.55909 -9.94079 -0.165346 20
295 1 12.796 14.2008 -5.1298 9
296 1 9.89038 -10.9399 -19.1159 19
297 1 2.87031 -9.7646 -18.9588 18
298 1 -6.58501 -14.0957 4.36807 7
299 1 8.93826 0.185247 13.7057 15
300 1 5.7128 -16.6907 -8.81638 14
301 1 -1.55752 -15.6454 -18.1651 7
302 1 -0.601051 -1.13521 -11.0803 21
303 1 13.0318 2.45748 5.91832 21
304 1 -4.24623 3.14108 -18.4841 15
305 1 5.03809 7.43629 -15.7298 22
306 1 3.60723 -7.43561 1.40695 22
307 1 11.9613 -13.823 -18.1048 11
308 1 -0.526402 12.6271 -2.85418 19
309 1 5.33479 13.8386 5.72866 16
310 1 18.5341 -6.92819 2.25057 13
311 1 -7.3661 -3.28884 -0.579607 18
312 1 6.7397 -7.86969 2.06887 19
313 1 -0.452586 9.86463 5.33644 20
314 1 12.4292 -11.2482 -16.4867 16
315 1 17.2764 11.5241 -3.67518 11
316 1 13.2463 -11.4899 -4.19272 20
317 1 7.04661 -6.74357 9.53227 18
318 1 -5.86763 -7.99664 6.05051 14
319 1 8.93741 -17.4682 -12.2863 13
320 1 7.19127 5.72975 9.16258 15
321 1 -5.02002 5.97653 9.32029 10
322 1 -7.5199 -3.87258 2.3328 19
323 1 -7.46992 -0.235899 2.2508 23
324 1 11.8381 -11.2778 -0.12298 17
325 1 -7.24251 -7.31713 3.53738 17
326 1 15.1443 -5.38773 -12.9289 19
327 1 14.2088 -16.0267 -10.7018 18
328 1 2.49894 12.0041 -7.43805 16
329 1 -4.52183 15.1052 -3.84803 14
330 1 11.7872 5.78787 12.7869 16
331 1 -4.90181 -0.174474 4.38601 18
332 1 12.0027 -12.8782 -10.649 19
333 1 0.891196 3.74034 -5.34031 16
334 1 -1.99562 6.7677 0.728114 18
335 1 12.2419 -12.7335 5.98 9
336 1 18.5048 -8.86531 -0.156788 13
337 1 -1.87798 9.63243 -1.01833 21
338 1 2.90409 -5.47768 -10.269 22
339 1 3.34343 -0.788444 12.5641 17
340 1 -2.81618 10.2582 2.33858 18
341 1 14.1156 4.37385 13.6942 13
342 1 1.83492 14.8869 -13.3429 14
343 1 6.394 -12.4534 -18.3324 19
344 1 -0.281531 -3.63062 -13.0868 18
345 1 10.015 -16.4225 -16.8397 14
346 1 0.943188 6.26659 9.5935 16
347 1 -6.75569 3.93998 -3.07172 21
348 1 -6.51433 -5.54123 -11.3328 17
349 1 -2.19581 10.7819 -14.6087 11
350 1 13.1262 -2.89361 1.96896 20
351 1 -5.66101 -12.8812 -1.58026 17
352 1 7.76335 -12.9029 8.76146 11
353 1 -4.94009 -15.0717 2.24275 13
354 1 -4.42147 9.25252 -13.0673 14
355 1 2.53335 -1.42499 9.45939 20
356 1 8.46235 -18.5574 -7.56652 11
357 1 2.63009 -9.5935 -15.5995 17
358 1 12.4741 -4.08038 -13.584 23
359 1 7.16179 14.7917 1.43622 12
360 1 -3.73911 1.40641 -7.37012 24
361 1 8.27976 -13.702 -12.7986 19
362 1 11.0441 0.234451 -18.5274 11
363 1 -0.629019 -12.6966 -12.3877 20
364 1 -12.5031 -9.84487 -7.18583 4
365 1 5.23284 -13.0097 -2.12245 21
366 1 11.3652 3.03547 9.26838 19
367 1 16.2214 6.77698 -1.27852 20
368 1 -8.53668 1.21843 -14.1072 10
369 1 5.11759 12.9082 -5.00951 20
370 1 -8.01033 -2.64984 -10.9623 19
371 1 -8.03863 1.66376 -1.59348 21
372 1 0.511785 15.7697 -2.86854 16
373 1 -5.3602 2.72055 2.34959 20
374 1 15.1838 11.2133 8.80419 11
375 1 15.1195 1.02148 -2.75285 18
376 1 9.25975 -7.1926 11.966 12
377 1 15.9465 2.12903 -8.27376 20
378 1 -1.60561 -17.9563 -8.47718 10
379 1 2.86706 5.97992 -4.0693 21
380 1 9.91757 -11.0496 -10.7848 20
381 1 5.55438 4.73578 -0.955292 19
382 1 -3.57122 0.899668 -10.7196 19
383 1 13.7065 -14.2575 -8.42859 19
384 1 11.3464 -5.15829 3.67408 20
385 1 -2.26728 -2.98327 -5.62849 19
386 1 -1.69268 -9.76854 0.446404 16
387 1 -7.59449 -4.8972 5.69261 17
388 1 6.75466 15.4288 -2.19854 11
389 1 -4.75508 -11.5059 -4.51256 18
390 1 6.21546 4.36002 14.354 14
391 1 -2.14477 12.2113 -11.766 15
392 1 4.36782 13.0117 -12.1159 17
393 1 10.7514 13.5855 9.04105 11
394 1 -7.69893 -8.71594 -1.99398 16
395 1 6.42698 -12.9688 -7.2202 18
396 1 -13.6021 -1.03106 -1.15857 7
397 1 -3.08872 6.91195 -9.57219 17
398 1 6.87859 -12.5929 0.418896 18
399 1 0.91063 -15.2687 -0.595679 19
400 1 13.9099 4.43023 3.77923 21
401 1 14.7557 0.392348 -15.6104 11
402 1 -8.42421 -2.36728 -14.4865 14
403 1 3.47349 15.9668 -10.998 16
404 1 -3.69794 11.9196 -9.19488 21
405 1 -2.90342 -17.9038 2.12793 9
406 1 21.4411 4.34274 4.53281 12
407 1 5.88977 10.4262 -16.759 13
408 1 -0.0212511 0.404655 9.22909 19
409 1 -7.77234 5.56931 -8.1979 17
410 1 -2.67001 12.4712 4.894 10
411 1 -2.71772 -11.5365 -2.13335 22
412 1 9.84377 -3.41714 -11.4879 20
413 1 10.6281 -15.6881 -13.6342 20
414 1 1.68367 -4.72123 5.43976 20
415 1 -5.7143 -1.15532 -0.827826 20
416 1 -9.8295 -5.72649 2.63485 12
417 1 -5.88967 6.95854 -1.80266 18
418 1 7.90967 -5.08321 -1.09657 15
419 1 -1.62554 2.60592 -16.9918 20
420 1 13.2894 -14.0471 -12.994 15
421 1 4.30995 -12.1985 -20.8706 14
422 1 5.83881 -10.0484 4.70463 18
423 1 12.0474 -6.01907 -11.4154 20
424 1 0.119937 -0.382298 -18.1468 19
425 1 10.5244 -11.935 -4.56251 19
426 1 7.36984 13.6598 -7.37714 20
427 1 -8.46175 6.72085 -3.37829 12
428 1 3.96692 -5.1657 8.2065 18
429 1 -2.0224 -10.6958 -10.7204 20
430 1 -2.83338 -4.7361 8.07429 15
431 1 9.63648 -11.5684 5.73872 20
432 1 18.7148 8.22681 1.33031 16
433 1 6.8233 -5.00007 -13.7465 16
434 1 14.6291 -11.054 -0.92666 20
435 1 17.6501 9.68295 -9.76538 7
436 1 2.16095 0.653977 6.54366 21
437 1 7.65914 12.831 -3.79382 19
438 1 8.36719 -8.54663 -0.238115 18
439 1 7.0488 -19.5015 -10.5812 8
440 1 8.65993 -4.68201 4.56417 18
441 1 -0.643453 17.736 0.285069 6
442 1 -3.90385 -11.4414 -12.8103 15
443 1 9.12995 8.97634 -1.573 18
444 1 3.16512 12.6728 8.299 12
445 1 -3.18586 3.14715 8.45433 21
446 1 -4.87435 -14.161 -6.5081 13
447 1 -12.0345 -4.32541 -2.29678 10
448 1 -6.62514 -9.82394 -7.85486 15
449 1 -2.94353 6.75296 -5.82404 21
450 1 -3.44263 -10.8813 -7.60678 18
451 1 -0.0118664 -10.524 -17.9534 14
452 1 -4.87996 -14.0809 -3.65873 14
453 1 2.18076 -12.8222 2.79819 18
454 1 8.73706 -2.88273 2.52369 17
455 1 -4.93137 0.90539 10.6831 14
456 1 -5.66389 2.75009 -13.2397 17
457 1 14.9434 3.0568 -0.440707 16
458 1 5.31841 -9.68754 -3.79167 19
459 1 8.23388 3.24773 -9.85159 18
460 1 -0.518829 15.8235 -6.16332 16
461 1 3.49824 6.34343 -12.7519 21
462 1 7.43218 8.75347 5.94806 14
463 1 -7.10822 -0.306929 -6.60922 18
464 1 6.4413 16.3522 -8.96936 12
465 1 9.1767 5.78652 -15.3693 16
466 1 -2.55219 -8.08317 -9.70975 23
467 1 7.0446 -2.33706 13.1259 15
468 1 1.40451 -13.8775 -19.0004 12
469 1 5.28076 -7.32658 -15.281 17
470 1 16.0101 -16.5017 -7.88253 12
471 1 -4.74298 4.48636 -7.40675 21
472 1 12.2085 2.45389 12.5388 15
473 1 12.9672 10.5013 -5.79711 17
474 1 7.14436 7.23197 -2.31356 20
475 1 -10.2764 -1.1499 -12.627 7
476 1 8.23822 0.667462 -7.51632 17
477 1 10.7761 -8.97205 -3.71897 18
478 1 -9.04354 1.3961 -4.8186 20
479 1 2.91298 12.2926 4.94248 20
480 1 -2.96961 1.24937 -13.3138 22
481 1 10.5264 4.1073 3.54499 18
482 1 7.13527 12.7372 -11.6036 19
483 1 10.4323 -3.65718 -4.31432 14
484 1 17.2163 7.58766 -7.46473 13
485 1 -0.699062 -5.07007 -18.6469 18
486 1 7.10991 -12.3034 -4.68778 19
487 1 4.5996 -15.7765 3.5496 17
488 1 3.77694 -12.1971 5.20368 20
489 1 -2.45827 8.27552 -16.237 12
490 1 -2.22886 -14.1797 0.704766 17
491 1 2.81534 -15.5992 -16.8823 15
492 1 12.5346 12.0245 4.4154 17
493 1 11.8176 0.966583 -15.5918 18
494 1 0.883982 -7.24406 12.0024 10
495 1 -10.092 0.0313522 6.71916 12
496 1 4.26303 -19.1184 -2.43605 12
497 1 -11.163 -3.42534 0.280767 15
498 1 14.8867 -8.52504 -11.5601 16
499 1 14.0095 0.0977843 -7.82117 16
500 1 1.95741 0.509241 -9.61353 20
501 1 1.80922 -14.318 -13.952 23
502 1 5.10939 3.43342 -11.4018 16
503 1 18.8252 -5.01046 -14.7963 9
504 1 0.751479 -1.65324 11.4782 18
505 1 12.3096 13.9231 -1.50462 10
506 1 -2.73869 -7.85777 -17.6566 9
507 1 2.79499 -1.07082 -19.3263 16
508 1 -5.92258 -4.91995 8.18206 17
509 1 -5.26711 15.6161 1.86135 6
510 1 -4.34407 -1.52828 -11.4171 20
511 1 -5.54138 1.30502 -4.29094 16
512 1 11.9946 -5.57809 -19.5763 18
513 1 3.9377 -10.4167 1.94899 21
514 1 4.42368 4.93545 -7.06688 17
515 1 18.4708 -0.794775 4.03961 18
516 1 14.9891 5.34481 -4.22984 15
517 1 0.558061 -17.1386 -5.90989 20
518 1 5.77489 -13.7396 -10.2676 21
519 1 -4.55525 -7.60466 -15.1518 9
520 1 -7.92765 10.2876 -4.78928 15
521 1 13.8235 -7.65325 -17.1396 17
522 1 7.9668 4.48583 -3.59983 20
523 1 15.7433 -2.22217 -1.92125 20
524 1 7.19077 16.0223 -12.0381 9
525 1 10.4189 -8.44511 -7.07235 18
526 1 16.274 3.02181 -5.79096 20
527 1 16.8342 10.0519 2.72172 17
528 1 -2.78545 -1.05466 7.87928 19
529 1 11.5875 6.42695 8.67662 16
530 1 13.5286 -4.62163 7.96562 17
531 1 2.63097 -2.90835 -21.8966 12
532 1 0.29881 -6.34031 -11.7751 21
533 1 0.909881 -3.72284 9.48077 17
534 1 10.4237 10.0981 2.93444 16
535 1 11.4218 4.13854 -14.0772 17
536 1 0.163473 13.4172 -16.2 9
537 1 9.3926 14.5819 -9.79328 10
538 1 13.9551 -7.69939 8.36425 14
539 1 11.213 11.0189 -17.5143 6
540 1 13.3143 -9.26557 -5.80962 20
541 1 13.6677 8.35108 11.1784 16
542 1 -7.96776 -1.6182 5.03431 18
543 1 1.04092 2.66686 -15.6933 20
544 1 4.18927 3.40498 5.09789 22
545 1 -6.06 3.27955 8.84566 14
546 1 1.72065 13.7196 -9.5969 18
547 1 8.88897 -14.2493 -9.47586 18
548 1 16.5219 -0.081905 -10.8889 22
549 1 -2.04676 17.4731 -8.94219 15
550 1 -7.44854 -10.4657 -12.3077 9
551 1 10.1778 -14.0078 0.507417 17
552 1 -9.86759 -11.1351 -0.476899 10
553 1 8.53161 12.1 -16.2292 11
554 1 -1.10383 9.01006 -11.5773 17
555 1 3.04989 1.57272 10.7199 18
556 1 -4.65201 -8.81286 1.70557 22
557 1 11.9014 6.85302 -9.3361 22
558 1 4.31085 -10.3299 -10.6658 21
559 1 6.49976 -6.5352 5.56118 15
560 1 10.9864 1.09964 -8.41117 20
561 1 -3.35153 12.3534 -5.81111 21
562 1 17.1499 0.797232 8.88424 18
563 1 8.51082 6.33976 -10.3071 20
564 1 15.1981 -11.9764 -10.6711 17
565 1 9.58525 12.2576 12.2834 11
566 1 8.94743 -0.330716 -16.1128 19
567 1 2.17794 -13.9233 7.71074 11
568 1 8.38385 1.85798 -14.1747 22
569 1 7.73958 -2.01578 -17.9795 16
570 1 8.29712 11.8138 -0.132943 16
571 1 17.6493 -1.60409 -14.9933 12
572 1 2.57181 -6.93653 -17.8376 18
573 1 -1.40983 -11.7894 -5.36577 19
574 1 -7.13825 -6.76488 -6.7132 15
575 1 14.9563 8.1864 1.33983 19
576 1 13.8514 8.31036 -7.87492 19
577 1 7.21671 -14.3439 -15.7866 18
578 1 18.6514 2.447 7.03061 17
579 1 7.31239 -11.2855 -13.1312 15
580 1 6.32529 4.97947 -17.7386 15
581 1 11.0335 12.4883 -3.64429 17
582 1 -0.102846 6.99374 3.42529 16
583 1 11.1897 9.48407 14.1714 11
584 1 12.0284 5.13092 -4.02877 19
585 1 20.2585 1.92379 2.20295 13
586 1 16.3346 -2.57143 -4.61895 21
587 1 16.704 8.11243 10.6462 15
588 1 14.7196 3.46341 8.22275 20
589 1 0.0796211 -9.88188 9.51361 14
590 1 16.0739 10.7704 -7.21124 10
591 1 10.1709 -3.33749 7.19384 17
592 1 13.5673 5.62351 1.09139 18
593 1 5.41336 -0.0408702 4.9842 22
594 1 -1.5109 -5.14904 -7.64275 21
595 1 17.7615 7.0597 4.00356 16
596 1 13.3513 -7.94722 -2.07308 16
597 1 -3.20777 5.22408 6.72653 18
598 1 8.06057 10.4129 13.6867 12
599 1 18.8346 3.15729 10.3902 16
600 1 13.0434 13.3448 7.56754 13
601 1 8.10302 11.1855 8.36734 19
602 1 10.8783 0.283414 7.82917 22
603 1 2.47008 -15.4223 2.22787 19
604 1 -5.78185 9.98714 -9.5117 14
605 1 14.2125 2.9116 -13.5463 14
606 1 8.99283 -1.88317 -20.6417 12
607 1 4.37018 16.4251 -3.39484 12
608 1 4.44115 -12.8821 -15.9612 18
609 1 18.141 -6.08268 -12.279 12
610 1 -3.95065 0.471486 1.84501 19
611 1 -2.69906 6.78479 -13.5997 15
612 1 -4.93235 -15.6478 -0.693473 12
613 1 -6.08015 -0.552286 -14.1445 19
614 1 -0.013693 5.69038 -10.3326 18
615 1 9.41434 -9.24242 4.81414 20
616 1 13.5803 10.489 2.37982 18
617 1 7.74977 -15.0117 2.08677 14
618 1 -2.20478 -1.65894 -8.63932 21
619 1 -3.35168 -0.459957 -17.577 18
620 1 12.6725 -5.29773 11.685 15
621 1 13.65 0.66181 -11.2878 19
622 1 17.6878 -4.34825 4.93131 16
623 1 17.4488 1.40284 -13.4024 14
624 1 14.7794 13.9718 4.08846 12
625 1 3.15391 -19.9045 -11.0442 8
626 1 -1.70001 -7.68151 10.938 15
627 1 14.5582 -5.11659 -3.58619 20
628 1 3.89054 6.33019 7.94123 15
629 1 6.24342 13.1581 -14.4161 13
630 1 -5.9882 11.8889 -11.3702 11
631 1 20.3407 12.4351 4.40683 9
632 1 -2.26566 -15.5661 -5.56806 16
633 1 19.6469 -0.741133 1.35648 15
634 1 14.4896 12.3288 -3.50051 16
635 1 0.96439 2.1985 4.32476 18
636 1 -6.93751 -8.96034 -4.61007 15
637 1 -4.87255 -11.1455 -10.2839 16
638 1 16.2447 -6.3627 6.28765 14
639 1 4.81644 -8.2472 7.23768 17
640 1 15.2055 -4.96952 3.25643 22
641 1 0.00872363 14.2961 -0.367895 15
642 1 10.0736 1.17176 3.56004 17
643 1 19.0635 7.9797 8.75956 12
644 1 10.8082 -0.670557 -13.7914 23
645 1 -7.23447 5.12614 3.10076 10
646 1 9.88175 -3.2103 -15.3684 20
647 1 3.03296 -8.99192 -8.52215 20
648 1 12.4142 -11.6329 -7.47228 22
649 1 6.06974 3.20174 10.9484 21
650 1 8.39552 3.27072 1.49088 18
651 1 -6.2516 -9.51491 8.78541 11
652 1 8.88791 3.09583 11.8244 17
653 1 11.9492 -2.87658 9.90158 19
654 1 4.58921 1.39017 7.85968 17
655 1 11.1278 -8.566 -16.9828 22
656 1 -2.17667 0.358009 11.3457 15
657 1 6.63937 -3.95595 7.40753 20
658 1 2.8447 -17.0529 -0.412132 16
659 1 20.0393 6.87859 -0.950955 15
660 1 11.1334 -18.5127 -9.06485 13
661 1 1.85905 5.93481 -7.84597 18
662 1 12.2025 10.713 -8.64664 14
663 1 16.0942 4.9976 6.38513 19
664 1 7.02088 -4.25482 -19.9901 17
665 1 0.00896408 0.506514 1.57859 17
666 1 9.0188 8.80602 -7.86702 19
667 1 17.4825 13.5973 2.82674 14
668 1 0.739101 -7.06362 -8.24008 20
669 1 0.233512 -8.36231 -22.7229 7
670 1 0.766995 17.8716 -11.7468 10
671 1 13.1611 -10.5724 -19.0883 11
672 1 11.5379 8.21191 0.286542 20
673 1 18.1835 5.00145 -9.58785 14
674 1 10.1134 7.29469 -13.3083 20
675 1 0.93056 8.26936 0.634251 21
676 1 -0.0654155 7.40836 -2.16427 23
677 1 16.2005 3.48418 -11.1582 18
678 1 15.596 -5.4689 9.85138 14
679 1 18.336 -4.26644 8.23032 10
680 1 4.96006 -12.1159 7.87266 14
681 1 5.39594 -0.945742 -16.8032 17
682 1 8.20559 16.2029 4.32758 9
683 1 10.8735 -7.96629 -20.7893 13
684 1 7.09254 -0.208225 7.35955 18
685 1 6.61095 10.5842 -8.36406 19
686 1 5.33705 11.2159 3.94376 17
687 1 18.5231 -5.34325 -4.75919 13
688 1 11.7956 -0.277006 14.1294 12
689 1 -3.89256 -3.60856 0.0245478 20
690 1 11.0582 -14.1131 -7.05478 18
691 1 5.64086 -3.78189 -10.9063 20
692 1 -3.43984 12.3823 -2.61812 17
693 1 3.5395 -4.40271 2.54506 19
694 1 7.78098 -8.39556 -8.26044 21
695 1 6.27285 8.29034 3.65477 16
696 1 -4.33836 -0.873947 -5.40093 16
697 1 11.6685 0.0693467 11.0263 21
698 1 -5.4595 0.484842 -20.3269 10
699 1 1.12624 8.35961 -18.5073 11
700 1 15.247 -18.5422 -9.97377 9
701 1 6.51106 7.03223 -12.8174 21
702 1 12.6712 -6.54514 1.58375 19
703 1 0.483625 4.61777 1.03505 17
704 1 -5.09337 -2.49686 2.54225 20
705 1 7.28839 -7.09369 -21.4018 16
706 1 4.28448 -14.7516 -5.43962 22
707 1 12.1391 11.1831 -1.04677 16
708 1 0.736857 1.25484 12.2807 15
709 1 -9.53426 -10.5214 -9.4795 9
710 1 4.85498 -14.5582 -18.8251 15
711 1 -0.593457 -10.0176 -8.04087 20
712 1 3.73846 15.1697 -6.61898 16
713 1 10.6811 -12.212 -13.862 20
714 1 4.10728 9.35886 6.10479 13
715 1 16.1963 -10.2616 -8.20035 18
716 1 12.7395 -18.228 -11.7102 15
717 1 10.882 -9.67853 1.79791 15
718 1 18.7375 4.87234 -6.44622 13
719 1 11.2262 -18.2585 -14.8069 11
720 1 -5.38212 2.79101 5.52394 21
721 1 5.94548 -18.2474 -4.8902 14
722 1 -2.39286 -13.7999 -10.8197 17
723 1 -9.07571 2.31405 1.22735 15
724 1 5.1627 -15.8257 -2.70529 19
725 1 20.0089 -3.00099 -12.6982 12
726 1 -2.04594 14.9697 2.24574 12
727 1 2.35475 9.4158 2.90289 20
728 1 -4.82357 9.91954 -1.65617 16
729 1 14.671 -0.297793 0.638755 22
730 1 -7.11585 1.3292 -17.9412 8
731 1 5.5818 6.85722 -5.06171 17
732 1 11.1315 1.83149 -12.3518 22
733 1 12.1645 11.4876 10.6414 14
734 1 16.6324 7.1238 -11.8528 10
735 1 -5.00318 5.25397 -12.6885 14
736 1 -7.22634 -3.67783 -5.88722 18
737 1 6.65486 5.70301 12.0721 17
738 1 4.19961 1.38106 -19.2146 12
739 1 17.5502 4.43888 13.3952 9
740 1 -0.119902 3.58034 7.8606 19
741 1 5.47749 -18.4127 -12.9487 13
742 1 7.40339 -18.1568 -1.85895 10
743 1 3.36629 -10.1734 -2.01332 17
744 1 17.5032 5.57704 9.41884 17
745 1 5.40895 -7.89575 -11.3588 19
746 1 -7.02589 15.7573 -6.66512 10
747 1 12.1242 8.5251 -2.9747 17
748 1 -1.95919 -9.21809 -3.8875 17
749 1 14.9471 -1.74044 -13.2399 19
750 1 2.86828 -14.9672 -8.15109 22
751 1 12.7908 -14.8321 -4.96596 18
752 1 14.4739 -17.7071 -13.7245 11
753 1 11.1296 -1.07208 -10.7193 17
754 1 7.11335 15.8129 -5.24823 14
755 1 -2.08577 -0.559505 -20.4312 13
756 1 4.68415 -3.00075 10.1945 20
757 1 0.619838 0.0757198 -21.4296 12
758 1 -5.93011 -3.90023 -14.0516 19
759 1 -11.2891 1.69097 -6.37987 11
760 1 3.14637 5.3619 -16.0338 17
761 1 19.5998 4.82174 1.42095 17
762 1 2.00412 -4.16337 -17.9737 12
763 1 -3.1189 -8.16906 -6.54982 16
764 1 19.8178 -0.262686 -12.9507 11
765 1 16.9083 -6.19799 -1.97526 18
766 1 -4.07394 3.87199 11.6093 11
767 1 14.226 -11.1738 2.76221 13
768 1 16.5292 6.0305 1.89207 20
769 1 12.7427 -9.58197 5.60984 18
770 1 5.432 13.0302 -0.445856 18
771 1 -7.77141 0.388555 9.18377 15
772 1 -1.01748 4.39045 5.34343 16
773 1 0.767484 -13.0204 5.63496 18
774 1 13.4034 6.33034 -1.60063 18
775 1 15.2633 8.04996 7.3793 17
776 1 -5.24005 -3.72823 -3.50643 19
777 1 12.5971 -8.70424 -8.98567 17
778 1 -3.86116 14.3288 -11.4352 16
779 1 9.22506 6.75041 2.19466 20
780 1 -2.65379 -17.6876 -0.666108 9
781 1 15.5953 2.52175 11.0963 16
782 1 3.90858 15.3107 -0.398615 12
783 1 5.52249 -13.1132 3.50115 19
784 1 -4.92258 1.95757 -1.22319 20
785 1 8.79457 -1.38643 5.1354 22
786 1 -7.18151 -6.21709 -3.52111 16
787 1 11.8587 6.33277 15.4065 10
788 1 11.2969 9.09527 -10.4985 16
789 1 -3.14968 -10.4913 8.64804 15
790 1 1.96841 -16.0847 5.25318 11
791 1 15.3688 -7.90841 3.53518 15
792 1 19.5629 -3.60383 2.95699 12
793 1 9.36101 6.26387 5.83857 16
794 1 -3.46566 14.9636 -7.12248 18
795 1 4.95371 -9.83083 -13.7251 19
796 1 2.33353 -1.62175 -16.2396 18
797 1 -0.824524 -4.36326 12.512 11
798 1 -2.02314 16.7778 -3.85621 10
799 1 16.2697 1.50369 2.7751 18
800 1 2.05239 12.5728 -4.39143 19
801 1 -2.12212 6.50696 9.84073 14
802 1 17.1892 0.549796 -0.434111 19
803 1 11.1062 -2.91567 -18.157 17
804 1 -1.44439 -14.9339 -2.6192 17
805 1 0.20402 -9.12573 -15.8545 15
806 1 16.0303 1.62413 5.8596 20
807 1 5.31932 -6.92617 -18.6459 24
808 1 1.85311 -10.9143 7.00726 19
809 1 19.6035 -5.75685 -1.19181 15
810 1 2.92637 3.9726 -21.3169 7
811 1 3.71069 -12.2793 -8.14174 19
812 1 15.8536 -4.39032 -15.5429 19
813 1 20.9822 3.67 -0.824924 13
814 1 11.4354 -7.72274 10.1614 14
815 1 5.62818 -9.87188 -6.77494 20
816 1 16.9536 12.7569 -0.560117 15
817 1 1.78259 -10.1306 3.68405 18
818 1 -9.3349 -1.06019 0.30221 18
819 1 20.6385 -2.51032 -3.727 10
820 1 18.5391 10.2426 -1.08074 13
821 1 4.55162 -4.74579 -21.4555 14
822 1 2.2417 14.865 5.38305 11
823 1 20.3075 7.21217 6.59249 10
824 1 14.1991 5.17253 -7.32574 21
825 1 6.57258 1.90612 -16.9493 18
826 1 15.5204 -8.92785 -3.52898 15
827 1 -7.38916 2.35612 -8.43382 18
828 1 22.3157 9.52837 4.35292 8
829 1 -12.373 -6.6614 -0.196836 11
830 1 0.365718 11.1078 -16.3748 11
831 1 10.2528 3.73384 6.54157 20
832 1 -6.95496 -0.884331 -3.3104 19
833 1 1.40819 -1.3824 3.9951 19
834 1 5.8048 0.947491 -14.0145 21
835 1 15.877 -7.29085 -6.3268 18
836 1 -10.6856 -11.1245 -3.78536 7
837 1 18.253 -9.64812 -3.18832 11
838 1 -9.94354 3.44715 -9.29319 9
839 1 -4.62467 -5.42616 -5.50879 19
840 1 17.7623 3.31532 -0.525763 17
841 1 -0.415458 -15.9083 2.98183 14
842 1 19.6543 -0.626985 8.59976 13
843 1 16.5975 -0.962558 6.47621 17
844 1 14.8124 -7.92685 0.89145 20
845 1 -6.82657 4.49619 0.261938 17
846 1 7.88619 9.82365 1.64393 16
847 1 4.6784 6.78285 -10.135 19
848 1 6.14457 -9.80202 -20.3037 20
849 1 -3.02553 8.77607 4.4832 15
850 1 -7.93741 -13.7858 1.06725 11
851 1 14.0743 11.6203 -12.8994 4
852 1 4.77323 10.2682 9.09764 12
853 1 17.5718 -3.32593 -11.173 19
854 1 9.06276 -8.16527 7.72962 18
855 1 3.73258 9.00729 -13.5477 19
856 1 0.833974 9.90867 -7.05722 16
857 1 -0.571224 -5.89495 7.68324 15
858 1 22.1669 6.64565 2.00986 8
859 1 2.38151 -13.699 -11.1871 19
860 1 14.6164 12.4626 1.10171 15
861 1 -9.69457 7.56971 -5.73449 13
862 1 -3.00827 -15.9189 4.87764 9
863 1 9.72409 3.34624 -17.6337 10
864 1 9.15897 -1.66466 8.69976 18
865 1 10.8955 -18.9783 -2.3444 10
866 1 -2.74592 12.6066 0.509603 18
867 1 -2.17409 4.90986 -8.1828 20
868 1 19.6162 -1.40933 -9.44914 14
869 1 5.55992 -16.5955 -16.8721 12
870 1 -2.66902 9.37421 -7.44055 17
871 1 14.6672 8.60976 -11.1345 15
872 1 0.890596 -7.41209 2.68548 21
873 1 15.7143 -6.41887 -18.4189 8