ITEM: TIMESTEP
89000
ITEM: NUMBER OF ATOMS
500
ITEM: BOX BOUNDS pp pp pp
-30.0 30.0
-30.0 30.0
-30.0 30.0
ITEM: ATOMS id type x y z Coordination
1 1 -8.32782 11.2955 -3.74474 22
2 1 -17.4173 16.3654 3.60234 11
3 1 -4.22768 11.3489 -4.79693 10
4 1 -26.8247 10.1828 -6.44084 12
5 1 -17.6531 14.6459 -16.2979 15
6 1 -14.0179 11.9528 -0.129331 20
7 1 -23.2778 12.7603 -8.47216 24
8 1 -13.9613 11.8655 -16.8437 12
9 1 -8.86285 6.50496 -10.5194 14
10 1 -10.2247 14.0027 -3.23278 21
11 1 -15.8688 19.3711 -12.1708 19
12 1 -14.7553 17.2235 1.76964 13
13 1 -23.2711 10.752 -5.78338 25
14 1 -24.941 9.70395 -9.21344 18
15 1 -7.72438 10.8688 -14.0272 14
16 1 -12.0695 9.47512 0.473702 17
17 1 -22.3813 5.13636 -6.29864 15
18 1 -23.1043 8.2771 -17.4367 10
19 1 -13.3833 13.7369 -13.1068 21
20 1 -9.72462 5.74558 -5.4203 17
21 1 -23.913 18.3422 -3.37053 13
22 1 -15.2975 20.7806 -5.98456 12
23 1 -14.5362 10.9102 -13.0031 22
24 1 -19.1614 13.8385 1.96667 13
25 1 -8.56016 9.31258 -5.68294 24
26 1 -20.4961 18.7628 -3.08676 18
27 1 -13.9911 16.9631 -11.3266 21
28 1 -8.14151 20.7043 -9.65945 8
29 1 -11.5792 21.9906 -9.38412 12
30 1 -20.4906 17.1402 -12.0693 17
31 1 -19.162 19.9524 -11.1536 11
32 1 -13.9848 19.5697 -9.15113 17
33 1 -25.3606 13.3045 -6.35741 17
34 1 -17.6953 19.0262 2.55433 10
35 1 -20.1082 12.8872 -14.6037 18
36 1 -19.6688 5.57708 -0.479867 20
37 1 -6.6777 8.86103 -12.0443 13
38 1 -25.8287 11.6878 -1.03715 11
39 1 -22.9954 10.6605 -11.2809 22
40 1 -16.1755 1.3267 -2.37151 13
41 1 -8.85928 14.3881 -11.8469 19
42 1 -22.4222 11.1037 -16.4764 17
43 1 -15.7156 16.3251 -13.6846 24
44 1 -14.5913 0.574761 -5.181 12
45 1 -16.0629 20.7669 -9.37534 11
46 1 -26.6982 12.3531 -3.91247 12
47 1 -12.8651 18.7194 -0.710057 12
48 1 -8.77122 10.2411 -0.334081 17
49 1 -11.326 3.32309 -5.14597 18
50 1 -6.12304 13.3657 -12.7393 14
51 1 -21.3293 4.13658 -9.20848 15
52 1 -17.7618 4.78558 -2.53872 20
53 1 -10.1528 7.3079 -0.129587 13
54 1 -13.0393 6.25728 0.556822 14
55 1 -8.93244 20.7199 -6.89668 11
56 1 -19.3745 2.2893 -2.25446 15
57 1 -17.2513 2.89909 -5.37073 20
58 1 -19.221 5.36496 -11.0514 19
59 1 -18.2051 8.4785 -0.424943 19
60 1 -25.1683 9.67838 -3.48464 15
61 1 -12.831 1.45159 -7.50033 12
62 1 -24.2558 8.17217 -6.50641 17
63 1 -22.1654 20.1021 -5.79923 10
64 1 -20.5779 14.8132 -0.16459 18
65 1 -20.3356 17.0867 2.17238 14
66 1 -24.7838 8.86275 -14.9701 17
67 1 -22.705 14.1808 -16.0751 12
68 1 -18.7304 7.44921 -13.5705 18
69 1 -5.74121 9.02646 -4.17521 15
70 1 -16.1725 5.96255 0.323781 13
71 1 -19.8468 12.2474 -17.5775 12
72 1 -25.9329 10.7433 -12.3445 14
73 1 -15.9284 1.85447 -8.35995 15
74 1 -24.207 15.1562 -1.36691 14
75 1 -21.5692 15.969 -8.23356 21
76 1 -16.905 3.39449 -12.1751 11
77 1 -16.0206 18.8936 -0.477492 16
78 1 -25.4509 11.3897 -16.0118 9
79 1 -24.9008 15.3127 -8.5523 15
80 1 -18.2319 1.4135 -10.1651 14
81 1 -9.04065 5.15757 -2.24732 14
82 1 -23.5029 16.8755 -10.6891 13
83 1 -21.0832 8.58711 0.426755 16
84 1 -23.9153 12.6962 -3.26691 21
85 1 -14.0688 4.12517 -13.1015 11
86 1 -16.7334 11.9566 0.407876 21
87 1 -14.2329 2.97504 -8.47465e-04 12
88 1 -11.8845 6.01354 -10.8555 18
89 1 -7.96281 17.6575 -8.14591 11
90 1 -11.7053 13.0562 -16.2055 13
91 1 -6.12581 5.7539 -4.38986 9
92 1 -20.4245 2.80508 -11.5814 12
93 1 -23.6604 9.15593 -0.546728 14
94 1 -5.62158 11.0164 -1.75057 13
95 1 -5.90261 16.2326 -11.4237 13
96 1 -13.6907 17.7342 -16.9592 8
97 1 -15.7867 20.235 -15.2969 11
98 1 -10.473 19.2334 -3.44654 12
99 1 -8.59456 13.329 -15.2014 12
100 1 -9.28934 2.044 -2.10048 9
101 1 -7.76541 9.15984 -9.0945 21
102 1 -11.482 0.413103 -4.46001 9
103 1 -22.9672 15.8936 -13.7159 13
104 1 -5.30166 10.1674 -7.82312 18
105 1 -18.6769 18.5174 -14.1121 16
106 1 -11.989 2.48385 -10.5911 10
107 1 -23.0139 7.31958 -3.36216 19
108 1 -19.024 0.853189 -7.24703 11
109 1 -15.9406 7.35085 -13.3312 16
110 1 -12.1309 19.8099 -6.34827 15
111 1 -12.6195 4.81079 -2.55592 17
112 1 -24.411 5.8613 -14.9079 8
113 1 -14.1291 11.378 2.77141 10
114 1 -15.9264 14.1969 2.6036 14
115 1 -11.3705 11.1578 -13.2182 18
116 1 -24.855 13.7744 -11.6741 17
117 1 -10.8601 19.8292 -11.1682 14
118 1 -9.62965 11.5311 -10.3507 18
119 1 -17.1952 17.4571 -16.3154 14
120 1 -22.0226 15.7435 -2.94609 21
121 1 -15.1437 9.2695 0.115946 18
122 1 -23.927 12.4107 -13.7405 20
123 1 -4.17727 7.93408 -6.33289 10
124 1 -10.9594 12.455 0.195938 16
125 1 -12.7228 1.77427 -2.56724 17
126 1 -5.07515 14.0655 -7.1925 13
127 1 -6.19372 13.4739 -4.11969 15
128 1 -21.8812 6.93471 -15.1288 15
129 1 -10.3616 15.7038 -0.621342 13
130 1 -18.976 15.4858 -13.6015 20
131 1 -18.1666 17.3963 -0.608033 18
132 1 -21.3993 1.32795 -8.7054 8
133 1 -12.0124 16.7336 -2.64127 19
134 1 -21.5594 17.2588 -0.593366 17
135 1 -20.4139 17.2149 -5.71228 23
136 1 -8.59704 17.586 -11.1051 15
137 1 -12.9529 14.6056 1.23571 13
138 1 -17.0827 11.3489 -17.4707 9
139 1 -15.6357 14.9258 -0.443445 18
140 1 -5.27228 7.72773 -10.1525 12
141 1 -8.55659 16.4474 -3.15329 13
142 1 -9.88772 7.76896 -3.26533 19
143 1 -17.5609 19.3082 -3.31902 18
144 1 -12.5729 8.27217 -13.5336 15
145 1 -10.7718 3.93302 -0.03375 14
146 1 -19.8627 11.4459 -0.322015 18
147 1 -7.92341 12.0352 -7.42584 21
148 1 -13.606 21.404 -12.1372 11
149 1 -7.95001 16.1749 -14.0002 13
150 1 -19.2412 10.5488 2.67557 8
151 1 -23.034 5.82261 -0.390281 12
152 1 -23.4963 17.7807 -6.76233 14
153 1 -3.7738 13.9312 -10.4983 10
154 1 -22.1349 4.36918 -3.3371 16
155 1 -6.98083 14.5586 -9.26887 21
156 1 -20.2756 2.75782 -5.46053 15
157 1 -8.41509 14.81 -6.26126 19
158 1 -10.0675 7.48356 -7.61726 23
159 1 -13.8222 19.2804 -3.30938 15
160 1 -24.4607 7.48185 -12.1293 16
161 1 -18.432 18.4403 -8.61423 17
162 1 -11.0909 15.9213 -15.3706 13
163 1 -21.1756 9.76028 -13.8554 18
164 1 -16.0873 9.45278 -15.1639 12
165 1 -14.8968 0.877305 -11.2907 8
166 1 -14.6847 3.75112 -4.37696 21
167 1 -6.9256 6.89205 -6.8066 17
168 1 -26.4351 12.448 -9.15585 14
169 1 -20.2665 16.7305 -16.2488 12
170 1 -22.6551 5.27254 -11.9916 15
171 1 -7.34878 8.29515 -2.00159 14
172 1 -19.5906 8.75701 -16.7672 13
173 1 -24.9147 15.7828 -4.64986 17
174 1 -22.9002 12.0498 -0.381198 15
175 1 -10.4255 17.5119 -5.67896 18
176 1 -6.63972 11.6544 -10.3749 21
177 1 -17.5516 2.75794 0.0364905 12
178 1 -14.3479 15.0278 -15.9461 14
179 1 -11.1072 17.0895 -12.6668 15
180 1 -7.84095 13.6603 -0.920555 15
181 1 -13.235 19.1031 -14.0685 16
182 1 -4.45423 10.8162 -12.2028 11
183 1 -9.52505 8.05025 -13.2123 16
184 1 -19.2722 19.6954 -0.189864 12
185 1 -18.9552 20.0329 -5.76303 14
186 1 -21.13 2.71954 -0.169561 8
187 1 -11.5074 4.72488 -8.28089 17
188 1 -22.9357 6.8903 -9.09996 18
189 1 -21.3133 18.644 -9.15016 17
190 2 -25.1504 9.61761 -5.63619 17
191 2 -8.84598 16.8354 -6.6954 17
192 2 -19.6511 11.1392 -13.9024 19
193 2 -26.0984 12.2446 -11.2453 15
194 2 -19.3848 2.30628 -0.0607332 9
195 2 -13.9905 9.95372 1.4532 12
196 2 -8.74388 11.1173 -5.83308 17
197 2 -24.8413 13.3618 -1.62449 14
198 2 -10.444 7.52777 -11.3658 17
199 2 -23.9166 12.5056 -15.9447 11
200 2 -17.3025 8.24024 -14.4219 15
201 2 -18.9105 19.1082 -1.98732 18
202 2 -10.3495 4.5921 -3.76106 19
203 2 -9.65483 21.5604 -8.7243 10
204 2 -18.9153 17.7387 3.31265 8
205 2 -10.235 17.3649 -3.69321 16
206 2 -12.626 16.592 -16.1444 14
207 2 -12.1404 11.2947 -16.1915 10
208 2 -21.5644 15.6612 -15.7533 12
209 2 -13.2983 0.489293 -3.96508 13
210 2 -26.2891 10.8992 -2.66603 13
211 2 -12.6817 4.33534 -11.7699 11
212 2 -11.7031 1.56928 -5.86053 14
213 2 -14.1667 18.431 0.455763 13
214 2 -10.0362 9.0105 0.488433 14
215 2 -21.4538 2.95642 -2.21813 13
216 2 -17.5341 2.75763 -1.98879 16
217 2 -21.142 4.24557 -5.0503 16
218 2 -21.5687 2.57914 -10.168 12
219 2 -20.3361 2.24476 -7.29932 17
220 2 -17.8244 19.8958 -9.78725 14
221 2 -13.6239 13.6369 -16.6414 12
222 2 -3.96926 14.3582 -8.76393 10
223 2 -9.73104 16.9397 -14.7464 12
224 2 -22.3279 16.5097 -12.2139 15
225 2 -7.1134 13.8577 -7.56677 18
226 2 -16.9765 20.0521 -5.04521 12
227 2 -22.2851 18.2075 -2.24026 15
228 2 -13.8573 19.1547 -5.323 17
229 2 -14.8477 20.8007 -13.6045 11
230 2 -19.6763 16.261 -1.17813 21
231 2 -16.4987 7.88876 -0.310354 18
232 2 -11.1016 9.15904 -14.1565 14
233 2 -13.2332 1.34447 -10.7769 9
234 2 -22.5629 5.64654 -13.9015 10
235 2 -22.3393 5.40362 -8.16635 17
236 2 -8.32055 8.16825 -7.33808 20
237 2 -7.50466 15.0377 -4.22525 14
238 2 -17.9625 13.0206 -17.2283 10
239 2 -15.3321 10.6896 -16.5813 12
240 2 -21.3841 8.6823 -16.9406 12
241 2 -15.095 2.6622 -12.3366 11
242 2 -9.25911 11.6325 -14.9122 12
243 2 -19.4799 5.64459 -2.73731 23
244 2 -14.495 8.84739 -13.8973 16
245 2 -16.2742 1.01051 -10.0481 11
246 2 -18.4758 13.8034 -14.4589 21
247 2 -20.6917 17.0556 -3.79245 24
248 2 -18.0592 4.68709 -5.71402 21
249 2 -20.495 18.413 0.608628 14
250 2 -23.0871 5.5998 -2.38705 14
251 2 -26.3704 10.6422 -8.25317 15
252 2 -11.353 5.65484 0.144694 14
253 2 -9.59899 16.1534 -12.0668 17
254 2 -16.3112 11.4578 -13.7253 18
255 2 -13.7603 17.1439 -3.28062 21
256 2 -11.9548 19.3195 -2.23297 11
257 2 -12.7 12.5914 1.53534 12
258 2 -22.3587 14.013 -3.8902 22
259 2 -23.0845 12.5594 -11.8501 18
260 2 -4.4356 12.0485 -10.5745 13
261 2 -24.3356 8.2647 -8.27077 17
262 2 -20.0991 17.1699 -14.1978 16
263 2 -10.3408 14.0762 -15.815 11
264 2 -22.2937 15.9687 -6.55125 21
265 2 -9.99276 6.07673 -9.13605 16
266 2 -11.3752 5.22454 -6.36667 19
267 2 -23.7354 19.0609 -5.15691 13
268 2 -15.0329 1.90295 -1.19375 11
269 2 -12.04 3.02685 -8.58776 13
270 2 -9.03108 14.9611 -1.964 15
271 2 -14.8121 20.2796 -10.7954 18
272 2 -22.6533 7.52128 0.288656 12
273 2 -15.652 2.0383 -4.31834 15
274 2 -20.0191 7.55667 -0.884576 21
275 2 -15.3555 16.7014 -16.5019 14
276 2 -4.76924 9.12051 -11.2791 13
277 2 -12.0229 11.0786 -0.69143 20
278 2 -7.77922 19.5412 -7.86004 10
279 2 -16.2196 16.7413 -1.08281 20
280 2 -23.1482 6.73996 -5.6054 16
281 2 -16.0916 17.938 3.08351 10
282 2 -7.19548 10.0817 -1.23529 13
283 2 -17.5168 16.5013 -14.167 22
284 2 -14.9345 15.2714 1.36045 16
285 2 -7.7987 5.50117 -5.51418 13
286 2 -25.5232 10.47 -14.2457 13
287 2 -20.0429 17.289 -8.70813 20
288 2 -22.7962 10.7804 -14.5591 21
289 2 -21.4161 4.76739 0.259194 12
290 2 -7.02938 17.2941 -12.5616 10
291 2 -24.9336 7.31605 -13.9784 12
292 2 -4.82703 7.52334 -8.03844 11
293 2 -22.9711 17.3758 -8.99685 14
294 2 -5.44534 6.98209 -5.55123 11
295 2 -24.1828 8.45604 -2.3001 15
296 2 -20.2917 7.93526 -14.7659 16
297 2 -14.756 17.8663 -13.0211 21
298 2 -23.9208 16.3315 -3.02894 15
299 2 -14.4529 5.24681 0.194682 14
300 2 -24.8497 16.3442 -6.6029 15
301 2 -21.5789 19.4953 -7.47799 14
302 2 -17.739 14.7386 2.89423 12
303 2 -23.9324 14.5072 -13.4198 12
304 2 -12.3537 20.7751 -8.10372 16
305 2 -20.4462 15.2883 1.99542 12
306 2 -14.1215 13.7447 -1.02547 21
307 2 -23.642 6.68183 -16.4875 9
308 2 -17.9223 18.9328 -12.4446 20
309 2 -17.4754 4.9431 -11.4361 18
310 2 -10.2365 11.9036 -3.27137 21
311 2 -4.9239 14.7108 -11.9494 15
312 2 -12.3616 3.2123 -0.956632 13
313 2 -9.96475 13.4919 -10.6681 18
314 2 -11.724 17.1637 -0.634575 13
315 2 -20.5273 13.1687 -0.957286 18
316 2 -23.0152 6.88539 -11.0975 16
317 2 -20.8862 4.67656 -11.4766 14
318 2 -14.9835 20.792 -7.74998 11
319 2 -25.1519 13.7903 -4.52927 16
320 2 -23.3196 11.0185 -3.71151 23
321 2 -17.4119 2.43313 -7.37437 16
322 2 -11.4517 14.3825 0.0905022 16
323 2 -14.1496 19.3525 -16.0639 10
324 2 -12.3843 16.15 -11.5595 18
325 2 -15.3172 5.55708 -12.8395 15
326 2 -7.11287 12.6436 -2.46629 15
327 2 -8.95415 12.1869 -0.334126 15
328 2 -12.1265 21.2082 -11.0626 11
329 2 -24.2784 9.69316 -16.5871 12
330 2 -18.9889 10.4048 -17.4654 12
331 2 -17.7473 18.9141 0.685749 15
332 2 -20.3391 18.6913 -10.7567 17
333 2 -24.7081 15.1119 -10.3593 16
334 2 -22.372 15.3444 -0.7427 17
335 2 -14.9153 14.4821 -14.0245 21
336 2 -7.95061 9.05861 -13.529 11
337 2 -25.0997 13.4664 -8.20594 16
338 2 -17.2437 19.3096 -15.6244 13
339 2 -5.9708 7.33873 -2.94649 13
340 2 -24.4056 10.7733 0.210728 10
341 2 -21.845 10.3276 -0.924702 18
342 2 -9.11468 6.96979 -1.65171 14
343 2 -26.9876 12.1304 -5.80221 12
344 2 -19.1915 9.0718 1.42387 11
345 2 -17.7979 4.94874 -0.295659 14
346 2 -4.9147 9.78188 -6.02781 12
347 2 -14.7276 1.33217 -6.96034 13
348 2 -20.6677 19.6387 -4.86308 15
349 2 -21.2792 12.8799 -16.5489 13
350 2 -21.361 8.40357 -4.02529 21
351 2 -13.238 8.01439 -0.164815 18
352 2 -7.08039 13.4511 -10.7168 20
353 2 -5.05448 10.587 -3.38833 12
354 2 -8.24874 9.32906 -3.56822 19
355 2 -7.91938 9.90268 -10.8967 20
356 2 -12.8538 3.55248 -4.09999 18
357 2 -10.3977 7.69162 -5.37418 19
358 2 -18.7925 12.0413 1.17353 14
359 2 -7.29657 16.3943 -9.64466 15
360 2 -24.5549 9.47573 -11.4953 18
361 2 -23.4384 12.6112 -6.53997 24
362 2 -9.1689 3.56477 -1.14618 9
363 2 -11.7944 18.9262 -12.935 16
364 2 -6.15641 11.4576 -13.217 14
365 2 -9.24795 19.1784 -10.4271 14
366 2 -13.1213 6.20873 -3.52381 21
367 2 -7.3024 7.49955 -10.4303 15
368 2 -10.7417 1.37388 -2.83359 12
369 2 -18.6395 2.20142 -12.048 10
370 2 -10.2178 19.7529 -5.56869 12
371 2 -15.5112 19.4009 -2.48235 17
372 2 -19.0314 2.01992 -4.24575 16
373 2 -15.4488 12.3922 1.95022 16
374 2 -5.03089 12.9682 -5.42187 12
375 2 -7.75768 14.1488 -13.5917 15
376 2 -18.6443 16.2032 -16.6748 12
377 2 -19.557 0.490557 -9.20928 10
378 2 -6.7271 10.8015 -8.66526 21
379 1 -21.1194 7.89887 -11.1801 21
380 1 -17.8183 10.5139 -13.5008 22
381 1 -15.9286 5.91762 -10.9109 20
382 1 -18.3098 8.35666 -10.8569 21
383 2 -19.5982 5.05217 -8.66317 21
384 2 -21.2218 8.01754 -9.00727 23
385 2 -21.3092 9.77223 -11.8209 22
386 2 -19.4017 7.2358 -11.8335 21
387 2 -16.0877 5.63586 -8.53087 19
388 2 -18.3444 8.33151 -8.86287 23
389 2 -18.0955 10.208 -11.1602 21
390 2 -16.3494 7.77583 -11.3839 21
391 1 -21.8066 9.84957 -8.39806 22
392 1 -19.629 7.10033 -8.02056 24
393 1 -19.587 5.26186 -4.92931 21
394 1 -21.462 7.86487 -5.9774 21
395 1 -21.6417 10.1241 -3.05589 22
396 1 -19.9335 7.54231 -2.90572 22
397 1 -17.7027 4.53932 -7.94414 23
398 1 -18.14 10.2127 -8.50309 21
399 1 -16.6436 7.75944 -8.07499 22
400 1 -16.648 5.94381 -5.11116 21
401 1 -18.2636 8.34155 -5.48664 23
402 1 -18.2985 10.5178 -3.07424 20
403 1 -16.1887 7.88245 -2.75267 22
404 2 -21.6902 9.83608 -6.46588 23
405 2 -19.707 6.966 -6.12091 22
406 2 -16.4311 6.0858 -3.1362 22
407 2 -17.9292 8.67477 -3.57661 22
408 2 -18.3782 9.97463 -6.35019 23
409 2 -16.5062 7.57715 -6.08502 24
410 2 -18.3986 10.2571 -1.08298 23
411 1 -19.9718 10.9119 -10.8517 22
412 1 -21.7138 13.643 -10.9943 22
413 1 -16.7028 13.304 -13.7004 21
414 1 -16.545 11.6671 -10.7387 22
415 1 -18.5565 14.137 -11.2816 22
416 1 -17.6649 16.9737 -11.056 24
417 2 -23.2086 11.0903 -9.42774 22
418 2 -20.2689 11.0239 -8.82449 21
419 2 -21.8771 14.2327 -9.20384 23
420 2 -19.7774 12.8549 -11.3191 20
421 2 -18.5819 18.2412 -6.70152 18
422 2 -13.0204 11.8578 -13.5298 19
423 2 -16.4277 11.476 -8.52471 21
424 2 -18.4097 13.9205 -8.90433 24
425 2 -19.0954 15.7489 -11.7941 22
426 2 -16.6353 13.2691 -11.6478 24
427 2 -17.294 16.9344 -9.05601 20
428 1 -20.1676 12.9112 -8.32528 22
429 1 -20.089 10.9514 -5.83785 21
430 1 -22.152 14.0148 -5.85405 25
431 1 -20.4704 12.8872 -2.99983 23
432 1 -18.6128 15.9274 -8.21963 23
433 1 -16.7263 13.418 -8.28973 21
434 1 -16.7966 11.2915 -5.62893 21
435 1 -18.8273 13.94 -5.56687 21
436 1 -19.132 16.0745 -3.08483 22
437 1 -16.8285 13.41 -3.01309 21
438 1 -17.4188 16.866 -5.58014 21
439 2 -20.1169 11.3727 -3.90291 24
440 2 -20.3335 13.1049 -6.4947 21
441 2 -16.5761 11.3907 -3.58068 21
442 2 -18.9217 14.2048 -3.58273 22
443 2 -18.8861 15.7475 -6.27483 22
444 2 -16.6303 13.343 -6.31832 22
445 2 -17.0545 13.3223 -1.02601 23
446 2 -17.7145 17.3877 -3.69535 22
447 1 -10.8634 10.1152 -15.626 13
448 1 -14.6983 8.70881 -10.6415 23
449 1 -11.5339 8.88804 -10.6928 22
450 2 -12.682 6.07875 -9.037 21
451 2 -14.7929 8.63951 -8.73013 20
452 2 -14.6047 10.6596 -10.8858 19
453 2 -12.9292 8.33536 -11.7062 22
454 2 -11.3939 8.75581 -8.40911 24
455 2 -11.4214 10.969 -11.3044 21
456 1 -14.4502 5.21095 -7.89304 18
457 1 -14.6296 10.7803 -8.11066 22
458 1 -13.1028 7.74276 -8.0389 25
459 1 -13.0574 6.05374 -5.53405 22
460 1 -14.8665 8.82993 -5.35924 24
461 1 -15.0356 10.8101 -2.93259 23
462 1 -13.0339 7.94161 -2.3055 22
463 1 -11.2976 10.7962 -8.08884 21
464 1 -12.023 8.78137 -5.18148 22
465 1 -11.8621 10.7382 -2.60713 24
466 2 -14.7129 4.82885 -5.99241 22
467 2 -14.5461 8.9807 -3.26937 22
468 2 -14.8023 10.7351 -6.1409 22
469 2 -13.4639 7.78911 -6.15634 22
470 2 -15.4493 10.8505 -0.874753 22
471 2 -11.3776 8.98554 -3.19773 21
472 2 -11.6528 10.7887 -6.17966 24
473 1 -13.1234 11.9211 -10.7392 22
474 1 -15.6237 14.6614 -10.5175 24
475 1 -12.0628 14.4985 -10.5325 19
476 2 -12.588 12.1592 -8.88749 21
477 2 -15.1537 14.478 -8.76232 24
478 2 -15.761 16.4392 -11.363 20
479 2 -13.6002 13.7583 -11.108 19
480 2 -13.9312 17.5262 -9.42351 20
481 2 -9.54379 12.1141 -8.45062 21
482 2 -11.9261 15.1473 -8.66472 17
483 1 -15.4819 16.7991 -8.24464 20
484 1 -13.3782 13.8779 -8.03774 25
485 1 -13.4946 11.9373 -5.45236 23
486 1 -15.3792 14.6665 -5.6524 19
487 1 -15.7594 16.7355 -3.03319 20
488 1 -13.4741 13.934 -3.04411 21
489 1 -14.0004 17.1096 -5.3767 20
490 1 -12.0607 16.9277 -8.53657 18
491 1 -10.7122 13.7763 -8.16373 21
492 1 -10.4599 12.0629 -5.41949 21
493 1 -11.7402 15.1285 -5.62735 20
494 2 -13.2315 11.871 -3.52988 22
495 2 -15.4314 14.5554 -3.63466 22
496 2 -15.4983 16.4655 -6.49004 20
497 2 -13.2097 14.0406 -6.15837 21
498 2 -11.7288 15.0549 -3.60413 21
499 2 -11.9166 17.0556 -6.70562 20
500 2 -10.181 13.8846 -5.98229 22
