ITEM: TIMESTEP
279000
ITEM: NUMBER OF ATOMS
1500
ITEM: BOX BOUNDS pp pp pp
-30.0 30.0
-30.0 30.0
-30.0 30.0
ITEM: ATOMS id type x y z Coordination
1 1 -5.11026 -8.83463 -8.02579 20
2 1 8.39034 -9.888 6.77057 14
3 1 -9.53555 6.50964 0.126035 19
4 1 -13.5706 3.64044 -7.69081 17
5 1 -3.38903 -6.60412 8.90192 21
6 1 -12.7513 -1.53749 -8.93912 15
7 1 -1.98168 0.679606 -6.4409 20
8 1 -7.77549 -11.0002 2.20693 21
9 1 -14.1054 -7.72818 1.38687 16
10 1 4.93488 4.91488 15.5892 10
11 1 5.95078 -4.34566 5.51674 22
12 1 0.269383 1.28436 9.55079 20
13 1 7.38419 -1.25494 4.55361 21
14 1 -2.16356 9.00931 -10.6948 18
15 1 3.19605 -2.78941 12.5378 19
16 1 10.6021 5.76507 7.65928 16
17 1 0.597354 11.2731 -10.3247 14
18 1 1.07544 5.4212 -11.7142 23
19 1 -7.85866 -0.734673 1.62882 24
20 1 -2.23558 -1.36863 -9.10225 21
21 1 7.11611 -11.8651 4.32879 16
22 1 0.430148 -1.84065 7.95516 18
23 1 8.2082 -11.1945 1.05496 15
24 1 -8.90188 -12.4549 -4.89289 13
25 1 4.12204 -3.88305 -5.52296 21
26 1 2.34763 -7.13496 -12.5749 16
27 1 1.19706 2.74829 12.2323 23
28 1 -3.82211 -12.7546 7.03282 16
29 1 3.60096 -5.5535 11.5462 17
30 1 -13.2164 -1.61256 1.82173 22
31 1 -6.74575 -3.25015 0.681324 21
32 1 -0.807478 11.5397 -5.04221 22
33 1 2.89474 1.91351 -7.4075 21
34 1 3.28743 -5.40469 -11.1097 20
35 1 -1.93935 -8.72548 11.3947 14
36 1 -7.46455 1.86016 -3.30665 20
37 1 1.4807 13.3306 7.16404 17
38 1 -10.302 8.82385 -6.96088 15
39 1 2.5723 14.834 -0.704285 16
40 1 3.31817 -13.1095 -0.901056 20
41 1 5.01699 -6.88974 -6.21756 22
42 1 -8.85163 4.14083 8.39828 17
43 1 -12.5682 -6.80259 -6.85454 18
44 1 7.9001 1.21708 6.38082 22
45 1 -7.23695 7.12655 -1.96824 14
46 1 -8.03456 -8.89996 7.43243 18
47 1 -11.9096 6.18733 -7.55279 17
48 1 2.1687 8.7651 -6.40983 17
49 1 0.629357 6.49306 1.78794 19
50 1 2.90989 2.79029 9.20321 20
51 1 4.91936 -14.7978 -3.79836 15
52 1 2.20473 5.59503 13.6222 21
53 1 13.0085 -4.28036 -7.13731 14
54 1 9.02772 -8.91802 3.58408 16
55 1 -10.0718 -3.0307 1.40898 23
56 1 6.16439 -1.9597 13.8747 15
57 1 -7.4187 -6.37472 5.01684 20
58 1 -9.18916 -3.7083 -1.57136 23
59 1 13.1982 3.30426 7.04404 16
60 1 7.90409 -2.33765 -4.00773 21
61 1 -0.381067 10.7763 6.48211 23
62 1 4.7743 -1.21588 5.58771 22
63 1 -6.49182 -5.55031 2.66707 22
64 1 -4.93853 -6.39945 -9.49379 25
65 1 -6.31384 10.9071 0.335692 19
66 1 -1.40188 8.86096 -7.53354 19
67 1 3.89523 -0.134314 -5.10646 22
68 1 6.4931 -1.62132 -6.2737 22
69 1 8.23357 -6.28097 3.8211 24
70 1 7.32453 -10.1929 9.90382 11
71 1 -2.9616 14.0416 -7.00299 13
72 1 -6.25811 9.58044 4.01745 21
73 1 -4.42579 12.6709 7.77132 12
74 1 -9.3334 -4.4133 11.7248 11
75 1 11.6457 -7.34874 -6.18105 15
76 1 -8.85618 1.06408 4.3211 18
77 1 8.13646 -7.23264 -5.16869 21
78 1 5.60914 -1.51137 -14.0082 12
79 1 -8.00251 -2.05282 -13.9281 14
80 1 4.1496 3.05867 2.03428 23
81 1 2.17183 9.88106 -3.67929 21
82 1 -8.54606 6.22507 -7.63534 21
83 1 0.00736287 13.8812 -8.16819 14
84 1 1.94136 8.96119 1.03346 22
85 1 -3.90822 2.95029 -4.76916 20
86 1 -5.04965 -8.83917 10.3084 16
87 1 -1.56841 -4.46019 -8.95009 23
88 1 3.54818 -7.6463 -8.87969 22
89 1 0.536686 0.055756 12.681 18
90 1 -10.2308 -6.42648 -3.01319 21
91 1 6.49123 -3.24944 2.00786 23
92 1 -9.4007 -9.95722 -2.94653 20
93 1 10.9543 -6.33697 2.73423 17
94 1 -5.23539 5.25363 3.3213 20
95 1 4.53555 1.83554 -13.7973 14
96 1 -3.62539 5.5696 0.201379 19
97 1 2.91234 5.36737 -6.38615 18
98 1 9.86476 -8.5259 0.236673 15
99 1 -1.89557 -13.1993 4.60587 16
100 1 -17.2353 -7.96175 2.45477 6
101 1 -17.53 -4.59992 1.67392 11
102 1 10.1437 10.5349 3.24304 21
103 1 7.1446 5.27274 -0.0204703 21
104 1 -2.76824 10.3274 9.12436 18
105 1 -6.71616 8.51492 -7.20177 21
106 1 -1.82818 -7.83557 -9.0067 18
107 1 6.84508 -4.9531 12.4304 13
108 1 -4.16445 6.92422 -8.67871 19
109 1 9.0899 0.176082 -4.95955 23
110 1 -10.438 10.3547 -3.71954 13
111 1 4.29429 -2.46246 -0.0827043 22
112 1 -5.05705 13.7155 1.42141 13
113 1 7.16976 3.78918 -12.6237 15
114 1 10.1623 -7.19526 5.95298 15
115 1 -5.52243 5.39632 -6.20696 20
116 1 -2.90673 2.95265 -1.36938 15
117 1 7.49855 13.4909 -3.28974 17
118 1 11.5752 12.3291 1.84759 12
119 1 -2.70195 6.30485 -5.28082 23
120 1 -7.67239 -4.8138 -8.98993 19
121 1 0.862005 14.0585 3.69996 16
122 1 -14.658 -3.25576 -3.8821 16
123 1 12.6878 -0.266598 -1.16654 23
124 1 -4.12653 7.84994 4.82711 21
125 1 -3.01741 9.61061 -5.38012 20
126 1 1.3656 -7.89203 12.072 15
127 1 -12.2308 -4.28629 2.97067 20
128 1 -5.02297 -12.4948 3.99911 19
129 1 1.72606 -13.4516 -4.89062 18
130 1 -8.11884 7.04382 -12.8708 11
131 1 -0.438554 9.74083 -1.22333 21
132 1 8.3728 7.7483 -5.01626 19
133 1 -3.29923 -10.3989 5.10603 21
134 1 -8.32892 4.55934 -3.19997 17
135 1 3.29362 15.0383 2.21354 14
136 1 -1.21158 4.71397 12.9779 21
137 1 -2.22458 11.7024 0.226646 20
138 1 -3.82851 1.60106 -10.2347 18
139 1 11.708 -4.08944 5.11775 16
140 1 -1.80711 -5.28331 3.29712 19
141 1 -13.8041 -1.34421 4.86106 15
142 1 -10.5837 -11.4756 2.64209 14
143 1 -14.5831 -0.497899 -2.94089 15
144 1 -1.10571 3.92906 0.248554 19
145 1 -3.45238 -14.5153 -2.26848 15
146 1 -0.943881 2.36692 4.57312 22
147 1 -3.74746 -2.83672 -1.56416 18
148 1 5.20814 -5.62499 -0.2061 23
149 1 -3.38304 10.9093 5.21769 22
150 1 -5.93588 -0.432066 4.32717 21
151 1 -11.6475 -0.600927 -3.67027 20
152 1 -8.31153 10.0772 -8.71797 16
153 1 -13.5185 -4.00157 -6.88969 13
154 1 -6.31087 -4.14368 13.4653 13
155 1 0.381328 -10.9466 4.28249 21
156 1 5.10601 -14.3315 4.81769 12
157 1 13.1648 6.54279 5.93277 14
158 1 4.64027 3.42039 -4.74287 21
159 1 3.53936 0.463523 11.2916 18
160 1 -4.51696 -2.71592 3.30071 23
161 1 -4.38884 5.37787 -11.7427 17
162 1 7.4113 0.56507 -12.1671 17
163 1 -10.6896 -2.07841 -6.86833 20
164 1 -0.263543 15.4825 -5.40332 16
165 1 -5.60598 12.0323 -7.96413 13
166 1 5.1535 0.340252 8.4013 18
167 1 -4.48004 -6.2874 -12.9061 16
168 1 -5.29887 10.0299 -10.0943 16
169 1 0.538911 3.99853 -8.67507 18
170 1 -2.1515 5.56725 3.13998 21
171 1 -5.24783 9.53377 7.40265 21
172 1 -1.52595 5.68913 8.93306 17
173 1 -1.04717 -12.9529 -6.70195 13
174 1 -9.10646 -13.7896 0.777654 11
175 1 8.60557 -10.6408 -1.97842 15
176 1 0.174165 3.38241 7.46443 20
177 1 -3.45105 2.94691 2.60843 22
178 1 3.05532 -4.6614 -2.31227 19
179 1 8.33059 11.8997 -9.47391 12
180 1 -0.182442 13.2818 -1.68696 17
181 1 -10.2008 -0.713512 -0.835864 18
182 1 -2.20097 2.00862 11.9175 23
183 1 12.684 0.518446 -4.24021 25
184 1 1.55961 8.3361 6.16932 18
185 1 -12.5671 6.53732 0.426272 16
186 1 -12.0743 -8.36703 -3.93216 21
187 1 3.07257 5.96332 -14.0037 13
188 1 1.97153 -4.57907 9.35779 19
189 1 10.476 8.87275 -10.6921 11
190 1 4.0369 -7.75347 -2.7534 20
191 1 -4.37451 -0.738283 -11.797 23
192 1 7.81163 3.00629 -4.67845 23
193 1 -10.4243 -4.03562 5.91574 23
194 1 1.83313 -16.0822 -2.38461 12
195 1 -9.59743 -7.49075 -8.24972 18
196 1 5.21323 15.6195 -2.56737 11
197 1 0.561437 -2.64835 -15.4503 14
198 1 6.45384 2.35737 15.3418 12
199 1 15.6061 4.4171 0.708797 13
200 1 -5.46664 -7.55156 0.162962 21
201 1 10.9815 -3.53423 -9.58424 16
202 1 0.811535 -5.02604 3.5316 22
203 1 -9.78766 -6.68145 -11.1548 14
204 1 -12.773 1.68917 -10.8989 11
205 1 10.8716 0.149653 11.1998 17
206 1 5.22684 -4.68625 8.5689 22
207 1 -6.86711 -11.3981 -10.2297 14
208 1 1.64298 -9.58439 6.88015 20
209 1 3.33794 9.89557 -10.7456 17
210 1 6.68495 8.54042 0.753761 20
211 1 -6.08699 -2.98604 6.52268 20
212 1 8.76774 12.9019 1.06166 17
213 1 -5.52038 -1.23601 14.6432 14
214 1 -11.9125 -9.59633 -7.89655 13
215 1 -2.00585 -6.04559 -11.7537 20
216 1 -5.0982 -6.24409 -4.23995 20
217 1 -0.785775 -8.17388 3.65594 22
218 1 -0.263427 -4.97359 0.17065 20
219 1 1.3133 -6.92796 5.89753 19
220 1 10.8636 4.10634 5.09925 22
221 1 -2.68695 -6.14929 -1.95762 20
222 1 -6.68923 -1.20192 9.41711 21
223 1 -1.40137 -11.0075 2.33215 20
224 1 1.75136 3.08379 -4.11064 19
225 1 0.365916 -12.2703 -1.62546 20
226 1 2.66716 15.8158 -3.93781 13
227 1 2.90021 -0.331677 -15.482 14
228 1 -6.7363 -4.59294 -11.756 19
229 1 5.26537 -6.18498 2.90109 22
230 1 1.97904 -9.89146 -1.49836 20
231 1 -3.85198 -11.8415 -9.43896 14
232 1 -9.17384 3.42052 -8.73124 20
233 1 8.42752 6.19145 5.42499 18
234 1 -5.97195 4.13638 -9.88261 21
235 1 0.938127 7.84166 -9.36339 19
236 1 0.0278923 0.378274 1.89642 21
237 1 -2.61313 14.1778 -3.70359 16
238 1 2.49348 11.2732 4.01237 19
239 1 10.9916 1.39663 7.60718 24
240 1 -1.81127 -2.81464 5.40904 19
241 1 -2.58447 -11.0314 9.57436 15
242 1 -1.74146 7.71006 11.2163 21
243 1 0.565968 -4.45289 -12.6013 22
244 1 1.82668 -11.1742 1.18594 21
245 1 -3.55617 -3.77578 14.5301 14
246 1 -12.6889 -6.54486 4.79812 17
247 1 15.2505 -3.66179 -3.40311 7
248 1 8.31928 -2.96468 -8.18521 19
249 1 9.30888 -9.99046 -5.03044 17
250 1 -3.19425 -3.73973 7.84475 15
251 1 -7.88224 12.3311 -2.5197 13
252 1 2.25486 0.816388 6.57174 22
253 1 9.00449 5.43684 10.6049 18
254 1 -8.02357 -3.00495 3.96218 21
255 1 7.37053 -7.60917 -1.61877 22
256 1 -6.14561 7.76459 1.20248 19
257 1 -9.42688 9.56862 4.17579 13
258 1 1.03011 2.96588 2.21558 20
259 1 6.10474 -12.3371 7.41545 14
260 1 13.174 -1.66105 7.26235 15
261 1 -5.43694 4.2505 7.68346 20
262 1 -7.58854 -2.75984 -6.90812 20
263 1 5.29415 -0.44314 2.15145 20
264 1 -2.29231 -0.511145 15.6876 14
265 1 -2.40705 15.0927 -0.339242 16
266 1 -5.4006 1.99371 -7.70237 22
267 1 -6.77291 4.09379 10.8838 16
268 1 -14.1848 1.19449 2.24828 17
269 1 -5.51723 -2.80422 -4.25592 21
270 1 -3.89289 9.18185 -0.274413 19
271 1 7.33059 -1.94782 7.96925 20
272 1 -12.3614 -9.51851 2.6981 14
273 1 9.07963 -7.13181 9.0005 14
274 1 -5.58876 1.83035 -0.411406 19
275 1 -12.7893 9.23499 -1.46961 12
276 1 -4.93573 1.68983 9.84982 21
277 1 2.05947 -11.503 -7.34258 19
278 1 -7.35993 -2.0454 -11.356 21
279 1 5.8333 -3.92565 -12.1178 16
280 1 3.63886 14.082 4.95612 16
281 1 -10.9116 2.71273 -2.9548 19
282 1 1.72174 -10.6088 -10.6344 13
283 1 -6.08568 -14.5224 -4.68338 10
284 1 -15.2037 -6.2127 -4.83882 15
285 1 -2.55523 -8.7306 0.461989 18
286 1 -1.23829 -1.99431 -0.882195 22
287 1 9.45048 5.24417 -2.75931 22
288 1 -9.28485 5.19599 -10.8834 17
289 1 -13.7045 -1.15453 -6.2503 19
290 1 3.03456 0.61512 0.552882 22
291 1 -8.68887 9.24373 1.54896 21
292 1 -7.24308 12.3762 3.34892 14
293 1 -9.50106 6.97362 6.44389 13
294 1 11.0403 -2.0804 -3.27303 22
295 1 12.7949 4.43161 -7.18089 16
296 1 5.37377 3.36601 7.17832 20
297 1 -5.52593 7.70973 -3.9221 17
298 1 0.0337954 -4.91751 -6.37921 17
299 1 -0.452605 8.26069 3.83813 21
300 1 8.41689 2.67333 -1.51038 19
301 1 -10.6334 3.66174 -5.79477 21
302 1 6.53347 -9.86454 -4.17761 23
303 1 15.1924 0.784436 6.1574 12
304 1 -9.79637 -5.15023 -5.87453 20
305 1 -4.41429 -7.59779 3.39094 21
306 1 -6.13622 10.4342 -3.27343 20
307 1 -13.5998 -11.0185 -2.96385 13
308 1 -6.39541 4.53586 -0.0649716 20
309 1 2.90498 13.0075 -9.56417 14
310 1 6.0302 15.8457 5.07134 9
311 1 -15.2767 -8.48844 -2.72443 15
312 1 -2.06711 -10.2637 -6.77174 21
313 1 -12.0006 -1.50076 7.4172 16
314 1 -12.2183 7.64331 -4.37124 16
315 1 5.63985 -8.86863 4.43927 20
316 1 -8.34765 -12.9931 -2.15088 15
317 1 4.0439 3.70403 -11.5582 19
318 1 -8.76712 8.05149 -4.5345 19
319 1 -0.0876645 -13.5929 1.87556 20
320 1 8.54743 10.9478 6.67419 15
321 1 -2.24395 -0.44502 9.72544 20
322 1 -16.0422 0.510327 -0.227741 14
323 1 3.57455 1.06675 -2.42209 20
324 1 -7.9658 3.94116 5.5279 21
325 1 -6.51491 -14.969 2.59498 11
326 1 -4.47218 -4.47614 -7.26074 23
327 1 8.41064 -6.29652 -8.46185 18
328 1 1.33149 -1.7103 4.83711 24
329 1 -10.9666 -1.2905 3.97347 21
330 1 -1.13797 -8.79413 7.9435 24
331 1 7.93572 -11.9842 -7.73248 14
332 1 0.558828 -9.10122 -12.9502 12
333 1 -7.0969 -6.32154 11.0744 17
334 1 1.83819 -6.83197 -4.58098 17
335 1 -6.95672 1.03197 -13.4751 15
336 1 6.29584 -14.0506 1.61012 13
337 1 0.336168 10.8711 -7.21735 16
338 1 -5.46765 -4.31531 10.3872 21
339 1 -9.73473 -5.88809 3.08727 18
340 1 9.95383 -4.77525 11.4157 12
341 1 7.01431 2.54546 1.41281 23
342 1 -4.23434 2.20382 5.12521 21
343 1 6.07324 1.52207 -6.86987 23
344 1 11.3041 -4.64366 8.331 15
345 1 1.63042 7.36217 -1.38289 19
346 1 12.8311 6.94328 -4.98349 14
347 1 -1.27261 2.28868 17.7468 10
348 1 5.03567 11.6332 -4.26523 19
349 1 7.2232 -6.80175 6.95849 23
350 1 -0.673129 -15.1161 -4.26704 14
351 1 -1.83433 13.5599 5.93059 15
352 1 -6.90166 -6.41427 -6.91643 25
353 1 1.16448 5.51157 10.4974 22
354 1 -2.97177 5.08335 5.89134 24
355 1 -7.44562 -9.88384 -5.8873 20
356 1 -8.364 1.27847 10.0696 17
357 1 -9.27107 -8.00557 -5.66243 21
358 1 -6.19958 6.91751 12.0167 12
359 1 -5.95445 -12.034 -7.03942 15
360 1 -2.03685 -8.28336 -14.2338 13
361 1 -7.95487 -12.7037 4.32175 15
362 1 -4.7147 -0.694083 1.19788 19
363 1 8.56368 3.88531 7.78219 24
364 1 -0.932228 -5.97649 13.293 15
365 1 -12.0816 4.67348 -10.5781 12
366 1 13.2415 4.1392 -4.13754 21
367 1 -6.94263 -7.92871 -3.16196 20
368 1 1.05518 0.322959 -6.12434 19
369 1 0.185332 16.4071 1.18549 10
370 1 -0.555401 3.22736 -6.27233 20
371 1 0.788675 8.2986 9.14994 22
372 1 -12.6991 -2.55103 -0.966125 21
373 1 7.81642 12.5189 -6.52034 18
374 1 -7.59645 -8.6206 -9.29843 22
375 1 -3.71212 -14.5594 -5.68224 12
376 1 -1.65665 -2.80639 -11.8132 22
377 1 -11.0489 6.82933 3.21219 16
378 1 0.498389 4.75317 16.13 11
379 1 8.01153 8.381 -1.79127 22
380 1 3.32009 12.0516 -1.50709 19
381 1 -10.5458 8.0832 -10.1481 14
382 1 4.29714 4.06232 -8.17166 17
383 1 2.64778 -8.44197 3.6317 22
384 1 -16.2987 -5.92384 -1.63134 14
385 1 5.0657 3.45601 -1.31527 23
386 1 -7.43976 3.77752 -12.1076 18
387 1 16.1819 0.671059 3.31716 12
388 1 8.45119 -5.24623 0.49381 23
389 1 14.3476 2.60715 -1.96208 17
390 1 -1.40999 0.320291 -12.2015 22
391 1 0.644148 -8.18692 0.87563 19
392 1 1.55724 -13.6117 5.54908 13
393 1 5.19183 -9.45499 7.71097 23
394 1 -7.20239 1.2993 -10.6198 22
395 1 6.12362 5.64326 2.66245 21
396 1 -1.89021 -10.9511 -12.1234 10
397 1 -1.032 3.4324 -14.3439 20
398 1 3.12849 -2.1391 16.0254 11
399 1 -14.1393 -4.85556 0.678882 20
400 1 14.2196 -1.3955 -5.63953 13
401 1 9.73257 -4.36283 -5.97586 22
402 1 0.283698 6.03352 -5.69284 18
403 1 -4.94907 4.72007 -2.61904 20
404 1 0.918299 -8.78715 -7.2315 19
405 1 6.51658 2.18534 -10.0978 23
406 1 11.2069 -1.35601 -6.73423 23
407 1 -4.71885 1.88432 15.905 13
408 1 5.69951 14.1501 -0.08023 19
409 1 -5.2833 -3.37841 -14.4742 15
410 1 2.89347 -5.56474 1.07606 22
411 1 -2.89823 -0.265121 3.77587 21
412 1 -0.14323 16.2006 -2.17802 13
413 1 -9.89553 -3.39734 -11.4283 14
414 1 -16.2925 -1.34401 2.60728 13
415 1 -6.35942 -9.51373 4.59301 17
416 1 4.89904 7.69117 -7.68018 20
417 1 12.1405 7.26149 -2.43194 18
418 1 -13.5734 -11.4244 0.464201 13
419 1 -1.19702 -9.45733 -2.03588 21
420 1 -1.06872 12.5319 9.14687 12
421 1 2.83665 -4.56794 -7.89379 19
422 1 4.20212 6.39807 0.326845 23
423 1 13.219 -3.25825 -1.27851 18
424 1 5.65205 14.051 -8.79666 12
425 1 3.75795 -8.72857 0.656278 20
426 1 4.76943 -1.94521 -3.1449 24
427 1 -10.123 1.36937 7.38042 18
428 1 -3.85105 -4.5209 0.907489 21
429 1 4.52322 10.1312 11.3296 14
430 1 -3.46995 1.7184 -15.8683 10
431 1 -3.98787 -8.78364 -2.58631 20
432 1 0.545901 -3.34269 11.8863 20
433 1 6.12782 10.7583 8.69154 17
434 1 6.54304 5.26673 -10.0756 23
435 1 -8.29987 11.5527 -5.75433 15
436 1 4.6998 11.0846 -7.42679 21
437 1 10.1893 -2.7849 13.4233 9
438 1 11.9342 0.910023 -9.01795 12
439 1 -16.5516 -9.49606 -0.540433 9
440 1 -6.46947 -6.36062 8.08245 22
441 1 -2.57581 11.2594 -8.47073 17
442 1 3.41218 -11.6114 -3.68747 21
443 1 3.59184 -2.75595 -10.7562 20
444 1 2.70173 15.5153 -7.39125 13
445 1 -7.04931 -8.13691 -12.1226 14
446 1 3.42346 -14.0184 2.25656 18
447 1 -13.257 -5.40156 -2.20517 22
448 1 -6.26031 -0.167863 -5.61649 20
449 1 -13.0713 -7.2444 7.8927 10
450 1 4.7077 8.74351 -2.0688 21
451 1 -0.858191 -11.2039 -9.13706 15
452 1 0.841361 -10.1619 9.95787 17
453 1 6.75418 0.581406 -3.78566 22
454 1 1.54076 -2.23043 1.66709 22
455 1 -8.79373 2.2855 -0.160648 20
456 1 11.5278 -6.31738 -9.40663 12
457 1 2.20408 8.14157 11.6966 19
458 1 1.35679 2.2818 -12.937 22
459 1 5.83512 11.6043 4.89882 21
460 1 9.62799 2.64445 -10.6106 14
461 1 -2.15822 -4.76267 -14.8402 15
462 1 -2.74076 -11.9258 -0.437934 21
463 1 -12.2824 -3.87499 -10.3811 7
464 1 12.7507 4.27626 2.56133 20
465 1 15.2581 5.57837 -2.65549 14
466 1 7.30864 -9.26671 -10.2672 12
467 1 4.66824 -10.4134 -8.47168 17
468 1 6.73461 14.5461 2.71991 16
469 1 -9.23663 4.26283 2.1764 19
470 1 10.3648 9.74993 -2.74524 18
471 1 13.7493 1.80919 1.33534 23
472 1 10.7328 5.84963 -9.39059 13
473 1 8.6024 -0.197672 14.1476 12
474 1 3.79598 -9.89004 10.6249 11
475 1 5.14072 1.49581 4.51441 22
476 1 -0.00593216 -3.09289 15.4247 15
477 1 13.9938 1.7823 -7.2528 13
478 1 8.90275 1.23188 9.78499 21
479 1 -9.59669 0.889943 -5.36438 19
480 1 13.9356 7.19714 0.294166 18
481 1 9.23553 -3.0911 2.94962 23
482 1 0.912138 -6.71283 -1.47674 19
483 1 8.87949 2.76184 12.5056 17
484 1 1.95671 11.1348 9.6522 19
485 1 2.79942 3.45177 5.38113 22
486 1 -5.28584 12.646 -4.77493 16
487 1 12.7641 7.78734 -8.25346 12
488 1 8.52009 -4.9379 -10.8281 15
489 1 2.60706 12.7788 -5.24483 17
490 1 -4.53767 -9.82694 -4.93458 20
491 1 -12.3355 1.03828 5.04471 18
492 1 -3.06934 5.20762 -15.364 10
493 1 -5.97837 -13.0356 0.259906 20
494 1 -1.25882 3.25888 -11.1376 19
495 1 -13.7117 1.46953 -5.78524 17
496 1 9.06024 -4.05508 6.22457 24
497 1 8.6607 13.2342 4.3779 15
498 1 -0.223075 -11.9037 7.29339 19
499 1 -15.2299 1.15437 -8.65073 13
500 1 2.13165 4.5955 -0.304862 22
501 1 -0.613455 -6.23386 10.1573 20
502 1 2.61446 2.57568 15.14 15
503 1 8.15588 9.85392 -12.5391 12
504 1 6.61566 5.51624 -6.48006 22
505 1 6.05778 0.29167 -0.641026 24
506 1 5.40257 -12.4628 -5.78762 18
507 1 12.803 1.55902 4.54574 20
508 1 10.1735 8.77087 5.82591 16
509 1 13.4129 -1.08472 3.91947 20
510 1 -2.46868 2.44794 8.09702 22
511 1 -11.0822 -5.94751 0.449876 22
512 1 -11.5646 1.23839 -7.898 20
513 1 6.64758 0.945775 12.1435 21
514 1 -8.34841 -9.65367 10.3551 11
515 1 6.61295 5.08966 12.8202 17
516 1 -4.70593 12.5491 -1.41168 21
517 1 9.50901 4.18806 1.91605 22
518 1 7.32666 -3.00433 -1.00773 23
519 1 7.27652 3.3774 4.26743 19
520 1 -0.0889932 0.646428 -14.8762 18
521 1 -10.2029 -6.63634 7.30674 18
522 1 6.18042 -1.35668 -9.90145 20
523 1 -2.55009 -4.73756 -5.31077 19
524 1 6.7765 -8.98437 -7.44304 21
525 1 6.08927 3.28748 10.0486 20
526 1 3.74047 8.28761 8.45144 21
527 1 8.72453 8.18445 8.60062 15
528 1 2.39214 -5.35815 14.2981 11
529 1 -1.823 -1.40932 13.1283 20
530 1 0.429665 -6.15133 -15.1116 13
531 1 -5.94349 1.53863 12.6813 17
532 1 -2.39209 7.06936 -2.44707 20
533 1 4.34184 3.34486 13.1385 21
534 1 10.8938 12.4162 -1.39386 12
535 1 7.98249 -12.9609 -4.48297 12
536 1 -7.25143 3.1861 -5.56931 18
537 1 9.34745 10.2051 -0.0376462 24
538 1 6.57463 13.6043 7.23644 13
539 1 -1.15639 0.141847 6.84574 19
540 1 5.12133 14.3972 -5.90471 15
541 1 12.9308 9.19623 3.41468 14
542 1 -0.595735 -3.98398 -2.88981 22
543 1 -4.68988 -10.2387 1.8563 17
544 1 -2.57563 -1.34394 -14.6402 18
545 1 -11.9499 9.55094 1.59481 10
546 1 6.04929 -6.98944 -12.372 12
547 1 9.09298 7.46356 2.35874 19
548 1 9.29247 6.80474 -12.0401 14
549 1 12.9352 9.80302 -5.17157 10
550 1 -6.29757 6.69723 6.24282 21
551 1 -6.77533 2.29745 2.7212 22
552 1 5.24168 8.70955 -5.0772 20
553 1 -6.56269 -14.2842 6.39976 11
554 1 -4.69799 8.135 -12.903 12
555 1 4.15512 13.1398 9.56121 10
556 1 3.38936 -1.54494 8.75071 20
557 1 10.5212 12.2844 -5.17015 11
558 1 6.3372 8.90182 6.31291 19
559 1 -7.15052 -1.03116 -1.45012 20
560 1 12.0391 -5.10994 -4.02812 15
561 1 -13.7322 -3.9712 6.52509 14
562 1 1.79148 -15.9517 0.686886 11
563 1 0.359145 0.643645 -9.07912 20
564 1 0.196263 5.84779 5.30328 19
565 1 6.04576 -5.1879 -3.13688 24
566 1 4.66437 8.71937 3.34414 19
567 1 -15.4249 -4.3076 3.86601 15
568 1 4.60535 -15.6981 -0.81031 13
569 1 8.1188 7.34015 -8.52713 22
570 1 3.65827 -3.11271 3.22715 19
571 1 -1.73017 8.12661 0.759378 18
572 1 1.48441 -1.11141 -12.4499 21
573 1 2.79536 -12.0243 8.18614 14
574 1 -3.95008 10.8053 2.19481 21
575 1 -4.38544 4.28259 13.6285 17
576 1 -2.44912 0.500372 0.464741 19
577 1 -9.90563 -9.80761 -10.6666 13
578 1 3.2962 -1.15517 -7.83509 24
579 1 2.37225 0.952326 3.64988 21
580 1 -1.00456 11.6885 3.15948 17
581 1 4.23682 -9.26546 -11.878 11
582 1 3.95039 -6.73591 6.19373 21
583 1 -2.28682 -12.0509 -3.4702 22
584 1 -11.2757 -4.32187 8.95679 16
585 1 -0.259782 -0.135528 -3.5005 20
586 1 -5.16368 -11.9584 -2.4036 19
587 1 1.96625 -2.75753 -4.99312 20
588 1 -8.71527 -1.16634 6.46923 21
589 1 12.1061 4.4495 -0.632539 23
590 1 -3.97232 7.1005 8.94815 23
591 1 -11.6542 3.76523 -0.219287 19
592 1 11.5248 -0.870331 2.02988 22
593 1 -0.500053 8.59124 -4.38855 21
594 1 9.95272 -1.11396 -10.5798 14
595 1 2.79456 -4.04888 6.668 21
596 1 10.7545 2.4964 -2.86085 23
597 1 -16.119 2.92808 -5.89274 9
598 1 -14.4549 -9.41479 -5.8559 12
599 1 0.437719 6.01544 -15.1881 12
600 1 -2.62348 -3.85997 11.1968 18
601 1 -4.5677 -8.99943 7.29067 18
602 1 0.736793 -6.27594 -9.66586 17
603 1 -9.95606 11.0663 -0.415762 11
604 1 5.30493 5.98273 5.62343 20
605 1 -8.27949 -8.11725 2.33974 18
606 1 6.30716 6.90842 -13.0245 16
607 1 -0.879884 -14.7925 -1.15793 16
608 1 8.39572 3.93648 -8.12586 20
609 1 -5.19015 -0.291713 -15.4139 13
610 1 0.836274 -0.0872859 16.1026 13
611 1 4.93207 9.35237 -13.6708 11
612 1 -11.4699 -3.53007 -4.00893 24
613 1 8.24566 -0.544766 1.17622 22
614 1 -8.31063 -6.29109 -0.0211011 20
615 1 10.2053 5.1988 -5.55846 21
616 1 11.7668 -6.04799 -0.539679 15
617 1 -3.45083 7.1434 13.9127 14
618 1 5.53802 -10.3117 -1.14505 21
619 1 12.4845 -3.66521 1.96777 19
620 1 12.7102 -2.55656 10.549 11
621 1 3.56377 11.1133 6.86287 23
622 1 -7.03694 6.96187 9.12092 16
623 1 -8.85348 -11.5783 7.55053 12
624 1 9.7422 0.966586 3.45703 21
625 1 6.60956 7.80106 10.5197 19
626 1 -15.8411 -2.65189 -0.56276 17
627 1 9.27872 -5.01562 -2.65674 20
628 1 3.19054 5.67845 -2.80638 19
629 1 2.77585 5.93596 3.21283 22
630 1 3.60375 0.175664 13.8338 22
631 1 1.37856 11.8339 0.696597 18
632 1 3.53708 -11.5406 5.07724 20
633 1 -8.80736 -1.72067 -4.14513 21
634 1 -1.17827 1.93623 14.604 23
635 1 6.27307 11.2098 -0.83959 19
636 1 -11.0204 -9.57737 5.635 11
637 1 7.94563 -4.54546 9.44178 20
638 1 10.2314 -1.82377 8.4911 21
639 1 6.43784 6.40624 8.35589 23
640 1 -0.393931 5.0913 -3.04273 17
641 1 -3.2826 -6.89788 -6.76461 25
642 1 -4.19765 2.78209 -13.3571 19
643 1 -7.46857 -1.77693 11.8855 17
644 1 -2.44923 14.2389 2.68185 15
645 1 14.6966 6.35504 2.80436 15
646 1 6.20973 8.7541 -10.6062 22
647 1 -2.52014 4.27752 15.9591 16
648 1 5.01669 7.79331 13.679 12
649 1 5.80408 -4.77462 -9.17648 20
650 1 -7.20757 -10.219 -0.805424 20
651 1 -5.55781 -0.832098 -9.08309 22
652 1 14.7889 3.87474 4.31262 18
653 1 0.685029 -2.77769 -9.72483 21
654 1 -1.49075 -7.85433 -4.99302 20
655 1 15.0024 -1.48688 0.771195 13
656 1 2.51243 -7.23057 9.13038 25
657 1 -4.44787 -9.23836 -11.5563 19
658 1 0.161055 1.22397 -1.08533 19
659 1 8.51572 15.2712 -0.767972 9
660 1 -0.365782 -5.02761 7.4676 21
661 1 -12.5705 3.96357 2.71965 16
662 1 10.4909 2.40934 -6.33498 22
663 1 3.12636 -3.55941 -14.1784 17
664 1 -7.38367 11.781 6.15409 11
665 1 2.17506 3.1107 -15.9081 11
666 1 10.279 -2.83791 -0.174852 23
667 1 -12.9949 0.598176 -0.633356 24
668 1 11.5458 7.17653 3.01049 23
669 1 -12.7724 -7.96373 -0.869655 21
670 1 4.1355 5.66122 10.8572 23
671 1 -8.37805 0.156752 -8.37738 19
672 1 -11.2292 4.30641 5.5998 14
673 1 -2.74809 3.9087 -7.59809 20
674 1 9.94025 -8.97013 -8.00258 16
675 1 -11.2973 -11.077 -5.11959 17
676 1 10.2468 -7.74637 -2.98757 15
677 1 -14.7532 3.77669 0.337178 14
678 1 -7.95888 -4.71907 -4.08601 22
679 1 -8.46177 -3.89914 8.85268 23
680 1 13.4257 0.498553 9.20072 12
681 1 10.4915 -1.04004 5.24868 21
682 1 -10.8637 1.05785 1.68406 21
683 1 -0.675287 10.1481 11.4016 14
684 1 3.83719 6.80018 -11.3709 20
685 1 -4.90182 14.0868 4.80332 13
686 1 10.4202 9.82462 -7.32555 15
687 1 0.0186583 7.52706 13.743 14
688 1 6.25575 -7.54807 10.4108 15
689 1 5.81253 11.3858 -10.8834 14
690 1 1.65798 -1.41394 -1.78222 20
691 1 -4.64072 -0.782241 11.4026 17
692 1 -4.34419 -3.76475 -10.297 23
693 1 -14.3776 2.58446 -2.54563 17
694 1 -6.01158 -11.561 8.61357 14
695 1 5.72534 -2.11474 10.95 20
696 1 0.431686 -10.627 -4.55256 20
697 1 -14.337 6.22571 -2.18377 15
698 1 13.7219 -1.74574 -8.90423 11
699 1 -8.09845 6.81726 3.64006 23
700 1 -6.68067 1.39009 7.01009 20
701 1 -4.03335 -1.59265 -6.59097 19
702 1 -9.36183 -11.8356 -8.00882 14
703 1 3.72054 -9.39756 -5.74731 19
704 1 6.5299 -13.0409 -1.70558 15
705 1 0.413218 8.77625 -12.5863 13
706 1 15.1245 2.45604 -4.75523 13
707 1 10.264 7.10029 -0.0307181 23
708 1 10.754 1.77182 0.226855 20
709 1 -1.53071 6.46076 -13.0768 18
710 1 -2.21587 -7.36077 5.85485 21
711 1 7.30716 9.58273 -7.13471 18
712 1 8.59813 0.460323 -8.39024 24
713 1 -10.9292 5.40806 -2.50753 19
714 1 6.35972 5.9749 -3.40441 21
715 1 -10.3834 -7.2737 10.2507 11
716 1 4.20028 10.8355 1.1293 19
717 1 -3.37979 -14.136 1.48549 16
718 1 7.60854 10.8099 -4.05898 20
719 1 -4.65513 9.1457 10.9334 12
720 1 -9.84612 -1.31104 9.72164 16
721 1 8.98147 -0.248391 -1.57533 21
722 1 -1.22342 -2.60069 2.15003 22
723 1 -3.70521 -6.42892 12.7318 16
724 1 5.10111 -11.3296 2.29094 19
725 1 -4.16311 -0.415251 6.7567 22
726 1 2.32045 5.4639 7.54017 19
727 1 6.83886 -4.8969 -6.38548 17
728 1 -10.0814 2.39449 -12.6883 12
729 1 -1.10662 -2.10056 -5.69475 20
730 1 -7.74321 9.49138 -12.1177 10
731 1 -13.5169 4.84802 -5.24393 16
732 1 7.30422 10.7479 2.63034 20
733 1 -1.72185 8.30364 7.06547 22
734 1 -10.6761 -11.4468 -1.26151 18
735 1 -3.35253 0.165915 -3.46243 21
736 1 -2.82618 10.9788 -2.87863 20
737 1 11.0904 3.13022 9.83664 16
738 1 -4.47519 -5.12542 5.4806 19
739 1 8.77499 -2.29386 -12.8067 9
740 1 6.18468 -8.12181 1.37495 22
741 1 3.75633 0.736865 -10.6627 18
742 1 -10.0007 -0.526215 -11.0455 19
743 1 -5.91598 -4.36962 -1.85783 22
744 1 -6.49678 7.02673 -10.2578 22
745 1 -3.96358 4.56677 10.8003 20
746 1 8.5662 -1.9515 11.3976 21
747 1 -10.2312 -9.00092 0.365453 18
748 1 15.6081 -0.626012 -2.59835 12
749 1 -1.4021 6.32049 -9.97681 19
750 1 12.0046 9.47643 0.452756 16
751 2 -8.0681 -0.53002 -10.2313 18
752 2 -0.793275 6.69291 -4.15712 17
753 2 -0.28896 -1.08624 -9.56325 22
754 2 -4.17717 -0.234891 15.62 14
755 2 -7.96057 -8.19188 -7.22303 20
756 2 2.49708 -0.876078 12.5554 21
757 2 -16.4895 -7.76577 -1.3897 14
758 2 -11.9118 7.7279 -6.42201 16
759 2 1.74072 13.9245 5.33192 17
760 2 -10.9051 0.741151 3.64256 21
761 2 9.46969 4.78131 6.40052 19
762 2 1.37702 -0.847568 3.11188 22
763 2 -4.51246 -0.799604 -4.81224 17
764 2 -13.2683 -8.54291 -6.86868 13
765 2 -8.95542 2.781 -4.59772 19
766 2 -0.325138 -7.68145 6.15997 20
767 2 4.43434 -0.92392 10.1058 19
768 2 7.52148 -1.20539 -8.46069 18
769 2 3.30036 -14.8763 0.413089 15
770 2 5.61001 -0.24839 4.30104 20
771 2 -6.71909 5.36719 -2.03635 17
772 2 -10.5137 -1.62333 -4.91481 19
773 2 12.1216 4.99083 6.56288 17
774 2 9.38096 -10.4673 -7.00948 14
775 2 -2.10846 -3.06517 -2.53307 21
776 2 -12.1206 -11.3091 1.72674 12
777 2 -11.2105 -5.12312 4.27474 20
778 2 -5.02724 -13.5788 2.46555 18
779 2 12.0329 -2.88844 8.62073 17
780 2 1.14817 -15.0927 -3.82326 13
781 2 4.73314 1.34381 12.6863 23
782 2 -4.02454 9.35532 -11.4493 15
783 2 -12.9435 -10.043 -4.70867 17
784 2 4.36511 2.92044 15.6262 11
785 2 -7.21219 8.24907 2.789 21
786 2 2.49612 3.68517 13.5371 21
787 2 -9.5873 6.2471 -3.62165 19
788 2 7.03505 -12.3431 2.26887 15
789 2 -5.58921 6.21421 8.03386 21
790 2 -5.38726 6.02222 0.913944 20
791 2 -1.02549 10.1187 -9.5481 17
792 2 5.69479 -1.87334 -1.11198 25
793 2 6.23203 -6.10795 -4.77754 20
794 2 -3.85635 -0.184501 -9.63 20
795 2 0.451194 -4.49513 -8.98374 18
796 2 2.41174 1.58182 -5.41653 23
797 2 10.1245 0.387943 -6.81159 18
798 2 -2.85614 3.62157 12.4588 20
799 2 1.15891 -7.02338 3.83073 21
800 2 3.096 2.00687 -12.1368 18
801 2 -7.32585 9.87734 -10.3892 16
802 2 10.9241 11.1855 0.268475 15
803 2 -5.18537 -5.21807 12.1779 15
804 2 -12.0639 7.63572 1.81811 15
805 2 10.1502 0.93852 -9.84643 17
806 2 1.37684 -5.88001 -11.5558 22
807 2 -17.5615 -6.21202 2.52584 8
808 2 3.94625 12.058 5.03044 19
809 2 -4.36046 10.0729 4.00979 20
810 2 -5.67897 -11.7294 -8.81527 15
811 2 -3.76534 13.058 5.91851 14
812 2 5.51433 -9.23499 9.74866 14
813 2 9.90429 -2.93081 4.91232 21
814 2 -12.3697 2.75626 -1.54197 19
815 2 6.64262 0.491838 1.40647 23
816 2 1.11676 1.56258 0.699209 23
817 2 9.84017 -9.20543 -1.68853 16
818 2 8.02887 -11.2558 -3.83533 18
819 2 9.46815 7.56449 4.23048 18
820 2 5.34976 -10.0004 0.933697 19
821 2 14.72 0.145337 4.50666 14
822 2 -3.50965 0.85219 11.0039 20
823 2 12.7489 -4.34478 0.14933 15
824 2 -0.0546198 6.70522 9.54578 23
825 2 8.05037 6.84503 9.76766 16
826 2 -2.81957 6.19066 10.2455 21
827 2 6.84801 12.523 3.19487 23
828 2 11.6294 -4.77714 3.26495 16
829 2 3.97493 9.2354 -6.84454 18
830 2 -11.0131 -5.04097 -11.3147 7
831 2 -6.95711 2.10758 11.0126 17
832 2 3.21714 -0.722312 -3.09166 23
833 2 -7.54519 -3.13971 -4.73236 24
834 2 -12.1551 -0.819906 5.61501 17
835 2 -10.6466 -4.82193 1.84035 19
836 2 14.0569 0.711799 -2.79379 18
837 2 4.24717 -7.43405 4.42085 19
838 2 -2.95123 -1.85093 11.44 17
839 2 6.92931 -2.59925 -12.8942 14
840 2 7.8504 1.67001 13.8678 13
841 2 0.338263 4.37606 11.9326 21
842 2 -8.32672 3.08052 3.57634 21
843 2 4.7696 -8.66888 -7.42362 21
844 2 12.5727 0.518971 0.723035 22
845 2 -8.01401 7.314 7.48276 14
846 2 -4.3141 -13.1879 -1.01075 17
847 2 11.0467 -7.45171 -7.99786 13
848 2 6.07882 -1.08939 -4.2049 22
849 2 1.22297 4.4593 6.13255 21
850 2 6.02621 -8.89565 -11.8634 10
851 2 3.75711 -5.5875 9.27857 18
852 2 -9.84271 -4.59262 7.59514 21
853 2 10.9983 3.52215 0.856154 20
854 2 3.1854 -2.55268 5.095 22
855 2 -9.06249 -8.2802 9.17891 15
856 2 11.3268 8.90105 -9.00665 12
857 2 -0.898781 -8.77918 1.7174 18
858 2 12.3134 -5.4987 -5.8546 14
859 2 -1.54801 -11.5654 -5.25843 22
860 2 11.5745 -1.94334 -1.32092 21
861 2 0.0609764 4.12843 -4.65742 17
862 2 -2.45088 9.70429 1.26739 16
863 2 12.1505 2.27288 -7.45493 18
864 2 2.37713 -6.64079 -2.60271 19
865 2 -8.79163 -6.38572 -9.6405 20
866 2 -13.9707 -4.90445 2.51155 18
867 2 -6.22979 -9.64224 6.5808 21
868 2 -2.67791 -8.04025 -1.3982 19
869 2 -7.06308 8.76663 -3.36695 19
870 2 -10.4278 9.73893 2.7356 13