ITEM: TIMESTEP
763000
ITEM: NUMBER OF ATOMS
1500
ITEM: BOX BOUNDS pp pp pp
-30.0 30.0
-30.0 30.0
-30.0 30.0
ITEM: ATOMS id type x y z Coordination
1 1 -5.05483 -8.29996 -6.91699 22
2 1 7.94234 -9.89732 7.18026 14
3 1 -9.39006 6.53113 -0.659447 21
4 1 -12.7588 1.14899 -8.99616 16
5 1 -2.6045 -5.58698 8.47179 19
6 1 -12.1987 -5.98844 -8.73464 20
7 1 -2.12278 2.07867 -8.21802 24
8 1 -6.79346 -11.3642 3.5249 23
9 1 -15.7726 -10.7921 1.2597 9
10 1 5.76538 4.9641 15.1462 13
11 1 6.26891 -4.35565 5.59123 17
12 1 0.639476 0.0369288 9.29503 23
13 1 7.9283 -1.37919 4.42889 20
14 1 -2.41422 7.84237 -10.1648 21
15 1 4.34092 -3.22451 14.0606 14
16 1 10.7759 5.8486 7.20337 16
17 1 -0.931371 11.1555 -12.136 14
18 1 0.472526 6.21656 -10.0322 22
19 1 -8.03871 -0.50865 1.25045 20
20 1 -2.58125 -1.25883 -8.88677 20
21 1 6.78819 -12.0718 4.89035 15
22 1 -0.543295 -2.8824 8.25298 22
23 1 7.2972 -11.3058 1.57374 18
24 1 -6.96956 -10.4283 -8.11022 19
25 1 3.41546 -3.29463 -5.59109 22
26 1 4.29312 -5.37641 -13.8631 11
27 1 -1.00796 2.70427 10.2619 22
28 1 -4.95921 -11.3582 6.31604 19
29 1 4.70774 -6.0671 13.1491 10
30 1 -12.673 -1.73376 0.210587 23
31 1 -6.57627 -3.49623 0.605712 21
32 1 -4.12353 9.87881 -4.60809 20
33 1 0.794002 3.73783 -7.91574 25
34 1 3.56271 -5.00369 -11.1239 18
35 1 -1.84675 -7.53589 10.9799 17
36 1 -7.43645 1.72432 -3.28891 19
37 1 2.03164 13.6049 8.04049 14
38 1 -11.0618 7.31902 -7.511 16
39 1 1.69663 16.4914 -0.415853 9
40 1 3.2929 -12.8486 -0.14856 22
41 1 4.37191 -6.5226 -5.51904 21
42 1 -8.6485 4.19035 7.25642 16
43 1 -14.2983 -7.99829 -7.48167 8
44 1 7.32963 0.893102 5.94566 21
45 1 -6.88317 7.19667 -1.97907 20
46 1 -8.94288 -8.86084 4.90388 20
47 1 -13.132 5.96041 -6.11503 19
48 1 0.93401 5.89402 -4.99056 21
49 1 1.33679 5.93543 0.38399 19
50 1 2.97847 2.42982 9.56788 21
51 1 4.91629 -14.558 -3.59858 14
52 1 2.96734 5.47838 13.5318 19
53 1 14.0362 -6.32679 -6.41935 12
54 1 8.64238 -9.53315 3.80752 15
55 1 -10.0566 -3.39036 0.79194 21
56 1 10.5066 -2.88314 13.2589 10
57 1 -7.53919 -6.0515 5.78788 21
58 1 -8.39917 -3.56398 -2.37771 22
59 1 12.733 2.93686 6.87027 18
60 1 8.24477 -3.03421 -4.06969 19
61 1 1.00977 10.9653 6.76133 22
62 1 5.23329 -1.38695 6.31911 20
63 1 -6.55393 -5.67757 3.23737 20
64 1 -5.11334 -6.93403 -10.0475 22
65 1 -9.50275 12.3091 0.979025 12
66 1 -0.741681 8.65229 -7.42152 19
67 1 3.39551 2.02123 -7.6805 20
68 1 5.95951 -1.54557 -6.28624 22
69 1 7.6317 -6.29744 3.82278 18
70 1 6.70672 -10.6906 10.3433 10
71 1 -2.19042 11.526 -6.64125 17
72 1 -6.00896 9.86163 3.31311 23
73 1 -3.62413 9.80058 5.28784 19
74 1 -9.97433 -3.6474 11.3066 13
75 1 11.7389 -8.54682 -5.88413 16
76 1 -9.13803 1.3675 3.9033 23
77 1 9.00295 -8.09761 -4.84137 23
78 1 6.33594 -0.958119 -14.484 13
79 1 -8.45468 -0.457097 -13.3075 15
80 1 4.06601 3.88219 1.95802 21
81 1 2.02419 8.74245 -4.34658 18
82 1 -9.3967 4.81372 -8.19961 22
83 1 -1.60706 13.4955 -3.76247 17
84 1 2.70759 8.65595 1.49561 20
85 1 -4.53412 2.55022 -5.4638 22
86 1 -5.59418 -8.48863 10.4008 16
87 1 -1.42962 -4.46501 -8.34601 19
88 1 3.63314 -7.22895 -8.57697 21
89 1 1.1764 0.695487 15.1184 15
90 1 -9.87823 -6.65806 -3.33257 23
91 1 6.69606 -3.64737 2.14695 21
92 1 -8.65465 -11.1372 -3.48424 19
93 1 10.5752 -6.55855 2.91396 17
94 1 -4.89572 4.94761 2.61234 22
95 1 5.56653 2.2208 -14.258 12
96 1 -4.10309 5.19899 -0.0417418 24
97 1 4.15133 6.78064 -4.88043 17
98 1 10.1882 -9.2776 0.862586 15
99 1 -2.05149 -13.2421 4.94161 16
100 1 -17.0167 -7.5956 2.10548 10
101 1 -15.7519 -4.31532 2.73181 16
102 1 7.75101 9.35594 3.6353 20
103 1 9.45143 6.64489 0.0254695 22
104 1 -1.97006 9.77558 8.85132 19
105 1 -7.00746 6.85565 -7.87396 20
106 1 -2.24216 -7.66504 -8.59751 23
107 1 7.24668 -5.65809 12.4236 13
108 1 -4.29705 4.77925 -7.72673 22
109 1 10.5222 -0.711121 -4.84668 23
110 1 -14.2016 8.43232 -5.48467 11
111 1 4.96068 -3.33704 -0.0028289 21
112 1 -7.52602 12.5395 4.08599 12
113 1 7.57782 3.91338 -12.0495 13
114 1 10.2154 -7.54815 6.13407 15
115 1 -6.95637 4.33754 -5.79477 20
116 1 -3.00518 3.30862 -2.67172 22
117 1 8.19292 13.8876 -6.55548 12
118 1 10.4349 11.2802 3.5482 16
119 1 -3.38515 5.81152 -4.52205 22
120 1 -7.11817 -2.35476 -10.383 23
121 1 4.14977 15.7464 7.62745 10
122 1 -13.3751 -4.1599 -5.20199 17
123 1 13.1982 -0.96281 -0.865298 22
124 1 -3.07495 8.02786 3.1353 20
125 1 -3.8785 7.70907 -7.27779 20
126 1 1.43258 -7.19226 12.2269 17
127 1 -12.4329 -4.27584 3.03325 22
128 1 -5.70457 -8.4201 4.39114 20
129 1 1.86817 -13.8121 -5.31204 13
130 1 -6.04014 7.97987 -12.8737 12
131 1 0.634284 8.39613 -1.51285 20
132 1 8.86206 8.11572 -4.15229 21
133 1 -7.3386 -13.5923 5.23254 11
134 1 -8.86925 4.30856 -2.80705 20
135 1 4.01345 16.0045 1.87632 12
136 1 -1.4117 4.38206 12.7924 19
137 1 -2.13479 10.2838 -1.64848 24
138 1 -5.02403 0.341326 -8.80336 22
139 1 11.9281 -4.74947 5.07321 19
140 1 -1.7172 -5.15721 3.20219 19
141 1 -14.0349 -1.74757 3.28475 16
142 1 -14.168 -9.60029 3.65549 15
143 1 -16.0678 -2.39902 -5.38603 11
144 1 -1.09995 3.44694 0.208162 20
145 1 -3.49389 -14.9458 -2.49342 13
146 1 -0.965827 2.6588 4.6046 21
147 1 -4.10838 -2.6484 -1.37541 20
148 1 5.9313 -5.96407 -0.172695 19
149 1 -1.41639 11.2819 4.06955 23
150 1 -6.67887 -0.133661 4.69042 22
151 1 -12.5902 -1.20228 -3.97564 23
152 1 -8.46569 9.47281 -7.21707 15
153 1 -12.6569 -6.60925 -5.46929 20
154 1 -7.73167 -4.21419 13.3382 11
155 1 0.282303 -10.6075 4.85552 22
156 1 4.24616 -14.1759 5.38865 13
157 1 12.5721 5.82509 4.58448 18
158 1 11.298 6.98017 -2.99427 20
159 1 2.74274 0.120434 11.9194 21
160 1 -5.15977 -2.66024 3.77139 21
161 1 -1.51555 5.46862 -7.47334 22
162 1 8.52709 0.975684 -13.1578 12
163 1 -10.6561 -0.990377 -6.91581 24
164 1 -4.60648 12.8081 -4.27629 13
165 1 -5.27096 10.5774 -6.98614 16
166 1 5.47572 0.527804 9.00862 22
167 1 -4.08988 -5.4323 -15.1058 12
168 1 -6.09619 9.44364 -9.90982 15
169 1 5.24688 1.71658 -2.23498 19
170 1 -1.71966 5.24962 2.55179 19
171 1 -7.64403 9.85645 6.20779 14
172 1 -1.04079 5.50483 8.33071 20
173 1 -1.317 -13.1285 -6.78287 14
174 1 -9.54276 -13.8386 2.34365 10
175 1 8.83515 -11.2831 -1.51381 15
176 1 0.485231 2.66624 7.51246 19
177 1 -3.41369 2.13851 1.69435 20
178 1 3.35312 -5.03243 -2.24559 20
179 1 4.86443 13.9388 -10.8744 14
180 1 0.298183 12.8532 -1.3997 21
181 1 -10.346 -0.898664 -1.43773 21
182 1 -3.71878 2.10503 12.4939 24
183 1 13.6831 -0.627343 -4.37219 18
184 1 2.55423 8.11336 5.74931 22
185 1 -12.7828 6.24361 -0.0347147 15
186 1 -11.7721 -9.43502 -4.48451 16
187 1 5.0168 5.2915 -13.8366 12
188 1 3.09921 -4.67381 10.992 17
189 1 6.94164 9.2033 -9.79171 15
190 1 4.32633 -8.1417 -2.47071 23
191 1 -4.31941 -1.06351 -11.7474 20
192 1 9.79932 2.39164 -4.55872 20
193 1 -10.4471 -3.9817 5.73566 20
194 1 1.88013 -15.0783 -2.20758 15
195 1 -12.2937 -7.9379 -10.4259 14
196 1 5.69662 13.723 -3.74315 18
197 1 0.326807 -1.73529 -14.5166 15
198 1 7.18622 2.07772 14.6263 11
199 1 14.1213 3.86166 -0.690218 19
200 1 -5.64035 -7.66774 0.450972 20
201 1 11.8604 -5.3774 -8.49531 13
202 1 1.46924 -5.16611 3.86003 19
203 1 -7.52695 -5.91309 -11.0704 22
204 1 -11.3579 1.14613 -12.2605 12
205 1 11.507 0.14863 11.1971 15
206 1 5.44647 -4.0719 8.40377 21
207 1 -6.61211 -9.68903 -11.051 16
208 1 1.29419 -7.91288 6.17161 18
209 1 4.19996 11.6652 -13.2726 11
210 1 6.69546 8.99093 0.505883 20
211 1 -5.73062 -3.20289 6.29209 24
212 1 3.29989 13.8699 -1.34929 20
213 1 -6.50831 -1.19858 14.2329 13
214 1 -8.57773 -7.69433 -8.84546 20
215 1 -2.05158 -5.90457 -11.5696 24
216 1 -4.54893 -7.03795 -4.15881 22
217 1 -1.28081 -7.62243 5.23698 22
218 1 -0.673421 -4.46048 0.494389 21
219 1 -0.148414 -4.95482 5.93127 21
220 1 10.0811 3.52302 4.79736 22
221 1 -2.0889 -5.0769 -2.41873 21
222 1 -6.97837 -1.12621 8.69071 21
223 1 -1.61225 -12.056 2.09483 19
224 1 5.65136 4.63398 -3.46938 21
225 1 0.162803 -12.5903 -1.61097 19
226 1 1.31062 15.3823 -3.51027 12
227 1 3.20993 0.329457 -13.7838 15
228 1 -10.7135 -5.74767 -11.8158 15
229 1 4.67611 -6.34629 3.21536 20
230 1 1.40974 -9.69735 -1.74846 23
231 1 -4.06437 -9.72891 -9.73251 17
232 1 -9.79795 1.89374 -9.3793 20
233 1 8.02819 6.28507 5.30082 20
234 1 -5.06261 6.11449 -10.6141 22
235 1 2.11071 10.8075 -6.96203 21
236 1 -1.23881 0.778697 2.34108 18
237 1 -3.77612 15.1032 0.869284 10
238 1 2.08043 10.7483 3.77411 20
239 1 10.2913 0.707184 6.52292 22
240 1 -2.53618 -3.12565 5.85597 22
241 1 -3.18665 -9.89564 9.99481 12
242 1 -1.52957 7.30408 10.5978 22
243 1 0.528715 -4.11707 -12.5983 21
244 1 1.34968 -11.0267 1.45221 19
245 1 -4.65177 -3.71795 13.5917 13
246 1 -12.3285 -6.81548 5.12783 19
247 1 14.5803 -3.76305 -4.34068 12
248 1 9.4962 -2.51419 -7.31155 23
249 1 10.2145 -11.1153 -4.6154 13
250 1 -4.40731 -2.7844 9.0647 22
251 1 -5.29649 10.3796 -1.27222 23
252 1 3.02668 0.756265 7.23644 22
253 1 9.13615 5.61816 10.2894 14
254 1 -8.07884 -3.07715 3.70403 20
255 1 7.80541 -8.56361 -1.58562 23
256 1 -5.28125 8.28299 1.04832 21
257 1 -9.19074 9.63552 3.05703 15
258 1 1.40659 3.12709 2.42051 21
259 1 5.36251 -12.2668 7.83789 12
260 1 13.4621 -2.76747 7.40735 14
261 1 -5.36739 4.15785 7.1514 20
262 1 -8.10091 -2.89336 -6.27379 21
263 1 5.57867 -0.907022 2.56188 17
264 1 -3.55392 -0.383052 14.1893 17
265 1 -6.41128 12.5136 1.26174 19
266 1 -3.57582 -0.0552262 -6.28329 20
267 1 -6.88412 4.14242 10.0491 17
268 1 -14.3355 0.985216 1.21375 17
269 1 -5.74365 -2.86006 -4.14214 22
270 1 -3.8421 7.47616 -2.12535 23
271 1 7.41014 -2.03047 8.06025 22
272 1 -11.4931 -8.74893 2.62523 21
273 1 8.87508 -7.88538 9.08049 16
274 1 -5.58443 2.36606 -0.785995 20
275 1 -12.6939 9.12815 -2.31493 13
276 1 -4.83057 1.53545 9.32731 20
277 1 1.77109 -11.469 -7.61699 17
278 1 -4.90154 -4.21702 -12.123 23
279 1 6.86625 -3.07559 -12.1502 18
280 1 3.63619 13.8005 4.41988 19
281 1 -10.7642 1.73888 -3.27809 21
282 1 1.9336 -9.28682 -10.2789 14
283 1 -3.54174 -15.1398 1.38504 10
284 1 -14.7581 -4.54835 -7.52657 14
285 1 -2.92057 -7.12074 -0.958467 23
286 1 -0.963985 -2.03583 -1.50925 21
287 1 13.381 4.64162 -3.49402 22
288 1 -8.91743 6.32272 -12.7504 12
289 1 -14.0096 -1.23698 -6.74905 19
290 1 3.18217 0.921359 1.11218 18
291 1 -7.78044 9.52345 0.0939319 21
292 1 -4.94858 12.315 6.4676 12
293 1 -8.57071 6.84389 5.16792 18
294 1 11.3828 -3.14354 -3.32895 22
295 1 13.7977 5.08907 -6.82805 16
296 1 5.59267 3.28863 6.93673 22
297 1 -5.86814 7.55411 -4.7174 22
298 1 1.47107 -5.08694 -7.01476 21
299 1 -0.0528928 8.46493 3.7883 19
300 1 8.881 1.96667 -1.48441 20
301 1 -10.634 4.30107 -5.37025 20
302 1 6.10887 -10.1317 -4.23012 22
303 1 14.8574 0.353545 6.0182 14
304 1 -9.99608 -5.7829 -6.7898 20
305 1 -2.85025 -7.93721 2.41874 19
306 1 -3.65839 13.1833 -1.15282 19
307 1 -12.7693 -9.87786 0.527779 20
308 1 -7.09857 5.04975 0.317487 21
309 1 -0.159412 11.9063 -8.90956 16
310 1 6.03125 15.8986 4.62776 12
311 1 -16.1464 -7.26486 -1.31965 11
312 1 -2.12812 -9.92398 -6.13468 21
313 1 -12.4832 -1.1113 6.47874 14
314 1 -16.0387 5.83496 -6.25848 10
315 1 5.62566 -8.99002 4.93126 21
316 1 -8.6334 -13.0212 -1.34428 14
317 1 3.06495 4.86265 -9.61185 18
318 1 -8.56293 6.95814 -5.05698 22
319 1 1.80632 -13.2863 3.10233 20
320 1 8.63819 11.2816 6.38777 15
321 1 -2.02368 -0.244351 9.53162 23
322 1 -16.8823 1.01942 -1.27271 11
323 1 3.66828 -0.821512 -1.36168 20
324 1 -7.14004 3.85899 4.31636 22
325 1 -4.72767 -13.0469 3.51387 17
326 1 -6.79873 -5.03631 -8.19121 22
327 1 9.10937 -6.841 -8.43196 16
328 1 0.797542 -1.08526 1.24859 22
329 1 -10.6693 -1.45421 3.34478 22
330 1 -2.93213 -10.3166 4.26524 22
331 1 7.75509 -10.8511 -6.79774 15
332 1 1.56544 -6.97809 -12.4614 18
333 1 -8.53319 -6.44264 10.6328 16
334 1 1.3534 -7.38914 -4.18339 19
335 1 -8.4603 2.82857 -13.0482 15
336 1 5.38439 -14.2338 2.01973 15
337 1 -1.06494 15.5653 -1.09927 14
338 1 -6.50047 -3.95495 10.5853 19
339 1 -9.97492 -5.77543 3.19038 22
340 1 10.2818 -5.27155 11.3775 12
341 1 6.23488 1.54789 0.778967 24
342 1 -4.49139 2.48594 4.55471 23
343 1 6.34538 2.29947 -5.47704 20
344 1 10.7562 -5.39007 8.41054 17
345 1 2.47498 5.8796 -2.53687 23
346 1 15.492 7.54446 -5.27037 11
347 1 -1.87923 2.10223 15.134 16
348 1 3.01256 11.6206 -3.58178 21
349 1 7.18144 -6.5779 7.21287 23
350 1 -0.867755 -14.0402 -3.61312 19
351 1 -1.83497 12.3811 6.81714 15
352 1 -8.5518 -8.62839 -5.7322 22
353 1 1.37296 5.40687 10.6532 23
354 1 -3.00356 5.06729 5.4438 21
355 1 -5.52487 -10.3508 -4.9217 21
356 1 -8.83958 1.53768 9.96745 13
357 1 -9.96801 -10.3602 -9.80572 13
358 1 -5.24456 7.25163 10.7502 16
359 1 -4.21507 -11.9687 -7.63031 16
360 1 -1.22527 -6.76606 -14.3437 15
361 1 -12.8735 -12.4316 2.85279 11
362 1 -4.80621 -0.672013 0.870705 23
363 1 9.10816 3.19074 7.60524 22
364 1 -1.18031 -5.36593 13.4246 13
365 1 -13.0841 4.81773 -8.65303 14
366 1 16.5931 4.74795 -3.54906 10
367 1 -7.13487 -8.42848 -2.49257 19
368 1 0.778874 1.30721 -5.77006 21
369 1 0.579348 16.1995 2.15505 10
370 1 -1.66364 3.32066 -5.44554 23
371 1 1.11992 8.18927 8.63422 22
372 1 -11.5376 -3.95474 -2.07455 24
373 1 5.69197 15.595 -8.10343 13
374 1 -6.98741 -13.1667 -5.91356 11
375 1 -4.02086 -14.4469 -5.29556 12
376 1 -1.57896 -2.43961 -11.4128 22
377 1 -10.4008 6.6391 2.42128 17
378 1 0.279105 4.19374 15.407 13
379 1 6.77582 7.30651 -1.78483 20
380 1 -0.190178 10.9792 -4.21496 17
381 1 -11.6802 6.75488 -10.6187 12
382 1 4.42372 4.44964 -7.10937 20
383 1 2.86645 -8.80984 3.69978 20
384 1 -15.4659 -5.05126 -3.4364 16
385 1 6.49477 4.28567 -0.446157 20
386 1 -5.8817 4.57381 -13.0482 17
387 1 16.1941 0.568495 3.4045 13
388 1 8.84214 -6.3182 0.5657 20
389 1 16.4254 1.04409 0.406601 12
390 1 -1.92223 1.05003 -10.9636 22
391 1 0.360452 -7.38469 1.89908 20
392 1 1.0955 -13.4517 6.18994 13
393 1 4.63459 -9.32805 7.9889 19
394 1 -7.30265 0.974836 -10.9591 21
395 1 6.85792 6.17356 2.29763 21
396 1 -1.32504 -8.40715 -11.2792 17
397 1 -0.307432 4.86634 -13.0084 17
398 1 6.78794 -2.51673 14.0953 14
399 1 -13.8288 -4.45604 0.108309 22
400 1 15.38 2.25362 -5.185 12
401 1 10.1856 -5.10226 -5.79934 20
402 1 1.83354 7.21625 -7.65345 22
403 1 -5.48987 4.5006 -3.0009 20
404 1 0.716058 -8.34376 -7.20209 20
405 1 6.53368 1.45517 -8.36008 16
406 1 12.7676 -2.88468 -6.88994 15
407 1 -5.39426 1.90992 15.479 13
408 1 1.7315 12.9241 1.65735 21
409 1 -5.35999 -2.26325 -14.2836 14
410 1 2.30292 -5.07721 0.959102 21
411 1 -3.56495 -0.339409 4.28289 20
412 1 -1.87153 15.0236 4.1769 12
413 1 -13.579 -4.64233 -11.2096 10
414 1 -15.7499 -1.93564 0.627629 15
415 1 -6.76949 -8.84495 7.29089 21
416 1 5.90564 8.78606 -6.98544 19
417 1 12.3691 6.65232 0.491645 21
418 1 -10.1868 -11.44 1.07487 19
419 1 -1.55585 -9.85894 -0.0681428 20
420 1 -0.774746 12.5352 10.1699 8
421 1 4.46546 -3.99008 -8.2797 19
422 1 4.30618 6.47825 0.427347 22
423 1 13.9291 -3.98484 -1.14935 15
424 1 1.60438 13.1758 -11.4416 11
425 1 3.07612 -8.12523 0.485554 20
426 1 5.6996 -3.16627 -3.21097 20
427 1 -10.5831 1.65551 6.87289 17
428 1 -4.18055 -4.95339 1.19111 21
429 1 5.26746 10.5127 11.9908 12
430 1 -3.08319 2.90148 -13.4575 16
431 1 -4.14772 -9.78287 -1.9237 22
432 1 0.694597 -2.34548 11.1511 21
433 1 6.68377 10.7509 9.21103 14
434 1 6.56535 6.31997 -8.54842 17
435 1 -6.9647 10.5957 -4.16561 17
436 1 3.02682 13.5157 -8.38893 16
437 1 8.11244 -2.34569 11.1239 22
438 1 12.1756 3.06195 -9.20838 14
439 1 -15.621 -5.79247 5.07223 11
440 1 -5.90428 -5.81317 8.67815 21
441 1 -3.41994 11.5984 -9.75449 12
442 1 3.3349 -11.6604 -3.12685 24
443 1 3.98954 -1.87318 -11.3828 20
444 1 3.46193 15.0844 -5.60206 15
445 1 -6.78115 -7.28631 -13.6537 13
446 1 3.18643 -16.1754 2.59102 11
447 1 -13.0436 -6.92872 -2.45274 19
448 1 -6.64991 -0.0155903 -5.69197 26
449 1 -13.497 -6.83446 7.84436 12
450 1 3.94819 8.74218 -1.70289 20
451 1 -0.898528 -10.5798 -8.79681 17
452 1 0.283345 -10.4222 11.1946 10
453 1 7.23366 0.12011 -3.79491 19
454 1 1.20176 0.345148 -1.87305 18
455 1 -8.93147 2.10288 -0.425745 23
456 1 13.5628 -8.45548 -8.69991 7
457 1 2.75894 8.30723 11.8577 18
458 1 0.72941 2.70105 -10.8281 21
459 1 6.16427 11.637 4.5391 20
460 1 9.87955 1.87814 -10.1551 16
461 1 -2.20683 -3.79838 -14.455 18
462 1 -3.31147 -12.607 -0.767671 20
463 1 -12.9379 -2.47698 -9.20082 17
464 1 11.8412 3.87584 1.94776 22
465 1 14.5734 7.03298 -2.35562 14
466 1 7.63175 -8.84454 -9.69761 12
467 1 4.62972 -10.0517 -8.71649 16
468 1 6.45676 14.2674 2.11203 18
469 1 -9.81081 4.01082 1.95531 24
470 1 9.57317 13.9856 0.936097 12
471 1 13.538 1.57858 1.62016 19
472 1 11.8802 6.13316 -8.95864 12
473 1 9.2526 -0.274789 13.5703 13
474 1 3.5266 -9.64617 11.1013 12
475 1 4.83123 1.14099 4.03284 19
476 1 0.0709648 -2.36767 14.3167 12
477 1 14.0176 0.387678 -7.45727 11
478 1 8.70461 0.61418 9.17902 23
479 1 -9.12883 1.92635 -6.1616 21
480 1 13.7225 9.97308 -3.72229 13
481 1 9.72939 -3.66799 2.82373 23
482 1 0.63478 -6.5583 -1.31258 21
483 1 8.78338 2.16731 11.6996 17
484 1 2.57852 10.8465 9.89755 19
485 1 2.91814 3.35019 5.34429 19
486 1 -7.54708 12.3057 -1.88887 13
487 1 12.3715 7.70255 -5.66176 19
488 1 9.08734 -4.15317 -10.4414 13
489 1 0.601125 13.7235 -6.11203 15
490 1 -1.51009 -8.47623 -3.50928 23
491 1 -12.5932 1.26744 3.91628 16
492 1 -2.97674 6.20206 -13.0917 18
493 1 -6.63563 -13.435 0.848658 15
494 1 -1.83751 4.4823 -10.104 24
495 1 -12.3217 1.47402 -6.07694 18
496 1 8.81723 -3.84611 6.28467 22
497 1 8.32065 13.8532 3.95909 15
498 1 -1.52922 -10.8875 7.08641 17
499 1 -16.1783 3.2914 -3.75157 12
500 1 3.34716 3.28389 -0.678524 20
501 1 -1.14879 -7.89245 8.08758 20
502 1 3.14151 2.9734 15.8514 14
503 1 6.78569 11.2783 -12.4986 8
504 1 7.46246 5.46922 -5.98728 20
505 1 6.62731 -0.982835 -0.658894 23
506 1 4.85769 -12.0272 -5.73908 16
507 1 12.5139 0.989146 4.48091 22
508 1 10.6002 8.73417 5.33866 16
509 1 14.405 -2.37719 4.40048 14
510 1 -2.7515 2.37055 7.60466 20
511 1 -11.2768 -6.3616 0.0859552 21
512 1 -9.90787 -1.10712 -10.2226 21
513 1 6.27227 0.216769 11.8647 23
514 1 -9.24383 -8.98346 9.6233 13
515 1 6.97778 4.85178 12.2081 18
516 1 -10.2048 11.4395 -2.30855 14
517 1 8.90504 3.7243 1.74376 21
518 1 8.20024 -3.89981 -0.848135 23
519 1 6.7832 3.62013 3.83684 20
520 1 -0.152379 1.76132 -14.0809 15
521 1 -9.85402 -7.22891 7.19621 20
522 1 6.59585 0.339925 -11.4019 22
523 1 -4.11482 -5.19319 -6.79316 20
524 1 6.19487 -7.73774 -6.72295 21
525 1 6.77706 2.97296 9.90924 21
526 1 4.31306 8.22694 8.91545 22
527 1 9.01253 8.3312 8.2657 16
528 1 1.66502 -4.6756 14.1249 14
529 1 -0.96407 0.0491901 12.496 22
530 1 1.48217 -5.07948 -15.1699 14
531 1 -6.66127 1.53933 12.3673 15
532 1 -0.972308 5.8502 -1.84475 22
533 1 4.5938 2.93183 12.7834 22
534 1 5.91532 11.2603 -1.61948 21
535 1 7.69532 -13.1106 -4.22779 11
536 1 -8.06513 -0.291591 -8.37251 23
537 1 11.6588 12.3942 -1.88377 12
538 1 6.29348 13.4558 6.75717 16
539 1 -0.96204 -0.36257 6.48896 22
540 1 6.91919 15.8368 -5.18084 8
541 1 12.7468 8.86452 2.95235 13
542 1 0.792055 -4.45382 -4.06737 22
543 1 -4.43894 -10.4239 1.55096 23
544 1 -2.67078 -0.380167 -14.3745 15
545 1 -10.5793 9.26958 -0.14049 17
546 1 6.44526 -5.92174 -9.98494 18
547 1 11.8703 11.5789 0.830207 13
548 1 9.75136 5.32192 -10.8755 13
549 1 10.5675 10.2559 -4.31611 16
550 1 -5.32986 6.70769 5.08139 21
551 1 -6.89135 2.18845 2.13883 19
552 1 6.10129 10.1675 -3.97215 18
553 1 -10.1594 -12.2843 4.9339 13
554 1 -3.74434 9.71907 -12.3024 12
555 1 4.68363 13.0781 9.64974 11
556 1 1.87765 -2.42041 6.00741 18
557 1 8.44062 12.3566 -3.5004 16
558 1 6.50162 8.75314 6.65758 21
559 1 -6.78381 -0.741271 -1.93836 24
560 1 12.2109 -6.09636 -3.60024 18
561 1 -14.1177 -3.91439 6.1988 15
562 1 1.11872 -15.488 0.568595 14
563 1 0.772336 0.332193 -8.75129 22
564 1 -0.041878 5.38296 5.38911 21
565 1 6.61186 -6.27231 -3.35484 22
566 1 5.0754 8.64491 3.6205 23
567 1 -17.0745 -4.8822 -0.11582 13
568 1 4.39851 -16.1823 -0.452517 12
569 1 9.37171 7.22189 -7.94193 18
570 1 3.37306 -2.94327 3.19136 19
571 1 -2.0712 8.06225 0.540477 21
572 1 1.20266 -0.664651 -11.6936 21
573 1 1.26931 -10.7479 7.84305 18
574 1 -3.5707 10.6638 1.20865 21
575 1 -5.42334 4.44236 12.7629 16
576 1 -2.08171 0.287438 -0.777697 21
577 1 -9.16738 -8.58053 -12.1324 11
578 1 3.08074 -1.46275 -7.88574 21
579 1 1.643 0.466872 4.13319 22
580 1 0.641621 13.7606 4.93811 14
581 1 4.7259 -8.07124 -11.6568 12
582 1 4.05444 -6.6177 6.33182 20
583 1 -2.55481 -11.9907 -3.61628 21
584 1 -12.1178 -3.81448 8.70252 14
585 1 -1.49391 0.523491 -3.70456 21
586 1 -5.65555 -12.6246 -2.6265 19
587 1 1.28131 -1.32825 -4.10478 21
588 1 -9.16795 -1.2779 6.38226 21
589 1 10.8758 3.95105 -1.28179 21
590 1 -3.40394 7.06725 7.83397 19
591 1 -11.7166 3.65264 -0.676703 21
592 1 12.3441 -1.34593 2.13305 21
593 1 -1.38689 8.34369 -4.26708 20
594 1 9.78013 -1.50421 -10.707 17
595 1 2.26167 -4.81991 8.28063 18
596 1 12.0173 1.29745 -2.46624 23
597 1 -15.2538 0.760155 -4.21832 20
598 1 -13.9613 -9.95677 -2.06719 11
599 1 2.22458 6.5297 -13.7416 11
600 1 -2.55009 -2.65844 11.7832 19
601 1 -3.73106 -8.33589 7.20775 23
602 1 0.690096 -6.38857 -9.65119 21
603 1 -9.06893 9.03248 -2.87836 24
604 1 4.95031 5.9972 5.48529 19
605 1 -8.26669 -8.279 2.09573 19
606 1 6.76168 7.11243 -11.9586 12
607 1 -0.53826 -17.0007 -2.47754 7
608 1 9.47201 3.8244 -7.99969 19
609 1 -5.51053 1.09608 -13.4288 16
610 1 2.96758 -1.48735 15.9931 9
611 1 4.79027 8.54461 -14.1039 10
612 1 -10.5816 -3.6349 -4.84486 19
613 1 8.69868 -1.19652 1.32189 21
614 1 -8.2012 -6.32829 -0.153478 20
615 1 10.7645 5.30015 -5.59347 21
616 1 11.6899 -6.39529 -0.337732 16
617 1 -3.27639 6.95478 13.4081 13
618 1 5.19405 -10.2525 -1.00863 21
619 1 13.2716 -4.39683 1.91419 15
620 1 12.3568 -2.8116 10.4154 12
621 1 3.91903 10.7475 6.64578 22
622 1 -6.87677 7.0659 7.75749 16
623 1 -8.64925 -11.15 7.25508 13
624 1 8.99225 1.14222 3.2852 22
625 1 7.10357 7.88727 10.6908 16
626 1 -15.1113 -2.04225 -1.96618 19
627 1 9.29527 -5.64606 -2.64949 21
628 1 8.61073 4.8567 -3.35457 19
629 1 2.25133 6.12296 3.44186 19
630 1 4.87661 0.49316 14.9303 15
631 1 -0.254778 10.5227 1.02139 23
632 1 3.17403 -11.3219 5.5702 19
633 1 -9.25851 -0.746131 -4.05187 21
634 1 1.63147 2.70746 12.5219 21
635 1 2.82393 11.0515 -0.690956 20
636 1 -11.7849 -9.59689 6.24601 15
637 1 7.96697 -4.46704 9.58579 21
638 1 10.5997 -2.31223 8.31046 20
639 1 6.75028 5.81951 8.28686 20
640 1 0.451933 3.22665 -3.28158 19
641 1 -4.19674 -3.72224 -9.6664 21
642 1 -4.54118 2.88031 -10.8335 23
643 1 -8.36669 -1.2365 11.7395 16
644 1 -1.44407 13.2695 1.24997 19
645 1 14.688 5.98825 2.11951 11
646 1 4.14093 10.7201 -9.2992 22
647 1 -3.37213 4.60967 15.5115 12
648 1 5.32957 7.78854 13.6707 11
649 1 6.84046 -2.00818 -9.12195 21
650 1 -7.0207 -10.5331 0.00453489 21
651 1 -8.30042 -3.84374 -12.7449 16
652 1 14.0252 3.26138 4.18961 17
653 1 1.22232 -3.05634 -9.71958 20
654 1 -1.4533 -6.1204 -5.57479 22
655 1 15.3586 -1.60274 1.43038 16
656 1 2.30178 -7.74822 9.1518 20
657 1 -3.91837 -8.19882 -13.0476 15
658 1 3.93814 0.245219 -4.8537 18
659 1 6.4555 14.6349 -0.699964 11
660 1 0.0651912 -5.40723 10.1476 17
661 1 -12.7635 3.95373 2.03898 17
662 1 12.4951 1.91056 -5.92031 22
663 1 3.39276 -2.71253 -14.7293 12
664 1 -4.79385 9.69723 8.06715 16
665 1 2.87542 3.41938 -12.4477 17
666 1 10.7496 -3.41601 -0.202104 21
667 1 -13.2998 0.897618 -1.67152 22
668 1 10.0749 6.61512 2.96696 21
669 1 -13.7755 -6.83567 1.90863 20
670 1 4.23176 5.24686 10.4065 19
671 1 -9.56014 -3.75578 -9.42332 23
672 1 -10.8204 4.33802 4.92071 14
673 1 -6.94411 2.76645 -7.81621 22
674 1 10.5447 -10.0526 -7.95997 13
675 1 -11.1936 -8.90009 -7.30629 18
676 1 10.9269 -9.04556 -2.37798 16
677 1 -14.9356 3.58591 -0.521332 15
678 1 -6.92428 -5.61682 -4.97884 23
679 1 -8.4012 -4.0693 8.08039 22
680 1 12.451 0.304171 8.42464 19
681 1 11.3326 -1.77869 5.23842 20
682 1 -11.1591 0.918083 1.01371 22
683 1 -0.106762 9.92454 11.7259 14
684 1 4.07198 7.90921 -9.85113 16
685 1 -4.1298 12.8394 3.30786 17
686 1 8.09112 10.171 -6.80759 17
687 1 0.0803508 6.74228 13.3592 16
688 1 6.05543 -7.45227 10.0483 19
689 1 7.03725 12.4835 -9.23028 15
690 1 1.58029 -2.67112 -0.91908 19
691 1 -5.22715 -0.888958 11.5809 22
692 1 -5.1188 -2.57916 -6.71203 21
693 1 -13.355 3.6238 -3.71278 21
694 1 -6.58525 -10.8134 9.28096 12
695 1 2.77552 -2.04099 8.97526 20
696 1 0.420668 -10.6324 -4.7039 21
697 1 -14.2953 6.09278 -3.00782 16
698 1 11.3982 -0.138734 -8.19248 18
699 1 -7.39241 6.65648 2.53727 21
700 1 -7.54725 1.57855 6.89235 19
701 1 -2.70198 -2.80407 -4.47184 19
702 1 -9.44481 -11.2682 -6.55879 14
703 1 3.35338 -9.32489 -5.62561 22
704 1 6.02955 -12.9182 -1.09453 17
705 1 2.37612 9.78523 -12.4579 17
706 1 15.1394 1.49847 -2.19855 18
707 1 9.93015 9.15448 0.997322 19
708 1 10.9876 1.08768 0.431515 22
709 1 -0.625146 8.10758 -12.617 17
710 1 -0.0677952 -2.2625 3.73992 22
711 1 5.15035 12.0873 -6.50931 22
712 1 8.54951 0.587851 -6.9748 21
713 1 -11.2892 6.302 -2.99885 21
714 1 2.90789 3.68864 -5.17985 22
715 1 -11.4255 -6.48833 10.145 12
716 1 5.0659 11.4352 1.61458 22
717 1 -0.305591 -15.1756 3.34316 13
718 1 8.69508 9.7487 -1.73585 21
719 1 -3.5314 9.70027 11.4135 12
720 1 -10.0737 -1.34453 8.90517 15
721 1 10.0573 -1.09005 -1.90799 22
722 1 -2.46122 -1.95906 1.62617 20
723 1 -4.37171 -5.57345 11.3634 16
724 1 4.69263 -11.0681 2.36714 22
725 1 -4.30988 -0.202071 7.04562 22
726 1 2.62776 5.3924 7.6198 20
727 1 7.14176 -4.75196 -6.63238 21
728 1 -11.3562 3.86501 -11.3678 17
729 1 0.21492 -2.03258 -6.65404 19
730 1 -8.74353 8.07547 -9.97718 16
731 1 -14.6189 3.32156 -6.65404 14
732 1 8.15241 11.7885 1.27087 21
733 1 -1.01545 8.3869 6.29859 20
734 1 -11.5873 -11.4867 -2.24749 13
735 1 -4.50717 0.0169523 -2.97246 22
736 1 -11.3119 8.75168 -5.15502 16
737 1 11.1741 2.97977 9.83007 13
738 1 -4.06952 -5.92827 5.34765 23
739 1 9.57043 -2.4051 -13.799 8
740 1 6.41561 -8.38935 1.36272 18
741 1 3.5265 1.61275 -10.4027 19
742 1 -11.4392 -2.66298 -12.6353 11
743 1 -5.82133 -5.37811 -1.94204 20
744 1 -7.90545 4.35817 -10.4665 21
745 1 -3.53224 4.59771 10.1196 21
746 1 5.22718 -2.32372 10.8688 22
747 1 -9.6654 -9.20073 -0.892892 20
748 1 15.9628 -1.56711 -2.14029 11
749 1 1.19451 9.27722 -9.89234 21
750 1 11.8341 9.16711 -1.35032 20
751 2 -5.40733 0.67679 -10.9685 20
752 2 -1.97206 6.53335 -3.58921 19
753 2 2.65982 0.519489 -8.66158 23
754 2 -5.13479 0.0607206 14.9136 14
755 2 -9.24853 -6.82225 -11.3123 19
756 2 4.35431 -3.76493 12.2654 17
757 2 -16.1807 -9.19799 2.30144 10
758 2 -9.64127 7.95776 -6.35872 19
759 2 2.36565 14.1401 6.19816 14
760 2 -10.8656 0.701272 3.03738 22
761 2 9.35279 5.0334 6.06009 21
762 2 3.13326 0.0820583 2.83244 19
763 2 -2.46576 -0.833402 -4.78462 19
764 2 -12.8339 -8.60019 -6.14991 14
765 2 -8.45769 3.68734 -6.77541 21
766 2 0.387956 -6.56592 5.00434 22
767 2 4.66398 -0.570842 10.3847 20
768 2 5.42079 1.29782 -9.97684 17
769 2 2.89033 -16.4892 0.678288 12
770 2 6.10394 -0.305264 4.35207 18
771 2 -7.89901 5.46473 -1.52722 22
772 2 -9.65641 -1.97301 -5.43197 20
773 2 12.4196 5.03088 6.61279 15
774 2 9.65147 -10.8306 -6.51373 14
775 2 -2.46799 -3.07914 -2.34543 21
776 2 -13.4828 -9.86155 5.41705 11
777 2 -11.4429 -5.09786 4.47455 21
778 2 -2.83746 -12.2525 3.53786 18
779 2 12.2491 -3.6483 8.64368 16
780 2 0.973043 -14.4772 -3.69829 16
781 2 5.52677 3.95882 11.3385 22
782 2 -5.07299 8.51656 -11.3687 16
783 2 -12.8681 -10.6431 -3.39605 12
784 2 4.79873 3.78565 16.3187 11
785 2 -7.06317 8.60256 2.29923 21
786 2 2.98182 3.30634 13.8434 20
787 2 -7.39763 8.01819 -3.61303 21
788 2 6.35949 -12.5658 2.98261 15
789 2 -4.87243 6.21954 6.88371 19
790 2 -5.66063 6.09799 1.0263 20
791 2 -1.96529 11.8973 -8.56035 15
792 2 5.29699 -2.08898 -1.4833 21
793 2 6.3024 -5.94365 -5.18477 20
794 2 -4.30431 -1.1301 -7.86557 21
795 2 0.424338 -4.66439 -8.53843 18
796 2 2.78648 1.59883 -5.78592 22
797 2 10.0419 -0.529444 -7.02568 21
798 2 -2.5693 3.22564 11.445 23
799 2 0.336734 -5.36836 2.15797 20
800 2 2.51045 3.26616 -10.5403 19
801 2 -7.40142 8.76841 -8.59768 16
802 2 12.6133 10.877 -2.20957 12
803 2 -5.91164 -4.72636 12.4515 16
804 2 -11.3098 7.39989 0.801612 18
805 2 10.6779 0.0787095 -9.88855 14
806 2 1.48966 -5.2727 -11.1886 21
807 2 -16.0782 -5.27813 -1.66882 13
808 2 4.76649 12.5643 5.54465 20
809 2 -3.5972 8.83519 1.46546 22
810 2 -5.17573 -10.892 -8.77679 15
811 2 -0.269387 12.1053 5.6201 19
812 2 5.03654 -10.563 11.143 11
813 2 10.1451 -3.04241 5.14858 19
814 2 -12.471 2.48714 -2.16458 20
815 2 6.97718 -0.10196 1.37621 19
816 2 1.75613 2.28802 -1.83024 20
817 2 9.86302 -9.89402 -0.857656 16
818 2 8.86827 -11.6867 -3.48909 17
819 2 8.60317 7.64117 4.04678 20
820 2 5.72602 -10.0481 1.06698 19
821 2 15.3698 -0.78473 4.46731 13
822 2 -4.77115 1.00071 11.2348 23
823 2 12.508 -4.64679 0.137892 18
824 2 0.196735 6.71702 9.84532 21
825 2 8.19609 6.86749 9.43423 16
826 2 -2.66225 6.22944 9.35054 20
827 2 6.51569 12.3422 2.73036 20
828 2 11.9446 -5.25704 3.06409 15
829 2 3.44548 7.68749 -3.26274 22
830 2 -12.5278 -6.24026 -11.1462 11
831 2 -7.63992 2.56109 11.0041 15
832 2 2.7185 -0.502454 -3.03881 20
833 2 -6.53057 -1.9181 -5.70242 23
834 2 -13.2205 -0.338935 4.78171 15
835 2 -11.1077 -5.09612 1.68576 22
836 2 13.5957 0.324029 -2.45508 22
837 2 3.65721 -7.32384 4.55629 17
838 2 -2.85788 -1.8844 10.0432 20
839 2 7.41241 -2.52144 -13.9592 12
840 2 8.51845 1.38233 13.4154 14
841 2 0.177329 4.00322 11.6278 22
842 2 -8.54652 2.9922 3.19778 22
843 2 4.34189 -8.07284 -6.98258 19
844 2 12.6555 -0.0585804 0.774496 22
845 2 -7.58233 7.94437 6.41091 16
846 2 -4.83735 -14.1525 -3.75971 15
847 2 12.3857 -9.36784 -7.67539 10
848 2 6.71595 -1.68145 -4.35185 21
849 2 1.18808 4.15794 6.24132 21
850 2 6.64643 -7.76414 -10.9363 13
851 2 6.05265 -6.83448 11.7957 14
852 2 -9.72905 -5.21394 7.02281 21
853 2 10.776 3.19977 0.457225 23
854 2 1.75254 -2.95891 3.95278 17
855 2 -10.0671 -7.37403 9.0923 15
856 2 7.88721 8.62493 -8.23911 15
857 2 -1.16894 -8.66415 1.42817 23
858 2 12.9307 -7.12313 -5.0612 16
859 2 -2.11037 -11.6258 -7.65884 15
860 2 11.8391 -2.29157 -1.50173 22
861 2 -0.524835 1.98672 -4.35994 20
862 2 -5.56269 8.31016 -0.843282 22
863 2 12.6501 4.67284 -8.22428 15
864 2 1.6439 -5.93475 -2.89636 20
865 2 -7.77314 -4.79488 -6.55288 23
866 2 -14.0089 -4.6998 1.94677 21
867 2 -5.35632 -7.66545 8.32537 22
868 2 -2.41983 -9.03025 -1.55597 23
869 2 -12.7564 5.01326 -10.4188 9