ITEM: TIMESTEP
19000
ITEM: NUMBER OF ATOMS
1500
ITEM: BOX BOUNDS pp pp pp
-30.0 30.0
-30.0 30.0
-30.0 30.0
ITEM: ATOMS id type x y z Coordination
1 1 -9.68531 -9.921 -8.91612 18
2 1 1.28668 -9.16388 8.62655 21
3 1 -20.7817 9.89726 0.0180338 9
4 1 -15.7326 2.35033 -6.887 21
5 1 -2.71276 -7.85449 12.2783 17
6 1 -13.372 0.890146 -7.10588 20
7 1 -9.69086 -9.50116 1.42931 20
8 1 -17.1354 -7.27119 4.53795 19
9 1 -4.6092 6.8248 15.0289 15
10 1 -9.30962 3.57804 12.9208 16
11 1 -3.96216 11.1474 -6.15468 21
12 1 -2.99326 -1.19693 13.347 21
13 1 5.08638 5.25787 7.6297 21
14 1 -4.90922 15.2448 -7.48123 9
15 1 -0.929194 4.60032 -12.1424 15
16 1 -7.38588 -3.99177 -6.7666 21
17 1 -0.0693376 -14.7178 5.10455 12
18 1 3.59277 -13.4857 4.83907 10
19 1 -9.94197 -15.6711 -6.13086 7
20 1 -5.9412 -7.49594 -14.9175 7
21 1 -7.69887 6.16715 16.018 9
22 1 -3.48627 -9.77654 7.60159 20
23 1 -0.445332 -4.81631 12.8987 20
24 1 -22.1178 -3.93798 3.83449 7
25 1 -16.2629 0.417284 -1.87649 19
26 1 -5.76042 10.9583 -0.912923 18
27 1 -4.05423 0.884325 -8.23109 21
28 1 -3.63231 -9.26057 -12.2966 13
29 1 -5.55514 -3.59498 16.3868 10
30 1 -18.3932 5.46198 3.53398 21
31 1 -7.23486 12.2188 9.00793 16
32 1 -14.8163 11.3458 -3.08346 14
33 1 -12.4553 8.18142 -1.72239 22
34 1 -6.65659 -9.78382 6.21382 22
35 1 0.90396 -12.8062 -8.74577 14
36 1 -17.1801 3.21454 12.9768 11
37 1 -16.0736 -3.70232 -8.59287 21
38 1 -0.0706233 -1.23995 8.2121 23
39 1 -17.8361 10.2467 -4.79713 10
40 1 -12.7101 -9.88395 6.35861 17
41 1 -18.4763 7.04363 -5.90747 14
42 1 -3.44401 3.7551 9.90586 20
43 1 -1.92894 -13.1068 -4.15633 19
44 1 1.52549 8.21821 14.2377 11
45 1 4.75391 -1.48459 -9.92939 12
46 1 2.72958 -10.0952 5.91654 17
47 1 -0.168378 -0.760912 14.8057 14
48 1 -10.6937 -12.128 6.55739 13
49 1 -18.0139 -2.31646 1.36549 19
50 1 4.37681 2.63405 9.27762 22
51 1 2.48617 -1.67952 -3.70485 23
52 1 -6.295 10.5491 11.3564 13
53 1 -0.125591 -1.852 11.4379 22
54 1 -10.1544 -3.84955 -8.45626 19
55 1 -19.5539 10.9618 3.20374 10
56 1 -7.78385 6.75018 -7.78805 19
57 1 1.74384 -4.42865 -5.63224 20
58 1 1.59496 -9.23525 1.11324 15
59 1 -0.148367 -6.47696 8.07031 20
60 1 -8.23132 14.5023 -9.07669 8
61 1 -16.235 11.2382 4.72775 12
62 1 -12.3225 9.07504 4.71579 21
63 1 -12.5407 -7.48238 11.6143 17
64 1 2.37601 -10.2192 -4.118 16
65 1 -24.5223 6.9138 2.53937 6
66 1 5.4557 -6.75978 1.56662 22
67 1 1.46161 1.63129 -8.53623 19
68 1 -11.006 -1.78959 -15.1667 9
69 1 -9.2201 14.4358 5.93468 16
70 1 -15.3276 8.78622 -6.79755 14
71 1 -8.53743 11.5308 -7.81457 15
72 1 -6.24079 8.75814 1.06029 21
73 1 -11.3753 -7.29878 8.14347 21
74 1 -6.25979 -6.81384 -8.28166 22
75 1 -4.20016 -4.79867 -8.27558 22
76 1 -9.40522 3.61253 9.73095 23
77 1 -17.6141 -8.36635 -1.75124 16
78 1 -13.6563 -12.5081 -1.39588 16
79 1 5.59979 -7.78655 4.75647 16
80 1 -13.2978 6.07257 3.30523 19
81 1 -0.185856 1.49164 -13.0875 11
82 1 -0.796095 9.36873 -5.39034 22
83 1 3.91568 -10.0878 3.55026 13
84 1 -3.52183 -14.4633 3.97557 13
85 1 -9.93284 -10.6865 -4.8525 20
86 1 -18.2958 -5.00889 3.19218 19
87 1 5.45301 9.17637 8.28156 14
88 1 -9.23504 9.63851 9.52894 17
89 1 -9.07294 11.3705 -1.95234 18
90 1 -7.0616 -3.98742 -10.1191 22
91 1 4.29126 -1.65219 12.4669 10
92 1 -10.5227 6.16057 -5.05483 19
93 1 4.18958 1.45248 -4.0123 23
94 1 -20.1067 9.30731 -2.34748 8
95 1 -17.2764 10.1718 -1.50167 14
96 1 3.15277 4.34731 -9.50832 16
97 1 4.563 -8.90649 8.80665 12
98 1 -15.4728 3.07324 -3.65892 24
99 1 -1.88369 11.9333 3.38121 21
100 1 5.49485 9.27419 2.02525 17
101 1 -12.2181 11.0773 -3.31769 17
102 1 -9.45021 -2.78636 -13.3228 17
103 1 -1.70046 14.2993 8.8971 12
104 1 -18.8062 -4.78467 -3.31095 17
105 1 8.72143 -4.25191 -1.35093 11
106 1 -9.46407 9.11215 6.17556 21
107 1 -3.9918 14.3543 -4.3936 10
108 1 -0.646371 -3.58501 15.9085 11
109 1 -15.9427 -4.90153 1.60142 23
110 1 -8.95334 -10.9126 10.261 13
111 1 -3.81659 -15.2249 -5.97428 13
112 1 -5.59164 12.6324 -9.38739 14
113 1 1.77267 8.97514 -3.49981 22
114 1 -5.05056 -6.92636 14.3794 15
115 1 -16.0041 0.357893 1.91011 21
116 1 -7.39313 15.2198 4.30488 13
117 1 -4.15372 6.98429 11.2008 22
118 1 -13.0542 12.064 6.01138 14
119 1 -12.3122 3.7284 -5.13992 19
120 1 8.81433 -6.38002 2.05674 8
121 1 -12.5513 -4.25553 6.39996 21
122 1 -20.1198 -1.45385 4.11167 17
123 1 -13.7413 -12.5245 4.73203 13
124 1 -19.5348 0.564792 -3.56891 16
125 1 -10.0069 -11.5762 -0.573409 20
126 1 2.6716 -6.51425 -0.334546 20
127 1 -6.35111 9.08307 4.59699 21
128 1 -15.219 -2.46725 -3.48971 21
129 1 -9.61999 8.66208 -6.58028 20
130 1 -18.7511 -4.65404 -7.35068 13
131 1 -14.333 -2.33832 13.9234 12
132 1 -5.74411 -7.10271 7.66609 22
133 1 -0.124924 -12.1294 7.51726 14
134 1 9.26558 2.54263 4.13357 16
135 1 -0.668593 3.38748 -5.09424 24
136 1 1.07324 2.04683 14.7634 14
137 1 -2.89205 6.14927 -11.7794 16
138 1 3.09974 1.5389 -11.3862 11
139 1 -15.8448 -4.77176 -5.12094 23
140 1 -9.90587 12.1172 -5.27578 17
141 1 -14.0836 11.2499 -0.186039 15
142 1 3.43175 -0.713492 9.31759 17
143 1 -11.0529 -4.2507 -10.9323 19
144 1 -8.16541 7.67533 -10.8344 13
145 1 -4.2727 6.57931 -8.62976 23
146 1 -11.7552 3.42788 8.24956 23
147 1 -15.7238 5.87956 11.8279 11
148 1 -4.52634 -10.7745 -8.28894 21
149 1 -12.4159 -13.2914 1.15624 12
150 1 2.23813 -15.2362 2.68998 10
151 1 0.870618 11.1779 -6.45375 14
152 1 -6.93038 8.57928 -2.31571 22
153 1 -18.7756 0.951175 3.60429 20
154 1 -1.52818 6.72809 9.60041 21
155 1 2.57557 3.24495 -6.7826 18
156 1 -4.71663 6.51546 8.25992 22
157 1 -14.6348 3.83028 6.68563 19
158 1 -14.5515 -6.56947 -3.26429 19
159 1 2.23292 3.72987 -12.4611 11
160 1 -2.96679 -1.68175 10.0675 22
161 1 2.11761 9.67767 -9.58257 10
162 1 -3.71814 -9.86997 -2.39871 22
163 1 -10.263 1.26361 -8.55949 20
164 1 2.65375 -2.02359 -6.9245 21
165 1 -17.8205 -5.05281 6.50142 16
166 1 -1.61967 -13.628 -0.955317 17
167 1 -18.6442 -7.42871 -5.22976 14
168 1 -1.54428 14.3042 0.871623 15
169 1 -4.36129 -2.04258 -9.9379 20
170 1 0.250143 5.07108 14.4568 12
171 1 9.02112 4.42568 0.743736 18
172 1 4.82813 -8.16417 -7.10247 13
173 1 -13.2761 -5.37573 -10.047 19
174 1 -17.5733 -6.9415 -8.2496 14
175 1 2.22408 -3.11469 14.2223 13
176 1 -1.23364 -4.48167 9.82308 21
177 1 -9.40237 -6.62882 -10.2737 22
178 1 -4.19008 -4.47594 8.47619 21
179 1 -3.8875 10.043 -9.48591 17
180 1 1.28949 6.31542 1.53185 23
181 1 -11.7879 -7.28261 4.92178 24
182 1 -3.10982 9.08304 3.05222 22
183 1 -12.4462 -4.74781 13.274 16
184 1 -12.1394 -11.3144 -9.68767 9
185 1 -12.9782 -3.70465 -7.06069 20
186 1 -6.19712 -8.97135 -6.67519 19
187 1 -12.5701 -10.1225 3.17233 24
188 1 5.72486 3.92276 4.91058 18
189 1 -17.0272 -2.5487 12.2156 11
190 1 -9.00763 -8.92463 -2.13127 22
191 1 -6.89997 -9.50366 2.85381 23
192 1 -7.17564 11.4932 2.69401 20
193 1 -3.55757 -2.28098 -13.1303 17
194 1 -11.2397 -5.15661 -13.5236 13
195 1 -4.90066 -12.2069 2.93796 22
196 1 -4.95581 -14.2482 -9.34809 11
197 1 -15.6535 3.27861 -10.3253 11
198 1 2.451 4.2623 6.44331 22
199 1 -13.0307 4.03315 -12.8464 11
200 1 -6.38158 8.63308 -5.97674 22
201 1 -11.853 -2.18818 8.3494 24
202 1 -11.6312 12.8633 -0.642717 10
203 1 -5.42916 14.3358 6.4513 14
204 1 4.20902 2.04363 6.10895 24
205 1 -16.2038 0.53669 5.40609 21
206 1 -8.23915 -6.63412 12.8492 20
207 1 -15.8872 5.81767 5.34582 22
208 1 -7.4011 -4.55148 -13.4359 15
209 1 -4.02434 -9.37863 1.30224 22
210 1 -6.91758 1.31792 13.1606 16
211 1 -20.4317 -7.41667 3.54362 11
212 1 8.20448 -1.02178 -0.370083 16
213 1 0.500346 -10.2456 -6.86262 20
214 1 0.313902 -11.3354 -1.98946 16
215 1 -15.8777 8.09592 -3.63872 21
216 1 4.61748 8.18692 11.8803 12
217 1 -15.0239 -2.2664 3.10309 22
218 1 4.77823 -13.406 1.54878 11
219 1 -9.32869 8.73378 2.91633 22
220 1 -10.231 6.64717 8.16155 22
221 1 -0.870225 -10.4506 10.5489 13
222 1 8.6224 -1.5837 6.5365 12
223 1 -7.06315 7.85322 12.9966 14
224 1 -12.8393 -3.95116 -3.40218 20
225 1 -5.9789 3.72979 14.6903 15
226 1 -10.088 14.3051 9.03253 8
227 1 -14.9585 0.812813 15.262 9
228 1 -19.1158 5.9517 6.74243 15
229 1 -10.2682 -3.97027 -5.2215 21
230 1 -12.4569 8.72933 1.38958 21
231 1 2.43219 -1.20306 6.48237 21
232 1 -17.2042 -13.0472 3.84093 8
233 1 2.73759 -8.58527 11.4048 8
234 1 -15.2381 8.47271 3.57742 22
235 1 -6.55 -3.65156 13.3154 18
236 1 -3.02144 -7.6072 -6.9082 21
237 1 -12.449 -1.82759 -8.80414 21
238 1 -0.0503788 -3.93419 -12.7932 10
239 1 2.03725 10.694 6.17203 21
240 1 -18.4353 -1.87724 -1.96997 23
241 1 -4.35673 -4.49767 -14.4773 12
242 1 -1.58274 -10.5791 -9.17275 22
243 1 -21.9679 -4.21787 -1.55159 10
244 1 -12.3087 -9.31434 -0.704051 20
245 1 7.19065 6.36624 1.90107 21
246 1 -12.34 3.72347 -8.25036 19
247 1 -20.9241 -2.47863 -3.75179 11
248 1 -12.9469 6.25646 6.9379 24
249 1 -16.5643 10.9594 1.82145 15
250 1 -13.2168 6.49899 10.4162 16
251 1 5.29387 -1.32339 -1.74856 17
252 1 8.43559 -1.32864 -3.10681 15
253 1 -5.90987 -6.32448 -5.27801 22
254 1 -7.59859 6.37013 6.47737 22
255 1 -16.6263 0.356844 -5.07131 22
256 1 -1.56892 -9.83018 -0.429451 20
257 1 7.55939 3.5179 9.85805 11
258 1 -17.8933 -2.29012 -5.53571 17
259 1 -14.298 -7.56091 3.37916 23
260 1 -10.3801 11.4809 1.41811 20
261 1 -17.058 -12.3153 -2.11581 12
262 1 -19.4322 5.10608 -3.21398 9
263 1 -6.91106 13.53 -6.17447 15
264 1 3.36969 9.92877 9.2979 18
265 1 -20.3592 -7.16863 -1.56134 12
266 1 -9.13074 -6.87984 -7.30621 20
267 1 -18.4123 1.24154 9.94834 13
268 1 -21.0386 3.45005 0.401114 12
269 1 3.07345 -7.11143 6.49161 19
270 1 -11.994 -13.5908 -5.02538 12
271 1 -1.18245 7.84506 -10.2228 15
272 1 -18.2162 3.42138 -5.11975 17
273 1 -7.77974 -12.5259 4.63921 18
274 1 6.89569 2.69096 7.34207 17
275 1 -8.8929 -2.05967 10.0767 20
276 1 -23.434 3.68514 2.71835 10
277 1 -12.9667 0.578316 6.40154 22
278 1 -10.965 -13.28 3.60653 12
279 1 2.15879 -9.51713 -9.6334 14
280 1 -19.0855 0.226045 6.79 17
281 1 -6.9957 -4.68632 9.68545 23
282 1 1.61905 -13.6276 0.233574 12
283 1 -1.21847 -12.373 -11.2223 10
284 1 -9.58928 -4.30357 11.707 18
285 1 -2.80336 -7.37858 -3.87496 22
286 1 -8.11437 6.96444 -14.266 9
287 1 -0.971622 -15.251 2.05773 12
288 1 -1.06297 8.76445 -1.81677 24
289 1 -8.28329 -2.1577 16.4642 11
290 1 -13.817 -8.38741 9.17648 15
291 1 1.97231 -4.34603 11.1858 18
292 1 -1.4997 0.997027 -6.69607 21
293 1 1.50496 -4.14779 1.53339 22
294 1 6.96451 6.93454 -1.97872 20
295 1 -6.10958 4.34021 11.5613 19
296 1 -9.604 14.5193 2.49756 14
297 1 0.100083 -6.90907 4.74138 18
298 1 -8.41192 -13.4813 -4.49766 19
299 1 -7.39248 11.9545 6.13965 20
300 1 -7.3578 -11.497 -6.44726 19
301 1 1.19103 7.53921 7.66959 24
302 1 -13.004 0.624565 10.1115 21
303 1 -11.7876 -6.50976 -1.84718 21
304 1 -17.9484 4.40695 9.56952 15
305 1 -13.091 -10.2654 -6.13348 15
306 1 -12.0491 9.19658 8.11874 17
307 1 -6.83465 -11.4035 -13.9952 5
308 1 -8.734 -7.16275 -13.223 14
309 1 -15.5963 -9.57917 1.52711 17
310 1 -14.9084 -1.90369 6.68864 18
311 1 4.65813 -3.50667 6.59252 19
312 1 -9.56178 -4.84153 14.9057 13
313 1 -13.5109 5.68215 -10.2573 12
314 1 2.54177 3.93571 -0.00500178 21
315 1 -14.798 -11.609 -4.38779 14
316 1 -6.38342 15.1819 1.40789 13
317 1 -4.46738 6.01816 -5.41661 24
318 1 -4.08427 9.49465 13.209 15
319 1 -20.8729 -1.87809 0.500931 17
320 1 0.667482 11.5561 -2.06483 21
321 1 -14.3992 -6.46923 -7.05191 19
322 1 -6.526 -14.9712 -5.993 12
323 1 -6.6046 -1.37983 -11.7098 24
324 1 -17.8175 8.45893 5.02353 17
325 1 -1.78861 7.31992 13.4967 17
326 1 0.981369 6.20184 -1.88822 23
327 1 -1.5976 6.50363 2.92107 21
328 1 -13.2127 12.5996 -6.13743 9
329 1 -3.26196 3.60978 -6.74468 22
330 1 -2.81434 -6.74858 6.34586 21
331 1 -21.3962 -4.69272 1.4095 11
332 1 -10.8513 3.32266 -14.5513 12
333 1 5.30529 3.94399 -1.81353 22
334 1 -0.121725 -7.0921 1.03523 22
335 1 10.2447 1.58657 -3.71956 12
336 1 -7.27834 1.54711 -10.1946 22
337 1 -8.86473 -7.14171 3.20997 23
338 1 -4.19747 -11.9986 -0.72269 21
339 1 -3.61248 -10.8295 11.9393 10
340 1 -18.3777 4.62535 -8.14435 13
341 1 -9.6518 -9.80801 -11.9089 15
342 1 -2.91852 3.72882 -9.87689 21
343 1 -5.6231 -0.989125 14.8248 18
344 1 -17.3871 -2.20323 4.46626 22
345 1 2.82483 -6.74937 -3.97535 22
346 1 7.03226 1.52 -2.58664 22
347 1 -13.5374 5.4585 -3.11508 18
348 1 -3.7015 -7.83654 -9.67767 19
349 1 -0.0126768 4.67042 -8.65478 21
350 1 7.3285 -3.49249 1.49831 18
351 1 -10.1045 0.684298 11.5976 18
352 1 0.296809 13.3806 6.2639 13
353 1 -8.70252 0.686928 -14.2769 15
354 1 -15.3977 -5.30284 8.47921 22
355 1 -13.037 12.0197 2.64906 15
356 1 -17.036 -5.24208 -10.8468 9
357 1 -21.6332 1.65357 5.13824 15
358 1 -13.0183 -9.98852 12.7386 9
359 1 -2.24873 11.4434 -3.50607 19
360 1 10.072 1.71496 -0.48497 17
361 1 -18.5784 -9.77547 2.67229 14
362 1 -6.80667 -9.86548 -0.273795 23
363 1 -15.7273 6.55772 8.4259 16
364 1 -2.97524 -2.11218 -6.90715 22
365 1 -0.742289 -10.0512 -3.93656 21
366 1 -2.56856 13.2127 -9.82506 8
367 1 0.940901 -12.3381 4.12691 17
368 1 -15.804 1.4945 8.44486 22
369 1 -0.087532 9.56129 10.6594 21
370 1 -5.87594 4.22067 -11.1041 22
371 1 -11.62 -7.60622 -5.25855 21
372 1 -3.62058 -4.81221 11.6227 23
373 1 4.26336 12.0083 6.99443 10
374 1 4.10579 6.32339 -6.832 17
375 1 -12.6098 8.15743 -4.6931 21
376 1 -4.36255 14.0838 -0.773028 15
377 1 4.74358 -3.42527 9.73597 15
378 1 5.57196 -1.26984 -5.08049 21
379 1 -21.1398 -9.49192 0.786416 8
380 1 -7.38966 0.936922 9.82077 20
381 1 -9.70613 9.20142 -3.65154 20
382 1 3.67629 -11.5951 -1.02295 14
383 1 -1.20508 -4.78413 -6.88215 23
384 1 -6.90066 10.867 -4.50254 18
385 1 -11.9426 -7.76251 -11.338 16
386 1 -4.7617 -12.0414 6.1012 16
387 1 -18.8621 -5.00624 -0.398959 20
388 1 -18.6556 -4.35312 9.45365 10
389 1 -1.64577 6.13224 -0.266635 25
390 1 -3.59749 -10.1693 -5.56956 18
391 1 -1.48684 -6.85532 14.6497 10
392 1 2.41872 3.68349 -3.52461 21
393 1 -16.3861 6.17696 -1.71852 19
394 1 6.11066 -10.0478 1.43889 12
395 1 -0.835355 10.4699 13.6081 12
396 1 -6.42597 9.24601 -8.74718 18
397 1 -1.37248 12.2786 10.5432 15
398 1 4.449 0.537275 -7.11416 20
399 1 -3.84873 0.56552 -11.3664 19
400 1 -9.72064 -14.2806 -2.20224 9
401 1 -16.1566 6.08734 -8.34135 14
402 1 5.19359 3.95119 1.59487 20
403 1 8.58244 4.05051 -2.66645 18
404 1 0.0647883 -8.9961 -11.7985 13
405 1 -0.329393 -7.29404 -2.08863 22
406 1 -2.2691 13.5012 5.78477 15
407 1 -15.3097 3.32643 3.6025 21
408 1 9.46763 6.97951 -0.548957 12
409 1 10.9137 0.166445 4.82232 13
410 1 5.5921 3.80788 -7.56879 15
411 1 5.29149 4.86499 12.1674 13
412 1 -2.68093 -7.26857 9.38458 21
413 1 -3.77613 1.5677 14.8351 15
414 1 5.48454 -8.63344 -3.91452 12
415 1 4.77028 1.7443 11.9624 16
416 1 -14.9744 -1.47505 -6.97672 20
417 1 11.3358 4.00008 -1.35423 10
418 1 4.12529 -3.89406 -0.125978 20
419 1 3.50332 0.138453 14.7705 11
420 1 -3.40024 9.42195 9.5617 22
421 1 1.37865 1.77614 8.03404 22
422 1 -15.499 8.65247 -0.277284 21
423 1 4.06102 10.9375 -3.78509 13
424 1 4.47081 -5.07842 -9.26453 11
425 1 -1.31822 14.2412 -1.9403 16
426 1 -4.4849 -12.5209 -11.2585 12
427 1 -20.9484 4.50802 4.55016 14
428 1 -11.0254 6.47804 -12.6837 12
429 1 -9.74493 -9.77319 4.61333 24
430 1 -12.3059 -1.73784 -11.8002 17
431 1 -18.5913 -1.63098 -8.88657 10
432 1 7.4032 -4.44355 4.98229 15
433 1 7.50983 6.82202 5.30771 14
434 1 -5.81948 -7.0916 10.9665 18
435 1 -14.9781 -2.34535 -10.9284 11
436 1 -9.05066 3.83561 16.9001 9
437 1 -1.12143 10.5367 -8.74364 16
438 1 3.08374 9.27017 -5.96153 18
439 1 -1.91883 -14.4947 -9.29978 13
440 1 7.39713 1.19646 4.76566 21
441 1 5.90465 9.45482 5.22727 17
442 1 10.1186 -3.07068 3.61458 11
443 1 -12.0469 3.48318 11.7318 20
444 1 -17.4596 -7.43279 1.10729 24
445 1 -12.371 -1.26685 -5.28008 22
446 1 1.4952 1.10768 10.958 23
447 1 -6.90541 -9.30739 12.9811 11
448 1 -0.48788 4.03624 11.3959 22
449 1 -12.4054 15.5644 6.52337 6
450 1 4.2117 6.71415 -0.119453 20
451 1 1.46707 6.59648 4.73427 19
452 1 -5.91257 1.28949 -13.2316 16
453 1 -17.3121 -1.45442 9.23521 15
454 1 1.94143 -1.69404 -10.479 14
455 1 3.31404 -10.7761 -7.45227 11
456 1 2.28997 4.30227 9.96475 19
457 1 -0.438436 4.66605 8.10011 21
458 1 10.213 6.30594 3.09929 10
459 1 -2.69349 -1.16071 16.7209 11
460 1 -10.0142 6.46889 11.2515 19
461 1 -6.42913 -1.60287 -14.8245 13
462 1 -13.0447 0.146464 13.3883 18
463 1 -1.3437 1.48304 12.7705 19
464 1 7.7526 9.7083 0.203567 15
465 1 -6.76963 -10.8386 -3.22533 21
466 1 -13.3388 6.50909 -7.09489 17
467 1 -0.403132 9.16957 4.889 18
468 1 2.33745 11.3159 1.07963 14
469 1 1.43788 13.4423 -4.36529 11
470 1 7.11159 11.8672 -2.01051 9
471 1 -12.5268 -10.0115 -3.2154 21
472 1 -0.945914 -1.31184 -12.1712 12
473 1 -11.1941 12.497 -8.13141 9
474 1 -0.39376 -7.21421 -8.52134 22
475 1 8.70384 9.03436 -2.75044 11
476 1 6.23028 8.69786 -5.14418 13
477 1 -15.6864 2.70755 -0.10514 24
478 1 -1.8116 6.44461 -3.75288 24
479 1 -5.48591 -11.0527 10.1055 12
480 1 -11.1785 6.67542 -9.31823 15
481 1 -4.2084 12.1781 10.9762 14
482 1 -1.68114 0.939631 9.5603 21
483 1 1.61425 14.1168 -0.931014 10
484 1 0.522299 12.6733 3.13181 17
485 1 5.71491 -5.84821 -1.79965 17
486 1 -16.9254 -7.43417 8.42446 11
487 1 -5.18261 -14.3527 0.620668 14
488 1 -6.06689 -1.22129 -8.39159 22
489 1 -3.62549 9.70374 6.40523 21
490 1 -20.2347 -2.46079 6.64841 11
491 1 -4.9815 -12.2418 -4.75725 24
492 1 0.889893 6.49121 -5.10477 20
493 1 -1.8846 -4.69775 -9.99172 21
494 1 -2.81532 -12.6645 9.04656 9
495 1 -4.0943 14.7496 3.13179 15
496 1 -9.12384 1.20258 15.2833 14
497 1 -14.9531 -8.20534 -9.19342 12
498 1 0.0757436 -7.27304 -5.30968 21
499 1 -10.368 11.7019 7.4695 19
500 1 -1.90886 -12.7685 -7.03085 19
501 1 -0.938634 -9.30187 6.51835 19
502 1 -4.32067 -14.55 -2.84359 15
503 1 -15.2587 -5.20242 11.7961 14
504 1 -10.0828 -12.9254 -7.74018 12
505 1 -15.7951 0.608776 11.6902 18
506 1 7.14919 -7.59295 -0.696157 12
507 1 -14.632 3.89469 9.76986 18
508 1 -16.0316 5.76548 1.62153 22
509 1 5.79749 -1.3507 4.51281 19
510 1 -7.91366 6.70991 -3.94048 20
511 1 8.66918 -0.255258 -5.63211 13
512 1 3.85905 6.7233 -3.51983 23
513 1 -19.4371 1.40782 -7.20992 10
514 1 -17.1356 -10.7183 -5.22354 9
515 1 1.06467 6.8812 -11.595 12
516 1 -6.03753 -1.47057 11.4647 18
517 1 -10.0242 -4.65597 7.88109 22
518 1 -4.38119 -5.0141 -11.258 20
519 1 -13.5855 5.7647 -0.0880043 22
520 1 3.66864 11.9625 3.54429 11
521 1 -15.1099 -4.69206 5.03397 22
522 1 1.78736 6.96252 -8.53772 16
523 1 -7.8464 -12.1494 1.45288 20
524 1 -1.49839 6.13371 -6.61744 19
525 1 -10.1829 1.94261 -11.9956 18
526 1 -4.25506 1.15269 11.2131 22
527 1 -5.61101 5.13032 -14.0133 11
528 1 -15.7357 -4.46695 -1.66512 21
529 1 2.6712 -1.34827 -0.397043 22
530 1 -11.7229 -7.3935 1.4523 22
531 1 5.77368 5.03258 -4.54207 19
532 1 2.88545 -7.05414 3.1287 20
533 1 -13.4177 6.60845 13.3989 11
534 1 -1.84592 -12.017 4.91615 18
535 1 7.44176 -3.60343 -4.61041 14
536 1 5.90732 -5.88024 7.49949 13
537 1 -6.43491 9.17096 7.91 25
538 1 -14.5145 4.23636 14.7026 12
539 1 -7.44634 -12.2971 7.77192 13
540 1 4.5496 1.60121 3.07293 20
541 1 2.30505 10.2631 12.1653 12
542 1 -21.7267 0.701036 1.7983 15
543 1 4.30478 -8.76761 -1.37588 18
544 1 -0.643487 9.0104 1.52815 24
545 1 2.44885 4.18724 12.7667 17
546 1 -4.38436 11.7442 4.71656 22
547 1 -4.0675 -9.2828 4.49842 21
548 1 -14.9846 -1.08879 -0.107258 18
549 1 -3.32222 3.98345 13.2618 19
550 1 -4.73361 11.725 1.54063 22
551 1 -15.5608 -10.2626 4.44619 16
552 1 2.93611 -6.43817 9.39717 21
553 1 4.59262 -4.37711 3.28089 22
554 1 3.74455 7.39519 6.64214 23
555 1 -7.22189 -8.29568 -10.9135 16
556 1 -8.78316 4.49879 -9.88653 21
557 1 -11.0151 -1.75141 15.8074 10
558 1 -7.81836 13.1603 -0.016531 16
559 1 11.4057 3.0296 2.2891 13
560 1 -4.01213 9.06943 -3.5265 24
561 1 -11.2296 5.95381 15.8257 10
562 1 -1.36542 10.5701 7.55578 19
563 1 1.41121 -6.268 -10.7754 14
564 1 -16.4593 -13.8655 0.385038 8
565 1 -9.22119 -1.2184 -6.73295 24
566 1 9.84074 1.13766 8.20677 7
567 1 -0.434134 -0.962349 -8.27472 18
568 1 -9.01758 -6.18715 -3.51918 22
569 1 9.06875 -0.194397 2.21146 17
570 1 -3.52306 -4.35232 14.7562 16
571 1 -6.75123 -10.9587 -9.84982 15
572 1 -1.9133 11.5944 -0.193288 23
573 1 -18.107 3.14346 5.55599 22
574 1 6.92528 2.05574 -5.67971 18
575 1 -2.08771 -6.23018 -12.4836 15
576 1 -14.8361 8.94064 6.75786 16
577 1 -3.08432 2.91939 -13.1345 17
578 1 1.72167 -4.3445 -2.21094 23
579 1 -18.8469 0.72666 0.190353 24
580 1 4.73491 6.75962 3.62592 20
581 1 -18.503 -10.7657 -0.205127 17
582 1 1.28796 6.85473 11.3595 19
583 1 -16.4598 0.317872 -8.9714 17
584 1 -20.4012 2.95621 7.9719 13
585 1 -9.08223 3.67523 -6.46644 19
586 1 2.50253 -6.36814 -7.69335 18
587 1 -15.7966 -8.407 -5.74106 18
588 1 5.54738 -5.84496 -5.69807 15
589 1 -21.2651 8.00727 3.59417 13
590 1 -15.406 -9.58644 -1.97635 21
591 1 -9.5536 -9.31803 7.61819 18
592 1 5.89803 -0.239889 7.6727 19
593 1 2.54976 -1.55725 3.0015 23
594 1 -18.2292 3.14323 1.86616 21
595 1 -4.31029 12.2625 8.09798 21
596 1 -3.34091 8.66435 -6.66616 20
597 1 -10.0781 11.558 4.07417 21
598 1 5.24452 9.37121 -1.76176 19
599 1 1.78454 12.6995 9.56009 14
600 1 -0.0491046 -7.56431 11.1521 19
601 1 -1.87825 12.7775 -6.34392 13
602 1 -12.45 -4.86085 10.3121 21
603 1 -8.85366 -1.22476 -10.1455 23
604 1 -22.0723 -0.321252 -1.87193 13
605 1 -9.87165 -9.59688 12.6407 15
606 1 1.87542 -4.32561 4.89811 21
607 1 -7.09395 -13.3135 -1.14063 17
608 1 -21.8985 7.01237 0.318891 12
609 1 5.39849 -2.9235 -7.32991 15
610 1 -18.3459 8.55747 2.08645 20
611 1 -14.4215 -2.3807 9.70739 20
612 1 -12.0951 -8.37016 -8.65007 17
613 1 -7.98364 -8.08684 -4.78609 19
614 1 -2.61174 -12.6772 1.44135 18
615 1 -5.27106 7.79812 -11.6045 14
616 1 7.22068 0.708648 -8.35735 10
617 1 2.48637 3.59564 3.23415 22
618 1 5.5401 -1.44052 1.47316 21
619 1 -8.12952 3.92105 -13.1253 19
620 1 -8.75988 -7.25369 9.82892 18
621 1 2.22983 8.84284 -0.771029 18
622 1 1.46151 0.862426 -5.22427 25
623 1 -18.2303 3.13531 -1.59479 17
624 1 -12.2104 -10.5636 9.71702 16
625 1 -1.70923 7.19886 6.53133 20
626 1 -9.17066 -14.9915 0.952678 9
627 1 -3.92468 8.91378 -0.160114 23
628 1 -10.6806 8.54565 13.5972 7
629 1 -11.5687 -2.24028 11.9181 19
630 1 4.4229 1.124 -0.38467 23
631 1 -10.7318 -7.4376 14.3842 12
632 1 -1.36829 -9.95995 2.40871 18
633 1 3.63516 3.82051 15.4077 9
634 1 4.44796 -3.99405 -3.78869 18
635 1 -13.1375 0.797024 -10.3253 17
636 1 -12.3143 9.59015 -7.6662 13
637 1 -18.8308 5.63156 0.177774 17
638 1 3.01575 8.54828 3.73775 20
639 1 -7.38459 6.65672 9.95343 20
640 1 -19.1289 -13.0317 1.07149 9
641 1 -9.42126 8.8913 -0.104539 20
642 1 3.86181 6.47828 9.66381 21
643 1 -8.60403 -6.87872 6.07983 22
644 1 1.2408 -3.93071 -8.75095 19
645 1 1.16759 -12.5065 -5.55116 14
646 1 -1.35748 1.42894 -10.2075 19
647 1 -13.2463 0.71977 -13.6116 10
648 1 -14.8167 -7.16119 -0.369264 21
649 1 -15.9623 5.49951 -5.20733 20
650 1 -12.139 2.77235 15.8217 10
651 1 1.81684 -3.66972 8.24353 21
652 1 -14.4755 -7.56514 6.42878 23
653 1 7.31347 2.16675 1.08997 21
654 1 -6.0552 4.05333 -8.17388 21
655 1 8.79671 8.84203 3.61201 10
656 2 -15.3732 0.485381 -7.17578 18
657 2 -10.2245 11.2279 -3.33377 16
658 2 -4.22703 -1.18874 -11.7467 20
659 2 -11.7692 7.03747 14.43 11
660 2 -8.32511 -10.4673 -13.2696 9
661 2 -3.7702 7.60291 13.0387 17
662 2 -18.4321 -6.96732 3.06591 17
663 2 -18.2385 5.39337 -4.96487 16
664 2 -3.11366 13.4389 9.80195 13
665 2 -18.2186 1.13131 5.32778 21
666 2 1.37409 4.52455 4.75261 20
667 2 -17.6263 -8.96449 -5.26588 13
668 2 -14.9832 0.894715 0.364891 18
669 2 -6.53079 -6.43615 6.04814 23
670 2 -3.30315 2.01987 9.78932 23
671 2 -3.22147 -6.31973 -10.588 17
672 2 0.83171 -15.0036 1.62405 13
673 2 -12.21 6.44671 1.00474 20
674 2 -18.2557 0.127445 -8.67547 12
675 2 4.4609 3.69248 6.70113 22
676 2 3.86995 -14.488 2.9622 10
677 2 -15.0077 -13.232 -0.589011 11
678 2 -17.5792 -5.75898 8.90849 10
679 2 -10.616 -14.4149 2.14004 10
680 2 5.55402 -3.37014 4.69792 19
681 2 -7.80047 -13.2713 -2.87283 19
682 2 0.0523153 0.990286 14.0038 17
683 2 -6.60558 14.5329 -8.11542 10
684 2 -20.0524 -11.2341 1.35853 9
685 2 -7.11905 4.24456 16.2238 11
686 2 -16.7026 9.11393 2.54806 19
687 2 -10.1193 2.67682 15.8368 11
688 2 -10.8965 8.38938 -4.97072 21
689 2 -0.406786 -9.12456 0.924989 17
690 2 -6.39727 7.3053 8.67298 21
691 2 -3.92947 13.9894 -8.65361 11
692 2 -1.05381 -6.41276 -3.9007 24
693 2 -3.78264 -3.75403 -9.93548 20
694 2 1.61693 -1.07459 -5.44202 24
695 2 -9.55364 5.72675 16.6411 8
696 2 -6.062 3.53581 -12.7051 16
697 2 -9.15906 7.1416 -12.7841 10
698 2 1.69819 7.08065 -3.51842 21
699 2 -9.90033 -3.37479 15.9802 9
700 2 -18.1783 6.4805 1.86281 19
701 2 4.36437 -1.40328 -6.74466 20
702 2 -2.72988 -11.7717 -8.36785 20
703 2 -21.4119 -5.55282 3.24401 10
704 2 7.59682 8.83427 5.19589 12
705 2 -9.38793 7.01537 6.40244 23
706 2 -6.54047 -12.99 -5.53306 16
707 2 -9.35163 12.3547 5.67501 22
708 2 -0.934055 -6.77067 12.6736 15
709 2 4.5893 -6.08604 3.12158 21
710 2 -19.0713 2.79423 0.157576 18
711 2 5.46886 -8.78411 2.9885 12
712 2 4.75057 -11.2639 2.09048 13
713 2 2.23164 6.37225 6.42865 21
714 2 -1.74788 -14.8577 4.0147 13
715 2 7.48277 -0.0520558 6.60032 16
716 2 -9.48772 -0.651825 15.9321 9
717 2 5.84257 -3.89516 -5.4189 17
718 2 -4.20382 4.61791 11.7666 19
719 2 4.583 8.64293 9.92435 14
720 2 -14.9833 5.48425 13.4624 12
721 2 -0.724332 6.94431 4.53107 22
722 2 8.68591 -2.89334 -0.0326617 14
723 2 -3.48342 6.80883 -7.00013 20
724 2 -14.8668 -4.52935 -7.25621 23
725 2 -11.841 1.48094 11.7062 19
726 2 2.87081 1.59156 -7.41688 21
727 2 -16.4425 2.67848 -1.94863 20
728 2 -20.723 1.3829 6.75088 16
729 2 -20.5711 -8.86949 2.39332 11
730 2 11.0816 1.58281 3.63533 11
731 2 -5.97833 -3.93347 7.88659 20
732 2 -6.6985 -1.63999 13.4013 19
733 2 -0.517872 -5.52483 -11.5568 16
734 2 5.51582 6.67872 12.1166 8
735 2 -9.33642 7.75999 9.61958 19
736 2 -15.0811 1.37389 3.3043 24
737 2 -0.68425 -9.19105 -7.9752 19
738 2 6.92996 8.45578 -3.29444 18
739 2 -11.9164 11.5749 4.06654 16
740 2 -8.59649 -10.777 0.514738 17
741 2 0.571946 -9.16802 -5.12099 21
742 2 -4.61417 4.5278 8.53537 20
743 2 1.77585 -11.1286 -8.60279 13
744 2 -1.08156 -0.84592 9.8631 20
745 2 -9.56953 -6.61473 7.80957 22
746 2 2.15449 1.60178 3.07521 21
747 2 -14.6244 -9.49256 5.90392 20
748 2 3.60249 4.70612 -7.59886 18
749 2 -6.38286 -11.7767 -0.184915 22
750 2 6.00362 -7.79918 -5.56811 10
751 2 -3.3223 -13.8503 -10.3768 14
752 2 5.32909 -3.51264 1.63966 20
753 2 -13.0294 13.7568 6.50953 8
754 2 5.92629 -7.81959 -2.07793 15
755 2 -12.8413 -7.52031 -6.84848 20
756 2 -14.4155 -9.46659 3.0784 21
757 2 -12.5631 -6.66902 3.06659 22
758 2 -12.814 -6.52061 -0.250789 20
759 2 -9.30752 14.991 4.37003 11
760 2 -19.441 9.05749 3.95985 13
761 2 6.53412 4.00966 -5.97216 14
762 2 0.128801 6.27642 -7.71903 17
763 2 -12.2424 -1.80754 13.7625 15
764 2 -11.9567 1.13143 -12.0391 19
765 2 -17.8451 1.07916 1.88727 20
766 2 -10.3261 4.63463 11.7487 19
767 2 -15.5303 3.58427 8.28228 20
768 2 3.28623 12.003 5.39066 15
769 2 6.4409 -1.11879 -8.45507 12
770 2 8.93273 -4.4711 2.37649 11
771 2 -11.3017 -5.72771 14.2984 13
772 2 -7.36853 9.48676 2.77023 21
773 2 -15.3724 6.73217 -6.74481 17
774 2 -15.2065 8.57403 8.53193 11
775 2 5.64343 -4.13119 8.0899 14
776 2 -12.7324 -10.1901 -7.94887 15
777 2 -1.00515 6.43263 -11.6418 14
778 2 4.68016 10.4778 3.18516 16
779 2 -14.603 -3.78954 12.944 14
780 2 -7.58865 8.74097 -0.422506 20
781 2 -9.31738 13.2008 -8.48301 11
782 2 0.749247 14.084 -2.70484 10
783 2 2.93112 1.82863 15.3352 11
784 2 -10.2286 4.69645 8.35397 21
785 2 3.54827 -8.77697 -3.63925 16
786 2 -5.67785 1.74335 14.5105 16
787 2 -3.17651 -3.71886 9.8534 22
788 2 -21.1617 -0.280449 -3.39577 9
789 2 -13.1285 -7.31376 -9.81338 16
790 2 2.42601 -11.2155 -2.47362 16
791 2 0.84468 -2.07292 -8.85878 17
792 2 10.8896 3.30157 0.580974 16
793 2 -12.6965 1.36862 14.6361 14
794 2 -1.21338 0.425092 -11.7698 16
795 2 -13.2281 -9.34691 10.8579 13
796 2 -9.25569 2.59919 -14.171 13
797 2 -4.79903 -11.139 -3.18164 21
798 2 -1.12931 -11.9239 2.97829 19
799 2 4.0381 4.74535 -3.3233 20
800 2 -12.6435 2.56869 -14.2017 9
801 2 -5.82418 11.9758 10.2381 13
802 2 -14.9815 -4.80595 -0.108123 21
803 2 -13.6415 2.96423 -6.80993 19
804 2 0.0188617 13.1215 -5.89663 12
805 2 -5.20945 9.24942 -1.58348 21
806 2 -17.9187 -12.5397 -0.218175 10
807 2 10.096 -0.103668 6.85899 10
808 2 -7.31057 3.41505 12.8087 16
809 2 -13.0125 -12.0827 -4.72374 14
810 2 -0.339663 -9.68481 -2.04283 20
811 2 -4.39895 4.76041 14.6359 15
812 2 -0.155153 13.2806 9.42955 13
813 2 2.65474 -4.1385 -7.2106 20
814 2 -1.20542 4.036 13.4962 17
815 2 5.54431 11.2237 -2.65982 12
816 2 -16.4069 -1.00704 10.9881 17
817 2 4.42655 -0.875311 3.01277 20
818 2 -7.16501 15.2109 6.17439 11
819 2 -0.472896 6.61513 7.81753 20
820 2 -12.3917 -0.97389 -13.8619 10
821 2 1.89722 -6.88601 10.8915 17
822 2 -14.8974 11.8721 2.21445 12
823 2 -5.08861 -9.04419 7.49519 20
824 2 3.0396 -9.57477 8.0808 12
825 2 -16.6214 -12.0149 -3.82341 12
826 2 -11.3086 12.9439 -6.08893 12
827 2 -11.2691 -9.61723 -10.4708 12
828 2 -8.274 -15.1848 -5.88336 12
829 2 -6.20081 0.84532 -8.61507 21
830 2 -10.0432 -8.37803 -7.8892 21
831 2 -0.959608 14.2216 7.22582 13
832 2 -17.7265 -4.19731 -1.62446 19
833 2 -16.3984 3.59158 1.83488 22
834 2 2.744 -3.65631 3.41369 22
835 2 -17.8011 6.72394 5.37978 21
836 2 -9.37461 -13.5358 -0.404293 14
837 2 -13.0402 4.4464 15.9189 10
838 2 -1.37799 4.14921 -6.84384 21
839 2 -9.60763 -1.93362 -8.51955 21
840 2 1.48303 3.44232 -8.3182 17
841 2 7.7279 -5.67004 -1.51224 14
842 2 -12.2943 -3.95766 -9.04639 19
843 2 -19.6541 9.93781 1.5821 15
844 2 -16.7417 8.2976 -1.92669 18
845 2 -10.1688 -1.16415 11.2945 18
846 2 -18.5239 -6.24995 -6.54137 13
847 2 -3.32804 -3.92206 -6.93194 23
848 2 -1.27538 -1.27738 -6.7526 19
849 2 -1.00848 12.6916 1.95157 19
850 2 -2.0195 -9.68053 11.7025 14
851 2 -4.00987 -1.03187 -8.37925 20
852 2 4.38514 0.366913 13.2099 9
853 2 3.32725 3.12021 -10.7634 13
854 2 -7.07728 -6.56792 -3.56716 20
855 2 -3.60605 7.17807 -10.3835 17
856 2 -0.754778 11.2638 11.9486 15
857 2 7.53391 3.0803 5.42284 17
858 2 -18.8735 -1.31582 5.79965 17
859 2 -22.4077 3.15223 4.35193 11
860 2 -9.6354 -9.24082 9.47354 17
861 2 -7.0997 3.53956 -6.61811 21
862 2 -10.037 -6.57804 4.62246 22
863 2 -12.2453 6.79913 5.01558 22
864 2 -14.5499 -4.26935 10.2831 20
865 2 -2.67447 -10.0528 5.58176 20
866 2 -19.252 10.4683 -1.01597 11
867 2 0.896275 -8.10215 -10.0773 15
868 2 -21.1422 -2.94384 5.10363 11
869 2 2.77385 -3.29793 12.4139 12