ITEM: TIMESTEP
84000
ITEM: NUMBER OF ATOMS
2000
ITEM: BOX BOUNDS pp pp pp
-30.0 30.0
-30.0 30.0
-30.0 30.0
ITEM: ATOMS id type x y z Coordination
1 1 -25.8118 3.08923 0.117079 17
2 1 -18.7429 -10.3631 1.72828 21
3 1 -13.8173 7.51134 24.8283 20
4 1 -7.2268 -12.5342 17.3562 13
5 1 -20.1608 8.53491 8.04301 23
6 1 -5.72862 -7.87593 -3.29959 11
7 1 -26.6297 0.266723 6.71478 21
8 1 -14.2522 -7.88093 21.6098 19
9 1 -23.2071 1.94436 -0.246694 19
10 1 -27.0395 -10.4597 13.4396 23
11 1 -4.17178 5.0585 -0.569831 12
12 1 -21.0923 -16.0444 10.1425 16
13 1 -27.0834 -5.58138 13.388 22
14 1 -10.736 2.56052 -29.8043 9
15 1 -14.936 0.184358 19.9246 20
16 1 -14.3537 8.24815 1.15051 21
17 1 -6.52759 -5.32099 21.5429 21
18 1 -26.3216 -2.34706 -1.2307 15
19 1 -29.4018 -5.35198 22.2461 9
20 1 0.702077 2.83418 19.6907 18
21 1 -15.5778 11.0511 -0.650088 23
22 1 -9.69354 4.18072 -0.412047 19
23 1 -1.09774 -0.369901 21.2795 22
24 1 -25.7798 2.64532 5.01589 18
25 1 -25.327 7.28713 18.1472 14
26 1 -6.82336 -10.6992 14.7573 20
27 1 -12.8412 -16.8227 2.01916 10
28 1 -2.75283 -13.2071 11.6838 11
29 1 -17.9541 -13.3442 3.78698 21
30 1 -28.9066 -8.68468 16.4583 15
31 1 -11.5553 -9.16055 -6.18321 13
32 1 -7.69967 -10.6905 -2.27761 15
33 1 -19.2968 4.40856 -5.12033 8
34 1 -13.6345 2.11044 24.933 22
35 1 -18.049 -9.77137 21.5256 20
36 1 -8.93361 -5.27109 26.6585 10
37 1 -24.3716 -0.356427 11.2695 20
38 1 -29.7266 -5.59518 18.7726 13
39 1 -23.8007 -0.500673 8.47975 22
40 1 -17.572 11.0629 8.20826 23
41 1 -14.3086 -15.3189 0.263823 12
42 1 -9.58301 0.0617484 -0.518522 20
43 1 -12.1031 -8.11144 -0.0780776 24
44 1 -16.7641 -2.83972 26.2261 15
45 1 -23.4249 7.7238 10.001 22
46 1 -14.403 7.7398 -2.00906 21
47 1 -11.1743 14.1974 19.7012 11
48 1 -23.336 7.28218 3.45214 20
49 1 -14.8762 10.2118 9.42758 19
50 1 -18.4094 -15.273 15.2275 21
51 1 -4.18962 -11.0386 6.00678 21
52 1 -9.80094 -6.3459 -6.49502 11
53 1 -19.8747 8.18237 18.3597 23
54 1 -24.5891 -4.83765 -1.62245 16
55 1 -22.9935 7.796 6.58212 21
56 1 -24.0221 -10.5755 18.5839 20
57 1 -16.5477 13.1265 20.7091 12
58 1 -25.7738 2.5264 8.6935 22
59 1 -27.1252 4.31468 21.1629 12
60 1 -20.8825 -13.0905 18.3548 23
61 1 -11.1215 3.18622 19.8335 24
62 1 -11.65 -13.1534 10.4034 20
63 1 -8.80914 5.18853 26.7041 20
64 1 -29.1284 -2.96992 3.6362 16
65 1 28.9512 2.72137 9.78509 14
66 1 -8.82037 4.91766 23.0341 23
67 1 -4.10559 -5.44513 2.4051 19
68 1 -3.82468 -10.6346 13.2693 17
69 1 28.2052 -2.27071 11.2574 13
70 1 -8.6041 12.8083 17.5702 17
71 1 -6.17249 -0.1881 24.67 24
72 1 -20.8958 -10.3425 19.9349 23
73 1 -26.1578 -3.24318 5.13068 23
74 1 -2.40776 2.46554 17.9229 21
75 1 -9.19485 10.2089 19.6562 21
76 1 -8.48143 -2.98173 18.3694 22
77 1 -14.3858 -8.23367 5.15729 20
78 1 -25.6242 3.17829 18.3281 22
79 1 -23.3781 10.3863 7.82755 22
80 1 -18.6027 5.27143 1.61011 23
81 1 -5.99093 -3.1598 6.25787 20
82 1 -1.69522 10.2597 2.781 11
83 1 -5.62553 -8.14251 13.0518 22
84 1 -11.5562 -7.98903 19.9072 19
85 1 -20.4275 13.6658 5.30225 13
86 1 -26.414 6.72135 15.5532 15
87 1 -21.9296 -9.39489 25.9252 11
88 1 -15.1754 5.39345 16.5554 21
89 1 -20.0673 -7.74734 18.2784 22
90 1 -0.455811 -13.3437 6.07663 10
91 1 -22.7378 2.60711 19.8882 22
92 1 -15.9247 -18.4856 14.7328 11
93 1 -2.96914 -8.37077 1.55555 13
94 1 -8.59508 -2.80581 -2.12791 25
95 1 -23.6773 -10.1638 -2.059 11
96 1 -14.9023 10.8084 13.1724 20
97 1 -29.037 5.07955 4.07162 13
98 1 -14.4682 4.76523 26.4956 18
99 1 -14.4892 13.2907 4.2604 15
100 1 -25.8798 7.78844 8.48565 19
101 1 -11.9496 10.5245 11.2915 20
102 1 -20.9778 -11.5281 23.2272 14
103 1 0.233262 -2.59349 19.7638 14
104 1 -14.5603 -7.95891 1.82418 20
105 1 -6.86713 -11.544 4.62695 24
106 1 -14.8893 -0.060143 23.505 21
107 1 -10.6841 -3.2009 26.5871 16
108 1 -24.2351 -5.35892 11.5196 21
109 1 -23.3874 -8.61192 6.94814 22
110 1 -2.81837 -8.50271 14.6797 22
111 1 -20.9198 5.50693 13.3911 21
112 1 -9.43504 3.26672 -5.74561 15
113 1 -6.54136 14.3925 8.93636 13
114 1 -23.8999 -15.554 18.5823 13
115 1 -28.9994 -11.6651 11.8933 13
116 1 -11.9789 -8.32146 -3.42477 22
117 1 -9.99543 4.43515 3.21916 21
118 1 -1.2126 -10.4733 11.0591 14
119 1 -15.5339 -13.7785 18.6038 18
120 1 -24.3108 -11.0229 11.6073 23
121 1 -2.50707 7.71492 21.1456 23
122 1 -1.38677 -5.41135 4.28621 13
123 1 -28.7568 -2.6678 10.1537 22
124 1 -6.29454 5.18538 18.0436 22
125 1 2.62601 9.71641 19.0107 7
126 1 -22.754 -3.14347 27.1223 12
127 1 -19.8853 7.61913 21.8579 20
128 1 -15.5908 10.957 2.86873 21
129 1 -14.8572 -8.39454 -1.66375 19
130 1 -4.55742 -11.3106 2.4855 16
131 1 -13.1837 13.0449 -1.30657 13
132 1 -6.80489 -6.57077 24.4688 10
133 1 -17.4024 -2.63158 -3.16872 22
134 1 -15.642 5.24434 3.01501 22
135 1 -4.13159 -0.316906 5.80882 21
136 1 -28.6072 8.12345 5.80153 12
137 1 -20.4774 10.9696 6.33977 23
138 1 -7.02221 -0.668148 1.05187 22
139 1 -5.86565 -7.66154 16.5671 20
140 1 -17.237 7.58565 6.54473 22
141 1 -21.9501 10.716 18.9708 13
142 1 -0.342339 2.45612 5.9355 15
143 1 -7.41687 9.87045 4.64439 20
144 1 -22.6462 12.8184 10.3614 14
145 1 -2.83038 7.72891 14.4685 22
146 1 -14.487 7.38318 8.0732 24
147 1 -8.77391 13.0366 1.14169 15
148 1 -12.293 7.88254 -4.04692 14
149 1 -26.1203 -13.5864 12.473 15
150 1 -26.6906 5.22566 10.1081 19
151 1 -18.5372 -5.35443 -1.80308 23
152 1 -9.05187 -8.19237 -1.43423 24
153 1 -2.50806 13.4976 17.183 12
154 1 -14.1149 13.6693 18.6122 15
155 1 29.4661 -5.32556 5.77223 13
156 1 -25.7287 7.71726 11.9817 18
157 1 -0.0685174 2.86817 16.319 15
158 1 -27.2708 -0.324395 0.13532 14
159 1 -4.94483 2.19777 26.1802 23
160 1 -10.0005 14.372 11.0435 11
161 1 -14.1893 8.15239 18.3166 22
162 1 -14.8297 -7.94798 -4.94095 14
163 1 -15.118 10.7183 20.3086 20
164 1 -14.6456 7.40565 4.7494 21
165 1 -13.8673 -3.25392 24.6801 22
166 1 -25.9396 -2.26668 15.0313 21
167 1 -15.0811 -13.329 -2.11579 14
168 1 -24.7856 9.60788 2.89417 15
169 1 -17.2779 -7.97927 16.9758 23
170 1 -9.55769 -16.2444 7.23493 14
171 1 -17.3201 7.56382 -0.120849 22
172 1 -29.4216 -0.42898 18.2925 14
173 1 -5.85227 7.39614 3.03063 22
174 1 -21.0224 -0.321089 26.5914 14
175 1 -15.9391 -12.4232 22.7337 10
176 1 -22.6666 2.05183 9.91345 22
177 1 -13.7422 14.4317 10.5537 12
178 1 -13.7691 2.91202 21.5819 21
179 1 0.533015 7.97588 22.5854 12
180 1 -22.2808 10.5948 15.5457 15
181 1 -2.85189 -8.08223 4.79441 18
182 1 -21.2641 10.3024 22.2601 11
183 1 -20.3968 2.84257 1.49973 23
184 1 -1.082 -5.46974 14.306 20
185 1 -21.1116 -5.37766 16.5425 21
186 1 -25.8505 3.0314 14.9929 20
187 1 -23.1119 -12.9734 16.7484 21
188 1 -5.95448 5.08128 24.5278 22
189 1 29.968 -0.298153 8.56737 23
190 1 -17.3524 -14.0256 9.94999 25
191 1 -8.8862 -8.63569 8.16621 23
192 1 -17.1018 8.27433 13.0517 23
193 1 -13.142 10.1072 25.9363 14
194 1 -23.4435 -3.09257 6.78382 22
195 1 -21.6133 9.71462 2.85834 18
196 1 -29.8367 -4.77045 8.34067 18
197 1 -26.6579 -5.2745 19.8533 20
198 1 -14.7552 -13.1407 15.3857 21
199 1 -10.3201 -13.1081 19.1473 15
200 1 -26.8048 5.06828 13.0917 19
201 1 2.70478 6.0373 18.7588 9
202 1 -6.50512 4.48058 8.08434 22
203 1 -21.4948 -10.2102 0.0519543 20
204 1 -6.52084 -0.120451 21.3656 25
205 1 -8.51511 -13.7594 14.5682 20
206 1 -17.0781 8.01359 -3.42031 14
207 1 -10.6962 -14.5641 1.35178 19
208 1 -6.83319 -0.429631 -2.1377 17
209 1 -12.7984 4.8984 -5.27356 18
210 1 -21.6378 -5.57925 3.30076 20
211 1 -17.4511 13.6608 3.10543 14
212 1 -20.0595 -7.65818 21.7727 20
213 1 -4.62798 13.1288 10.7717 13
214 1 -24.8754 -3.41304 24.7563 18
215 1 -18.3691 10.391 4.75526 21
216 1 -3.68171 0.0881295 19.6735 21
217 1 -17.7195 -8.49816 -0.0447754 21
218 1 -17.3835 8.172 2.78534 21
219 1 -12.7593 5.20656 1.20787 22
220 1 -19.107 -12.7733 20.5642 19
221 1 -16.8684 7.93778 19.8317 20
222 1 -22.8727 8.07104 20.3834 17
223 1 -14.7293 -13.9635 5.19311 21
224 1 -20.3933 -13.2218 8.30843 21
225 1 -8.74666 -13.6729 8.37106 22
226 1 -1.95378 5.53154 29.2477 9
227 1 -7.01312 10.2633 1.67267 22
228 1 -11.8104 7.28084 6.13019 22
229 1 -23.9587 0.182295 14.9616 21
230 1 -26.1536 6.891 5.06373 21
231 1 -12.0419 5.62678 21.431 23
232 1 -6.70755 -16.1282 15.6214 10
233 1 -3.60719 -0.35683 9.50401 21
234 1 -11.368 7.59267 16.2454 21
235 1 -23.7493 5.17925 18.6289 18
236 1 -27.3027 -10.3558 6.87086 15
237 1 -7.38315 6.33026 -4.65416 10
238 1 -11.8965 0.240796 21.7583 22
239 1 -8.79985 8.71476 -2.57111 14
240 1 -12.3851 -11.3036 8.42464 23
241 1 -18.5614 -0.245484 -1.5683 22
242 1 -15.3524 -16.4659 17.1772 17
243 1 -6.72933 -0.712296 4.19218 23
244 1 -22.9088 -2.42269 16.6237 22
245 1 -9.95846 -16.3062 10.2323 16
246 1 -24.7367 -5.63163 1.77154 19
247 1 -9.50758 10.0793 9.37723 22
248 1 -11.8513 -2.80114 -3.56365 26
249 1 -5.18601 6.85198 29.1866 14
250 1 -0.55754 0.0770931 14.7496 16
251 1 -5.81516 -9.09268 -0.123514 17
252 1 -20.3874 -2.97876 1.93005 21
253 1 -27.6773 -4.53674 0.0984098 8
254 1 -18.3815 -15.9655 11.7343 17
255 1 -2.42046 2.43866 21.45 21
256 1 -11.5973 -2.28936 19.9021 20
257 1 -20.4492 -7.70216 1.54391 23
258 1 -12.5331 10.2584 -2.2044 16
259 1 -8.4395 7.48082 11.0773 26
260 1 -23.1559 -7.71635 13.0587 22
261 1 -11.6019 12.5126 8.94926 18
262 1 -19.9117 -2.94165 21.7115 23
263 1 -26.9557 -11.4894 3.24285 11
264 1 -20.6322 -7.76377 -1.89484 20
265 1 -20.3346 7.95728 -1.8336 19
266 1 -24.4169 -11.3569 4.71419 19
267 1 -18.5626 -10.6759 11.5116 22
268 1 -7.4378 -5.46864 -1.83289 21
269 1 -2.43975 -2.51336 1.84302 12
270 1 -2.66578 2.20727 11.3265 24
271 1 -20.971 -5.29046 23.2843 21
272 1 -18.5312 -11.1435 8.38206 22
273 1 -6.09361 0.352808 28.0933 14
274 1 -20.5557 -12.8745 15.1161 22
275 1 -14.5486 -13.5814 11.9895 21
276 1 -15.1314 10.3037 6.17254 21
277 1 -8.64744 2.55869 -2.27965 21
278 1 -20.4752 -2.56008 -1.42609 21
279 1 -23.9264 -10.3848 21.9741 19
280 1 -8.24006 5.14763 29.9396 12
281 1 -12.7316 -11.0794 11.6788 23
282 1 -20.2248 -10.8142 -3.05346 10
283 1 -23.9671 5.13463 5.06101 20
284 1 -2.43949 8.49157 17.7537 19
285 1 -15.4476 4.93622 -3.56698 17
286 1 -15.7151 4.97984 0.0257555 23
287 1 -5.94559 -13.7667 0.218812 9
288 1 -17.1377 13.932 9.60869 15
289 1 -6.1994 10.4188 21.2407 22
290 1 -0.0875857 -2.34808 12.7636 14
291 1 -23.7574 0.206616 18.4437 22
292 1 -11.8491 -5.74924 24.7969 14
293 1 -17.366 8.3013 16.5999 20
294 1 -12.7839 -5.4522 -1.92289 22
295 1 0.595193 8.0693 6.39641 9
296 1 -12.6057 -10.9556 14.9404 21
297 1 -14.9536 -0.159546 26.51 16
298 1 -29.9946 -5.60234 15.2689 14
299 1 -12.8343 -16.8895 5.88917 16
300 1 -23.7567 5.19451 22.0864 17
301 1 -25.6527 1.97293 25.4197 10
302 1 -26.883 -4.94673 16.643 20
303 1 -29.6824 -11.8511 15.3725 9
304 1 1.72946 -5.45366 9.12191 8
305 1 -28.3577 -14.5074 13.7312 7
306 1 -6.31236 -8.51147 3.02489 23
307 1 -3.13973 -8.4375 7.85884 19
308 1 -6.58186 12.4507 5.70377 16
309 1 -20.1493 7.8318 4.78133 20
310 1 -2.47536 7.73061 24.4706 18
311 1 -23.1357 -2.48512 13.4289 22
312 1 -5.49256 -16.7073 5.08854 7
313 1 -19.7417 8.53438 14.7984 24
314 1 -20.8199 5.56001 16.7626 23
315 1 -11.2897 -10.4608 21.7293 12
316 1 1.78043 -0.294509 21.1149 12
317 1 -14.9948 5.47962 19.9061 23
318 1 -21.5704 -5.30332 6.40389 21
319 1 -17.9585 -0.012097 24.9277 20
320 1 -14.6932 13.1663 15.3297 17
321 1 -5.02307 3.53238 29.486 13
322 1 -23.4488 11.7663 4.76931 12
323 1 -18.5472 -5.36351 -5.1401 17
324 1 -8.94755 -13.589 -1.53846 13
325 1 -23.8336 -0.490871 25.825 14
326 1 -29.7589 0.185531 15.1679 13
327 1 -18.4767 -5.38013 1.67484 20
328 1 -16.9296 8.24419 9.84548 22
329 1 -5.54185 -2.68565 16.5722 21
330 1 -21.1434 -15.8653 13.6716 20
331 1 -8.34448 -10.8187 20.1943 12
332 1 -25.5244 -12.7637 19.4801 10
333 1 -28.9067 2.66487 13.2556 18
334 1 -15.2065 -5.27508 20.1797 20
335 1 -9.06331 -14.0338 4.89856 20
336 1 -18.2448 0.0343614 1.72673 26
337 1 -7.10303 -5.02481 -4.88963 15
338 1 -11.4078 13.0652 16.1773 15
339 1 -23.9448 -0.7021 5.10196 23
340 1 -13.1435 -10.5273 -1.56951 24
341 1 -6.79794 4.66645 1.45579 22
342 1 -23.2502 -7.65815 -0.310472 18
343 1 -27.4269 -5.36275 6.46249 23
344 1 -20.3298 -7.94244 11.5895 20
345 1 1.26236 3.23036 24.8021 11
346 1 -1.15564 -0.488334 7.77897 16
347 1 -27.0173 4.66877 6.725 20
348 1 -8.31679 12.42 10.734 18
349 1 -28.9687 -2.12638 6.57345 21
350 1 -23.5647 10.2112 12.2167 16
351 1 -19.8985 7.95039 11.4582 21
352 1 -18.2093 5.39825 18.5689 22
353 1 -0.323984 6.10229 25.5522 14
354 1 -6.97899 -5.93787 4.60159 24
355 1 -5.43536 -2.28581 26.5524 14
356 1 -3.86337 0.207301 2.50299 19
357 1 -17.6309 -16.4971 5.03255 14
358 1 -11.5369 -8.4334 6.87558 23
359 1 -11.349 7.80394 13.2759 22
360 1 -24.2129 -0.305815 1.90187 19
361 1 -9.58782 -10.8908 9.88697 22
362 1 -3.28752 -0.839018 16.1071 22
363 1 -24.4993 -6.05796 4.86495 21
364 1 -21.502 -10.2043 16.4543 22
365 1 -25.2303 -9.34811 24.9846 10
366 1 -14.2001 7.692 11.534 23
367 1 -24.1871 -11.1736 8.25428 18
368 1 -11.7212 5.23102 28.3466 17
369 1 -20.8692 5.49137 6.70149 20
370 1 -11.6614 12.6119 2.33306 18
371 1 -5.23737 7.90921 19.4764 22
372 1 -29.1245 -7.85826 7.22112 14
373 1 -18.6395 -11.0066 5.22408 19
374 1 -26.717 0.426595 17.0518 22
375 1 -29.5489 5.80898 8.38599 13
376 1 -8.59232 -8.15289 18.5391 19
377 1 -20.9903 -16.1932 6.74225 12
378 1 -3.54652 11.1021 12.5657 18
379 1 -10.102 5.25694 -3.45522 21
380 1 -28.801 2.53238 6.57787 18
381 1 -17.6532 13.1304 -0.362896 9
382 1 -21.1939 5.16046 3.18581 22
383 1 -18.7019 -10.3656 18.2043 24
384 1 -0.752601 5.63665 17.386 18
385 1 -12.8452 4.99773 -1.57474 21
386 1 -17.6352 -0.256997 21.5087 24
387 1 27.2656 -0.432185 9.14871 11
388 1 -19.9204 2.71313 18.279 22
389 1 -20.1886 -13.2464 11.6834 22
390 1 -12.0152 -13.1652 -1.60454 17
391 1 -27.8077 5.36652 18.0211 13
392 1 -28.6063 -3.02835 20.2254 17
393 1 -28.5773 2.4399 16.6782 19
394 1 -16.9281 -7.68825 19.976 21
395 1 -26.8605 1.7353 -1.93682 7
396 1 -7.16109 -11.2458 1.28297 19
397 1 -15.8439 -10.5209 0.242501 21
398 1 -18.06 -4.8968 18.3284 23
399 1 -22.9234 -0.252841 -5.44651 11
400 1 -9.76866 -10.9612 13.324 22
401 1 -11.6079 7.311 2.57611 20
402 1 -29.8123 5.20402 11.4187 10
403 1 -17.7689 -5.83437 24.8708 20
404 1 -24.4809 -10.9988 1.56237 15
405 1 -23.6562 -5.051 21.5907 25
406 1 -4.06642 -5.68747 19.9799 18
407 1 -12.7898 -0.412913 1.35642 22
408 1 -3.50283 -5.29242 16.4783 22
409 1 1.71095 5.46821 5.49734 10
410 1 -20.3945 -0.61514 23.6066 23
411 1 -12.4233 9.93184 7.66905 23
412 1 -2.77316 -7.75262 18.1972 15
413 1 -15.1583 -16.5414 10.4749 20
414 1 -22.5464 2.70598 26.2019 12
415 1 -16.7565 11.3668 15.1113 19
416 1 -26.445 -8.43906 4.8427 21
417 1 -6.32444 10.3247 10.7936 21
418 1 -12.0739 5.2964 18.1381 20
419 1 -16.6324 2.73553 19.5807 21
420 1 -20.6525 -7.85335 8.21728 21
421 1 -20.824 5.46974 20.0155 20
422 1 -23.5245 -8.50565 3.31165 22
423 1 -18.451 11.0484 19.7596 17
424 1 -20.4465 -13.4739 5.00498 20
425 1 -20.6788 -7.14945 -5.50825 11
426 1 -18.4645 -10.5687 15.1798 21
427 1 -6.40358 -0.251126 17.9483 22
428 1 -19.6896 -8.16461 24.6921 16
429 1 -27.3585 5.53803 1.89106 12
430 1 -6.46469 5.07528 11.4633 21
431 1 -24.1572 -13.9372 3.53426 8
432 1 -19.5274 13.8954 11.5965 12
433 1 -14.7239 2.59084 1.55819 22
434 1 -13.8227 8.16297 21.5964 25
435 1 27.4652 -3.8684 8.2565 11
436 1 -10.6961 14.7573 4.06038 10
437 1 -8.74392 12.6145 4.22163 23
438 1 -17.5691 -8.06416 3.45006 21
439 1 -11.6316 -0.514417 28.396 13
440 1 -10.3205 -16.9428 3.83264 12
441 1 -15.4878 -5.08692 -3.47018 23
442 1 -5.78455 -13.5115 13.2543 18
443 1 -22.6609 7.98559 13.6169 21
444 1 -10.8613 2.95396 26.6556 22
445 1 -3.69172 5.05731 9.47028 21
446 1 -11.6532 7.4234 9.76043 22
447 1 -25.9756 7.90355 0.287098 14
448 1 -12.0729 1.73751 2.90348 25
449 1 -11.3632 -8.47835 16.5348 21
450 1 28.6909 -6.86574 10.0004 11
451 1 -9.5677 10.0902 16.3606 22
452 1 -20.3317 2.64626 -1.66409 21
453 1 -0.85289 5.44862 10.9754 19
454 1 -3.97995 11.2305 4.16591 12
455 1 -5.78797 -13.608 9.95078 20
456 1 -0.0938424 2.80053 13.006 14
457 1 -15.4843 -0.229023 -3.58547 24
458 1 -15.605 -10.831 13.5024 21
459 1 -12.1603 -15.4195 18.3687 10
460 1 -14.1886 -8.00576 18.449 22
461 1 -23.1002 2.30456 3.14295 22
462 1 -25.0159 -14.862 15.206 14
463 1 -15.6334 -12.8588 1.86748 20
464 1 -5.67673 12.9528 15.8152 16
465 1 -14.6052 2.30643 -1.86666 22
466 1 -8.4813 -3.13304 24.8691 23
467 1 -29.4933 -0.847978 21.8129 12
468 1 -14.2996 -18.8117 11.9757 11
469 1 -26.3705 -3.05676 8.42624 26
470 1 -0.838732 -6.12454 7.43825 18
471 1 -3.81014 -5.98069 6.1132 22
472 1 -18.4599 5.41637 4.80422 21
473 1 -11.8269 -8.93377 3.44279 23
474 1 -11.7584 2.21447 -0.24321 21
475 1 -7.10235 -6.15041 1.28954 24
476 1 -20.676 -5.96527 26.8293 13
477 1 -12.6387 13.424 12.7719 15
478 1 -23.3933 -2.71066 -3.57023 15
479 1 -9.98178 -0.220258 -7.27672 11
480 1 -22.946 -7.48637 23.2715 21
481 1 -18.9286 13.3657 14.607 13
482 1 -21.0596 0.030487 0.252721 22
483 1 -27.1764 -0.194964 13.5058 22
484 1 -13.1902 -12.0381 -4.73134 11
485 1 -22.6784 -12.9018 20.7111 19
486 1 -9.95275 10.0076 2.40075 21
487 1 2.8334 3.13151 21.2676 11
488 1 -1.06263 5.12404 7.36559 19
489 1 -23.4371 -14.0395 10.0567 15
490 1 -15.5919 -11.0929 10.4343 20
491 1 -21.3043 -3.41032 -6.32748 13
492 1 -22.8712 8.06476 16.8857 20
493 1 -12.6732 -5.27776 1.60242 22
494 1 -3.95529 -5.77533 13.1152 24
495 1 -4.2634 10.6789 0.602829 12
496 1 -8.54673 -8.30706 14.7685 24
497 1 -3.234 2.91812 4.56291 19
498 1 -14.3133 7.66569 28.1623 13
499 1 -19.7485 2.00674 21.7219 22
500 1 -9.5348 10.2132 25.6445 14
501 1 -8.25808 -1.86162 28.1902 12
502 1 -15.0789 -0.401875 -7.14915 15
503 1 -20.6362 -8.17079 4.9217 19
504 1 -8.98393 -5.47658 23.1438 18
505 1 -8.18207 7.78745 20.9573 21
506 1 -11.4871 7.77697 -0.524996 21
507 1 -19.9856 8.08858 1.24643 22
508 1 -12.7601 10.0857 4.21043 21
509 1 -3.78135 -6.20751 22.7114 11
510 1 -4.18633 -0.508054 -0.407904 12
511 1 -0.919493 -10.1922 7.2584 14
512 1 -3.29419 4.93741 19.6961 21
513 1 -28.7526 -8.49914 10.6792 20
514 1 -21.219 10.5911 -0.272235 14
515 1 -14.0052 -2.54686 21.5928 19
516 1 -28.0893 -3.3572 23.5901 14
517 1 -18.4411 10.994 1.46064 22
518 1 -11.7557 -13.8615 6.95049 23
519 1 -9.75529 -6.23812 3.04187 24
520 1 -17.4551 13.4763 6.27223 17
521 1 -21.2373 -4.83017 -3.56623 20
522 1 -12.403 -10.8095 18.4509 19
523 1 -29.8007 -5.03801 11.7165 16
524 1 -14.941 10.6655 -3.79374 11
525 1 -16.0608 8.96696 25.6945 14
526 1 -23.1962 -7.87154 16.8052 22
527 1 -4.04798 5.6434 6.2557 19
528 1 -12.6092 -11.2159 5.19326 22
529 1 -15.2099 -5.56454 26.639 10
530 1 -23.9229 4.8217 11.7811 20
531 1 -7.95725 2.48257 28.2105 19
532 1 -8.85989 12.4065 7.60324 19
533 1 -5.78292 -8.45028 9.75143 23
534 1 -10.8385 8.11417 22.8923 21
535 1 -14.737 2.33468 -5.27496 15
536 1 -20.6729 -15.5411 20.2021 12
537 1 -15.2151 -0.332629 -0.0993083 21
538 1 -7.08809 -1.23935 -5.64195 12
539 1 -1.55869 12.5545 14.6231 12
540 1 -3.90536 5.52825 3.11635 18
541 1 -14.6656 -2.7349 -4.88114 22
542 1 -17.5917 -13.9913 6.72387 23
543 1 -23.14 -2.25637 -0.179994 20
544 1 -3.64829 -0.440011 12.864 22
545 1 -3.02117 2.33452 7.91095 22
546 1 -4.32494 -6.00973 -0.614794 13
547 1 -2.27108 7.88901 27.7185 13
548 1 -9.67065 -11.2091 6.55381 22
549 1 -11.6393 2.3971 -6.77635 13
550 1 -8.25225 12.9398 20.8575 12
551 1 -22.758 2.69833 13.2863 21
552 1 -8.28025 8.19091 28.0905 11
553 1 -0.42728 3.77688 3.59222 11
554 1 -1.09501 -5.75506 18.0161 15
555 1 -6.08052 1.99821 2.91134 20
556 1 -2.14094 3.50477 24.7526 18
557 1 2.10597 5.50214 23.4318 11
558 1 -9.62166 -5.66034 19.8978 23
559 1 -3.4738 10.2589 9.58247 16
560 1 -11.9877 -0.553626 25.1829 18
561 1 0.307036 -3.26206 6.51771 13
562 1 -5.38173 2.42189 23.0124 23
563 1 -21.1616 0.0302639 3.13678 21
564 1 -3.88729 5.03899 12.8689 24
565 1 -1.18616 -5.5366 11.0712 20
566 1 -28.4031 2.14339 23.2691 12
567 1 -5.24539 7.79092 26.2296 15
568 1 -2.73768 -2.79713 24.8374 14
569 1 -8.26542 7.48459 17.6533 21
570 1 -13.5767 13.3543 22.0333 13
571 1 -8.32265 2.5661 18.1078 21
572 1 -13.1876 -18.312 16.9348 10
573 1 -17.876 10.722 11.4978 18
574 1 -2.93288 7.69585 1.19435 16
575 1 -5.17927 -2.81315 -3.26936 13
576 1 -8.35801 15.2124 6.26097 12
577 1 -16.123 -15.7463 2.43763 14
578 1 -9.00195 -8.93584 2.02499 22
579 1 -26.7165 0.325871 20.1864 24
580 1 -21.3539 5.37207 -0.31252 24
581 1 -13.4947 -18.9395 8.73542 9
582 1 -17.4817 -2.61783 0.262922 23
583 1 28.2096 -1.91289 5.85296 14
584 1 -3.06232 -8.1891 11.2455 21
585 1 -3.26862 8.09978 11.2532 19
586 1 -15.3583 -10.5666 17.036 23
587 1 -28.5701 2.37654 1.74727 11
588 1 -12.4679 -0.294667 -5.39079 19
589 1 -14.9538 5.22589 23.3425 21
590 1 -9.83313 12.3609 -2.60132 10
591 1 0.10824 -2.75879 22.9236 17
592 1 -8.79452 1.92125 4.54173 23
593 1 0.690804 10.8389 13.6705 12
594 1 -6.92493 -16.2679 8.39307 13
595 1 -23.3168 -5.97242 25.3776 19
596 1 -2.65315 -3.03472 18.3056 23
597 1 -14.3067 10.8153 23.1843 18
598 1 -6.74694 12.6537 -0.515393 10
599 1 -23.9761 4.95828 8.53398 22
600 1 -3.52794 10.4093 15.9565 19
601 1 -23.0143 -13.3107 13.175 22
602 1 -0.901661 0.142671 10.907 17
603 1 -6.83595 10.1088 7.72921 20
604 1 -16.7827 2.3723 23.3337 20
605 1 -23.3503 -8.46296 10.1098 21
606 1 -23.2377 -3.48868 3.50328 23
607 1 -3.48397 -0.31647 23.1513 22
608 1 -15.1973 -5.58247 23.725 18
609 1 -3.15651 5.27273 26.6454 19
610 1 -20.5645 10.9757 13.0928 19
611 1 -5.57599 2.2608 13.0555 24
612 1 -5.49838 2.31636 16.2742 22
613 1 -17.8781 -2.75564 -7.07542 15
614 1 -20.9567 -5.14332 19.7256 22
615 1 -8.60164 -3.53256 1.3253 23
616 1 -3.09044 -13.1093 8.30206 17
617 1 -5.27792 2.31587 19.7965 23
618 1 -17.1129 -2.76616 23.2674 22
619 1 -6.42037 10.2056 24.3005 15
620 1 -11.0808 -2.34699 23.2041 20
621 1 -20.8556 5.50611 26.3174 11
622 1 -15.5656 -5.3609 -0.151647 22
623 1 -23.5349 -0.44435 21.381 21
624 1 -8.18204 2.55755 25.0273 20
625 1 -23.5344 -16.9721 12.194 10
626 1 -2.76944 7.90466 7.78733 17
627 1 -8.78111 -13.7629 11.7155 23
628 1 -5.6909 7.37698 9.43304 24
629 1 0.527244 7.78291 12.3991 15
630 1 -12.4042 -3.05535 -6.97083 13
631 1 -11.4255 12.7606 5.87842 20
632 1 -5.8241 7.66416 12.9167 22
633 1 -21.4834 -10.4773 9.80129 21
634 1 -17.927 -0.39783 -5.79922 17
635 1 -25.8184 10.811 9.97593 11
636 1 -10.2156 -11.1301 -0.189435 22
637 1 -5.87316 3.15666 -3.11317 12
638 1 -3.88113 12.8136 7.46937 12
639 1 -21.0442 5.82315 9.95617 21
640 1 -9.63502 4.56917 6.32661 22
641 1 -0.407445 0.507883 24.63 12
642 1 -3.15312 -0.457975 26.581 14
643 1 -17.9926 -15.2951 22.2901 7
644 1 -23.4217 9.216 -2.33066 11
645 1 -8.90471 10.0353 22.4259 20
646 1 -8.67459 -8.20796 -4.42802 17
647 1 -9.22147 -0.232784 19.6938 22
648 1 -8.9251 10.2235 12.8456 21
649 1 -3.37247 4.92295 16.2064 22
650 1 0.123504 -8.37325 9.70153 13
651 1 -9.09592 0.061725 26.5041 21
652 1 -25.7726 -7.81335 15.0294 23
653 1 -12.587 -16.3892 12.2378 21
654 1 -14.8147 -2.99417 1.62285 20
655 1 -22.345 13.3782 7.24954 12
656 1 -5.45235 13.0563 19.18 13
657 1 -28.9825 -3.04868 16.9057 16
658 1 -16.7435 2.68726 26.4118 13
659 1 -18.6004 5.53427 -2.09004 21
660 1 -24.4155 6.10328 -1.58368 16
661 1 -11.4776 -13.5501 13.3937 20
662 1 -5.69573 8.10992 -0.323222 16
663 1 -26.4619 -0.224556 23.5575 16
664 1 -10.0596 -5.57648 0.0857304 19
665 1 -13.3069 -13.045 20.5417 11
666 1 -14.5498 13.2258 7.68022 16
667 1 -19.7916 2.48106 24.8582 19
668 1 -21.448 -5.21339 -0.232998 21
669 1 -18.1205 -11.9823 -1.13991 17
670 1 -19.918 -15.8998 3.33442 10
671 1 -14.8103 13.7235 1.07468 15
672 1 -6.79634 -11.014 7.98536 21
673 1 -12.3372 11.08 18.1569 21
674 1 -6.32601 -13.7747 6.38961 19
675 1 -9.73598 -16.6735 13.3054 19
676 1 -5.44439 -8.20883 19.8944 16
677 1 -3.25287 -2.87355 4.33979 21
678 1 -12.0866 -13.9934 3.51551 19
679 1 -25.7015 -2.3266 18.4852 23
680 1 -18.1645 -16.8322 8.36712 14
681 1 -21.4746 -10.6199 6.5448 23
682 1 -25.7044 -2.73779 21.7441 20
683 1 -23.1187 -14.1105 6.92801 13
684 1 -1.00698 0.147682 4.40122 13
685 1 -17.3571 13.2766 17.4427 13
686 1 -29.2337 5.48061 15.0163 13
687 1 -2.82194 -3.10048 14.5291 24
688 1 -23.1971 -6.88133 -3.40618 15
689 1 -12.572 4.69936 4.53532 21
690 1 -8.62785 2.12393 1.4862 21
691 1 -3.30011 10.5558 22.6197 14
692 1 0.0786055 2.96645 9.43805 14
693 1 -27.0558 -0.218874 3.4298 19
694 1 -27.6312 -5.59956 3.46485 16
695 1 -17.1457 6.22028 27.3979 11
696 1 -10.2863 5.96541 -6.50539 10
697 1 -5.37136 7.74908 16.1098 21
698 1 -17.0937 -2.62096 19.8775 22
699 1 -12.7736 -15.5293 8.84551 18
700 1 -21.2013 -15.6978 17.0037 18
701 1 -18.0211 -5.65717 21.6879 20
702 1 -5.59443 7.6716 22.7476 22
703 1 -12.825 -11.0723 1.68297 21
704 1 -21.0562 10.3399 9.86635 20
705 1 -8.60377 7.65513 14.4913 23
706 1 -23.8918 -5.14443 18.0567 23
707 1 -6.8221 5.66464 -2.04191 15
708 1 -15.3527 -16.7466 6.9434 16
709 1 -9.49746 -18.538 16.1392 8
710 1 -15.493 -15.8045 13.4883 21
711 1 -8.72407 7.74361 0.870853 19
712 1 -6.87162 14.4572 12.4262 11
713 1 -21.5929 0.612878 -2.84278 21
714 1 -9.09319 -0.296343 23.2347 21
715 1 -22.2042 6.59514 -4.11982 8
716 1 -24.5524 -0.299929 -2.02026 16
717 1 -27.3216 -5.66427 10.1922 24
718 1 -6.65159 15.0685 2.88089 8
719 1 -17.7014 -7.9433 -3.62508 19
720 1 -24.2752 -5.32736 15.1281 21
721 1 -6.91028 4.64593 4.74313 22
722 1 -0.206101 -12.5684 9.31058 11
723 1 -21.3127 4.79835 23.1131 18
724 1 -4.58072 -10.4408 17.1109 13
725 1 -0.153184 -8.09041 13.1498 12
726 1 -2.74548 -3.09034 21.4189 21
727 1 -12.3496 10.6987 14.7138 21
728 1 -26.565 -6.03989 24.1067 14
729 1 -22.7975 1.61422 23.2963 23
730 1 -18.4534 -15.3311 18.6045 17
731 1 -2.67686 2.34549 14.6944 21
732 1 -8.08385 7.60674 24.7631 22
733 1 -29.1435 -2.91203 13.7346 17
734 1 -6.90614 -11.0021 11.5895 24
735 1 -25.2771 9.37292 5.5671 14
736 1 -9.20556 -15.4528 17.0076 12
737 1 -8.43041 -3.03805 21.2904 23
738 1 -6.41202 10.321 17.9746 24
739 1 -17.8985 -12.7798 16.79 21
740 1 -23.1844 -3.05223 10.1039 21
741 1 -10.9528 2.74879 23.1635 21
742 1 -29.8818 -10.161 8.68509 11
743 1 -16.7888 7.3117 23.1769 21
744 1 -8.28235 12.9743 14.2396 18
745 1 -24.1408 -10.709 15.0842 21
746 1 -19.1886 -17.9667 15.9937 10
747 1 -6.54372 -5.30963 18.1121 23
748 1 0.414922 -4.59364 24.9804 4
749 1 -9.01967 5.17126 19.8431 20
750 1 -9.75445 -11.3753 3.10355 21
751 1 -20.3092 -1.44132 -4.41681 20
752 1 -19.8028 -3.01871 25.3443 20
753 1 -16.4885 13.9791 12.7528 15
754 1 -0.776389 0.0972775 17.9866 19
755 1 -8.92077 7.12082 4.51792 24
756 1 -19.387 8.36141 25.2832 13
757 1 -6.224 5.23648 21.2087 21
758 1 -10.021 -5.57307 -3.45192 24
759 1 -21.4614 -10.4388 13.1165 22
760 1 2.76646 -3.42823 21.9332 6
761 1 -11.6074 -2.85127 0.0756258 22
762 1 -18.3793 4.96405 24.5149 20
763 1 -1.79455 -10.8229 3.81191 12
764 1 -11.8729 2.51443 -3.42639 22
765 1 -17.604 -8.39736 6.71487 20
766 1 -5.67892 1.94373 -0.440746 18
767 1 -0.289136 -3.11109 16.218 16
768 1 -12.3409 -5.04176 21.7232 20
769 1 -15.6888 -10.3408 3.43241 22
770 1 -0.476707 10.6821 17.0973 17
771 1 -22.8783 2.68045 16.6065 21
772 1 -6.12925 2.04579 6.09153 20
773 1 0.165772 8.37985 15.6152 16
774 1 -15.4717 -4.91763 -6.82889 13
775 1 -19.4176 10.7315 16.7721 19
776 1 -0.675081 10.9548 19.9511 13
777 1 -0.212694 7.12819 2.89683 10
778 1 -9.81118 -0.379431 -3.76586 22
779 1 -6.44396 -5.72075 7.87265 22
780 1 27.9967 1.46605 6.81473 11
781 1 -0.991803 5.55168 14.201 18
782 1 -26.869 -11.4229 9.87587 19
783 1 -27.9509 8.55021 2.6634 10
784 1 -8.40197 2.45945 21.4915 22
785 1 -26.0366 -2.85956 2.27834 20
786 1 -25.346 2.37885 21.9159 20
787 1 -17.28 2.79343 3.17132 21
788 1 -3.66337 -13.8666 4.68281 15
789 1 -26.1419 -8.14566 8.43964 23
790 1 -3.78077 -5.52165 9.56541 21
791 1 29.9493 0.761725 11.7397 17
792 1 -24.5487 -5.61591 8.20713 23
793 1 -3.41782 11.0983 19.3509 18
794 1 -25.8686 -7.73468 18.1528 18
795 1 -2.02655 2.6215 27.9661 12
796 1 0.158812 -8.02564 16.4298 8
797 1 -6.77347 -5.19152 14.8323 19
798 1 -25.6625 2.20545 11.8729 23
799 1 -11.0418 8.12615 19.5528 24
800 1 -9.68862 10.4887 -0.574676 18
801 1 -16.2673 -10.7473 -3.38935 15
802 1 -15.0182 10.3862 16.7513 20
803 1 -27.0232 -10.3794 17.231 14
804 1 -5.86061 7.2599 6.2838 23
805 1 -11.7733 5.41046 24.8593 20
806 1 -6.18776 -8.31104 6.00039 20
807 1 -8.35429 -8.48855 21.743 16
808 1 -23.013 8.08985 0.224555 20
809 1 -10.1625 9.77891 5.69083 23
810 1 -20.7389 -0.160489 20.1702 20
811 1 0.113139 8.07906 19.2563 18
812 1 -14.4962 -2.82733 -1.61295 20
813 1 1.43026 6.23408 9.08358 9
814 1 -26.78 -0.251169 10.0686 22
815 1 -16.4521 -8.74033 23.8578 11
816 1 -12.8659 10.8842 0.830339 20
817 1 -5.69916 -2.85139 23.0642 23
818 1 -14.7562 -13.4958 8.53269 22
819 1 -20.0081 13.664 8.53036 17
820 1 -28.4272 2.58065 10.1122 21
821 1 -6.04827 -3.40659 2.92826 22
822 1 -10.4831 -11.0694 -3.52587 19
823 1 -23.5966 5.2464 15.1931 21
824 1 -3.30798 8.42298 4.6232 19
825 1 -20.1837 -2.52075 17.9598 22
826 1 -9.29905 -2.99735 -5.53397 18
827 1 -21.485 -10.7851 3.21311 22
828 1 -15.691 -11.2611 7.04352 23
829 1 -11.7954 11.0063 21.1428 21
830 1 -6.89572 -16.0727 11.8827 13
831 1 -18.0654 10.3669 -2.16368 13
832 1 -3.17495 -3.1094 7.71517 21
833 1 -6.58106 4.91899 14.6566 25
834 1 -11.6502 -19.1964 13.9442 9
835 1 -12.7337 -5.64358 -5.22936 19
836 1 -3.02561 -2.94998 11.5224 22
837 1 -17.7263 2.47748 -3.47433 21
838 1 -15.7671 -10.6154 19.7463 19
839 1 -1.88072 10.3222 6.47401 12
840 1 -9.66748 -0.601578 2.76565 19
841 1 -22.9713 2.49369 6.57269 21
842 1 -29.0039 2.44391 19.899 13
843 1 -13.095 1.91436 28.3107 13
844 1 -22.9987 -7.74166 19.9352 24
845 1 -9.16199 4.83938 16.2161 22
846 1 -17.4351 -13.4361 13.3979 21
847 1 -8.66536 7.49603 7.77743 25
848 1 -18.2033 4.6334 21.6495 19
849 1 -22.6027 -2.85532 23.6049 20
850 1 -25.127 9.15994 15.0315 13
851 1 -5.4846 2.26823 10.0379 21
852 1 -24.3373 -12.9482 23.4218 6
853 1 -9.43243 -10.9475 16.6203 20
854 1 -0.481269 5.3443 20.8124 19
855 1 -9.16706 -8.60234 4.85419 22
856 1 -8.41242 -16.4535 0.878481 9
857 1 -23.803 3.44981 -2.57261 16
858 1 -17.0656 1.79413 -7.92829 8
859 1 -4.21983 14.7165 13.8644 10
860 1 -25.8546 -7.74989 21.7416 14
861 1 -24.0648 4.74746 1.69633 19
862 1 -29.5553 0.0702854 4.74828 16
863 1 -6.67146 10.1368 14.5946 22
864 1 -22.8711 -17.1117 15.7722 12
865 1 -14.3728 7.80352 14.7896 22
866 1 -3.28411 5.07124 22.9371 22
867 1 -20.1129 -13.1777 1.49947 15
868 1 -11.5173 12.0059 24.4083 12
869 1 -22.904 -2.70628 19.9651 22