ITEM: TIMESTEP
6000
ITEM: NUMBER OF ATOMS
2000
ITEM: BOX BOUNDS pp pp pp
-30.0 30.0
-30.0 30.0
-30.0 30.0
ITEM: ATOMS id type x y z Coordination
1 1 -10.2462 6.47252 -13.3445 15
2 1 -7.4114 -13.2288 -6.04737 17
3 1 1.28939 11.4379 14.0921 18
4 1 8.99891 -9.3502 6.28134 11
5 1 -11.0867 11.2027 0.107623 21
6 1 10.3019 -9.45665 -10.8859 13
7 1 -10.9968 2.90612 -6.47649 18
8 1 -1.98478 -6.85882 10.2008 15
9 1 -9.01629 0.304548 -11.5885 21
10 1 -14.3424 -9.95169 6.16237 11
11 1 10.9294 4.0626 -11.5676 18
12 1 -6.41326 2.92805 -7.01068 19
13 1 -4.6099 -12.1075 2.27208 22
14 1 -15.0388 -10.5953 3.37457 9
15 1 0.597677 4.32568 17.6807 16
16 1 5.08683 0.286432 3.69212 17
17 1 0.156768 1.81604 10.5409 19
18 1 5.40078 -0.344554 0.0778948 21
19 1 0.385439 11.0839 -7.67176 20
20 1 1.90837 1.83234 13.0657 18
21 1 -10.1489 0.884014 -14.3712 16
22 1 -13.9241 -4.80603 10.2161 15
23 1 13.5802 5.22875 8.13345 15
24 1 2.66756 9.73172 -9.56192 19
25 1 5.74909 6.54103 -12.4205 20
26 1 14.5896 3.9446 11.0606 14
27 1 -7.98378 1.92592 0.845982 19
28 1 -12.8834 6.16355 -9.06825 11
29 1 -1.06844 -2.12146 -9.55842 15
30 1 -12.7165 10.4148 10.2706 10
31 1 7.12761 -11.8949 7.13348 10
32 1 2.66056 -0.554275 5.60664 18
33 1 1.33718 -11.0094 -10.0223 18
34 1 9.39346 -10.6071 0.117553 12
35 1 -7.84675 -13.688 -2.23634 19
36 1 -16.6335 -5.87922 8.13105 10
37 1 3.04853 -3.7158 -5.5345 18
38 1 0.39443 -6.44064 -12.7404 19
39 1 8.76403 -10.1676 -14.0301 12
40 1 0.859364 5.86397 -14.0 19
41 1 -0.0394008 4.74807 12.9412 20
42 1 -1.23125 -11.7452 5.54914 20
43 1 3.82725 -3.34175 13.0325 10
44 1 -12.5576 -0.462785 1.6396 19
45 1 -18.081 -0.866961 7.53465 9
46 1 -10.7724 2.62771 -0.592739 18
47 1 -4.05061 14.0261 -4.74371 17
48 1 -0.147739 -13.8538 -10.7681 10
49 1 1.71014 4.49022 -7.9975 16
50 1 8.7024 -6.37869 -10.4839 22
51 1 -5.64011 -0.602395 10.302 17
52 1 -16.323 5.25834 0.351159 12
53 1 4.65905 13.1534 -12.7195 14
54 1 1.51672 13.8468 9.93753 16
55 1 -8.37656 11.2619 -7.39829 18
56 1 -0.784643 14.6717 -1.15745 16
57 1 3.96799 -11.6152 3.97461 20
58 1 7.9566 -10.232 -5.11948 25
59 1 6.90452 -5.5149 -15.682 19
60 1 -10.6148 8.58425 11.9366 18
61 1 -13.8498 -3.08349 -10.4144 13
62 1 1.39639 1.69258 7.12617 22
63 1 -7.38358 9.07726 -5.70207 17
64 1 -11.2339 -7.81449 6.55912 19
65 1 -4.50032 14.6327 12.0979 9
66 1 -11.3648 8.65036 -7.34211 16
67 1 -8.26912 6.95061 11.7021 25
68 1 1.61887 4.52174 -4.60976 17
69 1 1.45302 4.6996 5.26362 21
70 1 -6.69684 -13.0803 6.08983 18
71 1 2.4974 8.26044 10.4231 22
72 1 5.75683 -13.2607 -3.92903 18
73 1 3.85176 11.1964 16.0492 17
74 1 -12.4855 2.60954 -9.1602 18
75 1 -12.1603 8.3538 -10.7569 13
76 1 4.14599 5.98258 16.0232 18
77 1 12.5513 -1.26279 -11.5566 13
78 1 8.1128 -11.3822 3.86007 14
79 1 -18.1898 -0.919315 4.16608 13
80 1 -6.00553 -0.652636 -0.534257 21
81 1 6.80409 16.6038 7.9277 11
82 1 3.51101 -0.679839 13.8905 16
83 1 -8.82026 -10.4779 7.31176 17
84 1 -9.8232 -0.579453 -0.325809 21
85 1 12.5583 2.82962 6.48011 19
86 1 7.80783 -2.30171 -7.46679 17
87 1 -1.46348 11.3451 9.43198 24
88 1 4.53357 0.557083 8.39533 19
89 1 -6.72437 -6.67084 3.51049 18
90 1 -5.05175 -6.39299 -10.5536 18
91 1 -12.561 8.26863 8.07451 20
92 1 -8.5157 10.5107 -1.13569 22
93 1 -1.84557 6.02971 -9.14173 14
94 1 7.59933 -0.293557 -4.82073 18
95 1 5.13889 -1.15598 -6.30043 21
96 1 9.82259 13.7816 -9.90296 14
97 1 4.84627 -5.50292 0.670789 22
98 1 4.97694 -7.84927 9.62622 7
99 1 -2.51873 11.1474 -6.50055 21
100 1 -5.83051 12.7771 2.25257 15
101 1 -10.8421 -3.8775 15.0501 13
102 1 -6.71978 9.09734 5.44973 21
103 1 -11.107 -5.31029 9.12605 20
104 1 13.6899 -6.92439 -6.92401 12
105 1 -11.4032 5.6929 6.77446 18
106 1 -11.0042 -14.1247 2.69779 11
107 1 8.83358 -7.64103 -7.78853 21
108 1 3.69261 1.07466 -12.147 20
109 1 -7.94108 -0.231054 -15.8534 10
110 1 4.14792 2.49167 5.879 17
111 1 -1.30479 12.8521 2.91554 19
112 1 -7.66321 5.73797 -12.5223 23
113 1 1.92044 11.9751 17.8575 10
114 1 -0.215629 13.7399 -6.86105 19
115 1 -13.4857 12.8026 1.24066 14
116 1 0.832158 10.0666 2.13657 16
117 1 -7.84759 -5.48196 9.66031 18
118 1 12.9024 -0.19394 7.67774 18
119 1 0.851375 -4.50748 -8.87087 16
120 1 5.71146 -8.68139 -7.68688 22
121 1 -2.44894 2.4504 8.57053 20
122 1 6.07771 1.39449 17.6722 13
123 1 -9.22224 -7.25625 -1.00488 16
124 1 4.47929 -2.40734 2.21398 20
125 1 -8.5556 -8.01438 -3.58742 17
126 1 9.32278 -7.98978 2.92562 13
127 1 -3.47947 7.47441 3.43934 19
128 1 7.77155 3.06959 -15.2507 16
129 1 3.4944 17.8275 0.966351 13
130 1 -9.58788 -12.7584 11.3033 12
131 1 -11.8743 -14.0888 9.39083 10
132 1 -3.98041 7.31428 0.407384 18
133 1 3.65446 -9.40888 -14.3725 18
134 1 4.69842 7.55227 -8.0518 17
135 1 8.70476 -7.3296 0.284561 16
136 1 -1.83851 -14.9429 6.00514 16
137 1 -9.19222 -7.92708 1.66502 19
138 1 15.5104 9.39261 8.90331 12
139 1 13.4746 -1.20817 -8.52804 18
140 1 -17.6975 -3.62785 2.88178 10
141 1 13.1927 9.15365 6.31262 18
142 1 13.8745 10.7872 3.43704 18
143 1 -7.90428 4.58691 16.8029 11
144 1 4.48542 5.69629 -0.312909 19
145 1 -3.12545 9.12493 10.6019 21
146 1 -4.58368 10.9765 -3.96082 19
147 1 -0.901467 -3.72756 -12.9025 18
148 1 8.06926 -12.1346 -12.1904 12
149 1 -2.09461 12.4202 -12.2795 12
150 1 6.25111 -2.04134 12.4894 13
151 1 2.77512 -1.86173 -19.1846 12
152 1 -5.41976 10.0416 -8.60696 22
153 1 11.5285 1.36982 -7.79628 17
154 1 -11.2022 11.4013 -5.6556 15
155 1 1.31686 -4.35483 -2.44638 20
156 1 -8.48509 15.7354 0.610308 14
157 1 6.00243 3.58373 -12.5414 18
158 1 6.01662 -7.48356 2.93225 19
159 1 -6.66135 4.33559 -9.44366 19
160 1 -9.192 10.3183 10.3393 18
161 1 15.2666 8.68625 -6.44053 11
162 1 7.77227 12.3722 -3.9643 19
163 1 -3.77827 18.1414 3.78651 9
164 1 7.6429 10.0649 -2.86116 20
165 1 -4.23434 8.11641 -5.66888 16
166 1 1.74014 15.1218 -10.9064 15
167 1 6.49561 11.9473 -14.7292 9
168 1 -12.336 -10.02 3.68696 19
169 1 -11.6566 9.44696 -2.83153 22
170 1 -6.42338 -4.30338 -12.5921 18
171 1 0.796363 -8.75059 -14.9232 19
172 1 11.4304 13.8027 11.1395 11
173 1 -1.13709 15.2956 5.80697 16
174 1 -10.7536 -2.47198 -2.89956 20
175 1 -12.7865 12.792 4.62248 16
176 1 14.8321 0.20353 -6.25627 14
177 1 -12.5839 1.94191 -12.3712 13
178 1 8.16936 3.02418 15.7278 16
179 1 5.08315 17.3443 5.1174 13
180 1 -4.47435 10.4134 8.0742 22
181 1 1.79892 -9.1071 -17.6792 12
182 1 -5.88434 14.7377 9.22555 16
183 1 -0.44115 9.41466 -4.82447 12
184 1 1.12591 -3.03286 11.1131 11
185 1 -10.8453 -4.42157 5.64136 21
186 1 -2.15282 -12.3141 -13.0991 13
187 1 -7.70336 12.7217 -9.60106 11
188 1 -1.338 -13.0472 8.27254 13
189 1 3.12872 -14.1861 -5.53937 17
190 1 -2.67674 11.5323 -9.17565 23
191 1 -16.0493 0.514424 5.62959 14
192 1 0.982926 9.86359 -2.61322 16
193 1 10.5768 10.7458 -4.63109 17
194 1 -9.83302 7.16657 17.3874 7
195 1 -1.74371 -10.1996 10.0522 14
196 1 -9.30306 5.71647 0.367978 22
197 1 1.63145 16.26 4.38258 13
198 1 -0.346215 7.53785 10.1521 22
199 1 12.3659 5.172 14.1289 18
200 1 -9.39845 16.4922 3.62819 11
201 1 12.5751 -4.32155 -9.51682 18
202 1 -7.765 13.1587 11.3037 11
203 1 -4.45673 1.36788 -9.56663 17
204 1 11.1227 -6.9821 -2.14972 18
205 1 -8.06159 -2.56608 4.92887 20
206 1 -15.5887 -0.0640906 2.18633 18
207 1 -9.38451 -8.54734 4.57407 18
208 1 5.82584 8.94569 14.8536 18
209 1 -15.7913 1.54717 -3.0102 11
210 1 -2.14265 -13.0095 -2.29617 22
211 1 -3.28726 -1.80016 -4.47376 20
212 1 6.2256 -7.56792 -4.60779 21
213 1 -3.38979 10.2568 4.83045 22
214 1 -5.22187 1.62692 3.35487 22
215 1 3.65477 12.8129 12.0231 14
216 1 -8.16521 -1.96005 -4.62149 23
217 1 -5.67367 12.7498 -6.75277 17
218 1 -14.7101 -4.11133 -5.10845 13
219 1 -10.3893 -0.20909 9.80918 21
220 1 0.794834 -10.5588 3.20181 22
221 1 3.66422 -13.0233 7.8161 12
222 1 -15.1165 10.3404 2.68659 14
223 1 12.5944 4.00562 3.86504 18
224 1 7.12585 3.6696 -4.73361 18
225 1 -7.24067 -5.60442 -17.088 10
226 1 4.78833 1.25428 11.7301 21
227 1 6.27333 -15.6086 2.43555 11
228 1 -4.78106 6.99962 -12.8854 20
229 1 2.74442 -8.4621 -12.1142 20
230 1 10.0403 0.375248 -16.1747 11
231 1 4.20158 10.2824 -14.7112 13
232 1 -11.0449 -3.67187 -5.82459 21
233 1 -3.11419 14.7351 -7.78887 16
234 1 -11.655 -10.629 10.2583 13
235 1 6.99562 18.3021 0.208026 13
236 1 -10.9394 2.57671 15.7423 11
237 1 -6.50475 13.4301 -2.80461 18
238 1 9.30209 2.80504 8.10286 18
239 1 -5.94545 -6.83627 -14.5873 14
240 1 -3.48085 8.85696 -10.5181 18
241 1 2.98108 6.26168 -10.7424 19
242 1 -8.1286 -10.4886 10.5882 17
243 1 -6.66148 7.49363 8.5381 18
244 1 -6.34927 9.66398 10.6388 17
245 1 -2.58462 -10.5694 -7.93993 15
246 1 -3.96261 -15.6328 -2.09356 17
247 1 8.7745 -12.2992 -2.54839 15
248 1 -3.59238 3.77121 5.69393 23
249 1 1.02931 -7.59095 -2.28457 21
250 1 11.4424 10.5376 14.3642 12
251 1 7.4198 8.93563 -9.14601 22
252 1 -1.36905 11.953 -0.00893721 13
253 1 -10.6345 4.99842 3.53195 23
254 1 -13.7359 10.0793 -0.294537 16
255 1 1.67311 4.62544 10.0311 18
256 1 4.97091 -14.5823 0.108799 14
257 1 12.6695 3.58622 -5.80903 21
258 1 3.92374 8.53829 7.75508 18
259 1 -10.0657 8.12612 5.46828 20
260 1 -11.7899 -5.21986 -2.79136 20
261 1 8.55378 5.37527 -13.4697 19
262 1 2.57054 -0.396064 11.1607 18
263 1 9.32521 13.1696 -12.825 11
264 1 2.90694 -8.79332 -4.83776 23
265 1 -3.07385 -2.10488 -13.159 18
266 1 0.544647 -16.4059 4.17187 15
267 1 8.02521 -0.824018 -10.7193 19
268 1 -12.7076 0.765663 7.22757 22
269 1 3.13123 -15.206 -2.58165 13
270 1 -9.53519 -5.81715 -8.1522 21
271 1 5.6069 15.7969 -1.0134 23
272 1 -0.297805 -2.89573 -18.6514 13
273 1 6.9548 4.28646 18.7765 10
274 1 14.5069 5.4674 0.990835 13
275 1 -4.72124 -8.18028 2.36554 20
276 1 9.88518 -3.7408 -11.2305 21
277 1 -2.24334 -6.7279 2.28052 20
278 1 -8.63178 -2.75739 -10.8321 21
279 1 -10.9348 -0.017919 -8.70779 23
280 1 -9.66696 -15.9949 8.92607 11
281 1 9.97647 0.560941 10.554 18
282 1 4.87209 -2.14702 8.82981 16
283 1 -5.9717 -8.91424 -12.0717 15
284 1 1.30117 -6.48833 5.57122 22
285 1 3.65456 7.16048 -14.7464 17
286 1 4.52297 8.20776 1.25303 19
287 1 -7.20407 -4.98902 6.31136 21
288 1 1.82553 12.3685 3.64262 19
289 1 -7.53335 0.578403 11.9778 18
290 1 -12.3051 -8.75939 -8.12726 9
291 1 -8.57298 -5.75828 -11.0334 18
292 1 -1.4434 8.12354 -13.43 12
293 1 -4.73331 -9.09602 -9.26619 19
294 1 -2.33042 -10.302 2.85239 21
295 1 -3.6931 -3.98357 0.216897 19
296 1 10.2433 -4.52821 -14.4484 13
297 1 14.5499 2.20893 -11.7712 10
298 1 1.26852 -2.98666 3.96358 21
299 1 9.71349 6.28166 3.09193 20
300 1 -3.97906 -5.52753 -4.55675 21
301 1 -11.0782 -3.37504 11.443 21
302 1 -3.82859 -10.2128 -0.559011 23
303 1 8.27077 6.40035 16.6453 14
304 1 -8.32748 -15.0931 3.93442 13
305 1 4.26204 2.19852 -4.56799 24
306 1 -1.39537 -11.9701 0.714829 23
307 1 0.371595 17.5368 -3.0923 14
308 1 6.12883 -1.34313 -12.8875 18
309 1 -8.71676 -3.16395 -17.2194 8
310 1 2.97303 -9.67015 -1.53533 22
311 1 -10.9669 -7.28074 11.0769 17
312 1 3.40345 8.8064 18.1163 17
313 1 -1.10379 -10.293 -1.95871 20
314 1 -4.4893 -11.5484 -11.1878 15
315 1 -9.94821 6.79861 -9.97992 17
316 1 11.7068 6.06891 5.95559 22
317 1 -4.32066 4.5647 -11.0452 23
318 1 -0.331346 8.55039 -8.41068 14
319 1 -4.67485 -4.0461 6.51798 21
320 1 5.9346 -14.087 -10.4361 11
321 1 -5.97067 15.2554 -0.796756 17
322 1 3.32584 11.4513 6.4558 18
323 1 10.5579 1.50334 5.22553 20
324 1 -10.4697 2.55382 5.31932 23
325 1 -5.09896 -6.35062 11.2923 16
326 1 -5.76594 9.17141 2.57247 20
327 1 5.23902 -6.51276 -13.0872 20
328 1 13.181 13.1509 -2.21511 13
329 1 5.75853 -10.5744 1.76534 17
330 1 -2.70538 0.866095 14.9445 8
331 1 -18.3579 -3.60239 6.03072 11
332 1 -0.685864 -16.1355 -1.95105 14
333 1 -10.9902 9.03352 15.0068 9
334 1 -12.5715 6.53676 13.2054 11
335 1 -17.1931 -3.58941 9.34452 9
336 1 -15.6506 -7.49503 5.1933 13
337 1 13.0415 -1.39409 -5.17423 15
338 1 -13.0117 -7.86844 8.88618 15
339 1 6.95565 -3.28668 -9.74094 21
340 1 11.1437 -11.8983 -5.1963 14
341 1 3.60594 19.4094 -2.21742 10
342 1 -4.35704 -4.1669 3.56999 19
343 1 -8.65207 15.6875 -2.94311 12
344 1 -0.913023 2.62097 5.22454 22
345 1 11.2884 9.7345 11.3388 18
346 1 -10.523 -0.969137 5.14935 20
347 1 10.5992 -7.99225 -5.4958 24
348 1 -2.97599 10.5555 1.8059 18
349 1 -5.7328 6.00816 4.53649 19
350 1 4.62122 -10.3191 7.48382 14
351 1 12.9096 -3.21533 2.85352 15
352 1 -2.92111 6.02264 9.18126 20
353 1 -4.07292 -1.2954 -8.43596 15
354 1 -1.94503 4.26832 15.5676 20
355 1 -3.43275 13.169 4.17941 14
356 1 9.43105 5.78191 13.7148 16
357 1 -8.12244 13.6132 -5.89442 13
358 1 1.19103 -5.90202 -18.6137 13
359 1 -6.96166 2.5471 -4.39421 19
360 1 5.82599 -11.3748 -14.2671 9
361 1 -10.474 4.85429 10.8369 20
362 1 -13.3539 2.90261 2.00825 19
363 1 -4.38757 -5.48555 -7.79728 18
364 1 -5.80326 11.3555 -0.176195 21
365 1 6.99004 -1.00808 6.35022 13
366 1 -12.1912 -11.6859 1.35953 15
367 1 7.62474 -6.40213 5.30788 18
368 1 -6.03459 5.39435 1.02635 20
369 1 -9.47181 -9.69904 13.0045 13
370 1 -14.6335 7.52374 1.74698 18
371 1 -6.433 -2.69259 8.33056 22
372 1 2.14659 -11.2076 -6.93782 19
373 1 -6.24561 -3.82796 -9.23525 21
374 1 8.007 -2.8829 -15.744 17
375 1 4.03967 14.2864 3.71009 19
376 1 -9.75043 0.886323 -3.31661 20
377 1 5.79012 -6.84692 -10.1189 23
378 1 10.802 3.68996 -14.8214 15
379 1 -4.0831 -17.2822 -7.50086 7
380 1 -13.8893 -7.48417 -4.55001 10
381 1 -3.40499 -6.87619 -1.32648 19
382 1 11.1925 7.93923 15.7414 12
383 1 13.4738 3.67061 -1.95345 17
384 1 -6.66161 2.21554 -12.1596 21
385 1 2.45395 15.9662 -1.53701 21
386 1 -15.8007 -1.43691 -4.4407 12
387 1 -9.07459 11.6293 5.20717 22
388 1 -8.52678 13.0319 -0.331649 22
389 1 -8.16621 10.1626 7.83231 21
390 1 10.6612 6.74093 11.4961 18
391 1 14.7267 -3.7302 -6.90161 12
392 1 6.25743 -1.50454 15.5525 10
393 1 11.3128 4.50092 -8.55976 20
394 1 -6.27691 -15.9726 -4.31007 12
395 1 -0.194599 4.04456 7.85736 22
396 1 -5.98637 5.94238 -1.96132 19
397 1 0.94067 -6.24366 -5.14905 21
398 1 0.18746 10.1867 5.24952 18
399 1 4.40442 4.78838 -3.43546 15
400 1 -8.49722 0.560728 -6.57397 22
401 1 5.39396 -10.3034 -3.05693 23
402 1 10.6927 -1.47243 5.53965 20
403 1 -5.99181 -3.24376 -5.54138 19
404 1 -6.66161 -9.76716 4.13967 18
405 1 -9.75346 -7.09879 14.3002 9
406 1 -3.68068 16.0811 -2.42956 12
407 1 -11.217 -9.63572 -4.00185 15
408 1 8.1377 9.87776 15.6552 13
409 1 -8.85626 7.58197 -2.77593 21
410 1 2.89576 12.9315 -8.25118 22
411 1 7.13017 14.6018 4.51273 21
412 1 -14.6646 -6.71655 -1.20131 12
413 1 -3.52325 -8.34091 -6.60155 20
414 1 -13.3813 0.222773 4.29234 21
415 1 -13.0528 8.14208 -4.80531 9
416 1 4.41464 -7.30366 5.82936 22
417 1 -5.35433 -12.2192 -0.960391 21
418 1 14.3209 12.9047 9.80011 10
419 1 6.91246 8.19931 -14.5666 16
420 1 -13.2013 5.05108 -12.1486 13
421 1 -1.5168 15.7696 -11.1961 10
422 1 -7.7478 7.86117 -7.97131 19
423 1 -2.17682 -13.8552 3.48127 21
424 1 14.0271 7.05884 3.76459 18
425 1 1.90819 8.5676 -12.7157 18
426 1 -5.22784 1.44188 6.73121 19
427 1 -16.6901 1.77712 0.390776 12
428 1 -8.45699 5.71 5.96858 23
429 1 -4.03702 -11.5901 5.35556 20
430 1 3.63608 -6.72803 -6.77662 24
431 1 7.36514 -9.79765 -10.6715 20
432 1 -1.76294 -2.61319 5.98084 21
433 1 -10.4177 1.65756 2.55395 20
434 1 -15.5239 -0.705504 8.92118 15
435 1 -12.8654 9.7736 5.09545 18
436 1 -2.44153 -5.96149 7.28049 21
437 1 -11.3016 3.7969 -14.7381 14
438 1 9.45297 -10.5804 -7.73091 17
439 1 0.46904 -7.88907 -10.2825 17
440 1 -5.83718 -3.42078 12.1179 17
441 1 3.71859 -6.76463 -2.82804 26
442 1 -4.85741 0.653932 -14.6403 17
443 1 5.36777 -14.268 5.47182 14
444 1 3.71833 15.1301 -6.49621 23
445 1 -14.3696 10.6378 7.41481 10
446 1 -7.3934 -2.8604 15.1039 12
447 1 -12.1515 -6.0942 -10.1424 14
448 1 -13.622 -5.28992 7.01327 20
449 1 12.2792 -3.33567 7.67321 17
450 1 7.00329 4.84855 2.36073 18
451 1 -7.27188 3.28125 6.30568 25
452 1 1.34706 0.55105 -10.2057 16
453 1 9.44482 -2.71497 2.73776 17
454 1 0.13465 7.37289 3.57712 20
455 1 12.7009 8.80795 -4.35903 19
456 1 -4.76158 2.87318 11.0482 19
457 1 2.79264 12.5553 -1.85989 19
458 1 6.19078 -4.67997 7.36255 16
459 1 -2.25241 -13.4182 -5.8817 20
460 1 -4.89142 6.37677 15.6379 15
461 1 -4.1941 16.1577 6.8182 12
462 1 -7.60915 -16.6918 -7.10153 5
463 1 6.2703 16.6447 2.10849 22
464 1 5.11151 6.91476 12.5145 19
465 1 -7.99443 4.80209 9.25944 19
466 1 -6.34429 -5.87142 -2.51772 19
467 1 -13.2179 4.70668 8.69324 17
468 1 -9.00587 -9.98867 -6.58943 19
469 1 -8.45737 12.9249 8.11551 16
470 1 -4.92402 -13.4392 -4.15692 19
471 1 -1.93578 -7.67637 -15.0391 18
472 1 -9.24357 -11.6326 2.48408 19
473 1 -7.4599 -2.35415 1.81091 16
474 1 9.42132 3.91102 5.07843 19
475 1 -8.16707 -4.99232 12.8483 20
476 1 -9.96169 3.81927 -11.9004 20
477 1 9.73432 7.77657 -0.165746 18
478 1 -10.1743 -10.7319 -1.0306 17
479 1 2.3619 7.5141 -5.06714 12
480 1 1.05504 14.9636 1.74899 15
481 1 -1.14082 3.46669 -6.62828 14
482 1 -1.43964 8.81565 7.63285 20
483 1 -12.6291 0.0837802 -2.60315 19
484 1 1.36351 17.4949 -5.78424 14
485 1 8.25993 11.8893 -8.28397 20
486 1 -7.34518 -7.87168 -8.12045 18
487 1 3.82302 3.59075 17.984 15
488 1 0.524294 -13.6776 -7.76221 16
489 1 -0.322779 -0.265698 -12.8541 16
490 1 8.50636 -14.1475 4.27272 8
491 1 -11.4527 10.7082 3.01756 20
492 1 2.43407 4.57392 14.7577 21
493 1 6.90562 8.12787 -1.28433 19
494 1 4.26251 11.4663 1.47365 20
495 1 -8.85585 9.7561 -10.8792 16
496 1 5.45422 4.35222 -8.64715 21
497 1 0.95216 -6.99757 2.67102 23
498 1 -14.9918 -3.38494 1.03919 17
499 1 1.16876 16.2838 8.06669 12
500 1 -5.01454 4.08835 -14.1499 20
501 1 11.523 10.962 1.70696 19
502 1 6.29404 17.006 -6.9486 12
503 1 6.35946 -5.697 -1.65523 19
504 1 14.418 2.07872 -4.07262 14
505 1 -0.0319218 2.88873 -12.788 20
506 1 -1.53082 -8.49962 0.459657 20
507 1 1.87613 -12.8364 5.40438 22
508 1 -0.444122 -7.97784 7.82951 18
509 1 -9.00066 2.305 -9.20333 20
510 1 -9.42012 -13.7341 6.97285 20
511 1 5.44295 8.54262 4.89046 19
512 1 -2.76142 -14.5768 -10.2101 10
513 1 10.1911 15.7384 8.85388 10
514 1 3.29829 3.03521 -10.2721 20
515 1 2.56566 1.34653 16.2761 14
516 1 -15.0461 0.938942 11.985 12
517 1 -1.67923 -15.0751 0.414737 19
518 1 -10.7875 -3.30085 2.46142 20
519 1 15.3681 -3.13798 -10.2615 8
520 1 11.6699 1.05839 -4.14691 20
521 1 0.968892 1.26553 -6.60276 17
522 1 -6.87914 6.14443 -4.91587 24
523 1 3.19803 -9.03911 -9.01807 20
524 1 3.6399 1.61885 -7.76038 20
525 1 10.3851 -2.06234 -8.5368 18
526 1 -8.45106 2.00608 14.5887 17
527 1 7.20443 13.4312 1.51699 22
528 1 -5.54729 -2.44837 -14.8693 19
529 1 2.51539 -6.72706 0.0749831 23
530 1 5.33637 2.51103 -17.4808 15
531 1 -8.40911 -2.58226 10.7043 18
532 1 -3.54365 17.0023 0.383213 10
533 1 -9.36161 -2.23461 -13.5321 19
534 1 -18.1285 -1.68193 0.930304 10
535 1 -0.85829 -10.7984 -15.809 11
536 1 -6.35673 -11.616 12.1688 13
537 1 3.70226 9.96044 -6.8178 20
538 1 16.1242 6.19029 9.46568 11
539 1 13.6738 6.89926 -1.83706 17
540 1 -13.1811 -10.3679 -1.76006 11
541 1 -1.99378 -8.26768 -3.86836 21
542 1 -2.18391 -5.26904 -18.5541 13
543 1 -8.27364 10.3576 13.1677 13
544 1 4.52357 -3.64669 -11.6114 21
545 1 1.63035 7.45018 0.195802 19
546 1 9.54458 0.01471 -2.72545 21
547 1 4.40308 14.9599 -10.2145 14
548 1 3.28491 -8.9257 1.99805 26
549 1 4.49113 -0.844144 -3.3166 22
550 1 15.7917 7.86161 -9.63741 11
551 1 2.84397 8.12066 15.3218 20
552 1 -10.0674 2.74496 8.12468 23
553 1 -4.84479 -3.17832 -2.40192 20
554 1 5.53299 9.07776 10.391 18
555 1 8.86232 -0.885968 16.8944 8
556 1 1.77251 2.25517 -14.9548 20
557 1 -7.35189 -5.56437 -5.84426 21
558 1 1.99726 -1.76844 8.05855 18
559 1 6.01234 13.6277 7.7846 17
560 1 10.2243 7.10334 -9.96734 23
561 1 -8.82164 11.7142 -3.83814 18
562 1 -1.01441 12.666 -3.7094 19
563 1 11.9949 -2.32579 11.1377 9
564 1 9.03976 1.5889 -13.2993 20
565 1 13.3733 -9.21819 -4.16863 12
566 1 13.6577 11.4072 12.5725 11
567 1 -14.3267 -5.66582 2.03039 15
568 1 -5.37629 11.2862 -11.6793 13
569 1 -0.868262 0.165182 7.49106 19
570 1 -13.2505 -2.18839 12.9777 12
571 1 -4.15004 13.967 -11.0664 9
572 1 2.84536 -12.1038 -3.70872 19
573 1 4.67488 -0.750602 -9.70507 22
574 1 -1.84839 16.3685 -5.68083 14
575 1 -8.96793 -5.12661 -14.4566 13
576 1 3.04697 -14.8571 3.11814 17
577 1 -9.73651 -4.28594 0.0781846 20
578 1 1.64067 11.7461 -12.0267 17
579 1 -8.75428 4.33724 -2.4015 18
580 1 -2.53286 8.13018 14.9382 19
581 1 -9.71355 -2.69231 8.13683 21
582 1 4.07436 9.07398 -1.65049 16
583 1 3.26838 -6.14572 -10.0268 20
584 1 5.53635 -4.88752 10.6598 9
585 1 9.13396 1.99582 -5.54499 16
586 1 -10.8498 8.24448 -0.261969 23
587 1 4.07999 5.90445 19.3951 13
588 1 6.7422 17.9541 -3.20717 12
589 1 9.92223 -4.77241 -7.40884 24
590 1 3.43133 9.8269 13.0242 22
591 1 0.0783466 2.44395 -17.5135 11
592 1 -7.12878 -13.4551 9.6476 16
593 1 -2.09457 4.97547 -12.9867 19
594 1 6.89152 -0.291118 -16.8317 15
595 1 3.54873 14.5566 6.74033 20
596 1 10.506 7.42063 -13.0103 13
597 1 -2.69075 -4.15225 -16.0324 18
598 1 -5.68123 -8.21057 -4.46709 21
599 1 -11.2943 -4.08122 -12.1394 15
600 1 11.4522 5.36018 -0.217577 19
601 1 14.0081 5.74236 -4.55039 15
602 1 11.4558 -6.63051 -9.64252 15
603 1 13.2849 8.05104 12.8784 15
604 1 4.83364 -11.1533 -6.15158 24
605 1 2.9773 4.66207 -16.6252 15
606 1 6.08673 12.8504 -1.02367 22
607 1 -7.80545 3.87431 3.16604 22
608 1 9.18948 11.6804 12.1777 17
609 1 9.93157 7.71773 -3.21502 20
610 1 14.5932 -0.764838 1.28371 9
611 1 12.7847 6.33386 -10.6013 19
612 1 11.2852 1.3342 15.5215 11
613 1 15.5026 5.41903 12.9842 11
614 1 0.191234 -4.62794 7.95368 18
615 1 12.3101 14.5993 -4.29705 10
616 1 4.05063 3.20521 2.55396 19
617 1 0.28539 2.15102 15.3898 13
618 1 14.5772 2.33521 -8.55495 17
619 1 10.1835 3.71092 11.5673 19
620 1 -5.49959 -0.197126 -6.60256 21
621 1 12.9344 8.12264 0.973532 21
622 1 7.15978 -3.13366 0.302085 20
623 1 -0.433463 -5.47817 0.0074956 23
624 1 -14.2201 7.22242 10.3989 8
625 1 8.6683 11.1252 9.66029 15
626 1 12.9731 1.7853 12.372 15
627 1 3.55327 11.6953 9.24471 23
628 1 -1.12774 13.8074 12.6118 11
629 1 6.65882 4.02271 7.10759 17
630 1 -2.55362 -16.5788 3.14527 13
631 1 -6.63342 8.86551 -2.93672 20
632 1 10.2968 10.4518 -10.697 17
633 1 9.5741 -1.47623 -13.2699 18
634 1 1.06683 14.6852 -3.99144 22
635 1 -6.04865 -10.5165 -6.69243 20
636 1 9.33501 -6.9622 -15.4076 10
637 1 -13.4295 3.28523 5.73188 19
638 1 -5.26805 6.18019 -15.7824 10
639 1 -5.10472 -15.1012 1.38499 15
640 1 -7.01625 -0.407627 -9.30959 22
641 1 -14.3564 0.866666 -6.54731 15
642 1 7.12918 -4.9467 2.53759 18
643 1 11.6269 12.1009 4.99659 21
644 1 -0.860431 -8.59143 5.08786 23
645 1 -13.7453 -1.99841 -7.19888 16
646 1 2.66457 1.18684 -18.0928 15
647 1 3.2969 -4.17963 6.37508 18
648 1 -3.75954 4.78228 13.4051 18
649 1 7.07258 11.8355 -11.337 21
650 1 14.2296 1.0291 9.5472 12
651 1 10.407 6.12744 -5.9598 19
652 1 10.3004 2.06458 -0.85748 23
653 1 9.44862 15.8362 2.30217 17
654 1 3.41479 -13.1497 -8.80912 16
655 1 -9.44258 -1.57473 13.3007 22
656 1 11.2214 0.123548 2.34951 22
657 1 -2.107 11.2719 12.8688 14
658 1 7.18707 15.0964 -11.4303 11
659 1 -12.5253 12.4279 -2.43547 12
660 1 9.40417 12.5584 3.00765 19
661 1 -9.95438 -13.6247 -0.391137 15
662 1 10.3906 -4.61677 0.390357 16
663 1 8.07062 17.7141 4.71938 13
664 1 -1.56727 4.05106 10.794 20
665 1 -11.8096 -5.94267 1.13982 19
666 1 -8.94733 -2.32312 -7.72406 20
667 1 7.74716 1.7557 12.7865 17
668 1 -4.30125 -9.26467 10.7502 16
669 1 7.99961 8.86905 12.4469 19
670 1 -3.44136 13.3027 -1.27892 18
671 1 9.21354 2.67373 1.98881 21
672 1 4.35641 -3.14327 -1.36641 21
673 1 7.65838 6.45641 5.44598 20
674 1 -0.25609 -0.568572 -16.9996 14
675 1 -8.12406 -0.256481 7.40902 23
676 1 6.38616 1.95988 -10.0471 21
677 1 -1.59803 -6.28122 -7.02014 16
678 1 12.454 -9.3472 -7.45518 12
679 1 10.029 8.79571 6.82148 20
680 1 4.30631 5.7518 6.39331 21
681 1 -12.2903 0.179448 13.8342 13
682 1 11.1789 11.3175 7.93962 18
683 1 -2.28841 -1.98793 12.172 9
684 1 -1.9106 7.31912 12.4907 21
685 1 0.452993 -5.22764 -15.5721 22
686 1 -7.16692 4.31569 12.8278 19
687 1 -3.79371 4.4909 -4.52893 18
688 1 7.01069 4.24987 13.3267 18
689 1 -9.50918 -18.1546 6.58983 6
690 1 12.0746 9.49778 -1.7591 20
691 1 8.01692 -12.6989 -5.94777 17
692 1 -3.71839 3.91433 -8.12617 18
693 1 9.73801 11.6766 -1.43907 18
694 1 10.359 15.1172 5.22618 15
695 1 5.38026 -0.104522 -19.7312 8
696 1 -3.30064 0.304126 4.91483 22
697 1 3.72466 16.9965 -3.91808 20
698 1 14.6328 12.0823 0.926168 11
699 1 -0.247274 -3.34188 -5.17181 17
700 1 -6.71727 -8.86755 -1.38406 18
701 1 -5.22273 -3.37425 -17.9582 12
702 1 -11.4475 14.8071 -0.329803 13
703 1 11.3095 -6.453 -12.3727 11
704 1 4.20331 6.27233 3.12288 18
705 1 12.7024 9.18464 -9.15721 14
706 1 9.7852 14.811 -3.24536 13
707 1 -4.19128 7.15949 6.90402 20
708 1 -8.46034 7.07007 2.87501 21
709 1 7.70929 6.80666 -4.66526 18
710 1 13.9715 2.96975 15.1578 9
711 1 9.33632 -0.574663 13.7994 11
712 1 -4.0398 -12.5656 9.73139 13
713 1 -6.78633 8.1318 -10.9114 21
714 1 0.786411 11.0828 11.325 22
715 1 5.41788 -8.66321 -16.4875 11
716 1 3.5589 3.11205 8.69304 19
717 1 6.74959 15.102 -4.93 19
718 1 8.52728 12.3787 6.35432 19
719 1 -6.05667 2.54596 -1.62327 18
720 1 12.2471 -5.61616 -4.85588 18
721 1 6.1004 7.65993 18.0622 15
722 1 -13.302 -2.35801 6.85202 16
723 1 2.86895 -12.1245 0.779834 20
724 1 2.03255 -2.14305 -10.6348 19
725 1 -10.244 13.4512 2.59804 18
726 1 1.39831 6.97511 7.7314 18
727 1 5.72299 -4.51237 -4.48504 21
728 1 6.38558 11.4745 3.42448 22
729 1 -13.2646 -2.70333 4.09235 20
730 1 0.125491 6.74684 15.4226 20
731 1 -8.19064 5.59159 -15.8539 12
732 1 -7.56738 8.29312 -14.1671 12
733 1 1.21249 -9.93734 0.353235 20
734 1 7.87651 6.42601 -7.59089 23
735 1 3.29437 -5.35935 3.33954 21
736 1 -1.24584 5.14901 3.36404 21
737 1 -14.9058 4.32299 11.282 12
738 1 4.84085 -3.6661 -14.7541 20
739 1 0.916505 -10.5613 7.68486 19
740 1 3.93242 14.2845 1.07295 20
741 1 -4.49441 3.06815 16.4909 10
742 1 -9.8186 -8.74627 -9.7605 14
743 1 -3.82751 -9.78505 -14.0983 14
744 1 -4.30576 -13.2542 -8.21535 16
745 1 -0.152566 16.1901 -8.61783 14
746 1 4.27661 -3.73312 -8.07546 23
747 1 -5.92613 12.4631 5.99672 19
748 1 6.56209 -11.478 -8.14811 21
749 1 8.07335 -13.512 0.952025 13
750 1 3.24015 -6.33289 8.20486 14
751 1 16.5439 4.59527 -10.899 9
752 1 -0.405394 -11.1522 -4.5913 17
753 1 -12.9954 -1.74041 9.88401 17
754 1 1.90389 -0.977037 -4.79165 19
755 1 -6.94339 -16.0719 -0.841406 11
756 1 -6.90535 -11.1236 -3.68427 21
757 1 -13.1607 1.86629 9.95584 19
758 1 -7.50317 -13.7101 1.61893 17
759 1 15.1951 5.59464 -8.24218 16
760 1 -6.44006 17.773 4.77545 10
761 1 -5.21265 4.62971 7.72598 22
762 1 -16.6892 6.96559 3.49844 9
763 1 8.44691 -0.201323 0.313426 21
764 1 -11.3818 -3.22772 -9.34089 21
765 1 2.01614 12.0098 -4.89131 23
766 1 8.66686 3.62287 -7.98532 21
767 1 6.20415 11.5093 13.7391 15
768 1 6.72254 1.26109 -2.22602 20
769 1 -14.4144 3.3428 -7.12282 8
770 1 -13.0349 -5.54834 -7.16328 16
771 1 -1.96934 6.9611 17.735 13
772 1 4.43017 9.50342 -11.9097 20
773 1 12.3569 14.4158 7.52386 12
774 1 -3.75404 -1.26061 8.25437 21
775 1 -2.79854 -16.351 -4.49993 14
776 1 -7.239 -15.8281 7.18926 16
777 1 -3.5799 -4.20723 9.87228 19
778 1 16.4746 8.31641 11.7941 8
779 1 -1.74148 -6.12819 -10.3315 19
780 1 -7.30285 7.70198 -0.0360036 23
781 1 8.68926 9.84196 4.23194 19
782 1 -9.02044 -5.05468 3.53783 20
783 1 7.96497 9.05796 -12.036 18
784 1 0.254016 -15.2162 -4.82972 14
785 1 -0.0023028 -17.8739 1.25018 10
786 1 0.916863 -12.8923 -1.64678 24
787 1 8.01913 5.24271 -10.3511 21
788 1 5.65827 19.673 2.79672 9
789 1 -3.27009 -1.08421 -16.5348 14
790 1 -2.90023 0.631862 11.269 15
791 1 3.1844 4.22392 -13.3287 21
792 1 -11.8975 -1.10184 -11.7994 18
793 1 -12.3956 -2.63271 -0.563109 19
794 1 3.11313 17.3505 -8.54115 11
795 1 6.74161 -2.16332 -2.35273 20
796 1 -4.05058 -6.70523 -16.8267 15
797 1 -5.62015 -5.90479 0.214071 14
798 1 9.69905 8.76522 -7.06716 21
799 1 9.03334 -3.63105 -2.07383 19
800 1 -9.5782 4.84506 13.9778 17
801 1 5.66131 -8.11297 -0.430914 21
802 1 12.2223 -3.64016 -2.48657 14
803 1 14.7304 -2.59462 9.2867 8
804 1 -2.56306 12.7303 6.82142 19
805 1 -12.4715 3.18756 12.8087 16
806 1 -9.73355 7.54434 8.686 22
807 1 -4.33716 -14.4428 7.70564 16
808 1 6.73222 2.32893 0.778323 18
809 1 6.25951 11.8587 10.6151 17
810 1 -15.573 -0.578115 -0.970979 18
811 1 9.00614 -5.6912 -4.71243 20
812 1 -10.4414 14.216 -3.77013 12
813 1 3.12264 9.52315 3.85888 20
814 1 1.61971 -15.5378 6.52165 11
815 1 4.86979 2.4051 14.9547 21
816 1 0.73133 13.0315 7.51859 19
817 1 2.20989 -9.20337 5.12802 22
818 1 -6.06287 -0.193119 -3.8327 23
819 1 4.00339 3.96438 12.1256 19
820 1 -14.5881 -3.61347 -1.93784 15
821 1 0.158443 9.98339 16.528 17
822 1 7.29957 10.2134 0.6482 20
823 1 -11.0398 -12.1524 4.98786 16
824 1 -5.11027 -15.1284 4.67726 17
825 1 8.74053 -3.59724 5.75534 15
826 1 11.6103 -4.70166 4.93727 14
827 1 4.75393 5.86515 9.24595 24
828 1 -0.373493 6.16326 -1.92801 13
829 1 -3.23765 -5.25457 -13.3442 22
830 1 -3.2677 1.66171 -12.2061 20
831 1 -5.99577 0.485509 15.2393 12
832 1 -1.76298 16.0586 2.85495 12
833 1 12.838 2.06162 1.31715 19
834 1 4.76734 10.7191 -3.56167 20
835 1 -5.21004 8.26772 12.9321 19
836 1 7.86889 6.79341 10.6349 20
837 1 7.47822 -3.91489 -12.9925 24
838 1 -7.26056 -10.3186 0.784925 17
839 1 -3.23718 1.73296 -5.46347 21
840 1 13.3887 0.467961 4.2253 16
841 1 2.50193 -4.20489 -13.8792 18
842 1 0.209653 9.35156 19.6485 8
843 1 8.64448 -13.6348 -9.34586 10
844 1 6.09667 5.54177 -16.1294 13
845 1 -1.14804 -5.41224 -3.02432 17
846 1 13.495 4.801 -13.435 10
847 1 11.3937 -1.8781 0.0877687 18
848 1 -0.939593 -1.67484 9.61361 18
849 1 -2.77564 -8.98592 -11.3625 19
850 1 8.0649 15.8881 -0.659122 17
851 1 -1.18358 -5.11632 4.67901 20
852 1 -14.304 5.54437 3.44213 16
853 1 12.8977 7.24548 -7.51123 20
854 1 15.6782 8.85515 1.636 13
855 1 3.50641 -6.55603 -15.8304 19
856 1 -10.3762 14.2272 5.79906 14
857 1 16.1879 9.06523 5.36651 12
858 1 9.5458 15.0393 -7.01596 13
859 1 4.97887 1.30079 -15.0808 17
860 1 10.0878 -2.55682 -4.73336 19
861 1 -12.7135 2.94151 -4.11272 15
862 1 11.3566 9.09347 3.92588 19
863 1 -13.5502 -8.69002 0.918051 14
864 1 -10.7109 11.0901 -9.38364 11
865 1 6.74755 3.83449 10.315 21
866 1 -11.3795 -0.514268 -5.83095 22
867 1 -14.3373 6.80789 6.41856 13
868 1 -1.14675 3.05706 -9.79047 20
869 1 7.50795 -7.62676 -13.1449 19
870 1 -10.634 -7.60119 -6.08603 19
871 1 11.124 -10.0128 -2.49828 13
872 1 -13.0296 5.42599 0.753777 22
873 1 -8.89584 -4.55792 -3.2596 18