ITEM: TIMESTEP
16000
ITEM: NUMBER OF ATOMS
1000
ITEM: BOX BOUNDS pp pp pp
-30.0 30.0
-30.0 30.0
-30.0 30.0
ITEM: ATOMS id type x y z Coordination
1 1 -11.8432 -0.681051 -6.03599 13
2 1 -10.0861 -3.72583 -6.61098 16
3 1 -10.1026 -5.54422 -4.20958 18
4 1 -12.3519 -2.929 -4.18189 13
5 1 -8.83497 -6.89899 -6.81531 15
6 1 -6.88301 -9.39745 -6.28149 14
7 1 -7.05013 -10.9938 -3.39396 13
8 1 -9.21658 -8.70428 -3.86501 14
9 1 -8.19854 -0.61381 -11.8621 12
10 1 -6.71498 -3.45195 -11.7918 13
11 1 -7.30321 -5.63303 -9.07962 16
12 1 -8.26432 -2.54459 -9.31654 16
13 1 -8.58663 -0.940418 -6.44392 23
14 1 -6.88009 -3.69494 -6.36581 22
15 1 -6.84525 -5.85175 -3.69203 23
16 1 -8.43759 -2.77784 -3.77471 25
17 1 -4.31645 -7.15494 -11.061 12
18 1 -6.51222 -8.16679 -9.10573 13
19 1 -5.36813 -6.8288 -6.25404 24
20 1 -3.65072 -8.89488 -7.94186 17
21 1 -2.70212 -11.4878 -3.57487 14
22 1 -5.14342 -8.54224 -3.56138 20
23 1 -5.17715 -0.58599 -11.9655 19
24 1 -3.94683 -3.84984 -11.3227 19
25 1 -3.91978 -5.59731 -8.89396 22
26 1 -5.2166 -2.55239 -8.94569 25
27 1 -5.29095 -0.822374 -6.07586 26
28 1 -3.55786 -3.81204 -6.03215 25
29 1 -3.51805 -5.77367 -3.36372 23
30 1 -5.33363 -2.97829 -3.37999 24
31 1 -2.12445 -11.8994 -7.2556 10
32 1 -1.84915 -5.23709 -12.4547 12
33 1 -0.939545 -10.4657 -9.31688 12
34 1 -1.40059 -7.87006 -10.1619 16
35 1 -1.94323 -6.41077 -6.35355 21
36 1 -0.286262 -9.28437 -6.80071 22
37 1 -0.276196 -11.2953 -4.29275 18
38 1 -2.08239 -8.82819 -4.35926 19
39 1 -2.21953 -1.38036 -11.393 19
40 1 -0.117801 -3.20312 -11.3806 22
41 1 -0.309459 -5.33145 -8.97133 24
42 1 -1.94667 -2.72108 -8.65741 25
43 1 -1.99516 -0.815531 -6.00223 24
44 1 -0.209228 -3.85604 -6.11437 24
45 1 -0.338904 -5.7797 -3.41415 25
46 1 -1.74224 -2.86983 -3.36694 24
47 2 -13.9306 -2.29335 -3.02474 10
48 2 -10.7038 -8.51634 -2.36966 13
49 2 -8.87176 -10.5678 -3.14265 12
50 2 -9.59153 -5.33648 -6.02927 15
51 2 -11.5898 -2.71263 -6.04203 13
52 2 -8.04003 -2.33692 -11.7257 9
53 2 -10.4365 -5.78982 -0.965611 17
54 2 -11.7694 -2.9896 -0.886419 18
55 2 -12.1113 -0.646756 -4.22732 15
56 2 -10.4944 -3.69475 -3.70197 16
57 2 -8.7104 -8.5831 -5.82071 16
58 2 -8.06176 -7.42237 -8.40065 10
59 2 -6.48283 -11.2019 -1.60241 15
60 2 -8.24321 -8.38554 -0.705115 21
61 2 -8.67461 -6.7489 -3.6422 19
62 2 -6.20322 -9.8233 -4.66129 12
63 2 -6.62867 -5.6076 -7.12676 22
64 2 -8.33554 -2.84422 -7.39289 20
65 2 -8.39214 -0.498054 -9.72147 19
66 2 -6.70052 -3.71487 -9.77012 16
67 2 -6.67032 -5.5163 -1.70496 22
68 2 -8.41708 -2.8277 -1.84292 24
69 2 -8.77978 -0.918041 -4.51923 25
70 2 -6.8606 -3.82555 -4.42725 25
71 2 -3.5597 -12.75 -2.28141 10
72 2 -2.63906 -10.4157 -8.47827 11
73 2 -5.52211 -8.67401 -7.34254 18
74 2 -5.74439 -6.63918 -9.94862 16
75 2 -3.31324 -7.46152 -9.44918 18
76 2 -3.46665 -11.2588 -0.216463 21
77 2 -5.24275 -8.48145 -1.46212 22
78 2 -5.19931 -6.72922 -4.21966 22
79 2 -3.49152 -9.68405 -3.25582 21
80 2 -3.64888 -5.71048 -12.1288 13
81 2 -5.19751 -2.51724 -12.1073 14
82 2 -3.80437 -5.70673 -6.77354 20
83 2 -5.12464 -2.55793 -6.84098 24
84 2 -5.05746 -0.650875 -9.48985 25
85 2 -3.45883 -3.82925 -9.31968 23
86 2 -3.58961 -5.86626 -1.51201 24
87 2 -5.35239 -2.88401 -1.27343 22
88 2 -5.29267 -0.999466 -4.15762 24
89 2 -3.57799 -3.72784 -3.96765 24
90 2 -0.394215 -12.1678 -0.0275729 14
91 2 -2.13554 -11.8352 -5.39589 14
92 2 -0.237453 -11.2854 -7.68652 13
93 2 -1.93247 -8.37307 -6.78475 20
94 2 -0.84625 -6.16231 -10.8462 17
95 2 0.0629769 -8.90374 -9.58783 15
96 2 -1.04941 -11.2926 -2.47773 18
97 2 -1.9922 -8.81901 -0.530573 20
98 2 -1.93499 -6.6801 -4.24843 23
99 2 -0.124792 -9.38026 -4.69078 24
100 2 0.110627 -5.0523 -12.9876 12
101 2 -2.03139 -3.29975 -11.7139 16
102 2 -0.192816 -5.64345 -6.93333 23
103 2 -2.01824 -2.69178 -6.65711 24
104 2 -2.08321 -0.938754 -9.58547 23
105 2 -0.0362031 -3.4552 -9.34319 23
106 2 -0.217375 -5.99655 -1.51507 23
107 2 -2.00117 -3.08977 -1.39091 24
108 2 -1.99591 -0.819593 -4.1322 23
109 2 -0.173658 -3.88502 -4.14842 25
110 1 -13.7477 -3.03308 -1.13477 11
111 1 -11.7265 -7.26241 -1.55341 13
112 1 -9.7407 -9.92002 -1.42294 13
113 1 -11.7859 -8.88194 1.26723 8
114 1 -11.5237 -1.04947 -0.589943 21
115 1 -10.2728 -3.96625 -1.518 21
116 1 -10.2007 -6.05413 1.10814 19
117 1 -12.0934 -3.31125 1.32268 16
118 1 -12.069 -1.12317 4.12055 15
119 1 -10.2956 -4.22949 4.01838 16
120 1 -10.258 -5.95037 6.72193 12
121 1 -11.9068 -2.95851 6.38663 9
122 1 -8.75811 -6.74762 -1.66856 20
123 1 -6.57261 -9.55106 -0.668208 18
124 1 -6.8334 -11.8079 1.86146 13
125 1 -8.61453 -9.00122 1.21762 16
126 1 -8.78714 -7.3026 3.80176 16
127 1 -7.01434 -9.84733 4.83181 14
128 1 -8.55378 -8.78401 6.98774 10
129 1 -8.36019 -1.09882 -0.880065 22
130 1 -7.08562 -3.87822 -0.851345 22
131 1 -7.07671 -5.91567 1.87879 22
132 1 -8.82344 -3.11289 1.89021 23
133 1 -8.57944 -1.16145 4.79606 23
134 1 -7.05971 -4.2037 4.547 20
135 1 -6.97949 -5.92829 7.22389 21
136 1 -8.5686 -3.28393 7.38268 20
137 1 -8.47696 -1.12175 9.69953 13
138 1 -6.71112 -3.98244 9.91893 14
139 1 -4.98073 -12.218 -1.04102 14
140 1 -5.19099 -12.4494 4.29417 12
141 1 -5.22182 -6.6025 -0.742782 23
142 1 -3.51991 -9.77234 -1.33877 21
143 1 -3.21033 -11.4559 1.86014 20
144 1 -5.28197 -8.85623 1.97906 23
145 1 -5.38955 -6.95867 4.86981 23
146 1 -3.71526 -9.6966 4.44954 23
147 1 -3.43856 -11.4861 7.11156 14
148 1 -5.10497 -8.77362 7.52467 18
149 1 -5.07465 -6.60983 10.0689 15
150 1 -3.26005 -9.44362 9.69639 11
151 1 -5.17188 -1.08685 -0.720099 24
152 1 -3.72115 -3.98518 -0.773884 24
153 1 -3.69297 -5.99345 1.85269 23
154 1 -5.54656 -3.09463 1.72007 23
155 1 -5.2905 -1.25397 4.75692 25
156 1 -3.90242 -4.17344 4.67974 21
157 1 -3.51248 -5.83648 7.40523 24
158 1 -5.20933 -2.96021 7.18088 23
159 1 -5.23426 -0.66051 9.40468 24
160 1 -3.55314 -3.70049 9.91012 24
161 1 -3.71862 -5.19395 12.6556 11
162 1 -5.10693 -2.91133 12.6384 11
163 1 -1.90087 -12.4885 -1.07163 15
164 1 -1.81052 -12.2395 4.72959 15
165 1 -1.94799 -6.75584 -0.83237 22
166 1 -0.363751 -9.8952 -1.32457 23
167 1 -0.0149946 -11.7054 1.94662 16
168 1 -1.86233 -8.69086 1.42812 21
169 1 -1.95748 -6.71848 4.59856 23
170 1 -0.299333 -9.45612 3.96016 21
171 1 0.130906 -11.4718 6.92969 14
172 1 -1.70258 -8.67071 7.01854 23
173 1 -1.95595 -6.4462 10.2097 21
174 1 -0.0944263 -9.15064 9.62673 12
175 1 -2.02857 -1.22557 -0.643271 25
176 1 -0.344995 -4.05496 -0.629243 25
177 1 -0.391698 -5.95854 2.19674 25
178 1 -2.13042 -3.27848 2.04927 23
179 1 -1.93842 -1.33066 4.58115 23
180 1 -0.148636 -3.85094 4.60165 23
181 1 -0.272374 -5.76273 7.21878 21
182 1 -1.9455 -3.15814 7.35395 22
183 1 -1.92888 -0.788036 9.83057 23
184 1 -0.328751 -3.69924 9.88724 23
185 1 -0.249493 -5.45574 12.8425 13
186 1 -1.57239 -2.3838 12.6478 16
187 2 -14.0216 -2.7047 0.804191 9
188 2 -12.0765 -7.24738 0.342146 11
189 2 -10.3761 -9.82461 0.455652 12
190 2 -9.91175 -6.03469 4.71804 15
191 2 -11.9299 -3.17774 4.40372 15
192 2 -11.7072 -1.31363 1.40745 18
193 2 -10.3781 -4.2159 1.86418 17
194 2 -11.96 -1.00304 6.33433 12
195 2 -10.4014 -4.02191 7.08727 14
196 2 -6.74171 -11.5436 3.84601 11
197 2 -8.62546 -8.81487 4.9734 13
198 2 -8.73738 -7.1798 1.93415 19
199 2 -6.82792 -9.95401 1.36432 18
200 2 -8.77462 -6.87459 7.47819 12
201 2 -6.66071 -9.26487 6.64402 15
202 2 -6.637 -5.87048 3.65794 21
203 2 -8.45139 -3.13676 3.74347 22
204 2 -8.55661 -1.07715 1.20785 23
205 2 -7.24266 -4.04611 1.08305 22
206 2 -6.35902 -5.6721 8.9769 16
207 2 -8.03857 -2.77788 9.16044 15
208 2 -8.69251 -1.22155 6.83007 20
209 2 -6.81478 -4.1201 6.57245 23
210 2 -5.1164 -4.35831 11.3644 14
211 2 -4.94767 -12.3082 2.34791 14
212 2 -3.75394 -11.5732 5.27831 18
213 2 -5.38049 -8.89117 4.02891 22
214 2 -5.34082 -6.88397 1.23362 24
215 2 -3.39777 -9.51039 2.51382 22
216 2 -4.74787 -8.2632 9.43222 13
217 2 -5.10527 -6.79495 6.836 23
218 2 -3.20392 -9.69288 7.83431 17
219 2 -3.71515 -6.06545 3.94012 24
220 2 -5.4351 -3.15998 3.7977 25
221 2 -5.41815 -1.1715 1.34795 25
222 2 -3.7162 -4.11596 1.15283 26
223 2 -3.45799 -5.57768 9.39783 22
224 2 -5.19696 -2.64127 9.10222 24
225 2 -5.34169 -0.889164 6.6063 22
226 2 -3.55184 -4.00158 6.61159 25
227 2 -5.0644 -1.07629 12.1478 15
228 2 -3.17283 -3.34449 13.0663 12
229 2 -1.69346 -12.1965 2.76171 17
230 2 -1.66843 -12.1714 6.88386 11
231 2 -0.237932 -11.0827 4.89658 19
232 2 -1.99543 -8.74136 4.91528 21
233 2 -1.95621 -6.57971 1.2057 21
234 2 -0.158857 -9.50441 1.94885 21
235 2 -1.76019 -8.41835 10.2876 14
236 2 -1.8696 -6.76669 6.80769 21
237 2 -0.0305485 -9.736 7.78975 17
238 2 -1.93983 -6.00829 12.1722 14
239 2 -0.204512 -5.81095 4.10903 22
240 2 -2.02007 -3.30167 4.05207 22
241 2 -2.10582 -1.26978 1.49925 24
242 2 -0.406164 -4.02813 1.50902 23
243 2 -0.158196 -5.65111 9.32874 24
244 2 -1.94319 -2.77417 9.63726 22
245 2 -2.1306 -1.29109 6.98445 22
246 2 -0.149092 -3.84553 6.6818 25
247 2 -1.89963 -0.652 11.854 18
248 2 -0.265782 -3.662 12.0582 21
249 1 -13.5225 -0.210587 -2.8275 13
250 1 -10.329 0.0724877 -8.9647 12
251 1 -11.9032 4.97334 -5.60818 9
252 1 -10.2681 2.05301 -6.74479 16
253 1 -10.3337 0.0771778 -3.42036 23
254 1 -12.0129 2.54808 -3.79051 17
255 1 -10.4512 7.88939 -5.30567 10
256 1 -9.74729 5.61396 -3.83392 21
257 1 -6.58984 2.42673 -11.5746 13
258 1 -6.7125 0.391334 -8.98038 23
259 1 -8.6009 3.2434 -8.95404 14
260 1 -8.59248 4.93954 -6.5008 19
261 1 -6.92552 1.85807 -6.22284 24
262 1 -6.94385 -0.23081 -3.51043 24
263 1 -8.57336 2.90388 -4.1844 22
264 1 -6.69733 5.84441 -9.37992 15
265 1 -6.97127 7.8048 -5.73937 18
266 1 -6.80899 5.61159 -3.56481 21
267 1 -8.13104 9.12516 -3.33043 16
268 1 -6.35477 12.2455 -2.51083 14
269 1 -4.67722 4.97613 -11.7705 14
270 1 -3.3934 1.98389 -11.647 20
271 1 -3.43565 0.284349 -8.72494 24
272 1 -5.26803 3.08309 -9.00103 23
273 1 -5.2894 4.847 -6.18487 23
274 1 -3.65728 1.97244 -6.0916 25
275 1 -3.54196 -0.0370928 -3.56023 24
276 1 -5.31892 2.65876 -3.42132 22
277 1 -4.66612 7.90061 -11.082 10
278 1 -3.56556 5.93893 -8.97168 21
279 1 -5.53082 8.85261 -8.51475 13
280 1 -4.89922 10.5007 -6.00192 13
281 1 -3.54215 7.78092 -6.06608 23
282 1 -3.61629 5.77897 -3.35347 22
283 1 -5.04575 8.74986 -3.41963 23
284 1 -3.1939 11.5936 -3.45034 16
285 1 -1.7597 0.408061 -13.3962 10
286 1 -1.72107 6.05547 -11.1196 15
287 1 -0.0756924 1.60486 -11.2243 20
288 1 -0.552872 0.0070621 -8.69785 25
289 1 -2.0738 3.18208 -8.86705 22
290 1 -1.97454 4.79754 -6.12092 25
291 1 -0.524051 1.87354 -6.10794 25
292 1 -0.310974 -0.126674 -3.39244 26
293 1 -1.93708 2.82012 -3.61334 23
294 1 -0.0436763 8.93423 -10.5026 10
295 1 -0.202938 5.80765 -8.65562 22
296 1 -2.63661 9.28426 -8.51081 17
297 1 -1.84828 10.4312 -6.3419 17
298 1 -0.225891 7.68556 -6.36939 23
299 1 -0.340322 5.92819 -3.71512 21
300 1 -1.91388 8.78936 -3.57361 22
301 1 -0.245515 11.235 -9.08775 11
302 1 -0.144988 11.2776 -3.27846 19
303 2 -13.3187 -0.187113 -0.827007 18
304 2 -13.6404 1.85903 -2.90271 12
305 2 -10.3602 0.0602524 -7.0078 16
306 2 -11.5837 3.12109 -5.87529 14
307 2 -10.0116 1.85667 -8.89965 11
308 2 -10.1212 -0.0630845 -1.53255 24
309 2 -11.8026 2.89248 -0.791841 19
310 2 -11.6009 4.67177 -3.67462 16
311 2 -10.0908 1.94571 -3.39225 20
312 2 -10.1498 6.04559 -5.88817 14
313 2 -9.99594 5.69514 -1.02611 19
314 2 -10.5021 7.51488 -3.38303 13
315 2 -6.84747 0.617811 -11.891 12
316 2 -6.80424 0.0349255 -7.09188 24
317 2 -8.48866 3.0031 -6.4791 20
318 2 -8.08807 5.07593 -8.39465 14
319 2 -6.9736 2.48149 -9.66233 19
320 2 -6.8021 -0.0383489 -1.58601 25
321 2 -8.52321 2.73231 -0.78028 21
322 2 -8.17239 4.51718 -3.07154 23
323 2 -6.93572 1.66108 -4.35562 21
324 2 -6.97458 5.66407 -5.62866 18
325 2 -8.53316 8.60528 -5.25283 13
326 2 -6.26116 7.60992 -9.93063 10
327 2 -6.80546 5.79923 -0.588405 21
328 2 -8.65219 8.47825 -1.01537 17
329 2 -7.90396 10.8657 -2.64677 14
330 2 -6.66062 7.68493 -3.40868 19
331 2 -6.3476 11.6019 -0.556102 15
332 2 -3.30282 -0.0420137 -12.3418 16
333 2 -4.97363 3.14133 -12.3525 12
334 2 -3.66944 0.168809 -6.71427 23
335 2 -5.24449 2.94084 -6.90408 25
336 2 -5.10701 5.01713 -9.87707 20
337 2 -3.59357 1.99094 -9.64753 23
338 2 -3.63896 -0.183387 -1.49458 25
339 2 -5.2824 2.7106 -1.29339 23
340 2 -5.1332 4.60526 -3.98332 22
341 2 -3.69647 1.79207 -4.00091 23
342 2 -3.47235 6.40954 -11.7476 11
343 2 -3.77965 5.9848 -6.97524 25
344 2 -5.45197 8.71161 -6.66584 17
345 2 -3.941 8.00979 -9.19286 16
346 2 -3.62512 5.66289 -1.38481 23
347 2 -5.21483 8.75637 -1.17212 23
348 2 -4.47226 10.3598 -4.16596 19
349 2 -3.46333 7.55674 -4.07331 24
350 2 -3.60741 10.3317 -7.28062 13
351 2 -3.08182 11.1669 -1.61061 21
352 2 -4.53117 12.8707 -2.63466 11
353 2 -0.39663 -0.221608 -12.1147 17
354 2 -1.71477 2.24722 -12.6127 13
355 2 -0.301427 -0.00649621 -6.71712 25
356 2 -2.03059 3.08929 -6.87993 25
357 2 -1.77105 4.96078 -9.34759 20
358 2 -0.510902 1.88987 -9.31944 22
359 2 -0.346389 -0.0718207 -1.3525 23
360 2 -1.90706 2.64783 -1.66543 24
361 2 -1.99974 4.88759 -4.06596 24
362 2 -0.27558 1.77792 -4.1436 25
363 2 -0.323787 5.14028 -12.2211 12
364 2 -0.323433 5.66162 -6.5881 21
365 2 -1.91835 8.40528 -6.87855 24
366 2 -1.39707 9.92436 -9.66364 10
367 2 -0.0171184 7.15056 -10.0655 17
368 2 -0.321613 5.65584 -1.52319 25
369 2 -1.82326 8.60608 -1.57894 26
370 2 -1.71174 10.5958 -4.32464 23
371 2 -0.338819 7.74186 -4.19477 25
372 2 -0.245532 11.115 -7.30539 15
373 2 -0.0505352 11.2218 -1.30246 23
374 2 -1.2911 13.8328 -1.12208 14
375 2 1.11959 12.8614 -3.2032 14
376 1 -13.5721 1.73519 -0.897754 13
377 1 -13.7925 -0.807443 1.27898 13
378 1 -13.7024 1.84315 3.00811 12
379 1 -11.4327 4.52924 -1.62212 17
380 1 -10.0524 1.87507 -1.43004 23
381 1 -10.1801 -0.143667 1.91347 21
382 1 -11.898 2.96673 1.05636 18
383 1 -11.9605 4.51729 3.63256 16
384 1 -10.3547 1.80956 3.73288 21
385 1 -10.3892 -0.230299 7.03874 17
386 1 -12.1439 2.54164 5.96366 14
387 1 -10.4204 1.94046 8.99505 11
388 1 -10.3042 7.63566 -1.51185 14
389 1 -10.1021 5.73935 1.04389 21
390 1 -10.1396 7.72789 3.89125 14
391 1 -10.4934 5.73621 6.38043 13
392 1 -8.33344 4.60576 -1.01816 22
393 1 -6.75626 1.64149 -0.525185 23
394 1 -6.99265 -0.175806 2.0649 23
395 1 -8.64218 2.65864 1.24757 20
396 1 -8.60068 4.72912 3.60999 21
397 1 -6.91069 1.89585 4.41195 23
398 1 -7.01038 0.00245127 7.22554 22
399 1 -8.72205 2.92003 6.25333 21
400 1 -8.69039 4.90028 9.04432 11
401 1 -7.09938 2.06027 9.74835 18
402 1 -6.61039 0.0212566 11.7672 10
403 1 -8.19373 10.7544 -0.668934 13
404 1 -6.86692 7.67134 -1.33405 21
405 1 -6.59252 5.64748 1.30046 21
406 1 -8.47557 8.4221 1.0731 18
407 1 -8.06704 10.7139 3.05456 15
408 1 -6.87637 7.59058 3.73901 23
409 1 -7.128 6.04932 6.27784 22
410 1 -8.72587 9.06281 6.0772 10
411 1 -6.76449 7.87787 8.55959 12
412 1 -5.84462 12.4034 1.16401 13
413 1 -5.20842 4.61415 -0.843903 23
414 1 -3.65368 1.72637 -0.856898 23
415 1 -3.73647 -0.301039 2.0209 24
416 1 -5.09638 2.67113 1.82122 23
417 1 -5.09111 4.82101 4.36152 22
418 1 -3.54372 1.78953 4.50513 23
419 1 -3.70476 -0.104311 7.20755 22
420 1 -5.4391 3.02573 7.01848 23
421 1 -5.50187 5.01059 9.61526 19
422 1 -3.56487 2.31475 9.4928 21
423 1 -3.68002 0.146716 11.9605 16
424 1 -4.9013 3.16265 12.3651 12
425 1 -4.5597 10.6301 -0.513294 22
426 1 -3.46156 7.63609 -0.973901 21
427 1 -3.26838 5.64931 1.64642 21
428 1 -4.99017 8.53885 1.47494 21
429 1 -5.37612 10.6432 3.4704 18
430 1 -3.66376 7.74317 4.16796 22
431 1 -3.75869 5.87975 7.01514 23
432 1 -5.26775 9.03297 6.42153 17
433 1 -3.63242 7.79175 9.37596 16
434 1 -3.32229 5.9096 12.2743 11
435 1 -3.25554 13.588 -1.1628 15
436 1 -2.60995 12.2731 1.69985 17
437 1 -3.27182 11.5858 5.62845 12
438 1 -1.89992 4.71113 -0.931385 24
439 1 -0.329326 1.75768 -0.863288 25
440 1 -0.450767 -0.28613 1.89104 22
441 1 -1.88617 2.64807 1.83818 24
442 1 -1.95834 4.63599 4.40469 24
443 1 -0.28596 1.72609 4.52497 23
444 1 -0.471453 -0.08676 7.13618 23
445 1 -2.16133 2.76252 6.99612 23
446 1 -2.1458 5.18384 9.4282 22
447 1 -0.42344 2.03873 9.45814 23
448 1 -0.068192 0.215893 12.4753 16
449 1 -1.73981 2.89857 12.2908 17
450 1 -1.68019 10.4026 -0.537384 25
451 1 -0.242774 7.56622 -1.07534 23
452 1 -0.132906 5.71203 1.65783 24
453 1 -1.69788 8.42715 1.62053 21
454 1 -1.57283 10.4703 3.50893 20
455 1 -0.222704 7.64043 4.30547 22
456 1 -0.382291 5.77451 6.76222 23
457 1 -1.78647 8.70737 6.8565 21
458 1 -0.51006 7.57982 9.69873 15
459 1 -0.479154 5.73802 12.3983 12
460 1 0.457799 14.2322 -1.94426 10
461 1 0.170689 13.0714 0.285556 16
462 1 -0.58881 13.1829 3.71083 11
463 1 -0.055873 11.0921 6.47089 13
464 2 -13.5845 -0.0118176 3.35338 14
465 2 -13.6161 2.05041 1.20398 12
466 2 -9.9983 -0.167027 3.9699 21
467 2 -12.2317 2.59843 4.0556 15
468 2 -11.1766 4.52885 1.82612 18
469 2 -10.3858 1.84226 1.87087 24
470 2 -9.79653 0.126862 9.05533 12
471 2 -11.9923 4.41346 6.11768 10
472 2 -10.4605 2.04972 6.86324 16
473 2 -10.3359 5.77366 4.24619 19
474 2 -9.92238 7.39081 1.86286 17
475 2 -10.027 7.68647 6.07559 10
476 2 -6.88374 -0.196275 4.05684 21
477 2 -8.72676 2.88008 4.16411 20
478 2 -8.3453 4.64884 1.57495 23
479 2 -6.92962 1.87601 1.50526 23
480 2 -6.87821 0.160008 9.44655 19
481 2 -8.78122 2.97282 9.53741 13
482 2 -8.67888 4.9461 7.08519 19
483 2 -7.13148 1.73752 6.45376 21
484 2 -6.17847 1.81581 11.8195 13
485 2 -6.94895 5.68783 4.28839 21
486 2 -8.44618 9.01436 4.11394 17
487 2 -8.47308 10.5468 1.19149 13
488 2 -6.64736 7.60326 1.57714 22
489 2 -7.21831 6.09133 9.35312 13
490 2 -7.19145 8.02797 6.62046 15
491 2 -6.76533 11.9514 2.93184 10
492 2 -3.77639 -0.141026 4.10162 22
493 2 -5.02687 2.84303 3.94217 20
494 2 -4.74541 4.47271 1.21989 21
495 2 -3.59717 1.4703 1.08888 23
496 2 -3.54316 0.328727 9.20035 22
497 2 -5.45867 3.05724 9.01957 23
498 2 -5.38399 4.83086 6.36219 21
499 2 -3.84929 1.75196 6.55221 23
500 2 -4.79415 4.78881 11.6018 14
501 2 -3.3908 2.03575 11.661 19
502 2 -3.48179 5.65483 3.59064 26
503 2 -5.25844 8.67791 3.6116 18
504 2 -4.59214 10.4998 1.60353 23
505 2 -3.33243 7.53449 1.12394 24
506 2 -3.89214 5.8109 8.97886 20
507 2 -5.02413 8.71021 8.27538 13
508 2 -4.93178 10.6253 5.4634 16
509 2 -3.62349 7.66997 6.09058 23
510 2 -2.4731 12.0687 3.86537 14
511 2 -4.17414 12.9633 0.514588 16
512 2 -0.354464 -0.358739 4.07487 23
513 2 -1.85565 2.67513 3.92434 22
514 2 -1.62936 4.4224 1.07203 22
515 2 -0.323146 1.50981 1.16601 23
516 2 -0.207937 0.0758388 9.15038 23
517 2 -1.94987 3.20103 8.96195 22
518 2 -2.10113 4.67807 6.48175 22
519 2 -0.492178 1.75146 6.49449 22
520 2 -2.06166 4.6797 12.885 11
521 2 -0.178827 1.95056 11.6451 20
522 2 -0.394671 5.63707 3.53594 24
523 2 -1.96304 8.48983 3.66084 23
524 2 -1.5797 10.4212 1.34944 24
525 2 -0.0101351 7.52121 0.8772 25
526 2 -0.508469 5.7082 8.7506 24
527 2 -1.92977 8.43016 8.72868 16
528 2 -1.81711 10.6554 6.47824 15
529 2 -0.0345199 7.60347 6.29145 21
530 2 -1.836 6.39384 11.092 15
531 2 0.116741 11.5202 4.33612 18
532 2 -0.842517 13.2332 1.86424 14
533 1 1.46993 -11.9524 -7.11564 13
534 1 0.979732 -6.3786 -11.6543 17
535 1 1.73997 -8.10546 -9.17868 19
536 1 1.30982 -6.77068 -6.29713 25
537 1 3.11812 -9.49127 -6.31817 21
538 1 2.96722 -11.5064 -3.89184 17
539 1 1.36355 -8.54543 -3.61487 25
540 1 1.79479 -4.3499 -13.3883 9
541 1 1.42527 -0.818069 -11.6688 20
542 1 3.26162 -3.7594 -11.281 21
543 1 2.95271 -5.52627 -8.75113 23
544 1 1.52555 -2.63072 -8.60519 24
545 1 1.19778 -0.922217 -6.0011 25
546 1 3.0051 -3.83649 -6.06202 23
547 1 2.9362 -5.66409 -3.5573 24
548 1 1.45162 -2.73954 -3.43645 22
549 1 4.08838 -7.00785 -11.3369 11
550 1 3.99737 -9.83758 -8.84743 10
551 1 4.65454 -6.74364 -6.45031 23
552 1 6.41499 -9.33222 -6.72714 14
553 1 6.35083 -11.2686 -3.96814 12
554 1 4.49934 -8.48737 -3.62292 24
555 1 4.50737 -0.833441 -11.158 22
556 1 6.04314 -4.02226 -11.397 11
557 1 6.57431 -5.46904 -8.99074 17
558 1 4.92412 -2.68892 -8.69696 22
559 1 4.49399 -0.824773 -5.99354 25
560 1 6.33179 -3.80434 -6.13289 23
561 1 5.96948 -5.7103 -3.5759 21
562 1 4.51751 -2.93533 -3.13229 24
563 1 8.48238 -6.66165 -7.0423 15
564 1 7.75654 -8.37667 -4.38967 16
565 1 7.74193 0.123307 -11.2491 11
566 1 10.0492 -5.54133 -9.77638 7
567 1 8.17345 -2.5949 -9.12063 16
568 1 7.8678 -1.08439 -5.80233 26
569 1 9.6596 -3.80405 -7.0391 18
570 1 9.24651 -5.44832 -4.24399 20
571 1 7.61717 -2.78358 -3.24727 23
572 1 11.4615 -6.60897 -5.49214 7
573 1 11.4028 -0.904361 -6.29682 14
574 1 10.9965 -2.86867 -4.07568 19
575 2 3.00573 -12.5965 -0.0520784 13
576 2 1.37865 -11.9918 -5.00777 14
577 2 2.94207 -10.9628 -7.81631 14
578 2 1.56125 -8.38785 -7.2899 23
579 2 1.52832 -6.28369 -9.71361 21
580 2 3.77018 -8.25811 -9.83294 14
581 2 2.25745 -11.2041 -2.18289 18
582 2 1.16888 -8.59657 -1.34142 21
583 2 1.40576 -6.61056 -4.16497 23
584 2 2.99769 -9.53021 -4.20839 22
585 2 2.84019 -5.55208 -12.3279 14
586 2 1.69804 -2.86646 -11.91 16
587 2 3.05009 -5.71831 -6.78367 21
588 2 1.35092 -2.86119 -6.6515 24
589 2 1.34299 -0.792104 -9.52816 24
590 2 3.21451 -3.60097 -9.23638 23
591 2 2.77478 -5.62999 -1.44238 25
592 2 1.13725 -2.85554 -1.37463 23
593 2 1.21316 -0.886837 -4.0029 25
594 2 2.99754 -3.76708 -3.92145 22
595 2 4.80385 -11.9009 -3.04127 14
596 2 4.64057 -8.61917 -7.35493 17
597 2 5.36608 -5.74169 -10.6982 14
598 2 6.00789 -11.3426 -0.0453617 18
599 2 4.65377 -8.47755 -1.4934 24
600 2 4.47492 -6.78066 -4.42661 24
601 2 5.79398 -9.39553 -4.98825 16
602 2 4.87718 -2.64205 -11.9775 14
603 2 6.50173 -5.77339 -6.89014 22
604 2 4.64839 -2.9493 -6.79255 23
605 2 4.55942 -0.704893 -9.22676 22
606 2 6.53973 -3.52564 -9.50023 19
607 2 5.98413 -5.75499 -1.52966 22
608 2 4.66475 -2.89161 -0.941371 21
609 2 4.45511 -0.945959 -3.70873 22
610 2 6.24894 -3.80387 -4.12658 23
611 2 8.1837 -8.34476 -6.27719 13
612 2 8.43683 -6.22357 -8.91923 11
613 2 7.88944 -8.51215 -0.689886 20
614 2 7.69017 -6.64751 -3.68246 22
615 2 7.85604 -10.1506 -3.25579 14
616 2 10.0446 -5.62207 -6.31003 15
617 2 7.90119 -2.68947 -6.89365 23
618 2 7.91173 -0.644459 -9.47611 17
619 2 9.61765 -3.77648 -9.03598 11
620 2 9.24619 -5.58081 -1.03019 22
621 2 7.86342 -2.8745 -1.32137 21
622 2 7.9164 -0.933089 -3.90809 22
623 2 9.41894 -3.73609 -3.49771 22
624 2 10.541 -8.65179 -1.14942 13
625 2 11.061 -6.60413 -3.77343 12
626 2 10.7351 -2.70206 -5.96076 16
627 2 12.3241 -5.57557 -0.760634 14
628 2 11.1888 -2.82998 -0.775048 21
629 2 11.1147 -0.833243 -4.03681 20
630 2 12.8526 -2.85557 -3.08654 11
631 1 1.28747 -12.5375 -0.910403 14
632 1 1.36977 -12.0802 4.53345 16
633 1 1.36226 -6.82366 -0.598812 25
634 1 2.87854 -9.7241 -0.912435 21
635 1 3.36231 -11.5285 1.71755 17
636 1 1.58834 -8.61197 1.82153 21
637 1 1.39625 -6.84566 4.63033 24
638 1 3.04846 -9.47772 4.78647 24
639 1 3.7046 -11.7626 6.94077 11
640 1 1.69622 -8.65998 7.38474 21
641 1 1.46717 -6.52598 10.0697 22
642 1 3.28203 -8.65657 10.5871 11
643 1 1.16739 -0.999626 -0.625398 24
644 1 2.93009 -3.85696 -0.693054 24
645 1 2.9054 -5.80884 2.04692 26
646 1 1.20358 -2.95715 2.02229 23
647 1 1.44155 -0.946988 4.63368 24
648 1 2.88432 -3.99057 4.51104 22
649 1 3.08631 -5.73027 7.06965 24
650 1 1.43227 -2.80747 7.32752 24
651 1 1.38019 -0.906331 9.72792 25
652 1 2.99396 -3.74526 9.87746 25
653 1 3.10159 -5.79684 12.6021 11
654 1 1.45358 -2.84373 12.62 15
655 1 4.68978 -12.0824 -1.16409 14
656 1 5.25405 -13.0897 4.18473 8
657 1 4.39264 -6.66615 -0.786802 24
658 1 6.11565 -9.47955 -0.574733 19
659 1 6.67382 -11.3056 1.77774 16
660 1 4.69233 -8.67194 2.06897 25
661 1 4.69205 -6.90945 4.74556 23
662 1 5.97845 -10.077 4.83221 17
663 1 4.93784 -8.53252 7.26481 18
664 1 4.77798 -6.45418 9.78367 17
665 1 4.60162 -0.931442 -0.709188 24
666 1 6.2625 -3.854 -0.724149 21
667 1 6.01476 -5.77779 1.83057 22
668 1 4.42044 -2.86962 1.79862 21
669 1 4.83555 -0.916156 4.56913 25
670 1 6.37117 -3.84131 4.41871 25
671 1 6.50756 -5.72033 7.1129 22
672 1 4.74223 -2.91745 6.8963 23
673 1 4.69391 -0.86101 9.48486 22
674 1 6.30639 -3.54796 9.5885 18
675 1 4.8257 -2.81069 12.475 12
676 1 7.70976 -6.70468 -1.39669 21
677 1 9.09507 -9.62443 -1.69766 13
678 1 8.18501 -8.46759 1.34466 21
679 1 7.88336 -6.62598 4.08578 22
680 1 9.2162 -10.1035 3.66169 12
681 1 8.37389 -8.57757 6.38749 13
682 1 8.05358 -6.74604 9.27873 12
683 1 7.77964 -1.08546 -0.736025 23
684 1 9.66554 -3.68162 -1.53252 21
685 1 9.39143 -5.76143 1.01039 23
686 1 7.76801 -3.0801 1.76685 21
687 1 7.93385 -0.901725 4.56921 24
688 1 9.92923 -3.67702 3.95341 21
689 1 9.96559 -5.86655 6.60221 14
690 1 8.21668 -2.89922 6.95028 23
691 1 7.88272 -0.988501 9.77089 16
692 1 9.80723 -3.83268 9.09514 12
693 1 10.906 -6.65373 -1.79723 18
694 1 11.0232 -8.49493 0.605913 14
695 1 10.49 -7.37648 3.49523 14
696 1 11.2208 -0.959622 -1.2808 20
697 1 12.9676 -3.82961 -1.49513 11
698 1 12.575 -5.48634 1.09729 13
699 1 11.1372 -2.60059 1.17914 20
700 1 11.2703 -0.711609 4.44676 20
701 1 12.9646 -2.30936 3.09209 12
702 1 11.4488 -2.74922 6.65996 12
703 2 1.78309 -11.9529 2.74235 17
704 2 1.91652 -12.1448 6.38258 11
705 2 4.99775 -11.9284 5.57525 12
706 2 1.62993 -8.60679 3.89833 21
707 2 1.34017 -6.69563 1.46391 23
708 2 3.26317 -9.50515 0.975698 24
709 2 1.68228 -8.56568 9.77864 14
710 2 1.36044 -6.76253 6.53662 23
711 2 3.34277 -9.65373 6.68886 20
712 2 1.46097 -6.14562 12.0773 15
713 2 3.11207 -5.9149 4.03851 24
714 2 1.40838 -2.72841 4.07777 23
715 2 1.31863 -1.06364 1.38466 24
716 2 2.77519 -3.88211 1.33174 24
717 2 2.90694 -5.57374 9.23653 24
718 2 1.31478 -2.6583 9.33744 23
719 2 1.40143 -0.984176 6.72478 23
720 2 3.09866 -3.83503 6.41842 26
721 2 1.42644 -0.937806 12.2077 18
722 2 3.0344 -3.68529 12.0783 18
723 2 5.01398 -12.0772 2.63071 15
724 2 7.51846 -10.8077 3.59384 15
725 2 4.5731 -8.77248 4.0382 24
726 2 4.43479 -6.9174 1.21988 22
727 2 6.44211 -9.24224 1.51143 19
728 2 4.58748 -8.42459 9.06198 15
729 2 4.72822 -6.62402 6.7363 23
730 2 6.61597 -9.16048 6.52819 18
731 2 4.21095 -6.84199 11.5274 11
732 2 6.22694 -5.91185 3.98452 21
733 2 4.5911 -2.90608 4.0336 24
734 2 4.69921 -0.845206 1.3764 23
735 2 5.93451 -3.91144 1.28287 23
736 2 6.4526 -5.61519 9.20151 19
737 2 4.25502 -2.74623 8.83557 22
738 2 4.81588 -0.932014 6.56817 24
739 2 6.42841 -3.85397 6.42098 22
740 2 4.51918 -0.972436 12.7887 12
741 2 6.03099 -2.05062 11.0368 13
742 2 9.1017 -8.29656 4.68839 14
743 2 8.04097 -6.54836 2.11959 22
744 2 9.76699 -9.11376 2.02655 15
745 2 8.33329 -6.80463 7.17678 17
746 2 9.67226 -5.64828 4.57697 18
747 2 8.02452 -2.70125 3.84128 21
748 2 7.78162 -1.09519 1.22862 22
749 2 9.6011 -3.63036 1.78595 20
750 2 9.53072 -5.57106 9.71168 9
751 2 8.03473 -2.99702 8.95605 17
752 2 7.93512 -1.09079 6.57156 23
753 2 10.0703 -3.88694 7.21104 13
754 2 8.00345 0.43911 11.5358 10
755 2 11.2629 -6.69706 1.68441 14
756 2 11.6814 -2.74827 4.73301 13
757 2 11.2167 -0.708675 1.16106 20
758 2 12.7415 -3.64606 1.72833 13
759 2 10.9375 -0.961125 6.48502 16
760 1 4.60058 1.16513 -13.2071 9
761 1 -0.326064 3.60623 -13.1428 10
762 1 1.24808 5.86698 -11.148 16
763 1 2.67458 2.27204 -11.5082 20
764 1 2.88616 0.188824 -8.70267 25
765 1 1.23021 3.09574 -8.60868 26
766 1 1.36526 4.86167 -6.02145 26
767 1 2.87613 2.00606 -6.04181 24
768 1 2.78853 0.304249 -3.47059 23
769 1 1.10188 3.05619 -3.53276 23
770 1 3.91816 7.96542 -10.9449 11
771 1 3.29151 5.77158 -8.73162 20
772 1 2.80801 10.7073 -8.98019 12
773 1 1.21443 10.337 -6.17491 19
774 1 3.3926 7.75134 -6.32094 21
775 1 3.04492 5.82661 -3.40608 25
776 1 1.48036 8.48619 -3.63925 25
777 1 2.93111 11.8363 -3.1619 19
778 1 4.41946 4.83673 -11.8587 14
779 1 6.09933 2.56825 -11.0509 17
780 1 6.18501 0.175582 -8.65255 26
781 1 4.25969 2.85818 -8.73569 23
782 1 4.65415 4.77156 -5.85189 23
783 1 6.177 1.98076 -6.19518 24
784 1 6.10969 0.12587 -3.40437 24
785 1 4.4922 2.81093 -3.24393 25
786 1 6.04511 5.62857 -8.69614 20
787 1 5.66561 8.6766 -8.8275 13
788 1 4.63083 10.5483 -6.06456 15
789 1 6.69305 7.88731 -6.17408 21
790 1 6.28707 5.66219 -3.4936 24
791 1 4.38238 8.80182 -3.34927 21
792 1 5.97034 11.8785 -3.50711 11
793 1 9.34 0.42223 -8.65419 14
794 1 7.9551 3.15763 -8.56331 19
795 1 7.81115 4.72698 -6.06203 25
796 1 9.67612 1.89184 -6.00391 22
797 1 9.50161 0.12169 -3.43492 24
798 1 7.70146 2.98297 -3.54305 25
799 1 9.23013 6.18198 -8.40174 10
800 1 9.65957 7.56381 -6.12756 12
801 1 9.37841 6.20296 -3.57679 18
802 1 7.63102 8.79053 -3.35933 18
803 1 11.3174 4.70091 -5.63137 13
804 1 13.1122 1.6127 -6.23976 9
805 1 13.2259 -1.08402 -4.01552 11
806 1 11.0428 2.77187 -3.74871 19
807 2 2.99583 0.36511 -12.2228 16
808 2 1.07598 2.74932 -12.3383 17
809 2 2.77968 0.0962297 -6.75752 24
810 2 1.08624 2.92597 -6.78388 24
811 2 1.58664 4.82482 -9.34218 20
812 2 2.78924 1.82145 -9.54093 23
813 2 2.83597 -0.209362 -1.41939 24
814 2 1.22481 2.87296 -1.43998 24
815 2 1.36008 4.93423 -4.21483 24
816 2 2.79789 2.2109 -4.15267 26
817 2 2.97509 6.36902 -11.7225 11
818 2 2.96884 5.78153 -6.8276 23
819 2 1.4419 8.4227 -6.5297 20
820 2 1.26782 10.2549 -9.99812 11
821 2 4.21271 9.51132 -9.95759 8
822 2 2.987 5.44608 -1.39168 23
823 2 1.52516 8.62222 -1.73261 26
824 2 1.77505 10.3496 -4.25062 20
825 2 3.25042 7.56303 -4.34361 24
826 2 2.90027 10.7726 -6.9935 14
827 2 2.99128 11.2679 -1.25968 23
828 2 1.77994 13.7293 -0.587077 14
829 2 4.61157 12.9766 -2.58805 10
830 2 5.93969 0.653902 -11.9019 13
831 2 4.33943 2.96123 -12.3422 13
832 2 6.28132 -0.0522877 -6.66506 22
833 2 4.45579 3.03802 -6.63136 26
834 2 4.4735 4.48568 -9.80033 21
835 2 6.04273 2.14677 -9.15471 21
836 2 6.17488 0.0895148 -1.40277 24
837 2 4.60196 2.68874 -1.20234 22
838 2 4.53909 4.60855 -3.88042 23
839 2 5.9053 1.89849 -4.29568 24
840 2 6.20146 5.43584 -6.81297 24
841 2 5.18787 8.80944 -6.77353 17
842 2 5.06283 7.11472 -9.51455 15
843 2 6.47512 5.56634 -1.3905 24
844 2 4.58278 8.49576 -1.3791 23
845 2 4.7887 10.5594 -4.17519 18
846 2 6.27808 7.53884 -4.23527 24
847 2 7.63584 11.0232 0.352133 13
848 2 9.64571 0.177392 -6.70564 22
849 2 8.01279 2.63216 -6.66489 20
850 2 7.95336 5.00361 -8.97584 13
851 2 8.54101 1.79937 -9.80614 12
852 2 9.46802 -0.10494 -1.49422 22
853 2 8.06839 2.89176 -1.5845 24
854 2 7.89137 4.87518 -4.11604 26
855 2 9.33667 1.97918 -4.00743 22
856 2 9.81594 5.5713 -6.61559 16
857 2 8.16359 7.56471 -7.47701 13
858 2 9.55129 5.79865 -1.68435 20
859 2 7.96126 8.5837 -1.26507 17
860 2 7.42875 10.8598 -2.96953 11
861 2 9.02921 7.95775 -4.35097 15
862 2 11.7172 2.64281 -5.58384 14