ITEM: TIMESTEP
183000
ITEM: NUMBER OF ATOMS
1000
ITEM: BOX BOUNDS pp pp pp
-30.0 30.0
-30.0 30.0
-30.0 30.0
ITEM: ATOMS id type x y z Coordination
1 1 -11.9449 -1.36148 -6.07562 14
2 1 -10.1186 -3.6972 -7.01419 16
3 1 -10.189 -5.41238 -5.06309 19
4 1 -12.0758 -3.00092 -3.72932 14
5 1 -9.20295 -7.15853 -7.91115 11
6 1 -7.19199 -9.32217 -6.36121 14
7 1 -7.8463 -10.8651 -3.39627 11
8 1 -9.84899 -8.20728 -4.79089 15
9 1 -8.73197 -0.760842 -11.7201 10
10 1 -6.89469 -3.76089 -11.4889 13
11 1 -7.09353 -5.24548 -8.34521 18
12 1 -8.76356 -2.9718 -9.59777 15
13 1 -8.7463 -1.10931 -6.25062 22
14 1 -7.0294 -3.27296 -6.20585 22
15 1 -7.20801 -5.71978 -4.58157 19
16 1 -8.6215 -3.03971 -3.77721 21
17 1 -3.79315 -5.70429 -10.5777 17
18 1 -5.95034 -8.38393 -9.05224 12
19 1 -5.3824 -6.99895 -6.34426 20
20 1 -3.97138 -9.71812 -6.75115 21
21 1 -2.93308 -11.5322 -4.15825 14
22 1 -5.49088 -8.82036 -3.39879 23
23 1 -5.49662 -0.951631 -11.6844 17
24 1 -3.5579 -3.29134 -12.7438 13
25 1 -3.10547 -7.4499 -8.29909 18
26 1 -5.25113 -2.97555 -9.00457 20
27 1 -5.28148 -0.913565 -6.15688 24
28 1 -3.89102 -4.16514 -6.07214 22
29 1 -4.05185 -5.81979 -3.4427 23
30 1 -5.34793 -2.7176 -3.41506 23
31 1 -1.84441 -12.7466 -7.37237 10
32 1 -1.63331 -5.78342 -13.4934 11
33 1 -1.7011 -10.9596 -9.36448 11
34 1 -1.27138 -7.66385 -10.8494 14
35 1 -2.04886 -6.59433 -5.70779 23
36 1 -0.907163 -9.48343 -6.35592 24
37 1 -0.160385 -11.7137 -4.59697 17
38 1 -2.22079 -9.02156 -3.37156 22
39 1 -1.82556 -0.916545 -11.2036 22
40 1 -1.59643 -4.12241 -10.7386 18
41 1 -0.488019 -5.86068 -8.30821 22
42 1 -2.29172 -2.64497 -8.26125 21
43 1 -1.99521 -1.1623 -5.89369 24
44 1 -0.65353 -3.97557 -5.98207 22
45 1 -0.463376 -6.09668 -3.30037 23
46 1 -2.28305 -2.9571 -3.28059 23
47 2 -13.721 -2.29236 -2.65308 11
48 2 -11.4367 -6.99386 -4.15142 12
49 2 -9.29722 -9.53859 -3.31135 15
50 2 -9.88191 -5.6763 -6.99611 16
51 2 -11.2828 -2.38042 -7.70569 11
52 2 -8.42909 -2.69368 -11.5548 8
53 2 -10.2739 -6.11322 -1.0646 17
54 2 -11.4673 -3.37799 -1.86574 21
55 2 -12.0284 -1.14095 -4.27732 19
56 2 -10.5205 -3.35071 -4.94405 20
57 2 -8.83363 -8.20426 -6.36426 16
58 2 -7.2951 -7.17568 -8.66212 11
59 2 -6.83893 -11.013 -1.89429 14
60 2 -8.7426 -8.75094 -0.671961 17
61 2 -8.98365 -6.38645 -4.03175 18
62 2 -6.627 -9.95948 -4.78923 13
63 2 -6.67604 -5.31956 -6.537 20
64 2 -8.35256 -2.78058 -7.44221 22
65 2 -9.03224 -0.793826 -9.72864 16
66 2 -6.84922 -4.0213 -9.72127 16
67 2 -6.84627 -5.96917 -1.35532 22
68 2 -8.44659 -2.92854 -1.7467 22
69 2 -8.4062 -1.19611 -4.35848 22
70 2 -6.82835 -3.71302 -4.20777 23
71 2 -3.58884 -12.3085 -2.61765 11
72 2 -3.14303 -11.1903 -7.73868 12
73 2 -5.58759 -8.79535 -7.18585 16
74 2 -4.30337 -7.6017 -9.66478 14
75 2 -1.90109 -5.89442 -9.98847 18
76 2 -4.13305 -11.8449 -0.200937 15
77 2 -5.17556 -8.64241 -1.51422 23
78 2 -5.52955 -6.98201 -4.28629 23
79 2 -3.90205 -9.85184 -4.32468 22
80 2 -3.13699 -5.10392 -12.2173 13
81 2 -5.27693 -2.96515 -12.0822 12
82 2 -3.79343 -6.07603 -6.69624 23
83 2 -5.24422 -2.96959 -6.90435 22
84 2 -5.3761 -0.806706 -9.29819 19
85 2 -3.54461 -3.62276 -9.59547 21
86 2 -3.64049 -5.9513 -1.36985 24
87 2 -5.02187 -2.95973 -1.35903 23
88 2 -5.23596 -0.924868 -4.27467 24
89 2 -3.89715 -4.07592 -3.91915 21
90 2 1.39764 -11.5674 2.4088 18
91 2 -1.89402 -12.4003 -5.54613 12
92 2 -0.427428 -11.8819 -8.37363 12
93 2 -2.18341 -8.22631 -6.92632 21
94 2 -0.575421 -7.04414 -12.4771 11
95 2 -1.13792 -9.17929 -9.55567 16
96 2 -0.832789 -12.0631 -0.637925 15
97 2 -2.02555 -8.9591 -1.30029 24
98 2 -2.22904 -7.06126 -3.77516 20
99 2 -0.677736 -9.67008 -4.4831 23
100 2 -0.00268624 -4.73247 -13.5278 11
101 2 -1.76265 -2.74 -12.212 19
102 2 -0.321005 -5.96087 -6.36901 21
103 2 -2.32853 -3.03475 -6.50317 21
104 2 -2.08398 -0.816889 -9.17101 22
105 2 -0.63042 -3.75737 -8.995 18
106 2 -0.308659 -5.86286 -1.15339 21
107 2 -1.98723 -3.20411 -1.33714 23
108 2 -1.99142 -1.11995 -3.78751 22
109 2 -0.747635 -4.28493 -4.00244 21
110 1 -14.1484 -2.84009 -0.947153 10
111 1 -11.682 -6.78683 -2.30375 15
112 1 -10.2031 -9.7075 -1.73573 14
113 1 -12.1786 -8.66916 0.300618 8
114 1 -11.4751 -1.45493 -0.800564 23
115 1 -9.95081 -4.30331 -1.38663 18
116 1 -10.0755 -6.23408 0.780766 18
117 1 -12.2657 -3.54432 2.04584 13
118 1 -12.0332 -1.17206 4.40553 17
119 1 -10.2491 -4.37405 3.5347 18
120 1 -9.99682 -5.69247 6.50131 12
121 1 -11.829 -3.08964 6.51104 11
122 1 -8.51139 -6.82427 -1.95199 23
123 1 -7.17742 -9.89039 -0.450404 18
124 1 -6.66322 -11.5918 2.47728 12
125 1 -8.69625 -8.67052 1.19407 16
126 1 -8.22058 -6.88205 3.91211 20
127 1 -6.63899 -9.85547 5.0148 15
128 1 -8.37244 -8.69877 7.13612 8
129 1 -8.38608 -1.07475 -1.00408 22
130 1 -6.87711 -3.87767 -0.87669 21
131 1 -7.03916 -5.47189 1.6912 21
132 1 -8.94049 -2.91419 1.78535 24
133 1 -8.97731 -0.986675 4.68166 25
134 1 -7.00283 -3.45959 4.49782 21
135 1 -6.80449 -5.47605 7.37374 21
136 1 -8.72497 -2.66901 7.42892 17
137 1 -8.45175 -0.743881 9.81231 13
138 1 -7.10647 -4.01533 10.1929 14
139 1 -5.36399 -12.1071 -1.59753 12
140 1 -5.13349 -13.1718 4.7001 8
141 1 -5.25714 -6.76711 -0.690014 21
142 1 -3.84796 -9.59788 -0.552953 24
143 1 -3.53551 -11.7367 1.71277 17
144 1 -5.39517 -8.68832 2.04915 23
145 1 -5.54907 -6.63747 4.71797 22
146 1 -3.52099 -9.11183 4.57269 22
147 1 -3.3472 -11.7466 7.04826 11
148 1 -4.84821 -8.66261 7.17144 17
149 1 -5.18458 -6.67419 9.70036 14
150 1 -3.33598 -9.72101 9.65153 10
151 1 -5.28157 -1.12638 -0.653219 25
152 1 -3.75344 -4.18315 -0.713575 23
153 1 -3.91749 -5.79846 2.05137 24
154 1 -5.13033 -2.74933 2.00907 24
155 1 -5.47255 -0.691193 4.35014 21
156 1 -3.77873 -3.69307 4.79214 24
157 1 -3.31714 -5.68676 6.84636 21
158 1 -5.25856 -2.67004 7.1288 23
159 1 -5.33332 -1.29867 10.2627 21
160 1 -3.71953 -3.71644 9.61624 19
161 1 -3.33207 -5.89795 12.197 11
162 1 -4.95669 -2.91188 12.7693 13
163 1 -2.53741 -12.7849 -1.03459 12
164 1 -1.73716 -12.6962 4.20453 13
165 1 -1.94851 -6.7327 -0.743544 24
166 1 -0.413371 -10.0532 -0.979681 19
167 1 -0.311827 -11.6062 1.4125 16
168 1 -2.01965 -8.69447 1.55256 21
169 1 -2.12959 -6.53279 4.42744 23
170 1 -0.457138 -9.54983 4.38291 22
171 1 0.0260728 -11.8507 6.71267 15
172 1 -1.73036 -8.71246 7.2075 21
173 1 -1.47642 -6.57326 9.86951 21
174 1 0.0109645 -9.59838 9.40062 11
175 1 -1.88772 -1.13742 -0.521756 26
176 1 -0.254343 -3.921 -0.776786 24
177 1 -0.294964 -5.77847 1.78562 23
178 1 -1.90985 -3.15029 1.97097 25
179 1 -1.98425 -0.987952 4.56867 24
180 1 -0.200734 -3.74628 4.51593 22
181 1 -0.393166 -5.51378 7.05451 19
182 1 -1.99796 -2.86614 7.30371 20
183 1 -2.06541 -0.850813 9.89702 21
184 1 -0.137042 -3.75634 10.0977 23
185 1 0.109138 -5.88081 12.7909 12
186 1 -1.59234 -2.97797 13.1991 13
187 2 -13.7426 -3.00073 0.801662 11
188 2 -10.7929 -8.06683 1.32533 11
189 2 -11.9068 -8.53478 -1.52698 11
190 2 -9.69232 -5.57917 4.63013 18
191 2 -11.8912 -3.20501 4.01367 17
192 2 -11.2453 -1.91688 1.33087 21
193 2 -10.5377 -4.54269 1.62206 16
194 2 -11.7712 -1.25723 6.53437 12
195 2 -10.23 -3.82745 6.88941 14
196 2 -6.49496 -11.6982 4.55292 10
197 2 -8.60141 -8.79189 4.86776 13
198 2 -8.34644 -6.83653 1.85638 19
199 2 -7.09081 -9.82849 1.53359 18
200 2 -8.43415 -6.74405 7.098 12
201 2 -6.66525 -9.0423 6.97025 14
202 2 -6.71233 -5.33258 3.71181 21
203 2 -8.67301 -2.78695 3.70571 24
204 2 -8.42927 -0.962459 0.966736 22
205 2 -6.87012 -3.66375 1.2903 22
206 2 -6.11656 -5.25472 9.19626 14
207 2 -8.29308 -2.70387 9.48337 13
208 2 -8.73846 -1.01254 6.61326 21
209 2 -7.06143 -3.66388 6.84543 23
210 2 -5.18959 -3.10228 10.7617 17
211 2 -5.04864 -12.6323 2.70733 11
212 2 -3.38854 -12.747 5.29202 12
213 2 -5.30873 -8.69581 4.39216 20
214 2 -5.31458 -6.8893 1.29955 24
215 2 -3.80535 -9.59444 1.56967 20
216 2 -4.49519 -8.40297 9.12971 14
217 2 -5.06777 -6.32905 6.57432 20
218 2 -3.30375 -9.82219 6.27811 21
219 2 -3.76538 -5.85613 4.05648 21
220 2 -5.18941 -2.71265 4.04486 23
221 2 -5.40222 -0.86992 1.27848 23
222 2 -3.57702 -3.95471 1.27048 26
223 2 -3.61221 -5.63733 10.2991 17
224 2 -4.35998 -1.67158 8.61904 16
225 2 -5.39177 -0.690733 6.32291 22
226 2 -3.62939 -3.80175 6.88866 22
227 2 -5.35182 -1.09842 12.6449 11
228 2 -3.22784 -3.92005 12.7279 13
229 2 -1.78613 -12.0435 2.49728 17
230 2 -2.34196 -11.1974 8.75118 11
231 2 -0.354904 -11.3568 4.74858 18
232 2 -1.93455 -8.57442 3.59746 20
233 2 -2.08727 -6.62816 1.35838 24
234 2 -0.427492 -9.53724 0.989833 23
235 2 -1.53378 -8.58781 9.50319 15
236 2 -2.00277 -6.94563 6.68064 21
237 2 0.20522 -9.92154 7.38211 17
238 2 -1.53949 -6.31322 11.9137 12
239 2 -0.258515 -5.77374 4.15503 20
240 2 -2.07966 -2.82377 3.95463 22
241 2 -2.04783 -1.22807 1.24445 25
242 2 -0.126363 -3.82371 1.21635 23
243 2 -0.00760972 -5.38437 8.9656 23
244 2 -2.06063 -2.85715 9.60006 22
245 2 -2.01737 -0.932816 6.66789 25
246 2 -0.290032 -3.63977 6.64653 23
247 2 -1.86883 -0.999981 12.9306 15
248 2 -0.0808445 -3.79939 12.3712 18
249 1 -13.5003 -0.515808 -3.05684 14
250 1 -10.6791 -0.505141 -8.59246 13
251 1 -11.9039 4.74915 -5.27787 14
252 1 -10.7582 1.83359 -6.35839 17
253 1 -10.5978 -0.226892 -3.74208 23
254 1 -12.2806 2.62772 -3.64326 16
255 1 -10.1982 7.8 -5.35338 12
256 1 -10.3527 5.81168 -3.26285 18
257 1 -6.9589 2.0572 -11.7157 12
258 1 -7.13871 -0.032927 -8.72981 21
259 1 -9.00424 2.85026 -8.76701 14
260 1 -8.76754 4.78984 -6.68686 20
261 1 -6.96737 1.82089 -6.03659 24
262 1 -6.92051 -0.124378 -3.60501 21
263 1 -8.69563 2.83731 -4.04853 23
264 1 -7.30736 5.81467 -9.53148 13
265 1 -7.09458 7.5687 -6.85993 18
266 1 -7.14313 5.59737 -4.10082 23
267 1 -7.68327 9.07235 -4.17003 16
268 1 -6.11744 11.8735 -3.46525 12
269 1 -4.88901 4.73701 -11.5532 13
270 1 -3.49287 2.06922 -11.7875 14
271 1 -3.67172 0.0725422 -8.87017 24
272 1 -5.54499 2.72168 -8.92659 21
273 1 -5.49474 4.49556 -6.45809 22
274 1 -3.69913 1.88822 -6.30817 24
275 1 -3.60916 -0.0613963 -3.27394 24
276 1 -5.01066 2.74924 -3.42378 23
277 1 -3.83605 8.11009 -11.7679 7
278 1 -3.99009 5.46732 -8.76382 24
279 1 -5.50511 9.03417 -8.95617 13
280 1 -5.11914 10.3808 -6.40657 18
281 1 -3.66571 7.28446 -6.46229 22
282 1 -3.66764 5.43862 -3.6023 21
283 1 -4.8686 8.24123 -3.84058 19
284 1 -2.81537 12.04 -4.46608 14
285 1 -1.34816 0.617167 -13.5131 11
286 1 -1.87797 5.83362 -11.0873 16
287 1 -0.112503 1.67886 -11.0865 22
288 1 -0.331987 -0.168914 -8.59379 22
289 1 -2.04695 2.74037 -8.75839 24
290 1 -2.10712 4.61858 -6.10739 23
291 1 -0.431255 1.89348 -5.92239 25
292 1 -0.405147 -0.0151562 -3.38356 24
293 1 -1.80346 2.65374 -3.24793 25
294 1 -2.356 8.49521 -9.04857 20
295 1 -0.300985 5.81407 -8.49407 23
296 1 -3.56334 11.9237 -8.32038 10
297 1 -1.48941 10.3452 -6.2339 18
298 1 -0.440588 7.6368 -5.97203 20
299 1 -0.581673 5.82946 -3.43294 22
300 1 -1.95824 8.55968 -3.44142 22
301 1 -0.114442 10.8326 -8.75718 12
302 1 -0.0749571 11.5909 -3.41985 17
303 2 -13.0559 -0.522075 -0.551139 17
304 2 -13.2599 1.27092 -2.679 16
305 2 -10.3757 -0.0693381 -6.11005 19
306 2 -11.9316 2.92685 -5.58884 13
307 2 -10.2456 1.44564 -8.26603 15
308 2 -10.2515 -0.271965 -1.74053 23
309 2 -11.5769 2.99318 -0.737433 19
310 2 -12.0266 4.63681 -3.27691 14
311 2 -10.5106 1.84196 -3.48812 22
312 2 -10.3288 5.75288 -5.91957 16
313 2 -10.2182 6.0471 -0.997314 17
314 2 -10.2936 7.83855 -3.34396 13
315 2 -6.9031 0.183347 -11.7334 12
316 2 -7.00726 -0.114155 -6.72597 22
317 2 -8.65441 2.97582 -6.02281 19
318 2 -8.60906 4.83577 -8.74163 13
319 2 -7.33099 2.25373 -9.74145 18
320 2 -6.79382 -0.14247 -1.64158 23
321 2 -8.36459 3.07848 -0.867951 20
322 2 -8.85119 4.63068 -3.20293 21
323 2 -6.81303 1.83671 -4.02899 22
324 2 -7.04135 5.67845 -6.39656 21
325 2 -8.46799 8.3293 -5.67663 14
326 2 -6.7676 7.67157 -8.82119 13
327 2 -6.63537 5.80901 -0.768359 21
328 2 -8.32567 8.27049 -0.84102 19
329 2 -6.43823 11.5355 -1.59084 12
330 2 -6.8916 7.34187 -3.59516 21
331 2 -4.48338 12.3909 -3.17357 12
332 2 -2.89095 0.27868 -12.2644 13
333 2 -5.28646 2.95768 -12.1067 12
334 2 -3.52351 -0.0233815 -6.68723 22
335 2 -5.45557 2.56773 -6.96789 24
336 2 -5.4884 4.65451 -9.47173 16
337 2 -3.72469 2.08548 -9.66003 22
338 2 -3.47095 -0.0842037 -1.30766 24
339 2 -5.00444 2.78163 -1.42248 23
340 2 -5.4192 4.66809 -4.19097 23
341 2 -3.44014 1.74808 -3.9483 24
342 2 -3.63535 6.13474 -11.8997 11
343 2 -3.69712 5.41713 -6.91452 21
344 2 -5.20846 8.44471 -6.76786 20
345 2 -4.03224 8.36923 -9.97085 14
346 2 -3.55844 5.65446 -1.47595 25
347 2 -5.02017 8.48869 -1.93659 21
348 2 -3.31087 11.7107 -6.25353 14
349 2 -3.3608 7.32715 -4.35841 19
350 2 -5.49877 11.0405 -8.19233 9
351 2 -2.92816 10.8966 -0.926124 21
352 2 -6.3077 10.4905 -4.63837 15
353 2 -0.0959082 -0.227391 -11.8757 16
354 2 -1.42014 2.40716 -12.4007 14
355 2 -0.600428 0.035933 -6.5961 21
356 2 -1.97988 2.75441 -6.73703 23
357 2 -2.06256 4.86468 -9.09908 20
358 2 -0.387109 1.75436 -9.23496 20
359 2 -0.152017 -0.0870689 -1.44717 25
360 2 -1.91994 2.68407 -1.11398 23
361 2 -1.96918 4.50588 -3.89716 22
362 2 -0.209399 1.87391 -4.00894 24
363 2 -0.675005 5.10682 -12.1475 13
364 2 -0.421229 5.65925 -6.533 21
365 2 -2.0174 8.30883 -6.88 23
366 2 -2.06132 10.5885 -8.56122 13
367 2 -1.01156 7.36354 -9.88107 19
368 2 -0.0942629 5.62728 -1.52892 24
369 2 -1.82676 8.28287 -1.45604 23
370 2 -1.33373 10.4715 -4.2358 19
371 2 -0.0359134 7.67093 -4.01026 23
372 2 0.279512 11.168 -6.92497 12
373 2 0.229943 11.4105 -1.22509 22
374 2 -2.55739 14.1962 -0.696996 12
375 2 -1.58479 13.0891 -3.16184 12
376 1 -13.259 1.52597 -0.680478 14
377 1 -12.9076 -0.74687 1.31607 15
378 1 -13.6773 1.46677 3.06306 10
379 1 -12.0375 4.72495 -1.33967 16
380 1 -10.1545 1.83849 -1.45177 22
381 1 -9.96039 -0.250684 1.73414 21
382 1 -11.2927 2.79308 1.36927 19
383 1 -11.7676 4.71259 3.8366 13
384 1 -10.314 1.87906 3.73691 22
385 1 -10.6732 0.209894 6.96132 15
386 1 -12.1697 2.93051 6.51054 11
387 1 -10.3766 2.03235 9.16156 10
388 1 -10.0734 8.07104 -1.55121 13
389 1 -10.4253 6.14147 1.1844 18
390 1 -10.2627 7.99256 3.91732 13
391 1 -10.3351 6.02529 6.24187 15
392 1 -8.37687 4.9126 -1.32537 21
393 1 -6.97228 1.66134 -1.03599 21
394 1 -6.82767 0.082882 1.9367 24
395 1 -8.48962 3.01112 1.26328 22
396 1 -8.76072 4.9017 3.66205 23
397 1 -7.11152 2.04932 4.43158 23
398 1 -7.05383 0.290111 6.90052 21
399 1 -9.08959 3.10262 6.4389 19
400 1 -8.50037 4.66126 9.22179 14
401 1 -7.12386 2.14155 10.2582 18
402 1 -6.63714 0.274869 12.55 12
403 1 -6.87207 11.1937 0.224296 14
404 1 -6.71344 7.52023 -1.44765 20
405 1 -6.78899 5.73771 1.33898 23
406 1 -8.40828 8.76069 1.22777 18
407 1 -8.35596 10.8777 3.44929 12
408 1 -6.82028 7.47706 3.84906 23
409 1 -7.11004 5.76195 6.75331 21
410 1 -8.38918 8.5237 6.53999 14
411 1 -6.63634 7.43633 9.46502 11
412 1 -4.70728 12.1285 3.35663 14
413 1 -5.32801 4.50524 -0.754826 22
414 1 -3.55271 1.80481 -0.540328 25
415 1 -3.6038 -0.196424 1.6296 23
416 1 -4.88766 2.65426 1.9507 22
417 1 -5.11822 4.5799 4.42347 22
418 1 -3.56367 1.77121 4.54457 23
419 1 -3.76277 -0.195067 7.44562 22
420 1 -5.48057 2.79291 7.05263 20
421 1 -5.21657 4.38053 9.93682 19
422 1 -3.80948 1.90576 10.3656 23
423 1 -3.54947 0.0167211 12.7875 16
424 1 -5.15493 3.12904 12.8443 12
425 1 -4.89383 10.2593 -1.20556 18
426 1 -3.51014 7.54515 -0.88385 25
427 1 -3.44465 5.98412 2.06377 23
428 1 -5.20901 8.67444 1.88625 25
429 1 -5.68603 10.1677 5.05338 16
430 1 -3.3542 7.59706 4.50821 21
431 1 -3.77723 5.96006 7.22396 22
432 1 -5.00797 8.73907 7.74543 16
433 1 -3.14631 7.78418 10.2476 16
434 1 -3.3205 5.75556 12.5448 11
435 1 -3.52924 12.936 -1.6905 13
436 1 -3.38946 10.9619 0.972358 20
437 1 -3.43491 11.4568 6.62901 12
438 1 -1.77752 4.65875 -0.798088 22
439 1 -0.150342 1.68322 -0.449235 25
440 1 -0.359036 -0.136926 1.95573 25
441 1 -1.83309 2.95141 1.80737 23
442 1 -2.04422 4.5734 4.91327 24
443 1 -0.327448 1.82752 4.63991 23
444 1 -0.38043 -0.0322971 7.33938 23
445 1 -2.12771 2.61125 7.07216 22
446 1 -2.19471 4.76644 9.96144 23
447 1 -0.445865 1.81368 10.2651 23
448 1 -0.243301 -0.237907 12.5923 17
449 1 -2.0733 2.51409 13.1059 16
450 1 -1.17019 10.0863 -0.562857 22
451 1 -0.25303 7.48703 -0.738407 23
452 1 -0.365879 5.42773 2.15525 24
453 1 -1.75941 8.34708 1.9489 24
454 1 -2.25333 10.4232 3.85059 20
455 1 -0.127735 7.57145 4.6027 25
456 1 -0.546172 6.00436 7.43726 23
457 1 -1.68696 8.92501 7.03011 21
458 1 -0.491681 7.83461 9.56672 14
459 1 -0.465322 5.73518 12.3789 12
460 1 -1.24126 14.4653 -1.94965 11
461 1 -2.27895 13.9917 1.236 12
462 1 -0.230814 11.3798 2.17603 20
463 1 -0.00354063 11.7371 5.86048 12
464 2 -13.1497 -0.233814 3.23617 14
465 2 -13.1712 1.4886 1.17411 15
466 2 -10.4513 -0.103097 3.99434 22
467 2 -12.1424 2.57484 3.84302 15
468 2 -11.2282 4.63124 1.83821 16
469 2 -9.74041 1.77004 1.89823 20
470 2 -9.72486 0.339646 8.71011 14
471 2 -11.6547 4.64216 5.96081 12
472 2 -10.7183 2.10483 7.16017 16
473 2 -10.405 6.0792 4.0488 16
474 2 -9.84109 7.85555 2.06078 17
475 2 -10.1186 7.91271 5.89333 12
476 2 -7.38283 0.154769 4.01429 21
477 2 -8.89732 2.97324 4.5181 24
478 2 -8.31561 4.82254 1.76821 21
479 2 -6.70001 2.16882 1.1954 20
480 2 -7.00661 0.0700994 10.6099 15
481 2 -8.9714 2.85378 9.92556 13
482 2 -8.94468 4.84331 7.28523 19
483 2 -7.17098 2.32054 6.63271 21
484 2 -6.45975 2.06214 12.0459 15
485 2 -6.944 5.74712 4.74197 22
486 2 -7.81587 8.9786 4.77723 18
487 2 -8.08854 10.6615 1.48911 11
488 2 -6.99052 7.62218 1.90242 22
489 2 -6.8398 5.3488 9.80971 15
490 2 -6.95268 7.65467 7.58096 18
491 2 -6.44323 11.403 3.63443 13
492 2 -3.62406 -0.198842 3.76559 24
493 2 -5.33897 2.62908 3.86699 20
494 2 -5.15435 4.86922 1.57361 22
495 2 -3.35782 1.65093 1.33921 22
496 2 -3.38449 -0.0241349 10.7249 23
497 2 -5.3024 2.42941 9.16607 22
498 2 -5.1556 4.68078 6.53264 22
499 2 -3.71283 1.71355 6.42902 24
500 2 -4.45384 4.36719 11.5306 16
501 2 -3.87921 1.85025 13.0986 14
502 2 -3.4647 5.66074 3.90716 24
503 2 -5.10748 8.339 3.8138 22
504 2 -5.25207 10.2698 0.757319 19
505 2 -3.68531 7.73567 1.11096 25
506 2 -3.75397 5.68114 9.21738 21
507 2 -4.97851 8.11376 9.62576 12
508 2 -5.21224 10.4803 6.89196 14
509 2 -3.45183 7.91193 6.60274 24
510 2 -3.79077 11.161 4.6426 17
511 2 -3.44756 12.6425 1.99728 14
512 2 -0.455885 -0.0545299 3.92425 24
513 2 -1.97702 2.99091 3.90115 23
514 2 -2.0822 4.75385 1.17891 26
515 2 -0.350864 1.72595 1.58803 24
516 2 -0.433144 -0.0516293 9.28092 23
517 2 -2.13984 2.7029 9.7537 21
518 2 -2.08754 4.62845 6.99709 20
519 2 -0.331975 1.93971 6.671 24
520 2 -1.99022 4.32551 13.0774 12
521 2 -0.462525 1.64121 12.4437 19
522 2 -0.442372 5.51928 4.29119 25
523 2 -1.66244 8.60076 3.88367 22
524 2 -1.65161 10.1764 1.57728 21
525 2 -0.354658 7.33455 1.30238 23
526 2 -0.484601 5.66803 9.41945 20
527 2 -2.07811 8.60161 8.94841 16
528 2 -1.34591 10.7318 6.66616 15
529 2 -0.0508016 7.99021 6.58691 23
530 2 -2.03394 6.77609 11.6469 12
531 2 -0.478421 11.0448 4.12071 20
532 2 -0.507287 13.3581 1.70486 15
533 1 1.43378 -11.7055 -7.84988 12
534 1 1.18948 -6.28574 -12.7343 11
535 1 0.636592 -8.7785 -8.76648 18
536 1 1.21607 -6.92979 -6.41926 21
537 1 2.50855 -9.58281 -5.98015 19
538 1 2.73605 -11.6227 -3.99554 14
539 1 1.17834 -8.87479 -3.65479 22
540 1 -0.21123 -2.96489 -13.2319 13
541 1 1.62474 -0.802931 -11.6251 19
542 1 2.84073 -3.79946 -11.7183 15
543 1 2.61743 -5.66746 -9.0714 21
544 1 1.09109 -2.90871 -8.8107 21
545 1 1.19867 -1.10722 -6.01707 22
546 1 2.85325 -3.7041 -5.99712 23
547 1 2.90959 -5.97763 -3.44999 24
548 1 1.03463 -2.96919 -3.54987 21
549 1 4.53443 -6.74251 -11.4276 10
550 1 3.60966 -8.89527 -8.85821 15
551 1 4.19066 -6.68994 -6.53243 21
552 1 5.77111 -9.51916 -6.36553 14
553 1 6.24134 -11.7535 -3.0878 11
554 1 4.6332 -8.81672 -3.33397 24
555 1 4.47136 -0.982256 -11.6244 16
556 1 6.15019 -4.30094 -11.5098 12
557 1 5.75914 -6.8472 -8.85941 16
558 1 4.26237 -2.89623 -9.19208 18
559 1 4.37604 -0.895512 -6.23117 25
560 1 6.25856 -3.95001 -6.4777 18
561 1 6.07576 -5.8057 -3.67015 21
562 1 4.61582 -2.93498 -3.92067 21
563 1 8.6767 -7.93533 -7.09329 13
564 1 7.92015 -8.5691 -4.01434 17
565 1 7.76755 -1.65523 -11.2089 13
566 1 8.19211 -5.36569 -10.0428 11
567 1 8.65682 -3.01558 -8.54298 14
568 1 7.51528 -0.774306 -6.15358 22
569 1 10.4189 -5.3302 -7.07758 14
570 1 9.24523 -5.68284 -4.23104 18
571 1 7.66351 -3.18534 -3.79219 20
572 1 11.4121 -7.87845 -4.91527 11
573 1 11.4673 -2.16528 -7.0081 13
574 1 11.5638 -4.06675 -4.11009 17
575 2 2.497 -12.032 -0.625067 16
576 2 1.50385 -11.4125 -5.85219 15
577 2 2.20763 -10.2206 -8.81145 11
578 2 0.785237 -8.83426 -6.64124 22
579 2 1.15072 -7.00346 -8.95118 19
580 2 3.89626 -7.36006 -9.7963 15
581 2 1.07919 -11.9946 -3.10755 15
582 2 1.06434 -8.90923 -1.49501 23
583 2 1.24075 -7.01652 -3.85547 21
584 2 3.01098 -9.59556 -4.01929 20
585 2 2.94825 -5.64028 -12.1739 13
586 2 1.52885 -2.53817 -12.5495 16
587 2 2.67391 -5.45563 -6.97517 23
588 2 1.02691 -2.86494 -6.82343 23
589 2 1.32493 -1.08261 -9.51734 22
590 2 2.48575 -3.70535 -9.74178 20
591 2 2.94969 -5.89952 -1.38155 22
592 2 1.2545 -2.85842 -1.57587 23
593 2 1.09939 -1.12461 -4.12754 24
594 2 2.85239 -3.79164 -3.99622 21
595 2 4.43521 -12.2371 -2.9442 13
596 2 4.14554 -8.67824 -6.72522 18
597 2 6.45275 -5.96585 -10.7615 11
598 2 6.20737 -11.5549 -0.957977 14
599 2 4.38959 -8.69952 -1.59254 22
600 2 4.57845 -6.74725 -4.25466 23
601 2 6.2926 -9.70347 -3.56422 17
602 2 4.70652 -3.03203 -11.2501 15
603 2 5.48694 -5.47607 -7.43968 18
604 2 4.44614 -2.8579 -7.04102 23
605 2 4.43342 -1.04833 -9.2702 20
606 2 8.04592 -3.53902 -10.633 11
607 2 6.13287 -5.54905 -1.66845 22
608 2 4.67625 -2.8967 -1.54014 24
609 2 4.58879 -0.868898 -4.20694 24
610 2 6.01182 -4.10871 -4.64915 23
611 2 7.53506 -8.97292 -5.90877 10
612 2 7.31683 -7.63669 -8.44311 13
613 2 8.39258 -8.52678 -1.28753 18
614 2 7.81843 -6.59902 -3.52145 20
615 2 10.0574 -8.89932 -3.97217 13
616 2 9.75432 -6.6469 -5.92131 14
617 2 7.59314 -2.55151 -6.91765 19
618 2 8.16732 -0.636913 -9.47338 15
619 2 9.24421 -4.91929 -8.53711 15
620 2 9.74529 -5.5486 -1.06314 25
621 2 8.04763 -2.85362 -1.5742 21
622 2 7.79804 -1.11862 -4.22954 20
623 2 9.59317 -3.81304 -3.64702 18
624 2 11.0821 -8.13349 -1.17349 14
625 2 11.3333 -6.15997 -3.74188 16
626 2 11.1344 -3.80859 -5.96081 14
627 2 12.6689 -5.15933 -0.627304 15
628 2 11.4765 -2.33002 -0.964574 20
629 2 11.439 0.0773168 -3.65858 17
630 2 12.8253 -2.7474 -3.45697 13
631 1 0.805303 -12.5412 -1.36272 14
632 1 1.45472 -12.269 4.19207 15
633 1 1.39581 -7.05913 -0.759195 22
634 1 2.9023 -9.72458 -1.01131 22
635 1 2.8057 -11.7147 1.26196 16
636 1 1.21132 -8.81225 1.88541 21
637 1 1.45469 -6.60455 4.5344 21
638 1 2.82689 -9.52561 4.44141 24
639 1 3.4463 -11.7882 6.38261 11
640 1 1.52545 -8.51169 7.30724 23
641 1 1.4507 -6.48791 9.85654 23
642 1 3.31321 -8.75145 10.4616 12
643 1 1.3539 -1.04682 -0.669167 25
644 1 3.04069 -3.85648 -1.05122 22
645 1 3.22336 -5.84798 1.7517 23
646 1 1.51033 -2.85361 1.96789 23
647 1 1.43556 -0.736926 4.67744 23
648 1 3.04733 -4.03044 4.64946 22
649 1 3.05502 -5.84738 7.28642 23
650 1 1.38934 -2.75037 7.36468 24
651 1 1.43465 -0.769343 9.90128 22
652 1 3.1251 -3.76195 9.79368 24
653 1 3.41353 -5.88528 12.4706 11
654 1 1.54551 -2.85238 12.562 16
655 1 4.39203 -12.7076 -1.10311 13
656 1 4.9729 -12.2238 3.50202 13
657 1 4.53809 -6.78141 -1.0243 21
658 1 6.45958 -9.35491 -1.36011 20
659 1 6.56105 -11.5353 1.0974 12
660 1 4.94104 -8.81147 1.62773 23
661 1 4.91561 -6.91755 4.25557 21
662 1 6.54867 -9.17947 3.93782 18
663 1 4.72291 -8.79423 7.0753 17
664 1 4.73328 -6.5882 9.6277 19
665 1 4.55721 -1.03573 -0.836458 21
666 1 6.31545 -3.78852 -0.825679 22
667 1 6.4232 -5.55574 1.7205 22
668 1 4.68289 -2.89155 1.85964 25
669 1 4.76348 -0.961024 4.6165 26
670 1 6.18996 -4.17207 4.21051 20
671 1 6.14378 -5.76008 7.22458 21
672 1 4.70941 -2.80593 7.03023 22
673 1 4.46554 -0.818184 9.78148 23
674 1 6.41016 -3.59774 9.4063 18
675 1 4.42054 -2.45733 12.786 11
676 1 7.91218 -6.35823 -1.65285 21
677 1 9.76513 -9.27091 -2.104 14
678 1 8.40453 -8.43264 0.833592 20
679 1 8.30866 -6.69895 3.70164 21
680 1 10.0678 -9.56314 3.78246 12
681 1 7.94696 -8.7351 6.44141 13
682 1 7.98668 -6.70558 9.3314 11
683 1 7.81545 -0.944679 -0.800112 23
684 1 9.85313 -3.57357 -1.72048 21
685 1 9.60169 -5.50897 0.865129 24
686 1 8.03907 -2.88408 1.91605 23
687 1 8.0709 -0.772964 4.29955 21
688 1 9.71459 -3.68456 3.90445 21
689 1 9.68809 -5.47334 6.73353 16
690 1 7.87242 -2.76909 6.32148 24
691 1 7.90451 -1.15469 9.57201 16
692 1 10.0215 -3.75083 9.29081 9
693 1 11.683 -6.43628 -1.73383 18
694 1 11.4034 -8.27588 0.613554 15
695 1 11.1377 -6.38611 3.41619 16
696 1 11.6097 -0.320772 -1.4621 20
697 1 12.9917 -3.30308 -1.46989 13
698 1 12.9427 -5.40229 1.26095 12
699 1 11.1513 -2.57721 1.07132 21
700 1 11.1586 -0.420528 4.2274 17
701 1 13.0264 -2.4533 3.38301 12
702 1 11.5025 -2.5315 6.40504 10
703 2 3.32764 -11.6699 4.39077 14
704 2 1.8321 -12.4774 6.29784 8
705 2 6.56103 -11.3245 3.14156 11
706 2 1.0582 -8.5224 3.97445 22
707 2 1.47972 -6.8521 1.63519 19
708 2 3.23733 -9.53321 0.908277 22
709 2 1.62544 -8.56043 9.50241 17
710 2 1.36249 -6.50453 6.57309 22
711 2 3.11736 -9.83793 6.63993 17
712 2 1.6352 -6.19853 11.8952 16
713 2 3.42776 -5.57062 3.68471 21
714 2 1.37684 -2.91377 4.00566 25
715 2 1.32811 -1.0073 1.59655 22
716 2 3.12712 -3.99208 0.956096 25
717 2 3.20271 -5.72855 9.35873 22
718 2 1.53087 -2.6274 9.37784 22
719 2 1.30496 -0.743557 6.50749 23
720 2 2.94384 -3.81735 6.594 23
721 2 1.54259 -0.865865 11.7873 21
722 2 3.49347 -3.92216 11.9086 18
723 2 4.80693 -12.3236 1.50561 12
724 2 10.0517 -8.95327 1.90724 13
725 2 4.55327 -8.78589 3.63749 21
726 2 4.93296 -6.73408 1.28546 21
727 2 6.68243 -9.47465 0.634908 16
728 2 4.62615 -8.34553 8.93247 16
729 2 4.57385 -6.73874 6.53121 24
730 2 6.27663 -9.67667 6.06054 15
731 2 3.9216 -7.29664 11.4882 11
732 2 6.49359 -5.84033 3.72792 23
733 2 4.67795 -3.11898 3.81147 24
734 2 4.62715 -1.19148 1.22057 23
735 2 6.38848 -3.7637 1.42132 22
736 2 6.28492 -5.5939 9.25587 16
737 2 4.64527 -2.73856 9.12573 22
738 2 4.56958 -0.632707 6.60021 23
739 2 6.19942 -3.94133 6.58113 22
740 2 2.99735 -1.76108 13.6572 9
741 2 5.06665 -0.860455 11.5022 19
742 2 8.341 -8.76716 4.49655 16
743 2 8.41771 -6.65772 1.79499 23
744 2 11.0883 -7.99871 4.36259 11
745 2 7.8335 -6.80797 7.1546 17
746 2 9.53064 -5.62679 4.68855 19
747 2 7.86357 -2.81881 4.17986 22
748 2 7.80025 -0.994599 1.09445 22
749 2 9.71825 -3.79477 1.78059 22
750 2 9.3608 -5.46334 8.55545 11
751 2 8.29575 -2.93163 9.58057 14
752 2 7.70574 -0.794042 6.2964 21
753 2 9.64303 -3.47096 6.6617 16
754 2 8.1248 0.276423 11.4058 10
755 2 11.5751 -6.66241 1.56808 17
756 2 11.3647 -2.93751 4.28458 17
757 2 10.9951 -0.625396 1.35321 21
758 2 12.7695 -3.75925 2.01397 14
759 2 11.1721 -0.77012 6.01107 16
760 1 6.12369 1.57585 -11.2946 15
761 1 -0.105375 3.62412 -13.2723 8
762 1 1.14158 5.33383 -11.3681 15
763 1 2.96094 2.24242 -11.4541 17
764 1 2.89994 0.0342887 -8.86114 22
765 1 1.40904 3.01989 -8.54706 23
766 1 1.36958 4.95592 -5.93321 24
767 1 2.87672 2.25588 -5.67731 24
768 1 2.72509 -0.132068 -3.27746 23
769 1 1.24013 2.99641 -3.1433 24
770 1 0.791868 7.99732 -10.1498 15
771 1 3.19947 5.42611 -8.95565 22
772 1 3.60721 9.49856 -8.46117 11
773 1 1.18273 10.1356 -5.79133 18
774 1 2.66622 7.40938 -6.02046 21
775 1 2.8895 5.85141 -3.29726 23
776 1 1.25302 8.91944 -3.29401 23
777 1 3.42018 11.6334 -3.57958 12
778 1 3.63675 7.83993 -11.5404 10
779 1 5.51762 4.80393 -11.4765 11
780 1 6.30785 -0.188756 -8.87257 20
781 1 5.01385 2.93683 -8.62647 23
782 1 4.39862 4.6325 -6.12088 22
783 1 6.14944 1.9225 -6.12301 24
784 1 6.14933 0.090842 -3.29895 24
785 1 4.73991 3.03154 -3.34869 24
786 1 6.73665 5.6837 -8.75487 18
787 1 6.16132 8.19044 -10.2053 10
788 1 5.70579 7.75388 -6.1856 19
789 1 8.34413 8.68352 -7.79775 13
790 1 6.13232 5.68531 -3.37088 22
791 1 4.4058 8.71185 -3.35859 22
792 1 6.50923 10.5991 -4.87007 11
793 1 9.77786 -0.286789 -8.68377 14
794 1 8.12621 2.95823 -8.6557 16
795 1 7.50873 4.72888 -6.00871 21
796 1 9.71578 2.28742 -5.92856 19
797 1 9.51746 -0.0641733 -3.29032 22
798 1 7.8692 2.85319 -3.46846 20
799 1 9.81875 5.83439 -7.95408 11
800 1 10.867 7.72255 -5.7668 10
801 1 9.62337 5.71771 -3.53639 19
802 1 7.9404 8.40327 -4.16971 19
803 1 12.0 4.51546 -5.34923 12
804 1 12.1652 0.916874 -6.45547 11
805 1 12.8383 -1.14746 -4.32126 13
806 1 11.4121 2.17063 -3.55656 18
807 2 3.11873 0.398949 -12.0429 15
808 2 1.29216 2.97134 -12.109 15
809 2 2.76641 0.447723 -6.75937 22
810 2 1.2558 2.9576 -6.59876 22
811 2 1.17033 4.83514 -9.24701 21
812 2 3.13702 2.12092 -9.21083 21
813 2 2.90918 0.024743 -1.26818 22
814 2 1.23436 2.65379 -1.02277 22
815 2 1.48533 4.75783 -3.92751 23
816 2 2.79368 1.8303 -3.7239 20
817 2 1.90759 7.18755 -11.3216 11
818 2 2.9253 5.48426 -6.95031 21
819 2 1.26421 8.32155 -6.72986 19
820 2 1.23099 9.63304 -9.45888 12
821 2 4.45236 8.94685 -10.0888 10
822 2 3.06373 5.83298 -1.29137 24
823 2 1.30083 8.43181 -1.30047 20
824 2 1.76684 10.9184 -4.13235 16
825 2 2.73253 7.7141 -4.054 22
826 2 4.23833 8.50678 -6.95024 18
827 2 3.51048 12.0439 -1.65305 13
828 2 0.595603 14.3663 -1.00982 11
829 2 4.66866 10.4634 -4.47301 17
830 2 4.92206 3.05605 -11.848 11
831 2 5.0178 4.79113 -9.24163 19
832 2 5.97388 0.146737 -6.86761 20
833 2 4.62119 2.80582 -6.60694 23
834 2 6.6416 2.00194 -9.57377 18
835 2 6.21071 -0.389859 -11.4937 13
836 2 6.41276 0.204293 -1.29581 22
837 2 4.99025 3.12272 -1.43074 22
838 2 4.42101 4.79213 -4.27358 24
839 2 6.19778 1.79638 -4.09431 25
840 2 5.99933 5.85618 -6.74149 21
841 2 7.40978 7.67875 -8.90947 13
842 2 5.23291 6.61104 -10.9372 10
843 2 6.38803 5.97307 -1.28182 23
844 2 4.66527 8.86908 -1.39228 22
845 2 7.63643 9.37236 -6.09448 13
846 2 5.99264 7.60413 -3.93644 20
847 2 6.61687 11.4524 -0.0916277 13
848 2 10.2913 -2.06882 -8.45737 13
849 2 7.79599 3.02238 -6.71105 19
850 2 8.46385 4.8658 -8.54276 14
851 2 10.0735 0.871472 -7.14022 13
852 2 9.43607 0.169831 -1.29101 22
853 2 8.03697 3.14791 -1.45875 23
854 2 7.94007 4.75589 -4.14906 21
855 2 9.41381 1.88813 -3.90463 23
856 2 10.9531 5.47323 -6.42691 12
857 2 9.75791 7.5898 -7.2246 11
858 2 9.41167 5.9812 -1.42948 20
859 2 8.3104 8.71282 -0.716167 17
860 2 7.57092 10.2849 -3.17114 13
861 2 9.69765 7.5182 -4.2292 16
862 2 11.9579 2.57743 -5.48431 11