ITEM: TIMESTEP
21000
ITEM: NUMBER OF ATOMS
2000
ITEM: BOX BOUNDS pp pp pp
-30.0 30.0
-30.0 30.0
-30.0 30.0
ITEM: ATOMS id type x y z Coordination
1 1 -8.36588 6.49753 -11.3849 17
2 1 -6.1186 -11.1514 -7.64565 18
3 1 3.11031 13.448 10.9613 19
4 1 4.87189 -9.83462 6.26055 18
5 1 -13.6198 10.9111 1.3631 15
6 1 7.67271 -7.52231 -9.91141 18
7 1 -14.7903 3.55841 -2.80055 15
8 1 -1.14377 -6.09804 12.6869 8
9 1 -11.8499 2.03621 -8.77805 22
10 1 -15.5163 -7.06263 8.09927 18
11 1 11.6873 2.18524 -5.66905 18
12 1 -5.35698 3.55607 -3.74966 22
13 1 -3.75816 -13.4741 2.1837 16
14 1 -15.5039 -6.76012 5.30035 16
15 1 0.402787 7.33744 20.148 11
16 1 6.64448 -4.26998 4.6948 19
17 1 -0.367826 4.40936 12.4491 20
18 1 3.72945 0.409845 5.33707 21
19 1 -6.03647 13.5102 -8.6785 11
20 1 1.67298 -0.825468 14.2689 20
21 1 -9.32932 1.46949 -13.8004 11
22 1 -15.4375 -1.45626 14.3877 14
23 1 10.5445 8.66049 12.813 21
24 1 -1.76148 11.6283 -11.1815 18
25 1 1.18662 4.42719 -9.44565 21
26 1 12.6164 3.63113 11.103 16
27 1 -7.72914 1.94786 1.12393 18
28 1 -16.5804 5.934 -1.21974 15
29 1 -5.02578 1.04323 -5.64287 21
30 1 -12.5536 11.4086 11.2793 13
31 1 5.16934 -12.3889 7.06649 12
32 1 -1.73889 0.350712 9.17119 22
33 1 2.07982 -9.6909 -10.413 16
34 1 7.5724 -10.2283 2.66415 15
35 1 -7.22418 -13.121 -5.24519 13
36 1 -16.089 -4.2698 13.0703 14
37 1 3.98105 0.294726 -4.17973 18
38 1 1.31451 -6.5935 -10.7891 23
39 1 8.55945 -7.25613 -12.9954 10
40 1 -0.538897 6.08932 -14.1736 18
41 1 -1.34129 4.17341 19.3644 8
42 1 -3.50207 -11.5883 8.14216 15
43 1 6.80513 -3.09345 12.265 14
44 1 -12.6126 0.0696545 5.13186 20
45 1 -18.207 0.745493 10.0489 15
46 1 -13.3242 1.62195 2.20288 20
47 1 -7.67975 13.8959 -0.445233 21
48 1 -1.15884 -10.495 -10.5077 16
49 1 3.01941 1.98745 -8.9285 19
50 1 5.08268 -4.34863 -8.94912 20
51 1 -4.23587 0.380298 13.052 20
52 1 -14.872 8.143 1.27111 20
53 1 2.25156 13.0758 -12.1823 8
54 1 0.128965 13.3212 8.35664 16
55 1 -11.985 8.26385 -6.89732 16
56 1 -2.72054 14.6348 3.46752 20
57 1 -0.341498 -12.9507 5.74961 20
58 1 5.97991 -2.61928 -3.50801 24
59 1 5.28169 -2.97781 -16.5671 9
60 1 -10.1231 9.29109 11.83 18
61 1 -14.5013 -2.9969 -6.04885 17
62 1 4.23329 5.95893 5.69019 21
63 1 -9.51136 7.69057 -3.22329 20
64 1 -10.8822 -9.00723 9.85889 18
65 1 -2.44066 13.4109 9.59354 21
66 1 -12.2729 8.30743 -3.75755 17
67 1 -8.67254 10.7356 14.2645 10
68 1 -0.194911 8.68734 -3.05258 21
69 1 1.5802 7.19329 6.21859 19
70 1 -7.15599 -13.8194 10.4293 12
71 1 1.94774 8.20463 9.7169 20
72 1 6.4037 -14.4267 -1.87995 10
73 1 1.47882 15.9835 13.0981 14
74 1 -16.2811 3.56326 -5.68375 12
75 1 -17.1916 6.71116 -4.80359 9
76 1 2.18067 9.0686 14.7358 20
77 1 12.0538 -4.20428 -5.34774 15
78 1 8.09527 -10.4027 5.89916 10
79 1 -18.9528 0.390895 6.61519 15
80 1 -8.73789 2.40996 3.59519 22
81 1 5.47977 15.2032 5.20117 20
82 1 2.80969 -0.637416 17.7376 9
83 1 -9.51604 -10.9507 7.53005 17
84 1 -9.98657 -0.239276 3.81881 19
85 1 12.2461 7.98511 10.0878 18
86 1 5.92692 -2.49256 -0.228962 21
87 1 -3.44101 17.7741 10.702 10
88 1 1.52201 0.0683452 11.0405 19
89 1 -8.71942 -3.11865 3.32158 21
90 1 -5.07121 -3.47956 -6.73295 20
91 1 -14.3518 8.99393 10.3612 16
92 1 -10.2245 10.3784 1.93342 21
93 1 -1.79214 9.33243 -5.77581 22
94 1 3.19765 2.40856 -2.57423 20
95 1 5.90491 3.29569 -4.368 20
96 1 7.70074 14.019 -6.43902 14
97 1 4.2296 -5.76585 5.99708 18
98 1 3.74901 -7.76142 8.27433 15
99 1 -11.9031 16.1486 -1.37495 9
100 1 -13.4374 13.0465 6.34209 13
101 1 -9.7336 -1.46302 13.4707 23
102 1 -6.66954 9.73113 8.23586 18
103 1 -11.2657 -3.16731 8.37578 23
104 1 10.1332 -6.71379 -1.83137 18
105 1 -11.4354 3.2776 6.05459 20
106 1 -12.9518 -15.191 4.88179 9
107 1 6.98232 -6.01926 -0.782542 17
108 1 4.55272 -0.942659 -8.9534 16
109 1 -6.42143 -0.410581 -16.2801 8
110 1 1.98086 0.443523 7.69248 18
111 1 -5.39861 12.8528 4.68214 25
112 1 -9.82152 6.46887 -5.5703 19
113 1 0.138433 16.6677 15.8194 8
114 1 -2.63154 14.1126 -5.15356 18
115 1 -16.5586 10.3435 2.43697 18
116 1 0.345189 8.12734 3.14473 22
117 1 -8.29007 -8.31614 8.61978 21
118 1 10.864 4.17281 8.76078 19
119 1 0.966598 -1.66783 -7.4812 19
120 1 3.17514 -5.07228 -6.93322 19
121 1 -0.379364 4.10672 9.37062 19
122 1 5.52715 -0.541583 17.8155 11
123 1 -11.5428 -6.8307 0.595387 15
124 1 4.06698 -2.99001 3.89735 21
125 1 -9.4362 -6.85581 -1.22286 21
126 1 9.65983 -8.38585 4.10199 12
127 1 -8.26359 8.16592 5.59766 20
128 1 9.16881 4.88802 -12.0901 16
129 1 3.15562 18.4992 -1.99625 14
130 1 -11.0989 -11.2661 13.3726 9
131 1 -13.2428 -12.3459 11.0309 10
132 1 -5.58525 7.6105 3.7052 22
133 1 3.95824 -6.17143 -15.9534 12
134 1 6.34755 6.23632 -5.34179 22
135 1 8.657 -9.51691 0.0157167 17
136 1 -3.9664 -17.1063 6.26967 14
137 1 -12.0207 -9.56068 -2.1127 13
138 1 14.5138 9.37564 9.95695 16
139 1 14.2505 -2.93285 -0.346356 20
140 1 -19.6363 -2.69918 5.65247 12
141 1 10.3826 12.352 6.75053 18
142 1 13.3706 11.5885 4.73275 16
143 1 -4.25538 3.66948 17.4811 14
144 1 4.03857 5.72913 -0.623628 19
145 1 -5.28798 12.3844 9.53051 23
146 1 -7.78687 11.7246 -3.73969 20
147 1 -2.21973 -3.34244 -7.30643 23
148 1 5.72385 -9.5237 -11.5993 14
149 1 -0.456641 14.5923 -10.5822 12
150 1 3.78731 1.03166 15.2284 22
151 1 1.22045 2.10829 -16.9471 9
152 1 -2.94385 9.66583 -1.88842 22
153 1 13.0073 0.680211 -0.692783 22
154 1 -15.777 9.55304 -6.10774 11
155 1 -11.1073 12.9369 0.916516 21
156 1 8.52082 3.61153 -6.15493 19
157 1 7.07661 -7.18991 5.96286 16
158 1 -7.69282 3.60986 -5.88248 20
159 1 -7.63335 14.2628 9.0768 13
160 1 11.5127 9.28339 -7.35981 16
161 1 1.29306 16.3483 -4.55 19
162 1 -3.69689 17.8022 2.44115 16
163 1 11.7889 7.52618 0.979634 17
164 1 -5.42389 11.2539 -1.17812 17
165 1 -2.80383 14.8214 -8.92742 11
166 1 1.54382 8.12268 -15.2512 10
167 1 -13.3352 -9.17168 3.41978 15
168 1 -18.9365 10.4965 0.528805 8
169 1 -5.29035 -2.05707 -11.4138 20
170 1 1.05804 -5.61293 -14.0501 18
171 1 9.72442 16.5916 10.2708 9
172 1 -0.393921 15.0613 5.11013 21
173 1 -13.3525 -2.77392 -1.2055 21
174 1 -15.4519 14.1056 4.09805 9
175 1 16.4598 -1.07475 0.884843 12
176 1 -12.1259 2.75044 -12.2299 14
177 1 6.50887 4.93727 17.8489 16
178 1 3.43982 18.2233 6.55152 17
179 1 -3.26892 8.74996 9.34482 21
180 1 1.9941 -3.25473 -15.1113 16
181 1 -5.20695 15.3547 11.2391 12
182 1 -4.24072 10.9098 -4.3309 21
183 1 4.49832 -2.41524 14.9408 13
184 1 -14.0988 -4.17633 6.65596 20
185 1 -3.14943 -8.86048 -12.8531 11
186 1 -12.8963 11.0726 -6.00197 15
187 1 -5.66608 -12.1096 3.75693 21
188 1 4.07028 -15.2311 -3.53302 12
189 1 -5.64738 10.5569 -10.6534 15
190 1 -17.3226 3.85109 11.1737 13
191 1 2.5178 8.06151 -2.60522 21
192 1 9.81939 10.1916 -2.44053 23
193 1 -9.12263 6.56627 17.557 10
194 1 -2.31755 -6.81919 10.2537 18
195 1 -13.148 5.74706 1.56556 17
196 1 1.06253 17.4564 3.82419 16
197 1 -0.941897 7.35802 11.0174 22
198 1 13.0853 6.66632 13.0388 13
199 1 -7.85948 14.9556 5.80948 15
200 1 11.9375 -7.34609 -4.42959 10
201 1 -5.83855 12.1972 12.97 17
202 1 -10.3463 3.92634 -7.23826 21
203 1 13.0716 -4.86735 6.89866 8
204 1 -7.51176 -5.75906 3.81981 20
205 1 -17.9945 3.03893 8.10322 13
206 1 -12.442 -9.83596 6.62845 23
207 1 7.02155 9.56144 13.1426 19
208 1 -15.895 2.12022 -0.316103 17
209 1 -4.9912 -15.1542 -0.743547 13
210 1 -7.93194 -0.668798 -0.755388 20
211 1 1.95092 -6.03844 -1.21293 19
212 1 -1.71847 11.7986 4.42341 20
213 1 -7.49163 -0.375324 5.0699 21
214 1 4.27842 16.3742 11.8826 13
215 1 -10.7287 -0.608873 -1.9826 20
216 1 -9.77762 12.106 -6.38699 15
217 1 -16.5685 -2.00113 -3.53328 12
218 1 -12.7949 0.00296111 13.8458 20
219 1 -3.41727 -10.5142 5.37815 18
220 1 1.63548 -14.1057 7.95218 13
221 1 -16.5868 11.6335 5.7487 13
222 1 13.6423 6.61882 5.58042 18
223 1 4.03358 5.43695 -3.82686 19
224 1 -6.1418 -2.81237 -14.1202 14
225 1 2.46342 2.50022 12.8285 21
226 1 4.30177 -15.0941 2.85825 15
227 1 -3.79916 8.58892 -8.77688 21
228 1 -0.542198 -6.4264 -8.03222 22
229 1 10.5765 1.89479 -11.363 13
230 1 1.97045 7.97268 -9.07477 19
231 1 -8.60023 -4.1205 -6.67879 20
232 1 -7.5452 15.3588 -2.96336 13
233 1 -12.8663 -9.19489 12.218 15
234 1 6.34394 18.1301 -1.5942 13
235 1 -9.61261 2.86653 17.8074 12
236 1 -10.1759 13.732 -2.23223 17
237 1 5.39769 2.4469 10.9928 20
238 1 -3.90968 -4.16483 -9.11444 21
239 1 -5.26818 8.54973 -6.02286 19
240 1 -1.72025 6.13536 -7.98285 21
241 1 -11.323 -13.103 8.94239 18
242 1 -8.69945 7.97382 9.68013 19
243 1 -7.90587 11.4291 10.3454 18
244 1 -5.64725 -8.76665 -6.03465 22
245 1 -7.37117 -13.7491 1.24919 17
246 1 8.74334 -12.1914 -0.796081 11
247 1 0.549642 -8.98912 -1.86289 19
248 1 12.2927 10.0917 14.8384 13
249 1 5.49878 10.4327 -6.82651 20
250 1 -0.277527 10.0281 0.038609 17
251 1 -11.7828 4.07477 3.24399 16
252 1 -17.7943 13.3991 2.52265 8
253 1 0.687853 6.92621 17.0233 20
254 1 3.95991 -16.7425 -0.558988 10
255 1 13.9185 3.13454 1.56351 17
256 1 0.478106 10.1712 5.57171 18
257 1 -11.0551 8.00847 6.60567 16
258 1 -11.444 -4.72725 -2.38129 21
259 1 6.46618 6.75337 -11.5926 17
260 1 3.2386 -3.16967 11.9772 20
261 1 7.62412 11.749 -8.66425 15
262 1 -0.849663 -6.78178 -2.9122 20
263 1 -3.70182 0.55461 -10.9734 23
264 1 -0.921435 -18.966 5.04987 11
265 1 11.8623 -1.63453 -3.43209 17
266 1 -13.7343 -1.52726 7.8196 20
267 1 1.59632 -14.7387 -1.87468 20
268 1 -11.5262 -3.82536 -6.7966 18
269 1 1.6062 15.5422 -1.08219 21
270 1 -0.663613 1.2651 -11.9881 20
271 1 4.45896 6.82877 15.0632 22
272 1 12.2068 5.64629 3.05231 17
273 1 -4.97772 -6.54668 1.83122 20
274 1 10.4026 -3.53031 -8.25647 16
275 1 -4.6114 -4.76299 4.9637 19
276 1 -10.3705 -1.25464 -8.40589 21
277 1 -14.8901 2.64591 -8.60712 14
278 1 -9.85933 -13.5175 12.3738 11
279 1 8.63917 3.50366 11.3697 21
280 1 5.26351 -2.47235 9.57252 20
281 1 -7.44452 -4.43545 -12.1157 14
282 1 0.943833 -2.38401 9.42755 21
283 1 -1.62203 6.85729 -10.7626 20
284 1 6.02441 11.1257 1.67025 20
285 1 -9.98479 -8.31685 5.25509 19
286 1 3.51798 12.3019 3.54004 22
287 1 -10.0405 -3.23064 11.2838 19
288 1 -8.27813 -7.19106 -7.51934 13
289 1 -6.94487 -3.39076 -9.10417 19
290 1 -1.66142 8.74307 -13.5113 15
291 1 -7.21858 -7.70644 -3.58761 22
292 1 -5.66474 -8.97043 3.12529 19
293 1 9.08349 -3.30545 -11.0421 17
294 1 12.7111 1.41085 -8.48671 11
295 1 10.3317 6.45815 5.92245 19
296 1 -5.87995 -3.21931 -0.424836 20
297 1 -12.8112 -1.42053 11.1901 20
298 1 -4.07006 -10.2446 1.1225 19
299 1 7.85522 7.22687 15.8893 16
300 1 -8.50889 -13.6851 6.99874 20
301 1 1.51968 4.89114 -2.12288 19
302 1 -1.86435 -11.6423 3.22652 21
303 1 -2.81491 18.1192 -0.947755 13
304 1 7.15969 3.16553 -10.3472 20
305 1 -7.10699 -0.340005 -12.7279 18
306 1 -0.44949 -6.52407 0.441918 23
307 1 -13.413 -6.31036 14.0308 12
308 1 2.91017 11.8904 17.7494 13
309 1 -0.538479 -10.0363 0.77619 23
310 1 -2.42311 -7.46355 -10.4372 22
311 1 -12.8422 5.38833 -7.70156 20
312 1 7.48228 8.07947 5.50058 19
313 1 -5.53936 2.35688 -8.76215 22
314 1 -1.04209 9.19155 -8.45806 21
315 1 -5.20985 -3.94725 9.61947 22
316 1 4.99729 -9.31609 -8.49655 15
317 1 -6.96597 16.3011 2.49049 15
318 1 4.16762 12.7796 6.79626 21
319 1 9.29049 3.60822 5.94587 22
320 1 -12.9533 1.36936 7.96493 20
321 1 -4.72934 -5.87139 12.5321 15
322 1 -10.2247 11.0484 6.22837 19
323 1 0.543177 -2.87726 -12.4545 21
324 1 12.195 9.18198 -1.84481 19
325 1 1.28297 -12.133 2.64349 17
326 1 -3.33034 1.19302 16.1864 16
327 1 -19.2951 -2.43187 8.91882 11
328 1 0.926484 -16.123 -4.67345 9
329 1 -11.4007 8.60574 15.0295 12
330 1 -10.7191 5.96231 14.9423 18
331 1 -17.3597 -1.74387 11.4028 13
332 1 -16.9888 -4.57799 10.171 14
333 1 13.3986 -1.2111 2.14758 20
334 1 -15.1153 -6.77168 11.2112 13
335 1 8.56694 -1.328 -5.10462 18
336 1 6.75028 -11.9484 -3.18747 15
337 1 -1.04178 15.6839 -2.85041 22
338 1 -6.40356 -3.16261 6.43394 24
339 1 -13.6383 13.7321 -1.32627 13
340 1 -2.86407 2.3976 10.9325 21
341 1 11.9722 11.7107 12.2404 16
342 1 -11.9925 -2.74182 4.76483 22
343 1 4.97983 -6.03978 -4.29726 21
344 1 -4.46205 10.3429 3.23845 18
345 1 -4.06026 7.10857 6.85078 21
346 1 2.24917 -10.6625 8.18678 13
347 1 6.69769 -1.21059 5.93894 20
348 1 -5.21212 4.07008 11.7054 20
349 1 -9.15483 -1.89485 -4.48513 21
350 1 -1.24722 3.55336 15.817 18
351 1 -2.96644 13.2883 6.51907 21
352 1 9.09878 9.66475 16.0739 13
353 1 -12.5736 13.2989 -4.01365 12
354 1 -0.294063 -0.82201 -15.755 15
355 1 -8.98521 3.56997 -3.61291 18
356 1 6.15498 -7.58475 -14.2296 12
357 1 -11.6596 3.72219 13.5276 22
358 1 -14.5071 3.0565 5.09897 20
359 1 -6.10633 -2.18609 -3.16644 23
360 1 -7.77747 10.5055 4.27687 20
361 1 5.34352 0.322451 8.23292 20
362 1 -14.0979 -12.3827 3.90815 15
363 1 6.60292 -4.10357 7.60827 19
364 1 -10.6809 -7.94454 14.2101 11
365 1 -18.2717 7.13628 2.50657 11
366 1 -4.55896 -2.28902 12.9602 20
367 1 1.9406 -10.3451 -4.54612 21
368 1 -7.49158 -1.19623 -7.082 19
369 1 7.95717 -0.138975 -11.2233 18
370 1 4.22347 18.064 3.27046 20
371 1 -13.4796 0.474461 -0.728943 19
372 1 3.13782 -4.83253 -11.9388 20
373 1 9.87469 7.96268 -12.2935 10
374 1 -4.77786 -14.5586 -7.2675 11
375 1 -14.3789 -4.72358 -3.4435 16
376 1 -3.16943 -7.50654 0.177482 22
377 1 11.4117 6.88282 15.4335 13
378 1 10.6962 4.21349 0.336576 21
379 1 -7.61448 4.79125 -8.62486 21
380 1 2.2863 18.8904 0.821392 12
381 1 -16.8109 0.874729 -3.013 12
382 1 -11.3263 9.25786 9.13451 21
383 1 -9.21936 13.0794 3.58644 21
384 1 -5.64281 6.53864 9.53313 21
385 1 7.38216 5.28483 14.1257 20
386 1 9.38791 -3.10381 -2.5378 19
387 1 7.2864 -0.797399 15.1777 17
388 1 13.8909 0.954832 -3.6108 19
389 1 -4.64788 -14.4846 -3.56848 16
390 1 2.17772 4.24662 7.21931 21
391 1 -5.19977 8.11889 0.345981 19
392 1 -3.58547 -4.33471 -3.40647 21
393 1 0.940605 11.2035 2.55528 19
394 1 5.95041 3.43799 -0.732048 20
395 1 -10.138 1.89801 -1.76636 18
396 1 2.51985 -9.90097 0.558104 24
397 1 8.25969 -0.539884 8.42732 20
398 1 -11.736 -2.43391 -4.17845 20
399 1 -10.9708 -10.5726 3.42387 17
400 1 -10.1288 -4.95522 14.3765 14
401 1 -7.01993 12.0983 1.55211 19
402 1 -15.1521 -9.74004 -0.748335 8
403 1 5.21475 12.2663 15.7098 15
404 1 -12.0247 9.0136 -0.810921 20
405 1 -0.659643 12.0606 -8.38923 19
406 1 5.32484 13.2725 9.10048 17
407 1 -14.4385 -6.61099 -1.22174 15
408 1 -3.3041 -5.93577 -6.33627 21
409 1 -15.0635 0.375875 9.85003 20
410 1 -14.8622 9.58211 -1.39231 15
411 1 1.41511 -7.58273 6.72019 19
412 1 -7.32985 -13.1007 -1.94658 12
413 1 11.5043 13.895 9.77935 17
414 1 4.95455 7.63912 -8.75612 22
415 1 -16.4434 5.92159 -7.95707 10
416 1 -5.85859 13.8326 -5.06466 15
417 1 -6.87575 6.32303 -4.48423 20
418 1 -3.55066 -13.8877 5.76214 20
419 1 12.533 9.33971 6.94728 20
420 1 -0.0609244 10.9117 -13.7145 10
421 1 -8.29833 3.90914 13.1276 19
422 1 -16.4107 2.48343 3.30222 14
423 1 -9.79161 5.60365 7.75552 20
424 1 -6.29339 -14.7553 5.06937 21
425 1 -0.687177 -2.05549 -4.52752 21
426 1 4.36733 -7.01561 -10.0545 22
427 1 -3.16714 -2.33441 7.29664 22
428 1 -16.1487 5.37995 6.18226 17
429 1 -15.9685 0.766543 12.5115 18
430 1 -14.4735 8.66969 7.03807 20
431 1 -2.25414 -3.32663 9.87288 22
432 1 -8.96057 4.01135 -13.149 16
433 1 4.131 -8.4623 -5.52645 20
434 1 -1.11139 -4.77929 -10.5187 20
435 1 -7.3709 -3.58543 11.1954 19
436 1 2.13424 -6.47012 -4.10652 23
437 1 -8.74226 2.72758 -10.516 23
438 1 4.56276 -10.9579 2.89511 20
439 1 1.30257 12.2937 -5.79568 19
440 1 -14.8983 11.8716 8.67957 11
441 1 -6.27479 -0.672739 15.3045 19
442 1 -13.3668 -5.11525 -8.6621 10
443 1 -9.71429 -5.73832 6.11742 20
444 1 8.37139 -3.97 10.1005 15
445 1 6.56345 1.8157 4.89854 20
446 1 -6.90755 5.4713 6.56298 18
447 1 0.59333 0.618603 -5.82963 20
448 1 9.76059 -5.64034 7.82218 15
449 1 12.5758 7.56112 -4.80795 15
450 1 -1.37497 6.81691 14.4681 20
451 1 -0.340619 13.1102 -0.924813 20
452 1 3.85731 -2.47164 6.94439 22
453 1 0.510509 -12.8994 -5.75149 15
454 1 -5.28285 6.77062 17.9239 14
455 1 -2.19028 16.4547 7.57307 19
456 1 -10.709 -8.5385 -4.49712 12
457 1 7.34517 17.5307 1.56566 15
458 1 4.42077 7.61274 11.8982 21
459 1 -10.6606 1.2756 12.0969 19
460 1 -5.79718 -6.0833 -1.23516 21
461 1 -13.9396 5.12937 11.1875 21
462 1 -9.3582 -5.56828 -4.46076 19
463 1 -7.46461 12.0933 6.67273 24
464 1 -5.13463 -10.8981 -3.10684 19
465 1 -3.37106 -1.99207 -16.555 13
466 1 -9.00059 -13.0813 3.59609 18
467 1 -9.31797 -2.83253 5.91916 21
468 1 10.2212 1.4115 9.88829 19
469 1 -7.61848 -3.25318 14.2857 17
470 1 -9.5786 7.17992 -8.62476 19
471 1 7.74884 9.39221 -0.862139 19
472 1 -9.89916 -14.5299 0.292711 8
473 1 2.9836 5.25986 -7.26753 21
474 1 -0.599644 18.6438 1.53747 9
475 1 -1.13408 5.78174 -2.4447 20
476 1 -3.34045 11.0696 11.9003 22
477 1 -18.285 -0.607042 -0.68315 8
478 1 -4.35789 16.3991 -3.17893 15
479 1 4.68923 13.8037 -2.34727 17
480 1 -7.73404 -7.42246 -10.3555 10
481 1 3.60681 6.24318 17.7851 14
482 1 -0.638046 -10.0431 -7.37377 19
483 1 -1.42662 -1.3509 -10.5366 20
484 1 6.46791 -12.8821 4.39409 15
485 1 -10.9707 8.84404 4.04432 18
486 1 -0.287941 9.52636 16.5897 18
487 1 4.76234 9.86347 -1.34756 21
488 1 3.08102 9.20074 1.36963 21
489 1 -11.4353 10.6343 -9.23924 13
490 1 2.66165 2.60019 -5.92745 20
491 1 -1.5023 -5.56433 5.81349 19
492 1 -18.3761 -2.8282 2.13771 10
493 1 2.24792 17.9141 9.93804 14
494 1 -4.82331 7.81101 -11.9811 20
495 1 9.07788 6.31676 3.04006 21
496 1 4.47276 14.1917 -5.07245 21
497 1 2.882 -5.76435 2.61049 20
498 1 16.0975 5.54166 0.340466 11
499 1 -0.297882 3.57736 -7.12467 21
500 1 -2.19536 -8.03931 3.1349 22
501 1 -1.54586 -14.506 8.38547 12
502 1 0.812274 -8.34911 9.82613 14
503 1 -12.4567 5.41069 -3.86874 16
504 1 -13.5453 -12.3513 7.30663 14
505 1 -3.12036 -8.98557 -6.69094 22
506 1 7.41722 16.9207 7.54243 15
507 1 -2.54563 3.30497 -9.72335 23
508 1 4.54003 2.53585 19.3116 11
509 1 -15.0122 3.48412 13.5917 17
510 1 -2.71664 -17.2296 0.31899 13
511 1 -14.7977 -1.75986 4.37161 22
512 1 12.6569 -4.63936 -2.31114 17
513 1 8.42764 -0.799319 0.421261 23
514 1 -6.15618 8.93092 -3.06064 20
515 1 0.392597 -4.48079 -5.62812 19
516 1 4.25273 5.1754 -10.0475 21
517 1 10.1747 -6.30193 -7.24249 15
518 1 -7.075 1.1118 17.4659 15
519 1 4.29212 16.7254 0.870493 20
520 1 -3.19264 0.798038 -16.4283 15
521 1 6.43832 4.45286 -13.4265 12
522 1 -7.89282 -1.4295 8.98848 23
523 1 -4.91168 14.5411 1.86349 18
524 1 -10.7257 0.128822 -11.1253 19
525 1 -18.962 2.95621 5.02704 10
526 1 -1.58352 -6.44879 -13.4701 18
527 1 -8.24999 -8.32429 11.8791 17
528 1 -3.40681 11.6317 -7.23396 19
529 1 14.381 4.29784 8.28141 11
530 1 14.9835 6.77567 2.88705 18
531 1 -12.6766 -11.6127 0.581862 11
532 1 -2.08934 -5.02587 -1.2558 19
533 1 -0.633502 2.6002 -14.6925 21
534 1 -9.49927 12.8589 12.0275 12
535 1 3.97574 -2.5768 -6.24897 18
536 1 2.94647 6.3663 2.4923 18
537 1 11.583 -4.25463 0.708952 21
538 1 -0.61297 14.4875 -6.95529 18
539 1 0.437209 -7.1783 3.03268 18
540 1 15.072 3.8042 -5.39768 10
541 1 1.85881 12.456 14.2094 18
542 1 -10.5021 2.92989 9.24352 21
543 1 4.37009 10.4644 10.0149 20
544 1 7.19857 2.05291 17.3183 16
545 1 -0.86608 4.68489 -11.8101 19
546 1 -6.33067 -5.09938 -4.80234 22
547 1 -1.75922 -0.561149 11.8977 22
548 1 4.35448 15.8336 8.6535 16
549 1 7.73161 5.69874 -8.90963 24
550 1 -10.4833 10.5167 -3.82855 18
551 1 -2.98641 12.9893 -2.43317 21
552 1 10.0263 -1.96473 12.0658 12
553 1 11.8321 4.99982 -10.8359 10
554 1 10.9163 -9.5914 -1.71961 9
555 1 9.36256 14.6461 12.5613 14
556 1 -16.3184 -4.43693 3.2878 17
557 1 -8.94289 11.81 -9.60551 10
558 1 -3.04151 3.68976 13.6957 21
559 1 -14.912 1.04718 15.8743 10
560 1 -8.70426 9.05847 -6.01942 21
561 1 4.01039 -12.0137 -2.0793 23
562 1 5.87007 0.55974 -5.83816 21
563 1 -5.74099 16.7983 -0.066408 14
564 1 -9.0101 -1.91172 -11.3721 16
565 1 4.06565 -14.8562 5.84381 11
566 1 -13.2085 -4.18763 2.47096 22
567 1 1.17662 10.3165 -11.132 22
568 1 -7.69932 4.47143 -1.38575 18
569 1 -3.08447 11.2844 15.1811 17
570 1 -13.7007 -4.53822 10.0098 21
571 1 5.51897 8.14368 1.91613 21
572 1 0.187421 -7.76294 -5.77145 20
573 1 1.28031 -5.52103 10.9887 16
574 1 6.59861 0.297335 -2.4811 20
575 1 -13.9368 9.85475 4.28608 17
576 1 3.01605 8.7476 18.2108 16
577 1 5.06878 17.0037 -4.452 12
578 1 8.51344 -3.59822 0.65709 19
579 1 1.52733 7.02418 13.2031 23
580 1 1.13513 4.85078 -16.077 13
581 1 -8.6695 -11.2733 10.4007 21
582 1 -2.5762 3.14986 -5.74458 19
583 1 8.6498 1.61226 -13.9452 10
584 1 1.08551 16.4731 7.35066 19
585 1 9.89026 5.98822 -6.76415 20
586 1 -2.72061 -0.842941 -13.7008 19
587 1 -3.05239 -9.65128 -2.08782 19
588 1 -12.4664 -3.03968 -11.1713 13
589 1 10.7947 3.11652 3.39102 18
590 1 12.7036 6.16035 -1.95938 20
591 1 6.87063 -7.19342 -6.41555 21
592 1 14.8694 10.7397 12.8794 9
593 1 3.51193 -8.60641 -2.29489 22
594 1 3.80099 8.32589 -11.8204 17
595 1 5.52605 14.4634 2.39079 21
596 1 -9.45509 5.41796 3.97637 19
597 1 9.16519 12.0925 13.3522 16
598 1 9.84321 6.96607 -1.26634 19
599 1 12.2571 0.478755 4.50714 20
600 1 10.5105 7.5094 -9.56549 18
601 1 10.9075 1.35274 12.4776 15
602 1 14.5083 5.64943 10.4443 11
603 1 2.75055 -4.64601 8.90083 20
604 1 12.0961 13.0868 -1.38143 11
605 1 4.80792 2.9274 6.78914 19
606 1 1.63288 4.18516 18.1256 15
607 1 16.3185 -0.20654 -2.22978 13
608 1 4.8323 4.69071 12.2577 21
609 1 -10.7683 0.781359 -5.1756 21
610 1 12.0376 8.62231 3.72434 20
611 1 6.82378 -1.18988 2.93797 20
612 1 -2.36882 -4.98359 2.63096 22
613 1 -12.4871 7.7416 11.9753 20
614 1 6.56518 12.4948 11.9535 18
615 1 10.4711 5.5092 12.3205 19
616 1 2.17485 11.4513 8.79477 20
617 1 -1.68754 16.8397 12.8793 12
618 1 4.30144 6.46836 8.33127 20
619 1 -3.2622 -18.5307 3.48801 12
620 1 -8.93896 11.1356 -0.995436 21
621 1 10.7944 12.5725 -7.14804 12
622 1 10.7405 -0.449509 -9.23255 14
623 1 -1.96958 15.1236 0.212621 19
624 1 -6.02483 -12.6362 -9.77782 7
625 1 6.19236 -5.05531 -11.6572 19
626 1 -14.4306 3.51915 8.41424 22
627 1 -4.85094 5.31058 -6.95147 20
628 1 -6.68168 -18.0655 4.8751 11
629 1 -6.92399 -0.0793547 -9.67416 23
630 1 -13.3143 3.58157 -0.296216 20
631 1 9.37635 -4.85075 3.52554 18
632 1 11.1621 14.3894 4.48379 16
633 1 -1.69894 -8.41892 7.691 18
634 1 -15.6129 0.373129 -6.10086 15
635 1 3.70503 2.98106 -14.8195 13
636 1 0.598872 -1.64172 6.7567 20
637 1 -3.15892 8.45666 15.8607 19
638 1 4.57047 10.6586 -10.0133 18
639 1 12.7205 -0.220217 10.7384 9
640 1 6.8944 6.29816 -2.26851 19
641 1 9.59274 15.0116 1.7432 17
642 1 2.47522 -11.5463 -7.54197 12
643 1 -12.3643 -2.13089 16.1168 12
644 1 10.1004 0.924927 6.89188 18
645 1 -0.650558 13.5447 12.3932 18
646 1 4.85557 13.5634 -8.02041 13
647 1 -17.6633 8.90417 -2.82609 12
648 1 8.297 9.58954 2.83068 19
649 1 -11.6449 -13.5496 2.4348 14
650 1 12.1595 -3.58626 4.70839 15
651 1 6.69571 18.8076 4.77084 12
652 1 -7.30847 6.60297 12.4995 22
653 1 -12.7645 -6.55018 5.20375 20
654 1 -12.7669 -0.509358 -6.86125 22
655 1 6.44803 2.15163 14.2308 21
656 1 -4.77539 -8.8318 13.9693 7
657 1 7.70538 6.85034 11.8944 21
658 1 -8.90452 16.7253 0.217324 12
659 1 8.06254 3.36857 2.1557 23
660 1 5.58006 -4.74531 1.85581 21
661 1 7.45847 5.8422 6.78793 21
662 1 2.16464 0.457475 -13.6321 20
663 1 -9.93351 0.449211 6.80563 23
664 1 8.45913 1.05492 -7.49214 18
665 1 -4.01133 -7.18474 -3.59559 21
666 1 9.48524 -8.60636 -4.73885 15
667 1 7.1784 8.03817 8.76774 21
668 1 4.64633 9.02348 7.26717 21
669 1 -11.3265 0.824887 16.494 15
670 1 9.63178 9.25241 7.49689 21
671 1 -1.50328 -1.39201 14.815 14
672 1 -3.83898 7.46753 12.6052 21
673 1 -2.10123 -3.67683 -13.6079 16
674 1 -7.11155 4.43062 16.6414 17
675 1 -4.66018 6.24149 -2.251 19
676 1 1.61441 4.21503 14.9132 21
677 1 -11.0776 -13.3652 5.95711 20
678 1 15.2018 8.22437 -0.533946 14
679 1 6.76562 -8.82956 -2.93907 20
680 1 -2.73369 6.09327 -4.85462 19
681 1 6.98092 11.9714 -3.4455 25
682 1 7.99609 16.144 4.36871 18
683 1 4.57772 1.11306 -11.6123 19
684 1 -4.85506 -0.200629 7.53328 19
685 1 2.05249 13.3642 -3.10587 20
686 1 13.5725 9.73241 1.53803 19
687 1 -8.73383 -7.75312 2.13462 19
688 1 -1.96089 4.01959 -16.223 13
689 1 -14.278 14.5091 1.20034 12
690 1 7.92177 -4.95096 -8.74126 20
691 1 6.21882 5.13273 3.48927 21
692 1 9.92577 10.716 -10.004 12
693 1 8.52705 12.5472 -0.965547 20
694 1 -2.96167 5.1849 9.30501 21
695 1 -7.0117 4.92169 2.02996 17
696 1 6.46435 9.0297 -4.05033 22
697 1 12.0694 3.67847 14.3987 13
698 1 9.5681 1.31005 15.3842 13
699 1 -5.99976 -9.96745 10.6357 15
700 1 -6.3548 11.0763 -7.46529 20
701 1 6.90766 17.3362 12.3634 9
702 1 7.23678 -5.02069 -15.902 8
703 1 2.88595 2.69842 9.33508 16
704 1 7.47774 15.0963 -3.34481 17
705 1 7.69427 13.0686 5.69917 18
706 1 13.2445 -6.64874 0.298336 11
707 1 5.42632 9.36278 16.2075 17
708 1 -16.7816 -1.60879 7.44458 19
709 1 1.5354 -15.3728 1.13173 18
710 1 -2.10582 0.760034 -7.61424 25
711 1 -12.2795 12.7526 3.27814 17
712 1 -0.781928 8.2208 7.44739 20
713 1 2.43091 -3.00824 -3.80243 23
714 1 2.5479 15.0978 4.67443 19
715 1 -15.5874 0.685679 6.4276 23
716 1 -2.01353 7.63914 18.7551 13
717 1 -3.75819 7.14306 -14.6927 12
718 1 -9.20794 9.09981 -11.7755 9
719 1 3.03502 -13.0347 0.437757 20
720 1 9.66701 7.64256 -4.07565 23
721 1 1.62433 -3.84903 5.57273 22
722 1 -2.24845 8.71537 4.87677 22
723 1 -13.5206 5.89806 14.4122 16
724 1 6.24576 -2.2297 -11.4027 18
725 1 -0.657177 -11.0836 8.87297 12
726 1 1.52464 14.6606 1.92385 18
727 1 -5.61975 2.38978 14.6158 21
728 1 -9.9326 -4.81545 -9.61608 17
729 1 -5.97193 -6.7484 -13.3846 9
730 1 -8.6101 -9.92653 -6.21189 12
731 1 -1.92613 16.8471 -5.25115 12
732 1 7.06859 -4.06894 -6.32062 19
733 1 -2.84399 10.7505 7.39621 19
734 1 2.1896 -7.40448 -7.51363 22
735 1 6.19781 -12.8992 1.23927 16
736 1 -0.356196 -5.41772 8.17427 21
737 1 15.3284 6.0742 -3.16403 10
738 1 0.536795 -12.065 -2.02019 20
739 1 -10.7362 -0.177028 9.49759 20
740 1 0.058302 3.29051 -3.85109 21
741 1 -4.95717 -15.9302 2.80549 18
742 1 -6.39332 -8.899 -0.612342 22
743 1 -13.0153 1.92199 11.2483 20
744 1 -8.27505 -16.0203 3.16707 14
745 1 11.828 2.6958 -2.34562 19
746 1 -5.0577 15.946 4.91199 16
747 1 -7.91571 4.28305 9.84297 20
748 1 -16.4832 8.01109 5.47128 17
749 1 10.2715 -2.29113 2.73254 20
750 1 -14.78 -2.00558 -9.02056 11
751 1 -0.659011 11.7872 -3.92435 20
752 1 10.075 0.579949 -2.91572 21
753 1 6.35475 14.8848 14.3076 11
754 1 7.55669 6.42546 0.662256 16
755 1 -13.2129 2.65584 -5.81601 18
756 1 -12.7259 -6.32045 -5.20381 13
757 1 -4.66476 9.89896 18.244 8
758 1 8.23066 8.57632 -7.26082 21
759 1 9.83421 14.9736 7.21797 17
760 1 -4.72398 -0.568506 10.0264 21
761 1 -1.6788 -15.42 -2.21855 15
762 1 -9.53254 -15.4707 9.25709 11
763 1 -8.63819 -4.4895 8.80924 23
764 1 14.6432 12.6119 10.1327 13
765 1 1.38372 -4.16208 -8.98473 20
766 1 -7.98994 8.85956 1.89358 19
767 1 6.06682 10.8302 4.93365 20
768 1 -10.5035 -5.54067 3.28778 20
769 1 7.0784 9.72198 -11.5164 12
770 1 -1.9139 -14.0431 -5.48825 16
771 1 -0.30547 -18.2601 2.07911 12
772 1 -0.816544 -13.333 0.821845 18
773 1 5.85582 3.54914 -7.68943 20
774 1 5.81503 19.7768 1.41086 10
775 1 -3.30795 2.50765 -13.4035 21
776 1 0.123915 1.17229 16.3342 16
777 1 1.48873 6.8924 -12.0357 22
778 1 -13.6556 0.249288 -10.486 14
779 1 -12.8384 -1.34001 1.93396 19
780 1 -0.277275 18.536 -2.78858 12
781 1 5.98431 1.17072 1.13165 20
782 1 -5.84775 1.85548 -14.5291 14
783 1 -8.17492 -5.2538 1.02231 20
784 1 11.9004 4.97636 -4.94259 17
785 1 12.0137 -6.53382 3.67194 15
786 1 -7.84119 8.06089 15.503 16
787 1 3.07309 -8.50521 3.56388 15
788 1 14.495 -4.01255 2.2464 13
789 1 11.2957 -3.28962 9.26454 13
790 1 -0.826458 10.576 10.1936 22
791 1 -12.7777 3.45189 16.5892 11
792 1 -10.5993 5.75905 11.5291 21
793 1 -6.43386 -12.1349 7.95664 19
794 1 9.10981 0.458376 3.64171 18
795 1 4.29598 10.9695 13.0966 20
796 1 -17.5543 -0.539666 3.98211 16
797 1 4.46296 -4.64866 -1.53116 21
798 1 -15.734 11.7791 -3.80874 10
799 1 3.49374 8.77637 4.59842 16
800 1 -0.893199 -16.4076 6.54182 13
801 1 4.78179 3.68071 15.5975 20
802 1 1.2725 12.9961 5.92522 21
803 1 -0.0550116 -10.0273 4.79475 19
804 1 -10.5097 0.444981 0.804809 18
805 1 -0.409475 1.61308 13.5176 22
806 1 -15.7967 -4.42968 0.0635199 14
807 1 -2.49219 14.9973 16.0404 8
808 1 3.63071 13.0275 0.650913 19
809 1 -15.6748 -10.1868 6.0122 11
810 1 -6.92193 -16.0782 7.66553 15
811 1 6.70004 -7.65892 8.94213 12
812 1 9.45962 -2.70084 6.29931 19
813 1 8.35318 13.57 9.38483 19
814 1 -2.55509 9.23769 1.87077 19
815 1 -4.82091 -6.95993 -9.133 20
816 1 -5.87099 2.23827 -11.8619 20
817 1 -7.44858 -0.036211 12.4122 22
818 1 -2.10349 18.0174 4.97745 11
819 1 14.418 3.70486 4.78515 14
820 1 0.800379 9.20329 -5.79857 19
821 1 -5.46406 10.1413 14.6605 18
822 1 9.18315 9.60327 10.7352 19
823 1 7.50166 -1.67753 -8.20684 22
824 1 -7.74551 -10.5784 1.8911 14
825 1 -7.79911 0.848689 -3.96117 20
826 1 12.6378 2.27419 7.32465 14
827 1 1.80336 -0.653603 -10.5818 18
828 1 0.0706417 13.2548 16.7336 12
829 1 6.71651 -10.293 -6.12204 11
830 1 3.5255 5.66741 -13.2589 17
831 1 -3.50534 -11.7436 -5.48215 23
832 1 13.1072 5.22533 -8.29935 11
833 1 15.4292 0.975181 2.91397 12
834 1 -0.0121331 -2.77541 12.3423 17
835 1 -4.19514 -5.13084 -11.747 18
836 1 6.97894 14.8194 -0.346139 18
837 1 -3.47999 -5.70649 8.01786 19
838 1 -16.2398 6.108 8.731 16
839 1 8.96361 3.82066 -2.82506 16
840 1 15.6698 9.16262 5.36642 12
841 1 3.84762 -2.2929 -13.36 18
842 1 -10.3223 14.7611 6.88229 11
843 1 15.5139 11.1963 7.69859 13
844 1 9.81542 13.2724 -3.77187 16
845 1 -0.189976 1.21736 -9.15365 20
846 1 7.11147 -7.10905 2.49375 19
847 1 -15.7575 -1.03144 1.16346 19
848 1 10.5825 10.934 4.19666 21
849 1 -14.0566 -6.82257 2.22393 13
850 1 -14.3491 8.26086 -9.02618 9
851 1 2.60287 5.1188 10.5792 20
852 1 -13.6931 -0.331287 -3.83483 21
853 1 -12.7528 6.47007 8.94579 20
854 1 -9.1137 1.38742 -8.04312 19
855 1 10.7673 -6.36399 -10.2575 11
856 1 -14.747 -8.41186 -3.73745 9
857 1 10.2982 -7.37836 1.39914 15
858 1 -15.7848 5.89744 3.53045 17
859 1 -8.23673 -3.64527 -2.10813 23
860 1 11.5652 10.9325 9.55462 19
861 1 -6.96619 -9.8286 5.85708 16
862 1 9.25142 4.34208 16.1387 14
863 1 11.9472 -1.13401 7.19458 16
864 1 7.23234 2.73339 8.44953 21
865 1 -12.9368 6.27386 5.15586 23
866 1 1.28831 10.0966 12.1227 21
867 1 2.57003 10.2637 -7.63865 21
868 1 -0.902784 -4.0375 -16.2088 11
869 1 -5.22445 14.3424 7.62599 18
870 1 -14.0437 -9.67851 9.18951 16
871 1 8.75184 10.488 -5.48602 23
872 1 -0.975285 9.66567 13.515 21
873 1 11.3077 -1.53111 -0.556347 22
874 1 5.04378 -5.83405 11.0567 13
875 1 -4.11889 13.4502 -11.0171 12