ITEM: TIMESTEP
6000
ITEM: NUMBER OF ATOMS
2000
ITEM: BOX BOUNDS pp pp pp
-30.0 30.0
-30.0 30.0
-30.0 30.0
ITEM: ATOMS id type x y z Coordination
1 1 -7.58471 5.34 -12.8386 19
2 1 -3.87035 -10.7925 -10.601 15
3 1 1.32034 14.7181 12.4249 9
4 1 5.0153 -11.9451 7.46354 16
5 1 -7.41119 9.93401 -2.59918 20
6 1 11.9075 -6.45683 -11.7009 13
7 1 -12.0546 5.01938 -7.04941 22
8 1 1.63341 -6.80616 11.6071 15
9 1 -9.05253 -0.185704 -7.26546 17
10 1 -10.3229 -11.0076 6.86791 22
11 1 13.2791 1.74269 -11.6341 10
12 1 -2.53068 -9.72375 -0.923959 17
13 1 -12.1967 -10.6641 2.72592 15
14 1 4.09338 3.31291 14.5777 17
15 1 6.78592 -1.87823 6.88865 23
16 1 0.693102 6.41529 9.99511 17
17 1 5.09737 -6.76237 3.81103 21
18 1 -1.0605 11.804 -9.23992 19
19 1 1.61988 -1.70352 9.21381 19
20 1 -6.84893 2.15769 -12.7744 21
21 1 -12.0666 -5.47129 11.4419 15
22 1 17.7264 4.81208 6.93838 8
23 1 0.74753 9.73792 -11.284 17
24 1 5.19356 5.59494 -16.9737 9
25 1 16.5436 2.74985 8.86188 14
26 1 -10.2972 -0.654383 1.76801 23
27 1 -8.85898 2.53099 -10.6916 21
28 1 -5.54717 -0.60052 -6.12293 20
29 1 -10.8474 11.979 11.4177 10
30 1 4.24557 -15.6497 3.55809 17
31 1 1.41075 0.789736 7.17915 22
32 1 3.29199 -11.0172 -9.43857 18
33 1 7.77102 -14.2056 2.49383 12
34 1 -8.60879 -13.0296 -7.81886 13
35 1 -13.969 -8.10865 10.4872 9
36 1 2.51732 -3.7983 -6.37391 21
37 1 0.491617 -7.0563 -16.2915 13
38 1 10.4079 -9.89797 -11.3589 11
39 1 -1.57832 3.54826 -16.3949 17
40 1 3.78802 6.56732 12.542 23
41 1 -3.93532 -11.4585 7.45985 24
42 1 7.61121 -4.85356 11.9311 17
43 1 -11.3648 -3.14913 2.00763 21
44 1 -15.2484 -4.94015 5.80404 12
45 1 -8.87345 0.623892 -0.982472 22
46 1 -5.00838 15.6168 -5.66958 16
47 1 0.471771 -16.8963 -10.4516 6
48 1 4.51053 0.580732 -10.1069 21
49 1 6.1574 -6.39662 -10.1266 20
50 1 2.25449 0.325859 15.0336 11
51 1 -11.1292 3.58754 -1.12036 22
52 1 5.5862 12.2897 -12.9757 10
53 1 -0.689325 14.6637 9.90454 16
54 1 -10.6822 9.49228 -10.6709 9
55 1 -1.70859 16.0184 -2.58188 19
56 1 -0.694954 -13.5888 1.6161 16
57 1 7.06479 -9.57407 -8.50538 19
58 1 3.69449 -7.93517 -16.9804 11
59 1 -9.0379 8.75859 11.2805 13
60 1 -12.8228 -1.30776 -7.46318 15
61 1 8.22642 2.90066 1.52544 24
62 1 -9.3236 7.85238 -4.59504 22
63 1 -2.96872 -9.49506 10.668 22
64 1 -3.87119 15.0303 8.68943 13
65 1 -14.8558 3.47616 -5.42699 12
66 1 -6.20871 11.7965 12.4501 14
67 1 3.19471 5.67881 -3.82439 25
68 1 1.40113 8.63756 1.39023 23
69 1 -7.23884 -15.4012 7.00737 13
70 1 1.70377 5.14266 3.81596 21
71 1 6.53591 -15.8103 0.415036 12
72 1 4.55742 11.763 13.6304 17
73 1 -12.4448 3.9027 -10.1245 15
74 1 -10.1561 5.47382 -9.816 18
75 1 3.15018 5.27811 9.25518 22
76 1 15.5513 -4.63964 -8.48232 12
77 1 6.82629 -13.6835 5.21641 11
78 1 -16.5865 -6.41195 2.7389 11
79 1 -6.98586 0.113697 1.27374 21
80 1 5.14526 15.5053 4.82583 13
81 1 6.9375 -2.01734 10.7355 20
82 1 -4.77603 -13.5337 5.86929 23
83 1 -10.1249 -2.48839 -0.369728 23
84 1 15.3446 -2.77921 7.26 12
85 1 8.00486 -2.85433 -4.19991 21
86 1 1.51772 9.08676 7.8247 22
87 1 5.012 0.839286 6.99637 24
88 1 -5.38659 -4.08074 4.94232 18
89 1 -2.73942 -5.40616 -8.78218 22
90 1 -12.0939 9.03115 11.3303 10
91 1 -10.7516 10.4189 -2.52399 19
92 1 -3.80937 7.8111 -6.34577 20
93 1 6.32988 -0.353673 -4.0243 22
94 1 6.98194 -1.18783 -9.03612 16
95 1 8.98733 11.2392 -5.17344 19
96 1 6.27315 -10.7685 4.73325 18
97 1 5.4332 -10.6373 10.8507 9
98 1 -7.4076 15.9101 -7.97143 8
99 1 -10.812 12.0905 6.30028 13
100 1 -10.7258 -4.33516 14.5298 8
101 1 -3.25283 7.62632 4.35046 20
102 1 -6.22615 -8.17301 11.8526 16
103 1 11.864 -7.58427 -5.15255 17
104 1 -10.8506 5.89291 0.984671 19
105 1 -10.0213 -15.1715 -0.915948 7
106 1 12.8029 -4.71982 -6.37756 18
107 1 4.90825 -0.733059 -15.6703 15
108 1 -7.66813 -0.432064 -14.8995 15
109 1 -2.13316 11.1457 -2.5017 18
110 1 -8.30536 11.2321 -11.8268 9
111 1 0.571031 11.8462 17.3043 6
112 1 1.89118 15.7688 -9.21291 14
113 1 -13.7156 9.23717 2.88641 13
114 1 -0.267616 7.74266 -1.33949 21
115 1 -4.73192 -5.50166 7.00478 19
116 1 16.6366 -1.22896 9.55477 12
117 1 0.316209 -4.14389 -8.96287 21
118 1 5.03133 -5.91164 -5.79333 18
119 1 -3.8942 5.88977 1.53963 18
120 1 7.68163 0.409073 12.6415 18
121 1 -11.7447 -7.24664 -2.60783 21
122 1 6.66807 -3.4011 3.75189 23
123 1 -8.3567 -8.27311 -2.94625 23
124 1 9.13122 -11.5423 3.34706 12
125 1 -6.40502 8.04957 -0.312023 22
126 1 8.67206 0.978481 -14.5145 14
127 1 2.78352 14.5275 0.453839 20
128 1 -8.56704 -12.7233 12.3023 10
129 1 -8.27471 -15.5778 10.0176 7
130 1 4.41605 -11.7672 -16.1094 10
131 1 3.18422 5.96254 -9.05433 19
132 1 10.2791 -9.79623 0.835078 14
133 1 -0.554842 -16.4339 7.62414 12
134 1 -9.28398 -7.88556 0.157431 21
135 1 15.7289 5.69298 8.72137 15
136 1 12.1138 0.15777 -7.82253 13
137 1 -13.7946 -5.48489 2.86505 17
138 1 10.2859 5.10534 6.91084 17
139 1 13.1767 12.1339 5.726 11
140 1 -5.34017 3.13379 14.9694 11
141 1 6.54388 7.71944 -1.27515 19
142 1 -6.80995 6.78678 10.1414 20
143 1 -4.84 11.057 -6.97676 22
144 1 -2.27042 -3.37879 -11.3306 18
145 1 9.60323 -12.1462 -8.76331 14
146 1 2.36788 12.4062 -14.429 11
147 1 9.7298 -2.49516 10.4989 21
148 1 -1.49146 1.36729 -18.9484 12
149 1 -5.28064 4.65843 -6.34382 21
150 1 14.2739 2.36806 -5.99075 21
151 1 -11.0616 10.5298 -6.02841 13
152 1 -9.22999 14.9904 -0.416023 14
153 1 8.03997 0.937885 -11.1026 18
154 1 5.78712 -9.33258 7.90514 15
155 1 -6.63027 0.35516 -9.3757 23
156 1 -8.04303 13.2715 9.77734 16
157 1 13.0895 8.42792 -6.20129 16
158 1 5.71736 11.9911 -3.66007 20
159 1 -3.72686 15.2521 0.581874 21
160 1 8.22675 8.67713 0.919686 16
161 1 -2.23818 10.9475 -5.81784 21
162 1 -1.87072 16.4883 -12.3104 11
163 1 4.70338 7.41921 -13.9331 12
164 1 -13.9655 -10.4102 6.86831 13
165 1 -14.166 7.02853 0.0858506 15
166 1 -7.08313 -1.6911 -12.3245 18
167 1 2.33892 -9.14038 -14.4601 15
168 1 8.62151 10.7403 8.53208 16
169 1 -1.62324 16.3231 3.77097 18
170 1 -8.59853 -1.85316 -3.2189 19
171 1 -12.7438 12.561 3.8899 10
172 1 14.9339 -1.08906 -2.5451 14
173 1 -11.2084 2.15843 -15.1522 10
174 1 6.06187 4.00262 16.8362 12
175 1 6.59682 16.7055 1.9977 11
176 1 -4.81336 8.69257 6.56449 18
177 1 -0.785225 -3.2882 -19.2879 10
178 1 -4.76368 11.7673 7.59834 19
179 1 0.552751 10.3744 -6.77223 22
180 1 3.83423 -2.44598 11.7507 19
181 1 -9.69695 -6.00327 3.43111 20
182 1 0.342408 -13.5876 -11.4128 14
183 1 -4.94803 11.5224 -10.8524 15
184 1 -5.01875 -10.7316 4.1113 21
185 1 3.00877 -16.3624 -6.61486 10
186 1 -3.77749 10.369 -13.1528 12
187 1 -15.2528 0.548689 6.26761 14
188 1 1.53616 8.53968 -4.12134 20
189 1 10.9456 8.9693 -4.17013 19
190 1 -6.94901 3.42596 11.4287 20
191 1 0.217781 -9.6612 10.6267 16
192 1 -9.00847 2.95443 -3.05578 23
193 1 -0.790894 15.0243 1.17501 21
194 1 -3.12744 5.80094 7.03105 21
195 1 13.7738 6.29514 11.8937 13
196 1 -7.33089 12.0593 5.41179 16
197 1 13.3714 -6.65583 -9.09674 14
198 1 -3.55028 12.8156 10.3323 17
199 1 -3.09609 2.87106 -13.5076 18
200 1 11.8519 -6.15052 2.69424 12
201 1 -7.82925 -6.07755 5.16906 22
202 1 -16.567 -1.73946 4.91119 12
203 1 -6.36479 -12.8842 3.37796 17
204 1 4.00535 11.1307 16.8607 11
205 1 -14.4288 0.560193 -3.17455 19
206 1 -0.791952 -14.717 -3.2172 17
207 1 -5.6675 -2.73049 -4.3069 18
208 1 7.27833 -8.21587 -0.690361 20
209 1 -5.43673 14.4714 3.25391 20
210 1 -4.91274 -1.33255 4.07788 21
211 1 5.10638 14.3489 11.9317 12
212 1 -10.0511 0.537316 -4.32598 19
213 1 -6.29521 13.6088 -9.52722 17
214 1 -15.0725 -5.08254 -6.89859 9
215 1 -10.9529 1.07331 13.2707 15
216 1 -1.58227 -8.16882 2.38338 22
217 1 -1.8533 -13.7212 8.10692 18
218 1 -11.3106 8.60009 6.79609 21
219 1 13.7545 4.71123 3.48614 17
220 1 7.39508 2.92468 -5.68797 18
221 1 -6.32702 -4.81576 -17.1395 11
222 1 4.04153 -0.495698 9.70301 19
223 1 3.47855 -17.8026 1.21189 11
224 1 -1.81716 7.83406 -12.0863 17
225 1 1.89055 -12.8734 -13.9327 11
226 1 10.7204 2.06643 -9.99559 17
227 1 2.12624 4.08363 -18.0911 9
228 1 -9.41823 -4.43589 -7.94258 19
229 1 -4.21309 16.2483 -9.78225 13
230 1 -11.0813 -11.0979 10.8321 10
231 1 5.52498 14.7281 -0.980657 17
232 1 -8.1986 3.47285 14.0698 13
233 1 -8.49438 12.9378 -3.08227 14
234 1 8.05279 1.19475 6.78652 21
235 1 -5.94378 -4.79799 -11.8383 18
236 1 -1.93634 6.62863 -8.81757 19
237 1 0.908157 6.99234 -10.994 18
238 1 -8.86445 -10.0915 9.54501 18
239 1 -6.0894 -0.497275 6.96965 16
240 1 -10.1406 6.58892 9.65033 18
241 1 -1.67415 -8.70499 -10.1935 19
242 1 -4.24952 -12.2777 -2.44763 18
243 1 11.1328 -13.1907 -2.59533 8
244 1 2.98667 -5.51433 -3.46285 23
245 1 13.6865 0.97868 14.4444 13
246 1 7.70719 10.1927 -7.9926 16
247 1 -2.65976 13.623 -4.83398 17
248 1 -11.4779 -0.736921 4.90867 21
249 1 -12.8701 10.0409 -0.557256 18
250 1 2.47644 6.67409 6.39478 18
251 1 5.05185 -15.8894 -1.61974 11
252 1 12.6462 1.1995 -3.26516 20
253 1 0.00274961 7.60567 4.24242 20
254 1 -8.41175 7.39613 7.3455 20
255 1 -8.64253 -5.70897 -5.44558 22
256 1 9.47869 4.07004 -13.0307 13
257 1 4.34567 -4.42867 8.90128 15
258 1 6.51539 13.1646 -9.69735 12
259 1 1.45445 -6.67719 -1.6716 18
260 1 -4.44371 -3.30666 -13.8127 16
261 1 -0.994843 -19.5386 5.98288 9
262 1 10.3714 -2.47795 -7.14794 23
263 1 -10.2375 -3.30971 4.60353 18
264 1 2.79242 -14.2671 -4.18094 18
265 1 -10.1163 -2.97318 -13.0137 13
266 1 3.49205 12.9063 -2.39 19
267 1 3.5816 -2.06861 -17.8165 9
268 1 6.3431 5.79676 13.7474 21
269 1 14.4072 4.79688 -0.245731 18
270 1 -3.46517 -5.49416 1.14374 21
271 1 7.45677 -8.06325 -12.3757 18
272 1 -4.1411 -8.16911 0.265315 21
273 1 -8.65806 -2.25394 -9.63081 16
274 1 -10.3349 0.782551 -9.61381 21
275 1 -9.77602 -13.9738 8.02423 13
276 1 13.8938 0.320634 6.80268 21
277 1 6.65127 -6.93654 9.23762 16
278 1 -8.88181 -6.52597 -13.5629 10
279 1 -0.714887 -6.91314 5.49731 20
280 1 -0.0906634 8.04424 -14.1901 18
281 1 6.47197 11.0106 1.00798 20
282 1 -6.48583 -7.39999 2.02217 17
283 1 -0.273615 11.668 0.975876 16
284 1 -6.58407 -4.15159 10.379 14
285 1 -12.8022 -3.99751 -9.09311 13
286 1 -4.94677 -2.5713 -9.63399 18
287 1 -0.384128 6.23119 -17.2399 11
288 1 -6.91486 -9.39839 -12.8984 10
289 1 -6.70342 -10.291 1.37223 23
290 1 6.3231 -9.23588 -15.2694 13
291 1 13.2205 -0.970546 -10.7815 14
292 1 9.74286 1.95272 3.56892 20
293 1 -3.79338 -5.23046 -5.37361 21
294 1 -9.79675 -4.94887 9.28187 18
295 1 -3.05853 -8.54218 -3.91412 20
296 1 8.847 2.26278 15.4799 12
297 1 -3.63322 -14.6642 3.00435 23
298 1 -2.77729 -11.0081 2.17652 19
299 1 -4.14758 18.0982 -3.52593 11
300 1 8.06852 -1.79669 -15.317 16
301 1 -6.57723 -2.16854 -17.5681 11
302 1 -10.4108 -7.92857 11.731 16
303 1 8.41537 6.20217 17.0556 10
304 1 2.89319 -11.261 -2.98151 20
305 1 -3.80337 -9.32265 -13.0961 16
306 1 -12.9267 7.01333 -8.7865 12
307 1 11.3752 2.26304 6.68318 21
308 1 -2.66747 3.43058 -8.40985 22
309 1 -1.70034 4.7791 -10.8775 19
310 1 -3.39999 -2.36114 6.9505 21
311 1 7.86413 -12.5884 -5.67208 18
312 1 -6.14804 15.4795 -2.47257 15
313 1 1.43895 10.3683 4.62987 22
314 1 9.77115 -0.172329 1.58292 22
315 1 -7.9522 2.30869 6.32048 21
316 1 -1.85411 -7.59431 13.8158 12
317 1 -8.72616 9.36385 5.1994 18
318 1 1.6043 -7.87541 -10.5553 20
319 1 12.9497 14.045 -3.25786 12
320 1 2.63899 -11.3434 0.0976175 18
321 1 -1.16231 0.25216 12.4529 15
322 1 -14.5595 -9.26638 4.05242 14
323 1 0.883621 -16.1894 -1.45952 16
324 1 -7.54637 6.08451 13.2104 15
325 1 -8.47953 4.31685 8.42118 19
326 1 -13.1862 -5.24911 8.21511 17
327 1 -14.6607 -7.9837 6.9004 13
328 1 16.0002 -3.88776 -2.33199 9
329 1 -11.6678 -8.56372 8.56546 21
330 1 9.01962 -7.35251 -10.301 18
331 1 7.29786 -9.21467 -4.95186 17
332 1 -1.03544 18.9979 -2.23242 10
333 1 -1.36967 -4.80123 7.68252 23
334 1 -12.1313 12.9275 0.511887 14
335 1 -1.4143 2.83356 6.61435 20
336 1 11.1591 5.35716 14.4876 13
337 1 -10.4262 1.8243 4.13318 20
338 1 11.422 -9.57793 -2.29407 15
339 1 -4.86157 9.0251 1.98056 18
340 1 -8.37417 7.87228 2.31408 21
341 1 2.85709 -10.4629 8.80699 18
342 1 13.7062 -3.17399 3.14324 12
343 1 -1.20497 9.00633 6.70325 18
344 1 -7.33495 -2.962 -6.69478 23
345 1 -1.55906 2.79585 11.5895 17
346 1 -4.44466 17.592 2.72675 13
347 1 8.64321 8.34983 14.5543 13
348 1 -7.24632 13.3624 -6.61767 18
349 1 -4.42685 -3.06425 -19.8551 9
350 1 -3.65436 2.12389 -6.10836 23
351 1 7.55523 -11.4974 -13.8584 11
352 1 -6.36113 0.953985 10.1899 18
353 1 -17.2242 -0.386494 1.73583 14
354 1 -3.46604 -2.7993 -7.00148 22
355 1 -5.44832 8.78057 -3.77212 21
356 1 10.78 -0.216273 5.40062 20
357 1 -10.0992 -11.2271 0.37407 18
358 1 4.01665 -8.49998 6.11135 22
359 1 -7.93821 -10.0137 12.4784 16
360 1 -13.2508 4.79512 2.75079 17
361 1 0.942065 -5.23043 13.842 12
362 1 2.16436 -10.989 -5.86371 20
363 1 -0.573276 -1.16945 -8.51917 21
364 1 8.06723 -3.95707 -18.0161 7
365 1 -0.425987 13.5519 3.68601 22
366 1 -13.9 2.82046 -0.912078 18
367 1 4.59179 -6.94412 -13.1806 18
368 1 11.9955 4.82919 -11.0779 14
369 1 -5.55551 -13.0425 -8.7473 11
370 1 -13.9949 -7.68601 -5.01226 17
371 1 -3.4068 -6.20324 -2.21326 20
372 1 14.4151 4.05832 14.326 11
373 1 12.7529 3.76617 -4.01727 21
374 1 -8.51782 3.38812 -15.7179 12
375 1 3.62844 17.6621 2.89862 11
376 1 -15.4191 -2.33607 -4.23485 12
377 1 -8.04812 5.10562 4.59239 19
378 1 -8.6428 13.3938 1.81243 17
379 1 -6.41921 7.9274 4.45766 23
380 1 11.0284 2.9477 12.2017 19
381 1 15.7998 -0.280333 -6.17654 14
382 1 9.06379 -1.8122 13.1046 17
383 1 14.2536 3.97078 -9.22226 17
384 1 -5.46683 -15.1599 -5.37614 11
385 1 -5.23195 2.98521 -3.55993 23
386 1 1.17735 -8.26039 -4.85994 20
387 1 -2.97327 12.2883 2.40788 19
388 1 -12.5522 2.45105 -4.29583 22
389 1 7.36876 -11.2572 0.696812 20
390 1 15.1269 -0.768769 4.68082 14
391 1 -11.7211 -5.3259 -4.78959 18
392 1 -9.03657 -11.1656 3.29339 21
393 1 -8.13932 -7.18811 14.1549 11
394 1 -6.64143 13.7909 -0.132187 19
395 1 -13.2011 -10.7231 -3.86558 13
396 1 5.61931 14.0285 15.356 5
397 1 -12.2373 8.06454 -5.2153 18
398 1 3.95915 11.5229 -11.3 19
399 1 4.67607 11.1796 3.87509 22
400 1 -15.3564 -8.57768 -2.18786 12
401 1 -5.75997 -6.71825 -3.95137 19
402 1 -9.23405 -0.203209 7.23013 18
403 1 -14.3404 8.4834 -2.98939 14
404 1 1.84787 -10.393 5.91468 19
405 1 -4.09345 -12.1517 -5.89284 16
406 1 12.899 7.15779 6.7426 16
407 1 7.14863 5.67852 -14.3232 13
408 1 -10.9094 5.09044 -13.2864 12
409 1 -2.83515 13.1504 -14.0834 10
410 1 -10.0271 8.12115 -7.79524 20
411 1 0.381101 -10.7973 3.52471 17
412 1 13.5731 4.22388 6.72292 20
413 1 2.57218 7.34882 -16.2808 11
414 1 -4.53391 4.32592 9.76992 19
415 1 -16.3375 -0.137535 -1.31296 14
416 1 -9.40645 3.16638 1.52313 23
417 1 -3.32722 -16.4469 6.06787 18
418 1 1.57229 -6.31453 -7.09038 21
419 1 11.8233 -10.0291 -8.18745 13
420 1 0.0574432 -2.07529 13.8241 13
421 1 -15.7171 4.52287 5.44141 9
422 1 -13.0676 0.162113 9.27949 16
423 1 -13.5629 11.0993 9.21105 10
424 1 -0.912492 -7.2944 9.72417 18
425 1 -6.23179 4.33703 -18.2732 9
426 1 5.24199 -11.9514 -4.93271 18
427 1 1.4688 -10.6511 -11.4933 21
428 1 -3.77996 -6.45903 10.7565 22
429 1 4.44092 -8.35529 -4.58446 20
430 1 -3.80956 3.03097 -18.844 14
431 1 3.73492 -9.5981 3.22062 20
432 1 0.0148333 13.3927 -6.89951 20
433 1 -11.6709 13.6437 9.1228 8
434 1 -5.75077 -2.94552 14.6942 9
435 1 -13.0403 -1.92901 -11.1654 9
436 1 -6.80874 -6.59103 8.89994 17
437 1 9.8376 -6.75143 10.375 11
438 1 8.24092 4.5349 -1.14716 22
439 1 -7.04126 5.41766 1.57664 22
440 1 4.74144 -1.58892 -6.71538 20
441 1 9.47244 -7.5792 7.3391 11
442 1 13.5948 11.5188 -1.28622 12
443 1 -3.68757 -0.704148 10.455 20
444 1 1.24299 11.9419 -4.34806 21
445 1 5.38339 -5.11295 6.24881 22
446 1 -2.38686 -16.3969 -5.32554 10
447 1 -1.49704 6.11099 13.3162 16
448 1 -4.59602 16.3231 5.5548 11
449 1 -10.3163 -7.83088 -8.29571 15
450 1 7.12885 13.085 4.27532 18
451 1 5.21651 5.89075 7.00002 24
452 1 -11.2 -2.37234 7.79183 19
453 1 -8.09708 -9.59975 -6.09297 18
454 1 -11.0434 2.10413 7.36013 19
455 1 -11.7164 -11.3748 -9.55677 9
456 1 -5.91489 10.1055 9.80149 19
457 1 -6.04682 -10.3481 -7.92566 19
458 1 -0.528511 -8.81455 -13.0905 18
459 1 -4.65872 -12.1904 0.537101 20
460 1 -8.02344 -2.85617 2.8155 24
461 1 8.2582 -1.03864 4.29199 24
462 1 -4.78047 -6.04812 13.7787 14
463 1 -8.38769 7.91278 -12.9968 11
464 1 9.94794 5.89732 1.66382 21
465 1 -8.37459 -13.4957 -4.38067 12
466 1 2.33038 4.61475 -6.1969 22
467 1 -0.0534511 13.5808 -1.94762 23
468 1 0.461295 6.99713 -6.67357 23
469 1 -0.347561 9.41188 10.2765 20
470 1 -11.9708 0.258305 -1.28242 22
471 1 -2.08741 17.7734 -5.70393 11
472 1 4.36127 15.5708 -7.58878 15
473 1 -7.67052 -6.82379 -8.43662 16
474 1 4.88568 0.403498 12.1038 22
475 1 0.471824 -15.0034 -8.49855 17
476 1 3.01051 -4.68058 -11.024 22
477 1 3.42542 -12.9215 4.99043 18
478 1 -13.3354 9.8988 5.68939 15
479 1 5.78867 8.52946 15.1969 19
480 1 10.1915 7.30003 -1.44656 19
481 1 1.12643 10.5179 -1.1205 20
482 1 -5.37772 8.044 -11.771 14
483 1 5.61597 5.41456 -6.32387 20
484 1 4.33998 -8.42808 0.806636 20
485 1 -15.7892 -5.72364 -0.316538 15
486 1 1.32458 16.1621 4.64022 16
487 1 -5.01574 5.02571 -11.7872 24
488 1 12.4879 7.45883 0.478831 19
489 1 6.64996 14.6213 -4.95274 15
490 1 2.88577 -5.61448 1.24496 20
491 1 15.9284 1.73074 -3.75841 17
492 1 0.155251 -2.23671 -11.7254 21
493 1 0.983797 -8.75046 1.12326 19
494 1 -2.04964 -12.9457 4.86925 22
495 1 2.68 -10.0327 12.2255 9
496 1 -8.3664 5.16871 -7.01048 20
497 1 -12.5827 -13.7198 5.73801 9
498 1 0.0177332 -11.5073 -8.92884 17
499 1 6.4753 12.2462 6.87912 18
500 1 5.20978 1.39424 -6.89594 21
501 1 6.08359 -2.21102 13.7939 16
502 1 -10.5837 5.09784 6.33379 20
503 1 -2.62882 -14.3986 -0.204578 16
504 1 -11.9181 -5.64703 0.155475 20
505 1 16.7207 -1.78202 -8.64038 9
506 1 10.3432 -1.31587 -4.36395 22
507 1 -7.13923 8.23836 -6.1062 21
508 1 3.86119 -8.72127 -7.41165 20
509 1 5.32384 2.95279 -12.0911 17
510 1 13.2214 -0.910298 -5.30884 18
511 1 -7.67915 0.747385 12.6214 16
512 1 7.39347 13.0114 -1.44731 19
513 1 -2.98344 -2.35347 -16.5402 17
514 1 5.84872 0.159736 -13.4211 16
515 1 -8.33797 -3.36868 6.70053 21
516 1 -3.6917 13.661 -2.21829 16
517 1 -9.93335 -0.183145 -13.2632 16
518 1 -13.9573 -0.587416 0.326557 22
519 1 -1.63998 -11.7575 -12.811 13
520 1 -5.39051 -12.0003 13.0431 11
521 1 2.0669 9.32526 -8.97862 21
522 1 16.1243 2.52941 5.48406 13
523 1 15.5365 9.08473 -1.1193 11
524 1 -10.538 -11.0381 -2.94095 17
525 1 0.196951 -9.76708 -2.05796 16
526 1 -1.07971 -4.61926 -16.4813 16
527 1 -8.46121 10.5186 7.67685 16
528 1 3.59849 -5.71375 -8.60901 19
529 1 3.13952 7.5185 -1.2085 24
530 1 11.496 -0.627608 -1.36079 22
531 1 2.70652 12.5128 -8.20834 21
532 1 4.69908 -6.50136 -1.22743 17
533 1 14.3353 7.30521 -8.75942 10
534 1 0.949978 11.497 14.0471 13
535 1 -11.1685 7.65708 3.91562 20
536 1 4.56988 11.0289 9.21768 21
537 1 10.3428 -0.135542 15.3942 11
538 1 -0.0164914 1.72837 -14.0398 16
539 1 -5.56865 -5.22231 -7.91454 20
540 1 4.94551 0.189245 15.6751 10
541 1 3.36579 11.7443 6.44534 21
542 1 9.71361 9.20084 -10.1636 9
543 1 -7.90584 10.5479 -8.64974 16
544 1 1.22203 14.9745 -4.1437 18
545 1 12.0109 -4.09262 12.0557 12
546 1 10.6918 -0.557267 -13.0323 17
547 1 12.9425 -10.2049 -5.2562 13
548 1 10.8263 7.63084 12.7383 12
549 1 -14.3188 -8.17303 1.01561 16
550 1 -3.05068 13.9161 -11.2618 16
551 1 -1.12063 0.409883 9.70086 21
552 1 -13.8373 -2.8795 9.70673 13
553 1 -3.24354 13.1795 -8.10299 21
554 1 5.26843 -12.6222 -0.875367 16
555 1 3.25667 -1.83475 -12.3047 19
556 1 -1.56977 16.0437 -7.38641 15
557 1 -7.91749 -3.25076 -14.5632 14
558 1 -0.890523 -16.3811 4.02251 22
559 1 -16.2538 -2.97314 -1.73504 14
560 1 2.63321 10.0274 -13.9529 17
561 1 -7.262 2.65999 -0.947263 21
562 1 -2.91135 10.2217 12.0263 17
563 1 -8.82232 -7.92182 7.80564 21
564 1 4.81816 8.15484 -3.64634 21
565 1 4.90301 -9.10069 -10.6681 18
566 1 4.37637 -5.06593 12.3399 13
567 1 8.24624 -1.09751 -1.22345 24
568 1 -9.83944 8.51064 -0.305894 20
569 1 5.26104 6.2885 19.2196 8
570 1 4.22206 16.6706 -3.7396 14
571 1 10.0072 -4.66534 -4.71595 22
572 1 6.58864 8.5341 8.94025 20
573 1 1.66017 0.903497 -17.0389 15
574 1 -5.5024 -13.4412 9.01977 16
575 1 -3.51602 0.366795 -8.48079 23
576 1 10.7996 -1.98793 -16.0114 9
577 1 0.555983 13.2075 5.892 20
578 1 8.98133 4.59783 -10.0041 19
579 1 -1.72004 -1.21384 -14.0094 21
580 1 -5.07099 -7.99831 -6.44223 22
581 1 -12.96 -0.341588 -13.1282 10
582 1 14.1119 1.68818 -0.609021 17
583 1 17.1467 6.16035 -6.31072 8
584 1 7.61843 -7.15135 -7.01017 17
585 1 14.6238 8.56712 10.0384 10
586 1 5.53714 -10.1637 -2.01856 19
587 1 4.46695 2.3857 -16.4919 12
588 1 5.71361 14.1806 1.72537 19
589 1 -8.93181 5.32804 -1.08444 21
590 1 8.32426 9.08248 11.1658 16
591 1 13.1055 6.8395 -2.84461 22
592 1 13.5095 -0.684561 1.53501 13
593 1 8.92514 5.90228 -6.64888 20
594 1 7.46066 3.60156 12.7426 17
595 1 14.322 3.30085 11.6982 16
596 1 -0.109934 -1.69574 6.76598 21
597 1 9.36735 16.8554 -0.354523 9
598 1 0.834523 2.85806 10.0276 16
599 1 17.3592 2.74012 -7.06769 11
600 1 6.721 1.98101 9.79755 22
601 1 -7.08674 1.9405 -5.84527 22
602 1 12.6131 7.16069 3.83132 20
603 1 7.09938 -7.5827 5.95438 18
604 1 -1.09734 -7.14144 -0.587264 21
605 1 -12.5241 5.17071 8.37455 15
606 1 10.2003 7.60864 8.93433 20
607 1 9.30393 0.169696 9.78766 20
608 1 4.73321 9.05775 6.33266 23
609 1 -0.245663 12.0826 11.784 18
610 1 6.58417 1.91218 4.07527 24
611 1 -1.36858 -19.0847 1.79314 12
612 1 -9.63758 12.9509 -8.3328 10
613 1 12.2272 11.7077 -5.57084 14
614 1 14.6364 -3.87635 -11.0208 11
615 1 -1.63906 17.7707 0.416221 16
616 1 -2.92231 -9.59355 -7.51628 21
617 1 7.45633 -11.3626 -11.3936 14
618 1 -17.0396 1.84864 4.24274 11
619 1 -4.8116 6.3712 -8.96907 15
620 1 -4.0066 -18.4602 3.91941 11
621 1 -0.308457 1.70936 -10.0716 21
622 1 -12.183 -1.45079 -4.2018 16
623 1 8.44104 -6.13283 3.72973 18
624 1 10.7601 9.15788 6.26096 20
625 1 0.699561 -8.0117 7.86309 20
626 1 -14.7091 0.0359358 -6.1058 14
627 1 -0.379138 -1.24188 -16.9866 16
628 1 3.62168 -2.16159 6.61952 22
629 1 -1.93334 5.81136 10.3435 19
630 1 6.79799 9.01203 -11.6064 15
631 1 14.7688 -2.26729 11.8442 10
632 1 9.74896 4.1756 -3.91214 17
633 1 8.57944 14.9027 1.83452 15
634 1 3.90333 -13.8544 -6.97731 15
635 1 -11.7954 -2.12803 12.3483 13
636 1 13.0345 1.84121 3.9992 21
637 1 -1.28854 11.585 8.4917 19
638 1 4.50186 14.8534 -10.5192 11
639 1 -9.0533 11.4672 -0.459492 19
640 1 8.51471 10.9797 3.17696 23
641 1 -7.64943 -16.4972 -3.14104 9
642 1 6.5024 -5.70513 1.80137 22
643 1 2.96154 13.5544 3.46485 19
644 1 -4.40532 1.9686 8.84398 18
645 1 -11.5778 -7.84046 2.20615 17
646 1 -10.0135 -2.75586 -5.95963 17
647 1 9.51517 -1.92742 7.57628 20
648 1 -2.21078 -10.5993 13.1683 11
649 1 9.05639 5.76474 11.1046 19
650 1 -6.96946 11.0205 2.06433 22
651 1 11.8774 2.36959 1.43978 22
652 1 9.37876 8.14687 3.90653 21
653 1 1.69364 0.619799 -11.4909 19
654 1 -7.87933 -0.325404 4.53455 22
655 1 8.39522 -4.29759 -9.38171 24
656 1 -0.879538 -3.81038 -6.14932 22
657 1 9.60081 -10.2662 -6.14202 17
658 1 7.84213 4.69369 4.33757 23
659 1 5.05793 4.89643 3.679 21
660 1 -14.141 0.0888864 12.194 9
661 1 11.6614 5.08239 9.44722 21
662 1 3.12353 -3.0372 14.9451 11
663 1 -0.322436 5.64229 7.09838 20
664 1 0.552888 -3.47157 -14.2404 15
665 1 -4.46642 1.53391 12.4772 20
666 1 3.94287 3.62019 11.7474 20
667 1 -9.3153 -13.949 4.64644 19
668 1 11.4163 14.1807 -0.0334956 13
669 1 8.36078 -10.7808 -2.67129 18
670 1 -3.41774 5.69782 -3.92138 22
671 1 8.28523 10.0813 -1.89291 18
672 1 9.85793 11.9734 5.54576 17
673 1 4.87488 -4.23345 -16.8961 13
674 1 -2.8907 0.143298 7.08373 19
675 1 3.57532 13.7191 -5.49011 22
676 1 11.9721 10.0912 3.33909 18
677 1 -5.73895 -9.21412 -1.44634 22
678 1 -4.69625 0.10076 -13.6362 20
679 1 -5.48471 12.1148 -4.26337 22
680 1 11.8869 -4.0525 -9.89429 18
681 1 6.6654 5.75844 1.25454 21
682 1 11.473 6.77599 -8.87743 18
683 1 10.3912 11.8714 -2.90816 18
684 1 -4.55504 5.07482 4.52155 23
685 1 -5.27958 5.36985 -1.07074 21
686 1 7.70847 7.98586 -5.59273 17
687 1 15.1581 0.744886 11.7946 12
688 1 11.5667 -0.564277 12.3907 19
689 1 -3.31001 -12.4764 10.6376 15
690 1 -2.22197 9.23688 -8.22491 18
691 1 2.52069 14.8714 7.05148 16
692 1 8.75052 -5.10489 -12.6279 17
693 1 2.41748 3.44541 6.83227 21
694 1 10.0817 14.3392 -4.88906 12
695 1 5.95553 7.43791 4.23019 21
696 1 15.1365 -6.20981 -5.01314 13
697 1 3.00939 8.75662 17.9829 11
698 1 -13.6395 -2.06984 6.38424 18
699 1 0.431543 -17.0409 1.4332 16
700 1 -3.05033 -0.200379 -10.8852 16
701 1 -11.0875 15.403 2.02748 9
702 1 -1.57707 4.86086 4.16632 23
703 1 7.0629 -5.83783 -3.40648 20
704 1 3.16139 11.5723 1.10927 20
705 1 -14.0527 -2.18246 3.19449 21
706 1 1.21297 4.66277 13.7083 17
707 1 -3.60939 6.01836 -16.9843 14
708 1 -3.03507 8.56512 -15.1263 14
709 1 4.02526 -12.1454 2.17121 19
710 1 6.47535 6.83248 -8.80934 20
711 1 2.05381 -7.02566 4.12494 22
712 1 -4.87124 10.8115 -0.46822 20
713 1 -12.3422 2.73527 10.4366 14
714 1 5.71575 -4.03446 -13.4257 18
715 1 -1.06463 -10.3261 7.74841 19
716 1 1.42444 16.6881 -1.4428 19
717 1 -2.48201 3.00382 14.2855 14
718 1 -10.5646 -5.34932 -10.488 13
719 1 -5.6946 -6.91176 -14.4321 14
720 1 -8.42875 -10.9367 -10.0528 11
721 1 -0.842972 15.3139 -9.68616 18
722 1 5.05817 -3.04705 -9.90378 21
723 1 -2.51663 12.7134 5.9025 17
724 1 6.26079 -12.3695 -8.59623 12
725 1 7.83321 -13.726 -2.12225 17
726 1 2.01444 -5.20154 6.6637 23
727 1 15.9986 1.16215 -9.28347 12
728 1 -0.996343 -13.3685 -6.16862 15
729 1 -10.8278 -5.54616 6.5143 18
730 1 2.32896 1.87462 -8.11533 18
731 1 -4.08604 -15.9466 -2.61449 17
732 1 -6.04377 -10.0921 -4.20019 19
733 1 -9.49649 1.59684 9.64464 21
734 1 -5.73886 -15.0735 -0.738012 13
735 1 15.8991 4.90356 -3.21946 17
736 1 -6.2694 14.6251 6.82696 13
737 1 -5.05879 2.70691 6.34723 20
738 1 -13.4823 6.64575 5.58444 17
739 1 11.3334 -3.20608 0.6383 22
740 1 -14.2989 0.703591 -9.77886 12
741 1 -1.84524 8.2624 -4.24015 20
742 1 8.40634 -0.19585 -6.20669 17
743 1 6.72937 11.732 11.2912 15
744 1 11.475 4.75114 -1.04947 20
745 1 -12.5645 1.98518 -7.63788 17
746 1 -13.0513 -6.94843 -8.49547 12
747 1 0.417053 7.08709 15.933 12
748 1 6.02328 5.76903 -11.4083 18
749 1 7.5001 9.99217 5.89726 23
750 1 -2.98278 -2.93099 13.2466 17
751 1 0.531355 -17.8635 -4.33181 11
752 1 -7.95423 -13.4732 0.92232 17
753 1 -1.14255 -2.61464 10.574 19
754 1 14.9227 10.2613 7.25703 11
755 1 -0.293082 -5.54587 -11.5327 21
756 1 -7.9294 11.1541 -5.7207 21
757 1 4.87321 8.67385 1.37308 21
758 1 -8.66081 -5.11056 1.17133 20
759 1 9.50849 6.7393 -12.0079 13
760 1 0.154952 -17.975 -7.12559 9
761 1 3.13538 -14.8485 0.971411 20
762 1 1.00524 -13.2402 -1.42306 14
763 1 5.49914 3.92084 -8.83915 18
764 1 4.27074 17.5299 -0.258487 15
765 1 -4.96301 0.168595 -19.9205 9
766 1 -4.15479 0.00220779 15.1174 12
767 1 2.78454 3.49396 -10.6117 19
768 1 -11.7326 2.22779 -12.1242 17
769 1 -12.4715 -3.50534 -1.42093 18
770 1 1.54211 16.4308 -6.35883 14
771 1 6.40428 -3.56737 -1.42001 21
772 1 -3.61296 -7.02471 -15.8918 10
773 1 -6.57035 -6.36337 -0.931787 23
774 1 11.0716 6.37971 -4.90958 20
775 1 11.7629 -7.12725 -0.61945 14
776 1 -6.35831 8.93019 12.96 17
777 1 7.19396 -8.65332 2.46314 22
778 1 13.5975 -4.91883 -0.0790806 13
779 1 13.9948 -3.93081 9.57703 12
780 1 3.86809 7.91235 9.66929 23
781 1 -10.6992 4.72644 12.0934 12
782 1 -6.23476 5.25591 7.0874 21
783 1 -3.91444 -15.849 8.87469 11
784 1 8.40442 -2.6986 1.31074 22
785 1 5.87145 8.63779 12.1743 21
786 1 -15.9998 -3.31328 1.3894 15
787 1 9.52866 -7.22538 -2.90956 19
788 1 -13.192 11.8148 -2.80562 8
789 1 3.32747 5.79257 1.37181 23
790 1 2.03813 -15.7683 6.33689 13
791 1 1.72608 0.287791 11.9974 18
792 1 -1.48151 10.6396 4.15114 21
793 1 1.24061 -13.0015 7.36463 13
794 1 -7.26639 -3.46006 -0.950049 18
795 1 3.60568 2.29067 9.51252 20
796 1 -15.2962 -5.39525 -3.61937 14
797 1 -1.26276 9.96563 14.7624 11
798 1 0.94649 17.4437 1.44905 15
799 1 -6.05874 -8.51869 6.1255 19
800 1 -6.43218 -16.0942 4.34661 13
801 1 8.49106 -4.65562 5.95721 24
802 1 11.4005 -4.95648 8.63364 17
803 1 8.23886 7.09747 6.87848 17
804 1 -3.58552 8.06933 -1.89922 19
805 1 -2.75332 -6.12275 -12.6881 20
806 1 -6.00684 1.23127 -16.9015 16
807 1 -1.39234 -5.09847 12.08 19
808 1 -4.75288 18.1787 -0.597674 11
809 1 15.2457 2.99462 2.12855 13
810 1 3.39185 7.89955 -6.71165 21
811 1 -4.72379 10.4907 15.3622 7
812 1 5.99389 5.49315 10.1501 22
813 1 8.26473 -1.8506 -12.5164 19
814 1 -7.70005 -11.5676 -1.70047 19
815 1 -6.41863 0.689807 -3.24525 22
816 1 17.2277 -0.165721 6.52736 10
817 1 2.16371 -2.13151 -9.23369 21
818 1 0.576353 8.09996 12.822 18
819 1 11.1244 -12.9814 -6.0005 11
820 1 6.80205 3.13227 -14.5976 16
821 1 -1.72588 -7.2536 -6.27199 19
822 1 11.6377 4.14135 -7.26532 20
823 1 12.4682 -3.09279 -2.6674 19
824 1 1.00042 -4.84778 9.43905 18
825 1 -4.51431 -7.7549 -9.69753 18
826 1 8.01018 16.558 -3.32907 12
827 1 -2.33466 -4.55544 4.1136 20
828 1 -13.3086 8.23076 8.73762 12
829 1 14.2707 5.64173 -6.40888 22
830 1 14.8397 6.85958 1.86487 14
831 1 1.10615 -6.2959 -13.8331 16
832 1 -4.87122 10.8605 4.49132 22
833 1 15.1426 9.35302 4.44395 14
834 1 11.0598 16.2882 -2.50858 10
835 1 3.24103 1.84781 -13.9652 20
836 1 9.77559 -4.03054 -1.72886 20
837 1 -12.1106 1.96802 1.66068 17
838 1 11.0671 4.65744 4.03391 21
839 1 -12.7303 -10.1604 -0.397554 14
840 1 -14.9356 6.66955 -5.57942 11
841 1 5.40023 3.44924 6.75878 21
842 1 -9.93489 2.82912 -7.52887 23
843 1 -13.2942 3.00947 4.95625 19
844 1 -1.57238 4.83393 -6.06713 26
845 1 10.2101 -6.08896 -7.4717 21
846 1 -13.6131 -10.0318 -7.18881 11
847 1 13.2114 -7.2645 -3.09973 16
848 1 -18.2035 1.9104 0.619616 9
849 1 -10.8168 -8.54632 -5.71882 22
850 1 12.0732 1.6091 9.7525 19
851 1 -2.88354 -7.99704 7.62462 20
852 1 11.7164 2.26269 15.311 13
853 1 12.5145 -3.00551 6.1092 17
854 1 10.5385 -3.74045 4.01733 21
855 1 -14.0365 0.655575 3.61969 21
856 1 1.84646 12.3647 9.15412 21
857 1 3.69747 8.32079 -11.5956 19
858 1 -3.27286 -4.86901 -18.2895 12
859 1 -5.82743 14.821 11.9534 7
860 1 -12.998 -13.015 8.60978 9
861 1 10.1192 9.39208 -6.79707 18
862 1 2.40971 9.94421 11.7977 18
863 1 15.344 -3.17743 -5.44481 16
864 1 5.8189 -8.08773 11.9487 9
865 1 -0.0478767 14.3902 -14.4357 10
866 1 5.20128 10.0994 -9.2014 20
867 1 -9.15108 -1.98708 10.358 16
868 1 16.7938 8.47042 7.34523 8
869 1 -4.85626 1.84092 -11.0665 17
870 1 10.6652 13.1542 3.12833 14
871 1 -16.8429 3.16912 -1.82126 11
872 1 -7.50279 -11.3804 6.67822 22