ITEM: TIMESTEP
20000
ITEM: NUMBER OF ATOMS
2000
ITEM: BOX BOUNDS pp pp pp
-30.0 30.0
-30.0 30.0
-30.0 30.0
ITEM: ATOMS id type x y z Coordination
1 1 -9.30051 1.49298 -12.9825 13
2 1 -1.88943 -11.5469 -5.00226 22
3 1 2.89419 14.5118 13.4652 11
4 1 8.46126 -8.94825 8.67225 14
5 1 -8.12026 7.95819 1.22944 23
6 1 13.5911 -8.49466 -12.9795 10
7 1 -11.4945 3.41222 -2.06941 22
8 1 0.586877 -4.96682 16.6305 11
9 1 -4.35313 1.67706 -11.0187 21
10 1 -10.5667 -10.3792 7.26709 13
11 1 15.7488 3.00152 -10.0537 10
12 1 -2.75251 4.22115 -3.95319 20
13 1 -2.61803 -12.1024 2.67758 19
14 1 -9.92751 -8.40954 4.43126 19
15 1 3.59788 5.75964 14.885 21
16 1 7.73506 -5.24919 4.71936 22
17 1 -0.0267577 4.01973 10.8334 21
18 1 11.6794 -2.51537 1.60173 20
19 1 0.387546 11.4498 -7.74676 17
20 1 1.52239 1.16321 11.0536 20
21 1 -7.9616 -1.30628 -15.0866 12
22 1 -9.31444 -3.48923 12.8566 19
23 1 13.6893 -0.403668 8.14591 20
24 1 4.37193 8.83053 -10.2565 17
25 1 2.80743 3.8479 -13.3736 16
26 1 10.6023 0.835314 9.74276 20
27 1 -8.28289 -0.069564 2.14715 23
28 1 -9.67912 0.793805 -7.42406 18
29 1 -2.52136 -0.285916 -7.80221 21
30 1 -12.0835 11.3625 11.0272 12
31 1 7.80579 -14.4878 3.78197 13
32 1 -0.144506 -1.19162 7.57348 25
33 1 1.75723 -14.9059 -9.05218 18
34 1 8.54774 -6.74416 -4.22635 23
35 1 -7.66546 -10.7544 -2.8462 18
36 1 -9.27488 -8.40334 10.6309 15
37 1 5.75808 -1.70452 -5.18119 22
38 1 7.99513 -4.02721 -12.3889 22
39 1 9.30105 -12.1066 -12.1365 16
40 1 -1.95716 2.53406 -16.196 13
41 1 2.02869 6.19369 11.7728 21
42 1 1.51588 -11.5926 9.74826 14
43 1 5.50614 -4.68897 16.5278 12
44 1 -11.706 0.865093 0.485671 20
45 1 -13.1322 -5.2526 11.1221 11
46 1 -6.25818 2.37175 -0.892859 19
47 1 -2.75012 12.1676 -2.62448 20
48 1 -0.0428135 -12.1583 -10.3396 20
49 1 5.15883 -4.46889 -10.5375 24
50 1 8.12923 -6.50025 -14.3182 17
51 1 0.334529 -2.13464 14.0451 22
52 1 -10.4312 5.05114 -0.123466 20
53 1 5.14933 10.9285 -12.5148 13
54 1 1.01224 15.5777 7.02579 18
55 1 -11.3861 8.43023 -7.28893 11
56 1 -3.11952 14.3214 -0.378903 19
57 1 5.03877 -10.9536 -0.260669 22
58 1 8.7655 -7.9214 -7.69146 20
59 1 7.21323 -8.49559 -16.061 11
60 1 -9.47287 12.7854 12.5029 10
61 1 -11.9759 -5.65539 -6.87366 14
62 1 5.71499 -2.4139 4.55706 22
63 1 -6.87688 7.99191 -3.93693 21
64 1 -7.65747 -9.44583 6.84893 20
65 1 -2.09273 12.0381 8.90669 19
66 1 -11.3741 4.94466 -6.72751 13
67 1 -6.01113 13.1258 12.6165 14
68 1 2.46763 9.09853 -7.41019 18
69 1 3.00197 4.24554 6.35746 18
70 1 -2.76265 -13.8545 5.2784 19
71 1 2.86314 6.27945 8.14295 20
72 1 8.8645 -16.7181 -4.19912 12
73 1 3.83044 11.4392 14.9511 17
74 1 -14.0932 -0.173766 -5.59018 14
75 1 -13.5709 5.68499 -4.62168 13
76 1 3.83095 8.39089 13.107 23
77 1 14.4118 -2.85146 -10.3712 16
78 1 11.6416 -9.66606 5.71077 10
79 1 -14.0602 -2.36962 7.58981 15
80 1 -11.2519 -1.68364 6.51374 16
81 1 4.02987 16.6145 7.45927 11
82 1 5.13212 -1.84897 14.4652 21
83 1 -5.04376 -12.087 5.36728 19
84 1 -9.07736 2.54284 0.892096 22
85 1 10.3901 0.935301 6.43952 21
86 1 8.82929 -1.70846 -0.348793 21
87 1 -0.58316 14.4327 10.1063 17
88 1 5.79196 -2.38035 7.66802 18
89 1 -5.76627 -6.73885 3.86851 18
90 1 -2.51574 -6.0149 -7.57163 22
91 1 -12.4245 9.44357 8.58513 18
92 1 -7.35156 14.5252 -2.73787 12
93 1 -3.51045 8.04199 -10.3568 21
94 1 8.08524 1.01408 -2.138 21
95 1 4.89681 1.07192 -3.70345 23
96 1 8.14267 13.0452 -4.86252 18
97 1 8.3517 -6.77615 -0.72484 21
98 1 6.8624 -9.38155 11.5776 11
99 1 -5.05374 13.3011 -4.32414 16
100 1 -6.46271 12.778 4.73881 20
101 1 -4.55431 -1.80998 15.801 14
102 1 -1.93484 9.43957 6.67314 22
103 1 -3.2252 -8.28782 8.11266 22
104 1 16.6637 -8.74705 -7.1219 11
105 1 -10.8998 4.61022 7.25983 23
106 1 -7.63473 -14.4222 4.54399 14
107 1 15.4739 -11.3411 -5.29452 11
108 1 6.54368 -1.68309 -8.66339 22
109 1 -5.30362 -7.52823 -14.961 9
110 1 1.97716 1.37216 7.60181 23
111 1 0.285425 10.2876 1.65205 19
112 1 -6.88753 6.23497 -10.4314 19
113 1 -2.58176 6.22987 18.1259 13
114 1 0.173803 11.7511 -3.85074 19
115 1 -14.5739 8.39724 3.20581 12
116 1 -0.364212 7.19626 2.92778 22
117 1 -2.94462 -6.1991 15.7865 10
118 1 10.921 -2.42163 11.8594 18
119 1 2.36243 -4.22707 -5.50979 21
120 1 5.73835 -7.2955 -8.91253 23
121 1 -1.82291 5.95915 11.8857 22
122 1 7.4927 -2.75734 15.9815 15
123 1 -9.00301 -5.48496 -3.59452 21
124 1 4.54056 -4.56057 2.87194 23
125 1 -5.33888 -10.9229 -4.70765 17
126 1 10.4502 -12.8575 -0.906147 19
127 1 -2.62896 9.33493 3.28869 23
128 1 5.54544 1.04914 -10.1837 22
129 1 10.3976 14.4275 -0.420812 14
130 1 -5.64405 -13.3189 10.8423 11
131 1 -5.65902 -13.9135 8.14077 14
132 1 -4.93038 5.27741 -2.53903 19
133 1 5.12412 -9.84045 -14.1334 18
134 1 7.19405 7.62689 -5.74137 20
135 1 12.5762 -10.2083 -0.273779 15
136 1 2.19432 -16.1828 5.70425 11
137 1 -9.00635 -4.95504 -0.334303 23
138 1 15.8173 1.55732 9.88363 9
139 1 15.1829 -3.2692 -6.71253 18
140 1 -11.9314 -2.1044 2.90702 19
141 1 10.1978 6.16646 6.71189 22
142 1 18.364 7.01603 5.13716 10
143 1 -5.63491 1.34226 17.5706 12
144 1 6.13976 6.02888 -0.429826 22
145 1 -4.36421 10.2519 12.0033 16
146 1 -6.06438 10.8203 -8.19942 11
147 1 0.255922 -6.80411 -12.0567 22
148 1 12.9875 -11.3596 -11.3987 11
149 1 2.49316 14.2053 -8.3249 21
150 1 5.76076 -2.0865 18.8112 11
151 1 1.25009 -1.16014 -16.2057 16
152 1 -2.69161 6.72627 -7.06827 24
153 1 12.9677 2.38663 -4.64876 19
154 1 -12.0335 8.74073 -4.13066 12
155 1 -6.35106 15.2654 0.847899 15
156 1 8.79418 1.1072 -8.50898 24
157 1 9.6753 -10.837 2.14655 17
158 1 -6.18433 1.76132 -7.77361 24
159 1 -7.90408 14.6773 10.2952 10
160 1 14.8945 5.91365 -8.97883 13
161 1 8.04643 12.0929 -1.87264 22
162 1 -0.323247 13.8026 -0.392145 20
163 1 17.018 6.0921 2.51377 16
164 1 -2.60708 11.7798 -5.95613 15
165 1 2.11237 15.4541 -2.87033 19
166 1 3.07187 9.19276 -14.9024 12
167 1 -10.7538 -12.5512 4.66031 11
168 1 -12.0949 7.31854 1.32589 17
169 1 -3.22288 -0.0960975 -14.0117 18
170 1 2.15082 -11.1584 -14.9253 10
171 1 8.78918 13.5578 11.1777 11
172 1 1.83879 18.2576 5.30843 9
173 1 -14.4721 -5.02907 -1.68535 12
174 1 -8.95498 13.4561 6.10896 15
175 1 15.4637 1.66104 -2.93101 19
176 1 -10.6051 -1.25782 -13.373 11
177 1 3.28525 -0.0175033 18.5551 11
178 1 8.0014 12.8966 4.45509 15
179 1 -4.74827 7.58333 10.3246 19
180 1 3.28943 -7.42097 -13.5675 21
181 1 -3.62467 14.9254 4.77719 16
182 1 0.0692954 7.508 -6.74822 19
183 1 2.98337 -4.49697 14.3269 21
184 1 -6.95209 -4.17845 5.12117 18
185 1 0.613414 -15.0962 -11.7853 9
186 1 -8.16181 9.37541 -7.17153 21
187 1 0.0740247 -14.1977 1.85999 18
188 1 4.23283 -13.8944 -3.07394 18
189 1 -2.31152 10.6575 -11.3011 19
190 1 -13.6635 1.22843 10.6831 13
191 1 2.99576 6.57752 -1.70806 20
192 1 9.04925 8.71145 -3.80537 19
193 1 -8.55629 8.13687 16.0299 15
194 1 0.725177 -6.95896 13.6969 14
195 1 -6.26131 2.16457 2.35178 21
196 1 5.66449 15.5981 2.47691 16
197 1 3.65777 12.4087 11.4751 20
198 1 11.1441 4.68588 12.5145 15
199 1 -6.1092 15.9807 4.55992 9
200 1 15.0534 -5.79242 -8.38851 16
201 1 -5.12388 13.1682 9.83748 13
202 1 -3.11858 3.47567 -7.10755 20
203 1 11.3397 -7.28308 -2.35344 21
204 1 -3.92888 -3.70535 4.23786 22
205 1 -15.491 2.68645e-04 8.32796 11
206 1 -5.83608 -6.02638 1.11042 22
207 1 5.75915 3.67218 14.6325 24
208 1 -16.3154 -0.791378 -0.359467 11
209 1 -5.83819 -12.8898 -1.2214 16
210 1 -5.47853 -0.38872 -2.93222 22
211 1 5.52606 -7.56059 -5.50279 20
212 1 -2.03432 12.0152 5.23663 21
213 1 -5.63186 -1.00582 3.78652 19
214 1 5.71778 15.5831 11.6147 9
215 1 -9.3617 -2.3972 -2.8157 23
216 1 -2.09891 9.71655 -7.84858 16
217 1 -11.5885 -5.19791 1.77737 17
218 1 -11.3533 -0.324027 12.2479 16
219 1 -1.00923 -9.94413 2.48864 17
220 1 6.94143 -10.1745 3.82659 17
221 1 -8.9731 8.68524 9.12384 18
222 1 16.3148 0.6934 6.31056 13
223 1 5.57002 5.21958 -5.40876 21
224 1 -5.20516 -8.33024 -11.6354 15
225 1 4.42003 0.773735 12.7321 21
226 1 10.5982 -13.1036 5.16745 9
227 1 1.8414 5.65997 -7.77174 17
228 1 4.18216 -15.4853 -11.0023 18
229 1 8.03975 2.2316 -13.7791 16
230 1 4.45833 7.05263 -12.935 19
231 1 -6.47993 -4.1868 -7.3912 21
232 1 0.661761 16.158 -6.0943 12
233 1 -8.15649 -11.3217 9.52323 16
234 1 9.47127 15.1717 -3.03649 11
235 1 -10.7464 5.23599 16.4399 11
236 1 -6.55463 11.1035 -4.58964 19
237 1 7.53977 -5.3045 7.95816 23
238 1 -1.16845 -9.04785 -11.1428 23
239 1 -5.39873 9.56221 -13.2206 13
240 1 2.50777 1.1825 -11.7177 22
241 1 -4.43277 -8.67413 5.7767 19
242 1 -10.3437 7.44966 6.73833 21
243 1 -6.69582 10.1438 10.5637 17
244 1 5.33383 -13.5766 -8.25581 20
245 1 -3.19139 -13.8099 -0.457226 16
246 1 13.1281 -12.0371 -2.63711 15
247 1 -0.356691 -9.22493 -0.840105 21
248 1 8.75727 8.80337 13.6512 15
249 1 5.60435 9.55409 -7.16693 19
250 1 2.07938 9.72203 -1.45453 22
251 1 -9.31582 2.83292 4.14851 21
252 1 -9.7356 7.9774 -1.23555 21
253 1 0.0463131 8.62311 12.3639 22
254 1 10.1213 -16.2839 -0.588246 10
255 1 14.6172 5.04588 -2.62388 22
256 1 1.49861 9.33458 7.3317 16
257 1 -7.99467 5.64273 5.74697 19
258 1 -8.92883 -6.79378 -6.45771 21
259 1 7.0325 4.63704 -11.3637 17
260 1 2.58643 -1.34613 9.30527 24
261 1 9.11286 10.2323 -9.79754 13
262 1 4.60382 -9.91089 -7.77177 20
263 1 -2.51358 -0.596255 -10.8874 19
264 1 3.02259 -15.2717 3.29451 15
265 1 10.7657 -4.42824 -10.308 24
266 1 -8.06865 -1.99382 10.6412 19
267 1 10.6874 -14.4881 -3.22504 17
268 1 -9.56171 -4.6564 -8.50713 19
269 1 5.32974 13.7224 0.130038 23
270 1 5.23528 -4.29136 -13.7212 22
271 1 8.151 6.11432 15.8602 17
272 1 16.7907 0.0171325 0.454194 16
273 1 -5.95915 -5.8529 -2.2471 23
274 1 14.555 -8.49291 -9.86411 13
275 1 -0.25583 -6.36056 0.856196 20
276 1 -3.42168 -3.26307 -12.5569 20
277 1 -11.1695 -1.40696 -5.60795 20
278 1 -3.89726 -8.3757 10.8979 19
279 1 7.66939 0.851924 11.4733 21
280 1 4.60624 -6.86019 11.6076 18
281 1 -2.91891 -5.85182 -10.9884 23
282 1 2.92504 -6.9505 5.98838 20
283 1 1.52116 6.08441 -14.7417 20
284 1 5.25364 6.30221 2.82183 21
285 1 -6.94995 -2.86756 2.02841 22
286 1 4.87639 12.0316 3.29512 20
287 1 -2.11329 -3.47921 15.0717 15
288 1 -7.73061 -7.94634 -9.11841 15
289 1 -5.84912 -5.785 -9.49712 19
290 1 -1.66101 5.6277 -14.8151 17
291 1 -7.25419 -8.26624 -3.7759 20
292 1 -3.57111 -10.7169 0.0771777 21
293 1 12.1184 -2.20968 -12.3015 17
294 1 14.3576 -0.0275526 -8.20316 18
295 1 8.70188 3.3591 3.17338 20
296 1 -3.63702 -3.6414 -2.45715 22
297 1 -7.36263 2.68654 8.05579 20
298 1 -0.971925 -12.2725 0.356475 17
299 1 10.6072 1.23006 13.0708 22
300 1 -5.84966 -16.0805 2.65129 10
301 1 5.06839 -14.4145 0.0989781 20
302 1 3.66838 15.622 -0.439521 19
303 1 6.44497 -1.63147 -12.1088 24
304 1 -2.67979 -7.50104 -13.5387 19
305 1 10.6578 -4.66759 -3.69391 19
306 1 -6.47539 -8.18525 9.59181 20
307 1 3.20277 3.27058 17.4704 18
308 1 2.04717 -9.84093 -6.14956 19
309 1 -5.88915 -13.8299 -9.50504 9
310 1 -9.84229 8.31069 -9.77637 10
311 1 8.4585 3.08819 6.59395 23
312 1 -3.30437 2.72223 -13.3563 16
313 1 -0.750724 7.68511 -9.78196 19
314 1 -4.63688 -3.15567 10.8558 21
315 1 8.58638 -13.6499 -9.2221 18
316 1 -8.22299 13.1434 -0.264071 14
317 1 5.70993 8.95335 8.22255 20
318 1 10.6106 0.37049 3.16287 19
319 1 -10.8158 1.72527 6.62046 17
320 1 -1.41037 -4.30332 12.3226 18
321 1 -4.49925 10.6387 8.39318 22
322 1 3.04029 -6.80097 -10.384 22
323 1 15.9476 8.74021 1.64677 16
324 1 2.58907 -7.10424 -0.722346 22
325 1 3.24603 -2.11182 12.0523 22
326 1 -10.0472 -5.02015 6.167 19
327 1 2.65512 -17.3692 -2.48207 12
328 1 -7.72907 11.5726 14.6137 14
329 1 -9.52725 9.60205 12.7481 20
330 1 -10.6723 -6.53512 13.1182 12
331 1 -11.5892 -7.66224 9.45343 12
332 1 14.1996 -3.67544 -2.96696 21
333 1 -5.02109 -10.7517 7.94174 20
334 1 8.99026 -2.2674 -10.2928 22
335 1 12.3563 -12.246 -5.51349 14
336 1 7.2609 15.9849 -0.652394 13
337 1 -1.09054 -8.96247 5.82254 19
338 1 -9.83367 11.6107 -2.34185 14
339 1 -1.462 0.893339 9.35638 21
340 1 6.3339 6.68565 13.4692 19
341 1 -12.9862 3.23403 4.47661 19
342 1 8.64543 -12.0843 -3.7923 21
343 1 -1.64846 9.53516 -4.49567 21
344 1 -5.49924 7.64413 2.63649 20
345 1 9.66221 -11.1048 7.45978 11
346 1 14.5897 -7.04559 5.48399 8
347 1 -3.03795 6.28018 8.53654 18
348 1 -5.31002 -0.638807 -5.8972 20
349 1 -2.39533 2.91049 16.8848 18
350 1 0.858503 17.4013 -0.933575 10
351 1 11.1953 3.98097 15.5 14
352 1 -8.25602 12.9068 -5.85467 11
353 1 1.14208 -6.53397 -16.0244 12
354 1 -5.8961 2.53488 -4.60846 22
355 1 7.66345 -11.8566 -14.8897 13
356 1 -10.0171 2.24958 14.2975 13
357 1 -14.8865 1.16469 5.4598 12
358 1 -0.645037 -3.2925 -7.42345 23
359 1 -5.05982 10.0981 4.69919 22
360 1 4.44001 -4.4858 9.48039 20
361 1 -7.87186 -8.39339 2.09767 19
362 1 8.48403 -7.55199 2.70217 20
363 1 -3.90148 -11.0367 12.8333 10
364 1 -14.1905 5.37729 2.64522 16
365 1 -1.59121 -3.66241 9.2314 24
366 1 9.59094 -11.5799 -6.89183 19
367 1 -3.65153 -3.14864 -9.15087 23
368 1 9.18702 -0.90744 -13.7962 18
369 1 11.3839 9.28053 8.34785 18
370 1 -11.036 0.234763 -2.86371 20
371 1 4.7437 -13.534 -13.7964 12
372 1 9.77719 4.89305 -11.8155 17
373 1 -1.47351 -14.1913 -6.0669 18
374 1 -12.7587 -6.24009 -4.28605 16
375 1 -3.16768 -7.00734 -0.840139 20
376 1 8.61333 2.66425 17.0494 13
377 1 20.0691 5.71797 2.56621 7
378 1 -8.62494 2.74674 -10.0148 15
379 1 6.44332 15.5529 5.7307 10
380 1 -11.5757 2.02385 -5.15905 21
381 1 -5.6253 7.89425 6.68809 17
382 1 -10.2054 11.6162 4.08185 17
383 1 -3.6527 6.64824 4.86267 20
384 1 13.1421 -0.93808 14.0893 13
385 1 11.6708 -2.36632 -5.18546 18
386 1 6.42585 -6.44232 14.1424 13
387 1 13.991 -0.663417 -5.19579 19
388 1 -3.30817 -15.8362 -2.11442 11
389 1 -4.98758 9.7431 0.448796 21
390 1 0.47652 -12.0795 -7.43452 24
391 1 0.316003 10.4033 4.55172 19
392 1 -8.75612 2.69472 -2.73226 21
393 1 7.81974 -9.49987 -2.65496 20
394 1 10.8395 -4.77958 6.21841 22
395 1 -9.69304 -3.55646 -5.64169 20
396 1 -4.86022 -9.74479 2.46466 20
397 1 -4.24659 -5.16339 12.9902 18
398 1 -4.14707 12.4091 2.35765 23
399 1 -8.52568 -7.93198 -1.07994 23
400 1 4.56974 10.0656 17.821 12
401 1 -6.14857 7.49405 -1.10373 18
402 1 4.03754 15.9654 -5.82848 16
403 1 13.473 11.0894 7.0324 10
404 1 -10.6326 -8.41314 -4.41033 19
405 1 -0.78945 -8.80274 -7.29627 23
406 1 -8.75105 -0.0136724 8.77139 17
407 1 -9.2758 9.21774 -4.34279 21
408 1 4.15405 -10.0985 6.38954 19
409 1 -3.97029 -14.1702 -3.94547 18
410 1 13.5746 4.93357 6.07192 21
411 1 7.81077 7.38563 -8.69818 20
412 1 -10.6364 0.474463 -10.2181 15
413 1 -0.343997 15.378 -9.09224 9
414 1 -4.08295 8.55251 -5.14995 18
415 1 2.99205 -12.738 1.66892 22
416 1 10.9823 4.26756 4.64329 20
417 1 1.96793 6.42403 -10.88 20
418 1 -2.88602 -1.0507 12.8019 21
419 1 -14.862 -1.46274 4.58601 10
420 1 -5.28809 5.02138 7.81609 21
421 1 0.0837746 -12.5242 4.32106 17
422 1 2.88774 -7.21104 -7.54851 24
423 1 7.44747 -15.2436 -11.821 12
424 1 -1.12813 -3.58239 6.00516 22
425 1 -13.8421 2.9904 8.50257 16
426 1 -14.1823 -1.83645 11.0433 13
427 1 -13.5237 10.4464 5.46311 13
428 1 1.55689 -4.11848 7.82333 22
429 1 -6.38161 1.0259 -13.631 16
430 1 12.7286 -9.64043 -6.47844 18
431 1 1.37285 -9.0752 -9.29483 23
432 1 -3.34416 -0.890999 9.66586 19
433 1 5.05417 -4.59308 -7.31661 22
434 1 -5.29604 -1.51708 -15.8809 12
435 1 9.95725 -10.158 -0.863521 23
436 1 2.55425 13.7372 -5.08934 17
437 1 -11.9091 12.688 7.75356 10
438 1 -3.78822 1.93181 14.5022 21
439 1 -8.83742 -5.66781 -11.0415 14
440 1 -6.41228 -2.97217 13.2482 18
441 1 12.5664 -6.82334 7.60898 12
442 1 5.93682 3.46026 1.32262 22
443 1 -4.86879 4.88831 0.797442 21
444 1 7.31638 2.91503 -5.86823 19
445 1 11.4219 -6.92808 4.15339 17
446 1 16.6647 6.83912 -3.9784 12
447 1 -7.48807 5.53947 14.8993 20
448 1 4.7894 8.36831 0.365576 22
449 1 5.16631 -7.52963 0.963538 22
450 1 1.88461 -15.3807 -5.51581 14
451 1 -2.26066 5.2441 15.156 22
452 1 -2.06792 14.5947 7.02808 16
453 1 -8.24445 -12.5171 -7.50413 11
454 1 14.7025 10.1833 -1.40207 16
455 1 3.01949 9.15311 10.302 22
456 1 -9.11318 4.54196 12.1069 21
457 1 -2.6664 -5.83773 -4.21735 24
458 1 -14.3008 6.02023 11.2924 10
459 1 -5.49757 -5.76812 -5.5883 20
460 1 -3.5227 16.1785 2.05908 14
461 1 -5.35251 -14.6271 -6.72153 12
462 1 -0.203138 -8.86354 -14.8097 17
463 1 -7.65002 -11.0282 3.31378 21
464 1 -8.95394 -1.78325 4.50277 18
465 1 4.80244 1.12418 9.59717 19
466 1 -4.91004 -8.10952 13.8311 14
467 1 -12.5986 1.90136 -7.90168 13
468 1 9.07828 3.85385 -0.30378 22
469 1 -11.1946 -10.382 -1.97975 12
470 1 3.15879 7.24294 -5.31195 17
471 1 2.77982 17.5013 2.01253 12
472 1 -0.230071 4.8515 -5.5829 21
473 1 -1.18963 11.8167 12.3626 20
474 1 -15.4833 -2.26112 -3.0096 11
475 1 -1.13635 13.2556 2.53337 20
476 1 8.0077 12.8758 -7.93261 16
477 1 -3.29614 -8.48519 -5.79271 20
478 1 -0.995225 2.32017 13.4579 21
479 1 4.29953 -16.0568 -7.14665 15
480 1 -0.742917 -3.48949 -10.6869 21
481 1 7.5907 -12.3915 -0.689546 21
482 1 -10.3853 10.4308 6.62741 21
483 1 0.550064 1.70031 17.7696 14
484 1 9.73449 6.83775 -1.0585 22
485 1 3.56592 9.41994 3.30652 19
486 1 -7.29001 9.62462 -10.686 14
487 1 6.48688 3.51761 -8.6524 20
488 1 2.6154 -7.25647 2.48551 21
489 1 -13.7271 -6.60106 1.27203 13
490 1 9.17308 10.6484 2.83883 19
491 1 -6.60699 -4.36707 -15.6354 13
492 1 12.0533 4.34378 -0.848347 20
493 1 5.50591 15.461 -8.53918 11
494 1 7.65204 -4.02066 -1.8735 20
495 1 17.9986 0.850829 -2.47956 11
496 1 2.64172 1.07074 -8.5433 22
497 1 3.09153 -12.431 4.66524 22
498 1 5.92647 -12.3593 5.2725 18
499 1 6.93638 -11.7777 9.40222 13
500 1 -4.39596 4.90653 -9.41304 24
501 1 -8.2122 -12.7024 6.72303 17
502 1 6.50719 -12.4515 -11.6089 21
503 1 10.3092 10.9853 5.82777 15
504 1 -0.128014 4.95009 -17.3099 11
505 1 2.88742 -2.96039 17.2322 14
506 1 -12.4215 -3.15084 13.2972 10
507 1 2.20228 -15.5818 -0.00529144 16
508 1 -13.8823 -3.38447 0.555301 17
509 1 17.0861 -5.65287 -5.95042 12
510 1 13.6656 -0.284332 -1.65016 18
511 1 -4.30565 10.0615 -2.49795 22
512 1 4.3968 -9.85466 -10.9155 21
513 1 3.8258 3.69858 -6.87664 22
514 1 13.3785 -5.73086 -11.1626 17
515 1 -1.44994 0.12673 15.2815 18
516 1 7.90146 13.2682 1.55769 19
517 1 -1.89687 -6.62131 -16.5845 12
518 1 6.25026 -0.0634541 -15.2045 17
519 1 -8.31054 -2.956 7.51288 18
520 1 -2.70059 10.7067 0.452424 21
521 1 -9.1071 -4.2284 -13.9078 12
522 1 -13.2496 -4.47846 4.41496 14
523 1 -0.867649 -10.9885 -13.2629 14
524 1 -1.28046 -6.43808 10.5446 21
525 1 1.28479 9.75665 -10.6674 21
526 1 13.6558 -1.66509 10.4761 13
527 1 14.2094 8.22665 -3.86252 20
528 1 -10.7957 -11.9021 1.32523 12
529 1 2.51197 -7.12178 -4.07548 22
530 1 -0.408773 -3.79415 -16.8613 13
531 1 -7.67293 7.15074 11.814 20
532 1 4.75519 -4.57333 -4.08251 22
533 1 2.64293 6.28878 1.49778 20
534 1 11.7222 -2.07406 -1.8582 17
535 1 5.3275 12.8326 -6.75796 22
536 1 4.77857 -4.858 -0.58771 21
537 1 12.8874 2.29995 -7.8368 20
538 1 0.578577 8.27778 18.032 13
539 1 -8.35708 5.40119 8.96207 20
540 1 6.00551 12.8447 10.2668 18
541 1 9.28706 -5.10837 13.535 11
542 1 -1.96993 -0.661394 -16.6477 13
543 1 -3.36384 -3.16065 -5.96414 22
544 1 1.84494 0.380305 14.1621 19
545 1 11.2675 11.7654 9.8663 12
546 1 8.95961 5.08224 -8.37474 21
547 1 -6.95904 4.21234 -8.13875 16
548 1 2.20705 12.8053 -1.69455 21
549 1 8.7912 -2.05252 9.86859 19
550 1 11.0949 1.35798 -12.3082 17
551 1 16.2416 -8.16299 -4.06296 14
552 1 11.4542 9.01959 11.7165 12
553 1 -11.9472 -6.99399 4.37466 16
554 1 -4.7485 11.695 -10.9559 11
555 1 -4.09375 1.62142 7.67876 22
556 1 -8.81721 -0.681479 13.7247 14
557 1 -2.20254 13.3084 -9.02491 15
558 1 5.88965 -16.7204 -4.10367 15
559 1 9.157 -2.14047 -7.07653 24
560 1 -2.1374 14.9034 -6.09519 12
561 1 -6.28048 -5.35721 -12.6964 17
562 1 5.28608 -15.2393 6.43342 13
563 1 -8.80172 -5.33688 3.19732 20
564 1 0.262974 10.3973 -13.7307 14
565 1 -7.9027 5.03999 -0.944816 19
566 1 -1.69867 12.6477 15.7642 11
567 1 -6.59722 -6.17467 11.421 21
568 1 8.19959 7.66048 1.63028 23
569 1 5.84505 -7.31578 -12.2229 21
570 1 3.13554 -7.24124 15.2824 11
571 1 10.6856 2.90553 -9.73636 21
572 1 -10.6073 5.70549 4.0567 22
573 1 5.97963 4.80527 18.0626 13
574 1 4.49532 17.1899 -2.40837 12
575 1 11.1158 -7.29607 -5.57041 19
576 1 2.61638 8.80319 16.1738 20
577 1 6.05639 3.02692 -16.0924 12
578 1 -0.825487 -9.44317 11.8711 14
579 1 -0.563968 1.94233 -10.5358 17
580 1 7.4168 -3.23671 -15.2185 17
581 1 3.54608 13.6235 5.41349 17
582 1 10.5456 2.85402 -6.04691 23
583 1 0.737702 -1.4236 -12.3654 17
584 1 -3.3175 -9.30506 -2.48973 19
585 1 -6.88882 -3.40462 -10.5729 20
586 1 14.9449 2.49834 0.102335 22
587 1 17.3298 4.50406 -1.66606 17
588 1 7.90187 -4.83334 -8.75126 22
589 1 13.6508 4.35375 10.9916 12
590 1 7.23677 -10.8165 -9.25405 21
591 1 4.22886 5.80449 -15.763 13
592 1 12.2478 11.2549 0.296504 19
593 1 -7.09304 1.30664 5.52827 18
594 1 13.5437 2.85283 14.1632 12
595 1 11.8087 6.41477 -3.48858 21
596 1 15.4677 -3.82231 0.529961 14
597 1 12.1518 6.53775 -9.96851 16
598 1 8.94894 3.38794 9.83775 22
599 1 13.3604 1.26394 11.5781 15
600 1 4.68069 -4.53986 6.09201 21
601 1 12.9376 8.43033 1.86036 23
602 1 5.84566 3.50496 4.6058 21
603 1 4.57927 1.41349 15.8529 16
604 1 17.3552 3.56832 -4.36552 14
605 1 7.67939 0.290238 8.31263 20
606 1 -8.18294 0.107196 -4.50087 26
607 1 11.6896 3.20143 1.41566 20
608 1 10.6389 -4.74438 -0.130982 18
609 1 -0.481321 -6.18169 -2.42883 20
610 1 -12.6255 8.21326 11.6327 14
611 1 9.89834 11.3095 13.2515 11
612 1 11.247 -1.85358 8.2254 20
613 1 3.31017 11.7371 8.33653 19
614 1 0.0437125 16.0722 12.2433 9
615 1 4.76199 1.15616 6.08014 20
616 1 0.475538 -16.977 2.74478 12
617 1 -7.56633 10.3532 -1.37659 24
618 1 10.9324 12.0786 -5.93969 13
619 1 11.352 -0.404335 -10.0828 22
620 1 3.20083 11.7043 1.08832 19
621 1 1.27649 -12.4927 -4.05074 20
622 1 11.5522 -6.71174 -13.3115 16
623 1 -14.5848 4.62621 6.20391 14
624 1 -0.854712 7.39 -12.4701 24
625 1 -2.58399 -16.1337 0.975117 13
626 1 -5.5611 -1.10943 -9.3068 19
627 1 -15.9186 2.77745 0.625135 10
628 1 11.1015 -7.7214 0.76547 20
629 1 16.0279 6.01703 6.63894 12
630 1 1.56527 -10.342 6.79283 19
631 1 -13.7751 -3.07656 -5.63809 13
632 1 3.83257 0.681776 -17.574 10
633 1 4.11367 -9.88592 9.60148 15
634 1 -2.50742 9.55486 17.4015 14
635 1 6.72884 7.86441 -11.7147 15
636 1 11.2955 0.877972 16.346 13
637 1 10.7265 7.38559 -7.31415 19
638 1 14.3893 11.8167 2.04019 14
639 1 6.57813 -13.633 -5.22886 21
640 1 -7.74923 1.50116 11.0883 22
641 1 13.6783 -3.85157 7.19136 16
642 1 0.393932 13.2417 14.1326 17
643 1 6.17273 12.1675 -9.73495 15
644 1 -8.76805 6.40737 -6.46398 20
645 1 13.6153 6.60725 3.593 21
646 1 -8.21464 -10.8055 -0.0312823 19
647 1 13.369 -5.69195 1.7717 17
648 1 10.8122 12.7447 2.7413 14
649 1 -2.86805 8.32787 14.055 21
650 1 -10.1629 -2.10946 0.213707 22
651 1 -8.1087 -1.49843 -7.63055 19
652 1 10.5209 -2.18217 15.519 13
653 1 -1.9403 -9.23043 14.5368 9
654 1 10.9656 7.24773 14.9202 10
655 1 -5.43214 12.4171 -0.792149 21
656 1 6.65191 10.6688 1.24429 24
657 1 7.22988 -4.12074 1.17396 21
658 1 5.93186 3.17555 7.80126 20
659 1 -0.695847 -4.46749 -13.793 21
660 1 -4.73426 1.19908 10.9776 21
661 1 8.40963 0.946075 -11.2727 22
662 1 0.207272 -5.92387 -5.80782 23
663 1 14.4374 -11.17 -8.17307 13
664 1 4.95596 6.72465 10.2698 23
665 1 5.24932 6.58086 6.40892 21
666 1 -8.44238 3.27068 16.9257 11
667 1 10.774 6.25528 10.283 17
668 1 0.363415 -1.44964 17.1868 14
669 1 0.878296 6.3714 14.6965 22
670 1 2.28725 -4.24856 -12.0352 24
671 1 -6.18487 4.44978 11.0171 23
672 1 8.56276 3.81872 13.1539 21
673 1 -5.55896 -15.7783 6.25191 13
674 1 16.1352 7.5308 -1.11331 14
675 1 9.77902 -14.4678 -6.34776 16
676 1 -0.731486 4.9188 -8.74614 21
677 1 11.0759 12.6032 -2.48964 15
678 1 13.1745 10.4595 3.99682 17
679 1 3.31792 -1.56184 -13.5603 23
680 1 1.2869 -4.28683 10.8612 20
681 1 5.02105 11.1904 -1.57213 22
682 1 14.2477 3.47112 3.16823 23
683 1 -5.80627 -8.77122 -0.440411 21
684 1 0.46344 1.62684 -17.5569 12
685 1 -9.89497 10.5473 0.747393 15
686 1 9.15195 -7.11259 -10.8251 17
687 1 7.91041 6.24104 4.97829 20
688 1 11.6506 9.76012 -8.67716 13
689 1 11.858 9.24062 -2.01073 22
690 1 -2.22608 4.11679 6.0085 23
691 1 -7.1194 11.35 2.00218 21
692 1 7.27789 5.94246 -2.93813 22
693 1 8.6432 -0.288643 17.8846 13
694 1 8.43791 -1.7175 13.0 22
695 1 2.35987 -9.08702 12.158 13
696 1 -7.22057 7.31463 -13.3299 10
697 1 2.97108 14.9386 10.0958 15
698 1 10.2918 -9.33837 -14.45 13
699 1 2.95314 3.76151 9.5195 20
700 1 6.71105 15.8544 -5.31431 13
701 1 8.5362 8.93543 6.69924 21
702 1 16.5881 -5.10647 -2.95612 14
703 1 5.60393 7.72738 16.2781 18
704 1 -11.4982 -2.98328 9.77119 22
705 1 5.96658 -13.0899 2.38687 21
706 1 0.0777469 -0.546183 -9.31618 21
707 1 -8.9593 14.663 3.00123 11
708 1 -0.0807216 3.98436 7.95041 21
709 1 9.13932 -1.72923 -3.43891 22
710 1 6.54676 8.82594 4.07512 20
711 1 -11.6007 0.166656 9.10256 20
712 1 -4.93159 4.42166 16.4566 18
713 1 -4.37688 6.06472 -12.9112 18
714 1 -6.34053 3.8347 -11.9137 19
715 1 7.47753 -9.5638 -6.16316 19
716 1 8.75087 10.1255 -6.44198 21
717 1 5.68233 -7.24254 4.03963 22
718 1 -2.69323 7.00272 1.3956 18
719 1 -13.2208 7.07941 14.6075 7
720 1 10.2369 -3.89534 -14.1041 15
721 1 4.34938 -12.5545 7.92327 18
722 1 2.48895 14.1157 1.87875 20
723 1 -5.2565 7.59383 16.4083 20
724 1 -4.09624 -8.31039 -9.17106 18
725 1 -3.64641 -11.5161 -10.8817 15
726 1 -2.52478 -13.7262 -8.61214 14
727 1 -0.706855 10.4257 -1.37332 23
728 1 7.77244 -3.84737 -5.45695 20
729 1 -2.16708 9.2949 10.1489 17
730 1 10.3163 -10.2667 -10.0628 17
731 1 9.3395 -13.8395 1.75194 15
732 1 5.69263 -7.56905 7.38628 16
733 1 16.1863 3.16681 -7.50014 14
734 1 3.48125 -12.559 -5.66571 20
735 1 -9.40352 -5.24702 9.94572 19
736 1 3.49807 -1.57953 -7.20032 22
737 1 2.12966 -12.4192 -1.00272 17
738 1 -7.39046 -13.5318 -4.26657 15
739 1 -10.3063 2.66837 9.90007 23
740 1 -7.98033 -13.7197 1.20274 12
741 1 14.5884 5.21569 -5.62461 20
742 1 -0.47396 16.1876 1.58998 13
743 1 -5.55091 4.12295 4.38633 21
744 1 -12.9377 6.89351 5.44643 21
745 1 10.7259 0.865064 -0.316103 19
746 1 -12.5674 -4.36003 -10.2736 8
747 1 0.829464 7.71837 -3.61586 22
748 1 11.2762 0.0812192 -6.86751 21
749 1 6.67604 12.1716 13.0635 14
750 1 9.21805 5.81355 -5.30296 22
751 1 -14.6648 3.4908 -5.87884 8
752 1 -11.007 -8.75021 -7.34762 12
753 1 0.899568 3.68972 15.0941 20
754 1 3.47446 11.655 -9.27946 22
755 1 15.6604 9.37452 4.47606 14
756 1 -3.04382 3.47372 9.85512 18
757 1 -0.0958218 -16.225 -0.928752 16
758 1 -3.40082 -15.9481 9.4011 9
759 1 -0.408821 -6.19864 7.76585 22
760 1 13.0374 6.3639 8.47591 15
761 1 7.51544 -9.58842 -12.403 20
762 1 -10.9425 8.93414 3.51949 17
763 1 10.5475 7.96759 4.16187 21
764 1 -5.9524 -6.01818 7.28837 20
765 1 10.0831 8.11118 -11.4201 11
766 1 -0.373987 -15.1302 -3.5937 14
767 1 7.81814 -14.0211 7.03657 14
768 1 2.82702 -9.79221 -2.21442 20
769 1 4.90178 6.08215 -8.72066 20
770 1 13.9749 13.093 -1.38438 11
771 1 -3.31949 -3.82224 -15.7871 15
772 1 -3.77417 3.84136 12.6502 18
773 1 0.0795679 8.19498 -15.865 13
774 1 -10.1963 -2.47005 -10.989 17
775 1 -12.6342 -1.4808 -0.97935 20
776 1 -1.13692 15.3538 -3.08084 15
777 1 7.88668 1.10236 1.31938 19
778 1 2.31864 -4.08372 -15.2527 20
779 1 -6.44647 -2.94402 -0.867369 21
780 1 11.7866 9.12761 -5.54657 19
781 1 13.7991 -6.28521 -4.9677 22
782 1 -6.01702 10.2057 17.4795 12
783 1 7.06789 -9.33604 0.737199 20
784 1 14.2237 -6.86675 -1.19101 17
785 1 10.4645 -4.72814 9.49693 13
786 1 0.181923 7.32992 9.69418 20
787 1 -12.0948 3.29012 11.8261 16
788 1 -10.2207 6.95323 13.9793 17
789 1 -0.841062 -13.4685 9.74867 11
790 1 7.69362 0.58472 4.75777 22
791 1 7.30168 10.8219 15.7664 11
792 1 -14.5299 0.0312585 1.89252 16
793 1 10.7731 -10.0145 -4.02695 22
794 1 -11.2147 11.3603 -5.50264 10
795 1 2.4144 6.49202 4.55416 17
796 1 2.33173 -14.7486 8.47092 11
797 1 6.03602 1.65609 18.8267 13
798 1 1.14556 13.3823 4.09106 14
799 1 1.80947 -9.12624 4.26192 19
800 1 -8.30478 0.140882 -1.04092 22
801 1 2.70538 3.15508 12.8591 20
802 1 -11.5112 -6.85895 -1.39294 19
803 1 -0.352043 9.60902 15.2409 18
804 1 13.3195 8.35832 5.95086 20
805 1 -12.4613 -10.2123 3.87388 10
806 1 -0.923263 -15.3503 6.81277 15
807 1 8.44858 -2.27979 6.32638 22
808 1 8.85123 -7.6314 6.20112 19
809 1 8.95066 8.43065 9.3099 21
810 1 -2.30421 7.22246 -1.94675 22
811 1 3.05722 -12.3668 -9.38876 23
812 1 -2.34548 4.93145 -11.399 20
813 1 -0.00769766 -1.62135 10.8222 20
814 1 4.81772 18.4434 4.41637 10
815 1 14.9227 -2.06277 2.22104 16
816 1 3.35388 10.6348 -4.67206 23
817 1 -4.26307 10.8469 15.2688 15
818 1 6.38386 9.54071 11.4126 22
819 1 13.6896 -4.41371 -13.7308 10
820 1 -5.33424 -13.2021 2.47168 21
821 1 -3.14618 0.945692 -5.54753 21
822 1 13.635 -4.1379 3.87865 20
823 1 2.13788 -3.9548 -8.89884 20
824 1 0.778963 10.9807 10.0616 22
825 1 11.7133 -13.2204 -8.75286 14
826 1 7.06574 5.40088 -14.0865 11
827 1 -0.463527 -8.72648 -4.12852 20
828 1 13.4084 3.74119 -11.5423 13
829 1 15.88 -2.04078 -1.35221 16
830 1 2.3024 -7.05665 9.63326 17
831 1 -2.39201 -10.9589 -8.05156 20
832 1 10.069 9.54716 0.2406 21
833 1 -0.320546 -6.63714 4.23378 20
834 1 -15.4146 8.21825 6.52815 11
835 1 12.2067 5.05701 -7.4095 20
836 1 13.4357 1.19358 5.51515 22
837 1 5.14636 -5.53969 -16.0167 13
838 1 -7.47334 10.6439 7.17309 19
839 1 17.1139 3.81911 4.32246 15
840 1 13.6681 11.5059 -4.40019 12
841 1 3.32615 -1.63217 -10.2994 24
842 1 8.6922 -2.3613 3.14447 22
843 1 -14.483 1.16651 -2.02429 17
844 1 10.963 6.08474 1.72925 25
845 1 -10.7946 -8.19054 1.3981 21
846 1 -10.3558 5.67662 -3.49622 21
847 1 5.78274 3.61521 11.5872 21
848 1 -11.8645 -3.74942 -2.73334 21
849 1 -10.6426 6.38437 10.6458 23
850 1 -0.286377 2.22972 -7.32899 21
851 1 11.7364 -7.01296 -8.98957 20
852 1 -8.07842 -9.63772 -6.27677 18
853 1 13.781 -8.83296 -3.7027 20
854 1 -13.0388 3.69161 0.882727 17
855 1 -6.39319 -3.27245 -4.02787 21
856 1 7.37307 5.86839 8.16442 19
857 1 -2.9732 -5.79547 5.81519 24
858 1 7.61419 0.801653 14.725 19
859 1 15.485 -1.87753 5.45809 13
860 1 10.5092 -4.88096 2.95666 21
861 1 -7.71066 5.15177 2.50191 21
862 1 1.78166 10.7317 12.9081 20
863 1 3.50454 3.79366 -10.3568 19
864 1 1.95938 -9.72821 -12.5229 24
865 1 -5.64419 13.675 7.32767 15
866 1 -3.91913 -5.73582 9.47654 22
867 1 5.11974 13.6622 -3.41328 23
868 1 1.47089 11.907 17.1176 13
869 1 17.2046 -2.44037 -4.42652 16
870 1 7.86575 -6.32596 10.9682 16
871 1 0.692835 12.7918 -11.0089 16
872 1 2.67784 11.7617 -13.1608 13
873 1 -6.03398 -0.409265 13.522 19