ITEM: TIMESTEP
2000
ITEM: NUMBER OF ATOMS
500
ITEM: BOX BOUNDS pp pp pp
-30.0 30.0
-30.0 30.0
-30.0 30.0
ITEM: ATOMS id type x y z Coordination
1 1 8.06577 -1.78157 7.48912 10
2 1 -2.61849 6.36109 9.48808 7
3 1 8.25892 -0.245363 4.89434 15
4 1 -7.07133 0.336099 0.981367 20
5 1 -1.40091 -1.48619 -9.54919 16
6 1 1.04161 0.874444 7.41438 16
7 1 3.2506 -5.81914 -4.55225 18
8 1 -8.84951 -0.606339 -1.23748 15
9 1 3.23859 0.848489 -10.0465 15
10 1 4.73121 -10.6941 -5.14205 10
11 1 5.77386 3.54174 5.27256 11
12 1 0.99122 5.78031 -5.62841 18
13 1 1.30372 6.67657 9.5561 9
14 1 -7.39433 -4.05378 3.27603 13
15 1 -8.44919 -2.82316 1.08199 15
16 1 6.709 -0.635796 -3.2113 16
17 1 6.27047 1.24237 8.11944 13
18 1 -6.99804 -6.35747 0.920865 12
19 1 -2.78047 -4.66069 -8.4774 12
20 1 5.69846 -1.85984 -5.62083 19
21 1 6.00994 -8.61162 0.540177 12
22 1 -5.97916 9.94949 -0.759162 12
23 1 0.689567 9.36787 1.42615 17
24 1 0.200541 -3.62267 -5.98736 21
25 1 -2.07216 3.08756 10.0409 12
26 1 6.9605 -5.62895 2.19868 15
27 1 -4.74971 8.23778 3.25075 13
28 1 2.69204 6.39409 -8.92371 12
29 1 7.33962 7.54123 -1.64166 12
30 1 -0.349 11.7251 -3.9868 7
31 1 -3.76077 4.41751 -7.73349 10
32 1 -3.53987 11.5283 -2.65527 12
33 1 -1.51751 11.2462 -0.771107 13
34 1 -6.78541 3.3235 -0.550232 16
35 1 -1.26243 6.24385 6.8758 14
36 1 -2.23482 1.44837 -8.57204 16
37 1 -5.39105 -5.80536 5.36895 15
38 1 5.73423 -7.92263 -3.69558 14
39 1 -7.38118 0.275298 4.01152 19
40 1 -9.36136 -0.599579 -5.0772 13
41 1 0.20468 -11.0884 1.70503 12
42 1 7.23959 3.34297 -6.85018 13
43 1 -6.36936 -3.21402 -9.05203 9
44 1 2.11349 3.85626 -10.8339 14
45 1 4.56566 -6.67943 -1.33194 18
46 1 -4.07737 12.8906 0.639763 8
47 1 -11.3112 1.24957 3.6099 9
48 1 0.230493 8.62377 6.72501 10
49 1 2.14173 -1.47693 8.13154 15
50 1 1.58763 -11.4311 -4.13411 10
51 1 10.421 2.58974 -4.68195 9
52 1 -3.93676 -9.0943 -0.153483 18
53 1 -1.86162 -8.48979 2.10573 20
54 1 4.94145 -1.44192 8.84967 10
55 1 4.19237 -6.04056 5.43874 15
56 1 5.84101 6.47561 1.46101 16
57 1 -5.32399 -8.24487 2.5482 16
58 1 -3.43784 -11.0953 2.12505 13
59 1 -3.51032 -5.57221 -3.33829 22
60 1 -3.75237 -4.15753 7.02237 15
61 1 -9.37626 1.62968 5.60989 12
62 1 2.65649 -10.7773 -0.621385 12
63 1 -3.10368 -5.29378 2.71973 20
64 1 -9.98528 -1.36401 3.62354 11
65 1 -5.37367 11.2353 2.36252 9
66 1 -7.603 5.62019 5.89304 10
67 1 -4.43578 4.6171 7.21159 16
68 1 -7.48836 -3.41823 -6.11236 15
69 1 -4.04156 1.3751 -5.87841 18
70 1 -4.08473 -3.59162 -6.04699 17
71 1 8.63517 2.16497 6.61697 14
72 1 -3.28937 -3.39779 10.1277 9
73 1 -4.18486 -1.39484 -8.1607 13
74 1 -11.5701 -0.410022 -2.34177 6
75 1 -1.49519 -10.5669 -0.431309 14
76 1 -6.50909 2.75784 5.4277 19
77 1 -5.03197 6.1578 -2.12833 16
78 1 0.0686572 -9.07092 -5.75883 14
79 1 1.09617 10.903 4.29334 11
80 1 -7.5951 2.31424 -5.8182 17
81 1 -7.50141 5.29103 -3.2613 14
82 1 -3.40098 -9.04917 -5.94219 10
83 1 4.64109 -8.61284 3.75756 11
84 1 -9.48948 5.00093 -6.33769 7
85 1 -4.42477 -1.37906 8.0246 19
86 1 -9.96867 4.25514 4.39722 11
87 1 1.28401 -6.5056 -7.19347 14
88 1 -0.770065 -2.04565 8.70257 18
89 1 1.09775 -6.4767 6.30062 17
90 1 2.52943 -8.60766 -3.58623 22
91 1 9.01903 1.72203 0.682295 18
92 1 4.13975 0.511823 -6.08165 14
93 1 6.98695 -6.09302 5.60748 10
94 1 -5.07097 -8.70748 -3.50968 12
95 1 -6.53881 -3.015 6.06277 17
96 1 9.10144 4.688 5.37111 10
97 1 9.99652 6.97226 -1.92026 11
98 1 2.06645 3.80996 -7.88357 18
99 1 -0.655552 6.45489 -8.09895 11
100 1 2.99453 7.6461 -0.672522 17
101 1 4.81741 3.5617 -9.35077 13
102 1 2.57269 -8.40783 1.402 19
103 1 6.499 -3.69012 -0.939224 18
104 1 -0.391395 -8.67889 -2.77231 18
105 1 -9.78091 1.77432 -7.68888 7
106 1 8.6939 -2.29856 -3.66955 13
107 1 -5.06386 8.55831 -3.85759 12
108 1 2.63428 -9.69383 -6.89586 11
109 1 -6.50063 -3.67023 8.81178 9
110 1 -3.12066 -10.7631 -2.4935 12
111 1 3.05873 -4.91588 -9.91768 11
112 1 -0.0169625 7.685 -1.13892 19
113 1 4.1882 -10.9313 1.59156 11
114 1 -5.17441 -6.04525 -6.14504 14
115 1 0.112476 1.03103 10.0642 17
116 1 1.65054 3.52004 10.2022 11
117 1 5.95184 -2.99211 -8.19796 11
118 1 -7.96991 1.81312 -2.63417 14
119 1 3.22488 5.70601 -3.39595 19
120 1 8.46622 0.198667 -6.12431 11
121 1 0.0180589 1.33904 -10.9368 12
122 1 -8.80066 3.21344 2.00663 16
123 1 2.18763 -4.29423 7.88175 14
124 1 -8.2874 -1.22619 -8.30724 9
125 1 8.2782 -3.16689 1.235 13
126 1 6.74381 4.18885 8.07974 9
127 1 1.09566 -8.94933 4.05415 13
128 1 8.44732 4.71227 -0.0661748 19
129 1 10.4045 4.43208 2.44301 11
130 1 -1.69606 -6.67084 -5.79875 18
131 1 4.48582 4.4453 10.6139 6
132 1 -2.87329 6.14378 -4.68205 17
133 1 -1.98012 0.797645 7.41702 20
134 1 -5.9764 -11.3455 -0.545273 6
135 1 7.40945 2.66066 2.88681 23
136 1 -4.90226 5.29215 3.92981 16
137 1 -7.34209 5.53458 1.99455 15
138 1 6.37021 5.48974 -4.48222 14
139 1 3.52543 0.963402 9.94087 11
140 1 1.7742 -1.73567 -10.3997 13
141 1 0.00113687 3.64954 7.54678 20
142 1 7.08169 -4.97226 -5.44428 12
143 1 3.5526 9.02643 1.96644 14
144 1 6.7018 -3.18523 4.23888 20
145 1 -1.97496 10.6931 2.73635 14
146 1 3.39482 -4.0333 -6.81573 16
147 1 5.34201 -3.72361 7.52737 14
148 1 1.03054 1.05475 -8.54048 18
149 1 -4.78849 1.9072 8.12471 12
150 1 9.3761 -0.503297 2.22354 15
151 1 -1.2989 8.59602 -5.50154 12
152 1 9.03502 5.24859 -3.93958 13
153 1 -0.984504 -1.55994 11.8554 6
154 1 -0.575759 -5.06119 8.02402 15
155 1 -8.36679 6.85057 -0.824047 9
156 1 6.00902 8.76239 3.6374 8
157 1 -7.3709 -7.19162 4.35696 8
158 1 8.24762 -0.841318 -0.882398 17
159 1 -5.10965 -6.65748 -1.02178 18
160 1 10.6235 2.11032 3.95877 12
161 1 7.66868 -6.94304 -1.12993 10
162 1 2.08501 8.17211 4.17871 16
163 1 -9.04069 -2.78991 -2.96665 13
164 1 -1.9231 9.05522 -2.76054 18
165 1 4.03067 7.35205 -5.93694 12
166 1 -6.52664 -0.0759808 -4.99816 17
167 1 5.02317 -2.21251 -10.8506 8
168 1 -1.86897 -6.70376 -0.646489 24
169 1 -1.74074 -6.19062 5.33451 20
170 1 9.74634 -5.06911 -3.29838 6
171 1 -10.4283 0.378241 1.06062 13
172 1 -1.35312 4.2622 -9.88348 13
173 1 -7.36369 -5.85173 -2.88751 13
174 1 9.25577 -3.65287 4.48718 11
175 1 0.0503154 -4.51465 -9.61482 10
176 1 -7.68311 8.34319 2.42488 9
177 1 -7.04907 -0.253829 7.48332 14
178 1 8.53352 7.32874 1.17638 11
179 1 11.2065 3.92173 -2.07335 9
180 1 -0.937843 -8.51003 6.82882 9
181 1 6.27938 0.379788 -8.64693 15
182 1 5.84662 6.23736 -7.68821 10
183 1 4.06972 9.33976 5.84692 8
184 1 1.56653 8.35043 -3.97606 16
185 1 10.778 0.304017 -1.94161 9
186 1 -4.34872 -1.73413 4.52573 18
187 1 4.82514 -7.2423 -6.56576 13
188 1 -1.76547 7.72236 3.70058 16
189 1 -2.50937 8.37496 0.797884 17
190 1 -3.77285 -8.65203 4.75153 12
191 1 4.94484 -10.3342 -1.98262 13
192 1 -6.57005 -3.84402 -0.756189 19
193 1 -6.06176 5.45881 -5.57952 12
194 2 -9.40548 0.297898 4.43431 17
195 2 10.267 2.66731 2.12156 13
196 2 -3.25918 -1.91849 -6.49266 20
197 2 -7.42306 0.849207 -0.956657 16
198 2 -2.06119 -8.08203 5.41296 14
199 2 3.473 2.80389 10.4825 10
200 2 6.41882 -0.643482 4.3653 18
201 2 -3.31337 6.28147 4.1695 17
202 2 3.97062 -7.10412 -3.31161 17
203 2 -2.71945 -0.224452 -8.79875 15
204 2 1.98234 -2.6706 -6.26753 17
205 2 -3.44078 11.5973 2.08673 12
206 2 9.22426 -2.46412 2.87712 13
207 2 6.9434 7.77793 2.20107 12
208 2 -0.863277 7.68895 5.61102 16
209 2 4.02713 8.51718 3.88682 13
210 2 3.95786 6.92757 -7.79976 11
211 2 5.25881 -0.494102 -7.20103 15
212 2 -9.3572 0.0780917 -7.64423 11
213 2 0.798188 -8.26563 5.56132 10
214 2 -6.76912 1.3535 2.54409 18
215 2 4.5269 -9.16725 -6.5043 11
216 2 -4.84318 -11.5348 0.87404 10
217 2 6.12742 -3.54981 -6.33123 16
218 2 0.381411 7.4663 8.2134 10
219 2 3.65142 -2.70845 7.96034 13
220 2 -5.36179 -7.72278 4.62629 12
221 2 -1.63277 -11.4966 1.09071 12
222 2 -7.30313 -7.39451 2.54164 10
223 2 -2.04764 -8.78618 0.0499129 18
224 2 -5.27265 -6.65664 -3.12107 17
225 2 -5.51461 11.6051 0.289709 8
226 2 2.56987 0.615765 -7.25954 18
227 2 8.35772 6.64973 -2.91484 11
228 2 3.18239 4.47894 -9.26596 13
229 2 -6.463 3.53532 -4.79256 17
230 2 7.9728 2.95517 -0.37941 17
231 2 1.92762 9.8345 2.7986 14
232 2 -5.70086 5.40231 5.78999 11
233 2 -3.15843 12.4947 -1.00434 9
234 2 2.63851 6.84684 -4.90964 15
235 2 -0.0773567 4.88793 6.03311 15
236 2 0.803983 -3.15381 8.32142 14
237 2 4.34027 -3.93271 -8.98914 13
238 2 0.657141 -9.69318 -4.04947 12
239 2 -0.0497768 -5.66787 -6.14148 17
240 2 -6.95034 -5.65392 -1.01959 14
241 2 9.26977 -6.4223 -1.90359 5
242 2 9.32064 5.61297 1.48512 15
243 2 0.264174 -0.537249 -10.0477 14
244 2 3.50695 -1.15703 -10.4689 15
245 2 -2.90987 -5.23185 -6.75842 16
246 2 3.26687 -6.04689 -6.42338 18
247 2 7.51213 -1.12368 -4.89963 16
248 2 -7.06572 -5.42601 4.41628 13
249 2 1.49197 -5.65985 -9.03216 11
250 2 -1.65388 -8.40893 -6.123 12
251 2 0.750355 2.82295 -7.27492 20
252 2 -4.59778 3.43101 3.79909 18
253 2 -5.07837 -7.8956 0.509289 18
254 2 -6.0906 6.8744 2.96128 13
255 2 -5.81172 -4.70914 7.15834 12
256 2 -10.5152 0.0892774 -0.869266 12
257 2 5.72134 -5.12899 6.37446 14
258 2 9.86904 0.251032 -0.214795 12
259 2 1.25711 -3.56764 -10.5563 9
260 2 2.0602 6.3376 3.74811 16
261 2 1.92021 9.53842 5.84999 10
262 2 0.225998 -0.408274 11.2735 9
263 2 -8.86117 4.88648 3.08834 12
264 2 -7.76052 -1.572 -5.48903 16
265 2 9.9753 5.14506 -1.34439 14
266 2 -9.16565 -3.07982 3.06254 11
267 2 -4.05584 5.51258 -6.04415 12
268 2 4.93032 1.8102 -9.52 15
269 2 -6.87685 3.7591 1.34366 17
270 2 5.88301 -9.97444 -3.65834 11
271 2 2.66437 -10.7052 -2.52425 14
272 2 -6.16939 9.55987 2.74928 9
273 2 -1.39798 -5.32321 3.54953 16
274 2 2.0128 -10.2561 1.12685 14
275 2 2.65813 5.3534 9.98957 8
276 2 -5.04525 10.2229 -2.41256 9
277 2 -2.14876 -3.68044 8.32049 16
278 2 -2.12331 -6.55731 1.57018 20
279 2 -2.71369 -0.884842 6.61985 17
280 2 0.268998 4.29767 -10.6733 13
281 2 9.51572 -0.793469 -2.73097 12
282 2 2.11564 0.391806 9.00081 16
283 2 8.9622 7.62081 -0.573119 10
284 2 5.88438 9.58997 5.20552 4
285 2 7.42436 -2.57363 -2.26343 18
286 2 -6.94392 -4.05325 1.13113 17
287 2 -2.92051 5.72139 7.78484 14
288 2 4.88906 0.30887 8.90605 10
289 2 1.77801 2.03192 -10.1444 16
290 2 -0.0267651 3.11493 9.45399 16
291 2 7.6151 -5.02721 3.98619 13
292 2 -10.0544 -1.12192 -3.28856 10
293 2 -5.58388 6.53752 -3.98883 13
294 2 -9.24476 3.21095 -6.67519 8
295 2 -0.441214 -7.03868 7.757 10
296 2 4.11175 7.34275 1.07624 18
297 2 -7.90846 -3.20924 -7.97424 8
298 2 7.7028 -1.48085 0.929553 18
299 2 -6.82149 6.36486 -1.529 14
300 2 7.29277 -7.14049 1.08139 11
301 2 -3.52508 -5.46724 5.64945 18
302 2 -5.90865 -4.32141 -5.69366 17
303 2 -0.339794 7.64128 -3.47081 17
304 2 -8.08511 7.15493 0.971815 9
305 2 0.106237 -4.8312 6.17668 18
306 2 -10.2283 2.06757 2.02811 16
307 2 -2.17698 8.22135 -1.12661 19
308 2 -2.10762 4.92064 10.2468 9
309 2 -8.13514 0.83799 -4.35385 17
310 2 6.41814 6.03242 -0.539427 19
311 2 -5.00704 2.84809 6.47224 15
312 2 -0.724203 -0.0411681 8.63669 19
313 2 -4.45662 -3.69534 -8.67876 14
314 2 -0.703362 6.88949 -6.2621 15
315 2 -1.35806 -10.1091 -2.12181 13
316 2 7.93653 0.151322 7.11595 12
317 2 10.7113 4.3341 -3.83269 9
318 2 2.75788 -8.55018 3.33081 15
319 2 7.28366 1.36936 -7.19978 13
320 2 6.258 4.53753 9.83394 7
321 2 -5.22897 0.261913 7.97045 12
322 2 -8.09662 -4.2828 -3.39325 12
323 2 1.23994 -7.85693 -2.24317 19
324 2 -0.561109 10.0974 0.396732 15
325 2 -10.7504 2.63378 4.59446 9
326 2 -5.85736 -2.68463 3.61515 17
327 2 -3.60079 -9.91928 -4.23027 10
328 2 5.79658 2.74572 7.07969 11
329 2 -3.01547 8.27306 -4.3329 17
330 2 -2.11295 5.3555 -8.31685 12
331 2 5.83594 6.53416 -5.92227 12
332 2 1.43242 -8.37875 -6.86783 14
333 2 9.46696 1.35148 5.21183 14
334 2 8.49544 4.05604 7.26933 11
335 2 0.00658413 9.88507 -4.90604 8
336 2 -5.97588 1.23789 -6.16337 15
337 2 -1.56147 -3.13549 -8.89237 15
338 2 -0.643653 11.0135 3.82902 13
339 2 -1.5884 11.0197 -2.61414 13
340 2 -8.11815 5.49978 -5.18352 9
341 2 -8.40056 3.6065 5.61775 12
342 2 1.28029 6.12512 -7.67198 15
343 2 6.61529 -1.35359 -9.51671 9
344 2 -7.63385 3.66967 -2.35372 15
345 2 -1.40973 2.38949 -9.98685 14
346 2 6.52714 -2.51082 8.27501 9
347 2 -7.2664 -2.10019 7.65435 9
348 2 -1.88448 -6.768 -3.71249 22
349 2 -7.16679 0.747657 5.85022 14
350 2 5.79823 -7.30548 4.53746 10
351 2 -11.5792 -0.25107 2.6392 9
352 2 -4.88271 -3.10169 9.24712 12
353 2 -0.246635 -9.50418 2.70055 16
354 2 8.23735 1.00203 2.81362 16
355 2 2.79773 -10.9011 -5.44515 10
356 2 -2.9503 8.81085 2.54858 15
357 2 -6.22511 -1.12527 -8.79962 12
358 2 -4.86158 -2.25184 6.35095 19
359 2 2.75806 -5.37775 6.49254 15
360 2 5.93658 4.274 -7.98578 13
361 2 10.711 3.96232 4.58428 10
362 2 8.27754 -2.42055 5.61919 14
363 2 6.18521 -6.56681 -5.16058 11
364 2 4.91128 -8.69213 -1.07005 19
365 2 6.44802 -3.76542 1.83539 17
366 2 -3.05128 2.18253 8.83088 15
367 2 7.78345 4.20869 -5.03185 13
368 2 -8.22489 -2.60342 -0.911418 16
369 2 -8.81876 -1.01235 1.38422 17
370 2 5.01338 -9.28713 1.85127 12
371 2 2.85871 8.0959 -2.60721 12
372 2 10.7853 2.17317 -2.62509 11
373 2 4.90463 4.59027 -3.41203 14
374 2 3.23058 -5.59824 3.66126 18
375 2 8.80669 -4.11314 -4.59687 10
376 2 4.45438 -11.4253 -0.429434 9
377 2 -4.87806 -7.83539 -5.98721 11
378 2 1.39875 8.02578 0.166642 17
379 2 -0.718641 7.45609 2.19974 19
380 2 -3.67814 -9.26938 2.82114 13
381 2 -1.88429 -2.20709 10.354 11
382 2 7.70959 3.76341 4.46574 16
383 2 9.42533 1.36678 -5.34964 11
384 2 -3.2302 2.60972 -7.20347 14
385 2 -4.84046 -10.0814 -1.73084 12
386 2 6.24394 -5.55767 -1.3153 17
387 1 -5.16 -2.83171 -3.37645 24
388 1 -1.88 -0.934401 -6.02641 23
389 1 -0.24 -5.67683 -3.37638 21
390 1 -1.88 -2.83171 -3.37645 26
391 2 -3.52 -5.67644 -1.36761 21
392 2 -5.16 -2.83137 -1.36755 21
393 2 -5.16 -0.93461 -4.0176 20
394 2 -3.52 -3.7797 -4.01759 21
395 2 -0.24 -5.67644 -1.36761 22
396 2 -1.88 -2.83137 -1.36755 26
397 2 -1.88 -0.93461 -4.0176 23
398 2 -0.24 -3.7797 -4.01759 20
399 1 -5.16 -0.934401 -0.726407 21
400 1 -3.52 -3.77954 -0.726424 25
401 1 -5.16 -2.83171 1.92355 18
402 1 -1.88 -0.934401 -0.726407 26
403 1 -0.24 -3.77954 -0.726424 25
404 1 -0.24 -5.67683 1.92362 22
405 1 -1.88 -2.83171 1.92355 24
406 1 -1.88 -0.934401 4.57359 19
407 1 -0.24 -3.77954 4.57358 20
408 2 -5.16 -0.93461 1.2824 24
409 2 -3.52 -3.7797 1.28241 23
410 2 -1.88 -2.83137 3.93245 25
411 2 -1.88 -0.93461 1.2824 26
412 2 -0.24 -3.7797 1.28241 26
413 1 -3.52 0.0131684 -3.37638 24
414 1 -5.16 2.85829 -3.37645 25
415 1 -0.24 1.91046 -6.02642 20
416 1 -0.24 0.0131684 -3.37638 26
417 1 -1.88 2.85829 -3.37645 23
418 1 -0.24 5.70317 -3.37638 25
419 2 -3.52 0.0135641 -1.36761 23
420 2 -5.16 2.85863 -1.36755 22
421 2 -3.52 1.9103 -4.01759 19
422 2 -3.52 5.70356 -1.36761 18
423 2 -0.24 0.0135641 -6.66761 18
424 2 -0.24 0.0135641 -1.36761 26
425 2 -1.88 2.85863 -1.36755 24
426 2 -1.88 4.75539 -4.0176 19
427 2 -0.24 1.9103 -4.01759 21
428 2 -0.24 5.70356 -1.36761 20
429 1 -3.52 1.91046 -0.726424 22
430 1 -3.52 0.0131684 1.92362 24
431 1 -5.16 2.85829 1.92355 20
432 1 -3.52 1.91046 4.57358 21
433 1 -1.88 4.7556 -0.726407 21
434 1 -0.24 1.91046 -0.726424 26
435 1 -0.24 0.0131684 1.92362 26
436 1 -1.88 2.85829 1.92355 22
437 1 -1.88 4.7556 4.57359 20
438 1 -0.24 1.91046 4.57358 21
439 1 -0.24 5.70317 1.92362 21
440 2 -3.52 0.0135641 3.93239 23
441 2 -3.52 1.9103 1.28241 23
442 2 -0.24 0.0135641 3.93239 27
443 2 -1.88 2.85863 3.93245 22
444 2 -1.88 4.75539 1.2824 21
445 2 -0.24 1.9103 1.28241 26
446 2 -0.24 1.9103 6.58241 21
447 1 1.4 -0.934401 -6.02641 19
448 1 1.4 -2.83171 -3.37645 24
449 1 4.68 -2.83171 -3.37645 23
450 2 3.04 -5.67644 -1.36761 21
451 2 1.4 -2.83137 -1.36755 25
452 2 1.4 -0.93461 -4.0176 24
453 2 3.04 -3.7797 -4.01759 20
454 2 4.68 -2.83137 -1.36755 21
455 2 4.68 -0.93461 -4.0176 20
456 1 1.4 -6.6244 -0.726407 18
457 1 1.4 -0.934401 -0.726407 26
458 1 3.04 -3.77954 -0.726424 23
459 1 3.04 -5.67683 1.92362 20
460 1 1.4 -2.83171 1.92355 25
461 1 1.4 -0.934401 4.57359 20
462 1 3.04 -3.77954 4.57358 21
463 1 4.68 -0.934401 -0.726407 25
464 1 4.68 -2.83171 1.92355 23
465 1 4.68 -0.934401 4.57359 16
466 2 1.4 -6.62461 1.2824 21
467 2 1.4 -2.83137 3.93245 24
468 2 1.4 -0.93461 1.2824 26
469 2 3.04 -3.7797 1.28241 22
470 2 1.4 -0.93461 6.5824 20
471 2 4.68 -2.83137 3.93245 21
472 2 4.68 -0.93461 1.2824 24
473 1 3.04 0.0131684 -3.37638 25
474 1 1.4 2.85829 -3.37645 25
475 1 4.68 2.85829 -3.37645 18
476 2 3.04 0.0135641 -1.36761 25
477 2 1.4 2.85863 -1.36755 26
478 2 1.4 4.75539 -4.0176 22
479 2 3.04 1.9103 -4.01759 18
480 2 3.04 5.70356 -1.36761 23
481 2 6.32 0.0135641 -1.36761 23
482 2 4.68 2.85863 -1.36755 21
483 1 1.4 4.7556 -0.726407 24
484 1 3.04 1.91046 -0.726424 26
485 1 3.04 0.0131684 1.92362 25
486 1 1.4 2.85829 1.92355 25
487 1 1.4 4.7556 4.57359 17
488 1 3.04 1.91046 4.57358 17
489 1 3.04 5.70317 1.92362 20
490 1 4.68 4.7556 -0.726407 22
491 1 6.32 1.91046 -0.726424 20
492 1 6.32 0.0131684 1.92362 25
493 1 4.68 2.85829 1.92355 20
494 2 3.04 0.0135641 3.93239 22
495 2 1.4 2.85863 3.93245 23
496 2 1.4 4.75539 1.2824 24
497 2 3.04 1.9103 1.28241 26
498 2 4.68 2.85863 3.93245 18
499 2 4.68 4.75539 1.2824 20
500 2 6.32 1.9103 1.28241 21
