ITEM: TIMESTEP
19000
ITEM: NUMBER OF ATOMS
1000
ITEM: BOX BOUNDS pp pp pp
-30.0 30.0
-30.0 30.0
-30.0 30.0
ITEM: ATOMS id type x y z Coordination
1 1 3.76482 -8.66213 -7.98656 19
2 1 9.53157 -13.7504 8.54988 13
3 1 2.67708 7.05956 -2.08764 17
4 1 -7.19967 0.550284 -5.64114 13
5 1 2.55267 -10.4897 11.8227 8
6 1 -4.58421 -1.12004 -11.0218 13
7 1 -1.71771 -1.05037 -6.08366 20
8 1 0.636164 -14.8532 0.493678 20
9 1 8.79902 -4.87669 4.37337 21
10 1 7.44765 -0.423392 8.5745 20
11 1 8.91026 -4.86877 1.12137 21
12 1 1.92591 4.27328 -10.2576 14
13 1 3.055 -3.76193 13.271 12
14 1 -4.92585 -2.07304 1.22785 20
15 1 0.676475 -3.64378 -6.07447 20
16 1 3.14805 -5.13966 7.70446 20
17 1 5.8858 -8.87268 -5.76952 16
18 1 5.30412 -0.87958 13.2789 11
19 1 3.9354 -16.2517 4.32906 16
20 1 -8.22808 -2.72669 2.93713 14
21 1 -3.10951 -2.91593 -4.29846 20
22 1 -0.19871 8.6443 -1.52354 15
23 1 7.5421 -4.95534 -9.5414 19
24 1 11.1957 -10.3597 -11.0692 10
25 1 0.351793 -9.97759 10.1886 14
26 1 -7.23655 -0.0344378 0.894363 16
27 1 8.48545 6.47959 0.120127 21
28 1 5.87737 -14.919 0.569946 22
29 1 14.5244 -11.5706 -3.47497 11
30 1 11.354 -3.54032 2.69683 22
31 1 -3.97516 5.33537 -5.1251 12
32 1 3.35269 4.12822 -2.96455 19
33 1 6.25408 2.6659 4.03703 20
34 1 7.00013 2.3885 7.19692 22
35 1 -1.72469 -6.0794 0.986927 23
36 1 6.30197 -3.99881 13.8193 12
37 1 -7.30427 -9.06243 4.72126 15
38 1 13.2165 0.437889 5.43583 17
39 1 9.86313 -7.00095 -0.871431 20
40 1 8.45075 -6.05437 7.69122 20
41 1 -2.94375 -7.91651 2.75151 20
42 1 2.14287 -6.38983 -6.45014 18
43 1 -3.20347 5.78562 1.8444 15
44 1 1.13736 1.41527 -12.2372 13
45 1 8.08919 -1.00481 -3.34081 18
46 1 8.3947 -3.3789 -6.80958 20
47 1 6.80671 -15.2724 3.45414 21
48 1 7.28126 -14.8449 9.66371 11
49 1 0.300152 2.08558 4.77464 19
50 1 -6.35085 -9.01757 10.0216 10
51 1 -5.21237 -3.02447 4.32231 18
52 1 14.143 -9.06082 -5.94195 12
53 1 9.88654 -1.85467 -13.1344 13
54 1 8.95869 -8.03178 5.80622 22
55 1 6.24832 7.94682 0.651597 17
56 1 0.18674 6.55865 -9.59094 12
57 1 5.71884 5.15225 1.9927 20
58 1 -2.46134 -13.6987 8.99861 11
59 1 11.5245 -11.2058 -5.41372 17
60 1 7.95794 -10.5148 -11.9951 11
61 1 1.05001 -0.868139 6.45678 24
62 1 -4.9282 -13.6039 0.863527 16
63 1 8.26547 -7.93661 2.519 18
64 1 -5.68136 -10.4557 -0.588639 19
65 1 14.492 -11.8672 5.36571 11
66 1 1.04846 4.73042 2.5918 16
67 1 0.421478 2.25292 1.34905 23
68 1 4.48787 0.467747 -7.60556 21
69 1 14.0937 -8.54956 1.98998 20
70 1 -2.12817 -13.7652 -2.2513 21
71 1 15.6595 2.08226 5.00858 13
72 1 11.7771 -0.441831 -4.52404 19
73 1 -2.02121 8.19816 -3.56715 14
74 1 5.01213 -11.7156 -10.9519 11
75 1 3.34207 7.66173 -9.4172 13
76 1 13.2609 -3.59568 -4.34495 18
77 1 12.0314 -4.28171 -9.67718 19
78 1 11.854 -11.4912 6.92975 16
79 1 -3.59158 -1.18456 -8.07335 17
80 1 10.6262 8.17433 1.46315 13
81 1 14.0864 4.70135 -5.05476 12
82 1 4.99632 7.42543 -4.8951 15
83 1 3.61568 -8.7755 -11.0683 17
84 1 -7.35582 -5.60489 -8.36658 11
85 1 -1.79731 3.80884 10.1419 15
86 1 2.70803 5.72088 -5.22678 17
87 1 6.74061 -6.20318 11.7237 16
88 1 -8.79001 -7.47414 6.51747 10
89 1 0.934082 -14.6496 3.7818 20
90 1 6.00881 7.36057 -2.39275 16
91 1 11.5957 4.38757 -7.3775 11
92 1 4.18285 -14.2867 8.05509 14
93 1 -4.74902 0.767825 -1.00461 18
94 1 7.02019 2.0563 10.4805 15
95 1 -2.66396 -3.99456 -7.52601 19
96 1 -2.60793 -8.31225 5.73069 18
97 1 -3.87594 -14.5335 3.37511 13
98 1 -2.23248 -5.8689 -2.26315 22
99 1 6.23872 -11.7476 -4.69905 17
100 1 1.49471 4.95963 9.1632 16
101 1 -2.32172 -2.92719 2.62573 21
102 1 -5.11517 -4.96241 -3.72183 17
103 1 3.28999 -14.0289 1.97903 19
104 1 9.64463 0.179942 -6.28246 15
105 1 9.5234 -2.68444 8.42856 22
106 1 3.46555 -0.677462 -10.0603 20
107 1 -4.30707 -7.21818 -8.44184 18
108 1 -2.41181 8.28497 0.234743 13
109 1 10.0605 0.170981 10.3073 16
110 1 1.02566 9.75456 -9.21084 8
111 1 3.74672 -1.19787 -13.5387 8
112 1 -2.2404 -2.8879 9.35864 20
113 1 -3.17901 2.33115 12.3102 7
114 1 3.66782 -12.1396 -8.12093 16
115 1 3.10283 -2.50836 5.95271 21
116 1 7.25394 -8.82446 -2.46727 20
117 1 8.60731 5.70853 -6.8895 16
118 1 6.25136 4.73308 -0.974115 19
119 1 -9.05102 3.35748 5.22105 9
120 1 8.88285 4.02161 5.41714 21
121 1 13.7483 -2.10839 -2.27141 15
122 1 9.68469 0.483889 6.01469 21
123 1 -3.29343 2.77625 6.53029 16
124 1 -7.96307 -5.58629 -2.25628 13
125 1 6.0925 -6.44986 8.86803 21
126 1 8.67705 -13.0193 -6.31912 17
127 1 7.56325 -6.74345 -12.8011 16
128 1 10.8664 -2.16708 -7.37996 19
129 1 -5.72383 -3.666 6.92655 17
130 1 1.62605 -14.2106 -7.58315 11
131 1 -2.11942 -10.9041 4.24327 17
132 1 3.09877 -10.8588 4.15959 20
133 1 -1.37452 -9.30806 -9.47803 13
134 1 -6.29513 -0.0158644 -8.29058 17
135 1 14.0374 -6.26058 6.33777 16
136 1 8.09516 -12.7933 4.34566 18
137 1 6.28583 -9.21335 7.28927 22
138 1 8.02556 6.89482 3.29395 22
139 1 -2.14594 -11.3008 7.73615 18
140 1 6.51675 9.5575 3.67176 11
141 1 1.05808 -7.86689 -9.22788 20
142 1 -0.807761 -11.701 -7.23221 15
143 1 -1.51933 -13.2347 1.37287 20
144 1 5.8934 -9.43833 4.01167 19
145 1 16.8509 2.08949 -0.39932 17
146 1 -0.0833104 -8.63382 -1.65255 18
147 1 -6.10312 -8.62118 7.45426 16
148 1 0.201787 -18.1016 3.89956 11
149 1 5.54618 -2.49647 -5.61407 19
150 1 -0.187258 -17.6733 0.662168 11
151 1 5.6631 -11.7503 -1.31477 21
152 1 5.4266 -17.82 1.85624 14
153 1 -6.33214 3.39252 -7.18254 12
154 1 14.833 3.02445 8.06976 9
155 1 -2.09932 -3.21302 -10.6185 17
156 1 4.31913 1.78906 -11.5058 13
157 1 0.489459 -9.0053 3.97079 20
158 1 5.05483 8.35499 6.22738 10
159 1 10.8272 -0.153181 2.57839 20
160 1 -4.853 -5.24583 3.10106 20
161 1 -3.44477 -10.5008 10.6076 12
162 1 -0.932825 4.00089 7.36297 17
163 1 11.0487 -7.23935 -12.8187 10
164 1 9.28703 -15.1005 -1.80201 16
165 1 15.0882 -3.64496 -9.49427 11
166 1 0.0629079 -8.59169 1.22072 23
167 1 6.20253 -3.63058 7.50921 20
168 1 -6.11923 -7.79229 1.68961 22
169 1 15.6299 -8.68553 -2.80111 18
170 1 0.0265878 5.53554 -0.0842009 24
171 1 -5.23507 2.79788 10.2373 9
172 1 10.6573 -12.9374 5.10577 17
173 1 4.30996 0.526672 7.21247 20
174 1 -2.98681 -8.33736 -3.75623 17
175 1 1.52684 6.98622 6.5524 13
176 1 -4.22707 0.585892 -5.60248 23
177 1 -7.92879 -1.05276 5.59531 12
178 1 2.05295 -10.0183 -6.07089 16
179 1 -0.945239 8.24252 5.76911 10
180 1 12.586 -6.56196 4.24399 21
181 1 9.16071 -10.622 7.13287 24
182 1 -1.74749 0.0333515 1.27498 20
183 1 0.178925 -8.9512 7.14345 21
184 1 9.58729 -11.2048 -8.68961 15
185 1 -1.67132 -6.27774 -10.4684 14
186 1 -7.76573 -5.107 0.947057 16
187 1 0.0425622 -11.8619 -0.578839 22
188 1 12.2771 1.12309 -0.105254 19
189 1 -3.96222 1.80665 -9.90878 12
190 1 -7.17169 5.87051 4.50448 9
191 1 -4.8862 4.40844 4.26905 16
192 1 -3.82216 -0.363282 10.2169 13
193 1 15.8885 -6.61364 -4.35482 16
194 1 14.2981 -1.55768 -7.18234 16
195 1 6.6486 -0.596485 5.58076 22
196 1 0.676662 3.24384 -1.97188 21
197 1 3.34256 -10.5531 -2.7005 16
198 1 2.91974 8.91895 4.43215 11
199 1 10.7006 -1.82631 -2.3765 17
200 1 -5.82367 -2.21087 -5.61485 16
201 1 8.64662 -11.7768 -3.13872 22
202 1 14.1452 -3.80779 8.25588 12
203 1 -7.02042 -8.49677 -6.52411 12
204 1 -2.33205 -16.9552 4.0451 12
205 1 3.28211 6.97309 0.990737 17
206 1 -5.29512 3.89325 -0.163878 14
207 1 1.68699 -16.4742 -5.17645 12
208 1 8.95384 -15.84 6.38733 12
209 1 -4.27738 -19.0799 -0.591598 6
210 1 -5.28699 3.0943 -4.07705 16
211 1 2.5196 -17.2468 1.81953 15
212 1 0.436353 -3.63903 7.77964 23
213 1 -6.59197 3.87452 7.05233 13
214 1 3.22015 -13.1391 -4.67243 19
215 1 3.17659 -8.02131 5.90877 22
216 1 -7.60038 -4.80249 5.17661 15
217 1 3.2645 -11.2619 7.56054 20
218 1 -3.60477 -7.61225 11.3359 10
219 1 7.83134 -14.855 -4.20921 19
220 1 8.29465 -13.1557 -0.137342 21
221 1 8.11355 9.50998 -1.05982 12
222 1 -2.07396 -8.09146 8.99286 19
223 1 14.2285 -9.44134 7.7634 13
224 1 11.2152 -2.04377 0.458803 19
225 1 -6.31177 1.53039 4.60684 18
226 1 8.99254 -2.12788 -10.2559 21
227 1 11.1595 -8.06376 7.25502 23
228 1 5.93346 2.3874 -2.86243 19
229 1 0.396392 -3.59771 10.9527 18
230 1 5.40761 11.4247 -0.380422 5
231 1 10.5635 -9.95985 4.22084 20
232 1 3.49887 -16.6638 -0.797121 17
233 1 11.9846 4.88787 9.49811 10
234 1 -7.67435 -5.71536 8.81646 9
235 1 0.468089 -11.4467 -3.89654 16
236 1 -3.40991 -12.2568 -5.0907 14
237 1 -3.71373 5.0579 8.88259 13
238 1 -4.25007 -15.6484 -2.06957 12
239 1 -1.8984 -5.34942 4.33075 21
240 1 10.9216 -4.90181 6.73245 20
241 1 16.5559 2.57144 -3.94929 12
242 1 2.13801 -0.774673 -6.18105 20
243 1 2.37066 1.7863 -5.16358 21
244 1 3.999 3.29301 9.57573 15
245 1 -5.76263 -7.71608 -1.77549 22
246 1 8.54968 7.56672 -4.2828 14
247 1 -3.57917 -9.56247 -6.80105 18
248 1 5.79745 -9.0777 -13.4419 10
249 1 13.7237 6.51062 -2.37659 12
250 1 10.4463 3.95947 -1.0026 21
251 1 5.75832 0.0880229 -4.16713 21
252 1 4.90115 -13.0361 4.56575 21
253 1 0.878525 -1.75329 -11.6116 16
254 1 16.8042 7.37939 -3.44027 4
255 1 8.64316 -10.7912 -0.587773 22
256 1 3.78325 -3.39044 -11.4132 16
257 1 3.04514 -13.1713 -0.968438 21
258 1 5.85315 -11.472 9.77069 16
259 1 -3.49642 2.99617 -6.76105 15
260 1 11.5077 2.82896 2.94284 17
261 1 5.81848 -2.38929 -8.80987 20
262 1 -8.686 -8.32014 0.0358067 12
263 1 16.7589 -3.26533 -4.0285 15
264 1 -0.754887 1.13219 -6.94283 20
265 1 -1.02707 5.8432 -6.18255 15
266 1 10.5682 -14.7451 -4.84116 13
267 1 7.57152 0.210734 -11.186 16
268 1 9.08001 -7.75807 -4.16943 17
269 1 6.08218 -12.0127 1.9521 21
270 1 -8.14063 -10.5088 7.64006 10
271 1 0.093114 7.60943 2.31505 18
272 1 4.40729 3.94191 -6.33052 18
273 1 18.6276 4.32658 0.248324 6
274 1 1.00566 -14.4022 -2.50631 21
275 1 7.36986 -15.9687 -6.66018 12
276 1 6.18391 2.53253 0.748881 21
277 1 17.9605 -6.84259 -1.56962 10
278 1 9.59628 -11.8019 2.40377 21
279 1 10.9259 -6.96513 2.10053 22
280 1 -4.93749 -0.276534 6.91974 16
281 1 -3.25149 -8.18239 -0.610229 20
282 1 -1.00103 -8.86821 -6.11279 17
283 1 3.91147 -8.32198 8.75638 19
284 1 4.69069 3.07138 -8.8729 14
285 1 1.1052 4.17371 -7.30887 18
286 1 2.93941 9.50223 -1.63297 13
287 1 2.90994 -2.00314 8.94073 18
288 1 5.1735 -14.3574 -2.75756 21
289 1 9.87163 -6.06739 -7.48924 16
290 1 -7.48121 -10.742 1.77781 11
291 1 -2.47294 -0.394453 -2.56686 19
292 1 -5.09415 -11.4056 3.18181 16
293 1 8.81014 1.54854 -3.35171 19
294 1 6.95559 -10.7693 -8.00199 17
295 1 8.70157 -11.4574 10.7372 12
296 1 12.3344 -4.70881 -6.91403 19
297 1 -6.9396 3.055 1.98811 16
298 1 11.1311 -9.31796 -2.76046 22
299 1 9.62827 2.52722 8.75644 21
300 1 1.0865 -4.65245 -9.89724 19
301 1 10.4422 0.96865 -11.5027 11
302 1 1.57264 -11.3809 -10.2373 11
303 1 -0.455223 -16.4943 -2.2775 15
304 1 18.2583 -0.540491 0.471542 14
305 1 14.6804 -6.73439 -7.83729 13
306 1 11.5923 -12.5807 -2.65881 16
307 1 10.2939 7.443 -1.73373 14
308 1 -4.17725 1.24625 1.9687 18
309 1 16.8339 -0.228986 -5.86192 11
310 1 8.32302 -8.45048 9.53729 21
311 1 12.3016 -2.27661 6.04859 22
312 1 11.9586 -0.524934 8.5774 17
313 1 -7.14902 -5.31668 -5.90307 15
314 1 18.4112 1.83054 2.82933 10
315 1 16.3905 -11.3642 2.55792 11
316 1 2.91626 -10.6816 0.592703 21
317 1 7.62099 6.98879 6.22882 17
318 1 8.87037 -2.33054 5.63571 19
319 1 2.1285 9.95942 1.4981 8
320 1 -0.677176 -14.3377 -5.18879 15
321 1 -1.74011 0.165629 -11.4883 12
322 1 -4.75562 -4.80601 -10.9179 12
323 1 -5.50422 -1.94562 -2.18983 18
324 1 11.5663 -9.73638 0.935925 20
325 1 6.18928 -15.7307 6.36877 16
326 1 5.72216 -6.3607 5.81352 25
327 1 13.7826 1.77873 -5.6652 17
328 1 12.653 -6.43567 -3.26101 21
329 1 15.8674 -3.19164 1.6116 16
330 1 10.9106 6.02426 3.68939 17
331 1 17.6565 -3.4094 -1.07744 11
332 1 1.28204 1.69613 8.23613 22
333 1 -6.3027 -13.2423 5.51879 9
334 1 -7.05807 -3.006 -9.85871 10
335 1 9.10045 -4.27004 12.4966 11
336 1 -2.54399 7.74393 3.87067 11
337 1 8.98618 0.90659 -0.27755 22
338 1 8.97327 -4.52119 -2.4408 19
339 1 14.5694 2.59083 2.24873 15
340 1 -5.14883 -2.89906 9.37321 14
341 1 12.7073 -4.34747 -12.3513 12
342 1 2.98433 -7.88514 -4.05608 13
343 1 8.57272 1.22927 13.083 9
344 1 13.3838 4.20204 5.43678 12
345 1 4.21908 -5.61629 10.9833 18
346 1 3.99837 0.476714 10.7636 13
347 1 -0.138951 -0.619346 9.79171 17
348 1 0.172717 0.468196 -3.95291 21
349 1 -0.101376 5.89263 -3.34323 21
350 1 11.9927 2.86642 -3.09729 18
351 1 1.03442 -6.02871 5.7626 19
352 1 3.39761 9.88176 -7.14201 10
353 1 -2.90623 -16.2846 0.673179 18
354 1 5.69877 4.9936 4.9527 18
355 1 -1.89614 0.493989 4.51372 20
356 1 -1.81076 2.64294 -0.540066 21
357 1 7.18331 2.21516 -6.51321 20
358 1 6.94931 -2.97234 10.5706 20
359 1 11.5079 6.87083 6.62188 11
360 1 -2.76351 -3.05041 -0.719579 22
361 1 5.43245 -5.35344 -7.21893 20
362 1 3.61905 0.554973 4.39606 24
363 1 6.80142 -6.04441 -4.04414 17
364 1 4.06886 6.05569 7.47585 13
365 1 -8.6717 -6.5843 2.98144 13
366 1 8.33788 -17.7572 1.64314 12
367 1 9.49558 2.7773 -9.0482 16
368 1 12.9077 -12.3485 2.77356 15
369 1 3.07033 2.89342 3.23717 20
370 1 9.57101 -4.55031 -12.2464 16
371 1 9.49726 -8.3205 -9.70488 20
372 1 -1.06793 6.94112 8.76609 12
373 1 6.27339 -12.632 6.9582 19
374 1 4.08668 -5.95609 -9.60394 21
375 1 -5.61636 -12.9477 -2.73331 11
376 1 -1.79862 0.886999 8.13861 19
377 1 14.5304 -3.80166 4.53914 16
378 1 0.847506 10.358 -4.34606 8
379 1 12.7085 -1.63661 -10.506 15
380 1 17.5858 -0.27287 -2.7181 15
381 1 7.50229 3.42353 -10.9489 9
382 1 1.80254 -6.86471 11.9656 13
383 1 0.213785 -12.107 6.08223 21
384 1 11.3672 -8.61205 -5.60142 16
385 1 -3.02749 6.00683 -1.85524 16
386 1 12.6155 5.25362 1.03697 15
387 1 -4.96675 -6.82586 5.333 19
388 1 7.62682 -0.0787081 -8.12554 16
389 1 2.04065 -0.884951 12.497 13
390 1 -8.45435 -7.85146 -3.74826 10
391 1 11.7924 -5.11027 -0.447569 21
392 1 -3.17303 -11.6441 -1.71102 21
393 1 16.5528 -8.77167 0.665055 15
394 1 11.3035 -12.5617 0.0226294 18
395 1 6.75126 4.85568 8.77303 16
396 1 -3.38581 -4.0631 12.057 9
397 1 13.8245 -1.2867 3.05758 17
398 1 13.3096 -7.65166 -0.896927 21
399 1 8.59874 0.900084 2.94272 19
400 1 9.38507 9.15083 4.82281 11
401 1 6.85652 -18.2757 4.52854 10
402 1 -4.69929 -5.3249 -0.269241 20
403 1 8.59289 -1.36721 13.5583 9
404 1 8.89673 4.02574 2.05412 20
405 1 11.7916 -3.57342 10.327 12
406 1 15.7587 -8.68764 4.61311 13
407 1 13.0024 1.91324 9.613 10
408 1 0.365909 8.27858 -6.37942 14
409 1 6.52959 -13.5503 -8.39429 12
410 1 4.36287 -6.43749 -12.7249 12
411 1 -1.1501 -5.7028 11.0199 14
412 1 16.4775 -0.201277 2.91269 14
413 1 6.27853 8.50224 -7.85512 10
414 1 12.6788 -7.48074 -10.4309 13
415 1 -2.09432 -19.5966 2.40545 9
416 1 -3.53716 -6.33386 -5.93469 17
417 1 6.92571 -7.80202 -9.20201 17
418 1 4.98518 -17.0323 -4.28189 12
419 1 5.74705 -9.2132 11.6361 13
420 1 2.53021 -14.1205 6.0959 17
421 1 12.0057 0.619642 -8.24467 17
422 1 -4.19124 7.07419 6.69197 10
423 1 14.9389 -5.32929 -1.37414 20
424 1 -8.05068 -2.24504 -0.84734 12
425 1 15.6494 6.47068 -0.551059 9
426 1 8.58232 4.59053 11.1864 10
427 1 -8.35879 -2.20088 -7.42382 10
428 1 0.172028 -2.26031 -8.83741 20
429 1 17.4876 -10.6833 -1.04975 10
430 1 -5.59299 -9.92588 -3.73417 15
431 1 -3.21508 -13.8214 6.10987 16
432 1 16.3374 -6.24072 3.47278 14
433 1 -8.99392 0.671349 3.38005 12
434 1 6.5184 6.22784 -9.28448 9
435 1 11.397 -9.73698 10.0502 14
436 1 0.46756 -6.37932 8.96549 19
437 1 -1.10586 -6.47504 -7.71331 20
438 1 -0.908369 -15.2969 6.0469 12
439 1 10.0837 -6.18557 10.2385 18
440 1 6.74522 -16.9986 -1.70507 15
441 1 15.6622 -3.82764 -6.63492 14
442 1 -1.88548 3.15098 3.41106 19
443 1 -2.4582 -2.6206 6.15115 22
444 1 0.425163 -5.50021 -4.36745 17
445 1 4.70395 -15.0608 -6.33046 16
446 1 13.8698 3.8746 -1.15528 18
447 1 15.3918 -0.542249 0.25067 19
448 1 0.973762 -12.8771 9.31755 13
449 1 11.4659 5.84366 -4.49084 15
450 1 10.4347 -5.1248 -5.08563 19
451 1 -6.84438 0.953156 -2.42715 11
452 1 6.45505 5.24346 -4.54772 20
453 1 9.63823 6.13435 8.67698 12
454 1 9.1546 4.28377 -4.28115 19
455 1 0.477826 2.35298 11.3421 10
456 1 14.4519 1.08857 -2.55152 20
457 1 9.99918 -14.9455 1.65342 11
458 1 -2.868 -5.3848 7.73291 21
459 1 14.9538 -0.355246 7.6552 13
460 1 12.7657 -9.82605 -8.58296 12
461 1 2.88205 -3.39861 -7.54539 22
462 1 -0.928773 2.84969 -9.62704 15
463 1 2.61602 3.42974 6.69242 18
464 1 3.03485 4.03889 0.307677 19
465 1 0.630994 -11.6443 2.40872 18
466 1 14.4233 -10.7614 -0.577909 17
467 1 6.91504 -3.52742 -12.566 15
468 1 -2.20826 -10.2673 1.1254 20
469 1 -2.24771 3.58324 -3.99294 17
470 1 13.0391 -6.50879 9.5765 16
471 1 -5.31158 -11.8404 8.29817 13
472 1 13.953 -5.58602 1.97669 17
473 1 1.84455 1.73482 -8.53723 20
474 2 -7.71694 -1.45419 -9.12734 10
475 2 -2.31444 7.83157 -1.51341 13
476 2 5.97115 -6.17157 -9.61917 20
477 2 3.33015 2.10053 7.8261 19
478 2 -2.76243 -7.8792 -9.65482 13
479 2 8.29313 0.596508 9.75594 20
480 2 -4.98083 -2.97845 -0.51379 21
481 2 12.8827 -7.07855 2.388 21
482 2 6.47887 -2.57094 6.05784 23
483 2 0.205785 -5.84622 -6.16059 19
484 2 -2.02937 -10.168 -7.78468 15
485 2 -1.78363 -2.12021 -2.34272 20
486 2 3.32148 -9.32756 7.35375 16
487 2 7.29274 -0.027538 13.0986 12
488 2 13.7421 -7.70384 -9.12177 13
489 2 12.1748 -1.72234 2.0828 17
490 2 0.197003 6.6467 -1.53464 21
491 2 18.3468 -0.143945 2.29938 12
492 2 -8.27118 -7.21786 4.7091 14
493 2 0.748538 -17.8904 2.24489 15
494 2 14.2776 -7.52215 7.97863 13
495 2 -5.33862 6.28854 5.34786 11
496 2 2.22392 5.43992 1.41716 20
497 2 2.47525 2.24657 4.8957 20
498 2 -2.44706 3.3848 8.39265 17
499 2 7.87757 -12.9016 -4.35801 21
500 2 0.351511 -1.67511 -6.45527 20
501 2 8.28207 -12.5287 -8.19951 14
502 2 15.4019 -4.93054 -8.03294 14
503 2 2.83391 -11.8705 2.13984 22
504 2 11.9692 7.18695 -2.69924 13
505 2 -0.0686331 7.36688 7.26857 11
506 2 2.32256 -11.3654 -4.34322 18
507 2 7.90625 -12.9186 9.56347 13
508 2 15.4562 -1.49732 2.10171 15
509 2 -8.18292 -4.37068 -0.709315 14
510 2 13.7952 5.77446 -0.432063 14
511 2 11.317 -13.4047 1.74002 17
512 2 3.03696 7.93571 6.05252 9
513 2 10.2272 0.995619 3.92544 19
514 2 7.06311 1.4134 -4.33944 20
515 2 -6.81822 -4.09268 8.48582 11
516 2 10.8891 -2.59913 -9.63526 21
517 2 -6.54987 1.68218 -4.31554 14
518 2 -7.30625 -2.93159 4.95254 14
519 2 -5.12305 -13.1188 3.97721 14
520 2 3.67334 -12.1712 5.74376 19
521 2 1.36081 -8.80925 11.495 11
522 2 6.3084 0.54603 6.96574 20
523 2 -4.27352 -0.756083 -2.27194 19
524 2 8.95169 -15.3168 -5.65449 12
525 2 12.1769 -5.23773 -4.84693 18
526 2 -1.32069 -11.709 2.64344 20
527 2 10.2422 -4.00573 -6.85293 18
528 2 7.889 5.93477 7.89674 18
529 2 14.866 -9.97082 -4.44543 14
530 2 10.4403 -4.57571 11.2025 13
531 2 -3.53098 -10.1755 2.80727 18
532 2 18.0376 0.754791 -1.02973 15
533 2 5.34748 -14.003 2.4617 19
534 2 16.2368 -10.7578 0.677666 12
535 2 2.6734 -0.320764 -4.13714 18
536 2 2.98453 -8.61618 -2.27585 16
537 2 1.04244 -9.59426 -10.202 12
538 2 -4.4668 -8.22265 6.25951 14
539 2 -1.88104 -12.5627 -0.727293 20
540 2 -1.90673 -13.0227 -5.92119 12
541 2 -0.48961 5.70217 1.74243 17
542 2 5.89933 -0.898374 -7.21404 21
543 2 14.9759 3.08981 -4.99354 13
544 2 3.15588 3.57962 -4.91062 19
545 2 -2.09778 -0.595216 9.61018 16
546 2 -8.30783 1.68041 2.09777 11
547 2 0.106874 0.0051518 7.91547 22
548 2 -6.65296 4.55413 3.28765 15
549 2 -2.36952 4.34498 -5.97344 16
550 2 8.99947 -2.66658 -2.88321 17
551 2 18.1214 -8.63272 -0.653179 9
552 2 9.37689 3.00234 0.337106 19
553 2 4.96817 6.97087 1.67235 20
554 2 -4.98922 3.34118 5.84132 20
555 2 4.55151 3.93392 3.64008 19
556 2 15.0747 6.46368 -3.77937 12
557 2 5.00145 4.08902 0.446987 19
558 2 7.51758 6.94999 -7.79013 13
559 2 4.72858 4.972 8.92768 13
560 2 1.32311 -2.80022 6.16665 21
561 2 6.49855 -5.54865 7.25842 20
562 2 8.21476 -3.85426 -10.9068 18
563 2 0.751081 0.385794 11.4036 12
564 2 9.18816 -0.545689 -11.87 14
565 2 -1.70732 -14.6186 7.63768 13
566 2 3.71962 -11.2996 -1.0672 20
567 2 2.77711 -8.09828 -5.99378 18
568 2 8.67588 -16.0562 2.37164 17
569 2 14.8544 0.28817 -6.41207 14
570 2 2.45385 -2.39817 -12.2051 12
571 2 -0.533179 4.95714 9.31145 16
572 2 -5.041 -2.87483 -3.94052 17
573 2 7.57422 3.77378 -5.28441 16
574 2 2.72768 8.3715 -0.156927 17
575 2 5.16475 2.07841 10.1342 16
576 2 7.68878 -15.7863 -2.71424 17
577 2 10.6408 -2.95408 6.45295 19
578 2 10.8665 -5.23955 1.34253 21
579 2 13.0659 -4.37726 3.37022 21
580 2 -0.106572 -0.126588 -12.1922 12
581 2 9.55416 -10.061 10.1772 16
582 2 4.07032 -15.1258 6.01415 18
583 2 10.3733 -12.1698 7.76237 16
584 2 1.81039 9.86841 -6.10219 10
585 2 -4.02083 -17.1014 -0.771866 11
586 2 1.18938 -3.76954 -8.21426 19
587 2 3.33079 -13.738 -6.68264 15
588 2 16.9635 5.14083 -0.0879276 8
589 2 -4.28589 -8.68906 -2.76038 17
590 2 -7.11279 -0.709201 -1.49087 14
591 2 12.9053 -4.77762 9.08663 16
592 2 -0.999104 -16.1787 0.0682848 17
593 2 6.67928 -3.98753 -8.05329 20
594 2 3.65631 -5.24533 -11.2996 14
595 2 -6.29386 -5.14014 -10.0262 9
596 2 0.985244 -5.35781 10.6598 17
597 2 -2.45977 -7.88559 -5.49736 19
598 2 5.62672 -8.47564 -7.72528 18
599 2 13.8209 -3.48434 -6.54127 21
600 2 -1.87799 -8.09988 1.01042 20
601 2 5.9833 -5.31857 -5.53742 14
602 2 4.6007 0.986909 -2.96123 18
603 2 0.67669 -16.2529 -3.59668 12
604 2 6.4261 4.23547 -9.59509 16
605 2 10.0977 7.80427 6.01758 12
606 2 13.507 -1.6687 4.81433 17
607 2 -5.50142 -4.89033 5.18004 21
608 2 3.78402 -14.3869 0.204446 22
609 2 3.78019 -2.55504 -9.4212 22
610 2 -0.0641865 0.137109 4.91553 23
611 2 -0.00942275 -10.3728 0.679435 20
612 2 0.569843 2.92249 7.01265 18
613 2 -1.79319 -3.26526 4.51196 18
614 2 -7.5637 -9.02963 6.54148 13
615 2 4.06715 -17.9082 0.607167 12
616 2 -8.56755 -4.56382 2.69356 13
617 2 -3.26821 -14.4031 1.30185 18
618 2 -6.63391 -10.4439 8.81522 11
619 2 12.2157 -10.0408 8.31441 15
620 2 8.81946 8.54648 -2.67999 12
621 2 10.0815 5.72744 -0.655548 18
622 2 14.5219 -0.366629 -1.35198 19
623 2 1.2002 9.83023 -2.5173 12
624 2 -5.35276 -5.71956 -5.56108 20
625 2 -8.27993 -1.83487 1.0794 13
626 2 3.52008 -16.2816 -5.06371 14
627 2 6.47366 -8.33928 8.91358 22
628 2 9.39423 -8.57341 3.73033 21
629 2 0.0472111 8.12974 -8.63649 11
630 2 11.3224 1.26603 1.54035 19
631 2 7.82261 -2.74763 12.7361 12
632 2 3.09839 -7.69903 -9.42648 20
633 2 8.12509 -0.454217 4.23148 19
634 2 13.3493 3.68236 8.87387 10
635 2 1.85761 -2.76524 12.0951 13
636 2 -5.78606 1.64865 2.82829 16
637 2 11.1941 2.51072 -8.12148 12
638 2 -3.73701 -12.9338 -3.25478 15
639 2 -3.26594 -5.60244 -3.90278 17
640 2 -3.90617 -3.89844 8.29725 17
641 2 9.61206 8.57624 0.0409072 14
642 2 3.45221 -5.35132 -7.48818 20
643 2 13.4576 2.97765 4.0064 15
644 2 15.256 -10.3138 5.85736 11
645 2 -8.22293 -7.20927 1.37299 15
646 2 6.84208 6.70555 -0.807009 20
647 2 -0.0513857 4.48956 -9.2823 13
648 2 7.22541 -1.07131 -9.69751 21
649 2 -1.74637 0.758776 -0.814 22
650 2 6.65312 -8.22944 5.66412 23
651 2 5.44384 4.18913 -3.06026 20
652 2 -4.86078 -7.31063 3.46945 20
653 2 13.2227 -9.25228 0.329182 22
654 2 1.06906 -13.438 -0.732375 22
655 2 -1.49259 2.69212 5.4988 16
656 2 5.81544 -11.3464 3.63452 18
657 2 -7.18669 1.6563 -7.07141 13
658 2 6.50606 -13.445 -0.865414 25
659 2 9.17212 2.17785 6.84709 15
660 2 6.37364 1.75474 -11.1219 13
661 2 2.24047 6.25222 -10.012 12
662 2 11.2745 -3.05679 -12.6272 13
663 2 6.71677 6.98851 -4.19654 17
664 2 -3.10422 -5.90029 11.634 12
665 2 -1.93096 -9.22774 7.37454 19
666 2 1.06787 -10.9504 4.25125 23
667 2 -7.81239 -6.01195 -4.29169 13
668 2 1.30696 -8.11831 5.6829 18
669 2 0.458507 1.70518 -5.59856 19
670 2 9.43999 -8.36223 -2.16534 23
671 2 5.87335 -4.55608 10.7387 18
672 2 -4.90771 -8.22131 0.186187 24
673 2 8.46475 -3.21816 -13.5356 11
674 2 13.0844 1.17706 -3.92102 20
675 2 7.98235 5.69962 4.69624 18
676 2 11.5679 -6.60523 -1.88338 21
677 2 -5.81465 -5.32613 1.35966 20
678 2 -0.429822 8.69231 0.481872 13
679 2 7.61507 -2.53305 8.74031 18
680 2 6.65298 -16.7565 0.39658 18
681 2 2.56758 -15.2949 3.26895 18
682 2 0.900961 -3.28212 -4.10813 21
683 2 7.88016 -6.65015 10.133 20
684 2 11.853 -0.349099 -6.74533 18
685 2 3.41334 10.894 0.153573 8
686 2 9.47378 -14.1028 5.59356 18
687 2 12.9421 -12.3093 -3.78801 14
688 2 5.43532 2.53792 -7.25775 19
689 2 9.53197 -11.5024 4.37856 20
690 2 8.48023 2.86923 11.9395 11
691 2 5.51706 0.776232 4.24359 21
692 2 14.9516 -7.03983 4.59612 16
693 2 5.25807 -2.37919 -12.353 14
694 2 16.3589 -4.98663 -5.2342 12
695 2 -3.32587 4.20455 3.24867 19
696 2 8.0719 -9.45423 -8.91505 17
697 2 3.97131 -0.733809 12.1975 11
698 2 -5.35945 4.05062 -5.7906 13
699 2 14.4766 -7.1684 -2.37628 19
700 2 11.5635 6.63466 1.63727 14
701 2 16.7782 1.56458 3.53761 12
702 2 18.6088 2.91222 1.23641 9
703 2 -5.60066 -5.64588 -1.97922 19
704 2 -1.01069 3.91321 -2.6117 19
705 2 -2.65472 0.593935 -7.02378 20
706 2 -2.79562 -5.08288 -0.451634 20
707 2 16.5513 0.617501 -4.16699 14
708 2 -3.5934 2.44724 0.408618 16
709 2 1.56302 -11.5849 10.559 9
710 2 4.79148 -2.99514 13.4152 13
711 2 6.36796 -15.9274 -5.10952 14
712 2 6.08143 -10.7556 -12.2873 9
713 2 7.01498 8.26098 2.27321 17
714 2 9.81009 7.81026 3.4466 17
715 2 -5.32727 -8.46204 -7.28889 15
716 2 -4.98165 -14.0647 -1.13014 14
717 2 14.3509 -3.96433 -2.66492 19
718 2 -3.47325 5.30977 -0.187421 14
719 2 5.61105 -16.811 3.77598 18
720 2 10.0641 -11.0237 0.68431 21
721 2 -1.54351 -8.90185 4.37192 19
722 2 3.17205 -14.2624 -2.59785 20
723 2 8.72666 -1.024 7.00529 22
724 2 2.96219 9.40935 -8.98378 10
725 2 -8.12766 1.84833 4.75143 13
726 2 9.10168 -3.00575 0.687556 22
727 2 -3.53167 -11.7935 9.04752 14
728 2 1.79139 8.88063 2.98054 13
729 2 4.76874 -16.5093 -2.17856 16
730 2 0.224065 -8.32341 9.15088 17
731 2 11.1462 1.2607 8.89267 15
732 2 -2.4935 0.912568 2.66279 20
733 2 4.37109 8.08048 -2.40289 14
734 2 4.18199 -3.30507 7.73183 24
735 2 3.16601 -10.4448 -7.46897 20
736 2 17.1083 -7.4731 -3.34035 12
737 2 12.2338 -8.32961 -4.11853 18
738 2 2.09293 5.84158 -3.50443 14
739 2 -1.56031 -3.54663 11.0132 18
740 2 -5.06458 -0.764102 -6.59735 19
741 2 9.94395 -7.2524 -5.94625 18
742 2 11.0587 -0.491356 -0.802724 21
743 2 0.90019 -2.29856 9.3106 19
744 2 3.62765 -6.20242 6.02184 21
745 2 3.08052 0.823879 -12.695 11
746 2 -8.13821 -1.08918 -5.89076 9
747 2 -0.0397602 -6.21247 -9.55574 17
748 2 2.52863 3.75791 -1.46349 21
749 2 -2.82356 -4.87665 -10.8016 14
750 2 8.76829 -6.56322 -8.92864 17
751 2 0.187565 -10.3653 -2.1567 18
752 2 0.0125308 -11.3686 8.10583 17
753 2 0.224861 2.18709 -8.27659 14
754 2 9.03701 -6.04264 5.90525 20
755 2 7.54141 2.4322 2.31316 20
756 2 14.6158 -7.25284 -6.04091 18
757 2 7.2636 -18.6711 2.73092 9
758 2 11.6045 -0.0617882 6.43998 20
759 2 -3.03443 6.7385 8.22076 12
760 2 -7.18944 -9.48831 0.394952 12
761 2 12.2356 2.67787 -1.14549 18
762 2 6.56614 -13.9093 5.46847 20
763 2 -2.89565 8.43937 5.61497 9
764 2 8.75873 1.35499 -7.72894 18
765 2 8.27403 -0.45545 1.56753 22
766 2 -6.34596 -0.016722 5.73235 14
767 2 5.26994 7.61669 -9.18893 9
768 2 -1.6635 -2.13349 0.884637 22
769 2 12.1931 -6.07945 -11.7915 11
770 2 -1.42771 -3.50842 7.62662 22
771 2 3.89805 -0.38746 9.00889 18
772 2 13.3587 -2.00238 8.23883 16
773 2 13.6622 -3.77726 -10.8372 11
774 2 -7.19495 -8.88134 -4.41226 13
775 2 6.91627 -11.0046 0.282285 18
776 2 16.3221 -2.03611 -5.85981 13
777 2 -0.202377 3.45779 -0.0296122 21
778 2 5.53288 -12.1629 -9.21741 14
779 2 -8.93298 -1.08264 3.974 11
780 2 -2.66044 -5.1883 2.61954 21
781 2 13.1415 -12.0954 0.0603445 15
782 2 0.760573 -15.0275 -6.22293 13
783 2 1.57075 -16.5188 0.016211 18
784 2 13.6643 -5.96617 0.0109792 19
785 2 1.28312 2.82351 -11.1708 13
786 2 6.97049 3.52146 5.68962 16
787 2 0.14571 -16.3572 4.79729 15
788 2 9.84862 -5.08949 8.46775 19
789 2 2.06275 2.88367 9.82188 17
790 2 0.809951 1.40023 -2.31326 20
791 2 1.29779 6.12485 -6.48821 18
792 2 6.05336 -15.0177 -7.7124 12
793 2 -4.90124 -13.1353 6.73711 14
794 2 -3.64952 4.83836 -3.20564 16
795 2 9.642 4.4644 -7.70485 15
796 2 2.79012 0.93895 -6.91063 21
797 2 6.95769 2.30338 -1.08132 17
798 2 3.20264 -10.8245 -11.0663 13
799 2 6.09016 -10.586 -6.2703 16
800 2 -7.35975 -3.86195 -7.23803 13
801 2 15.0736 0.355429 5.7552 14
802 2 0.0798149 -3.10934 -10.6007 16
803 2 -7.4716 -11.7963 6.40976 10
804 2 10.8424 -1.7604 9.63351 17
805 2 10.1712 5.04047 10.4233 10
806 2 11.3764 -0.0365743 -9.98939 16
807 2 4.1045 1.15101 -9.69045 19
808 2 -2.04591 6.60591 -4.6806 14
809 2 17.1263 -2.0813 0.181102 13
810 2 -2.49012 -2.70321 -6.062 19
811 2 9.38347 6.17021 -5.07244 15
812 2 3.09337 -5.74432 12.9144 12
813 2 -0.258115 -8.37383 -7.90348 19
814 2 -1.81653 -7.73098 -2.28842 18
815 2 9.7694 -0.203552 12.526 8
816 2 0.0414514 3.16294 3.05615 19
817 2 14.7628 -12.2814 3.11139 11
818 2 11.3184 -10.6754 -9.10738 12
819 2 2.23072 5.27441 6.9644 16
820 2 7.18433 -11.0399 7.21244 24
821 2 2.70562 3.91526 -8.43093 21
822 2 5.52995 6.50932 6.27086 15
823 2 -3.69294 2.16674 -4.88601 20
824 2 6.36071 9.62398 -0.499111 14
825 2 -4.37184 -10.6937 -5.24171 16
826 2 11.0027 -8.48514 -11.0447 16
827 2 -4.10259 1.35073 11.0897 12
828 2 16.8374 -5.15859 -0.982655 15
829 2 -0.485286 8.99263 -4.77822 12
830 2 -4.33093 -2.23267 5.87773 18
831 2 -2.25344 -15.7032 -2.58882 13
832 2 11.5846 6.40875 8.39067 8
833 2 1.68824 -12.797 -8.9526 10
834 2 -4.89005 0.0927041 -9.68881 15
835 2 3.59518 -2.31712 -5.89929 21
836 2 6.03385 -5.42165 -13.0237 16
837 2 -6.35992 3.67769 8.87808 9
838 2 -3.78496 4.29854 10.5917 10
839 2 4.89539 8.60799 -6.45016 11
840 2 -3.74241 -19.5399 1.26543 6
841 2 13.8999 -1.89745 -8.98596 16
842 2 11.7858 -5.64115 -8.41546 19
843 2 -2.8482 -15.2119 4.83844 14
844 2 -1.53355 -0.347442 -4.22694 18
845 2 -2.02208 -11.8936 5.80646 20
846 2 1.66193 -0.861698 -8.9144 19
847 2 7.00141 -10.8713 -2.43276 20
848 2 5.95267 -15.3693 8.31007 12
849 2 14.6103 1.23344 8.56979 12
850 2 11.5273 -7.56553 9.95403 15
851 2 1.2301 -5.51296 7.60974 20
852 2 9.11418 2.21741 -10.9045 13
853 2 8.00106 3.52626 9.06246 16
854 2 -0.0110154 -10.5827 -5.55093 16
855 2 -5.79335 -11.2794 -2.18633 16
856 2 0.585075 -14.0199 5.92249 17
857 2 -4.16926 -2.7681 2.82474 16
858 2 -2.10832 1.85192 -10.6839 13
859 2 -7.68751 -6.88324 -7.10015 11
860 2 -0.510454 7.65274 4.13543 13
861 2 10.7449 -9.57215 6.17024 18
862 2 12.0851 5.5537 5.50308 11
863 2 -2.5066 -17.4007 2.13949 15
864 2 -6.83522 -10.3239 3.50254 13
865 2 -8.36503 -5.67052 6.77207 13
866 2 3.92618 -6.56651 9.03532 19
867 2 5.18421 -7.24409 11.6869 15
868 2 7.59593 -16.8677 5.39757 14
869 2 14.4503 -4.35623 6.51612 15
870 2 5.08821 -13.0314 -4.02591 20