ITEM: TIMESTEP
17000
ITEM: NUMBER OF ATOMS
1000
ITEM: BOX BOUNDS pp pp pp
-30.0 30.0
-30.0 30.0
-30.0 30.0
ITEM: ATOMS id type x y z Coordination
1 1 2.70947 -11.2808 -8.11109 12
2 1 8.9222 -12.3432 10.951 9
3 1 -7.45939 5.13072 -1.31557 16
4 1 -9.53394 -0.624615 -6.24076 11
5 1 4.6475 -9.85845 12.689 13
6 1 -5.90868 -3.32807 -10.3891 12
7 1 3.90924 -1.35813 -4.16005 18
8 1 -3.3186 -15.2195 0.435558 13
9 1 11.4994 -4.93412 5.79828 20
10 1 1.50122 -2.57113 13.5684 13
11 1 9.64045 -4.5347 2.81065 22
12 1 -2.77433 9.06694 -10.3316 10
13 1 9.34274 -6.67354 11.7933 13
14 1 -1.16236 -0.093358 3.75162 20
15 1 1.95461 -3.63994 -5.26265 18
16 1 3.05152 -4.22984 7.24375 19
17 1 6.92998 -7.07907 -4.54617 17
18 1 4.56513 -2.08595 14.7714 10
19 1 1.2652 -13.6812 7.0411 10
20 1 -7.89165 -5.5269 3.2281 13
21 1 -8.51884 -2.07473 -1.27186 17
22 1 5.8465 7.59916 -1.14639 16
23 1 4.56335 -3.95316 -12.3317 9
24 1 6.38959 -7.65005 -7.07559 19
25 1 1.64873 -8.32885 13.4579 11
26 1 -7.71531 6.33736 2.18479 10
27 1 1.62662 10.8065 1.05831 11
28 1 0.235477 -12.8438 0.946038 18
29 1 5.36531 -13.2418 -7.00215 11
30 1 7.04046 -4.20536 5.6655 19
31 1 -5.1109 5.42654 -6.09062 18
32 1 5.01723 3.21402 -7.77353 15
33 1 4.35436 0.589241 4.25133 21
34 1 5.87019 -1.62109 11.4927 16
35 1 -5.17395 -5.27788 0.056045 21
36 1 13.4551 -2.98309 13.3009 9
37 1 -8.30811 -5.37559 0.281655 16
38 1 11.175 0.21608 6.28845 17
39 1 11.5524 -7.20539 -9.60793 20
40 1 10.3789 -3.44115 12.6999 13
41 1 -5.92257 -7.93746 -0.907815 21
42 1 1.91188 -8.28526 -7.80072 15
43 1 -3.45587 9.31058 -0.0132051 13
44 1 -2.88241 6.27641 -8.02597 21
45 1 9.64656 -2.76672 -3.14068 19
46 1 11.8475 -9.29621 -1.83649 19
47 1 8.81864 -6.67613 5.91987 25
48 1 9.87436 -9.53463 8.88187 18
49 1 -0.477122 7.83426 5.16131 18
50 1 -1.87937 -7.33628 14.3469 8
51 1 -5.6793 2.1735 3.96178 20
52 1 6.60775 -12.7227 -4.20444 17
53 1 9.06229 -7.13793 -13.1265 11
54 1 15.0509 -2.88106 5.02409 15
55 1 4.2766 10.4838 5.49943 9
56 1 -4.51193 0.687759 -8.0925 15
57 1 0.530049 5.76943 -0.4569 18
58 1 -4.40712 -9.11302 12.5342 10
59 1 3.91317 -6.13368 -5.16542 17
60 1 7.20377 -15.6069 -3.98041 10
61 1 0.268962 -2.51628 6.39178 20
62 1 -10.9255 -6.3948 -1.97569 5
63 1 10.6299 -12.7142 8.02784 10
64 1 -4.36734 -12.1322 -4.06739 13
65 1 13.9646 -11.8779 -0.881453 16
66 1 -3.63921 8.32406 4.3745 18
67 1 -0.449502 3.28446 -2.23782 21
68 1 6.31909 6.55407 -4.9753 16
69 1 11.1485 -12.8672 0.12964 14
70 1 -6.70219 -10.8675 -1.40088 17
71 1 9.65357 -2.09875 5.08949 18
72 1 10.4986 1.93544 1.28262 20
73 1 -1.95649 10.7026 -5.35574 13
74 1 7.60081 -11.7662 -9.62388 12
75 1 0.454628 6.66788 -6.43069 20
76 1 15.3363 -2.03043 -8.15361 10
77 1 10.843 -5.09623 -11.7484 12
78 1 9.29292 -14.0106 4.78423 11
79 1 -1.88911 4.9903 -4.27824 18
80 1 9.59882 3.9526 -1.47626 15
81 1 11.0593 4.56834 2.44813 15
82 1 1.48375 3.93519 -4.94576 23
83 1 3.10164 -5.18241 -8.001 17
84 1 -7.43405 -2.75614 -7.09461 11
85 1 -0.97515 5.49928 11.1332 10
86 1 2.85457 9.63101 -7.16667 12
87 1 5.65552 -4.18216 9.9812 19
88 1 -6.42752 -6.38865 5.63687 19
89 1 -2.43085 -16.0162 3.23609 12
90 1 5.27437 10.9667 2.20495 9
91 1 13.2659 4.47447 -4.35619 9
92 1 2.12177 -9.58416 10.717 13
93 1 -9.4896 3.10773 -1.91567 12
94 1 1.74863 0.546595 14.1926 9
95 1 -1.24056 4.42482 -7.13556 17
96 1 -4.74502 -10.6333 9.70302 15
97 1 -6.11177 -12.6463 0.476823 13
98 1 -10.2287 -0.200712 -3.31257 13
99 1 9.47893 -14.4857 -2.492 15
100 1 1.53954 8.63197 2.41352 20
101 1 -3.71813 -0.844933 5.52387 22
102 1 -2.95634 -0.321248 -5.52415 15
103 1 -2.38137 -14.7271 5.94415 11
104 1 11.0503 -0.190451 -5.15906 19
105 1 11.708 -0.626346 9.37495 19
106 1 0.118516 3.23215 -11.7086 10
107 1 -5.07606 -8.74263 -7.91977 9
108 1 -3.53679 9.21539 -3.27052 12
109 1 10.9635 -0.515199 12.4811 13
110 1 0.769675 9.36032 -4.90804 13
111 1 2.2925 0.518321 -9.42242 17
112 1 -6.76955 2.53141 9.14591 13
113 1 -4.19629 0.878994 8.10299 17
114 1 3.70746 -14.0439 0.851279 14
115 1 3.14281 -15.5456 3.84293 17
116 1 12.9695 -0.385629 -8.63358 14
117 1 -1.82158 6.98498 1.45481 18
118 1 -5.00057 -4.57123 3.28306 19
119 1 4.29544 0.739249 12.7202 12
120 1 14.3142 -4.86906 -6.68074 13
121 1 5.21172 4.01154 9.51167 13
122 1 -6.7725 0.126668 1.07537 18
123 1 -8.42208 -6.36003 -4.47756 8
124 1 9.85982 -9.65364 12.9034 7
125 1 6.45084 -9.4592 0.125809 18
126 1 1.71384 -2.92999 -8.73279 16
127 1 9.04759 -5.16841 -5.69519 21
128 1 -5.67283 -5.22788 10.0725 17
129 1 -3.31481 -10.019 -5.72778 18
130 1 -1.55415 -8.97271 0.859439 19
131 1 -2.28037 -12.2143 1.76988 20
132 1 -3.92254 -6.3482 -12.1005 8
133 1 -5.863 0.338895 -10.4561 13
134 1 13.6701 -0.0258678 12.4194 10
135 1 13.0577 -2.48653 7.40895 20
136 1 7.54213 -7.05103 9.54427 17
137 1 9.10645 6.92942 3.63408 13
138 1 -5.30424 -9.96358 4.70943 21
139 1 3.27805 6.41143 4.47006 22
140 1 4.90895 -6.24858 -9.77231 13
141 1 -0.773568 -10.9451 -7.67734 12
142 1 -4.0055 -7.00982 5.17976 18
143 1 14.459 -5.62483 5.90956 20
144 1 1.12892 -3.49284 -1.2156 18
145 1 -3.69655 -7.95894 9.59365 18
146 1 -1.35839 -13.4494 -1.64002 17
147 1 7.44901 4.01397 -6.08689 19
148 1 -2.83298 -18.5705 1.00074 6
149 1 8.62901 -8.00892 -1.77063 18
150 1 0.714128 -18.7297 5.87674 6
151 1 -9.14327 1.03994 -9.37223 7
152 1 7.55062 0.502063 2.75749 17
153 1 -2.30258 -4.4431 -9.81491 16
154 1 0.594915 8.29602 -11.1519 9
155 1 -1.84375 -10.3518 10.139 13
156 1 3.92579 6.98978 7.8992 13
157 1 16.5743 -3.24887 -0.916976 12
158 1 -3.55024 -5.40222 7.83272 20
159 1 4.78537 -7.73977 15.0711 9
160 1 -4.92304 8.12685 7.12146 12
161 1 -0.73759 -4.26559 -7.13262 20
162 1 0.294069 -10.6728 3.35652 18
163 1 10.5251 -10.6624 -7.94069 16
164 1 -3.60171 -7.41446 1.68755 20
165 1 3.50161 -9.33084 7.56921 17
166 1 -6.36835 -8.03129 2.49436 23
167 1 13.5936 -11.8692 2.41421 13
168 1 -4.87695 5.99908 0.247598 18
169 1 -4.91382 5.08208 3.69553 16
170 1 6.26206 -7.5212 4.61786 19
171 1 1.37499 -0.110113 11.5355 18
172 1 0.438988 -0.585051 -7.26595 25
173 1 0.931748 10.799 4.23467 12
174 1 -0.504227 -2.2822 -4.56579 19
175 1 -8.58707 -2.59017 7.24309 12
176 1 5.05118 -3.48391 -6.24794 17
177 1 -1.99443 5.43131 4.31762 17
178 1 15.508 -8.06962 3.51714 16
179 1 12.4755 -3.3616 10.0352 20
180 1 5.20806 -6.71301 11.5828 14
181 1 6.28319 -17.9667 0.709597 9
182 1 0.316848 -6.61072 -9.44654 14
183 1 -1.44117 -8.18632 -7.33278 17
184 1 6.17567 -12.5774 1.2983 19
185 1 11.48 -3.07117 -6.05989 18
186 1 -3.47919 -1.99574 -11.1022 15
187 1 -7.2436 3.15821 6.43216 10
188 1 -1.26622 9.95439 2.75868 13
189 1 -2.73851 2.29254 4.9167 21
190 1 12.8443 -11.5058 -6.50447 14
191 1 14.5757 -6.50634 -9.43574 10
192 1 4.30374 -0.596746 9.34359 18
193 1 -0.493612 1.22743 -4.83133 20
194 1 1.23733 -12.4422 -2.01323 17
195 1 3.90167 3.83592 6.60447 22
196 1 8.23028 0.316315 0.126509 16
197 1 -8.04288 5.37915 -4.56327 12
198 1 7.1587 -13.563 -1.2689 16
199 1 11.7278 4.3009 8.80012 9
200 1 -5.26776 -3.72848 -4.83184 18
201 1 -3.96806 -15.2448 -3.21106 8
202 1 -6.9198 8.61358 -0.531346 10
203 1 -6.94692 3.418 1.14844 16
204 1 -3.14273 -12.8713 -7.39555 8
205 1 8.10037 -12.9078 7.29501 15
206 1 -1.47355 -11.3723 -4.29244 19
207 1 -4.28549 3.44031 -8.8553 18
208 1 -4.22734 -13.2719 8.6565 9
209 1 -0.883597 -6.26335 6.38603 18
210 1 -5.63099 -2.78195 12.2803 10
211 1 3.45765 -12.22 -4.0826 15
212 1 -7.5997e-04 -7.92459 9.11512 17
213 1 -6.47347 0.0869841 6.22938 17
214 1 4.60678 -12.2857 6.84961 15
215 1 -6.51492 -11.6801 6.7208 14
216 1 7.23873 -10.2674 -2.87007 18
217 1 -0.0053701 -14.0826 4.16321 17
218 1 7.78898 9.08004 0.632711 10
219 1 -7.23444 -11.6461 3.57731 17
220 1 12.5504 -9.60622 8.96459 8
221 1 10.6181 -3.49496 -0.563011 16
222 1 1.4616 1.36715 5.74236 20
223 1 6.9725 -1.42203 -8.62893 19
224 1 11.7255 -8.02812 6.36985 18
225 1 -0.852339 -2.63064 11.2221 20
226 1 5.96021 5.90685 3.29845 19
227 1 11.066 -6.44667 8.86008 18
228 1 3.15558 -17.587 1.04734 13
229 1 8.79088 -1.27526 10.3846 20
230 1 -2.07855 0.547239 9.92923 17
231 1 -3.93308 -5.86047 -3.04439 19
232 1 -7.08202 -9.22997 -3.57752 11
233 1 -2.38654 6.27515 8.87582 13
234 1 0.229264 -13.4058 -6.8038 10
235 1 -3.58615 -2.94354 1.84084 18
236 1 6.137 -2.08305 7.85597 20
237 1 13.3095 0.137488 3.44965 16
238 1 5.80925 0.53612 -6.68399 20
239 1 0.256382 6.0797 -9.45925 15
240 1 -1.19505 3.13655 7.10115 20
241 1 -4.74174 -4.1122 -8.03574 15
242 1 9.78172 5.01245 -8.18481 9
243 1 0.607024 -6.72655 -5.49146 19
244 1 10.0008 -3.29359 -8.89956 17
245 1 12.848 3.02189 -1.1239 15
246 1 3.16091 5.78824 0.941403 22
247 1 13.2989 -3.82023 -9.96706 12
248 1 2.38093 -12.3472 4.68801 15
249 1 -0.814259 2.26131 -8.90566 18
250 1 13.7197 1.43817 -3.5975 13
251 1 10.6775 -9.68206 1.53202 20
252 1 -0.926368 -4.47226 -12.317 10
253 1 -0.20951 -19.654 2.59507 9
254 1 6.61237 -9.49888 7.44859 20
255 1 -5.80653 -0.299185 -4.30798 16
256 1 3.20324 -0.50538 -11.57 11
257 1 -9.30076 -9.15276 2.82071 11
258 1 13.8925 -8.59036 -7.30145 15
259 1 4.48666 3.96334 -5.00379 20
260 1 -5.57141 6.92992 -3.41753 18
261 1 8.3991 -17.977 -2.00795 7
262 1 3.38898 7.1916 -10.0331 11
263 1 12.9227 -9.99814 -9.75866 11
264 1 6.88881 -12.0277 4.74567 19
265 1 -2.17855 -9.24216 4.37499 21
266 1 -0.812285 10.4196 -1.88089 10
267 1 -0.702991 9.32165 -8.16356 16
268 1 11.0814 0.790649 -1.91689 17
269 1 1.56061 -15.8072 -0.965628 15
270 1 7.02535 -4.95519 -7.79705 20
271 1 7.9524 3.25407 1.66725 18
272 1 15.9597 -7.57298 -4.29802 14
273 1 11.4719 -10.6798 4.25445 13
274 1 9.59199 -5.93191 -3.00903 18
275 1 -6.83218 -7.91906 10.4699 14
276 1 -5.59932 -7.13905 -5.45473 17
277 1 2.42543 -6.81525 8.50846 18
278 1 3.67817 6.81424 -5.95772 18
279 1 -8.57731 2.30395 -4.80592 13
280 1 1.98852 8.93929 -1.79684 14
281 1 -0.0102508 -4.61408 9.01766 20
282 1 6.08297 -15.0193 6.12582 12
283 1 8.44527 -2.1794 -6.08782 23
284 1 -8.92714 -8.40893 -0.31394 16
285 1 -6.75446 1.1278 -2.10458 21
286 1 -7.8554 -8.78431 5.21564 15
287 1 6.02522 8.46802 4.2808 14
288 1 4.64614 -14.4689 -1.73848 15
289 1 13.0343 -5.85518 11.7952 11
290 1 11.2201 -6.90953 0.0286165 22
291 1 -6.77994 6.37417 5.68955 14
292 1 12.3178 -12.6446 -3.21467 15
293 1 -1.17482 -0.791435 13.1414 11
294 1 -2.84883 5.6064 -10.998 13
295 1 8.58272 2.62964 -9.5552 16
296 1 7.79634 -4.38049 -11.2049 15
297 1 -4.30648 -9.09363 -3.41681 21
298 1 15.7673 -1.32895 1.10711 11
299 1 10.0056 -10.4929 -4.76039 17
300 1 8.14323 -15.3867 0.819277 13
301 1 4.54244 8.80013 -3.6663 11
302 1 -6.43559 -1.63227 4.01538 21
303 1 13.7673 1.26645 0.861593 11
304 1 7.24597 -9.63415 10.6671 16
305 1 15.903 -4.10603 2.66685 13
306 1 13.3631 2.02559 10.5639 12
307 1 -6.18041 2.59627 -5.47073 19
308 1 16.3134 -0.288122 -2.49641 8
309 1 10.9203 -7.56743 3.56076 20
310 1 2.72451 -10.4077 1.79793 16
311 1 -0.467873 3.17849 9.58034 19
312 1 9.75308 -2.57823 7.71305 20
313 1 -4.86545 9.91435 2.14739 9
314 1 3.80407 -11.5503 -0.96539 17
315 1 -2.72193 1.48511 -10.8488 13
316 1 -6.68737 -7.84183 -10.6201 5
317 1 -3.19236 -5.91605 -6.66542 20
318 1 14.9975 -10.5899 4.69408 11
319 1 -1.61051 -12.702 7.74341 12
320 1 5.48767 -6.5394 7.0337 19
321 1 11.4148 2.32515 -9.70288 11
322 1 15.802 -6.92462 0.737977 15
323 1 5.40135 1.49747 7.35962 20
324 1 16.5837 -10.4271 1.17412 11
325 1 -5.4509 0.623253 11.3333 12
326 1 -3.37834 -11.1723 -1.09824 17
327 1 -8.28402 -2.94336 -3.9106 16
328 1 16.1971 -3.33855 11.6816 6
329 1 -2.87312 3.82216 2.09673 17
330 1 15.0886 -1.00695 9.82531 15
331 1 13.4604 -8.56348 0.716476 22
332 1 12.6313 -3.26901 3.21205 17
333 1 -8.58854 -6.38238 8.1202 10
334 1 9.71041 -9.42581 -10.5701 16
335 1 1.31496 -10.0636 -4.15561 16
336 1 10.1819 1.98299 10.3276 13
337 1 4.7546 1.71518 1.10596 20
338 1 2.77684 -5.5633 14.1907 15
339 1 -2.75885 -3.84628 13.811 10
340 1 -0.287671 -6.0687 12.403 15
341 1 2.57721 1.57374 -6.28071 21
342 1 -3.59776 2.66958 -5.97032 20
343 1 11.6274 6.26386 -2.0927 10
344 1 -2.5357 -5.30952 10.3614 19
345 1 8.41332 6.76348 -2.42786 15
346 1 -0.999777 -6.79081 -1.35339 17
347 1 12.2596 2.83279 4.16842 12
348 1 2.12913 1.72111 8.57681 24
349 1 -9.92346 0.542648 0.12224 14
350 1 3.46403 3.76252 -1.88026 20
351 1 3.55134 -1.01838 6.54273 22
352 1 1.76363 2.86445 11.5365 14
353 1 -3.12861 1.51014 -2.6534 20
354 1 8.05347 1.08098 -5.63365 14
355 1 1.60082 -1.81273 8.9709 19
356 1 8.91392 -11.0604 -0.41211 18
357 1 9.12416 2.63526 5.01578 14
358 1 -7.97067 -3.79373 9.8335 10
359 1 3.73204 -17.8108 6.56579 7
360 1 6.45354 3.85671 -2.54898 17
361 1 3.56604 -9.45379 4.20193 16
362 1 0.849851 4.74216 6.32842 24
363 1 6.49276 -8.83544 -11.4995 9
364 1 8.4459 -6.82677 -9.90739 19
365 1 -2.32379 10.5183 6.25927 9
366 1 8.63722 -4.3335 10.3203 16
367 1 2.13976 4.30221 -8.17871 19
368 1 -0.623289 -16.0552 -5.27766 5
369 1 -0.752125 0.0140489 6.50528 20
370 1 16.0264 -4.32208 -3.32247 13
371 1 5.54938 7.81524 -8.24792 9
372 1 8.86492 -0.401971 -10.7741 11
373 1 14.5697 -1.22789 -5.26763 19
374 1 11.5911 2.42017 -7.10468 16
375 1 -4.78811 -6.32264 13.0925 12
376 1 1.04464 -11.9546 9.98472 10
377 1 4.63636 -9.83591 -5.70313 20
378 1 -4.54028 4.04353 -2.76805 21
379 1 9.68294 5.93143 7.05671 11
380 1 -6.56876 -8.88779 7.99929 16
381 1 6.10681 -1.49717 -12.2635 10
382 1 2.47301 -4.218 11.0366 20
383 1 -5.51393 -2.50748 -1.34044 21
384 1 13.6615 -3.92673 -0.142012 20
385 1 -6.64228 -5.38533 -2.17454 20
386 1 15.863 -9.25154 -1.48753 14
387 1 8.90884 -11.9388 2.5725 17
388 1 2.01899 4.99075 9.55194 18
389 1 -5.35252 -3.45347 5.91866 16
390 1 13.4427 -1.11515 -1.48151 20
391 1 7.76843 -10.6299 -6.52894 18
392 1 5.83808 2.94818 4.17354 18
393 1 2.19927 8.33671 6.06822 16
394 1 0.690204 -17.2435 3.07274 15
395 1 -3.35399 -0.366506 -0.222123 20
396 1 5.40766 -4.14338 13.1871 14
397 1 4.52314 8.64979 1.55668 19
398 1 17.1808 -5.27682 6.29788 11
399 1 15.2572 -8.11793 6.98833 12
400 1 6.79399 1.53552 10.7725 13
401 1 0.803241 6.28543 -3.33029 19
402 1 4.98895 -10.3986 -8.5156 15
403 1 -0.497678 -1.21666 -10.3458 16
404 1 -5.11022 -2.02075 8.78992 19
405 1 14.0098 0.193208 6.19255 11
406 1 6.46118 5.07865 -10.0498 10
407 1 9.60105 -13.2115 -5.57406 13
408 1 -1.14031 -16.779 -2.46609 10
409 1 -1.00954 -4.75282 -3.60109 20
410 1 5.71385 1.32838 -10.3508 17
411 1 1.31189 -9.72015 -0.554443 18
412 1 7.19583 -9.87368 15.0604 5
413 1 -2.86582 -9.40718 7.08703 21
414 1 14.3277 1.4108 -7.1536 11
415 1 -4.68733 4.96082 7.85862 13
416 1 14.0562 -6.53823 -1.72904 19
417 1 -8.65201 -2.56429 1.73655 13
418 1 11.9198 5.88699 5.77633 9
419 1 7.93352 0.130269 7.03496 19
420 1 -8.37754 -1.79429 -9.68119 10
421 1 -3.42394 7.50188 -5.73433 16
422 1 15.2594 -10.9115 -4.42939 12
423 1 -2.08522 -2.15324 -7.50467 17
424 1 -3.48566 -12.2141 5.15186 18
425 1 13.2187 -5.93142 3.21902 19
426 1 -8.44078 0.858379 3.45988 14
427 1 3.66601 6.14773 -2.70596 24
428 1 14.3652 -5.43054 8.73629 14
429 1 -2.01736 -2.7977 8.25314 18
430 1 3.42005 -1.36423 -7.51659 19
431 1 -4.83045 -13.5516 3.47204 15
432 1 16.1049 -3.24464 8.53258 18
433 1 0.205677 -18.4962 -0.0613482 11
434 1 12.9615 -9.08904 -4.41548 19
435 1 -7.13004 8.87855 4.33319 8
436 1 -8.86283 -0.334257 10.1812 8
437 1 4.65202 -18.6518 3.52104 10
438 1 8.7138 5.60827 0.69833 17
439 1 12.3595 -3.28036 -3.12385 18
440 1 4.40201 -11.7783 9.88821 12
441 1 10.1761 4.76689 -4.59563 15
442 1 12.4271 -7.78886 -12.4171 10
443 1 -7.73371 4.00289 -8.01394 10
444 1 5.38799 1.09676 -3.05737 18
445 1 6.58989 5.61489 6.46061 19
446 1 5.71936 5.2938 0.152664 19
447 1 -3.71382 3.12865 9.81867 15
448 1 9.7879 0.0112041 -7.85534 19
449 1 8.89015 -10.01 5.4155 19
450 1 -0.0111058 2.47477 3.30055 23
451 1 8.2839 3.45541 8.26428 16
452 1 9.6619 -7.68005 -6.57379 19
453 1 4.09023 -9.0563 -2.18753 16
454 1 -4.01849 9.823 -7.35373 8
455 1 0.511655 7.40085 8.65523 13
456 1 -3.81582 0.279519 2.46235 17
457 1 -4.55351 -10.2365 1.60297 19
458 1 6.39762 -15.2717 3.12981 17
459 1 2.11354 -4.84509 -11.1486 12
460 1 -2.80524 -1.72707 -3.11436 19
461 1 -2.62029 6.31696 -2.05433 20
462 1 18.271 -1.41069 7.75768 4
463 1 -9.10764 -11.7689 0.96325 10
464 1 12.5479 -6.09247 -4.63177 16
465 1 3.36617 2.53297 -10.9057 10
466 2 -7.91025 -0.0934555 -10.4576 9
467 2 -6.99257 6.11569 0.21008 14
468 2 4.14922 -4.91441 -10.7611 12
469 2 -1.8403 2.13313 8.65918 19
470 2 -4.83042 -8.8295 -6.05125 19
471 2 5.49863 -2.13499 13.1826 12
472 2 -8.67029 -10.2461 4.05784 15
473 2 11.9616 4.69655 4.20554 12
474 2 4.64624 -2.46649 9.83781 20
475 2 1.72018 -5.25675 -9.27626 16
476 2 0.155508 -11.6675 -3.43001 16
477 2 -4.7577 1.26024 -6.17581 16
478 2 0.341426 -12.8246 8.44271 10
479 2 9.28317 -6.14896 9.75589 15
480 2 8.27247 -8.36136 -11.3589 13
481 2 13.7565 -4.32277 4.49565 17
482 2 -5.3414 5.35787 -1.58339 17
483 2 13.0817 3.78292 10.1228 7
484 2 -4.30378 -3.14933 7.57816 16
485 2 -0.404251 -12.4708 2.87184 19
486 2 16.2257 -6.64013 6.82297 12
487 2 -7.45286 6.92826 3.95474 10
488 2 4.55194 6.04113 -4.42687 21
489 2 -0.156465 5.87933 4.70906 22
490 2 -0.998834 3.96885 3.08953 21
491 2 8.18839 -9.40498 -0.678223 17
492 2 0.182619 0.231341 -3.09022 18
493 2 6.27948 -9.65149 -7.13201 19
494 2 13.743 -8.23399 -9.2938 11
495 2 -2.60273 -10.4672 0.512059 16
496 2 13.059 3.05244 -5.95638 12
497 2 -2.92 10.2755 1.62663 12
498 2 -2.10209 -10.0636 -7.26962 14
499 2 7.92345 -8.69942 8.5522 17
500 2 15.9844 -8.5194 1.60329 12
501 2 -4.81407 -4.41831 -1.72595 19
502 2 10.0967 6.9548 5.37792 10
503 2 7.38588 -14.1981 4.84333 15
504 2 0.389578 3.81032 7.93308 25
505 2 7.77925 2.61216 3.62423 19
506 2 -0.98137 6.87396 -7.79531 21
507 2 0.0172274 -2.81203 8.43131 18
508 2 7.91355 -0.546607 -6.84651 16
509 2 -4.17497 -3.86731 -9.82688 17
510 2 -7.4581 -6.31629 9.81842 11
511 2 -5.72294 -10.4808 -3.42118 17
512 2 2.61287 -11.6587 10.6817 11
513 2 2.90764 -7.66595 14.9187 9
514 2 0.549099 1.51661 10.3934 16
515 2 -1.9729 0.527189 -1.20227 19
516 2 7.84054 -6.46584 -6.65476 18
517 2 14.8004 -2.85542 -6.43607 14
518 2 -2.83589 -6.14496 0.407351 22
519 2 7.29112 -8.47271 -3.13097 16
520 2 -1.33922 -0.248956 11.3904 12
521 2 7.72008 -11.8437 -1.79411 20
522 2 15.476 -4.45116 10.1065 13
523 2 -5.87202 -12.4837 5.18754 15
524 2 16.2821 -2.32545 -3.01005 10
525 2 -0.664636 -13.4382 5.98178 14
526 2 13.745 -7.40695 -3.51328 20
527 2 2.17645 -6.48729 -6.80082 18
528 2 -3.93153 -11.9047 3.03686 18
529 2 -6.07902 -9.86102 2.81747 20
530 2 -7.7494 -9.28711 -1.66125 15
531 2 1.18002 7.16406 -1.72372 16
532 2 10.6401 -4.45466 -2.76697 18
533 2 11.2948 -1.91515 -4.39224 15
534 2 6.5666 2.99928 -9.67293 13
535 2 -7.24796 1.13634 10.4085 10
536 2 -7.58941 1.87344 2.04229 13
537 2 -2.23443 -5.70422 13.3154 12
538 2 -5.11128 0.341794 4.23981 20
539 2 -4.59666 3.73238 -4.65256 19
540 2 11.9869 -6.31109 -11.3302 15
541 2 14.3292 -9.75423 -5.86889 11
542 2 14.0508 -1.60029 5.92939 14
543 2 1.59048 7.64942 4.37776 18
544 2 -3.29421 0.757061 6.42547 18
545 2 9.66031 5.66339 2.44888 14
546 2 3.88322 2.3464 -0.511896 18
547 2 6.51524 4.34892 -4.44763 19
548 2 -6.6554 8.29755 6.21091 10
549 2 4.36831 -4.60489 11.2816 16
550 2 4.16339 -12.2976 -7.94303 12
551 2 2.35307 -2.3 7.07243 19
552 2 8.37844 5.02066 -9.34141 8
553 2 -3.25132 -8.15477 13.6011 9
554 2 4.75589 -18.5763 1.67727 10
555 2 3.25899 -10.2409 -4.4231 16
556 2 6.32286 -13.2838 6.93956 16
557 2 11.9329 -0.926495 -6.84993 20
558 2 -2.84425 -0.264088 -11.0505 12
559 2 0.19223 7.88567 6.94978 13
560 2 -9.74247 -6.1162 -3.19998 10
561 2 6.65547 7.83881 -3.01718 12
562 2 4.94219 6.97003 0.507342 17
563 2 1.52738 -4.58271 12.8061 16
564 2 0.168679 -18.7757 4.00391 9
565 2 7.33388 -3.01125 10.2607 21
566 2 12.5295 -5.65052 -0.792058 21
567 2 11.0104 -2.95793 6.30504 19
568 2 -1.13351 2.36748 -10.9013 13
569 2 6.4341 -7.9201 10.9049 15
570 2 4.48139 -10.916 8.24223 16
571 2 9.87563 -13.7665 6.58778 10
572 2 -3.51792 7.22004 -3.6391 17
573 2 -2.27209 -16.1311 -4.13217 8
574 2 -1.29435 -1.00536 -5.76659 18
575 2 -1.38137 -12.6942 -7.94875 9
576 2 5.31342 0.267802 10.9756 18
577 2 -7.38123 -7.82104 -4.77719 13
578 2 -7.91261 -0.79088 2.92644 15
579 2 17.5988 -3.34753 7.16172 9
580 2 -1.31141 -19.4126 0.988479 8
581 2 9.25272 -6.53703 -1.04072 17
582 2 -5.42319 -7.12523 -11.7615 5
583 2 -6.14009 -9.00393 -9.33067 5
584 2 1.15646 -2.38703 11.3871 20
585 2 -2.46101 -9.55705 -3.78954 19
586 2 9.49682 -9.76057 -6.58717 17
587 2 12.7231 -4.03004 -4.96811 16
588 2 -5.09433 -3.83369 1.21705 21
589 2 8.37391 -4.54163 -9.44034 18
590 2 7.01973 0.776216 -4.02586 18
591 2 0.220486 -8.19161 -0.418982 18
592 2 -1.07962 5.03087 -11.0135 17
593 2 2.39558 6.76268 8.8352 15
594 2 13.2964 1.41146 4.93084 10
595 2 -8.14227 -2.02956 9.64218 11
596 2 -2.08675 -8.54688 2.62255 19
597 2 4.01379 0.72374 -10.2016 17
598 2 3.084 5.67652 6.29577 22
599 2 0.507851 -9.95328 1.4705 18
600 2 -5.94979 -1.02595 12.0292 9
601 2 -9.83875 1.26326 -1.97679 13
602 2 -4.84012 -5.48995 6.57568 16
603 2 -0.502753 -15.8357 3.26374 15
604 2 -8.66502 -4.59593 7.98045 10
605 2 -2.96595 -15.209 -1.59905 11
606 2 -1.46306 -1.27423 5.3137 18
607 2 13.8545 -8.68929 7.9207 13
608 2 6.00897 7.43616 -6.61908 12
609 2 15.0515 0.0831511 -4.08173 11
610 2 10.8648 3.56632 -8.54336 11
611 2 1.27598 10.1753 -0.513853 9
612 2 -5.69769 -3.68647 -6.56148 16
613 2 -7.12392 -3.11019 -8.98234 11
614 2 1.22767 -17.8124 1.39362 14
615 2 8.96257 -11.6488 4.44261 18
616 2 10.4289 -6.21183 6.95071 18
617 2 -7.89351 3.68396 -6.02729 13
618 2 11.0856 -1.79045 3.79494 17
619 2 12.2155 -4.03785 12.0032 15
620 2 8.08778 -2.21357 -4.27669 21
621 2 5.22614 2.00493 5.71488 21
622 2 5.26706 5.40074 7.8527 15
623 2 2.6943 -8.6356 5.60828 19
624 2 -7.258 1.80479 5.14196 14
625 2 3.75004 3.67397 -9.40052 17
626 2 0.186605 -8.41009 -8.71592 13
627 2 -3.91599 -0.205897 -3.79186 22
628 2 -6.62903 -9.78644 9.7375 13
629 2 6.21918 10.0623 0.768525 10
630 2 12.7586 0.992832 -0.834662 14
631 2 15.3557 -10.6191 2.75058 11
632 2 -6.55753 -4.71238 4.57402 17
633 2 1.22541 6.99214 1.2536 20
634 2 -4.04015 5.36285 -9.2637 13
635 2 5.30655 -1.0363 -7.9666 16
636 2 -7.74672 2.96847 -0.773347 16
637 2 2.04653 -4.73045 8.81862 19
638 2 6.66227 4.75506 1.6644 19
639 2 -5.21141 -11.227 -0.240363 17
640 2 7.57117 -13.8458 1.9625 16
641 2 3.48161 -17.3259 3.75551 15
642 2 -3.95447 9.88386 6.73793 7
643 2 2.31717 -11.0936 3.50791 16
644 2 -9.28874 -0.806823 -8.2933 9
645 2 8.0607 -10.7771 6.92905 19
646 2 9.58524 -1.74651 12.1178 14
647 2 0.872911 -5.41719 -12.2176 9
648 2 -0.818326 5.32371 -2.4787 16
649 2 9.61919 1.07503 -9.60301 15
650 2 2.06839 4.77981 -0.396609 19
651 2 -2.073 -3.35629 9.85448 17
652 2 2.94456 -8.92864 12.4433 15
653 2 -4.40866 -8.80275 8.05299 23
654 2 -8.55656 -4.42254 1.85338 14
655 2 0.526649 -7.62064 7.54925 19
656 2 -0.947904 8.83762 -10.0583 13
657 2 10.6563 -6.27985 -5.37162 17
658 2 13.2966 -1.5954 9.28377 21
659 2 -4.95896 2.2697 -2.19262 15
660 2 9.81339 -7.41656 -8.4742 18
661 2 11.8628 5.4507 -3.85712 12
662 2 3.26053 3.9602 10.434 14
663 2 11.0598 -9.79391 -3.51573 17
664 2 -2.22713 -7.56463 5.44039 20
665 2 -3.28508 5.41612 -6.06576 21
666 2 6.05078 -0.299626 7.70879 21
667 2 5.01923 -16.508 6.15557 9
668 2 -5.49879 -11.8866 8.26901 13
669 2 14.7104 -4.12214 7.15847 18
670 2 10.9587 -7.67416 -13.4066 9
671 2 4.52755 7.30842 3.42155 21
672 2 9.52203 -8.03031 2.34256 21
673 2 7.84185 -17.2126 -3.34869 7
674 2 1.71843 2.59454 -11.4219 12
675 2 6.0741 -3.28037 3.76651 17
676 2 3.68344 -0.144684 14.2288 11
677 2 -1.34263 -5.11609 7.6883 19
678 2 2.85105 -12.7159 6.46577 15
679 2 -2.32748 -5.60433 -11.4707 10
680 2 9.13758 -10.8407 -9.07429 14
681 2 -5.26519 9.04954 0.460032 10
682 2 8.22481 -15.179 -1.18933 17
683 2 3.00013 -3.53336 14.6825 12
684 2 -8.63732 2.82278 -9.3134 7
685 2 15.5839 -9.38902 -3.55269 13
686 2 10.7767 2.13855 5.35225 16
687 2 15.6731 -1.01768 -0.843826 14
688 2 14.6233 0.118505 1.93188 10
689 2 -7.00536 1.24994 -3.93947 20
690 2 2.3734 4.96832 -3.4864 20
691 2 -8.37251 4.46876 -3.05505 15
692 2 13.4667 3.24726 -2.88913 11
693 2 -6.64739 4.68645 2.57299 17
694 2 -3.17679 -13.8331 7.23821 11
695 2 10.5334 -7.90023 12.6506 7
696 2 3.24583 -12.9985 -2.26309 18
697 2 9.02106 -1.54988 -9.18472 15
698 2 5.67949 10.3335 4.11023 10
699 2 7.24044 7.10398 3.95845 15
700 2 -4.26025 -5.53289 -4.83428 19
701 2 -4.70567 -13.7678 -3.71766 9
702 2 15.1085 -4.41727 -1.57507 16
703 2 -4.73243 -0.474361 1.06047 17
704 2 -2.86206 -11.5029 8.87738 15
705 2 12.4021 -7.27388 2.12488 17
706 2 -3.24962 -10.2846 5.45128 19
707 2 -1.52524 -6.97273 -5.76287 20
708 2 -1.468 -2.61055 13.1891 12
709 2 -3.39108 9.41158 -5.43003 12
710 2 -3.98017 2.84461 3.40202 19
711 2 6.75734 1.71463 0.772149 19
712 2 -6.06137 -7.76007 12.2798 11
713 2 0.514423 10.1522 2.45933 13
714 2 2.47994 -19.1614 6.36857 6
715 2 10.7591 -2.24642 9.60341 19
716 2 14.8186 -2.44431 12.0305 13
717 2 -9.50047 -1.49666 0.510298 11
718 2 -6.65702 8.0446 -2.33619 11
719 2 -4.61733 -4.5636 12.5721 13
720 2 -0.249166 -2.51359 -8.03189 20
721 2 16.8243 -6.17385 -3.4688 9
722 2 13.1151 -12.6454 0.612769 11
723 2 4.07031 8.19325 -1.79393 15
724 2 -3.70971 1.24982 10.4626 15
725 2 -2.69026 -4.23025 -7.56975 16
726 2 12.3107 -10.4874 -8.05146 15
727 2 5.49371 5.21129 -1.80646 21
728 2 2.55857 -0.0514308 9.43692 18
729 2 5.12687 -1.75517 6.01629 21
730 2 0.992557 9.41118 -7.04542 14
731 2 -5.92611 -2.18187 -3.13897 18
732 2 2.83426 -3.18912 -7.18696 22
733 2 4.04268 -0.246379 -5.81665 18
734 2 -1.77234 -3.11868 -11.4536 11
735 2 11.055 -12.0625 -6.06048 14
736 2 0.159867 -14.6866 -1.90019 15
737 2 5.63104 -10.7702 11.1235 11
738 2 4.13308 -1.9083 -12.5125 9
739 2 7.69878 -3.05922 7.04942 19
740 2 3.72108 2.54329 8.15666 20
741 2 8.22555 -11.3966 -4.67203 16
742 2 -2.40758 -16.7855 1.37182 13
743 2 6.61074 2.82899 9.2134 18
744 2 -1.15321 11.0619 4.88654 10
745 2 -9.65177 -6.73729 -0.59842 11
746 2 6.99139 0.05302 -11.3851 13
747 2 5.21113 -8.56877 6.6606 19
748 2 -5.23277 9.11511 3.73344 12
749 2 9.82075 1.24676 -0.703166 15
750 2 9.75983 -0.893941 6.95119 18
751 2 -7.0137 -1.87545 5.94245 16
752 2 5.39946 6.82446 -9.88006 8
753 2 -2.08063 1.6763 -5.64533 20
754 2 6.37142 -7.28837 -10.0003 16
755 2 -0.743471 1.76148 5.41901 20
756 2 0.981383 0.315911 7.30142 19
757 2 14.5515 0.47423 10.5811 10
758 2 11.5203 -9.01908 -10.8729 14
759 2 -0.994552 -5.60799 -8.84476 20
760 2 -1.42274 -13.6914 0.475416 18
761 2 13.8705 -5.04566 -8.68562 12
762 2 3.59875 -0.0343807 -2.83132 19
763 2 7.08323 -12.5136 -7.79515 14
764 2 -6.03767 1.78084 7.40969 16
765 2 -5.27265 -8.18649 0.899419 20
766 2 7.14386 -16.6216 2.02684 10
767 2 1.04909 -11.6358 -7.22349 14
768 2 1.79726 -14.1983 4.6405 12
769 2 13.4438 -6.88961 -6.39603 14
770 2 -2.95977 7.60533 -11.4004 8
771 2 8.25366 4.82691 6.98738 13
772 2 7.86083 -18.0379 -0.287383 7
773 2 3.8353 -6.08465 7.10505 19
774 2 -2.34727 4.48722 10.0367 14
775 2 1.31559 2.00396 -4.99732 17
776 2 -0.160477 4.5592 -5.69745 22
777 2 5.18235 -11.8429 -5.40869 16
778 2 -3.28544 -14.3675 4.30773 15
779 2 -9.7623 0.711486 -4.91731 10
780 2 9.10593 4.51834 -6.22703 14
781 2 -0.117421 7.42794 -4.61507 20
782 2 3.29114 3.71183 -6.7933 16
783 2 6.79795 -3.23497 -6.9846 18
784 2 5.45132 -13.6108 -0.16749 17
785 2 -7.28102 -4.67061 -3.88222 19
786 2 12.3588 0.149816 7.76117 17
787 2 -0.154178 0.559443 -8.98244 19
788 2 -7.76169 -12.0321 -0.333718 9
789 2 12.7791 -5.20072 9.56463 15
790 2 9.00276 -4.7667 12.1107 12
791 2 14.9073 -0.344738 -7.4452 9
792 2 3.73017 8.24818 -8.35378 10
793 2 2.96254 9.18206 -4.67784 15
794 2 14.8282 -5.89282 2.13601 17
795 2 -2.2007 3.1226 -3.07286 18
796 2 9.68814 5.99695 -1.1645 11
797 2 -0.72939 -5.77982 10.5551 21
798 2 2.15539 -5.61983 -4.3343 15
799 2 -1.5647 -3.02204 -3.11317 17
800 2 11.6355 0.617678 11.0623 15
801 2 -3.74316 6.34801 4.39709 21
802 2 12.8356 -11.0282 -2.15498 18
803 2 11.1303 -13.5999 -1.88555 12
804 2 -0.746079 6.68331 9.72906 11
805 2 11.3692 -10.9746 8.45941 14
806 2 -0.733892 10.4832 -4.01683 11
807 2 0.470226 4.26757 11.0102 14
808 2 -3.37479 8.213 -8.08141 15
809 2 3.31772 9.98224 1.8611 16
810 2 -6.85444 -6.36384 -0.357366 17
811 2 8.94892 -5.43278 -12.4224 11
812 2 -6.0987 4.59825 6.44934 16
813 2 14.626 -7.94772 -0.618832 19
814 2 -2.05912 10.6616 -7.23562 12
815 2 -5.9 -7.87244 4.74741 22
816 2 0.448835 -14.8912 -6.04532 5
817 2 2.38535 1.20556 12.4314 13
818 2 5.17885 -5.11694 -7.94212 16
819 2 -2.43739 2.95418 -8.10459 20
820 2 2.49917 6.06242 -7.22725 22
821 2 1.64516 -1.48069 -9.98783 14
822 2 -4.26659 6.77784 8.3278 12
823 2 -2.45841 3.94338 5.92849 18
824 2 7.503 7.29244 0.472625 16
825 2 -2.4538 -12.0172 -2.46006 18
826 2 8.09029 -5.36405 -3.82988 20
827 2 13.4114 -11.9456 -4.69956 13
828 2 -4.86849 -14.3443 1.59526 12
829 2 -2.62936 7.1856 -0.200663 14
830 2 -6.63878 -9.88046 6.32845 17
831 2 0.323082 4.33902 -8.41252 19
832 2 2.61692 -10.4066 -1.77876 18
833 2 6.83281 -6.1494 5.59214 18
834 2 9.89341 3.57032 9.43865 12
835 2 8.56645 -4.13556 4.4494 19
836 2 0.663698 -6.67122 4.9282 17
837 2 12.9936 1.72834 -8.54054 12
838 2 0.611762 -0.805457 13.8984 11
839 2 -0.0766317 -5.17011 -0.955618 19
840 2 -3.06606 -11.8712 -5.79131 15
841 2 -7.56069 -12.5341 2.02004 15
842 2 -4.16982 -6.13353 9.67565 18
843 2 -5.5148 3.78823 -7.28061 16
844 2 -8.41305 -2.09528 -5.71574 14
845 2 -1.8929 8.1811 3.1296 20
846 2 12.7578 -6.5782 5.57094 20
847 2 11.4098 5.31925 7.36489 10
848 2 0.552883 -17.34 -1.52808 8
849 2 -8.80574 -9.62773 1.12406 15
850 2 -4.4785 -2.83807 4.22931 17
851 2 -1.87833 -8.6381 8.8388 17
852 2 4.68765 -5.73296 13.881 13
853 2 5.36347 -10.8554 4.35743 23
854 2 12.4081 1.98501 2.22267 14
855 2 15.2308 -10.6516 -0.407344 14
856 2 -3.66328 5.46172 1.68483 16
857 2 -5.46557 -1.53119 -10.7578 12
858 2 -2.78254 -1.19971 3.16577 18
859 2 6.76852 -5.47316 8.65268 18
860 2 -0.254772 -7.75719 13.4189 11
861 2 9.84463 1.44576 -6.31519 19
862 2 8.97356 -10.0146 14.3659 5
863 2 6.4965 -3.16275 -11.9316 10
864 2 8.62701 0.757646 10.3196 17
865 2 6.04303 -10.3349 -10.3228 11
866 2 -7.25904 -0.278367 -0.707514 21
867 2 11.2308 -8.25971 8.41741 14
868 2 5.29009 -7.77762 -4.9989 16
869 2 -2.0609 -6.20393 -2.91539 20
870 2 13.8182 -1.83948 -9.47607 9
871 2 9.8254 -3.48696 -6.67806 20