ITEM: TIMESTEP
46000
ITEM: NUMBER OF ATOMS
5760
ITEM: BOX BOUNDS pp pp pp
0.0499822949 32.7500177051
-0.3836990195 34.5236990195
0.0385733188 63.5614266812
ITEM: ATOMS id type x y z Coordination
1 1 9.25142 30.1742 3.62981 18
2 1 2.11931 32.0716 58.7133 17
3 1 29.9659 3.13426 7.72907 22
4 1 27.9171 14.3238 1.73947 20
5 1 23.7694 10.4506 8.70133 24
6 1 27.9699 5.3751 19.8989 21
7 1 24.3731 33.1115 11.4405 19
8 1 12.5415 29.8607 2.1931 17
9 1 20.9147 10.1754 19.0581 24
10 1 28.7881 8.97665 10.4596 20
11 1 25.636 0.831339 5.13415 25
12 1 2.73035 29.2912 15.983 21
13 1 3.98975 7.51879 4.63982 17
14 1 12.4131 3.22841 6.2761 19
15 1 7.61679 12.6855 14.282 20
16 1 9.91214 12.9544 1.58222 20
17 1 31.7571 25.6806 10.5205 17
18 1 5.50245 10.6051 4.60506 22
19 1 19.9589 13.3534 16.0888 23
20 1 26.1297 4.80479 14.0761 24
21 1 4.73274 11.1603 13.1525 19
22 1 3.96957 4.3001 14.704 19
23 1 27.0025 1.79371 24.0456 20
24 1 5.6725 17.8034 20.6504 18
25 1 29.3721 11.9617 7.75926 21
26 1 32.5857 14.537 19.4923 26
27 1 3.36765 33.6245 11.6199 19
28 1 7.82981 1.18571 3.35017 22
29 1 30.6713 15.2077 2.84231 20
30 1 31.5789 2.88006 3.71533 18
31 1 20.4726 18.9634 62.4145 21
32 1 29.7615 17.092 4.33129 22
33 1 25.1731 17.8211 7.31333 20
34 1 19.5331 9.41385 12.265 25
35 1 27.986 3.17511 12.8925 19
36 1 6.87469 7.36608 4.64369 20
37 1 8.67929 4.26439 2.50911 23
38 1 6.18406 0.97176 6.54665 27
39 1 3.97196 33.9878 3.23711 25
40 1 26.0632 0.166666 9.65451 19
41 1 28.7727 7.49609 4.57999 18
42 1 8.43737 32.969 15.6556 20
43 1 15.756 29.6824 9.73069 25
44 1 3.83882 2.53717 1.31191 23
45 1 6.12083 -0.118319 11.5775 16
46 1 32.0519 31.1978 19.5729 23
47 1 4.89471 4.32439 21.2876 18
48 1 4.34671 33.0182 19.825 23
49 1 9.3799 14.9704 12.8534 18
50 1 5.12833 12.7394 6.58659 22
51 1 4.5514 8.16473 2.02341 24
52 1 0.488113 14.9415 8.50226 19
53 1 7.88439 19.555 4.72373 21
54 1 2.81661 -0.00478172 63.1537 19
55 1 2.37749 30.7488 0.770682 23
56 1 6.20525 19.2439 14.1239 19
57 1 12.8878 14.7764 14.2391 17
58 1 32.1421 16.934 14.4356 22
59 1 17.7453 33.0704 9.71887 21
60 1 1.4255 4.90643 13.3019 20
61 1 9.76635 32.4792 2.67566 19
62 1 10.2166 7.19534 2.42624 22
63 1 17.3419 18.9692 62.5513 17
64 1 10.1629 0.433152 10.6389 20
65 1 0.300518 14.6082 1.64298 23
66 1 30.8576 22.5998 15.8131 19
67 1 2.34925 4.4445 8.5437 19
68 1 2.35362 20.6489 6.7243 23
69 1 13.2291 16.8286 11.9426 19
70 1 8.8597 34.2787 25.5338 20
71 1 30.0398 5.22422 13.5604 21
72 1 8.96951 13.3855 10.0175 20
73 1 5.61161 11.14 59.3602 19
74 1 7.71135 8.10504 0.506882 21
75 1 11.2267 28.6491 63.0384 20
76 1 1.91633 26.6633 60.7176 16
77 1 8.46325 0.875216 12.758 18
78 1 21.4869 3.92861 2.3256 22
79 1 28.0722 1.83885 5.35334 19
80 1 1.72429 0.542531 9.8919 19
81 1 3.63535 8.82428 23.9102 24
82 1 2.72796 28.7015 27.18 23
83 1 6.50968 1.18877 23.6782 17
84 1 4.88271 13.6624 27.1455 21
85 1 14.7916 12.8485 3.81154 22
86 1 6.00943 11.0072 62.2181 23
87 1 31.2164 -0.165807 2.61496 23
88 1 4.14622 12.6986 9.59896 19
89 1 6.45423 15.2037 9.05295 20
90 1 0.754147 4.68245 2.22316 24
91 1 14.3154 0.883084 9.0605 22
92 1 28.858 33.7931 62.032 21
93 1 7.69699 4.99753 10.5828 19
94 1 29.7808 5.47487 9.81345 23
95 1 11.3677 6.48778 32.2873 20
96 1 3.45244 8.38602 13.2846 23
97 1 5.04184 19.1836 3.76797 22
98 1 17.07 19.5229 6.67876 21
99 1 10.0838 10.4635 9.70787 21
100 1 11.0452 20.7692 9.39847 22
101 1 17.6657 14.3086 2.85799 23
102 1 3.47492 14.161 0.980071 20
103 1 18.9393 10.9977 59.628 23
104 1 5.0108 13.5322 15.16 22
105 1 15.2747 7.44933 16.551 21
106 1 20.0381 15.3154 8.36205 19
107 1 8.31004 10.9029 11.9458 24
108 1 15.6006 5.63164 60.1495 19
109 1 10.1012 0.0698095 56.8569 18
110 1 24.0742 2.13622 7.20861 19
111 1 0.818665 32.681 4.16946 19
112 1 22.6796 32.27 4.3561 20
113 1 31.1496 2.02435 10.1101 22
114 1 16.6854 7.26278 4.31876 26
115 1 15.1615 27.0307 62.8905 17
116 1 11.978 6.47207 6.47281 20
117 1 19.892 33.1795 6.57016 23
118 1 19.0262 26.0959 17.2003 24
119 1 2.84967 1.4293 7.09866 21
120 1 1.4377 33.5574 1.14271 20
121 1 10.6577 17.2743 62.4112 23
122 1 7.86875 9.37761 3.21732 19
123 1 12.3725 9.55122 7.94925 20
124 1 17.8051 19.951 3.22674 23
125 1 5.74458 29.0444 2.18249 21
126 1 19.753 11.805 22.5271 22
127 1 15.3898 5.90941 6.58106 18
128 1 9.94974 1.53568 6.63367 23
129 1 3.16641 1.79765 14.3746 20
130 1 6.36225 32.1072 8.50704 20
131 1 9.80937 7.65225 11.8884 20
132 1 6.63647 8.51775 22.1814 20
133 1 1.14219 25.6042 3.97019 23
134 1 12.4745 24.9731 63.4027 24
135 1 7.26719 16.8038 2.84218 23
136 1 1.30971 23.4112 55.7663 22
137 1 16.1834 32.1679 12.666 19
138 1 9.25684 26.2913 63.2427 19
139 1 16.0376 33.1262 62.933 18
140 1 12.1914 15.4454 6.38568 22
141 1 7.72873 4.10377 5.69266 25
142 1 29.5554 10.1727 15.821 20
143 1 29.5938 17.9604 21.1526 20
144 1 9.26963 24.5796 14.188 22
145 1 2.41477 32.4508 61.6957 19
146 1 18.726 28.987 8.52419 19
147 1 11.0206 32.2969 62.7731 19
148 1 13.3478 12.1045 6.10378 20
149 1 15.409 8.69033 6.85355 20
150 1 20.7344 4.1599 61.2698 19
151 1 24.0822 18.319 13.8691 18
152 1 3.24547 0.0199457 16.5542 19
153 1 17.6684 2.82436 9.43103 19
154 1 10.0733 31.9352 10.9959 18
155 1 4.73137 9.14831 17.9812 20
156 1 19.6586 0.0561375 11.0917 22
157 1 9.77857 21.5554 6.35793 19
158 1 7.87602 14.2021 6.96566 20
159 1 17.3322 14.2459 59.7884 20
160 1 14.9683 14.6809 58.2092 21
161 1 16.1367 4.3029 63.3277 22
162 1 18.5053 25.2936 1.0958 21
163 1 12.088 4.70514 3.21342 23
164 1 6.47099 29.8109 4.35406 20
165 1 4.76473 32.4335 0.106844 20
166 1 14.9476 29.4857 4.19155 18
167 1 9.40807 3.35679 14.2435 24
168 1 11.0013 19.2457 16.4007 20
169 1 25.7289 14.6974 62.9203 21
170 1 23.3735 17.504 62.1217 21
171 1 17.0839 11.0459 9.98264 21
172 1 13.5327 11.8362 1.63832 22
173 1 31.4988 6.6482 1.63289 20
174 1 25.0881 14.1777 6.10135 21
175 1 12.862 11.9928 18.7773 21
176 1 7.14738 23.0794 9.04257 15
177 1 12.6513 18.4019 14.0365 21
178 1 15.7811 26.9225 2.26261 17
179 1 8.01631 2.90304 8.72489 22
180 1 23.9609 22.4886 20.153 18
181 2 17.3115 15.2945 14.9124 21
182 2 30.9757 29.8867 61.4512 23
183 2 5.92191 29.8246 60.268 20
184 2 28.8329 28.8013 54.8082 20
185 2 9.94711 3.02144 20.3345 18
186 2 3.01391 11.1814 16.9951 23
187 2 1.17206 10.5747 7.33267 18
188 2 31.6301 28.8879 1.00236 22
189 2 28.9027 31.5208 23.9121 21
190 2 4.34208 14.2157 19.3463 18
191 2 27.9421 31.2357 27.6928 23
192 2 7.88789 34.1035 17.0329 18
193 2 8.51818 15.8159 1.2204 22
194 2 31.2621 1.80281 7.80145 18
195 2 25.6724 11.6163 14.05 19
196 2 4.84784 32.4863 7.45265 20
197 2 14.3395 34.124 63.1152 22
198 2 29.0483 5.92365 5.97936 23
199 2 32.5832 8.85243 8.29931 20
200 2 1.50165 13.5027 18.9644 21
201 2 26.437 30.4807 9.96574 26
202 2 32.0785 0.149716 20.2433 20
203 2 3.8943 13.4561 22.1844 19
204 2 25.4063 0.00504677 15.1729 19
205 2 28.0011 16.3525 15.0508 21
206 2 31.1433 20.7593 3.88121 21
207 2 0.779145 1.42354 6.62014 22
208 2 10.0 1.55742 2.79901 22
209 2 30.4535 18.0915 5.7862 24
210 2 3.03814 14.0915 13.7214 21
211 2 30.9232 21.5684 9.14165 18
212 2 32.4331 24.2316 9.37492 19
213 2 22.7986 16.8444 23.9026 20
214 2 28.2351 22.9135 20.0994 19
215 2 15.4397 14.2498 2.5525 23
216 2 8.35518 7.44535 3.38561 20
217 2 18.2379 1.04133 10.7445 21
218 2 10.8101 28.7258 20.4091 20
219 2 6.88886 16.052 4.57813 23
220 2 8.74977 29.2729 60.2178 22
221 2 1.504 21.5191 22.6945 21
222 2 27.5175 11.2581 6.96521 20
223 2 1.26492 6.75566 14.0958 19
224 2 29.1179 0.299154 6.03694 22
225 2 32.6057 33.0268 27.0201 21
226 2 22.2079 12.2634 11.716 19
227 2 10.9978 25.0041 7.55739 21
228 2 6.46088 4.56342 2.36475 23
229 2 12.1578 15.6044 3.72533 23
230 2 2.04685 16.2512 60.0806 23
231 2 13.6692 10.7818 7.30965 20
232 2 3.32057 2.35691 3.56999 24
233 2 5.38623 30.9698 1.34589 22
234 2 30.0925 7.36659 3.24794 22
235 2 1.00884 7.7935 17.06 19
236 2 21.2595 1.79079 18.1798 22
237 2 10.4879 10.6872 6.75898 17
238 2 10.4735 12.1351 16.4453 22
239 2 5.45984 7.21215 11.2839 20
240 2 14.0801 4.35874 13.0677 20
241 2 6.22584 16.4611 10.8837 19
242 2 27.7972 0.581773 9.63871 20
243 2 11.4605 17.2471 2.05124 21
244 2 28.1463 20.1039 58.6595 19
245 2 22.6968 16.9888 14.1638 18
246 2 1.27003 16.3212 15.1105 22
247 2 32.4726 29.8202 15.8026 17
248 2 20.798 10.6884 62.6268 20
249 2 15.8243 30.9311 3.21285 17
250 2 14.6091 13.6985 18.7918 19
251 2 7.11113 12.3395 20.2896 24
252 2 9.17396 10.8681 22.0884 20
253 2 6.31543 31.8043 18.7831 21
254 2 5.1247 10.4885 6.2956 20
255 2 5.9643 1.1061 2.67336 22
256 2 4.03196 11.7177 8.09161 24
257 2 4.04081 33.781 18.2191 18
258 2 1.81815 30.6468 60.1319 19
259 2 23.5993 13.1529 3.56189 20
260 2 10.8547 1.69199 63.537 21
261 2 19.6405 24.7733 27.9387 19
262 2 14.8553 34.0277 29.4191 23
263 2 18.3055 25.5019 18.7538 21
264 2 24.3516 27.9438 31.5953 20
265 2 5.50506 29.9488 11.2745 19
266 2 1.0255 31.7959 14.9433 15
267 2 10.9262 14.8325 10.3969 19
268 2 23.6528 12.7205 6.30859 21
269 2 13.3681 33.7668 20.8677 19
270 2 31.422 11.0953 3.35768 20
271 2 4.77891 10.2465 61.1451 18
272 2 27.4177 6.27577 52.7567 18
273 2 20.1459 19.864 13.6211 21
274 2 3.69613 11.2897 19.6503 21
275 2 10.9445 11.987 19.2369 18
276 2 22.5745 33.9141 5.68148 22
277 2 25.9254 14.6365 7.85563 22
278 2 19.459 23.0446 63.2927 22
279 2 26.4831 13.7535 10.3276 20
280 2 18.2835 32.3093 11.9036 18
281 2 16.6022 12.3096 11.3836 21
282 2 1.95225 33.0443 10.4024 19
283 2 14.2 9.66787 63.294 22
284 2 5.6645 15.6834 7.10899 21
285 2 0.976909 0.102239 17.556 21
286 2 29.5269 1.76179 11.2667 19
287 2 6.09096 7.59355 17.4356 21
288 2 19.1032 20.6979 2.26696 18
289 2 5.89305 4.3689 10.9342 19
290 2 12.7701 17.0138 7.03551 22
291 2 6.68038 12.03 5.15636 18
292 2 10.9835 -0.0397487 6.48543 20
293 2 6.70951 34.2716 21.7767 21
294 2 16.5914 12.2109 13.9401 17
295 2 28.6731 28.8467 0.155321 19
296 2 8.64931 34.0936 3.31662 20
297 2 18.688 7.17232 23.8803 20
298 2 28.8664 -0.129091 19.4927 19
299 2 14.6138 27.2486 14.9069 24
300 2 13.4094 1.58923 7.37421 23
301 2 12.8173 6.50234 1.8335 19
302 2 3.93312 20.7987 2.40513 22
303 2 29.1311 8.69704 5.72015 17
304 2 15.9311 7.07254 8.01328 18
305 2 15.6852 0.407471 15.1388 16
306 2 17.6895 13.4836 34.2592 22
307 2 12.9017 11.9713 4.35279 21
308 2 19.0567 17.1349 16.379 23
309 2 14.6122 18.0154 11.1176 20
310 2 10.5213 8.0023 23.9624 22
311 2 4.44903 33.078 10.4009 21
312 2 16.7861 13.0361 19.6353 20
313 2 6.35369 23.8453 1.5128 22
314 2 22.0893 15.7585 57.2948 20
315 2 13.5803 22.8337 0.868546 20
316 2 23.075 16.2549 2.69704 19
317 2 16.0253 26.2868 12.8392 17
318 2 11.5622 28.0753 1.69005 19
319 2 23.9985 2.22447 13.522 22
320 2 19.6344 21.9597 12.2296 19
321 2 13.684 24.2331 14.6282 18
322 2 6.78657 13.5898 10.1197 21
323 2 5.17777 19.3115 7.93839 20
324 2 13.3119 16.2028 9.65366 21
325 2 32.1796 33.4878 1.39409 23
326 2 9.22336 28.6914 5.31046 22
327 2 6.54789 11.8816 12.712 20
328 2 4.39092 26.0589 15.2907 23
329 2 7.07599 33.5432 0.955233 20
330 2 14.504 9.54754 11.6321 22
331 2 6.99734 26.5085 60.0661 18
332 2 7.66402 28.7279 3.27323 21
333 2 14.1744 13.2348 29.0841 25
334 2 8.56498 6.29671 28.9833 19
335 2 15.0731 25.6151 19.2975 20
336 2 29.6176 6.21166 29.1101 17
337 2 20.4667 1.90868 12.3764 19
338 2 29.0877 32.1392 55.4918 23
339 2 3.40258 23.4246 3.65304 20
340 2 25.6913 3.16021 2.29796 19
341 2 17.0102 8.62624 2.62116 21
342 2 18.1358 20.4003 15.8749 22
343 2 14.9646 17.6057 4.70449 23
344 2 13.7804 32.006 60.6027 22
345 2 8.15739 5.27367 15.3596 22
346 2 6.47305 26.989 7.13941 23
347 2 11.1992 2.59564 8.09025 22
348 2 20.2966 1.66977 22.1183 24
349 2 23.9847 21.6862 10.4062 22
350 2 13.2053 33.505 5.25631 20
351 2 8.8898 17.6599 3.3084 22
352 2 1.63614 25.9905 10.0733 18
353 2 24.7289 5.21181 22.0328 21
354 2 4.83727 5.13855 7.96829 22
355 2 21.1095 18.4479 1.97709 18
356 2 21.2513 33.3614 23.4661 23
357 2 19.0828 10.6661 19.8688 23
358 2 22.9624 23.4826 16.0332 21
359 2 6.53455 25.9469 17.3202 20
360 2 10.5471 15.1703 14.6412 17
361 1 31.4365 12.7738 16.2446 25
362 1 10.0041 3.93714 11.6337 22
363 1 2.16653 27.3273 32.4917 22
364 1 9.04808 6.24052 7.95898 21
365 1 24.4467 9.44857 20.3719 25
366 1 15.5327 4.67993 32.5187 23
367 1 13.6598 2.84665 36.1384 18
368 1 0.275708 1.97298 21.0056 19
369 1 31.6723 2.02048 29.2297 18
370 1 0.506822 22.6647 26.5248 19
371 1 30.5079 0.652577 37.3744 17
372 1 29.7692 7.21819 23.7299 19
373 1 29.9692 10.6205 5.10202 23
374 1 11.9152 5.9807 14.9926 21
375 1 6.07015 14.5016 18.193 21
376 1 20.3493 16.0231 20.7785 20
377 1 25.6835 11.7877 16.4717 21
378 1 3.84367 19.7787 19.1525 17
379 1 32.6441 2.22717 26.3758 23
380 1 31.6839 5.32989 25.0914 19
381 1 26.1905 8.01011 18.3514 18
382 1 28.6879 2.28304 19.3439 17
383 1 30.7285 11.4334 10.2481 19
384 1 2.95048 13.0203 19.8184 19
385 1 30.4207 27.9129 18.6814 20
386 1 24.3167 28.494 18.3032 21
387 1 11.5403 18.7193 0.814285 22
388 1 7.13328 22.0071 14.0586 20
389 1 25.6453 12.2349 11.2209 22
390 1 4.93336 6.87892 20.5885 23
391 1 11.0125 3.33604 16.4454 23
392 1 3.88305 22.5787 7.75874 20
393 1 9.82894 13.2356 18.0465 22
394 1 25.6435 8.98662 26.3401 24
395 1 27.0407 23.6323 21.5837 19
396 1 23.6735 12.0401 22.8363 23
397 1 0.14798 15.9714 26.5564 19
398 1 21.1244 -0.301616 24.9725 19
399 1 9.93729 6.37587 4.7149 21
400 1 8.40422 23.5421 16.5855 24
401 1 17.3668 13.2742 15.5506 17
402 1 5.3072 10.9255 26.5437 21
403 1 2.4504 0.276946 31.3817 22
404 1 27.0547 34.1986 31.9745 22
405 1 1.69383 23.6913 19.2764 18
406 1 2.35353 3.3032 27.2515 20
407 1 6.06645 34.0455 38.1183 21
408 1 10.6167 25.8017 31.6226 19
409 1 31.9249 18.307 17.8773 20
410 1 6.13385 10.5858 20.0314 20
411 1 27.4306 15.1885 11.6968 22
412 1 1.93098 6.53163 25.5314 23
413 1 16.5374 13.1282 17.7468 21
414 1 18.1343 29.7033 30.987 23
415 1 9.07445 1.26391 21.0506 21
416 1 2.0039 3.21742 24.4073 21
417 1 4.91352 0.107467 33.7201 24
418 1 2.52372 16.8159 34.9108 21
419 1 30.9415 18.7351 23.8534 23
420 1 8.81579 17.1442 42.1357 23
421 1 30.4543 8.78894 8.24047 21
422 1 2.95501 27.9182 19.0982 23
423 1 17.8465 11.0753 28.0515 22
424 1 17.3323 29.9423 25.4917 21
425 1 30.7152 10.2138 23.3383 25
426 1 13.4031 3.53901 31.3734 18
427 1 2.54904 13.9492 36.3073 20
428 1 0.891888 7.41529 20.8999 20
429 1 3.01547 12.1091 34.4598 24
430 1 4.01421 17.2235 28.4254 24
431 1 4.60765 11.4217 23.7229 14
432 1 0.152019 19.9166 15.6771 23
433 1 1.83195 6.56115 10.8982 22
434 1 6.65849 31.3184 24.1731 20
435 1 6.11691 1.01511 20.9048 18
436 1 18.1185 3.86324 24.8717 20
437 1 17.9448 6.47868 22.2068 21
438 1 7.93448 31.7142 31.3125 19
439 1 8.4106 29.9859 12.6543 18
440 1 5.1746 28.6845 31.1274 20
441 1 4.0645 8.7818 27.3302 21
442 1 9.41923 6.29746 16.4464 21
443 1 9.51076 1.98234 24.5665 22
444 1 6.10014 21.3549 34.9813 20
445 1 32.482 31.0558 27.9981 20
446 1 10.4001 3.83032 22.1425 17
447 1 19.5441 33.7236 31.5956 21
448 1 17.69 -0.285531 29.0578 22
449 1 2.33983 17.2837 16.3708 20
450 1 31.9584 -0.182505 31.6458 24
451 1 15.17 8.73662 35.6612 21
452 1 11.2982 28.6321 29.9605 18
453 1 3.89415 7.08144 34.94 21
454 1 28.9903 33.385 38.9815 18
455 1 16.6855 16.2119 29.5588 23
456 1 2.28169 14.5966 22.6486 19
457 1 30.2188 8.82157 13.9576 23
458 1 19.4246 23.9599 59.4171 21
459 1 4.51261 2.06696 25.7271 19
460 1 13.2961 25.836 30.5108 21
461 1 4.7989 25.6068 11.4649 23
462 1 1.28113 2.76326 29.7933 22
463 1 3.47002 2.56097 11.4825 20
464 1 11.4439 15.6603 16.4781 19
465 1 0.681821 17.4853 24.1138 22
466 1 10.6208 1.52495 38.7072 17
467 1 13.826 11.8372 30.593 23
468 1 7.91409 14.6065 20.4378 20
469 1 12.4507 34.1534 19.1545 16
470 1 16.7825 31.8674 27.3376 20
471 1 8.47527 29.3651 28.0513 20
472 1 4.34558 2.95886 17.5232 22
473 1 7.5846 8.93114 18.2356 21
474 1 10.1505 33.1471 20.6916 18
475 1 8.85175 7.52707 30.6318 23
476 1 12.8854 23.0342 13.2079 18
477 1 23.7987 1.90976 31.0291 18
478 1 4.98374 32.4258 31.5326 20
479 1 13.483 1.59044 28.2309 18
480 1 11.5761 7.15591 25.2217 23
481 1 13.1721 11.7358 27.8199 19
482 1 8.00452 29.6166 9.48858 21
483 1 13.1712 19.916 11.4598 22
484 1 1.33576 3.50314 17.0921 19
485 1 11.3755 7.83913 34.6861 20
486 1 10.7799 4.35536 8.42077 22
487 1 10.2958 10.1646 23.4361 22
488 1 16.5117 9.6228 23.2229 23
489 1 8.94453 13.1744 34.6787 18
490 1 12.3616 11.0981 21.43 20
491 1 8.57515 4.91834 33.7818 20
492 1 11.6895 13.7684 35.5645 24
493 1 6.70563 22.2532 19.4232 18
494 1 11.3486 12.3761 24.9461 23
495 1 32.2583 6.61615 14.7575 18
496 1 6.28237 6.50274 28.6216 20
497 1 4.29395 16.0562 18.5094 20
498 1 7.41233 12.37 22.2549 18
499 1 21.1878 13.0986 25.9468 22
500 1 7.82746 20.9829 10.8233 18
501 1 20.3639 27.8387 26.1763 22
502 1 3.82522 20.9437 25.0932 19
503 1 5.41351 14.9012 29.9818 19
504 1 0.19585 15.7902 29.8947 19
505 1 23.4471 7.033 22.5707 19
506 1 18.6951 6.18261 16.563 17
507 1 7.0107 26.251 9.00792 19
508 1 9.36943 27.0942 11.0759 18
509 1 8.03472 3.56244 18.6744 21
510 1 20.1961 11.154 30.7314 18
511 1 13.7535 0.543333 21.5319 19
512 1 18.8752 9.35374 21.7177 19
513 1 14.1976 6.72133 34.4136 21
514 1 17.5382 33.0133 24.6311 19
515 1 16.6348 29.0919 28.017 22
516 1 2.25512 4.46057 19.9712 21
517 1 14.8758 11.2849 12.2561 21
518 1 12.4737 3.3501 13.4231 19
519 1 16.4871 2.43634 21.2581 21
520 1 6.88342 2.49185 32.689 21
521 1 13.1119 26.1522 14.6731 21
522 1 16.237 5.11087 19.9888 21
523 1 20.0778 19.6659 25.4213 19
524 1 21.6558 9.664 21.7846 22
525 1 5.9582 17.8128 16.2817 19
526 1 23.9869 6.28848 25.2909 22
527 1 18.5894 3.54682 21.6025 21
528 1 16.2545 1.51232 36.3711 23
529 1 12.1055 19.5752 6.49072 23
530 1 11.7987 12.1484 11.9819 23
531 1 22.9827 17.3705 21.918 20
532 1 30.299 8.14146 20.8614 21
533 1 2.17687 8.71312 18.7879 20
534 1 30.29 29.39 21.3267 23
535 1 2.19047 0.548418 27.3244 23
536 1 1.56719 11.5942 12.1797 23
537 1 17.1209 17.2241 21.0641 19
538 1 25.5205 13.79 28.5833 19
539 1 23.1467 12.5691 19.229 21
540 1 9.60737 21.2082 15.2279 20
541 2 4.44671 22.3218 28.4803 18
542 2 8.02214 21.8087 16.2323 20
543 2 31.9812 11.9325 18.0883 23
544 2 17.063 0.584194 2.90784 23
545 2 29.3672 18.6952 17.0569 17
546 2 26.7677 9.42275 24.799 22
547 2 32.0163 8.4801 22.2018 20
548 2 2.90324 33.629 29.1961 21
549 2 5.36147 9.8072 25.0222 21
550 2 17.9461 30.6625 28.4615 21
551 2 20.6303 5.68489 38.3252 21
552 2 27.6764 0.313643 28.453 19
553 2 11.0831 3.20632 25.0903 21
554 2 28.335 9.0291 14.6217 21
555 2 4.93387 22.6155 14.009 25
556 2 5.90685 2.62433 63.2487 21
557 2 4.34693 6.21358 29.5656 21
558 2 22.8663 15.4516 26.919 22
559 2 2.83052 4.47238 17.7681 20
560 2 6.52593 33.0448 30.4464 18
561 2 31.2929 2.83296 33.8247 20
562 2 4.55072 7.6193 33.5591 24
563 2 2.45906 33.1509 32.2573 20
564 2 8.39865 1.01907 34.6315 21
565 2 30.5371 17.1236 27.7747 22
566 2 27.8078 29.5694 12.4955 20
567 2 26.6001 18.9324 21.2829 21
568 2 26.5162 25.5623 28.7073 20
569 2 0.611294 9.34179 19.748 19
570 2 32.4619 3.32022 24.7564 22
571 2 8.14396 10.4141 27.9936 22
572 2 30.5743 9.22161 17.5144 19
573 2 2.32354 24.1198 20.9253 18
574 2 27.5372 30.2268 21.2196 23
575 2 0.762744 16.5684 36.2476 19
576 2 6.48287 16.0535 21.016 22
577 2 28.1014 32.6065 14.6597 17
578 2 6.54794 32.2491 15.4364 17
579 2 13.9334 2.17739 29.988 21
580 2 2.08664 33.4296 6.23044 21
581 2 12.543 29.4954 28.6335 17
582 2 14.5168 9.46905 23.6005 21
583 2 26.4098 32.6276 35.3668 25
584 2 0.841139 29.0046 32.5928 22
585 2 15.3888 23.9938 21.7875 21
586 2 5.99277 24.9878 37.4992 22
587 2 3.67375 10.5009 27.485 19
588 2 27.992 3.52785 29.6933 22
589 2 31.8347 34.4745 4.54863 22
590 2 18.7 25.496 33.5896 19
591 2 12.7253 4.16444 22.5871 19
592 2 6.16251 19.7251 15.786 20
593 2 30.0649 2.50505 36.5409 21
594 2 5.76457 17.5734 23.5989 23
595 2 9.16158 9.19683 29.9688 24
596 2 7.5907 17.9937 19.5531 20
597 2 10.4525 20.9772 24.1423 21
598 2 4.62917 12.692 25.6526 17
599 2 3.69976 15.745 23.6735 23
600 2 30.4247 17.817 19.3909 20
601 2 14.4408 18.1469 14.784 22
602 2 31.1487 17.2646 22.0606 20
603 2 19.3733 15.4139 10.3533 20
604 2 13.9878 25.7151 23.58 22
605 2 3.65052 18.0005 20.474 21
606 2 2.9827 3.19439 29.5786 21
607 2 11.7937 24.3143 19.5976 21
608 2 32.6744 19.127 22.5293 20
609 2 30.8593 32.3781 44.3812 22
610 2 12.8981 18.5178 28.3819 22
611 2 26.8431 14.157 29.9146 22
612 2 11.7747 14.1579 23.6863 17
613 2 10.081 6.62488 35.0531 21
614 2 8.00346 17.5372 26.887 22
615 2 1.26385 6.34034 19.6178 20
616 2 6.90645 33.6762 27.1726 20
617 2 6.06278 33.9968 35.3479 22
618 2 29.1313 25.4427 28.6791 21
619 2 14.2671 9.02731 26.1764 23
620 2 22.9897 8.40908 21.225 21
621 2 10.1184 24.0435 33.0519 19
622 2 20.0297 10.0406 23.2848 21
623 2 5.98201 2.68429 26.7747 18
624 2 2.63064 1.19691 33.0791 22
625 2 0.624159 11.5942 26.4043 17
626 2 5.94178 2.60047 21.9874 18
627 2 28.3695 3.78594 18.1273 19
628 2 12.92 5.82381 25.6888 21
629 2 13.3854 6.35334 28.072 20
630 2 14.0211 30.1428 16.9545 20
631 2 15.9583 31.1551 62.9723 19
632 2 7.65482 1.00071 24.9859 20
633 2 11.3533 3.73613 31.5683 24
634 2 31.1485 10.949 15.3788 20
635 2 9.91311 20.2079 10.8763 19
636 2 14.9501 8.27503 33.8063 18
637 2 0.965713 27.8634 18.9333 21
638 2 4.25429 27.117 18.0754 18
639 2 29.9266 20.1633 26.5334 20
640 2 19.1389 10.5323 26.5121 19
641 2 19.8839 21.7865 18.1919 21
642 2 16.3977 6.06362 27.0074 22
643 2 31.0931 17.4837 25.4511 19
644 2 10.8257 4.8262 28.4881 20
645 2 17.1685 21.4544 38.4892 21
646 2 3.62228 1.7417 27.3195 19
647 2 13.4705 16.1486 29.4595 21
648 2 4.78099 15.4489 32.0122 20
649 2 12.0055 4.866 9.81696 22
650 2 4.26264 5.5281 19.5637 21
651 2 8.63761 28.4768 8.1133 18
652 2 0.509885 19.55 40.7451 15
653 2 14.7564 3.42021 21.1822 17
654 2 13.0749 11.6296 16.9679 20
655 2 4.84182 15.6838 14.7432 22
656 2 8.4567 3.33627 32.8746 22
657 2 3.87437 6.39336 24.362 23
658 2 20.5776 0.584199 35.3812 21
659 2 20.8166 14.8574 33.4604 23
660 2 25.8969 10.8164 29.4169 19
661 2 9.97404 3.28945 17.8316 24
662 2 30.3699 31.7079 20.5429 24
663 2 17.9318 10.0124 13.5547 23
664 2 32.5514 31.1256 33.9517 22
665 2 7.50661 14.2605 13.1294 20
666 2 22.3912 15.5872 21.4237 22
667 2 2.7865 20.1914 8.64181 22
668 2 11.1151 8.28987 27.8655 24
669 2 18.581 4.99933 26.5396 22
670 2 9.38679 6.1037 31.9886 24
671 2 8.65104 3.20652 26.9757 23
672 2 14.545 10.3775 36.9633 21
673 2 10.8269 9.60441 15.6862 20
674 2 2.25004 8.17985 27.0522 22
675 2 5.96591 2.48901 7.76782 21
676 2 1.2262 21.937 9.14067 19
677 2 22.949 8.72792 13.4778 18
678 2 7.62429 20.6747 24.886 24
679 2 10.6816 1.59894 22.5683 19
680 2 11.877 0.88898 9.70089 22
681 2 5.44389 17.1097 34.0765 21
682 2 7.95444 32.7698 24.2127 20
683 2 31.8884 17.5315 34.1455 17
684 2 9.01811 15.1578 18.8057 20
685 2 7.26476 29.1289 14.1323 20
686 2 9.93605 33.9984 15.1487 18
687 2 27.7485 7.74761 11.5149 25
688 2 18.9247 3.60301 16.7192 22
689 2 25.5689 25.1968 14.482 24
690 2 22.8507 0.923072 26.0508 18
691 2 13.2561 29.8968 5.43235 21
692 2 16.9429 3.94591 22.7887 20
693 2 12.57 32.3943 29.9473 19
694 2 32.29 6.07299 27.1519 23
695 2 13.214 28.0673 25.8946 21
696 2 6.54846 4.32391 28.8527 21
697 2 4.96441 1.44361 19.1249 21
698 2 6.23161 34.0249 8.9651 22
699 2 8.15203 6.16684 6.07495 23
700 2 16.2139 3.48738 14.9531 19
701 2 18.0918 10.6463 35.2598 19
702 2 7.54286 6.68941 9.41291 24
703 2 10.9698 8.09619 20.4395 19
704 2 9.32391 26.4124 25.4887 20
705 2 11.2006 11.6134 27.9062 22
706 2 22.6569 15.7277 37.4145 27
707 2 16.2571 24.927 34.9416 23
708 2 3.98295 14.8712 28.8674 18
709 2 21.6663 20.8293 15.7746 18
710 2 22.3434 8.01471 33.9611 20
711 2 13.2379 20.2302 13.2066 18
712 2 8.16596 8.08522 21.1801 21
713 2 8.40505 7.97804 16.7311 18
714 2 9.414 26.2134 17.581 21
715 2 3.95932 23.2602 22.859 23
716 2 15.6232 15.246 27.9522 18
717 2 23.5358 14.1616 23.8648 22
718 2 6.02196 6.00041 22.0234 19
719 2 5.46829 26.5731 23.5689 20
720 2 1.66919 16.8722 21.6617 17
721 1 16.8551 23.2996 3.42265 20
722 1 6.40314 25.7352 1.26299 22
723 1 2.85561 12.8405 4.01534 21
724 1 6.1611 20.6683 6.81534 23
725 1 3.89819 30.4135 12.291 16
726 1 26.0086 32.8795 3.42482 20
727 1 19.4428 20.843 5.92889 21
728 1 7.72933 23.6465 6.30503 20
729 1 29.6307 27.8661 15.8093 18
730 1 4.89931 22.7751 12.0196 17
731 1 32.365 24.8691 25.1329 21
732 1 26.9941 28.6214 15.7527 24
733 1 22.0337 21.6863 59.1014 22
734 1 27.4225 24.6389 58.6018 19
735 1 32.0647 29.5231 53.1425 20
736 1 24.801 23.5149 7.31954 18
737 1 1.79308 21.801 59.859 21
738 1 31.611 19.5264 5.5755 23
739 1 0.45083 30.2716 13.9399 16
740 1 24.9106 30.2235 11.5214 23
741 1 32.1428 31.7834 16.3067 17
742 1 21.1409 2.72199 20.1336 22
743 1 5.39487 25.0597 18.0977 21
744 1 1.10887 13.987 14.2739 19
745 1 29.937 29.2414 2.10539 25
746 1 3.50978 4.06273 60.2178 21
747 1 6.36333 16.9648 63.1652 22
748 1 22.3332 3.49587 18.0208 22
749 1 0.364552 27.573 1.03663 24
750 1 0.0163211 25.0662 1.32206 21
751 1 10.8325 15.0192 59.9321 22
752 1 30.1067 32.1289 22.2975 23
753 1 29.2827 31.4199 16.5551 15
754 1 32.5591 24.8992 61.4455 22
755 1 10.24 29.7663 15.268 18
756 1 17.298 26.6971 25.2813 22
757 1 32.6981 30.8998 56.7949 20
758 1 1.90919 11.8536 8.68565 23
759 1 32.5223 4.63422 10.3421 19
760 1 2.25379 20.1022 13.8052 24
761 1 32.3007 11.9122 7.39692 21
762 1 2.98138 23.2778 14.1544 19
763 1 2.90024 26.1561 17.0274 19
764 1 11.8716 10.3942 4.19711 20
765 1 28.6009 30.4527 10.6921 20
766 1 12.088 1.13249 2.68741 17
767 1 17.8679 9.8203 18.1945 23
768 1 16.65 22.2619 21.4374 20
769 1 7.146 19.5292 1.31104 23
770 1 4.85258 22.6494 0.936069 22
771 1 1.33374 24.8842 11.8673 18
772 1 31.384 29.8281 9.03959 20
773 1 7.1303 32.2221 6.06735 19
774 1 29.0227 2.35561 15.9631 20
775 1 8.06468 18.5693 62.1709 20
776 1 1.2926 23.7201 8.1478 25
777 1 8.08683 34.176 19.053 20
778 1 0.524211 11.1744 14.6755 21
779 1 4.24204 30.2533 9.20728 21
780 1 5.38711 32.97 26.5042 21
781 1 27.0708 22.8823 10.1663 20
782 1 0.878305 32.0266 7.1161 21
783 1 30.5424 -0.39219 17.9411 22
784 1 22.229 7.17667 12.5161 25
785 1 24.2704 11.5048 55.9257 22
786 1 0.234379 0.550824 15.8174 21
787 1 22.927 1.32014 16.2731 20
788 1 6.23807 1.14732 17.8865 16
789 1 15.7303 24.3851 12.6117 20
790 1 1.68906 29.3512 7.34961 22
791 1 27.6204 16.2513 32.6155 20
792 1 0.656906 9.81615 22.5986 21
793 1 17.6783 16.6654 4.85794 22
794 1 29.058 28.2368 4.74956 21
795 1 10.2237 22.1462 12.5891 18
796 1 9.71094 19.2471 2.55487 23
797 1 9.00322 30.2366 18.1224 17
798 1 11.4357 25.4591 11.2948 23
799 1 26.0998 9.31072 9.40901 22
800 1 24.084 16.8127 18.3145 21
801 1 6.93507 11.4707 8.95964 24
802 1 15.3588 12.6406 61.8226 23
803 1 12.2456 28.3892 9.30991 23
804 1 3.13789 10.5943 15.17 22
805 1 5.94012 25.0453 14.6256 25
806 1 10.7485 17.499 53.4441 20
807 1 4.38776 19.4035 0.928336 20
808 1 3.09043 26.745 14.0523 18
809 1 31.4353 29.7762 6.02542 21
810 1 27.2123 17.16 13.4701 22
811 1 13.1864 23.4021 2.52867 21
812 1 28.0661 2.70419 10.3753 21
813 1 12.8984 31.9058 21.5329 21
814 1 10.524 32.8704 16.8388 20
815 1 10.1855 23.7058 8.94287 18
816 1 1.76844 29.8952 3.7995 21
817 1 2.92165 27.8184 2.13043 21
818 1 11.9129 31.2234 4.95417 20
819 1 14.1195 21.9567 58.1618 21
820 1 28.0735 27.525 62.6288 23
821 1 4.99348 32.8964 14.4756 19
822 1 31.6526 32.1403 0.250933 21
823 1 2.34083 7.53565 15.6337 23
824 1 25.4969 7.28906 3.94387 19
825 1 2.28863 33.4019 21.7904 20
826 1 27.3924 2.30794 2.68686 17
827 1 5.52662 3.6126 9.22401 22
828 1 14.7521 23.8307 18.7736 20
829 1 15.6547 20.5152 60.6813 20
830 1 4.36563 27.9534 4.75386 22
831 1 11.9184 20.4349 3.84665 23
832 1 3.04237 21.1292 57.9715 20
833 1 7.13076 22.2829 2.31762 21
834 1 23.873 27.1897 1.82766 22
835 1 10.3374 9.91429 1.86252 20
836 1 32.6483 8.47494 10.3944 20
837 1 10.605 25.1114 4.69769 22
838 1 7.84028 17.6294 11.4039 23
839 1 11.2417 20.6305 22.39 24
840 1 4.08708 9.41133 10.6409 22
841 1 4.48186 21.8436 4.22271 19
842 1 12.9902 26.6175 1.69488 20
843 1 11.6914 13.6028 63.1501 19
844 1 11.4455 19.6788 61.319 20
845 1 32.685 33.5103 10.4293 19
846 1 2.47705 28.2073 62.704 21
847 1 17.3317 16.5098 7.70432 23
848 1 21.6452 25.9055 60.9683 21
849 1 5.35682 28.6286 13.8466 20
850 1 27.7497 17.3384 9.82087 22
851 1 8.26529 14.9334 15.6483 23
852 1 27.1343 18.0133 16.9892 20
853 1 13.084 27.1608 60.8153 23
854 1 15.9229 4.32566 4.0473 17
855 1 32.2394 27.1734 58.6451 20
856 1 30.638 24.1988 8.2112 19
857 1 3.4669 32.9677 8.96047 24
858 1 16.5035 -0.498478 7.48311 22
859 1 5.07791 1.80052 4.13207 26
860 1 13.4169 25.9256 25.7145 20
861 1 30.3934 29.0063 27.4469 25
862 1 15.2783 28.4731 16.3041 20
863 1 12.5175 28.2888 6.0706 23
864 1 18.323 2.58552 12.1588 20
865 1 3.01623 25.2097 63.3569 20
866 1 19.9437 20.7421 0.712285 18
867 1 20.8015 11.3805 6.82128 21
868 1 20.0894 0.909694 13.7942 20
869 1 22.5609 31.299 6.94008 19
870 1 20.2638 15.28 57.4507 21
871 1 7.0124 16.8248 6.19024 20
872 1 15.3086 18.1548 2.91706 19
873 1 5.78376 33.002 17.3904 20
874 1 19.144 32.6257 13.6493 21
875 1 14.1793 13.3737 16.9863 19
876 1 0.425248 31.0591 22.8572 23
877 1 5.00915 30.0912 54.3384 20
878 1 18.638 16.8518 11.5133 20
879 1 16.1149 27.5695 6.59783 19
880 1 32.589 27.8658 4.38572 24
881 1 17.4741 21.9835 -0.0395738 22
882 1 11.5839 34.3315 4.64765 22
883 1 5.94961 28.6511 7.48697 23
884 1 7.79343 23.0552 62.8658 20
885 1 14.3875 30.2634 6.92553 22
886 1 12.1056 4.59672 24.4655 23
887 1 10.1901 27.682 18.7355 21
888 1 13.3796 31.0849 15.0994 24
889 1 20.0565 5.80678 4.96328 25
890 1 14.5025 31.0002 58.8913 19
891 1 31.505 24.319 3.44636 24
892 1 14.0824 0.0905931 53.1515 19
893 1 25.5803 0.183004 61.1009 20
894 1 18.2252 30.3868 11.8146 20
895 1 16.1733 0.663946 11.0047 22
896 1 5.27537 5.08388 3.82996 22
897 1 10.9797 1.40139 18.9741 20
898 1 5.04031 2.82707 28.4718 22
899 1 18.6025 15.8126 17.828 26
900 1 15.0913 33.149 4.15071 21
901 2 0.322589 5.17851 15.8316 21
902 2 1.46335 21.1293 61.4987 21
903 2 13.6514 4.11487 63.4435 22
904 2 9.56115 28.6755 12.4052 18
905 2 11.5293 28.5223 7.57968 18
906 2 29.1111 13.2582 14.4018 23
907 2 26.899 18.8536 6.47603 22
908 2 3.49726 16.3296 0.342399 17
909 2 0.746518 30.6673 8.35117 18
910 2 3.53636 3.27407 9.6797 22
911 2 32.3473 30.1301 4.52989 21
912 2 17.298 15.6373 1.41197 20
913 2 30.8683 15.1733 4.59278 20