ITEM: TIMESTEP
263000
ITEM: NUMBER OF ATOMS
5760
ITEM: BOX BOUNDS pp pp pp
2.8863940102 29.9136059898
-1.5940323371 35.7340323371
-4.0320211106 67.6320211117
ITEM: ATOMS id type x y z Coordination
1 1 14.9128 34.0636 29.2728 23
2 1 9.10319 13.9003 49.0296 19
3 1 28.8095 30.7772 21.1506 22
4 1 28.8498 21.4756 0.49192 18
5 1 27.181 13.3091 13.1527 21
6 1 18.9308 15.3656 11.2949 19
7 1 26.0328 11.2067 25.6686 23
8 1 14.5408 19.8967 55.2378 23
9 1 18.9191 -0.736157 16.0385 20
10 1 16.0237 34.5633 64.4748 19
11 1 13.0606 25.8435 63.8378 20
12 1 4.89195 -1.49464 5.81193 21
13 1 27.7136 15.8342 59.9955 21
14 1 13.1493 8.64674 34.0114 18
15 1 27.8762 20.1098 7.31289 18
16 1 15.4869 20.6952 11.1517 19
17 1 23.2773 1.9706 2.27501 20
18 1 7.33472 29.9727 64.7316 19
19 1 21.3519 24.87 59.578 24
20 1 20.8914 2.5972 0.0898129 21
21 1 15.0092 31.0579 14.753 18
22 1 28.0791 11.8492 54.8225 22
23 1 11.4398 23.2193 22.8764 21
24 1 5.01059 5.97704 20.2754 20
25 1 9.56812 -1.5444 55.3433 23
26 1 7.1141 27.1433 28.4847 21
27 1 11.9896 34.0807 -3.20637 21
28 1 6.37641 25.9392 52.8112 20
29 1 3.5847 11.0993 51.2769 20
30 1 27.9959 7.97998 39.6011 22
31 1 24.3625 17.089 3.96684 20
32 1 9.93585 28.6973 1.66202 21
33 1 5.48183 12.4404 11.9667 20
34 1 14.873 -0.930454 5.20041 20
35 1 17.6926 4.59586 60.518 22
36 1 11.015 21.9924 28.1406 22
37 1 23.7126 6.7891 15.7878 19
38 1 3.04427 3.67366 3.49156 18
39 1 12.5533 32.1724 -0.803068 21
40 1 12.4043 28.2138 11.0451 19
41 1 24.2971 27.1981 61.6328 20
42 1 26.1052 17.0261 13.2547 25
43 1 4.50975 -0.298908 8.60586 23
44 1 10.899 28.1395 42.363 20
45 1 6.2032 9.83019 10.6038 23
46 1 28.0422 19.4984 29.7252 25
47 1 25.7513 10.1187 43.6602 20
48 1 13.9848 35.1239 39.1053 25
49 1 17.1497 7.41159 0.864565 19
50 1 13.7355 26.1747 -2.31159 23
51 1 28.686 22.5874 54.1469 21
52 1 23.6298 -1.26597 45.0484 19
53 1 28.8167 0.456624 14.3864 21
54 1 29.4658 6.96959 65.938 21
55 1 26.0062 1.11967 57.8376 20
56 1 5.07899 28.4454 5.9337 25
57 1 10.3407 28.4662 13.1309 24
58 1 9.99176 31.9233 -0.478036 21
59 1 17.037 5.50506 2.54878 20
60 1 23.3772 17.4051 28.45 21
61 1 9.94042 34.4494 -0.0844819 20
62 1 19.6891 29.6236 60.7954 21
63 1 17.2016 34.5204 -0.222086 22
64 1 29.6549 6.84472 21.4866 20
65 1 21.0649 14.7407 4.09639 18
66 1 17.9592 31.4241 62.8275 20
67 1 25.7969 29.6887 63.59 19
68 1 24.9221 0.822893 36.3217 22
69 1 15.4371 18.5301 1.53375 24
70 1 4.57625 28.8918 32.0863 21
71 1 25.1848 3.59847 21.8314 20
72 1 3.07224 9.39415 12.897 22
73 1 21.767 27.5159 4.93606 22
74 1 10.24 21.7709 7.20984 24
75 1 5.08196 25.9836 2.38131 22
76 1 5.10646 35.2761 11.9678 20
77 1 24.5129 7.88354 31.5927 23
78 1 29.7563 22.9512 63.4882 22
79 1 7.65023 21.1675 1.61032 18
80 1 17.042 27.5953 55.7206 18
81 1 7.66123 20.3055 61.6994 20
82 1 19.9935 17.0296 42.2527 17
83 1 9.24228 8.18556 10.8359 21
84 1 16.6697 22.2678 64.5209 22
85 1 22.3499 33.1436 13.9874 19
86 1 20.7366 27.9003 28.3884 20
87 1 19.9113 3.2547 62.1765 21
88 1 21.634 7.6795 55.731 19
89 1 12.7963 6.09061 -0.512051 21
90 1 7.48983 26.1833 20.0376 21
91 1 20.1117 2.96388 12.2841 21
92 1 11.6531 29.6723 55.5109 23
93 1 4.35575 15.0494 -1.54125 22
94 1 25.2321 26.0998 7.88419 20
95 1 7.97919 24.6072 12.1834 22
96 1 25.888 23.0569 37.0498 19
97 1 14.2818 1.66213 12.2308 19
98 1 15.6987 29.7031 65.3137 22
99 1 25.3505 27.7927 18.101 22
100 1 12.6944 18.6936 3.7586 20
101 1 28.5474 32.0976 -3.9313 22
102 1 5.05472 33.4997 65.222 21
103 1 7.29139 12.972 32.7329 24
104 1 14.6978 26.4743 46.4308 19
105 1 4.72429 29.9471 28.5791 21
106 1 27.6883 7.80039 30.3883 23
107 1 18.6293 34.0302 -2.64625 21
108 1 23.7822 21.6865 39.4594 22
109 1 15.9192 27.2554 40.4852 20
110 1 15.1253 7.76364 -2.16332 21
111 1 25.3201 17.081 1.38209 24
112 1 12.3471 1.05029 5.76865 21
113 1 14.9675 23.3889 9.52411 20
114 1 27.3789 0.931482 3.77243 17
115 1 4.71303 22.0514 4.98543 21
116 1 9.38841 25.0609 23.3994 21
117 1 9.48046 13.2327 3.38924 21
118 1 23.0295 17.0019 -1.43429 23
119 1 15.3142 1.01092 -0.765686 21
120 1 26.3353 14.0878 20.7693 19
121 1 17.7769 24.8408 56.0322 22
122 1 21.2494 21.1814 8.29387 22
123 1 7.2974 31.2366 -2.47806 19
124 1 9.27485 27.8696 60.0047 22
125 1 16.2717 22.5016 57.2199 21
126 1 22.3149 14.9214 39.7449 19
127 1 21.7916 19.6715 63.8449 23
128 1 4.53168 33.225 1.94492 21
129 1 25.6366 23.7649 17.4862 21
130 1 11.9996 16.6249 56.8752 19
131 1 9.99844 34.5127 19.7785 21
132 1 24.1241 16.3996 34.4067 23
133 1 29.5127 28.9672 46.0819 21
134 1 23.337 15.4837 7.21177 20
135 1 12.3483 31.3404 2.09736 22
136 1 27.7975 19.1695 4.14708 20
137 1 13.7117 2.38675 7.64714 19
138 1 5.50026 10.1721 53.3095 21
139 1 20.5445 16.9074 62.7955 20
140 1 3.26068 9.79514 54.8897 18
141 1 21.6764 -0.677186 15.9409 21
142 1 19.231 14.1672 39.4062 22
143 1 28.5282 26.3135 54.2354 20
144 1 12.7858 -1.19651 15.4541 20
145 1 12.8634 19.4565 12.4942 19
146 1 20.5533 17.9107 9.49463 20
147 1 6.04633 21.2589 27.4547 22
148 1 14.773 17.0108 67.2646 21
149 1 10.3735 22.4363 60.1156 20
150 1 4.34802 6.80041 11.64 24
151 1 6.7893 8.70605 58.6519 25
152 1 14.4683 20.6937 66.1156 23
153 1 2.92075 13.5533 12.5805 25
154 1 14.1431 13.3052 18.0369 21
155 1 7.20547 5.07835 33.4579 21
156 1 17.9998 22.0929 67.5471 21
157 1 16.8305 9.66059 12.0375 20
158 1 14.7974 5.21215 12.9326 21
159 1 13.2566 18.3665 65.3829 19
160 1 7.72742 2.92445 13.4097 20
161 1 14.0799 15.0104 55.3098 25
162 1 20.4246 29.537 9.25832 19
163 1 24.9473 34.3986 61.9403 22
164 1 20.7352 -0.600595 65.2575 20
165 1 9.31585 2.30462 -0.863412 23
166 1 19.9606 21.7682 1.58309 22
167 1 8.81655 0.608108 4.89012 19
168 1 12.0641 0.23817 9.98212 22
169 1 10.0179 30.3693 58.1791 22
170 1 20.0025 20.4124 52.321 21
171 1 5.55814 24.1409 27.7683 21
172 1 11.2867 16.728 3.25578 21
173 1 18.2413 -0.741262 4.32877 26
174 1 29.4209 16.5282 14.0163 22
175 1 11.8193 28.7302 -0.272781 20
176 1 24.6282 8.41026 67.127 17
177 1 23.6154 17.287 20.9122 20
178 1 3.18919 -1.07104 2.49797 20
179 1 14.0045 29.2142 49.0796 22
180 1 23.3508 25.3598 18.0719 21
181 2 20.6602 25.8969 62.6025 20
182 2 4.42464 10.3228 4.82968 20
183 2 15.1949 32.4663 23.7549 18
184 2 4.99381 7.21349 58.1432 23
185 2 20.1517 28.1212 37.4438 18
186 2 27.8814 4.62988 24.8684 20
187 2 25.3316 3.31039 7.22762 22
188 2 25.8221 16.8991 59.4746 17
189 2 17.8853 23.4486 3.40337 24
190 2 18.8393 9.90157 3.25285 20
191 2 29.4495 6.97217 16.1252 19
192 2 8.12161 31.4967 30.5385 21
193 2 13.0303 31.8031 16.5196 20
194 2 3.37676 13.0464 4.67311 22
195 2 29.52 30.7723 25.9357 21
196 2 22.3534 19.77 13.4052 20
197 2 28.3721 26.4928 0.59718 18
198 2 23.1117 9.38751 0.9051 21
199 2 15.57 11.0387 13.3422 19
200 2 3.36974 34.12 57.2304 20
201 2 5.75871 2.94556 2.23532 18
202 2 12.4355 10.9788 10.9982 20
203 2 14.4836 14.6236 2.97862 18
204 2 12.0098 8.58313 65.5072 20
205 2 23.6111 12.8469 37.1559 22
206 2 7.90422 11.8107 0.0558422 20
207 2 26.173 7.50638 67.6864 19
208 2 27.5329 5.74741 20.3994 22
209 2 21.8103 17.1702 25.1369 22
210 2 15.558 16.1984 42.4225 20
211 2 17.8398 3.74964 5.8517 21
212 2 9.77698 30.1502 36.0098 21
213 2 16.4153 2.60515 29.238 18
214 2 16.3277 10.897 -1.88957 20
215 2 13.2057 16.5523 -3.33313 23
216 2 10.0475 4.72487 25.9562 20
217 2 9.24485 10.8938 27.7905 24
218 2 25.8138 1.44575 17.1237 21
219 2 18.7252 14.6742 16.7516 21
220 2 6.41885 26.4676 32.7034 20
221 2 12.3827 3.1625 32.9966 18
222 2 27.1545 34.9065 10.4087 18
223 2 7.49654 3.4989 25.8729 17
224 2 10.5393 1.39967 3.59466 20
225 2 20.1082 15.4351 40.7965 19
226 2 29.5852 34.2942 12.1491 22
227 2 13.5276 7.86041 -0.886202 21
228 2 18.0268 11.5896 50.3934 21
229 2 8.40269 7.70857 56.1721 26
230 2 16.5286 20.0099 2.57225 21
231 2 8.94649 29.2662 0.244966 19
232 2 17.6468 11.3237 0.293156 21
233 2 4.45916 2.27232 33.2837 22
234 2 21.2961 7.48269 3.44729 21
235 2 6.06004 25.0914 60.1145 21
236 2 22.0338 33.5003 16.1211 22
237 2 7.42861 7.00564 58.8184 23
238 2 29.8138 3.66232 44.2302 23
239 2 16.9878 17.5455 13.8701 20
240 2 25.8277 11.1412 51.2825 21
241 2 28.3634 18.4117 31.2027 21
242 2 21.5762 27.804 67.029 20
243 2 11.8843 22.958 58.6539 19
244 2 14.9566 14.6965 5.6731 23
245 2 13.2976 5.63442 14.4613 23
246 2 16.0225 29.9564 3.50695 21
247 2 10.0898 15.1449 4.07367 24
248 2 22.3755 23.1125 -3.8304 20
249 2 25.1678 18.3339 21.0316 20
250 2 26.3041 -0.771323 23.5757 21
251 2 16.705 15.9635 37.6977 21
252 2 3.79602 22.9326 65.6266 24
253 2 19.5809 30.9833 25.7278 20
254 2 14.7041 21.4186 40.414 23
255 2 5.97225 25.7833 35.6001 22
256 2 14.6187 22.4788 31.7871 25
257 2 28.5348 21.0987 12.1124 22
258 2 13.2585 30.3936 43.6002 20
259 2 7.5539 -0.518897 62.2959 20
260 2 21.0148 34.7259 64.193 20
261 2 28.6952 18.6595 34.3717 20
262 2 23.5671 4.6994 21.3076 21
263 2 8.73137 3.60363 59.6213 25
264 2 27.3234 15.438 26.8558 18
265 2 17.2059 20.9456 19.2383 21
266 2 23.4709 33.2715 -4.03868 18
267 2 27.6215 12.4385 41.2034 18
268 2 7.36011 16.6497 1.94238 22
269 2 24.0971 4.75385 54.1207 18
270 2 12.025 14.0654 -2.38956 20
271 2 14.7697 13.9353 61.3702 21
272 2 27.5609 15.2853 58.1761 22
273 2 26.4231 16.9919 3.16088 21
274 2 15.1159 17.6308 27.355 20
275 2 24.067 11.2812 34.2972 20
276 2 10.8425 22.1485 40.9006 21
277 2 10.9599 -0.56388 48.2721 19
278 2 11.5914 32.9972 0.875793 22
279 2 24.344 21.4602 37.5818 21
280 2 26.7537 -0.722422 19.3567 22
281 2 4.90713 35.0164 66.809 19
282 2 14.1623 3.02098 43.4396 19
283 2 11.3524 18.2181 49.6541 19
284 2 20.9135 29.9946 20.0705 18
285 2 20.1967 3.31265 37.6866 22
286 2 14.0998 7.21071 24.5513 17
287 2 26.3232 7.48682 26.4211 22
288 2 24.2601 31.0933 54.0425 21
289 2 30.0634 19.0392 25.1429 19
290 2 20.9566 0.649995 -0.48683 24
291 2 6.7338 15.04 18.1128 19
292 2 7.9719 18.7508 5.14208 21
293 2 4.81081 26.6216 15.8713 20
294 2 12.1711 25.0975 -2.65332 21
295 2 10.8272 21.5321 -3.46479 21
296 2 29.9822 25.1222 23.952 19
297 2 6.8407 11.8114 29.1077 21
298 2 19.4875 4.47677 9.01739 19
299 2 23.2592 28.1476 21.701 21
300 2 29.9273 10.1976 2.53276 20
301 2 19.7211 15.0348 50.4932 23
302 2 28.1189 22.0475 -1.37308 20
303 2 29.2305 15.3322 61.4658 20
304 2 26.1958 15.5908 56.1874 19
305 2 5.32311 15.078 24.5197 20
306 2 6.88984 22.7567 34.9401 24
307 2 18.6347 21.6662 63.0705 20
308 2 8.07081 22.364 -2.64212 21
309 2 15.3099 13.3212 58.5661 22
310 2 14.6236 25.1438 30.4117 19
311 2 22.9312 28.4101 6.09676 21
312 2 24.1013 0.43965 6.16697 22
313 2 16.4217 22.7493 -2.57997 22
314 2 6.2688 15.6928 36.9296 21
315 2 26.2842 32.817 4.44272 19
316 2 6.43587 27.4324 21.2676 19
317 2 7.69938 11.6828 55.8315 24
318 2 21.5937 23.5958 21.1967 22
319 2 8.38512 24.1699 8.34055 21
320 2 19.6573 18.9406 10.9166 21
321 2 11.6771 -0.205496 26.4025 18
322 2 11.3939 1.77401 15.3857 20
323 2 25.8785 19.5973 3.72753 26
324 2 23.7394 30.7277 48.2271 22
325 2 28.8799 5.22735 -1.15271 21
326 2 3.95932 34.2484 33.174 19
327 2 28.1514 -1.13014 2.08335 20
328 2 14.626 22.3666 27.8364 19
329 2 26.0039 22.0903 66.8192 21
330 2 29.768 23.3795 20.7391 19
331 2 21.4434 11.0493 39.2891 19
332 2 7.39565 31.3988 18.1128 21
333 2 17.6293 15.6942 22.0905 24
334 2 5.02156 -1.3566 -1.44758 22
335 2 17.3702 20.9848 32.2147 18
336 2 15.7762 6.72537 16.6776 19
337 2 21.5335 23.3091 2.11211 20
338 2 4.40901 -0.719313 39.2409 19
339 2 13.5189 2.29465 -0.485342 21
340 2 12.6391 17.9579 29.6031 19
341 2 18.7121 28.5508 10.7642 25
342 2 6.76891 17.3012 11.7804 21
343 2 27.7569 23.8913 59.1593 19
344 2 7.33478 12.9277 20.5444 21
345 2 24.3546 16.9172 14.1648 23
346 2 28.3193 2.44032 31.8799 23
347 2 13.043 23.8359 12.4629 21
348 2 26.0648 28.4229 11.6067 21
349 2 22.5403 20.4316 58.8386 19
350 2 10.9179 33.1729 3.87543 19
351 2 11.7127 24.1408 48.5897 23
352 2 17.0017 24.3923 58.0541 21
353 2 25.2159 14.6239 4.45826 20
354 2 12.3028 26.2936 10.516 21
355 2 29.5364 6.79348 61.0782 23
356 2 9.04891 32.2962 22.6263 20
357 2 5.86111 23.495 14.4328 19
358 2 28.2721 4.82201 63.0825 23
359 2 21.5216 17.9575 64.5695 21
360 2 10.9894 18.6618 31.2458 19
361 1 13.2033 34.1146 19.9057 22
362 1 26.8388 32.844 6.70614 18
363 1 15.1047 0.916412 50.461 22
364 1 26.0769 18.6039 6.90743 19
365 1 23.4306 13.4345 45.8038 19
366 1 18.425 33.8254 18.788 22
367 1 12.8279 -1.51595 7.33518 16
368 1 10.3284 29.796 4.67448 21
369 1 24.0842 33.3221 24.8374 22
370 1 10.9398 14.6955 13.8793 21
371 1 27.2048 -0.620568 38.7726 18
372 1 28.8197 4.67208 19.8442 22
373 1 29.2071 6.44776 35.6835 23
374 1 7.68712 18.5075 50.4249 22
375 1 4.07521 14.8032 29.4143 19
376 1 26.1045 1.30319 9.95674 20
377 1 22.0865 2.39563 37.843 20
378 1 8.06972 20.2092 18.2121 25
379 1 8.81698 -1.43412 49.8522 21
380 1 15.5076 1.24294 19.633 25
381 1 3.19731 18.0417 31.6678 19
382 1 6.99947 14.2737 5.65231 21
383 1 5.99882 12.7281 22.2403 21
384 1 17.6268 15.0653 50.4027 17
385 1 14.8197 25.3579 12.0109 23
386 1 24.2662 2.349 34.1517 22
387 1 24.3395 5.86874 23.4728 21
388 1 22.071 0.530537 33.1093 19
389 1 10.1941 32.7069 64.851 20
390 1 23.1079 5.04352 26.2441 18
391 1 27.2926 10.1139 13.1654 20
392 1 9.96303 8.23154 46.427 22
393 1 16.1796 17.0417 39.1221 21
394 1 8.04417 11.9382 4.76189 24
395 1 28.5426 30.0929 -0.568137 22
396 1 26.3424 31.9568 22.4981 21
397 1 16.3728 4.97723 33.2313 20
398 1 24.9148 1.84777 51.4739 19
399 1 12.7654 4.86161 52.9471 22
400 1 27.9913 19.5116 18.0724 18
401 1 8.22044 7.27422 2.551 20
402 1 22.9527 -0.791604 25.5958 21
403 1 23.6053 32.5798 58.3282 24
404 1 6.23041 13.6047 14.0452 18
405 1 6.11683 9.59771 14.952 20
406 1 10.5228 18.2913 38.9354 22
407 1 6.08285 33.7332 49.8443 22
408 1 21.1884 3.00175 34.7969 22
409 1 21.0514 7.20452 42.82 20
410 1 10.355 -0.0927886 30.9733 20
411 1 16.2648 4.63523 48.4024 21
412 1 26.4203 29.235 27.2898 25
413 1 18.2106 12.6596 8.54574 20
414 1 15.5687 30.1928 35.6356 17
415 1 21.2854 19.5384 42.1253 24
416 1 14.0415 15.249 12.1523 18
417 1 24.9 9.75433 38.3828 22
418 1 14.9106 3.84711 25.5332 20
419 1 15.3433 1.97038 23.0197 18
420 1 19.131 10.8707 21.934 22
421 1 28.738 28.5794 64.2803 24
422 1 14.1922 33.1549 16.402 18
423 1 26.501 28.3312 30.3712 20
424 1 6.15163 0.670019 17.5329 24
425 1 25.4559 13.4059 26.6191 20
426 1 12.3232 14.6153 32.2781 22
427 1 6.11419 9.89171 25.1508 19
428 1 8.30181 34.1106 26.1629 18
429 1 18.9193 29.0704 16.587 19
430 1 26.5352 23.6003 0.717682 21
431 1 4.96246 13.4105 36.5052 22
432 1 23.4574 19.5821 -2.62262 25
433 1 7.694 33.8533 12.136 20
434 1 22.2163 12.3919 38.3475 21
435 1 22.5792 12.6706 35.7928 21
436 1 14.4799 17.5751 6.67686 23
437 1 24.2568 10.9078 18.3841 22
438 1 29.4375 26.9863 58.2957 20
439 1 18.9487 0.544167 7.24807 22
440 1 9.05079 4.66541 1.46989 21
441 1 9.47388 27.081 33.7558 23
442 1 15.2018 21.3549 3.60573 23
443 1 24.3283 26.1338 4.2724 19
444 1 20.6762 5.03513 41.3181 21
445 1 4.44871 11.9789 15.1201 20
446 1 9.58624 -0.553514 42.1508 22
447 1 7.53074 35.7955 6.9692 19
448 1 6.90827 -1.37456 35.4223 23
449 1 11.8902 21.8746 53.1006 24
450 1 28.7123 33.9087 22.2125 23
451 1 3.11976 16.5694 4.00348 22
452 1 13.3819 31.8087 37.846 20
453 1 10.0511 29.9305 33.8905 21
454 1 17.5814 15.4529 41.1114 23
455 1 3.10314 19.1716 5.06631 23
456 1 8.34858 -0.458399 23.0262 22
457 1 21.7169 17.9709 23.1016 23
458 1 18.892 29.4466 3.95479 20
459 1 3.89657 15.1168 6.89706 22
460 1 24.8673 13.8677 23.2423 23
461 1 11.9685 25.1933 16.4591 22
462 1 17.7273 9.7762 35.3413 18
463 1 3.54531 25.2683 4.82465 19
464 1 20.1437 13.9319 13.6329 21
465 1 25.5678 18.3099 51.876 21
466 1 9.18715 25.0678 6.69403 23
467 1 10.2381 30.8169 22.3616 21
468 1 11.7414 18.4937 36.7905 22
469 1 22.9299 33.5576 4.64134 22
470 1 13.4249 34.8493 33.0104 22
471 1 13.6589 33.9408 49.8611 21
472 1 17.241 17.2419 20.7392 24
473 1 7.41599 1.45547 26.3545 19
474 1 10.4943 11.1877 18.8654 21
475 1 21.5793 23.7761 6.09186 24
476 1 16.1052 20.2002 17.9157 22
477 1 16.0573 30.5312 39.5076 20
478 1 7.20214 17.8582 47.7899 22
479 1 24.5305 -0.679683 33.1943 20
480 1 11.6521 23.6502 19.6681 21
481 1 29.2893 11.4685 25.2092 19
482 1 6.61017 -0.257202 2.80302 22
483 1 11.7825 35.139 4.48703 20
484 1 25.8494 4.47877 11.1376 20
485 1 13.4329 29.4712 38.1102 20
486 1 15.3928 31.793 49.8366 20
487 1 4.43557 13.761 45.0298 20
488 1 20.9111 34.3479 38.8073 18
489 1 18.6927 2.82844 17.8715 25
490 1 12.5865 3.21503 11.4542 22
491 1 22.9311 4.97594 38.633 20
492 1 18.4883 5.76515 25.0267 18
493 1 19.2724 13.7107 26.6004 21
494 1 4.32623 20.7362 37.6445 21
495 1 28.3203 0.259619 0.63379 21
496 1 22.0577 2.21787 40.7686 25
497 1 28.6635 13.3421 4.30754 26
498 1 11.1967 22.3497 66.0647 19
499 1 9.6472 2.91084 16.9321 19
500 1 12.4007 18.6981 -3.35952 26
501 1 26.1589 12.1901 15.3784 22
502 1 17.2856 34.1728 16.229 20
503 1 16.2802 35.0666 31.7194 22
504 1 16.2691 13.6304 38.5432 20
505 1 11.4632 14.527 39.2899 24
506 1 14.1305 28.3433 27.0564 18
507 1 10.9623 25.577 2.18297 19
508 1 8.23915 16.3916 65.6605 21
509 1 8.54435 10.628 43.0621 20
510 1 14.3707 10.6138 21.3058 16
511 1 23.9052 35.5759 14.1002 21
512 1 13.1669 27.1275 29.8744 22
513 1 5.88982 19.1771 45.8335 19
514 1 18.0411 29.9435 12.5211 23
515 1 8.84686 7.05497 28.8243 23
516 1 11.1895 10.1476 64.7543 20
517 1 26.5841 1.75906 -0.747314 17
518 1 6.42411 22.6721 38.5269 23
519 1 18.8184 6.57424 22.0264 21
520 1 16.1352 26.9149 43.935 19
521 1 5.95481 9.57688 29.502 20
522 1 13.8553 5.17172 3.07606 22
523 1 17.1367 27.5457 46.7028 23
524 1 28.5848 17.0471 7.9701 20
525 1 22.3459 25.8683 9.37796 20
526 1 17.9049 18.9503 1.33029 22
527 1 13.0031 30.3763 18.4124 19
528 1 6.47292 -0.9356 32.0806 20
529 1 24.9419 26.1005 32.7746 22
530 1 28.6873 4.72498 10.9536 14
531 1 28.2369 16.5287 30.5566 22
532 1 5.28374 19.7466 8.00634 19
533 1 12.8712 4.50166 9.3521 20
534 1 16.3737 12.8808 19.3989 21
535 1 19.0239 28.0035 35.9306 19
536 1 4.52711 25.4121 -2.39876 19
537 1 25.912 32.9585 51.5988 21
538 1 22.2459 -0.560419 38.6576 19
539 1 26.9119 15.3664 15.9777 19
540 1 6.00886 18.492 16.7858 21
541 2 14.401 26.5824 18.7756 21
542 2 19.5941 24.3009 56.8718 23
543 2 17.3605 16.7363 16.6857 20
544 2 28.0761 20.6747 60.7279 24
545 2 12.3509 5.51457 38.1219 20
546 2 15.8367 23.929 24.1499 20
547 2 14.8628 9.93608 16.6704 24
548 2 15.8987 0.962138 45.8192 21
549 2 17.672 8.91921 14.3743 20
550 2 26.5628 34.4624 63.3134 19
551 2 15.4198 8.00936 27.0485 18
552 2 14.4569 5.18539 19.174 19
553 2 8.19097 7.82434 -1.87123 22
554 2 25.1409 18.2178 24.8085 19
555 2 28.6994 17.9036 11.3039 23
556 2 13.2863 29.7578 1.30759 21
557 2 15.5297 9.48163 22.739 19
558 2 13.5542 15.4439 57.2432 22
559 2 6.80781 29.7528 10.5557 19
560 2 23.0628 7.38534 60.8652 22
561 2 5.64924 10.8091 21.5466 19
562 2 25.9954 26.5899 22.6627 22
563 2 11.1979 15.16 63.4146 19
564 2 9.38956 1.43818 26.4875 21
565 2 29.8009 32.1611 3.53448 20
566 2 20.6889 10.0803 26.8769 20
567 2 22.9244 27.0119 3.40695 18
568 2 4.02174 6.97139 34.8504 21
569 2 9.96542 0.771007 18.6363 20
570 2 12.37 10.8877 30.1518 20
571 2 18.8976 29.9758 32.4805 20
572 2 20.9345 14.9793 -3.55343 21
573 2 14.9829 12.9722 16.3614 20
574 2 24.3713 24.0865 19.1291 17
575 2 17.3468 14.6597 67.3656 17
576 2 7.81355 -0.864797 26.7827 20
577 2 21.3218 3.83199 11.37 18
578 2 16.1843 32.3909 39.9292 22
579 2 20.1556 4.3989 32.7606 20
580 2 18.859 21.814 52.4762 19
581 2 18.5518 21.9323 43.4369 18
582 2 17.5622 18.8428 21.6701 18
583 2 19.1166 22.7382 0.193564 21
584 2 11.3619 16.1993 23.6835 21
585 2 13.9026 33.5964 -0.672434 20
586 2 13.691 18.0501 63.5009 22
587 2 3.05421 16.7525 22.0467 23
588 2 12.144 4.3154 51.2853 20
589 2 12.9801 33.0729 11.5442 19
590 2 27.0688 4.95014 13.4507 19
591 2 11.2451 25.0932 23.9234 23
592 2 24.5268 19.321 6.1937 16
593 2 5.5404 32.138 30.8261 21
594 2 3.60578 0.259224 20.0243 22
595 2 22.4107 1.02369 24.5971 20
596 2 24.423 24.5502 10.8058 19
597 2 11.7116 35.371 -0.408908 19
598 2 14.1811 2.64373 9.41145 19
599 2 12.7127 5.21562 10.8938 22
600 2 19.9622 6.98182 65.0729 20
601 2 6.21951 -0.3016 7.45604 19
602 2 21.9093 24.3044 57.5484 23
603 2 29.498 21.0054 63.824 20
604 2 17.6394 0.138878 27.4859 20
605 2 11.4428 2.35405 24.7524 19
606 2 9.10129 23.9486 34.0352 19
607 2 11.0312 8.18292 34.3047 19
608 2 6.53574 31.0903 21.2203 24
609 2 16.1586 25.6323 55.4899 20
610 2 27.1135 9.10461 15.3982 21
611 2 22.1122 9.3217 60.0535 17
612 2 18.7598 1.61113 36.1556 22
613 2 25.7951 6.78362 22.9784 25
614 2 15.0042 33.1512 65.5337 20
615 2 12.4539 29.9658 4.03805 21
616 2 23.3387 18.0316 33.3818 20
617 2 16.7116 33.5732 29.3492 24
618 2 23.127 15.2864 11.4856 20
619 2 20.013 5.98808 6.03727 19
620 2 3.41782 29.4971 20.2062 20
621 2 14.1961 3.73552 40.1169 20
622 2 26.4135 -1.53024 44.8585 17
623 2 29.1126 13.6582 19.4061 19
624 2 11.5102 19.5476 4.94929 22
625 2 22.2426 30.0442 37.2018 18
626 2 7.52501 8.33457 29.6549 20
627 2 3.12654 27.1235 21.324 20
628 2 25.2541 6.14202 30.9784 19
629 2 15.943 8.15301 54.7071 23
630 2 24.0082 6.52352 2.40857 20
631 2 27.6615 29.6805 2.15513 22
632 2 16.5347 30.1609 50.359 19
633 2 7.72503 1.52058 28.4805 19
634 2 25.2223 6.14786 16.3037 20
635 2 19.9238 7.36395 62.2809 22
636 2 8.03293 13.0124 25.8551 24
637 2 6.81399 7.59702 3.74558 19
638 2 7.68991 6.05624 26.4962 18
639 2 14.3738 19.6726 10.152 19
640 2 15.0612 14.4455 39.5055 23
641 2 4.93489 29.2359 54.923 19
642 2 18.7016 24.9243 16.6589 19
643 2 24.4227 6.33926 -2.68754 19
644 2 29.1601 31.1047 28.951 18
645 2 7.77281 19.8838 34.937 20
646 2 12.2727 19.8056 35.4506 19
647 2 10.6515 9.91595 48.2999 19
648 2 24.77 13.5949 57.6931 22
649 2 29.258 21.8598 24.7798 21
650 2 5.53392 19.1375 24.8189 18
651 2 29.5685 30.9319 8.01169 17
652 2 7.32142 5.86168 31.5233 19
653 2 28.7611 27.3646 33.1794 21
654 2 8.62472 26.7013 61.2108 21
655 2 22.1395 26.1251 19.1758 22
656 2 23.6295 2.42696 22.3766 19
657 2 24.8315 15.2261 32.7713 20
658 2 26.0518 10.4984 36.6033 21
659 2 2.92705 24.1767 -2.37518 23
660 2 23.3747 23.8945 24.5949 19
661 2 17.1748 13.5249 14.6274 22
662 2 16.7501 35.1667 -2.1926 19
663 2 27.3889 1.99285 -2.81359 24
664 2 29.0165 17.9507 19.5909 17
665 2 16.996 25.3102 47.5054 20
666 2 2.99526 -1.50345 47.5673 22
667 2 11.3232 7.17966 44.1108 21
668 2 29.6164 6.71846 25.7096 22
669 2 11.9177 29.6835 20.7204 21
670 2 19.8878 10.1048 29.5893 23
671 2 11.0068 25.3849 35.0081 21
672 2 17.1231 8.44172 36.5504 18
673 2 22.7514 34.2085 55.1877 20
674 2 23.1926 29.3266 41.5432 21
675 2 13.9442 4.39162 58.8249 21
676 2 6.88159 23.2613 16.9942 22
677 2 18.1578 7.23735 2.65181 18
678 2 29.7121 20.9932 36.1303 22
679 2 25.07 29.0593 31.3022 19
680 2 24.541 16.8958 5.86963 23
681 2 12.5242 22.696 45.7168 22
682 2 29.1642 -0.625782 29.4307 22
683 2 24.8762 31.6911 11.0461 19
684 2 22.6019 28.3185 60.666 22
685 2 5.00248 33.9631 6.58093 20
686 2 16.362 14.4792 18.1088 22
687 2 4.00742 12.6095 25.2731 22
688 2 22.1923 4.30737 30.2275 19
689 2 17.514 4.35862 31.6229 22
690 2 18.1765 11.9421 23.3419 25
691 2 8.73064 30.5117 6.7803 19
692 2 24.1233 1.82762 61.3798 20
693 2 26.3706 16.1706 46.9553 23
694 2 16.2185 17.7032 5.57974 20
695 2 29.6814 35.4104 54.3977 22
696 2 27.5644 25.9722 26.2554 21
697 2 10.9479 29.7923 18.1355 22
698 2 9.85505 10.6323 23.676 17
699 2 5.99454 28.4482 13.2557 19
700 2 24.463 31.2174 16.2724 23
701 2 13.6794 34.7694 14.0313 15
702 2 26.0736 13.8833 18.569 21
703 2 21.474 19.7451 27.5534 19
704 2 13.94 4.01071 35.899 22
705 2 3.81355 12.8534 10.8648 21
706 2 19.4589 0.0204864 60.0671 20
707 2 21.2675 22.677 23.936 20
708 2 10.6992 23.2734 26.9993 19
709 2 16.5759 35.2111 13.1441 20
710 2 6.70924 13.4577 39.4355 22
711 2 27.5139 32.0293 20.5987 22
712 2 7.27123 7.92323 11.5237 23
713 2 3.35032 1.23167 9.55876 18
714 2 6.35617 31.501 15.3555 19
715 2 16.7853 20.0346 15.4437 25
716 2 7.46825 22.2636 22.5934 23
717 2 8.19924 28.7985 34.1772 20
718 2 23.373 0.138389 19.4106 20
719 2 6.51832 34.325 16.4724 23
720 2 16.0675 -1.50955 39.592 22
721 1 16.297 0.644217 7.29825 23
722 1 17.8532 5.24637 13.1973 22
723 1 20.7322 35.7843 5.98607 23
724 1 16.8511 25.0418 65.0247 21
725 1 6.97719 21.9771 13.3672 19
726 1 26.4248 9.91263 20.1379 20
727 1 3.57198 2.72179 15.2654 16
728 1 5.37257 24.5 66.8303 20
729 1 14.6768 25.3583 6.22782 24
730 1 19.1976 17.5082 13.7281 24
731 1 4.70594 18.4091 63.9244 21
732 1 8.21115 4.16498 62.3796 22
733 1 25.7539 5.25511 29.2881 22
734 1 23.9131 11.1761 23.8975 24
735 1 4.35081 28.4625 2.98802 24
736 1 13.4859 16.9835 14.2286 22
737 1 3.09409 26.4315 51.6572 21
738 1 10.3153 34.4564 7.82223 19
739 1 26.2679 21.5026 4.9852 23
740 1 8.03194 16.2489 57.5958 22
741 1 5.48504 34.7308 21.8001 27
742 1 27.0045 3.17778 14.2656 21
743 1 26.7222 -1.15328 12.0806 24
744 1 23.3686 20.9387 6.19694 22
745 1 10.9104 8.86754 2.16805 20
746 1 18.6643 5.12573 4.94467 19
747 1 22.4896 24.3998 11.6111 22
748 1 9.66773 25.4952 17.8656 20
749 1 29.4413 9.53858 7.00122 22
750 1 2.84088 15.5451 51.7912 22
751 1 25.9757 23.2505 63.171 19
752 1 16.3338 23.1744 19.5586 21
753 1 19.0713 8.7302 66.3802 21
754 1 13.4028 10.9269 15.3942 21
755 1 6.76867 34.1855 3.89155 22
756 1 3.93449 26.4843 33.6151 23
757 1 24.6062 1.56391 15.3799 20
758 1 5.98651 32.4816 24.3004 24
759 1 25.3909 5.55362 -4.09868 21
760 1 27.3022 3.766 7.15435 19
761 1 20.4495 13.9833 1.80164 23
762 1 15.6429 18.9617 4.22747 20
763 1 20.9399 11.9653 27.6773 19
764 1 5.31631 10.7558 66.8131 24
765 1 23.5427 16.2944 67.1009 21
766 1 8.8 23.4829 53.5384 19
767 1 17.32 2.95455 -2.71103 22
768 1 18.3217 16.3282 27.5182 22
769 1 28.5504 6.7474 63.5362 19
770 1 4.26081 30.3563 66.1712 21
771 1 21.8589 27.7925 37.9076 21
772 1 8.09935 6.28712 22.1448 20
773 1 23.8762 27.5833 23.3549 20
774 1 9.58268 19.8492 4.30424 20
775 1 28.6758 24.8779 11.4689 20
776 1 28.2523 23.8515 -1.53106 22
777 1 21.2467 7.14789 24.6654 19
778 1 24.5329 4.18198 56.9046 16
779 1 29.0491 29.2697 37.5944 21
780 1 19.7726 28.3111 14.1237 21
781 1 21.2025 32.728 67.2113 17
782 1 22.0405 34.2664 10.8105 23
783 1 12.7128 4.25798 31.5648 19
784 1 26.1824 16.8601 25.8139 21
785 1 12.7953 9.45859 -1.4868 20
786 1 27.7649 8.85984 47.2512 17
787 1 24.1677 2.50805 43.3449 19
788 1 24.6673 22.9635 25.8891 21
789 1 19.6482 11.1139 66.0084 21
790 1 26.3142 21.9375 14.4149 21
791 1 22.5269 10.5345 58.8051 20
792 1 27.5017 13.094 65.266 22
793 1 28.8257 2.78644 53.6862 22
794 1 20.1481 -0.381186 62.157 22
795 1 29.0274 4.88416 13.8849 19
796 1 9.98454 30.0918 27.8583 21
797 1 16.3229 12.5611 34.5534 21
798 1 5.74452 2.12373 32.1028 21
799 1 19.5569 10.0077 6.95739 20
800 1 21.2442 3.11731 31.5958 18
801 1 26.2925 26.4046 1.85688 21
802 1 9.6302 32.2545 25.6129 21
803 1 12.0809 -1.30036 28.0427 19
804 1 7.45726 33.5354 38.5681 21
805 1 26.7415 10.5615 31.4415 21
806 1 18.7824 28.3926 -2.28552 22
807 1 9.26306 34.0689 60.8555 20
808 1 19.4972 12.0551 10.8104 21
809 1 7.35658 34.9158 43.4731 21
810 1 20.2367 25.0218 26.5491 21
811 1 7.26818 16.1844 -0.561522 18
812 1 28.9712 32.6289 15.6912 21
813 1 24.0981 8.10289 25.7251 22
814 1 5.90858 0.627209 23.1514 19
815 1 16.854 19.433 6.70569 19
816 1 23.0251 28.828 8.0524 22
817 1 16.276 17.6838 64.6032 20
818 1 19.1805 8.40533 4.62359 18
819 1 21.0263 9.28473 -3.07358 25
820 1 27.4316 28.2291 51.7485 22
821 1 24.615 24.1626 28.864 21
822 1 2.8619 28.2043 61.2472 21
823 1 22.6991 7.91407 9.15456 19
824 1 22.7633 18.4994 7.78899 20
825 1 21.8571 0.588308 22.6631 23
826 1 19.6738 30.3973 50.1906 20
827 1 5.06988 7.05473 7.86076 20
828 1 3.73775 5.56029 16.8702 24
829 1 21.5349 5.2753 17.041 22
830 1 17.8688 13.0473 -0.109805 18
831 1 8.26283 27.5128 26.3244 20
832 1 25.4513 26.2769 52.0655 22
833 1 16.8397 4.73188 22.5051 16
834 1 11.0773 16.8857 54.094 18
835 1 9.29845 14.3525 54.8344 19
836 1 14.1417 29.9865 3.07787 21
837 1 9.87026 3.51285 58.0769 23
838 1 25.8891 7.34937 45.5164 24
839 1 15.8201 32.759 37.1181 21
840 1 3.02976 25.4628 65.6231 25
841 1 11.2939 11.1142 12.5482 21
842 1 27.1167 21.8158 17.1018 22
843 1 16.4222 33.2442 66.8138 21
844 1 26.1732 17.5088 -1.49118 20
845 1 4.57579 31.3301 21.2975 22
846 1 22.8405 29.5077 54.8083 22
847 1 23.1867 21.8231 13.4655 22
848 1 25.6199 15.0852 44.1018 19
849 1 9.30016 2.54675 10.5598 20
850 1 25.512 1.44158 27.8241 22
851 1 18.3822 14.4133 65.7592 20
852 1 4.06799 0.221989 33.6443 26
853 1 19.2145 1.7098 43.9298 23
854 1 26.2772 9.20002 17.1173 22
855 1 9.08635 4.91365 -3.63937 23
856 1 20.9049 15.269 24.6999 19
857 1 19.451 13.0047 20.2559 20
858 1 9.95453 12.9729 66.8086 20
859 1 22.4163 11.9532 -0.416494 22
860 1 27.1378 2.35453 49.4252 24
861 1 28.0614 27.563 34.7301 18
862 1 10.785 6.1997 10.5477 21
863 1 26.1698 22.1052 57.8678 22
864 1 7.59113 3.22209 22.5956 17
865 1 4.61966 19.5032 67.3717 22
866 1 19.5098 18.6696 20.3862 23
867 1 3.35454 0.274437 11.3646 19
868 1 13.1288 26.5843 40.5333 22
869 1 7.91945 32.3279 20.9499 22
870 1 3.01317 33.5984 62.9697 21
871 1 11.4299 4.18111 6.67462 18
872 1 17.2546 2.61887 62.7396 20
873 1 24.4278 30.756 18.3151 20
874 1 20.6573 35.5488 13.2544 20
875 1 26.4203 31.1082 32.8774 17
876 1 7.333 0.241222 37.8116 20
877 1 6.16499 13.8979 9.27781 19
878 1 23.5159 24.74 64.9499 18
879 1 10.7595 16.8971 59.6149 22
880 1 3.8577 12.8535 -0.442308 21
881 1 29.0681 26.076 31.4721 24
882 1 18.9278 20.7466 55.4249 21
883 1 29.1588 15.7624 43.1548 23
884 1 21.859 24.9431 3.23913 20
885 1 5.58767 5.9918 0.5308 21
886 1 25.5922 33.075 64.5546 20
887 1 24.0426 31.8924 46.5331 20
888 1 25.9614 8.86517 23.0723 21
889 1 22.2502 22.6427 54.8094 19
890 1 24.2577 15.6197 51.4899 21
891 1 21.5594 2.76783 64.6879 21
892 1 6.18903 1.00416 62.3266 22
893 1 23.2365 13.4925 14.5499 24
894 1 6.04243 31.5841 10.683 17
895 1 4.61957 -0.04871 -2.75557 22
896 1 26.0248 11.5422 2.3471 20
897 1 25.7948 7.20198 -1.63443 18
898 1 25.675 3.12103 1.90439 18
899 1 21.2881 10.6557 24.7697 23
900 1 18.9309 10.826 17.8739 23
901 2 25.9923 18.8121 18.8336 19
902 2 26.863 -0.273707 6.48817 20
903 2 4.32057 25.6394 12.892 20
904 2 26.6067 6.87959 11.2215 20
905 2 16.6947 30.0859 19.0871 18
906 2 21.7518 9.35468 54.3638 18
907 2 11.9585 18.7501 26.7051 23
908 2 15.328 18.1314 59.1277 20
909 2 27.161 2.73871 11.0357 17