ITEM: TIMESTEP
6000
ITEM: NUMBER OF ATOMS
1500
ITEM: BOX BOUNDS pp pp pp
-30.0 30.0
-30.0 30.0
-30.0 30.0
ITEM: ATOMS id type x y z Coordination
1 1 -4.75228 -11.7012 -10.1214 15
2 1 7.68514 -12.8407 7.08141 11
3 1 -8.60298 7.4809 -4.84745 17
4 1 -8.90912 2.53798 -7.83229 20
5 1 2.52745 -8.3611 11.9446 14
6 1 -6.47568 0.856551 -8.20471 19
7 1 -5.91277 -11.6519 1.54998 22
8 1 -12.1773 -10.135 2.61982 14
9 1 -2.37606 2.82652 14.5936 11
10 1 -3.62826 1.46508 12.2833 19
11 1 1.00297 12.1206 -8.50972 13
12 1 3.1338 -3.24654 12.3634 18
13 1 13.0757 5.98118 6.79364 12
14 1 -2.09926 12.808 -9.18781 14
15 1 5.42546 2.85843 -16.5512 9
16 1 -1.32449 -5.853 -8.59122 20
17 1 8.54006 -13.838 4.18006 10
18 1 8.74295 -13.5293 0.173422 15
19 1 -3.65884 -16.7427 -7.07176 12
20 1 2.51165 -7.75675 -12.1617 19
21 1 -2.87242 -0.507285 14.0337 17
22 1 3.70886 -9.88948 7.00744 19
23 1 7.11734 -8.56453 12.611 6
24 1 -14.8871 -7.80659 1.48072 14
25 1 -9.34129 -0.39591 -2.94185 21
26 1 -4.48936 10.1454 -2.46697 18
27 1 1.39148 -0.443891 -10.7648 20
28 1 4.43724 -10.2713 -11.3892 16
29 1 -2.78992 -6.74482 14.0526 15
30 1 -13.3269 6.91128 3.3903 10
31 1 0.12576 9.61275 9.78233 13
32 1 -12.1171 9.19986 -5.57573 9
33 1 -4.22182 16.0712 -1.64588 11
34 1 2.29761 -12.2551 4.54334 17
35 1 8.77874 -11.2787 -5.10968 17
36 1 -9.02227 -0.825319 11.0132 14
37 1 -12.9144 -2.35297 -9.50727 8
38 1 6.37316 -2.58304 6.17394 18
39 1 -9.2147 11.6301 -9.60736 5
40 1 -8.65915 -11.9721 6.47324 12
41 1 -11.2509 4.14971 -8.19365 12
42 1 2.80513 1.36703 7.98877 21
43 1 6.30237 -18.5098 0.314148 9
44 1 7.3913 4.20696 14.0633 11
45 1 11.8665 -3.25463 -9.55881 10
46 1 9.92002 -11.0603 3.59518 13
47 1 4.58126 -2.67963 15.0905 14
48 1 -5.26961 -12.3318 7.4048 14
49 1 -11.508 -2.5051 -0.0130784 20
50 1 11.5428 0.0325875 8.22565 15
51 1 9.09549 0.0789358 -6.82857 19
52 1 -1.8719 8.0651 12.4823 10
53 1 6.32251 -2.88657 10.7443 17
54 1 -3.92747 -5.21773 -9.97352 19
55 1 -10.2919 12.484 -1.90951 11
56 1 -1.23856 4.80372 -8.69099 17
57 1 8.11859 -5.28008 -6.57349 19
58 1 11.4225 -11.1742 0.1316 12
59 1 5.71638 -7.9711 6.33869 24
60 1 -3.57898 14.2451 -6.29297 15
61 1 -10.0068 15.2273 0.0117972 5
62 1 -5.84687 9.13355 4.62618 14
63 1 -6.41991 -6.76502 8.98682 20
64 1 10.9523 -9.08848 -6.71674 15
65 1 -12.4803 6.8283 0.401141 14
66 1 10.4809 -6.61897 1.66903 19
67 1 9.22042 2.39095 -9.35688 19
68 1 -4.10291 -6.2701 -16.4278 8
69 1 0.0665918 11.1112 1.87218 26
70 1 -6.75371 7.48222 -11.0841 12
71 1 -0.833052 6.98922 -9.79454 15
72 1 -0.0595605 8.59504 -0.157501 19
73 1 -4.92782 -8.94611 6.72102 21
74 1 -0.817297 -8.55298 -10.4557 22
75 1 1.31892 -5.50702 -10.5972 20
76 1 -2.51347 2.30705 8.98334 15
77 1 -13.2394 -10.1586 -3.06892 14
78 1 -8.16833 -13.659 -3.6218 20
79 1 12.2103 -9.06507 1.88126 14
80 1 -5.7175 7.14062 2.42826 18
81 1 6.74265 -0.302828 -15.3839 13
82 1 3.94737 10.6571 -7.52467 18
83 1 12.3317 -8.75848 -1.02702 17
84 1 -1.09901 -14.8585 1.46154 18
85 1 -5.32268 -9.48348 -0.508095 23
86 1 -12.0987 -5.26291 1.74341 19
87 1 10.9127 8.36622 5.62649 13
88 1 -5.4798 7.28831 7.76785 13
89 1 -4.41317 11.811 -5.11838 19
90 1 -1.48079 -6.59499 -12.0608 20
91 1 9.09451 -2.92473 11.6685 14
92 1 -3.70769 4.65371 -6.65879 21
93 1 11.8753 0.546038 -5.6926 17
94 1 -13.0938 5.85897 -5.83659 11
95 1 -7.43314 12.1186 -4.01251 16
96 1 8.41381 2.03745 -14.3664 15
97 1 11.0455 -8.63303 5.93785 13
98 1 -7.91861 2.1894 -4.4065 21
99 1 6.17388 11.9794 -0.0608934 15
100 1 9.98187 8.54025 -2.28906 16
101 1 -3.55151 8.18637 -5.24296 24
102 1 -0.877953 -6.88012 -15.3198 15
103 1 5.07783 12.6336 3.29791 12
104 1 -12.4433 -5.03007 -4.94676 18
105 1 16.758 -1.22017 -1.31963 15
106 1 -3.29786 8.07192 5.39321 20
107 1 -1.1166 13.2155 -6.1165 19
108 1 4.58222 -6.19013 14.7561 9
109 1 -9.68289 -6.2196 0.505341 19
110 1 1.27533 -11.6219 7.45712 19
111 1 2.39136 -14.7591 -6.74187 18
112 1 -1.44866 9.69619 -10.3712 13
113 1 7.23131 8.35298 -5.39071 16
114 1 0.0547272 -10.8226 11.3914 11
115 1 -9.70419 -0.75829 0.24231 19
116 1 1.46105 12.6535 3.76262 16
117 1 2.46139 3.51896 10.1884 19
118 1 -6.38449 14.7447 1.28718 8
119 1 -5.6788 2.59467 -6.45363 19
120 1 15.7227 -7.63702 -2.29383 11
121 1 -6.58329 -6.66174 5.42785 22
122 1 -15.2426 -5.24926 -0.235476 13
123 1 -6.33758 -13.7998 4.27231 14
124 1 -15.4091 -0.84587 -3.35185 8
125 1 -2.66876 -17.0996 2.93438 11
126 1 5.84735 -8.93491 -3.99133 20
127 1 -0.703234 8.28345 3.66523 20
128 1 -8.72715 -3.13252 -4.89337 22
129 1 -4.32266 6.77009 -8.89333 18
130 1 -12.2626 -5.0805 -8.57543 13
131 1 -8.50242 -3.9985 11.9297 13
132 1 0.419678 -8.23505 6.84946 21
133 1 5.45619 -15.5066 5.04674 15
134 1 14.3017 4.63659 4.47132 13
135 1 5.62806 2.83989 -7.4167 21
136 1 5.2963 0.785038 14.7617 11
137 1 -0.529257 6.77921 -12.5182 13
138 1 10.1547 -0.226262 -9.5377 16
139 1 -10.1957 -6.04684 -6.55308 19
140 1 -3.64595 10.0717 -7.60179 15
141 1 -6.64174 10.0744 -6.7049 17
142 1 8.47763 -3.85218 8.50021 20
143 1 -2.92514 -8.76367 -14.3083 13
144 1 -3.32687 7.47668 -11.745 14
145 1 4.4035 4.81931 -9.61691 16
146 1 -5.99225 1.74909 6.81319 19
147 1 -9.8967 4.04012 8.36137 11
148 1 -2.28276 -10.6225 -8.64884 18
149 1 -3.69743 -13.4495 2.32555 14
150 1 7.39862 -15.6756 -1.29258 11
151 1 7.63494 6.03715 -9.4304 17
152 1 -2.5006 7.99487 -2.1362 20
153 1 -12.4118 -0.308661 2.2574 20
154 1 4.86843 4.8712 8.79554 18
155 1 10.9306 3.96225 -6.56324 16
156 1 2.45433 4.31159 6.78266 18
157 1 -8.90961 1.57151 6.01733 23
158 1 -10.383 -9.01901 -4.63109 18
159 1 8.74735 4.24433 -12.7196 14
160 1 2.99227 -3.42113 8.60151 19
161 1 8.26748 8.47079 -11.2585 7
162 1 0.875358 -11.103 -2.25315 20
163 1 -3.83062 -0.136901 -10.0445 20
164 1 8.5437 -2.29922 -8.65253 17
165 1 -9.03169 -6.53579 7.01408 19
166 1 2.85344 -18.6056 -0.294377 10
167 1 -11.5204 -8.82485 -7.69803 15
168 1 5.57869 13.8934 -2.55538 14
169 1 2.35794 -2.65774 -12.6138 17
170 1 4.81103 3.78921 11.7956 17
171 1 14.0305 0.543123 -3.38151 20
172 1 11.3278 -8.75923 -9.67582 9
173 1 -6.75168 -2.86622 -10.2137 19
174 1 -9.38616 -6.30915 -10.0133 17
175 1 7.11443 -5.26007 13.6733 12
176 1 5.38516 -5.09148 7.80442 21
177 1 -4.17094 -8.27103 -11.5875 19
178 1 2.52875 -5.69478 6.4449 20
179 1 2.91324 7.74533 -12.53 10
180 1 9.65971 5.6334 -0.158329 21
181 1 -4.9435 -8.40607 2.71451 21
182 1 2.69152 7.81426 5.48044 20
183 1 -5.4765 -5.3724 11.8977 19
184 1 -7.26839 -11.7869 -9.13053 12
185 1 -7.01833 -4.81447 -8.10549 21
186 1 -3.83252 -13.6084 -7.70242 16
187 1 -2.92494 -10.6209 3.4622 20
188 1 11.9709 3.10788 3.34861 21
189 1 -11.9343 -8.37128 10.9533 7
190 1 -4.59402 -11.1186 -3.2509 22
191 1 -0.146807 -10.927 1.71856 20
192 1 0.994354 11.0178 -1.41227 22
193 1 4.77474 -3.14105 -16.3584 11
194 1 -4.17272 -5.74066 -13.0597 19
195 1 -0.0784601 -13.1737 -0.955832 20
196 1 -2.87517 -13.5595 -4.87751 16
197 1 -8.90609 1.6116 -13.2975 13
198 1 8.9167 2.70797 4.70155 22
199 1 -4.53412 -1.16592 -16.0615 12
200 1 -1.55908 7.13352 -6.9157 17
201 1 -5.86723 -3.92296 6.95984 19
202 1 -5.73249 15.2994 -4.61606 12
203 1 2.69537 10.5363 7.94719 18
204 1 11.3514 0.13602 5.14255 19
205 1 -9.25447 -0.918049 3.91325 19
206 1 -4.43749 -10.4295 13.6827 8
207 1 -8.61747 7.10353 3.31944 15
208 1 1.97009 -7.72365 -16.0607 9
209 1 2.76796 -11.6792 -0.324411 20
210 1 -1.09013 -1.18392 12.032 22
211 1 -12.0048 -6.8352 3.81423 18
212 1 15.9681 -3.98158 -1.50799 17
213 1 7.23933 -10.2813 -9.37311 18
214 1 5.18456 -17.4828 -2.60246 10
215 1 -9.44373 10.0653 -6.45879 12
216 1 9.71976 6.18914 7.97913 16
217 1 -8.83803 -3.54174 1.9499 22
218 1 5.48079 -15.0504 -3.98874 14
219 1 -2.92711 10.3874 2.63551 22
220 1 -3.70414 4.54231 6.91336 18
221 1 6.38392 -11.2646 9.20929 10
222 1 17.5521 -3.37299 1.19869 9
223 1 0.956811 4.11257 12.3999 18
224 1 -6.78425 -5.82383 -4.91348 18
225 1 -0.615009 -1.52874 15.5001 14
226 1 -1.6996 12.1629 4.53188 14
227 1 -6.27967 -0.114143 11.881 23
228 1 -11.2222 4.41485 2.46321 19
229 1 -4.21501 -5.8715 -6.68256 20
230 1 -5.23323 9.77233 0.105549 19
231 1 9.32722 -2.66186 4.39959 22
232 1 -7.42475 -14.8959 1.55546 12
233 1 8.29193 -9.49246 7.41662 13
234 1 -8.11467 9.62337 1.58064 15
235 1 -0.37231 -7.44167 11.4571 17
236 1 2.00397 -11.9606 -5.80003 17
237 1 -6.44632 1.7571 -11.5532 20
238 1 6.709 -5.94693 -14.7861 10
239 1 5.83046 11.1193 9.0066 10
240 1 -11.1005 -3.07179 -3.24044 20
241 1 5.36721 -8.18182 -16.948 5
242 1 -1.73198 -15.7967 -9.07614 12
243 1 -14.9791 -4.82399 -3.44768 14
244 1 -5.716 -13.8148 -0.763214 23
245 1 14.4739 3.8065 -1.63697 18
246 1 -2.59916 2.94113 -12.0438 17
247 1 -14.272 -2.63469 -5.66297 13
248 1 -6.48039 4.53075 2.38817 23
249 1 -7.47418 10.8305 -1.3873 18
250 1 -6.37864 4.1803 8.35249 17
251 1 9.5289 -3.7274 -3.70464 18
252 1 15.7416 -2.30492 -7.38073 9
253 1 0.0399771 -9.06957 -7.26953 21
254 1 -0.884599 5.63583 5.02906 20
255 1 -9.78705 0.34804 -5.52575 20
256 1 4.48983 -10.8525 -2.48702 18
257 1 12.2197 -1.91198 9.94412 12
258 1 -11.135 -2.4844 -6.83553 23
259 1 -8.09303 -9.00092 1.58981 23
260 1 -2.20769 10.5363 -0.207513 23
261 1 -10.7241 -11.9208 -5.62457 16
262 1 -15.0138 4.72285 0.622572 10
263 1 -1.69519 15.4476 -7.74944 8
264 1 3.3709 10.3013 10.7821 13
265 1 -14.1192 -7.90533 -5.3635 12
266 1 -3.06835 -8.2065 -8.58816 18
267 1 -11.2551 -3.24165 7.3171 17
268 1 -13.0706 6.86149 -2.61114 12
269 1 8.64962 -8.24174 4.08186 20
270 1 -2.63706 -18.0479 -0.291943 13
271 1 3.50363 5.04343 -13.6496 13
272 1 -12.997 2.62334 -5.99228 16
273 1 -0.105195 -11.0058 4.96799 20
274 1 11.8362 3.20026 6.80445 17
275 1 -2.84157 -2.93763 8.27902 21
276 1 -15.5442 2.02328 1.64626 13
277 1 -6.5897 -1.29789 5.5276 21
278 1 -3.10957 -13.4572 5.27606 14
279 1 7.6884 -14.1787 -6.68553 8
280 1 -14.1171 -2.10725 4.2637 13
281 1 -0.687108 -5.75642 8.76037 19
282 1 5.25053 -17.573 -6.54028 10
283 1 3.29377 -12.1225 -8.72512 15
284 1 -3.31467 -6.16455 10.7366 20
285 1 2.88504 -8.85432 -5.02723 21
286 1 -3.76242 -0.671521 -13.5403 17
287 1 6.32957 -15.7338 1.97454 16
288 1 5.06774 7.19527 -3.7654 19
289 1 -3.97602 -4.53059 15.2927 11
290 1 -10.0283 -9.0839 8.40448 14
291 1 8.52463 -5.82584 10.993 15
292 1 4.09453 -0.630051 -8.69945 18
293 1 7.70135 -4.88009 -0.677514 17
294 1 12.0171 8.48425 -4.38664 12
295 1 -0.0591347 1.30701 10.5454 21
296 1 -1.90883 10.8255 -3.65335 18
297 1 6.02354 -8.34078 2.50581 24
298 1 -2.62385 -14.9948 -1.58108 21
299 1 -2.13832 11.4558 7.71876 10
300 1 -6.18946 -13.8204 -6.56498 17
301 1 7.46658 4.40469 6.27822 20
302 1 -6.49763 -0.648525 8.7056 23
303 1 -6.05545 -8.86579 -3.45822 20
304 1 -11.4823 1.64887 7.37065 15
305 1 -9.93212 -14.9838 -5.65512 8
306 1 -6.83068 4.76653 5.82402 16
307 1 -4.12126 -14.4974 -10.9001 9
308 1 -0.641956 -9.65812 -12.9138 15
309 1 -9.83397 -11.0205 0.701968 19
310 1 -8.64246 -3.66758 5.46139 22
311 1 11.1952 -3.35545 6.74975 19
312 1 -5.60796 -8.03086 13.2029 11
313 1 -7.84438 4.19893 -15.2619 7
314 1 8.69317 2.60104 -1.52283 16
315 1 -7.49407 -16.3333 -2.24955 13
316 1 -2.01343 13.6265 2.19636 15
317 1 1.30925 4.89891 -6.2288 18
318 1 -0.115418 5.55857 14.6752 9
319 1 -14.0546 -2.88145 -1.58898 16
320 1 3.91395 12.5346 -5.35487 15
321 1 -8.19768 -8.80382 -7.70992 17
322 1 -0.322449 -16.1941 -5.99148 12
323 1 -0.573549 -3.83339 -13.1926 17
324 1 -11.1245 9.02971 2.04359 10
325 1 3.7411 4.42643 14.083 12
326 1 6.84969 6.24946 -2.64646 18
327 1 4.65716 4.93001 1.76683 21
328 1 -9.18426 8.78048 -9.29125 9
329 1 2.41584 2.47662 -8.30577 20
330 1 3.52427 -8.87014 4.35773 23
331 1 -15.0115 -7.83367 -2.32534 13
332 1 -1.80068 -3.65009 -16.8103 15
333 1 9.90865 5.52184 -3.33969 19
334 1 6.07483 -7.71045 -0.5309 21
335 1 17.6562 0.109853 -6.35076 7
336 1 -1.28895 0.223309 -12.1394 17
337 1 -2.05655 -7.8017 1.59176 20
338 1 2.33479 -14.8777 0.0789568 16
339 1 2.97147 -11.3916 10.1915 14
340 1 -7.78624 5.75863 -8.19313 16
341 1 -2.83063 -10.5515 -11.9217 19
342 1 3.47788 2.06115 -10.505 21
343 1 -0.481318 -4.02929 14.0308 19
344 1 -11.4072 -3.75556 3.90929 21
345 1 8.73294 -7.39684 -8.86889 18
346 1 11.3115 -1.38424 -3.88016 16
347 1 -7.318 4.81903 -3.9575 19
348 1 2.75346 -8.89946 -8.68193 18
349 1 5.63968 1.64465 -13.0925 18
350 1 12.9411 -3.37354 -5.68452 14
351 1 -3.61604 -0.934829 10.2909 21
352 1 2.96887 10.5626 3.80819 21
353 1 -1.44799 -0.391811 -15.7434 14
354 1 -7.3932 -9.56211 7.23711 20
355 1 -7.33424 14.3368 -1.7311 14
356 1 -6.93092 -7.4902 -13.4209 12
357 1 -14.6583 1.13539 4.68661 11
358 1 -3.11822 -10.4195 10.9793 14
359 1 3.53997 9.23329 -4.39564 20
360 1 16.2834 2.98256 -4.41093 12
361 1 -11.8767 -12.9264 0.995211 10
362 1 -1.70175 -11.8727 -2.33309 19
363 1 -11.8036 4.24322 5.77658 13
364 1 1.97072 -2.9932 -8.97631 19
365 1 8.05085 -9.03555 -2.1762 19
366 1 0.959619 10.9151 -5.052 20
367 1 6.23176 -10.635 0.167778 18
368 1 -9.46535 -1.20849 7.5372 23
369 1 5.53314 9.09244 5.82833 19
370 1 1.45441 1.32171 -16.5253 11
371 1 -5.60801 -8.75803 -6.32745 14
372 1 1.87702 -5.83202 11.0175 16
373 1 5.84017 8.17385 9.2541 17
374 1 6.46753 3.33889 -10.4686 17
375 1 -5.73274 7.01259 -6.21385 17
376 1 0.179232 13.6323 0.563121 15
377 1 10.2627 -6.50625 7.84155 12
378 1 10.4166 -2.65982 -6.64047 18
379 1 -14.1824 -10.351 0.0511189 11
380 1 -0.763913 -0.926547 8.72393 21
381 1 -0.626921 9.73284 -7.32586 22
382 1 2.6492 -17.1834 -5.22003 13
383 1 3.67316 -6.24263 -9.34456 15
384 1 -2.27708 15.4561 -4.10031 12
385 1 -6.25674 -10.4148 -12.5439 12
386 1 2.70576 -15.6177 5.68615 14
387 1 -12.2871 -5.45432 -1.53923 20
388 1 -11.8418 -6.81511 6.95297 15
389 1 4.46785 5.17832 -1.33831 19
390 1 9.08843 -7.96998 -5.18014 19
391 1 5.06452 -5.85066 11.0372 20
392 1 8.50911 2.86141 -5.22527 16
393 1 -7.30355 7.28051 0.276629 21
394 1 10.2691 -11.8079 -2.35887 13
395 1 5.99295 7.10354 14.0913 10
396 1 -2.68902 4.83204 -14.0877 11
397 1 3.81595 12.6312 6.13698 11
398 1 9.0163 -1.00329 -13.0741 12
399 1 0.873339 -0.806868 -14.0858 16
400 1 -4.98473 -16.9104 -2.49538 12
401 1 -7.76062 4.28368 -12.2814 12
402 1 13.7923 0.279524 -0.45431 18
403 1 13.5787 3.42584 -5.77166 17
404 1 5.7123 -13.258 -10.7121 11
405 1 4.69575 -9.81048 -6.56659 14
406 1 6.24531 10.4803 2.30028 15
407 1 -8.95914 1.81749 2.12591 22
408 1 13.7922 5.94673 -4.46928 13
409 1 16.3551 -1.61684 4.09622 12
410 1 10.4707 1.45715 -11.9009 12
411 1 10.0961 2.46253 11.7234 13
412 1 3.2631 -7.55712 8.88872 19
413 1 2.04079 -1.05383 13.6045 18
414 1 15.5839 -5.98993 -5.74285 11
415 1 10.8414 -1.2445 12.3967 8
416 1 -8.48456 -1.12728 -8.32774 18
417 1 17.5867 2.3172 -1.43264 8
418 1 10.5885 -6.45201 -2.31177 16
419 1 7.67087 -0.939177 14.1231 11
420 1 0.829244 6.55781 10.66 18
421 1 8.65728 -0.730988 6.15978 20
422 1 -6.19933 7.46436 -2.92049 22
423 1 6.49089 9.81312 -7.67418 14
424 1 11.0884 -5.86432 -9.99694 12
425 1 3.02081 15.5725 -1.05809 8
426 1 -0.0890697 -12.4017 -8.1716 15
427 1 -14.4438 4.51542 3.29939 11
428 1 -10.4544 -0.804485 -14.9226 7
429 1 -3.11385 -11.8572 0.163515 19
430 1 -8.76723 -4.58274 -12.7551 12
431 1 -13.8494 -0.473658 -7.1823 12
432 1 13.3799 -5.25834 -0.910135 16
433 1 13.2693 7.9951 3.47711 13
434 1 0.396922 -9.12772 9.6931 20
435 1 -9.97699 -3.39005 -9.82001 17
436 1 -0.149635 1.24491 13.7712 16
437 1 4.83161 8.88114 -10.4136 13
438 1 9.50525 7.93196 -7.43693 15
439 1 5.1791 -15.0426 -8.93313 9
440 1 13.6681 -0.434326 3.00097 21
441 1 11.2439 10.2842 2.95962 10
442 1 15.5421 -6.10072 1.16736 13
443 1 -5.15739 2.62107 10.0945 24
444 1 -11.8381 -8.24116 -0.0198599 21
445 1 -6.08576 -2.73604 -6.53267 21
446 1 7.97898 -0.4065 9.63266 20
447 1 -4.76786 -12.7324 11.6775 8
448 1 5.84261 1.67555 9.52891 19
449 1 -4.54758 12.6981 -0.123456 21
450 1 11.8668 3.25111 0.4194 20
451 1 7.91874 5.98501 3.30118 20
452 1 1.20931 -1.82279 -17.4693 12
453 1 -13.7779 -4.44199 5.93609 12
454 1 8.51014 -3.78806 -11.8707 12
455 1 9.34603 -11.4175 -8.25326 12
456 1 9.11494 1.80497 8.03944 19
457 1 6.19089 1.25111 6.44728 20
458 1 15.3526 3.64289 1.66292 12
459 1 1.88059 -4.12069 15.6867 12
460 1 -4.49552 6.42102 10.9507 11
461 1 1.52323 -4.39518 -17.2246 11
462 1 -6.19203 -2.74214 14.0311 13
463 1 5.01836 -0.318081 11.9029 19
464 1 12.4844 2.95229 -3.21064 18
465 1 5.35744 -12.5544 -4.85349 15
466 1 -5.63797 4.26959 -9.09707 23
467 1 2.311 7.17415 1.62354 19
468 1 8.88531 10.2894 0.104448 15
469 1 0.846977 14.3096 -3.96426 12
470 1 11.9538 9.57799 0.242694 10
471 1 -5.48613 -14.419 -4.09297 19
472 1 5.97798 -2.33292 -13.1393 19
473 1 -6.73636 13.0861 -7.25702 11
474 1 6.76225 -11.0142 -12.8203 11
475 1 10.5416 4.94116 -9.26054 14
476 1 12.2882 6.28912 -1.74858 18
477 1 -8.70472 2.27398 -1.01153 21
478 1 3.72322 4.49697 -6.04633 19
479 1 0.812753 -14.0219 9.87593 9
480 1 -4.96206 2.10656 -14.1639 15
481 1 1.68992 7.53713 13.8905 10
482 1 4.84574 -1.1988 8.64749 20
483 1 4.15645 15.4891 -4.00961 8
484 1 8.14244 8.69543 7.48768 13
485 1 11.901 -9.52921 -4.25022 15
486 1 -9.81159 -9.10043 5.16974 19
487 1 3.85234 -17.3039 2.91411 12
488 1 -0.850525 -2.38748 -10.5643 21
489 1 2.8226 7.39105 8.39637 19
490 1 -14.5069 -4.32702 2.47178 14
491 1 2.51473 -14.0251 -3.11825 20
492 1 7.65637 5.10942 -6.19442 20
493 1 4.52558 -4.67596 -13.7094 16
494 1 4.32433 -13.6187 7.92404 12
495 1 3.07972 12.7538 0.617017 18
496 1 -4.44853 -1.48857 16.2157 10
497 1 -8.20606 -9.46306 -10.5432 11
498 1 5.79375 -7.57727 -7.70345 15
499 1 -3.74819 9.78356 10.1714 10
500 1 2.48814 -17.6183 -8.13571 8
501 1 6.96787 -10.4623 4.8802 21
502 1 0.167486 -16.7184 -1.0785 14
503 1 -8.71601 -6.9827 10.6086 17
504 1 -7.03262 -16.7689 -5.90454 11
505 1 -12.1524 -1.07064 9.25146 9
506 1 17.4342 -5.55975 -3.23668 9
507 1 -8.45223 1.54476 9.47158 21
508 1 -9.3755 5.28913 0.795693 19
509 1 11.8549 -3.32765 2.9713 20
510 1 -1.32958 5.63411 -3.98092 21
511 1 16.7249 -3.1051 -4.96223 13
512 1 9.15315 10.6585 -5.44891 12
513 1 -11.4458 0.705446 -8.87548 14
514 1 -13.9078 -11.0574 -6.97714 8
515 1 6.0486 6.29598 -12.1279 16
516 1 0.0310862 -3.21063 10.3786 19
517 1 -3.74721 -5.94277 6.93355 20
518 1 1.48458 -5.30724 -14.0265 14
519 1 -6.53141 4.89545 -1.03509 21
520 1 8.27353 9.12857 4.17083 16
521 1 -8.78321 -6.45991 3.58512 21
522 1 6.475 4.90872 -15.2126 11
523 1 0.45378 -17.1275 1.96997 16
524 1 4.1198 7.36695 -7.43197 17
525 1 -4.79837 -3.46206 -14.8957 16
526 1 1.79938 -0.94063 10.127 20
527 1 2.62245 2.21582 -13.9725 20
528 1 -9.47752 -6.06959 -2.97494 21
529 1 8.44329 -1.91236 -1.66905 18
530 1 -8.86534 -8.24628 -1.52206 18
531 1 12.5759 6.81853 -7.64372 8
532 1 8.96549 -9.22887 1.04397 18
533 1 -7.84324 5.26986 11.2742 9
534 1 6.20754 -13.1562 3.0504 19
535 1 14.7233 -2.23968 -3.00436 15
536 1 12.9663 -6.21756 2.61965 17
537 1 -0.222486 8.16268 6.72781 17
538 1 -8.18314 2.2509 12.6451 12
539 1 -0.253355 -14.1166 6.92944 15
540 1 10.7791 0.415812 1.46669 22
541 1 8.39542 6.61146 11.5808 12
542 1 -15.5369 -1.30499 0.944202 10
543 1 13.9882 -11.0281 -1.44005 8
544 1 3.07109 9.98975 1.148 21
545 1 12.7917 2.0351 10.0386 9
546 1 0.755713 10.4368 5.58149 20
547 1 4.67006 -10.761 2.73192 19
548 1 -8.3119 -3.34401 -1.30489 24
549 1 2.76341 1.11712 11.9127 19
550 1 3.93982 10.5518 -2.20994 17
551 1 -9.15566 -12.0713 3.51713 16
552 1 13.907 -7.17466 4.99687 8
553 1 11.4118 -5.42387 4.98596 20
554 1 10.6535 5.61508 4.25599 23
555 1 0.707064 -10.5903 -10.6342 20
556 1 -6.77877 -0.266852 -14.5703 17
557 1 -2.73044 -3.66424 11.9617 20
558 1 -1.92111 13.5405 -1.92908 14
559 1 16.5407 1.57243 4.015 9
560 1 0.841668 8.54194 -3.49401 20
561 1 -5.91707 3.09859 13.4179 15
562 1 5.15424 7.74712 3.2419 19
563 1 8.26404 -7.88599 -12.2217 12
564 1 -5.43307 -16.9007 0.665463 13
565 1 -3.43561 -2.86056 -8.29766 21
566 1 13.7326 -1.4886 6.8429 14
567 1 5.88887 -3.64071 -10.204 15
568 1 -2.91796 -8.31987 -4.94143 20
569 1 16.4159 0.492073 1.2602 14
570 1 0.637993 -6.93692 14.2744 11
571 1 -1.8382 -13.1959 -11.7369 12
572 1 8.97461 12.7225 -2.64518 9
573 1 -11.3977 1.67045 3.85264 19
574 1 12.7425 1.65716 -8.98948 14
575 1 5.8557 -8.19867 -13.2547 15
576 1 -5.06797 12.538 3.77497 12
577 1 4.02007 -0.416951 -15.7509 18
578 1 7.41532 -5.93017 -3.62647 21
579 1 -12.5056 -0.917784 -4.1009 21
580 1 9.64544 8.00923 1.8488 19
581 1 -10.4119 -11.2712 -2.1386 18
582 1 8.04823 3.94031 9.81378 19
583 1 -10.4047 2.5637 -10.9422 11
584 1 -11.901 -0.832656 5.67591 20
585 1 -3.15732 2.20911 -9.05697 21
586 1 9.01052 -12.7334 -11.3656 7
587 1 -10.2353 -12.0647 -8.14819 12
588 1 13.6024 -8.43379 -7.61654 11
589 1 -12.5379 9.87905 -1.99802 8
590 1 -7.77196 -11.1322 -5.28492 21
591 1 -1.94123 -10.8961 7.08925 22
592 1 14.188 -3.41028 4.18673 16
593 1 9.06226 -2.44579 1.58775 21
594 1 -11.9423 2.74117 0.178141 19
595 1 4.20302 7.19787 11.6067 16
596 1 1.23457 7.90544 -7.0215 18
597 1 -4.41986 10.6178 6.60603 12
598 1 6.56539 12.494 -5.50165 12
599 1 6.3593 9.4594 11.6057 11
600 1 6.52125 -7.87622 9.43962 17
601 1 2.00498 10.7707 -10.9061 8
602 1 -11.412 -4.93671 10.1133 12
603 1 -3.55785 -2.97313 -11.5867 18
604 1 -13.4495 0.0355695 -0.559826 18
605 1 -2.40775 -13.1701 8.89993 11
606 1 8.44546 -5.21993 2.95337 22
607 1 0.0871608 -14.7293 -3.61742 17
608 1 -13.7054 4.11438 -2.75345 11
609 1 13.9421 -5.04731 -8.10941 12
610 1 -9.89426 8.63716 -1.20356 18
611 1 -8.44727 -3.74585 8.99664 21
612 1 -6.44872 -6.64977 -10.4556 18
613 1 -1.22464 -10.664 -5.11708 17
614 1 5.33079 -13.7 0.0339708 19
615 1 0.879801 4.32743 -11.5709 17
616 1 14.7943 0.808811 -6.47938 12
617 1 8.84318 2.48459 1.90994 20
618 1 12.1858 -2.45076 0.318091 15
619 1 0.618148 4.61165 -14.7219 11
620 1 -2.69204 -8.49254 8.67842 23
621 1 6.83053 9.31277 -2.23226 18
622 1 6.53081 0.54482 -8.83113 19
623 1 -11.3104 2.01053 -2.98393 19
624 1 -8.81474 -10.4173 10.1673 9
625 1 5.01656 5.7974 5.23369 16
626 1 -0.482056 -16.1738 5.253 10
627 1 3.55205 7.8322 -1.17177 23
628 1 -2.59306 4.72058 12.5116 15
629 1 -5.7 -3.02945 10.579 18
630 1 10.7374 0.648454 -1.66999 18
631 1 -5.64625 -9.09363 10.5175 20
632 1 3.0506 -14.3867 2.50109 19
633 1 6.97023 1.76399 11.9985 18
634 1 11.1791 -6.17442 -6.19521 20
635 1 -8.47214 -1.26655 -12.1584 16
636 1 -5.12944 5.2924 -12.6616 15
637 1 -9.52282 5.82289 -2.33065 17
638 1 6.58461 6.88656 0.0269243 19
639 1 -0.681115 5.05322 8.48988 16
640 1 -9.52904 -13.9034 -0.938523 13
641 1 -2.53236 7.54126 1.57361 20
642 1 10.9854 4.88058 9.73649 13
643 1 -2.2553 -8.71583 5.06079 19
644 1 6.13195 -6.25467 -11.0741 18
645 1 7.23134 -12.2861 -2.44806 20
646 1 4.17287 -0.397215 -11.8761 18
647 1 -7.71683 -2.84743 -16.1894 8
648 1 -7.17717 -11.6468 -1.95986 24
649 1 -10.1609 4.27565 -5.46055 19
650 1 -6.69351 0.171404 14.7734 12
651 1 8.09137 -5.33217 6.14 20
652 1 -6.71711 -9.91487 4.1263 20
653 1 14.8034 -2.58244 1.19351 22
654 1 -0.130769 1.96713 -10.379 18
655 1 13.0572 5.39853 1.63224 16
656 2 -8.53623 0.748109 -8.31347 18
657 2 -5.69159 11.2342 -3.66506 17
658 2 -0.856604 0.0555119 -14.0408 17
659 2 -6.899 3.90409 12.2869 13
660 2 -5.84779 -12.9658 -8.18412 12
661 2 2.71425 3.10685 12.0732 17
662 2 -13.5145 -12.2724 0.0870931 10
663 2 -11.9357 4.25103 -6.39178 13
664 2 3.22069 12.811 4.30137 13
665 2 -11.445 -0.167964 3.97365 22
666 2 7.6335 2.28119 3.09654 22
667 2 -12.0446 -11.5157 -7.43978 9
668 2 -8.68879 0.0130922 -1.18586 22
669 2 0.820763 -11.4638 3.38833 18
670 2 2.82922 -1.55911 8.56862 18
671 2 7.65621 -3.19489 -10.3108 17
672 2 3.46904 -15.789 3.97307 16
673 2 -3.8254 7.18495 3.73715 18
674 2 -12.4727 1.09211 -7.36473 16
675 2 10.4367 2.81977 5.7156 21
676 2 4.79071 -16.977 -4.77874 12
677 2 -7.9465 -14.6053 -0.138555 17
678 2 -12.8844 -5.98431 5.26241 15
679 2 -1.61928 -14.6592 5.76206 13
680 2 8.63698 -6.50558 4.70121 23
681 2 -0.597983 -15.1589 -1.79569 19
682 2 3.59819 0.454917 13.7237 16
683 2 -3.0295 14.0901 -8.01979 13
684 2 -8.88156 -11.914 -2.81446 19
685 2 -1.89525 1.15967 14.3506 13
686 2 -11.7519 7.75109 -1.3021 15
687 2 -4.9065 -0.0856205 15.0995 16
688 2 -4.87486 6.87203 -4.51871 21
689 2 4.11751 -13.5727 -3.77642 18
690 2 0.607361 5.51549 6.9399 18
691 2 -0.0271426 8.01607 -8.28634 18
692 2 4.84687 -8.12198 -5.55945 18
693 2 3.03541 -5.78312 -12.9977 18
694 2 8.21398 -3.18389 -6.95973 16
695 2 -3.68042 3.20956 13.1989 15
696 2 2.26873 0.410241 -15.1004 17
697 2 -0.873913 5.29021 -13.7631 14
698 2 6.94821 7.94073 -3.62264 18
699 2 -4.97057 -6.23212 13.7278 16
700 2 -12.6437 8.04842 1.77539 10
701 2 10.8089 -1.943 -8.65635 15
702 2 4.21798 -13.3467 -9.64722 11
703 2 -15.2713 -8.14109 -0.374612 11
704 2 10.2157 9.86784 1.27741 12
705 2 -2.55741 4.51283 5.13259 21
706 2 -3.72114 -10.189 -10.1723 17
707 2 -3.87465 10.6494 8.37271 11
708 2 4.7358 -10.9651 9.91609 13
709 2 10.7249 -8.52576 0.891307 20
710 2 -12.4907 1.66166 -1.32935 15
711 2 13.5743 -5.80706 0.927664 20
712 2 5.97863 -15.8865 -2.3958 15
713 2 8.68322 4.55246 4.51403 17
714 2 6.92449 -15.092 3.97205 14
715 2 16.8724 -2.69447 2.75017 13
716 2 -5.36066 -3.37815 15.701 10
717 2 14.6128 -6.69176 -7.28949 11
718 2 1.75826 1.69875 9.96824 19
719 2 12.6128 7.22118 5.28716 13
720 2 -8.12251 0.971847 11.2614 18
721 2 5.79074 5.81858 3.23665 21
722 2 14.999 -5.94695 -1.43048 13
723 2 2.51223 6.34883 -6.84721 14
724 2 -8.8408 -4.6483 -8.61389 21
725 2 -5.62624 -1.10139 10.3706 22
726 2 8.36992 -0.06878 -8.69406 18
727 2 -9.28362 2.83449 -2.90682 21
728 2 -13.7167 -0.448853 5.09881 13
729 2 -10.2454 -9.49556 -0.956048 19
730 2 15.4569 0.0457022 3.84661 14
731 2 -0.00202988 -5.82816 6.85925 16
732 2 -1.08265 -3.05249 12.1123 18
733 2 5.92587 -6.21448 -13.1505 17
734 2 11.3319 3.32991 10.5471 13
735 2 -2.22991 4.11851 8.20879 16
736 2 -9.25127 -0.298109 2.03483 21
737 2 4.77008 -9.04066 -8.53011 17
738 2 8.73198 7.77607 -9.38343 11
739 2 -5.32403 13.2253 2.11883 12
740 2 -3.65691 -10.7214 -1.36279 20
741 2 7.20287 -8.32683 -8.69988 18
742 2 1.55539 2.47265 6.82516 19
743 2 8.40914 -12.3616 -6.42769 12
744 2 5.31442 -3.02281 7.85579 20
745 2 -0.178526 -8.8391 5.0723 22
746 2 8.85104 0.161007 1.53393 20
747 2 -9.02478 -10.6603 4.7779 16
748 2 9.54459 2.75784 -13.005 12
749 2 -2.78076 -15.3097 2.32718 17
750 2 13.123 -8.80947 -9.5403 9
751 2 4.06153 -16.035 -7.80525 12
752 2 12.0848 -6.66335 -1.19972 14
753 2 -5.49612 10.9404 4.8678 12
754 2 17.2234 -4.93017 -5.52696 9
755 2 -6.89776 -10.0888 -6.98272 17
756 2 -8.02269 -10.864 1.619 16
757 2 -4.8188 -8.03205 0.813673 21
758 2 -6.73643 -8.16743 -1.77754 22
759 2 -2.91447 12.2379 2.84003 16
760 2 -10.7978 13.9515 -0.991523 6
761 2 10.5774 6.49967 -8.45676 13
762 2 6.13132 5.2964 -10.4517 17
763 2 -6.48714 -3.77192 12.2005 17
764 2 -7.87321 -2.82496 -13.6581 15
765 2 -11.0253 5.82854 1.16545 19
766 2 -3.29191 1.60688 10.4166 21
767 2 -9.82368 2.25728 8.05426 17
768 2 4.85666 10.7591 4.50975 20
769 2 14.3088 -3.34868 -7.19657 14
770 2 13.2527 -8.155 3.25291 14
771 2 -9.61842 -5.27474 11.0742 11
772 2 -0.638517 8.41765 1.73563 21
773 2 -7.0629 8.31763 -6.14205 17
774 2 -4.89769 8.49392 6.59459 14
775 2 14.0931 -5.26384 4.23198 13
776 2 -8.95793 -10.4429 -9.11726 12
777 2 4.66667 4.61017 -15.4767 13
778 2 14.0694 6.35437 3.1332 13
779 2 -10.7987 -8.34539 6.73826 14
780 2 0.0169036 7.59938 -1.92223 18
781 2 -5.21202 11.2799 -7.14428 16
782 2 2.28306 15.3445 -3.13938 10
783 2 10.6951 0.757161 12.1686 14
784 2 -3.96023 2.31972 6.80948 19
785 2 8.66988 -10.8845 -3.03704 16
786 2 -2.59775 -1.63512 15.8471 11
787 2 3.44242 -5.66944 7.95931 21
788 2 -10.9313 0.414894 -3.77832 19
789 2 -2.31025 -8.62908 -12.3279 21
790 2 1.39532 -16.5433 -7.2137 11
791 2 4.31592 -2.98097 -12.8087 18
792 2 16.5082 3.08795 -2.59622 12
793 2 -7.13035 -1.12366 13.4802 16
794 2 5.62517 -0.303407 -13.4056 18
795 2 -7.54316 -9.12664 10.4331 15
796 2 -2.677 -1.96963 -16.1693 13
797 2 1.7133 -15.4233 -4.67287 16
798 2 4.89193 -14.2143 1.93652 17
799 2 10.4611 9.99037 -4.54782 10
800 2 -6.04961 -2.09574 -16.0763 12
801 2 -0.274033 10.0387 7.50482 16
802 2 -8.61178 -5.48686 -1.28805 22
803 2 -6.7577 2.97888 -8.11042 19
804 2 2.55077 11.0166 -8.77582 15
805 2 2.77452 8.19937 -2.83698 20
806 2 -6.85706 -16.5449 1.87303 8
807 2 15.2277 -2.11065 5.48587 10
808 2 -0.30179 2.26359 12.3174 21
809 2 -6.15918 -16.3073 -4.18328 16
810 2 5.78019 -11.9265 -1.14828 20
811 2 -0.159354 -0.876136 13.5939 21
812 2 4.46671 11.8269 7.7655 12
813 2 12.5308 -4.85042 -9.53622 10
814 2 4.91843 1.51824 11.2451 21
815 2 7.92135 12.4739 -4.20539 11
816 2 -12.1073 -3.22973 8.93662 14
817 2 10.7689 -3.09878 1.49651 17
818 2 4.8733 11.8757 1.52078 13
819 2 5.75361 5.58525 7.07023 19
820 2 -4.69904 -5.53367 -14.8601 13
821 2 7.6282 -7.62754 11.0073 9
822 2 -8.00049 14.6523 0.132446 10
823 2 -0.116117 -10.0759 7.46495 16
824 2 10.3499 -9.41803 4.43774 17
825 2 -8.78627 -15.1108 -2.55755 15
826 2 -7.95176 12.2458 -8.36394 9
827 2 -4.44348 -9.69852 -13.1235 15
828 2 -1.8095 -16.6347 -7.23768 9
829 2 -0.556268 -0.252778 -10.3732 21
830 2 -6.53889 -10.9841 -10.6606 14
831 2 6.93296 7.19081 10.4731 18
832 2 -11.2221 -5.15067 -3.20841 19
833 2 -9.94152 2.69718 0.412979 19
834 2 8.47681 -5.79557 0.891358 20
835 2 -12.4737 5.07629 4.12277 12
836 2 -1.18931 -17.0778 0.731363 14
837 2 -7.32655 1.78077 14.1116 9
838 2 4.41993 2.81926 -8.97113 17
839 2 -3.77265 -2.10242 -9.95921 20
840 2 8.81259 4.343 -10.0809 15
841 2 17.271 0.583338 -0.54364 9
842 2 -6.22821 -4.66134 -9.94188 22
843 2 -10.5318 10.4272 -1.78427 10
844 2 -7.98495 11.1095 -5.57981 14
845 2 -3.96712 -4.07662 10.6629 18
846 2 -11.0108 -6.98348 -8.3879 12
847 2 2.11425 -4.87842 -9.0315 16
848 2 5.62771 -2.21529 -8.8591 16
849 2 7.10922 8.67039 2.63696 18
850 2 2.11513 -8.78303 7.79381 18
851 2 1.20044 -2.8477 -10.6541 16
852 2 9.14121 -1.34719 13.2551 11
853 2 8.19459 0.154444 -14.439 14
854 2 -1.13926 -8.64164 -5.44704 20
855 2 3.38767 9.46627 -11.631 9
856 2 5.26953 10.1487 10.2698 12
857 2 12.0929 0.550041 3.64125 17
858 2 -14.9504 -3.89448 4.34897 10
859 2 -15.1432 2.58831 3.6062 12
860 2 0.896741 -12.6384 5.98695 17
861 2 -0.577255 3.5424 -7.35611 20
862 2 -3.50389 -8.64894 3.73791 18
863 2 -5.88093 5.07796 4.26886 17
864 2 -10.7787 -5.25166 7.28088 18
865 2 3.50097 -10.6529 5.42347 18
866 2 -8.58918 9.74195 -0.213368 16
867 2 7.23493 -9.29885 -12.5155 15
868 2 -14.0081 -5.91816 1.55727 16
869 2 7.66864 -4.1878 12.0384 16