ITEM: TIMESTEP
99000
ITEM: NUMBER OF ATOMS
2880
ITEM: BOX BOUNDS pp pp pp
-1.0180366072 33.8180366072
-1.0596271271 35.1996271271
-0.9869989057 32.786998906
ITEM: ATOMS id type x y z Coordination
585 2 4.50145 3.89359 1.21364 18
2428 2 -0.628664 0.269065 4.63884 20
7 1 3.29163 2.09416 0.977861 16
44 1 0.901804 4.22237 0.4967 14
2294 1 3.8734 3.42937 5.2289 16
748 1 -0.0351175 1.45432 1.18709 14
212 2 -0.0600094 2.30644 3.09247 12
2499 2 1.02042 2.40709 -0.115539 16
747 1 3.465 -0.57673 -0.0623979 16
750 1 0.340666 1.84809 4.80717 15
1296 2 1.64236 -0.673719 -0.230992 16
1321 2 1.02709 0.198155 2.01236 15
398 1 -0.267169 2.95957 8.97486 15
1485 1 2.24033 0.254096 11.6694 14
55 1 1.13833 4.63447 6.5145 14
48 1 4.12505 1.10693 9.34038 19
184 2 1.42328 2.85516 5.96298 14
197 2 0.416766 4.45665 8.2417 19
971 2 2.84659 0.869994 8.10032 16
1700 2 -0.00356434 2.65756 10.7902 17
8 1 1.59997 1.80186 7.4503 15
2512 2 4.21159 0.17596 11.2927 19
1702 2 -0.306054 0.568382 8.00272 18
433 1 3.94849 3.9939 11.6754 21
541 2 2.87887 2.06037 11.8467 17
208 2 3.89596 4.84588 6.83111 19
1571 1 1.41813 3.0981 11.8395 15
27 1 3.51887 4.8275 8.84155 19
2300 1 -0.927913 -0.799716 9.46291 15
120 1 3.37257 2.57828 14.0478 18
365 1 0.815524 1.37064 18.7042 15
1132 1 1.43825 1.29684 15.5844 13
1786 2 2.45033 1.41712 17.8254 14
213 2 0.105918 1.40433 16.8338 17
517 1 -0.613367 4.67267 18.9638 20
195 2 2.33225 3.8279 13.4863 20
1368 2 4.75599 4.1345 18.0419 20
377 1 1.25573 3.86258 16.3536 19
214 2 2.95073 0.711992 14.4138 17
232 2 4.53846 4.17576 15.0855 19
733 1 4.53515 0.786042 13.2614 21
43 1 3.98432 0.0776761 16.1646 15
560 2 4.09632 3.88931 25.6762 12
1074 2 3.44306 1.21425 24.461 17
2093 2 -0.0031914 3.11878 19.1555 17
431 1 3.13759 3.11361 23.3865 17
401 1 2.86422 3.12769 19.5669 16
1007 2 4.09496 1.23632 20.1174 18
226 2 0.870881 -0.805221 23.8468 15
400 1 4.23638 -0.791134 20.8878 17
1141 1 -0.470651 3.1619 23.6071 17
371 1 0.817936 -0.309902 21.8872 15
1862 1 0.683869 3.06899 21.0534 19
2151 2 2.42626 4.42892 20.9665 15
2126 2 0.559966 -0.197857 19.5658 17
366 1 2.58738 -0.663616 24.8091 14
1331 2 0.0990485 4.72314 23.262 19
3 1 2.30321 2.02519 26.0988 17
402 1 1.07037 0.913991 28.9064 16
110 1 2.91442 -1.2924 28.1749 17
1382 2 -0.300476 2.18926 30.5371 15
2157 2 4.08129 3.62731 29.8294 13
1954 1 1.02077 3.49444 31.1745 14
1184 1 -0.701965 3.1707 27.1561 19
2659 1 3.38967 2.19148 30.9842 16
193 2 -0.170293 -0.0279665 27.9915 18
1563 1 4.29512 4.41974 31.3907 15
1314 2 2.60473 0.318086 30.7962 17
1315 2 2.29344 0.736361 27.3998 14
372 1 1.03538 0.369807 32.0883 17
1326 2 3.58427 2.53636 32.7508 17
2146 2 -0.028719 4.85996 31.9529 14
2141 2 1.18146 3.66224 26.7508 16
477 1 4.1847 3.54214 27.6249 17
669 2 1.41023 9.78016 1.47056 19
86 1 1.83522 9.622 3.50292 13
1931 1 -0.945079 11.0152 2.15875 17
546 2 1.76918 6.10583 0.545921 12
211 2 4.89667 7.33805 1.23725 16
444 1 4.05461 5.78777 0.308762 16
2514 2 -0.712829 5.80651 1.18802 15
244 2 2.29616 10.5972 5.07466 15
566 2 0.621378 7.90847 4.05851 12
17 1 -0.231536 9.68176 -0.233555 17
1600 1 0.530813 7.06237 2.35932 14
87 1 4.43264 6.43697 3.38863 16
393 1 2.88655 10.6727 0.11512 18
63 1 -0.0553452 7.47716 5.63694 18
2109 2 4.1221 10.5554 1.40502 17
645 2 0.713139 8.09784 -0.871098 16
15 1 0.189048 6.43887 -0.532359 14
199 2 1.46104 6.59942 6.60496 15
731 1 1.99607 8.81978 12.4751 13
231 2 2.877 5.0785 10.4471 17
675 2 -0.708254 5.74087 11.5408 20
279 2 0.895076 7.55522 10.0365 16
96 1 0.344686 8.8217 8.65938 14
1979 1 1.2777 6.21989 10.9177 19
1615 1 4.58063 7.04421 11.5072 17
270 2 1.95206 10.2246 8.76133 15
106 1 4.07625 9.21336 8.82393 16
255 2 4.17254 7.30804 8.28564 18
122 1 3.2718 6.66118 6.85198 16
2778 2 0.07071 9.69079 6.46499 16
1589 1 1.70663 10.8442 6.56699 16
53 1 3.93258 11.0121 6.22422 14
414 1 0.421812 9.11996 15.1102 20
363 1 1.00421 6.66599 16.7763 16
186 2 -0.154493 8.39591 17.4145 18
23 1 1.05131 6.12122 13.863 15
447 1 1.55166 9.02402 18.6777 18
608 2 2.6636 6.80478 13.0338 18
1938 1 -0.623798 10.7859 17.0207 19
440 1 3.70911 5.96182 15.1116 20
590 2 1.08352 10.2691 13.9302 14
278 2 1.33522 10.0796 16.6168 19
237 2 1.90967 5.9099 15.3748 13
1641 2 -0.172368 7.86224 14.0399 16
1409 2 3.66139 9.70251 18.166 17
803 1 3.19998 10.2849 16.3978 20
559 2 3.39594 9.83123 12.6982 13
632 2 3.07721 7.25477 16.8939 20
1182 1 4.63451 5.55192 18.9336 15
6 1 -1.07379 8.01551 19.2762 19
2068 2 0.302863 5.25159 17.3124 16
437 1 2.28616 6.07961 21.6549 18
1750 2 -0.445567 8.15141 22.8728 18
555 2 1.46978 7.31069 20.8025 17
523 1 1.49586 8.72532 23.8727 17
2112 2 1.82297 10.164 22.3662 16
1943 1 0.724705 8.71994 21.3745 17
583 2 0.593094 6.83708 24.4769 20
381 1 -0.247595 6.11554 21.8555 20
10 1 4.06332 9.01988 21.8826 18
2104 2 0.48887 10.0962 19.3706 13
369 1 -0.755579 5.92936 25.4569 20
190 2 3.51618 7.62624 23.0948 14
2846 2 -0.702926 10.7644 28.9842 17
217 2 1.41585 10.7179 31.6576 16
123 1 1.45836 8.90175 31.3683 19
235 2 1.51348 6.84512 27.3485 15
630 2 4.26672 9.39624 26.9325 13
2142 2 3.14558 9.42813 29.6028 16
383 1 2.56625 9.09409 27.7488 17
618 2 3.27538 6.3407 29.3901 13
416 1 4.30535 7.32854 27.4497 16
489 1 2.44344 4.95099 26.3232 15
405 1 0.286496 6.45376 28.9937 17
391 1 0.622895 7.83167 26.0267 17
492 1 4.31243 7.33071 30.5855 15
592 2 1.47964 9.64896 26.2278 17
26 1 1.94466 16.6528 5.19997 17
2088 2 0.116073 14.0759 -0.28583 15
101 1 1.85312 14.7021 2.82269 18
465 1 4.21592 14.189 0.883953 17
258 2 3.37885 13.3908 2.47675 17
2449 2 -0.8204 12.6563 2.79375 15
67 1 -0.106863 13.4932 5.02606 20
837 1 4.01339 16.6621 2.71453 18
2145 2 0.810376 15.2012 4.48334 17
2075 2 2.17043 16.4698 1.75383 17
1729 2 3.3543 12.4842 0.123123 17
233 2 -0.0905596 17.0049 10.92 15
798 1 4.24025 16.5735 12.7887 19
373 1 0.484546 15.2672 9.60546 16
50 1 1.39256 16.4911 12.5101 17
282 2 2.9454 15.4259 9.62437 15
30 1 2.87296 13.9556 11.0636 14
9 1 0.494942 11.705 9.62946 14
1790 2 0.564542 13.3508 8.41494 19
2311 1 2.46353 13.4305 6.08781 14
916 2 3.14527 15.3834 6.15807 16
2505 2 0.993925 14.0032 10.8077 15
855 1 3.08076 16.2443 8.18632 14
204 2 4.42074 12.6476 6.60564 12
1753 2 0.76016 12.6202 6.23545 17
209 2 -0.695695 11.549 11.4737 14
974 2 3.00313 15.3742 12.2673 14
960 2 1.03273 13.6012 18.7613 16
1613 1 -0.546823 14.6352 18.2029 14
2421 2 3.20276 12.1565 16.9901 18
323 2 0.766594 12.6011 14.7046 15
388 1 2.33025 11.4915 13.3944 16
210 2 0.330313 15.0375 16.0025 16
767 1 1.88598 13.5986 16.7234 17
90 1 0.395668 14.2818 14.1774 16
2429 2 1.12321 17.0247 17.7135 16
103 1 -0.760555 11.9496 13.3745 16
141 1 4.95408 13.2676 17.3009 14
1778 2 -0.257765 16.211 13.7705 17
1131 1 2.55549 16.0226 18.894 21
69 1 -0.279802 16.6411 24.2704 20
983 2 0.344999 16.4257 22.2738 15
2674 1 2.95432 16.7403 22.4938 17
497 1 4.21976 13.8933 24.1372 17
710 2 2.39222 12.3338 20.5441 18
2156 2 2.9449 15.2926 21.1387 17
380 1 2.78954 11.9851 22.3808 17
382 1 0.320001 11.2671 24.1333 15
1090 1 3.99997 13.5656 20.3287 20
420 1 3.24932 16.9556 26.0116 20
362 1 0.926018 14.9377 21.2007 17
484 1 0.660735 12.0535 19.7749 17
2113 2 1.68731 12.4521 24.1934 16
612 2 4.2437 11.9064 23.882 21
2152 2 -0.80423 15.6411 20.3019 18
1277 2 -0.836174 14.2938 24.8816 19
1944 1 1.30491 14.0026 25.2526 18
267 2 4.80688 11.4948 31.4712 16
573 2 0.11529 15.4043 28.5938 16
384 1 0.954452 12.5503 32.4756 15
772 1 1.47221 16.6377 27.8912 14
316 2 0.563408 13.2403 30.7515 15
419 1 3.26465 11.3204 30.3156 18
1091 1 3.66624 13.812 28.2563 15
219 2 2.04079 14.8635 26.8644 16
1286 2 3.04871 11.7835 28.5189 17
1907 1 -0.775098 14.1812 29.6654 17
1966 1 0.864629 11.3531 27.8014 19
2637 1 3.54507 11.3121 25.8669 19
2271 1 -0.759978 16.7668 29.8859 16
1576 1 -0.604096 11.856 30.3634 18
563 2 4.38698 16.7721 32.6953 18
1755 2 4.63548 13.5275 26.0535 18
307 2 1.07185 20.5634 1.98344 15
2305 1 0.0772487 19.3128 5.6071 17
997 2 1.92636 19.5174 5.78794 17
2290 1 -0.319098 22.5843 4.50094 19
911 2 1.04906 18.0715 -0.12179 13
1199 1 0.167485 17.575 1.57659 15
904 2 3.4483 21.1179 3.7901 19
647 2 4.56859 20.2988 -0.0100264 16
2829 2 3.22184 17.7079 4.43978 19
796 1 3.33447 23.2267 1.84615 19
1968 1 2.25817 19.2714 3.55379 18
2810 2 0.145311 18.7485 3.24062 15
29 1 2.23336 20.4515 0.298982 17
1139 1 -0.561969 21.5644 -0.0373666 17
2278 1 2.76657 22.0973 5.20954 17
1609 1 3.05945 17.4194 0.154336 19
64 1 2.92459 19.2006 10.5611 19
989 2 3.12065 20.4586 12.0095 18
1791 2 3.08752 22.0096 7.08149 14
277 2 -0.783895 19.861 7.74898 17
2851 2 0.813277 22.0806 12.3312 20
949 2 3.88685 18.1283 11.6062 17
736 1 4.16414 18.5039 5.86965 19
65 1 4.0557 22.3061 11.3599 18
1789 2 3.83116 17.9999 7.85667 14
725 1 0.575437 21.6033 10.6914 19
1617 1 4.57054 20.8205 7.53511 20
978 2 1.94169 22.4589 9.26145 16
2168 1 1.03732 20.9795 7.62233 16
2310 1 -0.651193 17.0779 7.90089 18
2244 1 -0.813459 22.86 8.22454 18
1041 2 3.08539 19.24 17.4605 18
386 1 4.3211 19.3288 13.3442 18
2825 2 -0.104253 22.1879 17.5766 21
852 1 4.2241 21.2987 18.2278 17
2314 1 0.0750297 18.5397 13.6044 19
108 1 3.14631 18.3955 15.6515 18
2459 2 3.2478 20.2755 14.659 18
956 2 1.76346 17.856 14.5869 21
2496 2 -0.910818 19.3922 16.8367 18
422 1 -0.696943 17.2769 18.9761 21
765 1 0.835375 20.5361 16.858 22
917 2 0.565266 20.1713 14.386 16
2321 1 2.00597 21.3196 13.4284 18
2279 1 1.81549 19.0593 18.7613 18
1019 2 2.8317 22.8192 17.1261 16
1575 1 0.324225 17.2584 16.3596 18
591 2 1.88696 20.2008 22.5578 19
389 1 3.49191 19.3392 24.7596 23
2816 2 1.03026 19.5419 24.9183 20
1170 1 1.77328 21.0818 20.7701 16
766 1 3.64114 19.1044 21.2682 20
2465 2 0.511379 19.643 20.3075 21
941 2 3.4284 20.416 19.8818 19
1972 1 -0.258401 18.3201 21.5347 22
763 1 0.420938 20.7028 23.517 21
977 2 1.50202 22.8599 20.9322 17
1053 2 4.46228 20.682 23.6078 18
1346 2 1.64689 22.7196 24.1983 25
1470 1 2.94217 22.8668 25.7776 19
641 2 3.53515 17.6105 19.7588 16
2845 2 -0.608518 21.8721 21.2391 22
1310 2 2.75529 17.9441 24.0142 19
2166 1 2.61329 19.5664 27.9705 20
133 1 4.69402 19.8633 31.9774 18
576 2 1.06312 20.4342 27.0268 20
1344 2 0.731729 18.544 29.4616 16
595 2 3.21238 17.7797 27.8735 17
1926 1 -0.14001 20.4821 28.8694 18
1304 2 2.63121 22.8276 28.0041 18
280 2 -0.386233 20.6459 31.8453 17
462 1 3.57299 17.655 30.5458 15
743 1 0.681748 22.5006 27.3353 21
1124 1 0.0752293 18.7461 26.3142 22
940 2 2.69458 19.1502 31.8835 15
2307 1 0.973865 19.1232 31.5674 14
2754 2 -0.61504 22.4274 29.0081 17
2153 2 1.21792 17.3665 26.0532 18
486 1 4.50848 22.2674 27.789 17
1302 2 1.68655 23.6824 0.16449 17
2841 2 1.91521 28.8941 1.24753 17
1289 2 0.349629 26.577 2.21159 21
1260 1 2.1032 26.3705 0.969365 20
902 2 3.46252 27.7803 3.62498 22
820 1 0.718134 25.4204 4.23411 19
2187 1 -0.52927 28.1016 1.97777 17
1325 2 4.52201 24.8792 3.2822 17
2865 2 0.725357 23.4128 2.8565 17
1303 2 4.08874 26.91 1.11371 20
2164 1 -0.330428 24.3446 1.28103 20
830 1 3.72375 26.114 4.69172 17
1340 2 4.34834 24.6193 -0.985106 19
1175 1 3.98978 28.135 -0.294452 22
2485 2 -0.228459 27.5467 4.98659 18
137 1 1.79052 28.023 5.2364 20
2867 2 1.58744 26.3731 -0.923863 19
2287 1 4.49073 28.6166 2.47139 23
2517 2 2.00658 24.9 8.62344 18
726 1 2.69226 26.9013 8.73417 18
907 2 0.611377 27.4046 9.02221 19
1773 2 3.54381 28.2019 11.0395 16
1177 1 2.22647 24.8222 10.3684 17
1059 2 1.83418 26.3997 5.90641 19
227 2 2.54066 27.9855 7.10608 21
2289 1 1.86637 27.4745 11.6539 18
1554 1 0.489836 25.5034 7.0957 18
925 2 1.00999 25.5907 11.6235 18
247 2 -1.10604 24.2165 6.77156 19
738 1 2.98752 24.2284 7.28634 19
926 2 2.52153 28.998 9.34613 16
1022 2 4.50393 25.4223 7.83783 15
751 1 1.12293 28.7703 7.7662 19
1071 2 3.44085 24.2307 11.6441 15
2508 2 1.29013 23.374 5.7556 18
1093 1 2.84835 25.2549 13.7219 17
1353 2 2.99516 27.9479 17.7197 18
1354 2 2.81584 27.8477 13.4131 14
1808 1 4.18677 27.1255 16.0757 18
1268 2 2.84132 25.9102 15.2717 17
778 1 3.03472 25.9155 18.4291 20
2507 2 0.86513 25.8837 17.9802 17
1129 1 0.833368 24.115 16.2034 18
2836 2 0.360628 28.0364 15.3204 16
1083 1 0.868506 23.0306 19.0195 21
1206 1 3.87799 23.2075 15.8204 16
920 2 0.99839 24.3403 14.4885 19
876 1 1.59149 27.1928 16.2899 16
2641 1 -1.03511 26.4994 14.4529 15
2316 1 0.374641 23.9939 12.7977 19
1005 2 -4.35774e-04 24.8129 19.8742 19
614 2 2.7065 27.7142 22.4629 18
1333 2 2.55684 26.1578 24.909 20
2610 1 1.51414 25.5458 21.4937 21
215 2 0.204468 28.8193 24.4757 21
425 1 0.297526 22.9808 22.4147 19
1284 2 -0.823558 25.452 25.5412 22
424 1 2.38197 24.6566 23.7861 19
1098 1 1.17484 28.4603 21.2947 20
947 2 0.355242 25.0447 22.9187 19
2788 2 3.10054 25.703 20.2771 21
1232 1 4.14427 26.8327 23.9185 19
1153 1 4.50204 26.8247 21.0302 18
1275 2 -0.60402 27.1352 21.6419 17
1135 1 0.216059 26.7051 23.5705 19
1138 1 2.02839 28.9502 24.1392 19
2718 2 4.0177 24.1211 25.0708 18
1264 2 0.852392 28.4648 19.4284 21
1356 2 3.0729 29.144 25.7008 20
768 1 -0.858013 24.0707 24.3198 22
2315 1 -0.382894 27.0863 19.5104 17
1087 1 0.954935 23.206 30.1338 17
2114 2 -0.217739 28.0957 27.9308 15
976 2 -0.214435 23.7021 31.5442 18
2697 1 3.20555 23.3201 32.7806 17
1281 2 2.0526 25.928 27.6782 19
1211 1 3.67146 27.2235 26.4173 21
1127 1 2.24855 25.4611 31.3206 20
2687 1 -0.758105 27.2957 29.4329 18
2675 1 1.95638 27.7182 28.768 19
2868 2 3.56731 28.6408 28.1054 17
1267 2 3.60542 26.6505 30.2623 19
1376 2 2.80658 23.0928 30.7931 17
1046 2 0.71422 26.1903 30.2351 17
794 1 1.86452 28.5924 32.0759 17
805 1 2.9288 24.5376 28.9511 15
1113 1 0.808713 29.0152 26.2647 21
1172 1 0.8893 25.788 26.1761 23
724 1 -0.162517 25.5238 32.24 16
2338 1 4.84469 31.2148 -0.398349 16
81 1 0.869094 34.2168 0.650175 17
1390 2 1.16084 32.4133 0.667057 15
782 1 2.91395 32.6015 2.12372 19
2251 1 2.06551 30.7817 0.504046 14
2878 2 -0.741499 29.8559 3.08244 21
39 1 0.987469 34.799 4.51649 12
913 2 2.27602 30.2711 5.20608 21
1705 2 3.18786 30.873 2.62904 18
181 2 2.82822 33.8549 3.60924 15
919 2 0.133036 33.6376 2.58037 14
2688 1 1.53086 30.0551 3.41226 18
83 1 4.42161 34.8937 4.25773 12
892 1 4.15566 30.6028 4.54949 20
944 2 3.37548 29.9675 -0.656514 17
784 1 -0.212731 31.6074 2.21261 16
1772 2 4.45703 32.2256 1.10554 17
236 2 2.44166 31.9676 10.3604 17
959 2 -0.0776732 31.3063 11.1536 19
785 1 1.26203 33.1488 11.5189 16
2320 1 2.03645 30.0625 10.6913 18
185 2 0.693198 34.0332 9.67347 15
1179 1 3.70711 33.582 9.09945 19
1784 2 1.05301 30.9875 7.69454 20
2292 1 1.66208 31.8109 6.00326 15
2436 2 1.63794 33.9272 6.31567 16
832 1 1.37593 32.1016 8.96344 16
932 2 2.40796 34.5908 11.3831 15
774 1 3.82675 29.8147 7.61545 21
202 2 3.61947 32.021 7.79595 17
861 1 4.11338 34.5489 12.0156 18
1473 1 0.575918 35.1898 7.94133 14
792 1 2.45714 32.2457 14.6803 14
84 1 3.79514 29.3603 12.8826 16
1144 1 2.31864 29.783 18.0317 17
2678 1 0.367484 30.3894 13.2258 19
1985 2 0.278931 31.2029 17.4244 18
1165 1 -0.056085 29.8115 16.2704 17
1322 2 2.34023 31.2439 16.1808 18
1108 1 2.16062 32.8492 17.4676 15
2503 2 0.067883 32.2014 14.105 15
1351 2 0.450418 34.1367 16.4784 14
275 2 3.97528 34.3364 16.0797 15
744 1 -0.963813 33.0434 15.4777 15
995 2 2.49437 33.8294 18.7128 18
259 2 2.51718 30.8677 12.9988 15
2840 2 0.682888 33.0748 20.7884 21
734 1 -0.507634 31.3079 24.9532 16
1285 2 2.57525 35.2684 21.4463 17
1411 2 3.20711 30.8172 19.2855 20
757 1 2.89213 32.6109 23.0555 17
409 1 0.866339 34.2825 19.3451 17
439 1 0.396977 31.9005 22.1453 19
987 2 1.61897 30.2983 21.8967 21
1342 2 1.54829 31.6773 23.8847 16
1105 1 3.52017 29.5907 21.8657 20
1035 2 4.29223 31.5306 22.4157 18
47 1 3.66303 32.0656 20.4396 23
790 1 0.225005 31.6012 19.5947 18
1110 1 -0.970821 34.4571 23.5278 19
1294 2 1.99449 29.4648 30.3892 16
1397 2 0.269243 33.807 28.1718 16
1427 2 0.526873 31.0336 27.3926 20
615 2 -0.383542 35.089 31.7069 17
1345 2 -0.475851 31.7934 30.301 14
587 2 4.81586 34.8659 32.6322 11
2683 1 4.3066 29.9018 26.9186 17
1115 1 0.619094 33.6861 30.0495 18
2 1 -0.743951 30.1213 29.0413 17
1173 1 1.97725 32.2745 27.161 14
2223 1 3.46096 34.87 31.3776 10
1367 2 2.35288 32.917 28.8839 11
1212 1 1.65892 31.2978 29.7176 12
719 2 4.62871 31.8982 27.2164 16
51 1 -0.515882 34.9697 26.6052 19
1147 1 7.6327 1.50767 1.14423 23
2856 2 6.28948 -0.898216 3.04279 14
254 2 8.41882 3.12922 2.02435 18
542 2 6.97998 1.54473 3.22902 20
549 2 7.12598 4.17729 -0.21417 22
45 1 8.28938 -0.902298 3.25647 14
205 2 9.36547 0.589268 2.30178 17
849 1 7.62318 1.87485 4.87053 19
408 1 9.87914 0.831954 5.67581 20
80 1 5.1909 0.74718 2.88872 16
1446 1 10.2765 2.72796 1.66091 22
73 1 5.96918 3.96277 2.54755 19
49 1 5.44645 2.87122 -0.111782 20
1362 2 4.94697 0.793843 0.992149 14
1317 2 7.6577 -0.308058 5.47164 19
329 2 9.42022 2.53159 5.07965 19
272 2 10.121 4.37399 0.500588 21
1800 2 4.9315 4.50938 3.88128 16
89 1 8.09372 4.02105 5.69345 21
1591 1 6.04586 1.1772 11.101 19
824 1 9.34462 1.6495 10.5958 15
761 1 9.81426 -0.661549 8.20112 20
966 2 7.72576 1.23646 12.009 20
503 1 7.19037 3.2547 11.0652 16
2464 2 8.25168 0.276479 7.6005 19
128 1 6.34606 0.95288 7.37057 18
1782 2 6.73016 3.20443 6.58151 18
91 1 6.64768 3.60247 8.36109 17
1006 2 5.79387 0.269538 9.25589 18
1008 2 5.31042 2.67182 9.78867 17
598 2 5.31672 0.566158 5.79243 16
276 2 6.868 4.88581 9.81678 18
92 1 8.5086 2.01691 13.4318 18
1447 1 7.70684 0.429266 15.6768 19
58 1 9.62537 2.86614 16.3184 17
460 1 7.88473 2.24486 18.3791 20
1013 2 7.95646 3.45996 14.2753 16
1245 1 5.21447 0.500378 18.4472 18
298 2 9.39611 1.21635 14.8024 18
656 2 9.25452 0.636375 17.0554 16
2656 1 5.24878 3.10941 16.3743 20
70 1 9.71111 4.87804 18.8925 18
240 2 8.68698 3.90757 17.7482 19
221 2 6.43384 1.3827 16.8856 19
649 2 6.1731 -0.503203 13.6315 20
107 1 9.84484 -0.627753 15.8474 20
417 1 6.14231 4.22414 13.8859 16
479 1 8.80517 -0.456881 18.8165 13
961 2 6.04417 -1.07254 18.8387 16
1004 2 5.86477 2.83108 12.6429 18
397 1 4.78793 0.637475 23.4377 18
509 1 7.54157 0.979765 25.7805 21
459 1 5.80449 2.60049 21.4045 21
1347 2 9.06624 4.79156 20.7681 20
403 1 7.30135 -0.120144 22.7297 16
1327 2 9.50995 0.890837 25.9841 19
2000 2 6.30117 1.09968 24.571 21
251 2 4.94981 3.36548 22.8711 17
2036 2 8.45566 4.77033 23.2992 17
651 2 8.9002 1.36003 22.4235 17
1467 1 5.78873 3.76695 24.6381 17
826 1 9.06238 2.94984 21.496 17
274 2 7.17894 2.87876 19.9108 19
589 2 5.91993 0.461136 21.6866 17
1152 1 10.2173 0.361721 23.4313 18
228 2 6.87605 3.86901 26.0747 18
473 1 9.00552 3.90168 24.8474 18
1950 1 5.72504 -1.04217 25.7521 20
654 2 6.05564 2.68057 27.7599 15
1480 1 10.2374 0.313439 32.6619 19
1163 1 6.821 3.22789 30.0571 20
74 1 5.86467 0.914951 28.0417 18
594 2 8.58377 3.27778 29.4708 20
1253 1 10.3324 2.70343 30.2699 22
687 2 4.88993 -0.594574 27.4104 16
40 1 7.52357 0.402725 31.1102 15
658 2 8.7724 1.63398 32.0339 20
145 1 7.75827 3.92956 27.5619 20
660 2 9.08349 -0.548476 30.2571 16
442 1 9.05683 0.946102 28.0832 22
707 2 7.28405 0.438551 29.0734 19
2734 2 7.46078 -0.654074 27.0686 15
561 2 6.21726 2.78791 31.8557 17
1224 1 8.36859 3.50129 32.4521 22
294 2 10.1259 8.03048 5.02773 15
313 2 7.14177 5.82802 3.06498 18
12 1 5.54899 5.48147 5.84327 17
327 2 8.16665 7.0859 -0.723697 17
2407 2 10.3535 5.20893 3.89769 21
1149 1 9.74248 6.20689 -0.0989264 19
432 1 7.61675 7.69204 2.9727 16
599 2 7.10488 9.06993 1.98887 17
97 1 6.42249 7.64626 0.477765 19
77 1 5.35506 9.91881 2.79725 18
242 2 5.14854 7.12402 5.22855 15
1282 2 9.22095 7.1241 1.84184 16
121 1 6.23029 8.63677 5.84622 17
467 1 8.4857 8.98227 -0.669401 20
636 2 10.0349 10.868 1.06537 17
395 1 8.00319 10.772 2.01644 17
38 1 8.70673 4.92124 2.31463 19
76 1 10.2512 8.28242 9.65728 20
1453 1 9.11054 10.5668 8.16022 15
611 2 9.08625 9.77747 10.7965 17
1801 1 9.03157 7.46299 6.90044 17
118 1 8.22542 5.69611 8.49572 20
291 2 6.32657 7.29613 11.0203 13
973 2 8.09251 9.20306 7.09173 16
33 1 7.90616 6.29737 11.2838 16
117 1 9.42892 11.0033 11.8249 16
670 2 8.22331 7.2682 9.42526 17
434 1 6.18652 7.10528 8.53012 22
1023 2 9.56679 5.59852 7.09408 21
131 1 7.10304 9.80542 10.2128 16
2513 2 6.98461 5.91049 6.81746 18
216 2 5.50738 10.0666 6.85 16
241 2 5.30254 10.1378 9.90754 13
1027 2 9.71349 6.72201 11.5699 13
652 2 8.86933 6.56999 18.1906 16
1620 1 5.01335 10.3191 13.9062 15
288 2 5.91592 6.96276 18.8443 15
643 2 7.80715 9.75862 14.3782 14
804 1 6.83901 10.963 16.1572 20
385 1 8.17042 7.87645 15.2357 14
1864 1 10.0254 9.86739 16.2224 17
1018 2 5.37181 9.51938 15.7363 17
2009 2 10.3029 9.86125 18.1855 17
449 1 4.84589 10.8849 18.9755 17
35 1 6.95317 5.13466 17.2814 20
676 2 6.37801 6.65968 16.417 17
586 2 8.25757 9.19142 16.672 18
454 1 8.14756 8.28845 18.4942 17
317 2 9.91591 10.7491 13.8975 22
104 1 4.77626 8.16855 17.0156 19
1764 2 5.25315 5.52157 12.6134 15
596 2 6.1602 6.20955 21.6254 18
406 1 9.97813 5.22063 22.2299 19
644 2 8.45422 8.10819 20.2911 20
95 1 5.80609 8.59681 20.3869 17
1805 1 7.86134 9.16406 23.2728 18
531 1 10.0609 8.39105 21.3161 18
514 1 10.7421 10.6784 24.249 19
455 1 5.29137 6.89077 23.1355 13
310 2 7.22872 10.7276 23.5641 15
2154 2 6.16571 8.87559 22.473 14
2350 2 9.65782 9.62269 22.6556 17
1489 1 9.82967 7.83088 24.9228 18
1155 1 5.77573 9.27946 25.8952 17
584 2 5.09324 10.2791 20.8489 18
505 1 7.14877 5.68838 20.2241 19
2031 2 6.17967 8.14074 29.3854 18
597 2 8.74957 8.65311 26.1282 17
1365 2 10.1546 5.35974 31.9612 18
684 2 9.74922 6.04788 26.2287 20
1188 1 7.98512 7.03016 27.2387 17
588 2 6.13113 7.21696 26.693 13
648 2 9.03988 9.21416 31.5148 21
421 1 5.9109 9.87281 28.6468 21
617 2 8.49074 6.68167 29.0423 17
781 1 9.8867 5.27928 27.8929 20
335 2 7.10841 10.7632 29.9788 19
537 1 5.55903 9.64539 31.2321 16
415 1 7.45658 7.29356 30.5092 17
527 1 9.93751 8.28648 29.5061 22
220 2 5.14659 6.15376 31.5813 17
134 1 9.57582 10.434 26.8893 18
655 2 6.58839 10.975 26.6346 18
1151 1 7.26271 5.75333 32.4717 21
903 2 6.6544 9.02377 32.8739 19
619 2 10.1631 10.0207 28.7221 17
491 1 9.39204 10.6537 30.4022 16
1504 1 7.39375 15.3055 1.9113 19
646 2 5.01781 15.4158 2.0171 19
446 1 9.27879 14.1175 4.30869 16
230 2 8.67909 12.0459 3.2182 19
338 2 6.38491 11.6358 0.839403 21
1207 1 8.30711 12.5018 -0.262056 19
172 1 5.1482 12.2855 -0.431717 16
2003 2 8.5215 14.6711 0.584292 18
170 1 7.4561 11.9032 4.96688 18
773 1 9.75859 12.8608 1.76917 18
634 2 7.25492 16.9393 -0.236192 17
102 1 5.09385 12.4182 2.4681 17
206 2 6.42205 11.7882 3.64257 17
1465 1 10.4518 14.59 -0.0528768 21
2073 2 10.4079 15.415 3.25142 18
2108 2 5.93672 14.1659 -0.210817 17
760 1 7.34214 16.823 5.70688 14
1052 2 6.14241 15.3793 5.41472 15
867 1 10.4678 15.9055 9.97759 16
870 1 6.9655 15.2015 10.6376 17
727 1 9.08283 14.8588 7.42804 15
723 1 4.64527 14.4893 5.9688 15
138 1 5.09169 11.7764 10.4727 12
31 1 10.041 13.6667 11.549 18
1646 2 9.52788 15.403 11.7809 19
314 2 8.37508 13.2477 6.39819 14
1986 2 8.15887 14.4896 9.08571 13
246 2 5.03272 13.2158 11.7064 15
802 1 7.31747 13.0495 8.15183 13
319 2 8.59672 12.5134 12.2573 18
423 1 8.66299 15.7393 13.6028 16
1476 1 5.19412 15.2487 14.1967 14
324 2 6.22462 15.2303 12.5238 17
2714 2 5.04841 15.3665 16.43 15
1266 2 5.8232 11.7095 17.3627 18
1297 2 6.63459 11.9666 13.7602 15
1065 2 8.48681 15.1918 18.4883 18
558 2 4.9532 14.182 19.003 19
569 2 9.99432 12.2261 16.9306 14
1117 1 6.71408 15.1762 17.1772 15
840 1 9.18049 14.0759 16.883 17
1020 2 9.40955 14.2253 14.7477 18
93 1 8.3802 11.6227 14.2822 17
816 1 8.73287 16.9122 17.5486 19
464 1 9.54669 11.7315 18.8135 17
427 1 6.73556 13.5814 12.6175 16
1438 2 10.3703 13.3161 24.7475 15
1414 2 9.8476 15.8213 25.5404 17
679 2 5.25463 15.1971 23.4929 20
418 1 6.20189 15.9706 19.7593 21
463 1 5.92924 11.8327 21.7652 19
540 1 6.80486 12.1722 24.7612 19
557 2 7.34946 13.4381 23.3564 17
605 2 7.56684 15.8608 21.3502 18
639 2 7.51356 12.11 20.4965 17
490 1 8.83688 11.2342 21.6589 18
1189 1 9.65559 15.1286 20.0654 17
1202 1 8.43043 14.3853 22.0787 20
2667 1 7.96756 16.1074 24.5369 20
1349 2 10.4905 15.2132 22.1156 17
2526 1 10.4642 17.171 22.1358 21
695 2 9.82101 13.1025 32.6993 18
88 1 6.9478 12.6829 27.8336 17
533 1 9.6095 14.0661 26.1937 15
1092 1 6.52758 16.476 28.7979 19
1410 2 8.21136 12.4606 29.3414 18
500 1 5.63522 13.3167 30.7467 17
339 2 10.1582 15.3582 30.9334 16
718 2 6.97179 14.9973 30.6441 14
504 1 8.62487 13.9615 30.0778 16
1086 1 5.99009 14.6282 26.6248 17
564 2 6.41979 16.425 26.6769 17
2494 2 5.59019 14.0892 28.5939 15
758 1 5.85405 15.9796 32.3144 18
565 2 7.76894 13.7807 26.3796 17
2306 1 8.51087 16.4601 31.3828 18
139 1 8.60577 18.2044 0.567874 17
882 1 8.46511 20.1241 3.56352 20
610 2 5.31659 18.5092 2.06383 19
642 2 7.05171 20.8058 2.73206 16
771 1 5.73195 22.8105 -0.582553 18
879 1 5.35012 17.6972 0.4792 18
1341 2 5.26237 22.7364 1.87777 15
793 1 5.68626 20.3433 1.61733 17
2345 2 9.38298 18.5224 3.46143 13
880 1 5.09239 20.5174 3.95666 17
1645 2 9.82291 21.1863 2.84795 19
1050 2 9.11981 19.9514 5.7827 20
169 1 7.3493 20.4561 7.00538 22
1017 2 7.39488 19.7123 8.56972 13
161 1 10.0166 18.2733 5.68 14
823 1 6.32112 21.5815 10.037 16
844 1 9.12146 18.6958 8.66262 13
2291 1 6.26613 18.2962 9.10779 17
2348 2 5.12934 19.9701 10.1141 16
315 2 8.54046 17.1161 7.21653 15
2489 2 6.41808 17.1608 10.2724 15
1061 2 5.59133 22.1851 8.32116 15
1057 2 5.88982 22.3772 11.484 15
1795 2 5.62071 19.8933 5.87579 18
787 1 9.78547 22.8805 7.84289 17
835 1 6.54629 18.5008 11.6099 20
1021 2 10.1691 21.0222 9.2242 16
354 2 10.0687 22.8049 5.95037 18
909 2 6.35439 21.569 18.8866 15
144 1 8.58951 19.2364 14.1945 21
1142 1 5.85262 20.6973 15.1683 20
1121 1 7.1929 20.681 17.4702 19
810 1 9.61867 20.5838 16.6986 17
993 2 10.4519 18.6042 13.9527 17
1334 2 10.3223 22.6409 13.2883 19
248 2 7.00544 22.4189 14.0046 17
950 2 7.61433 19.8622 12.6026 16
801 1 8.32958 23.1625 15.1362 18
1432 2 8.13592 20.4973 15.8821 19
2358 2 7.99665 17.3811 14.2342 18
979 2 5.75711 19.6281 16.594 18
994 2 9.27233 22.3894 17.7429 17
905 2 7.06325 17.1483 17.2276 17
936 2 5.58697 18.4277 14.182 20
755 1 6.579 17.5991 15.2412 20
2708 2 10.5196 17.3309 17.9444 15
2666 1 5.30083 18.2872 17.781 21
179 1 8.36975 21.6639 12.8642 18
1166 1 6.4211 19.6981 23.514 18
461 1 7.86692 17.7434 21.2483 20
525 1 8.38425 22.7199 23.1039 18
714 2 8.16897 19.7679 25.9557 17
1299 2 10.1365 17.3516 20.1002 15
1159 1 8.97445 18.9449 24.4423 20
1404 2 6.65864 22.1316 23.345 21
413 1 8.21814 22.8921 20.1504 18
668 2 8.97541 19.0472 22.325 21
430 1 4.89513 22.2665 23.7438 18
2042 2 7.38703 17.5236 23.4401 16
1263 2 5.51175 19.0846 25.6055 21
1374 2 5.58713 19.0189 21.8978 21
1095 1 6.36094 19.9253 19.9825 19
1339 2 8.42259 20.1499 19.7357 19
1168 1 10.2163 20.1234 21.2207 21
1309 2 5.80999 17.8796 19.6808 21
1042 2 10.0152 22.2761 21.3805 18
2460 2 10.2167 22.5041 24.0359 18
1196 1 6.67157 18.0057 25.9227 17
1120 1 5.43891 23.4116 19.5247 16
387 1 5.72619 17.0967 22.5578 22
1164 1 8.44102 20.1289 32.5398 17
502 1 8.34191 21.6886 29.8785 15
717 2 7.90437 20.1623 29.2319 12
1371 2 4.99952 22.3267 25.9719 18
2820 2 9.23217 21.5139 31.6557 15
1369 2 4.89589 19.9889 29.1744 17
690 2 6.40498 19.1671 32.862 20
1045 2 9.57889 18.3418 32.598 14
1123 1 7.03767 19.2232 30.3218 16
1247 1 8.79381 19.0934 27.844 14
2501 2 5.2554 21.9573 31.7185 16
1016 2 7.80477 22.6866 26.5861 19
2813 2 6.53978 17.3435 30.742 15
1193 1 6.57959 20.7275 26.0383 16
2722 2 10.3247 23.9743 0.673803 20
352 2 7.10721 26.1642 0.955102 20
730 1 6.20601 24.8406 4.28218 14
260 2 9.56269 27.0288 3.29161 13
1063 2 5.64145 26.1782 5.59332 17
2323 1 6.10166 28.3551 5.11603 16
1048 2 8.15179 24.0326 3.4038 20
1148 1 7.50505 27.9679 0.429482 19
1161 1 8.74743 25.0888 1.12081 13
1047 2 7.81665 27.997 5.44917 18
1343 2 7.49605 23.1328 -0.366818 18
1210 1 10.2211 28.8456 3.02381 17
2536 1 10.3428 26.0728 4.4962 15
1162 1 5.44788 25.4343 1.68603 20
886 1 6.89003 22.6481 2.07706 19
954 2 9.3534 28.8459 -0.609953 19
136 1 8.66904 23.5694 5.17711 16
742 1 7.57626 28.7757 10.213 17
923 2 8.1663 23.8551 8.23655 14
964 2 6.62462 27.5249 11.367 16
1759 2 9.54556 28.5089 8.94025 19
990 2 8.88422 25.5306 10.6665 15
809 1 8.672 25.8837 8.76596 17
874 1 5.85258 23.961 7.10379 15
1313 2 9.50633 26.2304 6.76492 17
807 1 10.4529 24.8073 11.7534 20
841 1 9.18847 28.4582 6.74118 18
2711 2 6.80171 23.1177 5.68737 18
797 1 5.45738 26.7247 7.92603 21
1237 1 7.13155 25.7745 11.5917 13
1270 2 6.56584 28.5006 8.22374 16
2232 1 5.14369 28.7755 10.9563 18
1372 2 9.4592 24.3219 19.2146 17
1393 2 8.08721 26.159 17.4377 18
41 1 7.14868 28.6168 13.2354 17
776 1 6.43215 25.7412 18.5029 21
762 1 6.05934 23.6692 12.887 15
1194 1 6.0301 25.4738 14.9419 20
2728 2 7.76266 27.7867 14.6374 20
1399 2 5.63579 27.5823 19.4185 21
965 2 5.13361 23.8062 14.8721 15
955 2 7.09008 24.9671 13.3423 17
779 1 7.03807 27.8925 16.3639 17
1311 2 5.26224 25.4387 16.6101 18
815 1 8.66525 24.2039 17.3375 18
786 1 9.92857 26.6312 17.1402 17
1032 2 9.53316 24.8911 15.4829 18
1387 2 10.5951 27.8456 18.7446 14
1171 1 8.9296 26.0731 14.1345 21
273 2 5.3815 28.7201 16.3948 20
1130 1 5.79814 25.1324 25.5343 22
1156 1 7.12745 25.1095 22.2824 18
2330 1 6.52311 28.9825 24.6671 22
1222 1 8.58207 27.5779 20.0148 20
777 1 8.97812 26.4665 24.0915 19
946 2 8.29554 27.0088 22.1062 17
937 2 5.40402 25.796 22.584 21
982 2 4.95981 28.5855 21.7685 21
1335 2 8.44793 26.8337 25.7839 20
475 1 8.25493 24.4975 25.9588 19
829 1 6.75575 28.2515 21.3692 20
1357 2 5.43287 26.9925 25.4575 17
2769 2 6.82027 24.4415 20.2136 18
603 2 8.23475 24.254 23.8941 19
1060 2 10.5489 27.1382 23.8988 15
952 2 5.61363 28.1052 31.927 20
2707 2 5.47732 23.9152 28.5743 18
1320 2 7.99536 26.0129 28.3739 17
1157 1 5.32219 26.0906 32.3063 18
1386 2 6.53894 27.84 28.9786 21
173 1 6.71886 27.1996 27.1282 17
1235 1 9.68314 25.5694 29.9482 16
1233 1 9.30829 27.5259 31.7575 17
1176 1 8.15643 28.5281 28.9004 15
715 2 10.5677 25.5202 31.6923 17
1084 1 6.96359 24.4502 28.2026 14
2380 2 8.23602 29.0021 30.8207 18
1209 1 4.86558 23.7081 30.5112 16
1271 2 8.98709 23.7793 29.614 16
819 1 4.91761 28.0142 29.8863 18
2706 2 10.4915 24.1836 26.1451 18
831 1 8.98186 23.2196 32.3941 15
894 1 7.7063 32.9639 -0.255824 12
694 2 6.56204 31.6761 -0.827794 18
2378 2 5.81075 29.7673 3.31407 16
929 2 5.39641 33.0029 4.86945 17
303 2 10.1006 34.2048 2.99272 15
1350 2 9.7685 31.5563 0.463105 17
1150 1 8.48838 30.6158 -0.680973 21
858 1 10.0741 31.7458 2.47771 18