ITEM: TIMESTEP
530000
ITEM: NUMBER OF ATOMS
2000
ITEM: BOX BOUNDS pp pp pp
-30.0 30.0
-30.0 30.0
-30.0 30.0
ITEM: ATOMS id type x y z Coordination
1 1 -10.1901 5.33043 -15.479 12
2 1 -3.23274 -8.50634 -9.82389 18
3 1 -0.468872 14.2612 12.2513 12
4 1 4.75786 -8.41242 12.3685 15
5 1 -12.2485 10.6605 1.63126 16
6 1 10.3601 -9.70449 -8.8718 17
7 1 -8.23418 4.24074 -5.79881 21
8 1 0.305292 -9.26798 12.5511 17
9 1 -8.3747 5.71449 -11.1495 18
10 1 -14.1523 -9.83363 5.06288 14
11 1 12.7159 0.8076 -9.85889 14
12 1 -2.63218 3.02886 -5.07918 21
13 1 -1.31574 -15.1695 2.81783 22
14 1 -11.0852 -9.5033 2.22859 19
15 1 1.70973 0.871813 15.1833 11
16 1 8.34711 -2.25501 7.05043 20
17 1 1.52712 5.19843 8.75797 25
18 1 7.05521 -2.7211 2.40341 22
19 1 -0.0688588 9.5212 -9.21628 25
20 1 4.73562 0.398381 14.1267 18
21 1 -6.62118 1.4854 -16.8787 12
22 1 -5.16005 -3.97627 16.4242 11
23 1 11.6478 5.00915 10.1584 21
24 1 0.242467 9.35801 -12.4623 22
25 1 8.43599 3.80396 -13.3377 15
26 1 14.8001 0.00973934 12.2435 13
27 1 -9.7005 3.00995 6.32976 21
28 1 -13.313 6.39649 -6.70989 13
29 1 -2.07589 -0.267992 -8.06102 25
30 1 -10.2905 9.35235 5.85727 16
31 1 7.40702 -12.6839 3.349 24
32 1 2.03194 -7.52009 13.3627 17
33 1 0.492291 -12.1408 -10.7504 16
34 1 7.41685 -15.9895 4.04737 14
35 1 -9.29676 -14.5225 -3.83401 15
36 1 -11.3405 -4.70214 14.1228 12
37 1 2.41685 -3.54031 -4.59105 21
38 1 4.14855 -4.37341 -10.8366 24
39 1 8.81047 -10.2536 -11.7009 12
40 1 -2.60011 8.23526 -16.9593 13
41 1 -1.06388 2.64746 16.5077 12
42 1 5.81365 -12.2192 11.1927 10
43 1 7.50549 -6.69045 13.3508 16
44 1 -8.76499 -0.876485 0.230726 24
45 1 -13.5004 -1.70609 7.02409 17
46 1 -9.79999 2.49025 3.3426 22
47 1 2.61765 15.502 -0.0221568 18
48 1 -2.33391 -10.4648 -15.6984 10
49 1 0.5858 3.24462 -9.17506 22
50 1 3.60255 -4.98417 -7.0129 23
51 1 -2.48308 -8.23591 12.4176 22
52 1 -11.9599 3.91459 -1.68068 20
53 1 -1.24149 11.204 -6.85939 21
54 1 -1.56543 13.2044 6.85042 23
55 1 -8.55155 9.09443 -11.4345 16
56 1 -4.36235 11.1988 -2.76273 24
57 1 6.47918 -14.6065 0.896584 17
58 1 6.15604 -6.38067 -4.10209 20
59 1 4.45508 -6.64991 -12.5651 17
60 1 -7.94446 7.78404 8.23718 18
61 1 -14.3457 -1.87028 -10.5412 10
62 1 11.4196 -1.63703 6.20765 21
63 1 -5.2004 7.67151 -7.15202 25
64 1 -8.64052 -7.06244 1.7663 22
65 1 -3.94323 11.4135 7.95012 20
66 1 -10.2566 5.55251 -7.75738 21
67 1 -5.59792 9.44672 10.1045 15
68 1 1.72147 6.80398 -4.79291 23
69 1 2.98991 3.87057 6.31887 22
70 1 4.05499 -14.4196 8.83829 15
71 1 5.03999 5.80516 8.04734 22
72 1 -0.278559 -17.1601 -3.39397 12
73 1 1.9978 13.3297 13.7597 14
74 1 -8.94095 0.465164 -10.1806 21
75 1 -12.8311 9.3076 -12.1017 12
76 1 4.13725 4.13182 10.7009 25
77 1 12.6834 -3.65778 -7.42019 16
78 1 11.9852 -8.81604 3.3043 16
79 1 -13.5662 -1.5775 0.159274 20
80 1 -9.22825 -5.38121 9.6503 17
81 1 4.00534 15.4511 4.52585 19
82 1 7.89312 -2.25104 10.2914 20
83 1 -3.51322 -9.58848 7.68219 20
84 1 -9.18442 -0.543439 3.43491 22
85 1 13.0603 3.46664 7.57504 19
86 1 5.64203 -2.98089 -5.55348 22
87 1 -3.376 11.1928 4.75704 25
88 1 11.2843 -6.96133 8.77922 17
89 1 -8.12713 -6.19041 -1.5608 20
90 1 -4.46255 -5.96328 -5.89432 21
91 1 -13.2008 5.97074 7.56613 13
92 1 -9.81338 14.2798 -5.5752 9
93 1 -5.04765 9.25804 -13.0211 17
94 1 2.3065 -0.151999 -4.76483 24
95 1 3.23411 -1.74328 -7.26776 20
96 1 10.1307 12.9564 -11.3588 6
97 1 7.2287 -9.20183 2.79527 21
98 1 2.43075 -4.82588 9.77064 21
99 1 -5.47618 18.0486 -1.61573 12
100 1 -8.41461 14.0948 0.957264 19
101 1 -0.348109 -2.8687 14.4064 16
102 1 -9.27954 14.0404 -2.71414 16
103 1 -5.45244 -6.14614 13.0314 17
104 1 11.4381 -8.59229 -5.57902 17
105 1 -14.221 1.78675 3.53779 22
106 1 -10.9967 -11.8529 5.65924 13
107 1 9.96159 -6.01393 -6.30215 24
108 1 0.993645 -0.227917 -9.1547 25
109 1 -3.37134 1.35382 -17.9327 13
110 1 5.95487 -1.19396 5.0874 22
111 1 -2.15898 9.67455 2.37819 24
112 1 -1.67562 7.4165 -14.232 21
113 1 1.77994 12.0038 16.6592 12
114 1 3.13087 15.2171 -3.67045 21
115 1 -11.5566 13.1313 -0.353545 13
116 1 0.469769 8.48245 0.886384 26
117 1 -0.180271 1.21511 -3.20851 24
118 1 -8.50384 -7.21266 5.09785 22
119 1 15.9083 -0.845916 9.07917 11
120 1 -2.13481 -3.71487 -4.64949 24
121 1 2.75954 -6.50959 -4.12081 22
122 1 -2.3402 1.38681 8.67414 23
123 1 7.28063 -0.934558 16.0155 13
124 1 -6.49063 -4.27444 -8.135 20
125 1 7.24612 -5.84441 2.11865 22
126 1 -9.4192 -7.92471 -3.71937 21
127 1 10.5799 -14.1493 5.21725 12
128 1 -4.74495 2.66589 3.48723 24
129 1 3.71186 3.3191 -16.7978 12
130 1 7.58056 17.8302 -2.94952 7
131 1 -5.7669 -12.2646 8.88686 14
132 1 -6.5857 -15.3813 6.85413 11
133 1 -1.91691 6.72933 2.3425 21
134 1 -3.09435 -1.97429 -18.2581 13
135 1 4.96984 6.7882 -8.96383 24
136 1 11.3929 -11.568 0.717014 13
137 1 9.80463 -11.8954 7.02716 14
138 1 -10.3707 -4.58386 -3.38901 21
139 1 15.7926 8.55225 9.56672 10
140 1 15.2223 0.262306 -4.57797 11
141 1 -16.3077 -6.26406 1.53431 11
142 1 8.28982 6.22537 3.72257 23
143 1 14.6147 8.70905 3.03038 13
144 1 -1.0609 5.98538 16.4569 10
145 1 6.25113 0.569769 -1.15648 22
146 1 -5.27127 9.20981 3.18237 25
147 1 -2.56867 17.7213 -6.53816 12
148 1 -4.10942 -5.63123 -9.49918 21
149 1 6.13287 -14.885 -10.1347 8
150 1 1.4233 14.7035 -11.0264 15
151 1 4.5034 -5.66528 14.4677 13
152 1 1.7633 -2.02791 -15.3315 20
153 1 -7.34535 15.9259 -1.56427 18
154 1 7.8505 -1.13036 -3.84772 24
155 1 -13.149 9.55432 -4.62538 13
156 1 -0.726269 -3.71492 -0.278854 24
157 1 -6.78352 16.8028 1.76313 10
158 1 8.43735 3.93355 -10.1749 23
159 1 8.74365 -8.74354 7.31546 21
160 1 -5.67349 10.9162 -7.13552 24
161 1 -7.91124 10.8426 4.39082 24
162 1 10.3027 5.90088 -8.37111 21
163 1 -1.55167 2.77265 -0.985906 23
164 1 3.91805 8.71485 -3.08902 25
165 1 -0.536687 15.219 0.67925 18
166 1 9.12793 10.8591 -2.68491 19
167 1 -0.775496 8.45661 -3.40018 21
168 1 4.26679 15.989 -9.5326 13
169 1 5.70542 8.3157 -15.3931 10
170 1 -10.3544 -12.7059 -0.531977 16
171 1 -12.7366 9.89979 -1.51678 14
172 1 -3.71921 -0.651398 -12.2436 23
173 1 0.83478 -11.9179 -14.6045 10
174 1 8.89431 12.8988 8.50242 18
175 1 -1.79451 16.454 6.96767 14
176 1 -12.6335 -0.127951 -6.24351 20
177 1 -12.1977 7.49478 0.675077 21
178 1 14.0011 -2.48173 -5.44012 15
179 1 -3.99345 -0.66717 -15.3241 20
180 1 10.9245 3.22299 15.9348 12
181 1 1.10486 16.8736 5.98725 12
182 1 1.49788 8.82159 8.70249 23
183 1 2.34448 -8.9881 -15.7078 9
184 1 -0.698767 15.2889 3.94199 18
185 1 -3.48237 9.43815 -5.20704 20
186 1 5.24045 -5.68436 11.5951 21
187 1 -11.1515 -5.8999 6.45137 20
188 1 -0.677178 -7.33827 -15.9664 14
189 1 -12.9499 10.0143 -9.49661 11
190 1 -1.49722 -8.32672 5.67723 22
191 1 1.52083 -15.5916 -5.70658 14
192 1 -2.58032 13.9007 -14.5251 10
193 1 -15.0769 0.383802 8.66229 13
194 1 1.52923 6.86322 -1.65275 22
195 1 11.6006 9.24229 -4.16699 16
196 1 -9.01986 3.75586 13.4538 12
197 1 2.61603 -10.6913 12.5651 12
198 1 -10.5142 2.32924 -7.15057 21
199 1 1.68618 16.8345 3.00185 14
200 1 -0.551961 3.81622 10.415 23
201 1 15.6588 1.93259 9.53589 14
202 1 -4.3533 11.0875 0.389261 24
203 1 11.7456 -6.65528 -8.66129 15
204 1 -6.25512 12.6361 6.11142 17
205 1 -5.09268 4.39735 -6.92074 23
206 1 12.0075 -10.6245 -3.03133 11
207 1 -6.06903 -9.06806 6.37613 20
208 1 -15.5753 0.0174071 5.49176 16
209 1 -6.24725 -12.1523 3.29506 22
210 1 6.97113 2.64881 12.6159 25
211 1 -15.8046 0.0163451 -1.33166 12
212 1 -1.40865 0.0787429 2.62588 25
213 1 -3.48418 -16.3262 5.91869 16
214 1 0.100193 0.184711 7.24815 26
215 1 -8.2847 0.649919 -2.60972 24
216 1 -0.451215 -6.85054 -0.174638 22
217 1 -3.03862 7.91762 5.0763 25
218 1 -9.55954 -0.908297 6.96601 22
219 1 2.64255 14.0119 10.6276 16
220 1 -4.71727 1.05911 -6.60534 21
221 1 -8.96184 12.4904 -8.46806 18
222 1 -11.9022 -4.49381 -10.8803 11
223 1 -3.84603 -7.09394 14.9609 16
224 1 -0.347125 -9.70733 3.37569 21
225 1 7.75782 -9.36684 11.124 16
226 1 -10.4521 12.5465 2.67387 16
227 1 13.6641 -0.116962 4.40334 21
228 1 5.02297 3.57626 -5.81629 25
229 1 -6.5596 -4.41811 -10.8129 22
230 1 3.39249 -2.68007 6.60036 21
231 1 -3.62019 -6.57026 7.25524 24
232 1 5.87112 -7.61103 9.06586 21
233 1 -3.36841 9.90208 -8.93939 23
234 1 2.51278 -9.65829 -12.7105 16
235 1 9.0357 0.696919 -13.3183 15
236 1 1.50852 9.30009 -16.0962 10
237 1 -2.4017 -0.414299 -4.75267 24
238 1 -1.51886 14.7522 -7.15392 21
239 1 -9.8727 -9.34895 10.8201 14
240 1 8.22751 14.2009 -5.649 13
241 1 -8.74387 -3.99681 16.1986 11
242 1 -6.73769 12.47 -4.49689 22
243 1 8.06172 0.872615 6.45211 23
244 1 -4.25843 -2.20232 -9.50607 22
245 1 -3.47011 12.9048 -8.92266 23
246 1 -2.29929 4.49338 -11.1479 23
247 1 -9.07305 -8.27071 8.13019 20
248 1 -1.36461 3.13784 2.47833 25
249 1 -7.70558 4.6528 7.93138 22
250 1 -5.28558 5.9774 6.32329 23
251 1 0.595635 -11.9859 -5.60574 19
252 1 -9.00053 -16.1113 -1.49625 12
253 1 7.09721 -12.7661 -4.13374 16
254 1 -2.49104 1.60395 5.34948 23
255 1 -1.91242 -1.66939 5.63998 27
256 1 -1.88472 -7.05874 -7.41394 20
257 1 9.66073 9.39324 16.4418 12
258 1 4.19637 9.99933 -9.23342 22
259 1 3.32362 12.2171 0.0944705 23
260 1 -12.089 4.14367 4.96236 21
261 1 -12.1758 12.5173 -3.70582 13
262 1 0.99702 8.68057 11.8462 19
263 1 4.29341 -16.6893 3.07825 16
264 1 9.25271 -4.03102 0.89506 21
265 1 2.63846 7.10318 6.20487 23
266 1 -9.90231 5.62739 2.86901 22
267 1 -15.119 -1.331 -7.09957 12
268 1 10.4956 2.54288 -8.5631 21
269 1 3.75712 -6.09697 6.80276 22
270 1 7.22091 10.3732 -9.57134 14
271 1 -1.74619 -10.6406 -3.76594 19
272 1 -3.05861 4.92061 -18.248 13
273 1 7.24048 -13.8799 5.88768 19
274 1 11.1133 -0.680673 -7.84314 19
275 1 -13.6432 -4.64716 5.56607 15
276 1 1.9736 -15.2595 -2.07137 18
277 1 -8.65534 -1.22985 -15.6562 9
278 1 3.39278 12.0661 -3.18119 21
279 1 1.44786 -3.23467 -12.2811 21
280 1 -5.52446 6.28456 9.54009 21
281 1 13.7562 -3.22297 4.76841 16
282 1 -8.52878 -4.18792 0.389185 21
283 1 11.0558 -4.59966 -11.2229 13
284 1 1.20993 -9.29211 7.73252 20
285 1 -6.93424 4.2004 -14.4241 22
286 1 -14.0023 6.9731 -10.2194 11
287 1 -5.69006 -12.0507 6.23503 24
288 1 10.3159 -0.107008 8.84037 21
289 1 8.23525 -5.69621 7.57009 22
290 1 -6.22124 -7.68223 -11.0649 18
291 1 6.81003 -14.188 8.63664 13
292 1 -2.5034 7.81088 -11.0441 22
293 1 5.98324 7.63798 2.3043 20
294 1 -11.0642 -6.07269 3.26954 21
295 1 2.43127 10.5228 2.84016 22
296 1 -6.55127 -6.00293 7.89845 20
297 1 -11.4241 -7.33827 -8.90854 12
298 1 -5.98624 -7.8124 -7.90841 21
299 1 -5.61257 9.84538 -16.2064 9
300 1 -5.18524 -7.48329 -2.94347 21
301 1 -6.0908 -8.90821 3.02307 21
302 1 -2.93704 -5.2693 1.46179 21
303 1 9.88047 -5.13675 -13.6288 12
304 1 14.8295 -0.786276 -7.77757 13
305 1 6.17798 -4.5718 5.19127 20
306 1 10.9654 4.65964 2.09017 22
307 1 -5.21173 -4.30339 -3.77963 20
308 1 -14.2108 -7.6523 7.33905 14
309 1 -5.81577 -15.968 -0.995733 18
310 1 7.21183 7.61593 15.0838 20
311 1 1.91703 -17.7609 5.25687 13
312 1 4.20575 1.97368 -2.74618 23
313 1 -0.287622 -10.1726 0.0161647 20
314 1 -2.36106 13.2616 -1.30347 23
315 1 3.79009 -0.224955 -16.4007 15
316 1 -6.08207 -2.72636 -16.7748 13
317 1 2.70351 -6.60425 -1.12538 22
318 1 -12.7568 -7.88941 10.231 12
319 1 -0.310537 9.07585 15.7946 12
320 1 -1.90261 -16.718 -5.4731 10
321 1 -4.44225 -9.43441 -13.2144 14
322 1 -12.6331 6.09064 -13.2525 14
323 1 12.3156 6.4912 7.9041 15
324 1 -5.18041 4.35859 -10.337 21
325 1 2.17969 8.26261 -7.39247 23
326 1 -1.66385 -4.8141 5.80162 27
327 1 3.61665 -16.8179 -8.74543 6
328 1 -2.72 18.6698 -3.76613 10
329 1 2.09019 10.5142 5.73557 21
330 1 10.8268 1.65783 5.77013 22
331 1 -13.6377 -1.31439 3.79 19
332 1 -4.1028 0.896374 16.8872 11
333 1 -7.02992 12.4539 -1.41645 23
334 1 7.68667 -7.1722 -12.4558 16
335 1 13.7954 7.69945 -2.91202 15
336 1 2.66314 -9.95566 -0.182401 21
337 1 -2.7958 -2.17288 15.8989 14
338 1 -15.9373 -3.67175 3.28872 15
339 1 -2.60791 -15.3364 -0.405199 23
340 1 -8.50258 0.588496 13.4553 23
341 1 -5.67456 4.16098 12.8269 17
342 1 -13.7941 -4.87466 11.6224 12
343 1 -9.00079 -4.44598 6.65188 21
344 1 8.09513 -1.08692 -7.24797 22
345 1 -11.3688 -8.84972 5.0383 22
346 1 7.39534 -4.19514 -11.2189 24
347 1 12.4987 -7.03076 0.232568 17
348 1 4.87771 17.3617 1.65782 11
349 1 0.802596 -6.0774 7.58663 23
350 1 -4.70687 14.4623 -3.04737 22
351 1 5.77469 -0.884634 8.41358 24
352 1 11.2937 8.25902 10.7917 20
353 1 -13.7999 -7.89171 2.75574 18
354 1 5.67359 -11.4128 0.956102 20
355 1 -4.96769 5.88329 3.09114 25
356 1 -7.4186 4.26428 4.71156 25
357 1 0.943386 1.86826 4.5959 22
358 1 0.27732 -6.49903 11.0353 22
359 1 12.0259 -11.9384 3.61147 11
360 1 -2.96112 4.91906 8.44797 22
361 1 -6.76758 -0.866868 -7.98136 22
362 1 3.67909 -2.76343 3.29847 23
363 1 1.67546 2.06093 12.0882 21
364 1 -4.95815 14.4537 0.273442 22
365 1 6.77516 11.1827 17.9462 8
366 1 -5.87323 13.9359 -7.74439 16
367 1 -0.551684 -3.31905 -16.9055 16
368 1 -5.96188 2.58887 -4.11373 23
369 1 6.75009 -12.4211 -9.5853 19
370 1 -11.6317 0.44334 5.127 24
371 1 -11.7307 0.381107 1.62542 22
372 1 -4.18714 -2.43167 -6.42461 23
373 1 -6.61305 9.50912 -1.47588 22
374 1 10.4141 -3.55323 9.05983 21
375 1 -10.6682 -12.5064 2.27288 15
376 1 13.3718 -3.56398 8.22091 15
377 1 -3.94275 1.06822 0.896089 21
378 1 -3.91773 -12.5325 11.2982 12
379 1 -10.6789 2.06474 -4.27305 20
380 1 2.104 -4.31273 13.0534 19
381 1 1.23688 -11.74 -2.63947 23
382 1 -6.3966 0.798198 -13.7505 20
383 1 9.28827 -1.91718 -13.1527 13
384 1 4.15851 12.3283 4.92099 21
385 1 -11.3449 0.547942 -1.69661 22
386 1 2.10589 -6.54729 -9.7869 21
387 1 6.45422 4.75037 -15.3806 14
388 1 -6.27652 -14.609 -9.90195 10
389 1 -11.6431 -7.93325 -5.89786 15
390 1 -2.71251 -8.65751 1.40556 25
391 1 10.3099 6.31732 16.1536 13
392 1 -3.4679 -2.0414 1.15317 23
393 1 9.56495 0.723869 -2.03874 23
394 1 -10.4467 3.0064 -10.225 19
395 1 7.9667 16.038 0.136203 15
396 1 -7.95754 -2.92125 -2.49872 20
397 1 3.40648 0.605789 3.23355 23
398 1 -7.18099 4.47166 1.39632 23
399 1 -1.6842 15.0851 -4.05249 21
400 1 -1.3628 9.90231 6.66056 21
401 1 9.29301 6.08735 12.4296 19
402 1 9.86381 -4.0821 -8.46209 19
403 1 9.7974 -4.3787 12.7099 16
404 1 9.98623 1.03342 -5.56573 22
405 1 -4.1487 -14.4162 -3.21586 21
406 1 3.32383 0.539902 6.35261 24
407 1 -3.78462 4.40979 0.784169 24
408 1 0.343544 -8.72535 -5.62655 21
409 1 0.13794 8.65173 4.12172 25
410 1 5.37416 0.394304 -5.62299 26
411 1 -5.64203 -0.936792 -0.957881 25
412 1 4.93222 -11.787 -2.20161 19
413 1 11.3101 -5.54264 3.01967 21
414 1 -13.9169 2.22831 -6.2551 14
415 1 -5.52039 -10.7552 0.42826 22
416 1 -5.02706 -9.75322 12.9742 13
417 1 -1.8022 9.55838 -0.941874 22
418 1 -11.8954 -10.7337 -4.65839 13
419 1 4.68238 13.0603 15.8079 13
420 1 -12.0531 6.86473 -2.62479 21
421 1 0.843 13.4938 -5.13217 23
422 1 9.57428 11.3464 5.87411 22
423 1 -12.5026 -7.75779 -2.77887 18
424 1 -3.83415 -8.95322 -6.02949 22
425 1 -8.12502 -5.06142 12.9445 16
426 1 -14.3829 5.70269 -0.831218 14
427 1 6.69209 -3.27585 13.7764 16
428 1 -2.59904 -12.1876 1.72236 22
429 1 11.1584 11.8558 10.1336 15
430 1 5.48029 8.5827 -11.8463 20
431 1 -13.0708 3.96391 -9.3203 13
432 1 -0.672395 16.4822 -9.4277 13
433 1 -10.9356 5.14009 -4.65895 23
434 1 1.8753 -16.5412 7.96383 12
435 1 12.5312 6.78396 4.37281 17
436 1 -1.3085 10.4207 -14.5835 13
437 1 -9.36927 -0.628638 10.7322 20
438 1 -16.1964 -3.06467 -0.00150446 11
439 1 2.20407 0.347594 -1.27219 22
440 1 -4.69807 -0.401229 7.23076 24
441 1 1.80573 -14.7243 4.90055 20
442 1 -0.958357 -5.55015 -10.5319 23
443 1 3.29632 -9.45235 -9.82979 22
444 1 2.84682 -8.08783 9.98634 24
445 1 -16.885 2.62861 3.65393 11
446 1 -14.3498 -2.41632 9.95723 13
447 1 -10.0099 6.12442 6.14371 21
448 1 -1.8625 -5.05799 8.97027 24
449 1 -4.56047 6.00789 -12.9821 21
450 1 4.96529 -7.77836 -6.96089 21
451 1 -2.55343 -7.35116 -12.557 26
452 1 -0.415398 -6.26804 14.0285 19
453 1 4.62618 -11.3883 -7.2151 21
454 1 -6.4826 4.84506 -17.676 11
455 1 3.4613 -13.4282 0.0139706 23
456 1 0.00149349 6.20708 -9.24762 21
457 1 -13.031 10.4047 4.47772 11
458 1 -2.20568 -5.42446 16.7519 10
459 1 -9.34857 -3.73274 -9.4633 18
460 1 -3.76428 -7.08026 3.88084 22
461 1 10.8063 -0.30921 16.5614 10
462 1 8.74643 2.55053 0.536058 23
463 1 -7.11438 1.14406 5.25404 24
464 1 0.824805 -0.51095 -12.2684 22
465 1 4.15929 -9.49698 7.2133 21
466 1 0.536947 4.98097 1.13345 22
467 1 16.2285 6.53836 -0.692872 8
468 1 -5.14267 0.752487 12.9428 21
469 1 0.702756 13.6394 -2.0082 23
470 1 6.34953 -7.49842 5.56873 22
471 1 -6.53196 -13.0807 -4.92056 19
472 1 -3.38146 3.09173 14.3144 20
473 1 -3.65872 14.5178 4.68412 20
474 1 -8.58659 -12.655 -9.4578 13
475 1 9.97019 14.4195 2.52825 14
476 1 6.14222 10.9286 10.0135 22
477 1 -11.4737 1.26964 7.83775 21
478 1 -8.64198 -7.58743 -7.05166 21
479 1 -7.40769 2.05712 10.9755 20
480 1 -12.4902 -2.73661 -8.20308 18
481 1 -7.75966 10.9913 1.15834 22
482 1 -4.06368 -13.0743 -8.64659 13
483 1 4.59571 -2.96421 -13.6371 24
484 1 -8.68559 -13.2222 5.37043 15
485 1 -6.65979 -2.20651 5.28452 26
486 1 10.8743 4.77156 5.35186 22
487 1 -1.38286 -11.8237 9.77041 15
488 1 -10.4022 11.3911 -11.6486 13
489 1 9.05589 7.40986 -2.25999 25
490 1 -6.34425 -16.3438 -4.10649 14
491 1 -0.279097 1.42208 -6.37194 24
492 1 0.629285 16.9197 -2.14575 13
493 1 -0.847811 8.02336 -6.78517 26
494 1 -5.6158 9.30778 6.50932 22
495 1 -14.9364 0.741608 -4.36786 14
496 1 5.33351 17.0912 -1.66472 13
497 1 -1.59497 11.5852 -3.37886 18
498 1 -6.38039 -10.586 -7.47705 20
499 1 4.99723 5.53396 16.6601 13
500 1 -1.6809 -10.9272 -8.35024 18
501 1 -1.44565 -2.10431 -10.6775 23
502 1 9.68461 -14.1807 2.08383 14
503 1 -12.6371 7.17554 4.35245 19
504 1 3.68385 6.87549 14.0134 22
505 1 9.12931 10.8502 -5.87611 19
506 1 3.61505 8.96925 0.433786 22
507 1 -8.05247 13.688 -10.6772 8
508 1 3.04001 1.64336 -7.45702 25
509 1 1.81873 -8.03461 1.86634 22
510 1 -13.7553 -4.58965 -1.70173 17
511 1 4.02504 2.30291 0.482377 22
512 1 1.19943 13.7749 6.39363 22
513 1 -10.7827 7.69615 -9.81125 19
514 1 9.93989 4.14359 -5.78291 22
515 1 6.60888 14.0962 -8.3524 17
516 1 7.29804 -9.6341 -1.37577 21
517 1 12.7238 -0.313788 -3.48588 19
518 1 -1.36999 -1.96524 -13.9926 21
519 1 0.612105 -8.61894 -2.61469 22
520 1 -6.15624 -5.3316 2.2913 22
521 1 4.72772 -12.7208 6.59981 21
522 1 -6.05227 6.25124 -4.34991 24
523 1 -3.36756 -10.3411 4.33252 21
524 1 3.15514 3.63211 2.967 23
525 1 -0.889947 -9.39182 -13.0652 19
526 1 6.54113 14.3706 6.51148 16
527 1 2.856 5.03042 -7.27729 24
528 1 3.64878 -2.21369 15.5286 13
529 1 -10.3014 -2.93238 11.4576 23
530 1 -2.10509 -18.0147 1.06568 12
531 1 -11.1104 -5.97654 -0.280592 22
532 1 13.262 -6.10915 -5.40999 13
533 1 9.34573 -7.63809 -3.4902 21
534 1 1.88558 3.4372 -4.74388 23
535 1 -6.4702 6.00686 -1.25278 23
536 1 8.17979 -11.8143 -6.71459 20
537 1 5.21839 3.4367 -8.84461 25
538 1 8.48884 -6.98395 -9.16768 21
539 1 -6.34343 -1.03829 15.3251 20
540 1 5.04852 14.2916 2.21053 21
541 1 -0.9042 -0.0997141 -16.4879 18
542 1 1.45434 -4.75685 4.83331 24
543 1 1.43977 1.28798 -15.163 17
544 1 -2.55929 -5.04331 11.8457 21
545 1 -4.28886 7.7795 0.495413 25
546 1 -12.2561 0.982237 -11.9419 14
547 1 -16.0592 -0.472801 1.89145 17
548 1 -0.569176 -5.31999 -13.9745 22
549 1 0.423578 -14.8574 9.67902 12
550 1 -2.7811 6.23913 -4.91617 23
551 1 15.0435 5.14235 9.75811 12
552 1 12.1788 2.61867 -3.4096 16
553 1 -9.62853 -11.0992 -2.92056 20
554 1 -2.87331 -8.8565 -1.62495 22
555 1 -1.63203 1.44069 -13.854 20
556 1 -8.19156 10.5943 7.77735 14
557 1 -2.0385 -3.77142 -8.1792 24
558 1 3.52528 5.59573 0.660752 20
559 1 10.09 -5.83098 -0.990831 22
560 1 3.46184 16.9475 -6.47822 15
561 1 4.48135 -4.50245 0.667169 22
562 1 2.35063 -3.17462 -1.144 21
563 1 13.1599 4.52055 -8.00551 13
564 1 5.58368 8.87012 12.0808 21
565 1 -11.0809 -2.32702 8.26522 21
566 1 -5.49703 -3.88054 -0.553127 24
567 1 2.78006 10.8355 11.1568 21
568 1 9.89937 0.0790481 11.7796 21
569 1 -1.56254 1.28116 -10.7125 24
570 1 -10.1431 -4.7772 -6.72619 21
571 1 4.3846 -2.72489 11.6376 22
572 1 6.02266 13.8963 9.84249 14
573 1 4.88132 6.92344 -5.71949 25
574 1 -7.89441 9.10554 -8.70218 21
575 1 1.2205 10.0984 -1.78262 23
576 1 11.9167 1.53113 13.7402 18
577 1 5.83181 1.86976 -14.4088 16
578 1 12.8207 -7.60222 -2.45459 14
579 1 10.4316 11.2702 13.4799 14
580 1 -13.6818 -7.67819 -0.285936 16
581 1 -3.9092 14.266 -11.4413 15
582 1 2.09126 2.03627 8.93345 24
583 1 -12.8639 -2.00352 12.8441 14
584 1 -3.90963 16.2099 -9.26992 10
585 1 -1.45137 -13.8739 -6.97805 15
586 1 5.83421 -3.25323 -8.79888 21
587 1 0.560305 17.2125 -5.22727 14
588 1 -6.81576 -1.06449 -11.098 20
589 1 7.11364 -10.926 8.72548 20
590 1 -12.8268 -3.51339 -5.03041 14
591 1 2.93297 9.57926 -13.4528 16
592 1 -6.22773 2.24416 -1.02827 22
593 1 -1.11027 7.30399 13.3347 17
594 1 -13.469 -4.89288 1.20066 20
595 1 5.94215 7.27749 -1.13019 23
596 1 1.43943 -10.701 -8.01206 18
597 1 7.01526 -0.320406 12.5321 23
598 1 7.29116 2.43355 -3.70283 23
599 1 1.2006 -1.54638 1.27375 22
600 1 -8.92994 7.25485 -3.05986 23
601 1 7.74783 4.63307 15.0775 17
602 1 6.69019 16.9212 -7.77788 10
603 1 10.2641 -9.23644 -0.902715 21
604 1 4.39861 9.06698 8.06303 22
605 1 -0.103765 6.18418 -17.29 15
606 1 -0.966697 -14.032 7.26361 20
607 1 -4.75647 1.07134 -9.82714 21
608 1 6.92099 -1.4029 -14.797 16
609 1 1.99171 13.6446 2.49501 22
610 1 7.29492 5.2637 -7.2933 21
611 1 -6.3023 -2.83139 -13.67 21
612 1 -4.76454 -10.9707 -3.28769 22
613 1 -9.43569 0.58134 -12.9365 19
614 1 11.1085 1.16944 2.46726 22
615 1 13.777 4.72534 -1.32982 13
616 1 8.18045 -8.7907 -6.2758 20
617 1 11.3339 8.30067 13.5589 16
618 1 6.66914 -9.72172 -8.98973 22
619 1 3.61201 3.57596 -13.487 22
620 1 7.22836 12.7953 4.1629 22
621 1 -9.83999 5.96411 -0.197122 24
622 1 7.12697 11.0527 14.638 17
623 1 9.62141 4.04468 -2.33821 26
624 1 12.69 -3.81805 0.21511 20
625 1 13.0311 7.54135 -9.28536 10
626 1 4.42878 3.70654 14.0301 21
627 1 14.4083 6.89006 12.2429 14
628 1 -0.973844 -8.71519 15.5276 12
629 1 10.2546 12.3011 -0.264286 15
630 1 6.31127 0.643572 2.10518 21
631 1 1.4801 5.44959 12.2949 21
632 1 8.19152 -4.44836 -3.56041 20
633 1 7.81215 4.26561 6.43239 23
634 1 -10.0244 -1.56517 -7.64664 20
635 1 14.4017 5.15943 1.87419 14
636 1 11.3614 -4.97981 6.53507 19
637 1 -2.1114 -7.1164 -4.06826 22
638 1 -8.14666 5.35213 10.8644 16
639 1 8.17786 12.1592 11.6669 19
640 1 9.41862 6.40923 8.16626 22
641 1 0.341592 11.8132 9.31319 19
642 1 -2.51517 15.9858 10.3853 10
643 1 8.54094 2.79507 3.80279 22
644 1 1.10998 -18.3747 2.47487 11
645 1 -5.88905 11.0279 -10.2779 20
646 1 11.8998 11.106 -8.8644 7
647 1 9.9378 -1.7772 -10.3505 18
648 1 3.78869 13.6024 -6.09002 23
649 1 -3.8764 -12.0733 -5.92197 21
650 1 11.0109 -7.89206 -11.6655 11
651 1 -15.3617 3.22333 6.58188 15
652 1 -10.5948 9.40466 -7.85452 19
653 1 -1.47241 -17.637 4.41442 13
654 1 -7.32982 2.49244 -11.4404 21
655 1 -10.4489 -1.12672 -4.24342 22
656 1 9.73343 -10.5215 4.57203 22
657 1 12.3426 10.0555 4.73843 19
658 1 4.33782 -9.43631 3.35691 22
659 1 -13.7163 3.73331 -11.8025 13
660 1 0.835694 1.71552 1.28259 22
661 1 0.437202 3.03021 -12.4644 22
662 1 0.608095 -2.87999 7.58802 23
663 1 -1.63775 0.364834 14.5961 17
664 1 3.53734 6.80113 -13.498 20
665 1 14.43 3.33543 12.3637 14
666 1 6.99816 8.69829 -7.48677 24
667 1 4.49147 -1.18677 0.741131 21
668 1 12.6082 13.4805 4.23069 10
669 1 2.08215 -13.9217 -7.73335 18
670 1 -11.4863 1.05357 13.8261 12
671 1 13.9312 -6.83883 5.86896 10
672 1 -3.5003 13.3291 10.6626 11
673 1 5.34346 11.6998 -11.9776 13
674 1 -8.42421 10.8485 -6.15526 20
675 1 11.3253 9.68332 -0.939845 20
676 1 -8.14178 -14.144 0.911418 19
677 1 14.273 -1.54088 2.01033 14
678 1 7.37904 15.9739 3.8478 13
679 1 1.63406 5.18524 15.5177 16
680 1 -8.61302 -4.25683 3.41258 26
681 1 -9.21166 -2.72585 -12.62 16
682 1 9.74053 2.83891 8.35221 20
683 1 -1.03679 -8.57278 9.23158 20
684 1 5.98307 5.89389 12.238 21
685 1 -3.75017 7.73939 -2.53204 23
686 1 11.6382 5.81815 -3.6594 19
687 1 4.50333 -1.30599 -2.79813 23
688 1 5.38549 2.285 4.5171 23
689 1 3.5782 -1.54256 -10.5754 20
690 1 -7.11294 -2.08015 8.60926 20
691 1 8.35101 0.632311 -10.0733 19
692 1 -7.62384 -6.09494 -4.99176 22
693 1 11.0578 -11.5811 -6.36174 12
694 1 6.8769 7.40242 6.30146 23
695 1 5.10063 5.59453 4.78657 24
696 1 -7.09769 -7.98821 11.0808 21
697 1 8.95054 9.48288 8.94274 22
698 1 6.76664 2.40997 16.2604 13
699 1 -3.16896 5.13666 11.7412 20
700 1 -3.3514 -3.93206 -12.1953 23
701 1 -9.90541 -0.210501 16.3916 8
702 1 -3.7695 4.15883 -2.49 22
703 1 7.7904 1.22101 9.67047 24
704 1 -4.02558 -14.9127 8.31998 14
705 1 13.7703 8.1951 0.401136 18
706 1 8.33457 -12.5729 -0.891239 19
707 1 -5.52599 7.61667 -10.18 22
708 1 5.94407 10.6205 -1.30308 22
709 1 9.78429 14.4704 5.85938 13
710 1 4.39729 -3.6293 -16.5181 13
711 1 2.61338 -1.23814 9.1337 24
712 1 1.31012 10.3266 -4.80189 20
713 1 10.89 8.00024 2.1485 23
714 1 -2.7637 -5.35552 -1.90967 23
715 1 -7.16427 -9.37033 -1.88646 19
716 1 -0.6502 3.2117 -16.7827 16
717 1 -9.32772 10.9122 -2.9678 19
718 1 5.63674 -6.8699 -9.76722 22
719 1 6.27107 4.35681 2.14703 21
720 1 10.4662 6.01892 -11.374 11
721 1 6.53433 12.0684 -4.0863 20
722 1 -2.65081 4.66275 4.88888 25
723 1 -7.60255 7.74557 1.4369 23
724 1 7.08641 8.76738 -3.9539 22
725 1 11.9702 5.19586 13.5001 17
726 1 9.09593 1.3554 14.4338 21
727 1 -1.14076 -11.4394 12.885 11
728 1 -5.24904 12.1153 -13.4403 12
729 1 0.432951 14.9753 9.07807 17
730 1 5.70663 -10.0246 -12.1838 16
731 1 5.07184 2.25994 8.24231 21
732 1 7.0231 14.7819 -11.2989 9
733 1 8.22833 9.25443 0.393101 24
734 1 -4.1985 -0.514517 3.89917 24
735 1 14.5315 -5.3201 -1.95895 12
736 1 4.8081 8.52589 16.832 14
737 1 -15.9131 -7.01945 4.9795 12
738 1 6.7298 -10.5772 5.8316 20
739 1 -2.62375 2.95613 -8.4588 22
740 1 -5.21375 17.0374 -4.4113 9
741 1 -0.316745 3.25876 6.87094 23
742 1 4.73177 -4.45483 -2.40717 21
743 1 5.68447 10.7307 2.09032 23
744 1 -11.3033 -2.9626 4.94671 23
745 1 -0.858201 6.85342 10.0723 24
746 1 -4.68281 6.44401 -15.7665 21
747 1 -10.3387 8.13389 -13.8732 12
748 1 1.63474 -11.4689 2.17372 21
749 1 2.31726 8.06286 -10.4108 22
750 1 3.92872 -6.33113 3.185 22
751 1 0.531499 5.20687 4.40303 22
752 1 -10.6535 2.48211 11.1171 18
753 1 4.02565 -0.0243559 -13.3714 22
754 1 10.5271 -9.92217 9.44288 13
755 1 0.00406049 11.7408 0.758239 23
756 1 -2.76798 1.49823 11.7531 20
757 1 -6.44354 -2.226 2.22617 25
758 1 -5.57077 -5.99017 -13.7287 14
759 1 -3.78668 -7.27907 -15.7911 12
760 1 -5.96489 -11.1435 -10.6032 15
761 1 1.51452 14.8836 -7.88301 23
762 1 0.133319 -5.22326 -6.29139 23
763 1 -0.834182 -3.17799 2.94198 24
764 1 -9.96462 8.58359 2.75853 24
765 1 3.64142 -13.5636 -4.27303 17
766 1 4.0627 -16.8294 -0.0137184 12
767 1 10.3815 -7.39167 11.6687 13
768 1 15.4423 1.97633 -7.73715 9
769 1 -0.676159 -13.71 -3.00414 21
770 1 -12.1119 -10.0739 7.87982 15
771 1 0.269003 -2.02127 -6.22817 24
772 1 -5.40118 -13.6641 0.867986 20
773 1 -7.62913 -14.642 -7.07003 15
774 1 0.0301511 -1.82678 -3.02612 24
775 1 -6.78211 -1.94115 12.047 20
776 1 -6.59298 -15.519 3.78529 16
777 1 12.7881 7.40281 -6.423 15
778 1 -3.19031 16.4652 2.18953 12
779 1 -5.01941 2.70761 6.48947 23
780 1 -14.4757 8.03612 2.49159 12
781 1 11.4039 -1.93619 2.75224 21
782 1 -12.1428 2.70591 -14.4989 11
783 1 1.93432 11.433 -7.58312 23
784 1 12.7721 1.96352 -6.21563 19
785 1 5.08343 12.1805 12.4488 20
786 1 1.10761 -1.30502 4.72068 24
787 1 6.96484 5.40089 -3.99136 24
788 1 -13.6606 0.661136 -9.35594 17
789 1 -9.09207 -6.27151 -10.8108 15
790 1 2.10469 8.07272 16.6577 14
791 1 2.7139 4.91453 -10.6717 24
792 1 11.9688 12.5869 7.02782 13
793 1 -2.1654 -1.44623 12.0522 21
794 1 -6.92308 -18.0429 1.04935 7
795 1 -1.34625 -17.0757 8.11518 10
796 1 -1.10356 -11.066 6.64697 20
797 1 13.2151 10.1141 11.5648 14
798 1 2.83799 -9.9952 -5.26831 22
799 1 -6.50762 9.20648 -4.55605 22
800 1 7.98727 9.4811 3.82932 23
801 1 -5.90799 -5.07307 5.22407 22
802 1 8.11683 7.19787 -10.1386 20
803 1 -4.61426 -15.0582 -6.42219 16
804 1 0.470905 -16.9592 0.105534 15
805 1 1.83409 -14.9523 1.95476 20
806 1 5.84041 5.21784 -12.0138 23
807 1 8.20224 14.2867 -2.2221 15
808 1 -4.291 2.89339 -15.6713 20
809 1 0.0511589 0.359422 10.4227 24
810 1 0.321143 6.09894 -12.3907 22
811 1 -11.5355 -1.38636 -10.4269 18
812 1 -7.67945 -2.83701 -5.66135 22
813 1 6.04366 15.8397 -4.76619 18
814 1 9.38997 -6.97947 4.81319 24
815 1 -3.56823 -4.84202 -18.3997 9
816 1 -5.49966 -7.49703 0.145667 22
817 1 9.41883 7.54782 -5.47261 22
818 1 9.36952 -7.70117 1.68224 20
819 1 -4.66146 -0.33559 10.4612 21
820 1 4.52483 -8.3893 -2.34377 20
821 1 14.3372 -4.89734 2.7997 12
822 1 12.5904 -2.29278 13.8741 10
823 1 3.57361 7.29783 10.6173 22
824 1 -12.5057 0.00262114 10.932 19
825 1 -7.99716 1.39738 8.10698 21
826 1 -0.456738 -13.0132 4.37363 19
827 1 8.99086 -0.582639 3.84136 22
828 1 8.57315 9.11634 12.5703 19
829 1 -10.7696 -2.52116 -1.40442 24
830 1 6.03643 -9.45596 -4.86471 20
831 1 1.88722 3.57152 -1.28904 23
832 1 -11.7784 11.7324 -6.53436 13
833 1 2.76632 7.16428 3.22106 22
834 1 3.33888 -11.1055 9.31631 18
835 1 2.03401 -1.11739 13.0081 19
836 1 -0.41758 11.8751 4.17198 22
837 1 2.306 -11.2518 5.21092 21
838 1 -6.90498 1.08226 1.97855 21
839 1 4.38982 0.778881 10.9638 24
840 1 -13.5052 -1.4706 -3.06497 19
841 1 -0.456594 10.9859 13.0306 14
842 1 5.18209 13.9955 -1.1676 21
843 1 -9.99933 -9.05124 -0.716244 23
844 1 1.31989 -12.8597 7.49545 22
845 1 8.56029 -5.65741 10.4882 21
846 1 11.4535 -8.50645 6.07335 18
847 1 6.26789 10.9457 6.89351 21
848 1 -0.332388 4.75314 -3.30778 23
849 1 2.01482 -7.20407 -7.33636 23
850 1 -2.97023 6.09188 -8.5088 23
851 1 -6.61524 2.18812 15.411 14
852 1 -2.57113 13.0804 2.02638 26
853 1 15.3474 1.79912 6.38167 11
854 1 -0.390588 12.7659 -9.53792 23
855 1 -3.81841 6.52614 14.5839 10
856 1 6.82847 7.65747 9.61684 20
857 1 6.59448 -1.47675 -11.7009 23
858 1 -7.43811 -12.5961 -1.655 23
859 1 -5.65802 -0.960876 -4.23614 22
860 1 14.4143 1.67363 1.54765 12
861 1 1.23913 -3.64479 -9.08541 21
862 1 -3.27573 8.17706 8.17446 23
863 1 9.51449 -13.024 -9.55076 11
864 1 3.67336 6.67977 -16.2608 13
865 1 -7.0722 -9.43663 -4.91978 24
866 1 10.9623 3.09577 -12.017 10
867 1 12.1143 -0.202653 0.0709931 19
868 1 0.194823 -2.7865 10.7832 25
869 1 0.892939 -7.13759 -12.7599 21
870 1 -1.23871 -0.32023 -0.564947 24
871 1 7.59899 12.7498 0.744116 20
872 1 1.80463 -7.84065 4.81953 25