ITEM: TIMESTEP
11000
ITEM: NUMBER OF ATOMS
2000
ITEM: BOX BOUNDS pp pp pp
-30.0 30.0
-30.0 30.0
-30.0 30.0
ITEM: ATOMS id type x y z Coordination
1 1 -10.01 5.58124 -10.5729 16
2 1 -4.33817 -11.5264 -7.26983 20
3 1 2.54717 13.1681 14.4598 12
4 1 7.30233 -10.4883 5.90705 14
5 1 -10.5867 8.21314 -0.633985 22
6 1 7.12075 -4.83802 -8.93615 15
7 1 -12.0097 5.84121 -6.15366 22
8 1 -0.815688 -0.706768 12.9397 19
9 1 -6.75736 -3.31006 -13.5241 19
10 1 -15.2768 -9.22229 8.24696 10
11 1 13.161 4.19331 -8.87005 16
12 1 -4.19131 -10.9737 1.9986 21
13 1 -14.273 -8.75206 5.5779 12
14 1 1.1712 3.4246 17.7881 15
15 1 -0.896246 5.59768 8.29256 22
16 1 0.169137 13.8674 -10.4675 14
17 1 1.54421 6.52475 16.3522 18
18 1 -8.60305 -3.26665 -15.9521 11
19 1 -17.4718 -4.06923 8.59913 13
20 1 16.3842 4.05515 6.52376 11
21 1 -1.11827 11.7919 -12.4491 12
22 1 5.47262 6.24975 -13.173 16
23 1 14.3845 6.04025 11.0424 11
24 1 -14.7159 5.39029 -7.18392 14
25 1 -6.34401 -3.48392 -8.21566 20
26 1 -10.259 9.56903 10.9379 12
27 1 6.83311 -13.0774 4.45755 15
28 1 3.53555 -12.197 -9.79481 14
29 1 5.31428 -11.853 1.48488 20
30 1 -9.18976 -12.7295 -5.54443 13
31 1 -13.0927 -5.86431 10.5899 15
32 1 2.13735 -6.25204 -11.029 19
33 1 4.69424 -9.59123 -5.81174 18
34 1 -2.94453 3.7464 -15.4836 10
35 1 5.07522 8.17957 14.9189 19
36 1 -3.94542 -11.8765 7.85121 17
37 1 3.68943 -5.03877 11.6881 15
38 1 -16.5532 -0.632188 4.33773 16
39 1 -16.9023 4.81673 7.4439 9
40 1 -10.6182 2.81044 -0.350567 22
41 1 -3.85241 15.3515 -0.0761138 22
42 1 -1.74195 -14.4944 -9.30457 11
43 1 -0.382419 2.83358 -10.5485 18
44 1 4.8939 -2.25386 -7.78734 21
45 1 1.60516 -2.64624 13.3667 16
46 1 -12.2935 9.43671 1.95232 20
47 1 5.03324 12.5142 -7.0872 16
48 1 -1.16629 14.0416 6.8355 20
49 1 -9.8954 8.179 -8.35542 18
50 1 -5.10591 18.1983 0.817749 15
51 1 1.63401 -11.1481 3.03951 22
52 1 6.47929 -7.12161 -0.958926 17
53 1 6.47688 -5.3298 -14.8974 9
54 1 -7.42351 9.2936 15.0792 9
55 1 -11.5656 -2.77015 -8.64439 19
56 1 7.72673 -1.74444 4.78021 17
57 1 -11.847 9.56361 -3.61713 21
58 1 -7.33255 -9.15291 5.23408 20
59 1 -5.39278 17.2809 8.26898 6
60 1 -13.0877 8.70764 -6.67517 15
61 1 -4.80216 10.6414 14.5033 10
62 1 -10.6229 -13.4937 5.83127 15
63 1 2.5989 5.55681 8.07154 23
64 1 9.01788 -14.1499 -4.8029 10
65 1 5.34321 13.755 15.3276 11
66 1 -14.6781 3.44211 -9.99357 11
67 1 -12.7082 6.35914 -8.98729 12
68 1 3.16328 6.81617 10.2981 18
69 1 11.3255 -4.58378 -11.2957 13
70 1 7.88289 -11.0755 3.24676 14
71 1 -17.3601 1.84057 6.76403 12
72 1 5.83124 18.2687 7.42918 13
73 1 -0.115704 -2.69855 15.8176 9
74 1 -12.0424 -10.5523 7.12406 15
75 1 -12.8503 0.308782 -0.723551 19
76 1 10.5751 2.72742 6.04992 20
77 1 -7.64366 14.98 7.52429 9
78 1 6.12253 -1.47266 7.61249 18
79 1 -4.39024 -8.74158 -7.26084 16
80 1 -12.3693 4.84069 10.8042 19
81 1 -8.05318 11.4103 -0.163547 19
82 1 0.252626 7.17921 -7.41655 17
83 1 7.00044 -1.05331 -4.98955 20
84 1 9.10224 11.7219 -8.77237 18
85 1 10.9235 -3.70147 7.36595 14
86 1 2.7085 -10.4725 9.71485 14
87 1 -7.79296 15.3308 -3.46695 18
88 1 -8.66641 8.81937 7.02675 19
89 1 -11.9959 -2.0103 14.9298 13
90 1 -3.66198 7.76277 4.4425 21
91 1 -7.981 -4.0004 9.58939 18
92 1 10.8008 -4.55908 -4.58861 19
93 1 -9.14929 3.20682 7.53412 21
94 1 -12.6671 -10.0752 3.40383 15
95 1 8.73838 -6.72058 -3.1803 22
96 1 4.90976 -0.594539 -9.90486 21
97 1 -7.64835 0.0170157 -16.2605 11
98 1 -0.505498 12.326 2.52904 19
99 1 -10.0068 8.07506 -5.47419 23
100 1 5.46829 9.20461 18.1763 9
101 1 -2.64742 14.5906 -5.1547 18
102 1 -13.9661 11.6739 0.545812 13
103 1 2.5811 10.9688 -0.122602 18
104 1 -5.98608 -6.63955 4.31995 18
105 1 14.385 3.51223 9.59637 11
106 1 0.644248 -7.53503 -8.40512 23
107 1 -0.345152 -4.25231 -9.96636 18
108 1 -3.61701 6.43661 7.25168 19
109 1 1.02087 0.48502 17.9804 12
110 1 -12.7836 -6.28833 -1.79302 18
111 1 -8.60334 -6.67232 -5.23474 18
112 1 9.57757 -8.02059 2.89096 20
113 1 -2.21585 9.37429 1.67556 17
114 1 9.55188 2.05888 -15.3908 16
115 1 3.60633 19.3373 -3.51274 9
116 1 -9.54113 -13.8838 11.0665 10
117 1 -11.8016 -12.8618 9.3402 14
118 1 5.84244 -7.85142 -14.0078 8
119 1 4.63522 5.49808 -5.24048 20
120 1 9.75823 -10.5153 0.401609 12
121 1 -6.19909 -18.907 5.27519 11
122 1 -14.77 -8.2587 -0.900004 10
123 1 14.5412 12.0066 8.31196 13
124 1 15.5061 -0.265432 -10.4211 6
125 1 -17.8482 -3.54038 5.30002 12
126 1 10.66 14.1172 5.39056 21
127 1 13.4439 12.9049 3.48298 16
128 1 -1.72901 2.51329 17.5948 16
129 1 -4.97119 10.7773 9.24914 18
130 1 -5.95988 12.3204 -4.4515 20
131 1 -1.71794 -6.97607 -10.8351 17
132 1 9.30345 -10.0681 -8.06113 19
133 1 1.93293 11.1602 -11.9847 13
134 1 5.37929 -2.92442 13.1738 15
135 1 1.93877 1.21782 -16.2247 14
136 1 -1.66906 9.64451 -2.69344 20
137 1 12.9122 2.13161 -3.50913 22
138 1 -13.3854 7.03655 -3.74047 18
139 1 -9.11478 13.963 -0.505955 17
140 1 10.7041 0.614187 -8.49636 19
141 1 7.29518 -7.19728 4.47232 20
142 1 -7.37543 2.34541 -5.62505 22
143 1 -9.02176 12.3205 9.71541 12
144 1 14.6872 13.2562 -7.05196 6
145 1 6.29389 11.4278 -1.71026 20
146 1 -4.85848 15.6551 2.87713 17
147 1 9.1123 9.98691 0.156349 16
148 1 -4.49847 14.8931 -3.19286 20
149 1 0.795004 15.7522 -7.95391 11
150 1 3.289 2.95562 -13.1194 23
151 1 -13.234 -5.01631 1.10963 20
152 1 -15.6422 8.64048 1.2759 15
153 1 -4.87195 -2.46363 -11.5508 21
154 1 2.07482 -8.58933 -14.3925 12
155 1 9.74156 13.6864 8.16112 18
156 1 -0.467696 19.3451 6.38471 7
157 1 -13.0781 -2.41673 -5.68619 19
158 1 -11.5504 11.5676 -1.11125 20
159 1 16.507 5.74192 -1.3922 16
160 1 -11.4897 2.66476 -11.543 13
161 1 9.26621 4.83599 17.7472 14
162 1 3.04323 17.5245 1.33057 13
163 1 4.41587 15.0799 12.4082 12
164 1 2.8314 -5.18421 -13.5972 15
165 1 -3.04807 11.12 6.78117 22
166 1 -3.11036 11.4455 -4.63657 23
167 1 2.28502 0.620715 12.8828 20
168 1 -12.8651 -5.11621 4.93055 21
169 1 -1.80984 -12.1689 -11.3763 17
170 1 -10.4008 14.6269 -5.7308 10
171 1 -4.47587 -9.41397 4.78022 20
172 1 5.05398 -14.8272 -4.30922 16
173 1 -2.32358 9.66541 -7.0623 20
174 1 -13.5469 1.9312 11.5273 19
175 1 10.2952 11.2471 -4.13581 22
176 1 -9.08882 3.57913 15.5397 16
177 1 -2.23166 -7.54678 10.1128 13
178 1 -12.5872 5.53133 -0.814289 20
179 1 -2.27624 16.428 5.40617 20
180 1 0.855345 8.39975 8.99888 21
181 1 12.5075 5.91195 14.029 14
182 1 -6.7386 13.4179 4.34841 16
183 1 14.1786 -4.37471 -6.78627 11
184 1 -5.74033 13.6118 9.98109 13
185 1 -6.19521 3.70852 -8.13747 20
186 1 14.3771 -4.29861 3.07399 10
187 1 -9.1393 -6.26181 5.59695 18
188 1 -17.9423 4.00171 4.14376 8
189 1 -11.455 -7.22376 3.30046 14
190 1 8.38756 7.91785 14.0696 18
191 1 -14.7976 4.06296 -4.63992 14
192 1 -3.29236 -14.2654 2.28182 21
193 1 3.83074 -10.1206 -1.31134 16
194 1 0.197172 10.9521 4.89958 19
195 1 2.29654 14.726 10.1442 14
196 1 -8.39672 -0.681192 -5.40677 19
197 1 -8.23605 12.3931 -6.39878 15
198 1 -16.2028 -2.78678 -3.34387 15
199 1 -13.3889 -0.552919 9.07551 19
200 1 -0.775349 -9.55283 5.32504 21
201 1 3.17026 -12.9163 4.49549 19
202 1 -11.5649 10.0317 5.29326 15
203 1 15.275 5.3599 3.98119 17
204 1 6.12776 2.56838 -4.93954 21
205 1 -7.36671 -8.50237 -12.7047 15
206 1 4.00072 0.43084 9.92861 20
207 1 4.49451 -16.8598 0.957806 13
208 1 -1.77818 6.97285 -10.1473 18
209 1 3.46254 -9.84064 -11.4219 14
210 1 10.1875 3.86495 -10.133 21
211 1 3.35684 5.42573 -15.1718 14
212 1 -6.86908 -3.78353 -5.20274 19
213 1 -5.5105 17.5041 -2.44654 13
214 1 -11.2079 -10.9735 12.3654 12
215 1 6.03128 17.0296 -4.8239 14
216 1 -7.21481 1.56004 17.8856 9
217 1 -8.91273 18.0519 -2.41318 10
218 1 11.0146 1.75521 8.89383 18
219 1 -5.41123 -5.53458 -15.7904 13
220 1 -3.90295 8.67613 -4.9679 21
221 1 3.93983 2.74535 -10.4024 20
222 1 -7.04465 -10.6961 8.82729 20
223 1 -9.60287 5.87178 11.5452 18
224 1 -7.64823 7.62091 10.1484 17
225 1 2.61263 -10.4798 -7.44936 17
226 1 -10.3889 -14.8644 -0.256296 11
227 1 6.86051 -10.7255 -1.44747 20
228 1 13.0937 8.99212 14.6166 10
229 1 9.74619 15.099 -8.42863 13
230 1 -5.37046 9.95089 -2.34366 22
231 1 -9.04306 5.35118 4.72451 20
232 1 -14.421 10.3886 -2.74646 14
233 1 -0.879027 7.3993 11.1728 21
234 1 -0.224624 -14.006 1.19568 19
235 1 9.60341 1.68425 0.185139 18
236 1 3.16164 7.7288 6.10748 20
237 1 -14.066 7.38447 7.31548 15
238 1 -18.2607 -3.07378 -0.721268 12
239 1 8.27984 4.76802 -14.8752 13
240 1 2.38566 -2.18532 10.7506 19
241 1 10.5839 9.07699 -10.3065 13
242 1 1.46369 -9.55964 0.0925294 20
243 1 -3.40109 -1.50961 -9.18484 16
244 1 -3.00307 -17.8364 6.47309 10
245 1 12.4146 -2.03939 -6.6684 16
246 1 -7.51711 0.336934 7.79244 20
247 1 4.14083 -16.8434 -2.22728 12
248 1 -11.119 -7.96796 -9.10139 13
249 1 3.68796 15.9941 -2.872 17
250 1 1.39305 -2.6889 -12.7312 15
251 1 6.29838 3.24762 17.0827 13
252 1 17.0372 6.07789 1.69297 13
253 1 11.203 -5.36661 -8.26244 16
254 1 -8.77546 -5.46289 -8.80631 22
255 1 -11.0843 -1.81465 -11.744 17
256 1 -8.46497 -14.1236 8.54118 15
257 1 9.05849 1.77633 11.5128 22
258 1 4.08103 -3.40365 7.9556 19
259 1 -6.23356 -10.6395 -10.6211 17
260 1 -0.842375 -11.1932 9.82396 14
261 1 0.16956 11.0155 -9.42981 20
262 1 4.19529 8.78589 3.23259 23
263 1 -7.7742 -5.40954 2.4926 21
264 1 0.520262 14.4895 4.48188 21
265 1 -9.11636 -2.43148 11.5657 18
266 1 -14.5607 -2.78097 -8.1476 16
267 1 -6.53267 -5.47341 -11.0451 21
268 1 -4.4387 6.8316 -11.849 17
269 1 -7.29393 -10.4464 -5.75978 18
270 1 -2.98686 -8.33799 2.28344 22
271 1 6.28879 -3.23173 -12.0879 19
272 1 14.3094 2.42391 -12.2819 8
273 1 12.9145 8.42713 6.16425 23
274 1 -10.0834 -6.42666 9.44718 19
275 1 -8.76115 -9.33154 -0.851605 22
276 1 10.7735 7.63696 16.3322 16
277 1 -8.87561 -14.3218 3.94817 17
278 1 -1.3809 -11.0522 1.66474 20
279 1 -2.20159 17.8823 -3.99524e-04 13
280 1 12.5796 -0.803809 -12.9867 14
281 1 -5.27496 -2.25651 -15.6465 16
282 1 -11.5294 -7.55143 12.1543 14
283 1 2.81618 5.61276 18.9356 10
284 1 4.71669 -12.3848 -3.71776 20
285 1 -4.99856 -13.3947 -10.4472 10
286 1 -11.8623 3.5032 -8.67283 20
287 1 10.2069 9.05381 7.38389 20
288 1 -7.1694 7.29143 -6.92776 19
289 1 1.89953 8.07197 -10.5278 17
290 1 9.66609 -11.9802 -10.6298 7
291 1 -7.82373 20.1324 -0.0068055 6
292 1 2.61719 11.6278 2.67091 21
293 1 13.9479 2.2 4.90245 15
294 1 -10.7723 -3.24791 5.54496 22
295 1 -5.76867 -6.85899 13.4206 8
296 1 -7.19842 8.23791 4.4318 20
297 1 3.88516 -3.45499 -10.668 19
298 1 15.9859 12.1703 -1.37171 12
299 1 2.34226 -12.7814 -0.495177 21
300 1 -1.99291 -3.53102 13.6811 14
301 1 -17.0444 -6.92463 6.53441 12
302 1 -0.402563 -14.8518 -2.22939 17
303 1 -5.48792 7.25184 16.1907 11
304 1 -11.7434 1.14907 16.2283 10
305 1 -16.3135 -1.9411 7.80318 16
306 1 -15.6053 -6.45777 9.43993 13
307 1 12.9076 -3.80126 -0.713245 17
308 1 -12.7869 -9.29236 10.083 14
309 1 9.79166 -1.96682 -4.94398 17
310 1 10.4322 -9.83764 -4.34479 11
311 1 3.52428 16.9265 -6.68048 13
312 1 -10.529 15.982 -3.54617 11
313 1 9.79362 6.65379 11.7572 18
314 1 -10.8867 0.763109 1.95536 20
315 1 8.88589 -8.94465 -1.49553 19
316 1 -3.56933 12.3618 1.37452 22
317 1 -7.16629 6.0445 7.38087 19
318 1 4.49755 -9.33512 7.25301 18
319 1 13.5914 -5.38515 5.35172 11
320 1 -1.81963 8.75215 7.7606 20
321 1 -8.29964 -5.0244 -2.44185 23
322 1 -4.00396 -1.17054 13.4384 19
323 1 -2.78245 13.1049 4.33096 21
324 1 10.3563 10.5196 15.2661 10
325 1 -9.24732 12.0172 -3.42798 22
326 1 -0.48072 -1.72336 -16.2772 16
327 1 6.21591 -9.94969 -11.3146 16
328 1 -9.14408 -0.0426936 16.1678 17
329 1 -15.1606 2.66458 3.64675 16
330 1 -8.27245 -2.93688 -10.7191 21
331 1 -5.32159 9.07902 1.69603 18
332 1 9.52389 -1.35704 9.08791 18
333 1 -14.7123 -7.6366 2.26827 15
334 1 7.91836 -8.13189 8.05295 13
335 1 -9.1165 -8.54322 13.1434 13
336 1 -16.1377 10.8545 3.29417 8
337 1 1.80174 -5.02517 9.45472 18
338 1 -1.39024 -11.5623 -7.49786 18
339 1 -3.69114 1.12608 -8.15633 20
340 1 10.6202 -1.78489 -10.4394 17
341 1 1.01283 17.8104 3.84219 13
342 1 -10.716 0.591024 -3.39877 16
343 1 6.02763 -6.73245 -6.70894 17
344 1 10.333 3.69655 -12.6856 16
345 1 -6.36087 -13.6226 -5.1093 15
346 1 -16.5162 -3.67356 -5.87203 11
347 1 -4.84088 -9.16135 -0.667451 18
348 1 12.2062 4.48084 16.4511 11
349 1 9.22653 5.91638 -1.81607 18
350 1 -6.42711 5.64881 -9.94154 19
351 1 5.95814 18.047 -0.955227 12
352 1 -15.6104 -0.384787 -5.66318 12
353 1 -10.4266 6.36315 8.24556 17
354 1 -6.82001 11.822 2.138 18
355 1 -5.57737 3.19937 7.89622 19
356 1 6.91654 5.39786 15.6516 19
357 1 9.57948 1.6611 -5.46591 18
358 1 3.07751 -1.26568 16.4335 11
359 1 11.1579 3.53161 -6.75442 23
360 1 -10.2097 -12.5649 -2.07438 15
361 1 0.758583 -8.4991 -2.81811 20
362 1 0.919692 9.17472 2.47051 20
363 1 -11.1355 2.91355 -5.9605 16
364 1 5.44474 -13.9221 -0.948539 19
365 1 15.2882 0.215503 7.43973 7
366 1 -9.77354 -3.90622 -6.14623 17
367 1 -9.72747 -8.74829 2.11574 16
368 1 -8.04784 -4.84081 12.8779 16
369 1 -0.62393 11.2506 -0.0166305 21
370 1 -9.88911 -7.59883 -2.84895 22
371 1 6.3576 10.6214 13.8111 17
372 1 -10.5534 6.00851 -3.16214 20
373 1 -0.49211 12.2311 -6.14519 18
374 1 7.40478 17.6921 4.6412 11
375 1 -11.2835 -10.4794 -3.70861 14
376 1 -2.40702 -9.68775 -9.20401 21
377 1 -14.2348 1.09194 6.55207 22
378 1 -13.5941 8.62058 -0.949018 23
379 1 3.83048 -7.11496 4.34541 20
380 1 -6.77755 -11.8094 -0.0725681 16
381 1 11.4394 16.7202 7.29652 8
382 1 3.78122 10.6142 -10.0479 17
383 1 -13.4982 0.498833 -9.9233 16
384 1 -2.61627 15.2912 -8.34107 12
385 1 -9.35825 5.07552 -7.13033 18
386 1 -3.21411 -11.8166 4.82743 20
387 1 12.7796 4.94308 5.84626 18
388 1 -0.733006 8.04784 -12.4165 15
389 1 -3.44639 2.26066 10.5589 14
390 1 -17.1804 5.25894 0.542928 11
391 1 -7.79719 2.36868 10.1804 17
392 1 -6.95658 -14.7266 6.5524 19
393 1 2.48218 -4.95509 -8.08476 20
394 1 -10.815 2.62189 4.59813 20
395 1 -17.6489 -1.84768 11.3471 7
396 1 -12.4514 7.19776 10.0289 15
397 1 -0.944875 -5.8299 7.67624 21
398 1 -10.7674 1.06821 -14.161 10
399 1 5.74229 -5.63558 -3.57907 19
400 1 0.342205 -9.71213 -10.4573 20
401 1 -4.42313 -3.36094 10.6288 16
402 1 -7.38759 2.19911 -14.1963 16
403 1 5.29777 -15.9802 3.45199 13
404 1 2.12574 9.5413 -3.06427 20
405 1 -12.0199 10.4981 8.82533 13
406 1 -9.94186 -4.32608 14.8182 12
407 1 -12.6536 -4.70771 -10.6667 15
408 1 -9.31084 -2.23169 7.58146 21
409 1 8.80527 -4.40663 10.095 12
410 1 1.64312 3.74429 -8.36989 21
411 1 10.2891 -9.7267 5.74748 12
412 1 14.3791 12.2377 -4.43982 12
413 1 -6.5158 -0.795413 16.1314 15
414 1 -0.903885 14.6608 9.73391e-04 22
415 1 8.11279 -4.94845 6.95521 16
416 1 -2.9239 -13.5378 -4.91267 16
417 1 -6.05452 3.81078 16.093 16
418 1 -4.53677 14.3219 7.12661 20
419 1 -10.6059 -10.6524 -6.90585 13
420 1 8.58005 15.7661 0.264667 15
421 1 4.33581 8.75137 8.33491 21
422 1 -10.8319 2.7754 13.2376 18
423 1 -6.58299 -8.19896 -3.93076 19
424 1 -11.3548 2.27947 9.87193 19
425 1 -11.7277 -5.77617 -7.29632 17
426 1 -5.16092 9.14748 6.93162 18
427 1 -1.9566 -8.70074 -5.946 21
428 1 -5.02258 -7.94259 -14.0929 14
429 1 -8.86073 -15.6332 -3.29789 9
430 1 -7.47505 -3.59626 5.63865 20
431 1 10.6881 -0.580738 6.37097 14
432 1 -7.79684 -1.80237 13.9232 20
433 1 -6.90594 9.11474 -9.94597 17
434 1 7.94339 4.80971 0.528632 22
435 1 -7.99066 -11.3301 2.63621 17
436 1 1.08911 17.0462 -1.76667 18
437 1 -3.48869 4.18577 -9.70345 19
438 1 -3.0287 5.05174 11.0415 18
439 1 -16.1071 -0.0813654 -0.38594 15
440 1 1.69388 17.7969 -4.38295 14
441 1 7.65031 11.0904 -5.6637 19
442 1 -5.99956 -6.19075 -7.26944 20
443 1 3.76111 1.92579 18.2819 13
444 1 3.0833 -13.601 -6.55039 14
445 1 -0.299441 -1.04442 -10.252 19
446 1 7.55096 -14.9989 1.27052 11
447 1 -10.7997 12.0883 1.87619 14
448 1 4.28273 8.89132 12.0584 19
449 1 9.73307 7.33877 1.30437 21
450 1 5.52987 10.8384 1.19001 22
451 1 -8.69587 10.5442 -8.03604 17
452 1 4.41254 5.11925 -10.5446 18
453 1 0.0576267 -8.29022 2.35518 22
454 1 -15.2921 -2.81996 0.290577 19
455 1 4.10103 18.647 4.22789 13
456 1 -3.34022 2.85179 -12.3531 17
457 1 11.2658 8.00391 -2.27463 22
458 1 7.70399 17.5218 -8.58878 7
459 1 8.96488 -4.90595 4.08484 16
460 1 13.2601 5.21527 -1.4977 21
461 1 -2.85156 0.738465 -10.9636 20
462 1 0.389274 -11.294 -2.08456 16
463 1 -1.46557 -13.852 6.85443 16
464 1 0.338961 -8.70916 8.21475 18
465 1 -8.60167 1.57215 -7.96186 20
466 1 -9.07235 -8.36256 7.59584 17
467 1 0.488266 -12.6964 -9.59642 16
468 1 8.01204 15.8701 7.1306 15
469 1 -4.03656 6.87602 -7.6906 19
470 1 5.68744 0.329869 16.0197 11
471 1 -13.4615 6.2382 13.3477 9
472 1 -4.72054 -16.2619 0.534267 14
473 1 -14.448 -0.102954 1.99913 20
474 1 12.5169 -1.36639 -2.74307 20
475 1 9.74588 0.485074 -2.62742 18
476 1 -8.48769 9.47511 -2.37268 19
477 1 -0.0454604 -6.26225 -5.49306 22
478 1 3.54807 6.50288 -7.88441 20
479 1 9.78111 -4.66256 -1.1214 17
480 1 -8.61569 -2.338 17.8863 7
481 1 8.84927 12.9306 -1.4124 20
482 1 -3.51606 -2.51022 -17.5847 8
483 1 7.58851 0.504979 -17.3593 10
484 1 -5.75631 -2.42286 8.00823 18
485 1 -9.60354 17.3554 -0.0777375 9
486 1 -8.55067 -6.06618 -14.6662 10
487 1 -17.1619 3.06591 -2.30731 10
488 1 -1.56363 -9.42243 -13.6772 14
489 1 -7.608 -11.3659 11.8219 11
490 1 0.030824 8.99549 -4.76805 21
491 1 13.9001 6.21028 7.87064 17
492 1 16.583 9.07878 -0.0930885 16
493 1 -11.5011 -9.27328 -0.300132 19
494 1 -1.30365 -8.97921 -0.405243 22
495 1 0.243031 -4.46233 -17.3006 8
496 1 -7.35343 10.8617 11.604 14
497 1 1.26167 -2.06081 -8.39763 19
498 1 10.0537 -1.71564 -0.23434 18
499 1 6.08651 15.0692 -7.54304 14
500 1 5.57399 -5.8993 1.81603 19
501 1 13.9162 10.1784 -7.78569 11
502 1 2.45933 9.98376 15.2498 14
503 1 -13.0333 -2.31469 6.59961 23
504 1 7.38944 8.07261 8.48983 22
505 1 7.82141 1.84026 14.3113 17
506 1 5.41679 0.998388 -12.2367 19
507 1 -3.1571 -5.87425 -5.38482 18
508 1 0.632567 0.538114 10.7646 19
509 1 6.18934 14.3675 5.50807 19
510 1 5.67299 8.9153 -4.31913 21
511 1 -7.34469 9.51984 -4.76321 20
512 1 1.85058 13.6236 -1.69826 19
513 1 8.53552 -1.69204 12.2201 13
514 1 12.6053 1.55926 -10.1648 18
515 1 11.7853 -7.88904 -3.28677 16
516 1 10.8784 13.106 11.2279 11
517 1 -16.2247 -5.53836 4.02663 18
518 1 -6.50254 12.4635 -9.37543 13
519 1 -0.450197 3.7669 10.8276 20
520 1 -15.4307 -0.0580319 10.0465 17
521 1 -4.10048 13.0035 -6.90363 19
522 1 2.21106 -14.0694 -3.46521 16
523 1 6.40357 0.483078 -7.92957 19
524 1 -5.67744 15.5408 -5.83621 12
525 1 -9.74274 -6.6881 -11.3887 16
526 1 -1.04064 -13.2756 3.89977 20
527 1 -18.7996 0.0738661 -1.90863 5
528 1 2.24338 7.91297 -13.7527 10
529 1 -1.59155 10.6088 13.5955 14
530 1 -14.5374 -3.06664 9.7836 22
531 1 6.49255 7.66746 0.420096 23
532 1 0.926051 -9.20271 -5.39202 18
533 1 3.12614 -7.44355 10.858 12
534 1 -10.6827 6.37635 1.27121 23
535 1 6.13454 6.6305 18.386 15
536 1 4.61619 11.6791 -4.30192 24
537 1 11.4974 -7.22131 -0.189414 16
538 1 2.79568 11.9614 9.22101 16
539 1 0.635267 3.37109 -14.4845 13
540 1 -6.11084 -15.2176 10.3725 8
541 1 -0.633798 1.15973 -8.08284 25
542 1 10.3727 -0.805204 -15.5791 11
543 1 2.79091 13.155 5.63949 19
544 1 10.1566 6.06706 -7.29782 17
545 1 -1.64026 -2.07371 -13.1498 17
546 1 -4.87505 -12.2141 -3.41664 15
547 1 -10.3624 -4.184 -12.9184 17
548 1 11.3205 4.72082 0.826179 21
549 1 14.6905 3.61414 1.1434 20
550 1 8.21115 -4.82832 -6.13739 21
551 1 10.8613 9.29792 12.1875 17
552 1 6.40782 -8.65341 -3.8343 17
553 1 5.95349 3.01695 -15.2617 18
554 1 8.63285 15.3185 3.19977 16
555 1 -8.9505 3.41814 1.72969 21
556 1 7.48317 13.6935 12.3913 14
557 1 12.6083 9.50206 -4.91095 17
558 1 11.3271 2.58309 3.006 17
559 1 13.0602 6.71847 -6.9912 17
560 1 1.66419 3.86741 14.0014 18
561 1 14.4729 8.90489 9.0876 13
562 1 5.45859 -8.26525 10.085 12
563 1 13.9733 14.6686 -2.90075 10
564 1 1.14005 1.10709 15.5596 18
565 1 13.4381 1.06818 -6.8329 15
566 1 8.47114 4.49988 9.04081 18
567 1 -6.26025 -0.46874 -8.60542 19
568 1 14.1692 6.34072 1.1151 21
569 1 12.257 -1.91024 2.25836 14
570 1 -8.60681 6.48747 16.2836 11
571 1 6.29443 11.1137 9.97835 20
572 1 9.58 4.92079 13.8837 23
573 1 5.29834 11.7406 7.44881 16
574 1 -1.61756 10.6667 10.2236 19
575 1 7.9293 0.880433 5.99643 18
576 1 -1.17176 -16.7687 0.951139 13
577 1 -6.04872 13.3128 -1.27684 21
578 1 11.154 13.0642 -7.0034 16
579 1 7.8894 -1.0281 -10.2873 17
580 1 -2.32625 17.1479 -2.71685 16
581 1 0.143364 -12.9997 -6.4488 20
582 1 9.33211 -6.86191 -13.1408 10
583 1 -12.0846 4.07577 7.35675 17
584 1 -5.40009 9.90986 -7.17706 22
585 1 -3.46756 -18.2709 3.17877 13
586 1 -5.89633 1.74459 -10.3453 19
587 1 -13.9659 2.20401 -6.65919 22
588 1 12.7296 -8.02201 3.10613 9
589 1 11.9002 9.19497 0.696254 17
590 1 -1.43726 -4.11097 10.2418 16
591 1 -16.2319 0.341217 -8.55441 9
592 1 5.06992 0.0560136 -17.226 12
593 1 -4.55128 1.68445 16.14 16
594 1 7.24373 10.7681 -10.9677 11
595 1 11.7987 0.187586 11.4702 13
596 1 6.73177 7.09678 -6.71665 18
597 1 11.5606 15.3783 2.06459 13
598 1 6.14 -12.6897 -10.3254 11
599 1 -12.4907 -1.20466 11.9469 16
600 1 13.9782 0.841421 1.77874 17
601 1 -0.0764317 12.8151 12.2358 14
602 1 6.83155 14.1308 -10.1217 11
603 1 -14.7435 11.6771 -5.89768 7
604 1 10.7999 12.6157 2.06068 18
605 1 -12.1274 -13.3895 2.53793 9
606 1 15.8795 -1.89642 1.13312 11
607 1 6.02939 16.935 2.10299 16
608 1 -3.89782 3.95972 13.7463 18
609 1 -10.7758 -4.81305 3.03833 19
610 1 -9.44298 -0.784086 -8.81529 18
611 1 4.32578 5.70044 13.0852 22
612 1 -4.65549 -10.1103 9.86094 12
613 1 6.68333 7.74045 11.4358 24
614 1 -2.85526 12.3522 -2.02135 22
615 1 10.3263 5.89498 7.12631 19
616 1 9.24924 4.84273 3.67256 22
617 1 4.67004 2.75996 -17.8147 8
618 1 -10.94 0.559688 7.1661 21
619 1 12.0403 1.49694 -14.4194 12
620 1 10.9419 -8.02752 -9.94935 10
621 1 7.12957 4.80702 12.405 19
622 1 5.60341 5.81965 8.34888 20
623 1 -14.4873 2.97556 14.5457 11
624 1 13.6235 10.5828 11.6686 11
625 1 -2.0215 -0.259256 15.5924 15
626 1 -0.424567 5.81141 13.7106 21
627 1 -3.14439 -5.40349 -12.8665 19
628 1 -6.48591 1.54301 13.767 21
629 1 4.47355 2.44139 13.577 16
630 1 -8.74309 -16.6306 5.77009 13
631 1 14.4847 8.9042 -1.63719 18
632 1 6.10475 -12.7546 -6.68776 18
633 1 4.65829 9.11181 -1.78755 20
634 1 11.989 11.361 9.04159 17
635 1 7.00475 -1.27082 -14.4813 14
636 1 4.23133 13.5216 0.374097 18
637 1 16.2513 11.4357 1.78879 12
638 1 -10.8124 -11.6857 0.603716 17
639 1 1.87111 -1.24979 -18.1238 9
640 1 -8.92302 9.18446 1.60102 21
641 1 8.49401 -2.37095 -7.9238 17
642 1 11.1573 9.29013 -7.44076 20
643 1 8.13873 16.3582 -2.50462 13
644 1 -7.28268 6.32457 2.46859 23
645 1 6.18142 6.2005 -2.32335 20
646 1 11.6854 2.88826 13.2578 15
647 1 10.5358 0.0331568 14.1554 11
648 1 -2.75019 -13.6132 10.6449 8
649 1 -3.73009 9.83655 -9.74779 16
650 1 3.44795 17.1865 9.80906 11
651 1 8.09603 -7.64477 -9.66559 17
652 1 2.80499 2.97626 10.922 22
653 1 9.23425 16.2165 -5.99428 15
654 1 5.57204 11.4126 4.40582 21
655 1 12.9605 -7.57442 -5.80543 11
656 1 9.10385 8.32183 18.3241 9
657 1 -12.0701 -1.00647 4.44818 23
658 1 7.59825 -15.7334 -3.08904 13
659 1 1.88582 0.43551 -10.5286 20
660 1 -8.67206 10.5611 4.75469 20
661 1 3.74981 15.3535 3.38257 20
662 1 -17.5451 -2.36563 1.98217 15
663 1 -2.8223 5.15261 16.103 15
664 1 -5.82369 5.21047 -13.5047 12
665 1 -8.22735 7.26484 -12.121 12
666 1 1.58086 -16.1847 0.121602 15
667 1 9.1789 8.73525 -5.17763 21
668 1 -11.8152 5.30281 15.4292 11
669 1 3.53912 -1.28642 -13.3583 19
670 1 0.804607 -13.4901 9.54486 10
671 1 1.85735 14.3821 1.48327 19
672 1 -5.62198 -3.92871 14.4074 11
673 1 -9.79857 -10.2675 -10.4634 12
674 1 -4.1604 -9.98276 -12.2657 14
675 1 -7.41466 -11.4018 -8.43779 15
676 1 -0.949067 17.0673 -6.08796 11
677 1 5.34849 -3.8063 -5.08626 20
678 1 -2.21624 13.6025 9.59724 18
679 1 3.38382 -6.65023 -6.08435 20
680 1 7.59446 -16.4292 -6.34752 8
681 1 2.90006 -6.55765 7.251 17
682 1 17.0957 5.23324 -5.03293 7
683 1 1.95991 -15.9587 -5.30809 10
684 1 -15.202 -4.73862 6.64661 21
685 1 -6.04535 -17.1128 -1.81934 9
686 1 -8.00938 -11.0419 -2.97754 19
687 1 -16.5535 1.61677 12.1552 10
688 1 -9.05724 -17.8105 -0.768944 10
689 1 14.498 6.60682 -3.6944 17
690 1 -3.29063 18.4024 3.21111 11
691 1 -14.1857 10.7823 6.54533 9
692 1 9.77702 -0.370032 3.26413 16
693 1 -13.8486 -2.50073 -11.9412 8
694 1 -0.237431 15.0597 -3.55884 18
695 1 13.7517 -3.35228 -9.87637 11
696 1 7.40029 13.7642 9.78964 13
697 1 8.40051 5.18117 -5.02495 20
698 1 -17.1464 2.69686 -6.06751 11
699 1 -13.2803 -2.3373 -2.45193 16
700 1 -0.386944 5.90182 18.1934 10
701 1 8.49468 8.95398 -8.76109 18
702 1 12.9205 13.7136 6.73017 16
703 1 -2.7473 -0.985993 10.4572 16
704 1 -3.72991 -15.3029 -2.83067 13
705 1 -6.47062 -18.4989 1.68541 13
706 1 -3.82468 -5.18439 7.98275 19
707 1 9.23821 10.0047 10.0687 20
708 1 3.459 -8.12442 -9.15658 20
709 1 -6.93614 7.75869 -1.00657 21
710 1 8.08963 9.39558 2.76757 20
711 1 -9.22009 -2.37018 2.40523 22
712 1 10.0451 6.75004 -12.5148 8
713 1 -1.60536 -16.1933 -5.13862 10
714 1 1.16813 -14.3973 5.97543 14
715 1 -0.921087 -16.1302 4.29209 17
716 1 5.31768 3.85219 -7.86446 17
717 1 5.56889 14.3336 -2.07664 17
718 1 -4.59328 0.757604 -16.4699 13
719 1 -1.06035 2.69698 13.9592 18
720 1 1.58641 4.98563 -12.4002 18
721 1 -9.03298 -1.40951 -14.0037 18
722 1 -10.982 -3.49069 -0.985049 20
723 1 1.82511 14.1185 -5.49065 17
724 1 -2.47153 -4.38656 -15.4538 14
725 1 -10.1466 -6.20492 0.166683 25
726 1 12.2306 12.3862 -9.47247 10
727 1 11.2627 -4.96962 2.28894 18
728 1 -5.80625 4.9656 10.7695 19
729 1 5.18287 -10.2189 4.18105 22
730 1 15.4624 -2.81848 -2.14114 11
731 1 13.0266 -0.900026 8.75737 12
732 1 2.84709 10.2747 5.78527 20
733 1 -14.0877 0.388843 14.3155 12
734 1 -10.1308 7.60961 13.7927 12
735 1 -5.86849 -17.0166 7.65379 12
736 1 9.44757 7.90868 5.1452 21
737 1 4.19102 11.5601 16.9036 12
738 1 -14.4251 3.14326 -0.108805 19
739 1 6.41995 -8.82028 1.36247 26
740 1 -12.4524 12.6693 -4.13619 15
741 1 -4.08145 -14.8585 5.59567 22
742 1 5.75505 -0.00707285 12.5393 16
743 1 0.472421 12.1332 8.17607 20
744 1 1.48741 -11.6245 6.84203 20
745 1 -9.39416 -2.5697 -3.04086 21
746 1 5.01493 4.14384 10.5483 19
747 1 -16.5749 -5.58165 -2.84195 12
748 1 -0.461402 8.39125 15.7349 13
749 1 6.67591 13.996 1.59937 18
750 1 -14.4195 -10.9445 1.02746 11
751 1 -6.20919 -16.3162 3.90552 21
752 1 6.27581 -5.95022 12.0902 10
753 1 10.0679 -6.99112 6.18184 17
754 1 8.36089 11.3307 6.93108 22
755 1 -2.05269 -6.17983 -7.61613 19
756 1 -5.50592 0.290344 -13.1809 18
757 1 -8.74108 0.491918 12.8043 17
758 1 -1.80227 15.5412 2.57076 21
759 1 11.8174 6.38527 3.55858 22
760 1 3.0187 8.21986 -5.2668 22
761 1 -3.23497 8.0475 13.9216 13
762 1 3.87068 12.0316 12.2047 21
763 1 7.28649 2.32998 -10.379 18
764 1 -6.21424 -12.1731 5.10298 23
765 1 16.6745 3.16982 3.307 11
766 1 2.60621 0.751539 -7.99008 24
767 1 2.01378 7.66801 13.7407 19
768 1 7.63312 -10.6362 -5.31578 19
769 1 6.76611 4.15668 -12.1374 18
770 1 -3.41091 -7.80163 -2.98149 16
771 1 12.392 6.32824 -10.6424 11
772 1 14.9003 0.147943 -1.56889 17
773 1 0.549101 -5.17503 12.6714 11
774 1 -5.11353 -7.67084 -10.4156 21
775 1 8.1438 12.3117 4.14824 18
776 1 -15.0915 6.31958 10.4412 11
777 1 12.1873 5.57718 -4.17671 18
778 1 17.3519 8.98958 3.34738 11
779 1 5.24063 -6.22088 -11.7779 18
780 1 -6.85714 12.1241 7.34998 20
781 1 14.8838 15.6868 7.79081 5
782 1 10.5728 13.9631 -4.08805 16
783 1 5.24492 7.99809 -9.94417 16
784 1 8.65874 -6.30781 0.780979 24
785 1 -12.4327 3.84216 2.22147 20
786 1 11.5932 9.58653 3.89687 20
787 1 -16.3161 -5.57534 0.308643 15
788 1 -11.1281 11.088 -6.49182 18
789 1 4.85366 2.65859 7.84096 19
790 1 -11.4235 0.388047 -6.78998 16
791 1 -12.7523 5.70015 4.89997 15
792 1 -4.97192 5.36267 -5.6951 20
793 1 9.92851 -7.75707 -6.48023 19
794 1 -14.4312 -4.98799 -5.11171 17
795 1 14.1761 -6.05984 -2.79276 8
796 1 -14.1094 6.35239 1.61015 22
797 1 -11.9611 -4.87894 -3.95091 19
798 1 14.9 10.848 5.05568 16
799 1 -5.94509 -13.5367 2.56161 18
800 1 10.1122 1.9543 17.0438 8
801 1 13.7833 -3.04054 6.87258 11
802 1 14.5524 -1.44574 4.35386 15
803 1 -14.3168 8.35593 4.12544 18
804 1 1.04428 15.3907 7.89269 16
805 1 5.14743 9.46548 -7.41444 22
806 1 -0.221037 -6.67542 -14.8055 11
807 1 -5.33603 10.7608 4.41059 19
808 1 -9.90048 -10.0371 10.0715 23
809 1 8.07639 8.89361 -2.74807 19
810 1 1.42874 10.3853 11.7684 18
811 1 15.9046 1.87244 -4.50385 13
812 1 6.36036 -4.93068 9.31501 17
813 1 -2.56225 12.2945 -9.65268 18
814 1 2.43196 11.1152 -6.35224 19
815 1 -6.42073 -0.596278 10.9707 20
816 1 16.2994 7.80892 6.13082 14
817 1 -3.81453 -4.58484 -10.19 19
818 1 13.9763 13.4974 0.574401 14
819 1 -15.9653 7.07756 -1.67999 12
820 1 -6.67818 -7.15256 7.62373 20
821 1 3.34921 13.7081 -9.58185 13
822 1 6.46961 -1.86268 10.1318 17
823 1 -3.00083 -12.1576 -1.0579 17
824 1 -7.00123 14.9075 1.25116 14
825 1 -16.7649 6.53265 3.69165 10
826 1 15.0317 -1.10294 -4.90955 12
827 1 1.22839 -11.4872 -12.4607 14
828 1 -10.501 8.04928 3.78884 20
829 1 12.1825 11.5566 -1.82862 22
830 1 -9.26218 -0.369081 4.80543 22
831 1 9.03454 -3.22107 -13.2227 14
832 1 -7.76083 -8.01126 -9.14369 21
833 1 -1.67041 -10.7402 -4.05346 17
834 1 -3.72786 11.8194 11.5254 17
835 1 8.92006 -13.4426 -1.3331 10
836 1 -3.21986 10.0293 -12.555 10
837 1 14.0592 4.01314 -5.70665 18
838 1 6.09398 6.13624 3.33827 21
839 1 1.68702 -16.9619 3.48738 13
840 1 2.81161 -2.68019 -15.9716 13
841 1 12.1392 1.83464 -0.96563 18
842 1 -1.23153 5.11179 -13.2048 16
843 1 -3.80991 -8.16557 7.70338 16
844 1 7.18526 13.5103 -4.26817 22
845 1 8.5187 3.10746 -7.7124 17
846 1 -8.91577 3.37268 -2.96079 20
847 1 -15.0288 3.63196 9.21044 17
848 1 3.81939 4.87481 16.0327 20
849 1 -9.23706 -11.627 7.03319 19
850 1 6.61715 8.44856 5.65369 18
851 1 4.80516 -12.4905 7.25486 12
852 1 -0.0428885 11.8212 -3.23021 19
853 1 -4.03665 8.25826 9.78934 17
854 1 -9.86099 -0.372134 9.8495 21
855 1 -10.0924 11.5141 7.13913 13
856 1 8.02997 3.16908 -2.44886 21
857 1 -7.57961 -7.74244 10.4641 20
858 1 1.84329 -9.30214 5.29271 22
859 1 11.5151 7.36298 9.52823 20
860 1 7.7426 -3.10624 -3.01718 20
861 1 6.1593 -10.4326 -8.31075 20
862 1 -8.68286 0.202978 -11.8529 19
863 1 -1.3239 0.67945 -15.5155 15
864 1 5.44327 15.7124 9.89866 13
865 1 -13.1158 -4.9941 13.8101 8
866 1 -6.89604 6.45434 -3.41946 19
867 1 -12.3957 2.50942 -3.16267 16
868 1 11.8324 14.9903 -0.901814 15
869 1 -9.11121 -16.7844 2.16167 9
870 1 0.0904465 7.61648 6.1112 19
871 1 11.1747 11.6135 6.34615 21
872 1 -11.6754 -7.76106 -5.05442 12
873 1 2.63362 18.3709 6.90191 13