ITEM: TIMESTEP
47000
ITEM: NUMBER OF ATOMS
500
ITEM: BOX BOUNDS pp pp pp
-30.0 30.0
-30.0 30.0
-30.0 30.0
ITEM: ATOMS id type x y z Coordination
1 1 -0.83423 0.768951 6.22013 18
2 1 -10.1547 11.7357 9.96858 9
3 1 2.95013 1.71945 4.47833 13
4 1 -18.6593 3.31517 3.81142 12
5 1 -9.27258 5.62103 -7.91247 9
6 1 -0.468159 5.38212 9.27537 11
7 1 -15.3459 5.58355 1.24082 21
8 1 -6.62526 6.74194 -5.80844 16
9 1 -1.6373 -3.41872 -1.16848 11
10 1 -2.73562 4.44479 6.84799 20
11 1 -8.27711 9.79529 -5.12944 14
12 1 -7.6607 8.82009 10.9685 13
13 1 -14.804 3.49852 4.21693 23
14 1 -16.8002 2.73152 1.13288 18
15 1 -0.243767 1.83041 -3.38375 15
16 1 -5.2506 1.03597 13.0764 11
17 1 -15.8077 -2.59941 4.2028 16
18 1 -12.6737 0.66016 -5.98461 15
19 1 -3.64563 2.5274 -3.85203 19
20 1 -1.11391 -2.0025 4.33831 20
21 1 -17.1543 11.2987 4.8363 10
22 1 -8.08664 10.8719 2.25258 18
23 1 -8.80406 -0.625594 -3.36478 23
24 1 -10.7739 5.60261 10.1444 18
25 1 1.29772 -4.35248 4.74964 9
26 1 -12.6383 11.0345 7.79916 14
27 1 -6.56983 8.2381 -2.97011 21
28 1 -0.736046 12.2211 -1.70267 11
29 1 -11.5588 11.9674 -1.90065 10
30 1 -13.0306 8.16791 -3.17364 14
31 1 -15.119 10.8673 2.17784 13
32 1 -5.61057 13.801 2.7237 9
33 1 -16.9817 5.87336 4.3664 18
34 1 -4.98828 11.8106 8.03849 11
35 1 -11.4931 5.28895 -3.25795 23
36 1 -12.8059 -4.35155 9.48372 13
37 1 0.528484 -1.35576 -3.45381 8
38 1 -16.0618 3.9879 8.98221 15
39 1 -14.6094 3.59438 -0.943959 20
40 1 -10.2063 -6.4575 7.10773 14
41 1 -3.2048 7.9027 -2.74915 22
42 1 -13.1463 2.44374 -7.94787 11
43 1 -4.70309 9.81526 -5.38374 11
44 1 -9.74505 -4.87461 10.1699 13
45 1 -9.73069 12.2597 0.175242 16
46 1 -18.7005 5.01352 6.98546 11
47 1 -2.41675 10.1905 7.76337 11
48 1 -2.97626 3.70746 10.5074 15
49 1 -6.48073 -5.56427 -0.357139 14
50 1 -1.14955 4.80362 -2.5014 19
51 1 -13.428 -3.61802 2.06584 20
52 1 -10.2123 -3.09229 7.66996 23
53 1 -4.18654 0.0273237 10.4537 15
54 1 -5.31714 -2.40412 12.2599 10
55 1 -3.12603 12.4179 0.24546 13
56 1 -16.3479 -5.68388 4.53029 10
57 1 -12.717 -7.09074 4.8292 8
58 1 -11.7245 -2.8119 -0.84702 23
59 1 -8.75139 2.6577 10.0095 21
60 1 -16.9827 2.25747 6.68309 16
61 1 -5.34985 -5.88229 2.94834 13
62 1 -16.6873 0.719511 3.97295 18
63 1 -13.7003 11.9063 5.08962 15
64 1 -13.5936 7.75501 7.62061 21
65 1 -10.5934 8.67858 11.0583 12
66 1 -14.9634 -0.738186 -4.11588 13
67 1 -14.9166 5.68987 -3.67816 16
68 1 -11.9375 0.234754 -2.91982 20
69 1 2.07878 0.532709 7.86425 11
70 1 -10.5739 -0.31782 9.63204 20
71 1 -10.0436 3.34217 -6.69963 17
72 1 -16.5207 2.61294 -4.35804 14
73 1 -11.9683 -6.37803 1.56202 14
74 1 -13.8249 6.2161 10.2822 14
75 1 -13.6115 8.07406 2.2735 23
76 1 -8.6134 -6.41002 2.08206 16
77 1 -10.4433 12.4043 6.42763 14
78 1 -16.3632 1.47523 -7.63916 6
79 1 -16.9209 8.24418 2.63802 15
80 1 -9.65904 -3.75366 -3.47978 15
81 1 -1.29274 -4.53454 7.40737 12
82 1 -18.1036 7.17908 -1.67316 7
83 1 -13.851 -1.56486 9.55233 16
84 1 -15.1206 5.25688 6.50852 23
85 1 -7.36495 -2.65636 -5.05146 14
86 1 -5.85072 3.00202 10.704 19
87 1 -9.80272 0.579575 12.9985 12
88 1 -5.28828 -2.47856 -0.139825 22
89 1 2.31991 6.18701 1.10845 15
90 1 -5.29164 3.897 -6.21361 14
91 1 -2.46364 -1.64046 7.03453 18
92 1 -14.3321 -4.74451 -0.580833 14
93 1 -15.9035 0.887397 9.87609 13
94 1 2.06934 3.53084 6.95614 14
95 1 1.06314 9.4663 0.220075 13
96 1 -9.95784 8.35356 -2.78386 22
97 1 -4.52495 11.2456 -2.35183 17
98 1 -3.52537 12.1022 5.11057 12
99 1 -3.57765 6.69523 -5.55124 15
100 1 -7.20087 -6.89624 5.37392 10
101 1 -2.00737 -0.908591 1.13621 19
102 1 -10.2146 -3.74785 1.52019 22
103 1 -15.2938 4.152 -6.30153 12
104 1 2.0405 1.24614 -1.18215 12
105 1 -11.9897 9.28583 -0.292847 19
106 1 -4.42575 -3.25305 -2.65809 13
107 1 -15.4419 -0.341841 6.66511 16
108 1 -6.99192 -5.42481 -3.13281 12
109 1 -4.78886 -1.85798 -5.90163 11
110 1 -4.85811 8.6397 0.00280507 18
111 1 -2.49565 -4.58409 4.14433 14
112 1 -13.4914 -3.81903 -3.83794 9
113 1 -8.11712 3.18337 12.8767 14
114 1 -5.62751 4.88527 12.7744 11
115 1 -4.12823 1.54474 -6.94432 13
116 1 -18.0071 4.09011 -1.46354 12
117 1 -2.15522 9.90314 -0.510234 19
118 1 -1.43024 2.69705 -0.184665 20
119 1 -9.93744 9.28577 -8.16868 7
120 1 -16.3381 7.09031 8.55692 16
121 1 -7.387 -0.0271065 10.5564 20
122 1 -12.4563 4.68293 -5.66592 15
123 1 3.212 -1.55621 5.20155 10
124 1 -0.435055 2.5456 8.79608 13
125 1 -6.05131 -5.28982 9.89237 10
126 1 0.554426 7.74976 3.39077 15
127 1 -0.16589 5.99903 5.8747 17
128 1 -10.8997 -2.36339 -5.58463 12
129 1 -5.20255 8.82156 9.09271 19
130 1 -11.2544 10.1005 -5.20603 10
131 1 -9.13795 6.14669 12.8182 13
132 1 -15.2382 -6.12716 1.85416 12
133 1 -4.57284 6.94693 5.87823 19
134 1 -15.9093 10.1114 7.82372 15
135 1 -11.9388 9.43088 5.18621 21
136 1 -2.66611 12.7463 -3.75368 7
137 1 -3.11526 6.45319 11.0812 9
138 1 -7.57649 2.46055 -8.16474 9
139 1 -7.38439 5.76573 10.0506 19
140 1 0.557036 -1.5185 -0.484813 14
141 1 -2.02199 8.78274 5.10722 16
142 1 -4.67569 -5.00223 6.1356 16
143 1 -8.39289 10.6878 8.14722 17
144 1 -5.31364 -0.445135 -3.36793 18
145 1 -4.16709 -3.15524 9.02146 14
146 1 -11.3718 3.36142 12.2588 15
147 1 -0.876812 1.13588 2.72994 17
148 1 -8.03721 11.5359 -2.41052 15
149 1 1.48287 4.27151 -1.3098 13
150 1 -13.2916 0.574745 12.1714 12
151 1 -11.5073 -2.23352 11.2313 15
152 1 -15.0815 8.9849 5.26298 24
153 1 -1.3901 10.4778 2.74609 15
154 1 -15.7451 -3.94511 7.93639 9
155 1 1.91801 2.83644 1.63911 19
156 1 -16.722 -3.70427 1.35024 12
157 1 2.62528 4.91522 4.19801 12
158 1 0.0279507 -3.11076 1.85827 14
159 1 -6.91935 12.4 5.51212 15
160 1 -16.7839 0.616593 -1.41815 14
161 1 -11.8906 11.4117 1.98241 15
162 1 0.116214 6.71997 -4.52668 10
163 1 -13.6595 2.47033 -3.48865 25
164 1 -6.92754 0.728754 -5.87278 19
165 1 -9.79978 -5.77107 -1.15279 14
166 1 -7.44403 -4.50503 7.15935 19
167 1 2.39304 -0.539778 1.95265 14
168 1 -18.3927 5.19259 1.2159 13
169 1 -10.0988 6.77667 -5.60219 18
170 1 -15.6423 -2.50105 -1.3778 14
171 1 0.661496 -2.03889 7.15272 13
172 1 -10.1467 0.675885 -6.0454 18
173 1 -18.0012 8.3518 6.27177 14
174 1 -13.2441 3.36338 10.1309 16
175 1 -1.42633 7.82175 1.1926 20
176 1 -0.466581 9.92629 -4.05081 12
177 1 -8.00321 -2.87877 10.4508 18
178 1 -5.01643 5.45094 -3.02827 21
179 1 0.449424 7.48002 -1.7753 16
180 1 -2.92154 7.00073 8.13646 18
181 1 -6.70739 12.4803 0.169288 14
182 1 -1.86877 4.00314 -5.53691 13
183 1 -2.2819 -0.138407 -4.74248 14
184 1 -13.5095 9.86877 10.2993 11
185 1 -9.12883 13.3941 3.17704 11
186 1 -13.0556 -4.41969 6.0356 20
187 1 -2.99497 -3.29331 1.82249 17
188 1 -15.2157 -0.615353 1.51863 19
189 1 -14.9961 8.56698 -0.470637 14
190 2 -17.9393 1.86875 4.93754 13
191 2 2.03072 6.18494 3.0243 13
192 2 -11.9553 3.36611 -4.00601 23
193 2 -16.2072 0.516012 -3.26389 14
194 2 -9.92419 -3.02225 10.6924 14
195 2 -5.85622 2.94497 12.7632 12
196 2 -0.26486 1.49715 4.53891 19
197 2 -10.8508 7.39971 9.56394 24
198 2 -0.720195 -0.0225976 -3.69197 14
199 2 -10.7638 5.11418 -6.27662 17
200 2 -9.21686 -2.02273 -4.56204 15
201 2 -9.92547 12.0652 8.18462 11
202 2 2.31303 -0.918669 6.71254 11
203 2 -0.948722 11.6823 -3.66931 9
204 2 -11.7692 10.685 10.3298 10
205 2 -0.0330907 9.16945 1.88993 16
206 2 -3.81967 8.32677 -4.61244 15
207 2 -3.36603 2.85889 -5.96965 13
208 2 -13.4225 2.13534 -1.25372 23
209 2 -7.86741 -4.93888 9.86696 14
210 2 -17.523 3.80644 7.83159 13
211 2 -3.49178 -3.17753 -0.916361 15
212 2 -11.5216 -6.14843 5.80735 14
213 2 -4.14063 10.4861 8.93108 11
214 2 -4.62876 -0.662597 12.6249 9
215 2 -13.9851 -4.51611 7.93859 13
216 2 -8.38246 -6.48017 3.91307 15
217 2 -15.7823 -4.27271 5.95659 10
218 2 -11.8207 -6.29771 3.38127 16
219 2 -16.5744 -5.04232 2.71646 12
220 2 -13.4672 11.7157 3.13255 13
221 2 -5.34113 3.95796 -4.21157 21
222 2 0.159918 10.7671 -0.714369 15
223 2 0.330944 8.35578 -3.47576 12
224 2 -14.5269 5.44648 -1.85893 21
225 2 2.41051 3.17264 3.39662 17
226 2 -9.84555 11.8437 2.08442 16
227 2 -13.1612 6.35316 6.51571 23
228 2 -7.41638 13.3918 2.14348 12
229 2 -6.22844 11.6994 -1.63381 16
230 2 -7.6326 5.17453 12.2915 17
231 2 -7.95262 1.46259 11.7903 16
232 2 -6.70659 -1.21772 -6.2395 14
233 2 -8.08993 -4.26417 -4.33428 14
234 2 -6.74806 -3.75127 -0.156255 20
235 2 -15.1516 -2.46597 2.13639 20
236 2 -0.49817 -2.55064 -2.16158 10
237 2 -0.371672 7.80428 5.16041 14
238 2 -8.85477 3.85607 -8.15155 9
239 2 -5.88217 2.06264 -7.22081 13
240 2 -10.5093 0.45709 -4.22288 21
241 2 -5.14121 -2.29687 -4.17363 15
242 2 -1.76013 3.05984 -3.63088 16
243 2 -11.5607 -3.13913 5.9669 20
244 2 -7.17873 0.251733 -4.08331 20
245 2 -13.5965 -5.41676 1.10219 16
246 2 -9.91685 6.54274 -3.65434 21
247 2 -15.483 8.32265 7.01025 19
248 2 -13.6412 -3.2756 3.94628 20
249 2 -14.2639 10.4129 8.7372 14
250 2 -15.0524 -1.87926 7.90059 17
251 2 -18.398 3.5628 2.13422 14
252 2 -5.09696 -0.837248 8.94744 20
253 2 1.56051 4.44117 0.888038 16
254 2 -8.60329 1.66973 -6.76449 14
255 2 -5.58352 8.40772 7.10792 22
256 2 -2.49258 8.28163 6.92459 16
257 2 -9.90535 2.50567 13.0242 13
258 2 -12.4732 4.87975 9.71632 18
259 2 -16.6828 2.93528 -6.53697 8
260 2 -1.97385 11.2411 1.22537 14
261 2 -16.3452 0.852481 2.03327 18
262 2 -13.2867 8.19684 -1.45967 18
263 2 -4.98147 5.74038 -6.42855 13
264 2 -13.6072 8.35806 4.15131 24
265 2 -1.07072 -2.75396 0.538202 13
266 2 -6.7444 -5.56197 1.82727 16
267 2 -16.7446 10.4559 3.2327 12
268 2 -8.32908 -6.21401 6.78238 15
269 2 -5.54328 -6.09404 4.75701 14
270 2 -1.73507 5.44441 10.5767 11
271 2 -4.86744 12.9262 0.839727 10
272 2 -13.0281 -3.02019 10.8748 13
273 2 -9.51148 -3.88768 3.33084 20
274 2 -11.9894 -1.70981 8.74037 20
275 2 -3.80018 11.174 -4.36967 11
276 2 0.856462 2.44426 -1.74928 15
277 2 -2.4408 3.0499 8.32969 16
278 2 -3.21763 8.66687 1.0908 18
279 2 -7.80705 10.7228 4.85352 17
280 2 -15.6637 -0.686392 4.64257 16
281 2 -9.03127 9.92146 10.0811 13
282 2 0.118112 1.21617 7.77646 14
283 2 -8.3876 6.69597 -6.43835 15
284 2 -6.87156 7.65085 9.54154 17
285 2 -2.72945 -4.84156 5.91417 15
286 2 -17.0185 3.70593 -2.87098 14
287 2 -16.6493 8.25602 -1.37116 8
288 2 -13.6202 4.15803 -6.95104 15
289 2 -11.6144 -0.230907 11.3995 14
290 2 -2.90471 10.6701 3.99258 13
291 2 -14.9468 -2.54404 -3.16448 12
292 2 1.49387 -2.11424 1.04114 11
293 2 -16.8149 7.89629 4.81727 19
294 2 2.84037 -3.30304 4.64807 9
295 2 -16.5554 0.796108 7.87927 15
296 2 -13.1057 -4.07024 -1.70482 14
297 2 -8.15175 10.9667 0.114455 16
298 2 -17.3167 10.0814 6.5034 11
299 2 -8.74342 -1.07858 9.44763 20
300 2 -17.9941 6.84248 7.33201 13
301 2 -15.4975 8.34253 1.42986 15
302 2 -12.3392 9.06753 7.13184 23
303 2 -14.6722 3.8176 -4.34463 17
304 2 -5.27261 12.9719 4.52424 12
305 2 -13.8643 7.9448 10.559 13
306 2 -8.98273 4.62011 9.82491 24
307 2 -14.5621 1.22132 -6.82048 14
308 2 -9.96611 9.56623 -6.44838 11
309 2 -10.0316 -3.92053 -1.61081 18
310 2 -1.99267 4.74669 4.72465 19
311 2 1.6565 7.62451 0.139117 16
312 2 -4.8946 -3.68963 10.8628 11
313 2 -0.494377 4.71537 -0.739384 20
314 2 -3.76411 7.6264 9.76989 12
315 2 -10.8489 5.2229 12.0557 15
316 2 -15.552 -0.789419 -0.583053 15
317 2 -7.78112 -5.99865 -1.55229 12
318 2 -9.62428 12.4553 -1.88513 10
319 2 -15.0712 5.60993 8.91567 15
320 2 -15.1238 3.251 6.33039 22
321 2 -10.1242 -5.6066 0.816545 19
322 2 -4.28351 4.73515 11.5678 11
323 2 -6.60111 9.14045 -5.22021 13
324 2 -6.62419 8.10347 -0.940012 22
325 2 -5.6383 -4.81222 -2.29066 11
326 2 2.51775 1.87587 6.31765 14
327 2 0.852793 4.2006 8.75892 11
328 2 -11.7654 11.2649 -3.56997 11
329 2 -12.9506 6.29413 -4.11871 18
330 2 -11.3613 -0.81052 -6.31737 12
331 2 -6.76689 11.5705 7.32165 16
332 2 -11.7877 11.6437 -0.0365863 11
333 2 -18.3806 5.59527 -0.58086 10
334 2 -15.2357 11.0488 5.50003 17
335 2 -6.54747 6.41231 -3.77075 21
336 2 -3.52924 -0.413666 -6.18067 12
337 2 -16.8957 6.10601 2.17398 16
338 2 -9.58589 7.48761 -8.50564 7
339 2 -5.35018 -4.77293 8.26843 14
340 2 -14.321 0.117613 10.6016 14
341 2 -14.6004 2.67597 8.93246 18
342 2 -2.46396 -3.28462 8.24354 15
343 2 -18.4115 4.80895 5.07697 16
344 2 -10.5195 1.58703 9.20522 22
345 2 -10.8418 -4.83241 8.58251 17
346 2 2.87796 -0.0842133 3.7481 11
347 2 -5.31155 -0.643955 -1.46969 19
348 2 -12.0487 11.4991 5.96736 13
349 2 -11.6113 2.33216 -6.7044 16
350 2 -13.4932 0.307281 6.19485 21
351 2 -6.88476 -1.71459 11.4373 14
352 2 -3.07765 5.92169 -2.54382 20
353 2 -1.21874 5.38479 7.49832 16
354 2 -0.853729 -1.26626 6.19207 16
355 2 1.38824 -0.466508 -1.87529 10
356 2 -2.94987 -2.7497 4.31848 23
357 2 -0.211311 -4.07064 3.57488 14
358 2 -12.7903 2.33401 11.814 12
359 2 -1.51588 5.84516 -5.24405 12
360 2 -17.043 2.44411 -0.751895 15
361 2 -15.0549 5.60265 4.53597 18
362 2 0.437259 -3.89726 6.57355 13
363 2 -2.77023 12.5779 -1.71425 12
364 2 0.907161 5.72262 -2.55834 14
365 2 -4.07889 9.38145 -1.66167 16
366 2 -5.30796 -2.93845 6.49639 19
367 2 2.14506 0.929648 0.809493 13
368 2 -3.79438 -4.83982 2.67278 15
369 2 -11.4752 -3.582 -4.3228 10
370 2 -3.7372 11.2631 6.69728 13
371 2 -9.19711 13.3706 4.97283 11
372 2 -14.5475 -6.3502 4.48857 14
373 2 -9.13525 7.80694 11.9143 11
374 2 1.3548 4.64336 5.58196 14
375 2 -1.03246 8.37409 -0.64937 20
376 2 -11.528 8.6527 -4.10442 15
377 2 -15.9665 -4.06798 -0.441253 11
378 2 -2.03029 0.888948 -0.0682981 17
379 1 -13.8373 0.312213 -0.700083 24
380 1 -10.1706 2.38378 -3.54791 25
381 1 -8.44692 -2.72208 -0.66381 25
382 1 -10.0168 0.282519 -0.625676 24
383 2 -11.9346 -2.66843 1.20952 23
384 2 -13.7154 0.676585 1.35508 21
385 2 -13.3486 0.427594 -4.08101 18
386 2 -11.878 -0.781927 -1.28003 19
387 2 -8.66101 -2.49037 1.3071 23
388 2 -10.3857 -0.0413894 1.25931 23
389 2 -10.2047 2.04053 -1.54174 22
390 2 -8.76225 -0.982916 -1.39329 21
391 1 -13.4879 2.67793 1.72873 21
392 1 -12.1052 -0.699804 1.70381 21
393 1 -11.7785 -2.81696 4.11264 20
394 1 -13.5883 -0.0518458 4.18896 21
395 1 -13.8889 1.84738 7.28665 21
396 1 -12.3834 -1.02373 6.93333 19
397 1 -10.0155 -5.26582 4.41454 19
398 1 -10.3514 2.08311 2.07159 25
399 1 -8.7616 -0.642562 1.90667 23
400 1 -8.10671 -2.66122 4.64545 23
401 1 -10.2492 0.348252 4.55376 23
402 1 -10.5788 1.90059 7.21685 17
403 1 -8.35707 -1.17546 7.26415 21
404 2 -13.9556 1.87072 3.54638 21
405 2 -11.7638 -0.663756 3.84809 21
406 2 -8.53435 -3.08763 6.5807 19
407 2 -10.1123 -0.32808 6.69577 22
408 2 -10.3749 2.28439 4.03189 24
409 2 -8.46721 -0.666839 4.07805 23
410 2 -7.00772 1.64152 9.19257 21
411 1 -11.7999 3.13019 -0.98874 23
412 1 -13.1585 6.08991 -0.756161 22
413 1 -8.31413 5.54075 -3.1879 22
414 1 -8.57294 3.53631 -0.96405 22
415 1 -10.0001 6.47519 -0.340277 24
416 1 -8.41028 9.06758 -0.167735 24
417 2 -15.0575 3.62364 1.00299 21
418 2 -11.7416 3.2781 0.939436 24
419 2 -13.5559 6.38409 1.18086 23
420 2 -11.388 5.09196 -1.11658 23
421 2 -11.8713 9.11943 1.82722 21
422 2 -8.65843 3.6302 -3.38061 19
423 2 -8.66012 2.76097 1.47104 21
424 2 -10.1864 6.13433 1.57258 23
425 2 -10.4467 8.52295 -0.862065 21
426 2 -8.61915 5.60625 -1.2033 21
427 2 -8.69381 8.97869 1.65035 19
428 1 -11.863 5.22187 1.86885 21
429 1 -12.0203 3.12334 4.55801 24
430 1 -13.3851 6.26779 4.51128 23
431 1 -11.9341 4.92804 7.4772 23
432 1 -10.3529 8.10118 2.39385 23
433 1 -8.56953 4.85706 2.08659 22
434 1 -8.65464 3.19539 4.77143 22
435 1 -10.4955 6.25799 4.9195 22
436 1 -10.7022 7.83033 7.65092 19
437 1 -8.9127 4.70308 7.78179 23
438 1 -8.80188 9.16131 4.61211 17
439 2 -12.0423 3.10772 6.65817 23
440 2 -12.3216 4.90272 3.7698 23
441 2 -9.00101 2.82839 6.69157 23
442 2 -10.405 6.00639 6.95111 22
443 2 -10.5151 8.26109 4.47731 22
444 2 -8.91349 4.98683 4.02996 23
445 2 -6.11375 4.4502 9.49879 22
446 2 -8.75246 8.93334 7.46185 21
447 1 -6.77803 2.82863 -3.71401 19
448 1 -6.99367 0.21066 -0.783667 23
449 1 -3.60979 0.290009 -1.36551 16
450 2 -4.10452 -1.44964 1.21837 20
451 2 -7.13556 0.19467 1.13295 23
452 2 -7.01628 2.40495 -1.57669 24
453 2 -3.81931 0.781173 -3.48482 20
454 2 -1.0236 -0.828463 2.79224 18
455 2 -3.24952 3.05138 -0.612493 19
456 1 -7.17249 -3.50888 1.84159 21
457 1 -7.01999 1.99716 1.93997 22
458 1 -5.56932 -0.630278 2.23381 20
459 1 -4.76203 -2.429 4.44395 21
460 1 -7.13807 0.519996 4.82301 22
461 1 -6.94434 1.95114 7.22129 21
462 1 -5.42046 -1.11427 6.9703 22
463 1 -3.36633 3.26614 2.22252 20
464 1 -3.77578 1.02921 4.938 21
465 1 -3.98929 1.69454 7.99655 20
466 2 -6.06768 -2.80032 3.25511 22
467 2 -7.0101 0.0190556 6.83539 21
468 2 -6.94543 2.32358 4.07287 24
469 2 -5.42398 -0.275252 4.16575 19
470 2 -4.13281 1.88335 10.2131 14
471 2 -3.24024 0.207705 6.62051 20
472 2 -3.35011 2.64406 4.01299 19
473 1 -5.2303 2.81724 -0.789099 23
474 1 -6.96366 6.04863 -0.538702 21
475 1 -3.45152 5.27724 -0.516254 20
476 2 -5.25443 3.02093 1.36879 20
477 2 -6.92094 5.52656 1.38484 23
478 2 -8.48731 9.60399 -3.31092 18
479 2 -5.47033 4.79716 -1.08193 18
480 2 -5.76584 8.56977 1.73224 16
481 2 -1.16966 2.88148 1.82765 20
482 2 -3.64935 5.42883 1.65192 22
483 1 -7.26189 7.55742 2.38258 19
484 1 -5.54359 4.73779 2.4404 21
485 1 -5.23167 3.2115 4.7732 20
486 1 -7.3544 5.86753 4.97196 22
487 1 -7.46801 7.5604 7.6543 22
488 1 -5.71358 4.52324 7.24953 20
489 1 -6.51367 9.7868 6.15148 16
490 1 -3.97762 9.0569 2.70705 15
491 1 -0.318269 4.71233 1.18053 23
492 1 -0.788202 3.30936 4.53621 20
493 1 -2.55157 6.05519 3.54646 21
494 2 -5.09735 2.63737 6.60483 21
495 2 -7.49057 5.63927 7.03352 22
496 2 -7.56186 7.58554 4.26695 21
497 2 -5.45491 5.27845 4.58232 22
498 2 -4.10574 5.70744 7.17564 20
499 2 -3.54715 7.69606 4.37205 18
500 2 -0.961666 6.4244 2.4531 21
