ITEM: TIMESTEP
6000
ITEM: NUMBER OF ATOMS
2000
ITEM: BOX BOUNDS pp pp pp
-30.0 30.0
-30.0 30.0
-30.0 30.0
ITEM: ATOMS id type x y z Coordination
1 1 -10.5777 6.04175 -14.5481 10
2 1 -6.38325 -10.0953 -4.87651 20
3 1 4.27473 11.1992 13.4189 13
4 1 9.07946 -12.0841 6.07747 12
5 1 -10.5996 13.3866 -7.43727 13
6 1 8.5166 -9.96907 -15.2663 7
7 1 -12.481 4.32388 -7.50855 18
8 1 1.12415 -10.1422 10.6321 14
9 1 -9.52224 2.102 -11.3942 17
10 1 -14.4813 -9.52954 4.66173 10
11 1 14.2817 2.24654 -12.9745 10
12 1 -6.90353 1.0828 -0.589079 17
13 1 -4.12587 -13.7268 -0.906777 21
14 1 -12.7491 -8.27977 1.56281 19
15 1 0.745277 0.953532 16.6031 14
16 1 7.4535 -6.46257 6.49385 21
17 1 -0.990131 2.26075 8.33886 20
18 1 8.27203 -2.81302 1.08712 22
19 1 1.18362 7.30486 -7.27336 18
20 1 2.40113 -2.7735 12.7066 19
21 1 -7.76348 1.1177 -13.8655 18
22 1 -10.6011 -4.78863 12.3336 11
23 1 11.8739 6.73787 7.40992 19
24 1 7.57838 11.9599 -11.7076 14
25 1 4.75052 8.08383 -8.75528 17
26 1 16.2558 2.50678 11.3799 10
27 1 -9.02145 -0.877241 4.12194 19
28 1 -14.8316 5.29476 -9.28076 9
29 1 -2.75984 -3.31391 -10.2956 19
30 1 -10.4783 10.0411 8.71849 17
31 1 7.35227 -14.9377 6.0271 11
32 1 3.77494 -1.71148 7.50925 19
33 1 0.170707 -14.4793 -9.89563 10
34 1 6.69476 -13.1765 -1.77578 17
35 1 -6.91462 -15.3379 -1.93132 13
36 1 -10.1407 -4.57219 9.22194 23
37 1 2.79276 -4.73244 -6.08439 25
38 1 -3.40373 -9.15966 -9.88866 19
39 1 8.83271 -6.82943 -14.0844 14
40 1 -0.434976 6.6888 -14.6576 14
41 1 0.506371 3.68685 13.2216 20
42 1 -5.60922 -11.6663 1.3454 19
43 1 7.0715 -9.75219 11.332 9
44 1 -14.0682 -0.576776 1.92128 14
45 1 -13.6408 -1.39 7.95815 12
46 1 -12.4752 2.26248 0.481357 22
47 1 -0.527432 11.6642 -3.61307 17
48 1 -2.54762 -12.3624 -6.78712 17
49 1 0.895231 0.40923 -11.2209 15
50 1 5.10489 -10.1221 -6.71265 16
51 1 -0.742128 -4.79597 13.1103 19
52 1 -13.1267 10.3921 -3.40079 13
53 1 8.00848 14.2989 -9.35222 10
54 1 0.125595 12.8421 12.7538 13
55 1 -8.01791 4.93061 -6.25928 21
56 1 -6.87624 14.91 -4.08727 14
57 1 4.27573 -13.7403 4.12617 18
58 1 8.15987 -5.21475 -8.46441 23
59 1 3.60022 -8.81928 -13.7476 14
60 1 -11.6126 9.21407 11.6352 14
61 1 -12.8751 -2.59702 -5.83149 19
62 1 6.4884 0.929358 4.28519 21
63 1 -7.60207 7.96922 -4.62336 19
64 1 -5.50588 -11.0284 4.5545 18
65 1 -6.49084 9.51113 12.4289 18
66 1 -16.3454 5.08589 -5.18331 8
67 1 -9.5531 8.66877 13.5103 14
68 1 3.06886 6.55071 -2.93202 17
69 1 1.95731 7.53662 8.09129 18
70 1 -8.14014 -15.8973 3.51314 16
71 1 2.04653 8.83329 10.5416 20
72 1 9.29992 -11.623 -4.42739 19
73 1 1.85811 11.8654 15.286 14
74 1 -12.2401 2.78643 -14.2587 11
75 1 -10.4338 3.47315 -9.64572 19
76 1 5.92341 5.10945 11.8469 19
77 1 8.88031 -3.26269 -10.6452 18
78 1 7.5266 -14.7133 2.536 15
79 1 -16.1393 1.73483 6.61619 9
80 1 -12.2351 -0.404253 -0.758692 17
81 1 3.82814 12.0153 7.32711 22
82 1 8.44965 -6.56636 12.4058 13
83 1 -9.08025 -12.057 2.32534 21
84 1 -9.14503 -0.527724 -0.553812 21
85 1 16.0043 2.33598 6.11505 16
86 1 10.015 -2.48987 -4.58309 18
87 1 -2.91371 11.0818 11.9139 15
88 1 7.1867 -0.888205 6.49991 20
89 1 -7.13229 -3.71915 -0.591846 21
90 1 -5.74451 -6.81368 -5.8292 20
91 1 -13.9058 11.5317 9.96694 9
92 1 -8.50723 10.9461 -6.86122 20
93 1 -0.711244 9.10012 -9.40018 21
94 1 6.41546 -0.153446 -3.46013 20
95 1 4.99402 -0.900416 -6.70629 17
96 1 9.97808 11.9709 -10.4643 10
97 1 10.3484 -6.80354 0.663464 22
98 1 4.22795 -10.1033 4.52144 19
99 1 -5.2451 14.4001 -9.41266 15
100 1 -10.3908 13.1636 4.40137 11
101 1 -6.35779 -4.67647 9.87869 18
102 1 -3.86985 8.71779 3.26578 22
103 1 -3.92472 -5.44858 13.2995 14
104 1 10.0507 -2.49916 -8.16489 17
105 1 -8.02979 6.60456 0.554966 21
106 1 -11.3389 -13.5407 1.05525 15
107 1 9.86954 -7.52577 -7.7512 23
108 1 8.56626 -3.8641 -14.9439 15
109 1 -6.78457 1.71793 -17.1388 11
110 1 4.95624 -1.65201 4.98607 20
111 1 -3.07422 13.4589 3.12146 15
112 1 -5.24918 5.75779 -5.1037 21
113 1 -2.83597 6.56717 19.2924 12
114 1 -1.65804 13.5226 -6.14994 18
115 1 -14.0373 13.7803 0.977497 8
116 1 -0.960239 7.15318 4.24905 20
117 1 -4.51503 -8.75033 7.83829 20
118 1 14.0134 -1.38779 7.91476 17
119 1 -4.16716 -4.64427 -8.17561 18
120 1 3.89468 -7.36438 -5.38883 23
121 1 -4.0574 2.16912 10.3739 19
122 1 6.576 -4.00977 13.8823 13
123 1 -10.6571 -6.19284 -3.33966 19
124 1 7.08954 -3.83713 4.02917 19
125 1 -9.60842 -8.8756 -4.72268 16
126 1 13.0423 -5.13186 1.33473 17
127 1 -4.17201 7.6351 -0.0594532 20
128 1 8.12047 8.52297 -11.368 22
129 1 5.26756 15.5628 -4.29596 16
130 1 -8.05806 -10.3969 11.3796 14
131 1 -9.53971 -13.5229 10.8739 10
132 1 -4.78555 5.0979 -0.108994 19
133 1 6.73312 -8.82657 -13.3203 16
134 1 5.15059 2.95065 -3.60298 21
135 1 11.9254 -9.21301 1.37968 19
136 1 -4.72187 -15.2226 9.27237 17
137 1 -10.2093 -9.55517 0.923869 20
138 1 14.9582 7.18572 8.52962 13
139 1 12.7999 -2.06096 -6.37916 17
140 1 -15.7872 -0.27022 -0.0305165 15
141 1 10.2944 9.53875 3.7744 18
142 1 12.805 9.3082 2.77672 19
143 1 -7.27903 -0.510083 15.2798 14
144 1 8.32747 4.27257 -1.34046 20
145 1 -7.10264 9.7615 9.54253 18
146 1 -5.25877 11.319 -7.97661 17
147 1 -3.64613 -7.47316 -12.6661 18
148 1 10.4841 -14.448 -4.45606 12
149 1 2.55883 17.0253 -8.97814 10
150 1 11.9605 -4.35106 8.80939 17
151 1 -0.0722861 -5.39698 -16.7685 14
152 1 -1.85696 6.8805 -7.194 19
153 1 11.7205 4.60778 -1.21187 17
154 1 -9.67911 8.11279 -6.63194 18
155 1 -10.2666 13.1249 -4.23154 20
156 1 3.55367 -1.23012 -11.7933 18
157 1 10.0244 -13.6596 3.85834 12
158 1 -2.6386 1.60541 -6.74958 19
159 1 -3.79088 14.2675 9.94497 10
160 1 11.7545 6.43262 -6.60991 20
161 1 7.5145 12.7809 -0.200396 19
162 1 -3.49655 17.5595 -3.74853 13
163 1 14.5474 8.71514 -3.85547 12
164 1 -0.745289 10.8768 0.531697 16
165 1 1.93777 15.6247 -5.05955 15
166 1 2.15582 14.6711 -11.4601 12
167 1 -16.5023 -7.80195 2.98736 9
168 1 -13.492 13.0844 -2.07435 12
169 1 -4.10195 -5.55165 -10.8983 16
170 1 1.58034 -11.3151 -12.5017 13
171 1 11.1033 11.8767 8.17595 13
172 1 1.39735 17.2945 8.50614 11
173 1 -12.5989 1.52316 -3.67473 18
174 1 -8.11987 11.6806 1.09347 18
175 1 15.575 -0.671372 -7.12115 13
176 1 -11.3741 -0.292781 -15.0616 13
177 1 6.80835 -1.31851 10.9228 15
178 1 0.889644 18.3809 2.93784 11
179 1 -1.0887 8.68273 7.18176 18
180 1 0.76707 -8.76079 -14.7799 12
181 1 -5.99517 13.2258 7.91112 16
182 1 -2.3778 9.18148 -1.9812 22
183 1 5.34531 -7.11702 13.1323 11
184 1 -14.9647 -5.96977 0.775634 15
185 1 -3.37753 -12.8308 -9.61224 13
186 1 -2.6262 6.75918 -10.0989 19
187 1 0.734331 -9.32347 5.05439 20
188 1 4.4481 -14.7795 -2.44618 16
189 1 -2.5652 11.8904 -13.0008 12
190 1 -12.4886 1.19077 6.634 15
191 1 5.33635 9.01397 -2.55852 17
192 1 10.1949 9.06459 -5.14089 20
193 1 -6.85018 1.9513 17.7112 10
194 1 -1.62648 -16.093 9.447 15
195 1 -9.24541 1.30351 2.0929 21
196 1 -0.760541 17.8827 5.44425 12
197 1 0.518464 5.28806 9.95686 17
198 1 13.69 3.40544 12.8256 11
199 1 -11.0117 13.339 1.12899 16
200 1 12.8412 -6.98634 -10.0482 11
201 1 -5.77222 12.243 11.6221 12
202 1 -4.9878 -0.150818 -5.42415 19
203 1 11.976 -2.24808 1.85569 21
204 1 -7.42355 -1.0817 6.45206 18
205 1 -14.0032 3.40817 4.47626 16
206 1 -10.0724 -6.50563 2.38431 21
207 1 5.29571 1.2305 15.9446 13
208 1 -17.3156 2.33577 -0.480098 10
209 1 -2.7442 -14.3375 1.45469 20
210 1 -6.91318 -1.0083 -2.96514 19
211 1 6.04886 -5.96611 -3.90768 20
212 1 -6.38526 9.31503 1.5446 21
213 1 -7.64626 0.691309 10.4612 18
214 1 6.31429 14.464 8.91036 13
215 1 -10.3167 2.94331 -5.48214 19
216 1 -5.40517 12.6715 -11.9867 12
217 1 -10.0371 -3.27632 -5.52978 23
218 1 -8.8361 -2.13931 9.4835 19
219 1 -0.042831 -11.4593 6.94908 19
220 1 2.94549 -16.2449 5.72039 12
221 1 -12.3382 11.5898 6.8464 16
222 1 16.7899 3.8177 2.96917 15
223 1 3.81022 2.41854 -5.76966 21
224 1 -9.5351 -2.88318 -16.0497 11
225 1 3.94843 -0.434501 11.105 16
226 1 5.64792 -15.7098 -0.17765 14
227 1 -3.193 8.40594 -14.5009 12
228 1 4.4013 -14.6707 -8.0317 9
229 1 11.3473 -1.94717 -13.8925 12
230 1 5.19297 3.90484 -13.399 16
231 1 -7.25555 -4.83712 -9.83429 20
232 1 -2.74937 14.6936 -11.2067 14
233 1 -10.0876 -9.83184 9.52725 15
234 1 9.99468 12.3836 -4.56379 16
235 1 -9.561 2.46884 15.5983 12
236 1 -8.52284 15.6021 -8.20392 8
237 1 7.00781 1.65343 9.41421 17
238 1 -6.7611 -4.37144 -15.1801 12
239 1 -5.29359 9.34679 -12.8492 14
240 1 2.02644 3.72157 -9.1021 18
241 1 -9.68925 -12.5743 7.87993 14
242 1 -9.85176 5.91922 6.02555 18
243 1 -6.32677 8.51142 5.90655 18
244 1 3.21906 -12.624 -10.3056 11
245 1 -9.05323 -11.8318 -1.17548 21
246 1 11.3113 -6.22781 -1.98756 18
247 1 3.16059 -5.69356 0.871566 21
248 1 10.4334 4.3923 13.5007 14
249 1 5.38723 9.94853 -12.1981 11
250 1 1.18403 9.48418 -4.45745 19
251 1 -10.8665 8.15962 0.764565 23
252 1 -11.1154 11.3671 -1.10167 21
253 1 2.72149 2.76873 11.013 18
254 1 3.22624 -17.0912 0.584548 11
255 1 13.3557 2.04978 -3.01417 21
256 1 -1.2905 5.07226 7.22584 17
257 1 -13.2238 8.78844 2.33673 19
258 1 -12.8435 -3.98485 -2.80541 22
259 1 5.34151 1.06184 -13.5168 14
260 1 3.33459 -4.99817 8.13748 19
261 1 9.21631 10.3885 -14.255 7
262 1 4.3332 -9.3911 -2.84203 20
263 1 -4.81652 0.0921407 -11.7078 20
264 1 0.516034 -17.6371 3.97628 13
265 1 14.6479 -0.579306 -10.6456 10
266 1 -12.2527 -5.8989 -0.387621 20
267 1 3.28569 -14.0536 -5.15612 16
268 1 -12.9849 1.24701 -7.1757 15
269 1 0.775121 12.1941 -1.31985 18
270 1 0.73241 -3.13654 -11.3793 23
271 1 7.74847 3.03381 14.2169 17
272 1 16.5275 3.43511 -2.1019 15
273 1 -3.16386 -6.17001 2.15579 22
274 1 12.4759 -3.26365 -11.3605 12
275 1 -1.4052 -8.71463 2.31381 22
276 1 -9.00128 -4.05833 -12.2991 20
277 1 -13.5197 2.6434 -11.7343 10
278 1 -5.05975 -13.4435 6.45979 20
279 1 10.9762 -1.28119 7.60782 18
280 1 5.32079 -6.63644 8.91518 16
281 1 -6.98437 -9.16757 -12.8227 12
282 1 0.206541 -5.58309 8.06926 23
283 1 2.54129 4.76279 -14.4609 14
284 1 8.36639 8.97168 1.69768 17
285 1 -7.04844 -6.77686 2.23256 22
286 1 -1.22419 10.6087 4.19645 19
287 1 -7.32446 3.29689 6.71693 19
288 1 -10.4236 -8.65193 -7.88309 16
289 1 -7.03352 -6.1476 -12.4486 16
290 1 -2.64131 5.57901 -16.0323 14
291 1 -7.06479 -9.47286 -7.86697 20
292 1 -7.53928 -9.48502 0.76881 20
293 1 6.52153 -2.23511 -13.6417 20
294 1 10.3434 1.24846 -13.9587 17
295 1 13.8655 -0.0732901 1.78407 16
296 1 -0.375608 -6.06023 -3.31667 20
297 1 -8.4194 -3.99712 7.25903 22
298 1 -5.4035 -7.85035 -2.42355 16
299 1 11.558 1.98039 12.0902 17
300 1 -4.71481 -16.6823 3.6121 15
301 1 -1.80705 -16.0437 4.14811 21
302 1 -3.95347 14.1984 -4.28567 20
303 1 10.0138 4.19431 -16.6826 9
304 1 -11.7595 -2.86937 -13.6038 13
305 1 4.85404 -7.19011 -0.687156 21
306 1 -11.6749 -6.93871 9.37461 15
307 1 0.153826 5.76071 18.5658 11
308 1 3.25753 -10.6662 -0.437671 18
309 1 -5.86291 -11.2074 -10.5347 16
310 1 -5.71421 3.1405 -5.80229 19
311 1 12.7191 1.34292 6.49646 20
312 1 -3.76377 3.51272 -10.484 19
313 1 4.078 11.4368 -10.3944 17
314 1 -5.27256 -3.39821 7.10052 21
315 1 11.4892 -10.4885 -6.47101 13
316 1 -5.57309 14.1358 -6.68006 19
317 1 2.68217 12.193 4.80761 20
318 1 10.2521 1.76108 3.50894 21
319 1 -13.0487 5.14463 1.55784 19
320 1 -1.02815 -7.61067 14.1959 11
321 1 -6.211 5.96818 3.11051 19
322 1 2.03076 -5.79676 -10.1843 22
323 1 13.2879 9.56257 -6.71521 12
324 1 5.10035 -8.97816 1.76795 19
325 1 -2.57511 -2.0901 12.5028 19
326 1 -14.9444 -4.58697 6.38124 12
327 1 -2.66529 -17.1368 -4.33629 11
328 1 -8.08933 5.68478 12.3747 19
329 1 -11.9415 2.74335 12.6051 13
330 1 -13.2294 -3.71327 9.05886 13
331 1 -11.9217 -5.44243 6.92189 19
332 1 16.597 -3.32976 -2.8169 11
333 1 -12.6248 -8.69328 6.79493 14
334 1 7.14519 -2.09367 -8.41842 23
335 1 13.0041 -7.22447 -6.53048 15
336 1 2.74263 17.1206 -2.41403 12
337 1 -3.0981 -4.06474 4.52973 21
338 1 -10.9932 15.4622 -5.42252 9
339 1 2.15948 2.07606 8.31102 18
340 1 4.93783 7.99715 12.5656 20
341 1 -9.84684 -3.8871 4.94238 20
342 1 10.4636 -9.53232 -1.93722 23
343 1 -6.59188 10.656 4.29975 16
344 1 -11.8934 8.88112 5.523 21
345 1 4.43136 -14.3947 7.69358 12
346 1 13.6304 -7.96205 3.50869 10
347 1 -4.23623 8.36609 8.74378 17
348 1 -5.73887 -2.03078 -9.05484 17
349 1 -5.12156 2.21056 15.3186 18
350 1 -2.57831 14.9142 5.51168 15
351 1 8.63544 5.71569 16.0146 11
352 1 -7.92666 12.7876 -9.94633 16
353 1 -1.72179 -2.43367 -15.9181 16
354 1 -4.19811 2.97903 -3.0731 20
355 1 4.98251 -10.8139 -12.2534 14
356 1 -15.0161 5.63483 9.73872 11
357 1 -18.3424 6.72341 2.91276 7
358 1 -3.43098 -0.835745 -7.66677 20
359 1 -8.65423 8.88279 -1.43891 19
360 1 9.68114 -3.21262 5.85643 18
361 1 -13.3293 -10.8791 0.272997 15
362 1 5.49339 -6.80329 4.01118 20
363 1 -6.94164 -8.76273 9.92707 20
364 1 -14.7746 11.0914 -0.0932072 12
365 1 -0.214071 -3.4186 10.0702 22
366 1 -0.729306 -10.4335 -5.28632 19
367 1 -5.59396 0.972688 -8.80407 20
368 1 5.15447 -4.11173 -15.6859 15
369 1 0.925688 14.6549 4.09767 23
370 1 -14.7996 3.95991 -1.28699 15
371 1 6.62673 -12.6949 -9.50488 10
372 1 9.84084 6.97974 -13.9921 15
373 1 -6.64095 -12.4632 -3.15873 19
374 1 -14.4256 -5.09366 -5.48657 13
375 1 -1.9339 -6.87368 -0.350407 21
376 1 6.28428 -0.569701 13.9143 14
377 1 13.5587 2.75497 3.36274 18
378 1 -7.18656 3.97122 -9.64973 20
379 1 0.687322 17.1742 -0.146393 15
380 1 -11.4855 -1.45407 -2.93122 21
381 1 -9.05347 8.80916 6.56262 17
382 1 -3.83435 11.2585 1.39937 18
383 1 -3.27501 6.72835 5.68798 21
384 1 8.53838 4.25641 11.0021 23
385 1 8.7696 -0.429503 -5.43571 20
386 1 12.2692 -4.09 12.5183 8
387 1 12.3457 0.832877 -7.82773 18
388 1 -9.72762 -15.0725 -0.103449 14
389 1 4.27541 4.20601 8.37655 17
390 1 0.0748804 5.29985 -3.65598 22
391 1 1.25847 -9.04739 -3.33665 25
392 1 -4.17305 12.5753 5.36678 19
393 1 -15.396 2.03271 -3.81895 17
394 1 7.06673 -10.0261 -1.50012 21
395 1 9.11993 1.35863 6.22582 21
396 1 -7.87114 -1.69563 -10.3851 19
397 1 -10.2014 -13.7787 4.41257 15
398 1 -5.13554 -6.77041 11.2038 17
399 1 -5.73437 10.1277 -1.49572 19
400 1 -13.4874 -7.04129 -3.35688 16
401 1 8.04257 9.37832 15.6608 9
402 1 -6.1253 7.08796 -2.43032 20
403 1 -2.59628 12.3229 -8.35897 20
404 1 4.98 9.42731 8.35945 19
405 1 -15.8983 -5.09553 -2.06143 14
406 1 -3.6327 -10.9898 -3.76333 19
407 1 -11.7646 1.41978 3.1754 20
408 1 -9.55919 9.76418 -8.91078 13
409 1 1.8255 -6.60375 5.24902 24
410 1 -0.827557 -15.0597 -1.33633 19
411 1 12.8166 13.6282 6.56026 9
412 1 7.70198 4.7798 -14.9342 12
413 1 -6.12884 2.95719 -11.8692 20
414 1 -3.22674 10.9613 -5.09866 19
415 1 -7.54661 1.88152 -4.19147 21
416 1 -2.13783 -13.8331 6.91786 19
417 1 14.1398 4.47595 5.61528 20
418 1 5.19455 7.09222 -13.0029 14
419 1 -3.81904 -0.930139 6.89615 18
420 1 -16.9875 6.20996 -0.0989142 10
421 1 -8.40241 3.94454 3.42364 21
422 1 -0.90617 -11.2669 3.36321 19
423 1 0.905525 -7.9031 -5.31327 22
424 1 -0.39165 -11.5478 -9.88578 18
425 1 1.94457 -3.27012 7.17154 22
426 1 -17.8369 4.92789 7.55495 7
427 1 -10.6635 -1.49517 6.99251 20
428 1 -14.6407 9.00884 7.88667 15
429 1 -4.48598 -8.94924 2.5375 21
430 1 -10.0178 2.72161 -15.9363 11
431 1 8.33643 -10.4528 -6.88951 18
432 1 0.444844 -13.0993 -6.98373 19
433 1 -2.90352 -4.51193 10.171 21
434 1 3.07011 -5.95198 -2.90081 23
435 1 -3.59147 0.0585717 -17.7266 11
436 1 9.08217 -11.689 1.46723 19
437 1 2.73108 12.1219 -4.15314 18
438 1 -14.5016 9.51047 5.13692 14
439 1 -5.46305 -2.42971 13.8099 12
440 1 -12.7436 -7.48026 -9.32586 10
441 1 -8.16636 -6.61854 5.30011 19
442 1 9.51976 -8.81364 6.37476 14
443 1 6.40351 1.645 -1.56116 23
444 1 -5.09946 3.81346 4.34333 20
445 1 3.69071 -2.72019 -8.87843 23
446 1 8.50523 -6.64543 3.43918 18
447 1 14.9483 6.91682 -6.54161 15
448 1 -2.03192 0.23124 14.8714 14
449 1 -3.1264 12.4525 -1.52972 18
450 1 6.69333 -5.79105 1.13431 22
451 1 -3.99001 -14.0695 -4.1816 16
452 1 -6.67368 4.49769 14.8791 20
453 1 0.823248 15.2017 10.9744 12
454 1 -11.5639 -11.5182 -6.31801 11
455 1 6.20464 14.6548 2.06933 18
456 1 2.75642 5.73679 11.0332 19
457 1 -11.8802 7.21691 8.7255 18
458 1 -6.96796 -3.95411 -6.07301 24
459 1 -13.0969 2.59834 9.50689 11
460 1 -9.01514 -3.53205 -8.24433 19
461 1 -3.72297 11.0846 8.84132 22
462 1 -5.39727 -10.3459 -1.34524 19
463 1 -5.27316 -7.56244 -15.5001 10
464 1 -6.35768 -13.8604 3.22829 17
465 1 -7.18402 -1.20862 2.04096 21
466 1 8.03278 3.67635 4.36415 15
467 1 0.80364 -6.56167 10.8553 21
468 1 -8.69165 5.42266 -12.0622 15
469 1 10.3053 4.57764 1.39889 16
470 1 -9.81838 -14.4575 -3.37848 9
471 1 6.08552 4.80833 -6.4748 17
472 1 -1.65766 16.5431 1.88871 14
473 1 3.80903 5.63345 -5.34966 17
474 1 -0.742898 10.6832 9.79119 18
475 1 -17.4561 -0.275302 -3.03074 8
476 1 -0.207991 17.2284 -6.61892 12
477 1 4.26893 12.9508 -6.1835 20
478 1 -8.64094 -6.00621 -6.85168 19
479 1 2.40475 2.01477 13.6556 21
480 1 1.7941 -16.2802 -7.04331 12
481 1 -1.60888 -4.63346 -13.6739 22
482 1 8.96267 -14.7208 0.331166 13
483 1 -10.5802 10.5845 2.51567 16
484 1 6.4041 6.61275 14.975 16
485 1 14.116 5.42654 -3.08316 19
486 1 3.71146 11.5946 -0.575165 19
487 1 -6.26541 7.05404 -10.8231 18
488 1 1.43385 -3.65743 -14.4349 21
489 1 -1.30144 -6.8461 5.28812 24
490 1 -13.6987 -2.74543 -0.229322 22
491 1 2.59359 18.0584 5.84458 9
492 1 -0.98115 4.13735 -11.4118 19
493 1 8.9718 8.15917 -1.66873 17
494 1 5.88765 15.7038 -7.73641 14
495 1 7.365 -2.82923 -5.01954 19
496 1 15.8621 1.59416 -4.98409 16
497 1 3.89103 2.10145 -10.7822 16
498 1 1.69275 -8.62638 2.44855 25
499 1 5.26828 -12.0166 6.24709 16
500 1 2.6853 -12.4142 9.14867 13
501 1 -9.02427 2.01095 -7.6768 17
502 1 -6.41126 -11.7997 8.8608 24
503 1 -5.91814 -12.9727 -6.86982 16
504 1 6.47548 16.2023 6.31738 10
505 1 -0.338874 2.80382 -14.3951 16
506 1 2.5798 -4.01748 10.3813 19
507 1 -10.6337 0.2507 10.16 20
508 1 -2.50697 -18.4141 1.72296 12
509 1 -6.36307 -4.60818 4.79369 23
510 1 11.3165 -5.04046 -8.52248 18
511 1 12.0156 -0.741341 -1.56059 19
512 1 -1.08535 7.80086 -4.61111 18
513 1 2.8401 -11.1629 -4.60765 18
514 1 5.34281 5.26933 -9.33108 15
515 1 9.29403 0.448264 -8.92703 21
516 1 -4.89541 -0.0219213 12.2535 23
517 1 5.19687 15.3904 -1.31717 19
518 1 -6.54055 -1.2145 -16.0132 14
519 1 1.28714 2.01912 -16.7929 14
520 1 -6.56292 -6.54894 7.83547 24
521 1 -6.18921 14.0792 3.71944 13
522 1 -11.2069 0.108221 -10.2067 20
523 1 -16.903 3.97483 5.05958 13
524 1 -1.26525 -9.69008 -12.0775 19
525 1 -4.7198 -10.1688 11.282 17
526 1 6.80918 7.73865 -6.59732 21
527 1 15.8814 4.18806 8.6834 15
528 1 16.6369 7.3702 -1.91298 9
529 1 -14.5523 -10.3746 -2.83213 8
530 1 -0.0552509 -10.1217 0.0553605 21
531 1 -5.08827 0.553287 -14.5657 20
532 1 -9.25179 11.3573 11.1186 16
533 1 5.06841 -7.68 -10.9284 17
534 1 2.49486 9.06228 -0.805422 17
535 1 14.7433 -2.70971 -0.851853 14
536 1 3.15931 14.0831 -8.81879 20
537 1 8.43643 -8.90858 1.09901 21
538 1 13.237 5.42061 -11.6653 12
539 1 1.54372 6.44012 15.7853 16
540 1 -14.3503 6.29926 6.8443 15
541 1 4.97308 12.1347 10.4285 18
542 1 9.47543 -3.72033 11.7016 17
543 1 4.08016 2.28084 -16.4397 11
544 1 -3.32514 -6.06378 -3.27752 17
545 1 1.37596 -0.739727 10.2088 19
546 1 7.41785 8.99961 10.4723 20
547 1 8.58307 6.59854 -8.70503 21
548 1 -12.9582 7.44594 -8.01196 10
549 1 -1.21974 10.2983 -6.59009 22
550 1 11.8582 -1.45948 10.8275 14
551 1 12.5323 2.24503 -16.0384 8
552 1 8.30908 -5.90829 -5.01196 20
553 1 12.185 8.80295 9.58502 13
554 1 -16.0253 -4.64541 3.90176 8
555 1 -6.71268 10.1572 -10.3423 16
556 1 -1.15965 1.53648 11.9752 22
557 1 -11.8587 -1.83059 11.1949 14
558 1 0.248754 12.1043 -9.75288 21
559 1 12.8583 -12.5932 2.04854 11
560 1 6.42746 1.45599 -7.45789 17
561 1 -2.85675 19.0283 -6.76144 7
562 1 -11.9666 -5.54471 -11.3846 11
563 1 6.26708 -11.7418 1.56863 20
564 1 -10.3199 -2.93261 -0.403972 22
565 1 -0.182388 13.5863 -12.6738 10
566 1 -10.2356 2.56892 -1.43701 20
567 1 -1.20001 8.55074 18.2623 10
568 1 -9.72284 -7.03043 7.79244 22
569 1 6.01014 8.43725 0.12523 15
570 1 7.13953 -8.96072 -4.72791 23
571 1 4.4062 -10.2231 8.59256 15
572 1 11.6825 0.709082 -5.24849 19
573 1 -14.3127 7.69307 0.201573 20
574 1 2.51078 3.023 16.4669 12
575 1 2.42757 14.0574 -2.12273 19
576 1 11.3336 -5.02206 -5.50878 20
577 1 1.96621 8.86843 14.2603 17
578 1 -0.718953 2.01328 -19.2761 8
579 1 -6.2616 -13.4116 11.0363 15
580 1 -1.06618 -0.98301 -8.80198 21
581 1 3.76042 -2.21521 -14.9056 17
582 1 1.05383 14.1617 7.80661 21
583 1 10.4077 6.01847 -11.2503 20
584 1 -3.72345 -2.34558 -13.5246 17
585 1 -7.27133 -5.2365 -3.60198 17
586 1 -14.5744 -4.54704 -8.71606 10
587 1 16.4692 5.49056 0.40608 13
588 1 16.9517 5.13104 -5.2785 11
589 1 8.4975 -8.35791 -10.3078 16
590 1 11.5003 6.28754 11.0713 18
591 1 9.82964 -8.14008 -4.57252 23
592 1 6.54338 -2.16968 -17.0802 11
593 1 2.90618 14.2723 1.36024 19
594 1 -7.09856 1.38565 4.59084 21
595 1 10.6806 9.47094 12.0781 12
596 1 10.7908 7.09764 0.367642 16
597 1 15.1209 -2.11751 4.05076 14
598 1 10.6031 3.80704 -7.61612 22
599 1 6.21825 -4.33869 10.2353 18
600 1 14.5826 5.65811 11.321 15
601 1 -2.07531 -3.29692 7.55182 22
602 1 11.4565 10.0205 -2.44088 20
603 1 6.53973 0.0104403 1.6925 20
604 1 4.54039 -2.49831 15.8795 11
605 1 17.4462 1.70796 -7.99915 9
606 1 10.2 1.80666 8.962 17
607 1 -7.51995 -0.701658 -6.7873 21
608 1 11.7964 6.57941 3.85141 16
609 1 10.3627 -4.29651 -0.319738 17
610 1 1.37734 -7.28929 -0.576153 20
611 1 -14.5125 8.43561 11.6695 11
612 1 8.45 12.1213 10.4585 14
613 1 13.325 0.922923 10.2606 19
614 1 1.05858 9.27923 5.04421 18
615 1 -1.31791 10.8573 15.6276 12
616 1 1.43083 3.71632 5.87835 17
617 1 -2.87409 -18.7855 4.80516 12
618 1 -4.02187 8.62171 -4.7343 20
619 1 11.2787 11.2423 -7.28644 13
620 1 10.5095 -5.20055 -12.2848 18
621 1 -2.71247 15.8665 -1.34835 15
622 1 -0.00742885 -14.3218 -4.14618 17
623 1 8.68974 -11.3138 -11.6889 10
624 1 -10.9714 6.70615 3.49467 15
625 1 -4.87415 5.47784 -8.28011 20
626 1 -0.447999 -17.2113 6.88203 16
627 1 -6.67892 -2.42612 -13.0762 19
628 1 -12.7926 4.88304 -3.6077 18
629 1 10.9937 -7.57788 4.20327 17
630 1 7.27461 10.2288 4.84577 21
631 1 -0.556963 -13.3549 10.1426 17
632 1 -15.4091 3.48358 -7.06558 13
633 1 1.45012 -3.321 -17.4187 12
634 1 5.70119 -4.04847 6.45718 21
635 1 -2.43359 4.49121 10.4133 17
636 1 7.91988 2.37233 -12.1029 17
637 1 15.6699 -1.51882 10.0046 8
638 1 11.3641 8.64713 -9.53174 16
639 1 8.8605 15.2002 3.4983 11
640 1 5.54083 -11.8332 -4.14419 18
641 1 -7.32925 -5.00075 12.9641 13
642 1 11.8627 -0.993518 4.82754 19
643 1 -6.89843 7.61845 15.0136 15
644 1 9.80892 14.0443 -7.43585 10
645 1 -9.23337 10.1688 -3.86353 18
646 1 10.5319 11.1496 0.999087 20
647 1 -12.7038 -12.8273 -2.00936 10
648 1 12.658 -3.21526 -3.4219 19
649 1 3.91731 16.6637 3.6733 14
650 1 -5.11922 4.97718 9.09482 17
651 1 -8.92366 -4.00922 2.23938 21
652 1 -11.5208 -2.61739 -10.4547 17
653 1 8.5576 0.746208 11.6759 18
654 1 -1.63941 -10.89 12.1744 10
655 1 8.46633 7.04907 12.8401 21
656 1 -6.3845 11.5885 -4.52971 18
657 1 7.05837 5.04632 1.51995 17
658 1 6.87471 -3.98222 -1.75593 20
659 1 5.06183 4.49274 4.30906 19
660 1 1.4504 0.0690461 -14.9371 16
661 1 -9.84534 3.53523 11.0601 18
662 1 6.43183 -0.061179 -10.441 20
663 1 -2.46831 -7.06614 -6.67511 19
664 1 11.0968 -10.0155 -9.55731 12
665 1 6.90264 7.79257 6.9056 18
666 1 4.04577 6.2861 5.97942 17
667 1 -10.6615 4.13178 8.44201 16
668 1 7.27443 11.6722 7.81964 19
669 1 3.12344 -5.56322 13.9022 14
670 1 -5.73444 6.73969 11.3131 19
671 1 -1.49496 -6.45985 -10.8196 20
672 1 -6.14831 3.47122 12.0618 22
673 1 6.84492 4.88549 7.94408 17
674 1 -8.0989 -12.6061 5.6035 21
675 1 11.172 7.04554 -3.21842 15
676 1 10.7165 -12.3025 -0.747155 18
677 1 -2.30745 4.28813 -6.22018 19
678 1 7.26976 10.6985 -5.35991 19
679 1 5.82218 12.7609 4.97114 19
680 1 3.574 -0.88803 -17.5766 12
681 1 0.307835 -0.562495 7.36605 20
682 1 -0.472177 17.3391 -3.26214 10
683 1 13.4464 11.473 0.585411 10
684 1 -8.54752 -6.24921 -0.505005 20
685 1 1.01764 -0.952157 -20.1841 5
686 1 -10.8901 15.2621 -1.76483 11
687 1 6.97439 -6.62735 -16.325 10
688 1 3.50415 5.61084 1.71416 18
689 1 11.7107 8.12677 -12.4268 14
690 1 10.6743 13.1192 -1.33657 14
691 1 -2.08549 4.01933 4.50509 20
692 1 -9.17566 5.93884 -2.65767 20
693 1 6.42572 6.34222 -3.52441 17
694 1 10.5938 -0.946224 13.5451 8
695 1 8.33502 -3.67676 8.45987 17
696 1 -3.04396 -13.6143 11.5192 15
697 1 -4.02878 9.26405 -10.5933 18
698 1 3.44803 14.0394 11.8201 12
699 1 7.21559 -6.08732 -11.575 19
700 1 5.34816 1.34666 7.43771 17
701 1 5.65932 12.1246 -3.03943 24
702 1 8.19392 12.0805 2.89043 20
703 1 14.9348 -4.28131 -5.66184 14
704 1 5.53794 4.07538 17.0435 10
705 1 -11.2542 -1.50259 2.2944 21
706 1 -0.280568 -16.5674 1.10712 18
707 1 0.371451 -3.51967 -8.25841 21
708 1 -5.89802 16.1092 -1.76891 15
709 1 -2.51272 7.42439 11.2353 15
710 1 4.6863 -5.46039 -9.05164 22
711 1 2.00277 12.3001 10.1855 17
712 1 -12.2327 -4.6274 2.09849 18
713 1 -3.17087 2.98593 13.3035 18
714 1 -3.94822 5.91136 -12.4895 20
715 1 -7.27126 7.06766 -14.8185 9
716 1 3.69331 -13.3135 0.992424 19
717 1 3.27266 5.27798 -11.3251 14
718 1 3.46227 -4.37811 4.88175 23
719 1 -1.1632 7.42354 1.10039 18
720 1 -14.2857 5.21068 12.349 8
721 1 8.80223 -0.819016 -12.2034 16
722 1 1.65128 -15.428 8.76128 11
723 1 0.0977889 14.2265 0.341963 18
724 1 -3.46234 4.15033 17.2331 15
725 1 -9.37618 -7.29011 -11.0204 15
726 1 -4.24145 -11.9112 -12.87 8
727 1 -8.54494 -12.8004 -8.60245 10
728 1 -2.65509 15.8377 -7.82646 16
729 1 5.88931 -3.72568 -11.0714 20
730 1 -2.16164 12.8934 7.49184 20
731 1 3.22296 -7.68167 -8.31536 18
732 1 7.82513 -16.1623 -2.6715 12
733 1 4.05807 -7.87221 6.5 19
734 1 14.3573 1.85466 -9.58764 18
735 1 2.12183 -12.6461 -2.42329 22
736 1 -12.969 -2.68868 4.63964 15
737 1 2.39756 0.972829 -8.21258 16
738 1 -6.65127 -16.2623 0.871011 12
739 1 -8.65449 -11.7755 -5.50109 14
740 1 -3.76831 3.01268 7.20812 19
741 1 -10.3832 -17.0938 1.84157 8
742 1 15.883 4.61555 -8.76917 11
743 1 -5.57595 12.8183 -0.390142 16
744 1 -3.38435 9.68055 6.11954 21
745 1 -13.4343 12.1718 3.88175 12
746 1 10.597 -4.30745 2.97198 18
747 1 -13.8416 -1.50482 -8.59708 14
748 1 1.04169 12.8208 -6.63199 21
749 1 8.29968 2.49566 -4.84148 21
750 1 4.34967 8.8321 15.5893 14
751 1 13.1464 5.34789 1.65426 16
752 1 -12.1504 4.91207 -11.4639 14
753 1 -11.9792 -5.26143 -6.73093 19
754 1 -0.506519 3.67658 15.6932 20
755 1 2.33971 9.05914 -10.1657 16
756 1 9.2371 13.6518 5.99508 13
757 1 -2.10616 -0.7357 9.97921 19
758 1 -3.90869 -16.7499 -1.04714 13
759 1 -7.94897 -14.4756 8.52783 14
760 1 -3.03378 -5.89786 7.1295 17
761 1 14.8057 11.3577 7.87357 6
762 1 0.589584 -6.47447 -7.76316 20
763 1 -5.56565 8.38954 -7.5314 20
764 1 5.35742 11.6442 2.2463 21
765 1 -4.74292 -7.23918 5.02889 20
766 1 11.9253 4.78154 -13.9932 16
767 1 -0.291913 -18.8051 -6.31951 5
768 1 -1.69016 -18.039 -1.71859 9
769 1 0.540551 -13.0524 0.589685 22
770 1 7.64187 5.50846 -11.2167 18
771 1 3.74886 16.9578 0.992304 14
772 1 -1.74012 0.407946 -15.5068 17
773 1 1.1336 -2.77368 15.5484 10
774 1 0.28549 4.78766 -17.2492 11
775 1 -13.2683 -0.352977 -12.6673 12
776 1 -8.69508 -3.34692 -2.81758 21
777 1 -5.29341 16.8194 -5.65647 13
778 1 8.52818 -1.50531 -1.56897 19
779 1 -3.52544 -4.85283 -16.0595 14
780 1 -5.4277 -6.83724 0.199838 19
781 1 8.7692 5.43275 -5.52349 19
782 1 12.7898 -8.86836 -3.7003 18
783 1 -11.7576 6.49648 13.1627 11
784 1 11.5876 -11.0581 4.22415 12
785 1 14.2094 -5.95098 -3.58117 13
786 1 12.7834 -4.80276 5.15942 18
787 1 1.42323 10.7399 7.7646 20
788 1 -10.4386 0.402784 13.5218 14
789 1 -8.92954 7.59126 10.2843 19
790 1 -6.52518 -16.1012 6.20113 16
791 1 10.1745 -0.201505 1.00418 19
792 1 7.34756 10.7887 12.8356 14
793 1 -15.2114 2.27786 2.43397 15
794 1 6.8633 -7.48215 -7.37015 23
795 1 -12.9998 12.6028 -5.70704 11
796 1 2.20095 7.79907 2.71664 14
797 1 1.72732 -15.2163 2.92244 17
798 1 3.6945 5.25883 13.9474 18
799 1 -0.214634 12.8458 5.71274 19
800 1 1.81168 -11.8582 3.95977 14
801 1 -10.1102 -0.338462 -4.77226 18
802 1 0.0720869 -0.986643 13.675 17
803 1 -14.7428 -1.68143 -2.8571 19
804 1 -0.0534604 6.81188 12.7238 16
805 1 1.68587 11.8355 2.43828 18
806 1 -11.8799 -10.9162 3.09709 18
807 1 -3.14334 -13.199 3.80533 19
808 1 8.38141 -7.08959 9.22612 16
809 1 12.3153 -6.727 7.50732 11
810 1 9.48025 6.00232 8.83397 18
811 1 -2.69013 5.89146 -3.43999 21
812 1 1.81971 -10.3102 -7.11349 19
813 1 -1.6271 -1.19396 -12.3882 19
814 1 -4.93388 -2.04228 9.69768 17
815 1 -4.45542 15.3835 1.24608 13
816 1 15.7843 1.68801 0.731899 15
817 1 5.89095 11.0919 -8.23641 20
818 1 -5.9347 4.82626 17.9842 11
819 1 10.921 3.6955 6.59466 18
820 1 0.969934 -6.5053 -12.8039 23
821 1 -8.22952 -8.98867 -2.1147 19
822 1 -3.92726 -4.14854 -5.49311 20
823 1 17.0608 0.57741 3.48654 10
824 1 -2.06978 1.28004 -10.2494 18
825 1 -1.95404 7.14791 15.5167 21
826 1 12.2419 -12.312 -3.81671 14
827 1 7.76016 1.28605 -16.9473 10
828 1 -1.579 -8.83809 -2.31547 18
829 1 13.1126 4.82132 -8.85347 18
830 1 16.2925 -0.0129623 -1.99975 13
831 1 2.15364 -8.5813 13.6424 8
832 1 -4.07863 -9.69498 -6.90358 23
833 1 7.90854 13.9521 -2.53974 15
834 1 1.89907 -8.86199 8.02352 18
835 1 -16.0201 8.90677 2.11771 12
836 1 11.4187 3.72102 -4.09158 21
837 1 14.9022 6.5624 3.07925 16
838 1 1.03313 -8.63898 -10.2729 20
839 1 -8.11912 13.3002 5.81851 10
840 1 14.4467 8.10466 5.53347 16
841 1 7.10034 13.9592 -5.87426 17
842 1 9.87176 -0.930931 -16.3676 10
843 1 8.00721 -7.15606 -1.67596 23
844 1 -11.6456 5.7 -0.83413 21
845 1 9.13159 7.37612 6.00811 15
846 1 -14.8564 -8.0843 -1.0767 15
847 1 -9.26121 6.20478 -9.17025 17
848 1 5.26715 6.87838 9.49665 22
849 1 -15.2186 -0.242102 -5.64781 14
850 1 -15.0202 6.2158 3.67095 16
851 1 -0.732585 2.23621 -8.48885 20
852 1 11.217 -8.17328 -12.2381 11
853 1 -11.9741 -8.0195 -5.71082 15
854 1 13.2957 -10.9186 -1.07616 12
855 1 -14.4069 6.96352 -3.10318 15
856 1 -10.7126 -0.764236 -7.53643 18
857 1 9.37929 9.5428 7.91244 17
858 1 -7.8831 -9.4506 6.97163 22
859 1 5.93334 2.25246 12.1861 19
860 1 17.365 -0.88909 6.60642 11
861 1 9.07867 -0.780808 4.10692 19
862 1 -10.1079 4.40381 1.07248 19
863 1 -0.760123 9.66024 12.9737 19
864 1 2.42329 10.0091 -7.14336 23
865 1 -2.8361 -9.7123 -14.5808 10
866 1 -8.48244 14.9762 1.7398 8
867 1 -10.842 -10.6581 6.02532 17
868 1 8.54814 10.6063 -2.35476 21
869 1 -4.57121 7.16819 17.0896 14
870 1 11.9089 0.146768 -11.3634 18
871 1 6.81074 -9.56264 7.47554 18
872 1 -0.494935 9.76911 -12.8573 12