ITEM: TIMESTEP
8000
ITEM: NUMBER OF ATOMS
2000
ITEM: BOX BOUNDS pp pp pp
-30.0 30.0
-30.0 30.0
-30.0 30.0
ITEM: ATOMS id type x y z Coordination
1 1 -7.39769 4.11735 -14.7257 16
2 1 -3.85543 -9.21841 -9.98526 20
3 1 4.43852 13.3425 12.411 13
4 1 7.90555 -8.46377 8.5597 13
5 1 -5.95242 8.57021 0.618193 16
6 1 11.7358 -9.57849 -11.6546 13
7 1 -10.6173 5.82033 -6.08307 16
8 1 0.369991 -5.99792 9.82574 16
9 1 -6.12404 0.207692 -10.9361 21
10 1 -12.3671 -10.2727 6.28049 13
11 1 12.5413 1.32601 -11.5976 12
12 1 -2.85246 4.20106 -4.81846 21
13 1 -2.3582 -10.9927 1.91919 21
14 1 -11.6669 -8.82218 3.55568 17
15 1 1.03226 4.33768 17.6906 15
16 1 8.00949 -1.88636 5.62034 23
17 1 1.07468 3.74572 9.42958 22
18 1 5.33366 -2.46902 3.89838 18
19 1 -0.977719 10.5692 -9.86195 19
20 1 4.37797 0.902556 13.38 23
21 1 -9.21437 -0.869636 -17.3096 9
22 1 -14.984 -3.87224 12.1824 13
23 1 13.6891 6.22263 9.0791 16
24 1 3.40891 9.0552 -12.7989 19
25 1 3.51701 4.92192 -16.1426 18
26 1 15.3477 2.27139 13.2212 10
27 1 -6.16 1.00503 -1.6453 20
28 1 -10.4271 5.17745 -9.25752 19
29 1 -2.03396 -1.45011 -7.94157 21
30 1 -8.61941 10.3784 9.2698 13
31 1 7.01793 -11.7221 8.25752 11
32 1 0.857227 -1.1751 7.48148 19
33 1 2.64511 -14.4282 -13.4708 8
34 1 12.3457 -8.85316 -1.70917 11
35 1 -5.64302 -15.2878 -5.2971 11
36 1 -13.2292 -6.12072 10.6786 17
37 1 2.64364 -4.75686 -6.80185 19
38 1 0.97689 -8.67054 -13.8318 22
39 1 9.76765 -7.94755 -14.2456 11
40 1 0.510156 5.35914 -17.628 16
41 1 1.58606 5.06973 14.4343 20
42 1 0.469092 -11.6512 6.854 16
43 1 5.79897 -4.67936 13.4739 11
44 1 -13.3355 -3.06791 1.77532 17
45 1 -16.9277 -2.86343 7.03815 10
46 1 -7.51969 -1.46753 -2.58917 23
47 1 -2.91482 13.5418 -2.76847 20
48 1 -0.432691 -14.6315 -12.5627 13
49 1 3.87533 4.68197 -10.1185 21
50 1 5.00965 -5.98426 -11.3486 17
51 1 -3.06447 -2.89637 11.5347 14
52 1 -9.76029 6.4353 -1.60933 19
53 1 3.10335 12.1393 -11.3979 20
54 1 2.81682 12.8756 7.62249 22
55 1 -6.23473 8.45526 -9.60295 20
56 1 -0.470204 13.3987 -0.455736 21
57 1 2.98813 -10.4194 2.33722 24
58 1 7.54061 -5.9412 -5.37195 17
59 1 6.27191 -6.78261 -18.0255 13
60 1 -7.74325 9.51472 11.9402 14
61 1 -12.3857 -3.74871 -9.41943 13
62 1 8.14034 1.08939 4.91673 21
63 1 -6.29079 8.32331 -6.61519 18
64 1 -7.30126 -9.64037 7.91204 15
65 1 -0.923976 15.2178 11.8388 12
66 1 -11.2692 8.40832 -8.65207 10
67 1 -4.67781 10.6643 13.3527 17
68 1 -0.196726 5.0794 -6.06393 23
69 1 2.95935 7.90031 6.48156 23
70 1 -3.9322 -15.5805 9.3279 11
71 1 3.50467 8.74116 10.7578 20
72 1 6.75597 -14.1823 -6.42888 13
73 1 5.35023 12.3217 15.1371 13
74 1 -10.394 1.635 -9.73073 19
75 1 -10.2303 7.51553 -11.3984 13
76 1 6.63883 7.93315 10.2022 19
77 1 12.027 -1.75354 -10.4245 14
78 1 8.81054 -10.5886 6.24772 14
79 1 -14.7322 -3.46986 4.1339 14
80 1 -7.89084 -2.55154 0.667929 19
81 1 7.5963 16.8553 6.06773 13
82 1 5.99013 -1.79301 14.8109 19
83 1 -5.43893 -12.3169 5.41018 16
84 1 -10.7218 -1.94127 -0.745231 22
85 1 12.7238 4.76284 6.83918 20
86 1 8.30755 -3.43911 -3.35252 21
87 1 -0.0743305 12.1558 9.62164 23
88 1 4.60643 2.69613 8.55984 22
89 1 -7.92631 -5.53109 1.75324 19
90 1 -1.99835 -6.95119 -10.8651 19
91 1 -9.91413 7.34779 8.48646 15
92 1 -8.22992 12.422 -1.63881 20
93 1 -2.18695 7.53138 -9.56799 18
94 1 2.35941 1.60777 -6.11116 23
95 1 6.93119 -1.01711 -5.72861 20
96 1 8.98614 13.4784 -3.88262 16
97 1 7.10058 -4.54916 3.93915 19
98 1 5.29794 -6.1405 8.67188 18
99 1 -4.72216 15.3183 -4.47239 14
100 1 -7.7149 12.9423 3.38078 16
101 1 -6.15648 -3.42083 14.8831 10
102 1 -0.612307 9.45573 6.78227 24
103 1 -7.23006 -5.42558 10.1871 21
104 1 12.1738 -8.32719 -8.07661 19
105 1 -7.12131 2.39262 5.35347 20
106 1 -9.82966 -13.4155 2.73246 13
107 1 8.71153 -7.59283 -7.57405 18
108 1 4.54012 2.01318 -12.5306 20
109 1 -5.8164 -1.74424 -15.9967 17
110 1 5.18197 0.323451 6.44083 21
111 1 0.118056 12.8121 3.05448 22
112 1 -3.94936 9.37438 -10.92 16
113 1 1.88242 9.88978 18.737 13
114 1 1.6142 13.8503 -6.16606 23
115 1 -13.0503 10.807 1.38862 10
116 1 1.63272 8.90027 1.32122 16
117 1 -5.49428 -6.93665 7.32516 20
118 1 13.8321 0.870906 10.773 16
119 1 -0.59887 -4.84099 -11.5052 18
120 1 5.08159 -6.33676 -8.6011 20
121 1 -1.60612 4.56241 9.99788 21
122 1 6.64858 -0.627641 18.0261 12
123 1 -10.7254 -9.25447 -1.43949 15
124 1 9.73969 -4.32688 4.42417 18
125 1 -7.5094 -9.37931 -4.89422 22
126 1 10.5288 -9.59058 0.916275 18
127 1 -4.28868 8.71298 3.37589 18
128 1 8.1753 3.55951 -15.2754 12
129 1 7.39841 18.4802 -2.0746 10
130 1 -8.45844 -12.7512 12.7848 11
131 1 -10.3653 -13.5918 9.85659 13
132 1 -4.19717 5.61303 1.2612 18
133 1 4.04483 -8.30744 -15.5219 19
134 1 5.37262 6.30793 -6.8208 22
135 1 8.3485 -6.25597 -2.19133 22
136 1 -0.200588 -16.3531 5.29223 11
137 1 -7.95678 -7.21752 -2.53497 20
138 1 17.5948 7.39448 9.57989 10
139 1 14.0522 -2.7377 -8.20807 11
140 1 -14.8055 -6.19564 2.39699 12
141 1 10.1249 8.83971 5.69034 20
142 1 16.295 8.09426 3.15653 13
143 1 -7.37396 2.57464 16.1899 12
144 1 6.97888 3.99887 0.115658 19
145 1 -2.87503 11.3567 11.3417 20
146 1 -4.45908 14.6921 -7.44499 11
147 1 -1.17025 -6.78742 -14.3846 18
148 1 8.52342 -11.2981 -11.6065 13
149 1 1.26941 15.0709 -10.9228 14
150 1 7.73438 -3.10904 12.7856 18
151 1 1.79883 -2.65306 -20.4296 13
152 1 -0.192581 7.91499 -7.24531 21
153 1 11.6195 0.858889 -4.32233 19
154 1 -8.74912 9.91646 -7.4918 16
155 1 -8.38289 15.392 -1.15011 11
156 1 8.62057 5.2657 -11.8605 21
157 1 8.92885 -6.84567 5.81538 19
158 1 -5.40882 3.39737 -6.34269 21
159 1 -5.03326 12.0256 8.90318 19
160 1 11.9959 6.02642 -5.97815 22
161 1 7.28449 10.89 -3.25122 20
162 1 -3.48531 15.538 0.959888 13
163 1 11.4118 7.22134 0.423218 24
164 1 -2.28107 10.0595 -4.02735 17
165 1 2.94332 16.7439 -9.15934 12
166 1 4.8418 12.3703 -13.6947 11
167 1 -9.83494 -10.6352 1.27108 19
168 1 -12.9037 9.78476 -2.21077 12
169 1 -5.41685 -2.30222 -12.8218 18
170 1 1.76356 -10.2248 -16.8641 16
171 1 12.1697 14.5772 9.48378 11
172 1 1.97277 16.8326 7.36668 14
173 1 -14.1959 -1.28485 -4.51035 12
174 1 -11.0889 12.5043 3.59834 11
175 1 15.9444 -2.01801 -2.69967 16
176 1 -10.2759 2.55999 -16.2187 8
177 1 7.68062 2.92002 18.2819 15
178 1 6.9304 18.7322 3.35442 10
179 1 -2.46023 12.2887 7.6969 24
180 1 3.39284 -7.73755 -18.6614 14
181 1 -3.20271 14.6065 9.42335 16
182 1 -1.87993 12.3575 -6.72513 20
183 1 3.64279 -2.19691 12.1499 20
184 1 -9.67877 -6.1473 4.29003 16
185 1 -2.35023 -12.5541 -14.5519 16
186 1 -8.84163 9.7294 -13.8253 9
187 1 -2.48291 -11.5196 4.83572 16
188 1 3.77211 -14.7386 -6.65408 11
189 1 -3.69171 11.83 -12.6229 11
190 1 -12.0445 0.474045 9.18272 22
191 1 3.18107 6.51235 -0.0286988 20
192 1 10.0895 8.59602 -4.35683 23
193 1 -8.18359 6.12646 16.5464 10
194 1 0.0345907 -8.92232 9.46272 13
195 1 -9.23667 4.38854 1.13058 20
196 1 2.6704 17.0137 3.88016 13
197 1 0.598647 7.14604 8.75015 22
198 1 14.5744 5.37122 14.18 12
199 1 -7.03275 15.3561 5.0164 12
200 1 12.5237 -5.20506 -9.66293 13
201 1 -4.14541 13.8976 12.0728 12
202 1 -3.26 0.654445 -9.53905 22
203 1 12.9519 -7.46794 2.59481 13
204 1 -5.28394 -6.46477 4.10032 19
205 1 -14.5128 -0.310859 6.96685 14
206 1 -7.48855 -10.7988 2.9407 20
207 1 5.67907 6.9842 16.2273 20
208 1 -14.2762 1.48022 -2.84568 13
209 1 -0.868909 -13.2843 -2.50433 20
210 1 -4.83347 -1.21906 -3.57487 22
211 1 5.68377 -7.45337 -0.774478 21
212 1 -2.30931 11.0078 4.66866 25
213 1 -5.60125 0.427594 3.72478 18
214 1 6.16832 12.9901 9.23055 18
215 1 -6.38453 1.03359 -4.61064 20
216 1 -5.17962 13.7593 -10.2412 9
217 1 -13.6238 -6.04665 -7.18692 11
218 1 -10.2169 -1.26464 11.5291 18
219 1 0.305321 -9.6162 3.8325 22
220 1 5.63045 -12.4243 5.99351 17
221 1 -10.4043 9.62438 3.48955 18
222 1 16.7289 2.51459 5.36616 12
223 1 5.89461 4.26689 -4.2172 21
224 1 -4.42205 -7.16177 -16.0365 12
225 1 6.24263 3.07787 12.1637 21
226 1 8.11137 -13.5013 4.90953 14
227 1 -1.11243 6.17453 -12.5092 19
228 1 3.20635 -10.8727 -13.9865 17
229 1 7.53861 0.380694 -14.2769 20
230 1 4.69689 7.53456 -15.4681 15
231 1 -6.46795 -4.15503 -7.85764 20
232 1 -1.4351 15.0593 -5.09085 17
233 1 -10.6084 -10.3927 11.5956 15
234 1 9.491 16.4631 -2.75002 9
235 1 -9.38437 3.93897 13.8047 18
236 1 -6.59068 13.4417 -3.76892 17
237 1 7.59795 1.63052 7.82733 21
238 1 -2.90796 -2.66703 -14.5782 18
239 1 -3.04949 9.5054 -7.56779 19
240 1 4.45172 7.48747 -10.1327 20
241 1 -7.75614 -12.8444 8.04138 23
242 1 -7.12176 3.17153 11.5375 19
243 1 -4.18056 7.77405 10.6577 20
244 1 1.49823 -11.4326 -7.94914 20
245 1 -2.56311 -12.9993 -0.635297 19
246 1 11.1671 -11.0185 -3.71071 19
247 1 3.17196 -7.07177 -2.07727 21
248 1 12.4909 7.87445 14.9424 14
249 1 5.13007 10.3282 -10.422 21
250 1 -0.306345 7.63777 -1.13924 17
251 1 -8.82302 -0.664907 4.03192 20
252 1 -10.3466 11.1903 -2.92868 15
253 1 4.54223 5.63324 10.5602 20
254 1 6.32368 -14.9584 0.862385 15
255 1 14.4756 0.788061 -2.92731 21
256 1 1.66855 10.273 8.14672 24
257 1 -9.04778 5.36244 6.5134 22
258 1 -10.4059 -7.45969 -5.37612 20
259 1 7.77132 6.22749 -15.6921 12
260 1 3.54496 -0.990784 8.63961 20
261 1 7.73557 9.53902 -9.25996 18
262 1 2.86761 -10.1298 -5.24236 19
263 1 -0.0524858 -1.11904 -13.3809 19
264 1 2.48859 -17.2007 4.48634 10
265 1 8.37487 2.06192 -4.84127 17
266 1 -12.2122 -2.45951 6.28692 20
267 1 5.25274 -12.7084 -4.11711 17
268 1 -9.39401 -4.15668 -7.67531 19
269 1 3.99316 12.2439 -1.87984 19
270 1 2.58477 -3.32047 -17.0491 22
271 1 5.04217 4.39463 14.2703 15
272 1 18.1529 1.50819 0.898999 12
273 1 -5.83649 -6.24724 -0.911213 20
274 1 10.2753 -3.9045 -12.2954 15
275 1 -0.928692 -6.94938 2.18389 18
276 1 -7.84017 -2.93067 -10.6223 20
277 1 -8.723 0.929815 -6.5708 19
278 1 -7.18023 -14.4664 10.7438 14
279 1 8.35743 1.51942 10.5493 21
280 1 7.71095 -1.31972 8.5553 21
281 1 -5.23814 -8.35909 -13.141 17
282 1 0.0189791 -5.97651 4.91847 22
283 1 2.19317 6.41852 -13.052 22
284 1 6.47473 9.22428 3.13292 22
285 1 -7.31895 -8.36142 5.67787 19
286 1 2.8177 11.5837 1.92867 21
287 1 -7.55244 -2.81595 12.0771 18
288 1 -8.6694 -6.28529 -9.70639 19
289 1 -3.95939 -5.41996 -12.4509 16
290 1 -1.04907 8.10158 -17.3138 11
291 1 -5.45739 -9.23977 -7.61392 22
292 1 -3.63383 -7.909 0.282609 22
293 1 9.77108 -4.90158 -15.2042 10
294 1 14.6081 0.102388 -9.18108 13
295 1 13.0931 2.96851 3.70587 17
296 1 -2.83332 -4.24698 -3.40561 22
297 1 -10.4385 -4.70399 11.8167 21
298 1 -1.93736 -10.3325 -1.60875 19
299 1 8.48106 5.41396 16.7397 19
300 1 -5.1433 -15.5814 3.84898 16
301 1 2.68732 6.09224 -7.19144 21
302 1 0.331439 -9.61489 0.297736 20
303 1 -0.933116 16.0705 -0.504126 16
304 1 5.59783 -2.45985 -15.9067 18
305 1 -4.09685 -3.83474 -17.3786 14
306 1 5.83758 -4.8652 -0.0355388 14
307 1 -11.021 -7.8687 12.6094 14
308 1 4.82135 8.67139 20.4188 10
309 1 1.18053 -9.48251 -2.76655 18
310 1 -4.71408 -10.9023 -12.2106 15
311 1 -7.35852 5.39207 -11.1643 23
312 1 11.1869 5.90711 4.43512 21
313 1 -5.27751 3.05254 -11.5264 22
314 1 0.129192 9.23497 -12.8969 18
315 1 -1.94686 -2.02923 6.29458 21
316 1 6.22925 -14.5754 -9.31915 10
317 1 -5.44229 13.9838 -0.89072 17
318 1 3.57456 10.887 5.10519 23
319 1 12.2589 1.45155 6.02297 20
320 1 -9.69702 2.0464 7.13801 19
321 1 -3.25086 -6.65797 9.79736 16
322 1 -6.34284 9.72159 5.75506 18
323 1 2.53329 -6.15799 -13.8512 19
324 1 15.1023 9.48587 -1.74517 10
325 1 6.39365 -9.9625 1.34059 23
326 1 -1.19504 -0.292966 11.7389 20
327 1 -15.9805 -5.67975 5.73015 14
328 1 2.14883 -14.3017 -4.09862 15
329 1 -6.37379 8.24143 14.496 14
330 1 -9.40657 7.0456 13.7765 13
331 1 -16.1283 -5.34878 9.08186 13
332 1 -14.3601 -7.87285 7.75681 13
333 1 16.1034 -5.12756 -1.64616 10
334 1 -11.459 -7.80997 9.00971 19
335 1 6.37675 -3.04741 -8.99459 16
336 1 12.5264 -13.2576 -6.01066 10
337 1 3.87253 17.6813 -2.131 10
338 1 -5.32681 -4.04852 1.94415 20
339 1 -9.40652 14.5009 -4.20594 10
340 1 0.322246 0.661718 9.28136 20
341 1 11.5586 7.26516 11.6196 15
342 1 -10.3377 -2.58261 3.63098 20
343 1 8.61633 -8.72493 -4.51113 19
344 1 -1.25089 10.5292 1.60519 19
345 1 -7.17296 4.7125 2.83721 17
346 1 5.06036 -9.32658 8.13682 14
347 1 13.4996 -3.04066 5.78737 16
348 1 -1.74435 9.44491 9.66552 22
349 1 -7.56912 -1.75404 -5.59748 20
350 1 -0.600518 2.25504 15.9952 13
351 1 -4.42355 11.892 2.79507 19
352 1 8.39037 10.6334 15.9494 13
353 1 -7.29719 13.9008 -6.77303 12
354 1 0.0972032 -5.78759 -19.6153 12
355 1 -6.10579 0.429908 -7.7148 22
356 1 6.68643 -10.3676 -14.1018 14
357 1 -9.83008 6.1496 11.2231 18
358 1 -11.6123 2.13188 3.31861 19
359 1 -4.33462 -2.66196 -6.45721 22
360 1 -4.56442 10.9777 -1.9868 22
361 1 10.8747 -2.51296 7.42263 21
362 1 -7.96976 -12.9094 -0.0358914 21
363 1 7.92509 -4.35439 7.17943 21
364 1 -8.0715 -9.34194 13.5375 11
365 1 -12.2436 7.43933 -0.376561 15
366 1 -1.01374 -2.26119 9.63712 20
367 1 4.57426 -11.4724 -7.11741 18
368 1 -4.92464 -1.97501 -9.46557 20
369 1 8.10075 -2.37029 -14.9584 14
370 1 5.22303 15.636 3.05441 19
371 1 -10.9022 -5.31285 -2.3027 20
372 1 4.12758 -8.5353 -12.4016 20
373 1 10.4704 5.012 -14.8779 11
374 1 -4.38036 -14.618 -8.12479 12
375 1 -12.743 -9.37834 -7.70778 11
376 1 -2.77309 -4.94274 -0.319088 21
377 1 12.1602 5.42298 16.6725 13
378 1 13.3938 -1.73064 0.00949072 20
379 1 -7.7815 2.3088 -12.2386 20
380 1 5.72834 17.5957 0.426401 13
381 1 -11.9073 0.888953 -4.83139 16
382 1 -3.65805 7.56608 5.79024 20
383 1 -7.40786 9.99268 2.89392 20
384 1 -2.27072 6.78706 8.34911 20
385 1 9.27299 6.91721 14.571 20
386 1 10.2588 -1.64179 -5.65888 19
387 1 9.10075 -2.41208 15.9617 13
388 1 14.2688 1.99852 -6.30268 20
389 1 -3.44069 -15.3201 -2.69169 17
390 1 2.74567 4.97635 7.40691 18
391 1 -3.96677 5.99133 -1.73155 15
392 1 -2.71873 -7.76617 -7.56805 22
393 1 1.16105 9.91216 4.52965 22
394 1 2.73818 4.3508 -4.92817 20
395 1 -9.58762 1.00178 -2.93728 23
396 1 6.5519 -12.0599 -1.46149 19
397 1 11.2211 2.62612 8.96779 21
398 1 -11.9835 -3.39218 -6.11405 15
399 1 -4.95584 -9.59641 3.22924 21
400 1 -7.77132 -6.14271 13.0802 17
401 1 -1.3033 10.5224 -1.35835 20
402 1 -10.9376 -11.4695 -7.10672 10
403 1 10.5364 8.18362 17.3158 11
404 1 -7.97916 9.13158 -1.90859 19
405 1 0.658956 12.736 -8.90453 22
406 1 8.31005 14.3812 4.40526 19
407 1 -11.9641 -9.52142 -4.16766 11
408 1 -0.323414 -9.18456 -9.48815 20
409 1 -11.596 0.302903 5.84003 18
410 1 -8.88853 7.61372 -4.57967 18
411 1 5.41224 -5.80819 5.78612 22
412 1 -3.41764 -11.9587 -3.93915 19
413 1 13.1816 11.5273 9.41711 15
414 1 6.47473 9.63613 -14.3443 12
415 1 -9.96151 4.34196 -11.7847 14
416 1 -0.528626 15.7749 -8.26544 15
417 1 -7.80761 5.71535 -7.65506 21
418 1 0.0110575 -12.3477 3.25373 18
419 1 13.865 7.49745 5.62736 19
420 1 1.48232 8.46354 -15.7744 16
421 1 -5.60045 2.00702 8.49735 20
422 1 -13.9703 1.50943 0.669635 13
423 1 -5.99048 5.31327 5.98186 19
424 1 -2.88261 -14.0138 2.59095 17
425 1 -0.231042 -6.02052 -8.16468 21
426 1 6.88179 -8.29484 -10.1211 18
427 1 -4.24318 -2.30378 4.31547 22
428 1 -12.1514 3.83381 5.49622 19
429 1 -15.8457 -2.078 9.59082 12
430 1 -11.3409 7.47603 5.46936 18
431 1 -0.418294 -4.33992 7.73268 20
432 1 -7.4443 1.39853 -16.6129 14
433 1 10.6924 -10.3953 -6.36023 21
434 1 0.0491014 -11.5656 -14.6619 20
435 1 -4.26227 -4.11005 9.14156 19
436 1 4.2767 -6.98854 -5.16894 20
437 1 -4.06874 1.39866 -17.439 14
438 1 8.47081 -12.0642 0.780397 19
439 1 3.07804 11.4511 -4.60296 23
440 1 -9.48126 9.99724 6.02099 15
441 1 -4.11075 -1.39111 13.5655 13
442 1 -10.2027 -3.78943 -12.1108 13
443 1 -9.2707 -3.49128 5.86885 21
444 1 10.7371 -4.20855 11.2084 14
445 1 8.10735 1.83533 -2.30618 17
446 1 -4.59804 3.39128 3.41798 19
447 1 2.94897 1.75567 -9.77433 22
448 1 11.9675 -6.5714 5.80979 13
449 1 12.0 6.52775 -2.86609 21
450 1 -2.04384 2.16375 13.2792 17
451 1 1.6368 10.6735 -1.10926 19
452 1 6.11373 -3.54069 10.2036 22
453 1 -2.48842 -13.9676 -5.82328 21
454 1 -4.5107 6.83017 16.7396 14
455 1 -1.50892 16.5426 6.49444 14
456 1 -8.56301 -9.65258 -7.40231 17
457 1 10.8018 15.473 1.24476 13
458 1 5.53474 6.34377 7.42396 23
459 1 -8.28296 0.491063 9.84605 21
460 1 -5.1733 -8.94411 -2.52099 21
461 1 -13.171 2.87166 10.6891 14
462 1 -5.46545 -6.88583 -5.00451 20
463 1 -4.00245 9.94401 7.52137 20
464 1 -3.93729 -12.1589 -8.73943 16
465 1 -1.78082 -9.01494 -15.9961 21
466 1 -5.34511 -12.7529 2.22008 21
467 1 -7.2395 -3.05948 3.92752 21
468 1 9.89866 0.112157 7.46647 21
469 1 -4.72039 -5.0823 12.4779 15
470 1 -7.51129 7.02909 -13.6005 14
471 1 9.43114 4.87599 -1.26329 20
472 1 -6.74376 -15.1928 -2.07278 10
473 1 1.37477 3.77218 -8.05159 22
474 1 1.50837 15.025 1.80414 20
475 1 0.770068 6.45999 -9.42509 21
476 1 0.793928 9.43936 11.1749 19
477 1 -14.6054 -1.2974 -1.01288 10
478 1 0.624085 16.6154 -2.99745 15
479 1 6.02434 13.2388 -5.6984 20
480 1 -5.77988 -6.631 -9.80125 22
481 1 4.10023 3.14861 18.8393 10
482 1 0.924077 -13.8617 -10.4085 13
483 1 0.297506 -4.09468 -14.4066 19
484 1 10.7058 -12.2485 3.18488 11
485 1 -10.2138 10.0682 0.248242 18
486 1 3.73801 7.51801 13.5289 22
487 1 9.30765 8.13291 -1.58981 22
488 1 4.15959 9.16565 0.923173 20
489 1 -5.2203 9.39208 -13.9983 15
490 1 4.42012 2.94922 -6.84745 24
491 1 3.20322 -7.94952 4.37227 22
492 1 -13.1276 -6.63028 -0.563603 12
493 1 4.69841 17.5914 5.7872 12
494 1 -1.41499 4.33723 -9.95485 21
495 1 13.5192 4.97153 -0.788627 23
496 1 6.62913 15.5222 -8.26664 11
497 1 7.84206 -7.48742 1.18263 23
498 1 18.2424 1.13051 -2.57969 12
499 1 1.42781 -1.00529 -9.44554 20
500 1 2.40648 -7.50055 1.10864 23
501 1 2.94901 -13.7921 3.24468 21
502 1 3.22413 -7.96943 10.2585 14
503 1 -7.37806 3.08683 -9.13743 22
504 1 -10.6057 -13.9085 6.31883 11
505 1 -1.91093 -12.1773 -11.431 19
506 1 10.1509 15.22 7.43883 15
507 1 1.52836 1.19238 -13.459 19
508 1 3.63513 -0.0739076 16.8314 11
509 1 -13.5284 -0.715968 11.5037 13
510 1 1.58743 -16.2641 -1.62406 13
511 1 -10.6596 -4.37563 0.975006 22
512 1 12.3167 -5.00417 -6.50346 15
513 1 12.4107 -2.63387 -3.87584 18
514 1 -2.59682 3.4902 -7.65205 17
515 1 -4.52335 10.8703 -5.30304 18
516 1 2.10413 -7.93412 -7.78189 20
517 1 5.35391 5.35597 -12.7249 18
518 1 9.04178 -1.35021 -8.9615 17
519 1 -5.26272 1.96436 14.0219 18
520 1 7.42575 14.5785 1.07713 21
521 1 -2.11284 -1.03182 -16.5784 16
522 1 3.05964 -4.90447 3.60865 20
523 1 5.40919 1.68674 -19.0513 14
524 1 -6.22554 -3.94469 6.79036 22
525 1 -2.69824 12.5862 0.29013 20
526 1 -8.47164 -2.87404 -14.8879 13
527 1 -14.1132 -0.181887 3.58349 11
528 1 -1.47842 -11.6315 -17.688 10
529 1 -7.16983 -11.0608 10.7131 19
530 1 0.755768 10.3899 -6.27431 20
531 1 16.9478 3.72022 10.0701 9
532 1 15.7718 5.95316 -2.09501 15
533 1 -9.50639 -11.4636 -2.50155 13
534 1 0.098457 -6.37774 -3.55267 19
535 1 -0.380988 -3.28371 -17.8318 17
536 1 -6.84671 12.9 10.4381 9
537 1 3.21165 -4.3132 -9.30876 18
538 1 5.34824 6.26843 2.16433 22
539 1 11.4125 -2.5339 1.85359 19
540 1 3.66059 13.7088 -8.89268 23
541 1 5.16504 -6.82377 2.71112 18
542 1 5.92064 -1.26708 -2.6275 22
543 1 15.2781 5.36528 -6.75976 12
544 1 5.98723 9.08493 14.6802 22
545 1 -7.82518 3.81299 8.66025 21
546 1 5.92994 12.8406 6.13837 19
547 1 9.49363 0.120028 18.2658 11
548 1 2.58144 2.22622 -15.9658 16
549 1 -2.4179 -5.65862 -5.74594 24
550 1 2.57215 0.459302 11.0717 18
551 1 9.00223 13.3276 10.1681 17
552 1 7.05185 6.43924 -9.65283 20
553 1 -6.41578 11.436 -7.81468 20
554 1 0.523147 12.884 -3.13495 21
555 1 11.1087 -2.19954 13.4441 16
556 1 10.0424 2.30814 -12.8275 14
557 1 13.6794 -10.8744 -6.36831 10
558 1 13.4714 10.3992 12.3521 12
559 1 -13.1847 -9.30198 1.17453 11
560 1 -6.67035 11.3203 -11.7677 15
561 1 0.632586 2.27059 12.1154 21
562 1 -12.3911 -2.09993 13.9381 14
563 1 -2.12486 13.5611 -9.9173 17
564 1 4.99186 -9.80707 -3.26851 19
565 1 4.28442 -0.689579 -7.55586 23
566 1 -1.89974 17.5186 -3.73855 9
567 1 -5.703 -4.74631 -14.4193 15
568 1 5.85275 -12.2452 3.31706 22
569 1 -9.9969 -7.81314 0.791433 22
570 1 2.02601 11.6963 -14.6055 13
571 1 -8.39319 3.44045 -1.65723 21
572 1 0.11161 10.3647 15.9012 15
573 1 -10.8567 -4.37713 8.80395 17
574 1 6.34669 6.6793 -1.0413 21
575 1 4.21794 -9.07111 -9.45163 23
576 1 2.81138 -5.72952 11.9737 12
577 1 5.34211 1.29674 -5.04016 22
578 1 -8.62339 7.54756 1.06549 21
579 1 6.24544 5.78405 19.0007 14
580 1 6.8871 16.1357 -4.65519 13
581 1 10.6235 -5.30617 -4.62148 20
582 1 5.43953 10.6367 11.9343 21
583 1 0.928921 2.19386 -18.4889 16
584 1 -4.73347 -12.8685 11.3985 11
585 1 -0.0433147 1.16844 -10.7859 21
586 1 6.68317 -0.105903 -17.3694 16
587 1 3.28343 13.6145 4.01757 22
588 1 11.3949 4.15109 -10.338 17
589 1 0.884001 -0.609345 -16.4096 20
590 1 -3.64962 -9.14433 -5.13583 21
591 1 -9.19043 -0.912734 -12.6555 21
592 1 16.3328 3.11068 -1.41573 19
593 1 16.7298 3.70629 -4.77628 11
594 1 8.25984 -5.0307 -9.53692 16
595 1 15.8299 8.25175 12.4611 10
596 1 5.83052 -8.95452 -6.40285 18
597 1 3.0901 4.00259 -19.7109 12
598 1 9.45755 12.3995 1.73261 22
599 1 -8.70838 1.84624 2.92639 20
600 1 11.5534 10.8486 14.8644 11
601 1 11.5438 3.0574 -2.03623 21
602 1 15.0977 -2.66389 3.0636 17
603 1 13.1893 6.32263 -9.20565 14
604 1 8.88639 3.18784 14.51 20
605 1 16.9218 5.18161 12.4879 10
606 1 1.35662 -2.93048 5.40962 21
607 1 12.6725 9.65395 -2.20903 18
608 1 7.95418 1.5235 0.865607 18
609 1 2.77178 2.43061 15.8039 17
610 1 13.862 -1.00175 -5.61764 19
611 1 9.4874 4.36043 12.0613 18
612 1 -8.75962 -4.64528 -4.5931 20
613 1 15.5159 2.57314 2.15547 20
614 1 8.426 -1.34321 2.59253 23
615 1 -0.206212 -6.45934 -0.780937 20
616 1 -7.08551 7.13837 8.84148 19
617 1 11.5149 13.0959 12.2656 11
618 1 11.2373 1.23732 12.1374 20
619 1 4.83741 10.0309 8.39976 22
620 1 2.08836 14.9166 10.3076 14
621 1 6.11417 3.58989 6.20315 22
622 1 0.806598 -15.7852 1.85926 17
623 1 -7.61143 10.7036 -4.84918 20
624 1 11.0901 8.72946 -7.54191 17
625 1 9.41796 -0.70509 -12.4067 16
626 1 2.13323 15.4858 -1.12983 16
627 1 -1.85841 -11.1197 -6.96526 17
628 1 12.1066 -6.65756 -12.925 10
629 1 -14.2642 2.92897 7.84559 11
630 1 -3.00477 5.56665 -14.6126 17
631 1 -2.20163 -17.1766 2.8249 10
632 1 -3.46068 0.564465 -12.7356 21
633 1 -11.8093 0.821133 -1.36485 21
634 1 10.1458 -6.56731 2.65313 20
635 1 12.4123 11.2448 3.96211 20
636 1 2.03262 -8.75616 7.29376 19
637 1 -11.577 -0.483188 -7.25855 17
638 1 2.84802 0.460684 -20.5434 15
639 1 3.04663 -0.964345 5.23983 20
640 1 -0.930088 5.00085 13.4589 20
641 1 7.97358 11.2863 -12.4537 11
642 1 13.6214 -0.410893 13.5576 12
643 1 7.54394 4.13616 -7.39943 24
644 1 13.4199 13.4071 2.6233 10
645 1 3.80393 -11.8499 -10.4481 19
646 1 -9.25086 -2.81394 14.1615 16
647 1 13.409 0.0406416 2.84545 20
648 1 1.34875 13.387 13.2671 14
649 1 6.73061 12.7258 -9.26613 13
650 1 -11.5318 8.94082 -5.41957 14
651 1 9.97984 8.86032 2.7342 19
652 1 -7.29518 -15.505 1.69605 13
653 1 14.8057 -5.7673 4.3496 10
654 1 9.80792 17.2508 4.13678 12
655 1 -5.0759 4.70289 9.73718 23
656 1 -6.73453 -8.09563 1.78103 19
657 1 -9.10297 -1.45066 -8.75267 20
658 1 7.99894 0.283995 13.2802 25
659 1 -2.93137 -9.77515 10.8491 9
660 1 8.48329 8.68731 12.7812 17
661 1 -6.05797 11.5049 0.706349 15
662 1 10.825 4.06155 1.25649 19
663 1 8.19282 -4.69209 0.989147 22
664 1 9.44928 3.55309 6.57591 22
665 1 3.347 -0.387346 -17.3159 24
666 1 -9.43469 -1.29709 7.55104 17
667 1 4.51164 -0.84592 -10.8457 19
668 1 -3.07179 -4.44061 -9.01213 21
669 1 12.2233 -11.3914 -9.34703 13
670 1 10.7437 5.87565 8.37862 18
671 1 3.66635 4.82106 4.77703 18
672 1 -9.43576 0.703306 15.0042 14
673 1 10.5236 11.6443 8.03001 18
674 1 0.914141 -2.96808 12.3098 11
675 1 1.33581 6.11893 11.6049 23
676 1 1.78535 -6.35743 -16.7285 22
677 1 -3.9738 3.97414 12.2402 21
678 1 -5.35818 3.67668 -2.9616 20
679 1 7.04914 6.3916 13.2512 21
680 1 -8.78682 -15.8917 8.16588 10
681 1 14.5775 7.46916 0.583472 19
682 1 7.56569 -11.4472 -5.12161 20
683 1 -3.33945 6.68375 -6.26253 20
684 1 7.70757 9.83456 0.956469 19
685 1 11.2786 14.1906 4.29869 16
686 1 5.22778 -1.61456 -19.2973 15
687 1 -3.93007 -1.19087 8.36812 22
688 1 3.65994 14.9464 -3.92844 22
689 1 12.8268 8.66818 3.07371 20
690 1 -5.02421 -10.6925 0.32225 23
691 1 -0.250369 -0.588392 -19.6865 14
692 1 -10.494 12.9565 0.40997 13
693 1 9.96601 -6.88484 -10.7605 21
694 1 6.52564 3.41534 3.36594 17
695 1 10.3857 7.78653 -10.3718 15
696 1 10.0108 10.9172 -2.41911 16
697 1 -2.52235 5.22781 4.28599 18
698 1 -6.94419 5.94054 -1.11525 19
699 1 7.30222 6.72587 -3.76364 16
700 1 12.2126 3.14206 14.2749 19
701 1 10.5586 0.596338 15.131 19
702 1 -1.52455 -12.0468 9.60013 10
703 1 -2.47104 8.49284 -14.5162 15
704 1 3.06882 11.9363 10.5159 21
705 1 7.25072 -7.75327 -15.376 11
706 1 2.196 1.71175 7.03104 20
707 1 6.63061 13.6373 -2.53356 18
708 1 8.61618 11.3309 4.32601 20
709 1 -6.48199 2.60838 0.462643 20
710 1 13.2117 -5.40293 -2.113 16
711 1 7.49764 8.42619 18.3366 14
712 1 -14.1361 -4.25654 7.03309 20
713 1 4.14266 -12.6747 0.557629 19
714 1 0.124891 -3.26045 -8.73802 20
715 1 -9.35418 15.3677 2.26331 10
716 1 -0.438035 3.53942 6.93846 22
717 1 5.33774 -4.976 -3.04021 20
718 1 6.08226 12.3893 2.93093 23
719 1 -12.2824 -5.31903 4.10063 19
720 1 -1.88421 4.90502 18.2644 10
721 1 -2.65195 4.78655 -17.208 15
722 1 -5.14556 6.67863 -16.0596 12
723 1 3.84816 -9.95655 -0.84274 21
724 1 7.95091 7.2954 -6.18485 20
725 1 4.9231 -2.89606 7.10996 22
726 1 -1.22112 8.19149 3.48004 17
727 1 -12.0866 4.7069 12.8266 14
728 1 4.18149 -3.67255 -13.6485 17
729 1 3.26713 -11.299 8.27664 12
730 1 4.61317 14.1431 0.557249 19
731 1 -3.58409 4.03337 15.7766 17
732 1 -7.69925 -6.22459 -12.5138 13
733 1 -4.47701 -10.5282 -15.6613 11
734 1 -7.46267 -11.8931 -8.69562 14
735 1 1.38676 16.7829 -5.77949 15
736 1 5.26732 -3.57972 -6.0564 19
737 1 -2.39453 14.2266 4.89643 22
738 1 6.65779 -11.5662 -9.68071 18
739 1 9.09342 -14.7817 1.78994 10
740 1 2.70688 -5.4365 6.58407 19
741 1 14.5725 3.42435 -9.62203 10
742 1 0.554397 -15.0105 -7.14939 16
743 1 -12.5941 -2.97394 9.76786 20
744 1 -0.615343 1.5099 -7.64697 20
745 1 -1.38705 -15.697 -0.256868 16
746 1 -5.72585 -12.2349 -6.17562 21
747 1 -10.0259 2.91016 10.9314 24
748 1 -4.81538 -15.1059 0.323268 18
749 1 13.288 3.80468 -4.05921 22
750 1 -4.00371 17.0408 4.17029 12
751 1 -3.59263 4.06455 7.19395 20
752 1 -12.9787 7.94122 2.98925 13
753 1 10.6369 0.354093 0.692722 18
754 1 -11.2929 -1.12966 -11.0889 15
755 1 1.08911 8.53716 -3.80135 21
756 1 9.11764 2.66529 -9.59655 16
757 1 8.59658 11.9619 13.2899 14
758 1 9.89368 4.82125 -4.43242 22
759 1 -10.6043 2.82189 -7.1362 17
760 1 -11.5793 -6.43168 -9.00507 15
761 1 0.0418823 7.77641 17.544 14
762 1 6.71789 8.24038 -12.0712 22
763 1 13.1338 13.3607 6.36036 14
764 1 -2.54096 1.7665 8.77124 22
765 1 -0.414899 -15.9105 -4.31033 12
766 1 -6.05012 -15.5167 7.09042 18
767 1 -3.23999 -5.14425 6.24454 20
768 1 15.1563 9.55017 9.54675 14
769 1 1.79308 -6.90998 -10.5191 22
770 1 -4.52818 7.93259 -3.60535 18
771 1 7.97333 6.24664 4.63029 18
772 1 -8.5742 -6.13938 7.51878 21
773 1 9.33748 8.00662 -13.4274 15
774 1 -2.53398 -16.5797 -7.22316 12
775 1 3.32606 -16.3604 0.785967 14
776 1 1.98404 -12.0101 -1.88472 18
777 1 5.86238 2.60069 -10.0392 19
778 1 8.68361 17.5025 0.93327 14
779 1 -1.52506 2.0646 -15.2921 21
780 1 1.63542 0.0987582 13.7569 16
781 1 2.43477 7.3423 -18.3897 9
782 1 -11.3839 -0.665213 -14.7313 11
783 1 -13.2061 -3.63575 -1.82054 14
784 1 4.39716 15.7056 -6.52601 17
785 1 8.39821 -1.79953 -0.275954 18
786 1 -1.58763 -5.84199 -17.2854 17
787 1 -5.60387 -4.34463 -4.15251 22
788 1 9.74866 5.77221 -8.33176 21
789 1 10.7995 -6.77554 -0.326536 19
790 1 -3.98906 6.75755 13.8493 19
791 1 8.76126 -9.75432 3.17742 18
792 1 16.1685 -5.59613 1.20133 10
793 1 13.1972 -2.30661 10.7881 13
794 1 0.471968 12.2198 6.17295 25
795 1 -11.2225 1.08401 12.3861 18
796 1 -7.16053 6.10411 11.83 23
797 1 -1.63547 -14.3447 7.75713 10
798 1 10.374 1.55777 3.37992 18
799 1 8.49129 10.3996 10.4137 16
800 1 -11.4346 -0.385413 2.0546 21
801 1 13.1669 -5.22801 1.08413 18
802 1 -9.7743 12.4193 -6.22794 13
803 1 3.83538 8.03428 3.54778 19
804 1 3.20435 -14.7842 6.18044 10
805 1 6.54455 1.20308 15.4334 21
806 1 0.5092 15.2853 4.97344 20
807 1 3.18246 -11.216 5.00326 21
808 1 -5.16136 -3.4768 -1.0607 21
809 1 2.81917 3.49025 12.455 21
810 1 -13.0238 -6.043 -4.05451 14
811 1 2.32394 12.2048 16.6187 11
812 1 5.83374 11.8798 0.210898 20
813 1 -9.74718 -11.2709 5.00109 16
814 1 -3.3515 -16.4088 6.15642 11
815 1 10.7705 -6.67561 8.92034 11
816 1 12.8961 -4.78989 8.68556 10
817 1 7.74824 10.5773 7.67842 20
818 1 -1.56815 7.06418 -3.61391 22
819 1 1.56958 -9.93792 -11.2976 17
820 1 -2.6209 3.25395 -12.3099 23
821 1 -4.24416 0.548416 11.373 21
822 1 -1.06971 16.4384 2.91344 16
823 1 17.2431 -0.118776 3.00376 15
824 1 3.08335 8.57838 -5.49981 18
825 1 -2.43189 9.20394 14.7491 15
826 1 8.20255 7.18816 7.76059 18
827 1 7.14524 -3.03235 -12.0236 20
828 1 -6.44436 -11.8155 -2.98041 20
829 1 -3.01146 0.932603 -5.89639 22
830 1 15.8798 -0.57143 5.71838 12
831 1 1.99639 -3.02773 -11.6595 20
832 1 2.66999 8.30358 16.3752 22
833 1 9.57565 -13.1331 -7.83998 14
834 1 5.93937 3.76264 -17.5203 13
835 1 -2.94231 -7.2118 -3.0069 20
836 1 12.4499 7.18828 -12.539 9
837 1 16.5933 -2.35502 0.455687 14
838 1 3.06766 -4.0933 9.58783 19
839 1 -1.7455 -9.62056 -12.8145 21
840 1 9.80992 13.3369 -1.11868 14
841 1 -2.58758 -4.49036 3.49726 21
842 1 -13.7725 5.42261 4.77121 11
843 1 10.8779 3.19321 -6.79445 16
844 1 16.092 5.44061 4.10829 18
845 1 4.61789 -5.17583 -16.3107 19
846 1 -5.18191 12.8197 5.83462 19
847 1 16.6088 8.08886 6.55591 14
848 1 11.2916 11.1858 -5.37939 11
849 1 5.27894 1.68057 -15.6155 18
850 1 10.4701 -3.71034 -1.23756 20
851 1 -9.19912 1.16639 -0.15101 22
852 1 13.5225 5.68029 2.47137 23
853 1 -7.80589 -10.0629 -0.65562 22
854 1 -8.52156 9.96054 -10.3396 14
855 1 7.54174 4.60999 9.2038 19
856 1 -10.7003 -2.11196 -3.92169 19
857 1 -11.3498 4.75214 8.32326 21
858 1 -5.06735 5.29536 -8.98395 19
859 1 9.46656 -9.75763 -9.13365 16
860 1 -9.94653 -9.6403 -9.95781 12
861 1 12.9106 -7.9822 -4.66235 15
862 1 -12.8316 4.62115 1.73397 15
863 1 -7.9567 -6.53505 -6.71898 20
864 1 11.7562 8.57712 8.60171 18
865 1 -3.99202 -9.44313 6.91852 17
866 1 10.5203 2.97606 17.2722 13
867 1 13.0125 -0.518741 7.98505 19
868 1 10.8895 -1.29182 4.83106 24
869 1 -10.131 5.49707 3.49746 20
870 1 2.83508 10.484 13.6836 23
871 1 1.74472 9.69588 -9.81799 19
872 1 -0.193864 -8.68573 -18.967 11
873 1 -4.62606 15.4737 7.02766 15