ITEM: TIMESTEP
24000
ITEM: NUMBER OF ATOMS
2000
ITEM: BOX BOUNDS pp pp pp
-30.0 30.0
-30.0 30.0
-30.0 30.0
ITEM: ATOMS id type x y z Coordination
1 1 -6.37778 9.03617 -14.3873 20
2 1 -8.71715 -10.1879 -8.96516 15
3 1 2.5145 14.0869 7.5709 18
4 1 14.6829 -2.64202 -2.45541 12
5 1 -11.0649 9.57964 -4.23768 18
6 1 7.62511 -6.11195 -10.3223 19
7 1 -11.3375 3.39918 -11.2245 19
8 1 -0.21697 -5.43379 7.17827 16
9 1 -5.60344 6.43713 -16.3433 21
10 1 -15.3921 -11.0427 0.253167 11
11 1 14.9167 -5.06047 -6.67751 13
12 1 -3.63805 -15.0139 0.733331 10
13 1 -17.0492 -9.14013 -2.29935 9
14 1 3.56346 4.97875 15.0131 14
15 1 -0.379988 15.6299 -15.4772 10
16 1 2.10124 -0.616194 12.4862 16
17 1 -8.04368 1.57327 -15.1641 21
18 1 -11.9733 -4.559 7.60877 17
19 1 14.9076 0.577489 9.17523 10
20 1 1.46752 15.902 -13.2993 14
21 1 6.28488 5.33596 -16.8561 20
22 1 11.1174 5.39128 8.21649 18
23 1 -13.3664 1.81128 -16.1251 13
24 1 -12.8561 11.4729 0.0951579 7
25 1 7.10908 -12.424 4.78995 7
26 1 0.734973 -10.8443 -16.5873 18
27 1 12.1803 -12.0555 -2.89533 9
28 1 -9.69834 -11.9692 -6.3472 16
29 1 -15.0728 -3.69456 6.37397 11
30 1 -1.6869 -6.5085 -17.181 22
31 1 3.58262 -6.38646 -18.7528 19
32 1 -1.61486 8.45705 -19.7592 14
33 1 -0.813975 3.45552 12.1663 16
34 1 -5.70431 -8.55788 6.13401 20
35 1 7.53013 2.33522 7.78351 23
36 1 -10.5676 0.623746 -3.01679 19
37 1 -13.3411 2.17256 7.67203 12
38 1 -2.52646 14.2085 -3.1032 21
39 1 -2.16517 -9.41992 -15.9524 16
40 1 4.88308 -2.34547 -14.1065 20
41 1 -0.823337 -2.12085 9.67203 19
42 1 -10.4961 6.59222 -2.52825 21
43 1 8.41158 14.3366 -12.9716 11
44 1 3.07158 13.9197 4.45256 21
45 1 -10.8459 8.88598 -7.71157 19
46 1 0.212344 15.4259 -4.45422 20
47 1 2.93185 -12.2708 -1.07066 19
48 1 9.84395 -7.56932 -8.89155 17
49 1 5.175 0.31758 -19.6564 16
50 1 -11.0667 12.7742 5.5461 9
51 1 -14.1136 -0.8279 -13.33 15
52 1 -8.68206 9.34126 -9.76775 18
53 1 -8.18318 -5.5787 2.60312 18
54 1 -5.1006 15.5257 1.57725 21
55 1 -14.032 5.62917 -11.556 12
56 1 -7.82232 11.4719 5.25829 21
57 1 -2.95477 -10.3384 5.65132 13
58 1 6.14017 -12.6771 -6.3906 17
59 1 6.01057 14.4525 9.78211 10
60 1 -11.2409 -1.772 -11.5135 23
61 1 -10.8307 6.69482 -16.2501 16
62 1 5.37468 8.69588 9.69753 22
63 1 10.4899 -2.4291 -10.5639 19
64 1 7.55642 -8.97709 0.827544 16
65 1 -15.5868 -5.33908 0.36985 13
66 1 5.82768 17.6918 -0.552745 18
67 1 4.841 -2.53347 9.66071 18
68 1 -6.38792 -7.55497 2.22077 21
69 1 12.8305 1.75525 0.964074 18
70 1 0.301253 15.118 5.70809 21
71 1 -5.93945 -4.91226 -9.62234 20
72 1 -12.3365 9.82165 3.47273 11
73 1 -9.07505 13.6118 -3.6805 12
74 1 -2.56695 11.8582 -11.6153 20
75 1 8.48181 16.0808 -5.13193 19
76 1 7.62134 -6.64215 6.34003 12
77 1 -5.18773 11.5591 -13.2877 20
78 1 -13.0182 11.9044 -8.29947 13
79 1 -5.25813 1.89898 12.4359 13
80 1 -2.36907 11.5491 2.13025 21
81 1 -5.46459 -2.69676 8.9199 16
82 1 11.4788 -4.95374 -9.31686 15
83 1 -8.18833 5.38619 2.06474 22
84 1 -8.39759 -11.5985 -0.853136 21
85 1 8.96708 -8.31404 -5.59128 18
86 1 7.39123 1.86001 -20.6998 10
87 1 -3.1566 5.69009 -19.1315 18
88 1 0.108785 15.3032 -0.972625 17
89 1 -11.9378 9.79079 -11.1114 16
90 1 2.13092 10.7681 12.4545 15
91 1 0.0882538 15.4003 -8.12187 22
92 1 -13.4975 9.48532 -6.44895 16
93 1 -5.0716 -5.70062 7.44582 19
94 1 13.9584 -1.88512 6.54703 10
95 1 5.59957 -5.60109 -12.7579 17
96 1 7.68906 4.96017 12.9773 22
97 1 -8.03396 -8.71243 -3.028 20
98 1 -10.9032 -8.74012 -0.25174 23
99 1 11.8118 -7.70591 1.0231 7
100 1 8.50706 3.93452 -18.3516 12
101 1 3.4037 19.6512 -3.47603 18
102 1 -9.28665 -9.03055 6.2496 22
103 1 -11.1198 -11.0083 4.63513 18
104 1 1.65955 -8.11038 -20.726 9
105 1 10.3124 -5.70923 -5.86278 17
106 1 -2.84783 -12.2111 2.00122 20
107 1 -7.84938 -12.2279 -3.54385 16
108 1 14.3995 8.97111 5.49169 12
109 1 18.2237 1.01903 -9.85611 7
110 1 -13.7493 -6.77963 1.97498 19
111 1 10.8 9.05969 3.10968 20
112 1 13.3668 13.8205 5.23667 11
113 1 -5.18134 3.85085 8.24732 21
114 1 -5.50671 12.2955 7.22615 18
115 1 -2.41065 14.4674 -9.8992 21
116 1 -0.701991 -2.22888 -14.2586 22
117 1 5.32817 -8.57017 -16.7899 19
118 1 3.05406 13.0942 -12.4029 20
119 1 7.32667 -4.22185 10.1823 9
120 1 -2.14119 3.20985 -20.4255 12
121 1 -4.18782 10.6076 -15.574 17
122 1 12.0626 -0.386726 -12.6519 17
123 1 -10.0112 14.8005 -8.32798 9
124 1 -5.34288 17.4185 -6.33473 14
125 1 9.05291 5.64589 -11.4044 21
126 1 7.59929 -5.77522 -0.712523 20
127 1 -5.64996 14.955 5.28705 16
128 1 15.255 5.27084 -11.0648 15
129 1 10.5933 10.286 -14.5591 13
130 1 -5.13269 14.9473 -1.41679 21
131 1 11.1014 11.5127 -2.18667 20
132 1 -2.81185 11.3579 -8.25051 22
133 1 -1.7574 19.7975 -10.1773 9
134 1 6.07788 10.0021 -17.7905 10
135 1 -15.3786 -8.8507 4.40231 14
136 1 -14.4989 8.40051 -12.7689 11
137 1 -5.82216 -2.64563 -15.237 20
138 1 0.314629 -4.38069 -18.2554 20
139 1 8.0891 16.5506 7.02668 8
140 1 -3.47153 17.1248 5.34552 13
141 1 -11.986 -2.83031 -9.06564 20
142 1 -14.7304 4.83397 -4.23952 9
143 1 15.5626 2.72438 -4.48136 14
144 1 -11.2855 3.17147 -15.383 21
145 1 8.70269 6.72906 15.7671 16
146 1 8.24437 16.9079 -2.06989 20
147 1 -2.84527 11.173 5.46094 23
148 1 3.47512 -2.82138 -19.9157 15
149 1 0.9734 18.601 2.61953 12
150 1 0.624329 15.7557 -10.8179 21
151 1 7.47905 -1.75935 12.0314 17
152 1 -7.48092 -2.73892 0.613433 20
153 1 -2.15057 -9.47019 -18.5101 14
154 1 -7.89631 14.4059 -13.2778 12
155 1 -2.65973 -9.30793 0.387024 20
156 1 0.149708 -14.0935 -4.1965 18
157 1 -4.9426 8.71727 -18.2716 15
158 1 -11.0597 0.386347 4.09345 25
159 1 10.4436 14.165 -3.98559 23
160 1 -10.7671 9.41686 5.35437 15
161 1 -0.791742 -8.42406 8.57838 13
162 1 4.19685 18.226 1.97293 12
163 1 0.334118 9.14434 5.64087 23
164 1 13.2662 5.63458 10.5686 15
165 1 -9.25435 11.314 -1.14275 16
166 1 7.60398 -5.89648 -7.34938 22
167 1 -7.81044 16.6038 1.91644 10
168 1 7.59402 -6.09702 -4.08986 20
169 1 -13.2258 2.60896 -13.1106 15
170 1 -5.21697 -10.5698 -2.90299 20
171 1 11.467 5.42207 15.3714 13
172 1 -14.226 -0.0766612 -7.68485 11
173 1 -1.99216 -12.1531 -3.88254 20
174 1 0.385637 12.3928 0.829907 20
175 1 2.45465 13.7976 10.3135 13
176 1 -5.07673 15.6451 -14.2736 11
177 1 -16.7436 -5.94556 -3.03934 8
178 1 -10.6517 0.312628 7.42803 20
179 1 2.30921 -9.04997 0.21063 24
180 1 2.48706 -12.3075 4.76772 14
181 1 -11.4983 8.9712 -0.883523 18
182 1 14.8833 0.368132 3.53669 11
183 1 -4.64457 -5.46063 -16.8099 16
184 1 5.22075 3.2125 9.4665 21
185 1 7.30218 -8.88525 4.02867 12
186 1 -2.33343 5.94468 -14.7978 21
187 1 1.05359 -7.88376 -16.7771 22
188 1 7.80431 1.87854 -15.6039 20
189 1 3.04144 8.2277 -16.6855 18
190 1 -8.38999 -1.3747 -13.6382 21
191 1 -8.19289 11.7418 -8.17519 21
192 1 -11.7334 -8.20878 8.84963 12
193 1 8.84263 18.9836 -4.13339 14
194 1 -9.36395 6.32403 11.9684 11
195 1 -5.44904 12.344 -6.27053 22
196 1 10.4766 3.0047 6.38192 18
197 1 -4.9862 -7.95764 -11.6327 16
198 1 -1.70794 12.3288 -14.9206 16
199 1 2.5458 8.75728 -13.1081 18
200 1 -14.4634 -11.3999 4.19246 10
201 1 -5.2036 9.52861 5.30685 23
202 1 -8.3596 14.1768 6.49621 12
203 1 0.0374461 -7.5501 -10.641 24
204 1 -6.74013 -13.0052 1.12248 16
205 1 12.1927 -7.4466 -7.06748 15
206 1 14.2723 5.11551 13.5917 10
207 1 2.646 10.9758 -10.7722 22
208 1 -14.407 10.9363 -10.7574 12
209 1 -0.0636167 6.54257 7.38422 22
210 1 8.56238 -12.0082 -1.22896 14
211 1 15.1385 4.79376 -7.97477 18
212 1 -10.2189 6.23032 0.727428 24
213 1 -8.71055 -5.80352 -4.62278 19
214 1 8.8356 5.0401 -15.0036 19
215 1 2.18683 -0.563175 9.29713 21
216 1 12.1759 10.1736 -9.62666 21
217 1 -2.8637 -0.091155 -14.7054 19
218 1 2.20067 -14.8183 0.501113 12
219 1 8.28473 2.35351 -12.8314 21
220 1 -10.7114 0.566079 0.781046 19
221 1 2.42204 -15.3938 -10.3052 12
222 1 -8.59941 -1.72504 -9.84072 23
223 1 5.51997 15.745 -7.04197 17
224 1 -0.10061 0.692681 -15.9749 21
225 1 11.8334 8.94995 14.8093 10
226 1 14.7258 1.12084 -1.21982 13
227 1 6.4802 -4.59044 -19.8647 7
228 1 -5.35421 0.732433 -13.526 19
229 1 -8.19592 6.45956 -14.1351 23
230 1 -11.0767 -11.4739 7.73202 10
231 1 10.9258 -2.35542 13.6983 10
232 1 -10.9961 -3.76335 -17.1952 11
233 1 0.387546 12.5791 -12.8594 23
234 1 3.15956 14.1695 -2.94118 20
235 1 -8.01368 3.22907 10.5621 17
236 1 -10.7673 -8.32763 -10.5525 14
237 1 -7.70133 -4.31611 -16.515 15
238 1 -2.64079 11.6296 -18.0446 13
239 1 -6.05319 -7.91037 -8.17661 24
240 1 8.21027 -8.27433 -11.8227 14
241 1 15.7486 2.15304 -9.80546 17
242 1 11.5423 6.6115 -1.93854 20
243 1 -9.7741 -2.61307 9.53804 17
244 1 -2.46896 -9.03829 -3.09647 19
245 1 10.7238 0.399688 11.9242 21
246 1 -13.5579 -10.1553 7.1509 12
247 1 0.653992 -11.0114 -2.74614 20
248 1 -2.9886 17.0577 -8.50636 19
249 1 2.66463 0.0254744 -17.7853 21
250 1 -5.30658 0.850044 -17.0035 20
251 1 -12.4835 -7.97666 5.29706 24
252 1 -0.062827 9.25644 8.89412 21
253 1 3.23241 -11.7574 -4.65666 21
254 1 -4.86565 -10.1458 -14.5624 10
255 1 -10.6686 0.390573 -17.298 13
256 1 10.0783 6.31244 1.39156 21
257 1 -5.04522 5.96593 -12.5081 23
258 1 3.90983 10.6775 -14.3313 18
259 1 5.25271 -13.8155 -10.4763 11
260 1 -5.25428 17.8999 -2.78793 13
261 1 2.702 11.3774 2.41235 21
262 1 11.0727 3.49511 2.26107 17
263 1 -8.08745 2.13862 4.13593 21
264 1 -3.3369 -3.60477 11.0673 16
265 1 -4.70623 9.36156 2.1131 21
266 1 2.26991 -2.49251 -16.3894 18
267 1 13.5852 12.4216 -7.42607 15
268 1 5.57518 -11.1603 -2.9293 19
269 1 -5.98496 -1.63444 12.0931 15
270 1 -13.2872 -3.29109 0.63354 18
271 1 1.17323 -15.2233 -6.64729 11
272 1 -10.4335 8.29655 8.93129 12
273 1 -7.99448 5.57842 8.74964 19
274 1 -10.9108 -5.14057 4.41031 20
275 1 -14.5767 -6.7308 7.06 12
276 1 13.7256 0.0621715 -4.06908 21
277 1 -7.9367 -3.48458 7.02673 17
278 1 8.77092 -0.289622 -10.7791 22
279 1 10.1643 -13.6393 -5.33605 12
280 1 -0.102013 18.7973 -5.10931 17
281 1 -2.61968 14.3478 -6.43966 20
282 1 10.1851 7.36092 9.45133 19
283 1 4.5546 -10.3751 -7.44153 16
284 1 -5.19696 12.1814 0.365283 21
285 1 4.85777 -8.34896 5.57691 17
286 1 10.8381 -4.6763 3.17324 12
287 1 0.0282689 -0.277409 14.401 9
288 1 0.393062 15.1445 2.49313 21
289 1 8.29905 9.60457 14.0147 12
290 1 -4.77221 14.4967 -11.6293 19
291 1 0.392149 -2.66065 -20.8777 10
292 1 3.0647 -9.69163 -18.8238 17
293 1 -10.7842 2.57148 9.14394 16
294 1 -13.3166 -0.16603 -10.6458 16
295 1 -7.98995 11.4417 -5.06484 19
296 1 5.02673 0.276593 10.9794 21
297 1 -14.2334 -8.80837 -1.78238 20
298 1 4.99162 -5.15405 4.54192 23
299 1 -8.83282 -3.01638 12.1793 11
300 1 -15.7701 9.82842 -8.09273 11
301 1 2.31689 -9.10071 -8.89714 23
302 1 -5.65563 -1.94424 -11.4158 17
303 1 9.19902 -0.528817 -14.0878 17
304 1 6.02522 15.2976 1.99996 19
305 1 -10.5616 0.855963 -5.90935 18
306 1 3.10859 -13.3036 -13.4806 13
307 1 8.49561 0.41326 -18.0348 12
308 1 -4.70295 -13.5488 -8.52284 11
309 1 -14.6626 -5.0346 -8.02732 13
310 1 7.66904 8.31765 11.1749 19
311 1 10.491 2.49191 -7.49395 18
312 1 -9.38268 8.11795 -12.2528 18
313 1 -2.32079 20.5852 -4.09907 10
314 1 -14.0994 -3.54277 -11.1768 12
315 1 -13.1027 8.11536 1.33412 15
316 1 -8.24132 8.6897 -6.20245 20
317 1 -8.04491 11.1766 1.76675 19
318 1 10.5222 2.99995 9.89952 21
319 1 14.759 0.408895 -7.53616 16
320 1 8.18428 -2.26549 15.658 7
321 1 11.0967 2.7797 -11.178 20
322 1 -4.61707 -13.1517 -4.61373 17
323 1 5.27432 -7.98284 -4.17766 19
324 1 7.5609 -0.439404 6.12175 23
325 1 -9.02717 -5.83958 -8.19456 19
326 1 -5.35279 -7.97558 -1.25811 20
327 1 -10.2226 -5.15041 10.7933 11
328 1 -4.20648 19.0074 2.31581 10
329 1 -12.6349 -6.2986 -0.849854 20
330 1 4.99085 11.9268 11.1644 16
331 1 -11.5608 6.9304 -5.71741 19
332 1 3.16621 14.1578 -9.58097 20
333 1 5.69199 12.5056 4.39937 22
334 1 -14.9363 -9.1522 -4.82367 13
335 1 -2.44987 -5.24291 -14.4362 17
336 1 -14.3571 -0.139094 -4.18334 13
337 1 -16.3916 7.94861 -10.5385 11
338 1 4.64545 -7.78724 1.80284 23
339 1 -6.40088 -10.8558 -6.50494 19
340 1 10.6756 13.5773 7.58715 15
341 1 5.47383 7.54827 -14.9336 21
342 1 -13.9165 5.37111 -15.2139 11
343 1 -3.32223 16.891 -11.382 16
344 1 -10.7184 6.77502 -9.33864 17
345 1 -0.131866 -11.1795 0.66059 21
346 1 10.4935 5.65419 4.4626 19
347 1 5.39073 15.4857 -12.5267 10
348 1 -13.658 -2.86167 -6.27031 19
349 1 -5.54712 -10.3868 1.34557 19
350 1 2.69534 -10.6236 -14.9768 20
351 1 -13.3406 2.31562 4.13085 15
352 1 -13.4889 2.30408 0.741541 14
353 1 -13.0691 5.44547 -1.11346 20
354 1 -8.6089 4.71123 -16.5699 19
355 1 7.77515 -11.6654 -4.55327 20
356 1 -0.594427 -11.2926 -13.5906 14
357 1 -2.6998 -3.39825 7.33758 18
358 1 -6.78956 5.99509 -19.369 11
359 1 5.54524 -10.925 0.38001 22
360 1 6.47442 10.2726 -12.4439 17
361 1 -11.5616 6.34095 3.78718 19
362 1 -2.8404 -0.292959 12.0225 16
363 1 -12.4375 -5.88842 -9.28186 14
364 1 -9.82064 -5.81132 7.76646 16
365 1 7.26095 -3.66321 7.42724 17
366 1 10.3665 -5.79465 0.157701 17
367 1 10.8743 10.9849 -5.58351 17
368 1 -2.6305 5.30891 8.68845 22
369 1 2.53704 14.1211 -6.16625 22
370 1 -2.86502 -12.0556 -6.9356 18
371 1 -3.50843 8.4835 13.4007 12
372 1 -0.554584 18.7872 -0.0197322 17
373 1 -8.71867 -8.7179 -6.27711 20
374 1 11.1921 17.6805 -2.51737 14
375 1 5.66712 9.3598 5.92265 20
376 1 -5.94289 3.52155 5.34829 23
377 1 -11.1279 3.1543 5.51789 21
378 1 -7.23985 -3.96836 -12.7665 17
379 1 -7.89169 8.50929 3.4949 22
380 1 -2.96176 -5.98981 -10.7393 19
381 1 0.777433 -5.39036 -15.4976 21
382 1 -10.8085 -13.1313 -3.36656 14
383 1 16.1825 2.3603 5.98138 10
384 1 -6.28044 1.23529 10.0285 17
385 1 -10.9774 3.88124 -18.3928 10
386 1 10.8408 8.03319 -3.85972 20
387 1 -11.8929 -10.6375 -5.50917 18
388 1 0.0446838 21.3202 -1.81035 12
389 1 -3.1171 14.2181 10.6595 8
390 1 -11.5091 -4.90918 -5.80007 22
391 1 -2.7638 19.4611 -7.04594 11
392 1 9.83303 13.3237 -10.3568 15
393 1 -7.42676 -7.56096 -10.6133 20
394 1 5.32166 1.99643 15.2874 13
395 1 0.458553 -13.1326 -11.1862 14
396 1 1.91443 -3.24808 -12.8221 23
397 1 12.7866 -8.78386 -2.17259 11
398 1 -13.7421 7.71394 -3.08207 13
399 1 6.175 4.56972 17.3045 8
400 1 8.19553 10.7028 -4.68383 21
401 1 -5.70083 9.26356 -10.9318 19
402 1 -13.5606 -3.42248 -2.77049 21
403 1 3.20234 22.5669 -2.38048 7
404 1 -3.129 3.04908 -16.3835 20
405 1 11.8236 8.99067 -0.136576 22
406 1 3.27634 17.0173 -8.83716 17
407 1 17.4529 4.98787 -6.12002 11
408 1 2.01938 3.44608 -16.2226 20
409 1 -3.89786 -8.72652 3.60088 21
410 1 -0.608769 -5.59199 10.5459 14
411 1 -7.61995 6.64403 -10.7155 20
412 1 -13.9252 -11.8771 -2.73337 12
413 1 -5.39212 -8.7885 -16.9797 10
414 1 5.804 16.4604 4.25361 16
415 1 3.27349 5.73943 -14.4032 21
416 1 5.35481 -1.00972 13.7103 11
417 1 -13.458 -3.65837 3.6182 18
418 1 -0.661588 -14.0837 -0.538465 14
419 1 -10.6381 -2.56835 -0.992613 19
420 1 12.2014 0.550126 -9.49142 21
421 1 11.7516 0.00830196 -5.98852 17
422 1 2.99336 -5.75285 -10.8069 21
423 1 6.11751 3.77754 -14.411 18
424 1 10.7399 -3.72085 -13.8651 13
425 1 -2.92153 2.61771 10.0531 20
426 1 5.77064 18.3948 -6.10925 14
427 1 -2.68705 -0.0583965 -18.1137 17
428 1 2.87679 6.2552 -21.2652 12
429 1 -5.12574 -2.67338 5.45947 20
430 1 -2.22869 16.8609 -1.6859 18
431 1 -4.43495 1.28494 -19.8662 12
432 1 -16.3739 -3.1921 -5.00219 11
433 1 -1.60828 -7.07815 -20.9621 9
434 1 -7.2254 -7.49052 8.66655 14
435 1 -0.26629 12.4095 -9.4764 24
436 1 13.5611 10.4779 2.40658 16
437 1 14.1647 7.22144 2.82728 13
438 1 -9.91952 -14.2238 0.329561 12
439 1 -5.37852 -2.16124 -18.8532 13
440 1 -2.67557 14.3762 3.7578 22
441 1 10.959 0.686486 -2.01114 23
442 1 6.28187 14.5998 -9.94311 14
443 1 14.0369 7.4992 -9.49894 18
444 1 5.28228 9.51385 13.2952 14
445 1 -8.48153 5.31051 5.21496 21
446 1 4.94926 12.2171 8.13225 21
447 1 8.67188 3.1755 16.0225 14
448 1 2.57949 5.47994 -18.0585 20
449 1 -0.549958 0.371428 10.7411 20
450 1 7.67992 10.7728 2.70336 17
451 1 9.44093 10.5077 -8.04817 15
452 1 -10.9506 12.2878 -9.81487 15
453 1 -5.71821 12.328 -3.03238 22
454 1 13.5793 2.38907 14.766 11
455 1 13.3014 -2.98515 -12.4417 13
456 1 12.5559 -6.69458 -4.54096 18
457 1 13.9032 8.33672 11.8757 12
458 1 -16.0507 -7.94741 0.619369 15
459 1 -3.22094 8.77166 -12.9526 20
460 1 -13.4173 -0.605699 2.49975 16
461 1 -1.58562 14.9213 -13.0695 19
462 1 4.51056 -14.8795 -7.74201 9
463 1 5.77428 0.578946 -12.971 22
464 1 -5.78237 15.6055 -8.98761 14
465 1 -10.299 -4.12849 -13.863 23
466 1 2.60452 -11.9909 1.89664 19
467 1 -10.9922 -2.2123 -4.36264 21
468 1 3.34966 14.1647 -15.1876 10
469 1 -0.391853 9.52422 13.7185 12
470 1 -7.91378 -3.13811 4.03939 23
471 1 -0.311212 -7.72933 -14.3067 20
472 1 1.76549 -3.83095 11.1713 11
473 1 -8.19987 8.74097 -2.64186 19
474 1 5.73702 7.57237 15.4096 12
475 1 2.9612 19.5803 -7.28649 14
476 1 10.8676 -1.97216 -7.50303 15
477 1 2.94653 8.00104 7.45547 22
478 1 1.60963 8.53092 -19.1452 17
479 1 -7.39744 -10.7769 7.2041 14
480 1 7.62594 -1.83397 -19.7322 10
481 1 2.46888 19.7871 -0.496252 17
482 1 11.3008 7.03796 -15.1275 10
483 1 -2.90584 -3.07893 -16.5264 19
484 1 -3.26187 -9.0455 -6.00958 22
485 1 -12.3804 -5.86041 -12.7869 13
486 1 14.041 6.00647 -4.0271 14
487 1 16.1992 9.39986 -5.05102 9
488 1 11.1425 -6.26248 -11.7859 14
489 1 15.0267 6.00199 5.76545 10
490 1 4.51011 -7.27704 -7.3662 20
491 1 5.10844 7.33379 -19.233 13
492 1 8.53521 14.9252 0.109687 20
493 1 7.95062 13.3835 7.10583 20
494 1 13.8497 15.3825 -6.69102 10
495 1 13.2582 3.04872 -3.04886 17
496 1 12.0807 4.86454 -9.29891 23
497 1 10.3509 3.20349 13.4211 18
498 1 13.4903 3.1499 8.121 17
499 1 7.84844 13.4792 -6.7166 18
500 1 2.33085 5.38863 12.2108 21
501 1 14.2036 -4.97598 -9.97253 10
502 1 7.53398 1.93985 10.7574 19
503 1 -8.0784 1.40845 -11.6205 22
504 1 13.4671 3.64391 3.89725 15
505 1 -8.10007 8.6199 6.90411 22
506 1 8.72809 10.9579 5.69314 22
507 1 7.85987 4.89936 9.38682 22
508 1 3.31348 11.0267 5.97173 22
509 1 -0.0181098 17.6716 7.18634 10
510 1 -0.0741173 -14.1177 2.93611 12
511 1 -5.64425 9.67471 -7.73493 24
512 1 13.7673 6.96737 -12.3818 15
513 1 5.50553 0.0849659 -16.1032 18
514 1 0.868304 18.0797 -2.89908 19
515 1 -2.89872 -8.86482 -9.37647 21
516 1 9.01039 -6.20602 -14.0805 11
517 1 -10.3132 9.40271 1.4411 18
518 1 -2.56809 8.40207 -16.6924 19
519 1 -3.03789 -12.0061 -1.02972 18
520 1 -5.93453 3.61628 -14.2787 20
521 1 -11.726 2.48174 -7.88365 17
522 1 12.8927 -4.6308 0.979763 12
523 1 14.2434 7.01277 -0.57721 11
524 1 0.278876 -8.50509 2.04309 19
525 1 -10.4566 0.621354 -9.56417 21
526 1 1.45776 3.14432 -19.5361 18
527 1 -0.536444 6.16374 10.6706 20
528 1 8.39097 8.28171 -16.6111 14
529 1 13.2628 -0.373328 12.931 12
530 1 11.1147 7.35144 -11.2498 23
531 1 11.4838 14.8135 -0.81641 14
532 1 1.96407 -9.2714 -12.0631 18
533 1 -10.9027 -0.451505 11.1027 12
534 1 9.86701 -2.68552 -0.426792 21
535 1 -0.709928 14.859 8.76573 17
536 1 1.87317 18.9907 -10.7902 10
537 1 -11.046 11.8884 -6.19562 17
538 1 10.3885 11.8194 1.15587 22
539 1 -11.8339 -7.60817 -3.4061 21
540 1 11.1228 -4.41224 -2.68298 15
541 1 8.54656 19.7722 -0.427982 12
542 1 -2.7126 8.56632 7.0753 22
543 1 -11.0598 -5.67105 1.21263 22
544 1 -9.12461 4.13499 -12.9608 21
545 1 8.46936 -1.12445 9.36743 16
546 1 -4.11652 -6.58915 9.87377 11
547 1 8.13269 11.2896 10.033 16
548 1 -5.89 18.2714 -0.0850834 10
549 1 -0.505986 1.0626 -19.5955 15
550 1 -8.54229 -0.390777 5.76071 19
551 1 10.8747 2.17506 -14.2634 15
552 1 10.7128 -10.3702 -9.48458 6
553 1 8.31668 5.16139 6.49693 21
554 1 -7.27189 8.14506 13.7256 6
555 1 10.8559 7.69195 6.48711 18
556 1 -0.746811 -2.80672 12.4632 13
557 1 -2.84258 8.09766 10.3085 19
558 1 0.226879 -1.47131 -17.5745 18
559 1 -8.70399 2.76652 7.13611 22
560 1 2.39857 2.59788 10.6853 23
561 1 -11.3811 -11.7068 -0.582526 19
562 1 13.3997 8.75036 -5.93808 21
563 1 3.12266 -11.6447 -10.7735 19
564 1 5.49387 8.96234 -7.8671 18
565 1 10.3837 17.2186 0.553686 14
566 1 3.98357 3.2057 -21.1639 13
567 1 2.76559 16.8277 -5.57866 21
568 1 13.3556 9.24923 -2.96261 18
569 1 -5.92603 -7.99571 -4.68988 20
570 1 -0.496531 3.76842 -17.5424 23
571 1 -7.53048 14.6319 -6.45092 17
572 1 5.13826 -8.25742 -13.0994 20
573 1 15.8275 8.99884 -11.9019 9
574 1 13.0373 14.239 -9.7344 12
575 1 10.852 0.798325 15.0064 14
576 1 13.7502 2.63711 11.3812 13
577 1 -0.292032 -8.10187 5.59297 21
578 1 -9.58415 12.5674 -15.7229 8
579 1 0.345179 12.2055 7.29089 22
580 1 2.90972 -13.314 -16.8409 10
581 1 10.7589 14.9846 -7.63032 15
582 1 8.7922 13.9472 3.44279 20
583 1 15.0571 -7.71409 -4.81614 11
584 1 10.8648 9.57229 12.1059 15
585 1 -10.4412 -4.59479 -2.54901 20
586 1 9.44275 -17.042 -4.34838 5
587 1 -5.71719 14.9523 -4.569 18
588 1 5.2149 12.131 -2.75949 23
589 1 -11.0275 -2.57719 2.7112 21
590 1 -5.51271 6.32874 10.1307 17
591 1 -9.89258 9.05181 -15.0447 14
592 1 -6.26883 13.054 -16.051 12
593 1 9.48893 -14.5704 -2.29 11
594 1 10.7398 7.93027 -7.99621 21
595 1 -10.9548 -2.2515 6.08168 20
596 1 7.64104 -1.92254 -16.1352 14
597 1 2.47477 -9.51988 7.30769 10
598 1 5.06775 11.97 -6.2297 22
599 1 1.81156 2.34414 13.8741 15
600 1 -10.5506 -6.38108 -16.1279 10
601 1 -9.55118 -7.14237 -13.3427 16
602 1 -8.55899 -10.2032 -11.8388 11
603 1 0.336356 18.3476 -8.31741 19
604 1 -2.21101 14.6031 0.498593 20
605 1 4.80111 -7.7056 -10.4934 22
606 1 11.2747 -10.1193 -4.8114 15
607 1 2.45618 -6.19128 5.47534 18
608 1 17.8288 4.33025 -9.3882 11
609 1 -2.53816 -15.0915 -6.14418 13
610 1 -13.4091 -1.42057 8.21661 13
611 1 -3.15358 -14.9989 -2.45357 14
612 1 -5.50574 -10.7739 -9.82979 18
613 1 -13.9409 -0.14456 5.64808 14
614 1 -13.2515 -12.3881 1.37583 10
615 1 13.3909 12.2509 -4.23012 14
616 1 -2.09251 17.2269 2.50582 14
617 1 -13.1158 -0.307832 -0.844133 16
618 1 10.2749 0.453575 0.953113 19
619 1 -11.6217 -1.18795 -15.2935 19
620 1 11.8997 5.06843 -12.8783 17
621 1 10.4588 15.3662 5.76119 14
622 1 -13.5048 -3.74017 -14.5921 12
623 1 -12.3044 -7.75972 -6.38548 15
624 1 -0.59325 6.38738 13.8156 13
625 1 8.39805 8.16697 -13.0711 22
626 1 7.72 17.9932 2.29002 13
627 1 -3.12627 2.36835 6.95509 21
628 1 3.15437 -14.8085 -3.11764 13
629 1 -7.85021 -12.6823 4.22094 12
630 1 11.2496 12.1739 4.05226 20
631 1 2.6749 -6.96631 -13.2502 19
632 1 5.61559 12.0352 1.09779 21
633 1 -7.45198 -6.48461 5.71032 24
634 1 9.5924 10.7486 -11.5476 18
635 1 -0.674314 -10.6348 -8.83362 22
636 1 8.26036 -11.4156 2.30095 11
637 1 6.27294 -14.9682 -4.41705 14
638 1 6.38599 5.86908 -12.3422 21
639 1 6.30378 20.319 -2.85001 11
640 1 -4.96906 3.78445 -18.0879 17
641 1 -0.130753 3.45555 8.7717 21
642 1 1.84808 11.3872 -16.3696 15
643 1 -8.02765 -1.21653 -16.4476 18
644 1 -9.74605 -2.56783 -6.67032 19
645 1 -2.25279 17.139 -4.65328 21
646 1 -2.59946 -3.89802 -19.4644 14
647 1 11.4241 6.01723 -5.68995 17
648 1 9.73521 -11.5059 -6.91204 14
649 1 -8.02067 8.45267 10.1971 16
650 1 5.09261 -7.5053 -1.20876 22
651 1 16.6082 -4.79122 -3.9749 11
652 1 10.3585 0.412198 8.02079 18
653 1 0.248677 12.6769 4.25801 20
654 1 -12.9016 4.34289 10.3847 6
655 1 -5.64485 6.62517 6.88774 22
656 1 0.0762426 -10.9276 6.88825 11
657 1 10.2452 10.3709 8.53817 16
658 1 -15.9087 -5.82416 3.96439 13
659 1 7.14786 -9.15601 -7.88566 18
660 1 -7.52561 12.8297 -10.5073 18
661 1 -0.865747 -10.8478 4.05618 20
662 1 4.98916 3.07177 12.7405 21
663 1 -3.25687 20.4283 -0.693169 13
664 1 2.43335 -8.78661 3.8878 21
665 1 2.69444 5.27591 9.07362 22
666 1 -14.2586 -6.23261 -4.14802 17
667 1 -0.570752 12.1795 10.7702 16
668 1 5.33408 14.4623 -0.901058 20
669 1 -8.0186 -9.11102 0.449914 18
670 1 -5.53171 -11.3902 4.30036 17
671 1 7.72275 -3.68022 4.48587 17
672 1 7.48213 -6.14044 2.6046 21
673 1 8.07997 8.094 4.33014 23
674 1 -0.473919 -4.71871 -12.2203 21
675 1 -0.317132 3.7246 -14.1514 20
676 1 -3.39345 -0.600664 8.95775 22
677 1 2.51711 17.0357 -1.07366 17
678 1 13.6279 0.406484 6.45542 16
679 1 5.67707 12.6848 -13.1195 18
680 1 -5.43451 9.48772 8.7619 18
681 1 7.90583 8.47753 7.81052 21
682 1 7.57254 -2.93482 -13.2245 19
683 1 -6.39951 -14.4872 -1.65831 11
684 1 10.2933 0.538704 4.45396 19
685 1 2.55086 -0.366191 -14.1331 20
686 1 5.28454 6.26934 10.9408 20
687 1 5.88959 -11.0755 -17.7758 8
688 1 5.97748 4.48863 -20.4584 12
689 1 13.5881 3.1042 -11.7496 17
690 1 12.9846 -1.31313 -0.44798 15
691 1 2.75071 -3.46869 7.67267 20
692 1 -2.50552 -8.61844 -12.5418 20
693 1 5.68424 15.2797 -4.4014 21
694 1 -11.1381 3.30155 2.62394 21
695 1 13.4466 15.5648 -3.49995 11
696 1 13.4645 11.5032 7.04801 11
697 1 2.27598 0.11254 -21.3914 13
698 1 -4.98061 12.5156 3.50642 24
699 1 12.7702 8.79144 9.35379 19
700 1 11.9108 12.9449 -12.6842 12
701 1 4.89562 2.7656 -17.4171 19
702 1 10.5455 -2.02881 -4.02147 16
703 1 -11.3591 3.80164 -4.30694 21
704 1 13.1178 4.63339 0.674522 16
705 1 -10.7506 -10.1939 -3.33149 20
706 1 -9.26713 11.366 -12.8191 18
707 1 5.65949 6.43517 7.73128 22
708 1 -9.05729 3.67369 -9.6207 22
709 1 -13.7745 5.31425 2.22069 12
710 1 7.36287 -9.97392 -14.5794 8
711 1 -11.8934 -10.6304 -8.46903 10
712 1 13.7278 -5.78903 -2.05057 13
713 1 -13.4381 2.34397 -2.61036 13
714 1 15.176 8.56411 8.26095 9
715 1 -5.54115 -5.25777 4.0698 24
716 1 7.8183 1.58835 13.2912 20
717 1 10.6095 -2.60546 5.41901 13
718 1 -10.5845 3.7703 -1.12171 20
719 1 2.89424 10.9246 9.49922 23
720 1 14.7537 12.1228 -10.3198 12
721 1 -4.11585 -6.81844 -19.5134 12
722 1 -7.4443 13.6591 2.56317 18
723 1 -10.4553 -7.97438 2.95692 22
724 1 13.1157 10.46 -12.781 15
725 1 2.39948 8.12394 10.7862 20
726 1 16.4997 -1.65763 -5.58331 10
727 1 4.57783 -5.26055 7.72402 15
728 1 -3.25743 14.2442 -16.422 12
729 1 7.58675 11.4477 -15.1317 13
730 1 -5.93199 0.683144 7.29779 20
731 1 13.4505 11.122 -0.634846 14
732 1 -3.52597 -3.41434 -12.9952 20
733 1 11.5491 17.5322 -5.70379 12
734 1 -13.8077 3.08973 -9.51309 11
735 1 -3.61413 -9.57317 8.97244 7
736 1 -0.562848 18.0509 -12.5149 13
737 1 4.58605 0.540649 7.66588 19
738 1 0.0128122 -10.7323 -6.10531 21
739 1 -7.99012 14.2222 -0.607235 14
740 1 -13.3436 6.74419 -8.65879 15
741 1 13.7975 -2.43168 -8.86405 15
742 1 0.838717 -11.7811 -19.4576 10
743 1 -7.67495 8.20239 0.248389 21
744 1 15.142 9.84163 -8.15317 15
745 1 3.8454 -6.11662 -15.5293 14
746 1 -7.07782 -8.17151 -14.0904 12
747 1 2.27871 -9.03166 -5.90349 22
748 1 -3.18163 11.0896 12.3467 11
749 1 2.10254 -12.5147 -7.56763 20
750 1 -0.210043 10.1862 -17.2167 18
751 1 16.9792 1.8362 -6.77262 16
752 1 7.59318 11.0703 -0.786322 18
753 1 -0.83707 -13.6806 -8.38343 16
754 1 5.41183 -7.98579 -19.8495 10
755 1 16.611 7.47864 -7.32808 13
756 1 -0.136956 6.55092 -16.2408 23
757 1 -2.92475 -6.24926 5.32912 18
758 1 8.12409 7.82085 -9.59318 23
759 1 -16.0982 7.00746 -6.99252 8
760 1 -10.4864 6.52714 6.19429 15
761 1 2.48456 7.82545 14.4835 16
762 1 -8.15622 -9.47428 3.81502 22
763 1 3.01437 14.4014 0.796003 17
764 1 6.04331 -13.7503 -1.40633 15
765 1 5.6383 11.8494 -9.43584 19
766 1 -2.57814 11.2946 9.17288 21
767 1 -3.38247 5.12536 12.1939 14
768 1 -9.6884 15.9708 4.76715 6
769 1 -6.93076 -4.6596 10.3208 17
770 1 4.93594 -10.8917 3.63781 19
771 1 10.365 6.92231 13.0857 19
772 1 7.50017 -2.79726 -9.5093 17
773 1 6.09781 -11.8672 -12.3613 11
774 1 -7.88314 1.98094 -18.265 15
775 1 0.0981031 6.04282 -20.1689 16
776 1 5.36372 14.6427 6.22897 18
777 1 -8.38938 0.311851 12.2916 14
778 1 -5.23276 11.9539 -9.49213 20
779 1 -11.9108 7.02742 -14.0632 17
780 1 7.98673 13.5635 -2.61045 20
781 1 -9.77832 -11.5893 1.91746 22
782 1 11.9926 15.4657 3.27483 12
783 1 -9.14885 -4.47654 -10.7518 18
784 1 2.70126 16.5739 4.67297 16
785 1 -10.4719 3.24905 12.151 13
786 1 -3.14155 -12.0033 -11.4225 12
787 1 12.5196 -1.13691 9.83175 11
788 1 4.75197 -14.2581 3.22185 10
789 1 -3.11256 14.2941 7.25663 18
790 1 15.4266 -0.0714111 -11.8538 9
791 1 7.23342 -8.92114 -2.28235 21
792 1 5.1022 -3.33837 -17.3498 16
793 1 -10.7583 0.874762 -13.347 21
794 1 -7.80148 8.0707 -17.6238 14
795 1 -8.2246 11.4098 8.46385 12
796 1 11.8824 -1.60194 2.51143 16
797 1 -8.39941 -6.03801 -0.714048 21
798 1 13.543 2.82329 -6.5247 20
799 1 -0.562585 9.68246 -14.6425 19
800 1 12.8799 13.5134 1.65845 15
801 1 -2.74389 16.9723 8.89552 9
802 1 -13.1231 -9.41256 1.8634 23
803 1 7.5025 -12.1838 -9.00983 12
804 2 -10.8367 2.74717 -12.846 19
805 2 -4.85452 8.32297 -2.7947 21
806 2 1.90707 0.200396 -16.1405 18
807 2 -8.30831 6.48992 6.86192 22
808 2 4.26877 -15.1276 -9.68172 11
809 2 -10.4529 -4.73209 -9.22821 18
810 2 6.7673 3.2709 15.9936 15
811 2 7.95921 5.44909 16.9008 11
812 2 -8.94509 -10.4843 -2.77272 23
813 2 -12.9671 9.3241 -4.32491 12
814 2 3.4053 15.3444 -1.26812 17
815 2 -10.8644 2.82928 -2.88431 22
816 2 -2.31152 18.6113 -11.6088 11
817 2 13.5145 6.5704 0.978383 14
818 2 -1.49316 12.8894 -13.1234 23
819 2 9.02857 18.8759 -2.34992 15
820 2 -8.64562 0.672251 -17.0096 18
821 2 -13.3099 -11.6762 -0.62271 18
822 2 2.01019 6.25056 7.72237 24
823 2 5.36732 -2.3883 -9.10343 21
824 2 2.45095 -14.3471 -1.38352 14
825 2 -7.60641 12.5768 -6.66255 25
826 2 -13.4775 3.12148 -11.2785 13
827 2 11.1905 5.32755 -0.529718 21
828 2 5.83016 -10.0097 -13.1061 15
829 2 -15.1036 -11.2946 2.26646 11
830 2 -7.48379 -2.22131 2.38951 23
831 2 -7.19007 -11.3023 0.442124 21
832 2 8.06228 -7.84237 2.46114 16
833 2 -2.29182 -10.6282 -10.0858 21
834 2 9.20685 1.70698 14.4986 16
835 2 3.04771 11.0081 -12.7477 20
836 2 1.4636 -12.9793 3.13302 15
837 2 -13.172 -6.39899 -7.51369 14
838 2 3.32473 6.4234 10.3928 19
839 2 -7.81417 9.83826 -0.784082 20
840 2 1.10189 6.68092 11.5842 21
841 2 -6.98173 11.3392 -9.70698 17
842 2 8.37447 -12.9715 3.37734 6
843 2 1.10699 16.8137 -9.11263 19
844 2 12.0171 14.439 6.41209 11
845 2 8.7312 18.2698 0.794346 13
846 2 5.57388 -1.93021 -16.164 17
847 2 -9.97069 14.5378 5.69902 9
848 2 4.7285 8.57248 -17.784 15
849 2 -2.64159 9.57633 -15.0375 24
850 2 12.0904 16.0608 -6.65074 13
851 2 -7.05351 1.49934 11.9586 13
852 2 -13.3353 3.21272 -0.800838 15
853 2 16.712 0.213075 -10.3488 10
854 2 -10.1517 -2.1747 11.2401 12
855 2 3.15177 -12.509 -15.1399 11
856 2 -0.522247 0.250742 -17.9573 17
857 2 -15.9139 -9.65279 -0.893493 12
858 2 13.5606 13.064 -11.3578 14
859 2 -3.17016 12.4881 0.459716 20
860 2 -9.39702 -8.4803 -11.9611 15
861 2 -5.54549 14.5173 3.56478 18
862 2 6.48086 -2.67022 10.9113 15
863 2 0.0671187 -3.75712 10.4221 16
864 2 14.3191 9.06752 3.63619 13
865 2 7.24728 14.8266 -11.5537 12
866 2 -11.018 3.36409 -6.18449 15
867 2 8.91562 11.9441 8.28111 17
868 2 11.1945 -9.08978 -7.97426 13
869 2 5.12112 -11.9349 -4.72249 19
870 2 -3.56347 15.0386 5.60216 20
871 2 5.36517 -8.9784 0.252142 20
872 2 12.6387 -2.8059 0.821544 15