ITEM: TIMESTEP
10000
ITEM: NUMBER OF ATOMS
1500
ITEM: BOX BOUNDS pp pp pp
-30.0 30.0
-30.0 30.0
-30.0 30.0
ITEM: ATOMS id type x y z Coordination
1 1 -8.53993 -9.25164 -5.24756 18
2 1 2.09382 -8.72677 8.1961 16
3 1 -14.2238 5.64198 2.55434 16
4 1 -10.7163 3.40122 -10.6143 15
5 1 -5.36036 -7.11469 7.57243 19
6 1 -6.33248 -0.690035 -16.713 13
7 1 -5.24476 -14.7114 -1.15776 12
8 1 -13.4111 -8.10429 1.03582 23
9 1 -1.84806 0.67258 12.8441 15
10 1 4.18963 -2.61026 4.02976 23
11 1 1.70803 3.76649 9.93249 23
12 1 5.2433 -0.917683 2.13609 19
13 1 -4.96907 9.10033 -10.4743 16
14 1 1.59179 -1.80154 12.4853 18
15 1 13.6766 3.7775 6.24785 9
16 1 -1.17802 5.20411 -14.6597 19
17 1 1.56881 4.4656 -13.3491 17
18 1 -11.0455 -0.770456 -0.125146 20
19 1 -4.323 -2.01222 -8.30452 23
20 1 3.14467 -11.9872 3.61361 18
21 1 -2.48795 -1.17749 7.32366 23
22 1 10.821 -9.14969 -2.53728 11
23 1 -9.51554 -12.2449 -7.71984 17
24 1 1.1446 -4.47279 -3.12798 21
25 1 1.1813 -2.97485 -11.1148 17
26 1 -0.748261 -0.878584 10.2158 20
27 1 -4.7503 -10.8821 2.44042 22
28 1 0.843728 -4.19581 10.0428 16
29 1 -13.2572 0.0583464 2.15638 19
30 1 -9.64645 0.318277 -3.05532 20
31 1 -8.59282 11.5754 -6.69329 16
32 1 -4.11954 3.76277 -9.34859 20
33 1 0.426735 -7.74136 -13.3531 9
34 1 -2.82636 -1.95875 15.261 10
35 1 -13.8614 7.36359 -1.40605 18
36 1 -0.871447 11.9996 7.75239 16
37 1 -12.0806 10.3935 -3.48016 14
38 1 -2.72465 16.7295 -3.07144 12
39 1 1.77087 -14.9358 4.03563 7
40 1 2.97122 -4.75358 -5.88921 23
41 1 -11.2751 3.69279 12.1174 11
42 1 -12.9155 -5.65696 -7.57268 16
43 1 5.60377 1.03796 5.07904 18
44 1 -5.81165 7.60066 -13.4026 16
45 1 -10.3432 -8.59568 1.81672 19
46 1 -12.7078 8.548 -7.52819 10
47 1 -1.00382 4.15352 -8.39021 19
48 1 -1.25104 5.40003 4.92668 22
49 1 -4.00295 4.70473 7.05456 21
50 1 4.78757 -9.64851 -5.47718 16
51 1 -0.345463 5.99341 10.7784 22
52 1 7.22968 -2.0374 -12.4868 14
53 1 7.40283 -11.1945 6.08813 7
54 1 -11.6315 -2.77999 1.99225 16
55 1 4.02565 -3.18742 10.048 17
56 1 -9.53199 -6.63058 7.17132 20
57 1 -12.8739 0.665888 -2.77727 20
58 1 12.459 3.3978 8.39576 11
59 1 4.87208 -1.65632 -0.625984 21
60 1 -4.29734 8.5702 11.6621 16
61 1 3.16127 1.89996 6.65054 20
62 1 -11.1299 -0.567978 3.91923 21
63 1 -5.59268 -4.98222 -8.41175 20
64 1 -10.3236 13.7988 1.60615 14
65 1 -5.34275 4.95576 -15.2479 16
66 1 4.60937 5.42696 -3.56396 18
67 1 4.66042 -4.16247 -3.22809 17
68 1 9.06794 -8.04714 4.68854 11
69 1 1.21747 -12.1346 8.14605 12
70 1 -8.53905 16.7427 -5.02459 11
71 1 -11.702 12.6435 6.20172 15
72 1 -9.46885 7.01455 5.84456 22
73 1 -11.0883 -8.28729 10.3258 13
74 1 10.7427 -7.04702 -7.14683 12
75 1 -17.1007 1.75212 0.18005 12
76 1 9.90319 -4.93348 -3.00581 17
77 1 0.614083 2.02319 -13.6887 19
78 1 -6.45307 -3.62997 -18.6038 11
79 1 -2.40609 14.8326 -0.662639 14
80 1 -9.23294 1.04897 -16.3267 13
81 1 1.01319 12.8212 -5.62193 15
82 1 -0.370906 12.2253 2.40243 20
83 1 -7.06475 -4.70922 7.39984 21
84 1 -2.43326 -5.04447 -8.72867 18
85 1 2.91992 -9.63352 -8.04478 13
86 1 -9.03095 5.32854 8.80955 21
87 1 -8.77936 -4.92653 -2.80671 23
88 1 5.34444 -6.32088 2.77796 18
89 1 -12.0262 -4.96312 -3.48383 20
90 1 2.93552 -7.36388 2.00252 20
91 1 -9.18965 7.41676 1.46331 19
92 1 6.45409 1.38895 -12.7115 18
93 1 -1.56551 6.11636 -5.88294 21
94 1 6.44721 -4.8432 -0.614411 21
95 1 -6.6537 -12.1484 5.28726 15
96 1 -8.72948 -11.0704 -2.57327 22
97 1 -16.5304 -8.43976 3.60958 11
98 1 8.58858 7.22766 9.39023 11
99 1 8.17479 6.36559 -0.840676 21
100 1 -5.84221 14.3313 10.2291 12
101 1 -10.3759 13.2901 -5.27735 15
102 1 -2.79115 -8.23426 -13.2967 13
103 1 9.19412 -2.21443 9.25739 15
104 1 -6.56226 8.77501 -6.86046 20
105 1 11.7941 -1.49887 -9.58916 15
106 1 -7.73034 8.31771 -10.3792 16
107 1 -5.19603 13.7099 -0.319546 16
108 1 2.08162 6.89132 -11.0337 24
109 1 3.57267 -10.3848 6.19126 19
110 1 -8.53954 9.33671 -4.22262 20
111 1 1.56472 10.84 -3.33076 21
112 1 9.46078 8.27271 -4.30072 15
113 1 -12.6908 11.3198 -6.21786 10
114 1 -9.38821 -3.66123 -11.3254 21
115 1 -2.31831 10.5243 12.0847 12
116 1 -15.6403 -1.49698 -5.69672 13
117 1 10.5183 2.1722 -5.3521 17
118 1 -6.29326 10.3521 9.53919 14
119 1 -6.82425 14.3042 -7.18481 13
120 1 2.78668 -3.42815 6.8421 22
121 1 -14.9951 -8.91371 6.26366 9
122 1 -9.6713 -9.10101 4.93033 16
123 1 -0.601038 -12.1104 -6.23608 12
124 1 -7.83246 11.4092 -10.3826 11
125 1 -1.69614 12.132 -5.7082 17
126 1 10.3158 9.51197 -7.51668 10
127 1 -8.41559 -10.1848 10.484 12
128 1 -9.99012 2.36536 -0.433217 20
129 1 3.20511 14.9712 3.24733 12
130 1 0.57448 8.8823 10.4427 17
131 1 -9.871 11.5173 -1.93754 19
132 1 -10.885 -5.97415 -5.67975 19
133 1 9.62613 -7.76368 -4.51315 15
134 1 -7.94391 0.412876 5.10612 19
135 1 -17.3329 0.654944 3.68463 12
136 1 -12.3431 -11.0472 5.67484 15
137 1 -17.7261 -0.0523894 -2.27909 12
138 1 -5.87805 -13.7374 2.16966 15
139 1 -7.72368 -2.37038 -3.65226 17
140 1 2.93947 -6.96662 -3.48724 22
141 1 -9.07163 10.4938 6.43154 19
142 1 -10.1379 3.11845 3.75699 18
143 1 -7.30199 3.59284 -9.35437 20
144 1 -10.0106 6.36316 -11.9352 13
145 1 -13.4618 -8.7293 -6.89759 17
146 1 -14.2861 -0.147499 5.21007 19
147 1 -5.57779 -9.00681 5.24434 19
148 1 -0.79654 -14.1037 6.06124 11
149 1 14.0093 3.16511 2.97743 12
150 1 3.39429 0.121256 -8.48243 17
151 1 2.09082 -1.4935 9.04472 21
152 1 0.392398 5.1286 -18.0003 16
153 1 7.31655 -0.0559288 -6.58021 21
154 1 -10.488 -1.56168 -9.61491 19
155 1 -10.6199 11.2653 -8.90587 11
156 1 -10.6539 16.0385 -3.47831 10
157 1 3.59691 1.78437 9.72713 24
158 1 -7.20614 -7.70691 -15.3771 12
159 1 -8.79462 9.54333 -13.1442 9
160 1 0.417524 9.56433 -10.4726 16
161 1 -9.59386 2.81693 10.9464 18
162 1 -10.209 11.3644 9.21391 13
163 1 -1.46828 -8.61915 -5.83525 18
164 1 -9.75046 -13.0995 -4.75637 15
165 1 8.63497 -7.61247 -1.09473 17
166 1 2.89325 -5.50142 -0.992914 20
167 1 5.07641 5.84455 -10.7176 18
168 1 -5.08689 9.51929 -4.0795 21
169 1 -16.6452 6.63725 -2.73483 11
170 1 -2.61468 8.66644 9.11425 18
171 1 8.57847 0.630566 -3.27145 20
172 1 -2.36918 8.40885 5.20982 21
173 1 -14.4207 10.5916 5.54983 13
174 1 -12.8662 -12.4836 -6.52017 10
175 1 3.61638 6.9342 -13.9717 12
176 1 0.855231 -0.637277 6.15272 22
177 1 6.32866 8.36562 -9.21785 16
178 1 1.90276 -10.8512 -4.70003 14
179 1 -9.45665 -7.73766 -13.2796 14
180 1 4.87712 1.6519 -6.56636 15
181 1 -14.8103 -3.36059 7.2334 13
182 1 -3.18881 -11.9419 -1.8908 16
183 1 -10.3299 -9.70665 -10.5518 15
184 1 2.75536 13.564 -2.52069 14
185 1 -0.552177 -4.12697 -13.2195 17
186 1 1.60209 1.35454 11.7084 21
187 1 15.1409 0.555841 1.23591 9
188 1 -7.16949 -6.29077 -0.274581 23
189 1 8.86366 -5.09834 -13.0873 8
190 1 -5.66276 -4.50116 2.14045 20
191 1 -9.21878 -1.45652 -13.7566 17
192 1 -10.5007 0.430524 -11.7394 15
193 1 10.0885 4.59389 10.8604 12
194 1 6.13422 -0.463326 9.70905 21
195 1 -5.11487 -11.2167 -8.26589 16
196 1 -0.662202 -5.73385 4.65497 22
197 1 -1.50541 7.53105 -17.1302 10
198 1 -0.393953 7.13429 2.16894 21
199 1 -10.8843 -5.00918 4.99424 18
200 1 -2.71483 14.4148 2.4252 16
201 1 -12.0664 -2.26826 9.5305 16
202 1 -12.5995 -8.06062 -9.97535 14
203 1 -6.96217 -4.47962 -13.8696 13
204 1 -10.4631 -7.64695 -3.26592 21
205 1 -3.83403 -7.73893 1.94942 22
206 1 9.3671 0.0597594 4.03524 19
207 1 -5.40478 -5.21887 -3.08888 21
208 1 -13.1482 -5.50619 8.9302 13
209 1 -5.15976 -9.27313 -0.312319 23
210 1 -0.0586147 -13.8234 2.46781 19
211 1 -5.24113 15.4759 -2.9312 16
212 1 1.45917 2.51152 -18.6737 14
213 1 -9.50652 -4.5156 -18.336 6
214 1 -0.322476 -11.9465 -0.361513 21
215 1 -7.18247 -11.6754 -5.88833 20
216 1 -12.1195 -0.835757 -15.5996 8
217 1 7.23365 5.52775 6.82159 19
218 1 -8.56226 2.54056 -11.8844 17
219 1 -2.54543 6.03153 -19.4265 10
220 1 -6.1322 -3.04093 4.77248 22
221 1 -8.35235 14.2116 -1.05968 18
222 1 -0.489654 10.6036 5.49201 20
223 1 10.6661 -2.11697 -1.97563 20
224 1 -14.9795 2.46448 2.01471 16
225 1 -8.72685 -7.89772 12.7796 12
226 1 -8.19841 9.16026 3.42819 21
227 1 -1.66587 -6.32583 -15.3523 13
228 1 4.94382 -9.7433 2.94508 17
229 1 0.317157 -0.792443 14.4249 12
230 1 -14.6836 -5.83814 5.82423 16
231 1 12.5387 0.97628 -7.79938 14
232 1 4.53488 -1.83191 -6.00626 20
233 1 7.45988 -7.09939 -7.10757 17
234 1 -8.5252 -5.82775 2.39329 18
235 1 -11.9506 15.07 -0.286592 10
236 1 0.298442 1.46185 8.76083 19
237 1 5.52099 7.31947 8.75476 18
238 1 -9.57639 0.566543 1.92711 21
239 1 12.8028 -7.39454 -4.20131 10
240 1 -5.80282 9.62978 1.56175 17
241 1 -6.30623 6.89316 1.16993 20
242 1 -0.00528357 -11.3941 5.12374 21
243 1 7.76793 -4.90277 4.34513 21
244 1 -7.9209 7.00375 11.2629 13
245 1 -11.1094 0.425457 -5.67681 21
246 1 -5.16801 -2.90896 12.0024 19
247 1 -6.69263 12.9406 7.3698 18
248 1 -6.85878 6.33673 -8.62524 18
249 1 -12.0646 6.31934 8.71312 20
250 1 -15.3891 7.99158 4.11649 13
251 1 -6.04972 -3.14578 -5.7666 22
252 1 -10.8873 8.27518 -1.83185 21
253 1 7.19073 2.64549 8.68122 15
254 1 -11.3433 -11.433 1.82696 21
255 1 4.95783 -7.77506 8.43098 12
256 1 -13.078 10.4914 -0.589419 16
257 1 -2.79394 -4.72001 13.283 13
258 1 -2.74082 -9.96281 -10.3935 10
259 1 -9.45873 -3.01543 -5.78857 23
260 1 4.15977 2.35331 -13.6698 18
261 1 5.80168 12.4748 2.40833 10
262 1 -13.9491 2.0726 -5.65954 14
263 1 4.66864 -1.1632 -14.1665 14
264 1 -10.967 -14.7914 1.33612 11
265 1 -17.0425 -3.65339 -4.57716 12
266 1 -3.83039 -6.11701 -0.566876 20
267 1 4.30559 2.74719 -10.1717 19
268 1 -5.3002 2.92711 -12.3878 16
269 1 -12.1651 1.07932 -8.66311 15
270 1 -11.0492 11.1482 3.50201 16
271 1 -7.15679 15.0576 2.72175 9
272 1 -8.90723 8.50775 8.82667 16
273 1 8.8467 -1.81444 -4.27868 14
274 1 8.12259 2.84324 -10.3666 21
275 1 -6.77195 6.80306 -3.63678 21
276 1 -0.166024 -8.11711 -3.29607 20
277 1 -2.74734 11.8801 -0.0514323 22
278 1 -8.14493 3.13919 -3.67107 20
279 1 4.73785 -11.489 0.465769 15
280 1 12.6006 -0.441065 8.08148 10
281 1 -13.5557 -0.615372 -7.19448 11
282 1 -8.52295 -9.11018 -0.54214 20
283 1 -3.965 12.1835 -3.31334 22
284 1 -15.8375 -7.41878 -5.40909 11
285 1 -10.0131 5.97081 -3.8759 19
286 1 -1.53929 14.1219 -7.85139 9
287 1 2.75424 10.6016 4.76008 18
288 1 -16.8853 -9.01537 -2.33969 12
289 1 -5.43399 -8.99392 -5.81333 21
290 1 -15.0718 -5.72822 2.88486 18
291 1 -13.6657 8.34369 -4.47915 13
292 1 0.850473 -8.68214 4.62033 22
293 1 -8.37581 -14.1017 0.144948 16
294 1 2.72735 9.22442 -13.1514 12
295 1 -10.1545 5.88946 -8.57541 18
296 1 -6.15381 -12.2536 -0.208723 21
297 1 15.0122 5.78695 3.29722 9
298 1 -5.54354 1.38512 7.03062 19
299 1 -18.0275 -4.07298 -0.886294 9
300 1 -11.4286 8.8694 5.57616 18
301 1 -6.55339 -10.8346 8.03057 17
302 1 -2.71995 -3.05756 -5.96518 22
303 1 2.28097 -5.97618 -11.7785 17
304 1 -4.94367 -5.04594 10.3324 21
305 1 -16.743 4.30352 4.68777 12
306 1 -2.33483 -6.22394 7.69282 19
307 1 1.88738 -8.1387 -6.07655 20
308 1 -4.47472 -7.26087 -16.0478 15
309 1 -8.35223 -3.2455 10.1734 20
310 1 1.42994 -8.55016 -0.764055 19
311 1 -3.48521 2.90741 -15.2548 19
312 1 5.3226 -12.8729 -2.76349 8
313 1 -3.74893 14.6748 -5.54032 16
314 1 -6.04129 -2.90066 14.7707 12
315 1 -10.2097 -3.7268 7.87252 20
316 1 7.14379 -3.6588 7.91706 18
317 1 8.81445 3.57838 0.884924 19
318 1 -7.74821 5.97502 3.41501 19
319 1 -0.64773 -0.32837 -10.9256 23
320 1 6.76878 -7.62023 5.59889 16
321 1 10.1595 4.17306 -8.09658 17
322 1 -4.12607 2.614 13.8231 9
323 1 -1.80019 10.3199 -2.51296 21
324 1 3.98295 -7.22811 5.91326 17
325 1 -6.9544 -13.4837 -3.13222 17
326 1 -3.67739 13.5685 13.2912 7
327 1 -12.7213 -11.2809 -9.26978 11
328 1 4.49229 4.55426 8.16482 19
329 1 -12.0519 2.45188 9.36849 13
330 1 -7.54715 -5.99462 -5.73855 22
331 1 -14.2857 4.70864 7.5014 13
332 1 -10.8259 -9.39687 -7.19867 19
333 1 -3.35585 14.6997 8.2337 11
334 1 -7.65418 -14.9115 -6.28741 12
335 1 -7.17257 -6.01622 -10.9394 18
336 1 -11.8547 -9.24537 -1.01357 22
337 1 -11.7887 -1.73216 6.78114 19
338 1 9.69807 0.602264 8.55146 22
339 1 -7.58045 -4.50268 12.8922 13
340 1 -9.53122 3.89339 -17.2724 8
341 1 11.0811 4.81986 0.597331 15
342 1 -13.3717 -12.6983 0.256057 14
343 1 0.640486 1.74949 -8.46457 20
344 1 0.36944 14.9393 1.31402 16
345 1 -2.44233 9.07178 -12.0373 14
346 1 -3.52285 12.2426 10.232 16
347 1 -14.8608 -2.3295 -2.7006 19
348 1 2.86375 10.4909 -6.6368 16
349 1 -9.32405 -7.08734 -9.77867 19
350 1 -2.95798 -13.1769 -8.61144 11
351 1 -1.49989 -6.10331 -11.018 18
352 1 -12.5587 13.7199 3.3064 15
353 1 0.873722 4.44364 12.9222 14
354 1 9.55798 9.62878 -1.18912 12
355 1 -4.07863 9.07099 -1.01692 22
356 1 -3.77869 5.37673 -12.5853 17
357 1 2.46465 0.934606 -11.5659 17
358 1 -4.33507 -5.90013 4.74053 23
359 1 -16.9922 -6.95355 0.42188 14
360 1 -3.28957 0.185617 -17.6249 15
361 1 10.8428 6.65648 -1.79483 17
362 1 5.32017 -8.01992 0.152122 18
363 1 13.0936 -0.0709751 -1.28507 15
364 1 1.44238 -1.24897 -13.8441 17
365 1 -1.63389 -8.77451 -0.94883 22
366 1 -3.4023 -13.3649 3.94788 16
367 1 1.27779 -5.74772 6.83854 18
368 1 -9.89077 4.14277 -14.2699 13
369 1 -5.14735 -9.43683 -13.1499 8
370 1 -0.56181 2.51792 -16.7968 19
371 1 -0.250767 -4.18929 14.498 10
372 1 -12.5764 -3.38237 -0.661915 16
373 1 10.4687 -2.45 -11.8665 11
374 1 6.49378 2.34876 -4.232 20
375 1 -7.16719 12.529 2.15982 16
376 1 -0.345722 -5.64378 -5.81507 22
377 1 4.9952 -0.945239 -11.0722 19
378 1 11.8421 -5.05411 -9.33626 11
379 1 -7.11428 0.389153 10.9554 15
380 1 6.62629 9.37271 -0.647867 19
381 1 -5.80242 -6.28959 -18.732 8
382 1 -8.98034 -0.760669 8.39075 17
383 1 -7.63993 17.2282 -2.3546 9
384 1 -8.94046 -1.77044 -16.732 14
385 1 -13.0666 2.74331 -0.260527 15
386 1 -5.75378 -9.00289 10.6748 14
387 1 -3.23884 8.78007 -6.63929 20
388 1 9.06292 3.4652 -2.32289 20
389 1 -15.2718 -9.61953 -0.230181 18
390 1 -1.64556 -10.7223 2.19427 20
391 1 -9.22623 13.7465 8.81556 8
392 1 -0.53492 -1.96989 -8.68137 21
393 1 -0.0909469 7.4393 -3.11891 20
394 1 13.6128 -2.13486 -3.90823 11
395 1 4.85521 9.662 -3.07907 18
396 1 -0.396603 -7.87966 1.70272 21
397 1 -10.9658 4.33819 6.88568 20
398 1 3.65104 9.82516 10.2547 13
399 1 -3.53554 5.08592 -17.2784 19
400 1 -8.74106 -4.55866 -8.38687 20
401 1 -2.56944 -2.85166 10.0137 15
402 1 6.88103 10.8612 4.73158 12
403 1 -0.218141 9.27239 -5.38956 18
404 1 -12.3462 12.955 -2.56797 14
405 1 -7.13916 13.3658 -4.16293 20
406 1 10.3682 -1.86648 6.23062 17
407 1 9.01037 2.71259 -13.2064 13
408 1 -13.9896 -10.9851 2.49837 14
409 1 -3.54247 5.64539 10.1191 20
410 1 -5.44068 12.2412 -9.51613 9
411 1 7.39829 -9.94242 -3.52962 13
412 1 2.90143 0.572425 -16.558 20
413 1 -5.41364 17.3625 -5.23073 10
414 1 -11.8165 -5.73904 -12.6776 11
415 1 0.320696 -15.1445 -0.204586 10
416 1 -14.4041 -6.37216 -1.53096 20
417 1 -6.08913 2.51542 -6.6029 24
418 1 -12.1824 -7.71178 7.04158 19
419 1 -0.688036 9.0264 -0.0937128 22
420 1 4.58499 -9.63786 -2.3076 19
421 1 2.9471 -6.87522 10.7024 13
422 1 3.49352 1.79598 -2.73986 21
423 1 -10.816 6.04278 3.42296 18
424 1 8.53462 -1.60028 -0.839634 18
425 1 4.77517 9.63189 7.25583 17
426 1 -3.9733 -0.0968962 -11.7492 18
427 1 -1.78361 14.0581 5.95255 13
428 1 6.21318 4.84019 -12.8536 17
429 1 -4.07848 -4.09262 -16.8553 14
430 1 -6.90769 -8.51835 -8.13737 18
431 1 -11.695 -4.76562 -10.1818 16
432 1 15.6516 3.17493 0.666437 9
433 1 12.9576 1.43472 -4.48526 13
434 1 6.09739 1.9166 -15.3865 11
435 1 5.25073 -6.47235 -6.26285 23
436 1 3.32755 7.32582 2.67266 23
437 1 -13.3453 2.90601 4.53594 20
438 1 10.7572 6.72293 -5.54051 11
439 1 12.4883 -5.10041 1.53126 12
440 1 1.3631 3.4297 -10.8612 18
441 1 9.74571 2.10525 13.4673 9
442 1 -4.18569 -3.80491 7.70742 21
443 1 3.0266 -2.20522 15.3944 7
444 1 11.5309 3.6116 -10.7956 9
445 1 5.09083 4.95976 10.933 20
446 1 -8.85486 0.737747 -8.74086 19
447 1 14.1714 5.71202 -0.193892 10
448 1 9.6655 -4.0659 0.589254 18
449 1 -0.684594 -5.9676 -0.58181 22
450 1 11.128 -0.67861 11.6061 12
451 1 -0.556354 7.21419 7.69806 19
452 1 3.99028 4.4105 4.59919 17
453 1 -6.66991 11.4195 -1.64515 20
454 1 3.58183 7.56439 -8.29017 20
455 1 8.98908 -0.20296 -10.1638 19
456 1 0.483961 11.8839 -0.418293 21
457 1 -4.6225 -16.1823 -7.89478 8
458 1 -14.5432 8.19168 7.58572 13
459 1 -7.3486 5.9019 -17.8498 9
460 1 -9.20218 -12.4002 6.95762 11
461 1 -7.35071 -2.16797 -8.41966 19
462 1 -15.4275 0.74557 -3.8385 13
463 1 9.46728 -6.23627 2.4467 16
464 1 12.0291 7.2342 3.74672 9
465 1 -2.63954 -9.17155 4.7689 21
466 1 -12.3131 -2.43139 -12.4067 11
467 1 4.20652 -1.01198 7.08062 21
468 1 -1.39661 2.4874 11.0603 21
469 1 3.4931 9.98581 -10.0463 15
470 1 2.78924 4.50963 -7.9263 20
471 1 -2.12426 -14.7421 -5.98323 13
472 1 12.5356 0.342691 2.77968 13
473 1 8.35942 10.0192 2.04661 15
474 1 12.1853 -7.85369 -0.663796 11
475 1 -5.69269 5.46352 12.7926 15
476 1 -11.7954 -5.78769 2.49904 17
477 1 -12.1622 -2.86326 -7.00181 18
478 1 7.97579 -0.600559 12.4988 11
479 1 -5.61305 -6.27294 13.1695 14
480 1 5.39696 4.97612 13.5422 12
481 1 -9.26345 8.18143 -6.82089 18
482 1 9.32581 2.74443 5.81065 17
483 1 8.9207 5.4068 3.06515 17
484 1 -1.63651 0.170108 -14.0564 17
485 1 -16.2175 2.00563 6.57795 11
486 1 2.80252 -2.92492 -8.58964 21
487 1 -3.63463 -5.77409 -5.91392 19
488 1 8.91876 -6.93901 -10.3152 10
489 1 4.07784 7.14617 6.06159 20
490 1 1.51551 4.80537 6.17507 22
491 1 7.72802 9.66879 7.21099 11
492 1 -2.6661 -7.65903 11.0713 14
493 1 -6.76255 3.64724 9.61753 18
494 1 0.950385 -5.3623 -8.69817 22
495 1 -8.61449 -1.33194 12.7396 14
496 1 7.17017 2.09514 11.4678 17
497 1 11.9116 3.24812 -1.94237 17
498 1 2.87066 -8.42934 -10.5478 11
499 1 -7.7692 -0.24774 -5.79868 20
500 1 4.80674 6.92128 -0.0615584 19
501 1 5.11159 9.69923 2.08386 20
502 1 -5.50972 -1.4528 7.59861 17
503 1 0.514841 16.0509 -1.79456 12
504 1 10.2231 7.65267 1.24031 17
505 1 -6.95328 -7.98508 -3.02532 23
506 1 -7.0279 0.328708 -13.5731 14
507 1 -14.0013 13.4173 0.706424 11
508 1 5.62994 -6.57048 -13.2009 6
509 1 5.28187 4.36593 1.64986 20
510 1 8.44777 5.55287 -11.2573 16
511 1 6.1983 5.09754 -8.47054 18
512 1 -4.84272 5.85144 4.21057 18
513 1 -8.73146 5.51469 -0.998374 19
514 1 2.87823 7.49291 -2.5381 19
515 1 -3.71868 -9.27908 8.04627 19
516 1 -4.84937 8.00833 -16.8652 9
517 1 2.30942 13.4637 6.72577 9
518 1 -2.16328 1.79745 6.8743 20
519 1 4.41998 12.0137 -0.830527 18
520 1 6.66632 7.96164 4.4976 21
521 1 13.8007 -2.61753 -7.62052 11
522 1 -16.3262 -2.59098 3.7863 12
523 1 -1.53 -15.9168 -3.20198 9
524 1 -6.02138 -2.9901 -11.0656 15
525 1 -4.85064 7.72864 8.14832 17
526 1 0.752833 -2.81646 -6.02798 22
527 1 1.02759 9.8019 2.2869 23
528 1 -15.4501 -2.88198 0.804169 15
529 1 1.85819 -11.6799 -1.93216 17
530 1 7.77881 5.50563 -4.60888 19
531 1 0.925411 -4.80248 1.97034 23
532 1 -0.924231 13.459 -2.88163 20
533 1 2.90279 -0.3758 -19.8265 6
534 1 0.210865 -9.28373 10.4382 13
535 1 3.33592 15.4119 -0.293708 11
536 1 -2.41238 4.49961 13.1331 16
537 1 -7.63139 -9.24394 -11.7146 14
538 1 1.78812 0.0834694 -5.89395 19
539 1 -4.02811 10.6275 7.27625 19
540 1 6.00769 -9.06925 -8.62369 11
541 1 -0.420087 -3.50511 7.28158 23
542 1 -0.297565 -13.5266 -3.34919 15
543 1 -14.2369 -0.0855921 8.5706 13
544 1 -2.4559 0.868295 -8.43917 21
545 1 -10.7585 -13.1236 -1.62762 16
546 1 -12.6136 0.522116 11.1195 9
547 1 7.82511 7.11289 -7.27153 19
548 1 -10.8959 0.995112 6.58876 16
549 1 -15.0348 10.9789 2.66125 10
550 1 7.22798 -3.50001 1.88923 20
551 1 -5.86997 11.5402 -5.97315 17
552 1 9.62248 -1.97476 -7.3188 18
553 1 6.24442 4.03355 -1.30882 24
554 1 -9.294 3.30551 -6.87408 15
555 1 -11.4116 -10.6237 -4.23623 21
556 1 -2.33593 10.4981 -9.05954 16
557 1 -5.59646 -0.0268087 13.7362 15
558 1 -8.0707 -11.3188 1.46681 17
559 1 -3.63209 -7.89456 -8.01061 19
560 1 -11.7728 5.21793 -1.85824 21
561 1 0.909649 7.52524 5.06023 23
562 1 -8.91846 -3.05368 5.24407 20
563 1 5.80843 8.27584 -12.0088 12
564 1 -4.57028 -15.6171 -4.46678 12
565 1 0.319734 3.14018 -5.4193 19
566 1 -1.37263 -2.72915 -16.0695 16
567 1 -3.59305 2.68326 9.17074 14
568 1 -2.18172 2.56797 -19.0022 15
569 1 -14.3053 -0.251605 -0.584263 20
570 1 6.57727 1.11407 -1.08276 21
571 1 -9.30291 -3.60294 0.114774 21
572 1 9.80089 6.95035 -8.95449 14
573 1 5.74228 -0.835508 -3.38123 20
574 1 -10.9206 6.52049 11.1207 16
575 1 4.05893 -4.19823 1.50615 19
576 1 12.4651 -4.87308 -5.60836 14
577 1 9.59216 -4.97823 6.96629 10
578 1 -3.41714 12.0154 4.70106 19
579 1 -8.0852 2.0611 13.7935 11
580 1 -3.88792 -12.0457 6.24914 17
581 1 7.13589 3.29861 3.77748 16
582 1 2.48376 7.02327 12.2486 14
583 1 -17.1323 -6.03133 -2.89449 11
584 1 5.93802 -7.04206 -3.0142 22
585 1 -2.47903 9.94777 2.3444 18
586 1 4.44583 -0.600924 12.4704 14
587 1 -6.49213 11.3587 4.55161 17
588 1 -1.41606 -11.7809 8.52984 12
589 1 -11.1794 -2.01633 -3.60601 22
590 1 4.27461 2.53772 12.2678 15
591 1 2.71737 13.066 1.43628 22
592 1 -8.96101 -13.7295 3.51635 14
593 1 2.68387 -5.61193 4.18143 23
594 1 6.73113 -2.00261 4.94381 22
595 1 2.2366 6.59896 8.62361 26
596 1 -4.61262 5.90524 -6.53309 19
597 1 -0.236135 -8.50993 -8.8211 14
598 1 -2.18692 2.54221 -11.2008 18
599 1 -8.64975 2.61032 7.2162 19
600 1 0.819094 13.345 4.60206 17
601 1 10.3781 0.721495 -0.142597 19
602 1 -3.44827 7.12169 -9.25902 21
603 1 -6.31242 12.0362 11.9589 11
604 1 5.50395 7.61012 12.2715 11
605 1 6.94053 -1.7725 -9.1198 17
606 1 -5.56731 -10.3796 -2.78905 21
607 1 -5.82003 0.77036 -8.90838 18
608 1 12.1959 1.17089 5.57712 16
609 1 -2.46227 -2.80028 -11.1373 21
610 1 -3.45616 -7.68005 -3.17762 22
611 1 12.4557 -4.73854 -1.91474 14
612 1 0.233141 -6.73345 12.1515 10
613 1 -6.47169 -14.0595 -8.83894 11
614 1 7.61615 10.4723 -3.81576 12
615 1 -7.16918 -6.14878 4.84383 21
616 1 -16.2655 7.77564 0.758615 10
617 1 5.1475 8.33688 -5.28332 21
618 1 2.15258 -2.10743 -16.7494 11
619 1 -4.90936 14.3524 4.64974 13
620 1 3.35231 3.77443 -16.1172 14
621 1 8.02467 -4.89209 -5.00531 15
622 1 -11.4185 3.04692 -3.12737 20
623 1 9.70068 8.98364 4.8363 12
624 1 -12.5742 -13.8758 3.4844 10
625 1 -0.814336 4.18908 7.92113 24
626 1 -16.6615 -4.50787 -7.5723 9
627 1 -13.6399 11.2375 8.5842 10
628 1 -7.86498 5.55913 -6.15419 20
629 1 7.74246 -4.87416 -9.64045 15
630 1 -13.8594 -8.33285 -3.2278 18
631 1 9.448 -8.85156 1.11044 10
632 1 -12.1461 7.90488 1.29132 14
633 1 -14.4332 -4.31016 -5.5422 18
634 1 -10.2857 -5.87799 10.5735 18
635 1 10.5084 -4.24214 3.61269 14
636 1 7.47755 1.45891 1.81192 16
637 1 -15.0289 4.5896 -0.47966 19
638 1 -1.50836 7.99839 12.8795 14
639 1 0.31943 7.25798 -8.06247 18
640 1 -8.97233 13.4457 4.83049 17
641 1 6.92224 10.6981 -7.24747 12
642 1 -3.77187 7.56403 14.2584 9
643 1 6.10908 -5.47658 10.7256 7
644 1 0.878416 12.0496 -8.63732 12
645 1 -4.12297 -0.059313 10.4941 16
646 1 -3.4343 -4.60029 -14.1129 19
647 1 -18.0754 -1.10224 1.27005 10
648 1 -13.0357 -8.54399 3.86941 22
649 1 7.77724 -0.0243018 6.82379 19
650 1 -3.54773 -11.5177 -5.66048 21
651 1 -16.6568 3.49319 -3.1269 12
652 1 10.7481 0.814945 -11.9719 11
653 1 -9.33995 10.3172 0.509178 21
654 1 -12.9172 5.84603 5.22291 20
655 1 -8.87131 -12.2651 -10.977 7
656 1 -1.15063 -10.745 -3.66881 19
657 1 3.05481 -13.5427 0.4661 14
658 1 -0.243124 7.97418 -13.63 14
659 1 9.76731 1.17661 -7.84306 20
660 1 6.83046 7.05456 1.61839 20
661 1 11.8377 -0.702997 -5.64483 15
662 1 -4.21208 -1.92738 -14.5419 17
663 1 -0.628516 -9.27537 7.07468 18
664 1 5.09052 12.1341 -4.57354 12
665 1 4.53641 -3.94918 -11.4388 16
666 1 -13.9884 4.85871 -3.86619 16
667 1 2.4298 7.31554 -5.45061 19
668 1 -13.6993 -3.03769 3.94481 19
669 1 1.69858 9.77552 7.51281 19
670 1 -2.91058 -13.7499 0.94096 16
671 1 2.65417 9.75531 -0.603797 21
672 1 -8.92325 4.97159 13.6886 10
673 1 -11.5102 -3.0009 12.6869 6
674 1 7.49588 3.49144 -7.06944 18
675 1 -7.31379 -7.16214 9.61785 20
676 1 4.11327 -13.1146 5.97882 10
677 1 -6.81296 2.6001 3.93905 22
678 1 8.33142 5.81262 12.6725 10
679 1 4.42112 -6.06874 -9.39559 19
680 1 -6.29509 2.20041 -17.201 14
681 1 -9.56844 6.78901 -15.4512 11
682 1 -9.41647 -4.69202 -14.8507 15
683 1 10.6611 5.79584 6.60137 12
684 1 -7.01054 7.90674 6.22023 16
685 1 -13.8977 -11.5719 -2.85433 14
686 1 -7.56509 8.63633 -1.17589 23
687 1 11.2853 1.90285 10.6634 14
688 1 -6.93747 -8.33255 2.10087 18
689 1 6.0047 -3.8853 -7.65663 16
690 1 1.67945 -10.3484 1.86923 23
691 1 -0.273213 -0.195836 -17.2836 19
692 1 -7.36012 5.71236 -12.5492 18
693 1 -10.8449 -6.1599 -0.521765 23
694 1 -11.8636 5.75437 -5.55589 16
695 1 -13.0024 9.13853 10.7544 9
696 1 5.2264 -4.74675 5.93055 19
697 1 -10.1549 -10.1689 7.98099 16
698 1 11.6872 -1.55431 1.3529 15
699 1 -0.73108 6.32725 -11.1216 21
700 1 15.0661 2.71003 -2.09505 11
701 2 -11.9811 -0.938741 -8.342 16
702 2 -9.71769 15.1615 -4.80202 14
703 2 2.62159 -4.09471 -10.977 18
704 2 -5.65959 13.7962 12.5779 8
705 2 -9.79596 -4.94431 -10.1389 17
706 2 3.65116 -1.72707 13.6256 11
707 2 -14.5904 -11.1618 0.578664 15
708 2 -12.6879 7.69741 -3.06904 19
709 2 -1.73997 12.0105 5.93679 19
710 2 -17.4392 -1.11046 3.18715 10
711 2 6.36299 4.46582 8.08063 15
712 2 -4.39226 -2.17368 -6.00497 21
713 2 -12.605 -10.493 -7.35043 16
714 2 -13.0777 2.38531 -3.97408 19
715 2 -4.41977 -5.67764 6.68159 22
716 2 -0.19741 2.54396 7.05329 23
717 2 3.51599 -1.47396 -9.52916 21
718 2 -1.09104 -14.3292 0.696625 13
719 2 5.51612 4.02811 3.58898 19
720 2 -3.85304 14.4727 0.814892 15
721 2 -11.4306 -1.57136 -14.0936 13
722 2 11.5587 3.72637 9.93248 11
723 2 9.06409 -6.87117 -6.03182 17
724 2 -9.64972 -12.1391 2.01343 19
725 2 -7.57059 -8.50118 11.0959 15
726 2 -5.52018 -11.5331 6.64403 15
727 2 6.26942 -2.24158 3.11948 22
728 2 -3.36855 -11.2885 -9.37709 12
729 2 0.989236 -2.6363 14.1478 11
730 2 -2.83034 8.77138 -10.0003 16
731 2 -12.1261 -9.28122 -2.84678 18
732 2 0.902612 6.17338 11.9894 16
733 2 -12.3249 14.0216 1.30046 12
734 2 -2.40289 2.56761 13.1719 13
735 2 -7.03668 15.4766 -1.74515 14
736 2 6.41401 -11.4444 -3.12045 10
737 2 -7.53738 9.66109 5.5263 17
738 2 -0.0590343 13.093 -7.08239 13
739 2 2.9293 -5.01251 -3.887 21
740 2 -3.97804 -0.123537 -9.31136 22
741 2 -0.854321 -5.72179 -9.47482 21
742 2 6.58853 -0.912008 -1.45972 16
743 2 -5.81505 1.96468 13.7999 12
744 2 1.63664 7.57016 -13.7625 14
745 2 -5.55389 5.524 -13.5526 16
746 2 10.7842 8.84686 -5.76047 10
747 2 -7.62528 -2.84368 13.8679 13
748 2 -13.9566 11.216 0.749893 12
749 2 8.51136 -0.583268 -8.2263 17
750 2 -2.13486 -8.73103 -9.10286 16
751 2 -14.9046 -9.2677 3.11193 16
752 2 8.60187 5.8266 1.18206 20
753 2 -9.90504 7.81986 3.06137 18
754 2 -7.67815 -13.0128 -7.18981 15
755 2 -5.08927 13.984 6.61747 17
756 2 0.443977 -10.2339 8.53979 17
757 2 10.0449 -3.54408 5.55193 15
758 2 -17.1047 1.60954 -3.28415 11
759 2 12.6123 -8.27888 -2.61752 11
760 2 6.68984 -5.47379 -6.83463 15
761 2 5.03462 7.04054 2.02921 20
762 2 4.45283 -12.8733 -1.03032 10
763 2 4.27227 -2.70228 6.06035 22
764 2 -12.4597 -1.49361 11.3461 10
765 2 13.2596 -2.11994 -5.69163 14
766 2 5.01981 9.28303 9.14668 16
767 2 11.9728 4.64294 6.88294 11
768 2 -10.1567 4.52617 10.6348 21
769 2 7.42707 11.5126 2.96519 13
770 2 9.29369 -6.6129 0.430171 17
771 2 -3.19055 7.02077 -5.78331 20
772 2 -12.1116 -6.54793 -11.0733 16
773 2 -11.1942 1.8403 10.9462 12
774 2 3.64165 0.144022 -6.32404 20
775 2 -10.5517 5.33241 -10.481 14
776 2 -15.3645 -3.93274 2.44543 16
777 2 -10.3778 -11.8506 -3.24891 18
778 2 12.5968 -2.93611 -2.49429 13
779 2 -5.69749 -8.97176 7.19718 21
780 2 -4.38397 4.43746 13.8275 12
781 2 5.77405 3.29228 -14.0207 13
782 2 3.52975 0.946919 11.5496 21
783 2 -4.25864 7.35792 9.85946 18
784 2 -8.92454 0.39906 6.87147 19
785 2 5.6585 -5.53772 -4.42793 21
786 2 10.2666 -1.65742 -5.42177 21
787 2 -10.5559 12.5077 7.93242 15
788 2 -5.23015 -9.22523 1.73431 21
789 2 7.34226 -7.43731 -9.09665 14
790 2 6.08734 4.54113 -4.07213 14
791 2 -0.321644 5.64535 6.56282 19
792 2 8.37187 -3.40341 -8.25132 18
793 2 0.898487 -4.76087 3.99627 24
794 2 -11.1133 -8.97716 3.83702 22
795 2 6.91466 2.6456 -2.42286 23
796 2 -10.1263 -9.79207 9.98191 14
797 2 3.28645 6.16528 -6.92991 16
798 2 -4.05405 -7.84067 4.54546 21
799 2 11.4417 -3.54503 -10.353 13
800 2 -2.22187 -12.8846 -7.00193 13
801 2 12.7989 -6.54311 0.452541 11
802 2 -5.92977 13.52 3.33314 16
803 2 8.62806 1.36534 -11.3383 17
804 2 -7.20616 -5.76148 -8.85003 18
805 2 -16.8924 -8.60137 -0.44821 12
806 2 -4.05089 -5.59917 1.41191 21
807 2 -5.71753 -5.54952 -1.27579 22
808 2 -10.3105 8.50072 0.188163 19
809 2 -14.0318 12.4586 2.98082 12
810 2 -0.733454 -0.0031247 -9.15652 17
811 2 5.38934 6.86484 -9.17454 21
812 2 -2.13077 10.0972 -6.08429 17
813 2 -12.5833 4.40387 8.41873 17
814 2 -1.69806 1.06235 -17.6304 14
815 2 -13.7047 5.2822 -1.74863 19
816 2 -7.56418 2.32738 10.8079 16
817 2 -12.3376 6.2921 2.5003 15
818 2 -11.0721 4.45222 -7.21869 17
819 2 4.47919 10.1988 0.160039 22
820 2 10.3834 6.03997 -7.35104 16
821 2 7.92301 -2.8245 0.268861 16
822 2 -15.1248 0.592614 7.13116 11
823 2 5.75972 0.831653 0.845684 18
824 2 -1.16984 13.0735 -1.00187 21
825 2 -9.61487 8.25847 -14.1363 9
826 2 -13.3379 8.85736 6.10946 15
827 2 6.89629 -3.87234 5.69328 22
828 2 -9.34745 -7.98134 -11.6018 16
829 2 1.97833 3.95873 -17.6145 12
830 2 10.6426 6.5785 -3.602 14
831 2 -11.9099 -7.00397 9.05408 15
832 2 -2.36789 9.99985 -0.704193 20
833 2 -5.78002 11.4479 -3.73379 18
834 2 3.5573 11.949 -5.48968 15
835 2 11.2192 1.2562 12.53 11
836 2 -2.64637 6.40208 13.0793 15
837 2 12.5771 -4.30352 -7.7764 11
838 2 -0.928409 4.36512 11.8269 20
839 2 -0.629358 -5.31734 7.03704 21
840 2 -17.3505 -2.6453 0.280695 13
841 2 -4.42417 -14.58 -8.73955 11
842 2 1.58483 -8.94184 -9.06017 11
843 2 0.842705 -2.85383 -13.1115 16
844 2 15.3761 2.10099 2.09679 11
845 2 -1.68899 -0.812281 14.0639 14
846 2 2.04072 0.999924 -9.56969 19
847 2 -6.23327 -5.88511 8.85927 18
848 2 -6.26755 -7.13858 -16.8992 11
849 2 0.330636 -12.1382 -4.41322 14
850 2 -2.41783 -4.83256 -6.7854 23
851 2 -0.369051 -14.962 -2.06808 11
852 2 10.8652 2.30322 -8.97483 17
853 2 -6.04929 6.30223 -16.5198 13
854 2 -9.75244 8.66314 7.20248 18
855 2 -8.7911 -5.17435 -0.856602 20
856 2 -9.48558 2.88592 -15.6086 13
857 2 3.87301 6.5028 -12.0528 19
858 2 -3.87499 16.9178 -4.42928 10
859 2 -7.19164 -8.29874 4.18918 19
860 2 12.7715 1.87723 3.8145 13
861 2 -4.93684 4.22357 10.0443 16
862 2 -12.5406 -13.6704 1.56818 12
863 2 5.62706 -8.8562 -3.61742 17
864 2 1.70902 -0.781106 15.9987 7
865 2 1.469 11.5551 3.8374 20
866 2 8.04669 6.22384 -9.22905 19
867 2 0.546643 5.47506 8.85842 19