ITEM: TIMESTEP
2000
ITEM: NUMBER OF ATOMS
1500
ITEM: BOX BOUNDS pp pp pp
-30.0 30.0
-30.0 30.0
-30.0 30.0
ITEM: ATOMS id type x y z Coordination
1 1 -7.25691 -9.07385 -6.53354 20
2 1 4.04126 -10.2548 7.53511 19
3 1 -10.9397 7.24952 0.998982 18
4 1 -8.88936 0.905288 -11.8403 19
5 1 -0.422926 -7.05937 9.76077 22
6 1 -7.52045 -2.2233 -15.5579 16
7 1 -4.32439 -14.364 -0.134829 13
8 1 -12.1601 -8.32368 2.8619 18
9 1 0.713139 -0.277251 15.5131 11
10 1 5.84648 -2.75551 5.45089 20
11 1 1.76699 3.90122 10.502 17
12 1 7.88471 -1.54975 1.95582 17
13 1 -4.34596 7.77601 -9.95258 13
14 1 4.34199 -4.1792 12.4738 12
15 1 15.1369 4.26365 7.72424 9
16 1 -1.80411 8.58229 -11.4637 17
17 1 2.67029 7.56467 -15.4436 11
18 1 -8.60246 -1.91302 -0.810373 18
19 1 -2.05146 -3.04718 -8.24205 22
20 1 5.41277 -14.2093 4.5509 12
21 1 -0.166084 -1.44007 7.36374 22
22 1 9.89333 -12.4709 0.0290498 8
23 1 -8.0126 -12.3103 -7.00966 15
24 1 3.42377 -5.06864 -3.15181 21
25 1 2.49379 -3.98288 -12.9354 17
26 1 1.53115 0.715107 12.4103 18
27 1 -3.06029 -11.466 2.45306 17
28 1 2.77788 -5.74693 10.4957 16
29 1 -10.4596 -0.341992 1.18093 19
30 1 -7.43866 -0.79869 -3.30451 20
31 1 -7.21108 10.3472 -2.84045 21
32 1 -2.8718 0.78357 -11.3246 20
33 1 3.23564 -9.25059 -12.5115 10
34 1 -1.77808 -5.51579 14.3705 10
35 1 -14.3682 5.88283 -3.5877 12
36 1 2.70839 12.2899 9.8623 8
37 1 -11.8809 8.12993 -2.94647 16
38 1 -0.169131 13.0765 -5.26244 15
39 1 0.610878 -14.6711 5.1609 16
40 1 4.49468 -6.04312 -7.44452 19
41 1 -6.21209 4.42764 13.6199 10
42 1 -12.552 -6.43514 -9.24052 13
43 1 7.07665 0.552785 4.92273 20
44 1 -8.20632 9.39001 -13.1925 8
45 1 -8.2647 -9.36435 3.40853 20
46 1 -10.5877 5.59408 -9.20566 16
47 1 -1.15267 2.90742 -9.78539 21
48 1 0.354582 4.45082 5.45894 22
49 1 -0.846099 3.70844 7.80718 20
50 1 6.65133 -10.204 -5.7656 14
51 1 4.74369 5.04697 15.2078 9
52 1 10.3474 -1.77116 -12.2948 17
53 1 5.53427 -11.4182 4.82829 19
54 1 -9.03232 -3.43515 1.63874 21
55 1 6.22196 -4.46986 10.269 16
56 1 -5.31779 -8.66698 6.12235 16
57 1 -11.6252 -0.10161 -2.36217 17
58 1 12.6007 2.50238 7.25418 19
59 1 6.13788 -3.11614 -0.72706 22
60 1 -2.56889 9.69466 10.0244 12
61 1 4.45332 1.74875 6.36619 20
62 1 -10.481 -3.5212 4.7327 18
63 1 -3.64708 -6.02955 -8.37156 22
64 1 -6.46647 10.5572 -0.277058 20
65 1 -5.93251 5.87605 -14.6524 15
66 1 5.86926 2.3005 -6.58772 20
67 1 6.78783 -4.98934 -2.91387 20
68 1 10.518 -7.74223 4.44597 13
69 1 1.33604 -12.2535 8.06525 17
70 1 -5.76261 14.074 -5.76921 13
71 1 -9.32534 9.71793 4.74499 14
72 1 -5.11392 6.19538 6.24933 20
73 1 -10.5136 -9.15583 11.7709 9
74 1 11.9284 -7.30783 -6.51645 12
75 1 -10.9574 2.22227 3.43259 21
76 1 9.38861 -4.71446 -4.16096 19
77 1 3.30864 1.88617 -11.7678 23
78 1 -6.98395 -4.91385 -18.2383 7
79 1 -1.70093 10.6885 -0.538853 17
80 1 -8.89056 3.48487 -14.4775 13
81 1 1.69942 11.8709 -7.8326 15
82 1 1.16714 11.6849 0.697529 23
83 1 -4.20475 -5.84547 6.12099 19
84 1 -0.311787 -6.12139 -8.48892 20
85 1 4.17768 -11.0822 -7.42107 11
86 1 -4.14146 3.10819 7.59337 19
87 1 -7.36814 -6.47425 -2.9427 22
88 1 8.11227 -5.67227 5.3921 20
89 1 -11.0058 -6.60204 -3.48085 17
90 1 4.39427 -10.7217 1.37906 18
91 1 -7.79334 5.9907 1.20796 21
92 1 8.47468 0.613658 -14.5285 11
93 1 0.236217 4.53106 -6.64266 23
94 1 9.79763 -10.1221 -1.48635 15
95 1 -4.83365 -14.0045 4.54804 14
96 1 -7.30396 -11.4622 -3.29079 17
97 1 -15.1485 -7.68651 3.11775 11
98 1 9.83094 4.89257 7.21863 18
99 1 7.48328 5.67037 -1.42685 21
100 1 -4.24798 10.9804 7.95316 13
101 1 -8.89858 12.2203 -6.40617 9
102 1 -2.19664 -7.49872 -11.5142 21
103 1 12.5924 -3.58378 9.27563 13
104 1 -5.33605 6.7979 -6.64654 17
105 1 15.4105 -1.70186 -9.02683 9
106 1 -8.87943 6.94701 -7.36399 19
107 1 -3.17968 14.5595 0.529899 9
108 1 5.09856 4.44042 -11.374 21
109 1 4.95664 -12.7405 8.33556 9
110 1 -6.61112 7.91839 -4.16061 19
111 1 3.19156 9.13594 -4.66967 17
112 1 10.8064 6.02471 -1.71303 15
113 1 -9.78313 9.83944 -7.35148 14
114 1 -7.6851 -5.01686 -13.5364 18
115 1 -0.899124 11.7287 10.153 9
116 1 -16.0871 -1.41389 -6.19009 8
117 1 12.9833 -0.138656 -3.5256 21
118 1 -5.27473 8.09464 9.51217 16
119 1 -4.88958 12.3806 -8.52012 11
120 1 4.0058 -3.51969 8.29118 22
121 1 -15.1514 -11.0083 3.93498 10
122 1 -4.40823 -10.9898 4.98997 17
123 1 1.32373 -12.3963 -5.62981 15
124 1 -7.14714 8.60641 -9.89896 17
125 1 -0.559035 9.69481 -8.0893 17
126 1 11.7419 7.21998 -6.74834 12
127 1 -6.2867 -10.1479 8.28695 18
128 1 -7.92137 1.52565 -1.63772 20
129 1 3.00487 14.3489 0.760509 14
130 1 2.33338 7.42922 13.7416 11
131 1 -6.66248 13.9445 0.179612 14
132 1 -8.96061 -5.64957 -5.3953 20
133 1 11.713 -7.2193 -2.59405 18
134 1 -7.00256 -4.19519 4.42308 23
135 1 -12.2026 -3.74282 1.91161 16
136 1 -10.7485 -11.3794 2.2232 16
137 1 -14.3328 0.261077 -3.90826 15
138 1 -3.61334 -16.4918 2.31964 10
139 1 -6.01199 -3.42179 -3.72218 20
140 1 5.12484 -7.94321 -3.50873 21
141 1 -4.07978 8.86504 5.48068 17
142 1 -7.65001 1.81097 4.06368 19
143 1 -6.22159 1.30188 -8.46983 21
144 1 -11.5503 5.41804 -12.0549 9
145 1 -13.7709 -10.5084 -6.9082 9
146 1 -10.3602 -1.71173 8.3242 18
147 1 -2.09383 -8.74508 5.87271 17
148 1 -1.74098 -14.2144 7.29001 11
149 1 15.6068 2.28986 3.11282 15
150 1 5.86449 0.403936 -9.28154 25
151 1 4.39273 -1.77131 11.0284 20
152 1 1.25697 5.13047 -15.1965 19
153 1 9.14095 0.303894 -9.52179 20
154 1 -9.47054 -4.7796 -10.7342 20
155 1 -6.63732 9.35854 -6.80631 19
156 1 -7.49213 14.8659 -3.34326 9
157 1 6.71011 1.37975 9.77314 20
158 1 -3.12409 -10.0309 -13.3662 11
159 1 -10.0522 8.50523 -10.4509 12
160 1 2.42976 5.78306 -12.5415 20
161 1 -5.23271 0.914008 9.69513 20
162 1 -8.3498 10.2956 8.54258 8
163 1 -0.162625 -9.80147 -5.7097 21
164 1 -9.25731 -14.2585 -4.72975 12
165 1 8.81368 -11.9801 -3.76699 12
166 1 4.81366 -6.56152 -0.619403 20
167 1 7.38321 4.85097 -7.1268 21
168 1 -3.20356 7.97776 -3.98736 21
169 1 -12.9049 -0.102373 2.00335 17
170 1 0.312383 6.47724 8.17504 22
171 1 10.1837 0.00871661 0.238724 21
172 1 0.988961 7.13458 4.44274 20
173 1 -11.258 7.13957 4.23707 14
174 1 -10.8974 -9.73171 -7.08697 18
175 1 5.98373 7.03595 -13.0656 12
176 1 2.60223 -1.1164 7.00487 22
177 1 9.63234 8.70037 -9.3729 12
178 1 2.85168 -10.9709 -3.41774 19
179 1 -5.81072 -9.38602 -15.1933 12
180 1 7.43088 0.0438427 -5.9382 20
181 1 -13.6204 -6.33104 7.98945 12
182 1 -2.63063 -14.8397 -3.09544 14
183 1 -8.06127 -7.63471 -11.4526 20
184 1 4.93079 11.7334 -5.34326 19
185 1 1.85459 -4.33797 -16.1326 18
186 1 6.53887 -0.369791 14.2688 9
187 1 17.6057 0.255963 1.48746 11
188 1 -4.93468 -7.19265 -0.549801 19
189 1 9.58026 -4.0149 -9.67119 16
190 1 -4.20769 -5.54108 1.91308 20
191 1 -7.78014 -2.21704 -11.8928 21
192 1 -10.4665 -1.53527 -8.89396 17
193 1 12.1672 5.0252 9.06167 12
194 1 8.76933 -0.959195 9.35881 18
195 1 -2.58532 -11.3094 -10.0424 13
196 1 1.38324 -6.43352 4.3164 18
197 1 -0.468554 6.65556 -17.0459 9
198 1 2.24414 6.33208 1.34277 23
199 1 -10.4588 -8.22838 5.24829 20
200 1 -0.212997 14.3543 1.55794 13
201 1 -7.58276 -1.63683 9.65086 22
202 1 -10.1044 -10.2679 -12.5746 11
203 1 -4.95993 -3.72523 -12.662 21
204 1 -9.05662 -8.98149 -3.6295 19
205 1 -1.66028 -8.35631 2.10751 20
206 1 13.5159 0.495886 5.09008 21
207 1 -3.94989 -5.69647 -3.03545 23
208 1 -10.8966 -6.11859 10.379 16
209 1 -3.62522 -9.84112 -0.0589155 21
210 1 -0.185366 -12.9844 2.65637 20
211 1 -1.85427 14.0841 -2.61606 15
212 1 2.91149 1.64862 -16.1386 13
213 1 -6.74881 -6.34668 -15.7575 15
214 1 0.971695 -12.3459 -0.696742 19
215 1 -5.03904 -11.2887 -7.66458 15
216 1 -9.49493 -0.168283 -14.7583 14
217 1 7.31518 2.95329 7.09636 17
218 1 -5.42471 -0.126287 -11.0872 20
219 1 -0.823415 6.19545 -12.7095 20
220 1 -3.73808 -3.72361 4.53626 20
221 1 -4.96653 13.0522 -2.19485 20
222 1 0.0305692 10.1559 4.06437 20
223 1 12.3331 -1.91015 0.879244 20
224 1 -12.338 -0.572549 5.15309 16
225 1 -6.98097 -9.83877 12.16 11
226 1 -5.61335 8.55032 2.10632 17
227 1 2.52036 -7.85848 -15.3862 9
228 1 2.68414 -11.6838 4.40614 25
229 1 -1.74707 -2.00737 15.6469 11
230 1 -13.5386 -9.26824 6.19455 12
231 1 14.1822 -0.85792 -6.04403 18
232 1 6.15968 -3.46509 -6.07912 21
233 1 10.0359 -10.636 -7.10958 10
234 1 -6.86487 -6.0435 2.25546 22
235 1 -8.64446 12.6423 -1.55511 15
236 1 3.11645 1.20388 9.9076 23
237 1 10.6223 7.4478 10.0197 11
238 1 -7.46273 -0.228327 1.84305 20
239 1 10.8256 -9.31516 -4.68295 13
240 1 -2.70242 8.48138 1.66408 19
241 1 -4.14568 5.78298 1.77975 21
242 1 -0.328719 -11.7908 5.65298 19
243 1 11.8812 -5.31138 5.70536 15
244 1 -4.72008 5.2001 10.0162 17
245 1 -9.48542 -2.08461 -5.96228 21
246 1 -0.658677 -1.44139 12.1355 22
247 1 -1.48402 15.0604 5.11048 10
248 1 -4.43878 3.34289 -9.91707 20
249 1 -10.0431 2.86767 12.2196 10
250 1 -16.7787 4.49253 2.79574 5
251 1 -3.882 -3.95786 -6.06171 21
252 1 -8.7222 7.86646 -1.69652 16
253 1 10.0911 1.63122 9.33129 22
254 1 -12.2083 -12.2596 -0.392398 18
255 1 6.96318 -9.93109 9.10473 8
256 1 -14.2033 9.87246 -0.344928 6
257 1 0.149833 -5.07046 12.299 19
258 1 0.167561 -11.4686 -8.67872 13
259 1 -7.71906 -3.87653 -6.92582 20
260 1 5.21384 1.11005 -14.2974 17
261 1 3.66486 11.8715 2.52167 14
262 1 -11.4188 0.330843 -6.06542 14
263 1 7.7851 -2.25144 -13.7194 12
264 1 -10.4084 -14.5945 1.2547 14
265 1 -14.9104 -7.27829 -5.92262 10
266 1 -1.70914 -6.52221 -0.570225 22
267 1 9.39558 2.53818 -6.13631 18
268 1 -5.99633 -0.226605 -13.6586 20
269 1 -9.87199 1.60961 -9.1805 21
270 1 -7.53816 8.31907 6.39984 17
271 1 -8.77071 11.6725 1.86777 15
272 1 -7.53278 6.24796 8.87045 16
273 1 11.5153 -2.48453 -4.71311 20
274 1 10.8922 1.85866 -9.01196 16
275 1 -4.96778 5.37479 -3.33663 20
276 1 1.26872 -8.14606 -3.22859 22
277 1 -1.15931 11.6185 2.48887 20
278 1 -6.11344 2.56685 -4.40695 20
279 1 7.52556 -9.92723 2.13362 16
280 1 14.7103 -1.3519 7.62727 14
281 1 -12.8281 -1.67121 -6.37801 16
282 1 -6.70213 -9.11268 0.246381 20
283 1 -2.10806 10.4048 -5.50843 19
284 1 -12.418 -5.83553 -5.98304 19
285 1 -8.08464 5.25509 -4.69563 21
286 1 0.27442 11.5074 -10.6061 14
287 1 5.18565 8.57449 6.47347 16
288 1 -14.7071 -8.12609 -2.61521 14
289 1 -3.90445 -9.20543 -6.18053 21
290 1 -12.666 -5.74896 4.57091 17
291 1 -11.6961 6.89798 -5.75808 15
292 1 3.80588 -8.72715 4.8953 19
293 1 -6.83253 -14.7751 1.82614 16
294 1 3.41616 8.84646 -12.1841 15
295 1 -7.93522 4.21868 -9.71856 20
296 1 -6.08051 -11.8367 -0.565236 18
297 1 15.3684 4.74859 4.77131 12
298 1 -2.85433 0.460166 7.73488 20
299 1 -15.7758 -2.26808 -2.76066 11
300 1 -9.42706 5.51755 5.92381 14
301 1 -7.83615 -14.1282 6.23311 9
302 1 -0.298063 -3.68508 -6.05533 21
303 1 4.90247 -6.76931 -11.3361 16
304 1 -3.35577 -4.82987 10.6767 17
305 1 -9.10677 -0.939699 4.72906 22
306 1 -0.912314 -5.81718 7.27541 20
307 1 3.75385 -8.85523 -6.02953 17
308 1 -0.689817 -7.87113 -14.0535 14
309 1 -6.43881 -4.02689 10.6108 13
310 1 2.88081 -9.18194 -0.7624 21
311 1 -5.85045 2.90273 -14.8017 15
312 1 7.36338 -12.9634 2.7908 12
313 1 -1.79181 12.6393 -8.41841 16
314 1 -3.08243 -7.14106 12.1912 15
315 1 -5.99591 -4.90956 8.12038 16
316 1 9.66173 -4.2328 11.2689 10
317 1 9.3107 3.12384 -1.37946 19
318 1 -6.18646 5.14674 3.57262 18
319 1 0.427516 0.70787 -11.7472 20
320 1 9.73081 -7.66924 7.68724 11
321 1 14.4847 2.79612 -5.58089 15
322 1 -5.26683 -0.644863 15.0163 14
323 1 0.180673 8.77387 -4.45064 20
324 1 6.92101 -8.30806 5.53799 19
325 1 -6.04292 -14.588 -3.68743 14
326 1 -2.83233 13.7591 7.84459 12
327 1 -11.0002 -12.0727 -9.02687 10
328 1 4.81533 4.24705 10.8912 17
329 1 -8.81148 1.189 9.61535 19
330 1 -5.88905 -6.68931 -6.13229 20
331 1 -11.8925 1.85836 8.03947 10
332 1 -9.73778 -6.99958 -8.31514 20
333 1 -6.00216 12.5244 6.77184 13
334 1 -6.6234 -14.4785 -6.70915 11
335 1 -3.73192 -6.8908 -14.1247 20
336 1 -9.42472 -10.7251 -0.722419 18
337 1 -7.90749 -2.46202 6.40071 16
338 1 12.2184 -0.470292 8.41761 22
339 1 -8.42128 -6.79052 12.0175 14
340 1 -10.4417 2.61241 -12.3627 17
341 1 10.7375 4.71872 1.22685 19
342 1 -11.7554 -14.1709 -2.49245 9
343 1 1.65667 1.68588 -8.57515 20
344 1 1.14099 14.1144 -1.84078 15
345 1 -4.80208 8.40576 -12.8153 16
346 1 1.2134 9.76777 8.62438 19
347 1 -12.6123 -3.30513 -4.0846 25
348 1 7.33824 10.6151 -8.24678 13
349 1 -5.22099 -6.78422 -11.6935 18
350 1 -2.26469 -14.2935 -9.00335 8
351 1 1.23548 -6.63752 -11.513 22
352 1 -11.5319 10.6989 2.1861 10
353 1 2.31519 2.82784 14.0752 13
354 1 9.79375 7.40498 0.489332 15
355 1 -1.20106 7.68897 -1.36112 19
356 1 -5.90435 5.77191 -11.9344 19
357 1 2.57935 -0.720852 -10.2652 19
358 1 -2.13124 -6.26767 4.00028 18
359 1 -15.361 -6.49032 0.0230904 11
360 1 -1.01587 -0.0802646 -16.7292 14
361 1 13.9558 6.96047 -1.02324 8
362 1 6.36747 -8.92791 -0.693266 17
363 1 15.371 -1.02879 -1.02981 15
364 1 2.09711 -1.17795 -13.8261 23
365 1 -0.432977 -9.37949 -0.332384 21
366 1 -2.47494 -16.7027 4.98222 8
367 1 2.76451 -6.85146 7.84937 21
368 1 -12.7572 3.08382 -9.71679 10
369 1 -0.178187 -9.68596 -11.3986 14
370 1 -0.0465284 1.24898 -14.6533 19
371 1 1.75364 -3.03598 13.1565 14
372 1 -12.2995 -6.45867 -0.761251 15
373 1 13.3597 -3.5996 -9.9187 9
374 1 9.89002 0.641345 -3.30227 22
375 1 -3.70393 12.2908 1.74757 17
376 1 1.57561 -6.62448 -5.92302 22
377 1 6.62987 0.862824 -11.9002 21
378 1 11.0609 -4.56838 -7.29883 15
379 1 -5.56443 -0.927761 11.906 18
380 1 7.25708 9.37885 -0.143785 17
381 1 -4.09051 -6.35527 -16.9772 10
382 1 -5.33515 -2.33202 7.73326 19
383 1 -3.83811 16.4632 -3.48421 9
384 1 -9.49213 -4.1646 -15.8326 11
385 1 -11.6241 2.39155 0.411748 19
386 1 -5.52261 -12.0868 11.1142 9
387 1 -1.30459 7.29632 -6.45388 19
388 1 12.2058 1.71225 -0.794961 19
389 1 -14.09 -11.0584 -2.49411 11
390 1 -2.25201 -12.6338 -0.342258 20
391 1 -8.21163 12.0365 5.43378 11
392 1 1.38428 -3.22948 -8.67606 19
393 1 2.01214 5.91312 -4.05175 23
394 1 14.5624 -2.6256 -3.81325 15
395 1 4.11826 10.2528 -8.10237 17
396 1 1.80503 -8.13427 1.86457 22
397 1 -7.42996 3.64688 6.72174 16
398 1 5.75158 7.62425 13.7111 10
399 1 -3.26399 2.14685 -15.9481 13
400 1 -7.03675 -5.79255 -8.97672 18
401 1 2.02103 -1.25839 9.75732 21
402 1 7.67113 8.86203 8.17342 15
403 1 2.20669 7.49652 -7.23126 21
404 1 -10.8029 10.9796 -3.76814 12
405 1 -5.0632 11.1979 -4.83862 20
406 1 11.4882 -2.53052 6.84996 18
407 1 9.82515 2.41941 -12.375 17
408 1 -14.7186 -10.3886 0.893941 11
409 1 -2.63083 3.0079 10.3107 18
410 1 -2.96277 11.4605 -11.2033 11
411 1 7.4246 -12.9045 -0.786471 12
412 1 8.26836 -5.15143 -12.6466 14
413 1 -3.04759 14.3903 -6.04166 13
414 1 -9.29805 -7.86417 -14.3922 12
415 1 2.61238 -15.0454 3.13403 15
416 1 -11.6724 -9.30715 -1.25461 21
417 1 -3.87674 1.28785 -6.07925 20
418 1 -11.7153 -8.79856 8.30929 14
419 1 1.88891 8.65118 -1.75563 22
420 1 5.54954 -12.7214 -4.83591 9
421 1 5.0519 -7.31706 10.6942 11
422 1 5.62263 0.829058 -3.55281 19
423 1 -9.48081 4.92665 3.06183 21
424 1 9.23599 -3.46378 0.449455 19
425 1 3.68945 9.70915 12.4186 11
426 1 -2.3628 -1.92433 -11.4112 20
427 1 2.20835 10.5043 6.60357 17
428 1 7.96596 3.12955 -10.206 21
429 1 -0.98884 -5.94993 -16.4359 12
430 1 -5.17779 -8.92559 -9.53335 20
431 1 -11.2926 -7.0711 -11.9315 14
432 1 14.2035 3.94159 1.02348 16
433 1 15.8696 0.481793 -3.46694 12
434 1 5.18352 -3.82455 -13.7995 18
435 1 7.07762 -7.02896 -5.56597 16
436 1 4.9305 6.27586 2.87391 20
437 1 -8.53061 3.09144 0.954737 18
438 1 12.5519 5.53457 -3.65824 13
439 1 13.3197 -5.04488 2.25771 15
440 1 7.36427 3.74937 -13.4624 16
441 1 12.3518 2.17375 10.8903 15
442 1 -0.245463 -3.76102 9.52814 18
443 1 3.63605 -2.62064 15.1941 8
444 1 14.2287 1.27486 -8.18202 12
445 1 7.86603 4.20157 9.72072 20
446 1 -7.45796 -1.24482 -8.70311 20
447 1 14.4117 6.0605 2.32599 13
448 1 10.9713 -5.74966 -0.266588 20
449 1 1.48825 -6.27863 -0.703778 23
450 1 14.4445 -0.933124 10.7329 11
451 1 2.89363 6.93111 10.6502 21
452 1 5.94214 3.46561 4.37505 24
453 1 -4.18912 10.2699 -2.15065 18
454 1 3.8589 7.00604 -9.90779 24
455 1 11.2117 -0.225146 -14.2332 7
456 1 3.52388 12.0218 -1.8525 20
457 1 -3.60038 -15.5429 -6.28764 12
458 1 -14.1374 1.87612 3.71517 13
459 1 -2.48316 4.6355 -15.276 17
460 1 -9.19892 -12.7529 4.054 18
461 1 -4.98851 -2.99517 -9.43832 22
462 1 -12.6498 2.58135 -2.96048 15
463 1 8.7833 -7.13699 2.3399 17
464 1 13.3869 7.31286 5.18309 9
465 1 0.477289 -9.43587 4.32436 17
466 1 -10.1845 -2.70344 -13.0327 16
467 1 4.77316 -0.0204215 8.37224 17
468 1 -0.76782 2.33096 13.4749 16
469 1 6.1089 9.91943 -10.9285 13
470 1 4.2099 3.44368 -8.89101 20
471 1 -0.579637 -15.0941 -4.23665 14
472 1 16.199 -0.283811 4.52675 13
473 1 7.79646 7.45938 2.70061 18
474 1 13.7155 -6.89157 -0.139401 8
475 1 -3.11376 3.70341 14.162 13
476 1 -9.92362 -8.48045 1.21285 18
477 1 -12.2854 -3.81517 -10.3842 16
478 1 10.8844 -1.24472 11.4941 17
479 1 -3.63816 -9.83407 12.006 12
480 1 8.04114 5.15398 13.7563 9
481 1 -9.07575 8.6983 -4.85887 20
482 1 12.0405 2.10002 2.47339 20
483 1 9.73306 3.18179 4.44246 21
484 1 -0.322387 -2.67951 -15.1881 21
485 1 -12.6434 -3.25377 6.67492 13
486 1 4.55185 -2.61544 -8.80358 22
487 1 -1.65475 -6.54932 -5.72946 23
488 1 9.62651 -7.88134 -8.02803 14
489 1 5.77215 5.37516 7.4399 18
490 1 3.3731 5.20841 5.21904 19
491 1 10.2461 9.9963 7.5768 9
492 1 -0.475262 -8.13233 12.7919 13
493 1 -5.76968 2.59503 16.4096 8
494 1 2.60516 -5.18613 -9.79232 18
495 1 -8.30206 -0.429001 13.1177 15
496 1 8.88803 1.33392 12.4899 15
497 1 14.712 3.74603 -2.44032 16
498 1 4.53689 -8.52993 -9.07659 17
499 1 -5.7861 -1.04764 -6.29574 23
500 1 5.6859 6.97869 0.431614 21
501 1 5.93739 10.0026 2.79795 17
502 1 -2.78988 -3.45032 8.23603 20
503 1 2.59752 13.4298 -4.80598 14
504 1 11.7427 7.76478 2.83024 15
505 1 -4.97813 -8.672 -3.67773 18
506 1 -2.66882 -0.54628 -13.9858 16
507 1 -10.2453 10.2488 -0.766838 17
508 1 5.54503 -7.14221 -13.638 14
509 1 7.56987 4.6437 1.93823 21
510 1 9.60828 5.5453 -11.9116 13
511 1 10.5403 5.89443 -9.03388 17
512 1 -2.50896 4.61075 4.79506 22
513 1 -6.61374 4.29766 -1.40944 19
514 1 5.74698 6.57253 -4.53265 21
515 1 -3.38048 -9.11073 9.54732 18
516 1 -3.07692 7.89564 -14.7621 13
517 1 4.23892 9.87064 9.31544 16
518 1 1.47387 1.93547 6.89359 20
519 1 7.21122 11.8721 -2.55069 13
520 1 7.82107 9.6095 5.11024 14
521 1 14.447 -4.25178 -6.94893 14
522 1 -15.1005 -4.39264 2.22032 12
523 1 1.89745 -14.6502 0.26797 16
524 1 -2.43638 -4.97337 -10.7098 18
525 1 -2.41396 6.23266 7.59424 21
526 1 3.32788 -3.93062 -6.40774 21
527 1 3.8954 9.3591 0.267839 21
528 1 -14.1821 -4.35125 -1.53466 16
529 1 3.96751 -12.7305 -1.16695 16
530 1 9.70585 4.75894 -5.03184 18
531 1 3.23847 -5.01321 1.89052 18
532 1 0.209121 11.2526 -2.97758 19
533 1 4.45426 -1.61897 -16.5822 12
534 1 -0.497121 -10.2023 10.6162 14
535 1 4.93569 14.3613 -2.56192 13
536 1 -2.88804 0.631167 15.6076 14
537 1 -6.7818 -10.3696 -12.4655 13
538 1 4.39893 -0.547299 -6.45399 23
539 1 -1.34054 8.95763 6.80207 21
540 1 7.56874 -10.0527 -8.74174 11
541 1 1.49757 -4.52133 6.85862 20
542 1 2.06993 -14.0203 -3.36355 13
543 1 -12.0466 -3.73973 10.056 12
544 1 -0.449393 -0.108355 -8.65381 20
545 1 -8.73122 -13.8705 -1.51257 15
546 1 -10.3838 -0.532363 11.5339 13
547 1 12.4363 4.39974 -10.0673 11
548 1 -5.91962 0.681063 7.02794 22
549 1 -13.8774 7.65541 2.32026 12
550 1 10.4037 -4.25009 2.87935 21
551 1 -3.74006 9.7485 -7.82456 17
552 1 11.37 -1.58965 -8.50896 20
553 1 7.029 3.84859 -3.79593 19
554 1 -8.00764 1.44756 -6.34927 18
555 1 -12.3819 -9.61028 -10.015 13
556 1 1.32586 8.68721 -10.2225 20
557 1 -3.14122 -3.18532 13.1928 15
558 1 -6.49983 -11.9293 2.5443 16
559 1 -1.83948 -8.62565 -8.72142 19
560 1 -9.5819 4.87017 -1.67731 18
561 1 3.62037 8.80912 3.90169 20
562 1 -9.48078 -6.00477 3.44091 20
563 1 7.44057 7.26308 -9.86981 19
564 1 -1.06397 -16.2586 -0.741426 11
565 1 2.51344 2.12066 -6.10655 21
566 1 -0.108334 -2.98839 -18.4461 8
567 1 -0.723994 0.928434 10.3657 20
568 1 -0.725083 3.12059 -17.3871 10
569 1 -11.8294 -2.34843 -0.879149 19
570 1 7.90743 -0.345627 -1.06605 23
571 1 -7.26457 -4.41342 -0.374388 21
572 1 12.044 4.20926 -7.24253 18
573 1 7.77808 -1.85753 -4.09246 23
574 1 -7.95192 4.86268 11.2166 11
575 1 5.54134 -7.43417 2.22095 19
576 1 12.9903 -5.44271 -4.32362 15
577 1 9.30257 -4.838 8.27342 18
578 1 -0.0957476 12.3671 6.06123 17
579 1 -6.65651 1.76678 12.3261 18
580 1 -5.17309 -12.6944 7.54175 12
581 1 8.44429 1.49211 2.16581 19
582 1 6.65364 2.96348 12.9345 18
583 1 -15.3976 -5.28795 -4.37536 13
584 1 8.92543 -7.31686 -2.7314 17
585 1 0.800022 8.73703 1.62041 22
586 1 7.49329 -2.22056 11.5341 17
587 1 -2.78614 11.989 5.15478 21
588 1 -2.47296 -11.4211 7.86101 18
589 1 -9.29499 -3.49374 -2.93775 21
590 1 4.84819 0.882282 12.1445 18
591 1 5.98041 12.6538 0.350167 12
592 1 -9.31667 -15.958 3.28321 7
593 1 5.01501 -6.08792 4.98656 20
594 1 9.12415 -2.71637 5.24442 19
595 1 5.91173 7.23422 9.80934 17
596 1 -3.14539 4.29345 -6.91969 19
597 1 1.56798 -8.31232 -8.59633 21
598 1 -3.28426 3.76526 -12.5818 19
599 1 -3.39026 0.766305 12.5331 19
600 1 1.54249 13.2168 4.01241 15
601 1 13.9446 0.274524 1.64243 21
602 1 -1.79771 5.67704 -9.16233 18
603 1 -2.28577 6.78056 10.3849 16
604 1 8.48353 7.52986 11.792 12
605 1 7.53962 -2.69097 -10.8997 21
606 1 -4.07972 -11.2684 -3.54722 20
607 1 -3.65437 -0.0855237 -8.75535 21
608 1 16.7689 2.31003 6.54717 11
609 1 0.459427 -2.7424 -11.7292 22
610 1 -1.71763 -8.495 -3.27233 20
611 1 12.8848 -4.07779 -1.2994 17
612 1 1.99237 -9.29849 10.265 16
613 1 -5.12081 -13.736 -9.22587 11
614 1 8.57427 8.29349 -2.79863 17
615 1 -7.55311 -6.99534 5.83194 19
616 1 -13.5175 4.22398 2.41213 16
617 1 6.13944 7.54606 -7.57663 21
618 1 4.87525 -5.38372 -16.4707 10
619 1 -6.48941 11.7621 3.23412 15
620 1 4.23629 4.26257 -14.4422 16
621 1 7.86409 -6.16598 -0.225764 18
622 1 -9.58378 2.35769 -4.18288 19
623 1 10.0401 7.85452 5.737 14
624 1 -12.6463 -13.4231 3.07471 11
625 1 2.52358 4.53036 7.91541 20
626 1 -14.1947 -4.10446 -7.50635 15
627 1 -12.3288 4.25584 5.63299 13
628 1 -6.30809 3.85742 -7.06173 17
629 1 8.2206 -7.43838 -11.0377 11
630 1 -12.6214 -9.16857 -4.49164 18
631 1 11.399 -9.40836 1.07726 10
632 1 -16.0098 5.88176 -0.245256 8
633 1 -11.2282 -4.00987 -7.6365 21
634 1 -8.89283 -8.05276 9.11206 16
635 1 13.7135 -2.92765 4.39204 18
636 1 11.2368 -1.07067 3.52147 20
637 1 -13.3207 5.13358 -0.540646 15
638 1 0.108141 8.33901 11.4224 15
639 1 1.89661 4.96878 -9.73101 24
640 1 -4.84346 14.0141 4.43588 12
641 1 8.5123 7.69195 -6.1109 20
642 1 0.197851 5.63575 13.1213 12
643 1 6.30023 -5.52822 7.50204 18
644 1 4.05881 12.0766 -10.5967 8
645 1 -3.09383 -1.41163 10.4111 19
646 1 -0.959944 -4.93287 -13.0747 18
647 1 -14.2953 -1.92059 0.439913 15
648 1 -8.67261 -10.5864 6.34198 16
649 1 10.2521 0.782753 6.04149 18
650 1 -2.25729 -11.9756 -5.99716 19
651 1 -14.7897 1.31246 -0.560713 11
652 1 12.7705 -0.160566 -10.5954 15
653 1 -8.36965 7.5736 3.66615 17
654 1 -9.62316 1.29539 6.40513 19
655 1 -8.52221 -9.85272 -9.22001 18
656 1 -0.865349 -11.4872 -2.98534 22
657 1 5.39023 -15.1172 1.18266 10
658 1 0.320004 9.15838 -13.2265 12
659 1 10.3243 -0.581547 -6.29292 19
660 1 7.8547 5.71009 5.0813 18
661 1 10.2245 -2.43118 -2.13804 20
662 1 -3.96033 -2.72189 -15.9406 10
663 1 0.325348 -9.17488 7.71929 20
664 1 7.10002 9.71374 -5.07523 15
665 1 4.82043 -1.23545 -12.2754 20
666 1 -11.447 4.94366 -4.21298 16
667 1 3.53013 5.18427 -6.75468 21
668 1 -10.7922 -5.42258 7.57263 18
669 1 2.53439 7.40018 6.86396 22
670 1 -0.0773941 -16.2777 2.40548 12
671 1 5.26573 9.21751 -2.43844 20
672 1 -4.33175 7.22735 12.9985 9
673 1 -9.42362 -3.59751 12.1031 13
674 1 11.7733 3.24761 -3.63533 20
675 1 -5.67203 -7.36788 10.1378 19
676 1 3.15501 -13.8012 6.79179 13
677 1 -5.73777 -1.09352 4.55343 21
678 1 10.1877 4.21134 11.9028 15
679 1 6.9929 -5.45375 -9.11512 20
680 1 -6.44783 0.385251 -16.6767 9
681 1 -8.90916 6.10219 -13.3236 14
682 1 -12.2058 -0.439342 -11.1891 11
683 1 12.4613 4.29023 4.63904 19
684 1 -2.0786 7.22882 4.47776 20
685 1 -11.4408 -11.453 -3.84686 17
686 1 -5.16548 7.5678 -1.04249 23
687 1 15.0512 1.79552 9.64983 12
688 1 -4.79951 -8.62355 2.69241 21
689 1 7.74796 -2.19603 -8.01459 20
690 1 1.29467 -10.8276 1.90876 18
691 1 1.34426 -1.20473 -16.8607 15
692 1 -6.35049 2.84076 -11.9919 21
693 1 -9.10292 -7.06626 -0.70507 18
694 1 -10.3065 3.69245 -6.99078 18
695 1 -10.0755 3.95773 9.0399 12
696 1 7.04182 -2.13011 7.78876 21
697 1 -12.1178 -11.1635 5.44058 16
698 1 15.7832 -2.41754 1.81669 13
699 1 0.205564 3.67263 -12.4485 16
700 1 15.8284 2.00095 -0.650429 15
701 2 -11.0406 -1.42196 -6.94915 18
702 2 -8.00604 13.6825 -5.21276 10
703 2 1.51526 -3.65228 -10.6531 18
704 2 -4.14147 7.43678 11.2148 12
705 2 -8.5619 -6.72803 -9.89592 19
706 2 5.68375 -2.89213 11.6319 18
707 2 -13.6886 -10.9295 -0.60407 12
708 2 -12.3612 6.77999 -4.03098 15
709 2 0.750998 11.852 9.59806 11
710 2 -12.3684 -1.72233 1.12001 18
711 2 8.33917 4.10643 7.90368 18
712 2 -2.25322 -3.18311 -6.42442 18
713 2 -12.444 -10.8185 -8.27314 10
714 2 -11.3259 1.6122 -3.53695 15
715 2 -2.37985 -6.66336 6.05592 18
716 2 2.40095 2.11424 8.51762 21
717 2 7.48357 -0.0387285 -10.2957 19
718 2 0.651222 -14.6246 3.26435 16
719 2 5.59725 1.62443 4.41489 21
720 2 -1.9883 13.3127 1.521 17
721 2 -11.3206 -1.36309 -12.7233 14
722 2 12.4052 0.5535 6.71575 17
723 2 10.7857 -8.87763 -6.81057 10
724 2 -11.6248 -12.9317 1.33231 15
725 2 -8.08443 -9.50623 7.81954 18
726 2 -5.95988 -13.9354 6.14214 11
727 2 9.04513 -4.65957 4.20093 18
728 2 -0.847285 -13.1168 -9.01721 8
729 2 3.24475 -3.98672 13.9982 12
730 2 -2.51519 7.06239 -10.4797 16
731 2 -10.4957 -10.1575 -2.68992 22
732 2 0.41158 3.82647 13.3809 13
733 2 -10.5159 11.4534 0.777775 11
734 2 -5.43703 0.696152 16.4541 7
735 2 -5.24601 13.0735 -4.30032 19
736 2 7.95447 -13.0104 0.98008 10
737 2 -4.38537 5.35206 3.95887 21
738 2 2.73761 12.2891 -9.37057 10
739 2 5.41494 -6.3751 -2.90154 19
740 2 -2.10664 -1.17443 -9.27002 21
741 2 1.37249 -6.51739 -9.46327 21
742 2 8.01446 -2.10262 -0.199152 18
743 2 -5.14156 3.46388 14.9779 10
744 2 2.18713 8.442 -13.5592 15
745 2 -5.85604 7.42906 -10.9604 14
746 2 11.3211 5.97508 -5.17834 16
747 2 -7.77132 -4.70478 11.7489 13
748 2 -13.2951 9.45722 1.72476 10
749 2 9.34889 -2.04676 -9.26339 16
750 2 -0.95582 -10.2292 -9.43585 16
751 2 -15.3253 -9.51313 2.4674 10
752 2 9.18269 3.95278 0.582922 21
753 2 -5.87328 10.3057 1.60962 18
754 2 -6.22481 -13.0776 -7.90455 13
755 2 -3.19505 15.2289 4.64896 9
756 2 0.615137 -10.8993 9.32595 15
757 2 12.7015 -3.73205 5.82106 17
758 2 -14.1006 1.38137 -2.24517 13
759 2 10.7415 -8.89212 -2.5206 15
760 2 10.0032 -11.0805 -5.17725 11
761 2 7.05092 5.80923 3.46831 18
762 2 6.00644 -14.4178 2.86294 12
763 2 6.25857 -4.63475 5.83316 20
764 2 -9.52114 -1.84924 12.5978 10
765 2 14.4805 -2.80326 -5.54818 16
766 2 4.42718 8.20451 10.946 19
767 2 13.5007 3.75994 8.31784 17
768 2 -7.4857 3.47347 12.3682 13
769 2 3.74252 9.82835 2.27999 21
770 2 13.6241 -5.94123 -1.83703 12
771 2 -1.47858 5.50649 -7.1848 18
772 2 -9.59368 -8.3862 -12.3158 17
773 2 -9.49398 -0.725585 9.69815 18
774 2 6.18361 0.0328066 -7.43296 20
775 2 -8.01929 0.812835 -8.4199 21
776 2 -13.4579 -4.32559 3.37566 15
777 2 -10.3802 -13.3786 -3.68304 13
778 2 14.5865 -1.51793 0.58446 15
779 2 -5.11926 -8.64619 8.54228 19
780 2 -1.05645 0.0710724 16.0546 8
781 2 4.36565 -0.297256 -15.0832 16
782 2 7.49774 -0.595386 12.5271 18
783 2 -1.17798 7.51992 8.66171 20
784 2 -7.03229 -0.109645 3.72642 20
785 2 5.67691 -8.0795 -5.63761 16
786 2 10.9413 -2.46627 -6.67964 19
787 2 -8.94856 10.5994 6.57099 11
788 2 -3.27548 -9.44079 1.77369 20
789 2 8.4727 -8.49877 -9.55583 13
790 2 5.73666 2.55703 -4.66912 21
791 2 2.86333 3.382 6.0731 22
792 2 8.27022 -6.30366 -4.15506 19
793 2 3.5539 -5.36695 3.89732 21
794 2 -8.63119 -11.4946 2.8478 21
795 2 9.51662 1.03297 -1.30982 21
796 2 -11.5825 -9.39562 6.33361 16
797 2 7.25127 6.04504 -8.59185 20
798 2 -1.18434 -8.33848 4.07325 20
799 2 14.8853 -3.33186 -8.45749 10
800 2 -2.21078 -15.506 -4.94304 10
801 2 12.8833 -5.17886 0.458048 15
802 2 -4.36944 12.4242 3.96363 17
803 2 10.3298 0.320247 -7.87834 19
804 2 -5.24305 -7.14669 -9.46134 21
805 2 -15.3034 -7.46753 -4.20512 11
806 2 -1.81803 -6.6881 1.3531 24
807 2 -3.44987 -5.60201 -0.849286 20
808 2 -5.78327 8.78696 -2.27332 19
809 2 -10.8805 9.64347 3.83861 15
810 2 1.26051 -1.11623 -9.17748 21
811 2 8.23662 5.8621 -5.61314 19
812 2 1.08958 8.76187 -8.21674 17
813 2 -9.19453 0.927321 12.0519 14
814 2 -0.471235 -1.48932 -17.6958 12
815 2 -11.465 4.88329 -1.1667 18
816 2 -4.31514 -0.803569 8.80065 20
817 2 -12.4926 3.06736 4.07941 17
818 2 -6.41911 3.25152 -8.92741 19
819 2 6.3926 10.8938 1.01833 14
820 2 13.6141 3.94802 -4.09463 14
821 2 10.3458 -5.70792 -2.0169 23
822 2 -11.8835 -2.8967 8.47621 12
823 2 10.5967 0.818537 2.89951 21
824 2 0.577055 10.5963 2.24313 21
825 2 -9.09298 7.83328 -13.8704 10
826 2 -9.78975 6.91985 2.64162 17
827 2 9.60963 -3.16446 7.03524 21
828 2 -8.42884 -10.6674 -12.982 11
829 2 3.32237 5.9444 -14.9353 14
830 2 12.5398 6.6606 -2.21164 11
831 2 -11.1856 -8.70662 10.1085 13
832 2 0.175684 8.38926 -2.36214 20
833 2 -3.40194 10.0725 -4.33782 18
834 2 4.00197 10.7202 -6.44085 20
835 2 13.8867 1.07224 11.1279 11
836 2 1.84869 6.28808 12.1342 17
837 2 13.1536 -5.63711 -6.47674 13
838 2 0.774276 1.03997 14.0556 16
839 2 2.59476 -4.85765 8.77446 22
840 2 -14.9077 -2.30425 -1.17451 16
841 2 -3.87813 -14.6578 -7.9207 12
842 2 3.04755 -9.39713 -8.1316 17
843 2 3.69207 -2.53217 -13.3193 20
844 2 15.8946 1.03388 1.57537 15
845 2 -3.41081 -1.17674 14.9276 14
846 2 4.65551 0.706354 -12.2284 19
847 2 -5.19563 -10.6596 12.04 12
848 2 -3.97171 -4.6895 -16.0891 13
849 2 1.25268 -12.0247 -3.95318 19
850 2 0.0601819 -5.54471 -6.1688 20
851 2 3.50544 -15.0438 1.28705 13
852 2 13.4339 2.82157 -7.33339 13
853 2 -4.25539 3.75768 -14.5451 16
854 2 -5.83058 8.1162 5.83337 19
855 2 -7.24913 -6.12583 -1.0798 22
856 2 -9.60856 1.55619 -13.8197 13
857 2 4.10433 6.87168 -12.0911 19
858 2 -1.33091 13.8593 -6.85599 11
859 2 -3.86543 -8.91816 4.59162 19
860 2 16.3674 1.51687 4.90359 13
861 2 -2.95542 1.88652 14.2502 15
862 2 -10.7462 -14.5116 -1.09801 11
863 2 7.10217 -12.2219 -4.2194 9
864 2 1.839 -1.82835 14.6884 12
865 2 2.77744 10.5604 8.38877 14
866 2 11.4596 5.19046 -11.7498 8
867 2 3.36477 4.90516 9.84032 18
868 2 10.1426 7.4335 -7.91367 17