ITEM: TIMESTEP
454000
ITEM: NUMBER OF ATOMS
2000
ITEM: BOX BOUNDS pp pp pp
-30.0 30.0
-30.0 30.0
-30.0 30.0
ITEM: ATOMS id type x y z Coordination
1 2 -8.42822 -6.6967 -2.60081 16
2 1 5.75169 -10.6499 -9.96659 15
3 2 5.18452 3.17866 -15.7713 18
4 1 -3.40433 -5.85234 -17.8701 18
5 2 6.28088 -17.0927 12.5407 11
6 1 1.10366 -6.52174 4.93888 14
7 1 3.09535 -10.8396 -12.7035 13
8 2 3.9017 -12.8258 -4.80168 16
9 2 12.134 -9.44538 1.27108 18
10 1 -9.78578 -3.78436 -6.21587 19
11 1 -9.44821 -2.2659 11.585 19
12 1 5.74579 -16.4899 4.51198 15
13 2 3.83547 -1.26002 0.613475 18
14 2 6.21824 -16.8989 -2.8897 9
15 2 7.13415 -6.64304 -7.65452 17
16 2 -3.70547 -5.01706 0.681491 16
17 2 -8.53357 9.10819 -4.0588 15
18 2 1.18293 -11.5289 -6.49316 19
19 2 12.3909 2.61757 -6.06722 16
20 2 -6.9447 14.8159 -6.32303 11
21 2 14.9075 -3.92399 7.83788 15
22 2 10.0075 8.39173 -12.6722 13
23 2 -14.9625 3.16773 -1.61211 18
24 2 -11.4319 -14.2981 -5.32173 10
25 2 4.94029 7.91355 -9.28404 17
26 2 2.90648 3.83903 -2.36067 16
27 2 5.10577 13.3613 -6.36516 16
28 2 0.163113 -11.7312 -1.00722 15
29 2 -1.8897 7.15666 0.1421 17
30 2 -2.4463 0.862995 -15.6508 12
31 2 -3.22455 11.7452 -14.4556 13
32 2 3.92183 10.5944 15.6269 12
33 2 0.392984 -8.34388 4.88906 15
34 2 6.45444 0.0797076 -18.4808 12
35 2 -10.7951 7.66525 -13.9365 7
36 1 -6.07183 -11.0425 -6.97647 14
37 1 -14.8943 -7.78503 -8.68114 14
38 1 4.16444 1.2458 -8.04366 15
39 1 -9.97162 -11.4244 -0.226866 14
40 1 5.90795 -18.2486 2.39994 12
41 1 3.96832 3.89698 -6.8946 17
42 1 6.44837 -0.738044 -5.6644 15
43 1 -5.58667 -11.7627 -3.34156 19
44 1 -4.45447 -1.56897 7.73745 17
45 1 -4.06319 5.64727 -17.3529 8
46 1 -0.356863 -17.5204 3.88225 9
47 1 0.934018 -7.62672 -0.437373 17
48 1 -7.52211 -12.8581 0.92432 19
49 1 -8.21494 -2.69932 -14.7248 13
50 1 6.95606 17.0522 -3.6929 11
51 1 -9.95651 3.26359 -13.805 17
52 1 10.5094 4.85841 -11.5793 22
53 1 -3.86248 5.47417 4.37776 20
54 1 -8.93833 -9.6564 2.06341 17
55 1 -5.90743 -17.2974 -2.31805 9
56 1 -3.16204 16.7396 0.0897036 15
57 1 -7.53289 -1.71933 2.35146 23
58 1 -6.91765 -7.64113 -17.0953 7
59 1 4.68157 8.15587 -18.3786 13
60 1 -7.76999 -14.28 -11.0971 8
61 1 -7.92375 -7.43607 10.7923 13
62 1 -1.15783 -5.77904 -13.2938 18
63 1 12.4485 4.72908 5.18871 15
64 1 -5.75967 -0.0763817 0.356706 18
65 1 14.0178 -1.26658 -2.09234 19
66 1 10.8513 -12.2075 7.10563 10
67 1 -15.9606 4.22776 -9.06478 6
68 1 -3.18561 -1.06866 -15.6575 15
69 1 -8.28648 2.02604 -8.74491 20
70 1 3.6841 2.2845 -11.3693 19
71 1 7.96102 -16.3772 -3.8018 10
72 1 -11.9542 3.81154 -1.96004 21
73 1 5.41581 11.447 -1.76819 18
74 1 -4.003 1.14115 17.9071 14
75 1 14.0801 -12.1244 2.09905 9
76 1 9.65514 -3.86186 -8.9715 16
77 1 -9.26455 -6.55638 -4.78091 19
78 1 3.39182 6.73258 -8.28969 17
79 1 1.46539 3.26778 -8.5637 16
80 1 -6.47822 -6.92944 -10.1171 12
81 1 -13.0957 -4.41604 -8.81068 20
82 1 1.22325 1.58853 -17.2866 14
83 1 3.39867 -10.1895 -8.22294 17
84 1 -5.42787 0.523459 3.77385 20
85 1 -9.65619 -12.4675 6.2235 9
86 1 -12.4334 -8.16288 -7.74233 22
87 1 -5.1858 -10.1483 1.05776 16
88 1 -0.654622 -9.46331 -18.6425 12
89 1 2.86158 -18.5556 3.35659 13
90 1 -0.275829 -11.9612 -12.709 17
91 1 -6.67184 -15.0907 -6.86423 13
92 1 -10.5702 -6.32476 2.41893 23
93 1 13.1108 -5.94621 -1.22022 15
94 1 11.9392 6.25366 -8.60698 12
95 1 0.00815028 1.17649 5.51979 18
96 1 12.0136 -5.62123 -8.00885 13
97 1 -16.5028 5.08338 -5.71811 9
98 1 -4.31726 -4.28182 -7.02557 18
99 1 3.95741 -11.9074 -3.09672 20
100 1 -3.04005 -10.5269 -16.4689 13
101 1 5.09263 5.20605 -0.83242 17
102 1 -13.4757 -0.868245 5.78098 20
103 1 -4.88046 14.4262 11.9142 10
104 1 8.82103 -7.40109 -6.89755 15
105 1 6.87236 -4.74436 -7.53242 15
106 1 16.3516 -0.422853 -0.772142 16
107 1 10.4205 -15.8744 10.2335 9
108 1 6.88252 5.75108 -6.58922 15
109 1 9.3704 1.61827 -11.0797 17
110 1 -7.30173 -2.36579 -0.61742 22
111 1 -0.839169 2.95803 -5.80343 20
112 1 0.176788 -13.7785 13.5039 8
113 1 7.68492 -16.8136 7.72983 13
114 1 7.41979 -8.49931 -11.9564 10
115 1 -14.9067 -2.02802 -9.37727 14
116 1 1.33539 -2.80259 -8.32192 13
117 1 3.49841 -8.0439 -10.2116 18
118 1 5.61472 -2.94505 -12.2711 16
119 1 0.0336875 -8.71719 12.3289 20
120 1 9.0048 -7.30299 -2.87962 12
121 1 5.88552 -13.7358 12.1968 9
122 1 -5.19678 -9.15379 11.1503 17
123 1 -13.246 -13.4143 -4.98969 9
124 1 6.86898 2.0929 -15.1206 17
125 1 6.27983 -7.69527 -9.18059 16
126 1 -14.2593 11.1366 -0.523148 7
127 1 4.25994 -4.00466 -2.34535 18
128 1 0.725797 -10.4233 -4.80199 19
129 1 -7.55963 8.19422 -2.34571 16
130 1 8.03408 -12.429 -4.34173 17
131 1 -6.77492 4.67191 -9.6063 18
132 1 4.64467 -6.37054 0.0609975 20
133 1 -8.53623 -13.0671 13.4418 4
134 1 -6.55817 0.383525 -5.88837 16
135 1 -4.04715 -7.09045 -5.27199 18
136 1 -6.09119 -2.08262 -7.0034 16
137 1 10.9535 -8.65533 -7.34884 11
138 1 12.6902 -2.00518 -7.76383 14
139 1 6.51387 6.10392 13.9495 20
140 1 -18.5697 -2.43163 -13.4905 4
141 1 4.3378 1.3223 -15.9301 17
142 1 -10.6122 -10.3321 -15.4468 3
143 1 -5.096 -3.28299 -9.85482 19
144 1 -2.52071 -6.38766 14.7017 20
145 1 -5.79684 4.55491 -1.27201 16
146 1 -4.67354 -6.25702 2.18286 16
147 1 -8.03109 9.2798 0.995019 17
148 2 -11.9605 3.23903 0.232565 21
149 2 -1.70788 6.53345 -13.9867 15
150 2 10.0036 0.934848 -17.3772 11
151 2 -3.55894 -9.01011 -9.55927 17
152 2 -4.07137 -3.16498 -11.7003 17
153 2 0.0473852 12.2924 -5.10179 17
154 2 -1.30769 -13.6054 12.1402 9
155 2 3.64661 -4.65182 -14.3503 19
156 2 -17.2422 -0.052299 -3.59178 12
157 2 -17.0588 4.74016 -0.15164 10
158 2 -15.4882 4.14443 -7.05094 9
159 2 3.25122 5.70754 0.313058 15
160 2 1.83988 -9.98624 -9.23282 16
161 2 15.0377 -6.09562 -1.38211 13
162 2 -2.30116 5.0787 -17.6999 9
163 2 7.64008 -1.4674 16.0128 12
164 2 -9.12377 -3.25978 -10.7627 13
165 2 -11.6054 -11.2478 -9.42542 15
166 2 -4.94357 -8.51112 1.98806 15
167 2 -17.2509 -0.580634 3.73377 9
168 2 -0.395662 -7.27994 -9.52518 18
169 2 -5.55317 4.17006 -11.1187 17
170 2 -1.42587 1.21703 -1.60796 12
171 2 -2.62917 -1.53065 7.39274 19
172 2 -14.366 -2.3191 9.43998 13
173 2 -11.4474 -9.36471 -2.43185 15
174 2 0.366981 -10.8386 5.2837 18
175 2 -0.983597 14.5489 -6.85772 15
176 2 -8.72146 4.18976 -4.93474 17
177 2 -17.6172 -6.96967 2.41325 11
178 2 6.31571 -11.0534 -8.04183 14
179 2 -10.8865 -8.53456 -9.25986 17
180 2 -3.6912 6.69402 -15.7759 13
181 2 -10.0 4.06294 -1.92049 20
182 2 6.90239 -13.3492 -5.72255 13
183 2 11.4254 -4.85365 -9.77135 12
184 2 -4.81397 -2.7313 9.33475 21
185 2 -12.8545 4.80468 -12.4402 10
186 2 -2.1591 11.062 -4.01182 17
187 2 1.35198 -11.1499 -13.4579 15
188 2 9.01495 -14.3801 4.23627 14
189 2 -0.979473 -0.655347 1.55456 18
190 2 -11.9402 -7.53835 -0.173859 14
191 2 -5.52237 -16.7622 -4.04844 12
192 2 5.26977 5.3257 -7.74104 13
193 2 -2.83579 4.80991 5.67938 20
194 2 -6.91625 6.94629 5.65146 18
195 2 -3.706 -5.14635 -5.17202 18
196 2 1.49436 7.18487 -14.5498 18
197 2 11.4547 -9.5215 -5.55416 11
198 2 -9.80694 1.08119 -7.83657 14
199 2 -5.99402 5.80475 -17.2466 9
200 2 -13.2417 -11.9656 -3.71589 12
201 2 2.61534 12.6084 -11.135 12
202 2 -8.66573 -5.17062 -7.10365 17
203 2 1.78924 -2.31319 -12.7294 16
204 2 -4.03561 -0.439608 -0.366637 20
205 2 -11.2622 15.8087 5.8012 5
206 2 -2.47972 -6.82353 -1.13804 14
207 2 5.3399 -4.59148 -11.2095 16
208 2 0.0180442 -7.44188 -14.439 19
209 2 1.2779 -6.98507 -16.8935 13
210 2 -3.33986 -9.54742 -12.2329 14
211 2 -5.9848 -9.81401 4.72426 16
212 2 2.63 2.21183 0.677532 20
213 2 1.19395 6.42744 -11.1482 14
214 2 4.47024 -15.7195 2.45621 16
215 2 -8.683 3.8152 -16.9216 8
216 2 -5.96563 -13.4089 -7.54929 17
217 2 7.14825 0.232086 -1.82813 15
218 2 -9.73412 -9.26766 0.189627 17
219 2 0.468738 -12.762 -4.25622 18
220 2 4.80099 -8.7463 11.5173 11
221 2 2.29611 -7.08534 1.05985 18
222 2 3.75373 -11.0708 -10.9152 12
223 2 -10.3906 0.271371 -3.648 15
224 2 1.22752 0.211803 -1.25481 18
225 2 -12.9577 7.537 -2.65788 15
226 2 1.63857 -2.62112 19.9648 13
227 2 1.99211 -14.3205 -2.18171 14
228 2 -9.60217 -2.69611 -7.99284 18
229 2 7.81746 5.22875 -8.48565 14
230 2 7.48655 11.5637 -1.5432 18
231 2 -15.5579 -10.6544 1.45698 6
232 2 5.46359 -6.19867 4.0378 18
233 2 -13.6482 3.69884 10.0813 11
234 2 -3.70902 -13.6329 -9.4591 14
235 2 14.7108 -2.93846 -1.71245 18
236 2 -0.45516 9.25503 -7.07701 21
237 2 7.65567 1.8934 5.09233 16
238 2 3.50326 -14.2757 8.07667 14
239 2 -12.5168 0.191667 4.40806 18
240 2 -1.40711 15.3419 -3.99363 12
241 2 6.06011 -5.44213 -5.33057 17
242 2 -6.30427 -12.4237 -10.9324 14
243 2 7.37349 -11.463 4.87633 17
244 2 10.6624 -9.38603 -2.30211 16
245 2 -3.54345 19.6113 8.37456 8
246 2 -6.98922 -0.870149 -1.51669 14
247 2 -7.25957 -10.9805 1.12363 18
248 2 -1.78994 1.30786 -7.06134 16
249 2 -5.53873 -15.0697 3.21999 12
250 2 3.96823 5.85714 -14.5936 16
251 2 11.1248 -11.4823 5.56293 12
252 2 3.65396 -10.1323 4.63683 18
253 2 -5.35868 -7.66876 -17.8094 16
254 2 4.65232 -11.4137 14.6615 10
255 2 -13.6805 -0.0564782 -2.96374 14
256 2 4.5677 0.539057 -1.03438 15
257 2 -1.05966 -14.2295 9.42057 15
258 2 4.93994 -9.27014 -2.88757 14
259 2 -2.10323 -2.83564 -15.4232 15
260 2 5.84416 -7.83157 -12.6857 13
261 2 -0.133083 2.73199 -17.5478 9
262 2 -0.09429 0.647982 -16.0009 14
263 2 1.02372 -13.1626 -10.6646 10
264 2 0.19775 3.90098 -4.20443 22
265 2 -2.88699 3.6229 -6.01653 17
266 2 3.63533 -9.38524 -13.5172 10
267 2 -1.28968 -10.4386 -4.66414 16
268 2 0.433461 -9.82826 -16.9566 12
269 2 -9.10338 -8.23366 -7.05115 17
270 2 2.41422 4.35748 11.6402 16
271 2 11.1133 -3.02542 -7.5311 14
272 2 -15.5929 -3.77877 6.83664 12
273 1 -9.32367 -15.0561 -1.84344 9
274 1 3.49919 2.00661 2.60843 18
275 1 -19.5301 -3.36916 -5.90985 6
276 1 -14.4074 0.266106 8.13278 14
277 1 -4.93735 -1.48784 16.4116 18
278 1 -15.0091 -6.13987 -11.6049 11
279 1 -3.33078 12.0584 10.2639 16
280 1 -12.0958 -2.58902 3.04274 16
281 1 -0.809229 -0.363298 8.45545 18
282 1 -5.53466 3.26609 4.94665 18
283 1 -4.59743 -0.569975 13.4867 19
284 1 -13.5116 -0.239456 1.58726 16
285 1 -1.24582 8.00674 4.14644 17
286 1 -16.313 -9.55484 -11.8249 5
287 1 -7.54068 4.84936 -18.0612 6
288 1 3.94682 -13.0516 14.8497 8
289 1 -6.18345 -11.5463 7.25482 17
290 1 -17.2214 -2.1234 -3.88609 14
291 1 -0.960189 -4.54584 12.8127 21
292 1 -6.17445 4.96357 12.8125 15
293 1 -1.8712 -0.315157 15.0254 16
294 1 -6.97175 -15.3876 -4.23871 15
295 1 -2.27732 -6.77257 -8.82981 19
296 1 -7.49956 -1.54206 13.6169 18
297 1 5.76394 -3.00965 21.0745 5
298 1 -10.3365 -1.66499 14.1539 10
299 1 -2.92159 -2.00919 11.4547 18
300 1 -8.25446 -1.39746 -10.7393 18
301 1 -10.0749 -1.64113 -3.3838 18
302 1 -16.1627 -4.91296 -0.588371 17
303 1 2.35658 0.643163 7.6872 16
304 1 -2.47759 -11.7689 2.38436 18
305 1 -5.93849 1.06846 7.34255 19
306 1 -11.9007 1.33295 -0.207323 21
307 1 -11.244 10.676 0.397151 13
308 1 -5.2057 7.23447 7.61567 20
309 1 -10.7504 -8.6808 -5.33788 20
310 1 -8.16999 -12.6209 -7.82471 18
311 1 -12.6043 -7.91208 -2.75891 16
312 1 -14.4545 -4.26572 4.47637 18
313 1 1.31138 5.16562 14.6742 16
314 1 -12.1651 -6.36305 -10.4421 17
315 1 -2.52654 -1.66489 -11.7752 16
316 1 -2.19915 -3.00044 6.5411 18
317 1 6.89688 -5.67676 9.81089 19
318 1 7.23607 -13.9291 -1.32903 17
319 1 -12.9569 -4.63201 1.43773 18
320 1 -6.54257 3.15436 -14.181 16
321 1 4.42689 -4.37256 18.0532 14
322 1 -7.63546 -4.16764 -11.8017 15
323 1 -2.9453 1.79814 6.77127 20
324 1 1.04293 17.4235 5.036 14
325 1 12.3495 -6.61862 1.62387 17
326 1 -11.9436 -1.82262 -0.596073 17
327 1 -2.8195 15.1354 9.64679 18
328 1 -6.10321 -6.93512 13.8645 15
329 1 2.25818 2.04903 20.1393 8
330 1 5.80799 -6.29004 -11.6567 14
331 1 -3.07955 -4.39205 -15.3347 19
332 1 4.47653 4.07358 -13.7959 16
333 1 -2.09788 -14.2477 10.8867 13
334 1 -3.52918 -12.0688 -1.00644 16
335 1 -7.453 -10.7855 11.4221 13
336 1 6.40609 -8.82946 10.4217 15
337 1 -2.21008 -1.55511 4.12155 21
338 1 -11.6814 -5.51341 5.78836 23
339 1 -17.1274 -3.67718 -10.8852 11
340 1 -4.65894 -8.8897 -8.05023 18
341 1 -0.927547 -9.1669 -13.7475 19
342 1 -0.612245 -8.12842 -2.54613 17
343 1 -2.04915 -8.99389 10.0294 21
344 1 -8.15327 2.59438 8.21615 16
345 1 -19.5765 -6.94028 2.07202 6
346 1 -17.3664 0.0906878 -5.56282 8
347 1 -14.6621 4.22937 2.8847 13
348 1 2.56132 -3.81572 20.879 8
349 1 8.88991 -10.6051 5.57263 17
350 1 -14.0002 -6.12393 10.6193 4
351 1 -1.02744 6.287 9.06913 18
352 1 -5.74278 -13.4823 11.4647 12
353 1 -0.177418 1.70678 -7.90292 15
354 1 11.1555 6.33339 0.446814 16
355 1 -12.3962 17.1503 5.58045 4
356 1 -7.03695 11.0987 3.74461 18
357 1 -5.579 10.1743 6.50116 16
358 1 5.05058 9.06675 16.0754 13
359 1 -8.33953 12.9218 6.80631 9
360 1 -5.21801 -4.66999 16.1503 14
361 1 -15.181 -2.55576 11.0237 7
362 1 4.69643 10.5985 -13.3445 13
363 1 15.8972 -0.219477 6.2945 10
364 1 7.14003 -7.38759 2.92822 17
365 1 -6.40918 -5.08014 5.12868 16
366 1 -5.46999 -16.6583 2.29354 10
367 1 8.38132 1.21728 -3.05255 16
368 1 3.1995 -2.61724 -11.1307 16
369 1 -6.63631 -6.81099 -3.71754 21
370 1 -2.77872 -13.1977 5.83787 14
371 1 -4.55876 -11.1085 4.92097 16
372 1 -17.6174 -6.16464 4.1217 11
373 1 -14.9209 -10.9051 -7.03274 11
374 1 0.985426 -1.84333 15.5253 15
375 1 -5.4396 -8.09861 3.91527 14
376 1 -14.3461 6.66948 4.60345 7
377 1 -9.88821 -14.4628 -6.2172 12
378 1 -13.7659 6.01784 -11.2376 7
379 1 12.2209 -6.87755 7.03945 19
380 1 3.85068 -0.126887 11.7199 18
381 1 -12.2616 5.03401 0.784511 15
382 1 -2.99496 -16.7335 -0.324506 12
383 1 -7.98191 -13.455 8.7728 11
384 1 -9.78341 10.917 -4.19015 12
385 1 -10.9697 -8.89998 4.14097 15
386 1 -0.97298 10.1515 -17.1182 10
387 1 -17.0797 -5.30377 -4.01445 12
388 1 10.8275 15.61 -3.76814 8
389 1 -2.19861 -6.6052 7.41652 18
390 1 6.3948 -2.34998 5.18453 16
391 1 -12.3185 10.3357 -3.32706 12
392 1 -16.8088 3.60269 6.49444 9
393 1 -6.04929 -1.7376 10.6713 24
394 1 -1.9758 -4.66416 17.1306 16
395 1 -1.69498 18.5244 8.8536 11
396 2 -4.2042 8.45314 10.2739 18
397 2 6.0246 -9.84948 8.55846 18
398 2 -2.09416 9.83289 13.9825 13
399 2 -11.1986 6.12512 -4.28138 20
400 2 -7.43309 -13.5676 12.1519 8
401 2 -12.6109 2.68468 -3.18886 20
402 2 -4.1944 2.94841 9.9428 21
403 2 -1.40282 -13.3826 -11.8866 12
404 2 -4.00357 -9.77635 9.54209 16
405 2 -13.7328 2.52862 3.30193 16
406 2 -2.92959 -15.6196 -4.33073 13
407 2 6.9707 2.41638 -7.51158 20
408 2 -4.65567 -3.93655 3.31099 21
409 2 -8.60955 1.85929 11.8836 16
410 2 -2.99244 -1.3352 16.3249 20
411 2 -7.21166 -10.4605 -3.00428 17
412 2 -9.93084 5.50225 -14.2232 11
413 2 -13.5893 6.14548 6.3231 10
414 2 -2.69835 -7.11968 10.1685 21
415 2 3.04501 4.85277 16.0128 10
416 2 -12.4499 0.781681 8.77099 15
417 2 -7.51396 8.17586 -12.5646 18
418 2 -8.81328 -12.9338 -1.0059 17
419 2 -10.6608 -5.77833 4.09721 20
420 2 10.165 -13.7114 -6.41536 10
421 2 -15.7437 -7.85267 -11.7287 8
422 2 -5.65391 -0.216831 17.7839 12
423 2 -3.29717 7.3297 3.47066 18
424 2 -2.15058 -12.4175 -6.42251 21
425 2 -16.8945 0.622881 -0.310705 13
426 2 -4.51041 -11.191 -15.2744 9
427 2 -14.8175 -10.7022 -1.64884 10
428 2 6.50971 -2.19018 -0.923024 20
429 2 8.13136 -14.7221 -2.72066 16
430 2 -6.93355 -14.0544 -12.928 6
431 2 -3.4067 -12.3201 3.91057 15
432 2 -1.08057 -6.19872 16.3505 15
433 2 8.45874 5.42559 12.5939 19
434 2 -1.13681 -0.895733 19.9649 11
435 2 -7.29781 -4.3011 9.13902 20
436 2 5.88682 -18.2543 0.574373 9
437 2 0.585674 -5.50124 3.4862 14
438 2 -5.28164 -1.37829 2.13924 18
439 2 -8.67269 6.77405 10.6331 17
440 2 6.05311 4.86707 -11.2575 19
441 2 -7.80271 2.26376 15.5108 9
442 2 -17.1973 2.29924 5.36426 8
443 2 7.47871 -2.84898 -13.6338 16
444 2 1.14703 -1.16823 10.5422 19
445 2 -4.0773 -4.99683 11.4128 22
446 2 -7.84962 -11.5331 -6.20106 21
447 2 -6.88082 11.7404 6.39308 13
448 2 1.55255 6.57372 19.182 8
449 2 -14.1133 -1.25812 -10.9757 15
450 2 -12.2777 -6.29199 10.1022 6
451 2 -4.72832 -6.58665 15.4357 14
452 2 -12.4042 -1.78281 1.17569 16
453 2 -8.8786 -8.61946 3.80453 17
454 2 1.25681 -17.9841 4.9051 11
455 2 6.48947 -18.2805 8.74701 10
456 2 -6.7606 -8.0519 12.3499 14
457 2 2.05974 -1.31349 17.3107 13
458 2 3.10314 -13.4428 2.65917 17
459 2 -14.8963 1.63311 9.38368 12
460 2 -13.2521 -4.00348 -4.93038 16
461 2 -7.72514 -5.53478 11.8671 15
462 2 7.7387 -8.03418 8.03339 18
463 2 -10.1007 -1.62835 7.78652 18
464 2 4.54166 -18.1296 3.96714 14
465 2 -18.6526 -2.43861 -7.14656 9
466 2 -7.90037 -0.901711 -6.65093 17
467 2 -19.6343 -5.15798 2.30475 5
468 2 -4.17767 -8.33294 12.5086 15
469 2 -0.716346 7.90072 9.93808 17
470 2 -9.29733 -0.571331 12.7438 16
471 2 -9.39222 -11.8257 -3.72965 19
472 2 -10.6605 -3.29535 10.5515 15
473 2 4.49747 -6.15922 8.79858 21
474 2 2.98342 -18.4496 8.12036 7
475 2 -9.54304 3.41118 9.073 21
476 2 -1.72474 -9.74458 11.897 15
477 2 -1.19071 0.887662 10.0116 19
478 2 -15.4541 -8.64768 3.73393 11
479 2 12.558 -2.93507 15.8375 8
480 2 -6.73115 -6.13776 -5.60594 18
481 2 13.4087 -4.35176 13.2569 13
482 2 -12.0167 1.28653 11.8812 13
483 2 1.66694 -12.2448 8.47826 18
484 2 1.60407 -15.4303 9.99287 15
485 2 9.50842 -5.01648 15.4067 9
486 2 -7.39452 -11.0871 9.32037 16
487 2 -6.264 8.96177 -6.72825 17
488 2 4.85551 12.7321 -0.253746 17
489 2 -16.5773 -6.20213 5.64186 11
490 2 -1.22916 -15.9386 4.28018 13
491 2 9.93973 3.96866 9.60273 20
492 2 -5.92822 17.7592 5.06499 10
493 2 4.48121 7.67602 6.01099 17
494 2 -2.11923 -3.77372 4.86205 16
495 2 0.390445 15.2096 11.6046 9
496 2 1.8272 -2.98237 -6.59612 17
497 2 4.65051 5.82177 8.7812 16
498 2 13.5209 3.2079 10.8925 15
499 2 11.4154 -3.16968 -12.7655 11
500 2 2.96601 -5.5857 11.6163 17
501 2 2.42373 1.02315 -11.9361 17
502 2 5.53722 4.83862 12.1277 21
503 1 -4.54775 -6.24067 -21.0986 9
504 1 -4.83533 -3.75065 -18.4205 8
505 1 -7.19936 9.84575 -5.01668 19
506 1 -17.9421 3.98881 1.16907 8
507 1 -3.06842 -13.5328 -11.2012 13
508 1 -7.25901 -4.98823 1.61137 20
509 1 -5.39292 8.78132 -13.0109 13
510 1 -1.3655 12.2825 -14.4678 13
511 1 -0.192405 11.2379 4.90094 22
512 1 -2.10577 1.30412 12.3046 16
513 1 -10.6273 -2.74413 6.45338 19
514 1 3.86493 9.69074 -16.2569 12
515 1 -7.30501 3.16736 -3.98161 16
516 1 -7.80679 7.65111 -10.5533 15
517 1 -10.9761 -9.72048 -10.7252 17
518 1 5.15485 7.64299 -2.55878 16
519 1 -11.9011 -8.18603 6.94298 11
520 1 -10.3281 1.20754 12.3989 13
521 1 -1.27568 -13.5934 0.437913 14
522 1 -7.32685 7.02415 3.46726 20
523 1 0.823778 10.1185 -8.03042 19
524 1 -6.88638 1.78636 10.9197 19
525 1 -13.1755 -0.0389801 12.772 9
526 1 -14.5146 -1.78556 -2.05509 18
527 1 0.292573 0.1311 -3.37232 19
528 1 9.87286 10.9657 -9.14835 12
529 1 -13.3416 6.70882 -4.34308 17
530 1 18.0397 10.1629 -4.50583 5
531 1 -6.27172 -11.2214 -16.3641 6
532 1 -9.77084 9.93167 -10.1852 14
533 1 -4.80857 9.6021 -7.7787 18
534 1 -3.57675 2.35404 -7.17817 15
535 1 -1.40899 1.31534 -17.2181 10
536 1 -16.3214 -1.63894 0.194286 12
537 1 -16.074 -2.02086 3.8114 14
538 1 -11.4436 -11.2049 -3.24674 17
539 1 -14.7322 -10.5721 3.1811 6
540 1 -13.3869 -2.02799 -14.3506 10
541 1 7.8039 13.5591 -2.88767 19
542 1 -11.7331 -1.40606 8.70047 15
543 1 -15.5451 1.79056 0.762559 16
544 1 -12.6635 -5.25392 -6.39466 18
545 1 -11.1372 2.37181 -7.82332 14
546 1 -13.564 -3.73729 -11.4744 18
547 1 -5.11348 18.7335 8.87059 10
548 1 7.6839 -0.00875224 5.67579 19
549 1 1.10003 9.74639 -14.7345 18
550 1 -8.92377 -3.05649 9.32196 17
551 1 -11.0387 6.51537 -6.23799 18
552 1 2.91795 -3.21536 -17.8721 13
553 1 -3.89545 11.0535 -10.0553 14
554 1 -10.5271 7.18956 -8.74039 14
555 1 -11.645 4.49045 10.0374 13
556 1 3.52394 -15.7683 9.30742 14
557 1 -4.02813 -8.7039 -18.6175 12
558 1 -5.35277 9.54004 1.4046 19
559 1 -6.68476 -10.3159 -1.03744 18
560 1 6.31832 1.68298 -9.14892 21
561 1 8.49963 -15.7401 1.3057 13
562 1 -6.33365 5.82803 -4.34441 17
563 1 -6.97314 5.90038 -12.6938 15
564 1 -1.7787 12.2077 7.48436 19
565 1 9.71951 5.81143 -4.42284 17
566 1 11.8928 4.41821 -6.30323 15
567 1 -5.70815 16.1527 -2.20457 13
568 1 7.00368 6.93247 -18.3992 12
569 1 -9.57346 5.97622 12.2382 10
570 1 -10.9876 13.9808 -4.46244 11
571 1 -9.06689 5.01908 -3.32943 20
572 1 -10.1615 -6.71709 -7.75109 18
573 1 -1.88296 5.2182 -7.11364 17
574 1 9.62058 -2.86826 4.9763 22
575 1 -2.50728 15.5138 -5.43282 12
576 1 -11.7463 -7.39353 -13.7096 9
577 1 3.53989 -11.552 2.77938 18
578 1 9.88543 -11.374 -2.13241 18
579 1 -13.6567 4.22294 -6.54737 17
580 1 0.901911 -1.28096 5.5281 15
581 1 -3.45227 -2.73127 -4.95029 17
582 1 8.79595 8.28866 -14.156 11
583 1 5.63791 4.15688 -17.3767 16
584 1 17.3054 2.96376 7.57035 8
585 1 -0.979837 8.8854 0.645713 18
586 1 -2.73624 -1.17112 -1.43822 18
587 1 -14.7977 7.75705 -2.32935 13
588 1 10.4854 14.0632 -1.00849 15
589 1 2.72822 6.74428 8.28491 15
590 1 8.71965 8.16858 6.49424 17
591 1 10.3049 -0.858603 7.65887 20
592 1 0.980482 10.7154 -4.57456 23
593 1 -1.54921 -6.75904 -20.8236 11
594 1 15.2589 3.3228 -15.2636 7
595 1 1.08622 0.282935 17.2972 13
596 1 -7.05462 7.43265 -7.39107 16
597 1 0.896565 5.06544 20.4879 5
598 1 -3.95394 10.4858 -4.57158 19
599 1 -1.41551 3.48875 -11.3455 15
600 1 -8.88791 -8.88815 -2.66187 18
601 1 -11.0198 -0.167835 -14.463 12
602 1 -4.94337 12.2272 1.94903 17
603 1 -5.97449 6.35011 -15.3131 14
604 1 -2.71062 2.31411 -14.3089 17
605 1 -6.83932 11.5041 -0.316326 19
606 1 12.5461 8.76399 -3.03621 16
607 1 1.69383 6.58732 4.9573 17
608 1 -0.931789 13.2621 -0.593242 18
609 2 -7.29697 4.78162 -14.7511 13
610 2 -10.7091 -5.62425 -5.85054 22
611 2 -13.4514 -5.34354 5.86278 17
612 2 -1.31918 9.49018 5.46643 17
613 2 -1.26882 -7.44882 1.36998 20
614 2 -0.348942 -6.51219 7.87514 17
615 2 8.10142 -3.61154 4.2774 20
616 2 -16.4421 -1.53956 -5.88817 13
617 2 -2.5131 10.7282 8.3476 17
618 2 6.53038 1.84844 16.856 10
619 2 3.55756 4.41163 -11.8305 18
620 2 5.74906 -3.0727 -17.4608 12
621 2 -10.0663 8.45237 7.56748 10
622 2 -5.68594 -13.5904 -3.54 19
623 2 -7.20001 1.39567 -4.35867 11
624 2 -5.91983 9.77291 4.61765 17
625 2 -8.84433 15.3399 -3.40814 12
626 2 -3.86249 -7.44103 7.72726 15
627 2 -13.8148 5.04866 -4.97033 16
628 2 2.83268 1.43335 -18.3121 14
629 2 -12.0807 -3.50404 -10.4428 16
630 2 -14.7071 -10.59 -11.3372 7
631 2 -1.09245 -13.2077 -8.56278 13
632 2 -2.6903 -6.91077 -16.5817 20
633 2 -3.59937 9.56593 16.5602 6
634 2 -3.5022 9.50522 -9.19598 18
635 2 -8.51745 1.96613 -1.58555 20
636 2 -1.22621 6.73304 -6.07668 21
637 2 -5.19871 4.1651 3.31153 19
638 2 -2.35355 9.79305 -16.2821 13
639 2 -2.58636 5.89217 -8.55371 16
640 2 16.9687 9.84402 -2.99983 8
641 2 -5.91315 7.95112 2.4274 17
642 2 -14.5615 5.33398 -9.65364 8
643 2 -7.01102 -9.62975 -16.6916 7
644 2 -0.00544693 -9.16814 -0.896816 16
645 2 -8.29192 7.27979 2.00024 17
646 2 -10.2608 -1.95682 4.8215 19
647 2 -7.87734 -11.0429 -8.72451 22
648 2 -6.23782 -2.35531 -11.1836 16
649 2 -7.11467 -4.09501 -1.53178 18
650 2 -6.88577 1.72164 4.09596 19
651 2 -7.71119 -0.498608 0.907555 20
652 2 -4.22434 -4.9323 -19.6272 12
653 2 -2.73559 -1.8438 -3.12091 17
654 2 -0.885914 -5.17437 -17.5652 15
655 2 -15.5213 -4.279 -11.5244 14
656 2 4.95742 -3.72028 -7.0723 17
657 2 12.4852 5.22462 -0.354606 17
658 2 -12.1521 -1.874 -15.7811 7
659 2 9.77741 -3.74511 8.4228 15
660 2 -0.301364 9.93715 -9.56965 20
661 2 0.239932 4.7151 0.826456 13
662 2 -16.1815 -2.50975 1.94476 13
663 2 2.0822 -12.9518 14.3954 9
664 2 -1.80947 15.9664 6.36106 14
665 2 1.03992 9.80692 14.7752 13
666 2 2.00712 7.96395 -8.00468 18
667 2 -12.5072 -8.10545 -4.54519 15
668 2 -3.8818 -12.3908 -12.8071 13
669 2 -4.91136 -16.4082 -0.805441 11
670 2 -9.96765 1.48427 -14.3374 13
671 2 -1.44958 -3.51408 -5.34934 14
672 2 1.1377 -3.22156 1.69407 17
673 2 12.2613 -5.27225 -5.95199 13
674 2 -8.04589 -5.00069 4.65472 20
675 2 -5.31201 9.35351 -14.843 10
676 2 -11.9661 19.0356 5.40274 4
677 2 1.80004 -6.77425 8.73291 19
678 2 -9.38713 -3.66507 -15.8733 10
679 2 -9.78899 5.83735 5.60846 19
680 2 0.201773 1.80626 2.46731 14
681 2 -3.88448 12.3785 6.59407 16
682 2 0.275788 16.5614 -1.63045 12
683 2 6.85363 1.61225 1.16492 20
684 2 -8.82151 10.2 3.74703 16
685 2 -11.5927 10.241 -5.22974 13
686 2 -15.2822 5.93066 -2.22755 15
687 2 -5.48017 13.9733 2.26763 15
688 2 10.7486 3.34125 -15.1813 15
689 2 -7.31286 -8.05709 9.18462 14
690 2 -12.0227 15.3203 -3.36471 6
691 2 3.87252 0.324567 3.20455 15
692 2 1.55279 15.1819 7.59146 16
693 2 -9.72706 14.3755 -5.95443 10
694 2 6.77987 5.51581 -17.1739 17
695 2 -1.57566 15.6716 -9.89049 10
696 2 -8.28414 5.61795 -10.9649 14
697 2 -2.76074 4.44887 -2.47064 15
698 2 -17.0916 -5.66452 -2.16436 11
699 2 -10.4101 5.03877 -8.27407 19
700 2 1.49041 12.173 -3.13753 20
701 2 -5.10564 -1.43109 -8.8324 18
702 2 -11.8371 -5.76952 -2.2525 20
703 2 7.62633 4.04957 3.33543 18
704 2 -13.5757 -12.025 -6.40125 13
705 2 -5.23541 5.33036 -13.8555 17
706 2 4.04689 4.87028 -18.5114 12
707 2 7.70033 -14.4872 6.98237 15
708 2 1.86643 -13.9537 4.93814 18
709 2 -7.32439 6.03223 -5.96091 20
710 2 -3.13248 0.798488 14.2068 21
711 2 -4.29615 1.27526 -5.83594 14
712 2 -10.6635 4.60334 11.6607 14
713 2 -12.7004 7.30748 -10.2741 11
714 2 9.10369 -2.73008 1.96316 15
715 2 -16.8664 2.66822 2.01537 12
716 2 -8.50462 -13.9791 2.54876 12
717 2 -14.6049 -5.31166 0.445708 16
718 2 11.5864 9.9365 -8.53627 11
719 2 -4.58434 14.1355 13.4885 7
720 2 -0.46245 11.8665 -15.9298 9
721 2 13.1369 -7.47301 -3.03588 11
722 2 3.00206 14.4092 -2.68211 14
723 2 11.8473 -14.2381 -3.72329 11
724 2 6.18742 7.6386 3.37224 17
725 2 -13.4713 11.075 -2.12767 9
726 2 4.34103 8.72506 19.5467 6
727 2 1.38369 17.8153 9.13297 11
728 1 -15.5125 3.51971 9.63723 7
729 1 0.323062 -7.81873 2.79679 17
730 1 -7.87284 -12.4774 -2.67172 19
731 1 -11.8501 0.746802 -2.81228 19
732 1 -11.4724 -8.82599 0.977337 13
733 1 -13.5792 4.43365 7.35435 16
734 1 -4.40572 -8.40587 -11.261 13
735 1 -5.58914 -2.60051 -12.9736 14
736 1 -6.05504 8.42457 10.8127 13
737 1 6.3029 8.91749 -5.29148 14
738 1 -12.283 2.4461 4.48549 17
739 1 6.03261 -3.29035 0.277416 18
740 1 -8.77721 2.447 5.05107 21
741 1 -11.6716 6.87382 5.91364 13
742 1 11.1303 -12.0076 10.7822 8
743 1 -11.0307 7.158 -1.47635 17
744 1 -10.6342 2.37217 2.13257 21
745 1 -2.86101 5.38244 -14.5369 16
746 1 -6.41468 -0.919708 19.4712 7
747 1 -6.33531 -4.45075 11.3485 19
748 1 -3.41451 -7.95797 -2.19717 15
749 1 -8.90553 -9.56733 -8.32734 21
750 1 -12.5599 -2.23229 -5.09843 16
751 1 0.644593 16.7781 10.5482 11
752 1 -0.838175 -11.8592 11.5537 15
753 1 0.40791 13.2024 -6.49598 18
754 1 -0.707935 -4.14491 3.41078 18
755 1 -4.11485 11.1827 17.472 5
756 1 -10.6363 4.09246 7.3079 19
757 1 -16.057 -7.51765 1.63451 14
758 1 -3.32071 -5.57542 -3.17631 17
759 1 3.66817 -0.408093 5.20821 16
760 1 -4.64914 8.35786 4.35528 16
761 1 -3.2123 -6.6344 11.8633 22
762 1 -0.130588 7.86985 6.48992 14
763 1 -10.5681 1.03906 -10.8376 18
764 1 -7.73123 -0.566258 8.81186 16
765 1 -3.25475 14.4406 6.82835 13
766 1 -0.660921 6.51627 11.5405 20
767 1 -7.28024 -4.27382 -5.37959 22
768 1 10.7788 7.16949 9.56443 14
769 1 -8.79255 3.31583 -0.477755 19
770 1 -14.5769 9.24635 1.03988 7
771 1 5.06793 -0.183347 -11.3309 19
772 1 1.79955 9.63549 2.7929 14
773 1 -5.31578 9.25475 -2.03622 17
774 1 -9.80469 -12.7825 2.98616 11
775 1 -11.1245 14.5032 1.46489 8
776 1 -10.3407 11.7351 3.52247 13
777 1 -14.363 3.87237 -3.44254 16
778 1 0.205385 17.5373 0.00800544 12
779 1 4.54417 12.9704 -10.8046 15
780 1 0.0860995 15.1764 2.19609 16
781 1 -6.72709 10.3884 -11.1364 13
782 1 13.8498 -1.29402 -5.2098 16
783 1 -10.7714 -13.0477 -9.65949 12
784 1 -13.6141 6.69406 -8.47124 12
785 1 1.49889 -1.09849 -16.0927 16
786 1 -4.64742 6.67386 1.55492 18
787 1 -11.1907 -4.71571 9.50263 16
788 1 2.19424 2.80288 -3.84665 16
789 1 -7.09718 5.80487 9.7889 19
790 1 0.319854 8.26978 13.9719 16
791 1 -9.04307 0.167077 -0.4789 19
792 1 -14.1294 -2.96308 7.5183 16
793 1 4.6352 11.682 14.0792 9
794 1 -12.7143 1.97631 10.2886 16
795 1 -14.4854 -4.76132 -3.45992 19
796 1 -6.6046 11.5922 10.5804 9
797 1 11.6993 -1.13756 -12.8063 11
798 1 5.4203 3.97621 9.34861 16
799 1 -9.73854 7.9168 -4.32492 20
800 1 -3.80105 13.0001 -2.61157 16
801 1 9.75875 -13.5951 2.69459 16
802 1 -3.30279 12.0801 4.90921 19
803 1 14.641 6.82104 -0.177653 15
804 1 -0.34345 -12.9511 -6.25955 15
805 1 -8.33747 15.6668 0.451216 15
806 1 -3.26579 4.44004 -4.27306 18
807 1 -2.34043 14.5672 -8.3039 12
808 1 -6.26186 17.9224 3.2838 9
809 1 -9.77598 6.86847 8.98224 16
810 1 -6.05328 13.08 -5.18891 16
811 1 8.27085 0.317854 -17.4865 9
812 1 2.77402 -1.82152 -3.95042 18
813 1 -0.15963 -2.28306 18.947 17
814 1 0.948604 12.0076 2.12886 19
815 1 -11.9595 20.5664 4.16969 4
816 1 -8.18501 9.17342 8.92483 12
817 1 3.36826 -12.2657 8.84511 15
818 1 -9.32498 -4.085 3.87729 17
819 1 -0.882517 -2.65856 -14.2046 16
820 1 -0.86389 14.6407 -11.8096 10
821 1 -17.1613 -4.59596 6.28478 9
822 1 2.81436 -0.842311 19.4405 12
823 1 -8.03624 2.79465 13.5932 14
824 1 -2.4722 9.11662 10.2475 17
825 1 -10.3464 -6.48746 -0.81009 19
826 1 -10.6045 -2.89025 -9.48867 16
827 1 1.41233 10.3272 -1.01116 19
828 1 -6.46979 15.5617 9.1265 11
829 1 2.19536 16.07 -1.51899 12
830 1 7.23479 5.79523 3.8846 18
831 1 9.91067 4.85252 13.9061 14
832 1 -3.4131 19.0051 -1.63544 7
833 1 -0.88444 18.2402 2.17559 8
834 1 -3.83673 -9.30267 7.40034 16
835 1 2.56496 3.14805 10.1591 15
836 1 -0.842386 9.90521 -11.4239 19
837 1 -1.71573 11.4034 2.04238 17
838 1 -5.22382 -4.81382 -0.68864 17
839 1 7.43026 14.4656 4.92529 13
840 1 -5.08637 -2.36168 4.81586 19
841 1 -9.88273 5.38892 3.87627 19
842 1 8.46188 -3.44073 12.5945 16
843 2 -8.08327 4.20033 12.4876 15
844 2 4.04395 -5.67895 -1.64092 15
845 2 -8.47242 11.243 -5.6515 17
846 2 -1.43262 14.036 -13.4656 7
847 2 -10.194 1.27986 6.15732 18
848 2 -8.16406 -3.31162 1.89791 19
849 2 -1.32304 -15.5599 -1.21619 11
850 2 -6.2886 -6.51245 1.18153 16
851 2 0.382621 -15.9741 -3.67494 7
852 2 -15.4519 4.96512 4.51409 11
853 2 -7.4898 14.211 7.88824 13
854 2 -13.3855 -2.38731 4.44809 19
855 2 1.66557 7.71934 6.56652 15
856 2 -9.34828 8.12597 -9.87112 18
857 2 -5.11649 1.9787 15.9358 12
858 2 0.324441 -5.96006 -6.39849 18
859 2 -11.1753 5.49388 8.5009 15
860 2 6.03172 -5.69481 6.51099 19
861 2 0.314497 14.5984 3.91914 18
862 2 -14.87 -6.76515 -3.55252 15
863 2 -10.975 8.19162 4.7133 12
864 2 -3.15423 -12.3316 -2.99909 17
865 2 -15.4339 4.0753 7.96082 11
866 2 -0.395107 13.0926 1.52515 19
867 2 -16.1246 4.13564 -4.12632 11
868 2 -15.4149 -9.46223 -4.39527 11