ITEM: TIMESTEP
27000
ITEM: NUMBER OF ATOMS
2000
ITEM: BOX BOUNDS pp pp pp
-30.0 30.0
-30.0 30.0
-30.0 30.0
ITEM: ATOMS id type x y z Coordination
1 1 -11.7055 -0.770013 -15.9987 15
2 1 -4.71332 -14.7008 -12.9727 12
3 1 -1.23482 10.4968 12.7689 17
4 1 4.30295 -6.04302 7.55364 18
5 1 -16.1404 7.8325 0.813393 18
6 1 5.80783 -8.24 -17.0791 13
7 1 -15.5893 4.3478 -6.6094 14
8 1 -2.92267 -3.79466 12.002 14
9 1 -6.30466 2.80384 -10.8747 19
10 1 -19.0854 -6.62003 1.34936 12
11 1 7.52214 1.08855 -14.9725 21
12 1 -8.78825 2.97277 -8.83479 20
13 1 -8.22046 -11.385 1.73305 20
14 1 -19.1089 -10.0253 -4.08695 11
15 1 -0.274952 2.30019 16.3206 12
16 1 6.15975 -4.94678 4.80459 17
17 1 -2.0081 6.13468 7.91412 16
18 1 7.1182 3.32774 3.3556 18
19 1 -12.5241 10.146 -15.4945 4
20 1 -2.83373 0.961148 9.4354 16
21 1 -9.68472 1.70439 -11.7915 22
22 1 -15.2116 -6.33679 9.68346 12
23 1 10.8477 2.12067 5.32743 13
24 1 0.574133 10.7268 -15.624 11
25 1 -5.27439 5.81261 -11.5286 21
26 1 4.27717 -0.472817 4.79823 20
27 1 -14.943 1.05817 1.14594 17
28 1 -14.6935 -4.301 -8.86814 21
29 1 -8.677 -5.01248 -11.6669 18
30 1 -18.0251 9.23022 2.17973 12
31 1 6.00065 -8.1134 9.05091 18
32 1 -10.5151 -0.555105 4.66019 19
33 1 -1.41992 -11.548 -13.5691 18
34 1 6.50848 -7.73652 -10.6217 20
35 1 -14.1696 -12.1913 -1.26362 12
36 1 -13.5287 -8.65192 7.7145 12
37 1 2.03922 -4.19655 -9.96903 20
38 1 1.09274 -4.66617 -18.1722 16
39 1 6.53823 -11.2197 -16.1357 9
40 1 -4.98844 3.27508 -16.2494 19
41 1 -2.70736 4.04047 10.068 19
42 1 -2.00423 -12.5872 7.73677 15
43 1 -0.490477 -6.45689 13.2809 19
44 1 -16.0036 5.76728 -1.14524 19
45 1 -16.9037 -0.344467 8.01625 18
46 1 -9.69116 1.49508 -3.63078 18
47 1 -7.67218 14.413 -8.22351 20
48 1 -4.24845 -10.2919 -9.11555 17
49 1 0.346617 -3.42322 -15.197 19
50 1 5.69674 -1.78583 -20.5703 9
51 1 -8.14928 -5.37641 13.5708 10
52 1 -18.4301 8.53655 -5.08247 12
53 1 -2.25997 4.60521 -17.2029 20
54 1 -1.33653 16.277 0.200255 16
55 1 -11.3451 13.8508 -6.82782 24
56 1 -8.30829 15.7225 0.176533 14
57 1 -3.729 -10.8058 -5.79388 20
58 1 7.43821 -7.48986 -14.0125 14
59 1 0.241772 -7.56649 -18.027 17
60 1 -16.9254 9.6354 9.28529 8
61 1 -15.8853 -1.61766 -8.78099 22
62 1 4.21717 -2.98117 1.86944 22
63 1 -13.9861 9.1432 -5.93312 20
64 1 -16.6992 -11.6362 1.42542 9
65 1 -5.11115 15.994 7.8689 10
66 1 -16.2148 0.450826 -11.2302 19
67 1 -10.7639 12.9052 9.47969 18
68 1 -1.79265 12.6419 -9.39795 17
69 1 -0.724787 2.94182 2.94193 20
70 1 -8.20033 -14.9963 5.32977 11
71 1 -4.06496 9.86074 4.94644 23
72 1 0.29412 -13.4166 -9.9844 18
73 1 -3.85925 12.5384 12.6656 14
74 1 -19.2471 -0.567299 -9.39598 15
75 1 -18.8373 5.01604 -4.17194 18
76 1 -2.00259 3.12936 6.56188 20
77 1 9.57633 -2.0153 -11.0521 16
78 1 7.28474 -10.9352 7.02672 8
79 1 -20.2453 -0.590269 6.75694 10
80 1 -13.7611 0.192014 -2.96847 16
81 1 -0.681926 12.2413 7.11664 20
82 1 2.84445 -0.293237 9.71215 17
83 1 -5.98729 -6.80374 3.1869 18
84 1 -14.2641 2.81591 -1.17858 21
85 1 7.86494 2.12579 0.384397 17
86 1 5.9781 -1.71413 -1.48179 23
87 1 -2.97864 15.1719 8.27866 13
88 1 0.64909 -5.32575 6.04776 16
89 1 -16.1494 -6.7687 2.37541 19
90 1 -12.4896 -9.4582 -8.629 20
91 1 -14.2058 10.5523 2.33272 16
92 1 -13.4395 12.3421 -4.49408 20
93 1 -3.57347 11.2617 -11.2496 13
94 1 5.62356 1.38585 -1.56612 19
95 1 1.09425 1.14557 -4.99562 19
96 1 4.17933 13.1637 -10.4958 12
97 1 6.30343 -13.5635 -3.79985 13
98 1 5.63544 -5.36092 10.0744 19
99 1 -9.26189 15.4002 -5.56437 19
100 1 -7.68403 12.0882 0.230599 18
101 1 -9.57243 -3.98651 8.82103 22
102 1 -6.4039 11.9953 5.25249 18
103 1 -5.25012 -11.1038 9.20556 15
104 1 7.52493 -2.7368 -9.57377 22
105 1 -16.253 10.7871 0.0960767 16
106 1 -11.7859 -12.8172 0.885137 16
107 1 10.845 -7.28971 -7.73323 16
108 1 4.67179 2.64209 -16.6994 19
109 1 -6.6744 -5.97575 -17.9434 16
110 1 1.8166 0.46362 6.35947 21
111 1 -6.30546 12.4708 -5.88508 21
112 1 -10.1933 5.71775 -8.57574 17
113 1 -8.35806 5.6875 12.6502 16
114 1 -5.93638 16.2024 -9.91694 11
115 1 -18.848 5.60133 -0.511633 21
116 1 -1.09843 8.574 -0.329097 18
117 1 -4.3417 -4.87425 8.88346 13
118 1 3.89876 1.64472 8.13477 16
119 1 -1.15587 -2.93529 -9.32622 20
120 1 1.00276 -12.8701 -14.7718 17
121 1 -7.18113 11.7374 13.4568 11
122 1 -1.47471 -3.55355 15.4609 17
123 1 -15.8634 -9.62455 -9.02237 17
124 1 1.5545 -4.04013 1.30127 19
125 1 -14.6317 -7.50271 -6.50302 20
126 1 3.28912 -12.4775 -5.11492 16
127 1 -8.89246 9.6633 0.884068 16
128 1 -1.158 2.11761 -14.381 20
129 1 4.61041 15.2859 -5.27696 9
130 1 -9.62069 -10.9411 5.37334 17
131 1 -5.23227 -12.7117 6.55027 15
132 1 -9.85419 4.66905 -5.23727 17
133 1 1.11199 -10.1206 -16.2529 16
134 1 5.44211 8.98723 -9.86429 16
135 1 4.12604 -8.81332 -2.19281 16
136 1 2.85911 -11.8004 6.77989 16
137 1 -15.9532 -8.14878 -3.36857 14
138 1 9.10031 4.15486 5.7718 16
139 1 8.30133 -1.58455 -15.5433 15
140 1 -17.7504 -3.14076 0.909987 16
141 1 5.59594 8.20699 6.9689 19
142 1 6.83457 9.77274 2.28514 22
143 1 -13.1277 -2.92292 15.7354 6
144 1 2.20767 4.82493 -2.53524 19
145 1 -10.0114 9.73941 10.9606 18
146 1 -9.35537 12.239 -6.57793 20
147 1 -6.94625 -9.13916 -13.2576 20
148 1 3.22097 -14.627 -13.1107 10
149 1 -4.73961 14.1165 -11.984 11
150 1 8.89816 -5.92045 8.90202 10
151 1 -3.26764 -5.23512 -21.7772 10
152 1 -8.5805 8.32778 -9.49687 16
153 1 9.24482 -0.320734 -9.21697 21
154 1 -15.2709 12.4234 -7.23149 14
155 1 -11.1729 14.9443 -3.41638 16
156 1 2.39713 2.76648 -14.2491 19
157 1 3.82859 -8.18588 1.69671 19
158 1 -10.7578 0.136234 -9.41625 23
159 1 -11.4801 14.8172 7.33825 11
160 1 6.18879 5.57694 -11.2869 17
161 1 4.11727 11.9384 -6.00869 15
162 1 -8.18146 12.8825 -3.17824 19
163 1 9.22153 11.9037 -2.99139 12
164 1 -6.02558 11.6813 -9.30628 18
165 1 -2.08518 13.5297 0.975869 20
166 1 -0.363329 6.61708 -18.6676 13
167 1 -2.85081 -13.1959 4.08735 17
168 1 -20.4644 3.65266 -1.57739 15
169 1 -13.4319 5.48117 -10.1604 14
170 1 -1.42481 -13.0248 -17.511 10
171 1 2.98254 9.52189 7.9769 16
172 1 -1.76367 14.9078 5.52038 17
173 1 -19.4364 -6.14914 -8.27314 14
174 1 -12.9579 12.2168 4.80095 13
175 1 11.5708 -2.4595 -8.02338 14
176 1 -14.3739 -1.89827 -16.7115 6
177 1 -1.17612 -0.83154 17.5197 10
178 1 2.19184 10.1116 -0.506816 22
179 1 -5.69761 10.3288 7.90219 18
180 1 2.20516 -0.814043 -19.6394 14
181 1 -10.2026 12.6942 5.95486 16
182 1 -0.275556 7.36457 -6.0974 19
183 1 -5.92624 0.121029 12.5459 16
184 1 -18.8513 -1.60884 -1.81858 19
185 1 -7.14668 -12.2944 -18.0854 10
186 1 -13.5637 14.9848 -8.08071 13
187 1 -3.10228 -7.82178 2.6279 21
188 1 5.48287 -12.1973 -6.82942 16
189 1 -10.4779 7.84731 -12.3053 15
190 1 -17.0231 -0.0515167 10.8167 12
191 1 0.717376 4.70533 -4.98013 21
192 1 1.99618 9.17702 -11.812 16
193 1 -13.4168 13.43 10.4963 8
194 1 2.0121 -12.5713 9.74642 12
195 1 -11.749 1.32946 2.76513 21
196 1 2.61229 15.7754 -2.42762 13
197 1 -3.86819 12.86 6.37039 19
198 1 4.28285 5.73377 5.19045 22
199 1 -6.97883 14.1284 2.71111 19
200 1 7.48097 -5.27291 -11.4193 16
201 1 -8.20732 16.0967 5.75991 12
202 1 -6.68113 6.21593 -8.37292 21
203 1 12.8811 -4.66028 -2.28399 13
204 1 -0.744177 -6.17184 1.09174 21
205 1 -20.1785 4.22123 5.01954 12
206 1 -8.30871 -8.51287 -3.18823 19
207 1 0.959448 -2.74845 6.68612 16
208 1 -21.5457 -0.506263 -5.56396 13
209 1 -14.8929 -12.406 -4.3353 13
210 1 -12.04 -4.37979 -1.99973 17
211 1 4.01955 -6.37926 -10.438 20
212 1 -6.12972 15.3285 -5.1697 19
213 1 -10.1629 -2.14403 -0.338388 17
214 1 2.34005 12.4331 8.04234 12
215 1 -12.1251 -2.6579 -7.73032 19
216 1 -3.21491 7.04399 -11.6541 15
217 1 -17.6383 -5.38951 -4.70665 18
218 1 -15.2319 2.0092 6.01468 20
219 1 -2.93608 -9.96821 7.72487 19
220 1 5.09717 -8.3015 11.9201 11
221 1 -14.3202 9.77758 6.66818 15
222 1 9.03833 -4.40539 5.74489 13
223 1 -0.546826 2.03189 -9.39698 18
224 1 -10.8982 -8.34269 -15.5297 12
225 1 4.28352 -2.88814 12.2703 18
226 1 5.4214 -11.0276 10.1901 11
227 1 -3.64979 3.21138 -9.35103 21
228 1 3.42839 -10.7526 -17.5732 10
229 1 2.87244 3.29973 -20.1424 15
230 1 -1.65283 4.36882 -11.263 21
231 1 -11.6026 -5.2855 -10.3092 21
232 1 -7.47692 17.4449 -7.14013 11
233 1 -10.7595 -8.47874 6.29162 20
234 1 -0.997201 15.1102 -7.63542 18
235 1 -14.89 -0.185271 13.8486 8
236 1 -7.34597 13.5636 -12.7976 10
237 1 1.40366 -1.9373 3.66334 22
238 1 -4.51367 -12.4105 -17.8708 12
239 1 -11.5994 10.3566 -10.7466 21
240 1 -3.94653 0.354196 -14.4892 20
241 1 -4.89238 -9.05937 5.20119 23
242 1 -15.0293 6.4346 4.59411 17
243 1 -8.60281 10.5832 7.73242 21
244 1 1.82417 -15.8073 -10.2037 11
245 1 -6.07004 -16.0831 0.641106 16
246 1 5.09854 -12.0456 -1.87153 12
247 1 -3.27024 -8.6552 -0.371305 19
248 1 1.05077 9.39047 14.6922 9
249 1 4.16964 11.1453 -12.3658 12
250 1 -1.83719 9.89776 -4.30115 18
251 1 -13.6058 3.89917 2.65155 20
252 1 -18.9392 11.3968 -2.86418 11
253 1 -7.30677 8.35421 14.246 13
254 1 1.32268 -10.5708 2.05801 22
255 1 6.22854 0.3861 -4.57647 20
256 1 0.121756 9.10624 8.3786 15
257 1 -9.92686 4.0756 4.68458 19
258 1 -17.8229 -7.35451 -10.5306 13
259 1 -4.43892 3.54368 -13.4186 21
260 1 -3.10323 -3.80083 6.17985 19
261 1 8.8146 9.35806 -12.8071 9
262 1 1.02815 -8.50533 -10.5276 18
263 1 -5.62826 -2.11164 -14.5259 19
264 1 6.43783 -8.9254 1.64426 15
265 1 4.93703 -4.22584 -11.6565 22
266 1 -18.0003 1.67304 5.46476 19
267 1 2.24511 -13.5841 -7.75617 17
268 1 -14.8532 -5.21189 -11.7428 17
269 1 0.365433 15.5238 -4.79487 12
270 1 -3.21714 -6.78582 -17.9291 20
271 1 2.54175 8.18028 12.5387 13
272 1 11.4402 0.141623 -0.403762 16
273 1 -14.3617 -4.33225 -5.83358 19
274 1 3.7971 -8.38949 -14.4758 19
275 1 -3.30716 -5.51202 -2.76892 19
276 1 -7.84182 -6.7175 -15.352 16
277 1 -14.2301 2.23591 -5.3755 16
278 1 -8.32338 -11.7761 10.9482 6
279 1 10.4072 2.38854 8.64776 9
280 1 -6.71618 -5.4298 10.4831 18
281 1 -5.95676 -4.3957 -13.009 19
282 1 6.17188 -5.2336 1.74321 18
283 1 -7.36407 3.72393 -13.497 21
284 1 1.34089 10.9991 -3.52932 20
285 1 -13.9936 -3.27959 -0.00523613 20
286 1 3.87308 7.68444 -2.43222 22
287 1 -5.43202 1.70401 9.2759 19
288 1 -13.666 -6.33488 -14.3408 12
289 1 -9.56283 -7.90321 -12.0461 20
290 1 -3.64765 3.4959 -19.7692 13
291 1 -15.5037 -8.72461 -12.2699 11
292 1 -8.24768 -11.6872 -1.09698 19
293 1 5.37736 -5.82639 -14.3167 18
294 1 6.89828 0.794432 -11.2764 23
295 1 3.20312 2.23005 -0.0990792 19
296 1 -11.3795 -4.02528 -4.6032 18
297 1 -13.5432 -4.03319 7.53698 18
298 1 -3.3876 -14.6286 1.79627 18
299 1 3.27834 5.52502 11.8264 12
300 1 -8.63313 -14.195 2.14406 17
301 1 -3.14608 -13.8212 -1.44473 18
302 1 -0.668773 17.1994 -2.59342 11
303 1 -1.49391 -3.84536 -17.7424 19
304 1 -5.52646 -9.10535 -19.0039 14
305 1 6.84832 -10.0634 -5.48481 20
306 1 -17.8818 -6.87816 4.91431 12
307 1 -4.90686 -0.530003 17.3775 12
308 1 -5.01448 -14.4628 -9.54475 11
309 1 -9.61324 -10.859 -13.4541 15
310 1 -15.5983 3.30169 -9.36104 16
311 1 4.41187 3.3428 2.34881 21
312 1 -9.92485 4.38715 -16.2349 14
313 1 -1.68446 11.3878 -14.2658 12
314 1 -13.4249 -5.06107 2.83672 22
315 1 0.107701 -15.9816 -12.1757 10
316 1 -10.8792 12.9533 1.47572 15
317 1 3.47478 12.9889 5.53379 11
318 1 7.37134 -1.08858 1.16167 19
319 1 -11.1297 5.42761 2.09663 16
320 1 -0.71552 -5.29744 8.42832 15
321 1 -12.6358 7.67013 8.64396 17
322 1 -1.11824 -8.21257 -12.6614 20
323 1 9.5918 5.97045 -6.90013 15
324 1 -4.91279 -7.65022 -7.26292 22
325 1 -2.55652 -6.97528 15.6918 9
326 1 -21.7073 0.789235 -2.26476 13
327 1 -1.76526 -16.2156 -3.89798 13
328 1 -15.2203 10.7368 12.2079 7
329 1 -13.9294 7.61841 13.2323 11
330 1 -16.3202 -8.75713 7.51937 11
331 1 -15.5469 -9.73946 4.49115 14
332 1 9.84828 -1.32652 -5.45248 18
333 1 -8.21854 -8.64959 3.77865 20
334 1 3.19368 -2.21056 -16.7372 21
335 1 9.05758 -9.71533 -8.54116 18
336 1 3.10477 12.699 -1.1556 19
337 1 -0.582653 -7.9828 7.684 18
338 1 -13.7468 15.7472 -2.73974 11
339 1 -4.52807 4.48506 7.31848 22
340 1 0.1684 5.3569 10.7503 15
341 1 -17.9561 -4.63732 3.33934 15
342 1 1.0762 -10.2551 -7.96217 17
343 1 -2.98548 12.1047 -6.20248 17
344 1 -11.5234 3.03598 0.117068 18
345 1 2.33273 -6.49013 10.2447 19
346 1 8.81363 -11.4161 -3.55575 12
347 1 -4.62384 7.52275 9.11474 21
348 1 -7.61241 -2.64926 -9.32898 18
349 1 -9.03308 -0.151913 13.5811 17
350 1 -4.1267 16.9002 -2.67048 12
351 1 1.97868 -0.805474 12.5502 22
352 1 -12.2385 16.5771 -5.61547 12
353 1 -2.51422 -7.58786 -20.2202 12
354 1 -12.3325 0.0690032 -6.02257 19
355 1 -2.24035 -5.21105 -14.8896 19
356 1 -10.0829 0.167684 9.44754 15
357 1 -18.9695 0.401512 0.194603 17
358 1 -3.51328 -2.9856 -7.35449 17
359 1 -8.88107 11.18 3.23652 17
360 1 0.180966 -8.43758 10.4036 18
361 1 -19.0266 -7.31623 -1.86839 17
362 1 -0.92704 -9.84409 -0.327922 18
363 1 -6.43219 -8.99552 10.9072 13
364 1 -20.2954 0.80323 3.34048 11
365 1 -5.41118 -8.00084 8.47207 18
366 1 4.86063 -8.14028 -7.49334 19
367 1 -4.29898 -3.59278 -10.4966 19
368 1 8.02494 0.161403 -20.3974 10
369 1 4.79926 8.13705 3.45042 21
370 1 -18.8381 -0.267006 -5.47445 18
371 1 -2.04134 -8.82276 -15.257 17
372 1 -0.247499 5.47672 -14.9983 20
373 1 -8.50844 -12.0864 -3.8625 18
374 1 -18.4733 -3.79406 -10.1735 15
375 1 -4.34667 -11.7267 -2.20558 17
376 1 -2.76725 1.38934 13.352 19
377 1 10.9989 6.16383 -0.956931 14
378 1 -9.55685 1.09865 -17.38 13
379 1 2.39384 15.4763 0.718549 14
380 1 -18.5942 4.42543 -7.19337 13
381 1 -8.9063 7.36549 3.53016 20
382 1 -14.13 13.3832 1.46475 9
383 1 -5.75808 5.97844 2.11954 21
384 1 3.64686 1.81404 14.4937 9
385 1 8.012 -6.93919 -6.34342 21
386 1 6.16518 -1.11308 10.2415 15
387 1 9.1144 -3.94499 -6.63268 22
388 1 -9.36462 -14.8873 -3.75944 11
389 1 -8.43239 9.54761 -4.57385 20
390 1 1.78405 -5.95368 -12.5438 19
391 1 -5.3837 7.24244 -2.68999 20
392 1 -9.31803 0.444955 -6.07971 17
393 1 2.3934 -5.70061 -6.92593 18
394 1 8.26952 -7.55141 6.39832 14
395 1 -12.0343 -6.28013 -6.97249 20
396 1 -10.6091 -9.7347 0.85266 17
397 1 -7.96966 -2.67671 11.0664 19
398 1 -13.1589 11.382 -1.02118 16
399 1 -13.2282 -8.99474 -4.65953 16
400 1 -2.1306 10.1121 15.571 7
401 1 -11.66 4.5959 -3.06255 18
402 1 -3.68552 16.9998 -8.01471 12
403 1 10.0551 14.3107 2.50782 6
404 1 -19.5294 -7.15859 -5.62091 13
405 1 -7.07077 -9.93609 -5.217 22
406 1 -11.629 -1.98157 2.1319 20
407 1 -15.8154 13.0098 -2.43234 13
408 1 8.50018 -6.45487 3.48627 14
409 1 -9.27137 -10.9842 -7.09392 19
410 1 9.95921 5.184 2.29423 15
411 1 9.14392 0.95932 -17.62 13
412 1 -12.0791 1.99211 -14.2507 15
413 1 -10.3369 11.3638 -12.8138 12
414 1 -12.5646 11.4595 -7.44399 23
415 1 -0.312245 -12.1622 4.68607 23
416 1 7.29724 6.32109 4.1601 24
417 1 -0.857129 7.56814 -13.0054 19
418 1 -8.1676 -0.819699 8.27016 21
419 1 -17.3782 2.69921 -0.262619 21
420 1 -7.92919 2.65774 7.60849 19
421 1 -0.0153886 -10.9038 7.42877 22
422 1 -1.49225 -8.94413 -6.73754 22
423 1 -2.19607 -14.1814 -15.1684 13
424 1 -5.74913 -3.39923 4.1019 21
425 1 -17.9381 7.14214 5.03195 13
426 1 -18.2666 -3.09149 6.15663 14
427 1 -17.2974 8.07562 -2.59902 22
428 1 -2.41462 -6.95883 5.2724 20
429 1 -9.31927 1.76139 -14.6531 18
430 1 0.896577 -10.7982 -4.21497 19
431 1 -3.04319 -12.8062 -8.06892 20
432 1 -8.40072 -1.85254 2.77573 16
433 1 -0.918663 -5.53969 -10.6733 20
434 1 -8.65067 -2.31051 -13.1173 19
435 1 1.64513 -7.32549 0.313282 19
436 1 -0.0295205 10.449 -7.18459 19
437 1 -11.565 10.2723 9.05717 17
438 1 -14.2802 -1.17812 9.95838 18
439 1 -10.2898 -5.18507 -13.9596 19
440 1 -12.7197 -3.89531 9.90957 16
441 1 7.16869 -1.76971 4.11251 18
442 1 0.600662 2.44 -2.08149 19
443 1 -11.0207 9.78548 -2.02011 15
444 1 2.9165 0.998879 -9.21523 20
445 1 5.45268 -8.08198 5.8135 15
446 1 13.3189 0.97712 -6.57795 13
447 1 -11.6164 2.15383 12.0356 18
448 1 0.493387 7.67988 -2.84594 20
449 1 -0.372661 -3.84547 -0.859335 16
450 1 -6.71462 -12.0376 -8.04027 17
451 1 -11.0537 5.3232 14.1808 12
452 1 -5.26313 15.4189 4.97188 17
453 1 -10.5606 -10.9887 -10.8033 19
454 1 8.75343 11.2271 -6.31364 13
455 1 1.41489 11.1224 11.4499 16
456 1 -10.0718 4.95714 7.74599 18
457 1 -11.4814 -7.10507 -2.83265 16
458 1 -15.751 2.03035 8.3845 21
459 1 -14.1109 -7.15618 -9.47288 20
460 1 -6.43943 17.3152 2.88866 9
461 1 -8.61305 -13.4791 -9.8725 10
462 1 -4.60432 -4.61904 -16.1439 22
463 1 -15.0415 -5.47274 -2.51758 18
464 1 -15.3836 -2.44702 2.65324 22
465 1 5.4714 0.376916 2.49832 21
466 1 -11.2557 -5.48784 14.7906 7
467 1 -15.2694 6.67427 -7.76867 15
468 1 3.48544 2.51397 -3.68798 21
469 1 -17.0179 -10.5084 -5.66562 14
470 1 -1.88657 4.60343 -6.6906 19
471 1 -3.01518 16.6149 3.26186 12
472 1 -3.07096 6.42569 -8.55748 21
473 1 -1.11669 11.1937 10.0251 18
474 1 -20.8352 2.66772 -5.04558 12
475 1 -5.52261 12.2029 -2.38996 14
476 1 4.45181 7.68594 -12.7456 16
477 1 -7.26688 -9.45954 -9.54806 18
478 1 -5.89659 0.889593 15.2948 21
479 1 0.469685 -16.0464 -7.01608 13
480 1 -5.0006 -8.39924 -15.917 15
481 1 1.18519 -8.81159 -2.41751 20
482 1 -11.0074 9.32351 3.79388 16
483 1 -8.66516 -0.0496359 16.7859 13
484 1 7.76554 3.48505 -3.1456 17
485 1 -2.66241 13.6731 -2.27122 20
486 1 -12.1539 13.5908 -10.4195 14
487 1 2.94214 5.52791 -13.5451 20
488 1 -3.15788 -5.2868 0.226151 20
489 1 -21.0402 -2.92454 -8.49027 10
490 1 0.938546 12.8473 3.51363 19
491 1 -9.61566 -2.39833 -17.7571 10
492 1 8.18855 -1.75167 -3.55571 20
493 1 1.65364 12.9607 -13.5474 10
494 1 7.2039 -4.15895 -4.61994 23
495 1 11.6464 3.36157 -5.25229 14
496 1 -5.02529 -0.743149 -10.779 18
497 1 -1.74478 -10.3981 -3.21445 20
498 1 -0.723551 -13.3267 1.24574 23
499 1 3.98944 -5.70088 13.0181 13
500 1 -14.0304 8.49756 -11.6248 11
501 1 -12.3161 -10.8868 3.92764 17
502 1 1.3336 -10.3548 -12.9014 17
503 1 5.32476 15.7282 -1.91635 13
504 1 -7.4036 3.18712 -17.9964 12
505 1 -3.97389 -7.53103 12.8049 10
506 1 -11.2941 -2.36126 7.46948 21
507 1 -1.36927 -16.3351 -0.485199 12
508 1 -19.8821 -4.71838 -3.0545 13
509 1 9.98825 -4.81419 -9.50933 15
510 1 12.4182 -2.50949 -4.93727 22
511 1 -9.31783 7.08592 -3.53393 19
512 1 -1.0107 -11.0694 -10.2558 19
513 1 -3.02281 1.59269 -11.7733 18
514 1 5.64441 -2.89006 -15.4373 18
515 1 -4.14331 -1.97423 14.249 13
516 1 7.94251 14.0457 -5.06385 10
517 1 -4.15316 -4.52553 -19.2525 19
518 1 -0.318045 0.958267 -20.3811 13
519 1 -9.11666 -3.34925 5.68455 20
520 1 -7.06807 9.39728 -1.60832 21
521 1 -12.5873 -3.24275 -12.9483 17
522 1 -16.7609 4.78962 6.66215 21
523 1 -4.78089 -14.5291 -16.3272 12
524 1 -9.97817 -5.57951 11.5312 17
525 1 -4.99541 8.69874 -9.75086 15
526 1 9.93762 -0.306144 9.83105 10
527 1 8.4758 8.54737 -8.12102 15
528 1 -16.7871 -10.6989 -2.02752 15
529 1 7.5421e-04 -6.67395 -8.16822 19
530 1 -3.87111 -1.67661 -20.5167 14
531 1 -17.362 4.36219 9.95545 10
532 1 2.08633 -5.82358 -2.23683 21
533 1 -1.21276 5.12213 -1.68225 18
534 1 9.93175 -5.23899 -3.57588 27
535 1 -2.60145 15.1304 -10.629 13
536 1 3.81644 -4.02986 4.85734 16
537 1 6.85722 -1.91699 -7.15876 18
538 1 -6.32713 2.72475 17.4065 13
539 1 -17.2395 3.87226 3.69688 18
540 1 4.63211 10.5364 5.16219 15
541 1 5.9097 -0.358848 12.9841 14
542 1 -5.80939 0.741654 -19.6063 13
543 1 -9.35474 -4.68156 -8.13058 20
544 1 -5.0714 3.20004 11.5189 19
545 1 4.92043 10.8023 11.6937 7
546 1 0.981806 5.94455 -11.3064 18
547 1 -12.5472 5.86586 -6.47574 19
548 1 -3.57756 10.1461 -1.29805 19
549 1 12.1187 -3.33606 4.33488 9
550 1 4.67213 2.75219 -12.8608 21
551 1 12.4442 -7.3611 -4.52264 11
552 1 5.22888 2.64128 11.5329 12
553 1 -21.5231 -2.25494 -2.47163 11
554 1 -7.755 10.3586 -11.7854 18
555 1 -8.39762 1.79328 3.88052 18
556 1 -16.7422 -3.41301 9.32191 12
557 1 -9.55835 13.1969 -10.1898 18
558 1 0.866698 -14.356 -4.71331 15
559 1 3.78007 0.335112 -5.90542 15
560 1 -8.61008 16.5357 -3.30015 11
561 1 -7.81526 -9.1367 -16.9257 14
562 1 2.51977 -12.9541 3.34313 15
563 1 -15.2696 -1.08475 -5.87897 21
564 1 -5.93301 9.14113 -16.7986 11
565 1 -10.9937 11.4238 -4.42081 18
566 1 -12.3601 10.8273 12.0903 14
567 1 -12.0351 -5.35712 5.4429 20
568 1 3.77934 5.91522 0.334653 21
569 1 3.6882 -13.5129 -16.1622 10
570 1 4.16459 -2.78295 14.9368 12
571 1 5.07181 3.34788 -9.28061 18
572 1 -15.7133 10.1325 -3.96782 15
573 1 -2.0283 5.02453 16.7144 10
574 1 -4.37734 12.9005 3.04098 19
575 1 10.1261 -7.5785 -11.3526 11
576 1 -3.50615 9.36946 11.1343 20
577 1 6.02544 2.58658 -19.103 15
578 1 -0.802076 -11.8682 11.0174 11
579 1 -7.42367 0.486981 -9.60685 18
580 1 4.74487 0.596136 -21.5155 9
581 1 -0.89993 11.36 -1.10239 20
582 1 1.36889 -0.873158 -10.707 20
583 1 -1.89451 -1.34608 -15.3031 20
584 1 -10.8131 -10.598 -2.3168 18
585 1 -10.0418 -7.85332 -8.95234 20
586 1 10.8302 0.734146 -4.01878 19
587 1 11.028 4.72115 -12.0211 10
588 1 3.13505 -2.46915 -13.6572 20
589 1 7.10657 4.46193 9.29735 12
590 1 3.96037 -9.14849 -11.6862 16
591 1 -0.470979 3.77641 -20.4896 11
592 1 0.72942 9.76961 2.08093 23
593 1 -13.9593 0.247831 3.8413 18
594 1 7.66081 1.5657 10.3467 11
595 1 5.61423 0.784409 -8.05921 21
596 1 14.1513 -2.16873 -1.76176 14
597 1 10.0891 3.50668 -15.169 12
598 1 4.00379 6.10725 8.68291 15
599 1 10.1672 -1.07671 5.99097 14
600 1 -0.383122 -4.40399 3.95029 20
601 1 6.60901 6.22772 -7.9024 22
602 1 -0.543406 0.712513 4.82442 18
603 1 0.683964 1.59928 13.1266 17
604 1 10.8438 0.987081 -7.31933 18
605 1 3.49888 2.36039 5.33895 19
606 1 -13.9864 1.36703 -8.29203 22
607 1 6.3406 6.01283 1.42505 19
608 1 7.55718 -6.68012 -0.830631 21
609 1 -9.24195 -5.6907 -5.1962 19
610 1 -16.381 10.3015 5.60025 11
611 1 -0.0746407 7.93926 11.3336 17
612 1 8.47374 0.546562 3.62122 17
613 1 -0.979405 8.87352 4.01427 21
614 1 -4.11436 15.2532 11.3985 10
615 1 -3.25801 -1.0668 4.41587 19
616 1 -4.23939 -16.5963 -2.27901 14
617 1 -10.1279 15.8329 -8.47741 13
618 1 7.22376 10.2132 -15.0707 9
619 1 6.56501 -1.91708 -12.5644 23
620 1 -2.80921 9.7825 1.86133 23
621 1 -4.55192 -8.72461 -3.49824 21
622 1 3.18909 -7.37977 -18.5062 12
623 1 -19.3834 3.44425 1.68871 17
624 1 -3.12308 9.52576 -14.9106 17
625 1 -5.79678 -14.8432 4.02598 18
626 1 -10.6076 -2.56469 -10.5064 18
627 1 -18.742 1.47181 -2.37259 19
628 1 7.20316 -7.48899 -3.68679 20
629 1 9.30386 8.79961 -4.77234 16
630 1 1.84777 -9.20769 5.10247 20
631 1 -18.5387 -1.13871 -12.4024 10
632 1 -1.35664 -2.26487 -20.2738 16
633 1 0.495026 -6.06682 15.9692 11
634 1 -9.36908 10.5083 13.6494 12
635 1 2.28408 4.79812 -17.1108 20
636 1 6.31032 4.10225 6.56762 18
637 1 5.59258 4.91075 -14.817 20
638 1 10.9879 11.481 -0.0393487 11
639 1 -7.8712 -7.6555 -6.94294 20
640 1 -10.9654 -2.02264 10.9036 16
641 1 8.25975 -2.24683 8.04593 12
642 1 -8.09311 14.2259 7.95852 13
643 1 1.95638 7.69527 -16.4222 14
644 1 -10.9789 8.95126 -7.24094 19
645 1 8.22843 9.86527 -0.396304 18
646 1 -13.7616 -9.76678 1.81025 18
647 1 15.69 -0.780818 -4.68825 7
648 1 6.23259 12.8964 -3.06017 16
649 1 -6.94901 9.17714 10.3779 20
650 1 -15.982 -0.702748 -0.793008 20
651 1 -13.3113 -1.67008 -10.7049 22
652 1 7.61128 -3.23461 10.8446 13
653 1 -3.18072 -9.84418 10.8468 16
654 1 2.35586 2.6188 10.3536 13
655 1 -6.48004 10.0414 -7.38529 15
656 1 4.93434 10.5408 -2.08655 16
657 1 10.2689 -8.6301 -2.03589 13
658 1 -3.40582 1.10956 2.16301 20
659 1 -7.92466 -3.61824 -16.0029 17
660 1 -13.1199 -2.55345 4.72844 20
661 1 2.44984 1.03014 -17.1004 21
662 1 -10.4996 -8.99584 -5.96791 21
663 1 9.28644 -10.341 -11.8959 9
664 1 -0.861379 5.55815 4.93993 18
665 1 -1.63937 6.36021 2.18049 20
666 1 -9.47812 -3.1596 14.6032 15
667 1 9.70262 10.0823 2.98956 17
668 1 -7.02594 -2.8311 15.8028 10
669 1 -2.09345 4.1963 13.6547 19
670 1 -3.28073 -6.31868 -12.1843 18
671 1 -11.5556 2.10923 6.15922 20
672 1 -4.09625 6.23241 5.61236 21
673 1 -10.9733 -13.5547 3.36981 10
674 1 8.74825 3.09078 -6.1591 14
675 1 4.40861 -11.3528 0.68738 15
676 1 -6.51361 2.46575 -7.21143 18
677 1 7.37034 11.6519 -11.9185 11
678 1 12.494 8.32069 1.38572 9
679 1 -2.72445 1.33558 -17.2261 20
680 1 -6.62508 -3.59929 7.33672 19
681 1 2.58299 9.40547 -5.28912 17
682 1 10.675 9.02864 -1.46857 16
683 1 -5.34735 -12.6852 0.783664 23
684 1 -3.03457 1.40144 -21.4479 10
685 1 -18.6933 12.1341 -0.556369 9
686 1 7.17091 -10.2336 -12.3996 14
687 1 1.69186 5.32237 3.37666 19
688 1 8.63399 6.73971 -15.5573 11
689 1 9.2159 10.7454 -9.64641 11
690 1 -6.98776 4.9259 5.40571 21
691 1 -11.7682 15.2399 0.186778 8
692 1 5.36011 4.47612 -0.987408 21
693 1 1.46411 -3.67 14.1028 20
694 1 -0.83635 -1.43039 13.5936 22
695 1 -1.06045 -9.36937 13.2475 13
696 1 -12.8006 7.00153 -14.8322 8
697 1 -0.0513888 14.9783 8.71489 8
698 1 2.88791 -5.02281 -15.2815 21
699 1 -1.78906 -0.746838 7.2532 19
700 1 1.12433 12.6149 -7.45803 16
701 1 2.3317 7.77626 2.45614 24
702 1 11.9755 -4.85929 -6.26734 14
703 1 -3.42947 6.68972 14.9862 15
704 1 -15.6187 -5.19326 5.17205 23
705 1 -0.2699 -13.1175 -2.52227 19
706 1 -2.89084 -5.6506 -7.95318 21
707 1 -12.6413 8.21133 1.00867 16
708 1 -4.07709 3.9257 3.72428 24
709 1 3.31055 -3.76257 -4.91193 18
710 1 0.931851 4.36619 1.11246 23
711 1 -15.2893 -1.96625 6.12348 18
712 1 -8.94421 2.43091 14.624 15
713 1 -10.7421 4.99214 -13.6495 15
714 1 -11.3595 3.82387 -10.9425 17
715 1 -0.435135 -12.2433 -6.60869 18
716 1 3.72711 9.92259 -15.0327 14
717 1 9.76911 -7.38318 1.46649 12
718 1 -9.1954 4.0718 -2.19458 19
719 1 -18.884 2.16117 8.40326 13
720 1 5.41584 -0.562937 -17.3223 20
721 1 1.88573 -8.78389 13.7238 12
722 1 0.744747 11.0017 -10.1011 13
723 1 -14.5336 1.52297 11.5146 15
724 1 -9.88994 -11.5969 -16.3158 9
725 1 -3.44241 -9.84345 -12.0443 19
726 1 -6.77148 -11.6306 -11.8453 19
727 1 -0.677907 13.0343 -4.99871 20
728 1 5.26796 -5.00566 -7.91959 22
729 1 -7.10392 8.88567 5.0636 17
730 1 4.67095 -11.405 -13.2909 18
731 1 7.48297 -10.283 -1.42627 15
732 1 3.09123 -9.33771 8.44797 21
733 1 7.94961 3.62582 -12.5097 18
734 1 -2.05923 -15.7635 -9.55913 13
735 1 -11.7789 -6.59803 8.49462 16
736 1 1.25625 -0.236646 -14.347 20
737 1 -6.6291 -14.4776 -1.98714 18
738 1 -11.5673 -12.5589 -8.20581 14
739 1 -13.5333 5.08492 7.01252 17
740 1 -9.5046 -14.1599 -0.940898 16
741 1 11.4828 3.41616 -8.49629 14
742 1 -4.64502 16.0241 0.854964 17
743 1 -8.21393 4.25253 2.24553 19
744 1 -15.902 4.72156 1.31429 20
745 1 10.1233 -1.62366 1.58935 17
746 1 -16.012 -2.31917 -12.051 15
747 1 -5.35838 9.86498 -4.54682 18
748 1 4.36111 -0.305482 -11.8884 19
749 1 -1.22708 14.1136 11.3887 11
750 1 7.51738 4.49306 -17.016 15
751 1 -16.701 1.26145 -7.32674 20
752 1 -19.0607 -9.68371 -7.83312 11
753 1 -11.9147 -0.118251 13.7274 14
754 1 0.760905 14.8551 -10.3219 12
755 1 7.90337 9.74531 9.40238 6
756 1 -7.27071 -0.627222 5.3739 17
757 1 -5.89323 -16.2838 -4.89553 10
758 1 -6.67828 -17.9935 3.35542 7
759 1 -10.2177 -4.60199 3.16478 17
760 1 7.90833 6.7773 7.53279 15
761 1 0.209505 -6.6213 -15.2338 18
762 1 -13.8697 8.49835 -1.88602 19
763 1 4.79469 9.13283 0.516584 20
764 1 -13.7414 -7.66196 4.73284 21
765 1 5.2186 7.56038 -16.0997 15
766 1 -3.30658 -15.8051 -6.76478 12
767 1 2.28054 -13.8562 0.386336 14
768 1 -6.35276 -13.0441 -5.13172 17
769 1 3.60065 6.42535 -10.1588 19
770 1 7.20613 13.064 -8.59186 11
771 1 -6.1835 -2.49591 -18.5875 16
772 1 -6.94246 5.30041 9.97662 22
773 1 -3.48633 7.60235 -18.9183 10
774 1 -15.281 0.114246 -14.0322 10
775 1 -16.674 -5.9056 -7.97054 20
776 1 -4.37436 14.3963 -7.782 21
777 1 3.45818 -0.479525 -3.13647 20
778 1 -3.8056 -1.76074 -17.4842 21
779 1 -14.7082 -2.38218 -3.30392 20
780 1 5.88439 9.48656 -4.57002 18
781 1 4.26616 -1.77619 -9.01884 19
782 1 -11.699 5.89158 11.7271 16
783 1 5.49 -4.75737 -2.60173 20
784 1 4.83295 -6.43965 -5.3559 17
785 1 10.9864 -7.67475 4.47378 7
786 1 -2.57499 9.76917 7.56231 20
787 1 -15.0895 6.56271 10.1238 13
788 1 -13.6059 0.0395362 7.46828 18
789 1 -3.47532 -10.8622 2.69592 21
790 1 2.25891 1.32626 2.62188 22
791 1 -0.0872294 6.49252 14.066 17
792 1 -18.8143 -1.37128 3.45038 14
793 1 1.69557 -8.05496 -5.42773 17
794 1 -15.1756 14.6764 -4.88409 12
795 1 -3.45586 6.47626 -0.608234 21
796 1 0.732822 -13.7946 6.49464 11
797 1 2.08929 -3.04855 17.3659 11
798 1 -1.51028 11.9281 3.83499 18
799 1 -1.32544 -9.60952 4.67578 19
800 1 -11.0649 -1.40028 -3.40947 21
801 1 -0.266644 2.1131 9.14596 18
802 1 -21.0454 -3.71208 -5.84404 16
803 1 -5.38874 6.45021 12.3748 21
804 1 1.01039 7.02996 -0.366571 21
805 1 -19.2493 -9.75602 -0.585599 11
806 1 -4.00084 -18.1678 1.11085 9
807 1 6.46141 1.25271 6.23832 17
808 1 0.609376 -7.53868 3.09679 21
809 1 7.39456 12.1231 4.42569 13
810 1 -6.66752 6.93641 -5.33311 18
811 1 -4.26774 -11.3919 -14.4905 19
812 1 -11.1182 -0.340803 -13.0924 18
813 1 -8.33578 2.09398 10.5239 17
814 1 0.31426 15.9718 3.093 10
815 1 13.1045 0.16858 4.49379 10
816 1 3.58559 5.94133 -5.56989 17
817 1 -11.2913 8.4877 14.2463 13
818 1 1.31489 10.3629 5.16404 21
819 1 8.12776 -2.22173 -18.6766 10
820 1 -12.3646 -14.333 -2.02221 10
821 1 -5.98081 -1.02548 -7.22084 18
822 1 12.6459 -3.79888 0.858623 13
823 1 -3.15203 -3.31036 -13.0376 19
824 1 -4.91364 12.2566 10.4343 16
825 1 8.35073 -12.5109 -6.48408 11
826 1 4.77864 5.65128 -18.3899 13
827 1 -6.30213 -9.61505 -1.51208 20
828 1 7.933 3.0448 -9.01529 24
829 1 13.7058 0.501406 -3.21706 13
830 1 0.482368 -3.78306 11.4514 19
831 1 -6.47749 -6.80053 -10.3782 21
832 1 6.82122 6.79971 -4.74751 18
833 1 -5.32529 -6.12983 6.144 19
834 1 -20.0664 8.98989 -0.360354 11
835 1 1.73962 3.03381 -11.139 17
836 1 10.5421 3.1133 0.00164053 12
837 1 0.312016 -5.77364 -20.5696 12
838 1 -10.7837 8.1914 6.60324 18
839 1 7.4471 8.92094 5.20279 16
840 1 10.732 8.14719 -10.453 9
841 1 -0.028708 -0.865121 -17.6842 22
842 1 10.7926 -5.98181 -0.645213 16
843 1 -16.2398 3.75149 -3.55353 16
844 1 7.81352 6.74697 -1.78795 16
845 1 -16.2813 -8.54695 -0.0458415 16
846 1 -14.9417 11.8358 -10.1977 12
847 1 1.88821 4.28946 6.38278 15
848 1 -18.2502 -3.36184 -7.44433 19
849 1 -11.6948 6.1357 4.88453 18
850 1 -1.72705 -0.481013 -12.263 19
851 1 7.2136 -12.2459 -9.70044 11
852 1 -14.1654 -11.1975 -10.3886 11
853 1 9.92386 -8.48291 -5.05667 18
854 1 -15.2191 6.62149 -4.3305 22
855 1 -17.5462 -2.23061 -4.37463 17
856 1 5.12783 8.17427 10.4055 13
857 1 -11.2705 -7.9009 2.95286 22
858 1 -2.69414 6.48477 11.2966 19
859 1 1.62748 -0.545691 15.8754 15
860 1 8.73989 0.256128 -1.82801 20
861 1 -12.9731 5.76418 -0.238244 19
862 1 -4.20587 9.43625 13.878 18
863 1 -0.672952 8.4482 -9.65877 16
864 1 -2.27701 -9.93519 -19.4201 12
865 1 -5.96804 10.6676 2.20216 19
866 1 -8.38896 -6.31782 6.18072 17
867 1 -2.84904 14.9907 -4.97554 19