ITEM: TIMESTEP
26000
ITEM: NUMBER OF ATOMS
2000
ITEM: BOX BOUNDS pp pp pp
-30.0 30.0
-30.0 30.0
-30.0 30.0
ITEM: ATOMS id type x y z Coordination
1 1 -10.7168 3.44825 -12.0133 20
2 1 -2.67842 -9.8963 -10.5549 22
3 1 5.1639 11.8219 11.3305 19
4 1 7.32237 -7.8772 10.2061 16
5 1 -14.1292 9.13726 -7.3239 14
6 1 8.05674 -7.16212 -5.80653 19
7 1 -12.9391 2.3278 -7.38245 21
8 1 7.04995 -3.83072 14.3161 14
9 1 -12.91 1.9185 -14.1973 11
10 1 -12.3858 -6.72491 10.4114 12
11 1 11.6007 1.13782 -7.66897 21
12 1 -4.17284 -12.301 2.56947 21
13 1 -13.7957 -8.08317 2.57705 16
14 1 -3.164 7.51865 16.752 13
15 1 4.48483 -4.51943 5.60049 21
16 1 -0.725604 4.82547 14.2034 22
17 1 -3.01967 9.33721 -10.947 23
18 1 -0.886082 -4.15963 12.5581 22
19 1 -12.7793 -4.07709 -14.0469 12
20 1 -14.0563 -2.11482 10.6303 15
21 1 15.7475 5.85976 10.5218 11
22 1 0.0122858 10.3198 -15.1293 9
23 1 -2.29161 1.86304 -11.009 21
24 1 13.0974 3.97114 11.9652 18
25 1 -10.0238 1.65248 1.18042 19
26 1 -13.054 8.53786 -10.2333 14
27 1 -2.10704 1.52291 -7.67209 22
28 1 -9.71875 7.02074 4.55619 19
29 1 7.95331 -8.89941 6.92642 16
30 1 1.96693 -7.50572 12.5043 19
31 1 3.28575 -12.5046 -9.69865 15
32 1 7.98209 -6.0644 5.02185 21
33 1 -5.43486 -12.95 -3.7476 17
34 1 -15.7249 -7.22558 5.08299 13
35 1 -1.8829 -6.54799 -12.3731 20
36 1 9.70947 -6.80566 -11.0424 16
37 1 -5.53766 4.1556 -13.7776 18
38 1 0.600563 7.8617 12.279 18
39 1 -0.467624 -9.19778 8.79011 21
40 1 7.41608 -4.37071 10.6272 21
41 1 -12.9201 1.30576 2.98697 19
42 1 -17.4958 -1.35671 4.84354 16
43 1 -7.3278 1.9808 -4.05082 21
44 1 -4.02862 12.0935 -1.81899 21
45 1 -1.25612 -11.7604 -8.52987 22
46 1 1.26553 3.24906 -8.12351 21
47 1 3.52492 -4.23304 -7.74416 21
48 1 -2.90987 -1.93451 12.4115 22
49 1 -11.8285 4.04892 4.56979 21
50 1 2.23752 12.0463 -9.2888 22
51 1 -0.324449 7.30021 9.06125 22
52 1 -6.30091 10.217 -5.47936 21
53 1 -1.39352 15.8933 0.573258 21
54 1 4.58225 -11.7285 3.11956 22
55 1 13.9103 -7.36582 -4.57279 12
56 1 6.64104 -6.26556 -16.8869 12
57 1 -10.3647 9.32044 12.1341 16
58 1 -9.38402 -0.647124 -3.77704 21
59 1 7.27485 0.988448 3.3016 19
60 1 -3.62551 9.08274 -3.91539 23
61 1 -6.41577 -8.87599 5.60028 20
62 1 0.273836 13.2645 11.8162 16
63 1 -10.0761 7.74991 -5.10706 20
64 1 -6.58002 10.4152 13.8993 16
65 1 2.13317 9.14651 -4.61397 23
66 1 -0.757142 -14.8082 4.93449 16
67 1 2.38027 3.51435 8.68625 23
68 1 5.64531 -11.0675 -1.96178 18
69 1 4.17407 10.8073 15.3323 18
70 1 -15.3099 6.16871 -9.79615 13
71 1 -11.42 9.99313 -11.8482 11
72 1 7.81253 5.76226 10.9457 22
73 1 15.8285 -0.56575 -7.79853 9
74 1 4.53219 -9.73269 5.2562 22
75 1 -17.289 0.116129 2.1081 13
76 1 6.41478 14.8863 11.4346 12
77 1 -0.208698 -1.05098 14.3029 15
78 1 -3.50582 -10.5621 6.82577 24
79 1 -9.14575 -0.94311 2.89618 19
80 1 10.7326 5.80777 10.0827 18
81 1 7.21682 0.131643 -6.43583 20
82 1 -7.42111 10.227 7.89617 21
83 1 4.3468 1.35808 8.57937 26
84 1 -7.15918 -3.59674 2.72374 21
85 1 -4.17527 -1.55148 -10.7156 23
86 1 -13.7829 8.59863 7.39141 16
87 1 -8.9966 10.0876 -0.419146 21
88 1 -1.2365 7.21692 -7.47344 22
89 1 8.60262 0.703537 -9.33944 21
90 1 7.75064 11.8761 -7.20112 17
91 1 8.1852 -6.74209 -1.36428 20
92 1 4.32867 -6.21505 11.1416 21
93 1 -4.55522 14.6629 0.656848 20
94 1 -9.05641 15.4943 6.84478 9
95 1 -10.5811 -1.95233 15.3112 12
96 1 -4.53794 8.92344 7.14971 21
97 1 -7.05334 -3.90438 12.546 20
98 1 13.8714 -8.71048 -1.86557 9
99 1 -8.98539 3.60624 6.19938 23
100 1 -7.70218 -8.37788 2.51665 19
101 1 16.5237 -6.28043 -2.78275 9
102 1 3.30646 1.24912 -14.4595 21
103 1 -10.1403 -2.87866 -13.1372 24
104 1 -0.501199 13.1099 2.5848 22
105 1 -6.63798 4.63427 -5.92857 19
106 1 -0.208499 5.29476 17.1476 10
107 1 -0.74231 12.885 -3.821 22
108 1 -15.2031 8.76036 -4.20386 9
109 1 2.69532 11.9663 0.553972 21
110 1 -3.22752 -7.41053 8.80881 21
111 1 14.21 2.80155 9.48162 14
112 1 0.631304 -4.89701 -9.35153 19
113 1 1.31299 -7.4546 -7.89265 21
114 1 -0.00119811 4.34538 10.8037 21
115 1 5.55351 -0.802407 15.2973 11
116 1 -12.5862 -5.8857 -2.44827 21
117 1 7.26038 -3.56328 3.59535 20
118 1 -8.1133 -9.24422 -4.47621 20
119 1 10.7104 -6.16979 3.18247 15
120 1 -3.61911 9.32611 2.67497 22
121 1 1.78281 4.41865 -14.3434 14
122 1 4.20002 13.1441 -2.21499 23
123 1 -11.0827 -9.33433 9.84995 15
124 1 -8.06392 -10.7748 8.42232 15
125 1 5.82643 -8.39725 -14.3697 14
126 1 3.99583 4.48524 -6.57308 19
127 1 12.0819 -5.80446 0.388891 14
128 1 -1.04214 -14.9964 7.79991 12
129 1 -8.08673 -8.77084 -0.756816 21
130 1 8.82365 8.26954 9.14805 20
131 1 13.0287 -1.75883 -6.27189 17
132 1 -18.845 -3.98772 2.87595 8
133 1 11.9934 6.75817 1.24716 20
134 1 14.2159 9.50709 2.86001 16
135 1 -11.8664 3.35073 16.7379 10
136 1 10.145 11.3436 -1.48997 21
137 1 -7.27244 12.9594 9.9114 17
138 1 -6.47363 15.6804 -1.82298 14
139 1 -1.46311 -1.02895 -9.29997 20
140 1 10.4237 -7.39505 -8.11995 14
141 1 -1.04281 13.7921 -10.2854 14
142 1 4.28382 -6.23931 14.6171 14
143 1 1.48718 -3.82532 -18.8308 11
144 1 -0.874149 10.1775 -5.90586 22
145 1 11.5957 0.375296 -4.63186 17
146 1 -11.4984 7.31599 -7.52136 17
147 1 -6.98605 12.5288 -0.0335245 19
148 1 4.53089 5.9946 -15.9273 10
149 1 11.3199 -7.71261 6.81017 10
150 1 -5.06522 4.08773 -11.0275 22
151 1 -13.5115 11.826 9.09169 10
152 1 9.59199 6.03933 -5.89039 23
153 1 5.38018 12.695 -4.85422 17
154 1 -3.49055 17.373 5.44282 14
155 1 7.94239 4.26755 1.4962 22
156 1 -3.27022 9.0696 -0.508309 23
157 1 -1.29605 13.2498 -7.3325 18
158 1 4.60022 9.35505 -15.5063 12
159 1 -11.1984 -7.94167 7.27394 17
160 1 -14.8792 5.12823 -3.96184 19
161 1 -10.0722 -1.62125 -10.5451 23
162 1 3.64038 -10.0915 -14.8267 13
163 1 10.0591 11.578 8.21442 20
164 1 0.462294 15.458 8.87122 14
165 1 -12.071 -5.94226 0.912678 19
166 1 -12.3423 9.20225 4.58068 19
167 1 17.0449 2.20758 -6.67782 9
168 1 -13.5345 1.67691 -10.7835 17
169 1 9.94792 -1.50288 14.6547 12
170 1 2.61198 15.3738 7.03813 16
171 1 -5.75797 10.4139 10.721 22
172 1 -1.46449 -8.44744 -15.5337 14
173 1 -10.0686 11.5718 9.27497 16
174 1 -3.47703 14.4539 -3.09452 22
175 1 1.52972 -4.52083 10.8111 19
176 1 -12.5888 -4.47019 6.07588 22
177 1 -1.61053 -12.5541 -12.3081 13
178 1 -6.18867 10.3088 -9.28441 19
179 1 -4.27364 -9.84831 3.88021 23
180 1 0.527135 -10.4127 -2.63482 20
181 1 -3.5493 12.1401 -8.8087 22
182 1 -17.2982 5.09273 4.87007 10
183 1 1.75919 9.58139 -1.09845 20
184 1 7.22064 8.56651 -5.60474 22
185 1 -12.9827 4.44707 14.3464 14
186 1 1.62564 -5.69067 17.1816 8
187 1 -9.19993 4.92161 -0.36185 25
188 1 0.291254 16.6252 2.88421 16
189 1 1.40306 9.23839 7.13372 24
190 1 11.7973 8.6422 10.0987 19
191 1 -6.67053 13.1064 6.094 22
192 1 14.5493 2.0781 -9.48962 12
193 1 -8.75418 12.1228 12.6906 12
194 1 -7.92413 2.20139 -11.1853 20
195 1 12.7351 -3.13524 -0.728516 20
196 1 -6.66202 -3.6487 5.9549 23
197 1 -18.3804 3.23273 2.79161 12
198 1 -11.7707 -10.8043 2.60273 14
199 1 3.71631 8.54143 12.4844 20
200 1 -13.0512 2.03888 -0.536877 20
201 1 -4.57114 -12.7092 -0.671251 23
202 1 8.55971 -11.6655 -4.54742 12
203 1 -0.515147 10.4699 4.27806 19
204 1 -6.79344 1.59247 6.23197 21
205 1 6.87477 12.5137 14.2798 16
206 1 -10.1466 2.06752 -2.22624 21
207 1 -6.0493 13.3008 -4.2008 21
208 1 -15.1152 -5.30278 -4.94659 13
209 1 -9.28849 3.42486 13.2469 21
210 1 1.51461 -10.1764 3.94749 24
211 1 7.58189 -13.8583 2.92933 15
212 1 -15.0114 8.61568 1.82819 14
213 1 14.9054 1.70801 3.91926 13
214 1 5.90227 2.18829 -7.87104 19
215 1 -7.13602 -6.62395 -15.632 12
216 1 1.77301 -2.01649 12.2173 20
217 1 5.04494 -13.5972 0.338758 19
218 1 -0.91875 10.8578 -12.4784 20
219 1 6.0135 -11.0472 -12.3705 11
220 1 5.61524 -4.79252 -13.2269 23
221 1 2.07666 7.3029 -15.6931 11
222 1 -7.7153 -3.41918 -7.50386 19
223 1 -4.36764 17.0125 -4.17065 12
224 1 -12.6021 -11.1618 7.80318 14
225 1 8.3436 14.5206 0.0895617 18
226 1 -12.282 1.93289 12.9523 17
227 1 -9.1626 12.2926 -5.85629 14
228 1 6.68513 2.40813 10.6296 19
229 1 -4.3983 -4.87461 -15.3957 17
230 1 -3.58633 11.9469 -5.42084 23
231 1 -0.561995 7.74551 -14.2758 16
232 1 -5.6313 -9.30957 8.79109 20
233 1 -6.42078 7.49569 9.18702 23
234 1 -6.61133 7.33596 12.503 23
235 1 1.58528 -12.8246 -7.13403 17
236 1 1.51976 -14.0578 -1.74946 21
237 1 11.0605 -8.12608 -1.17655 15
238 1 11.1343 6.29609 16.2095 13
239 1 7.65839 13.3103 -12.2106 7
240 1 -1.04156 13.1989 -0.849022 19
241 1 -16.1455 2.46493 0.553609 17
242 1 -12.1301 10.6827 -4.93089 15
243 1 1.69124 2.86964 13.1226 22
244 1 6.4113 -16.4668 -0.791435 11
245 1 16.1666 -3.1846 -2.12043 16
246 1 1.34628 6.37512 4.00215 20
247 1 -10.3084 9.28349 7.08202 21
248 1 -14.2067 -7.96992 -0.52816 11
249 1 7.5 4.94701 -13.9802 12
250 1 2.74957 -1.8051 8.88611 22
251 1 12.6307 8.31072 -7.12939 13
252 1 -2.37489 -9.0586 -4.00329 20
253 1 -5.03066 1.31977 -9.47732 21
254 1 1.72295 -13.3402 4.48661 19
255 1 11.8258 3.27826 -4.80839 21
256 1 -10.0252 -4.09637 4.53163 20
257 1 2.30239 -15.088 -4.95688 14
258 1 -7.24945 -6.74962 -9.30593 22
259 1 4.40421 10.1098 -3.16335 19
260 1 -1.73554 -0.611426 -15.3986 21
261 1 6.31978 5.47552 16.1019 21
262 1 13.3092 4.53365 3.1541 16
263 1 -6.32071 -6.37809 0.665402 21
264 1 11.6136 -4.39199 -9.91587 11
265 1 -0.376586 -6.81635 3.87581 22
266 1 -12.9684 -1.00343 -9.33532 18
267 1 -9.58214 4.96027 -7.21336 20
268 1 -3.31262 -10.4963 10.3846 16
269 1 6.17363 -1.07835 10.0425 22
270 1 1.68947 -4.30565 7.11123 21
271 1 -4.6991 -4.77045 -12.2697 22
272 1 -0.394457 -6.71372 6.89824 21
273 1 4.32772 9.56665 -10.854 20
274 1 7.90136 10.6511 1.00611 19
275 1 -5.98468 -6.39602 3.82182 23
276 1 2.01283 12.0093 4.78399 20
277 1 -9.20023 0.922261 14.9382 18
278 1 -12.3587 -6.47237 -9.50098 14
279 1 -8.00762 -3.71029 -10.9355 19
280 1 -3.77861 7.0909 -12.5383 18
281 1 -6.34903 -9.66293 -10.8981 19
282 1 -1.56968 -9.07254 2.29499 22
283 1 9.05096 -3.91778 -12.4051 16
284 1 14.739 1.87929 -4.05779 20
285 1 12.1094 2.07891 4.64727 19
286 1 -8.46666 0.830328 11.4567 20
287 1 -5.09663 -9.67756 -2.25167 23
288 1 7.59819 4.24119 18.4628 11
289 1 -3.62934 -13.8284 5.6556 18
290 1 -1.24867 -12.3359 0.550108 20
291 1 -1.0464 17.8178 -3.41458 12
292 1 4.14486 1.11412 -16.9892 9
293 1 -7.16003 -4.11185 -13.984 17
294 1 -12.482 -3.77547 9.17832 17
295 1 1.5793 9.98408 16.189 14
296 1 0.829939 -9.9989 0.589059 21
297 1 -4.49141 -7.60322 -11.0016 20
298 1 -9.05109 7.2851 -9.20686 18
299 1 14.4454 9.32954 0.22419 15
300 1 -11.4011 6.45737 -11.8306 16
301 1 -1.06696 10.2963 -9.01593 23
302 1 -3.79729 -4.23413 7.44986 20
303 1 6.50265 -9.80229 -6.55656 15
304 1 -7.46047 15.4437 1.49492 15
305 1 1.5316 9.4741 2.21438 19
306 1 8.62668 3.34607 8.59815 20
307 1 -12.648 1.24539 6.26258 22
308 1 -5.28374 -1.74094 13.9039 16
309 1 -6.13199 9.94092 4.56731 23
310 1 2.9391 -3.92769 -14.7995 20
311 1 11.9789 13.6111 -3.39881 11
312 1 6.76793 -9.49745 3.35515 22
313 1 -3.30173 0.729714 14.5584 17
314 1 -18.3715 -3.60588 6.20893 10
315 1 -0.270515 -16.2762 -3.16699 15
316 1 -11.854 7.06041 13.4552 15
317 1 -13.4436 9.58719 12.0149 12
318 1 -16.5833 -2.94257 9.05256 11
319 1 -15.8114 -4.0293 4.35268 21
320 1 15.1767 -3.89957 -4.80924 14
321 1 -10.6457 -12.6329 8.98482 9
322 1 7.37694 -1.94302 -8.60686 20
323 1 7.77567 -13.741 -1.90668 14
324 1 3.65497 17.5142 -1.80903 12
325 1 -11.6421 11.0515 -8.20438 14
326 1 11.0202 9.38578 6.89648 18
327 1 -9.66667 1.03912 4.7369 22
328 1 7.14869 -4.86407 -3.43725 20
329 1 -3.02843 11.262 5.41563 20
330 1 -4.07617 6.83921 4.40483 21
331 1 1.89294 -9.48884 7.27872 18
332 1 9.56381 -2.85984 9.56197 19
333 1 -2.99824 6.30233 7.52074 21
334 1 -7.58757 -4.45029 -4.18805 19
335 1 -3.69875 3.76433 15.7663 16
336 1 -0.4119 13.6139 5.9869 18
337 1 8.63527 7.3492 15.0734 22
338 1 -8.61686 13.1341 -2.50972 13
339 1 -3.29121 -2.64879 -17.3033 14
340 1 -6.39201 4.6024 -2.40236 22
341 1 3.59376 -9.68632 -11.2306 21
342 1 -14.4512 3.68837 10.3261 15
343 1 -12.7501 6.85364 2.87476 19
344 1 -7.0916 -0.572675 -9.44603 20
345 1 -5.96941 10.3064 1.07558 20
346 1 6.80843 0.683347 7.50769 20
347 1 -13.0412 -9.8256 5.07298 15
348 1 8.71275 -5.7563 8.16685 20
349 1 -11.4042 -7.43925 12.9971 11
350 1 -12.6497 7.91947 -0.32055 21
351 1 -3.04015 -1.78001 9.18059 18
352 1 0.5699 -13.2642 -10.3868 13
353 1 -10.5749 1.7207 -9.10421 20
354 1 3.31231 -4.67466 -11.1739 22
355 1 1.4542 12.3742 8.46263 22
356 1 -13.2168 -2.98863 -4.16072 24
357 1 6.35839 -7.60481 -11.54 22
358 1 12.9977 4.65143 -11.0632 11
359 1 -2.99092 -9.7122 -7.3994 21
360 1 -9.66461 -7.07193 -7.4468 17
361 1 -3.68216 -7.08077 -1.18133 21
362 1 5.33206 6.05659 19.4264 9
363 1 13.3725 4.14351 -1.98712 22
364 1 -12.0326 4.29442 -9.37842 19
365 1 0.225569 18.1531 -0.200937 13
366 1 -15.0915 -0.535566 -3.70065 19
367 1 -7.14292 7.70555 5.86923 21
368 1 -8.12839 12.7118 3.14612 22
369 1 -5.98289 4.41833 7.59725 23
370 1 11.7583 13.4967 10.2153 11
371 1 9.85727 -1.59319 -7.06314 21
372 1 6.88614 -1.21969 12.8923 18
373 1 5.82052 0.644463 -10.6416 20
374 1 -7.09527 -12.1423 -6.04133 11
375 1 -2.35564 -3.86667 -7.67584 21
376 1 -1.26012 10.3764 7.66329 22
377 1 -7.59444 1.93518 -7.56866 20
378 1 6.81671 -9.01323 -0.241363 19
379 1 10.2264 -0.765463 11.8292 21
380 1 -12.4198 -0.58958 -2.07128 24
381 1 -4.87887 -9.7694 0.906394 23
382 1 -8.69641 -1.97367 12.6083 22
383 1 -3.03691 12.0088 1.46548 20
384 1 -10.6007 -8.70001 0.987258 22
385 1 4.23545 9.34333 18.5358 9
386 1 -9.97213 7.41042 -1.80721 23
387 1 1.66963 9.14782 -7.57106 20
388 1 7.60677 10.3652 5.25838 17
389 1 -13.9522 -8.16109 -3.74019 13
390 1 -1.2032 -7.37535 -9.45652 20
391 1 -15.5837 1.10821 4.64569 21
392 1 -12.3757 5.06984 -5.58407 21
393 1 2.47487 -7.01449 5.3672 21
394 1 -9.58285 -5.96476 -0.957345 23
395 1 8.1406 10.7047 11.6835 21
396 1 10.6207 4.87056 -12.9662 10
397 1 -13.829 7.71914 -12.9254 9
398 1 -5.51733 14.4166 -9.8171 8
399 1 -9.19924 4.8331 -3.85436 24
400 1 0.00385796 -15.0781 1.86886 17
401 1 14.2959 3.74205 6.63804 15
402 1 2.35742 10.0297 -13.545 19
403 1 -3.64529 0.720022 7.77531 21
404 1 -14.8738 4.78693 -0.779979 19
405 1 -6.22799 4.79006 4.39859 21
406 1 -6.19007 -11.8751 6.11039 18
407 1 0.937793 -4.83069 -6.3284 20
408 1 8.55828 -9.81709 -10.0456 11
409 1 -14.5632 3.98121 2.86053 24
410 1 -12.6073 1.69524 9.80829 18
411 1 -9.17208 11.4267 5.7081 20
412 1 -0.620891 -6.89585 14.1723 16
413 1 -10.0136 1.53083 -15.2752 15
414 1 7.39187 -7.73969 -8.41353 21
415 1 0.0084036 -9.65838 -12.742 20
416 1 -6.20112 0.839453 16.1386 15
417 1 1.759 -7.1357 -1.28812 21
418 1 -7.09691 1.63356 -14.3815 18
419 1 10.0934 -9.05786 4.48755 16
420 1 1.35613 12.2159 -2.73435 22
421 1 -14.2643 11.0628 5.74978 10
422 1 -9.10379 1.31422 17.8832 10
423 1 -15.9262 -2.97041 -5.58304 12
424 1 -11.3569 -0.713985 11.181 21
425 1 9.98848 -3.95764 12.6983 12
426 1 9.11391 0.444464 8.85737 20
427 1 3.40002 0.624418 -8.31699 21
428 1 9.96782 -3.62075 6.21329 21
429 1 12.3714 6.2158 -4.62534 17
430 1 -2.82912 4.04629 9.29195 21
431 1 0.224034 15.4574 -2.74368 21
432 1 5.75726 -7.03177 7.25221 20
433 1 -3.27785 -13.1545 -6.13472 18
434 1 -9.12697 4.91936 18.1499 9
435 1 -4.07692 14.6388 10.1288 16
436 1 -9.73066 -6.57401 -4.18472 20
437 1 5.30058 15.4531 -0.236264 21
438 1 4.56952 6.10537 5.15043 19
439 1 -8.80869 -1.80453 9.41638 21
440 1 -9.25144 -5.86977 2.22345 22
441 1 -18.0534 1.75867 5.95661 12
442 1 -7.03016 -6.49362 -6.10444 21
443 1 -4.36704 11.8772 8.29066 21
444 1 -5.29899 -9.93709 -5.71863 24
445 1 -3.25522 -10.6093 -13.5856 13
446 1 -6.2631 -13.6563 3.55587 17
447 1 -5.97931 -1.01946 7.77216 22
448 1 10.8076 6.3832 7.38834 19
449 1 -7.51657 -3.79441 15.6176 12
450 1 -8.79598 9.66187 -6.93772 20
451 1 6.27376 7.34242 0.464791 19
452 1 -2.12277 -12.1182 -2.74341 19
453 1 1.74413 6.36658 -6.06914 25
454 1 -1.50974 18.0991 3.18691 14
455 1 -1.01148 7.3533 -10.9409 21
456 1 -3.86591 8.88077 13.2047 21
457 1 -15.1947 -0.625975 -0.209985 19
458 1 -3.17515 17.2958 -1.20547 16
459 1 5.13276 6.40737 -10.3593 19
460 1 -6.85976 -6.93834 -12.4741 23
461 1 5.08302 2.25508 16.1075 17
462 1 4.75866 -12.0492 -6.34055 13
463 1 -4.6527 -1.89203 -14.5422 21
464 1 7.13351 -11.6494 5.0332 17
465 1 -12.1815 10.357 -2.05786 14
466 1 -0.998236 7.82899 15.1743 17
467 1 13.2786 11.4097 -1.70588 19
468 1 3.75275 7.40498 -1.29239 19
469 1 -6.0031 7.71 -10.3536 23
470 1 1.40917 6.49344 -9.07687 22
471 1 2.25483 -6.98505 1.89824 23
472 1 -13.194 -3.71003 -0.587289 19
473 1 5.13386 13.8704 8.48863 19
474 1 -8.39908 5.50209 -11.7727 20
475 1 14.617 -0.657162 0.0983912 17
476 1 4.12466 12.6321 -7.78915 18
477 1 6.84674 -4.10304 0.292434 21
478 1 16.586 0.439423 -1.73126 13
479 1 -0.451081 1.92578 -13.7017 20
480 1 3.91907 -12.2928 6.67828 15
481 1 -1.27305 -9.46925 5.54056 20
482 1 2.4859 -9.44462 10.73 15
483 1 -6.90901 4.68679 -9.16396 18
484 1 -11.8198 -12.8118 5.47173 12
485 1 -5.19956 -11.9993 -8.79247 18
486 1 7.39898 13.0195 6.71046 18
487 1 4.00258 -1.8174 -12.8305 23
488 1 -0.973791 1.91542 15.4979 16
489 1 -15.5077 6.20852 9.17221 11
490 1 0.37945 -17.2356 -0.479232 14
491 1 -13.1648 -4.32598 2.97519 19
492 1 12.8105 -4.23922 -3.71547 20
493 1 7.49758 -1.82771 -4.37662 19
494 1 -4.12096 6.60463 -2.28057 22
495 1 -1.51184 -6.92379 -6.2198 19
496 1 2.59231 6.6259 -11.7755 19
497 1 8.96318 -4.62924 -8.24734 21
498 1 -7.6964 3.50002 16.2857 16
499 1 2.72685 14.3407 2.5752 23
500 1 -7.83093 -1.07554 -15.5803 15
501 1 3.17668 -1.44947 -18.9736 10
502 1 -6.5928 -3.71774 9.45126 19
503 1 -2.48874 15.1903 3.39508 23
504 1 -11.9302 -7.15293 -12.7191 11
505 1 -14.6943 -1.54165 3.1268 22
506 1 0.935211 -6.55503 -17.4441 13
507 1 -8.67148 -7.95308 12.454 14
508 1 1.05477 12.2295 -6.23527 22
509 1 11.2176 2.63385 7.85463 22
510 1 14.6749 2.41684 0.716116 17
511 1 -9.65608 -10.9904 0.103305 15
512 1 -2.06932 -9.22664 -1.04066 24
513 1 -1.32723 -5.186 -16.8664 13
514 1 -11.391 13.0093 6.86821 15
515 1 4.57954 -6.71303 -6.0638 20
516 1 10.4584 -2.03023 -2.91099 22
517 1 1.69881 15.0818 -8.26024 12
518 1 5.10408 -7.07869 0.239009 20
519 1 12.698 5.1429 -7.77284 15
520 1 3.40984 4.72233 14.997 19
521 1 -8.80849 3.48398 9.55696 22
522 1 5.97818 8.0114 10.0883 24
523 1 8.04923 1.13629 16.7126 10
524 1 -3.30964 2.61153 -15.1713 16
525 1 -5.01 -4.46333 -6.10774 20
526 1 -0.343134 -0.906379 10.5894 21
527 1 7.11467 11.2239 8.86603 21
528 1 8.70413 7.51965 -12.1923 15
529 1 -6.51527 7.81679 -7.41306 21
530 1 -4.51499 17.2135 2.12507 14
531 1 7.53965 -6.30794 13.1088 14
532 1 9.11819 1.79317 -12.1593 17
533 1 9.45427 -9.09047 1.43573 18
534 1 10.4914 9.1898 17.3554 10
535 1 -16.0495 -3.31709 1.18584 17
536 1 -6.31945 12.7753 -7.46573 18
537 1 -0.768491 1.73606 8.84655 22
538 1 -17.9047 -0.293048 8.11653 9
539 1 -4.26095 14.7456 -6.712 16
540 1 3.36493 -9.42822 -4.78561 20
541 1 4.34126 -1.90086 -9.64713 22
542 1 -6.53518 15.6857 4.50124 17
543 1 -10.1739 -5.07836 -15.0945 13
544 1 5.58459 -16.2497 2.50092 10
545 1 -6.89916 -7.1109 -2.65666 21
546 1 1.55094 13.0582 -13.0121 12
547 1 -4.01518 3.83514 -7.66244 20
548 1 -3.43973 11.3071 14.6774 15
549 1 -9.83902 -9.59545 4.27847 19
550 1 4.5121 4.43138 -2.89353 22
551 1 1.37695 -7.47962 -4.44827 21
552 1 5.07915 -8.73025 12.3188 13
553 1 7.77764 3.73287 -1.6184 20
554 1 -9.82553 7.69414 1.41712 22
555 1 3.72549 4.37979 18.0219 13
556 1 7.73599 17.0433 -1.16094 8
557 1 10.0364 -6.77944 -3.50063 19
558 1 2.83986 7.39265 9.72023 21
559 1 2.70145 0.583119 -11.8473 22
560 1 -6.1386 -9.95842 11.6916 11
561 1 -0.840043 4.37546 -6.04957 25
562 1 5.18087 -3.70869 -17.1272 14
563 1 3.94185 13.8645 13.4779 14
564 1 10.0182 3.96874 -9.69555 23
565 1 -7.11648 -1.34651 -12.51 21
566 1 -7.21985 -11.6193 -2.34403 17
567 1 -11.3429 -1.32969 -15.4449 15
568 1 9.24324 0.459524 -1.53764 18
569 1 14.6709 5.94909 0.333681 15
570 1 4.28613 -7.20308 -9.45496 19
571 1 11.8149 8.26794 13.9631 16
572 1 6.36904 -4.0534 -6.54889 22
573 1 -0.217193 -1.06539 -18.2239 15
574 1 4.21807 11.7115 7.12277 22
575 1 -9.12427 4.16359 3.18013 18
576 1 9.58815 10.6989 14.3373 18
577 1 10.5806 5.56067 -2.58778 19
578 1 12.9267 -0.338259 2.29648 18
579 1 6.11675 7.63795 -13.2781 20
580 1 8.57576 7.47176 18.3838 12
581 1 14.5252 6.12895 13.6669 9
582 1 -3.85174 -4.44286 10.907 21
583 1 8.41969 11.3631 -4.05604 19
584 1 -0.986396 1.55955 12.3655 23
585 1 16.984 -1.08702 -4.6994 12
586 1 13.5215 5.7642 8.5782 18
587 1 -9.77401 -0.810869 -7.34975 21
588 1 16.1686 10.405 -2.1231 9
589 1 10.1621 -0.704085 4.04458 20
590 1 -11.2923 8.09267 9.58274 19
591 1 9.18838 13.3853 12.4806 13
592 1 10.5036 4.97581 13.5183 21
593 1 8.6124 7.7924 5.50834 17
594 1 -1.85563 12.9532 9.1254 19
595 1 5.03557 4.82601 9.57666 24
596 1 -3.0432 -16.9986 -0.227592 10
597 1 -6.09836 9.97757 -2.10903 20
598 1 9.52322 8.88909 -8.12964 15
599 1 12.9355 -1.20104 -9.0525 13
600 1 1.83322 14.4331 -0.0794763 21
601 1 0.727648 -10.0022 -9.58836 21
602 1 8.40397 -3.39878 -15.6423 13
603 1 -14.6384 4.41566 6.52306 17
604 1 -3.50917 6.56588 -9.13107 22
605 1 -5.75002 -15.3909 0.923237 13
606 1 -9.88104 0.702294 -12.6191 22
607 1 -11.942 4.87829 -2.24267 21
608 1 7.16375 -2.93985 7.53597 22
609 1 12.8555 12.5245 3.2823 14
610 1 2.53411 -6.9633 8.81241 21
611 1 -10.3268 2.30962 -5.80379 21
612 1 -2.08406 1.66645 -17.5809 12
613 1 -3.82604 6.427 13.8158 22
614 1 7.44979 10.4022 -14.2293 10
615 1 12.3156 1.00614 12.404 15
616 1 9.19756 2.8682 -6.87588 19
617 1 11.8159 7.59899 3.85112 18
618 1 3.53331 -9.51294 -7.82482 22
619 1 -13.3404 -1.46993 13.5499 11
620 1 14.9259 0.338388 6.98165 14
621 1 -2.26479 13.7121 13.2294 12
622 1 5.81909 12.0291 -9.8712 16
623 1 -15.7933 6.3984 -6.36614 13
624 1 8.05527 4.49879 5.06574 20
625 1 -7.13176 -12.7739 0.699325 18
626 1 14.5641 -1.56078 4.82373 11
627 1 4.78459 14.2665 5.18764 18
628 1 -4.16593 6.53511 10.5613 21
629 1 -11.7756 -1.52516 4.6386 25
630 1 -14.9177 -9.96123e-04 -6.81873 14
631 1 6.77867 3.29688 13.525 19
632 1 -3.28351 -5.04442 14.2873 16
633 1 5.68191 6.2109 12.8631 22
634 1 -5.13078 12.6458 3.31011 22
635 1 9.46071 1.88637 5.66096 21
636 1 5.61173 3.55484 6.73954 21
637 1 -1.57984 -3.46587 -13.7831 21
638 1 -8.79415 -1.87927 6.03281 22
639 1 6.1018 1.99161 -13.5207 14
640 1 -5.33815 -4.3524 -9.21623 20
641 1 11.373 -9.75116 -3.71318 14
642 1 7.1295 6.02705 7.27567 20
643 1 5.5115 3.41938 3.26765 18
644 1 -12.0138 1.10713 15.371 14
645 1 14.6237 10.4448 5.78864 12
646 1 -0.540034 -3.94591 15.7304 12
647 1 -1.75837 6.17962 12.0753 18
648 1 0.249872 -6.15868 -14.4471 18
649 1 -8.70652 6.23959 7.94188 21
650 1 4.53871 0.426923 12.3924 22
651 1 -8.93187 -13.5139 6.24293 12
652 1 13.2688 10.904 -4.96831 9
653 1 0.0356633 -9.83964 -6.264 20
654 1 -3.72694 6.36452 -5.67273 23
655 1 5.10553 9.95895 -0.0998009 23
656 1 5.06717 8.64516 7.27496 23
657 1 0.964644 -1.34436 -14.2199 20
658 1 5.67998 12.7327 0.95568 23
659 1 9.04196 6.50789 -0.439142 20
660 1 -7.39702 -10.8413 3.12639 21
661 1 4.07264 -5.36925 -19.2367 8
662 1 -12.0608 10.1661 1.58259 18
663 1 6.32839 -4.52382 -9.96882 20
664 1 8.73438 7.31948 2.72427 19
665 1 13.8611 8.5812 -3.94427 16
666 1 6.82336 12.2585 -1.86589 21
667 1 -6.81739 7.81963 2.67656 23
668 1 8.05673 9.21455 -2.18626 21
669 1 12.8231 3.30592 14.9415 11
670 1 9.88531 1.63966 13.9956 17
671 1 -0.54833 -9.52901 12.1389 14
672 1 -6.45504 7.13882 -13.908 11
673 1 3.74242 10.2932 9.75825 23
674 1 8.46592 -6.41305 -13.9569 14
675 1 1.80122 1.11544 10.578 22
676 1 3.16805 17.0234 1.22318 13
677 1 10.2286 11.4255 4.811 15
678 1 9.59216 -4.02448 -4.91439 20
679 1 2.11833 7.27847 18.2444 11
680 1 -11.4849 -1.74354 7.89442 22
681 1 3.41877 -9.83975 -1.18935 21
682 1 1.33366 -1.85879 -11.2793 19
683 1 -10.0389 12.9764 1.00146 15
684 1 -0.432217 4.55424 7.42907 23
685 1 7.69155 -2.11692 -1.46019 20
686 1 4.34771 11.377 3.324 21
687 1 -11.3735 -7.1257 3.84309 20
688 1 -6.54931 6.67114 15.8935 16
689 1 -8.43859 4.6382 -14.6585 12
690 1 -8.55599 8.52744 -11.6551 14
691 1 3.69189 -9.79106 1.51878 21
692 1 6.80501 3.77124 -11.1766 19
693 1 4.84474 -7.38851 3.78035 20
694 1 -1.21733 7.52871 2.51087 23
695 1 -12.1545 5.13872 11.1505 17
696 1 6.44322 -0.659471 -14.8454 17
697 1 0.217038 -11.951 6.56028 21
698 1 3.39254 16.9802 3.9957 12
699 1 -6.31732 4.44164 13.8936 19
700 1 -10.7309 -10.2017 -13.7245 6
701 1 -7.21222 -9.82209 -13.9704 12
702 1 -6.93774 -9.2863 -7.84016 18
703 1 -1.17223 16.016 -5.32765 16
704 1 1.4572 -2.1947 -8.04006 24
705 1 2.42583 6.00489 7.1547 21
706 1 1.22164 -7.46716 -11.5289 18
707 1 7.18399 -11.8521 0.908645 23
708 1 -0.992307 -4.04939 8.95034 19
709 1 14.0953 2.92446 -6.49279 15
710 1 2.64525 -12.3314 -3.92926 19
711 1 -15.0987 -4.51945 7.52485 14
712 1 -3.0416 -15.3436 -3.65917 14
713 1 -11.2724 -8.88089 -5.46179 13
714 1 -14.3109 -1.59984 6.21773 22
715 1 -2.93172 -14.3989 2.3624 19
716 1 15.4993 7.09913 -2.0145 14
717 1 -3.7199 14.394 6.56337 22
718 1 -9.65712 0.735226 8.05358 22
719 1 -14.869 7.09832 4.65849 17
720 1 8.09096 -1.07254 1.78467 22
721 1 -12.9226 -3.69003 -11.2236 17
722 1 -1.46285 10.2727 -2.28988 21
723 1 4.42357 4.5569 -12.8588 18
724 1 7.01885 9.73293 16.4384 16
725 1 6.86816 3.42088 -5.12326 22
726 1 -12.3566 -0.483452 -5.75975 24
727 1 -13.4543 -3.25916 -7.44087 18
728 1 2.28046 10.9653 13.0604 20
729 1 3.97877 13.801 -11.3308 10
730 1 9.77563 12.3565 1.74913 15
731 1 -3.69599 1.19559 10.7097 20
732 1 -1.42136 -14.5612 -0.655247 19
733 1 -4.07822 -13.5185 8.52637 10
734 1 -1.21401 -6.68271 10.5945 21
735 1 11.9326 10.9717 12.0901 17
736 1 3.45783 -6.60262 -16.1538 17
737 1 -6.9543 7.4348 -0.3821 21
738 1 10.1476 1.63278 1.87997 22
739 1 -9.49619 -4.26335 7.61861 18
740 1 8.0027 9.8193 -10.7039 14
741 1 -0.9622 -15.1088 -6.53205 13
742 1 3.24814 -16.3107 0.462509 17
743 1 2.11717 -12.8284 0.844853 20
744 1 3.87798 3.19008 -9.9779 21
745 1 6.27747 16.0843 2.35527 14
746 1 -4.83324 0.261366 -16.4529 14
747 1 -3.39567 3.84529 12.484 23
748 1 -0.672715 4.43869 -15.9378 12
749 1 -15.2052 3.97222 -7.97891 13
750 1 -10.5259 -3.2593 -2.23486 23
751 1 2.1888 17.2368 -5.03542 11
752 1 6.37393 1.28527 -2.90849 22
753 1 -4.82536 -7.89567 -14.5136 14
754 1 -7.7326 -3.70969 -0.75104 21
755 1 7.93406 6.72803 -9.06131 21
756 1 9.85219 -3.71882 2.14792 18
757 1 -11.8019 3.8359 8.0108 20
758 1 4.87079 -9.55882 8.81685 14
759 1 13.7882 -3.24885 1.67944 15
760 1 13.616 -2.34509 7.78457 12
761 1 -3.08118 9.17388 9.6426 21
762 1 -15.8563 0.154545 10.7446 11
763 1 -9.59881 5.4766 15.2914 16
764 1 -1.20777 -11.8739 9.42742 14
765 1 7.79215 -6.36148 1.93687 21
766 1 9.64972 7.84897 12.5853 21
767 1 -12.1835 -0.613124 1.15975 20
768 1 7.95144 -8.98084 -3.04466 20
769 1 -9.28077 10.0805 -3.54638 19
770 1 4.15267 6.77214 2.03559 20
771 1 9.33776 -14.4274 0.459983 10
772 1 1.71338 3.14117 16.3266 13
773 1 0.362071 10.1831 10.3411 24
774 1 4.67185 -15.2021 4.7353 13
775 1 -9.2777 -0.799056 -0.605475 20
776 1 2.59385 0.407514 14.6103 14
777 1 -13.962 -8.50044 -7.00882 9
778 1 0.758143 12.9034 14.9512 11
779 1 7.1646 12.8248 3.38792 17
780 1 -14.232 -8.06623 8.01518 11
781 1 2.13182 -14.369 6.98943 12
782 1 7.87732 -1.11479 5.25337 20
783 1 12.3915 -2.40545 10.9002 12
784 1 6.02014 8.77601 3.13168 18
785 1 -0.969934 7.4076 -4.39421 21
786 1 -2.29664 -4.0606 -10.7699 19
787 1 0.54165 0.657045 -9.68504 20
788 1 -6.10586 1.51752 12.9041 21
789 1 -0.380704 16.6731 6.25231 13
790 1 12.1265 0.899566 -0.933106 18
791 1 6.81375 6.06012 -6.69096 19
792 1 -8.71984 8.65286 14.1625 17
793 1 6.48257 9.14587 13.3183 22
794 1 9.4321 -0.462778 -13.335 13
795 1 -5.78097 -15.4682 -1.87596 11
796 1 -6.70873 -0.951681 -5.58796 23
797 1 12.4633 -3.68677 4.52644 15
798 1 6.9761 -2.1195 -11.9047 20
799 1 -0.829119 10.6202 13.8058 19
800 1 11.1476 -10.7554 -6.76064 6
801 1 5.01821 12.2331 -13.6403 13
802 1 -4.3084 -7.08398 -7.71775 22
803 1 11.2948 7.24891 -10.0898 13
804 1 10.9707 -1.56831 0.56662 25
805 1 1.73352 -4.59359 13.7542 19
806 1 -5.34062 -12.5052 -11.8659 12
807 1 11.2459 9.75612 1.21472 19
808 1 -3.27668 -6.99863 1.96888 22
809 1 -11.3446 6.63878 6.58644 20
810 1 14.9315 4.94027 -4.34108 15
811 1 13.6778 7.42388 5.92542 15
812 1 3.44198 -7.04209 -13.357 19
813 1 -8.23185 8.93404 10.6182 22
814 1 14.2631 8.54313 11.9803 13
815 1 8.50682 14.4025 -3.50899 15
816 1 0.659905 1.60937 -16.4537 17
817 1 9.88639 -4.24507 -1.24426 20
818 1 -11.7445 4.67612 1.14457 20
819 1 14.9813 12.3661 0.812487 11
820 1 -15.897 -3.11439 -2.20328 14
821 1 -8.54837 11.1781 -10.1005 12
822 1 4.13045 3.16434 11.9397 20
823 1 -10.7721 -3.83595 -9.01614 20
824 1 -15.717 2.09104 7.97208 13
825 1 -1.09582 4.39063 -9.31326 21
826 1 11.6261 -4.72427 -6.57513 12
827 1 -12.3892 -6.06398 -6.05864 20
828 1 14.3895 -5.93964 -0.972236 15
829 1 -16.6793 5.85581 1.43089 14
830 1 -10.5962 -3.14043 -5.48164 22
831 1 12.6102 12.6517 6.75566 13
832 1 -6.51152 -6.51015 10.7254 23
833 1 9.05091 3.85003 15.8102 19
834 1 11.0482 -0.55409 6.95941 21
835 1 4.88989 -1.50437 7.06549 20
836 1 -15.497 7.70665 -1.49009 13
837 1 -2.57542 11.6322 11.4148 22
838 1 6.30644 9.25361 -8.39681 20
839 1 0.708388 -11.4349 -15.3529 8
840 1 -6.02727 16.4316 7.6056 12
841 1 -8.42558 -7.71569 8.89456 20
842 1 4.3113 10.147 -6.47338 21
843 1 2.69323 5.45676 11.7887 20
844 1 14.1339 -1.17889 -2.88929 21
845 1 12.0451 -4.89075 7.95498 12
846 1 -3.31456 12.1073 -11.7815 13
847 1 0.964906 9.28615 -10.8284 19
848 1 -5.79003 -0.879422 10.9882 21
849 1 15.4282 8.5249 8.65005 13
850 1 -4.37608 -1.65117 -7.49994 21
851 1 12.0731 13.6397 0.0428936 15
852 1 -13.1559 1.96568 -3.92141 22
853 1 -3.60483 -7.65092 12.135 19
854 1 2.75101 13.8762 -5.20663 18
855 1 4.97959 -4.61045 8.69237 23
856 1 -0.262435 -12.6633 -4.77234 21
857 1 -9.75063 14.6411 3.85202 15
858 1 -15.8324 1.88568 -2.16904 14
859 1 10.1478 -1.2143 -10.4487 19
860 1 2.37318 -12.3162 -12.9276 13
861 1 -9.48257 9.81671 3.35269 22
862 1 10.7792 12.8372 -5.79726 9
863 1 -6.62809 1.92785 9.35144 22
864 1 3.39681 -1.41514 -15.831 20
865 1 -9.17377 -8.71238 -11.6842 14
866 1 -4.06695 -6.50199 -4.20715 22
867 1 -5.52896 13.2908 12.5701 15
868 1 9.30741 -10.9397 -1.19158 17
869 1 -3.42606 9.24988 -14.2819 12
870 1 16.3613 3.69421 -1.46677 12
871 1 11.0248 3.86756 0.225397 19
872 1 3.3222 -17.0391 -2.79784 12
873 1 0.0626098 -3.27986 -16.2677 22
874 1 7.22792 6.18453 -3.24382 19