ITEM: TIMESTEP
7000
ITEM: NUMBER OF ATOMS
2000
ITEM: BOX BOUNDS pp pp pp
-30.0 30.0
-30.0 30.0
-30.0 30.0
ITEM: ATOMS id type x y z Coordination
1 1 -11.2094 4.11709 -13.2113 9
2 1 -6.54114 -5.68475 -11.9307 22
3 1 3.6701 11.9558 13.7114 13
4 1 9.33911 -11.4363 5.46879 11
5 1 -8.82233 8.7085 0.529938 17
6 1 12.1455 -6.47832 -8.60549 12
7 1 -9.79382 0.144109 -5.48436 16
8 1 3.69814 -8.15121 11.9504 11
9 1 -9.39489 -0.929252 -12.6391 19
10 1 -17.1293 -11.9192 6.31749 7
11 1 12.7702 2.21971 -7.10458 13
12 1 -4.17171 0.117552 -5.6883 18
13 1 -3.17295 -11.8317 0.52023 21
14 1 -12.3027 -6.48497 5.88982 15
15 1 5.12886 3.27398 16.137 16
16 1 5.97993 -2.17179 7.14703 18
17 1 1.84879 2.6275 12.9908 19
18 1 5.3396 -1.79597 3.94896 21
19 1 -0.61826 8.84993 -9.63105 21
20 1 2.92024 0.417001 15.2353 14
21 1 -12.2744 -1.85924 -14.8815 12
22 1 -13.8075 -1.72612 12.9209 15
23 1 11.0225 3.78505 7.08034 21
24 1 2.21843 8.98739 -11.0406 19
25 1 2.84473 4.16632 -13.4765 21
26 1 13.1175 1.99723 13.3312 18
27 1 -9.24107 0.556962 3.20642 18
28 1 -12.1552 4.25004 -5.59223 17
29 1 -3.08054 -0.496965 -9.51773 21
30 1 -9.16919 7.03592 9.71251 23
31 1 7.96246 -13.9677 3.91347 10
32 1 2.58652 -1.46836 9.18736 21
33 1 3.01871 -13.607 -10.2302 12
34 1 8.24014 -9.20827 -0.77427 19
35 1 -9.20828 -14.0311 -5.1163 13
36 1 -15.2047 -10.9307 11.473 6
37 1 2.80636 -1.72236 -7.08449 20
38 1 1.84048 -7.03995 -13.3392 21
39 1 10.1336 -9.37359 -10.9494 10
40 1 -1.0267 4.97431 -17.9733 13
41 1 -1.47602 3.95709 17.1718 14
42 1 1.85597 -12.8698 8.65574 13
43 1 8.57289 -5.82209 11.2189 17
44 1 -13.6441 -3.66965 4.14487 17
45 1 -15.6772 -2.37678 7.44865 16
46 1 -9.61511 1.4429 0.324951 21
47 1 -5.89364 13.7943 -0.274584 19
48 1 1.23505 -16.4213 -8.40661 9
49 1 2.3693 1.02147 -12.0665 21
50 1 6.49146 -3.77859 -6.42008 23
51 1 -8.39861 -1.75557 14.0616 19
52 1 -11.5191 3.98848 -2.83626 18
53 1 6.30183 12.1383 -11.808 9
54 1 0.747251 12.9286 8.75355 21
55 1 -10.6543 9.42975 -4.38844 18
56 1 -4.41628 15.4404 1.81405 15
57 1 2.64054 -12.9631 4.51176 19
58 1 5.85053 -7.39314 -9.62003 22
59 1 6.51005 -4.94057 -15.8938 14
60 1 -4.63034 10.4209 10.1443 20
61 1 -13.8753 -4.86445 -11.1148 9
62 1 5.24469 4.26451 4.71147 19
63 1 -8.88842 4.37408 -0.764255 21
64 1 -11.5489 -11.1829 9.10984 21
65 1 -1.08699 11.3049 11.4823 22
66 1 -12.6652 6.78775 -5.30686 14
67 1 -8.35907 10.4503 12.8891 11
68 1 -0.252152 3.95349 -5.76089 20
69 1 1.44226 6.54366 4.88809 16
70 1 -4.75948 -12.4594 6.8337 15
71 1 1.85648 4.5416 8.48498 18
72 1 4.50758 -16.0135 -2.5604 14
73 1 3.12705 10.5282 16.863 12
74 1 -13.9137 0.527421 -9.48486 12
75 1 -11.7452 5.48835 -8.52771 12
76 1 5.52762 7.73968 12.0762 19
77 1 11.1043 -3.02689 -7.92979 20
78 1 9.50777 -11.6083 2.39622 17
79 1 -16.7036 -4.7247 5.2054 14
80 1 -8.51961 -2.50637 1.86057 19
81 1 7.91704 16.398 6.93781 9
82 1 7.83292 -0.486675 11.9682 20
83 1 -8.39883 -11.724 7.17842 21
84 1 -11.7262 -1.42338 -0.139147 22
85 1 9.92423 5.04998 4.21476 20
86 1 7.44135 -3.62595 -3.29366 20
87 1 0.655956 10.0298 9.39762 18
88 1 4.2334 0.950905 5.67874 20
89 1 -6.55863 -4.55484 2.19073 20
90 1 -1.06045 -5.39461 -7.13046 21
91 1 -12.9312 7.56541 5.73971 15
92 1 -7.82807 16.0928 1.65547 14
93 1 -3.79329 8.05987 -11.8429 20
94 1 4.57667 0.969155 -4.23259 22
95 1 5.6893 -1.23153 -5.78791 21
96 1 8.59969 11.4837 -5.30378 13
97 1 10.6539 -3.78903 5.49377 17
98 1 9.07406 -9.71021 8.27841 11
99 1 -7.52214 13.7534 -6.06603 10
100 1 -9.88104 12.1973 6.70828 14
101 1 -5.45836 -3.56985 14.3699 14
102 1 -3.61854 9.21015 6.41536 21
103 1 -6.66578 -5.66938 11.2981 20
104 1 12.9496 -9.2734 -4.49831 13
105 1 -11.9503 3.519 7.87126 20
106 1 -11.2602 -13.8849 1.13245 9
107 1 6.70137 -6.72534 -6.08628 19
108 1 5.23132 1.48451 -10.7974 24
109 1 -6.31733 0.257622 -16.6967 11
110 1 2.22686 3.62753 5.90283 19
111 1 -5.82208 10.9516 1.23404 19
112 1 -7.25589 6.11612 -6.93407 17
113 1 0.86879 9.98247 18.713 8
114 1 -0.882793 10.6819 -6.86765 16
115 1 -14.3115 11.2869 0.0622817 8
116 1 -0.546068 7.45786 2.93498 22
117 1 -5.67726 -6.66033 7.57782 21
118 1 12.2299 -1.67482 6.45204 20
119 1 -0.976785 -7.50079 -2.30997 23
120 1 2.3855 -7.90159 -9.99862 21
121 1 -0.548067 3.19469 10.6875 20
122 1 7.63772 -4.21286 14.3807 14
123 1 -8.78597 -6.31523 -2.18198 22
124 1 8.98322 -8.40621 5.42144 15
125 1 -8.49328 -9.0891 -1.87837 21
126 1 9.04693 -5.75688 -0.606346 19
127 1 -4.91396 5.94107 6.80286 22
128 1 8.72623 2.85426 -15.1554 15
129 1 5.75071 15.5289 -2.61448 12
130 1 -7.01136 -13.5292 12.3694 10
131 1 -10.307 -14.4034 11.061 13
132 1 5.22778 -12.1621 -12.5519 10
133 1 1.90237 6.22204 -5.2024 17
134 1 12.0384 -11.5194 0.62466 12
135 1 -4.44769 -15.4927 8.10462 14
136 1 -11.0049 -8.11383 0.636078 20
137 1 16.8769 5.01434 10.2026 12
138 1 14.7468 -0.571684 -5.29589 14
139 1 -15.5714 -7.66721 3.83159 12
140 1 10.7536 8.31581 7.90733 18
141 1 15.8371 9.08322 6.05334 11
142 1 -7.03968 2.99056 14.2979 18
143 1 8.3147 6.89064 1.3062 21
144 1 -4.1248 8.0912 13.1661 22
145 1 -5.26726 14.3353 -3.79474 13
146 1 1.7213 -4.66393 -9.63605 17
147 1 11.4174 -9.41869 -7.44604 13
148 1 3.25065 12.6853 -10.1495 11
149 1 9.46607 -2.78915 12.5866 18
150 1 0.921794 -1.72905 -17.0063 22
151 1 -3.21737 9.46955 -6.61681 19
152 1 10.1283 2.12118 -4.06492 20
153 1 -10.785 12.5497 -4.00661 10
154 1 -10.3083 14.6333 2.09142 14
155 1 7.72557 1.49281 -9.38297 21
156 1 12.243 -4.34282 7.89188 17
157 1 -6.53841 4.23285 -8.78649 20
158 1 -6.50451 8.64556 8.10836 23
159 1 10.7268 9.92667 -6.2722 16
160 1 0.731747 9.3772 0.24758 20
161 1 -3.46693 18.1074 4.33509 12
162 1 13.983 9.17457 1.29413 17
163 1 -5.28581 10.7278 -4.22547 17
164 1 1.38507 13.9012 -7.79518 14
165 1 5.37144 8.28135 -13.7524 15
166 1 -14.477 -10.7437 5.41447 13
167 1 -13.5331 9.74474 -2.84945 10
168 1 -1.29136 -2.30968 -14.9733 23
169 1 4.45745 -9.36982 -10.9641 20
170 1 9.49563 13.8663 9.11835 13
171 1 -1.44357 15.2872 7.68537 17
172 1 -10.7879 -6.41316 -4.9082 20
173 1 -11.8286 10.896 5.27462 14
174 1 11.7813 4.25095 -2.70887 17
175 1 -13.4429 1.04001 -13.1559 9
176 1 8.06334 3.99247 16.5157 16
177 1 6.53713 16.1578 4.10897 14
178 1 -3.674 7.81909 9.68663 19
179 1 6.77866 -8.27127 -16.4177 6
180 1 -5.30927 15.9086 10.1737 12
181 1 -3.16717 12.491 -5.84479 17
182 1 4.11818 -2.92491 14.4141 14
183 1 -10.0316 -4.2705 6.5792 21
184 1 -2.59992 -10.0317 -10.5016 16
185 1 -8.7744 9.17405 -9.08502 17
186 1 -0.576486 -13.2371 3.35405 20
187 1 1.5811 -14.9818 -2.48337 17
188 1 -5.4835 10.357 -14.1206 10
189 1 -12.0493 -1.27066 7.01561 21
190 1 -1.25871 7.17462 -0.518113 20
191 1 9.41046 7.97449 -3.25872 19
192 1 -6.06221 5.75993 15.4874 16
193 1 0.169106 -6.77442 7.37489 21
194 1 -6.54118 1.88003 2.45021 19
195 1 1.81034 14.7155 6.0679 20
196 1 -0.949221 7.50335 8.77254 19
197 1 15.3491 4.7493 13.3479 12
198 1 -6.63524 14.6886 7.68001 14
199 1 13.9781 -3.34984 -7.90376 11
200 1 -6.82056 12.8739 11.076 15
201 1 -4.93858 1.81306 -8.15392 20
202 1 10.7185 -8.81706 3.12813 16
203 1 -4.05878 -4.6841 4.1407 18
204 1 -16.6094 0.684556 6.31434 14
205 1 -5.71011 -12.5724 2.71151 16
206 1 4.81663 10.625 11.2306 17
207 1 -16.6133 -2.69299 -0.161353 11
208 1 -0.862066 -12.8415 -1.5304 15
209 1 -5.98445 -1.52266 -2.51812 22
210 1 5.29417 -10.9633 -4.83587 19
211 1 -2.57665 10.3664 4.31062 21
212 1 -7.05144 1.36682 5.35222 22
213 1 7.5295 11.7355 11.1479 15
214 1 -8.44114 -3.65135 -4.21527 21
215 1 -7.2653 12.2247 -8.69782 15
216 1 -12.3717 -6.03389 -8.15121 14
217 1 -11.5213 -1.38279 11.2267 20
218 1 -2.07296 -9.2366 7.46929 19
219 1 5.46528 -12.5026 4.35287 16
220 1 -14.1808 9.56075 3.39117 12
221 1 15.5081 2.18677 4.45639 16
222 1 5.31982 4.26697 -5.57102 22
223 1 -4.86058 -6.86931 -14.3691 18
224 1 4.58693 0.0782627 12.4591 18
225 1 7.70414 -14.7837 0.925334 14
226 1 -0.715402 8.3556 -12.7926 21
227 1 7.39609 -9.13506 -11.7592 17
228 1 7.81341 2.43589 -12.1199 21
229 1 4.33709 5.96635 -16.057 13
230 1 -6.70445 -0.99531 -8.68131 19
231 1 -4.62811 13.367 -8.42748 13
232 1 -6.72817 -9.86697 12.2423 12
233 1 5.55822 16.6469 1.10341 15
234 1 -11.7343 2.20759 16.6429 9
235 1 -7.71578 12.6506 -2.98541 17
236 1 7.30749 1.06356 7.24136 20
237 1 -3.06162 -4.92852 -13.2826 21
238 1 -3.42504 11.0164 -9.41634 19
239 1 1.02091 5.76357 -10.7495 22
240 1 -8.97061 -11.1225 10.9724 22
241 1 -4.86601 0.809257 10.6507 21
242 1 -6.23537 5.715 9.70005 22
243 1 -2.79944 -7.49694 -8.25851 21
244 1 -4.65932 -15.091 1.45923 19
245 1 9.97442 -13.2422 -0.712354 17
246 1 2.02866 -8.22225 -0.804971 22
247 1 14.754 7.4926 13.9737 10
248 1 6.48751 9.90319 -6.78331 19
249 1 -0.853117 11.0784 -0.929495 19
250 1 -11.737 2.80528 3.59363 19
251 1 -14.001 14.533 1.24974 5
252 1 1.21432 5.44631 12.1442 21
253 1 2.69623 -17.1591 3.7122 11
254 1 11.3342 -0.238518 -6.19721 18
255 1 2.40798 7.67703 7.0003 19
256 1 -9.85987 7.01531 6.87698 18
257 1 -15.0175 -9.04259 -1.93612 8
258 1 9.64545 5.80483 -16.339 11
259 1 2.69694 -2.25045 12.1668 18
260 1 9.99967 8.79803 -9.7241 15
261 1 0.89759 -7.50552 -7.60157 22
262 1 -1.25144 -2.3362 -11.8162 20
263 1 0.0699839 -17.6507 6.55653 10
264 1 8.3829 -1.43827 -7.71162 21
265 1 -8.9608 -2.12173 5.37392 21
266 1 2.78444 -16.0893 0.661542 16
267 1 -6.75342 -3.03678 -12.8917 18
268 1 -0.739725 13.4932 -3.08697 17
269 1 0.698628 -4.51755 -15.2361 20
270 1 3.81703 6.56979 15.3649 19
271 1 13.3717 0.988095 1.94013 19
272 1 -4.44732 -8.48314 2.30039 17
273 1 12.5353 -3.07229 -10.376 13
274 1 -0.0184828 -8.45774 4.74746 17
275 1 -3.66169 -1.79449 -14.0845 18
276 1 -7.55686 1.32897 -10.6578 16
277 1 -4.46528 -14.361 11.17 8
278 1 10.4623 0.982772 7.94886 18
279 1 6.41148 -6.19236 9.59907 20
280 1 -6.07935 -9.43258 -12.9771 14
281 1 2.05003 -4.28441 7.50862 22
282 1 1.91298 7.37489 -14.1853 22
283 1 5.74507 8.31095 1.15268 19
284 1 -8.40325 -9.74146 1.49132 20
285 1 -1.51319 14.5998 0.462116 19
286 1 -13.2426 -2.54283 16.2205 9
287 1 -8.69937 -7.39478 -8.34002 18
288 1 -8.1605 -8.59332 -11.2276 15
289 1 -0.51546 8.00083 -16.2855 13
290 1 -8.11324 -10.4474 -7.94911 15
291 1 -1.45121 -10.0036 2.57405 20
292 1 11.6307 -1.02637 -15.1222 7
293 1 14.4033 -0.724491 -8.16469 10
294 1 12.3049 6.32505 5.66758 17
295 1 -4.05269 -6.01585 -5.68176 23
296 1 -9.05079 -3.49873 11.4073 22
297 1 -3.36906 -8.84843 -0.0410787 19
298 1 8.04106 1.10578 16.9053 13
299 1 -7.68095 -16.933 3.99997 10
300 1 -1.64872 -14.6524 0.922274 19
301 1 -3.16654 15.4677 -2.00412 13
302 1 3.54258 -0.216091 -14.5175 16
303 1 -7.16322 -5.28765 -15.1856 14
304 1 3.90476 -8.84093 1.27442 19
305 1 -11.3082 -8.79661 14.082 11
306 1 4.02279 6.2971 19.8182 9
307 1 2.48859 -11.5266 -1.19905 22
308 1 -4.36114 -11.9744 -11.8419 10
309 1 -9.79432 6.5661 -10.6655 15
310 1 9.06889 6.44349 6.29871 21
311 1 -6.08978 3.09499 -12.0989 20
312 1 -1.89324 6.34398 -10.4755 19
313 1 -3.03162 -1.58379 8.86834 22
314 1 3.75154 -16.5662 -8.64958 8
315 1 -6.27259 16.2843 4.21971 15
316 1 2.42536 11.6669 4.86632 20
317 1 9.59594 1.9045 4.80346 19
318 1 -10.3351 0.957151 6.84089 22
319 1 -4.58522 -7.84959 11.8165 13
320 1 -3.92094 7.38254 3.76855 19
321 1 3.87244 -4.48897 -14.3734 19
322 1 17.7259 8.35944 1.73589 11
323 1 4.40349 -13.5873 -1.10482 17
324 1 -2.44009 -2.12426 14.391 17
325 1 -15.1277 -6.24295 7.16215 15
326 1 -2.44399 -15.9128 -3.59681 12
327 1 -7.44011 8.30455 14.5024 13
328 1 -8.13788 5.55917 12.6085 19
329 1 -14.1873 -2.71345 9.88838 16
330 1 -16.5148 -9.45744 8.49089 12
331 1 12.7957 -5.80523 -0.069155 15
332 1 -11.6713 -11.9226 12.4971 12
333 1 9.16242 -2.92605 -10.4896 22
334 1 8.85614 -14.3646 -4.80198 10
335 1 2.68844 14.7801 -2.55667 18
336 1 -2.43377 -5.89728 7.04596 18
337 1 -8.40425 10.7231 -5.46717 22
338 1 1.37914 0.833288 7.54411 21
339 1 9.57123 7.46 13.0699 17
340 1 -9.89532 -5.08384 3.54461 22
341 1 5.93645 -14.1052 -4.03525 18
342 1 -3.31167 12.5978 2.18883 22
343 1 -9.47899 3.40409 5.55828 20
344 1 7.28679 -12.113 7.46269 10
345 1 13.5794 -2.78892 1.59507 15
346 1 -3.09886 4.44604 8.78545 18
347 1 -5.77181 -2.65353 -5.5873 21
348 1 -2.5671 0.628962 17.2482 12
349 1 -2.90596 14.9345 4.70075 21
350 1 6.53159 6.07108 14.3526 19
351 1 -10.3943 11.3261 -7.29443 13
352 1 0.639603 -6.28979 -19.068 8
353 1 -5.92275 3.39036 -5.50116 21
354 1 8.53049 -6.54285 -13.9016 15
355 1 -9.95637 3.34509 15.2384 10
356 1 -16.5914 0.940903 2.22219 12
357 1 -2.87669 -2.84658 -7.14304 21
358 1 -7.02465 6.85106 -0.93062 19
359 1 7.96267 -0.82988 9.32531 16
360 1 -9.60011 -11.5167 -0.19835 23
361 1 10.5924 -7.03473 9.20456 13
362 1 -8.82263 -8.12738 11.7665 19
363 1 -14.0021 8.73089 0.376403 11
364 1 -1.22342 -5.76717 12.2395 14
365 1 -0.14287 -11.7235 -5.51417 17
366 1 -4.63925 -2.86685 -10.8824 20
367 1 7.05737 0.0900303 -13.8591 21
368 1 3.87446 14.2291 3.54945 20
369 1 -11.157 -3.93461 -2.66399 21
370 1 5.38805 -7.28937 -13.4619 18
371 1 9.81002 4.61008 -12.7769 16
372 1 -4.95779 -14.0157 -8.53581 13
373 1 -12.5497 -6.49088 -1.9388 18
374 1 -3.26671 -5.60576 -2.44031 18
375 1 13.7261 4.2722 16.1526 5
376 1 11.8562 3.96774 1.0281 18
377 1 -9.44013 3.67531 -10.6063 15
378 1 4.43106 14.1591 0.136011 20
379 1 -11.9582 -1.60773 -3.75843 20
380 1 -8.77335 9.13588 5.74422 20
381 1 -9.06405 11.6364 3.51705 19
382 1 -2.59577 5.29612 11.711 17
383 1 12.1874 2.98102 10.3524 18
384 1 9.2701 -5.75319 -5.37013 16
385 1 11.2029 -3.58108 14.9467 8
386 1 13.0383 1.38003 -3.56075 20
387 1 -6.44739 -13.6672 -0.154444 16
388 1 -3.66011 6.25022 -2.70404 18
389 1 -1.62915 -8.77233 -5.50422 21
390 1 -0.85777 12.8965 5.35981 21
391 1 -6.90933 0.847622 -0.819298 19
392 1 5.52778 -9.66703 -1.47229 20
393 1 13.7636 0.41451 9.63965 21
394 1 -10.5571 -4.49421 -7.62328 20
395 1 -3.32397 -14.258 4.259 16
396 1 -8.86414 -7.70596 14.992 9
397 1 -6.0418 8.32006 1.36275 18
398 1 -11.4537 -9.10968 -3.12687 18
399 1 5.84356 8.89143 15.9669 14
400 1 -12.338 3.09799 0.0707099 20
401 1 2.16101 10.4069 -7.95986 20
402 1 6.91325 12.5036 5.3408 20
403 1 -14.5311 -8.97074 1.06516 11
404 1 -4.94389 -10.8242 -8.69128 20
405 1 -13.5337 2.06906 6.40351 18
406 1 -9.48838 6.87469 -2.54623 19
407 1 6.02152 -7.78462 6.90647 18
408 1 -4.41889 -11.1975 -3.02828 15
409 1 12.0809 12.2594 8.90027 13
410 1 7.49903 6.49702 -13.3899 15
411 1 -11.4057 1.44244 -7.3354 15
412 1 -1.13796 12.6141 -9.92859 11
413 1 -8.52945 4.51409 -4.36569 24
414 1 -2.52188 -16.3529 6.04381 15
415 1 13.1922 4.58352 3.36997 19
416 1 2.81594 9.71949 -14.8751 10
417 1 -5.00154 0.374235 13.4624 17
418 1 -15.109 -0.488152 0.139537 15
419 1 -6.06739 2.9435 8.08047 20
420 1 -7.24555 -9.79232 4.71795 17
421 1 1.60711 -4.33113 -6.28998 22
422 1 8.10955 -8.71414 -8.61545 21
423 1 -0.238472 -1.61746 7.76068 21
424 1 -11.3069 -1.48197 3.24097 16
425 1 -17.1115 -0.189588 9.66079 11
426 1 -15.6476 5.94542 3.57927 11
427 1 -1.03724 -4.44188 9.28856 23
428 1 -10.9924 1.33094 -14.4468 12
429 1 11.365 -11.9914 -5.61937 12
430 1 0.533651 -9.69462 -11.7249 17
431 1 -3.42559 -3.38485 11.6513 19
432 1 3.24113 -8.53789 -3.42455 22
433 1 -5.27132 3.07224 -14.8654 17
434 1 4.12967 -12.1826 1.73329 20
435 1 1.29594 9.33342 -3.29475 18
436 1 -10.5986 9.32088 8.25892 15
437 1 -8.37351 -2.64514 16.5024 11
438 1 -10.4587 -6.33128 -10.5414 19
439 1 -9.46166 -5.89367 9.48558 24
440 1 11.7122 -4.54278 11.1713 14
441 1 5.41869 4.4406 0.997379 22
442 1 -6.05846 4.14723 4.6174 20
443 1 2.23631 0.83975 -8.86982 22
444 1 8.5968 -3.7131 9.24707 19
445 1 13.9905 7.73052 -1.94429 16
446 1 -1.11659 1.51741 14.6793 19
447 1 -1.83586 10.3547 -3.7079 19
448 1 8.01236 -5.89289 7.0282 18
449 1 -5.40578 -13.9845 -4.78351 14
450 1 -4.64433 9.12078 15.88 14
451 1 -2.00106 11.484 8.01048 19
452 1 -7.70772 -14.7516 -11.0188 5
453 1 6.37872 13.2457 2.05664 20
454 1 1.84066 7.50896 9.87495 17
455 1 -10.5111 1.63049 10.0447 21
456 1 -6.58462 -6.48018 -3.4186 20
457 1 -11.2942 4.59646 11.0127 18
458 1 -8.55814 -8.04989 -4.66665 19
459 1 -6.3232 9.94882 4.07272 18
460 1 -6.62628 -11.8259 -6.08443 20
461 1 -1.245 -6.90694 -13.8778 19
462 1 -8.60273 -14.6822 1.73469 16
463 1 -5.93469 -1.752 3.80998 22
464 1 8.11555 3.54047 6.41826 25
465 1 -7.92674 -5.01193 14.2581 17
466 1 -8.48788 4.60797 -13.1584 15
467 1 7.41041 1.01586 0.757127 20
468 1 -7.51015 -12.5397 -3.07579 18
469 1 -3.37935 2.66027 -10.3967 22
470 1 -0.476923 17.3535 2.63474 13
471 1 -1.5127 6.68773 -7.46245 18
472 1 -0.747587 7.90623 12.0935 18
473 1 -13.7381 -3.44224 -1.94929 17
474 1 0.47898 15.563 -5.43158 12
475 1 2.97084 11.232 -2.09635 18
476 1 -5.59147 -7.60216 -8.95616 22
477 1 6.85929 2.0509 14.0371 23
478 1 -0.371591 -10.0867 -8.18511 19
479 1 0.512331 -4.42679 -12.113 22
480 1 10.7071 -14.1985 2.78974 9
481 1 -11.233 8.88213 3.45658 17
482 1 1.26942 4.91568 14.8478 17
483 1 7.07287 6.76899 -1.64211 22
484 1 3.39997 11.4791 1.80038 22
485 1 -8.47552 8.65859 -12.7169 10
486 1 -0.0607059 3.15631 -9.08999 21
487 1 2.9488 -7.18093 5.87799 18
488 1 -15.5688 -4.76229 2.29188 16
489 1 4.55102 16.1497 6.28385 15
490 1 -2.64829 4.89099 -12.5394 21
491 1 11.1238 7.33558 2.36505 21
492 1 6.67316 9.73508 -2.87836 18
493 1 10.4337 -4.08804 1.99223 20
494 1 15.254 2.83119 0.00797427 15
495 1 1.51576 -2.11299 -13.5064 18
496 1 1.7474 -7.62548 2.67846 20
497 1 -1.71461 -14.2807 8.69913 10
498 1 0.833118 -9.67376 8.08281 14
499 1 -9.33162 3.72 -7.37937 20
500 1 -13.7099 -12.5737 7.37448 11
501 1 2.55045 -10.3973 -8.99719 19
502 1 10.1971 14.1294 6.25762 14
503 1 -0.414205 0.282042 -13.8246 23
504 1 6.21333 -0.404235 15.2737 16
505 1 -14.1353 3.49868 9.85978 17
506 1 -2.24999 -20.2964 1.03318 9
507 1 -12.9217 -6.55999 2.92662 15
508 1 10.3736 -7.37394 -2.99199 18
509 1 9.07601 -0.596842 -3.44689 20
510 1 -4.39137 6.5328 -5.95978 20
511 1 2.42623 -9.38471 -6.03607 24
512 1 5.21862 2.79187 -13.9101 16
513 1 12.745 -6.32145 -5.09375 14
514 1 -8.35739 0.598725 15.6909 13
515 1 2.99868 17.0005 3.16684 14
516 1 -7.11564 -2.99994 -17.5412 10
517 1 5.2781 1.56974 -19.8748 11
518 1 -7.03423 -4.31161 8.58809 20
519 1 -6.17302 17.5515 7.00937 9
520 1 -9.94296 -3.87818 -15.7543 14
521 1 -16.9741 -2.01985 3.41831 11
522 1 0.584813 -9.60362 -14.9766 13
523 1 -11.6122 -9.13105 11.3621 15
524 1 1.49829 6.76812 -8.35611 20
525 1 16.1816 2.57021 7.89202 15
526 1 10.8736 1.2168 -1.00446 18
527 1 -12.4898 -11.1978 -0.904076 13
528 1 0.965673 -7.01165 -4.59407 22
529 1 -1.20067 -3.74547 -18.2755 13
530 1 -7.65073 5.67207 6.93413 21
531 1 4.35794 -4.83614 -8.11554 20
532 1 1.41443 6.33035 1.40218 22
533 1 11.9099 -1.06047 -3.02068 19
534 1 1.78116 12.3904 -4.99574 19
535 1 1.33609 -10.6834 2.64579 20
536 1 12.5743 7.99324 -7.57608 13
537 1 2.55966 3.51903 18.8859 9
538 1 -9.04356 4.01993 8.61465 21
539 1 5.11183 8.65876 9.21945 19
540 1 9.59978 -1.63442 15.7528 13
541 1 1.78617 1.5371 -15.6944 19
542 1 -5.40788 -4.19399 -7.92352 20
543 1 -0.768272 -2.02085 11.1103 20
544 1 9.27602 11.7931 3.58292 21
545 1 6.86364 7.35152 -8.83204 22
546 1 -6.73891 9.20706 -7.27567 20
547 1 -3.46657 9.13441 -0.961235 21
548 1 12.8062 -0.275757 15.4262 11
549 1 11.0237 2.82162 -10.3146 19
550 1 8.05465 -11.6202 -3.31696 21
551 1 13.7246 9.96573 12.3166 11
552 1 -11.7746 -11.2859 2.92717 15
553 1 -6.21888 10.0257 -10.989 18
554 1 -2.50553 0.550601 12.1625 18
555 1 -15.5 1.67174 12.4558 11
556 1 -4.71045 13.0193 -11.324 10
557 1 2.81384 -12.4663 -4.07607 19
558 1 5.80878 -1.31485 -8.93396 20
559 1 -3.07001 15.9253 -5.67505 9
560 1 -9.19741 -4.28783 -12.7471 21
561 1 4.6937 -15.0284 2.73407 16
562 1 -12.5829 -4.41853 0.67548 19
563 1 3.91684 11.4893 -12.9879 11
564 1 -5.92054 4.47629 -2.72274 16
565 1 -1.91761 11.3577 16.7136 10
566 1 -12.8398 -9.01554 8.03807 18
567 1 3.9232 6.61446 -0.356176 20
568 1 4.88898 -9.32758 -7.81018 21
569 1 5.8064 -5.69485 12.8239 15
570 1 7.37075 1.19559 -5.86224 20
571 1 -10.7982 6.17007 0.229309 14
572 1 5.8161 3.81029 19.2587 9
573 1 5.70984 12.5426 -3.60432 18
574 1 9.86295 -8.30789 -5.55589 19
575 1 3.2918 8.4379 12.7973 17
576 1 2.26189 3.97009 -19.1397 9
577 1 -7.36062 -8.39097 9.3967 23
578 1 -0.75499 0.462152 -10.5888 18
579 1 7.33229 0.0427254 -17.3011 14
580 1 4.03342 13.4416 6.88363 20
581 1 8.61251 4.70019 -10.0148 20
582 1 -3.19325 -1.48566 -18.0754 12
583 1 -9.97917 -10.9887 -4.15618 18
584 1 -9.91555 -2.58439 -9.7195 18
585 1 7.73511 4.08289 -0.589043 16
586 1 16.996 5.87194 -0.681456 10
587 1 8.99559 -5.53301 -8.37936 18
588 1 15.1271 7.07027 11.1267 17
589 1 3.83564 -12.4669 -6.84958 16
590 1 6.98575 3.97384 -17.329 13
591 1 7.93547 10.1253 2.28179 18
592 1 -8.61582 3.60759 2.29316 20
593 1 11.7954 9.46568 14.4303 12
594 1 10.2519 6.40792 -1.1031 20
595 1 11.4869 -2.28308 -0.042284 18
596 1 11.7486 5.26198 -8.20743 16
597 1 9.36159 4.65555 14.1456 19
598 1 15.4627 2.69229 10.6651 15
599 1 1.37668 -6.09852 10.6426 18
600 1 16.8532 11.2786 0.689683 10
601 1 2.24009 8.9108 3.44947 20
602 1 0.750011 0.666796 17.5442 10
603 1 15.5966 1.20925 -2.88974 12
604 1 8.79731 3.21391 9.35856 21
605 1 -7.78477 1.15718 -6.99573 19
606 1 15.1741 7.06742 3.56696 18
607 1 7.75468 -4.39942 4.38482 19
608 1 -0.85219 -7.20048 0.892779 21
609 1 -10.5186 8.24941 11.8393 11
610 1 10.7244 11.8793 12.0743 14
611 1 11.5758 -0.106793 12.1165 18
612 1 3.02706 10.6385 8.26687 20
613 1 1.34599 14.2973 11.8277 14
614 1 5.14296 3.38398 7.74575 22
615 1 -5.18648 -18.4579 2.62156 12
616 1 -6.46243 10.2422 -1.77625 20
617 1 6.8014 7.14806 -5.10152 19
618 1 12.8236 1.24553 -12.8232 7
619 1 0.11623 16.6307 -1.10436 12
620 1 -2.33795 -12.2807 -8.35324 15
621 1 11.1234 -6.23136 -11.8991 11
622 1 -14.6116 -0.789874 4.63713 16
623 1 -7.12823 7.02836 -10.853 18
624 1 -6.87958 -15.2405 6.27656 12
625 1 -5.30907 -0.0337528 -12.026 16
626 1 -9.03563 -0.77494 -2.57213 23
627 1 11.8052 -6.66342 5.94189 12
628 1 15.2864 11.8312 3.56801 13
629 1 5.21572 -9.90603 9.16264 16
630 1 -14.6906 -2.82771 -8.76132 11
631 1 1.96207 0.504692 -18.9937 14
632 1 4.69063 -4.61778 6.17509 19
633 1 -1.12966 3.76338 14.0004 21
634 1 7.54858 9.3112 -11.8927 16
635 1 14.6803 -2.73951 9.23684 13
636 1 5.76573 3.92915 -9.02506 20
637 1 11.1989 14.5286 1.18828 13
638 1 0.876991 -13.2384 -8.17021 17
639 1 -14.1279 0.44434 15.1596 13
640 1 11.2058 -1.19773 3.00362 21
641 1 -0.937069 13.4069 13.4623 14
642 1 8.15406 10.8853 -9.0774 14
643 1 -11.2947 10.5737 -1.30451 14
644 1 11.2225 10.9251 1.81427 19
645 1 -9.30402 -14.7586 -1.46327 11
646 1 7.94616 -2.36825 2.22909 17
647 1 10.5355 16.276 4.31017 9
648 1 -7.32525 3.02147 11.2751 19
649 1 -10.0254 -8.07116 3.46373 20
650 1 -12.1076 -1.48623 -7.29619 21
651 1 6.09007 2.54553 10.8621 20
652 1 -2.20708 -7.07202 9.96194 16
653 1 8.77969 7.96885 15.8621 13
654 1 -6.91458 13.409 2.6768 20
655 1 8.10076 3.71666 2.46536 19
656 1 8.71133 -6.50196 2.37629 17
657 1 7.17822 7.29803 3.8152 19
658 1 4.25272 -1.64825 -18.6032 14
659 1 -9.25858 -1.55204 8.64567 21
660 1 7.29554 -1.13829 -11.2186 21
661 1 -5.5746 -8.62533 -6.05273 21
662 1 7.88229 -10.8762 -6.62218 20
663 1 7.31499 6.16282 8.7253 19
664 1 5.63315 6.5481 6.20055 20
665 1 -12.9531 3.45601 13.5607 14
666 1 11.3603 9.13997 10.9428 20
667 1 -0.284517 -1.10116 15.5146 12
668 1 -1.89693 10.1941 14.1517 19
669 1 -1.94639 -7.44372 -16.3643 12
670 1 -7.70337 -0.239583 12.2998 17
671 1 7.37314 4.87809 11.4773 22
672 1 -10.247 -13.6534 7.92103 16
673 1 13.3894 6.0478 0.199345 21
674 1 7.51001 -14.5877 -1.81676 16
675 1 -3.2864 3.38948 -4.1576 21
676 1 8.13466 12.3332 -2.47971 17
677 1 12.1173 13.1666 4.13138 18
678 1 1.75707 -3.13797 -20.0376 10
679 1 -1.75855 1.26907 8.78024 21
680 1 -3.90519 12.2507 -1.60398 22
681 1 18.5793 11.4521 2.72311 5
682 1 -6.22556 -7.26745 0.0583591 22
683 1 -0.537826 1.44123 -18.2141 14
684 1 -8.93532 11.7829 0.503529 18
685 1 8.73079 -6.58449 -10.7731 20
686 1 4.12345 6.0383 2.87146 20
687 1 8.07251 4.91483 -7.09501 20
688 1 11.1451 14.1762 -1.5009 9
689 1 -3.36309 3.31572 5.78508 22
690 1 -6.10225 4.72542 0.702933 18
691 1 8.2716 4.39467 -3.73259 23
692 1 12.3523 5.60786 12.2543 18
693 1 9.46748 0.769452 14.5551 20
694 1 -4.46599 -9.95732 9.46759 15
695 1 -3.83425 7.60183 -15.0959 12
696 1 4.53925 13.915 11.4128 14
697 1 10.4289 -3.62635 -13.1877 13
698 1 3.02696 2.09438 10.0846 19
699 1 7.74409 14.4445 -0.632478 16
700 1 9.46398 10.7374 9.20278 19
701 1 13.4574 -12.012 -2.71511 8
702 1 6.17426 7.01033 18.0964 15
703 1 -12.9408 -6.57019 9.52467 15
704 1 0.126882 -17.7898 1.44152 12
705 1 0.0825558 -2.08432 -8.93241 19
706 1 -12.0705 14.3354 4.18751 10
707 1 -0.663623 4.1798 7.32182 20
708 1 4.40295 -4.62456 -4.38087 20
709 1 5.60033 10.2302 3.45115 20
710 1 -13.4293 -4.16244 6.89351 18
711 1 -4.20188 5.76745 18.2951 7
712 1 -3.12544 5.24202 -16.3121 13
713 1 -6.11672 6.12815 -13.6731 16
714 1 1.32081 -13.5019 1.13371 23
715 1 4.16666 8.16267 -7.05151 19
716 1 6.06951 -7.20411 3.7981 20
717 1 -2.35863 9.47727 1.48856 20
718 1 -12.5031 6.50311 8.3594 13
719 1 4.40148 -2.06753 -12.211 20
720 1 3.95282 -12.0589 7.43561 14
721 1 2.02925 15.8078 0.894163 17
722 1 -5.57669 -0.64036 15.9668 12
723 1 -8.74714 -7.13843 -13.7919 14
724 1 -2.71776 -9.26655 -13.7475 16
725 1 -7.84365 -14.0343 -8.02073 10
726 1 -1.44632 15.1986 -7.83607 12
727 1 4.05277 -6.64321 -5.71125 23
728 1 -4.30267 13.4277 8.6197 21
729 1 3.33367 -16.4529 -5.44228 12
730 1 5.05826 -17.389 0.73846 10
731 1 3.36595 -7.31998 8.99048 18
732 1 13.6558 6.39631 -5.21316 12
733 1 0.520971 -9.69576 -3.22537 20
734 1 -11.5013 -3.5872 9.19547 18
735 1 -1.21616 1.6602 -7.38141 20
736 1 -3.75501 -17.7148 -0.490061 15
737 1 -10.6267 -12.0214 -7.24243 8
738 1 -13.4843 0.471405 8.90408 24
739 1 -6.81962 -18.168 0.407047 6
740 1 13.1774 9.56531 -4.41257 11
741 1 -3.69526 16.988 7.07676 15
742 1 -4.25527 0.383352 7.17836 21
743 1 -15.0399 5.55013 -0.36813 11
744 1 9.96766 1.56135 1.82918 17
745 1 -12.911 -1.91829 -11.5218 16
746 1 -1.16234 7.31213 -4.31921 19
747 1 10.5233 -0.019547 -10.2477 18
748 1 8.48404 11.1604 14.4539 9
749 1 4.88064 4.19154 -2.42607 21
750 1 -14.6748 -1.09295 -6.53522 12
751 1 -7.63715 -4.35279 -9.57967 23
752 1 -1.12662 8.60706 16.7649 13
753 1 5.82157 4.92365 -11.6476 19
754 1 10.1367 11.5646 6.40759 21
755 1 0.475817 -3.8336 13.7234 13
756 1 -3.9965 -14.2416 -1.97354 18
757 1 -8.00134 -14.1815 9.2305 15
758 1 -4.61274 -4.10904 8.7378 19
759 1 13.7735 8.89657 9.03166 13
760 1 6.37111 -3.9742 -10.1717 21
761 1 -7.16294 6.84369 4.05406 18
762 1 7.85371 9.2595 6.24286 20
763 1 -7.10467 -4.61331 5.23507 20
764 1 9.97979 7.84248 -13.6812 10
765 1 0.640549 -14.7716 -5.50754 16
766 1 -2.04341 -18.8947 3.94301 12
767 1 -0.613584 -16.1118 -1.20835 15
768 1 2.9824 3.88806 -10.4066 21
769 1 8.83248 16.2515 1.39824 10
770 1 -3.04924 0.581665 -16.0619 15
771 1 0.677969 0.309293 10.6957 19
772 1 1.23012 4.80936 -16.1943 16
773 1 -12.0471 -5.12052 -13.3581 12
774 1 -15.478 -6.07389 -0.391619 13
775 1 3.82872 14.7827 -5.43724 12
776 1 8.54311 -1.79814 -0.669168 19
777 1 -3.74389 -4.25219 -16.2565 15
778 1 -6.38005 -4.41182 -1.07497 23
779 1 10.7367 5.67543 -5.30078 17
780 1 11.1373 -8.31669 0.259989 16
781 1 -4.4979 3.5469 13.2617 18
782 1 6.67287 -9.60791 2.58936 20
783 1 12.372 -6.53088 2.7395 12
784 1 14.2098 -0.814989 12.2235 14
785 1 -0.047301 9.73965 5.78814 23
786 1 -16.8534 2.5997 8.97252 12
787 1 -9.8142 2.77802 12.2435 20
788 1 -3.37266 -11.0115 4.57065 18
789 1 6.80897 1.41619 3.90499 22
790 1 6.19838 11.9213 8.88314 20
791 1 -14.4873 -0.797219 -2.90384 17
792 1 6.70373 -8.93439 -3.89839 18
793 1 -9.01077 14.3431 -1.04433 12
794 1 0.137329 11.201 2.78865 23
795 1 -0.0785958 -14.6133 6.2432 18
796 1 6.04522 -3.11761 12.0385 19
797 1 -0.235692 14.4175 3.04488 20
798 1 -0.222321 -11.6065 5.72806 17
799 1 -8.74525 -3.0187 -0.827886 20
800 1 4.28752 4.66299 13.2148 19
801 1 -12.9438 -4.00034 -5.8662 14
802 1 0.800465 11.506 14.1736 17
803 1 1.32309 12.7398 0.499394 18
804 1 -10.7073 -10.396 5.80982 21
805 1 -4.94898 -18.0222 5.56927 12
806 1 4.53457 -3.81574 9.75209 19
807 1 13.5463 -3.97046 4.61938 14
808 1 9.72184 2.56488 11.9547 19
809 1 -7.03255 8.0464 -4.22575 18
810 1 -1.05692 -6.81683 -10.8766 21
811 1 -2.93763 1.81207 -13.1009 19
812 1 -11.1848 -2.99829 14.1524 19
813 1 0.041629 16.8534 5.35498 15
814 1 12.7166 1.37234 5.15559 20
815 1 3.9926 9.77487 -4.70345 18
816 1 -5.44182 10.9828 13.014 15
817 1 7.692 8.4466 10.9513 17
818 1 7.11042 -3.97592 -13.0221 22
819 1 -6.06341 -10.7707 -0.185866 20
820 1 -7.0409 1.342 -3.90968 22
821 1 15.1712 -0.0642411 6.98451 13
822 1 4.18656 -5.17097 -11.6701 19
823 1 -2.75356 6.13331 14.5209 21
824 1 6.48676 -14.351 -7.50829 13
825 1 6.70417 7.38483 -16.9723 9
826 1 -4.26705 -8.45614 -3.26233 16
827 1 11.6521 6.46035 -11.0813 11
828 1 13.6914 -3.61684 -1.73782 18
829 1 2.61929 -5.3874 13.0406 14
830 1 -4.27986 -7.73576 -11.3882 18
831 1 5.77365 11.2096 -0.312877 21
832 1 -0.769621 -3.99012 5.65173 22
833 1 -14.4995 3.36424 1.60795 15
834 1 10.2541 2.88772 -7.40716 18
835 1 16.9399 5.5215 5.50266 11
836 1 1.67123 -7.51075 -16.1729 15
837 1 -6.71555 11.5232 7.28575 19
838 1 16.0586 6.97541 7.70937 13
839 1 10.7913 10.9258 -2.82941 17
840 1 4.41691 2.00825 -17.4378 20
841 1 10.4298 -3.92582 -2.72314 18
842 1 -12.3525 0.939272 1.99277 18
843 1 11.4259 9.47378 4.58236 18
844 1 -9.2244 -11.8319 3.42108 19
845 1 -10.8254 8.25058 -7.87281 15
846 1 4.24261 5.52765 10.0792 21
847 1 -8.89171 -2.27208 -7.19383 18
848 1 -15.0739 5.08809 6.83705 15
849 1 -3.09891 4.59441 -7.67889 20
850 1 14.6246 -6.55456 -2.82578 9
851 1 -10.8579 -8.39001 -6.8347 15
852 1 10.824 -10.4033 -2.85398 18
853 1 -15.4362 2.1993 -0.954394 12
854 1 -7.51822 -5.27196 -6.50539 22
855 1 13.7163 4.79063 8.83414 20
856 1 -5.77428 -6.95735 4.88307 18
857 1 11.0262 2.49502 16.244 11
858 1 14.8718 -0.927199 3.85601 14
859 1 8.7458 -1.01959 4.75575 21
860 1 -12.9588 6.30008 2.43242 18
861 1 1.91522 11.7414 11.3543 22
862 1 4.31094 6.94758 -10.4426 17
863 1 4.00722 -9.40196 -14.6963 14
864 1 -4.7726 12.6588 5.25513 19
865 1 -13.223 -13.696 10.3766 11
866 1 9.29395 7.62431 -6.78699 22
867 1 0.427443 7.45353 14.8859 18
868 1 14.5392 -3.79116 -5.02409 11
869 1 6.80749 -9.10099 11.2671 10
870 1 -2.89915 10.6167 -13.0513 13
871 1 4.57175 10.1071 -9.60305 23
872 1 -6.27337 -2.22449 10.6973 20
873 1 14.3265 4.04941 6.03142 20