ITEM: TIMESTEP
6000
ITEM: NUMBER OF ATOMS
2000
ITEM: BOX BOUNDS pp pp pp
-30.0 30.0
-30.0 30.0
-30.0 30.0
ITEM: ATOMS id type x y z Coordination
1 1 -11.8546 5.14249 -14.229 13
2 1 -4.86686 -11.7128 -9.51257 16
3 1 3.327 11.2391 11.8059 23
4 1 7.7336 -12.9277 6.86565 11
5 1 -12.3209 9.20412 -0.643934 21
6 1 11.7062 -10.2443 -11.47 9
7 1 -10.4987 3.208 -6.8063 19
8 1 -0.667014 -7.05866 11.3508 15
9 1 -9.86392 0.579484 -11.57 20
10 1 -13.9558 -9.8381 6.58327 11
11 1 12.7554 2.53958 -9.07901 18
12 1 -3.80445 1.47831 -6.26847 18
13 1 -4.12577 -12.9382 2.18168 21
14 1 -12.3646 -8.05334 4.82118 15
15 1 1.29535 4.12754 16.766 15
16 1 6.33614 -1.82073 3.41262 17
17 1 0.553105 3.22827 10.314 23
18 1 9.01058 -1.21052 1.70388 18
19 1 -2.1543 8.60753 -9.51056 20
20 1 1.97914 -2.0153 14.5776 18
21 1 -9.7618 -0.486877 -16.5712 10
22 1 -14.621 -3.38507 12.2795 16
23 1 13.7779 3.58348 10.198 24
24 1 -0.357397 11.0153 -11.2539 20
25 1 3.64905 4.33713 -13.6417 18
26 1 14.086 1.63047 12.8036 15
27 1 -7.46417 1.20421 1.23239 15
28 1 -15.0455 5.01221 -9.21676 10
29 1 -3.37508 -1.37961 -7.73177 21
30 1 -11.9035 9.97877 9.90077 13
31 1 6.32706 -15.4717 5.62883 9
32 1 3.12821 -1.76617 8.56653 19
33 1 4.00952 -12.6539 -8.49787 16
34 1 10.0779 -12.4753 2.04895 12
35 1 -8.38372 -13.1943 -5.27592 14
36 1 -14.7891 -6.85394 11.7361 12
37 1 4.51929 -4.56939 -4.73148 18
38 1 3.65115 -6.35487 -10.4722 22
39 1 9.83202 -9.64132 -13.4675 11
40 1 -4.79856 4.87472 -16.8472 9
41 1 0.217445 3.16017 14.238 20
42 1 -1.09657 -11.0928 6.96262 19
43 1 7.20607 -5.247 13.8242 15
44 1 -11.6905 -1.31021 2.42038 22
45 1 -18.1453 -2.46188 8.39463 11
46 1 -8.76373 2.08946 -1.34174 19
47 1 -2.93887 12.3077 -1.67703 19
48 1 0.318086 -14.1911 -12.7596 9
49 1 1.7429 0.541592 -9.65514 20
50 1 6.74303 -4.88679 -10.1124 22
51 1 -4.53514 -4.26686 15.2688 13
52 1 -13.6226 6.58201 2.68402 19
53 1 4.15753 12.3665 -13.8847 9
54 1 0.0948957 13.4057 8.65709 19
55 1 -9.25763 8.46568 -8.6117 19
56 1 -0.576477 14.1087 0.158655 19
57 1 1.6004 -11.8979 2.91219 18
58 1 6.70441 -6.93682 -4.94604 19
59 1 6.15592 -5.61115 -16.3585 10
60 1 -9.48624 7.296 9.45032 21
61 1 -12.9889 -4.57614 -8.69798 12
62 1 6.01458 -1.49721 6.80136 20
63 1 -8.74245 9.12745 -5.67171 18
64 1 -9.15934 -8.95108 8.1384 19
65 1 -3.72291 14.6762 12.9557 9
66 1 -13.6708 6.60741 -6.93137 11
67 1 -6.12849 8.88472 12.6031 15
68 1 0.123515 7.4981 -4.37899 22
69 1 2.31351 4.95101 5.65082 20
70 1 -7.56435 -14.3519 8.75741 19
71 1 2.10668 5.1125 8.58408 18
72 1 6.15141 -16.3685 -3.37623 12
73 1 4.59822 13.2296 14.7448 13
74 1 -15.2135 1.97953 -9.91573 11
75 1 -13.1438 6.41773 -11.6962 12
76 1 4.55511 6.07451 12.1179 20
77 1 11.841 -2.44503 -8.48755 17
78 1 7.58211 -12.0441 3.64322 15
79 1 -16.4855 -2.31603 5.74921 13
80 1 -6.34096 -3.43785 1.74233 22
81 1 6.70497 16.0505 7.1707 11
82 1 5.63391 -2.69703 14.5774 16
83 1 -7.9244 -13.7272 5.98851 23
84 1 -8.67855 -1.38756 1.31496 20
85 1 12.8562 2.87279 7.75359 20
86 1 7.7931 -3.15494 -2.77951 19
87 1 -2.12329 13.0149 10.9492 21
88 1 4.0493 0.85763 6.54022 19
89 1 -9.58287 -5.21909 5.2801 19
90 1 -5.20387 -8.16263 -9.87224 22
91 1 -14.4265 8.53253 8.27712 11
92 1 -8.88577 12.1116 -0.676138 18
93 1 -4.68883 7.94375 -11.0957 17
94 1 4.50151 1.45723 -4.58517 21
95 1 4.99743 -1.65358 -6.07471 18
96 1 9.53583 11.4378 -7.50407 16
97 1 5.65062 -6.60866 4.36995 18
98 1 6.13925 -11.4634 9.9476 9
99 1 -6.46878 15.1389 -5.05809 11
100 1 -10.8772 11.4462 4.03104 15
101 1 -10.1639 -4.65527 15.1128 16
102 1 -3.26515 5.9481 6.70032 18
103 1 -9.06613 -6.00886 11.98 20
104 1 12.6421 -8.9985 -6.1813 13
105 1 -11.6746 3.40201 5.45384 22
106 1 -10.2828 -13.6108 4.01709 15
107 1 9.65934 -8.32578 -5.23244 22
108 1 4.70096 -0.424959 -11.051 21
109 1 -6.44008 0.0206152 -15.9385 17
110 1 1.24545 1.94227 6.71131 20
111 1 -1.2416 10.5779 4.01807 19
112 1 -7.73218 6.75835 -10.2584 19
113 1 1.49375 12.1049 17.5525 9
114 1 -2.19679 13.379 -6.20113 22
115 1 -15.0753 11.8901 1.17473 12
116 1 1.459 9.30976 1.759 23
117 1 -5.4305 -9.05157 7.96762 18
118 1 13.444 -2.60223 8.65307 11
119 1 -3.41593 -5.79813 -8.59031 17
120 1 6.16914 -7.84539 -9.71234 24
121 1 -2.26022 2.8697 8.36635 23
122 1 6.74929 -0.0466988 16.8038 15
123 1 -8.89803 -5.59885 -2.6859 14
124 1 7.98867 -4.77956 6.60145 19
125 1 -8.07909 -7.53564 -5.15411 19
126 1 9.50721 -9.5532 2.24872 15
127 1 -4.73542 5.97662 2.12002 19
128 1 7.5849 4.24548 -16.4121 10
129 1 5.62235 17.8778 -2.78066 9
130 1 -8.267 -13.3946 12.0648 12
131 1 -10.5901 -14.3559 10.2644 13
132 1 3.42679 -8.5794 -14.2898 14
133 1 1.95586 6.28017 -6.60471 18
134 1 11.4248 -10.8924 -0.681612 13
135 1 -1.3625 -16.2174 6.24872 16
136 1 -8.40348 -8.57417 -1.37721 21
137 1 16.0891 6.08943 9.81643 15
138 1 11.0193 -0.262423 -6.29584 19
139 1 -14.9611 -4.51945 3.78087 14
140 1 12.1887 8.78926 4.95941 22
141 1 15.0927 8.61754 3.82072 15
142 1 -8.78449 1.69894 15.3059 16
143 1 5.82263 4.4886 -2.62425 20
144 1 -4.77837 10.3605 10.4726 23
145 1 -4.02065 11.3639 -3.98106 18
146 1 1.07614 -5.60909 -9.19619 19
147 1 8.37224 -12.2775 -11.3999 11
148 1 -0.311974 14.1839 -11.8904 14
149 1 8.02854 -2.53965 12.7797 17
150 1 -0.252766 -1.35544 -19.1076 9
151 1 -4.89491 8.43196 -5.48943 20
152 1 10.0914 1.53924 -4.23139 22
153 1 -12.1262 9.45511 -5.98655 14
154 1 -7.53489 15.0678 -1.70325 11
155 1 6.48633 1.90077 -9.56424 17
156 1 9.98496 -10.8019 5.33637 12
157 1 -6.56459 3.0415 -6.96064 20
158 1 -7.88437 12.7702 8.83587 13
159 1 14.4667 9.24404 -7.83262 11
160 1 4.1698 10.4618 -2.56632 15
161 1 -3.37286 16.5074 1.83997 13
162 1 9.35354 9.78336 -0.998777 19
163 1 -1.25494 10.3618 -2.84022 21
164 1 1.3926 15.1946 -9.53837 13
165 1 1.65247 9.63217 -15.6301 11
166 1 -12.1597 -10.4184 2.75075 13
167 1 -14.6841 10.3673 -1.93878 12
168 1 -4.73378 -2.91052 -12.9984 21
169 1 2.29041 -6.5569 -13.0522 17
170 1 9.45576 13.1224 7.65091 15
171 1 -0.0780412 15.8186 6.56654 14
172 1 -11.1052 -2.17427 -3.69745 18
173 1 -13.4001 12.6547 3.39445 10
174 1 15.3366 -0.341052 -1.73522 13
175 1 -12.1865 1.86144 -15.5629 10
176 1 6.07624 2.54426 17.6185 13
177 1 4.4045 16.9165 2.7899 14
178 1 -2.26945 9.29146 10.6346 23
179 1 3.03556 -7.1433 -16.9687 9
180 1 -4.55233 13.8915 9.48741 19
181 1 -2.42848 9.3399 -5.82792 19
182 1 3.66745 -4.92556 13.3943 11
183 1 -12.7529 -5.15757 6.83281 20
184 1 -0.790206 -10.3996 -12.8615 16
185 1 -9.99996 11.9916 -9.17194 10
186 1 -4.00144 -11.5937 5.11473 15
187 1 3.84522 -14.543 -3.85703 16
188 1 -4.20796 10.9631 -10.9923 18
189 1 -18.1731 0.955897 10.1603 9
190 1 1.97116 9.50238 -1.07492 17
191 1 10.9507 10.5917 -4.44794 20
192 1 -9.33608 5.45193 14.5181 11
193 1 -0.79356 -9.52197 9.45499 21
194 1 -9.05861 3.87698 1.50349 22
195 1 1.67149 17.4257 4.04172 12
196 1 0.373968 6.99832 10.4148 19
197 1 12.2215 4.30326 13.0358 19
198 1 -6.97456 13.0375 2.47744 17
199 1 14.6136 -3.86363 -7.18055 10
200 1 -6.75808 12.4932 11.7583 11
201 1 -4.24788 1.06989 -9.42776 21
202 1 11.4381 -6.8656 2.9296 15
203 1 -3.81676 -6.35277 5.71037 18
204 1 -16.0951 0.109515 7.80303 15
205 1 -7.68531 -10.994 5.43044 19
206 1 4.92085 7.13481 15.0046 22
207 1 -14.5715 0.483356 -1.71001 11
208 1 -2.5543 -14.5565 -0.231497 22
209 1 -5.64886 -1.79266 -2.8721 20
210 1 6.23557 -8.73997 -0.0300997 19
211 1 -4.49343 7.90366 4.4036 14
212 1 -5.75355 -1.54419 3.75492 20
213 1 4.61635 14.5614 11.9001 15
214 1 -8.71331 -1.33941 -4.99089 22
215 1 -5.72148 11.8606 -6.10767 18
216 1 -14.8595 -3.29957 -6.2474 12
217 1 -9.74066 -0.286518 12.9481 20
218 1 -0.449554 -9.86319 4.40315 22
219 1 3.30337 -14.7954 7.174 12
220 1 -15.2849 10.8314 4.95777 8
221 1 14.0327 3.09137 4.77652 14
222 1 6.04722 3.60652 -5.94219 20
223 1 -5.00154 -7.09424 -13.5486 17
224 1 4.1772 -1.84618 12.4746 17
225 1 6.40661 -17.5535 2.9024 11
226 1 -1.84766 6.9801 -12.6379 18
227 1 3.67701 -9.65056 -11.6774 20
228 1 9.60278 1.93378 -14.9872 9
229 1 2.60731 6.81507 -14.3241 18
230 1 -7.83388 -3.84025 -7.21339 20
231 1 -3.89436 15.8227 -7.27473 11
232 1 -11.3666 -11.8369 12.0411 13
233 1 7.53321 15.4798 -2.78797 8
234 1 -10.7681 2.84673 13.3948 17
235 1 -5.94724 13.0537 -2.45306 19
236 1 6.03541 0.702054 9.33971 17
237 1 -3.81853 -6.03238 -11.6283 18
238 1 -3.99972 11.0043 -7.98285 18
239 1 2.90971 4.663 -10.7359 22
240 1 -9.14019 -11.6629 7.63752 15
241 1 -4.52727 4.73997 8.53307 20
242 1 -6.32276 6.89616 8.33069 20
243 1 -0.0557123 -11.0377 -7.22685 16
244 1 -6.14995 -15.246 0.489338 16
245 1 9.57535 -13.2564 -1.98788 13
246 1 0.721291 -7.35314 -0.369327 20
247 1 10.4433 7.30201 13.1576 17
248 1 4.9124 10.4892 -9.21688 20
249 1 -0.716633 10.751 0.381329 23
250 1 -10.0305 1.40944 3.10943 20
251 1 -12.9994 13.0202 -1.40995 11
252 1 1.07704 5.13164 12.7148 19
253 1 3.63809 -18.3187 0.732024 13
254 1 12.4004 -0.354244 -2.75522 21
255 1 2.11269 7.82668 7.45731 21
256 1 -10.9515 6.19282 4.07245 21
257 1 -12.3151 -4.81183 -1.96576 19
258 1 5.83934 6.94783 -14.719 15
259 1 3.05074 -4.60097 10.4222 17
260 1 8.23624 10.0273 -10.4976 13
261 1 1.51252 -11.5575 -4.092 19
262 1 -3.35049 -0.888196 -11.2481 20
263 1 0.865047 -19.5655 5.25155 10
264 1 7.54647 0.669165 -6.39447 23
265 1 -11.0251 -3.11385 7.36967 18
266 1 3.93684 -15.2873 -0.612295 20
267 1 -10.0006 -5.85012 -7.28549 18
268 1 4.24332 13.3347 -1.68449 15
269 1 -0.405947 -2.05418 -15.9452 17
270 1 3.71809 4.51453 15.1337 24
271 1 14.4671 3.82148 1.72034 19
272 1 -7.2532 -6.1769 3.26355 24
273 1 10.8785 -4.7888 -9.70557 16
274 1 -1.18119 -6.53677 4.08197 20
275 1 -8.4843 -3.0919 -11.1357 18
276 1 -11.4379 1.82381 -9.18813 23
277 1 -7.79834 -16.6965 10.6135 10
278 1 8.81809 -0.393664 10.5213 17
279 1 4.969 -4.93502 7.99858 21
280 1 -6.41646 -9.28166 -12.4071 13
281 1 1.57317 -4.32968 7.22559 20
282 1 0.847209 8.32473 -12.5653 20
283 1 4.0471 7.69145 0.617626 19
284 1 -6.68849 -6.53592 6.76524 21
285 1 0.92216 12.374 2.49748 20
286 1 -8.29466 -2.80919 12.5258 21
287 1 -9.92054 -8.44863 -8.08204 14
288 1 -6.35868 -5.16249 -10.4796 21
289 1 -3.36911 7.1283 -15.4376 12
290 1 -4.51157 -12.2496 -6.53572 19
291 1 -3.99629 -10.0843 1.69618 19
292 1 9.22323 -4.74285 -12.6715 15
293 1 13.9977 -0.111206 -7.85317 12
294 1 11.3922 3.63086 3.78991 20
295 1 -3.75307 -4.88704 -3.03141 19
296 1 -11.4087 -3.38176 11.0926 21
297 1 -3.19881 -11.3747 -0.594771 20
298 1 6.68781 5.4152 16.2729 17
299 1 -6.63664 -16.164 5.69186 14
300 1 -0.954079 -12.2754 1.34306 20
301 1 -2.18057 16.4475 -1.66869 12
302 1 4.6613 1.15587 -13.0018 17
303 1 -6.99907 -4.32 -14.3213 13
304 1 4.02672 -6.74898 1.76922 20
305 1 -12.0885 -9.0056 13.2878 13
306 1 2.91379 9.12389 18.8323 13
307 1 1.15318 -11.7741 -0.915222 19
308 1 -2.87315 -12.6117 -12.2412 12
309 1 -11.4102 5.46853 -9.08361 20
310 1 9.45966 7.47012 5.76506 20
311 1 -7.69014 1.638 -10.2243 22
312 1 0.441187 6.93721 -9.90482 23
313 1 -5.47793 -4.53963 8.92246 17
314 1 6.22831 -14.5234 -9.79709 11
315 1 -4.9138 14.7262 -0.0108038 18
316 1 1.45606 9.72863 5.1441 16
317 1 9.88816 1.99247 6.13726 18
318 1 -11.2244 0.316181 6.07591 20
319 1 -3.43942 -8.75801 11.586 14
320 1 -6.71132 9.5704 3.5572 19
321 1 3.75084 -3.80121 -12.3516 21
322 1 13.0725 10.1292 -1.95225 18
323 1 4.21911 -12.2702 1.18565 19
324 1 -3.53792 -1.16744 15.009 15
325 1 -16.3942 -5.25435 7.23057 14
326 1 0.582137 -14.8522 -2.9337 18
327 1 -9.66707 8.56464 12.3135 12
328 1 -10.6288 5.82423 11.4163 18
329 1 -16.6895 -4.93092 10.2565 12
330 1 -14.1618 -6.93175 8.75926 17
331 1 13.4785 -3.4097 -2.6069 20
332 1 -12.5054 -9.26627 9.87927 19
333 1 9.00393 -3.54968 -7.24056 23
334 1 9.36623 -13.5865 -5.03791 15
335 1 2.95103 17.2749 -3.69951 14
336 1 -3.93359 -4.23463 3.78285 21
337 1 -9.93064 14.0214 -3.1169 12
338 1 -0.496699 0.810609 8.80144 17
339 1 8.9517 8.17474 10.6874 18
340 1 -9.41158 -1.73095 4.74463 18
341 1 7.86164 -10.1484 -4.02547 19
342 1 -3.33645 9.51817 2.31662 20
343 1 -6.98375 6.26321 5.16218 19
344 1 4.37428 -12.5185 8.51968 12
345 1 11.534 -7.46247 6.25173 13
346 1 -1.7461 5.42901 10.4015 22
347 1 -6.20843 -1.23507 -6.37679 21
348 1 -2.23299 1.23749 16.6543 13
349 1 -4.70357 11.5412 4.09708 19
350 1 8.23621 7.88413 15.6737 13
351 1 -8.70212 13.3313 -6.30892 10
352 1 1.23395 -3.72553 -17.3871 14
353 1 -7.02175 1.28658 -3.95943 16
354 1 6.82096 -9.12902 -12.3941 18
355 1 -10.477 2.48675 10.5635 16
356 1 -14.824 4.03906 3.63821 18
357 1 -1.39011 -3.38194 -7.71782 24
358 1 -5.90782 8.67758 0.815247 20
359 1 8.58584 -2.61565 8.20509 16
360 1 -9.68509 -11.6376 1.9294 17
361 1 7.7912 -10.0915 7.51153 15
362 1 -9.30974 -10.8602 13.7915 11
363 1 -15.3083 8.74272 0.577532 14
364 1 -2.75119 -5.64726 12.7843 13
365 1 3.93291 -11.5302 -5.57463 19
366 1 -4.40985 -3.13758 -9.90091 20
367 1 8.03827 0.19837 -12.701 16
368 1 3.37753 14.1162 3.53066 18
369 1 -11.1797 0.121335 -2.25177 20
370 1 5.74478 -6.73006 -12.8747 21
371 1 8.80967 4.08197 -13.1435 14
372 1 -3.90684 -15.0989 -7.5063 12
373 1 -14.3865 -6.66128 -4.20633 10
374 1 -3.01872 -7.86303 -0.997523 20
375 1 10.2755 5.16564 15.6822 11
376 1 11.8886 3.46676 -2.75125 22
377 1 -10.2107 3.68202 -11.0002 17
378 1 3.7867 17.5914 -0.093615 13
379 1 -14.9925 -0.394511 -4.50585 11
380 1 -9.09532 8.1957 6.01425 19
381 1 -8.92384 10.2838 1.21813 17
382 1 -3.93161 8.54662 8.16139 20
383 1 10.6787 5.03047 10.9811 21
384 1 10.8262 -2.95816 -5.15576 20
385 1 8.5548 -2.67461 15.6882 12
386 1 12.4209 2.06603 -5.60461 21
387 1 -4.84059 -16.0811 -2.26803 15
388 1 -6.1766 4.32392 -3.11418 16
389 1 -1.51321 -8.0689 -5.42566 12
390 1 -0.285389 7.62182 5.20999 21
391 1 -9.9684 1.51025 -4.6253 20
392 1 3.50723 -9.40383 0.155344 17
393 1 11.1987 -0.422263 8.29495 23
394 1 -10.7313 -2.79165 -6.86379 20
395 1 -7.25854 -9.12813 2.35302 20
396 1 -8.99041 -7.97923 14.1361 16
397 1 -3.6807 9.31461 -0.945784 17
398 1 -12.0713 -10.0039 -2.33713 10
399 1 6.39069 10.6343 15.1605 19
400 1 -7.41874 6.10904 -0.571222 17
401 1 -0.878289 12.3881 -8.86772 21
402 1 4.89034 12.1656 5.40943 18
403 1 -14.1889 -7.61669 -1.35881 10
404 1 -3.01159 -9.6861 -7.64764 17
405 1 -13.8219 -1.78991 7.86179 19
406 1 -11.2467 6.95044 -2.92117 19
407 1 4.64963 -10.6342 6.07673 18
408 1 -4.09075 -12.8454 -3.05572 20
409 1 12.8586 11.7153 9.25122 11
410 1 4.19348 9.46029 -15.1211 13
411 1 -15.2028 4.54281 -12.6198 8
412 1 -2.19049 16.2299 -10.5449 10
413 1 -10.5605 6.95727 -6.38721 21
414 1 -1.60234 -13.2794 4.30615 18
415 1 12.6279 5.96761 5.28023 22
416 1 -1.56654 9.66176 -14.1202 18
417 1 -5.77802 1.84669 8.85825 20
418 1 -15.603 1.84551 1.25167 14
419 1 -6.1734 3.74438 6.53212 21
420 1 -4.42233 -14.325 5.73399 20
421 1 1.27413 -4.99312 -6.04602 19
422 1 9.11897 -9.62182 -8.71598 21
423 1 -0.106539 -1.94715 7.26936 21
424 1 -13.0399 1.22061 3.32637 21
425 1 -16.4557 -1.51541 10.5129 13
426 1 -14.0633 8.17428 5.36383 15
427 1 -2.64855 -3.75504 7.26956 17
428 1 -9.98214 3.03022 -16.3326 9
429 1 6.7546 -9.99282 -6.50962 17
430 1 1.26394 -8.8703 -10.4311 18
431 1 -6.12522 -5.3714 11.8384 18
432 1 3.77336 -6.6951 -1.507 19
433 1 -6.5205 2.96208 -14.3647 18
434 1 6.9609 -13.2309 0.962023 21
435 1 0.931389 13.8718 -6.55566 21
436 1 -12.6606 10.8118 6.58384 14
437 1 -7.44058 -3.72014 17.2512 9
438 1 -10.3956 -5.48291 -10.3172 15
439 1 -7.52993 -6.80409 9.63819 19
440 1 9.15 -6.45373 12.0699 13
441 1 5.95022 3.98167 0.804331 18
442 1 -6.23051 3.1174 3.35559 17
443 1 2.19873 -2.46701 -7.81604 22
444 1 9.32024 -7.32022 8.38107 17
445 1 13.9471 8.46645 -4.35087 16
446 1 -3.22425 2.40414 13.941 19
447 1 1.49307 12.3801 -1.70231 22
448 1 6.20413 -7.59697 7.30698 18
449 1 -2.69721 -15.6172 -3.94045 18
450 1 -4.4257 6.96419 17.7033 10
451 1 -2.50541 13.8268 6.41685 17
452 1 -9.36073 -11.8135 -8.26376 9
453 1 9.22552 14.194 2.3239 16
454 1 4.89153 4.49695 9.24615 19
455 1 -9.7108 2.2259 7.56558 19
456 1 -6.20877 -7.58302 -2.86271 21
457 1 -12.4621 4.43158 8.51077 20
458 1 -6.51345 -10.4061 -6.88569 24
459 1 -6.74947 10.3023 7.58539 19
460 1 -5.87308 -14.2316 -5.1763 18
461 1 -1.82944 -7.16666 -14.4555 14
462 1 -7.26526 -14.2516 2.97454 19
463 1 -6.82191 -3.7213 5.47513 19
464 1 10.4916 4.97952 7.39183 19
465 1 -7.60685 -5.46377 14.5869 16
466 1 -10.3049 7.01431 -11.8844 20
467 1 9.13139 5.80009 -1.77486 21
468 1 -8.06393 -14.9502 -2.17644 12
469 1 -0.604967 4.60028 -6.15787 20
470 1 0.693136 16.7633 0.944735 13
471 1 -1.82915 6.54827 -6.94441 24
472 1 -0.889094 8.37401 13.1856 22
473 1 -13.4927 -2.04814 -0.15218 16
474 1 -0.101388 16.1902 -4.45388 18
475 1 6.28677 9.34626 -6.80094 18
476 1 -6.84572 -7.05586 -7.53458 18
477 1 2.94715 2.43454 16.9104 16
478 1 0.938096 -14.3952 -9.31993 15
479 1 1.11359 -3.09367 -10.4737 19
480 1 7.97028 -15.0296 3.11585 11
481 1 -11.6121 8.80622 1.91942 16
482 1 1.57882 6.86634 15.0898 22
483 1 10.3684 7.98008 -3.49995 21
484 1 3.80132 11.4379 0.749739 20
485 1 -9.63455 10.1557 -10.9502 13
486 1 2.75583 3.48194 -7.59902 19
487 1 1.07542 -8.06758 2.93115 18
488 1 -14.5284 -4.51739 0.254921 13
489 1 3.34878 17.6742 6.4632 10
490 1 -7.35757 3.96034 -12.0416 16
491 1 10.3531 7.52133 -0.0229247 19
492 1 6.62392 13.1884 -7.68289 16
493 1 9.10194 -6.8788 0.800269 17
494 1 16.3891 2.58117 -1.14126 10
495 1 -1.65415 2.05786 -11.1453 21
496 1 -1.50309 -8.77563 1.34886 17
497 1 2.05078 -12.7674 5.45831 21
498 1 0.829077 -10.4723 11.7852 7
499 1 -8.638 4.44939 -8.51699 21
500 1 -10.8155 -14.3873 6.98734 18
501 1 1.18974 -11.2378 -9.8267 17
502 1 7.91655 13.9465 5.8347 17
503 1 0.422903 4.6069 -12.7621 21
504 1 4.05729 -0.189475 15.9149 15
505 1 -16.1588 2.66369 12.2056 10
506 1 -1.49219 -17.5885 1.03485 17
507 1 -12.0001 -4.31648 2.16191 18
508 1 14.4361 -6.70161 -5.47308 13
509 1 10.0422 -1.62735 -0.932915 17
510 1 -7.77391 7.24539 -3.65884 18
511 1 3.37146 -8.43684 -4.78434 18
512 1 5.9293 4.2299 -12.0647 17
513 1 11.7862 -5.4318 -6.85599 21
514 1 -6.57537 -0.477664 17.3992 10
515 1 6.03166 13.8413 1.42844 17
516 1 -5.23182 -3.36004 -16.82 10
517 1 4.27514 2.61599 -17.103 15
518 1 -6.66529 -1.40167 9.77094 15
519 1 -2.55994 13.0148 2.05021 23
520 1 -8.88993 -1.74051 -14.1016 15
521 1 -16.1705 0.708377 4.58204 14
522 1 -0.60455 -9.88986 -15.9027 9
523 1 -7.34319 -11.0596 9.91495 20
524 1 0.336536 9.0552 -7.65764 20
525 1 16.5857 2.93533 10.4686 10
526 1 14.2802 4.67906 -0.930518 17
527 1 -9.03433 -12.1174 -1.68908 17
528 1 0.520631 -6.97862 -3.68552 15
529 1 -2.27719 -3.06407 -18.1383 11
530 1 -8.48304 9.55744 10.1125 19
531 1 3.8794 -6.83768 -7.72022 20
532 1 1.71015 6.31569 0.855713 18
533 1 10.8787 -3.74199 1.78235 19
534 1 4.20812 14.3611 -7.69412 15
535 1 3.70017 -9.58299 3.37696 19
536 1 13.4591 5.46138 -8.10984 16
537 1 3.39045 10.0221 15.0218 22
538 1 -9.4864 5.16344 7.63306 24
539 1 6.51915 12.6056 7.74689 17
540 1 9.47042 0.096162 17.965 8
541 1 -0.97496 1.00966 -14.7266 15
542 1 -4.34189 -3.98901 -6.0015 19
543 1 0.375625 -3.99582 12.3881 15
544 1 7.82077 10.6313 5.89383 23
545 1 6.7392 7.69737 -9.28497 22
546 1 -6.31807 8.97199 -8.27618 21
547 1 -0.698114 13.1256 -3.8084 19
548 1 11.3342 -1.60514 13.7538 13
549 1 10.0642 2.16562 -11.3466 16
550 1 11.1586 -10.8682 -3.87733 15
551 1 12.0026 9.88925 12.0646 13
552 1 -14.0642 -7.41828 1.98982 15
553 1 -6.64058 11.954 -9.18529 13
554 1 -1.86544 1.64941 11.8203 19
555 1 -15.1895 -0.168816 13.5662 11
556 1 -3.25895 13.5499 -9.75841 18
557 1 4.41799 -12.2448 -1.68952 21
558 1 6.60754 -1.70102 -8.45919 21
559 1 -3.30225 15.0211 -4.44556 16
560 1 -8.59583 -5.92451 -12.6482 12
561 1 3.90734 -17.1721 4.87297 16
562 1 -9.39844 -6.00609 0.107681 19
563 1 1.1157 11.3311 -13.7566 18
564 1 -6.07505 3.27218 -0.399872 21
565 1 -3.30584 10.0645 15.627 12
566 1 -10.9906 -6.31246 9.77413 20
567 1 3.93172 7.35067 -3.2868 16
568 1 3.0906 -9.60079 -7.97871 22
569 1 5.65212 -7.68583 13.1325 8
570 1 7.27961 0.772252 -3.30492 15
571 1 -10.7888 6.33998 0.760328 19
572 1 3.63165 6.15141 17.9289 16
573 1 5.35107 15.6069 -5.31138 16
574 1 11.6965 -5.91663 -3.71012 22
575 1 3.13914 8.26956 10.2928 20
576 1 -1.12514 3.88203 -17.3314 13
577 1 -5.32174 -13.7053 10.6742 15
578 1 0.176594 3.84903 -9.33097 23
579 1 7.03892 0.891077 -16.5201 9
580 1 2.63098 14.9131 6.62996 17
581 1 8.15018 5.03999 -10.5564 20
582 1 -1.22945 -1.84423 -12.9172 19
583 1 -5.86691 -10.3225 -1.30393 19
584 1 -11.5117 -2.79205 -11.4936 14
585 1 11.2648 4.0787 0.542523 24
586 1 13.5556 4.83592 -4.72872 19
587 1 8.80466 -6.51287 -8.07239 22
588 1 13.3369 6.98016 11.7273 15
589 1 5.42319 -9.44037 -2.71473 18
590 1 1.48986 4.2975 -16.0424 14
591 1 7.08354 11.9235 3.36962 21
592 1 -8.8898 4.197 4.30645 19
593 1 8.98002 10.5304 13.3683 15
594 1 13.0014 6.77737 -2.06026 16
595 1 13.8249 -1.75715 3.07837 13
596 1 13.0444 8.19487 -10.1984 11
597 1 9.40271 3.26702 12.8652 22
598 1 15.6949 4.97273 13.0177 10
599 1 -0.185077 -4.49897 9.24738 19
600 1 12.5374 13.1546 -3.92111 8
601 1 3.66261 2.68079 4.17191 16
602 1 0.759579 0.20726 16.1232 15
603 1 13.8779 -1.02175 -5.01149 16
604 1 6.75779 2.63322 11.0959 18
605 1 -6.44587 -1.24077 -9.23691 22
606 1 13.6265 6.60103 1.95952 19
607 1 7.99757 -4.79473 3.45475 18
608 1 -0.716528 -9.44109 -2.08868 15
609 1 -13.6084 7.94214 11.5495 7
610 1 9.9568 12.0552 10.663 13
611 1 11.1523 0.950017 11.7209 19
612 1 3.72403 10.7544 8.32001 15
613 1 1.11614 13.8825 11.2349 16
614 1 6.56645 2.98602 6.95687 16
615 1 -1.29962 -18.1909 4.20668 14
616 1 -7.00974 10.296 -3.19794 15
617 1 11.6938 10.883 -9.07569 11
618 1 9.87399 -2.07347 -11.4159 13
619 1 0.719372 15.468 -2.06562 17
620 1 -2.04307 -12.946 -9.06052 18
621 1 11.3964 -6.77179 -13.7513 9
622 1 -13.9318 2.07963 6.54872 19
623 1 -4.98891 5.90346 -8.47052 20
624 1 -4.07926 -17.1087 4.18376 15
625 1 -6.44457 0.119306 -12.6878 20
626 1 -12.5301 1.76582 -3.52598 20
627 1 8.89035 -7.61461 4.68213 19
628 1 13.3761 11.1735 3.68197 17
629 1 -0.395487 -7.42218 6.64163 22
630 1 -13.4697 -0.998128 -7.84515 16
631 1 1.1803 1.19975 -17.7799 12
632 1 4.64476 -4.12664 5.40081 21
633 1 -3.9862 4.48503 16.3408 15
634 1 5.85084 9.92553 -12.4523 16
635 1 13.8632 -1.29341 12.0649 11
636 1 8.54687 5.70046 -7.51742 20
637 1 12.9774 13.6988 2.55596 9
638 1 4.99668 -15.0069 -6.46394 15
639 1 -12.5989 -2.5512 14.5175 16
640 1 11.1418 -2.07274 4.66308 15
641 1 -1.35726 11.276 13.4489 15
642 1 5.4647 13.0693 -10.8758 11
643 1 -11.3358 10.8849 -3.17331 15
644 1 9.51035 9.55922 2.75663 22
645 1 -9.39524 -14.525 0.781863 13
646 1 12.4987 -4.60281 4.67955 11
647 1 6.99115 15.7588 3.57837 16
648 1 -4.48282 3.62658 11.3869 23
649 1 -10.3738 -7.47908 2.1161 17
650 1 -9.97312 -1.28877 -9.057 21
651 1 6.69702 0.422234 12.9411 20
652 1 -4.38567 -10.6484 10.5857 15
653 1 7.58295 5.53365 11.948 17
654 1 -5.25034 11.6598 0.225066 18
655 1 8.79942 4.35094 1.2328 21
656 1 7.88906 -3.59167 0.414907 23
657 1 8.60006 4.74928 4.90848 21
658 1 2.31787 0.41644 -15.5375 17
659 1 -10.1473 -1.39316 10.2771 16
660 1 9.2899 -0.177106 -9.17012 22
661 1 -4.66799 -7.62092 -6.00709 18
662 1 10.8257 -11.3804 -6.74125 12
663 1 7.86494 5.02397 8.85913 22
664 1 5.65826 5.73472 6.15813 19
665 1 -12.1553 0.271456 14.9884 12
666 1 10.1353 9.68797 7.83848 14
667 1 -1.20897 -3.33962 14.8508 10
668 1 -2.62037 5.13386 13.7487 21
669 1 0.369343 -4.04413 -14.0844 20
670 1 -7.18373 3.59823 13.3443 18
671 1 5.98996 3.63795 13.8597 21
672 1 -11.1415 -17.4544 8.79608 9
673 1 14.9059 8.5656 -0.665503 12
674 1 6.54999 -13.2281 -4.45399 19
675 1 -3.12556 3.83057 -4.59597 17
676 1 6.39244 8.27123 -1.48975 19
677 1 10.5361 12.2613 4.15856 19
678 1 3.06645 -0.324358 -18.9712 9
679 1 -1.53679 -1.94477 10.8328 16
680 1 2.79523 13.6881 -4.53754 23
681 1 12.3597 9.30812 1.59393 21
682 1 -6.35663 -6.99999 0.118661 19
683 1 -3.90261 -0.367033 -17.6567 9
684 1 -11.9785 11.6296 1.1138 19
685 1 9.05128 -7.29811 -11.2197 25
686 1 5.12975 5.25908 3.26403 20
687 1 9.73181 8.01815 -9.1826 18
688 1 9.78462 12.5618 -2.51358 15
689 1 -3.25387 3.81882 5.04315 21
690 1 -4.50816 6.1256 -0.799358 15
691 1 6.69287 7.01378 -4.22036 20
692 1 11.3618 1.84797 15.1378 15
693 1 9.12753 -0.197788 14.7005 20
694 1 -1.95609 -11.9095 9.73246 16
695 1 -7.4696 8.83266 -12.457 16
696 1 3.19153 13.2655 8.84499 18
697 1 8.3137 -7.12393 -14.9977 13
698 1 2.84067 0.905008 9.73269 17
699 1 5.12032 11.9265 -5.00548 20
700 1 7.83923 7.91243 7.58686 22
701 1 14.3831 -5.91957 -2.40339 13
702 1 6.04725 8.63767 17.3587 15
703 1 -13.6308 -4.41812 9.31651 21
704 1 1.54307 -17.2845 2.36958 21
705 1 -0.616223 -0.95598 -9.85827 20
706 1 -10.2016 13.95 1.81018 13
707 1 -0.439278 4.67315 6.77888 23
708 1 6.79175 -5.94606 -1.80025 20
709 1 4.01592 9.76865 3.4185 20
710 1 -12.7699 -2.05864 4.85098 22
711 1 -1.76876 4.20401 18.3267 10
712 1 -6.11744 6.78739 -14.1504 15
713 1 -9.56037 8.31314 -14.3358 10
714 1 3.5389 -14.5591 2.12955 19
715 1 8.88992 8.7935 -6.30961 20
716 1 3.06383 -7.4105 6.00738 23
717 1 -1.12307 7.34613 2.20155 20
718 1 -13.2632 4.49084 11.5818 14
719 1 5.15914 -1.24143 -14.6342 18
720 1 0.949116 -13.0973 9.14679 15
721 1 2.43854 14.4507 0.790387 21
722 1 -5.84215 1.67754 15.5994 15
723 1 -9.7592 -8.64709 -10.8225 11
724 1 -3.61571 -9.94409 -14.5341 13
725 1 -7.02166 -13.7167 -8.03046 12
726 1 -0.869341 15.6841 -7.70732 18
727 1 5.82968 -4.81337 -7.66375 19
728 1 -3.30614 11.2729 8.14836 16
729 1 6.25572 -10.9559 -9.74926 20
730 1 7.08877 -16.9163 -0.0471094 11
731 1 4.23347 -8.63115 8.85408 16
732 1 15.2898 3.14446 -7.12459 12
733 1 1.53463 -13.8291 -6.09788 17
734 1 -13.5068 -1.16158 10.8913 18
735 1 -1.14793 1.30244 -7.85036 20
736 1 -4.23313 -17.4703 1.39693 12
737 1 -6.88404 -10.8699 -3.9923 21
738 1 -12.3954 1.11231 9.13562 16
739 1 -7.3374 -17.3194 2.73743 11
740 1 15.5565 6.75869 -6.48133 12
741 1 -4.36893 14.4895 3.47712 16
742 1 -5.17452 -0.818412 6.97874 15
743 1 -16.4349 7.00825 3.81175 10
744 1 9.30223 2.10774 2.81577 18
745 1 -13.1842 0.195807 -10.7388 15
746 1 0.871733 10.7594 -5.16696 18
747 1 9.39394 2.89355 -7.91289 24
748 1 6.51898 12.27 11.9739 18
749 1 8.94212 4.84075 -4.34327 18
750 1 -14.128 1.9191 -7.20726 15
751 1 -12.4289 -4.62228 -5.33804 17
752 1 -1.91276 7.18297 16.7274 17
753 1 4.51787 7.22577 -11.7638 19
754 1 12.0302 12.9537 6.3737 9
755 1 -4.32415 -2.55057 12.0902 19
756 1 -1.63334 -17.4475 -1.91876 11
757 1 -8.52906 -17.191 7.39641 14
758 1 -3.42854 -6.65467 9.34328 20
759 1 14.4848 9.25645 9.70675 13
760 1 0.828543 -8.0165 -7.30988 17
761 1 -9.53088 9.03358 -1.32072 18
762 1 6.93545 7.76062 4.31738 21
763 1 -8.16748 -3.87806 9.0192 19
764 1 7.96704 7.09858 -12.7349 13
765 1 -1.35241 -15.3188 -7.00223 12
766 1 0.640779 -20.0078 1.65812 11
767 1 0.926045 -14.6024 0.44571 22
768 1 5.48558 4.661 -8.99762 19
769 1 6.7766 16.6943 0.397605 13
770 1 -3.82384 0.253636 -14.1022 17
771 1 -0.793105 -0.740098 13.9061 20
772 1 -0.512031 6.6495 -15.4228 19
773 1 -12.2268 -0.744271 -13.6638 12
774 1 -10.6154 -3.19431 -0.540299 20
775 1 2.39253 16.4887 -6.60801 15
776 1 7.48732 1.12559 0.911231 17
777 1 -2.45411 -4.454 -15.0797 16
778 1 -6.92643 -4.18983 -1.36445 22
779 1 11.6896 7.58458 -6.50547 21
780 1 12.0635 -7.30772 -0.230858 17
781 1 -7.45203 6.46868 12.1502 17
782 1 6.32472 -9.55648 2.41321 18
783 1 13.5695 -4.92131 0.769058 13
784 1 12.5011 -4.13349 11.0955 10
785 1 -0.698542 10.4819 7.88974 20
786 1 -14.1279 2.7083 14.2034 9
787 1 -7.54928 4.17038 9.86473 20
788 1 -2.82388 -13.996 8.50437 12
789 1 6.96119 1.61272 4.56203 16
790 1 5.54207 9.09675 12.9769 18
791 1 -14.8213 -1.31337 2.93521 16
792 1 9.23396 -7.90275 -1.97717 19
793 1 -11.4926 12.6055 -5.57996 10
794 1 2.36037 6.72726 3.65418 21
795 1 1.1207 -16.0281 4.72317 18
796 1 3.66301 1.23873 13.5964 21
797 1 0.154353 12.9782 5.62587 18
798 1 1.63475 -9.98125 6.76493 20
799 1 -8.35475 -0.752066 -1.63318 21
800 1 1.00975 1.10317 12.4699 20
801 1 -14.723 -3.61998 -3.26703 14
802 1 1.49204 12.4916 14.146 15
803 1 6.66063 9.51946 1.45663 18
804 1 -11.1142 -11.2976 5.53465 18
805 1 -3.78166 -17.3024 7.22635 9
806 1 6.28986 -6.09635 10.3945 18
807 1 11.5166 -7.2387 10.2192 11
808 1 5.43683 7.05469 9.15661 21
809 1 -2.79162 6.62607 -3.27376 19
810 1 -1.65115 -7.39995 -9.45759 17
811 1 -4.38806 3.46275 -10.9232 15
812 1 -4.671 0.150694 11.5309 21
813 1 -0.628945 15.2153 3.34244 17
814 1 12.2434 1.19367 3.12373 20
815 1 3.46439 7.77706 -9.23236 20
816 1 -3.66416 7.85176 13.9906 20
817 1 6.27684 9.56192 10.2997 22
818 1 6.94706 -2.35539 -11.0492 20
819 1 -7.2271 -12.0083 0.533052 16
820 1 -8.64262 0.804576 -7.65629 21
821 1 13.6572 -0.120492 6.05098 14
822 1 4.04923 -3.34399 -9.39652 21
823 1 0.324372 9.34107 15.9498 19
824 1 8.66346 -13.2683 -8.30219 12
825 1 4.59741 6.01983 -16.7768 12
826 1 -3.93717 -9.71153 -3.94823 21
827 1 10.987 5.27713 -10.2397 15
828 1 12.8598 -1.61271 0.0276226 18
829 1 1.62377 -6.87605 8.68061 18
830 1 -3.75583 -9.39644 -11.6818 18
831 1 7.56589 12.4799 -0.108561 17
832 1 -0.895146 -4.12576 5.4479 23
833 1 -13.54 5.7054 5.90734 17
834 1 10.8046 4.60934 -6.49987 19
835 1 16.4336 5.71665 4.37134 14
836 1 3.16642 -3.77043 -15.1234 21
837 1 -7.88907 11.4977 5.15557 17
838 1 15.6173 7.92472 6.67521 15
839 1 12.8458 13.4027 -7.26411 7
840 1 1.16383 2.2814 -11.8569 16
841 1 10.9234 -4.5114 -1.15033 19
842 1 -12.39 1.73299 0.0738001 19
843 1 10.5492 6.40249 3.13989 22
844 1 -11.587 -8.72125 0.115346 16
845 1 -12.2809 9.18032 -9.31459 15
846 1 3.39359 3.23165 11.7149 21
847 1 -11.8125 0.273457 -6.466 21
848 1 -11.6488 7.41497 7.52696 21
849 1 -2.79737 3.74055 -7.95081 18
850 1 11.803 -7.99042 -8.71142 13
851 1 -11.4052 -7.81347 -5.24347 12
852 1 13.1519 -8.95162 -2.75693 13
853 1 -15.6681 5.01174 1.26859 14
854 1 -6.76919 -4.43447 -4.49046 18
855 1 13.3307 6.53469 8.80063 18
856 1 -5.71319 -9.15145 4.59655 20
857 1 8.15977 2.52646 15.7541 20
858 1 11.0113 -4.57751 7.80801 16
859 1 8.90491 -0.995823 5.38881 15
860 1 -11.9349 3.88277 2.06182 20
861 1 0.592131 10.9511 11.0741 19
862 1 1.72587 9.71918 -10.2002 18
863 1 0.774175 -6.52118 -15.8706 16
864 1 -5.83115 13.6263 6.4036 14
865 1 -12.5758 -11.9761 8.75849 13
866 1 8.39912 13.2285 -4.93755 15
867 1 2.21607 8.52523 12.6432 21
868 1 16.209 -4.09382 -4.78916 8
869 1 8.05033 -8.83142 11.1844 10
870 1 -2.30426 12.8391 -12.6197 13
871 1 3.30325 11.7714 -7.48029 19
872 1 -7.97293 1.53864 10.9709 19
873 1 15.6599 4.35206 7.26642 14