ITEM: TIMESTEP
7000
ITEM: NUMBER OF ATOMS
2000
ITEM: BOX BOUNDS pp pp pp
-30.0 30.0
-30.0 30.0
-30.0 30.0
ITEM: ATOMS id type x y z Coordination
1 1 -9.08854 7.9513 -11.9476 11
2 1 -5.80354 -12.0907 -5.70524 16
3 1 1.84687 14.8457 12.6784 12
4 1 7.04426 -8.55774 3.0583 19
5 1 -11.1605 9.40503 -0.301124 20
6 1 9.60898 -6.88993 -9.74867 13
7 1 -17.2537 3.77315 -4.61891 10
8 1 0.880018 -0.96424 10.8043 17
9 1 -11.9252 -0.692899 -9.15803 20
10 1 -14.6701 -7.86225 5.51751 16
11 1 14.961 5.9245 -6.34211 15
12 1 -6.35139 -10.318 3.36268 18
13 1 -17.3097 -9.85307 4.64142 10
14 1 -1.96484 5.50235 16.1068 16
15 1 -0.54739 6.05747 7.75428 20
16 1 -2.63845 10.7757 -8.75256 20
17 1 2.73854 7.60652 16.2103 21
18 1 -8.56408 -2.29044 -12.2705 15
19 1 -13.9227 1.63425 14.7742 15
20 1 13.6019 4.00522 6.22557 17
21 1 -2.47863 10.3282 -11.6424 17
22 1 4.65145 7.81773 -11.8371 14
23 1 11.9564 5.11242 12.9171 14
24 1 -15.162 5.51034 -6.32081 15
25 1 -4.17681 -1.91978 -7.77652 19
26 1 -9.3253 8.31912 8.82378 18
27 1 5.9067 -9.53665 5.8519 17
28 1 1.6189 -12.9715 -8.58474 12
29 1 8.23316 -10.5839 0.0238303 15
30 1 -8.49378 -11.9878 -3.55075 15
31 1 -12.5601 -6.12625 10.6639 13
32 1 0.386615 -5.63722 -8.51502 19
33 1 7.8128 -9.03768 -7.8453 22
34 1 -3.96414 5.9312 -14.0343 16
35 1 1.5286 10.2617 18.5401 11
36 1 -1.33701 -11.1812 6.77992 15
37 1 1.94312 -3.34545 14.2881 17
38 1 -14.1117 -0.247143 2.58485 17
39 1 -15.8107 1.0156 7.78601 12
40 1 -11.4321 3.33707 0.270333 24
41 1 -4.92759 15.5919 2.68677 13
42 1 -2.53814 -15.4115 -9.7773 7
43 1 -0.287824 4.72127 -9.71573 18
44 1 4.1111 -3.16542 -7.91663 20
45 1 -0.264 -3.26344 16.1665 12
46 1 -12.5893 9.73935 2.62197 19
47 1 3.5956 13.6351 -8.54071 10
48 1 -1.59499 15.8565 7.20734 15
49 1 -10.5006 8.48253 -7.20038 19
50 1 -4.07072 17.0954 -0.169083 10
51 1 1.1831 -11.4107 1.18909 21
52 1 6.58158 -5.85118 -2.12805 20
53 1 6.20995 -5.61856 -13.9288 11
54 1 -9.78276 8.75773 13.1227 12
55 1 -13.6466 -2.91755 -8.44212 21
56 1 7.37805 -0.506964 5.4071 20
57 1 -10.8468 13.2666 -4.27129 17
58 1 -9.19401 -8.87957 4.5778 18
59 1 -7.06386 16.4677 7.97231 13
60 1 -12.7626 6.86151 -4.92448 17
61 1 -6.30069 10.614 11.3426 16
62 1 -11.1283 -13.462 6.51604 19
63 1 2.72581 5.36957 8.57314 22
64 1 7.50937 -12.6584 -4.37804 16
65 1 4.50669 14.4795 14.0168 8
66 1 -13.2413 3.73845 -6.80504 22
67 1 -12.4461 6.80837 -8.15515 17
68 1 3.58282 9.29171 11.3293 21
69 1 13.2089 -2.61941 -9.57615 12
70 1 7.56398 -11.2737 4.06709 16
71 1 -18.3257 -1.26928 7.47654 8
72 1 5.44354 19.0375 5.91288 8
73 1 -0.0770317 -5.58993 13.5276 16
74 1 -13.1619 -10.9009 5.77374 15
75 1 -12.3215 0.591565 -1.28467 21
76 1 10.429 5.17954 7.23055 16
77 1 -10.2735 15.1903 8.7547 12
78 1 5.00025 0.301071 8.10774 23
79 1 -3.34779 -6.85448 -8.23156 20
80 1 -11.7878 6.96239 10.4247 20
81 1 -10.3252 12.1908 -1.78001 19
82 1 1.40538 6.50979 -7.02507 18
83 1 6.88968 -1.53991 -4.32901 20
84 1 8.94851 10.5667 -9.23431 11
85 1 8.4803 -3.39403 6.28926 19
86 1 3.12903 -8.75761 7.75457 17
87 1 -9.77851 16.2468 -5.90922 9
88 1 -11.4708 9.87948 9.07491 19
89 1 -10.257 -1.89667 16.8818 10
90 1 -4.39593 8.02735 5.37065 21
91 1 -7.80989 -5.18471 9.61263 21
92 1 11.2757 -4.81187 -4.009 16
93 1 -9.57989 2.80129 8.11817 19
94 1 -12.9149 -12.3743 3.6676 17
95 1 7.87137 -4.23338 -4.67725 18
96 1 2.56018 -1.44479 -10.5046 20
97 1 -6.02907 0.601315 -12.1159 17
98 1 -0.876585 11.6247 3.79364 19
99 1 -11.0589 9.76529 -4.23262 22
100 1 0.711587 10.7967 15.3184 17
101 1 -2.31079 14.4255 -4.26699 17
102 1 -16.6193 9.43907 1.87917 9
103 1 1.10157 10.8047 0.961179 21
104 1 -6.18629 -6.77638 4.38918 20
105 1 11.5131 2.22936 11.1828 19
106 1 -2.27129 -4.22863 -8.32217 19
107 1 -0.328457 -2.94383 -11.6989 20
108 1 -3.69634 6.29756 7.9418 21
109 1 0.816301 -0.29793 15.6572 14
110 1 -14.4966 -7.10011 -2.10226 16
111 1 -9.39024 -7.16556 -7.06408 17
112 1 9.9692 -9.17852 2.25248 13
113 1 -2.46245 9.11486 3.0815 20
114 1 9.31035 3.6819 -13.3036 13
115 1 6.81504 20.659 0.237753 5
116 1 -9.34105 -12.0068 11.6479 11
117 1 -9.90461 -14.0192 9.48807 14
118 1 4.80705 -8.59088 -12.5805 14
119 1 4.07876 4.63729 -4.90534 20
120 1 9.20685 -7.31796 -0.429807 19
121 1 -7.75347 -18.4462 7.2008 5
122 1 -13.5374 -7.20521 1.14349 18
123 1 16.353 13.0352 14.2991 5
124 1 13.7565 -0.0890357 -6.96305 15
125 1 -16.5242 -4.85415 6.30737 16
126 1 10.0223 10.3991 8.81198 18
127 1 16.9977 10.6248 5.14918 13
128 1 -3.94485 1.59045 15.8205 18
129 1 -4.55951 11.9138 8.88318 18
130 1 -6.10909 14.8556 -3.39135 17
131 1 -1.96916 -5.72065 -10.959 22
132 1 9.08105 -11.8937 -7.10323 14
133 1 0.545944 11.6758 -9.52024 17
134 1 7.13339 -2.04172 15.8275 9
135 1 1.06958 3.29694 -16.5499 15
136 1 -2.39205 8.9146 -2.66757 18
137 1 11.1531 2.76321 -2.28602 19
138 1 -14.9498 5.66809 -3.31392 15
139 1 -10.4075 16.6366 -0.0869566 10
140 1 9.48547 1.40937 -8.50437 20
141 1 7.04774 -6.25818 5.78051 23
142 1 -7.6426 3.3131 -4.68925 20
143 1 -12.0213 13.1442 10.2174 10
144 1 12.0242 11.3825 -4.63056 18
145 1 6.24845 11.5646 -2.37989 23
146 1 -9.58358 13.148 4.76953 16
147 1 12.6456 11.252 1.18099 19
148 1 -5.2418 11.1054 0.445203 18
149 1 1.39432 14.698 -6.98082 13
150 1 0.613715 6.12988 -16.4756 11
151 1 -15.6899 -5.45886 3.13911 18
152 1 -17.4089 7.07931 8.40187 8
153 1 -5.93682 -1.90622 -11.0455 17
154 1 2.10036 -8.86048 -13.1227 12
155 1 11.1018 14.2031 10.3178 11
156 1 0.672106 20.0892 1.57624 7
157 1 -13.07 -1.47575 -3.08667 21
158 1 -13.3539 12.5799 0.546541 17
159 1 15.506 2.07422 -1.63732 18
160 1 -10.9194 3.62115 -12.5168 11
161 1 8.1438 5.05363 18.8474 11
162 1 5.39795 15.7225 6.24626 16
163 1 1.86098 11.5866 9.24897 17
164 1 3.32867 -5.89539 -13.9079 14
165 1 -3.71633 13.3226 6.72235 18
166 1 -3.5094 12.521 -1.69079 17
167 1 3.21812 -1.33451 13.2094 18
168 1 -13.614 -4.41157 5.0888 16
169 1 -3.26174 -12.1543 -11.6132 11
170 1 -10.1582 12.2651 -6.85745 14
171 1 -6.53346 -9.42758 6.5672 19
172 1 5.59476 -15.4698 -3.95824 12
173 1 -2.85998 10.9237 -4.79379 17
174 1 -12.0648 0.617643 12.0392 18
175 1 12.3307 12.186 -2.11438 17
176 1 -5.29888 4.73776 16.0336 22
177 1 -2.01901 -7.25485 11.4629 17
178 1 -13.0477 5.6312 -0.851205 18
179 1 -1.34412 18.3505 6.21876 7
180 1 1.16391 8.85164 8.90111 21
181 1 10.5576 7.54428 14.9847 12
182 1 -9.4643 15.8327 6.1415 13
183 1 12.3905 -2.84016 -6.55517 14
184 1 -5.43595 16.0475 10.5858 10
185 1 -6.32218 4.3638 -7.8217 18
186 1 14.7757 -5.76371 2.82834 10
187 1 -10.6216 -7.37431 1.9095 15
188 1 -17.556 1.25704 4.93036 11
189 1 -11.3711 -7.57327 5.17717 20
190 1 5.30053 8.35541 16.9734 20
191 1 -14.461 2.4212 0.389762 23
192 1 -4.73129 -13.7222 1.60751 19
193 1 5.06354 -12.2607 -2.90555 20
194 1 -2.92117 10.5988 5.96284 23
195 1 3.20088 14.7097 9.77581 17
196 1 -8.85049 -0.386547 -6.03879 18
197 1 -7.51039 14.1974 -6.70941 15
198 1 -19.8158 -1.27754 -2.89728 5
199 1 -9.57712 -1.34299 10.8355 19
200 1 -1.86917 -8.99178 5.09241 20
201 1 4.14336 -12.6908 5.9155 12
202 1 -15.3614 12.3346 3.34321 10
203 1 17.2364 5.20625 4.06935 9
204 1 5.56578 2.14772 -4.86985 21
205 1 -6.78525 -8.30792 -14.8879 8
206 1 4.01806 1.25272 10.8362 21
207 1 7.59303 -12.4594 6.65166 9
208 1 -5.33341 7.75721 -11.6977 19
209 1 3.80438 -10.1535 -9.75995 15
210 1 8.13108 4.31723 -10.2809 17
211 1 2.45284 8.56199 -13.5283 15
212 1 -7.94514 -3.6659 -5.82588 21
213 1 -5.40859 16.9542 -6.71347 10
214 1 -11.7307 -9.97939 11.2174 11
215 1 9.19758 19.5995 -2.43532 7
216 1 -7.46469 3.71422 19.0351 11
217 1 -9.58073 17.9766 -3.32177 9
218 1 9.05053 3.09974 8.58571 18
219 1 -4.11763 -7.12801 -13.1372 17
220 1 -1.81036 7.39139 -6.63043 17
221 1 2.14824 2.09747 -12.1565 23
222 1 -10.8582 -10.8062 6.51142 19
223 1 -9.58195 4.81188 10.0046 23
224 1 -9.26317 11.017 10.7121 16
225 1 1.65301 -9.25654 -8.0134 19
226 1 -12.0851 -12.5062 -2.74876 13
227 1 6.57748 -8.95163 -2.48467 18
228 1 10.1335 11.1433 14.8746 11
229 1 6.7344 13.8467 -3.61858 17
230 1 -5.47267 9.88822 -2.63823 21
231 1 -9.62974 5.52007 5.85982 18
232 1 -15.9793 10.6957 -1.10211 8
233 1 0.975212 6.45834 11.2166 20
234 1 4.0889 -15.8398 1.65722 13
235 1 8.9593 1.9265 0.193742 18
236 1 2.69932 7.65958 5.81847 23
237 1 -13.6826 10.8562 5.97514 15
238 1 -17.1785 -6.65378 0.824068 15
239 1 9.66316 7.48917 -9.06307 15
240 1 3.98587 -1.64441 9.81068 20
241 1 11.9361 9.68396 -7.63054 13
242 1 1.7114 -9.17199 -0.553306 20
243 1 -4.16662 0.882707 -9.7137 21
244 1 -3.73002 -15.9174 4.78369 12
245 1 10.8416 0.276358 -5.49921 17
246 1 -8.27853 0.380803 8.2667 23
247 1 6.0427 -15.2366 -1.22963 15
248 1 -11.7107 -5.45887 -9.85524 18
249 1 4.31611 14.6095 -2.62049 20
250 1 -0.337147 -0.0199123 -11.9781 18
251 1 5.77947 3.34872 19.0845 12
252 1 17.1452 3.76039 1.15834 11
253 1 10.3803 -4.04776 -9.30197 14
254 1 -8.4742 -4.3851 -9.73815 20
255 1 -14.1026 0.709283 -7.60444 19
256 1 -6.70638 -13.1002 9.5573 14
257 1 8.92367 3.55586 12.8936 21
258 1 3.47021 -3.33956 7.5937 20
259 1 -7.75309 -10.3463 -10.2099 10
260 1 -0.365394 -8.52761 8.65633 21
261 1 -2.65448 7.7623 -9.6006 18
262 1 4.17234 8.75823 3.35975 22
263 1 -8.57289 -4.96471 2.22129 17
264 1 -0.773747 13.4145 6.08784 18
265 1 -7.32138 -2.50696 12.1358 19
266 1 -14.5341 -5.62604 -7.6116 13
267 1 -6.27318 -6.92799 -9.85979 17
268 1 -4.13774 9.1058 -13.8951 11
269 1 -5.3262 -9.79033 -4.63015 17
270 1 -3.60247 -8.21402 2.55877 19
271 1 6.03251 -4.10204 -10.7821 17
272 1 15.3114 2.5822 -6.0732 12
273 1 13.8023 6.32859 4.71866 15
274 1 -10.2457 -3.88413 10.8729 18
275 1 -9.00462 -8.95044 -0.332265 17
276 1 7.61047 8.33412 19.3981 10
277 1 -11.3681 -15.1433 3.93774 13
278 1 -3.0481 -11.5074 3.25741 19
279 1 -0.556041 18.1847 -0.532918 12
280 1 7.72219 1.22939 -13.5165 17
281 1 -5.42235 -2.57796 -13.7478 12
282 1 -9.98968 -6.82021 14.0239 11
283 1 1.64238 7.45306 20.4281 8
284 1 2.1633 -12.4364 -1.91601 19
285 1 -4.33494 -12.6598 -9.08062 15
286 1 -11.4485 6.46547 -10.9 13
287 1 11.3204 8.11659 7.27491 21
288 1 -7.55544 10.3171 -5.93663 24
289 1 2.08266 5.90454 -11.8972 18
290 1 7.40937 -14.739 -8.45419 9
291 1 -6.35134 19.3621 -4.34736 5
292 1 2.66661 11.8514 3.07219 18
293 1 14.1946 0.764061 5.88259 12
294 1 -10.7899 -4.70997 4.7028 14
295 1 -4.67991 -6.30076 11.055 17
296 1 -7.88653 8.53563 6.17175 20
297 1 2.59321 -4.46326 -10.5664 18
298 1 16.5228 13.1129 1.0465 14
299 1 3.9289 -12.3483 3.29705 21
300 1 -2.88542 -5.09145 13.7647 16
301 1 -17.6455 -7.36797 6.9732 9
302 1 -2.14374 -16.955 -0.0373894 10
303 1 -6.79759 7.58072 16.8769 10
304 1 -10.3101 4.5142 18.1115 8
305 1 -16.6806 -1.32563 10.6589 9
306 1 -15.5151 -5.07186 8.8196 10
307 1 11.7174 -3.46311 -0.00517928 18
308 1 -11.9852 -8.37714 8.20983 17
309 1 9.37191 -2.31375 -7.06677 19
310 1 10.1281 -10.7136 -3.54376 11
311 1 5.81702 18.3492 -1.82116 11
312 1 -12.2068 14.239 -1.75353 12
313 1 8.41751 9.08842 13.0969 18
314 1 -11.2762 0.726556 2.05261 22
315 1 9.2126 -7.94914 -3.88346 19
316 1 -4.00563 12.3973 3.42147 20
317 1 -6.87889 5.99123 8.6797 20
318 1 5.25172 -6.35223 7.91857 20
319 1 12.4202 -3.47126 6.2883 11
320 1 -2.99955 9.19139 8.38109 17
321 1 -8.95652 -4.76967 -2.59646 18
322 1 -4.6031 -1.22387 14.421 19
323 1 -5.94213 15.2909 5.15723 17
324 1 7.51364 9.98242 16.1251 15
325 1 -9.05031 15.343 -2.22363 18
326 1 1.52891 -3.46662 -15.453 12
327 1 6.95302 -10.5992 -10.6158 11
328 1 -8.465 3.58013 14.0455 18
329 1 -14.762 1.89428 4.26144 18
330 1 -10.2024 -3.43501 -7.86786 22
331 1 -6.16584 9.48526 2.89945 20
332 1 8.90728 0.391452 7.88872 20
333 1 -18.3495 -9.86216 1.85884 10
334 1 8.00765 -7.5542 8.18095 12
335 1 -9.22843 -9.4694 12.592 12
336 1 -17.0618 10.4976 7.17003 5
337 1 1.94256 -3.90124 10.7918 22
338 1 2.52649 -11.5724 -5.8404 16
339 1 -7.00488 1.49577 -7.30093 21
340 1 10.308 -1.55835 -11.1626 16
341 1 2.81486 18.8164 -0.689152 13
342 1 -11.1453 1.32177 -4.44889 19
343 1 5.76829 -6.39056 -8.77062 19
344 1 12.5292 3.71937 -11.2996 10
345 1 -5.37708 -13.2217 -2.77458 20
346 1 -15.5464 -2.46114 -5.6377 15
347 1 -5.26551 -8.84372 -0.339012 20
348 1 8.31086 6.37045 16.5174 17
349 1 7.64882 8.42327 -1.67288 20
350 1 -9.38368 4.20676 -6.82952 19
351 1 6.1612 17.1185 0.456526 15
352 1 -17.4174 0.386623 -5.09305 11
353 1 -11.6897 6.11289 7.87488 19
354 1 -7.20719 12.7371 2.07164 18
355 1 -6.70823 2.63175 8.74669 22
356 1 4.8131 4.99565 16.0437 22
357 1 7.44177 0.39092 -6.09852 21
358 1 3.74279 -0.973279 15.9579 14
359 1 11.8989 2.67937 -6.92199 16
360 1 -8.2529 -13.8668 -1.25351 15
361 1 0.579909 -7.85344 -2.82714 21
362 1 1.04693 8.92957 3.30319 24
363 1 -11.2556 4.63185 -4.60342 18
364 1 5.29364 -10.7339 -0.0405595 18
365 1 11.9407 2.2267 7.56185 17
366 1 -13.3044 -3.41407 -5.0807 18
367 1 -11.1329 -10.216 2.68196 21
368 1 -8.60418 -4.08534 14.001 14
369 1 -2.09849 10.7961 0.810656 19
370 1 -13.1539 -10.0765 -3.05181 13
371 1 4.35655 11.4031 16.7286 16
372 1 -11.0128 7.09454 -2.3778 18
373 1 -0.78086 13.0678 -6.97344 17
374 1 7.60374 11.8049 5.20441 14
375 1 -15.073 -3.80009 -2.53188 16
376 1 -3.63601 -9.81445 -7.23469 19
377 1 -13.2297 -0.283867 5.72282 20
378 1 -14.1674 8.21516 0.418816 17
379 1 3.67103 -7.28723 4.86523 19
380 1 -5.8655 -11.678 0.0638763 18
381 1 12.5153 17.2317 13.874 4
382 1 3.34703 10.3787 -10.5616 15
383 1 -14.5554 5.30335 -9.75345 12
384 1 -1.74608 16.0431 -7.97586 12
385 1 -9.19506 6.64329 -4.37293 21
386 1 -4.38617 -12.0621 5.99614 16
387 1 14.337 3.30829 8.96948 9
388 1 0.529682 9.37122 -15.9607 8
389 1 -3.66651 2.70053 11.3391 22
390 1 -16.5257 3.40256 2.47927 13
391 1 -6.77271 4.1911 11.6305 22
392 1 -7.56585 -12.1917 6.90811 21
393 1 3.0827 -6.17124 -6.15052 19
394 1 -11.2128 2.75913 5.46101 20
395 1 -14.9001 -1.76211 13.539 11
396 1 -15.0085 7.0952 10.9477 12
397 1 -1.63501 -5.56587 8.01916 24
398 1 -8.38227 2.23313 -12.5582 15
399 1 6.43603 -7.00826 -5.55784 22
400 1 -1.1755 -8.16508 -9.44085 20
401 1 -4.31384 -3.12756 11.3711 18
402 1 -5.80155 3.91895 -14.1471 12
403 1 6.52726 -14.8763 4.56802 11
404 1 0.175569 11.5005 -4.28825 20
405 1 -12.9166 9.81964 11.719 11
406 1 -6.92603 -2.47346 16.0682 16
407 1 -14.0314 -4.60937 -11.0938 11
408 1 -9.41137 -2.7588 7.73246 20
409 1 8.89515 -2.1417 9.73574 17
410 1 -0.0941567 3.66182 -7.3483 19
411 1 9.06792 -9.36484 5.98575 14
412 1 15.5662 13.0633 -2.46722 11
413 1 -5.62561 0.396976 18.3668 12
414 1 -1.57507 15.6312 1.05191 13
415 1 8.07457 -5.14831 9.86892 10
416 1 -1.97672 -13.7513 -3.84346 17
417 1 -4.33435 3.80184 18.6809 11
418 1 -7.27719 13.8176 7.34513 18
419 1 -11.1598 -9.63115 -8.80336 10
420 1 9.59331 12.417 1.96421 16
421 1 3.85419 9.14765 8.09585 21
422 1 -6.91864 6.52566 13.6983 17
423 1 -7.81753 -7.46491 -3.43646 15
424 1 -11.9703 3.87275 12.4137 22
425 1 -12.2094 -7.42504 -7.50151 13
426 1 -5.9114 8.98146 7.72605 20
427 1 -1.9463 -8.73787 -5.41513 17
428 1 -3.25801 -6.53266 -16.0311 8
429 1 -8.03375 -14.4033 1.54909 16
430 1 -7.87775 -4.46667 5.61567 21
431 1 8.98907 2.40069 5.28554 19
432 1 -5.68499 -4.66808 14.2888 15
433 1 -7.3077 7.47849 -6.72378 17
434 1 7.21727 4.64698 -0.0609088 16
435 1 -10.8576 -13.5379 1.87281 17
436 1 1.8908 15.6989 -1.43681 17
437 1 -2.50196 5.39485 -11.2061 18
438 1 -1.53411 7.94186 10.6174 22
439 1 -15.081 -1.07687 -0.677476 20
440 1 2.70642 17.6671 -3.43486 12
441 1 6.85263 12.0827 -6.66727 15
442 1 -7.48994 -2.18286 -8.35474 16
443 1 3.01959 2.04195 17.3102 15
444 1 3.02713 -15.585 -5.88853 9
445 1 -1.27706 -1.57462 -9.24192 20
446 1 6.90039 -13.7575 1.56153 16
447 1 -9.76371 12.2966 1.16487 14
448 1 4.6279 8.83877 13.6732 21
449 1 10.2392 9.09294 1.6112 14
450 1 4.18373 10.9224 0.204953 21
451 1 -11.2314 9.85589 -9.5824 11
452 1 3.73302 1.94389 -9.64773 19
453 1 -0.56644 -8.76996 2.52613 21
454 1 -16.6352 -2.33938 2.68058 15
455 1 3.78023 18.474 2.57694 12
456 1 -7.8146 6.03787 -10.0647 17
457 1 12.6326 8.55581 -1.44996 20
458 1 7.74403 16.6324 -2.98422 13
459 1 8.97679 -6.04158 3.44876 19
460 1 13.3377 3.95577 -2.04029 17
461 1 -1.79703 2.60498 -10.2155 19
462 1 -1.60798 -11.6621 0.244623 20
463 1 -0.967369 -13.3887 8.27973 12
464 1 0.835867 -6.55803 10.7412 20
465 1 -11.1863 1.50111 -7.59759 18
466 1 -12.0505 -11.975 9.00593 13
467 1 -1.39957 -11.5091 -8.60253 21
468 1 8.41758 16.7593 6.60254 10
469 1 -4.7914 6.70743 -8.75391 18
470 1 2.83718 2.09482 14.6833 17
471 1 -14.8557 4.66787 13.1604 12
472 1 -4.83973 -17.7082 1.66465 11
473 1 -11.8281 -1.71797 0.303777 19
474 1 12.4698 -0.431565 -1.89415 19
475 1 8.64325 0.329649 -2.75485 20
476 1 -8.64905 9.79839 -2.91993 19
477 1 -0.62302 -5.95152 -5.23805 20
478 1 2.87143 8.15297 -9.19873 20
479 1 9.69577 -2.03996 -3.89072 22
480 1 -8.0225 -0.668284 20.0197 5
481 1 9.29499 13.9503 -1.47959 20
482 1 -3.29279 -1.49835 -12.0303 18
483 1 6.28937 3.13206 -15.6861 15
484 1 -6.43607 -2.67888 8.75911 19
485 1 -7.32513 18.299 -1.29287 11
486 1 -8.44506 -5.87879 -12.8075 12
487 1 -18.9933 -0.315928 2.79043 7
488 1 -1.77287 -9.1339 -12.4109 17
489 1 -7.42281 -10.0453 10.048 15
490 1 -0.175499 8.47862 -4.54817 20
491 1 13.9118 6.73381 8.7346 16
492 1 17.5036 9.55052 -1.40787 9
493 1 -13.5775 -11.4279 0.414818 16
494 1 -1.74361 -8.98304 -0.335393 20
495 1 -1.517 -1.98107 -14.6244 15
496 1 -8.17478 14.1288 10.5652 11
497 1 0.675373 -2.53595 -7.41594 18
498 1 11.7767 0.113619 2.19604 17
499 1 4.07783 15.4935 -5.47273 14
500 1 5.27197 -5.77065 2.86405 19
501 1 11.7173 6.44665 -6.66663 20
502 1 -1.78293 13.338 16.256 6
503 1 -11.6956 -0.890357 8.76407 16
504 1 6.96388 10.4254 7.74027 21
505 1 5.90181 1.47383 16.1118 16
506 1 5.01048 3.52512 -12.1576 21
507 1 -6.04891 -5.79301 -7.48552 19
508 1 -0.793837 2.00503 11.1787 14
509 1 11.0032 14.5885 6.48716 11
510 1 6.02318 8.41632 -4.55399 21
511 1 -7.89987 12.2582 -4.50675 20
512 1 2.68569 12.1127 -1.99912 21
513 1 8.74665 -2.91337 13.8047 9
514 1 13.9138 4.10042 -8.76303 13
515 1 11.8188 -7.65268 -3.37282 14
516 1 13.3591 13.777 13.1622 12
517 1 -18.2633 -7.02257 4.09311 15
518 1 -6.69675 11.8925 -8.20236 15
519 1 -1.15444 4.50969 10.5811 20
520 1 -16.0754 2.19586 12.0689 8
521 1 -5.30293 12.0035 -5.93923 19
522 1 2.81839 -15.6697 -2.42903 12
523 1 5.67497 -0.250911 -8.51228 17
524 1 -3.56767 16.483 -5.05195 13
525 1 -10.859 -5.20256 -12.8102 13
526 1 -1.37046 -14.1464 2.05973 17
527 1 -18.0108 -3.63703 -1.02285 9
528 1 0.810607 11.5495 -13.029 12
529 1 -4.2087 11.2032 14.232 11
530 1 -13.5678 -3.47835 11.0207 13
531 1 5.78814 7.46255 0.296553 19
532 1 -0.779325 -11.5904 -5.5939 18
533 1 3.5072 -5.6924 12.8613 14
534 1 -11.5179 6.99053 1.95047 21
535 1 4.97191 6.38246 20.0501 13
536 1 4.22191 12.4851 -5.73792 18
537 1 9.89352 -4.55184 -1.96836 21
538 1 5.20766 12.7921 8.26203 17
539 1 3.70342 4.57578 -17.5711 10
540 1 -4.50576 -11.5928 8.5595 18
541 1 -1.95896 0.814784 -7.33607 20
542 1 9.17079 1.86568 -16.0272 8
543 1 3.20924 13.8577 5.93257 18
544 1 8.98363 5.3672 -7.25133 22
545 1 -3.6189 -4.3675 -13.4034 18
546 1 -3.63408 -10.7667 -2.58493 19
547 1 -11.5229 -2.7499 -11.257 20
548 1 11.2057 4.8272 0.395323 16
549 1 14.7253 5.64419 -0.0307475 15
550 1 7.05755 -3.79909 -7.24843 19
551 1 13.3446 10.8685 13.2241 12
552 1 7.369 -10.0532 -5.16321 20
553 1 3.27512 4.94037 -14.0656 19
554 1 10.3211 16.1507 3.9196 14
555 1 -9.5601 3.62657 2.76533 19
556 1 6.49648 11.9428 14.0873 18
557 1 13.0644 8.3011 -4.83784 15
558 1 11.4626 3.31334 3.30832 16
559 1 11.1196 5.19007 -4.01818 17
560 1 2.95183 5.46906 13.3945 19
561 1 11.1513 8.9544 11.9098 17
562 1 3.74576 -7.55738 10.6562 13
563 1 14.82 16.1453 -0.380114 10
564 1 -0.573062 1.63938 17.3572 11
565 1 13.9982 0.97933 -3.95219 15
566 1 7.59858 4.40082 10.6023 19
567 1 -8.66002 -0.234281 -10.2494 17
568 1 13.1234 8.30855 1.2979 14
569 1 10.8097 -3.17757 3.37641 16
570 1 -9.95193 7.05558 16.0047 10
571 1 7.65193 12.2706 10.7853 13
572 1 8.98368 6.79114 12.1895 19
573 1 4.79042 10.7048 5.51634 21
574 1 -2.31781 11.4611 11.1363 22
575 1 6.6224 1.65586 10.2411 18
576 1 -2.1473 -17.9437 3.88094 9
577 1 -7.36555 15.2202 0.367691 17
578 1 10.0996 14.3434 -3.96498 15
579 1 5.18219 -0.267987 -11.6294 20
580 1 -1.4006 15.715 -2.01113 16
581 1 -0.657921 -14.6087 -7.20358 12
582 1 10.975 -4.18208 -12.2436 8
583 1 -13.6661 2.96539 7.1522 16
584 1 -4.58329 8.71582 -6.60145 17
585 1 -7.75843 -18.6421 3.60992 8
586 1 -8.80247 2.61774 -9.79868 20
587 1 -15.557 2.15631 -2.55379 20
588 1 12.371 -6.84852 5.57331 7
589 1 15.0681 11.0875 3.0552 17
590 1 -1.52336 -3.72125 10.799 21
591 1 -17.0331 0.313264 -8.14084 9
592 1 4.74656 1.71917 -17.914 9
593 1 -1.62874 2.75131 14.6866 14
594 1 6.38414 8.08829 -9.06917 20
595 1 11.5313 1.3411 14.0201 12
596 1 5.68034 5.71058 -7.03301 20
597 1 15.3025 13.941 5.38603 11
598 1 4.77962 -13.6261 -6.84438 13
599 1 -12.2247 -0.618189 15.3574 12
600 1 14.314 1.27229 2.99501 14
601 1 -1.19721 12.7524 13.4094 17
602 1 5.4115 11.378 -9.4874 11
603 1 -14.7109 8.86104 -4.18033 9
604 1 12.7262 12.9837 4.03059 18
605 1 -14.6592 -14.1113 -0.849271 8
606 1 14.8048 -2.39176 3.63675 11
607 1 5.99678 16.9803 3.77583 14
608 1 -3.36619 4.6519 13.4697 18
609 1 -12.8656 -4.23657 2.23755 19
610 1 -11.8105 -1.16483 -5.92948 23
611 1 6.72811 6.41472 14.0368 20
612 1 -4.82633 -9.28582 11.638 10
613 1 6.52145 9.43043 11.3071 18
614 1 -7.16947 12.7589 -1.64954 18
615 1 9.21161 8.47838 6.20058 20
616 1 8.22191 6.00388 4.97707 18
617 1 3.72019 1.76903 -14.9584 21
618 1 -11.4641 1.7008 9.48131 18
619 1 12.4095 2.72514 -14.437 6
620 1 10.7537 -8.71567 -7.11057 11
621 1 7.90273 7.86045 9.16855 17
622 1 5.84145 6.69415 8.36027 17
623 1 -10.3488 1.56451 18.6793 11
624 1 14.3069 7.67399 11.466 8
625 1 -2.11137 -0.940381 16.6037 14
626 1 -1.26027 6.63348 13.2129 18
627 1 0.594945 -6.60932 -11.6551 18
628 1 -5.68555 2.43574 13.5489 19
629 1 5.94779 3.52835 13.122 19
630 1 -10.7853 -16.3647 7.3969 9
631 1 15.4454 10.7219 -0.0441523 17
632 1 3.65445 -9.79283 -3.85164 19
633 1 4.45469 8.87896 -2.27662 22
634 1 13.095 13.8972 8.54589 11
635 1 5.38744 -0.510321 -14.8536 16
636 1 2.35764 14.1772 0.66194 17
637 1 17.9925 10.3381 1.79437 11
638 1 -10.6884 -11.5547 -0.850992 20
639 1 1.74791 0.113716 -16.7296 12
640 1 -9.69414 9.33875 2.70402 16
641 1 7.91043 -1.35212 -9.3921 19
642 1 14.6187 10.4911 -3.0434 15
643 1 11.0061 14.8459 1.76334 18
644 1 -7.75406 6.47036 3.04084 21
645 1 5.56659 5.73894 -2.59318 21
646 1 10.9545 4.55306 16.1243 11
647 1 7.80886 0.831172 13.7571 16
648 1 0.920055 -9.40037 10.9229 9
649 1 -5.02798 10.9362 -10.9752 12
650 1 0.332709 16.2849 9.54106 13
651 1 6.96575 -7.33415 -10.996 15
652 1 2.02992 3.47031 11.9257 17
653 1 8.5667 15.7624 0.859449 14
654 1 5.59777 11.6968 2.65615 18
655 1 13.6585 -5.51291 -2.60048 12
656 1 4.02449 9.42479 20.0348 11
657 1 -11.7445 -1.67387 3.78735 17
658 1 4.3653 -12.7164 0.522395 16
659 1 0.555284 1.05261 -9.25615 18
660 1 -12.7338 13.1249 3.9941 11
661 1 3.69102 15.5566 2.87973 15
662 1 -18.5004 -4.49733 3.41072 11
663 1 -3.70677 7.07528 17.8451 11
664 1 -6.79022 7.82183 -14.562 10
665 1 -7.75641 9.25287 -9.66295 18
666 1 0.647614 -14.3189 0.0266856 18
667 1 10.3499 7.9631 -3.94046 21
668 1 -12.437 5.0697 15.6318 13
669 1 2.17594 -0.711898 -13.7706 22
670 1 1.87818 -11.5094 7.7432 13
671 1 0.523769 14.8594 3.91219 18
672 1 -3.63194 -3.36458 16.3265 13
673 1 -9.40327 -7.66681 -10.4304 15
674 1 -4.62525 -10.392 -13.1035 10
675 1 -8.32506 -12.4575 -7.41971 8
676 1 -0.404242 17.1037 -4.99665 12
677 1 4.84526 -4.17705 -4.57431 20
678 1 -2.83599 14.5056 9.80661 18
679 1 3.8671 -7.20115 -3.18807 21
680 1 7.06954 -16.2399 1.13059 9
681 1 2.06943 -5.67101 8.16107 20
682 1 16.2407 4.40583 -3.93256 9
683 1 0.706653 -14.1301 -4.21011 15
684 1 -14.2965 -2.40868 8.337 16
685 1 -8.41565 -17.6826 1.04704 11
686 1 -7.28296 -10.5658 -1.97257 20
687 1 -10.8305 1.54274 14.4975 18
688 1 -11.1028 -15.8909 -0.691267 13
689 1 15.0927 6.92003 -2.82148 15
690 1 -1.41464 17.904 2.65965 14
691 1 -15.2232 9.29906 9.11808 11
692 1 9.15248 0.503314 2.96635 19
693 1 -15.1158 -1.19112 -10.9225 12
694 1 -0.286392 12.7408 -1.41004 19
695 1 12.5371 0.625871 -9.68727 17
696 1 6.5052 15.1501 9.46742 13
697 1 7.93508 5.52812 -4.21337 22
698 1 -16.2788 3.28165 -7.85134 14
699 1 -15.1183 -5.27521 0.0290882 17
700 1 0.324023 7.65338 17.1237 14
701 1 4.43412 9.43862 -7.10395 17
702 1 15.0025 11.7435 7.60654 12
703 1 -3.14919 -0.721861 11.0797 18
704 1 -5.64285 -15.5881 -0.656168 18
705 1 -10.8077 -17.9032 2.15346 8
706 1 -5.30045 -5.54001 7.54509 21
707 1 13.2066 10.2764 9.6579 16
708 1 1.40912 -8.99833 -5.2281 19
709 1 -7.81714 8.69787 0.360772 19
710 1 7.34801 8.83963 3.41065 24
711 1 -8.98306 -1.42595 2.77878 21
712 1 7.67354 8.27501 -6.56561 18
713 1 -3.71311 -15.9363 -3.68843 9
714 1 -1.59412 -16.4991 7.27359 10
715 1 -0.727459 -14.6686 4.79999 18
716 1 3.40483 3.21056 -7.34743 20
717 1 6.09828 13.8216 -0.120876 19
718 1 -3.22093 2.73251 -13.0699 18
719 1 0.823766 4.53174 15.2593 19
720 1 -0.985275 7.63562 -13.9229 16
721 1 -11.6608 0.0310204 -12.2366 12
722 1 -12.4187 -4.77095 -2.46356 21
723 1 1.90786 13.8983 -4.19346 20
724 1 -6.40958 -5.38679 -15.4012 9
725 1 -11.0388 -7.29071 -1.52318 19
726 1 9.85716 12.5206 -7.19807 11
727 1 11.4331 -5.96485 1.76337 16
728 1 -3.64705 5.58576 10.7876 21
729 1 3.92392 -9.00564 1.95193 18
730 1 14.9373 -3.9278 0.294508 15
731 1 11.2874 -1.27106 11.8323 11
732 1 1.60948 10.4491 5.95189 21
733 1 -12.8919 2.1039 17.2721 11
734 1 -9.74879 5.54335 12.7206 19
735 1 -8.45184 -14.9386 6.73555 15
736 1 9.21233 6.08579 1.98575 16
737 1 3.17614 11.8524 13.8764 22
738 1 -16.9524 1.60642 0.285543 11
739 1 8.4773 -3.93556 0.899289 20
740 1 -13.4412 11.2266 -2.72845 17
741 1 -3.78925 -14.4219 7.60683 12
742 1 6.43579 -1.66995 11.3112 19
743 1 -0.467242 10.6897 8.05253 19
744 1 -0.185489 -11.883 4.00847 20
745 1 -9.94183 -2.58917 -4.04519 18
746 1 4.69153 6.11818 11.0011 20
747 1 -16.5997 -0.928355 -2.90577 16
748 1 -1.50686 9.727 13.2233 17
749 1 7.52499 14.4191 3.24249 16
750 1 -15.0691 -10.7682 2.50204 13
751 1 -5.95002 -13.6206 4.44981 17
752 1 5.25662 -3.10956 14.4183 14
753 1 10.2712 -6.01821 6.51485 13
754 1 10.3432 11.1528 6.13622 15
755 1 -3.3274 -6.0185 -5.19658 19
756 1 -5.55962 3.20594 -10.3555 21
757 1 -7.73976 1.92665 16.393 17
758 1 -2.42937 14.8406 4.46728 17
759 1 10.8765 6.85396 3.81537 19
760 1 3.15404 7.80913 -5.49579 20
761 1 -3.89626 8.17361 14.8636 15
762 1 5.0377 12.3607 11.2734 19
763 1 7.12432 1.41722 -10.6735 20
764 1 -9.42268 -12.0974 4.55069 19
765 1 16.9341 1.74596 3.60374 10
766 1 2.44448 0.126352 -7.43294 21
767 1 1.40473 8.50707 13.6415 20
768 1 5.97485 -11.5552 -7.87624 17
769 1 6.99201 6.1385 -12.5838 8
770 1 -2.80216 -7.86273 -2.61271 22
771 1 13.1401 6.75525 -9.35685 10
772 1 14.4827 -0.90106 0.505106 18
773 1 -1.17251 -2.26673 13.4827 20
774 1 -4.51618 -9.63483 -10.0265 19
775 1 7.52425 10.8609 0.117683 21
776 1 -15.0103 5.59077 7.06154 15
777 1 9.30391 5.71127 -1.48506 18
778 1 18.9852 8.38917 4.5375 7
779 1 2.78568 -7.39455 -10.0292 18
780 1 -9.43865 11.1154 6.93703 14
781 1 15.6974 16.365 13.0114 6
782 1 11.2187 16.702 -1.29036 14
783 1 4.30877 5.09852 -9.76686 20
784 1 9.89306 -1.32871 -0.578691 19
785 1 -13.0658 3.59067 2.92 20
786 1 12.8448 9.32833 4.7119 14
787 1 -15.8804 -9.03887 -0.569972 13
788 1 -12.6849 10.7261 -6.18316 13
789 1 5.06609 3.4942 8.44739 18
790 1 -14.0654 1.33162 -4.54383 22
791 1 -12.8859 5.4584 5.0937 18
792 1 -6.14325 5.90639 -4.32451 16
793 1 9.18447 -6.33487 -6.02647 17
794 1 -13.0851 -7.04873 -4.62696 15
795 1 14.0556 -7.20536 -0.24494 9
796 1 -14.932 6.62842 3.23737 16
797 1 -11.0617 -4.91163 -5.57541 19
798 1 17.3791 9.33272 7.57965 9
799 1 -8.7692 -11.1524 1.64058 20
800 1 8.04963 3.42114 16.108 17
801 1 11.6014 -0.806125 8.71458 15
802 1 11.2597 -0.35856 5.88084 18
803 1 -14.4483 8.45538 4.67003 16
804 1 0.26049 13.5058 10.8075 16
805 1 3.21803 10.3222 -4.02659 18
806 1 -0.34944 -5.33558 -14.0526 15
807 1 -6.19137 11.4028 5.23173 21
808 1 -8.36829 -7.54603 6.86189 19
809 1 9.94437 10.4338 -2.12789 20
810 1 0.733839 10.4676 11.8237 20
811 1 15.6494 -1.05007 -1.75734 11
812 1 5.07473 -4.14433 10.646 20
813 1 -3.91135 14.0168 -8.13448 15
814 1 0.16566 9.567 -8.11777 17
815 1 -6.04863 0.537447 11.2793 19
816 1 16.2465 5.72124 6.80662 12
817 1 -4.29184 -4.52301 -10.4703 18
818 1 14.2482 14.3575 2.13621 16
819 1 -16.0822 5.17613 -0.0802385 13
820 1 -5.79843 -8.18882 9.09197 19
821 1 0.0610841 9.1396 -11.1483 20
822 1 6.48766 -2.58028 7.83942 24
823 1 -2.76736 -14.2004 -0.552783 18
824 1 -8.80219 15.4798 3.02278 13
825 1 -17.1282 3.70002 6.46535 13
826 1 13.6192 -2.54577 -4.07536 15
827 1 0.53948 -10.9001 -10.6452 14
828 1 -11.1105 8.51322 5.17391 17
829 1 13.3996 15.1806 -2.75642 9
830 1 -9.7646 -0.0666337 5.54041 23
831 1 7.89166 -2.47624 -13.3588 13
832 1 -6.88748 -9.13254 -7.83154 16
833 1 -0.552636 -11.6036 -2.29338 20
834 1 -5.89554 13.2538 11.9259 10
835 1 8.19032 -13.1728 -1.1044 13
836 1 -1.75454 13.2759 -10.2817 12
837 1 8.90735 2.5772 -5.33442 21
838 1 5.33554 6.078 3.32873 21
839 1 1.45997 -17.9828 3.13659 5
840 1 4.45514 -3.20192 -13.2959 16
841 1 12.7823 2.19992 0.312436 19
842 1 -2.20262 4.21919 -15.3793 14
843 1 -3.11733 -8.23524 8.23289 22
844 1 8.75624 10.9422 -4.52347 18
845 1 6.4691 3.09119 -8.06523 21
846 1 -9.57803 3.73419 -2.25353 21
847 1 -13.4879 4.08859 10.1494 18
848 1 2.65097 5.25464 18.2398 15
849 1 -10.3069 -7.51386 10.1826 19
850 1 5.87257 7.82478 5.99185 24
851 1 1.78916 -14.3989 6.10752 11
852 1 1.12703 9.19991 -2.00595 21
853 1 -4.8564 8.3171 10.788 18
854 1 -9.06735 1.69538 11.7089 25
855 1 -12.0011 13.2854 7.04877 13
856 1 7.15375 2.92484 -2.31199 21
857 1 -7.07509 -7.55702 13.7192 11
858 1 1.84476 -9.41804 4.60283 17
859 1 11.2349 11.9551 11.5081 15
860 1 6.53035 -2.50302 -1.07569 18
861 1 4.56895 -8.62045 -6.80209 21
862 1 -11.9361 3.71441 -9.35263 19
863 1 -0.393049 1.28618 -14.2796 18
864 1 3.98688 16.418 8.13812 16
865 1 -11.8622 -3.71249 14.1465 14
866 1 -7.79285 6.70927 -1.86375 19
867 1 -12.7291 3.51291 -2.31301 22
868 1 13.4991 17.5009 2.7847 7
869 1 -13.1381 -15.4906 1.36193 12
870 1 -0.842486 8.1957 5.93115 24
871 1 14.8106 8.78654 6.7959 19
872 1 -12.0034 -11.1472 -6.07351 6
873 1 1.32008 16.1384 6.79845 16
874 1 -7.83857 0.00559547 13.9432 19
875 1 -3.75459 -13.6088 -6.44063 17