ITEM: TIMESTEP
22000
ITEM: NUMBER OF ATOMS
500
ITEM: BOX BOUNDS pp pp pp
-30.0 30.0
-30.0 30.0
-30.0 30.0
ITEM: ATOMS id type x y z Coordination
1 1 -0.68041 0.119688 1.83561 26
2 1 -9.70291 4.27434 3.66054 13
3 1 -13.7105 -1.90338 -2.50077 19
4 1 -5.75447 -0.244177 -14.628 22
5 1 -15.499 0.719546 -4.32944 14
6 1 -3.06123 1.58819 -14.2166 19
7 1 -1.93246 -6.70217 -11.0551 14
8 1 1.45822 1.24432 -1.04108 20
9 1 -6.80153 5.62225 2.49054 16
10 1 -16.2227 -3.83127 -3.09222 11
11 1 2.31431 2.62219 -10.9295 16
12 1 -1.04173 3.05975 3.65518 18
13 1 -11.1093 -3.25619 -3.12348 22
14 1 -10.3189 -5.1596 -13.6036 11
15 1 2.52465 -3.15926 -11.1531 13
16 1 -0.948643 -5.52708 -1.66199 14
17 1 -8.69496 9.64569 0.390363 13
18 1 -3.02532 10.9528 -5.95328 13
19 1 -4.21285 -3.8845 -15.2359 15
20 1 -9.37698 1.74183 1.98685 19
21 1 1.9912 -4.09617 -1.54433 12
22 1 -10.378 7.40901 -1.66709 19
23 1 -3.55397 7.16584 -11.2601 16
24 1 4.79237 5.64286 -6.22401 8
25 1 -6.05672 8.22162 -9.90701 16
26 1 -8.84739 4.34618 -12.8535 17
27 1 -6.22425 11.2239 -4.84679 12
28 1 -15.5136 6.09741 -0.971304 11
29 1 -4.2095 7.26284 1.86995 18
30 1 -8.41153 -0.194219 -13.1409 19
31 1 -10.3317 -6.0241 2.07927 12
32 1 -3.44977 -9.9583 -9.51375 8
33 1 -14.473 -1.67213 0.954674 17
34 1 -13.6867 -0.127049 -10.8788 12
35 1 -5.28735 -7.98791 -4.0916 13
36 1 -0.486386 6.27476 -10.7702 17
37 1 -13.0673 -4.83687 -8.24538 13
38 1 -4.41051 2.20941 -16.7559 14
39 1 -5.36022 9.78637 -7.93828 12
40 1 -15.0304 0.807183 -1.32265 19
41 1 -5.32579 9.17517 0.0242963 15
42 1 -1.55196 -0.443124 5.15115 17
43 1 -4.53825 -6.76216 -9.98451 17
44 1 0.177157 3.00972 -12.7733 18
45 1 -0.286012 -2.47349 6.16821 9
46 1 -4.77605 -4.75684 2.84121 19
47 1 1.43495 7.30685 -4.43237 12
48 1 -11.4352 -5.84833 -1.34713 17
49 1 -12.5217 -7.7635 -3.46533 10
50 1 -11.443 -0.262919 2.35902 18
51 1 -13.9927 -1.75115 3.92132 9
52 1 -3.13708 -6.95415 -2.68564 15
53 1 -13.5279 -4.56196 -0.786601 17
54 1 -10.7144 10.2645 -1.72162 11
55 1 -12.381 5.4698 -0.906355 21
56 1 -10.3117 7.28927 2.39763 13
57 1 -12.063 -3.15164 -10.7731 12
58 1 -12.9711 2.63759 -9.19284 16
59 1 -8.25392 -2.60702 -14.8409 15
60 1 1.04638 1.07616 5.27729 12
61 1 -7.11347 -2.67505 4.54719 13
62 1 -6.22159 -2.84324 -12.7683 22
63 1 -14.0755 -2.63856 -5.24553 20
64 1 -9.1137 -7.03896 -3.59023 19
65 1 -12.1643 4.86467 2.0275 17
66 1 -4.34136 -6.65291 -13.4334 14
67 1 -7.29018 11.0678 -1.98392 14
68 1 -15.0063 0.856117 -7.70954 12
69 1 -14.7841 4.49624 -7.25135 13
70 1 -6.90496 -5.49881 -11.8291 17
71 1 -2.90585 -1.91534 2.89985 21
72 1 -9.04248 7.19275 -10.5971 12
73 1 -12.6621 2.71584 4.21497 8
74 1 -17.1735 2.61808 -0.67398 10
75 1 -3.47365 -4.08955 -11.7534 23
76 1 -7.05546 -6.2474 3.77711 10
77 1 -4.08745 -6.6577 -6.73457 20
78 1 1.68841 4.44985 -6.15638 20
79 1 -0.580983 0.345513 -14.3131 14
80 1 -1.50893 -4.64322 3.08181 15
81 1 -8.99331 -6.78777 -10.5509 10
82 1 -10.8612 -3.23546 0.750181 24
83 1 1.92956 4.46112 3.54857 11
84 1 5.47844 4.12143 -3.19002 10
85 1 -3.97264 4.60003 -12.8399 17
86 1 -3.56904 5.39835 -16.047 9
87 1 -1.56675 8.94247 -3.64319 16
88 1 -1.27928 3.34849 -16.2345 10
89 1 -5.40735 -8.69189 -0.507645 13
90 1 1.23676 -4.06564 -4.91087 12
91 1 -10.0681 -9.27116 -6.15301 11
92 1 -11.0723 4.41182 -11.4325 12
93 1 5.55293 0.391414 -4.28801 8
94 1 -10.3 7.66923 -7.46095 13
95 1 -1.14146 -5.17892 -13.894 13
96 1 -10.9119 -2.90836 3.77968 15
97 1 -3.70711 -9.9113 -6.64113 9
98 1 -0.0294441 -2.44457 -12.5248 19
99 1 1.10805 -4.59194 0.810029 10
100 1 -9.08139 -3.38534 -11.479 22
101 1 -5.11663 -0.566999 5.31171 13
102 1 -6.70099 2.54766 3.63727 17
103 1 1.98352 -0.217495 -12.5677 14
104 1 -14.9795 4.04393 -2.91099 16
105 1 -1.22159 7.96661 -6.40354 16
106 1 3.22492 0.0907042 -9.42606 13
107 1 -6.11234 2.62874 -12.877 23
108 1 -14.7521 3.84796 0.74794 14
109 1 -3.52694 -3.49081 5.51706 14
110 1 -11.1557 1.34143 -12.0712 15
111 1 0.32888 -2.33045 3.10452 16
112 1 -3.81932 4.53762 3.48966 16
113 1 -3.66715 -6.00307 0.549187 20
114 1 4.26973 1.37861 -2.29301 15
115 1 1.55048 1.44126 2.23009 15
116 1 -5.88504 -2.95273 -17.0273 10
117 1 -1.01837 5.80891 2.30311 16
118 1 -6.68348 4.90244 -14.8882 11
119 1 -9.85759 -6.36838 -7.00784 18
120 1 3.24549 6.93348 -1.6513 12
121 1 -12.3922 8.70338 -3.70564 14
122 1 2.29409 5.58302 -8.939 17
123 1 -2.88586 2.06855 5.37535 8
124 1 -3.07188 -0.681155 -16.0319 13
125 1 -0.475666 -5.26853 -8.09008 15
126 1 1.31552 8.93752 -1.32859 11
127 1 1.63077 -3.62904 -14.5557 8
128 1 -1.33427 -2.85141 0.142184 26
129 1 -12.495 2.35519 0.852197 19
130 1 2.25399 -1.1458 -3.15265 17
131 1 -2.69983 9.95112 -9.46623 12
132 1 4.76729 3.31659 -9.15403 10
133 1 -8.51972 -0.502228 3.7772 17
134 1 -8.2609 -3.78975 2.37016 20
135 1 -13.8156 7.71535 -6.65871 11
136 1 1.28734 7.19264 1.33151 13
137 1 -13.1436 -4.52108 2.66562 10
138 1 2.83807 -0.322392 -6.35054 14
139 1 -11.109 -3.45551 -6.03944 21
140 1 2.32835 4.09304 -2.79557 20
141 1 -1.48478 -5.87978 -5.18807 14
142 1 -3.76793 10.3943 -2.65946 16
143 1 -15.7764 -4.73487 -6.4933 11
144 1 -1.01332 5.72926 -13.4776 13
145 1 -11.2448 -1.64268 -13.3246 11
146 1 -3.12155 -1.44846 -12.8303 25
147 1 -6.5566 -9.48702 -7.30936 11
148 1 -3.94216 -7.74243 2.75354 10
149 1 1.99894 -2.86533 -8.3141 13
150 1 -17.5054 -0.72194 -1.97868 8
151 1 -7.77689 2.28875 -15.7205 11
152 1 -12.716 -6.83534 -6.78413 13
153 1 2.20378 -1.41112 0.398407 15
154 1 -7.12311 -5.59654 -15.0861 12
155 1 -12.8647 8.09863 0.473014 11
156 1 -15.3326 1.29083 2.18296 13
157 1 2.29894 4.30256 0.459493 17
158 1 4.3187 2.54827 -6.01941 16
159 1 -6.93578 -6.67006 1.18854 20
160 1 -0.443444 0.393618 -10.9115 24
161 1 2.10803 5.67883 -11.8601 9
162 1 -1.60545 8.32896 -0.147424 17
163 1 0.368061 8.47934 -9.48673 10
164 1 1.23978 2.20445 -8.25699 20
165 1 0.810168 -5.68021 -10.6409 13
166 1 -7.11815 9.0409 2.76087 9
167 1 -9.2368 10.0683 -4.87545 15
168 1 -9.18706 -7.62195 -0.822628 14
169 1 -1.21871 -8.08726 -8.55918 11
170 1 -13.5975 -5.29129 -3.75029 17
171 1 -15.1664 6.82254 -4.46381 12
172 2 -14.7982 -0.528649 2.72383 11
173 2 5.44537 2.24981 -3.50629 10
174 2 -14.675 -1.07181 -4.24491 19
175 2 -5.66145 -7.33499 3.15406 11
176 2 -3.43334 0.100778 5.56943 14
177 2 -9.06107 8.84296 2.20801 10
178 2 -4.878 -10.0528 -8.24153 10
179 2 -9.59148 0.430497 -11.3363 19
180 2 -4.32505 -2.74926 -13.4573 21
181 2 -11.5681 8.65213 -0.884742 15
182 2 2.32846 -3.19794 0.0915421 11
183 2 2.08243 8.16252 -2.87755 10
184 2 -6.83051 9.67232 0.989801 11
185 2 2.1464 7.72628 -0.288558 12
186 2 2.95536 4.56725 -10.469 15
187 2 0.170569 -0.57531 -12.8961 19
188 2 -10.2372 2.90588 -12.3984 14
189 2 -2.77853 -6.1343 2.4416 10
190 2 -14.1325 -0.708715 -0.8217 20
191 2 -0.446598 -6.04239 -12.3491 14
192 2 -11.1216 -8.08863 -7.15697 13
193 2 -3.50763 8.27644 -0.00932528 16
194 2 -2.19453 -2.44335 6.35035 12
195 2 -10.5259 -6.7214 0.222828 14
196 2 -4.79018 -7.95793 -2.19329 12
197 2 -11.216 -4.4261 2.74948 14
198 2 -10.1782 -8.60623 -4.33569 13
199 2 -12.8047 -6.83375 -4.94155 17
200 2 -8.83845 7.83776 -2.83297 22
201 2 4.51586 4.32068 -4.87868 15
202 2 -3.06996 3.65196 -16.9797 9
203 2 1.23822 5.21447 -4.32572 20
204 2 -7.66296 10.3688 -3.68644 15
205 2 -11.9699 6.84516 1.65384 14
206 2 -3.42747 10.242 -7.85336 13
207 2 -1.48867 10.0417 -5.29823 11
208 2 -11.6485 4.1664 3.82047 12
209 2 -5.1469 -2.46858 5.15538 12
210 2 2.00528 -3.07113 -12.936 11
211 2 -3.79914 -5.88302 -11.6326 16
212 2 -9.10405 -5.59998 -12.0675 12
213 2 -14.3204 -5.83472 -7.2834 12
214 2 1.67998 -3.684 -6.62299 10
215 2 1.73557 5.06127 -1.10911 17
216 2 -4.10371 -0.221789 -11.154 24
217 2 -2.26824 -0.50102 -14.2285 18
218 2 -10.7524 -3.49617 -12.8207 11
219 2 -0.112502 -3.80472 -14.0283 11
220 2 1.73826 1.83146 -12.7649 14
221 2 -11.654 -3.92376 -1.11419 19
222 2 -3.92818 -2.35128 -16.4205 11
223 2 -6.23368 -5.9919 -13.5082 15
224 2 -4.24977 2.3672 -12.8916 21
225 2 -13.0943 -6.43917 -2.24596 12
226 2 -11.4017 7.09054 -4.08637 21
227 2 -13.8914 -3.56866 3.95568 8
228 2 -14.5456 1.53781 -6.0372 16
229 2 -1.20037 -1.0767 3.43025 21
230 2 0.961098 4.11857 -7.91502 18
231 2 -5.26798 10.6126 -1.52786 13
232 2 -6.6984 -0.728149 3.99427 15
233 2 -15.8234 4.07144 -0.850836 13
234 2 -12.7677 1.51912 -11.051 12
235 2 4.37797 0.518079 -5.81828 14
236 2 -14.4996 -4.2493 -2.32669 16
237 2 -6.69294 4.39711 -12.6208 19
238 2 -1.16577 2.02945 -14.8021 15
239 2 -15.3343 6.2273 -2.81717 11
240 2 -0.37144 -6.65717 -9.65255 11
241 2 -4.36386 -9.2103 -5.07001 12
242 2 -10.8231 9.91402 -3.64632 12
243 2 -0.516536 -3.68292 1.56542 17
244 2 -2.88918 5.86411 2.64091 15
245 2 -6.45002 10.191 -6.51877 13
246 2 -11.2282 -1.47596 0.90448 19
247 2 -1.94309 6.68263 -12.1456 14
248 2 2.71068 -1.16549 -10.8845 14
249 2 -3.00961 2.651 3.44212 20
250 2 4.18289 5.04646 -2.2831 12
251 2 -0.570086 7.0683 0.84614 15
252 2 -15.7147 -4.70813 -4.60996 12
253 2 -6.03391 7.47161 2.53519 13
254 2 -1.07678 1.62304 5.03164 13
255 2 -4.25618 0.748258 -15.7378 17
256 2 -5.67722 4.19095 3.37851 13
257 2 -1.62557 -3.4689 -1.67606 22
258 2 -13.7511 -0.348611 -8.85082 15
259 2 -12.2794 7.35042 -7.58686 13
260 2 -9.54089 5.38708 -11.1578 16
261 2 -8.40314 -5.95642 2.11807 16
262 2 -0.635382 8.80723 -1.78675 14
263 2 -9.41896 -1.58287 -13.7313 16
264 2 4.02786 -0.430554 -3.17151 12
265 2 -13.8992 8.39064 -4.87736 9
266 2 1.63122 -2.97579 -3.44871 15
267 2 -7.18059 -7.36124 -0.594832 15
268 2 -13.3165 -3.44909 -9.36084 13
269 2 -3.91999 8.31139 -9.74319 16
270 2 -14.0909 7.06198 -0.256317 12
271 2 -6.79151 -4.34855 3.72202 15
272 2 -14.4667 1.89364 -2.92904 17
273 2 -8.48844 2.73581 3.45078 16
274 2 -14.7535 2.71468 -8.4438 13
275 2 -0.429713 7.4788 -4.79894 16
276 2 -9.00402 5.64322 2.53239 16
277 2 -5.99342 -4.37434 -15.8132 12
278 2 -4.69023 5.27257 -14.5193 15
279 2 -8.2611 -9.06053 -6.78679 13
280 2 1.19659 -0.827319 -1.29194 20
281 2 4.92442 3.7896 -7.36025 11
282 2 -3.44488 -5.64257 -1.40175 20
283 2 0.960966 1.26136 -9.99631 18
284 2 -1.36004 4.75827 0.608313 21
285 2 -13.9977 2.75328 2.87036 11
286 2 -12.4428 -1.62224 -11.6348 14
287 2 -15.4681 1.96567 0.332216 14
288 2 -13.9655 -3.67664 1.02041 13
289 2 -6.71573 -6.64767 -10.3752 13
290 2 -0.375496 2.03534 1.82269 21
291 2 -5.99954 3.21889 -16.0259 14
292 2 -1.25572 9.16228 -10.0781 11
293 2 -3.12695 -5.09158 -13.9752 14
294 2 1.80356 2.30064 3.93257 12
295 2 -0.0556734 4.69387 3.60522 15
296 2 -7.21484 7.27456 -11.0262 14
297 2 -8.65653 -4.46985 -14.883 13
298 2 -8.96671 10.5362 -1.30924 13
299 2 -9.19794 8.03775 -8.97216 13
300 2 -11.9081 4.32164 -9.72367 16
301 2 -12.907 4.13931 0.445318 20
302 2 0.319114 5.07222 -12.3493 14
303 2 1.0624 -3.69242 -9.65475 16
304 2 -14.807 6.14283 -6.40341 10
305 2 -6.56726 -1.81928 -15.4684 16
306 2 0.409733 -0.481207 6.12257 10
307 2 -11.5001 1.44408 2.20699 20
308 2 -12.0667 -1.45465 3.76441 14
309 2 -0.245877 -3.55764 4.51215 11
310 2 -17.0617 0.904392 -1.29887 10
311 2 -8.8707 -0.342278 2.01115 25
312 2 -4.31461 -8.09591 0.753803 12
313 2 2.30341 2.15413 -2.57435 21
314 2 -2.8958 -8.19685 -10.1659 13
315 2 -9.04606 8.25615 -5.67829 18
316 2 -8.3915 3.94875 -14.6996 10
317 2 -9.01062 -2.37958 3.99617 14
318 2 -3.26078 -3.73824 3.5171 17
319 2 -1.68115 4.81123 -14.983 11
320 2 2.05424 2.3771 0.430662 17
321 2 1.16707 -0.651426 1.98449 15
322 2 -1.9288 -2.60103 -11.6769 19
323 2 -1.55339 -6.0749 -3.36353 14
324 2 3.01398 5.67809 -7.01593 14
325 2 -15.0397 -3.1038 -7.05665 11
326 2 -16.2781 -2.02365 -2.19612 13
327 2 0.725041 -5.46662 -0.895334 10
328 2 1.49907 6.82906 -10.3074 13
329 2 2.0722 2.53068 -6.291 18
330 2 -0.463155 7.34605 -8.2409 15
331 2 2.76403 -1.11606 -8.18577 13
332 2 -2.28447 -9.53058 -7.81813 9
333 2 -8.67854 -5.85036 -8.37548 19
334 2 -4.29152 10.8727 -4.47637 15
335 2 -3.58019 8.61231 -3.18386 19
336 2 -9.43156 -5.76547 -2.07093 18
337 2 -5.56849 -4.97473 1.19458 22
338 2 1.89862 5.4979 1.99262 12
339 2 3.79789 1.72264 -9.71726 13
340 2 -7.07651 1.19243 -14.2619 19
341 2 -11.4698 -5.25979 -7.22085 15
342 2 -1.20183 -6.69245 -6.96827 13
343 1 -12.1739 -0.263649 -7.65734 19
344 1 -14.4475 -2.20776 -8.58114 13
345 1 -6.66269 -5.94625 -8.39833 19
346 1 -6.07625 -0.157378 -11.0669 23
347 1 -9.42967 -0.734068 -9.85688 21
348 1 -6.22752 -2.59953 -9.62668 22
349 1 -8.94832 -3.89287 -8.21507 19
350 1 -6.59743 0.281852 -7.81129 22
351 1 -9.29859 -0.930866 -6.35341 21
352 1 -6.82603 -2.72027 -6.33462 19
353 2 -11.9122 -1.18376 -6.10677 19
354 2 -5.78661 -7.69915 -7.15996 16
355 2 -6.4915 -1.00803 -12.8627 18
356 2 -7.12971 -3.59058 -11.229 23
357 2 -9.67273 -2.83884 -9.72441 18
358 2 -7.02901 -0.78854 -9.4671 25
359 2 -10.2201 -0.374623 -8.16655 18
360 2 -6.86843 -3.75079 -8.00813 18
361 2 -9.01719 -3.04156 -6.11223 20
362 2 -7.1646 -0.768861 -6.37941 20
363 1 -11.5727 -0.47877 -4.30604 22
364 1 -11.6107 -0.447401 -0.627541 20
365 1 -7.45153 -7.46234 -5.87614 17
366 1 -6.59511 -6.24554 -2.186 24
367 1 -8.58564 -4.20334 -4.69367 22
368 1 -6.3336 -0.158088 -4.64278 21
369 1 -9.01983 -1.38877 -2.80756 21
370 1 -6.41635 -2.88594 -2.60067 19
371 1 -8.63887 -4.20528 -1.1678 24
372 1 -6.62561 -0.172862 -1.15101 23
373 1 -8.87055 -1.31927 0.474996 19
374 1 -5.99404 -3.41748 0.397547 21
375 1 -5.83938 -0.306999 2.27049 19
376 2 -12.514 -3.68331 -4.4105 23
377 2 -11.8661 -1.42404 -2.5577 21
378 2 -8.82857 -6.06652 -5.43519 21
379 2 -7.01302 -7.32255 -3.87225 18
380 2 -9.50353 -0.308169 -4.56075 20
381 2 -6.43297 -3.59942 -4.6676 18
382 2 -9.14384 -3.39299 -3.10992 22
383 2 -6.90459 -1.02472 -2.87364 20
384 2 -9.2655 -0.317485 -1.09041 21
385 2 -6.85885 -4.45702 -1.54974 23
386 2 -8.89711 -3.43875 0.626286 22
387 2 -6.81152 -1.41083 0.688177 20
388 1 -11.9694 5.38815 -7.73949 17
389 1 -12.7178 2.33468 -5.9377 21
390 1 -8.6411 2.01313 -11.1774 19
391 1 -6.40491 5.50026 -10.9051 19
392 1 -9.32953 4.83876 -9.29006 20
393 1 -6.96243 3.19744 -9.40618 23
394 1 -10.1472 1.98125 -7.89815 22
395 1 -6.41366 5.77427 -7.41539 22
396 1 -9.34651 4.50066 -5.90909 21
397 1 -6.87662 2.68191 -5.96619 23
398 1 -7.25427 8.30538 -6.33464 18
399 2 -12.1155 1.92703 -7.53219 18
400 2 -12.8494 4.59761 -6.01194 20
401 2 -6.62462 1.82956 -11.0895 23
402 2 -8.9424 2.8218 -9.30916 22
403 2 -7.19179 4.98239 -9.12439 22
404 2 -9.94292 5.38603 -7.51227 20
405 2 -6.30127 2.34759 -7.73514 22
406 2 -9.05536 2.44269 -6.29467 21
407 2 -7.26998 4.51182 -5.85427 22
408 2 -6.21053 7.67328 -7.9263 19
409 1 -11.9728 5.26643 -4.476 22
410 1 -12.5409 1.93513 -2.63224 21
411 1 -9.3611 1.78867 -4.35369 21
412 1 -6.55166 5.49693 -4.35039 22
413 1 -9.10568 4.75903 -2.6477 20
414 1 -7.02316 2.80609 -2.72648 22
415 1 -9.6129 1.59193 -1.09745 21
416 1 -6.00293 5.50092 -1.06792 19
417 1 -9.04314 4.87757 0.715427 19
418 1 -7.01704 2.63591 0.593849 21
419 1 -9.43489 6.9021 -4.49738 21
420 1 -7.03722 8.23419 -2.7744 22
421 2 -11.7462 1.58622 -4.45688 23
422 2 -13.1709 4.48472 -2.60915 19
423 2 -11.6635 1.59863 -0.936166 20
424 2 -10.1083 4.53122 -4.26401 21
425 2 -6.56163 1.79142 -4.31794 22
426 2 -9.01321 2.54405 -2.64057 21
427 2 -7.16366 4.90344 -2.37606 21
428 2 -10.2151 5.61053 -0.837765 20
429 2 -6.04053 2.33251 -1.18546 20
430 2 -9.12079 2.86492 0.577544 22
431 2 -7.18291 4.8554 0.484549 19
432 2 -5.94524 1.67653 2.09807 19
433 2 -6.02345 7.68 -4.54008 21
434 2 -6.21333 7.52618 -1.06996 18
435 1 -3.40191 -0.998268 -9.58084 23
436 1 -0.998011 -2.83121 -9.92111 19
437 1 -4.07857 -3.87595 -8.34745 20
438 1 -0.935337 0.171431 -8.04902 21
439 1 -3.70634 -0.760376 -6.64691 22
440 1 -1.47162 -2.85773 -6.69479 21
441 2 -4.68813 -5.75223 -8.30938 17
442 2 -1.18961 2.01759 -11.4583 21
443 2 -4.38728 -2.79162 -9.93024 22
444 2 -1.10828 -1.05189 -9.44605 21
445 2 -4.27857 -0.00797531 -8.24035 21
446 2 -2.03319 -4.01564 -8.13086 20
447 2 -3.73637 -2.89228 -6.45416 21
448 2 -1.45846 -0.837038 -6.47146 18
449 1 -4.51935 -3.98791 -4.72469 22
450 1 -0.696044 -0.356441 -4.7502 19
451 1 -3.81465 -0.895475 -3.17581 21
452 1 -1.40876 -3.26332 -3.45301 22
453 1 -3.6925 -3.69943 -1.45601 20
454 1 -0.618972 -0.365142 -1.63494 21
455 1 -3.49885 -0.809243 0.0366219 21
456 2 -3.8707 -5.86018 -4.96894 20
457 2 -4.33519 -0.174043 -4.94558 22
458 2 -0.807115 -3.92317 -5.16914 18
459 2 -4.40053 -2.69935 -2.99911 20
460 2 -1.78311 -1.24189 -3.18715 22
461 2 -4.50161 -0.0769274 -1.45472 23
462 2 -4.25861 -2.59714 0.107615 21
463 2 -1.43274 -0.748634 0.331815 22
464 2 -3.66285 -0.348232 2.13308 20
465 2 1.26784 -0.204294 -4.76949 18
466 1 -3.30866 1.54972 -11.4411 18
467 1 -3.63872 4.52204 -9.69284 23
468 1 -1.54318 3.04788 -9.67749 20
469 1 -4.3734 1.94671 -7.90168 21
470 1 -0.832379 5.37526 -7.6532 24
471 1 -3.68893 4.82123 -6.24008 20
472 1 -1.30107 2.67117 -6.31466 21
473 1 -3.6732 7.06742 -8.11512 20
474 2 -4.39714 5.45256 -11.09 19
475 2 -3.26597 2.52799 -9.57833 21
476 2 -1.59214 5.04055 -9.6719 21
477 2 -4.23168 5.19607 -7.92484 22
478 2 -0.737409 2.07889 -8.03539 19
479 2 -3.33122 2.63499 -6.35599 23
480 2 -1.55689 4.78226 -5.83779 22
481 2 -3.09204 7.6923 -6.31889 23
482 1 -4.16641 1.86812 -4.80028 20
483 1 -0.72669 5.63362 -4.22242 18
484 1 -3.39059 4.53198 -3.00592 20
485 1 -1.31025 2.70785 -2.86978 22
486 1 -4.2857 1.80011 -1.54897 19
487 1 -0.322504 5.40472 -1.07287 22
488 1 -3.24202 4.44532 0.0953251 22
489 1 -1.28785 2.64693 0.271506 20
490 1 -3.97238 1.73508 1.98603 22
491 1 -4.23062 7.73348 -4.69341 20
492 1 -4.1276 7.53211 -1.72992 18
493 1 1.37615 1.88283 -4.50614 20
494 2 -4.59045 5.40014 -4.43217 22
495 2 -0.695742 1.66844 -4.59982 20
496 2 -3.41475 2.55913 -3.24093 21
497 2 -1.42012 4.66778 -2.6053 17
498 2 -4.10087 5.39745 -1.22967 20
499 2 -0.730824 1.54668 -1.22909 20
500 2 -3.22671 2.66639 0.445777 23
