ITEM: TIMESTEP
7820000
ITEM: NUMBER OF ATOMS
500
ITEM: BOX BOUNDS pp pp pp
-30.0 30.0
-30.0 30.0
-30.0 30.0
ITEM: ATOMS id type x y z Coordination
1 1 -4.06996 1.17656 -3.76442 23
2 1 6.25131 -0.70173 7.35873 15
3 1 2.79407 6.07368 8.86733 9
4 1 7.36557 1.05841 -1.45912 26
5 1 -8.41558 -0.120129 -1.14209 17
6 1 -2.67172 0.197739 -7.93328 25
7 1 -1.52187 -3.25648 7.99534 18
8 1 3.32474 -5.39042 -1.47806 22
9 1 -5.73431 -0.639671 -8.88725 16
10 1 1.34506 1.83735 -9.91144 13
11 1 5.93976 0.19047 -7.10373 14
12 1 10.4274 4.79396 4.21461 12
13 1 2.27398 5.42028 -4.78613 23
14 1 4.73341 5.02282 4.77747 21
15 1 1.51215 6.07526 6.36538 19
16 1 -7.13601 -1.18987 1.82605 21
17 1 -10.2615 -2.50796 0.0508653 12
18 1 10.011 -0.321542 -2.86384 13
19 1 3.93141 1.05068 8.80675 14
20 1 -9.02855 -4.11253 2.63469 17
21 1 -2.79189 -6.0218 -8.9212 13
22 1 6.80942 4.40744 -2.03689 25
23 1 7.32392 -0.299767 -4.52449 17
24 1 4.32283 -0.982175 3.73645 21
25 1 -3.2603 3.98286 7.44113 15
26 1 5.01575 1.88155 5.61216 21
27 1 1.53371 3.89061 4.21145 22
28 1 0.3601 1.13551 -6.89878 23
29 1 2.44186 -8.34177 -6.89809 10
30 1 -4.12931 -2.59855 9.00939 14
31 1 9.82412 -1.72804 2.9108 12
32 1 -3.61003 5.5568 1.32147 21
33 1 -1.31892 5.23111 5.63222 18
34 1 5.16498 4.53044 -6.44608 18
35 1 8.19793 7.61336 -3.4671 13
36 1 -1.57989 4.49623 -2.71511 22
37 1 2.83514 -4.57612 -4.76451 20
38 1 -5.3764 7.1568 -4.19626 10
39 1 -1.16766 1.18832 -2.08229 24
40 1 -2.8684 8.80798 -2.37117 18
41 1 1.82783 7.62226 0.734331 22
42 1 -9.70976 4.0151 -0.673442 15
43 1 -0.159881 8.71318 5.01071 12
44 1 -4.43135 2.26078 -9.64607 12
45 1 -6.63411 -6.78712 5.9204 14
46 1 -2.27108 0.799107 0.945114 27
47 1 0.696397 -5.49603 6.59043 21
48 1 -5.49621 -1.68726 -2.78785 24
49 1 5.95472 -7.74976 -1.72035 10
50 1 -6.82271 1.05236 4.60061 24
51 1 -5.38344 1.74273 -6.82384 21
52 1 -0.628898 -9.36159 5.20072 14
53 1 4.04395 3.65558 -3.0879 22
54 1 -3.86059 -5.52504 7.43871 15
55 1 6.36733 2.25103 -4.69126 22
56 1 1.86375 4.0215 -7.72027 15
57 1 0.902514 1.5787 1.86976 24
58 1 -1.00479 -0.0644903 4.25711 22
59 1 -5.10962 0.448293 -0.299743 21
60 1 2.82219 -5.86782 1.87212 20
61 1 1.39807 11.6031 0.685083 12
62 1 -9.70401 0.662197 2.72693 20
63 1 -0.455999 9.28198 1.68633 18
64 1 1.058 -3.49936 9.23668 17
65 1 0.170867 -8.3889 -4.50687 13
66 1 7.47282 2.33557 -7.40009 14
67 1 -6.41048 -5.08191 1.16936 21
68 1 -3.77306 -7.10695 0.0186422 23
69 1 5.06949 -3.75535 6.7534 16
70 1 -2.2822 -5.776 4.87661 20
71 1 4.89511 8.40886 1.72091 16
72 1 -8.20378 -7.0794 3.03424 15
73 1 -6.85022 -8.42192 0.52682 17
74 1 -2.9908 -4.79554 1.96898 23
75 1 -0.106414 -4.13346 3.58969 21
76 1 -5.10885 -4.85183 -2.05774 22
77 1 -4.6658 4.2471 -4.40341 21
78 1 2.17488 -8.51075 7.19017 11
79 1 -4.25333 -0.537708 3.10581 22
80 1 -10.8228 0.875934 5.15064 11
81 1 -2.16295 -8.15142 2.68867 21
82 1 -2.8992 -2.83113 4.95875 22
83 1 -0.651876 2.1699 6.25414 24
84 1 -11.062 -2.33827 3.67604 11
85 1 -2.66692 8.05906 2.67959 14
86 1 -4.23253 4.86587 4.35573 20
87 1 4.20294 2.34037 2.86828 21
88 1 -4.81676 1.67138 8.16156 12
89 1 -4.63212 -3.57837 -8.90208 17
90 1 1.81801 0.805158 5.07557 23
91 1 -4.67001 -0.98876 -5.98272 24
92 1 -7.21813 -3.29844 -7.44752 13
93 1 7.84386 5.58706 6.59784 13
94 1 -3.68017 3.07919 -1.08772 21
95 1 3.86759 -2.28415 9.49195 10
96 1 0.264171 -4.56165 -8.33155 20
97 1 -10.8959 0.982042 -0.0331672 12
98 1 -4.68011 -10.8599 1.24923 11
99 1 1.62766 0.0791479 -3.90659 22
100 1 3.2995 -0.252117 0.659679 23
101 1 -6.43743 3.85167 6.39802 15
102 1 2.1808 2.98607 7.46996 20
103 1 -4.06166 9.05688 0.30811 12
104 1 -0.27553 -7.8529 -7.87363 12
105 1 2.86361 11.5969 -1.82106 9
106 1 4.54722 0.370075 -2.29524 21
107 1 -8.35881 0.135906 -6.96711 12
108 1 -9.48875 2.16355 -3.10534 14
109 1 -5.40854 -7.8551 -4.56299 12
110 1 5.84011 -5.54803 3.86734 16
111 1 -7.72771 3.59238 -5.42134 14
112 1 -5.44175 -0.979674 6.03853 19
113 1 3.0057 -2.31259 -2.3093 19
114 1 -7.28261 4.43115 3.50423 18
115 1 0.290419 -5.72542 -2.47154 23
116 1 0.16822 -2.19401 5.98273 24
117 1 0.885647 -6.95143 9.79074 11
118 1 3.14038 -7.46012 -3.79654 18
119 1 7.67412 0.0678991 4.78878 17
120 1 -4.6282 2.64388 2.1371 22
121 1 0.126839 -1.10311 -9.07933 20
122 1 -0.900084 3.59021 0.299342 25
123 1 6.59173 -2.42015 2.20719 21
124 1 -5.67258 -6.21526 -7.16874 12
125 1 -5.90977 -2.88857 3.42624 19
126 1 5.6139 8.15695 4.51687 16
127 1 10.0833 5.81994 -1.1746 15
128 1 1.35202 5.20429 -1.60595 25
129 1 -0.761235 4.98 -5.8771 18
130 1 5.04067 11.3453 0.321861 9
131 1 4.35681 2.38069 -9.26115 12
132 1 0.495314 -8.45179 -1.45703 16
133 1 1.93556 2.14178 -1.13554 22
134 1 6.52558 -4.93751 -0.326084 18
135 1 0.888329 -6.88917 3.79956 19
136 1 -2.15389 2.56269 -5.61489 21
137 1 2.49171 4.43457 1.18866 21
138 1 9.22088 2.77372 -4.46173 16
139 1 4.30607 5.93539 -0.889198 22
140 1 -4.48944 6.18733 -1.5242 18
141 1 8.15427 -3.04277 -3.35188 12
142 1 3.55533 -5.53684 9.48687 8
143 1 -6.52364 -3.7315 7.07798 15
144 1 -1.99794 -9.48529 0.202006 17
145 1 0.893601 -2.23696 -6.2121 23
146 1 3.35263 7.79321 -5.00965 13
147 1 3.98557 -8.52359 3.72346 12
148 1 6.11662 -1.75487 -0.955017 20
149 1 -4.62174 -2.33619 0.180132 22
150 1 -2.65506 -6.70977 -5.91786 17
151 1 -1.12895 -1.46818 10.3936 15
152 1 -1.62762 1.68202 9.4619 15
153 1 2.68547 -6.63181 -9.12324 10
154 1 -7.10568 0.620955 -4.41884 20
155 1 2.45724 8.03456 -2.40269 19
156 1 11.0126 5.27241 -4.05871 10
157 1 1.38707 -1.46487 2.77986 21
158 1 -1.91976 0.549006 -10.9765 12
159 1 -9.45672 3.37327 4.98503 13
160 1 -1.69488 -5.12181 9.89309 14
161 1 7.32628 3.10475 3.71451 19
162 1 -4.44116 -0.923579 -11.3545 11
163 1 8.35412 -4.54744 2.11257 12
164 1 -0.418761 -6.24999 0.649164 25
165 1 8.0658 2.4417 6.68553 13
166 1 1.0305 -8.61552 1.66745 15
167 1 0.506245 -0.772988 -0.471099 20
168 1 3.2617 -1.45813 6.80842 22
169 1 4.92785 2.62097 -0.126119 25
170 1 10.5214 7.27819 1.6785 11
171 1 6.47903 0.589154 1.72166 21
172 1 7.77342 6.36825 3.23938 19
173 1 -2.99987 -3.54426 -4.20414 20
174 1 4.78259 7.36938 7.24435 12
175 1 -6.53788 5.01128 0.573414 20
176 1 -3.94037 4.63875 -7.16158 12
177 1 -2.43534 -0.244936 7.08911 22
178 1 -2.50104 -7.47916 -2.74827 19
179 1 -7.60207 -6.84175 -2.3299 14
180 1 5.51416 5.44668 1.87339 19
181 1 -1.69008 3.104 3.32178 23
182 1 -6.07262 7.12591 2.85872 11
183 1 3.18606 2.16891 -6.23931 23
184 1 5.44299 4.08282 8.21049 14
185 1 -6.74398 2.66459 -1.99823 22
186 1 -2.06271 -2.82723 -10.0508 17
187 1 -0.161008 4.47506 8.7387 16
188 1 6.40156 -7.55712 1.51435 12
189 1 2.42311 9.9063 3.42604 14
190 1 3.10289 -3.7864 4.34528 20
191 1 -0.37799 6.1874 2.46476 21
192 1 -2.30821 -4.20859 -1.25297 20
193 1 3.61368 -3.51003 -7.70925 19
194 1 4.1353 -3.38681 1.3518 19
195 1 3.46019 -6.26662 6.38127 14
196 1 -1.61964 -0.717271 -4.76928 21
197 1 0.12659 -2.90117 -3.03791 22
198 1 -8.17609 1.10465 7.29213 13
199 1 9.95557 1.67901 3.2572 16
200 1 -0.188333 7.38751 -3.66349 21
201 1 0.832599 -0.041799 8.16025 23
202 1 8.07416 5.08432 -5.54304 14
203 1 1.15702 1.55913 10.5673 11
204 1 -1.47711 -7.70585 7.58859 14
205 1 -7.41728 5.40179 -2.66979 14
206 1 7.64095 9.31349 1.85344 12
207 1 -9.21318 -4.88047 5.58842 11
208 1 10.2675 0.887312 0.685219 17
209 1 -9.55618 -6.08441 0.133695 12
210 1 11.4702 3.88972 1.32082 12
211 1 5.64541 -5.18646 -3.6602 15
212 1 0.659286 2.95594 -3.97335 21
213 1 2.76729 6.93554 3.46301 20
214 1 -8.43499 -2.21046 -4.25352 14
215 1 -1.32995 6.77513 -0.409373 24
216 1 5.42325 6.45117 -3.9872 19
217 1 -2.11682 -2.85754 -7.04349 21
218 1 3.99387 -1.24839 -5.23649 21
219 1 -5.06093 -9.25169 -1.92926 13
220 1 -1.6173 -2.19932 1.77774 20
221 1 -3.95931 -8.49135 5.42761 16
222 1 8.793 -1.81855 -0.0851821 17
223 1 -10.7672 3.52648 2.20759 13
224 1 -1.42417 3.0258 -8.53218 15
225 1 -6.20211 -4.44696 -4.49021 16
226 1 7.86461 -2.90683 5.16043 14
227 1 1.06251 -3.82666 -0.0426096 22
228 1 1.89103 -3.34656 -10.1424 10
229 1 -9.48929 6.22205 2.0544 8
230 1 -8.61116 -1.68085 5.243 20
231 1 -0.139787 -5.294 -5.5132 18
232 1 7.67598 7.16706 -0.121303 21
233 1 8.23365 3.59676 0.776705 20
234 1 -3.26679 -10.9924 3.66958 11
235 1 3.1314 -0.409878 -8.32917 17
236 1 -2.87086 7.31378 -5.68806 12
237 1 2.63565 9.12753 6.64267 11
238 1 5.47647 9.20786 -2.18456 17
239 1 10.3408 2.87886 -1.66357 18
240 1 -5.17428 -6.512 3.28936 20
241 1 -3.74462 1.68029 5.19728 26
242 1 6.63365 -3.06125 -6.06836 13
243 1 5.23425 -5.95658 -6.7655 13
244 1 -2.16791 11.2289 0.217295 11
245 1 -2.321 -1.17805 -1.98696 23
246 1 0.141808 9.6086 -1.3962 19
247 1 -6.29122 -9.54463 3.6862 16
248 1 3.73899 -8.66676 -0.674498 14
249 1 -7.83077 -3.71961 -1.46327 17
250 1 -7.59136 1.88646 1.30527 23
251 2 -10.3528 2.26953 3.76949 14
252 2 5.71819 7.01676 0.509079 20
253 2 1.57194 -0.797 6.29211 21
254 2 -2.13429 -4.94021 -5.20507 21
255 2 -10.3641 2.28431 -1.40121 13
256 2 -5.71921 -7.96916 4.69285 14
257 2 -0.195567 3.04251 9.94607 12
258 2 4.35952 5.61087 8.19435 14
259 2 -2.74842 -3.34366 0.464497 21
260 2 -3.22335 2.43147 8.87658 15
261 2 -0.338666 4.3083 4.16354 21
262 2 4.28159 -1.20993 -0.827218 20
263 2 6.9421 -3.98517 -4.45813 12
264 2 -2.64732 -1.23121 -11.3235 13
265 2 5.31965 -3.92772 -7.1489 13
266 2 0.851898 -4.45028 -4.00897 21
267 2 -3.26082 -8.80796 -1.15967 16
268 2 2.35589 2.99122 2.69558 21
269 2 10.4105 -0.0373157 2.24995 13
270 2 2.78014 -4.94139 0.171515 21
271 2 -1.42775 -0.268785 -0.482229 22
272 2 8.88688 8.04895 1.15184 13
273 2 -0.839837 8.06749 3.39335 17
274 2 4.83402 11.2186 -1.85543 8
275 2 -0.413883 5.79 -1.88448 23
276 2 5.81487 1.77769 -8.08594 14
277 2 -5.14417 0.665635 -10.3743 12
278 2 -0.386922 -5.80906 4.94677 19
279 2 -7.90267 0.403441 3.10903 20
280 2 7.86901 -2.63893 -1.52507 17
281 2 -5.2174 -10.8754 3.13774 10
282 2 7.13377 1.04575 -5.94145 14
283 2 2.71829 7.65472 7.76329 10
284 2 4.36774 -3.99569 8.59133 15
285 2 -2.23637 -6.61733 1.16788 21
286 2 3.1908 -1.68115 2.14081 21
287 2 -2.92792 -9.98966 1.88789 15
288 2 -1.45002 0.75497 -6.26123 24
289 2 0.696356 -5.48395 2.11765 21
290 2 -8.04933 -6.22917 4.80239 13
291 2 -5.30944 -9.74316 -0.069052 13
292 2 -8.21977 -7.25184 -0.461431 13
293 2 -3.2224 5.27554 5.96183 12
294 2 1.24585 -0.368899 -7.64624 23
295 2 8.21138 5.29917 -0.870692 20
296 2 3.77482 3.55742 -7.7672 16
297 2 -4.86705 1.72197 -1.9462 22
298 2 -7.58227 4.28636 -1.01385 18
299 2 8.83459 -1.40656 4.47783 14
300 2 0.923222 10.5607 2.29808 14
301 2 -4.62336 2.93904 6.33764 17
302 2 1.25977 3.72688 -0.174561 23
303 2 1.91203 9.92317 -2.16399 16
304 2 1.74884 7.30903 -4.15074 17
305 2 1.54707 4.66402 8.03268 17
306 2 -1.64761 -1.52891 5.78531 23
307 2 -1.00584 -6.53608 9.04174 15
308 2 2.21748 -4.71133 -8.89422 14
309 2 -0.472277 -8.2114 0.271368 18
310 2 -0.420217 -7.66673 -2.84474 20
311 2 -1.78309 -2.89089 -2.67664 22
312 2 -2.50776 9.58469 1.35113 14
313 2 -7.03948 -4.93772 -2.63351 18
314 2 8.89061 -2.69723 1.69214 17
315 2 4.66959 1.07591 1.35263 22
316 2 0.0545983 0.431755 -10.0998 15
317 2 -2.53586 1.53269 -9.37386 20
318 2 0.368874 -1.17876 -4.5723 22
319 2 -0.902691 -6.12203 -8.39711 16
320 2 2.97322 -2.13122 -9.0476 13
321 2 2.98343 -2.88154 -5.90191 22
322 2 -5.01291 -4.64748 2.70127 19
323 2 -0.110747 -2.93322 -10.0452 14
324 2 -0.276354 -4.96916 -0.882652 21
325 2 4.18588 6.06834 -5.62301 15
326 2 4.05271 -6.9155 -7.73331 10
327 2 -4.14701 2.45014 -5.25874 21
328 2 -1.22587 3.80773 7.28594 18
329 2 -8.13431 -5.65315 1.76692 18
330 2 -5.06179 1.36415 3.7203 25
331 2 -6.43092 3.34192 1.97934 21
332 2 -7.67141 -2.66114 2.96095 19
333 2 -3.27409 -7.29919 3.85969 21
334 2 -9.72556 2.04119 1.29646 16
335 2 1.72701 -5.13527 10.0478 12
336 2 7.51045 3.70123 -3.79884 24
337 2 -0.180555 -3.75715 -6.6875 24
338 2 4.77072 6.49809 3.32758 17
339 2 1.58409 9.71856 5.16689 11
340 2 -0.257082 0.186595 10.182 12
341 2 -3.95148 1.75722 0.638512 23
342 2 -0.32319 7.00339 5.88955 16
343 2 -7.33646 -1.26365 -8.01626 13
344 2 7.23049 -0.407468 -0.105694 20
345 2 7.25641 4.64538 2.08758 22
346 2 -10.3473 -2.67998 1.9141 13
347 2 -6.15228 6.57196 -2.78198 13
348 2 3.02279 0.977911 -9.90547 13
349 2 -4.57656 0.148307 -7.66586 21
350 2 3.99698 -2.25835 5.33963 20
351 2 0.0172159 8.2091 0.0465589 24
352 2 8.80715 -1.3896 -3.78383 14
353 2 1.89202 -9.04788 -0.0364248 12
354 2 -4.35171 7.38844 2.24638 15
355 2 -2.69667 -4.26435 6.36806 23
356 2 2.38671 -7.77094 2.63475 16
357 2 4.5212 8.83278 6.11435 11
358 2 -0.978958 8.7409 -2.63234 16
359 2 0.0165998 -8.60604 6.86033 13
360 2 5.35827 -7.96515 0.0243797 14
361 2 -1.15914 2.21944 1.70298 20
362 2 -5.68572 -5.54819 7.11781 14
363 2 1.34295 5.16793 -6.38051 17
364 2 1.66207 0.747778 0.255913 24
365 2 9.71043 6.55334 -3.14872 12
366 2 -0.800275 -3.37023 10.0529 13
367 2 -7.64025 -1.71569 -2.50861 19
368 2 6.29665 0.755901 -3.17251 23
369 2 5.83755 9.88309 1.17188 13
370 2 3.61459 -4.07313 -2.8972 21
371 2 -9.59466 -4.11676 -0.550382 13
372 2 2.02388 1.41711 8.75154 18
373 2 -4.80068 -3.49678 -3.3317 21
374 2 -5.3382 -0.412877 -4.36032 21
375 2 6.76881 2.77166 -0.824846 20
376 2 1.95877 4.40069 -3.24359 23
377 2 0.589302 2.86446 -8.58443 16
378 2 4.18274 -4.58595 3.00758 20
379 2 5.18399 3.31628 4.28847 20
380 2 3.36484 -8.28238 5.60401 11
381 2 0.697872 0.383528 3.42488 24
382 2 -3.4563 4.03285 2.78332 24
383 2 -7.95897 1.15893 -2.61831 21
384 2 -1.50139 5.4953 1.06729 23
385 2 -6.62976 3.86376 -3.6981 19
386 2 -5.27478 -1.67106 1.77029 20
387 2 -3.08946 -7.32303 6.65739 15
388 2 3.17585 11.8687 0.141593 10
389 2 -5.94779 -4.65308 -8.13933 11
390 2 10.0695 2.75868 0.257387 17
391 2 -3.3193 7.36522 -0.725145 18
392 2 7.39893 -5.96625 1.06856 12
393 2 -8.17876 -3.29058 6.25847 15
394 2 -6.01687 -6.13886 -5.40628 14
395 2 -4.55784 4.64259 -0.151167 22
396 2 -9.39621 4.74622 3.38633 12
397 2 4.59584 3.16315 -5.09643 24
398 2 2.50068 -6.98969 8.29579 12
399 2 -7.4647 6.22937 1.64037 13
400 2 -3.38084 10.2452 -1.01116 9
401 2 2.04375 -1.81179 8.8938 17
402 2 -8.54136 -0.493493 -5.23171 12
403 2 7.11795 8.22735 -1.86974 17
404 2 -6.66021 2.01308 7.7514 13
405 2 -0.834883 0.718277 7.57209 23
406 2 3.38355 -0.72766 -3.49174 20
407 2 1.30919 -2.46953 -1.4776 20
408 2 -1.91585 -1.56995 -8.36254 24
409 2 -3.68083 4.93653 -2.74231 23
410 2 -3.62607 -7.52437 -4.3017 15
411 2 -2.49139 0.198653 -3.4671 21
412 2 3.73477 1.06027 4.25156 21
413 2 6.02472 6.19505 5.9578 14
414 2 7.1491 6.71179 -4.77352 15
415 2 2.17196 -5.04833 5.55667 21
416 2 3.96475 0.19793 -6.6726 21
417 2 7.29304 3.84305 7.72534 10
418 2 -4.23491 -1.06788 -1.31119 21
419 2 -1.11797 3.62168 -4.3598 22
420 2 -4.33592 0.434831 6.65053 21
421 2 -7.43201 -3.14571 -5.55762 16
422 2 -2.48794 -9.69947 4.8569 14
423 2 -0.187904 11.2072 -0.0863787 12
424 2 -9.60853 1.94806 6.33737 13
425 2 -10.1358 -3.94977 4.22937 11
426 2 -3.89357 -7.00494 -7.4922 13
427 2 4.14273 2.49174 7.45704 17
428 2 -4.84429 3.22202 -8.00681 15
429 2 -4.60909 5.76924 -5.75545 14
430 2 7.08397 4.12922 -6.77754 14
431 2 -0.756683 -7.61414 -5.97011 16
432 2 9.82605 6.39777 3.26372 12
433 2 8.76292 1.87155 4.89466 14
434 2 -1.27559 6.851 -5.26494 16
435 2 -4.72762 -2.15469 -10.028 13
436 2 1.43879 -7.82206 -8.50314 9
437 2 -5.9102 -3.89643 -0.454986 21
438 2 1.5437 6.1532 2.07504 20
439 2 -3.59049 8.13299 -4.08082 12
440 2 -7.37376 1.74845 -6.23946 16
441 2 -7.32224 2.89062 4.74146 20
442 2 0.241662 -2.20891 1.13434 21
443 2 5.03393 5.30138 -2.37825 24
444 2 6.07583 -1.32392 -5.66058 16
445 2 -1.96872 -3.8772 3.38548 19
446 2 -9.40654 3.48366 -4.41679 11
447 2 -2.14599 3.88699 -7.0351 19
448 2 4.34003 -5.94093 -4.9248 18
449 2 6.6245 0.85135 6.45535 16
450 2 -7.50058 -0.437622 5.87285 19
451 2 -3.48072 -5.71831 -1.67812 22
452 2 -10.1264 -0.750398 4.42554 16
453 2 3.77361 2.18424 -1.71857 25
454 2 7.18058 -3.96564 3.55731 16
455 2 -10.3642 4.9821 0.831192 10
456 2 -5.48829 -2.31414 7.63247 15
457 2 -0.355178 -8.52722 3.44555 17
458 2 10.7479 3.32694 3.04051 14
459 2 1.88777 -8.13337 -5.1443 16
460 2 -1.64991 2.9209 -1.38343 22
461 2 -3.08523 -2.05798 -5.71546 20
462 2 -4.55576 -2.13154 4.61632 20
463 2 4.88614 -5.33197 5.50656 14
464 2 0.702678 1.40546 -2.57102 21
465 2 9.9126 4.2532 -5.35347 11
466 2 7.0598 8.15818 3.30926 16
467 2 -5.91738 5.67905 3.8843 15
468 2 6.45688 -2.35422 6.40722 14
469 2 1.86058 -6.65947 -2.02504 20
470 2 -5.42061 -6.90327 0.930061 23
471 2 -2.15096 -0.603981 2.58707 22
472 2 5.77225 -3.27536 0.671038 20
473 2 5.66622 -5.63769 -1.84095 18
474 2 7.81404 1.94308 2.2126 19
475 2 6.3673 -0.873522 3.19049 21
476 2 4.41187 -0.747082 8.3274 15
477 2 11.0299 4.50961 -2.33058 12
478 2 -10.2488 -0.624023 -0.336848 12
479 2 4.29009 4.47853 0.51758 21
480 2 -7.05144 0.397391 0.419604 21
481 2 0.165421 -3.67975 7.33166 22
482 2 4.3338 8.03726 -3.40731 15
483 2 10.9007 5.592 0.683548 13
484 2 2.61757 6.83566 -0.976059 22
485 2 -2.53113 -1.44061 8.84986 18
486 2 1.21887 -2.63968 4.31731 22
487 2 10.0324 -0.30934 -0.952036 12
488 2 5.662 -7.58599 3.28919 11
489 2 -2.81808 -4.24044 -8.57711 16
490 2 2.92785 8.52739 2.06384 17
491 2 2.57357 5.54108 4.74293 19
492 2 -7.22411 -8.54556 2.49919 14
493 2 -3.23712 -4.38453 9.02065 14
494 2 -2.0008 1.6374 4.70801 24
495 2 8.61394 4.94019 5.01062 15
496 2 9.97793 1.63389 -3.16295 15
497 2 1.13873 2.6443 5.87829 23
498 2 1.52017 1.92226 -5.36949 21
499 2 -5.9848 -7.83401 -2.73272 16
500 2 4.11185 -8.20639 -2.41584 12
