ITEM: TIMESTEP
8729000
ITEM: NUMBER OF ATOMS
500
ITEM: BOX BOUNDS pp pp pp
-30.0 30.0
-30.0 30.0
-30.0 30.0
ITEM: ATOMS id type x y z Coordination
1 1 -4.13445 0.987069 -3.91631 22
2 1 5.98404 -0.93564 7.30454 17
3 1 2.55404 6.09281 9.27885 9
4 1 7.29522 1.36862 -1.27186 20
5 1 -8.54397 -0.477081 -1.56668 20
6 1 -2.75886 -0.017734 -8.15915 23
7 1 -0.827339 -2.45262 9.29031 17
8 1 3.62641 -5.06013 -1.42678 21
9 1 -6.32873 -0.361704 -9.29436 14
10 1 1.21253 1.60819 -9.80571 13
11 1 5.60713 -0.656042 -8.14539 15
12 1 10.3674 4.84086 4.31252 10
13 1 2.56592 5.96645 -4.89551 17
14 1 4.3497 4.60836 5.27958 24
15 1 1.52875 6.18293 6.56437 21
16 1 -7.18427 -1.21302 1.45021 21
17 1 -10.7774 -2.55923 0.278696 10
18 1 10.4648 -0.219497 -2.79801 12
19 1 3.95049 0.865992 9.40775 16
20 1 -9.28137 -3.77805 2.81564 17
21 1 -2.69608 -5.44168 -9.53044 12
22 1 7.08744 4.08068 -2.33236 20
23 1 8.49841 -0.559975 -6.00156 12
24 1 4.1885 -0.994956 4.13498 24
25 1 -3.44707 3.48556 7.57825 16
26 1 4.53601 1.52969 6.16869 22
27 1 1.18858 3.73322 4.43409 24
28 1 0.426027 0.869227 -6.68372 22
29 1 2.6974 -8.23162 -6.721 10
30 1 -3.88753 -3.24425 8.64487 12
31 1 9.90421 -1.39803 2.7592 15
32 1 -3.57717 5.26797 1.01214 21
33 1 -1.7437 5.59217 6.05906 17
34 1 5.00451 3.90263 -6.29713 16
35 1 8.5605 7.66112 -3.32959 13
36 1 -1.56515 4.81749 -3.1293 22
37 1 2.71504 -4.24051 -4.32778 21
38 1 -5.81445 8.54516 -3.45359 7
39 1 -1.15692 1.8635 -2.40003 22
40 1 -2.60209 8.98106 -2.49135 15
41 1 1.85971 7.4296 0.491227 24
42 1 -10.0661 3.90806 -0.7736 15
43 1 0.215431 8.22822 4.81179 17
44 1 -4.47621 2.20872 -9.90978 13
45 1 -6.83715 -6.90257 6.07222 13
46 1 -2.1938 1.29249 0.638491 21
47 1 0.178435 -5.38714 6.54313 21
48 1 -5.83982 -1.88508 -3.10678 21
49 1 6.5975 -7.33207 -1.60972 11
50 1 -6.81636 0.754387 4.04273 23
51 1 -5.23268 1.70343 -6.96225 20
52 1 -0.658175 -9.59582 4.61442 14
53 1 4.03521 3.55209 -3.07602 23
54 1 -4.18176 -6.28752 7.53516 12
55 1 6.25344 1.37599 -4.00034 22
56 1 1.77182 3.78578 -7.3686 16
57 1 0.804327 1.55136 2.25685 23
58 1 -1.49916 0.0271915 4.10996 23
59 1 -5.19049 0.270353 -0.648389 23
60 1 2.62853 -5.62937 1.66075 18
61 1 1.52572 11.666 0.797798 12
62 1 -10.0279 0.549523 2.90423 17
63 1 -0.752132 9.21072 1.76866 17
64 1 1.24951 -4.62565 10.9592 11
65 1 0.429145 -7.43084 -4.77587 16
66 1 7.29865 1.97426 -7.09812 13
67 1 -6.52627 -4.76915 1.24913 22
68 1 -3.70902 -6.8552 -0.272989 23
69 1 4.82898 -3.68059 6.60074 17
70 1 -2.37795 -6.04873 4.72299 21
71 1 4.92044 10.9523 0.932901 12
72 1 -8.32042 -6.29468 3.26816 16
73 1 -7.07527 -7.72356 0.593818 16
74 1 -3.05593 -4.94314 2.01916 23
75 1 -0.214351 -4.30909 2.96491 21
76 1 -5.29212 -4.9191 -2.02106 22
77 1 -4.85753 4.42907 -4.6436 19
78 1 1.90864 -8.74134 6.25324 14
79 1 -4.3279 -0.40599 2.4715 22
80 1 -11.172 0.556525 5.47038 8
81 1 -2.3808 -8.29341 2.2984 22
82 1 -2.71078 -2.69584 4.47313 19
83 1 -0.995027 2.21406 6.25248 24
84 1 -11.568 -2.35122 3.76543 9
85 1 -2.89539 7.48494 3.3485 17
86 1 -4.49273 4.85356 4.31564 20
87 1 4.01515 2.03083 3.04571 22
88 1 -4.9923 1.00962 8.39613 15
89 1 -5.3265 -3.54453 -10.0603 12
90 1 1.72084 0.870635 5.25585 21
91 1 -4.70128 -1.24852 -6.12893 23
92 1 -7.56766 -2.83253 -7.23966 13
93 1 7.41744 4.99963 6.56305 11
94 1 -3.89865 3.23376 -1.58268 21
95 1 3.99705 -2.60854 9.98638 12
96 1 0.55844 -4.47473 -8.69438 17
97 1 -10.9978 0.941369 -0.269269 13
98 1 -4.8119 -10.4185 0.749999 12
99 1 1.60351 0.0553863 -3.54185 21
100 1 3.31268 -0.0425706 1.31916 22
101 1 -6.50889 3.45348 6.52003 14
102 1 2.01475 3.16109 7.57509 22
103 1 -3.9588 8.65389 0.502304 13
104 1 -0.313939 -7.30395 -7.86883 13
105 1 3.59609 10.6569 -1.68909 10
106 1 4.23363 0.530623 -2.10834 20
107 1 -8.65859 0.504914 -7.03741 10
108 1 -9.96372 2.12653 -3.28756 12
109 1 -5.531 -7.3386 -4.83214 14
110 1 5.43354 -5.46472 3.78759 18
111 1 -7.80307 3.40599 -5.28783 13
112 1 -5.30278 -1.09353 6.17586 20
113 1 3.21735 -2.17309 -1.689 19
114 1 -7.32436 4.0041 3.36694 20
115 1 0.587378 -5.65647 -2.55998 22
116 1 -0.0144963 -2.14975 5.9323 22
117 1 1.29625 -7.27482 8.91912 13
118 1 3.67031 -7.37606 -3.58036 18
119 1 7.82028 0.228798 4.81376 16
120 1 -4.85839 2.50065 1.92011 21
121 1 0.0290175 -1.65722 -9.18162 16
122 1 -0.739732 3.92895 0.360062 20
123 1 6.81868 -2.60462 2.33972 21
124 1 -5.2925 -5.26154 -7.60826 12
125 1 -5.71675 -3.18117 3.41258 23
126 1 5.83899 7.39761 4.95382 16
127 1 10.1403 5.40108 -1.76642 16
128 1 1.62245 5.0738 -1.48771 22
129 1 -0.717061 5.3061 -6.04334 17
130 1 7.29488 10.453 -1.00977 11
131 1 4.59446 2.31152 -8.97327 12
132 1 0.920394 -8.68297 -1.96893 14
133 1 1.83202 2.17683 -1.03527 21
134 1 6.81313 -4.10767 -0.628767 16
135 1 0.992342 -7.26772 3.94992 20
136 1 -2.20863 2.61618 -5.37532 23
137 1 2.4353 4.17711 1.36828 24
138 1 9.23732 2.61156 -4.16804 17
139 1 4.76995 5.85587 -0.769583 22
140 1 -4.29222 6.09866 -1.94057 19
141 1 7.50251 -1.54135 -3.23011 17
142 1 1.88345 -4.02375 8.08142 22
143 1 -6.10765 -3.75845 6.69615 14
144 1 -2.18213 -9.24662 -0.405295 15
145 1 1.08193 -2.0836 -6.25557 23
146 1 2.76972 7.85776 -2.6575 19
147 1 3.93586 -8.11613 3.45523 13
148 1 5.95922 -1.17328 -0.709252 20
149 1 -4.63896 -2.61179 0.124121 23
150 1 -2.91487 -6.2475 -6.12976 15
151 1 1.833 -1.29537 10.9701 13
152 1 -1.96624 1.25208 9.51332 15
153 1 2.90366 -6.61051 -8.90803 10
154 1 -7.2073 0.728615 -4.39323 20
155 1 5.05682 8.06303 2.17195 20
156 1 11.226 5.40675 -4.22543 9
157 1 1.07614 -1.64843 2.91607 23
158 1 -1.7446 0.608147 -11.0823 12
159 1 -9.6763 3.2023 5.07713 13
160 1 -1.44498 -5.15118 8.97938 15
161 1 7.24999 3.53662 3.75386 18
162 1 -4.7046 -0.513533 -11.8876 10
163 1 8.66169 -4.40024 2.05469 12
164 1 -0.346098 -6.42252 0.452818 22
165 1 7.17282 1.69333 8.15482 10
166 1 1.15266 -8.54599 1.26078 14
167 1 0.450967 -0.408701 -0.528268 19
168 1 3.1023 -1.35483 7.04238 20
169 1 4.82522 2.57213 0.198303 25
170 1 10.5492 6.94132 1.28812 11
171 1 6.76863 0.635278 2.16877 23
172 1 8.17952 6.68879 2.94477 18
173 1 -3.09575 -3.59483 -4.21604 22
174 1 4.89019 6.83651 7.77358 12
175 1 -6.94743 4.87738 0.161107 19
176 1 -3.62336 4.54621 -7.4721 13
177 1 -2.73273 -0.525225 7.23055 20
178 1 -2.55213 -7.24927 -2.8685 19
179 1 -8.1236 -6.78969 -2.64874 11
180 1 5.23612 4.92432 2.32875 22
181 1 -1.98155 3.31683 3.39618 21
182 1 -6.16631 6.83029 2.38075 14
183 1 3.62003 1.21988 -5.71497 21
184 1 5.05712 3.6656 8.69074 16
185 1 -7.01436 2.5799 -2.26756 21
186 1 -2.45808 -2.28278 -10.4693 14
187 1 -0.487049 4.00972 8.84838 16
188 1 6.53044 -6.96116 1.51865 12
189 1 2.40807 9.66123 2.81013 16
190 1 2.68754 -4.0853 4.61422 23
191 1 -0.371693 6.03423 2.55425 22
192 1 -2.21002 -4.28563 -1.07761 22
193 1 4.001 -3.6929 -7.36099 21
194 1 3.79341 -3.10086 1.47013 20
195 1 3.83111 -6.5611 6.50987 16
196 1 -1.47833 -0.604593 -4.95616 22
197 1 0.173478 -2.67047 -3.17821 22
198 1 -7.89331 0.817037 6.97391 13
199 1 9.84089 1.87569 3.08255 14
200 1 -0.218908 7.72945 -3.96765 15
201 1 0.452968 0.174838 8.15432 22
202 1 8.12552 5.17588 -5.59928 13
203 1 1.04226 1.58549 10.6117 12
204 1 -1.2717 -8.07055 7.18897 14
205 1 -7.49469 5.45057 -2.74365 12
206 1 7.82849 9.36524 2.15258 13
207 1 -9.20598 -4.5674 5.88906 11
208 1 10.9221 0.551013 0.335952 12
209 1 -9.46023 -5.56445 -0.0571468 13
210 1 11.5534 3.86173 1.01185 13
211 1 5.47025 -4.60213 -3.5444 18
212 1 1.07033 3.17528 -4.4519 20
213 1 2.66446 6.63107 3.59235 21
214 1 -8.69386 -1.73267 -4.29219 14
215 1 -1.28788 6.96224 -0.680862 19
216 1 5.45369 6.35731 -3.98175 16
217 1 -1.90163 -2.95041 -7.15042 21
218 1 4.4393 -1.72144 -4.93511 23
219 1 -5.67197 -8.81571 -1.94921 15
220 1 -1.83323 -1.92656 1.14264 22
221 1 -3.8462 -8.71598 5.08733 15
222 1 8.55165 -1.53035 -0.0986437 17
223 1 -10.7972 3.40092 2.47001 11
224 1 -1.37892 2.5512 -8.12448 16
225 1 -6.76963 -4.48122 -4.46513 16
226 1 7.71833 -2.99793 5.17943 14
227 1 0.853922 -3.52784 0.0624079 20
228 1 3.06408 -3.06961 -10.0539 10
229 1 -9.41401 5.77704 2.08149 12
230 1 -8.45264 -1.73035 4.82853 20
231 1 -0.470404 -4.67503 -5.53635 20
232 1 7.59397 7.2784 -0.246732 20
233 1 7.7705 4.1246 0.589197 22
234 1 -3.31988 -10.9422 3.06931 10
235 1 2.87429 -0.537895 -8.22571 20
236 1 -3.39588 7.36974 -5.25645 14
237 1 2.7824 8.81803 6.40721 12
238 1 5.55057 8.44138 -1.64307 19
239 1 11.6449 2.53559 -2.0383 12
240 1 -5.31848 -6.87337 2.9406 21
241 1 -4.07676 1.74801 5.04501 25
242 1 6.64647 -3.0598 -6.19632 15
243 1 5.15509 -6.18198 -6.47679 13
244 1 -2.05212 11.431 -0.0757646 11
245 1 -2.52562 -1.13399 -1.90808 23
246 1 0.284867 9.78941 -1.29666 17
247 1 -6.43534 -9.28083 3.66692 12
248 1 4.22205 -8.84997 -0.575528 12
249 1 -8.00788 -3.42043 -1.39852 21
250 1 -7.7586 1.55909 0.988832 22
251 2 -10.8363 2.11402 4.14315 10
252 2 5.44397 7.34887 0.140009 24
253 2 1.45612 -0.628035 6.50307 23
254 2 -2.53128 -4.37113 -5.85665 17
255 2 -10.9263 2.21618 -1.53663 11
256 2 -5.85245 -7.97877 5.0208 13
257 2 -0.586684 2.65797 10.1561 13
258 2 4.33066 5.5819 9.0843 13
259 2 -2.84926 -3.55416 0.671149 26
260 2 -3.53117 2.07224 8.96824 13
261 2 -0.694169 4.47449 4.08161 23
262 2 3.86351 -0.67065 -0.51251 20
263 2 6.44283 -2.69229 -4.38312 17
264 2 -2.84521 -0.763251 -11.4237 13
265 2 5.73456 -4.50107 -6.97033 12
266 2 0.636804 -4.30928 -4.0445 18
267 2 -3.43502 -8.4517 -1.51921 15
268 2 2.1794 2.82457 2.88349 24
269 2 10.4142 0.241002 2.20045 14
270 2 2.63955 -3.90663 -0.0503198 18
271 2 -1.49097 -0.434374 -0.193118 22
272 2 8.72449 7.92489 1.26456 15
273 2 -0.903827 7.81272 3.21202 18
274 2 5.37898 10.558 -1.18688 11
275 2 -0.422961 5.55053 -1.76063 21
276 2 5.85425 1.32242 -8.09424 15
277 2 -5.58241 0.879191 -10.6264 12
278 2 -0.429792 -6.45069 4.96012 20
279 2 -8.15782 0.0928336 2.6137 17
280 2 7.39014 -2.49006 -1.52588 17
281 2 -5.06469 -10.201 2.92668 13
282 2 7.29159 0.815367 -5.54518 19
283 2 2.65495 7.28377 7.69652 13
284 2 3.64582 -3.03734 8.03545 18
285 2 -2.39323 -6.6091 1.01793 22
286 2 3.09448 -1.63561 2.39867 21
287 2 -2.88705 -9.86041 1.16691 13
288 2 -1.7054 1.07127 -6.42229 22
289 2 0.675613 -5.72186 1.928 19
290 2 -8.17941 -5.86799 5.00262 14
291 2 -5.98127 -9.36255 -0.193473 13
292 2 -8.51818 -7.15377 -0.71829 13
293 2 -3.11949 6.25537 4.69762 16
294 2 0.986776 -0.710985 -7.66713 23
295 2 8.14977 5.38672 -1.15443 18
296 2 3.67847 3.555 -7.87768 13
297 2 -5.10715 1.82279 -2.3009 21
298 2 -8.08743 4.12948 -1.28468 17
299 2 8.86541 -1.66846 4.39188 14
300 2 0.757439 10.2185 2.12151 14
301 2 -4.57891 3.60046 5.97836 19
302 2 1.10617 3.54674 -0.0278187 21
303 2 2.19861 9.543 -1.93416 15
304 2 1.51224 7.20539 -4.18564 14
305 2 1.24541 4.76862 8.4517 16
306 2 -1.74248 -1.3874 5.65421 22
307 2 -0.462475 -6.55314 8.1287 18
308 2 2.86142 -4.5847 -8.76709 14
309 2 -0.378859 -8.353 -0.212435 17
310 2 -0.403366 -7.4797 -2.94986 17
311 2 -1.93535 -2.87935 -2.85363 19
312 2 -2.47522 9.76061 1.00294 14
313 2 -7.62822 -4.92915 -2.61623 16
314 2 8.8015 -2.4175 1.59904 18
315 2 4.77667 1.20925 1.57025 22
316 2 -0.240884 0.324621 -10.0197 16
317 2 -2.56716 1.61142 -9.38566 17
318 2 0.340925 -1.32612 -4.47015 21
319 2 -0.967854 -5.61702 -9.00577 16
320 2 4.26477 -2.06822 -8.87635 15
321 2 3.06332 -2.98201 -5.80914 22
322 2 -5.04771 -4.82114 2.64538 20
323 2 1.415 -2.65981 -9.8868 14
324 2 -0.280202 -4.9605 -0.880196 23
325 2 4.33628 5.46159 -5.40911 16
326 2 4.17509 -7.29112 -7.39804 10
327 2 -4.11024 2.57553 -5.35855 22
328 2 -1.60502 4.00816 7.23164 20
329 2 -8.52602 -5.40733 1.57896 18
330 2 -5.01844 1.10222 3.38978 24
331 2 -6.81601 3.09683 1.66774 24
332 2 -7.62058 -2.72025 2.94734 20
333 2 -3.56617 -7.59384 3.70549 20
334 2 -9.9295 1.77797 1.42275 17
335 2 1.79786 -5.57076 9.42928 14
336 2 7.69735 2.46631 -2.97621 18
337 2 0.0268159 -3.43288 -7.06594 21
338 2 4.73635 6.50432 3.42045 20
339 2 2.09886 8.67439 4.47889 17
340 2 3.58848 -0.698669 10.47 13
341 2 -4.1248 0.806915 0.7688 21
342 2 -0.301695 6.85717 6.17989 17
343 2 -7.52004 -1.06752 -8.00864 14
344 2 7.43046 0.0604353 0.427793 20
345 2 7.25853 4.91916 2.33523 21
346 2 -11.0042 -3.08486 2.09684 12
347 2 -6.12354 6.84061 -2.83315 13
348 2 2.97568 1.26358 -9.15969 14
349 2 -4.85019 -0.193709 -7.75655 18
350 2 3.63809 -2.48481 5.33046 22
351 2 0.0808307 8.16709 0.0288394 22
352 2 9.21738 -0.743311 -4.14868 13
353 2 2.28486 -8.80555 -0.42356 12
354 2 -4.26212 7.17656 1.70075 17
355 2 -2.46089 -1.89929 8.56229 17
356 2 2.40906 -7.50187 2.50087 16
357 2 4.64653 8.23378 6.1961 12
358 2 -0.54778 8.99692 -2.6894 15
359 2 0.0162238 -9.03938 6.22861 13
360 2 5.78726 -7.91344 0.164312 10
361 2 -0.973888 2.31353 1.82867 21
362 2 -5.55744 -5.47598 6.62469 16
363 2 1.12861 4.64663 -5.81472 18
364 2 1.69772 0.740153 0.643519 22
365 2 10.3158 6.7374 -3.15783 10
366 2 -0.577705 -4.09729 10.4058 14
367 2 -7.82397 -1.90729 -2.59432 19
368 2 6.05149 0.13581 -2.40328 20
369 2 7.1719 10.3762 0.760761 12
370 2 3.80014 -3.46348 -2.98023 21
371 2 -9.61319 -3.77291 -0.521191 14
372 2 2.04183 1.57794 8.92076 20
373 2 -5.03066 -3.76724 -3.47412 22
374 2 -5.55594 -0.437895 -4.52986 19
375 2 6.54158 2.99323 -0.436747 19
376 2 2.17218 4.21853 -3.04238 20
377 2 0.566058 2.50251 -8.12136 17
378 2 3.66919 -4.66132 2.9684 24
379 2 5.25212 3.49318 3.80363 20
380 2 3.04284 -7.84355 4.96187 15
381 2 0.539484 -0.00739846 3.88141 21
382 2 -3.8227 4.00488 2.54367 22
383 2 -8.45782 1.22686 -2.7406 21
384 2 -1.44244 5.66551 0.979211 22
385 2 -6.71243 4.14775 -3.97483 17
386 2 -5.30131 -1.88933 1.77325 21
387 2 -3.05563 -7.20959 6.25363 16
388 2 3.08029 11.063 0.0943458 12
389 2 -6.41072 -3.99469 -8.38905 12
390 2 11.5595 2.23194 -0.138212 12
391 2 -3.19188 7.61222 -1.00541 18
392 2 7.4681 -5.35155 0.96306 13
393 2 -7.81692 -3.18249 6.23038 15
394 2 -6.05403 -5.67705 -5.91567 14
395 2 -4.90584 4.82464 -0.444898 19
396 2 -9.46124 4.62146 3.64114 11
397 2 4.57482 2.46812 -4.63485 22
398 2 2.61909 -7.79758 7.65125 11
399 2 -7.70025 6.15996 1.51766 12
400 2 -2.65823 10.6138 -1.58309 9
401 2 2.44466 -3.06145 11.0525 10
402 2 -8.77361 -0.112721 -5.22275 14
403 2 7.73936 8.62645 -1.82438 13
404 2 -6.46448 1.98731 7.87315 12
405 2 -1.4638 0.752656 7.72425 23
406 2 3.50381 -0.352786 -3.65481 21
407 2 1.07784 -2.26386 -1.561 23
408 2 -1.84696 -1.70288 -8.84485 20
409 2 -3.41833 4.69943 -3.35585 22
410 2 -3.41678 -7.26259 -4.53263 16
411 2 -2.37269 0.10694 -3.45774 23
412 2 3.59785 0.937934 4.62734 22
413 2 5.69234 5.64464 6.02954 17
414 2 7.46014 6.5936 -4.45115 15
415 2 2.13083 -5.48982 6.3626 20
416 2 4.02956 -0.29669 -6.72289 21
417 2 6.77147 3.42596 7.57802 13
418 2 -4.6764 -1.39405 -1.55419 24
419 2 -0.866787 3.22052 -4.09473 21
420 2 -4.38054 0.710491 6.53126 22
421 2 -7.64575 -3.05725 -5.38242 15
422 2 -2.40557 -10.1427 4.64961 11
423 2 -0.132103 11.3593 0.0558123 11
424 2 -9.75111 1.57118 6.41232 12
425 2 -10.2536 -3.62027 4.47963 11
426 2 -3.55688 -6.14555 -8.03292 14
427 2 3.74828 3.17183 6.46792 21
428 2 -4.7012 3.11995 -8.07819 15
429 2 -4.1008 5.77149 -6.01432 14
430 2 6.9259 3.81603 -6.35455 15
431 2 -0.616045 -6.47057 -6.17601 18
432 2 10.2056 6.45508 3.20644 11
433 2 6.85712 0.581066 6.57542 14
434 2 -1.43246 6.54583 -4.88021 15
435 2 -5.4036 -1.59968 -10.5138 13
436 2 1.4479 -7.40566 -7.94282 10
437 2 -6.01817 -3.89286 -0.36836 23
438 2 1.66665 6.02296 1.87191 22
439 2 -3.88553 8.60259 -3.83018 12
440 2 -7.10804 1.48729 -6.22557 16
441 2 -7.49396 2.6576 4.93867 18
442 2 0.0474806 -2.56966 1.5348 21
443 2 5.31123 4.91017 -2.42829 24
444 2 7.12793 -1.57259 -7.30353 13
445 2 -2.03178 -4.38513 3.56675 19
446 2 -9.49051 3.52831 -4.46234 12
447 2 -1.98849 4.05091 -6.95172 18
448 2 4.61901 -5.94151 -4.58369 18
449 2 5.64733 1.85403 9.4119 12
450 2 -7.20831 -0.48915 5.57331 19
451 2 -3.53324 -5.63134 -2.04321 19
452 2 -10.2838 -0.846365 4.2905 16
453 2 3.82956 2.26101 -1.47478 24
454 2 7.11226 -4.20367 3.77127 15
455 2 -10.1416 4.54317 0.90009 13
456 2 -5.09507 -2.37988 7.53722 14
457 2 -0.337824 -8.53986 2.87961 17
458 2 10.8002 3.78307 2.70677 14
459 2 2.15939 -8.08722 -4.9201 15
460 2 -2.10912 2.83748 -0.979939 19
461 2 -2.92358 -1.66934 -5.88816 17
462 2 -4.63628 -2.39805 4.76188 20
463 2 5.31573 -5.40688 5.83384 14
464 2 0.403593 0.877324 -2.28128 22
465 2 9.72813 4.26878 -4.79066 13
466 2 6.7682 8.18486 3.24985 15
467 2 -6.18502 5.45242 3.71736 17
468 2 6.42043 -2.65624 6.50563 14
469 2 2.58149 -6.30201 -2.48874 18
470 2 -5.47905 -6.5766 0.855202 20
471 2 -2.65593 -1.1372 2.99189 21
472 2 5.70043 -2.74762 0.749165 21
473 2 5.79257 -5.40029 -1.73919 17
474 2 7.81518 1.66847 3.50132 17
475 2 6.22676 -0.834644 3.43656 23
476 2 4.26276 0.0254689 7.58358 22
477 2 11.6497 4.41367 -2.765 11
478 2 -10.297 -0.768289 -0.468117 15
479 2 4.20383 4.40522 0.575509 22
480 2 -7.18035 0.220703 -0.0735655 21
481 2 -0.0286154 -3.3385 7.7615 21
482 2 4.49318 7.80261 -3.01955 15
483 2 10.7379 5.3799 0.21793 14
484 2 2.8118 6.6263 -1.01189 20
485 2 0.298377 -0.236403 10.1961 15
486 2 0.672895 -3.15054 4.33521 19
487 2 9.84728 -0.464751 -1.05179 15
488 2 5.71856 -7.31597 3.20248 12
489 2 -3.4499 -3.8813 -10.1804 12
490 2 4.19092 9.78568 2.27173 16
491 2 2.08045 5.40162 4.80019 21
492 2 -7.27457 -7.85795 2.72332 15
493 2 -3.26191 -4.91217 8.86075 12
494 2 -2.19921 1.69597 4.75575 23
495 2 8.59499 4.35515 5.06982 12
496 2 10.5006 1.53649 -3.24501 11
497 2 1.09074 2.57015 6.07061 22
498 2 1.40626 1.36316 -5.13879 22
499 2 -6.54381 -7.86059 -3.22831 13
500 2 4.88223 -8.3881 -2.34106 11
