ITEM: TIMESTEP
10359000
ITEM: NUMBER OF ATOMS
500
ITEM: BOX BOUNDS pp pp pp
-30.0 30.0
-30.0 30.0
-30.0 30.0
ITEM: ATOMS id type x y z Coordination
1 1 -4.18351 1.23689 -3.707 24
2 1 6.12401 -0.971135 7.32977 13
3 1 2.51598 5.5087 9.59664 12
4 1 7.93682 1.31457 -1.03839 21
5 1 -8.23424 -0.471353 -1.62161 20
6 1 -2.48468 0.12889 -8.17918 22
7 1 -0.75528 -2.47116 9.24229 17
8 1 3.36007 -5.021 -1.46478 22
9 1 -5.68582 -0.563433 -8.86464 16
10 1 1.4637 1.88656 -9.96347 12
11 1 5.76164 -0.737179 -7.4913 17
12 1 8.92804 4.97343 3.60547 18
13 1 2.29722 5.94776 -5.40936 15
14 1 4.24451 4.31266 5.21834 23
15 1 1.55061 6.29958 6.50255 20
16 1 -7.10631 -0.891744 1.50075 20
17 1 -10.6728 -2.43162 -0.0084328 10
18 1 10.6074 -0.492198 -2.83221 11
19 1 3.66439 0.624545 9.18854 15
20 1 -9.01528 -3.45861 2.48415 18
21 1 -2.24311 -5.60308 -9.54006 11
22 1 7.17104 4.23019 -1.77396 20
23 1 8.4634 -0.712442 -5.5771 12
24 1 4.20913 -0.919567 3.94244 22
25 1 -3.54413 4.00728 7.43516 15
26 1 4.8349 1.35413 6.07099 22
27 1 1.12216 3.9757 4.3856 23
28 1 0.397609 1.18293 -6.99133 24
29 1 2.23369 -8.47689 -6.65223 10
30 1 -3.50173 -3.49784 7.82733 18
31 1 9.90325 -1.87012 2.95412 14
32 1 -3.44291 5.5346 1.39862 24
33 1 -1.49957 5.59092 5.32055 20
34 1 5.19811 4.07509 -5.90084 16
35 1 8.52379 7.41353 -3.47147 13
36 1 -1.85773 4.60859 -2.90769 20
37 1 2.24401 -4.08141 -4.08344 20
38 1 -5.61841 8.89489 -2.77005 9
39 1 -1.24739 1.95879 -2.52018 22
40 1 -2.88008 8.96431 -2.48857 17
41 1 1.67943 7.53999 0.20363 21
42 1 -9.56248 4.27515 -0.959527 13
43 1 0.0173491 8.85162 4.54485 13
44 1 -4.07569 2.13053 -9.75343 13
45 1 -6.94145 -7.14782 5.54107 12
46 1 -2.31842 1.24966 0.571903 22
47 1 -0.427655 -5.18357 6.45127 25
48 1 -5.77383 -1.45174 -3.20951 25
49 1 5.69984 -7.06512 -2.39596 15
50 1 -6.81497 1.16542 4.32194 24
51 1 -4.93762 1.96865 -6.85159 21
52 1 -1.09062 -10.1642 4.09194 12
53 1 3.94808 3.64015 -2.91383 21
54 1 -4.12479 -6.39372 7.09526 16
55 1 6.66659 1.84302 -3.89542 21
56 1 1.96419 3.63548 -7.32964 16
57 1 0.962842 1.74888 1.89026 21
58 1 -1.33846 0.12066 3.79501 23
59 1 -5.28774 0.641866 -0.400302 21
60 1 2.56171 -5.68814 1.53453 21
61 1 2.32386 10.0172 2.79606 14
62 1 -9.76344 0.409128 2.66296 19
63 1 -0.771502 9.59645 1.44094 15
64 1 1.20326 -4.6986 10.445 12
65 1 -0.0832438 -7.70164 -4.51716 16
66 1 7.5327 2.04612 -7.35074 12
67 1 -6.69563 -4.84469 0.849464 20
68 1 -3.94691 -6.81003 -0.355691 21
69 1 5.19737 -3.96038 6.74019 15
70 1 -2.15849 -5.82967 4.62087 19
71 1 6.20328 11.2833 0.597607 11
72 1 -8.88543 -6.92245 2.93516 15
73 1 -7.36307 -7.86456 0.207195 15
74 1 -3.17912 -4.96121 1.89555 21
75 1 -0.256496 -4.06929 3.0315 22
76 1 -5.36465 -4.54075 -2.3431 23
77 1 -5.09511 4.29009 -4.37663 20
78 1 1.68204 -9.43969 5.64098 11
79 1 -4.19 -0.478707 3.11042 23
80 1 -11.0643 0.89179 5.1783 9
81 1 -2.21117 -8.18212 2.20958 21
82 1 -2.71574 -2.87909 5.06166 21
83 1 -0.911202 2.47266 6.43191 25
84 1 -11.1766 -2.23215 3.5737 10
85 1 -2.94875 7.89021 3.63749 16
86 1 -4.38468 4.95935 4.59414 20
87 1 3.79637 2.07739 3.10285 22
88 1 -5.17679 0.784169 8.33691 13
89 1 -5.13657 -3.49004 -10.339 10
90 1 1.67124 0.65678 5.03127 25
91 1 -4.47749 -1.2049 -6.13121 22
92 1 -7.49866 -2.65768 -7.98088 12
93 1 7.25579 5.01333 6.31452 15
94 1 -3.99814 3.36402 -0.963681 21
95 1 3.36075 -2.45297 9.99047 11
96 1 0.734319 -4.17182 -8.67133 17
97 1 -10.4412 1.19416 -0.482039 13
98 1 -5.6092 -10.8595 0.729849 11
99 1 1.44369 0.291821 -3.75067 23
100 1 3.45727 0.0427072 0.790729 21
101 1 -6.29928 3.25352 6.93897 15
102 1 2.20895 3.20619 7.3054 22
103 1 -4.10349 8.72598 0.295001 15
104 1 -0.151935 -7.13956 -8.03405 13
105 1 3.53894 9.70907 -0.542541 16
106 1 4.45967 0.494582 -1.97544 21
107 1 -8.44155 0.801147 -7.24399 10
108 1 -9.97234 1.73374 -3.44592 12
109 1 -5.7172 -6.66376 -4.57699 13
110 1 5.33874 -5.10462 3.72349 17
111 1 -8.10403 3.53987 -5.67332 13
112 1 -5.39906 -1.44062 5.99518 19
113 1 2.97911 -2.12902 -1.73755 20
114 1 -7.33362 4.06278 3.48594 21
115 1 0.48544 -5.7067 -2.43179 21
116 1 0.124977 -2.05212 6.01114 23
117 1 1.37109 -7.67331 8.90273 11
118 1 2.74901 -7.81299 -3.2484 16
119 1 7.65076 -0.448985 4.75674 16
120 1 -4.75024 2.68852 2.56011 24
121 1 0.552011 -1.06748 -9.30018 19
122 1 -0.917615 3.85666 0.281635 23
123 1 6.79886 -2.46224 2.20944 22
124 1 -5.44523 -5.27795 -7.82718 12
125 1 -5.65036 -2.93176 3.10405 19
126 1 6.17399 7.24039 4.70616 18
127 1 10.1717 5.57654 -1.11752 16
128 1 1.37333 4.92363 -1.80463 21
129 1 -0.824841 5.26084 -6.30905 16
130 1 8.79057 9.15142 -0.827993 13
131 1 4.69897 2.20588 -8.54603 13
132 1 0.169774 -8.843 -1.65264 14
133 1 1.95474 1.95346 -0.966541 23
134 1 7.82153 -4.67388 -1.35449 13
135 1 0.759866 -7.13389 3.45864 20
136 1 -2.21417 2.63011 -5.38392 22
137 1 2.25421 4.38806 1.05045 21
138 1 9.74534 2.48602 -3.90439 15
139 1 4.42153 5.95044 -0.579408 21
140 1 -4.63862 6.13435 -1.53727 20
141 1 7.25284 -1.32445 -2.76774 21
142 1 1.8862 -4.27084 7.71053 22
143 1 -6.93599 -4.30059 7.3524 10
144 1 -2.33358 -9.92871 -0.299489 16
145 1 1.35235 -2.19433 -6.15993 23
146 1 2.89383 7.89687 -2.66067 19
147 1 3.89035 -7.98297 3.03945 14
148 1 5.93107 -1.93048 -0.355911 23
149 1 -4.96815 -2.60818 0.0259985 21
150 1 -2.93146 -6.06447 -6.03732 14
151 1 1.04926 -1.21523 11.2873 10
152 1 -2.18812 1.8394 9.47374 14
153 1 3.43801 -6.74352 -8.50899 9
154 1 -7.08375 0.713305 -4.81146 21
155 1 4.99995 8.33554 1.81473 18
156 1 11.2011 5.35863 -3.76513 9
157 1 1.00271 -1.53778 2.73135 21
158 1 -1.33076 1.0471 -11.2028 13
159 1 -9.46108 3.16908 5.14575 14
160 1 -1.50048 -5.66254 9.27217 14
161 1 7.10881 2.7789 3.71044 22
162 1 -4.32129 -0.242394 -11.9144 9
163 1 8.28563 -4.9705 1.96105 14
164 1 -0.748622 -5.90212 0.648651 24
165 1 7.66726 2.20259 6.77886 11
166 1 0.810251 -9.01377 1.35675 15
167 1 0.334433 -0.190916 -0.759635 23
168 1 3.01935 -1.51222 6.99077 21
169 1 5.142 2.80033 0.316419 22
170 1 10.7283 6.85433 1.63128 11
171 1 6.48952 0.411284 1.75401 21
172 1 9.03825 8.05981 4.68937 10
173 1 -3.17334 -3.15647 -4.37809 20
174 1 4.6102 6.87603 7.87287 13
175 1 -6.85984 4.72474 0.456822 19
176 1 -4.03131 4.46282 -7.08557 13
177 1 -2.29291 -0.351568 7.17657 21
178 1 -2.61267 -7.27411 -2.86929 20
179 1 -8.12718 -6.89566 -2.69693 10
180 1 5.25941 5.0233 2.40798 21
181 1 -1.69539 3.15783 3.24836 26
182 1 -5.96702 6.85174 2.62335 14
183 1 3.72644 1.60491 -5.70386 23
184 1 5.1799 3.81463 8.51143 14
185 1 -7.09482 2.69589 -2.45662 23
186 1 -2.56031 -2.07454 -10.774 14
187 1 -0.552248 4.52026 8.35361 17
188 1 5.45338 -5.49694 0.963028 20
189 1 6.22444 10.4347 3.96262 9
190 1 2.55799 -3.74776 4.75398 22
191 1 -0.511242 6.33479 2.49339 24
192 1 -2.36623 -4.21321 -1.35612 23
193 1 4.24127 -4.01778 -6.88967 19
194 1 3.64125 -3.17571 1.51297 22
195 1 3.10663 -6.91301 6.01382 16
196 1 -1.42687 -0.214127 -4.93136 24
197 1 -0.0748067 -2.42553 -3.14648 24
198 1 -8.07987 0.779747 6.97476 13
199 1 9.92565 1.33335 2.95304 14
200 1 -0.210699 7.18592 -3.67856 19
201 1 0.630637 0.484145 8.14402 21
202 1 8.37999 4.66743 -5.56468 13
203 1 1.18917 2.48864 10.3052 14
204 1 -1.10906 -7.86139 6.37951 19
205 1 -7.33524 5.66664 -2.80711 12
206 1 8.81017 9.78123 1.90462 11
207 1 -9.31624 -4.72923 5.39346 12
208 1 11.1803 0.217275 0.277556 13
209 1 -9.87086 -5.52779 0.0914557 11
210 1 11.6126 3.50751 1.43604 12
211 1 5.62907 -4.02236 -3.41564 19
212 1 0.798894 3.1296 -4.57718 22
213 1 2.73299 6.75276 3.50227 23
214 1 -8.73013 -2.09582 -4.82381 14
215 1 -1.22739 6.83 -0.576315 24
216 1 5.59347 6.288 -3.74572 17
217 1 -1.62051 -2.61874 -7.16269 22
218 1 4.21246 -1.64855 -4.69279 21
219 1 -5.31385 -8.99681 -2.05336 14
220 1 -2.08744 -1.96008 0.945155 21
221 1 -4.00314 -8.57726 4.62586 15
222 1 8.80879 -1.9418 -0.0980524 18
223 1 -10.734 3.29673 2.11624 13
224 1 -1.2946 3.04368 -8.30341 16
225 1 -6.69668 -3.93626 -4.98649 15
226 1 7.81438 -3.50642 5.13243 13
227 1 0.697116 -3.44489 -0.172374 22
228 1 3.61309 -3.16788 -9.63226 10
229 1 -9.33438 5.8615 2.20569 11
230 1 -8.37571 -1.87301 4.80042 19
231 1 -0.450483 -4.88007 -5.44542 19
232 1 7.57458 6.61897 0.671265 21
233 1 8.52064 3.59988 0.890648 19
234 1 -3.77815 -11.465 2.51385 9
235 1 3.09925 -0.102518 -7.91251 21
236 1 -3.43572 7.26427 -5.41311 14
237 1 3.52956 8.60606 5.58548 14
238 1 5.99907 9.41027 -2.26503 11
239 1 11.7787 2.52375 -1.76468 13
240 1 -5.19588 -6.71259 2.56686 19
241 1 -4.02378 1.66691 5.35556 25
242 1 6.91906 -3.40154 -5.61103 13
243 1 4.91743 -6.491 -5.35524 16
244 1 -3.49214 11.3042 -0.345379 6
245 1 -2.7261 -0.931384 -1.99589 22
246 1 0.204799 9.55553 -1.66359 14
247 1 -7.02088 -9.73254 3.25599 11
248 1 3.33188 -8.1851 -0.227658 15
249 1 -8.22942 -3.54124 -2.06799 17
250 1 -7.66846 1.78238 1.11704 22
251 2 -10.7024 2.04039 3.79913 12
252 2 5.797 6.95488 0.522934 20
253 2 1.26266 -0.567182 6.7016 24
254 2 -2.39083 -4.32438 -5.55216 18
255 2 -10.0774 2.72974 -1.7227 13
256 2 -5.92958 -7.81332 4.01295 15
257 2 -0.361114 3.12325 9.44152 14
258 2 4.24927 5.44057 8.90443 13
259 2 -3.12037 -3.52225 0.321124 24
260 2 -3.82591 2.36688 8.50011 14
261 2 -0.669737 4.81563 3.90157 23
262 2 4.03027 -1.09754 -0.571016 21
263 2 6.46299 -2.36422 -4.01554 19
264 2 -2.29428 -0.57837 -11.669 12
265 2 5.39387 -4.6546 -5.38553 16
266 2 0.37801 -4.27386 -3.79085 22
267 2 -3.34783 -8.56146 -1.35649 16
268 2 2.13083 3.36035 2.75204 25
269 2 10.3383 -0.124196 1.98043 14
270 2 2.52588 -4.2811 0.099321 21
271 2 -1.60881 -0.454216 -0.571093 21
272 2 8.90274 8.02288 0.775298 13
273 2 -1.13553 7.90471 3.27291 17
274 2 5.26376 10.3698 -0.811007 13
275 2 -0.505293 5.77958 -2.03628 22
276 2 6.06234 1.13731 -8.13007 14
277 2 -5.02554 0.729245 -10.3727 13
278 2 -0.465712 -6.6163 4.94562 20
279 2 -7.70699 0.59397 2.76358 20
280 2 7.47607 -2.89002 -1.3199 18
281 2 -5.56488 -10.9009 2.62212 9
282 2 7.93615 1.17066 -5.46801 17
283 2 3.0742 7.53871 7.08172 14
284 2 3.54925 -3.28868 8.22273 17
285 2 -2.43686 -6.61819 0.809175 20
286 2 2.9681 -1.67818 2.58486 21
287 2 -3.59702 -11.0786 0.709431 10
288 2 -1.54777 1.24228 -6.53658 22
289 2 1.60396 -5.17162 6.12378 21
290 2 -8.5922 -6.27216 4.80374 11
291 2 -6.19807 -9.51614 -0.302849 13
292 2 -8.87184 -6.72743 -0.900668 14
293 2 -3.33322 6.378 4.59518 16
294 2 1.22646 -0.600791 -7.31686 23
295 2 8.29815 5.1705 -0.642116 19
296 2 3.86836 3.17568 -7.03831 17
297 2 -5.12138 2.20112 -2.19261 21
298 2 -7.59315 4.30532 -1.29363 17
299 2 8.67882 -2.05478 4.36669 13
300 2 2.07951 8.4335 4.44111 16
301 2 -4.61874 3.52798 5.88532 21
302 2 1.09934 3.61366 -0.287941 22
303 2 2.02743 9.39145 -1.40428 13
304 2 1.69611 7.15715 -4.02925 15
305 2 1.41302 5.00987 8.18897 19
306 2 -1.41464 -1.15194 5.36672 24
307 2 -0.490124 -6.97212 8.0415 18
308 2 3.48969 -4.82124 -8.65625 12
309 2 -0.646971 -9.11699 0.0317188 13
310 2 -0.679982 -7.37796 -2.78218 19
311 2 -2.07387 -2.62797 -2.6741 24
312 2 -4.66362 10.0867 -1.31924 9
313 2 -7.25759 -5.21963 -3.10255 15
314 2 8.8845 -2.85833 1.64189 16
315 2 4.62977 1.1957 1.30185 23
316 2 0.232774 0.570356 -10.3446 15
317 2 -2.34029 1.75248 -9.51422 17
318 2 0.409795 -0.994492 -4.75109 20
319 2 -0.372054 -5.58098 -9.10801 12
320 2 4.0306 -1.60436 -8.55036 16
321 2 3.15445 -2.91 -5.7351 20
322 2 -5.1761 -4.59093 2.18072 17
323 2 1.68889 -2.87708 -9.71124 13
324 2 -0.472819 -4.74695 -0.91351 20
325 2 4.13413 5.54121 -5.14209 16
326 2 3.91579 -7.48167 -6.79833 10
327 2 -4.26466 2.65154 -5.10803 22
328 2 -1.6741 4.24498 6.73069 20
329 2 -8.73796 -5.31139 1.63945 18
330 2 -5.05216 1.1411 3.67802 23
331 2 -6.64804 3.28355 1.69101 23
332 2 -7.49123 -2.33727 2.87063 22
333 2 -3.19641 -6.82246 3.22886 20
334 2 -9.68618 1.67095 1.23353 16
335 2 1.82377 -5.72288 9.05032 14
336 2 8.19017 2.52256 -2.79192 20
337 2 0.109315 -3.47502 -6.94015 18
338 2 4.75315 6.75149 3.36278 20
339 2 5.0914 9.49226 5.06125 13
340 2 4.55488 -0.184673 7.6237 17
341 2 -3.97728 2.01053 0.727859 22
342 2 -0.0932801 7.21299 5.80397 17
343 2 -7.44319 -0.787508 -8.24513 13
344 2 7.36058 -0.821127 0.541027 19
345 2 7.5092 4.51426 2.30853 19
346 2 -10.5793 -2.28827 1.84939 13
347 2 -6.1799 7.19185 -2.5123 15
348 2 3.13496 1.38463 -9.28293 15
349 2 -4.3049 -0.0302016 -7.54601 18
350 2 3.55299 -2.15164 5.19394 23
351 2 0.0108118 8.41404 0.0504585 21
352 2 9.09025 -1.09112 -3.81081 16
353 2 2.51588 -8.00561 1.53522 15
354 2 -4.14266 7.44979 1.94788 17
355 2 -2.53243 -1.90945 8.20511 18
356 2 0.676115 -5.66295 2.05392 22
357 2 5.4417 5.78607 6.29871 18
358 2 -1.01744 8.64641 -2.63216 14
359 2 -0.139816 -9.71609 5.65266 11
360 2 4.38345 -6.65362 -0.601928 17
361 2 -1.03919 2.33163 1.61646 22
362 2 -6.05187 -6.11346 6.86448 13
363 2 0.89819 4.55253 -6.09013 17
364 2 1.54614 0.550988 0.506201 22
365 2 10.1957 6.82179 -2.91635 10
366 2 -0.694223 -4.2684 10.1677 14
367 2 -7.57801 -1.98776 -2.99287 18
368 2 6.49381 0.697139 -2.25994 19
369 2 8.15972 10.7522 0.355187 9
370 2 3.89256 -3.74825 -2.65241 23
371 2 -9.4856 -3.73967 -0.648796 13
372 2 1.91689 4.19041 10.9931 8
373 2 -5.18612 -3.27774 -4.0055 21
374 2 -5.21555 -0.199836 -4.57513 19
375 2 6.97538 2.79449 -0.0273647 21
376 2 2.03617 3.89943 -3.31667 22
377 2 0.626891 2.67176 -8.38983 18
378 2 3.66141 -4.38586 3.1899 22
379 2 5.26743 3.39045 3.71242 20
380 2 2.33145 -8.0341 4.23039 15
381 2 0.594682 0.45318 3.43858 23
382 2 -3.41986 4.08308 2.73795 25
383 2 -7.94206 1.06428 -3.07227 21
384 2 -1.63397 5.53582 0.993167 21
385 2 -9.575 2.79891 -4.78063 10
386 2 -5.21152 -1.35529 1.48739 19
387 2 -3.08917 -7.68655 5.94875 17
388 2 3.15194 8.77142 1.18833 18
389 2 -6.12965 -3.78636 -8.7045 11
390 2 11.5776 2.09079 0.126867 13
391 2 -2.59084 9.95276 0.643431 14
392 2 7.44775 -5.56583 0.33094 14
393 2 -8.16589 -3.34195 6.16252 13
394 2 -6.08166 -5.49875 -6.02977 14
395 2 -4.91454 4.87654 -0.0625885 21
396 2 -9.56437 4.36621 3.60437 12
397 2 4.91049 2.56831 -4.40818 20
398 2 2.23843 -8.53618 7.31395 9
399 2 -7.49784 6.22538 1.80065 12
400 2 -3.10558 7.40897 -1.13815 21
401 2 1.63404 -2.97551 10.9061 11
402 2 -8.52743 -0.311869 -5.65785 14
403 2 7.7769 8.75536 -2.44256 12
404 2 -6.86632 1.67686 8.02892 11
405 2 -1.14171 1.09437 7.9938 21
406 2 3.2656 -0.367169 -3.31538 22
407 2 1.09908 -1.94963 -1.32974 22
408 2 -1.44216 -1.49 -8.68944 20
409 2 -3.80294 4.63806 -2.82176 21
410 2 -3.65838 -7.20094 -4.65903 14
411 2 -2.3673 0.523019 -3.4067 23
412 2 3.74601 0.850246 4.56646 23
413 2 8.11098 6.57983 5.13914 10
414 2 7.52926 5.92482 -4.38004 15
415 2 0.103822 -3.32068 7.61581 25
416 2 4.25935 -0.210908 -6.14624 21
417 2 7.03674 3.51632 7.97012 9
418 2 -4.71472 -1.06303 -1.39535 24
419 2 -1.08052 3.16542 -3.97485 22
420 2 -4.22714 0.0265909 6.75223 22
421 2 -7.79941 -3.03833 -6.1675 13
422 2 -2.9278 -9.90714 3.35453 14
423 2 0.389053 10.0299 2.90128 11
424 2 -9.59443 1.70204 6.38553 12
425 2 -10.1782 -3.55507 4.22579 11
426 2 -3.70902 -5.52266 -7.93058 13
427 2 4.29051 2.87579 7.00175 19
428 2 -4.65965 3.2064 -8.30548 14
429 2 -4.56021 5.92059 -6.10011 11
430 2 7.0028 3.76095 -6.46112 15
431 2 -0.661142 -6.65639 -6.1026 18
432 2 9.83333 6.59352 3.2778 12
433 2 6.82427 0.622105 6.28096 15
434 2 -1.56057 6.43841 -5.20858 17
435 2 -4.54209 -1.94582 -11.2605 8
436 2 1.66024 -7.68862 -8.11017 10
437 2 -6.33777 -3.69646 -0.78474 20
438 2 1.45422 6.45326 1.94564 24
439 2 -4.17898 8.436 -4.05628 10
440 2 -7.16662 4.17428 -4.2082 15
441 2 -7.35776 2.94406 5.18735 18
442 2 -0.124778 -2.77206 1.53156 23
443 2 5.47601 4.90901 -2.1565 21
444 2 6.92525 -1.74087 -6.52524 14
445 2 -2.20355 -4.10551 3.52279 21
446 2 -6.97274 2.06227 -6.37201 18
447 2 -2.11266 4.22336 -7.0129 19
448 2 4.49823 -7.49129 -3.85352 15
449 2 2.90545 -0.590348 10.4385 11
450 2 -7.07329 -0.540811 5.54721 19
451 2 -3.61993 -5.69475 -2.05528 22
452 2 -10.232 -0.598191 4.31351 17
453 2 3.85477 2.23421 -1.38038 23
454 2 7.12696 -4.63742 3.52631 15
455 2 -9.82699 4.52357 0.875642 14
456 2 -5.29837 -3.21906 7.01559 14
457 2 -0.324855 -8.77755 2.83625 18
458 2 9.94882 2.85315 2.06603 15
459 2 1.6037 -8.33917 -4.7454 14
460 2 -1.93819 3.24285 -1.39866 22
461 2 -2.67386 -1.74775 -5.6404 20
462 2 -4.43295 -2.00051 4.33697 21
463 2 4.65445 -5.59348 5.81667 15
464 2 0.562126 1.28494 -2.08914 24
465 2 10.0766 4.19298 -4.85896 13
466 2 7.77 9.27999 3.60368 14
467 2 -6.16241 5.4485 3.85137 16
468 2 6.53126 -2.61977 6.44335 15
469 2 2.42678 -5.87395 -3.06114 21
470 2 -5.84146 -6.64918 0.453756 21
471 2 -2.32498 -0.42498 2.22612 21
472 2 5.47973 -3.53275 0.966368 24
473 2 6.68527 -5.35649 -2.56027 14
474 2 7.9364 1.17802 3.41317 20
475 2 5.94974 -0.80595 3.08187 22
476 2 2.005 1.79784 8.73082 21
477 2 11.3436 4.39305 -1.97952 12
478 2 -10.0236 -0.695788 -0.636357 15
479 2 4.22276 4.43986 0.981952 20
480 2 -7.14921 0.391516 -0.176481 19
481 2 -2.46754 -4.59018 6.21896 21
482 2 4.80407 7.945 -2.61984 15
483 2 10.8103 5.10707 0.792948 14
484 2 2.65782 6.36445 -1.33743 22
485 2 0.126516 -0.832971 9.84947 16
486 2 0.747091 -3.00045 4.32962 22
487 2 10.342 -1.03212 -0.912961 14
488 2 5.1959 -6.68059 2.51677 15
489 2 -3.07122 -3.83319 -10.3644 11
490 2 5.73556 10.343 2.16135 13
491 2 2.46236 5.26015 5.13017 21
492 2 -7.99402 -8.41509 2.18189 13
493 2 -3.08393 -5.49813 8.57501 14
494 2 -1.99815 1.88288 4.81266 24
495 2 7.98441 3.61902 5.22129 15
496 2 10.804 1.31887 -2.68849 12
497 2 1.03795 2.56729 5.73052 25
498 2 1.48608 1.55028 -5.43986 21
499 2 -6.48018 -8.02113 -3.19585 15
500 2 2.06235 -8.3808 -1.5913 15
