ITEM: TIMESTEP
1068000
ITEM: NUMBER OF ATOMS
500
ITEM: BOX BOUNDS pp pp pp
-3.0000000000000000e+01 3.0000000000000000e+01
-3.0000000000000000e+01 3.0000000000000000e+01
-3.0000000000000000e+01 3.0000000000000000e+01
ITEM: ATOMS id type x y z 
1 1 -3.00806 2.53752 -4.74474 
2 1 5.88157 -1.07633 8.56661 
3 1 2.20374 3.31006 10.1088 
4 1 5.88788 -0.186868 -0.548664 
5 1 -7.77249 2.62915 0.773762 
6 1 -0.868369 0.126636 -9.68284 
7 1 1.62919 0.490759 11.0813 
8 1 3.69344 -4.6343 -1.38747 
9 1 -8.91975 0.292641 -6.66524 
10 1 1.51819 4.55082 -11.2302 
11 1 4.42325 -1.29153 -6.77626 
12 1 9.49121 2.06721 6.018 
13 1 0.817131 6.83693 -5.74335 
14 1 3.71878 5.33729 5.06441 
15 1 2.8326 6.33685 8.80237 
16 1 -7.20504 -0.567435 1.33038 
17 1 -10.118 -1.3478 -0.123768 
18 1 7.59273 -2.50072 -4.45357 
19 1 4.79564 1.47509 10.8115 
20 1 -8.79564 -3.67112 1.36763 
21 1 -2.53019 -4.67418 -6.75175 
22 1 6.95237 1.68858 -3.61601 
23 1 5.9361 -3.85371 -6.76255 
24 1 6.92919 -5.27136 3.87657 
25 1 -2.72047 5.63543 8.25252 
26 1 4.25762 0.466394 6.76897 
27 1 0.634103 4.52977 4.68463 
28 1 0.238148 3.74886 -5.55388 
29 1 1.37002 -6.49597 -6.33564 
30 1 -3.85048 0.342561 8.91615 
31 1 6.6578 -2.32573 2.32409 
32 1 -3.93011 6.78757 2.78967 
33 1 -1.44996 6.20462 5.51384 
34 1 4.48097 4.9361 -9.46039 
35 1 6.78922 4.95162 -3.49833 
36 1 -2.31477 5.3888 -6.31971 
37 1 3.24839 -2.94341 -4.06993 
38 1 -5.14767 5.33873 -5.55781 
39 1 -0.704943 3.2201 -2.28046 
40 1 -3.04855 8.31632 -2.27705 
41 1 0.788096 6.61436 -0.064558 
42 1 -9.03615 5.38671 0.66896 
43 1 0.169325 7.61715 7.60574 
44 1 -4.3134 6.43023 -8.6699 
45 1 -6.83204 -6.65248 6.57605 
46 1 -2.62581 0.813143 1.26437 
47 1 -0.568389 -7.3199 1.15786 
48 1 -5.21299 -1.3936 -2.66697 
49 1 5.76109 -8.40648 0.532214 
50 1 -6.65366 1.75884 3.78189 
51 1 -7.48539 3.80309 -7.31416 
52 1 0.568823 -11.5375 3.5308 
53 1 6.25857 2.25553 -8.49652 
54 1 -4.17754 -4.8361 7.28071 
55 1 4.46058 1.74912 -6.12244 
56 1 1.24622 6.65779 -9.39863 
57 1 0.392716 1.79456 2.96397 
58 1 -1.46385 -0.277468 4.54808 
59 1 -5.36029 0.705937 -0.151113 
60 1 2.46396 -5.36462 1.00263 
61 1 0.300148 8.73461 -1.71861 
62 1 -11.637 -0.0593937 1.8647 
63 1 1.55128 8.11478 4.65115 
64 1 3.66878 -1.61735 11.2975 
65 1 2.0674 -8.81859 -4.23858 
66 1 6.90051 -0.252552 -6.26667 
67 1 -6.0868 -5.02372 0.592073 
68 1 -2.81911 -6.62612 -0.864627 
69 1 4.67147 -4.05142 8.87431 
70 1 -1.46456 -5.62517 5.05382 
71 1 6.23033 8.46009 1.20936 
72 1 -6.51439 -7.45087 3.25548 
73 1 -5.71953 -7.49562 -0.644183 
74 1 -2.96803 -4.80492 1.57217 
75 1 -0.129776 -4.23708 2.54568 
76 1 -4.65101 -4.54972 -2.2662 
77 1 1.24521 1.16665 -7.28453 
78 1 2.17562 -5.85866 5.00528 
79 1 -4.41477 -0.66101 3.24734 
80 1 -9.22211 0.92128 4.19818 
81 1 0.117672 -10.2621 0.206499 
82 1 -2.91572 -3.31092 4.67422 
83 1 -0.853719 2.18162 6.76532 
84 1 -10.5709 -2.35493 3.34853 
85 1 -6.73924 7.26155 2.928 
86 1 -4.81271 4.92682 5.4722 
87 1 3.12593 2.02468 4.11764 
88 1 -2.69786 2.9591 9.90831 
89 1 -6.11015 -1.67707 -7.73382 
90 1 4.52456 -0.681943 3.63742 
91 1 -3.87729 -0.458149 -5.52588 
92 1 -8.6377 -3.16483 -6.67126 
93 1 8.47327 4.36281 8.21712 
94 1 -3.45942 2.90778 -1.08216 
95 1 -0.428321 -2.12459 10.4926 
96 1 -2.76088 -3.04131 -9.27743 
97 1 -11.5057 0.88532 -1.62667 
98 1 -2.98548 -9.58907 -0.351249 
99 1 1.93708 1.91026 -3.8958 
100 1 3.28983 1.44244 0.973884 
101 1 -5.22761 3.23184 8.05142 
102 1 2.38848 3.04874 6.62648 
103 1 -5.07819 8.81612 0.190204 
104 1 -1.01689 -8.07627 -5.13695 
105 1 0.986374 9.56802 1.72854 
106 1 4.31933 3.33872 -2.88154 
107 1 -8.46965 2.44668 -4.60606 
108 1 -10.138 4.24672 -1.94156 
109 1 -3.96774 -6.46173 -5.36524 
110 1 4.75995 -5.73096 6.13947 
111 1 -7.97561 5.68258 -4.42313 
112 1 -4.60577 -1.20617 6.35018 
113 1 2.82786 -0.267667 -1.8058 
114 1 -7.94145 3.46099 6.10678 
115 1 1.88594 -5.84103 -2.94645 
116 1 0.21651 -3.3249 5.57655 
117 1 -0.597087 -7.6886 8.39186 
118 1 5.14442 -8.22792 -2.79972 
119 1 6.30249 1.12061 2.24137 
120 1 -4.63628 3.4723 1.90231 
121 1 2.1735 0.848448 -11.4304 
122 1 -0.666834 3.51572 0.602556 
123 1 7.10159 -3.6569 6.72509 
124 1 -5.36711 -3.78185 -5.2451 
125 1 -5.51066 -3.67132 3.49509 
126 1 6.01744 7.12305 3.83634 
127 1 9.27162 3.19656 -2.64856 
128 1 0.404471 3.70834 -8.53143 
129 1 -1.28152 7.82969 -7.49399 
130 1 3.27149 7.95709 -0.624655 
131 1 4.28436 2.32489 -11.1797 
132 1 2.67686 -8.03939 -0.973279 
133 1 1.87997 2.71423 -0.976107 
134 1 8.61719 -6.34182 0.752021 
135 1 -1.62698 -9.90852 3.00308 
136 1 -4.46584 2.95728 -9.30388 
137 1 2.0704 4.60554 2.04712 
138 1 8.22151 -1.04449 -1.95384 
139 1 -1.13558 6.24713 -2.9586 
140 1 -6.06461 7.44834 -2.77598 
141 1 7.55512 -6.0685 -4.49834 
142 1 1.26104 -8.5661 3.27317 
143 1 -6.65402 -3.04335 6.74624 
144 1 -0.51584 -8.28568 -2.11352 
145 1 1.69094 -0.925737 -5.58784 
146 1 3.79133 4.90564 -0.295528 
147 1 4.19267 -7.55922 3.33565 
148 1 5.3606 -0.654382 -3.52065 
149 1 -4.39134 -2.41515 0.672537 
150 1 -5.45985 -4.42796 -8.34514 
151 1 -2.02654 -0.185232 11.5357 
152 1 -0.351242 1.0762 9.25267 
153 1 3.81157 -3.63052 -9.75007 
154 1 -5.44545 1.45406 -3.25926 
155 1 4.17676 6.26288 -4.40268 
156 1 9.63725 0.368688 -4.67062 
157 1 1.49959 -0.839048 2.5473 
158 1 -1.82012 2.24113 -7.56822 
159 1 -9.92068 3.33509 3.13501 
160 1 1.30383 -2.63639 8.57372 
161 1 5.90993 2.72719 5.21219 
162 1 -6.07202 1.40853 -6.53952 
163 1 9.09602 -3.71088 3.60863 
164 1 0.078225 -5.41018 -0.779673 
165 1 7.10698 1.78309 8.33924 
166 1 2.10175 -8.36171 6.30838 
167 1 0.25782 0.344043 -0.0513287 
168 1 3.34742 -2.59372 6.06324 
169 1 6.37167 2.93734 -0.52854 
170 1 9.89986 4.40042 0.253908 
171 1 6.52166 -3.22069 -0.961317 
172 1 8.58326 5.34341 5.22099 
173 1 -2.50196 -2.4773 -4.32274 
174 1 6.26846 6.6182 7.31844 
175 1 -4.17765 5.01326 -2.98892 
176 1 -4.05177 8.39508 -5.56092 
177 1 -1.27365 -1.48051 7.35871 
178 1 -1.38543 -5.53633 -3.60308 
179 1 -6.38804 -6.9215 -3.54187 
180 1 5.54521 4.38515 2.24068 
181 1 -1.85919 3.30119 3.73574 
182 1 -6.07054 5.59726 0.497217 
183 1 5.97134 5.11919 -6.61433 
184 1 5.38987 4.7268 9.46891 
185 1 -8.06618 0.611465 -1.78794 
186 1 -3.99119 -0.456399 -8.68068 
187 1 0.0117003 4.28957 8.29679 
188 1 5.41699 -5.25675 1.30733 
189 1 4.09696 9.68687 3.94317 
190 1 3.77707 -3.82762 3.24763 
191 1 -0.739681 6.39599 2.5932 
192 1 -2.00096 -3.18298 -1.46327 
193 1 2.98868 -4.13443 -7.05001 
194 1 4.13743 -2.06824 0.909727 
195 1 2.13367 -5.7497 8.3203 
196 1 -0.959632 0.706497 -4.33444 
197 1 0.368536 -1.76404 -2.85732 
198 1 -6.81053 0.548301 6.54324 
199 1 8.61147 -0.283732 3.70936 
200 1 -0.960055 9.14683 -4.61758 
201 1 1.20089 -0.0829923 6.19996 
202 1 8.37145 2.91013 -6.12623 
203 1 -3.40239 -2.7853 9.0341 
204 1 -3.69478 -6.57196 9.93998 
205 1 -8.51419 7.37963 -1.54241 
206 1 8.20517 6.35574 2.33964 
207 1 -8.54473 -4.76322 4.7686 
208 1 9.24811 -1.95605 0.379827 
209 1 -8.63646 -5.92009 -1.13105 
210 1 8.72401 3.15535 3.37242 
211 1 6.75165 -6.13787 -1.31502 
212 1 1.68863 5.21485 -2.99116 
213 1 3.31351 7.26103 2.46325 
214 1 -8.87964 -1.29552 -3.69903 
215 1 -2.75091 5.7089 -0.157075 
216 1 2.64117 8.93457 -3.71257 
217 1 -1.06304 -1.33929 -6.96084 
218 1 1.862 -1.54185 -9.07522 
219 1 -3.69276 -8.98447 -3.08837 
220 1 -1.65916 -1.8036 1.49904 
221 1 -0.917783 -9.10546 5.87774 
222 1 9.34304 -4.26231 -2.37423 
223 1 -10.902 2.4221 0.835236 
224 1 -1.80394 5.1896 -9.52976 
225 1 -8.29965 -4.42068 -3.89872 
226 1 6.77124 -0.418497 5.73562 
227 1 1.13561 -2.63782 -0.0191646 
228 1 0.248219 -4.37538 -8.90622 
229 1 -7.19669 4.5825 3.28313 
230 1 -7.81097 -1.32278 4.33128 
231 1 0.310812 -3.81144 -5.51877 
232 1 7.31662 5.54702 -0.54258 
233 1 9.04377 1.35099 0.507071 
234 1 -3.72375 -7.189 5.60628 
235 1 5.24964 -0.491791 -9.54092 
236 1 2.87947 4.33865 -6.2496 
237 1 3.74339 7.97219 6.68686 
238 1 5.824 7.87018 -2.18448 
239 1 10.7058 1.06173 -1.45836 
240 1 -1.3525 -4.64188 8.17436 
241 1 -3.59451 1.79389 5.16553 
242 1 5.04267 -6.38301 -7.63678 
243 1 4.33682 -5.93123 -4.83908 
244 1 -1.50049 8.90955 4.12574 
245 1 -2.55028 0.0895729 -1.84659 
246 1 -1.85428 8.80145 1.05722 
247 1 -3.86368 -7.79938 2.15075 
248 1 3.31632 -10.1889 1.78039 
249 1 -7.27529 -2.71672 -1.40839 
250 1 -6.62342 4.12025 -2.29963 
251 2 -10.4572 1.47654 2.77817 
252 2 5.61219 4.35212 0.107001 
253 2 1.37676 -2.179 6.57716 
254 2 -1.52753 -3.32413 -5.84161 
255 2 -10.5278 2.75515 -1.17665 
256 2 -4.72619 -7.28693 3.92213 
257 2 1.32233 1.8649 9.78497 
258 2 6.08864 1.23818 6.52845 
259 2 -2.5872 -3.21622 0.398893 
260 2 -3.77212 4.21407 8.9222 
261 2 -1.06116 5.06161 3.8062 
262 2 3.79972 -0.292106 -0.0674568 
263 2 6.29631 -5.73609 -6.13374 
264 2 -3.17433 1.37641 -8.76636 
265 2 3.14973 -5.97035 -6.49898 
266 2 1.40101 -2.35454 -4.44546 
267 2 -1.2021 -6.37906 -1.81403 
268 2 1.61196 3.0743 3.54695 
269 2 8.80763 -2.03494 2.27441 
270 2 2.98397 -3.58155 0.0897188 
271 2 -1.66526 -0.381756 -0.0231775 
272 2 7.3213 7.04352 0.768467 
273 2 -0.299696 8.00128 5.61295 
274 2 5.27115 8.54818 -0.466341 
275 2 4.22961 4.97098 -7.5706 
276 2 3.96884 -2.03093 -8.72783 
277 2 -5.89705 3.10812 -8.08588 
278 2 -1.82279 -7.54735 5.71361 
279 2 -7.79256 0.0997223 3.05089 
280 2 6.55765 -7.00112 -3.26908 
281 2 -3.18509 -9.60549 1.55851 
282 2 8.94797 -1.11132 -3.87065 
283 2 2.12035 7.44865 7.45949 
284 2 4.86733 -2.32766 9.74893 
285 2 -2.51924 -6.84381 1.00721 
286 2 3.24861 -1.88335 2.77448 
287 2 -1.11841 -8.97707 -0.487099 
288 2 1.4901 3.26119 -6.98913 
289 2 2.31516 -6.17711 -0.759919 
290 2 -7.22664 -6.36261 4.70684 
291 2 -4.17201 -8.55666 -1.41027 
292 2 -7.25575 -6.7577 -1.89731 
293 2 -5.8101 5.80605 3.82682 
294 2 3.15628 0.341521 -6.63831 
295 2 8.50599 4.23845 -1.26354 
296 2 2.82168 5.61878 -10.1569 
297 2 -4.87813 3.19527 -2.34364 
298 2 -6.03787 5.57607 -3.54086 
299 2 6.57642 -0.710832 3.63221 
300 2 -2.54411 7.35809 4.06661 
301 2 -3.09689 5.28141 6.30631 
302 2 0.366375 5.14598 1.12178 
303 2 2.35106 8.79938 -1.88272 
304 2 1.1034 8.61981 -4.6859 
305 2 -0.702597 6.14945 7.91185 
306 2 -1.14754 -2.10794 5.08679 
307 2 1.9157 -1.78912 10.2452 
308 2 1.96183 -3.52072 -9.42557 
309 2 1.3022 -8.08831 -2.5178 
310 2 0.519176 -5.556 -4.37356 
311 2 -1.62571 -1.57441 -2.66705 
312 2 -1.75639 6.93543 1.12666 
313 2 -8.36216 -4.09271 -2.0954 
314 2 8.7689 -5.40114 -1.04099 
315 2 6.61702 3.12798 3.42954 
316 2 -0.0718308 1.79975 -8.66443 
317 2 -1.31848 4.44007 -7.55173 
318 2 0.923731 0.561687 -4.57421 
319 2 -4.59351 -2.62049 -8.74712 
320 2 4.18275 -2.95506 -5.7883 
321 2 6.95062 -2.22317 -6.35108 
322 2 -4.93051 -4.09689 1.78955 
323 2 0.942384 -0.158057 -10.3429 
324 2 0.183173 -3.67713 -1.56841 
325 2 2.33192 5.88498 -4.96506 
326 2 0.75438 -4.84561 -7.24437 
327 2 -1.3061 2.1828 -5.70655 
328 2 -1.3158 2.77293 8.6308 
329 2 -7.92872 -5.1701 0.587626 
330 2 -5.02909 0.826954 4.46808 
331 2 -6.63735 2.86753 2.38624 
332 2 -7.15256 -3.24097 4.09924 
333 2 0.419306 -5.07352 4.53029 
334 2 -11.8623 0.685033 0.244693 
335 2 5.6462 -4.65345 7.41575 
336 2 6.38904 0.389823 -2.20938 
337 2 0.717621 -0.917002 -7.62321 
338 2 4.66147 5.83974 3.00267 
339 2 3.04875 9.11141 5.41143 
340 2 -0.250272 -0.190174 10.8044 
341 2 -4.02518 2.03619 0.690142 
342 2 0.555483 3.51533 6.41501 
343 2 -8.01154 -1.2713 -7.26328 
344 2 5.72127 0.697863 -4.85963 
345 2 9.20869 4.51761 2.03884 
346 2 -10.8177 -1.76801 1.54316 
347 2 -8.11242 7.27239 -3.36164 
348 2 2.35388 2.90187 -11.2182 
349 2 -7.2986 1.92526 -2.99479 
350 2 3.458 -4.20918 5.20947 
351 2 0.398527 6.35513 -1.95678 
352 2 8.36543 -4.26425 -4.1171 
353 2 2.16535 -9.7758 0.291919 
354 2 -5.23294 7.96293 1.90329 
355 2 -0.460045 -8.40873 2.6292 
356 2 2.08734 -10.5684 3.07964 
357 2 5.24086 7.10248 5.75186 
358 2 -1.25661 8.70551 -2.81976 
359 2 -2.27492 -7.67028 9.15682 
360 2 -0.227262 -10.9494 1.8715 
361 2 -1.30767 2.20979 1.99899 
362 2 -2.33583 -4.59028 6.48123 
363 2 0.468408 7.24759 -7.57212 
364 2 1.4697 0.834763 1.47103 
365 2 10.1215 1.46798 -3.31964 
366 2 3.51625 0.316569 11.4355 
367 2 -7.11456 -1.2555 -2.6941 
368 2 6.05406 3.31928 -2.56829 
369 2 5.28026 8.58127 2.85228 
370 2 3.51073 -1.18949 -3.29218 
371 2 -8.29396 -1.93821 0.475216 
372 2 1.81815 4.82503 9.13849 
373 2 -4.59267 -2.01332 -4.44239 
374 2 -4.8183 1.67521 -4.96684 
375 2 3.86282 3.57266 5.29294 
376 2 2.90637 3.43383 0.765027 
377 2 0.224197 5.05798 -9.8929 
378 2 5.84902 -3.98755 2.73643 
379 2 4.19474 3.46121 10.3844 
380 2 5.34903 -6.33374 4.33297 
381 2 0.453607 -5.4494 1.1082 
382 2 -3.96442 3.39111 3.85027 
383 2 -8.95274 0.265833 -4.71413 
384 2 -4.19974 5.16161 1.1946 
385 2 -7.19574 5.21658 -6.10144 
386 2 -5.22567 -0.811012 1.54647 
387 2 -5.09116 -6.37494 6.68852 
388 2 2.34027 9.2297 2.96925 
389 2 -6.6993 -3.53339 -6.94807 
390 2 9.67722 -0.119282 -0.488653 
391 2 -6.45297 7.66412 -0.814136 
392 2 8.5952 -5.13647 2.45017 
393 2 -7.76291 -4.5048 6.55817 
394 2 -6.02733 -5.02429 -3.83112 
395 2 -2.88029 6.1849 -2.32473 
396 2 -8.64574 3.93157 4.45371 
397 2 3.43753 4.98756 -2.26612 
398 2 -3.32029 -4.86601 8.96574 
399 2 -7.46313 6.02296 1.65711 
400 2 -3.20801 8.86067 -0.373708 
401 2 -2.43056 -1.85972 10.5774 
402 2 -8.08059 2.02109 -6.68802 
403 2 6.76356 6.40377 -2.2992 
404 2 -5.32349 1.19384 7.75906 
405 2 -0.218456 0.305621 7.43499 
406 2 3.09846 1.92719 -2.1437 
407 2 1.08162 -0.928116 -1.10399 
408 2 -1.98832 -1.25271 -8.91136 
409 2 -0.786358 5.84467 -5.10869 
410 2 -1.8639 -8.76392 -3.5923 
411 2 -2.04348 1.69611 -3.00718 
412 2 4.17298 -1.00452 5.52256 
413 2 4.72435 6.42112 8.56384 
414 2 8.18332 3.14984 -4.2526 
415 2 2.96483 -6.57773 6.71578 
416 2 3.38585 2.83531 -4.7842 
417 2 6.90872 4.08564 8.93123 
418 2 -4.56209 0.339872 -1.8038 
419 2 0.620428 3.48979 -3.51351 
420 2 -3.17864 -1.22788 7.6189 
421 2 -8.77187 -2.95267 -4.82452 
422 2 -0.695855 -10.58 4.74862 
423 2 0.209689 8.44633 0.261148 
424 2 -8.06087 1.68444 5.62276 
425 2 -9.39565 -3.90947 3.18684 
426 2 -2.11682 -6.40321 -5.3603 
427 2 2.57658 1.18816 6.34044 
428 2 -3.45183 4.47001 -4.90304 
429 2 -4.25883 6.77115 -6.74155 
430 2 5.08745 3.06209 -9.72704 
431 2 0.856328 -8.12101 -5.55205 
432 2 8.67888 2.50315 7.54112 
433 2 9.44959 3.68848 5.01012 
434 2 -2.21347 8.48807 -5.94112 
435 2 -5.09097 -0.0250322 -7.12 
436 2 -1.74083 -4.46057 -8.66125 
437 2 -5.09136 -2.90193 -1.34105 
438 2 -0.60168 8.98556 2.61933 
439 2 -4.35031 8.25617 -3.6101 
440 2 -8.94666 4.06082 -3.49798 
441 2 -5.92631 3.6342 6.33957 
442 2 0.204486 -2.38976 2.06646 
443 2 3.97537 0.412096 -10.7297 
444 2 4.78453 -4.59748 -8.25589 
445 2 -2.06225 -4.44867 3.303 
446 2 -9.48268 5.86417 -1.14381 
447 2 -2.21019 6.82787 -8.79295 
448 2 5.52768 -4.8295 -0.688936 
449 2 6.72581 -1.71358 7.14832 
450 2 -6.72863 -1.16075 6.2338 
451 2 -2.91309 -4.135 -3.26437 
452 2 -9.89748 -1.00371 4.4885 
453 2 6.70253 1.34497 0.412979 
454 2 7.99144 -4.26151 5.20864 
455 2 -9.65651 3.80265 1.36381 
456 2 -4.84163 -2.95778 7.50438 
457 2 0.503051 -8.75366 7.11437 
458 2 8.47686 1.19076 2.25997 
459 2 3.7464 -7.74519 -4.0566 
460 2 -1.93635 3.99279 -0.829854 
461 2 -1.99678 -0.585772 -5.49509 
462 2 -4.46965 -2.28764 4.44279 
463 2 2.7776 -3.98521 8.76992 
464 2 0.143728 2.13725 -0.78208 
465 2 5.77707 0.418274 -7.9376 
466 2 7.55503 6.16444 4.0963 
467 2 -7.06718 4.21494 -0.386114 
468 2 5.92225 0.679075 9.52492 
469 2 3.36369 -4.96037 -3.38156 
470 2 -4.58101 -5.67469 -0.670412 
471 2 -2.29795 -0.592326 2.75769 
472 2 6.54735 -2.43638 -2.7086 
473 2 6.75975 -6.81388 0.686541 
474 2 8.5068 0.475033 5.31876 
475 2 6.31802 -2.0087 0.513033 
476 2 -2.73854 1.07338 10.4303 
477 2 6.80947 3.56661 -7.21754 
478 2 -10.0965 -0.356294 -1.73365 
479 2 4.19049 1.23899 2.82025 
480 2 -7.33 0.913753 -0.0459086 
481 2 2.44457 -7.7186 4.35203 
482 2 4.4219 8.0226 -3.57387 
483 2 10.3521 2.64489 -0.518882 
484 2 5.70351 5.45095 -4.92044 
485 2 0.32564 -5.80474 8.24726 
486 2 3.74406 -5.75097 2.2778 
487 2 8.92095 -2.7253 -1.30059 
488 2 4.6621 -8.83657 1.98325 
489 2 -4.53209 -5.06041 -6.49087 
490 2 2.82462 6.48869 0.643087 
491 2 2.17277 6.25705 4.32298 
492 2 -5.74551 -7.34901 1.29695 
493 2 -0.725453 -2.93649 8.65651 
494 2 -1.75199 1.80499 5.06225 
495 2 7.82124 5.67214 6.93661 
496 2 8.21817 1.03154 -5.97765 
497 2 0.886775 0.0171246 4.23444 
498 2 -3.83001 4.61823 -9.24697 
499 2 -4.83291 -7.75492 -4.1989 
500 2 4.5992 -8.48812 -1.04179 
