ITEM: TIMESTEP
10445000
ITEM: NUMBER OF ATOMS
500
ITEM: BOX BOUNDS pp pp pp
-30.0 30.0
-30.0 30.0
-30.0 30.0
ITEM: ATOMS id type x y z Coordination
1 1 -4.18871 1.23707 -3.64255 21
2 1 6.46143 -0.950078 7.54786 16
3 1 2.57663 5.25667 10.1249 10
4 1 7.32379 1.33857 -1.16053 22
5 1 -8.21735 -0.154321 -1.76704 20
6 1 -2.5982 0.486221 -8.14661 24
7 1 -0.888002 -2.56004 8.9181 18
8 1 3.59802 -5.25369 -1.41552 22
9 1 -5.90922 -0.334061 -8.74721 17
10 1 1.61905 1.5296 -10.0653 11
11 1 6.05758 -0.635805 -7.52208 14
12 1 9.20162 4.75586 3.7762 15
13 1 2.54127 5.81179 -4.7089 16
14 1 4.2301 4.89109 5.17059 24
15 1 1.7287 6.22509 6.7479 20
16 1 -7.33887 -1.04663 1.23598 21
17 1 -10.5757 -2.51177 -0.826321 10
18 1 10.3152 -0.56146 -2.65578 14
19 1 4.14809 0.912067 8.97188 14
20 1 -9.04311 -3.52447 1.81871 19
21 1 -2.69325 -5.69155 -9.56199 12
22 1 7.31358 4.36339 -2.05624 23
23 1 9.00772 -0.621937 -5.72869 13
24 1 3.83774 -1.07897 3.89844 22
25 1 -3.31406 3.98255 7.47074 15
26 1 4.85353 1.16131 6.15135 25
27 1 1.27712 3.82898 4.50634 23
28 1 0.683538 0.912231 -6.82614 22
29 1 2.81004 -8.67483 -6.53402 9
30 1 -3.65712 -3.74049 7.47727 15
31 1 9.56802 -1.87222 2.85301 14
32 1 -3.39081 5.28975 1.16378 23
33 1 -1.24142 5.71313 5.63354 18
34 1 5.24167 3.98998 -5.67751 18
35 1 8.58157 7.57714 -3.34822 14
36 1 -1.57593 4.37979 -2.7748 23
37 1 2.54904 -4.11415 -4.22363 22
38 1 -5.12996 8.67478 -2.45447 10
39 1 -1.17876 1.29091 -2.21752 22
40 1 -2.58796 9.06501 -2.74376 16
41 1 1.8917 7.58218 0.533974 22
42 1 -10.0506 4.26543 -1.07644 12
43 1 0.492623 8.76659 4.77712 15
44 1 -4.17404 2.83505 -9.73886 13
45 1 -7.09318 -6.99093 5.61153 12
46 1 -2.2314 0.877771 0.726379 21
47 1 0.0443595 -4.67232 6.13264 20
48 1 -5.67805 -1.67284 -3.05467 24
49 1 5.30905 -7.04135 -2.57905 13
50 1 -6.90247 0.950573 3.97608 23
51 1 -5.14608 1.87827 -6.74713 20
52 1 -1.11083 -9.94867 4.71045 13
53 1 4.03126 3.89805 -3.13965 19
54 1 -4.34155 -6.66813 7.57022 14
55 1 6.85799 1.51007 -4.06108 21
56 1 1.99418 3.38058 -7.32098 15
57 1 0.833806 1.7089 1.9937 20
58 1 -1.42636 0.331476 3.74872 20
59 1 -5.07399 0.467796 -0.72813 22
60 1 2.29975 -5.87321 1.80496 21
61 1 2.52083 9.896 2.91551 16
62 1 -9.89376 0.660019 2.37011 19
63 1 -0.598615 9.57779 1.82117 13
64 1 0.901495 -4.08955 10.9191 11
65 1 -0.0797306 -8.06927 -5.02468 16
66 1 7.83133 2.41644 -6.89483 14
67 1 -6.37716 -5.10062 0.742397 23
68 1 -3.86821 -7.23783 -0.50838 20
69 1 5.00275 -3.62849 6.56491 16
70 1 -2.5656 -5.85429 4.67679 21
71 1 6.32012 11.3635 0.749827 10
72 1 -8.77545 -7.00716 2.8385 15
73 1 -7.12547 -8.19864 0.299935 16
74 1 -3.38487 -4.67425 1.73777 23
75 1 -0.193791 -4.11283 2.70336 23
76 1 -4.95991 -4.76487 -2.05281 21
77 1 -4.72716 4.20631 -4.33134 23
78 1 1.80778 -8.87387 6.33913 12
79 1 -4.4934 -0.521707 3.0813 24
80 1 -11.5194 0.646365 4.76851 8
81 1 -2.24267 -8.26724 2.382 20
82 1 -2.80915 -2.97455 4.47157 21
83 1 -0.840696 2.4196 6.32468 24
84 1 -11.3922 -2.44066 2.92475 10
85 1 -2.83606 7.63918 3.29425 16
86 1 -4.32875 5.20721 4.64893 18
87 1 4.04995 2.06453 3.07445 23
88 1 -5.00301 1.28242 8.15208 12
89 1 -5.26981 -3.50442 -9.84491 12
90 1 1.65341 0.828461 4.79188 22
91 1 -4.33944 -1.08846 -6.13155 21
92 1 -7.5778 -2.63834 -7.39491 13
93 1 7.44884 5.53699 6.48938 14
94 1 -3.85527 3.09985 -1.24635 21
95 1 3.89292 -2.61391 10.0262 13
96 1 0.364783 -4.31466 -9.04821 16
97 1 -10.7425 1.35957 -0.82518 12
98 1 -5.23298 -10.8359 0.396626 12
99 1 1.55357 0.21408 -4.13333 21
100 1 3.49417 -0.331572 1.10386 24
101 1 -6.33997 3.11314 6.31504 16
102 1 2.45072 3.06354 7.7384 20
103 1 -3.37388 8.55713 0.476923 18
104 1 -0.336866 -7.26474 -8.07853 14
105 1 3.66501 10.1701 -0.208317 14
106 1 4.5041 0.512518 -2.26762 22
107 1 -8.27596 0.809177 -7.02748 13
108 1 -9.74829 2.11118 -3.93678 13
109 1 -5.25234 -7.20338 -4.82269 14
110 1 5.05885 -5.33748 3.73985 19
111 1 -7.6037 3.8896 -5.51274 14
112 1 -5.64364 -1.29287 6.08164 19
113 1 2.94653 -1.85611 -1.97329 22
114 1 -7.19528 4.08322 3.35985 18
115 1 0.166329 -5.72147 -2.77513 22
116 1 0.0380806 -1.90091 5.75355 23
117 1 1.28022 -7.07411 9.11273 12
118 1 2.71998 -7.84714 -3.65478 16
119 1 6.89463 -0.346514 4.37625 20
120 1 -4.89389 2.59887 2.0829 23
121 1 0.0422794 -1.05073 -8.89043 20
122 1 -0.887135 3.3613 -0.0643373 23
123 1 6.64183 -2.66697 2.517 20
124 1 -5.27823 -5.13761 -7.51477 13
125 1 -5.83677 -3.12609 3.10469 21
126 1 5.511 7.67821 5.08856 18
127 1 10.3315 5.46873 -0.869646 15
128 1 1.42308 5.34522 -1.58943 22
129 1 -0.380698 5.55987 -6.13238 16
130 1 8.95358 9.32517 -0.310942 12
131 1 4.90047 2.15192 -8.6201 12
132 1 0.0886723 -8.36785 -1.67443 15
133 1 2.05063 2.00236 -1.03149 21
134 1 6.55535 -4.41366 -0.330579 18
135 1 0.477915 -6.96561 4.05817 24
136 1 -2.05713 2.86068 -5.74381 24
137 1 2.35293 4.42638 1.37862 25
138 1 9.5017 2.39601 -4.1199 17
139 1 4.65752 5.82436 -0.528005 22
140 1 -4.02724 6.13182 -1.92397 22
141 1 7.31579 -1.23624 -2.98823 19
142 1 2.07007 -4.27894 7.94722 21
143 1 -6.61509 -4.18082 6.74641 12
144 1 -2.20787 -9.64699 -0.389372 15
145 1 1.12928 -2.28713 -6.2577 24
146 1 3.17456 7.78342 -2.29859 20
147 1 3.5547 -8.2375 3.26546 13
148 1 5.77046 -1.35574 -0.357822 22
149 1 -4.80819 -2.34594 0.0702966 20
150 1 -2.87764 -6.44952 -6.19239 16
151 1 1.84766 -0.971722 10.8747 11
152 1 -2.0448 1.63238 9.26794 13
153 1 2.71115 -6.68046 -8.68998 10
154 1 -6.90551 0.764623 -4.70108 21
155 1 5.036 8.17602 2.00623 21
156 1 10.9055 5.03102 -3.43795 13
157 1 0.864054 -1.46913 2.55901 21
158 1 -1.80546 0.853576 -11.0575 13
159 1 -9.40091 3.19309 4.59349 13
160 1 -1.67689 -5.64866 9.55397 13
161 1 6.84815 3.23479 4.11307 20
162 1 -5.0277 -0.344051 -11.3954 8
163 1 8.26449 -4.72124 2.3199 12
164 1 -1.02438 -6.42794 0.517765 23
165 1 7.68786 2.25741 6.65783 12
166 1 0.716073 -8.58041 1.67627 15
167 1 0.593772 -0.450766 -0.853879 22
168 1 3.03597 -1.65432 7.12558 24
169 1 4.91175 2.75588 0.177233 23
170 1 10.7535 6.90103 1.9471 11
171 1 6.47234 0.54766 1.8929 23
172 1 8.955 8.04908 4.82765 10
173 1 -3.05227 -3.26968 -4.48279 21
174 1 4.43505 6.63137 7.82714 15
175 1 -6.55776 4.94704 0.0743286 22
176 1 -3.74673 4.83412 -7.2902 12
177 1 -2.56269 -0.331206 6.5713 22
178 1 -2.63133 -7.25705 -2.91518 20
179 1 -7.56338 -6.94993 -2.62954 14
180 1 5.64194 5.2301 2.41949 21
181 1 -1.83911 3.23929 3.24116 24
182 1 -5.84719 7.17759 2.46607 13
183 1 3.80818 1.34516 -5.55204 20
184 1 5.32051 3.82507 8.24635 13
185 1 -7.29921 3.13723 -2.35026 21
186 1 -2.87873 -2.1953 -10.3596 14
187 1 -0.31396 4.46424 8.65566 17
188 1 5.81365 -7.16131 1.016 16
189 1 6.28368 10.3381 4.05968 13
190 1 2.65605 -3.81531 4.51546 23
191 1 -0.403941 5.84236 2.40153 25
192 1 -2.11368 -4.10117 -1.24106 23
193 1 3.83016 -4.02457 -7.38961 16
194 1 3.70295 -3.42302 1.48176 21
195 1 3.15418 -6.42929 6.37412 16
196 1 -1.49469 -0.171514 -5.05735 25
197 1 0.244702 -2.76478 -3.3713 25
198 1 -8.23546 1.00451 6.44504 12
199 1 9.44032 1.47419 3.41963 16
200 1 -0.0381917 7.23458 -3.6155 19
201 1 0.727584 0.248759 7.96017 21
202 1 8.47938 5.04029 -5.63752 13
203 1 1.25109 2.07918 10.4653 14
204 1 -1.362 -7.77339 6.99488 18
205 1 -7.1975 5.83479 -2.75517 13
206 1 8.95426 9.90778 2.3835 10
207 1 -9.40781 -4.82865 5.22981 12
208 1 10.5726 0.342732 0.636486 14
209 1 -9.49546 -5.62136 -0.352822 13
210 1 11.4106 3.47432 1.03979 12
211 1 5.66366 -3.56313 -2.70178 18
212 1 0.868541 3.41492 -4.72965 19
213 1 2.67895 6.77529 3.54351 26
214 1 -8.59401 -1.80728 -4.54913 13
215 1 -1.06799 6.8449 -0.269258 23
216 1 5.65666 6.27813 -3.61635 18
217 1 -2.13784 -3.00584 -7.2516 21
218 1 4.18985 -1.53476 -5.08187 22
219 1 -5.07563 -9.15686 -2.43935 14
220 1 -1.74727 -1.77599 0.941502 22
221 1 -4.08923 -8.77329 4.88732 16
222 1 8.51637 -1.8911 -0.0120065 16
223 1 -10.926 3.33427 1.87659 11
224 1 -1.01903 2.806 -8.26209 17
225 1 -6.39782 -4.25953 -4.74302 17
226 1 7.58084 -3.2616 5.24469 14
227 1 0.876699 -3.55057 -0.369343 23
228 1 2.76161 -3.10913 -10.1508 9
229 1 -9.32248 6.06886 1.80325 11
230 1 -8.49578 -2.10839 4.55432 18
231 1 -0.570926 -4.92428 -5.90726 18
232 1 7.74369 6.74631 0.224027 21
233 1 8.15088 3.59416 1.15137 18
234 1 -3.70064 -11.1656 2.5045 9
235 1 3.17084 -0.412621 -8.17226 21
236 1 -3.22788 6.91861 -5.03688 14
237 1 3.35366 9.3998 6.02422 12
238 1 6.069 8.86224 -1.29125 17
239 1 11.6692 2.36574 -1.87215 12
240 1 -5.006 -6.80973 2.59848 18
241 1 -3.92356 1.77574 5.12003 24
242 1 6.77097 -3.0657 -5.89214 13
243 1 5.18705 -6.38404 -5.92695 11
244 1 -3.36411 11.393 -0.377476 8
245 1 -2.51231 -1.16574 -2.12093 24
246 1 0.491814 9.6237 -1.06054 15
247 1 -6.95138 -9.73626 3.23029 12
248 1 3.24098 -8.47731 -0.159687 14
249 1 -7.82247 -3.43558 -1.64169 22
250 1 -7.75059 1.9189 0.7758 24
251 2 -10.8949 2.06282 3.53949 10
252 2 5.742 7.23366 0.359431 20
253 2 1.33975 -0.523699 6.21932 22
254 2 -2.65569 -4.57247 -5.81164 19
255 2 -10.2711 2.65113 -2.1691 12
256 2 -6.01992 -8.1536 4.36261 15
257 2 -0.40199 2.75026 9.55654 15
258 2 4.20181 5.12108 9.01045 12
259 2 -3.0085 -3.15828 0.317359 23
260 2 -3.50276 2.52469 8.66277 14
261 2 -0.520757 4.57737 3.93678 23
262 2 3.88187 -0.878008 -0.740639 22
263 2 5.9204 -2.23636 -4.1986 21
264 2 -3.1473 -0.547495 -11.4665 13
265 2 5.30624 -4.49423 -6.27013 13
266 2 0.228856 -4.46514 -4.27653 18
267 2 -3.37947 -8.72406 -1.62477 16
268 2 2.25838 2.95674 2.78055 23
269 2 10.0206 -0.111886 2.50099 13
270 2 2.78354 -4.75502 0.0428852 22
271 2 -1.45579 -0.543156 -0.661321 23
272 2 9.58628 8.08166 1.088 13
273 2 -0.971156 7.76556 2.89884 20
274 2 5.44476 10.5218 -0.599443 13
275 2 -0.332618 6.02095 -1.91755 22
276 2 6.53234 1.18157 -7.79943 15
277 2 -5.32167 1.20506 -10.2503 12
278 2 -0.730367 -6.40371 5.45883 23
279 2 -7.97939 0.596852 2.1776 20
280 2 7.02302 -2.69314 -1.56181 16
281 2 -5.72454 -10.6873 2.29963 11
282 2 8.36258 1.19141 -5.59075 17
283 2 3.19792 7.68024 6.82624 15
284 2 3.81484 -3.33382 8.26149 16
285 2 -2.90824 -6.50996 1.19691 22
286 2 2.98002 -1.74942 2.29185 22
287 2 -3.3742 -10.3953 0.77599 12
288 2 -1.18569 1.24027 -6.56401 23
289 2 2.09349 -4.85679 6.05713 20
290 2 -8.71708 -6.51394 4.73933 11
291 2 -6.07048 -9.46238 -0.733952 13
292 2 -8.2776 -7.06077 -0.850027 14
293 2 -2.81735 6.33081 4.77732 16
294 2 1.19157 -0.698109 -7.5122 22
295 2 8.3404 5.00594 -0.400596 22
296 2 4.16272 3.01365 -7.07805 15
297 2 -5.52141 1.95796 -2.10052 22
298 2 -8.09275 4.58408 -1.24114 16
299 2 8.37007 -1.66179 4.35624 15
300 2 2.57208 8.63738 4.44625 16
301 2 -4.60495 3.72038 5.99918 19
302 2 1.0328 3.70342 -0.270867 21
303 2 2.49549 9.36852 -1.45341 13
304 2 1.87476 7.49374 -3.92452 16
305 2 1.5029 4.67871 8.46369 17
306 2 -1.65238 -1.26301 4.75332 22
307 2 -0.527994 -6.92382 8.37755 15
308 2 2.39512 -4.74304 -8.91223 14
309 2 -0.625082 -8.43345 0.172756 17
310 2 -0.638088 -7.55503 -3.18206 19
311 2 -1.68038 -2.89526 -2.91802 22
312 2 -4.06432 9.94344 -1.49506 10
313 2 -6.83608 -5.12991 -2.75147 17
314 2 8.54492 -2.93751 1.54174 17
315 2 4.63315 1.19335 1.46169 24
316 2 -0.0214546 0.571609 -10.3235 16
317 2 -2.34343 1.95445 -9.50691 17
318 2 0.158155 -1.10219 -4.4695 23
319 2 -0.755184 -5.92469 -9.45849 14
320 2 3.76257 -2.37616 -8.4648 15
321 2 2.93942 -2.97958 -5.82065 20
322 2 -5.2767 -4.92375 2.51083 18
323 2 0.701363 -2.62677 -9.86248 14
324 2 -0.284331 -5.17554 -0.927763 23
325 2 4.35477 5.4607 -4.84982 14
326 2 3.87114 -7.20552 -7.30768 10
327 2 -4.08779 2.57327 -5.01198 23
328 2 -1.43561 4.27016 6.95242 20
329 2 -8.56417 -5.32997 1.48656 18
330 2 -5.07137 1.24595 3.59568 23
331 2 -6.67441 3.37444 1.68119 21
332 2 -7.68337 -2.76528 2.89266 19
333 2 -3.27965 -7.25535 3.80846 20
334 2 -9.92807 1.91177 0.766873 17
335 2 1.4249 -5.30899 9.4879 15
336 2 8.01881 2.68533 -2.79389 21
337 2 0.0349843 -3.71404 -7.16506 20
338 2 4.74081 6.72261 3.42568 22
339 2 5.07865 9.6623 5.46604 13
340 2 4.46702 -0.408191 7.45531 18
341 2 -4.00607 1.75233 0.399357 22
342 2 0.193828 7.11598 5.85542 16
343 2 -7.55368 -0.89818 -7.94318 15
344 2 7.28581 -0.397406 0.361143 22
345 2 7.45137 4.73578 2.885 19
346 2 -11.0179 -2.8602 1.13635 11
347 2 -5.74098 7.04553 -2.29111 15
348 2 3.35391 1.10448 -9.27189 15
349 2 -4.38635 0.274806 -7.47543 22
350 2 3.6195 -2.41119 5.41897 22
351 2 0.106624 8.39212 0.394965 19
352 2 8.91128 -0.878591 -3.98554 15
353 2 2.59243 -7.82391 1.53832 15
354 2 -4.02012 7.34173 1.7817 18
355 2 -2.62353 -1.9243 7.88177 18
356 2 0.176351 -6.0768 2.19377 22
357 2 5.40671 5.89241 6.28265 19
358 2 -0.941163 9.42444 -2.18566 15
359 2 -0.120663 -8.97662 6.03207 12
360 2 4.84237 -7.57512 -0.781225 14
361 2 -1.03706 2.26559 1.50631 22
362 2 -6.16772 -6.14407 6.96325 12
363 2 1.39926 4.70264 -6.22169 18
364 2 1.53273 0.765893 0.45295 24
365 2 9.84544 6.41064 -2.44706 14
366 2 -1.00566 -4.0248 10.2747 13
367 2 -7.79571 -1.92756 -2.7638 18
368 2 6.56718 0.459145 -2.63192 20
369 2 8.10786 10.6776 0.840639 11
370 2 3.7538 -3.42769 -2.64174 20
371 2 -9.64205 -3.97335 -1.33335 12
372 2 2.2087 3.54745 11.0147 9
373 2 -4.82702 -3.59663 -3.76023 20
374 2 -5.25467 -0.285021 -4.55245 22
375 2 6.6989 2.56097 0.21982 21
376 2 2.07431 4.28187 -3.35871 22
377 2 0.843182 2.33922 -8.53756 18
378 2 3.4121 -4.64037 2.8037 22
379 2 4.98075 3.61034 3.90657 21
380 2 2.37777 -7.65484 4.61464 18
381 2 0.492076 0.335776 3.21981 25
382 2 -3.60504 3.95436 2.54237 25
383 2 -8.16634 1.35716 -3.09898 22
384 2 -1.52299 5.21666 1.08931 23
385 2 -9.44542 3.68765 -5.03774 11
386 2 -5.54697 -1.61539 1.70977 22
387 2 -3.37657 -7.90551 6.60505 15
388 2 3.30808 8.93962 1.20287 20
389 2 -6.20089 -3.66353 -8.23715 12
390 2 11.6635 1.83417 -0.0368737 11
391 2 -2.0799 10.453 0.903726 14
392 2 7.08261 -5.7033 0.987946 12
393 2 -8.05108 -3.68381 5.58293 14
394 2 -5.93064 -5.71537 -5.81995 14
395 2 -4.49371 4.75224 -0.512161 22
396 2 -9.28413 4.34469 2.94843 13
397 2 5.07729 2.46804 -4.4335 21
398 2 2.1795 -7.7503 7.67448 11
399 2 -7.39275 6.69106 1.34434 11
400 2 -2.7702 7.53821 -1.05644 21
401 2 2.2652 -2.80538 11.2219 10
402 2 -8.63393 -0.0991523 -5.22265 14
403 2 7.87239 8.23448 -1.45324 15
404 2 -6.76941 1.6501 7.50633 12
405 2 -1.16681 0.851944 7.60423 24
406 2 3.28158 -0.441575 -3.49623 22
407 2 1.03337 -2.24368 -1.6436 23
408 2 -2.04939 -1.4475 -8.49774 21
409 2 -3.35897 5.01598 -3.27786 20
410 2 -3.44026 -7.43929 -4.59104 14
411 2 -2.49136 0.414636 -3.39722 22
412 2 3.54763 0.665687 4.59204 24
413 2 7.33966 7.17792 5.37639 16
414 2 7.49783 6.21443 -4.49922 14
415 2 0.511246 -3.22133 7.34868 22
416 2 4.4744 -0.358933 -6.58316 21
417 2 6.97085 4.00979 7.55404 13
418 2 -4.51063 -1.1725 -1.57415 24
419 2 -0.963757 3.56082 -4.46848 22
420 2 -4.50618 0.194526 6.3564 19
421 2 -7.73468 -3.20495 -5.54375 14
422 2 -2.96964 -10.265 3.96101 11
423 2 0.600316 10.167 3.17331 10
424 2 -9.89272 1.40627 5.8245 12
425 2 -10.191 -3.74889 3.82941 11
426 2 -3.80825 -6.06515 -8.14598 14
427 2 4.7717 2.33843 7.47024 16
428 2 -4.74191 3.3219 -7.97469 16
429 2 -4.22514 5.66906 -5.77095 14
430 2 7.02846 4.12843 -6.34685 15
431 2 -0.884512 -7.00294 -6.31182 16
432 2 9.71857 6.69285 3.61736 12
433 2 6.95287 0.482515 6.14532 16
434 2 -1.2651 6.89463 -4.918 15
435 2 -5.20899 -1.61971 -10.001 13
436 2 1.35965 -8.03555 -7.69771 9
437 2 -6.23584 -3.70135 -0.627235 24
438 2 1.66679 6.21548 2.04632 23
439 2 -3.82098 8.04229 -3.69341 13
440 2 -6.77292 4.38802 -3.82598 17
441 2 -7.52633 2.64269 4.85337 18
442 2 0.321144 -2.60427 1.14774 21
443 2 5.43806 4.8703 -2.14851 21
444 2 7.53241 -1.56537 -6.67542 12
445 2 -2.00579 -4.19951 3.18078 21
446 2 -7.17134 2.10077 -6.17004 17
447 2 -1.97077 4.24044 -7.1145 19
448 2 4.67826 -7.02144 -4.28434 14
449 2 3.69823 -0.555227 10.0603 12
450 2 -7.56899 -0.503397 4.95812 20
451 2 -3.26651 -5.70655 -1.60384 22
452 2 -11.1994 -0.677812 3.41915 12
453 2 4.02052 2.39001 -1.61123 23
454 2 6.80069 -4.27087 3.58832 18
455 2 -10.4856 4.86101 0.67858 10
456 2 -5.55442 -2.81452 7.30485 13
457 2 -0.449847 -8.77991 3.30253 18
458 2 9.96368 2.88851 2.17082 14
459 2 1.64491 -8.5659 -4.90343 13
460 2 -1.92323 2.7474 -1.58286 21
461 2 -2.62229 -1.78611 -5.71868 20
462 2 -4.73059 -2.14472 4.50849 23
463 2 4.67169 -5.30262 5.62895 15
464 2 0.768344 1.00711 -2.23434 24
465 2 9.85569 4.13897 -4.75177 14
466 2 8.10124 9.52943 3.88295 11
467 2 -6.08442 5.61911 3.56942 17
468 2 6.53073 -2.43899 6.55592 14
469 2 2.46201 -5.84809 -3.21772 22
470 2 -5.64528 -6.9678 0.75342 24
471 2 -2.57518 -0.54404 2.36823 22
472 2 5.50901 -3.00374 0.692052 24
473 2 5.75603 -5.30765 -1.7728 14
474 2 7.29495 1.47719 3.48828 21
475 2 5.65773 -1.06507 3.08655 23
476 2 1.98436 1.4358 8.80158 19
477 2 11.4399 4.17498 -1.88569 12
478 2 -10.0985 -0.581594 -0.894776 15
479 2 4.31142 4.46106 0.965623 23
480 2 -6.90445 -0.0393965 -0.235703 19
481 2 -2.53404 -4.2592 6.09095 20
482 2 5.14825 7.73242 -2.34828 16
483 2 10.9795 5.3164 0.923717 13
484 2 2.84806 6.37598 -0.910268 22
485 2 0.412968 -1.21218 9.3513 18
486 2 0.851693 -3.0629 4.10195 23
487 2 9.9353 -0.776711 -0.775481 14
488 2 4.9921 -7.07051 2.77199 12
489 2 -3.39502 -3.98585 -10.0096 12
490 2 5.59113 10.1665 2.21362 15
491 2 2.30668 5.49013 5.08526 22
492 2 -7.90645 -8.54175 2.01512 13
493 2 -3.06836 -5.39969 8.36375 15
494 2 -2.03788 2.0765 4.80183 24
495 2 8.25324 3.91868 5.33849 14
496 2 10.6494 1.34746 -2.97667 15
497 2 1.30421 2.57832 5.98296 22
498 2 1.75865 1.75062 -5.37871 21
499 2 -5.90523 -7.55495 -3.11266 16
500 2 1.9621 -8.21084 -1.71472 17
