ITEM: TIMESTEP
4000
ITEM: NUMBER OF ATOMS
1000
ITEM: BOX BOUNDS pp pp pp
-30.0 30.0
-30.0 30.0
-30.0 30.0
ITEM: ATOMS id type x y z Coordination
1 1 -4.45899 -8.59988 -6.06843 16
2 1 3.49767 -8.14641 7.71702 16
3 1 -10.7452 9.10611 -0.810778 13
4 1 -11.3232 1.86067 -9.42781 9
5 1 -0.871091 -9.12461 10.6038 8
6 1 -9.34337 3.32008 -12.6078 7
7 1 -2.68384 -10.3445 7.10863 11
8 1 9.22271 -3.94778 5.24452 15
9 1 -2.25279 5.3385 11.2761 21
10 1 -2.13392 11.4802 -7.22166 12
11 1 0.146146 3.85641 13.7306 13
12 1 -11.3199 0.862739 2.51329 15
13 1 -5.55391 -1.6117 -7.79331 19
14 1 3.96313 -2.77396 8.32285 20
15 1 -2.5018 6.78367 14.7573 9
16 1 0.470067 -6.20141 5.01854 22
17 1 -12.2195 -2.73 4.35321 19
18 1 -9.7065 -0.065246 -0.429252 18
19 1 -3.64814 14.0212 -0.643827 10
20 1 -1.12502 3.05293 -10.6273 13
21 1 3.06158 -3.95463 -10.7808 13
22 1 -2.09468 -5.56416 15.3091 8
23 1 -12.2986 7.39775 -3.52988 12
24 1 -3.87879 12.2555 2.69887 17
25 1 1.52528 -11.5917 2.74806 15
26 1 5.90021 -8.27634 -7.75779 10
27 1 5.60793 2.21451 5.6428 22
28 1 -10.0415 9.16388 -4.07298 12
29 1 1.0606 9.48815 -2.72114 20
30 1 0.984535 2.87812 8.2135 20
31 1 5.31134 -2.38365 11.0603 16
32 1 -12.6768 -0.197896 -0.198412 14
33 1 8.2402 6.16751 7.97083 18
34 1 6.16825 -3.50828 -5.2122 23
35 1 2.46321 -0.142599 7.51592 20
36 1 -7.77151 -4.98811 2.74835 17
37 1 -10.3066 -3.31275 -7.19157 15
38 1 -5.1333 9.83304 -2.2322 21
39 1 -2.90547 8.65752 -7.8525 15
40 1 4.49582 -0.508289 -5.09348 21
41 1 5.48143 -3.88245 5.5296 21
42 1 4.61343 -8.5388 11.1709 8
43 1 -4.57067 6.33715 7.23586 20
44 1 -8.48926 -4.57335 7.78388 19
45 1 -10.2126 5.8186 10.3635 12
46 1 7.73017 -8.53781 -3.01744 14
47 1 4.24612 1.4589 -10.4775 13
48 1 -1.62226 11.3395 5.14091 17
49 1 -8.90355 6.4254 -10.8231 11
50 1 1.03957 9.51115 2.27675 20
51 1 -4.74466 -4.78037 13.3808 11
52 1 0.700258 -6.2933 -5.64077 18
53 1 5.38912 -4.77563 -8.89429 15
54 1 -6.29256 3.15836 7.6759 21
55 1 -13.7888 -4.88299 0.247522 13
56 1 7.10671 -3.21047 3.01272 22
57 1 -8.34543 -8.91902 -1.47759 13
58 1 7.14102 -8.82953 2.0355 21
59 1 -3.73133 8.37014 4.68594 22
60 1 3.64961 5.33315 -5.29708 21
61 1 10.2766 -8.72452 3.05442 8
62 1 -7.58832 -11.1998 1.10592 9
63 1 7.14328 8.80443 3.38146 22
64 1 7.17666 5.35403 -0.450748 22
65 1 3.83855 13.4418 -5.66856 15
66 1 -1.45505 -6.05632 -11.9776 12
67 1 -2.44615 9.33158 -2.59134 21
68 1 12.0169 3.26377 -5.00611 11
69 1 4.42058 3.32289 -8.26024 16
70 1 6.66834 -6.58652 4.70221 18
71 1 -6.98962 7.20105 -2.93694 17
72 1 7.02519 11.0911 -0.0287714 15
73 1 9.20615 11.3864 2.41228 10
74 1 -2.99569 11.2129 0.0558566 22
75 1 -8.44811 1.0169 -11.4827 11
76 1 -12.2169 -5.31996 -3.08392 16
77 1 -4.49359 11.2417 9.34151 12
78 1 -3.97122 10.4809 -5.22026 16
79 1 3.13167 -2.22243 13.8714 15
80 1 -12.8135 -6.14316 5.66118 15
81 1 -4.44958 -9.18394 4.88415 16
82 1 1.26863 11.2498 -0.199721 19
83 1 8.60262 10.8926 -5.0061 13
84 1 -1.21161 -9.44367 4.83337 22
85 1 -12.2516 5.73784 -0.353123 15
86 1 -5.13344 3.36814 10.8793 19
87 1 -5.40849 3.21425 -7.61598 20
88 1 -8.2336 -2.76615 5.54689 23
89 1 -8.17113 -10.1848 4.0655 10
90 1 2.77283 -3.45023 -5.29202 19
91 1 -5.788 9.04499 7.8062 21
92 1 -7.73891 2.58657 4.82245 21
93 1 -7.79518 0.605713 -2.84276 20
94 1 -2.8728 -8.1891 2.14395 22
95 1 5.83774 8.24648 -5.37308 20
96 1 5.28305 0.430533 12.8078 15
97 1 -4.12372 4.40803 -10.9419 13
98 1 -12.9801 -4.21296 -6.58052 9
99 1 -2.83011 12.8396 -3.44395 12
100 1 3.21694 3.48045 12.596 17
101 1 -5.69806 10.052 -8.02104 12
102 1 2.47035 7.26754 -8.79849 14
103 1 -4.30327 0.509092 8.19801 19
104 1 -6.60278 8.75391 10.7164 11
105 1 -2.67578 -4.94811 -8.80368 20
106 1 4.82161 12.2289 -8.14183 13
107 1 3.22702 12.4048 3.02638 15
108 1 -10.9474 3.36527 4.2578 17
109 1 4.3977 7.08316 13.1419 9
110 1 12.8815 4.71676 -1.8444 13
111 1 -1.07432 5.87887 8.50811 20
112 1 -9.65345 4.449 7.48741 22
113 1 -10.7123 -3.86164 -0.818289 19
114 1 1.45137 -5.08002 15.2002 8
115 1 3.63549 -8.36746 -3.39436 19
116 1 -2.73885 0.28203 -10.7041 17
117 1 7.76699 -0.45293 -5.08642 19
118 1 -12.1478 -0.573726 9.18659 13
119 1 -10.0177 -8.09022 -3.44484 13
120 1 -5.69056 -6.28887 0.0799545 16
121 1 -1.53558 -5.4523 7.69717 20
122 1 -8.42476 -0.509699 -8.57276 17
123 1 -11.9834 2.85187 -6.3496 15
124 1 6.743 3.60082 7.80174 21
125 1 7.34477 -2.95714 7.62499 19
126 1 -0.0299985 -2.42725 7.77889 20
127 1 3.80005 9.53911 2.23395 21
128 1 -9.57686 -8.12608 2.83586 11
129 1 1.52727 11.6917 5.52592 16
130 1 -10.4328 -6.58136 -8.60047 6
131 1 -7.72735 -7.45957 -6.83627 14
132 1 -3.20821 -6.19288 4.83262 19
133 1 10.1043 4.79808 4.84504 18
134 1 -9.74857 -3.28865 10.3323 15
135 1 -6.03011 -8.12706 2.3934 20
136 1 -1.98749 -12.3232 3.5873 7
137 1 2.11807 -9.16622 -0.23542 20
138 1 -9.27718 6.45703 -5.33778 16
139 1 4.25415 10.728 -0.970327 20
140 1 -7.76085 5.26605 -7.24985 17
141 1 0.00993416 8.44701 -8.14692 17
142 1 -6.25904 -3.1246 8.60332 22
143 1 3.38774 12.2817 8.53873 11
144 1 12.2965 3.67999 6.40725 12
145 1 -8.10621 0.807076 7.08096 20
146 1 -5.53868 -1.73928 15.0957 9
147 1 -7.28537 8.71736 5.21125 22
148 1 0.667338 -3.7532 -12.7091 13
149 1 5.10029 -9.40464 -0.278684 21
150 1 9.58694 -3.36962 -5.15556 15
151 1 -15.1082 -4.18807 4.94656 12
152 1 8.86249 -9.86255 -0.526003 14
153 1 -2.15588 10.2203 2.92573 20
154 1 -9.30496 5.90268 4.31679 21
155 1 0.147032 -8.31197 7.65195 18
156 1 -2.68113 3.30889 7.78097 18
157 1 -8.3548 -1.68311 -5.41262 19
158 1 -2.51932 9.39459 7.49353 21
159 1 -8.87042 6.52902 0.488813 20
160 1 -13.5412 0.117635 3.66276 13
161 1 -2.20414 -2.801 -11.7017 21
162 1 -5.88215 9.9585 2.82225 21
163 1 5.33526 -0.00819373 8.78299 18
164 1 7.06538 -8.2559 8.13936 10
165 1 0.6342 -2.04059 14.2586 12
166 1 3.06283 -9.25887 -6.51644 17
167 1 -7.35245 -3.84648 -7.73409 14
168 1 -13.3378 0.52785 -3.45811 13
169 1 -3.20455 -7.60624 -3.29413 19
170 1 12.4395 6.74194 -4.52823 12
171 1 -12.1306 5.33128 -9.43541 9
172 1 -9.51636 8.13292 7.59192 15
173 1 -9.22477 9.05491 1.98057 19
174 1 -7.29936 5.59584 9.03875 21
175 1 11.9414 1.47738 -2.08077 14
176 1 8.99385 2.66237 -5.61584 16
177 1 0.0414624 -8.2654 -3.10505 19
178 1 3.41423 9.04875 7.73827 18
179 1 -10.5123 1.61063 -3.72898 20
180 1 6.93179 -12.0926 0.517134 13
181 1 9.80454 2.68839 8.5667 15
182 1 -9.29182 -4.5093 -3.93177 21
183 1 -5.03922 -11.4278 3.1487 13
184 1 -0.968462 13.1714 1.72809 13
185 1 -7.6259 8.8833 -0.378669 16
186 1 -1.98912 -9.90945 -5.2376 15
187 1 3.76156 -6.454 5.23473 22
188 1 -2.91283 -12.1772 -1.45467 14
189 1 -10.1219 7.57287 -8.43321 11
190 1 1.21324 -10.9354 6.68781 10
191 1 -3.07272 -2.89458 7.83685 18
192 1 -9.04793 3.761 1.97299 19
193 1 4.47447 -5.8192 -5.26225 21
194 1 -12.5269 1.79367 6.75128 15
195 1 -2.85582 -7.71904 13.0651 10
196 1 -6.70912 -1.60758 12.2218 19
197 1 5.98546 -10.2534 -4.92793 12
198 1 7.65014 -10.9187 3.89278 9
199 1 2.55892 15.73 -0.48833 7
200 1 -11.1119 -5.71235 8.19576 12
201 1 6.58506 2.32663 10.1836 18
202 1 9.11371 2.32964 -0.170633 20
203 1 2.63007 0.549906 -7.92672 18
204 1 10.7415 -2.79115 8.19552 10
205 1 -4.25952 1.01672 14.2134 11
206 1 4.64914 14.1314 0.56292 10
207 1 5.64634 -5.86847 7.38592 19
208 1 -1.19859 -12.6597 -4.33221 10
209 1 2.85583 8.00126 10.9722 16
210 1 -6.48788 3.279 14.5253 11
211 1 -4.61891 -4.75568 -3.36014 20
212 1 -10.7252 -6.29561 -5.86478 13
213 1 -7.62818 11.2514 7.36056 11
214 1 -6.71975 -7.38628 -3.86662 18
215 1 -10.3377 0.164479 5.51922 20
216 1 6.91603 5.39113 5.17688 21
217 1 8.58952 6.34936 2.51924 20
218 1 1.17932 7.60507 -5.32274 20
219 1 -1.42422 9.2229 -5.09864 20
220 1 0.727458 7.58642 12.9807 14
221 1 -14.3415 -2.11511 1.76578 11
222 1 5.20531 13.5192 -2.338 14
223 1 -6.83269 -4.30591 -5.11111 17
224 1 0.694441 -0.321279 -10.9892 20
225 1 7.179 9.20996 -2.61949 17
226 1 2.5997 8.17499 -0.289882 22
227 1 0.981869 4.90787 -6.6385 17
228 1 3.74544 -8.4828 2.55265 24
229 1 -6.87455 4.8197 -10.5273 15
230 1 8.95183 8.30053 -0.324273 18
231 1 5.53657 -3.5824 0.395743 24
232 1 -4.89994 -0.694598 -12.938 10
233 1 0.119051 -8.79558 2.42099 20
234 1 2.02616 -3.00357 10.4389 19
235 1 -7.53959 3.58598 -5.06843 17
236 1 -0.574242 5.94689 -10.4105 11
237 1 -14.467 -6.7701 2.83341 8
238 1 10.7532 -0.456656 0.269162 15
239 1 -1.76157 6.01098 -5.82062 20
240 1 -0.165616 -10.5671 -7.78491 10
241 1 2.42191 4.43587 -10.1769 14
242 1 10.8677 -2.33435 -2.90702 12
243 1 -10.9321 -2.3653 7.41061 20
244 1 -5.13545 11.2493 5.6558 19
245 1 -0.349674 12.6921 -5.34027 14
246 1 11.7833 7.99769 -1.36732 11
247 1 -1.50384 -9.34042 -1.11553 18
248 1 3.15006 -0.950531 -12.5761 10
249 1 10.5315 -3.44588 2.35407 14
250 1 3.73125 -6.63428 -0.17543 21
251 1 -11.4944 2.68543 10.026 12
252 1 -3.99584 -2.64134 -5.81837 17
253 1 -0.817608 1.0193 14.6134 12
254 1 5.53579 9.17054 -8.93467 14
255 1 -7.18669 10.8575 -5.14164 11
256 1 -0.132581 13.0499 -1.82463 16
257 1 -2.80107 1.54593 10.4075 19
258 1 5.38051 -11.9117 -2.55756 10
259 1 2.98494 -5.78423 -7.99785 17
260 1 -14.0671 -2.20327 -1.71735 12
261 1 -8.81218 4.64732 -2.18942 16
262 1 -13.996 -3.88595 8.16957 10
263 1 6.28675 8.02524 -0.140704 22
264 1 1.10018 -8.34191 -8.90212 10
265 1 3.36665 -5.38691 11.6017 15
266 1 7.77911 3.40477 -3.02655 18
267 1 -11.2567 6.89517 2.3073 15
268 1 8.93051 -5.5122 -3.13434 15
269 1 1.29969 10.8088 11.0076 13
270 1 -0.450068 0.676004 -8.62813 18
271 1 5.01192 6.22738 -8.28343 16
272 1 -4.22456 -4.38756 -13.2255 9
273 1 -4.13554 -9.24907 -0.265977 18
274 1 10.0497 5.18882 0.674135 19
275 1 7.56751 -5.99676 -6.15442 14
276 1 8.55678 -11.9553 -2.88904 8
277 1 4.51319 10.8421 5.3807 21
278 1 -12.0506 6.64935 5.34556 11
279 1 11.2256 9.65992 -3.25507 10
280 1 0.0618692 -1.03022 10.952 15
281 1 5.42999 5.50873 10.7369 18
282 1 -9.05935 1.78004 -6.92937 19
283 1 12.6167 6.03319 1.07831 14
284 1 9.09121 -0.196997 8.75028 16
285 1 -0.537155 7.78955 10.606 20
286 1 4.13193 2.74402 8.561 20
287 1 -4.24899 7.11379 -4.90348 20
288 1 -4.15382 -12.2805 -4.5681 10
289 1 -5.57676 7.58556 -10.3328 9
290 1 -5.63754 0.418575 -9.76763 18
291 1 -12.6824 4.20207 -3.54631 13
292 1 8.51665 -2.5796 10.818 11
293 1 -3.35437 -7.85019 7.78968 18
294 1 10.2473 8.92861 -6.16018 14
295 1 12.7972 0.942866 3.45194 9
296 1 9.36905 7.53108 5.68326 16
297 1 10.4343 -0.864946 5.14108 16
298 1 -7.43569 4.76168 11.5519 15
299 1 -11.6015 -5.33157 2.43524 18
300 1 -11.289 -0.537661 -6.69488 17
301 1 8.13965 5.00182 10.4387 11
302 1 -6.34915 11.6027 0.458272 16
303 1 10.4206 2.81224 2.41605 23
304 1 6.0315 8.45119 6.35513 20
305 1 -9.75976 0.0600901 11.0936 16
306 1 6.16797 0.784059 -8.1428 14
307 1 -5.41759 -6.25466 -8.88415 11
308 1 5.94405 8.49041 9.98926 14
309 1 3.781 5.13275 5.47863 21
310 1 -0.132147 -6.48621 12.9975 14
311 1 -5.28805 6.20203 12.5797 16
312 1 -9.46405 3.10614 12.6608 14
313 1 -2.4574 4.33147 -8.13221 18
314 1 6.07162 12.1107 3.05422 17
315 1 1.38029 14.8869 -3.5631 10
316 1 -5.98205 -11.2414 -1.70087 11
317 1 5.38219 6.38317 2.39438 22
318 1 -7.21282 7.11558 2.68881 22
319 1 5.77883 6.09426 -2.65225 24
320 1 0.466238 1.58757 11.2276 19
321 1 4.54552 13.8227 5.57239 12
322 1 1.56802 -2.61218 -8.40343 16
323 1 1.93968 5.94786 8.5917 18
324 1 5.63341 -5.94598 -2.57516 21
325 1 7.61544 11.8315 5.55985 16
326 1 -14.4058 -1.14435 6.87406 12
327 1 3.67654 -12.216 0.285866 12
328 1 7.83996 11.0084 -7.83893 13
329 1 5.15849 -5.73803 2.55834 22
330 1 -0.632278 8.36942 5.33057 17
331 1 -1.27586 -0.640086 -13.344 9
332 1 7.81493 -2.62078 -7.82028 11
333 1 -1.28672 10.9899 9.7695 13
334 1 2.09318 -5.21124 7.8193 21
335 1 -7.29079 -10.2897 -4.75248 12
336 1 -6.55585 5.31584 5.4777 20
337 1 7.18356 3.55099 2.24418 22
338 1 2.33548 11.8288 -3.36676 20
339 1 6.69473 5.12503 -6.18091 20
340 1 8.4047 6.56439 -3.09357 19
341 1 2.42543 9.77687 -9.59438 10
342 1 -3.22384 -1.56528 13.6561 12
343 1 -4.16133 -1.90021 10.6611 18
344 1 0.237997 -5.0435 -9.54001 16
345 1 -8.00219 11.2314 -1.92065 12
346 1 10.437 10.0028 4.56867 13
347 1 -10.2288 -4.8626 5.13228 19
348 1 8.32616 7.44453 -7.94667 12
349 1 -3.16646 3.7216 13.6607 17
350 1 -9.42598 -1.83101 -2.93827 18
351 1 7.35893 -1.03447 0.345748 21
352 1 -11.3808 -7.15853 -0.33615 13
353 1 8.67019 -5.90567 2.76777 17
354 1 5.49832 -9.29707 5.4994 18
355 1 -0.9416 10.1684 12.3964 10
356 1 -8.83378 2.52677 9.1396 22
357 1 8.94882 2.21841 5.23355 20
358 1 7.1872 -6.63487 -0.503855 21
359 1 2.8856 7.92471 5.06093 22
360 1 0.593916 9.84969 7.3769 18
361 1 2.23528 -9.22846 4.7792 18
362 1 -8.05584 -2.77988 -0.579511 18
363 1 2.45335 0.983817 13.6661 14
364 1 3.72503 8.8513 -3.70536 21
365 1 8.46535 0.485556 12.8405 7
366 1 11.6366 0.716139 6.86239 13
367 1 8.45517 9.67606 8.27438 11
368 1 -3.93498 8.82337 0.717304 22
369 1 -2.36998 -8.2508 -9.18504 12
370 1 -6.00479 2.18923 -12.6011 11
371 1 -8.30365 0.592248 14.0918 10
372 1 13.6613 4.22628 3.7541 14
373 1 1.14683 12.889 -7.94186 10
374 1 5.50805 -1.61191 -10.0904 10
375 1 -1.74647 -11.216 1.38194 16
376 1 -5.89229 0.807346 -6.19445 22
377 1 -1.8216 -2.16866 -8.60204 22
378 1 -2.42071 -6.43014 -6.35881 18
379 1 0.391115 -6.28194 10.39 16
380 1 -1.42854 -3.74456 10.8372 17
381 1 10.2257 5.87781 -6.3508 13
382 1 -7.94261 11.6808 3.90118 13
383 1 9.10532 -3.64079 -0.12037 17
384 1 -11.7741 2.83132 -1.21175 14
385 1 12.1828 6.97161 4.45608 15
386 1 0.508207 4.49545 11.0561 18
387 1 -12.3423 -2.32043 -4.40251 15
388 1 -4.48355 6.25681 -8.08191 17
389 1 10.2737 -6.74657 0.348649 13
390 1 -7.0873 -5.17017 -2.13656 16
391 1 -6.78245 -4.42142 10.8595 14
392 1 7.14688 -1.11377 4.99507 19
393 1 -13.6325 4.18075 2.86781 7
394 1 2.5758 10.6888 -6.1435 20
395 1 6.54592 -5.42179 10.8042 12
396 1 -6.59677 0.871914 10.3968 18
397 1 -4.89669 -3.45128 -10.5713 15
398 1 -3.64082 -5.47091 10.1596 18
399 1 3.58229 -0.186333 11.1501 21
400 1 0.474503 -11.7817 -1.07733 14
401 1 11.0908 0.206613 -5.44289 11
402 1 -10.6753 9.57317 4.93686 11
403 1 -8.43716 -1.21988 8.85918 20
404 1 1.28435 -11.1996 -4.38183 12
405 1 11.6792 8.67466 1.84557 13
406 1 8.64246 0.0559202 2.70575 19
407 1 -6.33801 -6.9163 8.53616 13
408 1 7.18322 13.4785 -5.74106 10
409 1 5.98938 2.55907 -5.85977 18
410 1 -12.0046 6.12185 -6.10983 13
411 1 2.9416 6.13858 -2.30528 17
412 1 6.87542 12.1009 8.53832 7
413 1 5.80661 11.4024 -4.15185 18
414 1 -4.27942 9.80759 12.5406 8
415 1 9.18522 0.301681 -2.5038 20
416 1 5.09699 -11.7147 2.87744 14
417 1 5.28594 5.92959 8.02431 20
418 1 7.40307 -2.55796 -2.42368 20
419 1 -7.35421 8.04548 -5.83585 17
420 1 -4.11116 7.12018 10.0983 21
421 1 -0.720733 8.75303 -0.329576 21
422 1 -6.35214 -5.31875 5.51633 19
423 1 2.19459 -5.5378 -3.0734 21
424 1 1.20468 2.44909 -11.4783 11
425 1 -9.52508 -2.45589 2.13664 18
426 1 -3.49554 6.60887 -2.01274 19
427 1 6.1252 3.505 13.1013 12
428 1 -8.54298 -7.32085 6.13847 12
429 1 13.1009 2.78792 0.497598 13
430 1 -3.32078 0.986085 -7.58767 20
431 2 -12.2013 -0.107242 -4.70474 14
432 2 -2.23276 12.0532 -5.18448 14
433 2 -3.13552 -0.405272 -13.5455 9
434 2 -4.66578 8.02194 12.1559 14
435 2 -12.3192 -5.09975 -5.02677 13
436 2 3.91844 -0.472349 13.4032 16
437 2 -13.1433 -0.365418 1.70298 13
438 2 12.1029 5.20834 4.80712 14
439 2 -6.23874 -5.52859 -3.90731 21
440 2 -8.6143 4.4872 0.114923 18
441 2 -6.94602 -6.70649 6.76529 13
442 2 1.64217 2.70576 13.3635 14
443 2 6.50183 -1.02279 -8.53184 13
444 2 8.72609 0.3084 4.84444 17
445 2 -3.53631 8.40883 -1.1213 17
446 2 8.285 8.21781 7.16336 18
447 2 -14.4756 -6.12379 4.73747 9
448 2 -6.02986 -9.64072 3.8112 15
449 2 9.36115 -2.05793 9.29577 10
450 2 -10.6894 8.53947 3.41697 15
451 2 -8.42321 8.0263 -4.20929 18
452 2 -5.93738 7.89182 9.14326 17
453 2 3.97348 -6.2857 -3.38637 20
454 2 -5.95983 -3.03753 -6.54315 19
455 2 2.83623 -5.31477 -6.07072 20
456 2 9.21412 0.981363 -5.27154 15
457 2 6.92516 9.77334 -4.70058 19
458 2 -5.54072 9.24575 5.04531 23
459 2 -6.06318 -11.2228 -3.6668 14
460 2 -0.63592 -9.912 6.5917 15
461 2 6.99405 -0.964257 2.99143 19
462 2 -12.8248 2.42061 -2.98371 14
463 2 7.28108 11.4226 1.81762 16
464 2 5.78814 -10.8496 4.41238 13
465 2 -2.21134 6.64512 9.99513 15
466 2 6.37857 8.03315 1.8802 20
467 2 2.50667 8.05553 -2.56444 20
468 2 -8.16283 2.59321 14.0926 10
469 2 6.30122 0.58475 -5.68952 17
470 2 -9.69636 0.0331958 -3.18978 19
471 2 -14.3129 -0.00236538 5.5492 9
472 2 -8.25363 -9.59914 2.24326 12
473 2 -1.12181 -3.75706 6.75732 20
474 2 -0.828637 -4.93203 12.0553 18
475 2 -2.5102 9.33374 13.0058 12
476 2 -10.8328 5.11877 5.91814 15
477 2 4.9037 -9.62932 -6.40736 10
478 2 13.1488 2.8745 -1.53756 11
479 2 -3.31779 -11.5922 2.2841 17
480 2 0.585568 4.76537 7.68179 20
481 2 7.42357 -6.71281 -3.08061 16
482 2 6.79883 1.53126 12.8911 11
483 2 -4.83448 -4.9573 4.40844 20
484 2 10.8455 3.51617 0.414765 18
485 2 0.419956 -7.98359 4.22729 22
486 2 10.0839 -7.05231 2.41173 11
487 2 -9.03073 -2.14036 -8.11962 14
488 2 -6.97288 -7.02793 -1.14067 18
489 2 -3.21928 -7.92421 -1.20885 20
490 2 -8.79817 -4.38239 -1.75647 16
491 2 -1.33869 12.0434 3.26849 15
492 2 3.56705 3.87034 -6.42949 19
493 2 9.64594 8.29036 -2.61856 18
494 2 3.84305 11.0326 -4.55566 20
495 2 -9.28936 4.33174 11.2127 14
496 2 -12.8419 4.30022 1.10085 11
497 2 -6.20355 5.19464 7.33416 20
498 2 -9.21808 6.29973 8.49443 15
499 2 -7.54274 2.9374 -3.0177 16
500 2 10.674 4.26473 -5.77701 10
501 2 10.1819 -8.68977 0.0223979 11
502 2 11.1983 8.48571 5.15259 12
503 2 2.49462 7.85856 2.58331 18
504 2 -7.48371 6.86724 4.70527 21
505 2 11.0423 8.41326 0.165099 14
506 2 0.990417 9.29821 0.214859 19
507 2 0.554536 12.975 -3.72572 18
508 2 -2.90381 5.24927 7.5113 21
509 2 4.91854 1.45272 10.3781 21
510 2 4.48234 -2.47179 -5.52939 17
511 2 -6.23653 4.58227 12.9755 14
512 2 3.582 5.48369 -9.05639 15
513 2 -4.89906 -4.99673 11.5052 16
514 2 2.71908 -9.79349 -4.29609 13
515 2 -0.99557 -5.49797 -6.32098 16
516 2 7.07581 -11.8566 2.37546 12
517 2 10.2761 10.2169 -4.78892 11
518 2 -6.12828 6.61391 -6.05625 20
519 2 -0.213408 9.22168 9.2547 20
520 2 -11.9625 -5.52595 -1.15795 18
521 2 2.72885 11.6417 -8.58852 12
522 2 4.70954 13.1238 2.2692 14
523 2 -0.718101 7.20076 14.2248 11
524 2 6.8757 -11.2601 -3.67896 10
525 2 4.92348 7.43181 11.2067 11
526 2 7.25101 -2.66658 -0.563437 20
527 2 5.15114 6.09298 6.18955 19
528 2 -5.024 5.70874 -9.86947 14
529 2 5.07462 -6.65303 11.1214 11
530 2 -4.20721 -9.09965 6.94988 14
531 2 5.06029 -8.40769 9.05285 11
532 2 -6.9157 9.82294 -6.73998 11
533 2 -4.20087 -10.9669 -1.0198 15
534 2 -2.86998 2.22799 -10.0318 16
535 2 -6.94818 -6.01285 -7.52371 15
536 2 8.31166 11.2053 7.34619 11
537 2 -9.84033 -6.27884 -3.83702 20
538 2 -12.1155 2.39374 3.15824 15
539 2 8.50044 -1.21878 12.1348 9
540 2 0.326937 -12.3949 -3.02123 10
541 2 1.43789 -0.659546 -9.12271 21
542 2 -2.41195 -0.303465 -8.86618 20
543 2 -10.5441 0.895691 -7.78542 13
544 2 -7.03123 -0.805741 14.6246 9
545 2 -3.99149 -5.84746 -7.69182 17
546 2 5.08959 -3.48278 -10.4689 12
547 2 7.4048 3.57866 -5.1802 17
548 2 -7.79108 -3.20745 2.27254 16
549 2 2.05137 -4.39487 -9.19641 14
550 2 -2.21282 -2.59868 -6.38088 21
551 2 0.601794 7.04521 -9.42546 16
552 2 2.51129 11.022 7.25993 16
553 2 13.8825 2.4426 4.08023 11
554 2 -12.976 -2.13328 8.23446 13
555 2 -2.66603 -6.37861 6.71933 21
556 2 -2.0763 4.74418 -10.1213 14
557 2 -4.40464 6.36232 5.10808 21
558 2 -6.45043 -6.2425 2.17865 16
559 2 -7.41267 8.908 1.70591 22
560 2 -10.0895 -3.98662 8.57988 18
561 2 1.92539 -11.2306 4.78202 15
562 2 -10.467 -3.67837 1.10496 17
563 2 -6.51012 -12.2912 2.35693 7
564 2 -8.0747 -4.70504 4.78583 18
565 2 6.96672 -3.75136 11.0299 12
566 2 5.43175 13.3741 -6.7465 13
567 2 6.00745 12.877 4.93114 14
568 2 11.0951 7.47136 -5.62658 13
569 2 -2.00753 13.384 -1.76479 12
570 2 -12.2366 -2.18427 -6.65582 11
571 2 -11.49 1.09084 -0.515561 16
572 2 -2.82437 -12.592 -3.2839 12
573 2 3.59878 -6.20869 7.08824 21
574 2 9.23432 -3.57988 7.1815 13
575 2 -5.57771 10.2584 -4.20944 19
576 2 7.54417 3.44791 0.368478 22
577 2 3.80669 -3.5972 12.0174 15
578 2 2.14772 6.08273 5.10365 18
579 2 1.14444 -0.168027 14.6115 13
580 2 -9.14493 3.95343 3.99131 21
581 2 8.36128 12.1198 -6.39163 12
582 2 -11.3217 -4.9884 -7.46433 9
583 2 -10.0107 2.18086 -5.43738 16
584 2 -8.35029 0.716586 9.28025 18
585 2 5.17579 10.0217 -2.56742 20
586 2 8.38047 6.53216 0.26716 21
587 2 8.59438 -3.88452 1.95611 19
588 2 -10.449 -6.79232 1.58163 12
589 2 -2.357 9.44079 5.43611 18
590 2 -5.2182 6.93605 -2.96723 16
591 2 2.87549 2.7532 -10.7943 12
592 2 -9.41638 5.96861 2.36223 18
593 2 -14.5112 -2.88223 6.45725 14
594 2 8.0958 -12.1456 -0.943425 9
595 2 0.471325 -8.48762 -1.15328 20
596 2 -6.72385 11.7818 2.60125 14
597 2 -11.2194 7.45122 -4.97351 13
598 2 5.32125 -9.78208 1.98821 20
599 2 3.79073 4.66446 8.50353 19
600 2 0.197868 1.78024 -9.99205 16
601 2 -1.33725 9.69194 -7.40327 17
602 2 6.67962 7.68052 -8.74577 12
603 2 -2.26353 9.77617 0.961188 20
604 2 -8.48443 -2.87856 11.6945 12
605 2 -6.0393 -2.21495 10.5321 18
606 2 -13.7256 -0.357777 -1.82051 11
607 2 -4.89409 -3.28111 7.27795 21
608 2 1.89547 8.96718 -7.88184 14
609 2 7.68272 -0.703664 -3.12317 23
610 2 1.93244 0.485317 11.3299 20
611 2 1.84045 0.689547 -12.1646 11
612 2 8.49962 7.55369 3.94886 19
613 2 0.422849 6.02747 10.1095 18
614 2 -12.1206 -4.9192 4.54216 15
615 2 -3.38803 11.0511 -2.53438 19
616 2 0.679653 3.00509 10.0206 20
617 2 2.07086 -11.2405 -0.12807 14
618 2 -7.05306 -5.05954 8.92497 17
619 2 5.45579 2.18109 7.51681 19
620 2 8.54364 9.2337 -7.38829 14
621 2 3.25265 12.5373 5.09875 14
622 2 2.14912 -9.21305 7.0073 15
623 2 9.13284 -10.0834 -2.551 10
624 2 -5.41512 3.40192 -11.5868 13
625 2 -0.801172 4.88121 12.6968 16
626 2 -0.961695 0.640363 10.7256 15
627 2 5.2216 -5.52938 4.40973 22
628 2 -5.66689 0.26705 -11.6617 14
629 2 11.0556 -0.309487 -1.61043 15
630 2 -6.48882 10.7378 -1.09415 16
631 2 1.60875 -7.14466 -7.47795 12
632 2 -3.5892 5.51221 13.9512 12
633 2 -10.4762 6.28364 -9.93945 10
634 2 8.94996 -5.42805 -0.429012 19
635 2 6.9466 10.4517 9.43212 8
636 2 9.13688 5.56888 6.2459 20
637 2 10.115 4.69166 2.6407 22
638 2 -10.6636 -2.98769 -3.89938 21
639 2 -7.72196 7.15403 -1.15669 17
640 2 -8.53853 4.88053 -4.62073 19
641 2 12.3644 8.13272 -3.1795 11
642 2 -8.85749 10.7809 -3.69944 11
643 2 -2.65391 -4.03035 9.42664 18
644 2 1.34039 -2.1832 12.1975 19
645 2 -2.36404 -8.36106 -6.89175 16
646 2 -2.65024 -4.75479 -12.6229 12
647 2 4.2426 14.8848 -1.17202 9
648 2 4.78056 10.5444 3.52997 20
649 2 -5.83541 -2.72329 -9.05349 19
650 2 -8.12755 -8.71481 -3.45062 15
651 2 8.73337 1.93033 2.77211 19
652 2 -9.25591 10.069 -0.806073 13
653 2 3.16943 -12.5102 2.19345 11
654 2 6.9505 -2.71671 5.61229 20
655 2 -9.55394 -0.74201 7.23032 23
656 2 -8.64527 -3.51311 -5.8626 17
657 2 -4.45923 5.2147 10.9441 18
658 2 1.36695 9.5139 -4.86486 18
659 2 -11.2401 8.11987 6.12937 10
660 2 -3.33619 -5.99652 13.9065 10
661 2 1.82564 11.0695 3.22937 20
662 2 -1.20643 -9.39529 0.960386 25
663 2 0.0547131 -2.41827 9.74295 22
664 2 6.71261 5.40754 9.00164 19
665 2 -12.5135 5.89429 3.54373 13
666 2 -0.783287 8.65207 -2.38501 20
667 2 -2.42459 3.4467 10.3029 19
668 2 -4.64816 -5.4398 -10.3934 14
669 2 10.3964 -2.16096 0.93548 12
670 2 5.66953 -6.63396 -6.23164 18
671 2 -5.54197 13.2308 -0.195157 12
672 2 -2.72081 0.143715 14.5035 11
673 2 -12.6371 5.86999 -2.51169 12
674 2 9.29972 -3.54647 -2.86417 16
675 2 3.88134 9.44039 0.439755 21
676 2 -7.19739 3.58456 9.56297 21
677 2 -0.269659 -5.75947 14.846 10
678 2 -0.73366 4.4324 -6.83499 16
679 2 -12.4103 4.41484 -5.32947 14
680 2 -0.253784 -3.39794 -8.30978 15
681 2 -0.697516 7.57939 -5.76605 18
682 2 -7.85487 2.15515 -12.9296 9
683 2 6.51164 -4.6024 -7.36225 16
684 2 -3.02551 -5.72529 -3.36184 17
685 2 -2.25834 -9.34034 8.88108 10
686 2 4.05432 -0.951216 7.42047 24
687 2 11.0429 -1.91501 -4.74609 11
688 2 -0.415879 -11.6697 2.65387 14
689 2 6.69858 9.93321 5.07608 19
690 2 -5.61197 11.0176 7.86446 14
691 2 -13.3805 -5.82728 1.78279 14
692 2 7.43618 5.19279 -2.43033 17
693 2 2.1315 -5.33532 4.24512 22
694 2 -9.23056 10.3566 4.06244 14
695 2 5.90845 2.28736 -2.59794 19
696 2 4.2953 8.81163 5.82468 18
697 2 -10.794 2.0746 5.75089 17
698 2 2.21949 12.7029 -6.44635 14
699 2 4.24721 -0.267733 -11.1719 14
700 2 -6.09279 0.134188 7.17678 23
701 2 -1.38847 2.58177 13.9532 16
702 2 11.7024 2.44234 8.0697 10
703 2 4.30652 1.29865 -8.50481 16
704 2 -7.49769 -1.93597 -3.71344 19
705 2 11.5237 1.55801 -4.27634 12
706 2 -0.474578 8.66923 3.04273 20
707 2 -1.60264 -6.59628 -10.2107 14
708 2 -10.3348 4.08227 9.18526 16
709 2 -8.34624 0.67192 4.89102 19
710 2 5.27223 -11.7215 -0.583987 13
711 2 -3.74421 -10.5636 -5.47415 13
712 2 -1.23587 -11.6621 -0.437213 14
713 2 11.7771 1.50261 1.80255 17
714 2 -4.76942 8.31992 -8.63774 13
715 2 4.78961 12.964 7.49843 11
716 2 -1.52744 -9.19569 -3.39996 20
717 2 2.42507 1.72164 7.95109 21
718 2 0.565669 9.17156 11.6649 14
719 2 -9.01646 6.90871 -7.22235 14
720 2 -0.332527 -11.1152 -5.83124 14
721 2 -9.77046 -6.29712 6.97046 15
722 2 -10.546 7.62302 0.347597 14
723 2 6.25238 10.9167 -8.68907 9
724 2 -2.45749 6.80735 -7.54936 19
725 2 4.27999 5.28876 -3.4545 23
726 2 -7.45383 0.236485 -9.82527 15
727 2 -0.752718 -9.05663 -8.7245 10
728 2 -13.0744 -3.48106 -2.87585 12
729 2 5.39372 8.0068 8.2525 17
730 2 -3.92499 4.55748 -6.83223 19
731 2 -12.7228 -5.09171 7.55483 13
732 2 9.01175 4.41103 8.85522 12
733 2 4.83222 4.98732 12.8139 10
734 2 8.48912 6.18401 -6.56809 16
735 2 -0.531013 12.5259 -7.42044 10
736 2 0.478282 12.9428 0.592284 14
737 2 10.6018 -0.890156 7.39371 13
738 2 6.19844 13.3015 -3.84516 13
739 2 1.9665 -3.4015 14.6155 10
740 2 -2.8663 -3.33971 -9.94385 19
741 2 4.361 2.15329 12.8493 13
742 2 -3.97277 8.05815 7.63079 18
743 2 7.01784 -6.88201 2.23648 20
744 2 9.09745 -5.50192 -5.16508 11
745 2 -2.86409 10.8355 8.7011 14
746 2 6.78945 -6.47242 9.2591 11
747 2 -3.15173 8.60841 -4.78685 21
748 2 -0.557624 11.7639 11.3123 8
749 2 -11.8962 6.39441 -7.87175 10
750 2 3.28814 13.7772 -3.80616 15
751 2 -9.6688 -7.27102 -6.8809 9
752 2 -0.914262 -2.50108 -13.3923 11
753 2 -4.33018 2.61334 7.22302 23
754 2 9.9369 -2.47127 4.41792 16
755 2 -3.86735 10.7528 -7.13921 13
756 2 -12.3967 1.46974 8.64618 14
757 2 -6.71658 -8.87099 -5.93681 11
758 2 2.59304 11.5679 10.1402 12
759 2 -4.82953 -2.69988 -12.535 10
760 2 -9.01889 4.89566 -11.8406 10
761 2 1.90681 6.46158 -6.48029 16
762 2 -5.46611 0.931894 -8.05073 19
763 2 -6.85514 11.888 5.55699 12
764 2 -8.4072 9.401 6.64102 15
765 2 1.19297 14.8252 -1.42656 10
766 2 -7.35662 -10.305 -0.643863 13
767 2 6.02531 3.84769 -7.47123 14
768 2 7.80651 -2.57918 -5.88139 17
769 2 -9.00771 -8.34993 4.62135 11
770 2 -10.79 4.21927 -1.74883 15
771 2 -10.7759 -3.25558 5.73135 20
772 2 -4.18668 -0.554673 -6.44116 20
773 2 0.180326 -6.20474 7.24149 20
774 2 2.65736 7.86703 8.96938 21
775 2 5.02788 -4.15159 7.45426 18
776 2 -4.49245 2.77791 14.3462 11
777 2 3.93335 8.30961 -9.45109 11
778 2 2.55405 7.27567 12.6636 13
779 2 -10.3583 -8.0717 -1.48008 10
780 2 -7.85672 -2.82242 7.48786 23
781 2 -8.12715 2.59982 7.25869 22
782 2 -7.17986 7.11808 -10.9158 9
783 2 -7.78445 0.0869267 -6.62507 20
784 2 -4.70886 10.7452 1.39679 17
785 2 6.35087 -7.72548 6.26798 14
786 2 9.13431 11.7378 4.33997 11
787 2 -2.28555 -11.1586 5.23423 12
788 2 -14.2002 -3.31345 3.21186 15
789 2 -9.61902 -0.0425425 1.92474 19
790 2 -4.81125 1.56578 9.94444 14
791 2 1.69413 -6.3089 12.1073 14
792 2 2.00093 -9.12448 1.77734 22
793 2 10.6859 2.94717 5.79889 19
794 2 0.455184 -6.47464 -3.66856 19
795 2 -4.40219 8.40335 2.52534 22
796 2 -5.90894 2.96733 -5.76317 18
797 2 -8.04701 0.35524 12.0684 15
798 2 1.71626 -3.118 7.44466 20
799 2 -4.68866 -3.17198 14.5363 11
800 2 3.90749 -1.6572 10.0046 20
801 2 5.24762 6.67302 -6.36449 21
802 2 5.39856 12.3475 -0.435284 14
803 2 2.29895 -2.90351 -12.3014 12
804 2 6.67865 -1.34907 8.50621 17
805 2 12.0321 6.07964 -0.740928 17
806 2 6.16021 -3.88848 -3.24952 22
807 2 -0.301178 11.1803 6.32846 16
808 2 12.0158 0.340201 5.07424 13
809 2 -4.46881 -6.92626 8.99336 12
810 2 -1.18631 -8.10501 12.1187 10
811 2 -5.13029 -0.745196 13.3368 14
812 2 5.65678 -8.81294 -3.60253 17
813 2 7.01408 -8.88649 -0.105617 21
814 2 8.09296 -5.3268 4.54061 18
815 2 1.7408 -4.93886 9.89347 20
816 2 5.21756 -3.68314 2.29998 22
817 2 -7.25244 6.70003 10.6096 16
818 2 6.60566 7.49311 -3.67441 17
819 2 0.53849 -5.0998 -11.6349 11
820 2 5.30085 -6.79687 -9.07955 9
821 2 0.483509 4.29698 -10.7741 10
822 2 -6.75971 4.30247 -8.32591 16
823 2 10.6084 9.85447 2.58543 12
824 2 -9.70541 -1.9893 -0.876339 18
825 2 13.5091 4.53554 1.68508 15
826 2 -11.8972 -0.722015 4.38535 19
827 2 3.8361 -6.7465 1.85491 22
828 2 2.25021 10.8809 -1.75529 19
829 2 12.7898 4.93422 -3.87202 11
830 2 5.56452 6.30785 -0.552955 22
831 2 0.0588063 -7.86333 9.47006 15
832 2 -14.1107 -3.04407 0.0199649 12
833 2 8.24244 1.72678 9.48068 16
834 2 3.94248 -8.32349 4.66043 18
835 2 12.578 7.27105 2.5336 12
836 2 -10.5698 1.91113 11.6343 13
837 2 -11.4853 8.9025 -2.60156 10
838 2 8.86648 0.242119 0.529869 19
839 2 3.7613 -8.29483 -1.1864 21
840 2 -4.78766 -7.86211 -4.10662 17
841 2 3.83573 5.27371 2.29039 21
842 2 8.77686 -9.6213 3.21853 13
843 2 1.27568 8.70319 5.7721 21
844 2 -2.85723 -8.30397 4.18615 22
845 2 -2.83122 -1.71907 11.8319 17
846 2 -5.39809 10.2995 10.74 10
847 2 -1.03331 -0.636393 -11.421 17
848 2 -11.6325 3.54747 -8.30751 11
849 2 -10.2012 -1.29756 9.70192 15
850 2 6.91161 4.10034 11.2784 14
851 2 -10.1842 1.91159 -10.9142 9
852 2 7.24718 3.41301 5.58969 21
853 2 8.6582 2.01299 -1.93122 20
854 2 -2.54889 2.10117 -6.25045 21
855 2 7.50494 9.3275 -0.913453 17
856 2 -4.65595 -8.15021 1.19579 19
857 2 -2.89386 12.9054 0.867974 15
858 2 -3.53139 11.6733 4.42938 16
859 2 5.48881 -5.70955 -0.461825 20
860 2 1.71965 -9.81513 -7.65968 9
861 1 -5.6564 -1.74519 -3.1465 23
862 1 -2.4804 0.150194 -5.50622 19
863 1 -0.681954 -3.55353 -5.86331 18
864 1 -1.16445 -5.3652 -3.19913 20
865 1 -2.28549 -2.44368 -3.29475 20
866 2 -4.69024 -4.79509 -0.701335 20
867 2 -6.08274 -2.21221 -0.953331 21
868 2 -5.95962 0.192877 -2.69251 17
869 2 -4.26327 -2.89273 -3.9728 20
870 2 -1.18222 -5.55494 -0.891848 20
871 2 -2.72853 -2.19716 -0.990999 23
872 2 -2.27301 -0.265045 -3.69656 23