ITEM: TIMESTEP
21000
ITEM: NUMBER OF ATOMS
1000
ITEM: BOX BOUNDS pp pp pp
-30.0 30.0
-30.0 30.0
-30.0 30.0
ITEM: ATOMS id type x y z Coordination
1 1 3.83516 -8.3417 -10.8098 14
2 1 8.72977 -10.0473 8.94771 13
3 1 -4.30687 9.51403 -2.01958 17
4 1 -8.62643 4.90278 -5.63552 10
5 1 1.49455 -5.54276 9.32358 21
6 1 -5.95622 6.38761 -12.4661 5
7 1 -3.81587 2.14671 -6.01622 19
8 1 1.97919 -13.4914 0.129359 16
9 1 7.68796 -2.54877 4.43688 21
10 1 4.62331 4.994 7.16098 24
11 1 7.01362 -2.25125 1.15099 21
12 1 1.67357 4.12233 -11.3984 14
13 1 0.98731 0.0347348 9.42925 20
14 1 -6.62391 1.906 2.20464 20
15 1 -2.35004 -0.572732 -5.92388 21
16 1 2.34836 -2.95124 7.70789 20
17 1 3.36344 -5.80391 -5.37009 22
18 1 4.52624 -1.14257 15.4466 9
19 1 1.39723 -14.093 8.26692 12
20 1 -11.0779 -0.313503 6.03966 9
21 1 -4.97427 -0.811538 -3.93957 18
22 1 1.65778 12.8175 -4.14825 10
23 1 8.71772 -2.69299 -8.38057 20
24 1 6.8814 -7.986 -9.86815 18
25 1 -3.31417 -11.1111 9.74741 13
26 1 -12.081 0.515337 2.74348 7
27 1 0.885405 13.0978 0.548901 11
28 1 3.95948 -12.4422 3.54834 18
29 1 11.2031 -10.1522 -5.7175 10
30 1 10.3855 -0.74912 3.1935 18
31 1 -4.67948 8.96141 -5.92522 14
32 1 0.84296 6.12986 -3.45287 21
33 1 3.26399 4.78654 4.49459 20
34 1 7.84782 5.55032 5.65086 20
35 1 -3.93824 -3.53471 1.03314 21
36 1 4.52414 -3.31254 13.0809 17
37 1 -9.4151 -2.5972 4.69959 17
38 1 17.4124 0.982367 4.14878 7
39 1 7.57682 -2.91428 -2.23667 20
40 1 3.42962 -0.184195 11.8136 19
41 1 -4.94427 -6.51598 2.95874 20
42 1 2.66493 -2.5579 -8.75731 20
43 1 -5.92623 10.0851 0.986291 14
44 1 1.47527 1.47287 -13.1524 11
45 1 6.45945 0.355069 -3.88917 19
46 1 7.68815 -2.41476 -5.38736 20
47 1 7.58255 -8.35247 3.80826 20
48 1 6.62001 -11.2091 6.08079 15
49 1 -0.799409 4.3407 4.77264 19
50 1 -5.73283 -8.63715 9.38811 14
51 1 -3.49505 2.78268 8.92585 18
52 1 9.62227 -5.85226 -2.90821 17
53 1 8.80017 -1.37468 -13.2483 11
54 1 7.65158 -2.74214 7.65724 21
55 1 4.34237 10.5283 0.967647 15
56 1 -4.01588 3.51404 -11.9769 15
57 1 2.74886 7.80829 -0.484598 22
58 1 -4.55467 -13.3214 7.62329 11
59 1 5.75184 -7.06599 -6.69569 19
60 1 0.980288 -6.84522 -9.83835 14
61 1 -1.73574 1.93457 6.40078 19
62 1 -8.55059 -12.6707 -0.632316 7
63 1 7.0537 -5.45925 2.26628 20
64 1 -8.12141 -11.3761 1.74513 14
65 1 11.6611 -8.82992 4.85848 15
66 1 -2.28307 7.16873 3.15349 17
67 1 -1.54051 4.9984 1.56291 17
68 1 4.4259 2.2475 -6.90959 19
69 1 12.6399 -11.0876 2.10223 11
70 1 -7.65454 -10.603 -2.08246 11
71 1 14.8342 4.54269 5.68913 11
72 1 8.3458 5.68847 -2.46262 21
73 1 -3.31445 11.1751 -3.90969 14
74 1 1.81948 -10.4841 -9.98087 16
75 1 2.06252 9.58898 -6.47963 11
76 1 15.4967 -1.20999 -5.36209 11
77 1 8.33738 -0.454135 -10.0041 22
78 1 11.7003 -8.73564 8.13807 11
79 1 -4.67873 2.10432 -9.10005 18
80 1 8.61509 6.45998 0.206125 20
81 1 10.9546 7.66347 -1.80931 18
82 1 -1.33116 11.6969 -1.77065 21
83 1 -1.57613 -6.00951 -8.63667 17
84 1 -9.88745 -2.82146 -5.08657 11
85 1 -3.44769 6.90802 9.00269 14
86 1 0.527952 6.97359 -6.26334 15
87 1 6.62494 -5.78931 12.8072 11
88 1 -9.27789 -5.93296 6.34782 12
89 1 -1.62117 -11.9268 7.80182 18
90 1 0.266343 5.95367 -0.34177 16
91 1 11.6794 5.65374 -3.99068 16
92 1 2.42196 -11.3441 10.0139 13
93 1 -3.84162 6.52801 -1.19033 19
94 1 3.09174 5.10753 12.7845 12
95 1 -1.67941 -0.332762 -9.11363 22
96 1 -3.325 -5.6739 6.27084 19
97 1 -2.30163 -11.1688 4.19982 21
98 1 -4.18882 -3.30168 -2.33183 20
99 1 7.50222 -8.66334 -3.50683 19
100 1 0.0217351 7.52887 9.24382 15
101 1 -4.86327 -0.533203 2.85467 17
102 1 -6.91952 -2.75086 -3.68268 24
103 1 0.937186 -10.867 2.73759 21
104 1 10.0457 3.39232 -2.78362 18
105 1 6.56964 0.43709 13.2396 15
106 1 1.71673 -0.438228 -10.9894 21
107 1 -6.63671 -5.63467 -9.54363 10
108 1 -4.45069 12.4005 -0.724247 12
109 1 8.66173 -0.784057 11.0835 16
110 1 -1.4832 10.1092 -6.93777 9
111 1 4.07216 0.319618 -9.02345 18
112 1 -5.89939 -4.33656 5.27163 18
113 1 -4.77954 4.45736 11.1999 10
114 1 2.63394 -8.20997 -7.62435 19
115 1 2.06211 -0.261982 6.5544 19
116 1 3.51735 -5.97697 -2.23963 18
117 1 8.90001 7.28227 -5.30591 15
118 1 6.82825 12.2357 -3.35902 11
119 1 -9.15838 1.27301 4.04969 19
120 1 6.32431 4.04363 12.9049 14
121 1 13.0648 -1.40116 -2.54638 21
122 1 7.31468 3.63021 7.7457 21
123 1 -7.92354 7.48092 2.3283 15
124 1 -9.8144 -1.27563 -1.95634 15
125 1 6.11369 -2.00826 10.4552 22
126 1 5.46911 -11.4756 -4.50778 16
127 1 4.82293 -6.1926 -13.4815 9
128 1 10.4782 0.670489 -8.05997 17
129 1 -7.36797 -5.96619 8.45317 11
130 1 -0.713191 -12.357 -8.49289 8
131 1 -3.22011 -8.15931 4.36283 19
132 1 2.01476 -8.24614 4.35126 21
133 1 -3.74518 -6.63307 -9.94551 10
134 1 -7.9635 2.43119 -7.69787 11
135 1 10.1396 -0.743074 6.44404 19
136 1 7.66796 -5.44965 5.6207 22
137 1 4.26995 -7.01936 7.52478 18
138 1 3.809 8.0584 2.77153 19
139 1 -8.78276 -9.24357 4.03436 15
140 1 7.11111 11.5446 -0.638142 13
141 1 -0.00817782 -10.3046 -6.53538 23
142 1 -3.45038 -8.69117 -6.20623 15
143 1 -4.25269 -11.7913 2.01735 19
144 1 5.03961 -6.62916 4.25533 24
145 1 14.5218 3.03379 -0.291022 16
146 1 -1.73618 -6.35594 -2.48894 20
147 1 -6.10932 -7.47569 5.93307 22
148 1 -3.0884 -14.8871 2.17336 13
149 1 3.74939 -0.832431 -5.48551 21
150 1 -1.06227 -15.9979 -0.535844 10
151 1 4.75427 -9.13747 -1.03317 21
152 1 -1.30619 -13.5916 4.96435 19
153 1 -5.83661 4.05457 -7.42989 16
154 1 15.7636 1.47136 6.47126 10
155 1 -6.13046 -2.51451 -11.0946 9
156 1 4.24488 2.5524 -11.1472 17
157 1 -0.531954 -6.37642 4.53862 20
158 1 2.13985 10.484 3.73047 10
159 1 8.4226 3.61003 2.68808 20
160 1 -6.41477 -0.52145 4.945 21
161 1 -0.387565 -9.73014 9.88253 18
162 1 -3.76209 5.18917 4.9667 19
163 1 6.47752 -5.38924 -11.405 16
164 1 2.72337 -11.6017 -2.57486 19
165 1 13.1531 1.05933 -6.61167 14
166 1 -2.14434 -6.27101 0.959961 21
167 1 4.99449 -1.09955 7.56808 18
168 1 -7.56875 -1.88099 -0.339564 17
169 1 13.0409 -8.50346 -2.96578 12
170 1 -4.97404 7.08185 1.84114 17
171 1 -3.66486 2.12795 4.04433 21
172 1 9.26559 -9.55737 5.94359 19
173 1 1.84396 2.92219 7.99955 19
174 1 -5.15812 -5.82618 -3.55641 20
175 1 1.51229 9.04512 7.0323 12
176 1 -6.47108 2.33025 -4.52019 18
177 1 -10.2296 2.16961 8.35189 10
178 1 0.271889 -6.79159 -5.97548 20
179 1 -3.40199 10.0022 4.76697 13
180 1 10.8077 -4.32936 6.16022 18
181 1 6.5851 -8.48583 7.13368 22
182 1 -3.75749 1.92951 1.02805 19
183 1 -0.0678918 -2.562 9.02279 21
184 1 8.17775 -11.3099 -4.74106 12
185 1 -3.22938 -3.77634 -8.7827 22
186 1 -9.88813 -1.06838 1.68415 14
187 1 -1.23553 -9.06895 -0.616985 19
188 1 11.3997 4.85007 -0.463873 21
189 1 -3.63326 6.32998 -10.4054 9
190 1 -7.79607 7.04061 5.46197 13
191 1 -6.60971 10.089 4.09171 11
192 1 -1.69771 0.177573 10.9877 17
193 1 12.8278 -7.04107 -5.57203 14
194 1 16.0323 -2.04266 -2.86949 9
195 1 4.71204 1.78996 6.68923 22
196 1 -1.63795 4.44291 -2.02421 22
197 1 1.19395 -8.14235 -2.32256 22
198 1 0.442642 9.94918 1.00719 18
199 1 9.03843 0.210501 -2.40817 21
200 1 -4.9833 -0.935138 -8.5363 16
201 1 7.52338 -11.1418 -1.65608 15
202 1 13.1128 -0.607278 7.14177 18
203 1 -7.75755 -5.44602 -5.63057 13
204 1 -3.83207 -15.6014 5.444 11
205 1 -2.52286 9.04862 0.580849 17
206 1 -6.80899 7.07903 -0.513566 15
207 1 0.0871489 -10.9059 -3.21467 21
208 1 7.39457 -13.8001 3.03912 9
209 1 -2.64807 -11.5685 -1.09895 17
210 1 -7.62984 4.18735 -2.63223 17
211 1 -1.21778 -16.551 4.60212 8
212 1 -2.147 -0.826734 7.99268 22
213 1 -9.05351 5.51245 7.89747 8
214 1 2.8462 -9.45791 -5.00792 20
215 1 2.17363 -5.61557 6.21472 21
216 1 -8.19296 -0.444429 10.1723 9
217 1 -1.0423 -9.38659 6.11447 19
218 1 -1.38234 -6.90583 7.79688 18
219 1 4.81981 -7.44493 -3.96794 20
220 1 6.36868 -11.2888 1.83307 19
221 1 5.00052 9.95714 -2.09285 21
222 1 -4.50633 -10.2303 6.67158 18
223 1 12.9941 -5.33505 8.84452 11
224 1 8.88508 1.14367 0.677065 19
225 1 -8.99005 3.3113 6.11637 15
226 1 6.52542 -0.562298 -7.23643 20
227 1 9.38327 -6.89398 7.53095 19
228 1 3.82919 4.86906 1.21406 18
229 1 0.450685 -0.603763 12.5567 15
230 1 4.35806 13.0529 -1.56585 11
231 1 9.98092 -6.28798 4.20259 17
232 1 0.543493 -14.5318 -3.23263 13
233 1 8.38617 5.58721 10.71 14
234 1 -3.1014 -8.37027 11.19 12
235 1 -1.86926 -8.67102 -3.93606 18
236 1 -6.3298 -8.35596 -4.71398 13
237 1 -5.63778 5.23585 7.82967 17
238 1 -2.66655 -14.445 -3.13609 11
239 1 -3.48846 -2.56013 4.58658 21
240 1 5.40817 1.40328 10.3283 23
241 1 13.5128 3.94507 -3.1332 14
242 1 1.15098 -0.555104 -7.24154 21
243 1 1.54209 3.08464 -5.37677 17
244 1 1.99341 5.11923 9.71834 22
245 1 -9.12384 -3.94436 1.78419 16
246 1 7.86556 9.82793 -5.71871 14
247 1 -5.35376 -6.32357 -6.98247 18
248 1 4.07489 -3.27589 -11.6582 18
249 1 10.1638 10.9434 -1.07483 7
250 1 3.27476 8.12255 -3.62587 19
251 1 4.013 2.36238 -3.96564 17
252 1 4.08396 -9.72455 5.76314 20
253 1 -1.28732 -1.45997 -12.4699 14
254 1 11.5231 7.42512 1.49056 13
255 1 6.74748 -5.89551 -1.14313 23
256 1 3.12686 -1.62854 -13.9719 10
257 1 4.41672 -12.3471 0.119726 18
258 1 2.99027 -8.53278 11.2022 14
259 1 -1.19232 4.76023 -5.44559 22
260 1 10.5451 7.4656 5.46893 12
261 1 5.89151 -3.03527 -9.44959 21
262 1 -6.53247 -3.33212 2.79267 21
263 1 13.4217 -4.05534 -4.68078 16
264 1 -0.6161 2.13076 -7.13098 22
265 1 -1.44287 2.93993 -10.6805 23
266 1 9.62788 -9.02871 -8.52414 11
267 1 5.46663 -0.64858 -11.6485 17
268 1 11.0591 -5.68229 -8.30095 19
269 1 3.84235 -9.24699 2.29657 19
270 1 -5.73602 -10.0955 3.9124 24
271 1 -1.57673 11.8337 2.44098 14
272 1 0.574588 4.61603 -8.27511 16
273 1 13.9533 6.69454 0.23978 9
274 1 -1.34813 -12.3207 1.79843 17
275 1 5.47096 -13.0423 -6.94579 13
276 1 6.65538 6.25639 2.53406 20
277 1 14.4734 -5.86692 -2.35715 13
278 1 7.66369 -8.48253 0.874759 22
279 1 12.0314 -6.42203 0.873463 20
280 1 -6.7348 2.46969 9.24189 18
281 1 -4.58969 -6.75795 -0.924015 20
282 1 -2.51368 -5.61603 -5.59456 22
283 1 0.0557105 -7.48576 11.5366 14
284 1 7.72101 3.37957 -4.91124 17
285 1 -0.744197 3.69388 -13.5581 10
286 1 4.81405 10.7483 -5.35869 15
287 1 2.4028 2.62634 11.3455 19
288 1 0.751847 -11.0402 -0.480596 21
289 1 10.2084 -4.32865 -5.91516 19
290 1 -8.63078 -7.01549 0.773941 13
291 1 -4.1459 3.14731 -2.08181 18
292 1 -10.7285 -5.91917 3.73895 10
293 1 7.1419 2.7008 -1.94605 18
294 1 6.79184 -10.79 -9.48755 8
295 1 6.0315 -8.94361 11.168 12
296 1 11.6806 -0.987893 -10.583 11
297 1 -9.64829 5.35427 -0.561101 11
298 1 9.47663 -7.0551 -6.14243 19
299 1 5.0793 4.91761 10.1925 21
300 1 -1.42728 -4.77173 -11.3485 11
301 1 7.28153 2.18743 -11.447 13
302 1 -1.22548 -8.90092 -8.90006 15
303 1 -3.46598 -9.32895 1.30718 21
304 1 14.4317 -0.117008 -0.391233 17
305 1 13.2611 -3.39355 -8.01495 11
306 1 10.4524 -10.9294 -2.46426 15
307 1 7.99566 8.7939 -2.39012 22
308 1 -5.53403 2.58107 6.22628 18
309 1 11.7652 0.908228 -4.25415 22
310 1 6.81662 -5.39158 8.53627 20
311 1 12.2698 1.36188 4.05928 18
312 1 10.3365 0.602823 8.96267 16
313 1 -6.66918 -2.96 -7.6319 18
314 1 14.1067 4.02319 2.2986 16
315 1 13.9283 -7.71542 2.90011 15
316 1 1.80418 -8.26731 0.96312 21
317 1 4.38873 7.94199 6.29806 14
318 1 7.13706 0.508513 5.47889 19
319 1 -1.96028 13.8356 0.23253 10
320 1 -3.05807 -11.2817 -4.90906 13
321 1 -2.42706 1.31454 -14.1436 8
322 1 -6.58721 3.30807 -10.6685 11
323 1 -6.82195 1.6834 -0.769973 21
324 1 9.17626 -5.05448 0.33326 20
325 1 4.00909 -12.3245 6.79589 17
326 1 4.65618 -3.99967 5.85675 21
327 1 13.8666 3.77354 -6.30303 8
328 1 10.4055 -2.4135 -4.05856 20
329 1 11.9282 -1.4654 1.04842 20
330 1 9.78827 6.04879 3.25809 18
331 1 15.1341 -3.13548 -0.0990821 14
332 1 -0.848692 5.02743 7.67279 20
333 1 -8.78291 -12.3591 4.2994 12
334 1 -8.43399 -0.606431 -6.61877 11
335 1 7.71005 -2.69764 13.3081 11
336 1 -4.30254 12.473 2.83617 12
337 1 6.44877 3.54881 0.773887 20
338 1 4.89047 -3.5527 -3.5348 21
339 1 11.6728 4.34403 4.53567 20
340 1 -5.53473 -1.13416 9.07624 15
341 1 10.9702 1.26644 -12.0861 12
342 1 0.905554 -5.07383 -3.98219 22
343 1 8.00921 2.52602 10.7618 18
344 1 9.53086 2.55254 6.26314 19
345 1 2.02707 -5.90151 13.0853 13
346 1 0.196599 2.63946 12.9571 12
347 1 -0.312988 2.42333 9.75471 18
348 1 -1.83176 1.58112 -3.77372 20
349 1 -2.92902 6.93757 -6.96634 15
350 1 4.2643 4.75088 -1.70645 18
351 1 -0.695852 -3.79861 6.27045 24
352 1 5.1751 7.93281 -7.09311 13
353 1 -4.58825 -14.9707 -0.158473 12
354 1 6.82303 8.01087 4.62004 13
355 1 -5.98769 4.90032 3.74002 20
356 1 -6.06284 4.22522 0.298461 20
357 1 5.67993 7.20737 -4.24524 21
358 1 1.53754 -2.93758 14.4808 10
359 1 9.94419 5.57429 8.06998 17
360 1 -4.48717 -0.796657 -0.27233 20
361 1 5.21828 -3.65177 -6.74197 23
362 1 1.24806 2.78983 4.88395 19
363 1 7.05215 -5.45263 -4.38799 20
364 1 -0.185628 9.20732 4.40079 15
365 1 -8.96028 -2.81284 7.90125 12
366 1 4.42042 -14.9109 2.1374 10
367 1 9.40127 3.63445 -10.4199 13
368 1 10.5757 -8.99838 2.30759 20
369 1 1.0351 5.98893 2.72913 19
370 1 9.24546 -3.55547 -10.9525 20
371 1 8.03365 -5.73266 -8.46602 24
372 1 -1.61425 7.53632 6.34414 19
373 1 5.00283 -10.3512 8.71408 17
374 1 -0.0198205 -2.41194 -9.82219 19
375 1 -5.26823 -13.0747 -2.5837 11
376 1 -4.85675 0.485489 11.6192 11
377 1 15.6166 -1.6754 5.86807 12
378 1 0.199575 9.69148 -4.25667 18
379 1 11.8425 2.80924 -8.9936 12
380 1 14.4273 1.5782 -3.9123 15
381 1 6.14881 5.50981 -10.7451 8
382 1 2.52527 -2.64858 10.8692 22
383 1 1.4595 -8.71718 7.77434 19
384 1 4.70745 -10.4039 -7.67325 20
385 1 -6.27389 6.91467 -4.07405 16
386 1 12.4693 5.76446 8.18498 10
387 1 -7.70615 -6.7683 3.38115 19
388 1 7.93948 2.23175 -7.98989 18
389 1 -0.384331 -3.87657 12.2734 17
390 1 -9.24919 -4.18437 -2.33371 15
391 1 10.1099 -1.83945 -0.896398 24
392 1 -4.75633 -9.62245 -2.17528 18
393 1 15.1787 -5.3153 1.21109 12
394 1 9.13495 -11.7652 0.68873 15
395 1 3.32291 7.86115 9.60963 15
396 1 -3.10223 -2.56973 10.6278 16
397 1 12.8258 -2.33187 4.21955 18
398 1 10.438 -7.80458 -1.22292 19
399 1 6.37737 3.15325 4.38082 19
400 1 5.39572 7.14282 -0.438608 21
401 1 1.91597 -14.0983 4.80904 13
402 1 -6.5372 -4.27333 -0.637151 18
403 1 4.07371 1.8992 13.7976 13
404 1 8.5984 9.27483 1.57012 13
405 1 10.4984 -2.47428 8.60451 17
406 1 14.3043 -7.25933 6.37997 11
407 1 11.0703 3.47668 10.5841 10
408 1 -2.80632 7.54074 -3.59576 22
409 1 2.39862 -12.5237 -7.88811 13
410 1 1.03228 -3.88372 -12.0348 14
411 1 -2.01946 -5.39347 10.5444 16
412 1 15.6539 -1.79 2.46536 17
413 1 6.47765 5.44597 -6.97071 17
414 1 12.5855 -4.18082 -10.6208 9
415 1 -6.48211 -13.8885 2.46108 12
416 1 -4.13383 -3.35055 -5.90048 20
417 1 4.1667 -5.58934 -9.05314 20
418 1 3.89963 -14.3147 -4.27347 11
419 1 4.11636 -5.63142 10.5972 19
420 1 1.25124 -11.284 5.95558 22
421 1 9.80123 4.77253 -7.45537 10
422 1 -5.04378 8.15971 6.55968 13
423 1 12.1795 -4.24286 -1.44926 20
424 1 -10.0223 1.74925 0.565131 14
425 1 13.4116 6.85025 3.79059 12
426 1 7.49214 0.537136 8.51345 20
427 1 -8.53661 0.429319 -4.03728 15
428 1 -4.00038 0.256335 -11.3274 14
429 1 14.6338 -8.29443 -0.0704279 13
430 1 -7.60428 -7.11802 -2.51138 13
431 1 -6.69833 -13.4279 5.68266 10
432 1 13.7425 -4.99301 3.62887 16
433 1 -7.89312 0.064328 7.41832 20
434 1 3.8625 4.61998 -9.12699 15
435 1 8.69838 -7.45346 10.7216 13
436 1 -4.66571 -5.39711 9.42479 13
437 1 -0.855021 -3.10141 -6.89803 23
438 1 -1.74522 -15.391 7.82942 12
439 1 8.45242 -4.188 10.5094 16
440 1 2.86873 -15.666 -1.17383 9
441 1 12.1545 -1.34212 -6.27751 19
442 1 -8.31411 4.63579 2.50667 17
443 1 -3.95785 0.254547 6.42189 19
444 1 -1.53302 -3.18213 -4.18865 24
445 1 1.95483 -12.4782 -5.32832 19
446 1 11.5077 2.57873 1.98292 18
447 1 14.7959 0.855864 2.13794 14
448 1 -0.388805 -13.173 9.97851 10
449 1 11.3921 8.94341 -5.00479 8
450 1 9.20841 0.00766396 -6.06374 19
451 1 -9.9259 2.55341 -2.12031 12
452 1 3.28424 5.43332 -4.96901 16
453 1 6.5134 6.87287 8.40657 16
454 1 2.01735 10.7818 -1.52107 20
455 1 -1.29763 5.39037 11.0449 15
456 1 11.459 1.47238 -1.00908 20
457 1 9.60327 -11.8151 3.976 16
458 1 -3.61701 -3.20968 7.67672 19
459 1 13.2135 2.83151 7.56966 15
460 1 9.78095 -6.51717 -11.0224 14
461 1 2.00508 -3.29555 -5.59502 20
462 1 -2.70442 4.45522 -8.53039 16
463 1 1.36501 6.32702 6.60084 23
464 1 -0.728962 8.44584 -1.32835 18
465 1 -0.431389 -8.6359 2.73089 21
466 1 11.9165 -9.74472 -0.067221 15
467 1 6.69521 -3.3954 -13.5961 12
468 1 -6.20177 -9.5597 0.726988 18
469 1 -4.25634 5.24173 -4.64175 20
470 1 14.0441 -3.61917 6.42006 13
471 1 -7.21993 -10.4413 6.91429 13
472 1 10.0775 -3.50664 2.29591 19
473 1 2.02215 2.04698 -9.25598 21
474 2 -7.95033 1.40966 -5.7524 16
475 2 -3.21115 12.1437 -2.26831 12
476 2 4.57869 -1.52222 -9.95104 20
477 2 0.926856 5.12022 8.14325 24
478 2 -4.98937 -6.30826 -8.781 15
479 2 4.59015 0.0760642 13.9059 14
480 2 -6.3836 -0.196833 -0.537175 20
481 2 11.5038 -0.23297 5.0549 17
482 2 4.22411 -0.0126112 6.10952 19
483 2 -2.33363 -2.41523 -5.81644 21
484 2 -2.76504 -7.87552 -9.15382 14
485 2 -3.92185 -0.693292 -2.19152 20
486 2 2.10682 -6.8674 7.74731 21
487 2 4.3258 1.49064 11.5513 19
488 2 12.6794 -2.34625 -9.61821 13
489 2 9.25716 -3.00695 0.259195 22
490 2 -5.4099 7.54387 -2.26302 16
491 2 16.5742 -0.0598886 5.58893 11
492 2 -10.3909 -4.3154 4.60684 11
493 2 1.98318 -12.004 4.19914 19
494 2 13.9666 -5.46287 7.05095 11
495 2 -7.70718 8.49644 3.85756 14
496 2 -4.28443 9.45393 -4.03219 14
497 2 1.4056 4.63347 4.82885 19
498 2 -0.949911 3.15088 7.81785 18
499 2 9.06371 -7.60432 -2.5139 19
500 2 -0.856249 0.0769031 -7.22172 21
501 2 5.83305 -11.7884 -8.26228 11
502 2 11.732 0.80531 -9.50135 18
503 2 1.44772 -9.09661 2.73927 22
504 2 7.27167 7.33409 -1.11077 20
505 2 -1.9082 8.41336 4.72274 16
506 2 -1.72547 -7.78327 -6.087 21
507 2 4.23611 -9.5439 10.2992 15
508 2 11.754 -2.35173 2.65316 17
509 2 -9.46032 0.657235 -2.42105 16
510 2 12.2426 7.46837 -0.376875 12
511 2 8.64501 -12.916 2.1681 9
512 2 -1.22462 5.67103 3.28777 18
513 2 6.87421 4.97637 3.83541 19
514 2 5.48981 3.40934 -1.07599 19
515 2 -4.52592 -3.41632 9.63206 17
516 2 8.24713 0.35907 -7.74776 17
517 2 -9.49092 3.80824 -3.39642 12
518 2 -8.87109 1.19635 9.52653 9
519 2 -2.62009 -13.6047 7.04517 18
520 2 2.06432 -9.62808 6.17822 20
521 2 4.20489 -2.26965 11.4214 15
522 2 6.42783 5.22152 7.61607 20
523 2 -10.2089 3.62644 -0.550586 12
524 2 6.82609 -12.4666 -5.54162 11
525 2 14.5141 -1.7602 -1.36585 16
526 2 -3.16426 -10.9459 7.76361 16
527 2 9.32877 -4.51252 -7.79225 20
528 2 5.08021 6.82519 9.66363 14
529 2 11.5015 -9.51262 -1.98445 15
530 2 9.12967 -2.19405 10.077 17
531 2 -0.997696 -10.6463 2.84234 21
532 2 14.5253 2.66197 -2.24204 14
533 2 4.40874 -11.1208 1.88406 21
534 2 15.0556 -7.40147 1.32801 12
535 2 1.77739 1.57177 -3.8805 17
536 2 1.62401 -6.23233 -2.53896 21
537 2 -1.749 -4.70151 -7.29914 22
538 2 -7.23954 -6.14514 6.33675 13
539 2 -6.11759 -10.9212 2.20767 19
540 2 -5.42356 -8.05866 -6.30435 14
541 2 -3.34213 7.9944 1.8536 16
542 2 1.32422 2.50168 -7.45972 20
543 2 11.9717 3.13878 0.273314 19
544 2 4.76201 0.314965 -7.32228 20
545 2 -3.53009 -0.817827 11.0317 13
546 2 -8.03592 1.943 0.833613 19
547 2 0.148529 4.20054 10.8907 19
548 2 -8.79607 5.92267 1.12371 14
549 2 -1.80164 2.67211 -5.56142 21
550 2 10.3016 1.46989 -3.03598 18
551 2 14.3586 -7.77685 -1.91615 12
552 2 8.82596 4.47216 6.75549 23
553 2 -1.52877 10.5421 0.801607 20
554 2 -1.96181 5.20236 5.96228 20
555 2 3.01211 5.88769 2.91408 17
556 2 11.6134 4.34764 -2.55096 19
557 2 0.718084 8.13565 0.0109312 20
558 2 5.10975 6.26967 -5.90292 16
559 2 1.77681 7.05381 10.2043 15
560 2 -1.28357 -0.116228 6.37443 20
561 2 4.10346 -2.62878 7.00926 20
562 2 9.92223 -1.69659 -9.86674 19
563 2 -0.605537 0.945496 12.256 14
564 2 7.55839 -0.504116 -11.992 15
565 2 -5.58065 -11.7479 7.07432 14
566 2 0.552041 -8.84859 -0.558883 20
567 2 1.33322 -5.3869 -5.79211 20
568 2 5.84432 -13.382 2.19804 13
569 2 10.0753 5.73348 -5.56405 16
570 2 2.17959 -0.305005 -12.8003 17
571 2 0.0964459 7.53737 7.28578 18
572 2 -6.98492 -0.791875 -3.9571 18
573 2 7.83681 3.89347 -6.77575 14
574 2 2.67713 12.401 -2.41528 13
575 2 2.13667 2.26088 13.2148 14
576 2 3.10685 -15.2944 -2.94559 11
577 2 6.65627 2.41219 9.32583 21
578 2 11.0465 -5.84817 -0.711239 18
579 2 9.31527 0.593777 7.20464 19
580 2 -0.357174 1.68073 -13.5793 13
581 2 7.48047 -8.83819 9.88437 15
582 2 1.38278 -12.7687 9.7174 11
583 2 9.83516 -9.1568 7.82472 16
584 2 0.138074 9.13161 -6.57096 12
585 2 -2.53845 -15.646 0.538481 11
586 2 -1.64888 -2.44675 -8.80451 21
587 2 0.765053 -12.1633 -6.7182 14
588 2 13.6003 4.55932 7.15079 13
589 2 -8.67104 -6.01215 -1.34239 11
590 2 -9.63808 1.16003 6.5646 15
591 2 11.553 -4.03704 8.23178 16
592 2 -2.78628 -11.3083 0.798514 21
593 2 3.98742 -2.81327 -5.14389 22
594 2 -1.16378 -3.19835 -12.2863 11
595 2 -6.74399 -3.48456 -9.49145 10
596 2 0.0273951 -5.78436 12.6145 12
597 2 -4.51002 -5.41554 -5.4299 24
598 2 4.97562 -4.56159 -10.4636 23
599 2 6.29786 -5.15247 -6.4836 23
600 2 -4.00914 -5.56263 1.42636 20
601 2 6.18449 -6.59867 -8.90088 20
602 2 3.26588 3.49993 -2.6299 17
603 2 -0.883728 -11.0874 -1.54597 18
604 2 4.59199 4.40464 -11.0082 12
605 2 4.81145 8.44618 4.57874 12
606 2 16.5124 0.0576046 2.79287 11
607 2 -8.5846 -4.79862 7.71553 10
608 2 -0.78671 -11.4363 5.6799 18
609 2 -0.429314 -0.593866 -10.6855 19
610 2 -1.69679 2.34204 4.39725 21
611 2 0.669066 -12.2994 1.1673 16
612 2 -3.69108 2.05199 7.2106 21
613 2 -4.40001 -0.624178 4.70284 21
614 2 -5.8645 -6.94747 9.02381 13
615 2 0.0936457 -14.8265 4.93685 15
616 2 -9.80936 -1.63777 6.56983 13
617 2 -3.82716 -10.3275 4.37707 20
618 2 -5.99117 -8.97856 7.25852 15
619 2 12.2677 -7.07988 9.08671 11
620 2 9.5383 9.03015 -5.12377 12
621 2 3.49689 3.70872 -5.79384 17
622 2 12.713 0.270836 -1.62033 20
623 2 2.13907 11.1125 -5.0353 14
624 2 -6.6757 -0.792464 -7.58936 16
625 2 -10.4361 0.757542 2.177 12
626 2 1.06343 -12.641 -3.54954 20
627 2 5.10197 -5.93495 9.02116 21
628 2 9.60939 -5.38245 2.54082 21
629 2 -3.17089 9.16919 -6.94003 11
630 2 7.36312 2.01014 2.88181 17
631 2 5.52482 -0.0879215 9.18966 18
632 2 3.77842 -4.12696 -7.90935 18
633 2 6.61579 2.3829 6.19857 19
634 2 8.29907 6.21749 9.02913 14
635 2 0.434535 -2.35897 13.0436 13
636 2 -7.59271 6.03142 3.82091 15
637 2 9.73604 9.18843 -1.62989 17
638 2 -3.96028 -9.55269 -4.447 13
639 2 -4.77433 -2.89154 -4.1563 22
640 2 -1.23579 -8.77121 11.1959 13
641 2 7.00756 10.5164 -2.54735 18
642 2 0.917182 -2.6296 -7.21642 20
643 2 13.5477 2.21015 2.77135 17
644 2 12.5518 -8.47522 6.53577 14
645 2 -6.80041 -2.53111 4.67751 20
646 2 1.719 11.4509 0.313245 20
647 2 -2.70354 3.14503 -13.4025 11
648 2 6.86985 -2.32472 -7.8899 19
649 2 -6.45326 3.89557 2.23786 20
650 2 4.01328 -5.94556 6.00983 22
651 2 4.97849 9.23552 -3.95326 19
652 2 -6.40638 -5.22462 3.6097 18
653 2 11.0924 -8.06288 0.648978 19
654 2 2.51955 -11.702 -0.634428 19
655 2 -4.82665 3.61591 4.94992 18
656 2 4.07907 -8.30776 4.21381 22
657 2 -7.53855 4.26697 -7.00761 10
658 2 5.98653 -11.5413 -0.628904 18
659 2 6.48679 7.68567 6.59026 14
660 2 5.58966 1.36756 -11.8657 14
661 2 -0.513095 5.63575 -7.0197 17
662 2 10.4235 3.07855 -11.9323 9
663 2 -5.26409 10.7411 -0.718788 13
664 2 -3.53765 -6.52858 10.7203 14
665 2 -4.34876 -8.46669 2.6369 23
666 2 -1.3615 -8.19454 4.64152 19
667 2 -9.41431 -1.24532 -0.0967201 15
668 2 -1.23323 -5.93753 6.26419 20
669 2 0.675493 4.80113 -4.8542 18
670 2 8.32165 -5.01326 -1.75196 17
671 2 1.8759 -0.906596 10.9139 18
672 2 -7.56619 -2.87147 -1.91745 18
673 2 8.43341 -3.11094 -12.695 13
674 2 13.113 2.46624 -4.79467 17
675 2 8.83357 6.88868 4.79141 17
676 2 8.96552 -1.70247 -2.67309 20
677 2 -7.36795 -3.39227 0.949789 19
678 2 -0.744236 13.3689 -1.0919 14
679 2 3.93798 3.48629 7.71415 20
680 2 3.55415 -14.544 0.364047 13
681 2 -2.96254 -16.1224 3.70484 10
682 2 -1.30526 -0.273419 -4.08708 21
683 2 6.83626 -3.51191 9.33071 21
684 2 9.95752 3.32206 -8.51644 14
685 2 5.16246 11.9294 -0.329027 14
686 2 7.96122 -12.278 4.71115 12
687 2 7.01686 -10.4617 -3.60421 16
688 2 8.30611 1.49974 -9.991 18
689 2 7.06133 -6.50065 4.15046 20
690 2 7.05921 2.18197 12.5985 14
691 2 4.38127 3.07697 4.64669 20
692 2 12.4549 -4.00066 5.12568 20
693 2 5.05148 -1.91588 -13.1766 14
694 2 14.2698 -4.74012 -0.629104 16
695 2 -5.68125 11.0944 2.71846 12
696 2 5.10127 -9.61479 -9.83064 12
697 2 3.09621 -2.21114 15.4032 7
698 2 -4.74164 7.25435 -5.54308 14
699 2 11.8116 -3.64833 -3.17578 20
700 2 11.6919 6.73843 4.00094 11
701 2 13.7534 5.0139 3.92622 14
702 2 15.2102 1.53893 0.565543 13
703 2 -10.365 -2.91276 -3.13635 11
704 2 -3.53535 4.70135 -2.99293 20
705 2 -6.46059 2.81659 -8.78246 13
706 2 -4.84375 -3.63953 -0.613738 21
707 2 13.6773 5.29772 -4.95327 10
708 2 -6.63312 8.36346 1.17874 14
709 2 -0.580035 -8.80066 7.85859 18
710 2 5.9719 -2.43016 14.1022 13
711 2 1.96301 -9.78233 -3.29133 21
712 2 0.771371 -8.9124 -9.4683 16
713 2 6.24174 13.1895 -1.95363 9
714 2 8.41946 10.6696 0.169956 11
715 2 -7.45471 -5.46993 -7.487 11
716 2 -4.0902 -14.3221 -1.83989 11
717 2 11.1394 0.643979 -6.13401 16
718 2 -5.16145 6.03082 0.0101138 18
719 2 5.03096 -11.2403 5.20677 22
720 2 9.50717 -8.22861 3.79602 18
721 2 -0.735585 -5.77491 2.62677 20
722 2 3.85599 -7.61594 -5.91376 18
723 2 4.3711 3.79083 13.6104 11
724 2 2.1455 7.38184 -5.03596 19
725 2 -6.81617 3.41406 7.55447 18
726 2 7.5712 -0.318422 1.0382 20
727 2 -0.374349 -14.4463 8.59576 11
728 2 -0.756922 13.3332 1.57572 11
729 2 0.989644 -15.0284 -0.65941 12
730 2 -0.358261 -5.99894 9.49447 19
731 2 8.78671 0.699465 10.0877 19
732 2 -4.91615 1.51892 2.66904 20
733 2 0.30423 10.6495 -2.55163 18
734 2 1.27701 -1.34574 8.01016 21
735 2 3.11062 -10.8584 -8.68374 19
736 2 13.9832 -5.94942 -4.23411 12
737 2 12.2219 -8.72651 -5.09536 11
738 2 -2.80398 8.14063 -1.14041 19
739 2 -1.36075 -3.32471 10.7323 19
740 2 -5.24761 3.57673 -5.30062 20
741 2 9.52161 -1.89885 -5.8113 20
742 2 8.00002 2.82244 -0.0129799 23
743 2 -0.717022 -0.779713 9.53623 17
744 2 1.35469 -3.81562 6.20798 23
745 2 1.88602 4.7759 -9.5752 13
746 2 -6.11603 2.91371 -2.6421 17
747 2 0.556911 -5.39436 -11.0863 12
748 2 0.56939 4.88177 -1.87514 18
749 2 -2.7468 -5.00201 -10.1495 14
750 2 7.59467 -4.10262 -9.65665 22
751 2 -1.00982 -8.04982 -2.35127 20
752 2 -1.34708 -11.3352 9.64512 14
753 2 -0.79965 3.34794 -8.8893 17
754 2 6.75905 -3.85336 5.86535 21
755 2 2.76954 5.89474 -0.200854 21
756 2 11.6885 -5.93666 -6.53542 14
757 2 3.62316 -14.4044 3.92067 12
758 2 11.3639 5.08517 9.68505 11
759 2 -3.32341 7.70961 7.27782 15
760 2 -6.12668 -5.73326 -1.79708 20
761 2 8.38851 5.30235 1.64974 18
762 2 7.39944 -9.28819 5.58575 21
763 2 -5.35105 9.74672 5.38085 11
764 2 8.18203 3.88892 -3.23911 17
765 2 5.74379 5.55035 0.870339 19
766 2 -9.08489 3.36381 4.11428 13
767 2 4.00243 2.51958 -8.94702 15
768 2 -3.54073 -0.106277 1.30447 19
769 2 10.3071 -0.601074 -12.1627 12
770 2 -3.93668 -3.87901 5.91296 17
771 2 1.52047 1.85971 9.74147 24
772 2 14.0266 1.19998 7.26434 14
773 2 12.4406 -3.16096 -6.19995 18
774 2 -7.13619 -6.65174 -4.27835 14
775 2 3.76378 -8.54373 0.56009 20
776 2 15.404 -0.0566878 -3.83598 14
777 2 -1.76814 5.83509 -0.369525 20
778 2 3.06613 -7.19609 -9.16668 19
779 2 -9.72024 3.90399 8.0498 8
780 2 -4.71131 -2.57839 2.44058 21
781 2 9.30064 -5.58422 -4.85147 20
782 2 -1.19467 -10.6619 -8.42636 12
783 2 -4.42695 -11.5459 -2.08324 17
784 2 12.1206 -2.56063 -0.407247 18
785 2 2.38623 2.27302 -11.524 17
786 2 3.25952 6.08791 6.17364 19
787 2 -1.20458 -15.3331 -2.35219 8
788 2 7.16265 -0.897719 7.15824 23
789 2 -1.53528 6.32886 9.47388 15
790 2 -1.95371 2.41122 -2.02983 17
791 2 -2.9037 4.46705 -10.5852 15
792 2 3.39317 -13.5616 -6.2677 14
793 2 -8.11382 -12.0171 6.05939 11
794 2 -7.38384 5.47238 -4.14393 13
795 2 5.78161 5.36922 -8.81407 12
796 2 -4.03302 3.35277 -7.76683 21
797 2 7.09547 8.12481 2.49833 17
798 2 0.965812 -12.1491 -9.51115 9
799 2 4.50612 -10.4388 -5.75044 21
800 2 -9.54976 -0.862564 -5.0394 11
801 2 16.1846 3.25873 5.84278 8
802 2 -2.66283 0.01676 -12.7229 13
803 2 -9.33632 -7.38824 4.49578 13
804 2 11.6993 -0.818185 8.3311 13
805 2 9.30349 3.83955 10.6589 15
806 2 14.0741 -0.484522 -6.6179 15
807 2 -0.059778 3.94464 -11.9041 13
808 2 -1.61052 10.7731 -4.73732 14
809 2 13.786 -0.808791 1.49463 17
810 2 -4.14951 0.495871 -5.10848 21
811 2 6.77719 8.26737 -6.15281 13
812 2 2.72192 -4.23321 13.7297 14
813 2 0.129971 -6.66444 -7.96611 18
814 2 -3.5543 -6.18819 -2.5572 19
815 2 7.02416 -0.838274 11.891 20
816 2 -4.42974 6.12814 3.32659 18
817 2 12.6342 -9.4047 3.23427 16
818 2 9.68458 -7.28084 -9.04717 15
819 2 2.97178 7.99445 7.84185 16
820 2 7.4973 -6.74256 7.09038 23
821 2 -0.833814 8.2121 -3.2767 19
822 2 0.953311 10.036 5.57929 10
823 2 -2.43942 6.20998 -4.92519 19
824 2 3.1797 9.22677 -1.76959 19
825 2 -6.38005 -9.20883 -2.77836 15
826 2 10.6134 -4.97678 -10.9306 14
827 2 -5.16996 2.69931 10.3832 12
828 2 15.7614 -3.47892 1.63111 11
829 2 4.06909 9.58576 -6.86026 13
830 2 -6.26871 0.814604 6.48798 18
831 2 -2.24701 -12.6001 -3.49387 14
832 2 6.4552 5.3011 11.4939 14
833 2 1.39492 -9.14064 -6.34578 23
834 2 -5.07327 7.43022 -11.2255 5
835 2 1.73828 -0.813424 -5.53154 20
836 2 2.57957 -3.31713 -13.0402 12
837 2 -6.02849 6.58874 6.6472 16
838 2 -4.69276 5.25877 9.36712 13
839 2 6.52991 11.222 -5.05575 11
840 2 -7.80526 -13.3548 1.08162 12
841 2 12.9228 2.61631 -7.55233 12
842 2 12.6654 -5.02195 -8.94268 12
843 2 -7.58623 -13.8607 3.98886 10
844 2 -4.99137 2.56661 -0.306112 20
845 2 -7.33697 -8.1299 1.94175 16
846 2 1.96145 0.00437277 -8.90929 21
847 2 6.63066 -7.46754 -4.61873 17
848 2 3.61534 -11.7112 8.6528 16
849 2 11.4796 2.33985 8.76036 16
850 2 8.69597 -5.9223 9.41936 19
851 2 -1.68134 -2.71929 7.51371 20
852 2 7.6151 4.2638 -11.0168 11
853 2 3.45077 4.49678 10.8891 20
854 2 -1.01836 -5.66799 -4.28736 20
855 2 -7.87763 -10.9666 -0.161938 13
856 2 -2.11569 -16.1848 6.23218 9
857 2 -7.57001 0.449927 3.54305 19
858 2 -5.06693 2.215 -11.2273 13
859 2 -8.2904 -3.77415 -4.86803 14
860 2 -2.95164 11.529 3.73065 11
861 2 10.1883 -6.022 5.85982 18
862 2 11.3694 2.55946 5.17178 18
863 2 -4.70951 -13.7328 1.43276 14
864 2 -9.42117 -5.92524 2.07282 13
865 2 -7.38895 -1.51951 8.40628 14
866 2 2.13447 -3.77724 9.47435 18
867 2 5.1268 -5.00768 12.121 17
868 2 2.11262 -13.1434 6.65275 16
869 2 14.3334 -1.98986 7.37975 13
870 2 4.14559 -7.84713 -2.23411 18
871 2 0.334723 4.82939 1.29712 20