ITEM: TIMESTEP
143000
ITEM: NUMBER OF ATOMS
5760
ITEM: BOX BOUNDS pp pp pp
-0.236793828 33.036793828
-0.155338079 34.295338079
0.5086317166 63.0913682834
ITEM: ATOMS id type x y z Coordination
1 1 0.00588605 5.53355 0.815476 21
2 1 1.25309 2.72322 0.458825 22
3 1 3.02014 32.3217 2.95874 20
4 1 32.4858 14.9595 3.50866 22
5 1 27.8163 8.34437 6.52672 22
6 1 26.567 3.58535 8.68603 20
7 1 8.153 0.913936 8.78194 24
8 1 9.6872 11.3642 6.26239 22
9 1 21.8962 11.9199 14.3597 24
10 1 24.9494 25.5893 21.7943 22
11 1 -0.125774 3.74968 14.1325 22
12 1 1.66677 2.64423 11.3188 24
13 1 33.1757 11.3684 1.28081 23
14 1 9.75451 5.59476 11.119 25
15 1 1.81285 6.02126 3.07627 24
16 1 1.42069 8.4108 0.608851 21
17 1 -0.156596 9.11152 3.36319 20
18 1 6.72701 3.51161 14.2576 24
19 1 29.2965 15.1161 3.35674 21
20 1 26.015 9.28245 3.73887 24
21 1 11.4532 6.41665 13.8452 25
22 1 1.55367 14.9009 5.75961 24
23 1 11.4597 2.74219 11.5828 25
24 1 6.88021 16.8354 11.066 21
25 1 32.5462 16.9361 62.7426 24
26 1 1.46391 14.2799 0.99601 22
27 1 3.33469 15.3172 3.16986 23
28 1 -0.170693 12.6591 6.23274 18
29 1 31.4818 18.0669 2.98091 22
30 1 4.70872 12.0706 3.21513 21
31 1 8.06663 12.1484 3.47912 22
32 1 29.5704 15.0835 9.08611 24
33 1 31.7067 19.9856 11.2116 22
34 1 10.0928 20.3799 8.82312 21
35 1 3.28945 -0.164438 11.3945 23
36 1 24.5675 18.1986 18.9431 23
37 1 3.14481 5.15298 0.587417 21
38 1 4.62638 2.25481 1.10293 25
39 1 7.9644 0.728601 13.7125 21
40 1 31.5874 24.0114 18.912 24
41 1 28.0969 6.43692 3.57041 24
42 1 26.3829 28.0336 5.69724 22
43 1 4.93166 31.6042 10.891 23
44 1 28.2113 6.11915 8.54378 23
45 1 0.134592 9.69702 13.9864 20
46 1 14.6129 6.4746 19.1047 24
47 1 24.6763 6.6638 19.2485 25
48 1 26.2984 28.2098 16.7921 23
49 1 2.9557 11.0141 62.7102 21
50 1 4.52351 7.95953 0.972036 22
51 1 4.94981 6.05902 3.62921 23
52 1 3.08803 9.16548 3.87589 21
53 1 16.4591 3.12739 13.8212 23
54 1 6.43594 34.2395 6.19279 25
55 1 26.5456 31.9765 8.67083 22
56 1 19.6579 15.2144 18.8517 22
57 1 13.0519 9.17221 3.92509 24
58 1 2.9657 11.1373 5.9338 19
59 1 11.583 14.1248 6.11288 23
60 1 11.3031 0.796744 14.0641 23
61 1 2.95709 17.3309 0.472051 23
62 1 5.00696 13.9172 0.849394 22
63 1 1.36088 12.5993 3.55123 22
64 1 32.5741 20.7217 3.46346 22
65 1 4.5985 13.8937 5.30926 23
66 1 13.1681 20.7417 24.3614 24
67 1 8.13683 6.30303 13.8266 23
68 1 6.60042 28.7274 10.965 22
69 1 3.09686 20.3488 13.8617 24
70 1 11.313 31.1298 5.83303 21
71 1 18.153 19.6956 10.7601 22
72 1 26.1212 20.6917 8.61445 22
73 1 6.49147 5.32608 0.714214 22
74 1 7.8713 2.53333 62.908 22
75 1 24.8652 3.11515 16.6246 22
76 1 4.6841 0.170184 3.75036 23
77 1 9.61782 8.9564 18.9853 22
78 1 27.7573 6.65542 18.3834 22
79 1 1.79011 0.64737 23.9996 22
80 1 5.1256 14.0528 16.4048 24
81 1 6.48517 2.92619 8.48305 22
82 1 0.132847 5.59623 22.2751 24
83 1 11.502 2.43025 16.556 22
84 1 7.0637 16.7427 26.4744 22
85 1 6.39224 11.0783 0.882181 21
86 1 10.056 5.31657 1.21429 22
87 1 6.39455 28.1203 5.84687 23
88 1 11.92 0.5375 19.3261 24
89 1 17.7702 12.1301 3.57967 23
90 1 8.15829 7.97632 0.936541 21
91 1 11.0308 6.50304 3.65602 24
92 1 22.9335 5.4322 6.01703 23
93 1 20.0506 16.9684 22.1021 24
94 1 15.0569 29.2718 24.4465 22
95 1 11.3316 6.51713 19.2334 24
96 1 8.13269 12.2312 8.86275 22
97 1 6.36748 17.3325 0.714213 23
98 1 7.75491 13.9171 0.952936 22
99 1 9.59125 14.8011 3.66194 23
100 1 28.1992 6.46806 13.5461 20
101 1 11.4501 8.3162 5.95374 23
102 1 15.0482 20.046 6.33504 23
103 1 14.8302 2.44565 6.44766 22
104 1 4.81387 12.164 8.3579 19
105 1 16.4484 16.9415 6.26502 24
106 1 26.4331 16.947 16.7973 23
107 1 7.98138 6.08923 3.69761 23
108 1 13.0583 5.73049 21.8695 24
109 1 9.59381 34.013 6.22773 22
110 1 11.1758 2.3849 1.15443 25
111 1 6.27059 9.32948 8.34024 22
112 1 18.0996 17.7823 13.825 22
113 1 1.57835 0.775255 8.85774 24
114 1 0.0766863 33.9925 6.27518 22
115 1 20.0237 31.7886 13.6916 24
116 1 23.1161 5.30847 16.5231 24
117 1 5.11103 6.72836 19.4169 24
118 1 16.3894 3.27159 8.77145 23
119 1 9.69381 5.3516 6.51869 22
120 1 13.1863 3.44367 13.7718 20
121 1 9.76931 10.9143 1.15885 24
122 1 11.6684 8.02989 1.02337 21
123 1 9.49802 3.00973 3.94996 22
124 1 6.37436 9.22863 3.53166 20
125 1 30.6868 2.50134 5.7664 21
126 1 11.3424 6.36072 8.87391 22
127 1 14.4877 8.43722 21.5204 22
128 1 21.5224 8.40241 1.03741 22
129 1 20.235 9.51117 24.0562 22
130 1 6.71718 32.0894 8.60192 23
131 1 4.89289 0.691252 19.2164 22
132 1 18.5359 0.851212 24.263 22
133 1 8.37675 17.7189 3.6503 23
134 1 11.4954 13.7573 0.997166 24
135 1 11.6973 12.2289 8.8753 24
136 1 18.0849 25.5061 6.0256 22
137 1 8.25297 23.4845 3.44256 22
138 1 14.5947 12.2546 3.43337 22
139 1 18.4712 8.11714 11.4857 20
140 1 17.8116 25.6053 10.9239 24
141 1 17.9795 6.20441 18.7014 21
142 1 1.68958 19.92 26.8324 23
143 1 9.3444 10.9911 21.7334 23
144 1 9.79097 32.3588 19.213 23
145 1 7.46641 0.643255 3.3482 23
146 1 14.628 2.60747 1.44114 22
147 1 12.8154 3.34514 3.87582 23
148 1 18.2637 0.202076 8.54717 20
149 1 16.0755 3.36926 3.84563 23
150 1 29.9972 3.74693 18.8461 22
151 1 14.8188 6.26032 8.70282 20
152 1 18.2664 31.4097 5.95662 19
153 1 7.85782 6.63818 8.66603 24
154 1 17.7246 8.14719 21.817 22
155 1 3.0654 5.4435 11.602 25
156 1 9.74518 3.53184 8.77668 25
157 1 13.2625 10.9707 1.19456 21
158 1 14.9773 7.93553 1.20166 24
159 1 19.6955 3.56496 3.5108 22
160 1 21.0095 6.06192 3.16902 22
161 1 21.4521 12.2194 3.17449 20
162 1 16.0798 5.15415 1.03907 23
163 1 24.5516 8.32303 11.223 25
164 1 25.2845 31.1607 5.93512 24
165 1 11.6708 6.10915 24.3258 21
166 1 14.5501 0.483635 14.4085 25
167 1 19.9795 14.8648 14.0374 22
168 1 19.4553 5.61341 6.1717 22
169 1 9.81856 16.4276 0.832611 22
170 1 17.8561 12.3811 8.95901 24
171 1 12.9543 11.1813 16.4481 24
172 1 14.4092 11.5947 60.2684 20
173 1 28.1406 12.3549 9.09747 24
174 1 15.0129 18.0108 3.49742 23
175 1 11.7554 19.9634 16.2861 22
176 1 14.9442 8.39948 6.42783 22
177 1 18.102 8.16757 6.00038 20
178 1 20.9526 14.0852 6.09055 22
179 1 13.2247 16.9719 6.08471 23
180 1 10.0626 16.7724 6.38498 24
181 2 1.8112 31.1589 13.1467 23
182 2 31.1464 31.0519 8.39434 21
183 2 17.7005 0.144027 11.103 20
184 2 9.90766 3.56945 5.66054 21
185 2 -0.0837872 26.5389 20.8812 22
186 2 21.5158 17.0677 5.20702 22
187 2 31.7038 14.5415 13.1799 22
188 2 31.819 29.7541 5.3282 21
189 2 0.310645 28.4428 13.2272 22
190 2 21.4849 0.094354 10.6746 21
191 2 4.73403 12.5107 21.2449 23
192 2 32.9382 3.42241 26.3326 22
193 2 31.2768 11.8627 0.54563 22
194 2 1.82785 20.0818 18.631 22
195 2 3.07192 9.17351 5.9278 19
196 2 11.7195 12.0368 63.2029 20
197 2 22.1822 0.833336 20.8232 24
198 2 1.48534 11.8221 10.602 22
199 2 19.781 14.5772 11.3223 22
200 2 29.6337 15.2512 5.27603 23
201 2 32.8997 22.6849 8.32468 22
202 2 6.34948 9.31754 21.2928 22
203 2 0.675316 4.12512 21.3948 22
204 2 15.0025 13.3636 7.70497 23
205 2 2.92659 11.3863 3.17416 22
206 2 10.2049 17.1658 8.32106 20
207 2 -0.195132 16.8642 3.69794 21
208 2 31.2904 19.7915 2.87458 23
209 2 8.19626 7.93411 3.81287 21
210 2 25.0655 23.4467 21.5791 21
211 2 1.12792 19.8275 2.68743 23
212 2 10.0299 15.2611 21.1837 21
213 2 29.4998 33.9392 13.158 21
214 2 31.2351 12.3119 5.84194 19
215 2 4.3903 23.4762 10.4145 22
216 2 16.5727 0.0371611 7.91867 22
217 2 13.064 32.1881 10.627 21
218 2 3.46203 34.0188 8.14135 26
219 2 4.97316 2.15945 3.0138 24
220 2 3.1332 3.58282 5.27219 22
221 2 9.8919 32.4615 21.1596 23
222 2 31.5882 6.84091 26.2211 22
223 2 13.1166 27.0621 10.6214 23
224 2 9.87265 26.2897 5.32041 25
225 2 3.53518 28.0702 13.5454 24
226 2 5.00396 6.24209 15.8109 24
227 2 21.4914 8.25698 8.13318 24
228 2 13.1934 9.1023 15.9304 25
229 2 3.62345 5.18095 2.36116 24
230 2 4.86634 7.93912 3.29034 19
231 2 24.3756 2.21546 3.056 22
232 2 8.38524 5.9023 62.9697 21
233 2 6.68297 5.08382 2.68496 24
234 2 0.011939 16.981 12.7761 24
235 2 4.917 14.0429 3.11713 22
236 2 9.83984 14.9832 5.53636 25
237 2 1.28374 12.3577 20.8306 25
238 2 24.7727 0.151527 15.6752 21
239 2 31.0094 23.9492 20.7814 21
240 2 14.7699 11.6906 16.1879 21
241 2 -0.251783 9.47123 62.6826 23
242 2 8.02007 20.2178 23.4508 21
243 2 5.20749 23.7775 5.99272 22
244 2 6.40374 20.9428 15.4211 23
245 2 1.94152 8.74525 2.55029 19
246 2 4.73415 0.85835 21.1582 24
247 2 3.41977 21.1485 21.697 21
248 2 14.5036 0.51242 10.3718 23
249 2 14.8967 14.4385 23.5624 22
250 2 3.20269 15.2709 5.32626 22
251 2 25.9138 31.4794 15.9539 21
252 2 15.1484 6.84539 26.8001 21
253 2 18.1436 31.6111 13.0234 25
254 2 14.7676 29.3791 10.4422 24
255 2 6.77808 34.1456 8.17409 21
256 2 4.6814 0.480649 5.74773 21
257 2 25.1145 2.16013 8.66937 19
258 2 8.47783 31.5107 13.0535 20
259 2 0.23378 5.14552 7.69627 22
260 2 16.5392 3.12148 62.8036 24
261 2 14.851 2.55638 18.6659 22
262 2 -0.0876399 3.24773 16.0866 20
263 2 11.6979 3.16654 28.7203 25
264 2 4.12081 0.962043 16.029 22
265 2 6.60192 5.44199 7.79902 24
266 2 23.0961 15.292 16.0976 21
267 2 2.92177 17.1766 3.02447 20
268 2 3.38175 20.2595 15.9671 23
269 2 20.9654 25.1023 13.6204 21
270 2 10.1024 15.0629 15.9874 21
271 2 16.6771 32.6958 25.8938 22
272 2 6.38331 11.2615 2.72921 22
273 2 9.632 31.9394 10.3393 23
274 2 14.6169 0.620378 5.49694 22
275 2 5.13561 6.20056 21.279 23
276 2 6.38619 22.5026 13.5046 21
277 2 18.083 19.7854 7.60219 26
278 2 11.1975 0.29116 5.94992 22
279 2 4.77093 19.5953 2.85361 22
280 2 6.76085 16.6594 2.55603 24
281 2 11.8175 11.8283 10.8282 22
282 2 14.7542 12.2906 5.3363 24
283 2 8.14292 23.2216 5.18034 24
284 2 12.7747 14.8199 62.6979 21
285 2 13.2946 9.28782 10.9178 21
286 2 11.4367 8.78426 3.16849 19
287 2 5.16099 25.5248 18.008 22
288 2 8.59447 19.8273 17.9682 25
289 2 15.9864 5.15199 3.50012 22
290 2 13.7114 22.5409 7.92664 22
291 2 27.9885 25.3759 13.5329 22
292 2 12.738 34.0381 2.75521 24
293 2 11.6074 8.39617 13.0663 24
294 2 14.5055 31.0732 7.84411 21
295 2 0.855884 10.6153 22.7687 18
296 2 13.0308 5.82717 7.88169 22
297 2 5.06796 2.59724 13.3016 25
298 2 16.3937 34.2154 18.6455 20
299 2 7.90221 0.901949 10.8213 22
300 2 12.8288 11.2331 3.12587 22
301 2 6.61045 28.4919 7.54368 23
302 2 6.49284 9.17777 6.09467 20
303 2 6.66974 15.1464 5.30484 24
304 2 16.4817 3.25242 5.86288 23
305 2 13.332 31.8535 21.2915 21
306 2 4.69793 8.09838 8.29823 20
307 2 1.14257 14.2804 2.91242 21
308 2 7.91113 6.08389 5.66689 22
309 2 1.52774 0.682856 11.2391 18
310 2 13.4431 16.8181 7.91074 26
311 2 31.5086 8.85034 13.5576 20
312 2 13.2312 16.8381 18.3526 23
313 2 11.3284 8.23462 8.76904 19
314 2 18.3988 13.6597 13.6333 23
315 2 9.87008 22.6261 2.57638 24
316 2 23.1325 14.9241 10.9537 23
317 2 4.74219 12.0128 5.17199 22
318 2 24.4447 7.92349 13.2396 22
319 2 14.6298 8.28748 18.3494 24
320 2 7.81782 12.275 5.3888 24
321 2 9.94309 8.95508 11.0509 20
322 2 0.0997284 15.5167 20.824 23
323 2 24.9218 18.4739 25.9452 23
324 2 24.9197 17.9996 0.568262 21
325 2 10.0227 3.6321 10.7329 22
326 2 18.1848 31.3441 7.99611 21
327 2 8.09432 2.23535 3.07456 22
328 2 19.1168 5.35209 2.74356 23
329 2 16.5533 28.085 7.95806 21
330 2 31.4289 12.0136 10.5934 24
331 2 2.99086 9.04518 10.3276 23
332 2 17.9023 2.38064 3.37924 19
333 2 21.7832 6.56261 16.1406 23
334 2 21.755 12.3244 26.4149 23
335 2 21.3017 13.8446 18.3201 25
336 2 18.1038 8.63214 18.5305 23
337 2 21.7871 31.2174 13.4458 21
338 2 13.064 3.40881 10.6124 25
339 2 18.3803 19.7661 2.48859 24
340 2 17.9987 29.3893 5.73025 23
341 2 19.8778 5.37905 22.9567 24
342 2 13.3322 3.58724 5.69515 22
343 2 24.8613 25.5378 13.5772 24
344 2 20.2513 16.6099 7.95056 22
345 2 21.157 19.6688 18.5268 24
346 2 11.4345 19.8969 23.7395 19
347 2 7.78496 6.17501 10.8825 21
348 2 13.5425 20.8213 20.4324 24
349 2 18.2239 8.46525 23.7631 22
350 2 9.59374 11.0905 3.26851 21
351 2 14.7809 17.8508 62.8243 23
352 2 11.2252 17.5091 62.6326 23
353 2 21.5004 23.4224 16.0254 22
354 2 11.0632 6.47436 5.49325 25
355 2 6.04068 32.3722 5.73199 22
356 2 14.7861 14.2135 3.03394 22
357 2 6.29114 3.44912 10.3624 25
358 2 18.4793 17.8874 21.2185 22
359 2 23.1627 22.4755 7.9913 23
360 2 26.4742 9.5081 5.47134 23
361 1 8.44917 13.9487 10.9942 23
362 1 1.20254 8.28649 5.86824 21
363 1 8.16125 25.7463 11.0217 21
364 1 3.0017 16.4813 11.1546 21
365 1 30.1185 15.4128 19.448 22
366 1 31.8178 2.6857 10.9373 21
367 1 4.96 8.23943 21.584 22
368 1 5.27702 6.7373 13.9027 24
369 1 24.8283 31.119 26.9879 22
370 1 -0.00335155 3.63392 24.2709 25
371 1 3.06671 3.51547 29.3546 22
372 1 33.0481 5.48779 26.7759 21
373 1 26.1817 9.38245 8.61115 24
374 1 18.0784 20.1706 16.4917 23
375 1 12.9738 9.11467 18.9433 23
376 1 4.85112 12.6466 23.7571 22
377 1 29.393 9.6357 29.4665 21
378 1 3.20258 11.2198 27.0197 21
379 1 22.816 20.8278 19.1233 23
380 1 13.5963 3.91555 23.7278 23
381 1 1.67914 13.7826 26.6827 21
382 1 31.1627 31.3818 21.146 23
383 1 3.29966 5.23243 27.1141 21
384 1 29.9929 3.62882 13.8098 23
385 1 3.31551 28.2358 11.4263 23
386 1 29.8979 17.0279 16.3837 21
387 1 29.7649 11.4463 21.3178 21
388 1 27.6613 11.9614 3.60089 24
389 1 18.2699 17.6782 8.39032 21
390 1 31.6717 19.7894 16.473 23
391 1 7.9383 12.387 29.1579 23
392 1 28.057 19.791 27.2423 25
393 1 3.13619 9.58874 24.5475 23
394 1 24.9017 19.7077 21.5649 22
395 1 1.54456 2.69222 26.7281 23
396 1 31.6934 14.0685 31.9563 22
397 1 6.83149 11.0557 10.9486 21
398 1 21.5285 31.12 16.7006 23
399 1 26.7177 3.02853 24.0519 23
400 1 31.4622 6.51406 13.6777 21
401 1 6.26927 11.2959 5.95521 21
402 1 10.1627 28.4606 10.9946 22
403 1 9.75495 10.9014 16.3124 21
404 1 30.0309 26.5784 24.1675 22
405 1 3.15654 34.1343 21.4902 21
406 1 11.7736 1.29117 29.1858 21
407 1 5.22816 0.421016 29.3751 23
408 1 2.92764 9.59157 29.667 22
409 1 13.2556 9.00775 8.4452 24
410 1 -0.282368 20.6955 8.83131 24
411 1 6.8968 32.0887 14.0507 22
412 1 4.5926 8.45261 11.3494 25
413 1 16.2608 5.46505 16.145 23
414 1 14.9259 8.24591 16.4934 23
415 1 31.1652 8.23462 21.0364 21
416 1 31.3826 6.72368 18.575 21
417 1 4.74935 14.5149 21.9267 26
418 1 6.16369 11.2904 21.6883 23
419 1 1.72024 6.59209 30.0394 26
420 1 10.7671 3.62955 23.8619 25
421 1 29.7403 20.6907 14.0681 23
422 1 28.1489 23.502 24.4725 25
423 1 32.9724 3.50432 8.62062 24
424 1 11.9916 19.8241 5.92496 22
425 1 31.4756 23.4759 24.3885 26
426 1 3.49728 20.766 19.608 24
427 1 11.8283 23.9784 13.6463 24
428 1 3.35663 23.0019 21.4924 20
429 1 9.60175 20.5661 29.7958 20
430 1 3.51824 17.1687 16.0239 23
431 1 9.8286 15.193 29.3538 24
432 1 13.5007 17.47 26.8063 22
433 1 23.1537 5.401 11.1868 20
434 1 10.0645 3.6208 19.022 23
435 1 16.6291 5.98873 26.5015 24
436 1 26.3407 34.0675 11.4585 22
437 1 16.6344 17.0732 16.6372 25
438 1 15.1557 12.5593 24.3739 21
439 1 16.3904 9.98162 29.3827 20
440 1 8.571 0.83443 29.514 24
441 1 9.73184 9.66803 29.7051 24
442 1 9.55798 5.45321 16.5159 23
443 1 11.6552 31.4496 26.5833 24
444 1 33.0051 3.75482 29.5449 22
445 1 19.7754 9.07395 19.276 24
446 1 33.0419 20.9916 13.5322 22
447 1 3.36597 5.68539 21.9975 24
448 1 14.6315 12.0463 18.9421 22
449 1 12.9336 11.5295 26.6783 24
450 1 1.76811 14.815 16.3741 24
451 1 13.0411 11.5457 21.3898 23
452 1 3.55036 11.0511 10.7205 22
453 1 28.0449 25.5259 21.5382 23
454 1 3.09043 34.0908 16.5858 21
455 1 8.29672 7.06216 29.4574 22
456 1 9.99268 3.80333 29.8202 24
457 1 10.2826 16.8734 11.3826 24
458 1 13.0272 3.74923 8.71792 22
459 1 1.53043 14.1249 21.7459 22
460 1 6.43808 26.5824 18.7493 21
461 1 15.3247 31.1663 21.8722 24
462 1 -0.025729 15.4257 24.0446 23
463 1 3.33882 3.54459 24.3097 24
464 1 19.8869 10.6215 17.0501 25
465 1 4.57618 12.2772 29.6991 24
466 1 6.56906 15.2421 29.1253 24
467 1 32.9084 11.273 21.4955 21
468 1 6.37021 11.2856 32.2113 23
469 1 16.5081 11.6405 26.5695 21
470 1 14.708 8.72433 26.9177 22
471 1 31.1962 29.452 18.7897 23
472 1 19.9848 16.8718 11.2967 20
473 1 11.9129 0.316229 23.9997 21
474 1 9.86738 17.2889 21.4662 22
475 1 21.7252 2.67815 21.8209 24
476 1 18.3245 6.44574 24.239 24
477 1 11.3973 8.34719 26.8699 24
478 1 16.4923 0.0245965 26.4033 20
479 1 16.7297 32.8639 23.989 22
480 1 13.4822 3.73391 29.6965 22
481 1 11.2757 11.5703 18.9643 20
482 1 11.5313 8.31389 16.5693 25
483 1 14.5098 31.2184 5.9214 22
484 1 31.4204 19.8093 21.8194 24
485 1 11.7228 2.60736 21.5334 23
486 1 18.3112 12.5666 29.5126 22
487 1 14.6454 14.2512 11.5934 21
488 1 14.7134 6.7581 29.8196 25
489 1 4.78369 8.16982 26.7617 22
490 1 16.3026 15.1959 18.9553 22
491 1 11.6417 6.75404 29.3298 21
492 1 11.687 13.9164 21.4274 21
493 1 13.2965 26.5723 24.4196 23
494 1 24.5384 14.1959 16.5424 23
495 1 6.49183 17.0279 21.4511 23
496 1 21.5518 12.2777 23.959 22
497 1 16.8413 15.4244 29.945 25
498 1 11.5159 14.0057 16.659 23
499 1 16.1351 20.4774 29.7684 23
500 1 9.99779 -0.127919 21.5399 23
501 1 29.8879 5.53308 26.7954 23
502 1 5.05165 17.3442 24.1926 22
503 1 13.3068 16.8748 15.9513 22
504 1 17.908 20.1218 27.1457 24
505 1 29.555 9.6431 18.6697 20
506 1 15.1854 25.6785 21.8537 25
507 1 16.2812 32.4522 29.5078 24
508 1 20.1596 3.48871 18.694 22
509 1 7.8563 14.122 21.4547 23
510 1 17.9398 6.24454 13.6903 23
511 1 24.4007 12.4267 19.1143 23
512 1 15.1275 14.4104 26.5573 22
513 1 14.6827 8.68799 32.2713 23
514 1 18.2651 2.39444 16.0267 21
515 1 14.9023 19.8058 21.6367 21
516 1 13.2345 32.7034 29.1493 23
517 1 26.368 11.0178 6.36642 23
518 1 8.03001 7.93019 5.856 21
519 1 5.14438 0.527316 24.2101 23
520 1 11.992 25.6189 21.606 23
521 1 16.5442 20.6894 24.3618 24
522 1 17.7338 6.71033 29.3508 22
523 1 21.6648 8.33704 26.5355 21
524 1 11.4044 12.3359 29.6234 24
525 1 3.32383 22.3164 16.6238 24
526 1 13.3576 3.43741 19.1336 24
527 1 22.8203 9.64311 23.436 19
528 1 12.8871 9.85687 29.3998 22
529 1 19.8607 3.15953 8.72116 22
530 1 16.624 22.724 16.298 24
531 1 8.27117 23.4566 8.52199 21
532 1 15.0595 23.8351 18.9398 24
533 1 24.7893 14.0246 11.4431 25
534 1 18.2096 17.8249 19.2465 24
535 1 16.4869 8.78169 14.0646 24
536 1 18.2305 13.7257 16.278 20
537 1 6.47786 22.5451 21.4522 20
538 1 21.7429 18.1768 29.4355 20
539 1 6.50617 15.2884 19.0582 22
540 1 26.9451 26.1735 19.0799 22
541 2 31.3696 2.43108 28.834 21
542 2 16.4659 11.1523 18.5029 23
543 2 4.60989 8.35943 13.177 21
544 2 32.9297 5.68567 18.4644 23
545 2 15.1711 3.02506 28.7148 24
546 2 23.254 28.4598 28.6491 25
547 2 1.3033 18.2579 21.4131 22
548 2 31.5361 6.22381 20.5817 21
549 2 1.76971 0.235448 31.8812 20
550 2 0.191874 3.5126 31.5639 23
551 2 16.7906 26.7029 21.0821 23
552 2 31.4615 31.2096 28.4032 25
553 2 -0.141839 32.4235 15.8079 20
554 2 22.8513 3.88939 20.8511 23
555 2 8.45633 14.1219 13.2022 22
556 2 12.8153 34.1673 13.645 23
557 2 29.8931 -0.17081 28.704 22
558 2 29.8116 16.7559 23.9468 22
559 2 1.32222 6.78993 21.3208 23
560 2 6.549 32.3912 16.534 21
561 2 1.74239 6.32485 31.9132 20
562 2 1.56532 11.7247 31.3976 24
563 2 2.87101 11.3894 28.8638 22
564 2 3.39958 9.29012 26.4478 21
565 2 10.5185 17.1081 13.5369 20
566 2 19.401 9.16887 21.241 21
567 2 32.6447 28.4346 18.5986 21
568 2 27.8121 12.3041 5.51312 24
569 2 16.4627 5.28964 13.7659 21
570 2 27.7783 12.5938 10.8828 21
571 2 33.0467 28.4993 23.1109 25
572 2 22.9639 9.23889 10.6694 22
573 2 8.23458 6.56666 21.0044 25
574 2 0.139576 15.2043 31.3031 24
575 2 18.0927 18.3299 26.9054 22
576 2 1.60584 12.0625 26.5188 21
577 2 1.4365 31.454 8.73193 22
578 2 21.1505 23.7626 26.4473 22
579 2 26.8006 34.056 23.7443 25
580 2 14.3867 5.96158 16.1978 23
581 2 31.7528 14.5324 28.7666 23
582 2 23.163 26.0984 15.6089 24
583 2 29.7774 3.63051 20.859 21
584 2 4.89072 12.4939 26.0148 20
585 2 5.08489 0.911491 31.0623 24
586 2 3.31111 3.12439 31.1639 23
587 2 8.60021 7.01721 26.2306 21
588 2 3.11555 14.8091 10.4527 21
589 2 10.0137 32.0709 25.605 24
590 2 9.79552 3.70544 16.0016 23
591 2 23.3403 32.6155 21.6244 21
592 2 5.09268 8.23556 23.6603 22
593 2 10.5224 3.67478 26.0928 22
594 2 11.4246 6.42963 21.1849 26
595 2 24.5483 19.8485 13.1424 24
596 2 1.86449 13.9006 18.2182 23
597 2 4.65119 6.61733 32.1288 19
598 2 3.32408 9.58329 31.827 24
599 2 6.71711 5.56525 12.9861 25
600 2 12.0227 8.53277 23.6509 22
601 2 30.069 26.3836 5.29139 23
602 2 31.69 23.7187 26.2296 25
603 2 28.4165 25.4222 23.5448 24
604 2 31.7951 2.92446 13.0999 22
605 2 12.21 23.8688 21.0472 22
606 2 0.0264142 26.349 25.7108 23
607 2 9.92492 9.5014 26.2318 21
608 2 6.76039 32.1945 10.727 23
609 2 14.8044 14.4585 28.626 24
610 2 3.18825 14.8141 31.9749 21
611 2 4.9775 12.2611 31.494 23
612 2 7.00353 22.4336 18.2739 22
613 2 33.0322 15.1421 16.3132 24
614 2 28.8968 31.3108 24.0087 23
615 2 15.0392 23.5154 15.4661 24
616 2 13.5776 3.92373 25.693 23
617 2 12.8362 4.30302 31.649 22
618 2 28.2743 8.61196 23.2003 24
619 2 31.498 29.3059 20.6815 24
620 2 3.26565 6.07384 19.2919 24
621 2 8.22875 0.57351 31.3959 22
622 2 6.92333 3.85241 31.0779 24
623 2 9.63394 10.9569 18.5051 23
624 2 16.7679 9.47929 20.8852 22
625 2 3.42157 3.2967 26.2999 23
626 2 33.0973 26.5739 10.7346 24
627 2 19.6504 15.5083 16.0663 22
628 2 6.11037 11.3946 29.0202 22
629 2 24.6649 23.5782 15.9425 24
630 2 8.1397 14.6343 18.2113 22
631 2 8.42907 2.80819 18.5575 23
632 2 1.47691 23.9765 21.177 21
633 2 28.1431 29.1103 16.166 21
634 2 6.27152 9.43879 31.5516 24
635 2 31.6667 2.83579 19.2641 23
636 2 13.0765 14.2016 26.2197 21
637 2 23.2388 11.4645 23.986 23
638 2 -0.114672 5.80398 2.73738 24
639 2 21.3887 14.3183 8.00738 23
640 2 1.09815 25.5632 23.6116 19
641 2 1.57233 2.74003 23.7998 22
642 2 5.08121 23.7502 31.706 25
643 2 6.45845 11.0644 13.2229 23
644 2 31.7615 20.1402 18.7401 24
645 2 8.12465 12.7197 31.5304 22
646 2 6.82918 14.9502 31.3025 23
647 2 0.273178 20.4396 15.3507 23
648 2 8.21258 20.0528 28.5714 23
649 2 8.23708 12.4196 25.9671 24
650 2 9.59561 5.27609 13.1762 23
651 2 11.236 8.79076 28.8429 23
652 2 14.8269 19.9287 13.0534 25
653 2 26.581 3.91651 25.809 25
654 2 28.4655 12.4289 26.4197 22
655 2 6.3054 21.0391 26.1995 21
656 2 11.9457 1.03547 31.2088 25
657 2 9.89416 32.5178 31.4692 20
658 2 16.2431 5.66054 29.6428 19
659 2 8.00311 6.92718 31.4646 21
660 2 3.23726 11.5306 23.5292 22
661 2 18.2604 6.92634 26.0228 22
662 2 13.5527 11.7317 23.3388 22
663 2 6.59031 26.5342 15.8328 22
664 2 13.7149 34.2038 23.6321 20
665 2 13.3137 11.1062 13.7294 21
666 2 23.2864 5.91203 28.8966 22
667 2 1.28546 20.3961 23.6047 21
668 2 4.93746 2.98102 28.5509 22
669 2 9.94455 4.11787 31.6863 20
670 2 9.70033 11.1123 35.2104 18
671 2 8.26911 0.971341 21.0314 24
672 2 14.6853 12.4 20.8942 21
673 2 26.4595 15.5398 26.3079 24
674 2 24.7562 29.3271 26.0995 23
675 2 8.14513 23.7524 15.6228 23
676 2 19.4045 14.7976 5.39253 23
677 2 1.57403 5.90825 26.6573 23
678 2 16.4848 20.4165 21.0849 22
679 2 7.87333 5.99944 15.8207 22
680 2 9.75092 11.6451 28.8468 24
681 2 13.3292 15.265 31.6545 23
682 2 11.2324 12.5149 31.7809 21
683 2 9.71906 9.82559 31.7944 23
684 2 11.7416 17.8854 26.2864 21
685 2 20.1364 0.176782 23.4308 24
686 2 6.35274 9.79463 26.0458 22
687 2 23.5173 5.64128 18.547 23
688 2 26.7572 26.8052 21.7243 20
689 2 4.86816 14.3928 18.3958 22
690 2 24.8975 8.41842 29.1204 21
691 2 17.9597 8.1039 13.2358 22
692 2 23.0948 17.1364 13.2438 24
693 2 15.2339 1.45853 31.2554 22
694 2 16.2837 34.2337 28.5754 21
695 2 23.0588 11.1745 29.0495 20
696 2 18.2443 6.90132 31.5156 22
697 2 18.3115 30.16 26.5004 23
698 2 21.3402 11.5872 16.2919 21
699 2 31.1808 2.58758 7.6027 24
700 2 11.6677 20.231 13.06 20
701 2 12.9438 3.89438 21.0347 24
702 2 13.4562 0.374473 28.5198 23
703 2 10.3144 28.791 23.8565 23
704 2 26.4871 11.5638 28.6324 23
705 2 9.93752 5.51326 23.5252 26
706 2 13.168 9.78394 31.7773 22
707 2 13.1184 16.7788 23.8212 22
708 2 16.6437 22.2457 29.2283 21
709 2 3.13895 17.2736 23.7787 24
710 2 13.4855 20.8345 10.6813 23
711 2 11.5898 14.2438 13.1036 23
712 2 11.3558 8.36902 18.4198 25
713 2 3.26838 17.1138 28.6076 21
714 2 26.7811 20.9811 26.2953 23
715 2 2.91032 34.1756 18.596 22
716 2 19.7672 22.3829 12.9942 23
717 2 24.7516 14.5239 23.5044 24
718 2 14.5543 19.9877 28.6802 24
719 2 21.4581 18.0558 26.7827 21
720 2 14.3724 12.9841 31.5586 20
721 1 32.8331 22.5253 0.894903 23
722 1 1.29756 19.9904 0.654346 22
723 1 6.23682 9.23865 13.7511 21
724 1 29.6856 26.5399 8.92978 24
725 1 -0.00473127 28.5729 6.01169 23
726 1 2.91926 20.3916 3.23726 24
727 1 26.6108 3.40902 13.7149 20
728 1 14.9636 17.9099 23.984 21
729 1 14.5366 2.08737 11.3335 22
730 1 29.6979 9.44969 9.12417 24
731 1 9.71889 9.2328 13.6686 21
732 1 24.6164 29.1952 19.0389 22
733 1 32.9389 28.5446 63.0509 21
734 1 1.46424 25.3549 0.64973 23
735 1 29.9105 15.1226 13.5232 21
736 1 0.151868 26.2257 3.26519 22
737 1 -0.0714607 26.8542 8.7319 22
738 1 32.9099 32.0586 3.41471 22
739 1 31.6338 29.3154 8.66793 23
740 1 24.6489 29.3309 13.8398 24
741 1 24.7693 29.5303 3.53835 23
742 1 13.2732 28.7869 11.3799 25
743 1 13.3483 32.0479 23.9796 22
744 1 8.04455 6.30219 19.1781 24
745 1 32.648 33.9825 0.875067 24
746 1 1.31835 31.1726 62.8418 21
747 1 0.0339486 33.7842 11.4512 23
748 1 6.42108 3.47646 3.37004 22
749 1 24.3549 30.7551 16.7237 23
750 1 4.52358 29.2085 3.19376 22
751 1 1.62242 29.4117 2.91221 23
752 1 27.6746 25.6621 11.2871 22
753 1 9.76073 3.71978 13.944 24
754 1 8.3735 2.70181 16.8348 24
755 1 21.3161 18.1031 13.5373 22
756 1 31.5938 14.0943 21.7735 24
757 1 2.67262 22.8286 1.03077 22
758 1 5.08073 19.7759 0.69123 22
759 1 4.70251 17.7007 3.31164 23
760 1 4.74434 23.7794 3.56486 22
761 1 6.77376 26.3418 3.29482 22
762 1 13.5543 22.554 6.13664 22
763 1 3.09664 22.9495 6.11074 20
764 1 1.22722 23.5774 8.78928 25
765 1 29.6171 31.8984 13.8116 21
766 1 1.37856 17.7152 8.03467 22
767 1 12.9561 26.3997 8.73786 24
768 1 10.0516 15.4442 9.01796 23
769 1 2.59749 27.8899 62.9924 22
770 1 5.01517 25.2647 1.02549 22
771 1 1.37849 23.3692 3.41026 23
772 1 29.7213 5.56975 11.128 24
773 1 11.4843 29.1972 3.37167 24
774 1 1.42997 19.6501 5.84336 24
775 1 15.0192 17.723 8.62529 23
776 1 8.08962 17.6814 8.73845 22
777 1 3.5823 14.8611 13.4297 23
778 1 16.1792 26.2396 8.51957 23
779 1 29.7659 28.4022 11.3892 21
780 1 8.39749 14.0519 5.95061 19
781 1 2.50273 34.3584 0.944315 23
782 1 4.58453 31.1457 0.792971 23
783 1 4.98387 25.6395 5.69474 21
784 1 23.0408 9.4566 8.59011 24
785 1 9.70409 28.1621 5.75499 23
786 1 9.9811 28.7991 16.7047 21
787 1 14.8579 13.9935 16.5054 25
788 1 29.6325 -0.181551 6.51175 22
789 1 4.82183 17.6172 13.2885 20
790 1 28.2884 3.0536 16.3465 22
791 1 11.3676 0.925438 8.88214 23
792 1 29.5214 5.47538 5.66334 24
793 1 6.6501 22.9925 0.970091 21
794 1 8.15491 19.5133 0.936596 24
795 1 13.1564 22.3498 0.522556 21
796 1 6.65183 14.8902 3.48711 24
797 1 11.7595 29.0605 18.7541 22
798 1 1.61885 23.6579 18.8753 23
799 1 8.36327 19.7288 5.99481 22
800 1 20.2865 11.6651 11.5434 22
801 1 11.3485 29.0188 8.2382 24
802 1 18.0957 31.3566 10.9304 21
803 1 1.35534 12.1317 29.5198 22
804 1 26.6652 16.9698 21.2201 24
805 1 6.04917 28.3101 0.402016 21
806 1 8.66471 25.5102 1.00779 23
807 1 6.34671 20.5006 3.46243 24
808 1 16.1728 32.0205 8.11777 22
809 1 4.77457 25.5443 11.2085 22
810 1 6.58944 20.7381 8.32979 19
811 1 4.49198 19.6848 10.3766 19
812 1 4.72278 23.3984 8.70785 23
813 1 6.42846 -0.188168 16.6704 21
814 1 21.5628 29.0954 19.3416 24
815 1 21.257 14.0716 16.3 24
816 1 13.1145 26.6534 13.7687 23
817 1 6.26237 33.9582 0.443052 22
818 1 2.88144 34.0912 6.39599 23
819 1 8.10836 29.1758 3.23303 23
820 1 1.33413 31.5498 6.18104 22
821 1 1.61532 25.4255 11.3664 23
822 1 8.07468 2.62932 6.08106 25
823 1 3.13414 28.0719 16.0969 22
824 1 3.0862 29.0177 21.6007 21
825 1 9.49748 9.15976 3.20658 21
826 1 8.28204 29.0125 8.28253 22
827 1 7.61805 30.9569 5.75824 21
828 1 6.67093 17.2721 16.7369 24
829 1 9.75804 22.6328 62.9165 20
830 1 13.2874 16.7259 0.845341 24
831 1 4.64666 17.6939 8.68462 22
832 1 13.111 20.508 3.21012 24
833 1 18.11 6.54944 8.93258 24
834 1 11.65 23.4465 3.39275 25
835 1 8.46213 17.7978 13.7862 21
836 1 14.835 19.8071 15.899 21
837 1 8.40015 25.0193 5.79714 23
838 1 19.5838 22.7721 11.0354 24
839 1 16.4993 10.9025 16.5291 24
840 1 9.95385 22.969 11.2565 20
841 1 9.67258 28.7633 0.897152 21
842 1 11.4438 25.1677 0.719411 22
843 1 6.36882 26.6217 13.8765 22
844 1 8.03462 31.1432 17.0909 20
845 1 11.2663 25.2036 5.82636 22
846 1 32.9571 33.9734 21.6565 24
847 1 17.0689 22.6117 5.91464 24
848 1 24.7756 0.437338 13.8275 21
849 1 3.12053 26.4781 8.72567 24
850 1 15.3731 24.0647 13.4243 22
851 1 7.05321 15.3282 24.0498 22
852 1 5.12198 29.4306 8.46317 24
853 1 6.13577 5.00188 6.07017 21
854 1 11.125 31.0971 63.2473 22
855 1 14.9043 25.3667 16.0376 22
856 1 3.3493 3.4804 3.39067 23
857 1 6.25131 31.7414 3.65024 22
858 1 7.74936 31.3907 0.508529 21
859 1 8.34264 31.0435 11.1019 22
860 1 30.039 17.0801 21.8936 23
861 1 9.23361 34.1144 0.842046 22
862 1 4.79465 2.44383 5.96268 24
863 1 1.40814 0.70121 19.0325 21
864 1 29.6533 26.5286 13.3525 19
865 1 13.036 26.4509 3.40074 23
866 1 14.7472 19.6801 0.808185 22
867 1 8.74357 25.269 21.7238 22
868 1 11.8914 17.8289 8.87005 24
869 1 14.5159 25.4263 5.84049 24
870 1 9.98362 20.6021 3.73562 24
871 1 1.33474 14.1769 11.2285 23
872 1 11.1033 12.1253 3.37223 21
873 1 23.0264 23.0716 11.5304 26
874 1 13.1221 32.3543 8.7599 23
875 1 21.5669 14.1272 11.6491 25
876 1 14.6612 31.1555 11.2437 25
877 1 13.0653 28.1348 0.804362 26
878 1 16.5037 16.6738 0.669799 22
879 1 10.149 26.601 3.33884 21
880 1 19.8966 32.2203 3.79947 22
881 1 24.5299 12.2167 13.9422 22
882 1 16.2945 26.786 13.7189 23
883 1 11.49 19.5196 0.690491 24
884 1 32.7539 22.7495 6.08991 22
885 1 10.0224 21.1668 13.9692 22
886 1 14.7525 29.2047 8.38009 22
887 1 5.11211 25.4894 16.1037 20
888 1 31.2564 31.2747 11.2786 21
889 1 12.8507 33.9494 0.679523 20
890 1 14.208 29.3433 3.68389 21
891 1 14.7031 25.6204 0.91016 23
892 1 9.40902 32.0975 3.55045 25
893 1 13.2813 11.1765 6.191 23
894 1 16.4646 28.7476 10.6962 20
895 1 12.8941 32.1919 3.15027 20
896 1 16.3119 33.9625 5.67319 19
897 1 16.6985 9.34115 24.5959 25
898 1 18.2172 24.0068 24.0601 21
899 1 1.81928 29.1114 14.1426 23
900 1 23.5871 5.70778 27.1431 23
901 2 23.2117 5.23827 12.9892 22
902 2 29.5839 11.0986 8.41238 22
903 2 11.8852 19.6026 8.05242 23
904 2 32.8266 20.6151 62.7222 25
905 2 29.8247 15.2365 21.5431 22
906 2 24.632 13.9887 13.4308 24
907 2 26.4268 26.2181 5.18133 24
908 2 8.0846 31.21 18.8342 22
909 2 11.3585 19.6087 2.85895 21
910 2 6.31275 26.7492 10.4636 21
911 2 -0.335814 32.1713 26.2228 23