ITEM: TIMESTEP
27000
ITEM: NUMBER OF ATOMS
500
ITEM: BOX BOUNDS pp pp pp
-30.0 30.0
-30.0 30.0
-30.0 30.0
ITEM: ATOMS id type x y z Coordination
1 1 12.3804 -9.79371 6.1221 9
2 1 4.19693 -1.4901 6.57795 10
3 1 -1.2347 -4.27511 0.782911 22
4 1 3.35448 -7.04352 -14.5383 11
5 1 -2.6867 -7.58724 -4.87314 13
6 1 6.29784 -5.3818 -14.3939 13
7 1 14.6784 -14.0919 -6.83663 7
8 1 7.65191 -3.67286 3.22998 21
9 1 6.9262 -1.97182 -9.5678 23
10 1 7.66708 -1.08774 4.66731 15
11 1 -3.5011 -10.3538 -3.06583 13
12 1 13.8001 -11.257 -8.3012 13
13 1 7.67874 -5.86613 6.20212 13
14 1 -2.60489 -13.0143 -4.19764 13
15 1 3.87204 -13.4457 -10.7302 11
16 1 12.0704 -4.78725 -10.9306 16
17 1 13.5749 -10.9021 3.09229 10
18 1 1.92424 1.51128 0.817107 17
19 1 3.73985 2.1468 -2.09997 15
20 1 6.82026 -11.052 -11.5456 17
21 1 3.70938 -3.92476 2.83442 22
22 1 14.7345 -8.58395 1.4071 10
23 1 -0.642647 -0.257889 3.39672 10
24 1 8.74613 -1.16362 -12.8647 15
25 1 12.4801 1.40643 -5.62888 12
26 1 5.60386 2.18987 -9.88816 11
27 1 0.594741 -1.55261 -9.64185 21
28 1 3.63883 2.1725 -7.41419 14
29 1 5.63606 1.16534 -4.60307 18
30 1 -3.14346 -3.492 -2.67018 13
31 1 5.34514 -0.798298 3.40041 20
32 1 0.817432 -5.11897 -13.0337 13
33 1 0.924976 -13.3236 0.73328 15
34 1 10.826 -12.9647 -4.00623 22
35 1 -3.69641 -6.53342 1.04884 15
36 1 -2.9847 -6.86127 -8.07653 13
37 1 5.76858 -14.7059 0.698309 16
38 1 9.54176 -4.3479 -13.4742 13
39 1 1.50966 -14.2636 -8.7431 13
40 1 5.29565 -1.96659 -14.1375 10
41 1 8.43985 4.10882 -5.62553 9
42 1 -3.41466 -3.93746 3.38892 11
43 1 6.89388 1.95905 3.15469 12
44 1 8.97548 -7.04221 3.27373 23
45 1 9.94683 -15.066 -5.81477 18
46 1 11.4652 -1.873 -12.6372 12
47 1 2.98223 -14.6897 -1.64405 15
48 1 9.20234 -8.90117 6.20544 12
49 1 5.99758 -12.2568 3.80775 17
50 1 11.3145 4.35001 -3.85797 8
51 1 -0.145172 -14.4706 -2.2819 11
52 1 7.39665 -15.3768 -1.38962 16
53 1 2.119 -6.62695 3.76527 20
54 1 -2.65639 -6.9592 6.09679 9
55 1 10.1451 -15.4652 -2.80513 17
56 1 -3.86563 -9.83208 0.340176 11
57 1 2.49835 -1.60756 4.30181 17
58 1 -2.50215 -1.47379 0.0795677 14
59 1 0.298314 -3.56025 3.49556 20
60 1 1.81189 -10.8276 -9.7177 18
61 1 -1.51552 -3.82487 -9.41811 17
62 1 3.78159 -9.64448 -12.1528 16
63 1 10.8824 -6.45103 5.95856 14
64 1 5.85177 -10.2473 6.16438 11
65 1 1.34599 -8.14014 -11.8059 16
66 1 -2.63829 -9.89172 -6.31378 14
67 1 4.69598 -16.9426 -2.55388 10
68 1 0.716798 -1.36393 1.0397 22
69 1 6.9188 -13.7687 -9.64267 19
70 1 3.59353 1.52569 4.11706 12
71 1 -3.22261 -3.41029 -6.52795 12
72 1 -2.1626 -0.933177 -9.4402 10
73 1 8.42806 -18.4498 -7.57681 8
74 1 10.96 -12.6322 1.78487 14
75 1 -1.19139 -0.720037 -7.02122 17
76 1 0.815999 -6.92714 6.41328 14
77 1 -1.3764 -6.22596 3.37834 20
78 1 9.80974 -13.0332 -11.436 10
79 1 3.61987 -12.9467 5.74581 12
80 1 11.5535 -12.9524 -8.54521 17
81 1 14.224 -4.1363 -2.50438 15
82 1 8.52029 -6.71311 -12.2666 18
83 1 9.38866 -15.8139 0.918083 12
84 1 1.45547 -16.4666 -4.40996 8
85 1 -1.2856 -11.285 2.37468 10
86 1 11.6174 -5.01872 3.33462 17
87 1 13.8124 -1.05066 -4.24774 9
88 1 6.44217 -3.17912 -11.9484 19
89 1 5.26568 0.209389 -11.9153 15
90 1 9.21648 4.37813 -2.19007 12
91 1 11.7321 -7.34089 -12.6449 11
92 1 11.7471 -14.0707 -1.1145 15
93 1 12.4348 -10.7588 0.0132361 15
94 1 7.92741 -13.3249 1.73902 18
95 1 -0.971111 -2.93379 -12.2488 10
96 1 14.2894 -7.07368 -4.30328 19
97 1 2.41537 0.755792 -9.92315 15
98 1 9.40117 -15.2409 -8.80333 13
99 1 -3.46414 -9.03666 3.45956 11
100 1 7.73931 -17.2619 -4.3816 15
101 1 8.87826 -10.5881 -9.44641 24
102 1 12.9937 -15.1964 -4.18663 12
103 1 6.94737 -15.6257 -6.88819 19
104 1 4.11626 -7.24577 5.95629 14
105 1 1.90436 -4.25532 6.11322 14
106 1 10.5992 -7.46246 -9.59493 21
107 1 -1.54294 1.62509 -4.90534 10
108 1 8.60794 1.11747 -4.58439 21
109 1 13.5078 -2.1618 -9.9447 11
110 1 3.45645 -3.88603 -12.5339 18
111 1 -4.71878 -4.05971 0.0638115 11
112 1 7.15299 -9.17015 3.41585 20
113 1 -1.74197 -6.51461 -11.2042 14
114 1 14.3321 -9.51644 -1.88926 15
115 1 9.60994 -3.51529 4.86904 15
116 1 5.79323 -15.2222 3.63668 10
117 1 12.734 -2.94726 0.748474 15
118 1 12.0114 0.518375 0.871624 12
119 1 4.70757 -15.8938 -9.19578 10
120 1 10.1505 0.20926 3.8269 10
121 1 3.88656 -2.01225 -9.86322 25
122 1 3.5844 -15.2601 -6.57453 17
123 1 11.8161 -0.728001 -1.48334 16
124 1 -1.71494 -0.16217 -2.65856 14
125 1 12.0851 -1.77943 -7.29943 18
126 1 5.71149 -3.848 5.29036 18
127 1 4.06573 -6.74117 -11.8052 20
128 1 12.5863 -12.3772 -6.01364 22
129 1 7.63127 3.85299 0.104743 10
130 1 0.968416 3.22839 3.67424 7
131 1 11.8594 -10.2473 -10.6445 16
132 1 10.051 -10.9679 4.16622 14
133 1 -1.24488 -4.42858 6.2116 10
134 1 13.0584 -7.6123 4.07409 14
135 1 7.13952 2.27402 -7.38757 18
136 1 11.8203 0.756599 -8.99499 14
137 1 2.47231 -10.0977 6.21465 13
138 1 4.18118 -9.35226 3.17911 19
139 1 0.318014 2.72919 -1.85245 12
140 1 11.293 3.16531 -0.323644 11
141 1 -1.43976 -11.6679 -0.795875 18
142 1 15.4066 -6.44255 -1.3524 12
143 1 -0.134311 -14.6473 -6.01085 11
144 1 10.0189 -1.68457 1.22122 20
145 1 15.546 -6.88253 -7.24494 10
146 1 7.07391 2.11502 -2.40755 16
147 1 -0.872386 -9.45497 -9.30917 16
148 1 8.37171 0.606542 -10.1336 19
149 1 -0.0850589 -6.54884 -8.31902 22
150 1 9.8095 -9.91623 -12.5918 14
151 1 5.43617 -17.8845 -5.97391 10
152 1 2.75792 -15.0809 3.22406 9
153 1 15.11 -9.94259 -5.08574 13
154 1 -4.35628 -7.26376 -1.9579 10
155 1 2.10017 -1.23964 -12.6993 13
156 1 -1.08906 -12.1865 -7.27796 13
157 1 14.4193 -5.41764 1.33427 10
158 1 6.74402 -8.73158 -13.7487 14
159 1 -0.791805 1.54584 1.29893 11
160 1 -0.422721 -8.93964 4.32057 17
161 1 11.3746 1.75085 -2.65468 17
162 1 15.9461 -4.36731 -4.51598 10
163 1 1.65876 -11.8435 3.62359 18
164 1 10.3547 -2.13111 -9.79332 24
165 1 10.7808 1.6879 -11.7968 9
166 1 9.01608 1.32355 0.818589 18
167 1 9.96629 2.30718 -8.05828 14
168 1 13.8316 -4.58713 -7.39853 15
169 1 13.7539 -7.65453 -9.54722 14
170 1 5.0691 1.33468 1.0975 18
171 1 2.37167 1.12859 -4.38777 20
172 1 3.62235 -12.3747 1.33109 21
173 1 13.96 -12.4088 -2.74299 15
174 1 -0.723205 -10.7939 -4.25 21
175 1 0.25865 1.78804 -7.91171 12
176 2 -2.6489 -7.37892 2.49651 17
177 2 12.553 -1.16286 0.188128 13
178 2 -4.31135 -5.61069 -0.91851 12
179 2 4.57978 -15.1691 2.18682 12
180 2 5.78569 -6.10368 5.87619 11
181 2 0.857465 -1.66808 3.20688 18
182 2 13.8433 -14.2074 -5.3732 10
183 2 -0.107385 -6.87011 -12.1296 13
184 2 8.86024 -14.0502 -10.1978 14
185 2 2.76101 3.20934 4.60622 6
186 2 13.7382 -9.99816 1.22078 14
187 2 11.0653 3.72537 -2.07693 10
188 2 5.11999 1.0713 2.83388 17
189 2 11.8786 2.72358 -4.37483 13
190 2 8.87756 -1.30693 -10.8413 22
191 2 12.1914 -6.68781 -10.779 15
192 2 -2.67521 -4.74988 -7.8882 14
193 2 4.25009 -14.3462 4.47796 11
194 2 -0.777449 -6.11859 0.136923 19
195 2 13.3201 -13.361 -7.90593 10
196 2 8.54091 -16.2383 -2.67002 16
197 2 7.06454 -1.80418 2.85568 24
198 2 7.55804 -9.93847 5.37304 13
199 2 1.18376 -13.9784 -1.0837 13
200 2 10.5643 -15.9329 -0.885466 12
201 2 -1.62538 -13.3509 -2.52606 12
202 2 2.91595 -16.1407 -3.0887 12
203 2 1.63746 -15.4354 -6.05304 14
204 2 0.338965 1.86725 -0.177291 15
205 2 10.4084 -4.42763 -9.93201 22
206 2 12.9708 -0.635051 -5.77426 14
207 2 7.00112 -1.70936 -13.263 15
208 2 14.2447 -4.61581 -0.473049 15
209 2 9.17727 4.56155 -3.90142 12
210 2 2.34674 -0.420903 0.281995 21
211 2 7.15653 2.09465 -5.3502 18
212 2 10.2125 1.73459 -9.99737 12
213 2 3.87073 -1.92718 2.90173 24
214 2 5.69279 -10.5905 2.87602 19
215 2 8.77055 -11.2914 -11.5498 16
216 2 6.66981 -13.8419 -7.62544 21
217 2 5.48065 -12.0481 -10.4785 17
218 2 -1.61473 -13.1304 -5.85592 12
219 2 15.2696 -8.0766 -5.65119 14
220 2 9.62202 3.1148 0.316649 14
221 2 5.30974 -7.21102 -14.3911 13
222 2 7.85436 -5.21685 -13.2397 14
223 2 3.15568 -14.9401 -8.69282 13
224 2 11.2114 -12.0688 -10.3209 17
225 2 12.5104 -2.89305 -11.3764 12
226 2 -0.562028 -11.9626 0.876919 16
227 2 8.36404 -8.51308 -12.7538 15
228 2 5.41019 -14.6096 -10.4036 11
229 2 2.83554 -5.47653 -13.0881 15
230 2 2.0456 1.7938 2.73387 17
231 2 -0.136913 -15.3783 -3.95238 10
232 2 -1.018 1.53994 -2.9768 12
233 2 -2.89717 -10.2223 2.08715 12
234 2 -2.80307 -8.06478 -6.71542 13
235 2 9.06726 -11.7429 1.10035 18
236 2 15.1639 -5.36752 -5.89141 14
237 2 8.86253 -0.60952 0.0389304 20
238 2 1.0641 -8.63696 5.62891 14
239 2 -2.89809 -3.19306 0.482504 15
240 2 -1.45652 -7.42721 -9.36352 16
241 2 11.6193 1.81634 -7.30292 12
242 2 -3.64324 -8.45733 -3.57058 12
243 2 4.19429 1.1253 -10.3468 14
244 2 11.4199 -9.12943 -12.1283 13
245 2 -2.41857 -1.81435 -1.84866 16
246 2 11.6696 -11.3249 -7.26368 20
247 2 8.08489 -15.1527 -5.35169 23
248 2 -0.452044 1.58112 3.11199 10
249 2 11.1308 -15.6386 -4.62168 15
250 2 8.341 0.768769 4.07977 11
251 2 3.86242 1.75391 -5.51737 15
252 2 0.102043 -10.589 3.45338 15
253 2 3.92613 -1.01365 -13.4254 12
254 2 13.913 -6.54681 -8.11446 14
255 2 5.72467 -4.44059 3.12399 20
256 2 12.4782 -0.0923423 -3.12409 13
257 2 10.478 0.0713582 1.8793 15
258 2 -2.6864 -11.1226 -4.76973 14
259 2 5.93879 -1.75901 5.68029 14
260 2 11.8686 -7.92548 5.5974 14
261 2 5.28148 -3.77172 -13.3926 14
262 2 2.9612 -2.80523 5.82894 14
263 2 11.6886 -11.3718 3.25472 13
264 2 -2.87516 -3.69444 -4.52298 11
265 2 0.741838 -1.74489 -7.72242 23
266 2 -1.13245 -1.94129 -10.4872 13
267 2 2.92877 -10.919 2.48927 21
268 2 7.40619 3.97424 -1.70383 10
269 2 2.2421 -12.6853 -10.0509 12
270 2 15.5759 -5.5503 -3.05787 12
271 2 -0.549901 2.54926 -6.45132 8
272 2 14.9786 -10.6881 -3.33426 12
273 2 1.97836 -11.7596 0.0860582 19
274 2 0.40062 -13.2603 -7.43253 14
275 2 5.47434 1.47363 -8.01426 18
276 2 -1.14443 -0.56445 1.12702 16
277 2 5.19105 -11.8927 5.45707 15
278 2 -4.70174 -4.21527 1.99047 9
279 2 3.91266 -0.186685 5.20757 12
280 2 -0.835961 -0.154052 -5.07354 16
281 2 8.83401 3.40669 -7.28994 10
282 2 0.247855 -3.68648 5.60438 14
283 2 4.21604 -9.17014 5.65746 17
284 2 2.98514 -8.04227 -12.8752 15
285 2 5.50195 -1.60438 -10.9545 23
286 2 3.63414 -13.3022 -6.19246 16
287 2 11.0709 -6.79936 2.88076 17
288 2 12.245 -4.57919 -2.7497 21
289 2 9.95564 -14.265 1.84522 11
290 2 11.9137 -4.47597 -6.56151 18
291 2 7.85103 -4.20068 5.23867 17
292 2 2.6248 -6.10882 5.80574 16
293 2 0.592924 -9.17075 -10.3469 17
294 2 5.41693 1.33183 -2.66833 19
295 2 -2.63172 -5.17417 4.92759 11
296 2 -3.39921 -10.7732 -1.21264 12
297 2 5.91295 -17.255 -4.13422 12
298 2 9.02244 -6.99886 5.29814 18
299 2 2.2203 -1.02517 -10.7335 17
300 2 11.2215 0.0700892 -12.5483 11
301 2 8.74879 -16.6762 -8.13149 12
302 2 13.5332 -9.49614 4.61768 10
303 2 9.6996 -1.57859 4.57405 12
304 2 6.79452 1.18782 -10.9577 13
305 2 5.6339 -10.1067 -12.8111 13
306 2 3.61746 2.23597 -0.161461 15
307 2 1.95084 0.78911 -8.15834 18
308 2 -2.47725 -1.90586 -7.71018 13
309 2 -1.27368 -4.23786 2.81219 19
310 2 9.85762 -2.63673 -13.2348 13
311 2 10.7338 -9.36682 -9.26752 21
312 2 -1.07429 0.54594 -8.53895 12
313 2 1.12394 -2.94416 -12.5813 13
314 2 10.5848 -10.3508 6.01436 10
315 2 -0.726717 -6.17466 6.61812 12
316 2 -2.40135 -8.2214 4.77796 12
317 2 7.0647 -13.7916 3.25292 13
318 2 -4.35366 -8.01263 -0.151479 11
319 2 2.10559 -11.8999 5.58611 10
320 2 7.56264 -15.1387 0.62746 16
321 2 11.4541 -4.70185 5.21059 12
322 2 10.1016 -13.9875 -7.46872 18
323 2 1.96842 1.38013 -2.45518 17
324 2 -1.45875 -4.76494 -11.4294 12
325 2 0.439799 -7.26007 3.25541 19
326 2 8.99671 -9.40629 3.29003 19
327 2 10.2717 -6.11482 -12.9129 13
328 2 11.7214 1.29657 -0.810268 16
329 2 15.3289 -7.83574 -0.10343 9
330 2 13.6362 -9.53157 -8.78109 17
331 2 11.8382 -12.516 0.0337717 16
332 2 12.1106 -0.946536 -9.29651 15
333 2 -0.922597 -10.1244 -7.54115 18
334 2 -0.847681 -10.5051 -2.21947 17
335 2 10.1778 -13.4967 -2.41775 18
336 2 8.53673 0.92036 -8.19618 20
337 2 14.4306 -2.84173 -3.82054 10
338 2 10.2064 -1.90835 -7.75539 22
339 2 14.4243 -10.9754 -6.56673 12
340 2 12.9869 -14.0578 -2.6812 13
341 2 7.27963 -18.3552 -6.22318 8
342 2 8.77039 1.20173 -2.59334 26
343 2 7.03838 2.16186 1.13244 13
344 2 4.96756 -15.5893 -1.17497 13
345 2 2.10079 -13.5126 2.2939 14
346 2 13.0954 -4.16968 2.08318 11
347 2 13.8725 -3.23739 -8.47646 13
348 2 0.105117 -4.69451 -8.90354 20
349 2 5.08449 -16.481 -7.22319 16
350 2 12.5976 -11.8034 -4.12427 18
351 1 1.84083 -12.4493 -6.37916 22
352 1 0.557376 -9.08866 -6.79689 22
353 1 2.7842 -7.92665 -8.92239 22
354 1 5.11622 -10.4505 -9.44188 21
355 1 5.34387 -12.6721 -6.8162 20
356 1 4.11778 -9.45474 -6.81791 24
357 2 2.29997 -11.8801 -4.44968 17
358 2 0.384901 -9.30646 -4.87556 20
359 2 1.38004 -7.53828 -7.40815 19
360 2 1.925 -10.4461 -7.81011 22
361 2 3.56571 -9.65213 -10.336 20
362 2 6.08669 -12.2822 -4.79948 20
363 2 4.13263 -9.34762 -4.8174 22
364 2 3.99856 -7.28281 -7.48128 23
365 2 5.05135 -10.965 -7.50754 20
366 1 0.456095 -7.22725 -4.47284 19
367 1 2.15992 -10.0204 -4.33574 20
368 1 2.23221 -11.8388 -2.08057 20
369 1 0.415311 -8.99899 -1.73754 18
370 1 0.495089 -7.29004 0.981671 18
371 1 1.65378 -10.1225 1.20554 21
372 1 3.88254 -13.179 -4.27879 17
373 1 4.02486 -7.27294 -4.32168 22
374 1 5.68512 -10.4699 -4.12116 22
375 1 5.57579 -12.5212 -1.63072 19
376 1 4.03491 -9.26654 -1.33571 24
377 1 3.78497 -7.12935 0.440148 19
378 1 5.64935 -10.3394 0.881259 18
379 2 1.05537 -8.77877 0.00944167 20
380 2 0.680453 -7.0272 -2.62878 20
381 2 2.16556 -9.80084 -2.29328 20
382 2 3.74496 -13.1348 -2.33308 19
383 2 5.50908 -12.239 0.504392 21
384 2 4.18644 -8.96934 0.736064 21
385 2 4.0361 -7.17404 -2.095 22
386 2 5.39941 -10.2988 -2.094 20
387 2 3.84873 -7.3472 3.52519 20
388 1 1.919 -4.88102 -9.77267 25
389 1 2.52027 -6.20715 -6.6107 22
390 1 0.510647 -3.68385 -6.95591 23
391 1 2.38951 -0.875924 -6.97217 23
392 1 5.2923 -4.97422 -9.44353 23
393 1 5.49578 -6.49698 -6.72335 25
394 1 3.88383 -3.50192 -6.93382 26
395 1 5.45211 -0.485425 -7.39727 24
396 2 -1.42773 -6.32179 -4.77329 19
397 2 2.18522 -6.61847 -10.5388 23
398 2 2.20534 -6.28743 -4.75843 24
399 2 0.427344 -3.55147 -4.97214 23
400 2 2.32053 -4.31923 -7.54252 23
401 2 2.32696 -0.796454 -5.1162 22
402 2 5.37201 -6.97727 -10.4491 23
403 2 3.7039 -4.09686 -10.3446 20
404 2 5.63864 -6.1675 -4.74889 22
405 2 3.82982 -3.52614 -4.97689 23
406 2 3.88649 -1.49471 -7.93055 23
407 2 5.31782 -4.50645 -7.59035 21
408 2 5.73005 -0.69595 -5.18014 25
409 1 -1.22214 -4.53691 -4.35226 18
410 1 -0.704564 -6.09238 -1.68698 19
411 1 0.264583 -1.61983 -4.36524 22
412 1 2.07813 -4.24348 -4.13953 21
413 1 2.328 -6.34296 -1.70615 22
414 1 -0.0655987 -3.04849 -1.65066 21
415 1 1.83084 -4.42211 0.587062 22
416 1 1.98397 -0.594095 -1.59948 23
417 1 3.84729 -1.66576 -4.41191 24
418 1 5.4212 -4.21286 -4.17275 23
419 1 5.60469 -6.21407 -1.62945 21
420 1 3.72794 -3.46167 -1.70004 24
421 1 3.7261 -1.32037 1.10107 23
422 1 5.67442 -4.19327 0.829799 22
423 1 5.62418 -6.27516 3.74198 21
424 1 5.38675 -0.374594 -1.63059 23
425 2 -1.36736 -4.3097 -2.34054 19
426 2 2.29618 -6.11911 0.12719 24
427 2 0.44322 -3.11908 0.265853 23
428 2 0.188314 -1.18172 -2.30374 21
429 2 1.8109 -4.0497 -2.15958 22
430 2 5.65768 -6.20307 0.303329 24
431 2 3.65473 -3.71122 0.418751 21
432 2 3.76305 -1.5928 -2.39091 21
433 2 5.52388 -4.08826 -2.02571 22
434 2 1.84092 -4.70509 2.97981 21
435 2 5.40136 -0.551842 0.38949 22
436 1 7.03724 -7.81339 -9.54833 19
437 1 8.88674 -12.3979 -6.691 23
438 1 7.38034 -9.65958 -6.93824 21
439 1 10.6463 -9.69704 -7.24103 21
440 2 6.95904 -9.79774 -9.53896 18
441 2 9.18319 -12.2351 -4.59219 24
442 2 7.21385 -9.25452 -5.00564 23
443 2 7.09333 -7.75229 -7.37011 22
444 2 8.86868 -10.7335 -7.65739 20
445 2 10.8177 -9.2621 -5.27202 23
446 2 10.6203 -7.22931 -7.60506 21
447 1 7.53554 -13.4924 -4.38553 20
448 1 7.17031 -7.34859 -4.26914 21
449 1 9.07869 -10.0305 -4.52398 20
450 1 8.94478 -12.5553 -1.24476 24
451 1 7.06251 -9.24401 -1.7738 20
452 1 7.21103 -7.30716 0.983857 20
453 1 9.35565 -9.78616 1.32654 22
454 1 10.2918 -7.66137 -4.30448 21
455 1 12.1988 -10.0009 -3.97667 23
456 1 10.606 -9.00921 -1.7893 21
457 1 10.8074 -7.41548 0.834413 19
458 2 7.20756 -13.4928 -2.04818 18
459 2 7.33412 -9.33233 0.485232 23
460 2 7.2574 -7.21926 -2.27502 23
461 2 8.88358 -9.68077 -2.64266 20
462 2 6.9786 -7.11924 2.92651 22
463 2 10.6854 -9.10448 0.0744717 17
464 2 10.6625 -7.11439 -2.17861 20
465 2 12.497 -9.99356 -1.93614 17
466 1 8.55649 -4.82477 -9.50799 23
467 1 8.82624 -6.73276 -7.02558 22
468 1 7.04857 -3.56521 -7.12293 23
469 1 8.61124 -0.735251 -7.09914 24
470 1 12.4062 -6.74412 -6.77926 19
471 1 10.2413 -3.82805 -6.90043 20
472 2 8.48507 -6.70848 -10.1751 19
473 2 6.90591 -3.84697 -10.0091 21
474 2 8.90256 -6.38048 -4.85441 23
475 2 7.07558 -3.36284 -5.17389 24
476 2 7.00689 -1.61882 -7.74944 23
477 2 8.56988 -4.57206 -7.56462 22
478 2 9.24086 -0.428017 -5.41096 23
479 2 12.0452 -6.73277 -4.55415 18
480 2 10.1531 -3.17655 -4.87685 19
481 1 7.39427 -1.64988 -4.52894 23
482 1 8.68081 -4.56785 -4.37382 25
483 1 8.87572 -6.49054 -1.5748 22
484 1 7.29115 -3.44618 -1.59891 23
485 1 7.19545 -1.25129 0.803058 22
486 1 9.24108 -4.57042 1.03893 21
487 1 8.6881 -0.606247 -1.8732 23
488 1 10.3969 -1.43637 -4.27734 24
489 1 11.7588 -4.62382 -4.7734 20
490 1 12.3355 -6.58939 -2.53965 19
491 1 10.7584 -3.56568 -1.95825 20
492 2 9.04775 -6.47824 0.752312 21
493 2 7.46823 -3.19557 0.419045 19
494 2 7.06633 -1.58035 -2.44626 25
495 2 8.80913 -4.40608 -2.25132 24
496 2 9.63484 -4.22119 2.91136 21
497 2 14.0636 -6.92215 2.46988 12
498 2 10.6502 -3.39203 0.107409 20
499 2 10.1889 -1.61726 -2.2227 21
500 2 14.0516 -7.67174 -2.50369 17
