ITEM: TIMESTEP
58000
ITEM: NUMBER OF ATOMS
500
ITEM: BOX BOUNDS pp pp pp
-30.0 30.0
-30.0 30.0
-30.0 30.0
ITEM: ATOMS id type x y z Coordination
1 1 18.9103 -18.7554 0.790787 9
2 1 11.2268 -8.05265 2.05333 13
3 1 5.87733 -11.394 -3.0346 21
4 1 10.7701 -14.5969 -17.2387 16
5 1 3.51301 -14.0362 -8.89464 14
6 1 13.8479 -13.1179 -18.4288 15
7 1 17.21 -21.5883 -12.8623 18
8 1 14.5204 -10.653 -1.65988 24
9 1 14.2994 -9.18529 -13.7227 22
10 1 14.0078 -8.2496 2.13297 12
11 1 4.85635 -16.701 -6.70614 16
12 1 20.8308 -16.3938 -12.4786 12
13 1 15.7133 -13.0456 -0.192806 21
14 1 5.4324 -19.5984 -5.52055 13
15 1 14.0902 -21.0214 -12.8583 21
16 1 20.2268 -11.0954 -14.3203 16
17 1 21.5692 -18.6862 -0.917322 9
18 1 9.64982 -5.82926 -3.21871 19
19 1 11.0342 -5.52239 -6.10725 15
20 1 14.007 -18.9994 -16.1265 16
21 1 10.9827 -10.6454 -0.603509 22
22 1 19.7514 -16.075 -3.7603 19
23 1 6.78548 -7.05381 -0.465083 11
24 1 15.8358 -8.03267 -17.6772 9
25 1 19.8926 -6.13533 -9.4491 13
26 1 12.5651 -6.03551 -14.148 14
27 1 7.70298 -9.4865 -13.8853 21
28 1 10.3559 -5.33209 -11.6426 15
29 1 12.6666 -5.62006 -8.84675 21
30 1 4.087 -11.133 -5.97733 16
31 1 12.7461 -7.71073 -0.696415 20
32 1 8.85648 -12.7517 -15.883 16
33 1 8.32272 -20.5883 -2.87547 19
34 1 17.2368 -20.891 -8.16256 17
35 1 4.31321 -13.991 -3.73315 16
36 1 3.59974 -14.5188 -12.2765 11
37 1 13.1876 -23.0673 -3.55407 15
38 1 17.0828 -11.8253 -17.8721 11
39 1 8.69049 -21.7602 -12.534 11
40 1 12.5959 -9.55159 -18.2986 10
41 1 14.882 -2.91998 -8.8812 11
42 1 3.82042 -11.5546 0.0357073 10
43 1 14.6267 -5.21116 -0.179639 11
44 1 17.6021 -15.8307 -0.912277 21
45 1 17.7162 -24.4124 -10.6137 14
46 1 18.3033 -6.4592 -15.8654 11
47 1 10.4518 -22.379 -4.86068 17
48 1 16.7851 -15.9318 1.94832 11
49 1 12.6045 -18.6728 -0.365401 23
50 1 17.4455 -4.3142 -7.2745 16
51 1 7.34341 -21.9178 -6.11553 13
52 1 14.6927 -25.0805 -4.98017 10
53 1 8.93402 -13.3314 -0.0230744 24
54 1 4.58518 -14.6226 2.08685 8
55 1 17.562 -24.7721 -6.8303 10
56 1 5.70436 -16.7355 -3.47843 17
57 1 9.42492 -8.35665 -0.31521 19
58 1 4.30632 -8.83416 -4.20378 11
59 1 7.21443 -10.6097 -0.354644 17
60 1 9.2159 -18.4445 -13.2981 16
61 1 5.29028 -11.2667 -12.9214 16
62 1 11.6346 -17.4064 -15.9014 17
63 1 18.602 -13.3352 0.0576583 13
64 1 13.134 -16.8563 2.12416 12
65 1 8.32513 -15.9282 -15.7141 14
66 1 4.8205 -17.0314 -10.285 16
67 1 12.3221 -23.951 -6.66967 16
68 1 7.37612 -8.57351 -3.14488 20
69 1 14.5599 -23.4638 -15.0472 9
70 1 9.59708 -5.25633 0.32005 9
71 1 3.6567 -11.1277 -10.5542 10
72 1 4.61137 -8.37329 -13.2411 9
73 1 14.457 -24.9489 -12.0153 13
74 1 17.7603 -19.8315 -2.57546 17
75 1 6.10039 -8.85231 -10.9491 18
76 1 7.85036 -14.3815 2.89081 12
77 1 5.80988 -14.1193 -0.817883 20
78 1 16.5362 -20.9122 -15.8353 12
79 1 11.6581 -20.0965 1.91648 10
80 1 18.4998 -18.8559 -13.0772 14
81 1 22.2279 -12.9368 -5.53316 13
82 1 13.2809 -14.5375 -15.7437 21
83 1 16.1829 -22.7131 -2.23525 10
84 1 9.51207 -23.4239 -8.00631 14
85 1 6.39494 -19.2172 -0.86282 12
86 1 18.2499 -10.7741 -1.25466 16
87 1 21.6429 -9.15686 -8.8964 14
88 1 14.5982 -10.4572 -16.3694 19
89 1 11.963 -7.89509 -16.1394 15
90 1 15.8774 -2.75598 -5.20263 11
91 1 19.2936 -13.6975 -16.0336 11
92 1 17.5939 -21.8784 -5.19218 16
93 1 21.2637 -18.7493 -3.96969 11
94 1 14.4122 -19.8461 -2.80754 22
95 1 5.97102 -11.0772 -15.8598 10
96 1 21.2209 -14.7579 -8.55724 16
97 1 9.50023 -6.79075 -14.626 15
98 1 17.1729 -24.1358 -14.004 9
99 1 4.33035 -16.5588 -0.974177 12
100 1 14.9424 -24.5336 -8.32935 16
101 1 15.7136 -18.6786 -13.4136 22
102 1 19.3507 -23.098 -8.11446 10
103 1 14.6641 -22.7006 -10.3867 21
104 1 11.0209 -13.7747 2.30654 13
105 1 8.92726 -11.0243 1.97094 14
106 1 17.8022 -15.8412 -13.606 17
107 1 6.17335 -5.8276 -8.8749 10
108 1 15.8731 -5.94756 -9.14218 23
109 1 20.9766 -8.33566 -14.3505 11
110 1 11.6804 -11.6441 -16.4232 21
111 1 2.63738 -11.0823 -3.26908 10
112 1 14.4403 -15.9563 -0.350744 21
113 1 5.65586 -14.219 -14.5614 15
114 1 20.9478 -16.269 -6.26785 18
115 1 16.6453 -10.313 0.567473 13
116 1 14.0085 -21.4153 -0.147353 12
117 1 19.7488 -11.0107 -4.29569 18
118 1 20.2927 -7.50693 -3.51154 12
119 1 11.8298 -22.9639 -12.7086 14
120 1 15.4964 -7.98621 -0.547485 18
121 1 11.1344 -9.15886 -13.777 23
122 1 9.52945 -24.3934 -11.1809 9
123 1 21.8825 -9.88896 -6.02368 12
124 1 5.9347 -8.59472 -7.10592 17
125 1 20.0919 -8.38406 -11.6808 20
126 1 13.2792 -11.1266 1.7951 14
127 1 11.2012 -12.2706 -13.7639 19
128 1 19.7566 -20.6757 -10.6854 11
129 1 15.7958 -5.0863 -2.9619 16
130 1 7.44287 -4.06609 -2.13613 9
131 1 16.4312 -17.5116 -16.2785 14
132 1 16.0737 -18.7292 -0.339499 16
133 1 5.85082 -12.164 1.9251 12
134 1 20.8686 -16.0078 -0.411087 12
135 1 13.9566 -5.26565 -11.6897 16
136 1 19.405 -5.4007 -12.8482 12
137 1 9.96008 -17.0318 2.45964 14
138 1 11.1511 -16.0255 -0.472237 23
139 1 7.77484 -5.46501 -5.78399 15
140 1 18.7883 -4.46017 -4.62233 12
141 1 4.98957 -21.0625 -3.1118 7
142 1 22.591 -16.2287 -3.23784 9
143 1 6.85643 -22.1206 -9.85801 11
144 1 17.3446 -8.60068 -2.98724 19
145 1 22.892 -14.2875 -11.0514 13
146 1 14.4668 -5.03291 -6.2476 19
147 1 6.63658 -16.6906 -13.2606 16
148 1 16.4075 -6.18022 -12.7769 15
149 1 6.10873 -14.5869 -11.0059 22
150 1 16.3855 -14.7481 -15.9635 17
151 1 12.0854 -24.7979 -9.78787 13
152 1 10.9635 -21.7539 -1.08065 13
153 1 21.7339 -17.6724 -9.82841 10
154 1 2.8801 -14.4281 -5.603 9
155 1 9.36575 -9.73432 -16.2067 14
156 1 6.89001 -19.4583 -11.8015 14
157 1 20.7277 -13.4124 -2.64565 15
158 1 13.7581 -16.2986 -17.9685 13
159 1 6.04954 -6.16021 -3.3067 12
160 1 8.24852 -16.2951 -0.254053 21
161 1 19.7643 -7.71098 -6.08274 17
162 1 22.7996 -11.9552 -8.51835 14
163 1 9.33548 -18.972 -0.286717 18
164 1 17.6695 -8.75602 -13.9703 22
165 1 15.0712 -6.6704 -15.2637 16
166 1 18.0573 -5.75925 -1.64647 10
167 1 18.241 -3.46694 -9.94647 9
168 1 21.9215 -11.0071 -11.647 17
169 1 22.2036 -13.4704 -13.9227 10
170 1 12.9127 -5.4801 -3.51631 15
171 1 9.02637 -6.11255 -8.91912 18
172 1 11.243 -20.0809 -3.27247 20
173 1 18.5993 -18.8613 -5.57115 20
174 1 6.65454 -18.9939 -8.41167 19
175 1 7.40194 -6.12979 -11.7679 14
176 2 4.62074 -15.1225 -2.28893 15
177 2 20.8915 -9.18584 -4.49245 13
178 2 3.19125 -12.6648 -4.8381 14
179 2 11.5207 -22.4412 -2.95321 14
180 2 12.1339 -12.5808 1.1869 17
181 2 7.51111 -8.81167 -1.06588 18
182 2 18.4382 -24.5971 -8.71599 11
183 2 7.54036 -14.1886 -15.0891 17
184 2 16.2927 -22.6436 -14.9849 12
185 2 9.08043 -4.82303 -1.49634 12
186 2 22.3364 -17.9931 -2.53549 9
187 2 17.7511 -3.14618 -5.45275 12
188 2 14.0476 -5.21166 -2.04504 13
189 2 19.1845 -4.42826 -8.38934 10
190 2 15.8479 -7.88486 -14.1751 21
191 2 20.9461 -12.7705 -15.026 12
192 2 3.8294 -12.643 -11.7047 14
193 2 12.1858 -20.9982 0.210928 14
194 2 6.17974 -13.2904 -3.62254 21
195 2 18.7794 -20.5322 -12.2407 12
196 2 15.7142 -22.6356 -8.32003 21
197 2 14.1037 -8.69448 -1.64011 23
198 2 14.6903 -16.1266 1.64125 14
199 2 8.59854 -21.5265 -4.88032 17
200 2 15.5652 -24.0458 -3.53164 9
201 2 5.47288 -21.6651 -4.98076 8
202 2 10.9653 -22.738 -6.95143 15
203 2 10.3531 -24.2063 -9.3215 12
204 2 7.47584 -4.87453 -3.98417 11
205 2 18.293 -10.6752 -14.1772 17
206 2 19.923 -8.27833 -9.68915 17
207 2 13.9327 -8.45379 -17.2318 14
208 2 21.4371 -12.1434 -3.96892 12
209 2 14.7007 -3.0128 -6.79824 12
210 2 9.31528 -7.67129 -3.82854 21
211 2 14.1238 -4.74726 -9.81939 15
212 2 17.953 -5.43222 -14.0243 12
213 2 11.1766 -8.62618 -1.19181 20
214 2 12.5919 -16.8258 -1.21759 21
215 2 15.7862 -19.2559 -16.4321 11
216 2 15.4697 -21.3718 -11.7602 23
217 2 14.0526 -19.5318 -14.2757 20
218 2 7.29535 -20.2953 -10.1321 15
219 2 21.6919 -16.0047 -10.7284 13
220 2 17.7343 -4.50734 -2.94766 11
221 2 12.788 -14.5278 -17.6817 15
222 2 15.6293 -12.8537 -18.5653 10
223 2 10.1814 -22.9013 -12.2266 11
224 2 17.0922 -19.8289 -14.1062 16
225 2 19.153 -8.23595 -15.0793 13
226 2 6.53707 -20.41 -2.30302 12
227 2 15.5541 -16.0932 -17.0562 15
228 2 13.0423 -22.7 -14.3327 11
229 2 10.3455 -12.8962 -17.1632 17
230 2 6.49206 -5.54348 -1.6795 11
231 2 7.6207 -22.4627 -8.17998 12
232 2 6.73944 -5.7259 -7.23729 11
233 2 5.65304 -17.875 -1.77146 14
234 2 4.03709 -15.3441 -10.3324 12
235 2 15.982 -18.924 -3.61199 22
236 2 22.7253 -13.5257 -9.30484 14
237 2 16.4591 -8.55581 -4.69297 19
238 2 8.64549 -15.7241 1.80536 16
239 2 4.54379 -10.5794 -4.05588 17
240 2 5.24543 -15.3219 -13.0485 14
241 2 18.9384 -4.83901 -10.9881 12
242 2 3.10441 -15.2217 -7.28786 12
243 2 11.141 -6.23205 -15.4104 12
244 2 18.2381 -15.1577 -15.394 12
245 2 4.45247 -9.18672 -6.14187 11
246 2 19.1741 -17.1276 -12.5831 17
247 2 16.7417 -19.0811 -8.99397 20
248 2 8.4702 -6.7858 0.455123 12
249 2 15.6979 -25.2358 -6.58123 12
250 2 13.8886 -6.9771 0.586796 12
251 2 10.9167 -5.40105 -9.91735 16
252 2 7.75424 -18.2643 0.0978258 15
253 2 10.8054 -9.18449 -17.484 14
254 2 22.5536 -12.5885 -12.1172 14
255 2 12.695 -11.3708 -1.55173 23
256 2 21.2127 -8.56601 -7.17818 15
257 2 18.7527 -7.23306 -2.61551 15
258 2 5.40342 -17.4133 -8.49171 17
259 2 12.3897 -9.58532 2.43472 13
260 2 19.9969 -14.4334 0.0783568 11
261 2 13.3042 -11.369 -17.6603 15
262 2 10.0876 -9.89291 1.06045 18
263 2 17.9786 -19.2455 -0.770057 14
264 2 4.20389 -12.1842 -8.99436 12
265 2 7.78148 -9.69587 -11.8101 21
266 2 5.72219 -9.48412 -14.4341 12
267 2 9.60874 -17.0783 -1.19621 23
268 2 14.6385 -4.59414 -4.44697 14
269 2 8.29476 -20.0498 -12.8409 15
270 2 22.8324 -11.4601 -6.65656 12
271 2 7.54901 -5.5815 -10.0382 14
272 2 20.7177 -16.7744 -8.24684 14
273 2 9.29642 -19.0711 -3.71869 18
274 2 7.99886 -23.3512 -10.7824 9
275 2 12.2068 -6.36258 -12.171 20
276 2 5.80805 -7.80858 -3.86323 16
277 2 12.9789 -18.7198 1.74521 14
278 2 3.06995 -11.6229 -1.70368 11
279 2 11.3295 -6.50926 1.0365 12
280 2 5.99885 -8.13307 -9.00374 16
281 2 16.653 -3.34284 -8.74978 13
282 2 7.20662 -10.8189 1.56964 14
283 2 11.2857 -15.7756 1.49028 19
284 2 10.0738 -16.0127 -16.4212 14
285 2 12.7281 -8.2431 -14.4221 19
286 2 12.1608 -20.766 -12.1398 19
287 2 17.585 -12.5529 -1.75786 21
288 2 19.1791 -11.5816 -6.14429 22
289 2 17.2195 -21.5748 -3.37767 13
290 2 19.5347 -11.9154 -11.7315 18
291 2 14.794 -11.5006 0.411894 18
292 2 9.26569 -13.2209 2.07021 16
293 2 8.38026 -16.8787 -14.0802 18
294 2 12.7338 -5.81259 -6.95549 19
295 2 4.26868 -13.1314 0.899932 11
296 2 5.65541 -17.6495 -5.42277 13
297 2 13.0496 -24.4876 -8.29655 15
298 2 17.0224 -14.6034 0.323991 15
299 2 9.22219 -8.60845 -14.5342 15
300 2 16.4641 -6.59817 -16.781 10
301 2 15.2291 -24.7597 -13.6918 14
302 2 20.4342 -17.7649 0.284631 9
303 2 15.3296 -9.22995 1.1164 13
304 2 14.5605 -5.72469 -13.5809 16
305 2 12.8692 -17.9046 -17.3756 13
306 2 11.014 -5.17415 -4.16798 15
307 2 9.09977 -6.39962 -12.779 18
308 2 4.33269 -9.72204 -11.7115 12
309 2 5.56864 -11.3357 -0.907241 16
310 2 16.0848 -9.97275 -17.3929 15
311 2 15.9601 -16.9086 -14.4102 22
312 2 5.77413 -7.11353 -12.2624 12
313 2 7.9601 -10.988 -16.0139 15
314 2 17.6985 -17.4505 0.94954 12
315 2 6.12968 -13.7934 2.82587 9
316 2 4.85685 -15.9921 0.625342 12
317 2 14.4835 -19.6446 -0.533564 16
318 2 4.77892 -14.8306 -5.42339 17
319 2 10.1155 -18.7681 1.61842 14
320 2 14.1942 -21.875 -2.07167 15
321 2 18.1171 -11.5377 0.509674 10
322 2 17.7927 -23.3704 -12.2579 13
323 2 9.63415 -6.50661 -6.9666 18
324 2 5.02861 -12.2994 -14.6404 13
325 2 7.62939 -14.7058 -1.16002 22
326 2 15.9124 -16.9685 -1.16467 21
327 2 17.7669 -12.6599 -16.3276 13
328 2 19.698 -6.14146 -4.97833 14
329 2 21.4694 -16.9499 -4.59055 12
330 2 21.774 -15.1437 -13.2603 9
331 2 19.1301 -19.4203 -3.90903 16
332 2 20.5813 -6.87481 -12.9755 12
333 2 6.46678 -17.6373 -11.521 17
334 2 7.18865 -19.6807 -6.54547 17
335 2 17.5969 -20.2902 -6.30469 19
336 2 15.78 -6.34563 -10.9496 21
337 2 21.6499 -10.8892 -9.50842 16
338 2 18.0006 -8.87304 -11.9392 22
339 2 20.3045 -19.06 -10.1184 13
340 2 18.3598 -23.1877 -6.27677 10
341 2 15.4924 -24.4238 -10.2656 13
342 2 16.1925 -5.73824 -7.09495 22
343 2 16.3969 -6.01698 -0.758705 12
344 2 13.0088 -23.9797 -5.0289 14
345 2 9.84225 -20.1545 -1.79804 18
346 2 19.3857 -13.9073 -4.01403 20
347 2 21.0982 -9.70702 -12.7472 17
348 2 7.07613 -12.3982 -12.7172 22
349 2 13.2226 -23.8689 -11.248 17
350 2 18.784 -21.5072 -9.24742 15
351 1 9.15579 -19.3685 -10.1064 18
352 1 8.11826 -16.8433 -10.4913 23
353 1 11.0513 -15.6226 -13.9413 22
354 1 12.2376 -18.7978 -13.0121 17
355 1 12.4598 -20.5819 -9.99845 16
356 1 11.3453 -16.6643 -10.7596 23
357 2 10.6924 -19.707 -8.86908 19
358 2 8.31688 -18.0041 -8.85339 19
359 2 7.89622 -15.1013 -11.4843 22
360 2 9.75897 -17.6052 -11.0221 21
361 2 10.8112 -18.2638 -14.2547 16
362 2 13.2042 -21.2026 -8.32574 18
363 2 11.5317 -16.2727 -8.88883 22
364 2 11.4029 -15.0431 -11.8542 21
365 2 13.0994 -17.2749 -12.3693 22
366 1 7.81231 -14.4965 -8.35203 20
367 1 10.1487 -17.8573 -8.09046 19
368 1 8.93087 -19.0178 -5.61246 22
369 1 7.74834 -16.7427 -5.87066 22
370 1 7.86489 -14.382 -3.31519 24
371 1 9.38801 -17.2228 -3.10865 23
372 1 11.3026 -20.9329 -7.32205 18
373 1 11.3473 -14.4739 -8.4833 23
374 1 13.2917 -17.785 -8.43659 23
375 1 12.6536 -19.1445 -5.41296 22
376 1 11.2853 -16.066 -6.03367 21
377 1 10.8456 -14.409 -3.1259 24
378 1 12.7622 -16.7946 -3.24151 23
379 2 7.65577 -16.2856 -3.90663 22
380 2 7.66267 -14.6009 -6.2684 20
381 2 9.57626 -17.3129 -6.32953 21
382 2 11.2443 -20.5229 -5.42039 22
383 2 12.6671 -18.9907 -3.17808 21
384 2 11.1098 -16.1524 -4.17535 25
385 2 11.1061 -14.2219 -6.5712 21
386 2 12.9371 -17.4719 -6.51731 23
387 2 10.7168 -14.2651 -1.07206 24
388 1 8.34991 -13.7858 -13.234 20
389 1 9.72548 -14.1522 -11.2774 22
390 1 8.21982 -11.228 -11.1525 21
391 1 9.15637 -8.26474 -11.5329 23
392 1 14.1855 -12.5445 -13.5705 18
393 1 12.8924 -13.9209 -11.144 23
394 1 11.2824 -11.0628 -11.2463 22
395 1 12.263 -7.81491 -11.1304 22
396 2 6.33027 -13.6259 -9.35184 21
397 2 10.0965 -13.7391 -14.1793 21
398 2 9.40605 -13.6838 -8.95103 22
399 2 7.7547 -10.8703 -9.11181 21
400 2 10.0305 -12.3355 -11.6989 20
401 2 9.60559 -7.97475 -9.67308 26
402 2 12.7597 -12.84 -14.9245 19
403 2 10.6555 -10.733 -14.9289 18
404 2 12.9126 -13.2671 -9.29389 24
405 2 11.2122 -10.471 -9.44571 22
406 2 10.8651 -9.12495 -11.7899 23
407 2 13.041 -11.9773 -11.827 20
408 2 12.944 -7.90201 -9.35175 22
409 1 6.0877 -12.026 -8.50924 21
410 1 6.15558 -13.3606 -5.5916 23
411 1 7.99701 -9.02133 -8.69815 23
412 1 9.41801 -11.7935 -8.60481 24
413 1 9.29107 -13.485 -5.93781 23
414 1 7.6462 -10.8008 -5.96024 23
415 1 9.34644 -11.3204 -3.17297 23
416 1 9.23825 -8.2151 -5.86033 24
417 1 11.1196 -8.73931 -8.71549 23
418 1 12.8862 -11.2633 -8.68548 21
419 1 12.8302 -13.5292 -5.70052 23
420 1 11.0574 -10.651 -6.09513 22
421 1 11.2103 -8.78862 -3.15786 22
422 1 12.5433 -11.5488 -3.56419 23
423 1 12.6048 -13.3665 -0.791327 20
424 1 12.7581 -7.79145 -5.97656 23
425 2 6.09085 -11.6412 -6.4698 22
426 2 9.40544 -13.2673 -3.86686 22
427 2 7.54102 -10.4547 -3.73474 21
428 2 7.70358 -9.02249 -6.78407 23
429 2 9.3683 -11.6432 -6.78459 24
430 2 12.6835 -13.5688 -3.60596 21
431 2 10.893 -10.6144 -4.02596 24
432 2 11.0664 -8.66951 -6.40602 21
433 2 12.7017 -11.3648 -6.53958 23
434 2 9.4005 -11.529 -1.13221 24
435 2 12.6972 -7.63193 -4.05164 23
436 1 14.3691 -16.1024 -13.3961 24
437 1 15.8136 -19.7913 -10.4648 22
438 1 14.4864 -17.1101 -10.8857 21
439 1 17.5028 -16.6488 -11.0928 22
440 2 12.571 -16.0471 -14.8217 21
441 2 13.9655 -19.0356 -9.92574 20
442 2 14.5612 -16.3773 -9.01745 23
443 2 14.6312 -14.9051 -11.7352 22
444 2 16.167 -18.0948 -11.5765 23
445 2 17.8459 -16.674 -9.18414 22
446 2 17.9243 -14.8768 -11.7469 18
447 1 14.4084 -21.8485 -7.02326 20
448 1 14.7526 -14.382 -8.73053 22
449 1 16.1777 -17.5198 -8.42371 22
450 1 15.8532 -19.0806 -5.69708 22
451 1 14.3735 -16.3071 -5.864 23
452 1 14.4617 -14.3416 -3.15943 25
453 1 16.0915 -17.0483 -3.29261 24
454 1 18.2812 -14.7085 -8.69541 23
455 1 19.1764 -18.0527 -8.66081 19
456 1 17.646 -15.8864 -5.93696 23
457 1 17.6584 -13.9726 -3.08739 25
458 2 14.2773 -20.2902 -5.9072 19
459 2 14.4613 -16.0148 -3.93202 25
460 2 14.4451 -14.4096 -6.37094 22
461 2 16.3892 -17.2427 -6.2745 22
462 2 14.4245 -14.1568 -1.19268 23
463 2 17.6236 -16.0356 -3.02515 20
464 2 17.5665 -14.3701 -6.68187 21
465 2 19.182 -17.0026 -5.72881 20
466 1 16.7447 -11.8532 -14.7513 17
467 1 16.2495 -13.6977 -11.3198 25
468 1 14.7946 -11.0144 -11.3526 20
469 1 16.2625 -8.27807 -11.1686 21
470 1 19.6024 -13.9234 -11.5051 22
471 1 18.0155 -10.9707 -12.1354 19
472 2 15.2316 -13.9818 -14.5429 17
473 2 14.9979 -11.0216 -14.5918 21
474 2 16.592 -13.829 -9.20939 22
475 2 14.7767 -10.9673 -9.33495 24
476 2 14.2984 -9.19163 -11.8331 23
477 2 16.4733 -11.9715 -12.3938 22
478 2 16.1518 -8.24494 -9.24367 18
479 2 19.6251 -13.4212 -9.26993 21
480 2 18.1467 -10.7655 -8.9803 20
481 1 14.5466 -8.97907 -8.70865 23
482 1 16.3331 -11.7625 -8.64164 23
483 1 16.1011 -13.2838 -5.98295 23
484 1 14.5447 -10.5782 -6.09923 21
485 1 14.3217 -8.59599 -3.66999 21
486 1 16.2531 -11.2681 -3.90793 19
487 1 16.2265 -7.53976 -6.10133 20
488 1 17.9981 -8.68689 -8.84551 21
489 1 19.7553 -11.5956 -9.54112 21
490 1 19.3439 -13.4587 -5.96103 20
491 1 17.7902 -10.2156 -6.84635 21
492 2 16.0812 -13.2497 -3.92091 23
493 2 14.3215 -10.6957 -3.82913 24
494 2 14.6356 -8.63253 -6.50688 21
495 2 16.2087 -11.3196 -6.68094 24
496 2 16.4732 -9.70941 -1.5542 18
497 2 20.9049 -15.4798 -2.36953 17
498 2 17.9865 -10.44 -3.65836 19
499 2 18.1013 -8.16121 -6.92952 19
500 2 21.183 -14.3185 -6.48965 19
