ITEM: TIMESTEP
49000
ITEM: NUMBER OF ATOMS
500
ITEM: BOX BOUNDS pp pp pp
-30.0 30.0
-30.0 30.0
-30.0 30.0
ITEM: ATOMS id type x y z Coordination
1 1 17.092 -16.5314 1.66928 10
2 1 9.55878 -7.27773 3.36973 12
3 1 3.13786 -8.78789 -2.10458 20
4 1 9.2237 -12.9001 -15.9892 17
5 1 2.03489 -11.4194 -7.8094 16
6 1 11.6599 -10.9077 -16.7597 14
7 1 16.7764 -20.1995 -9.07765 12
8 1 12.1955 -8.16507 0.317233 21
9 1 12.0827 -7.20625 -12.6511 21
10 1 13.0466 -6.60911 3.07368 12
11 1 2.5332 -14.2942 -5.33678 18
12 1 19.1647 -14.2613 -11.7902 14
13 1 13.8112 -11.5928 1.26195 22
14 1 1.94636 -16.8532 -6.00512 9
15 1 9.88987 -19.0733 -12.3357 14
16 1 16.7522 -8.93428 -14.2093 14
17 1 18.8222 -17.642 -0.686252 10
18 1 7.5095 -2.84632 -2.11997 12
19 1 8.60976 -3.21851 -5.11818 15
20 1 11.6998 -17.121 -15.0912 11
21 1 8.87142 -8.69811 0.740531 25
22 1 17.8218 -14.891 -2.71568 18
23 1 4.66047 -5.52227 0.997897 10
24 1 13.0467 -5.97108 -15.7851 14
25 1 16.8175 -3.72685 -9.18202 14
26 1 10.6016 -2.63919 -13.1809 10
27 1 5.44976 -6.64174 -12.6608 18
28 1 8.54695 -2.64755 -10.6135 12
29 1 10.3589 -3.57618 -7.70175 22
30 1 2.0891 -8.58871 -4.77558 17
31 1 10.1187 -5.66954 0.487776 19
32 1 6.06325 -10.9828 -15.537 16
33 1 5.88297 -18.4527 -2.02896 14
34 1 15.4633 -18.6237 -6.41146 24
35 1 2.07162 -12.1744 -1.99232 17
36 1 1.41374 -12.1421 -11.1849 10
37 1 10.8014 -20.2209 -2.25242 17
38 1 14.4623 -9.33335 -16.6421 11
39 1 6.39461 -19.6069 -11.1564 13
40 1 10.2052 -7.55315 -16.7926 11
41 1 12.8733 -0.933279 -8.39003 11
42 1 1.56501 -9.16016 1.05524 12
43 1 12.2954 -3.24885 1.07469 12
44 1 15.5265 -13.6661 0.439544 19
45 1 15.3239 -22.8212 -8.57381 12
46 1 15.8079 -6.21432 -15.9551 12
47 1 8.51057 -19.5331 -4.09176 19
48 1 14.1672 -14.2948 3.2336 11
49 1 11.3909 -16.4402 1.27174 17
50 1 15.0881 -2.4604 -6.28934 13
51 1 4.84519 -19.1454 -4.94447 14
52 1 12.5829 -20.3612 -4.96393 19
53 1 7.10388 -11.5692 0.920723 24
54 1 2.64033 -12.1995 3.18868 11
55 1 15.3103 -22.1516 -5.04392 12
56 1 0.816111 -14.9939 -2.57574 10
57 1 7.30324 -6.03337 0.76734 19
58 1 1.57687 -5.70483 -3.45483 8
59 1 5.31242 -8.67709 0.65752 19
60 1 7.03425 -15.9171 -12.1562 20
61 1 3.64441 -9.58868 -12.3465 18
62 1 8.93747 -16.0717 -14.8651 12
63 1 16.702 -12.1259 2.65753 12
64 1 10.7103 -15.0955 3.71834 11
65 1 6.60478 -13.7272 -14.5615 13
66 1 2.6352 -14.3724 -9.06814 17
67 1 9.86533 -21.7604 -5.42932 12
68 1 5.50399 -6.85521 -1.98207 21
69 1 12.6737 -21.1135 -12.8415 9
70 1 8.36245 -3.36245 1.5811 10
71 1 2.01579 -8.70867 -9.8719 13
72 1 2.69459 -6.21927 -12.356 10
73 1 12.4747 -23.0902 -10.7473 13
74 1 16.0223 -17.8422 -1.71402 16
75 1 4.23788 -6.74745 -9.82608 20
76 1 5.88692 -12.4189 3.57415 13
77 1 3.40027 -10.991 0.664738 19
78 1 14.8091 -18.2498 -13.7603 9
79 1 9.11183 -18.3477 2.6119 10
80 1 17.4895 -17.4258 -11.3786 12
81 1 20.396 -10.5736 -4.31945 13
82 1 11.7257 -12.2521 -14.2673 19
83 1 13.671 -20.9623 -1.97087 13
84 1 7.09604 -21.6659 -6.85865 10
85 1 3.36339 -16.5616 -0.311191 10
86 1 15.6706 -9.68779 0.273191 17
87 1 18.6863 -6.45591 -7.72118 15
88 1 10.3648 -9.00949 -14.5326 18
89 1 10.8802 -5.26388 -14.606 15
90 1 14.052 -0.322999 -4.89287 9
91 1 17.7113 -11.0329 -15.8719 9
92 1 16.1378 -20.253 -3.34142 12
93 1 20.3343 -17.0762 -3.44569 9
94 1 12.6119 -17.9179 -1.4044 20
95 1 3.96689 -8.64998 -15.0226 10
96 1 19.2187 -12.5467 -7.19046 16
97 1 7.73718 -4.5227 -13.2831 14
98 1 15.2892 -21.325 -11.8343 11
99 1 1.07404 -13.8152 0.359041 9
100 1 12.9151 -23.0406 -7.19068 11
101 1 15.8197 -15.6137 -12.0537 16
102 1 18.1392 -20.9994 -5.83179 10
103 1 13.3473 -20.303 -8.65101 18
104 1 9.03564 -12.0102 3.2371 14
105 1 7.21053 -9.32641 3.37415 13
106 1 16.4898 -13.5404 -14.1665 15
107 1 3.90099 -4.02537 -8.07779 11
108 1 13.4539 -3.99888 -7.88569 22
109 1 18.4276 -6.44494 -13.4885 12
110 1 8.44524 -10.0808 -17.2463 12
111 1 0.211972 -9.19351 -2.19994 10
112 1 12.354 -14.0516 0.857066 20
113 1 2.88784 -11.89 -14.0332 11
114 1 19.0164 -14.0805 -4.94806 19
115 1 15.2518 -8.87845 3.00987 12
116 1 11.6108 -19.796 0.863081 12
117 1 17.5573 -8.46756 -2.715 17
118 1 17.5109 -5.10844 -1.60744 11
119 1 9.53134 -21.981 -11.6544 11
120 1 15.1614 -5.3239 1.18081 12
121 1 8.8493 -7.40857 -12.8426 18
122 1 8.83369 -19.8424 -9.51548 18
123 1 18.8825 -7.88975 -5.14268 15
124 1 3.67015 -6.1398 -6.22261 16
125 1 17.4159 -6.02655 -10.8056 16
126 1 11.717 -9.55829 3.06592 14
127 1 8.06265 -10.3136 -12.6085 20
128 1 18.254 -18.1093 -7.89839 13
129 1 13.0822 -1.53943 -1.91972 10
130 1 5.90072 -2.58168 0.97333 9
131 1 14.1502 -15.1851 -14.4705 17
132 1 14.2681 -16.5652 0.910383 15
133 1 3.86313 -9.43916 3.7081 10
134 1 18.9708 -14.4679 0.3446 12
135 1 11.7688 -2.74804 -10.1971 16
136 1 16.7644 -3.41705 -12.9273 13
137 1 7.44536 -15.1944 2.58823 14
138 1 9.34109 -13.9472 0.769823 21
139 1 5.18781 -3.71668 -4.52898 13
140 1 16.119 -2.6474 -3.19168 14
141 1 3.72774 -16.54 -3.76798 17
142 1 20.722 -13.7495 -2.64027 11
143 1 6.4016 -18.4961 -7.55506 20
144 1 14.9669 -7.15338 -1.40402 19
145 1 20.3695 -11.8477 -9.93903 11
146 1 12.2449 -2.57234 -5.22723 17
147 1 3.83401 -14.5826 -12.3559 15
148 1 13.0943 -4.5568 -12.3893 21
149 1 4.04143 -11.4862 -9.96325 22
150 1 14.7469 -12.6287 -16.6285 14
151 1 9.95074 -22.5482 -8.77835 11
152 1 8.19081 -20.0219 -0.132009 10
153 1 19.983 -14.9705 -8.59857 11
154 1 0.414592 -11.9329 -4.7466 11
155 1 7.20721 -7.47825 -15.3405 14
156 1 4.53159 -17.106 -10.1913 15
157 1 19.0269 -11.436 -1.524 13
158 1 12.0244 -14.2877 -16.793 12
159 1 4.11138 -3.88143 -1.68691 11
160 1 5.35014 -14.1544 0.757721 16
161 1 17.5817 -5.48561 -4.49139 13
162 1 20.2576 -9.77665 -7.1756 15
163 1 6.26505 -17.4121 1.2291 16
164 1 15.1508 -6.63712 -13.0529 21
165 1 13.9261 -3.13411 -14.7913 11
166 1 14.0697 -4.36888 -1.2294 15
167 1 14.9314 -2.13543 -11.1007 12
168 1 19.0719 -8.68787 -10.5057 16
169 1 19.1106 -11.2472 -12.8791 11
170 1 10.8581 -4.00023 -2.36317 18
171 1 7.26588 -3.71544 -7.69877 19
172 1 8.86741 -17.6644 -1.39912 21
173 1 17.0921 -17.074 -4.31937 19
174 1 4.48448 -15.939 -6.92739 21
175 1 5.28779 -3.84928 -11.0151 14
176 2 2.00772 -12.1083 0.00273343 15
177 2 17.8427 -6.83394 -2.11028 12
178 2 0.797392 -9.95088 -3.90128 13
179 2 9.04584 -19.7048 -2.14687 17
180 2 10.513 -10.8891 2.57138 18
181 2 5.77656 -6.68067 -0.0569933 17
182 2 18.185 -20.0165 -7.4199 9
183 2 5.05831 -12.3704 -14.478 15
184 2 14.3388 -19.893 -12.8727 8
185 2 7.44907 -2.58084 -0.152884 10
186 2 20.4826 -18.1256 -1.75263 5
187 2 15.6125 -1.63279 -4.76255 11
188 2 10.214 -3.58987 1.12845 12
189 2 15.4353 -3.04476 -8.22368 15
190 2 13.4981 -6.10815 -13.3427 20
191 2 18.4439 -10.1286 -14.3237 11
192 2 2.06119 -10.083 -11.2586 13
193 2 9.64521 -19.4847 1.14076 14
194 2 3.675 -11.3926 -2.70542 20
195 2 17.6882 -18.5139 -9.8742 11
196 2 12.9382 -20.5461 -6.80365 18
197 2 11.7768 -6.37299 -0.482344 22
198 2 12.3633 -14.9244 2.8723 15
199 2 6.38291 -18.3685 -3.99715 16
200 2 14.3173 -21.1791 -3.7166 15
201 2 3.63814 -17.7463 -5.32965 13
202 2 8.2341 -21.0079 -5.44028 13
203 2 8.35936 -21.5616 -8.37065 14
204 2 5.77269 -3.25506 -2.49913 13
205 2 15.5308 -8.72815 -12.7067 17
206 2 17.2344 -5.65266 -8.80679 17
207 2 11.3295 -5.97293 -16.3848 12
208 2 20.6333 -11.8407 -2.90335 10
209 2 13.3087 -1.27697 -6.61232 13
210 2 7.20177 -6.32279 -2.70302 19
211 2 11.8936 -2.64348 -8.2462 17
212 2 14.5817 -3.09129 -12.8876 13
213 2 8.78784 -6.82085 -0.148481 21
214 2 10.7487 -14.9963 0.222732 23
215 2 13.4744 -17.091 -14.4458 12
216 2 12.5359 -18.3252 -8.88965 15
217 2 10.5347 -17.3062 -13.4589 13
218 2 5.02256 -17.1314 -8.3605 19
219 2 19.6086 -13.574 -9.97001 15
220 2 14.8196 -2.67448 -1.67417 12
221 2 11.017 -12.5699 -16.1798 16
222 2 13.6376 -11.1154 -16.9949 13
223 2 8.18635 -20.4326 -11.3065 12
224 2 16.1459 -17.1604 -12.9059 11
225 2 16.8298 -6.97084 -14.3985 15
226 2 4.22426 -17.0591 -2.02802 17
227 2 13.7916 -14.1056 -16.1302 15
228 2 10.8474 -20.9729 -12.5595 11
229 2 7.7275 -11.562 -16.1891 14
230 2 4.53636 -3.75933 0.243704 11
231 2 5.84868 -19.9641 -6.43137 11
232 2 4.35889 -3.99488 -6.20794 12
233 2 1.68576 -15.3193 -0.830565 11
234 2 2.30499 -12.4655 -9.55449 14
235 2 13.9801 -17.0064 -2.08477 22
236 2 20.7797 -11.0241 -8.27573 12
237 2 13.9052 -5.81211 -2.60196 22
238 2 6.10818 -13.9466 2.79357 15
239 2 1.59111 -7.52141 -2.29965 12
240 2 2.54085 -13.0829 -12.4654 15
241 2 16.7198 -2.96114 -10.9858 10
242 2 1.72837 -11.9326 -6.11021 16
243 2 9.39343 -4.10768 -13.8088 12
244 2 16.5779 -12.6834 -16.0255 10
245 2 2.21695 -6.65875 -5.18985 14
246 2 17.7426 -15.4592 -11.3377 14
247 2 15.0674 -19.4122 -8.8106 17
248 2 6.41984 -4.33501 1.58163 10
249 2 15.0076 -23.0762 -6.59803 11
250 2 13.3311 -4.73605 1.46076 12
251 2 8.82774 -3.18612 -8.87407 16
252 2 4.80229 -16.1413 0.807453 13
253 2 8.22584 -8.1076 -17.0157 12
254 2 19.1496 -10.5955 -10.9417 15
255 2 10.7433 -9.35036 0.189717 24
256 2 18.4747 -6.15083 -5.89137 14
257 2 15.9026 -5.29637 -0.532463 12
258 2 2.64647 -15.026 -7.21501 15
259 2 11.4965 -7.75746 3.06116 15
260 2 17.4947 -13.7062 1.35915 13
261 2 10.7118 -9.48438 -16.3429 16
262 2 8.5029 -8.53789 2.66573 18
263 2 16.0256 -17.1656 0.304253 16
264 2 2.13411 -9.42274 -7.9665 15
265 2 5.93977 -7.37468 -10.7579 21
266 2 3.96859 -7.59241 -13.4073 14
267 2 7.47489 -14.5835 0.570853 18
268 2 12.8504 -1.35644 -3.78612 12
269 2 6.46571 -17.6697 -11.1567 17
270 2 20.5125 -9.07465 -5.22854 11
271 2 5.55291 -3.69616 -8.97329 14
272 2 19.0513 -14.5354 -6.82453 15
273 2 7.56027 -16.6815 -2.35144 20
274 2 6.86581 -19.0699 -9.38754 15
275 2 10.2783 -2.30152 -11.2782 13
276 2 2.77407 -4.50629 -2.6948 10
277 2 10.5443 -17.0031 2.87943 12
278 2 0.442284 -9.12201 -0.495416 10
279 2 8.72822 -5.67534 2.48464 10
280 2 4.26638 -6.28061 -8.08265 19
281 2 13.5083 -1.51111 -10.266 12
282 2 5.3085 -9.11412 2.41602 17
283 2 9.2999 -13.9832 2.85794 18
284 2 8.0774 -14.3251 -15.5302 13
285 2 10.648 -7.2217 -14.1496 19
286 2 10.0333 -18.6855 -10.3566 19
287 2 15.6965 -11.4551 -0.219448 19
288 2 17.548 -9.11878 -4.56548 20
289 2 15.4558 -19.9471 -1.54657 12
290 2 17.3279 -9.20221 -9.75916 18
291 2 13.6467 -10.1377 2.52632 17
292 2 7.37601 -11.3112 3.17278 15
293 2 5.6632 -14.7485 -13.1017 17
294 2 10.4984 -3.39406 -5.71464 20
295 2 2.18585 -10.2061 2.51186 12
296 2 1.4375 -15.9249 -4.20874 10
297 2 11.0264 -22.5522 -7.17328 12
298 2 14.7904 -12.6921 2.38024 15
299 2 7.20944 -6.55921 -13.6311 16
300 2 14.6509 -4.68917 -15.6286 14
301 2 13.7009 -22.3133 -12.1098 9
302 2 18.7903 -16.3175 0.610426 11
303 2 14.9306 -6.96929 2.46613 12
304 2 12.0855 -3.70526 -13.8609 15
305 2 10.8495 -15.7289 -16.049 13
306 2 9.21358 -3.15262 -3.0642 14
307 2 7.25655 -4.22381 -11.3318 16
308 2 2.67856 -7.20772 -10.6854 12
309 2 3.25889 -9.08261 -0.144921 19
310 2 14.2567 -7.48256 -16.4513 11
311 2 15.2027 -14.2517 -13.1092 17
312 2 4.31165 -5.30845 -11.6313 14
313 2 5.97795 -9.01517 -15.6675 13
314 2 15.3971 -15.437 2.09349 13
315 2 4.23404 -11.2518 3.84019 11
316 2 2.12033 -13.6962 2.06737 11
317 2 12.6525 -17.8537 0.584564 15
318 2 0.817761 -13.0781 -3.04514 12
319 2 7.58979 -17.3082 2.41923 11
320 2 12.1843 -20.0899 -1.09456 14
321 2 16.3244 -10.3116 2.01458 11
322 2 16.162 -21.847 -10.1107 12
323 2 6.98602 -3.93409 -5.61977 19
324 2 3.21716 -10.1084 -14.1617 11
325 2 5.11019 -11.8835 0.462585 23
326 2 13.8775 -14.5824 -0.139241 22
327 2 16.1309 -9.79011 -15.8081 12
328 2 17.646 -3.91602 -3.31676 9
329 2 19.7871 -15.3724 -3.61679 13
330 2 18.0885 -13.0771 -13.0912 13
331 2 17.6509 -16.7814 -1.949 18
332 2 17.5342 -4.9535 -12.8688 12
333 2 3.54401 -15.4511 -10.4311 14
334 2 4.15333 -14.8713 -4.62398 18
335 2 15.6274 -18.4421 -4.44469 18
336 2 12.3154 -4.59369 -10.6558 20
337 2 19.0333 -8.42316 -7.55162 13
338 2 15.5705 -6.63477 -10.9279 23
339 2 18.5742 -16.2127 -8.72357 12
340 2 17.0873 -21.4854 -4.51217 9
341 2 13.5963 -22.7355 -9.05731 13
342 2 13.7018 -3.92468 -5.62303 20
343 2 12.227 -3.00044 -1.01938 14
344 2 10.7257 -21.0022 -3.9481 14
345 2 7.13104 -18.5196 -0.519781 14
346 2 17.9181 -11.2933 -2.88724 18
347 2 18.8934 -7.05098 -11.6015 13
348 2 5.22701 -10.3818 -11.4564 20
349 2 10.6382 -22.8993 -10.5305 11
350 2 17.0785 -17.372 -6.23795 18
351 1 8.00024 -17.2638 -9.62142 23
352 1 5.70747 -14.705 -9.92533 22
353 1 9.14263 -13.2747 -12.2583 22
354 1 10.8275 -15.6509 -12.4029 19
355 1 11.2755 -17.495 -9.88291 17
356 1 9.39567 -14.8018 -9.7343 21
357 2 7.76742 -16.8957 -7.64383 21
358 2 5.51987 -14.5689 -8.02158 22
359 2 5.37057 -12.9572 -10.4543 20
360 2 7.59668 -15.2899 -10.1414 20
361 2 8.81403 -15.3079 -12.9525 19
362 2 10.9311 -17.2508 -7.59171 21
363 2 9.40871 -14.1808 -7.73995 24
364 2 9.02336 -12.7535 -10.1968 22
365 2 11.1571 -15.5181 -10.2164 22
366 1 5.73836 -12.7613 -7.12262 23
367 1 7.5349 -15.026 -7.07688 23
368 1 7.33568 -16.6591 -4.2167 23
369 1 5.64088 -14.096 -4.21278 20
370 1 5.37622 -12.0669 -2.08424 20
371 1 7.36862 -14.7799 -1.39907 22
372 1 9.30153 -17.769 -6.91512 21
373 1 9.12589 -12.2747 -7.28475 22
374 1 11.0853 -15.5318 -6.99992 24
375 1 10.96 -17.1021 -4.01008 25
376 1 9.29746 -14.2484 -4.48399 24
377 1 9.06219 -12.4169 -2.066 23
378 1 10.879 -14.987 -1.75233 23
379 2 5.97827 -13.9889 -2.39982 19
380 2 5.36828 -12.4517 -5.19565 22
381 2 7.45355 -14.7688 -5.09092 22
382 2 9.16081 -17.8456 -4.90896 22
383 2 10.8278 -17.1847 -1.90979 21
384 2 9.33678 -14.2525 -2.37463 23
385 2 9.2425 -12.2477 -5.07927 20
386 2 10.7566 -15.5088 -5.18252 22
387 2 8.95796 -12.0281 0.0695093 22
388 1 5.7879 -12.1842 -12.0971 21
389 1 7.31233 -11.948 -9.81216 22
390 1 6.11771 -9.08374 -10.3345 21
391 1 7.44564 -5.99726 -10.4467 23
392 1 11.6942 -10.3528 -12.2979 21
393 1 10.8511 -12.2631 -9.86209 22
394 1 9.47985 -8.83032 -9.83322 23
395 1 10.8892 -6.02665 -9.84224 22
396 2 4.55341 -11.5034 -7.91836 20
397 2 7.46973 -12.2058 -12.7161 19
398 2 7.36822 -11.505 -7.83603 22
399 2 5.89518 -8.56967 -8.06863 22
400 2 8.02214 -9.85967 -10.5482 21
401 2 7.543 -5.78261 -8.33808 23
402 2 10.097 -11.3285 -13.3451 19
403 2 8.51281 -8.92108 -13.9383 18
404 2 11.049 -11.4801 -7.81964 21
405 2 9.24285 -8.49147 -7.70665 22
406 2 9.00305 -7.07937 -10.8615 20
407 2 11.1497 -10.2527 -10.2584 20
408 2 10.6245 -5.4567 -7.82168 21
409 1 4.20311 -9.6247 -7.4297 22
410 1 3.71897 -11.2001 -4.68959 22
411 1 6.06394 -6.62444 -7.49568 22
412 1 7.55796 -9.46712 -7.50846 22
413 1 7.2543 -11.5341 -4.63506 20
414 1 5.61781 -8.70504 -4.72078 23
415 1 7.42789 -9.65372 -1.91318 23
416 1 7.24209 -5.96135 -4.62036 23
417 1 9.05706 -6.65083 -7.48846 23
418 1 11.0133 -9.50165 -7.33767 22
419 1 10.9813 -11.3684 -4.58019 24
420 1 8.98526 -8.55286 -4.72856 23
421 1 8.945 -6.71944 -2.03546 22
422 1 10.3066 -9.52765 -1.90672 24
423 1 10.5748 -11.2419 0.768928 21
424 1 10.6568 -5.56728 -4.90778 21
425 2 3.95798 -9.35752 -5.39115 18
426 2 7.22786 -11.3858 -2.69417 23
427 2 4.69577 -8.43553 -2.95334 20
428 2 5.5786 -6.75561 -5.42215 21
429 2 7.29193 -9.58316 -5.38688 23
430 2 10.751 -11.3704 -2.3938 22
431 2 8.91193 -8.64182 -2.6535 24
432 2 9.02612 -6.54753 -5.40823 23
433 2 10.7776 -9.40885 -5.42912 24
434 2 7.15111 -9.29896 0.0686984 23
435 2 10.8046 -5.87939 -3.09524 22
436 1 13.5091 -13.2295 -12.1741 17
437 1 14.3554 -17.5206 -9.23306 18
438 1 12.8489 -14.9057 -9.54496 23
439 1 16.2044 -14.6779 -9.56598 20
440 2 11.5591 -13.8715 -12.931 24
441 2 14.3229 -17.3303 -7.09777 21
442 2 12.6593 -14.4211 -7.45292 21
443 2 12.858 -12.8453 -10.3024 20
444 2 14.6133 -15.8461 -10.0538 19
445 2 16.118 -14.2708 -7.57731 23
446 2 15.9873 -12.6454 -10.2076 20
447 1 12.4899 -18.3118 -6.93871 20
448 1 12.8444 -12.5902 -7.26153 22
449 1 14.4656 -15.3819 -6.87061 21
450 1 13.9719 -17.376 -4.04746 23
451 1 12.521 -14.5078 -4.6636 21
452 1 12.4729 -12.2176 -1.94186 24
453 1 14.2046 -14.9792 -2.07912 20
454 1 16.0053 -12.2377 -7.25677 22
455 1 17.3424 -15.541 -7.06496 18
456 1 15.6348 -14.1216 -4.49294 22
457 1 15.8746 -11.9536 -2.03336 20
458 2 12.2713 -18.4399 -4.61741 24
459 2 12.3965 -14.0085 -2.61792 24
460 2 12.379 -12.4619 -5.23346 23
461 2 14.0754 -15.4749 -4.89948 26
462 2 12.2749 -12.2413 0.189441 22
463 2 15.8265 -13.894 -2.44573 19
464 2 15.7232 -12.4921 -5.20416 23
465 2 17.2261 -15.1752 -4.8398 18
466 1 14.3022 -10.0946 -13.3328 15
467 1 14.2459 -11.6358 -9.74571 22
468 1 12.5795 -8.97989 -9.70398 22
469 1 13.8816 -6.14923 -9.92231 21
470 1 17.4292 -11.2874 -9.85058 20
471 1 15.8195 -8.64304 -10.4758 21
472 2 13.3444 -11.5947 -13.2921 20
473 2 12.5243 -9.04597 -13.0877 16
474 2 14.3519 -11.2102 -7.701 21
475 2 12.6174 -8.36862 -7.77116 22
476 2 12.2856 -7.29077 -10.5457 21
477 2 14.3023 -9.83692 -9.95574 22
478 2 13.952 -5.87508 -8.11137 21
479 2 17.7956 -11.3314 -7.85345 21
480 2 16.0673 -8.37456 -6.9255 21
481 1 12.1158 -6.52916 -7.31219 23
482 1 14.1912 -9.31936 -7.0195 23
483 1 14.1781 -11.6196 -4.57093 21
484 1 12.0799 -8.42363 -4.41856 24
485 1 12.2311 -6.68161 -2.39932 20
486 1 13.7083 -9.43067 -2.74437 21
487 1 14.0318 -5.53599 -4.51421 21
488 1 15.4923 -6.58247 -7.23564 21
489 1 17.4266 -9.35529 -7.8964 23
490 1 17.6027 -11.0812 -4.77887 22
491 1 15.512 -8.41083 -4.89888 22
492 2 13.9561 -11.3033 -2.71189 23
493 2 12.0128 -8.56224 -2.52701 22
494 2 12.6181 -6.54806 -5.48548 22
495 2 13.7391 -9.49335 -4.96458 21
496 2 14.2209 -8.47697 -0.243221 20
497 2 19.3177 -13.5806 -1.37305 13
498 2 15.5754 -8.59842 -2.76987 21
499 2 15.8204 -6.31577 -5.03019 20
500 2 19.211 -12.0767 -5.45175 18
