ITEM: TIMESTEP
1000
ITEM: NUMBER OF ATOMS
2000
ITEM: BOX BOUNDS pp pp pp
-30.0 30.0
-30.0 30.0
-30.0 30.0
ITEM: ATOMS id type x y z Coordination
1 1 -10.2423 5.39628 -14.5396 13
2 1 -4.4544 -10.8135 -9.05394 16
3 1 2.9791 11.9279 13.3556 16
4 1 5.42971 -10.8117 6.57975 19
5 1 -9.62283 8.76114 -0.54968 14
6 1 10.0872 -9.39693 -11.6456 11
7 1 -11.6616 3.53355 -6.40844 19
8 1 -0.285272 -8.45969 12.0136 11
9 1 -9.15616 0.890383 -13.0005 21
10 1 -14.0675 -10.7408 6.50855 10
11 1 12.2595 1.00761 -9.56622 17
12 1 -5.2356 -13.2464 2.58281 14
13 1 -12.8528 -5.07849 6.73592 19
14 1 -0.928982 2.156 17.2015 13
15 1 5.3478 -2.32767 7.07951 18
16 1 1.33152 3.14727 9.62548 18
17 1 -1.95554 9.06427 -9.23188 20
18 1 2.1899 -0.0655724 12.3691 20
19 1 -9.20862 -0.273213 -17.0433 10
20 1 -12.5416 -3.65388 11.7975 16
21 1 14.5172 6.06076 9.21953 17
22 1 0.890876 9.76834 -10.6724 21
23 1 2.58385 3.95952 -14.5586 18
24 1 14.5336 4.2909 12.8065 12
25 1 -9.3167 0.00210459 -0.135989 19
26 1 -13.1427 4.61004 -9.16382 15
27 1 -1.83612 -1.36786 -8.82816 18
28 1 -11.2158 8.73268 9.05188 16
29 1 7.1851 -13.2433 6.24454 11
30 1 2.93386 -0.764193 8.62892 18
31 1 2.09438 -14.8807 -11.964 12
32 1 9.51918 -12.9595 1.64367 13
33 1 -6.97247 -13.7408 -4.81795 18
34 1 -13.1003 -7.18515 11.3756 12
35 1 2.0575 -8.7956 -12.9975 20
36 1 9.08364 -9.82148 -14.0419 10
37 1 -2.15648 5.26279 -16.9649 13
38 1 -0.741418 4.41234 13.7248 18
39 1 -1.12088 -12.5765 6.61449 17
40 1 7.07324 -5.25599 13.6623 10
41 1 -11.9836 -0.284884 2.50578 19
42 1 -16.538 -2.42678 6.99031 12
43 1 -9.3109 -2.37314 -2.40292 20
44 1 -2.80224 13.4494 -4.21827 18
45 1 -1.27043 -15.6487 -12.6414 9
46 1 2.45086 1.67824 -9.02826 19
47 1 5.03048 -4.8096 -8.47858 16
48 1 -1.03788 -3.54858 11.9017 17
49 1 -12.2609 5.66327 -1.02193 20
50 1 3.17768 12.3706 -10.8442 17
51 1 0.496062 13.9634 8.24885 19
52 1 -8.39802 9.9676 -8.00154 18
53 1 -0.68715 14.7585 0.291019 14
54 1 1.89553 -12.5031 3.00086 23
55 1 5.38646 -7.60495 -6.61474 20
56 1 5.61845 -7.65792 -17.5367 9
57 1 -10.2782 8.88292 12.5114 11
58 1 -13.1979 -5.05306 -9.8509 11
59 1 7.57329 1.30248 3.36088 18
60 1 -8.71601 8.42229 -4.52347 15
61 1 -9.03082 -10.0638 8.38166 17
62 1 -2.9599 13.1264 13.0832 12
63 1 -12.1184 6.86077 -6.87775 17
64 1 -7.41833 9.4031 14.1986 13
65 1 0.347972 6.5249 -5.25878 16
66 1 -9.61919 -15.299 6.45879 15
67 1 3.19521 5.43099 8.70113 19
68 1 5.26655 -15.5117 -4.14198 11
69 1 3.94066 12.0033 16.0574 12
70 1 -13.7654 1.92494 -10.3784 13
71 1 -13.323 7.59069 -10.517 10
72 1 5.06737 6.43166 13.0547 19
73 1 11.8669 -4.67675 -11.5958 14
74 1 7.12508 -10.926 3.7944 17
75 1 -16.9291 -3.05917 3.85468 12
76 1 -7.94104 -3.04864 3.07674 16
77 1 6.2023 15.9328 4.84209 18
78 1 6.25835 -1.76038 13.4415 17
79 1 -8.58764 -12.7235 6.44208 17
80 1 -11.1221 -2.48293 0.693488 18
81 1 11.3121 2.10417 5.80592 19
82 1 5.90431 -2.06654 -5.98463 15
83 1 -2.56351 10.7647 10.9705 19
84 1 6.22615 0.667392 8.71158 17
85 1 -6.44807 -4.85193 5.76306 22
86 1 -2.41133 -6.84972 -10.318 17
87 1 -14.1912 7.3356 7.85718 12
88 1 -7.72769 13.9601 -1.76515 17
89 1 -2.03198 5.88497 -11.5325 19
90 1 6.13709 0.529371 -7.52012 14
91 1 9.02216 12.5944 -8.25602 14
92 1 9.49756 -5.3288 -0.241847 16
93 1 5.21791 -9.43212 10.1779 11
94 1 -5.57931 16.0115 -4.2537 10
95 1 -11.4676 10.5508 4.47866 17
96 1 -8.11894 -4.74083 15.2274 14
97 1 -3.95212 9.17959 6.36369 20
98 1 -6.81904 -5.59762 11.4027 19
99 1 12.5222 -7.06318 -6.91772 17
100 1 -10.6699 3.64953 6.1405 19
101 1 -10.6969 -14.1255 3.32574 11
102 1 8.96792 -7.71901 -5.61054 20
103 1 4.44759 -0.695463 -14.4315 15
104 1 -5.8231 0.173508 -17.2982 11
105 1 -1.99787 13.421 2.79378 18
106 1 -7.75449 6.89406 -9.82125 19
107 1 0.313173 8.05172 18.9727 10
108 1 0.645994 13.6388 -6.83952 18
109 1 -13.0124 11.4811 1.13215 12
110 1 0.318776 8.4008 1.76964 19
111 1 -6.1168 -8.38648 9.53565 21
112 1 13.965 -1.01437 10.4287 12
113 1 -0.67623 -4.24806 -9.45309 15
114 1 4.40337 -7.73401 -9.68387 17
115 1 -3.38284 0.343328 6.8403 21
116 1 6.14285 -0.56916 16.0282 11
117 1 -10.684 -7.49258 -0.852352 17
118 1 7.7848 -5.13162 2.89019 14
119 1 -9.82772 -8.58857 -2.6812 22
120 1 10.4428 -10.2636 2.38645 14
121 1 -5.37161 8.39578 1.70926 20
122 1 8.13677 4.05487 -16.1126 12
123 1 5.01538 16.1841 -1.05565 18
124 1 -9.02428 -13.4994 11.3736 13
125 1 -12.1774 -14.4033 10.7419 12
126 1 5.9982 -8.92022 -14.8793 14
127 1 4.41585 5.92816 -4.96306 19
128 1 11.9043 -10.4539 -0.0721852 11
129 1 -0.954683 -15.5047 6.99055 13
130 1 -9.6804 -10.4467 -0.114675 18
131 1 17.2248 9.4247 12.015 9
132 1 13.7965 -3.97598 -9.22004 15
133 1 -14.9803 -5.28764 3.57051 19
134 1 10.9796 9.07208 5.24336 17
135 1 14.4772 8.81561 4.22223 18
136 1 -6.08526 2.77632 18.7467 12
137 1 7.71512 6.73821 -3.44875 20
138 1 -5.61532 9.57857 9.34971 21
139 1 -4.27671 11.4222 -5.42308 22
140 1 -0.714576 -7.38017 -13.3622 20
141 1 7.43131 -11.7329 -11.4988 14
142 1 2.13342 14.3156 -13.0577 10
143 1 9.48686 -4.17896 12.0154 17
144 1 -0.744051 0.103576 -19.8556 6
145 1 -1.92753 9.31327 -5.76534 15
146 1 8.89278 -1.56213 -4.57412 18
147 1 -10.5678 9.81309 -6.10065 14
148 1 -8.48444 16.2955 -0.208693 13
149 1 7.33517 1.81823 -12.3297 18
150 1 7.94835 -8.01341 4.89642 14
151 1 -5.81988 3.73308 -7.91792 19
152 1 -7.08788 12.5753 8.85157 16
153 1 13.8571 9.46955 -9.34583 8
154 1 4.98087 11.4514 -2.1818 18
155 1 -4.58785 17.1981 2.38425 14
156 1 12.5942 10.5255 -1.73527 21
157 1 -2.94992 10.6749 -3.05805 17
158 1 0.282501 15.4982 -11.2697 12
159 1 3.83925 9.65661 -13.1675 15
160 1 -13.1088 -9.35422 3.71703 15
161 1 -13.3773 8.98367 -1.18091 13
162 1 -6.80918 -1.42787 -15.0253 17
163 1 -0.0131026 -10.0519 -14.7991 22
164 1 9.9524 12.0975 11.2156 12
165 1 -0.59913 16.2637 9.4697 9
166 1 -14.0651 -3.67003 -4.54314 14
167 1 -12.8701 13.416 3.19518 8
168 1 14.8656 0.194555 -3.63417 13
169 1 -10.6888 2.13316 -15.7741 12
170 1 7.31634 2.37588 16.9872 14
171 1 4.93175 18.9872 5.7924 6
172 1 -1.48024 8.15391 7.83067 18
173 1 2.36986 -8.64564 -16.0615 13
174 1 -4.96833 14.2848 10.4001 12
175 1 -2.69395 11.9266 -7.79192 20
176 1 1.98094 -3.01812 12.9781 15
177 1 -12.307 -6.39861 4.01713 21
178 1 -3.26332 -12.8551 -14.2169 13
179 1 -8.61833 12.8346 -9.41781 10
180 1 -3.91838 -11.2265 4.80481 15
181 1 2.61825 -16.3469 -5.51561 9
182 1 -3.83489 11.6589 -10.9624 18
183 1 -16.0563 0.631901 8.20285 11
184 1 2.48996 9.29609 -1.72706 22
185 1 11.2714 10.1019 -4.18894 23
186 1 -8.89653 4.9382 17.2624 10
187 1 -1.79148 -9.40399 9.57268 17
188 1 -9.38914 2.75189 0.443895 16
189 1 -0.142454 16.4402 6.26919 13
190 1 -0.489943 6.16385 9.70961 17
191 1 14.1159 6.36222 15.2273 14
192 1 -5.43001 14.0542 3.45745 22
193 1 13.9327 -6.87718 -9.81464 8
194 1 -5.30496 10.9845 11.6214 18
195 1 -4.5673 0.746402 -8.72352 19
196 1 12.047 -7.11741 1.33387 11
197 1 -8.01209 -6.89126 6.54098 20
198 1 -14.9487 0.232515 3.23451 15
199 1 -9.03576 -10.046 5.21381 21
200 1 5.42607 7.94441 16.0854 22
201 1 -14.0825 0.378214 -1.82685 11
202 1 -2.25783 -13.8886 0.596055 17
203 1 5.74012 -9.78525 -1.52839 18
204 1 -3.46252 11.6458 4.69436 17
205 1 -6.23917 1.09945 5.69202 16
206 1 3.5372 13.208 9.64011 16
207 1 -8.69453 -1.14013 -4.82387 16
208 1 -5.83071 12.3222 -8.25154 23
209 1 -14.8023 -5.04323 -6.89589 7
210 1 -9.61358 -1.92725 11.6032 19
211 1 0.0640312 -9.51521 4.03672 17
212 1 3.99143 -14.3081 6.5555 15
213 1 -15.0118 11.0858 4.15367 11
214 1 14.9078 2.39487 5.41083 12
215 1 5.93007 3.86061 -2.91157 20
216 1 -6.11481 -7.39611 -14.613 12
217 1 3.44934 1.54117 10.6707 19
218 1 6.24681 -18.9025 3.55316 9
219 1 -3.84963 9.15506 -11.6034 17
220 1 2.94871 -11.692 -13.5061 13
221 1 8.85848 0.96579 -15.2665 15
222 1 3.76674 7.26714 -15.1603 17
223 1 -7.17358 -4.27276 -9.61061 17
224 1 -4.59948 14.5902 -6.94913 17
225 1 -11.6339 -11.1716 11.7427 13
226 1 7.80319 15.7309 -2.48232 11
227 1 -8.92778 2.12128 17.9766 10
228 1 -6.20434 13.1868 -5.09062 17
229 1 6.01776 3.59547 8.631 19
230 1 -2.40149 -4.9239 -13.071 15
231 1 -4.74309 9.2878 -8.26635 22
232 1 2.0039 4.99843 -10.6265 20
233 1 -10.4167 -12.5522 8.82885 24
234 1 -7.87801 4.69586 8.49086 17
235 1 -8.61156 8.08866 9.43245 18
236 1 0.22823 -12.4124 -8.11369 18
237 1 -5.06029 -15.4071 0.167025 21
238 1 10.3671 -14.5911 -3.39645 7
239 1 3.35849 -7.50152 -0.458146 17
240 1 11.6934 8.49186 14.823 16
241 1 6.28569 10.5514 -8.62617 19
242 1 -0.704652 10.4964 -1.18907 17
243 1 -9.34535 0.461008 3.21398 15
244 1 -12.614 11.9516 -1.95353 11
245 1 1.77771 5.25194 11.5699 21
246 1 3.87704 -19.0881 1.30151 12
247 1 11.4841 1.1872 -3.65607 20
248 1 1.91162 7.9064 6.99864 19
249 1 -10.2542 6.5915 6.59172 20
250 1 -12.0508 -6.44722 -3.92981 20
251 1 6.61758 5.14711 -13.5775 19
252 1 4.85726 -1.51992 10.2034 21
253 1 8.75913 9.373 -9.91832 15
254 1 1.86481 -11.6164 -5.51013 15
255 1 -2.95063 -0.489289 -11.2763 15
256 1 -0.199355 -17.7582 5.11147 14
257 1 9.09772 -0.197243 -8.1518 18
258 1 -12.4254 -2.86812 4.06968 20
259 1 3.06038 -16.0745 -1.69537 15
260 1 -9.57093 -5.71019 -7.97076 19
261 1 3.79668 13.8861 -1.69368 23
262 1 3.45581 -2.34754 -16.6245 16
263 1 4.58329 4.49473 15.6293 18
264 1 15.913 3.40551 2.72406 8
265 1 -4.67554 -7.86154 2.46044 17
266 1 9.5427 -4.06984 -13.2027 20
267 1 -1.37012 -6.8205 4.13478 20
268 1 -9.17303 -2.79389 -11.6822 17
269 1 -9.99286 0.42825 -10.1498 19
270 1 -9.29016 -15.848 9.36351 13
271 1 10.855 0.307552 10.5079 17
272 1 2.69246 -4.84865 6.89509 16
273 1 -6.65406 -9.82365 -12.0558 15
274 1 1.60445 -6.95499 9.70527 19
275 1 1.07119 7.1614 -13.2232 24
276 1 6.14511 10.3691 2.38969 22
277 1 -8.21134 -7.58401 3.65177 19
278 1 0.913322 11.7356 2.38659 17
279 1 -7.29796 -2.87558 13.0504 23
280 1 -10.3796 -8.70737 -9.03459 15
281 1 -5.18373 -5.47009 -11.641 17
282 1 -1.65396 6.80415 -14.5402 17
283 1 -5.70771 -9.28611 -6.82817 17
284 1 -1.88536 -8.92405 1.281 12
285 1 10.2271 -5.25141 -16.3451 11
286 1 15.5306 -2.0539 -10.2092 7
287 1 11.9792 4.85553 3.62446 20
288 1 -9.95788 -5.18973 11.6248 21
289 1 -2.988 -11.3596 -1.01698 15
290 1 8.8044 5.22071 17.0011 18
291 1 -7.2652 -16.464 5.62235 13
292 1 -0.0802914 -11.1956 0.943273 17
293 1 -1.46935 16.186 -2.73911 13
294 1 6.65072 -0.839605 -16.4308 17
295 1 -4.80764 -4.5646 -14.9983 14
296 1 -10.8947 -8.46944 12.3921 16
297 1 2.95627 6.8993 17.4724 17
298 1 2.19573 -13.1173 -0.04125 16
299 1 -5.07566 -12.1553 -11.5841 16
300 1 -10.0735 7.8439 -8.92226 18
301 1 10.8075 6.17673 5.92029 17
302 1 -6.8524 2.61818 -10.7187 19
303 1 0.214397 7.22336 -10.3776 15
304 1 -3.21374 -5.44251 6.46586 20
305 1 6.32558 -14.6336 -9.80838 12
306 1 -5.86471 18.4882 -0.308757 7
307 1 2.04924 11.7368 6.83778 15
308 1 9.88414 0.0447559 4.58964 16
309 1 -8.77133 1.28873 7.15153 18
310 1 -3.65265 -7.21491 11.2672 16
311 1 -6.59436 11.19 3.08659 19
312 1 4.11269 -6.50771 -13.0135 21
313 1 15.1944 9.93013 -4.06824 13
314 1 4.29131 -10.5588 1.69646 21
315 1 -3.08695 -1.73165 15.6059 11
316 1 -16.1614 -5.32811 6.44883 14
317 1 0.605438 -16.7274 -3.38636 14
318 1 -7.59013 6.39759 14.6384 15
319 1 -11.0892 5.73584 12.9193 12
320 1 -14.716 -4.94474 9.05282 16
321 1 -14.4008 -7.81732 8.07046 14
322 1 15.1143 -4.99016 -2.39518 12
323 1 -11.9571 -9.19661 9.64005 17
324 1 9.17362 -2.42622 -10.86 18
325 1 9.62061 -12.5309 -5.29956 17
326 1 2.91507 18.0842 -2.3584 12
327 1 -10.7362 14.5888 -3.12043 7
328 1 10.6719 7.60858 11.4779 12
329 1 -9.13518 -2.2917 5.79448 20
330 1 7.83421 -10.3216 -3.65344 21
331 1 -4.38883 11.8909 1.27047 20
332 1 -7.16289 8.06109 5.17438 20
333 1 5.34756 -12.753 8.66103 9
334 1 12.6109 -4.79623 4.07781 12
335 1 -3.15993 5.97727 7.00729 18
336 1 -8.69371 -1.78618 -8.47693 23
337 1 -1.89562 0.619279 14.2997 21
338 1 -2.54909 14.521 6.07559 24
339 1 9.14437 7.9213 16.2628 17
340 1 -8.01167 15.037 -6.68636 9
341 1 1.11723 -5.72362 -18.0781 8
342 1 -6.27718 1.41371 -4.63347 19
343 1 5.09353 -9.32977 -11.8549 17
344 1 -9.42484 3.43207 14.1562 20
345 1 -16.5126 3.71299 3.19853 11
346 1 -3.42092 -4.47047 -8.22431 15
347 1 -7.11772 10.6329 -0.0619451 22
348 1 7.58389 -2.73929 8.13744 18
349 1 -9.95546 -11.7084 2.58027 14
350 1 6.42121 -7.61086 8.2064 14
351 1 -8.6126 -10.87 13.0442 12
352 1 -13.6853 7.7382 0.965961 15
353 1 -2.44087 -3.05495 8.5628 20
354 1 3.47557 -13.5892 -7.48522 18
355 1 -5.49622 -2.0847 -9.38114 20
356 1 9.27688 -2.33362 -17.1457 10
357 1 3.72136 13.0368 3.92313 19
358 1 -12.0664 -1.44998 -3.41021 16
359 1 7.19266 -6.48556 -13.0501 18
360 1 10.0291 3.72457 -13.6425 14
361 1 -6.08338 -15.1964 -8.40204 9
362 1 -14.1845 -8.86852 -4.26171 11
363 1 -4.45854 -8.48954 -0.831559 15
364 1 11.8505 6.29107 17.6671 10
365 1 11.638 4.06496 -1.36819 18
366 1 -8.29222 4.33806 -12.3438 20
367 1 2.94356 17.7408 1.13813 10
368 1 -13.1681 -1.46728 -6.01996 14
369 1 -9.62353 9.3867 6.47381 16
370 1 -6.98366 13.5211 1.09048 23
371 1 -5.44362 7.05333 7.55926 19
372 1 11.0419 5.79102 14.5576 19
373 1 11.6621 -3.16547 -5.31663 18
374 1 9.27171 -2.74035 15.1273 12
375 1 11.8132 0.904549 -6.43147 18
376 1 -5.19262 -16.4615 -3.68257 14
377 1 -2.02245 6.67129 0.859674 22
378 1 -0.375709 -8.94596 -5.27401 12
379 1 1.92154 9.34622 4.63101 17
380 1 -9.54216 1.43132 -6.37438 17
381 1 7.54969 -13.3662 -2.54695 18
382 1 10.2947 -0.681066 7.30208 16
383 1 -10.3876 -3.65962 -5.6497 21
384 1 -6.81083 -10.5108 2.69016 15
385 1 -8.78757 -7.75926 14.7337 11
386 1 -4.55847 12.7088 -1.72528 21
387 1 -12.3841 -11.3747 -2.73593 9
388 1 6.71795 10.2497 16.3524 16
389 1 -8.91059 6.09998 -2.67872 17
390 1 0.156944 12.3941 -9.3809 23
391 1 5.8675 12.4798 4.74407 17
392 1 -13.4394 -8.55825 -1.54105 13
393 1 -2.314 -9.65961 -7.25075 17
394 1 -14.2889 -1.406 5.45546 18
395 1 -11.333 6.58223 -4.28209 18
396 1 4.88747 -7.6095 5.7288 15
397 1 -5.0123 -13.7374 -2.61891 16
398 1 12.7212 11.9561 9.78449 11
399 1 6.6941 8.27218 -14.3212 11
400 1 -13.5154 4.55772 -13.0171 9
401 1 -1.71431 15.1193 -8.86771 14
402 1 -8.62427 5.83635 -6.5049 19
403 1 -1.17881 -12.7433 3.56829 17
404 1 13.2379 4.00445 7.05693 14
405 1 1.03097 9.01309 -15.4569 12
406 1 -3.59631 1.48064 10.969 18
407 1 -14.3672 3.6022 0.774356 16
408 1 -7.27317 4.03798 5.87144 15
409 1 -5.66086 -14.2998 5.66015 16
410 1 2.23942 -4.95725 -7.81927 17
411 1 7.62919 -9.38617 -9.88944 20
412 1 -11.8119 0.635372 5.96822 19
413 1 -15.202 -1.85002 9.71564 11
414 1 -13.7789 8.43934 5.02634 15
415 1 -1.69587 -5.56406 9.99901 17
416 1 -8.23615 3.04609 -15.4996 16
417 1 7.20097 -10.002 -6.96024 18
418 1 0.728271 -11.2219 -11.61 20
419 1 -4.1315 -4.34071 12.8528 17
420 1 4.77782 -7.90568 -3.18791 15
421 1 -5.12252 3.38024 -16.4776 12
422 1 4.80608 -13.655 1.25045 18
423 1 3.02711 12.0387 -4.45938 21
424 1 -13.4269 10.7044 7.13195 12
425 1 -6.12751 -3.08022 15.8892 13
426 1 -10.9755 -6.97669 -12.2705 8
427 1 -8.48259 -5.05654 8.46279 19
428 1 10.4297 -6.11859 9.80548 14
429 1 8.71361 4.64207 -0.871839 19
430 1 4.47909 0.551262 -11.1506 14
431 1 9.52415 -8.47616 7.38814 7
432 1 15.3334 8.24585 -7.29282 13
433 1 -3.40309 3.01811 13.3806 20
434 1 1.70194 12.1069 -0.510492 19
435 1 4.72193 -5.37853 8.52456 18
436 1 -4.18345 -15.3695 -6.26817 16
437 1 -5.25691 5.65798 18.0504 14
438 1 -3.57917 16.5088 8.39649 11
439 1 -8.57703 -11.3415 -7.15082 16
440 1 8.6933 15.5199 3.13115 14
441 1 5.16516 7.15621 10.1555 20
442 1 -9.94289 2.45231 10.8019 17
443 1 -6.31671 -7.73126 -3.5817 20
444 1 -11.3911 5.1379 9.15849 19
445 1 -8.44052 -8.24469 -6.52245 20
446 1 -6.47879 10.9043 6.61256 21
447 1 -4.79987 -12.3954 -6.20881 20
448 1 -3.45929 -8.44154 -15.3654 16
449 1 -7.79609 -14.3945 2.68367 20
450 1 -6.61693 -1.37534 6.37547 23
451 1 7.88237 1.02983 6.38765 19
452 1 -5.58311 -6.68283 14.6842 10
453 1 -11.0197 6.25435 -11.6901 17
454 1 10.3846 6.40425 -3.50214 20
455 1 -7.55265 -15.7164 -1.98152 13
456 1 0.950655 4.49436 -7.70298 19
457 1 2.01136 16.1572 4.04889 15
458 1 -1.96761 4.90145 -7.45922 14
459 1 1.35037 9.30814 9.9635 16
460 1 -15.4846 -2.84901 -1.39497 10
461 1 0.274749 18.1549 -4.48004 10
462 1 5.90395 12.2059 -6.09881 17
463 1 -5.65963 -7.85888 -9.94971 18
464 1 2.66339 3.35081 17.4523 11
465 1 0.0344735 -15.366 -9.58327 15
466 1 -0.514959 -2.48031 -12.1316 22
467 1 7.57064 -15.5758 3.29005 15
468 1 -12.0023 7.18908 3.38545 16
469 1 2.62465 6.37797 14.2446 20
470 1 9.46752 9.75956 -2.05292 18
471 1 6.38417 7.46752 1.76427 16
472 1 -7.07876 9.92901 -10.5418 19
473 1 4.02276 3.05603 -6.81139 18
474 1 2.87124 -7.47483 2.62464 16
475 1 -16.2458 -4.88355 0.575564 12
476 1 2.45586 17.2097 7.58791 11
477 1 -3.11513 4.26367 -14.2881 19
478 1 11.5077 7.42189 -0.729765 19
479 1 3.76111 14.0224 -6.30354 18
480 1 6.75098 -5.98308 -0.273515 14
481 1 15.2157 3.82492 -2.45771 10
482 1 -0.583366 0.561569 -12.2433 20
483 1 2.63025 -10.3771 -1.50886 17
484 1 1.04253 -14.9758 5.20294 19
485 1 1.67704 -9.71749 11.0784 11
486 1 -9.90392 4.63165 -9.66614 15
487 1 -12.6517 -14.594 7.22102 13
488 1 -1.70509 -13.2459 -11.2042 20
489 1 8.09347 16.259 7.07708 7
490 1 2.19904 2.46451 -12.1815 19
491 1 3.82358 0.983956 14.8866 13
492 1 -14.0711 1.95063 10.2127 13
493 1 -2.85367 -17.0474 0.873784 12
494 1 -13.3167 -4.7074 1.03654 19
495 1 14.4198 -5.2441 -6.21045 12
496 1 11.8469 -1.38479 -2.54795 18
497 1 -4.98757 8.12677 -3.9417 17
498 1 2.24732 -7.57458 -5.57141 16
499 1 5.40947 3.43251 -11.0333 17
500 1 10.4894 -4.48248 -8.85278 21
501 1 -6.56926 0.372415 16.0141 17
502 1 5.04665 15.1402 1.8109 20
503 1 -4.79883 -2.67085 -17.0611 11
504 1 5.77091 2.4232 -14.9754 15
505 1 -6.97079 -2.75282 8.91613 19
506 1 -3.68109 15.0003 0.751989 16
507 1 -9.27339 -2.89613 -15.1511 11
508 1 -13.0585 2.1802 3.51389 16
509 1 -2.15249 -11.1355 -16.8365 11
510 1 -7.22127 -11.625 10.692 16
511 1 0.45994 9.19781 -7.49877 19
512 1 17.0869 5.96101 10.6403 9
513 1 15.7208 7.48472 -0.669118 9
514 1 -9.35092 -12.9092 -2.44043 16
515 1 -0.86049 -11.2279 -3.30495 15
516 1 -0.992302 -2.93682 -18.0617 12
517 1 -8.4336 10.8103 11.2456 15
518 1 1.91978 -4.23138 -10.7364 19
519 1 12.1273 -4.48608 -1.97521 19
520 1 2.83344 14.8675 -9.32582 16
521 1 6.7025 -11.7542 0.579029 19
522 1 14.2804 6.17629 -9.83419 12
523 1 2.45705 9.67073 14.9001 21
524 1 -11.8705 2.06015 8.60962 16
525 1 5.8613 11.4831 10.9478 18
526 1 9.12866 0.0635547 16.6137 13
527 1 1.54248 0.709228 -14.9727 18
528 1 -6.56579 -5.76922 -7.02149 13
529 1 -0.920094 -0.971102 11.4464 19
530 1 10.4937 9.43333 8.84055 16
531 1 6.57302 7.47721 -8.18885 16
532 1 -6.4026 9.25874 -5.9472 16
533 1 0.127666 13.5383 -2.83819 19
534 1 11.3213 -1.4723 12.6618 18
535 1 11.1791 0.661617 -12.8662 12
536 1 12.5914 -11.9894 -4.74973 7
537 1 11.4864 11.44 13.3304 11
538 1 -13.8867 -7.89562 0.988253 14
539 1 -6.35508 12.3802 -12.1023 11
540 1 -1.09865 0.97195 8.81067 17
541 1 -13.1203 0.31182 16.2109 6
542 1 -4.03864 14.2076 -10.3349 12
543 1 4.50283 -12.3844 -3.32744 19
544 1 7.16061 -2.84063 -8.32768 18
545 1 -1.7526 15.6684 -5.45446 16
546 1 -7.89111 -5.2657 -13.307 13
547 1 4.06004 -16.1548 3.91622 18
548 1 -11.8717 -4.86791 -1.66705 22
549 1 1.60018 11.3458 -13.6417 12
550 1 -8.02765 3.84373 -4.82345 18
551 1 -1.86138 9.47565 15.651 13
552 1 -11.5214 -5.79115 9.36367 19
553 1 6.8334 9.61554 -1.14397 18
554 1 2.55923 -10.3667 -8.76141 14
555 1 4.52422 -4.69327 11.8924 14
556 1 7.993 1.66043 -5.25856 20
557 1 -8.99729 6.1262 0.653279 18
558 1 5.6817 4.85866 18.3474 12
559 1 5.24601 16.5761 -4.47441 12
560 1 7.70488 -7.52553 -2.10246 18
561 1 3.0386 8.56471 11.975 19
562 1 0.771588 3.78554 -18.7323 13
563 1 -6.8012 -13.6938 8.91149 13
564 1 -1.33847 1.2579 -7.89722 20
565 1 6.20669 2.07529 -18.2027 13
566 1 3.41361 14.5952 6.53132 18
567 1 9.27551 3.82915 -10.6492 19
568 1 -0.660269 -4.18804 -15.5084 17
569 1 -4.3434 -11.1243 -3.32581 20
570 1 -11.8767 -3.67373 -12.2148 12
571 1 13.6301 3.38564 0.429029 15
572 1 16.1011 6.47624 -4.24812 10
573 1 7.50001 -6.81022 -7.98185 21
574 1 14.4701 9.87649 13.9 9
575 1 4.64982 -9.95166 -4.82209 17
576 1 3.44211 5.05233 -19.1527 9
577 1 6.41133 13.0434 2.39084 19
578 1 -5.90714 4.75431 3.08374 15
579 1 9.1729 11.0573 14.9032 14
580 1 13.4302 7.35843 -2.4822 21
581 1 14.0836 -1.58244 2.44 12
582 1 12.008 4.40148 -8.98542 19
583 1 10.0603 2.91644 15.159 18
584 1 15.9088 7.04171 13.1744 11
585 1 2.0678 -4.08128 9.873 16
586 1 13.6939 13.1306 -3.81741 12
587 1 1.24935 2.15096 15.1688 14
588 1 14.3452 -1.0307 -7.27325 13
589 1 9.58144 3.00122 9.35763 16
590 1 -7.25937 0.841419 -8.23405 19
591 1 14.1428 6.1569 1.2614 17
592 1 9.90762 -3.55783 2.69305 16
593 1 -13.0453 7.14586 11.091 10
594 1 8.34859 9.63039 12.5085 17
595 1 11.651 3.4874 12.0407 18
596 1 4.22288 9.6777 8.38959 18
597 1 0.227274 12.4529 11.1059 16
598 1 6.41325 3.58023 5.95316 16
599 1 -1.75269 -16.5151 3.56413 18
600 1 -6.59498 10.7337 -2.94941 20
601 1 10.8115 10.149 -8.00223 18
602 1 11.6794 -2.11234 -14.8191 10
603 1 1.2719 16.1327 -1.6116 19
604 1 -2.90977 -13.0992 -8.66536 21
605 1 10.8194 -6.84551 -14.2243 14
606 1 -15.6146 1.54623 5.5773 14
607 1 -5.16121 5.70638 -12.1171 22
608 1 -5.21599 -16.1723 3.73673 17
609 1 -7.02073 -0.79033 -11.3267 21
610 1 -12.9724 1.82117 -4.5511 19
611 1 10.7202 -7.20767 3.61974 14
612 1 13.203 11.1946 4.09475 15
613 1 0.66617 -9.72384 7.41641 18
614 1 -13.9301 -1.1305 -8.75717 11
615 1 2.67101 1.48025 -19.7709 12
616 1 -2.93214 4.69136 16.1359 20
617 1 5.42014 8.74395 -11.2167 17
618 1 13.1633 1.13144 12.4667 15
619 1 9.85818 5.20514 -6.94155 18
620 1 11.959 14.2758 2.85024 10
621 1 3.18582 -16.0775 -8.89439 8
622 1 -10.7827 -2.71029 14.5551 15
623 1 12.2248 -1.63956 4.60535 16
624 1 0.0275594 12.5948 14.6886 12
625 1 6.87661 11.9115 -11.1247 12
626 1 -12.804 9.876 -4.37048 12
627 1 9.01795 10.4819 3.58628 23
628 1 -9.87646 -15.0281 0.363146 12
629 1 12.2465 -3.28659 1.22654 21
630 1 7.56291 18.7562 3.43986 9
631 1 -5.33052 5.09631 10.9408 16
632 1 -9.54698 -5.18519 1.55285 22
633 1 -11.1619 -2.62534 -9.01673 20
634 1 8.76066 0.269338 13.3356 20
635 1 -4.22074 -10.9712 11.1674 11
636 1 7.40986 5.35074 14.3264 18
637 1 -5.84075 15.9678 -1.03796 14
638 1 10.0587 5.20082 1.49194 16
639 1 8.66703 4.02559 4.28508 19
640 1 1.71412 0.143178 -17.836 14
641 1 -9.92446 -1.44296 8.44263 17
642 1 8.53408 -1.40192 -13.7671 18
643 1 -0.613346 -6.89731 -7.52483 16
644 1 11.0607 -9.67802 -6.13814 18
645 1 8.00412 5.87195 7.93659 17
646 1 5.24445 4.69484 3.67742 19
647 1 -10.1584 0.258764 15.2264 19
648 1 12.8562 8.26622 8.27344 17
649 1 0.210722 -0.937205 14.5299 12
650 1 -2.99031 6.13373 12.7227 18
651 1 1.19127 -5.60472 -13.6421 18
652 1 -6.40975 2.30745 12.7016 19
653 1 7.08707 3.22418 11.7552 13
654 1 -13.4724 -17.2398 8.29245 6
655 1 13.7962 9.01926 0.947863 20
656 1 6.59428 -12.7812 -5.3473 19
657 1 -5.07303 5.92775 -6.32152 16
658 1 9.1017 11.907 0.291379 20
659 1 8.96365 13.6778 5.08155 16
660 1 4.90306 -1.02839 -19.0135 9
661 1 1.84555 15.0473 -4.47578 24
662 1 11.5189 11.1488 1.29699 20
663 1 -6.81979 -10.2944 -1.42115 17
664 1 -2.28514 -0.435342 -17.3354 12
665 1 -10.1294 11.9892 0.512206 15
666 1 9.13958 -6.18601 -10.9314 18
667 1 8.24302 7.01994 4.57287 17
668 1 10.889 7.31267 -9.40809 17
669 1 10.0274 13.0361 -2.86753 17
670 1 -4.01505 6.62687 4.0679 18
671 1 -8.52713 8.49517 2.70874 18
672 1 7.20593 5.1262 -5.64951 21
673 1 12.8533 3.43686 15.3434 16
674 1 11.6276 -0.0534002 15.3334 13
675 1 -1.02484 -12.1759 9.98815 12
676 1 -5.89532 9.39353 -13.3128 12
677 1 5.91681 12.3582 7.97153 19
678 1 8.80864 -8.4761 -16.6276 9
679 1 4.51092 4.17819 11.2064 19
680 1 6.64171 13.1266 -3.70746 18
681 1 9.39636 11.7086 8.22321 16
682 1 11.4272 -6.21524 -4.27955 22
683 1 6.74108 7.76453 18.5499 13
684 1 -12.5183 -2.65332 7.58734 20
685 1 2.8096 -15.519 1.19028 17
686 1 0.90393 -0.813559 -9.9604 16
687 1 -9.59425 14.4377 2.21336 11
688 1 -0.191029 4.67162 7.24494 19
689 1 6.99937 -5.2094 -4.44494 17
690 1 3.13221 8.69607 1.41095 23
691 1 -14.1403 -1.74212 1.0734 17
692 1 -2.91843 3.99687 19.0772 14
693 1 -4.10175 7.66362 -14.4885 12
694 1 -8.1298 7.55623 -13.1021 15
695 1 5.77513 -14.814 -1.11208 17
696 1 9.25876 8.03487 -6.30077 21
697 1 5.61868 -7.61385 2.93748 17
698 1 -2.33678 9.68122 1.54593 19
699 1 -13.0043 3.85947 12.3217 14
700 1 4.55573 -3.56423 -13.3325 18
701 1 2.11241 -12.5733 6.65196 17
702 1 2.31777 14.2962 1.38313 17
703 1 -3.93584 1.75255 16.4027 20
704 1 -8.26032 -6.67877 -10.9387 16
705 1 -4.8608 -10.4949 -14.5297 14
706 1 -8.45427 -12.5075 -10.826 7
707 1 0.45155 16.7057 -7.80377 12
708 1 4.10229 -4.65476 -5.47244 17
709 1 -3.80597 11.7211 8.2729 22
710 1 5.91885 -11.906 -8.62833 17
711 1 7.11004 -17.9113 0.887347 9
712 1 3.49763 -8.91157 8.0054 18
713 1 14.5951 2.97127 -8.74604 11
714 1 -0.68727 -16.4419 -6.34982 14
715 1 -12.4857 -0.777546 9.53226 17
716 1 -6.13573 -17.9979 -0.598847 9
717 1 -7.49535 -11.0921 -4.55049 20
718 1 -11.9383 1.09825 12.5876 19
719 1 -8.45763 -17.2794 2.13178 10
720 1 14.7551 5.31457 -6.85027 15
721 1 -4.81137 16.5387 4.97999 13
722 1 -4.59494 3.30043 8.42553 17
723 1 -16.4978 7.7361 3.36494 9
724 1 10.0678 -1.88545 -0.185501 13
725 1 -13.6194 -1.73418 -11.226 11
726 1 0.629772 9.33929 -3.83323 20
727 1 9.61064 2.66678 -7.768 18
728 1 6.53363 12.4067 13.7499 14
729 1 9.48753 3.65661 -3.72171 24
730 1 -14.5922 1.74737 -7.40441 13
731 1 -12.3521 -6.76604 -6.68257 16
732 1 -2.04449 7.06554 17.9586 15
733 1 4.11895 5.65984 -12.3883 17
734 1 11.719 12.2606 5.74228 13
735 1 -4.08193 -1.69416 11.1572 20
736 1 -2.26021 -16.6785 -3.85372 13
737 1 -9.75799 -18.6015 7.54621 6
738 1 -4.86601 -5.13449 8.82028 17
739 1 14.319 9.27646 10.5234 16
740 1 1.48309 -7.55365 -10.3237 19
741 1 -6.74192 7.70558 -1.10195 19
742 1 7.5069 9.82388 6.07947 19
743 1 -9.85392 -4.82949 5.04576 21
744 1 8.81718 6.62775 -11.8872 11
745 1 -2.73586 -20.1989 -3.38888 2
746 1 0.800465 -18.9608 2.39799 11
747 1 -0.00270291 -15.6369 -0.796571 16
748 1 4.58363 5.39642 -8.53078 18
749 1 7.20437 16.7607 0.932563 12
750 1 -1.46716 -1.17969 -14.5961 18
751 1 -0.644343 2.12986 11.5896 17
752 1 1.50216 6.54036 -17.0041 14
753 1 -11.7517 -0.844904 -14.4802 11
754 1 -8.62244 -5.80678 -1.43118 15
755 1 2.88025 17.0562 -6.35579 13
756 1 7.0793 2.09612 0.143677 18
757 1 -3.49784 -6.13425 -17.0458 12
758 1 -7.77037 -7.91639 0.513383 17
759 1 12.3567 7.22433 -6.07222 20
760 1 12.4552 -7.13935 -1.1997 14
761 1 -6.35504 7.91888 11.6848 20
762 1 8.05955 -8.93442 1.77159 19
763 1 15.678 -4.18536 1.14796 7
764 1 12.7247 -4.00692 10.4445 10
765 1 -1.42776 11.6109 7.3658 19
766 1 -11.632 3.43784 15.6018 13
767 1 -8.12569 5.1862 11.8064 19
768 1 -2.24439 -14.64 9.38323 9
769 1 10.5294 2.30699 1.97584 20
770 1 5.45523 9.5981 13.1755 20
771 1 -12.2569 1.47489 0.457031 18
772 1 10.2585 -9.12109 -3.10005 18
773 1 -11.543 12.8576 -5.04415 8
774 1 2.7824 6.22307 3.5101 19
775 1 2.52362 -17.1049 6.63234 10
776 1 5.51913 0.721334 12.5009 18
777 1 0.212018 13.2121 5.00549 20
778 1 2.83404 -10.3549 4.87625 19
779 1 -7.40212 -3.57888 -5.32369 15
780 1 2.50528 3.1533 12.8257 21
781 1 -15.4571 -5.94503 -2.96758 12
782 1 0.531158 10.3118 16.9273 13
783 1 4.06458 11.0673 0.713166 23
784 1 -11.5817 -11.751 5.71703 17
785 1 -3.56117 -16.6198 6.50869 12
786 1 7.14223 -4.31528 10.5596 20
787 1 10.5618 -4.72542 7.1233 13
788 1 7.17976 9.01291 8.89572 20
789 1 -1.20757 7.89835 -1.78198 17
790 1 -0.825468 -9.48204 -10.3521 19
791 1 -3.13824 1.35026 -14.4796 15
792 1 -5.16976 -0.0600673 13.8747 23
793 1 -1.44978 16.4133 2.89759 11
794 1 13.1091 1.33509 2.87451 19
795 1 2.68897 8.0797 -6.23855 18
796 1 -4.9011 7.51944 15.7936 18
797 1 7.51752 6.80355 11.4732 17
798 1 6.61859 -4.24103 -11.3598 18
799 1 -7.304 -13.2458 -0.280967 16
800 1 -5.77619 -1.71309 -6.55626 19
801 1 13.9162 0.341033 7.42357 13
802 1 4.39139 -2.32727 -10.9186 18
803 1 -0.325133 7.31725 15.6271 21
804 1 9.15298 -11.9265 -8.23196 14
805 1 5.84595 6.22968 -16.7523 12
806 1 -2.87637 -8.44069 -3.89314 13
807 1 12.0847 3.49934 -11.6055 13
808 1 14.5113 -2.42687 -0.909861 15
809 1 1.13986 -5.73106 12.287 13
810 1 -2.35275 -9.80996 -12.485 22
811 1 7.08796 13.7115 -0.848657 19
812 1 -0.602337 -7.52501 7.01954 15
813 1 -14.934 5.55681 4.67284 17
814 1 12.0671 3.87655 -5.50686 19
815 1 17.1008 6.5978 4.11169 9
816 1 3.05949 -5.72239 -16.4603 15
817 1 -8.79263 12.6708 5.66951 16
818 1 17.3706 11.7604 9.62405 5
819 1 11.2483 13.2827 -5.99063 13
820 1 2.92638 3.51232 -17.0452 19
821 1 8.98392 -4.01762 -2.89281 19
822 1 -9.1341 1.07521 -3.02279 18
823 1 11.3158 7.83038 2.53665 21
824 1 -10.8955 -8.3978 1.89756 21
825 1 -11.148 10.3744 -9.4472 10
826 1 5.26633 6.92194 7.36759 18
827 1 -11.542 0.646802 -7.76628 19
828 1 -13.4416 4.0617 7.16577 16
829 1 -3.57819 3.45091 -9.51435 17
830 1 10.6748 -7.70146 -8.81805 15
831 1 -10.9056 -9.09539 -5.76672 17
832 1 13.1914 -8.49195 -4.13858 11
833 1 -16.5068 5.86581 1.24642 10
834 1 -9.01113 -6.35986 -4.58117 21
835 1 16.0716 8.15136 7.1659 14
836 1 -6.26004 -10.2491 6.91136 17
837 1 11.1173 2.70256 17.8785 12
838 1 12.6219 -2.92231 7.22498 14
839 1 8.05392 -2.66825 5.30162 15
840 1 -11.5088 4.9841 1.63498 16
841 1 0.47763 10.064 12.8446 18
842 1 3.1653 8.35506 -9.2947 18
843 1 -0.61423 -7.98521 -16.9329 14
844 1 -5.41501 13.9567 6.80719 18
845 1 -13.5865 -11.8756 8.70242 15
846 1 8.8079 10.96 -5.35151 19
847 1 -0.11211 7.48384 12.3421 17
848 1 14.8633 -2.68859 -4.52865 11
849 1 7.60065 -7.13743 11.1263 10
850 1 -0.927653 12.6818 -12.6641 14
851 1 3.2045 11.3763 -8.02702 21
852 1 -6.6938 -0.464193 10.9503 16
853 1 16.7546 5.02378 7.28949 10
854 1 -4.40113 -2.50706 -13.0369 17
855 1 14.3729 12.1106 1.65227 13
856 1 -13.6826 3.27163 -2.10997 14
857 1 -4.37534 -11.954 8.32114 18
858 1 5.84639 13.7096 -8.81297 13
859 1 7.93201 -1.02832 10.6801 20
860 1 -1.96408 -14.0926 -2.83879 15
861 1 -7.63894 16.5815 2.66826 13
862 1 -14.9842 5.73256 -2.08864 13
863 1 11.3351 -1.6063 -8.79565 17
864 1 -0.157914 -13.0779 -14.1491 14
865 1 -9.14764 5.59429 3.86709 17
866 1 14.1483 11.7389 -6.73351 9
867 1 -4.75779 -1.0646 8.47483 17
868 1 6.63412 -4.21613 -15.1081 18
869 1 -7.60716 -9.97012 -9.40616 18
870 1 -1.41886 -12.7603 -6.00663 19
871 1 -4.15142 9.67042 13.4732 17
872 1 8.51118 -15.0878 -0.0245959 12
873 1 -0.935535 9.60925 -12.8732 17
874 1 14.3968 2.874 -5.06676 15