ITEM: TIMESTEP
16000
ITEM: NUMBER OF ATOMS
2000
ITEM: BOX BOUNDS pp pp pp
-30.0 30.0
-30.0 30.0
-30.0 30.0
ITEM: ATOMS id type x y z Coordination
1 1 -9.89401 6.69266 -14.2533 14
2 1 -3.43573 -9.74744 -6.79319 19
3 1 6.3316 16.7807 6.99637 17
4 1 5.77347 -6.30627 6.1799 19
5 1 -14.3299 11.609 -1.88428 13
6 1 11.3543 -7.70988 -11.7445 8
7 1 -12.8866 3.90599 -9.09908 14
8 1 1.57503 -5.703 10.6872 20
9 1 -6.58248 6.68082 -14.119 18
10 1 -10.1976 -12.87 7.95728 9
11 1 19.5076 4.48027 -3.36655 8
12 1 -4.62771 -16.2819 2.20499 9
13 1 -11.067 -7.6984 -4.10963 14
14 1 4.32591 5.53222 16.4493 10
15 1 -3.52015 18.0354 -9.64326 8
16 1 7.20434 5.20951 11.2485 23
17 1 -8.57056 1.65848 -13.5646 16
18 1 -12.6946 -5.94022 7.99933 12
19 1 14.9419 2.7263 7.78123 11
20 1 2.29509 13.4782 -12.3084 16
21 1 4.74343 6.12317 -18.6455 9
22 1 14.8885 6.52153 8.74261 11
23 1 -14.06 6.18194 -9.95785 12
24 1 -10.8843 12.1147 7.57763 11
25 1 8.79605 -5.48627 8.83746 13
26 1 4.01721 -9.43394 -14.3533 13
27 1 9.04035 -10.0385 3.65961 8
28 1 -9.17999 -12.9822 -6.24565 17
29 1 -16.4203 2.02004 4.8409 9
30 1 -0.535286 -11.8856 -10.5017 19
31 1 6.3193 -10.5672 -12.3922 12
32 1 -4.93594 7.71094 -16.8157 13
33 1 -0.402029 2.71967 14.4033 13
34 1 -8.47927 -7.50333 3.99077 18
35 1 -0.459652 0.522132 11.8287 20
36 1 -13.7983 3.6164 0.79412 17
37 1 -9.8535 2.42961 9.13549 19
38 1 -2.69591 13.5858 -2.87841 16
39 1 0.213841 -13.5766 -12.7226 13
40 1 4.79217 -2.07561 -12.6943 20
41 1 -1.37896 -1.71292 10.3589 17
42 1 -11.8342 5.78066 -1.48142 18
43 1 7.7054 13.5671 -11.8411 16
44 1 3.34539 17.6236 6.63836 18
45 1 -8.96752 10.9932 -4.3341 19
46 1 -2.00716 16.657 -3.94724 20
47 1 2.56647 -10.5731 -0.259438 20
48 1 9.51681 -10.3172 -6.90268 14
49 1 2.12327 -0.468564 -16.1508 21
50 1 -6.46488 8.81269 9.21107 22
51 1 -14.7272 -5.94134 -9.23479 10
52 1 -7.07669 10.3694 -6.55008 21
53 1 -11.7271 -7.32735 4.98654 18
54 1 -8.26339 14.5984 9.51042 12
55 1 -14.7807 9.50067 -6.95109 14
56 1 -8.86714 11.4352 13.0884 9
57 1 -5.15971 -14.3645 4.54744 10
58 1 7.31331 -9.91053 -4.06499 18
59 1 1.23732 17.4916 8.71865 16
60 1 -11.3942 0.807963 -11.8022 14
61 1 -13.1105 9.40254 -9.63018 18
62 1 4.6701 13.7164 12.4661 9
63 1 11.4337 0.930785 -10.9116 15
64 1 7.28031 -6.37769 3.09144 22
65 1 -16.7008 3.36662 -1.51128 12
66 1 3.55748 17.628 0.75972 22
67 1 8.46734 -2.04757 13.5175 12
68 1 -12.15 -10.1631 3.11856 9
69 1 17.1629 3.92303 2.38509 11
70 1 3.65852 14.773 8.25484 21
71 1 -5.91698 -4.53063 -7.90661 22
72 1 -11.0796 7.52219 6.52599 20
73 1 -8.73939 13.2403 -6.79418 17
74 1 -1.62051 11.9578 -10.4595 19
75 1 6.44955 15.6312 -4.87173 18
76 1 4.0316 -7.72877 11.7953 12
77 1 -12.0362 14.7865 -8.46859 11
78 1 -10.9134 14.132 -4.89056 14
79 1 -13.656 -0.891461 10.152 13
80 1 -4.05979 11.9226 3.86713 17
81 1 -5.11486 -2.73069 9.55874 21
82 1 10.5312 -1.64159 -9.06715 22
83 1 -8.82638 7.54397 3.79726 21
84 1 -9.98252 -13.9193 0.289502 12
85 1 12.592 -5.78401 -4.63048 10
86 1 4.4888 1.03017 -17.8454 14
87 1 -5.78188 3.09054 -17.1311 11
88 1 -1.40756 16.2691 -1.40838 16
89 1 -2.17529 10.466 -12.7059 18
90 1 1.52228 8.51031 14.322 12
91 1 7.32605 15.7366 -9.2239 15
92 1 -16.6987 10.9251 0.989049 8
93 1 -7.42781 -5.44619 8.30486 19
94 1 13.7433 -0.0990388 4.92395 14
95 1 5.53211 -4.70892 -11.078 18
96 1 7.64594 0.309493 14.3123 17
97 1 -9.04021 -5.05893 -3.05505 19
98 1 -6.88417 -16.8598 -4.26819 9
99 1 5.88907 -8.55024 4.3178 19
100 1 9.82366 5.23584 -15.3446 11
101 1 6.93277 20.9161 -1.20245 10
102 1 -8.26878 -10.1689 9.28977 11
103 1 -12.7327 -12.1884 8.82196 6
104 1 3.54678 -4.82729 -16.4818 17
105 1 12.052 -4.6439 -7.63084 15
106 1 -2.5741 -13.8758 2.93859 16
107 1 -6.79883 -7.03479 -2.54416 18
108 1 13.2778 10.9924 8.40233 14
109 1 14.2613 1.78246 -9.57715 13
110 1 -15.1438 -4.85338 0.38137 17
111 1 6.9174 11.1079 4.93605 18
112 1 9.78792 11.1864 2.76261 15
113 1 -7.57665 3.88132 10.9323 19
114 1 -5.25812 11.0119 14.5522 13
115 1 0.619902 17.818 -5.13996 18
116 1 -0.851243 -2.35807 -12.92 19
117 1 6.68268 -5.55971 -15.2959 14
118 1 -0.616674 15.2605 -13.0735 9
119 1 5.75458 -2.71328 13.6221 16
120 1 -3.49692 -1.50202 -19.1667 10
121 1 -2.88841 10.2797 -7.39463 21
122 1 11.6149 0.733725 -6.1081 19
123 1 -12.6383 7.1763 -6.65191 17
124 1 -1.85003 17.3685 -7.08629 16
125 1 8.71388 5.19257 -9.58905 21
126 1 7.90889 -4.58485 1.0977 21
127 1 -6.20823 13.0417 12.3015 14
128 1 15.854 8.59041 -4.8093 17
129 1 7.87135 12.3102 -4.92829 22
130 1 -6.21869 16.8512 0.946208 12
131 1 11.1082 11.6487 -2.82116 18
132 1 -5.41527 12.64 -6.74925 15
133 1 2.26833 16.7989 -7.37379 18
134 1 5.33418 9.70937 -14.747 16
135 1 -14.5532 -7.24501 -0.558695 14
136 1 -10.7175 9.65957 -6.57418 19
137 1 -7.23185 -1.89334 -13.3691 18
138 1 -4.06691 -9.70122 -15.9235 10
139 1 4.00461 20.5129 7.55465 12
140 1 0.6326 14.9436 6.32034 17
141 1 -13.2306 -1.75405 -6.21072 19
142 1 -13.0549 11.6087 2.68424 14
143 1 18.0627 5.47985 -5.71651 13
144 1 -11.2522 2.89457 -14.547 13
145 1 7.90813 1.14048 11.4822 19
146 1 5.55182 20.6848 1.8868 11
147 1 -4.06736 12.686 7.19167 14
148 1 4.7687 -1.95546 -18.774 16
149 1 -5.02824 17.4067 9.13279 14
150 1 -2.56444 14.8377 -9.65949 19
151 1 1.69873 -6.03517 13.6487 10
152 1 -10.3414 -1.98503 1.65756 20
153 1 -1.2298 -10.5109 -13.8641 13
154 1 -8.13439 9.81167 -13.2505 9
155 1 -3.87867 -8.11656 2.57046 16
156 1 -1.92389 -13.5167 -3.06188 13
157 1 -4.48626 10.9689 -18.7121 6
158 1 -11.9352 4.99403 3.96909 20
159 1 7.97063 12.7514 -2.0644 20
160 1 -14.7871 7.47377 10.9263 9
161 1 -3.57536 -9.80989 12.607 9
162 1 1.81784 14.1519 3.51666 16
163 1 -0.995783 9.91236 6.55976 21
164 1 10.5611 0.522233 12.29 17
165 1 -10.5598 15.9943 -2.14602 10
166 1 8.16644 0.177757 -9.08519 19
167 1 -6.45855 16.1808 12.0345 9
168 1 8.21055 -4.21303 -1.79868 21
169 1 -15.6784 0.749838 -3.12386 14
170 1 -7.59197 -12.3918 -3.74185 18
171 1 2.76983 5.6299 13.5679 22
172 1 -18.3918 -0.383971 0.0549873 8
173 1 -2.71258 -10.2145 -3.77994 23
174 1 -1.16459 12.9658 1.83109 18
175 1 2.96198 15.4741 11.1881 16
176 1 -6.22743 15.3609 -10.3943 12
177 1 -15.6112 -4.27715 -6.45142 13
178 1 -3.11165 2.28048 12.6208 14
179 1 1.29034 -9.00631 2.40099 19
180 1 6.49493 -8.39161 9.20006 9
181 1 -10.1385 13.4645 1.22708 14
182 1 14.169 -2.3364 7.43461 8
183 1 -6.33073 -4.44668 -15.2077 17
184 1 2.04561 2.22658 12.6888 17
185 1 3.90145 -10.6484 3.2769 22
186 1 -3.27596 5.41981 -12.8633 20
187 1 2.87585 -12.4518 -12.589 12
188 1 10.1016 -1.05895 -16.2958 11
189 1 4.76914 9.51977 -20.0381 5
190 1 -9.27114 -4.77404 -9.72378 18
191 1 -12.7204 12.0455 -7.07939 13
192 1 -9.62559 -7.62898 6.90324 17
193 1 5.97875 18.882 -3.79979 13
194 1 -7.11448 5.05575 13.4586 16
195 1 -5.57085 16.5106 -7.78574 15
196 1 5.43599 2.57983 9.6009 20
197 1 -1.339 -7.50039 -12.1805 18
198 1 -3.05164 9.87354 -16.4826 16
199 1 1.49613 7.69243 -10.7886 22
200 1 -13.0473 -8.76124 7.89758 8
201 1 -7.86687 8.68251 6.70114 17
202 1 -4.53261 11.2757 10.2083 21
203 1 -1.80102 -7.4554 -8.69895 19
204 1 -6.62808 -14.2446 -6.60125 15
205 1 8.84332 -9.9386 -1.23964 18
206 1 11.4477 6.52941 12.3136 15
207 1 4.59627 8.13507 -9.48716 23
208 1 -17.0837 10.4206 -2.62185 9
209 1 -0.866756 7.2525 8.55197 21
210 1 5.48231 -15.4984 1.32287 9
211 1 13.4457 3.46202 -7.08377 18
212 1 -11.9037 7.9061 1.33599 16
213 1 -7.37676 -11.991 -0.856541 16
214 1 7.01051 3.35905 -13.5139 22
215 1 2.41938 -0.867055 11.3265 16
216 1 9.93216 14.4517 -3.6271 20
217 1 -3.44474 0.0682821 -13.2232 20
218 1 0.0853934 -14.728 3.39922 11
219 1 6.89918 2.65547 -10.3285 23
220 1 -11.9404 1.00053 2.25294 18
221 1 4.17087 -13.0361 -7.53253 13
222 1 -10.5043 -1.25393 -8.12653 19
223 1 5.66593 17.6478 -7.14342 15
224 1 -0.298272 0.461022 -14.7835 18
225 1 8.49962 10.8283 10.7065 17
226 1 17.004 7.25863 0.912238 14
227 1 7.77018 -3.19197 -17.7778 12
228 1 -6.3078 0.0698446 -11.194 20
229 1 -5.1949 10.6228 -12.0575 14
230 1 -8.2359 -12.8586 4.79697 9
231 1 9.56001 0.362724 9.33506 20
232 1 -5.94822 -10.4916 -11.4125 18
233 1 2.19093 10.667 -13.1347 17
234 1 0.5005 14.0104 -2.8199 18
235 1 -12.901 1.46494 12.6288 10
236 1 -12.1319 -4.39792 -8.24104 20
237 1 -6.15544 -4.06966 -11.6582 18
238 1 -2.66039 7.58213 -19.0292 9
239 1 -6.72024 -6.91224 -5.84766 19
240 1 8.38234 -5.32011 -12.2878 18
241 1 10.1463 2.17551 -14.5102 11
242 1 11.0273 6.0084 -0.18207 18
243 1 -10.8357 4.45339 11.046 19
244 1 -4.60611 -8.66956 -0.997973 20
245 1 9.7317 6.37255 9.25682 17
246 1 -8.90769 -10.0787 5.68358 17
247 1 -0.298741 -10.4065 -1.64611 22
248 1 -4.15719 20.7612 -2.90864 10
249 1 5.46722 3.31971 -16.4498 15
250 1 -6.04171 0.886052 -14.4264 18
251 1 -17.3328 -3.73982 6.84984 9
252 1 -0.835893 10.4082 10.1302 19
253 1 2.24297 -11.3473 -2.81508 18
254 1 -4.81754 -12.7721 -8.83653 15
255 1 -14.3503 8.23788 -12.1363 11
256 1 10.6347 8.27272 4.75853 17
257 1 -5.34841 6.01728 -10.9868 20
258 1 3.79233 7.98691 -12.6727 19
259 1 4.97758 -12.8353 -10.1438 12
260 1 -13.7685 12.9209 0.665603 13
261 1 1.54861 11.647 3.97198 18
262 1 10.8086 2.59171 6.09538 15
263 1 -9.19631 5.44502 6.11885 18
264 1 -1.35334 -7.10538 12.1256 16
265 1 -11.3752 10.8608 -0.370119 18
266 1 1.6777 -3.31585 -14.3295 19
267 1 16.0137 12.9917 -0.283538 12
268 1 5.89349 -10.5087 -1.24126 21
269 1 -6.11334 -5.42816 10.9989 16
270 1 -15.2327 -1.38131 1.1674 17
271 1 2.0421 -13.7725 -5.13436 10
272 1 -8.76613 7.86095 11.8732 13
273 1 -5.50099 6.22444 10.0412 20
274 1 -10.6879 -2.29931 5.04651 20
275 1 -11.7124 -5.9962 1.55466 17
276 1 13.8689 2.54026 -0.917738 18
277 1 -13.0602 -0.702818 4.83038 21
278 1 7.96623 0.579174 -12.3006 22
279 1 10.3228 -10.2017 -3.98467 12
280 1 3.88371 19.9682 -1.24982 14
281 1 -12.5427 10.6317 -4.24059 17
282 1 6.76494 10.8573 8.00056 20
283 1 7.46012 -6.92019 -3.41513 22
284 1 -7.1471 13.0676 1.89194 17
285 1 0.880628 -8.62366 9.3753 12
286 1 10.2469 -5.11089 3.27516 13
287 1 3.221 -3.19718 15.0457 11
288 1 -1.97028 16.0002 4.01184 19
289 1 9.51116 6.22672 14.7499 11
290 1 -14.5366 12.3246 -9.71982 10
291 1 -3.5175 -6.96896 -18.3722 10
292 1 5.83958 -7.37568 -12.9084 16
293 1 -15.4553 4.54303 9.71059 10
294 1 -17.4503 7.46156 -5.48559 8
295 1 -5.4828 13.5196 -1.12438 14
296 1 10.5962 -0.56832 5.70549 23
297 1 -12.9902 -13.8957 -3.98422 9
298 1 3.12174 -4.56024 6.05452 20
299 1 -9.29262 -6.05459 10.6449 12
300 1 -13.6614 8.76774 -2.29623 19
301 1 1.55186 -7.82151 -6.77812 21
302 1 -7.36545 -2.26237 -9.49557 19
303 1 7.25115 -0.340605 -18.2182 12
304 1 6.55321 16.5315 1.81654 17
305 1 -12.0454 0.474756 -3.98373 18
306 1 2.60569 -10.2676 -9.17438 22
307 1 8.35935 5.74184 -13.1521 19
308 1 0.473692 -12.2666 -7.2962 18
309 1 -16.0751 -6.81733 -6.07547 10
310 1 14.7147 5.33276 13.3517 7
311 1 10.9664 3.82806 -5.5104 18
312 1 -4.36467 8.56867 -13.6934 19
313 1 0.554265 18.7667 0.527772 16
314 1 -14.7154 1.06699 -10.1097 11
315 1 -12.9924 10.7028 5.92928 16
316 1 -9.6145 10.078 1.73875 20
317 1 -9.58071 10.8412 4.4376 15
318 1 11.6186 -1.98181 10.0737 12
319 1 13.0416 -1.43762 -10.7718 12
320 1 10.5099 0.424103 15.2079 9
321 1 10.1142 2.26751 -8.55118 19
322 1 -1.66426 -12.3571 -6.21718 20
323 1 4.3357 -8.09091 -2.07141 20
324 1 12.9415 0.253751 7.84309 17
325 1 -9.00172 -4.68819 -6.46471 19
326 1 -7.80233 -7.57775 0.0562942 19
327 1 -13.477 -3.96689 5.81163 21
328 1 -6.33058 15.5976 4.13802 15
329 1 -14.0635 -6.04225 -3.26233 18
330 1 6.99994 20.1893 9.0676 5
331 1 -10.6552 8.16476 -3.66928 19
332 1 1.38591 13.5165 -9.39132 21
333 1 4.27719 12.9496 5.20689 18
334 1 -15.7238 -9.55698 -3.33376 9
335 1 -2.95924 -4.01957 -9.94928 21
336 1 -13.6073 2.70188 3.94165 18
337 1 -11.7579 13.8078 -1.06964 14
338 1 3.34153 -7.254 3.94933 21
339 1 -5.7573 -11.1631 -6.14758 16
340 1 9.18726 15.9522 4.4477 16
341 1 7.92168 10.557 -13.1948 16
342 1 -13.355 4.92171 -13.507 10
343 1 -2.42643 13.3078 -7.07413 18
344 1 -9.89437 3.20808 -7.49849 14
345 1 -2.77993 -10.5909 1.31151 15
346 1 14.0554 8.92123 6.04348 15
347 1 5.1768 12.6772 -14.4153 13
348 1 -16.63 4.02728 -4.42456 13
349 1 -9.03242 -9.93747 2.16065 14
350 1 3.81905 -8.11752 -11.3597 21
351 1 -10.5076 2.11872 5.42707 21
352 1 -14.795 5.69809 5.13776 14
353 1 -15.8568 10.5866 6.28344 8
354 1 -8.38678 0.979721 -16.4151 12
355 1 12.0669 -3.76586 -2.65431 9
356 1 -3.48829 -10.1394 -9.63428 19
357 1 -1.67178 -5.07603 9.01724 20
358 1 -7.93351 6.28752 -17.0344 9
359 1 7.02573 -9.65103 1.82036 19
360 1 5.11492 10.8196 -7.96286 22
361 1 -13.6214 10.4669 8.87006 11
362 1 -2.83633 -3.89584 11.5423 14
363 1 -11.9248 -7.94167 -9.91078 14
364 1 -10.2552 -4.56852 7.12745 21
365 1 3.82741 -4.28585 11.9405 20
366 1 8.29916 -6.2854 5.7727 15
367 1 12.9638 8.26377 0.724757 16
368 1 -7.49799 8.10235 14.1157 12
369 1 0.27272 14.5161 -6.08371 18
370 1 -5.85331 -9.65339 -3.5301 21
371 1 -1.5474 8.57411 15.9116 11
372 1 -3.95075 17.4789 2.30082 15
373 1 -12.917 -8.51531 -6.81857 13
374 1 9.47858 19.6283 -2.12691 9
375 1 4.80977 8.6258 7.92855 19
376 1 -7.33717 3.29353 7.45642 22
377 1 -12.4019 0.841201 7.51917 22
378 1 -9.69965 -7.52503 -7.94113 23
379 1 -7.49173 13.5168 6.93129 17
380 1 -4.30557 -6.29617 -7.69138 21
381 1 -3.24794 -6.97745 -14.7098 21
382 1 -9.91564 -16.1775 -2.53511 10
383 1 11.7995 6.61726 6.13686 14
384 1 -8.00119 -3.06141 10.4287 15
385 1 -8.26281 3.99229 -15.4813 17
386 1 11.1278 8.18421 -1.94917 20
387 1 -10.4583 -12.7974 -2.98779 17
388 1 1.35788 17.1229 3.78562 20
389 1 -3.55389 13.6857 12.2147 20
390 1 -11.6037 -5.75736 -1.54289 16
391 1 -1.26638 19.1453 -2.25785 19
392 1 8.69997 16.5287 -6.22468 12
393 1 -7.05804 -6.63156 -10.0115 18
394 1 5.41775 0.0185173 11.7482 17
395 1 1.18134 -9.6079 -12.6021 16
396 1 1.74864 -2.54521 -10.7842 22
397 1 6.09071 -11.9461 4.72996 11
398 1 -12.2674 8.5683 3.87313 19
399 1 5.201 3.2474 13.1561 22
400 1 8.52738 10.4569 -2.78389 16
401 1 -7.88687 8.91254 -9.2443 17
402 1 -15.4256 1.80538 -6.89393 16
403 1 -1.65322 18.5105 7.57937 11
404 1 -3.52979 2.88024 -14.6517 21
405 1 9.62566 8.35283 1.34427 16
406 1 4.24872 17.8363 -9.86865 10
407 1 16.0981 3.84268 -2.24951 15
408 1 1.97119 2.98352 -14.7986 19
409 1 -5.82089 -9.78838 1.14515 17
410 1 5.6271 -5.73079 14.4532 9
411 1 -8.42471 5.38645 -9.26924 14
412 1 -16.5618 -5.34944 -2.89989 13
413 1 -3.27255 -12.5149 -11.7583 14
414 1 3.06706 22.347 5.0058 6
415 1 2.33917 5.00596 -12.6754 22
416 1 5.23408 -2.22316 9.72032 21
417 1 -15.3947 -1.19493 7.3033 15
418 1 -0.0031015 -12.5608 0.317704 19
419 1 -12.4599 -0.281022 -0.555096 15
420 1 12.7678 2.46037 -3.55401 20
421 1 10.1797 0.070362 -3.43586 19
422 1 2.49169 -5.19758 -8.76402 21
423 1 4.50935 1.76805 -12.5499 22
424 1 12.1008 -5.32941 -13.657 7
425 1 -5.29308 8.20463 12.0097 19
426 1 10.0862 19.2741 0.46001 12
427 1 -3.22071 1.05689 -16.4449 16
428 1 8.14815 1.90079 -16.656 17
429 1 -7.5326 -2.47546 7.70007 18
430 1 -7.86508 15.7721 -4.96876 16
431 1 -6.72078 -6.75464 -13.5914 19
432 1 -16.5197 -1.14241 -5.18876 9
433 1 -3.88553 -9.46793 -13.2256 18
434 1 -6.63665 -8.43264 11.1574 12
435 1 -0.414848 11.6595 -7.89404 19
436 1 14.5914 13.0049 5.59033 12
437 1 14.0136 5.3641 0.936745 20
438 1 -8.91159 -14.9399 -9.13018 8
439 1 -3.23141 -3.93887 -16.7203 20
440 1 -4.31315 17.4411 6.45131 13
441 1 11.997 3.27251 1.16486 18
442 1 0.257431 16.5193 -9.13941 13
443 1 14.0883 5.32476 -9.37894 14
444 1 5.96912 10.4692 13.3657 10
445 1 -8.62661 6.505 8.95006 22
446 1 4.6425 16.0109 4.23659 19
447 1 12.033 3.20889 13.2412 15
448 1 2.12407 5.54952 -15.9665 15
449 1 -0.991828 3.50666 10.8042 18
450 1 4.3082 9.67096 4.36828 20
451 1 8.64416 10.3645 -7.30732 17
452 1 -8.39486 11.5403 -1.35227 19
453 1 -4.91992 14.8283 -5.02419 14
454 1 6.59259 -4.58794 11.047 15
455 1 9.88685 -1.54039 -12.6907 16
456 1 7.33882 -7.55475 -0.288549 21
457 1 9.4727 12.1395 7.44476 15
458 1 -18.0222 -3.85251 0.843404 10
459 1 -5.18576 9.33506 -9.4548 18
460 1 -15.4746 1.527 1.37378 13
461 1 -3.2097 13.4325 -12.3915 14
462 1 5.18082 -12.5022 -3.45779 15
463 1 5.11068 -0.427188 -10.3894 24
464 1 -2.34843 19.8578 -5.0678 12
465 1 -10.263 -7.56577 -13.2371 11
466 1 -0.105182 -11.8067 4.6511 16
467 1 -13.9561 -3.04238 -1.50241 16
468 1 2.45749 11.3135 -16.0869 13
469 1 -0.328642 11.1409 12.6938 15
470 1 -9.77875 -4.6581 3.78569 20
471 1 1.72317 -7.1518 -10.0588 19
472 1 5.78902 -5.08765 8.32346 19
473 1 -9.21171 8.21062 -0.803655 21
474 1 5.79727 2.48694 16.1032 13
475 1 -2.42085 20.0344 0.615892 11
476 1 10.5247 -2.13589 -5.96689 17
477 1 1.60606 9.56835 8.51761 18
478 1 3.43315 8.38885 -17.209 14
479 1 -4.98482 -11.3181 7.13355 12
480 1 0.332963 -3.13043 -16.7697 21
481 1 0.880742 19.8258 6.06867 14
482 1 10.2308 8.66981 -12.7231 14
483 1 -3.40038 -4.95557 -13.1069 21
484 1 -4.47114 -7.14943 -4.7398 22
485 1 -9.27588 -4.55343 -13.1906 15
486 1 17.9738 1.41099 -0.0464364 9
487 1 17.0086 9.47956 -1.89715 15
488 1 11.1673 -4.32367 -10.7166 16
489 1 11.7182 9.70115 11.5147 12
490 1 4.81408 -8.10455 -5.16492 23
491 1 7.41738 5.61565 -16.984 14
492 1 7.95549 14.6722 0.345356 19
493 1 7.62706 13.5267 9.54156 17
494 1 16.0516 13.2783 2.7643 8
495 1 17.2079 2.24106 -5.67466 10
496 1 11.0913 6.02811 -6.93496 21
497 1 13.3263 4.01353 9.82249 12
498 1 12.565 8.15068 8.98591 19
499 1 10.9004 16.4329 -0.942799 16
500 1 0.588161 6.17075 15.8033 12
501 1 16.2045 3.57045 -8.57259 10
502 1 8.44271 3.32068 14.4319 17
503 1 -8.61541 0.731539 -9.29524 19
504 1 14.5049 5.03588 6.49497 13
505 1 -11.8549 7.3846 9.95876 15
506 1 6.64614 13.8797 6.63461 22
507 1 8.54587 8.37392 11.8685 19
508 1 1.10275 12.1857 6.8966 18
509 1 1.13926 14.6908 13.7898 9
510 1 -2.25202 -12.7132 5.87821 13
511 1 -6.22219 11.9587 -3.71324 17
512 1 17.8158 6.59265 -2.4126 17
513 1 7.46034 -2.07853 -14.2267 20
514 1 -4.2379 18.1013 -1.5956 17
515 1 -0.208279 -10.2622 -4.60974 20
516 1 10.3352 -7.78367 -8.84713 14
517 1 -14.3437 3.69323 6.99244 15
518 1 0.478045 9.40801 -15.8767 16
519 1 -4.49715 -11.8523 -1.5974 19
520 1 -6.77945 3.6434 -12.5689 18
521 1 -12.7123 3.69846 -5.91736 18
522 1 9.52653 -1.77363 3.11012 22
523 1 15.8485 9.71211 1.09505 18
524 1 -1.2293 -7.49432 3.81599 16
525 1 -12.9422 -1.43867 -9.64706 15
526 1 2.04666 3.0351 -17.721 14
527 1 2.46318 9.2296 11.4968 20
528 1 10.6301 11.9655 -11.8032 10
529 1 11.37 -3.45062 7.46767 14
530 1 13.0013 7.79447 -10.7535 9
531 1 13.238 10.8445 -0.548329 22
532 1 1.67901 -13.9143 -9.63895 13
533 1 -13.816 4.6087 12.1773 9
534 1 16.0512 -1.53744 1.91132 5
535 1 -0.570134 13.8905 11.7524 18
536 1 5.56837 15.633 -12.1162 13
537 1 -14.3897 10.8767 -12.2801 9
538 1 10.5458 13.039 0.203205 20
539 1 -17.4136 -2.59668 -2.34779 10
540 1 15.9653 -0.17238 -1.52986 10
541 1 2.64279 19.4249 3.43988 15
542 1 -6.1376 10.4828 7.37846 17
543 1 -12.8787 -10.7187 -4.56448 10
544 1 -10.9976 7.56839 -10.4275 20
545 1 6.25776 -7.63752e-04 7.88201 18
546 1 -3.74904 -7.88517 9.52093 23
547 1 14.5506 8.1306 11.7997 10
548 1 -4.86528 17.9284 -5.02378 15
549 1 -1.16326 -0.523504 -17.9167 13
550 1 -11.0021 0.149775 10.5535 19
551 1 5.50253 0.0359041 -15.5077 18
552 1 8.80202 -5.05711 -8.73614 21
553 1 6.39908 5.48014 8.07806 21
554 1 -10.9271 -3.06744 10.7134 12
555 1 9.83579 8.68335 7.99101 19
556 1 0.642697 -3.15928 11.8675 16
557 1 -4.71689 7.78299 15.4111 12
558 1 -5.69737 -4.21135 -18.9245 10
559 1 -9.52368 -0.0253142 7.33579 20
560 1 3.4354 0.358146 14.9079 15
561 1 -14.1065 -6.59987 3.28578 13
562 1 18.8792 8.3614 -4.69533 7
563 1 5.50087 -10.3238 -7.36629 18
564 1 5.06818 10.9561 -4.33928 21
565 1 9.11775 18.9147 3.29014 13
566 1 2.11096 -0.463343 -19.1471 13
567 1 2.69839 15.3819 -4.13275 19
568 1 14.7626 7.18029 -1.28889 21
569 1 -8.47109 -9.5712 -5.69311 19
570 1 -0.772341 3.07154 -16.5842 16
571 1 -8.7034 13.7302 -3.31631 18
572 1 6.82484 -7.74435 -9.74271 21
573 1 11.1217 11.3645 -8.0797 15
574 1 7.58671 16.0806 -2.08058 18
575 1 10.2351 3.53951 11.3194 20
576 1 12.9572 1.12734 10.4202 14
577 1 -3.35435 -8.82801 6.12378 17
578 1 -4.34745 11.6443 -15.0464 13
579 1 -3.93747 17.4557 12.1434 10
580 1 3.69737 -6.28881 -14.3784 17
581 1 10.3556 14.3562 -7.07219 12
582 1 6.91765 13.8695 3.13117 20
583 1 13.3721 -1.64032 -7.90396 14
584 1 5.19981 9.96595 10.8574 17
585 1 -16.0363 -1.96089 3.90583 13
586 1 8.51562 -12.5194 -3.00797 12
587 1 -8.63183 16.125 -8.25077 11
588 1 5.14338 11.6497 -0.88132 20
589 1 -16.7733 -6.46167 2.47707 9
590 1 2.27515 3.55445 16.0124 13
591 1 -10.6105 10.7354 -9.48115 16
592 1 -4.19212 12.585 -9.69541 19
593 1 7.02745 -15.3777 -1.20651 7
594 1 10.4879 9.56039 -5.23903 23
595 1 -16.1527 1.22112 8.84707 11
596 1 2.1645 -4.04611 -19.3311 11
597 1 1.54616 -6.26729 7.18749 20
598 1 5.11665 13.9318 -3.49568 20
599 1 -2.37349 5.43788 15.426 9
600 1 -8.62716 -9.3281 -10.8571 17
601 1 -8.19429 -11.3054 -8.73409 22
602 1 -8.05876 -12.7718 -11.963 10
603 1 4.54297 14.4297 -9.46911 18
604 1 -7.61593 16.2609 6.56068 11
605 1 4.12901 -7.49141 -7.92179 20
606 1 7.05239 -12.9662 0.00644492 14
607 1 -0.972381 -7.8695 7.5343 16
608 1 19.242 4.63241 0.131819 9
609 1 -5.34786 -14.3942 -3.44992 14
610 1 -15.253 -6.71547 5.73757 12
611 1 -4.29094 -15.2705 -1.05381 13
612 1 -6.39082 -8.93381 -8.61342 22
613 1 -18.4327 -0.790564 6.45652 8
614 1 -7.14766 -15.8838 -0.715485 13
615 1 13.7313 8.81778 -3.18254 22
616 1 -4.25254 14.2144 2.08292 17
617 1 -15.2534 8.79202 3.92466 13
618 1 11.7675 0.655976 -0.348522 20
619 1 -12.2328 -5.44804 -11.2419 12
620 1 11.2368 5.29587 -10.7471 16
621 1 9.02263 18.0548 6.61645 9
622 1 -12.2079 1.183 -7.76187 18
623 1 -11.9725 -5.24352 -5.67551 18
624 1 7.67372 8.62986 15.6165 9
625 1 6.81121 8.02191 -11.3366 24
626 1 10.8501 15.389 1.90601 16
627 1 -4.26065 2.84922 9.44337 25
628 1 -1.09727 -15.8513 0.157956 11
629 1 -12.7348 -14.8213 -1.22527 12
630 1 9.47848 15.3139 7.73225 14
631 1 -1.18855 -4.92657 -14.5898 18
632 1 4.60106 12.3395 2.13184 19
633 1 -6.27339 -8.2689 7.64496 20
634 1 8.27643 10.9821 -10.3428 21
635 1 2.33766 -15.0071 1.2804 15
636 1 4.19933 -14.5224 4.06233 10
637 1 1.0552 -14.0015 -1.73074 15
638 1 5.23672 5.08799 -11.122 26
639 1 7.12518 18.55 0.497771 22
640 1 -3.01427 4.72438 -17.3741 13
641 1 -2.61126 6.18347 10.6843 19
642 1 -0.30713 8.22622 -13.2515 16
643 1 -10.5687 -1.03021 -14.0179 11
644 1 -10.2011 -2.24248 -5.12043 20
645 1 3.55708 18.5483 -5.00042 14
646 1 -5.9885 -7.38066 -17.3217 11
647 1 11.165 6.22707 -4.07545 19
648 1 10.5996 -7.40345 -2.07338 16
649 1 -9.46754 2.02713 12.8809 15
650 1 4.41167 -7.75315 1.10366 23
651 1 15.0621 -3.62528 -5.50422 7
652 1 8.27799 -2.59434 9.23413 21
653 1 -1.4205 13.2617 4.79557 16
654 1 -13.2722 2.41116 9.90443 19
655 1 -3.41933 8.89566 8.64601 20
656 1 -2.35015 -11.2285 9.54406 11
657 1 4.0556 12.1582 8.74363 17
658 1 -14.7554 5.61723 -1.05233 15
659 1 8.47976 -4.9134 -5.16824 18
660 1 -9.52196 14.2852 -10.7666 10
661 1 0.244995 -11.8858 7.93565 11
662 1 5.44923 -1.16651 16.3311 9
663 1 1.10197 20.5286 -3.58473 11
664 1 1.41092 -9.03633 5.51739 19
665 1 0.8384 6.13348 11.4375 16
666 1 -15.8306 -1.13761 -8.05765 11
667 1 -0.403324 17.0464 11.4236 11
668 1 5.06103 14.3849 -0.197014 20
669 1 -10.7488 -8.94959 0.0546583 11
670 1 -6.34456 -13.5856 1.72498 15
671 1 6.08801 -2.56575 6.17777 20
672 1 8.5963 -3.50646 5.58457 20
673 1 7.54067 8.02325 5.76977 19
674 1 -0.270034 -5.00142 -10.676 18
675 1 -1.06683 3.16059 -12.5522 24
676 1 -5.99923 1.74694 12.6554 17
677 1 1.45402 17.0276 -1.78229 20
678 1 13.9121 3.56665 3.94966 16
679 1 2.44003 10.6694 -9.69828 20
680 1 -1.95395 12.1827 14.6865 11
681 1 7.40355 7.92659 8.98739 23
682 1 7.82371 -2.59042 -10.8117 19
683 1 -9.47893 -15.4949 -5.55723 12
684 1 14.7242 1.13894 2.12575 15
685 1 2.32951 -0.101568 -12.5969 19
686 1 4.87815 7.55357 13.5063 18
687 1 9.511 -10.7241 -10.5686 8
688 1 7.59774 7.90438 -14.4649 15
689 1 9.87687 7.9497 -9.47186 20
690 1 17.2441 -1.17004 -4.91669 7
691 1 1.40224 -2.40288 8.93634 19
692 1 -4.40523 -7.12429 -11.2311 20
693 1 4.6692 16.4877 -2.04924 19
694 1 -11.3518 4.46107 7.10532 20
695 1 12.4722 12.1371 -5.40231 16
696 1 13.1441 12.3022 2.07114 17
697 1 -1.61023 -4.2134 -18.8652 12
698 1 -7.87778 12.08 9.68461 18
699 1 11.1032 12.7916 9.98282 13
700 1 12.8496 13.8258 -1.95185 17
701 1 5.57514 6.22028 -14.0156 18
702 1 13.1011 -0.873625 -2.89483 14
703 1 -13.8262 2.78684 -2.76015 17
704 1 11.5129 4.77929 3.9636 14
705 1 -12.3101 -11.3308 0.268088 11
706 1 -11.9824 13.3805 -11.7123 10
707 1 3.6712 4.17059 10.7613 18
708 1 -10.595 4.82102 -11.6174 13
709 1 -13.5556 7.40603 7.6995 15
710 1 7.18132 -7.48483 -6.76747 21
711 1 -8.63911 -9.04681 -2.63828 15
712 1 10.3599 -1.87047 -0.612402 16
713 1 -16.799 7.27503 -1.98848 12
714 1 12.8262 14.6836 7.87237 9
715 1 -7.38237 -4.99756 5.23942 16
716 1 6.60128 5.55003 14.2914 19
717 1 12.4019 -1.44465 2.33003 16
718 1 -14.0934 5.79628 2.44095 15
719 1 2.09725 12.5802 10.0537 20
720 1 7.89079 13.4038 -8.25414 20
721 1 -7.54181 -9.61392 -13.8269 11
722 1 -9.01487 13.9229 4.10895 11
723 1 -11.4442 -12.8953 5.38027 8
724 1 12.9218 8.859 -6.9623 15
725 1 4.42815 7.00752 11.038 20
726 1 14.5039 0.774653 -6.19399 14
727 1 3.6271 -7.14705 9.10776 17
728 1 -0.832418 12.2998 -15.0404 13
729 1 5.33141 10.7901 -11.4295 20
730 1 -7.02162 0.782325 9.52078 21
731 1 14.7633 6.91782 3.21721 18
732 1 -4.41738 -2.13072 -11.4967 20
733 1 13.5088 15.5052 0.595097 12
734 1 -15.1268 5.03719 -6.75217 16
735 1 -4.91294 -10.7023 10.0163 12
736 1 2.28309 16.19 -10.8584 14
737 1 1.85267 0.519539 7.56878 20
738 1 -0.245425 -9.72259 -8.13897 22
739 1 -9.68683 16.4294 0.907948 9
740 1 -15.3693 9.11028 -3.98564 16
741 1 9.63241 3.40655 -11.4875 17
742 1 0.677509 -7.441 -14.6338 15
743 1 -6.63571 9.7235 3.75056 18
744 1 14.7871 11.7328 -3.09467 14
745 1 2.69874 -4.83785 -12.1575 17
746 1 -3.20752 -14.8106 -6.78646 9
747 1 1.63244 -7.74779 -3.79833 22
748 1 -1.33818 12.9384 9.13407 17
749 1 3.25382 -10.7178 -5.59528 20
750 1 1.44433 10.4132 -19.2556 7
751 1 15.7895 6.99091 -7.26677 11
752 1 7.50122 11.274 1.24066 21
753 1 1.75024 -12.0431 2.15114 18
754 1 1.0002 -5.95675 -17.3787 13
755 1 12.7865 5.10762 -2.18865 20
756 1 -0.454998 5.62862 -14.7248 17
757 1 -4.10231 -5.719 7.23347 19
758 1 7.28496 7.79968 -7.98789 19
759 1 -13.5841 5.92179 -3.64236 21
760 1 -9.71964 9.16082 9.14292 17
761 1 4.02709 18.3285 9.96843 12
762 1 -6.26172 -9.42176 4.65001 18
763 1 -1.10587 16.2396 1.36178 15
764 1 4.16846 -13.4023 -1.0411 19
765 1 5.35118 13.528 -6.32663 17
766 1 -2.39407 16.2339 9.48432 19
767 1 -4.42296 4.88888 12.6519 17
768 1 -7.52637 17.5398 -1.80902 9
769 1 -4.14287 -6.71678 12.8457 12
770 1 3.93243 -9.70318 6.7316 15
771 1 11.8313 10.8653 5.87249 16
772 1 7.70872 -2.57241 -7.39954 20
773 1 6.97845 -10.8465 -8.95881 14
774 1 -5.01006 -1.3202 -16.4479 15
775 1 0.591894 6.25984 -18.1557 13
776 1 5.59998 18.4765 4.02178 18
777 1 -11.9626 -2.41087 7.78985 18
778 1 -7.15285 12.1489 -9.55852 19
779 1 -13.7236 1.54317 -13.7046 7
780 1 12.499 18.5137 2.3714 8
781 1 -14.5114 -12.0748 -2.21961 10
782 1 12.1411 15.7881 5.42924 9
783 1 -11.1347 -10.5802 -8.45062 11
784 1 -2.18097 19.027 4.30215 12
785 1 -8.40478 -0.497953 12.0918 10
786 1 -1.87067 -13.9554 -9.39665 14
787 1 8.60576 3.61322 9.19085 18
788 1 2.94971 -12.2747 5.64557 13
789 1 5.94647 15.8324 10.0058 13
790 1 9.96263 -3.87881 -15.9729 10
791 1 10.0797 -7.5956 1.54302 13
792 1 4.70578 -2.51941 -15.9364 18
793 1 -10.1686 -2.32883 -11.2467 17
794 1 -11.1982 9.24225 -12.9229 12
795 1 -2.82656 9.89279 13.0703 17
796 1 11.8515 -2.94512 4.91412 16
797 1 -9.17364 -4.48416 0.0316955 18
798 1 13.0604 6.68708 -5.25799 19
799 1 -2.64744 7.59299 -11.3975 18
800 1 13.3565 10.1686 3.66248 17
801 1 -5.67041 14.1054 9.0698 21
802 1 -13.1539 -2.97145 2.49615 18
803 1 10.4307 -7.41833 -5.35079 16
804 2 -11.9342 0.847393 -14.2252 11
805 2 -8.67036 15.9969 -2.84717 15
806 2 1.59073 -0.258791 -14.3537 21
807 2 -8.60805 9.44366 13.1784 11
808 2 3.47777 -9.80102 -7.31613 21
809 2 -11.5667 -7.26667 -11.8638 11
810 2 1.49343 2.38301 14.638 13
811 2 9.68792 -1.03872 14.6092 8
812 2 -9.05654 -12.2448 -1.98816 14
813 2 -14.1343 10.4253 -3.40003 15
814 2 3.60876 13.0537 -0.143808 15
815 2 -13.1726 5.58851 -5.54784 16
816 2 -1.79474 16.5415 -9.01617 14
817 2 9.56366 6.47057 0.804417 21
818 2 -1.90311 13.0596 -9.02247 20
819 2 7.04258 16.4201 -6.32133 16
820 2 -9.26565 -2.30743 -13.4098 12
821 2 -15.5827 -8.31901 -4.90553 11
822 2 1.2281 7.54208 8.10023 19
823 2 8.52155 -1.83029 -9.09997 21
824 2 2.83107 -13.3696 4.04008 16
825 2 -8.80159 12.0883 2.90493 16
826 2 -11.8391 3.28866 -7.39466 16
827 2 10.4502 6.30471 4.60429 16
828 2 10.5355 -8.91559 -10.6307 10
829 2 -12.1981 -12.3678 -3.91942 14
830 2 -9.28785 -1.8859 3.31738 19
831 2 -8.57659 -8.40325 1.64686 17
832 2 9.76981 -6.09298 4.68945 14
833 2 1.77581 -13.6913 -11.6228 12
834 2 8.9476 1.6356 14.5689 17
835 2 1.99698 11.749 -11.5235 15
836 2 -1.03925 -13.5648 4.70517 13
837 2 -15.5722 -6.56253 -2.10813 13
838 2 1.62259 7.30781 12.8106 16
839 2 -10.9483 10.0024 3.09194 17
840 2 0.256577 8.30014 15.7778 10
841 2 -11.5918 13.8365 -6.81046 10
842 2 7.03924 -10.3156 3.89383 12
843 2 2.93389 14.4165 -10.5374 18
844 2 11.0312 15.6043 3.78525 13
845 2 5.50045 20.7933 -0.137869 11
846 2 8.0317 -1.39646 -12.575 17
847 2 -6.7063 11.6231 13.6203 10
848 2 4.73056 8.03521 -18.6162 9
849 2 -3.43671 11.52 -11.4631 20
850 2 15.014 10.0498 -3.71882 15
851 2 -12.8995 0.690401 10.9051 15
852 2 -14.5213 11.8358 7.07592 7
853 2 10.5213 1.83984 -12.5406 14
854 2 -11.971 -4.29065 6.96772 16
855 2 2.82932 -10.7702 -13.5294 13
856 2 0.349041 2.46736 -15.2798 19
857 2 -11.6344 -9.29333 -5.16499 14
858 2 9.3913 12.4705 -3.25128 20
859 2 -2.9496 12.5369 2.41533 15
860 2 -5.35574 -12.2861 -10.9654 15
861 2 -6.07488 12.6886 7.79111 17
862 2 9.93672 -1.4785 9.42363 17
863 2 1.71052 -3.72707 10.2826 18
864 2 15.0439 7.13558 1.12486 15
865 2 5.35535 18.7266 -5.6336 11
866 2 -13.5998 4.65542 -2.24668 17
867 2 12.2299 9.04084 5.29273 18
868 2 9.54186 -11.0705 -2.59971 13
869 2 4.33101 -11.6662 -1.86791 18
870 2 -0.157641 13.6237 7.63224 16
871 2 4.43625 -8.57305 2.87416 19
872 2 11.1296 -0.905007 0.900397 15
873 2 7.83779 12.3514 6.14771 18
874 2 -4.26152 0.971203 12.4224 14
875 2 12.0944 0.467004 -4.02748 17