ITEM: TIMESTEP
15000
ITEM: NUMBER OF ATOMS
500
ITEM: BOX BOUNDS pp pp pp
-30.0 30.0
-30.0 30.0
-30.0 30.0
ITEM: ATOMS id type x y z Coordination
1 1 8.25018 0.604438 7.61301 10
2 1 3.72239 8.80972 9.11644 7
3 1 10.171 -0.0729806 4.46502 13
4 1 -5.11951 0.59326 1.01336 16
5 1 0.665189 1.94956 -10.444 12
6 1 2.75571 2.33559 6.46791 17
7 1 -6.19485 -0.861269 -2.26022 19
8 1 1.08593 5.91247 -11.5454 5
9 1 6.71204 -6.4118 -1.29162 22
10 1 10.3554 4.69796 4.6476 11
11 1 1.36428 9.64122 -4.75311 14
12 1 6.90752 8.88573 8.27372 9
13 1 -8.34517 -5.34928 0.318364 12
14 1 -7.52411 -3.9206 -2.50158 16
15 1 10.5994 -2.75724 -3.06161 14
16 1 8.19 2.23922 3.23119 16
17 1 -5.29965 -5.59904 0.678652 19
18 1 -3.13344 -5.13802 -7.58523 10
19 1 7.59052 -2.24253 -8.58506 12
20 1 9.86151 -8.20365 0.902798 13
21 1 -2.87996 6.5103 3.23902 18
22 1 1.71783 9.97151 0.841419 20
23 1 -0.199537 -4.09697 -10.8121 7
24 1 4.7498 6.19891 9.33981 12
25 1 8.77556 -3.25109 3.80135 19
26 1 -1.28239 5.9615 0.949169 23
27 1 6.91086 7.30139 -8.26297 9
28 1 9.40673 8.29446 -3.0335 15
29 1 3.84188 11.4985 -4.42453 10
30 1 -2.62373 6.87163 -8.46914 10
31 1 4.13596 12.3534 0.993299 12
32 1 4.6265 8.96073 -4.19404 20
33 1 -4.61259 2.13228 -2.15924 19
34 1 5.22502 6.41642 5.48737 20
35 1 -3.22049 1.14927 -9.41549 12
36 1 -6.65137 -2.3173 0.41557 17
37 1 7.29963 -7.38618 -4.48998 12
38 1 -3.75527 4.17184 5.39875 12
39 1 -4.26693 0.172659 -4.44453 20
40 1 4.29418 -9.28686 4.20959 14
41 1 6.65851 2.53091 -5.43897 21
42 1 -1.25542 -3.92486 -6.335 21
43 1 4.01663 6.38316 -9.51716 10
44 1 2.56872 -7.93609 2.15869 20
45 1 3.90996 11.0968 -1.50267 19
46 1 -5.88232 1.22504 4.63669 10
47 1 2.46503 10.7889 3.69941 16
48 1 5.41788 0.719302 6.8934 17
49 1 4.22867 -7.95312 -3.34861 13
50 1 9.97978 0.32298 -7.52365 10
51 1 -1.33891 -9.39272 2.92018 10
52 1 1.45303 -9.21785 4.55928 15
53 1 6.42505 -2.29287 6.24739 19
54 1 7.67473 -4.96663 6.83632 16
55 1 8.88532 9.26418 -0.28376 11
56 1 -4.15703 -8.57104 1.92028 12
57 1 -1.99575 -11.4146 1.1104 8
58 1 -1.53897 -5.52972 -3.60767 24
59 1 -0.0809698 -7.83593 7.50831 11
60 1 -5.08068 -3.3102 4.37646 12
61 1 4.77987 -8.91488 -0.0139176 14
62 1 -4.49539 -0.679135 6.65575 9
63 1 -3.4801 8.95559 0.630816 14
64 1 -4.77825 6.3243 0.607902 12
65 1 1.86971 6.60239 6.88785 18
66 1 -3.1154 -1.37141 -6.62098 21
67 1 -7.64242 3.45783 -6.67146 11
68 1 -5.42826 -6.46308 -5.35101 8
69 1 8.36408 3.27248 6.32282 14
70 1 1.00748 -4.99523 6.83139 19
71 1 -0.647784 -0.0104851 -9.14246 16
72 1 -8.54498 -0.89902 -4.10534 10
73 1 -1.60805 -11.4603 -2.59806 10
74 1 -1.16467 6.85492 6.24093 13
75 1 -0.662101 6.53178 -4.20635 21
76 1 2.24204 -7.24215 -6.17548 15
77 1 4.63844 8.87845 0.766302 19
78 1 -6.59547 -0.148537 -6.39594 12
79 1 -5.6971 4.44491 -3.91396 16
80 1 -0.177056 -9.86699 -5.69258 9
81 1 9.0317 -6.80348 4.06761 12
82 1 -5.88214 6.18873 -6.80974 9
83 1 -2.21124 -4.86535 6.56418 11
84 1 -5.47239 4.38955 2.97881 12
85 1 0.293997 -5.5771 -8.01668 14
86 1 0.0806094 -1.51925 6.57803 14
87 1 4.45776 -4.63385 7.43589 21
88 1 7.04707 -4.94946 -7.04412 12
89 1 10.1219 0.353987 -1.58774 18
90 1 5.53382 -0.0353252 -10.5164 10
91 1 9.62003 -2.02182 6.66713 12
92 1 -3.17617 -8.64161 -3.8578 14
93 1 -3.60617 -0.404161 4.06622 17
94 1 8.28216 6.82921 6.09996 13
95 1 11.0341 6.07778 -5.12609 8
96 1 2.94461 5.0897 -6.80289 16
97 1 0.56709 8.01978 -7.07636 10
98 1 6.96094 10.8972 -2.43208 15
99 1 5.07871 3.17524 -8.70554 14
100 1 6.18685 -6.80974 3.92195 17
101 1 8.38562 -3.2194 -0.3331 20
102 1 1.44826 -11.2778 2.42436 10
103 1 -4.37606 4.52407 -8.54051 12
104 1 12.103 0.103715 -3.93553 11
105 1 -1.38579 9.50881 -4.49205 15
106 1 3.79343 -5.82759 -8.43461 12
107 1 -3.79475 -6.11016 3.95713 15
108 1 1.78843 -9.39005 -0.7681 15
109 1 3.3983 -0.937415 -6.38059 22
110 1 2.48639 8.16325 -2.00864 23
111 1 6.65814 -8.39382 1.78423 14
112 1 -1.02188 -7.29351 -5.85757 17
113 1 3.50997 -3.09001 10.1585 10
114 1 2.06353 -0.0466304 8.90156 12
115 1 4.56933 -2.40777 -9.08367 19
116 1 -7.47502 2.42127 -3.10219 12
117 1 5.93594 7.65196 -2.20001 21
118 1 8.55827 0.0185382 -4.36977 20
119 1 1.87594 4.29309 -9.17719 15
120 1 -6.3009 3.32321 -0.328763 12
121 1 3.06542 -1.84084 6.82727 19
122 1 -4.70507 1.97247 -6.56081 16
123 1 11.0023 -4.96113 2.07551 15
124 1 6.78853 4.68975 3.94157 20
125 1 6.09924 -7.43141 6.93473 12
126 1 10.8422 5.86233 -1.54369 15
127 1 9.68371 6.83644 2.84972 15
128 1 2.08238 -3.66495 -6.76673 21
129 1 8.37366 9.31173 4.91178 9
130 1 -0.380124 5.17821 -6.70366 18
131 1 -0.492801 3.72162 6.41344 14
132 1 -1.80208 -9.10809 -0.671262 18
133 1 8.18238 6.60045 0.283646 19
134 1 0.402245 9.68304 5.39489 11
135 1 -3.09639 5.89917 -1.97177 18
136 1 8.3792 5.78992 -5.80151 17
137 1 5.55565 3.9107 7.27272 16
138 1 2.11701 -1.18972 -10.6917 13
139 1 3.18613 3.18044 9.12245 10
140 1 9.11426 -5.20964 -4.52817 13
141 1 6.68141 11.3153 1.00751 14
142 1 7.89392 -5.50441 1.50096 20
143 1 -0.667853 10.9535 2.1385 14
144 1 5.16844 -5.67806 -5.04249 18
145 1 5.66537 -6.03736 9.46758 10
146 1 2.91969 0.766564 -8.9469 18
147 1 -0.6105 8.53471 2.98821 21
148 1 11.6857 0.831439 1.30681 14
149 1 1.21053 13.2174 -0.264208 11
150 1 8.23077 3.88353 -7.8656 13
151 1 0.168235 -2.98247 8.90867 12
152 1 2.17854 -5.8536 10.05 12
153 1 -0.461214 10.6535 -1.05792 18
154 1 5.794 11.9718 4.10776 10
155 1 -6.9544 -7.36378 3.04058 7
156 1 11.0659 -2.11697 0.217683 14
157 1 -3.2599 -6.56879 -1.17719 18
158 1 11.9366 4.61859 1.72922 10
159 1 9.98552 -7.96388 -2.79982 10
160 1 6.15078 8.68033 3.85872 17
161 1 -6.05224 -3.25746 -4.68545 15
162 1 0.676363 12.3653 -3.35856 11
163 1 5.316 9.14982 -7.3254 8
164 1 -1.61604 2.07698 -6.88069 21
165 1 2.27388 -4.22262 -10.7738 10
166 1 -0.0620224 -8.52356 -3.2301 21
167 1 3.04731 -5.93067 4.78677 24
168 1 10.0085 -5.23723 -1.03746 15
169 1 -9.19126 -1.94548 -0.919893 11
170 1 -1.31437 3.828 -9.92577 15
171 1 -4.4019 -3.87732 -1.88341 21
172 1 11.6606 -2.02006 3.6873 12
173 1 -3.03982 -2.58609 -9.28091 9
174 1 -3.30492 8.69152 -2.55702 12
175 1 -2.16314 1.10873 5.44298 13
176 1 11.5424 7.72012 0.12887 11
177 1 11.7534 3.21078 -2.62532 13
178 1 2.81197 -7.47002 7.643 16
179 1 6.4298 0.584619 -7.79433 21
180 1 5.72006 5.58541 -4.38101 16
181 1 4.07737 9.60062 6.21431 16
182 1 7.78558 8.95341 -5.07452 13
183 1 10.1538 2.59654 -5.92204 16
184 1 10.0717 -2.05589 -6.09651 12
185 1 2.68881 7.7315 4.13949 19
186 1 -0.340638 8.04669 -1.05778 23
187 1 -0.340335 -6.47429 4.28521 20
188 1 7.82241 -9.57741 -1.47468 10
189 1 -6.56082 -6.50322 -2.46216 13
190 1 -3.21078 6.80963 -5.65353 16
191 2 -5.0573 -1.67581 5.15795 8
192 2 11.952 5.84823 0.052795 13
193 2 -0.884727 0.236943 -7.35812 21
194 2 -4.86309 0.328912 -2.64723 21
195 2 1.37922 -8.56377 6.64509 14
196 2 5.14465 2.61661 5.79359 24
197 2 10.2656 -0.406895 0.464235 19
198 2 -1.15304 8.61704 5.27483 13
199 2 8.2027 -5.39599 -0.413925 19
200 2 -2.67489 -0.70254 -8.9765 11
201 2 0.941269 -5.12367 -9.70033 11
202 2 0.5955 10.4423 3.58057 13
203 2 11.4964 -3.06959 2.09295 13
204 2 10.6569 8.05073 -1.60565 12
205 2 4.57325 8.23872 4.88131 20
206 2 5.61991 12.266 2.33475 11
207 2 5.1532 7.87434 -8.83376 8
208 2 6.89925 -1.09993 -9.85454 9
209 2 -6.79976 1.82178 -6.68465 13
210 2 7.38444 -6.51373 5.48766 15
211 2 -5.26795 0.360767 2.96228 16
212 2 5.36494 -5.65817 -6.90977 16
213 2 -0.429066 -11.0944 2.28667 10
214 2 5.10794 9.49104 7.91583 11
215 2 4.66251 -3.19356 6.36288 20
216 2 -1.92859 -5.35821 3.4133 17
217 2 2.55512 -10.7799 3.84318 10
218 2 -7.03373 -6.59044 1.27934 11
219 2 -1.70429 -11.0582 -0.732884 10
220 2 -2.86359 -8.39839 -2.03932 16
221 2 0.241042 11.5157 0.612419 16
222 2 5.11065 -0.0428721 -6.57633 20
223 2 9.60096 6.92514 -4.29765 12
224 2 3.67774 4.77835 -8.43366 13
225 2 -4.63056 2.49833 -4.47908 20
226 2 11.4307 2.79172 1.23176 13
227 2 1.19826 9.32129 -0.95935 23
228 2 -4.0985 7.37703 2.16498 13
229 2 7.38049 8.08767 -0.900311 20
230 2 7.30663 8.59691 -6.90047 11
231 2 1.55687 8.31274 5.72985 16
232 2 4.08713 -5.0325 9.44793 12
233 2 3.72763 -4.06835 -9.67447 11
234 2 3.20981 -6.85883 -4.44586 17
235 2 -1.47103 -5.7783 -6.92534 15
236 2 -4.95833 -5.75835 -1.60949 20
237 2 9.81564 -6.25623 -3.17337 14
238 2 9.59376 7.84869 1.0885 12
239 2 0.570395 4.39165 -10.8842 9
240 2 3.87159 -1.03115 -10.5685 12
241 2 -4.27165 -6.22243 -6.90703 8
242 2 3.84588 -2.57985 -7.24179 21
243 2 9.44437 -1.50038 -8.01918 9
244 2 -3.3723 -2.42406 3.4359 19
245 2 1.34929 -2.67573 -11.4813 8
246 2 0.572232 -8.23444 -6.57115 12
247 2 1.95104 2.36661 -9.09773 17
248 2 -1.17053 6.60342 2.76503 17
249 2 -3.93328 -7.07104 0.868806 16
250 2 -2.81047 5.55716 0.115894 20
251 2 -5.11107 -7.13078 3.10365 11
252 2 -8.53787 -2.21191 -2.66346 13
253 2 8.09544 -3.04732 6.49695 14
254 2 10.1026 2.2065 -1.74551 19
255 2 1.00204 0.246458 -10.4116 10
256 2 5.15009 5.21323 3.82628 21
257 2 3.95441 11.2516 4.76211 14
258 2 1.67187 -4.02129 10.083 12
259 2 -5.79211 4.69504 0.91306 11
260 2 -4.5352 0.0744389 -6.3753 17
261 2 11.1863 5.00361 -3.47943 14
262 2 -8.41414 -3.18623 0.161312 11
263 2 -1.03396 7.03606 -7.28867 12
264 2 5.06379 1.25105 -9.18462 13
265 2 -6.13373 3.54359 -2.2003 14
266 2 7.86061 -5.89979 -5.59053 11
267 2 2.06682 -9.54625 1.12207 16
268 2 -1.82879 9.63768 1.6586 14
269 2 2.83063 -7.74414 4.26392 19
270 2 4.62761 -8.79429 2.01522 16
271 2 7.38565 8.54083 6.5005 13
272 2 2.88996 12.6384 -0.850949 14
273 2 1.13366 -6.9571 8.83179 11
274 2 -0.406007 -5.8487 0.854139 23
275 2 -3.98014 0.831457 5.78389 12
276 2 0.437508 7.99373 -5.01427 18
277 2 10.963 -0.17601 -5.69663 12
278 2 3.26693 -1.6777 8.7769 14
279 2 9.30916 4.92561 -0.498174 21
280 2 6.94006 10.5165 4.54491 12
281 2 -7.956 -5.6144 -1.39444 13
282 2 5.93965 7.70969 9.87516 7
283 2 7.05254 2.16299 7.24482 11
284 2 2.63054 6.54488 -10.9064 7
285 2 3.22948 5.63645 6.1245 20
286 2 9.24709 -5.09742 3.20908 17
287 2 -7.17925 -1.86828 -5.3978 12
288 2 -2.015 5.20479 -5.28569 20
289 2 -4.26863 6.70834 -7.47798 10
290 2 4.76001 -7.31511 8.20431 13
291 2 7.58891 11.0024 -0.598156 10
292 2 -2.96174 -3.12155 -7.35946 15
293 2 11.0937 -0.939298 -2.56898 13
294 2 -2.23722 8.98519 -1.02023 15
295 2 10.5225 -6.17949 0.760925 14
296 2 1.38314 -3.00078 6.45285 20
297 2 -4.86741 -7.52763 -4.14256 10
298 2 1.96423 11.169 -3.99754 16
299 2 -4.25863 7.40656 -1.47467 12
300 2 2.84397 -5.76461 6.69139 24
301 2 -4.67967 2.24037 -0.0494002 18
302 2 -2.5191 8.06703 -4.26003 15
303 2 4.53298 4.33594 8.8481 11
304 2 -8.13465 0.721715 -3.24118 13
305 2 6.19439 7.7642 -4.55832 20
306 2 3.03753 6.92928 8.62517 12
307 2 2.22232 1.82107 8.51333 10
308 2 0.370549 -3.17183 -6.65106 17
309 2 1.46998 6.31898 -7.17437 14
310 2 0.0160968 -8.52615 -1.30568 18
311 2 8.63706 -0.0273486 3.45545 21
312 2 9.8287 4.64176 -6.14282 11
313 2 6.3205 -6.36899 1.81501 21
314 2 8.56805 1.98516 -4.91706 20
315 2 5.74841 7.91901 2.19683 18
316 2 -3.45119 4.18468 3.07468 19
317 2 -4.42114 -2.86268 -3.76632 19
318 2 3.47916 -8.47172 -1.41369 17
319 2 0.266021 13.4872 -1.91801 7
320 2 -5.67224 3.26312 4.50379 9
321 2 -5.11963 -3.86957 1.17468 19
322 2 -0.212755 -10.5654 -3.78274 13
323 2 6.90807 5.37216 6.38899 18
324 2 0.554833 3.23019 -6.68448 18
325 2 7.13717 4.49179 -5.40053 18
326 2 2.18486 -5.65852 -7.157 19
327 2 8.45033 3.48694 4.55952 18
328 2 9.49429 5.26135 6.51143 10
329 2 4.49132 10.2923 -5.81765 11
330 2 -5.99498 4.34552 -7.27695 11
331 2 -1.78371 -3.77036 -10.1636 10
332 2 3.08833 10.9889 1.64218 17
333 2 -0.597717 10.7681 -3.10064 14
334 2 -4.94642 5.83918 -5.07281 15
335 2 -2.73538 6.12836 5.44933 12
336 2 2.73181 8.62164 -3.99491 18
337 2 7.0102 -3.07666 -7.09241 17
338 2 -7.39864 3.25106 -4.76403 13
339 2 -1.19003 1.76251 -9.83243 13
340 2 6.80263 -0.585815 6.94747 15
341 2 -0.519266 -6.27515 6.13983 17
342 2 -0.0697486 -6.71662 -4.07309 21
343 2 -1.96953 3.08568 5.35381 16
344 2 10.0601 -1.97817 4.74654 14
345 2 -6.00239 -0.488369 -0.335404 18
346 2 -0.750528 -3.84324 7.55592 11
347 2 5.32288 -8.29471 5.52466 13
348 2 11.6738 -0.199759 3.04995 10
349 2 5.9856 -6.87041 -3.47928 15
350 2 2.27773 8.36097 1.7431 20
351 2 -3.34132 2.70361 -8.04287 17
352 2 -3.73483 -4.58929 5.20613 11
353 2 6.28612 -5.47526 7.7471 12
354 2 6.41711 2.91643 -7.35491 13
355 2 8.4971 7.51274 4.11934 15
356 2 9.5018 -0.20642 6.56384 11
357 2 9.63459 -3.26704 -4.68063 14
358 2 9.642 -8.88646 -0.950081 11
359 2 8.02557 -3.30551 1.59349 23
360 2 0.119349 5.59677 6.62308 13
361 2 7.96193 5.79654 -7.88303 10
362 2 -6.34066 -5.08335 -4.2529 13
363 2 -6.30877 -2.94395 -1.51982 22
364 2 8.56092 -7.71505 2.62551 13
365 2 5.06966 10.836 -3.06935 16
366 2 11.9889 2.02525 -3.87759 10
367 2 8.2004 9.90479 -3.40686 13
368 2 4.70475 -5.39822 3.82131 24
369 2 10.0364 -3.04575 -1.28484 15
370 2 6.7801 -8.81916 -0.0298206 14
371 2 -1.54625 -8.95223 -4.9342 13
372 2 4.33335 8.34689 -1.47594 21
373 2 5.11373 10.7231 0.126096 15
374 2 0.144309 -8.37894 3.64107 18
375 2 0.441145 -1.00778 8.44899 10
376 2 10.8055 5.43012 3.14676 12
377 2 9.36228 2.13134 -7.90499 11
378 2 -2.52615 5.16063 -9.26838 9
379 2 -2.7569 -9.80687 1.78439 9
380 2 8.17411 -8.71409 -3.26134 10
381 1 -2.54507 -2.78676 -3.79845 19
382 1 0.473957 -1.05994 -6.38442 21
383 1 1.54949 -5.71741 -3.67297 23
384 1 0.468227 -2.77238 -3.61342 22
385 2 -1.48213 -5.81227 -1.78736 23
386 2 -3.05652 -2.79427 -1.2313 23
387 2 -2.62627 -1.10279 -4.80346 19
388 2 -0.91331 -3.71387 -4.34556 22
389 2 1.66628 -5.58512 -1.55806 25
390 2 0.0902621 -2.86918 -1.42263 22
391 2 0.342075 -0.895504 -4.4007 23
392 2 1.82498 -3.80221 -4.63523 23
393 1 -3.34206 -0.537926 -1.31444 22
394 1 -1.56531 -4.02843 -0.869054 21
395 1 -2.07929 -5.67745 1.51007 19
396 1 -3.89457 -2.24195 1.18641 20
397 1 -1.69134 -3.33127 3.32581 20
398 1 0.17285 -6.59798 -0.95282 21
399 1 0.408826 -0.796146 -1.41241 21
400 1 1.79207 -3.69179 -0.926227 23
401 1 1.03669 -5.33858 1.93807 22
402 1 -0.327955 -2.29282 1.24824 23
403 1 -0.00591042 -0.466541 3.60678 17
404 1 1.59119 -3.16387 4.44847 23
405 2 -3.27352 -0.380101 0.673456 20
406 2 -2.20531 -3.34685 1.19855 21
407 2 1.2539 -5.15298 3.99102 19
408 2 0.288744 -2.30749 3.21407 21
409 2 0.185119 -0.497507 0.95183 20
410 2 1.42094 -3.42767 1.09525 23
411 2 -0.860485 -0.330643 5.41869 15
412 1 -1.21244 0.167252 -3.98654 21
413 1 -2.94574 3.48858 -4.6063 20
414 1 1.87809 1.67843 -6.46382 19
415 1 2.05775 0.167912 -3.91313 22
416 1 0.216852 3.0957 -4.31276 21
417 1 2.45613 6.15027 -4.00997 20
418 2 -1.54099 0.320416 -1.98052 21
419 2 -3.09136 3.35293 -2.36622 19
420 2 -1.43006 2.11676 -4.95881 23
421 2 -1.01615 6.89884 -2.17952 21
422 2 1.9428 -0.137976 -7.61633 22
423 2 1.84246 0.178701 -1.98382 21
424 2 0.190099 2.71485 -2.13528 17
425 2 0.635544 5.08607 -4.16295 18
426 2 2.39784 2.09659 -4.55986 20
427 2 2.4824 6.16656 -2.20356 21
428 1 -1.57791 2.15057 -1.66367 20
429 1 -1.68715 0.549258 1.33268 23
430 1 -3.14958 3.71631 0.610035 19
431 1 -1.98904 3.00959 3.36189 22
432 1 0.853556 5.01321 -1.75682 20
433 1 1.87295 2.13057 -1.45833 23
434 1 1.81457 0.495102 1.31831 21
435 1 0.109666 3.15898 0.901039 21
436 1 0.222646 5.32794 3.66941 25
437 1 1.32445 2.59658 3.75313 19
438 1 2.02051 6.61306 1.21835 23
439 2 -1.98219 0.66813 3.35322 20
440 2 -1.49546 2.68625 0.449068 19
441 2 1.63399 0.576365 3.54539 22
442 2 -0.248263 3.93927 2.65241 23
443 2 0.564505 6.14044 0.371151 19
444 2 1.88729 2.52382 0.480543 21
445 2 1.22567 3.16187 5.57505 18
446 2 1.90436 5.98713 3.22381 22
447 1 5.80873 -2.11965 -5.97709 17
448 1 3.55748 -3.10431 -3.98127 21
449 1 6.43499 -2.61182 -3.14055 18
450 2 4.93225 -5.95466 -1.15527 19
451 2 3.53583 -2.77767 -1.90964 22
452 2 3.31029 -1.1847 -4.29819 23
453 2 5.4068 -3.70661 -4.66102 20
454 2 6.48544 -2.62753 -1.27986 18
455 2 6.84397 -1.0329 -4.50004 20
456 1 3.17952 -6.68848 -0.63575 22
457 1 3.58099 -0.814972 -1.64357 22
458 1 5.01348 -3.83536 -0.737022 23
459 1 4.69174 -5.33427 1.82259 22
460 1 3.25504 -2.5814 1.64378 23
461 1 3.33482 -0.369707 4.18083 23
462 1 4.95673 -3.53275 4.43783 22
463 1 7.00252 -0.424111 -1.19474 21
464 1 6.32222 -2.42961 1.74956 22
465 1 6.79795 -0.505988 4.29318 25
466 2 2.96803 -6.38092 1.2804 23
467 2 3.31809 -2.53881 3.88465 22
468 2 3.26829 -0.722131 0.961873 23
469 2 4.85147 -3.52372 1.196 21
470 2 3.55266 0.382702 6.33898 19
471 2 6.57385 -2.50227 4.07357 19
472 2 6.51619 -0.730296 0.775408 22
473 1 5.33923 0.154756 -4.20465 22
474 1 3.70644 3.33263 -4.17177 20
475 1 8.45951 2.65063 -2.68849 19
476 2 5.19542 0.194421 -1.66099 21
477 2 3.47323 3.12252 -2.03455 23
478 2 3.7962 5.15028 -4.86938 18
479 2 5.24457 1.9007 -4.34504 23
480 2 5.72727 5.6095 -2.36819 19
481 2 8.39739 0.379156 -2.54337 20
482 2 6.73109 2.90438 -1.84071 23
483 1 3.91459 5.11509 -1.31841 24
484 1 5.01616 2.11647 -1.83101 22
485 1 4.80908 0.309308 1.49613 23
486 1 3.53775 3.33559 1.14596 21
487 1 3.20779 4.86508 4.3066 22
488 1 4.86912 2.18614 3.86197 21
489 1 5.47674 6.1489 1.68464 20
490 1 7.28518 4.85525 -1.55637 17
491 1 9.66956 3.05284 0.151062 20
492 1 8.34362 0.0538779 1.41539 21
493 1 6.36406 3.06629 0.714636 23
494 2 5.2344 0.221599 3.53542 23
495 2 3.01916 3.20806 3.11474 22
496 2 3.92327 5.58921 0.65683 22
497 2 4.88143 2.02592 0.70397 22
498 2 6.56754 3.04882 2.95498 19
499 2 7.00918 5.10187 0.510586 21
500 2 8.19835 2.06246 1.23481 20
