ITEM: TIMESTEP
1000
ITEM: NUMBER OF ATOMS
1500
ITEM: BOX BOUNDS pp pp pp
-30.0 30.0
-30.0 30.0
-30.0 30.0
ITEM: ATOMS id type x y z Coordination
1 1 -2.57075 -10.0546 -9.46103 17
2 1 8.54811 -8.7223 5.56853 21
3 1 -9.95731 10.8848 -2.6192 16
4 1 -10.5566 3.32553 -7.96216 15
5 1 1.43418 -10.7572 11.0398 13
6 1 -7.55659 0.49101 -9.79321 17
7 1 -4.10161 -11.1149 3.99169 19
8 1 -14.0537 -6.83798 6.35047 11
9 1 4.47385 3.64624 14.5585 15
10 1 5.71098 -5.64111 7.64666 20
11 1 0.463975 2.91957 10.9794 21
12 1 -1.82708 9.60674 -10.7516 11
13 1 2.54221 0.069504 10.5422 20
14 1 11.4121 5.80341 8.82443 15
15 1 6.03268 8.97925 -11.8693 14
16 1 3.28307 3.29971 -10.5913 21
17 1 -8.18384 -2.09481 1.9649 24
18 1 -3.23974 -5.76873 -6.3501 21
19 1 9.31617 -11.258 6.1193 15
20 1 2.4626 -5.33973 6.63234 21
21 1 10.1165 -12.2505 1.24954 17
22 1 -7.96406 -15.1568 -2.36232 11
23 1 1.31928 -8.97049 -12.4069 11
24 1 0.872104 3.18706 14.1639 17
25 1 -3.28238 -11.9578 6.62004 18
26 1 7.39718 -4.72369 10.6983 17
27 1 -11.2999 -3.10549 3.27393 18
28 1 -7.40556 -1.13437 -0.956182 22
29 1 -5.69685 8.34602 -2.53812 16
30 1 2.7795 0.676474 -9.60129 20
31 1 5.69941 -6.57785 -10.4736 14
32 1 -1.85438 -2.92051 12.5162 18
33 1 -12.9151 6.63088 1.16091 11
34 1 0.130652 13.0456 8.67455 16
35 1 -6.28999 7.74547 -6.50959 16
36 1 -2.32015 14.7964 -3.68386 12
37 1 4.5127 -11.8493 1.13269 20
38 1 9.70541 -8.43077 -5.17256 19
39 1 -6.38255 5.34901 9.18607 17
40 1 -13.1342 -2.59155 -7.95766 16
41 1 8.31281 -0.26216 3.71686 21
42 1 -10.6172 7.66459 -3.33103 16
43 1 -7.99022 -7.58873 6.7754 19
44 1 -13.9493 5.23129 -4.39942 11
45 1 -0.342927 3.78567 -6.0763 18
46 1 2.4325 5.60606 7.37706 20
47 1 7.08798 -15.7299 -5.5427 12
48 1 2.5285 5.25756 11.1078 22
49 1 8.02676 -2.34791 -11.174 19
50 1 9.08555 -14.3463 -1.17284 11
51 1 6.19421 -3.96982 14.5958 12
52 1 -9.22416 -12.0095 8.28217 12
53 1 -9.1918 0.514092 0.45489 23
54 1 10.4417 3.68822 -0.0799224 16
55 1 11.7463 -1.95833 -3.45714 19
56 1 -4.48702 10.271 9.59952 12
57 1 3.51404 -2.57814 8.88594 21
58 1 -5.89117 -4.74074 2.03479 20
59 1 2.09956 -6.29267 -5.68936 19
60 1 -11.0367 8.53805 -0.275134 13
61 1 0.402546 3.93138 -9.09415 16
62 1 8.31278 -3.10169 -5.04973 23
63 1 7.76751 -6.65162 -0.279138 18
64 1 7.91026 -10.7371 9.38019 13
65 1 -2.03631 14.4987 -7.47959 10
66 1 -10.3163 8.67288 6.26939 12
67 1 -6.45682 6.10141 6.06057 18
68 1 -7.62939 -2.50582 8.50481 21
69 1 14.9634 -6.72375 -5.62345 13
70 1 -6.1396 5.9217 2.62736 22
71 1 11.0591 -6.17416 -7.31088 22
72 1 5.95685 -1.67093 -13.2954 17
73 1 -2.95774 -3.14581 -14.7139 13
74 1 -3.89553 11.0757 0.928022 22
75 1 -10.5941 9.92872 -5.72814 13
76 1 3.54331 11.1815 -6.11035 16
77 1 0.427033 8.69689 4.81796 22
78 1 -10.96 -8.53715 5.33574 17
79 1 -0.0616173 -4.72792 -7.94742 20
80 1 2.52177 -7.09727 -9.28888 18
81 1 -2.30662 2.49699 9.3057 20
82 1 -9.15161 -6.06993 -2.29593 19
83 1 8.35344 -5.61302 5.29655 19
84 1 -7.49794 -9.1312 -2.21983 17
85 1 11.1508 -9.80564 3.57758 17
86 1 -3.16752 5.57284 -2.63857 20
87 1 8.95462 1.78435 -11.6149 17
88 1 3.64562 5.92223 -5.86739 20
89 1 12.6209 -10.3504 -1.32633 13
90 1 0.0394047 -12.9686 6.42875 13
91 1 -10.7255 -10.442 0.7148 17
92 1 -13.8887 -4.1733 0.948647 17
93 1 10.8816 4.59302 2.91892 17
94 1 6.81527 8.44909 1.18426 21
95 1 1.33861 12.8105 11.5331 8
96 1 -5.64393 11.0161 -6.7463 15
97 1 -0.227478 -8.633 -9.90707 21
98 1 8.89558 -4.33241 13.0555 11
99 1 -5.21336 6.35362 -4.43227 19
100 1 12.5951 0.164549 -4.99328 17
101 1 -10.5394 11.9788 -8.12645 4
102 1 -6.59073 10.8107 -0.646036 19
103 1 12.4765 1.85364 -10.7976 12
104 1 8.07793 -11.1177 3.38 20
105 1 -5.44109 3.73802 -5.93003 22
106 1 5.10304 13.2645 -4.198 10
107 1 5.85854 9.66531 3.74543 22
108 1 -4.48497 13.8489 -6.23098 12
109 1 -6.00029 -7.26144 -10.9676 16
110 1 1.93441 15.1997 6.80375 9
111 1 -16.8074 -2.74533 -6.78511 9
112 1 16.3308 -0.294501 0.621133 13
113 1 1.56413 7.89747 9.93389 20
114 1 -0.381305 9.42705 -5.82387 19
115 1 3.09682 -5.54019 13.9928 14
116 1 -16.7952 -4.30676 0.85785 11
117 1 -1.13994 -8.11609 3.55417 18
118 1 4.60204 -17.4433 -3.89099 10
119 1 -5.66016 9.29354 -9.21449 14
120 1 3.65909 8.87504 -1.06937 16
121 1 11.3442 11.4487 -3.86307 13
122 1 3.42081 -8.48991 11.4051 18
123 1 -8.10763 2.48635 2.7976 19
124 1 -1.51371 13.2526 1.85271 16
125 1 2.61537 6.19305 14.3462 13
126 1 -3.2829 10.6419 3.89133 19
127 1 -3.55969 -0.609806 -10.0637 17
128 1 13.4627 -10.8145 1.30235 15
129 1 -3.25025 -5.94499 7.39971 21
130 1 -15.0554 -1.74685 3.11584 13
131 1 -9.02559 -10.7659 3.49482 20
132 1 -16.801 -1.28931 -3.9416 10
133 1 -2.5746 -14.7763 1.02519 17
134 1 3.10214 -11.7871 -3.94292 21
135 1 -2.50594 8.07864 2.67728 18
136 1 -6.1343 0.360317 5.67184 21
137 1 -5.16277 0.4264 -4.25218 24
138 1 -3.24346 8.59106 -7.48118 21
139 1 -14.5887 -5.16958 -7.86353 10
140 1 -9.29442 -0.697777 9.85136 16
141 1 2.95991 -9.08879 2.22636 17
142 1 5.65533 -14.2376 3.85522 15
143 1 16.2177 2.53732 2.99714 12
144 1 5.76867 3.91473 -6.26969 20
145 1 5.12285 0.909027 8.83691 19
146 1 -0.207814 6.89909 -11.0009 15
147 1 10.3923 -0.693824 -12.5954 13
148 1 -8.23522 -3.82278 -7.51382 18
149 1 -3.62049 11.9748 -9.07685 15
150 1 -5.78633 11.8974 -3.79332 18
151 1 8.92855 -6.34519 8.15197 19
152 1 -5.27344 -6.30961 -13.7741 11
153 1 -9.06116 8.8997 -10.473 8
154 1 6.19393 3.58301 -10.317 18
155 1 -7.50385 2.40127 9.79517 19
156 1 -4.91465 7.74371 11.0029 17
157 1 2.47746 -9.49103 -7.07438 23
158 1 -5.60707 -15.6119 3.30842 13
159 1 12.5361 -13.3631 -1.19576 10
160 1 7.44211 8.53121 -7.74616 20
161 1 -3.09334 10.7048 -2.16798 18
162 1 -11.1385 2.8836 4.98762 19
163 1 0.148186 7.14982 12.3206 19
164 1 11.1681 -0.0322656 -1.46721 17
165 1 0.560986 8.61731 7.64087 20
166 1 -9.42951 4.80827 0.372232 17
167 1 -13.0178 -7.59765 -6.10756 12
168 1 10.0605 5.99241 -11.5339 11
169 1 3.83186 -3.44888 12.2206 18
170 1 8.79712 9.64975 -3.99139 20
171 1 1.22153 -9.29264 -4.13247 20
172 1 -2.77881 -3.11832 -8.44246 20
173 1 5.40038 -2.14644 -6.04547 22
174 1 -10.996 -2.00241 7.31256 17
175 1 4.90662 -13.8142 -1.19222 20
176 1 -11.4748 -2.36646 -4.90033 19
177 1 0.353439 8.90215 -2.54229 22
178 1 0.0160407 -2.98386 -12.9904 20
179 1 10.2293 8.38589 10.6277 9
180 1 14.5703 4.58744 0.943969 15
181 1 -6.26833 -9.97927 2.1506 21
182 1 11.4802 -6.68007 -10.4955 11
183 1 -3.45437 -8.69769 1.31 22
184 1 -7.21604 -4.47959 -11.6639 17
185 1 -9.80607 2.99912 -10.9258 12
186 1 11.9609 -1.76388 8.39679 19
187 1 5.80381 -6.64258 12.9143 13
188 1 -5.55539 -10.3132 -9.80462 13
189 1 0.725614 -7.90087 9.69849 22
190 1 2.23347 8.804 -11.3504 14
191 1 5.4073 11.177 0.634761 19
192 1 -8.34524 -10.9023 0.935506 20
193 1 1.2335 9.07425 0.953178 20
194 1 -7.48425 -3.3685 11.725 17
195 1 -9.64525 -7.00341 -6.50334 18
196 1 -5.82103 -5.54549 -8.11953 21
197 1 -4.46845 -11.8963 -6.99415 18
198 1 -2.71819 -11.3832 1.44871 22
199 1 12.4771 1.88188 4.0266 18
200 1 -9.24126 -4.56001 10.2915 13
201 1 -2.59859 -16.6317 -1.33529 10
202 1 0.0484367 -10.4444 1.78234 22
203 1 -5.509 14.8024 -2.1404 8
204 1 7.84576 0.341997 -14.1765 12
205 1 -5.79883 -3.25964 -14.808 10
206 1 1.91309 -9.81695 -0.922035 20
207 1 -1.45629 -12.4325 -7.23038 17
208 1 -10.5069 4.78209 -5.26633 20
209 1 12.7758 3.43962 6.28133 15
210 1 -5.75111 2.99767 -9.00784 19
211 1 2.95053 11.5341 -9.15031 12
212 1 -5.09998 -3.12096 7.059 23
213 1 -5.44769 14.149 1.62345 11
214 1 1.64343 11.0035 5.7813 19
215 1 11.8152 -0.973151 4.66032 19
216 1 -10.8439 3.50352 8.16811 18
217 1 -1.54679 -6.35777 14.2178 10
218 1 -5.81068 5.7814 -0.773447 20
219 1 2.55248 -4.78061 -10.9162 19
220 1 4.97571 -10.7699 -1.71004 19
221 1 -2.81566 -0.384589 14.6182 13
222 1 -11.485 -7.31705 8.46529 13
223 1 13.9767 -3.31959 -3.59038 20
224 1 7.3549 -1.62628 -7.99562 23
225 1 10.5688 -11.1259 -6.08322 8
226 1 -7.95595 13.2422 -1.93943 11
227 1 8.54248 10.3182 9.27044 10
228 1 -7.93138 -2.36718 5.28848 20
229 1 6.97947 -9.2955 -3.66719 19
230 1 -5.30548 8.52209 0.942426 20
231 1 -3.38921 5.45649 4.14961 21
232 1 1.89223 -12.9263 8.62714 9
233 1 15.0815 -7.00711 6.05955 10
234 1 -2.00592 7.95039 9.3538 19
235 1 -6.19812 -5.03835 -4.17609 19
236 1 -0.82638 1.72626 16.9563 8
237 1 -1.42587 14.9785 7.47904 11
238 1 -7.78623 2.85924 -4.40772 17
239 1 -10.229 5.29118 10.541 9
240 1 -14.569 5.51119 4.32496 8
241 1 -4.4206 -8.51707 -7.14756 18
242 1 -11.4235 2.50949 -2.15796 24
243 1 8.9834 -3.48014 8.38116 22
244 1 -10.5169 -13.2421 2.77662 14
245 1 6.3871 -8.39592 7.90087 23
246 1 -9.42242 5.17591 3.23304 16
247 1 -0.205492 -5.52232 8.46324 21
248 1 4.39778 -14.4202 -4.04148 20
249 1 -5.09957 0.391231 -7.29665 19
250 1 8.70011 -3.17911 -14.0782 12
251 1 3.88224 13.9188 5.60221 15
252 1 -10.9192 -1.92591 0.730507 22
253 1 5.64675 -10.0101 -8.9243 12
254 1 -4.79737 -15.8091 -3.58709 14
255 1 -14.1724 -6.52634 -3.04304 17
256 1 -3.5213 -9.11272 -1.57514 18
257 1 7.92829 2.18055 -1.60867 21
258 1 -6.50522 5.18366 -13.4451 9
259 1 -11.8668 0.893152 -8.23697 15
260 1 -5.35895 8.66144 4.32445 20
261 1 -9.2455 10.725 0.230746 14
262 1 -3.29238 5.26059 7.74634 22
263 1 12.8892 -7.81767 -4.15518 17
264 1 14.6543 2.10688 -4.88998 17
265 1 4.07891 -9.02272 -4.10594 19
266 1 -0.629481 5.908 5.81973 24
267 1 -13.1032 -0.604648 -5.56921 19
268 1 1.62943 -12.3184 -1.07952 23
269 1 14.404 -1.43824 6.53256 14
270 1 -8.53497 -4.50683 -4.50291 21
271 1 -6.67564 -10.6276 5.79251 18
272 1 -2.15511 8.20508 -3.94216 20
273 1 -9.76667 -10.5963 -1.8369 17
274 1 -12.0343 5.57812 -1.59731 14
275 1 0.5343 12.3819 -7.2447 14
276 1 4.94401 10.9319 6.31791 20
277 1 -11.4966 -8.4842 -3.36549 14
278 1 -0.470982 -11.779 -3.92922 23
279 1 -13.8942 -1.07017 6.57086 12
280 1 -14.9145 2.98835 -2.6747 12
281 1 6.06481 -10.9437 6.49316 21
282 1 -5.64093 -16.0669 -0.233462 12
283 1 6.91259 5.89383 -11.2083 16
284 1 -8.35427 6.97967 -5.30175 18
285 1 -0.800611 -10.8247 4.66466 19
286 1 15.3239 1.61504 5.84915 12
287 1 -3.22522 -0.595394 7.52659 20
288 1 -15.1298 -2.3702 -1.38401 13
289 1 -7.89777 3.68774 6.03505 21
290 1 -4.91552 -14.6168 5.88944 8
291 1 5.2227 -4.96383 -4.78207 21
292 1 3.20111 -12.2633 -8.58226 14
293 1 -12.7938 -0.200494 4.07339 18
294 1 0.716915 -6.32488 12.1526 21
295 1 7.10973 -9.23499 -6.48358 17
296 1 -2.18735 -11.1501 -12.059 11
297 1 -2.88608 -5.62274 10.5918 19
298 1 4.76431 -7.13498 -6.12722 19
299 1 -3.78507 0.194556 -14.8983 11
300 1 8.8407 -14.065 3.70567 9
301 1 5.78278 8.0584 -6.02062 21
302 1 -4.67831 -5.15464 12.7879 14
303 1 -10.8766 -12.063 5.70676 12
304 1 10.1617 -9.06352 7.92566 14
305 1 8.17744 2.26087 2.01695 19
306 1 4.91103 -2.16179 -9.99948 19
307 1 9.89938 -7.00519 3.03315 17
308 1 15.0995 4.58269 -2.37355 15
309 1 -4.72439 4.0169 10.8374 20
310 1 -0.777716 11.7312 -0.603036 22
311 1 5.52858 -5.8923 5.19066 19
312 1 -1.52304 -16.633 -4.45238 12
313 1 -5.99461 12.7114 4.90687 11
314 1 -7.73717 -11.6686 -6.65485 12
315 1 5.43063 5.75329 12.5165 19
316 1 -3.00841 -0.5223 10.8402 20
317 1 -5.90733 -7.45908 -0.127203 16
318 1 -10.3776 1.77805 11.3772 13
319 1 -5.41971 -10.7514 -4.35508 19
320 1 -2.47709 8.15389 6.38297 18
321 1 -2.83813 -13.6035 -4.58867 20
322 1 -2.36707 -7.08184 -12.65 16
323 1 -8.69688 -14.526 4.38011 8
324 1 -6.26798 -5.336 5.53347 21
325 1 10.5133 0.58954 9.91704 16
326 1 -4.8689 -7.51136 10.4506 18
327 1 -9.41972 7.93868 -7.66512 12
328 1 7.93514 5.17177 -0.382782 21
329 1 -7.7365 -14.0504 1.06276 15
330 1 3.21828 3.08837 -7.50614 19
331 1 1.05505 14.6071 3.39043 10
332 1 0.467068 0.865058 -7.572 20
333 1 -2.50481 9.14371 12.3744 13
334 1 -12.0089 -3.92094 -2.12839 20
335 1 6.56704 10.9143 -5.85715 17
336 1 -7.33525 -8.3825 -8.01418 19
337 1 1.33586 -17.7599 -5.01525 9
338 1 -2.4954 -3.7993 -11.3448 18
339 1 -6.88159 9.82237 6.34453 14
340 1 6.40885 6.44183 15.0896 9
341 1 9.44135 6.6248 1.64204 20
342 1 2.86701 8.19472 2.98371 16
343 1 -5.90445 7.57201 -11.4872 14
344 1 4.95268 0.662444 -8.21927 20
345 1 5.48318 -10.5141 3.74144 21
346 1 -17.2696 -7.21617 -1.95605 7
347 1 -3.19856 5.76607 -12.8501 14
348 1 7.83812 6.78726 4.02218 22
349 1 13.0235 -5.96159 -1.70477 20
350 1 16.7755 2.47327 -0.444869 11
351 1 -6.04787 -2.48217 -9.71671 20
352 1 4.6847 -7.82598 -0.876458 18
353 1 2.42175 -12.1997 3.54767 19
354 1 4.4669 -11.0564 9.3064 15
355 1 -8.06386 4.87303 -7.85428 22
356 1 -0.159894 -12.3589 -9.81568 17
357 1 1.03848 2.46604 -12.9093 14
358 1 3.5979 -1.94858 15.0355 12
359 1 -9.79259 -5.12632 0.414053 18
360 1 16.2494 -4.33005 -5.78878 9
361 1 15.0848 -2.59337 -0.884915 14
362 1 -2.324 5.57639 -5.78436 20
363 1 3.25621 -15.1976 -6.36243 15
364 1 8.2305 4.64409 -8.32962 17
365 1 11.8876 -3.89232 -9.46111 16
366 1 -7.28384 1.35717 16.1071 7
367 1 4.55864 13.6858 2.20764 15
368 1 -5.09796 -1.5656 -12.475 19
369 1 -9.2664 -4.70917 7.39189 17
370 1 -6.69687 11.0382 2.95557 19
371 1 -8.03984 -1.38018 -12.4958 12
372 1 -14.5113 0.555789 -2.3764 15
373 1 -10.7602 -9.64968 7.67785 13
374 1 -0.659025 6.75909 -7.75107 19
375 1 11.9947 5.68468 -1.02221 19
376 1 -10.0162 -13.5572 -0.440879 12
377 1 -1.08792 -10.7474 -0.935112 22
378 1 -5.18626 8.10959 7.67027 19
379 1 2.8679 -3.09352 -8.01817 20
380 1 13.9679 -4.60068 1.22553 19
381 1 6.74772 11.2624 -9.33977 12
382 1 8.25164 -11.2855 -1.39639 22
383 1 -12.2097 5.05844 7.02594 13
384 1 4.80512 5.80817 9.33084 17
385 1 2.37532 1.96365 -15.5473 8
386 1 -2.61784 -9.0781 -4.89256 18
387 1 0.538222 -2.87877 10.7339 20
388 1 12.2147 6.5677 1.74316 20
389 1 5.1844 6.50588 -8.86417 21
390 1 -7.51218 9.72451 -4.14417 18
391 1 -2.3618 11.5483 -5.54629 20
392 1 9.468 -2.37649 10.8793 19
393 1 12.7954 -0.791646 -8.12323 15
394 1 -14.8539 -7.02013 0.422192 12
395 1 -0.142286 0.536437 9.25843 18
396 1 -0.630552 12.9303 -9.86616 10
397 1 -1.05245 -13.6275 -1.64188 20
398 1 7.32642 -5.48568 -12.8169 13
399 1 -8.43808 7.27926 -0.215368 18
400 1 -7.70505 -9.23252 -10.6104 10
401 1 7.39756 -14.107 6.5458 9
402 1 -14.1447 -4.12364 -5.25869 21
403 1 -12.7677 0.248068 0.79689 17
404 1 -9.69302 -9.44948 10.8766 8
405 1 5.39924 6.39017 -0.635083 20
406 1 1.41709 -12.6556 -12.1611 8
407 1 6.52975 -9.23271 11.4729 10
408 1 9.68129 -0.441873 -5.91322 21
409 1 -11.7925 6.12688 4.56773 13
410 1 11.0758 -5.56485 -4.22474 21
411 1 3.76309 8.6687 11.941 15
412 1 -1.35625 -0.921505 -12.3966 20
413 1 3.91163 13.4444 9.12795 11
414 1 10.2531 3.70085 -9.76299 20
415 1 -2.48241 -5.70658 -15.4291 11
416 1 -3.75337 -12.4649 -2.00224 19
417 1 -9.49036 -2.31712 -10.118 13
418 1 12.8309 2.88994 -1.67145 15
419 1 15.8609 4.81124 -5.19724 10
420 1 7.86067 -5.59401 -6.80727 22
421 1 7.98575 -12.1122 -4.90479 15
422 1 6.62106 12.8581 4.51482 11
423 1 -5.22893 3.17288 4.17058 20
424 1 11.9452 8.16059 -3.29384 17
425 1 16.3822 -5.98756 2.75575 10
426 1 13.62 3.45445 -7.46123 13
427 1 9.38377 0.154335 13.0556 11
428 1 2.98036 -5.90759 10.0121 18
429 1 2.45796 1.29498 15.748 8
430 1 14.9543 -1.022 -5.16286 14
431 1 7.80506 0.523468 10.8309 20
432 1 -5.43757 -2.74405 -6.27512 20
433 1 13.8757 4.67451 4.01518 13
434 1 10.3888 -5.44709 0.460555 21
435 1 13.2241 3.89107 9.75337 9
436 1 5.43162 10.3271 9.39404 12
437 1 6.49371 -2.74652 6.62958 24
438 1 -8.9225 12.3295 -5.25789 12
439 1 9.15822 11.5285 -6.67845 13
440 1 10.3086 -4.30562 -12.4946 13
441 1 -0.0424413 14.4705 -1.29929 13
442 1 0.0783472 -15.3998 -7.25086 13
443 1 -13.7556 2.06463 6.40572 12
444 1 -5.4918 4.88146 -10.7342 20
445 1 -2.37023 -13.5112 3.87044 16
446 1 -8.0069 1.65273 -6.93805 20
447 1 -13.2199 2.3247 -5.119 17
448 1 13.6401 -8.44481 3.36443 13
449 1 11.0586 6.43099 4.75192 18
450 1 0.505024 -8.03626 6.385 20
451 1 -9.64658 -0.764766 -7.33841 18
452 1 -5.60525 1.94778 13.4941 17
453 1 8.38867 8.4521 -10.6449 14
454 1 10.045 4.3149 -6.59219 20
455 1 1.36774 -12.5883 -6.33229 22
456 1 14.0278 -3.96744 4.78517 18
457 1 9.59386 9.17914 3.04085 15
458 1 12.4854 -7.74879 0.714766 20
459 1 -2.41016 2.28396 12.4705 21
460 1 -11.7968 -7.5534 -0.827076 19
461 1 -6.84625 -7.80074 -5.23523 15
462 1 7.24688 -1.30737 14.4179 10
463 1 -3.65546 -9.48786 9.27187 16
464 1 11.2835 3.61425 12.994 9
465 1 -8.64456 4.86714 -2.26845 20
466 1 9.64941 2.93037 5.0226 19
467 1 10.5892 0.47331 6.89454 18
468 1 2.94504 -1.63215 -15.1538 12
469 1 -9.34395 0.934269 7.11379 18
470 1 6.6478 0.179389 -10.6552 21
471 1 -0.781302 -7.39625 -6.45687 23
472 1 12.3666 -8.70553 -6.68977 13
473 1 9.1747 2.74036 8.37292 17
474 1 7.83373 -0.110048 8.01911 20
475 1 9.93155 4.32454 10.7974 17
476 1 0.774279 -3.51298 14.0348 15
477 1 -0.932001 4.96393 14.6789 15
478 1 0.0823134 -7.37653 -14.7973 10
479 1 -2.05175 5.44219 11.2686 21
480 1 7.77481 3.23468 13.2148 16
481 1 13.6761 10.2614 -1.8963 9
482 1 10.2977 -14.5618 -3.83354 10
483 1 -2.5241 2.75198 -7.88879 20
484 1 3.51358 13.7497 -1.09711 13
485 1 8.0236 9.98416 5.19871 14
486 1 -0.699414 11.9879 -3.78701 17
487 1 11.3341 9.10342 0.272726 18
488 1 -5.70157 -10.7857 -0.64256 18
489 1 0.127066 -3.83005 -15.9485 12
490 1 -12.082 9.07871 2.85537 9
491 1 8.58019 -7.85377 -8.52514 14
492 1 6.35905 3.72067 3.55623 18
493 1 11.6607 8.87427 -6.16923 13
494 1 9.05356 7.42114 -1.78737 23
495 1 -11.0497 2.37821 2.05464 19
496 1 9.49266 4.53126 -3.26214 18
497 1 -0.776008 -10.7592 8.93319 15
498 1 -2.7933 6.91198 -9.83912 17
499 1 2.70607 10.8395 9.13011 19
500 1 3.24003 3.19153 9.33346 23
501 1 8.26727 13.3246 -3.83274 11
502 1 6.42797 7.71356 7.20213 18
503 1 15.8019 -6.07905 -2.53369 11
504 1 -12.4501 -4.23505 8.59921 10
505 1 7.27084 -12.9126 0.890299 18
506 1 0.120488 -2.04507 -9.74607 24
507 1 0.679095 2.7851 7.16901 21
508 1 7.67075 -6.18593 -3.1752 19
509 1 3.04815 11.4435 3.54868 25
510 1 -15.5723 -5.21581 3.39251 12
511 1 7.16546 -13.4611 -2.99893 20
512 1 8.54231 7.06728 -5.0808 15
513 1 6.82622 -7.53457 2.63562 16
514 1 -0.131769 6.21838 2.24886 20
515 1 4.25133 -7.16232 -13.412 9
516 1 2.6344 -10.876 5.89856 22
517 1 2.2149 11.8949 0.975352 20
518 1 -3.63154 2.56546 16.0206 14
519 1 -9.08022 -6.04499 -9.82596 14
520 1 5.66088 -5.0088 -8.47356 20
521 1 -2.54379 12.9188 10.2828 8
522 1 5.62629 -13.0015 -6.77927 14
523 1 3.48091 -8.0783 8.18774 20
524 1 -6.12735 -15.8923 -6.90929 7
525 1 -12.2501 0.880705 8.58242 13
526 1 -6.00905 -13.5093 -4.6888 17
527 1 -7.40025 0.309096 12.1238 15
528 1 14.5283 7.67096 -3.63798 12
529 1 -5.05319 2.28423 7.76231 19
530 1 -9.85635 10.8092 4.39705 8
531 1 11.3838 -3.91933 2.93387 16
532 1 3.47895 8.24689 -3.86671 18
533 1 11.3884 1.54428 -7.85917 20
534 1 8.35109 2.53364 -5.07134 20
535 1 -12.3814 6.23293 -7.84095 8
536 1 -11.2169 -5.21002 -7.51241 16
537 1 4.60941 3.69857 -13.476 12
538 1 -1.82598 -3.32364 8.91494 21
539 1 -6.17991 -5.48159 8.89761 23
540 1 -0.142502 -5.38841 -10.8073 19
541 1 -7.69501 2.55342 -0.695479 20
542 1 3.6073 7.99148 6.42113 18
543 1 -7.55874 -7.31945 3.30341 18
544 1 10.3245 7.10749 -8.78386 15
545 1 3.47835 -14.5171 1.69777 13
546 1 10.4578 2.91811 -13.5647 9
547 1 0.108189 -0.0145354 -14.9354 15
548 1 -0.247728 -0.0714511 12.2974 17
549 1 4.09443 6.84242 -12.0943 13
550 1 -6.15017 -4.70717 -1.31126 20
551 1 11.5776 -2.2995 0.34579 18
552 1 -10.6865 -7.78734 2.4729 18
553 1 13.0919 6.37186 -6.70258 12
554 1 15.0447 -9.00813 -2.12496 11
555 1 -3.7216 7.2663 15.5166 8
556 1 6.65851 -9.74003 0.57395 21
557 1 15.4975 -8.4372 0.816256 9
558 1 12.0712 -6.98099 9.19597 11
559 1 -0.393461 10.3986 10.7362 19
560 1 -7.31681 6.43495 11.8185 12
561 1 -5.91288 -11.9675 8.30728 13
562 1 8.60427 -3.32547 1.93781 19
563 1 8.16042 6.12409 9.73954 22
564 1 -16.4077 -4.25842 -2.70378 13
565 1 10.2273 -8.07398 -2.21943 22
566 1 2.12575 5.30248 4.27419 19
567 1 5.50337 -0.560585 12.355 14
568 1 -0.597316 10.4213 2.53225 20
569 1 3.66249 -8.33212 5.28429 18
570 1 -9.31044 -2.67556 -1.91814 23
571 1 3.66258 2.12341 12.4841 16
572 1 2.23506 11.3444 -2.2085 15
573 1 -8.52022 -7.69918 0.307156 22
574 1 10.9218 -4.15381 5.89843 18
575 1 12.2624 -8.88109 6.13033 13
576 1 5.29894 5.3191 5.79114 18
577 1 0.836501 6.64081 -4.30513 20
578 1 2.72127 -10.659 -10.7914 14
579 1 -4.29217 2.9145 -12.9446 14
580 1 -4.75989 -1.84216 13.0499 14
581 1 -3.22936 13.8194 -0.313154 15
582 1 13.8711 -0.735311 0.700336 16
583 1 2.65329 8.25988 -7.30728 20
584 1 -3.60102 5.0134 13.8004 18
585 1 8.86757 5.13437 6.94016 20
586 1 8.74706 -4.90789 -9.89117 17
587 1 -5.08948 -13.0254 1.31639 18
588 1 -7.49088 -1.38671 -4.72204 21
589 1 14.8378 -0.565725 3.82203 15
590 1 5.43079 -4.17682 -15.125 10
591 1 -0.0570649 -10.2944 -7.14854 19
592 1 16.1437 -2.58101 3.18888 14
593 1 1.2712 -8.57347 13.67 12
594 1 -4.88241 -9.52421 -12.7248 10
595 1 6.43622 13.0078 -1.0334 13
596 1 -1.84304 -8.95904 7.00746 18
597 1 -9.48757 6.51834 7.81603 15
598 1 12.0512 3.33213 -4.85217 17
599 1 1.86884 -5.44591 -13.7609 13
600 1 -0.575047 12.2736 5.05968 17
601 1 4.29837 0.753137 -12.6962 18
602 1 9.26577 -3.54501 -1.85167 20
603 1 -8.1919 0.659714 -3.08917 23
604 1 9.94468 7.93743 6.96643 17
605 1 -12.5684 -10.0561 3.55188 12
606 1 6.09743 3.54137 10.9722 22
607 1 -10.3119 1.12884 -4.78788 25
608 1 -7.78563 8.97981 9.2793 14
609 1 -2.35709 2.65617 -10.9856 18
610 1 14.0046 -6.34882 -8.27272 12
611 1 -8.66965 -9.71228 -4.9967 16
612 1 12.6725 -11.0205 -3.85756 11
613 1 -13.855 3.03532 -0.0991373 14
614 1 -11.6001 -5.71661 -4.21206 21
615 1 -13.1585 -3.9824 5.70986 14
616 1 13.8107 -4.66229 8.06721 12
617 1 9.42794 -1.87982 5.50295 20
618 1 -14.1915 2.20891 2.66575 12
619 1 0.824252 9.87409 13.5545 8
620 1 4.58613 9.24334 -9.3196 22
621 1 -3.77137 12.8482 7.3619 11
622 1 9.53612 10.8422 -1.69475 17
623 1 7.31321 9.16053 12.1919 11
624 1 8.77746 -7.94062 10.5482 15
625 1 0.665517 9.57995 -9.11193 19
626 1 -4.74296 -2.88926 10.489 19
627 1 -2.88749 -6.21004 -9.56179 20
628 1 -9.84915 -0.0852947 3.44536 22
629 1 -5.32843 -8.48953 7.32923 21
630 1 6.08184 -2.12933 9.78411 22
631 1 0.735971 -14.3501 -4.00631 23
632 1 -15.5644 0.448469 -6.82914 12
633 1 13.3668 -3.59476 -6.10889 20
634 1 -8.17986 8.2001 2.29797 15
635 1 -5.61501 -0.00169441 9.11815 19
636 1 -2.87654 -15.1548 -7.08261 12
637 1 2.17234 -15.5549 -1.42429 11
638 1 7.44587 -16.2771 -2.03308 10
639 1 2.49924 5.87812 -9.54646 18
640 1 17.1523 1.51041 -3.76488 10
641 1 5.12654 6.42175 2.60179 20
642 1 10.8453 0.842172 1.62075 17
643 1 -1.61472 3.25598 -14.2529 11
644 1 -1.60404 -8.55945 11.6201 16
645 1 6.10104 6.44514 -3.38291 22
646 1 8.13835 1.59532 -8.14235 23
647 1 -11.6368 -0.515643 -2.53749 20
648 1 5.60013 3.4555 -2.95153 20
649 1 -7.64789 -6.93444 12.2059 12
650 1 6.96234 2.2008 5.8788 19
651 1 0.205519 -13.1975 1.72436 17
652 1 6.31603 9.23124 -1.9221 18
653 1 -2.99771 14.3542 4.44869 13
654 1 -8.23388 3.33396 12.8872 15
655 1 8.49049 -0.231107 -3.49223 19
656 1 -7.07591 -9.24012 9.60785 17
657 1 3.82741 -13.8256 6.31895 12
658 1 8.37597 6.20225 12.6595 17
659 1 10.4715 -3.20253 -7.19548 21
660 1 -8.62238 5.66273 -10.3229 16
661 1 -4.7463 5.76808 -8.05305 21
662 1 -16.0337 3.77142 -6.20602 8
663 1 8.82804 11.4679 1.42926 10
664 1 0.0529586 5.09408 9.00662 24
665 1 -9.47228 -12.9085 -4.13419 11
666 1 -2.08955 8.20146 -0.728379 20
667 1 14.1301 0.83505 9.02874 10
668 1 -4.47098 -8.5715 4.62596 18
669 1 9.80597 -0.918224 -9.28909 21
670 1 9.61978 -8.9265 0.648488 20
671 1 2.46791 -1.98079 -11.8072 19
672 1 -6.87253 1.90343 -12.2317 15
673 1 -12.918 -6.28862 3.35469 17
674 1 -5.43745 3.16267 -2.63866 21
675 1 -6.22263 5.05249 15.0274 12
676 1 10.8866 -4.67921 10.1545 16
677 1 -8.73081 -4.99622 4.18108 19
678 1 15.0496 0.111927 -2.61161 17
679 1 -0.0450577 1.29142 -10.5218 18
680 1 14.7545 7.99877 -0.222192 11
681 2 -11.2417 -2.26784 -3.01638 20
682 2 -6.20877 10.2045 -2.51927 19
683 2 4.35887 -2.71281 -15.1954 12
684 2 -0.638204 9.16599 12.2573 14
685 2 -13.1857 -2.54453 -5.67691 21
686 2 4.07679 0.49256 11.6897 19
687 2 -14.438 -5.83574 4.73219 10
688 2 -15.1867 3.90044 -4.35731 10
689 2 1.86079 12.5795 9.8372 12
690 2 -13.1208 1.83455 4.47319 18
691 2 10.7845 2.6235 2.42525 17
692 2 -11.4559 -6.63145 -6.04177 17
693 2 -7.80127 -0.498955 5.54822 19
694 2 -0.663656 -9.05132 5.20082 17
695 2 2.65871 3.28731 11.5874 20
696 2 7.12401 -6.04216 -9.48213 16
697 2 8.41811 -12.6295 2.4993 17
698 2 9.50602 0.0344086 4.95628 22
699 2 -7.7462 2.92886 -2.50946 22
700 2 -11.1239 2.94337 -5.23151 20
701 2 11.4166 -1.54956 6.43469 19
702 2 8.6425 -7.56967 -6.60556 20
703 2 -9.57638 -12.3742 1.10452 16
704 2 -9.1674 -2.82129 7.24264 20
705 2 -4.3968 -10.0685 5.73492 21
706 2 10.3959 -9.52541 5.525 17
707 2 1.29243 -14.0116 -2.17537 18
708 2 7.31779 -0.278612 12.697 16
709 2 2.35872 11.9663 -7.25242 13
710 2 -9.74258 -12.4959 -2.28216 13
711 2 4.42705 5.81005 14.8519 11
712 2 -8.5994 10.0514 3.03862 16
713 2 -2.2422 1.25365 15.73 12
714 2 -6.73038 7.77428 -4.26828 17
715 2 8.95921 -13.1739 5.59312 12
716 2 -3.3535 8.70694 8.04744 17
717 2 -0.320554 11.5099 -5.68728 16
718 2 6.00849 -5.65804 -6.34612 20
719 2 -3.41033 1.09666 -7.46561 22
720 2 0.679232 -2.74668 -7.9128 18
721 2 8.57813 -2.6066 -9.30195 22
722 2 -4.61519 5.74901 15.1885 11
723 2 6.2916 0.709321 -13.3464 15
724 2 0.747083 11.674 -9.44801 13
725 2 12.2148 10.1177 -2.97889 17
726 2 -5.82731 -6.57553 12.2608 14
727 2 -12.1431 8.25361 1.00241 12
728 2 9.08036 -0.236348 -11.0635 21
729 2 -0.762535 -12.4964 -11.538 9
730 2 -16.0418 -6.10876 -2.66018 12
731 2 7.97515 10.5504 3.19278 16
732 2 -2.28712 6.07882 2.56144 20
733 2 -4.4849 -15.6021 -7.87716 6
734 2 -2.24361 11.4066 2.53698 21
735 2 2.52059 -12.4303 7.06007 14
736 2 8.02334 -2.88733 3.84534 19
737 2 -8.16699 0.393892 2.4051 23
738 2 13.2877 -9.27251 -3.14993 16
739 2 13.2791 -11.8086 -2.35531 11
740 2 6.24215 5.70333 4.09177 19
741 2 6.17034 -11.3356 -0.445016 21
742 2 14.6154 -5.89215 7.28051 10
743 2 -2.99563 -2.23397 13.8938 14
744 2 16.2627 -7.90469 -1.10902 10
745 2 0.00697496 10.6264 4.42753 20
746 2 10.0062 6.48789 10.532 15
747 2 -6.91217 8.50099 11.099 11
748 2 2.47572 8.84574 4.85452 19
749 2 15.2086 -7.52903 2.39383 16
750 2 6.08702 4.85773 -1.59101 21
751 2 -9.06223 -4.33775 -10.9621 13
752 2 -5.26838 -0.848186 10.8318 19
753 2 5.9121 -2.31804 -11.5354 21
754 2 -6.3849 -0.0729849 -12.4555 14
755 2 -13.553 5.36818 5.74702 12
756 2 -9.75418 -9.52395 2.15711 21
757 2 15.2114 -0.653975 -0.972713 14
758 2 2.2548 -8.62913 6.69508 17
759 2 -0.0519503 -2.05964 12.4303 15
760 2 10.2498 -2.47387 -12.9023 13
761 2 7.0448 5.03513 13.7857 13
762 2 1.03495 5.08459 14.6999 15
763 2 -9.40832 2.81251 6.9514 19
764 2 5.72565 -8.70169 -5.25366 20
765 2 12.154 -3.95435 -4.48381 22
766 2 -9.55007 8.45065 8.15357 12
767 2 -4.20007 -9.55565 2.87665 19
768 2 14.1254 -7.91527 -6.82144 11
769 2 4.94428 2.45037 9.6216 18
770 2 8.63752 -10.2295 -5.18825 15
771 2 7.24314 -5.69558 8.94137 21
772 2 -3.65392 -7.9904 7.94637 19
773 2 15.9771 1.51537 1.16559 12
774 2 -10.9232 -11.7288 7.58145 10
775 2 10.1744 8.25776 -4.56492 17
776 2 -1.69858 -7.37937 1.6061 18
777 2 14.7541 -5.25114 -6.79933 14
778 2 4.08969 -15.2874 -2.32705 16
779 2 13.5696 -1.10331 -3.2123 22
780 2 -6.25641 8.0147 6.00942 18
781 2 13.06 1.86277 -6.21525 20
782 2 -5.85061 -7.31106 -6.8791 17
783 2 -12.5279 -4.11388 4.08116 19
784 2 -2.59238 -9.86814 0.234427 20
785 2 -4.90456 -9.08476 -0.152637 18
786 2 -5.05962 5.26424 -2.71221 18
787 2 -8.53979 10.4282 5.8055 13
788 2 4.98762 2.75537 -8.07673 21
789 2 8.11666 7.91792 2.42828 19
790 2 5.51173 7.20225 -10.9168 19
791 2 -2.41818 3.8432 15.4934 15
792 2 -1.69622 -0.635001 -14.2236 16
793 2 -12.9305 2.93491 -3.20882 18
794 2 -1.93852 0.411992 9.63467 20
795 2 -11.2963 6.80105 6.26855 13
796 2 -5.37588 2.58642 -4.38769 23
797 2 5.28068 13.9155 4.00955 11
798 2 13.4382 2.70374 -3.45672 18
799 2 14.012 -9.46074 -0.147166 15
800 2 -8.30952 -2.36198 10.3995 17
801 2 9.10251 0.229232 1.95685 20
802 2 -0.163427 13.2113 3.50384 16
803 2 -7.06411 8.90108 -10.7785 9
804 2 -2.74316 5.84619 6.01896 18
805 2 11.8655 -7.96087 7.65605 14
806 2 -9.40948 -5.57498 -7.82142 18
807 2 5.58657 5.14638 -12.6081 13
808 2 10.2065 10.5689 0.0958666 13
809 2 -13.3045 -5.31478 7.45044 9
810 2 -3.14866 8.93055 1.12104 20
811 2 -5.14783 10.9502 -8.63933 12
812 2 3.57404 9.18644 -5.74774 19
813 2 14.6185 2.6367 9.77035 6
814 2 -1.62954 5.89066 9.29246 24
815 2 14.2117 -6.71365 -3.30232 16
816 2 -4.72767 0.133036 13.7837 17
817 2 4.93095 -5.39451 14.0183 12
818 2 -15.6329 -0.826484 -2.64598 12
819 2 -6.16564 -9.46885 -11.3892 12
820 2 5.01053 -15.6118 -5.88642 12
821 2 1.26725 -4.32957 -12.2916 19
822 2 16.1018 4.1626 -0.714011 10
823 2 -5.61892 2.45452 15.4518 13
824 2 6.69591 5.24221 -9.48361 19
825 2 -8.22168 -8.58239 11.3054 9
826 2 -1.62939 -4.09158 -16.1196 11
827 2 3.1587 -15.0703 0.091981 11
828 2 0.481661 -5.82537 -6.25364 20
829 2 7.01248 -14.4946 -1.05739 15
830 2 10.9868 7.60427 -1.74888 22
831 2 -4.96674 6.00996 -12.7518 12
832 2 0.44419 14.7098 7.65069 11
833 2 -8.04329 -7.49613 -1.37165 20
834 2 -9.26039 4.04793 -9.44891 17
835 2 5.53761 6.3295 -5.21494 21
836 2 -2.88839 11.8528 -0.735414 20
837 2 -6.86337 -14.9425 4.83859 9
838 2 15.7961 0.964499 3.93165 14
839 2 -1.29894 5.94724 13.0633 19
840 2 -8.57517 -14.7428 -0.555039 10
841 2 5.05333 -12.5617 -2.93647 20
842 2 2.91494 2.77249 14.6754 13
843 2 4.43021 11.6317 8.23486 13
844 2 11.863 -4.31141 -7.4455 19
845 2 8.52979 9.23994 10.9781 11
846 2 10.5638 10.3327 -6.51344 15
847 2 -11.2241 2.31551 9.77992 15
848 2 8.87827 -5.18608 -0.845636 17
849 2 -3.3416 14.2876 2.7584 14
850 2 7.86653 2.72144 4.16176 19
851 2 -2.06446 6.71859 -11.5618 13
852 2 7.24045 -7.56003 11.631 15
853 2 -6.54713 7.65292 -0.536298 19
854 2 4.81897 -9.89989 10.9854 14
855 2 5.17871 -7.76642 6.56295 21
856 2 -7.78063 -13.8157 -4.00885 14
857 2 -5.32768 9.20917 -7.15622 18
858 2 -7.44572 -10.3008 -8.57704 14
859 2 -5.50015 -15.7747 -5.26345 13
860 2 -4.7927 -1.49326 -8.39352 15
861 2 1.67241 -8.85585 -10.4713 17
862 2 4.9539 6.34224 7.53182 14
863 2 -7.59935 -4.52497 -2.88391 17
864 2 -14.8426 3.72787 3.5522 8
865 2 9.4196 -4.80974 7.14282 19
866 2 -7.76112 4.34621 3.85213 17
867 2 -3.94886 -16.494 0.0996542 11
868 2 -4.11086 3.24051 12.8951 19
869 2 3.0691 -2.91628 -10.3601 16
870 2 -4.92654 -6.37186 -9.64282 19
871 2 8.43123 7.05268 -11.8748 12