ITEM: TIMESTEP
16000
ITEM: NUMBER OF ATOMS
2000
ITEM: BOX BOUNDS pp pp pp
-30.0 30.0
-30.0 30.0
-30.0 30.0
ITEM: ATOMS id type x y z Coordination
1 1 -6.03464 3.08811 -10.6613 20
2 1 -1.83799 -11.5901 -9.86362 10
3 1 6.74072 12.7918 12.1213 19
4 1 14.3754 -7.88477 9.30918 13
5 1 -12.7397 11.4111 -2.68664 10
6 1 11.4944 -5.63247 -7.36454 19
7 1 -11.6552 2.23649 -8.42564 9
8 1 0.758858 -3.50144 14.7473 15
9 1 -8.49117 -0.260369 -7.17473 19
10 1 -10.5427 -10.3983 5.57176 17
11 1 6.66035 3.18318 -13.6107 21
12 1 -1.28955 -11.5064 2.4651 18
13 1 -12.3886 -9.20228 2.70845 14
14 1 4.66353 0.979255 13.4644 18
15 1 -1.44063 2.56812 10.8464 21
16 1 -2.13654 10.39 -7.53821 19
17 1 1.502 -2.86119 18.4797 9
18 1 -9.16908 3.45565 -7.32944 19
19 1 -11.674 0.912712 12.2489 9
20 1 18.2722 8.48649 7.07961 11
21 1 4.11816 8.88494 -7.5638 21
22 1 4.15789 9.01901 -13.3886 15
23 1 21.2908 1.63289 11.6595 10
24 1 -10.3317 1.98829 -2.37909 21
25 1 -8.88141 10.0337 8.85937 14
26 1 10.7803 -14.0875 8.5127 10
27 1 11.7529 -14.0751 -7.11188 10
28 1 11.338 -12.113 -1.09887 21
29 1 -5.29648 -15.5234 -3.50865 12
30 1 -6.06646 -5.54134 13.3831 22
31 1 3.79645 -5.90144 -10.453 20
32 1 13.9319 -11.8216 -5.34046 12
33 1 -3.78518 8.08402 -12.3526 16
34 1 1.53416 4.49467 16.5895 16
35 1 1.93166 -10.8201 9.65391 17
36 1 7.87348 -2.96311 16.9236 14
37 1 -8.24533 0.0582164 2.96817 22
38 1 -13.2984 -1.4628 10.3285 7
39 1 -0.777587 12.0237 -2.62696 20
40 1 4.04485 -13.8202 -10.2727 9
41 1 1.88621 2.0063 -10.3889 21
42 1 7.11471 -8.32431 -8.42918 19
43 1 -1.43922 -3.25597 10.5639 17
44 1 -9.39587 9.29308 3.33035 19
45 1 7.89995 13.6698 -8.61359 10
46 1 6.15875 15.3935 10.0659 16
47 1 -6.2393 7.73291 -4.78185 23
48 1 5.46437 11.5125 -3.47041 21
49 1 5.9269 -11.3643 1.92721 18
50 1 7.16302 -6.91889 -5.24569 19
51 1 12.6496 -1.16143 -12.3382 16
52 1 -7.54106 7.35837 11.4511 17
53 1 -7.77055 -5.84719 -7.37912 16
54 1 -8.62289 11.6882 -1.87658 19
55 1 -2.82271 -8.39379 8.60592 20
56 1 1.70084 15.2662 12.8764 13
57 1 -12.1664 8.68697 -5.04601 11
58 1 -7.64166 10.1427 13.2163 7
59 1 1.49135 -13.7217 8.5145 13
60 1 8.60225 -13.9282 3.54945 18
61 1 3.9488 10.5181 13.384 18
62 1 -11.4287 -3.58456 -5.40113 11
63 1 -9.25003 8.46654 -7.14486 19
64 1 7.08756 5.2958 10.5034 22
65 1 15.2408 -8.84192 -9.66733 11
66 1 12.3517 -10.9105 9.07639 10
67 1 -15.2598 -3.99012 4.59335 10
68 1 7.22574 15.9917 5.94346 13
69 1 5.43337 -8.3223 13.3502 12
70 1 -2.63469 -12.5058 5.42769 19
71 1 12.856 0.767524 12.4034 20
72 1 7.04391 11.6066 9.09995 17
73 1 -1.41255 -6.30777 -7.90299 18
74 1 -11.0131 11.1048 6.61733 11
75 1 -5.58883 14.4019 -0.604305 16
76 1 1.45381 5.53396 -7.78848 21
77 1 12.8853 10.105 -6.791 10
78 1 10.5128 -6.18218 6.0073 21
79 1 9.26783 -6.39884 11.1185 19
80 1 -7.83642 16.4035 -2.96616 6
81 1 -7.84271 8.10151 5.15502 21
82 1 -4.54072 -4.48198 17.8907 7
83 1 -2.67288 9.48162 7.29037 20
84 1 0.56099 -5.64645 11.7113 18
85 1 13.9532 -6.32755 0.504452 15
86 1 -6.44577 3.51297 8.21918 19
87 1 -9.18666 -13.4561 5.30724 14
88 1 10.1028 -6.51197 -4.74401 20
89 1 6.89466 -0.66177 -10.7801 21
90 1 -6.95417 -1.10592 -12.402 15
91 1 2.07909 11.9659 2.3224 21
92 1 -6.51911 2.48522 -7.29199 20
93 1 0.993731 9.65337 13.4551 19
94 1 2.28684 11.347 -2.67605 21
95 1 -9.29945 12.4693 4.52994 15
96 1 -4.85382 -8.44454 11.5873 19
97 1 16.0053 -2.83394 13.3186 14
98 1 9.20579 -9.48217 -6.15486 17
99 1 8.07126 0.298367 13.9223 23
100 1 -6.45362 -6.69082 0.262297 21
101 1 -5.59122 -8.45169 -2.42488 20
102 1 12.0718 -11.0541 2.7635 15
103 1 10.2038 -0.942554 -10.5354 20
104 1 12.4016 13.7039 -0.819761 14
105 1 -8.33 -10.3984 8.26229 16
106 1 -5.90084 -11.8849 6.28238 15
107 1 9.04048 -10.4336 -10.4124 15
108 1 10.2764 -8.57442 -2.14829 21
109 1 4.51594 -12.3479 10.6358 11
110 1 -5.9369 -8.33738 3.1893 23
111 1 17.965 5.28974 14.5276 10
112 1 16.6522 -2.96158 -9.09425 14
113 1 -14.4555 -7.00919 2.49352 11
114 1 13.7566 7.22596 5.47709 19
115 1 10.882 8.69568 6.41844 18
116 1 -2.34358 2.02593 14.2171 19
117 1 3.87211 13.302 12.0848 18
118 1 -5.16475 12.0816 -8.57904 11
119 1 1.41282 -4.98981 -9.48913 18
120 1 12.3657 -9.34563 -11.404 13
121 1 0.467917 15.4182 -7.23764 12
122 1 10.2822 -1.6878 13.4869 21
123 1 -1.9542 -0.249983 -13.7562 18
124 1 0.1543 10.2922 -5.34369 18
125 1 15.0831 -0.0614989 -3.83999 20
126 1 -10.0794 11.3025 -5.09548 14
127 1 -3.60951 13.3272 -2.77867 16
128 1 11.359 1.58204 -12.1191 16
129 1 12.4522 -8.66174 6.82967 16
130 1 -3.4956 1.2672 -9.56072 20
131 1 -1.09303 14.2678 10.9952 16
132 1 17.3673 0.88451 -6.39239 15
133 1 8.43859 11.7967 -3.19283 17
134 1 0.448391 15.1595 2.27918 18
135 1 16.448 10.8099 2.34482 13
136 1 -1.85815 14.7742 -5.13454 12
137 1 8.06626 17.3714 -3.45865 9
138 1 7.02562 10.8642 -9.54863 17
139 1 -10.263 -13.8816 -0.102821 10
140 1 -12.1859 10.5274 3.92873 12
141 1 -1.24372 -4.50657 -10.7534 21
142 1 8.56966 -6.26635 -13.3227 14
143 1 9.10679 14.1996 4.39942 21
144 1 5.02689 13.3363 7.21739 18
145 1 -10.2146 -2.57124 -2.14887 18
146 1 -8.04631 14.7079 2.59942 11
147 1 17.4561 -0.255653 0.58165 12
148 1 -10.5468 5.66878 -8.98095 13
149 1 9.29126 -0.0379493 17.5136 12
150 1 9.27912 13.8033 -1.04783 17
151 1 0.574951 9.22222 7.86192 21
152 1 8.15408 -3.14627 -12.8013 21
153 1 1.32319 11.4971 10.907 20
154 1 2.0615 14.0276 -10.2887 11
155 1 5.4375 -2.93591 11.3157 19
156 1 -9.7648 -6.68927 5.47578 23
157 1 -0.98114 -6.31164 -15.0147 10
158 1 -4.75365 5.08765 -7.60359 18
159 1 -1.19641 -9.22022 6.05443 22
160 1 9.20478 -15.1493 -0.178765 16
161 1 2.06496 8.13262 -9.95646 18
162 1 -12.2496 3.03419 9.23953 8
163 1 13.2624 8.50773 -3.72564 17
164 1 -6.43583 6.41816 14.2081 14
165 1 7.82751 -9.57254 11.6679 18
166 1 5.66744 13.8765 3.64558 18
167 1 2.60352 8.59214 10.7312 21
168 1 13.7267 9.9459 13.2358 11
169 1 -2.08824 13.7247 0.0293995 18
170 1 18.1457 -4.07427 -6.50769 11
171 1 -1.89264 9.98436 12.7211 17
172 1 12.1945 -8.9608 0.969934 21
173 1 -13.9992 -2.94151 7.23484 11
174 1 -6.34481 -6.05611 5.72765 23
175 1 11.6441 8.78354 9.85892 19
176 1 -13.0773 -0.701708 0.872122 14
177 1 0.975375 -12.3127 0.555243 20
178 1 0.366271 11.2906 4.90168 20
179 1 8.3015 16.8701 11.8413 9
180 1 3.30525 15.4982 -7.89551 13
181 1 -10.3555 -4.09599 -8.89014 10
182 1 -7.93545 -3.16623 10.9111 20
183 1 2.13927 -9.04062 6.09866 22
184 1 9.45905 -11.6894 8.87605 15
185 1 -11.1799 7.63937 5.88222 17
186 1 19.3902 4.86587 7.09247 15
187 1 -2.51787 -8.04818 -10.309 10
188 1 6.82089 -0.110613 11.1014 22
189 1 9.36276 -15.5413 5.79943 12
190 1 0.419294 10.8417 -10.2862 16
191 1 11.4576 -11.7713 -13.2331 7
192 1 14.7242 -5.38789 -10.6032 13
193 1 7.29601 5.05649 -15.6974 11
194 1 -3.12467 -2.89532 -8.29959 20
195 1 -5.58441 14.3362 -4.3324 13
196 1 -8.68635 -12.2114 11.0135 9
197 1 0.135978 17.2394 4.23698 15
198 1 -5.12165 3.77829 15.5524 17
199 1 -8.42293 14.8051 0.098019 12
200 1 10.6864 -0.0351741 11.2357 23
201 1 0.884691 -12.675 -4.86003 21
202 1 -5.59694 11.1069 -3.12492 20
203 1 -2.43243 4.33867 -13.9844 18
204 1 -6.46132 -11.1767 12.6967 9
205 1 -8.73306 7.1691 8.17614 20
206 1 -6.08979 5.48664 10.0281 19
207 1 4.61982 -14.6412 -1.95959 18
208 1 -3.93538 -15.9535 -0.148057 11
209 1 12.4 -8.45712 -5.11582 17
210 1 11.8563 7.8466 15.5921 9
211 1 8.88755 5.38208 -7.62472 19
212 1 0.365295 10.6158 -0.113255 23
213 1 -7.8586 1.90737 5.1325 18
214 1 -10.7825 13.3701 -2.94933 11
215 1 4.15101 5.62283 10.8605 19
216 1 4.47308 -17.8126 2.67508 12
217 1 14.0844 -0.639314 -0.065611 20
218 1 -6.73454 5.08191 5.1603 19
219 1 -9.79658 -6.5114 -4.58991 15
220 1 4.52214 1.61915 -12.6134 24
221 1 3.58958 -0.388604 10.8079 22
222 1 8.75378 7.65193 -10.5857 18
223 1 6.97923 -8.62432 -3.06085 20
224 1 -0.563156 0.810173 -10.225 21
225 1 -1.16183 -15.3408 6.37913 21
226 1 11.7789 -0.926187 -4.57029 20
227 1 -10.1558 -2.97195 8.04966 20
228 1 6.21388 -16.9567 -1.35839 12
229 1 -6.26785 -9.38098 -6.63967 13
230 1 6.59201 14.6516 -3.5349 19
231 1 3.64485 -7.79067 -12.8972 13
232 1 7.7931 6.44127 13.0651 22
233 1 20.427 4.17834 3.73515 10
234 1 14.8078 -1.45186 -6.79762 23
235 1 -4.5364 1.48697 -13.0098 17
236 1 -12.2542 0.133773 -2.50927 15
237 1 -3.68534 -15.6034 4.9542 17
238 1 12.9358 -4.56182 8.85693 16
239 1 0.969469 -9.07805 -14.165 6
240 1 -1.26763 8.06004 -15.874 9
241 1 -2.55665 -8.42314 3.3592 22
242 1 3.67353 10.5538 -0.0799191 19
243 1 -7.61475 -1.44563 13.671 16
244 1 -6.57004 -6.86403 -4.92769 19
245 1 -5.16848 -4.44985 -10.4925 15
246 1 1.16748 9.39611 -12.6499 15
247 1 -8.60162 -12.4572 -6.00747 8
248 1 11.8742 -3.86952 -12.5117 13
249 1 14.0285 -0.748191 -9.68274 20
250 1 14.6043 1.89251 7.32813 19
251 1 -11.2847 -7.23824 11.6941 11
252 1 -0.812378 -9.57062 0.466682 20
253 1 9.75178 2.75224 16.2276 15
254 1 -6.99222 -14.8343 -0.767872 15
255 1 1.29896 -11.2095 3.70072 20
256 1 -3.80344 16.2854 5.21972 13
257 1 2.96555 -0.862269 -15.2275 23
258 1 0.505349 -6.25373 -12.4397 19
259 1 -3.26479 -10.5004 13.3765 10
260 1 -0.432653 7.74002 15.7855 17
261 1 5.66101 -9.30925 -0.118834 20
262 1 -0.0803736 -15.0382 -5.11719 13
263 1 -9.32759 8.05107 -3.59505 17
264 1 16.2641 -0.317464 8.41434 15
265 1 -6.94223 0.725121 -9.27937 17
266 1 5.39315 5.80067 -7.67111 24
267 1 8.38925 -16.6047 -3.35518 13
268 1 1.26459 13.5095 -5.29066 21
269 1 2.44783 12.0266 7.79301 21
270 1 11.7703 2.48751 6.03136 21
271 1 -8.42217 0.159632 8.09685 22
272 1 -3.00924 -5.09071 14.5892 17
273 1 -3.87907 13.1952 6.91315 21
274 1 6.95556 -5.74271 -10.333 21
275 1 19.305 8.63233 2.59861 12
276 1 9.16764 -11.0471 3.89879 16
277 1 4.55535 -4.08672 17.5195 11
278 1 -14.9715 -7.0088 7.17449 5
279 1 6.94662 -15.4105 1.62946 15
280 1 -6.21527 9.5221 7.54396 20
281 1 -10.9297 8.04182 11.1445 11
282 1 -9.48399 -6.55943 14.0569 12
283 1 -11.8643 -5.74193 8.38643 17
284 1 14.0604 -2.28997 -3.24536 20
285 1 -10.2969 -8.20044 8.42561 17
286 1 8.38546 -5.98414 -7.87529 21
287 1 14.755 -8.77822 -3.6613 18
288 1 5.63451 16.6971 0.424437 12
289 1 -7.95563 11.3113 -7.97661 13
290 1 3.51838 7.69442 13.9444 15
291 1 -10.2125 -1.103 5.44145 17
292 1 9.31778 -9.71648 0.865194 22
293 1 -3.2248 11.2716 4.96077 19
294 1 10.6714 -9.74962 11.859 11
295 1 14.7241 -5.07335 3.47247 15
296 1 0.67402 5.36465 10.6571 21
297 1 4.6141 1.57877 18.8738 12
298 1 -1.25596 14.2603 5.31729 26
299 1 10.3707 5.46656 14.7408 18
300 1 -7.92504 13.3848 -4.73802 14
301 1 1.68744 -1.84694 -17.3175 12
302 1 9.74185 -7.07692 -10.3321 14
303 1 -8.31022 7.86338 16.0599 6
304 1 -12.0859 9.02136 8.88007 11
305 1 -3.01846 8.61131 2.47422 22
306 1 10.3612 -2.45978 8.9148 22
307 1 -7.88775 -11.1249 2.50813 20
308 1 8.7009 -5.1919 8.50452 18
309 1 -9.85166 -9.76852 12.1551 9
310 1 -13.456 7.16546 3.306 10
311 1 0.463364 -0.279672 10.6829 19
312 1 10.6139 -12.1561 -4.73552 14
313 1 -2.40382 -1.68272 -10.8178 18
314 1 9.50733 -0.369512 -14.137 16
315 1 5.51847 11.2333 1.98388 22
316 1 -7.90382 0.183584 -1.77628 22
317 1 3.83372 -10.7858 -7.33175 18
318 1 9.33664 4.81456 -12.7677 14
319 1 1.57181 -13.9397 -7.60978 13
320 1 -6.83092 -5.83363 -12.5497 10
321 1 12.935 3.19698 15.8453 12
322 1 16.0444 6.49381 -2.67784 18
323 1 -3.67836 4.80095 -10.8318 19
324 1 3.82113 14.9801 1.62006 18
325 1 -13.2111 -3.0147 -1.67199 10
326 1 -4.86386 6.88717 7.22445 19
327 1 -4.5723 11.2031 1.8629 17
328 1 -2.83435 5.6272 10.4497 20
329 1 18.0722 2.2528 12.3579 14
330 1 12.6309 -3.82282 -5.53608 21
331 1 6.44 -2.48134 13.9533 20
332 1 14.1568 1.58377 -7.0999 20
333 1 -6.2251 -14.8859 -6.50157 9
334 1 3.99598 11.1762 4.88688 22
335 1 -7.88004 1.71867 -4.601 23
336 1 12.6906 -15.0852 -0.353418 9
337 1 19.1338 -3.35007 9.18627 7
338 1 -6.50621 -1.17195 -4.61448 23
339 1 -4.34198 -9.33818 5.83016 22
340 1 -6.1016 -5.64115 10.2306 19
341 1 -1.12467 12.4759 1.91292 18
342 1 -10.2292 -8.6258 -2.14848 15
343 1 8.60504 8.56795 15.0594 15
344 1 -6.3434 10.6815 -0.12361 18
345 1 3.00252 10.5055 -5.39349 23
346 1 7.2543 11.0762 4.98899 20
347 1 -12.5222 -7.39781 -0.337574 15
348 1 2.59555 -9.80632 -4.88752 21
349 1 -9.56823 -0.868031 11.5082 17
350 1 -12.8686 8.10248 -1.84706 10
351 1 5.42694 -9.30695 6.27078 20
352 1 -2.91257 -15.8313 -5.72283 10
353 1 13.3103 12.8977 10.9566 9
354 1 12.8906 5.5573 -12.0153 6
355 1 -11.772 5.75899 -3.23632 14
356 1 3.61541 14.555 -2.34571 18
357 1 -8.55662 5.21342 -2.92173 20
358 1 0.46814 -12.0299 6.16077 20
359 1 12.4319 13.8485 4.31204 14
360 1 1.56925 6.1257 -17.6553 10
361 1 -10.125 3.02855 3.62683 17
362 1 -2.77119 -14.3278 2.3186 19
363 1 17.5439 -7.63912 -6.8626 9
364 1 -11.9072 -0.0109301 7.9086 12
365 1 -10.17 -4.71571 10.7293 17
366 1 -7.50894 11.9788 7.25593 16
367 1 -9.25308 2.13275 -10.2181 13
368 1 13.4374 -11.2436 -8.36342 11
369 1 0.200635 -9.77644 -7.51909 19
370 1 -4.77281 -2.97422 11.0645 20
371 1 -0.775547 6.89543 -12.7912 19
372 1 10.7105 -12.7108 6.09904 18
373 1 6.34666 16.2772 -6.31971 11
374 1 -6.22507 13.9014 5.1517 16
375 1 6.98666 2.3917 16.7835 16
376 1 -8.03845 -5.54829 -10.3745 12
377 1 -6.01272 -8.14514 8.4275 18
378 1 15.2045 -6.07697 11.7946 9
379 1 13.7328 -7.91511 3.77905 15
380 1 16.1747 9.16956 -2.20466 17
381 1 -3.43574 4.05458 12.8091 21
382 1 6.76648 10.5234 -6.16882 20
383 1 2.52918 -16.8446 -0.405231 10
384 1 -3.89706 7.75886 16.5829 8
385 1 3.86507 16.6155 4.3913 17
386 1 -3.12452 -6.34967 -12.6415 13
387 1 14.6685 13.6742 1.1515 13
388 1 9.08724 6.61742 8.05909 24
389 1 -6.60101 -0.225369 10.6929 21
390 1 -2.83303 -8.71317 -2.35518 20
391 1 -11.3632 3.18877 15.6442 9
392 1 -8.30999 -3.61956 -5.03339 19
393 1 -3.35269 13.5178 3.40967 17
394 1 -1.40092 -9.81468 -5.0409 21
395 1 5.5173 -5.40148 -13.3263 19
396 1 -5.10465 -11.4221 3.02512 19
397 1 12.2009 6.04295 7.5235 17
398 1 -3.58202 -0.472611 15.9398 13
399 1 -5.92509 8.83716 -7.96002 17
400 1 12.3088 5.81442 2.42234 20
401 1 -5.59649 -13.3249 0.546087 19
402 1 11.0096 15.6807 5.9139 14
403 1 1.8768 14.6945 9.84529 21
404 1 -9.9387 -0.84217 0.238719 22
405 1 -1.29388 17.5151 6.72079 13
406 1 9.26329 13.9197 -6.49667 10
407 1 -5.03709 -5.92156 -7.76249 18
408 1 3.24072 1.74059 15.9434 16
409 1 3.90759 -8.93074 -9.4575 18
410 1 3.16568 2.52304 -15.2111 19
411 1 11.559 -14.3132 3.25732 13
412 1 -6.44776 10.8696 3.97704 19
413 1 7.32216 3.18234 13.3582 18
414 1 12.1 7.77007 -0.115113 22
415 1 7.30786 10.9335 -0.31156 20
416 1 -3.59544 9.3292 -5.75487 19
417 1 -7.96162 -4.08935 0.413637 23
418 1 2.17451 13.8986 4.62335 22
419 1 -6.38658 6.37306 -12.2385 18
420 1 14.1359 8.75684 2.66893 18
421 1 14.5966 11.0126 -3.68947 13
422 1 15.4777 2.20985 0.139326 18
423 1 4.4232 5.01614 -14.1957 23
424 1 1.79656 -8.10201 12.0477 14
425 1 4.9545 -9.57472 10.78 17
426 1 -6.35427 4.52454 -4.82985 20
427 1 -0.89732 -11.2449 8.34524 19
428 1 9.19617 -12.2822 -7.30751 16
429 1 9.01883 12.3874 6.9344 19
430 1 2.03311 7.49261 -15.1947 17
431 1 5.77674 -0.567383 17.4313 12
432 1 -9.24759 2.35858 13.5952 14
433 1 0.783996 -14.1617 3.31288 19
434 1 -9.61037 -3.37811 2.67954 20
435 1 14.935 -4.94722 -2.11887 17
436 1 12.2824 0.491074 -1.83803 21
437 1 5.74366 -9.36805 -6.28697 21
438 1 5.81925 1.87971 -10.1853 20
439 1 15.9358 -3.46108 0.803167 15
440 1 -0.554849 -0.497181 16.7159 13
441 1 14.1271 10.2621 -0.129499 19
442 1 -1.37181 -3.54362 -13.4232 21
443 1 4.64267 7.11211 -16.4881 10
444 1 -4.5821 -5.06082 8.29003 20
445 1 0.935863 13.803 -0.212013 16
446 1 -4.46525 -1.77613 -16.2843 13
447 1 -13.282 -1.67246 3.87217 14
448 1 3.19446 -10.5207 -11.6195 12
449 1 -2.483 -12.309 10.9829 10
450 1 8.88461 7.54392 -5.6275 19
451 1 15.8714 0.796749 13.1681 13
452 1 17.1045 4.82137 0.917846 19
453 1 -7.89593 -9.06328 -0.274816 21
454 1 0.572476 0.729386 -15.8098 17
455 1 -4.31167 11.5516 12.7388 12
456 1 12.0787 -3.37125 0.574002 21
457 1 -2.64615 11.7903 -5.16548 20
458 1 13.8558 2.87862 -9.92748 16
459 1 2.6679 7.8565 16.9687 15
460 1 -8.32215 2.46907 10.3298 19
461 1 8.68128 8.61484 10.5212 21
462 1 10.3312 1.99602 13.3802 23
463 1 -3.96646 7.06939 -14.9558 11
464 1 -3.2597 -6.97323 -4.95093 22
465 1 1.84458 2.23966 10.8393 18
466 1 16.2838 7.53011 13.1389 14
467 1 9.8414 2.97837 -9.40405 17
468 1 -3.4062 8.95067 -3.19658 21
469 1 5.59122 19.2344 -1.67 6
470 1 14.2717 -5.07114 14.4365 11
471 1 15.1956 -2.74803 -12.1788 12
472 1 13.6387 -12.2832 0.517953 12
473 1 13.273 6.85556 11.2649 18
474 1 -10.9941 -10.1571 0.332504 18
475 1 -5.71452 11.1198 -11.2004 13
476 1 -5.86406 1.61778 17.335 10
477 1 -2.31722 13.4431 -8.28217 10
478 1 8.23242 -12.5332 0.437501 16
479 1 6.60065 -2.89385 -7.73334 25
480 1 -0.187708 18.4607 0.61223 9
481 1 -4.54699 -2.17739 -13.404 22
482 1 6.9083 -12.6731 5.90099 22
483 1 -11.277 -5.75376 2.81533 22
484 1 3.56869 10.9339 -10.818 20
485 1 -2.49382 10.644 15.3444 15
486 1 -8.09109 -5.27073 8.11541 21
487 1 6.17523 -8.3448 -14.4832 9
488 1 3.68691 -6.39568 10.8042 18
489 1 -9.42918 6.29675 2.91828 20
490 1 7.89437 5.78049 16.5376 12
491 1 16.1451 12.7943 -1.35625 12
492 1 17.2001 -7.73995 -3.31092 11
493 1 5.15717 4.6046 12.997 16
494 1 -5.68389 4.33319 -14.6343 12
495 1 -7.00681 -14.1918 8.03367 16
496 1 7.92183 1.46253 -15.3184 13
497 1 0.543849 17.5805 9.75541 10
498 1 15.4468 6.05261 -10.1203 9
499 1 -1.55396 -1.97388 -16.5568 13
500 1 -1.11038 -11.303 -2.81041 18
501 1 -4.09067 -4.7131 -15.6173 11
502 1 13.0819 3.29955 3.61149 19
503 1 18.9038 2.88318 0.787529 14
504 1 6.34584 -11.3648 -8.74491 20
505 1 14.6626 5.69012 15.3148 10
506 1 6.95918 -11.6912 -5.40146 21
507 1 8.25071 1.69713 -11.8992 18
508 1 10.3995 16.5132 -0.656122 10
509 1 10.7925 8.95311 12.7216 16
510 1 16.3126 7.6327 0.827548 21
511 1 14.1269 -2.15353 7.81006 21
512 1 15.4774 6.9526 -6.97585 12
513 1 11.7118 -3.68414 12.137 20
514 1 16.2076 4.54296 12.6288 18
515 1 1.40528 -3.16973 11.4675 18
516 1 18.8565 8.51506 -0.962465 14
517 1 2.8736 -1.30558 16.8528 17
518 1 17.8144 -1.15726 -4.69733 15
519 1 14.9999 1.89306 10.3085 20
520 1 -4.86437 -0.504866 -7.44153 19
521 1 15.4132 5.61094 3.34999 21
522 1 -13.1179 6.49137 11.6177 9
523 1 9.46674 11.3008 12.6884 13
524 1 13.4839 -1.75109 14.355 16
525 1 7.26607 9.19561 7.43034 20
526 1 5.32598 15.2817 13.3508 12
527 1 -2.35989 -18.2368 7.01976 11
528 1 -4.76691 7.98721 -0.279628 22
529 1 10.4657 8.85738 -2.91676 19
530 1 11.7596 0.2092 -15.294 5
531 1 1.47755 16.4139 -1.4708 11
532 1 4.44056 -12.5533 -4.40199 19
533 1 12.7216 -7.19222 -9.64793 13
534 1 -9.81846 5.42246 10.2946 17
535 1 -1.44707 9.14365 -10.3004 15
536 1 -8.18597 -13.7564 2.22757 16
537 1 -5.78586 0.756871 -15.2016 12
538 1 -12.8078 3.79707 -1.90996 14
539 1 11.3304 -5.1628 3.55351 20
540 1 8.6486 14.677 13.3729 12
541 1 4.09945 -7.90391 8.47598 21
542 1 -10.106 -0.377022 -4.38478 17
543 1 3.3034 4.06081 -17.6695 12
544 1 -1.85034 4.72357 15.6693 19
545 1 5.07865 6.98432 -10.9047 20
546 1 14.2478 -1.34668 10.9038 22
547 1 12.2463 2.14788 -4.94021 20
548 1 16.2766 5.24526 6.5017 20
549 1 6.0183 -16.1722 -5.16858 11
550 1 -6.72182 -4.77073 15.9217 12
551 1 17.1767 -0.16651 5.6798 14
552 1 2.78796 12.8576 14.7808 13
553 1 6.71744 9.62452 -12.2745 13
554 1 -11.3726 12.4249 0.428642 10
555 1 10.8234 11.1823 4.64908 19
556 1 -8.07858 -11.7057 -1.38567 19
557 1 13.5658 -0.208369 5.03421 22
558 1 8.02988 14.6428 1.73092 16
559 1 -4.54751 2.59908 10.6715 20
560 1 -9.52465 -8.56528 3.09381 26
561 1 -6.40824 -2.93136 -7.90864 19
562 1 16.6291 -3.40889 10.5313 14
563 1 -0.864709 -16.6508 8.90208 11
564 1 12.8125 4.09127 12.9167 19
565 1 -2.93576 10.5339 -0.615889 21
566 1 5.86672 1.99454 -16.2638 17
567 1 -6.37963 -2.52077 8.25096 24
568 1 10.4544 -2.68998 -7.33048 21
569 1 15.4802 -9.10993 -6.47909 16
570 1 10.1893 5.71532 11.0318 20
571 1 -8.89059 1.42201 17.2122 8
572 1 14.2227 7.81998 8.50888 18
573 1 -1.05094 -4.89429 16.8307 9
574 1 -1.00535 8.44024 9.98946 20
575 1 4.77122 -2.39333 -13.0436 20
576 1 -4.96967 0.475417 13.6855 20
577 1 8.77851 2.53689 10.9528 20
578 1 -3.28722 -14.1259 8.52399 18
579 1 20.0751 6.06537 0.674126 12
580 1 8.83702 -11.5812 -1.89555 18
581 1 18.3118 11.5961 0.698312 12
582 1 9.12237 16.7128 8.27928 12
583 1 3.01965 0.959754 -18.5242 12
584 1 10.9825 7.71612 -7.93532 14
585 1 15.4587 3.08913 4.92259 17
586 1 -4.37018 -9.72728 0.326579 21
587 1 -0.130008 3.84629 -16.5315 13
588 1 -8.60825 11.688 1.36324 18
589 1 13.1349 -3.5824 -8.96167 23
590 1 12.0293 4.27196 -7.25562 15
591 1 16.6448 8.68143 4.57866 19
592 1 11.9195 5.89524 -2.33101 21
593 1 11.032 -3.40875 16.0154 13
594 1 8.91381 -4.87257 13.9765 18
595 1 4.78096 -13.6749 8.07146 16
596 1 -2.79274 11.4413 -11.224 12
597 1 9.31828 14.4042 9.83492 18
598 1 11.1374 -12.0782 -9.79028 11
599 1 19.6547 11.8193 -2.03475 5
600 1 8.6698 11.7618 2.26318 21
601 1 16.9871 -2.35745 -1.93628 16
602 1 5.91559 7.44056 16.1286 13
603 1 -11.789 -3.88245 5.48555 21
604 1 6.36468 -16.3504 7.11738 11
605 1 -5.29043 16.1123 2.41158 12
606 1 7.34358 8.57145 2.61077 21
607 1 -13.4194 -3.96971 1.72339 15
608 1 -1.48772 3.83713 19.317 7
609 1 -6.97298 5.78698 -9.20314 20
610 1 -3.39943 7.16563 -9.25726 14
611 1 4.16743 -12.5765 0.125258 15
612 1 10.6548 5.30418 -4.58543 18
613 1 -12.6743 3.69321 12.6949 11
614 1 1.33677 -0.160241 -12.7947 19
615 1 6.64406 -10.7835 8.26029 20
616 1 6.05369 13.7415 -0.512829 15
617 1 1.06726 1.31472 18.2569 16
618 1 -1.43732 -12.7054 -6.75974 17
619 1 1.58471 -11.6525 -9.42062 12
620 1 -4.51496 -10.0398 -4.79036 19
621 1 3.16557 16.522 -5.00304 12
622 1 4.91436 -5.63175 -7.72979 25
623 1 -0.260903 12.3454 8.27828 21
624 1 14.413 -12.1368 -2.4277 12
625 1 6.01099 -15.6046 4.52833 17
626 1 6.35709 -5.71606 12.3047 20
627 1 19.2301 -1.03051 -7.48564 10
628 1 3.4227 -15.2598 -4.56722 13
629 1 -9.55855 -3.88621 13.6711 13
630 1 -5.32296 -15.1727 2.43122 16
631 1 -4.91669 -11.7979 -1.88111 16
632 1 -8.04972 4.06717 15.7235 13
633 1 -2.40495 -14.9986 -2.63179 12
634 1 18.0822 5.97371 -5.03608 10
635 1 1.226 15.4947 6.61611 19
636 1 -12.797 4.2444 2.76429 10
637 1 17.5414 2.98768 3.26446 17
638 1 -9.29403 -3.26126 -12.0928 12
639 1 4.4735 13.2477 -5.80077 21
640 1 11.6655 0.0844149 -7.63541 19
641 1 6.69304 9.25069 13.0557 16
642 1 13.8927 2.88927 -2.58902 17
643 1 -13.3993 5.75004 0.145582 12
644 1 -11.5756 -5.61541 -2.34366 17
645 1 0.999745 10.6937 16.251 12
646 1 6.97353 4.36339 -10.4579 21
647 1 16.1199 10.6281 7.63638 13
648 1 -2.37668 -2.3675 13.5851 14
649 1 0.153458 -16.0156 0.867074 12
650 1 -5.91358 -14.0477 10.5013 11
651 1 -1.30744 -7.4073 13.8896 15
652 1 12.8332 11.3125 7.81135 18
653 1 2.1154 -7.03389 -7.39043 19
654 1 -6.68824 7.74987 2.04431 23
655 1 8.97131 8.02201 5.15681 21
656 1 -7.87607 -3.51527 5.17859 21
657 1 9.45502 10.5614 -7.66056 16
658 1 1.55047 -14.0834 -1.94536 18
659 1 1.88607 -17.3234 3.42394 16
660 1 0.580766 -18.3233 6.09486 12
661 1 7.15078 2.90249 -7.61757 21
662 1 8.27908 16.8826 3.0706 11
663 1 -2.23658 1.23172 -15.9843 13
664 1 1.2751 0.453216 13.4862 16
665 1 1.20977 3.87291 -13.7049 20
666 1 -9.77174 -0.526848 -10.3176 13
667 1 -7.66662 -5.7523 3.25258 23
668 1 3.19537 18.1448 0.964188 13
669 1 1.27878 -3.33161 -14.9807 17
670 1 16.79 3.4025 -3.59983 14
671 1 13.7311 -2.02642 2.7942 18
672 1 -7.10993 11.2661 10.8911 11
673 1 9.32214 -9.19538 6.72935 18
674 1 12.2658 0.367261 8.24509 22
675 1 16.5047 -4.46981 7.05905 10
676 1 3.8375 9.33791 7.66799 21
677 1 -6.87218 4.28321 12.4778 18
678 1 -1.19974 6.56107 12.7585 20
679 1 -4.43917 -16.5047 8.10591 14
680 1 5.87343 8.4072 10.2754 20
681 1 -11.7302 0.749917 2.99181 14
682 1 11.6148 -4.94707 -2.70283 21
683 1 -6.76942 10.8362 -5.57007 18
684 1 7.24774 -13.8939 9.37385 11
685 1 3.29107 -1.29637 13.7626 17
686 1 -2.46389 15.1449 8.30162 17
687 1 4.22455 -12.1243 5.64886 16
688 1 5.16529 2.73379 10.881 22
689 1 -10.872 -3.84139 0.396263 20
690 1 4.28531 5.01593 18.2381 11
691 1 11.108 10.9338 -1.24825 15
692 1 -10.8961 -12.101 2.88405 14
693 1 -1.4938 -16.9436 3.6696 14
694 1 8.31848 -2.60984 11.255 21
695 1 13.6479 -5.75306 6.38613 20
696 1 14.2153 4.80068 9.59754 16
697 1 -2.80211 -9.10001 -7.63739 20
698 1 -1.79038 2.15285 -11.8923 19
699 1 3.2829 -4.24193 14.2536 16
700 1 2.25667 18.2115 7.13384 12
701 1 17.6334 2.50011 7.67251 18
702 1 5.32388 7.54083 -4.91343 21
703 1 -4.11888 8.5293 10.2353 21
704 1 10.6685 11.5457 9.57422 17
705 1 9.3114 -4.17835 -10.1463 19
706 1 -2.49527 -12.6103 -0.101016 17
707 1 20.3109 4.02761 9.56249 13
708 1 5.58189 -3.23138 -10.5369 20
709 1 2.01613 5.74559 13.7472 18
710 1 10.9236 -14.5586 -2.85094 14
711 1 6.87552 6.24064 -13.0183 17
712 1 15.6599 3.73605 -7.10799 16
713 1 15.5341 0.444362 2.949 19
714 1 8.26358 -7.88236 14.0571 14
715 1 6.99569 -13.7991 -3.36729 17
716 1 13.7136 8.76917 -9.55916 7
717 1 -9.84155 2.9328 7.54836 16
718 1 18.5378 4.42394 -2.0348 13
719 1 18.0478 9.04946 10.3011 10
720 1 8.04046 -3.68314 -15.5215 11
721 1 -2.07495 16.3422 2.45305 19
722 1 19.254 6.89161 11.7693 14
723 1 13.6379 5.43775 -4.83412 17
724 1 2.06809 6.52812 -12.2245 21
725 1 10.5254 -6.36648 0.457647 23
726 1 -8.63266 2.09162 0.614082 20
727 1 10.6418 5.29199 5.53473 22
728 1 -9.51227 -7.00875 0.755924 23
729 1 -8.43913 8.37075 -10.6723 13
730 1 9.77282 3.57933 8.303 20
731 1 -11.8352 2.19675 0.225639 18
732 1 -3.87488 7.64254 13.1057 18
733 1 -1.58921 4.58056 -7.7271 16
734 1 15.1012 -5.26773 -7.31861 21
735 1 -8.04327 -9.98898 -3.9588 16
736 1 12.9435 -7.2551 -1.58764 19
737 1 -9.94558 4.61997 -0.0618942 17
738 1 -7.87399 -5.96077 -2.33394 22
739 1 20.061 4.48169 12.5153 11
740 1 -8.22077 -7.20019 10.6936 20
741 1 11.6409 0.0515988 15.6279 15
742 1 18.2563 -0.785249 12.0461 11
743 1 12.0789 -2.79327 5.64074 22
744 1 -9.92527 5.17547 5.88369 14
745 1 11.615 14.1197 8.2059 17
746 1 7.2824 8.25894 -8.71602 19
747 1 4.57756 -3.67433 -15.8745 15
748 1 -3.01637 11.6603 9.22264 18
749 1 -11.0499 -11.9839 8.37194 9
750 1 12.3487 12.1674 1.99199 19
751 1 4.18641 11.1755 10.2264 20
752 1 15.9905 -4.09432 -4.59692 18
753 1 11.3364 -7.8351 9.21002 19
754 1 5.58217 13.0312 -11.0153 10
755 1 11.2834 11.7436 -4.87972 15
756 1 -2.93175 -0.255672 11.2988 20
757 1 20.1376 1.42875 8.18573 9
758 1 1.76318 -3.36159 -12.1107 17
759 1 14.2419 10.9197 5.12816 16
760 1 -8.73075 8.04362 0.157643 18
761 1 -1.01408 -9.0611 11.5732 21
762 1 9.98808 14.7175 -3.5503 14
763 1 6.56848 -6.01917 15.6136 14
764 1 2.3321 -11.5025 -2.23449 21
765 1 -3.27082 16.8126 -0.317684 11
766 1 -11.559 9.06285 1.18236 15
767 1 17.106 1.40318 -9.28151 11
768 1 6.81743 -11.2582 -12.3624 9
769 1 -4.38932 8.19831 4.89543 20
770 1 17.7295 8.95587 -4.48031 12
771 1 5.70177 -1.2626 -17.5991 13
772 1 -4.25097 -12.3515 -7.88481 11
773 1 5.70154 -11.3827 -2.16274 22
774 1 -0.497741 12.6537 13.363 13
775 1 15.2233 -9.43967 -0.31055 12
776 1 1.99553 12.2078 -8.02177 20
777 1 18.0074 0.861855 -1.85494 14
778 1 10.8552 9.06089 2.66299 21
779 1 4.45426 -13.9195 3.21651 16
780 1 6.4735 -1.27455 -14.9451 19
781 1 14.1663 4.92722 -0.0659473 19
782 1 0.0818484 4.54928 -10.4393 20
783 1 0.765177 -8.13411 9.09973 22
784 1 7.49791 8.71792 -3.0163 18
785 1 8.4886 -0.0722354 -7.75975 20
786 1 -6.96346 8.76665 -1.96925 16
787 1 -12.7057 5.60775 15.0067 7
788 1 -1.86243 2.30661 16.8807 15
789 1 -4.3216 -11.4105 8.58458 19
790 1 11.6192 2.13279 10.198 18
791 1 2.12687 -14.8364 5.61953 18
792 1 4.75189 12.5184 -8.79457 18
793 1 3.94013 10.4668 17.1485 9
794 1 -5.33635 -2.91277 14.012 17
795 1 -5.27473 13.3512 9.0408 11
796 1 -3.13038 -6.21388 11.2976 22
797 1 7.28937 -8.00385 8.58285 19
798 1 18.1347 6.22053 9.28677 12
799 1 13.9059 -6.28513 -4.9304 23
800 1 8.64254 -9.82367 -14.443 8
801 1 -7.15868 -2.65321 -15.3102 12
802 1 -8.57395 3.16372 -12.8463 9
803 1 4.33563 15.5514 7.47462 16
804 1 -4.25367 -7.48595 14.2014 13
805 1 -1.15829 8.15616 -5.30658 19
806 1 -9.25914 5.95159 -5.52631 17
807 1 11.2008 16.1534 11.4667 10
808 1 -7.01496 -16.0017 5.10604 10
809 1 14.9542 10.173 10.7547 16
810 1 -8.47543 -14.1123 -3.85328 9
811 1 11.5491 15.5315 2.11131 13
812 1 -7.22866 -1.91381 16.8018 10
813 1 6.70643 -14.454 -7.79963 11
814 1 21.7771 -0.871775 9.85005 7
815 1 3.63476 -17.8058 5.91057 10
816 1 2.05592 3.86535 19.2118 9
817 1 14.9673 0.758771 -11.7094 11
818 1 10.5257 -8.56104 3.40823 18
819 1 3.53713 -0.463173 -10.2574 21
820 1 -11.7404 2.9446 -4.93293 13
821 1 -6.55004 8.85976 -13.7195 8
822 1 -0.0583821 3.69541 13.5254 17
823 1 12.1765 -6.33993 12.0777 15
824 1 -7.40834 -9.29898 5.56155 19
825 1 15.6045 -2.86188 4.64426 17
826 1 3.78716 4.52432 -10.8629 21
827 1 18.4621 5.68742 3.68255 19
828 1 3.48789 17.4431 10.3255 9
829 1 -12.2577 -7.34023 5.0889 19
830 1 9.32321 -15.7749 -6.00115 10
831 2 -10.9792 -5.06613 -4.33506 13
832 2 -1.81559 9.9784 -5.73783 18
833 2 -0.151381 -0.0845003 -13.9385 21
834 2 -3.35556 6.08267 12.3746 21
835 2 8.42274 -8.65709 -9.61164 16
836 2 -4.50234 -5.36284 -5.66323 21
837 2 0.710825 2.16108 12.6967 17
838 2 5.91145 -0.568734 12.6654 18
839 2 -9.90299 -11.5883 -0.676511 15
840 2 -11.6175 12.1284 -4.1174 11
841 2 3.46011 10.9733 6.69169 20
842 2 -8.50562 -0.0529975 4.97259 19
843 2 7.28013 16.0157 -4.64464 11
844 2 13.9131 4.78578 2.1608 22
845 2 3.10591 16.4125 -2.97576 11
846 2 18.1707 12.4091 -1.07596 9
847 2 -11.0321 2.54752 -6.60749 14
848 2 -8.26136 -5.63452 -5.31465 15
849 2 9.01904 0.627812 10.1555 21
850 2 7.74965 -3.75656 -8.99856 22
851 2 8.48067 -14.3417 1.43706 15
852 2 -6.78864 8.30631 0.209436 18
853 2 -8.29786 1.5763 -7.90033 20
854 2 11.5724 2.19514 8.06605 19
855 2 17.0297 -5.73427 -6.67895 16
856 2 -5.87305 -8.44351 -0.57688 20
857 2 -9.87849 -6.10085 7.56453 22
858 2 -1.24246 -11.1447 6.20193 20
859 2 15.5306 -4.75311 5.35066 15
860 2 7.2394 -15.5482 -6.42551 12
861 2 5.99606 -2.64983 17.1155 13
862 2 4.00689 10.7894 -8.85204 24
863 2 0.192943 -18.1633 4.11439 13
864 2 -7.97771 -14.2123 -5.58237 9
865 2 5.49014 2.57598 12.7356 20
866 2 -5.6672 9.67945 5.27602 19
867 2 -1.68134 4.21208 17.4936 12
868 2 -5.19168 7.88721 -2.75326 20
869 2 8.12592 -7.83232 10.3427 21
870 2 -1.16916 8.59683 7.997 19
871 2 0.74682 8.31974 -5.26289 18
872 2 12.2779 14.7212 11.1725 9
873 2 5.11038 -3.8003 -8.67164 21
874 2 12.9537 13.9881 2.10403 12
875 2 13.5961 -1.2854 -4.65685 21
876 2 0.295876 14.2741 12.4415 14
877 2 3.74652 8.03926 -15.0544 15