ITEM: TIMESTEP
19000
ITEM: NUMBER OF ATOMS
1000
ITEM: BOX BOUNDS pp pp pp
-30.0 30.0
-30.0 30.0
-30.0 30.0
ITEM: ATOMS id type x y z Coordination
1 1 -3.94175 -14.8174 -9.56596 12
2 1 1.73245 -15.1673 5.63344 21
3 1 -10.1273 0.770843 -0.355544 22
4 1 -11.6463 -2.2946 -4.89605 24
5 1 0.581904 -10.8861 15.3503 12
6 1 -12.6448 -8.3321 -10.5126 9
7 1 -3.24312 -3.25949 -4.7432 18
8 1 -5.37653 -17.0955 8.15867 15
9 1 9.24624 -13.0855 4.65288 11
10 1 -0.72797 -2.36917 11.97 17
11 1 3.12575 -7.31402 2.92072 21
12 1 -7.62529 6.50394 -8.18804 13
13 1 0.0201654 -6.96563 11.256 17
14 1 -10.021 -6.32993 -0.667589 24
15 1 -8.14616 -6.15295 -6.25704 20
16 1 -1.23733 -7.30601 8.23375 19
17 1 0.548026 -10.5714 -4.79175 22
18 1 -0.633222 -5.32799 13.8164 11
19 1 -2.04971 -16.9189 9.29526 17
20 1 -14.7589 -8.1604 4.09408 12
21 1 -14.9017 -4.91615 2.3332 13
22 1 -4.4096 6.35211 -0.52553 19
23 1 -1.21227 -0.547836 -7.83487 20
24 1 0.950123 -13.4561 -11.4784 10
25 1 -3.37444 -6.71706 14.4769 10
26 1 -12.5406 3.23769 -3.07545 13
27 1 -2.44921 7.02178 1.21725 10
28 1 -1.20406 -20.9953 -0.541978 15
29 1 0.280657 -11.8198 -7.82867 19
30 1 0.473113 -8.90156 7.34393 20
31 1 -11.3867 3.19397 -6.10426 17
32 1 1.8084 -0.447249 -5.53113 18
33 1 -0.928358 -1.99665 6.58592 20
34 1 1.35793 -2.10978 8.85903 18
35 1 -12.3027 -13.6167 2.38288 11
36 1 4.409 -10.4784 12.002 15
37 1 -16.9373 -6.31097 0.635305 9
38 1 8.39587 -4.95535 6.06455 13
39 1 5.97368 -12.7666 0.819409 16
40 1 -0.708066 -4.31732 9.61806 20
41 1 -9.18553 -9.66385 0.801798 20
42 1 -5.32684 -12.4113 -7.40075 17
43 1 -11.5388 5.89599 -1.01864 10
44 1 -7.4287 3.979 -10.2761 11
45 1 1.7984 -4.13292 -2.84792 16
46 1 4.93198 -10.3329 -1.76071 19
47 1 4.57151 -16.659 6.73184 15
48 1 4.31699 -16.6265 10.5164 13
49 1 -10.9919 0.605192 8.71395 14
50 1 -7.04474 -12.1878 11.2871 9
51 1 -14.3593 -2.53659 8.33947 10
52 1 3.11782 -18.7601 -3.70148 12
53 1 0.68398 -6.38159 -9.41009 17
54 1 3.96118 -9.76021 8.39372 15
55 1 -5.95182 5.89189 3.76348 11
56 1 -13.9434 -1.38972 -7.45485 14
57 1 -3.15011 0.732581 -0.778069 18
58 1 -8.6873 -5.75525 11.8325 10
59 1 -4.25765 -7.18171 -5.59101 16
60 1 3.46419 -16.2603 -6.66459 11
61 1 -7.50328 -7.43938 6.79789 20
62 1 -13.1103 -10.827 -2.38461 19
63 1 4.35797 -15.9994 3.316 16
64 1 -8.1791 -13.2882 -2.17979 20
65 1 7.44429 -15.232 -0.759765 12
66 1 -8.7393 3.1483 0.263646 19
67 1 -7.42447 0.775149 1.74201 23
68 1 -1.09455 1.53471 -5.87276 18
69 1 8.56882 -10.7153 -3.39819 19
70 1 -10.6446 -15.451 5.54791 16
71 1 4.0666 -1.47366 7.00819 13
72 1 2.61299 0.495484 -0.0256087 15
73 1 -10.1126 5.05158 -3.75641 18
74 1 -0.736364 -15.4474 -10.3168 12
75 1 -7.83918 7.01189 -5.04585 11
76 1 9.37742 -5.6201 -7.1225 7
77 1 5.66834 -5.00898 -7.46407 14
78 1 5.44688 -12.4897 7.24025 17
79 1 -8.84104 0.337017 -6.61966 17
80 1 1.03221 4.05729 0.345872 17
81 1 5.69308 3.00291 1.24435 11
82 1 -6.81576 4.47737 -2.41345 22
83 1 -3.5586 -9.86837 -12.3683 11
84 1 -15.77 -7.79875 -2.09623 14
85 1 -8.25555 2.79863 9.85239 13
86 1 -2.56158 6.14557 -3.28518 14
87 1 -1.033 -10.6073 9.28153 17
88 1 -13.6725 -9.54968 6.21261 15
89 1 -6.11783 -18.3867 4.82079 14
90 1 -3.70413 4.2028 2.66429 19
91 1 3.18893 -2.00159 -3.66587 18
92 1 -0.212747 -14.108 14.3883 12
93 1 -12.047 -3.97724 -2.69798 21
94 1 -1.9552 -1.45025 9.3741 21
95 1 -4.11978 -1.89637 -11.9175 9
96 1 -5.20414 -13.4473 7.37777 19
97 1 -9.69273 -18.4476 5.7539 9
98 1 -10.6263 -6.05713 -4.00781 17
99 1 4.57462 -16.3228 -3.61509 15
100 1 -7.44543 3.14209 3.80482 18
101 1 -10.389 -1.37518 7.1671 20
102 1 -14.4092 -4.21857 -6.15052 14
103 1 -3.99491 -16.0433 5.22419 15
104 1 5.44964 -1.41616 0.267821 18
105 1 -5.13236 -2.34527 5.93757 18
106 1 -6.37123 0.543845 -10.8246 16
107 1 -9.08115 -9.68156 -10.7574 18
108 1 -9.73342 2.31413 -3.71148 20
109 1 4.9255 -1.52492 10.4398 12
110 1 -10.8494 6.46639 -7.03718 11
111 1 1.48367 -1.91396 -9.96679 14
112 1 -10.7133 -2.66845 9.62295 17
113 1 -8.73614 -0.352476 10.59 18
114 1 -5.0387 -15.303 -3.96422 19
115 1 0.721726 -18.3531 -1.2737 18
116 1 6.26448 -2.42908 -5.31452 16
117 1 -4.45331 1.17701 2.15083 21
118 1 -14.213 -5.88006 5.61523 16
119 1 -1.05464 1.6224 12.993 8
120 1 8.20812 -6.37321 -1.934 14
121 1 0.495934 2.53034 10.2637 14
122 1 -9.72826 -1.49051 2.06915 20
123 1 -16.3701 -10.9284 -2.27915 10
124 1 3.60864 -7.37699 11.8985 16
125 1 -2.44602 -16.5431 -5.86134 19
126 1 -1.91191 -6.36873 -9.45457 18
127 1 6.42466 -8.46465 -4.01624 17
128 1 -13.0755 -5.24797 9.80207 11
129 1 -11.2396 -11.2196 -8.16176 16
130 1 -7.57374 -12.5141 0.708217 23
131 1 -7.12371 -15.1978 0.974307 20
132 1 -7.42073 -4.25761 -8.76504 22
133 1 -10.3651 -6.60121 -9.27783 21
134 1 2.46891 -5.35147 10.1197 18
135 1 1.92787 -11.9765 9.86121 15
136 1 0.2578 -14.5705 10.6452 19
137 1 4.19089 5.36677 5.55213 12
138 1 -8.34632 -13.1409 6.26051 20
139 1 -0.321004 5.07986 2.84102 19
140 1 -2.56411 -12.5961 -8.281 17
141 1 -8.54422 -11.9389 -8.35979 15
142 1 -10.9188 -15.4026 8.07717 10
143 1 5.11401 -4.6728 5.85766 16
144 1 -8.67261 -11.7713 -5.22708 18
145 1 -9.61377 -6.92301 9.27405 16
146 1 -1.30915 -17.5838 0.760162 19
147 1 -0.245532 -0.605105 -2.25142 18
148 1 -10.0109 -16.4867 2.85686 14
149 1 3.91149 -13.3871 -2.26777 15
150 1 -1.12004 -19.1365 -3.61486 13
151 1 -12.4829 1.18143 -9.06338 14
152 1 5.69346 -2.1272 4.40181 16
153 1 -9.9666 -6.77295 -12.2397 10
154 1 -4.02724 -0.646676 -9.22138 20
155 1 -4.71077 -15.1392 10.3851 16
156 1 -1.20744 3.8124 8.40975 12
157 1 8.72832 -8.14601 5.76262 14
158 1 -10.3836 -10.2793 6.8793 19
159 1 -1.82083 -9.32637 12.6077 17
160 1 -11.8138 4.7568 2.6491 13
161 1 -2.14882 -9.66074 -9.39231 20
162 1 -3.86786 -16.3572 1.96029 16
163 1 2.98517 -11.6547 -9.4493 12
164 1 -7.63596 -14.6734 3.81467 18
165 1 -3.1507 -10.306 7.60885 22
166 1 -11.3932 -8.77977 4.35984 21
167 1 5.83043 -18.6885 -1.23085 12
168 1 -7.55424 0.933744 -1.3305 19
169 1 -11.4693 -4.0147 1.14294 22
170 1 2.168 -18.7398 4.9769 18
171 1 -5.45537 1.13255 4.74583 21
172 1 -12.7326 -7.86318 -7.43459 16
173 1 -10.061 5.25507 5.35926 11
174 1 -5.76858 -4.38036 -5.90154 15
175 1 -12.4464 -5.89283 3.29136 22
176 1 -7.07315 -8.91115 -5.42115 17
177 1 -7.94246 1.48127 7.22835 22
178 1 7.58439 -8.76323 8.56959 14
179 1 6.20303 -14.6242 9.63985 12
180 1 -0.219895 -11.5104 12.6438 15
181 1 -3.65645 -20.191 1.16842 16
182 1 -6.3994 -10.7164 -10.38 15
183 1 -16.2248 -4.85022 -3.13552 10
184 1 -3.52148 -20.3079 3.89797 16
185 1 7.2127 -5.15654 -4.32916 14
186 1 -10.1259 -3.69212 -10.9905 14
187 1 -14.8572 -0.012481 5.89738 10
188 1 -8.61351 5.5052 2.10003 16
189 1 -7.48616 -1.53202 7.58664 18
190 1 8.2147 -12.355 -5.87199 13
191 1 9.64312 -8.10916 -4.90927 14
192 1 -3.95933 0.0299056 7.22337 20
193 1 -8.62165 -0.911241 -3.18465 21
194 1 -3.61314 -14.0928 -6.07261 18
195 1 -2.91947 1.38633 10.1657 19
196 1 1.86432 -2.55291 0.227206 20
197 1 -11.8653 0.598337 -5.78688 19
198 1 4.35681 -19.2133 2.22373 11
199 1 6.19986 -3.3297 8.37079 13
200 1 -15.4671 -9.98773 -5.3341 13
201 1 -10.2039 -15.1208 -0.213726 15
202 1 -6.03293 7.50885 -2.5253 10
203 1 -12.1779 -0.143982 -2.85248 16
204 1 -10.1326 -15.7159 -3.872 15
205 1 0.122353 -19.0901 7.566 13
206 1 -5.77444 -18.8861 -4.28936 17
207 1 -9.23359 -0.873023 -9.08394 21
208 1 -2.99768 -18.5737 6.46811 16
209 1 -10.2771 -6.53181 5.80898 25
210 1 -8.47028 -4.23531 7.16424 22
211 1 -0.432524 -14.0131 -5.36052 19
212 1 -1.2706 -15.2356 4.9174 18
213 1 -11.8333 -0.0658287 4.85881 18
214 1 0.216818 -14.9495 7.62621 17
215 1 -9.76181 -9.85471 10.3657 10
216 1 0.418056 -13.5761 -2.51118 21
217 1 1.16833 -16.7636 2.56649 17
218 1 -0.935043 5.55864 -1.35523 16
219 1 -9.73797 -12.4373 9.23188 15
220 1 8.42418 -12.3369 7.8212 11
221 1 3.03966 -5.24038 0.0931122 18
222 1 -7.83533 -5.41604 4.39362 22
223 1 -1.36465 -5.45314 -4.92609 18
224 1 2.25647 -13.5316 3.29084 17
225 1 -3.96567 -3.51516 10.6796 21
226 1 -2.26986 6.22544 4.7526 12
227 1 6.95469 -11.5694 10.4819 13
228 1 -3.37942 -20.769 -2.5427 11
229 1 1.84503 0.291546 10.9691 13
230 1 -6.0891 -4.71742 13.1374 16
231 1 -10.7914 -14.3799 -6.57598 13
232 1 -13.0013 -12.5296 -5.39832 11
233 1 -10.2455 3.77906 7.79829 11
234 1 -7.77647 -14.4506 -5.3999 19
235 1 -9.8636 -6.59859 2.5385 22
236 1 1.95711 -9.08933 9.87088 17
237 1 5.22774 -4.17899 -1.91157 18
238 1 -0.461331 -1.99024 -4.84092 21
239 1 -6.21128 1.68662 -7.99903 22
240 1 -5.58222 -0.603525 9.54493 22
241 1 -17.9152 -7.69905 -4.60523 7
242 1 2.14208 5.66019 -6.35423 10
243 1 -9.26251 -8.82976 -7.40216 20
244 1 3.07301 -10.0544 -7.06126 17
245 1 4.09664 3.52647 -1.23965 15
246 1 -1.32847 2.05901 2.90915 22
247 1 2.85205 -3.78107 -7.00858 18
248 1 -0.852125 -12.1847 3.57078 16
249 1 -7.57662 -5.42486 -11.395 17
250 1 7.10086 2.8412 -2.24247 8
251 1 2.11523 -15.5802 -1.04201 16
252 1 -4.83429 -7.67547 -10.6235 19
253 1 -1.13111 -18.0646 4.15807 21
254 1 0.788007 -17.5567 10.7367 13
255 1 -11.103 -2.88247 -8.06844 19
256 1 -2.69108 -6.64031 -12.1861 14
257 1 -13.2059 -10.592 2.56501 15
258 1 11.0976 -11.4168 -5.33269 10
259 1 -4.09268 -0.463085 -6.59849 20
260 1 -7.40926 4.18339 -5.34944 18
261 1 0.220022 -17.0161 -7.47955 13
262 1 -0.501289 1.36677 -10.6468 8
263 1 5.51067 -13.8322 -5.42604 12
264 1 -0.0689899 -14.5582 1.24656 19
265 1 -7.88957 -8.83079 4.3021 20
266 1 -5.79666 3.7361 0.182055 21
267 1 -5.23195 4.61056 -8.08194 15
268 1 7.67205 -2.91332 -2.14751 14
269 1 -1.26967 -15.7805 -2.09453 19
270 1 -1.07662 -8.28365 -6.75234 21
271 1 0.0764307 0.908331 -0.253683 18
272 1 9.02757 -11.3571 1.54462 14
273 1 7.01585 -14.8915 5.3892 16
274 1 1.59645 -9.90014 -1.89068 19
275 1 -11.4154 -4.57579 7.54638 21
276 1 -14.11 -10.8048 -7.8 11
277 1 -3.72954 -12.2354 10.544 16
278 1 -0.223225 3.76903 -8.12142 10
279 1 -12.3152 3.22105 0.334057 14
280 1 -8.32233 6.42854 -1.07178 16
281 1 -4.57551 -7.96303 7.17266 23
282 1 1.13993 -22.7562 1.86722 8
283 1 3.21794 -8.19542 -4.38677 17
284 1 -15.1411 -9.46761 -0.213885 15
285 1 -13.471 -5.65073 -0.119375 19
286 1 -12.7344 -10.263 8.69735 12
287 1 3.33001 5.04831 2.87239 13
288 1 -2.47669 -18.1455 -8.68326 11
289 1 2.99223 -12.5173 14.3439 13
290 1 4.27226 -7.43548 -1.55858 19
291 1 -13.69 1.53996 2.86256 14
292 1 8.84471 -14.2269 -3.87591 9
293 1 -3.56223 -0.446129 12.6256 17
294 1 -4.71738 -4.23439 -10.5889 20
295 1 2.25421 0.518408 -8.72065 13
296 1 -0.631882 -8.63049 -11.8564 14
297 1 -7.2876 -16.3177 -2.12001 19
298 1 10.4377 -5.92399 3.93997 8
299 1 2.25949 -12.8643 -5.08502 16
300 1 2.85079 -20.4622 -0.463382 12
301 1 1.46386 5.09999 -3.11775 17
302 1 -11.0321 -3.37911 4.11643 23
303 1 8.3175 -0.0447952 -2.92089 9
304 1 2.22804 -15.5229 12.7414 13
305 1 6.05038 -7.54882 4.10745 22
306 1 5.74825 -5.0709 11.0405 12
307 1 -8.42105 -2.65598 -5.64423 18
308 1 9.07538 -0.916586 0.237744 11
309 1 4.03479 -10.3294 3.44358 20
310 1 -2.55408 -14.2965 -0.200214 17
311 1 -5.4641 2.52973 8.33269 17
312 1 2.06986 -5.9463 6.30378 17
313 1 -13.6311 -0.198681 -0.343996 16
314 1 -5.06285 -16.9153 -7.48223 14
315 1 -7.1759 -2.12702 -11.2444 15
316 1 -7.05692 -7.42939 -8.59828 20
317 1 -14.2108 -2.46402 -3.4486 15
318 1 7.4726 -17.1509 1.267 12
319 1 2.69895 -17.5898 7.91247 15
320 1 -0.916395 -12.2638 6.31238 20
321 1 4.76246 -2.12686 -8.59773 11
322 1 6.28642 -10.1523 6.27916 17
323 1 0.992134 0.415553 4.97712 21
324 1 9.13418 -14.0382 2.05837 13
325 1 -5.99678 -1.57782 12.6682 16
326 1 -14.1049 -12.8418 -0.684022 12
327 1 -15.5964 -7.48636 -7.28234 10
328 1 4.10823 -6.97309 8.44161 17
329 1 -6.44452 7.99268 1.25775 9
330 1 4.57996 -4.64006 2.12763 19
331 1 2.64234 -11.9207 -0.251406 16
332 1 2.96034 -1.91082 2.75756 17
333 1 -12.3561 -7.7554 8.15325 19
334 1 6.19211 -11.176 -8.09458 11
335 1 -5.77795 -11.7871 -4.35029 22
336 1 3.94337 1.87418 10.3067 12
337 1 3.84879 0.691748 4.78957 16
338 1 0.850472 -8.38722 13.9157 13
339 1 -3.1523 -3.41996 13.8144 14
340 1 -6.99336 -3.3745 10.0747 23
341 1 -6.32025 1.66017 -4.81882 22
342 1 -9.28185 1.33486 -10.4854 13
343 1 4.38396 4.18277 -4.35077 12
344 1 -4.82936 -9.64317 10.3079 15
345 1 -0.521867 7.69133 -4.75633 8
346 1 -8.91736 -18.6977 -2.51016 12
347 1 2.19472 2.45571 2.79078 18
348 1 -7.73408 -2.44522 3.98731 19
349 1 -15.4288 -3.05613 -0.331449 12
350 1 -3.88684 3.54839 -6.16401 18
351 1 -2.64443 -4.86717 7.18736 18
352 1 -0.510466 0.797397 7.76649 19
353 1 -8.91676 -3.8598 -3.28437 22
354 1 -0.772493 -7.94122 -3.79971 21
355 1 -5.7297 -5.16283 7.749 18
356 1 0.892742 -16.319 -4.2461 21
357 1 -0.0140314 3.29322 5.50297 19
358 1 -15.2474 -7.69587 8.08475 9
359 1 -1.43001 -22.6699 2.37809 11
360 1 1.96238 1.97086 -3.05227 18
361 1 2.72279 -14.7875 8.31394 18
362 1 -2.50124 -0.119185 4.71975 22
363 1 1.74253 -10.6217 -12.2386 9
364 1 0.852289 -8.95417 -9.04716 20
365 1 -6.92021 4.76007 7.02881 13
366 1 2.0996 -11.8863 6.10179 20
367 1 -3.01182 -3.65761 -7.81261 19
368 1 -8.19635 -17.0257 -5.65855 13
369 1 -5.10354 -9.43363 4.34963 21
370 1 9.14934 -7.73976 1.60319 15
371 1 -0.817762 4.37263 -5.09029 21
372 1 1.66703 -6.68849 -6.22111 19
373 1 5.01114 0.548024 -2.7665 16
374 1 4.35926 0.217853 -5.92851 13
375 1 -5.14888 -7.78837 12.8672 12
376 1 -3.10077 -13.2579 13.1176 10
377 1 -2.50324 -11.2894 -5.63118 22
378 1 -11.4088 -2.18115 -1.0563 18
379 1 5.25344 3.19043 7.32899 13
380 1 -10.2413 -11.6001 3.45799 19
381 1 3.55042 -6.36242 -9.3039 12
382 1 -3.61284 -6.38165 10.1532 18
383 1 -12.6959 -7.5477 -2.43304 17
384 1 5.83964 -9.16642 1.58004 21
385 1 -11.7888 -13.6028 -3.10564 14
386 1 9.62184 -13.0389 -1.25306 14
387 1 6.59582 -18.0303 4.12254 11
388 1 -3.30574 3.13297 5.66056 16
389 1 -9.01524 -2.79121 12.3592 11
390 1 7.23235 -2.84793 1.76244 17
391 1 -3.74343 -19.3915 -5.76772 11
392 1 -0.40097 -1.60812 3.34099 22
393 1 1.09775 6.75128 5.11375 11
394 1 -6.52729 -20.4461 2.46694 10
395 1 -9.77996 -9.02622 -2.11816 18
396 1 1.74086 -3.24904 11.7814 12
397 1 -2.13135 3.39009 0.320255 22
398 1 7.75778 -10.4615 3.42086 19
399 1 10.0679 -16.5421 3.43335 8
400 1 2.31888 2.48571 7.39557 19
401 1 -3.88603 3.46729 -2.89193 19
402 1 -1.59115 -12.0982 -11.1285 14
403 1 -7.15742 -8.7364 -12.7207 11
404 1 -6.41951 -7.21989 9.87413 15
405 1 9.32469 -2.33604 3.61418 11
406 1 -3.05233 7.06838 -6.65489 7
407 1 2.847 -15.9015 -9.6962 7
408 1 -9.4406 -19.9465 0.804818 7
409 1 -10.6542 -4.67293 -6.25389 19
410 1 0.0268269 -3.73356 -7.80038 18
411 1 -5.27674 -13.509 -1.55047 21
412 1 3.54894 -9.40839 14.9749 9
413 1 -2.24195 -13.6844 8.36686 22
414 1 4.08883 -4.85339 -4.50814 16
415 1 -12.3964 2.96443 5.26622 14
416 1 5.89926 -13.0329 3.80433 17
417 1 -11.8672 -8.60412 0.866872 21
418 1 7.32161 0.0450065 2.75682 11
419 1 1.94256 -2.98116 5.30242 19
420 1 -13.3695 -4.93798 -8.39632 12
421 1 -5.68478 -2.22088 -8.05445 20
422 1 11.0974 -10.2897 -2.28656 9
423 1 -10.6138 -9.20336 -4.77341 15
424 1 -7.40863 -14.5858 9.34798 15
425 1 3.64413 -8.69956 5.92504 19
426 1 -13.5359 -1.8236 2.60437 18
427 1 -2.58038 2.18262 -8.61508 16
428 1 5.10459 -13.8001 12.3216 11
429 1 -6.44591 -10.577 7.1931 18
430 1 -4.31349 -9.18698 -7.72463 19
431 1 -7.68025 -16.2228 6.80253 17
432 1 7.09507 -8.13915 11.6907 10
433 1 -5.97102 -19.9754 -1.14638 14
434 1 8.97001 -9.14149 -7.45662 10
435 1 -10.5076 1.85101 2.61672 19
436 1 -13.1541 -2.77289 5.23206 18
437 1 -4.36045 -16.8339 -0.694075 18
438 1 5.69358 3.21572 3.63031 11
439 1 8.36181 -9.50501 -0.305941 18
440 1 -2.128 -16.0632 12.3511 12
441 1 2.46403 2.88904 -6.35505 16
442 1 5.22256 -8.48036 -7.17245 16
443 1 -11.7518 -1.33152 -10.5305 12
444 1 -2.95695 0.566142 -3.85982 21
445 1 2.12955 5.54676 8.03747 10
446 1 -0.992252 2.36022 -2.39416 20
447 1 -6.21432 1.51564 12.0058 13
448 1 6.73595 -6.44527 0.443087 18
449 1 0.545296 -19.9213 1.71386 18
450 1 -8.72867 -4.03721 1.77599 21
451 1 5.98806 0.23951 7.68548 11
452 1 5.50113 -11.1744 -4.50707 19
453 1 -2.58014 -12.5975 -3.01426 20
454 1 -10.4302 5.12505 -9.44909 8
455 1 -8.74938 0.140874 4.74341 19
456 1 -8.17833 -1.98967 -0.56392 19
457 1 -7.2028 -17.7188 2.61895 15
458 1 -0.0573692 -20.7177 5.06623 15
459 1 1.39261 -4.71568 -11.905 7
460 1 -11.0112 -12.0131 -0.020124 21
461 1 -9.39265 2.99447 -7.81127 21
462 1 7.69021 -6.16231 8.69015 15
463 1 -12.0817 -12.6784 6.13425 18
464 1 7.66431 -5.50296 3.22621 18
465 1 -1.46344 -3.85835 -10.8132 16
466 2 -13.7665 -3.23279 -7.79089 14
467 2 -11.5849 4.14943 -4.50609 15
468 2 -1.5509 -4.41994 -8.9127 16
469 2 -5.21274 0.125604 12.4688 13
470 2 -9.40579 -10.3797 -8.85336 17
471 2 -1.81515 -2.96438 10.4924 19
472 2 -12.8185 -10.9593 6.87857 16
473 2 6.60422 1.7551 2.43992 10
474 2 -5.44707 -1.12938 7.51734 18
475 2 -5.96919 -7.85943 -6.98831 18
476 2 -12.6119 -11.5744 -6.77221 13
477 2 -10.2956 -2.51923 -6.3959 19
478 2 -3.82694 -16.7396 9.22976 14
479 2 -1.59106 -6.11634 10.7276 20
480 2 4.60328 -10.7185 -8.35457 11
481 2 3.91021 -9.00551 1.82627 19
482 2 -13.5288 1.60544 0.765558 12
483 2 7.47679 -1.84156 3.49438 14
484 2 -9.22759 -11.739 6.93589 19
485 2 -4.60738 -17.4397 6.37358 16
486 2 7.30211 -13.0541 9.10591 12
487 2 -12.1517 4.41016 -1.72658 11
488 2 -3.85641 2.5853 0.676837 20
489 2 -7.49873 1.91614 5.39292 18
490 2 -9.21337 -3.53703 3.67328 24
491 2 1.30798 -14.4189 -4.16438 20
492 2 -4.91806 -5.65029 -4.71376 17
493 2 -1.04865 -10.1857 -5.88 22
494 2 9.36211 -7.35635 -6.92792 8
495 2 -6.04659 -13.0526 0.151099 20
496 2 4.23216 2.35272 -5.37669 12
497 2 -12.4014 3.08864 3.23608 16
498 2 -4.36935 -13.9892 -7.98444 14
499 2 2.54848 -16.7859 11.3326 13
500 2 5.18291 -8.53447 7.33856 20
501 2 -12.2355 -7.17529 -0.482395 21
502 2 5.42707 3.89195 5.56732 13
503 2 2.44818 -18.8131 3.12796 18
504 2 -6.33517 1.47704 3.0363 18
505 2 0.521161 2.34711 3.91204 20
506 2 -4.66731 2.82322 -4.55773 19
507 2 -4.95198 -3.30732 13.3896 15
508 2 0.0575597 -7.40744 -5.32347 16
509 2 -10.226 -8.17168 -10.7789 15
510 2 -11.4856 -6.2153 9.43639 16
511 2 -10.8579 -14.9786 -2.19143 12
512 2 -1.90006 -14.7494 13.6859 10
513 2 -0.413979 -9.96282 14.0402 11
514 2 -4.34967 1.92797 6.76396 19
515 2 -7.75329 -3.82091 0.215542 19
516 2 0.943277 -12.1532 -6.04647 17
517 2 7.91473 -6.96437 -3.72064 13
518 2 -8.08243 -15.9973 2.56133 17
519 2 0.416074 -11.4726 -2.75138 22
520 2 -0.155617 -0.944172 8.60779 20
521 2 -0.467867 -17.4613 -2.80482 18
522 2 5.58944 -12.0589 11.6713 12
523 2 -11.0736 -10.9726 9.34624 12
524 2 7.42074 -9.26182 4.92089 19
525 2 -2.38058 -16.8316 4.89541 16
526 2 9.47496 -11.0787 -1.46626 14
527 2 -8.80443 -6.9902 -7.85683 21
528 2 -9.99621 -9.93343 4.59461 23
529 2 -8.18396 -12.9987 2.97908 20
530 2 -9.33018 -13.0331 -0.529603 18
531 2 -9.3209 1.25843 -2.15064 18
532 2 0.163345 -5.34985 -2.96393 19
533 2 4.91444 -5.70784 -0.880614 16
534 2 -0.21911 -0.177134 -5.85898 19
535 2 -9.43521 -3.97957 10.6126 18
536 2 -12.477 -2.04127 -2.94366 16
537 2 -5.30114 -6.27705 14.0147 10
538 2 -14.164 -1.70408 6.84654 11
539 2 -8.84128 -0.955355 -5.42825 22
540 2 8.12387 -5.07696 -6.00483 10
541 2 6.10517 -12.0723 5.43019 19
542 2 6.4414 -5.83132 4.71928 19
543 2 -0.407694 5.4435 4.76711 14
544 2 -7.94617 -0.773773 2.96423 20
545 2 6.77558 0.940668 -2.47002 14
546 2 -0.630405 0.184354 3.57816 19
547 2 -0.381575 3.13685 -0.376316 21
548 2 -5.59058 -3.02737 3.75551 19
549 2 -1.77861 -11.9362 7.94284 20
550 2 -1.26541 -11.6167 -9.17876 17
551 2 -5.19545 -5.19719 10.2953 18
552 2 0.932113 0.217345 -10.0948 10
553 2 -5.96327 -7.01448 8.15558 21
554 2 -0.518 -15.825 -6.10239 16
555 2 -2.01238 -13.2181 -6.32619 20
556 2 0.140472 -21.3557 3.25808 14
557 2 0.554921 0.884115 -2.28449 19
558 2 -9.50686 -5.56972 -10.8565 14
559 2 -6.86155 5.01973 5.20975 13
560 2 -13.8471 -9.10493 -1.95391 19
561 2 1.26686 4.21018 -6.93486 13
562 2 -1.91557 3.99286 2.25892 20
563 2 -2.50057 -5.03856 14.2358 12
564 2 1.78488 -21.3285 0.802133 13
565 2 -2.35339 1.14312 12.0009 13
566 2 9.94622 -9.21116 -3.4784 15
567 2 1.12423 -2.61974 2.4324 21
568 2 -5.6245 -3.10442 -11.8959 15
569 2 3.46601 -14.2075 13.3575 11
570 2 -1.07785 -16.6522 11.1447 13
571 2 8.36446 -13.7086 6.23273 12
572 2 -9.68983 6.64634 -5.33607 13
573 2 -6.84597 -18.8855 -2.62114 15
574 2 -4.71138 -3.97224 -7.31976 18
575 2 -2.33667 -10.3731 -11.1855 15
576 2 2.10938 1.83036 9.38171 17
577 2 -16.2251 -9.3771 -3.4552 13
578 2 -15.9727 -4.65187 0.784296 12
579 2 8.41052 -12.1778 3.14189 16
580 2 -8.21564 -19.3316 2.42001 13
581 2 1.77058 -10.3195 -0.0519829 18
582 2 -8.75679 -9.91687 -5.67395 20
583 2 -7.61201 -10.6064 -11.9499 10
584 2 -5.07672 -7.82553 11.0045 17
585 2 -8.59554 -13.3554 -3.99117 17
586 2 1.2523 -4.97075 -7.18116 17
587 2 6.63268 -10.2571 -3.21372 17
588 2 -13.3428 -9.58154 4.22327 17
589 2 -0.820448 -7.78425 -8.90155 23
590 2 -1.77409 -1.39982 -3.17545 19
591 2 -4.399 -13.3036 -4.27084 20
592 2 -0.0126601 -1.83284 -8.13268 20
593 2 0.438144 1.63103 11.8599 10
594 2 9.25502 -6.52221 5.33399 13
595 2 -14.3965 -6.28578 8.90553 12
596 2 -2.11483 -19.7367 4.89494 15
597 2 2.02363 -5.71029 -10.4481 14
598 2 -4.45366 -0.658485 4.90437 18
599 2 -6.51579 -12.0455 -2.23123 20
600 2 -10.1422 0.444632 6.81671 18
601 2 -14.5476 -1.6607 0.569469 15
602 2 -10.7143 -8.93346 8.47507 18
603 2 1.20689 -18.3853 8.96749 15
604 2 -14.7727 -7.78918 6.10746 13
605 2 -7.85671 -17.9338 5.53819 17
606 2 -8.7803 -11.4243 10.5911 10
607 2 4.15284 -16.4934 8.68693 13
608 2 0.542102 5.99796 -5.09432 13
609 2 5.49238 3.85114 -2.98567 10
610 2 7.24562 -1.86455 -3.8211 14
611 2 -4.44538 7.51263 1.19791 11
612 2 -14.3676 -6.03194 -7.05672 11
613 2 -16.8544 -8.22801 -6.18167 7
614 2 -2.00641 -18.3516 -5.41233 16
615 2 1.20968 -16.1232 0.581539 17
616 2 4.32766 -14.0026 7.93824 18
617 2 -12.1655 1.34821 -3.83818 14
618 2 4.5886 -2.99679 3.10018 18
619 2 4.05849 -10.9693 14.0516 12
620 2 -2.82528 -8.11925 -6.41251 19
621 2 -0.0396742 -2.38328 4.96014 19
622 2 0.69916 4.38057 8.66753 12
623 2 -3.1455 -10.3718 9.71593 18
624 2 -11.9311 -7.53535 6.18287 26
625 2 -5.74702 -0.176915 -7.78197 20
626 2 -9.93548 -12.7219 -7.527 15
627 2 -11.2686 -4.90429 -8.2193 18
628 2 -6.62597 -14.0463 10.9114 12
629 2 1.5827 4.97127 1.78955 15
630 2 6.38533 -4.79727 1.626 20
631 2 7.93369 -15.1886 1.00071 13
632 2 -14.4585 -6.29054 3.62083 15
633 2 -10.3905 5.57752 3.44152 13
634 2 -9.38109 3.46061 -10.1493 11
635 2 3.20136 -6.4646 -4.8307 18
636 2 -9.9107 -2.19868 -2.79818 19
637 2 0.365766 -10.6065 6.15465 19
638 2 1.09167 -1.01181 -0.242133 17
639 2 -12.4118 -12.5083 -1.68202 14
640 2 5.43464 -17.561 2.42486 13
641 2 -3.9118 -20.6749 -0.777511 12
642 2 -11.9398 5.36081 0.875738 11
643 2 -3.31503 -14.5336 1.37049 18
644 2 -12.6911 -0.913246 -6.06648 16
645 2 0.590351 -19.1142 5.6852 17
646 2 1.04932 -4.08144 10.2784 16
647 2 -0.949935 -6.87181 -11.2122 17
648 2 -4.46073 2.66918 -8.06063 18
649 2 5.54168 -1.64522 -6.8157 13
650 2 -7.15376 2.61955 -0.593541 17
651 2 -3.1033 -6.38515 8.11354 24
652 2 -3.49062 -14.1646 11.4906 15
653 2 -3.21975 -18.07 1.66918 18
654 2 -16.252 -7.75956 -0.259518 11
655 2 -5.0621 -13.0294 3.67255 21
656 2 -8.11123 -0.338228 -10.7092 16
657 2 3.44987 -9.35221 -2.71052 21
658 2 4.16719 -6.06787 10.1126 16
659 2 -9.35132 -5.65387 -2.17398 20
660 2 1.73902 -10.7033 -8.56014 15
661 2 2.09364 4.31672 -1.42194 15
662 2 3.54282 4.04917 7.37341 13
663 2 4.71393 -12.4727 -0.723124 14
664 2 -6.49674 -12.3733 6.4361 18
665 2 -9.79124 6.82376 -8.59371 9
666 2 -1.61661 -3.50849 7.99915 18
667 2 -0.588295 -22.444 0.729366 10
668 2 -6.39884 -15.2961 8.01512 16
669 2 4.94252 -8.9947 4.35043 17
670 2 4.20088 -4.0133 -8.49751 12
671 2 -1.75598 6.50082 2.85898 11
672 2 6.29963 -16.6558 5.43828 11
673 2 2.16701 -19.6255 -2.03077 13
674 2 -2.97179 -3.01642 -11.0262 14
675 2 2.835 -11.6113 4.27179 19
676 2 0.221822 -3.70024 12.8122 14
677 2 -4.71332 -4.10012 6.47665 18
678 2 -1.79911 -13.3398 4.80615 18
679 2 -5.3082 -9.28132 -11.9385 13
680 2 7.11553 -9.39806 -7.64633 13
681 2 -6.91906 6.13374 -3.61939 14
682 2 -3.80395 -18.5396 -7.31931 11
683 2 0.0218562 -8.40126 9.45064 17
684 2 -13.0047 -0.810181 -9.13509 11
685 2 7.07446 -10.6902 0.629274 19
686 2 2.35828 6.43671 6.44194 8
687 2 9.32157 -2.15849 1.70834 9
688 2 9.19855 -4.20223 4.3872 12
689 2 -12.4519 -5.76778 -3.19618 19
690 2 -8.35154 3.67836 -3.8038 20
691 2 -9.38831 1.04574 -8.38349 21
692 2 6.21325 3.24609 -0.546641 9
693 2 -11.7184 -0.114802 -0.915773 17
694 2 -4.10051 -13.6786 8.98971 18
695 2 1.77698 -7.17538 10.9076 15
696 2 -4.28088 -15.8444 -5.89188 20
697 2 5.22941 -6.74277 -7.87391 12
698 2 -2.37323 5.6559 -0.352305 19
699 2 2.60262 5.64882 4.56016 15
700 2 -11.237 -8.77172 -6.35617 15
701 2 -9.19748 -17.3374 -4.01005 13
702 2 9.73697 -6.15054 2.30708 10
703 2 -12.396 -4.02798 -0.730337 21
704 2 -1.80618 -18.5711 7.83984 14
705 2 7.5668 -10.4546 7.64987 15
706 2 -8.75546 -14.8315 5.73346 21
707 2 -10.9629 -8.35528 -3.28424 16
708 2 -2.25299 -1.56964 12.9949 15
709 2 -9.95004 6.06974 -1.95506 15
710 2 -13.5242 -0.212895 3.44377 17
711 2 5.67053 -2.34234 -1.23958 18
712 2 -8.33745 -7.02891 10.6599 15
713 2 -3.80752 4.89822 4.64317 14
714 2 -1.51615 -20.5647 -2.37517 11
715 2 -1.95129 -8.75632 7.22296 20
716 2 5.07639 -8.52552 12.2258 15
717 2 -13.0558 -5.00685 1.73614 19
718 2 -9.84661 -2.09854 0.309348 18
719 2 -5.36099 -2.34358 10.9663 20
720 2 -6.72475 -11.8354 -8.86305 12
721 2 9.04248 -9.62282 1.57562 13
722 2 4.24884 -12.6109 -4.18379 17
723 2 -5.04527 4.45812 -1.53874 18
724 2 -7.85586 -4.33056 12.715 12
725 2 -12.3816 -4.08748 -5.381 18
726 2 9.76363 -10.0745 -6.17029 11
727 2 1.50581 1.53642 1.18251 17
728 2 -10.6743 -0.787929 9.93067 13
729 2 0.155866 -6.33688 7.12484 19
730 2 -6.4089 2.31954 -10.1474 15
731 2 -15.3152 -3.71575 -4.56154 13
732 2 -3.74669 -8.41521 -9.35125 21
733 2 -2.8624 0.819788 -5.79609 18
734 2 -7.89569 -7.05985 -12.7642 11
735 2 2.02473 -16.627 -7.94114 10
736 2 -2.44731 -16.5295 -0.635283 17
737 2 0.430535 -14.8617 12.6602 15
738 2 -3.20724 -1.65587 -7.71536 20
739 2 2.25046 -7.84324 5.17316 22
740 2 -3.64152 -0.240664 9.12542 19
741 2 6.3736 -11.9392 -6.35804 16
742 2 -5.63623 -19.7662 0.74156 14
743 2 5.22707 2.32751 8.95263 10
744 2 -8.95443 4.99176 7.34959 10
745 2 -14.7634 -11.2585 -1.11029 13
746 2 3.34274 1.4936 -1.96339 18
747 2 -1.28439 -15.3381 8.83909 20
748 2 -13.3424 1.01173 5.62627 13
749 2 1.08303 -2.22516 -3.34788 16
750 2 1.08034 -4.83149 4.9717 19
751 2 -11.6598 -2.32159 2.40189 22
752 2 -0.327762 2.16369 -8.80536 13
753 2 -9.22507 -4.68075 -4.97359 20
754 2 1.11189 -9.35909 -10.9514 16
755 2 -7.21848 -3.54198 8.31587 18
756 2 -7.50882 0.184638 8.68096 23
757 2 5.53581 -1.26699 8.7046 12
758 2 2.12071 -7.60069 -8.51612 16
759 2 -14.5369 -9.17191 -6.94973 12
760 2 -5.74491 -16.5327 0.811691 17
761 2 9.59753 -12.5247 -4.48706 14
762 2 -4.32389 -0.608087 -1.5354 18
763 2 -2.062 -14.1134 -9.76768 13
764 2 -12.888 -4.49078 6.18101 20
765 2 -13.2845 -12.5741 1.14974 13
766 2 4.64201 -19.9339 0.0769534 9
767 2 -6.65123 -18.2274 -5.68181 14
768 2 -5.1012 -16.2098 -2.10162 18
769 2 11.8468 -11.2983 -3.64395 8
770 2 -6.4084 5.34735 -9.36173 11
771 2 0.973903 1.41073 6.50374 18
772 2 -4.08769 -20.0986 -4.06631 11
773 2 2.40157 -8.70278 7.87448 20
774 2 -7.91816 1.34274 10.9381 15
775 2 -7.02675 0.614878 -3.38703 18
776 2 0.427063 -3.38887 -11.0265 11
777 2 -3.94359 -16.7787 -9.11356 10
778 2 -11.2592 -15.2733 2.79272 12
779 2 -9.75865 2.17584 -5.65919 19
780 2 -2.28317 0.292864 -9.7509 13
781 2 -6.83083 2.55538 -6.55511 17
782 2 -1.87599 3.09212 -6.91352 16
783 2 -3.79307 -11.0567 -7.40644 20
784 2 2.40927 -17.279 -4.52896 15
785 2 -15.5146 -2.91827 -2.22864 10
786 2 2.53898 -0.891483 4.34459 19
787 2 -6.45036 -5.58734 -9.70777 20
788 2 -10.4479 -17.414 4.43233 13
789 2 3.86297 -5.7486 6.8744 18
790 2 2.2572 -2.61011 7.23383 17
791 2 4.53678 -0.612604 -4.28083 17
792 2 -3.98788 5.46963 -6.9674 13
793 2 -2.12815 4.10401 -3.61377 21
794 2 9.81961 -13.1928 0.538931 12
795 2 -7.58499 -4.1365 -6.81211 18
796 2 2.90165 4.99113 -4.75257 13
797 2 0.0656214 -6.95093 13.2963 13
798 2 -6.78573 -12.8842 -5.95929 19
799 2 -7.63955 -7.08265 -4.67181 22
800 2 5.55484 -3.40535 10.4068 10
801 2 -5.74997 4.17529 2.51634 21
802 2 8.30144 -14.4606 -2.23649 10
803 2 7.41324 -14.1041 -5.11546 11
804 2 -7.16166 2.94418 7.99696 13
805 2 1.54833 -16.0741 7.39011 19
806 2 -7.45596 5.63832 -6.45405 15
807 2 -1.31249 2.1494 9.45302 17
808 2 -10.8749 4.38941 -7.61295 15
809 2 -2.28286 6.88485 -5.01854 10
810 2 -14.3559 -11.3765 -4.28627 14
811 2 2.41925 -12.2768 -11.1438 10
812 2 -10.059 -3.13365 7.72485 20
813 2 5.39598 -14.7468 4.14817 16
814 2 -4.26522 6.83311 -2.4994 14
815 2 -6.63216 -5.43945 5.7578 21
816 2 -9.48608 -15.5138 -5.92178 12
817 2 1.11613 -1.35615 11.2665 15
818 2 -2.53309 -8.4201 -12.9567 10
819 2 -10.9821 0.459934 -10.3205 11
820 2 0.6504 3.43583 -3.83877 19
821 2 -3.72367 -5.93727 -10.8781 16
822 2 -11.271 4.08278 6.13104 10
823 2 -10.0454 2.29245 8.92214 12
824 2 -0.677701 6.83734 -2.94803 11
825 2 -9.63172 -19.4608 -0.905418 6
826 2 4.89917 -9.03217 -5.35853 16
827 2 1.91915 -9.36848 -5.66119 21
828 2 -10.3894 -17.01 6.89843 9
829 2 -10.6965 2.30703 0.626135 19
830 2 -11.7913 -14.4522 6.67418 12
831 2 -4.82259 -0.644058 -10.8457 15
832 2 -0.263263 -18.2606 2.44779 18
833 2 0.236082 -13.5151 2.91719 15
834 2 7.43583 -4.43704 7.54321 14
835 2 0.89001 -13.5045 6.36252 22
836 2 -6.65628 -9.08406 5.85171 16
837 2 2.70447 0.754056 -6.94161 15
838 2 -4.68038 2.42497 10.2817 15
839 2 -5.46733 -9.91317 -4.46508 20
840 2 -11.7495 -14.1232 -5.02765 12
841 2 -9.50178 -14.3138 8.53356 15
842 2 -9.32344 -6.07465 7.35542 19
843 2 -8.38715 -3.59001 -11.661 14
844 2 -16.9629 -6.7383 -3.27573 8
845 2 -8.60068 2.9082 2.33595 21
846 2 3.90623 -11.2674 7.1125 18
847 2 4.92133 0.0458954 6.0689 13
848 2 -5.41624 -20.0179 4.04257 14
849 2 -11.8947 -12.5014 4.05986 16
850 2 -14.224 -3.4594 3.70689 17
851 2 -3.94008 -14.2355 6.1138 18
852 2 2.70134 -8.32047 13.5066 14
853 2 -2.58397 -21.2021 2.63299 15
854 2 5.31393 -2.85915 6.35173 16
855 2 2.5261 -15.3555 3.30815 15
856 2 -6.47176 7.31491 -0.724902 14
857 2 -12.5661 -6.85195 -9.07189 13
858 2 -11.567 -1.85283 5.64169 22
859 2 0.261249 -11.6975 10.5875 16
860 2 -2.98407 -8.10247 12.8858 16