ITEM: TIMESTEP
23000
ITEM: NUMBER OF ATOMS
1000
ITEM: BOX BOUNDS pp pp pp
-30.0 30.0
-30.0 30.0
-30.0 30.0
ITEM: ATOMS id type x y z Coordination
1 1 -5.02749 -16.2927 -9.41675 12
2 1 1.26218 -14.812 5.66405 21
3 1 -11.7546 -0.883743 0.429334 24
4 1 -12.0094 -1.91678 -5.81758 19
5 1 -0.824198 -12.2858 13.9115 16
6 1 -13.044 -8.82827 -10.2558 11
7 1 -3.9417 -4.53058 -5.32858 20
8 1 -7.47561 -20.1851 8.40656 11
9 1 8.79995 -14.6472 3.44715 14
10 1 -0.643092 -3.90853 14.2068 11
11 1 2.23859 -7.6447 3.21847 22
12 1 -6.85852 5.17327 -8.80758 11
13 1 -1.88215 -9.08741 12.1946 21
14 1 -10.4035 -7.27787 0.10487 20
15 1 -7.6601 -5.41522 -4.40691 23
16 1 -2.66197 -8.75433 6.87798 19
17 1 -1.14056 -10.9373 -4.85117 20
18 1 -1.27532 -6.91342 13.1391 18
19 1 -5.80364 -17.5577 7.44244 17
20 1 -15.0424 -8.17916 3.46862 13
21 1 -15.7886 -5.41705 3.04498 14
22 1 -3.73571 3.55099 -1.88009 18
23 1 -2.9418 -2.38236 -10.91 12
24 1 -0.656035 -15.1182 -12.5845 8
25 1 -3.34675 -6.63679 14.9393 12
26 1 -13.2145 2.91246 -3.78337 13
27 1 -3.21504 5.65695 0.903946 12
28 1 0.423153 -21.0179 -0.0668364 13
29 1 -1.42008 -11.4373 -8.61939 20
30 1 0.709167 -10.0613 7.87584 21
31 1 -12.7964 2.38321 -6.99764 11
32 1 -0.631191 -1.02525 -9.1856 15
33 1 -2.22241 -3.75526 6.10568 22
34 1 -0.209296 -4.10692 8.55438 17
35 1 -12.8734 -13.9259 2.6133 17
36 1 3.58089 -10.6331 10.1266 19
37 1 -17.3247 -6.62085 0.269154 11
38 1 7.49921 -6.00049 6.26099 17
39 1 4.29011 -12.3474 2.21513 18
40 1 -2.59751 -5.62222 10.8961 18
41 1 -9.14757 -10.6815 -0.296041 18
42 1 -6.38066 -13.1594 -7.8085 18
43 1 -12.2864 5.60915 -2.00438 8
44 1 -7.34304 2.0026 -9.32614 14
45 1 0.772801 -6.50989 -3.10824 20
46 1 4.36608 -10.6165 -2.00068 21
47 1 3.32262 -19.9606 4.92593 9
48 1 4.02233 -14.615 12.7972 9
49 1 -11.6866 -1.02604 8.40619 14
50 1 -8.80866 -15.0827 11.4769 10
51 1 -13.4049 -3.9627 7.97125 13
52 1 3.18514 -20.1243 -1.67035 14
53 1 -1.4704 -8.19466 -8.37574 16
54 1 2.40652 -13.4309 8.81416 17
55 1 -5.9084 5.02933 4.11784 10
56 1 -14.689 -3.00546 -7.53638 16
57 1 -5.22107 0.59099 -1.21919 20
58 1 -9.24924 -6.79475 11.5931 13
59 1 -4.894 -7.39543 -7.66542 19
60 1 1.68444 -18.8177 -4.80178 12
61 1 -8.97154 -8.49721 8.33686 18
62 1 -11.2278 -12.6457 -4.97966 17
63 1 5.00781 -14.3893 4.53339 19
64 1 -8.91515 -13.6468 -2.55866 21
65 1 6.34172 -14.9409 -1.03054 17
66 1 -9.69007 2.05001 -0.283035 16
67 1 -8.98863 -0.994952 2.43866 23
68 1 -0.394097 -0.664008 -5.79541 18
69 1 6.47801 -13.0736 -3.31293 17
70 1 -12.5418 -17.6849 3.64967 12
71 1 2.51727 -3.8032 7.28063 21
72 1 0.367701 -1.08863 0.614556 19
73 1 -11.6095 4.79754 -5.52629 11
74 1 -1.75055 -16.0674 -9.85404 14
75 1 -7.91406 5.23853 -5.40155 10
76 1 6.26885 -9.0458 -9.28621 11
77 1 3.80774 -8.26803 -7.66355 18
78 1 4.80524 -12.6112 7.06296 21
79 1 -8.31486 0.162918 -7.3285 15
80 1 1.59448 1.63416 1.08417 14
81 1 4.51201 1.29839 1.91433 12
82 1 -6.34402 2.98955 -4.10808 21
83 1 -7.00006 -12.6407 -12.9032 9
84 1 -14.2689 -7.14744 -2.83159 20
85 1 -10.0105 1.85927 11.1197 5
86 1 -3.75602 4.50781 -4.5387 15
87 1 -3.84181 -11.3157 11.2865 18
88 1 -14.0024 -10.2993 5.99064 15
89 1 -7.50706 -20.9683 5.13826 13
90 1 -3.51754 2.84387 4.66757 17
91 1 2.10287 -3.1846 -4.61233 18
92 1 -1.16866 -16.1106 13.4526 12
93 1 -14.1964 -3.11712 -4.39095 16
94 1 -2.49305 -2.54739 10.4785 18
95 1 -5.42351 -2.75334 -11.385 12
96 1 -6.12606 -14.5069 6.87726 15
97 1 -9.6765 -19.2429 3.21709 15
98 1 -10.6599 -5.48671 -2.96479 20
99 1 4.52094 -17.1907 -2.94695 17
100 1 -6.51599 1.59107 3.81295 20
101 1 -10.6678 -2.40244 5.69167 22
102 1 -16.0287 -5.43818 -5.70043 14
103 1 -8.07883 -16.2928 4.49254 18
104 1 4.09321 -2.0894 0.854371 15
105 1 -5.24784 -2.39482 6.29378 22
106 1 -7.56058 -1.86701 -9.48052 13
107 1 -11.1897 -11.8754 -11.1234 11
108 1 -9.14738 2.61774 -3.13392 11
109 1 2.93412 -3.20716 10.3067 15
110 1 -10.046 4.92714 -8.13464 10
111 1 0.425425 -3.63069 -10.4148 10
112 1 -11.5443 -4.04766 10.1821 13
113 1 -9.72083 -1.54123 11.0312 15
114 1 -5.60135 -16.4491 -4.34594 17
115 1 1.92675 -16.4355 -2.40099 18
116 1 6.33797 -5.5015 -3.72049 14
117 1 -6.01414 -0.774112 1.74323 19
118 1 -14.0819 -6.70024 5.8271 20
119 1 -1.82952 -0.450694 13.9777 9
120 1 7.0564 -9.64288 -1.32125 15
121 1 -0.883694 0.678065 10.8855 18
122 1 -10.8951 -2.99168 3.16089 22
123 1 -15.1929 -12.6642 -2.32128 9
124 1 0.729099 -8.66897 11.1572 19
125 1 -1.9774 -17.0677 -4.22558 17
126 1 -2.84274 -8.55338 -10.446 20
127 1 6.36574 -8.27323 -3.98805 17
128 1 -11.9713 -7.03493 8.60243 16
129 1 -12.7148 -13.5788 -8.87093 8
130 1 -8.05573 -13.9067 0.496503 19
131 1 -6.7318 -16.3425 1.52187 18
132 1 -8.93518 -5.19182 -7.21849 20
133 1 -10.8122 -7.21421 -7.41249 22
134 1 -0.262726 -6.75772 8.49093 21
135 1 0.34521 -11.7512 10.5648 20
136 1 -0.569473 -17.6746 10.7505 13
137 1 3.1293 3.53678 6.10281 16
138 1 -9.25974 -13.0948 6.48272 16
139 1 -0.802951 3.14578 3.47956 17
140 1 -3.54582 -13.7418 -9.01655 19
141 1 -9.59189 -13.118 -8.4467 15
142 1 -12.5955 -16.7679 6.10792 9
143 1 4.2746 -5.56598 5.92485 18
144 1 -8.70805 -11.7811 -5.23428 19
145 1 -8.2147 -12.5552 10.3417 14
146 1 -1.25259 -19.2662 1.57479 17
147 1 0.74732 -3.97322 -1.12029 19
148 1 -11.1024 -19.0833 0.56128 12
149 1 3.4656 -14.0487 -3.33852 20
150 1 -0.020907 -19.0701 -1.74196 19
151 1 -12.6596 -0.40493 -7.96494 15
152 1 4.87253 -2.49807 5.72156 16
153 1 -10.1638 -8.96869 -11.302 15
154 1 -4.04215 0.104105 -9.58785 14
155 1 -7.06088 -17.4532 10.524 12
156 1 -1.7334 3.39349 8.78202 13
157 1 9.05604 -8.43728 7.97966 10
158 1 -11.2753 -11.1289 7.5238 19
159 1 -3.93694 -11.0303 14.3454 11
160 1 -11.3817 3.84359 0.888652 14
161 1 -4.0264 -11.4326 -12.0515 15
162 1 -4.9896 -15.8726 4.45563 17
163 1 2.00234 -12.7539 -10.9227 12
164 1 -10.4797 -16.4696 2.05518 19
165 1 -4.44566 -10.9283 8.35542 16
166 1 -11.4298 -11.392 4.20265 18
167 1 5.12186 -17.8543 0.0109737 18
168 1 -7.98019 -0.59867 -0.377067 20
169 1 -12.5244 -6.38109 3.01893 22
170 1 0.271601 -18.3021 6.74683 17
171 1 -5.57403 0.463544 6.52891 23
172 1 -13.6315 -9.54711 -7.43556 16
173 1 -10.6583 3.82614 4.20102 13
174 1 -6.70218 -2.4638 -5.72822 22
175 1 -14.5372 -8.70164 0.739814 18
176 1 -5.88118 -10.3207 -6.05524 18
177 1 -7.8882 0.359503 9.5284 17
178 1 6.39882 -8.61861 9.54027 16
179 1 6.55025 -14.5375 10.355 9
180 1 -2.43604 -14.2674 11.2933 18
181 1 -4.18121 -20.58 1.25168 17
182 1 -7.95097 -11.1201 -10.0068 19
183 1 -16.342 -4.88196 -2.33963 16
184 1 -4.47221 -21.8107 4.44795 14
185 1 6.36063 -6.53153 -6.72656 13
186 1 -10.5446 -5.91444 -10.0464 17
187 1 -13.8111 -1.53184 5.84074 11
188 1 -7.86697 4.10464 2.28734 17
189 1 -7.97638 -2.04253 7.26177 22
190 1 7.48721 -15.4309 -7.54751 9
191 1 6.46371 -10.0663 -6.50627 18
192 1 -2.88253 -0.754694 8.271 23
193 1 -10.5326 -2.21689 -2.4576 15
194 1 -3.82035 -15.6547 -6.44025 20
195 1 -3.60014 2.50735 11.6918 9
196 1 2.05535 -4.09371 1.70665 16
197 1 -14.5079 -0.165537 -5.18674 15
198 1 3.15934 -15.9915 2.95577 23
199 1 5.19657 -4.69353 8.63986 16
200 1 -13.2839 -9.50481 -2.10115 19
201 1 -10.5844 -16.329 -1.18149 14
202 1 -5.71538 5.40465 -1.52703 13
203 1 -13.3615 -0.32646 -2.69546 17
204 1 -9.68508 -17.7741 -4.56492 11
205 1 -2.60337 -17.9229 8.28348 16
206 1 -3.70871 -19.7217 -4.79154 14
207 1 -9.75123 -1.97807 -7.64933 21
208 1 -4.906 -20.8134 7.23855 13
209 1 -11.1352 -8.55761 5.11542 21
210 1 -9.87628 -4.98398 8.10248 19
211 1 -0.867596 -13.9436 -6.42175 22
212 1 -2.03568 -15.3608 5.43072 23
213 1 -11.682 -0.389673 3.5833 23
214 1 -0.00246698 -15.6151 7.76198 16
215 1 -11.5909 -12.7271 10.2837 13
216 1 1.3752 -12.1098 -3.45922 19
217 1 -0.279328 -16.8994 3.41087 20
218 1 -1.12489 2.86274 -0.323476 17
219 1 -12.4492 -14.6042 7.92829 13
220 1 7.60642 -11.3782 8.48994 14
221 1 1.86848 -7.15062 0.167548 22
222 1 -7.88787 -7.93983 4.11736 21
223 1 -1.20926 -6.15475 -5.50121 18
224 1 1.42234 -13.2516 2.48964 21
225 1 -5.33443 -4.40295 11.4321 20
226 1 -2.01699 6.20072 3.84369 9
227 1 5.79352 -11.9535 10.8431 12
228 1 -1.70439 -21.5992 -2.63581 9
229 1 1.24138 -2.36295 12.4766 12
230 1 -6.37699 -6.02476 13.6707 13
231 1 -12.0571 -15.1839 -6.25466 11
232 1 -14.6784 -13.1222 -6.43808 9
233 1 -9.90696 1.36428 7.12693 16
234 1 -8.34133 -15.2303 -6.30691 14
235 1 -10.3676 -8.81127 2.18374 16
236 1 -1.6604 -10.2113 9.39714 19
237 1 3.53417 -5.03564 -2.31645 14
238 1 -1.31823 -3.36632 -4.50895 17
239 1 -4.67267 0.633682 -5.96383 19
240 1 -5.8707 -1.42521 9.08168 22
241 1 -16.3099 -8.76733 -2.07274 12
242 1 1.19582 3.1508 -4.69044 16
243 1 -10.4922 -10.2544 -7.7715 22
244 1 1.18827 -11.1789 -6.92227 18
245 1 1.80108 1.22113 -2.02833 16
246 1 -0.0921358 0.446712 3.9738 21
247 1 1.89971 -4.87263 -7.41995 14
248 1 -0.821466 -12.2605 4.30951 21
249 1 -8.03538 -6.79322 -12.5714 12
250 1 5.21657 0.297723 -1.23916 10
251 1 3.51336 -15.4822 0.0988964 21
252 1 -5.92245 -8.84234 -12.1775 15
253 1 -2.75105 -18.4642 5.20645 17
254 1 2.44042 -17.4677 9.0665 10
255 1 -11.7049 -4.11416 -8.141 18
256 1 -4.3296 -6.19214 -11.8308 15
257 1 -14.4713 -11.3477 3.21299 14
258 1 8.96437 -13.6595 -5.77748 10
259 1 -3.40194 -1.96081 -7.21861 20
260 1 -5.45926 2.99405 -6.94736 16
261 1 -0.650758 -16.6717 -6.85672 15
262 1 1.06641 1.1896 -9.1763 11
263 1 4.71201 -16.6028 -5.60677 15
264 1 0.191778 -15.9844 0.619227 20
265 1 -8.59997 -10.5807 4.20884 21
266 1 -6.47209 2.43827 0.530995 18
267 1 -4.56081 3.29522 -10.1456 10
268 1 7.54013 -4.87799 -0.579356 13
269 1 -2.43931 -16.7191 -1.67992 14
270 1 -3.02619 -8.84584 -6.04008 21
271 1 -2.47409 -0.600871 2.04828 19
272 1 9.86265 -11.133 -0.0973674 12
273 1 7.35217 -14.2266 6.97022 12
274 1 1.51588 -9.53022 -3.86461 18
275 1 -10.0032 -9.92866 11.0677 12
276 1 -13.8691 -11.0698 -4.58341 16
277 1 -5.52364 -14.9407 10.2616 16
278 1 0.334422 3.6954 -7.55589 13
279 1 -13.0245 2.11718 -0.863096 15
280 1 -9.21655 5.21539 -0.90402 13
281 1 -5.79426 -8.63925 7.27905 20
282 1 0.927405 -22.242 2.99804 9
283 1 3.96868 -10.4829 -5.55812 22
284 1 -15.6751 -11.36 -0.0595846 12
285 1 -13.782 -5.98582 0.0271781 20
286 1 -14.5891 -12.137 9.1661 11
287 1 2.25605 3.8004 3.11146 11
288 1 -2.68425 -18.4627 -8.21856 13
289 1 1.59395 -13.9373 14.5802 11
290 1 4.48737 -7.39399 -1.59948 19
291 1 -13.8178 1.61044 3.16337 9
292 1 7.68408 -16.378 -4.04713 11
293 1 -4.02819 -0.630784 12.014 18
294 1 -7.00842 -5.79565 -10.2464 19
295 1 1.91473 -1.19882 -7.39244 16
296 1 -1.94774 -8.70375 -13.2001 12
297 1 -5.31873 -17.9988 -1.16327 15
298 1 9.19844 -8.54562 4.69559 13
299 1 1.97809 -15.4589 -5.62735 15
300 1 3.41562 -20.3993 1.64965 14
301 1 2.26006 5.81206 -4.24208 6
302 1 -10.4357 -5.39404 5.20072 21
303 1 6.14901 -2.92661 -1.33007 13
304 1 1.73451 -17.5283 12.7031 9
305 1 5.02939 -7.84172 3.78927 17
306 1 5.03334 -5.93307 11.341 11
307 1 -9.45877 -3.02835 -4.97147 19
308 1 8.22465 -2.03425 1.12796 9
309 1 4.67492 -10.623 4.48583 18
310 1 -2.06862 -14.1766 2.2357 20
311 1 -5.16596 1.465 9.59094 15
312 1 1.8451 -6.75432 6.2063 18
313 1 -14.6394 -0.403337 0.691589 12
314 1 -5.81691 -18.0274 -6.52712 13
315 1 -9.2111 -3.50677 -11.5245 11
316 1 -7.93214 -8.20213 -9.01172 21
317 1 -16.3114 -2.21256 -2.79583 11
318 1 6.41588 -15.8164 1.99633 18
319 1 3.28469 -17.5129 5.98355 16
320 1 -0.471915 -12.6115 7.10596 19
321 1 4.58547 -3.28266 -6.15867 13
322 1 7.10195 -9.93293 6.12824 17
323 1 -2.11968 1.44767 6.21748 21
324 1 9.14837 -14.0646 0.982618 12
325 1 -6.95719 -2.57307 13.0454 15
326 1 -13.6053 -14.7516 -0.560151 10
327 1 -15.4997 -8.53663 -5.42454 14
328 1 2.8455 -7.1929 8.90369 19
329 1 -6.42911 6.52005 1.06076 8
330 1 4.13901 -5.74357 1.78704 17
331 1 1.66824 -12.7684 -0.382001 21
332 1 1.74886 -2.92919 4.67974 17
333 1 -12.9005 -9.55061 10.7958 10
334 1 4.32995 -14.5186 -8.26022 15
335 1 -6.17109 -13.042 -4.51938 21
336 1 2.74731 0.589789 10.6298 13
337 1 2.56645 -0.151135 6.72724 24
338 1 -1.04746 -9.68652 15.1248 11
339 1 -3.45723 -3.49741 13.4938 16
340 1 -7.86652 -3.30898 9.37193 21
341 1 -6.84618 0.152565 -4.41333 17
342 1 -10.2047 0.559197 -9.90536 12
343 1 4.29396 2.52673 -4.03891 11
344 1 -6.89046 -9.47382 10.2875 18
345 1 -1.0928 6.03007 -5.38842 10
346 1 -10.0568 -19.3974 -2.50217 9
347 1 2.78438 0.896808 3.74961 18
348 1 -7.44249 -2.34615 4.02847 22
349 1 -16.4028 -3.19767 0.534776 14
350 1 -2.04026 2.52859 -5.85261 21
351 1 -4.30907 -4.54045 8.17589 23
352 1 0.462946 -1.14185 9.34089 18
353 1 -10.3995 -4.06448 0.323294 22
354 1 -2.48248 -7.80642 -2.83604 19
355 1 -6.80768 -5.7084 7.08369 21
356 1 -0.353815 -14.3246 -2.98387 19
357 1 -0.364161 3.64517 6.34194 19
358 1 -14.931 -8.93936 8.80688 9
359 1 -1.68729 -22.2297 2.50105 11
360 1 -0.142668 -1.57023 -2.74189 19
361 1 5.23618 -15.736 7.70953 13
362 1 -3.30706 -0.957508 5.02562 21
363 1 -1.58461 -11.9887 -11.5399 15
364 1 0.355713 -10.0373 -10.6059 18
365 1 -7.73961 3.16077 5.99554 14
366 1 1.90244 -11.4203 5.17726 20
367 1 -3.58926 -4.70611 -9.6331 16
368 1 -6.68813 -19.1854 -3.86493 13
369 1 -5.57523 -9.83534 4.66805 20
370 1 9.52793 -7.71153 1.36148 10
371 1 -0.917717 1.49875 -3.78587 19
372 1 0.92906 -7.75819 -6.18009 15
373 1 3.07713 -0.766101 -3.48515 14
374 1 4.99564 -0.403555 -6.26689 9
375 1 -4.81023 -8.35814 12.5832 18
376 1 -5.86863 -13.2468 12.6237 11
377 1 -3.81581 -11.9717 -6.13314 23
378 1 -13.1837 -3.53392 -1.39231 20
379 1 4.62282 2.58626 8.69778 12
380 1 -9.34295 -13.9687 3.51173 16
381 1 3.30965 -9.59967 -10.7139 10
382 1 -3.80104 -7.79659 9.58376 23
383 1 -11.7066 -8.59472 -4.50149 20
384 1 4.66203 -9.12963 0.986001 21
385 1 -11.7621 -15.6418 -3.369 14
386 1 8.88792 -13.2181 -2.19461 14
387 1 5.59245 -18.1584 3.3138 13
388 1 -4.18855 3.58129 6.98976 15
389 1 -8.94277 -4.32879 12.3903 13
390 1 6.07031 -3.58414 2.52634 20
391 1 -1.21181 -20.5947 -5.81189 8
392 1 -0.744005 -2.80676 3.50331 23
393 1 1.31869 6.09557 5.60936 9
394 1 -7.13053 -21.3748 1.93709 12
395 1 -10.5378 -10.6502 -2.52956 17
396 1 1.62444 -5.9021 11.7995 14
397 1 -3.87549 2.36039 1.64458 18
398 1 9.44387 -11.0778 2.771 12
399 1 9.0061 -17.683 1.89102 6
400 1 1.27635 1.74807 8.42659 18
401 1 -3.66745 1.15244 -3.62423 19
402 1 -3.82804 -14.4195 -12.0671 12
403 1 -8.59596 -10.3351 -13.0183 10
404 1 -6.47771 -6.53155 10.0389 19
405 1 8.14804 -2.7819 4.7113 10
406 1 -2.51688 5.17595 -8.0432 11
407 1 0.653079 -14.2466 -8.81039 17
408 1 -7.73409 -19.3218 0.100225 16
409 1 -12.7379 -5.6996 -5.57671 23
410 1 -1.29561 -3.62693 -7.65092 18
411 1 -5.50434 -14.5039 -1.68655 21
412 1 2.06444 -10.8365 13.2676 14
413 1 -3.39886 -14.3845 8.40775 17
414 1 3.54949 -6.62608 -4.94628 22
415 1 -12.5666 1.52979 6.0068 13
416 1 7.4436 -12.1487 4.64208 16
417 1 -12.243 -11.4231 0.96906 18
418 1 6.23504 -0.851495 3.22206 15
419 1 0.00815046 -1.31988 6.39506 20
420 1 -14.2932 -6.4944 -7.96881 15
421 1 -5.70805 -4.28796 -7.50087 16
422 1 8.78126 -10.5921 -3.85502 11
423 1 -8.62281 -8.20806 -5.16138 20
424 1 -9.65685 -17.1774 8.82693 10
425 1 3.60486 -9.37717 7.34116 18
426 1 -13.4706 -3.07842 1.82444 18
427 1 -1.96143 2.92646 -9.94797 9
428 1 0.981687 -14.7886 11.7868 17
429 1 -7.44703 -10.9892 7.02811 19
430 1 -4.47772 -10.5901 -9.02171 20
431 1 -9.71568 -18.6414 6.10378 14
432 1 5.03853 -9.20769 12.4109 9
433 1 -5.47707 -21.1408 -1.16523 9
434 1 7.10729 -12.4696 -8.53504 11
435 1 -10.4398 1.27012 2.01738 21
436 1 -13.0811 -3.82388 4.49249 19
437 1 -2.87184 -17.0094 1.39056 19
438 1 5.15187 1.14348 5.5549 13
439 1 6.46118 -12.1324 0.0119682 17
440 1 -3.47323 -16.9967 11.4162 13
441 1 3.2939 1.70465 -6.81492 11
442 1 3.60502 -11.5988 -8.45898 21
443 1 -11.8624 -2.32336 -10.2657 11
444 1 -3.4895 -1.7631 -3.4133 22
445 1 1.46521 4.77777 8.9 9
446 1 -2.30948 -0.436171 -0.69585 18
447 1 -6.66861 0.410996 12.2406 15
448 1 6.43905 -6.99514 1.19262 17
449 1 1.97519 -18.2739 1.01763 19
450 1 -9.1225 -5.96554 2.49071 20
451 1 4.78237 -1.1676 8.60027 14
452 1 4.18076 -13.1734 -6.18019 18
453 1 -3.24314 -13.6727 -3.46033 23
454 1 -9.43764 3.77644 -10.9558 7
455 1 -8.45232 -0.00199577 5.06632 18
456 1 -6.97105 -3.8005 1.24977 20
457 1 -6.25439 -18.926 3.1119 18
458 1 -1.69485 -21.3454 5.92308 11
459 1 1.12397 -6.96993 -12.0228 9
460 1 -11.1417 -13.5462 -0.600156 17
461 1 -10.7019 0.764476 -5.1087 19
462 1 8.16931 -5.94194 10.2917 6
463 1 -13.4355 -13.2424 5.92943 14
464 1 8.13542 -5.71348 3.03915 15
465 1 -1.61078 -5.82079 -11.5909 16
466 2 -15.5022 -4.80016 -7.3404 12
467 2 -11.9075 2.48161 -5.15129 15
468 2 -2.75825 -6.47274 -10.3768 16
469 2 -5.74257 -1.27622 12.7216 14
470 2 -10.9592 -13.2765 -9.69741 10
471 2 -3.17949 -3.96823 11.571 18
472 2 -14.25 -11.8905 7.20237 14
473 2 4.66323 0.152236 3.63026 15
474 2 -4.5129 -0.936261 7.29491 19
475 2 -7.66727 -9.77269 -5.33247 19
476 2 -13.3186 -14.3231 -7.34185 9
477 2 -10.2359 -3.73909 -6.77265 21
478 2 -6.63713 -18.7264 9.19084 11
479 2 -2.70791 -7.42809 11.4787 21
480 2 2.67567 -13.9554 -9.4119 14
481 2 3.81499 -8.82588 2.66764 19
482 2 -12.9146 -0.00939505 1.93339 18
483 2 6.1974 -2.84505 4.48183 16
484 2 -11.3288 -13.0543 6.684 18
485 2 -6.67631 -20.933 6.65138 12
486 2 7.05677 -12.8184 9.56622 13
487 2 -12.9686 3.73082 -1.91919 11
488 2 -6.34039 0.49064 0.409084 21
489 2 -7.03252 1.43028 5.87186 21
490 2 -8.61749 -5.88348 4.59771 21
491 2 1.39206 -14.7007 -3.84434 18
492 2 -5.01211 -5.7973 -5.88938 18
493 2 -2.12842 -11.557 -6.79946 20
494 2 6.83292 -10.5246 -8.33125 12
495 2 -6.12603 -13.8087 0.0112074 17
496 2 4.79872 1.59644 -5.68252 9
497 2 -12.4382 2.49886 4.34605 13
498 2 -5.2793 -14.6858 -8.27155 16
499 2 1.70885 -17.2238 10.7446 9
500 2 4.55096 -8.13685 8.79698 20
501 2 -13.8581 -8.19593 -1.0173 15
502 2 5.23968 2.37963 7.06893 9
503 2 1.60318 -16.9461 2.59231 19
504 2 -7.05083 -0.240224 3.49499 21
505 2 -0.872236 1.99313 4.94071 18
506 2 -4.43492 2.4489 -5.4155 19
507 2 -5.56239 -4.3251 13.3558 15
508 2 -2.73806 -9.63182 -4.1899 18
509 2 -11.7767 -10.0405 -10.8316 12
510 2 -9.24572 -8.36266 10.3749 15
511 2 -10.8992 -17.3079 -2.93988 12
512 2 -2.54174 -15.807 12.5066 12
513 2 -2.28782 -11.2074 14.81 10
514 2 -4.75386 3.02437 8.64901 14
515 2 -8.36449 -4.84126 1.04356 20
516 2 0.108407 -12.5395 -7.75491 18
517 2 7.40866 -6.72865 -4.98015 12
518 2 -9.11202 -17.2872 3.1295 20
519 2 0.757989 -10.7516 -5.13112 18
520 2 -1.2938 -1.14901 10.5132 20
521 2 -1.31244 -17.9356 -2.66383 17
522 2 4.09558 -12.4353 8.77053 18
523 2 -13.148 -13.5585 9.44877 12
524 2 8.46019 -10.2712 4.58106 14
525 2 -3.23131 -16.719 5.0429 18
526 2 5.64018 -11.9228 -1.63418 18
527 2 -9.15993 -9.7381 -8.74917 18
528 2 -9.71257 -12.2716 4.22382 19
529 2 -7.11604 -11.6922 3.46033 21
530 2 -9.10179 -14.7689 -1.04686 18
531 2 -11.9635 -1.10705 -1.45153 18
532 2 -1.26948 -6.37149 -3.5912 21
533 2 4.7742 -6.20283 -0.0649892 21
534 2 -1.15498 -1.55371 -7.33545 16
535 2 -10.3164 -5.17585 11.0752 14
536 2 -14.5833 -1.58421 -2.97503 16
537 2 -4.84427 -7.1368 14.1375 13
538 2 -12.4139 -2.24051 7.19115 16
539 2 -7.92788 -1.65511 -7.13151 17
540 2 5.91709 -7.55541 -8.25005 9
541 2 6.84893 -11.8558 6.56313 16
542 2 3.64966 -6.71847 4.43112 18
543 2 -0.461662 5.50409 4.77481 12
544 2 -9.31483 -2.27162 3.89625 22
545 2 5.0822 -1.42479 -1.25934 13
546 2 -1.80422 -0.77883 3.88802 21
547 2 -2.5897 1.00373 0.578791 19
548 2 -6.07602 -3.39017 2.94432 20
549 2 -4.02049 -12.8178 7.5688 21
550 2 -2.89657 -11.9424 -9.92464 22
551 2 -4.75132 -5.58789 9.94582 20
552 2 -1.05007 -2.26923 -10.468 14
553 2 -6.91819 -7.14889 8.29122 18
554 2 -1.91151 -15.7924 -5.77482 18
555 2 -2.25951 -14.0659 -7.72884 20
556 2 -0.671032 -22.2925 4.39377 9
557 2 -1.46752 -1.36232 -4.2081 18
558 2 -11.3123 -7.72253 -10.4333 15
559 2 -7.41571 3.80676 4.2282 12
560 2 -16.2718 -9.30615 -0.265196 12
561 2 1.62312 2.077 -7.24114 15
562 2 -2.52354 2.98851 3.03881 20
563 2 -2.45979 -5.0885 14.3237 12
564 2 2.47825 -20.8911 3.47228 10
565 2 -2.40785 0.983991 12.6043 10
566 2 7.3687 -9.81426 -4.68 14
567 2 1.02079 -3.83799 3.22501 18
568 2 -7.24983 -3.01598 -11.0248 11
569 2 2.34113 -15.6841 13.4468 11
570 2 -2.37919 -18.0178 10.1427 10
571 2 8.06608 -14.4208 5.20451 12
572 2 -9.80011 5.48998 -6.16779 10
573 2 -6.0822 -19.7494 -2.03995 13
574 2 -5.43931 -5.27373 -9.08924 18
575 2 -5.30727 -13.2805 -12.3137 9
576 2 0.860248 0.907952 9.98808 13
577 2 -14.7432 -10.8396 -2.1807 15
578 2 -16.9861 -4.97428 1.45328 11
579 2 9.35244 -12.9964 2.65285 12
580 2 -7.89358 -19.6395 2.26844 16
581 2 1.17425 -11.7217 1.41229 22
582 2 -10.2237 -7.97201 -3.62444 19
583 2 -9.42503 -11.2833 -11.5775 12
584 2 -6.13031 -8.11593 11.1428 19
585 2 -9.74285 -12.2404 -3.64884 18
586 2 -1.3942 -7.74926 -6.55651 18
587 2 4.97279 -12.9438 -4.36619 18
588 2 -14.3678 -9.72568 4.16449 17
589 2 -0.978075 -9.22377 -9.74876 20
590 2 -3.59015 -3.82023 -3.24063 20
591 2 -4.4374 -14.6129 -4.77542 20
592 2 1.23021 -0.792763 -9.18279 12
593 2 -0.335699 -1.79835 13.4891 11
594 2 8.72291 -7.46163 6.25926 12
595 2 -13.4436 -7.96082 9.53292 9
596 2 -3.70426 -21.7642 6.08477 11
597 2 1.65941 -8.55782 -11.0982 9
598 2 -3.67311 -2.93745 5.1882 22
599 2 -6.98989 -13.2391 -2.67561 20
600 2 -9.47242 -0.543457 6.72696 22
601 2 -14.9019 -2.16043 1.12235 13
602 2 -11.6407 -11.0756 11.1072 13
603 2 -0.120856 -17.5237 8.59378 13
604 2 -14.3846 -8.39751 7.1458 14
605 2 -9.08822 -20.0213 4.93358 14
606 2 -9.83797 -13.4886 10.7315 10
607 2 3.7584 -16.7964 7.87601 14
608 2 -0.443539 3.83262 -5.60329 16
609 2 3.73471 1.1175 -2.5232 13
610 2 6.14687 -4.6208 -2.08864 11
611 2 -4.71567 6.4134 -0.103061 10
612 2 -14.8118 -6.82961 -6.05046 15
613 2 -15.265 -8.41463 -3.59072 16
614 2 0.501047 -20.1742 -5.3351 10
615 2 1.79403 -16.4068 -0.298813 21
616 2 6.58241 -15.308 8.744 10
617 2 -13.8222 1.23829 -3.85327 13
618 2 3.51113 -3.75503 5.51219 19
619 2 2.58037 -13.0352 13.4087 13
620 2 -3.35473 -8.65074 -8.28008 17
621 2 -0.228505 -3.06685 5.63162 22
622 2 0.274987 3.17316 8.74239 14
623 2 -4.08136 -13.3546 11.4827 17
624 2 -11.8956 -10.1815 5.94762 18
625 2 -4.14305 -0.202784 -7.53489 17
626 2 -10.1333 -12.0389 -6.64758 18
627 2 -12.4924 -5.87929 -7.44339 20
628 2 -8.93603 -16.6375 10.5003 10
629 2 0.595929 3.25865 2.08427 15
630 2 6.0864 -5.63259 2.57049 18
631 2 7.11516 -13.7881 0.736304 17
632 2 -15.3108 -6.53803 4.32138 12
633 2 -10.3048 3.95895 2.41384 13
634 2 -9.36174 2.05783 -10.2424 9
635 2 4.76907 -8.88958 -6.25624 20
636 2 -10.6523 -1.42999 -4.31357 16
637 2 -0.135842 -10.8336 6.24141 17
638 2 1.67 -2.57829 0.413205 18
639 2 -12.0751 -14.9682 -1.54507 13
640 2 5.223 -16.0459 3.50841 19
641 2 -3.61259 -21.6703 -0.75903 10
642 2 -11.5769 1.85156 0.490181 18
643 2 -3.73486 -15.4861 2.06564 17
644 2 -14.2666 -1.91371 -6.07381 17
645 2 -1.36284 -19.4062 6.30257 14
646 2 -1.31302 -5.49904 9.45362 20
647 2 -0.798896 -7.55015 -12.5001 12
648 2 -3.4274 1.64764 -10.3393 9
649 2 4.12314 -1.71196 -5.09506 14
650 2 -8.89627 3.2797 -1.48452 16
651 2 -4.10256 -7.31955 7.55706 21
652 2 -5.31165 -16.6119 11.0529 15
653 2 -3.33374 -18.924 1.41037 17
654 2 -14.1262 -7.06892 1.8593 17
655 2 -4.73127 -13.9313 4.67249 20
656 2 -9.62969 -2.15338 -9.62127 19
657 2 3.3083 -10.4896 -3.87605 19
658 2 1.34385 -7.30624 10.0796 18
659 2 -6.91732 -4.28237 -1.53018 19
660 2 3.15322 -11.4273 -10.4011 11
661 2 0.954172 2.44915 -0.711415 11
662 2 2.9822 3.59873 8.13579 14
663 2 2.5196 -12.916 -2.13161 20
664 2 -7.27695 -12.8752 6.69287 19
665 2 -8.7419 4.90707 -9.69626 9
666 2 -2.17558 -3.41881 8.17683 22
667 2 -0.0944184 -21.7403 1.51362 11
668 2 -8.95712 -18.8085 7.93406 12
669 2 6.03295 -8.99996 4.89567 17
670 2 0.723598 -5.8488 -6.21076 17
671 2 -2.05212 6.23245 2.04409 8
672 2 4.41044 -18.4747 4.5418 13
673 2 2.40742 -20.6776 0.158221 14
674 2 -3.82748 -4.27298 -11.7837 14
675 2 2.9436 -11.5043 3.58962 18
676 2 0.405386 -7.40588 12.4219 15
677 2 -5.86732 -3.15789 7.93542 20
678 2 -1.92193 -13.2263 5.73749 20
679 2 -6.91282 -10.616 -13.3062 9
680 2 5.20404 -12.7388 -8.2839 17
681 2 -8.42036 3.85764 -4.38901 14
682 2 -2.49522 -19.5769 -6.82072 13
683 2 -3.57008 -10.0242 10.0596 20
684 2 -12.9647 -2.57927 -8.2926 16
685 2 5.33879 -10.8223 1.28718 17
686 2 0.753607 5.0751 7.19257 11
687 2 8.9292 -2.02418 2.85834 9
688 2 8.28337 -4.88924 4.78635 12
689 2 -12.4071 -6.83458 -3.80185 20
690 2 -5.77487 1.5512 -3.04122 20
691 2 -10.9194 -0.251214 -6.78511 20
692 2 4.29749 0.14908 0.627585 14
693 2 -14.3834 0.836223 -0.750363 12
694 2 -5.25179 -15.2658 8.37108 17
695 2 -1.3333 -8.26141 8.48783 21
696 2 -3.8489 -17.59 -4.63831 20
697 2 4.20308 -9.24584 -9.24606 14
698 2 -2.51883 4.14806 -0.188757 14
699 2 2.6057 4.74322 4.72681 12
700 2 -11.5514 -9.04157 -6.9569 20
701 2 -8.65437 -19.1772 -3.75155 9
702 2 9.11012 -7.61783 3.12131 13
703 2 -14.1025 -4.86564 -1.91661 18
704 2 -4.11142 -19.0449 7.31433 14
705 2 7.53004 -9.61012 8.04447 14
706 2 -8.94728 -14.858 5.35155 15
707 2 -12.1853 -10.5606 -3.85731 20
708 2 -3.18143 -1.64699 13.426 14
709 2 -11.987 5.47338 -3.87259 9
710 2 -11.0903 -2.15643 1.50756 22
711 2 2.74692 -5.08339 -4.13228 20
712 2 -8.17681 -10.6817 10.9688 12
713 2 -4.7216 4.24126 5.32412 15
714 2 -0.419547 -21.0592 -1.74337 13
715 2 -4.18177 -9.8019 6.72922 19
716 2 3.37496 -10.0879 12.14 13
717 2 -12.6285 -4.45999 0.523717 19
718 2 -9.71165 -6.32352 -1.26623 19
719 2 -7.3639 -4.11897 11.0997 18
720 2 -7.82393 -12.8428 -9.06432 13
721 2 9.77857 -10.0034 1.35179 11
722 2 3.45769 -15.1981 -6.80021 15
723 2 -4.86451 2.48497 -0.429363 20
724 2 -8.15188 -6.11666 13.0356 12
725 2 -12.7488 -3.82916 -5.47828 21
726 2 8.1416 -13.5775 -7.44606 8
727 2 0.911953 0.0926744 2.25567 21
728 2 -10.9755 -2.3338 9.80131 16
729 2 0.366664 -5.70277 6.98767 21
730 2 -7.7713 0.123598 -9.12223 14
731 2 -15.8679 -4.1103 -4.14022 16
732 2 -5.16837 -9.8811 -10.7265 18
733 2 -4.28819 -0.391213 -4.51337 21
734 2 -8.62477 -8.47083 -12.518 14
735 2 0.622796 -15.2007 -6.96767 15
736 2 -1.64044 -16.2556 0.203227 17
737 2 -0.172302 -17.1928 12.5389 12
738 2 -3.32233 -3.0133 -8.82948 19
739 2 1.40512 -8.56955 6.74177 21
740 2 -4.06179 -1.16543 9.80313 23
741 2 5.5794 -15.9825 -7.64397 10
742 2 -6.16894 -20.9642 0.545901 13
743 2 4.34669 0.489847 9.58937 12
744 2 -10.0645 2.64402 5.59414 15
745 2 -14.6262 -13.0799 -0.520365 10
746 2 -0.406301 -0.460401 -0.980748 19
747 2 -1.94629 -15.5386 7.61742 17
748 2 -13.7341 0.15348 4.88267 9
749 2 -0.473716 -3.61734 -2.69533 19
750 2 0.61113 -6.93316 4.43073 17
751 2 -11.5636 -4.74403 3.46057 20
752 2 -1.44509 3.54438 -8.1013 14
753 2 -9.3024 -4.52977 -3.78988 23
754 2 -2.31709 -10.5391 -12.4708 13
755 2 -7.92232 -4.54622 7.89717 19
756 2 -8.04739 -1.46367 9.22445 18
757 2 4.0743 -3.00148 8.52979 16
758 2 1.63881 -9.07257 -7.08471 19
759 2 -13.7175 -9.1577 -5.49603 18
760 2 -6.61689 -17.6918 0.217337 18
761 2 8.08905 -15.5646 -5.74327 10
762 2 -6.59916 -1.64901 -3.67767 21
763 2 -3.58074 -15.4569 -10.4005 15
764 2 -13.6731 -4.63484 6.23256 18
765 2 -12.4327 -13.3706 0.812014 15
766 2 3.99404 -18.5943 1.50853 18
767 2 -5.49174 -19.6625 -5.54989 11
768 2 -5.46204 -16.3369 -2.43715 17
769 2 8.40693 -12.697 -4.08567 13
770 2 -6.44385 3.46332 -10.1867 11
771 2 1.02609 -0.197875 7.81111 21
772 2 -2.37932 -21.1938 -4.44133 10
773 2 2.35037 -10.2898 8.81674 19
774 2 -8.46973 0.635886 11.2879 13
775 2 -8.82014 -2.05356 -1.3358 20
776 2 0.304376 -5.27095 -11.4589 8
777 2 -4.4351 -17.658 -8.05192 14
778 2 -12.1375 -15.8458 3.07405 12
779 2 -8.65105 1.27926 -4.1623 13
780 2 -0.27767 2.1071 -10.203 8
781 2 -6.82957 1.11792 -6.88508 14
782 2 -1.01671 0.986684 -5.66621 18
783 2 -5.16429 -11.5358 -7.5925 21
784 2 1.7075 -19.0211 -2.83422 15
785 2 -16.7538 -3.51627 -1.24136 11
786 2 1.44831 -0.552495 4.74259 17
787 2 -9.22013 -6.8359 -6.31124 20
788 2 -11.2799 -18.5775 2.30754 11
789 2 2.9268 -5.84887 7.48475 20
790 2 1.23498 -3.11001 8.91362 19
791 2 1.50217 -1.40795 -3.6163 17
792 2 -3.88353 4.06412 -8.60535 12
793 2 -2.57912 2.71121 -3.60862 19
794 2 9.45507 -12.8317 -0.436966 12
795 2 -7.77728 -4.11495 -6.0935 16
796 2 3.1035 4.13562 -4.00863 10
797 2 -2.1318 -8.25664 14.0536 14
798 2 -7.64636 -13.4164 -6.02834 19
799 2 -7.41211 -7.26433 -3.90562 20
800 2 3.27909 -4.93429 11.2745 15
801 2 -5.59872 2.58352 2.48635 18
802 2 7.64579 -14.9364 -2.69869 14
803 2 6.03246 -17.2484 -3.66771 10
804 2 -6.35847 0.726288 8.32201 24
805 2 3.01635 -15.5534 5.09452 18
806 2 -6.79556 4.46231 -6.84676 14
807 2 -2.27299 2.21843 10.2157 15
808 2 -11.824 4.23928 -7.58292 7
809 2 -2.70163 5.31012 -6.01834 13
810 2 -15.1545 -12.5635 -4.49181 10
811 2 0.282552 -12.0402 -11.025 16
812 2 -10.2305 -4.03129 6.53398 24
813 2 5.50997 -14.2262 6.20942 16
814 2 -5.00186 4.50488 -3.20501 15
815 2 -5.7943 -5.40005 5.46517 21
816 2 -9.91611 -16.3015 -5.93685 9
817 2 0.844946 -4.27168 12.6012 12
818 2 -3.70185 -8.11581 -12.2437 13
819 2 -11.9166 -0.147712 -10.1027 10
820 2 0.784326 1.72711 -3.49794 19
821 2 -6.06604 -6.79012 -11.9016 15
822 2 -11.773 0.453252 7.26094 14
823 2 -9.43455 1.58269 9.26266 11
824 2 0.58424 5.96702 -4.24887 6
825 2 -9.67771 -19.0101 -0.776838 13
826 2 3.07111 -11.7182 -6.6089 20
827 2 1.86433 -7.54665 -4.3094 20
828 2 -11.3318 -18.0617 5.52043 15
829 2 -9.2831 0.145038 0.930402 20
830 2 -13.6415 -15.0659 6.30415 12
831 2 -4.32893 -1.1369 -10.9243 12
832 2 -1.44056 -18.3046 3.38123 16
833 2 -0.237964 -14.5007 2.0164 21
834 2 6.33092 -5.37726 9.9731 11
835 2 0.945436 -14.0421 7.41733 19
836 2 -9.44167 -10.7627 7.81741 20
837 2 3.44155 -0.101055 -7.2619 11
838 2 -5.06747 1.4967 11.7667 12
839 2 -4.76359 -11.5402 -4.64911 21
840 2 -11.9003 -14.2994 -4.64661 14
841 2 -11.1864 -16.3458 7.85488 11
842 2 -10.172 -6.90606 7.62802 16
843 2 -9.04388 -5.57916 -11.5628 13
844 2 -16.9103 -6.62977 -1.5631 13
845 2 -8.4511 2.56599 1.15453 21
846 2 3.67925 -10.8005 6.16732 19
847 2 4.37158 -0.652671 6.58256 18
848 2 -6.1746 -21.0037 3.66995 13
849 2 -13.3012 -12.8301 4.05868 16
850 2 -14.2513 -4.31539 2.96487 18
851 2 -6.33508 -16.2714 5.98857 13
852 2 -0.437984 -10.0631 11.042 22
853 2 -3.38588 -21.7832 2.79295 13
854 2 5.90825 -5.26742 6.99732 14
855 2 0.975104 -13.1187 4.54855 20
856 2 -7.53534 5.74109 -0.411835 11
857 2 -13.9852 -8.34591 -8.83768 12
858 2 -12.3084 -2.20096 4.46904 19
859 2 -1.0054 -13.148 12.2049 17
860 2 -3.55197 -9.98421 12.6648 18