ITEM: TIMESTEP
12000
ITEM: NUMBER OF ATOMS
2000
ITEM: BOX BOUNDS pp pp pp
-30.0 30.0
-30.0 30.0
-30.0 30.0
ITEM: ATOMS id type x y z Coordination
1 1 -15.1937 4.62057 -16.4802 4
2 1 0.0118911 -8.29007 -12.4034 19
3 1 6.08956 12.0628 11.6326 13
4 1 2.19971 -5.66793 11.3863 12
5 1 -8.73643 7.14171 2.64842 18
6 1 10.4443 -8.95887 -10.1403 11
7 1 -11.84 5.70329 -9.77159 18
8 1 1.33932 -6.17389 6.24581 19
9 1 -7.11826 -0.473265 -6.81675 21
10 1 -15.121 -6.54409 1.94823 14
11 1 14.4011 5.0742 -10.3893 9
12 1 -4.44233 -12.917 -0.472384 20
13 1 -11.9249 -5.52247 3.41903 17
14 1 -2.18603 3.01211 17.8232 14
15 1 8.63062 -1.20387 0.848024 22
16 1 2.69668 4.45763 9.07565 18
17 1 10.2102 1.50132 -0.0282907 17
18 1 -6.37204 10.7014 -6.65847 22
19 1 1.17011 -0.76617 8.4671 23
20 1 -4.91944 -0.988246 -16.2743 15
21 1 -10.8152 1.51805 14.6728 15
22 1 11.0194 6.99098 9.79761 20
23 1 -3.32898 8.12932 -13.1126 21
24 1 6.70395 7.22284 -11.3189 19
25 1 9.9719 3.91924 10.5307 19
26 1 -8.01199 4.4356 -4.5197 26
27 1 -13.2002 11.9546 -7.71336 10
28 1 -3.985 3.51857 -9.83695 21
29 1 -12.5929 15.0762 5.21828 10
30 1 6.38788 -9.83278 5.83964 10
31 1 3.17997 0.18478 6.16633 24
32 1 3.87071 -11.2159 -10.7103 14
33 1 9.70968 -9.13597 -0.22037 12
34 1 -9.15303 -13.4178 -5.63013 14
35 1 -11.1337 -3.06002 10.1516 20
36 1 5.01714 -3.25574 -12.0746 21
37 1 8.95496 -6.30562 -10.6221 16
38 1 -5.99133 3.53533 -17.9722 17
39 1 2.47456 7.21204 16.5936 13
40 1 0.368228 -10.6005 8.43297 12
41 1 2.03297 -2.58845 10.9141 20
42 1 -11.4566 1.21694 1.91949 20
43 1 -13.4835 -1.68227 8.34587 14
44 1 -6.52146 4.61159 -1.65309 22
45 1 -5.95394 18.9052 -2.56766 18
46 1 4.32511 -8.43896 -10.1947 19
47 1 1.99288 5.23774 -9.64923 23
48 1 3.3833 -6.68251 -4.74513 20
49 1 -4.88908 -0.0574639 9.62573 20
50 1 -11.3376 14.7786 8.77898 12
51 1 1.66719 13.062 -8.50933 20
52 1 2.31415 17.0963 6.5166 20
53 1 -13.9105 12.3631 -5.11772 11
54 1 1.88242 14.5092 0.164564 21
55 1 1.34076 -12.3449 -0.254706 18
56 1 4.00564 -7.52335 -7.68505 23
57 1 5.1446 -3.37327 -17.2559 14
58 1 -9.08856 10.6377 9.5995 18
59 1 -9.24263 2.18587 -9.42228 18
60 1 8.23255 0.658899 3.42848 20
61 1 -5.64414 9.4761 -4.61824 17
62 1 -2.45336 -9.64014 9.26015 12
63 1 -0.330304 17.1547 11.6485 10
64 1 -8.25418 13.8524 -2.49055 19
65 1 -4.55194 9.17416 15.5547 21
66 1 3.31834 8.23968 -4.46826 22
67 1 -7.82662 -11.4945 8.86691 16
68 1 9.86238 5.99354 7.06889 18
69 1 8.26596 -8.19481 -2.60207 20
70 1 3.05375 9.30715 11.4102 17
71 1 -11.3989 5.67699 -12.7355 17
72 1 -11.5643 8.94318 -13.4796 13
73 1 4.70936 8.98506 18.0338 10
74 1 17.5302 0.836897 -5.8834 9
75 1 6.38103 -9.67867 -0.256236 17
76 1 -12.9804 0.373346 5.8 15
77 1 -6.14754 2.57684 1.00912 22
78 1 1.51006 19.9176 6.17501 10
79 1 0.612806 -1.5574 16.4409 11
80 1 -6.76684 -6.85559 5.07594 19
81 1 -8.20713 2.24483 -2.26218 20
82 1 12.6183 4.2639 8.33597 18
83 1 8.22184 0.806026 -1.90404 22
84 1 -0.272207 12.5093 10.9144 17
85 1 -0.267858 0.526963 6.26748 25
86 1 -6.74144 -3.24802 1.90374 21
87 1 -5.58114 -3.85317 -11.7132 19
88 1 -13.2554 9.34887 5.33496 12
89 1 -5.90138 12.1418 2.3337 20
90 1 -4.08455 8.58348 -7.71778 20
91 1 4.91381 1.31354 -7.22787 19
92 1 9.75885 8.22012 -9.816 11
93 1 4.28915 -4.96179 -1.73818 20
94 1 2.63926 -9.42296 10.7446 9
95 1 -7.05465 20.8229 -4.26887 11
96 1 -10.8698 17.5188 3.44836 10
97 1 -6.77356 1.04113 14.8742 16
98 1 -5.75396 12.0247 5.1087 19
99 1 -8.52227 -2.89404 11.0372 16
100 1 14.9615 -4.30451 -5.70491 11
101 1 -9.95772 4.10478 3.7215 19
102 1 -12.675 -11.6351 2.47046 10
103 1 9.66997 -3.28317 -6.93005 23
104 1 4.08573 4.61109 -11.7253 22
105 1 -3.29612 -3.54462 -14.1948 18
106 1 -2.16449 19.3962 2.14847 16
107 1 -10.5357 12.8764 -4.36924 20
108 1 2.48466 12.0088 18.4323 7
109 1 -0.196755 14.993 -4.85209 19
110 1 -11.1696 16.9104 0.0674925 12
111 1 8.3525 10.7903 0.825817 18
112 1 -1.27712 -3.86832 11.8043 14
113 1 17.6865 -0.997952 5.3371 10
114 1 -0.470034 -1.29673 -6.86622 23
115 1 2.76349 -7.19096 -12.9471 22
116 1 0.19063 5.89778 6.8957 21
117 1 3.53737 -1.88054 13.9977 14
118 1 -9.61028 -3.36973 -2.04801 21
119 1 7.00049 -5.41309 -2.23041 18
120 1 -14.542 -9.24797 -5.44661 11
121 1 9.88644 -9.28584 5.26982 8
122 1 -6.77298 9.59122 3.22934 20
123 1 3.21141 5.04992 -16.4421 14
124 1 -0.497681 20.9451 -2.26907 16
125 1 -10.1859 -5.8848 10.4441 16
126 1 -8.28295 -10.651 5.33477 17
127 1 1.56334 -5.53229 -15.88 17
128 1 2.63526 9.9721 -9.14907 18
129 1 11.9315 -9.01792 -1.74615 10
130 1 0.261665 -15.075 0.560344 12
131 1 -15.8702 -5.92241 -4.68419 12
132 1 13.8307 7.52736 8.55618 18
133 1 16.394 -2.29045 -8.6468 10
134 1 -15.385 -1.78729 0.515182 15
135 1 10.0595 9.93406 3.41 17
136 1 14.4731 11.8248 4.33395 16
137 1 -7.40596 5.26679 16.8912 16
138 1 10.2489 16.0495 -1.57508 21
139 1 -5.91644 11.0782 11.6005 18
140 1 -3.18091 15.081 -5.82314 17
141 1 1.56122 -9.72551 -9.20955 20
142 1 13.329 -10.1948 -8.25037 7
143 1 -0.241925 14.5161 -11.7174 11
144 1 6.64307 -2.17959 14.0208 11
145 1 1.05852 0.583593 -14.1527 19
146 1 -0.91328 11.7682 -5.54741 17
147 1 14.3298 -0.774817 -10.7417 13
148 1 -11.9254 14.621 -6.13349 15
149 1 -10.0102 20.1473 -5.37721 9
150 1 10.3697 3.42887 -7.51148 16
151 1 6.96129 -6.07077 11.0762 8
152 1 -6.27137 5.95734 -9.52379 20
153 1 -7.88955 16.254 9.57558 12
154 1 10.5193 18.733 -1.44806 12
155 1 3.05083 10.5146 -1.65647 21
156 1 -3.83982 20.6674 -0.0832379 12
157 1 8.47212 13.0369 -2.21927 18
158 1 -6.16786 12.2254 -3.22472 18
159 1 2.93032 18.34 -9.51835 10
160 1 -0.553195 11.7246 -13.6311 13
161 1 -8.9219 -6.74285 2.5397 20
162 1 -13.6175 14.2924 -2.58817 12
163 1 -3.56841 -1.1146 -11.761 17
164 1 -0.805588 -5.46815 -13.9669 19
165 1 8.14058 17.4378 3.88805 15
166 1 -2.15641 16.1639 3.29843 19
167 1 -13.5187 1.4573 -5.5019 17
168 1 -8.00599 17.2296 2.13268 16
169 1 13.5296 2.57313 -2.08731 19
170 1 -12.634 2.7687 -14.6176 14
171 1 5.79614 6.97594 15.8653 12
172 1 2.17323 19.1099 2.72642 15
173 1 -0.897028 14.6157 6.05614 20
174 1 2.15738 -3.27437 -17.8577 10
175 1 -5.39234 14.22 11.2231 14
176 1 -5.91707 14.5286 -11.5532 13
177 1 -3.57141 -0.0528796 12.6741 19
178 1 -9.81753 -4.60831 0.464642 19
179 1 -0.916144 -10.9726 -12.2785 13
180 1 -9.36862 15.4273 -6.07301 15
181 1 -4.97773 -11.9472 8.32032 13
182 1 5.48869 -12.6197 -5.96608 13
183 1 -3.70278 10.5845 -14.5227 14
184 1 -12.2453 5.82017 9.4774 16
185 1 -0.138091 10.5161 -2.09163 18
186 1 10.4847 8.11782 -4.30017 18
187 1 -2.3755 11.0842 16.4669 11
188 1 0.103626 -7.74613 10.0761 13
189 1 -10.0666 8.79067 -0.0344834 17
190 1 -0.162712 18.0122 4.31639 18
191 1 -4.16745 10.0388 9.21697 19
192 1 13.0481 4.9189 10.8914 14
193 1 -3.98387 18.6024 4.87939 17
194 1 12.5581 -3.61195 -2.13229 16
195 1 -5.44256 15.1331 8.54193 18
196 1 -3.07737 4.0921 -6.83749 19
197 1 11.6928 -8.66901 2.03365 10
198 1 -4.74648 -2.4891 6.55713 22
199 1 -14.7763 0.926292 2.39799 13
200 1 -10.6351 -9.23361 3.17509 21
201 1 9.13023 8.1587 13.94 10
202 1 -15.9297 1.76147 -8.08308 11
203 1 -7.85349 -13.0777 -2.32806 17
204 1 4.95681 -7.98194 -2.60913 21
205 1 -1.95954 15.29 9.49208 15
206 1 -8.87772 3.70148 0.601149 17
207 1 3.6107 13.2483 7.59917 17
208 1 -6.54652 2.08264 -4.74632 23
209 1 -7.17813 13.1486 -8.40866 17
210 1 -11.5221 -5.41805 -11.4134 14
211 1 -10.3257 -2.51533 7.27546 15
212 1 -3.76001 -8.26699 4.05585 18
213 1 3.95443 -10.6129 3.15961 17
214 1 -13.2878 13.9194 0.926842 13
215 1 12.5328 6.50674 5.43109 18
216 1 6.65763 4.64923 -6.96198 22
217 1 -7.3654 -6.98728 -9.98978 16
218 1 1.50639 0.771772 11.4834 21
219 1 6.97782 -12.7791 -0.141744 11
220 1 -6.58888 8.65046 -14.6137 20
221 1 -1.92929 -6.61456 -8.73059 19
222 1 8.58121 1.32772 -11.1971 18
223 1 1.15205 7.44494 -16.9346 12
224 1 -12.3556 -6.0197 -6.05164 21
225 1 -3.51683 20.3933 -3.21451 13
226 1 -11.3596 -7.4859 8.48963 17
227 1 4.27068 19.2567 -2.72588 16
228 1 -10.4507 -0.408124 11.6187 22
229 1 -3.40631 11.7336 -5.49029 19
230 1 7.09075 -0.742539 9.31652 20
231 1 -4.39995 -4.57672 -8.19136 20
232 1 -6.4546 13.9426 -5.75515 18
233 1 -1.11112 12.3522 -10.1453 20
234 1 -14.5386 -9.01573 3.46475 12
235 1 -6.25595 5.75965 7.98666 21
236 1 -7.10585 8.71473 8.30528 19
237 1 1.10567 -6.61594 -9.09646 18
238 1 -8.52225 -14.3953 0.519429 12
239 1 10.0474 -6.8771 -6.46385 22
240 1 2.44448 -3.50867 -4.84597 20
241 1 12.3101 7.61149 12.8326 8
242 1 4.45388 10.487 -6.72507 18
243 1 1.2445 18.7599 -4.29722 20
244 1 -10.3139 -0.909329 3.26729 16
245 1 -7.54497 14.6712 1.04277 19
246 1 2.53279 7.71853 8.97499 20
247 1 0.206673 -14.141 -5.44968 18
248 1 13.2959 0.23844 0.304476 21
249 1 3.05085 5.72987 5.97263 21
250 1 -12.4033 7.51355 1.80758 16
251 1 -16.7228 -2.84221 -3.03155 10
252 1 4.46693 8.52873 -15.5086 12
253 1 4.23743 -1.34204 8.83647 22
254 1 5.68322 13.6461 -5.18557 21
255 1 -1.43452 -7.23383 -1.39586 20
256 1 -2.22318 3.29021 -11.9504 19
257 1 -5.67376 -14.9321 2.47975 13
258 1 7.99343 -1.19045 -4.77936 20
259 1 -6.96959 4.32376 3.13385 18
260 1 0.00513957 -16.0968 -2.76697 12
261 1 -11.2148 -3.6069 -8.23898 21
262 1 2.96931 13.691 -5.76451 23
263 1 3.67435 -1.64257 -14.8053 22
264 1 7.87441 9.90138 16.5593 9
265 1 14.4575 7.64462 1.03703 12
266 1 -6.52644 -7.7112 -0.523494 19
267 1 12.5222 -2.93979 -12.8227 12
268 1 -0.696059 -7.36302 3.87777 22
269 1 -8.58269 -3.42397 -10.1948 20
270 1 -8.95762 2.59898 -17.3696 15
271 1 -10.9874 -10.576 8.17795 13
272 1 8.62287 -2.95429 10.9026 15
273 1 5.26998 -2.88166 6.25781 22
274 1 -10.6062 -8.57833 -10.4526 10
275 1 1.68255 -4.6909 4.08784 23
276 1 2.23354 6.18615 -12.949 17
277 1 5.12662 13.4876 -2.54437 20
278 1 -6.74756 -1.13174 4.01931 22
279 1 3.42602 16.1546 2.66718 19
280 1 -7.23048 -3.49289 5.6126 20
281 1 -13.3346 -6.07612 -9.59949 12
282 1 -6.98707 -3.48723 -14.4208 14
283 1 -4.15491 7.3907 -16.0981 19
284 1 -3.49029 -9.68836 -7.68134 18
285 1 -5.70303 -6.2185 2.1037 25
286 1 9.93167 -3.63058 -14.9439 9
287 1 16.7551 3.86855 -1.89912 10
288 1 7.73438 6.23115 9.98435 17
289 1 -3.63018 -3.50974 -3.66778 20
290 1 -8.79182 -4.80567 7.80826 21
291 1 -7.35668 -4.87981 -1.05565 20
292 1 2.88023 1.13895 17.5018 10
293 1 -7.66055 -15.9233 5.57921 9
294 1 -4.2205 -8.39046 -2.73016 23
295 1 0.0158138 16.9112 1.50036 25
296 1 6.04649 2.06424 -12.237 20
297 1 -6.07128 0.599164 -10.3731 19
298 1 -15.5214 -3.71905 9.30649 12
299 1 -3.26786 8.76523 18.3528 11
300 1 -2.31983 -10.7818 -1.79563 17
301 1 -6.17515 -8.83473 -12.0255 11
302 1 -11.1682 7.98817 -7.97316 16
303 1 8.41838 2.95022 5.77064 19
304 1 -6.15482 3.00444 -12.1986 18
305 1 4.6376 6.77571 -9.29538 20
306 1 -3.72307 -3.41178 1.47548 22
307 1 6.36189 -10.5948 -8.43507 17
308 1 -8.31805 18.0078 -4.87922 22
309 1 1.61272 10.9261 0.715922 20
310 1 16.4528 9.7897 2.79326 11
311 1 -9.52835 0.401757 5.86085 19
312 1 -10.4834 4.86928 15.6403 13
313 1 -6.69733 17.8729 7.57223 13
314 1 4.13989 -4.2171 -7.11705 18
315 1 15.1052 15.9179 -4.3225 8
316 1 8.69683 -6.61706 -0.17984 17
317 1 -6.6441 3.92113 13.78 21
318 1 -14.8807 -2.56045 13.0414 7
319 1 -0.0249579 -14.9363 -8.05361 9
320 1 -7.72538 7.10577 15.3818 16
321 1 -5.0684 12.186 14.1349 12
322 1 -12.9945 -1.41873 11.234 18
323 1 -14.2124 -3.87156 2.14983 14
324 1 16.2966 0.846727 -3.00871 13
325 1 -15.0375 -6.5974 7.7747 12
326 1 12.195 0.436167 -8.01692 16
327 1 13.8452 -6.94935 -7.66407 13
328 1 -0.86077 21.3102 -5.09572 10
329 1 -10.3147 16.3237 -2.96724 17
330 1 8.49813 11.7391 10.8426 16
331 1 -4.75491 1.62473 4.20015 20
332 1 1.05187 -10.9761 -4.52684 19
333 1 -4.69642 15.0338 2.57316 19
334 1 -3.63411 10.5023 3.42212 20
335 1 2.1649 -9.1808 5.59651 19
336 1 12.433 -5.29032 2.13892 12
337 1 -3.94701 8.07414 12.8863 19
338 1 -10.9476 -2.76846 -4.94939 19
339 1 -1.13994 8.28702 14.3599 21
340 1 -5.55755 19.8201 2.61672 12
341 1 7.80745 11.2457 14.0725 12
342 1 -11.2442 17.8035 -7.53005 7
343 1 -2.37202 -0.658067 -14.7655 17
344 1 -6.33204 3.83958 -7.15381 20
345 1 3.71824 -6.26358 -18.4503 8
346 1 -7.58519 4.37119 10.7814 20
347 1 -15.7276 0.0654225 -1.34435 11
348 1 -5.75615 -2.54162 -9.02956 18
349 1 -3.70295 10.5913 -2.22245 19
350 1 6.53113 0.182374 6.23785 18
351 1 -14.0988 -11.4138 -3.20091 12
352 1 7.34215 -4.90695 4.81291 18
353 1 -13.5235 -6.29104 10.3773 11
354 1 -10.5261 9.18824 3.69758 21
355 1 -3.19644 0.401737 6.71536 23
356 1 5.31283 -5.9202 -10.2565 20
357 1 -8.82056 4.70206 -10.9684 17
358 1 6.61757 -1.47238 -7.18146 19
359 1 1.08987 18.4802 8.55668 12
360 1 -10.6139 1.93423 -4.35836 23
361 1 4.63602 -5.20023 -14.7203 25
362 1 10.6403 6.5866 -12.1545 11
363 1 -3.21041 -15.0522 -6.44529 10
364 1 -14.0652 -4.0547 -6.86066 14
365 1 -4.62913 -13.048 -3.48767 18
366 1 8.24939 5.75015 13.0525 15
367 1 10.1754 4.14385 -1.58403 17
368 1 -9.9545 1.86403 -14.4202 15
369 1 2.15721 21.2911 -3.35212 13
370 1 -16.1221 -1.15009 -6.3345 10
371 1 -6.47986 12.0011 8.64936 24
372 1 -7.81895 16.8273 -1.46516 21
373 1 -3.58287 12.829 7.12538 22
374 1 7.50493 1.83852 9.65089 16
375 1 15.0761 -1.07398 -6.01894 18
376 1 13.6621 -0.632952 11.5565 8
377 1 16.3588 3.87218 -7.78772 9
378 1 -4.96557 -12.2894 -6.18904 19
379 1 -3.96507 8.53299 1.15483 21
380 1 0.036605 -6.30539 -5.60746 20
381 1 -0.660257 9.56745 3.60402 19
382 1 -10.0433 5.49904 -2.31424 19
383 1 2.75125 -13.9837 -8.01175 11
384 1 11.7118 -3.95182 5.54575 11
385 1 -12.5271 -1.00008 -3.5994 17
386 1 -4.52364 -4.73682 3.83926 19
387 1 -11.157 -3.46892 13.0385 12
388 1 -6.24807 16.4796 4.55194 19
389 1 -10.649 -8.1511 -4.92104 18
390 1 11.6513 14.4608 9.11958 9
391 1 -10.3642 13.6468 -0.818118 20
392 1 -2.95376 13.148 -12.3037 16
393 1 6.42904 14.715 3.67343 18
394 1 -11.4703 -6.26431 -2.39016 19
395 1 -0.123493 -10.464 -6.85693 18
396 1 -8.70886 -0.91163 14.1049 14
397 1 -12.4646 10.8984 0.629857 17
398 1 2.3651 -7.40719 3.15358 19
399 1 -2.17759 -11.7252 -5.12688 18
400 1 7.79264 14.1065 8.77165 14
401 1 2.11552 9.66096 -14.2722 15
402 1 -13.6149 7.65113 -10.8725 11
403 1 4.0918 15.6663 -7.64107 21
404 1 -7.79257 7.50243 -3.09516 19
405 1 -1.82926 -10.5165 3.43226 16
406 1 17.3393 10.9169 -0.44438 8
407 1 -6.53366 11.4483 -12.6189 16
408 1 0.0928285 2.02014 9.10937 23
409 1 -13.9989 5.41195 -0.719322 10
410 1 -5.21724 7.0343 3.94261 18
411 1 -11.7239 -10.9682 4.91763 15
412 1 0.969145 -4.16789 -7.04322 20
413 1 6.84432 -2.57884 -14.9722 17
414 1 -1.53469 3.24787 6.64187 25
415 1 -14.3772 4.13424 -6.21882 14
416 1 -8.64563 2.30228 16.4316 14
417 1 -8.95766 13.1574 9.48968 19
418 1 -1.07545 -2.56843 6.72565 21
419 1 -6.31243 6.64425 -12.5629 20
420 1 11.3864 -5.38345 -8.82056 20
421 1 5.68191 -10.6297 -13.6621 11
422 1 -7.98409 1.02256 11.9939 25
423 1 5.51905 -9.59112 -5.56327 22
424 1 -1.52036 5.92939 -15.2546 18
425 1 6.48287 -10.5662 2.36876 13
426 1 -1.95805 13.3785 -2.54701 21
427 1 -8.97112 11.5284 3.52238 19
428 1 -8.32143 0.228684 8.53885 20
429 1 -11.234 -1.10734 -10.3434 19
430 1 -9.70919 -7.51713 5.32087 19
431 1 8.2975 -3.40769 7.36883 16
432 1 8.201 7.18647 -1.67425 21
433 1 2.89902 2.22965 -9.81313 20
434 1 5.48126 -8.25763 8.59693 15
435 1 10.851 10.6416 -6.63234 15
436 1 -5.06747 2.26609 12.1961 23
437 1 -1.28636 17.2522 -3.57784 19
438 1 6.63762 -2.442 2.97469 20
439 1 -5.60412 -9.32909 -5.15937 17
440 1 -4.1119 5.57433 17.7229 18
441 1 -3.35288 12.6303 10.6739 17
442 1 -11.767 -8.85308 -7.54616 15
443 1 9.07672 14.6393 1.34727 17
444 1 8.05879 9.82329 6.44356 18
445 1 -7.92992 3.13025 6.16068 19
446 1 -8.41776 -10.6206 -5.16922 20
447 1 -13.1958 9.22568 8.87406 9
448 1 -6.8721 -6.90475 -6.32849 20
449 1 -9.24131 10.3885 6.76628 18
450 1 -6.65487 -14.0579 -7.8598 12
451 1 -0.669985 -6.17858 -11.4103 19
452 1 -6.5609 -8.9333 2.58864 21
453 1 -4.79305 3.3643 6.57455 20
454 1 11.2455 0.173153 5.7203 19
455 1 -4.52549 5.91754 14.8091 18
456 1 -3.98486 10.7855 -11.0273 17
457 1 11.4194 5.9686 3.12132 19
458 1 -12.9633 -10.7965 -0.396338 13
459 1 2.06215 7.26345 -7.19842 19
460 1 -0.881454 21.2819 1.01413 13
461 1 -1.68146 7.21074 -6.70985 21
462 1 2.19978 11.6453 13.2983 17
463 1 -15.6473 1.46774 -4.53468 12
464 1 -5.09107 19.0958 -6.07171 12
465 1 7.5992 15.4981 -6.78296 17
466 1 -7.98085 -3.80699 -7.51953 19
467 1 1.19101 8.63004 14.166 13
468 1 1.44919 -12.6829 -10.5417 13
469 1 -0.357968 -3.34052 -9.7017 19
470 1 3.39396 -9.50198 0.395254 21
471 1 -10.7773 14.331 2.43719 20
472 1 6.57447 2.94346 12.1796 17
473 1 11.7404 8.20356 -1.84777 14
474 1 1.48624 12.983 -3.36597 21
475 1 -11.2882 10.1711 -10.3225 14
476 1 3.65755 4.18054 -7.55969 21
477 1 0.744704 -6.86393 0.274199 21
478 1 -15.7228 -5.88544 -1.49816 14
479 1 -2.75567 21.8565 4.382 6
480 1 -1.11055 9.0047 -14.6706 18
481 1 16.3221 10.6144 -3.80038 8
482 1 6.13585 18.508 -7.9222 11
483 1 6.29673 -1.92317 -1.90732 21
484 1 15.1612 4.79643 0.374097 18
485 1 1.04815 3.39775 -11.9672 22
486 1 1.46026 -7.77022 -3.07307 18
487 1 -0.925524 -9.23147 5.7677 17
488 1 0.298764 -4.09877 9.00409 20
489 1 -9.12548 5.25721 -7.44899 19
490 1 -15.024 -8.76902 -0.10724 13
491 1 2.20082 -10.8941 -12.987 12
492 1 9.20018 17.376 1.19184 17
493 1 -0.331983 6.64134 -12.0203 18
494 1 1.96045 4.39846 14.8718 15
495 1 -12.1086 2.15879 11.177 19
496 1 -2.32576 -15.5373 -1.22555 12
497 1 -10.3677 0.073333 -0.967239 20
498 1 16.8282 -1.87825 -3.43643 11
499 1 12.8534 0.715915 -4.69433 16
500 1 -4.06018 12.1048 -8.19005 18
501 1 -1.99003 -4.02242 -6.66471 22
502 1 5.47001 5.50522 -14.2409 19
503 1 10.5018 2.19928 -4.1213 18
504 1 -5.50994 2.39545 17.227 13
505 1 5.64196 17.9928 1.38161 16
506 1 -1.01966 -2.25571 -12.3049 19
507 1 0.357333 4.75718 -18.1475 15
508 1 -6.2624 -2.98627 9.09614 19
509 1 -4.9795 13.0909 -0.682129 19
510 1 -8.40249 -0.506121 -15.9833 14
511 1 -12.839 1.11908 -1.5724 17
512 1 -3.31267 -5.46596 -10.9631 19
513 1 -5.41929 -9.04402 9.93779 14
514 1 -0.0271745 9.92185 -7.80587 17
515 1 14.8636 8.72076 5.58902 17
516 1 16.4541 13.4309 -2.20302 10
517 1 -6.93504 -10.32 -1.25333 18
518 1 0.460362 -9.99508 -1.24265 21
519 1 -2.14305 -3.14379 -16.7185 10
520 1 -8.31765 11.8714 12.4951 13
521 1 0.271282 -0.237422 -9.6873 19
522 1 4.97468 11.042 1.07295 18
523 1 14.3095 -2.90578 0.394002 17
524 1 4.74388 12.6579 -8.32053 19
525 1 3.17828 -3.63918 0.616018 20
526 1 13.1996 8.47359 -10.3151 9
527 1 2.86356 13.6955 11.385 17
528 1 -12.4925 3.08607 7.65753 14
529 1 5.21918 11.8081 4.67747 20
530 1 6.41844 0.222811 16.2132 8
531 1 -3.99312 4.46705 -13.7882 20
532 1 -5.17128 -3.31778 -5.90434 22
533 1 -1.85331 -0.585819 9.75061 20
534 1 6.52853 16.5553 7.16288 14
535 1 7.82238 7.26726 -15.0751 7
536 1 -6.74539 16.3536 -6.45053 17
537 1 -3.50696 16.1402 -1.1398 18
538 1 10.906 -1.3156 12.3612 9
539 1 8.16579 4.3487 -10.5273 17
540 1 12.2078 -5.36732 -5.60664 21
541 1 9.91636 11.6732 7.89327 20
542 1 -13.3296 -5.01857 -0.608837 20
543 1 -8.46493 10.4503 -4.46962 19
544 1 0.0589398 1.47333 15.7 18
545 1 -14.5739 4.53568 12.0578 7
546 1 -5.94329 17.5175 -9.3054 8
547 1 3.37547 -11.285 -7.29691 18
548 1 6.2717 -1.63229 -10.7024 19
549 1 -1.7639 18.5449 -1.08034 19
550 1 -10.0256 -3.08123 -12.9853 16
551 1 2.60282 -13.8479 2.61531 9
552 1 -12.9989 -4.4833 -3.72331 22
553 1 -6.74368 8.39305 -17.903 12
554 1 -11.2882 5.18354 -5.09733 18
555 1 -1.94821 11.2389 13.6864 19
556 1 -14.5649 -3.76052 5.86522 12
557 1 6.66645 8.55144 -4.27297 21
558 1 4.35507 -8.41015 -15.8673 13
559 1 4.80117 -3.23939 11.3223 20
560 1 6.61305 2.44312 -5.01057 21
561 1 -13.1191 8.77511 -1.45021 13
562 1 4.06766 4.77113 17.9061 10
563 1 4.1068 19.6696 -6.04268 14
564 1 10.1793 -6.45416 -3.0469 21
565 1 0.801609 13.2137 8.09759 19
566 1 -4.47978 5.86291 -18.895 12
567 1 -7.09532 -8.72303 7.00325 18
568 1 -1.01384 5.52921 -9.26864 20
569 1 3.56411 2.57708 -14.3564 19
570 1 3.70549 10.4469 7.68889 19
571 1 6.02386 10.0334 -9.95808 22
572 1 -4.64018 1.1009 -13.3914 16
573 1 -7.11072 -10.1921 -8.24234 22
574 1 -11.9633 0.0310196 -12.8972 16
575 1 11.5131 1.39523 3.01581 19
576 1 14.1856 10.4323 -6.3466 12
577 1 12.9884 -2.48031 -7.57874 21
578 1 11.332 9.84418 9.69957 15
579 1 6.54798 -6.77829 -5.16843 20
580 1 -3.31578 1.14944 -18.7827 11
581 1 12.4949 14.8788 -3.524 19
582 1 -8.57341 7.15323 5.56251 18
583 1 11.0301 4.55365 13.6159 11
584 1 13.6888 8.25185 -4.66808 17
585 1 18.0728 0.208551 2.98175 11
586 1 8.3646 4.61515 -13.8206 17
587 1 3.58671 3.41772 12.0353 18
588 1 14.5772 2.00865 9.23334 13
589 1 1.96684 -2.6458 6.60233 23
590 1 9.98561 16.8827 -4.09313 14
591 1 0.807658 6.98625 11.5873 18
592 1 13.247 5.60988 -2.942 18
593 1 7.79894 0.0535655 12.9772 16
594 1 -8.80479 1.98681 -6.32469 19
595 1 11.9184 5.51664 -0.347222 18
596 1 12.566 -1.94928 3.16542 15
597 1 -12.4694 11.9972 3.76121 15
598 1 6.06034 8.14118 8.71468 20
599 1 15.9171 -0.530652 8.16672 9
600 1 -0.504886 10.9552 5.98349 19
601 1 4.10772 15.7656 8.82197 14
602 1 4.74862 3.03382 5.90177 21
603 1 -3.85602 -8.84996 0.65395 22
604 1 -6.65704 10.0095 -0.353992 19
605 1 7.93091 11.3509 -4.91396 19
606 1 11.5316 0.140256 -11.1972 18
607 1 2.45725 16.0688 -3.42747 24
608 1 -1.38114 -9.0312 -9.71757 19
609 1 9.36564 -1.31613 -12.6503 19
610 1 -12.6492 2.38061 4.3356 14
611 1 -9.07807 7.65042 -10.8461 20
612 1 -4.53579 -11.1264 2.42268 18
613 1 -6.308 2.21317 -15.5374 19
614 1 -11.7374 2.76757 -8.19472 18
615 1 6.38065 -3.85678 0.53879 23
616 1 8.47483 12.7533 5.02754 18
617 1 2.76005 -7.38483 8.51032 18
618 1 -14.5943 0.300199 -11.0175 10
619 1 -0.361836 2.13422 -19.1743 12
620 1 -3.71197 3.04742 14.7343 22
621 1 2.44247 12.4818 -12.0674 17
622 1 10.5305 1.36343 11.3067 16
623 1 9.8436 6.27972 -7.01752 12
624 1 14.0113 15.1744 -1.00657 17
625 1 7.09205 -8.83765 -10.8367 16
626 1 -9.53719 8.73039 12.046 14
627 1 14.623 -1.85832 5.4928 12
628 1 -0.319386 14.0217 13.2815 13
629 1 6.70519 15.4604 -9.41632 12
630 1 -8.46888 11.2053 -10.2216 17
631 1 11.8713 11.8315 2.26711 18
632 1 -10.2842 -11.8011 -0.0520061 17
633 1 9.08229 -7.05509 3.13411 16
634 1 3.74766 14.723 5.46744 20
635 1 -5.2451 9.10049 6.18746 20
636 1 -11.7292 -7.87628 0.395738 21
637 1 -8.94205 -0.641599 -9.24285 19
638 1 4.79599 -0.0213494 11.3835 23
639 1 -5.20873 -5.1375 7.24661 17
640 1 6.57442 8.77945 12.401 16
641 1 -5.67097 16.0002 -3.71707 17
642 1 9.81789 7.7568 1.20469 18
643 1 6.38463 3.6159 3.41891 23
644 1 -0.473103 2.99794 -15.0476 16
645 1 -8.46352 1.49389 3.0944 19
646 1 5.23638 0.44704 -15.5245 17
647 1 -3.79605 -1.06437 -6.70314 20
648 1 13.7218 -3.96214 -10.1572 14
649 1 5.49829 4.4459 9.30777 19
650 1 4.71654 6.54911 3.58372 21
651 1 -7.09933 9.43648 14.2845 17
652 1 9.49747 15.1871 6.49061 15
653 1 -2.08033 -2.53184 14.9734 11
654 1 -1.55244 9.28574 11.1568 17
655 1 2.50148 -1.94221 -10.8579 17
656 1 -1.25807 4.86905 9.77691 19
657 1 8.73677 8.80314 9.16528 19
658 1 -14.1506 -9.36975 7.0513 11
659 1 11.5892 11.3596 -3.98978 20
660 1 8.4895 -9.43959 -5.48457 16
661 1 -3.20861 8.0949 -4.36272 19
662 1 3.0786 12.8005 2.44584 20
663 1 11.4484 16.9568 4.17396 10
664 1 2.2379 2.01993 -17.0768 16
665 1 -3.33845 5.92659 6.78088 23
666 1 1.34617 16.4788 -6.16582 19
667 1 13.1772 11.5673 -1.44054 15
668 1 -10.7766 -9.58883 -2.49611 20
669 1 -0.317605 -0.0193456 -17.4339 15
670 1 -9.34259 19.2321 -2.2242 12
671 1 7.43019 -4.05212 -12.2181 24
672 1 6.65722 8.02633 1.22088 20
673 1 8.39762 12.2416 -8.27154 13
674 1 7.12688 15.2456 -3.38671 21
675 1 -2.74925 13.0772 4.1496 20
676 1 -4.98567 7.27341 -2.00039 21
677 1 8.31867 5.37523 -4.38384 19
678 1 5.91275 3.84656 14.5847 11
679 1 6.62933 11.575 8.49563 17
680 1 -3.37843 -6.44949 10.0667 12
681 1 -6.54498 9.10355 -9.55997 20
682 1 0.755002 10.4353 9.06836 20
683 1 7.21112 -5.78347 -16.0385 11
684 1 3.12644 1.54544 8.92101 22
685 1 7.37727 18.8904 -4.50894 14
686 1 1.68613 12.1425 5.21183 23
687 1 13.8242 -0.947247 -2.60759 21
688 1 4.13458 13.8945 14.0117 12
689 1 -11.2372 0.119848 8.56863 21
690 1 2.32907 -13.9429 -2.35475 20
691 1 -1.2649 0.819372 -12.3889 19
692 1 -8.44294 14.4363 4.03946 19
693 1 1.48885 2.95432 6.44651 24
694 1 5.73439 -3.77759 -4.59538 19
695 1 -0.129339 13.4081 2.05501 18
696 1 -11.925 -1.99452 0.767792 18
697 1 -2.14806 0.364029 15.2823 18
698 1 -9.37143 7.46706 -15.873 15
699 1 -12.7289 6.55309 -15.3737 11
700 1 3.37445 -10.7768 -2.84822 22
701 1 7.91341 9.16575 -6.89763 17
702 1 4.42481 -4.92935 3.15309 20
703 1 -2.21114 14.8499 0.580721 16
704 1 -11.1864 8.10601 7.28308 20
705 1 3.18264 -0.274654 -17.9683 12
706 1 0.740131 -12.262 5.07389 12
707 1 1.29839 18.5822 -0.950044 24
708 1 -4.82747 -0.893585 15.6906 11
709 1 -8.68276 -6.20672 -12.4362 16
710 1 -3.17253 -8.10563 -12.3079 17
711 1 -7.02897 -12.0457 -10.8047 9
712 1 -0.0929886 16.4326 -9.38318 14
713 1 3.11083 -1.18641 -7.71339 20
714 1 -10.4956 13.5143 6.06279 19
715 1 7.1757 -7.57824 -8.10908 20
716 1 4.25595 -12.2952 -0.0591281 19
717 1 4.35391 -6.05527 6.25752 24
718 1 15.86 5.47387 -4.91595 11
719 1 2.47999 -9.14209 -5.59402 18
720 1 -6.22914 -0.00338973 6.68036 24
721 1 -0.290715 2.67027 -9.43766 23
722 1 -7.0996 -11.8593 1.51565 17
723 1 -11.6273 -11.138 -5.58812 16
724 1 -9.93835 2.71809 9.38503 21
725 1 -9.22711 -13.2447 6.71825 15
726 1 14.3539 11.9087 -9.44424 5
727 1 -7.85185 18.7236 4.76407 13
728 1 -4.55954 4.40405 9.97588 20
729 1 -13.0726 4.06347 1.94863 13
730 1 11.2788 -2.02535 0.519379 19
731 1 -8.27436 -0.963362 -12.7194 16
732 1 -4.10086 14.8449 -9.46895 16
733 1 9.55864 0.356837 -6.35559 19
734 1 4.87203 11.6656 16.1864 11
735 1 14.0723 2.31339 -10.359 11
736 1 -11.9314 3.00849 -11.5036 18
737 1 -13.2085 -2.82675 -11.8058 13
738 1 -0.932173 6.46857 17.6787 14
739 1 3.97051 8.2453 -12.113 19
740 1 10.6953 14.7508 3.56583 18
741 1 -1.54653 1.6128 12.6123 21
742 1 -6.15485 -15.3921 -1.71779 10
743 1 -6.73413 -14.5494 8.00404 11
744 1 -2.9357 -3.77515 9.04736 15
745 1 14.0319 11.1887 7.7493 14
746 1 2.99723 -4.77719 -9.94962 20
747 1 -7.02032 6.73149 0.149397 21
748 1 7.13938 9.47435 3.66998 21
749 1 -12.2425 -4.78391 7.50201 21
750 1 5.38285 11.3948 -13.5595 10
751 1 -0.838585 -12.1827 -9.51906 15
752 1 2.58314 -15.3402 -5.04613 10
753 1 -0.793123 -13.1288 -2.48851 23
754 1 5.42949 3.64653 -9.66323 20
755 1 4.03383 16.4942 -1.31007 18
756 1 -6.42206 0.445507 -18.364 12
757 1 -1.23804 4.59089 15.7406 18
758 1 0.759802 9.57517 -11.3668 19
759 1 -11.4767 1.08324 -16.7489 11
760 1 -8.59992 -0.408364 -3.7839 23
761 1 -0.319311 18.8045 -7.50633 9
762 1 8.12119 5.07618 0.898823 21
763 1 -5.22194 -6.32414 -14.3388 12
764 1 -7.60615 -3.05083 -4.54382 18
765 1 14.425 6.84077 -7.83881 14
766 1 14.5832 -6.8893 0.531817 8
767 1 -6.88303 7.90135 10.986 20
768 1 5.63242 -7.53291 3.6074 18
769 1 16.5416 -0.631681 0.0166739 17
770 1 12.5969 0.80804 8.98588 16
771 1 -1.68541 17.7829 7.70942 11
772 1 -9.29925 6.05701 13.2984 18
773 1 -9.22358 7.05671 9.62289 20
774 1 -4.67573 -15.3301 4.9399 9
775 1 9.86665 3.80729 2.17789 19
776 1 -0.0752256 9.96944 16.8742 14
777 1 -13.8109 -2.29434 -1.25665 18
778 1 9.6546 -4.05853 -0.897699 19
779 1 -9.85208 11.762 -7.1479 21
780 1 3.03912 9.97034 4.01749 21
781 1 -2.50206 -13.2085 3.72266 14
782 1 1.11874 4.1375 18.0681 13
783 1 0.878471 15.2424 3.8904 22
784 1 0.896626 -9.59106 2.08063 17
785 1 -7.10481 -0.800289 -1.17881 19
786 1 0.533219 3.76089 11.919 19
787 1 -14.2495 -1.11472 -8.53439 14
788 1 2.23427 16.2938 12.9058 9
789 1 5.51922 14.6989 0.594049 17
790 1 -16.0914 -9.61013 -2.73731 9
791 1 -5.84832 -12.5075 5.81169 18
792 1 7.42324 -7.21862 6.32563 15
793 1 10.5859 -1.85181 8.26898 12
794 1 8.24263 6.33416 3.73482 19
795 1 -0.0203374 15.8318 -1.35139 20
796 1 -3.77515 -6.87179 -5.86266 26
797 1 -8.25358 5.50478 -18.4556 14
798 1 -6.63621 -6.75265 9.03943 15
799 1 2.37074 21.1664 -0.293452 9
800 1 13.3381 3.1001 2.6208 16
801 1 4.80297 10.9707 -4.00184 22
802 1 -6.55574 8.45858 17.8823 9
803 1 11.3031 8.79379 6.79192 23
804 1 7.7699 -4.29904 -9.13918 19
805 1 -8.85769 -8.60736 0.305778 16
806 1 -4.98364 1.44209 -7.66099 18
807 1 15.6484 5.41262 6.86745 11
808 1 10.6164 -3.40367 -10.5647 21
809 1 4.32629 7.11091 11.3399 17
810 1 10.1801 -10.2485 -7.55786 12
811 1 -1.8782 7.14861 -17.9998 15
812 1 -6.32527 -5.7972 -3.61345 23
813 1 8.1071 10.6281 -11.3813 10
814 1 16.7674 2.65921 1.6071 10
815 1 0.234415 -1.45587 13.3639 18
816 1 -4.72731 -7.77741 -9.16426 20
817 1 6.98717 18.0955 -1.51286 15
818 1 -1.43576 -4.26477 4.15658 20
819 1 -11.883 5.95133 4.05851 18
820 1 13.1419 13.4595 -6.36438 11
821 1 14.7861 12.3637 0.8999 16
822 1 6.65923 -0.307228 -13.0545 21
823 1 -9.63398 16.254 6.13352 18
824 1 11.2562 3.65756 5.55026 18
825 1 12.8705 18.1409 -2.9852 11
826 1 6.85409 3.44137 -16.0283 10
827 1 10.6333 -0.752954 -2.12575 22
828 1 -11.4235 9.93304 -5.11197 16
829 1 12.8781 9.05992 3.31692 22
830 1 -13.7608 -7.50432 -2.59558 22
831 1 -9.46132 13.197 -12.3783 5
832 1 6.69567 5.91435 6.36627 18
833 1 -11.0081 -0.0487767 -6.86682 22
834 1 -10.2512 4.97076 7.02765 20
835 1 -7.28687 4.93218 -14.6983 15
836 1 12.7681 -6.53065 -10.934 11
837 1 -9.34656 -7.66438 -7.44976 18
838 1 13.4322 -6.55876 -2.60149 13
839 1 -13.2567 7.08696 -4.11114 11
840 1 -7.98764 -8.14279 -3.23778 22
841 1 11.4992 11.3772 5.68609 19
842 1 -9.0379 -4.37467 3.95089 18
843 1 3.95894 1.32828 14.5515 17
844 1 9.50537 -4.27011 2.15661 19
845 1 13.9216 2.12431 6.09562 15
846 1 -11.0159 3.2994 -0.652077 17
847 1 1.37672 15.712 9.69935 16
848 1 -1.27213 13.8713 -7.63976 19
849 1 0.600749 -2.58249 -14.5686 19
850 1 -3.76152 16.0192 6.39447 19
851 1 -12.8508 -7.08043 5.5112 17
852 1 4.81491 16.8705 -4.80496 23
853 1 -1.07536 7.97415 8.21552 22
854 1 15.9459 0.93916 -8.34798 14
855 1 3.47078 -4.43257 8.68983 22
856 1 -2.98087 16.723 -11.4227 10
857 1 6.1533 12.8296 -11.2238 14
858 1 -6.51243 2.2813 8.72936 22
859 1 14.9456 6.78657 3.51888 15
860 1 -2.74188 0.262543 -9.21867 20
861 1 11.596 13.3832 -0.0736065 22
862 1 -13.0706 4.05458 -3.09908 19
863 1 -2.44517 -11.5404 6.14899 16
864 1 3.55799 14.8707 -10.4119 13
865 1 6.46286 -4.59041 8.64932 21
866 1 -6.37835 -14.8278 -5.16854 13
867 1 -5.36989 17.0327 0.215183 19
868 1 -15.0253 11.8904 -1.92524 9
869 1 9.005 -1.56156 -9.11084 20
870 1 0.707336 -8.261 -14.9959 12
871 1 -8.82216 11.5767 0.845372 18
872 1 10.1606 13.7165 -4.8533 18