ITEM: TIMESTEP
4000
ITEM: NUMBER OF ATOMS
1000
ITEM: BOX BOUNDS pp pp pp
-30.0 30.0
-30.0 30.0
-30.0 30.0
ITEM: ATOMS id type x y z Coordination
1 1 -1.644 -9.25613 -7.75238 21
2 1 7.64207 -7.39911 11.0037 11
3 1 -9.91209 9.77429 -1.03643 11
4 1 -11.1486 2.49607 -5.93111 17
5 1 -1.34183 -8.19164 8.99497 12
6 1 -7.67201 1.57798 -10.6605 11
7 1 -3.34936 -13.1589 2.9482 15
8 1 3.7751 -5.16181 7.42083 18
9 1 2.51309 3.41438 9.93705 16
10 1 -1.08812 9.64328 -7.48559 13
11 1 2.10972 -1.17853 13.8236 12
12 1 -10.4693 -0.705329 1.25523 18
13 1 -0.92093 -2.39272 -8.36526 19
14 1 -0.153294 0.0170564 7.34383 15
15 1 0.630446 5.08136 13.1538 9
16 1 -1.89019 -13.108 5.89137 13
17 1 -12.7016 -2.78253 0.861563 15
18 1 -8.43866 -0.166917 -0.519948 17
19 1 -5.24561 13.4684 -0.633758 15
20 1 -1.52993 1.10608 -10.2104 20
21 1 6.20836 -5.82021 -10.0596 15
22 1 0.599162 -4.66981 8.73306 15
23 1 -12.112 5.83597 -2.3538 16
24 1 -1.51816 13.5843 -0.719945 17
25 1 2.2376 -13.7275 2.32105 11
26 1 5.37533 -8.00946 -3.7335 17
27 1 5.0625 3.97699 5.48347 21
28 1 -8.52437 8.784 -3.80858 15
29 1 2.69504 5.97154 -3.05173 21
30 1 4.97233 6.73824 7.43233 18
31 1 -8.15948 -3.37457 0.746436 23
32 1 8.73354 -2.22971 10.3831 14
33 1 -10.0968 -3.12579 -1.62647 21
34 1 11.852 3.32542 5.51418 13
35 1 8.07516 -2.60046 -3.80873 21
36 1 3.22271 -1.66846 7.35935 18
37 1 -8.99179 -4.7927 2.85902 18
38 1 -3.85833 -6.94232 -7.79666 18
39 1 -6.78856 10.5584 -0.618855 17
40 1 -2.34786 7.01449 -7.25921 18
41 1 5.22752 -0.841001 -5.90817 22
42 1 5.25978 -6.34779 4.22035 20
43 1 5.91488 -10.7133 10.9786 9
44 1 -6.34223 9.17539 5.02593 14
45 1 -8.79744 -4.80155 10.7173 9
46 1 -11.4975 5.71874 6.36899 11
47 1 7.68059 -7.4789 -1.31242 17
48 1 4.91988 -1.47124 -11.7746 15
49 1 -1.04047 14.0494 2.57047 8
50 1 -8.18662 7.76839 -6.6275 11
51 1 1.27209 9.11504 2.47662 15
52 1 -6.89741 -7.83028 9.9141 11
53 1 -1.17369 -5.78045 -8.74621 23
54 1 8.10759 -8.78561 -8.84631 13
55 1 -3.1012 3.22367 9.2608 21
56 1 -9.69823 -8.70668 -2.15623 14
57 1 7.82964 -2.97499 1.90562 21
58 1 -7.03974 -8.80079 -5.01576 14
59 1 8.08339 -8.52848 3.42015 17
60 1 -6.679 5.9669 2.32829 23
61 1 2.18787 4.62327 -5.90906 20
62 1 10.0295 -9.10227 0.214808 9
63 1 -8.44389 -10.0905 0.318894 15
64 1 10.2925 8.23175 6.3189 12
65 1 7.65532 6.90144 -2.29191 16
66 1 -4.04189 10.9889 -1.57884 22
67 1 2.15006 -8.6373 -8.97708 15
68 1 -3.13185 8.96942 -4.72689 21
69 1 9.1435 0.20748 -4.58899 22
70 1 6.76176 1.69277 -12.0353 12
71 1 9.39643 -10.0203 5.44629 13
72 1 -5.4583 4.67792 -6.06713 17
73 1 5.01121 12.4363 -2.76509 11
74 1 10.686 10.112 -0.824609 11
75 1 -3.17901 12.4478 -3.88996 19
76 1 -2.46072 -2.06009 -11.1049 15
77 1 -12.1 -1.81589 -4.28734 14
78 1 -0.780316 9.05232 8.62694 16
79 1 -2.42195 12.9252 -6.67691 9
80 1 4.52017 -2.91001 13.1752 12
81 1 -11.1923 -5.24793 0.730137 18
82 1 -4.49712 -11.2625 5.33355 15
83 1 -0.455816 7.64294 -1.66088 17
84 1 10.8384 8.9188 -6.39464 10
85 1 0.426882 -11.4294 7.52761 13
86 1 -11.1042 3.24304 -0.751491 14
87 1 2.85217 4.28724 7.5453 15
88 1 -2.79299 1.67729 -7.42502 17
89 1 -7.31719 -6.84869 5.47828 16
90 1 -8.10804 -9.0354 3.38601 14
91 1 4.40008 -7.0634 -1.22834 19
92 1 -3.59026 8.26368 3.67664 14
93 1 -8.95873 -0.163983 3.73798 20
94 1 -8.57376 0.261303 -6.01335 19
95 1 -1.50072 -10.555 4.09416 19
96 1 7.68572 4.96177 -6.95211 20
97 1 5.47039 0.616027 13.179 13
98 1 -1.17601 6.58934 -12.056 11
99 1 -8.28172 -0.93057 -8.43501 20
100 1 -6.29644 12.9944 -6.6641 6
101 1 7.09238 0.58281 10.1301 18
102 1 -3.74634 10.4778 -7.47191 13
103 1 4.94419 4.45969 -11.3443 15
104 1 -8.20445 4.50906 7.91364 14
105 1 -5.36701 5.81014 8.52329 19
106 1 6.96173 -8.94072 -6.28961 15
107 1 3.63969 -5.46057 -3.24442 20
108 1 7.99373 9.70399 -7.93764 9
109 1 1.09212 10.7898 -0.173775 19
110 1 -12.6297 1.73272 1.52285 11
111 1 3.86494 6.26021 10.3652 14
112 1 12.0742 1.317 -3.2853 18
113 1 1.82086 7.38638 8.47395 17
114 1 -12.5099 6.39657 3.60987 9
115 1 -8.32514 -5.65389 -6.35989 14
116 1 3.08151 0.375062 10.6601 18
117 1 1.41094 -11.6883 -3.1588 18
118 1 -1.57271 0.113488 -12.6927 12
119 1 8.27327 -0.361249 -7.31821 16
120 1 -12.5623 -2.33705 6.45658 9
121 1 -9.33829 -4.02726 -8.729 10
122 1 -5.74336 -8.97286 0.919906 16
123 1 -2.00079 -8.56124 1.11812 19
124 1 -6.68761 -2.09699 -10.4978 13
125 1 -10.3175 1.12885 -8.57997 11
126 1 7.26223 2.40689 7.53887 22
127 1 6.62506 -3.9547 10.2332 17
128 1 1.43177 -6.41775 5.0563 18
129 1 6.14004 8.78204 1.93704 20
130 1 -6.00901 -5.60644 3.0719 19
131 1 2.3892 12.9319 1.90608 9
132 1 -3.79977 -4.7815 -10.1861 14
133 1 -4.82012 -9.83446 -7.94574 11
134 1 -3.81704 -10.9959 0.590096 20
135 1 13.5103 3.09639 3.15548 11
136 1 -7.74009 -1.91169 10.5386 12
137 1 -3.68385 -14.4741 0.57549 11
138 1 -0.20788 -11.6936 1.75161 22
139 1 2.24746 -11.5463 -0.0384545 18
140 1 -9.52 4.37998 -8.41329 12
141 1 11.4633 5.82824 3.77208 15
142 1 -4.40966 3.173 -9.98909 16
143 1 1.0199 8.52312 -10.1923 10
144 1 -5.59844 -4.03648 6.36709 18
145 1 4.65716 11.0044 8.93584 11
146 1 11.4502 1.69311 2.05904 21
147 1 -11.109 0.328901 6.55626 15
148 1 -3.60061 -6.16772 10.467 10
149 1 -8.33622 10.8135 2.86146 12
150 1 0.809483 -6.56263 -11.7301 11
151 1 3.60323 -11.4714 2.98856 18
152 1 7.78129 -3.43872 -10.0144 17
153 1 -10.763 -2.49166 3.65022 20
154 1 7.92932 -9.76655 -2.60931 13
155 1 -4.90257 8.91201 1.05896 20
156 1 -7.00973 3.16902 4.25069 22
157 1 5.00684 -13.1408 8.74902 8
158 1 -0.831227 8.18513 11.6777 11
159 1 -6.47549 -1.95429 -5.5505 17
160 1 -6.54196 12.5237 4.68057 10
161 1 -7.51637 2.91556 -5.4239 21
162 1 -12.9137 2.97616 4.91323 11
163 1 -3.64319 -3.91892 -6.45878 19
164 1 -7.1978 7.57846 -0.507491 21
165 1 6.436 -0.383629 6.87556 18
166 1 6.61548 -10.0083 8.10228 14
167 1 -1.43598 -2.3073 7.85108 16
168 1 3.4791 -12.2723 -5.63763 11
169 1 -4.96436 -1.31442 -7.84669 17
170 1 -8.81977 -2.89461 -4.10467 19
171 1 -3.17875 -9.64018 -1.81687 16
172 1 13.3065 3.22113 -5.93818 10
173 1 -6.03094 6.24283 -8.63618 12
174 1 -7.32317 6.18286 5.56651 16
175 1 -9.24952 7.99001 1.36468 15
176 1 -6.50058 3.53711 10.3045 17
177 1 10.002 -4.75509 -5.5668 12
178 1 10.9813 -1.64325 -4.86845 13
179 1 -3.45733 7.69494 -1.46536 21
180 1 0.483321 -10.2441 -6.15149 22
181 1 -1.04572 10.1325 6.1156 13
182 1 -9.84713 0.428634 -3.6126 21
183 1 7.42273 -10.4504 0.60515 13
184 1 9.75302 1.23843 7.73077 17
185 1 -11.463 -4.8133 -5.78967 10
186 1 -6.05945 -11.5888 2.43987 15
187 1 -2.1678 11.2394 0.77744 17
188 1 -11.5321 8.32556 -4.38009 8
189 1 -1.60612 -6.77713 -6.05373 18
190 1 3.14858 -11.2181 7.31867 18
191 1 -3.79632 -14.0121 -2.63226 10
192 1 -9.61677 5.7143 -5.02835 19
193 1 -1.00297 -14.5183 2.9474 12
194 1 -3.63583 0.179314 7.3461 19
195 1 -9.72191 2.57412 5.07949 22
196 1 0.867893 -7.36636 -6.46092 17
197 1 -12.5503 0.198769 3.83768 15
198 1 -2.66904 -5.31344 7.81099 16
199 1 -4.19726 -2.69456 9.69296 17
200 1 1.99544 -9.16075 -2.33079 17
201 1 7.36976 -12.1846 3.66193 11
202 1 3.08671 10.6341 -5.33011 14
203 1 -6.50288 -9.44309 6.64765 11
204 1 9.28776 -5.4346 8.94842 13
205 1 7.95674 4.18511 -0.728374 20
206 1 3.84647 0.103396 -8.54146 19
207 1 6.65703 -5.71694 7.3738 18
208 1 -1.44776 2.59356 12.1772 16
209 1 1.61688 13.6056 -1.49904 11
210 1 6.11671 -3.49528 5.13738 21
211 1 0.188066 -13.4727 -5.33817 12
212 1 7.42763 4.82092 8.28667 18
213 1 -8.45703 1.01897 9.48073 14
214 1 -4.11845 -8.63453 -5.00376 20
215 1 -6.98679 -7.27293 -8.17554 9
216 1 -4.02941 8.91973 7.64547 12
217 1 -2.21218 -12.1553 -6.93575 14
218 1 -7.35223 -2.76975 4.0557 21
219 1 9.26597 2.67941 5.20136 19
220 1 10.5613 4.36653 -1.75631 23
221 1 1.4398 3.24445 -8.64565 23
222 1 0.449923 6.71751 -7.92933 20
223 1 1.76748 9.69104 10.152 13
224 1 -13.255 -4.22761 -2.18678 12
225 1 5.91226 10.9603 -5.28961 13
226 1 -6.34371 -3.96035 -8.37321 17
227 1 -0.162563 -3.4718 -11.6509 16
228 1 12.0622 8.96921 -3.88519 12
229 1 3.93339 10.6734 0.386622 17
230 1 4.73039 3.27308 -8.23753 22
231 1 1.53258 -9.73071 4.14958 18
232 1 -4.50076 6.16501 -11.4187 9
233 1 13.1817 7.99589 -1.18592 10
234 1 6.35619 -3.77507 -0.899773 25
235 1 0.854415 2.39003 -11.6149 16
236 1 1.63506 -8.64617 1.20194 20
237 1 2.48199 -10.4902 10.4913 9
238 1 -6.65531 2.76343 -8.24711 16
239 1 3.17654 2.8233 -13.129 10
240 1 -13.7944 -6.11556 0.752676 11
241 1 11.9139 -0.893298 -1.78505 14
242 1 -5.67932 7.58049 -5.48418 18
243 1 4.15003 -6.88268 -6.71015 15
244 1 4.48523 1.07917 -10.8437 19
245 1 8.95672 -6.01172 -8.49022 13
246 1 -11.3074 -3.63125 9.61083 7
247 1 -3.60503 14.8199 2.12934 9
248 1 0.341657 8.18787 -5.12643 19
249 1 14.0781 4.71776 -2.52701 12
250 1 -0.495284 -10.2446 -1.20559 22
251 1 2.83667 -5.88559 -9.13797 19
252 1 12.3358 -3.935 0.0230933 11
253 1 4.48718 -8.44154 2.72447 17
254 1 -10.2672 2.89357 7.72067 12
255 1 -3.38695 -5.64989 -3.50459 18
256 1 1.23996 -1.72034 10.2964 19
257 1 6.31569 7.43071 -10.5685 11
258 1 -5.78172 10.3926 -4.77 18
259 1 -0.545693 14.0478 -3.86417 10
260 1 -0.621692 2.88108 8.28451 15
261 1 4.76203 -10.5594 -2.05723 15
262 1 3.4848 -3.61045 -6.06478 20
263 1 -12.2492 -7.25138 -1.18769 12
264 1 -9.82499 3.30034 -3.46326 19
265 1 -9.09955 -6.60469 8.30626 12
266 1 3.58369 7.95651 -0.440212 19
267 1 6.67917 -11.468 -7.78939 9
268 1 4.99164 -5.39339 12.2398 13
269 1 6.26268 0.396573 -3.53689 22
270 1 -12.3835 7.88581 0.620344 8
271 1 10.0793 -5.71744 -2.67948 14
272 1 3.64844 9.06625 11.2159 10
273 1 0.613115 0.353838 -8.66148 21
274 1 8.17508 4.63363 -10.5448 12
275 1 -2.4024 -7.98351 -10.7114 13
276 1 -1.85289 -11.554 -3.9506 21
277 1 12.9578 2.30648 -0.628652 15
278 1 8.97227 -6.25438 -11.263 8
279 1 6.75146 -12.1631 -5.05581 9
280 1 7.95814 12.0267 -2.04738 11
281 1 -8.61982 2.58416 1.50368 19
282 1 12.3986 5.87194 -4.17344 13
283 1 3.30466 -4.16142 10.3941 21
284 1 11.7095 1.75894 9.84278 9
285 1 -5.4526 0.753837 -6.32497 22
286 1 13.1039 5.06708 0.514936 13
287 1 10.582 -3.34728 4.31796 15
288 1 6.71149 8.17077 10.0458 13
289 1 6.34122 1.8863 4.45777 20
290 1 -6.69017 12.5081 -2.941 10
291 1 0.157498 -13.6784 -8.80782 8
292 1 -3.59633 8.23447 -10.2737 8
293 1 -4.92584 0.779692 -11.2614 14
294 1 -12.797 2.92518 -3.7764 15
295 1 9.64105 -6.64939 5.52842 15
296 1 1.06317 -8.40006 6.91159 16
297 1 10.6736 4.60491 -8.10625 12
298 1 12.2607 -1.79604 2.63791 13
299 1 8.79589 9.68902 1.40652 15
300 1 13.0871 -5.51492 2.77082 9
301 1 -3.67474 5.42628 12.052 17
302 1 -11.1377 -8.67848 1.37584 14
303 1 -11.1361 -1.86401 -6.60505 16
304 1 9.22607 0.271856 12.0847 12
305 1 -5.31853 11.6834 1.87943 16
306 1 9.38331 4.82297 2.66216 21
307 1 8.80791 7.85407 3.74317 18
308 1 -9.78274 -1.40454 8.32935 16
309 1 6.96012 -0.89979 -9.73688 16
310 1 0.0349254 -3.89723 -5.95617 21
311 1 8.93909 3.2582 10.5386 16
312 1 7.68517 8.96397 7.63943 14
313 1 1.37333 -4.2579 12.7217 12
314 1 0.94132 2.58841 14.9001 8
315 1 -4.79702 2.96062 12.4183 10
316 1 -3.63914 5.77992 -3.50938 21
317 1 6.63561 9.16445 -0.787198 20
318 1 3.15396 13.8131 -4.45709 7
319 1 -7.89678 -11.0656 -2.64707 13
320 1 6.66089 5.39156 2.52007 19
321 1 -4.72907 5.67485 5.4089 17
322 1 -8.74603 4.99679 -0.782604 16
323 1 7.46859 7.90061 -5.7558 21
324 1 4.54108 1.06117 7.82261 21
325 1 8.08001 10.4053 4.97381 12
326 1 1.7239 -3.03888 -8.62649 19
327 1 -0.333351 5.50086 10.1775 19
328 1 6.90486 -5.65021 -3.74581 20
329 1 4.82422 10.7113 3.62985 16
330 1 -12.3264 -4.45871 3.3174 14
331 1 5.43765 -12.5884 0.599823 11
332 1 9.82479 6.4564 -4.64436 16
333 1 4.4603 -7.93598 6.55178 18
334 1 -0.281614 7.90765 4.20412 17
335 1 3.00068 -3.91023 -11.9103 14
336 1 6.12368 -4.05733 -6.34742 17
337 1 -4.07506 11.3248 6.16235 12
338 1 1.92061 -6.95283 9.92204 17
339 1 -5.08403 -11.6818 -5.0101 14
340 1 -5.60362 3.02883 7.09375 19
341 1 9.72361 -0.506762 1.30851 19
342 1 1.87695 9.16486 -2.84971 18
343 1 8.37944 2.25882 -8.6772 16
344 1 10.4297 3.52869 -5.05699 18
345 1 3.52313 6.38917 -8.89506 18
346 1 -1.68133 0.119856 10.0554 16
347 1 -6.05362 -5.10484 10.3623 12
348 1 4.89266 -8.87759 -8.8766 15
349 1 -5.67228 8.56272 -2.59563 23
350 1 8.1866 5.25639 5.70031 20
351 1 -8.53719 -3.56509 6.24644 16
352 1 8.96255 7.1973 -8.70986 13
353 1 0.94331 0.89489 12.2025 15
354 1 -9.61044 -5.92692 -3.2856 17
355 1 8.33391 -0.84879 -1.43229 19
356 1 -5.30702 -6.20413 -0.686019 18
357 1 8.69357 -5.02434 3.47988 18
358 1 6.25103 -9.94243 4.96404 17
359 1 2.08949 9.84137 6.3907 13
360 1 -7.01054 5.91601 11.6015 8
361 1 8.13362 2.0602 2.07511 19
362 1 11.9834 -6.53815 -0.217159 11
363 1 3.44323 7.92162 4.2146 16
364 1 -2.87542 13.5078 5.31304 8
365 1 1.30251 -12.7192 4.85131 17
366 1 -7.23213 -4.50748 -2.36248 14
367 1 3.41939 3.53737 12.8858 14
368 1 6.25529 12.1923 0.836516 11
369 1 8.61771 -3.34522 6.93705 18
370 1 9.27032 -8.15345 8.40065 11
371 1 9.95701 6.75117 9.65675 10
372 1 -1.13451 10.4479 -2.41563 20
373 1 0.0225948 -10.3722 -9.83179 14
374 1 -1.81731 3.55763 -11.8549 16
375 1 -4.96644 0.280623 10.4385 15
376 1 11.4276 0.451849 4.79949 13
377 1 3.04822 7.51775 -5.89265 22
378 1 6.54739 -3.6182 -12.6463 9
379 1 -6.86109 -13.0665 -0.46834 10
380 1 -6.69314 -0.0468099 -3.322 24
381 1 4.70915 -2.91587 -8.825 23
382 1 -0.874585 -8.8306 -3.91894 18
383 1 2.70463 -7.81914 12.6312 9
384 1 -1.3122 -7.29842 4.54904 18
385 1 11.185 0.926786 -6.81447 14
386 1 -9.27367 8.14348 4.49276 12
387 1 9.19475 -4.07741 -0.22638 19
388 1 -11.8796 0.358521 -1.1563 16
389 1 11.7344 7.63845 1.72551 13
390 1 5.61023 3.03807 10.9229 17
391 1 -14.3727 0.215293 -5.73208 7
392 1 -1.23722 4.02786 -9.09828 21
393 1 10.4788 -7.84399 2.74255 13
394 1 -6.71098 -8.29991 -2.17694 18
395 1 -4.40009 -7.79561 8.02998 18
396 1 8.13313 -1.4878 4.29295 20
397 1 -13.4774 5.05835 0.369232 9
398 1 5.2076 8.52163 -7.4255 15
399 1 4.45408 -7.72443 9.93 20
400 1 -6.53083 -1.34265 7.95249 18
401 1 -2.2608 -5.71792 -12.5644 10
402 1 -4.72757 -10.63 8.7832 9
403 1 4.91647 -1.53156 10.3541 19
404 1 -1.26235 -13.1136 -0.842816 15
405 1 9.59801 -2.87342 -7.65488 12
406 1 -9.18783 5.28375 3.25593 17
407 1 -7.39783 0.607997 5.87331 21
408 1 2.60043 -11.6726 -8.568 12
409 1 9.11589 7.29181 0.113627 20
410 1 9.78274 1.51076 -1.00919 23
411 1 -2.28058 -9.51411 6.67388 21
412 1 8.97738 10.2028 -3.9964 17
413 1 6.45789 1.83134 -6.40582 20
414 1 -11.9264 5.79475 -6.07056 11
415 1 4.95818 5.21396 -5.75387 19
416 1 5.09366 9.81483 6.57489 14
417 1 4.82502 8.2959 -3.35248 23
418 1 -4.12844 7.98688 10.8566 9
419 1 7.68269 3.10791 -3.65143 21
420 1 4.75239 -13.0231 4.98676 12
421 1 10.0451 4.62827 8.02485 18
422 1 9.53828 -7.63776 -5.43979 12
423 1 -2.12048 4.69326 -5.96391 18
424 1 -1.5602 6.0184 7.56146 16
425 1 -1.43069 8.43623 1.50358 19
426 1 -4.01509 -6.50458 5.39968 16
427 1 6.2753 -5.618 1.4096 18
428 1 1.50549 -0.79925 -12.2332 13
429 1 -8.31944 -7.02456 0.0505767 23
430 1 -6.83629 5.71334 -3.47809 25
431 1 11.05 -1.72073 9.36697 8
432 1 -9.96015 -7.35505 4.59684 12
433 1 13.309 -0.36315 0.436959 12
434 1 1.21087 5.10323 -10.617 17
435 2 -12.9963 -1.07321 -5.92504 9
436 2 -6.64921 12.6563 -4.77431 9
437 2 -0.395646 -1.36708 -12.3515 13
438 2 -2.55245 7.37401 11.4176 11
439 2 -7.98921 -2.77712 -8.98409 15
440 2 1.40386 0.578607 14.185 11
441 2 -10.9103 -0.585157 3.24376 17
442 2 10.6111 6.25056 2.1095 17
443 2 -7.81187 -5.36227 -8.09479 11
444 2 -9.96262 0.530275 -1.80933 18
445 2 -1.69631 -8.69836 3.05234 19
446 2 7.21025 2.61117 9.68997 20
447 2 6.73217 -2.24133 -11.2515 14
448 2 6.464 -0.0931494 3.94224 22
449 2 -7.31941 12.5032 -1.14567 12
450 2 12.779 4.3868 4.31064 11
451 2 -9.3888 -6.38457 6.43445 12
452 2 -2.25817 -14.5957 1.67046 10
453 2 9.13123 -6.95979 9.97925 10
454 2 -8.54663 6.02769 1.07328 17
455 2 -7.19147 7.52523 -3.20394 21
456 2 -5.06203 7.55284 4.8053 17
457 2 5.30467 -6.32758 -2.7087 18
458 2 -1.76387 -0.821854 -9.52604 21
459 2 2.40901 -7.26585 -7.5127 15
460 2 8.23274 -1.98249 -8.60625 14
461 2 10.7357 10.3576 -4.82515 9
462 2 -6.68386 10.8689 3.96599 14
463 2 -3.1372 -10.5012 -7.51638 19
464 2 4.11073 -11.2032 11.2339 9
465 2 8.94931 -2.95706 3.36387 18
466 2 -12.1901 2.60891 -1.97852 16
467 2 7.52411 7.46375 1.31259 20
468 2 5.23652 -11.3957 4.08719 16
469 2 2.67349 4.1417 5.78126 16
470 2 4.89202 8.71343 3.31341 18
471 2 3.91959 6.82916 -4.30421 20
472 2 -8.54767 2.70972 8.68216 17
473 2 5.008 -0.604462 -9.76299 19
474 2 -9.83707 -0.253202 -7.33134 16
475 2 -12.4489 -0.535518 5.57789 14
476 2 -9.75951 -8.89852 -0.233267 17
477 2 0.45977 -8.13173 4.55562 18
478 2 1.04773 -3.61097 10.9852 14
479 2 0.0571987 9.34761 10.6931 12
480 2 -8.65125 0.157742 1.65346 19
481 2 8.69209 -7.90504 -7.12728 13
482 2 11.2188 -0.405128 -3.54268 17
483 2 -2.544 -11.3674 -0.894216 19
484 2 6.88005 6.74061 8.32214 19
485 2 7.47627 -8.37607 -4.02272 18
486 2 6.81079 -1.849 10.2154 16
487 2 -7.84234 -6.36287 3.6463 19
488 2 13.3234 0.443546 -1.40262 12
489 2 -2.24038 -10.9529 2.04935 21
490 2 8.67059 -4.64056 1.60072 16
491 2 -3.08424 -5.05146 -8.55236 19
492 2 -7.07055 -3.49404 2.29325 19
493 2 -4.03067 -9.23083 0.0317523 20
494 2 -7.16497 -8.72897 -0.087182 17
495 2 -7.17225 11.0553 1.30849 17
496 2 2.15961 -0.636205 -8.05315 21
497 2 9.13302 5.78533 -1.10372 16
498 2 4.5704 7.69624 -9.67846 10
499 2 -5.48903 4.56179 11.6535 12
500 2 -12.6217 6.60275 -0.782327 10
501 2 -3.08772 3.3301 11.5138 16
502 2 -12.5051 4.96973 5.12346 10
503 2 -5.25499 5.00167 -4.1891 21
504 2 9.92818 -0.783103 -6.22749 16
505 2 11.9922 -6.8753 3.26586 10
506 2 8.22583 3.9634 1.32107 20
507 2 0.832978 13.6434 2.54987 7
508 2 -6.15202 5.12919 6.66142 19
509 2 12.0233 9.30373 -1.95628 10
510 2 0.355835 9.70897 -1.61664 16
511 2 1.40341 9.90181 -4.67508 15
512 2 -0.263818 7.10859 8.82676 15
513 2 3.3039 -2.13979 9.382 19
514 2 3.38616 -4.07351 -8.7323 20
515 2 -0.32139 3.31879 13.4397 12
516 2 4.18606 4.56451 -9.72819 18
517 2 -8.16539 -6.45605 10.0424 10
518 2 0.793692 -9.77177 -3.61514 19
519 2 -0.157208 -5.6528 -6.96476 20
520 2 6.95982 -12.0941 1.75194 10
521 2 11.5056 7.52087 -5.09289 13
522 2 -5.25693 7.2213 -9.97198 10
523 2 -4.75887 12.8929 5.34273 10
524 2 -6.90279 -6.45521 -1.43137 16
525 2 7.34375 8.14648 -9.09646 14
526 2 -0.13381 13.984 -1.96868 12
527 2 -0.281313 6.08901 11.9807 14
528 2 5.26792 -12.5657 -6.45619 10
529 2 4.14454 4.43198 10.9652 14
530 2 7.99616 -2.80698 -0.893666 18
531 2 7.70115 5.9928 4.02502 18
532 2 -2.81982 6.87911 -11.4757 10
533 2 5.27181 -6.97467 8.25241 17
534 2 -0.0895336 -12.8311 6.31733 14
535 2 8.44544 -9.57232 7.12192 13
536 2 -4.64057 9.39448 -6.01795 19
537 2 -3.44352 -12.7828 -4.27922 14
538 2 -2.03747 -2.71887 -6.76993 20
539 2 0.965718 -12.0971 -9.42309 10
540 2 8.67737 7.98382 9.81653 11
541 2 -10.7916 -7.1314 -2.24957 14
542 2 -12.4246 3.42144 0.60194 13
543 2 9.70954 -2.78042 8.42188 12
544 2 -2.60815 -14.2501 -1.19156 11
545 2 1.62881 -3.23341 -6.54369 19
546 2 -3.14496 -0.0354608 -11.5198 12
547 2 -8.16808 -0.222259 -10.165 12
548 2 -3.53376 -0.91272 9.48779 15
549 2 -3.36998 -6.04062 -6.15626 16
550 2 4.73235 -5.17147 -5.94063 19
551 2 4.60955 1.11104 -6.86447 23
552 2 -7.09994 -4.88442 5.83783 20
553 2 0.153614 -3.18206 -9.66747 21
554 2 -1.68841 -6.7209 -4.08542 20
555 2 1.69559 5.60485 -8.86898 22
556 2 6.25712 9.94236 8.49204 15
557 2 12.4538 1.91247 3.83942 12
558 2 -12.2903 -3.17642 4.79786 12
559 2 -2.34612 -11.1682 5.59997 16
560 2 0.0868465 2.12685 -9.61537 21
561 2 -2.92676 5.27967 6.06384 18
562 2 -5.34195 -6.349 1.45996 16
563 2 -7.48075 5.24164 3.9572 20
564 2 -10.2314 -5.19347 9.21808 9
565 2 -1.84812 -13.3952 4.15369 14
566 2 -10.8517 -3.66142 2.07125 18
567 2 -7.88551 -11.3699 -0.823208 14
568 2 -8.27351 -2.09028 7.33352 20
569 2 6.7323 -5.84615 11.4459 12
570 2 6.58491 9.45941 -6.41096 15
571 2 6.18396 12.337 -1.07818 11
572 2 11.9552 3.85006 -7.19971 11
573 2 -1.85182 13.1854 -4.90993 10
574 2 -10.5406 -3.77688 -7.27241 14
575 2 -12.0292 -0.604218 -2.94268 16
576 2 2.03962 -12.83 -4.57928 11
577 2 5.34849 -9.50604 6.64144 17
578 2 9.54817 -6.62228 7.2744 11
579 2 -5.83737 10.6442 -2.64873 22
580 2 7.98403 2.43061 -1.70501 22
581 2 4.78317 -3.7062 11.3112 15
582 2 2.62747 6.38769 3.57548 17
583 2 4.29992 7.87813 6.11895 16
584 2 1.85193 -0.852421 11.8681 17
585 2 -8.93718 3.24718 3.33738 18
586 2 4.11036 9.24993 -5.9716 14
587 2 -5.33706 -8.04628 -8.03088 14
588 2 -6.81528 -0.507844 -7.02346 21
589 2 -9.67306 -2.81704 10.4309 10
590 2 6.34287 8.43625 -2.41228 17
591 2 11.2099 2.43193 -1.83925 20
592 2 9.73121 -8.38208 4.64775 13
593 2 -11.5897 -3.4664 -0.600184 18
594 2 -0.45344 10.2008 1.0381 18
595 2 -3.84789 5.72532 -6.56144 19
596 2 3.16672 1.89788 -9.12723 19
597 2 -8.99065 3.20459 -0.20261 15
598 2 -11.2725 -6.05366 3.72123 16
599 2 8.61204 -9.53784 -0.985049 10
600 2 1.95339 -8.59365 -0.607948 16
601 2 -6.15794 7.67052 1.95556 21
602 2 -11.3744 4.17862 -4.80386 14
603 2 2.81169 -9.47991 2.66016 17
604 2 8.99554 5.02757 9.73467 13
605 2 2.07189 0.955061 -12.172 15
606 2 0.211715 8.68981 -8.29515 14
607 2 7.54569 2.90101 -10.9223 13
608 2 -1.89863 11.7904 -1.14609 17
609 2 -6.95866 -0.432923 9.66322 16
610 2 -5.38243 -3.17062 8.02562 17
611 2 -4.2785 -5.67449 3.86581 19
612 2 -12.7718 -4.06142 -4.09199 14
613 2 -3.68803 -4.75923 6.46912 18
614 2 1.48685 2.89375 -6.61279 21
615 2 7.14278 0.144318 -5.74661 19
616 2 4.99728 2.39026 12.463 13
617 2 2.83494 -1.95395 -11.7565 18
618 2 6.49036 5.2807 -1.52493 17
619 2 8.73387 9.13641 6.14286 14
620 2 -9.2993 -5.38499 0.95624 19
621 2 -4.56487 12.466 -7.11039 9
622 2 3.25319 5.97423 8.24914 16
623 2 3.21992 -12.4998 1.30389 14
624 2 -3.02495 -9.57905 8.58372 15
625 2 4.76885 0.434843 9.99337 20
626 2 8.98556 5.25474 -8.83803 15
627 2 1.9812 12.4041 0.0254843 12
628 2 4.4793 -12.7685 7.02577 12
629 2 6.52332 -11.0799 -3.39243 13
630 2 1.86918 4.08541 -12.1455 16
631 2 2.51684 2.05029 11.6107 19
632 2 3.61947 2.60332 8.34805 18
633 2 5.42762 -5.38273 5.89146 16
634 2 -1.19456 1.7548 -12.2383 16
635 2 9.49269 -4.57032 -7.37236 14
636 2 -8.31004 9.04848 -0.472381 19
637 2 4.86933 -6.81918 -9.11658 16
638 2 1.93777 4.05885 14.1538 10
639 2 -9.62747 7.92974 -5.24738 14
640 2 10.7172 -5.13599 -0.99322 12
641 2 4.57918 11.7084 1.83812 12
642 2 12.7513 6.77614 0.119156 14
643 2 12.6175 3.12555 1.3404 17
644 2 -8.08403 -0.97187 -4.51688 19
645 2 -7.17857 5.84156 -1.34405 19
646 2 -5.59041 2.63076 -6.46108 18
647 2 13.3136 6.60649 -2.54928 12
648 2 -10.3976 9.10485 -2.9021 10
649 2 -2.68514 -7.68073 5.8142 18
650 2 4.79288 -1.17389 13.311 13
651 2 2.2199 -11.1849 -6.52569 16
652 2 -0.886223 -7.127 -11.9021 12
653 2 3.36933 13.4501 -2.44017 8
654 2 7.26734 10.3529 0.480317 16
655 2 -5.34256 -3.09613 -6.97614 22
656 2 -6.8074 -11.7068 -4.42272 9
657 2 8.07121 -0.976335 1.83085 20
658 2 -5.20935 8.89879 -0.762476 18
659 2 2.98844 -13.546 4.29429 12
660 2 6.86162 -5.18208 3.55651 19
661 2 -5.60712 -7.56474 6.29126 20
662 2 -5.27416 -8.91279 -3.4615 16
663 2 5.13858 7.96597 10.9552 13
664 2 0.980837 7.55887 -3.04543 20
665 2 -10.4684 6.57656 4.0209 14
666 2 -2.71044 -6.80199 8.92678 16
667 2 -2.38116 14.0318 0.921058 13
668 2 0.425307 -10.8563 0.088547 19
669 2 0.278355 -7.12683 8.49067 14
670 2 10.3462 1.78283 11.3794 11
671 2 -12.9589 6.31753 1.86262 8
672 2 -2.19823 8.91048 -1.72493 21
673 2 0.893351 3.86098 9.2355 18
674 2 -2.01561 -7.63858 -8.72981 19
675 2 12.4731 -2.04949 -0.222089 13
676 2 8.30285 -5.66751 -2.13069 16
677 2 -4.31195 12.946 -2.1149 17
678 2 -5.54468 1.99086 11.0544 11
679 2 -9.43855 2.0067 -5.12048 18
680 2 10.1117 -6.22666 -4.50485 10
681 2 4.96871 9.14354 0.400225 16
682 2 -1.74687 4.49199 8.78957 16
683 2 -0.34633 -1.2133 9.18588 15
684 2 0.602594 7.33317 -11.5714 9
685 2 -12.8858 1.70011 -5.37257 12
686 2 -5.41795 -0.530627 -9.73356 19
687 2 1.24437 6.71684 -6.06955 21
688 2 -5.95984 1.95049 -9.94804 15
689 2 7.70146 -7.15797 -9.69779 14
690 2 -1.58151 -8.55468 -1.13975 21
691 2 -0.372519 -9.39376 7.57662 18
692 2 3.24972 -3.45738 6.50519 18
693 2 6.49569 -4.23052 -8.6546 16
694 2 0.428726 -13.8539 2.13249 14
695 2 10.3673 6.61633 7.72286 13
696 2 -4.91699 9.82388 6.26679 14
697 2 -12.4383 -7.53363 0.780027 12
698 2 10.6629 4.8313 -3.62503 19
699 2 2.39741 -11.1404 5.44741 19
700 2 -8.811 8.99021 2.94875 14
701 2 6.09771 2.35307 -4.52728 22
702 2 6.0716 5.0321 6.64082 16
703 2 -13.0582 2.08556 3.22117 10
704 2 4.32189 6.66342 -7.0073 19
705 2 4.73709 -3.87234 -12.2339 11
706 2 -4.38938 1.58922 6.4095 18
707 2 -0.815092 0.943779 11.4669 14
708 2 10.4237 1.50718 6.01312 14
709 2 5.65375 0.209367 -12.3162 13
710 2 -7.0195 -3.18531 -3.73812 18
711 2 9.80899 -3.14096 -4.59465 14
712 2 0.182906 7.57383 2.31576 16
713 2 0.430467 -9.58193 -8.10638 17
714 2 -11.4179 2.33896 6.15897 14
715 2 -9.12396 -3.02539 4.36737 19
716 2 5.48714 -10.7721 -0.285547 15
717 2 -0.658564 -8.57396 -5.83761 19
718 2 -0.395929 -12.0803 -2.39903 20
719 2 10.1144 -0.572546 -0.799846 20
720 2 -2.65195 8.65934 -8.70246 14
721 2 6.12959 10.7605 4.89441 13
722 2 -0.596279 -13.4853 -7.16195 11
723 2 4.69164 -0.574894 6.56826 20
724 2 -2.22837 9.47361 7.41168 11
725 2 -7.02529 8.99775 -5.3617 14
726 2 3.52519 -10.1238 -8.95173 15
727 2 -5.03598 -10.974 7.04574 12
728 2 -10.6741 8.74675 0.316161 10
729 2 9.45638 8.59683 -7.48841 13
730 2 -1.36414 5.62992 -8.0452 16
731 2 6.66264 6.07739 -5.82172 20
732 2 -5.37875 -3.75728 -10.1533 12
733 2 5.44799 -7.80607 -5.75539 16
734 2 -10.4016 -2.27888 -4.84031 16
735 2 8.46776 3.69336 6.82353 22
736 2 -2.6854 2.54484 -9.35791 17
737 2 -9.93968 -8.78575 3.10749 11
738 2 5.77758 1.84801 6.30395 19
739 2 10.5064 2.66538 8.78679 15
740 2 10.0248 1.78303 -7.93713 16
741 2 -1.6197 8.4513 -5.85895 19
742 2 -3.05787 10.6433 -3.8079 18
743 2 12.4636 -3.61492 2.41574 12
744 2 -6.6986 1.78532 -3.82633 21
745 2 7.09428 11.3844 -3.66368 13
746 2 2.70205 -3.31823 13.4296 11
747 2 -3.87442 -6.32359 -11.3873 10
748 2 7.30806 0.718793 12.1454 15
749 2 -1.93827 8.76753 4.20656 15
750 2 11.1533 -7.84594 0.945484 9
751 2 10.2642 -6.23512 -9.74517 8
752 2 0.762861 9.35809 7.53274 12
753 2 6.35323 -9.00168 10.2406 14
754 2 -4.21499 7.674 -3.56944 20
755 2 3.55158 10.7339 7.20224 12
756 2 -8.2441 4.40632 -4.31433 19
757 2 1.31375 13.9415 -4.61805 8
758 2 -7.43487 -7.21787 -6.07183 12
759 2 1.11243 -4.66124 -12.2236 14
760 2 -7.22545 2.44648 6.18707 21
761 2 11.7806 0.0306961 1.57223 18
762 2 -1.75902 11.3195 -7.26447 12
763 2 -9.97387 0.671451 8.10403 15
764 2 -5.21356 -9.90369 -5.99348 14
765 2 3.67532 10.6068 10.3946 9
766 2 -1.4872 -9.71938 -10.8138 8
767 2 -10.1987 5.35131 -6.85411 15
768 2 3.94578 3.82223 -6.41517 23
769 2 -3.61872 4.30093 -11.3782 14
770 2 -7.69011 8.13927 5.44603 15
771 2 -4.48631 7.57962 8.92289 14
772 2 4.16594 11.845 -4.53445 13
773 2 -5.44806 -13.5072 -1.67143 12
774 2 7.62395 0.692213 -9.1447 18
775 2 4.86236 -2.462 -6.7901 21
776 2 -7.01981 -10.1865 1.87315 15
777 2 -10.3496 4.67072 -2.15193 16
778 2 -7.20584 -9.56544 4.77811 13
779 2 -0.702642 4.75891 -11.0672 17
780 2 2.76897 -7.33721 6.24368 18
781 2 7.94335 0.648051 8.19804 21
782 2 2.91662 -5.65014 3.86832 22
783 2 -5.22291 -0.863707 6.5735 21
784 2 6.63699 5.68356 -11.0348 12
785 2 2.51396 7.90028 10.168 17
786 2 -8.10614 -9.01067 -3.27273 15
787 2 -6.13721 -9.24114 8.58783 11
788 2 -9.35548 0.680556 5.50506 20
789 2 -6.78662 6.35564 -6.80774 20
790 2 -9.668 -5.53986 -5.17088 14
791 2 -4.86883 13.5028 1.52146 12
792 2 7.60367 -4.27923 8.39039 15
793 2 10.4776 7.16338 4.83515 13
794 2 -4.87803 -12.6531 1.13404 15
795 2 -13.2261 -4.48193 1.36995 13
796 2 -12.2969 -0.302795 0.719607 15
797 2 -2.19154 1.5693 8.73451 17
798 2 1.87726 -6.00325 11.8824 14
799 2 0.320076 -11.091 3.50283 21
800 2 9.4026 1.46619 0.839906 19
801 2 3.77124 -8.72594 -2.81022 17
802 2 -3.27637 7.5756 1.86231 20
803 2 -3.71207 0.0765713 -7.03171 20
804 2 -7.02061 -0.63551 3.94317 20
805 2 3.12262 -5.72411 9.10745 19
806 2 -4.20536 -4.42181 10.352 10
807 2 4.25861 -6.98486 11.9268 13
808 2 6.99028 3.39136 -7.81841 20
809 2 10.1411 4.32154 4.54847 20
810 2 7.70091 -4.80074 -11.5179 10
811 2 7.53742 -1.75495 6.17976 14
812 2 13.4944 4.22366 -4.32449 13
813 2 6.32486 -3.82595 -4.13456 18
814 2 -2.16764 11.6206 6.00215 10
815 2 11.2254 -1.4696 4.25487 12
816 2 -5.17009 -7.18438 10.3105 10
817 2 2.83522 -8.61217 10.6288 13
818 2 -6.77122 -3.37195 10.7314 11
819 2 2.92467 -11.0681 -1.72449 15
820 2 4.63368 -6.82331 1.909 16
821 2 9.29387 -4.38745 5.31346 17
822 2 1.903 -11.0802 8.61907 11
823 2 6.01936 -3.78583 0.926655 21
824 2 -9.84811 4.62986 6.93255 15
825 2 -4.85101 3.83051 8.94753 21
826 2 9.58742 4.92505 -6.05107 20
827 2 2.04904 -7.07171 -10.3403 14
828 2 6.48294 -9.8266 -8.86675 11
829 2 4.85413 2.62159 -12.0879 13
830 2 -5.89019 4.39253 -8.98933 15
831 2 8.80726 9.80672 3.32316 12
832 2 -9.0929 -4.32516 -2.58653 16
833 2 14.0437 3.86107 -0.928625 11
834 2 -8.93428 -2.10772 -0.608112 19
835 2 6.21978 -8.15272 3.93859 16
836 2 3.47388 8.7742 -2.12965 19
837 2 11.9213 1.96089 -5.2104 15
838 2 8.5522 7.79393 -3.9959 19
839 2 6.15222 -11.5571 9.15858 9
840 2 -13.5571 -5.79202 -1.19741 10
841 2 11.4629 -0.109492 8.98568 11
842 2 7.99065 -10.5015 4.27179 13
843 2 10.2848 8.98774 0.743025 15
844 2 -7.5242 5.31681 9.6716 12
845 2 -12.5463 6.48676 -4.1882 11
846 2 8.1324 -0.706437 -3.30761 20
847 2 8.52311 -9.06447 1.76376 14
848 2 -0.792646 -11.7053 -5.69282 18
849 2 2.51095 9.31527 0.86444 20
850 2 13.2214 -5.77101 0.687463 8
851 2 1.51037 9.12475 4.44409 15
852 2 -4.93912 -12.2257 3.7565 13
853 2 -0.826622 -4.08992 7.89225 11
854 2 -5.66316 7.16678 11.5169 9
855 2 -2.06289 -3.92771 -11.5072 15
856 2 -10.7298 2.71991 -7.72906 12
857 2 -11.4345 -2.61807 8.0836 11
858 2 10.0841 -1.20229 10.9844 11
859 2 -8.71334 2.83866 -9.37062 11
860 2 8.0401 2.18469 3.94625 24
861 2 9.13357 2.07598 -4.6318 22
862 2 -1.50081 3.03709 -6.67859 17
863 2 9.28877 10.7917 -2.04219 14
864 2 -2.54671 -9.66769 -3.96057 21
865 2 -4.07787 10.8593 0.640391 19
866 2 -2.43863 14.2909 3.67129 8
867 2 6.14589 -6.87009 -0.241962 19
868 2 7.2723 -10.6903 -5.90736 13
869 1 -5.16 -2.83171 -3.37645 21
870 1 -1.88 -0.934401 -6.02641 23
871 1 -0.24 -5.67683 -3.37638 23
872 1 -1.88 -2.83171 -3.37645 26
873 2 -3.52 -5.67644 -1.36761 20