ITEM: TIMESTEP
0
ITEM: NUMBER OF ATOMS
500
ITEM: BOX BOUNDS pp pp pp
-30.0 30.0
-30.0 30.0
-30.0 30.0
ITEM: ATOMS id type x y z Coordination
1 1 -3.54596 1.89995 -6.83362 10
2 1 7.47883 -2.95689 5.8855 12
3 1 0.218615 4.66267 11.6699 6
4 1 7.95142 -1.44768 2.66916 13
5 1 -9.39303 1.54127 0.899029 14
6 1 -3.13783 -1.16095 -9.73375 11
7 1 1.83788 -1.18137 9.0674 8
8 1 4.2858 -3.34665 -6.16951 9
9 1 -10.4071 0.540312 -2.27069 15
10 1 1.34348 2.23263 -12.1265 10
11 1 7.47018 -8.64441 -6.58764 4
12 1 8.3609 0.578245 6.06929 13
13 1 1.07019 7.61799 -5.62649 13
14 1 1.15858 6.60359 4.64224 12
15 1 3.4172 5.57074 9.10632 9
16 1 -8.54562 -2.09871 1.41422 12
17 1 -11.76 -1.79984 -0.348212 12
18 1 9.07425 -2.85003 -3.59009 10
19 1 5.65061 -0.915154 9.12487 10
20 1 -7.88374 -5.65881 2.22758 10
21 1 -3.7148 -7.67959 -9.79623 7
22 1 4.73682 0.925383 -6.36916 11
23 1 7.48286 -2.23639 -7.22395 11
24 1 8.41156 -8.14068 3.52543 8
25 1 -4.99465 9.74324 6.39166 6
26 1 5.03932 0.211733 5.90532 10
27 1 0.688408 10.9659 1.04908 10
28 1 -0.220464 -5.56523 -10.2074 8
29 1 -2.14252 3.8326 10.0111 11
30 1 7.69441 -4.85717 3.2326 12
31 1 -5.90283 8.91929 2.53938 12
32 1 -4.83897 5.72976 1.73974 9
33 1 4.28203 6.83559 -8.37429 9
34 1 7.64761 6.1616 -1.44238 12
35 1 -2.77479 10.0357 -7.8426 6
36 1 -6.93734 4.91324 -8.82517 8
37 1 -3.08053 11.6601 -4.05869 7
38 1 1.77629 9.08981 -2.24974 13
39 1 -10.7983 4.84927 -0.510449 8
40 1 0.234146 8.11934 10.0757 9
41 1 -5.47583 1.15539 -10.5269 7
42 1 -7.02245 -6.13706 5.83076 12
43 1 -6.69003 -1.82735 -4.13984 14
44 1 6.25916 -8.98845 -2.58 9
45 1 -8.63089 0.202956 4.30323 13
46 1 -9.39717 -0.456827 -5.49652 12
47 1 -0.269159 -12.0591 3.97591 6
48 1 7.11256 4.62042 -6.88012 8
49 1 -8.69399 -4.57873 -9.16134 4
50 1 2.31092 6.14644 -12.0174 5
51 1 2.44321 -8.35245 -1.71792 11
52 1 -0.0978162 12.5298 -1.81884 6
53 1 -11.8929 1.57887 3.4751 9
54 1 2.50814 9.10553 7.1969 12
55 1 3.83965 -1.96957 11.9822 8
56 1 3.16872 -11.2883 -3.85522 5
57 1 10.7215 -0.307931 -8.5275 5
58 1 -4.87246 -7.88684 1.22405 13
59 1 -1.96655 -8.51547 2.029 12
60 1 4.74612 -4.34455 9.08696 8
61 1 2.7132 -7.36593 6.77702 16
62 1 6.21874 9.99658 1.47269 12
63 1 -8.0998 -8.66479 3.29763 7
64 1 -3.28239 -11.3215 1.91169 9
65 1 0.572244 -5.3237 4.41213 15
66 1 -5.02282 -5.79351 -4.0307 11
67 1 2.8668 4.10638 -5.64931 11
68 1 5.1528 -5.87915 -0.0147872 12
69 1 -4.72441 -3.51514 8.20619 7
70 1 -11.773 0.357746 6.60881 5
71 1 4.39447 -12.6113 1.63093 4
72 1 -3.65344 -5.54673 4.87537 10
73 1 0.529009 2.10263 7.91652 12
74 1 -11.4527 -2.77223 3.729 5
75 1 -4.14834 11.8744 2.46606 6
76 1 -7.76669 6.66307 5.02122 10
77 1 -3.09645 7.21565 9.86306 7
78 1 -7.85651 -4.28493 -6.01907 11
79 1 -7.37935 2.62546 -6.0539 14
80 1 -4.57504 -3.9047 -8.60468 10
81 1 10.1477 -1.28925 8.25169 7
82 1 -2.50084 -4.63991 11.0965 10
83 1 -6.37619 -2.14943 -11.4814 8
84 1 -12.7702 -1.50946 -3.91796 7
85 1 -4.10419 -10.097 -1.77795 12
86 1 -6.2503 7.13383 8.44077 8
87 1 3.1105 3.22345 6.25032 13
88 1 -4.54024 7.04533 -2.26215 8
89 1 0.660493 -9.49738 -6.41886 6
90 1 0.278913 11.3667 4.47395 7
91 1 6.03171 2.67336 -3.64325 8
92 1 -10.9957 1.96141 -5.92954 9
93 1 -11.0506 7.18379 -3.44841 5
94 1 -2.99041 -10.861 -7.72538 4
95 1 5.21898 -10.1377 5.99291 8
96 1 -10.1825 5.31304 -6.91811 8
97 1 -5.55317 1.2222 10.2721 5
98 1 -8.77722 3.11428 6.73059 10
99 1 1.93411 -6.06436 -7.71143 12
100 1 -0.637453 -3.68509 7.61037 11
101 1 -0.96895 -6.71992 8.19647 11
102 1 4.25295 -7.58628 -5.19356 11
103 1 9.09292 3.48913 -0.454181 12
104 1 -5.86484 3.22404 4.28101 12
105 1 3.67131 0.366259 -10.2752 10
106 1 6.17275 -6.64358 6.76824 12
107 1 -6.32871 -9.04985 -4.55368 10
108 1 -7.92313 -3.3256 5.68222 8
109 1 10.994 2.42739 7.46904 7
110 1 11.4995 5.49879 -1.5018 8
111 1 0.857074 4.4618 -8.92956 11
112 1 -0.322743 7.35319 -8.7338 8
113 1 3.82852 11.3693 -0.206766 12
114 1 4.17515 3.52019 -9.43835 9
115 1 1.85245 -9.7195 3.95579 13
116 1 8.87196 -6.75706 0.0960867 12
117 1 0.889878 -10.4558 1.0835 10
118 1 -9.6515 2.19216 -9.10091 8
119 1 13.0498 -1.92507 -2.60218 4
120 1 -0.988027 4.30046 -5.60048 12
121 1 -5.59164 8.61407 -5.50049 9
122 1 3.50615 -10.1222 -8.16806 4
123 1 1.76734 -6.7292 1.60245 15
124 1 -8.76965 -4.41429 8.82578 6
125 1 -0.378998 -11.3175 -2.6119 7
126 1 2.75725 -4.03832 -10.4424 10
127 1 3.58931 7.58509 0.25389 10
128 1 5.26823 -9.35784 1.52211 11
129 1 6.27367 -1.10023 -3.66422 12
130 1 -5.99294 -3.68662 -0.811001 13
131 1 -6.27887 -6.87194 -7.63899 9
132 1 -0.118538 -2.37347 12.605 7
133 1 -1.02804 0.817222 11.2432 10
134 1 6.5329 -2.42344 -10.9371 6
135 1 -8.76593 3.18718 -2.53191 10
136 1 5.88892 9.3094 -2.74074 8
137 1 8.49129 0.792439 -5.74481 13
138 1 -1.54965 1.56624 -10.4029 11
139 1 -9.82738 4.39144 3.18491 10
140 1 1.98724 -5.5029 10.6127 4
141 1 6.78851 2.65733 2.93818 7
142 1 -9.32967 -1.19986 -8.99533 8
143 1 10.9356 -4.35286 1.40273 9
144 1 -0.958144 -7.8357 -1.40897 10
145 1 6.54001 3.35621 7.8109 9
146 1 0.416537 -10.2495 8.14885 8
147 1 3.65923 -3.65789 6.31302 12
148 1 10.4122 5.20539 1.72802 10
149 1 7.05133 -3.2419 -0.245435 14
150 1 8.90887 4.84963 5.18992 9
151 1 -1.95339 -6.38524 -7.03395 9
152 1 5.36134 6.6758 5.88 10
153 1 -4.7178 4.29551 -4.13024 9
154 1 -3.60088 6.17036 -7.10686 12
155 1 -2.44384 -0.471628 8.18912 11
156 1 -7.3664 -11.0634 -2.07878 5
157 1 7.04413 6.36308 1.86408 11
158 1 -3.29247 6.13105 5.20787 10
159 1 -7.95683 6.69521 0.596755 10
160 1 8.14301 7.28309 -5.10124 8
161 1 3.49953 1.92183 10.1051 8
162 1 -7.04605 -0.109311 -1.02747 11
163 1 0.193254 -1.24742 -10.5535 13
164 1 -0.0745983 5.28476 7.61985 12
165 1 6.81289 -5.28452 -4.13693 8
166 1 5.06913 12.226 3.47872 7
167 1 4.30322 -6.94036 3.83737 12
168 1 -1.89545 8.57515 3.42661 10
169 1 6.05886 -5.47563 -8.9049 7
170 1 3.94781 -8.89446 9.39104 6
171 1 1.21956 1.1187 -8.21044 10
172 1 -5.42063 3.76558 7.84414 10
173 1 13.2546 -1.0781 2.20587 3
174 1 0.0493894 11.0973 -5.76862 9
175 1 10.5073 4.18424 -5.2541 7
176 1 -3.4165 -0.985731 12.364 6
177 1 -4.72468 -6.67407 9.16807 6
178 1 -8.30549 9.23743 -1.86506 5
179 1 7.57519 9.22369 4.31915 8
180 1 -10.6567 -6.4409 5.44652 3
181 1 10.0032 -0.84541 -0.824984 10
182 1 -7.46352 -7.307 -1.32234 12
183 1 10.2596 1.53176 2.81805 11
184 1 10.2227 -8.58023 -2.44045 5
185 1 3.0408 9.05317 3.55721 12
186 1 -9.63285 -3.20083 -2.81807 14
187 1 -1.77675 8.0838 -4.08948 9
188 1 3.70388 10.5047 -7.23594 8
189 1 -6.2658 -0.638084 -7.79884 15
190 1 3.32449 -1.76799 -12.9716 8
191 1 -2.8476 -8.94976 -4.66581 12
192 1 -0.668557 -8.13102 5.40158 14
193 1 11.887 -4.97075 -1.80438 6
194 1 -13.4287 1.72157 -1.01377 5
195 1 -3.73129 4.80367 -10.6092 6
196 1 -9.26609 -6.70146 -4.20124 7
197 1 11.072 -2.37689 4.6396 8
198 1 -3.41413 -4.62403 -12.2772 6
199 1 -9.48827 9.12217 2.61033 7
200 1 -8.63963 -0.675548 8.17111 9
201 1 9.61107 8.52003 0.759247 7
202 1 12.6668 1.90887 -0.380313 10
203 1 -3.22406 -10.1893 7.91171 4
204 1 7.4639 1.18365 -9.26881 9
205 1 4.2658 7.57045 -4.83191 12
206 1 5.46904 10.576 6.23475 8
207 1 3.58457 11.9635 -3.96523 7
208 1 10.5407 1.50395 -3.08283 10
209 1 -5.61602 -0.0550524 6.20297 9
210 1 9.77547 -6.01674 -5.86293 5
211 1 0.259239 -3.02484 -7.05723 8
212 1 -1.13733 8.92414 6.90208 14
213 1 -2.39139 9.75384 -0.0483252 7
214 1 -4.56851 -8.96563 4.6979 11
215 1 8.12044 -10.7403 -0.223291 7
216 1 -10.4328 -5.49404 0.17701 9
217 1 -8.15565 6.26114 -3.83709 11
218 2 -12.6969 -0.851024 4.2903 6
219 2 10.8916 5.03092 4.15955 7
220 2 1.47787 -2.73498 7.29268 11
221 2 -3.5754 -1.93088 -7.62888 8
222 2 -10.7756 2.56565 -1.16461 12
223 2 -2.64456 -8.98686 6.15998 10
224 2 4.10163 2.92713 12.2678 5
225 2 8.19266 0.496401 3.70692 11
226 2 -3.52636 8.59281 8.18849 7
227 2 -2.98659 6.41434 2.99891 12
228 2 6.57874 -7.74255 -4.51294 11
229 2 -3.53243 0.979533 -9.23442 11
230 2 1.90832 -6.22971 -10.3105 6
231 2 -2.36269 -7.07295 0.3426 10
232 2 -4.91515 11.2198 4.65306 6
233 2 9.56102 -3.23346 2.83583 11
234 2 7.80198 8.68547 2.13092 8
235 2 0.318759 9.78881 8.4585 7
236 2 5.52713 10.021 3.92183 12
237 2 3.15235 8.28876 -6.96714 9
238 2 5.95993 -0.506079 -10.5477 8
239 2 -10.1536 0.343922 -7.58315 9
240 2 0.676578 -7.98537 7.34906 16
241 2 -9.71267 1.82752 3.11267 11
242 2 5.40436 -8.87344 -7.56545 6
243 2 -2.70998 -13.4522 0.930527 4
244 2 5.76115 -1.30066 -5.9174 11
245 2 2.61502 6.78967 7.35374 15
246 2 5.56431 -3.44159 10.9269 7
247 2 -6.99659 -8.47646 5.31163 7
248 2 -1.01984 -10.4333 2.83754 12
249 2 0.515023 -6.43615 -2.79276 9
250 2 -9.74353 -6.86419 3.33603 9
251 2 -4.04628 -9.9473 0.507064 12
252 2 -6.2031 -8.92849 -2.15435 11
253 2 -5.39334 12.5314 0.576091 4
254 2 3.7586 1.4929 -8.22812 12
255 2 11.1181 7.7892 -2.22138 5
256 2 4.3969 5.67506 -10.86 7
257 2 -6.88544 4.19012 -4.17778 9
258 2 9.02918 3.34828 1.89536 11
259 2 0.588188 12.7511 2.45122 3
260 2 -6.32279 7.74472 6.21028 9
261 2 1.59562 11.0314 -1.07901 9
262 2 2.33176 12.1612 -6.06986 5
263 2 -0.885266 5.87057 9.69329 10
264 2 2.04958 -3.32607 12.5212 7
265 2 4.65673 -3.48231 -12.1672 5
266 2 0.84854 -10.955 -4.57225 8
267 2 -0.0919611 -5.09051 -7.74772 9
268 2 -9.64053 -6.80735 -1.69055 6
269 2 10.6455 -6.84197 -1.45997 5
270 2 7.30228 6.45223 4.16157 10
271 2 -1.65725 -0.00801254 -12.0192 8
272 2 2.63417 -1.08922 -11.1311 10
273 2 -3.93216 -6.23744 -8.03461 9
274 2 3.94803 -4.61286 -8.19104 9
275 2 8.80728 -0.346625 -7.73991 8
276 2 -6.82731 -4.92893 4.07465 12
277 2 0.286757 -3.55857 -11.1545 9
278 2 2.31159 6.13043 -4.72222 12
279 2 -1.74113 -8.9081 -6.69438 9
280 2 0.420029 2.57501 -9.88853 14
281 2 -1.22249 6.86373 5.89459 10
282 2 -7.44344 -7.62674 1.32552 11
283 2 -6.43548 0.890119 4.22472 11
284 2 -6.65574 6.93909 3.05158 14
285 2 -8.80037 -5.25952 6.90399 7
286 2 -12.6897 -0.140093 -1.91616 8
287 2 5.61703 -8.41486 8.00087 7
288 2 9.09208 1.28576 -1.08322 9
289 2 -0.592804 -1.10316 -8.41662 10
290 2 3.41187 6.84799 4.36585 10
291 2 3.37301 11.1641 7.34557 5
292 2 0.668175 -0.351322 13.3645 5
293 2 -7.97245 4.13197 4.61956 11
294 2 -7.59027 -1.9216 -6.29066 12
295 2 2.19504 -2.68616 -6.14616 12
296 2 11.9947 4.06635 0.406015 9
297 2 -12.9499 -2.43411 1.5944 4
298 2 -5.79822 6.89654 -7.00053 9
299 2 3.45073 2.48543 -11.6706 9
300 2 -9.41541 5.18447 1.22268 10
301 2 2.76663 -5.41379 5.15775 14
302 2 1.91984 6.96921 -0.900322 8
303 2 6.599 -11.2762 -3.39298 6
304 2 0.582179 -12.0618 -0.621562 6
305 2 -7.50136 10.4319 2.96798 8
306 2 0.570272 -7.6865 3.51759 14
307 2 2.98275 -10.7851 2.09073 11
308 2 4.70283 6.38612 10.8799 4
309 2 -2.35655 11.8215 -1.62579 6
310 2 -5.04747 -4.75205 10.2295 7
311 2 -3.77719 -7.21274 3.28997 10
312 2 -2.65685 -2.77956 7.96836 10
313 2 1.06429 6.39752 -10.2047 10
314 2 8.63696 -0.681609 -3.59627 10
315 2 3.5362 -0.395698 10.4916 9
316 2 -7.57884 -2.82809 -1.86947 12
317 2 9.04308 6.43277 0.2576 11
318 2 5.92534 8.67019 7.46031 7
319 2 7.13005 -3.43055 -2.69295 10
320 2 -9.30084 -4.11158 1.36865 13
321 2 1.66399 6.70697 11.2292 7
322 2 6.91063 -0.0557338 11.2481 5
323 2 0.904489 4.54413 -12.9712 6
324 2 6.41301 -3.07847 3.79087 11
325 2 2.206 3.39493 9.10853 13
326 2 6.64177 -6.67679 4.26945 12
327 2 -10.5636 -1.22616 -3.79094 14
328 2 -6.7965 8.12182 -3.20359 7
329 2 -8.55875 3.99871 -7.71474 9
330 2 -2.68326 -8.02903 9.41274 7
331 2 5.86845 12.1806 1.1373 6
332 2 -6.6915 -4.44085 -8.07385 9
333 2 11.4252 0.0368304 1.12743 6
334 2 -8.25131 8.8115 0.473656 7
335 2 10.061 -6.51576 2.55573 8
336 2 -4.89043 -5.63989 6.92569 10
337 2 -6.85639 -6.6227 -5.34845 9
338 2 0.0328465 9.70446 -3.88978 12
339 2 -9.89003 7.96137 5.02483 5
340 2 4.93559 5.79977 1.50991 8
341 2 -0.253469 -4.997 9.79912 12
342 2 -12.0518 5.20546 4.06964 4
343 2 -2.71792 8.36933 -1.85353 9
344 2 -0.581287 2.77312 11.7764 9
345 2 -8.91352 1.47657 -4.2593 12
346 2 5.25986 9.13082 -0.663547 13
347 2 -3.93302 4.95514 10.0129 6
348 2 -0.237168 -0.166673 9.11037 10
349 2 -4.22421 -2.9949 -10.8199 6
350 2 -0.469892 6.06705 -6.87927 13
351 2 -2.09206 -9.57452 -2.68391 10
352 2 -3.56332 4.17105 -6.1415 10
353 2 6.6033 -1.05503 7.27437 8
354 2 0.798876 4.08253 5.82186 12
355 2 10.1848 3.75175 -2.74093 11
356 2 3.59232 -8.88143 5.13654 14
357 2 6.78747 2.28131 -5.97167 10
358 2 4.87376 4.67001 6.72268 10
359 2 -7.42283 2.11472 -0.787663 9
360 2 -5.70281 1.56704 7.87816 13
361 2 -10.1584 -4.66413 -5.04229 7
362 2 0.859762 -8.42121 -0.00812976 13
363 2 -0.676527 8.99141 1.30115 9
364 2 -10.5773 4.10344 7.80919 2
365 2 -9.09818 -2.01014 3.82021 10
366 2 -1.91513 -12.9008 -3.52601 7
367 2 4.83542 1.42556 8.14262 10
368 2 -3.38887 6.36584 -4.22267 13
369 2 -2.66048 6.55016 -9.33034 8
370 2 6.00274 6.47882 -5.91491 9
371 2 2.30878 -7.87263 -6.60475 9
372 2 9.92168 1.01533 8.98742 7
373 2 7.30611 3.82034 10.0495 7
374 2 -0.0300477 9.69579 -7.59043 10
375 2 -5.8011 1.08634 -6.44694 11
376 2 -2.08091 -6.5509 -11.3153 5
377 2 -5.07159 -3.43868 -3.66216 13
378 2 -1.46812 10.449 5.29064 8
379 2 -3.39515 9.68354 -5.5975 10
380 2 -9.28917 7.13882 -5.63209 8
381 2 -7.35365 4.79551 7.89102 9
382 2 2.93479 4.55603 -7.86569 12
383 2 7.42192 -3.52965 -9.13817 7
384 2 -10.1643 5.30603 -3.00839 8
385 2 -2.1543 3.76417 -11.6216 9
386 2 3.38784 -6.27414 -1.40754 12
387 2 5.96133 -4.43409 7.16597 11
388 2 -7.83784 0.42867 10.3039 4
389 2 -2.8415 -6.44197 -4.60246 11
390 2 -9.46289 0.402346 6.41094 10
391 2 8.36059 -6.53777 7.86268 4
392 2 -13.2476 1.65602 1.61809 6
393 2 -3.44126 0.470205 10.5636 8
394 2 1.20911 -11.4427 5.68152 7
395 2 10.944 1.28665 5.23525 9
396 2 3.60726 -9.05486 -3.47236 9
397 2 -3.85331 9.87492 1.79125 9
398 2 -7.2468 -0.517974 -9.94002 7
399 2 -6.69702 -1.98983 7.36237 9
400 2 3.40321 -6.46155 8.96294 10
401 2 6.32979 4.21773 -1.96999 6
402 2 6.88906 3.35752 -9.06309 6
403 2 9.66673 5.61352 7.73965 6
404 2 -5.60884 5.86628 -0.513309 6
405 2 9.60637 -1.91877 6.25421 9
406 2 4.41617 -5.0902 -4.50409 10
407 2 -5.54051 -5.8059 -1.4777 11
408 2 8.3055 -4.33235 -5.58075 8
409 2 9.08046 -9.44279 1.5215 8
410 2 7.96375 -1.40374 0.420158 12
411 2 7.08601 -5.30041 1.08958 13
412 2 -1.70528 3.00199 7.99831 13
413 2 9.15567 5.51479 -6.3696 4
414 2 -11.2881 -3.82043 -1.51163 12
415 2 -9.68926 -0.586809 -0.19156 13
416 2 6.42608 -9.75316 3.43497 11
417 2 3.57145 9.65326 -3.4749 13
418 2 13.1315 1.85034 -2.55587 6
419 2 7.71063 7.74264 -3.01248 9
420 2 -1.16183 -5.26612 5.95176 13
421 2 4.11847 -7.27522 1.55495 13
422 2 10.779 -2.83371 -1.83488 8
423 2 6.10854 -11.2476 0.360986 9
424 2 -4.37824 -10.6213 -5.6966 8
425 2 3.1133 9.97749 1.44875 13
426 2 1.61183 9.70093 5.23853 10
427 2 -5.11658 -11.4682 3.60682 4
428 2 -2.42082 -2.99936 12.425 5
429 2 -4.38039 4.10766 5.73348 9
430 2 8.53151 2.70641 6.54168 9
431 2 10.5717 1.64492 -5.48916 9
432 2 -5.84098 3.54193 -10.1058 6
433 2 -5.28523 -12.4369 -2.30738 6
434 2 7.52454 -7.92315 -1.17651 11
435 1 -1.88 -2.83171 -3.37645 15
436 2 -1.88 -2.83137 -1.36755 19
437 2 -1.88 -0.93461 -4.0176 12
438 2 -0.24 -3.7797 -4.01759 13
439 1 -5.16 -0.934401 -0.726407 17
440 1 -3.52 -3.77954 -0.726424 15
441 1 -1.88 -0.934401 -0.726407 25
442 1 -0.24 -3.77954 -0.726424 18
443 1 -1.88 -2.83171 1.92355 18
444 1 -1.88 -0.934401 4.57359 14
445 1 -0.24 -3.77954 4.57358 14
446 2 -5.16 -0.93461 1.2824 15
447 2 -3.52 -3.7797 1.28241 15
448 2 -1.88 -2.83137 3.93245 17
449 2 -1.88 -0.93461 1.2824 25
450 2 -0.24 -3.7797 1.28241 19
451 1 -3.52 0.0131684 -3.37638 16
452 1 -0.24 0.0131684 -3.37638 21
453 1 -1.88 2.85829 -3.37645 17
454 2 -3.52 0.0135641 -1.36761 18
455 2 -0.24 0.0135641 -1.36761 26
456 2 -1.88 2.85863 -1.36755 17
457 2 -0.24 1.9103 -4.01759 13
458 1 -3.52 1.91046 -0.726424 17
459 1 -3.52 0.0131684 1.92362 18
460 1 -1.88 4.7556 -0.726407 15
461 1 -0.24 1.91046 -0.726424 25
462 1 -0.24 0.0131684 1.92362 26
463 1 -1.88 2.85829 1.92355 18
464 1 -0.24 1.91046 4.57358 16
465 2 -3.52 0.0135641 3.93239 15
466 2 -3.52 1.9103 1.28241 16
467 2 -0.24 0.0135641 3.93239 21
468 2 -1.88 2.85863 3.93245 16
469 2 -1.88 4.75539 1.2824 13
470 2 -0.24 1.9103 1.28241 25
471 1 1.4 -2.83171 -3.37645 18
472 2 1.4 -2.83137 -1.36755 21
473 2 1.4 -0.93461 -4.0176 15
474 2 4.68 -2.83137 -1.36755 16
475 1 1.4 -0.934401 -0.726407 26
476 1 3.04 -3.77954 -0.726424 16
477 1 1.4 -2.83171 1.92355 21
478 1 1.4 -0.934401 4.57359 15
479 1 4.68 -0.934401 -0.726407 17
480 1 4.68 -2.83171 1.92355 17
481 2 1.4 -2.83137 3.93245 18
482 2 1.4 -0.93461 1.2824 26
483 2 3.04 -3.7797 1.28241 17
484 2 4.68 -0.93461 1.2824 18
485 1 3.04 0.0131684 -3.37638 19
486 1 1.4 2.85829 -3.37645 17
487 2 3.04 0.0135641 -1.36761 20
488 2 1.4 2.85863 -1.36755 19
489 2 3.04 1.9103 -4.01759 12
490 2 4.68 2.85863 -1.36755 12
491 1 1.4 4.7556 -0.726407 14
492 1 3.04 1.91046 -0.726424 19
493 1 3.04 0.0131684 1.92362 20
494 1 1.4 2.85829 1.92355 19
495 1 3.04 1.91046 4.57358 13
496 1 4.68 2.85829 1.92355 12
497 2 3.04 0.0135641 3.93239 17
498 2 1.4 2.85863 3.93245 17
499 2 1.4 4.75539 1.2824 16
500 2 3.04 1.9103 1.28241 19
