ITEM: TIMESTEP
180000
ITEM: NUMBER OF ATOMS
2000
ITEM: BOX BOUNDS pp pp pp
-30.0 30.0
-30.0 30.0
-30.0 30.0
ITEM: ATOMS id type x y z Coordination
1 2 -16.2496 -0.430526 -2.99115 17
2 1 -3.21741 -17.4467 -4.82182 12
3 2 -3.58656 -17.4757 -2.92501 14
4 1 -3.40924 -17.8193 0.527219 10
5 2 -3.12053 -17.5458 2.92981 9
6 1 0.330729 -17.1945 -5.44227 16
7 1 3.6708 -17.6333 -4.80706 10
8 2 -1.59174 -16.943 -5.62236 16
9 2 3.45041 -16.9154 -2.99491 15
10 1 -1.57525 -16.4081 2.89575 14
11 1 0.10633 -14.2497 7.81947 15
12 1 3.37736 -18.0957 -0.284758 7
13 2 -1.87672 -16.331 4.78829 13
14 2 1.94122 -16.5912 -0.366393 16
15 2 -4.74678 -4.87472 -15.6156 16
16 2 -6.41165 -1.58329 -15.9548 17
17 2 -1.38859 -4.59038 -15.8748 14
18 2 -3.35523 -1.74126 -16.0862 13
19 2 -3.248 5.63336 -13.581 19
20 2 -7.07353 1.72547 -15.7149 12
21 2 -1.50808 0.991273 -15.4587 14
22 2 -4.86858 7.98904 -14.8728 11
23 2 -3.47185 9.2187 -11.0988 18
24 2 -1.87238 -8.99791 -12.8761 17
25 2 1.85467 -5.21399 -15.8617 11
26 2 -0.0276463 -2.03343 -15.6456 15
27 2 4.91416 -6.87437 -16.6899 9
28 2 3.60408 -2.11271 -15.0857 16
29 2 6.5554 -4.60161 -15.6846 14
30 2 1.72728 0.893461 -15.6687 13
31 2 -0.934492 6.48503 -16.2937 10
32 2 3.72613 5.90857 -13.5228 20
33 2 -0.0163868 3.9441 -15.7883 14
34 2 4.39098 8.20224 -16.4564 8
35 2 8.25951 2.49638 -12.9077 13
36 1 -15.4998 -5.10037 -2.11927 13
37 1 -12.9975 -7.60673 -7.6541 14
38 1 -10.4043 -2.30762 -12.204 17
39 1 -14.7128 -4.75966 -7.52366 13
40 1 -11.4039 -2.50253 -9.7069 22
41 1 -17.0982 0.040429 -5.08111 11
42 1 -16.2773 -3.08535 -4.62744 13
43 1 -16.4654 -0.0730423 4.9966 10
44 1 -17.2541 -2.0518 -2.40827 11
45 1 -9.77328 -13.7768 -8.4442 10
46 1 -9.33154 -11.4005 -11.1926 14
47 1 -10.7126 -9.56741 -9.31856 14
48 1 -11.8534 -10.9782 -7.3207 12
49 1 -11.777 -4.9972 -12.202 11
50 1 -13.5494 -5.84019 -4.61909 17
51 1 -12.1375 -8.78193 -5.02451 19
52 1 -11.8589 -10.5669 -2.395 14
53 1 -12.8103 -7.38694 -1.86959 17
54 1 -10.2933 -8.22482 -12.6657 11
55 1 -14.1557 -1.12772 -8.9633 15
56 1 -10.6792 -0.154039 -14.7443 11
57 1 -11.6001 -4.60467 -7.37353 21
58 1 -13.2071 -2.19562 -6.84277 22
59 1 -13.2871 0.109831 -5.28008 20
60 1 -11.1736 -2.88564 -4.88673 21
61 1 -11.7625 -4.77224 -2.45633 22
62 1 -12.7588 -1.91664 -2.64921 19
63 1 -6.54812 -13.829 -7.89028 17
64 1 -9.85492 -11.8491 -5.28974 16
65 1 -8.11367 -14.611 -5.18891 14
66 1 -10.6978 -13.3919 -2.61944 10
67 1 -9.7648 -3.4012 -15.0175 12
68 1 -10.1271 -5.69516 -10.0423 20
69 1 -7.89469 -9.00605 -10.5837 19
70 1 -8.26092 -11.0499 -7.50224 22
71 1 -9.64671 -7.64865 -7.43781 22
72 1 -10.2194 -5.92568 -4.64568 23
73 1 -8.43799 -8.8092 -4.75942 23
74 1 -8.61633 -10.7229 -2.3177 22
75 1 -10.0282 -7.72225 -2.22848 25
76 1 -6.69063 -4.80607 -15.3489 15
77 1 -8.23889 -4.87061 -12.8565 22
78 1 -8.07975 -2.48113 -16.6877 9
79 1 -9.73524 0.414508 -10.1262 21
80 1 -8.53216 -3.09996 -10.1354 22
81 1 -8.15148 -4.92888 -7.23229 23
82 1 -9.75075 -1.73085 -7.91183 23
83 1 -9.7938 -0.129659 -5.3464 21
84 1 -8.13205 -3.18363 -4.80806 22
85 1 -7.96143 -5.26001 -2.2688 23
86 1 -9.4177 -2.1126 -2.56112 23
87 1 -6.5746 -12.0608 -10.1755 17
88 1 -2.52446 -16.7183 -7.32708 11
89 1 -6.37337 -11.7394 -4.93631 22
90 1 -4.62885 -14.7203 -5.03988 22
91 1 -5.38 -16.9633 -2.15431 12
92 1 -6.74025 -13.8303 -2.22655 20
93 1 -3.05895 -5.58381 -15.3 15
94 1 -4.33518 -13.7002 -12.3324 11
95 1 -6.85205 -7.37567 -13.3783 16
96 1 -6.47524 -5.94445 -10.0606 25
97 1 -4.74062 -8.98968 -10.1368 23
98 1 -5.05907 -10.5822 -7.67364 22
99 1 -6.53807 -7.81553 -7.53227 22
100 1 -6.44736 -5.97065 -4.57165 24
101 1 -5.00949 -8.84041 -5.03206 21
102 1 -4.80902 -10.815 -2.29688 21
103 1 -6.56288 -8.01186 -2.48261 20
104 1 -7.06267 -0.0380372 -15.1816 17
105 1 -4.97006 -2.57915 -15.8675 17
106 1 -5.00485 -4.76512 -12.8745 22
107 1 -6.78499 -2.00432 -12.6247 24
108 1 -6.12715 -0.216645 -10.1162 22
109 1 -4.79536 -2.99833 -9.76528 24
110 1 -4.77557 -5.15098 -7.41307 24
111 1 -6.55873 -1.96811 -7.2513 22
112 1 -6.43728 -0.0324304 -4.86783 23
113 1 -4.66409 -3.11319 -4.71481 21
114 1 -4.78904 -4.97224 -2.2009 22
115 1 -6.74782 -2.22834 -2.05694 24
116 1 -3.12307 -11.4754 -10.1217 22
117 1 -1.96418 -14.8809 -9.98321 13
118 1 -3.17737 -13.6365 -7.21311 22
119 1 -5.12024 -15.3079 -10.0375 9
120 1 -3.34734 -11.4566 -4.78479 23
121 1 -1.65281 -14.7724 -4.88971 22
122 1 -1.77033 -17.1271 -2.2492 15
123 1 -3.15532 -13.9098 -2.69996 23
124 1 3.56265 -7.94325 -13.0949 20
125 1 -6.04229 -10.3444 -13.0551 15
126 1 -2.36093 -10.8111 -12.7411 14
127 1 -3.77342 -7.8043 -12.4219 20
128 1 -3.2397 -5.95274 -10.2991 20
129 1 -1.2693 -8.73935 -10.1238 22
130 1 -1.41643 -10.5189 -7.35462 24
131 1 -2.96747 -7.79267 -7.84485 20
132 1 -3.16627 -6.1999 -5.02235 22
133 1 -1.82339 -8.99921 -4.91664 23
134 1 -1.70887 -10.8554 -2.23666 23
135 1 -3.41243 -8.15128 -2.0383 20
136 1 -2.85065 -0.304851 -15.1132 16
137 1 -1.72245 -2.64928 -15.7861 17
138 1 -1.95933 -4.99989 -12.9456 23
139 1 -3.90665 -2.01501 -13.0469 22
140 1 -3.36252 -0.0569259 -10.4614 21
141 1 -1.62863 -2.85658 -10.4925 20
142 1 -1.60341 -4.90449 -7.54827 22
143 1 -3.30253 -1.94481 -7.44904 23
144 1 -2.96586 0.107272 -4.81485 24
145 1 -1.61569 -3.22671 -5.01484 19
146 1 -1.70189 -4.81517 -2.33498 19
147 1 -3.29888 -1.91351 -2.28704 22
148 2 -15.0205 -5.45758 6.37449 12
149 2 -12.9734 -7.26889 -5.68167 16
150 2 -8.42591 -7.88265 -12.7174 15
151 2 -15.1161 -4.59738 -5.64124 15
152 2 -15.9757 -0.480857 -8.56857 11
153 2 -14.5278 -2.92073 -8.00067 15
154 2 -15.1971 -2.81608 2.0276 17
155 2 -16.7735 -1.90066 -0.628541 13
156 2 -16.5613 -3.72593 -2.76474 10
157 2 -15.1808 -4.58685 -0.197081 13
158 2 -11.4652 -10.5149 -5.46495 15
159 2 -11.9135 -9.12831 -7.70297 12
160 2 -12.9733 -5.73836 -8.06118 16
161 2 -11.0629 -6.71394 -11.7161 10
162 2 -9.42546 -12.6752 -10.0013 14
163 2 -11.3844 -10.0589 -0.630905 17
164 2 -13.4324 -7.49341 0.0966338 16
165 2 -13.5821 -6.05014 -2.69373 18
166 2 -11.9808 -8.82078 -2.96649 19
167 2 -12.9037 -1.32258 -10.1291 16
168 2 -8.61443 -2.9222 -13.3151 21
169 2 -11.3749 -4.21738 -10.4978 16
170 2 -11.8176 -4.81596 -5.21206 22
171 2 -13.0076 -1.85805 -4.60546 20
172 2 -13.1589 -0.0676038 -7.44331 22
173 2 -11.5161 -2.69823 -7.59863 22
174 2 -11.6624 -4.63913 -0.498771 23
175 2 -15.1818 0.896242 -0.425769 18
176 2 -13.2373 0.0897871 -2.43328 17
177 2 -11.1921 -2.92043 -2.83603 20
178 2 -8.33935 -14.6936 -7.36434 11
179 2 -10.0882 -12.1177 -7.37484 16
180 2 -9.73161 -13.3939 -0.850281 15
181 2 -10.4241 -11.3857 -2.85454 16
182 2 -9.21361 -13.709 -4.036 13
183 2 -7.5642 -10.5699 -11.7523 16
184 2 -9.9027 -9.44614 -11.1202 12
185 2 -10.9165 -3.84777 -13.4565 13
186 2 -6.58971 -5.5659 -13.6436 17
187 2 -8.03375 -10.809 -5.20703 20
188 2 -9.70979 -7.65085 -5.43384 21
189 2 -9.81144 -5.42482 -8.00357 20
190 2 -8.78614 -9.0679 -8.69354 20
191 2 -8.24686 -10.6885 -0.464785 23
192 2 -9.97568 -7.71511 -0.240582 22
193 2 -10.1926 -6.05227 -2.84964 21
194 2 -8.40157 -8.67743 -2.74307 23
195 2 -8.39446 -4.99928 -11.0537 23
196 2 -9.77608 -1.64622 -10.0909 20
197 2 -5.10806 2.74283 -13.7164 16
198 2 -8.10236 -4.26754 -16.1678 12
199 2 -8.36619 -5.34775 -4.46967 24
200 2 -9.33647 -2.00451 -5.55426 22
201 2 -9.78667 0.2941 -7.97089 20
202 2 -8.09885 -3.0502 -7.90404 22
203 2 -8.72089 -4.81446 -0.325993 23
204 2 -9.81897 -2.14794 -0.359678 23
205 2 -9.73723 -0.104288 -3.2516 24
206 2 -7.867 -3.3027 -2.76642 23
207 2 -4.82443 -14.0489 -8.62956 20
208 2 -6.69354 -11.8029 -8.42937 23
209 2 -5.97771 -13.6954 -11.0778 13
210 2 -6.18129 -13.637 -5.83831 19
211 2 -4.82992 -16.732 -0.340247 13
212 2 -6.87998 -13.9675 -0.273989 16
213 2 -6.45213 -11.9934 -2.92362 20
214 2 -5.35383 -15.3326 -3.46953 16
215 2 -4.77179 -10.7414 -10.812 21
216 2 -6.50337 -7.90569 -10.2762 19
217 2 -9.52345 1.25781 -14.7394 11
218 2 -5.45838 -8.65145 -12.8304 15
219 2 -4.93176 -10.5371 -5.54791 23
220 2 -6.62411 -7.83705 -5.40584 22
221 2 -6.60793 -6.04825 -7.97435 19
222 2 -4.89768 -8.68011 -7.77907 19
223 2 -4.93802 -11.3443 -0.0639287 22
224 2 -6.81638 -7.77166 0.0520332 20
225 2 -6.16921 -6.18517 -2.32929 19
226 2 -4.80429 -9.00984 -2.92705 23
227 2 -5.04218 -4.7882 -10.6992 24
228 2 -6.78377 -2.14561 -10.4073 22
229 2 -9.7847 -1.6446 -15.9742 11
230 2 -5.4572 -3.08461 -13.6371 22
231 2 -4.88952 -5.14811 -5.39957 23
232 2 -6.332 -2.2846 -5.26221 21
233 2 -6.64467 0.0907152 -8.24498 24
234 2 -5.20066 -3.19171 -8.0393 21
235 2 -4.9993 -4.78719 0.0293127 21
236 2 -6.61926 -2.24599 -0.104948 23
237 2 -6.34613 -0.338138 -2.79058 22
238 2 -5.17535 -3.31951 -2.92807 20
239 2 -3.33965 -15.0105 -11.0675 9
240 2 -3.18677 -12.2909 -12.0661 12
241 2 -4.0366 -16.1626 -6.37907 14
242 2 -2.91183 -13.3347 -5.19763 21
243 2 -3.18349 -11.4041 -8.07137 21
244 2 -1.76722 -14.9414 -7.67648 17
245 2 -2.01209 -16.5829 -0.227564 18
246 2 -3.5149 -13.7023 -0.660363 20
247 2 -3.29662 -11.8222 -2.85234 23
248 2 -1.47888 -14.9471 -2.66139 20
249 2 -1.32166 -10.78 -10.8286 19
250 2 -3.08557 -8.03433 -10.3225 22
251 2 -3.56921 -6.35207 -13.6444 19
252 2 1.64897 -8.73644 -12.9606 15
253 2 -1.63115 -10.7161 -5.43827 21
254 2 -3.11631 -7.97243 -5.70322 25
255 2 -3.23646 -5.7615 -8.2428 22
256 2 -1.41089 -8.83424 -8.20943 22
257 2 -1.62874 -11.3134 -0.162816 21
258 2 -3.31934 -7.89886 0.0102591 19
259 2 -3.17332 -6.23483 -2.50131 23
260 2 -1.59805 -8.94963 -2.69279 23
261 2 -1.73415 -4.84548 -10.875 22
262 2 -3.32318 -2.11277 -10.6423 23
263 2 -3.75386 -0.163383 -13.3575 22
264 2 -2.10355 -3.00681 -13.2871 24
265 2 -1.71429 -5.07709 -5.26636 21
266 2 -3.63274 -1.40047 -5.62781 21
267 2 -3.3459 -0.143992 -8.58056 24
268 2 -1.48561 -3.00871 -7.61118 20
269 2 -1.86388 -4.79562 -0.382996 22
270 2 -3.32346 -1.73248 -0.366557 23
271 2 -2.99004 0.127632 -2.906 21
272 2 -2.0228 -2.9726 -3.10847 23
273 1 -15.1453 -4.77747 8.25017 14
274 1 -14.9493 0.31148 8.93535 13
275 1 -13.4929 -2.49158 13.1951 9
276 1 -16.6565 -0.0918643 -0.126238 15
277 1 -15.1271 -2.75269 0.033815 21
278 1 -15.2273 -5.17011 2.135 14
279 1 -14.7561 3.12686 10.3637 10
280 1 -16.4619 5.29098 4.47965 15
281 1 -16.7349 -2.78072 3.26349 11
282 1 -13.4993 -1.90205 8.108 16
283 1 -14.8997 -5.21607 11.7988 8
284 1 -13.5656 -5.72205 -0.0817428 18
285 1 -11.9528 -8.72111 0.48281 19
286 1 -11.8332 -10.2854 3.43795 15
287 1 -13.4953 -7.54264 2.61983 14
288 1 -13.353 -6.16271 6.00962 16
289 1 -11.3397 -9.90327 7.17302 14
290 1 -13.1119 -7.16881 9.31407 13
291 1 -16.1587 -6.24057 4.7228 9
292 1 -10.1831 -1.99665 12.8885 15
293 1 -3.5323 -7.00482 15.5871 11
294 1 -13.1267 0.0460175 -0.143823 21
295 1 -11.5641 -2.87666 0.166069 24
296 1 -12.1509 -4.67821 3.08987 23
297 1 -13.509 -1.84506 2.74404 21
298 1 -13.1699 -0.0667384 5.62404 23
299 1 -11.4159 -2.91804 5.71042 21
300 1 -11.9199 -4.60618 7.83372 17
301 1 -14.9589 -3.27838 5.34048 19
302 1 -13.7539 0.119077 11.0969 15
303 1 -16.2867 -2.64475 9.69523 7
304 1 -10.2401 -11.6512 0.141685 18
305 1 -8.62415 -14.5 0.0717565 12
306 1 -10.3797 -13.5558 2.75827 13
307 1 -10.8007 -12.0447 5.77328 11
308 1 -6.70341 -13.6522 8.42738 18
309 1 -10.3291 -5.6375 0.192822 22
310 1 -8.48895 -8.89823 0.368572 22
311 1 -8.71148 -10.787 2.9812 23
312 1 -10.0414 -7.61017 2.54686 18
313 1 -9.88715 -5.77316 5.38891 17
314 1 -8.48355 -8.7638 5.38064 19
315 1 -8.13453 -10.4727 8.5446 21
316 1 -10.3232 -7.61422 8.30956 18
317 1 -11.0599 -6.46837 11.6678 10
318 1 -6.55446 -8.39214 14.1511 12
319 1 -9.95133 -0.2575 0.136303 23
320 1 -8.34804 -3.07903 0.573891 25
321 1 -8.19946 -4.72939 2.889 21
322 1 -10.2816 -2.00922 3.01795 23
323 1 -9.92965 0.144581 6.00575 24
324 1 -8.34023 -2.86972 5.61705 22
325 1 -8.39303 -5.02102 8.58817 21
326 1 -9.81752 -1.83587 8.26153 20
327 1 -10.1191 -0.138172 10.5381 20
328 1 -8.33409 -2.91181 10.8947 20
329 1 -8.42599 -5.12618 12.7192 13
330 1 -11.9732 -4.7974 14.0837 9
331 1 -6.88111 -11.5161 0.159452 24
332 1 -5.09728 -14.5894 0.214461 18
333 1 -10.6935 -12.0067 9.79518 8
334 1 -6.49821 -13.2704 2.67542 22
335 1 -6.86483 -11.4479 5.74605 20
336 1 -8.62357 -14.3213 5.44063 12
337 1 -3.16665 -13.5781 8.77231 22
338 1 -8.69101 -8.5813 10.9859 16
339 1 -6.83366 -5.73242 0.187869 21
340 1 -5.07616 -9.08353 0.362429 22
341 1 -5.15649 -10.7104 3.25512 24
342 1 -6.75635 -7.70506 2.83115 22
343 1 -6.51056 -6.10874 5.46847 23
344 1 -4.76276 -9.13972 5.35426 20
345 1 -4.9698 -10.9259 8.22589 21
346 1 -6.48664 -8.04858 8.15245 22
347 1 -6.51822 -6.37692 10.8568 18
348 1 -4.96402 -8.71838 10.6523 20
349 1 -7.89009 -14.1239 11.673 10
350 1 -0.0256309 -8.37005 14.1793 21
351 1 -6.60457 -0.273293 0.417037 23
352 1 -4.95238 -2.91366 0.339758 22
353 1 -5.11672 -4.80685 3.00817 23
354 1 -6.81712 -1.9214 2.63752 20
355 1 -6.64423 0.205929 5.68931 22
356 1 -4.90647 -2.80882 5.57544 23
357 1 -5.08277 -4.87936 8.25695 23
358 1 -6.64251 -1.86822 8.28968 23
359 1 -6.62699 -0.0807789 10.605 20
360 1 -4.90575 -3.24432 10.8264 22
361 1 -4.96612 -5.2117 13.0775 17
362 1 -6.73695 -2.12335 13.5896 19
363 1 -3.41713 -12.1292 0.613888 23
364 1 -2.0264 -14.6888 0.189192 19
365 1 -3.21887 -17.6707 5.07327 8
366 1 -3.35562 -13.4895 3.00435 20
367 1 -2.92581 -11.9959 5.47682 20
368 1 -5.03688 -14.6015 5.53391 17
369 1 -4.5794 -16.5679 8.2113 12
370 1 -5.91897 -12.071 10.8252 18
371 1 -1.88716 -16.0646 9.60321 10
372 1 -3.40782 -5.96195 0.400269 25
373 1 -1.55684 -9.31902 0.574334 24
374 1 -1.58845 -10.9276 3.04482 23
375 1 -3.39432 -7.68604 2.5142 21
376 1 -3.18259 -5.90331 5.56837 23
377 1 -1.62589 -8.58545 5.16882 21
378 1 -1.47287 -10.9855 8.08818 20
379 1 -3.45824 -7.78724 7.90182 22
380 1 -3.31061 -6.15118 10.6853 19
381 1 -1.57819 -9.19724 11.0749 23
382 1 -4.74233 -14.968 11.1057 12
383 1 -8.49713 -10.884 12.3544 11
384 1 -3.30983 0.235857 0.441772 22
385 1 -1.84395 -2.79404 0.501765 23
386 1 -1.92238 -4.78616 2.86051 24
387 1 -3.35654 -1.78445 2.73961 20
388 1 -3.37279 0.0247464 5.55605 23
389 1 -1.80706 -2.95956 5.60472 21
390 1 -1.56275 -5.01914 8.03343 22
391 1 -3.16555 -2.05113 8.56088 25
392 1 -2.88959 -0.505235 11.1927 25
393 1 -1.4923 -3.44069 10.8415 21
394 1 -1.27786 -4.97785 14.0323 22
395 1 -3.16351 -2.62807 13.7379 21
396 2 -16.7302 0.877041 1.71835 11
397 2 -15.6048 -4.2547 10.1302 11
398 2 -12.9596 -6.03747 7.98439 14
399 2 -15.2405 2.66191 3.02578 18
400 2 -15.9594 -1.81749 4.85832 10
401 2 -16.7171 -4.3645 4.08453 9
402 2 -13.3896 0.295471 7.64131 20
403 2 -11.7402 -8.53963 2.60414 17
404 2 -11.7659 -10.7208 5.20772 12
405 2 -15.1512 -2.97991 7.46646 17
406 2 -13.3062 -5.63646 1.89295 19
407 2 -15.036 -6.8004 3.5128 12
408 2 -12.9515 -6.39334 11.1534 12
409 2 -12.1717 -8.5989 8.43152 12
410 2 -12.1449 -4.9139 5.27255 19
411 2 -13.1558 -1.89231 5.08118 21
412 2 -13.3872 -1.92725 -0.489202 21
413 2 -11.8225 -2.86779 2.22252 23
414 2 -13.8219 -4.52976 13.2928 9
415 2 -14.4789 -1.40929 9.78523 14
416 2 -15.0178 1.47696 10.6578 11
417 2 -11.5641 -2.70127 7.67589 19
418 2 -10.3239 -5.56207 13.0614 12
419 2 -10.1874 -13.5142 4.7262 11
420 2 -10.0672 -11.8763 1.89661 20
421 2 -8.9545 -14.309 1.81826 13
422 2 -10.3578 -11.7687 7.8189 13
423 2 -8.73114 -10.8578 4.738 22
424 2 -9.57678 -7.37036 4.44466 20
425 2 -10.3361 -5.81738 2.26683 23
426 2 -8.44556 -8.92669 2.36312 23
427 2 -7.66775 -9.02187 12.8465 12
428 2 -10.3959 -7.76108 10.3128 17
429 2 -9.89183 -5.60193 7.50246 20
430 2 -8.60178 -8.86668 7.37339 21
431 2 -8.44436 -2.96485 12.8131 16
432 2 -2.4706 -10.208 12.6497 16
433 2 -8.20928 -4.90152 5.17602 22
434 2 -9.8637 -1.64458 5.22422 21
435 2 -10.0032 -0.221399 2.15902 24
436 2 -8.471 -2.84007 2.5107 22
437 2 -8.03553 -4.72407 10.4555 20
438 2 -9.78717 -1.84866 10.2082 17
439 2 -9.97039 0.134222 7.90654 23
440 2 -8.34588 -2.93202 7.80095 21
441 2 -10.3797 -0.00349291 12.6692 17
442 2 -11.4735 -2.79743 14.0613 9
443 2 -4.3397 -17.5758 6.58045 9
444 2 -6.66474 -13.4447 5.12759 16
445 2 -6.93927 -11.5115 2.40451 21
446 2 -4.99995 -14.2135 2.37647 19
447 2 -8.93649 -10.838 10.1723 18
448 2 -6.87298 -11.7123 7.7737 18
449 2 -3.34523 -14.0548 4.93227 19
450 2 -4.68936 -11.3359 5.20549 20
451 2 -6.31217 -7.96822 4.87987 22
452 2 -6.79686 -5.75518 2.33296 24
453 2 -5.03964 -8.85144 2.34276 21
454 2 -5.00209 -10.4956 10.2253 20
455 2 -6.93492 -8.36256 10.1321 22
456 2 -6.61845 -5.96 7.9595 18
457 2 -4.95252 -9.12364 7.21756 23
458 2 -6.66861 -5.87684 12.6602 21
459 2 -4.30644 -13.1768 11.2906 14
460 2 -5.00882 -4.7643 4.909 21
461 2 -6.63433 -2.0758 4.5165 23
462 2 -7.00609 0.196904 2.50946 21
463 2 -4.9251 -2.84926 2.23817 24
464 2 -4.92087 -5.27415 10.3881 22
465 2 -6.44388 -2.05501 10.3543 22
466 2 -6.26797 -0.193633 7.64676 22
467 2 -4.85913 -3.08329 7.64652 20
468 2 -4.72313 -8.51813 14.6574 10
469 2 -6.48573 -2.39546 15.6629 12
470 2 -6.68561 -0.249189 13.3193 19
471 2 -4.79202 -3.04335 13.0907 18
472 2 -3.68751 -15.4094 9.62445 13
473 2 -9.58264 -13.1943 11.0663 10
474 2 -3.53593 -11.6102 2.7936 22
475 2 -1.80378 -14.5835 2.14459 22
476 2 -1.81161 -14.8058 7.92801 17
477 2 -3.12943 -11.786 8.07831 20
478 2 -5.12935 -14.6074 7.56869 15
479 2 1.09801 -10.1488 15.1084 11
480 2 -1.19758 -10.6141 5.15541 22
481 2 -3.39181 -7.8928 4.77093 24
482 2 -3.60173 -5.757 2.50648 22
483 2 -1.78512 -8.91019 2.50562 22
484 2 -1.38891 -10.7681 10.0565 19
485 2 -2.9885 -8.2489 9.96314 22
486 2 -3.36082 -5.70377 7.46017 23
487 2 -1.81474 -8.54857 7.5102 21
488 2 -4.3712 -5.33427 14.8935 16
489 2 -4.05149 -7.27874 12.0703 18
490 2 -7.17922 -12.1242 12.1706 10
491 2 -1.60791 -4.80351 4.97139 22
492 2 -3.027 -1.72913 4.92586 21
493 2 -3.60565 0.330786 2.43506 22
494 2 -1.72841 -2.81742 2.29417 24
495 2 -1.65694 -5.36312 10.096 24
496 2 -3.16324 -2.45581 10.5325 21
497 2 -3.29065 -0.290257 7.83559 22
498 2 -1.78748 -2.83283 7.6468 24
499 2 0.766861 -7.34673 16.0175 14
500 2 -2.20061 0.804802 15.8183 17
501 2 -1.29084 -3.41991 12.8235 22
502 2 0.27126 -1.80776 15.5555 21
503 1 -15.2742 1.09834 -7.58374 15
504 1 -16.5301 -2.0167 -7.58197 12
505 1 -15.1447 6.55808 -2.27584 13
506 1 -15.4765 2.89016 -4.81209 15
507 1 -14.8676 0.868497 -2.59516 19
508 1 -17.0262 5.26703 0.753089 11
509 1 -11.8112 6.81283 -7.47219 20
510 1 -13.8632 9.3487 -7.95215 13
511 1 -14.8422 8.08013 0.0490994 17
512 1 -12.5959 0.195929 -11.2035 12
513 1 -15.8006 6.44893 -8.39594 8
514 1 -14.7771 4.02784 -9.8054 11
515 1 -11.6152 1.05863 -7.84629 24
516 1 -13.6965 3.93905 -7.25855 18
517 1 -13.6554 5.8114 -4.95574 16
518 1 -11.8566 2.89841 -5.41554 19
519 1 -11.488 1.0505 -2.64206 23
520 1 -13.375 3.77353 -2.6559 19
521 1 -13.5242 6.18188 -11.551 10
522 1 -11.6533 3.22455 -10.1664 18
523 1 -12.0279 8.56033 -10.1813 17
524 1 -13.1239 11.6233 -5.81817 8
525 1 -12.0588 8.73613 -5.25633 18
526 1 -11.9558 6.7491 -2.17335 22
527 1 -13.5025 9.84372 -2.23479 12
528 1 -10.0678 11.5955 -5.00667 20
529 1 -8.04552 6.24382 -12.5958 16
530 1 -8.44363 1.14124 -13.0714 18
531 1 -10.0638 4.27827 -12.9271 17
532 1 -10.3512 5.99733 -10.4626 21
533 1 -8.27338 3.10238 -10.2063 23
534 1 -8.02742 1.1897 -7.51614 22
535 1 -9.86678 3.78818 -7.5709 22
536 1 -10.1486 5.76836 -4.75581 22
537 1 -8.51702 2.76488 -4.6178 22
538 1 -8.14294 0.862834 -2.44828 20
539 1 -10.1191 4.02654 -2.75421 19
540 1 -11.0486 8.01291 -13.125 12
541 1 -8.74242 8.91599 -9.93284 20
542 1 -8.6424 6.7081 -7.28202 20
543 1 -10.5572 9.72052 -7.9385 18
544 1 -11.2202 13.8379 -7.70441 9
545 1 -8.47055 8.8082 -5.39809 22
546 1 -8.10374 6.89588 -2.29477 23
547 1 -10.146 9.73303 -2.79472 19
548 1 -8.36684 13.2126 -7.9691 13
549 1 -8.61067 14.259 -5.41684 14
550 1 -8.19373 12.6263 -2.923 19
551 1 -6.92587 8.59152 -14.6976 12
552 1 -5.84014 2.85151 -15.384 12
553 1 -5.26571 0.91989 -12.54 18
554 1 -8.77477 2.83854 -15.8152 10
555 1 -6.67835 6.02805 -10.256 21
556 1 -5.14925 2.9603 -10.5065 20
557 1 -5.02928 1.13831 -7.46714 24
558 1 -6.33712 4.15206 -7.96929 19
559 1 -6.76301 5.75171 -5.0213 23
560 1 -5.01652 2.83604 -5.10284 20
561 1 -4.71002 1.12699 -2.20094 21
562 1 -6.31936 3.92237 -2.41685 21
563 1 -8.00466 5.36723 -15.4061 11
564 1 -5.76874 11.748 -13.6455 9
565 1 -10.1955 11.6727 -10.3555 11
566 1 -5.02782 8.44825 -10.1538 20
567 1 -4.53186 6.53897 -7.37575 22
568 1 -6.7729 8.92253 -7.91809 20
569 1 -6.68695 11.2655 -5.2475 23
570 1 -5.14734 8.73607 -5.05454 22
571 1 -4.89911 7.06085 -2.15565 23
572 1 -6.73734 9.65155 -2.6551 22
573 1 -4.70158 12.8263 -8.89116 18
574 1 -8.7771 10.9316 -13.4198 8
575 1 -5.20648 14.1537 -6.26543 20
576 1 -5.08556 12.8377 -3.476 19
577 1 -1.33768 18.7055 -3.98439 8
578 1 -4.93532 6.17089 -15.1221 13
579 1 -1.53668 2.87338 -15.6253 15
580 1 -2.04708 0.97715 -12.9875 21
581 1 -3.50441 3.74265 -13.1391 19
582 1 -3.22219 5.70021 -10.133 24
583 1 -1.72118 2.81544 -10.3618 22
584 1 -1.48132 1.04337 -7.62103 24
585 1 -3.36969 3.56354 -7.5163 20
586 1 -3.07765 5.91609 -4.88927 23
587 1 -1.69726 2.97199 -4.83044 24
588 1 -1.44405 1.13118 -2.34331 23
589 1 -3.01407 3.85243 -2.51683 21
590 1 -1.9391 13.8216 -11.004 13
591 1 -1.45879 6.39632 -14.5116 19
592 1 -3.35952 7.28487 -12.5817 17
593 1 -3.42109 10.9188 -11.8403 18
594 1 -1.74038 8.74961 -10.3223 22
595 1 -1.68629 6.74932 -7.43038 23
596 1 -3.22311 9.72492 -7.71282 21
597 1 -3.35247 11.4914 -5.51922 19
598 1 -1.68045 8.46961 -5.03466 22
599 1 -1.56833 7.0174 -2.17069 23
600 1 -3.39132 9.71011 -2.50711 22
601 1 -6.81092 11.5722 -10.4213 15
602 1 -5.97036 16.8207 -7.11699 8
603 1 -1.44896 12.708 -7.63565 20
604 1 -3.00995 15.6992 -8.64602 13
605 1 -3.26302 16.9709 -5.54575 13
606 1 -1.49301 13.9725 -4.88977 21
607 1 -1.75699 12.2818 -2.33278 24
608 1 -3.38345 14.616 -2.18165 17
609 2 -16.8765 -1.64395 -5.77121 12
610 2 -13.8326 3.82083 -5.42781 16
611 2 -15.8803 1.28321 -5.84871 14
612 2 -13.3071 0.0570289 1.98214 24
613 2 -16.8275 5.44626 2.69008 12
614 2 -15.5844 6.17999 -0.377805 14
615 2 -15.3171 2.93684 -2.85867 15
616 2 -15.0293 8.43675 -1.9382 9
617 2 -14.4567 8.55636 1.92313 18
618 2 -13.5419 9.82624 -6.07798 12
619 2 -11.7745 1.40197 -9.95005 20
620 2 -9.96517 6.29316 -12.7428 13
621 2 -15.0233 5.90288 -10.189 9
622 2 -11.4642 0.848047 -5.34576 19
623 2 -14.8871 2.70088 -8.3223 17
624 2 -14.3905 5.7727 -7.18213 14
625 2 -11.7091 3.33055 -7.67283 20
626 2 -11.3521 0.978108 -0.387684 21
627 2 -12.9629 4.02936 -0.799753 20
628 2 -13.5517 5.92511 -3.04079 19
629 2 -11.7654 2.87514 -3.34382 23
630 2 -13.1483 4.11208 -11.0945 13
631 2 -11.9949 6.57331 -5.61725 20
632 2 -15.2582 8.21118 -8.22139 8
633 2 -12.1634 8.47746 -8.45184 16
634 2 -11.6236 6.91841 -0.262153 20
635 2 -13.0208 9.76163 -0.517187 16
636 2 -12.805 13.0342 -7.05898 8
637 2 -12.0359 8.74343 -3.13446 20
638 2 -12.2509 7.22872 -12.0312 12
639 2 -10.8219 10.0374 -5.91993 18
640 2 -8.52185 1.23785 -11.3986 22
641 2 -9.84245 4.0641 -10.8641 19
642 2 -8.88578 4.13562 -14.3909 12
643 2 -11.1545 -0.44233 -12.7124 15
644 2 -8.07223 1.12502 -5.58538 21
645 2 -9.80229 3.71552 -5.5406 21
646 2 -10.1605 6.00695 -8.30091 21
647 2 -8.38989 2.82037 -8.38427 23
648 2 -8.23789 0.515398 -0.2976 21
649 2 -9.97089 4.03928 -0.592436 23
650 2 -9.9695 6.07004 -2.88492 19
651 2 -8.31059 2.9111 -2.65086 19
652 2 -8.49655 7.0342 -10.7024 22
653 2 -10.485 9.71179 -9.92534 15
654 2 -3.97535 11.0611 -13.7497 11
655 2 -8.56809 6.60442 -5.48797 20
656 2 -8.39581 12.3159 -5.68398 18
657 2 -9.5779 14.5801 -6.97227 10
658 2 -8.92823 8.48382 -8.19631 18
659 2 -8.22717 7.12689 -0.410033 21
660 2 -9.63511 9.91331 -0.707572 22
661 2 -9.89204 11.7633 -3.13594 16
662 2 -8.60934 8.80236 -3.24507 24
663 2 -5.12504 12.3747 -5.31392 20
664 2 -8.38456 12.9698 -0.801276 17
665 2 -6.28209 16.0675 0.438471 15
666 2 -5.08101 1.00095 -10.5801 20
667 2 -6.64129 4.16703 -9.91338 15
668 2 -7.43927 6.82664 -14.2473 12
669 2 -6.67808 -0.154608 -13.2584 18
670 2 -5.10502 0.969128 -5.43035 23
671 2 -6.69885 3.69747 -5.22903 21
672 2 -6.83258 6.44187 -8.0042 22
673 2 -4.67639 2.97458 -8.55578 24
674 2 -5.23172 0.918051 -0.109243 22
675 2 -6.81499 3.99869 -0.293938 19
676 2 -6.43609 5.82487 -2.82872 21
677 2 -4.79912 2.96039 -3.0903 24
678 2 -4.80266 6.78624 -11.025 19
679 2 -6.6198 9.70101 -9.77821 19
680 2 -7.04585 10.4741 -13.876 11
681 2 -5.133 6.74213 -5.50913 24
682 2 -6.7857 9.46714 -6.00556 21
683 2 -6.61954 12.6243 -8.67778 17
684 2 -4.66451 8.29089 -7.92215 19
685 2 -5.00495 6.79603 -0.0275379 22
686 2 -6.64295 9.70533 -0.547478 21
687 2 -6.60309 11.4614 -3.0871 22
688 2 -5.01295 8.75171 -2.79581 20
689 2 -9.93197 12.4644 -8.6944 15
690 2 -8.66106 11.4191 -11.5432 12
691 2 -4.80486 15.5118 -8.2389 11
692 2 -6.76584 14.9524 -6.49004 15
693 2 -5.22395 12.3398 0.352441 18
694 2 -6.06324 17.4194 -2.58871 11
695 2 -5.29475 14.5596 -2.09874 18
696 2 -1.469 1.10556 -11.1825 20
697 2 -3.50207 3.78213 -10.9804 24
698 2 -6.16204 4.91289 -15.7774 13
699 2 -1.8756 2.99064 -13.5466 20
700 2 -1.77814 1.08042 -5.7421 24
701 2 -3.29159 3.98001 -5.61703 25
702 2 -2.9741 5.69588 -8.24631 22
703 2 -1.75359 2.86704 -8.37654 22
704 2 -1.35099 0.666754 -0.374641 22
705 2 -3.18536 4.14914 -0.381205 25
706 2 -3.15682 6.23945 -2.83282 21
707 2 -1.51589 2.8263 -3.06287 24
708 2 -1.94118 7.10995 -11.3465 20
709 2 -10.1417 9.75503 -13.4535 11
710 2 -5.28188 12.0038 -11.5736 14
711 2 -2.05268 8.51031 -13.8663 16
712 2 -1.29886 6.43488 -5.45335 22
713 2 -3.32203 9.47126 -5.73231 22
714 2 -3.43688 11.8063 -7.46454 17
715 2 -1.64102 8.76192 -8.31784 22
716 2 -1.57855 6.45547 -0.331781 23
717 2 -3.17014 9.67093 -0.442824 23
718 2 -3.54573 11.6769 -2.51114 24
719 2 -1.49153 8.74218 -2.78203 22
720 2 -8.31084 14.4662 -3.54335 15
721 2 -1.43575 12.3545 -5.77655 19
722 2 1.22691 15.8401 -6.25023 14
723 2 -3.19115 14.82 -5.69604 20
724 2 -1.63215 12.4516 -0.386031 23
725 2 -3.15061 15.0332 -0.422789 19
726 2 -3.30679 18.798 -3.64784 9
727 2 -1.46594 14.3518 -2.98878 18
728 1 -17.1408 2.82148 2.21947 13
729 1 -15.42 2.82708 -0.811875 16
730 1 -14.8632 1.21823 1.81459 16
731 1 -16.4858 4.57493 7.61141 10
732 1 -15.1052 2.65087 5.33065 17
733 1 -16.5341 7.85335 8.95232 7
734 1 -13.0206 9.1614 3.02881 19
735 1 -15.0068 6.7284 2.57157 15
736 1 -10.689 10.3626 8.39212 13
737 1 -12.9713 5.40571 0.353882 22
738 1 -11.4302 2.78802 -0.0275756 22
739 1 -11.5699 0.713648 2.82967 21
740 1 -13.5664 3.46355 3.07038 22
741 1 -15.2988 8.30448 5.3243 12
742 1 -11.4912 2.67305 5.64659 22
743 1 -11.8416 1.06061 8.46685 24
744 1 -13.2542 5.76136 5.66527 24
745 1 -13.5125 6.46055 10.4456 13
746 1 -11.991 3.20267 10.8969 21
747 1 -11.8878 0.801087 13.3441 13
748 1 -12.9907 11.0922 0.888096 14
749 1 -11.1858 8.6838 0.328682 22
750 1 -11.4396 6.83259 2.90429 23
751 1 -13.1539 12.0222 4.56426 9
752 1 -11.5316 8.78502 5.74995 20
753 1 -13.7084 8.19265 8.10484 15
754 1 -13.0432 4.03108 8.14417 19
755 1 -10.718 13.2391 2.38622 12
756 1 -9.80873 5.99639 -0.0248426 23
757 1 -8.42048 3.01129 0.0739225 23
758 1 -8.68042 0.999771 3.04703 24
759 1 -10.1767 3.92146 2.62114 21
760 1 -9.84955 5.96075 5.58183 22
761 1 -8.23121 3.03232 5.86988 23
762 1 -8.19831 1.01798 8.4169 22
763 1 -10.052 3.88565 8.43652 23
764 1 -10.1878 5.48899 11.2572 19
765 1 -8.74248 2.51124 10.9201 21
766 1 -8.46766 0.496703 13.1706 16
767 1 -10.2983 3.53205 13.7592 13
768 1 -10.0897 11.6908 -0.749825 14
769 1 -8.31813 8.94781 0.348632 20
770 1 -8.54442 6.76776 3.00766 23
771 1 -9.62639 9.53773 2.95834 20
772 1 -9.93307 11.6092 5.13452 14
773 1 -8.12495 8.57861 5.77644 21
774 1 -8.35887 6.55137 8.48161 22
775 1 -8.99844 13.0002 7.11315 12
776 1 -11.49 7.21632 8.71026 21
777 1 -8.23382 6.58675 13.6953 12
778 1 -6.83516 15.7304 -3.07747 16
779 1 -7.9986 14.2916 3.8374 12
780 1 -5.88112 17.5549 -0.624402 12
781 1 -6.19921 13.198 8.34897 13
782 1 -6.60804 5.81923 0.412953 24
783 1 -5.09474 3.03745 0.285413 22
784 1 -5.37368 1.20117 2.76993 21
785 1 -6.7851 3.84183 2.94645 22
786 1 -6.38883 5.90314 5.48509 23
787 1 -4.93383 3.29997 5.68025 20
788 1 -4.70262 1.03871 8.30479 21
789 1 -6.61515 3.81103 8.50561 20
790 1 -6.59455 5.85643 10.9375 22
791 1 -4.91212 2.81643 10.9015 20
792 1 -4.97788 0.247563 13.9249 23
793 1 -6.94992 3.23091 13.4619 20
794 1 -6.65635 11.7192 -0.652993 16
795 1 -5.19197 8.91621 0.32208 21
796 1 -5.04168 6.55833 2.79918 23
797 1 -6.36113 9.32927 2.97997 20
798 1 -6.31191 11.5462 5.66258 21
799 1 -4.75109 8.59297 5.51738 23
800 1 -4.95865 6.65013 8.21802 22
801 1 -6.56639 9.27935 8.11685 20
802 1 -8.16495 11.2676 9.84275 12
803 1 -5.17462 8.79869 10.8237 14
804 1 -6.75989 5.50289 16.7126 10
805 1 -9.2774 8.42901 10.7555 14
806 1 -4.99596 14.363 -0.0376354 20
807 1 -4.58619 12.3601 2.73493 19
808 1 -8.49702 14.6749 0.273553 16
809 1 -5.47154 14.4375 5.07885 14
810 1 -3.68364 13.9081 7.71807 13
811 1 -3.30031 5.9802 0.110351 21
812 1 -1.77692 3.04236 0.281359 22
813 1 -1.67297 0.781155 2.81722 21
814 1 -3.24117 3.91477 3.1996 23
815 1 -3.00251 5.86277 5.81104 22
816 1 -1.49987 2.81844 5.96148 21
817 1 -1.68299 0.569759 8.35131 22
818 1 -3.43403 3.9378 8.38579 20
819 1 -3.40938 6.05294 10.9377 22
820 1 -1.71685 2.56153 11.065 23
821 1 -1.67371 0.455722 13.8302 22
822 1 -3.57802 3.63123 13.3884 24
823 1 -3.21901 11.5037 0.192941 20
824 1 -1.52786 8.55298 0.194208 25
825 1 -1.46697 6.53952 3.11635 23
826 1 -3.16591 9.47946 2.7457 22
827 1 -2.91982 11.8302 5.38008 23
828 1 -1.47724 8.71987 5.41663 22
829 1 -1.79691 7.19893 8.40781 21
830 1 -3.29166 9.91407 7.71297 20
831 1 -3.2573 11.7808 10.5104 12
832 1 -2.1258 8.92251 11.1171 20
833 1 -2.07817 7.02233 13.4363 17
834 1 -5.26497 6.00703 13.8299 17
835 1 0.268699 17.2284 -0.722468 12
836 1 -1.41841 14.2514 0.361548 23
837 1 -1.37608 12.1836 2.70561 22
838 1 -5.51235 16.0777 2.1653 14
839 1 -2.7815 15.0525 3.62183 17
840 1 -1.28766 12.7515 8.51219 17
841 1 -1.23023 15.8744 6.50497 9
842 1 -0.239387 11.79 11.718 15
843 2 -14.8388 0.891389 5.36931 15
844 2 -16.6427 6.16301 8.23313 11
845 2 -16.6586 3.95513 5.87692 12
846 2 -16.754 3.43403 0.331693 11
847 2 -12.449 1.41157 10.267 21
848 2 -14.9003 3.83054 8.37742 17
849 2 -15.0129 6.78588 4.48026 16
850 2 -12.9936 9.9306 5.13173 16
851 2 -11.5693 0.896906 4.91178 23
852 2 -13.3386 3.77637 5.22772 19
853 2 -13.5183 5.30984 2.19149 23
854 2 -11.72 2.9153 1.91753 22
855 2 -13.1364 -0.771132 12.767 12
856 2 -13.5148 4.53447 10.5699 15