ITEM: TIMESTEP
170000
ITEM: NUMBER OF ATOMS
2000
ITEM: BOX BOUNDS pp pp pp
-30.0 30.0
-30.0 30.0
-30.0 30.0
ITEM: ATOMS id type x y z Coordination
1 2 -16.4892 -0.409725 -3.04801 15
2 1 -3.1466 -17.5259 -4.747 13
3 2 -3.6067 -17.2416 -2.81157 15
4 1 -3.87981 -17.687 0.936453 11
5 2 -3.3122 -17.2324 2.63435 11
6 1 -0.125597 -17.9973 -5.01602 10
7 1 3.18388 -17.6546 -4.66602 12
8 2 -1.62663 -17.1061 -5.7886 14
9 2 3.47779 -17.122 -2.91119 15
10 1 -0.930203 -16.7085 1.80773 14
11 1 -0.333465 -13.8659 8.42853 20
12 1 2.68235 -17.8674 0.175803 8
13 2 -0.861734 -17.3836 3.68397 11
14 2 1.28154 -16.5619 -0.142892 18
15 2 -4.89821 -5.12952 -15.7747 12
16 2 -6.11304 -1.76312 -16.2403 13
17 2 -1.64401 -5.43671 -16.3275 11
18 2 -3.0217 -2.47406 -16.0228 17
19 2 -3.38546 5.89545 -13.4761 19
20 2 -6.9504 1.50921 -16.3195 11
21 2 -1.44221 0.621359 -15.9104 13
22 2 -4.21738 7.4611 -16.033 12
23 2 -3.1566 9.69053 -11.2377 19
24 2 -1.87367 -9.12139 -12.6895 15
25 2 1.46375 -4.59572 -15.0948 19
26 2 0.209734 -2.14524 -16.086 15
27 2 4.60786 -4.43929 -16.534 11
28 2 3.68939 -2.12399 -15.6582 15
29 2 6.79796 -3.22194 -15.8437 12
30 2 1.92278 0.732801 -16.0237 14
31 2 -0.607704 3.98447 -16.0016 12
32 2 3.9598 5.47761 -13.8088 19
33 2 2.75396 4.04537 -15.6036 14
34 2 4.44777 7.43959 -15.9751 12
35 2 10.0058 1.75421 -13.0084 14
36 1 -14.4331 -3.9431 -1.42004 14
37 1 -14.0711 -7.83744 -7.77075 11
38 1 -10.3642 -2.72424 -12.8856 18
39 1 -15.1538 -4.53729 -7.83788 15
40 1 -11.6155 -2.76767 -10.0409 19
41 1 -17.1317 0.0132677 -5.07163 9
42 1 -15.5409 -2.99203 -4.72363 17
43 1 -16.4359 0.141779 4.69972 12
44 1 -16.7707 -1.72476 -1.75464 13
45 1 -10.5446 -13.3527 -7.76132 9
46 1 -7.52239 -10.9937 -12.6987 12
47 1 -10.2537 -11.5647 -10.7006 13
48 1 -11.4851 -10.5591 -8.3061 14
49 1 -11.9595 -5.35565 -13.0457 9
50 1 -13.7544 -5.58404 -5.1221 17
51 1 -12.0292 -8.70592 -5.23172 17
52 1 -11.9667 -10.798 -2.62933 12
53 1 -13.1594 -7.64614 -2.33728 15
54 1 -9.91333 -8.43764 -12.6259 13
55 1 -15.2255 -2.06085 -10.5486 10
56 1 -10.2241 -0.60764 -14.8625 12
57 1 -12.1374 -5.01611 -7.8026 22
58 1 -13.7134 -2.09708 -7.39744 21
59 1 -13.1527 -0.211306 -5.46313 20
60 1 -11.8358 -3.06994 -5.19508 22
61 1 -11.735 -4.97013 -2.68087 22
62 1 -13.6739 -1.76551 -2.95928 18
63 1 -6.92399 -13.5452 -7.84858 14
64 1 -9.90276 -11.9679 -5.33077 18
65 1 -8.26251 -14.701 -5.28741 13
66 1 -10.0431 -13.5476 -2.28301 13
67 1 -10.0855 -3.95764 -16.0843 10
68 1 -10.278 -5.65318 -10.5196 19
69 1 -8.36916 -9.40003 -10.5153 18
70 1 -8.41992 -10.6353 -7.53897 23
71 1 -10.3799 -7.63744 -8.07541 20
72 1 -10.3238 -5.8872 -5.51044 22
73 1 -8.48461 -8.54669 -4.96495 23
74 1 -8.52689 -10.388 -2.52826 22
75 1 -10.3439 -7.63179 -2.49159 22
76 1 -6.70866 -5.7171 -15.8882 12
77 1 -8.78162 -5.34043 -13.3139 19
78 1 -7.86373 -2.46388 -16.8198 8
79 1 -10.2644 0.093295 -10.1498 20
80 1 -8.47001 -3.16789 -10.6455 20
81 1 -8.24214 -4.89606 -8.02085 21
82 1 -10.1728 -1.92629 -7.79337 23
83 1 -9.90038 0.0622704 -5.0015 24
84 1 -8.84652 -3.08186 -5.15989 22
85 1 -8.25682 -4.82607 -2.62294 24
86 1 -10.1081 -2.10216 -2.46962 23
87 1 -6.35627 -12.0007 -10.4523 17
88 1 -5.97799 -16.4107 -6.64835 11
89 1 -6.94341 -11.6352 -5.16871 21
90 1 -4.72568 -15.1448 -4.86101 15
91 1 -5.31868 -16.5178 -2.20895 12
92 1 -6.53866 -13.5571 -2.58546 20
93 1 -3.25069 -6.13481 -15.7451 14
94 1 -4.07963 -13.2487 -12.6734 12
95 1 -6.58199 -8.06727 -13.0559 16
96 1 -6.44542 -6.03047 -10.8064 21
97 1 -4.83783 -9.01541 -10.3053 20
98 1 -4.76724 -11.2853 -7.70085 19
99 1 -6.84501 -7.98397 -8.03193 21
100 1 -6.6283 -5.78523 -5.69788 20
101 1 -4.8158 -8.98308 -5.08034 22
102 1 -5.46344 -10.4376 -2.57545 22
103 1 -6.95986 -7.49117 -2.36778 24
104 1 -5.98062 -0.126571 -16.9728 9
105 1 -4.85769 -3.0104 -15.875 16
106 1 -4.8874 -5.06907 -13.7527 19
107 1 -6.30044 -2.58496 -12.9054 15
108 1 -6.98027 -0.127947 -10.4906 20
109 1 -4.88808 -2.84935 -10.3659 22
110 1 -5.05196 -4.8805 -7.75902 23
111 1 -6.62779 -1.94306 -7.64265 23
112 1 -6.64152 -0.0322562 -5.27162 20
113 1 -5.30285 -3.05665 -5.16658 23
114 1 -5.24888 -4.64563 -2.37068 23
115 1 -6.76855 -1.84621 -2.88053 20
116 1 -2.97142 -12.1367 -10.023 21
117 1 -1.56822 -14.5488 -10.6562 13
118 1 -2.90392 -16.0316 -7.52988 14
119 1 -4.54421 -14.9327 -9.67935 12
120 1 -3.33085 -11.1376 -4.99788 19
121 1 -1.91137 -14.7512 -4.56745 23
122 1 -1.9344 -17.4234 -1.87049 15
123 1 -3.49215 -13.1207 -2.2668 19
124 1 3.1131 -7.94109 -12.607 19
125 1 -4.63399 -10.7751 -13.9171 11
126 1 -1.40227 -11.0942 -12.9046 13
127 1 -3.43653 -7.98299 -12.7002 18
128 1 -3.45323 -5.94449 -10.3561 22
129 1 -1.56126 -8.93397 -10.3347 21
130 1 -1.75884 -10.5764 -7.41804 23
131 1 -3.45275 -7.90095 -7.56 23
132 1 -3.41669 -5.72138 -4.89846 23
133 1 -1.79439 -8.78607 -4.93292 23
134 1 -1.98777 -10.8406 -2.50201 22
135 1 -3.38493 -7.71154 -2.48313 24
136 1 -3.24966 -0.392097 -15.6877 19
137 1 -1.44105 -3.40203 -15.7455 16
138 1 -1.68949 -5.05298 -12.8717 21
139 1 -2.98347 -2.06044 -13.3344 21
140 1 -3.37706 -0.174605 -10.4313 22
141 1 -1.25319 -3.04663 -10.3842 20
142 1 -1.84924 -4.95713 -7.65634 24
143 1 -3.17428 -2.21442 -7.76427 24
144 1 -3.28409 -0.254052 -5.5972 20
145 1 -1.77381 -2.78052 -5.12429 22
146 1 -1.62864 -4.70377 -2.16853 25
147 1 -3.43825 -2.22093 -2.29898 21
148 2 -16.4933 -4.33051 6.77704 12
149 2 -13.2789 -7.44958 -5.79317 14
150 2 -8.10446 -9.15527 -12.846 14
151 2 -15.1798 -4.58954 -5.83173 16
152 2 -15.9386 -0.836702 -9.11214 10
153 2 -15.2445 -2.72616 -8.37797 16
154 2 -14.7921 -3.46905 2.79069 17
155 2 -16.7854 -1.53836 0.0685504 12
156 2 -15.2575 -2.96291 -2.82811 16
157 2 -14.9913 -4.62003 0.318928 14
158 2 -10.5734 -10.8498 -6.7856 16
159 2 -12.5214 -8.93318 -8.14251 12
160 2 -14.1027 -6.03268 -8.26646 11
161 2 -10.5421 -6.5281 -12.3368 12
162 2 -8.09354 -11.3403 -10.7527 16
163 2 -11.4224 -10.67 -0.838706 17
164 2 -13.3121 -7.89727 -0.343483 15
165 2 -13.4226 -5.9696 -3.10573 19
166 2 -11.9571 -8.84421 -3.2573 17
167 2 -13.1787 -1.56939 -10.5719 16
168 2 -8.27322 -3.02502 -12.6907 19
169 2 -11.2529 -3.93063 -11.6063 16
170 2 -12.1651 -5.11573 -5.74628 23
171 2 -13.8493 -2.05297 -5.15081 21
172 2 -13.4409 -0.130949 -7.64239 19
173 2 -12.0311 -3.01793 -8.07009 19
174 2 -12.0257 -4.76945 -0.39836 22
175 2 -15.0256 0.890947 0.0566474 21
176 2 -13.4195 0.260879 -3.35893 21
177 2 -11.7835 -3.18554 -2.98718 22
178 2 -9.09743 -13.691 -6.6309 13
179 2 -10.5427 -12.1145 -9.0738 12
180 2 -9.7358 -13.7628 -0.458482 13
181 2 -10.4505 -11.9222 -3.36543 15
182 2 -8.59039 -14.3881 -3.11231 13
183 2 -5.84206 -12.0304 -12.6238 13
184 2 -10.1064 -9.94308 -11.617 10
185 2 -10.5806 -4.44862 -14.1391 12
186 2 -6.93938 -6.08848 -13.6873 18
187 2 -8.14388 -10.2597 -5.35972 18
188 2 -10.3205 -7.92298 -5.99949 20
189 2 -10.697 -5.86469 -8.76342 18
190 2 -8.64819 -8.78681 -8.75286 23
191 2 -8.36624 -10.3752 -0.0623126 21
192 2 -9.69042 -7.39757 -0.534144 23
193 2 -10.0722 -5.68212 -3.39608 23
194 2 -8.43666 -8.54912 -2.96945 19
195 2 -8.12657 -5.4204 -10.4261 20
196 2 -9.85608 -1.90931 -10.3724 21
197 2 -4.42246 1.03147 -16.1687 14
198 2 -7.90899 -4.24116 -16.3716 11
199 2 -8.72969 -4.84186 -5.96603 24
200 2 -10.6643 -2.11677 -6.11775 23
201 2 -10.1848 0.370791 -8.19481 21
202 2 -8.27409 -3.08896 -8.42834 22
203 2 -8.47308 -4.7749 -0.52505 24
204 2 -10.3735 -2.09161 -0.291116 21
205 2 -10.1949 -0.0202966 -3.11735 24
206 2 -8.61585 -2.98954 -3.07234 23
207 2 -4.79472 -15.9495 -8.10087 11
208 2 -6.76322 -11.7728 -7.39108 19
209 2 -5.86438 -13.5839 -9.29654 16
210 2 -6.53612 -14.7109 -5.92559 14
211 2 -5.42335 -16.5737 -0.248818 13
212 2 -6.59266 -13.6506 -0.579208 22
213 2 -7.06032 -11.4498 -3.01404 20
214 2 -5.06548 -14.5711 -3.09762 19
215 2 -4.53541 -10.9004 -9.96952 20
216 2 -6.36136 -7.82554 -11.0561 20
217 2 -9.44458 1.14658 -14.3218 11
218 2 -5.06394 -9.02991 -13.6135 14
219 2 -5.15529 -10.9135 -5.34401 18
220 2 -6.9929 -7.71496 -5.78478 23
221 2 -6.68596 -6.00729 -8.25072 18
222 2 -4.96156 -9.07006 -8.13056 20
223 2 -5.28632 -10.4287 -0.780416 24
224 2 -6.82526 -7.50629 -0.516535 24
225 2 -6.69165 -5.64629 -3.50955 22
226 2 -4.71306 -8.66937 -3.36201 21
227 2 -4.94965 -4.81474 -10.7931 21
228 2 -6.20564 -2.05835 -11.1375 20
229 2 -9.82522 -2.06859 -16.2288 10
230 2 -4.63061 -3.10259 -13.7731 21
231 2 -4.8978 -4.87036 -5.70281 22
232 2 -6.99826 -2.21996 -5.62578 22
233 2 -6.84447 -0.093364 -8.47861 25
234 2 -5.19202 -2.99434 -8.27743 21
235 2 -5.03349 -5.08037 -0.453603 23
236 2 -7.02566 -2.25668 -0.346037 23
237 2 -6.95245 -0.0123111 -3.22301 22
238 2 -5.08808 -2.83275 -2.85583 21
239 2 -3.10793 -13.7485 -11.2846 15
240 2 -2.95243 -11.9908 -13.7421 9
241 2 -4.78573 -17.0434 -5.45435 12
242 2 -2.95679 -15.0286 -5.99795 15
243 2 -2.88992 -12.2143 -8.0066 21
244 2 -2.4329 -14.7805 -8.98727 12
245 2 -1.91069 -16.7148 0.231603 16
246 2 -3.34096 -13.1076 0.0216907 21
247 2 -3.87693 -11.2934 -3.27303 21
248 2 -1.76001 -14.3662 -2.05636 20
249 2 -1.29468 -11.1215 -10.9615 21
250 2 -3.38713 -7.82958 -10.6802 22
251 2 -3.43935 -6.22076 -13.6618 20
252 2 1.72671 -9.15216 -12.8598 14
253 2 -1.62619 -11.0209 -5.47575 21
254 2 -3.14653 -7.53647 -5.53635 24
255 2 -3.54567 -5.93069 -8.23258 23
256 2 -1.68664 -8.69067 -8.32582 23
257 2 -1.61425 -10.5117 -0.514499 23
258 2 -3.43641 -7.6353 -0.524437 22
259 2 -3.3408 -5.54689 -2.66261 20
260 2 -1.52503 -9.0173 -2.83715 22
261 2 -1.43673 -5.06348 -10.9212 22
262 2 -2.98558 -2.11858 -10.4687 20
263 2 -3.68949 -0.257858 -13.6957 20
264 2 -1.53433 -3.31773 -13.7642 25
265 2 -1.88673 -4.771 -5.49723 21
266 2 -3.58349 -2.02364 -5.49965 22
267 2 -3.39783 -0.460642 -8.20907 20
268 2 -1.49765 -3.14555 -8.49967 22
269 2 -1.59927 -4.62013 -0.246257 23
270 2 -3.35824 -1.97643 -0.305828 24
271 2 -3.28124 -0.366685 -2.79558 22
272 2 -1.64478 -2.76445 -2.99401 24
273 1 -16.9167 -3.01009 8.07952 10
274 1 -15.1113 -1.14587 9.95845 10
275 1 -12.9091 -1.74107 14.4661 11
276 1 -16.546 0.0332403 1.02718 11
277 1 -15.5221 -2.78392 0.966412 18
278 1 -15.3272 -5.37346 2.60206 13
279 1 -15.1362 2.51724 10.1512 10
280 1 -16.9793 6.432 5.66503 11
281 1 -16.4293 -3.27564 4.29491 14
282 1 -11.5443 -2.20872 11.4054 22
283 1 -15.0483 -5.1261 8.47261 13
284 1 -13.5008 -6.04626 0.3187 19
285 1 -11.7197 -8.81823 -0.110252 18
286 1 -11.3971 -10.6605 2.90843 16
287 1 -13.4457 -8.11343 2.67996 13
288 1 -13.8194 -5.26395 5.54054 21
289 1 -11.5719 -8.76487 4.95461 16
290 1 -13.8149 -8.05284 6.41601 10
291 1 -16.9366 -5.84275 5.82926 10
292 1 -9.79395 -2.03245 14.1396 14
293 1 -4.34773 -6.28847 16.3951 11
294 1 -13.6082 -0.0924884 0.129897 22
295 1 -12.2157 -3.05461 0.181767 23
296 1 -11.8082 -4.97809 2.84718 23
297 1 -13.6324 -2.10614 3.14161 24
298 1 -13.3005 -0.0413009 5.69314 17
299 1 -11.7331 -2.97906 5.47725 19
300 1 -12.0716 -4.00905 8.42847 20
301 1 -14.3454 -2.67617 6.79695 18
302 1 -13.1493 0.200797 11.5968 15
303 1 -14.343 -3.49146 11.4188 12
304 1 -9.79343 -11.7997 0.0584227 20
305 1 -8.26571 -14.5809 0.111984 14
306 1 -9.93398 -13.442 3.08573 13
307 1 -10.1313 -11.7379 5.84455 13
308 1 -6.15158 -14.0553 8.41948 14
309 1 -10.1105 -5.62084 0.220083 24
310 1 -8.30017 -8.45956 0.103473 23
311 1 -8.29778 -10.8454 2.84873 24
312 1 -10.0012 -7.61382 2.56569 21
313 1 -10.1726 -5.97529 5.70356 19
314 1 -8.58692 -8.62965 5.44993 20
315 1 -8.31354 -11.2402 8.80653 12
316 1 -10.4109 -8.0918 8.08673 15
317 1 -10.7607 -5.4604 10.6165 15
318 1 -6.38021 -7.93228 13.5672 13
319 1 -10.2198 -0.0497086 0.0651329 21
320 1 -8.69071 -2.85433 0.432669 25
321 1 -8.68856 -4.81231 3.14823 22
322 1 -10.3151 -2.26791 2.91831 22
323 1 -10.1826 0.107919 5.57248 21
324 1 -8.32208 -3.02442 5.63406 22
325 1 -8.69283 -4.71123 8.38409 24
326 1 -9.91191 -1.56679 8.1536 20
327 1 -9.44767 -0.0849533 10.498 17
328 1 -8.4062 -2.9581 11.1803 21
329 1 -8.78847 -4.85119 13.2 14
330 1 -12.1566 -4.42572 13.7644 10
331 1 -6.78867 -11.718 -0.104382 23
332 1 -4.9084 -14.7188 -0.0303018 20
333 1 -9.25919 -14.1595 7.28642 9
334 1 -6.55648 -13.7957 2.62498 15
335 1 -6.44798 -11.7652 5.26023 18
336 1 -6.89902 -15.1458 5.59215 9
337 1 -3.38213 -13.1276 8.80767 18
338 1 -8.7728 -8.14962 10.3872 15
339 1 -6.74921 -5.51161 0.233201 23
340 1 -5.27337 -8.57098 0.111637 22
341 1 -5.14619 -10.2928 2.98333 24
342 1 -6.97544 -7.79543 2.97428 23
343 1 -6.93274 -5.87506 5.70179 22
344 1 -5.08861 -8.73305 5.76456 23
345 1 -5.10799 -10.53 8.05944 18
346 1 -7.08979 -7.79765 8.35417 19
347 1 -7.10243 -5.69624 11.0951 21
348 1 -5.62921 -9.1703 11.0318 16
349 1 -4.47725 -10.637 14.5305 11
350 1 -1.98307 -8.70674 16.4192 12
351 1 -6.64667 -0.348854 0.118883 19
352 1 -5.08228 -2.90758 0.20029 24
353 1 -5.43371 -4.70612 3.07165 23
354 1 -6.68663 -2.11432 2.82679 20
355 1 -6.79675 0.127187 5.71846 23
356 1 -4.95008 -2.80634 5.79722 24
357 1 -5.13741 -5.12583 8.29896 22
358 1 -6.52697 -2.00992 8.28234 22
359 1 -6.45576 0.0384587 11.1855 20
360 1 -5.41028 -2.81891 10.8865 21
361 1 -5.29063 -5.13082 14.0845 18
362 1 -6.78983 -1.89884 13.5405 18
363 1 -3.48605 -11.2547 0.136951 24
364 1 -1.81169 -14.3998 -0.18453 19
365 1 -2.55647 -18.0619 4.38048 9
366 1 -3.25903 -12.9943 2.4322 21
367 1 -3.01246 -11.812 5.71951 22
368 1 -3.98844 -15.5765 3.05271 19
369 1 -3.30971 -15.7577 7.25941 10
370 1 -3.32429 -11.316 11.2031 17
371 1 -1.8488 -13.8213 12.12 11
372 1 -3.51347 -5.89372 0.51226 25
373 1 -1.78274 -8.62635 0.171715 22
374 1 -2.04994 -10.3788 2.94421 22
375 1 -3.61628 -7.59882 2.86449 23
376 1 -3.50144 -5.84875 5.42159 19
377 1 -1.91569 -8.83556 5.47966 21
378 1 -1.68077 -10.9011 8.55662 25
379 1 -3.57064 -7.70191 8.44005 21
380 1 -3.58529 -5.6058 11.0557 21
381 1 -2.10781 -8.97283 10.868 19
382 1 -1.63061 -10.5913 13.9933 17
383 1 -3.53324 -7.52128 13.7805 21
384 1 -3.27732 -0.0133807 0.293325 24
385 1 -1.65226 -2.91124 0.31226 22
386 1 -1.70262 -4.38402 3.0602 21
387 1 -3.69165 -1.81516 2.86224 23
388 1 -3.35924 -0.203888 5.97518 25
389 1 -1.83379 -2.76685 5.66479 21
390 1 -1.79311 -5.00606 8.4287 21
391 1 -3.53141 -2.12674 8.29256 23
392 1 -3.48008 -0.0408201 10.8824 21
393 1 -1.93639 -2.83463 11.0667 20
394 1 -1.56167 -4.76047 13.6182 20
395 1 -3.59483 -1.90358 13.8861 23
396 2 -16.3116 0.32608 2.84026 13
397 2 -15.5723 -3.79626 9.7504 12
398 2 -13.7068 -4.44254 7.26821 17
399 2 -14.5205 3.19639 2.65171 16
400 2 -16.9984 -1.67025 4.91362 12
401 2 -16.298 -5.33438 4.14187 10
402 2 -13.5727 -1.65566 11.1306 16
403 2 -11.4849 -8.81165 1.86592 22
404 2 -11.382 -10.8225 4.82947 14
405 2 -15.4864 -1.60303 8.01254 15
406 2 -13.5818 -6.21335 2.27492 17
407 2 -13.5605 -7.96844 4.54024 15
408 2 -15.0086 -6.51476 6.82532 10
409 2 -12.0275 -8.13944 7.04941 13
410 2 -11.3623 -4.75571 4.67792 21
411 2 -13.4039 -2.0017 5.20829 20
412 2 -13.8343 -1.9544 -0.748167 22
413 2 -12.073 -2.95252 2.2105 25
414 2 -12.2777 -3.95665 10.4865 17
415 2 -13.8865 -3.4985 13.2544 10
416 2 -14.9841 0.738188 10.5069 9
417 2 -11.6256 -2.42518 7.41857 19
418 2 -10.6133 -5.01057 12.6089 15
419 2 -9.92055 -13.4142 5.00842 14
420 2 -10.0611 -11.7302 2.02433 17
421 2 -8.57518 -14.113 1.99684 13
422 2 -9.41116 -12.3097 7.59886 11
423 2 -8.19748 -10.6837 5.54009 18
424 2 -10.1451 -7.80258 4.67704 22
425 2 -10.2629 -5.63672 2.296 22
426 2 -8.61836 -9.01804 2.5349 21
427 2 -5.3954 -9.42973 13.2734 12
428 2 -10.2544 -7.1065 9.8524 15
429 2 -10.3792 -5.03182 7.63701 20
430 2 -8.47871 -8.22559 7.31055 20
431 2 -8.37904 -3.01113 13.4121 18
432 2 -2.85323 -7.24412 16.6545 10
433 2 -8.5966 -4.92306 5.02067 24
434 2 -10.0108 -1.90366 5.18855 21
435 2 -10.2211 -0.340063 2.24377 22
436 2 -8.372 -3.23795 2.37268 23
437 2 -8.77511 -4.66263 10.3661 22
438 2 -9.98144 -1.97167 10.1883 21
439 2 -10.1436 0.447317 8.62636 15
440 2 -8.08628 -2.96823 7.69072 20
441 2 -9.3346 -0.156417 14.3959 16
442 2 -11.5675 -2.83985 14.2427 13
443 2 -2.88514 -16.4605 5.52315 10
444 2 -6.6612 -13.4199 4.6144 19
445 2 -6.81277 -11.7443 1.87848 22
446 2 -4.62931 -14.227 1.89892 18
447 2 -8.64876 -9.8845 9.89107 10
448 2 -6.59716 -11.9185 8.16544 16
449 2 -2.89262 -13.2829 4.38476 22
450 2 -4.9881 -10.7083 4.8239 23
451 2 -6.56576 -7.64176 4.85552 22
452 2 -6.93892 -5.84363 2.32804 25
453 2 -5.19448 -8.5069 2.04849 25
454 2 -4.53736 -10.4834 9.91046 17
455 2 -6.88186 -7.63984 10.7351 18
456 2 -6.74029 -5.87264 7.85845 22
457 2 -5.41807 -8.56503 7.81754 20
458 2 -7.36043 -5.87914 13.1165 14
459 2 -3.12272 -11.7151 13.093 12
460 2 -5.19954 -4.77041 5.14413 21
461 2 -6.76908 -1.79403 5.30244 23
462 2 -6.65122 -0.209466 2.25479 23
463 2 -5.17041 -3.04189 2.26869 22
464 2 -5.42982 -4.74676 10.374 22
465 2 -7.15181 -1.58823 10.6812 21
466 2 -6.53664 0.0417156 7.82103 24
467 2 -5.01727 -3.1844 8.08664 19
468 2 -5.20755 -7.06321 14.7134 11
469 2 -6.05128 -1.18149 15.6234 16
470 2 -6.39552 0.452855 13.1815 21
471 2 -5.32902 -3.06953 13.6341 19
472 2 -1.98189 -14.3972 7.56777 17
473 2 -7.63762 -15.0516 7.5914 8
474 2 -3.64398 -11.0243 2.04988 22
475 2 -1.07254 -14.663 1.63454 21
476 2 -2.9747 -13.6245 10.5184 15
477 2 -3.22382 -11.6417 7.67149 23
478 2 -4.66798 -14.4962 7.61345 14
479 2 0.126705 -10.6458 14.8422 13
480 2 -1.65311 -10.6495 4.69495 24
481 2 -3.60954 -7.82676 4.8426 22
482 2 -3.73828 -5.63709 2.49946 21
483 2 -1.77251 -8.48159 2.33228 23
484 2 -1.31382 -10.8533 10.6197 23
485 2 -3.67972 -7.68599 10.5376 23
486 2 -3.33179 -5.92342 7.6804 23
487 2 -1.9587 -9.02906 7.73485 22
488 2 -4.79282 -4.55029 16.1162 13
489 2 -3.47323 -5.56176 13.0164 21
490 2 -1.59996 -8.68367 12.6241 21
491 2 -1.74203 -4.98846 5.10825 22
492 2 -3.46974 -1.88553 5.23189 23
493 2 -3.16453 0.0328838 2.19205 22
494 2 -2.15565 -2.65648 2.23037 23
495 2 -1.91385 -4.60912 10.3617 23
496 2 -3.70607 -1.69598 10.4178 22
497 2 -3.49332 -0.312584 8.03904 22
498 2 -1.77128 -2.76416 7.51743 22
499 2 -0.246949 -8.23175 15.8594 15
500 2 -3.40354 -1.87377 16.8378 15
501 2 -3.58795 -0.0861922 13.3881 19
502 2 -1.97774 -2.89777 13.1693 20
503 1 -14.7142 0.593851 -9.31447 15
504 1 -16.8663 -1.97537 -7.91325 11
505 1 -15.4438 6.09557 -2.38481 17
506 1 -15.063 3.10363 -5.00006 16
507 1 -15.2504 1.05119 -3.12931 16
508 1 -17.1256 5.76269 0.430465 10
509 1 -11.9342 6.30575 -7.59737 19
510 1 -15.333 8.53429 -5.02079 10
511 1 -15.2081 8.50648 0.199327 15
512 1 -12.5298 -0.590856 -12.0554 13
513 1 -14.9274 6.78098 -8.04017 11
514 1 -15.0409 4.36698 -10.4125 11
515 1 -11.9607 1.03411 -7.79499 21
516 1 -13.5074 3.63636 -7.85252 19
517 1 -13.7126 5.48413 -4.91922 21
518 1 -11.6681 2.773 -4.95822 22
519 1 -11.9206 0.781248 -2.46356 20
520 1 -13.6078 3.74689 -2.26626 23
521 1 -12.1807 5.68734 -12.1665 9
522 1 -12.6351 2.66539 -10.7465 13
523 1 -12.0627 8.55044 -9.71779 13
524 1 -12.957 10.1837 -6.42504 13
525 1 -11.653 8.38586 -5.25578 19
526 1 -11.6487 6.25555 -2.49632 21
527 1 -13.3181 9.22916 -2.81968 19
528 1 -10.2258 11.1552 -4.46363 19
529 1 -6.65383 5.13251 -15.3768 15
530 1 -9.79874 1.16307 -12.4475 15
531 1 -9.339 4.42875 -13.7901 14
532 1 -9.97388 5.74973 -10.4074 20
533 1 -8.68151 2.79695 -10.2767 22
534 1 -8.41429 1.0379 -7.83405 21
535 1 -10.2759 3.6926 -7.48679 22
536 1 -9.82118 5.58937 -5.15459 23
537 1 -8.2873 2.68819 -5.03303 23
538 1 -8.51047 0.864839 -2.33461 25
539 1 -9.89337 3.83449 -2.39288 23
540 1 -8.48805 7.00802 -12.7781 16
541 1 -7.80902 8.48283 -10.0219 19
542 1 -8.49165 6.56604 -7.70677 22
543 1 -9.85884 9.36436 -7.27256 22
544 1 -10.796 12.8548 -6.83706 9
545 1 -8.41666 8.23927 -4.86198 23
546 1 -8.09997 6.44489 -2.07291 24
547 1 -10.0926 9.104 -2.49472 21
548 1 -8.52592 12.9521 -8.3034 12
549 1 -8.12803 14.5252 -5.68777 14
550 1 -8.29679 12.3743 -3.06231 16
551 1 -4.98516 7.35853 -12.9189 21
552 1 -5.31128 2.63086 -15.8619 15
553 1 -5.29513 0.971157 -13.138 20
554 1 -8.5078 2.13433 -15.6774 12
555 1 -6.48773 5.74498 -10.1754 23
556 1 -5.1225 2.8291 -10.3758 21
557 1 -5.05851 0.953125 -7.92369 23
558 1 -6.87738 3.78936 -7.59489 25
559 1 -6.83026 5.34183 -5.09882 22
560 1 -4.98472 2.42278 -4.96821 23
561 1 -5.11174 0.740114 -2.46064 24
562 1 -6.59588 4.00591 -2.30294 24
563 1 -6.80489 3.92446 -12.8572 22
564 1 -4.78482 9.09792 -15.5195 9
565 1 -9.73511 10.567 -11.4377 10
566 1 -4.55096 8.74185 -10.2246 20
567 1 -4.89177 6.72716 -7.69078 23
568 1 -6.7012 9.8703 -8.09469 18
569 1 -6.37358 11.1461 -4.96295 20
570 1 -5.11089 8.49311 -4.90523 24
571 1 -5.10222 6.68023 -2.26206 24
572 1 -6.49597 9.61467 -2.52865 21
573 1 -4.86213 11.8779 -7.56489 18
574 1 -7.4135 9.92032 -13.3005 12
575 1 -5.21841 14.1492 -4.95139 20
576 1 -4.5507 12.0817 -2.2887 22
577 1 -1.74786 18.4505 -1.83315 12
578 1 -3.6122 5.78379 -16.0001 12
579 1 -1.5103 2.45156 -15.8349 16
580 1 -2.15831 0.821036 -13.2303 21
581 1 -3.50325 3.86033 -13.2725 23
582 1 -3.04544 5.92074 -10.583 22
583 1 -1.89839 2.89434 -10.5415 21
584 1 -1.71498 0.876639 -7.86397 24
585 1 -3.45909 3.86808 -7.89365 22
586 1 -3.58053 5.52275 -4.91054 24
587 1 -1.76037 2.75729 -5.53903 21
588 1 -2.01683 0.876714 -2.55878 24
589 1 -3.44288 3.70645 -2.39287 24
590 1 -0.326854 14.3916 -9.15226 17
591 1 -1.70277 6.88382 -13.1958 18
592 1 -3.91283 10.5853 -12.8028 14
593 1 -2.55285 11.7747 -10.2285 16
594 1 -1.45062 8.82013 -10.6587 21
595 1 -1.59773 6.54258 -7.40464 23
596 1 -3.08752 9.43584 -7.42699 23
597 1 -3.0394 11.5509 -5.16983 21
598 1 -1.66434 8.68779 -5.04111 22
599 1 -1.59179 6.59563 -2.06226 24
600 1 -3.10147 9.34137 -2.34182 23
601 1 -6.25174 11.7181 -10.4598 15
602 1 -6.10648 17.3577 -6.56155 10
603 1 -1.13604 12.2932 -7.63603 18
604 1 -3.29239 16.3186 -8.25255 10
605 1 -3.42992 17.251 -5.30621 17
606 1 -1.73905 14.6145 -5.4124 22
607 1 -1.41111 12.7194 -2.21595 21
608 1 -3.33791 15.4259 -2.65423 23
609 2 -16.5333 -1.68908 -5.97845 14
610 2 -13.2991 3.792 -5.70743 19
611 2 -16.4211 1.66538 -5.00729 9
612 2 -13.4653 -0.129862 2.76827 21
613 2 -16.9901 6.33144 2.20245 11
614 2 -15.4052 6.407 -0.255341 16
615 2 -15.1301 2.81028 -2.85926 16
616 2 -14.9784 8.01342 -2.82026 13
617 2 -15.4836 8.63147 2.01779 16
618 2 -13.5868 9.33515 -4.71262 13
619 2 -11.5704 1.01574 -11.6232 17
620 2 -10.1242 5.72467 -12.6297 12
621 2 -15.6307 5.52127 -9.14507 7
622 2 -11.5114 0.92973 -5.50825 20
623 2 -14.6232 2.53779 -9.42203 11
624 2 -13.5378 5.41079 -7.87544 17
625 2 -12.2796 2.64374 -8.8457 20
626 2 -11.8614 0.832307 -0.472502 22
627 2 -13.1396 3.99246 -0.372357 21
628 2 -13.5467 5.61684 -2.99646 20
629 2 -11.9268 2.65471 -2.97138 24
630 2 -13.2093 4.32217 -11.5543 12
631 2 -11.6738 6.2971 -5.53997 23
632 2 -15.0082 6.94464 -5.88465 15
633 2 -11.9334 9.16258 -7.96985 15
634 2 -11.5894 6.62675 -0.331781 23
635 2 -13.5432 9.4007 -0.363069 15
636 2 -11.697 11.4563 -5.682 13
637 2 -11.6609 8.09708 -3.11145 20
638 2 -11.9638 6.67682 -10.3506 13
639 2 -10.0402 9.08016 -5.36157 20
640 2 -8.49892 0.879403 -10.6533 16
641 2 -8.76976 3.13658 -12.3204 16
642 2 -8.32085 4.29421 -15.296 13
643 2 -11.3501 -1.18965 -13.3844 14
644 2 -8.28244 0.874102 -5.873 24
645 2 -9.93691 3.71115 -5.27281 19
646 2 -10.2843 5.60738 -8.36335 21
647 2 -8.90252 2.86878 -8.31734 20
648 2 -8.44264 0.923205 -0.34401 22
649 2 -10.1347 3.85061 -0.4595 25
650 2 -9.81473 5.72782 -2.93003 23
651 2 -8.18233 2.69463 -2.8934 23
652 2 -8.32458 6.47404 -10.6306 19
653 2 -11.377 9.98265 -10.8366 9
654 2 -3.41753 10.3393 -14.5717 9
655 2 -8.24784 6.36472 -5.94767 23
656 2 -8.46086 11.9059 -4.79249 22
657 2 -9.46638 14.2029 -7.30713 8
658 2 -8.77206 8.4725 -8.4718 23
659 2 -8.29918 6.60435 -0.247332 22
660 2 -10.3295 9.76203 -0.60175 17
661 2 -10.1318 11.5976 -2.48445 14
662 2 -8.34172 8.53219 -2.92322 24
663 2 -4.80638 12.3309 -5.5474 20
664 2 -6.97902 13.5773 -0.916393 17
665 2 -7.72041 15.8481 0.740469 11
666 2 -4.98656 0.934502 -11.1232 21
667 2 -6.45628 4.01984 -10.8254 20
668 2 -6.77512 6.41438 -13.3357 20
669 2 -5.27765 3.00037 -13.6879 21
670 2 -4.93081 0.708318 -6.03114 25
671 2 -6.58011 3.40781 -5.54058 23
672 2 -6.61744 5.93311 -8.29935 22
673 2 -5.09269 2.88899 -8.30592 22
674 2 -5.13092 0.991728 -0.397557 23
675 2 -6.76873 3.72806 -0.41591 25
676 2 -6.44092 5.77847 -3.12859 23
677 2 -5.16865 2.81304 -2.78691 23
678 2 -4.58016 6.98038 -10.9839 20
679 2 -6.1046 9.70023 -10.3167 20
680 2 -5.57717 9.00809 -13.5869 16
681 2 -5.18432 6.66209 -5.65032 23
682 2 -6.96719 9.61876 -5.80751 22
683 2 -6.66073 11.8331 -8.15446 17
684 2 -4.86415 8.7317 -8.1603 20
685 2 -4.95322 6.65052 -0.20185 23
686 2 -6.99575 9.44421 -0.416147 20
687 2 -6.22874 11.3888 -2.93046 22
688 2 -4.9681 8.6 -2.95742 24
689 2 -9.55306 11.4618 -7.6624 17
690 2 -7.65358 11.2908 -11.7342 11
691 2 -4.37683 17.109 -7.14143 10
692 2 -6.81642 15.55 -6.54501 12
693 2 -4.88471 11.5802 -0.456534 19
694 2 -6.44438 16.988 -1.68352 14
695 2 -3.8028 13.7131 -1.54624 18
696 2 -2.07752 0.977342 -11.0947 22
697 2 -3.72344 3.9961 -11.2588 22
698 2 -4.88127 4.60342 -15.9683 12
699 2 -1.84208 2.7654 -13.6973 20
700 2 -1.79008 0.821022 -5.74635 23
701 2 -3.35309 3.88047 -5.95514 24
702 2 -3.20225 5.92748 -8.6563 23
703 2 -1.68832 2.75521 -8.62765 26
704 2 -1.40966 1.20419 -0.396312 22
705 2 -3.44485 3.67932 -0.39226 25
706 2 -3.23463 5.62846 -2.87089 22
707 2 -2.30634 2.59297 -3.31208 23
708 2 -1.12846 6.67049 -10.9801 22
709 2 -8.78256 9.18861 -12.2136 13
710 2 -4.42714 11.7059 -11.1757 13
711 2 -0.935854 8.36458 -14.2946 14
712 2 -1.77454 6.67501 -5.47955 23
713 2 -3.56217 9.65369 -5.51242 20
714 2 -3.07284 12.0635 -8.03431 18
715 2 -1.52281 8.70214 -8.47498 24
716 2 -1.5249 6.6994 -0.334363 21
717 2 -3.21167 9.1094 -0.394449 23
718 2 -2.76563 11.283 -2.78671 20
719 2 -1.41758 8.25299 -3.01455 21
720 2 -6.87273 14.5207 -3.89579 18
721 2 -1.7115 12.9932 -5.8235 21
722 2 1.20123 16.31 -7.26227 14
723 2 -3.77114 15.4095 -4.79524 21
724 2 -1.30518 12.3871 -0.28397 23
725 2 -3.1623 14.777 0.963752 20
726 2 -3.1481 17.2702 -1.60361 18
727 2 -1.68209 14.9225 -2.35455 21
728 1 -15.3519 5.30001 3.05087 15
729 1 -15.8991 2.49445 -0.89829 13
730 1 -14.8002 1.36895 2.96889 16
731 1 -16.2602 4.84801 7.98312 13
732 1 -14.7651 2.57968 6.53312 16
733 1 -16.2233 8.10953 8.37793 10
734 1 -13.6805 9.52431 2.5495 18
735 1 -17.0483 8.14312 2.96057 10
736 1 -10.3189 10.0232 7.77024 15
737 1 -13.5282 5.8607 0.0883452 23
738 1 -11.9065 2.6211 -0.232264 19
739 1 -11.6707 0.890572 2.63391 21
740 1 -12.9256 3.86526 1.65029 18
741 1 -15.2679 9.38826 5.61986 16
742 1 -11.7588 2.93574 5.56986 19
743 1 -11.7068 1.23182 9.24495 17
744 1 -13.3874 5.80479 5.97806 19
745 1 -13.944 6.36446 10.0025 12
746 1 -11.3414 2.7471 11.6085 19
747 1 -11.2627 0.666714 14.2484 11
748 1 -13.388 11.5938 0.0819153 11
749 1 -11.9683 8.67771 0.421069 22
750 1 -11.9772 6.69219 3.35573 21
751 1 -13.1746 12.1374 3.77008 11
752 1 -12.331 9.21242 5.28866 20
753 1 -13.7923 9.55916 8.70602 10
754 1 -13.1418 3.91167 8.57256 18
755 1 -11.1904 12.8899 2.06115 12
756 1 -9.85071 5.59348 0.485202 24
757 1 -8.3771 2.61104 0.477018 22
758 1 -8.33187 0.66058 3.00907 24
759 1 -10.1008 3.60659 3.06911 22
760 1 -10.5049 5.77143 5.53992 22
761 1 -8.44361 2.93585 5.69078 22
762 1 -8.00381 1.25326 8.58059 23
763 1 -10.134 3.65594 8.41025 25
764 1 -10.3408 5.56087 11.0262 19
765 1 -8.38444 3.10666 11.1997 23
766 1 -8.01715 1.23139 14.1989 18
767 1 -9.98649 4.16353 14.1245 13
768 1 -10.3814 12.0521 -0.710239 14
769 1 -8.65459 8.73168 0.210099 19
770 1 -8.56919 6.96084 2.83131 20
771 1 -10.3258 9.87206 2.67786 21
772 1 -10.2719 11.402 5.16063 15
773 1 -8.43165 8.60343 5.38733 21
774 1 -8.74615 6.38145 8.12314 21
775 1 -8.66546 12.2019 8.32547 13
776 1 -11.7544 7.19119 7.99258 19
777 1 -8.49874 6.86923 13.8243 13
778 1 -6.31913 15.1048 -2.19496 19
779 1 -8.04612 12.7874 2.66698 19
780 1 -6.94356 17.6938 -0.0702952 8
781 1 -6.06872 14.2182 10.5922 8
782 1 -6.43753 5.59032 0.445773 22
783 1 -5.32744 2.7999 0.163644 21
784 1 -5.0652 0.897464 2.97426 23
785 1 -6.76706 3.82727 3.06427 24
786 1 -7.01936 5.74962 5.49561 21
787 1 -4.9929 2.70389 5.47628 23
788 1 -4.83503 0.96001 8.33322 23
789 1 -6.64305 3.90366 8.04285 24
790 1 -6.97995 6.22361 10.7505 20
791 1 -4.98888 3.26312 10.9224 22
792 1 -4.84864 1.28463 14.0058 21
793 1 -6.53987 4.09438 13.5372 21
794 1 -6.84918 11.6296 0.0543659 19
795 1 -5.06362 8.68547 0.319186 22
796 1 -4.92777 6.54412 3.15691 25
797 1 -6.61969 9.60255 2.657 22
798 1 -6.91314 11.4326 5.63295 19
799 1 -5.17302 8.55562 5.81895 22
800 1 -5.16664 6.75537 8.04246 20
801 1 -7.09828 9.56581 8.13631 21
802 1 -6.85274 10.9831 11.1299 13
803 1 -5.25371 8.67462 10.6747 17
804 1 -6.49411 7.41172 16.8509 5
805 1 -9.26604 8.92898 10.518 15
806 1 -4.77199 13.9807 0.0361909 22
807 1 -4.74997 12.4706 2.77954 20
808 1 -8.64858 14.4532 -0.160167 15
809 1 -5.40157 14.0803 4.94736 14
810 1 -5.26626 12.2957 7.77934 19
811 1 -3.30012 5.63962 0.0843161 21
812 1 -1.66035 2.8362 0.564444 24
813 1 -1.83002 0.733514 3.32487 24
814 1 -3.64214 3.67919 2.68658 22
815 1 -3.51868 5.49013 5.58015 22
816 1 -1.66759 2.73716 5.89272 24
817 1 -1.86096 0.924204 8.42498 24
818 1 -3.71993 3.62839 8.33482 22
819 1 -3.32995 5.88542 11.1049 25
820 1 -1.99161 2.97885 11.0007 19
821 1 -1.61042 0.877602 13.1946 19
822 1 -3.27305 4.28564 13.7387 21
823 1 -2.99073 11.6771 -0.145106 21
824 1 -1.46881 8.64658 0.466248 24
825 1 -1.77816 6.70455 2.96622 21
826 1 -3.12383 9.44009 3.0575 23
827 1 -2.98755 10.8515 6.00408 20
828 1 -1.4686 8.50104 5.70982 21
829 1 -1.96375 6.69875 8.26709 22
830 1 -3.25321 9.42346 8.57524 20
831 1 -3.49199 11.6499 10.6881 13
832 1 -1.71752 8.84293 10.8077 18
833 1 -1.83364 6.79183 13.532 16
834 1 -5.31842 6.99656 13.9367 16
835 1 -0.417743 16.8682 0.667277 15
836 1 -1.39901 14.5104 0.213157 24
837 1 -1.61289 12.2985 3.07774 26
838 1 -6.16682 15.6642 1.9064 16
839 1 -2.36975 14.3897 5.66012 17
840 1 -1.62781 12.7974 8.65774 18
841 1 -3.75756 15.0942 7.99848 10
842 1 0.211588 11.9412 11.3799 14
843 2 -15.0278 0.932295 5.66221 15
844 2 -16.9154 6.56596 7.75736 11
845 2 -15.0431 5.46922 5.07871 17
846 2 -16.6653 4.22141 -0.802981 10
847 2 -10.8355 0.866995 11.4546 18
848 2 -15.3304 3.1204 8.26071 13
849 2 -16.6044 8.17268 4.75143 12
850 2 -13.8845 10.2332 4.49131 14
851 2 -11.9381 1.01186 4.88574 18
852 2 -13.3142 3.66077 6.48624 18
853 2 -13.3996 5.75234 2.32379 19
854 2 -11.3701 2.64142 1.80611 22
855 2 -12.8144 -0.454888 13.3135 14