ITEM: TIMESTEP
17000
ITEM: NUMBER OF ATOMS
2000
ITEM: BOX BOUNDS pp pp pp
-30.0 30.0
-30.0 30.0
-30.0 30.0
ITEM: ATOMS id type x y z Coordination
1 1 -9.30462 2.24505 -13.4604 13
2 1 0.66271 -5.48225 -8.51194 19
3 1 6.2332 13.6787 12.0531 15
4 1 8.90531 -9.72204 6.91553 15
5 1 -10.2251 8.90139 -0.837587 17
6 1 14.4143 -10.2933 -8.37288 13
7 1 -10.1186 7.22218 -6.29617 16
8 1 2.00364 -5.97611 12.2584 14
9 1 -9.39865 -2.71959 -11.7396 13
10 1 -10.6207 -10.1309 9.57839 12
11 1 14.506 1.16719 -14.103 9
12 1 -4.12105 -11.4467 3.16938 19
13 1 -10.6469 -8.59699 0.806018 17
14 1 0.825786 3.66039 16.5938 11
15 1 8.78123 -5.51744 3.01577 23
16 1 0.687748 0.963091 11.1341 20
17 1 2.89882 7.68707 -9.48367 16
18 1 3.37765 0.319664 9.70373 19
19 1 -2.7766 4.38214 -18.9286 11
20 1 -8.97129 -2.58916 13.8285 18
21 1 16.5282 3.85287 6.51143 16
22 1 3.13981 9.19648 -13.8949 15
23 1 4.30719 4.3098 -15.4236 21
24 1 14.457 0.00242569 14.8258 9
25 1 -8.10036 -2.50674 1.45972 20
26 1 -5.73797 9.19912 -9.83805 17
27 1 -1.68433 -3.72388 -8.61336 20
28 1 -9.2287 8.84887 7.24034 15
29 1 7.10772 -13.2778 4.37741 21
30 1 4.08029 -2.17844 8.14224 20
31 1 -1.09084 -14.1753 -12.0964 10
32 1 11.5958 -10.6761 0.411613 12
33 1 -5.77463 -16.6745 -5.35874 11
34 1 -11.2809 -6.11328 13.3096 11
35 1 4.37447 -6.08474 -18.6237 12
36 1 11.2606 -10.1193 -13.9106 13
37 1 1.29199 4.19517 -15.4857 20
38 1 -1.58198 1.45546 14.5064 16
39 1 2.97702 -13.6314 7.29373 14
40 1 7.32039 -3.95256 11.9758 15
41 1 -13.947 0.915504 3.48501 12
42 1 -11.449 -0.073144 8.59405 12
43 1 -4.93355 0.257497 -5.53121 20
44 1 -1.88542 14.3966 -0.255613 19
45 1 -3.25571 -12.6534 -14.8765 9
46 1 0.281711 0.224155 -8.3724 19
47 1 8.92259 -4.99093 -11.7124 21
48 1 0.419695 -4.25245 11.4827 20
49 1 -10.6041 3.02938 -1.03485 20
50 1 8.31585 9.02197 -11.825 20
51 1 4.31511 10.6136 4.09673 21
52 1 -4.37901 9.5853 -6.61617 18
53 1 0.60222 14.5099 -0.95988 18
54 1 5.65889 -10.3092 2.44324 19
55 1 4.82565 -8.89977 -6.2043 17
56 1 8.25706 -4.1489 -15.4489 17
57 1 -7.33735 5.68069 6.61005 18
58 1 -11.9389 -4.70915 -8.73067 12
59 1 11.5995 1.71493 7.54269 21
60 1 -5.26243 6.67046 -5.69639 20
61 1 -5.64924 -9.91071 6.22187 18
62 1 1.17842 13.953 13.9869 11
63 1 -12.4475 9.57829 -5.28094 10
64 1 -4.26738 11.0304 11.9929 13
65 1 3.73692 4.50972 -7.25368 20
66 1 -0.18116 -18.3204 8.50041 9
67 1 6.3617 4.78212 6.27873 17
68 1 9.34243 -13.5896 -6.72016 12
69 1 6.70783 10.3349 14.9726 13
70 1 -12.5021 3.31828 -8.97281 11
71 1 -6.91337 5.9702 -10.9308 17
72 1 7.77736 3.20348 7.87553 19
73 1 11.8869 -3.06825 -7.23698 20
74 1 8.23327 -11.0215 2.38607 21
75 1 -13.1739 -2.52376 8.72342 10
76 1 0.157419 17.7662 2.37618 15
77 1 9.49551 -3.15104 14.138 12
78 1 -10.1632 -7.19434 7.33073 20
79 1 -7.74872 -2.0258 -1.90139 22
80 1 11.9269 1.32726 1.03578 20
81 1 8.57459 -5.7685 -3.71749 20
82 1 2.12268 15.3443 11.0258 12
83 1 8.90486 0.392375 9.42385 21
84 1 -5.97901 -5.19548 1.26769 21
85 1 -6.59259 -12.2883 -9.68756 12
86 1 -11.7508 7.56037 3.71304 17
87 1 -4.40643 9.68221 -3.60114 19
88 1 -2.75542 8.4551 -8.80381 21
89 1 6.30856 -3.1061 -7.1049 19
90 1 8.98655 14.2804 -7.6053 12
91 1 9.79349 -8.05884 1.64655 18
92 1 6.98064 -9.07601 9.58257 14
93 1 -1.6677 14.4614 -4.22346 22
94 1 -8.04891 14.825 4.89059 13
95 1 -7.78035 -5.5598 13.1336 20
96 1 -2.91203 5.55092 2.57929 23
97 1 -1.65314 -6.04287 12.7763 21
98 1 14.8016 -8.33479 -3.56039 15
99 1 -10.3085 5.13215 2.3067 17
100 1 -6.74842 -11.4214 1.41147 20
101 1 10.1008 -8.60648 -4.37989 17
102 1 6.58977 -0.0407041 -8.25294 19
103 1 -3.82775 -2.1166 -19.5616 9
104 1 1.91386 11.6289 2.50099 18
105 1 -4.08338 4.76152 -13.7075 19
106 1 3.82707 7.53022 16.7562 13
107 1 3.24168 11.3169 -7.2586 20
108 1 -11.0326 12.5529 -0.149958 11
109 1 1.86702 7.17673 0.0634437 20
110 1 -0.543542 -8.90181 12.8796 13
111 1 17.085 -0.160032 9.77819 12
112 1 3.18998 -6.42623 -9.97398 20
113 1 3.17803 -8.86952 -8.70068 22
114 1 1.01879 3.59987 5.88227 20
115 1 8.32949 0.388527 13.4204 18
116 1 -7.79103 -7.13242 -2.45899 23
117 1 7.20298 -8.10552 2.97075 23
118 1 -7.36338 -9.43492 -4.84564 22
119 1 12.2364 -10.8988 -3.15542 15
120 1 0.453678 5.6113 4.16776 19
121 1 13.5773 6.43473 -13.3619 12
122 1 6.84284 17.1839 -2.25379 12
123 1 -4.1482 -13.8176 9.32212 16
124 1 -7.70125 -13.7638 8.71631 11
125 1 9.92534 -7.33614 -14.536 18
126 1 6.39334 3.11862 -5.04596 19
127 1 14.7387 -10.2559 -1.7492 11
128 1 0.72614 -15.455 7.40312 17
129 1 -7.47777 -13.6835 -0.141771 18
130 1 17.3847 3.38209 9.82755 14
131 1 15.5997 -1.80425 -8.76971 12
132 1 -14.2128 -7.11827 0.686545 11
133 1 11.2793 12.9924 7.78786 11
134 1 17.8136 5.04055 4.22771 20
135 1 -6.62416 4.30159 14.4815 13
136 1 6.90358 7.89462 -2.75773 21
137 1 -1.68545 10.1284 10.9387 16
138 1 -4.15846 11.6233 -1.08841 18
139 1 6.29171 -3.62776 -13.3906 21
140 1 13.1922 -12.6227 -11.4723 8
141 1 0.574044 12.2251 -11.6947 11
142 1 6.191 -0.567019 11.1379 21
143 1 5.5089 0.21045 -18.8419 11
144 1 2.5792 10.3564 -4.59813 20
145 1 14.2239 0.409213 -3.94354 19
146 1 -7.23805 9.13757 -5.30765 19
147 1 -7.9722 15.4404 -1.39212 13
148 1 7.93473 1.14191 -10.4858 18
149 1 9.86886 -8.58534 4.2341 17
150 1 -4.93903 2.95274 -7.36566 16
151 1 -7.8461 14.021 8.0448 10
152 1 13.93 10.5461 -8.70964 13
153 1 5.88057 12.1691 -7.87907 21
154 1 -2.01409 18.3842 -0.417211 10
155 1 11.3157 8.69102 -2.90532 18
156 1 -0.210326 11.9482 -2.36835 17
157 1 3.64175 13.9604 -9.3299 14
158 1 8.59342 7.87113 -15.6443 15
159 1 -10.5044 -10.3298 6.10813 19
160 1 -9.5801 10.8514 -3.41976 18
161 1 -6.3036 -2.54445 -16.9655 15
162 1 4.40064 -8.53897 -16.6628 15
163 1 5.19784 10.1559 8.28743 22
164 1 -0.520011 16.572 5.56301 12
165 1 -10.8374 -4.26918 -5.6817 21
166 1 -8.45128 11.9638 -0.807353 17
167 1 16.7227 1.57265 -1.58102 16
168 1 -7.44555 0.448342 -15.6766 11
169 1 9.54912 2.85839 13.1909 20
170 1 3.399 17.4742 1.20763 11
171 1 -1.33535 7.94203 3.92968 19
172 1 5.01111 -5.19086 -16.0777 21
173 1 -6.67304 12.5241 9.78266 8
174 1 -2.24538 13.6161 -7.54154 20
175 1 2.7365 -4.54726 9.90882 19
176 1 -8.21461 -5.93138 2.40798 18
177 1 -3.20413 -9.28928 -13.8844 18
178 1 -5.10876 13.7988 -5.67345 14
179 1 -3.69597 -14.9193 4.47908 19
180 1 2.73546 -13.9987 -3.75548 17
181 1 -2.57958 10.0279 -12.4288 16
182 1 -11.2588 -3.26991 12.1713 13
183 1 0.997567 7.65601 -3.66709 22
184 1 11.3144 11.2201 -4.13297 19
185 1 0.698777 3.67273 13.2088 19
186 1 2.68389 -8.44306 10.8672 14
187 1 -9.29665 1.10047 -3.43991 20
188 1 0.776376 17.4938 -0.441406 14
189 1 0.949351 7.17732 10.9454 20
190 1 11.956 2.21781 15.372 13
191 1 -7.20275 12.1564 3.77051 19
192 1 14.0965 -7.87025 -7.02583 16
193 1 -4.30921 10.862 5.00773 18
194 1 -2.14169 2.08921 -9.38233 19
195 1 14.6957 -6.57712 -0.899939 11
196 1 -6.06555 -4.57023 4.54249 19
197 1 -11.3514 0.963949 4.6177 18
198 1 -7.54458 -8.25772 8.33284 22
199 1 6.05229 4.51807 9.59844 19
200 1 -12.1914 0.424479 -3.79615 16
201 1 1.48294 -14.5468 1.7948 18
202 1 6.46239 -8.01549 0.124463 21
203 1 1.60646 8.48704 2.61232 21
204 1 -9.03699 0.320519 3.32746 21
205 1 9.21584 12.3232 13.1404 10
206 1 -9.96265 3.7702 -5.06509 20
207 1 -7.8778 13.4883 -7.03689 8
208 1 -13.8292 -7.85334 -3.57518 11
209 1 -10.7725 -4.10469 8.8429 21
210 1 2.85865 -12.2616 2.97868 19
211 1 6.0357 -15.4655 7.31399 10
212 1 -9.71247 13.1091 2.32454 15
213 1 16.6039 -1.66638 7.27535 14
214 1 8.43795 1.02017 -6.45517 19
215 1 -3.56709 -7.04773 -16.1356 16
216 1 4.86553 0.520621 13.274 21
217 1 7.65094 -16.5378 4.0922 14
218 1 -1.67015 6.63579 -13.6112 20
219 1 4.6968 -9.63789 -13.5815 15
220 1 6.89129 0.088961 -13.5896 22
221 1 5.89831 7.38108 -16.0509 15
222 1 -7.94699 -3.9932 -6.82973 20
223 1 -2.91917 16.5784 -6.23616 10
224 1 -8.32833 -11.561 11.6969 11
225 1 8.63389 15.5757 -0.795675 13
226 1 -4.86199 4.99504 11.5239 21
227 1 -6.72289 12.1133 -3.27287 18
228 1 8.85133 0.430147 5.88414 20
229 1 -6.44301 -5.26971 -15.1143 14
230 1 -1.75995 11.1664 -7.86414 20
231 1 3.95866 4.64923 -10.6188 19
232 1 -3.142 -7.97153 10.5626 18
233 1 -12.0769 7.12106 7.01439 13
234 1 -9.60609 6.36549 5.38453 20
235 1 -0.221076 -11.2239 -8.35329 20
236 1 -2.02477 -13.1899 -0.210121 14
237 1 6.29259 -13.9124 -4.00066 16
238 1 16.134 6.0708 12.1538 14
239 1 8.41951 6.50863 -10.3268 21
240 1 1.40118 9.82298 -1.47256 16
241 1 -8.85839 0.357541 -0.278564 23
242 1 -9.4346 14.7 -3.90252 8
243 1 3.87995 3.07528 8.04244 20
244 1 6.52907 -18.19 2.20938 9
245 1 14.1405 -0.513176 -1.15497 24
246 1 3.18733 7.4938 5.44845 17
247 1 -6.06779 5.50698 4.19725 17
248 1 -10.6809 -7.54243 -4.40317 20
249 1 11.2998 7.38256 -10.7953 17
250 1 5.94197 0.369171 7.8382 22
251 1 11.6172 11.5418 -10.2277 10
252 1 3.31936 -8.90592 -1.7171 19
253 1 0.00938835 -1.82285 -13.6225 19
254 1 3.33369 -14.6722 5.08733 18
255 1 11.5372 0.197688 -6.5176 20
256 1 -9.66695 -2.34188 7.23478 18
257 1 6.31036 -17.2253 -2.05814 12
258 1 -10.5884 -7.63633 -9.53067 12
259 1 4.15146 14.7911 -1.70982 19
260 1 3.26779 -3.35503 -14.7256 18
261 1 5.92119 6.83171 14.0766 19
262 1 16.8743 1.70745 4.9913 21
263 1 -5.29025 -8.70739 3.00999 20
264 1 15.4757 0.399035 -10.8359 14
265 1 -2.18878 -14.453 6.92475 25
266 1 -8.90276 -3.88868 -14.6772 11
267 1 -9.29838 0.405531 -10.673 17
268 1 -5.59658 -15.825 6.87172 15
269 1 10.0734 -4.99489 10.9972 15
270 1 5.73008 -4.53432 7.65729 22
271 1 -2.31337 -9.93383 -10.7526 19
272 1 2.69143 -5.25048 6.56632 23
273 1 3.77281 5.88005 -13.3377 21
274 1 8.07607 6.05151 1.65594 19
275 1 -10.4403 -8.45779 3.89115 21
276 1 4.02277 13.3609 4.11444 17
277 1 -4.72494 -4.15907 12.3046 19
278 1 -7.8483 -8.89157 -9.88553 15
279 1 -1.47771 -4.41168 -15.2293 17
280 1 -1.89656 3.28898 -15.5928 21
281 1 -3.64639 -12.0181 -12.2615 16
282 1 -2.41507 -8.10391 1.42344 18
283 1 12.9953 -6.79932 -13.5582 12
284 1 16.4848 3.22138 -6.59255 13
285 1 11.7771 -0.183628 4.92236 21
286 1 -5.87531 -6.48223 10.3262 19
287 1 -4.3552 -10.3976 -0.161284 20
288 1 11.6653 5.26755 11.5061 15
289 1 -4.40814 -17.4304 2.67072 13
290 1 0.684176 -11.9639 -0.619511 19
291 1 1.93254 15.1948 -3.95093 18
292 1 10.0683 0.169731 -11.5694 22
293 1 -1.97982 -4.91168 -20.015 11
294 1 -8.91311 -7.85351 14.8665 9
295 1 9.00796 3.93697 16.1338 12
296 1 2.96622 -11.1775 0.276092 23
297 1 -3.09345 -15.5505 -9.19743 13
298 1 -7.7878 4.94991 -7.82901 20
299 1 11.7607 6.65701 6.86795 17
300 1 -4.92396 -0.430239 -11.6944 16
301 1 1.19609 6.59015 -11.4022 17
302 1 -3.17088 -5.01933 6.45366 21
303 1 7.89247 -12.7083 -10.1052 17
304 1 -4.26826 14.7123 -2.79971 17
305 1 -1.33691 11.5022 3.55541 21
306 1 13.5044 -2.69063 6.90981 16
307 1 -7.49306 -2.0191 4.654 19
308 1 -2.40886 -5.64831 9.59706 23
309 1 -4.31103 7.7035 6.256 19
310 1 7.58338 -7.1818 -17.105 12
311 1 17.0792 6.81067 -1.80945 14
312 1 6.75339 -13.6034 0.676918 17
313 1 -3.0359 -0.809278 13.1446 20
314 1 -13.7879 0.739989 6.9085 7
315 1 0.971849 -16.4336 -5.12726 17
316 1 -1.27542 8.71685 7.11346 19
317 1 -8.50883 6.26393 12.1194 11
318 1 -13.5541 -4.85246 10.2941 11
319 1 -11.8045 -6.89286 9.3124 15
320 1 10.0122 -1.61401 -4.89954 20
321 1 -8.24106 -5.43037 9.64173 18
322 1 12.087 -0.772861 -9.845 21
323 1 11.4793 -10.5652 -6.27208 18
324 1 5.3608 13.121 -4.78488 19
325 1 -7.18649 9.27243 -2.30069 20
326 1 17.5454 9.96964 8.36579 11
327 1 -10.6891 -2.53308 3.96284 17
328 1 8.51374 -11.0101 -7.90427 22
329 1 -4.59073 8.06396 -0.168136 21
330 1 -4.81729 3.18011 2.34267 19
331 1 8.53349 -14.5574 6.841 10
332 1 10.7778 -5.63125 5.76431 15
333 1 0.623856 3.86861 9.41326 20
334 1 -8.85938 -6.79005 -6.64048 19
335 1 1.68876 0.611206 14.2388 14
336 1 -1.28625 11.9327 0.672207 19
337 1 8.93556 6.18491 12.6915 22
338 1 -6.23906 16.8046 -4.31209 10
339 1 2.78037 -0.505977 -17.5533 16
340 1 -5.02046 0.101753 -8.57628 21
341 1 7.26928 -9.93391 -15.4055 10
342 1 -4.64059 2.67924 9.53013 21
343 1 -13.7033 2.97566 -0.121901 18
344 1 -1.29775 -4.10973 -11.7709 15
345 1 -1.62641 8.64512 -2.1177 18
346 1 10.0653 -3.16556 4.04795 21
347 1 -12.3001 -12.6996 3.72599 10
348 1 8.10125 -6.65216 6.26741 22
349 1 -6.62727 -10.1547 14.2435 10
350 1 -10.8201 5.57628 -8.28279 15
351 1 -2.06371 -2.46952 7.64693 22
352 1 4.82528 -13.2683 -9.9627 16
353 1 -4.21753 -3.12298 -10.465 19
354 1 9.39265 4.05004 -11.8767 20
355 1 0.725492 13.3956 5.69638 19
356 1 -9.83981 -0.582605 -6.46033 19
357 1 5.58387 -7.81159 -11.5837 16
358 1 11.9951 4.73678 -10.7873 19
359 1 -2.2528 -16.2117 -4.83253 14
360 1 -9.82369 -11.3438 -4.21784 16
361 1 -2.44695 -7.80611 -1.70174 21
362 1 13.9683 5.44293 13.8471 10
363 1 18.7843 2.00961 -4.2623 10
364 1 -6.44623 -3.21266 -13.1203 17
365 1 4.86648 16.341 -4.56163 15
366 1 -13.0455 -2.27487 -5.92131 14
367 1 -9.0534 7.57867 2.14442 15
368 1 -6.6689 9.61456 1.63556 19
369 1 -1.94808 5.86859 6.0212 18
370 1 14.7719 0.357613 11.3052 14
371 1 9.17002 -4.0987 -6.08596 21
372 1 13.2255 -2.98414 13.6514 12
373 1 13.7162 2.3716 -9.47501 16
374 1 -0.782779 -18.6323 -3.23081 9
375 1 -3.18048 -9.40144 -7.659 19
376 1 -1.49877 8.3226 1.06963 22
377 1 -14.4534 0.935497 -6.22736 9
378 1 9.51269 -8.91519 -1.26165 17
379 1 17.1001 -3.92632 5.46342 6
380 1 -4.66084 -2.8525 -6.81362 21
381 1 -5.76973 -6.0711 7.65805 21
382 1 -5.59312 -7.75814 13.3219 18
383 1 -3.77354 10.2545 2.03926 18
384 1 -7.35599 -10.4969 -1.86183 20
385 1 9.82494 7.2867 16.0556 10
386 1 -8.48956 6.71498 -3.39035 19
387 1 0.620645 12.9005 -8.77466 19
388 1 6.55155 11.7927 6.22763 18
389 1 -13.2877 -9.99991 2.04301 12
390 1 -1.2803 -10.631 -5.18218 23
391 1 -8.8617 -2.65107 10.6757 17
392 1 -12.4048 8.28705 -2.63828 16
393 1 3.28684 -11.0859 5.68501 18
394 1 -5.66597 -15.6948 -2.25977 16
395 1 13.6909 10.6064 8.27306 17
396 1 10.7787 7.12739 -13.2229 21
397 1 -7.14992 4.96755 -14.082 12
398 1 -2.42904 12.4275 -10.8664 13
399 1 -6.9522 2.78972 -9.86528 16
400 1 -0.962709 -12.575 2.73165 19
401 1 14.5523 5.51981 5.43034 17
402 1 2.93819 6.29043 -17.4493 12
403 1 -2.59081 0.181817 6.02235 22
404 1 -11.8406 -0.78002 1.84458 19
405 1 -8.94315 3.49891 3.9715 17
406 1 -6.14046 -14.4631 3.78914 15
407 1 2.71526 -6.55913 -6.45598 19
408 1 10.8029 -6.03157 -8.5439 23
409 1 -11.7454 0.463265 -0.714539 21
410 1 -9.03528 -0.105717 12.0634 15
411 1 -14.2295 6.03649 1.96695 12
412 1 -0.0351033 -4.99896 8.06491 19
413 1 -5.27903 3.16335 -16.5907 13
414 1 10.029 -11.5775 -11.1275 16
415 1 0.622162 -8.65681 -9.89867 21
416 1 -2.87813 -6.93567 15.7554 8
417 1 1.41858 -9.29533 -6.38697 21
418 1 -1.43431 -0.455752 -16.077 19
419 1 8.44699 -16.0802 -0.202636 12
420 1 8.84657 6.11878 -4.20698 20
421 1 -14.1427 9.04045 4.15338 9
422 1 -5.04645 -4.72862 15.1824 14
423 1 -8.9521 -6.64336 -12.477 11
424 1 -9.04162 -5.31387 5.60256 22
425 1 10.315 -7.34877 8.68521 16
426 1 9.30536 2.07855 -0.106675 22
427 1 7.30249 -1.66216 -10.9451 20
428 1 12.2528 -6.57783 3.90131 13
429 1 16.7107 10.1754 -3.26212 11
430 1 -1.77884 2.83922 11.2884 21
431 1 3.80162 7.79313 -2.93283 21
432 1 7.28641 -2.06346 8.989 19
433 1 -4.43065 -10.6233 -3.68291 23
434 1 -1.67293 9.759 15.7623 8
435 1 -2.5708 14.334 5.49574 16
436 1 -6.05275 -16.3487 -8.95264 8
437 1 8.75101 15.2413 2.61667 12
438 1 6.4472 7.66442 10.2466 22
439 1 -5.22147 5.72269 8.54037 17
440 1 -6.37745 -12.8042 -4.03604 20
441 1 -9.55228 5.64376 9.04802 17
442 1 -5.68085 -8.09731 -6.88484 21
443 1 -3.89965 9.90334 9.05163 13
444 1 -3.4113 -12.433 -8.89289 19
445 1 1.56215 -8.98872 -13.9671 16
446 1 -5.04511 -14.8946 1.24044 20
447 1 -4.60891 -2.16403 6.06765 23
448 1 10.3604 -1.69974 7.35357 18
449 1 -8.96453 -8.14028 11.5776 18
450 1 -5.82747 8.23803 -14.3081 11
451 1 7.70097 5.01053 -1.6306 21
452 1 -10.2964 -15.4351 -0.478171 7
453 1 0.0311225 3.44486 -7.25234 20
454 1 0.160333 14.935 2.3499 21
455 1 0.333152 8.9131 -6.98004 22
456 1 -1.61289 6.21843 12.6705 17
457 1 -10.8526 -2.64513 -1.0464 16
458 1 3.24168 17.6914 -2.48502 12
459 1 8.32606 9.50229 -8.6254 17
460 1 -3.56487 -6.56126 -9.33308 19
461 1 3.43055 3.66909 14.5946 16
462 1 1.88789 -14.1674 -9.95136 12
463 1 7.53053 -6.13326 -13.662 19
464 1 6.50832 -10.5834 -0.734454 18
465 1 -12.6948 12.1466 3.05846 9
466 1 1.90687 6.1166 14.1965 17
467 1 9.38124 7.6987 -0.768497 21
468 1 3.98867 10.058 0.778975 18
469 1 -5.40506 11.2655 -11.983 10
470 1 2.48139 1.90589 -9.3408 21
471 1 3.28622 -8.18459 4.93572 19
472 1 -14.7742 -2.36678 -2.64985 10
473 1 3.1576 11.9268 7.11049 21
474 1 -1.20286 1.62614 -13.5302 20
475 1 11.5706 5.79333 3.36264 21
476 1 6.44224 14.2715 -10.3292 10
477 1 9.01725 -5.99084 -0.537097 24
478 1 18.5488 5.13605 1.56799 10
479 1 1.18684 -2.15088 -9.67302 21
480 1 0.445927 -10.227 1.69337 19
481 1 0.753958 -12.8188 5.40932 23
482 1 4.19021 -11.1107 9.05862 13
483 1 -6.52809 2.29153 -13.4444 15
484 1 -7.86102 -10.5714 4.18127 21
485 1 0.547196 -16.3817 -8.10128 11
486 1 8.64792 13.4233 6.75302 14
487 1 4.82597 -2.28775 -10.4071 23
488 1 6.52857 -1.53552 13.9941 13
489 1 -10.2259 2.61478 10.2199 13
490 1 0.389634 -18.4267 0.206104 10
491 1 -12.1935 -4.22716 1.53027 13
492 1 14.7697 -2.90937 -6.2258 12
493 1 9.6073 -2.93381 -2.6579 21
494 1 -4.88484 3.64551 -4.17954 20
495 1 -0.793722 -7.84193 -7.20449 22
496 1 2.1607 2.54312 -12.8418 23
497 1 11.0878 -6.56315 -5.8381 18
498 1 -2.21827 -2.74845 10.9839 19
499 1 5.6868 16.6653 3.79081 10
500 1 1.3251 -5.6829 -19.5254 12
501 1 11.1222 -0.549991 -15.8915 10
502 1 -4.72496 -3.7433 8.82336 19
503 1 -3.43462 12.9163 2.06114 20
504 1 -4.44136 -0.190342 -17.4045 14
505 1 -10.6668 3.88837 7.1187 15
506 1 -0.604773 -9.05483 -16.0238 18
507 1 -2.04021 -12.1237 10.9616 12
508 1 3.47114 11.2915 -10.4043 15
509 1 18.5374 1.14971 6.96923 15
510 1 14.3596 7.3442 -2.90877 20
511 1 -8.37218 -14.7795 -3.45454 11
512 1 -1.79132 -10.4241 -2.01177 20
513 1 -1.06909 -6.93416 -17.7552 15
514 1 -9.75885 11.5457 9.58523 9
515 1 7.36201 -4.4813 -9.30783 17
516 1 12.8053 -2.54684 -3.76609 17
517 1 5.83261 10.1149 -4.91283 22
518 1 10.3579 -12.1009 4.91931 12
519 1 17.1682 7.64055 -8.15179 7
520 1 3.77528 8.7435 14.1675 16
521 1 -8.76585 0.698027 6.06937 17
522 1 8.5398 14.354 10.5436 10
523 1 11.7846 -0.219005 13.1319 20
524 1 3.38701 -0.746591 -13.1668 19
525 1 -5.74458 -5.45095 -5.28651 24
526 1 0.925884 -1.94733 9.58011 24
527 1 6.62787 10.5904 11.2824 22
528 1 5.98061 5.71179 -8.62877 19
529 1 -8.14078 11.0885 -9.4866 11
530 1 0.231624 12.3527 -5.40852 18
531 1 13.1452 -5.72529 9.62082 11
532 1 14.8253 3.77449 -11.6746 11
533 1 7.15155 -11.0897 -4.56402 17
534 1 14.839 9.02241 13.1494 12
535 1 -13.324 -4.59538 -3.66804 15
536 1 -4.93709 11.9082 -9.02558 16
537 1 0.738253 0.824875 7.72079 22
538 1 -5.97094 -1.41919 13.1887 19
539 1 -0.256737 9.15656 -10.5354 18
540 1 3.66616 -11.5149 -5.18674 21
541 1 9.33141 -1.50248 -8.56691 25
542 1 -0.626478 17.7725 -3.53698 8
543 1 -3.96368 -4.58542 -17.4674 14
544 1 4.48572 -15.2199 2.27429 19
545 1 -11.3123 -6.36948 -1.02397 19
546 1 6.05185 10.1262 -13.9284 13
547 1 -7.50492 3.24397 -2.42018 18
548 1 4.29848 5.63364 11.8105 19
549 1 -12.8181 -8.44129 7.2316 15
550 1 5.3796 4.7462 -2.09696 19
551 1 2.68634 -11.4899 -8.73056 21
552 1 5.4329 -6.8574 11.2175 13
553 1 8.4312 0.526717 -3.6252 23
554 1 -13.1376 8.39053 0.707429 13
555 1 4.26799 10.8825 16.8964 11
556 1 6.22996 15.6181 -7.11441 15
557 1 11.5703 -8.45707 -8.27357 20
558 1 3.51695 9.10407 10.853 19
559 1 -0.365555 3.45167 -19.8463 9
560 1 -1.42593 -15.5073 10.0911 11
561 1 0.100653 6.07093 -9.09366 19
562 1 7.81983 0.0557081 -16.4149 17
563 1 6.27769 12.7772 8.97216 21
564 1 14.6103 0.638382 -7.19808 18
565 1 3.05756 -3.50668 -11.8764 17
566 1 -3.64606 -13.3336 -4.17305 19
567 1 -12.6226 -6.86073 -6.65467 15
568 1 10.891 4.67534 0.494927 20
569 1 18.9142 8.19416 -4.05583 6
570 1 5.78061 -6.86046 -8.45602 19
571 1 15.2139 5.7853 8.73197 19
572 1 5.75369 -11.8696 -7.18383 19
573 1 6.07901 2.85463 -18.2708 14
574 1 7.93408 11.4308 3.00653 16
575 1 -8.07407 3.01083 0.935033 19
576 1 11.6499 7.80652 12.8967 18
577 1 11.9351 6.29112 -5.44931 21
578 1 12.4997 -2.73879 -0.724461 20
579 1 13.4068 7.5071 -8.31334 15
580 1 12.3758 3.9698 8.05832 18
581 1 14.6384 2.48838 8.05007 19
582 1 1.90088 -8.74325 7.51421 22
583 1 14.5729 11.6562 -1.86251 10
584 1 3.09608 2.96148 11.3006 18
585 1 17.6779 -0.731448 -6.301 8
586 1 11.0719 9.32676 7.43635 21
587 1 -7.17852 -2.26209 -9.96463 20
588 1 15.0111 3.983 2.89308 20
589 1 13.3851 -3.64221 3.41558 13
590 1 -6.66266 7.83579 10.2308 15
591 1 9.3465 11.4239 9.73407 18
592 1 15.1419 9.02624 9.78358 20
593 1 3.19339 6.09938 8.72242 17
594 1 3.57712 12.1639 10.3382 19
595 1 7.61349 3.05325 4.39904 19
596 1 -1.16528 -18.4415 2.75463 13
597 1 -2.77642 11.98 -4.61093 20
598 1 11.4321 11.7636 -7.03849 15
599 1 12.8087 -1.29618 -13.2741 16
600 1 4.05191 12.5727 0.958116 16
601 1 1.06143 -12.92 -6.33909 22
602 1 14.1965 -3.95052 -11.6647 11
603 1 -11.269 2.40922 1.63063 25
604 1 -3.47684 2.35465 -11.9153 15
605 1 -1.31016 -15.4219 1.06055 16
606 1 -4.58214 0.701549 -14.4637 19
607 1 -12.3289 0.576483 -8.22203 15
608 1 12.122 -8.44275 -1.4695 17
609 1 17.2297 8.1115 2.83071 11
610 1 -0.578792 -7.22283 6.3723 19
611 1 -11.8052 1.56333 -11.8509 11
612 1 2.97715 3.2173 -18.7924 12
613 1 -1.88016 3.09516 16.9269 10
614 1 11.0655 10.8127 -12.9453 10
615 1 15.1487 -2.80534 11.2304 12
616 1 8.44648 6.94561 -6.97725 19
617 1 13.8567 8.8257 2.27229 16
618 1 2.56469 -10.5819 -11.3568 18
619 1 -8.28241 -4.52587 16.2002 10
620 1 15.0706 -2.20609 1.39652 18
621 1 -1.36223 11.9631 14.0475 13
622 1 8.63003 11.8254 -12.2043 10
623 1 -13.4902 11.574 -2.65157 7
624 1 6.9369 9.61622 0.467225 21
625 1 -9.61966 -14.0503 2.42085 13
626 1 17.4816 -0.683151 -0.069895 12
627 1 5.19752 14.6426 6.42509 15
628 1 -1.66078 2.69709 7.63698 21
629 1 -10.3704 -9.26079 -2.37149 17
630 1 -6.0514 -6.03812 -11.6696 18
631 1 12.0621 -2.64765 10.5189 18
632 1 0.0686896 -7.13629 9.94637 21
633 1 12.7452 7.50355 9.86043 18
634 1 -6.22462 13.2654 0.546385 20
635 1 9.71922 2.52439 2.95671 20
636 1 12.0207 2.95753 4.52243 16
637 1 10.1017 1.60955 -14.2394 16
638 1 -7.22256 -3.28007 7.67252 19
639 1 9.10991 -1.91917 -14.2743 21
640 1 -2.6579 -4.99625 -6.59459 20
641 1 11.4204 -11.8751 -8.69637 15
642 1 14.4087 -0.094996 5.59869 20
643 1 6.59205 3.52924 1.26194 22
644 1 -4.73895 1.39025 15.4603 14
645 1 14.7687 11.6417 10.5167 11
646 1 3.26826 -2.36537 12.5996 17
647 1 -3.98589 7.37876 10.6537 16
648 1 1.65668 -6.46241 -11.9276 16
649 1 -4.84888 1.50978 12.2643 21
650 1 9.72411 3.74219 9.99629 19
651 1 -9.39258 -13.3302 5.23388 12
652 1 15.8524 6.0703 1.1499 15
653 1 6.62209 -15.0996 -8.06145 13
654 1 -2.18311 5.69108 -7.24321 19
655 1 8.14123 10.5906 -2.87424 19
656 1 11.2375 11.2976 1.88798 18
657 1 8.77525 2.25412 -17.7504 9
658 1 2.64894 12.2886 -2.05209 18
659 1 9.49283 8.22318 2.55252 15
660 1 -7.98589 -8.62717 1.2248 19
661 1 0.405822 1.80753 -17.5477 14
662 1 -9.66723 10.094 3.00741 17
663 1 10.9944 -3.54414 -10.509 21
664 1 10.2194 4.50258 6.05997 22
665 1 11.4732 4.55633 -7.99772 20
666 1 8.59728 13.6146 -2.47974 19
667 1 -6.38233 5.72295 1.21144 19
668 1 9.74047 2.7743 -2.87775 16
669 1 14.3349 3.03941 13.5562 11
670 1 11.9015 -1.04089 16.2103 8
671 1 0.293946 -10.3747 10.497 14
672 1 -4.06889 8.04736 -12.0 18
673 1 4.20182 13.2359 14.4706 11
674 1 13.9873 -7.16863 -10.1776 14
675 1 6.82583 1.96144 10.8157 23
676 1 8.05139 16.4291 -4.76281 11
677 1 9.40451 10.3728 4.87748 18
678 1 14.0113 -5.46692 -4.56251 14
679 1 11.3192 4.9827 14.8134 15
680 1 -12.1129 -5.48984 4.16392 13
681 1 3.33206 -14.0242 -0.382683 17
682 1 3.57935 -3.71165 -8.2741 22
683 1 -7.8527 16.282 2.00827 10
684 1 3.04471 4.86518 2.50846 23
685 1 6.95237 -8.07379 -2.89808 19
686 1 4.63891 7.43428 2.40161 18
687 1 -14.7314 -3.84103 -0.102595 9
688 1 1.03643 10.266 11.4724 15
689 1 -0.369599 6.11559 -17.2874 16
690 1 -2.84815 8.79581 -15.9503 10
691 1 4.33281 -11.8368 -2.53018 17
692 1 11.1939 8.61332 -6.92261 20
693 1 5.63117 -5.36357 4.40728 23
694 1 0.141995 5.38047 1.22882 22
695 1 -7.24557 3.10927 11.3717 18
696 1 5.80206 -1.63015 -16.2874 20
697 1 6.656 -12.167 8.15854 12
698 1 2.56692 16.0931 4.45802 18
699 1 -3.19777 3.89086 13.9667 18
700 1 -4.84789 -8.79034 -11.0811 19
701 1 -3.31031 -10.0256 -17.0736 9
702 1 -5.2434 -14.064 -7.16079 18
703 1 0.0116091 15.3486 -6.93744 14
704 1 5.65435 -5.7546 -5.35346 19
705 1 -2.16663 11.3624 6.71378 17
706 1 8.67335 -8.93312 -12.6128 21
707 1 9.06455 -15.9831 -3.8731 9
708 1 5.47747 -7.86638 6.61379 22
709 1 15.8871 6.16482 -6.07527 16
710 1 5.89818 -16.5605 -5.00544 14
711 1 -12.9041 -4.84022 6.93242 14
712 1 -3.31579 -17.7656 -0.721363 15
713 1 -5.98929 -11.3761 -6.80061 20
714 1 -8.34645 0.709143 9.34059 16
715 1 -6.2117 -17.9131 -0.261402 10
716 1 15.4642 4.02888 -3.48687 15
717 1 -5.27526 15.0993 3.47664 15
718 1 -4.42526 3.36847 6.49456 18
719 1 -11.9205 5.97281 -0.404868 18
720 1 15.2737 2.57493 0.7551 14
721 1 -8.97382 -5.23571 -9.86621 21
722 1 3.35173 7.82969 -6.47401 20
723 1 8.2271 3.58845 -8.84995 17
724 1 12.0852 10.7196 11.6453 15
725 1 10.2527 3.47842 -5.56187 18
726 1 -8.04775 7.90366 -7.76599 16
727 1 -12.7269 -9.96169 -5.2778 9
728 1 1.32466 8.64444 16.4544 11
729 1 6.75902 5.96906 -12.7958 18
730 1 11.3658 13.7729 4.46241 10
731 1 -1.8596 0.0601738 9.36218 21
732 1 -0.627691 -13.4972 -3.58348 19
733 1 -3.31273 -17.7427 8.29741 10
734 1 -3.70649 -8.19163 7.718 18
735 1 17.7567 9.56259 11.4873 11
736 1 5.85205 -9.98357 -10.1874 23
737 1 -5.74452 6.41472 -2.39108 22
738 1 6.39089 5.64901 3.4906 18
739 1 -7.78891 -7.86731 5.62543 19
740 1 13.5176 8.99921 -11.5433 12
741 1 3.69773 -14.6879 -6.95328 20
742 1 1.61231 -18.4751 3.04175 11
743 1 3.38755 -17.6866 -5.89242 9
744 1 5.97594 3.16049 -13.0549 20
745 1 6.27034 15.6055 0.884644 13
746 1 -3.55822 -2.15695 -14.6037 18
747 1 -0.0414247 -1.27988 12.9424 17
748 1 -0.151852 3.15516 -10.9991 19
749 1 -9.78066 3.99818 -11.3591 16
750 1 -7.38592 -1.579 -6.63301 19
751 1 2.74127 16.263 -7.43462 9
752 1 9.45431 -3.77173 0.609544 20
753 1 0.737356 -2.88271 -16.6283 17
754 1 -5.46208 -7.48292 0.128453 22
755 1 14.4552 9.00342 -5.88218 17
756 1 11.9322 -5.38587 0.952227 21
757 1 -5.19616 9.97796 15.3307 7
758 1 6.72841 -10.5457 5.24893 18
759 1 16.3418 -3.21204 -1.20697 12
760 1 13.1917 -7.16871 7.36969 9
761 1 2.29038 8.99928 8.132 20
762 1 -7.24878 0.66809 14.2502 14
763 1 -6.79279 8.90776 13.1687 8
764 1 -0.276093 -13.1695 9.02987 17
765 1 8.94412 -0.299042 2.69158 21
766 1 8.32144 8.76955 13.3305 16
767 1 -14.316 -0.578346 0.325536 11
768 1 8.22364 -7.88684 -6.33733 22
769 1 -9.7753 10.6991 -6.47036 14
770 1 5.29028 6.56334 -0.0443013 22
771 1 1.36272 -18.3915 5.82695 11
772 1 6.65067 2.08919 15.704 13
773 1 2.32419 14.7599 8.03263 17
774 1 -0.0843274 -10.179 4.87832 19
775 1 -5.76945 -4.5933 -2.08002 22
776 1 6.40249 3.66982 13.2149 21
777 1 -8.25193 -4.13139 -3.74461 22
778 1 1.16538 11.7633 16.6076 10
779 1 7.30518 12.7445 0.147369 18
780 1 -8.19564 -11.3268 8.13323 16
781 1 -2.82398 -17.8904 5.54288 14
782 1 9.32193 -4.02358 7.62109 19
783 1 15.8331 -4.63323 8.2898 10
784 1 8.89064 7.26457 5.38286 18
785 1 0.041018 5.77898 -5.41203 21
786 1 4.15518 -5.99928 -13.2106 18
787 1 -1.98239 -0.871845 -10.6805 21
788 1 -4.45813 -0.847603 9.81913 16
789 1 -2.35087 15.8139 2.47132 18
790 1 17.6199 2.011 2.18006 18
791 1 5.71469 8.85791 -8.0867 19
792 1 -1.13439 13.1597 11.359 10
793 1 9.6174 8.43928 10.4124 22
794 1 10.7207 -8.22138 -11.4055 24
795 1 -4.951 -12.788 -1.23127 18
796 1 -6.17632 -5.33727 -8.2234 19
797 1 17.2541 -1.25641 3.22928 14
798 1 4.77566 0.959242 -10.757 22
799 1 -1.49029 6.32578 15.9947 15
800 1 13.507 -9.51689 -11.9016 12
801 1 11.4143 5.63251 -16.1386 10
802 1 -3.17432 -8.04268 -4.79387 23
803 1 12.3557 3.69054 -13.7291 13
804 1 12.89 2.71843 -1.9149 19
805 1 4.10707 -7.00006 8.89646 17
806 1 -0.704415 -7.76535 -12.7315 20
807 1 11.3697 12.7756 -1.50534 14
808 1 0.700438 -8.02191 3.15492 19
809 1 -13.4291 3.72449 3.12034 12
810 1 13.7312 3.29898 -5.62895 17
811 1 19.832 2.25749 4.30901 9
812 1 1.60671 -6.23214 -15.4111 20
813 1 -7.19136 8.78911 4.73092 23
814 1 17.0376 7.78581 6.30396 11
815 1 10.9066 14.0233 -5.40136 12
816 1 7.46289 4.83609 -15.5284 15
817 1 11.5385 -5.40829 -2.25761 19
818 1 -10.8218 -1.94366 -3.74674 19
819 1 12.8744 11.0344 5.08767 15
820 1 -9.75267 -11.053 1.24278 17
821 1 -4.85153 6.00792 -8.85628 20
822 1 8.95611 6.16279 8.58944 21
823 1 -10.0455 -2.22103 -8.87987 18
824 1 -12.0337 10.0053 5.56417 13
825 1 -2.09542 5.36927 -10.4928 20
826 1 13.6999 -4.95372 -9.00916 16
827 1 -9.50511 -9.57399 -6.77132 17
828 1 14.7409 -11.0824 -5.2156 10
829 1 -14.0184 5.40339 -1.92614 13
830 1 -5.33236 -7.75545 -3.16565 21
831 1 7.94208 9.49668 8.10908 22
832 1 -2.82572 -11.8956 5.83657 18
833 1 11.3527 0.980212 10.6768 18
834 1 14.5565 0.203481 2.91359 20
835 1 11.7088 -1.50283 1.8566 22
836 1 -8.25422 6.80126 -0.737382 15
837 1 0.533702 11.2725 8.79146 20
838 1 5.09524 8.12121 -11.0858 21
839 1 1.84661 -8.16931 -17.7053 13
840 1 -5.57475 13.0512 6.24249 15
841 1 -4.76747 -10.5944 9.5036 19
842 1 8.29595 12.2718 -5.46619 21
843 1 0.541175 6.78249 7.42452 20
844 1 16.9887 -0.916903 -3.31294 15
845 1 7.53457 -6.13862 9.26267 18
846 1 -0.113608 10.1723 -14.3226 11
847 1 6.24595 11.2555 -10.6254 19
848 1 -5.77913 0.36201 7.43619 17
849 1 19.6256 3.79556 6.85409 9
850 1 -3.27828 -6.04998 -13.2672 17
851 1 16.3453 9.20527 0.0162421 12
852 1 -12.9055 2.88229 -3.34149 17
853 1 -5.55559 -12.3529 6.47525 20
854 1 3.83107 12.2824 -13.2388 11
855 1 7.361 -2.50156 6.06624 21
856 1 -4.23729 -18.5267 -3.22593 10
857 1 -4.96971 15.9384 0.35746 16
858 1 -11.5625 5.99203 -4.15272 14
859 1 10.6338 1.93565 -9.02134 21
860 1 -0.451677 -11.0158 -12.9171 17
861 1 -4.2933 8.01825 3.2617 20
862 1 14.2956 11.7667 -5.20473 13
863 1 -5.65584 1.14104 4.5484 18
864 1 11.0892 -3.97792 -13.9141 13
865 1 -4.48063 -14.6934 -11.4466 12
866 1 1.04758 -10.5039 -3.02213 21
867 1 -1.35437 5.78104 9.39705 18
868 1 9.28798 -13.1304 -1.13143 11
869 1 1.00831 7.35402 -14.4185 16
870 1 18.9584 4.88534 -6.07017 10
871 1 10.6045 13.8918 1.17706 12
872 1 3.83001 -17.9364 0.220885 11
873 1 3.66517 -2.96915 -18.1895 15