ITEM: TIMESTEP
13000
ITEM: NUMBER OF ATOMS
1000
ITEM: BOX BOUNDS pp pp pp
-30.0 30.0
-30.0 30.0
-30.0 30.0
ITEM: ATOMS id type x y z Coordination
1 1 -6.03916 -10.1112 -9.71923 9
2 1 3.98161 -9.44932 10.2652 13
3 1 -10.1403 8.68281 -2.53491 12
4 1 -9.88629 3.87161 -10.3259 9
5 1 -1.60994 -9.02238 13.6455 11
6 1 -3.78428 0.674093 -10.8773 19
7 1 -2.28989 -12.2259 5.27765 13
8 1 8.69359 -0.254631 5.59953 19
9 1 1.17636 3.9228 9.24431 19
10 1 8.93307 -1.02048 -0.348036 22
11 1 -4.87275 8.54468 -8.75363 14
12 1 -0.704863 2.96388 12.3779 21
13 1 -9.52685 1.30118 1.10757 18
14 1 -3.84229 -2.66158 -6.68184 20
15 1 1.91173 1.39292 7.82957 22
16 1 -5.07971 2.93 14.0092 10
17 1 -1.09375 -9.62324 7.60558 17
18 1 -13.1299 0.291804 0.656031 12
19 1 -13.0652 2.81812 -2.12847 12
20 1 -6.81124 14.1412 -1.9237 8
21 1 -1.2974 3.62009 -9.28712 20
22 1 2.04786 -1.50556 -11.5221 17
23 1 -3.34519 2.5905 11.1754 19
24 1 -12.1289 4.71608 0.122886 13
25 1 -5.20792 14.2493 0.984446 14
26 1 3.42238 -12.24 2.54038 15
27 1 6.08403 -6.82724 -4.91889 16
28 1 4.1819 2.26384 6.08599 22
29 1 -4.56072 6.44668 -6.04096 23
30 1 0.631364 6.72627 -2.6566 21
31 1 5.13446 2.08691 11.192 18
32 1 -10.3357 -1.60985 2.94489 21
33 1 2.37491 -1.86247 12.769 18
34 1 -10.2783 -1.36079 -0.31699 17
35 1 12.0416 -0.180098 4.97055 12
36 1 9.83292 3.82158 -10.3508 9
37 1 4.96567 -0.775629 11.6658 16
38 1 -6.7377 -3.76237 -0.313377 24
39 1 -3.60192 -7.81417 -10.4982 13
40 1 -8.31019 11.023 -1.6127 15
41 1 -2.87675 5.98815 -8.87811 24
42 1 3.79692 -0.375064 -9.81654 16
43 1 8.28907 -3.29497 6.89207 16
44 1 0.876478 -9.96654 11.6415 12
45 1 -3.82641 7.06688 6.65279 22
46 1 -9.30898 -3.64928 9.29569 13
47 1 -12.2621 3.98241 5.2279 16
48 1 5.85715 -5.37098 -2.15447 20
49 1 0.304164 3.30111 -13.9818 9
50 1 -0.235944 13.5874 3.63873 14
51 1 -7.32255 7.60845 -3.88781 20
52 1 1.89341 9.2914 2.74316 19
53 1 -4.08148 -7.67778 9.51132 16
54 1 -3.70266 -4.9335 -8.64942 20
55 1 1.30702 -5.47645 -7.89112 18
56 1 -1.5729 5.60955 10.1729 17
57 1 -13.5723 -5.89738 -1.41004 9
58 1 7.07321 -4.50248 4.19976 22
59 1 -7.58898 -9.35527 0.473853 17
60 1 8.98116 -6.5651 5.99697 15
61 1 -4.64704 6.93889 4.05054 21
62 1 3.34144 7.57111 -6.76554 19
63 1 8.86167 -7.28786 0.166885 19
64 1 -10.4581 -9.74109 2.1634 10
65 1 10.3911 2.70183 4.714 15
66 1 6.55579 7.02028 2.37278 20
67 1 -4.2383 12.4865 -2.69575 17
68 1 -0.747707 -6.59357 -10.0017 15
69 1 -2.506 10.9358 -4.88665 16
70 1 6.40977 8.6984e-04 -4.94656 18
71 1 4.45256 3.87468 -11.4845 12
72 1 6.44162 -8.39212 5.92595 18
73 1 -6.49436 2.6781 -9.6739 22
74 1 -0.203956 13.4589 -1.00921 13
75 1 8.31673 8.84495 -0.0286506 14
76 1 -0.458255 10.6139 0.788681 20
77 1 -6.39704 -6.88943 -9.27986 16
78 1 -11.0651 -4.12135 -7.3248 15
79 1 -5.72728 9.24696 8.69719 13
80 1 -1.69448 10.3774 -2.12401 21
81 1 2.9342 -4.60212 14.036 11
82 1 -11.1408 -4.10112 4.21198 16
83 1 -2.14386 -9.35591 4.1584 20
84 1 1.27667 9.22876 -0.508785 21
85 1 5.80904 6.53224 -4.82824 19
86 1 -1.87872 -9.34962 10.4012 15
87 1 -9.44194 3.84295 -0.937689 19
88 1 -2.3202 5.39399 13.4186 12
89 1 -4.83463 -0.0485574 -8.1912 20
90 1 -7.7484 -3.01153 6.61567 19
91 1 -6.47733 -8.65923 6.74403 15
92 1 7.77792 -7.6529 2.91804 19
93 1 -7.27256 11.4431 6.55621 10
94 1 -10.4273 1.14804 4.40476 15
95 1 -9.81641 0.660109 -2.20224 18
96 1 0.724034 -10.3654 5.48549 19
97 1 3.63883 5.32508 -1.97402 21
98 1 1.8042 2.60282 14.7787 14
99 1 -4.15811 3.71333 -11.0609 22
100 1 -9.64049 -2.45201 -9.80682 16
101 1 -7.87167 10.7804 -4.44289 8
102 1 7.83805 4.61028 12.9962 11
103 1 -4.88547 9.3918 -4.65781 20
104 1 2.64542 10.4622 -6.89216 13
105 1 -12.581 4.50583 8.22091 10
106 1 -11.6924 9.3331 9.26284 5
107 1 3.26758 -7.88611 -5.18598 12
108 1 4.58935 -6.38976 3.9497 18
109 1 3.10523 8.04983 -3.34822 17
110 1 -0.824614 10.5394 3.56227 19
111 1 -12.5781 2.60749 2.74734 15
112 1 -1.18734 2.65334 15.5197 7
113 1 8.30524 2.15694 -4.85068 19
114 1 4.3389 3.37088 8.41498 17
115 1 -9.31524 7.93354 3.52341 18
116 1 -9.97907 -4.28462 -1.32949 21
117 1 1.39116 -1.48411 10.0163 21
118 1 0.62213 -8.02339 0.133768 19
119 1 -5.28116 -2.41392 -11.0258 17
120 1 7.10747 1.42431 -11.1809 11
121 1 -13.7416 -2.94183 4.41021 9
122 1 -7.98492 -8.76832 -7.39336 14
123 1 -6.95539 -6.43875 1.48707 20
124 1 -5.14906 -7.62686 3.22706 21
125 1 -8.06419 -1.13413 -12.3792 12
126 1 -11.1475 1.80099 -8.25603 14
127 1 7.72454 1.66477 12.5934 13
128 1 4.20845 -0.574494 8.0491 18
129 1 0.972565 -4.43007 8.33156 20
130 1 6.367 11.8177 -0.421447 10
131 1 -7.53082 -9.31244 3.74275 15
132 1 2.43648 12.7407 4.20642 11
133 1 -4.44649 -5.08678 -5.25549 19
134 1 -7.10636 -11.4583 -6.30326 9
135 1 -5.60031 -13.7048 2.20253 9
136 1 10.5269 -1.29447 2.48783 19
137 1 -1.53969 -4.56278 -6.12793 16
138 1 -11.1645 -0.384286 8.84448 13
139 1 -2.29459 -10.0612 -0.323075 18
140 1 0.0518785 -10.5902 2.08091 22
141 1 2.63807 -13.6152 0.47331 9
142 1 -9.1016 4.62108 -7.88197 18
143 1 6.30464 3.69763 3.21856 23
144 1 -8.82017 2.09251 -12.6551 13
145 1 -2.42186 8.69949 -10.1847 13
146 1 -1.49308 -3.23252 9.78652 19
147 1 4.73996 8.30913 8.00073 12
148 1 7.30154 0.725522 7.79508 19
149 1 -10.5077 2.46557 7.52459 16
150 1 -4.34238 -7.27241 12.3182 13
151 1 -9.02308 7.68303 8.70883 15
152 1 5.43857e-04 -3.1212 -10.9958 16
153 1 5.99424 -12.0135 4.79639 11
154 1 8.95012 -0.420114 -8.92395 11
155 1 -14.0504 -0.378101 7.15159 10
156 1 7.73459 -10.6558 -1.03232 12
157 1 -4.93752 11.2095 5.12102 17
158 1 -9.25821 5.4816 5.94178 19
159 1 1.79177 -11.1453 8.75442 13
160 1 2.24945 6.25057 7.56543 20
161 1 -10.2143 0.124878 -5.0643 20
162 1 -1.8554 12.4421 6.17452 11
163 1 -6.68988 1.39847 -3.89364 23
164 1 -13.7401 5.59955 2.88326 9
165 1 -9.46917 -6.07466 -9.40661 13
166 1 -6.54679 8.28624 1.996 22
167 1 6.98913 -5.0239 10.3023 14
168 1 3.80409 -3.43589 9.25906 22
169 1 -4.48645 -3.78426 12.4625 13
170 1 1.80627 -11.5323 -2.30171 12
171 1 -6.69451 -3.02707 -8.27742 18
172 1 -12.6608 -2.5458 -4.60213 13
173 1 -4.98943 -8.31378 -0.595399 18
174 1 10.5772 3.57719 -7.02839 11
175 1 -5.97232 5.55985 -9.38928 17
176 1 -12.6355 7.66851 4.68034 10
177 1 -9.21354 9.61803 0.706633 18
178 1 -7.16139 6.28402 9.86927 15
179 1 6.52151 -5.16029 -7.75225 13
180 1 5.37081 -3.80443 -5.26077 15
181 1 -4.08575 6.60566 0.644546 21
182 1 -2.78219 -7.68569 -4.77765 17
183 1 -0.748487 8.48846 7.7664 18
184 1 -12.0707 4.05456 -6.72375 10
185 1 7.57922 -10.5227 2.35085 14
186 1 10.0587 -1.46697 8.41461 13
187 1 -8.92315 -1.84599 -7.2022 21
188 1 -4.90184 -10.651 4.48688 15
189 1 -8.35524 13.4105 0.793269 12
190 1 -10.8001 5.51654 -3.21654 12
191 1 -4.71637 -7.58019 -7.07599 21
192 1 4.20573 -10.1202 7.23674 19
193 1 -11.2141 -8.09589 -3.32856 13
194 1 -10.4677 6.43665 -5.77845 14
195 1 0.555696 -13.1112 3.43276 13
196 1 -3.84432 1.58399 7.8377 21
197 1 -2.32709 8.46943 4.7795 19
198 1 0.165139 -6.07379 -4.56354 18
199 1 -3.80745 -1.11139 9.52104 19
200 1 -13.2134 0.43168 4.4043 15
201 1 -4.61371 -4.31757 8.20057 23
202 1 -5.8166 -1.47352 12.7142 14
203 1 3.36126 -6.59828 -0.467579 18
204 1 10.1605 -9.60669 1.25179 12
205 1 -0.0959099 11.6412 -6.65451 13
206 1 -7.35725 -6.09914 4.78446 21
207 1 6.58716 -8.14331 9.21591 12
208 1 6.25527 0.835157 0.907501 21
209 1 1.36145 0.675065 -8.5854 17
210 1 10.3017 -3.22088 4.96971 17
211 1 -10.3005 4.95411 13.567 11
212 1 -2.01651 14.9622 1.53704 12
213 1 5.21401 -6.58003 11.3799 12
214 1 -1.85239 -11.3427 -3.04789 12
215 1 2.62415 7.03536 10.774 13
216 1 -7.70019 3.13628 8.68446 18
217 1 -5.60542 -7.32017 -3.52975 15
218 1 -10.8126 -7.41487 -6.61294 13
219 1 -10.0371 8.78704 6.46232 13
220 1 -5.80222 -11.3602 -3.80824 11
221 1 -9.85378 -1.10574 6.51771 18
222 1 9.35954 0.481479 10.0673 13
223 1 6.88965 3.99787 0.00649366 16
224 1 -1.77067 4.72077 -5.91907 22
225 1 -1.91238 8.28518 -7.37077 23
226 1 -4.65927 5.52333 11.5407 17
227 1 -10.683 -4.96835 -4.18636 14
228 1 2.2434 12.6874 -5.19418 12
229 1 -7.74525 -5.55656 -6.45525 18
230 1 -3.02201 -1.31567 -13.307 15
231 1 6.17408 8.27393 -1.65063 16
232 1 4.07183 10.7316 1.69706 14
233 1 1.33789 3.81726 -7.30151 20
234 1 0.267313 -7.75151 3.52663 18
235 1 -6.77389 4.80578 -12.7501 13
236 1 8.92825 5.96222 -1.48136 15
237 1 5.94966 -8.34218 -0.0554172 21
238 1 -2.89313 -1.83133 -10.7075 18
239 1 2.79029 -7.81684 1.85512 16
240 1 1.13849 -7.57906 9.98553 23
241 1 -7.96567 1.25474 -6.76093 21
242 1 -3.65881 3.97182 -13.8102 14
243 1 -9.60418 -4.50429 1.64971 18
244 1 10.3235 -0.515768 -2.78089 15
245 1 -5.04929 9.5668 -0.865424 20
246 1 4.09023 -7.0132 -8.0683 9
247 1 1.59498 4.43895 -11.0225 14
248 1 8.61744 -3.22546 -7.80711 10
249 1 -8.86053 -0.500271 11.2359 12
250 1 -3.43267 13.8682 3.88082 13
251 1 -3.32552 11.0019 -7.73398 12
252 1 9.63491 5.0718 -4.13996 18
253 1 0.617145 -8.57901 -2.76493 14
254 1 3.56151 -2.81664 -8.77932 16
255 1 11.4927 -2.81172 -0.438071 14
256 1 1.65272 -7.60063 6.58307 18
257 1 -15.01 2.86013 6.24696 8
258 1 -9.57503 -10.0008 -5.09828 11
259 1 -1.23728 -0.0999207 11.5283 17
260 1 6.3509 7.4002 -7.9688 16
261 1 -6.81123 10.7267 0.907142 20
262 1 -3.24503 15.0306 -1.70586 13
263 1 1.80207 1.14348 11.3129 22
264 1 3.21089 -10.2764 0.160567 18
265 1 1.86451 1.20774 -12.2183 17
266 1 -13.5731 -2.61794 -1.00646 11
267 1 -7.05427 4.7377 -2.65378 19
268 1 -7.89231 -6.52908 7.9168 15
269 1 4.1657 7.86233 0.367275 17
270 1 -3.55692 -4.70859 -11.8809 14
271 1 0.629315 -7.41702 13.5703 16
272 1 3.57524 -1.42484 -4.91902 18
273 1 -9.91768 6.92802 0.473238 17
274 1 8.99617 -6.2085 -6.07795 10
275 1 -0.090636 8.0297 11.7349 9
276 1 -1.68662 1.24958 -7.25044 18
277 1 3.7906 6.69049 -10.0721 12
278 1 -6.14023 -7.32781 -12.2589 9
279 1 -4.08079 -12.3956 -0.910912 14
280 1 11.7605 0.859364 0.0725857 11
281 1 2.1614 -4.90233 -10.4181 12
282 1 4.82993 -9.6001 -2.94086 13
283 1 2.81139 11.8698 -1.73722 13
284 1 -9.42344 4.16642 2.47658 19
285 1 8.66404 8.55011 -5.78508 13
286 1 -1.59802 -6.71484 11.6824 21
287 1 10.5295 3.2662 10.9752 13
288 1 -7.95681 -0.0754759 -9.79023 20
289 1 9.49532 3.12817 -0.876629 16
290 1 6.54568 -5.26246 1.45061 20
291 1 5.87352 7.80651 10.9501 9
292 1 7.59762 3.54073 9.10948 21
293 1 -3.45624 12.2169 0.190621 21
294 1 -3.35492 -10.749 -6.06938 13
295 1 -7.26189 7.57718 -6.81098 15
296 1 -5.91986 1.52151 -13.0801 13
297 1 -13.0693 0.927869 -5.36103 13
298 1 6.00346 -5.46916 6.93547 22
299 1 3.83898 -6.55273 8.80482 21
300 1 9.20168 6.14172 -8.50322 11
301 1 7.44425 -1.77839 2.63945 22
302 1 6.42306 8.29793 5.0729 16
303 1 7.31653 -2.16085 -3.29085 19
304 1 -4.68938 4.52038 8.77232 22
305 1 -10.141 -7.87077 5.25489 9
306 1 -10.8808 0.333038 -11.1405 12
307 1 -2.63032 -2.46748 14.6384 9
308 1 -6.80658 13.7388 3.86467 11
309 1 8.68024 5.55294 5.17928 19
310 1 7.66159 3.24419 6.47001 19
311 1 -11.8708 -3.09883 7.47007 11
312 1 4.76259 0.616352 -12.7951 10
313 1 1.10738 -8.82533 -7.67823 13
314 1 9.99959 4.17183 7.76112 14
315 1 5.12178 4.77568 5.4805 17
316 1 -2.49026 -5.73904 14.5707 12
317 1 -7.06127 5.04963 13.1212 14
318 1 -10.1748 4.74313 10.2236 19
319 1 -6.85392 4.51516 -5.74101 19
320 1 4.96944 12.3739 -3.87593 9
321 1 -0.947043 2.31396 9.18333 20
322 1 -1.11644 13.4659 -4.02364 14
323 1 -7.86364 -12.094 2.23465 11
324 1 3.34622 6.19618 3.67785 19
325 1 -7.11481 5.3631 4.09058 23
326 1 -6.30376 4.69233 0.709167 22
327 1 7.54573 10.7911 -2.99312 12
328 1 5.08095 3.21912 14.5805 12
329 1 8.49715 5.797 10.5455 13
330 1 1.46894 -3.14625 -6.03274 18
331 1 -0.716026 5.52654 7.36112 20
332 1 2.97739 -4.26268 -3.56733 19
333 1 3.06048 9.44171 5.46462 17
334 1 -12.1089 -3.68297 1.19914 17
335 1 6.06583 -13.0027 1.29519 9
336 1 9.70445 8.56553 -3.02798 10
337 1 3.79089 -3.61935 6.12608 20
338 1 -3.93715 9.93273 2.29975 19
339 1 0.182457 -0.61013 -13.6867 14
340 1 6.33624 -1.5174 -7.43939 20
341 1 -3.6113 10.1019 7.37965 16
342 1 1.16235 -4.82099 11.4427 18
343 1 -8.32497 -9.76542 -2.45202 13
344 1 -6.35321 5.94433 6.97983 21
345 1 6.41039 0.998517 4.43103 20
346 1 -2.00569 7.81334 -4.31462 20
347 1 6.79478 4.3822 -10.034 16
348 1 6.51413 3.98022 -3.48711 18
349 1 0.529839 6.74132 -9.01605 19
350 1 -5.84716 1.35254 10.5386 19
351 1 -6.44342 -2.7263 9.96684 17
352 1 -0.464865 -1.96712 -8.20724 19
353 1 -7.44093 7.46212 -0.92078 20
354 1 7.4586 10.1105 2.43662 11
355 1 -7.35418 -3.43875 3.1101 23
356 1 4.91741 4.50106 -8.19873 17
357 1 -7.73127 1.66233 13.0783 13
358 1 -11.1454 -7.01985 -0.125067 14
359 1 6.42631 -2.10705 -0.566863 19
360 1 -8.00088 -6.71513 -1.52395 20
361 1 10.9606 -6.45693 2.73152 14
362 1 4.01585 -9.70561 4.4945 17
363 1 -3.04534 7.79947 9.74521 13
364 1 -12.4286 6.54436 11.3713 10
365 1 9.21505 1.10227 2.55055 22
366 1 7.04478 -7.71774 -2.55414 16
367 1 0.739348 7.24953 4.76873 24
368 1 0.524611 10.8737 6.18767 16
369 1 -2.10591 -13.0774 1.93219 14
370 1 -8.86966 -1.93988 -3.7497 22
371 1 0.400359 -0.193752 14.1926 15
372 1 1.51425 13.9465 1.04673 10
373 1 5.67762 -3.83409 12.8879 11
374 1 5.80821 -1.82458 5.93936 21
375 1 5.12492 5.08872 11.3484 15
376 1 -1.61397 7.54075 -0.884972 21
377 1 -1.56745 -8.42624 -7.54234 16
378 1 -3.0774 0.867426 -15.0289 11
379 1 -9.86402 1.96525 11.0262 12
380 1 12.4776 -3.28085 2.90444 11
381 1 0.966449 6.77979 -5.686 19
382 1 6.35842 -1.55988 -10.6648 12
383 1 -7.1007 -12.1737 -1.12491 12
384 1 -6.57036 -1.33234 -5.64746 22
385 1 -0.819237 0.209284 -10.3458 19
386 1 -2.27084 -6.99171 -1.28573 20
387 1 -0.381175 -3.2722 13.2849 16
388 1 -2.41795 -6.3371 4.79254 17
389 1 7.35854 4.44802 -6.64003 20
390 1 -8.27457 10.9315 3.78576 18
391 1 10.0432 -3.68582 -3.60368 13
392 1 -13.6055 -0.0824552 -2.50147 11
393 1 8.95343 4.60306 2.20246 16
394 1 2.36999 3.91765 12.0216 18
395 1 -11.1484 -0.644004 -7.33285 17
396 1 -3.73582 3.17601 -7.34196 20
397 1 9.7423 -6.59444 -3.4444 10
398 1 -7.40516 -4.18844 -3.5649 20
399 1 -3.93852 -10.9471 1.61033 18
400 1 9.63661 -4.10522 1.83097 21
401 1 -12.1664 8.09026 1.52769 12
402 1 -0.0212329 10.0786 -9.19453 11
403 1 3.97534 -7.2872 13.7212 7
404 1 -6.35912 -0.0229063 7.17496 20
405 1 -7.49821 -4.41358 -10.9419 13
406 1 -3.87619 -10.1638 7.4286 14
407 1 3.62495 0.772143 13.8493 17
408 1 -0.342047 -12.5225 -0.554207 13
409 1 7.26966 1.68612 -7.75145 20
410 1 -7.18069 8.23026 5.37389 25
411 1 -6.48855 2.84712 5.95138 21
412 1 -0.23366 -10.2604 -5.04149 13
413 1 9.32664 7.83955 2.77532 13
414 1 10.8401 2.62256 -3.26914 10
415 1 -1.52991 -6.24929 8.11331 23
416 1 5.98612 9.81368 -5.99393 13
417 1 4.10534 1.87837 -6.73355 20
418 1 -9.59797 3.52224 -4.78639 21
419 1 3.56635 4.64742 -5.03059 19
420 1 7.62316 7.00804 7.95131 12
421 1 0.728623 9.78822 -3.83875 19
422 1 -9.18072 6.97321 12.1632 12
423 1 6.80404 1.19158 -1.95036 23
424 1 2.79433 -12.8839 5.92686 13
425 1 11.6675 1.48263 7.92225 11
426 1 9.14081 -0.736929 -5.70056 17
427 1 -4.42685 6.70679 -12.049 14
428 1 1.89796 9.11297 8.74297 13
429 1 -1.29606 7.98219 2.02979 22
430 1 -4.44446 -6.59725 6.30813 18
431 1 9.86258 -9.36736 4.91508 9
432 1 -1.27091 1.64255 -12.5066 18
433 1 -12.0097 -6.97253 2.48092 11
434 1 -4.45985 6.68894 -2.79614 19
435 1 7.21764 -2.34203 9.85327 16
436 1 -6.97466 -5.49428 10.9084 13
437 1 8.75678 -4.98354 -0.979668 17
438 1 -1.41406 5.69575 -11.8533 17
439 2 -11.4286 0.131765 -9.44786 13
440 2 -9.05648 10.0901 -3.12169 12
441 2 -1.60347 -0.52529 -14.7556 9
442 2 -9.08626 6.43105 10.2574 19
443 2 -8.77479 -0.967736 -5.5079 19
444 2 -1.12681 -1.44149 13.7703 13
445 2 -10.5607 0.593225 7.14009 17
446 2 7.01317 4.27971 4.93582 20
447 2 -3.39154 -4.61025 -6.6596 19
448 2 -9.59361 -8.91275 -6.64398 13
449 2 -6.90775 3.87617 -1.06159 20
450 2 -2.39725 -6.50912 9.95847 19
451 2 1.12806 2.59764 12.8776 20
452 2 6.32733 -0.202336 -11.897 10
453 2 6.6958 -0.740938 4.42728 21
454 2 -6.67305 6.61139 0.744562 21
455 2 11.5469 1.39227 5.9256 12
456 2 -9.66678 -2.6409 7.43856 15
457 2 -3.98207 -13.021 1.2136 14
458 2 6.85824 -7.21117 7.56322 14
459 2 -10.2626 8.32189 1.86035 15
460 2 -4.07425 7.5974 -4.49965 22
461 2 -2.33672 8.22096 6.59293 20
462 2 5.7712 -4.94789 -4.02333 16
463 2 -3.76858 1.22776 -7.43504 21
464 2 -1.43943 -2.78759 -6.787 19
465 2 7.71292 0.71824 -9.54004 16
466 2 7.32648 10.1132 -1.07892 13
467 2 -5.61317 10.6876 7.09757 13
468 2 -6.8365 -10.3189 -7.95207 12
469 2 2.14504 -10.2944 10.2589 12
470 2 6.99484 -0.991606 0.874797 19
471 2 -12.5646 1.32922 -3.38381 13
472 2 7.2792 8.55623 3.25014 14
473 2 3.18163 -11.6983 7.43069 14
474 2 3.16129 7.63085 8.78016 14
475 2 4.76156 8.83045 5.83858 13
476 2 1.57064 7.46792 -7.51368 20
477 2 -14.7386 1.03674 5.74865 8
478 2 3.6092 1.03471 -8.60177 18
479 2 -9.83594 0.877156 -7.38503 22
480 2 -13.4914 -1.27517 5.60815 14
481 2 -9.4892 -8.91301 3.90918 13
482 2 0.86433 -6.89673 5.08317 21
483 2 -4.37797 -2.37074 13.8164 11
484 2 -1.35045 7.56603 9.23726 16
485 2 -7.38392 3.98438 2.37347 20
486 2 0.342333 -5.138 -6.35928 19
487 2 8.60279 2.96094 -6.72542 17
488 2 1.34205 -12.9864 -0.817329 11
489 2 7.98755 1.73206 9.28127 21
490 2 6.36313 -9.55356 -1.84601 15
491 2 3.54283 -1.75364 6.21445 21
492 2 -7.12421 -7.24526 3.33991 19
493 2 12.1287 -2.32773 1.43996 13
494 2 -4.30796 -9.89913 0.0695538 19
495 2 6.31568 -3.74286 2.51647 20
496 2 -4.48331 -6.95654 -8.92518 19
497 2 -7.70006 -4.6214 1.1494 23
498 2 -4.95258 -6.79972 1.64233 19
499 2 -7.06287 -5.17036 -1.93385 20
500 2 -3.4776 12.644 5.13404 15
501 2 1.12179 1.96517 -7.07398 17
502 2 8.18154 7.73833 -1.864 15
503 2 4.42462 7.32208 -8.31793 16
504 2 -10.9237 6.706 12.3836 9
505 2 -11.9146 6.48093 0.476051 14
506 2 -6.62392 4.72912 8.64779 21
507 2 -13.5371 7.77306 2.86938 8
508 2 -11.2842 4.6518 -5.19018 15
509 2 8.03746 3.34082 -10.689 12
510 2 10.5209 -7.68507 1.29688 13
511 2 6.93217 4.94712 1.67835 19
512 2 1.64094 13.5482 2.78119 11
513 2 -6.984 7.80012 8.52076 17
514 2 6.6902 4.88225 -1.79282 21
515 2 1.36402 7.29718 -0.79663 22
516 2 -1.43092 9.52953 -4.0027 22
517 2 -0.772599 4.46568 8.85876 20
518 2 1.61362 -3.6597 13.04 18
519 2 1.04455 0.421028 -10.4646 21
520 2 -8.69347 5.92933 13.871 8
521 2 2.75299 3.02823 -12.0944 13
522 2 -6.19899 -3.91228 11.392 15
523 2 1.4843 -7.06099 -1.04923 21
524 2 -1.76858 -5.99178 -4.79581 18
525 2 6.30008 -12.4768 2.99183 9
526 2 6.71324 7.98486 -5.85096 14
527 2 -6.06956 6.86392 -8.08708 16
528 2 -2.13578 11.4807 7.5685 12
529 2 -10.2 -3.17867 0.387723 21
530 2 3.66687 6.76386 -4.87329 19
531 2 -3.13257 14.2126 0.0816219 16
532 2 -4.23685 4.90848 13.364 12
533 2 3.89173 -8.45454 0.272536 15
534 2 0.203755 1.49847 15.0862 11
535 2 8.75741 -6.94523 -1.73507 18
536 2 5.99873 8.0011 0.738573 18
537 2 -5.20691 1.81401 -10.9601 17
538 2 2.0702 -6.30629 14.0749 11
539 2 -6.24815 -6.52529 7.01317 18
540 2 4.63974 -8.53864 8.4734 20
541 2 -2.87719 12.5661 -3.86946 14
542 2 -5.5392 -12.2444 -2.24581 12
543 2 -1.3157 -2.06466 -9.94898 19
544 2 -3.236 -8.83321 -6.53484 13
545 2 8.57201 5.2441 8.6124 16
546 2 -11.3524 -6.7414 -4.66952 12
547 2 -13.1611 4.14433 1.4965 15
548 2 3.59974 -1.3395 9.8452 21
549 2 -0.975863 -11.9077 1.13858 16
550 2 -0.69778 0.270479 -8.37038 20
551 2 -7.29892 -2.6584 -11.7548 14
552 2 -9.56144 -0.977567 -11.2041 12
553 2 -7.67572 1.9486 11.0706 18
554 2 -5.20794 -1.7759 -7.21549 21
555 2 3.03597 -5.90163 -9.00175 14
556 2 3.38364 -3.67878 -5.37473 17
557 2 -6.99172 -4.16698 5.03012 20
558 2 1.68154 -2.60733 -8.17749 21
559 2 -1.35495 -8.62341 -3.19175 19
560 2 -0.778371 8.39399 -9.05514 16
561 2 6.98754 6.02547 11.4761 13
562 2 12.091 -2.20325 4.57796 11
563 2 -12.4228 -3.20555 3.05747 17
564 2 -1.87521 -10.462 5.79538 15
565 2 -1.91425 3.5717 -7.37166 18
566 2 -2.64545 6.63448 3.9757 23
567 2 -6.9277 -7.60533 -0.207159 19
568 2 -5.46473 7.38717 5.76999 23
569 2 -8.36472 -5.2678 9.42585 12
570 2 -2.58756 -6.75099 6.73201 21
571 2 -13.3203 0.516266 2.3785 13
572 2 -8.4763 -10.1375 2.07926 12
573 2 -7.67689 -1.1738 6.15089 15
574 2 4.01063 -5.2239 10.2614 21
575 2 1.1316 11.0522 -8.06244 10
576 2 5.78075 12.8088 -2.15992 8
577 2 8.96417 7.35039 -7.17655 10
578 2 -4.99057 14.1553 -1.992 11
579 2 -9.53169 1.64389 -3.93741 21
580 2 -13.4865 -1.93806 -2.80155 10
581 2 -2.4224 -11.6268 -1.37247 14
582 2 4.2615 -4.57884 7.65385 19
583 2 7.68866 -3.94552 8.54846 17
584 2 -4.06595 11.017 -1.55751 17
585 2 7.19906 2.14042 -0.471806 18
586 2 4.14878 -2.75943 12.6624 15
587 2 -4.62486 -1.09258 -10.0557 18
588 2 5.58536 6.43305 4.07759 18
589 2 6.59167 8.06611 9.0588 11
590 2 0.653731 -0.538577 11.9871 20
591 2 -7.00002 7.26515 3.69035 20
592 2 6.23835 10.6234 -4.31181 11
593 2 -7.66452 -7.02418 -7.66694 15
594 2 -6.94349 -2.10252 -3.65254 22
595 2 -12.7239 -1.36007 8.29875 9
596 2 3.19347 12.5963 -3.64385 11
597 2 9.97432 6.64345 -3.03364 11
598 2 6.39047 -6.31049 3.17295 19
599 2 -11.4828 -5.65512 1.24963 16
600 2 -3.55622 9.99474 4.23546 22
601 2 -3.57213 7.25594 -7.60676 22
602 2 0.507334 4.31044 -9.24598 17
603 2 -10.2522 4.20539 0.752066 16
604 2 -12.435 -3.64147 5.67942 12
605 2 6.97804 -11.6617 0.42147 11
606 2 1.43861 -9.82723 1.11175 19
607 2 -7.84785 9.70793 2.3754 19
608 2 -1.6849 -7.69194 3.41512 18
609 2 -12.3487 2.14725 -6.57342 13
610 2 2.72566 -9.18476 6.28193 20
611 2 1.77128 5.19101 10.7528 18
612 2 -2.11456 2.7111 -14.0632 14
613 2 -3.69382 9.99054 -9.4074 10
614 2 4.99863 5.17741 -9.95577 14
615 2 -6.6595 13.8414 0.0934461 15
616 2 -10.3585 0.338832 10.3828 12
617 2 -3.51529 -3.11103 10.0949 17
618 2 -4.43335 -6.44621 4.51069 22
619 2 -11.5207 -3.93689 -5.54997 14
620 2 -1.62911 -1.10475 9.77432 18
621 2 -1.80871 5.38824 -10.0928 19
622 2 5.696 -1.68239 -4.70721 17
623 2 1.46147 -0.511747 8.22515 22
624 2 0.377338 1.35863 -13.3942 16
625 2 3.08341 6.06434 1.79318 20
626 2 4.43086 3.67251 12.4603 18
627 2 -9.6495 -3.42235 3.26609 20
628 2 -7.37355 12.2004 -2.63902 14
629 2 -1.04526 3.82658 14.0438 12
630 2 3.6809 -8.37342 3.29246 19
631 2 -4.0791 -11.6767 6.05119 13
632 2 6.96334 3.10246 13.9003 11
633 2 4.30128 9.86798 -6.7633 13
634 2 -1.35778 11.6782 -0.869324 17
635 2 1.38384 -12.0733 4.80681 15
636 2 3.21878 -10.1992 -2.02821 16
637 2 -1.92667 -0.477643 -11.8644 20
638 2 2.4336 -0.645632 14.5116 14
639 2 2.48437 4.24682 8.03505 19
640 2 3.55587 -4.76218 4.49964 21
641 2 -7.59052 0.770246 -12.302 14
642 2 8.51608 -5.19392 -7.61029 10
643 2 -7.70405 12.7116 2.5729 12
644 2 -2.54899 -5.71237 -9.85034 16
645 2 -6.90339 3.25377 13.7167 13
646 2 -10.6636 7.37518 -3.84702 10
647 2 8.29232 -5.26723 0.870031 22
648 2 3.01254 9.36867 0.70154 16
649 2 9.26004 4.81602 0.286636 14
650 2 9.92042 0.269197 1.1393 18
651 2 -8.97736 1.63637 -0.79023 16
652 2 -6.33205 6.79276 -2.31049 20
653 2 -8.20885 3.51455 -6.64225 19
654 2 8.97859 3.8823 -2.57915 17
655 2 -7.09657 9.64621 -1.11329 20
656 2 -3.47721 -10.1321 3.15645 20
657 2 3.64172 0.96688 11.9542 19
658 2 1.29414 -7.61782 -4.215 17
659 2 -3.83559 -2.7496 -12.2757 12
660 2 1.5918 12.921 -0.635711 11
661 2 6.17354 11.204 1.38428 11
662 2 -7.96464 -3.57711 -7.16128 21
663 2 -12.1646 -7.09146 -1.75056 11
664 2 6.7294 1.88734 2.49203 20
665 2 -4.71301 7.95902 2.3703 23
666 2 3.92638 -12.0042 4.42147 16
667 2 4.89364 -5.5966 13.1602 12
668 2 -3.62436 -3.7446 6.71163 21
669 2 -6.29 -5.00541 -5.10679 18
670 2 -2.20496 4.24023 11.4214 16
671 2 1.3224 7.82216 -4.23245 19
672 2 -10.8091 8.12771 4.74874 14
673 2 -3.91288 -5.38249 13.4488 13
674 2 -5.18331 14.4261 2.99519 13
675 2 -0.260463 -9.80508 3.77752 19
676 2 -1.04586 -4.41952 8.04108 16
677 2 6.31607 0.709159 12.0733 14
678 2 -9.31325 6.02732 3.43386 19
679 2 -3.95597 8.01015 -1.10386 23
680 2 0.861544 1.93669 9.80755 21
681 2 -6.24484 -8.54029 -10.8843 10
682 2 11.1118 -0.938533 -1.03334 14
683 2 7.52444 -0.0652701 -6.60661 21
684 2 -4.90847 10.9796 0.85584 18
685 2 -10.2457 3.65761 12.0379 15
686 2 -6.37541 3.33907 -4.17857 20
687 2 10.294 -5.29243 -4.72448 8
688 2 0.548769 9.02177 1.57399 19
689 2 -3.87572 6.09944 9.84604 21
690 2 -4.50193 2.56928 9.39058 22
691 2 -5.92836 6.00929 -11.3603 15
692 2 -12.1094 -0.956068 -5.49373 16
693 2 -9.57935 -4.42506 -10.3174 12
694 2 -1.25196 6.65029 -5.90373 20
695 2 -8.24563 -1.69694 -8.80754 23
696 2 5.63165 -6.49662 -6.98965 14
697 2 -1.52016 -8.33779 -0.0430762 19
698 2 0.167567 -9.39277 13.3467 12
699 2 9.40924 -1.82225 6.56251 20
700 2 7.7137 -2.33008 -9.29574 12
701 2 -1.64019 -13.2301 3.71084 14
702 2 9.74821 2.89874 2.99497 15
703 2 -8.25889 9.90594 5.40121 15
704 2 -11.5606 -8.40055 1.27706 9
705 2 10.0273 1.10452 -4.07309 18
706 2 5.68537 -10.41 5.74056 15
707 2 -6.72292 11.9359 4.84969 13
708 2 4.58465 0.785036 -5.31824 20
709 2 5.51193 3.56912 7.07168 17
710 2 -12.0321 2.0227 4.52589 17
711 2 -1.84703 11.187 -6.6873 14
712 2 3.37798 -0.23827 -11.8669 16
713 2 -6.86243 1.87912 7.62954 19
714 2 -5.80166 -0.643316 10.632 18
715 2 8.69199 -1.36599 9.90502 13
716 2 5.34877 2.16836 -11.8051 13
717 2 -9.43879 -4.02658 -3.25875 17
718 2 9.50902 -1.54451 -7.25348 11
719 2 -1.89858 9.78732 1.81886 20
720 2 0.120387 -7.41977 -8.48023 12
721 2 -12.8031 5.5811 4.39304 15
722 2 -9.23499 2.14505 3.18541 17
723 2 7.48036 -8.36714 1.10368 19
724 2 -2.31232 -11.0157 -4.65447 12
725 2 0.26967 -10.7917 -3.11527 13
726 2 9.4427 -1.90361 -3.99585 15
727 2 -3.81951 7.27484 -10.4455 16
728 2 2.26969 11.2492 5.5288 14
729 2 -5.23333 -11.1603 -5.6037 9
730 2 5.59365 3.75984 9.86109 17
731 2 -6.54794 5.64434 11.6079 16
732 2 -6.7909 9.22802 -4.83852 14
733 2 -1.90746 -8.15506 -9.65479 13
734 2 -4.88204 -8.42088 7.71062 15
735 2 -9.12823 8.19822 -0.675898 18
736 2 8.82175 9.71797 -4.11918 11
737 2 -4.31687 4.30556 -9.2846 20
738 2 4.44989 3.651 -3.7412 20
739 2 -7.35287 -6.31439 -10.8726 11
740 2 -0.435329 -9.36096 -6.63768 14
741 2 -10.896 -2.36046 -7.88157 16
742 2 9.27922 4.29991 11.8123 11
743 2 -5.57928 3.39572 -13.2727 15
744 2 -11.0941 -6.41301 4.13345 13
745 2 10.9907 0.243246 9.01524 11
746 2 9.4679 1.56438 11.6817 12
747 2 7.36997 6.03882 -8.97873 14
748 2 -4.08515 9.814 -6.37114 16
749 2 -0.349066 14.5292 1.00045 13
750 2 9.53154 -2.48116 0.825854 20
751 2 -6.34406 0.423519 -5.59724 22
752 2 1.49277 10.7632 -5.38971 16
753 2 -1.80144 1.48936 11.1914 19
754 2 -4.62301 -7.08043 -5.27361 15
755 2 3.60491 2.46753 14.6759 11
756 2 0.785371 9.7128 7.57796 15
757 2 9.3495 -7.13609 3.99736 17
758 2 6.69989 -3.36574 -6.73813 19
759 2 -3.91786 8.86624 8.67713 12
760 2 4.13613 -8.27574 11.956 14
761 2 -0.832802 9.37023 -0.68369 19
762 2 1.27733 8.72878 10.6103 10
763 2 -4.02646 4.61944 -5.95812 20
764 2 -1.32949 14.1553 -2.19298 14
765 2 -9.74992 -9.13606 -3.45485 12
766 2 0.500517 -2.07587 -12.5013 16
767 2 -7.37623 4.80085 5.86322 21
768 2 7.43016 -3.74233 -1.60618 18
769 2 -6.70189 6.42211 -5.28725 21
770 2 -13.2411 3.66276 6.84956 9
771 2 -7.62731 -10.7385 -4.639 13
772 2 4.30275 6.98513 11.211 12
773 2 -4.11474 -6.47311 -11.8819 13
774 2 -7.89178 4.23745 -9.42383 17
775 2 0.77322 4.74841 -5.66361 20
776 2 -3.21823 5.28807 -12.6041 13
777 2 -9.12037 6.96151 6.77129 19
778 2 -10.0921 9.17354 8.43617 9
779 2 0.30396 13.2251 -5.1717 11
780 2 -7.54078 -10.3816 -1.02462 15
781 2 5.86366 3.01255 -7.53563 18
782 2 5.05703 -1.55013 -8.96044 14
783 2 -6.1416 -9.06377 4.87226 17
784 2 -9.13948 4.65298 -2.72335 20
785 2 -8.62753 -7.27518 6.26915 12
786 2 -2.0812 1.98178 -10.4546 20
787 2 0.652789 -10.4376 7.35695 16
788 2 10.6364 2.94754 9.05746 14
789 2 6.24028 -0.694157 7.51212 19
790 2 -7.46485 -0.389233 12.9679 13
791 2 1.87374 6.31472 -10.3271 14
792 2 -1.2346 6.6737 12.3941 13
793 2 -9.69925 -6.0751 -1.24177 22
794 2 -5.41408 -6.76257 11.0183 13
795 2 -10.6732 4.32006 6.87149 14
796 2 -9.10937 7.1302 -6.69865 11
797 2 -10.5702 -5.94425 -7.72213 13
798 2 -1.86329 14.493 3.43351 10
799 2 6.76116 -6.66805 10.1892 13
800 2 9.38584 3.96492 6.01582 15
801 2 -6.80442 -12.7686 0.730183 12
802 2 -12.4256 -1.43557 0.0194483 15
803 2 -13.5324 1.39266 -0.878319 11
804 2 -4.25697 -0.534235 7.8576 21
805 2 -0.509807 -3.36183 11.1988 18
806 2 1.75262 -13.1912 2.00725 14
807 2 7.46894 1.4136 6.00763 20
808 2 7.66607 -7.14991 -4.23137 14
809 2 0.597033 6.63609 6.58551 21
810 2 -5.46236 -4.05722 -9.57879 19
811 2 -9.7837 -0.880266 4.54877 19
812 2 1.88744 -3.87429 9.67288 20
813 2 -4.98112 2.11563 12.2435 16
814 2 0.313789 -6.75191 11.5978 19
815 2 3.72659 4.19291 -6.8888 20
816 2 7.70787 6.7954 6.13867 17
817 2 2.71136 -3.06923 -10.5092 14
818 2 6.09425 -3.64738 5.86043 19
819 2 10.5764 3.6705 -4.99231 12
820 2 10.3991 -3.99932 -1.66563 16
821 2 2.57274 8.01041 4.12736 19
822 2 10.0463 -0.00609908 4.18639 16
823 2 -2.76229 -8.49707 12.0294 16
824 2 -1.25084 -7.23424 13.8698 11
825 2 -6.34773 -3.21145 7.82289 21
826 2 4.17236 -12.4458 0.764622 12
827 2 8.32167 -8.52893 5.57691 12
828 2 11.1099 -4.65964 2.77605 14
829 2 -2.82554 -9.58817 8.91229 13
830 2 9.23935 -2.5534 3.54087 22
831 2 -12.0829 5.18879 10.031 11
832 2 -4.36341 5.1746 6.96642 19
833 2 7.06183 5.19792 -4.93271 22
834 2 0.173125 -4.90285 -10.1605 14
835 2 2.57282 -7.91847 -6.86846 12
836 2 -0.371894 4.2578 -12.4767 15
837 2 -8.53041 3.93345 -12.029 10
838 2 2.65477 11.0164 2.9731 17
839 2 -9.12958 -1.18571 -1.93511 20
840 2 11.1487 2.06749 -1.49141 11
841 2 -9.85363 -0.434137 1.28005 20
842 2 5.21202 -6.93031 5.66834 22
843 2 2.0032 10.0056 -2.29853 17
844 2 10.0697 4.53325 -8.63543 10
845 2 4.65548 7.12613 -2.0799 16
846 2 -0.166219 -9.0766 10.0226 17
847 2 -12.9575 -4.43777 -0.492693 13
848 2 6.32899 -3.45218 11.0771 13
849 2 9.44188 -4.72596 5.59683 15
850 2 5.85958 -6.96902 -1.21055 20
851 2 8.94059 6.09458 3.42592 16
852 2 -9.58657 2.96243 9.05868 15
853 2 -12.0559 4.65474 -2.12186 13
854 2 7.46275 -0.64052 -1.97707 18
855 2 9.33496 -9.85318 3.01243 12
856 2 -4.65947 -7.24671 -2.00712 18
857 2 -0.342471 8.74234 3.95551 22
858 2 9.44278 -10.1779 -0.510658 12
859 2 3.23496 5.09898 5.42502 18
860 2 -5.94186 -11.8122 3.20224 11
861 2 2.05263 -6.92695 8.40804 19
862 2 -12.3381 8.03925 10.2295 9
863 2 -4.25041 0.740821 -13.7111 14
864 2 -10.7469 3.74458 -8.37402 13
865 2 -8.31611 -2.17582 10.2519 14
866 2 -1.6501 -4.08148 14.4573 11
867 2 -10.1901 1.97962 -11.2207 12
868 2 3.83985 1.34806 7.85614 17
869 2 6.61654 1.72372 -3.82497 23
870 2 -6.76666 1.01488 -8.70862 18
871 2 9.10569 9.27856 1.70633 10