ITEM: TIMESTEP
46500
ITEM: NUMBER OF ATOMS
2880
ITEM: BOX BOUNDS pp pp pp
0.0 33.66
0.0 33.66
0.0 32.9
ITEM: ATOMS id type x y z Coordination
189 2 3.946 3.65829 5.16847 19
2504 2 3.67332 3.05158 0.329132 16
1563 1 1.05094 5.03155 4.38096 18
9 1 0.670725 0.956882 3.06334 19
5 1 4.647 0.779016 2.87825 21
1 1 3.01079 3.55519 3.12721 19
945 2 2.30609 1.46394 2.98415 21
29 1 2.71999 4.63638 0.887769 17
379 1 2.50717 1.22087 0.820748 18
2 1 5.1738 3.91442 1.85296 20
199 2 2.06578 5.54847 2.37481 18
2507 2 0.392083 2.05226 1.14871 19
770 1 4.23413 0.277535 6.02222 21
1750 2 4.59062 0.268553 1.17593 17
1570 1 1.29222 1.7622 5.75174 19
1752 2 1.83602 3.07786 4.64467 19
1584 1 5.10181 5.10782 4.97021 20
834 1 3.65427 5.33325 9.45 21
16 1 4.22088 2.73856 6.83564 19
542 2 5.25363 0.962997 11.8503 17
214 2 5.47916 5.00247 10.4507 22
93 1 2.79044 4.34552 11.7523 20
777 1 0.466977 0.154428 12.1319 18
251 2 1.17659 5.28426 10.2926 18
11 1 0.173176 3.83529 10.5436 21
1005 2 2.93516 1.20509 7.11325 19
17 1 2.76525 1.43109 9.29544 21
191 2 3.6545 3.10247 10.1038 18
959 2 1.88698 0.775517 10.7895 17
1592 1 0.838293 4.22997 7.27228 21
778 1 3.26514 1.39538 12.8033 20
253 2 5.25468 2.86895 8.26018 21
2520 2 0.590341 0.897378 17.7224 21
563 2 4.69744 3.28237 15.3294 16
369 1 2.32895 0.90031 18.5593 23
547 2 0.433556 5.1918 14.9298 21
1308 2 3.82724 0.820533 17.4848 24
541 2 2.78705 0.589746 15.2976 20
608 2 2.54178 3.27627 17.3782 22
365 1 4.86272 4.67591 14.0849 18
1122 1 4.30444 2.7303 18.4445 20
1758 2 2.43858 3.03442 13.6321 21
1123 1 2.85015 2.62418 15.5967 20
19 1 0.414095 2.46291 16.4685 21
549 2 0.268777 4.23458 16.8965 19
1183 1 5.11456 1.3591 15.8494 21
1365 2 5.0535 4.30277 19.2116 21
388 1 1.70665 4.42622 18.4696 21
779 1 0.265317 3.56687 13.3568 20
1103 1 0.876565 0.191477 15.9549 23
1135 1 4.07051 1.12569 23.9304 22
374 1 2.56975 2.76128 21.7328 23
456 1 2.92694 4.03143 24.5824 23
452 1 4.07657 4.97935 20.8802 20
629 2 5.13418 3.89688 25.1671 20
431 1 3.77337 0.203644 21.1979 20
556 2 4.90662 2.80331 22.2696 20
2110 2 3.04431 2.35282 25.4277 20
378 1 -3.91214e-04 2.13845 24.698 18
1110 1 0.966432 0.777553 21.5301 23
1367 2 1.77 2.25379 19.9319 24
2131 2 1.22689 3.75544 23.2304 23
578 2 2.49613 5.17748 20.2987 21
543 2 2.78065 1.15652 22.5996 17
627 2 5.49317 0.0519393 22.8358 17
2118 2 0.238777 0.65202 23.3693 22
1952 1 0.188944 4.9926 21.6863 20
1741 2 0.354074 2.51934 30.1761 17
944 2 3.59222 2.04496 30.5271 19
1562 1 4.73113 4.1246 29.3204 19
1582 1 0.301945 4.01188 31.2518 16
377 1 4.37644 3.41956 26.9147 20
181 2 2.74591 3.50922 28.1598 22
2690 1 1.73215 1.15377 26.6158 18
616 2 4.80935 2.03597 27.904 21
457 1 5.059 1.40556 32.2171 21
1774 2 1.22886 5.10529 30.0285 19
1936 1 2.32253 2.84949 29.7321 17
1131 1 1.49685 4.31885 26.866 21
400 1 3.87222 0.261635 29.9392 19
211 2 1.48621 7.32751 5.56464 19
109 1 4.8105 8.43867 4.44228 19
8 1 1.72997 7.37514 3.73446 20
264 2 5.33245 10.0021 5.30102 19
210 2 4.90476 10.2946 0.848346 18
23 1 0.346194 10.3463 3.29611 19
222 2 2.20748 11.0224 3.23465 20
82 1 4.12644 7.05211 1.93383 19
416 1 2.57568 9.57815 1.95572 21
1746 2 0.714101 8.81059 2.53342 21
269 2 3.02356 8.36065 3.26501 20
597 2 2.91227 6.60995 0.0991126 20
1502 1 0.956843 7.35608 1.02683 22
45 1 1.00181 10.3681 5.8916 22
263 2 4.46174 5.55469 3.08326 19
25 1 2.8296 7.35576 6.75083 22
381 1 5.47927 6.95595 7.64551 19
1944 1 4.525 8.6659 10.063 25
272 2 2.75772 9.26054 6.84656 21
566 2 3.75625 10.4022 9.09467 22
37 1 1.14928 7.35553 10.0562 23
195 2 2.78457 7.4703 10.9742 21
203 2 2.78326 5.83931 7.86411 22
86 1 4.44692 10.0831 7.19299 20
957 2 0.387221 6.90678 12.6853 22
40 1 1.91103 8.1871 12.4255 23
196 2 5.53496 7.93689 11.4529 22
1600 1 4.70667 6.44312 11.7613 20
401 1 0.451175 10.7307 11.704 22
48 1 2.03805 9.60628 8.85829 24
209 2 0.233723 9.88136 9.94006 20
219 2 2.16213 10.2727 12.4812 21
193 2 4.08368 7.56872 8.43545 18
215 2 3.27236 5.60901 13.1558 21
1966 1 1.84609 10.5937 18.9359 20
1922 1 1.65155 8.52179 17.4628 17
2108 2 3.20116 8.05094 13.8022 20
2125 2 3.67212 8.52192 17.3038 19
567 2 2.32891 6.60605 16.6882 17
362 1 0.598327 5.99108 16.8767 18
1948 1 2.91172 10.8191 16.6198 21
1941 1 -0.0528313 10.1089 14.5125 25
561 2 1.18276 10.0405 16.4392 20
385 1 3.40568 7.59422 15.5644 18
565 2 3.81778 10.7933 14.3838 22
20 1 4.3665 9.46371 13.3421 19
1926 1 1.75481 6.36956 14.3072 18
391 1 4.1919 6.78831 18.8479 18
2126 2 1.58813 8.83983 19.4435 23
389 1 1.6877 7.00792 19.4128 20
474 1 4.58635 10.0306 26.1899 23
396 1 4.00862 8.80123 23.0202 20
650 2 4.01059 9.6569 21.3414 21
1946 1 0.353938 8.22153 21.913 18
590 2 4.22855 6.56961 23.6177 18
571 2 2.23214 7.71004 22.3202 20
570 2 5.5426 7.63117 25.7597 21
1973 1 0.444818 6.2009 25.5569 19
453 1 2.18474 6.1244 23.0405 19
394 1 5.12693 9.13823 20.0243 20
2154 2 4.77307 6.75657 20.6691 20
393 1 2.10763 10.851 24.892 18
2138 2 2.62203 9.25597 24.5814 24
583 2 0.511875 10.1044 22.1855 22
408 1 2.14957 10.2642 21.3218 20
1954 1 3.56623 7.44689 25.4515 21
613 2 2.34282 5.81241 25.2728 24
553 2 0.14881 6.40495 23.6471 18
469 1 5.07791 11.0478 22.3767 18
2323 1 3.71372 9.10665 29.4894 23
633 2 4.7388 5.76551 28.2773 22
697 2 5.54324 10.8403 27.6323 24
2322 1 3.05565 6.69786 28.0767 22
22 1 4.21028 8.71091 32.0705 18
185 2 3.51358 8.46985 27.5809 20
1274 2 2.9521 10.6291 29.1587 22
267 2 3.13948 7.74293 30.5066 19
1338 2 0.57188 9.57535 29.1046 18
207 2 0.682513 6.33846 32.1678 17
1958 1 1.12251 9.54419 27.2642 20
579 2 0.831393 7.81827 27.6224 19
7 1 0.998426 8.51829 31.0205 21
24 1 2.48197 6.24069 31.0617 18
635 2 5.42777 10.1013 30.6063 20
560 2 2.04289 9.7844 32.5852 27
1789 2 0.0589596 15.1001 5.43113 19
2160 2 2.18106 12.6682 0.938166 19
911 2 2.64691 16.1811 5.30179 15
2156 2 1.67842 14.2177 3.43328 16
46 1 2.26023 14.203 5.38872 18
1610 1 1.52972 16.1463 3.29638 22
420 1 0.309301 13.5722 0.361854 16
285 2 4.62236 12.585 2.64818 21
42 1 4.0489 15.9639 0.977228 21
184 2 1.18874 12.1159 5.97081 21
2152 2 1.46397 15.832 0.640256 18
49 1 1.31795 12.5148 2.81897 22
47 1 3.91029 12.9985 0.878432 20
26 1 4.6304 12.0793 4.69237 21
294 2 5.34325 15.8974 2.34452 16
52 1 1.7773 16.996 9.50536 20
299 2 2.97711 13.8455 9.7601 19
1611 1 0.0632728 16.6261 11.6104 20
230 2 2.84098 14.3571 7.399 22
31 1 4.24345 14.3221 8.66582 23
54 1 3.92772 14.7578 12.138 21
1777 2 0.0268502 12.512 11.7142 21
220 2 4.3041 12.0678 6.97477 23
39 1 1.27898 13.6963 10.3661 21
208 2 1.74938 15.7612 10.7381 20
32 1 2.28547 12.4569 7.50693 19
173 1 5.05823 11.9515 9.39966 22
226 2 1.50749 11.7962 9.36795 21
56 1 3.21302 11.6622 11.3859 23
239 2 5.62161 14.2331 12.8216 19
235 2 4.65337 16.4791 12.7913 19
643 2 5.43107 11.786 12.1494 25
2083 2 2.78901 13.5331 12.9253 21
1608 1 1.48178 16.9416 6.63261 18
111 1 4.03785 15.9724 6.63724 20
545 2 4.85825 13.85 17.9843 19
1324 2 3.82129 15.748 15.0585 23
2064 2 0.610137 12.6737 15.0927 23
586 2 1.13585 13.748 18.062 22
581 2 2.22452 16.6897 19.0456 21
383 1 2.91339 13.8504 14.7657 20
387 1 2.88752 13.2847 17.4964 20
2122 2 3.6743 11.6394 18.6258 20
1084 1 4.91374 15.6459 17.6373 21
1796 2 0.461236 16.2171 13.4915 21
1619 1 0.51753 13.7556 13.6516 20
2143 2 3.85477 12.2285 16.36 20
1614 1 2.72609 16.6135 13.5494 21
1964 1 2.11484 11.82 13.8327 20
410 1 3.28081 16.1254 24.2459 20
1278 2 4.37141 14.5896 24.2063 18
588 2 0.86871 11.9477 24.6026 18
651 2 3.7814 14.507 20.4669 20
1153 1 4.36024 13.1305 25.162 20
412 1 0.485253 13.2796 25.948 17
569 2 1.4128 11.9707 20.6422 19
467 1 1.53917 15.7532 20.3736 19
414 1 5.30365 13.78 22.488 19
577 2 3.48785 12.1014 23.5665 21
415 1 1.79212 13.3744 22.5558 19
645 2 1.28078 15.0723 22.324 20
390 1 4.67235 12.9198 19.6192 20
465 1 0.174181 13.0468 19.7177 20
1149 1 4.49895 16.1499 20.7099 22
1271 2 -0.0428428 15.5008 26.1503 20
592 2 1.31628 13.5005 27.6905 20
653 2 5.08384 14.4454 26.7573 18
479 1 3.35872 14.7126 27.4789 19
906 2 4.58714 14.5912 32.5312 19
471 1 4.33243 12.0723 28.7876 21
1275 2 3.8163 12.8642 30.3674 21
475 1 1.98377 12.3586 29.5287 18
221 2 1.8716 16.5033 27.6101 20
43 1 1.26994 16.5402 31.7151 19
596 2 2.78762 15.7335 30.0893 18
477 1 4.20623 14.8112 30.6644 17
101 1 5.46774 11.6744 31.8087 26
647 2 3.25046 12.085 26.7711 20
2080 2 0.500018 12.2694 31.4586 21
44 1 2.11062 11.8259 32.0322 19
228 2 3.62424 20.6733 0.347842 20
2470 2 0.523719 21.0606 2.70961 25
289 2 3.94933 20.3033 3.40415 21
1785 2 1.21117 18.11 2.58301 20
1784 2 4.06414 17.8263 0.753084 19
783 1 3.40892 21.8906 4.26533 18
51 1 4.47941 18.6391 2.91495 23
728 1 2.65334 18.6575 4.72861 19
730 1 4.38374 19.6755 6.33274 21
928 2 2.01112 21.8481 5.24005 21
50 1 1.7333 18.486 0.733207 20
2286 1 0.205438 21.0768 4.66028 21
229 2 4.46686 18.0521 4.8837 19
1159 1 2.63704 21.2272 1.85077 24
907 2 0.650439 18.4708 5.69136 21
721 1 0.411331 21.5727 -0.0162539 17
991 2 2.80293 19.9264 9.56416 19
233 2 4.96508 18.9922 10.6911 20
729 1 5.71133 17.4193 9.41008 21
731 1 2.17437 20.503 7.87901 24
916 2 4.19652 21.3627 12.5758 21
725 1 3.03694 18.8049 11.0732 23
231 2 1.0928 18.5541 11.0711 23
238 2 3.32157 17.0921 8.42971 20
908 2 2.46935 22.4033 8.1999 19
735 1 3.68281 21.7064 10.1574 18
819 1 2.18225 21.7959 12.5592 24
940 2 1.84946 22.2451 10.6453 21
2461 2 0.116173 20.1859 8.3412 22
753 1 5.65589 18.0237 12.5711 21
968 2 5.36123 18.6157 7.64972 19
733 1 0.236886 21.5595 10.3095 21
760 1 5.62928 22.3613 12.2959 19
402 1 1.32959 19.807 15.3805 20
979 2 2.78198 21.3423 14.735 18
2476 2 2.2108 21.3682 18.9749 24
918 2 2.35332 18.2823 14.4272 24
1618 1 0.215176 17.4048 14.8622 22
2294 1 3.65602 19.7686 13.6787 18
584 2 0.565656 16.9143 16.7313 21
1942 1 3.4113 20.8912 16.9505 22
2642 1 0.364903 17.5609 18.6747 20
737 1 1.02178 20.698 17.8436 23
1085 1 2.80024 18.4916 19.6193 21
58 1 5.25899 18.4144 18.8702 20
1800 2 4.66047 17.3974 17.1286 19
237 2 2.93907 19.2123 17.8195 22
977 2 4.99594 21.6611 17.2898 16
57 1 2.71855 17.3623 17.2474 20
1261 2 0.16981 19.4273 18.7614 20
1262 2 0.615792 20.86 13.1925 20
914 2 5.22993 19.106 14.3804 24
60 1 4.82924 17.2099 15.0045 19
648 2 4.10523 17.7976 23.6464 16
1337 2 2.60461 19.2513 24.8667 19
406 1 2.02754 18.4537 23.1772 20
1173 1 5.50001 21.6306 22.329 17
1283 2 0.886609 21.7282 22.5151 17
466 1 4.4056 19.3759 25.8648 18
1286 2 3.71736 21.6106 21.531 19
585 2 1.77216 18.6709 21.1955 22
2854 2 1.1013 22.338 25.4154 16
2298 1 2.03634 21.4814 20.8883 21
1266 2 0.25645 17.6256 24.2016 21
1143 1 4.09795 19.5975 22.1737 18
1086 1 5.54711 22.2764 25.3798 19
1321 2 4.55599 18.6917 20.5904 23
1157 1 1.08348 17.9854 26.4567 21
2656 1 0.411245 21.683 27.3699 17
418 1 1.24607 17.911 29.0547 17
225 2 0.695374 19.6495 32.1666 19
2652 1 3.43214 19.6968 28.4441 19
1331 2 1.62088 19.6377 27.8179 21
1280 2 4.88444 18.5422 29.3322 20
1099 1 2.55257 20.1634 31.5204 19
2836 2 2.07984 18.2897 30.9378 19
724 1 5.12709 19.1869 32.4458 22
1268 2 4.94005 21.0375 26.5053 20
903 2 3.32035 21.0659 29.8167 21
1160 1 5.31979 17.3034 30.6126 18
1298 2 5.51879 17.9838 26.9163 22
1150 1 2.54583 21.726 26.3679 14
2308 1 2.47153 22.9207 6.43041 21
1136 1 2.85749 26.384 1.78732 20
2860 2 4.04651 25.7278 2.92721 20
904 2 0.245962 24.9033 2.26675 23
748 1 4.34143 24.1306 2.28629 17
764 1 1.50185 24.2572 0.964112 24
791 1 5.42727 24.3128 5.51127 21
910 2 4.91483 23.0348 3.95363 19
1297 2 5.17955 27.7364 0.475182 21
927 2 3.35256 27.356 5.08889 20
2304 1 0.475118 23.304 3.56268 24
924 2 5.23056 24.5055 0.513741 22
765 1 2.3785 25.7583 4.35339 23
969 2 3.28848 24.8275 6.14328 19
930 2 0.583965 26.1158 5.1064 18
967 2 2.83615 23.0198 2.79617 24
921 2 1.98103 25.7636 0.0812292 20
975 2 4.70783 24.2687 11.5446 23
2333 1 1.59537 27.8844 13.016 22
809 1 4.19335 27.1439 6.94418 18
915 2 0.836172 25.6857 10.5169 21
772 1 2.4874 25.9623 10.4941 19
813 1 1.82385 26.0782 7.28471 19
752 1 1.92286 23.8625 9.31314 19
749 1 1.15279 24.8478 12.4541 18
738 1 5.19164 25.2459 9.20231 20
1007 2 3.43626 25.716 8.85945 18
934 2 4.00467 27.5545 10.7195 21
2488 2 0.707948 23.9571 6.81204 21
768 1 0.688783 27.4167 9.07784 17
754 1 4.8481 27.6588 12.721 24
917 2 0.359964 26.177 13.0385 19
939 2 2.92037 26.1485 16.4982 20
1101 1 3.85349 22.7447 19.2856 20
2498 2 5.11383 23.9832 13.9233 21
1290 2 3.28602 23.6242 16.8653 22
913 2 1.48589 23.3147 13.4244 20
799 1 4.39381 22.4225 15.4595 19
739 1 2.32662 26.637 14.9814 22
1081 1 1.35945 22.4954 15.561 17
1102 1 3.90393 24.8511 12.8944 22
757 1 1.83493 24.7497 17.7046 20
996 2 2.75007 26.4122 13.226 20
1106 1 4.54482 26.0109 18.012 22
2499 2 1.17107 27.0279 18.9626 22
1344 2 3.96485 24.7178 19.0141 18
997 2 0.461672 23.6327 17.2361 17
1241 1 5.05495 26.4735 15.4602 21
1111 1 2.01188 27.4982 17.4003 24
1088 1 1.08929 23.5914 23.4019 23
1351 2 1.55271 24.3003 19.6623 24
1296 2 5.10947 25.4422 21.7419 20
1108 1 3.20645 24.8456 20.6302 21
2868 2 3.17675 26.1611 24.5758 17
1277 2 2.50875 24.5349 22.4351 19
1293 2 4.04875 27.2611 20.601 24
1169 1 4.36802 24.5754 23.4692 18
1294 2 0.913838 26.8018 22.4292 22
1090 1 2.89329 26.4143 22.7542 19
1109 1 2.15835 26.1446 26.0541 21
2667 1 0.515569 26.1883 20.471 21
1190 1 4.15653 27.8955 24.4233 24
745 1 4.69339 22.615 32.4123 21
722 1 3.82331 23.7955 27.7768 18
2680 1 0.446477 26.0596 28.7518 19
1096 1 5.56564 22.3059 29.6182 18
1197 1 4.6076 26.5879 28.3186 21
1119 1 1.76032 26.2188 31.0958 23
1117 1 4.99393 25.4383 31.3185 20
1299 2 3.98098 23.7251 29.8358 18
965 2 4.30835 26.8258 29.9787 23
1273 2 2.04546 23.3758 26.9471 21
723 1 2.59325 23.8215 31.507 18
901 2 1.35878 24.5967 30.1327 19
2880 2 1.67507 27.8076 28.7366 21
1355 2 3.1369 27.1348 27.1999 19
1291 2 0.114881 27.4145 31.0732 18
922 2 1.9029 22.8434 32.7887 21
827 1 3.73758 32.2051 3.3002 19
941 2 1.93735 31.7201 4.08897 15
767 1 0.96257 32.1669 5.66091 17
763 1 4.77381 28.9831 1.55678 19
953 2 4.76925 30.2879 2.94632 18
1379 2 2.98289 28.2649 1.89532 18
769 1 1.39501 29.6235 3.15661 20
1317 2 0.0867027 30.6029 0.701311 16
1320 2 3.15918 31.7875 0.958341 19
1001 2 4.43071 29.3946 6.19901 17
187 2 4.86082 33.4524 4.20384 17
750 1 4.31198 28.7304 4.19832 21
1138 1 5.0502 32.0771 0.0825059 22
2700 1 0.994611 28.0569 0.185101 17
951 2 1.97463 29.0067 8.46482 23
831 1 1.23051 31.8314 10.5381 22
776 1 4.48631 33.5559 10.5036 22
958 2 4.72702 29.9643 10.681 19
1075 2 2.91196 32.2678 9.97121 21
315 2 2.51444 31.7336 13.0766 25
774 1 3.44499 32.0135 8.2307 18
1015 2 4.76218 33.0177 7.52584 19
2684 1 3.45198 30.2659 12.3725 18
755 1 3.23654 29.1532 10.1197 20
2515 2 1.49982 29.194 11.389 24
955 2 2.08982 31.5345 6.90625 17
833 1 2.54914 29.4541 6.50294 19
746 1 5.32317 29.9224 7.6113 20
1638 2 0.278879 32.0654 12.7793 23
2518 2 2.84513 28.8532 14.1926 25
1107 1 1.8945 31.3717 17.6169 24
546 2 3.41751 31.513 16.6078 24
1124 1 4.59611 32.7364 18.056 21
2496 2 5.74158 28.3988 15.7436 19
2106 2 0.607736 31.6194 15.8755 19
839 1 3.75314 32.5467 14.6579 22
2335 1 1.26606 30.7491 14.0432 24
2862 2 3.09485 29.1246 16.8428 21
1281 2 0.64208 30.0305 17.6167 20
2664 1 4.25705 29.7542 18.6374 21
481 1 4.2451 29.7899 15.6711 25
2337 1 0.270599 29.0835 19.1546 19
1341 2 5.54646 28.1314 19.0188 21
960 2 4.88151 30.6221 13.4421 18
1307 2 2.35704 29.8539 19.5699 20
2317 1 0.40011 29.0869 15.6626 23
1349 2 2.57608 28.5097 23.2437 20
2666 1 2.47607 28.2976 20.7688 18
1129 1 1.40153 32.8798 23.4791 21
435 1 4.22029 31.7453 25.289 15
669 2 5.18273 29.3945 22.2436 22
1285 2 1.71264 33.1749 20.0761 19
631 2 3.02448 33.4691 25.9368 18
373 1 4.02103 30.6015 22.5728 19
1121 1 1.13521 31.0884 20.7674 21
1289 2 0.144063 31.6235 23.4864 19
1303 2 4.4384 32.3466 19.875 18
1288 2 0.345454 29.1112 20.9566 21
1329 2 0.427563 28.6131 25.5846 21
1125 1 0.83698 29.3976 23.5084 21
1432 2 2.71139 31.6904 23.6609 18
1371 2 4.90009 29.813 24.9156 16
1114 1 1.9978 28.7371 26.7944 21
1357 2 4.6498 32.5893 31.2274 21
1118 1 2.85896 28.6354 29.8603 19
1179 1 4.76319 29.6553 27.4688 23
182 2 1.69371 32.5933 30.9056 17
2678 1 0.0977419 28.9637 28.9678 24
1139 1 3.36633 30.7954 30.823 18
1318 2 4.66568 30.0015 31.7538 21
1313 2 1.39069 29.1197 31.1112 22
1189 1 1.88827 31.807 27.9813 19
615 2 3.01847 30.3142 27.1692 20
1311 2 5.24102 32.3512 28.7877 22
1137 1 5.21049 28.1226 31.1258 19
558 2 2.56123 33.59 28.5155 19
1133 1 0.451176 33.5151 29.6413 20
1358 2 4.68449 29.1073 29.3796 21
436 1 4.07914 33.1846 27.406 17
766 1 1.7738 32.1723 32.7907 18
63 1 8.39657 2.49246 1.65099 18
1997 2 10.6521 3.69237 1.30152 23
85 1 9.86874 5.46022 1.25266 20
330 2 9.33825 3.31876 4.96811 17
190 2 6.49847 0.658015 6.0143 16
70 1 10.9926 3.45017 3.3332 19
65 1 6.91215 2.41597 4.44123 17
186 2 7.09857 4.24397 1.65069 18
245 2 6.97521 5.14011 5.35104 18
241 2 9.92619 1.06802 2.0869 19
1377 2 7.93417 0.937087 0.687557 18
66 1 10.6762 1.0269 3.8518 19
6 1 8.23598 4.86498 3.90372 22
557 2 5.83827 2.44392 2.80453 20
439 1 9.99453 0.723974 0.101586 21
830 1 10.8425 4.18032 6.36428 23
73 1 8.54564 4.12482 12.7886 19
80 1 8.11095 3.23873 9.32859 17
246 2 9.0941 2.97809 7.85671 21
426 1 10.3779 3.49494 10.2758 20
823 1 8.19496 1.17305 7.08203 18
1009 2 7.2962 1.2408 8.61497 19
250 2 10.7066 1.94481 9.12343 22
198 2 8.69487 3.36949 11.1333 21
77 1 7.63784 0.340594 10.3737 21
1012 2 7.87943 -0.00892479 12.234 20
149 1 8.32316 4.76788 7.56391 20
891 1 10.4169 1.16258 7.58463 22
548 2 10.5653 1.62878 12.4013 22
273 2 10.5536 5.29135 11.1305 20
71 1 5.62011 2.77697 10.1767 17
200 2 6.75659 3.32409 13.6135 18
255 2 10.4451 4.93466 14.5934 23
370 1 7.04902 1.53383 18.6721 22
12 1 6.70141 0.911564 13.1885 21
601 2 8.09646 4.24785 17.5849 22
430 1 8.89879 4.15966 19.1947 22
1369 2 11.1127 4.93402 18.2703 23
1304 2 6.31278 2.33282 17.1669 20
441 1 10.1078 3.30279 15.3504 21
257 2 8.98733 2.54671 14.2104 19
79 1 7.4846 2.94528 15.6873 19
425 1 9.11688 0.832788 13.5816 22
421 1 10.9261 3.0235 17.7796 23
550 2 10.7225 2.05257 19.249 21
363 1 8.90901 5.24149 16.0499 21
1362 2 10.2776 1.55241 16.3287 24
364 1 6.48476 4.81366 18.222 22
1181 1 9.93068 0.215833 19.4527 15
634 2 7.71786 4.39319 24.7132 15
611 2 5.83139 1.29528 20.0278 19
678 2 9.8476 1.70296 25.6534 19
376 1 6.56652 2.08039 21.5982 21
604 2 8.00013 3.05685 20.4149 22
1191 1 8.75153 2.50327 24.1696 18
429 1 8.37329 4.61877 21.5732 20
513 1 6.15564 3.14648 23.9264 19
630 2 10.2819 2.83243 22.6673 23
1187 1 10.159 3.2585 20.7004 19
259 2 7.35067 1.31052 23.9333 17
568 2 10.8092 5.36811 21.3624 23
544 2 7.53488 5.31271 20.0435 19
515 1 8.51467 2.74869 26.8151 17
639 2 9.70174 3.37556 30.7616 19
580 2 6.33801 4.5905 30.5254 18
455 1 10.1086 1.42972 28.8358 18
559 2 6.60642 1.22861 31.0717 22
1195 1 7.04237 1.68647 28.8656 20
460 1 11.2663 3.50188 32.3148 22
1376 2 8.24138 3.13512 28.4989 18
693 2 7.70548 5.51374 27.1592 20
81 1 7.73873 3.55832 30.7547 19
1310 2 7.06177 0.268543 27.6543 17
679 2 11.0361 1.40721 30.1855 18
1198 1 8.30044 0.276231 31.4702 21
438 1 5.84866 5.25539 26.6269 25
206 2 5.83378 7.83352 2.87673 21
249 2 9.35455 8.27517 5.17429 19
83 1 10.4199 10.7304 1.02407 21
271 2 8.5771 7.75611 1.40518 20
30 1 5.98639 9.59787 2.10246 20
67 1 7.66671 7.0503 6.27273 16
165 1 9.12893 7.7727 3.14071 19
151 1 10.727 9.84559 4.70926 20
10 1 7.25402 9.87069 5.69962 20
459 1 7.60107 6.35946 0.67284 19
227 2 7.43092 10.6308 1.64614 16
243 2 6.22258 8.13766 6.41334 16
517 1 11.0765 7.98549 0.741166 22
248 2 9.77408 5.68577 3.3558 20
84 1 8.06251 9.05095 0.280552 19
603 2 7.99926 6.6183 11.7855 19
333 2 11.1722 11.2175 11.7478 20
247 2 7.12501 6.17147 8.2722 18
277 2 8.31054 8.86469 10.4206 19
112 1 10.0497 10.5004 7.5242 20
275 2 9.59118 6.32256 8.35783 19
33 1 9.64833 7.04438 9.99864 17
35 1 7.72405 10.3452 9.22428 25
153 1 10.3781 7.73278 7.0853 17
216 2 10.6441 7.86055 12.946 22
384 1 6.75685 9.86131 11.9605 21
212 2 6.33903 10.981 10.0804 19
18 1 6.89451 6.79001 10.2717 18
2124 2 6.16623 8.83073 14.2032 20
552 2 6.06528 7.87842 18.7127 16
582 2 8.40729 9.99791 16.4461 21
638 2 8.87161 6.75717 18.5993 20
366 1 8.13094 8.23045 18.4005 20
97 1 10.9916 10.9462 15.2702 24
279 2 9.45156 10.8861 14.1057 21
120 1 9.64078 6.44715 13.7421 22
706 2 8.69686 7.02361 15.9413 21
99 1 6.88381 7.14102 16.0327 18
155 1 9.82528 8.47595 16.0223 21
95 1 7.60956 10.3628 14.7391 20
461 1 8.99822 11.0208 17.881 20
562 2 6.58654 5.76364 15.2538 17
159 1 10.8678 9.54347 13.4697 18
36 1 6.88899 7.47912 13.1407 18
654 2 5.98815 10.3857 24.8526 23
587 2 6.45651 9.28075 21.642 19
450 1 10.1645 9.16881 24.8559 19
676 2 8.62482 10.1789 23.8763 19
605 2 8.07728 9.53793 19.7834 18
511 1 7.41641 9.00207 25.1239 20
624 2 9.89739 7.15425 24.7122 23
434 1 6.68779 6.57297 21.1863 23
443 1 7.44707 11.1134 20.8739 19
512 1 8.59047 9.08191 22.1619 19
686 2 9.47544 7.49105 21.9247 19
372 1 10.2439 7.34152 19.8853 21
609 2 7.61521 6.20759 23.103 18
1255 1 8.67344 5.84628 25.6489 18
451 1 6.08942 6.35604 24.0791 20
428 1 10.2679 6.43991 22.9207 20
104 1 10.1677 6.68781 30.8345 24
398 1 5.68348 8.07968 27.6237 23
718 2 9.4978 9.12383 31.3129 22
574 2 7.51905 8.78138 26.9487 24
576 2 6.84685 7.51435 29.1725 24
496 1 8.18115 6.24413 28.8937 19
146 1 7.64439 8.75019 30.4198 22
573 2 6.27744 7.96955 32.4803 19
711 2 9.8435 10.1926 26.6813 18
458 1 10.7493 9.84738 30.5749 22
202 2 8.52142 6.24847 32.112 21
637 2 8.73347 10.277 29.3507 19
1433 2 9.87198 7.44618 29.2963 18
509 1 9.07459 8.64399 27.8635 21
395 1 6.54627 10.9421 29.2808 21
472 1 8.13827 10.931 26.4296 20
397 1 5.74183 6.58803 30.3737 20
344 2 8.18684 12.7952 2.83769 19
966 2 7.31101 14.1848 1.10721 22
286 2 6.86157 13.2862 4.84363 21
234 2 7.58375 15.8676 4.20546 22
105 1 9.05364 14.6283 3.54121 23
115 1 10.8568 16.1942 5.97106 21
540 1 11.0078 14.6135 2.07656 21
355 2 10.4529 13.4961 4.44501 20
781 1 6.93506 16.4228 1.12906 24
224 2 9.56286 15.8011 2.11264 20
113 1 5.87749 14.3889 3.61511 18
91 1 8.25794 11.987 4.45659 22
89 1 7.90063 12.3717 1.07907 21
117 1 7.40299 15.0869 6.14464 22
337 2 9.52155 11.6665 5.91774 19
350 2 10.6931 11.2183 3.03993 23
792 1 10.6745 13.2724 6.36546 24
293 2 9.36661 14.9063 6.48503 20
1219 1 9.29461 15.1124 0.00135932 20
340 2 8.08426 15.9339 11.9527 21
331 2 10.9859 11.4295 9.05866 21
118 1 9.15584 12.0727 12.4184 24
1141 1 6.79704 13.2212 11.2499 22
287 2 5.63708 14.9366 7.09076 26
297 2 7.40978 11.8971 12.8389 21
974 2 7.2612 16.8206 8.81338 22
34 1 5.71858 12.8013 6.61484 21
796 1 9.52427 15.1891 12.5119 22
119 1 8.07995 13.3214 8.40185 22
701 2 6.5769 13.878 9.55797 23
976 2 9.48353 16.1522 9.05866 24
734 1 7.93998 15.5191 10.0717 21
276 2 8.6368 12.0415 9.92839 20
335 2 7.14706 11.7719 7.66455 22
296 2 10.3734 13.8591 12.0424 22
94 1 10.3631 13.043 10.1973 21
114 1 11.167 12.961 18.2407 22
422 1 5.53945 11.8403 17.4545 18
2142 2 7.3009 12.4677 18.462 19
462 1 9.42788 16.1418 15.4363 20
642 2 9.47092 13.124 17.4849 18
564 2 6.73794 12.3083 15.6291 20
649 2 5.82798 16.0503 18.9966 22
1385 2 8.41481 15.4785 16.9658 23
295 2 9.35206 14.1979 14.3251 21
175 1 10.2436 15.5936 18.2245 23
404 1 9.23097 12.7865 15.7006 22
386 1 7.51598 13.6003 17.1793 22
55 1 6.68499 15.7637 13.706 20
405 1 5.66436 12.6199 14.0789 22
623 2 11.1747 11.1833 17.481 22
644 2 8.98396 15.3491 20.1919 20
628 2 10.5052 13.8768 25.1987 20
625 2 6.47568 12.3626 21.7796 22
449 1 8.65096 13.3766 19.5565 23
530 1 8.07016 15.1394 22.6871 21
621 2 7.30939 12.4976 25.1371 22
448 1 7.19277 11.6695 23.5478 18
529 1 8.85496 13.2368 26.0576 19
1326 2 5.59781 15.9716 22.1973 17
447 1 7.25763 16.1658 20.0325 24
1335 2 7.389 16.1109 24.733 19
652 2 8.82404 13.4084 22.6272 17
1330 2 10.1982 11.9396 19.8025 19
525 1 11.1689 14.803 23.6366 16
445 1 10.6051 15.4348 20.9388 22
514 1 10.3336 12.2248 22.7552 20
1176 1 8.85646 16.3446 25.887 20
659 2 5.96287 15.6287 29.7477 19
656 2 7.49087 12.5853 27.7554 20
658 2 8.93095 14.6029 30.8158 20
1391 2 8.61188 15.9608 27.6737 20
476 1 7.20018 14.2503 28.7322 18
1151 1 9.59747 15.7395 29.1609 20
473 1 10.19 11.2628 28.483 21
537 1 7.1947 14.4541 31.4051 18
261 2 9.19198 11.5821 32.4059 21
600 2 8.09639 16.6473 32.2421 18
107 1 8.86284 12.5191 30.605 21
715 2 10.4063 13.5776 27.71 20
657 2 6.82705 12.4989 30.4468 20
1152 1 5.91495 16.3377 27.6888 16
468 1 5.81966 12.3325 26.6225 20
164 1 10.1365 17.5054 1.34324 23
163 1 10.9066 20.1269 1.62014 21
811 1 6.41899 20.9529 5.33434 22
281 2 9.69944 18.907 3.31704 20
902 2 9.45502 19.2052 0.267976 19
787 1 7.77047 19.4955 2.52967 19
986 2 7.30097 20.8263 3.55209 15
1051 2 8.26089 20.926 6.02624 20
736 1 9.93435 19.9183 5.33902 21
732 1 5.96615 17.127 4.34162 22
167 1 9.12154 17.3443 4.31756 18
964 2 6.01139 19.4181 1.11072 22
329 2 6.80535 18.5374 3.69295 18
236 2 9.32287 18.3943 6.07105 22
912 2 7.87752 22.3192 1.26188 21
789 1 5.86511 21.4373 2.1463 21
805 1 9.21363 21.8391 3.29012 21
1360 2 11.1136 22.1597 1.93393 20
784 1 8.37842 20.6042 0.159134 24
756 1 6.32199 22.0159 8.20248 19
972 2 7.18667 18.8122 12.1289 22
797 1 8.22826 17.9123 7.45495 23
992 2 9.80136 21.7548 9.32925 17
938 2 10.0467 20.5461 13.1229 19
817 1 6.1713 19.9454 9.55196 20
795 1 8.41465 18.3791 10.5816 21
232 2 8.30146 19.8084 8.96867 23
1161 1 9.31896 20.719 7.80019 19
1033 2 10.094 18.6019 10.1733 22
971 2 5.51176 21.148 6.88273 21
876 1 8.22798 20.6564 12.4046 21
994 2 5.56777 21.6231 10.0772 20
980 2 9.96861 22.2782 16.1544 23
920 2 8.59565 17.65 19.2475 17
1144 1 7.04835 16.7382 16.759 20
1343 2 10.4917 19.9472 18.8511 18
1345 2 7.15451 21.9481 17.097 18
800 1 9.26296 18.1499 13.3277 17
978 2 9.69854 18.4262 15.3187 21
641 2 6.84582 18.5878 17.8618 19
740 1 9.53211 21.2225 14.7222 18
1201 1 6.75459 20.1711 16.1981 18
1039 2 7.4107 21.8668 14.3047 19
1205 1 9.13042 18.766 17.7847 20
1146 1 10.686 20.9341 17.0451 18
1322 2 11.2765 16.8468 16.914 19
240 2 7.50324 16.9415 14.9733 21
531 1 6.34528 17.1288 23.4555 19
2703 2 7.25499 22.1725 24.5192 21
1327 2 10.0811 21.9392 24.4058 18
1346 2 5.63939 20.0813 23.7508 20
857 1 7.8248 18.9702 24.7629 20
646 2 9.82627 17.6526 24.806 19
1207 1 8.56508 21.8778 23.2235 21
1168 1 9.47309 18.4399 20.8763 17
1148 1 7.00487 19.5129 22.0429 19
1323 2 8.53728 20.3244 22.2234 17
1204 1 10.4268 19.369 25.7804 17
1384 2 7.67359 17.7198 21.7807 21
1145 1 8.35134 21.4459 20.5352 17
1282 2 6.49521 21.1695 20.4899 20
446 1 11.1452 17.5347 23.4607 18
983 2 9.72723 18.8448 30.0026 19
1147 1 6.36946 19.7228 27.3263 16
480 1 8.64507 18.1119 31.4553 20
1120 1 10.0396 20.5181 29.3927 21
987 2 5.80671 21.2467 31.1699 21
1165 1 8.55657 21.6112 26.7321 20
1389 2 10.9246 19.219 27.7287 21
1172 1 9.32734 17.9525 28.2772 21
1339 2 7.55015 20.9968 28.3761 20
1328 2 8.5244 18.9405 26.8891 17
103 1 6.96531 20.3661 29.8287 21
1354 2 10.5678 21.4434 27.7287 20
345 2 6.60151 18.8475 31.3818 17
1025 2 8.49684 21.1448 30.9162 21
595 2 10.5849 17.0021 31.9013 19
990 2 8.17955 24.1489 5.62754 19
1300 2 7.54704 26.1621 2.27125 19
985 2 5.83626 25.9634 6.31014 22
1140 1 5.7458 26.4605 2.17737 20
807 1 7.05196 27.4588 5.2333 22
873 1 9.34499 23.0147 6.58272 20
821 1 8.48975 25.1703 3.89813 21
989 2 8.77493 26.8413 4.96461 19
726 1 7.06491 24.3418 0.410351 21
166 1 9.97547 23.249 0.816256 19
806 1 9.40234 26.3823 1.26751 16
1419 2 9.97102 24.9393 2.72202 20
794 1 9.72444 22.5944 11.2044 17
812 1 7.71547 24.7882 7.51391 17
995 2 6.93707 26.2366 11.74 20
1055 2 8.91835 26.2329 7.96051 23
1029 2 10.9278 22.9448 7.25492 19
1053 2 5.73084 27.9337 8.13165 19
810 1 10.9503 26.6277 7.59976 20
1057 2 7.95302 23.8288 12.0786 19
993 2 6.30681 23.8207 8.51677 16
815 1 9.50167 26.9524 10.0838 20
816 1 6.92067 24.6414 11.0131 19
814 1 8.48689 28.135 7.63007 20
851 1 10.338 25.0296 12.6065 18
2375 2 11.1191 25.3367 11.0176 18
798 1 7.68734 23.6677 14.0365 22
1284 2 6.21155 25.8893 17.2084 20
818 1 8.22453 26.4974 13.1177 22
1402 2 10.5789 23.3882 13.5372 24
1164 1 6.62307 22.6323 18.5107 17
1225 1 11.0457 25.6487 17.9956 22
1242 1 11.0554 23.7459 15.4012 21
1000 2 8.78669 25.0468 18.5611 20
1422 2 8.12016 25.0061 14.9989 23
1403 2 8.95463 22.5788 19.3891 19
1018 2 10.1234 25.8618 16.4312 22
820 1 7.98574 26.2599 16.1121 21
999 2 6.19006 26.9849 13.6049 24
1014 2 10.0365 26.6367 13.2043 24
1184 1 8.18946 26.296 19.6979 21
855 1 8.48716 23.5716 16.4576 18
758 1 6.57389 27.9633 17.5436 17
1116 1 6.0608 26.5406 22.9716 20
1347 2 6.27189 25.6731 24.6088 21
1221 1 8.3635 24.0975 24.2358 19
1155 1 8.97586 27.3081 22.2482 21
919 2 8.85671 23.8054 21.7927 21
1370 2 8.85838 25.9517 24.3593 20
2569 1 10.2107 25.0821 23.3615 17
1325 2 5.90002 23.5959 22.7128 18
1306 2 7.1972 27.107 21.5707 21
1082 1 6.73157 24.3746 21.2774 24
1162 1 9.85737 24.0538 19.8847 17
1426 2 10.5927 26.3688 22.0671 22
1128 1 9.82502 27.5828 25.0342 17
744 1 5.93317 27.3027 26.0197 17
470 1 10.7931 22.6659 25.9665 19
1415 2 10.392 27.4195 32.7988 17
981 2 6.36629 23.7663 31.3744 19
1175 1 8.13699 27.2836 27.2715 20
801 1 7.79437 22.7332 31.5615 18
1177 1 9.1736 24.2226 30.5263 17
1098 1 6.81402 24.6578 26.5073 18
1174 1 6.72309 25.1229 29.4437 21
1356 2 8.63508 25.7138 28.7814 18
961 2 8.69791 24.4079 32.6888 19
1163 1 10.1659 25.2345 27.7567 21
1359 2 7.04347 27.0563 30.7917 23
1407 2 8.67623 23.835 26.5396 24
1295 2 6.48052 26.1404 27.8745 22
963 2 5.67712 23.8062 27.7917 20
1374 2 10.7163 22.7055 30.4418 19
803 1 10.4283 27.9899 29.0662 20
1312 2 10.1414 27.0527 27.0403 19
1417 2 10.8633 25.0361 29.6063 17
742 1 8.55855 27.9346 31.8373 19
1319 2 9.5018 29.5269 4.03312 19
380 1 8.43117 30.943 1.19617 19
942 2 7.99171 28.8627 0.732517 18
824 1 10.0829 31.4317 3.60721 18
950 2 6.17719 28.2394 3.5804 19
1154 1 8.13473 28.5798 2.57214 23
1011 2 6.95353 31.8102 6.01324 17
69 1 6.85199 33.2512 4.69639 16
1010 2 7.51648 29.1787 6.08078 20
949 2 7.78832 32.0948 3.36751 19
61 1 7.4105 33.2488 1.66734 19
1061 2 11.142 32.7672 4.53095 18
1002 2 10.4218 30.8308 1.8164 20
762 1 6.44518 30.2019 4.60946 17
867 1 10.3621 28.0323 5.27819 18
1375 2 7.03616 31.6931 0.0987657 22
759 1 6.46354 27.9223 10.5032 19
135 1 9.47392 32.5678 11.6518 22
836 1 6.37988 32.8449 8.24669 18
897 1 8.17899 30.2196 10.5674 21
258 2 10.9053 32.8346 10.7665 25
242 2 10.0362 32.9244 7.33632 19
954 2 9.23126 30.7289 9.08863 22
1013 2 6.25764 32.5531 10.2709 19
1049 2 10.7447 28.5694 10.251 21