ITEM: TIMESTEP
15000
ITEM: NUMBER OF ATOMS
2880
ITEM: BOX BOUNDS pp pp pp
0.0 33.66
0.0 33.66
0.0 32.9
ITEM: ATOMS id type x y z Coordination
188 2 3.77816 3.8437 4.39864 20
187 2 2.02618 1.5659 4.61972 21
3 1 1.70234 3.4032 1.34341 23
4 1 4.03321 1.85689 1.38815 24
5 1 0.920259 1.58472 3.24952 22
6 1 4.37188 4.64556 2.81996 20
7 1 1.92277 3.91333 4.56773 21
8 1 3.77431 1.82725 4.62752 23
186 2 4.87199 0.78851 2.88639 21
185 2 0.90939 4.33904 2.88998 21
183 2 1.52598 1.47276 1.26141 20
184 2 3.39766 3.80293 1.42956 22
190 2 4.60056 0.959517 6.56877 19
9 1 0.975166 1.34464 6.23506 23
10 1 4.61627 4.09876 6.38577 20
189 2 1.3407 4.43271 6.35123 22
196 2 4.52282 3.87067 11.2945 21
193 2 0.969364 4.22015 9.93624 23
11 1 1.7616 3.86305 8.4296 22
12 1 3.42308 1.30193 7.95188 21
13 1 1.1792 1.17665 9.86059 22
14 1 4.65855 4.1676 9.51083 20
15 1 2.35267 3.71038 11.4292 23
16 1 4.27862 1.68178 11.2778 21
195 2 2.07394 1.8289 11.6267 23
194 2 4.40516 0.980737 9.47784 21
191 2 1.59872 1.8928 8.02312 20
192 2 3.77578 3.54083 8.12042 22
17 1 1.13001 0.974914 13.1476 19
197 2 1.22984 4.77996 12.9162 21
18 1 4.68486 4.48026 13.2695 21
541 2 1.26702 4.31582 16.335 20
542 2 4.94933 1.5719 16.591 21
19 1 2.02699 3.81776 14.7261 21
20 1 4.09901 1.61294 14.9609 22
544 2 3.93317 3.88055 17.9546 20
543 2 1.58059 1.96747 18.067 22
199 2 1.76956 1.87697 14.6388 19
200 2 4.05177 3.77987 14.742 21
361 1 1.10883 1.18444 16.2987 20
362 1 5.15372 4.12178 16.2955 22
363 1 1.84063 3.93096 18.0074 21
364 1 3.67885 1.86643 18.1733 20
198 2 4.8818 1.20409 13.1537 23
365 1 0.793556 1.00666 19.7265 22
545 2 0.827399 4.4351 19.5797 20
366 1 4.67459 4.34406 19.5449 21
552 2 3.56216 3.43817 24.1735 23
550 2 4.62733 1.35451 22.906 20
367 1 1.66041 3.71161 21.2609 20
368 1 3.67298 1.66938 21.4594 20
369 1 0.832818 0.594447 22.7555 24
370 1 4.39765 4.484 22.8018 21
371 1 1.51298 3.39085 24.6569 22
372 1 3.58336 1.37804 24.4951 20
549 2 0.951836 4.45496 23.1031 21
551 2 1.82791 1.51857 24.2874 22
547 2 1.57053 1.60797 21.3726 23
548 2 3.55401 3.70707 20.9691 20
373 1 0.959093 0.723972 26.2115 21
554 2 4.70045 1.00938 26.0323 22
553 2 1.28627 4.49499 26.0869 22
546 2 4.68122 0.900675 19.8499 20
374 1 4.34429 4.46549 25.7331 21
560 2 3.83101 3.6323 30.7768 23
559 2 1.62155 1.83271 31.0467 19
375 1 1.78448 3.61298 27.7363 24
376 1 3.84417 1.68522 27.5976 23
377 1 0.936548 0.780339 29.526 23
378 1 3.86034 4.06938 28.9303 23
379 1 1.48194 3.76322 31.1338 23
380 1 3.56997 1.8412 30.8442 23
558 2 4.5023 0.932227 29.276 22
557 2 1.05473 4.45162 29.2896 21
555 2 1.85404 1.67341 27.8567 22
556 2 3.68619 3.56023 27.1654 21
1 1 0.98971 0.779405 32.5858 23
181 2 0.827384 4.58796 32.4484 22
182 2 4.072 1.21157 32.6326 22
2 1 4.28445 4.64936 32.5581 24
206 2 4.3908 6.89359 3.04704 20
208 2 4.51754 9.08897 5.05318 19
23 1 1.46443 9.50211 1.72203 20
24 1 3.31588 7.34583 1.467 21
25 1 0.776021 6.30895 3.0128 25
26 1 4.35386 9.97907 3.2786 19
27 1 1.13607 9.38875 4.71735 21
28 1 3.63719 7.44921 4.97295 22
207 2 1.71555 7.47594 4.61127 22
205 2 0.329491 10.7053 3.32827 20
203 2 1.05239 7.5312 1.72753 20
204 2 3.64903 9.38309 1.57433 18
29 1 1.51192 6.47724 6.53258 19
209 2 0.804748 9.95315 6.53028 21
213 2 1.05243 9.73031 9.8401 21
214 2 4.73761 6.39913 9.89999 21
31 1 1.52825 9.16107 8.08153 22
32 1 3.9447 7.19719 8.2636 21
33 1 0.90496 6.74788 9.65172 20
34 1 4.49337 10.0976 9.65264 19
35 1 1.84454 9.17971 11.4621 23
36 1 3.84195 7.57764 11.1639 22
215 2 1.67636 7.11452 11.3164 20
216 2 4.07225 9.49929 11.3933 18
211 2 2.08761 7.06763 8.20997 21
212 2 3.50498 9.44946 8.1267 22
30 1 4.55343 10.1503 6.69414 18
218 2 4.73695 6.56755 13.1267 20
38 1 4.50111 10.3972 12.9928 22
210 2 4.35408 6.12607 6.60885 21
217 2 0.960828 10.0383 13.0239 21
561 2 1.74433 10.2617 16.3883 21
563 2 1.78558 6.98416 18.1498 19
39 1 1.57342 9.34713 14.8062 17
40 1 4.28316 7.5026 14.9074 19
562 2 4.8635 6.09542 16.523 21
564 2 3.9996 9.06932 18.6244 20
219 2 2.05754 7.38295 14.9552 21
220 2 3.63354 9.56499 14.533 20
381 1 1.0597 6.498 16.3423 21
382 1 4.32046 10.0834 16.3871 19
383 1 1.74213 9.30948 18.0527 19
384 1 3.86554 7.20506 18.0452 19
565 2 0.773206 9.95886 19.5227 21
566 2 4.49089 6.59887 19.8241 19
37 1 1.60578 6.43175 13.1445 23
572 2 4.00921 9.29761 24.5497 22
569 2 1.21612 10.1973 23.1304 22
387 1 1.82012 9.21694 21.5136 21
388 1 3.79822 7.24816 21.4021 21
389 1 0.934186 6.30089 23.0221 22
390 1 4.74512 10.2125 22.7425 23
391 1 1.86235 9.42862 24.6829 21
392 1 3.41844 7.29207 24.6831 23
570 2 4.29422 6.58607 23.207 21
571 2 1.39851 7.19484 24.5863 22
567 2 1.51954 7.32216 21.4379 21
568 2 3.66827 9.65801 21.2208 22
574 2 4.32597 6.58718 26.2059 22
394 1 4.46383 10.3524 26.2667 22
386 1 4.79844 10.2624 19.6965 23
393 1 0.965412 6.2906 26.1519 23
385 1 0.815493 6.40881 19.7967 19
580 2 4.06992 8.96167 31.2494 20
579 2 1.77737 7.47332 31.1407 20
395 1 1.69441 9.07893 27.9889 19
396 1 3.79093 6.85697 27.832 24
397 1 0.826371 6.79869 29.4098 21
398 1 4.82245 9.82228 29.5123 21
399 1 1.27174 9.34226 31.2083 21
400 1 3.88544 7.22219 30.9033 22
578 2 3.93362 5.97064 29.4559 22
577 2 0.586243 10.1447 29.7204 23
575 2 1.5895 7.0092 27.6678 22
576 2 3.58823 9.31679 27.8414 21
201 2 0.964765 10.257 32.9687 23
202 2 4.41399 7.10248 32.7173 21
21 1 1.03585 6.56351 32.9766 22
22 1 4.55456 9.92209 32.6699 20
573 2 1.23067 10.1396 26.4194 22
228 2 4.14934 15.21 5.15297 18
227 2 2.08263 13.1322 4.65243 21
43 1 2.16212 14.9515 1.17772 24
44 1 3.93694 12.8281 1.64685 20
45 1 1.38593 12.5084 3.00769 22
46 1 4.23129 15.9571 3.30844 21
47 1 1.32354 14.8431 4.6272 22
48 1 3.97646 13.3511 5.03104 20
225 2 1.47362 15.7537 2.97509 20
226 2 4.52987 11.9318 3.74581 19
223 2 1.97924 13.0049 1.22098 22
224 2 3.97787 14.9387 1.63605 23
229 2 0.739916 15.2454 6.44292 22
49 1 1.251 11.9179 6.34653 21
42 1 4.66255 15.6527 0.0215578 22
230 2 4.59578 12.1568 6.46813 20
221 2 0.692127 16.0449 0.230281 23
233 2 0.854816 15.9179 9.90441 22
234 2 4.10134 12.06 9.91638 20
51 1 1.07909 14.9584 8.25509 22
52 1 3.77372 12.9744 8.29088 19
53 1 1.05369 12.2728 10.0222 19
54 1 4.41462 16.049 10.0637 21
55 1 1.67092 15.1539 11.5191 18
56 1 3.89145 13.2743 11.3197 19
236 2 3.5554 15.2198 11.4601 20
235 2 1.42245 13.3385 11.5808 19
231 2 1.58865 12.8966 7.90649 21
232 2 4.00394 15.083 8.22697 22
57 1 1.0978 12.0197 13.0443 23
238 2 4.41968 12.3064 12.9967 18
50 1 4.53493 15.9758 6.74819 19
584 2 3.39664 15.1774 18.1123 22
583 2 1.6638 13.008 18.0283 21
59 1 1.65946 14.7389 15.1914 20
60 1 3.71672 12.9727 14.8707 20
581 2 0.59411 15.6432 16.5028 24
582 2 4.60185 12.0413 16.4762 22
239 2 1.538 12.8625 14.777 21
240 2 3.75939 14.849 15.2052 22
401 1 0.990172 12.0063 16.4303 22
402 1 4.58122 15.6504 16.6916 21
403 1 1.54706 14.7896 17.8112 21
404 1 3.92695 13.0044 17.9277 23
406 1 4.42957 15.9645 19.6923 22
405 1 1.28292 11.9751 19.7642 21
58 1 4.09164 15.7519 13.4115 22
237 2 1.06517 15.9274 13.457 23
586 2 4.18587 12.3051 19.6329 19
585 2 0.7353 15.3582 19.5859 22
592 2 3.6793 14.8709 24.5467 19
589 2 1.38859 16.0039 22.6998 22
407 1 2.0376 15.1483 21.1079 23
408 1 4.16121 12.8695 21.3618 21
409 1 1.6258 12.0424 23.1767 22
410 1 4.46981 15.9113 23.1166 20
411 1 1.53021 14.8458 24.2088 21
412 1 4.08705 13.0204 24.6733 25
591 2 1.17009 12.8213 24.6337 20
590 2 4.593 12.0561 23.0054 22
587 2 2.23674 12.661 21.3807 22
588 2 4.04065 15.0774 21.4053 19
594 2 4.96949 12.3641 26.1188 21
414 1 3.99003 16.0134 25.9862 20
598 2 4.38204 11.7248 29.5453 19
600 2 3.49777 14.9364 31.5526 22
415 1 1.0095 14.8163 27.7797 23
416 1 3.85207 12.8575 28.0145 19
417 1 1.23389 11.8825 29.3452 21
418 1 4.37254 15.7989 29.647 20
419 1 1.4189 14.7836 31.3406 20
420 1 3.59854 12.976 31.1596 21
599 2 1.66749 12.902 30.899 19
597 2 0.587806 15.4987 29.7341 19
595 2 1.83926 12.9137 27.6893 22
596 2 4.19304 14.6984 28.1883 18
593 2 1.62443 16.0034 26.2698 19
413 1 1.00991 12.0012 26.3287 21
222 2 4.32791 12.2336 32.7593 20
41 1 1.00522 12.1333 32.4844 20
908 2 3.75465 20.616 4.48991 20
907 2 1.53626 18.4751 5.25124 21
723 1 1.91248 20.9456 1.81297 22
724 1 3.49991 18.5919 1.66868 20
725 1 1.23188 17.5224 3.3355 19
726 1 4.68608 21.4698 2.99237 21
727 1 1.93312 20.455 4.97351 20
728 1 4.30633 18.5788 4.96775 20
906 2 4.32626 17.852 3.06636 21
905 2 1.10875 21.7141 3.47743 21
903 2 1.67432 18.9378 1.60993 22
904 2 4.37647 20.5036 1.45225 20
902 2 4.37574 17.6615 0.191621 22
901 2 1.08826 21.5979 0.106878 21
916 2 3.89356 20.8813 11.6974 23
915 2 1.44027 18.9017 11.6964 23
731 1 1.62867 20.758 8.46623 23
732 1 3.84214 18.8034 8.36204 20
733 1 0.959353 17.817 10.1429 22
734 1 4.53056 21.7269 9.93582 22
735 1 1.82803 21.0842 11.259 19
736 1 3.4515 18.8445 11.437 21
914 2 4.4697 18.1679 10.0333 20
913 2 0.718219 21.5211 9.93114 23
911 2 1.96216 18.4677 8.77839 20
912 2 3.67092 20.9911 8.59229 20
910 2 4.49067 18.4287 6.85549 21
909 2 1.22381 21.373 6.59442 21
729 1 1.3747 17.721 6.97261 20
918 2 4.34692 17.9327 13.0572 20
917 2 1.1045 21.4904 13.0264 22
730 1 4.08952 21.4294 6.47485 20
1261 2 1.20216 21.5556 16.2736 20
1264 2 4.08083 20.4773 18.2407 21
739 1 1.59077 20.5637 14.5511 21
740 1 3.66468 18.43 14.7662 21
1263 2 1.67907 18.6841 18.07 23
1262 2 4.19393 17.7416 16.5755 20
919 2 1.37819 18.8235 15.0627 21
920 2 3.63229 20.7486 14.939 21
1081 1 0.981437 17.7891 16.6979 21
1082 1 4.3269 21.4663 16.6019 21
1083 1 1.19681 20.8004 18.0839 24
1084 1 3.59792 18.5731 18.2412 21
1085 1 0.779131 17.4154 19.6678 24
738 1 4.76302 21.4835 13.3392 19
737 1 1.18087 17.7056 13.3469 22
1269 2 1.09222 21.8056 23.0199 23
1270 2 4.63368 17.8912 22.714 22
1087 1 1.47836 20.6542 21.5115 22
1088 1 3.64468 18.7396 21.1963 24
1089 1 0.997778 18.0131 22.9867 19
1090 1 4.27218 21.8894 22.7962 21
1091 1 1.47698 20.9185 24.8296 20
1092 1 3.39053 19.1579 24.4372 22
1272 2 3.69386 21.0197 24.4612 21
1271 2 1.27239 18.9436 24.7511 19
1267 2 1.62826 18.6025 21.1485 21
1268 2 3.64413 20.6719 21.59 22
1094 1 4.70243 21.3046 26.3148 20
1274 2 4.33946 17.8448 25.9304 21
1265 2 1.08635 21.8295 20.1499 19
1266 2 4.50949 17.6418 20.0203 20
1086 1 4.10816 21.8445 19.9382 22
1280 2 3.61839 20.974 31.2073 23
1279 2 1.93871 18.7329 31.0979 20
1095 1 1.68068 20.8699 28.0503 21
1096 1 3.88458 18.8009 27.9502 21
1097 1 1.14097 17.5302 29.6799 23
1098 1 4.63213 21.3987 29.5531 21
1099 1 1.52518 20.6396 31.3756 20
1100 1 3.93891 18.5332 31.3006 22
1278 2 4.56966 18.0129 29.6459 20
1277 2 0.712649 21.359 29.6039 23
1275 2 1.86671 19.0009 27.9235 21
1276 2 4.00892 20.5928 27.9067 20
721 1 0.943789 18.0964 32.9078 21
722 1 4.67188 21.6838 32.805 20
1273 2 0.704975 21.5396 26.3343 21
1093 1 0.972321 18.0378 26.398 21
928 2 3.77715 26.6548 4.91632 25
925 2 0.845597 26.9941 3.40222 22
743 1 1.52385 26.1364 1.7498 20
744 1 3.70393 24.2507 1.74854 23
745 1 0.92056 23.5093 3.23441 21
746 1 4.45903 27.1464 3.35913 22
747 1 1.83782 26.2585 4.85548 21
748 1 3.76411 23.936 4.89271 23
927 2 1.96628 24.4022 5.0726 22
926 2 4.48696 23.3201 3.27118 23
923 2 1.64392 24.2608 1.61106 22
924 2 3.68982 26.2745 1.71609 23
749 1 1.02638 23.4932 6.59645 20
922 2 4.48731 23.4773 0.156382 23
929 2 1.39243 27.1765 6.74112 21
930 2 4.75442 23.4085 6.42809 22
750 1 5.01863 27.1986 6.38373 20
921 2 1.67806 27.2038 0.0514532 23
741 1 1.06835 23.5235 -0.206025 21
936 2 3.88987 26.5155 11.4972 22
933 2 1.2504 26.9392 9.84858 21
751 1 2.00095 26.2728 8.17869 22
752 1 4.25673 24.5125 8.15523 22
753 1 1.65193 23.2019 9.6031 21
754 1 4.69778 27.2877 9.59275 20
755 1 2.021 26.9695 11.69 21
756 1 3.79781 24.7572 11.2438 20
935 2 1.83607 24.3728 11.1116 22
934 2 4.65209 23.6252 10.0044 19
931 2 1.5678 24.3162 8.13613 24
932 2 4.05362 26.4277 8.04206 19
938 2 4.41985 23.928 12.9911 20
757 1 1.18035 24.1796 13.0577 21
1284 2 3.93058 27.019 18.0357 22
1283 2 2.56582 24.0984 17.7533 22
759 1 1.69075 26.5778 14.9401 20
760 1 3.55158 24.4857 14.9172 20
1282 2 4.75304 23.7341 16.346 21
1281 2 0.949851 27.1956 16.6788 21
939 2 1.73357 24.5968 15.0046 19
940 2 3.88052 26.3743 15.2183 21
1101 1 1.22906 23.587 16.3895 22
1102 1 4.64707 27.5041 16.2625 24
1103 1 2.12813 26.5278 18.072 22
1104 1 4.27886 24.4252 18.2379 23
758 1 4.53197 27.0739 13.4441 19
937 2 0.952427 27.0365 13.146 21
1285 2 1.18034 26.861 19.7007 20
1292 2 3.79179 26.1501 25.0153 22
1290 2 4.4923 23.7285 23.3154 20
1107 1 2.00343 26.2107 21.3991 21
1108 1 4.18266 24.565 21.6407 22
1109 1 1.56313 23.6734 23.0629 24
1110 1 4.5529 27.1152 23.5446 21
1111 1 1.79313 26.2645 25.0119 20
1112 1 4.16088 24.2668 25.0562 19
1291 2 1.87712 24.0824 24.9367 20
1289 2 1.48618 27.1495 22.9762 22
1287 2 2.27407 24.3355 21.381 22
1288 2 3.88735 26.6183 21.6187 20
1293 2 0.833851 27.065 26.4906 22
1286 2 4.90977 23.7387 19.8723 23
1106 1 4.28716 27.2239 19.9047 22
1105 1 1.43623 23.8826 19.6856 20
1300 2 3.8613 26.3124 31.2188 20
1297 2 1.36502 26.9534 29.9748 20
1115 1 1.70882 26.198 27.9911 24
1116 1 4.2887 24.5226 28.1464 22
1117 1 0.903681 23.4654 29.7768 23
1118 1 4.25771 26.8913 29.5559 22
1119 1 1.98876 26.1555 31.6629 22
1120 1 4.16189 24.0423 31.381 21
1299 2 2.25691 23.8508 31.2712 21
1298 2 4.94552 23.6667 29.6667 20
1295 2 1.40684 24.3736 28.2962 19
1296 2 3.58929 26.2849 27.8067 21
1114 1 4.80769 27.0551 26.3689 22
1294 2 4.90554 23.2185 26.6878 20
1113 1 1.14149 23.4373 26.6797 21
742 1 4.71531 26.9692 32.8492 23
948 2 4.09523 31.9005 4.74222 20
946 2 4.36165 29.2732 3.36251 18
763 1 1.58738 32.01 1.55348 20
764 1 3.71779 29.8212 1.72069 21
765 1 1.00341 28.868 3.2514 24
766 1 4.75836 32.3191 3.03767 20
767 1 1.95901 32.042 4.90876 21
768 1 3.88519 29.9 5.10366 20
947 2 1.94302 29.9596 4.88069 23
945 2 1.08923 33.0556 3.11569 21
943 2 1.91859 29.3479 1.48454 22
944 2 3.41534 32.1587 1.58331 20
949 2 0.999105 32.8259 6.47753 22
769 1 1.05294 29.1282 6.49157 20
770 1 4.86726 32.6692 6.36128 21
942 2 5.00936 29.0919 0.0683763 22
956 2 3.92427 31.9679 11.3039 21
955 2 1.78926 29.7234 11.5517 21
771 1 1.94864 31.7171 7.8051 23
772 1 3.88244 30.0349 8.3369 22
773 1 1.10167 29.1477 9.60765 22
774 1 4.84277 32.6499 9.48856 21
775 1 1.73274 31.9354 10.9963 20
776 1 3.95061 29.9328 11.4539 24
954 2 4.76349 29.1641 9.95242 20
953 2 1.53988 33.0386 9.46871 21
951 2 2.00111 29.8718 8.00109 21
952 2 4.11262 31.6439 7.72926 23
957 2 1.15556 32.5836 12.8072 18
778 1 4.32617 32.5503 13.0595 22
950 2 4.82111 29.2632 6.73021 21
1304 2 3.45141 31.9338 17.9792 21
1302 2 4.82975 29.6794 16.707 22
779 1 1.83554 32.4023 14.6643 21
780 1 3.71429 29.9413 14.9102 23
1303 2 1.66769 29.2463 18.1377 23
1301 2 1.05208 31.8891 16.7629 20
959 2 1.85532 30.1395 14.7382 24
960 2 3.72402 31.8218 14.6827 17
1121 1 0.826251 29.6567 16.4263 20
1122 1 4.78628 31.7135 16.6353 22
1123 1 1.70863 31.3067 18.3817 21
1124 1 3.7363 29.6428 18.1644 22
958 2 4.6853 29.0302 13.4411 22
1305 2 0.854363 32.7453 19.7802 20
1126 1 4.47346 32.6929 19.5279 20
777 1 1.09005 29.1268 13.1335 20
1309 2 0.622258 32.5086 22.8398 23
1310 2 4.75546 29.0111 23.1126 23
1127 1 1.92651 31.8297 21.3331 21
1128 1 3.92799 29.6995 21.4643 22
1129 1 1.28382 29.1724 22.7839 22
1130 1 4.36468 32.7448 22.8933 22
1131 1 1.8447 31.6729 24.559 24
1132 1 4.18071 29.5992 24.8948 20
1311 2 2.02544 29.7253 24.6118 22
1312 2 4.09675 31.5605 24.4729 21
1307 2 1.95114 29.8927 21.1126 22
1308 2 3.85028 32.0723 21.4106 21
1306 2 4.56943 29.1044 19.7873 22
1125 1 0.809052 28.8481 19.9492 23
1133 1 1.49824 28.8456 26.4219 21
1134 1 4.62026 32.6235 26.1799 21
1313 2 0.805197 32.5682 26.0753 23
1319 2 2.14205 29.2307 31.2848 22
1318 2 4.56497 28.8322 29.8271 21
1135 1 1.41605 31.6966 27.6412 20
1136 1 4.39691 29.7536 28.1218 22
1137 1 1.23565 28.8122 29.4296 23
1138 1 4.35576 32.5065 29.7672 22
1139 1 1.57189 31.483 30.745 20
1140 1 4.00563 29.9473 31.7247 23
1320 2 3.41206 31.8472 31.2375 23
1317 2 0.708633 32.531 29.2756 21
1315 2 2.51268 29.8758 27.9214 24
1316 2 4.25426 31.9319 27.9512 21
1314 2 5.08981 29.0072 26.5527 23
941 2 1.04396 32.1897 32.5148 21
762 1 4.52705 32.7879 32.9081 22
761 1 0.889057 28.995 32.7208 20
248 2 9.22088 3.62277 4.91959 18
247 2 7.19157 1.33759 4.46463 21
63 1 7.38256 3.96012 1.08131 20
64 1 9.26547 1.82601 1.32728 22
65 1 6.868 0.897085 2.43375 21
66 1 10.0597 4.21505 3.27686 21
67 1 7.30799 3.44369 4.70371 23
68 1 9.36399 1.68274 4.83558 21
246 2 10.3855 1.6129 2.98702 22
245 2 6.18388 4.69191 3.16382 23
243 2 7.24933 2.03704 0.985458 21
244 2 9.33276 3.73767 1.44372 21
69 1 6.40205 0.921963 6.61174 20
250 2 10.1843 1.17847 6.63857 23
249 2 6.72729 4.32232 6.53145 21
62 1 10.1106 4.82281 0.0350579 20
253 2 6.75869 4.25957 10.0168 22
256 2 9.39587 3.64057 11.4287 24
71 1 7.19445 3.62416 8.26623 20
72 1 9.3663 2.00167 8.14787 24
73 1 7.01221 0.870841 9.82369 21
74 1 10.0329 4.67003 9.70434 23
75 1 7.41197 3.59654 11.7332 22
76 1 9.45382 1.80218 11.1278 22
255 2 7.40366 1.4981 11.6171 21
254 2 9.63964 0.514782 9.40088 20
251 2 7.40266 1.59924 8.14904 22
252 2 8.95979 4.0982 8.31365 22
70 1 10.0702 4.36451 6.67234 21
78 1 10.3369 4.3716 13.0136 20
258 2 10.1567 0.917326 12.6185 21
604 2 9.78805 3.66682 18.3716 24
601 2 6.9905 4.49818 16.6318 21
79 1 7.70884 3.78875 15.0069 24
80 1 9.64329 1.39995 14.5736 21
603 2 7.39461 1.7849 18.2009 23
602 2 10.3736 1.23844 16.3568 22
259 2 7.687 1.87243 15.0862 24
260 2 9.89887 3.93452 14.903 21
421 1 6.80631 1.0299 16.4466 23
422 1 10.0937 4.35644 16.6351 21
423 1 7.68012 3.9437 18.334 22
424 1 9.86153 1.56007 18.033 22
426 1 10.3721 4.67767 19.8768 22
257 2 6.78884 4.63663 13.2844 22
77 1 7.06663 0.701675 13.5617 22
610 2 11.0708 2.10508 22.9616 19
609 2 6.21118 4.47446 23.0965 21
427 1 7.43235 3.68148 21.2514 21
428 1 9.69553 1.7801 21.6258 22
429 1 6.65132 1.29051 22.8364 20
430 1 10.3714 4.40889 22.906 19
431 1 7.2275 3.98112 24.5482 20
432 1 9.57805 2.07515 24.4308 22
611 2 7.63759 2.13574 24.5733 22
612 2 9.3276 4.17498 24.7019 23
607 2 7.85016 1.43788 21.5036 20
608 2 9.53229 3.86873 21.4064 20
425 1 6.64495 0.8059 19.6426 23
614 2 10.3768 1.23636 26.1491 20
606 2 10.2538 1.08863 19.8145 21
433 1 6.77834 0.887901 25.7899 21
613 2 6.41893 4.44256 26.2763 22
605 2 6.55092 4.56632 19.8323 20
617 2 6.03032 4.45712 29.1586 25
619 2 7.42772 2.06713 30.7818 23
435 1 6.86569 3.40777 27.7025 23
436 1 9.48092 1.60999 27.7262 21
437 1 6.35015 0.938128 29.4804 23
438 1 9.84589 4.53558 29.6462 21
439 1 6.74531 3.94684 30.852 20
440 1 9.3962 1.74959 31.1718 20
620 2 9.27099 3.84651 31.1452 21
618 2 9.88319 0.94046 29.5053 20
615 2 7.34518 1.45763 27.6499 21
616 2 8.96435 4.36714 28.0414 22
242 2 10.1833 0.901842 32.7425 21
241 2 6.20902 4.64318 32.7287 22
61 1 6.21897 1.41852 32.1136 22
434 1 9.93669 4.65096 26.5824 22
265 2 6.53831 9.95227 3.17226 22
268 2 9.01007 9.02253 5.20159 22
83 1 6.88436 9.27308 1.32415 21
84 1 9.12821 7.33315 2.01948 21
85 1 6.70097 6.6729 3.19126 20
86 1 9.57886 10.372 3.48902 20
87 1 7.1132 9.36323 4.92701 21
88 1 9.54999 7.17477 5.06118 20
267 2 7.13463 7.38989 4.87814 21
266 2 9.83135 6.2662 3.46476 20
263 2 7.20897 7.41224 1.66976 19
264 2 9.49498 9.53395 1.79277 21
262 2 10.3462 6.63832 0.260364 21
81 1 6.50672 6.7103 -0.131028 21
82 1 10.0293 9.84533 -0.190459 21
89 1 6.81346 6.45146 6.53424 23
90 1 9.93523 10.132 6.5685 20
276 2 9.40955 9.57201 11.3072 20
274 2 10.3174 7.00419 9.95573 23
91 1 7.52835 9.09884 8.37966 20
92 1 9.46474 7.49284 8.06154 23
93 1 6.62174 6.25838 9.82426 24
94 1 10.2686 10.4116 9.95471 20
95 1 7.70384 9.24751 11.6333 22
96 1 9.53013 7.57919 11.5247 22
273 2 6.46688 10.015 10.2157 20
275 2 7.5513 7.19194 11.395 21
271 2 7.37481 7.06413 8.23551 22
272 2 9.53216 9.36139 8.24856 20
278 2 10.1724 6.51694 13.1596 21
98 1 10.3808 10.5427 13.0939 20
277 2 7.06078 10.3703 13.1758 20
269 2 6.3856 10.1979 6.99923 19
97 1 6.71798 6.58291 13.0951 21
270 2 10.2735 6.20418 6.79083 22
621 2 6.21986 10.1255 16.3848 20
624 2 9.30745 9.66803 17.8227 21
99 1 7.08319 9.47858 14.7556 22
100 1 9.56297 7.55072 14.5775 22
622 2 9.72525 6.27662 16.6013 21
623 2 7.34736 7.4817 18.0285 22
279 2 7.4377 7.62098 14.6718 21
280 2 10.6408 9.08634 14.515 20
441 1 6.86262 6.47235 16.115 20
442 1 10.0902 10.1554 16.2715 20
443 1 7.50667 9.66962 18.0325 20
444 1 9.42875 7.45453 17.8605 23
446 1 9.89194 9.92195 19.5704 20
445 1 6.50648 6.78046 19.5385 21
626 2 10.3638 6.98268 19.5608 21
632 2 9.63691 10.1779 24.6595 23
631 2 7.26947 7.26511 24.6976 24
447 1 7.4311 9.44581 21.4631 21
448 1 9.33915 7.2877 21.3791 19
449 1 6.31122 6.91416 23.0065 21
450 1 10.4945 10.0917 23.0125 23
451 1 7.39009 9.43219 24.5999 21
452 1 9.15551 6.69526 24.4145 19
630 2 10.3753 6.63349 23.0281 19
629 2 6.81962 10.053 22.9805 20
627 2 7.38817 7.44459 21.4853 19
628 2 9.5073 9.22222 21.2255 19
634 2 10.1053 6.50323 26.3 20
453 1 6.43883 6.43888 26.2325 23
625 2 6.86493 10.5036 19.8095 22
454 1 10.0854 10.1335 26.4256 22
633 2 6.52153 10.272 25.9787 23
637 2 6.71743 10.0571 29.156 21
640 2 9.35373 9.04611 31.1438 19
455 1 7.02481 9.11786 27.5372 20
456 1 9.15196 7.04296 27.9517 20
457 1 5.93342 6.36333 29.3798 24
458 1 10.0192 9.80679 29.2126 20
459 1 7.20176 9.15073 30.8749 23
460 1 9.26764 7.18544 31.5625 19
638 2 10.0614 6.60013 29.7281 21
639 2 7.05083 7.02597 31.0468 24
635 2 7.12113 6.94873 28.161 21
636 2 8.98126 9.19288 27.6957 21
261 2 6.96477 10.0366 32.4918 22
288 2 8.89244 15.2833 4.8575 21
287 2 7.63439 12.9648 5.23472 23
103 1 6.68665 14.9867 1.70991 21
104 1 8.91789 13.3701 1.38195 22
105 1 6.42687 12.0711 3.34971 19
106 1 10.0283 15.6102 3.52802 24
107 1 7.09601 14.8955 4.91126 22
108 1 9.40768 12.8175 4.69515 19
285 2 6.48367 16.1365 3.18376 21
286 2 9.44821 12.3846 3.04555 19
283 2 6.34132 13.1023 1.67466 21
284 2 8.97977 15.0878 1.97122 22
290 2 10.2653 11.991 6.28088 20
102 1 9.35224 16.2658 0.242895 21
110 1 9.87938 16.049 6.37794 20
296 2 9.53863 15.3731 11.5278 20
295 2 7.64251 12.9928 11.742 23
111 1 7.25017 15.1926 8.53203 21
112 1 9.25835 13.5869 8.26239 22
113 1 6.64002 12.2893 10.1122 19
114 1 10.744 15.5336 9.99077 21
115 1 7.41006 15.1604 11.3694 24
116 1 9.53894 13.1646 11.7739 20
293 2 6.5068 16.3333 9.8718 21
294 2 10.2623 12.7713 9.65264 19
291 2 7.27654 13.1316 8.42952 19
292 2 9.13741 15.5508 8.22722 19
117 1 6.24964 12.5105 12.946 20
109 1 6.57897 12.1546 6.63493 18
289 2 6.94363 16.1375 6.81206 21
297 2 6.49774 15.8713 12.9602 20
641 2 6.57245 15.5793 16.4387 22
644 2 10.0066 15.1512 18.1826 22
119 1 7.27036 15.0917 14.5267 21
120 1 9.12354 12.8602 14.8125 20
642 2 10.2458 12.4156 16.3872 22
643 2 7.82853 12.8233 17.7391 21
299 2 6.77884 13.2617 14.6913 22
300 2 9.36571 14.7982 14.8135 23
461 1 6.5142 12.2876 16.5079 21
462 1 9.9339 15.9184 16.2465 21
463 1 7.74289 14.8881 18.0029 22
464 1 10.1675 13.1826 18.2364 21
645 2 6.64209 15.5586 19.4428 19
298 2 10.5154 13.057 13.4064 18
118 1 10.4535 15.8119 13.3923 21
650 2 10.1423 12.145 23.1164 19
649 2 6.42538 15.626 23.061 22
467 1 7.50809 15.0035 21.3711 20
468 1 9.70593 13.2406 21.5371 21
469 1 6.85501 12.1216 23.0119 21
470 1 10.1237 16.2927 22.9756 21
471 1 7.21293 14.9481 24.64 22
472 1 9.49402 12.546 25.2479 21
652 2 9.01578 15.5202 24.6321 20
651 2 7.71278 12.9312 24.5397 22
647 2 7.81797 13.0579 21.5244 18
648 2 9.20725 15.3785 21.2753 21
465 1 7.48595 12.3429 19.745 19
646 2 9.74145 12.018 19.7818 22
466 1 10.2259 16.1036 19.8046 19
653 2 6.14651 15.7415 26.2742 21
473 1 6.798 12.2901 26.1606 22
657 2 6.57003 15.6081 29.5982 19
660 2 9.42698 15.1252 31.4032 21
475 1 6.29306 14.4018 27.7169 19
476 1 9.2949 12.9142 28.3921 22
477 1 6.7561 11.9188 29.6037 22
478 1 10.3694 15.9352 29.768 18
479 1 7.29921 15.0753 31.0401 21
480 1 9.31143 13.1985 31.3372 19
659 2 7.12558 12.9866 31.0899 20
658 2 9.86209 11.7204 29.7797 21
655 2 7.26692 12.7528 27.9021 22
656 2 9.83637 14.6944 28.5398 22
282 2 9.60105 11.9014 32.8345 20
654 2 10.5714 12.7787 26.8577 21
101 1 6.85654 12.1726 32.8992 19
281 2 6.52772 15.5896 32.6871 22
474 1 10.0079 15.3525 26.5518 18
965 2 6.67509 21.1953 3.28235 23
968 2 9.10514 20.8028 4.83592 22
783 1 7.36804 20.6125 1.64 22
784 1 9.56615 18.6792 2.05805 23
785 1 6.83137 17.9801 3.37593 22
786 1 10.1011 21.5953 3.38892 20
787 1 7.24776 21.0698 4.93583 23
788 1 8.96059 18.8008 4.8499 22
967 2 6.99371 19.1181 4.94988 22
966 2 10.1473 17.582 3.61751 23
963 2 7.61697 18.227 1.69329 21
964 2 9.31671 20.8597 1.83819 20
781 1 6.27233 17.5171 0.339314 24
970 2 9.8563 18.3432 6.47291 21
782 1 10.2165 21.293 0.193442 23
962 2 10.164 18.3088 0.21707 21
976 2 9.97461 20.3983 12.0393 20
973 2 6.77222 21.7864 9.79851 20
791 1 7.39227 20.7412 8.35077 21
792 1 9.48185 18.4536 8.38073 24
793 1 6.49133 18.3802 10.2147 22
794 1 10.4063 21.4353 10.3043 22
795 1 8.1388 21.0984 12.1456 21
796 1 9.42392 18.4896 11.4737 21
975 2 7.51718 18.892 11.6592 20
974 2 10.2182 17.8292 9.97025 22
971 2 7.54303 18.8549 8.61113 20
972 2 9.30781 20.7437 8.46311 21
969 2 6.80097 21.4583 6.65539 23
789 1 6.69554 18.0837 6.84965 21
797 1 6.47963 17.7333 13.2647 20
790 1 9.80888 21.2854 6.73615 23
1321 2 6.20134 21.3355 16.579 22
1324 2 9.54898 20.6059 18.326 24
799 1 7.14571 20.4453 15.0833 19
800 1 9.12303 18.7129 14.8027 21
1322 2 10.0657 18.185 16.246 21
1323 2 7.14179 18.5924 18.0398 22
979 2 7.05472 18.1721 14.8123 18
980 2 9.05829 20.7634 15.0586 20
1141 1 6.44545 17.6879 16.5159 20
1142 1 10.063 21.3306 16.5262 19
1143 1 7.17866 20.602 18.1502 20
1144 1 9.37268 18.9045 18.0975 20
978 2 10.1812 17.775 13.5142 21
798 1 10.8125 21.3546 13.5345 21
1325 2 6.21518 21.4499 19.7881 24
1326 2 10.1922 18.0531 19.515 22
977 2 6.94286 21.6187 13.6158 22
1145 1 6.54286 17.8658 19.561 21
1332 2 9.64882 20.4242 24.7752 21
1331 2 7.44141 18.5149 24.7533 21
1147 1 7.0932 20.5148 21.3874 22
1148 1 9.30075 18.796 21.0806 19
1149 1 6.4299 17.8836 23.1596 21
1150 1 10.2968 21.3061 23.1525 24
1151 1 6.73907 20.2911 24.4948 22
1152 1 9.73294 18.7267 24.7492 21
1329 2 6.41001 21.5899 23.0995 23
1330 2 10.0743 18.1304 22.791 19
1327 2 7.34918 18.78 20.9555 22
1328 2 9.1108 20.6522 21.4576 21
1146 1 10.1292 21.5502 19.9478 21
1333 2 6.85275 21.265 26.0468 19
1334 2 10.3482 17.2891 26.1892 21
1337 2 6.81339 21.0741 29.1602 22
1338 2 10.1156 17.9012 29.6851 20
1155 1 7.50256 20.2288 27.7159 20
1156 1 9.38034 18.2217 27.8435 19
1157 1 6.46448 17.8565 29.6936 20
1158 1 10.3676 20.8776 29.6862 24
1159 1 7.29954 20.4179 31.0345 21
1160 1 9.13436 18.2238 31.3899 23
1339 2 7.19829 18.4517 31.4368 19
1340 2 9.4648 20.2713 31.5586 21
1335 2 7.39301 18.4116 28.2342 18
1336 2 9.40099 20.3853 28.2396 24
961 2 6.65482 21.3052 32.7506 21
1154 1 9.93938 21.3109 26.5951 22
1153 1 6.44166 17.5211 26.2309 22
988 2 9.4408 26.3429 4.85511 22
987 2 7.28765 24.9342 5.12416 22
803 1 7.70964 26.265 1.58457 22
804 1 9.10261 24.1484 1.3573 22
805 1 6.28982 24.0429 3.53813 21
806 1 10.5672 26.8696 3.35791 23
807 1 7.64629 26.7132 4.44602 21
808 1 8.99488 23.8018 5.08006 22
986 2 9.81841 23.5595 3.18092 23
985 2 6.51217 27.4245 3.04457 21
983 2 7.03195 24.5315 1.73674 22
984 2 9.82946 26.2191 1.52676 23
810 1 10.2834 26.9095 6.35631 22
801 1 6.652 23.2699 -0.108345 20
989 2 7.04079 27.2321 6.50786 22
996 2 9.67126 26.4013 11.8614 20
995 2 7.29029 24.3536 11.5723 20
811 1 7.4406 26.2588 8.2243 22
812 1 9.64195 24.1828 8.48207 20
813 1 6.53917 23.7403 9.92042 20
814 1 10.2449 26.9268 10.1385 21
815 1 7.48145 26.3147 11.7199 21
816 1 9.83189 24.1933 11.7043 19
993 2 7.3122 27.0331 9.90544 21
994 2 10.4137 23.3078 10.0581 22
991 2 7.86357 24.0653 8.14164 20
992 2 9.68204 26.0463 8.03996 22
809 1 6.72572 23.4725 6.5182 22
990 2 10.0639 23.4571 6.56647 20
1344 2 9.45667 26.1388 18.1166 20
1343 2 7.34454 24.2712 18.2948 20
819 1 7.48532 26.366 14.8142 21
820 1 9.24054 23.9913 15.1198 19
1341 2 6.63269 27.1011 16.4132 22
1342 2 10.2154 23.1997 16.8278 21
999 2 7.29256 24.2583 15.0168 21
1000 2 9.52182 25.8226 14.9792 21
1161 1 6.47802 23.3483 16.6496 21
1162 1 10.1646 26.7553 16.4902 21
1163 1 7.22102 26.2772 18.1233 23
1164 1 9.45754 24.1808 18.2796 22
818 1 10.1931 27.123 13.43 21
997 2 6.45455 27.0783 13.3271 21
817 1 6.48365 23.4571 13.2332 22
998 2 9.81641 23.261 13.3559 21
1352 2 9.61115 25.9796 24.6539 22
1351 2 7.48924 24.101 25.1162 22
1167 1 7.05426 26.277 21.5087 21
1168 1 9.28989 24.3262 21.5714 22
1169 1 6.49976 23.5516 23.1324 21
1170 1 9.82641 27.1986 23.1456 22
1171 1 7.7019 26.1365 25.0966 21
1172 1 9.45926 24.0558 24.7537 21
1349 2 7.0135 27.0878 23.5736 21
1350 2 9.87887 23.2174 23.2941 21
1347 2 7.26559 24.3006 21.553 20
1348 2 9.59795 26.1631 21.4807 22
1165 1 6.93586 23.1693 19.7716 22
1166 1 9.95072 26.9844 19.7315 21
1354 2 10.2947 23.1324 26.3957 22
1346 2 9.71931 23.3328 20.0436 20
1174 1 9.98669 27.0468 26.1548 23
1345 2 6.58679 26.8616 19.7965 21
1357 2 6.93496 27.1749 29.8933 19
1360 2 9.6171 26.3297 31.2961 22
1175 1 7.78628 26.221 28.1605 23
1176 1 9.60425 24.2161 27.8588 23
1177 1 7.39474 23.0702 29.719 21
1178 1 10.4425 26.6273 29.689 23
1179 1 7.40615 25.848 31.1016 21
1180 1 9.75321 24.3855 31.3277 18
1359 2 7.96984 23.9428 31.3037 24
1358 2 10.6659 23.743 29.2095 21
1355 2 7.77597 24.0284 28.243 24
1356 2 9.76432 26.2821 27.733 20
802 1 10.6281 26.9098 32.8304 24
1353 2 6.64489 26.8498 26.6807 24
1173 1 7.17436 22.9187 26.5451 23
981 2 6.6676 26.6374 32.853 21
982 2 10.23 23.3975 32.8225 20
1008 2 9.59802 32.3458 4.74079 18
1006 2 10.4765 28.9264 2.84041 21
823 1 7.55842 31.9564 1.31606 21
824 1 9.76971 30.1156 1.41688 20
825 1 6.84197 29.1236 2.89229 20
826 1 10.5665 32.7329 3.18896 21
827 1 7.6537 32.1113 4.77862 19
828 1 9.49208 29.6897 4.67918 23
1007 2 7.58719 29.8955 4.80978 18
1005 2 6.9404 32.5714 2.84521 18
1003 2 7.84043 29.888 1.37638 19
1004 2 9.58305 32.0389 1.57756 22
1010 2 10.0738 29.1139 6.5696 19
1001 2 6.44462 33.2816 0.118383 23
1013 2 6.71329 32.4673 10.0763 24
1016 2 9.29718 31.8889 11.2789 23
831 1 7.74586 32.0172 8.38253 20
832 1 9.37817 29.4842 8.14187 23
833 1 6.79843 28.9726 10.0532 21
834 1 10.154 32.4792 9.7945 24
835 1 7.21235 31.969 11.8472 21
836 1 8.93834 29.5572 11.3168 21
1014 2 10.0388 28.821 10.1226 22
1015 2 7.02421 29.6048 11.9599 21
1011 2 7.50612 29.7279 8.48084 21
1012 2 9.72 31.4955 8.21974 22
838 1 10.3977 32.5874 12.6221 24