ITEM: TIMESTEP
12000
ITEM: NUMBER OF ATOMS
2880
ITEM: BOX BOUNDS pp pp pp
0.0 33.66
0.0 33.66
0.0 32.9
ITEM: ATOMS id type x y z Coordination
188 2 4.23977 3.71726 5.09895 20
187 2 1.74367 1.57474 5.01465 21
3 1 1.66854 3.6952 1.80087 21
4 1 4.04606 1.85223 1.46285 21
5 1 0.936946 0.762092 3.24366 21
6 1 3.93626 4.76004 3.32831 21
7 1 1.31824 3.43535 4.75652 20
8 1 4.02395 1.9319 4.80535 22
186 2 4.87535 1.4307 3.23195 21
185 2 1.23025 4.5866 3.26493 19
183 2 1.98999 1.64193 1.72084 21
184 2 3.9389 3.784 1.5522 20
1 1 1.26141 1.01322 0.109707 19
190 2 4.55225 0.873888 6.33696 21
189 2 1.06375 4.66196 6.29011 23
10 1 4.40024 4.57913 6.85451 20
2 1 4.66458 4.84854 0.123024 22
196 2 3.6932 3.68084 11.5907 21
193 2 0.717339 4.44657 9.85639 22
11 1 1.61051 3.77352 8.28532 20
12 1 3.67294 1.56397 8.04941 22
13 1 0.642652 1.20268 9.99329 21
14 1 4.77274 4.14204 9.96194 21
15 1 1.74535 3.64438 11.1733 20
16 1 3.65195 1.69734 11.351 18
195 2 1.68809 1.66334 11.6057 21
194 2 4.5222 0.844545 9.71751 19
191 2 0.984588 1.90355 8.15742 21
192 2 3.58397 3.56534 8.15912 21
18 1 4.66445 4.34314 13.1733 22
197 2 1.05435 4.68496 12.5382 21
9 1 0.685375 0.830879 6.48338 22
541 2 0.903324 4.32686 16.494 22
542 2 4.30849 0.827563 16.3424 23
19 1 1.62834 3.68121 14.8889 22
20 1 3.19195 1.63722 14.807 23
544 2 3.47266 4.04702 17.9337 21
543 2 1.78406 1.62562 17.9971 21
199 2 1.29152 1.8687 14.6897 22
200 2 3.76959 3.71668 14.8722 22
361 1 0.882214 1.19333 16.5407 21
362 1 4.63081 4.53041 16.3851 22
363 1 1.63232 3.58595 18.1673 23
364 1 3.70902 1.73678 18.0113 22
365 1 0.873202 0.82208 19.4358 23
198 2 4.18491 1.01927 13.3542 21
545 2 0.756587 4.69845 19.7196 22
17 1 0.840912 0.912073 12.984 22
366 1 4.49809 4.21363 19.631 23
552 2 3.96107 3.49998 24.8802 20
550 2 4.54011 0.859572 22.7648 21
367 1 1.30796 3.81896 21.3222 18
368 1 3.471 1.60387 21.23 19
369 1 0.683395 1.32578 23.0539 20
370 1 4.52745 4.38412 22.8527 21
371 1 1.94351 3.45113 24.8676 20
372 1 3.99608 1.32752 24.556 20
549 2 1.02819 4.15292 23.2885 20
551 2 2.1879 1.41531 24.6917 21
547 2 1.25054 1.85903 21.2448 19
548 2 3.66756 3.59577 21.1437 18
553 2 1.01266 4.14673 26.476 20
546 2 4.5335 0.824137 19.6662 20
560 2 4.16386 4.22245 31.4103 20
559 2 2.13392 1.80035 31.4496 20
375 1 1.59824 4.00081 28.2726 20
376 1 3.56578 1.8355 27.8999 24
377 1 0.767025 1.22107 29.8744 20
378 1 4.64721 4.98186 29.8184 20
379 1 2.20467 3.61192 31.1435 20
380 1 4.04135 2.11694 31.3934 23
558 2 4.32367 1.30311 29.4859 20
557 2 1.02403 4.7266 29.9769 22
555 2 1.69845 1.86047 28.4211 22
556 2 3.68943 3.87406 28.3267 21
374 1 4.53415 4.51279 26.385 20
181 2 1.23655 4.32255 33.0592 24
554 2 4.84123 0.917927 26.4427 22
182 2 4.64992 0.686983 33.0897 23
373 1 1.15335 1.20034 26.4857 22
206 2 4.39441 6.98467 3.20688 22
208 2 3.65454 9.25691 5.33196 23
23 1 1.46248 9.48124 1.71879 20
24 1 3.54233 7.57696 1.67216 21
25 1 1.26418 6.43566 3.1332 21
26 1 4.56964 9.90344 3.41225 19
27 1 1.40211 9.20567 5.13311 18
28 1 3.77584 7.23748 4.8893 20
207 2 1.86664 7.15737 5.09686 21
205 2 0.999702 9.98435 3.44082 21
203 2 1.61369 7.35572 1.42904 21
204 2 3.58308 9.61423 1.74261 19
22 1 4.78815 10.1784 0.139828 20
201 2 0.63302 10.4353 0.315418 20
202 2 4.47184 6.64191 0.198046 23
213 2 1.1502 10.1959 9.97789 20
214 2 5.0993 6.75015 10.5306 20
31 1 1.90577 9.44828 8.2319 21
32 1 4.31616 7.33744 8.74601 23
33 1 0.685447 6.51271 9.67628 22
34 1 4.37732 10.1649 10.1548 21
35 1 1.66051 9.41499 11.72 22
36 1 3.78155 7.61071 11.6861 22
215 2 1.76285 7.42932 11.2832 24
216 2 3.62208 9.63671 11.8534 21
211 2 1.66797 7.48387 8.30505 22
212 2 3.89728 9.20926 8.6524 21
30 1 4.59099 10.1326 6.90034 21
209 2 1.15409 10.4939 6.58032 20
210 2 4.30772 6.49043 7.08475 21
37 1 0.958535 6.53709 12.9893 21
29 1 1.56201 6.48824 6.84809 20
561 2 1.46211 10.3627 16.6312 20
563 2 1.5727 7.08192 18.3861 20
39 1 1.71343 9.07707 14.922 18
40 1 3.70232 7.11798 14.9451 18
562 2 4.87036 6.45186 16.4921 22
564 2 3.74666 9.03506 18.4558 18
219 2 1.64646 7.01942 14.8475 21
220 2 3.54714 9.1107 14.9957 20
381 1 1.09094 6.51917 16.6174 20
382 1 4.58557 9.5265 16.7139 20
383 1 1.91037 9.39398 18.4437 22
384 1 3.84617 6.95681 18.356 19
218 2 4.35258 6.56134 13.3328 19
217 2 0.992587 10.4381 13.6285 21
38 1 4.15684 10.5899 13.629 21
386 1 4.66786 10.0517 19.7704 20
572 2 4.22845 9.05718 24.6441 21
569 2 1.35533 10.4088 23.3231 23
387 1 2.2643 9.41845 21.1985 21
388 1 4.15052 7.39663 21.7723 21
389 1 1.52138 6.74753 23.0814 19
390 1 4.47356 10.4793 23.0911 20
391 1 2.05888 9.37239 24.8618 21
392 1 4.2437 6.94312 24.7678 19
570 2 5.04175 6.23331 22.9503 21
571 2 2.20407 7.42142 24.6695 19
567 2 1.75929 7.70149 21.5697 21
568 2 4.16795 9.39108 21.3905 19
385 1 1.00376 6.61079 20.0872 19
566 2 4.52176 6.44632 20.2064 21
565 2 1.11257 10.3874 19.8933 22
393 1 1.32097 6.46055 26.4485 22
580 2 4.22763 9.52368 31.3525 20
579 2 1.78933 7.71995 31.1386 21
395 1 2.0565 9.65242 28.1455 22
396 1 4.45191 7.60871 28.1686 21
397 1 0.904073 6.61109 29.9 18
398 1 4.77302 10.3288 29.6387 21
399 1 1.99336 9.66161 31.4702 21
400 1 4.05143 7.48632 31.2508 21
578 2 4.9991 6.76736 29.7165 19
577 2 1.38828 10.5208 29.8174 22
575 2 1.51345 7.35769 28.1639 19
576 2 4.15335 9.5702 28.1176 20
573 2 1.62852 10.4604 26.4084 22
574 2 4.86271 6.73406 26.5672 20
21 1 1.14088 6.51955 32.6213 21
394 1 4.6124 10.0587 26.31 21
228 2 3.71239 14.9882 5.15201 20
227 2 1.3478 13.2844 5.3404 21
43 1 1.71532 15.382 2.0713 20
44 1 3.47741 12.9937 1.62715 20
45 1 0.795993 12.1529 3.48972 23
46 1 4.60755 15.4437 3.47663 19
47 1 1.70555 15.243 4.95032 20
48 1 3.91821 13.018 5.12033 21
225 2 0.602565 15.9361 3.57756 22
226 2 4.60564 12.4289 3.32873 20
223 2 1.26674 12.8908 1.78019 23
224 2 3.73885 14.7931 2.01683 20
42 1 4.45129 15.0999 0.164483 20
222 2 4.68974 12.2111 0.0664471 21
229 2 1.06211 15.7572 6.62432 22
221 2 0.975488 15.8694 0.377941 21
233 2 1.17045 15.9166 9.69434 22
234 2 4.57482 12.1043 10.1376 23
51 1 1.72017 14.9507 8.13015 23
52 1 4.07839 12.9608 8.41266 20
53 1 1.22227 12.2331 9.96075 20
54 1 4.61642 15.9256 9.96311 21
55 1 2.0516 15.0716 11.2989 21
56 1 3.65285 12.9866 11.5689 21
236 2 4.09599 14.9524 11.5862 21
235 2 1.77109 13.1116 11.5262 22
231 2 2.04143 12.9619 8.30386 20
232 2 3.80482 15.0238 8.4655 21
230 2 4.76414 12.1356 6.98596 20
237 2 1.2004 15.9729 12.7743 20
49 1 0.766408 12.5557 6.95175 21
50 1 4.6238 15.6106 6.6728 20
58 1 4.83935 15.7499 13.1202 20
584 2 4.16999 15.1023 17.798 20
583 2 1.98864 13.1233 18.1222 22
59 1 2.01605 15.3538 14.5978 23
60 1 3.93067 13.3262 14.9311 19
581 2 1.40149 15.9619 16.1395 21
582 2 4.81229 12.4665 16.2972 21
239 2 1.80262 13.4639 14.7026 23
240 2 4.18272 15.3026 14.7172 23
401 1 1.36372 12.4168 16.3406 21
402 1 4.77758 16.3475 16.451 21
403 1 2.05281 15.0195 18.071 21
404 1 4.3162 13.2789 18.0272 21
405 1 1.23755 12.3111 19.7946 21
586 2 4.59453 12.1265 19.4989 24
406 1 4.8684 15.9948 19.5607 23
238 2 4.56394 12.7637 13.2033 19
57 1 0.83357 12.7153 13.1393 21
585 2 1.10801 15.7828 19.5288 22
592 2 3.63922 15.1959 24.3437 23
589 2 1.11127 15.8331 22.7111 21
407 1 1.89413 14.9848 21.1936 21
408 1 4.19072 12.9594 20.9983 21
409 1 0.928876 12.4262 23.1275 22
410 1 5.05277 15.6164 23.0698 23
411 1 1.58388 15.1845 24.5486 20
412 1 4.0616 13.0466 24.5803 22
591 2 1.99144 13.2592 24.5485 21
590 2 4.67606 12.3462 22.7991 20
587 2 1.32917 13.1582 21.3993 23
588 2 3.9137 14.9019 20.8098 22
414 1 4.72863 15.6913 26.1172 22
594 2 4.60598 12.0511 25.9089 22
413 1 1.63126 12.3213 26.2578 23
598 2 4.60561 12.3301 29.4857 21
600 2 4.00215 14.7657 31.2377 22
415 1 1.99695 15.0082 28.0265 22
416 1 4.23342 12.8808 27.8449 23
417 1 1.42009 12.4517 29.6287 23
418 1 4.68536 15.6788 29.6364 21
419 1 1.8741 15.0575 31.6298 21
420 1 3.80791 12.9132 31.1003 20
599 2 1.98327 12.7838 31.3653 20
597 2 1.10068 15.6194 29.7935 22
595 2 1.96152 13.0472 27.8833 21
596 2 3.94764 14.8976 27.9116 22
593 2 1.01707 15.5637 26.4296 24
41 1 0.850289 12.2737 32.9134 21
908 2 4.28648 20.4226 4.84554 18
907 2 1.90036 18.7262 5.03866 21
723 1 0.949608 20.7362 1.45547 21
724 1 3.89123 18.6448 1.83965 21
725 1 0.897104 17.9968 3.32956 23
726 1 4.42904 21.5758 3.44536 21
727 1 1.65643 20.59 4.67488 19
728 1 3.98908 18.6018 5.05532 19
906 2 4.80782 17.6961 3.60971 21
905 2 0.844984 21.5161 3.07258 19
903 2 1.84596 18.8519 1.65572 21
904 2 4.13659 20.7532 1.53437 19
721 1 0.883304 17.7033 0.413746 20
910 2 4.90353 17.5479 6.42831 22
909 2 1.29145 21.426 6.2984 20
916 2 4.20809 21.0068 11.5508 22
915 2 2.36235 18.7115 11.8245 20
731 1 2.24048 20.8909 8.29849 23
732 1 3.90376 18.5288 8.05916 20
733 1 1.32543 17.8763 9.75656 23
734 1 4.72349 21.5682 9.78686 20
735 1 2.19411 20.6859 11.3276 22
736 1 4.22828 18.842 11.6065 21
914 2 4.47781 18.0106 9.90379 23
913 2 0.888401 21.2303 9.7777 24
911 2 1.87073 18.9579 8.22005 22
912 2 4.22067 20.2697 8.42945 23
738 1 4.80804 21.7874 13.3304 22
729 1 1.17685 18.1439 6.62155 22
918 2 4.92782 17.684 13.0938 20
730 1 4.38049 21.5468 6.49831 20
1261 2 0.883175 21.0683 16.043 21
1264 2 4.17893 20.6214 18.3426 19
739 1 1.90831 20.6484 14.4755 20
740 1 4.04805 18.6018 14.6854 20
1263 2 1.84747 18.8115 18.2191 20
1262 2 5.02141 18.2626 16.3363 22
919 2 2.19452 18.4869 14.9134 22
920 2 3.85646 20.7539 14.9123 23
1081 1 1.05382 18.0236 16.5866 23
1082 1 4.68462 21.3653 16.6489 23
1083 1 1.99502 20.7139 17.8751 19
1084 1 4.25126 18.6667 18.0625 21
737 1 1.01872 18.153 13.2282 22
917 2 1.35645 21.6061 12.9302 22
1265 2 1.00346 21.3306 19.4969 20
1269 2 1.29966 21.6893 22.905 19
1270 2 4.94638 17.5273 23.1405 22
1087 1 1.86499 20.8632 21.1871 21
1088 1 3.71267 18.7271 21.3377 18
1089 1 0.978349 17.7116 23.2332 21
1090 1 4.5905 21.522 23.2367 19
1091 1 1.89148 20.8538 24.561 21
1092 1 3.6951 18.6778 24.5071 19
1272 2 3.79681 20.7716 25.0382 20
1271 2 1.88033 18.1732 24.8304 22
1267 2 1.71087 18.286 21.5186 21
1268 2 3.74069 20.7596 21.703 19
1086 1 4.83211 21.4324 20.0832 22
1085 1 0.974754 18.0915 19.6165 22
1266 2 4.52153 17.8388 19.8283 21
1274 2 4.69214 17.4497 25.8957 20
1280 2 3.51139 20.4821 31.1262 17
1279 2 1.59544 18.3677 31.5089 19
1095 1 1.69115 20.2767 27.8966 20
1096 1 3.67507 18.5026 27.8876 21
1097 1 0.894937 17.6298 29.648 21
1098 1 4.4301 21.4016 29.7109 18
1099 1 1.42436 20.3384 31.1181 19
1100 1 3.78898 18.5899 31.1162 20
1278 2 4.15333 17.395 29.3997 20
1277 2 1.25549 21.2492 29.516 21
1275 2 1.62974 18.4429 27.968 20
1276 2 3.71976 20.5967 28.0274 20
1094 1 4.5785 21.7189 26.5036 21
901 2 0.917718 21.5064 32.6589 20
902 2 4.74383 17.9276 32.8168 21
722 1 4.47138 21.3077 32.7303 19
1273 2 1.09664 21.1434 26.3276 24
1093 1 1.15381 17.5126 26.2899 24
928 2 3.60481 26.5788 4.85749 21
925 2 0.954745 26.7263 3.15482 21
743 1 1.94574 26.2759 1.82722 23
744 1 3.96599 24.3388 1.87771 20
745 1 1.16235 23.5015 3.14911 21
746 1 4.73149 26.7609 3.26784 20
747 1 1.66859 26.3063 4.80808 19
748 1 3.73523 24.4947 5.11206 19
927 2 1.87188 24.3984 4.92186 20
926 2 4.40408 23.4311 3.48473 18
923 2 1.92577 24.2486 1.65934 21
924 2 4.03704 26.5491 1.54263 22
921 2 0.972805 27.1992 -0.0641697 21
750 1 4.48696 26.9503 6.70654 21
929 2 1.18725 27.2699 6.67484 20
749 1 1.36082 23.3641 6.63411 19
741 1 0.998361 23.4301 -0.147661 20
936 2 3.47673 26.371 11.8399 22
933 2 0.673881 26.7195 9.97085 21
751 1 1.74333 26.3288 8.32614 23
752 1 3.85373 24.2346 8.50708 20
753 1 0.993083 23.5623 9.71177 20
754 1 4.63583 26.9781 10.3102 23
755 1 1.33935 26.5192 11.7135 21
756 1 3.50515 24.4577 11.6425 23
935 2 1.23977 24.4485 11.4401 23
934 2 4.27036 23.4348 10.2648 21
931 2 1.95046 24.3673 8.30576 20
932 2 3.77381 26.3482 8.3692 20
937 2 1.13106 27.496 13.3039 22
930 2 3.9979 23.4736 6.78838 23
1284 2 3.81932 26.694 17.9694 20
1283 2 1.90903 23.9308 17.8747 21
759 1 1.70911 26.3631 14.7208 22
760 1 3.65226 24.3173 14.8696 21
1282 2 4.60971 23.5322 16.6198 18
1281 2 1.11099 26.9798 16.3992 20
939 2 1.3676 24.465 14.7996 21
940 2 3.7059 26.4482 14.931 21
1101 1 1.15206 23.1675 16.143 22
1102 1 4.25691 27.7092 16.2977 22
1103 1 2.0099 27.3588 18.078 19
1104 1 3.779 24.6969 18.0876 21
1105 1 1.17074 23.4841 19.5572 18
757 1 1.14813 23.5473 13.1265 21
1106 1 4.67774 27.0237 19.7424 21
938 2 4.74772 24.2706 13.2243 23
758 1 4.54316 26.7065 13.1503 21
1292 2 3.71708 26.3969 24.4138 20
1290 2 4.42488 23.5737 22.8895 21
1107 1 1.73452 26.371 21.4424 21
1108 1 3.73142 24.2457 21.3824 23
1109 1 1.11052 23.5518 23.1915 20
1110 1 4.26934 27.1999 22.6432 21
1111 1 1.51796 26.5604 24.5988 24
1112 1 3.83524 24.3187 24.649 24
1291 2 1.93454 24.3758 24.581 22
1289 2 0.66555 27.1727 22.9467 23
1287 2 1.8938 24.2232 21.1687 20
1288 2 3.73141 26.2072 21.297 22
1293 2 0.872161 27.0422 26.2796 19
1113 1 0.980169 23.3296 26.1702 24
1114 1 4.49174 26.9651 26.1159 22
1285 2 1.04403 27.0775 19.8463 20
1286 2 4.79867 23.5632 19.8554 20
1300 2 3.47303 26.7103 31.4456 22
1297 2 0.608231 26.9889 29.5345 23
1115 1 1.59874 26.4481 27.9774 20
1116 1 3.82484 24.4008 28.0082 19
1117 1 0.925898 23.9696 29.3604 18
1118 1 4.50882 27.2655 29.4422 20
1119 1 1.47076 26.2117 31.2102 21
1120 1 3.55748 24.6524 31.3903 19
1299 2 1.80482 24.3603 31.2599 19
1298 2 4.40441 23.6628 29.5253 21
1295 2 1.57656 24.4583 27.7023 21
1296 2 3.63695 26.6241 27.8389 19
742 1 4.66249 27.2746 32.7857 22
922 2 4.61138 23.986 32.9107 21
1294 2 3.8565 23.5426 26.384 22
948 2 4.02498 31.7281 4.87044 21
946 2 4.71203 29.2123 3.3053 20
763 1 1.84389 31.8221 1.47248 23
764 1 3.67846 29.6023 1.70798 21
765 1 0.619977 29.8181 3.33716 18
766 1 4.76518 32.4488 3.05445 21
767 1 1.85967 32.1582 5.10401 20
768 1 3.65253 29.7879 4.84708 23
947 2 1.5281 30.1843 5.05887 22
945 2 0.985545 32.0965 3.26918 21
943 2 1.76633 29.5902 1.69534 22
944 2 3.67725 31.7889 1.49938 21
941 2 1.08271 32.6666 0.0475969 24
950 2 4.47372 29.0791 6.47002 20
761 1 1.17432 29.0857 -0.111645 22
956 2 3.70767 31.7945 11.5983 22
955 2 1.54394 29.7861 11.2288 20
771 1 1.76897 31.9436 8.16518 22
772 1 4.1368 29.9178 8.12678 22
773 1 0.895729 28.8935 9.70616 21
774 1 4.48621 32.5352 9.79506 20
775 1 1.53235 31.8765 11.1398 21
776 1 3.45119 29.7497 11.3586 22
954 2 4.52562 28.8813 9.84314 22
953 2 0.771096 33.073 9.73929 20
951 2 1.56385 30.0329 8.46143 21
952 2 3.88998 32.0165 8.09677 22
770 1 4.70476 32.5482 6.41624 20
958 2 4.2971 29.0945 13.1247 22
949 2 0.651927 32.4042 6.67897 19
769 1 1.14353 29.186 6.59331 19
1304 2 3.84578 32.0784 18.401 23
1302 2 4.34799 29.6986 16.5359 21
779 1 1.42501 32.2157 14.8425 23
780 1 3.71214 29.9477 14.7997 20
1303 2 1.76083 29.8217 18.0362 21
1301 2 0.846063 33.0443 16.6057 24
959 2 1.83593 29.9846 14.7255 22
960 2 3.57641 31.8396 14.8934 20
1121 1 0.716638 29.0297 16.0752 19
1122 1 4.49839 32.4743 16.5133 22
1123 1 1.75461 31.9314 18.1908 23
1124 1 3.67002 30.161 18.2434 21
957 2 0.732562 32.0418 12.912 21
1125 1 0.842864 29.0776 20.0997 21
777 1 0.749496 29.5572 12.9983 21
778 1 4.40793 32.5074 13.0845 22
1309 2 0.746164 33.0242 23.1282 23
1310 2 4.21782 29.0053 23.0908 22
1127 1 1.48348 32.1611 21.5648 20
1128 1 3.403 29.7868 21.3768 21
1129 1 0.734873 29.3362 23.3096 20
1130 1 4.37616 32.5478 23.1679 20
1131 1 1.92304 31.9831 24.8825 23
1132 1 3.64802 29.8513 24.4815 20
1311 2 1.59557 30.1381 24.9681 21
1312 2 3.72712 31.866 24.9528 20
1307 2 1.57692 29.9714 21.6675 21
1308 2 3.36231 31.8341 21.3766 21
1306 2 4.53687 29.3849 19.8586 22
1305 2 0.747496 32.536 19.695 22
1314 2 4.49014 28.8549 26.147 21
1126 1 4.61301 32.4878 20.1948 22
1313 2 0.824437 33.0115 26.1644 20
1319 2 1.65227 30.0539 31.2632 21
1318 2 4.49025 29.125 29.2514 21
1135 1 1.72768 32.1704 27.8615 21
1136 1 3.75569 30.1213 27.7025 22
1137 1 0.906643 29.0679 29.7219 22
1138 1 4.62113 32.8132 29.5906 20
1139 1 1.74948 32.0 30.9805 21
1140 1 3.56201 30.0654 31.2882 23
1320 2 3.68995 31.9517 31.2056 21
1317 2 0.55969 32.7609 29.3698 20
1315 2 1.49627 30.3081 28.1842 21
1316 2 3.66281 31.996 27.8818 20
1133 1 0.667579 29.4332 26.6782 22
942 2 4.54311 29.3454 32.8932 21
762 1 4.78857 32.418 32.9566 20
1134 1 4.73165 32.4954 26.3831 23
248 2 8.94286 4.48547 4.75725 20
247 2 7.78144 1.99185 4.97153 22
63 1 7.21803 4.55109 1.85862 20
64 1 9.48588 1.6832 1.63666 20
65 1 6.90797 1.03709 3.37729 22
66 1 10.246 4.6261 3.10692 20
67 1 7.16107 4.01553 4.69822 24
68 1 9.83421 2.07043 4.95554 19
246 2 10.0709 0.662097 3.27418 21
245 2 6.0244 4.73252 3.36569 24
243 2 7.59543 1.62638 1.57854 20
244 2 9.17345 4.40156 1.67579 19
61 1 6.79062 0.871684 0.0650815 19
249 2 6.5288 4.73243 6.41491 19
70 1 10.0613 4.66183 6.31461 20
253 2 6.74497 4.60258 10.1099 23
256 2 9.29081 3.83605 11.3529 22
71 1 7.17116 4.17317 8.29593 24
72 1 8.99696 1.90059 8.24589 22
73 1 6.47582 1.21218 9.66731 20
74 1 10.0976 4.46123 9.69891 22
75 1 7.48904 3.69463 11.6191 22
76 1 9.01609 1.66268 11.2272 19
255 2 6.8534 1.9387 11.5194 24
254 2 9.81147 0.92776 9.67347 22
251 2 7.04763 1.92505 8.09694 23
252 2 9.13295 4.05176 7.91326 20
258 2 9.91726 1.38474 12.8452 21
78 1 10.286 4.24783 12.9122 21
250 2 9.87356 1.19655 6.5933 21
69 1 6.611 1.28842 6.12777 20
257 2 6.63796 4.50166 13.2519 22
604 2 9.55808 4.24916 17.898 24
605 2 6.71389 4.51339 19.8202 21
79 1 7.39326 3.80675 14.8543 21
80 1 9.36156 1.82226 14.5772 22
603 2 7.16549 1.60656 18.2587 21
602 2 10.0639 1.05936 16.5399 18
259 2 7.35543 1.48193 14.9214 19
260 2 9.20978 3.75293 14.6346 21
421 1 6.29799 1.10465 16.5018 22
422 1 10.3053 4.5945 16.0316 22
423 1 7.58294 3.70845 18.2739 21
424 1 9.12593 0.983662 18.3656 22
601 2 6.44869 4.1337 16.8018 21
606 2 10.2618 2.01203 19.6296 21
77 1 6.35897 1.16223 13.3036 22
425 1 6.41892 0.608361 19.7473 22
426 1 10.514 3.9382 19.4315 21
610 2 10.475 1.29429 22.9061 23
609 2 6.54723 4.102 22.957 20
427 1 7.78232 3.48818 21.333 21
428 1 9.73237 1.43201 21.2874 21
429 1 6.61544 1.07179 22.7559 22
430 1 9.82309 4.91204 22.9944 22
431 1 7.27856 3.47453 24.8279 21
432 1 9.55652 1.79529 24.5825 23
611 2 7.64319 1.36601 24.8945 22
612 2 9.38786 3.8877 24.5224 22
607 2 7.56529 1.32828 21.2284 21
608 2 9.68232 4.08128 21.2309 20
613 2 6.63878 4.49611 26.2584 21
434 1 10.0168 4.88025 26.1876 23
617 2 7.00506 4.53464 29.7973 21
619 2 7.51709 1.54897 30.9839 20
435 1 7.52544 3.8087 27.9959 21
436 1 9.42328 2.24408 27.992 23
437 1 6.4866 1.12941 29.316 19
438 1 9.89767 4.75099 29.6468 23
439 1 7.33703 3.55038 31.4165 21
440 1 9.57658 1.49995 31.0773 20
620 2 9.37335 3.58191 31.2889 19
618 2 10.1753 1.04972 29.3876 21
615 2 7.37904 2.03825 27.8859 21
616 2 9.56259 4.13481 27.8143 22
241 2 6.70488 4.66078 32.9766 20
614 2 10.3705 1.26586 26.6208 20
62 1 9.73101 4.64958 32.8958 19
242 2 10.086 0.654886 32.7118 20
433 1 6.64648 0.948541 26.3582 22
265 2 6.55863 10.2273 3.00722 23
268 2 9.46195 9.31051 5.08274 23
83 1 7.57476 9.53406 1.64818 22
84 1 9.50137 7.41705 1.6627 22
85 1 6.38259 6.80953 3.41714 21
86 1 10.151 9.87232 3.60116 21
87 1 7.4251 9.49851 5.14842 22
88 1 9.23949 7.15961 4.89573 21
267 2 7.17861 7.54864 5.0991 21
266 2 10.6478 6.88788 3.21823 20
263 2 7.4669 7.07766 1.86412 23
264 2 9.69081 9.88271 1.70203 20
82 1 10.3934 10.6999 0.12336 22
269 2 6.67549 9.99794 6.81832 22
261 2 6.71362 9.86104 -0.0236245 21
270 2 10.28 6.70566 6.50298 21
89 1 6.43355 6.79088 6.75687 22
90 1 10.3935 10.0084 6.77456 23
262 2 10.4932 6.46616 0.267245 21
276 2 9.61848 9.4972 11.4781 20
274 2 9.64619 6.70022 9.82437 21
91 1 7.31729 9.10621 8.42697 24
92 1 9.19817 7.481 7.9989 22
93 1 6.97951 6.77345 10.1978 20
94 1 10.3325 10.0522 9.84956 22
95 1 7.51013 9.56163 12.0476 20
96 1 9.21589 7.14276 11.8976 22
273 2 6.51982 9.75126 10.1504 23
275 2 7.48668 7.6684 12.222 19
271 2 7.52592 7.34093 8.03231 19
272 2 9.32022 9.51068 8.27357 21
98 1 10.1795 10.2029 13.2778 21
621 2 6.38077 10.0739 16.9059 23
624 2 9.68252 9.12223 18.1239 22
99 1 7.20512 9.88458 14.8434 20
100 1 9.34655 7.25403 14.8933 22
622 2 10.1675 6.54957 16.332 20
623 2 7.67278 7.2424 18.1591 21
279 2 7.38304 7.06184 15.2466 22
280 2 9.02927 9.35921 14.383 21
441 1 6.54873 6.28255 16.9039 22
442 1 10.3325 10.1684 16.5435 21
443 1 7.70435 9.19028 17.9642 23
444 1 9.64955 7.09667 18.3033 21
446 1 10.2148 10.2408 19.4726 21
277 2 6.26618 10.4277 13.3447 22
625 2 7.14179 10.352 19.585 21
97 1 6.42372 6.70308 13.6468 22
278 2 10.3929 6.53027 13.2982 22
632 2 8.89003 9.34015 24.9282 22
631 2 7.78704 6.95338 24.5496 22
447 1 7.6729 9.28739 21.3225 21
448 1 9.54748 7.31111 21.0047 20
449 1 6.86375 6.2348 22.9529 22
450 1 10.1075 9.86464 23.1526 20
451 1 7.08624 9.4667 24.4145 21
452 1 9.69299 7.42333 24.721 21
630 2 10.2342 7.13101 22.9262 21
629 2 6.5731 10.3685 22.6476 21
627 2 7.72377 7.28688 21.2001 22
628 2 9.56254 9.63528 21.2292 20
626 2 10.5588 6.26929 19.7808 23
445 1 6.78926 6.46578 19.6763 21
453 1 6.82744 6.59805 26.4934 23
454 1 10.2408 10.0811 26.3604 22
637 2 6.86265 10.541 29.4921 22
640 2 9.53171 9.85594 31.5258 23
455 1 7.57598 9.42173 27.8574 21
456 1 9.50938 7.46317 28.1903 20
457 1 7.1985 6.65651 29.5742 22
458 1 10.2822 10.2121 29.7625 22
459 1 7.69398 9.53189 31.1357 19
460 1 9.80795 7.54625 31.6633 19
638 2 10.6639 6.86289 29.6193 22
639 2 7.69625 7.47367 31.2528 23
635 2 7.57063 7.4715 27.9518 23
636 2 9.6032 9.67464 28.1035 19
633 2 6.62027 10.2722 26.3647 24
81 1 6.6648 6.64972 33.0539 25
634 2 10.2864 6.9409 26.4228 22
288 2 9.59307 14.723 4.90851 22
287 2 7.05176 12.7724 5.23013 21
103 1 7.46337 14.895 1.56282 21
104 1 9.1632 12.6989 1.8848 21
105 1 6.37067 11.9735 3.44932 21
106 1 10.2572 15.4302 3.34262 21
107 1 7.33012 14.9945 4.96321 23
108 1 8.79615 12.754 4.98892 23
285 2 6.70021 15.4253 3.34175 24
286 2 9.96002 11.886 3.57242 23
283 2 7.2161 12.7572 1.73951 23
284 2 9.34078 15.1826 1.44792 24
281 2 6.45022 15.3628 0.115013 20
282 2 10.3242 12.7118 0.462012 22
110 1 10.4475 15.3801 6.62606 21
290 2 10.2589 12.1654 6.36537 19
102 1 10.4038 16.0507 0.0742391 21
296 2 9.44173 15.1317 11.2035 19
295 2 7.54541 12.7291 11.3031 20
111 1 7.79103 14.9675 8.48214 22
112 1 9.29864 12.4308 8.00241 20
113 1 6.70886 11.8599 9.8429 20
114 1 10.4292 15.9837 9.73983 21
115 1 7.50815 14.7135 11.0537 20
116 1 9.6439 12.845 11.5716 22
293 2 6.59625 16.0473 9.53977 23
294 2 10.3351 12.2844 9.71732 21
291 2 7.59112 12.99 8.50847 22
292 2 9.657 15.2358 8.18468 19
109 1 6.67727 11.8896 6.91331 20
289 2 7.14155 15.7207 6.86419 20
297 2 7.15801 15.4118 12.8934 22
118 1 10.0927 15.7605 12.9781 21
641 2 7.03755 16.0038 16.4881 20
644 2 9.7748 15.3016 18.1508 22
119 1 7.55384 15.2821 14.9918 21
120 1 9.62183 13.0261 14.9984 21
642 2 10.4727 12.194 16.4794 23
643 2 7.74652 12.828 18.0057 23
299 2 7.45289 13.3904 15.0194 21
300 2 9.73395 14.9524 14.7458 22
461 1 6.58853 11.8661 16.5843 19
462 1 10.3397 15.7125 16.4124 23
463 1 7.66057 14.8958 18.0522 22
464 1 9.76049 13.1179 18.0094 23
645 2 6.80216 15.8292 19.3078 20
465 1 7.09224 12.2129 19.6148 22
298 2 10.0474 12.2128 13.3444 20
646 2 10.0985 12.4689 19.7321 23
117 1 6.59982 12.2787 13.0012 22
650 2 10.0037 12.0115 23.5144 21
649 2 7.14134 15.9686 22.7232 20
467 1 7.41748 15.1042 20.8914 21
468 1 9.38353 12.9866 21.596 22
469 1 6.82452 12.4363 22.8393 21
470 1 10.0371 15.9585 22.9564 22
471 1 7.36264 15.0855 24.3574 22
472 1 9.24905 12.889 25.0624 20
652 2 9.10894 15.2674 24.5438 21
651 2 7.0143 13.0912 24.6176 23
647 2 6.9975 13.332 21.2286 20
648 2 9.35206 15.0679 21.4255 23
474 1 10.2208 15.8702 26.355 20
653 2 6.78209 15.8496 26.2541 22
466 1 10.0474 16.1956 19.9421 23
657 2 6.71292 16.0987 29.8971 20
660 2 9.8827 15.0515 31.2069 22
475 1 7.24566 15.2036 27.9864 21
476 1 9.50915 13.0989 28.1485 20
477 1 7.08183 12.2524 29.8065 23
478 1 10.2378 16.034 29.5106 21
479 1 7.55185 15.1572 31.3956 21
480 1 9.74934 13.2171 31.6702 20
659 2 7.8578 12.8592 31.4714 23
658 2 10.1741 12.5404 29.9371 21
655 2 7.3441 13.2642 28.1876 21
656 2 9.5592 15.1011 27.9117 19
654 2 10.4719 12.5692 26.4219 22
101 1 6.74526 12.5703 32.9717 22
473 1 6.82758 12.297 26.413 20
965 2 6.9181 21.7209 3.07857 19
968 2 9.30748 20.9167 4.9165 20
783 1 7.69037 20.6501 1.57739 21
784 1 9.43938 18.3852 1.5366 19
785 1 6.81769 17.7095 3.20391 20
786 1 10.2981 21.1764 3.24025 23
787 1 7.37913 21.0863 4.85165 21
788 1 9.33787 18.4904 5.15543 22
967 2 7.40066 18.9566 4.8416 22
966 2 9.84316 17.6128 3.46843 22
963 2 7.53626 18.7411 1.70057 23
964 2 9.78212 20.672 1.44786 23
969 2 6.63035 21.8018 6.55842 22
790 1 10.2233 21.2952 6.58719 19
781 1 6.61412 17.5016 0.15612 19
976 2 9.15106 21.0318 11.568 24
973 2 6.68828 21.5373 9.70985 20
791 1 7.44018 20.6933 8.03466 22
792 1 9.62415 18.9188 8.34355 21
793 1 6.68535 17.8884 9.81364 22
794 1 10.2107 21.6578 10.0914 22
795 1 7.2124 20.5502 11.8683 20
796 1 9.446 18.721 11.3855 23
975 2 7.29838 18.6551 11.3039 20
974 2 10.0494 17.7663 9.87152 21
971 2 7.52224 18.8097 8.11389 22
972 2 9.55046 20.8182 8.28484 20
797 1 6.75894 17.7188 12.9265 22
978 2 9.97623 17.7882 12.9933 20
970 2 10.5765 18.3649 6.75945 22
789 1 6.74887 17.6605 6.6691 19
1321 2 6.71291 21.2589 16.6845 21
1324 2 9.56644 20.9013 18.0715 21
799 1 7.5463 20.7537 14.9805 22
800 1 9.35345 18.3601 14.7771 19
1322 2 10.0392 17.7928 16.4369 21
1323 2 7.34761 19.0141 18.348 21
979 2 7.40283 19.0386 14.1035 21
980 2 9.92913 20.297 14.8555 21
1141 1 7.01154 17.8649 16.8138 22
1142 1 10.4083 21.4372 16.4099 22
1143 1 7.4186 20.9044 18.3754 19
1144 1 9.4775 18.7964 18.2561 20
798 1 10.0559 21.1701 13.1903 23
977 2 6.83055 21.843 13.6466 20
1332 2 9.15769 20.8747 24.7395 23
1331 2 7.59123 18.8641 24.7912 22
1147 1 7.79262 20.9013 21.7082 21
1148 1 9.69835 19.035 21.419 24
1149 1 7.23945 17.8116 23.1794 22
1150 1 10.3925 21.8837 23.4859 21
1151 1 7.25583 20.6169 24.7916 21
1152 1 9.83466 19.0009 24.7455 23
1329 2 6.83366 21.6712 23.1969 21
1330 2 10.545 18.3708 22.9134 24
1327 2 7.73893 18.6158 21.4464 23
1328 2 9.65923 21.3632 21.7746 23
1145 1 6.76028 18.2316 19.8687 23
1146 1 10.0957 21.9615 19.6698 23
1326 2 10.327 18.1138 19.8781 20
1334 2 10.031 17.8385 26.3085 22
1325 2 6.92239 21.7034 19.9421 21
1153 1 6.69763 17.9242 26.4657 20
1337 2 6.42127 21.3183 29.6614 19
1338 2 10.2264 17.9182 29.1953 20
1155 1 7.39996 20.6779 27.8558 20
1156 1 9.44155 18.6545 27.8162 21
1157 1 6.8264 18.1669 29.8405 19
1158 1 10.4257 21.6873 29.4166 18
1159 1 7.44108 20.6845 31.3658 22
1160 1 9.99959 18.7972 31.0374 23
1339 2 7.73788 18.3967 31.3906 22
1340 2 9.43199 20.8953 30.9912 22
1335 2 7.58482 18.7 28.0656 20
1336 2 9.33434 20.9614 27.8943 21
961 2 6.42662 21.6933 32.922 20
1333 2 6.64834 21.4995 26.3492 20
1154 1 10.2813 21.4241 26.3335 20
782 1 10.3373 21.3831 32.6215 19
962 2 10.0424 17.8554 32.7968 21
988 2 9.40215 25.9155 4.67949 21
987 2 6.90775 24.2448 4.73016 19
803 1 7.41608 26.3763 1.21567 22
804 1 9.57173 24.5424 1.51353 22
805 1 6.35305 23.7323 3.06831 22
806 1 9.96865 27.0866 3.40255 22
807 1 7.32694 26.2402 4.82615 21
808 1 9.21521 23.8786 4.5259 21
986 2 10.3153 23.5369 3.16145 22
985 2 6.4526 26.9505 3.08302 21
983 2 7.70715 24.4718 1.72953 22
984 2 9.38886 26.724 1.6487 20
982 2 10.1635 23.7794 0.00694384 21
801 1 6.58136 23.6116 0.0892529 18
996 2 9.3556 26.3779 11.4873 21
995 2 7.21719 24.4078 11.2603 21
811 1 7.35804 26.4707 8.66129 21
812 1 9.57087 24.5588 8.3639 22
813 1 6.27863 23.6165 9.89852 21
814 1 9.9566 27.1302 9.82935 23
815 1 7.46994 26.1766 12.067 21
816 1 9.26576 24.2221 11.437 18
993 2 6.50102 27.0013 10.3458 19
994 2 10.3035 23.6438 10.0014 20
991 2 7.15839 24.3884 8.44309 20
992 2 9.13988 26.4968 8.06054 21
809 1 6.95741 23.8102 6.61322 21
990 2 9.4392 23.5079 6.60062 20
810 1 9.48051 27.1524 6.2421 19
989 2 6.47634 26.9346 6.97841 21
1344 2 9.57096 26.6527 18.1167 21
1343 2 7.49943 24.0348 17.8754 21
819 1 7.2094 26.497 14.9865 20
820 1 9.5294 24.3636 14.7283 22
1341 2 6.5263 27.501 16.3574 20
1342 2 10.238 23.4071 16.1886 22
999 2 7.27819 24.3902 15.076 20
1000 2 9.14484 26.6905 14.9638 21
1161 1 6.51901 23.3123 16.2463 19
1162 1 10.1796 27.3871 16.4841 20
1163 1 7.74138 27.3801 18.0705 21
1164 1 9.36797 24.4827 18.0081 22
1345 2 6.63418 26.6881 19.5849 21
1166 1 10.6151 26.4298 19.8281 21
998 2 9.83328 23.5301 13.1647 21
818 1 10.0177 27.5373 13.3017 21
1165 1 6.63605 24.0475 19.7894 21
997 2 6.49639 27.2205 13.3102 22
817 1 6.92547 23.5709 13.11 22
1352 2 9.26431 26.2207 24.3342 22
1351 2 7.06065 24.4798 25.0249 23
1167 1 7.65251 26.2813 21.4857 19
1168 1 9.20106 23.6718 21.6167 20
1169 1 6.87951 23.6899 23.31 23
1170 1 10.3244 27.1181 22.8753 21
1171 1 7.19194 26.4291 24.8821 23
1172 1 9.40678 24.421 24.9683 19
1349 2 6.36381 26.7002 22.9513 22
1350 2 10.1663 23.7006 23.4776 20
1347 2 7.46152 24.2648 21.4751 21
1348 2 9.71383 26.2913 21.2964 21
1346 2 10.0501 23.9037 19.7492 22
1174 1 10.2959 26.9179 26.1601 22
1357 2 6.60051 27.3875 29.5989 21
1360 2 9.40636 26.2578 31.113 21
1175 1 7.50519 26.3556 28.1895 23
1176 1 9.10662 24.3125 27.8981 21
1177 1 6.34709 23.3044 29.3809 21
1178 1 10.293 26.7932 29.4857 22
1179 1 7.38602 26.2287 30.9294 21
1180 1 9.28475 24.0235 31.1941 20
1359 2 7.24254 24.0992 31.2062 22
1358 2 10.2964 23.6228 29.3421 21
1355 2 7.19794 24.4795 27.8643 21
1356 2 9.47837 26.1729 27.6171 21
981 2 6.79411 27.2206 32.4748 21
1173 1 6.47731 23.358 26.514 21
1353 2 6.56704 27.0978 26.6207 22
802 1 10.204 27.0824 32.7756 21
1354 2 10.2169 23.4798 26.6508 21
1008 2 9.10558 31.7758 5.01858 19
1006 2 10.0703 29.0404 3.1766 22
823 1 7.54023 31.7288 1.90354 23
824 1 9.30483 29.4746 1.32645 23
825 1 6.50257 29.1475 3.20645 22
826 1 9.79908 32.4139 3.29022 21
827 1 7.02453 31.756 4.80819 20
828 1 9.40796 29.9656 4.74348 19
1007 2 7.4432 29.4964 4.76813 22
1005 2 6.488 32.826 3.23696 23
1003 2 7.39911 29.7037 1.69814 21
1004 2 9.40748 31.6767 1.67235 19
1010 2 9.92972 29.1411 6.64062 20
1009 2 6.83797 32.5334 6.4788 20
821 1 6.49004 29.227 -0.0561565 22
1001 2 6.72643 32.6033 0.139411 21
1013 2 6.29119 32.8108 9.53844 21
1016 2 9.23975 31.9843 11.641 19
831 1 7.21547 32.0947 8.14266 22
832 1 9.13555 29.7285 8.20211 21
833 1 6.53825 29.1553 10.0121 22
834 1 9.93159 32.7337 9.9009 21
835 1 7.25254 32.0794 11.616 22
836 1 9.65672 30.082 11.2702 21
1014 2 10.3013 28.9318 9.84754 22
1015 2 7.58595 29.7941 11.4326 21