ITEM: TIMESTEP
8000
ITEM: NUMBER OF ATOMS
2000
ITEM: BOX BOUNDS pp pp pp
-30.0 30.0
-30.0 30.0
-30.0 30.0
ITEM: ATOMS id type x y z Coordination
1 1 -12.0203 3.88807 -15.8321 5
2 1 -6.77519 -13.2063 -6.96451 17
3 1 2.36054 11.3617 14.9519 12
4 1 8.29585 -11.9886 6.55613 12
5 1 -9.1059 8.05877 -2.261 21
6 1 13.1946 -8.64105 -9.86133 11
7 1 -11.5273 1.59022 -9.38232 16
8 1 -2.29826 -8.83929 13.0127 11
9 1 -7.00363 -1.55492 -8.99423 19
10 1 -13.2071 -12.9258 6.1457 15
11 1 11.4965 5.6251 -9.66452 14
12 1 -6.23886 -12.221 1.06059 15
13 1 -14.9675 -11.116 5.06498 12
14 1 -4.3294 1.42348 18.5484 10
15 1 2.48768 3.55162 9.54013 15
16 1 -4.84458 9.39993 -10.7111 19
17 1 2.48613 -1.26841 12.757 20
18 1 -8.7792 -0.894164 -15.2172 17
19 1 -15.6652 -2.34763 9.11807 14
20 1 11.2428 2.9167 7.19197 17
21 1 0.754517 10.5673 -11.3478 19
22 1 1.76855 10.7758 -17.3318 9
23 1 15.9259 3.09139 12.3318 13
24 1 -12.4807 -0.59377 -11.0436 19
25 1 -11.3323 8.0675 10.3073 15
26 1 6.73958 -14.679 5.12796 12
27 1 1.63984 -12.5607 -10.776 10
28 1 4.0445 -12.0607 0.45327 17
29 1 -9.6434 -14.3671 -4.58671 12
30 1 -14.5888 -6.58349 6.397 13
31 1 0.0676815 -7.54097 -7.1962 23
32 1 10.0636 -9.02789 -10.3651 16
33 1 -1.03855 6.6493 -18.4382 12
34 1 -0.468787 4.20886 14.0843 21
35 1 0.0163817 -12.4099 10.3118 14
36 1 7.39338 -5.42924 11.3828 16
37 1 -15.1874 -2.89018 -0.293731 19
38 1 -17.6635 0.173356 10.6399 10
39 1 -9.43883 -1.19752 -0.297099 19
40 1 -2.61076 14.2903 -2.293 21
41 1 -3.71697 -12.9083 -12.0988 11
42 1 3.70827 1.33985 -13.8091 24
43 1 5.66783 -4.50382 -9.66636 17
44 1 -5.6205 -4.84775 14.8638 12
45 1 -12.1065 7.41408 -2.14449 18
46 1 3.20842 11.6191 -13.1895 16
47 1 -3.83366 8.63231 10.0505 20
48 1 -9.15522 9.6485 -5.54993 16
49 1 1.86176 15.2168 -0.215187 19
50 1 -1.15837 -12.1027 4.22236 21
51 1 6.11691 -4.57266 -5.39224 20
52 1 2.76554 -5.33553 -13.9205 16
53 1 -10.2737 8.48089 13.1689 13
54 1 -13.4407 -5.81124 -9.86192 12
55 1 -3.33025 9.18396 -4.5687 21
56 1 -7.99619 -10.9169 9.68705 20
57 1 -3.04195 9.09862 13.4425 19
58 1 -9.7618 4.68445 -9.15416 17
59 1 -7.73436 8.57425 11.6486 15
60 1 -4.96285 -16.6034 9.84864 11
61 1 5.21068 3.75914 7.53291 20
62 1 3.9278 -15.3488 -2.99704 16
63 1 6.56879 10.5001 16.7606 9
64 1 -15.3429 -0.915818 -12.2891 10
65 1 -11.635 7.15288 -9.22237 9
66 1 6.55837 8.25704 10.4149 20
67 1 14.012 -5.58979 -9.64846 14
68 1 8.48748 -12.0534 3.54617 11
69 1 -18.2743 -2.35395 4.64523 13
70 1 3.44632 12.6679 6.38636 19
71 1 4.51638 -4.99648 14.2672 11
72 1 -8.50901 -9.57169 6.60491 16
73 1 -12.4183 -1.17887 -1.98258 19
74 1 10.7444 0.714286 9.29164 18
75 1 0.659419 12.9012 10.0293 19
76 1 5.06618 -1.99162 7.87744 23
77 1 -2.27329 -6.32187 -5.79549 22
78 1 -13.7056 6.53093 9.64442 14
79 1 -7.96017 11.7704 -2.66854 18
80 1 -4.58091 6.91287 -8.54765 20
81 1 7.73223 -2.04779 -4.14211 22
82 1 8.00386 12.1208 -10.4642 13
83 1 6.37449 -4.05758 4.96971 20
84 1 6.07616 -10.5337 8.38317 16
85 1 -2.98731 12.8673 -5.67634 18
86 1 -7.19476 14.1478 7.18627 12
87 1 -10.9297 -2.49673 16.3576 12
88 1 -5.29958 7.14343 7.2251 21
89 1 -7.93823 -4.58731 16.691 8
90 1 14.4521 -6.19187 -2.86341 8
91 1 -12.3237 3.90537 3.54281 18
92 1 -10.1032 -14.602 3.82803 15
93 1 11.6397 -9.76339 -6.84361 15
94 1 1.92381 -1.8069 -13.8784 21
95 1 -5.56865 -3.21195 -14.7911 17
96 1 -1.43362 10.2805 1.2516 18
97 1 -7.27385 7.11154 -9.93648 17
98 1 3.34649 5.88566 18.6533 11
99 1 -1.7112 16.45 -4.81671 17
100 1 -11.3591 11.0114 1.3559 13
101 1 2.39532 9.20771 2.74824 19
102 1 -7.51343 -6.58386 11.5635 17
103 1 11.1563 -1.8571 10.619 18
104 1 3.48147 -5.24685 -7.28731 17
105 1 5.94623 -9.72447 -9.17701 20
106 1 -3.4099 4.92608 9.80937 21
107 1 4.53726 -2.05567 15.287 14
108 1 -13.4108 -8.35353 -0.199471 15
109 1 -11.0196 -8.41813 -4.74916 18
110 1 10.1757 -9.46602 4.68981 9
111 1 -7.39758 6.93107 2.53313 21
112 1 2.89926 6.9824 -12.4931 18
113 1 3.81858 17.6274 0.599511 12
114 1 -10.0496 -12.4753 11.6336 13
115 1 -9.64056 -14.3046 9.78847 18
116 1 3.82204 -8.16505 -11.9436 15
117 1 4.42905 6.08168 -6.99215 20
118 1 11.6213 -10.8932 -0.525483 7
119 1 -4.58449 -15.1365 6.96371 19
120 1 -10.1076 -7.21657 -1.07642 25
121 1 15.9999 8.63976 10.0517 12
122 1 12.7515 -2.23026 -8.25181 20
123 1 -16.5969 -4.53921 2.13531 18
124 1 9.54531 11.4075 7.32811 18
125 1 14.4384 9.36905 3.11825 12
126 1 -9.20566 5.43985 17.5377 11
127 1 1.50969 7.43882 10.7933 19
128 1 -3.03038 9.96204 -7.50968 19
129 1 -2.64856 -9.52155 -7.68671 18
130 1 7.85373 -11.7301 -10.1966 11
131 1 -0.843873 13.6036 -10.6113 17
132 1 4.38244 -6.26153 11.4939 14
133 1 -0.721543 -1.08607 -16.0775 16
134 1 -1.30216 7.67396 -7.0658 21
135 1 9.22219 0.878092 -4.62557 24
136 1 -12.1268 8.52178 -4.59682 18
137 1 -7.58752 15.1427 -3.24664 11
138 1 5.34963 3.50998 -9.06359 20
139 1 6.01224 -10.8306 2.6627 18
140 1 -8.03435 6.60235 -6.56336 20
141 1 -7.58472 12.4565 9.77923 11
142 1 11.2609 8.42015 -7.92865 15
143 1 1.03356 11.6693 -2.36221 20
144 1 -1.41717 16.0122 0.01896 15
145 1 8.34404 9.40461 -0.597342 19
146 1 -0.488781 10.3543 -5.6955 23
147 1 1.38435 15.4494 -12.034 15
148 1 0.958176 9.45764 -14.294 18
149 1 -12.7471 -12.8649 2.86298 13
150 1 -13.9241 10.3547 -2.7522 11
151 1 -7.96447 -3.83013 -10.8121 20
152 1 3.26547 -8.05275 -14.6204 9
153 1 9.56147 13.8913 9.22334 18
154 1 -2.11738 18.1243 9.17721 5
155 1 -13.2214 -0.195193 -5.22674 17
156 1 -8.27668 12.137 3.02705 14
157 1 13.8786 2.78227 -1.45136 12
158 1 -8.43864 5.20434 -13.7092 19
159 1 3.8822 0.823664 15.9831 15
160 1 3.77568 17.1672 4.22226 10
161 1 -1.13117 10.3623 15.4251 14
162 1 0.116061 -6.73308 -15.7348 10
163 1 -2.47201 11.977 11.0053 16
164 1 -0.821795 13.3841 -7.65342 17
165 1 1.5167 -6.87606 12.8261 11
166 1 -14.5175 -3.9817 4.37605 17
167 1 -1.7264 -10.6293 -13.1719 13
168 1 -7.93863 11.6535 -7.94188 12
169 1 -4.6945 -7.12238 6.27259 18
170 1 1.69999 -16.1861 -5.00984 10
171 1 -4.35478 11.093 -16.0487 11
172 1 -16.2859 3.12329 6.54057 13
173 1 6.48346 12.8233 -1.96366 18
174 1 -7.16983 1.4771 13.7783 19
175 1 -1.7643 -9.01135 10.117 20
176 1 -8.91937 4.79423 -1.10081 19
177 1 1.41136 17.0063 2.71057 14
178 1 4.00473 6.0961 9.4628 22
179 1 14.7977 5.4656 14.6219 9
180 1 -5.31797 15.2045 4.54403 12
181 1 10.0167 -3.38132 -8.20365 19
182 1 -5.58257 10.5614 12.0228 12
183 1 -4.88003 1.3856 -8.46842 20
184 1 12.7538 -7.63796 -1.00043 11
185 1 -8.24887 -4.84013 6.50138 24
186 1 -17.8995 -2.37449 1.22198 11
187 1 -9.83183 -7.68944 5.36358 19
188 1 6.56167 7.82569 13.8407 18
189 1 -15.4482 -0.338525 -1.99945 12
190 1 -3.61491 -19.499 -1.14492 10
191 1 2.95251 -7.23068 -2.08146 21
192 1 -4.68346 9.94436 2.85822 17
193 1 3.95734 13.9162 13.6347 11
194 1 -10.4788 1.72173 -5.00675 17
195 1 -6.32886 11.898 -10.8279 12
196 1 -15.8856 1.13062 -5.70459 10
197 1 -9.99118 -2.40463 8.65345 21
198 1 -1.98777 -9.13836 6.61009 20
199 1 -0.684431 -11.6983 7.05895 23
200 1 -12.7052 10.1732 5.05539 13
201 1 13.3919 6.55328 4.00345 16
202 1 4.99964 3.69557 -5.78371 23
203 1 -7.31694 -6.71996 -13.1484 16
204 1 3.92188 3.43873 14.3258 21
205 1 4.03466 -15.2886 7.11998 9
206 1 -5.06411 6.2572 -12.254 19
207 1 1.35362 -10.4614 -12.5618 14
208 1 9.885 1.59358 -12.8099 11
209 1 1.02758 4.12608 -17.4065 13
210 1 -8.49554 -6.97001 -5.21697 19
211 1 -3.77107 16.4936 -6.96004 16
212 1 -12.9962 -14.5814 9.70588 7
213 1 6.7427 16.2236 -1.46841 14
214 1 -9.85449 3.10612 15.395 16
215 1 -4.00611 12.4966 -8.56927 17
216 1 3.67076 -0.255317 9.62312 22
217 1 -6.27819 -7.14006 -9.89621 22
218 1 -5.23882 17.0544 -9.52373 9
219 1 0.61221 2.30258 -12.4724 18
220 1 -7.16883 -12.2937 11.974 16
221 1 -10.2125 4.93003 9.4039 20
222 1 -8.62231 6.11187 11.785 18
223 1 1.06185 -10.307 -6.32984 19
224 1 -3.57973 -14.9763 0.374707 18
225 1 8.27584 -10.241 -2.02413 13
226 1 11.9825 7.47652 14.8788 14
227 1 4.35988 14.4997 -7.7861 21
228 1 -1.46866 10.7451 -2.16377 18
229 1 -12.123 0.156435 1.06605 14
230 1 -10.9853 10.3772 -1.65356 18
231 1 5.51076 3.1068 10.8261 22
232 1 4.02316 -16.7385 3.26241 8
233 1 9.60497 0.335891 -0.250358 21
234 1 4.19768 6.25132 6.13724 20
235 1 -9.65656 3.57627 6.08776 23
236 1 -14.798 -10.2218 -5.99239 12
237 1 4.49865 3.72126 -12.6564 16
238 1 1.96794 -2.8433 9.2802 17
239 1 9.12635 9.79009 -12.8704 6
240 1 2.99216 -7.87839 -5.41054 18
241 1 -4.48615 1.63063 -11.9878 19
242 1 -1.52349 -15.0507 5.72403 16
243 1 6.44537 0.564512 -6.18866 23
244 1 -9.88179 -1.23899 3.50748 19
245 1 3.10915 -17.9197 -1.84346 8
246 1 -9.47702 -6.33983 -10.2384 19
247 1 2.53537 14.239 2.56709 20
248 1 -0.572584 -1.09978 -12.5873 20
249 1 -0.770483 1.61932 16.5868 16
250 1 15.6834 3.80363 2.21397 9
251 1 10.0804 -4.94679 -10.909 16
252 1 -7.44407 -1.83522 -12.8162 18
253 1 -11.2215 -3.40038 -10.1602 17
254 1 -7.61577 -15.3985 11.2646 12
255 1 8.16959 -1.26063 9.17336 23
256 1 1.90447 -6.27867 9.50299 20
257 1 -9.28096 -8.93359 -11.1195 16
258 1 1.77431 7.32581 -15.7181 19
259 1 5.69322 11.8054 0.309525 20
260 1 -10.0546 -7.83575 2.77569 17
261 1 -5.15576 14.1651 -1.61494 19
262 1 -8.74777 -2.88525 11.454 20
263 1 -14.8158 -8.99102 -8.91238 10
264 1 -9.23618 -7.75868 -8.01955 17
265 1 -4.05895 8.64046 -17.4458 11
266 1 -7.04865 -8.48293 -1.75951 22
267 1 -3.79127 -9.43854 4.61958 20
268 1 7.37961 -4.09106 -15.765 11
269 1 10.7936 2.54716 -8.70012 18
270 1 13.5376 2.53941 4.56506 15
271 1 -11.437 -4.1856 11.0703 21
272 1 -4.72233 -9.7617 1.04319 20
273 1 4.73205 3.84882 18.394 13
274 1 -7.40257 -14.2799 5.20413 19
275 1 -3.27085 -12.1292 1.48101 21
276 1 -1.59095 19.0606 -3.44199 12
277 1 6.83336 3.84313 -16.8929 10
278 1 -8.15307 -4.60378 -15.1147 14
279 1 -13.6712 -8.46221 11.2638 9
280 1 5.19677 6.03558 16.2842 23
281 1 1.3177 -10.1819 0.683608 18
282 1 -7.14267 -12.3243 -12.0849 8
283 1 -8.87035 9.43201 -10.041 11
284 1 7.23778 6.43581 4.54774 21
285 1 -3.80325 3.97745 -10.0169 18
286 1 -1.19218 11.3726 -14.0719 14
287 1 6.6477 -11.7305 -4.49912 18
288 1 -5.31486 14.0124 -5.14034 17
289 1 2.23362 14.0359 8.49482 17
290 1 9.5319 0.080399 5.99006 20
291 1 -11.7164 0.668237 5.06258 18
292 1 -5.11823 -7.34434 12.8704 20
293 1 -6.4177 11.4773 5.14726 12
294 1 0.725049 -3.98171 -8.73231 19
295 1 11.6385 10.5322 -2.73466 13
296 1 0.595529 -10.1002 -2.76713 19
297 1 -3.58601 -1.72537 13.864 16
298 1 -18.3126 -7.50764 1.59521 6
299 1 1.57178 -12.6928 -1.39663 19
300 1 -6.62646 8.54791 14.4418 15
301 1 -11.5657 5.49907 14.3983 13
302 1 -18.9471 -3.45854 7.63988 7
303 1 -13.3503 -7.14116 8.73007 13
304 1 13.033 -3.70936 -1.09027 14
305 1 -14.2768 -10.4534 8.20018 13
306 1 7.1772 -2.22701 -7.51676 23
307 1 6.8467 -14.4862 -4.37266 11
308 1 1.40413 19.2003 -4.07582 11
309 1 -6.3933 14.0887 -7.66733 14
310 1 9.40929 8.1613 9.07383 20
311 1 -10.7362 -4.86941 4.30473 22
312 1 6.05124 -8.5525 -3.24016 18
313 1 -3.67132 12.6316 0.899448 17
314 1 -6.98559 5.14285 8.10331 17
315 1 3.84928 -9.65249 6.37735 22
316 1 12.7826 -4.54044 6.90866 15
317 1 -0.202615 4.48144 11.2689 20
318 1 -7.92076 -3.42683 -3.62258 21
319 1 2.20372 3.62294 16.394 18
320 1 -4.33873 9.53055 6.05947 16
321 1 9.24653 7.42205 17.0465 10
322 1 -4.25475 14.5488 -11.2621 14
323 1 -0.426467 -3.41653 -14.6788 17
324 1 7.81835 -9.46127 -12.1061 10
325 1 -9.23401 2.55506 11.875 17
326 1 -16.155 0.34962 1.25374 11
327 1 -3.40863 -6.46476 -8.22266 21
328 1 -6.94487 7.5822 -0.287819 20
329 1 7.19455 -4.30304 8.23452 19
330 1 -13.0157 -12.2915 -0.359908 13
331 1 9.38357 -9.35449 9.27147 11
332 1 -10.4968 -7.15032 12.9559 13
333 1 -13.4298 8.65926 2.97574 13
334 1 -2.44638 -3.74415 9.44345 21
335 1 4.16133 -12.2371 -8.90906 16
336 1 -5.03594 -3.86945 -8.98566 18
337 1 8.9992 1.6503 -16.3616 9
338 1 4.54125 9.69075 4.79628 20
339 1 -9.86966 -0.866366 -3.47274 16
340 1 5.61816 -5.72682 -13.1977 17
341 1 11.0044 -0.726291 -10.2058 13
342 1 -5.92745 -15.1356 -4.00493 16
343 1 -12.7648 -11.604 -4.83964 12
344 1 -8.13642 -9.48457 1.33612 20
345 1 11.6463 4.22157 16.1634 8
346 1 10.2705 2.17398 -2.17638 20
347 1 -10.4644 2.86547 -12.1126 18
348 1 3.58303 17.4534 -2.33968 16
349 1 -15.6094 -5.16358 -3.66143 13
350 1 -10.9888 7.94991 7.41044 17
351 1 -8.20921 9.82561 1.75592 20
352 1 -1.47106 7.33748 9.33269 19
353 1 11.6926 4.19327 11.6498 16
354 1 11.3864 -1.77369 -5.29107 20
355 1 7.63943 -3.21864 14.8289 11
356 1 10.9775 3.181 -5.45265 21
357 1 -8.43269 -14.8501 -2.04338 14
358 1 0.234941 -7.45457 -4.09341 22
359 1 0.880125 9.69932 5.2171 21
360 1 -14.0989 0.163276 -8.64843 14
361 1 5.12077 -5.62396 -1.78586 17
362 1 11.0259 -1.8378 7.48977 20
363 1 -11.7737 -6.49295 -7.07978 12
364 1 -6.96627 -7.28259 3.89372 20
365 1 -12.9609 -4.528 14.1424 13
366 1 -4.81039 9.18925 -0.958208 19
367 1 -8.96606 -10.1332 -3.12922 18
368 1 9.5612 9.8567 15.1823 13
369 1 -10.3863 1.44174 -1.18533 20
370 1 0.70632 10.4147 -8.53032 20
371 1 4.22058 11.9807 9.24161 19
372 1 -10.555 -9.98559 0.120057 20
373 1 -2.28981 -9.54058 -3.84095 18
374 1 -14.039 1.00461 7.25997 14
375 1 -14.9709 7.75941 -2.64834 10
376 1 6.56688 -9.1199 5.4803 18
377 1 -2.42719 -12.1488 -1.63852 15
378 1 12.1897 10.3468 5.48051 16
379 1 5.64458 8.49744 -13.2625 17
380 1 -13.0491 1.94785 -12.9864 12
381 1 -2.2475 16.1589 -11.9739 9
382 1 -9.4238 4.02617 -6.82 16
383 1 -3.56585 -12.7826 6.67656 22
384 1 12.8685 4.83426 6.76562 18
385 1 -1.9616 10.9686 -18.7179 6
386 1 -3.77712 -0.947897 9.69602 18
387 1 -14.734 2.82146 -1.01468 9
388 1 -8.4847 2.5369 8.71919 20
389 1 -6.21003 -13.8257 8.77725 22
390 1 8.78749 -9.00596 -7.66144 23
391 1 -15.1277 5.62452 4.14726 11
392 1 -18.0622 -0.345734 7.55824 11
393 1 -14.1458 8.43681 6.96731 13
394 1 -1.40638 -6.60578 8.15466 18
395 1 -7.3358 1.30245 -16.907 11
396 1 4.93497 -12.6621 -2.12283 16
397 1 -3.06891 -9.62384 -10.7324 19
398 1 -5.52972 -4.01487 11.8431 18
399 1 -7.08966 5.37923 -17.3062 11
400 1 4.0622 -8.8616 2.69695 20
401 1 1.946 12.1485 -5.77026 22
402 1 -12.0107 10.829 8.05799 11
403 1 -7.70758 -2.04035 15.0764 19
404 1 -12.0 -8.10577 -10.6385 14
405 1 -11.627 -10.3454 5.8537 17
406 1 10.5838 -7.59322 11.3508 12
407 1 0.682479 2.13761 -8.56774 20
408 1 11.2453 -7.04585 7.76856 14
409 1 13.1576 8.63358 -5.49025 12
410 1 -4.63585 1.61689 11.5398 16
411 1 2.35743 12.0624 0.685151 20
412 1 9.79555 -4.124 5.91102 20
413 1 -5.93016 -16.8934 -1.58773 11
414 1 -6.2685 4.63386 19.695 9
415 1 -4.52654 13.0998 8.69668 14
416 1 -7.68037 -9.95212 -6.32151 19
417 1 10.3499 16.3853 -1.36772 5
418 1 3.32178 9.49155 7.39551 17
419 1 -7.15832 0.507672 9.82278 20
420 1 -7.69485 -5.69089 -2.1848 21
421 1 -12.6938 -1.53124 8.4781 21
422 1 -5.67379 -9.71855 -8.86938 18
423 1 -8.11928 8.41347 7.92041 14
424 1 -3.75063 -12.7951 -4.41337 19
425 1 -4.09176 -7.45163 -11.7657 18
426 1 -5.84581 -11.2013 4.1685 17
427 1 6.44286 1.39603 7.66768 21
428 1 -10.0618 -4.26547 14.2067 17
429 1 -10.5733 5.94297 -11.9638 12
430 1 7.37774 6.41143 1.01865 19
431 1 -5.15684 -13.2932 -1.4649 20
432 1 -1.64059 18.157 1.7006 8
433 1 -0.741366 4.84714 -8.84326 22
434 1 -0.417836 7.83439 14.2736 21
435 1 -14.3149 -7.47564 -3.56776 16
436 1 -4.57725 16.6348 -3.48811 14
437 1 5.61565 13.1433 -4.79906 18
438 1 -4.51536 -10.1762 -5.87011 19
439 1 6.75814 3.1371 15.936 17
440 1 -2.25147 -14.7865 -9.0275 12
441 1 -2.02415 1.67796 -14.6132 21
442 1 5.81771 -13.9638 2.12216 13
443 1 -9.92492 9.36752 4.29263 20
444 1 3.19025 8.35244 13.9038 18
445 1 5.51966 9.47626 -1.56878 19
446 1 2.72621 9.38432 -0.405956 18
447 1 -8.71579 7.94403 -13.1022 13
448 1 2.4617 3.9918 -7.06037 20
449 1 1.71073 -6.56216 6.16457 19
450 1 -17.0063 -9.50808 -1.13476 6
451 1 0.87489 14.9954 5.39944 20
452 1 -7.94693 1.68038 -9.83676 20
453 1 9.67315 5.62171 -3.75938 22
454 1 3.18185 17.4608 -7.20032 13
455 1 8.59621 -6.39285 0.092461 20
456 1 13.4159 4.82629 1.22016 19
457 1 -1.4083 5.20346 -11.9937 19
458 1 -1.39605 -8.98058 2.87316 22
459 1 -2.2361 -14.5589 8.75518 16
460 1 0.942392 -9.22359 11.4671 12
461 1 -9.75461 -0.372757 -11.1683 20
462 1 -8.97496 -12.5171 6.97429 21
463 1 -0.0775535 -9.35781 -9.8849 20
464 1 8.75693 15.1085 6.85558 12
465 1 0.284198 7.21934 -12.1788 20
466 1 1.35761 -1.51747 16.5193 12
467 1 -17.7347 2.98806 9.26381 11
468 1 -2.71713 -18.449 1.34057 11
469 1 -12.743 -3.02037 1.4154 21
470 1 14.5967 -4.73166 -5.85614 13
471 1 12.485 -0.409328 -1.83782 16
472 1 -4.23777 6.78057 -5.29724 23
473 1 5.85494 -7.08549 -7.30048 19
474 1 2.36509 4.35445 -10.1797 19
475 1 9.72527 -1.68108 -2.3549 20
476 1 -8.89624 0.195213 16.7976 15
477 1 6.26639 14.7982 4.65156 15
478 1 -3.39903 -1.31536 -13.6489 21
479 1 0.747093 1.21519 -15.7759 19
480 1 -8.31157 -4.58845 9.5079 18
481 1 -0.759499 13.1054 3.41911 19
482 1 -10.1478 -2.81761 -13.4129 18
483 1 -15.1186 -1.44577 2.87695 19
484 1 -1.09927 -8.00824 -13.0607 15
485 1 -7.77361 -9.39973 12.5767 17
486 1 1.42442 6.79933 -8.7558 19
487 1 14.3495 3.84014 9.34767 18
488 1 10.2431 5.28316 -0.903996 18
489 1 -11.1116 -12.6617 -1.90744 15
490 1 -1.58701 -9.21065 -0.590828 21
491 1 -2.46277 -3.32304 -17.5671 10
492 1 -5.95122 10.0448 8.98916 16
493 1 1.63085 -1.0055 -10.4808 15
494 1 10.4729 -5.23887 -2.48767 18
495 1 3.89188 16.5393 -10.5561 12
496 1 4.6275 -6.7048 4.54324 19
497 1 14.091 6.584 -7.73011 9
498 1 3.70871 9.13857 18.0607 11
499 1 -10.0703 -0.0457612 10.5462 15
500 1 6.72776 13.5207 11.7107 16
501 1 6.87666 -0.0568775 15.3616 16
502 1 -2.13899 3.67972 -17.7327 14
503 1 -6.0201 -7.17282 -6.63376 20
504 1 1.00467 -3.885 14.2541 15
505 1 10.8102 10.1171 9.63359 18
506 1 4.92486 12.3935 -10.2556 23
507 1 -8.8739 13.2052 -5.57201 13
508 1 -0.814344 13.6497 -4.16377 17
509 1 10.0167 -4.45311 12.8208 13
510 1 8.14818 4.32373 -13.9924 13
511 1 10.6665 -7.19849 -5.20338 22
512 1 12.1868 12.9361 10.6318 12
513 1 -15.6081 -7.95272 3.05327 17
514 1 -5.84271 9.40518 -13.491 15
515 1 -1.7473 1.83743 9.62309 19
516 1 -14.9345 0.821211 10.4348 16
517 1 -3.69557 11.6762 -12.8068 19
518 1 1.08232 -13.0548 -4.43719 18
519 1 4.69983 -0.895849 -8.95548 19
520 1 0.194572 16.2257 -2.1035 18
521 1 -10.5161 -6.08781 -13.4054 13
522 1 3.0326 -12.1328 3.52764 18
523 1 -13.4713 -5.25101 -1.39851 18
524 1 1.44703 13.2104 -14.3315 11
525 1 -1.50904 7.04599 17.1542 17
526 1 -10.4488 -6.62764 8.86327 16
527 1 3.69343 11.0172 -2.97049 21
528 1 3.01762 -8.51298 -8.49843 19
529 1 3.56821 -8.87388 9.8509 16
530 1 -13.0229 5.61601 1.42556 15
531 1 5.88017 5.7196 12.227 19
532 1 1.27932 16.3924 -9.25461 13
533 1 12.1377 -4.87004 -7.84087 18
534 1 2.6649 10.883 11.6025 18
535 1 -1.94978 0.330775 -18.185 10
536 1 -4.38936 -14.4777 11.5583 11
537 1 -1.41259 1.7859 -10.5617 18
538 1 5.14686 5.42812 -14.6125 14
539 1 1.14405 16.7833 8.70272 10
540 1 6.05337 8.75439 -7.70585 19
541 1 -5.66636 -4.699 -17.9085 7
542 1 -4.90119 -10.0545 -2.26451 21
543 1 -13.3473 -3.86247 -12.8553 13
544 1 10.5244 3.13466 0.923841 17
545 1 14.8176 6.01817 -2.23273 10
546 1 7.28165 -8.72257 -5.36242 17
547 1 14.6875 8.59547 12.9841 11
548 1 4.2943 -10.7995 -6.26386 18
549 1 -0.660196 5.22664 -14.9205 23
550 1 5.22683 12.9119 3.14215 19
551 1 -9.62994 5.16739 3.08823 19
552 1 11.857 10.9399 12.9901 13
553 1 12.1461 7.86028 -2.02346 15
554 1 12.4477 -0.121838 4.2071 19
555 1 7.13691 5.83642 -5.30757 22
556 1 7.89432 1.73691 12.4595 19
557 1 14.4164 6.15289 11.2494 15
558 1 0.506905 -3.71866 11.5014 18
559 1 10.6159 10.6338 -5.47485 12
560 1 2.85907 4.83888 12.3718 19
561 1 12.2044 0.79606 -7.12391 18
562 1 8.38584 -3.13041 11.2724 19
563 1 -7.83211 1.43587 -6.17812 20
564 1 15.7227 6.74295 1.11264 10
565 1 11.4282 -6.73176 4.73753 15
566 1 -11.8334 4.77813 11.6931 16
567 1 9.38531 12.7835 12.559 11
568 1 10.9581 1.14615 12.062 17
569 1 1.22734 7.25657 7.64403 21
570 1 4.41334 16.4331 11.0153 8
571 1 8.23092 3.62698 6.0513 22
572 1 -1.18176 -14.3508 2.59968 18
573 1 -4.65844 11.4937 -3.03532 18
574 1 9.06864 8.04099 -6.21203 21
575 1 8.19577 -0.83383 -13.9991 14
576 1 0.719457 19.0072 -0.85563 11
577 1 -5.15253 -13.5745 -9.77281 14
578 1 12.3715 -6.69547 -12.1816 11
579 1 -15.6564 5.63594 7.61018 11
580 1 -7.11034 4.21514 -11.6313 19
581 1 -2.95143 -16.2554 3.83989 14
582 1 -6.76521 3.93244 -8.51693 22
583 1 -14.0566 2.39799 -3.87965 17
584 1 9.13693 -5.00867 2.83248 19
585 1 14.7382 11.6571 4.93581 13
586 1 0.899626 -9.23347 8.35642 20
587 1 -14.1396 -4.34628 -6.79533 13
588 1 3.31935 -0.519151 -16.0723 13
589 1 -6.02629 -0.511748 16.1904 15
590 1 6.18986 11.3126 -13.57 15
591 1 15.8126 -0.189017 10.3697 10
592 1 8.57158 9.1343 -3.8128 19
593 1 14.3427 12.5162 1.88953 7
594 1 4.17338 -13.8745 -5.77755 16
595 1 -11.4813 -1.92853 12.9249 19
596 1 14.2569 -1.91643 6.33023 11
597 1 0.0261875 12.6752 13.1993 12
598 1 6.38128 15.1686 -10.4465 14
599 1 -11.5337 6.32345 -6.40567 17
600 1 9.42728 11.9557 3.91423 15
601 1 -8.61473 -16.8194 2.21468 9
602 1 12.4736 -3.65805 3.5822 18
603 1 8.40591 15.0127 3.15597 9
604 1 -1.98065 6.86096 12.1316 23
605 1 -13.42 -5.76307 1.74011 19
606 1 -8.22229 -3.68511 -6.94345 14
607 1 6.46968 -0.0409593 10.7737 18
608 1 -5.07635 -9.98551 14.6644 9
609 1 8.53605 5.06266 14.6226 19
610 1 -6.45712 11.3662 0.197967 20
611 1 10.5375 4.49257 4.49808 20
612 1 7.58667 3.71041 2.52406 23
613 1 3.49341 3.17356 -15.7885 17
614 1 -14.6517 -2.33415 11.8456 12
615 1 7.75496 -1.85132 -10.318 18
616 1 13.3496 -7.10428 -6.75692 14
617 1 6.98043 5.66283 9.05122 22
618 1 -12.3501 0.348047 15.5324 11
619 1 12.0875 8.02385 7.89092 21
620 1 -1.18869 -1.13664 15.255 14
621 1 -3.90119 5.98013 14.8885 20
622 1 -2.33466 -4.16055 -10.8537 17
623 1 -6.39274 3.63342 10.1617 20
624 1 8.70649 4.40372 11.5566 18
625 1 -11.0948 -14.7544 6.65831 16
626 1 14.0881 9.21097 0.102362 11
627 1 3.29328 -10.6479 -3.338 19
628 1 8.74872 12.3521 0.921226 17
629 1 6.53542 12.5203 6.85019 20
630 1 6.23719 0.54002 -16.2832 15
631 1 2.9602 13.9082 -3.3636 18
632 1 11.4432 10.7854 0.0910973 12
633 1 -7.81818 -11.4646 -0.809605 22
634 1 -4.30447 -1.14512 -16.9331 17
635 1 -8.69426 13.1714 -0.441457 14
636 1 7.39262 -6.76447 -10.3206 21
637 1 8.71476 7.01955 -8.82832 17
638 1 8.25651 14.944 -4.1518 11
639 1 -10.6997 7.37378 0.32459 22
640 1 4.31472 6.7548 -3.72315 21
641 1 13.5724 2.49299 13.9097 13
642 1 9.62985 -0.905337 13.571 15
643 1 -4.45567 -11.0479 11.8907 18
644 1 -7.19048 8.02801 -15.927 13
645 1 4.75604 15.6109 7.03134 15
646 1 8.83268 -6.25512 -13.3531 12
647 1 1.45201 1.46744 11.5073 17
648 1 4.70513 16.7232 -4.74167 13
649 1 7.70807 9.80161 5.36608 17
650 1 14.339 -2.17076 -3.52448 10
651 1 7.94461 4.7023 18.1708 12
652 1 -11.7913 -4.84204 7.30988 18
653 1 1.41894 -16.4973 0.650965 16
654 1 -1.40852 -0.460149 -8.86029 19
655 1 -6.74078 14.9085 1.44948 12
656 1 5.37015 9.13571 1.727 17
657 1 -17.4299 -5.45407 5.48249 12
658 1 -2.68293 3.92298 16.7828 17
659 1 -3.96175 6.26642 -16.018 21
660 1 -9.89777 6.71411 -15.8346 9
661 1 1.09636 -13.246 1.70661 15
662 1 5.06745 11.2532 -7.39368 20
663 1 -16.7452 2.76829 12.6448 7
664 1 6.59833 2.27116 -12.5088 18
665 1 2.78235 -12.2136 7.88447 18
666 1 0.0345823 13.1598 0.753201 18
667 1 -7.22343 2.6039 17.5845 13
668 1 -11.0494 -10.6288 -8.6452 15
669 1 -6.27378 -9.83557 -12.1646 15
670 1 -10.518 -13.8486 -7.90343 10
671 1 -3.41244 19.1398 -7.04315 8
672 1 8.22803 -5.78113 -7.30633 23
673 1 -2.00177 10.6788 4.3199 17
674 1 4.81724 -11.3419 -11.3544 14
675 1 5.12478 -15.6988 -0.0626416 10
676 1 5.14108 -6.95713 8.00578 22
677 1 13.3205 3.93254 -6.9927 13
678 1 0.790221 -13.1097 -7.99436 12
679 1 -15.713 -1.19702 5.99086 17
680 1 -5.33404 -18.5464 2.20344 9
681 1 -7.14018 -12.1374 -4.11791 23
682 1 -10.3197 0.650378 7.92821 20
683 1 -7.00091 -17.3516 4.57844 15
684 1 12.6578 5.37945 -3.6748 17
685 1 -1.93584 15.9663 3.53188 14
686 1 -11.811 6.48773 4.69561 21
687 1 9.87843 -2.08407 3.77943 19
688 1 -14.5749 -2.96093 -10.4132 13
689 1 1.48322 6.24373 -5.44213 19
690 1 6.98856 1.01041 -8.65011 20
691 1 8.46247 10.206 12.4681 20
692 1 7.30924 6.86474 -1.91979 20
693 1 -15.388 -2.2956 -6.49253 8
694 1 -16.1853 -7.03614 -6.46563 10
695 1 -3.8791 6.6659 18.6645 12
696 1 6.196 7.04256 -10.0924 13
697 1 11.7901 12.9127 6.65649 13
698 1 -1.04416 -1.82105 11.5682 19
699 1 -4.25829 -17.8442 -4.15105 9
700 1 -8.08137 -15.7731 7.31116 19
701 1 -4.11451 -6.70221 9.75012 19
702 1 13.5503 11.1656 7.94338 17
703 1 2.20424 -6.36332 -10.2068 18
704 1 -6.59894 8.35704 -3.83019 20
705 1 9.12463 7.02786 6.23001 18
706 1 -12.8005 -2.33223 5.67252 18
707 1 6.7094 9.889 -10.2489 21
708 1 -2.09634 -15.9654 -5.26846 13
709 1 0.170244 -17.2889 3.18374 13
710 1 -1.10428 -17.8658 -2.28955 13
711 1 8.00955 3.08101 -6.94847 23
712 1 6.0521 15.0664 1.18357 18
713 1 -5.56405 0.358971 -14.5759 19
714 1 0.999302 0.967336 14.4471 21
715 1 -1.66155 8.34161 -16.3145 17
716 1 -10.7209 1.19045 -15.3386 12
717 1 -13.7824 -3.22503 -3.44115 17
718 1 -0.235597 18.2947 -6.55125 12
719 1 -5.27983 -4.58207 -12.3822 18
720 1 -7.87184 -6.3249 0.907733 20
721 1 10.5518 5.57537 -6.79273 22
722 1 10.5938 -8.04254 1.70589 15
723 1 -6.45425 7.09577 17.2731 14
724 1 6.87163 -7.07655 2.61714 23
725 1 11.7978 -5.49049 0.655255 15
726 1 15.1938 -3.42255 12.0925 6
727 1 -1.95399 10.7965 7.93205 22
728 1 -13.8199 2.93939 13.742 7
729 1 -9.17103 8.0818 15.8451 11
730 1 -2.82127 -11.4166 8.94508 16
731 1 9.48028 1.24278 3.08616 19
732 1 5.88417 10.9248 13.0139 17
733 1 -17.359 -4.75324 -1.43928 8
734 1 8.34883 -6.96073 -3.84223 19
735 1 -11.1333 11.7213 -4.62 12
736 1 0.908503 -14.7083 8.44328 12
737 1 4.58332 0.623813 13.1313 21
738 1 0.176424 12.2796 6.44721 22
739 1 1.12172 -10.1419 4.2628 17
740 1 -10.8726 -4.06734 -1.22652 18
741 1 -1.49779 0.905749 13.0334 20
742 1 -13.6451 -10.0751 -2.42871 14
743 1 1.19144 8.98814 16.5083 15
744 1 2.06079 12.2964 4.16298 20
745 1 -9.41412 -11.3717 3.80269 18
746 1 -6.22038 -18.5061 7.49641 7
747 1 8.10134 -7.03045 7.11073 15
748 1 12.5982 -5.5267 11.1779 11
749 1 7.22254 10.7667 9.29536 19
750 1 -1.07186 -6.50943 -10.5108 20
751 1 -3.57141 4.09246 -14.0698 17
752 1 -6.07259 -1.01668 12.6928 19
753 1 -3.04043 14.0174 5.91129 16
754 1 15.3457 4.73526 6.18879 13
755 1 2.84903 8.86245 -6.84199 22
756 1 -3.98127 9.03615 16.4164 14
757 1 9.45938 7.25668 12.2465 18
758 1 7.2778 -3.69223 -12.621 19
759 1 -9.75897 -13.52 0.846715 17
760 1 14.114 1.17577 7.43243 17
761 1 3.41967 1.33996 -10.3589 21
762 1 1.06017 7.27481 19.4957 9
763 1 9.29266 -12.6626 -6.53895 9
764 1 3.54993 8.82052 -14.8794 15
765 1 -4.89148 -7.30797 -3.77037 21
766 1 8.63018 3.96239 -10.4865 15
767 1 12.4149 -1.63329 1.08844 17
768 1 -1.8446 -5.40657 12.6302 13
769 1 -1.6874 -12.5344 -6.60661 16
770 1 4.33357 13.9058 -0.775576 19
771 1 -14.2562 1.60992 4.16704 14
772 1 7.64559 2.9913 -3.86339 23
773 1 14.748 7.97911 6.73917 17
774 1 0.738895 -3.88029 -12.0227 14
775 1 -9.45536 11.8794 6.38581 13
776 1 16.2677 10.4142 7.15956 10
777 1 7.28421 13.4863 -7.25055 16
778 1 1.95756 4.45999 -13.8567 23
779 1 7.76618 -4.59038 -2.32592 20
780 1 -11.6557 3.93672 -0.161924 16
781 1 10.6287 7.91784 4.19837 17
782 1 -14.2149 -10.4436 1.59786 12
783 1 -11.5954 9.63081 -7.55633 10
784 1 8.418 2.62254 9.32972 20
785 1 -9.51848 -0.724006 -7.76732 15
786 1 -12.7445 4.80284 7.05978 21
787 1 -3.91959 4.09309 -6.78013 20
788 1 10.7354 -6.85576 -8.62644 22
789 1 -13.6007 -12.1447 -8.42351 9
790 1 12.8399 -9.00751 -3.50492 11
791 1 -13.8044 5.08738 -1.91562 16
792 1 -11.1724 -5.5403 -3.71193 17
793 1 12.3225 8.00961 11.3556 19
794 1 -7.3467 -7.56027 8.30132 19
795 1 9.82209 2.25915 14.8482 15
796 1 13.8171 -2.66478 9.73693 15
797 1 7.68039 -1.76919 5.87129 19
798 1 -10.3946 2.16025 2.20801 18
799 1 0.599333 10.0778 8.87844 20
800 1 3.88761 9.5582 -10.195 21
801 1 -2.3974 -4.93382 -14.3505 17
802 1 -4.36448 15.9622 7.38973 12
803 1 -11.7029 -11.9923 8.66621 18
804 1 6.81911 16.7244 -7.17051 12
805 1 1.75902 6.28256 14.6885 16
806 1 14.6288 -1.07964 -5.93499 11
807 1 7.09033 -8.76656 10.823 11
808 1 -2.04353 10.7878 -10.1071 17
809 1 1.60574 13.0215 -9.21331 17
810 1 -6.88211 -1.98525 8.03829 21
811 1 16.7587 5.11332 9.35357 10
812 1 -3.67953 -1.26107 -10.7218 16
813 1 12.1443 13.3725 -0.981627 8
814 1 -14.647 5.37015 -5.09688 11
815 1 -5.88584 -10.4911 7.12573 19
816 1 4.27652 14.2555 -12.9429 13
817 1 5.29205 -2.62013 11.4106 20
818 1 -0.829444 -14.5932 -1.06417 12
819 1 -3.92833 15.9295 0.626017 14
820 1 -13.5957 9.07889 0.256072 13
821 1 9.64369 -0.138666 -7.37272 23
822 1 -1.29529 -11.8526 -10.1513 15
823 1 -8.58909 6.66777 5.73771 19
824 1 8.52501 10.5878 -7.84351 15
825 1 -9.82276 -2.50125 6.00256 25
826 1 4.0336 -4.29869 -16.047 13
827 1 -8.12197 -11.6273 -8.93055 17
828 1 0.123229 -15.3388 -3.05308 16
829 1 -0.803104 9.95992 11.4537 21
830 1 5.35018 -9.30546 -0.202856 19
831 1 -2.36195 14.027 -14.4385 11
832 1 12.5609 1.09058 -4.42361 18
833 1 8.65863 9.14817 2.03545 17
834 1 -0.183197 -19.161 0.12584 10
835 1 5.14393 -2.21186 -14.7539 18
836 1 10.0016 -3.06338 0.507999 23
837 1 -2.64274 7.91986 -13.4839 21
838 1 -5.38408 -9.27753 10.1883 20
839 1 5.57971 8.88316 -4.92636 19
840 1 3.8404 1.20727 -7.06829 19
841 1 -10.6835 4.82953 -3.56264 20
842 1 -14.7897 3.7748 9.42563 17
843 1 0.104974 4.74053 18.7021 11
844 1 -11.4133 -9.51057 10.3216 14
845 1 6.10132 7.93139 7.06286 20
846 1 -5.06667 -14.3323 3.31114 19
847 1 1.97336 9.03282 -4.05519 20
848 1 -5.11322 6.41475 11.8886 17
849 1 -3.57996 3.81238 12.9873 20
850 1 -10.4377 11.3601 10.6374 8
851 1 7.89664 2.76631 -1.02259 20
852 1 -7.47882 -7.35837 14.7295 11
853 1 5.29435 -12.2317 6.00047 21
854 1 10.398 5.37969 8.59458 18
855 1 9.33035 -4.2845 -5.37831 20
856 1 6.65661 -13.2123 -7.98801 13
857 1 -7.72832 1.37329 -12.8881 20
858 1 -4.78508 2.7556 -17.1822 16
859 1 6.62309 14.5473 8.98299 15
860 1 -14.7697 -5.19201 10.987 10
861 1 -6.33362 8.84396 -6.89243 18
862 1 -13.4371 3.45781 -7.49201 11
863 1 8.80219 11.9703 -2.76921 14
864 1 -9.75065 -17.7741 5.75873 9
865 1 -1.80251 7.45104 6.23324 21
866 1 15.1222 13.3105 8.8668 6
867 1 -10.146 -11.2237 -6.10118 17
868 1 1.96168 15.2372 11.402 13
869 1 -9.56971 -0.0119434 14.0087 20
870 1 -4.26123 -14.8921 -6.57033 14
871 1 13.4859 1.24865 11.2604 17
872 1 1.49197 -13.0922 5.60579 19
873 1 6.39803 7.41058 19.0069 10
874 1 -5.64511 -4.23101 8.25951 20