ITEM: TIMESTEP
23000
ITEM: NUMBER OF ATOMS
2000
ITEM: BOX BOUNDS pp pp pp
-30.0 30.0
-30.0 30.0
-30.0 30.0
ITEM: ATOMS id type x y z Coordination
1 1 -8.21168 2.61422 -11.6608 14
2 1 -3.8262 -7.04676 -7.65382 22
3 1 4.04899 12.7045 11.2523 16
4 1 10.3496 -13.079 4.34422 21
5 1 -12.9752 7.35631 -4.36106 15
6 1 7.78613 -12.4512 -12.946 9
7 1 -12.3553 6.20522 -9.74246 10
8 1 1.25134 -13.3566 12.64 14
9 1 -4.36722 0.082529 -9.96756 21
10 1 -11.0622 -12.3221 5.11867 20
11 1 13.6732 -3.77224 -10.0331 15
12 1 -5.12139 -0.212111 3.53878 22
13 1 -3.49921 -16.4812 0.990381 20
14 1 -11.3759 -12.0381 1.79157 17
15 1 -0.222026 -5.34355 16.7879 12
16 1 9.06987 -8.30904 7.33479 17
17 1 -1.03075 -2.55573 9.37724 22
18 1 8.11629 -5.48854 2.30952 21
19 1 5.6402 5.729 -9.94951 19
20 1 3.58909 -4.91963 9.02496 21
21 1 -7.46394 -6.42364 -12.7636 15
22 1 -10.1641 -7.30863 13.1232 15
23 1 12.3587 6.78668 6.71262 20
24 1 7.84925 8.44401 -10.9733 10
25 1 4.93807 2.15592 -4.47216 20
26 1 11.5557 2.70527 13.5699 14
27 1 -7.63302 -4.42201 6.85104 20
28 1 -14.2903 3.03315 -9.69826 11
29 1 -3.34602 -4.34832 -8.95601 18
30 1 -10.7215 9.55109 9.66988 8
31 1 8.81793 -15.8603 6.27738 12
32 1 4.48547 -11.6391 8.24182 17
33 1 1.5286 -16.4557 -8.04386 15
34 1 11.6707 -17.2667 1.7723 9
35 1 -7.35332 -15.3698 -5.12346 15
36 1 -10.8748 -10.6306 11.8396 14
37 1 3.34732 -6.5237 -3.88259 22
38 1 1.48376 -11.2881 -7.86955 19
39 1 7.54136 -6.85036 -11.1868 18
40 1 1.35698 3.74964 -14.2764 14
41 1 -1.02477 2.71148 10.8714 19
42 1 -5.30426 -14.3948 2.98628 16
43 1 8.63094 -6.24867 10.2981 16
44 1 -10.8744 -4.6367 1.6779 22
45 1 -14.0263 -5.52956 6.29067 12
46 1 -6.81458 0.505723 -4.99549 21
47 1 -0.317021 9.33242 -0.737978 18
48 1 -1.90704 -16.9482 -6.94202 14
49 1 0.771182 -3.69082 -12.1758 18
50 1 4.60423 -10.6539 -7.52809 21
51 1 -3.34174 -9.17478 15.2511 16
52 1 -17.1668 1.70212 -0.959257 11
53 1 6.97775 6.34261 -6.47915 19
54 1 -2.38336 10.7635 12.886 11
55 1 -8.09187 7.121 -7.63603 17
56 1 -2.97954 13.811 2.2529 18
57 1 7.26081 -12.3989 5.41611 19
58 1 10.3422 -7.85512 -7.94242 15
59 1 4.46779 -11.7577 -13.0649 15
60 1 -6.85253 5.9095 11.931 19
61 1 -13.0512 -5.54594 -5.70509 16
62 1 6.2762 -0.722292 5.55369 23
63 1 -9.28712 9.86012 -5.66559 22
64 1 -6.45379 -13.5076 8.24161 21
65 1 0.00419808 9.01794 14.802 13
66 1 -14.9178 3.59187 -6.1489 17
67 1 -9.28647 5.6979 13.5946 18
68 1 2.48401 3.0665 -1.60669 22
69 1 1.8736 5.35663 9.47284 17
70 1 0.193661 -21.1664 4.69542 7
71 1 -0.154203 6.82756 12.4024 18
72 1 9.5238 -15.8204 -2.79207 14
73 1 8.24777 9.9945 13.3162 8
74 1 -11.7514 2.52954 -7.85174 19
75 1 -13.657 -2.32944 -9.20152 15
76 1 5.29839 3.2798 12.4861 22
77 1 6.2899 -3.96223 -11.3672 21
78 1 12.1146 -15.7178 4.93346 11
79 1 -15.8445 -5.8295 0.303816 12
80 1 -8.00092 -4.09541 1.64607 24
81 1 2.8007 10.6503 7.25244 19
82 1 2.97531 -9.35942 17.0322 9
83 1 -9.03667 -15.0095 5.03116 15
84 1 -9.44184 -3.9736 4.1396 23
85 1 14.8575 2.67747 9.11929 15
86 1 9.66846 -1.80551 -2.80163 17
87 1 -4.1338 7.06721 12.0614 16
88 1 4.91502 -1.64878 8.97958 24
89 1 -8.17901 -6.73145 3.38637 23
90 1 -4.71602 -9.28408 -4.19026 20
91 1 -11.6246 6.01032 7.9359 11
92 1 -6.93513 6.876 -4.48262 21
93 1 -1.04971 8.37586 -6.38462 22
94 1 6.70974 -2.22316 -3.0423 20
95 1 4.49212 -3.32976 -4.77554 22
96 1 7.19223 6.27234 -12.815 13
97 1 9.79286 -6.82652 4.47763 22
98 1 4.91564 -10.5492 11.7742 15
99 1 -6.96154 12.4958 -5.24473 16
100 1 -6.86423 15.6026 5.53931 6
101 1 -5.24775 -3.76012 14.3634 19
102 1 -6.63068 7.82034 5.9601 19
103 1 -6.55928 -9.59896 15.5755 13
104 1 8.21948 -3.22176 -5.45718 21
105 1 -7.13482 -0.609556 0.807044 19
106 1 -9.08945 -20.1966 2.14042 9
107 1 6.75124 -9.65344 -5.38986 23
108 1 5.33898 -6.61514 -16.1619 13
109 1 -6.13943 -3.73125 -15.4426 11
110 1 4.97393 -3.84309 6.36326 21
111 1 -1.10561 16.2193 3.51188 14
112 1 -5.82179 3.32671 -4.22778 19
113 1 -2.90984 1.99101 14.406 17
114 1 3.46123 11.5379 -4.2632 18
115 1 -9.89559 6.65747 5.42508 18
116 1 -2.17803 6.06546 3.82084 20
117 1 -3.77061 -13.3254 10.0499 15
118 1 11.4994 -0.818921 10.8014 23
119 1 -0.617801 -7.69748 -7.4915 18
120 1 3.56899 -9.643 -3.98714 20
121 1 -3.1589 -0.205358 10.7869 18
122 1 3.90411 -5.76922 17.1983 13
123 1 -12.5326 -9.19068 -3.85569 13
124 1 7.02036 -6.37301 5.54574 19
125 1 -6.66396 -10.9775 -2.14707 19
126 1 14.6568 -8.23039 1.2831 17
127 1 -2.34127 8.6676 1.19058 16
128 1 10.5339 6.72472 -12.5881 9
129 1 8.38288 14.4194 -3.51739 9
130 1 -5.01427 -9.80525 12.8909 14
131 1 -7.39132 -16.2753 2.38785 18
132 1 -5.56884 1.81017 0.910689 18
133 1 2.57837 -14.1581 -6.49542 20
134 1 4.68071 0.619709 -1.80277 21
135 1 14.0355 -6.77988 4.08518 18
136 1 -3.28907 -19.8523 9.92662 9
137 1 -8.65368 -14.3122 0.752145 18
138 1 11.5014 5.43625 10.1315 19
139 1 5.62332 -1.77005 -7.51228 20
140 1 -12.7405 -7.12736 0.690985 17
141 1 13.0464 5.78613 1.25643 16
142 1 17.3944 4.97248 1.93497 12
143 1 -7.40908 -0.7391 17.2217 11
144 1 8.27497 2.5884 0.0329591 21
145 1 -8.77536 8.55402 12.2241 13
146 1 -5.47535 9.13018 -2.7716 19
147 1 -1.35756 -5.51937 -12.8898 18
148 1 13.2603 -12.0823 -2.65972 13
149 1 1.59508 10.4537 -9.36117 8
150 1 13.789 -5.20675 9.00558 12
151 1 1.12148 -12.2687 -11.293 14
152 1 -4.18098 11.9919 -7.19008 13
153 1 11.2274 2.5606 0.823675 20
154 1 -8.537 9.16466 -10.8213 9
155 1 -8.46269 3.69842 -3.64247 17
156 1 7.83341 -0.828857 -10.7118 18
157 1 11.6823 -14.1501 7.48619 11
158 1 -6.17398 -1.42723 -7.27182 23
159 1 -1.72024 12.0589 4.81837 16
160 1 10.442 1.58557 -7.69686 19
161 1 11.054 12.0424 0.942434 9
162 1 0.805013 15.9937 -2.17664 10
163 1 14.2221 2.72196 0.506616 19
164 1 1.51501 8.11705 1.38893 21
165 1 3.59877 14.0599 -2.51215 13
166 1 6.62601 10.6761 -8.12294 11
167 1 -13.9129 -13.0996 3.54107 12
168 1 -11.4752 8.01004 -1.0079 14
169 1 -5.58434 -8.79842 -12.7892 18
170 1 2.06075 -15.0038 -10.1881 12
171 1 11.4584 11.8851 8.0462 10
172 1 3.0339 11.9006 3.96865 20
173 1 -15.3061 -0.497275 3.68924 12
174 1 -8.74561 13.3579 -0.0175044 11
175 1 16.0513 -0.869125 -6.47069 17
176 1 -9.76839 -0.0494481 -11.5516 14
177 1 3.86502 -2.88893 12.2231 23
178 1 3.7465 14.9411 4.55275 12
179 1 -3.24624 6.94833 7.34765 18
180 1 -5.1757 -9.71042 -6.94227 17
181 1 -7.73559 10.9795 7.78748 13
182 1 -0.97983 3.13544 -1.58567 21
183 1 3.71356 -8.11225 12.8906 18
184 1 -14.7463 -11.1067 0.74933 11
185 1 -3.57019 -15.0787 -9.32 12
186 1 -4.5658 -1.41836 -5.01072 18
187 1 0.715382 -12.6067 4.95061 22
188 1 8.04563 -14.5686 -0.415769 18
189 1 -5.29856 10.5766 -10.3061 11
190 1 -12.7775 -7.51034 11.6721 11
191 1 4.06303 6.12869 -1.78378 20
192 1 10.3977 7.28737 -1.86352 17
193 1 -8.5702 2.71696 15.1385 20
194 1 0.498005 -19.2885 10.3444 12
195 1 -8.32731 0.846269 -2.16451 17
196 1 0.0918585 16.0172 6.82616 8
197 1 0.248122 3.32141 8.31428 22
198 1 9.70051 7.71463 12.0294 16
199 1 -8.063 10.4039 2.2524 16
200 1 14.3693 -8.87376 -7.69049 12
201 1 -5.80901 9.91145 12.768 15
202 1 -3.15045 1.43377 -4.06684 22
203 1 11.9674 -7.85367 6.10326 22
204 1 -6.70444 -3.4926 9.48871 20
205 1 -11.0359 -3.99259 6.97059 21
206 1 -7.64472 -12.4423 3.65197 20
207 1 8.07026 -0.167898 16.5811 11
208 1 -17.7347 5.41702 -1.53501 9
209 1 -2.38702 -14.3038 3.42656 22
210 1 -6.9121 -2.55003 -1.25183 19
211 1 6.1354 -7.79564 -3.21067 22
212 1 -4.14068 10.0728 -0.27433 18
213 1 -7.53114 -4.38033 12.7568 16
214 1 5.47694 14.4054 9.98398 11
215 1 -13.1472 -1.70469 -2.62454 19
216 1 -7.78473 10.9116 -8.29656 15
217 1 -13.8229 -4.39867 -2.58871 22
218 1 -6.57572 -3.79673 17.0881 14
219 1 1.46384 -10.9479 7.95306 17
220 1 3.71503 -18.795 5.99124 10
221 1 -10.2649 5.00931 2.23782 20
222 1 15.2239 -0.724935 2.57963 19
223 1 2.9044 -0.358361 -4.65466 21
224 1 -12.8127 -7.00381 -10.6415 12
225 1 5.23052 0.0324677 11.3176 24
226 1 8.66256 -17.3508 1.61929 13
227 1 -1.96885 3.8633 -14.7438 11
228 1 3.91039 -18.8483 -7.31555 9
229 1 9.92919 -10.5184 -9.90548 12
230 1 7.1376 2.32239 -17.1142 9
231 1 -6.51988 -6.54716 -5.30105 23
232 1 -4.00138 12.2524 -3.70702 19
233 1 -9.26392 -14.9893 8.26085 15
234 1 13.2499 7.50736 -2.09869 15
235 1 -10.2127 0.180104 16.1893 14
236 1 -8.57897 11.2336 -2.50736 15
237 1 7.62629 -4.39317 12.5535 20
238 1 -7.07651 -11.1111 -14.2882 10
239 1 -2.2231 6.03233 -7.94554 23
240 1 3.69353 0.648641 -7.65633 20
241 1 -7.40369 -15.2393 11.4531 12
242 1 -10.3543 2.92763 4.53186 21
243 1 -7.83081 7.55928 2.97976 20
244 1 3.38762 -15.7513 -4.41706 20
245 1 -9.91369 -18.9431 -1.28351 10
246 1 9.55579 -7.65757 -3.72469 18
247 1 4.41646 -8.69912 3.64194 24
248 1 10.1584 1.05572 15.6848 10
249 1 4.95538 4.08374 -6.92705 22
250 1 0.600647 5.84014 -1.48464 19
251 1 -18.0366 3.49884 1.69512 9
252 1 -15.8931 6.13936 -4.52731 11
253 1 2.12741 -0.757463 10.9666 19
254 1 6.88925 -17.9117 4.13638 12
255 1 17.1506 -3.28524 2.31108 15
256 1 -3.30616 2.61657 9.12695 20
257 1 -12.8171 0.00407368 4.09986 14
258 1 -10.5421 -3.9465 -1.71745 17
259 1 8.18324 3.77325 -8.7805 21
260 1 5.19077 -8.84633 15.6751 14
261 1 10.206 3.58984 -11.6501 20
262 1 6.10891 -10.4871 -2.46384 20
263 1 -2.68802 -1.7746 -8.96229 15
264 1 3.01753 -17.6014 3.52311 17
265 1 9.29074 -4.0654 -10.4677 17
266 1 -14.4422 -8.96251 2.49657 15
267 1 6.73931 -15.1226 -3.38995 22
268 1 -7.1287 -0.524799 -11.0694 20
269 1 5.45242 10.8442 -0.812687 22
270 1 0.700278 -8.37414 -15.1455 18
271 1 10.7767 -2.57695 16.1718 11
272 1 18.3956 -2.90178 -0.632319 12
273 1 -2.99885 -8.3972 3.59776 25
274 1 11.2586 -3.67868 -7.69642 15
275 1 -0.892191 -11.265 2.94668 23
276 1 -10.3263 -8.8095 -9.60754 14
277 1 -13.1153 0.607748 -10.1582 15
278 1 -0.536925 -17.2241 8.46883 19
279 1 6.43732 0.8497 8.77372 24
280 1 7.52013 -9.05462 12.6613 16
281 1 -9.25469 -13.1709 -9.95149 8
282 1 1.04122 -7.65022 11.6548 21
283 1 2.9548 1.12135 -11.3987 19
284 1 7.27699 8.41191 1.0802 20
285 1 -6.59621 -9.09196 3.39487 20
286 1 0.91311 9.12246 5.13107 17
287 1 -8.11862 1.5009 6.13367 23
288 1 -8.27395 -10.5774 -8.09326 18
289 1 -9.36711 -5.65507 -10.4362 15
290 1 -0.87891 1.0517 -15.3194 13
291 1 -3.25554 -13.4011 -12.6163 8
292 1 -6.23419 -12.566 0.747316 21
293 1 3.56652 -9.39523 -16.9175 10
294 1 11.8329 -4.92809 -11.6144 13
295 1 10.6619 -2.1181 7.73504 22
296 1 0.615375 -8.28797 -1.74103 23
297 1 -7.46916 -6.5473 8.61574 18
298 1 -4.04496 -11.9225 -1.84651 18
299 1 12.9381 -2.70557 13.0719 14
300 1 -1.74356 -19.0736 -4.25839 13
301 1 3.0253 -15.7441 1.1438 18
302 1 -2.41672 10.3715 -2.25934 22
303 1 9.69957 -1.33194 -15.683 13
304 1 -10.5347 -5.62888 -13.3353 10
305 1 5.52369 -9.2038 0.398112 21
306 1 -8.8861 -11.8191 10.2067 21
307 1 -0.11058 -0.0495291 12.7014 20
308 1 5.59049 -15.5581 0.206964 21
309 1 -2.13433 -10.4033 -6.88068 22
310 1 -7.42143 4.03867 -6.28507 20
311 1 12.7773 0.910569 7.43621 21
312 1 -3.43695 -0.19856 -13.7705 15
313 1 1.45764 8.0516 -8.10976 17
314 1 -4.52288 -7.4923 9.53682 15
315 1 11.7258 -10.8127 -8.0503 15
316 1 -6.11601 14.4066 -2.49101 12
317 1 0.655611 13.3125 2.8489 18
318 1 9.37316 -0.946864 5.20252 23
319 1 -10.2188 -1.43014 1.96967 18
320 1 -0.985943 -11.6799 15.1566 12
321 1 -6.86971 4.4891 1.93384 20
322 1 3.42278 -5.70731 -12.4086 16
323 1 18.2606 6.48048 -7.01023 4
324 1 5.80761 -11.7544 2.60078 19
325 1 -2.4508 -6.10494 15.0966 16
326 1 -14.4999 -8.23443 5.91 12
327 1 5.49491 -18.5573 1.22391 14
328 1 -7.95087 5.35276 16.2378 14
329 1 -11.2684 3.51226 16.2294 10
330 1 -11.6535 -1.941 14.0715 16
331 1 -12.5862 -10.1417 9.30913 14
332 1 8.15269 -5.54441 -3.20342 16
333 1 -11.429 -12.3834 8.52929 17
334 1 4.25267 -4.7638 -7.52801 21
335 1 13.1271 -5.62085 -7.25857 17
336 1 6.43189 14.441 -0.686359 14
337 1 -3.17781 -6.65347 6.24751 22
338 1 -9.27825 8.12235 -2.4822 16
339 1 1.81485 -2.14036 8.68811 22
340 1 6.89794 6.22269 13.3184 16
341 1 -9.70803 -7.23999 6.26335 21
342 1 13.1349 -11.6668 -5.88363 16
343 1 -4.88297 7.70341 1.56836 16
344 1 -8.74536 1.88686 2.27943 17
345 1 7.211 -14.0937 8.5362 12
346 1 16.747 -6.55709 3.3106 11
347 1 -4.26245 5.07696 9.71349 19
348 1 -5.0041 -4.28177 -5.47769 21
349 1 -3.33125 -3.06333 16.5139 16
350 1 -2.6534 12.8229 7.44961 13
351 1 7.75026 1.4408 13.3426 18
352 1 -11.0644 12.225 -7.34196 9
353 1 -1.07362 -5.8473 -15.503 18
354 1 -5.43169 0.284295 -1.87754 20
355 1 5.43731 -14.3931 -11.2583 14
356 1 -9.3189 3.5842 7.73415 19
357 1 -14.1424 0.29802 -0.955276 15
358 1 -2.04904 -3.91019 -4.93865 17
359 1 -10.3366 7.15814 -5.00158 15
360 1 10.1609 -3.87938 10.2429 20
361 1 -11.4822 -14.8492 1.31244 13
362 1 5.96963 -9.50634 6.43487 17
363 1 -6.22491 -10.7956 8.62347 19
364 1 -12.5542 5.99145 1.39446 17
365 1 -2.72052 -11.3908 11.8485 20
366 1 -3.09963 -12.5556 -5.194 18
367 1 -8.14116 0.699287 -8.41624 22
368 1 1.60578 -7.29724 -17.5881 8
369 1 -0.0392399 11.5084 8.40967 14
370 1 -11.4975 0.427249 -0.786312 16
371 1 5.40609 -16.6753 -6.07122 17
372 1 11.5081 0.590939 -13.3883 16
373 1 -7.07711 -14.3835 -1.83663 18
374 1 -13.1404 -8.56826 -7.70523 13
375 1 -1.32255 -9.28411 0.648249 20
376 1 12.0454 0.0589965 13.4987 14
377 1 11.2975 1.6054 5.18891 21
378 1 -3.45929 3.12608 -9.44504 22
379 1 3.24541 13.4464 0.834453 16
380 1 -15.6353 -1.25383 -5.23271 12
381 1 -10.9724 8.88406 2.30948 16
382 1 -6.97141 7.15711 -0.147489 15
383 1 -5.0687 1.68703 6.63912 18
384 1 9.36286 11.0463 10.4327 16
385 1 4.65019 -1.45988 -9.96705 18
386 1 11.7869 -7.77434 11.4791 11
387 1 9.62992 -5.70284 -6.38514 16
388 1 -6.41397 -17.2538 -0.220892 20
389 1 4.61864 2.12834 6.25163 22
390 1 -0.446852 -0.881426 -4.48013 23
391 1 1.5871 -11.0584 -2.02244 19
392 1 -5.31673 5.88154 4.08897 19
393 1 -16.1362 -1.56595 -2.1148 15
394 1 12.1121 -9.09947 3.02321 24
395 1 9.47833 1.58016 10.879 19
396 1 -8.56523 -2.42618 -9.65195 23
397 1 -8.48574 -18.2026 5.26327 13
398 1 -7.63908 -7.32359 11.2714 18
399 1 -3.84168 6.75299 -1.64077 21
400 1 -11.8183 -6.94892 -2.32129 18
401 1 6.40996 3.70989 15.6312 12
402 1 -7.25684 3.20957 -0.955122 19
403 1 -2.26362 10.6355 -5.23804 16
404 1 5.03899 5.92115 10.1184 15
405 1 -14.7396 -7.04968 -2.0768 12
406 1 -2.07229 -14.3554 -3.11576 16
407 1 -11.7646 -6.88992 8.13487 18
408 1 -12.9762 10.4655 -6.15252 8
409 1 2.30943 -9.40653 5.55678 20
410 1 -0.859736 -16.8189 1.65435 20
411 1 11.4523 10.0248 5.56128 13
412 1 4.838 4.12925 -14.8155 13
413 1 -6.27078 2.85421 -9.65769 21
414 1 -1.03903 7.69815 -3.29273 20
415 1 -9.6586 -0.525447 -6.44749 21
416 1 -0.595308 -14.8169 6.83051 17
417 1 9.70852 3.10523 8.39259 20
418 1 4.57855 1.01652 -16.8013 10
419 1 -4.07615 -2.2363 8.46168 21
420 1 -17.956 -0.205844 1.24414 8
421 1 -12.6956 -3.00459 3.88999 17
422 1 -0.983294 -14.7914 -0.750402 20
423 1 1.95896 -8.89853 -6.30643 19
424 1 4.74825 -15.9889 -8.65055 14
425 1 2.84112 -8.03785 9.29994 18
426 1 -13.6489 0.681381 8.4979 11
427 1 -12.8734 -1.88879 11.5876 14
428 1 -12.1537 3.01245 9.31381 14
429 1 -4.51098 -11.5225 3.34896 22
430 1 -5.83036 -1.87052 -13.7489 16
431 1 8.15972 -14.9078 -9.44137 10
432 1 -0.249042 -15.8311 -4.595 23
433 1 -1.44934 -5.67709 11.9905 15
434 1 3.71022 -8.19646 -1.37584 21
435 1 -0.347776 4.64421 -9.74651 18
436 1 9.66842 -11.6376 -1.6161 20
437 1 3.06531 9.50475 -1.74405 18
438 1 -9.2547 9.46861 5.17637 13
439 1 -5.0151 -6.38938 16.826 12
440 1 -8.10359 -10.6882 -11.461 13
441 1 -7.55078 -10.0147 5.78391 22
442 1 9.53198 -9.31935 10.1802 14
443 1 6.72918 -0.407799 0.155545 20
444 1 -7.9812 4.58538 4.86578 19
445 1 1.52775 -5.25744 -7.06793 21
446 1 9.51712 -10.1419 4.6719 20
447 1 12.9035 4.21156 -7.53131 20
448 1 1.40778 -7.57782 15.3474 17
449 1 -0.426865 10.7464 2.67381 17
450 1 7.34327 -8.70993 2.6425 19
451 1 -1.94417 -17.3047 -1.74446 18
452 1 -2.6412 3.38757 17.4304 9
453 1 -4.53838 11.2179 9.99228 15
454 1 -5.71099 -12.7809 -5.28241 20
455 1 12.5705 10.3289 2.98081 11
456 1 2.3256 1.85241 12.071 21
457 1 -6.71881 5.29137 7.48012 17
458 1 -3.31992 -6.74349 -4.41394 21
459 1 -11.8231 0.780607 11.4816 18
460 1 -9.68556 -6.11085 -4.53042 25
461 1 -4.87452 10.0689 7.24633 19
462 1 -4.66415 -15.3085 -3.13992 21
463 1 -1.8158 -7.43737 -10.1774 19
464 1 -2.43233 -16.7495 5.29379 17
465 1 -6.41107 -3.36499 3.97699 21
466 1 7.80449 1.92992 5.76087 22
467 1 -0.640888 -10.4703 9.79939 18
468 1 -6.10862 4.95149 -11.3365 20
469 1 11.9086 1.38928 -2.32175 19
470 1 -9.62133 -15.6269 -2.82234 12
471 1 0.253713 2.22582 -4.64711 20
472 1 -0.363451 18.3456 -0.0841517 5
473 1 2.90372 4.44177 -4.09595 18
474 1 1.11808 11.506 12.9951 11
475 1 -17.4242 -4.26416 -1.82139 9
476 1 0.878493 13.8406 -4.48933 13
477 1 8.71949 12.0534 -5.24058 12
478 1 -10.4619 -9.33392 -5.91231 20
479 1 1.22303 -2.25271 16.7948 11
480 1 3.72008 -17.5961 -1.52884 18
481 1 -2.47486 -8.55399 -14.9297 14
482 1 13.3781 -14.807 2.44513 12
483 1 -12.1722 2.48903 1.79334 17
484 1 1.95402 0.345199 16.6076 12
485 1 15.7292 0.00238697 -0.550838 20
486 1 4.22716 8.34047 0.404545 18
487 1 -6.27907 8.02696 -12.488 10
488 1 5.91293 -1.83457 -13.2786 17
489 1 -2.38644 -12.2467 5.58753 18
490 1 -16.3544 -6.60126 3.81098 10
491 1 3.48632 13.5815 8.02121 18
492 1 3.24305 3.99573 -12.0344 20
493 1 9.79048 5.61505 0.671948 19
494 1 5.85022 13.4483 -5.95606 11
495 1 6.24239 -6.25142 -5.77249 20
496 1 13.5784 -2.00868 -2.24667 18
497 1 4.88444 2.79247 -9.71895 19
498 1 2.59416 -11.5425 3.33327 20
499 1 9.19283 -11.8566 7.75546 19
500 1 3.62482 -14.4207 9.99589 12
501 1 -10.1488 1.92632 -5.55142 19
502 1 -4.9127 -18.5026 7.36949 15
503 1 -4.80064 -17.9742 -5.16926 14
504 1 8.06428 12.0395 4.11836 15
505 1 8.66676 -4.24125 -13.3086 17
506 1 5.24719 -6.84241 11.1082 16
507 1 -12.9054 0.823423 14.4319 11
508 1 -4.50317 -19.3635 0.792933 15
509 1 -6.35642 -6.96746 5.25746 20
510 1 14.8352 -6.27825 -9.76658 10
511 1 11.3579 -3.30986 -0.693482 21
512 1 -4.01902 6.92799 -5.15422 19
513 1 4.78534 -12.4411 -4.17631 21
514 1 9.89256 1.13399 -10.5182 18
515 1 9.44349 -1.35127 -7.84474 20
516 1 -1.55054 -3.08007 14.2438 21
517 1 11.3127 3.23114 -4.76887 17
518 1 -6.18732 -7.32628 -15.7198 11
519 1 3.29443 -2.22884 -15.5578 14
520 1 -9.44398 -9.1079 9.37875 22
521 1 -5.95442 12.7133 1.1518 19
522 1 -10.8473 -0.303296 -8.89504 20
523 1 -13.7663 -5.40153 3.16146 17
524 1 -1.18972 -13.9466 -9.89001 13
525 1 -6.26203 -12.0843 11.5808 20
526 1 8.80273 6.58122 -4.43562 20
527 1 14.4039 4.08561 11.589 12
528 1 18.7806 0.311653 -0.594701 11
529 1 -12.7335 -12.0462 -2.06234 11
530 1 4.03551 -12.1939 -0.185052 20
531 1 -4.20954 -5.74272 -13.9146 18
532 1 -7.89269 11.4666 10.6694 9
533 1 5.1117 -9.57131 -11.0013 19
534 1 2.69532 4.77615 1.33485 24
535 1 13.3768 -2.52001 7.40505 18
536 1 4.15958 11.0302 -7.58967 13
537 1 9.37977 -11.5131 1.83466 21
538 1 15.078 0.0139331 -9.43241 16
539 1 3.06513 3.34579 14.8709 16
540 1 -10.7566 0.361505 6.47028 20
541 1 6.25518 11.6611 8.88096 24
542 1 9.33213 -6.44678 12.6874 18
543 1 1.85563 0.218168 -14.6325 18
544 1 -4.04123 -8.17932 -1.65859 20
545 1 3.0031 -5.44275 12.3032 18
546 1 7.93398 8.81605 9.4276 17
547 1 12.8812 1.89782 -9.91745 21
548 1 -11.1786 5.87779 -7.29124 17
549 1 2.21372 8.52073 -5.38788 21
550 1 14.863 -2.50244 10.3367 14
551 1 11.6243 -2.66279 -13.5777 12
552 1 10.6462 -10.1549 -4.81686 20
553 1 11.395 8.31193 9.20344 15
554 1 -15.8543 -10.5058 4.23488 9
555 1 -10.7772 12.3481 -3.99694 9
556 1 -0.622815 0.347136 8.62914 22
557 1 -11.9271 -4.70707 13.489 13
558 1 -3.31998 9.40997 -8.24051 14
559 1 12.7488 -11.8501 3.20299 19
560 1 6.88684 -0.274926 -5.37797 19
561 1 -1.50605 14.2177 -3.04415 13
562 1 -15.0001 -5.83096 -8.2094 13
563 1 7.14005 -14.7555 2.82928 17
564 1 -9.96388 -7.62454 0.660655 22
565 1 0.774885 11.105 -6.5631 18
566 1 -7.92627 -3.78917 -6.63903 22
567 1 0.503915 3.60924 17.076 12
568 1 -8.47995 -9.61217 13.2556 15
569 1 5.93574 5.24593 0.769165 21
570 1 6.00779 -13.4368 -6.22238 20
571 1 2.28519 -10.4544 13.8505 16
572 1 9.63188 0.0801947 -5.3609 16
573 1 -15.6123 4.96869 0.792903 13
574 1 3.39269 -0.924165 14.3716 20
575 1 8.26181 11.4088 0.828588 20
576 1 12.0365 -7.87531 -5.31747 22
577 1 2.93502 8.70184 12.8896 13
578 1 -2.57837 -3.23624 -14.3807 16
579 1 -5.03332 -17.7645 10.733 10
580 1 1.82591 2.98288 -9.14228 21
581 1 7.28301 -4.7508 -7.97006 19
582 1 0.858408 8.53005 9.7159 15
583 1 13.2359 4.88358 -10.9043 13
584 1 -4.62624 -6.70134 -11.0514 18
585 1 -7.63465 -8.01791 -2.61719 20
586 1 -11.8309 -2.5025 -11.2878 17
587 1 17.7744 2.59231 1.35113 17
588 1 17.0218 -1.0154 -3.03669 16
589 1 8.35609 -11.5308 -7.32575 18
590 1 14.1604 5.73635 8.71325 10
591 1 11.2149 -13.8276 -4.09617 15
592 1 7.75862 -0.374383 -18.2774 8
593 1 5.39001 10.8552 2.36757 23
594 1 -9.05007 -1.87208 7.08858 18
595 1 9.01765 6.42928 14.9815 10
596 1 12.8881 -1.05514 5.20351 20
597 1 16.3694 -5.43195 0.489172 14
598 1 14.0246 -3.52823 -4.91129 15
599 1 7.49396 -2.26501 7.92367 20
600 1 12.4209 5.7197 13.176 11
601 1 -2.85395 -5.11611 8.68182 21
602 1 12.9792 4.11503 -1.98214 23
603 1 6.71071 -2.36836 2.437 21
604 1 8.31863 -4.23778 15.5708 16
605 1 16.0557 -3.10771 -8.45451 9
606 1 9.4547 0.33349 7.82958 20
607 1 -5.99249 -4.74485 -8.08977 18
608 1 12.255 4.16583 4.23887 18
609 1 10.2865 -6.04285 0.168645 18
610 1 1.8037 -9.6676 1.07017 23
611 1 -11.5513 6.92328 11.1214 11
612 1 9.25812 13.8323 10.0125 11
613 1 14.3519 0.425233 11.1068 14
614 1 2.4123 7.47666 7.38123 18
615 1 -3.32907 8.09666 14.6597 15
616 1 -0.259967 5.8822 6.2985 17
617 1 0.0286068 -18.1957 3.85569 18
618 1 -2.42542 4.87862 -3.11044 19
619 1 12.8086 6.98642 -8.22711 12
620 1 12.1683 -7.96702 -10.3787 10
621 1 -0.189479 15.0487 0.515749 18
622 1 1.30802 -14.3567 -2.24553 21
623 1 6.81889 -12.2082 -9.41849 17
624 1 -14.1169 -2.31064 6.73103 11
625 1 -5.32053 5.69084 -7.77804 18
626 1 1.10309 -18.9032 6.82537 14
627 1 -5.91447 -3.14792 -10.7515 19
628 1 -15.7987 3.60026 -3.13292 17
629 1 15.1106 -9.25989 4.46588 15
630 1 7.81146 6.52552 3.4018 19
631 1 0.460589 -15.5636 10.573 16
632 1 -14.7689 0.77337 -7.6302 15
633 1 2.26282 -5.38123 -15.0649 20
634 1 6.00458 -4.0827 10.1703 22
635 1 -4.81462 1.91737 11.4632 21
636 1 8.32976 4.04401 -14.1525 14
637 1 11.4261 -4.35436 5.24333 20
638 1 15.3819 4.10731 -4.63846 17
639 1 15.8135 7.90519 1.50533 12
640 1 3.8193 -19.0581 -3.6671 12
641 1 -8.02377 -6.49355 15.8565 12
642 1 16.2338 -1.96358 5.20902 16
643 1 -1.50898 6.51424 16.8408 13
644 1 15.5492 4.93824 -8.57024 13
645 1 -15.2379 7.46928 -0.874375 11
646 1 11.4698 10.2619 -1.88974 12
647 1 -9.91988 -16.9032 0.333882 17
648 1 13.3518 -5.51304 -0.728812 22
649 1 5.35124 11.5504 6.0644 19
650 1 -6.21712 -1.26947 11.4252 22
651 1 -9.61546 -9.68234 3.12029 19
652 1 -10.7034 -3.51679 -8.09183 20
653 1 8.37256 -1.08493 10.6961 23
654 1 -2.31614 -14.6405 13.1871 11
655 1 3.11068 5.31785 12.5496 18
656 1 -6.0752 11.5017 -1.52176 20
657 1 9.27195 3.52113 3.11403 20
658 1 6.85762 -6.5799 -0.28786 19
659 1 0.887326 1.97486 5.80424 19
660 1 -0.401164 -1.28614 -12.9274 20
661 1 -7.62362 2.65022 12.3518 21
662 1 8.33263 1.04589 -13.4587 18
663 1 -0.942039 -9.30188 -4.00928 18
664 1 10.6326 -13.5125 -7.49904 13
665 1 6.33869 4.41837 7.40051 21
666 1 2.97927 4.46509 6.80966 23
667 1 -9.30749 0.999665 9.2002 24
668 1 5.56299 7.07414 7.13191 17
669 1 -0.839886 -8.85872 16.8168 11
670 1 -2.71767 4.98335 13.124 17
671 1 1.92219 -7.47227 -8.91989 16
672 1 -6.01589 0.87627 13.8482 19
673 1 6.88368 -1.66503 13.1916 21
674 1 -3.5065 -15.2641 7.37927 18
675 1 15.6266 5.9849 -1.23096 19
676 1 7.32719 -11.8278 -0.320823 19
677 1 -3.23177 3.82243 -5.77357 21
678 1 7.3222 6.24641 -1.64198 23
679 1 8.68602 11.5808 7.03558 17
680 1 0.140433 -2.63152 -16.008 14
681 1 0.683202 -5.11362 8.99134 23
682 1 0.282638 12.5578 -0.762196 20
683 1 16.7255 6.47265 -3.84377 9
684 1 -7.64882 -9.95764 0.254238 20
685 1 1.06852 -7.0557 -12.3596 22
686 1 -12.9754 5.76653 -1.75921 19
687 1 6.4385 -10.0074 -15.6294 11
688 1 2.79585 3.22678 3.80344 22
689 1 15.6274 1.95883 -11.1834 12
690 1 15.9952 9.28017 -1.38477 10
691 1 -1.58619 1.73189 6.05708 20
692 1 -10.6241 -0.48747 -3.38833 18
693 1 5.93302 3.51237 -1.74853 22
694 1 10.1013 -2.88044 13.3712 21
695 1 13.1366 -5.35221 11.6911 13
696 1 -1.50508 -17.376 11.693 11
697 1 2.26665 6.10935 -10.2909 16
698 1 -1.02428 13.1209 11.473 7
699 1 8.04319 -6.7963 -14.4074 15
700 1 2.65139 0.993734 8.54565 24
701 1 7.86976 9.40363 -2.25274 20
702 1 9.45349 9.04713 2.57134 16
703 1 14.4086 -6.11191 -3.53408 16
704 1 5.40257 0.78839 15.0205 18
705 1 -9.50187 -5.55227 9.89043 22
706 1 -2.35266 -19.8122 2.87431 14
707 1 -0.0923695 -4.04148 -9.54725 19
708 1 -3.55006 13.6408 -0.620842 23
709 1 -1.26973 5.52823 9.96015 18
710 1 6.90311 -7.32472 -8.48379 17
711 1 3.58609 10.1904 9.78435 16
712 1 -11.367 -7.03332 3.43771 17
713 1 0.601965 -3.71929 11.98 19
714 1 -0.921056 0.922866 -9.88884 22
715 1 -3.75499 7.35992 -10.745 13
716 1 4.06621 -14.3356 3.48448 18
717 1 6.39797 3.6702 -12.0077 20
718 1 4.05482 -7.03449 6.20981 19
719 1 -3.60366 4.48291 1.00208 20
720 1 -11.3055 3.83404 13.0629 15
721 1 5.23557 -4.57516 -14.2254 19
722 1 2.83803 -17.4812 8.68878 14
723 1 2.10633 10.7781 1.39231 21
724 1 -5.96828 3.05363 17.2342 11
725 1 -7.6689 -9.35678 -5.33391 22
726 1 -6.76551 -13.1268 -12.1837 10
727 1 -4.81769 -15.3224 -6.79571 17
728 1 -1.94895 13.4163 -6.40997 9
729 1 3.31471 -3.96796 -10.0402 22
730 1 -4.85851 9.92828 3.62763 19
731 1 -0.64422 -14.1034 -6.98779 20
732 1 10.1646 -14.0048 1.23998 18
733 1 2.34364 -11.6001 10.4598 17
734 1 17.7494 1.17126 -8.53572 8
735 1 4.57657 -14.2603 -1.75551 19
736 1 -12.0104 -4.296 10.8025 13
737 1 2.48293 -2.22785 -7.14699 24
738 1 -4.58172 -19.1098 -2.2849 17
739 1 -9.4111 -12.7047 -6.17273 12
740 1 -6.76396 -1.24491 6.10484 20
741 1 -5.68985 -21.2914 2.53741 8
742 1 16.3718 3.0377 -1.80638 18
743 1 -4.82123 16.7904 3.27739 11
744 1 -2.50757 4.19295 6.31142 21
745 1 -12.3642 5.73249 4.2058 13
746 1 11.8815 -5.93707 2.07784 20
747 1 -14.7632 -4.50862 -11.0375 7
748 1 4.4343 7.69661 -7.81851 16
749 1 7.76325 0.826298 -2.55072 20
750 1 7.04616 12.5161 12.3637 13
751 1 13.0516 -0.216714 -0.0203847 17
752 1 -9.03395 3.95763 -9.14476 19
753 1 -10.9495 -6.09358 -7.74938 20
754 1 -3.35794 -0.918941 14.0848 19
755 1 -1.22419 3.00709 -7.34303 24
756 1 10.8649 6.98229 4.05834 21
757 1 -3.39141 -3.08592 11.3444 21
758 1 -7.3713 -18.0541 -3.1825 16
759 1 -5.98834 -16.1366 6.0267 20
760 1 -1.21186 -7.96263 8.48916 22
761 1 14.516 8.59694 5.18162 11
762 1 4.47382 -6.67954 -9.8095 18
763 1 -6.01376 8.96357 -6.27545 18
764 1 6.91948 8.74066 5.30778 16
765 1 -4.55661 -9.511 6.66379 21
766 1 14.0542 -1.32813 -11.6424 12
767 1 1.75094 -18.2372 0.431992 14
768 1 0.576963 -17.2778 -2.43671 22
769 1 0.897929 -14.6203 3.44447 19
770 1 8.15669 3.26173 -5.25271 25
771 1 6.34716 13.7667 2.64787 14
772 1 0.460502 2.17695 -12.0554 20
773 1 2.05982 -4.261 15.0358 20
774 1 5.10054 1.44047 -13.3494 20
775 1 -16.8909 -3.65888 -7.69703 7
776 1 -8.54113 -5.67566 -1.136 22
777 1 6.3169 12.0881 -2.9194 19
778 1 8.24089 -3.71137 -0.481746 20
779 1 -4.50993 -11.0967 -12.7452 15
780 1 -4.49933 -9.96087 1.13009 19
781 1 9.30663 3.99187 -2.29162 22
782 1 12.0401 -8.12715 -2.10637 19
783 1 -6.18812 7.44391 14.7872 15
784 1 14.5359 -13.1179 5.55729 10
785 1 14.819 -9.3834 -4.35408 12
786 1 15.6239 -6.52835 6.76326 13
787 1 -2.89745 9.12574 5.29812 15
788 1 -9.55233 -2.01477 11.1898 22
789 1 -5.71155 8.07548 9.34445 19
790 1 -7.41454 -20.7985 -0.393432 11
791 1 9.58209 -2.66504 2.1053 22
792 1 7.3592 3.2068 10.3567 20
793 1 -15.5053 -2.26905 0.877247 13
794 1 8.32814 -12.2703 -3.96553 20
795 1 -10.0745 10.6846 -0.234459 13
796 1 1.24455 6.40697 3.71862 21
797 1 2.45183 -15.4498 6.0136 21
798 1 5.14385 -2.51754 15.8769 17
799 1 1.03419 13.2146 6.45251 17
800 1 4.00902 -12.4796 5.61648 21
801 1 -11.0307 -3.29679 -5.04921 21
802 1 5.22766 -5.13964 14.3681 22
803 1 -12.6823 -2.6565 0.637821 19
804 1 1.29092 6.04708 14.6098 14
805 1 3.69855 8.81999 4.00722 21
806 1 -10.6961 -17.2246 3.47868 12
807 1 -5.55267 -12.5584 5.96826 23
808 1 9.32023 -5.36832 7.21261 19
809 1 11.5773 -10.4492 8.75532 13
810 1 8.60631 6.06623 9.76023 23
811 1 -3.92002 3.15088 -1.69158 20
812 1 0.12468 -12.5077 -4.72089 19
813 1 3.25166 -1.42812 -12.8758 22
814 1 -4.8162 -5.38899 11.0164 16
815 1 -3.17809 15.4842 5.44665 14
816 1 14.1477 -3.81076 3.98589 18
817 1 9.42764 8.6128 -8.31521 13
818 1 -1.45769 -0.368925 16.2395 14
819 1 9.26819 4.39639 12.6232 21
820 1 0.167032 -9.89244 -10.0318 17
821 1 -9.59362 -12.4749 -0.829485 19
822 1 -5.18075 -5.57053 -2.46722 20
823 1 18.3741 -0.585467 2.7716 10
824 1 -2.59066 0.560781 -7.05158 23
825 1 -5.67265 3.64083 14.3566 20
826 1 11.7185 -9.87582 0.112333 18
827 1 10.0025 2.12286 -16.3989 9
828 1 -1.25018 -11.5449 -1.005 20
829 1 12.8631 -0.56873 -7.27755 19
830 1 15.4969 -8.50112 -1.14352 12
831 1 -0.0720015 -10.096 13.3299 18
832 1 -3.52336 -9.71129 -9.59104 16
833 1 9.17613 12.0239 -1.5743 16
834 1 -1.16654 -9.63865 6.037 24
835 1 -15.2171 3.25531 3.90269 11
836 1 14.4186 1.50498 -4.37763 19
837 1 14.9254 2.48507 3.18572 17
838 1 3.35902 -12.2119 -10.3018 19
839 1 -4.94439 13.1191 4.60404 17
840 1 14.4797 3.84967 6.0358 16
841 1 10.4693 6.16305 -6.61405 18
842 1 7.95396 -3.64855 -16.2523 11
843 1 8.75524 -8.83365 -0.340837 21
844 1 -7.77319 -3.95316 -3.47422 18
845 1 9.6629 4.74023 6.11555 19
846 1 -11.8942 -9.97381 0.175524 19
847 1 -9.46846 6.13278 -11.6321 11
848 1 4.15725 2.92564 9.84193 22
849 1 -15.8905 -3.81021 -4.93074 13
850 1 -13.1073 2.69296 5.85906 13
851 1 1.42452 -1.08005 -9.89265 22
852 1 8.4099 -9.63234 -12.9076 12
853 1 -12.4477 -11.5573 -5.36181 10
854 1 14.0162 -11.2168 0.421832 11
855 1 -13.6695 0.842146 -3.95859 20
856 1 -12.5805 -0.546227 -6.66586 22
857 1 9.20322 7.98477 6.98555 22
858 1 -8.97738 -12.1832 6.88106 22
859 1 11.3353 -5.66267 14.9297 11
860 1 16.2874 -3.62711 7.52145 12
861 1 8.12828 -3.46944 5.02353 24
862 1 -11.0403 3.10542 -1.69598 18
863 1 5.56274 9.59053 11.644 15
864 1 5.63748 5.98487 -4.13831 18
865 1 -8.62451 -8.95478 -14.555 9
866 1 -3.17826 16.3584 0.836493 14
867 1 -12.0133 -14.7347 6.38466 13
868 1 12.1764 5.95294 -4.63063 15
869 1 -0.0835079 3.51725 13.374 18
870 1 15.7824 -3.50822 -1.7692 17