ITEM: TIMESTEP
20000
ITEM: NUMBER OF ATOMS
2000
ITEM: BOX BOUNDS pp pp pp
-30.0 30.0
-30.0 30.0
-30.0 30.0
ITEM: ATOMS id type x y z Coordination
1 1 -7.27753 8.63097 -10.538 24
2 1 -4.94381 -10.1799 -5.06158 15
3 1 1.14576 17.3385 13.933 15
4 1 6.47718 -7.95747 6.91374 18
5 1 -10.4629 10.3172 -1.08749 13
6 1 10.6334 -3.71181 -5.91713 21
7 1 -13.3077 10.7849 -6.28467 8
8 1 -0.368421 0.198262 15.2379 18
9 1 -10.7889 1.79585 -6.85684 21
10 1 -13.0753 -5.50314 7.85219 19
11 1 12.0663 10.4535 -7.03195 18
12 1 -3.62112 -8.61447 2.84761 22
13 1 -16.2506 -6.06216 2.3385 15
14 1 7.22505 5.36161 18.7101 10
15 1 -0.347843 7.80107 8.74306 19
16 1 -1.51121 9.79523 -9.74188 22
17 1 -0.149742 8.70559 16.4486 14
18 1 -8.84795 0.319815 -11.9494 13
19 1 -12.0322 2.46015 13.4035 12
20 1 15.7172 3.80366 5.58398 11
21 1 0.398458 12.9682 -10.0741 18
22 1 6.37545 6.50626 -8.91693 20
23 1 15.9594 5.47507 10.6475 13
24 1 -11.3881 8.38738 -7.08918 14
25 1 -0.899771 -0.588466 -7.04491 20
26 1 -7.13099 11.9275 7.64867 19
27 1 7.3492 -13.3437 7.35389 7
28 1 1.84869 -13.2119 -10.1111 7
29 1 10.5862 -9.74045 4.62985 8
30 1 -8.61374 -5.99188 -2.47256 18
31 1 -14.4596 -2.49525 7.6014 16
32 1 3.97483 -7.25915 -11.9707 15
33 1 8.34609 -6.35956 -6.70392 22
34 1 -1.73509 7.44996 -15.0617 13
35 1 6.23741 13.2951 14.6482 15
36 1 -0.213603 -7.84996 11.7547 15
37 1 4.06443 2.16395 11.7946 20
38 1 -13.8442 2.65967 1.26143 19
39 1 -17.0271 4.34585 8.89592 12
40 1 -10.0922 4.61584 -0.163945 23
41 1 -6.18235 14.9854 3.02734 22
42 1 -3.48983 -8.27494 -7.46861 17
43 1 1.12482 4.48077 -9.493 21
44 1 5.88985 -0.793463 -6.66743 18
45 1 7.44795 1.7989 18.0354 12
46 1 -12.0821 7.71543 4.92069 19
47 1 3.68591 16.9705 -4.23029 18
48 1 1.48858 20.1699 11.6068 12
49 1 -9.32432 7.46674 -7.73332 20
50 1 -2.23369 19.0921 2.16804 13
51 1 2.84923 -9.53002 4.20002 22
52 1 6.88387 -3.97032 -0.853319 20
53 1 8.05267 -5.67454 -10.5209 11
54 1 -6.01325 9.01761 15.8493 10
55 1 -12.9976 -3.45961 -4.75179 19
56 1 7.80604 0.725448 6.88771 21
57 1 -7.26342 17.4242 -2.7554 11
58 1 -7.59379 -7.14721 5.03978 20
59 1 -3.67215 19.5738 7.02996 12
60 1 -10.9629 11.8328 -3.84469 17
61 1 -2.5198 13.5811 17.3074 8
62 1 -9.12267 -9.89216 5.11492 20
63 1 2.71218 7.77723 9.11382 20
64 1 4.9541 -12.6895 -1.42767 19
65 1 13.2545 12.9311 14.6563 12
66 1 -11.1319 8.48104 -10.7873 11
67 1 -9.88149 10.9052 -8.94883 12
68 1 3.16561 15.7875 11.7508 19
69 1 13.6393 2.19618 -7.78143 18
70 1 7.7931 -10.9458 6.01139 11
71 1 -15.323 0.0114427 1.51636 20
72 1 4.63033 18.4035 7.06187 19
73 1 6.54161 -1.63877 18.2549 7
74 1 -12.2473 -11.4321 8.48944 10
75 1 -11.6479 1.43887 -0.968267 19
76 1 10.6034 6.66854 7.2225 20
77 1 -5.17879 17.4093 9.55565 17
78 1 5.99065 2.02085 9.10964 22
79 1 -2.67707 -2.90775 -6.84808 21
80 1 -14.2397 0.111124 11.8778 12
81 1 -8.31917 13.6986 -1.03006 16
82 1 1.18185 8.19741 -6.76746 23
83 1 8.91573 0.958949 -3.26057 20
84 1 9.12618 13.9217 -10.1254 10
85 1 9.98135 -2.65748 6.16086 14
86 1 6.60422 -10.3417 9.02038 11
87 1 -4.35705 17.0811 -2.2318 16
88 1 -8.63286 13.1104 5.36569 21
89 1 -7.70377 -3.99571 13.5084 16
90 1 -3.77309 10.0806 6.68237 23
91 1 -6.93149 -3.07016 9.07432 21
92 1 15.3018 -3.51414 -5.72675 11
93 1 -9.10078 5.19733 8.38508 23
94 1 -12.9865 -7.23002 4.89565 20
95 1 10.3995 -3.85014 -0.727066 23
96 1 8.43477 -2.95424 -8.25306 19
97 1 -5.15324 2.67377 -8.70678 19
98 1 0.0324988 14.1128 4.0503 24
99 1 -8.03072 16.0951 -5.16342 11
100 1 2.36465 12.6696 16.4581 15
101 1 -2.19195 15.8071 -5.88363 16
102 1 -13.089 11.0471 4.77001 15
103 1 1.72003 13.0411 1.17976 21
104 1 -5.72912 -4.19533 4.89886 20
105 1 12.431 1.31824 13.5898 12
106 1 0.60552 -3.23706 -6.59083 20
107 1 0.934157 -2.1468 -9.948 21
108 1 -3.65422 7.73814 8.92796 20
109 1 5.36137 1.52884 14.5101 18
110 1 -11.9395 -3.65983 -0.968915 19
111 1 -7.48834 -4.40374 -5.84713 21
112 1 8.50897 -7.38668 2.95143 17
113 1 -1.56384 11.2617 3.23613 21
114 1 9.74164 9.98993 -12.9522 10
115 1 3.78136 19.3815 3.49583 15
116 1 -5.73687 -11.3459 10.6143 12
117 1 -9.06528 -11.7106 9.73975 13
118 1 4.96265 -4.52864 -10.0578 15
119 1 5.40389 6.91596 -3.38614 23
120 1 10.1503 -9.33004 0.722198 10
121 1 -1.85227 -14.3293 9.03955 11
122 1 -12.8624 -6.27785 1.39069 20
123 1 13.7883 14.1105 6.14145 14
124 1 11.6951 5.41693 -8.60522 21
125 1 -16.346 0.829923 8.97631 14
126 1 12.7295 7.60925 4.6668 18
127 1 18.8574 10.9171 4.3014 10
128 1 -1.05791 0.900106 18.1541 13
129 1 -8.4185 12.9367 10.9242 14
130 1 -2.81085 14.0747 -1.79272 20
131 1 -0.365716 -5.38987 -8.821 15
132 1 12.2963 -6.38715 -7.09137 11
133 1 -0.53589 15.6618 -9.18848 13
134 1 7.80787 -0.651739 15.5625 14
135 1 3.81723 4.0938 -16.69 10
136 1 -1.20572 10.9861 -1.39774 23
137 1 12.2205 5.11775 -0.637149 20
138 1 -9.77491 9.03583 -4.10827 21
139 1 -9.34746 14.986 2.36703 16
140 1 11.0991 1.88832 -5.27747 24
141 1 5.44639 -3.20787 10.1979 19
142 1 -5.82787 4.69049 -5.37381 20
143 1 -5.35242 14.4063 11.75 16
144 1 10.0748 15.9704 -6.99384 12
145 1 6.74906 13.056 -1.49427 19
146 1 -5.64317 19.0515 0.0731374 9
147 1 11.4047 12.1189 0.93158 21
148 1 -2.85394 20.2648 -1.36009 12
149 1 2.62304 14.9515 -10.3273 13
150 1 2.10077 6.3596 -12.2257 19
151 1 -14.6462 -5.48958 -1.16539 22
152 1 -15.2793 7.96858 4.16104 15
153 1 -2.25267 2.29246 -13.958 16
154 1 3.81621 -9.96997 -11.2817 11
155 1 11.4169 13.6476 12.3713 13
156 1 2.90271 21.5661 6.36487 8
157 1 -16.3727 4.79906 -5.23784 9
158 1 -11.3582 14.3453 -0.0574392 9
159 1 17.8754 6.85604 -4.55554 13
160 1 -7.86391 3.74935 -13.0313 14
161 1 8.03039 9.53533 15.3178 16
162 1 8.72693 19.6904 1.4614 11
163 1 2.10629 13.8801 9.81553 22
164 1 0.299444 -7.72308 -11.988 13
165 1 -4.39905 16.9585 4.36301 17
166 1 -3.26376 12.8375 -4.3597 15
167 1 3.48837 -0.97671 19.6459 5
168 1 -13.5956 -3.74798 1.99281 18
169 1 -3.09312 -8.40937 -11.3832 8
170 1 -4.03308 15.6562 -8.46602 13
171 1 -4.52332 -6.92476 5.45462 21
172 1 4.08959 -14.235 -3.83933 9
173 1 -0.770387 13.3946 -4.05716 20
174 1 -16.356 2.27904 11.6212 8
175 1 13.4295 16.3637 -1.76127 11
176 1 -5.67528 2.75679 14.206 22
177 1 2.29657 -8.37571 13.1612 11
178 1 -14.0954 7.69742 -5.29499 14
179 1 -0.570858 17.7665 7.22618 18
180 1 1.05808 11.3997 12.1051 21
181 1 15.5468 8.36543 8.99531 18
182 1 -6.98909 16.0254 6.01459 18
183 1 11.1669 -0.941813 -7.65983 21
184 1 -4.32864 10.5418 13.4839 20
185 1 -3.96389 5.35643 -7.93524 23
186 1 13.9078 -4.12545 4.3276 11
187 1 -8.77525 -4.08366 5.45287 20
188 1 -15.0594 5.59001 2.24321 15
189 1 -10.4612 -7.25668 6.07224 21
190 1 4.92454 10.449 15.6103 16
191 1 -14.7936 4.98961 -3.29855 15
192 1 -2.70281 -11.5838 2.77525 22
193 1 5.28436 -6.84145 -1.37157 18
194 1 -1.9459 12.7802 6.27668 21
195 1 9.68729 16.0322 12.4422 13
196 1 -7.43705 1.69802 -5.25346 19
197 1 -5.10783 17.3175 -5.74879 11
198 1 -14.6847 -0.67515 -3.60721 14
199 1 -10.9661 0.203594 12.2069 17
200 1 -1.10165 -7.46025 6.34359 22
201 1 2.20532 -11.3391 6.76925 17
202 1 -9.41485 14.4714 8.43 19
203 1 18.5315 1.75705 3.45772 8
204 1 7.24246 3.9062 -3.48194 23
205 1 -7.64849 -4.36367 -12.472 13
206 1 2.28866 -2.41137 11.6917 23
207 1 3.82951 -12.2329 3.8293 16
208 1 -4.11902 10.4162 -10.7077 23
209 1 2.77096 -8.50415 -8.80141 16
210 1 8.94413 10.3213 -9.95208 15
211 1 3.09689 9.49585 -12.3623 17
212 1 -5.69152 -1.36302 -5.17804 21
213 1 -1.97136 18.2695 -4.10302 13
214 1 -12.9857 -6.16528 10.5662 13
215 1 7.42213 19.0015 -0.971468 15
216 1 -3.34638 8.72092 15.6164 13
217 1 -10.224 14.927 -3.2524 12
218 1 12.0008 3.2181 7.39855 19
219 1 -5.79219 -1.76337 -13.736 15
220 1 -2.36195 10.014 -4.42515 22
221 1 5.12303 3.07604 -8.52446 17
222 1 -8.62349 -7.95142 8.37059 17
223 1 -9.88189 2.12339 10.0354 18
224 1 -6.83014 9.39537 13.0681 15
225 1 1.88869 -4.75745 -11.3348 17
226 1 -2.24759 -10.1688 -0.108612 21
227 1 6.88048 -9.76023 -2.19308 13
228 1 16.3776 8.41291 12.2964 12
229 1 4.5412 19.1882 -6.18548 10
230 1 -4.08715 11.1787 -2.19174 21
231 1 -8.84292 7.10661 5.53458 20
232 1 -13.3498 8.38773 1.66922 17
233 1 0.911702 7.67341 12.1899 19
234 1 2.39879 -13.0347 1.05312 23
235 1 9.63013 3.59783 2.45597 22
236 1 3.24379 9.81372 6.78807 22
237 1 -15.438 7.14874 10.0676 10
238 1 -16.775 -2.65384 2.25323 15
239 1 6.3215 10.958 -11.8378 13
240 1 -0.916377 -1.1292 11.9312 20
241 1 11.3325 13.2731 -5.32976 19
242 1 2.77954 -7.3037 1.73714 20
243 1 -2.81686 1.93316 -11.1264 18
244 1 0.629656 -12.9092 8.30469 16
245 1 12.353 1.34249 -2.71524 21
246 1 -6.90372 2.60602 8.70819 20
247 1 3.952 -15.6519 -0.356608 11
248 1 -9.91833 -4.22391 -7.41835 18
249 1 2.4162 19.3717 1.1809 17
250 1 -3.12638 -1.28369 -12.6442 18
251 1 10.0138 8.47347 13.4261 20
252 1 16.6296 3.92774 -2.91686 14
253 1 13.2793 -0.238108 -10.5872 10
254 1 -11.2591 2.17534 -10.392 14
255 1 -14.3473 2.18682 -6.79366 15
256 1 -1.39207 -11.9022 11.0769 15
257 1 8.48154 5.47239 13.8765 17
258 1 4.52218 -0.872134 9.07144 19
259 1 -7.49765 -5.00848 -9.30422 16
260 1 0.170524 -6.89518 9.36241 20
261 1 -0.588109 11.2945 -7.00165 23
262 1 4.87478 11.2435 4.5721 19
263 1 -7.6083 -3.21113 2.68275 19
264 1 -0.490064 14.7821 7.70932 20
265 1 -8.0255 -1.26194 10.79 21
266 1 -12.4059 -3.06233 -8.18796 15
267 1 -1.27618 -3.56664 -11.811 17
268 1 -1.45017 8.2391 -12.3296 19
269 1 -5.78224 -8.33336 -2.27442 17
270 1 -2.05413 -6.23081 3.52782 22
271 1 6.62196 -2.61231 -14.5882 10
272 1 14.6313 5.74396 -8.76227 16
273 1 18.9467 9.58587 1.36655 11
274 1 -8.73948 -3.97018 11.1993 20
275 1 -6.8579 -7.14853 -0.104609 19
276 1 14.107 11.1398 16.718 8
277 1 -10.0991 -12.6593 6.39864 12
278 1 1.04681 -8.90199 6.85055 21
279 1 -0.313443 21.4816 0.240216 11
280 1 7.90702 3.17599 -12.1334 17
281 1 -7.77203 4.25047 -15.9876 8
282 1 -11.926 -3.23499 9.84771 16
283 1 5.09374 7.83689 17.3605 14
284 1 2.96528 -9.76244 -1.24634 19
285 1 -6.39226 -7.73628 -7.75723 15
286 1 -6.9338 5.71874 -8.28156 20
287 1 15.5848 6.35072 5.20023 17
288 1 -6.05213 8.73035 -8.0587 19
289 1 3.85336 6.40755 -9.12993 20
290 1 6.14322 -7.83302 -8.95837 18
291 1 -3.39715 15.7955 0.742973 21
292 1 3.77915 13.5699 4.34509 22
293 1 14.1782 1.17985 6.94859 14
294 1 -10.644 -1.0475 5.55282 22
295 1 -3.75521 -9.76511 12.69 11
296 1 -7.31202 10.1965 4.95446 19
297 1 2.58263 1.43251 -9.72623 20
298 1 15.6145 14.1486 -0.00766122 12
299 1 5.99957 -9.6175 4.02469 16
300 1 -0.850921 -2.8477 14.6657 15
301 1 -16.1198 -0.375827 6.28453 14
302 1 -2.55293 -15.319 1.51246 14
303 1 -4.25664 11.4418 17.3844 11
304 1 -6.66433 2.7178 17.4999 12
305 1 -12.0878 -0.104568 8.75156 19
306 1 -15.0327 -3.95754 4.85628 16
307 1 13.5909 -1.94796 1.46507 20
308 1 -14.0191 -2.95735 12.6544 9
309 1 15.6605 -0.117684 -6.92252 10
310 1 11.7746 -5.40762 -4.15979 13
311 1 5.34573 20.9281 0.349868 13
312 1 -7.96713 11.9383 2.34384 18
313 1 7.48334 13.4734 11.316 20
314 1 -10.2641 2.79156 2.0427 21
315 1 8.57575 -7.36365 -1.04361 16
316 1 -3.375 14.1034 3.53447 20
317 1 -7.0698 8.264 8.28972 21
318 1 6.185 -5.85927 9.99437 12
319 1 12.2145 -1.01509 5.2698 17
320 1 -2.30455 10.1663 9.03892 17
321 1 -6.5823 -3.12555 -3.12492 21
322 1 -4.33938 1.76653 18.6642 10
323 1 -3.41622 16.5357 7.44462 18
324 1 13.4183 9.39377 14.0558 15
325 1 -6.02099 14.444 -7.14816 14
326 1 7.96383 0.153581 -13.5787 14
327 1 9.52632 -8.37959 -8.8346 10
328 1 -3.4594 -0.183451 13.486 20
329 1 -13.9323 5.32586 5.27498 19
330 1 -4.59916 -3.26025 -11.1473 21
331 1 -4.65684 11.5294 3.10528 22
332 1 7.07776 0.85153 12.2722 16
333 1 -15.8144 -7.60564 4.34288 11
334 1 5.25757 -4.76321 12.6932 16
335 1 -11.6271 -9.29664 11.587 10
336 1 -14.0785 7.83502 7.15841 15
337 1 -0.168718 -4.33904 11.4874 20
338 1 1.69802 -6.1393 -6.67531 18
339 1 -2.10647 2.32751 -7.57341 21
340 1 13.1304 3.07461 -10.3111 14
341 1 2.4536 17.0495 9.15965 20
342 1 -9.47849 2.36187 -2.79434 20
343 1 6.98647 -3.68597 -6.11445 21
344 1 11.6548 10.1895 -10.2453 13
345 1 -3.05288 -13.0868 -4.29765 11
346 1 -12.4993 2.1187 -4.20055 18
347 1 -3.77673 -7.25867 -0.0958512 21
348 1 10.8913 10.124 16.0951 14
349 1 10.0366 8.01612 -0.277575 21
350 1 -6.71453 11.4651 -8.65805 20
351 1 6.77939 15.4871 0.648016 20
352 1 -12.0601 -5.71941 -6.11486 15
353 1 -9.1329 9.99645 10.3467 17
354 1 -9.99359 16.3785 5.1206 15
355 1 -5.7444 5.32619 9.16875 22
356 1 2.11167 5.76048 17.2389 18
357 1 9.52918 4.74392 -6.14724 24
358 1 4.56269 4.36975 17.7164 19
359 1 12.7409 8.06545 -8.56027 22
360 1 -8.79389 -10.2668 -0.351874 12
361 1 1.60968 -6.51315 -1.47282 22
362 1 1.71608 11.3211 3.90209 20
363 1 -8.54028 4.38195 -5.54147 21
364 1 4.87859 -10.6453 -3.8429 18
365 1 12.7512 1.50732 10.0942 13
366 1 -9.16886 -1.34191 -5.48033 22
367 1 -9.37963 -6.05531 2.8388 17
368 1 -8.92983 -6.60483 12.151 15
369 1 -1.35349 13.0902 1.13176 23
370 1 -10.6877 -6.46599 -0.24166 17
371 1 9.78551 12.3193 14.1843 17
372 1 -12.9915 10.2589 -3.33454 14
373 1 1.38978 13.487 -7.29633 20
374 1 7.33132 14.7931 6.19682 16
375 1 -17.4257 -5.12544 -0.326331 11
376 1 -1.42498 -5.82881 -6.213 22
377 1 -17.6471 2.36904 6.11318 12
378 1 -7.79007 11.354 -3.25405 18
379 1 5.11398 -5.10859 6.96375 22
380 1 -5.22482 -10.0281 0.322816 21
381 1 12.7811 15.1746 9.12817 11
382 1 5.15389 9.39521 -9.73335 20
383 1 -14.5427 4.19798 -9.13095 8
384 1 0.359019 18.1664 -5.60541 11
385 1 -7.63152 7.4503 -5.16912 21
386 1 -3.0841 -9.41765 5.71729 19
387 1 13.9056 3.81343 11.6429 14
388 1 1.44167 12.043 -12.9735 10
389 1 2.43593 3.31318 15.2468 17
390 1 -12.977 5.15634 -0.571533 18
391 1 -6.80755 7.4408 11.0259 20
392 1 -6.56085 -9.24698 6.61169 16
393 1 4.07631 -3.14176 -6.24168 20
394 1 -10.7902 5.0099 5.75023 21
395 1 -11.4156 -4.15266 12.9869 10
396 1 -9.68685 7.49108 10.7725 15
397 1 -0.440197 -3.779 7.85156 19
398 1 -5.09317 3.29695 -15.9549 11
399 1 8.84652 -5.34797 -3.29797 18
400 1 2.73203 -8.11888 -14.4317 9
401 1 -3.09911 -3.16066 12.7972 17
402 1 -3.38402 5.06401 -13.2927 21
403 1 5.66535 -16.2968 5.69239 10
404 1 2.40336 12.6624 -4.8583 19
405 1 -11.7621 12.4612 9.99424 11
406 1 -6.042 -6.83676 13.6909 15
407 1 -12.5678 -0.572085 -6.57303 19
408 1 -9.70898 -2.25417 8.08039 20
409 1 10.615 -1.4905 14.09 9
410 1 2.53208 5.14599 -6.45902 24
411 1 9.46392 -7.96393 6.19068 15
412 1 16.4789 9.94951 -4.60323 16
413 1 -5.87522 -3.10227 16.4557 12
414 1 -0.389975 15.9728 1.24928 19
415 1 7.56116 -0.930146 9.82454 20
416 1 -1.85454 -9.93266 -5.44988 19
417 1 -3.79238 4.67848 16.6958 12
418 1 -1.35857 20.5509 9.63547 13
419 1 -9.50289 -7.5833 -6.36178 12
420 1 10.1846 13.5285 3.71277 17
421 1 3.04849 11.0675 9.83569 20
422 1 -4.76519 4.66989 11.639 19
423 1 -5.47923 -5.39414 -2.60361 21
424 1 -8.5481 1.63486 12.6776 21
425 1 -10.8698 -0.705696 -8.84749 18
426 1 -3.71809 12.5119 8.89529 19
427 1 -3.3616 -7.14039 -3.92774 23
428 1 -4.15042 -5.82342 -13.3477 12
429 1 -5.13474 -10.7356 4.25076 21
430 1 -7.32094 -1.30004 5.66163 22
431 1 10.9738 0.480738 7.85441 18
432 1 -5.26707 -5.38807 10.6126 17
433 1 -4.96826 11.6352 -13.166 12
434 1 6.85754 7.41992 -0.900088 22
435 1 -12.4273 -9.71485 0.20109 14
436 1 5.91803 18.5861 1.50839 21
437 1 -0.990811 6.85804 -9.51755 21
438 1 -2.35248 12.8072 12.0199 22
439 1 -17.1318 2.0696 -3.30436 8
440 1 2.64823 20.8213 -1.42319 12
441 1 5.30614 12.5401 -4.18077 18
442 1 -6.56936 -2.82712 -8.5671 19
443 1 3.77967 6.25455 19.814 11
444 1 0.123711 -13.8078 -4.66995 12
445 1 -0.198718 1.09696 -10.1263 22
446 1 7.78829 -14.459 3.8811 9
447 1 -13.4072 13.6041 2.22082 10
448 1 5.44657 14.1594 9.3736 18
449 1 9.6421 9.64378 2.51545 17
450 1 4.92778 12.4494 1.02675 21
451 1 -7.46214 11.1553 -11.8204 14
452 1 4.72291 4.53814 -11.4483 19
453 1 0.996492 -6.52732 3.83507 20
454 1 -12.7566 -1.02596 0.453 21
455 1 1.47161 20.273 8.24178 16
456 1 -3.70329 6.962 -10.9234 21
457 1 13.3692 7.80632 -0.332782 23
458 1 5.49257 20.216 -3.24014 14
459 1 9.92307 -4.57535 3.917 17
460 1 14.3939 8.34435 -5.71033 22
461 1 0.666814 4.11395 -14.9906 17
462 1 1.10441 -9.88978 1.48911 21
463 1 4.38993 -10.8464 11.7763 8
464 1 2.59624 -5.73577 11.7712 18
465 1 -8.95605 3.46602 -8.50883 17
466 1 -11.9989 -8.16194 8.8401 18
467 1 0.368616 -8.72809 -6.90312 20
468 1 7.8167 18.0427 7.2936 11
469 1 -2.78695 8.26407 -7.23699 21
470 1 2.26959 6.87081 14.8395 18
471 1 -11.0099 4.88111 11.618 16
472 1 -0.517771 -14.1862 3.43943 20
473 1 -11.8255 0.451461 2.90821 20
474 1 13.1993 0.651914 0.71958 16
475 1 10.2928 1.83956 -0.3487 22
476 1 -5.7303 10.61 -5.52613 21
477 1 1.93115 -4.75557 -4.17154 21
478 1 4.73768 7.7093 -6.56014 21
479 1 11.7431 -1.08815 -0.67715 21
480 1 -7.26532 -5.58264 16.4715 8
481 1 9.95598 13.5033 -1.14478 19
482 1 -3.07472 -0.296051 -15.413 10
483 1 6.4183 5.08011 -14.1702 14
484 1 -5.94972 -0.472502 8.14703 19
485 1 -6.53739 16.2341 0.0433588 18
486 1 -5.05628 -0.278035 -10.494 17
487 1 -17.6111 1.53111 2.49866 7
488 1 0.979559 -10.1211 -10.3224 15
489 1 -7.8903 -9.3003 11.4069 14
490 1 0.657522 10.0521 -4.1627 22
491 1 15.2976 4.14046 8.42652 14
492 1 17.2249 11.4107 -1.2393 14
493 1 -13.6975 -8.52472 -1.83264 15
494 1 -0.513088 -7.336 1.02675 21
495 1 3.58465 -2.2288 -15.5712 11
496 1 -3.93376 13.86 14.7322 15
497 1 2.32396 -0.506909 -7.04668 21
498 1 11.1129 0.324727 2.5661 20
499 1 2.19985 20.5721 -4.8465 10
500 1 6.56213 -4.35897 4.25077 21
501 1 12.9498 15.6333 -5.09003 10
502 1 0.992382 14.1002 13.3966 23
503 1 -8.75255 0.359551 7.76582 20
504 1 4.78589 12.758 7.29841 20
505 1 7.73582 3.90075 16.5237 15
506 1 6.16495 0.957872 -10.9044 19
507 1 -4.76714 -4.56379 -5.5306 21
508 1 0.654964 0.81852 11.7263 18
509 1 10.2469 15.2894 7.13247 15
510 1 7.08037 9.54266 -3.71884 19
511 1 -8.51497 12.771 -5.63277 16
512 1 3.1918 14.2039 -2.20185 20
513 1 10.4196 1.51307 16.0337 10
514 1 15.2191 9.08653 -10.2377 11
515 1 11.9499 -7.23843 -1.24082 11
516 1 16.5521 11.4382 10.4951 12
517 1 -14.2386 -9.80121 2.38738 10
518 1 -3.00307 14.4827 -12.0979 12
519 1 3.15197 6.03179 11.6987 19
520 1 -14.4296 2.43557 6.92918 21
521 1 -2.38482 13.3718 -9.02826 21
522 1 1.73168 -10.3443 -4.22702 21
523 1 7.2196 2.01903 -6.17286 22
524 1 -1.54093 17.5674 -0.971031 18
525 1 -8.7991 -1.59683 -13.9408 10
526 1 1.28214 -12.131 3.41908 20
527 1 -15.1987 -2.22285 -0.424224 20
528 1 3.31119 12.0118 -10.2282 24
529 1 3.95412 12.6586 12.9142 26
530 1 -15.7363 -1.557 9.9141 9
531 1 6.56441 9.45915 1.29231 20
532 1 0.438614 -7.64723 -3.84413 21
533 1 2.45305 -3.69174 14.6872 11
534 1 -10.4015 8.63169 1.8079 15
535 1 7.92607 12.3823 16.9861 9
536 1 6.11631 15.5278 -3.13732 17
537 1 12.0609 -4.88919 1.80617 16
538 1 6.70155 10.45 9.70135 21
539 1 1.04883 9.1569 -14.436 12
540 1 -1.56815 -9.58207 8.70464 16
541 1 0.860686 2.36599 -6.61772 24
542 1 10.5568 6.88518 -14.47 6
543 1 2.84539 15.7185 6.68196 18
544 1 9.48056 7.79904 -8.33968 20
545 1 1.94007 -0.738033 -12.2145 16
546 1 -0.664543 -9.3478 3.77452 23
547 1 -12.2603 -1.14699 -12.2327 10
548 1 15.7333 7.35357 -2.60413 22
549 1 17.9625 3.25997 0.423857 11
550 1 10.4012 -2.07185 -3.27257 19
551 1 12.9442 9.41088 8.13219 19
552 1 6.72536 -7.73109 -4.17473 19
553 1 5.28424 7.42481 -11.9389 21
554 1 7.41976 16.8927 2.99814 16
555 1 -8.78151 5.68006 2.72272 23
556 1 16.1456 11.4301 13.7666 11
557 1 11.792 10.3584 -0.800031 20
558 1 11.033 4.48344 4.54479 23
559 1 16.9604 8.14827 -7.62326 13
560 1 2.27661 9.19506 17.6336 13
561 1 15.5421 9.83066 3.54027 19
562 1 4.87862 -0.893664 12.0608 24
563 1 13.0105 15.5796 1.14423 15
564 1 2.66884 -0.130102 14.2352 20
565 1 12.7849 5.3882 -5.64377 24
566 1 7.8763 8.11287 11.4905 20
567 1 -4.20584 -0.202775 -7.36168 22
568 1 14.3092 5.87806 2.22555 18
569 1 15.1265 -1.04824 4.31263 9
570 1 -6.026 12.2542 14.7971 13
571 1 10.3901 14.4626 10.0293 20
572 1 12.0758 6.53572 13.2377 16
573 1 7.8754 12.5971 8.07252 22
574 1 -0.352696 11.9728 9.27509 23
575 1 9.45666 3.63254 7.81157 23
576 1 0.024744 -15.6784 6.47864 10
577 1 -5.98905 14.1188 -2.54362 19
578 1 7.19107 17.1468 -5.94147 12
579 1 10.1722 2.18333 -7.56883 17
580 1 1.64175 16.7317 -1.49203 18
581 1 -0.910322 -13.1943 -7.95096 8
582 1 10.9964 -1.81037 -10.5653 14
583 1 -12.2694 5.06608 8.6707 15
584 1 -3.56382 11.4159 -7.36996 22
585 1 -2.84879 -16.2631 4.90217 10
586 1 -5.86064 4.03923 -10.8107 16
587 1 -17.4045 -0.373367 -0.633461 12
588 1 12.456 -7.15004 4.17795 10
589 1 12.6566 10.2245 3.34759 16
590 1 -2.68411 -5.94052 12.9552 13
591 1 -13.5316 4.44016 -6.05777 16
592 1 4.72351 2.45404 -13.4849 16
593 1 1.42454 3.43751 19.0696 12
594 1 5.60684 14.6988 -10.4638 12
595 1 15.417 5.24929 13.3913 9
596 1 11.203 7.79292 -5.82967 21
597 1 13.6109 12.9719 3.32658 18
598 1 1.04296 -11.4544 -7.18147 19
599 1 -5.72261 -0.457905 16.5108 15
600 1 15.8925 0.427265 1.66779 11
601 1 -0.468472 15.5038 10.6047 19
602 1 5.5384 16.4092 -8.45109 11
603 1 -11.0901 13.3503 3.90253 15
604 1 11.6794 12.3415 8.03221 19
605 1 -10.0369 -11.6659 2.90706 13
606 1 15.8209 1.67715 -1.30879 12
607 1 6.72204 19.8975 4.59114 12
608 1 -1.57306 9.99335 12.0231 16
609 1 -10.6148 -2.87695 3.06455 21
610 1 -8.03863 0.510144 -8.03509 16
611 1 6.92258 10.731 12.689 23
612 1 -0.306478 -10.585 13.7184 9
613 1 6.09547 4.14594 12.1489 20
614 1 -5.65634 13.3722 0.56913 21
615 1 9.39485 9.41286 7.89286 20
616 1 7.73757 6.58911 7.40158 21
617 1 3.5185 6.38938 -15.2059 12
618 1 -11.4849 2.65163 7.52788 18
619 1 11.0774 1.3696 -12.7601 10
620 1 13.2165 -2.84443 -8.01199 15
621 1 9.82876 10.9295 10.984 25
622 1 5.82626 7.2363 9.79875 20
623 1 -9.46789 1.11217 15.7951 14
624 1 17.5577 6.39682 7.77191 10
625 1 -2.82038 -1.03131 17.2917 16
626 1 -1.34746 5.95047 14.2838 18
627 1 4.41714 -5.04074 -14.7195 11
628 1 -2.96166 1.79292 15.5893 21
629 1 6.11661 7.61875 14.2666 18
630 1 -7.35411 -12.251 7.63975 14
631 1 14.1366 10.1791 -2.44676 20
632 1 2.99417 -7.60664 -3.42212 22
633 1 4.99119 10.6787 -1.74255 21
634 1 12.2025 15.7832 4.36677 12
635 1 4.09959 -2.59899 -12.2318 19
636 1 3.68613 15.7137 1.52745 21
637 1 17.726 12.572 1.91291 15
638 1 -10.6363 -9.01678 -2.90955 13
639 1 2.20062 1.20122 -15.8973 11
640 1 -10.1551 10.4493 5.76143 18
641 1 8.63699 -0.653516 -5.703 21
642 1 10.3148 12.7628 -7.92696 15
643 1 10.1944 17.3196 -0.652978 14
644 1 -7.08656 8.46606 2.84757 20
645 1 8.35775 10.5982 -1.74242 20
646 1 11.4476 8.01426 10.4113 18
647 1 11.893 4.38304 14.2552 12
648 1 3.26872 -7.22691 9.79914 17
649 1 -6.41861 6.77038 -12.3699 20
650 1 7.77383 18.1134 12.8975 12
651 1 10.8245 -4.95085 -9.149 14
652 1 -0.00647313 4.15609 11.8778 16
653 1 8.6454 18.1913 -3.45967 11
654 1 6.83635 14.1348 3.26227 19
655 1 16.5193 -4.65906 -2.78044 7
656 1 0.395414 14.6574 16.367 12
657 1 -12.5233 2.98105 4.31187 21
658 1 4.69773 -10.7873 0.692668 17
659 1 1.5351 3.14812 -12.2047 19
660 1 -8.70038 17.7985 8.28234 9
661 1 4.9755 16.9086 4.44397 20
662 1 -13.6264 -1.66236 4.09565 20
663 1 -0.418855 11.7797 18.2993 11
664 1 -4.52056 8.8901 -12.6744 21
665 1 -6.7183 8.62455 -14.2986 12
666 1 1.56426 -14.2911 -1.61755 17
667 1 10.9076 9.67172 -3.32395 19
668 1 -9.04197 3.66952 15.1594 12
669 1 5.06307 0.355307 -16.0594 10
670 1 4.07162 -12.6237 9.69071 12
671 1 2.1377 17.0103 3.9095 20
672 1 -3.72624 -5.59425 15.6433 10
673 1 -9.67671 -2.95743 -10.3471 15
674 1 -5.71193 -6.59159 -11.1273 13
675 1 -6.67451 -7.04641 -4.51356 17
676 1 -0.0699947 19.6335 -2.59854 15
677 1 7.45026 -2.16247 -3.45504 21
678 1 -3.43822 15.3731 10.3491 20
679 1 5.17639 -4.9017 -3.58486 21
680 1 5.38697 -13.5974 1.3453 16
681 1 2.73666 -3.76727 8.97465 20
682 1 15.5428 5.25587 -5.84071 18
683 1 -0.198741 -11.9774 -2.21391 20
684 1 -13.5281 0.331071 6.0291 19
685 1 -5.05617 -14.0577 2.85216 16
686 1 -3.24445 -10.5162 -2.49724 21
687 1 -5.95674 1.81191 11.0355 20
688 1 -6.95377 -12.1244 1.70841 15
689 1 18.6206 9.10826 -2.32052 13
690 1 0.127186 19.5297 3.29066 16
691 1 -12.8712 9.23741 10.2167 15
692 1 9.76366 1.51308 4.90516 23
693 1 -13.667 0.34476 -9.26202 12
694 1 0.215623 14.1721 -1.47605 19
695 1 13.3312 6.57029 -11.3771 12
696 1 9.68622 17.6034 9.85927 12
697 1 9.09197 6.66122 -3.22712 21
698 1 -9.16486 10.0641 -6.27041 21
699 1 -10.9517 -0.604058 -3.19738 22
700 1 -0.742806 3.77914 16.5357 14
701 1 9.63344 11.0102 -5.69242 17
702 1 16.2647 12.5822 4.87514 14
703 1 -2.43274 1.60526 11.4335 21
704 1 -3.99117 -12.5817 -0.36689 16
705 1 -5.17694 -14.7778 7.02527 10
706 1 -3.74686 -3.27742 8.97044 21
707 1 13.1659 11.8921 10.9396 17
708 1 5.11106 -6.44075 -7.38282 17
709 1 -6.34672 10.3942 -0.104474 18
710 1 9.08881 7.76444 5.18857 22
711 1 -8.6231 -0.182869 2.95127 22
712 1 6.32664 12.2158 -9.27436 19
713 1 -2.0473 -13.8357 -1.90001 15
714 1 2.54898 -15.1917 4.34287 16
715 1 3.36417 -14.7415 7.4442 11
716 1 5.86027 4.80399 -6.40965 24
717 1 4.92864 16.837 -1.27379 17
718 1 -2.45434 4.86863 -16.1858 13
719 1 -3.0267 3.65839 13.8591 20
720 1 1.52065 8.48644 -10.1375 18
721 1 -6.79915 1.11009 -14.6293 10
722 1 -9.86538 -3.47055 -3.61085 18
723 1 1.31447 15.5175 -4.80268 17
724 1 1.24591 -2.92712 -13.9972 14
725 1 -8.9067 -4.14075 0.537781 19
726 1 7.83426 13.9514 -7.12014 19
727 1 11.6632 -5.71543 6.54057 11
728 1 -2.79239 7.07512 11.6511 14
729 1 4.72937 -7.27199 4.00765 20
730 1 13.9349 -1.99511 -2.51682 14
731 1 9.06796 1.79685 9.9835 18
732 1 1.58753 12.5181 6.79744 24
733 1 -11.0226 -1.79825 14.9711 11
734 1 -8.66357 7.02387 13.5125 13
735 1 1.26989 -12.786 11.4342 11
736 1 7.97883 6.68018 2.06372 21
737 1 3.79821 15.6466 14.5519 16
738 1 -14.8963 1.37199 -1.71328 17
739 1 8.51924 -4.91339 1.57352 20
740 1 -15.6148 11.2441 2.4232 9
741 1 -3.66346 -11.8934 8.05424 18
742 1 9.56092 5.11491 10.9438 16
743 1 4.11994 18.3056 12.1314 14
744 1 1.33605 -9.41549 10.3889 19
745 1 -7.97329 -0.294363 -2.42364 21
746 1 4.28471 9.31723 11.6223 21
747 1 -14.7687 -6.56337 -4.7561 11
748 1 -0.902566 11.0587 14.3463 18
749 1 10.173 15.3648 1.30744 15
750 1 -14.3896 -8.14043 7.86305 12
751 1 -3.27426 -13.1353 5.36248 19
752 1 5.48351 -2.21576 14.6093 14
753 1 8.44506 -4.98448 6.92835 15
754 1 14.9889 11.4755 7.56194 15
755 1 -1.60153 -4.09661 -4.25677 21
756 1 -2.25044 4.27416 -9.5746 23
757 1 -5.68846 -2.72857 12.0719 18
758 1 -0.995083 17.0207 4.55637 19
759 1 11.2255 6.51615 2.15802 22
760 1 3.68082 9.74335 -4.07869 23
761 1 -1.42393 15.5742 13.7865 16
762 1 6.5334 15.7035 12.6955 22
763 1 8.0464 6.22603 -11.3161 18
764 1 -11.2952 -8.87357 3.10024 18
765 1 16.522 3.92427 2.9116 16
766 1 4.07971 1.92101 -6.70846 22
767 1 1.88305 10.7053 14.4159 20
768 1 7.04139 -9.7637 -6.38447 14
769 1 7.58396 8.39905 -13.9494 11
770 1 -1.55114 -5.98799 -1.95437 18
771 1 14.8582 10.8722 -7.59369 12
772 1 13.8404 4.29941 -3.2464 22
773 1 0.906468 -1.33956 16.9871 15
774 1 -2.66132 -3.58011 -14.4379 14
775 1 8.05326 11.2785 4.3456 20
776 1 -16.3025 5.40891 13.1196 5
777 1 12.7253 7.1653 -3.00443 23
778 1 17.8787 6.43196 2.23365 16
779 1 4.05481 -1.10016 -9.14784 19
780 1 -6.48064 14.6871 8.62353 22
781 1 16.2455 9.16172 6.35787 18
782 1 10.5826 15.9634 -3.77289 17
783 1 7.68253 7.77878 -5.7932 21
784 1 10.1592 -2.27301 2.50003 24
785 1 -12.0245 5.63592 2.50596 23
786 1 10.8974 10.5575 5.71089 17
787 1 -15.8117 -8.13138 0.775071 14
788 1 -13.3892 11.6266 -0.257335 13
789 1 4.33655 4.82831 8.87956 21
790 1 -11.397 5.51193 -8.84009 13
791 1 -10.4873 8.03632 7.78542 20
792 1 -4.17389 7.13554 -4.79329 21
793 1 14.1653 -6.27044 -3.66838 10
794 1 -15.6864 -3.4992 -3.38348 12
795 1 13.8753 -4.03564 -0.357963 13
796 1 -14.5059 8.05703 -1.44947 13
797 1 -12.1855 -5.93071 -2.67634 19
798 1 18.8101 7.24296 4.91165 13
799 1 -7.6229 -9.42641 2.09987 19
800 1 9.48489 6.64106 15.957 15
801 1 10.5534 -0.671555 11.3009 12
802 1 12.8875 2.04725 4.37545 20
803 1 -11.2309 13.2326 6.84358 15
804 1 -1.34214 18.8196 12.7398 12
805 1 6.44326 10.4804 -6.6999 19
806 1 -0.651619 -6.01172 -14.4301 10
807 1 -5.42165 13.1446 5.79865 20
808 1 -12.3428 -10.0086 6.11804 15
809 1 8.1849 12.268 1.02993 24
810 1 -2.30312 18.1612 9.31292 18
811 1 14.0519 2.09479 -4.98178 16
812 1 7.6659 -3.12833 12.2119 13
813 1 -5.32079 13.5563 -10.529 16
814 1 3.23204 10.6785 -7.32774 21
815 1 -7.76373 4.14004 11.89 24
816 1 20.3385 4.48718 3.48263 8
817 1 -2.16147 -1.08617 -9.66915 19
818 1 15.3517 15.0698 3.16523 14
819 1 -11.6229 7.49766 -1.13528 19
820 1 -6.2108 -5.90312 7.99685 21
821 1 4.27394 14.1774 -7.23018 18
822 1 2.8869 1.06117 17.5556 14
823 1 -0.831655 -12.712 0.94096 23
824 1 -7.96876 17.5535 2.78781 13
825 1 -16.4667 5.66156 6.71001 12
826 1 12.7778 -1.09152 -4.84177 18
827 1 -3.8339 -10.9402 -8.32679 10
828 1 -13.3947 10.621 7.428 14
829 1 14.5499 12.3327 -4.60309 13
830 1 -9.12934 2.17316 4.97226 20
831 1 8.78331 0.637263 -9.98915 15
832 1 -4.37572 -5.50259 -8.592 17
833 1 -0.112547 -9.59706 -1.36691 24
834 1 -4.31321 16.8488 13.2218 10
835 1 7.71387 -11.8488 1.13615 9
836 1 -1.97548 11.7143 -12.7218 15
837 1 10.6602 4.0384 -3.18972 19
838 1 6.33695 7.9084 4.2916 21
839 1 0.990051 -15.6957 1.69925 15
840 1 7.19668 -2.2157 -11.4337 14
841 1 12.3875 3.3235 1.53517 18
842 1 -0.543697 4.85234 -12.2051 20
843 1 -2.90337 -6.04651 8.9257 19
844 1 8.7965 13.1465 -3.94697 17
845 1 8.54339 3.9619 -9.30102 18
846 1 -8.35964 5.53055 -2.33835 17
847 1 -13.2927 5.93556 12.203 12
848 1 4.81741 4.90894 14.5746 17
849 1 -9.95795 -5.34107 8.72808 21
850 1 6.6279 9.5979 6.82727 20
851 1 -0.741302 -11.3232 6.11746 20
852 1 1.90904 11.1926 -0.910096 23
853 1 -5.60598 10.6355 9.84181 21
854 1 -4.30504 -0.852798 10.6203 20
855 1 -8.06205 16.2317 10.7568 11
856 1 8.90833 4.58098 -0.437458 24
857 1 -5.64314 -8.44889 10.2421 16
858 1 3.83187 -8.37247 7.17393 18
859 1 13.6455 9.50759 11.6873 18
860 1 8.58154 -1.29767 -0.646316 21
861 1 3.95128 -9.17188 -6.32448 23
862 1 -9.12777 6.49006 -13.1833 11
863 1 -0.136856 0.221787 -13.972 13
864 1 4.4243 19.5815 9.18574 14
865 1 -8.5 -1.70993 16.9565 9
866 1 -6.44911 8.32826 -2.39275 20
867 1 -11.3267 5.20821 -3.19843 16
868 1 12.7419 13.23 -2.25567 17
869 1 -7.38425 -12.9232 4.85395 15
870 1 -0.34056 10.1442 6.28666 20
871 1 14.8555 11.1809 0.820846 20
872 1 -12.0395 -8.93891 -5.11925 11
873 1 6.24879 17.1742 9.92779 18
874 1 -7.55465 -0.631482 13.9755 18
875 1 -1.45827 -9.91793 -9.43636 16
876 1 12.5938 5.82402 9.11726 13
877 1 5.72514 -16.412 2.55614 9
878 1 7.50922 15.6458 15.4564 9