ITEM: TIMESTEP
85000
ITEM: NUMBER OF ATOMS
2000
ITEM: BOX BOUNDS pp pp pp
-30.0 30.0
-30.0 30.0
-30.0 30.0
ITEM: ATOMS id type x y z Coordination
1 1 -10.6879 2.19609 -6.6267 21
2 1 -11.6515 -11.09 -4.11004 12
3 1 3.94891 13.4844 9.5989 19
4 1 4.16164 -11.9458 9.22033 12
5 1 -12.3374 4.69133 -1.15965 21
6 1 12.1963 -5.14158 -11.2973 15
7 1 -12.8423 8.71319 -5.34246 13
8 1 -0.194046 -9.38424 11.0567 16
9 1 -2.40401 -2.09098 -9.13412 22
10 1 -15.7909 -6.64362 7.74141 17
11 1 13.8758 2.85582 -8.85568 14
12 1 -4.44124 -11.2704 1.08946 20
13 1 -15.0421 -5.75083 11.0889 13
14 1 0.901715 3.64062 12.6415 18
15 1 -0.983322 5.72894 7.17092 21
16 1 -0.489715 7.56295 -12.2324 16
17 1 -1.64698 5.02817 12.1269 23
18 1 -7.18458 -2.6427 -12.0191 18
19 1 -17.6652 -4.53132 9.08171 13
20 1 11.9934 1.8285 4.80211 22
21 1 -3.81805 14.2659 -11.9076 12
22 1 1.68607 5.34394 -11.3584 19
23 1 2.00082 7.59134 9.79966 19
24 1 -11.3522 6.35511 -8.81346 18
25 1 -4.35759 -3.33013 -6.23308 22
26 1 -6.22181 8.29336 13.591 23
27 1 8.35114 -9.76878 4.77709 16
28 1 -0.947456 -11.2403 -10.787 16
29 1 12.0038 -5.69943 2.51371 15
30 1 -14.184 -9.53713 -2.71753 12
31 1 -17.972 -5.18748 5.85512 12
32 1 4.98156 -11.3084 -11.5836 10
33 1 9.27691 -6.44552 -12.8794 15
34 1 -6.07609 7.77305 -10.9776 22
35 1 2.8078 9.24452 13.3853 20
36 1 -4.54099 -9.85203 9.45137 20
37 1 5.11669 1.84447 10.0839 20
38 1 -13.0428 -2.54591 1.54314 19
39 1 -14.8968 3.9365 6.78953 16
40 1 -10.5316 2.08147 -0.781574 23
41 1 -2.89612 14.3667 -5.13296 18
42 1 -1.31616 -14.1037 -7.29444 15
43 1 4.43852 4.26133 -13.341 17
44 1 4.13374 -2.68566 -8.65803 22
45 1 -4.3448 -6.14868 15.0179 15
46 1 -13.694 11.143 5.52073 10
47 1 1.66229 10.8987 -5.56445 18
48 1 2.96767 16.7748 10.065 11
49 1 -1.82656 12.0302 -10.9377 14
50 1 -1.96595 16.0217 -0.756036 14
51 1 2.91212 -12.9097 3.44412 18
52 1 5.76662 -6.04298 -3.41089 21
53 1 8.59315 -4.55276 -14.8217 13
54 1 -7.41314 13.5025 12.9818 10
55 1 -13.3954 -5.04693 -7.18788 13
56 1 7.32003 -1.24466 5.1507 20
57 1 -10.6925 7.73866 -0.600681 18
58 1 -7.97764 -5.53203 6.70553 24
59 1 -10.7981 14.8766 6.00873 12
60 1 -10.1727 14.0828 -5.72529 17
61 1 -6.48424 11.4 15.0491 13
62 1 -10.8535 -9.82342 3.89506 20
63 1 2.35527 5.87628 7.43826 23
64 1 7.69364 -12.7638 -1.02774 13
65 1 1.47611 6.66521 12.5132 24
66 1 -8.67185 2.67994 -12.6604 17
67 1 -11.6606 9.48712 -8.55286 16
68 1 2.27488 15.6808 13.209 8
69 1 10.9772 -2.9504 -9.65858 18
70 1 9.20391 -5.87706 8.03384 18
71 1 -15.8938 5.11859 4.05315 9
72 1 9.26141 14.6583 8.71867 18
73 1 4.95821 -6.4282 12.0423 16
74 1 -9.91601 -8.39393 6.69979 20
75 1 -14.6757 -5.77407 1.18231 22
76 1 10.3466 4.72939 5.23328 21
77 1 -5.10595 12.8444 10.2218 21
78 1 5.32381 -0.0440078 7.59138 24
79 1 -2.20604 -7.45853 -9.59272 17
80 1 -10.8992 1.76447 10.1656 23
81 1 -5.58204 11.1863 -0.97375 19
82 1 1.84161 9.46974 -8.30463 19
83 1 7.57917 -0.794436 -5.74736 20
84 1 5.868 5.95526 -8.29032 21
85 1 11.7051 -4.1587 10.0153 15
86 1 4.89998 -9.15006 9.50547 20
87 1 0.00422085 14.6573 -3.30033 18
88 1 -12.6971 9.652 8.54009 16
89 1 -2.24966 -3.72035 15.2975 15
90 1 -4.22013 7.65822 3.93199 23
91 1 -8.42847 -8.26829 12.7529 14
92 1 12.1516 -4.22637 -6.03938 18
93 1 -9.27553 4.58912 10.3583 21
94 1 -4.16626 -11.4185 6.29176 20
95 1 6.28605 -4.97785 -8.59039 19
96 1 3.31457 -2.63661 -13.9269 19
97 1 -9.44467 0.762377 -10.8711 18
98 1 -0.753822 11.7858 1.4739 23
99 1 -8.95672 11.1652 -7.13578 20
100 1 -0.354239 4.63779 15.2881 21
101 1 2.18953 14.619 -8.35451 12
102 1 -12.4519 12.666 8.52201 9
103 1 1.09163 10.5428 -1.36754 23
104 1 -6.23341 -5.64856 4.3879 20
105 1 12.4607 5.53238 7.73961 19
106 1 -0.931117 -9.15958 -7.21787 20
107 1 -0.719266 -4.88362 -8.41211 20
108 1 -4.6129 5.52587 7.32096 19
109 1 -3.41773 -0.55184 15.0023 19
110 1 -9.63282 -6.51675 4.00207 21
111 1 -16.167 -6.9052 -2.04022 14
112 1 7.24876 -8.35425 1.51512 23
113 1 -2.47641 8.66333 1.57883 23
114 1 12.0624 8.74113 -9.5417 13
115 1 6.28207 17.694 1.9493 16
116 1 -9.02264 -11.8905 3.90452 19
117 1 5.5074 -12.6428 6.0656 11
118 1 8.39471 -0.733687 -11.4897 23
119 1 4.57494 4.90035 -5.57517 23
120 1 12.2422 -7.13221 -4.77626 13
121 1 0.400996 -12.6295 3.13684 20
122 1 -13.1631 -1.14364 9.84505 20
123 1 13.72 4.6096 11.0506 12
124 1 13.9243 -4.4559 -3.54539 15
125 1 -12.8823 -0.587427 3.96803 19
126 1 10.8502 12.9451 10.8045 11
127 1 12.8023 11.1091 2.59305 18
128 1 -0.360814 -9.42086 13.8024 9
129 1 -7.4293 11.5421 7.45612 20
130 1 -8.6457 13.3793 -0.317693 19
131 1 -3.01688 -11.5052 -8.1748 19
132 1 2.69924 -14.1132 -7.49387 17
133 1 -9.9739 12.1716 -10.1119 16
134 1 7.2397 -5.28587 12.7337 16
135 1 -1.93962 2.71936 -15.7724 10
136 1 -2.06941 9.09318 -4.2143 25
137 1 12.2948 -0.75671 -2.62842 21
138 1 -9.79155 10.5944 -1.22634 17
139 1 -7.36908 16.7051 5.6129 11
140 1 11.0469 3.55078 -8.0909 18
141 1 5.40125 -5.88545 6.74027 18
142 1 -7.15721 2.14807 -6.5271 22
143 1 -6.23145 8.41858 6.6948 22
144 1 13.931 13.3843 -5.41399 13
145 1 6.2949 11.9152 -3.38145 16
146 1 1.44242 14.972 1.50862 24
147 1 10.978 15.4826 2.66746 14
148 1 -5.78991 11.551 -6.64083 21
149 1 -6.4359 13.1839 -14.1526 8
150 1 -3.73731 0.472968 -14.773 20
151 1 -12.9549 -2.40231 5.6544 22
152 1 -13.9523 11.392 -3.19899 9
153 1 -4.77948 -4.5088 -13.8785 14
154 1 1.20527 -9.24856 -15.5945 10
155 1 11.9661 15.685 8.86778 9
156 1 -4.99005 17.9191 4.52524 9
157 1 -14.1879 2.58132 -6.01633 19
158 1 -10.6609 15.2893 2.48611 12
159 1 16.992 -1.25031 -5.43752 10
160 1 -10.9388 0.113715 -8.833 20
161 1 1.17873 -0.210451 12.6478 20
162 1 6.6304 16.5059 9.84008 12
163 1 -1.11263 11.5676 7.00773 22
164 1 5.61274 -3.61685 -16.4272 11
165 1 -4.39624 11.302 7.45691 20
166 1 -7.18072 17.8513 -4.04398 9
167 1 4.44717 -5.86233 14.261 11
168 1 -10.7847 -3.73118 3.69226 18
169 1 -2.99729 -14.316 -4.5515 19
170 1 -10.485 17.0296 -5.2054 9
171 1 -5.09328 -9.14455 4.14088 22
172 1 0.454396 -19.0153 -4.31843 8
173 1 -1.83531 9.12927 -9.4667 19
174 1 -15.8215 -0.161376 11.3903 11
175 1 16.9857 11.0345 -1.28092 10
176 1 -8.90757 2.32751 15.3187 12
177 1 -6.33625 -8.34291 14.8803 11
178 1 -12.8021 2.80942 1.40878 20
179 1 -1.86339 12.808 11.7352 17
180 1 0.325187 8.69616 7.41066 21
181 1 7.93665 -1.68065 13.0205 16
182 1 -2.41418 14.9858 6.59057 17
183 1 14.535 -4.17607 -9.47255 12
184 1 -1.62041 17.007 8.48002 9
185 1 -3.17418 6.58763 -9.83118 23
186 1 12.0491 -4.89462 6.13438 14
187 1 -11.4538 -5.38472 1.18076 19
188 1 -14.649 0.233727 1.18864 20
189 1 -9.84036 -8.18529 1.29771 21
190 1 5.26873 0.721414 15.6051 13
191 1 -13.9099 2.50934 -1.7327 23
192 1 -6.36962 -17.4276 -1.80604 12
193 1 4.15439 -8.93891 -3.90714 21
194 1 -2.82787 10.8144 4.50671 22
195 1 4.12497 8.56055 15.3598 16
196 1 -8.79904 -0.823324 -6.25484 24
197 1 -6.35247 15.9517 -13.0941 8
198 1 -14.8627 0.472332 -3.51307 21
199 1 -6.53683 0.612728 15.0814 20
200 1 -1.52049 -9.74233 3.89517 21
201 1 1.95355 -9.66441 8.99595 23
202 1 -12.9416 6.99032 6.30447 17
203 1 14.0826 4.76267 -0.259221 20
204 1 6.12053 1.88274 -5.2079 23
205 1 -5.39318 -8.49496 -9.32435 19
206 1 3.24867 -0.982519 10.1457 24
207 1 8.23742 -12.9076 4.51908 12
208 1 -8.65112 4.92441 -6.15237 21
209 1 1.86708 -10.4585 -12.7663 15
210 1 9.22076 2.10635 -10.8919 19
211 1 -2.12863 5.88179 -15.13 10
212 1 -12.2161 -0.510103 -5.69973 23
213 1 -0.823186 14.9382 -9.94155 11
214 1 -9.14067 -11.2461 6.83883 17
215 1 6.3091 18.2537 -1.7243 8
216 1 -7.77651 -1.39238 17.6685 9
217 1 -8.48667 11.9384 -4.05292 17
218 1 8.4213 0.147049 8.01419 23
219 1 -7.51319 -6.50689 -8.97999 17
220 1 -6.87232 6.34275 -8.84974 21
221 1 4.28057 6.18779 -10.5937 19
222 1 -6.52547 -6.56817 9.347 21
223 1 -7.90401 5.89971 7.42692 18
224 1 -6.7421 4.40026 9.34607 20
225 1 6.25482 -6.89156 -15.1235 12
226 1 -3.88317 -15.9679 3.28187 10
227 1 4.27516 -12.4065 -2.10095 23
228 1 12.6933 10.3327 12.2081 9
229 1 7.8734 8.87434 -3.28413 15
230 1 -5.51484 9.22071 -3.78292 20
231 1 -7.6381 8.12991 4.18891 21
232 1 -9.3882 15.431 -3.14346 16
233 1 0.872485 5.09492 9.6216 22
234 1 5.51374 -11.6322 1.05862 23
235 1 9.15362 1.8365 -0.191366 22
236 1 2.22117 7.86959 5.22488 20
237 1 -11.5782 4.30513 7.75693 17
238 1 -16.4833 -8.82989 1.07437 9
239 1 2.98703 12.5208 -10.9092 10
240 1 2.08336 -4.17885 9.939 17
241 1 10.3799 10.1695 -6.31755 19
242 1 2.35468 -9.85565 -1.92544 20
243 1 0.75906 -1.61996 -13.5285 22
244 1 5.32238 -14.5658 3.75134 12
245 1 11.3341 2.59246 -2.54905 22
246 1 -8.88289 -3.06924 15.287 12
247 1 5.05218 -15.3807 -2.73128 13
248 1 -11.1814 -5.37609 -9.45416 13
249 1 6.27181 13.989 -0.870768 20
250 1 3.33319 -6.17125 -16.6608 11
251 1 2.26189 -4.0644 15.4058 14
252 1 17.1351 4.95458 -0.141864 14
253 1 12.2698 -6.50239 -8.16416 14
254 1 -9.67531 -6.44897 -6.88137 19
255 1 -3.8145 -3.74701 -11.5324 22
256 1 -2.69171 -11.9278 11.0279 12
257 1 3.064 4.70195 14.4165 20
258 1 3.70343 -2.94728 7.12832 22
259 1 -4.66586 -14.2896 -6.8479 16
260 1 0.614906 -8.72165 6.25546 22
261 1 -5.17215 9.8011 -8.65395 18
262 1 3.9705 9.01585 2.12941 20
263 1 -7.71876 -5.88198 1.44789 20
264 1 -2.38497 14.7372 2.10561 16
265 1 -8.64996 -5.70931 11.3421 21
266 1 -16.1742 -3.59048 -3.21959 13
267 1 -7.21048 -9.97958 -10.9649 11
268 1 -1.28104 4.99707 -12.859 21
269 1 -4.8602 -11.3403 -5.04726 23
270 1 -2.76438 -8.44113 1.4328 17
271 1 8.40625 -3.99237 -10.8878 22
272 1 16.7413 1.2138 -7.93964 11
273 1 16.1814 10.9464 1.97187 10
274 1 -13.91 -10.0439 8.39249 11
275 1 -7.96449 -10.9609 1.33571 23
276 1 11.1449 6.89973 13.173 12
277 1 -6.3804 -11.7276 -2.07067 19
278 1 2.90539 -18.2587 -1.99128 12
279 1 -0.0902526 16.6701 4.76192 16
280 1 6.33388 0.973436 -12.5645 21
281 1 -8.80294 1.68426 -15.6486 10
282 1 -13.3234 -3.0903 12.4863 11
283 1 2.34425 5.76174 17.9081 13
284 1 2.65764 -9.20807 -7.32742 22
285 1 -6.54302 -14.2122 -4.41509 18
286 1 -10.3801 7.89823 -6.44596 19
287 1 14.3657 7.74603 6.37816 14
288 1 -7.33809 14.2506 -5.42211 15
289 1 12.4621 7.77592 -4.79238 18
290 1 4.61922 -11.6136 -7.46256 16
291 1 -6.37663 17.1499 2.03522 12
292 1 2.18564 11.4342 1.67578 22
293 1 15.2745 5.685 8.30983 11
294 1 -10.0078 -0.892071 9.3473 22
295 1 -10.9556 -5.86777 14.0681 11
296 1 -9.24154 9.40568 1.75342 20
297 1 4.47974 -4.5448 -11.1893 21
298 1 15.7414 5.64597 2.18751 17
299 1 5.75843 -9.4762 -1.61517 23
300 1 -3.37406 -4.50999 12.517 20
301 1 -17.7044 0.0843784 1.85533 11
302 1 0.143849 -16.4991 -6.7836 12
303 1 -4.23778 9.3488 16.6415 13
304 1 -8.92886 5.78692 16.4626 9
305 1 -8.2444 -0.422783 12.3093 20
306 1 -14.8584 -3.73028 8.35601 23
307 1 10.5049 -2.96602 2.85698 22
308 1 -13.2101 -6.67104 8.67265 17
309 1 7.72204 -2.29279 -8.63391 18
310 1 9.20862 -7.44095 -6.27667 17
311 1 3.4594 13.7143 -5.45443 15
312 1 -5.52348 14.1667 0.588678 19
313 1 5.50225 13.8491 3.9667 20
314 1 -10.9862 0.152688 1.60687 22
315 1 7.91324 -14.1773 -4.32851 11
316 1 -3.88532 11.464 1.58613 22
317 1 -2.71927 8.43409 7.16311 23
318 1 5.58223 -9.71514 3.79841 18
319 1 10.3709 -2.68804 7.65155 21
320 1 -3.12884 10.1029 10.0559 21
321 1 -7.50066 -5.20697 -3.83631 24
322 1 5.21096 -1.99207 14.1655 12
323 1 -9.25366 11.6472 4.53584 15
324 1 5.97807 5.95741 15.9209 18
325 1 -7.1083 16.0036 -1.42555 19
326 1 2.3451 -0.666822 -16.0054 11
327 1 8.71242 -10.0406 -11.6712 12
328 1 -7.59309 5.51787 13.9293 17
329 1 -10.8435 2.41818 4.42373 22
330 1 -4.27451 -9.40278 -6.59742 18
331 1 -5.67466 8.92172 1.64969 21
332 1 8.68573 1.96087 5.39299 23
333 1 -14.8714 -4.92055 5.27671 19
334 1 7.12888 -10.1849 10.6302 12
335 1 -6.75615 -12.0764 9.50542 12
336 1 -12.7344 8.88142 0.570731 19
337 1 0.191192 -6.79662 9.15246 20
338 1 0.622977 -11.7284 -7.7006 21
339 1 -5.96152 -2.57079 -9.00978 22
340 1 14.8656 0.824801 -10.7566 11
341 1 -2.28742 17.9333 2.4637 8
342 1 -12.6708 -0.631713 -1.09518 23
343 1 4.37441 -7.96571 -9.74191 22
344 1 15.1021 3.79436 -6.2372 17
345 1 -7.93473 -9.09587 -1.53029 21
346 1 -13.2379 -1.81754 -8.55021 12
347 1 -4.35497 -9.23823 -2.1544 20
348 1 6.53644 -1.03216 10.3611 22
349 1 9.80558 5.90226 -2.3994 20
350 1 -16.8265 4.056 -5.38166 10
351 1 4.10279 19.5361 3.03567 9
352 1 -12.2127 5.06027 -6.59969 21
353 1 -12.3221 4.4295 11.2144 19
354 1 -6.95868 11.9314 2.05199 19
355 1 -6.25584 2.63161 7.16069 23
356 1 7.71098 3.42151 16.2123 12
357 1 9.6349 2.33035 -5.30916 23
358 1 3.90606 4.69381 10.4521 23
359 1 10.5057 6.95854 -7.49107 16
360 1 -11.0652 -11.0648 1.24344 17
361 1 0.920093 -8.7633 -4.55176 23
362 1 0.865979 8.88429 2.02461 21
363 1 -11.1021 0.221536 -3.27947 25
364 1 2.36651 -5.84151 -8.90537 19
365 1 13.8742 -3.36408 8.04933 11
366 1 -17.9158 0.667826 -4.41277 8
367 1 -9.80657 -13.9348 1.35314 15
368 1 -11.7608 -3.89574 8.79635 20
369 1 -2.07111 10.8651 -1.5284 24
370 1 -13.0372 -8.268 6.02943 22
371 1 9.58307 9.96609 12.3428 16
372 1 -10.3797 5.95379 -3.61825 22
373 1 -8.13656 14.6556 -11.2974 15
374 1 6.85845 14.666 7.56163 19
375 1 -11.2105 -4.96335 -3.86331 24
376 1 -3.56392 -10.2254 -11.3071 15
377 1 -15.2468 2.01624 3.59671 18
378 1 -14.7396 10.5497 0.211486 10
379 1 3.76454 -7.05535 4.00727 22
380 1 -2.91005 -12.0489 -2.27479 21
381 1 11.8066 12.8463 7.55446 18
382 1 0.697146 10.4802 -12.5093 11
383 1 -6.09492 1.879 -10.96 19
384 1 3.27218 5.6632 -15.5011 8
385 1 -7.22099 8.46059 -6.91464 21
386 1 -1.28386 -11.3153 0.674756 21
387 1 13.3428 -1.02005 10.9058 14
388 1 -0.469467 6.06638 -9.50463 18
389 1 -4.50241 1.5649 9.86048 20
390 1 -14.5099 6.11625 1.59879 16
391 1 -11.9779 2.79893 14.1323 11
392 1 -10.9205 -9.5876 9.36939 13
393 1 6.41252 -8.84016 -12.9158 15
394 1 -9.1962 5.25364 4.42032 20
395 1 -10.4982 -3.13168 12.2856 21
396 1 -15.8077 5.1944 10.0959 11
397 1 -1.27077 -5.69613 7.15216 23
398 1 -7.0133 0.456049 -13.4466 20
399 1 9.94497 -9.17083 -9.23165 14
400 1 -5.6365 -8.23292 -13.6838 11
401 1 -6.54376 -1.05453 9.34823 20
402 1 -9.52281 -1.08255 -13.9564 12
403 1 10.6675 -9.06427 2.32275 13
404 1 -3.73299 14.3616 -8.0401 12
405 1 -9.711 8.76314 7.06796 19
406 1 -4.37285 -0.603468 17.5502 12
407 1 -5.70904 -1.94093 -14.7033 17
408 1 -8.52183 -3.54045 9.38718 21
409 1 10.6058 2.82193 8.07929 21
410 1 1.50129 3.23218 -8.41728 20
411 1 7.61564 -6.92156 4.35362 20
412 1 13.8041 9.745 -6.10936 15
413 1 -2.44186 2.56653 16.7793 12
414 1 1.50942 16.7298 -1.52762 17
415 1 7.14972 -2.79362 7.71357 23
416 1 -4.86606 -16.8021 -4.20122 12
417 1 0.0237821 -1.44125 15.3909 12
418 1 -6.09755 13.8655 6.9722 20
419 1 -15.0106 -1.49859 -5.5993 12
420 1 7.65318 15.001 2.09405 20
421 1 5.19669 6.49093 13.1479 20
422 1 -6.45537 2.7004 11.9174 17
423 1 -9.64009 -7.72201 -4.36795 19
424 1 -13.4632 7.52636 11.0226 14
425 1 -12.5687 -8.11552 -5.56527 19
426 1 -5.87842 10.8034 4.4141 22
427 1 -1.04447 -11.6966 -5.07974 22
428 1 -6.34562 -11.5599 -8.8038 16
429 1 -9.81549 -12.1507 -1.99675 19
430 1 -7.85096 -3.35311 4.12944 21
431 1 8.91244 -4.36325 5.07668 22
432 1 -1.65523 -1.88938 12.5269 19
433 1 -3.83546 8.34639 -6.38988 20
434 1 7.32018 4.66695 -0.28454 23
435 1 -7.91592 -9.04357 4.38946 23
436 1 1.9067 16.2687 -5.05044 11
437 1 0.795285 0.917407 -11.2576 18
438 1 -4.7424 7.32737 9.54028 23
439 1 -14.0043 8.56877 -2.31528 11
440 1 1.26474 17.5726 2.02043 13
441 1 4.40497 15.8001 -2.3571 17
442 1 -6.19606 -6.2114 -6.58524 21
443 1 10.1714 -0.731482 9.99801 18
444 1 0.696134 -14.5411 -9.90567 10
445 1 -2.47418 -2.49869 -14.1294 21
446 1 10.3019 -8.84792 -3.2456 13
447 1 -7.97203 14.4691 2.35292 19
448 1 6.64734 11.4041 14.3972 13
449 1 9.32325 8.07412 -0.30644 21
450 1 5.16469 11.1326 -6.09369 16
451 1 -10.843 8.5735 -11.5946 11
452 1 3.0194 -1.19707 -11.1064 20
453 1 0.43243 -8.78055 0.658249 23
454 1 -12.8605 -6.07802 -1.67102 21
455 1 4.01797 15.2658 7.05492 15
456 1 -5.72089 4.72054 -11.3479 19
457 1 14.7154 9.12143 -2.88492 19
458 1 4.64647 12.5875 -8.21348 16
459 1 7.04269 -6.50995 9.65545 23
460 1 14.6643 14.4831 -2.14723 9
461 1 -3.56608 2.59815 -12.0722 19
462 1 3.84651 -14.1873 0.382069 17
463 1 -0.895287 -11.6011 6.41414 19
464 1 3.87655 -8.57887 6.4507 20
465 1 -7.47759 0.158985 -8.90854 23
466 1 -6.72386 -13.4679 6.53711 11
467 1 2.55309 -14.8834 -2.06873 19
468 1 8.97877 17.4474 7.28285 13
469 1 -5.69678 3.1322 -8.7592 21
470 1 6.94909 4.67752 10.6408 22
471 1 -12.0104 10.5836 11.2907 11
472 1 2.09991 -17.1365 1.20937 11
473 1 -14.9517 -0.0752647 7.3766 20
474 1 11.147 -3.21834 -3.4121 17
475 1 9.14614 -0.162806 -2.7416 22
476 1 -9.33017 8.84605 -3.39054 16
477 1 0.868317 -6.58162 -6.15876 21
478 1 4.72629 3.22897 -7.95881 22
479 1 8.9239 -4.03137 -5.6216 20
480 1 -6.75464 -3.31915 12.1513 22
481 1 6.68727 14.124 -5.16573 15
482 1 -3.92111 -2.15141 -16.872 9
483 1 10.2186 5.96621 -10.8162 16
484 1 -6.40126 -2.78045 7.17953 24
485 1 -4.99198 17.8988 -1.25961 9
486 1 -9.5241 -8.14506 -10.7745 11
487 1 -16.1735 -0.491943 -1.54713 19
488 1 -2.3685 -9.58375 -14.204 9
489 1 -7.90768 -9.17054 9.95615 19
490 1 -0.432793 7.66615 -6.63801 22
491 1 11.6425 1.65007 10.8691 17
492 1 12.6263 5.58258 -2.18937 16
493 1 -11.8561 -11.2904 6.3817 14
494 1 -1.02717 -9.75252 -2.06776 18
495 1 1.92352 -5.03453 -13.8777 17
496 1 -9.07682 15.5216 7.84662 9
497 1 1.15643 -2.49934 -8.9492 22
498 1 10.937 -0.802884 0.25423 23
499 1 -0.485635 13.7655 -6.7782 17
500 1 5.42206 -5.74065 2.22251 22
501 1 12.9439 6.19392 -8.02934 15
502 1 -0.423039 7.2567 14.2595 21
503 1 -9.81638 -2.71861 6.55852 21
504 1 5.20258 16.0969 12.1982 11
505 1 5.17291 -4.00615 9.54363 17
506 1 4.48065 2.89803 -16.3244 10
507 1 -6.07671 -8.15406 -4.28377 22
508 1 0.103036 -0.803003 9.90333 21
509 1 11.4486 16.059 5.72125 14
510 1 2.68953 6.2874 -8.39829 24
511 1 -11.9122 12.4867 -7.75882 11
512 1 -0.268045 13.4567 -0.480761 22
513 1 9.87281 -6.26417 11.0197 15
514 1 12.4645 0.0474647 -8.0971 20
515 1 7.45972 -8.99621 -4.04702 22
516 1 4.72897 13.4919 14.0978 12
517 1 -16.5321 -2.62 6.37323 18
518 1 -4.43595 16.0882 -3.94525 14
519 1 -1.02492 2.13739 10.498 23
520 1 -11.4574 -0.190506 12.541 18
521 1 -6.56171 16.6593 -9.61895 8
522 1 -4.91826 -14.4975 -2.03963 21
523 1 6.33651 0.555605 -9.47913 21
524 1 -1.51961 17.3659 -3.31846 11
525 1 -9.14375 -2.62317 -9.11637 20
526 1 -8.02918 -15.042 -1.6818 19
527 1 -16.6974 -2.54109 0.493523 15
528 1 2.06991 7.59766 -13.7595 14
529 1 -3.4551 11.9461 14.0892 15
530 1 -16.8902 -1.23454 9.13062 16
531 1 5.81638 7.87429 -0.310503 22
532 1 4.44654 -14.191 -5.03577 18
533 1 -3.48394 -8.47342 12.567 17
534 1 -11.2069 6.11655 1.68935 20
535 1 5.71086 5.30295 18.5753 9
536 1 7.85649 13.6015 -7.80086 11
537 1 9.13402 -6.23759 -3.21726 20
538 1 0.896498 12.1514 9.27243 17
539 1 1.77367 3.85969 -14.1634 17
540 1 -5.8752 -10.8305 12.2768 12
541 1 -0.406054 0.295517 -8.93568 19
542 1 9.24031 3.62133 -13.3394 11
543 1 2.25983 14.0267 4.68607 22
544 1 4.75195 9.05919 -8.22285 20
545 1 -0.184799 -7.9188 -12.8308 18
546 1 -6.03841 -13.895 0.438795 18
547 1 -14.8342 -9.42418 -7.82647 7
548 1 12.2421 2.00489 0.326018 21
549 1 16.8344 6.78445 -2.79327 11
550 1 5.75042 -2.03978 -11.2365 19
551 1 1.73915 12.2139 11.9323 17
552 1 7.86381 -12.1665 -7.14504 9
553 1 6.00609 -1.78225 -14.2747 17
554 1 9.28917 17.8537 4.03724 11
555 1 -9.41911 3.07489 1.98005 22
556 1 8.41064 8.6264 14.9029 14
557 1 16.5214 12.8804 -3.3045 9
558 1 10.3061 2.7273 2.81838 22
559 1 17.5842 4.71331 -3.86861 9
560 1 3.73931 11.1969 16.5472 11
561 1 7.08728 9.05506 7.59531 18
562 1 7.71778 -8.28082 12.8808 10
563 1 14.2956 11.0166 -0.891674 20
564 1 4.65853 0.281517 12.386 16
565 1 15.5146 -4.02392 -6.66818 10
566 1 8.85624 5.60749 8.03457 22
567 1 -4.26142 -5.19936 -8.86944 21
568 1 12.1057 5.99373 2.16828 20
569 1 12.3545 -0.284927 2.75351 22
570 1 -6.06022 7.06647 16.6736 11
571 1 6.55284 9.46021 12.1262 15
572 1 10.2577 9.13308 7.36247 21
573 1 3.95596 10.7686 4.12118 20
574 1 -7.14144 15.3149 10.3433 11
575 1 7.17661 3.07567 7.82269 23
576 1 0.565224 -15.7398 3.58296 10
577 1 -10.0668 15.438 -8.81244 11
578 1 9.41184 12.1209 -3.27715 22
579 1 13.6422 -2.18839 -12.0891 12
580 1 -7.51562 11.0903 -10.1518 19
581 1 0.400268 -14.4746 -4.6025 20
582 1 10.5173 -3.28561 -13.133 15
583 1 -17.4026 1.15209 6.54734 12
584 1 -5.92422 8.86686 -14.1741 14
585 1 -2.84427 -14.434 1.00503 18
586 1 -3.85585 0.573518 -8.88818 22
587 1 -13.8467 5.20614 -3.79452 18
588 1 10.6951 -7.18177 4.82937 13
589 1 7.35515 11.8892 4.12548 19
590 1 0.0460041 -4.42589 12.4026 17
591 1 -14.8472 5.86139 -7.44141 10
592 1 3.11414 1.02231 -13.6158 21
593 1 2.15927 -7.55118 14.8461 10
594 1 7.45343 7.46856 -10.8737 17
595 1 8.3131 1.65016 10.3685 17
596 1 12.7204 11.9059 -7.52155 14
597 1 9.05193 13.656 4.71409 20
598 1 2.5471 -11.8093 -9.65382 17
599 1 -10.832 6.24143 13.0548 13
600 1 14.9895 1.76749 5.81152 16
601 1 -0.937989 13.5464 14.7254 9
602 1 6.78292 10.8409 -9.48491 14
603 1 -10.4137 16.0091 -0.137096 12
604 1 9.32407 12.147 1.88012 21
605 1 -11.2309 -8.91266 -1.90089 19
606 1 14.0667 -3.07088 2.57559 11
607 1 6.25397 17.7509 5.11683 13
608 1 -5.73315 2.01572 17.7962 7
609 1 -13.0999 -6.74876 3.57753 21
610 1 -11.2149 -3.47462 -6.70184 22
611 1 8.95643 6.56813 16.0708 11
612 1 -5.75221 -6.45808 12.3328 20
613 1 5.56765 6.11749 7.5965 22
614 1 -5.63377 13.3937 -3.07057 19
615 1 8.89451 7.86535 5.29869 19
616 1 7.36106 5.03178 4.87787 21
617 1 3.51639 2.51535 -11.0076 22
618 1 -8.26817 -0.0976302 6.85099 20
619 1 7.88756 1.39221 -15.3379 12
620 1 9.45003 -5.82283 -8.49425 20
621 1 3.93351 10.5847 10.2327 17
622 1 8.39027 7.49519 10.1345 17
623 1 -5.45161 -2.47826 14.8968 18
624 1 10.6045 5.23517 10.3873 20
625 1 3.06298 -9.09379 12.2149 14
626 1 -1.0659 9.99406 15.0899 17
627 1 0.517981 -3.61459 -16.3085 14
628 1 -0.419309 1.69806 14.4077 20
629 1 4.92447 3.64316 12.71 16
630 1 -6.43923 -12.0236 3.5446 19
631 1 12.686 13.7514 4.71508 14
632 1 6.20643 -9.27405 -6.9004 18
633 1 4.67757 8.70561 -2.73181 21
634 1 7.38542 13.3744 11.8824 12
635 1 5.37354 0.175847 -15.9556 15
636 1 2.52346 13.4207 -1.07157 19
637 1 16.622 6.46494 4.92065 11
638 1 -13.9101 -9.91444 2.97109 14
639 1 -1.99475 -0.294561 -11.5496 19
640 1 -11.8931 12.9984 0.443789 15
641 1 12.0874 0.18672 -10.8592 18
642 1 15.7295 7.24573 -5.9558 11
643 1 8.22807 15.2641 -3.16407 14
644 1 -7.41711 6.22671 2.03545 22
645 1 6.41645 5.69723 -2.8668 20
646 1 11.2969 3.31428 13.1945 11
647 1 8.57798 4.86537 13.2578 16
648 1 -1.12238 -9.93519 8.65339 18
649 1 -8.98199 3.25704 -9.05684 24
650 1 2.36963 11.6161 6.69714 21
651 1 7.13503 -7.28492 -10.3246 17
652 1 1.97147 1.99319 10.0791 24
653 1 10.9057 10.9944 -0.666825 23
654 1 9.57589 14.0501 -0.244576 18
655 1 13.9341 -6.34428 -1.32481 8
656 1 6.14867 8.53618 17.7237 9
657 1 -9.56186 2.96975 7.35871 24
658 1 2.61935 -11.9902 -4.98001 21
659 1 0.539547 -4.03406 -11.1015 17
660 1 -9.80047 12.6652 9.09222 12
661 1 4.03666 14.666 1.28762 22
662 1 -17.4441 -3.55393 3.01123 13
663 1 -3.35792 5.98067 15.1471 18
664 1 -8.98692 8.87411 -9.33535 25
665 1 -8.27577 6.64154 -12.3292 19
666 1 7.21914 -14.6114 1.38147 10
667 1 7.97023 4.81678 -5.32561 20
668 1 -8.07026 8.83799 16.2239 12
669 1 9.41982 0.523459 -8.01454 23
670 1 0.466835 -12.1297 9.89141 11
671 1 3.69454 16.7878 3.76889 20
672 1 2.95969 -2.9433 12.9 19
673 1 -6.49653 -6.02712 -11.4866 16
674 1 -7.42545 -12.88 -6.7797 17
675 1 -9.80124 -14.025 -4.52352 12
676 1 -1.87641 10.887 -6.98551 22
677 1 5.7533 -3.32271 -6.13786 21
678 1 -0.751097 13.6912 4.50276 20
679 1 4.10185 -6.56867 -6.0947 20
680 1 9.36951 -11.655 -3.67272 10
681 1 1.89874 -5.69774 7.05334 21
682 1 16.0113 1.42213 -5.1762 14
683 1 -1.60756 -17.3904 -4.48696 16
684 1 -16.8269 -3.68838 11.7251 11
685 1 -3.11999 -18.6912 -1.84882 12
686 1 -13.052 -8.71718 0.56238 19
687 1 -7.60465 -5.12395 14.6306 16
688 1 -4.42353 -17.0838 0.649828 14
689 1 15.3804 8.36449 0.186047 17
690 1 -4.9785 17.0543 8.09029 11
691 1 -9.66839 9.83737 10.0159 15
692 1 8.70315 -0.242578 2.42741 23
693 1 -14.2894 -3.33615 -1.04802 21
694 1 -3.70894 11.5181 -4.51732 20
695 1 7.94044 3.57287 -7.79287 20
696 1 7.28741 11.394 9.84329 20
697 1 11.427 4.67181 -5.38147 21
698 1 -10.7521 5.32269 -11.5911 12
699 1 -17.5825 2.4233 -2.4898 15
700 1 4.89026 3.24272 17.0039 14
701 1 4.18278 10.6256 -0.77441 20
702 1 14.092 10.362 9.25518 11
703 1 -3.08027 -0.958654 9.78193 21
704 1 -9.02396 -16.5799 0.879703 9
705 1 -1.44779 -17.6951 1.41216 13
706 1 -4.6082 -5.64216 6.81868 23
707 1 17.2007 3.22005 3.16021 12
708 1 15.5234 -1.76149 -9.26678 14
709 1 -7.24619 8.16392 -1.08534 18
710 1 7.42836 9.20193 1.92089 19
711 1 -9.28894 -2.5172 1.39448 24
712 1 10.3309 13.5348 -6.11781 16
713 1 -0.153411 -18.9498 -1.24349 12
714 1 8.90678 -11.8425 1.86892 14
715 1 0.419608 -14.5418 0.688776 20
716 1 7.25321 4.11152 -10.4135 19
717 1 7.83929 16.3944 -0.172698 15
718 1 -5.55831 2.48096 -16.3623 13
719 1 -5.13265 5.65833 11.8951 18
720 1 -5.35214 11.2408 -12.0371 17
721 1 -4.82438 -1.08222 -11.4438 23
722 1 -12.6991 -2.51388 -3.75464 21
723 1 6.15732 7.68791 -5.69385 18
724 1 -11.0091 -8.87618 -8.00317 12
725 1 -9.10324 -6.33402 -1.2856 23
726 1 7.9715 8.82803 -8.3072 18
727 1 10.7566 -7.04142 -0.00427693 17
728 1 -3.15833 4.62866 9.7417 22
729 1 3.58408 -8.66504 1.0465 23
730 1 14.5407 -0.732097 0.493801 16
731 1 11.2138 -0.841281 13.4324 9
732 1 0.426843 10.8495 4.41815 21
733 1 -14.1207 2.43764 11.6041 14
734 1 -10.858 7.29769 10.1632 19
735 1 -3.56961 -13.5048 7.95825 10
736 1 8.64344 6.33993 2.8131 23
737 1 1.73598 11.7646 14.5151 12
738 1 -16.0822 5.00953 -2.0012 13
739 1 8.88552 -5.75753 1.77741 21
740 1 -12.3394 14.7489 -2.8082 13
741 1 -3.53024 -12.535 3.29104 19
742 1 12.3671 0.1366 7.83632 21
743 1 -0.20461 9.47595 12.1153 19
744 1 2.76555 -11.2033 6.36753 17
745 1 -9.41353 -2.35463 -3.6726 24
746 1 -1.10488 7.40445 9.94734 22
747 1 -15.7167 -7.51872 -4.89693 11
748 1 2.09298 2.56054 16.7588 13
749 1 8.62711 11.7189 7.09863 20
750 1 -17.5624 -6.35961 1.12845 10
751 1 -1.82408 -13.6996 5.10939 12
752 1 3.55629 -6.78253 9.21783 20
753 1 9.22298 -9.12834 8.77046 12
754 1 5.65761 11.9819 1.53265 23
755 1 -2.53983 -6.26809 -6.74863 20
756 1 -5.49127 6.07567 -15.4991 11
757 1 -3.23065 2.30291 13.5234 16
758 1 -0.558101 12.1069 -3.7692 21
759 1 12.5975 7.72744 -0.754056 21
760 1 2.99271 7.92537 -5.82734 19
761 1 -2.95786 8.05204 12.6061 21
762 1 3.80719 9.05061 7.69567 20
763 1 9.68824 9.3367 -11.2882 14
764 1 -3.11188 -6.75181 9.44979 23
765 1 11.7299 7.3161 4.7868 22
766 1 2.78858 0.565146 -8.57993 22
767 1 -0.982286 6.88323 17.4097 10
768 1 6.37142 -11.5252 -4.60803 21
769 1 5.06477 8.52139 -13.6138 10
770 1 -2.67286 -8.4093 -4.30671 20
771 1 9.93305 11.7287 -9.18534 15
772 1 16.1006 0.253868 3.65439 12
773 1 -0.412563 -6.15203 15.2487 12
774 1 3.83027 -9.1585 -15.5564 11
775 1 3.80828 17.2007 0.199702 16
776 1 -13.2804 1.65782 8.63971 18
777 1 10.5208 4.62428 0.184441 22
778 1 13.8097 4.77493 4.74926 21
779 1 1.06182 -8.81945 -9.67969 19
780 1 -4.3766 14.4578 3.98141 19
781 1 10.6938 10.4016 9.6105 20
782 1 12.1974 11.4616 -4.30457 21
783 1 8.20255 6.89634 -13.3399 11
784 1 9.14067 -3.50562 -0.432332 20
785 1 -12.8569 4.93762 4.35763 18
786 1 10.5379 9.08251 2.15506 22
787 1 -15.5564 -7.40526 4.17215 17
788 1 -11.5406 11.5602 -3.9054 15
789 1 3.76116 2.69546 7.31606 24
790 1 -12.0806 2.9346 -8.90365 14
791 1 -11.3082 0.525143 6.78608 22
792 1 -5.62204 5.21251 -6.31744 21
793 1 11.6255 -8.39448 -11.6272 10
794 1 -14.2014 -5.07792 -4.59762 20
795 1 12.5324 -4.00551 0.34835 17
796 1 -12.2591 10.8671 2.8109 18
797 1 -7.42797 -9.21793 -6.82709 21
798 1 12.5019 7.66843 9.73876 16
799 1 -6.71327 -8.48973 6.89775 22
800 1 8.53601 1.16336 14.8646 10
801 1 10.6703 -0.985464 5.09041 20
802 1 13.8684 -1.33247 5.5195 15
803 1 -15.1415 7.02986 8.26732 11
804 1 0.357529 14.8716 10.7201 16
805 1 3.39225 8.81601 -10.6268 16
806 1 -0.975176 -5.27561 -13.5593 14
807 1 -13.1969 14.1307 3.58855 8
808 1 -13.8675 -9.02802 11.201 7
809 1 7.51548 10.9576 -0.665589 21
810 1 -5.03273 10.8828 12.0956 21
811 1 12.4425 1.43625 -5.05575 19
812 1 9.81326 -4.28344 13.3634 13
813 1 -6.65635 13.5829 -8.71129 16
814 1 0.235896 11.6997 -8.59414 20
815 1 -8.17286 1.77041 9.78241 21
816 1 13.1761 10.6673 6.20802 17
817 1 -3.52431 -7.30409 -12.1526 20
818 1 14.0346 8.47028 3.24073 17
819 1 -14.531 8.32888 3.48967 15
820 1 -1.49013 -4.0079 9.95742 22
821 1 -2.61587 9.73065 -12.7572 13
822 1 8.39761 -3.68416 10.5366 21
823 1 0.557843 -12.4761 -1.90544 22
824 1 -3.54958 13.306 -1.70436 24
825 1 -16.1109 -0.949407 4.3124 17
826 1 15.3388 -3.36429 -1.00406 11
827 1 3.05638 -7.47407 -12.6868 19
828 1 -11.2158 8.21663 3.86788 17
829 1 11.4776 14.4238 -2.8841 15
830 1 -9.58593 -0.645757 4.36455 23
831 1 10.6055 0.387805 -13.7755 13
832 1 -8.31699 -10.7623 -4.25523 23
833 1 2.21854 -11.7967 0.766852 23
834 1 -4.22868 14.4011 12.738 14
835 1 8.83164 -9.58154 -0.652733 18
836 1 -8.08273 9.93264 -12.7654 17
837 1 14.6811 2.89974 -3.14844 16
838 1 5.70655 6.31264 2.2896 19
839 1 -1.33555 -15.7869 -2.11059 19
840 1 8.51533 -1.5413 -14.8601 15
841 1 15.3356 -0.116366 -2.38093 14
842 1 -0.980237 -0.66387 -16.3947 13
843 1 -3.07334 -8.63246 6.9245 21
844 1 11.1753 9.09731 -2.88531 21
845 1 10.6772 -1.04629 -5.57748 22
846 1 -8.97089 2.94429 -3.44465 23
847 1 -16.7166 2.02709 9.42141 13
848 1 2.46833 -0.518453 15.9847 13
849 1 -9.79892 -6.68734 8.81662 17
850 1 5.51707 8.07824 5.49019 20
851 1 8.1963 -11.7401 7.69432 12
852 1 1.03742 8.92096 -3.29922 19
853 1 -6.99189 9.83478 9.43266 18
854 1 -5.24361 -0.0575545 12.3864 18
855 1 -9.38678 10.6461 13.4172 11
856 1 7.82238 2.84762 -2.64388 22
857 1 -4.60597 -3.80755 9.70117 24
858 1 2.00354 -9.61098 3.30685 23
859 1 5.11337 7.46061 10.0692 20
860 1 7.64321 -2.99509 -3.14974 20
861 1 6.77324 -10.4044 -9.3492 16
862 1 -7.23856 -0.280612 -16.8609 11
863 1 -6.57217 3.84089 -14.1099 18
864 1 5.47503 12.0919 7.06968 20
865 1 -10.0209 -0.510672 14.9731 17
866 1 -7.27562 6.36901 -3.3274 21
867 1 -11.9777 2.91388 -3.79337 22
868 1 12.8561 13.7345 0.786173 14
869 1 -7.33993 -14.7285 3.4874 14
870 1 -1.15895 7.83846 4.29696 21
871 1 10.6408 10.6976 4.68633 22
872 1 -9.88024 -11.6817 -9.08959 8
873 1 0.403998 14.7648 7.14603 20
874 1 -9.38482 2.53498 12.8838 22
875 1 -11.1107 -15.1524 -1.49689 9