ITEM: TIMESTEP
20000
ITEM: NUMBER OF ATOMS
2000
ITEM: BOX BOUNDS pp pp pp
-30.0 30.0
-30.0 30.0
-30.0 30.0
ITEM: ATOMS id type x y z Coordination
1 1 -12.8254 6.6704 -9.48703 12
2 1 -2.93443 -8.28402 -4.69879 20
3 1 3.2707 15.7403 15.1502 10
4 1 5.57189 -11.9321 10.8806 12
5 1 -11.4982 11.3496 0.250655 15
6 1 6.05434 -12.1713 -8.07019 14
7 1 -10.2581 6.36797 -2.9229 19
8 1 0.657205 -8.80345 13.2988 14
9 1 -7.30394 -2.31675 -9.45825 21
10 1 -11.4962 -8.49853 3.99465 16
11 1 14.6366 -3.19959 -7.16696 10
12 1 -5.94102 -10.8213 2.04593 19
13 1 -13.1619 -9.03926 1.09166 10
14 1 -0.629605 1.03716 19.5291 12
15 1 7.21161 1.63943 9.0217 21
16 1 2.77334 6.8911 12.5736 18
17 1 8.06894 -1.07479 3.18489 19
18 1 0.833651 14.9804 -8.70909 22
19 1 2.07361 1.0763 13.6142 21
20 1 -8.96596 2.45039 -12.0689 12
21 1 -13.1939 -2.85383 16.6518 7
22 1 17.0527 9.48303 3.68993 15
23 1 2.5343 12.1675 -10.1866 19
24 1 4.21534 5.86738 -10.9623 17
25 1 12.4364 9.52177 14.8613 13
26 1 -6.39008 3.13062 0.322616 20
27 1 -14.0227 3.50388 -4.17232 15
28 1 -3.3943 1.5124 -7.52289 27
29 1 -9.97201 7.44223 12.1354 18
30 1 6.62171 -12.9456 7.9419 12
31 1 5.28726 0.778992 11.2259 16
32 1 -0.641951 -11.3598 -10.3909 14
33 1 7.60354 -10.6827 2.3904 16
34 1 -5.55943 -11.6307 -6.38042 15
35 1 -12.6603 -4.57935 14.4221 18
36 1 5.21761 -4.56534 -4.47357 19
37 1 -0.21819 -7.7405 -10.2867 20
38 1 8.29636 -10.8937 -10.021 10
39 1 0.346625 8.54877 -13.298 13
40 1 0.491973 7.08292 17.9565 18
41 1 1.12133 -8.07765 8.26641 16
42 1 3.27957 -1.06864 11.6432 19
43 1 -11.7642 -2.38576 5.65034 17
44 1 -15.4166 3.31123 11.8813 12
45 1 -7.65466 0.254872 0.578394 20
46 1 -6.1041 13.5211 -1.57555 24
47 1 -2.74335 -12.1153 -7.00088 13
48 1 3.29862 1.47046 -7.32178 19
49 1 8.44315 -6.61645 -6.75456 17
50 1 -0.152991 -6.32527 13.3708 15
51 1 -10.3573 3.1448 -0.197828 19
52 1 4.46402 14.3964 -10.1412 15
53 1 2.85626 13.6662 9.80205 21
54 1 -11.2161 9.50141 -10.04 11
55 1 -2.6077 14.4048 -1.86969 18
56 1 0.559958 -10.8189 2.02582 19
57 1 7.36467 -10.0128 -3.05028 17
58 1 3.71822 -6.0207 -10.3582 21
59 1 -10.5939 10.0116 13.9858 10
60 1 -13.8175 -4.10642 -6.13672 11
61 1 7.03038 5.03423 2.81979 21
62 1 -11.9023 13.3289 -4.37018 8
63 1 -6.04709 -7.68204 8.85555 20
64 1 -2.58224 13.7699 14.048 15
65 1 -13.1032 10.0518 -4.56734 11
66 1 -4.79064 7.56773 18.5612 10
67 1 1.37356 6.54098 -5.77307 21
68 1 -0.227938 9.31689 7.10812 20
69 1 -8.95302 -13.6178 6.34459 12
70 1 0.995895 7.47849 8.46674 18
71 1 2.65564 -13.3498 -6.28147 19
72 1 1.82267 11.0849 17.004 16
73 1 -12.1133 1.89708 -6.93513 15
74 1 -13.7886 3.63863 -9.36776 8
75 1 6.5285 7.11855 16.9409 20
76 1 13.3408 -1.51394 -10.2397 7
77 1 7.7187 -10.4495 8.8602 13
78 1 -14.4459 -5.50248 8.51611 15
79 1 -6.45792 -2.63997 0.816812 22
80 1 3.88727 17.2528 8.5003 14
81 1 4.70233 -1.37002 14.2437 16
82 1 -8.06766 -10.4011 7.17503 16
83 1 -9.59288 -2.76338 -0.0938785 23
84 1 10.9876 -0.270825 4.95085 17
85 1 6.66859 1.41912 -1.85838 20
86 1 -0.559527 11.8039 12.2084 13
87 1 7.06709 3.08104 5.80806 20
88 1 -10.371 -7.84821 6.71795 19
89 1 -2.14209 -5.70853 -9.65824 23
90 1 -12.3793 4.42448 12.1266 22
91 1 -9.21305 12.9651 -1.16899 16
92 1 -1.38616 7.1382 -7.84128 19
93 1 3.44214 -1.63837 -4.37673 21
94 1 8.36549 2.65424 -5.08633 18
95 1 9.88783 9.50083 -5.10042 13
96 1 4.76313 -5.37411 1.4551 20
97 1 3.13279 -9.77524 12.2699 12
98 1 -4.7023 16.737 -2.26543 15
99 1 -10.8176 14.394 6.5829 8
100 1 -6.41906 -2.1207 16.9492 17
101 1 -8.71684 9.12692 5.12169 21
102 1 -6.50852 -3.10964 11.3574 21
103 1 10.6984 -9.26442 -2.64051 20
104 1 -10.9863 4.73825 6.00634 19
105 1 -7.76935 -11.5296 -1.02355 18
106 1 11.7208 -4.51252 -5.61576 18
107 1 -0.253756 -4.41112 -14.5303 19
108 1 -3.95986 3.17411 -15.0255 10
109 1 -1.45236 13.3581 2.81275 24
110 1 -9.77931 8.46715 -4.96566 22
111 1 -0.525133 5.72646 20.7191 7
112 1 -0.65136 11.8729 -7.23039 18
113 1 -13.9788 12.9979 1.828 12
114 1 -0.476487 9.29834 0.830055 20
115 1 -2.73331 -10.5195 12.1434 17
116 1 15.0216 2.21662 8.69385 17
117 1 -0.0866269 -4.1534 -7.0079 24
118 1 5.18967 -7.29797 -8.17192 17
119 1 -2.85728 1.57711 11.3777 20
120 1 12.1818 2.35337 11.4093 20
121 1 -10.328 -4.44742 1.75604 17
122 1 6.49112 -2.3636 6.29744 18
123 1 -7.95669 -7.5314 -2.76156 19
124 1 10.4165 -12.1261 3.74608 14
125 1 -2.57562 10.6503 3.95919 21
126 1 9.85047 -0.362852 -15.3528 6
127 1 6.29765 18.4308 1.06004 15
128 1 -8.39679 -12.0601 12.9709 7
129 1 -8.77496 -7.99183 9.0763 17
130 1 4.64689 -8.48031 -12.4177 11
131 1 2.92061 9.24449 -5.52374 18
132 1 12.8828 -11.0599 2.59242 10
133 1 1.84343 -14.0354 6.02845 19
134 1 -8.53147 -7.97529 2.65105 15
135 1 16.8089 10.9652 6.32013 12
136 1 14.5137 -5.58429 -4.86667 12
137 1 -15.8445 -5.43113 4.27662 10
138 1 12.3858 10.6935 7.49395 19
139 1 14.2304 8.80317 4.96 22
140 1 -1.27793 0.525566 14.3966 23
141 1 1.92432 8.21838 2.56518 20
142 1 -6.69168 10.2315 17.1456 10
143 1 -4.67043 12.818 -4.35132 22
144 1 -3.29369 -1.99192 -9.92056 21
145 1 4.2965 -14.4352 -8.59021 11
146 1 2.39334 17.3929 -10.4838 10
147 1 9.82289 -1.91665 13.6962 10
148 1 -0.842434 3.44237 -14.8877 12
149 1 -3.27886 9.82382 -4.07798 21
150 1 13.8689 2.09025 0.328249 18
151 1 -11.2318 11.1847 -6.87734 13
152 1 -8.23322 16.7107 1.55899 10
153 1 11.0074 1.61335 -8.2033 16
154 1 6.05176 -8.06785 6.71108 15
155 1 -4.28426 5.00356 -7.47297 20
156 1 -6.86174 8.81041 11.736 19
157 1 12.129 5.69558 -10.006 10
158 1 6.15369 13.8678 -2.22733 19
159 1 -2.31045 15.3062 4.41346 15
160 1 9.67347 10.1397 1.67213 20
161 1 -3.52373 11.0609 -1.65404 18
162 1 2.88682 16.5925 -6.94675 17
163 1 5.23 10.7954 -11.2844 11
164 1 -12.3826 -11.6946 2.81919 12
165 1 -14.3306 8.86333 2.92826 12
166 1 -5.49354 -3.11282 -15.0736 10
167 1 2.19959 -5.7946 -15.4887 13
168 1 8.81651 14.8658 8.93191 11
169 1 1.36068 18.7488 7.65253 7
170 1 -14.1318 -2.46222 -3.0122 14
171 1 -11.4277 9.34325 2.82876 21
172 1 16.8074 -3.007 1.03551 12
173 1 -11.2669 -0.64668 -11.7444 8
174 1 7.18654 5.78038 19.457 14
175 1 5.12077 17.048 3.08857 16
176 1 -3.57011 3.88346 9.10938 20
177 1 3.45032 -4.67395 -12.9128 19
178 1 -6.20726 11.9835 10.4893 20
179 1 -3.28644 10.9481 -6.85502 21
180 1 4.36682 -1.07172 17.1212 8
181 1 -11.9785 -3.01387 8.78842 21
182 1 -3.43582 -10.3491 -11.8375 13
183 1 -8.77574 9.84706 -7.90132 22
184 1 -0.997026 -7.86317 6.54992 19
185 1 1.69065 -16.2861 -6.59988 10
186 1 -4.53778 15.4915 -10.5263 8
187 1 -14.181 1.07329 10.3604 17
188 1 1.18326 11.8475 1.6186 20
189 1 11.8121 9.64801 -2.80272 20
190 1 -8.36464 3.6908 16.5729 13
191 1 -4.18656 -4.6281 8.95402 20
192 1 -8.34195 5.80711 -0.0849532 22
193 1 0.0645769 17.8411 4.42276 9
194 1 -0.281794 8.62652 11.7282 15
195 1 13.876 7.00187 12.8103 19
196 1 -8.53917 15.5888 7.12522 9
197 1 12.2347 -7.63641 -5.08424 17
198 1 -3.98681 11.0782 12.0483 19
199 1 -6.71469 0.597789 -7.33236 19
200 1 6.68944 -7.38273 3.73234 22
201 1 -6.88464 -2.609 6.01566 19
202 1 -14.6874 -2.13141 9.18719 12
203 1 -9.83014 -13.6785 2.76082 17
204 1 2.11351 4.84007 15.8216 18
205 1 -12.8541 1.18118 2.05618 22
206 1 -0.43189 -12.3636 -2.9022 19
207 1 -4.74726 -1.40159 -1.79267 24
208 1 8.51878 -7.82437 -1.62579 21
209 1 -1.32843 12.4869 6.4554 23
210 1 -7.02846 1.03745 3.45999 20
211 1 0.185399 15.1785 12.1606 14
212 1 -9.55169 1.09836 -2.05819 18
213 1 -6.914 10.3646 -3.34242 16
214 1 -12.1401 -4.98885 -3.89732 17
215 1 -9.24667 1.79813 12.0489 20
216 1 2.71962 -6.35086 3.1449 18
217 1 2.0802 -13.9485 9.536 13
218 1 -10.7042 9.54528 9.03495 16
219 1 15.3855 2.80011 6.06101 21
220 1 11.8741 3.75121 -2.08916 19
221 1 -5.95644 -9.32667 -13.6355 13
222 1 8.57576 0.684287 11.2892 16
223 1 7.44002 -13.3474 4.33178 15
224 1 -1.24339 12.4881 -9.71012 16
225 1 1.98675 -10.2263 -11.5479 16
226 1 10.8956 -2.81963 -12.5642 11
227 1 2.77228 10.3974 -13.8284 11
228 1 -6.26217 -2.70234 -4.37656 23
229 1 -2.24572 15.5703 -4.46088 16
230 1 -10.8872 -9.94026 15.0021 8
231 1 10.7072 17.2493 0.697487 9
232 1 -2.7032 1.7804 17.2629 20
233 1 -7.94385 16.5846 -1.92465 15
234 1 9.51194 3.46435 10.6402 23
235 1 -5.16693 -6.12804 -13.1422 20
236 1 -6.13081 10.9629 -9.36177 19
237 1 2.54752 8.92899 -10.9952 18
238 1 -6.31014 -8.87585 12.128 16
239 1 -7.04138 3.29123 10.6762 19
240 1 -5.87122 6.11695 9.99983 19
241 1 0.542993 -7.67322 -5.56964 23
242 1 -6.12657 -12.9836 -2.19556 13
243 1 14.3239 -8.92855 -0.415615 10
244 1 3.67329 -3.97456 -1.51235 21
245 1 12.7113 12.1145 13.8644 11
246 1 6.23661 8.80193 -6.7792 19
247 1 -1.08599 12.7065 0.17042 18
248 1 -10.0084 0.527001 1.89117 21
249 1 -13.1175 13.6019 -0.826716 12
250 1 2.98185 8.4039 10.3782 17
251 1 6.18428 -15.5218 -0.863372 12
252 1 12.7554 -3.46604 -0.0327697 19
253 1 1.40335 10.5465 9.5984 16
254 1 -11.4257 5.69588 9.41842 22
255 1 -8.16636 -5.58567 0.697243 22
256 1 8.55889 1.55625 -10.508 21
257 1 -1.85087 -2.28558 9.07115 19
258 1 6.16586 13.4919 -7.87341 14
259 1 1.66602 -6.3825 -2.61138 21
260 1 -2.53689 0.674106 -12.2047 17
261 1 2.33569 -16.4714 7.45785 9
262 1 5.53757 1.17658 -4.71956 21
263 1 -13.3618 -2.01134 12.0911 20
264 1 3.20941 -16.8002 -1.37619 8
265 1 -8.52927 -2.96803 -6.00592 16
266 1 8.55417 18.2964 -1.59029 11
267 1 0.431713 0.533384 -15.3975 13
268 1 6.34421 3.92752 16.6221 20
269 1 17.2771 1.2657 4.09438 13
270 1 -3.6444 -4.28229 3.49466 19
271 1 10.2834 -3.99533 -8.17338 16
272 1 -1.66578 -7.09085 2.82718 20
273 1 -7.84488 -0.221116 -11.3401 15
274 1 -9.64905 6.36881 -7.80953 21
275 1 -6.69435 -11.2154 10.0817 14
276 1 12.7079 3.46614 8.94047 21
277 1 7.85874 -7.47242 9.23348 14
278 1 -8.34691 -9.46883 -10.8242 11
279 1 1.14927 -5.37905 5.76307 19
280 1 -0.756238 9.83382 -10.5939 20
281 1 7.84074 15.9621 3.17964 15
282 1 -7.01926 -6.64231 5.90972 18
283 1 3.25643 14.6814 2.20351 20
284 1 -8.48483 -1.27237 12.2002 20
285 1 -7.89702 -8.43941 -7.92998 14
286 1 -5.19337 -1.92114 -12.1569 17
287 1 -3.63598 11.3114 -11.6757 12
288 1 -7.78949 -5.44007 -4.56732 17
289 1 -5.43655 -7.77849 3.66818 18
290 1 8.94435 -4.63123 -10.8753 16
291 1 14.9833 -2.30517 -4.16792 11
292 1 9.71155 2.83072 7.20816 24
293 1 -3.20875 -3.86638 -1.53957 21
294 1 -9.70351 -3.20969 15.6136 18
295 1 -2.89763 -8.67286 0.634251 21
296 1 8.64842 8.3101 19.8752 12
297 1 -5.32244 -16.3424 7.1912 9
298 1 -2.25825 -9.25359 4.28747 18
299 1 0.368665 18.4809 -0.566844 9
300 1 7.77871 -3.95774 -13.7703 12
301 1 -5.85056 -6.6208 -16.0489 10
302 1 -12.1388 -7.42748 8.85964 17
303 1 5.11039 7.40294 19.9504 14
304 1 6.73909 -2.64518 1.01625 20
305 1 -5.67927 -10.0518 -8.83236 17
306 1 -12.0673 5.03458 -5.84809 20
307 1 7.64706 5.05386 8.6087 21
308 1 -7.26921 5.52045 -7.77394 22
309 1 1.4183 9.94757 -8.08144 21
310 1 -4.44756 -4.65203 12.0386 18
311 1 5.02899 -10.9994 -4.77754 20
312 1 -5.5761 16.8166 0.068076 15
313 1 4.4902 10.5179 8.42996 18
314 1 13.2992 -2.22852 6.25919 15
315 1 -8.57527 4.09514 2.71421 21
316 1 -2.51405 -8.79457 14.7014 12
317 1 -8.91913 10.5644 2.48961 18
318 1 -0.256881 -2.62833 -9.61907 21
319 1 17.8116 9.7091 -0.0151527 12
320 1 3.39486 -9.55308 2.94524 22
321 1 -1.03616 -4.34648 16.241 12
322 1 -12.9315 -4.94273 11.0141 19
323 1 -0.348702 -16.2937 -0.740311 9
324 1 -6.97123 6.78409 16.0149 17
325 1 -9.82638 8.70954 16.837 8
326 1 -15.9686 -6.30899 12.005 8
327 1 -10.8428 -6.94587 12.1919 18
328 1 14.8059 -5.76705 0.429478 13
329 1 -13.5751 -7.68679 14.4775 10
330 1 8.84782 -0.227545 -6.41662 22
331 1 8.38122 -13.9477 -1.26293 15
332 1 5.52234 19.1118 -2.33939 12
333 1 -4.0286 -2.58465 6.29208 19
334 1 -11.3701 15.2975 1.0896 12
335 1 -0.967772 6.35493 5.69298 21
336 1 12.4597 9.44556 10.5687 19
337 1 -8.35489 -1.894 3.2169 22
338 1 10.9714 -12.8407 -2.13039 12
339 1 -4.34854 12.961 3.93734 20
340 1 -7.84199 2.95524 5.34399 21
341 1 3.71347 -12.2548 7.95591 17
342 1 11.0721 -3.09377 8.16492 13
343 1 -2.23666 7.38649 8.91434 21
344 1 -6.32494 -4.74889 -1.70234 23
345 1 3.05174 2.11044 16.5651 20
346 1 -3.67082 12.9701 9.35091 20
347 1 11.1686 11.4979 17.1502 11
348 1 -6.35078 15.3563 -4.81239 13
349 1 5.85366 -6.06889 -15.4179 6
350 1 -3.51844 3.25998 -4.571 25
351 1 4.7441 -11.5326 -10.7386 11
352 1 -11.1464 -0.80522 13.5253 21
353 1 -15.0184 0.308633 6.57361 13
354 1 -3.20262 -2.25408 -4.60761 25
355 1 -7.96664 7.57015 2.03986 20
356 1 13.765 -0.649305 8.86576 16
357 1 -11.5276 -11.8819 -0.0489492 13
358 1 6.11975 -8.62047 11.5641 13
359 1 -8.14778 -9.44916 14.8934 8
360 1 -11.1232 7.24627 0.363648 18
361 1 -2.07923 -3.94525 11.422 20
362 1 3.42974 -8.08723 0.244754 18
363 1 -2.94182 -4.19878 -7.43198 22
364 1 7.88275 -1.66974 -9.6696 19
365 1 2.78293 17.3463 4.98294 13
366 1 -8.07027 4.0322 -2.63486 22
367 1 1.70399 -7.37974 -13.2856 21
368 1 11.275 3.0045 -10.8745 10
369 1 -3.36364 -14.6624 -6.43873 11
370 1 -11.6169 -7.28202 -2.89796 16
371 1 -4.78829 -5.4053 1.05124 23
372 1 9.31625 8.32529 17.3044 20
373 1 14.5686 3.28525 -2.98803 20
374 1 -9.9905 -0.697283 -7.01087 22
375 1 0.596976 15.5412 0.594867 16
376 1 -13.3204 0.379912 -2.9882 15
377 1 -10.302 11.5458 7.05121 15
378 1 -7.52548 12.0611 4.95512 20
379 1 -6.37469 4.10463 7.49348 19
380 1 8.70663 9.6021 10.9977 19
381 1 15.0524 -1.07614 -0.805331 20
382 1 9.9429 0.58584 16.3793 11
383 1 11.9602 1.43304 -4.42122 15
384 1 -3.08298 -15.9163 -3.4274 9
385 1 -5.92338 6.12682 0.958551 23
386 1 2.01092 -4.8519 -5.22446 19
387 1 4.95784 8.99316 3.21931 19
388 1 -6.37317 2.73891 -5.81659 25
389 1 8.67899 -8.41661 6.33938 14
390 1 13.0481 4.41052 5.84293 20
391 1 -10.5404 -1.59261 -3.40403 20
392 1 -4.69693 -9.02746 6.393 19
393 1 -7.25894 -5.28441 16.8023 12
394 1 -4.03217 14.5909 0.929654 23
395 1 -14.1794 -8.18521 -4.75106 9
396 1 7.77734 11.0116 17.4461 13
397 1 -7.40675 7.76525 -5.89785 20
398 1 3.08094 13.2646 -7.17675 22
399 1 4.03669 13.4864 12.9697 18
400 1 -15.6807 -2.5177 2.54352 14
401 1 -1.46512 -4.96346 -4.4157 25
402 1 -10.7373 0.276516 7.78717 17
403 1 -15.5766 7.01444 1.00403 10
404 1 3.37175 -8.36401 6.37401 16
405 1 -3.48116 -12.8621 -3.66869 18
406 1 13.1594 12.3933 10.703 16
407 1 7.0008 6.99425 -11.8596 12
408 1 -9.2882 2.76785 -7.13383 24
409 1 -2.21683 14.2686 -7.98288 20
410 1 -8.96582 4.89383 -5.24956 22
411 1 -0.674219 -12.505 4.89215 22
412 1 12.1018 6.94426 5.32174 20
413 1 -0.174403 12.0625 -12.7581 12
414 1 -3.72676 1.82973 14.4548 20
415 1 -15.4112 0.0642182 3.28238 16
416 1 -9.11494 -0.255175 5.50971 21
417 1 -4.7864 -13.9092 2.49674 19
418 1 0.734829 -4.96166 -11.3849 21
419 1 9.60552 -9.01446 -6.18557 16
420 1 -3.58049 0.526382 8.86731 18
421 1 -10.7839 2.57656 4.46229 18
422 1 -16.3539 -0.256171 12.4862 9
423 1 -13.7987 8.29415 8.87015 11
424 1 1.66087 -6.29254 10.9079 17
425 1 -8.28657 5.45075 -11.005 18
426 1 8.82721 -10.712 -0.284795 18
427 1 1.93686 -6.97271 -8.30229 21
428 1 -3.05386 -7.37973 12.0511 19
429 1 7.11615 -3.93401 -2.20301 20
430 1 -5.94469 5.76622 -13.3866 14
431 1 5.12292 -11.6654 2.15856 20
432 1 0.962443 13.7713 -2.24916 17
433 1 -8.41464 5.99779 7.55796 14
434 1 -1.489 -1.44025 17.4552 19
435 1 -6.27294 -4.50042 -7.41008 18
436 1 -6.762 -4.44847 8.46258 20
437 1 7.07752 -2.42156 11.9763 18
438 1 9.74914 4.17647 1.02185 18
439 1 -5.18898 4.04762 3.76798 26
440 1 3.26919 3.51542 -4.31038 23
441 1 7.6333 -5.42892 6.5116 20
442 1 14.48 8.02101 -0.889151 22
443 1 3.43988 1.77647 8.82765 18
444 1 5.5405 14.0453 4.14507 21
445 1 4.82181 -1.33913 9.01685 23
446 1 -0.892357 -15.2643 -5.82715 14
447 1 -2.07623 7.40032 15.1786 22
448 1 -5.28515 14.4998 6.55276 14
449 1 -8.659 -11.1429 -7.70321 11
450 1 3.76542 14.4184 6.89024 17
451 1 6.91277 10.4191 9.13657 19
452 1 -11.2585 2.71499 10.3771 20
453 1 -4.65188 -7.52106 -2.11776 21
454 1 -9.73018 4.77657 12.2795 18
455 1 -9.50497 -6.73099 -5.59713 20
456 1 -5.80962 7.6666 7.44155 18
457 1 -6.12372 -8.22598 -5.63746 20
458 1 -0.35691 -6.97788 -16.1295 13
459 1 -7.13835 -12.7115 4.29874 18
460 1 -4.93077 -1.75973 9.20251 21
461 1 7.62833 5.95574 5.95603 22
462 1 -4.56264 -4.05549 14.918 21
463 1 -12.3306 8.44098 -7.31861 15
464 1 7.83711 6.35699 -0.0309943 20
465 1 -8.29358 -11.4585 -4.47798 12
466 1 -1.97025 4.16883 -7.27779 22
467 1 2.73758 18.8535 1.68991 10
468 1 -0.224096 9.63399 -4.99368 22
469 1 -3.79606 7.90402 11.6187 21
470 1 -12.1248 -0.659278 -0.684079 21
471 1 3.69344 16.7856 -3.57397 18
472 1 7.39106 12.1282 -5.13281 17
473 1 -5.0775 -4.95393 -9.97532 18
474 1 5.06409 3.43224 19.1982 11
475 1 -0.562249 -10.6383 -5.63976 17
476 1 1.50029 0.27539 -9.86554 23
477 1 9.9497 -12.0692 7.1048 11
478 1 -12.0912 8.64921 5.73389 16
479 1 3.18354 8.02731 16.7964 20
480 1 11.9861 8.92242 0.113632 17
481 1 5.20862 11.781 1.6106 19
482 1 -6.23999 10.8452 -6.42625 20
483 1 4.76807 6.5746 -4.48822 21
484 1 3.09044 -3.70936 4.11511 20
485 1 -13.5573 -4.4515 3.21668 19
486 1 -1.86214 14.8214 9.0806 12
487 1 -5.59937 8.65693 -11.8889 16
488 1 7.14348 9.22425 1.17507 21
489 1 5.80956 15.3818 -5.49468 22
490 1 6.94706 -4.28258 3.69491 20
491 1 16.1441 0.801198 1.46594 18
492 1 2.15814 3.93763 -15.3747 9
493 1 1.90165 -4.91333 0.591837 22
494 1 -2.49245 -11.1116 7.42421 21
495 1 2.86667 -12.6364 12.7762 7
496 1 -6.07518 5.35573 -4.79039 23
497 1 -11.7557 -13.5207 5.49314 9
498 1 0.375423 -9.92401 -8.33518 21
499 1 5.55792 15.4429 9.61731 16
500 1 1.20716 6.75962 -9.68413 20
501 1 6.93966 0.66709 16.2958 12
502 1 -14.9712 6.63168 12.3573 8
503 1 -2.45265 -12.0006 2.17976 23
504 1 -16.1861 -4.60695 0.674885 9
505 1 14.8411 -9.41501 -4.4038 9
506 1 8.70865 -1.26364 -1.28042 20
507 1 -7.16487 7.2661 -2.49103 20
508 1 3.67281 -7.5406 -5.25846 22
509 1 5.06749 4.44537 -7.0261 19
510 1 11.938 -0.843793 -1.57011 17
511 1 -4.43979 -0.399791 18.8757 11
512 1 5.92221 14.8148 0.420549 21
513 1 -3.27883 -1.8905 -17.5934 6
514 1 5.99029 3.62087 -10.2275 19
515 1 -8.75777 -1.98304 9.01397 24
516 1 -2.13114 16.7511 1.82265 14
517 1 -6.00927 0.481661 -14.1144 12
518 1 -15.4238 -2.6284 5.98976 16
519 1 -0.943519 -9.62611 -13.3599 15
520 1 -1.76268 -12.7639 10.2175 15
521 1 1.7705 11.5938 -4.71862 22
522 1 15.9745 7.24296 10.259 13
523 1 11.3703 6.77736 -0.627234 22
524 1 -9.28205 -10.8538 1.63749 21
525 1 0.349581 -7.77648 0.257622 19
526 1 -1.19721 -1.5373 -14.857 15
527 1 -12.6856 8.41737 11.7302 12
528 1 3.47289 -4.45043 -7.83098 20
529 1 3.64457 9.59067 0.346356 18
530 1 10.0804 -2.37629 1.17409 19
531 1 0.912953 14.4841 -5.24485 20
532 1 5.25674 -6.90453 -1.94264 18
533 1 16.0566 7.31812 1.86547 18
534 1 4.88385 12.8748 16.9189 11
535 1 -9.27353 3.40288 8.66774 23
536 1 5.92686 14.9786 14.5853 10
537 1 8.62325 2.96162 17.9632 16
538 1 -0.164073 4.21772 -9.85167 21
539 1 -4.25 -5.58227 -4.5019 21
540 1 5.279 2.27397 14.2535 21
541 1 6.13149 12.7333 10.6137 14
542 1 7.03364 6.29669 -8.89585 19
543 1 -8.26787 13.553 -4.12705 15
544 1 -1.5792 12.3664 -4.17163 22
545 1 11.8265 0.726518 14.3822 11
546 1 10.3913 -1.0476 -9.67854 13
547 1 13.334 -11.3475 -2.41854 10
548 1 10.1822 12.2172 11.3882 17
549 1 -11.8855 -5.83666 -0.0811476 19
550 1 -8.11379 13.2183 -7.2082 14
551 1 0.626512 1.64241 11.2815 18
552 1 -16.1097 -3.19366 14.3192 11
553 1 -4.93356 13.2598 -8.28412 17
554 1 3.93084 -9.42636 -2.54846 22
555 1 1.71313 -1.46101 -7.06919 22
556 1 -2.45213 17.9447 -1.12951 12
557 1 -8.15408 -7.29878 -13.6882 11
558 1 4.75887 -14.4475 5.9519 16
559 1 -14.79 -0.841393 0.348881 15
560 1 1.84535 14.8565 -11.7707 12
561 1 -6.29367 1.41242 -2.07475 24
562 1 -3.30809 9.45289 17.1362 14
563 1 -10.3739 -3.81938 12.2364 25
564 1 5.2945 7.84706 -1.45803 20
565 1 3.60034 -9.89667 -7.31473 20
566 1 -0.640498 -0.853848 11.7797 22
567 1 7.19046 -1.26056 -3.9059 22
568 1 -13.3201 5.28905 -0.938866 17
569 1 3.25922 5.16693 18.6835 18
570 1 6.86715 18.1163 -4.93863 14
571 1 9.03041 -7.81162 2.12546 19
572 1 3.92227 10.5383 14.4647 17
573 1 3.80793 7.24281 -13.8127 12
574 1 -2.96796 -15.0644 8.45454 12
575 1 -1.48193 0.498373 -9.86001 24
576 1 5.07579 -1.51826 -14.0469 12
577 1 6.97804 11.4225 12.9475 19
578 1 14.3352 5.42905 -6.05299 15
579 1 -2.66916 -4.33153 -12.064 18
580 1 -2.65753 -10.3227 -2.44697 19
581 1 -7.83552 -5.43483 -10.5833 14
582 1 13.4762 1.36033 3.74084 20
583 1 17.4953 6.44298 -0.715711 12
584 1 9.81242 -5.49402 -3.645 18
585 1 15.0269 10.11 9.49339 16
586 1 6.41728 -8.63292 0.50046 22
587 1 5.23648 4.17226 -13.3336 15
588 1 7.48971 11.1303 3.87203 23
589 1 -7.0538 6.4541 4.89017 22
590 1 9.3971 10.7693 14.4492 20
591 1 9.98546 6.58964 -3.34977 21
592 1 11.7041 -2.79719 3.62394 19
593 1 14.6243 2.27963 -5.57521 13
594 1 11.7175 5.86474 11.2713 19
595 1 15.1185 9.86836 12.8048 12
596 1 0.88184 -3.46689 12.0492 20
597 1 14.7804 10.8351 -2.67701 11
598 1 1.92753 2.84752 20.72 10
599 1 17.3865 -0.501349 -1.34872 10
600 1 7.96513 6.38282 11.849 22
601 1 -8.23752 1.02283 -4.45424 21
602 1 15.3695 6.36745 4.9365 23
603 1 9.6905 -2.7305 5.46498 19
604 1 -1.50637 -5.02941 0.798681 22
605 1 -12.4512 7.57965 14.7153 13
606 1 7.86341 14.2176 12.3427 16
607 1 11.1036 6.2047 8.22724 15
608 1 1.27363 13.1586 14.3743 20
609 1 -7.12312 11.5819 13.7463 12
610 1 2.3936 4.43854 10.0314 18
611 1 -0.719044 -16.3727 5.59226 12
612 1 -6.43415 9.60949 -0.23302 19
613 1 14.8812 8.26691 -3.98932 15
614 1 11.6948 -6.51902 -8.22562 11
615 1 3.51375 16.9355 -0.324649 18
616 1 2.79731 -12.0927 -2.8021 21
617 1 9.55222 -7.65321 -11.3358 9
618 1 -15.5417 2.91858 8.14963 11
619 1 -6.93112 8.31947 -9.22419 21
620 1 -4.33372 -11.2494 -0.290104 22
621 1 -4.76516 -1.4827 -7.14865 22
622 1 -14.8405 6.79572 -4.50377 9
623 1 10.5771 -12.8269 1.30426 16
624 1 9.96973 14.3849 2.663 16
625 1 3.6519 -6.96339 12.8871 13
626 1 -13.2615 -0.973537 -5.79306 14
627 1 2.60452 0.321599 -12.7769 17
628 1 1.28953 -1.0604 9.16687 20
629 1 0.634779 4.23221 12.9266 20
630 1 7.47253 9.39583 -9.30041 10
631 1 12.0376 6.79815 15.7325 17
632 1 7.05546 8.74544 -3.96372 18
633 1 12.8413 12.3446 1.48513 17
634 1 2.25997 -10.6015 -5.27258 20
635 1 -7.90743 -5.06386 13.5946 21
636 1 15.3197 5.48727 7.93331 16
637 1 -0.874408 12.6545 16.9547 9
638 1 8.65876 14.5597 -5.15804 12
639 1 -9.54913 9.37264 -1.58301 17
640 1 9.94627 7.05035 2.36592 18
641 1 -10.4297 -14.7098 -0.51062 9
642 1 10.1067 -5.74349 4.65755 15
643 1 6.45675 16.302 6.30496 14
644 1 -0.357168 4.81175 9.31361 20
645 1 -12.2972 -5.63193 5.9644 19
646 1 -10.602 3.72799 -9.53524 15
647 1 6.66593 3.60961 11.5245 21
648 1 -1.30145 -12.2343 14.1659 6
649 1 8.29851 7.52808 14.2366 19
650 1 -7.13915 13.379 1.75926 19
651 1 13.0704 3.9467 2.90769 19
652 1 4.51122 5.13578 7.4448 20
653 1 1.32129 5.27172 -12.5761 19
654 1 -7.25346 1.10301 8.55628 19
655 1 6.65481 0.891636 -8.38839 18
656 1 0.0457883 -1.9464 -4.53582 23
657 1 9.25343 -12.4106 -7.17504 11
658 1 5.76939 8.68685 12.4124 18
659 1 5.29876 7.42033 8.06641 22
660 1 -8.47125 0.207511 15.583 18
661 1 9.14065 10.854 7.00491 19
662 1 -1.72827 -2.63034 14.1311 20
663 1 -1.96806 3.9883 14.3164 18
664 1 -0.547707 -1.78671 -12.2191 20
665 1 -6.61788 2.77024 13.9724 19
666 1 10.3499 4.60207 13.3329 20
667 1 -9.81379 -11.2809 10.0991 10
668 1 14.9802 10.0216 1.56851 19
669 1 5.93908 -12.1458 -1.10237 19
670 1 -2.01345 6.64379 -4.85998 20
671 1 10.34 12.5229 -0.71783 16
672 1 8.48259 13.5407 5.69356 18
673 1 7.95108 -0.459322 -13.0375 15
674 1 -0.0843255 1.83657 8.64856 20
675 1 3.5762 13.1443 -0.404365 18
676 1 13.057 7.1144 2.40623 22
677 1 -6.60289 -8.45516 0.374209 19
678 1 -2.90802 0.600993 -15.101 13
679 1 -10.8294 12.5353 3.43056 18
680 1 7.12931 -9.74597 -6.87104 18
681 1 9.10886 8.42866 4.53898 22
682 1 10.9133 5.12914 -7.36968 17
683 1 13.2023 13.6152 -1.37112 9
684 1 -3.13544 9.32965 5.99459 22
685 1 -10.356 6.62431 3.48298 17
686 1 8.83758 4.5981 -1.92402 22
687 1 12.1775 8.47886 18.737 9
688 1 11.1082 3.7911 16.1972 15
689 1 -1.08576 -9.3062 9.87981 18
690 1 -8.83219 10.6238 -11.3284 9
691 1 -0.607253 15.5629 15.0795 11
692 1 7.1812 -8.05125 -9.60876 15
693 1 3.44889 3.85629 13.026 18
694 1 7.29529 16.0668 -2.8426 17
695 1 5.68142 11.8177 6.64138 18
696 1 15.363 -3.93559 -1.88456 12
697 1 4.92386 10.2304 18.3978 15
698 1 -15.9059 -5.56646 15.2191 7
699 1 5.1904 -15.0225 2.23042 15
700 1 -1.36906 -1.18946 -7.04878 25
701 1 -8.89666 14.6171 3.61231 13
702 1 -4.89445 11.4289 6.81283 22
703 1 6.07612 -1.80818 -6.65158 21
704 1 2.85341 9.10971 5.8128 22
705 1 -12.7621 3.05851 7.74574 22
706 1 0.280512 2.35746 16.05 19
707 1 -8.77267 8.09911 -13.1825 9
708 1 -11.1559 7.33169 -12.0633 9
709 1 3.44478 -14.0611 -0.327932 19
710 1 9.81042 7.67883 -7.79626 15
711 1 4.35459 -5.61145 5.68084 21
712 1 0.391168 10.4268 4.23797 22
713 1 -12.6401 3.94189 15.6063 11
714 1 4.32738 -0.970322 -9.08437 15
715 1 0.750866 -11.5656 11.5946 15
716 1 0.602792 16.8392 -3.44926 14
717 1 0.968573 -1.44064 14.8522 15
718 1 -10.1691 -6.60657 -9.26399 14
719 1 -3.24949 -8.62975 -14.9848 14
720 1 -4.4128 -7.54891 -7.53796 21
721 1 -0.775437 16.6949 -6.67412 12
722 1 6.59404 -7.26453 -4.33959 19
723 1 -4.14715 9.46037 8.91863 22
724 1 5.95584 -13.5809 -3.66478 18
725 1 8.38286 -14.9602 1.96389 10
726 1 2.77103 -3.76564 9.85082 16
727 1 16.6361 0.603185 -3.89834 10
728 1 0.354423 -13.5688 0.31485 17
729 1 -11.3661 -0.478061 10.5041 22
730 1 1.66141 4.52028 -7.43993 22
731 1 -2.60585 -14.4371 -0.812387 17
732 1 -10.5655 -9.09632 -0.708472 14
733 1 -10.2872 2.49296 14.582 19
734 1 -7.19013 -14.7434 0.690047 11
735 1 16.4245 5.23331 -3.63681 16
736 1 -5.95389 14.3491 9.04311 11
737 1 -2.76193 2.9048 6.18932 19
738 1 -13.1119 11.4329 4.97572 12
739 1 8.29261 -1.71237 8.68209 23
740 1 -12.3517 -1.50103 -8.27886 13
741 1 -0.208768 10.637 -2.03972 18
742 1 7.81795 5.80213 -5.59592 21
743 1 9.23891 13.6309 15.2475 11
744 1 14.5594 4.9183 -0.0427106 21
745 1 -13.4677 2.36156 -0.765378 20
746 1 -12.0024 -7.12528 -6.47662 15
747 1 -5.34653 4.567 17.5079 13
748 1 3.71807 7.24605 -8.3051 20
749 1 11.3138 13.3173 5.70486 14
750 1 -3.86446 -1.31926 12.3857 26
751 1 1.54583 -15.1262 -3.04789 17
752 1 -5.27964 -12.9736 7.91158 16
753 1 -1.11972 -6.23186 9.99161 18
754 1 11.1336 13.545 8.60008 15
755 1 -1.45756 -6.55539 -12.879 22
756 1 -4.0195 11.7094 1.19034 19
757 1 4.71543 6.40447 4.52766 20
758 1 -9.35573 -3.76179 6.32886 21
759 1 8.76444 4.53651 -11.2617 15
760 1 1.95852 -12.339 -9.18989 14
761 1 2.52948 -16.3742 4.24179 10
762 1 2.79119 -10.9835 -0.218211 23
763 1 8.16774 3.36961 -7.90655 18
764 1 8.89949 15.5758 -0.00242631 16
765 1 0.139362 2.01094 -12.3486 18
766 1 1.6544 -0.123476 18.6448 12
767 1 -1.94572 6.7472 -10.5356 18
768 1 -10.0029 -2.83467 -9.82343 15
769 1 -13.6019 -3.54838 -0.187527 17
770 1 4.48986 18.8835 -5.87766 11
771 1 8.33192 0.984406 0.56185 19
772 1 -3.08012 -5.18278 -15.3371 16
773 1 -6.67021 -4.80731 3.66159 22
774 1 11.2517 3.86525 -4.96234 20
775 1 8.16758 -5.55032 0.681815 20
776 1 -6.94407 6.24976 13.2103 20
777 1 5.44796 -11.4825 5.30199 16
778 1 11.9704 -5.64687 2.2364 16
779 1 14.5528 0.945067 11.5306 11
780 1 -1.45774 11.2735 8.95302 17
781 1 -12.4463 0.552322 16.3284 10
782 1 -10.134 5.76295 15.4174 16
783 1 -3.96585 -11.9063 4.58289 17
784 1 10.2374 1.95429 3.03991 18
785 1 6.00297 9.75964 15.7326 20
786 1 -12.0934 0.468184 5.13809 20
787 1 11.5191 -9.23111 0.741396 18
788 1 -10.6352 14.9868 -2.3614 10
789 1 2.05756 6.43396 5.60745 18
790 1 -0.288321 -13.8219 7.58957 21
791 1 8.16817 3.44768 14.2235 19
792 1 0.832467 14.1886 6.83386 17
793 1 4.79098 -6.18264 9.0141 18
794 1 -7.85768 -1.80852 -2.37516 22
795 1 5.37435 5.583 14.1536 20
796 1 -11.9383 -1.72967 2.32415 20
797 1 -0.68455 9.39179 17.1195 18
798 1 7.73061 12.5571 0.995263 20
799 1 -7.75171 -6.17042 11.3086 21
800 1 -3.17906 -14.6777 5.30904 19
801 1 7.13224 -4.20286 9.80909 16
802 1 9.61675 -2.87766 11.2869 15
803 1 6.391 9.21997 6.09342 21
804 1 -4.05466 6.9535 -2.35145 18
805 1 -1.20036 -7.00319 -7.31801 23
806 1 -4.99057 5.86113 -10.3449 22
807 1 -3.56419 -3.26838 17.6847 15
808 1 0.735305 13.8988 4.20478 19
809 1 12.4542 1.75801 6.8166 18
810 1 5.13417 11.0101 -5.36486 17
811 1 -4.45973 5.2988 14.5285 23
812 1 10.9137 8.30433 12.7808 18
813 1 7.02916 -4.66466 -8.66005 23
814 1 -5.96984 -10.064 -3.04367 21
815 1 -4.75753 0.286445 -4.44093 23
816 1 8.61908 8.15792 8.36772 18
817 1 0.0897747 1.76478 -7.09172 23
818 1 -2.35532 6.14293 17.3535 18
819 1 9.5581 -13.0249 -4.66207 10
820 1 8.41987 2.62439 -14.1925 9
821 1 -1.65054 -6.59532 -1.45676 21
822 1 14.2949 3.00408 -8.68467 9
823 1 14.0502 -2.86981 2.45011 19
824 1 4.43946 -4.02605 11.8063 18
825 1 -5.47256 -8.2092 -11.1844 20
826 1 13.6905 15.5895 1.79166 6
827 1 -1.96603 -4.30719 6.62478 21
828 1 -13.7964 6.35922 6.53786 14
829 1 12.9032 6.13811 -3.22158 22
830 1 16.8206 7.69614 6.79073 13
831 1 2.60326 -2.40985 -10.7823 19
832 1 -9.57362 13.2565 9.63098 11
833 1 14.297 11.7649 4.20647 16
834 1 12.7408 7.90228 -6.34033 10
835 1 4.92753 1.7156 -14.5692 11
836 1 9.96665 -4.1832 -1.16423 19
837 1 -11.618 4.25 1.80291 17
838 1 10.0094 4.92002 4.21564 19
839 1 -14.6784 -7.50285 -1.2304 10
840 1 -15.1911 4.80013 -6.88084 10
841 1 5.25382 6.3123 11.0111 21
842 1 -9.61944 0.778211 -9.51873 21
843 1 -14.2625 5.02766 9.75573 17
844 1 -3.1631 3.18013 -10.2836 22
845 1 11.994 -10.7504 -5.39166 11
846 1 -11.0493 -9.94362 -5.82323 13
847 1 11.0109 -6.72631 -0.302504 20
848 1 -14.496 2.61748 4.83083 15
849 1 -9.40833 -4.79305 -1.90204 21
850 1 14.9854 4.22444 11.2742 15
851 1 -9.62075 -10.7348 4.62947 22
852 1 10.4124 5.8302 18.0309 14
853 1 16.1474 -0.262127 6.95312 12
854 1 8.38039 0.5281 6.07979 22
855 1 -12.8573 6.15665 3.38462 18
856 1 -2.21478 10.5709 14.5011 17
857 1 4.39498 10.7945 -8.28218 19
858 1 2.24186 -2.56787 -15.4827 12
859 1 -7.7437 9.9151 8.14353 17
860 1 -11.761 -10.5978 6.77986 15
861 1 9.87618 12.207 -3.41603 12
862 1 0.891159 8.65743 14.3349 16
863 1 13.3146 -7.11967 -2.46941 17
864 1 6.49177 -5.74222 12.0128 14
865 1 -4.13524 16.0963 -7.26787 10
866 1 3.69297 14.0263 -3.82027 19
867 1 -3.94998 -0.656577 15.7523 23
868 1 17.9507 4.30496 6.12053 10
869 1 -4.96434 0.627848 -10.1534 21
870 1 15.8491 12.6851 0.00175072 10
871 1 -15.161 3.56627 1.66278 16
872 1 -3.73943 -9.80085 9.67927 20
873 1 5.37551 16.94 -8.45281 12
874 1 10.7361 0.282109 9.11153 25
875 1 -0.900579 -10.8952 -0.205726 20