ITEM: TIMESTEP
24000
ITEM: NUMBER OF ATOMS
1000
ITEM: BOX BOUNDS pp pp pp
-30.0 30.0
-30.0 30.0
-30.0 30.0
ITEM: ATOMS id type x y z Coordination
1 1 -6.69683 -2.0687 -4.83765 22
2 1 3.75284 -5.93711 13.1741 19
3 1 -9.04051 13.1329 2.83596 12
4 1 -11.3268 3.00234 -6.12794 13
5 1 -4.41773 -3.66429 17.8316 17
6 1 -13.4307 0.540973 -4.99625 12
7 1 -5.7581 -9.1601 10.4327 18
8 1 4.56784 -1.30967 10.1188 16
9 1 -6.8572 4.90534 17.7586 13
10 1 11.3198 -1.70283 5.19901 10
11 1 -9.25815 8.60056 -5.36734 13
12 1 -1.72992 3.78043 18.2116 14
13 1 -10.5941 -2.64214 4.65076 14
14 1 -4.53849 4.18108 -5.34428 22
15 1 -1.71026 2.12697 12.5494 22
16 1 -4.98718 2.43202 18.5384 13
17 1 -5.72977 -10.3165 12.6601 11
18 1 -16.6176 -0.923421 9.72581 5
19 1 -14.2672 -0.688936 3.92392 10
20 1 -1.74758 11.6612 2.27079 15
21 1 2.7947 7.28155 -1.57367 18
22 1 1.60769 -5.65509 -7.60626 11
23 1 -4.63842 -0.956756 19.3913 14
24 1 -8.63157 6.15832 8.13526 20
25 1 0.986527 11.3487 4.43708 15
26 1 4.82213 -8.08447 9.91793 17
27 1 6.67776 -9.63411 0.037319 9
28 1 1.86311 1.47243 11.8061 15
29 1 -2.0609 6.11188 0.235983 19
30 1 3.66772 6.11808 3.62513 23
31 1 0.910231 3.95159 12.7258 16
32 1 -12.0532 -2.18564 1.94851 18
33 1 3.08649 4.01117 18.1386 11
34 1 -13.118 -7.91687 4.92903 12
35 1 9.26804 0.270345 7.15124 19
36 1 6.28519 3.0 -0.311621 14
37 1 -1.43197 -0.360718 15.0545 22
38 1 -7.45416 -5.13236 0.683865 18
39 1 -11.3326 -4.49634 -6.5963 10
40 1 -8.05221 13.9881 6.00648 11
41 1 -7.01821 6.80656 -6.83683 14
42 1 6.06157 -1.47108 -8.26757 8
43 1 7.15774 -3.42634 17.2733 6
44 1 2.51255 -9.25442 11.8372 17
45 1 -7.6138 6.70826 14.7889 19
46 1 -5.83049 -6.47389 13.0054 23
47 1 -12.9779 2.30185 6.12982 12
48 1 5.87519 -6.27206 2.72653 20
49 1 0.385255 3.62926 -10.8097 6
50 1 3.61649 11.3543 10.0039 10
51 1 -10.8395 9.64426 -3.23378 12
52 1 1.62414 8.18325 5.35263 24
53 1 -8.7242 -7.74874 13.8638 8
54 1 -4.14283 -3.24839 -10.2721 8
55 1 1.62651 -2.53432 -2.90659 21
56 1 -4.79835 4.85897 15.6326 20
57 1 -11.95 -10.8129 -1.47252 7
58 1 7.08985 -6.52702 11.8266 17
59 1 -11.4138 -10.0863 3.70003 11
60 1 7.86981 -6.73507 8.95724 18
61 1 -6.04704 7.08695 8.73112 20
62 1 2.02712 5.0436 -4.94435 18
63 1 6.66474 -6.84309 5.50151 19
64 1 -9.95249 -6.67811 5.14145 18
65 1 11.3483 3.67249 7.16632 13
66 1 10.0511 3.29465 2.43588 13
67 1 -7.07066 10.5294 -3.3516 16
68 1 -3.11816 3.3977 -10.1734 11
69 1 -5.79796 8.21834 -0.977463 19
70 1 4.5592 -1.80652 -1.51558 19
71 1 0.619906 2.87098 -7.4778 16
72 1 9.9313 -7.28998 10.707 11
73 1 -8.18837 1.40617 -0.972499 21
74 1 4.08825 10.4729 6.7602 18
75 1 9.66468 10.4974 3.41824 11
76 1 -0.716522 8.67693 7.55517 21
77 1 -8.2126 -6.6896 -4.94361 13
78 1 -12.07 -4.66891 -3.08281 14
79 1 -7.70831 7.70689 11.2512 18
80 1 -0.263243 9.03476 0.4717 22
81 1 3.23953 0.67055 19.1428 11
82 1 -11.2706 -4.47718 9.76392 14
83 1 -0.988577 -12.5301 4.85892 12
84 1 9.40294 5.8695 4.21565 19
85 1 8.75191 7.01874 -0.650413 15
86 1 -4.2871 -8.68242 15.4294 9
87 1 -9.59173 7.43449 4.58145 19
88 1 0.146023 5.87078 18.3643 11
89 1 -2.87444 2.41632 -2.52365 16
90 1 -5.15801 -3.78425 11.4902 22
91 1 -8.10166 -10.9088 8.63276 10
92 1 -0.75183 -6.81416 0.68194 16
93 1 -8.65671 10.3026 10.2788 11
94 1 -9.55748 -1.88402 7.0644 17
95 1 -11.5527 0.682029 3.83407 17
96 1 1.92438 -7.82564 7.65395 20
97 1 5.67207 4.76328 5.53189 22
98 1 2.3439 5.74723 15.6554 16
99 1 -8.44355 -1.34906 -2.83853 20
100 1 -13.2536 3.79192 -3.32198 14
101 1 -6.45326 14.4993 2.45782 10
102 1 6.83631 6.3014 11.0354 18
103 1 -7.87573 12.8709 -0.322994 13
104 1 4.59504 10.7435 0.396836 16
105 1 -10.9579 1.62472 10.9169 19
106 1 -6.40619 5.22908 12.2579 18
107 1 2.42895 -5.08746 -1.50555 20
108 1 3.33738 -5.6697 4.50476 21
109 1 1.80536 8.40274 -4.61008 13
110 1 -2.50388 3.32 7.09033 20
111 1 -11.06 4.24986 5.70082 20
112 1 0.14128 2.61528 15.9306 19
113 1 7.52968 -2.64209 -2.3399 16
114 1 0.584594 7.31662 11.3287 16
115 1 -7.08684 9.33345 7.23103 21
116 1 -9.51533 -7.9716 2.81519 20
117 1 0.648266 -1.54918 13.4324 19
118 1 4.02858 -10.5823 0.849654 12
119 1 -4.65912 0.22819 -4.38815 21
120 1 9.33966 2.57341 -4.59025 10
121 1 -12.9237 -3.29545 7.61559 14
122 1 -11.3601 -1.18557 -7.96636 8
123 1 -6.34241 -5.95142 3.79144 20
124 1 -5.60536 -9.33753 4.49553 19
125 1 -10.3655 -0.294195 -5.39276 18
126 1 -13.7808 6.30895 1.34492 11
127 1 7.2698 1.59667 14.8618 12
128 1 2.1432 0.0237261 15.5517 20
129 1 3.24558 -3.3744 11.9669 21
130 1 6.79177 10.2589 3.88095 16
131 1 -7.69028 -3.794 5.3864 20
132 1 5.68172 9.51568 9.13182 17
133 1 -2.8201 -9.15425 -4.75279 9
134 1 -6.03285 -5.13821 -6.96003 13
135 1 -3.6226 -11.5514 6.45821 15
136 1 9.1984 2.28128 9.11707 14
137 1 0.986257 0.0210295 -5.60698 20
138 1 -8.68152 1.00539 8.94063 24
139 1 -5.41384 -9.26408 7.43856 17
140 1 -1.00211 -12.1374 8.70859 13
141 1 0.583376 -10.6069 6.21582 20
142 1 -11.9572 8.5809 2.05986 16
143 1 12.809 5.51475 4.77994 11
144 1 -13.4943 -2.41912 -5.14641 10
145 1 -6.26539 9.59112 -6.26296 10
146 1 0.493773 -2.41032 17.5761 19
147 1 -1.93074 5.58196 12.0547 19
148 1 6.45519 0.212189 12.2777 17
149 1 -11.2945 3.27013 8.40504 17
150 1 -6.21706 -5.96751 16.0263 14
151 1 -10.0992 5.10905 11.0809 18
152 1 -1.77901 -6.08934 -6.5418 14
153 1 5.01165 -11.3351 10.0232 11
154 1 6.24321 1.4744 -5.93773 16
155 1 -13.0597 -1.6958 10.7169 14
156 1 7.9413 -12.0792 7.7798 10
157 1 -2.57057 11.0392 9.17133 14
158 1 -12.2374 9.9164 8.47377 8
159 1 6.05008 -6.39516 14.7868 14
160 1 -4.43028 3.11992 13.1641 19
161 1 -11.5643 -1.72508 -1.13509 16
162 1 0.328497 9.84069 10.2749 16
163 1 -5.06966 -0.437198 -1.97841 21
164 1 -13.08 5.88712 4.30389 14
165 1 -8.34377 -9.44484 -2.497 14
166 1 -4.24975 9.09973 7.2773 21
167 1 4.18835 -0.922055 13.8464 22
168 1 2.27549 -2.96583 15.4372 21
169 1 -4.54912 -3.25781 14.4039 24
170 1 4.27267 -7.70811 -0.267567 18
171 1 -9.16481 -3.42149 -6.7075 15
172 1 -11.6941 -5.38402 0.303974 17
173 1 -5.89227 -7.3813 -1.26659 20
174 1 10.3929 4.72779 -0.442583 11
175 1 -11.1121 6.2438 -4.97885 13
176 1 -12.2729 6.54825 7.40697 15
177 1 -9.7206 10.916 6.79969 14
178 1 -7.92606 2.93163 12.9998 22
179 1 5.59139 -8.02738 -2.98566 9
180 1 4.17693 -3.02644 2.85298 22
181 1 -8.60892 6.08487 -0.431697 16
182 1 -2.65496 -12.4318 -0.980608 9
183 1 -4.22 7.04335 14.2019 20
184 1 -12.9909 2.9699 2.87519 17
185 1 7.71808 -9.62262 10.3466 15
186 1 8.95429 -1.2054 10.3055 13
187 1 -8.99798 -4.24187 -3.87617 19
188 1 -9.22491 -9.32547 6.1513 17
189 1 -2.1764 11.0157 6.21479 16
190 1 -9.85043 10.1386 2.6997 16
191 1 -5.991 -5.06216 -3.86344 20
192 1 3.79187 -9.55205 5.75895 20
193 1 -7.5319 -10.8689 2.6049 13
194 1 -10.825 11.2865 -0.143622 12
195 1 2.50155 -10.827 9.17858 17
196 1 -7.63408 -1.52748 10.4433 21
197 1 -6.0575 1.3779 11.1824 19
198 1 -1.57452 -0.532333 -3.05151 19
199 1 -6.6162 2.30867 15.6677 20
200 1 -13.7151 1.03943 9.76802 11
201 1 -1.28512 -3.80713 15.0892 20
202 1 -6.91018 -2.48183 16.7576 14
203 1 -0.532276 -4.38572 -3.65674 20
204 1 4.26445 -12.8732 7.14812 10
205 1 -4.36199 13.4352 0.859836 12
206 1 -5.75208 -6.20512 9.53969 20
207 1 0.0450877 -6.4911 15.4241 15
208 1 4.75095 -0.108149 1.27309 15
209 1 -2.37876 -0.389083 -6.15379 19
210 1 5.77862 -3.72008 14.1778 19
211 1 -9.34225 3.58446 16.3625 13
212 1 0.878777 10.6887 7.45019 16
213 1 3.83428 -5.28833 16.2829 14
214 1 -3.80205 -9.13059 -2.04475 16
215 1 1.88644 8.69094 16.587 9
216 1 -7.99546 3.59343 9.97954 21
217 1 -0.261803 -7.63131 -3.49736 15
218 1 -8.75661 -6.24414 -1.69367 23
219 1 -10.7357 8.17746 9.91773 13
220 1 -5.92081 -10.6314 -0.213082 12
221 1 -9.70067 -4.83752 2.74169 19
222 1 6.33558 1.33633 9.47583 16
223 1 8.09715 7.596 2.23249 20
224 1 -0.617556 2.92496 -0.201411 21
225 1 -4.0148 10.5553 -3.90806 14
226 1 -6.05471 8.10724 17.2439 12
227 1 -11.5475 -7.54382 -2.05123 10
228 1 -0.862526 9.83647 -3.74907 14
229 1 -5.88887 -7.95425 -4.54271 14
230 1 0.0956261 -1.04081 -11.6221 9
231 1 10.0586 9.9883 0.723463 11
232 1 3.56674 6.51729 11.1802 18
233 1 -3.47922 8.01191 -5.68659 17
234 1 0.514769 -7.57896 5.5125 20
235 1 -9.56425 5.58296 -7.52067 11
236 1 10.927 7.60918 5.12519 13
237 1 7.45749 -9.46815 5.79964 13
238 1 -4.90854 0.363015 -9.39944 14
239 1 2.62594 -7.99095 2.68391 21
240 1 -3.09962 -5.89666 15.0423 20
241 1 -16.2182 5.3273 -1.5329 6
242 1 -7.46276 1.49549 -4.47584 23
243 1 -15.5697 -5.8168 6.96716 6
244 1 10.7893 -1.84028 1.94767 15
245 1 -11.4462 8.08904 -0.787287 13
246 1 1.56814 -8.31251 -0.449707 17
247 1 3.71427 3.63696 -7.08528 17
248 1 4.92331 -4.76752 -3.93104 14
249 1 -10.2507 -2.83932 12.0352 17
250 1 -4.95363 12.0762 6.78437 19
251 1 -2.80601 8.18874 -1.98946 20
252 1 9.24121 9.45201 -2.40805 8
253 1 2.85269 -5.06297 1.26619 18
254 1 -0.579844 -4.13912 -9.40698 13
255 1 8.57216 -6.85425 1.37118 11
256 1 4.7947 -6.83914 7.44428 18
257 1 -12.0598 -0.76344 13.3029 13
258 1 -9.49379 -12.7828 0.279056 6
259 1 -1.96823 0.92126 19.7435 13
260 1 5.35526 7.89953 1.86986 16
261 1 -6.56693 10.8987 1.67115 25
262 1 1.26222 11.4879 0.959043 13
263 1 5.04815 7.56208 15.1437 11
264 1 0.855484 -10.3866 2.77838 18
265 1 6.40605 4.3712 -5.41369 17
266 1 -12.7735 -4.91283 3.47839 14
267 1 -4.38117 6.681 2.65389 17
268 1 -8.83049 -5.46407 11.6501 16
269 1 8.14133 8.19134 6.57729 20
270 1 -0.197905 -2.93415 -6.4439 19
271 1 -2.0081 -2.19806 20.0192 12
272 1 3.41334 0.359303 -3.40591 16
273 1 -10.7629 4.9155 2.04636 19
274 1 5.31649 -3.67871 0.43086 17
275 1 -3.33484 6.97008 17.2619 13
276 1 -3.30196 5.69597 -3.26099 17
277 1 -0.643583 3.97518 -4.57533 18
278 1 -3.18225 -3.27321 -5.83229 19
279 1 -2.13137 -9.14316 7.57989 17
280 1 10.6705 -2.22352 -1.34004 9
281 1 1.92405 -4.99296 -4.92149 17
282 1 6.31322 -9.14329 3.29602 17
283 1 6.80207 11.8747 1.47547 10
284 1 -6.38821 6.84146 5.31027 22
285 1 11.0993 7.69124 2.22252 13
286 1 0.657394 -4.95351 12.9577 19
287 1 8.28566 3.21896 12.1379 13
288 1 -14.0718 -1.19149 -1.92239 10
289 1 9.18558 0.685388 0.420197 16
290 1 6.48356 -1.29231 8.11153 21
291 1 -0.899811 8.20869 16.1319 12
292 1 3.93234 2.39882 14.0585 18
293 1 -5.12538 11.0827 -1.0168 16
294 1 -3.10413 -5.96415 -3.30728 22
295 1 -9.41283 6.96199 -2.58945 17
296 1 -7.8597 -0.239357 -7.29794 17
297 1 -13.9853 3.69163 -0.231378 15
298 1 8.32376 -8.9339 13.5893 6
299 1 2.81539 -6.03364 10.2038 19
300 1 6.08263 7.60159 -3.6433 11
301 1 7.98949 -1.58757 5.19839 19
302 1 2.33275 8.40075 8.71245 22
303 1 9.77724 -6.28467 5.91925 12
304 1 -3.20368 1.7475 15.8729 20
305 1 -9.47746 -6.73242 8.55793 15
306 1 -8.07225 3.4177 -7.55439 12
307 1 0.227661 0.0384053 18.0753 17
308 1 -4.30485 11.7742 3.81843 20
309 1 5.35819 4.23749 8.78021 16
310 1 3.62092 1.88806 7.32304 18
311 1 -10.7209 -0.812981 9.59451 21
312 1 3.59314 0.114347 -6.5523 17
313 1 -1.30526 -9.94393 0.636685 16
314 1 8.27345 8.72957 9.78283 15
315 1 2.90024 8.37484 13.884 13
316 1 -2.46482 -2.05085 17.204 21
317 1 -9.47504 6.8121 17.2366 9
318 1 -10.2313 2.20019 14.0357 15
319 1 -10.5071 4.19065 -1.23398 14
320 1 5.06003 8.06749 4.91683 19
321 1 -3.1827 -0.292116 12.4773 19
322 1 -1.91859 11.4991 -1.23373 16
323 1 -4.28478 -8.2787 1.91934 19
324 1 5.44336 6.71241 7.81059 19
325 1 -9.41171 1.39033 6.33964 18
326 1 -8.17398 4.95908 4.18131 16
327 1 7.04049 11.6076 -1.94664 8
328 1 7.53803 5.09435 14.2308 11
329 1 5.9385 9.30059 12.0922 10
330 1 0.400665 1.75541 -2.81943 20
331 1 -4.70667 4.40034 9.78456 24
332 1 2.16473 -2.1876 0.841911 23
333 1 -2.48287 6.14161 8.73708 20
334 1 -15.388 -2.70824 6.45758 8
335 1 2.44332 -12.4838 3.89902 12
336 1 3.95901 6.81476 -6.34455 11
337 1 4.79371 -3.93605 8.83257 21
338 1 -4.13211 7.46776 10.8912 17
339 1 2.14189 0.895416 -9.07622 16
340 1 -0.830867 -3.66443 -0.630422 19
341 1 -2.63623 9.40338 11.9448 14
342 1 1.73438 -5.00084 17.9386 11
343 1 -10.1065 -9.71956 0.541906 16
344 1 -9.09114 -0.267555 12.4669 22
345 1 6.49949 1.22575 6.22883 20
346 1 -3.62757 9.1776 1.40104 23
347 1 8.47472 6.15331 -3.25424 15
348 1 5.86641 7.18011 -0.670534 18
349 1 -2.34644 5.49471 -7.44107 15
350 1 -7.33942 -3.56923 13.1704 19
351 1 -6.05376 -0.700849 13.5058 20
352 1 -1.80757 -1.59027 -8.88019 17
353 1 -7.24857 8.08818 2.01618 20
354 1 7.95788 10.5761 6.57381 11
355 1 -7.8193 -4.04709 8.96789 20
356 1 2.2618 -1.7125 -9.06595 13
357 1 -5.20487 -0.38991 16.7515 22
358 1 -13.0564 -7.75174 1.99815 11
359 1 7.20398 -1.27839 2.52894 19
360 1 -7.29102 -7.9921 1.29377 19
361 1 7.54895 -4.28845 8.09631 17
362 1 5.85494 -12.8209 4.69937 8
363 1 -5.17626 10.7466 9.86824 15
364 1 -11.2219 5.76638 14.4094 11
365 1 8.24789 5.3441 7.9333 22
366 1 5.82002 -3.61594 5.41321 23
367 1 0.484028 5.64446 8.75009 15
368 1 -0.387231 10.3 13.7612 12
369 1 -0.00251207 -11.3823 11.3491 9
370 1 -7.65594 -1.42448 0.177309 18
371 1 0.844143 3.07941 19.5702 11
372 1 3.82839 10.8124 3.53209 17
373 1 4.03309 -2.10431 17.4308 15
374 1 6.5783 -2.9378 11.6043 20
375 1 5.39474 4.26842 16.0659 13
376 1 2.06153 8.27589 2.15105 23
377 1 2.3139 -7.9493 -3.99818 10
378 1 -5.54729 1.41069 -6.83384 17
379 1 -8.82061 -0.201571 15.3981 15
380 1 9.47154 0.65463 3.52182 18
381 1 -0.0511619 6.857 2.9096 18
382 1 3.76465 -2.63338 -6.27808 16
383 1 -6.85884 -12.0261 5.65756 11
384 1 -10.7297 1.54382 -3.33567 20
385 1 -2.51886 2.27744 -6.52407 18
386 1 -1.66061 -9.30383 4.58153 19
387 1 -0.394415 -8.13942 13.0214 14
388 1 -3.13263 -6.96584 9.63484 17
389 1 8.65969 3.38709 -1.86642 16
390 1 -7.33228 12.7981 8.71911 12
391 1 9.27119 -4.34644 0.218448 13
392 1 -14.283 0.168634 0.40429 14
393 1 11.46 1.94687 5.43744 12
394 1 -1.70541 4.54882 14.8033 20
395 1 -15.6715 1.71128 -2.52132 10
396 1 -7.998 4.30072 -3.64016 18
397 1 8.57965 -4.35408 3.48222 19
398 1 -9.64345 -3.66893 -0.450501 18
399 1 -3.40845 -11.1874 10.0334 14
400 1 9.19728 -3.767 11.1103 11
401 1 -12.3572 9.21224 4.98403 11
402 1 -0.137341 7.31339 -5.98448 14
403 1 -1.77062 -5.05719 18.097 15
404 1 -2.58199 -5.98355 12.4528 23
405 1 -5.17103 -2.33814 -7.79995 17
406 1 -6.99384 -6.81671 6.58736 20
407 1 5.0936 1.2566 16.7082 17
408 1 -2.6787 -11.5132 2.59483 13
409 1 6.57707 1.10301 -3.1837 16
410 1 -7.26148 11.0553 4.59655 21
411 1 -4.9851 -1.26663 9.74801 19
412 1 -0.15637 -9.72636 -2.03704 12
413 1 11.2474 6.81473 8.08934 12
414 1 10.8578 1.46688 -1.42295 8
415 1 0.0393679 -9.05857 9.7498 20
416 1 1.63163 9.91115 -1.33294 15
417 1 7.06431 4.79003 2.13683 18
418 1 -11.4797 1.25655 0.0544525 19
419 1 5.07349 4.94819 -2.4292 20
420 1 5.00746 3.63885 11.9481 17
421 1 0.870496 5.33113 1.06232 21
422 1 -10.0061 7.74472 13.1333 10
423 1 6.98372 1.78824 3.50203 22
424 1 2.64031 -7.82353 15.1808 10
425 1 10.0315 5.72841 10.4266 12
426 1 6.63726 -5.05189 -1.29542 15
427 1 -5.84314 6.9501 -4.08878 19
428 1 -3.71322 9.91237 15.2767 10
429 1 -2.67751 6.82114 5.75582 19
430 1 -3.61361 -8.71575 12.3065 19
431 1 9.78939 -9.00796 7.459 11
432 1 -1.765 1.18779 -9.32161 17
433 1 -12.5009 -5.79755 6.72789 14
434 1 -8.34573 9.44492 -0.702684 21
435 1 7.76162 -1.81183 13.8495 14
436 1 -8.89475 -9.31598 10.9267 10
437 1 11.4209 -4.82013 3.20892 10
438 1 -5.47814 4.50487 -8.35206 11
439 2 -15.9035 3.50598 -2.07709 9
440 2 -7.23808 14.0242 4.26965 12
441 2 0.931707 2.63392 -9.28491 11
442 2 -10.1382 6.85646 15.5095 10
443 2 -13.1664 -1.45596 -3.58016 13
444 2 -0.130184 -4.2564 18.0727 15
445 2 -7.56045 -1.09778 2.31673 19
446 2 12.6015 3.63222 5.52663 9
447 2 -4.27584 -1.44948 -9.46262 12
448 2 -10.5326 -11.4149 -0.2447 9
449 2 -9.05399 3.89115 2.50307 14
450 2 0.482646 -9.75468 12.2389 12
451 2 5.99311 2.518 15.819 12
452 2 3.41257 -1.18488 -5.10073 20
453 2 6.1945 -0.352115 10.4436 18
454 2 -8.45543 9.6006 1.66204 22
455 2 10.5946 4.82015 8.58381 14
456 2 -7.78948 -3.19467 7.11289 18
457 2 -4.56731 -10.2788 11.2441 13
458 2 7.07168 -7.61385 13.501 10
459 2 -12.0438 10.1142 6.58754 9
460 2 -0.678753 7.3941 1.31591 19
461 2 -2.15778 10.2274 14.3269 11
462 2 2.34923 -2.52011 2.74646 22
463 2 -3.89916 6.30197 -4.8278 17
464 2 6.30652 -0.139423 -6.92457 13
465 2 7.39736 2.7186 -4.7371 16
466 2 5.45 11.0654 2.50903 14
467 2 -10.1562 10.2563 9.07289 13
468 2 -6.99872 -6.05337 -2.49854 21
469 2 -3.34366 -3.31817 16.0822 23
470 2 7.38457 -2.9702 3.84885 18
471 2 -14.837 0.534859 -1.39982 13
472 2 9.65299 7.53269 3.51615 18
473 2 7.00662 -11.4341 9.92164 10
474 2 0.449547 3.88359 14.4703 17
475 2 1.98501 6.84138 9.89262 15
476 2 0.131358 8.97196 -4.89709 12
477 2 -11.2787 1.18134 12.8222 16
478 2 6.55475 5.65461 -3.7679 16
479 2 -14.6482 5.43302 -0.180041 9
480 2 -12.9034 -3.23191 9.45148 16
481 2 -9.39592 -8.95757 8.89445 13
482 2 3.6759 -7.68529 8.63071 18
483 2 -5.30522 -1.96509 17.862 16
484 2 -2.81409 8.58298 16.367 14
485 2 -13.0692 0.874167 4.80718 13
486 2 3.24362 -3.4898 -0.292558 19
487 2 9.8032 2.36396 4.29244 18
488 2 0.691483 -11.6292 4.43038 15
489 2 5.10182 5.00989 10.6423 15
490 2 7.85211 -8.35696 2.22222 13
491 2 4.77956 -2.44747 7.78595 21
492 2 -3.21317 -8.57848 3.72997 15
493 2 11.4324 -2.79114 3.50972 11
494 2 -6.04311 -8.17529 6.15334 17
495 2 10.483 -5.31259 4.54888 10
496 2 -1.05757 -4.37332 -5.56433 22
497 2 -9.58535 -5.11722 0.771063 20
498 2 -5.76662 -8.96211 0.835103 17
499 2 -7.21949 -3.41689 -0.38252 19
500 2 -4.23276 10.9159 8.1689 16
501 2 -1.90708 7.19541 -6.75373 10
502 2 8.17102 10.8601 1.85987 13
503 2 7.78995 7.86304 -2.40242 15
504 2 -10.5499 3.93297 14.7776 12
505 2 -10.7818 8.44353 3.68089 15
506 2 -8.09054 4.36597 11.78 20
507 2 -12.6644 7.3074 5.51327 14
508 2 -12.0864 4.53069 -4.92079 12
509 2 9.11168 4.44694 -4.01326 9
510 2 8.53553 -10.4073 7.148 11
511 2 4.82754 0.815716 2.82492 18
512 2 4.41225 11.319 8.37658 11
513 2 -5.91725 5.17323 8.15114 21
514 2 12.3937 6.95502 3.65749 10
515 2 -2.21379 5.07452 6.92418 22
516 2 -0.782818 10.6678 1.08479 19
517 2 -2.84702 5.83107 15.2971 18
518 2 2.69174 2.43142 19.1368 11
519 2 -1.29915 3.93646 -10.6436 8
520 2 -8.64964 4.94742 17.123 12
521 2 1.64358 -0.434371 -10.4273 10
522 2 -8.52991 -2.21564 12.6115 20
523 2 3.12745 -8.95086 0.958399 17
524 2 -1.47494 -2.74869 -2.25712 22
525 2 4.5018 -7.6429 3.50926 19
526 2 6.81265 1.86008 -1.61838 15
527 2 -10.0558 6.91583 -6.38013 11
528 2 -1.54435 10.4093 10.5435 16
529 2 -10.0256 1.80728 -1.46667 19
530 2 0.700187 8.49404 3.78837 20
531 2 2.10379 11.2487 6.06901 13
532 2 -7.75076 7.7183 16.7167 10
533 2 6.77409 -11.0708 4.31214 11
534 2 -3.06485 2.63145 19.0458 13
535 2 4.69939 -4.77337 2.05488 22
536 2 7.6114 9.66309 8.26864 15
537 2 -5.58705 7.91669 -5.86386 16
538 2 -0.149306 1.51821 19.357 14
539 2 -4.98461 -4.72047 13.1634 19
540 2 4.08041 -6.69416 15.181 14
541 2 -6.69369 9.84878 -1.56722 18
542 2 -2.56472 -11.4489 4.51095 16
543 2 -3.74037 1.15952 -5.70109 21
544 2 -2.00356 -7.39142 -4.92951 14
545 2 6.91929 5.74125 9.14911 22
546 2 -12.4122 -9.15353 -2.08114 6
547 2 -10.4257 5.42684 4.23585 17
548 2 5.3562 -2.1331 13.1171 18
549 2 -0.60118 -12.2339 6.8168 12
550 2 -4.2963 3.63494 -3.44197 21
551 2 -2.27179 -2.58599 -7.32411 19
552 2 -14.4869 1.95175 -3.99973 13
553 2 -8.22917 -1.15958 16.7684 10
554 2 -4.68348 -3.98638 -6.18545 16
555 2 1.19275 -3.01199 -4.71654 16
556 2 4.49431 3.80157 -0.999035 18
557 2 -6.72153 4.99293 5.56292 18
558 2 -3.31034 0.464234 -2.75733 22
559 2 -2.12437 -11.7075 0.812974 10
560 2 -4.67899 7.04268 -2.36742 20
561 2 0.0299517 5.44754 11.7329 19
562 2 9.70205 -1.28497 5.66994 17
563 2 -14.382 -4.36099 6.75387 12
564 2 -0.665219 -8.94492 6.4491 22
565 2 -3.65193 4.79783 -8.76431 11
566 2 -6.07896 6.66575 10.8369 19
567 2 -6.10423 -4.73076 5.48207 20
568 2 -4.2746 6.88288 4.79901 19
569 2 -8.92711 -7.32839 11.9904 13
570 2 -1.75519 -11.757 10.7835 9
571 2 -10.4883 -0.835311 4.1635 18
572 2 -8.60825 -9.43297 1.99777 18
573 2 -2.20457 -2.52909 10.7317 16
574 2 -2.20289 -7.77947 13.1059 17
575 2 -2.65696 9.04572 -3.57069 18
576 2 8.6037 10.2621 5.0081 13
577 2 9.61583 8.91327 -0.678189 14
578 2 -2.79381 12.4043 0.941943 12
579 2 -9.5453 -1.77977 -1.0321 19
580 2 -13.6287 -0.731809 2.10296 16
581 2 -6.66424 -9.26668 -1.57471 15
582 2 5.13832 0.87525 13.5043 19
583 2 5.67939 -4.63305 16.767 11
584 2 -7.23887 5.74215 -4.65296 20
585 2 2.86449 -0.125362 0.626482 16
586 2 4.8076 -0.123061 17.811 9
587 2 -0.912554 -0.61524 -4.86971 23
588 2 4.39975 8.38031 7.98973 21
589 2 0.718198 7.18545 16.7593 10
590 2 0.0592758 0.582998 15.8429 19
591 2 -13.1546 1.95703 8.20317 13
592 2 4.41722 6.71103 -2.01549 16
593 2 -7.90308 -8.41231 -4.12698 12
594 2 -6.7594 0.0177034 -1.10101 23
595 2 -11.7782 -1.88321 11.7803 16
596 2 6.06428 11.8576 -0.330102 8
597 2 5.15184 8.91224 0.225956 20
598 2 7.35352 -5.84367 3.98862 18
599 2 -13.9763 -7.0833 6.31257 8
600 2 -4.12856 7.34722 8.21165 23
601 2 -0.931919 4.61739 0.784382 18
602 2 -3.41901 11.7345 -2.58575 14
603 2 -5.3007 8.19858 2.51108 19
604 2 -9.3934 -2.53349 9.77426 19
605 2 6.55564 -8.1824 9.55144 18
606 2 1.92938 -6.15955 2.62608 21
607 2 -8.78523 12.5936 7.38465 13
608 2 -1.61013 -7.96815 8.99605 16
609 2 -11.5017 1.75442 1.93937 19
610 2 1.08454 -8.80389 3.95089 21
611 2 -5.46969 6.44596 17.5694 14
612 2 -5.00817 3.34058 -6.91922 19
613 2 -1.86555 6.59765 -1.8799 15
614 2 3.35223 4.41621 -3.69701 20
615 2 -3.01597 10.1556 2.90654 21
616 2 -6.83755 0.224296 14.9507 17
617 2 -0.696997 -2.28816 16.1278 21
618 2 -4.75628 -7.76256 8.69813 17
619 2 -12.3386 -5.84868 1.89868 15
620 2 -0.770607 -1.50404 18.5979 16
621 2 -7.16661 5.18781 -7.65225 13
622 2 9.70576 -0.504643 -1.14122 12
623 2 2.05697 -0.22893 13.4391 18
624 2 -9.18319 4.96423 -2.43527 16
625 2 6.62495 6.9047 6.1157 20
626 2 6.15018 6.06724 15.2129 10
627 2 -11.0894 -5.91163 8.15313 15
628 2 -4.97341 13.3552 2.57052 13
629 2 -5.74311 3.47618 17.224 14
630 2 0.548074 -11.195 9.36322 17
631 2 -2.88186 -11.1101 8.21238 16
632 2 7.69929 3.27816 14.064 14
633 2 2.35598 6.78356 -5.33007 14
634 2 1.28007 8.78468 7.18042 20
635 2 2.46433 -10.2729 7.08138 19
636 2 2.49772 -11.1375 2.08678 11
637 2 -7.25823 2.57871 -2.97274 17
638 2 1.24895 4.35383 18.3771 12
639 2 -4.59478 2.94521 14.99 20
640 2 1.91245 -6.48108 6.07111 21
641 2 -6.54927 -0.389369 -4.11679 21
642 2 5.71506 -8.58105 -1.18745 10
643 2 -6.47417 13.0237 6.88455 15
644 2 -1.69676 0.941049 -7.47104 17
645 2 -5.02227 0.67571 18.6964 11
646 2 -10.1197 5.52238 0.447039 16
647 2 8.57718 -7.85652 6.0191 13
648 2 6.52889 7.84837 3.463 20
649 2 11.2585 0.237287 5.04415 12
650 2 8.62962 1.78528 2.03244 14
651 2 -12.6311 -0.286882 -0.414766 14
652 2 -6.22907 4.31789 -0.582275 16
653 2 -12.6189 7.68884 0.600419 11
654 2 10.9642 9.57275 2.37676 11
655 2 -8.06656 13.9859 1.37374 10
656 2 -3.71837 -5.22044 4.00192 17
657 2 3.23203 1.46788 15.772 19
658 2 -1.28053 -11.5405 -1.62865 8
659 2 -4.45297 -8.42504 -3.76547 13
660 2 3.81096 8.36671 3.17845 18
661 2 5.32719 10.2658 10.6416 10
662 2 -9.54415 -5.13995 -5.45361 16
663 2 -11.2154 -8.74845 1.90697 14
664 2 6.58374 3.06306 5.42728 20
665 2 -8.11205 10.3355 6.04584 18
666 2 3.80652 -9.77242 10.3827 18
667 2 1.64288 -6.41617 16.5393 15
668 2 -1.60828 -5.97078 10.9551 19
669 2 -9.52717 -8.04315 -1.40622 19
670 2 -1.68896 3.28949 16.375 19
671 2 7.17504 7.07227 0.566241 16
672 2 -11.8061 8.16061 8.41689 11
673 2 -6.13772 -4.17375 16.9674 12
674 2 -0.79825 11.031 4.82877 17
675 2 -0.960973 -10.3452 2.57221 15
676 2 -1.65366 -5.55156 16.1711 18
677 2 7.94219 -0.0846972 14.3858 12
678 2 -10.878 2.50695 6.54584 17
679 2 -7.76369 7.16497 3.99094 20
680 2 -1.93221 5.93913 18.0539 13
681 2 -10.6802 -2.84621 -7.6353 12
682 2 9.79141 -5.43775 1.9203 12
683 2 9.99579 1.96923 -2.88644 12
684 2 -6.6619 7.15491 0.465065 20
685 2 -10.2752 -0.574067 14.1538 13
686 2 -12.2096 3.88829 -1.64674 14
687 2 7.70091 -5.41029 0.39758 15
688 2 -0.706446 7.03274 8.13015 18
689 2 -5.82898 5.55231 14.2604 21
690 2 -6.75624 -0.294047 11.8144 20
691 2 -7.83064 8.55065 -6.55113 13
692 2 -11.9429 -3.01211 0.203031 17
693 2 -9.86729 -0.193417 -7.17113 14
694 2 -4.16817 9.56308 -0.401938 19
695 2 -12.8585 -0.908124 -6.21323 11
696 2 4.02341 -8.58228 -4.02449 9
697 2 -2.6214 -7.13104 1.4066 18
698 2 -4.46659 -6.75052 15.6426 16
699 2 8.57861 -5.65296 10.7989 15
700 2 3.93043 -1.68505 -7.97438 14
701 2 1.15014 -7.32419 9.47296 22
702 2 9.69224 2.31459 6.98127 18
703 2 -9.18765 9.12036 11.6168 9
704 2 -10.2441 -8.79177 4.5447 14
705 2 9.00112 -0.781654 1.93915 18
706 2 2.94238 -4.58735 8.58803 22
707 2 -6.95139 11.3314 9.86898 12
708 2 4.97851 1.36726 -4.12708 19
709 2 5.23574 2.3214 8.17845 17
710 2 -14.5485 -1.76232 5.2807 8
711 2 -5.99696 12.2338 0.241539 16
712 2 0.76414 -2.60345 -8.93338 15
713 2 -6.70328 2.45522 9.32653 19
714 2 -8.44688 2.60144 14.9099 17
715 2 8.47868 -2.1147 12.131 14
716 2 1.49264 0.550903 -7.40929 18
717 2 -10.0339 -4.63247 -2.21266 22
718 2 6.87056 -1.04128 -3.44145 14
719 2 -5.82146 10.6514 3.46796 17
720 2 1.87068 1.45334 -4.40713 21
721 2 -11.3607 5.03023 7.79489 17
722 2 -10.0419 -9.80206e-04 7.76114 19
723 2 6.27539 -13.0114 6.80808 10
724 2 1.13856 -8.26737 -2.38853 14
725 2 -4.0688 -11.1866 -0.869914 10
726 2 9.20333 -3.52793 -1.80244 9
727 2 1.70433 8.47729 0.28626 21
728 2 4.85011 8.39342 13.3088 10
729 2 -1.73565 -9.19791 -3.08401 14
730 2 3.09205 3.09854 12.5395 13
731 2 -5.21442 8.71753 15.475 14
732 2 -9.05521 11.373 -0.236549 16
733 2 0.773419 -6.63829 -4.89638 15
734 2 -5.07373 -7.58455 11.5286 19
735 2 -9.02309 11.6621 3.83401 14
736 2 8.6317 11.1831 -2.87755 5
737 2 -10.0281 3.87695 -7.02144 10
738 2 5.91898 3.40993 1.4812 15
739 2 -7.43573 -2.40179 -6.80568 16
740 2 -0.380755 -5.03985 0.886305 18
741 2 -12.2983 -3.97038 -4.72015 12
742 2 8.31807 5.7279 12.5743 12
743 2 -8.95292 -2.23732 -4.77603 17
744 2 -13.1059 -9.17199 3.487 9
745 2 6.63648 2.1572 11.6774 17
746 2 2.42128 7.28916 12.4583 16
747 2 5.15621 7.85716 -5.29745 9
748 2 -5.66597 10.6517 -4.62928 12
749 2 2.70139 10.8796 -0.157997 15
750 2 8.77647 -5.43836 7.49712 14
751 2 -12.0492 1.83161 -4.73733 14
752 2 2.14919 8.88527 -2.83495 12
753 2 -3.25034 -0.26726 16.413 24
754 2 -1.74751 -5.13546 -1.68892 16
755 2 3.60442 4.39556 16.4057 14
756 2 -5.52705 9.22082 6.10188 21
757 2 9.69353 -7.69265 8.93776 11
758 2 3.08366 -5.30684 -3.33244 18
759 2 -4.37539 9.64309 11.0238 13
760 2 3.11086 -8.62089 13.6058 11
761 2 -4.33555 4.87075 2.09912 17
762 2 -3.22197 7.4804 12.614 19
763 2 -7.92269 1.58631 1.11503 18
764 2 2.09462 11.3075 2.72143 15
765 2 -7.92562 -12.0273 1.05486 8
766 2 -2.17935 -3.40917 -10.0101 11
767 2 -8.86106 3.81759 8.20643 19
768 2 4.51011 -2.252 4.71205 20
769 2 -8.9732 9.995 -3.97173 13
770 2 -9.39067 0.377164 10.7293 22
771 2 -6.24977 -6.37707 -5.47267 14
772 2 3.36668 7.51884 15.6721 11
773 2 -5.17753 -4.32538 -8.71525 10
774 2 -10.4732 7.8154 -3.77065 13
775 2 1.27271 5.66841 -1.13658 18
776 2 -6.01178 -0.194456 -7.59712 16
777 2 -7.39864 7.36093 7.32739 18
778 2 -9.48253 6.74954 9.6929 20
779 2 -0.378823 10.5845 -2.0795 14
780 2 -6.19767 -7.92139 3.40511 19
781 2 1.77835 3.82981 -6.40749 18
782 2 5.18632 -3.21846 -4.88646 16
783 2 -8.27999 -10.9066 6.71208 12
784 2 -11.1632 10.0538 1.23799 12
785 2 -6.5655 -9.98806 8.87775 19
786 2 -1.55043 4.19857 -6.24569 18
787 2 -2.3462 -4.42054 13.5695 20
788 2 9.37204 3.65258 10.6823 13
789 2 7.36047 0.46577 7.83862 18
790 2 -6.94989 -5.07791 11.9064 20
791 2 -0.263313 5.79119 -4.16789 17
792 2 0.564445 9.23758 15.0215 11
793 2 -11.3812 -2.58736 6.77144 16
794 2 -7.27117 -9.93078 11.7161 13
795 2 -12.1563 0.281292 10.4545 17
796 2 -11.1626 9.79748 -1.4525 12
797 2 -12.3671 -5.80954 -1.52554 12
798 2 2.16043 9.90984 9.87798 18
799 2 3.87565 -1.61511 15.5963 20
800 2 9.55517 7.41103 9.69379 13
801 2 -5.40931 -11.2941 6.36106 11
802 2 -16.2543 -1.70247 7.99606 7
803 2 -14.9237 -0.337199 10.2626 8
804 2 -6.24761 -2.89742 9.97075 18
805 2 -6.36852 -2.45084 14.6451 19
806 2 3.68659 -12.4542 9.1655 9
807 2 8.65367 5.02533 6.10885 18
808 2 2.70594 -6.563 -0.16066 17
809 2 -2.34361 8.7577 6.0283 21
810 2 -3.46583 -1.53148 -4.53053 18
811 2 -7.48093 -6.01764 8.66641 18
812 2 1.90507 -0.759447 17.8458 16
813 2 -4.16198 -1.6998 13.1584 21
814 2 0.294425 -6.4994 13.5743 18
815 2 5.00736 4.97662 -6.71012 13
816 2 6.90258 8.06245 10.8703 15
817 2 2.62357 -4.40525 -6.85021 15
818 2 4.6687 -3.0709 10.7259 21
819 2 10.5656 6.30194 0.660694 15
820 2 5.94082 -6.16513 -2.6769 12
821 2 -0.905919 10.6207 7.95274 16
822 2 9.59174 0.270387 9.16766 12
823 2 -7.4344 -6.37914 14.7299 12
824 2 -2.66661 -3.57723 19.0117 13
825 2 -4.12686 -5.14837 10.038 20
826 2 3.76439 -12.2864 5.33881 11
827 2 8.97908 -8.66954 11.6632 10
828 2 8.04859 -2.91085 9.51178 18
829 2 -4.77428 -9.05293 13.7911 12
830 2 5.55682 -8.62945 6.04851 16
831 2 -10.8085 6.2243 12.4389 13
832 2 -6.97325 1.91497 6.61772 23
833 2 4.42774 1.99086 -6.5069 17
834 2 -0.412515 -5.42205 -7.85168 12
835 2 -0.065667 -8.53047 0.39768 17
836 2 -3.56081 1.48385 -9.47197 16
837 2 -9.10853 0.356012 -4.13609 17
838 2 5.51261 10.1452 5.25597 17
839 2 -11.4823 -3.54874 3.39777 15
840 2 9.82126 2.79102 -0.344873 13
841 2 -14.0564 2.03655 1.07917 15
842 2 1.66801 -4.37555 11.2928 18
843 2 1.1862 4.89472 6.22194 19
844 2 8.78116 5.25471 -1.4662 16
845 2 8.87529 4.84525 2.669 19
846 2 3.55464 -3.98728 14.0168 21
847 2 -8.79473 -6.41365 3.60712 21
848 2 3.05057 -3.67876 17.256 13
849 2 7.41815 -3.11696 15.364 11
850 2 5.88339 -5.48345 8.27794 21
851 2 9.84482 7.43285 6.64697 17
852 2 -10.9031 3.55419 10.4657 17
853 2 -12.8541 3.95859 4.62118 14
854 2 10.2111 -2.74375 0.56516 14
855 2 6.45862 -4.98818 12.8663 18
856 2 -3.65804 -7.15029 -1.30873 17
857 2 -2.52967 3.65956 12.8512 19
858 2 5.1751 -5.55896 5.40404 21
859 2 -3.40057 5.61729 10.7347 16
860 2 -6.58807 -11.0984 4.09387 13
861 2 4.07441 -6.69153 11.3999 21
862 2 -8.00748 7.11455 13.1849 16
863 2 -1.13399 -0.536815 -10.2257 15
864 2 -13.0759 4.9406 2.49979 15
865 2 -10.5839 -4.76314 11.5486 13
866 2 -2.84862 -0.628972 20.1921 12
867 2 -7.4883 1.73567 -6.56234 17
868 2 2.62508 -0.908619 10.1144 16
869 2 4.58776 5.24457 7.25007 17
870 2 -6.99896 -3.25832 -3.35025 24
871 2 12.101 6.03067 6.37042 10
872 2 -9.01302 -7.4345 6.6731 14
873 2 -3.58502 12.0413 5.47728 18
874 2 -0.111941 8.95214 12.0784 14
875 2 5.64376 -9.92059 1.42018 12