ITEM: TIMESTEP
22000
ITEM: NUMBER OF ATOMS
1500
ITEM: BOX BOUNDS pp pp pp
-30.0 30.0
-30.0 30.0
-30.0 30.0
ITEM: ATOMS id type x y z Coordination
1 1 -9.68003 -12.1641 -10.6868 13
2 1 1.94241 -13.4359 0.998634 17
3 1 -19.7282 6.66105 -8.19847 10
4 1 -12.933 -5.92206 -8.64428 16
5 1 -0.803803 -10.6302 3.49511 23
6 1 -16.593 4.97011 -14.224 11
7 1 -9.71778 -2.55104 -10.2191 20
8 1 -8.64019 -13.9522 1.44296 11
9 1 -13.9804 -2.61391 6.12755 23
10 1 -2.76203 1.74809 14.1381 12
11 1 1.42526 -1.45981 3.9602 21
12 1 -6.30867 4.30214 9.06442 19
13 1 0.301422 -1.16805 0.538235 22
14 1 -4.98075 7.30957 -10.6752 16
15 1 -3.62707 -0.450857 9.97018 15
16 1 1.46434 8.18971 5.63032 18
17 1 -4.8887 10.3679 -12.438 12
18 1 -0.370014 3.73976 -18.5184 9
19 1 -12.1754 1.50243 3.83458 17
20 1 -8.73042 -2.43617 -13.4298 19
21 1 1.39235 -9.63487 6.23953 15
22 1 -2.97928 -1.66746 7.07847 18
23 1 2.39938 -16.5157 -2.51025 10
24 1 -10.127 -13.7302 -4.61545 15
25 1 -0.6024 -4.12079 -6.47819 22
26 1 -4.10648 -9.63438 -16.6536 8
27 1 -5.09284 7.12555 7.59037 18
28 1 -5.79349 -14.3707 3.2071 13
29 1 0.576712 -3.69116 6.04291 23
30 1 -17.1543 -0.510807 0.949883 18
31 1 -11.7515 -1.23542 -12.1114 22
32 1 -10.6603 11.2345 -4.79513 17
33 1 -3.59148 3.44289 -10.5754 19
34 1 -3.53364 -5.93612 -12.0973 19
35 1 -2.47114 -1.46593 12.7513 14
36 1 -19.423 4.73708 1.02708 13
37 1 -3.88833 13.5557 6.27449 11
38 1 -17.3825 4.86239 -5.04392 18
39 1 -11.0367 13.2971 -6.7637 11
40 1 -1.0442 -7.331 -1.58499 22
41 1 2.90995 -5.5602 -6.12092 19
42 1 -11.2525 4.71124 7.83456 19
43 1 -18.4647 -3.06909 -12.2141 11
44 1 2.21172 0.918699 2.43806 20
45 1 -15.916 11.0046 -8.65051 10
46 1 -9.44868 -9.41886 9.95277 11
47 1 -19.2647 2.83593 -5.93173 14
48 1 -2.10448 6.08916 -8.99105 19
49 1 0.470717 4.41049 1.56266 19
50 1 -0.0637837 2.91981 5.36696 20
51 1 1.87144 -11.9611 -1.54908 19
52 1 -0.765972 7.16562 10.6578 16
53 1 6.83565 -5.30343 -14.034 11
54 1 4.73137 -11.8555 -0.483979 22
55 1 -11.059 -5.82245 -0.704475 20
56 1 -0.6678 -1.67816 9.67579 15
57 1 -9.64692 -9.93517 6.26255 16
58 1 -14.0718 -5.24757 -2.88727 19
59 1 6.88599 2.20886 2.90405 19
60 1 6.11914 -1.27111 -10.1155 23
61 1 -7.06754 9.47088 8.00162 17
62 1 -0.977741 -0.66173 5.67066 20
63 1 -11.8326 -6.50673 -4.36443 18
64 1 -5.56434 -13.0554 -6.55182 18
65 1 -14.7288 9.98206 -4.46791 14
66 1 -6.21644 4.30462 -12.2834 19
67 1 -0.93727 -1.44404 -8.76687 20
68 1 8.43304 0.0208621 -8.53685 20
69 1 7.08897 -9.76356 -0.597846 18
70 1 -1.54393 -7.03773 9.94987 17
71 1 -8.14996 11.3781 -12.8463 10
72 1 -9.27058 6.64107 3.10908 19
73 1 -8.81987 10.8904 -1.13807 16
74 1 -7.94816 -3.16872 9.49784 20
75 1 10.6444 -7.74046 -8.67042 12
76 1 -17.8399 7.44588 2.05277 11
77 1 4.06312 -6.87476 -14.1523 14
78 1 -3.38698 -0.453662 -14.9386 20
79 1 -8.35935 -2.32996 -18.2116 15
80 1 -5.66432 10.3806 0.507916 18
81 1 -16.7845 5.77486 -11.0198 13
82 1 -1.39214 11.2267 -12.6921 11
83 1 -5.60692 8.09608 -0.674072 17
84 1 -6.02836 -5.69129 9.71916 22
85 1 -6.35461 -4.20944 -10.4792 20
86 1 -0.387955 -4.3968 -13.0684 18
87 1 -2.06611 5.11268 6.80598 19
88 1 -12.5288 -12.0145 -5.9913 12
89 1 6.62065 -6.41785 0.337239 21
90 1 -14.404 -12.3911 -3.54728 9
91 1 6.58224 -13.2377 -2.76929 16
92 1 -11.0862 5.03544 -1.82221 21
93 1 0.622499 3.15605 -15.1371 17
94 1 -0.514451 3.72756 -8.95664 22
95 1 6.85132 -12.208 -5.12367 14
96 1 4.71291 -14.8959 -0.40904 13
97 1 -12.2896 -8.37906 1.08758 18
98 1 -14.8844 -8.33155 0.264536 13
99 1 3.64228 5.01174 9.10799 15
100 1 2.02677 4.14377 -3.84418 18
101 1 -7.36683 8.73936 11.7849 13
102 1 -10.9786 7.26794 -8.18954 18
103 1 -11.3275 -4.32538 -13.9019 21
104 1 4.86389 -1.52361 7.34799 13
105 1 -13.8214 8.9896 -7.57836 21
106 1 3.65586 -0.38252 -8.5387 21
107 1 -16.1075 7.4853 -9.14578 18
108 1 -9.5357 14.0851 -3.60203 16
109 1 7.03297 1.09565 -12.9816 13
110 1 3.86502 -5.74763 -0.570227 19
111 1 -10.8532 1.63455 -11.4784 20
112 1 1.07066 10.6206 -7.74492 19
113 1 4.54188 5.82197 0.283502 19
114 1 -5.14917 10.5661 -2.56699 17
115 1 -10.9739 -5.01708 -17.6069 11
116 1 -6.04117 13.429 2.98095 15
117 1 -14.1636 -1.65402 -9.72359 20
118 1 9.8332 -2.55056 -2.54712 18
119 1 -8.1694 10.2527 2.90279 18
120 1 -8.19269 11.7679 -6.44583 18
121 1 -3.88578 -7.94401 8.10988 19
122 1 -13.94 -5.21775 0.838459 22
123 1 -5.71839 -14.1637 -0.0852471 17
124 1 2.56375 -16.501 -6.11979 12
125 1 -13.5705 6.42261 -9.49127 18
126 1 -3.29814 5.93094 -5.03138 20
127 1 5.64798 10.311 -2.14794 17
128 1 -4.08033 -8.48443 5.16778 16
129 1 -11.5227 1.89356 -3.23126 22
130 1 -0.317572 9.88609 -2.18265 22
131 1 -2.65197 7.78808 8.29545 17
132 1 -11.44 10.5814 3.83895 13
133 1 -8.37751 0.33506 -11.9972 19
134 1 8.71654 -7.01999 -1.9318 16
135 1 -7.92303 -2.20893 6.25807 27
136 1 -18.7999 6.10431 4.28065 11
137 1 -13.8013 -10.2999 2.95786 11
138 1 -19.0803 -2.11705 -4.70878 13
139 1 -3.66047 -14.3825 -3.40079 18
140 1 -14.2065 -3.63377 -5.70184 20
141 1 3.89289 -10.6843 -6.65266 18
142 1 -4.81436 14.5087 0.474067 16
143 1 -11.3849 -1.27153 7.87141 14
144 1 -16.4163 2.21131 -10.261 20
145 1 -16.6699 4.57229 -8.28126 19
146 1 -20.4596 0.691025 -3.37925 12
147 1 -13.8408 -2.02339 11.7804 10
148 1 -6.53331 -8.33238 2.21674 21
149 1 -3.19574 -16.0792 4.45992 8
150 1 9.61106 -4.8337 -0.225112 18
151 1 -0.943987 3.92061 -5.58735 23
152 1 1.42654 4.83411 6.86272 20
153 1 -6.54662 8.07344 -13.802 16
154 1 2.46632 4.61544 -13.0993 18
155 1 -10.9403 -6.78526 -12.2859 15
156 1 -11.2267 10.805 -12.8352 10
157 1 -10.8771 10.883 -8.37017 20
158 1 2.20971 1.53285 5.91905 18
159 1 -7.97744 -5.11836 -17.6845 14
160 1 -9.73345 8.8214 -14.059 11
161 1 0.00168867 7.44025 -12.5674 17
162 1 -7.71402 3.44218 7.32225 19
163 1 -7.06709 5.4446 12.3835 17
164 1 -1.05643 -9.44596 -13.8773 10
165 1 -11.4299 -13.3909 -1.82983 11
166 1 3.23215 -13.7572 -3.40845 21
167 1 1.65875 -4.89565 -2.12824 18
168 1 3.52103 8.28342 -7.16797 21
169 1 -8.55511 9.55807 -4.08446 21
170 1 -14.2243 0.196491 0.217862 23
171 1 -4.94017 11.339 11.7992 11
172 1 7.42252 -2.28568 -4.57506 18
173 1 -3.70736 9.95381 6.29336 17
174 1 -10.9109 4.31046 4.76105 17
175 1 -16.989 -4.24456 -3.9515 18
176 1 2.25811 2.63402 -10.2558 22
177 1 -5.78484 -2.4927 7.8974 23
178 1 7.55501 5.49126 -10.2549 12
179 1 -2.39931 -13.5365 -8.90192 14
180 1 -6.6656 1.0782 -14.085 18
181 1 1.19562 -0.509123 -10.009 18
182 1 -18.5387 -3.5895 4.53035 14
183 1 -0.0843611 -16.9542 -4.09356 15
184 1 -16.3733 -7.117 -11.1345 14
185 1 -2.35002 11.787 -7.30402 17
186 1 -2.00972 -4.91755 -17.2488 16
187 1 -4.96506 2.85449 11.9546 21
188 1 8.7012 1.60064 0.304077 17
189 1 -8.99518 -10.2049 2.93696 18
190 1 4.84901 -7.04349 -10.3695 16
191 1 -11.1734 -11.6421 3.91883 14
192 1 -5.18053 -3.78761 -17.2025 20
193 1 -16.1838 0.54835 -8.24951 18
194 1 9.15578 -0.223838 2.77817 14
195 1 -2.75077 -3.29753 4.77812 21
196 1 -11.1827 -7.42344 -15.1878 12
197 1 -0.964316 -6.13779 2.22501 20
198 1 -3.53144 5.86014 -13.2368 18
199 1 0.00297583 6.75581 -3.75217 21
200 1 -11.1974 -8.14109 3.83363 19
201 1 -2.82888 14.7303 -3.02716 17
202 1 -9.40659 -4.28126 12.5261 16
203 1 -9.90943 -10.3343 -7.55701 20
204 1 -13.9708 -7.04286 -13.9158 11
205 1 -13.1642 -11.0812 -10.794 7
206 1 -2.67339 -13.3102 -5.86535 18
207 1 4.28411 0.00616909 4.48024 21
208 1 -9.53204 -8.50344 -4.32239 17
209 1 -9.03226 -6.05855 10.3109 16
210 1 -0.494745 -13.5679 -3.99954 20
211 1 -3.45676 -7.05819 0.716037 21
212 1 -1.49217 12.7535 -0.638611 18
213 1 5.15701 3.49311 -11.6728 16
214 1 -10.5377 -2.6775 -16.3244 12
215 1 -1.2272 -11.2061 -2.02209 20
216 1 -5.51094 -9.60559 -9.39448 20
217 1 -13.5402 1.50926 -9.55317 20
218 1 4.56422 3.61548 5.52435 20
219 1 -10.2521 3.58947 -16.3014 10
220 1 -10.8423 7.66421 -11.3383 16
221 1 -7.98528 0.882562 5.12444 20
222 1 -8.00606 11.7746 -9.80952 9
223 1 -1.60069 9.39217 3.72092 16
224 1 8.70434 -7.63749 1.86048 12
225 1 -14.4247 0.779362 6.01246 20
226 1 -5.40836 -13.7829 6.41643 11
227 1 -12.0086 8.2366 2.3807 18
228 1 -1.84486 -7.90377 -15.973 14
229 1 1.39718 -8.09241 -2.2381 18
230 1 -8.65257 -0.647516 16.5838 5
231 1 -16.6185 -6.74194 2.70409 11
232 1 8.18127 -2.78691 -8.1002 23
233 1 3.05981 -1.64371 -12.6363 19
234 1 6.44476 -11.1824 -8.1489 11
235 1 -6.66709 -5.59773 1.92008 21
236 1 -13.3475 12.4754 -9.99388 8
237 1 -3.21492 3.97459 3.07797 19
238 1 -3.38659 5.4064 10.8402 21
239 1 -14.0118 -1.16868 3.2412 22
240 1 0.121905 -10.1059 -8.0328 18
241 1 -10.941 10.94 0.523998 17
242 1 -12.9748 6.40255 0.239485 22
243 1 3.81379 -7.66643 2.32083 20
244 1 4.78047 -7.85496 -4.63598 17
245 1 -13.031 7.02963 5.36085 17
246 1 -8.65583 -4.8671 -5.40419 21
247 1 -7.63775 -1.95561 13.109 19
248 1 -10.622 14.2451 -0.572044 9
249 1 -11.6344 3.94531 -8.50796 20
250 1 -16.5797 1.58589 7.4308 16
251 1 -13.1534 2.40324 1.81955 19
252 1 -8.64693 -5.18637 -8.61456 17
253 1 -12.4401 12.6625 -3.19848 13
254 1 7.91106 -4.42211 3.26532 17
255 1 -15.4417 -10.2641 -5.69439 13
256 1 4.64323 -12.8508 2.50084 14
257 1 -16.5541 1.24423 -5.48574 18
258 1 -4.10354 -4.06526 14.0043 13
259 1 -1.00522 -11.2332 -11.0116 13
260 1 -14.4385 -2.73847 -12.8435 18
261 1 3.56245 -3.713 -14.746 15
262 1 -4.51881 9.61191 2.8681 17
263 1 -14.5916 -2.20238 -1.7587 16
264 1 -3.89074 -9.19403 -13.0226 17
265 1 -7.41188 -15.1972 -5.13645 13
266 1 -17.4287 -7.35265 -4.74303 13
267 1 -4.03473 -9.80757 -0.535718 20
268 1 6.11079 -0.24241 -6.67318 20
269 1 -16.0735 1.73054 -14.9665 13
270 1 -19.3825 -0.315895 3.56542 13
271 1 -14.0963 9.77406 5.67595 12
272 1 -13.7841 9.87863 -1.23889 14
273 1 -9.65793 10.1025 9.98848 13
274 1 10.9034 -2.56003 -6.37393 13
275 1 9.39339 -6.30977 -11.3826 14
276 1 -8.84421 6.60886 -5.51063 22
277 1 -2.89235 -7.53188 -6.61076 20
278 1 -7.17874 7.36721 1.97851 17
279 1 -14.1386 -0.130946 -6.55256 22
280 1 1.67831 -8.45605 -5.68061 19
281 1 9.97739 -3.01946 4.90063 9
282 1 -11.2612 -1.28264 -8.55656 21
283 1 -10.3981 -8.56517 -1.74197 19
284 1 -7.02641 12.5425 -3.29698 17
285 1 -7.62587 -11.1422 -5.16305 20
286 1 -14.6593 6.04708 -6.17943 20
287 1 -1.72292 14.1767 -6.44052 12
288 1 -2.64731 14.9459 3.65916 13
289 1 -19.8069 -2.66004 -8.401 11
290 1 -10.7698 -7.47521 -9.46519 13
291 1 -19.2757 4.17348 6.6044 8
292 1 -19.4863 6.75964 -5.14871 9
293 1 2.06343 -12.0944 4.28196 16
294 1 -7.63824 -14.1653 -1.97854 14
295 1 1.33855 10.1889 -11.2661 15
296 1 -8.79591 5.90451 -12.0275 19
297 1 -4.16187 -12.2999 1.43031 17
298 1 7.60072 5.75794 4.38362 13
299 1 -10.1242 -0.822445 11.098 18
300 1 -20.3148 -0.779562 -0.0759859 14
301 1 -11.0498 7.3496 10.0286 13
302 1 -6.86089 -8.5545 7.6141 20
303 1 -3.16451 -5.20167 -8.91033 23
304 1 1.99385 -8.46375 -13.1804 12
305 1 -4.81241 -0.563757 4.8697 24
306 1 -16.1236 5.08534 1.04148 18
307 1 -8.00763 -7.29744 4.92466 17
308 1 3.3384 -7.69649 -8.06597 17
309 1 -5.9192 -7.32692 -11.4737 19
310 1 -11.4382 -4.44357 5.22499 19
311 1 -0.833682 -7.34493 -4.65593 18
312 1 -8.83849 3.07457 -13.9465 21
313 1 -0.403472 -13.936 3.36207 13
314 1 -5.14577 10.4624 -5.80481 20
315 1 -6.65714 -5.61964 12.7941 16
316 1 -11.1606 -7.1552 8.32568 16
317 1 6.45962 -2.6917 5.06019 16
318 1 2.77784 3.46912 -0.309555 18
319 1 -10.8599 4.73737 1.39253 21
320 1 1.93911 -0.295306 -14.9623 16
321 1 4.03155 -7.21901 5.57885 14
322 1 6.30457 9.22118 -5.35281 14
323 1 -6.54324 -0.65709 10.8425 19
324 1 -0.0741945 13.962 -2.40817 15
325 1 1.14711 -6.99681 0.516223 23
326 1 -7.65998 -12.0938 -8.73248 17
327 1 -8.29015 12.8459 1.04476 16
328 1 -12.9531 -9.30767 -7.81347 17
329 1 -0.830053 3.73488 9.19443 20
330 1 -14.7319 6.97881 8.30445 13
331 1 -5.73494 -12.1755 -2.3062 18
332 1 -15.4455 -3.84048 9.3241 14
333 1 -18.5181 -4.99198 -10.1683 15
334 1 -6.46679 11.843 5.59606 14
335 1 -9.0524 -9.40358 -12.9052 14
336 1 -5.09524 -6.41611 -16.3446 18
337 1 -12.3531 -13.0103 1.10305 10
338 1 -11.202 -0.621497 1.5847 21
339 1 4.12211 -1.92202 2.56941 20
340 1 -6.70354 -8.5091 10.6505 14
341 1 -17.964 2.66688 -12.2646 17
342 1 9.88896 3.13466 -5.20028 12
343 1 -12.6922 -10.6045 -1.5009 18
344 1 -5.77685 4.61152 -8.88985 19
345 1 -2.32126 11.7508 -4.16816 21
346 1 -8.19454 6.5769 -8.82341 17
347 1 -8.27738 5.89613 9.45077 21
348 1 -16.6111 -2.3734 -6.85856 20
349 1 4.89415 10.3704 -11.5695 9
350 1 -12.9842 -9.34955 -4.15203 19
351 1 -6.53503 -10.6879 -12.3768 14
352 1 -3.29663 -3.36788 -15.0114 19
353 1 -17.0467 7.97459 -3.37898 12
354 1 -4.83825 -0.291169 13.8281 15
355 1 5.63284 7.15548 -3.39562 17
356 1 -3.13457 6.41506 -1.8883 21
357 1 -19.6098 3.53134 -9.86332 12
358 1 -0.964901 1.44116 -10.5222 24
359 1 5.92128 -9.66732 1.70675 17
360 1 -20.2217 -2.71712 1.62024 12
361 1 -11.9788 4.62495 -11.4999 19
362 1 5.97544 8.6648 -9.76627 13
363 1 4.40705 -8.76977 -1.16615 19
364 1 9.89164 4.09796 -1.96885 13
365 1 -2.83266 -0.0477836 -12.0426 21
366 1 1.24701 -8.54867 3.56667 22
367 1 -2.48641 -16.5952 -1.64357 12
368 1 -2.50293 -5.71473 6.77384 19
369 1 -13.9967 0.741483 -12.1036 20
370 1 -3.18605 -12.2371 -12.6898 9
371 1 -2.56524 3.00387 -13.6592 19
372 1 -3.58604 -4.41187 9.10151 19
373 1 -14.8594 -4.09007 3.33491 22
374 1 7.70658 -5.93573 -8.81639 24
375 1 6.67422 -1.09808 -0.938386 18
376 1 -7.58036 9.16892 -7.70742 17
377 1 -2.64682 -8.12342 -9.91504 20
378 1 -0.504869 3.83249 -11.9768 22
379 1 5.35587 -4.27713 -8.37749 17
380 1 -11.0834 1.98761 7.30346 18
381 1 2.03658 14.678 -0.27981 13
382 1 -7.35442 -3.81309 -20.8009 9
383 1 -14.3965 -1.08889 8.6946 14
384 1 -6.15734 15.3686 -2.43 17
385 1 -11.5366 1.90436 -14.4469 15
386 1 -18.6565 2.51101 3.7892 13
387 1 -12.2173 -4.57536 10.6198 13
388 1 1.2675 5.89361 -10.3097 19
389 1 10.4202 0.655582 -2.42131 13
390 1 -10.2351 -10.919 0.492778 19
391 1 -3.77517 -8.30586 -2.80242 22
392 1 -11.5429 11.2969 7.65776 10
393 1 -0.36689 -6.81077 -11.8396 16
394 1 -5.82846 7.42003 -3.59554 21
395 1 4.33456 -2.55088 -5.96536 21
396 1 3.4094 12.1067 -9.8558 9
397 1 1.82154 -9.94177 0.813716 24
398 1 -14.0205 5.07981 3.32762 20
399 1 -1.84094 11.9823 8.20802 13
400 1 -6.00364 1.38107 -17.2009 12
401 1 -14.5929 -7.12878 -5.97633 17
402 1 -8.42757 0.406984 8.43803 21
403 1 -0.17299 9.50451 7.74093 16
404 1 0.719619 9.11538 -14.7632 9
405 1 -14.8341 4.3592 -11.4486 20
406 1 -4.50939 16.2953 -5.16161 8
407 1 11.4489 -3.12357 2.45752 11
408 1 9.47066 -0.454819 -11.1874 15
409 1 -16.2974 -3.30791 -0.831836 21
410 1 -2.99499 2.09757 5.03928 20
411 1 1.0967 5.81824 -16.1832 10
412 1 -3.16581 -11.0211 -7.57577 22
413 1 -0.043453 -1.68416 -12.2501 22
414 1 -7.28361 14.4139 -5.24369 12
415 1 -13.6461 -4.41162 -15.3976 15
416 1 -2.67755 -14.6433 1.45048 14
417 1 -19.2199 -3.91033 -1.43756 15
418 1 -11.5891 2.00915 -6.71957 22
419 1 -11.5638 -5.2467 2.30863 15
420 1 0.0488408 8.44911 -9.0235 20
421 1 -8.48916 -8.99734 -9.82236 16
422 1 -0.823474 -9.31503 8.22428 13
423 1 1.94272 2.70477 -7.09682 23
424 1 -16.8931 2.47104 -3.01585 21
425 1 7.46247 -8.50327 -9.80073 16
426 1 -2.41696 9.92089 11.5801 14
427 1 -6.24165 -1.55466 -15.5684 19
428 1 -3.76522 12.1899 1.83466 14
429 1 6.05968 2.23028 -9.06347 22
430 1 -6.18312 -6.31306 -19.6767 9
431 1 -8.45678 -14.8819 -8.24582 12
432 1 -16.2884 -5.05205 -13.349 15
433 1 5.64268 4.45538 -2.77636 20
434 1 6.47697 7.38606 1.64105 11
435 1 9.03856 -9.76854 -6.7713 13
436 1 -0.975426 -10.1992 -5.59412 19
437 1 3.46293 8.97014 2.15609 17
438 1 -11.2937 2.4301 -0.280588 20
439 1 7.78844 1.69583 -2.74115 15
440 1 8.61964 4.24402 1.3673 14
441 1 11.7218 -1.58577 -9.07574 12
442 1 2.59123 -0.0827432 10.0506 12
443 1 -5.54943 -5.18412 6.032 23
444 1 -0.439288 4.11439 -1.93991 21
445 1 -1.35046 -4.33034 11.9078 14
446 1 9.50637 -0.00386191 -5.35054 16
447 1 -3.87692 2.55238 8.53805 17
448 1 -12.4828 -4.07545 -10.9477 18
449 1 4.24793 3.56648 2.04492 18
450 1 5.60509 -3.44319 0.463149 20
451 1 -5.90606 -6.8336 -1.2696 19
452 1 7.19318 0.194968 5.22186 16
453 1 -0.677423 13.671 5.75675 12
454 1 2.00374 4.84526 3.53679 18
455 1 -13.6981 6.82645 -2.9051 20
456 1 3.92901 5.10638 -8.42039 19
457 1 11.1425 -3.0961 -12.2787 10
458 1 0.623951 12.4317 -4.83652 19
459 1 -11.1298 -13.3753 -8.21678 14
460 1 -16.2898 7.50264 5.85163 12
461 1 -11.5853 5.27805 -14.2828 14
462 1 -5.45699 -16.2655 -2.57426 9
463 1 -8.82843 0.160033 -16.039 16
464 1 -19.6396 0.119099 -11.1553 15
465 1 8.91746 -11.2055 -2.12909 9
466 1 4.72202 6.81788 3.89347 17
467 1 -6.64221 -11.3402 9.24588 13
468 1 -19.8759 1.02609 -8.60975 11
469 1 1.80962 -5.88559 3.61682 20
470 1 -4.4236 5.45029 13.5602 14
471 1 3.75957 5.13943 -5.49614 19
472 1 4.50803 0.604732 -11.5847 21
473 1 0.557497 -14.5285 -9.11493 8
474 1 10.8128 -5.01192 -3.60704 11
475 1 2.71334 8.84784 -0.749159 18
476 1 10.0058 -5.16121 -6.89973 17
477 1 -7.46714 5.89282 5.7131 18
478 1 -17.2364 -6.29939 -1.02553 17
479 1 -16.8413 -0.619814 -12.8418 18
480 1 2.14808 -1.70988 7.6305 21
481 1 -7.96963 -11.9179 6.02306 13
482 1 1.62399 2.71035 10.9768 13
483 1 -13.3082 12.0464 -6.63937 14
484 1 6.08478 2.47486 -0.621909 19
485 1 2.55281 6.27711 -2.607 19
486 1 -0.970089 1.0656 -16.6514 16
487 1 -10.7043 -3.6903 7.8584 18
488 1 5.21306 -0.219962 -14.8416 12
489 1 -5.09369 -9.50617 -6.19022 23
490 1 4.77092 -9.6881 -11.487 11
491 1 6.37094 4.9569 7.25877 10
492 1 -0.879854 1.86651 2.66627 20
493 1 1.76621 5.44053 11.1535 12
494 1 -5.25895 -2.87036 11.5822 19
495 1 -9.29942 2.69937 9.83502 20
496 1 -2.01329 -7.1892 -18.9158 8
497 1 -12.2109 3.12311 10.5706 14
498 1 -6.51471 2.97272 14.3259 11
499 1 5.13424 10.5161 1.06594 13
500 1 1.28442 -10.7763 -4.038 17
501 1 -11.8762 8.39308 -5.43691 19
502 1 3.35195 9.32422 -3.83406 19
503 1 0.481272 14.2671 2.98831 12
504 1 -10.6657 -1.62274 4.40836 20
505 1 -4.86659 13.0154 -5.10556 21
506 1 2.74318 12.2187 1.79 17
507 1 -8.38626 -8.10396 -6.98137 19
508 1 -2.85468 -1.70548 -17.3719 18
509 1 -17.5822 8.69759 -6.497 15
510 1 2.46155 -4.99937 -11.9852 15
511 1 -0.0148642 7.0799 -0.528987 22
512 1 6.73743 3.64392 -6.57085 15
513 1 5.27434 12.9639 -0.886262 12
514 1 -7.81107 3.98654 3.49597 20
515 1 -14.0882 3.39103 -4.08449 21
516 1 1.14661 6.22998 -7.34843 21
517 1 -4.70686 -11.3833 7.70964 17
518 1 -13.2805 9.65776 -10.9249 13
519 1 -4.27602 12.8281 9.63316 9
520 1 -1.04849 4.22368 12.5398 14
521 1 3.49363 11.7273 -6.04811 16
522 1 1.41452 7.84254 8.59744 14
523 1 7.80635 -4.28532 -2.29714 18
524 1 -16.8315 -2.26631 6.90168 15
525 1 -0.903167 -15.6562 -6.91961 14
526 1 -5.61357 -1.58471 -12.0411 21
527 1 -0.885185 5.32338 3.91259 19
528 1 2.10242 -0.127317 -6.00683 20
529 1 -2.68617 9.37332 -0.06583 21
530 1 -16.5988 -0.748015 4.12073 18
531 1 -0.0211606 -14.7906 -1.21339 15
532 1 5.24086 6.8036 -12.2407 11
533 1 0.789539 -6.70556 7.3464 18
534 1 -9.79208 7.92959 0.252915 20
535 1 0.0664553 -2.36008 -15.4123 17
536 1 -1.49585 -12.0881 6.50659 12
537 1 -4.48216 17.0078 -1.09744 7
538 1 -8.63235 1.37438 12.2435 14
539 1 -16.3033 -1.97327 -15.1362 13
540 1 -0.505332 -4.29751 -10.223 20
541 1 -7.46005 13.0822 10.5153 7
542 1 -0.00173039 -6.8069 -7.82578 18
543 1 -1.20887 -8.12653 5.04142 20
544 1 1.10042 -13.3497 -6.4124 21
545 1 -16.0249 -5.08223 5.84869 16
546 1 -5.88615 1.28237 -10.6393 21
547 1 -10.676 -16.0556 -6.51051 7
548 1 -14.4352 3.76528 8.9311 15
549 1 9.10858 3.59947 -8.25801 13
550 1 -5.18182 4.10107 5.11464 22
551 1 -16.6074 5.41171 -1.8905 17
552 1 3.50738 -0.0105066 -1.24488e-04 17
553 1 -5.29158 10.0892 -9.1866 15
554 1 8.01988 -2.03469 -13.7876 13
555 1 3.37702 2.17664 -13.7679 18
556 1 -17.5755 -4.73444 -6.97751 17
557 1 -17.537 -1.38799 -9.5327 21
558 1 -3.01011 8.84925 -14.4128 14
559 1 -7.14933 -3.65266 15.4059 9
560 1 -6.1007 -3.43979 3.55218 20
561 1 -6.12575 -4.27489 -13.1667 21
562 1 -10.9716 8.43712 -2.25959 17
563 1 0.766023 11.3789 4.34701 17
564 1 -12.588 -2.9097 0.478219 21
565 1 9.26886 2.83727 -10.8699 14
566 1 -3.14707 -17.5713 -4.76085 9
567 1 -2.54499 8.99738 -10.6807 19
568 1 -3.95667 -3.97191 -19.8143 14
569 1 -5.85518 0.830575 7.26969 22
570 1 -1.05997 7.17 -17.0226 10
571 1 -17.798 -3.875 1.30942 16
572 1 1.39383 -3.47194 -4.55408 21
573 1 -7.0308 -9.33245 -3.49938 24
574 1 6.17111 6.99183 -7.2995 17
575 1 7.0919 -9.64921 -3.6852 20
576 1 -13.413 5.94205 11.3463 10
577 1 7.23629 -12.8559 0.613841 12
578 1 8.72802 -7.47756 -5.22566 15
579 1 4.79314 -5.01342 2.82332 21
580 1 -3.5803 6.91156 4.75988 17
581 1 -16.3244 4.74468 6.27145 16
582 1 -3.29656 -12.3926 4.50906 20
583 1 5.09891 -0.472576 -3.16877 17
584 1 -0.169066 0.677651 8.30169 20
585 1 -17.526 -0.375167 -2.20934 21
586 1 4.76056 -4.5504 -3.27528 18
587 1 -2.31216 6.69111 1.17895 19
588 1 -1.64497 1.20442 10.8538 20
589 1 -9.17507 11.8279 7.64021 13
590 1 -1.39484 -9.16231 1.11552 21
591 1 -10.8999 -3.76927 -3.13264 14
592 1 -5.49002 7.71482 10.4593 20
593 1 0.614767 9.01872 -5.19194 20
594 1 -13.5332 -6.38613 4.47028 17
595 1 3.08288 -4.63256 8.49702 11
596 1 3.34584 -2.51456 -1.44102 19
597 1 3.86707 10.1971 4.89884 12
598 1 -4.76241 7.19765 -7.0605 22
599 1 -5.69875 -6.80417 -7.56269 20
600 1 -5.24765 4.0396 -15.003 16
601 1 -11.1643 -1.92459 14.3307 9
602 1 -7.62193 15.9027 0.242422 9
603 1 6.07905 -0.240459 2.19659 19
604 1 -2.43692 8.81704 -7.39219 19
605 1 -2.38186 7.30003 13.4261 10
606 1 1.81525 11.4864 7.46744 12
607 1 5.49648 -3.18388 -11.5353 18
608 1 -6.91049 -10.5591 0.101293 20
609 1 -9.2213 0.838783 -8.92278 23
610 1 9.67905 -1.575 -0.39137 16
611 1 -3.60434 -2.58545 -10.0409 22
612 1 -6.11163 -6.46697 -4.15916 21
613 1 6.48968 -7.9676 -7.11923 20
614 1 -3.64683 -9.87967 10.5868 11
615 1 -8.61283 -6.0428 -13.8978 18
616 1 3.15876 14.1647 -3.32811 12
617 1 -3.8362 -5.90287 3.75595 22
618 1 -20.8368 1.7875 1.70378 10
619 1 8.06876 5.83862 -4.39306 14
620 1 0.853014 -6.00452 -15.783 12
621 1 -14.2253 10.5476 2.02823 12
622 1 -3.30669 1.4414 -18.0736 12
623 1 2.20533 -3.17104 -7.87762 18
624 1 -14.7905 0.818501 -3.02094 22
625 1 0.54089 7.61011 2.75409 17
626 1 -15.7826 -8.99063 -2.50855 12
627 1 4.48514 2.73465 11.2376 8
628 1 -15.6315 -4.00869 -9.74258 21
629 1 -15.7198 7.92406 -0.314456 16
630 1 -8.15238 3.26444 -10.2343 22
631 1 7.33698 -8.2486 -13.0245 10
632 1 -16.3334 -7.09193 -8.35614 16
633 1 3.76043 -13.8065 -8.27635 9
634 1 -14.153 3.89022 -1.14076 21
635 1 -11.6186 -3.76986 -6.83205 16
636 1 -8.69589 -4.72786 4.40653 19
637 1 10.6836 -5.89818 3.42263 10
638 1 2.1147 -3.66196 1.36802 21
639 1 -15.8305 2.10886 4.052 18
640 1 -9.66247 7.95006 7.37193 17
641 1 3.03124 7.53953 -11.181 15
642 1 -9.4152 12.4167 4.63212 11
643 1 5.82113 12.4792 -4.44755 11
644 1 -5.03802 9.09935 14.0033 10
645 1 0.182187 -3.64531 3.15633 17
646 1 -0.629417 12.2263 -9.5757 11
647 1 -8.1475 -5.24496 7.23142 20
648 1 -13.7625 -7.62416 -10.557 18
649 1 -14.656 3.16733 -7.0955 20
650 1 -6.74095 -11.7396 3.08265 17
651 1 -0.149108 -4.70233 8.94807 18
652 1 -4.56935 -12.381 -10.1233 13
653 1 -20.2935 3.88401 -3.37347 12
654 1 8.34627 -3.2106 -11.1831 19
655 1 -15.0362 8.06752 3.201 19
656 1 -13.4778 3.77853 6.42678 21
657 1 -6.55445 -7.90378 -14.4612 14
658 1 -4.17038 -10.9897 -4.28181 22
659 1 5.36842 -15.501 -5.38381 8
660 1 -4.52787 6.77565 -16.2758 13
661 1 11.4145 1.11506 -8.16907 12
662 1 4.06224 7.24079 6.70902 14
663 1 6.37895 -5.18839 -5.72276 21
664 1 -3.13145 4.29768 -16.7803 15
665 1 -3.69332 -9.78181 2.87318 22
666 1 2.5416 11.5568 -1.6185 22
667 1 0.467085 1.40147 -12.9138 21
668 1 -16.6083 2.24283 -0.145847 21
669 1 -2.62092 8.69612 -4.3439 20
670 1 -12.8207 -9.01281 5.95476 12
671 1 0.269677 9.989 0.842332 19
672 1 -0.653549 -11.8877 0.730407 19
673 1 5.50424 10.745 -7.82494 13
674 1 -10.3366 7.63045 12.4678 10
675 1 -15.309 1.0967 10.6864 9
676 1 4.39113 1.81323 -5.65295 18
677 1 -3.48236 -6.80463 12.4563 13
678 1 4.01081 -10.2073 4.65593 13
679 1 -7.80631 -0.711409 3.27348 19
680 1 4.64275 1.57797 7.86726 16
681 1 1.75885 -9.33214 -10.4753 13
682 1 -13.9883 -0.671948 -14.8242 15
683 1 -13.6825 3.10992 -14.5381 16
684 1 -19.5293 2.29353 -0.978495 15
685 1 -1.14514 15.2685 0.767506 11
686 1 -6.73769 8.56474 5.28812 19
687 1 -16.1858 -9.86748 -9.33693 10
688 1 -8.15492 6.56407 -2.06343 18
689 1 8.93181 3.44396 5.02906 11
690 1 -8.75482 -11.1864 -2.25044 21
691 1 11.0325 -4.3447 -9.58207 15
692 1 4.07877 -10.8134 -3.70246 21
693 1 -2.53115 -3.18333 -12.6258 22
694 1 -5.34703 -1.05177 -19.5231 13
695 1 -8.11191 -8.32222 -0.550861 19
696 1 -11.7114 5.01774 -5.24271 21
697 1 -9.80741 4.41375 12.8947 11
698 1 3.49839 -4.13762 5.43359 19
699 1 -13.4349 -5.72246 7.7128 16
700 1 1.79244 0.038445 -2.91858 21
701 1 -8.15274 6.26763 -15.896 11
702 1 7.95808 6.21948 -1.03783 12
703 2 -15.4139 3.4286 -15.0169 12
704 2 -11.8734 9.0582 -7.53355 20
705 2 -3.76531 -1.93413 -12.1644 20
706 2 -8.01228 7.41591 6.6134 17
707 2 -13.3699 -4.60799 -7.28609 19
708 2 -4.74867 4.11983 10.4917 18
709 2 -15.8737 -7.85878 -1.18201 13
710 2 -19.6216 4.91083 -4.94018 12
711 2 -7.49948 11.1393 7.11261 16
712 2 -17.5821 -3.83714 6.20168 14
713 2 2.35392 1.64693 -0.205008 18
714 2 -8.84022 -1.05697 -9.5794 20
715 2 -19.2575 -3.35785 -10.2812 14
716 2 -14.5874 1.7314 -5.60937 21
717 2 -7.41889 -10.4279 1.89813 20
718 2 -0.0224964 1.85923 9.87194 18
719 2 3.41638 -3.47637 -12.418 17
720 2 -3.83545 -12.908 -7.62149 18
721 2 0.226786 0.775534 1.62433 21
722 2 -12.3746 12.1707 -5.05051 16
723 2 -19.4317 -0.477327 -4.10943 13
724 2 11.1868 -4.33184 4.01142 8
725 2 3.74297 -15.2048 -6.73245 10
726 2 -6.68373 -5.6582 0.0606845 20
727 2 -12.0928 -1.05129 3.39573 20
728 2 -7.12963 -13.5047 2.33314 16
729 2 7.31437 -8.2263 0.888572 17
730 2 1.84232 -6.97041 -7.01482 20
731 2 1.08832 -1.01313 9.58404 14
732 2 -2.99746 10.3049 -13.0165 10
733 2 -13.8764 -11.1496 -5.17664 14
734 2 -4.89886 1.79002 13.7007 12
735 2 -13.448 6.59725 2.08442 20
736 2 -5.87613 2.42041 8.28792 19
737 2 -10.7049 9.44057 -3.96614 18
738 2 1.3798 -13.2078 2.77791 16
739 2 -9.57026 2.9353 7.86157 21
740 2 -6.87338 10.8564 -8.7248 13
741 2 4.47578 -5.82381 -5.0558 21
742 2 -9.80197 -1.08638 -12.2504 18
743 2 -2.62907 -4.13703 -10.6387 24
744 2 5.53329 -0.0938064 -8.63539 20
745 2 -6.17275 7.10412 12.157 17
746 2 -4.80976 3.01853 -16.7268 15
747 2 -15.9337 5.51694 -12.5536 13
748 2 3.908 10.7433 2.56755 12
749 2 -4.74696 -5.76369 13.2084 14
750 2 -16.2753 8.96733 -5.21497 13
751 2 8.28406 -1.32295 -10.0502 21
752 2 -4.8201 -11.2567 -12.3559 14
753 2 -17.3095 1.01773 3.64187 19
754 2 3.56836 10.04 -1.93934 20
755 2 -9.18847 15.1876 -0.0458409 10
756 2 -11.7762 -12.1488 -10.194 11
757 2 -10.5105 12.0421 6.10479 10
758 2 -2.42765 -8.70008 9.44337 15
759 2 4.55183 -7.34651 0.149738 20
760 2 -15.1753 -0.755653 1.61466 23
761 2 1.92084 -9.95568 -1.40366 23
762 2 4.61057 -12.0421 -7.80692 13
763 2 4.24202 5.59095 2.32039 20
764 2 3.97629 -14.0379 1.16788 13
765 2 5.20163 -9.986 -0.2257 22
766 2 -10.399 -2.14496 9.20603 17
767 2 6.71063 -4.24697 -3.92848 17
768 2 -3.05841 6.80188 6.65607 18
769 2 5.18664 3.4363 8.14706 12
770 2 -9.993 9.93847 8.10192 14
771 2 0.828204 11.9431 -2.52091 21
772 2 9.34905 -6.34666 -3.65388 16
773 2 0.457794 5.76437 -5.35614 22
774 2 -16.872 0.43666 -10.1554 21
775 2 -10.4822 3.6835 11.0951 17
776 2 -0.713936 0.0281238 -11.7912 21
777 2 -14.3916 2.421 -11.1658 22
778 2 -19.0928 4.28918 4.69684 12
779 2 -16.9592 -6.60475 -6.31552 12
780 2 10.3511 -1.56781 3.516 11
781 2 -4.99724 -9.15173 6.85847 16
782 2 -7.88417 -2.046 15.4145 11
783 2 4.53572 -5.21333 -14.8259 13
784 2 0.566068 4.28582 11.8463 12
785 2 -7.00139 9.07924 9.7783 19
786 2 -14.3988 1.95241 -0.0675484 22
787 2 -3.33945 -9.88472 -9.12004 22
788 2 6.65158 -3.54448 -6.91583 20
789 2 -14.5297 9.25974 0.630113 15
790 2 -5.916 -7.92181 -2.86543 20
791 2 7.90244 -11.6108 -6.76091 10
792 2 -0.92206 -2.33411 -7.13403 22
793 2 -2.2052 10.0286 7.56875 14
794 2 0.162474 -10.2503 -10.0989 14
795 2 0.546457 -1.66554 5.63879 23
796 2 -7.14005 -4.10697 5.60443 19
797 2 5.6309 -1.54122 0.715562 18
798 2 -11.1205 -8.84289 7.226 12
799 2 6.15911 11.0714 -6.02909 14
800 2 -6.11851 -8.43797 0.122075 22
801 2 10.9203 -6.00977 -8.55927 12
802 2 -1.23582 -14.8392 -8.66837 12
803 2 3.00167 -9.6107 -4.92246 16
804 2 -16.9623 7.46314 -1.61035 13
805 2 11.9179 -2.52536 -10.6801 10
806 2 -8.56858 -10.8466 -11.9907 14
807 2 -12.0919 -6.65882 3.51964 20
808 2 -5.95309 -10.3851 -4.53583 19
809 2 -9.22027 -15.3112 -5.51812 10
810 2 -12.3575 10.3642 1.80753 15
811 2 -17.6728 6.59977 -4.48989 13
812 2 -0.35306 0.418849 -8.97498 23
813 2 4.15799 6.00148 -3.87057 17
814 2 -2.24231 4.47075 -12.3802 18
815 2 -14.9813 2.85013 5.79097 19
816 2 -2.98305 0.240924 -16.8048 16
817 2 -16.619 0.671581 -3.55457 20
818 2 -7.6414 1.37742 6.83153 19
819 2 -17.5247 7.84133 3.95762 10
820 2 -10.6641 3.76255 -6.58534 20
821 2 2.36875 11.1853 5.45041 14
822 2 2.82411 3.49132 -8.55888 22
823 2 7.05967 -8.29711 -5.07618 19
824 2 -14.2381 -0.545642 10.6179 9
825 2 3.1126 0.431544 -4.5048 16
826 2 -7.54091 6.83577 0.0460258 19
827 2 -16.0813 2.64217 -8.48936 20
828 2 -11.987 5.46688 6.01953 20
829 2 4.09378 0.136107 2.13916 17
830 2 -14.7284 -7.4668 -12.1842 13
831 2 1.81892 1.66336 -14.4016 18
832 2 5.38963 9.02116 -3.51884 15
833 2 -15.5375 -4.8831 7.60547 12
834 2 -2.20286 6.83144 -3.65969 21
835 2 -6.87309 9.92594 -13.361 10
836 2 -4.5057 8.86021 -7.50819 20
837 2 5.50373 -1.48294 3.87964 19
838 2 -2.36516 3.84266 8.2373 19
839 2 6.18157 -8.44762 -11.1296 14
840 2 -9.73748 -2.05274 12.7523 16
841 2 -2.58674 -3.59293 6.6572 21
842 2 -15.9537 3.33744 -1.62253 17
843 2 -8.97433 -8.02261 -14.3519 13
844 2 2.7683 -11.7112 0.372852 20
845 2 -1.13989 -2.49955 -13.8643 21
846 2 8.82573 4.78482 -0.493949 14
847 2 -7.81307 4.1711 10.1854 19
848 2 2.73857 0.81815 -10.326 23
849 2 -7.32646 -6.91535 11.5057 16
850 2 -9.96567 -2.93146 -14.5208 15
851 2 -2.021 -8.21332 -3.59696 22
852 2 -6.59161 -8.87346 -7.40629 22
853 2 1.52611 -12.9413 -3.47079 19
854 2 5.8406 12.2647 -2.43018 12
855 2 -11.9107 3.68442 -15.1683 13
856 2 -9.84918 11.1517 2.95292 14
857 2 -11.7678 -10.9145 -7.39889 14
858 2 -13.2818 1.12836 -14.234 17
859 2 4.847 8.52075 -11.3917 13
860 2 -7.49688 14.4056 -3.16569 16
861 2 -8.01551 -14.1585 -0.19472 16
862 2 10.4164 -3.02023 0.79265 15
863 2 -5.65005 4.15352 13.1973 14