ITEM: TIMESTEP
12000
ITEM: NUMBER OF ATOMS
1500
ITEM: BOX BOUNDS pp pp pp
-30.0 30.0
-30.0 30.0
-30.0 30.0
ITEM: ATOMS id type x y z Coordination
1 1 -8.31707 -10.9208 -10.7988 10
2 1 3.55489 -14.8052 1.7333 14
3 1 -16.4682 6.28743 -6.18384 14
4 1 -11.5833 -2.65174 -5.57504 19
5 1 -0.632694 -8.78693 6.50503 21
6 1 -13.3515 2.58947 -14.1394 14
7 1 -6.33705 -2.8661 -8.9124 22
8 1 -7.49645 -13.7355 1.60839 12
9 1 -12.1701 -4.93396 7.91772 19
10 1 -1.26661 1.17401 15.4136 11
11 1 2.33212 -0.928567 5.73887 19
12 1 -4.3869 4.06178 9.15744 19
13 1 2.7699 -1.40742 2.63041 22
14 1 -3.60844 6.84415 -8.98466 23
15 1 -1.06184 0.563282 9.50702 15
16 1 6.20164 7.44434 5.62743 14
17 1 -0.856914 9.11078 -9.26938 19
18 1 0.985317 3.65278 -15.0958 16
19 1 -10.0762 2.06609 3.30342 20
20 1 -5.21127 -2.77022 -12.1279 18
21 1 3.28251 -9.90971 7.52538 12
22 1 -0.179935 -2.1359 7.08975 21
23 1 4.24009 -16.9127 -0.982089 12
24 1 -9.39208 -12.7113 -2.8822 16
25 1 2.17681 -4.68287 -5.55265 21
26 1 -0.631953 -7.45055 -15.5717 13
27 1 -3.07644 6.64852 6.90924 22
28 1 -3.7141 -15.6608 4.54671 11
29 1 2.12583 -4.18816 7.46659 19
30 1 -14.7991 -1.98521 2.07143 20
31 1 -9.4338 -2.56111 -10.4013 17
32 1 -8.88196 10.0314 -4.13393 22
33 1 -0.885937 3.12093 -9.13103 19
34 1 -1.29232 -4.87969 -10.533 21
35 1 -0.69553 -1.49033 14.964 10
36 1 -14.8906 4.27187 1.41168 18
37 1 -2.12843 14.5025 7.24338 14
38 1 -15.2885 4.13344 -7.20021 19
39 1 -9.24033 15.631 -5.62001 10
40 1 0.753657 -7.11754 0.221207 16
41 1 4.14375 -7.04527 -4.26608 18
42 1 -8.75294 6.12195 7.67075 19
43 1 -14.4072 -4.60129 -9.02203 19
44 1 4.51419 1.24836 2.73498 22
45 1 -12.1365 10.0854 -5.86213 14
46 1 -6.49216 -8.8839 10.9352 12
47 1 -17.3549 1.56377 -6.36497 15
48 1 -1.33647 6.39915 -7.14939 22
49 1 2.18051 4.45334 2.63256 22
50 1 2.4084 3.99992 5.80833 18
51 1 2.97425 -13.9198 -0.868793 19
52 1 4.6106 8.51114 11.8626 12
53 1 12.0397 -2.67618 -12.1652 10
54 1 5.99442 -12.982 0.794344 18
55 1 -10.1007 -3.9478 0.212892 22
56 1 1.24192 -1.71336 12.004 15
57 1 -8.02907 -9.35132 7.78044 15
58 1 -12.2117 -1.7164 -0.182494 22
59 1 10.2566 2.34121 4.12127 17
60 1 6.5826 -1.9301 -9.89887 18
61 1 -2.61285 11.6979 7.84369 20
62 1 1.31835 1.59702 7.54399 21
63 1 -12.5831 -5.72251 -1.62042 21
64 1 -6.91826 -11.4657 -4.53598 19
65 1 -11.8978 9.4852 -2.9077 19
66 1 -2.74938 4.73441 -11.259 20
67 1 1.93831 -1.45536 -7.12879 24
68 1 10.3198 1.22129 -8.23468 15
69 1 8.74088 -9.60265 -1.22707 16
70 1 3.89866 -10.5342 10.9712 5
71 1 -4.63694 12.5473 -8.38455 12
72 1 -8.15085 7.04625 4.32624 20
73 1 -8.93428 9.79248 -0.390906 19
74 1 -4.85851 -2.0567 11.3166 20
75 1 11.702 -7.15032 -6.96205 15
76 1 -15.1605 6.33403 4.01591 18
77 1 6.91272 -6.1022 -12.874 14
78 1 0.129579 0.610383 -13.8738 19
79 1 -4.63902 0.8785 -16.0132 14
80 1 -3.09861 10.7717 2.19281 22
81 1 -16.5983 6.19113 -9.30119 11
82 1 -1.53798 11.8044 -8.60821 14
83 1 -3.71855 7.80861 0.842447 23
84 1 -4.33682 -4.98914 10.1998 16
85 1 -3.7445 -4.57804 -8.50877 21
86 1 2.43229 -4.2901 -12.3972 20
87 1 -1.3805 3.13271 7.64042 21
88 1 -14.1646 -10.4984 -5.07866 12
89 1 8.81293 -7.10868 1.22678 16
90 1 -11.5048 -8.28133 -2.24166 17
91 1 8.56263 -12.3479 -3.29431 16
92 1 -8.66349 4.98908 -1.34049 19
93 1 4.42232 4.22555 -14.5572 10
94 1 1.70077 4.83635 -7.25436 20
95 1 8.95881 -12.517 -6.33968 11
96 1 6.68472 -15.6096 1.1318 11
97 1 -11.7023 -6.36401 1.82301 18
98 1 -14.9431 -7.31034 2.31344 13
99 1 5.85643 6.52239 9.27979 13
100 1 5.3758 3.44341 -1.76727 23
101 1 -5.79664 10.2988 9.11504 16
102 1 -9.63052 9.43187 -10.6667 17
103 1 -8.82894 -2.366 -13.9823 15
104 1 7.09378 -1.78034 10.1628 9
105 1 -7.48785 8.17056 -8.78252 19
106 1 7.05208 0.167419 -6.71941 21
107 1 -14.3336 8.40148 -8.30282 12
108 1 -9.53167 14.1409 -3.10135 13
109 1 9.24074 2.68437 -11.4388 12
110 1 6.50034 -6.31319 2.18052 20
111 1 -8.66396 1.97297 -9.52061 19
112 1 2.44266 13.2705 -5.03256 15
113 1 6.50442 6.1973 -0.75083 19
114 1 -6.165 9.91551 0.939437 20
115 1 -8.91121 -5.51194 -14.3222 16
116 1 -2.29024 11.7642 4.59525 21
117 1 -12.0691 -0.00823986 -8.71207 16
118 1 13.217 -1.67586 -3.19872 12
119 1 -6.42809 9.91456 3.80184 19
120 1 -6.91814 12.7011 -4.85913 19
121 1 -2.52801 -6.91647 11.3718 14
122 1 -12.7157 -5.93559 4.74726 19
123 1 -4.69324 -15.0804 1.25131 16
124 1 4.27715 -14.9369 -3.55396 15
125 1 -12.4243 9.14221 -10.7216 10
126 1 -1.28352 6.4226 -3.96746 20
127 1 7.30307 9.06738 -2.78906 20
128 1 -3.51053 -7.90901 7.92979 20
129 1 -9.95423 1.75679 -3.36004 21
130 1 2.49764 10.7029 -0.120729 19
131 1 1.64357 8.6938 10.4307 19
132 1 -9.57457 11.2253 2.02429 20
133 1 -6.51399 -0.450865 -9.85941 18
134 1 11.0049 -7.5595 -1.51581 12
135 1 -6.56233 -0.77775 7.08362 17
136 1 -17.7395 4.30999 5.85189 8
137 1 -11.5292 -8.74545 3.30521 14
138 1 -18.5954 -5.61462 -2.45251 11
139 1 -1.74784 -13.845 -0.679205 20
140 1 -13.9279 -3.12111 -3.51045 19
141 1 4.91028 -8.05433 -7.3337 20
142 1 -2.89594 13.5389 1.03667 18
143 1 -10.0543 -3.97945 3.97485 19
144 1 -13.588 2.31187 -10.9881 21
145 1 -10.3824 6.94112 -8.58148 21
146 1 -19.1021 -2.77044 -4.6017 14
147 1 -10.2148 -2.15216 11.9101 12
148 1 -3.68371 -9.89361 3.10427 18
149 1 -1.58254 -17.6278 4.27434 7
150 1 11.0771 -1.33636 -0.378389 17
151 1 2.84575 3.77084 -3.962 21
152 1 3.92859 4.09603 8.47787 17
153 1 -4.38817 7.51459 -13.5675 11
154 1 6.37365 5.11566 -11.5162 15
155 1 -6.73623 -5.53845 -10.4893 22
156 1 -7.56744 11.4675 -9.31216 16
157 1 -9.22211 10.4252 -7.0507 21
158 1 4.24534 1.29897 6.31438 14
159 1 -6.71263 -6.49434 -16.4312 11
160 1 -7.10879 8.6904 -11.8794 13
161 1 3.42717 7.47914 -10.421 18
162 1 -7.17675 4.65642 10.1801 21
163 1 -7.55481 7.08629 12.5616 12
164 1 2.11622 -9.72249 -13.9772 9
165 1 -9.78712 -12.8495 0.223032 13
166 1 6.86337 -14.891 -1.75935 15
167 1 4.04086 -5.59324 -0.864227 18
168 1 5.31206 8.9437 -5.98517 19
169 1 -6.45601 10.3074 -2.49267 22
170 1 -12.1456 0.193262 2.23172 21
171 1 -1.2129 8.43849 12.0586 11
172 1 8.93136 -1.18263 -4.33541 17
173 1 -0.790198 8.80658 7.22772 23
174 1 -9.83876 4.24138 4.96855 21
175 1 -16.006 -4.79305 -5.70092 19
176 1 3.72702 4.24292 -10.1047 19
177 1 -3.48586 -2.01626 8.5722 17
178 1 10.2621 7.21632 -7.99377 12
179 1 0.0869429 -12.9462 -5.96046 13
180 1 -3.5075 1.14266 -12.5332 18
181 1 4.26597 0.250648 -7.19877 18
182 1 -16.4772 -1.99413 4.61642 17
183 1 2.27074 -17.7661 -3.3344 9
184 1 -12.3337 -6.6836 -10.1723 15
185 1 -0.922412 12.1479 -3.97288 17
186 1 1.53516 -4.85828 -16.7747 13
187 1 -1.7653 3.10191 10.5146 19
188 1 10.3671 1.70531 0.744323 20
189 1 -6.72238 -10.3845 3.31548 19
190 1 9.84326 -5.6663 -11.0131 18
191 1 -9.28705 -9.72548 5.41886 16
192 1 -2.98432 -4.93169 -15.1804 21
193 1 -14.8979 1.11653 -7.97786 18
194 1 8.877 0.00112611 5.12687 20
195 1 -0.601649 -5.54049 5.64709 20
196 1 -10.1391 -7.71897 -16.8211 5
197 1 0.196201 -7.86421 3.61658 17
198 1 -1.05397 6.08238 -13.5137 24
199 1 2.11027 7.0836 -2.17677 18
200 1 -8.7929 -6.12587 1.73858 17
201 1 -3.36762 10.1714 -0.948219 20
202 1 -7.36011 -5.36718 15.3573 12
203 1 -11.2265 -9.43059 -9.04157 13
204 1 -10.2331 -7.75326 -13.1395 12
205 1 -10.7397 -12.7528 -8.47832 10
206 1 -3.83323 -12.9945 -5.21763 16
207 1 7.24486 2.56306 2.76139 20
208 1 -8.9492 -9.37433 -3.69066 20
209 1 -9.24725 -3.58318 14.2374 11
210 1 0.777059 -13.2235 -2.92547 23
211 1 -1.83531 -7.30288 1.41296 16
212 1 -0.146381 12.6993 -0.484279 19
213 1 5.12294 2.47488 -12.6759 15
214 1 -6.0743 -2.89574 -15.7914 14
215 1 0.502203 -10.144 -1.21857 20
216 1 -2.90627 -9.97905 -9.74708 19
217 1 -12.0032 2.73401 -7.80017 19
218 1 7.92318 4.20054 5.52061 15
219 1 -9.80609 1.81833 -14.2894 13
220 1 -4.54148 9.18042 -9.90392 17
221 1 -7.66639 1.09019 5.17644 19
222 1 -7.86508 14.3361 -8.49217 9
223 1 -0.203398 9.88862 3.89986 19
224 1 10.7282 -4.97109 0.117868 16
225 1 -12.1317 1.47955 6.03245 18
226 1 -3.91296 -13.3922 7.17504 13
227 1 -9.5173 7.53845 1.26495 17
228 1 2.28422 -7.08802 -14.7801 15
229 1 2.9572 -8.58501 -2.27985 22
230 1 -6.30676 -2.61965 14.7024 17
231 1 -15.483 -7.30501 5.48599 10
232 1 11.4168 -1.81598 -6.8829 17
233 1 4.16069 -2.46993 -8.95174 18
234 1 7.50152 -10.2199 -8.59352 17
235 1 -5.72632 -6.94709 2.474 18
236 1 -10.7944 11.8985 -8.79983 12
237 1 -0.609527 3.00025 4.54088 21
238 1 1.7568 6.66682 13.4611 11
239 1 -11.2603 -0.688789 4.55358 20
240 1 4.26604 -10.4305 -9.84955 14
241 1 -6.51872 12.4416 1.83072 17
242 1 -11.6455 4.13837 -0.0360578 19
243 1 8.44627 -7.9085 4.01901 11
244 1 6.4834 -6.71175 -2.30989 17
245 1 -10.4651 8.13712 6.06861 14
246 1 -7.07591 -5.48839 -3.51104 18
247 1 -2.76579 -3.20568 16.0128 8
248 1 -9.38517 14.0719 0.483988 11
249 1 -9.17403 4.7336 -7.29365 22
250 1 -15.0308 0.434283 9.79882 11
251 1 -11.6212 5.95494 3.31617 19
252 1 -6.12266 -5.51296 -6.92228 21
253 1 -11.0144 11.9955 -0.823719 16
254 1 10.3846 -5.41094 3.46411 12
255 1 -15.7879 -10.0528 -2.557 10
256 1 6.23148 -13.7184 4.0433 9
257 1 -15.917 1.6249 -1.53724 18
258 1 -4.12768 -4.13909 13.278 16
259 1 1.19382 -10.9726 -11.2713 10
260 1 -10.2639 -4.93656 -11.7516 16
261 1 5.17673 -2.21139 -12.4671 15
262 1 0.529182 12.384 6.16912 21
263 1 -11.7059 -1.12416 -3.23552 20
264 1 -0.828264 -9.14002 -11.5155 18
265 1 -6.49509 -14.7815 -4.54735 12
266 1 -16.204 -7.5939 -3.80942 16
267 1 -1.97496 -10.6257 0.197509 22
268 1 12.6963 0.996429 -5.73136 16
269 1 -15.7005 0.826793 -12.1598 12
270 1 -17.9284 -1.32661 1.43017 15
271 1 -13.6014 8.78869 5.28784 12
272 1 -11.8905 9.43172 0.842391 17
273 1 -8.33229 12.1491 7.90542 11
274 1 15.063 -4.16383 -5.26101 10
275 1 12.6656 -5.47604 -10.0121 13
276 1 -6.77701 7.47552 -4.45133 18
277 1 -1.36304 -7.51862 -5.70396 23
278 1 -2.40074 8.00473 3.8606 24
279 1 -12.3527 1.06313 -5.20565 15
280 1 4.27144 -9.90133 -5.01146 19
281 1 11.5494 -1.04619 5.94573 11
282 1 -9.09184 -1.30508 -7.81432 19
283 1 -12.0914 -10.4015 0.486976 14
284 1 -7.71147 12.7615 -1.04518 20
285 1 -11.4152 -11.4609 -5.43899 14
286 1 -12.4294 6.15414 -6.83991 18
287 1 -0.734956 14.332 -6.22852 12
288 1 -1.18536 15.0135 3.98082 15
289 1 -19.0158 -6.23979 -5.424 10
290 1 -9.06485 -7.29378 -7.16843 20
291 1 -16.5337 0.962505 6.97478 14
292 1 -17.8399 4.1347 -4.40406 12
293 1 3.44359 -12.1718 3.68127 16
294 1 -7.15844 -14.6816 -0.967715 13
295 1 3.04777 13.3626 -11.1328 7
296 1 -8.37493 5.40616 -10.3017 18
297 1 -2.06894 -12.8307 2.15525 18
298 1 9.9957 5.81492 3.93999 13
299 1 -7.88498 -1.37146 9.72978 17
300 1 -18.8256 -1.74399 -1.44687 13
301 1 -8.11698 9.66359 6.92734 16
302 1 -6.80629 -6.78383 7.93975 16
303 1 -0.561671 -4.80742 -7.22297 22
304 1 5.44042 -8.02267 -14.4449 10
305 1 -3.00982 -1.91361 5.55544 19
306 1 -15.3938 2.98053 4.53186 18
307 1 -5.68661 -8.91001 5.25587 19
308 1 6.43418 -7.71549 -9.659 19
309 1 -4.25485 -7.28823 -10.8753 20
310 1 -7.3301 -4.01847 8.78517 15
311 1 0.374533 -7.24137 -3.38834 20
312 1 -6.85261 3.55564 -15.3802 12
313 1 0.552234 -14.4596 3.94195 14
314 1 -3.76016 10.253 -3.94737 19
315 1 -3.97766 -6.37574 15.0377 9
316 1 -9.21909 -7.33856 9.43203 17
317 1 7.80525 -5.99534 6.67014 10
318 1 4.35422 0.901806 -0.423336 19
319 1 -9.30344 4.47808 1.80569 25
320 1 3.54496 0.341665 -14.5604 12
321 1 5.66425 -7.93592 5.91648 16
322 1 12.3546 6.68963 -2.59323 13
323 1 -5.03741 1.46698 11.0028 20
324 1 3.04395 13.6408 1.09749 18
325 1 3.35279 -6.88996 3.27519 18
326 1 -5.81247 -11.9528 -10.3342 14
327 1 -4.40898 13.3899 3.52174 14
328 1 -12.3112 -8.05344 -4.97845 17
329 1 -0.144414 6.03351 8.88838 22
330 1 -11.922 5.94055 9.14386 13
331 1 -4.60691 -11.2339 -2.24619 22
332 1 -13.1168 -1.95443 10.431 13
333 1 -13.7269 -7.25528 -7.89078 16
334 1 -4.97273 12.6375 6.50275 16
335 1 -7.16347 -8.07562 -12.4076 17
336 1 -3.43171 -7.09246 -17.1048 10
337 1 -10.1688 -11.8875 3.19369 11
338 1 -9.47833 -1.23331 1.97681 21
339 1 6.37437 -0.945558 4.0539 17
340 1 -5.56674 -7.45839 13.3295 14
341 1 -15.8503 4.3515 -11.9778 13
342 1 11.3296 3.68013 -3.79845 17
343 1 -12.3868 -12.0512 -2.31295 12
344 1 -3.09946 4.25913 -7.35759 22
345 1 -2.97594 13.2399 -2.31242 16
346 1 -6.35864 6.05601 -7.60142 20
347 1 -5.81974 7.13653 9.35669 20
348 1 -15.3944 -0.941882 -4.39377 18
349 1 4.26354 9.72552 -8.75475 16
350 1 -9.95524 -6.70716 -3.92101 21
351 1 -3.86293 -10.4361 -12.5192 12
352 1 -0.0719596 -4.49136 -14.0316 22
353 1 -14.8657 8.46806 -1.44713 15
354 1 -2.78335 2.27632 12.9156 16
355 1 6.74898 6.0428 -3.85776 22
356 1 -0.97908 6.43509 -0.950571 22
357 1 -16.9916 2.6919 -9.70694 11
358 1 1.56861 1.77966 -8.42288 23
359 1 7.60501 -10.0909 2.21049 14
360 1 -17.671 -4.19042 0.0819384 13
361 1 -12.9709 5.21463 -12.5909 15
362 1 10.0893 8.48018 -4.20823 14
363 1 5.48105 -8.35363 -0.0909698 16
364 1 12.8461 3.6622 -1.06692 13
365 1 -1.19304 0.566591 -10.6198 22
366 1 3.24046 -9.57854 4.51616 18
367 1 -2.62486 -16.5713 -0.714302 10
368 1 1.30672 -7.48601 8.80473 14
369 1 -10.7053 3.98314 -10.3153 18
370 1 -1.96877 -12.3552 -10.8688 13
371 1 -0.990178 3.19835 -12.412 17
372 1 -1.15909 -5.75917 8.54156 19
373 1 -13.9098 -3.33117 5.12267 20
374 1 12.479 -4.81506 -6.79315 17
375 1 8.5944 -0.77867 -0.939178 21
376 1 -6.16321 9.61943 -6.33618 20
377 1 -0.313702 -7.51443 -8.86544 20
378 1 2.13095 4.66072 -12.4917 23
379 1 7.25848 -4.9775 -9.55024 19
380 1 -10.017 0.265921 7.92113 18
381 1 5.43908 12.8644 2.31962 11
382 1 -3.82013 -1.64328 -17.8039 14
383 1 -12.0606 -1.91656 7.57269 17
384 1 -6.53993 15.6572 -2.89781 12
385 1 -9.49334 0.126875 -12.0636 17
386 1 -17.4482 1.17421 4.22529 15
387 1 -8.8805 -6.67786 12.5094 13
388 1 1.96431 7.88053 -7.85646 19
389 1 11.1351 0.812577 -2.78761 17
390 1 -8.97925 -8.99188 1.97296 18
391 1 -2.27481 -8.93935 -2.77161 20
392 1 -10.6834 10.7565 5.14912 13
393 1 1.42041 -6.91278 -11.9187 18
394 1 -3.87495 7.49506 -2.41826 21
395 1 7.44887 -2.96311 -7.02489 23
396 1 3.68196 13.5973 -7.92199 10
397 1 3.74441 -10.8973 0.514047 14
398 1 -12.7588 5.77948 6.13285 18
399 1 0.710881 13.3217 8.75558 13
400 1 -3.33931 3.28188 -16.852 10
401 1 -13.0507 -5.54781 -4.71457 23
402 1 -7.91848 1.95382 8.46473 16
403 1 4.77285 9.1475 8.12099 14
404 1 1.40984 10.3401 -10.5667 17
405 1 -13.3426 5.74292 -9.67904 19
406 1 -3.35676 16.1638 -4.62725 11
407 1 8.64963 -3.09921 5.44461 14
408 1 12.2399 3.09107 -9.44232 13
409 1 -14.0477 -4.67155 0.365803 22
410 1 -1.38244 0.749854 5.62353 22
411 1 1.45416 7.814 -12.8372 17
412 1 -0.910733 -10.3582 -7.90148 22
413 1 1.55301 -1.35642 -10.079 21
414 1 -6.18242 15.8671 -5.89297 11
415 1 -11.3261 -2.71209 -12.9191 15
416 1 -1.40655 -15.6241 1.63419 18
417 1 -16.6467 -7.08797 -0.0430999 14
418 1 -9.22991 1.70691 -6.50126 20
419 1 -9.71057 -5.2352 6.77317 19
420 1 2.55695 10.8386 -6.16928 19
421 1 -6.26491 -8.53922 -8.97973 20
422 1 0.680159 -11.4358 11.1119 6
423 1 4.2853 3.30332 -7.43339 21
424 1 -17.4388 6.9689 -2.97955 11
425 1 9.85034 -8.81952 -9.61928 14
426 1 2.95355 11.2579 10.2579 10
427 1 -3.06315 -1.72991 -14.3419 20
428 1 0.346208 12.0665 2.14581 22
429 1 9.221 3.22764 -6.00215 20
430 1 -4.87079 -4.82395 -18.0002 13
431 1 -6.05126 -14.1734 -7.70408 11
432 1 -12.514 -2.33114 -9.76497 18
433 1 8.04317 3.87047 -3.01073 20
434 1 9.62669 6.14016 -1.97964 20
435 1 9.80401 -9.21903 -6.40138 14
436 1 0.621552 -10.1689 -5.05206 21
437 1 7.60449 10.8495 0.690026 12
438 1 -9.57155 1.84649 0.195111 21
439 1 5.82314 3.36533 -5.0515 23
440 1 12.1022 3.71292 1.53351 11
441 1 13.3039 0.393885 -8.62057 16
442 1 4.16756 -1.02856 11.9685 9
443 1 -3.87074 -5.17317 7.02451 17
444 1 2.31388 4.37346 -1.07385 17
445 1 -1.13642 -2.9773 10.2256 16
446 1 15.1519 -0.727243 -6.24972 13
447 1 3.18836 0.811452 10.0717 16
448 1 -8.64769 -4.79085 -8.60026 19
449 1 8.93805 4.71457 1.28402 20
450 1 10.9002 -2.86142 -2.75006 15
451 1 -4.33628 -8.23847 -0.0787532 17
452 1 9.28001 -1.05282 7.93302 14
453 1 0.593232 15.499 6.14224 10
454 1 5.04107 3.95977 4.5959 18
455 1 -12.9371 6.62458 -3.11233 17
456 1 6.95212 5.51162 -6.80648 21
457 1 13.5229 0.732813 -12.2005 6
458 1 -0.387575 14.8331 -2.61882 15
459 1 -7.85003 -11.0459 -7.55828 17
460 1 -14.7198 6.60058 7.99604 7
461 1 -7.55958 2.76781 -12.2452 17
462 1 -4.09091 -14.6499 -2.36019 16
463 1 -6.50729 0.0646313 -13.5439 20
464 1 -17.7321 -3.69058 -7.78758 12
465 1 10.4707 -14.3774 -3.50418 6
466 1 8.1321 8.43684 2.29814 14
467 1 -4.68747 -10.6579 8.72791 15
468 1 -17.2503 -1.187 -7.16945 15
469 1 4.65693 -4.89313 4.96343 18
470 1 -4.96462 4.67857 15.4956 8
471 1 8.10343 8.61951 -6.84836 14
472 1 7.23033 2.61168 -8.52134 21
473 1 3.40384 -13.8487 -6.41455 12
474 1 12.4549 -5.16727 -2.26583 11
475 1 5.00696 9.52279 -0.114309 19
476 1 12.9078 -6.77974 -4.60111 12
477 1 -6.35737 4.90611 6.81134 22
478 1 -15.8383 -5.0277 -2.65269 17
479 1 -15.6364 -1.55979 -9.80713 14
480 1 3.37599 -1.70731 8.84276 18
481 1 -6.81731 -12.2699 6.46499 11
482 1 3.50329 3.11358 12.421 13
483 1 -10.4909 12.3801 -5.15188 14
484 1 7.14812 1.98242 0.206424 22
485 1 4.67049 3.90581 1.03177 21
486 1 1.29645 0.487509 -16.4772 16
487 1 -10.0806 -4.19312 9.68586 18
488 1 7.48148 0.140522 -11.6057 14
489 1 -4.10303 -10.202 -5.26037 19
490 1 7.94579 -8.95082 -11.9798 13
491 1 7.84059 4.40596 9.04501 10
492 1 1.66344 1.51687 4.03468 22
493 1 5.20518 5.97236 12.9449 10
494 1 -2.03311 -0.350998 12.0066 19
495 1 -4.96072 4.60818 12.4807 20
496 1 -1.52353 -4.21645 -18.2085 14
497 1 -11.7828 4.07296 12.0462 9
498 1 0.632678 3.83513 13.4056 13
499 1 9.84061 8.60872 -0.498086 12
500 1 2.76574 -11.6177 -2.88605 18
501 1 -10.0261 7.18314 -5.21453 19
502 1 4.91928 7.05858 -2.86843 18
503 1 2.64516 15.0964 3.70592 10
504 1 -7.96461 -2.66151 5.79574 16
505 1 -3.57596 13.5378 -5.813 16
506 1 3.51594 12.3325 4.37656 15
507 1 -6.81062 -8.46232 -5.60572 19
508 1 -0.254852 -2.09574 -15.7133 21
509 1 -14.6289 8.11763 -4.7504 16
510 1 4.37118 -5.04366 -10.8752 20
511 1 0.831062 7.41638 2.4227 18
512 1 4.05999 6.01456 -5.35699 23
513 1 5.17655 12.6277 -1.16066 14
514 1 -6.73679 4.07757 4.00601 21
515 1 -11.9604 3.64118 -3.32907 18
516 1 1.38581 7.60803 -4.92789 17
517 1 -1.93145 -11.4425 8.17669 15
518 1 -10.2253 6.67156 -12.1688 16
519 1 -0.362427 10.5936 9.46712 15
520 1 1.16262 3.29502 10.4122 19
521 1 5.22332 14.0604 -4.62817 12
522 1 2.63903 6.70417 7.61594 19
523 1 7.59649 -3.46365 -3.16848 18
524 1 -15.1948 -2.01874 7.52841 15
525 1 1.41518 -15.6371 -5.13583 12
526 1 -3.36416 -1.71711 -10.5344 22
527 1 3.24409 6.81011 4.53722 20
528 1 5.02065 -2.1417 -5.7059 20
529 1 -0.450957 9.01822 0.479467 22
530 1 -14.1166 0.0461211 4.45283 21
531 1 1.26718 -16.7755 -0.0207951 14
532 1 6.13683 7.19107 -9.4791 14
533 1 4.43086 -7.83741 8.98373 12
534 1 -6.63315 6.77224 1.84095 20
535 1 2.08817 -1.93147 -13.8063 17
536 1 0.923313 -11.7452 6.28845 13
537 1 -2.65542 15.9917 -0.819717 11
538 1 -5.88515 2.14312 14.1628 12
539 1 -14.7443 -2.6204 -12.1689 11
540 1 1.66431 -4.48852 -9.23959 19
541 1 -4.63091 12.7225 9.29499 9
542 1 1.8033 -7.47309 -6.53042 19
543 1 2.4627 -6.91929 6.02083 23
544 1 2.39928 -11.299 -7.90319 17
545 1 -15.2783 -4.75976 7.03846 14
546 1 -3.41432 1.04188 -8.93192 20
547 1 -9.26574 -14.0459 -5.70721 11
548 1 -12.4171 1.92789 9.41909 13
549 1 12.049 4.55845 -6.88978 18
550 1 -3.26797 3.98585 5.85265 20
551 1 -16.1106 6.90002 0.35545 14
552 1 5.78455 -1.29784 0.966844 22
553 1 -3.24548 10.2977 -7.39097 18
554 1 10.4101 -0.771481 -12.0956 10
555 1 4.53505 0.981664 -9.90754 18
556 1 -14.1306 -2.0186 -6.8545 21
557 1 -17.2382 -6.23918 -8.23148 9
558 1 -1.62705 8.32857 -11.79 18
559 1 -4.23838 -0.819364 14.1751 19
560 1 -4.56795 -4.1509 4.33885 17
561 1 -3.17807 -4.84908 -12.1102 22
562 1 -9.31963 7.59093 -2.27066 19
563 1 2.1256 9.61118 5.9628 18
564 1 -12.3543 -3.41697 2.47948 22
565 1 9.04262 4.96855 -9.0554 15
566 1 -0.962908 -15.8969 -3.42777 12
567 1 0.367489 5.94233 -10.3257 23
568 1 -0.0934489 -1.86288 -18.5287 9
569 1 -4.53293 1.64132 7.27779 17
570 1 1.3816 6.35305 -15.8217 12
571 1 -16.4776 -4.70456 2.90479 15
572 1 4.90014 -4.64346 -3.66844 19
573 1 -6.01717 -8.58124 -2.70165 22
574 1 9.71487 5.92497 -4.93754 21
575 1 7.18145 -9.76454 -5.08427 19
576 1 -9.46988 5.45691 10.8277 16
577 1 8.80005 -12.8207 -0.538999 12
578 1 9.75866 -7.5476 -3.73113 18
579 1 8.09424 -3.5098 2.54178 19
580 1 -0.0132726 6.07774 5.70396 19
581 1 -14.4904 3.78507 7.71887 17
582 1 -1.14224 -14.6146 6.40016 12
583 1 7.514 1.24115 -3.17722 20
584 1 2.68083 5.88323 10.6917 22
585 1 -15.1194 -0.986964 -1.16887 17
586 1 7.43464 -6.73888 -5.48373 18
587 1 -1.35061 6.064 2.44337 18
588 1 2.04871 0.793525 14.5463 11
589 1 -4.34426 9.44545 6.15886 20
590 1 1.03694 -10.1049 1.67467 14
591 1 -10.6608 -3.74793 -3.0514 20
592 1 -3.44131 6.36927 10.968 19
593 1 1.54099 10.4888 -3.01311 19
594 1 -12.239 -6.83131 10.4825 11
595 1 5.33967 -4.49135 8.57634 13
596 1 7.11466 -4.04457 -0.359855 19
597 1 5.24221 9.82403 2.92552 16
598 1 -3.99126 7.45936 -5.69763 21
599 1 -3.4019 -7.42352 -7.75133 19
600 1 -4.5025 3.7409 -13.7163 16
601 1 -7.10012 -1.03497 12.7707 17
602 1 -5.73401 14.6829 0.412604 11
603 1 8.60746 -0.0879802 2.13037 21
604 1 -0.625317 9.55752 -5.78805 21
605 1 -4.31719 7.41272 13.1201 12
606 1 3.33643 12.2347 7.62429 12
607 1 8.32186 -3.18299 -12.1278 15
608 1 -4.94549 -11.3635 0.913952 17
609 1 -6.50175 0.684272 -7.5227 22
610 1 12.1811 -0.427161 2.29363 12
611 1 -0.950674 -2.19031 -8.65886 22
612 1 -4.00414 -7.03095 -4.36659 21
613 1 8.75936 -5.90727 -7.48402 21
614 1 -1.35796 -9.19192 9.443 16
615 1 -5.75053 -4.7572 -13.7507 17
616 1 2.88935 14.4925 -1.91775 15
617 1 -3.25672 -7.19514 5.09502 19
618 1 -18.7148 1.18486 0.486039 10
619 1 14.4157 4.35392 -3.74666 8
620 1 4.45964 -5.01631 -14.6776 14
621 1 -12.2134 12.562 2.39054 9
622 1 -0.510164 3.16792 -17.6635 10
623 1 5.44832 -5.1076 -7.05065 21
624 1 -12.5058 1.36858 -1.13558 20
625 1 3.72013 7.24378 0.838638 20
626 1 -14.2359 -8.28169 -0.663278 17
627 1 5.94762 3.12797 10.8585 12
628 1 -11.6385 -4.93398 -7.19714 19
629 1 -14.2277 9.4335 2.13958 12
630 1 -5.15135 3.63833 -9.39409 18
631 1 11.6293 -8.1406 -12.2693 6
632 1 -16.1812 -9.19593 -6.67322 8
633 1 5.99294 -11.8244 -7.43266 16
634 1 -15.4994 0.952739 1.31582 19
635 1 -8.89112 -4.25465 -5.22942 19
636 1 -7.53495 -6.40403 4.87626 16
637 1 11.6376 -2.95701 3.12576 12
638 1 4.58377 -3.83314 1.86637 20
639 1 -12.8692 3.29145 3.17265 20
640 1 -2.8516 8.39395 9.20862 19
641 1 4.65602 10.0603 -11.7838 10
642 1 -7.99049 12.4157 4.83392 14
643 1 8.03111 11.4382 -4.28621 11
644 1 -1.93261 6.00276 14.1653 14
645 1 1.85615 -3.72274 4.09111 21
646 1 0.977003 12.4331 -8.52515 15
647 1 -7.44787 -3.9655 12.1531 21
648 1 -9.01097 -7.41039 -10.0766 19
649 1 -15.1161 3.86341 -4.13153 17
650 1 -4.99226 -12.6657 3.76575 17
651 1 1.93518 -3.94484 10.1885 13
652 1 -3.71437 -12.7894 -8.06637 13
653 1 -17.3876 3.99572 -1.37264 14
654 1 9.82101 -2.97174 -9.0557 21
655 1 -13.4772 6.6576 0.81772 18
656 1 -10.1995 3.48664 8.58919 19
657 1 -3.73302 -7.82535 -13.9033 13
658 1 -1.66926 -11.6319 -3.19473 19
659 1 5.88008 -12.8615 -4.18448 19
660 1 -1.06726 8.58058 -15.0328 10
661 1 15.117 3.02969 -7.08821 9
662 1 6.36924 6.1433 2.78405 21
663 1 9.84761 -4.15107 -5.46641 19
664 1 -1.10654 6.01279 -17.2521 12
665 1 -2.02968 -10.7056 4.91401 17
666 1 4.38064 10.6134 -3.10774 18
667 1 2.08206 1.60486 -11.7361 20
668 1 -14.5069 4.76547 -1.53945 21
669 1 -0.815931 9.25629 -2.56236 21
670 1 -14.4713 -6.98121 8.94688 9
671 1 2.2573 10.2551 2.61471 21
672 1 0.459941 -13.2268 0.60109 22
673 1 6.71751 11.7807 -7.01725 11
674 1 -8.64157 8.85008 9.6519 13
675 1 -12.3451 0.748638 11.8925 10
676 1 4.38267 0.775749 -4.02378 23
677 1 -3.52913 -9.75709 11.6931 12
678 1 6.0587 -10.8461 5.46394 11
679 1 -5.74542 -1.13562 4.25233 21
680 1 9.01588 1.24029 9.76249 9
681 1 2.55475 -8.19656 -9.74397 18
682 1 -12.7106 -0.164066 -13.6609 13
683 1 -10.3903 4.30039 -14.6721 9
684 1 -18.2225 0.282503 -3.63452 13
685 1 0.591833 15.6783 0.553024 15
686 1 -5.04085 6.76109 4.10742 20
687 1 -13.8353 -10.5389 -8.61509 10
688 1 -6.17397 6.74474 -1.11292 20
689 1 9.79569 2.38273 6.59178 12
690 1 -7.52875 -10.7783 -0.99636 19
691 1 14.5999 -2.9661 -8.27716 12
692 1 6.14806 -10.9939 -1.75281 21
693 1 -0.999949 -2.35347 -12.3161 22
694 1 -1.73474 0.523346 -16.6025 15
695 1 -8.56912 -7.82664 -0.955811 19
696 1 -8.70219 4.71729 -4.61835 18
697 1 -8.17038 3.92195 13.0648 13
698 1 6.51457 -2.34054 7.1125 16
699 1 -11.7787 -8.06029 6.85199 15
700 1 5.5661 -1.92317 -1.87773 19
701 1 -5.81656 6.16341 -11.4661 18
702 1 11.6606 6.65361 1.01081 13
703 2 -11.62 2.92828 -14.8357 10
704 2 -11.4509 10.5436 -10.0817 10
705 2 -0.768816 -1.56231 -10.7265 19
706 2 -3.74602 6.08273 8.87657 21
707 2 -9.69796 -5.35603 -6.70804 21
708 2 -2.18384 1.35389 11.3508 14
709 2 -15.2457 -8.20872 0.742883 13
710 2 -17.9207 2.13466 -4.45207 14
711 2 -2.65402 13.6298 3.77783 17
712 2 -15.849 -3.22833 6.07221 13
713 2 5.374 2.05795 1.11273 20
714 2 -6.02989 -1.31026 -7.47169 20
715 2 -16.126 -4.64833 -8.01746 16
716 2 -11.1956 1.89965 -6.24535 15
717 2 -5.89385 -11.1846 4.97398 18
718 2 2.29978 3.10881 8.39351 22
719 2 5.50601 -3.67054 -10.043 20
720 2 -3.16797 -12.017 -6.41675 15
721 2 2.67544 0.461228 2.40693 22
722 2 -11.6283 10.9357 -4.09433 15
723 2 -16.3261 -0.0448206 -2.88833 17
724 2 12.0661 -1.24775 3.99844 9
725 2 7.23405 -12.0345 -5.51576 17
726 2 -5.21415 -8.93704 3.31701 22
727 2 -11.3367 -1.65221 2.78897 22
728 2 -6.57751 -15.0764 0.674742 11
729 2 9.91308 -7.22718 3.04778 12
730 2 2.47852 -11.1083 -9.87861 12
731 2 3.01197 -1.70108 10.6892 13
732 2 -0.223349 11.0373 -9.81053 13
733 2 -14.148 -11.0197 -2.59331 13
734 2 -1.05688 2.55803 13.8864 15
735 2 -11.6377 7.25307 1.74812 17
736 2 -3.21629 4.43302 10.9921 18
737 2 -10.1416 9.23435 -5.88737 18
738 2 2.43238 -14.0278 3.08635 14
739 2 -6.73621 5.87564 8.30781 19
740 2 -3.02011 12.4822 -7.24964 14
741 2 6.13813 -7.02804 -4.20006 19
742 2 -5.5648 -1.877 -10.6589 18
743 2 -0.467139 -4.02757 -9.01572 21
744 2 7.83764 -1.41477 -5.86741 18
745 2 -5.80993 6.53137 13.6519 12
746 2 -1.99168 2.14954 -17.5664 12
747 2 -15.0599 5.67194 -10.8317 15
748 2 8.32925 9.86676 -0.974342 14
749 2 -3.81287 -8.40641 13.1882 11
750 2 -13.661 8.62559 -2.99216 14
751 2 8.44133 1.02072 -8.0064 14
752 2 -2.53282 -8.90044 -12.6331 15
753 2 -14.0719 1.83318 5.53416 20
754 2 5.43899 8.34769 -1.59929 20
755 2 -7.60415 14.1799 0.694156 12
756 2 -9.06113 -11.8464 -9.0842 11
757 2 -7.76027 11.3091 3.0976 18
758 2 2.19106 -10.6596 11.7726 4
759 2 4.72987 -7.12902 1.47917 16
760 2 -14.1798 -0.193241 2.57609 24
761 2 5.58112 -10.9285 -3.45379 16
762 2 5.97065 -11.0843 -9.28679 13
763 2 5.51713 6.11154 1.02056 20
764 2 4.13172 -12.9986 0.424342 21
765 2 7.45674 -8.10914 2.14948 16
766 2 -8.43744 -3.08872 10.3173 16
767 2 7.51208 -4.86438 -6.23527 21
768 2 -1.05865 6.58146 7.24367 20
769 2 7.75144 2.54944 10.1607 8
770 2 -8.7874 11.3027 6.10304 14
771 2 4.27908 11.1174 -1.22606 19
772 2 11.7933 -6.92348 -3.07819 13
773 2 3.08219 6.06307 -3.72519 20
774 2 -13.9561 1.19818 -12.6987 14
775 2 -9.74944 4.72648 12.6055 12
776 2 2.36175 0.494621 -10.0927 20
777 2 -12.7331 3.91563 -11.0598 18
778 2 -17.3395 2.54931 5.53656 11
779 2 -15.8381 -9.42361 -4.70157 12
780 2 11.2306 1.59208 2.54223 15
781 2 -4.91506 -7.89146 6.61807 18
782 2 -4.59557 -2.41061 15.3455 11
783 2 7.0921 -1.83006 -11.716 16
784 2 1.89377 2.67336 14.0754 11
785 2 -4.79562 8.73018 8.94648 19
786 2 -12.9381 4.439 1.30186 18
787 2 -1.48063 -8.95398 -8.99475 17
788 2 9.87024 -2.8433 -7.12911 16
789 2 -13.2666 10.9029 1.35293 11
790 2 -4.13991 -8.54739 -2.14489 18
791 2 8.73338 -10.7331 -7.38879 13
792 2 2.46232 -2.29341 -5.61438 22
793 2 0.81575 9.29501 8.50441 22
794 2 3.97879 -12.3239 -7.40663 13
795 2 1.67354 -2.06619 7.08771 18
796 2 -4.5482 -6.09229 4.10027 18
797 2 10.2557 0.278862 -0.124516 15
798 2 -9.72916 -8.7482 8.07719 15
799 2 6.89122 10.0041 -6.63756 14
800 2 -3.65015 -9.45758 1.17888 19
801 2 11.5023 -8.2651 -5.18892 13
802 2 1.50073 -14.1708 -6.48294 11
803 2 5.60561 -9.81099 -6.80929 19
804 2 -14.4753 8.41666 0.524642 13
805 2 13.0971 1.69344 -10.4216 10
806 2 -8.66558 -9.03948 -11.2465 13
807 2 -11.3395 -6.33862 6.33516 17
808 2 -5.12415 -11.696 -4.086 19
809 2 -7.35097 -10.1351 -3.17379 20
810 2 -10.8143 12.7538 1.13712 15
811 2 -16.7244 7.76139 -1.48412 12
812 2 2.2918 0.614377 -6.97738 22
813 2 6.01901 5.30672 -2.34686 23
814 2 -0.823227 4.1838 -10.584 19
815 2 -11.2763 1.76616 7.8935 18
816 2 -0.25413 -0.31452 -17.4337 14
817 2 -14.2103 0.603519 -0.29718 18
818 2 -6.37783 1.72689 7.87836 19
819 2 -14.5086 9.43858 3.89728 8
820 2 -7.9772 3.29206 -6.37019 19
821 2 2.4001 12.0464 5.9727 20
822 2 4.72309 2.1462 -6.00823 18
823 2 8.36212 -8.33772 -5.35349 19
824 2 -11.1363 -0.641243 12.3494 8
825 2 5.56295 0.448039 -2.2695 21
826 2 -5.69899 7.80502 0.502272 23
827 2 -16.412 4.2568 -8.8222 15
828 2 -8.52379 3.46525 9.49194 17
829 2 7.26854 -1.57716 5.55135 16
830 2 -11.206 -6.61271 -11.5483 15
831 2 3.9961 2.24556 -14.31 14
832 2 8.30901 7.23169 -3.06099 21
833 2 -13.0878 -5.58726 9.54431 15
834 2 -0.152064 7.30569 -2.45864 21
835 2 -4.8555 10.5766 -8.68222 17
836 2 -3.88474 9.51215 -5.83444 16
837 2 9.90289 -1.83994 6.27164 13
838 2 -0.376672 3.8569 9.12808 17
839 2 11.5875 -6.51098 -11.3165 11
840 2 -7.63966 -3.6503 15.4127 10
841 2 -3.8491 -3.50137 6.35702 20
842 2 -15.5652 3.26303 -2.53434 16
843 2 -8.49643 -7.11197 -13.1563 18
844 2 5.35205 -10.1819 -0.0469814 17
845 2 1.06262 -2.85779 -12.036 20
846 2 12.6351 5.13167 0.200113 10
847 2 -5.11671 7.1418 11.2652 18
848 2 3.24501 3.02845 -11.5897 19
849 2 -5.84907 -6.26925 14.8855 14
850 2 -7.24887 -1.76776 -14.5852 16
851 2 0.861195 -8.26639 -1.64224 19
852 2 -3.86235 -8.41265 -6.08533 21
853 2 2.66622 -13.601 -2.71234 20
854 2 8.89225 9.77648 -4.26391 12
855 2 -8.68592 3.63648 -14.6518 10
856 2 -6.02604 13.118 4.75193 14
857 2 -12.2547 -9.86437 -5.09505 16
858 2 -10.9644 0.516777 -13.412 13
859 2 7.98519 6.84214 -8.31154 16
860 2 -8.28049 15.556 -3.72134 13
861 2 -9.07766 -12.7667 2.03446 13
862 2 11.8077 -1.87715 1.22509 13
863 2 -3.31557 4.78301 14.2419 14
864 2 -11.034 -12.2335 -3.69503 12
865 2 0.379861 -8.27929 -5.13806 20
866 2 -2.43924 -0.44506 14.9274 12