ITEM: TIMESTEP
52000
ITEM: NUMBER OF ATOMS
500
ITEM: BOX BOUNDS pp pp pp
-30.0 30.0
-30.0 30.0
-30.0 30.0
ITEM: ATOMS id type x y z Coordination
1 1 -0.195899 4.8438 1.84254 8
2 1 -5.43099 12.1065 1.07401 14
3 1 -13.0797 8.9658 -3.79846 22
4 1 -9.54123 5.53396 -19.3119 11
5 1 -14.9338 5.82613 -10.8559 14
6 1 -5.80653 6.50572 -16.867 23
7 1 -1.26897 0.324374 -14.9301 14
8 1 -4.74624 10.2938 -1.09627 21
9 1 -4.6743 11.55 -14.6401 21
10 1 -8.48929 15.0247 0.860153 11
11 1 -15.5584 4.47734 -6.8085 12
12 1 1.3695 1.84896 -14.6618 10
13 1 -4.75617 5.71173 1.83252 12
14 1 -13.0002 0.637468 -9.14529 12
15 1 -8.8901 2.652 -14.1936 21
16 1 -1.7988 5.42156 -13.929 23
17 1 -2.17675 4.83864 -0.365301 17
18 1 -10.1734 17.2293 -4.76479 14
19 1 -8.53951 15.6928 -7.18665 16
20 1 -7.06804 0.643633 -16.0071 12
21 1 -8.06527 10.2057 -0.773123 24
22 1 0.4704 3.66025 -3.90326 16
23 1 -12.8827 13.603 -1.22486 13
24 1 -6.89691 7.45548 -20.0029 13
25 1 -0.0457853 13.6516 -7.63943 20
26 1 -7.47565 14.6323 -15.6346 13
27 1 -12.5134 11.4963 -14.4303 14
28 1 -10.2508 14.8267 -9.99192 18
29 1 -5.24703 15.2961 -7.132 16
30 1 -16.5596 8.68702 -9.13751 9
31 1 -6.81453 13.134 -0.911375 17
32 1 -12.1985 7.83947 -17.9969 12
33 1 -11.2091 0.0440471 -3.846 15
34 1 -1.10647 0.917111 -9.10039 19
35 1 -15.4816 6.7793 -3.66359 18
36 1 -13.536 6.51737 -12.7618 19
37 1 -6.23536 -2.21856 -4.27511 13
38 1 -1.83289 9.68112 -17.3407 14
39 1 -11.8292 -0.972697 -14.7489 7
40 1 -5.39165 9.93479 -17.4016 22
41 1 -6.7454 14.701 -10.0363 17
42 1 -16.2648 8.11468 -0.710372 10
43 1 -8.12739 16.8279 -1.70651 11
44 1 -2.93146 7.46828 -1.29249 16
45 1 -0.839049 -1.68858 -10.5994 13
46 1 0.758205 11.2286 -15.72 12
47 1 -9.11543 -0.840539 -5.66766 20
48 1 0.253203 8.54442 0.876454 12
49 1 -3.37572 1.64749 -1.44515 12
50 1 -0.938701 17.1651 -9.21625 11
51 1 -12.6954 -1.22332 -6.85406 10
52 1 -0.569738 -1.1624 -6.45356 16
53 1 -9.90813 7.14297 -1.92502 20
54 1 -12.8854 7.44329 -0.963828 21
55 1 -4.10639 -2.34073 -10.5354 13
56 1 -16.2748 3.45218 -3.991 9
57 1 -9.90287 12.8332 -1.81647 21
58 1 -14.364 10.6361 -0.775587 16
59 1 -8.64172 11.3548 1.83571 12
60 1 -12.2119 2.46061 -15.0999 16
61 1 -13.4377 8.42264 -9.87725 19
62 1 -12.2135 4.67985 -18.3268 11
63 1 1.87031 8.93326 -2.004 13
64 1 -6.6252 2.98152 1.59772 13
65 1 -14.1326 5.40978 -16.5855 13
66 1 -15.3727 2.79605 -11.1056 10
67 1 -6.41035 -2.0509 -8.08242 15
68 1 -10.9532 12.1312 -4.82783 20
69 1 -4.70125 0.485134 -14.0857 19
70 1 -11.0322 16.0585 -1.81714 13
71 1 -15.2766 11.4476 -9.19929 12
72 1 -10.5363 13.5791 -15.6776 11
73 1 -2.6689 -2.47187 -13.3285 13
74 1 -1.51083 1.5513 -3.22492 15
75 1 -14.149 10.8496 -12.3042 13
76 1 -11.2389 6.29753 1.65587 12
77 1 -11.1925 10.281 -1.72146 24
78 1 -3.19089 2.99429 -14.3974 20
79 1 -8.65796 0.0866064 0.79993 9
80 1 0.903385 1.26879 -11.4926 16
81 1 3.25265 7.61893 -7.15662 15
82 1 -3.98418 7.67593 -19.2794 11
83 1 -4.20516 -1.29985 -6.0015 13
84 1 -10.2917 -2.08726 -9.21826 12
85 1 -12.6565 3.04849 -3.39443 18
86 1 -1.58093 10.4243 -1.61205 17
87 1 1.49502 10.5344 -7.26872 19
88 1 -7.52359 11.3134 -19.4152 10
89 1 -5.30928 13.1632 -17.1414 13
90 1 -6.60188 17.1392 -4.84538 14
91 1 0.297597 8.31812 -14.8365 18
92 1 2.32485 -0.631689 -6.56419 10
93 1 0.650804 1.96842 -6.35875 20
94 1 -4.76862 0.555848 -3.56103 20
95 1 -13.5193 8.53963 -15.2631 15
96 1 2.0827 6.66808 -9.73442 16
97 1 -8.77722 15.0241 -12.7744 15
98 1 0.775802 -1.49331 -13.1112 11
99 1 -14.7733 4.79768 -1.02586 11
100 1 -6.16371 -2.48996 -13.0756 15
101 1 -4.49395 6.16328 -14.2524 22
102 1 -2.5172 -1.57319 -3.74052 13
103 1 -4.70077 -2.0503 -15.9511 8
104 1 -7.78089 6.091 0.794545 18
105 1 -9.87095 8.95563 0.721445 17
106 1 -2.04237 6.55603 -16.568 17
107 1 -13.1793 13.1007 -6.66498 16
108 1 -3.35094 14.955 -9.87549 19
109 1 1.51298 10.3026 -12.9331 15
110 1 -8.77533 8.64021 -17.9814 20
111 1 -16.8159 9.85394 -3.22509 10
112 1 -4.95254 4.65116 -0.999858 21
113 1 -16.2278 6.11771 -14.2637 8
114 1 2.15195 4.73525 -6.91718 12
115 1 -2.67972 10.0355 1.61968 13
116 1 -6.28171 -0.145997 -0.273859 9
117 1 3.45485 9.85763 -4.62196 11
118 1 1.87769 13.409 -5.57029 11
119 1 -4.00246 1.7142 -16.7227 16
120 1 -5.68616 15.7282 -1.84194 12
121 1 -8.12597 11.355 -16.3899 19
122 1 -8.72767 -0.774966 -13.3967 15
123 1 -1.5886 12.5562 -4.16383 21
124 1 -14.332 11.7864 -3.5423 18
125 1 0.205216 14.8358 -10.9267 14
126 1 -6.13478 8.83121 1.57248 16
127 1 -6.37806 4.74154 -20.0298 12
128 1 3.36129 1.14176 -8.63203 9
129 1 -3.64315 15.2118 -4.43295 16
130 1 -12.5259 14.7626 -4.21796 13
131 1 -0.916094 3.34378 -16.7387 13
132 1 -1.99179 6.75732 2.76536 8
133 1 -11.3543 12.1165 0.947913 12
134 1 0.797122 5.71222 -1.22284 14
135 1 -5.24517 14.4753 -12.8114 20
136 1 1.77745 12.3988 -10.0545 14
137 1 -9.64502 3.26518 1.40318 13
138 1 -8.1894 4.42151 -1.23044 20
139 1 -11.8498 16.1012 -7.23109 12
140 1 -0.26949 15.2555 -4.79518 14
141 1 -13.6638 1.73857 -5.92565 14
142 1 2.07401 6.63484 -4.16907 16
143 1 -9.81209 -3.36487 -12.7202 8
144 1 0.841592 12.0601 -2.89133 12
145 1 1.30123 4.4249 -12.7927 16
146 1 -1.85162 17.3381 -6.25972 9
147 1 -14.7819 3.66882 -14.1014 15
148 1 -3.96767 14.8081 -15.1754 12
149 1 -11.1941 5.05458 -15.2519 19
150 1 -3.94529 4.44807 -18.2403 15
151 1 -7.58974 -1.44544 -10.7083 19
152 1 -8.95604 -1.61013 -2.2168 11
153 1 1.67456 -1.86079 -9.48012 12
154 1 -16.7996 7.92743 -6.11646 13
155 1 -11.0045 10.3761 -17.0962 13
156 1 -13.4355 1.26128 -12.6436 10
157 1 -0.025454 9.51624 -4.67542 21
158 1 -9.97875 2.66965 -17.4942 13
159 1 -12.4716 9.52518 1.69916 11
160 1 -11.5914 4.18074 -0.936621 16
161 1 1.28537 16.4027 -7.65797 10
162 1 3.35306 9.40692 -10.4885 14
163 1 -10.6419 1.51577 -1.05267 17
164 1 -1.71189 12.5209 -15.7215 13
165 1 0.76776 13.2893 -13.2349 11
166 1 -3.57977 13.3958 -1.83999 12
167 1 -2.03159 15.8442 -12.6043 12
168 1 2.94829 7.10501 -13.1127 13
169 1 0.983097 5.48153 -15.4535 15
170 1 -8.53314 14.225 -4.50689 20
171 1 -12.978 13.9657 -9.72184 16
172 1 -7.85978 0.667082 -3.62269 22
173 1 0.74881 -0.138765 -3.48107 9
174 1 -13.3079 3.30868 -9.14887 15
175 1 -12.2185 14.5278 -12.9008 11
176 2 -16.465 8.21193 -4.22594 14
177 2 2.51873 11.7069 -3.98628 11
178 2 -15.1539 7.23228 -9.5247 14
179 2 -7.86899 -1.22894 -3.96026 15
180 2 -6.14449 6.95496 1.41646 13
181 2 -9.5243 13.3867 1.16578 11
182 2 -0.269061 1.79245 -15.4181 12
183 2 -13.3239 6.30093 -18.0009 11
184 2 -5.62488 2.18709 -16.0577 17
185 2 -12.5579 15.2592 -2.32105 12
186 2 0.150661 1.86746 -4.04571 15
187 2 0.524587 15.9728 -9.44674 10
188 2 -9.66588 16.0465 -0.255087 8
189 2 -0.407706 17.0611 -7.16477 10
190 2 -3.72619 12.9197 -15.8946 14
191 2 1.18769 6.77835 -14.0981 16
192 2 -14.5478 7.13797 -14.4674 15
193 2 -7.86157 -1.06464 -0.686009 10
194 2 -13.5994 6.89318 -4.05741 18
195 2 -3.11247 1.1642 -14.7462 18
196 2 -2.55933 -1.94017 -11.5648 15
197 2 -4.84618 12.343 -0.817479 16
198 2 -5.28384 4.12828 1.0306 14
199 2 -10.9487 -1.19395 -5.60579 13
200 2 -4.72021 -1.53414 -9.15115 14
201 2 -13.5679 0.585112 -7.37633 11
202 2 -8.12002 -1.54629 -8.78728 16
203 2 -9.89583 -2.63612 -10.9804 11
204 2 -11.5826 16.0586 -5.30637 15
205 2 -0.815566 11.0893 -16.7297 11
206 2 0.223962 13.3602 -9.68567 19
207 2 -6.30336 11.6274 -17.9041 18
208 2 2.87528 8.48232 -3.5423 12
209 2 -8.41739 16.4385 -5.21641 16
210 2 -13.0426 12.9992 -4.38731 16
211 2 -4.90868 14.6463 -10.9918 16
212 2 -0.441457 14.5339 -12.5749 15
213 2 -8.21336 11.9632 -1.6237 22
214 2 -6.4343 3.77797 -1.78054 21
215 2 -2.76219 3.35224 -17.0259 14
216 2 -6.13939 1.78384 -9.15735 22
217 2 -4.31917 4.41085 -14.5759 23
218 2 -10.2047 -1.71696 -14.1675 8
219 2 0.908873 -2.02232 -11.1667 11
220 2 -1.94812 16.2799 -4.97502 12
221 2 -10.4965 3.99839 -18.6229 12
222 2 -5.26895 6.32069 -19.8435 12
223 2 -8.34925 1.6723 -17.2489 11
224 2 -4.87204 0.547711 -12.1251 22
225 2 1.57686 9.69367 -14.9822 11
226 2 -12.5085 1.37178 -4.31196 17
227 2 -7.85985 5.84673 -19.8448 13
228 2 -5.21983 -0.27704 -15.7585 11
229 2 -5.75064 3.77152 -18.4707 12
230 2 -9.88428 13.3553 -3.68699 19
231 2 -11.7362 -0.813665 -8.62875 12
232 2 -12.5277 14.4828 -7.993 16
233 2 -15.7963 4.60476 -2.55816 9
234 2 -14.7709 4.20333 -9.85633 13
235 2 -3.29198 1.85379 -3.59031 17
236 2 2.08311 6.16517 -11.7216 16
237 2 -3.12066 13.4969 -4.96215 19
238 2 -10.8309 4.59541 0.827297 16
239 2 -15.5714 10.57 -4.4948 14
240 2 -15.1833 5.35593 -12.7719 14
241 2 1.43771 10.7847 -9.35592 18
242 2 -16.0314 6.18901 -6.40217 13
243 2 -9.18208 10.5691 -18.0408 14
244 2 -3.39937 9.24289 -18.277 13
245 2 -14.5199 12.0161 -7.47536 16
246 2 1.32757 0.434584 -13.4233 11
247 2 0.859084 -0.840057 -5.17507 13
248 2 -11.3652 12.3094 -1.02366 20
249 2 -2.41376 -1.41732 -5.77615 12
250 2 -4.31922 15.0658 -2.56706 14
251 2 -6.82307 15.0011 -8.16672 20
252 2 -13.1669 3.70461 -1.63652 14
253 2 -8.67876 13.1382 -16.0707 16
254 2 0.34566 3.27868 -11.4851 17
255 2 -6.51658 9.51836 -1.66726 21
256 2 1.1779 12.2448 -6.90633 18
257 2 0.373265 13.3243 -4.31768 14
258 2 -13.9811 1.55968 -10.6164 12
259 2 -7.37616 15.0623 -0.780875 16
260 2 1.07354 7.62746 -0.712129 13
261 2 -6.71376 7.99045 -17.9212 23
262 2 -7.83755 9.59651 1.35911 15
263 2 -3.50662 3.55916 -1.56705 19
264 2 -12.592 7.34819 -11.3795 20
265 2 -13.3621 9.71231 -13.7764 13
266 2 -12.3573 12.488 -12.9818 16
267 2 -9.85592 3.11332 -1.92412 21
268 2 -5.02157 16.2841 -5.34471 15
269 2 -12.3879 0.740332 -14.0878 13
270 2 1.96502 6.35839 -6.15986 16
271 2 -11.9906 14.8734 -11.1437 13
272 2 2.16799 4.68883 -9.11969 15
273 2 -9.85469 1.40341 -4.73415 19
274 2 -8.50005 0.762226 -14.4177 19
275 2 -7.13788 14.8003 -13.5261 14
276 2 -14.0826 12.4093 -1.70879 13
277 2 -7.00877 1.2364 1.08351 10
278 2 -16.0624 9.92703 -1.38481 12
279 2 -7.30621 12.3938 0.899267 16
280 2 -13.8051 12.2492 -10.1509 16
281 2 -1.96356 16.2927 -10.6066 12
282 2 -10.61 10.5305 1.46996 14
283 2 -7.98923 4.19161 0.810143 16
284 2 -12.7238 4.27249 -16.4927 15
285 2 -6.52894 11.8157 -15.0562 20
286 2 -9.75556 2.78315 -11.9846 21
287 2 -1.6618 6.05411 -1.68087 18
288 2 2.97892 9.36357 -6.6413 15
289 2 -1.3101 -0.295178 -3.12829 12
290 2 0.00964031 9.11392 -12.8438 21
291 2 -4.88993 10.1434 1.01899 13
292 2 -9.35643 7.06846 1.19727 18
293 2 -12.869 3.14848 -13.1824 18
294 2 -9.08935 13.9712 -6.43393 19
295 2 -12.7799 9.22882 -1.91205 19
296 2 -15.3297 2.65334 -5.59872 9
297 2 -5.99838 -2.03964 -11.2653 16
298 2 -2.59356 8.58632 2.73317 9
299 2 -11.4798 11.9575 -16.084 11
300 2 0.26588 12.873 -14.9177 10
301 2 -1.08007 -1.52591 -13.7936 12
302 2 -0.159777 4.38814 0.0386925 9
303 2 -2.09039 12.1526 -2.13466 14
304 2 -5.59417 14.8084 -16.159 11
305 2 -7.74449 4.21749 -13.9566 21
306 2 -9.78594 17.3789 -2.90788 11
307 2 -8.66553 14.832 -10.9225 17
308 2 -12.1099 10.2818 -11.5171 18
309 2 -13.4254 10.8333 0.79199 12
310 2 -7.60393 9.37254 -20.1368 10
311 2 -0.737424 5.1717 -16.0256 17
312 2 -10.2208 14.0135 -13.8052 15
313 2 -10.1547 7.28156 -18.1564 19
314 2 -0.155612 6.82766 2.05047 10
315 2 -12.3155 7.7747 1.14529 14
316 2 -14.7964 6.76451 -1.02105 14
317 2 -4.86559 0.636428 -1.07263 12
318 2 -15.7807 9.32039 -7.35296 13
319 2 -9.81711 1.49141 0.834243 12
320 2 -4.55802 -1.45159 -3.97909 13
321 2 -1.41077 9.83155 0.212157 12
322 2 -0.811425 0.372712 -11.164 18
323 2 -10.2844 15.7972 -8.09989 14
324 2 -15.7058 4.65029 -15.308 10
325 2 -11.7436 6.16878 -1.83625 20
326 2 -2.76915 6.07076 1.21882 16
327 2 -1.12605 8.51096 -16.124 17
328 2 0.757891 15.0087 -6.359 12
329 2 1.13681 5.32792 -2.99087 14
330 2 1.53526 3.84338 -14.6738 12
331 2 2.36887 1.26088 -7.06279 13
332 2 1.40809 12.061 -11.9817 16
333 2 -15.4582 2.00639 -12.9404 10
334 2 -13.5054 3.71232 -7.17655 16
335 2 -3.14289 1.28381 -9.37877 22
336 2 -3.34494 14.6421 -13.223 16
337 2 3.00514 8.11841 -9.03295 14
338 2 -2.61564 11.1683 -13.8251 19
339 2 2.68262 -0.809132 -8.38089 10
340 2 -1.19371 1.33026 -7.01352 18
341 2 -4.71733 -2.22587 -14.054 12
342 2 -3.52901 14.9514 -8.01981 20
343 2 -6.76603 16.8819 -2.98859 11
344 2 -6.06843 -2.31061 -6.24304 12
345 2 -10.3478 -0.167438 -1.98068 14
346 2 0.511348 10.2287 -2.54278 16
347 2 3.01943 9.15227 -12.3643 14
348 2 -12.1744 8.94871 -16.5059 16
349 2 -7.97118 -3.07149 -13.2924 9
350 2 1.87831 1.54201 -9.88641 15
351 1 -9.73617 1.13339 -11.0978 19
352 1 -11.3651 3.93331 -11.9505 20
353 1 -6.86067 3.21365 -17.2495 18
354 1 -8.27752 5.57048 -15.2438 21
355 1 -6.41085 1.17414 -11.7 21
356 1 -7.98646 4.09066 -11.6414 23
357 2 -9.51261 1.42716 -8.92921 19
358 2 -11.4257 4.27086 -10.0224 22
359 2 -11.8237 5.61273 -13.4443 23
360 2 -10.367 3.2174 -15.4359 18
361 2 -7.31884 5.29759 -17.1319 22
362 2 -8.02074 0.137406 -11.8107 19
363 2 -8.13868 4.39615 -9.5929 22
364 2 -8.31216 6.08961 -11.7243 22
365 2 -6.24662 3.00146 -12.0959 22
366 1 -11.5176 6.12454 -10.1768 21
367 1 -9.97671 3.35978 -9.15374 17
368 1 -9.991 1.67583 -6.6295 22
369 1 -11.7096 4.2897 -6.40349 20
370 1 -11.7135 6.03174 -4.0789 20
371 1 -9.80999 3.251 -3.93845 21
372 1 -7.90961 0.485853 -8.77513 18
373 1 -8.24305 6.37939 -9.64608 20
374 1 -6.36011 3.55476 -8.9686 21
375 1 -6.33043 1.50815 -6.33602 24
376 1 -8.30416 4.53396 -6.76026 21
377 1 -8.34347 6.38769 -4.57183 22
378 1 -6.63833 3.64175 -3.76176 21
379 2 -11.502 4.26976 -4.38245 21
380 2 -11.6798 6.32387 -6.62094 19
381 2 -10.0489 3.63329 -7.25169 18
382 2 -7.95105 0.480404 -6.61546 19
383 2 -6.35984 1.68809 -4.42751 20
384 2 -8.3674 4.16703 -4.79116 23
385 2 -8.24417 6.59761 -6.58994 20
386 2 -6.56558 3.45716 -6.98562 21
387 2 -8.2395 6.35996 -1.47642 22
388 1 -9.652 8.42007 -15.1194 19
389 1 -9.89414 6.6606 -12.8826 21
390 1 -12.0802 8.95637 -12.8648 22
391 1 -10.5842 12.4619 -12.3724 21
392 1 -6.7221 9.01682 -15.0703 21
393 1 -6.53742 6.74107 -11.956 23
394 1 -8.73102 9.45058 -12.1629 20
395 1 -7.29675 11.8156 -13.2861 20
396 2 -15.1199 9.93927 -10.4254 13
397 2 -9.8675 6.54191 -15.2651 16
398 2 -10.0667 7.14468 -9.44157 19
399 2 -11.9668 9.76621 -8.97923 22
400 2 -10.1346 8.5705 -13.3394 19
401 2 -10.2824 12.9074 -9.90227 24
402 2 -5.86598 7.11912 -14.9584 20
403 2 -8.27731 9.49877 -15.8775 21
404 2 -6.57374 7.13079 -9.89403 24
405 2 -8.51196 9.60631 -9.98853 22
406 2 -9.14036 11.3169 -12.1619 19
407 2 -6.78141 8.96547 -12.789 23
408 2 -6.63218 12.5515 -9.99484 18
409 1 -14.7267 10.3285 -6.18751 18
410 1 -13.4201 6.99171 -6.50799 21
411 1 -11.9236 11.3918 -9.85287 24
412 1 -10.2692 8.9955 -9.65742 22
413 1 -10.0386 6.96421 -7.18028 19
414 1 -11.8081 9.9987 -6.94883 20
415 1 -9.80706 9.07337 -4.60868 21
416 1 -10.1306 12.8123 -7.88851 21
417 1 -8.42956 11.8872 -9.97302 21
418 1 -6.96126 9.0872 -9.28148 22
419 1 -6.44299 7.49697 -6.46055 23
420 1 -8.06258 10.0757 -6.62252 24
421 1 -7.95854 11.8805 -3.73676 17
422 1 -6.41206 9.48879 -4.10981 20
423 1 -6.38522 7.43708 -1.54658 20
424 1 -6.71525 13.0567 -7.76652 19
425 2 -13.3839 8.73605 -5.86166 20
426 2 -9.94377 7.00741 -3.81129 19
427 2 -11.3432 10.34 -4.09215 19
428 2 -11.4647 11.822 -6.82498 20
429 2 -9.95422 8.83978 -6.7214 22
430 2 -6.38877 7.52093 -4.42826 23
431 2 -8.33715 10.3283 -4.50553 24
432 2 -8.30403 11.5818 -7.87717 19
433 2 -6.32964 9.18906 -7.19057 21
434 2 -9.66681 9.04932 -1.29113 21
435 2 -6.79637 13.1629 -4.66527 24
436 1 -5.99082 3.41559 -14.2583 22
437 1 -3.01761 1.15155 -11.6024 22
438 1 -4.81315 4.28828 -11.358 27
439 1 -1.58683 3.89546 -11.3691 21
440 2 -3.55458 6.44075 -17.7764 20
441 2 -0.353293 -0.985947 -8.58573 17
442 2 -4.81544 4.66814 -9.5191 22
443 2 -4.64461 5.9969 -12.1991 24
444 2 -3.08395 2.98647 -12.2379 20
445 2 -1.70862 4.18791 -9.56606 20
446 2 -1.23169 5.73283 -12.1233 20
447 1 -4.82934 0.515491 -8.96992 21
448 1 -4.81228 6.5453 -9.08656 23
449 1 -3.21888 3.27833 -8.94893 21
450 1 -2.77545 1.46357 -6.10399 23
451 1 -4.825 4.43922 -6.35101 24
452 1 -4.85017 6.38549 -3.84963 22
453 1 -3.18552 3.9969 -3.36951 21
454 1 -1.15898 6.2763 -9.30163 19
455 1 0.874604 3.35332 -9.56174 18
456 1 -1.33701 4.70657 -6.34093 22
457 1 -1.31797 6.54263 -3.83858 20
458 2 -4.63829 0.719959 -6.12479 21
459 2 -5.10926 4.50188 -4.23237 20
460 2 -4.9242 6.2813 -7.09691 21
461 2 -2.932 3.34447 -6.83489 20
462 2 -4.65967 6.57354 -1.79454 22
463 2 -1.64373 4.62756 -4.1879 22
464 2 -1.68688 6.38504 -7.18172 20
465 2 0.656532 4.02767 -6.33259 17
466 1 -3.15904 8.83803 -15.049 22
467 1 -3.14719 7.04718 -11.831 23
468 1 -4.96437 9.5388 -12.4085 25
469 1 -3.01983 12.6688 -12.6962 21
470 1 -0.0466483 7.29836 -12.1113 22
471 1 -1.6689 9.97041 -12.3594 19
472 2 -2.59196 7.01102 -14.6317 22
473 2 -4.77158 9.60201 -15.5193 23
474 2 -3.0607 7.21545 -9.84952 23
475 2 -5.13727 9.92226 -9.75528 19
476 2 -5.41223 11.8014 -12.4071 20
477 2 -3.25805 8.79748 -12.7075 23
478 2 -2.85098 12.8809 -10.8295 22
479 2 0.387204 7.66698 -9.94331 20
480 2 -1.62516 10.282 -10.369 23
481 1 -4.91256 12.0873 -10.4763 19
482 1 -3.2542 9.25197 -9.53099 22
483 1 -3.26244 7.37706 -6.49185 24
484 1 -4.85327 10.5022 -7.02101 20
485 1 -5.07727 12.5277 -4.98033 19
486 1 -3.40592 9.30021 -4.12593 21
487 1 -3.09205 13.3472 -6.8882 20
488 1 -1.61674 12.0731 -9.88413 20
489 1 -0.0292309 9.38735 -9.30107 22
490 1 0.165194 7.37187 -6.67385 21
491 1 -1.66056 10.5058 -7.07475 21
492 2 -3.41441 7.50608 -4.70803 23
493 2 -4.85232 10.5208 -4.87282 23
494 2 -5.21414 12.4646 -6.89792 18
495 2 -3.25528 9.39836 -7.52476 21
496 2 -3.03952 9.20941 -1.78434 19
497 2 0.181206 7.48851 -4.68143 22
498 2 -1.67114 10.4814 -5.05931 24
499 2 -1.7879 12.2734 -7.8965 21
500 2 0.031442 9.28969 -7.14082 20
