ITEM: TIMESTEP
1000
ITEM: NUMBER OF ATOMS
2000
ITEM: BOX BOUNDS pp pp pp
-30.0 30.0
-30.0 30.0
-30.0 30.0
ITEM: ATOMS id type x y z Coordination
1 1 -11.5476 5.98712 -14.1928 11
2 1 -3.12519 -9.36951 -7.39641 18
3 1 1.75733 12.1077 12.4433 16
4 1 7.69577 -9.85066 5.66311 17
5 1 -8.85734 10.2921 -0.699998 19
6 1 11.8578 -8.44598 -11.5056 13
7 1 -8.5629 4.77428 -6.4322 19
8 1 1.396 -7.21167 10.0545 18
9 1 -9.42911 -0.154876 -11.5651 17
10 1 -12.027 -8.9912 5.96104 18
11 1 11.8928 1.5332 -8.65457 16
12 1 -7.03943 -12.9551 2.47218 20
13 1 -14.431 -8.42186 5.17093 17
14 1 1.43883 0.0596106 15.7176 16
15 1 -3.33603 9.89579 -10.9571 22
16 1 1.55914 -3.19338 12.3466 20
17 1 -11.729 -0.0386283 -15.8607 9
18 1 -14.3015 -2.16038 12.0363 11
19 1 12.9981 5.91924 7.32483 21
20 1 -0.271335 11.0501 -10.7515 21
21 1 3.20696 3.12873 -14.1674 17
22 1 14.3911 3.2553 12.6544 13
23 1 -12.1062 2.64732 -10.1322 19
24 1 -9.69016 10.6323 8.87459 15
25 1 7.69455 -15.3546 3.45472 13
26 1 3.75158 -13.2074 -11.9577 14
27 1 9.64219 -11.5579 -0.968453 12
28 1 -8.14348 -14.4016 -7.44652 9
29 1 -14.8436 -5.59291 10.8417 11
30 1 2.09513 -7.35047 -14.6445 22
31 1 9.27439 -9.1529 -13.6316 16
32 1 -4.74119 3.28452 -17.964 10
33 1 0.88841 3.42953 12.6812 20
34 1 -0.245967 -11.5382 6.81432 15
35 1 6.05828 -6.23135 14.071 11
36 1 -12.8628 -0.907912 -1.06618 20
37 1 -16.9188 -1.35164 7.26362 10
38 1 -3.32367 13.2603 -0.276367 23
39 1 0.933163 -14.0949 -10.9488 16
40 1 3.67389 -5.48775 -8.61772 20
41 1 -3.70969 -6.17115 12.122 12
42 1 -10.0108 7.54801 -1.09518 23
43 1 2.63572 10.7285 -11.4064 20
44 1 0.330704 14.973 6.77874 19
45 1 -9.97868 9.71127 -8.81792 12
46 1 -0.209911 13.2564 -1.61714 24
47 1 2.46052 -13.9228 2.40405 22
48 1 8.19705 -9.41716 -3.5038 21
49 1 4.06216 -4.99844 -16.6559 17
50 1 -6.84952 9.97141 10.2249 19
51 1 -13.4228 -3.59734 -8.03195 13
52 1 -6.97101 7.64955 -6.398 17
53 1 -10.7288 -7.91173 8.42554 19
54 1 -2.83517 15.1599 12.4191 7
55 1 -11.0678 6.78499 -6.94175 16
56 1 -6.80941 13.0686 10.5593 11
57 1 -5.68211 -13.5192 7.61017 15
58 1 6.67479 -16.0024 -4.8298 13
59 1 3.68863 11.9426 14.8399 13
60 1 -14.9738 3.41389 -9.47804 9
61 1 -13.1319 5.91183 -11.8324 13
62 1 4.99749 6.67872 11.5256 22
63 1 11.6555 -3.54281 -10.6207 13
64 1 9.08686 -13.1528 2.18862 12
65 1 -16.7131 -2.26668 3.44407 10
66 1 5.62555 15.984 6.36932 14
67 1 4.6623 -3.79912 12.3909 18
68 1 -4.62371 -13.0736 4.72134 20
69 1 14.8076 3.06218 5.91039 14
70 1 -1.83064 11.6197 8.91874 17
71 1 -2.28771 -7.04762 -10.6195 20
72 1 -12.4853 8.37345 7.08952 16
73 1 -7.68517 12.6974 -0.00944454 17
74 1 -3.19018 7.02545 -14.2829 14
75 1 8.35815 12.6236 -8.94323 12
76 1 4.6597 -6.8102 9.83652 17
77 1 -3.2506 14.6141 -2.98932 16
78 1 -8.35536 10.4063 4.42959 22
79 1 -8.81772 -4.83828 13.63 15
80 1 -7.12127 -5.69389 6.72463 20
81 1 13.9039 -9.66344 -6.01739 10
82 1 -10.0296 1.79657 3.91814 23
83 1 -7.41823 -14.8117 4.35492 18
84 1 11.28 -8.32592 -5.356 21
85 1 4.69249 0.617595 -13.9156 18
86 1 -6.43472 -2.51072 -16.8027 13
87 1 -0.345363 11.4687 1.41551 25
88 1 -6.94476 5.44347 -8.9109 16
89 1 -0.332751 8.24007 15.5882 14
90 1 2.4273 13.3874 -6.23788 17
91 1 -11.9444 11.9199 0.274623 16
92 1 -5.47799 -6.85594 9.00202 19
93 1 14.1054 -0.300497 11.7697 9
94 1 6.67819 -8.25626 -8.44258 19
95 1 6.32342 -2.83439 15.1705 14
96 1 -12.6576 -7.5042 0.190341 16
97 1 -8.17453 -8.45535 -4.7322 17
98 1 8.135 -8.83348 1.96202 20
99 1 7.04864 2.35735 -15.0056 15
100 1 6.58918 17.8942 -1.17706 9
101 1 -11.6247 -13.3133 11.2876 8
102 1 -12.5914 -14.0405 8.6351 10
103 1 4.51623 -8.15262 -16.5309 14
104 1 11.4255 -10.009 -2.98875 16
105 1 -2.25973 -15.5437 4.8586 15
106 1 -11.1222 -11.0893 0.0290786 16
107 1 15.8478 7.70784 8.95057 13
108 1 12.9657 -3.70611 -7.21359 17
109 1 -15.6094 -4.42668 1.83617 14
110 1 10.7424 10.1701 5.24147 18
111 1 17.5783 11.8781 4.80104 7
112 1 -6.58179 1.72934 15.1356 13
113 1 -3.58687 9.51064 9.12934 19
114 1 -3.02086 11.5401 -3.02558 19
115 1 0.830097 -7.46421 -11.3437 19
116 1 11.2225 -11.4557 -11.7539 11
117 1 -0.456972 14.0503 -10.7642 15
118 1 7.91323 -3.53633 12.8561 13
119 1 -2.74415 0.457944 -17.1171 16
120 1 -1.62973 8.51542 -8.67343 20
121 1 13.0591 -0.288817 -3.37034 19
122 1 -10.006 9.35302 -5.45345 14
123 1 -8.36427 15.1477 1.55589 10
124 1 6.38484 2.11819 -11.7915 20
125 1 8.27184 -6.7369 4.78373 20
126 1 -6.5363 14.2892 8.05519 12
127 1 12.5704 7.28217 -7.72995 15
128 1 6.48225 11.6765 -3.35372 22
129 1 -2.76802 17.6055 2.18804 15
130 1 8.20373 8.49838 2.13278 19
131 1 -1.5834 10.3183 -1.12305 23
132 1 -0.581222 17.3208 -9.08685 10
133 1 3.35405 12.0879 -14.1888 13
134 1 -12.7964 -11.5423 3.5304 14
135 1 -13.3361 8.90624 -1.81048 12
136 1 -3.78775 -3.76044 -11.2581 19
137 1 1.20782 -10.3436 -16.3939 12
138 1 9.9535 13.9055 9.71978 10
139 1 0.851766 20.3169 7.10701 6
140 1 -11.607 -3.16748 -3.89905 17
141 1 -10.2209 11.101 2.5542 21
142 1 14.8892 -1.24366 -1.47572 17
143 1 -10.1699 2.76457 -15.1989 17
144 1 5.38086 2.54895 18.0646 10
145 1 3.38658 16.6286 3.77977 13
146 1 -1.74453 8.88063 6.77401 19
147 1 2.07944 -7.72627 -17.7585 11
148 1 -4.46636 15.9301 8.5703 11
149 1 -2.44335 9.58452 -5.64438 18
150 1 2.39183 -6.1055 13.4502 15
151 1 -10.2683 -6.02989 6.44869 22
152 1 -1.62955 -12.6606 -11.6693 13
153 1 -7.30933 14.2507 -10.9762 6
154 1 -3.9777 -11.2409 2.21153 21
155 1 3.52207 -15.1258 -6.14998 15
156 1 -5.70962 12.0569 -12.1315 13
157 1 -14.3857 3.1421 8.51771 14
158 1 10.03 5.34885 -3.7934 21
159 1 -5.52619 4.94306 14.6622 13
160 1 -1.73168 -8.19065 7.24662 22
161 1 0.770227 17.8838 5.61116 14
162 1 1.76249 7.47727 9.67584 22
163 1 13.5196 5.57505 14.0992 12
164 1 -6.28126 13.4993 4.80144 18
165 1 11.3322 -6.85311 -8.1729 15
166 1 -4.08898 13.265 10.4709 17
167 1 15.0938 -9.53596 2.38143 6
168 1 -14.3517 -0.124988 5.87777 11
169 1 -11.0845 -8.42608 3.17526 15
170 1 4.86686 6.23193 15.0003 20
171 1 -14.7718 1.18394 -4.04498 13
172 1 -3.65886 -15.4157 -0.65201 22
173 1 -1.99435 10.4435 4.2137 21
174 1 3.92313 13.976 11.4597 14
175 1 -6.53426 9.66899 -10.0394 17
176 1 -13.7669 -4.51439 -5.51758 12
177 1 -8.71655 -0.616318 8.71062 16
178 1 0.261435 -9.86522 4.45303 22
179 1 4.79189 -13.6252 4.72444 17
180 1 -12.2596 8.33001 1.43752 18
181 1 16.0215 6.25451 2.58756 11
182 1 -5.92546 -7.91448 -14.1899 10
183 1 4.27179 -1.07313 10.2067 21
184 1 6.731 -18.3455 1.58348 10
185 1 -1.52761 5.2874 -11.5561 19
186 1 6.45306 -8.93696 -13.4198 21
187 1 8.90667 -0.283541 -13.3346 16
188 1 1.92539 9.59819 -15.3807 14
189 1 -8.09829 -6.96315 -7.05292 21
190 1 -3.76632 14.6321 -6.09855 10
191 1 -13.5756 -11.106 10.0058 9
192 1 8.63058 15.9458 -0.691238 13
193 1 -8.70638 4.23071 14.4258 13
194 1 -5.92599 12.0425 -2.83421 20
195 1 8.20867 2.13245 7.54909 21
196 1 -3.14185 -8.04457 -13.6763 16
197 1 -4.73474 9.77598 -8.29988 15
198 1 2.94168 5.51276 -9.0823 24
199 1 -7.89361 -12.4095 5.79955 18
200 1 -8.75579 3.01707 6.84461 22
201 1 -5.84542 4.46599 9.31141 20
202 1 3.00927 -9.96045 -6.34796 22
203 1 -6.86091 -15.6742 1.25219 22
204 1 11.1966 -13.2233 -3.58289 9
205 1 10.8156 7.11959 13.437 16
206 1 4.77255 8.34841 -9.41348 21
207 1 -12.0096 13.5591 -2.48255 8
208 1 1.09756 4.66705 9.89625 20
209 1 4.24522 -19.469 -0.112112 13
210 1 16.2305 -0.622584 1.69971 10
211 1 -9.56796 7.80135 10.2338 18
212 1 -10.4288 -6.13725 -4.80662 18
213 1 6.80152 5.20199 -14.2331 14
214 1 3.04042 -3.96748 9.3026 19
215 1 7.79044 9.56454 -9.08358 18
216 1 -6.1696 -0.174269 -11.1079 19
217 1 0.297765 -17.902 4.56088 9
218 1 10.0678 -0.865441 -8.5345 19
219 1 -10.3554 -3.46123 4.22329 21
220 1 3.97896 -17.8587 -3.33695 15
221 1 -8.72549 -3.05381 -8.71251 19
222 1 3.09891 13.0489 -1.24394 19
223 1 -1.30426 -3.19481 -17.0987 13
224 1 3.48042 4.22321 13.5523 17
225 1 15.7434 2.81569 1.24634 12
226 1 10.3148 -6.48733 -10.9981 17
227 1 -9.5955 -4.48656 -11.9813 19
228 1 -10.0568 0.374825 -8.48851 21
229 1 -6.7217 -13.4002 10.0234 8
230 1 11.2392 4.3498 9.98484 18
231 1 -5.00736 -6.65347 -11.9376 18
232 1 -0.0762337 7.33055 -14.2078 18
233 1 2.44051 11.985 5.64187 19
234 1 -6.12746 -3.42819 12.5214 19
235 1 -11.255 -8.38087 -8.79777 13
236 1 -4.55721 -5.36512 -8.54031 19
237 1 -2.97525 6.48742 -17.2489 11
238 1 -5.05361 -8.6331 -3.44435 20
239 1 7.86461 -3.88626 -16.6209 12
240 1 14.2817 -1.73386 -8.75047 10
241 1 12.0843 4.4935 4.32585 19
242 1 -9.287 -5.10731 9.55777 20
243 1 -2.06166 -12.1901 -0.195347 26
244 1 6.68286 5.42137 16.6128 15
245 1 -5.47531 -17.5026 3.44297 13
246 1 1.43312 -14.0898 -0.21683 24
247 1 -1.3608 16.5482 -0.825389 18
248 1 6.27488 -1.00952 -15.8444 16
249 1 -7.40812 -5.1419 -14.5182 14
250 1 -12.6537 -8.16006 11.4759 13
251 1 0.626295 6.41347 18.5805 10
252 1 2.31807 -14.4511 -3.07447 21
253 1 -2.97481 -12.4442 -8.54886 18
254 1 -10.4866 5.60479 -9.5231 16
255 1 9.9581 4.75855 7.01719 19
256 1 -8.41347 2.88475 -10.4852 22
257 1 -1.09763 8.09949 -11.3886 19
258 1 7.83778 -13.5841 -11.0172 9
259 1 -4.34461 16.1776 0.0631634 14
260 1 1.10503 10.4171 4.16928 21
261 1 11.327 -1.56681 5.12955 19
262 1 -12.7037 -1.04557 3.8003 16
263 1 -1.70184 -6.88678 9.65117 17
264 1 -7.24105 7.66895 3.98171 22
265 1 2.19928 -4.02576 -11.1106 18
266 1 12.4192 9.69033 -1.29433 10
267 1 3.18389 -11.4211 1.89821 23
268 1 -2.71435 -3.44459 16.2998 10
269 1 -16.8429 -3.66815 5.70697 12
270 1 -0.0620127 -16.0572 -4.17935 14
271 1 -9.50377 10.3991 12.3754 11
272 1 -10.7487 6.29035 13.0586 12
273 1 -16.6029 -3.36504 9.41555 10
274 1 -15.7049 -5.70829 7.49656 13
275 1 11.934 -3.23553 -2.7022 18
276 1 -14.1805 -8.26621 8.59197 14
277 1 8.13782 -1.92343 -10.2901 20
278 1 10.6934 -14.8436 -6.57696 8
279 1 3.37874 17.7775 -3.17124 12
280 1 -6.71978 15.2634 -1.89682 14
281 1 10.583 7.09195 9.97478 17
282 1 7.75765 -11.9585 -3.71863 20
283 1 -5.02663 10.449 4.4688 25
284 1 6.35685 -11.6534 7.73183 11
285 1 14.2707 -2.8295 7.27462 14
286 1 0.817973 -2.48189 17.68 8
287 1 -3.00524 13.4371 3.44208 20
288 1 8.47303 8.22571 15.8208 13
289 1 -6.90583 14.9412 -4.80329 8
290 1 -0.305286 -5.44223 -18.4697 9
291 1 6.35627 -10.4752 -15.9516 9
292 1 -6.90003 3.28498 12.5476 15
293 1 -14.511 3.28732 4.64775 15
294 1 -5.1708 10.2684 -0.43564 23
295 1 8.04816 -3.38436 6.96448 17
296 1 -12.3012 -13.798 1.28392 10
297 1 10.1034 -6.16606 8.32544 15
298 1 -10.3002 -10.2694 11.0604 14
299 1 -13.7294 5.76867 -0.0347244 17
300 1 3.03163 -12.6437 -8.91929 20
301 1 -7.16852 -2.20349 -13.5331 17
302 1 7.22476 -2.79093 -13.736 20
303 1 4.83918 13.7995 3.4816 20
304 1 -10.4462 -0.257186 -3.13966 21
305 1 4.95986 -5.72727 -13.8255 17
306 1 8.26898 4.05831 -11.8151 14
307 1 -5.46473 -16.3208 -5.69648 14
308 1 -12.201 -6.89295 -2.81443 16
309 1 9.72631 5.01411 15.3215 16
310 1 12.2818 4.97581 -0.790894 20
311 1 -10.3148 2.99997 -12.5287 19
312 1 4.67322 17.6298 0.621525 9
313 1 -13.6179 -1.15189 -5.81212 17
314 1 -7.14784 5.79735 6.57995 19
315 1 -7.17712 11.2325 2.17968 21
316 1 10.8204 4.31617 12.7409 20
317 1 11.0475 -2.38283 -5.71086 20
318 1 8.17514 -0.6353 13.6406 16
319 1 12.877 0.380014 -6.08576 19
320 1 -6.62687 -17.2958 -2.26553 13
321 1 3.46544 -12.7956 -1.13859 21
322 1 9.73283 -1.15796 8.08876 21
323 1 -10.5142 -5.10488 -8.43645 20
324 1 -7.76728 -10.6259 0.639357 15
325 1 -9.58492 -7.52635 12.5563 13
326 1 -3.69818 11.493 1.57823 21
327 1 -10.0923 -9.82158 -2.50611 17
328 1 5.67827 9.5059 14.6914 15
329 1 -7.90085 8.58714 -3.79445 17
330 1 -1.23849 11.9419 -7.76477 17
331 1 5.18744 12.5446 6.60753 17
332 1 -15.26 -6.50408 -0.572583 11
333 1 -3.91411 -10.9665 -4.96666 17
334 1 -14.022 -1.31176 9.1233 17
335 1 -12.945 8.32544 -5.12917 11
336 1 5.17071 -9.25897 6.75457 21
337 1 -5.75775 -14.0488 -2.93748 19
338 1 11.8574 11.8267 7.95156 18
339 1 5.54054 10.3906 -14.9835 9
340 1 -13.8553 3.04184 -12.5891 11
341 1 -3.17487 15.4573 -9.11683 11
342 1 -10.1491 5.58563 -3.66615 17
343 1 0.164182 -11.4404 1.63793 21
344 1 13.6796 7.75525 4.57619 23
345 1 0.355945 11.4443 -16.3452 8
346 1 -16.3589 -0.14809 -1.54326 15
347 1 -1.74818 -12.6681 3.71282 21
348 1 6.96478 -6.8379 -11.3415 21
349 1 -11.6729 2.85305 1.43383 20
350 1 -16.3093 0.913486 9.37121 7
351 1 -13.5298 9.91997 3.89596 12
352 1 -8.54063 0.0966541 -16.8822 14
353 1 8.46778 -10.6564 -7.07603 19
354 1 1.77042 -10.6019 -11.2698 25
355 1 -3.85778 -4.00696 10.0663 21
356 1 -7.75844 3.45424 -17.4445 10
357 1 5.76213 -13.3298 1.93511 20
358 1 3.15927 11.012 -3.51991 19
359 1 -12.7994 11.3995 7.03439 9
360 1 -6.17173 -4.45727 15.3344 11
361 1 -11.7831 -5.58121 -11.2902 10
362 1 -8.77937 -9.22762 5.89418 19
363 1 9.44025 -3.62615 10.1396 19
364 1 14.6423 -7.40356 5.32913 8
365 1 13.7184 5.77854 -5.07093 16
366 1 -4.32789 1.63029 9.63259 16
367 1 5.0345 14.7724 0.459279 21
368 1 -2.63585 -14.6385 -3.68934 20
369 1 -3.77355 3.25344 16.264 10
370 1 -1.97449 17.6392 6.77879 12
371 1 -9.55088 -10.3078 -7.56621 15
372 1 8.27795 15.0116 1.97264 20
373 1 1.76647 8.33557 6.82238 19
374 1 -7.44427 2.26432 9.51047 19
375 1 -12.2439 5.07846 9.33331 21
376 1 -6.18078 -9.96947 -6.93018 20
377 1 -5.6605 8.51263 6.81598 21
378 1 -4.96527 -13.2632 -6.07414 21
379 1 0.0332469 -9.71558 -13.4018 21
380 1 -9.75028 -12.0424 2.60128 21
381 1 9.69381 1.62989 4.78277 21
382 1 -6.5214 -6.36189 12.2137 15
383 1 -8.24032 7.43692 -10.9265 20
384 1 8.15607 4.60601 -5.84669 23
385 1 -9.25586 -15.241 -3.95586 12
386 1 0.738639 17.2543 2.02852 15
387 1 -1.47777 7.53596 10.2715 18
388 1 -15.3683 -2.4204 -3.82749 13
389 1 -0.0030274 17.3876 -3.45471 12
390 1 6.20491 13.4058 -6.61269 17
391 1 -5.06538 -8.39563 -9.02962 19
392 1 4.8627 -0.732109 16.1171 14
393 1 0.893329 -15.1312 -7.87238 15
394 1 0.737698 -2.09688 -13.7859 18
395 1 7.69283 -15.6055 0.237338 12
396 1 -10.567 8.20027 4.13018 23
397 1 1.64431 6.46234 12.3021 23
398 1 7.71013 9.11718 -3.52749 20
399 1 -11.2279 8.99235 -11.9885 12
400 1 -15.9601 -2.766 -0.556125 12
401 1 3.4381 18.8296 7.30909 7
402 1 -5.2778 3.01994 -13.8405 16
403 1 9.77902 6.00475 1.09218 18
404 1 5.57137 15.2446 -9.41812 9
405 1 17.0324 1.2955 -0.717468 10
406 1 -2.24886 -0.609877 -11.1748 22
407 1 1.55676 -12.2757 4.61578 19
408 1 3.76578 -9.22181 9.38169 17
409 1 -10.4643 3.20363 -8.22203 16
410 1 -9.98102 -15.3366 6.33297 12
411 1 0.651803 -11.9183 -8.22537 19
412 1 8.67738 15.6525 7.95579 13
413 1 1.98121 5.32672 -16.1594 15
414 1 3.07543 -3.39967 14.797 17
415 1 -16.0803 4.8052 9.79743 9
416 1 -1.15891 -17.893 0.585247 15
417 1 -10.0412 -5.6924 1.64648 15
418 1 14.3996 -6.12068 -5.59901 13
419 1 11.2308 -1.03621 -0.348185 20
420 1 3.9592 -8.98187 -8.77909 20
421 1 2.93166 1.6804 -11.3278 21
422 1 9.89483 -4.18527 -7.66722 18
423 1 -5.18199 -1.43954 16.0275 8
424 1 5.97992 11.7622 1.92224 22
425 1 -4.72988 -3.72927 -13.8523 19
426 1 7.17898 3.64902 -17.6845 9
427 1 -8.68234 -2.82923 7.06379 23
428 1 -0.796278 15.0073 1.53275 19
429 1 -9.04151 -2.64531 -15.3394 14
430 1 -15.1921 1.12562 2.08668 14
431 1 1.14633 -12.9962 -14.0225 12
432 1 -8.67279 -11.0723 8.75339 17
433 1 1.13418 10.1336 -6.17812 21
434 1 16.044 4.19522 7.98207 13
435 1 15.7608 5.04002 -0.557936 13
436 1 -11.0631 -13.3978 -1.81768 12
437 1 -3.56081 -1.66104 -15.9245 19
438 1 -8.95272 8.64448 6.97265 22
439 1 11.8781 -4.4563 1.11743 17
440 1 2.1923 16.207 -9.58119 9
441 1 13.9033 4.10352 -7.77953 13
442 1 3.06004 8.77927 14.0178 20
443 1 -10.2326 5.81201 6.96775 21
444 1 6.13876 11.2073 9.82441 19
445 1 7.59082 -0.167602 17.3883 10
446 1 -0.662867 2.30084 -11.3769 19
447 1 -0.458895 -4.16418 10.0709 21
448 1 8.5224 11.7352 7.39344 18
449 1 5.26365 7.99348 -13.3261 15
450 1 -6.58097 10.4864 -5.23884 12
451 1 -0.167885 11.8775 -4.30106 17
452 1 11.1722 -2.57257 12.7193 14
453 1 8.44996 3.14219 -8.79013 24
454 1 10.6125 -11.4175 -5.93096 20
455 1 12.2663 9.70732 10.6889 14
456 1 -15.7968 -8.81237 1.81979 9
457 1 -8.54163 10.6992 -11.7627 14
458 1 -11.2676 -0.229633 11.0257 16
459 1 -4.82881 12.9435 -9.11879 16
460 1 3.7842 -11.7868 -3.97755 19
461 1 5.47211 -1.04175 -11.657 22
462 1 -0.445498 14.663 -4.16934 19
463 1 -9.65648 -7.53231 -14.0778 5
464 1 4.89253 -16.3174 3.09405 17
465 1 -13.1792 -6.96982 2.71168 17
466 1 0.730012 12.353 -13.3652 14
467 1 -2.28756 9.65492 14.3395 15
468 1 -12.8817 -5.9627 7.85397 17
469 1 5.33219 -10.3398 -11.6489 19
470 1 4.75377 -8.63408 12.7355 8
471 1 -8.63247 8.36614 1.6003 22
472 1 3.55195 6.65212 18.128 13
473 1 5.03868 16.13 -5.97418 12
474 1 11.4732 -5.21076 -4.55525 20
475 1 3.59461 9.34726 11.0246 17
476 1 -0.942732 4.74634 -18.3709 11
477 1 -5.91772 -10.362 8.66438 17
478 1 5.99061 0.703121 -17.8233 12
479 1 3.18357 14.2831 7.94324 18
480 1 8.82168 6.69881 -8.75146 19
481 1 -2.21503 -2.69012 -13.8906 21
482 1 -2.91946 -11.3617 -2.59718 19
483 1 -11.4108 -2.02441 -10.1918 18
484 1 11.1269 2.87118 1.89572 18
485 1 14.1618 3.577 -2.23276 16
486 1 7.51474 -4.82386 -9.17502 20
487 1 13.9025 7.96631 12.266 10
488 1 6.26251 -9.50045 -6.08476 23
489 1 2.31026 4.20554 -18.5306 11
490 1 8.00725 12.0294 4.16117 15
491 1 10.5258 10.2124 13.5065 9
492 1 10.3471 10.948 -4.24324 13
493 1 13.7738 -4.03395 4.11716 14
494 1 10.0743 2.04727 -5.88248 20
495 1 8.83399 2.25396 11.9479 16
496 1 14.1097 5.84427 10.53 16
497 1 9.88977 13.1115 -1.79608 16
498 1 2.98845 2.15377 15.6862 16
499 1 16.3612 -2.40861 -6.69107 10
500 1 6.15479 1.65931 10.5944 19
501 1 -7.50293 -0.129632 -8.62283 20
502 1 13.3646 6.20458 1.67133 18
503 1 -11.9253 9.3134 11.6318 10
504 1 9.30571 10.4842 9.87021 17
505 1 10.3153 1.67468 9.68774 17
506 1 2.82258 11.1085 8.635 19
507 1 0.618009 13.5165 9.98794 20
508 1 -2.27791 -18.3585 3.17491 11
509 1 -4.98931 8.40535 -3.64384 23
510 1 10.6327 10.0296 -7.47407 14
511 1 10.2202 -3.06982 -13.8293 13
512 1 1.51762 16.1656 -1.11511 16
513 1 -1.88699 -12.9906 -5.84414 17
514 1 11.5661 -6.52551 -14.4105 10
515 1 -11.9953 2.70442 6.13381 20
516 1 -6.32444 4.68432 -11.9881 20
517 1 -3.87904 -14.2595 2.00423 21
518 1 -4.55642 0.163589 -13.8443 21
519 1 -12.0417 2.53736 -3.60502 19
520 1 10.8278 -8.91223 4.65085 12
521 1 14.7123 11.1992 3.89484 13
522 1 1.59824 -8.94322 7.05936 20
523 1 -11.0416 -1.85777 -6.97632 19
524 1 0.844342 2.29967 -16.95 16
525 1 -3.25491 6.83063 16.2253 11
526 1 5.82382 10.0748 -11.811 14
527 1 12.6427 0.608063 13.7725 13
528 1 6.16493 5.86819 -8.75775 21
529 1 11.4215 14.902 0.254939 10
530 1 5.16966 -14.1705 -9.24054 14
531 1 -9.95147 -1.52519 13.5351 13
532 1 14.7218 -0.790658 5.12117 14
533 1 -1.66273 12.2031 12.4023 16
534 1 5.45729 11.6602 -9.72353 17
535 1 -11.1635 10.6644 -2.52904 17
536 1 9.91577 12.0514 1.30475 18
537 1 -9.80905 -16.0867 -1.11222 11
538 1 11.9796 -6.18732 5.34283 15
539 1 9.16862 16.3026 5.18698 11
540 1 -2.67052 4.64693 9.33499 17
541 1 -7.91158 -6.98261 -0.501546 15
542 1 -7.34349 -5.45447 -10.104 16
543 1 8.19427 -0.271106 10.3725 19
544 1 -2.14868 -10.8769 9.26978 11
545 1 7.53848 4.62267 10.3119 22
546 1 -5.65824 14.2549 2.1413 19
547 1 0.0904062 -0.445519 -16.2599 20
548 1 -10.7629 -0.127209 6.53972 20
549 1 9.81074 1.72242 -10.9367 16
550 1 11.7716 -9.47124 -8.63816 14
551 1 6.46232 5.56068 7.62214 20
552 1 -9.70112 1.05189 13.7862 13
553 1 11.2912 8.69251 7.71108 17
554 1 -0.0728801 -3.95897 14.9544 15
555 1 -1.06747 5.54237 13.3879 18
556 1 -0.932617 -6.61754 -13.2775 17
557 1 -6.66915 0.179221 12.2556 15
558 1 7.35017 3.22311 13.645 19
559 1 -9.21043 -15.2724 9.76728 9
560 1 9.72209 7.80786 -1.81894 17
561 1 6.24223 -13.1911 -5.91074 19
562 1 4.87138 10.5939 -0.89097 21
563 1 11.3134 13.806 3.58848 16
564 1 2.71337 0.372584 -18.4176 15
565 1 2.57644 15.2197 -3.82068 19
566 1 11.1303 9.20652 2.01745 18
567 1 -5.41157 -12.5623 -0.503646 20
568 1 -1.78054 0.686674 -13.8554 21
569 1 -11.9837 14.5927 1.14455 7
570 1 8.25613 -5.78553 -13.9344 17
571 1 10.9309 8.73005 -10.0193 9
572 1 7.92197 14.2588 -4.92477 13
573 1 12.1066 3.45887 15.3273 13
574 1 9.76949 1.02495 15.1152 17
575 1 -3.48725 -11.1437 6.7524 20
576 1 -6.25232 8.41304 -12.7546 18
577 1 1.71442 15.8978 10.0002 11
578 1 7.98418 -7.37826 -16.392 11
579 1 5.71097 15.0657 -3.01473 20
580 1 8.10668 8.0609 6.51829 15
581 1 13.5793 -7.11601 0.101283 11
582 1 5.77798 8.41521 17.6929 11
583 1 -12.1937 -3.43437 7.05699 14
584 1 1.12663 -16.8444 1.6192 20
585 1 -11.4139 13.3028 3.85981 11
586 1 4.71545 10.4006 3.96436 17
587 1 -11.7316 -2.99031 1.83249 19
588 1 -0.286281 2.61632 15.1992 17
589 1 -6.03467 6.59334 -15.1251 14
590 1 -9.39378 7.80312 -14.0475 11
591 1 3.98778 -15.5496 -0.448197 22
592 1 9.10413 7.30484 -5.53765 19
593 1 -13.854 6.28875 11.7502 9
594 1 3.91142 -2.52614 -13.8343 22
595 1 3.53663 -11.4709 6.96975 15
596 1 2.07634 14.1798 1.31875 20
597 1 -1.33351 -0.549354 15.2262 15
598 1 -7.77023 -8.77749 -9.72865 15
599 1 -4.7127 -10.0299 -11.0086 16
600 1 -4.86723 -15.0516 -8.15341 12
601 1 -1.70674 16.5198 -6.2658 13
602 1 -3.91191 12.2348 7.12742 20
603 1 6.21837 -11.4178 -8.66595 20
604 1 6.4718 -17.1503 -1.33515 13
605 1 7.47377 -8.78518 8.88581 15
606 1 15.3285 0.767464 -7.47701 12
607 1 1.39144 -13.0176 -5.50552 20
608 1 -11.597 -2.8693 10.5198 17
609 1 -4.95688 -17.8406 0.620297 17
610 1 -7.2396 -11.3616 -4.38084 17
611 1 -10.6379 2.02466 8.58004 19
612 1 -8.46035 -18.4488 1.40838 9
613 1 14.6916 2.38762 -4.92017 15
614 1 -5.09909 18.4163 4.6034 8
615 1 -14.9334 6.30476 3.16711 11
616 1 9.90879 -4.02279 4.11442 20
617 1 -14.0172 -0.266885 -9.12142 12
618 1 6.46088 0.351533 -8.99958 20
619 1 5.81852 12.1313 12.5651 13
620 1 -13.3556 2.01989 -7.34352 15
621 1 -12.6754 -6.82917 -6.76309 13
622 1 -2.53148 4.68918 18.3597 6
623 1 2.27832 7.6451 -12.2545 19
624 1 11.586 14.8981 6.51443 11
625 1 -1.58819 -2.42472 12.7641 13
626 1 -3.66584 -17.8234 -2.7876 10
627 1 -7.34921 -16.4398 7.36579 10
628 1 14.9867 10.7603 9.48821 8
629 1 3.83034 -7.29977 -11.2052 20
630 1 -8.47578 -7.0399 3.82851 18
631 1 8.21745 7.47245 -11.7481 14
632 1 -2.05246 -16.037 -6.92805 13
633 1 1.34063 -20.0141 1.18753 9
634 1 -0.692636 -15.7521 -1.18599 19
635 1 4.60996 4.75005 -11.5464 22
636 1 6.58158 16.8986 2.93661 13
637 1 -6.03601 1.06517 -16.6715 17
638 1 -0.138943 0.367995 12.4997 18
639 1 0.502721 7.82784 -17.6282 11
640 1 -11.5136 -2.34536 -13.4593 13
641 1 -9.80345 -3.63166 -1.18617 19
642 1 1.75908 17.314 -6.05323 14
643 1 -3.33572 -5.6106 -15.99 14
644 1 11.2106 4.72042 -6.80182 19
645 1 10.3368 -6.32962 2.27867 20
646 1 -7.34336 6.47666 12.3012 16
647 1 6.02067 -10.4971 3.57417 19
648 1 12.4823 -7.7561 2.52369 16
649 1 12.5168 -4.32144 10.2346 11
650 1 -0.133857 12.0948 6.92779 21
651 1 -11.457 3.38697 12.2226 12
652 1 -8.90031 5.1104 9.77059 20
653 1 -2.51293 -14.0107 7.5946 13
654 1 7.33338 6.15245 13.5467 21
655 1 -13.9743 -1.30359 1.32151 16
656 1 10.0687 -6.81213 -3.03793 16
657 1 -8.98016 12.7022 -3.31444 14
658 1 1.85684 -15.6803 4.7272 13
659 1 5.23225 -0.443689 13.3254 18
660 1 0.313828 13.5032 3.91526 17
661 1 9.02066 -12.9519 5.54106 7
662 1 2.5627 0.446491 13.1696 18
663 1 -13.229 -4.26996 -1.82149 17
664 1 0.151024 11.4146 15.2707 13
665 1 3.07366 11.4259 1.75666 23
666 1 -10.371 -12.5442 5.80674 16
667 1 -4.49442 -16.7185 5.97207 13
668 1 6.77326 -6.52336 7.38408 19
669 1 11.4853 -3.70504 7.65083 18
670 1 7.19829 7.15297 9.93738 16
671 1 0.276511 -8.42258 -8.51209 20
672 1 -3.65958 2.42473 -11.4788 21
673 1 -5.74194 -0.734021 9.62476 20
674 1 -1.82822 16.3422 4.48002 19
675 1 13.2285 1.81969 3.76435 17
676 1 4.55327 10.4882 -6.20321 22
677 1 -4.58839 9.72249 11.8931 16
678 1 7.56815 9.10262 12.4114 18
679 1 5.23804 -3.8252 -11.488 20
680 1 -8.19841 -12.4127 -1.63363 17
681 1 15.8414 0.674194 8.22392 10
682 1 2.09128 -1.32551 -11.2627 20
683 1 1.28043 5.69388 15.4049 19
684 1 10.1844 -12.6099 -9.10082 15
685 1 5.4075 5.87925 -16.6233 10
686 1 11.0102 4.65054 -9.67046 16
687 1 14.9542 -3.75568 0.668283 13
688 1 -0.351159 -6.85605 12.6895 11
689 1 -1.34418 -9.93516 -10.6059 19
690 1 6.87742 13.1413 -0.512227 22
691 1 -11.8602 5.19603 4.15998 18
692 1 11.4314 2.69537 -3.67078 21
693 1 15.8543 8.86426 3.08502 11
694 1 0.67495 -4.38924 -14.9148 20
695 1 -7.04612 10.9726 7.66065 21
696 1 17.239 9.40883 7.09139 10
697 1 11.8392 8.55173 -4.18554 14
698 1 4.15539 3.14502 -16.9957 19
699 1 10.7386 -10.1771 1.27242 12
700 1 -13.5755 1.61589 -0.82709 20
701 1 10.1189 7.56556 4.62005 19
702 1 -13.9728 -10.7659 -0.645685 8
703 1 -12.6942 8.45749 -9.34807 10
704 1 4.27149 4.42061 9.82969 19
705 1 -10.6832 1.53627 -5.77664 18
706 1 -13.7425 5.58987 6.61237 15
707 1 8.87023 -8.16966 -9.50398 20
708 1 -11.4869 -9.44238 -5.29943 15
709 1 13.7842 -8.54992 -3.35087 13
710 1 -15.1141 3.89491 1.5442 13
711 1 13.7991 9.46618 6.89207 18
712 1 -6.64981 -10.2759 3.96029 20
713 1 9.27871 2.85845 17.673 11
714 1 12.9719 -0.213037 7.77448 19
715 1 -10.4526 5.92808 1.80398 21
716 1 0.2567 10.0872 9.85575 21
717 1 1.30935 8.35979 -8.98681 23
718 1 -0.886097 -7.5092 -16.2309 16
719 1 -4.93119 15.7625 5.36376 17
720 1 -13.7005 -12.0133 6.86536 8
721 1 7.86833 10.8436 -6.19889 20
722 1 0.293461 9.40762 12.6795 20
723 1 13.7351 -5.67651 -2.30819 17
724 1 8.1557 -6.60704 11.7713 11
725 1 -2.53524 12.8554 -11.6954 16
726 1 1.93087 11.6641 -8.76079 17
727 1 -6.65426 -4.00182 9.25319 18
728 1 16.6873 6.31729 5.9331 15
729 1 -0.635109 -3.75305 -11.331 24
730 1 12.6751 11.7768 2.23098 14
731 1 -15.4341 3.32694 -1.893 14
732 1 -5.24547 -8.63169 6.51229 18
733 1 3.40115 13.9177 -11.3 13
734 1 6.48762 -3.14078 10.0175 16
735 1 -0.0632105 -12.3572 -2.80405 20
736 1 -6.044 17.2902 2.47102 11
737 1 -13.6422 5.90285 -3.55576 12
738 1 14.4465 -2.88917 -4.52549 20
739 1 3.11305 -10.2447 -13.9934 19
740 1 -9.04258 4.89961 4.0759 23
741 1 14.2858 7.05334 -2.43978 10
742 1 4.94741 -2.66697 -18.3949 9
743 1 -6.56264 -12.2186 -9.28662 13
744 1 0.16878 -10.0454 -6.05977 20
745 1 -4.91966 12.0026 12.96 10
746 1 6.23844 -14.7227 -2.65204 16
747 1 -2.68286 10.7584 -13.8087 13
748 1 16.4496 -0.151397 -4.07061 12
749 1 6.16464 7.28204 4.16234 19
750 1 1.36245 -17.734 -1.53812 16
751 1 1.96762 -2.68707 -16.8453 16
752 1 12.9988 1.36266 0.325949 18
753 1 -1.94186 4.46212 -13.7769 18
754 1 -3.29021 -9.42166 4.25852 24
755 1 6.18472 7.91371 -5.89404 21
756 1 -11.7582 4.78499 -1.33919 21
757 1 -15.4044 7.0847 8.62964 8
758 1 2.0845 3.16498 18.1011 10
759 1 -7.75215 -8.36605 9.87405 16
760 1 4.73764 8.69132 8.20933 19
761 1 -0.969646 -14.496 1.79999 19
762 1 1.6237 10.2536 -0.573441 22
763 1 -5.03799 7.53063 9.983 19
764 1 -8.27077 -2.52599 11.1059 20
765 1 -10.2869 11.4198 6.18803 18
766 1 -3.49982 -8.9307 10.762 11
767 1 2.98378 -9.42396 4.04425 21
768 1 12.0487 2.8325 6.67407 19
769 1 8.62219 -7.01698 -5.99053 22
770 1 8.24248 -10.5768 -10.9786 22
771 1 -7.58208 1.22722 -13.4318 20
772 1 -2.11302 2.85384 -16.3735 14
773 1 6.51643 13.9398 9.44831 17
774 1 -12.1488 -5.35961 12.0854 15
775 1 -4.54176 6.61635 -10.5324 17
776 1 -13.8326 6.03137 -7.67445 11
777 1 8.22284 10.4231 -0.488478 18
778 1 -9.57395 -15.874 1.74605 13
779 1 13.9652 12.7486 5.35829 12
780 1 -10.0942 -12.5124 -5.11598 15
781 1 5.09372 16.3571 9.52168 13
782 1 -8.29473 -2.08326 15.4724 11
783 1 -1.43388 -15.87 -10.6874 7
784 1 13.369 2.20034 9.66239 17
785 1 3.55559 -18.8765 3.65893 11
786 1 2.21537 9.2438 17.1504 12
787 1 11.0876 -0.689379 -11.3473 14
788 1 6.20806 -10.3604 -0.590029 17
789 1 2.03002 0.532305 -14.2977 18
790 1 -11.897 0.486738 -12.9304 14
791 1 -8.3985 4.65874 -14.4887 15
792 1 -3.82133 6.82977 12.7664 16
793 1 11.6545 -0.815642 10.7424 20
794 1 -13.3263 -4.58261 4.41727 18
795 1 13.0573 -1.76215 2.61068 19
796 1 1.42313 4.73628 -11.6874 20
797 1 14.1933 9.03268 1.05761 14
798 1 -1.48656 15.2354 8.90203 15
799 1 -16.1471 -6.40896 4.19972 14
800 1 8.08585 -15.0781 -7.95884 11
801 2 -10.198 -0.173104 -6.78644 22
802 2 -4.58712 10.9348 -4.09321 15
803 2 1.14208 -2.96719 -12.0953 20
804 2 -2.12895 6.37779 11.8235 15
805 2 6.83102 -11.9528 -11.3607 16
806 2 -8.13924 -8.74727 -6.77442 22
807 2 2.66434 2.54663 13.813 20
808 2 5.89584 0.838303 17.7146 10
809 2 -14.9465 -10.3081 1.00651 9
810 2 -12.8992 6.97633 -6.44978 13
811 2 1.07769 13.4446 5.84121 18
812 2 -10.5991 -0.175727 3.72997 23
813 2 1.28066 17.3237 -8.08969 9
814 2 11.6659 5.52821 1.08344 14
815 2 -2.05638 14.8074 -5.12621 15
816 2 8.22115 13.1717 -6.94949 12
817 2 -11.4564 -3.67286 -11.8344 13
818 2 -11.7993 -8.6249 -7.1409 14
819 2 4.02924 0.218215 11.8664 15
820 2 6.64838 -3.39903 -10.266 20
821 2 2.49958 -16.145 2.84203 21
822 2 -6.64901 11.5329 -1.08716 22
823 2 -12.4392 1.92309 -5.54592 16
824 2 13.1884 4.44811 5.88078 20
825 2 11.8884 -11.1598 -9.96316 10
826 2 -12.3888 -12.5587 -0.172268 13
827 2 -13.2391 -4.80626 6.3632 19
828 2 -1.83118 -11.638 2.01239 22
829 2 13.8554 -5.73064 4.92315 12
830 2 -0.781378 -15.8926 -8.92546 10
831 2 5.74892 -2.28022 13.2068 19
832 2 -1.69362 9.74886 -10.3599 20
833 2 2.24232 -17.962 4.76243 10
834 2 -9.0387 -10.2756 -4.04874 15
835 2 0.0714686 4.45386 14.1316 16
836 2 -8.78676 8.78784 3.60883 23
837 2 -0.0190028 -0.877849 16.6707 12
838 2 -5.38034 8.85398 -6.4723 17
839 2 7.79293 -14.1371 1.5324 12
840 2 -0.752824 11.0825 -6.07261 17
841 2 13.1055 13.5688 6.73711 10
842 2 10.6887 15.0938 4.70351 12
843 2 10.1062 -2.16829 -10.1616 17
844 2 -5.59221 9.01836 8.83101 22
845 2 3.47068 4.76853 -15.1555 18
846 2 -6.58029 10.2292 -12.1252 15
847 2 8.12813 8.79107 -6.23779 19
848 2 -7.0407 -5.01047 13.7813 15
849 2 -10.298 8.05393 0.758396 19
850 2 11.1421 0.710595 -10.0696 15
851 2 -10.8115 -8.65078 11.7403 13
852 2 4.78137 -9.68118 -14.2049 16
853 2 -3.26542 -3.66888 -15.1037 18
854 2 -15.2507 -8.20689 3.55859 11
855 2 8.95445 12.334 -0.308701 18
856 2 -5.19671 8.56094 3.79668 25
857 2 -1.29167 -8.92773 -7.28527 20
858 2 -2.60683 16.6389 8.23173 13
859 2 6.82088 -1.33021 16.2404 13
860 2 4.36177 -8.459 11.0001 13
861 2 16.3582 4.32102 6.07693 10
862 2 3.71356 15.3083 -10.1199 9
863 2 -11.7688 2.3951 -0.616782 21
864 2 14.9859 6.07096 7.9466 17
865 2 12.6187 -10.006 -4.41496 14
866 2 11.0572 -13.2522 -5.5468 11
867 2 -5.88325 11.3844 11.2755 17
868 2 4.87263 -11.7661 2.54936 21
869 2 13.2907 -3.70203 8.62214 13
870 2 14.041 8.45786 -0.942698 13
871 2 -4.2863 -4.231 15.7625 8
872 2 13.9764 -8.00586 -1.48047 10
873 2 2.05326 9.18491 8.75731 18