ITEM: TIMESTEP
33500
ITEM: NUMBER OF ATOMS
2880
ITEM: BOX BOUNDS pp pp pp
0.0 32.8
0.0 34.14
0.0 31.8
ITEM: ATOMS id type x y z Coordination
37 1 3.11215 5.14814 0.162597 23
181 2 1.46726 0.622749 4.81634 22
3 1 1.93025 0.800518 2.66462 24
220 2 4.65325 2.53294 2.40045 19
218 2 3.28989 4.08442 4.84499 22
781 1 3.9513 0.134639 0.357645 23
217 2 4.69616 1.39303 4.71653 23
182 2 0.293211 3.73835 4.76983 23
42 1 4.83221 2.90848 5.7029 24
40 1 3.07142 3.47809 2.89207 23
184 2 1.57885 2.70633 1.92716 26
6 1 1.56196 2.49709 5.10139 22
39 1 5.14635 0.682066 3.17427 21
38 1 4.76203 3.00191 0.592493 24
219 2 3.0145 5.19555 2.26649 24
183 2 0.278132 5.55473 2.05799 24
5 1 0.0158563 5.57972 5.25504 24
7 1 1.3133 0.948068 8.25566 22
188 2 1.66694 2.54061 6.83497 25
46 1 4.80926 2.35868 10.5415 20
10 1 1.45253 2.72253 10.6875 23
43 1 4.77182 0.577887 8.22319 23
44 1 2.93418 3.35428 8.07019 21
222 2 3.12249 3.41725 10.0551 23
221 2 5.26321 0.630307 10.5427 21
185 2 1.96465 0.473538 10.0346 26
224 2 5.1043 2.4223 7.8412 22
45 1 3.56038 4.82983 11.219 21
223 2 3.34968 5.30937 7.36979 23
186 2 0.0317471 3.57358 9.28177 20
967 2 2.97516 0.13237 7.26595 22
753 1 0.136888 0.0456161 10.8507 23
228 2 4.4965 2.56204 12.6247 22
11 1 2.04779 0.59011 13.6606 22
225 2 4.83667 0.825998 15.6237 21
47 1 5.22071 0.82072 13.4135 22
48 1 3.26134 3.50741 13.6347 22
189 2 1.34112 0.607133 15.3514 23
1323 2 3.81976 0.00874864 18.1329 22
362 1 1.14279 2.85084 16.0974 22
579 2 3.36815 5.69874 18.3408 23
397 1 2.81794 5.22596 16.3217 23
226 2 2.82182 3.398 15.6578 23
544 2 1.93016 3.11945 17.8657 24
580 2 4.90895 2.91584 18.7403 22
398 1 4.50887 2.68951 16.4818 24
192 2 1.76778 2.62353 13.1996 22
227 2 2.85948 5.55835 12.8271 22
399 1 5.13739 0.978303 19.0002 23
1287 2 1.6889e-04 0.694277 18.0603 22
400 1 3.20139 3.84479 18.9967 23
363 1 1.73906 1.25337 18.5111 22
364 1 0.176251 3.70014 18.9146 24
548 2 1.44026 2.99753 23.4547 21
366 1 1.23957 3.23176 21.281 20
367 1 1.5013 0.996558 24.809 23
577 2 5.18753 1.18724 20.8638 22
403 1 5.28075 0.884327 24.5303 23
402 1 4.96517 3.02123 21.481 22
578 2 3.301 3.7221 20.8704 25
404 1 3.19338 3.75213 23.6073 20
541 2 1.83473 1.51028 20.5854 22
584 2 4.79565 2.67523 23.9275 22
1291 2 0.0264824 0.170397 23.746 24
1327 2 3.06868 0.27762 23.6228 23
1109 1 0.856747 -0.105762 21.7786 22
1145 1 3.39153 0.392417 21.6162 24
401 1 3.37924 5.38419 21.655 22
587 2 2.83783 5.58458 28.7693 21
370 1 0.95047 2.72865 27.6117 22
371 1 1.67087 0.492955 29.1691 22
582 2 2.80857 3.19913 27.6368 22
545 2 1.22325 0.704528 26.7911 21
552 2 1.29917 2.8072 29.7162 23
407 1 4.97299 0.868031 29.2247 23
408 1 3.3494 3.69956 29.4307 23
586 2 3.81944 3.63577 31.1809 24
581 2 4.75656 0.839007 26.27 22
551 2 0.199128 4.89633 28.0909 21
406 1 5.03383 2.97579 27.125 22
546 2 0.389684 2.826 25.8292 20
405 1 2.99557 5.32577 26.8017 22
549 2 2.21704 0.265014 31.4301 21
1331 2 3.33054 0.040567 28.8276 24
2 1 1.60114 2.57445 31.597 25
229 2 5.23939 6.38521 4.8658 23
50 1 4.70407 8.3991 0.0749325 19
15 1 1.85984 6.50119 2.75942 24
196 2 1.38297 8.24529 2.38319 20
232 2 5.00103 8.31391 1.9691 25
18 1 1.20804 8.65931 5.64962 25
193 2 1.49231 6.84994 5.05678 22
51 1 5.10334 6.64727 2.86552 24
41 1 3.00263 5.73942 5.62347 24
52 1 3.45028 9.47488 2.78593 23
230 2 2.88769 9.33792 4.66833 25
54 1 4.58726 8.15064 5.73624 24
49 1 3.26583 11.2695 0.514192 22
231 2 2.88204 11.4451 2.34469 21
1 1 0.078006 5.86836 0.311193 22
53 1 2.71118 11.1378 5.23185 23
14 1 1.50301 8.56037 0.447326 25
236 2 4.50219 8.26623 7.7031 24
234 2 3.80837 9.09646 10.7593 20
55 1 4.53023 6.16835 8.49087 25
22 1 1.67917 8.57017 11.4348 20
233 2 4.78664 6.03701 10.3302 21
56 1 2.78998 9.3526 8.45808 22
200 2 1.65602 8.00213 7.32861 22
19 1 1.45161 6.33599 8.5085 23
197 2 1.46868 7.39646 9.85794 23
58 1 5.3299 7.94416 10.5413 22
235 2 2.68289 10.861 7.62851 21
57 1 3.02469 10.8558 11.0122 22
9 1 0.152618 6.01589 10.6587 22
23 1 1.19409 6.19731 13.1438 20
591 2 3.57281 11.2461 17.9153 26
410 1 4.9642 7.96736 16.4888 24
60 1 3.5675 9.13672 13.4479 20
201 2 1.1281 6.35906 16.1463 24
239 2 3.35583 11.1379 13.0481 24
24 1 0.0897237 9.0984 13.6669 22
373 1 0.155613 11.1764 16.0124 22
59 1 4.72208 6.49943 13.6308 23
238 2 3.26071 8.81707 16.2313 22
374 1 1.3409 8.34946 16.8166 23
556 2 1.65682 8.3058 18.8581 22
204 2 2.02582 8.28111 13.0145 20
555 2 0.0906876 11.3068 18.2979 23
409 1 3.6027 11.0863 16.0156 20
240 2 5.22585 8.35032 13.6842 21
237 2 4.53573 6.2191 15.9805 22
375 1 1.7458 6.10224 18.475 22
414 1 5.36531 8.8546 21.7325 22
378 1 1.68656 8.35401 21.1416 25
379 1 1.63264 6.83122 23.5087 24
560 2 1.49918 8.70272 23.2973 21
590 2 3.67304 9.01306 21.0539 22
554 2 0.0135978 9.61502 21.1898 21
589 2 4.98783 6.52963 21.6595 23
416 1 3.28796 9.33311 23.918 22
553 2 1.76855 6.4108 20.8716 23
583 2 3.29111 5.90549 23.6225 23
415 1 5.27696 6.61675 24.2055 23
596 2 4.95686 8.52434 23.7743 21
411 1 4.89608 6.90415 19.4082 22
413 1 3.74553 10.995 21.1723 23
595 2 3.38407 11.3122 23.0194 22
547 2 0.00784017 5.71155 23.4208 24
412 1 3.32573 9.67035 19.1263 21
376 1 0.117456 9.54103 19.3785 23
592 2 5.18805 9.0697 19.1527 23
598 2 3.02326 9.39507 31.4349 22
382 1 1.54942 8.3805 26.1323 20
383 1 1.35361 6.4558 29.2329 23
599 2 3.08688 11.0148 28.8421 22
564 2 1.22833 8.23889 28.4709 25
594 2 3.12366 9.13131 25.7451 24
419 1 4.80978 6.28623 29.1054 23
420 1 3.12348 8.84018 29.3766 22
557 2 1.66041 6.46348 25.7588 23
600 2 4.80116 8.37769 28.7206 23
593 2 4.70626 6.76939 26.7295 20
417 1 3.50379 11.1204 27.0567 23
561 2 2.02865 6.30703 31.0348 23
418 1 4.90269 8.70799 26.5732 20
384 1 -0.0321127 9.36002 29.4269 23
597 2 4.80651 6.6331 31.6164 24
242 2 3.06406 15.116 4.60959 24
65 1 2.8851 17.0688 5.5517 22
27 1 1.48765 12.6231 3.15149 23
62 1 5.30852 14.3868 0.147597 24
63 1 4.50303 12.1222 2.71544 24
30 1 1.49508 14.2694 5.47963 23
66 1 4.64658 14.0979 5.3972 23
205 2 1.30114 12.378 5.10287 21
26 1 1.69376 14.1834 0.387114 21
64 1 3.34681 15.4642 2.19127 23
208 2 1.62648 14.5193 2.23592 21
241 2 4.40744 12.1278 5.00932 21
244 2 4.80607 13.9376 2.37521 23
28 1 -0.14982 15.3981 2.94322 26
609 2 4.76943 12.3989 0.0667909 22
573 2 1.85223 12.1593 0.400822 23
13 1 0.128058 11.2884 0.204205 25
70 1 4.44854 14.0938 10.7246 24
67 1 4.20524 12.0899 8.15045 23
248 2 4.73355 14.3872 7.43739 22
34 1 1.30994 13.5351 11.0907 22
69 1 2.58065 16.709 11.1849 24
68 1 2.72873 14.7604 8.10047 24
246 2 2.51418 14.8092 10.3205 23
31 1 0.97384 11.434 8.13896 24
209 2 1.28205 11.8282 10.2296 25
212 2 1.11281 13.5579 7.64691 22
245 2 3.98931 12.0404 10.17 19
247 2 3.09863 17.0014 7.52815 24
211 2 0.0853609 16.5663 8.11982 23
252 2 5.091 14.0214 12.6001 22
35 1 1.38064 11.9948 13.7509 23
604 2 5.21483 14.1601 18.2716 22
387 1 1.85728 12.0549 18.392 22
72 1 3.10354 14.6326 13.7006 23
213 2 1.92242 12.1295 15.8863 21
422 1 4.81431 13.6578 16.3284 21
214 2 0.456916 15.2947 16.1662 22
71 1 5.06853 12.3689 13.3817 22
251 2 3.59202 16.3428 13.1648 22
250 2 3.3415 15.0051 15.3019 24
603 2 3.64908 16.9675 18.4632 19
423 1 5.27705 12.2257 18.5957 22
249 2 5.1985 11.9404 15.5211 22
386 1 1.49564 13.93 16.6402 24
421 1 3.62913 16.6851 16.3345 24
568 2 2.01067 14.0133 18.4712 23
216 2 1.44648 13.7022 13.236 26
36 1 -0.0912865 15.1893 13.7657 25
424 1 3.51217 15.088 18.7708 22
602 2 3.33941 15.2357 20.8613 21
390 1 2.18678 13.8119 21.3533 20
608 2 4.79277 14.6792 24.1252 23
427 1 4.46784 12.5799 24.4207 22
601 2 5.14418 12.3909 20.5045 26
426 1 4.9404 14.0671 22.1183 27
391 1 1.92645 12.5819 23.976 22
428 1 3.05484 15.3146 24.9152 23
565 2 1.75069 11.8578 20.5207 23
572 2 1.71239 14.4845 23.8119 22
389 1 -0.0191324 16.5823 21.8757 24
559 2 0.317167 11.7465 23.3866 22
566 2 0.646255 14.7417 21.4358 23
425 1 3.1984 16.9953 21.7314 24
377 1 0.125013 11.6411 21.3494 23
607 2 3.25251 17.0219 23.5812 24
388 1 0.287413 14.8199 19.3736 25
396 1 0.689869 14.9438 29.8191 22
394 1 1.68022 14.0851 26.8905 23
395 1 1.92895 11.7082 30.2315 23
576 2 2.37125 13.5603 29.9239 21
606 2 3.11172 15.1528 27.159 21
430 1 5.29527 14.0739 27.3127 22
610 2 3.57609 15.7286 31.46 22
432 1 3.38183 15.1509 29.1953 19
569 2 1.79398 12.5562 25.989 19
612 2 4.89418 13.7318 28.9782 21
611 2 3.3519 17.0153 28.9434 24
605 2 5.18746 12.6412 26.352 22
570 2 0.140722 14.9159 26.3365 20
431 1 4.60903 11.9183 29.6875 22
393 1 0.614866 16.9327 26.3911 22
574 2 0.261418 15.2415 31.7107 22
563 2 0.414108 11.4846 29.1708 22
381 1 0.320871 11.3844 26.7054 24
938 2 3.21837 21.0224 4.67243 23
759 1 4.50958 18.0675 3.10988 23
723 1 1.35355 18.3665 2.99671 25
940 2 4.5433 19.972 2.54607 23
904 2 1.30469 19.9995 2.02131 24
726 1 1.66434 19.7475 5.50991 22
243 2 2.97663 17.7935 1.84526 21
902 2 0.634661 20.942 4.13557 21
937 2 4.55715 17.0106 4.8634 22
760 1 2.83175 21.0989 2.5546 22
901 2 1.19753 18.0981 4.93107 23
758 1 5.19427 19.9648 0.0421002 23
762 1 4.52135 19.6282 5.70146 24
722 1 1.89606 20.2145 0.226703 22
757 1 3.41238 22.5251 0.00806234 23
25 1 0.393845 17.1433 0.380089 23
727 1 1.44655 17.9175 8.53651 22
908 2 1.49684 19.9568 8.02525 23
942 2 2.60271 20.2447 10.3472 22
730 1 0.874609 19.532 11.2424 24
941 2 4.16565 17.4893 10.3606 21
764 1 2.80986 20.7874 8.28978 22
763 1 4.52702 17.6847 8.47107 24
766 1 4.42053 19.2231 11.152 23
905 2 1.2827 17.8548 10.6684 20
944 2 4.14988 19.7916 7.51917 22
943 2 2.8076 22.6733 7.30333 24
765 1 2.7802 22.381 10.5962 22
947 2 3.40406 22.6331 12.5741 23
767 1 4.68617 17.9119 13.5174 23
1300 2 4.93362 20.1021 18.8376 20
910 2 0.264825 21.3157 15.7298 22
768 1 3.28469 20.9595 13.3394 24
1263 2 0.202082 22.3362 18.4635 22
1082 1 1.70363 19.6937 16.0596 22
1264 2 1.92398 20.0041 18.0198 25
1083 1 1.62906 17.5916 18.942 25
909 2 1.82936 17.7748 16.0521 21
946 2 3.4199 20.4492 15.3093 22
912 2 1.29173 19.7672 13.2157 25
1118 1 4.74603 19.469 16.3069 22
948 2 4.70701 19.7254 12.7879 23
731 1 1.35869 17.9758 13.9117 24
385 1 0.0645028 17.1462 16.5554 22
945 2 5.0462 17.9368 15.316 21
1117 1 2.94231 22.3675 16.0656 21
1084 1 0.206141 20.4257 18.7497 23
1268 2 1.45127 19.9751 23.3926 26
1086 1 1.58652 19.6332 21.6443 24
1087 1 1.75075 18.1173 24.4633 23
1122 1 4.55152 20.0758 22.1706 23
1298 2 2.63116 21.0564 21.175 22
1123 1 4.78263 18.0996 24.2513 24
571 2 0.128082 17.0982 24.1767 22
1124 1 2.86428 20.8784 24.2583 22
1261 2 1.44522 17.7742 20.7589 23
1304 2 4.73268 19.9706 23.8433 24
1297 2 4.87925 18.217 21.1775 24
1120 1 3.26056 21.0316 19.1995 24
1119 1 5.11557 18.3075 19.3699 23
1127 1 5.20198 17.9947 29.8536 21
1090 1 1.98607 19.9564 27.2817 25
1091 1 1.894 18.3514 29.4072 21
1308 2 5.26724 19.6897 28.8544 25
1302 2 3.54601 20.6188 26.4665 22
1272 2 1.73052 20.1855 29.4464 20
575 2 0.235516 17.4133 28.6227 23
1128 1 3.50184 21.0623 29.3781 23
1265 2 2.29231 18.3409 26.3589 22
1126 1 5.32302 19.8321 27.0014 22
61 1 3.35612 17.872 31.8343 21
1269 2 1.53684 18.4641 31.6222 21
1301 2 5.16382 18.1948 26.2692 24
1306 2 3.52967 20.6788 31.3784 21
429 1 3.44993 17.2224 27.0978 22
738 1 1.45492 25.5281 5.49825 21
771 1 4.65036 23.6843 3.0388 23
735 1 1.24024 24.006 2.89537 24
734 1 1.99247 25.4532 0.566969 24
916 2 2.02678 26.0748 2.23442 22
773 1 3.96062 28.0761 5.88756 21
950 2 4.1546 26.3023 4.81465 21
939 2 2.99564 23.1075 2.20224 24
774 1 4.87338 25.193 5.94387 25
772 1 3.58184 26.5758 2.86069 24
913 2 1.23113 23.9171 4.98752 22
949 2 4.65228 23.5924 5.05141 21
952 2 4.58546 25.3214 1.79782 20
736 1 -0.110911 26.9556 2.58992 22
914 2 0.0581262 26.6233 4.83698 20
951 2 3.50846 28.3481 1.76844 25
761 1 2.77122 22.9027 5.22347 22
739 1 1.04874 23.5866 7.73324 21
960 2 4.41076 25.8597 12.623 22
954 2 3.26632 26.4545 10.1376 23
742 1 1.58047 25.1916 10.9036 23
918 2 0.386846 26.4404 10.0811 20
776 1 3.27709 26.4753 8.21408 22
956 2 4.99422 25.7366 7.75894 22
775 1 4.62449 23.4904 8.22502 23
917 2 1.09479 23.2177 9.85113 24
920 2 1.33369 25.57 7.65253 21
953 2 4.50993 23.8119 10.0586 21
778 1 4.77093 25.3473 10.7909 21
777 1 3.86283 27.9342 10.9206 22
911 2 -4.03301e-04 22.7745 12.8781 22
1130 1 5.1596 26.1338 16.3206 22
779 1 4.62704 23.6203 13.349 23
1312 2 5.17478 25.5522 18.0761 23
921 2 1.60959 23.4476 15.2611 22
924 2 1.6659 25.4318 13.7454 18
1299 2 3.18823 22.9706 18.9337 18
780 1 3.25788 26.6197 13.8537 23
1131 1 4.96795 23.5151 18.828 20
958 2 3.11515 26.5554 15.8103 20
743 1 1.66065 23.6398 13.47 22
1094 1 1.54782 25.3605 16.0225 21
1276 2 1.52046 25.2692 18.1327 26
957 2 4.54923 23.668 15.4137 23
1132 1 2.75849 26.5204 18.7825 23
1081 1 0.0588486 22.9084 16.3083 23
1311 2 3.1896 28.1828 18.2771 23
1129 1 3.29842 28.151 16.4664 24
1133 1 3.12348 28.5054 21.7368 22
1098 1 1.4088 25.9343 21.6183 24
1099 1 1.26774 23.8372 24.0705 22
1280 2 1.40457 25.9636 23.5068 21
1310 2 3.16041 26.7303 20.5741 24
1309 2 5.19953 23.7587 21.0611 23
1121 1 3.08687 22.8334 21.3207 21
1136 1 3.15441 26.4841 24.1569 22
1273 2 1.43357 23.7541 21.2506 22
1134 1 4.57831 25.7441 21.4645 21
1316 2 4.61004 26.3255 22.9389 21
1135 1 4.7544 23.6563 23.9481 20
1095 1 1.46901 23.4737 19.1168 23
1303 2 2.92748 22.7885 23.6304 22
1313 2 4.16036 24.0297 25.8618 20
1102 1 1.54852 26.1134 26.4637 23
1103 1 1.44477 23.822 29.295 24
770 1 4.50732 25.3918 31.826 22
1314 2 3.62951 26.9367 26.183 22
1139 1 5.20133 23.5555 29.0915 22
1138 1 4.74812 25.7416 26.7578 24
1140 1 3.36994 26.3756 29.3001 23
1318 2 2.81832 26.8907 31.0782 26
1284 2 1.86038 25.4239 28.4018 26
1320 2 4.91828 25.2821 28.9235 21
1277 2 1.44672 23.7203 26.0879 24
1281 2 1.54565 23.8303 31.3992 25
1307 2 2.99398 22.8579 28.6817 23
1319 2 3.32705 28.2444 28.8234 23
1104 1 0.445238 26.7266 29.8678 22
1317 2 4.78178 23.5528 31.1951 25
1125 1 2.92727 23.1717 26.8059 20
1271 2 0.0557564 22.8387 28.9377 23
785 1 3.20457 34.095 5.25424 22
746 1 1.90432 30.9597 0.320322 23
747 1 2.14713 28.9124 2.64611 23
928 2 2.03239 31.0343 2.49524 21
961 2 5.1173 29.4379 4.93861 25
782 1 4.98639 31.3116 0.374017 24
786 1 4.9739 31.3156 5.64604 24
925 2 2.36389 29.124 4.56647 23
783 1 5.0805 29.0982 3.00194 24
784 1 3.62486 31.508 2.96172 22
962 2 3.28283 32.2947 4.9125 22
963 2 3.57273 34.0034 2.62786 21
750 1 2.00756 31.0226 5.06755 20
964 2 5.27053 30.8283 2.16867 24
749 1 0.145854 33.7208 5.49686 22
915 2 0.49626 28.576 1.51979 25
926 2 0.412537 31.8495 5.07924 22
927 2 0.399513 34.0667 2.27971 22
748 1 0.343693 31.7914 2.59161 22
737 1 0.365961 28.5242 5.99771 22
745 1 0.118803 34.1696 0.250504 22
751 1 2.29687 29.3356 8.60764 22
932 2 1.42013 31.0941 8.6908 25
966 2 3.84452 32.6158 9.72403 22
754 1 1.81787 31.7242 10.7586 19
965 2 5.14964 29.4371 10.3288 22
788 1 2.85623 32.6717 8.32463 21
919 2 0.119786 28.7313 8.11627 20
968 2 4.67971 30.8458 7.24155 24
929 2 2.42406 29.75 11.0466 19
936 2 1.99343 31.7077 12.463 22
787 1 4.86526 29.4128 8.26135 25
790 1 4.75156 31.2205 10.8954 24
789 1 3.29226 33.7583 11.0488 23
741 1 0.275219 28.6481 10.1342 20
955 2 3.52274 28.4717 7.64583 23
971 2 3.67631 33.5502 13.2436 22
1107 1 1.41975 29.0671 18.776 22
935 2 0.214559 34.1476 13.0037 22
792 1 3.35444 31.6542 13.5593 21
933 2 1.58322 29.3064 16.1439 22
969 2 4.76763 29.3104 16.0151 20
1142 1 5.33104 31.2886 15.7874 23
755 1 1.63424 29.4067 12.8511 18
756 1 -0.0221158 31.9769 13.5764 21
970 2 3.59215 31.9111 15.4102 23
791 1 4.71084 29.0181 13.932 25
1288 2 1.71367 31.0155 18.4452 20
1106 1 1.73466 31.2775 16.1882 22
1324 2 4.61728 31.0206 18.4151 22
1141 1 3.44562 33.9493 16.2255 21
959 2 3.23367 28.7176 13.2618 22
1144 1 3.39641 32.3224 18.9231 21
1143 1 4.63459 29.3046 18.5335 22
1147 1 4.44439 29.4749 23.968 21
1110 1 1.5875 31.2166 21.7632 23
1279 2 0.0194133 28.912 22.9431 20
1292 2 1.49282 31.5057 23.763 23
1146 1 4.91503 31.1994 21.5399 20
1111 1 1.61001 29.6673 24.6019 24
1315 2 2.78034 28.6194 23.6002 23
1148 1 3.56393 32.3538 24.1852 24
1285 2 1.20559 29.4098 20.8652 22
1322 2 3.31114 32.4641 21.0791 21
1328 2 5.22023 31.166 23.9205 22
1286 2 0.24697 32.2079 20.9979 23
1321 2 4.51459 29.6974 20.9383 23
1330 2 3.60559 32.2484 31.3826 23
1114 1 1.63054 31.6122 26.7897 25
1115 1 1.90364 29.3506 29.0603 21
1296 2 1.60613 31.3921 28.6421 27
1326 2 3.43094 32.3393 26.3056 22
1293 2 1.66395 29.6989 30.9179 23
1289 2 1.82444 29.6236 26.4635 22
1152 1 3.42176 32.3835 29.541 24
1151 1 5.00354 29.3984 29.2302 24
1116 1 0.0804029 32.0153 29.883 23
1332 2 5.01677 31.2121 28.6574 24
1150 1 5.02451 31.3928 26.7176 21
1101 1 0.146295 28.7122 27.0811 22
1283 2 0.212211 28.7286 29.1452 26
1329 2 5.13601 29.4198 31.3293 24
1149 1 2.81797 34.0262 26.6866 20
1137 1 3.49414 28.5503 26.8765 24
1325 2 5.16123 29.2675 26.0966 24
769 1 3.41518 28.7325 31.6599 24
253 2 8.05099 0.958522 5.3336 21
74 1 8.63439 2.80339 0.453289 22
75 1 8.32209 0.711173 3.23651 21
76 1 6.13084 3.38437 3.36396 23
256 2 8.97176 2.30335 2.3913 21
78 1 8.50333 2.92667 5.55474 21
254 2 6.29333 3.87591 5.06566 19
112 1 10.062 3.84384 2.95683 21
290 2 10.301 4.02744 4.96307 22
658 2 10.1283 3.64862 0.245006 23
622 2 6.56774 3.71188 0.701914 23
255 2 6.68685 5.30042 2.79014 21
999 2 6.76941 0.223933 1.96685 25
77 1 6.48476 5.59144 5.99306 25
853 1 10.1204 0.290179 0.563902 22
109 1 10.0359 5.63253 0.469021 24
817 1 7.15403 0.202071 0.177263 22
113 1 9.99168 5.61209 5.94357 24
79 1 8.61806 1.1932 7.9475 22
80 1 6.66046 3.53519 8.49641 26
294 2 9.61164 3.73737 10.5677 23
82 1 8.20946 2.67538 11.3028 24
116 1 9.36629 4.11462 8.48352 23
260 2 8.22986 3.14979 7.59145 24
257 2 8.39532 1.39118 9.92716 23
258 2 6.5382 3.45376 10.4263 23
81 1 6.80679 5.27992 11.207 23
861 1 9.53284 0.116231 11.0491 23
259 2 6.58531 5.63971 8.57738 20
117 1 9.68532 5.49949 11.4657 24
83 1 8.61593 0.469144 14.0495 20
84 1 6.4926 3.5405 13.4085 23
433 1 6.15995 5.14324 16.5369 20
261 2 8.13337 1.00698 15.8364 22
262 2 6.18109 3.73914 15.2877 23
616 2 8.51266 2.45157 18.4909 21
263 2 6.05042 5.23409 13.1613 21
298 2 9.95337 3.8754 15.8075 21
264 2 8.48826 2.74439 13.2899 24
651 2 9.94899 5.35815 18.7461 21
434 1 8.24494 2.83917 16.4704 22
120 1 9.93606 3.5313 13.943 25
436 1 6.69907 3.35623 18.9972 23
469 1 9.78244 5.5052 16.8018 21
1177 1 6.49156 -6.07236e-04 16.0226 22
1007 2 7.03214 0.194232 13.1118 20
435 1 8.15066 0.72964 19.0413 25
620 2 8.41544 3.20549 24.4495 22
438 1 8.33173 2.68562 21.7217 25
439 1 8.24766 0.831921 24.6768 24
440 1 6.43525 3.73611 24.4177 21
650 2 9.75018 3.79036 21.145 21
476 1 10.2339 3.57346 24.1725 21
613 2 8.21676 0.713819 21.1266 22
614 2 6.78489 3.53402 20.987 23
619 2 6.93408 5.47374 23.7766 20
472 1 9.90142 3.53834 19.1852 24
655 2 9.81611 5.37852 23.0179 20
437 1 7.00307 5.32132 21.7547 21
623 2 6.56206 5.48524 29.1848 23
442 1 8.35451 2.90341 27.1906 22
443 1 8.11768 1.31714 29.9446 24
444 1 6.88083 3.52903 30.2282 25
624 2 8.6844 3.33385 29.4633 22
480 1 10.6789 3.53017 29.7405 23
617 2 8.52845 1.18 26.6672 22
441 1 6.51771 5.64716 26.864 23
654 2 10.0363 3.98901 26.4015 22
618 2 6.4958 3.77725 26.2802 24
1367 2 6.76621 0.158466 28.874 23
588 2 5.74971 2.75404 29.2218 20
621 2 8.9062 1.02803 31.4327 23
659 2 10.3646 5.30778 29.2703 23
477 1 9.81731 5.45435 27.3188 24
1185 1 6.81593 0.168411 27.0828 23
585 2 5.6736 0.382651 31.026 21
266 2 5.77002 9.0259 4.53082 23
265 2 8.07871 6.29177 5.24574 25
87 1 8.51842 6.71197 2.92239 26
88 1 6.49777 9.29442 2.84644 23
302 2 9.18485 9.56086 5.00846 21
670 2 9.65427 9.64397 0.574128 22
124 1 9.45155 9.68532 2.75423 22
90 1 7.74087 8.42803 5.29098 22
268 2 7.85583 8.28453 2.11464 22
89 1 6.15802 10.9784 5.36097 23
86 1 7.90694 8.57106 0.0566202 23
125 1 9.31024 11.2601 5.65872 22
303 2 10.0409 11.1876 3.85614 21
126 1 10.8097 8.80707 4.77262 22
291 2 10.2625 5.85982 2.34694 24
634 2 6.30129 9.41964 0.194809 22
73 1 6.58747 5.8817 0.772997 24
91 1 8.20115 6.71278 8.69455 24
92 1 6.25244 9.119 8.17257 21
306 2 9.9457 9.36529 10.1538 24
94 1 8.22551 8.21914 11.4982 23
128 1 9.53617 9.02854 7.9632 26
272 2 7.78586 8.09242 7.38086 24
269 2 8.19904 6.50577 10.6462 24
270 2 6.72744 8.84442 10.466 23
271 2 6.36629 10.9514 7.22692 24
93 1 6.42524 10.7504 10.9049 25
129 1 9.7127 11.103 10.756 22
295 2 9.8325 6.03123 7.81752 21
307 2 9.4556 11.1421 7.83341 19
276 2 8.0915 8.49793 13.467 22
96 1 6.53241 9.47972 13.7489 22
132 1 9.59777 9.71837 13.3946 21
273 2 7.87503 6.20702 16.0499 22
274 2 6.42379 9.23492 16.0378 22
628 2 8.55938 8.41617 18.0895 25
299 2 9.40734 5.9381 13.2861 24
310 2 9.56912 9.30859 15.2097 24
95 1 7.51566 6.40919 14.0822 24
615 2 5.77958 5.60848 18.3642 20
446 1 8.43492 8.04408 15.8714 22
448 1 7.05497 9.54339 18.6543 23
447 1 7.73019 6.91982 18.7507 20
445 1 6.81249 11.1926 16.1992 23
481 1 9.83627 10.8857 16.2098 21
484 1 9.70294 9.49201 19.0706 21
632 2 8.04047 7.76634 24.0627 21
450 1 8.07805 8.4145 21.3122 22
451 1 8.68276 6.0265 24.5464 20
452 1 6.57617 9.71629 24.2531 22
662 2 9.86423 9.20424 21.289 21
488 1 9.84379 9.71889 24.2939 20
625 2 8.04275 6.2417 20.2976 23
626 2 6.94003 9.72267 21.2114 25
473 1 9.77592 5.95358 20.9485 21
667 2 8.2863 10.5628 23.8237 20
485 1 9.60262 11.0654 21.9534 18
666 2 9.78154 9.3776 26.091 22
454 1 8.27221 8.54669 26.9717 25
455 1 8.38933 6.1658 29.6208 21
456 1 6.67337 9.31968 29.8165 23
636 2 8.10372 8.27086 29.2861 22
492 1 9.70761 9.19956 29.9978 23
629 2 8.22586 6.48326 26.7287 20
635 2 6.53541 11.2055 29.1949 25
630 2 6.48755 10.0474 26.0686 22
671 2 9.65707 10.8321 29.1064 22
489 1 9.74956 11.0909 27.4636 23
633 2 8.46132 6.11906 31.4585 23
277 2 7.50822 12.1964 4.8884 22
98 1 8.57268 14.2682 0.36604 20
99 1 8.20789 12.2106 2.96162 22
100 1 6.53 14.707 2.96043 23
278 2 6.41672 14.8105 5.0197 20
102 1 8.10476 13.846 5.41067 25
314 2 9.55776 15.1033 4.8862 24
136 1 9.81539 15.4973 2.86762 21
280 2 8.31911 14.3312 2.27119 23
85 1 6.41034 11.411 0.417324 23
279 2 6.32136 16.8603 2.5404 21
101 1 6.31689 16.9929 5.91703 25
645 2 8.23956 12.2485 0.0836424 22
267 2 6.67624 11.6004 2.54396 24
137 1 10.0687 16.6568 5.58995 21
682 2 10.1432 15.8962 0.11079 21
103 1 7.77693 11.9457 8.32726 23
104 1 6.39896 14.514 7.9621 21
318 2 9.05518 14.5914 10.075 23
106 1 7.59699 13.8212 10.8781 23
140 1 9.54226 14.6964 8.3189 23
284 2 7.9678 13.5803 7.21245 23
281 2 8.08281 11.7928 10.3061 23
282 2 6.09305 14.0687 9.83997 22
287 2 6.40787 16.9613 12.406 22
283 2 6.17071 16.8611 7.71227 21
323 2 9.64943 16.9071 12.7468 23
319 2 9.53111 16.6658 7.54087 24
105 1 6.30805 16.6434 10.6869 23
141 1 9.6564 16.8844 10.9031 24
142 1 10.7237 14.0455 10.7946 22
275 2 6.7141 11.5152 12.6627 23
107 1 8.28876 12.4749 13.471 25
108 1 6.42363 15.2783 13.3711 23
144 1 9.605 15.224 13.8408 25
285 2 8.37644 11.9096 15.5183 23
286 2 6.47721 15.4885 15.5201 22
311 2 9.75234 11.4068 13.0044 26
288 2 8.18525 14.4502 13.0828 22
322 2 9.60356 14.9008 15.9258 18
675 2 9.93026 17.0304 18.6877 21
676 2 10.6416 14.6122 18.4946 19
458 1 7.75402 14.3805 16.3857 22
493 1 9.88779 17.0255 16.8232 22
663 2 9.86463 11.4141 18.6003 19
627 2 7.02377 11.4795 18.7146 20
674 2 10.2398 15.3789 21.8189 21
462 1 8.17914 14.9216 22.2099 23
463 1 7.70269 12.2965 24.2685 20
464 1 6.55888 15.2066 24.8386 23
644 2 7.97563 14.7634 24.2964 22
500 1 9.93412 15.2975 24.4703 21
637 2 8.38983 12.6905 22.3611 22
638 2 6.5641 15.4015 21.6895 25
496 1 9.83298 15.3952 19.9243 20
631 2 5.93717 12.3466 23.5429 21
449 1 6.52731 11.6489 21.7853 22
459 1 8.2913 12.8192 19.3861 22
673 2 10.9165 12.5284 21.3006 20
460 1 6.05014 15.5656 19.1007 23
640 2 7.8034 14.7879 19.4948 21
646 2 6.90153 15.2896 31.5118 23
466 1 8.61668 14.2531 26.9925 23
467 1 8.51766 12.4219 29.5454 21
468 1 6.65906 14.7683 29.754 22
642 2 6.80254 15.3434 27.0934 20
504 1 10.1752 15.648 30.0032 26
641 2 8.29316 12.4197 27.2519 20
678 2 10.3272 14.8644 26.3169 21
647 2 6.51536 16.6545 28.9761 24
648 2 9.05691 14.2128 29.0918 23
501 1 10.4256 16.8265 27.2586 23
453 1 6.56538 11.4865 27.0549 24
121 1 9.91593 11.4567 31.6742 18
1010 2 9.77592 21.0521 5.58208 19
973 2 7.8485 18.1152 5.06238 23
795 1 7.64674 17.9233 3.30968 21
796 1 6.34213 20.4399 3.07947 21
976 2 8.0062 19.5181 2.29657 20
798 1 8.45599 19.6896 5.7933 24
974 2 6.05075 20.7084 5.29335 21
832 1 9.60906 20.5441 2.621 20
1011 2 10.0777 22.321 2.75249 21
315 2 9.90085 17.5022 3.12798 20
794 1 7.87401 20.6517 0.133812 21
797 1 6.52239 22.2573 4.95967 20
1378 2 9.84919 20.979 0.560133 20
133 1 9.7126 17.6859 0.962969 26
97 1 7.24616 17.3032 0.212863 21
979 2 6.48514 22.4046 7.82487 20
800 1 6.14133 20.5215 8.08853 19
1014 2 9.32166 20.8389 10.4791 21
802 1 7.6981 19.5222 10.885 23
836 1 8.79758 21.3221 8.73739 21
980 2 7.80785 19.6529 7.64342 22
977 2 7.94875 17.6419 10.5447 21
978 2 6.1719 20.3806 10.1414 24
799 1 7.98727 17.7776 8.4811 22
837 1 9.48804 22.7944 11.1959 25
1013 2 10.974 18.0341 10.2274 22
983 2 6.42784 22.5803 12.6312 23
801 1 5.80962 22.3629 10.8153 22
1336 2 7.79002 20.1514 18.7249 25
1153 1 6.33936 22.212 16.2146 23
840 1 9.83229 20.8379 13.6602 22
981 2 8.71152 17.9965 15.7699 22
982 2 6.11584 20.3557 15.549 21
639 2 6.56942 17.1418 18.3863 24
803 1 8.07446 17.8951 13.2295 22
1018 2 9.84109 20.688 16.1492 22
804 1 6.39281 20.9526 13.6465 23
1154 1 7.92263 19.8961 16.4185 23
457 1 6.5883 17.524 16.198 19
984 2 8.23573 20.0448 13.4685 22
1371 2 9.4615 22.3389 18.5344 23
1335 2 6.53004 22.6039 18.1705 22
1192 1 9.91622 20.5117 18.5187 25
1370 2 9.78849 20.2481 20.6294 25
1158 1 8.28493 20.1972 21.6531 22
1159 1 8.21128 18.1267 24.5553 22
1160 1 6.60028 20.7983 24.1831 24
1340 2 8.17389 19.7208 23.5506 23
1196 1 10.3214 20.7404 23.9426 23
1333 2 8.12896 17.7721 21.1568 24
1334 2 6.19897 20.9223 21.8064 22
1375 2 9.99485 22.5245 23.6612 23
461 1 6.48028 17.5753 21.9852 26
1155 1 8.12022 17.8069 19.1639 23
497 1 9.53214 17.1055 22.1686 23
679 2 9.94445 17.3834 23.9691 22
1156 1 6.3209 20.8523 19.6578 25
1157 1 6.85524 22.5431 21.5662 22
643 2 6.65604 17.138 23.7981 23
1344 2 8.42676 20.1783 28.7715 21
1162 1 8.25995 19.8765 26.6069 24
1163 1 8.35228 18.247 29.6572 23
1164 1 6.51531 21.0832 29.2391 23
1374 2 9.89801 20.6686 25.7371 24
1200 1 9.7989 21.2512 29.5606 22
1342 2 6.80831 21.8808 30.9866 21
1338 2 6.77897 20.6845 26.0506 19
1343 2 6.38696 22.5821 27.8569 24
1337 2 8.39385 18.0715 26.4354 24
465 1 6.53717 17.0982 27.0127 23
1161 1 6.80868 22.6875 25.8111 22
1305 2 5.59627 18.2237 31.6705 22
683 2 9.96092 17.3027 28.858 24
1341 2 8.45659 18.8722 31.2724 22
1197 1 10.1767 22.6074 26.9703 24
986 2 6.56115 26.6404 5.2422 20
988 2 8.484 25.7041 3.25752 18
807 1 8.18155 23.6424 2.97492 20
808 1 6.50501 26.7191 3.10865 25
841 1 9.37713 28.2886 0.825772 24
810 1 8.18363 25.299 5.50601 22
985 2 8.12634 23.2365 5.29854 21
844 1 9.86763 26.6714 3.4473 24
805 1 6.66909 28.2726 0.634204 22
1022 2 9.79235 26.9524 5.3227 22
987 2 6.88378 28.3878 2.55959 21
833 1 10.0606 22.8732 5.94218 19
829 1 10.0911 22.9155 0.832215 22
975 2 6.40011 22.8776 2.3463 26
806 1 8.43281 25.4094 0.262453 20
1353 2 8.46499 23.5721 0.0500154 21
793 1 6.41089 23.3213 0.495413 19
811 1 7.72634 23.9384 8.38865 21
812 1 6.49515 26.7195 8.43996 26
1026 2 9.71641 26.4629 10.1198 26
814 1 7.9529 25.8877 10.489 20
848 1 9.83271 26.3291 8.04092 23
992 2 8.05817 25.6138 7.57427 23
989 2 8.09652 23.5663 10.0259 24
990 2 6.35968 26.5343 10.8094 20
991 2 6.53533 28.2651 7.51944 25
849 1 9.64949 28.1259 11.2127 24
1027 2 10.1808 28.2032 7.87457 23
1015 2 9.50041 22.9635 8.09842 20
996 2 8.11511 25.1832 12.7039 23
815 1 8.02407 23.4649 13.6149 21
1167 1 8.26066 23.5217 18.9722 23
852 1 9.26754 26.1313 13.7919 23
1168 1 6.6209 26.4077 18.7483 21
994 2 6.63697 27.1287 15.6935 22
816 1 6.35426 26.4588 13.0168 20
993 2 7.7599 23.7629 15.5749 23
1030 2 10.1664 25.9793 15.6001 22
1204 1 10.2268 25.9107 18.993 24
1166 1 8.61131 25.2847 16.4954 21
995 2 7.05621 28.3983 12.6663 22
1383 2 10.3503 28.2477 18.1413 24
1348 2 8.41925 25.4077 18.3934 23
1031 2 9.87083 28.0524 13.2096 23
1201 1 9.76666 28.1912 15.8796 23
1019 2 9.70438 22.8464 13.3935 20
1189 1 9.24605 22.9515 16.6087 22
1352 2 8.48448 25.5117 23.499 23
1170 1 8.21302 25.447 21.2691 22
1171 1 8.43548 23.7194 24.0008 22
1172 1 6.85262 26.5744 23.9517 23
1382 2 10.3815 26.5297 20.7934 22
1208 1 10.0712 26.5836 24.1402 24
1345 2 8.59753 23.465 20.8131 23
1346 2 6.70487 26.6441 20.697 21
1387 2 10.0008 28.4664 23.5138 21
1339 2 6.59015 23.0334 23.9489 21
1193 1 10.0238 22.8992 21.9022 23
1205 1 10.1758 28.2009 21.2805 24
1351 2 6.90992 28.2396 23.161 23
1356 2 7.76416 25.8603 29.3462 20
1174 1 8.07939 25.295 27.1536 24
1175 1 8.13017 23.5828 30.0 25
1176 1 5.97454 26.6908 29.6691 23
1390 2 9.99179 26.5814 31.5204 24
1212 1 9.38107 26.6533 29.6065 21
1349 2 8.86338 23.7769 26.0188 20
1350 2 6.72409 26.3386 26.4505 20
1386 2 9.77433 26.3159 26.2487 23
1391 2 9.89596 28.0842 28.8256 22
1379 2 9.24038 22.7908 28.825 22
1209 1 10.3261 28.018 26.9597 22
1354 2 6.29019 26.4453 31.6735 23
997 2 8.33208 29.5593 5.17037 24
998 2 6.48767 32.2546 4.97543 24
819 1 8.0842 29.8293 3.24207 24
820 1 6.38906 32.1685 2.72435 22
1000 2 8.18595 31.7067 2.82746 19
822 1 8.06925 31.5787 5.88829 24
1034 2 10.0283 32.2119 5.22807 22
856 1 10.0476 32.2021 2.75755 22
1035 2 10.0282 34.0638 2.98534 19
821 1 6.76937 34.0531 5.76755 23
845 1 10.3018 28.7049 5.79317 21
857 1 10.1379 33.8926 5.76752 21
1023 2 9.60797 28.5875 2.70666 21
809 1 6.92017 28.47 5.70578 26
1402 2 9.93382 32.6594 0.0938703 21
823 1 8.48133 29.3461 8.24481 24
824 1 6.20988 31.6006 8.50987 22
1004 2 7.7931 31.2063 7.80985 23
826 1 8.49225 31.1108 10.5866 21
860 1 9.49491 32.2654 8.2393 24
1038 2 10.3087 32.5612 10.1515 23
1001 2 8.21508 29.2156 10.1492 25
1002 2 7.05519 32.0983 9.99067 22
1008 2 8.66834 31.1058 12.5834 24
1003 2 6.18372 33.9744 7.63798 25
813 1 6.54924 28.4097 10.8302 24
1039 2 10.1049 34.1099 7.53333 24
825 1 6.93496 33.9507 9.77892 22
827 1 8.33598 29.3063 13.595 22
828 1 7.15924 31.9179 13.4385 21
864 1 10.1767 31.9415 13.7584 23
1005 2 8.33902 29.5476 15.4902 24
1006 2 7.0948 32.2108 15.3926 22
1165 1 6.48724 28.6991 16.5417 21
1179 1 8.73127 28.8808 18.8625 19
1042 2 9.9138 32.0417 15.5374 25
1213 1 9.62642 33.9424 16.4466 25
1360 2 7.96062 31.4647 18.1379 22
1178 1 8.49054 31.1848 16.3075 22
1347 2 6.70058 28.6308 18.4872 21
1043 2 10.2281 34.0834 12.8081 24