ITEM: TIMESTEP
7000
ITEM: NUMBER OF ATOMS
2000
ITEM: BOX BOUNDS pp pp pp
-30.0 30.0
-30.0 30.0
-30.0 30.0
ITEM: ATOMS id type x y z Coordination
1 1 -11.9811 5.89212 -13.4037 11
2 1 -7.01262 -9.01677 -8.40332 18
3 1 0.110728 14.7317 10.5396 11
4 1 7.27672 -10.5463 5.37151 17
5 1 -11.711 11.0942 -0.70988 20
6 1 9.0099 -7.89788 -13.5418 14
7 1 -11.3706 6.02677 -4.57079 19
8 1 -0.0758051 -0.883762 9.185 16
9 1 -9.25986 0.742814 -14.0422 17
10 1 -12.5648 -9.77662 4.45985 19
11 1 12.0975 1.65422 -10.3188 16
12 1 -4.14561 1.86212 -7.36912 20
13 1 -4.23967 -11.6419 1.61959 18
14 1 -10.0801 -10.5313 2.47076 22
15 1 -1.52379 4.21359 15.6249 12
16 1 8.94693 -1.47552 4.43705 17
17 1 1.13083 4.1061 8.11256 22
18 1 9.61831 -6.51234 4.97128 18
19 1 -4.61332 12.0685 -9.62809 19
20 1 -1.23504 4.33863 12.6719 20
21 1 -10.7355 3.60608 -14.1835 14
22 1 -14.3561 -3.28081 10.3613 16
23 1 11.7573 5.16829 7.82906 22
24 1 -2.39793 10.5798 -11.8147 23
25 1 2.52133 7.70367 -14.4891 18
26 1 14.3252 0.308312 10.0064 11
27 1 -7.54148 0.825487 -2.44233 23
28 1 -12.6396 4.72838 -7.52786 17
29 1 0.255304 -1.31625 -10.4542 19
30 1 -13.0209 7.96577 5.16426 20
31 1 6.12257 -13.3 5.65838 9
32 1 1.40994 -3.25051 6.9566 18
33 1 0.988742 -12.443 -11.3701 17
34 1 8.20709 -11.0737 -0.409181 14
35 1 -7.20499 -12.1459 -6.80823 18
36 1 -13.6975 -6.5777 9.94368 16
37 1 1.54214 -3.53886 -6.73957 20
38 1 -2.29825 -3.56809 -14.8639 21
39 1 7.1608 -8.42967 -15.818 10
40 1 -3.89708 5.9534 -15.1048 14
41 1 -1.7708 5.10628 9.74825 22
42 1 0.39888 -12.0403 5.96187 16
43 1 5.42019 -4.08094 11.9805 19
44 1 -14.2531 -2.72954 1.09004 22
45 1 -18.2137 -3.92414 4.64015 14
46 1 -9.93607 -0.145376 -0.94544 21
47 1 -4.53934 17.2792 -8.35988 7
48 1 -0.608138 -12.6861 -13.7351 13
49 1 2.52107 1.36883 -10.0419 19
50 1 4.57294 -5.51987 -10.5613 16
51 1 -3.14946 -0.782431 11.1956 17
52 1 -14.0644 6.02293 0.477293 18
53 1 4.50837 11.5176 -15.2011 9
54 1 1.79696 13.5627 6.59477 17
55 1 -9.89441 10.1624 -8.26776 20
56 1 -1.63873 15.5729 -2.66975 20
57 1 2.00303 -9.46527 3.22678 15
58 1 5.9789 -7.76371 -5.36198 21
59 1 3.74925 -3.6366 -17.2706 16
60 1 -8.60132 7.15667 8.92419 20
61 1 -13.932 -2.17624 -6.75563 17
62 1 9.40591 -4.34175 2.38328 19
63 1 -6.92097 8.60909 -4.73358 19
64 1 -8.10449 -10.9841 5.46633 20
65 1 -6.21006 14.9425 8.04154 14
66 1 -13.7408 7.50773 -5.89526 14
67 1 -8.21012 11.6122 10.6082 11
68 1 0.0441263 5.28811 -6.98069 20
69 1 -1.96369 7.64425 5.25155 20
70 1 -6.14616 -15.5476 8.13963 13
71 1 1.94902 7.06119 2.71147 18
72 1 5.89199 -13.7494 -5.97264 10
73 1 3.22306 13.8499 12.875 8
74 1 -14.2534 3.35845 -9.18364 12
75 1 -9.87117 8.18884 -5.11554 19
76 1 3.06337 4.23627 11.3393 20
77 1 13.2694 -2.9895 -10.8524 13
78 1 9.78758 -11.8893 2.97039 10
79 1 -17.5799 -6.8071 4.44285 11
80 1 -9.02584 -2.93566 0.113204 24
81 1 3.36059 14.9595 4.12489 12
82 1 2.91418 -2.44291 13.6658 13
83 1 -5.40297 -12.9607 4.1905 21
84 1 -11.6831 -2.65661 -1.28318 18
85 1 10.9948 3.09847 5.84263 21
86 1 7.76492 -2.64129 -4.3793 19
87 1 -3.04833 13.466 8.07744 22
88 1 5.7528 3.98134 4.73112 19
89 1 -5.95705 -3.69919 1.76298 18
90 1 -3.85468 -3.78262 -9.64037 19
91 1 -10.1021 7.62396 5.86504 19
92 1 -10.1342 13.8677 -2.20538 18
93 1 -6.04161 6.33351 -10.234 19
94 1 5.42172 0.504629 -10.4663 17
95 1 5.74017 -1.48704 -6.6935 22
96 1 11.2755 13.4847 -8.67799 11
97 1 8.34044 -4.24493 6.17588 16
98 1 6.36594 -9.83005 7.48397 15
99 1 -4.71985 15.6484 -4.38407 16
100 1 -8.68835 15.1842 0.614853 15
101 1 -9.30609 -3.00114 12.7086 14
102 1 -7.52551 7.68176 4.41165 19
103 1 -5.9743 -4.88004 8.05603 17
104 1 11.6532 -9.20016 -8.07672 9
105 1 -9.53192 3.57483 2.52307 21
106 1 -10.3039 -15.6404 1.41919 12
107 1 8.57602 -8.55408 -7.58899 17
108 1 4.78859 1.26328 -13.6798 16
109 1 -10.6159 0.174673 -16.262 7
110 1 0.133158 11.3808 -1.5923 19
111 1 -7.82961 7.62162 -7.73118 16
112 1 0.349234 9.9956 14.5524 14
113 1 -0.682183 13.2151 -4.81008 21
114 1 -14.9532 12.745 -0.289287 15
115 1 -1.0968 7.82989 1.63891 20
116 1 -4.08661 -9.38603 8.18389 20
117 1 8.69804 -2.79655 8.456 20
118 1 1.50288 -5.17094 -9.96469 21
119 1 4.41703 -7.81207 -9.39689 22
120 1 2.09556 0.319349 7.5792 23
121 1 3.59857 -0.033526 15.0208 12
122 1 -9.09639 -4.95287 -2.48871 23
123 1 6.45136 -6.8221 6.22903 20
124 1 -10.1027 -7.87446 -1.77522 20
125 1 11.0359 -9.96106 1.15695 12
126 1 -6.34024 7.47204 1.34269 21
127 1 5.61513 6.51823 -14.5923 17
128 1 6.04374 17.9641 -4.17384 11
129 1 -9.48661 -12.1716 10.8107 15
130 1 -12.0456 -14.3496 8.6722 10
131 1 2.50746 -6.37026 -14.851 17
132 1 2.63352 6.07576 -7.12647 20
133 1 10.9626 -10.1608 -2.23208 14
134 1 0.160477 -15.9172 1.80086 14
135 1 -10.102 -12.6531 0.552172 19
136 1 14.7883 6.23979 8.45207 14
137 1 14.9035 -2.91231 -8.26563 12
138 1 -14.9899 -8.16724 3.03367 13
139 1 13.7197 8.95631 4.20853 20
140 1 15.9803 7.76291 2.33624 13
141 1 -9.43256 3.93528 13.0585 14
142 1 5.1497 8.48412 -3.97883 21
143 1 -5.29983 12.4659 9.48358 17
144 1 -4.63894 14.073 -7.5744 18
145 1 -1.0095 -4.26589 -11.2465 21
146 1 7.42472 -10.9088 -13.2888 10
147 1 -0.0668442 13.1561 -12.3014 11
148 1 5.51335 -1.83345 8.80109 20
149 1 0.680408 -0.104945 -19.1479 14
150 1 -2.47347 11.5521 -7.77647 20
151 1 14.2638 0.249501 -3.9484 17
152 1 -12.9981 9.83929 -9.46845 12
153 1 -11.7116 13.9311 0.39307 16
154 1 8.45854 -0.930627 -10.5979 18
155 1 10.7239 -9.65143 4.75287 13
156 1 -8.09062 2.06083 -8.28528 17
157 1 -11.576 10.1853 5.67369 19
158 1 14.7944 6.42297 -7.75772 16
159 1 4.91003 11.2636 -3.98899 22
160 1 -2.54237 14.431 0.27143 18
161 1 8.88969 10.3154 -1.49201 19
162 1 -3.84837 12.5973 -5.50909 19
163 1 0.528137 11.6679 -9.77333 19
164 1 2.94054 10.3522 -17.036 12
165 1 -11.5365 -13.0742 2.95726 14
166 1 -11.914 9.44018 -3.54196 19
167 1 -5.48202 -1.10309 -10.3536 21
168 1 -0.0698276 -7.64346 -16.7254 12
169 1 9.09972 12.6097 6.10302 17
170 1 -1.71389 17.0203 3.86556 12
171 1 -11.2536 -3.844 -5.48192 18
172 1 -8.79433 11.5987 1.17893 19
173 1 17.1956 -1.58592 -3.00859 11
174 1 -9.71415 2.57808 -11.3455 17
175 1 6.79299 0.945789 14.9695 12
176 1 3.00972 17.978 0.347422 11
177 1 -2.5477 10.3128 6.86445 17
178 1 0.787399 -4.77348 -17.2023 13
179 1 -6.28798 12.1379 6.30556 20
180 1 0.394461 10.9467 -6.85648 22
181 1 2.56827 -5.41296 11.7603 16
182 1 -11.7416 -7.02475 6.18594 21
183 1 -5.20189 -10.3481 -14.5616 16
184 1 -10.3505 11.2941 -11.2401 16
185 1 -2.43514 -14.1956 4.12369 15
186 1 2.61485 -12.5546 -6.18811 15
187 1 -5.11566 13.5014 -15.5202 7
188 1 -19.0548 -0.670969 5.19371 15
189 1 -0.830473 7.67489 -2.26768 21
190 1 9.62738 5.04519 -6.5541 17
191 1 -12.8592 4.16656 12.0299 11
192 1 0.92786 -9.69502 8.77922 18
193 1 -9.10866 0.585814 1.56248 22
194 1 1.16349 15.0201 -0.974166 19
195 1 -1.4296 4.48132 6.17895 21
196 1 10.9784 4.93949 13.2331 14
197 1 -6.87931 13.5153 2.60121 18
198 1 12.4413 -5.59456 -9.95508 13
199 1 -9.24404 12.5303 7.74384 16
200 1 -6.10654 2.75014 -10.6364 20
201 1 14.0741 -5.07423 5.36891 12
202 1 -9.07785 -5.74635 7.05814 22
203 1 -15.5319 -1.79315 6.44015 21
204 1 -7.25854 -11.415 2.10584 20
205 1 3.39941 7.40138 11.955 17
206 1 -17.7118 -1.49925 -3.12633 9
207 1 -2.36206 -13.5388 -2.56751 22
208 1 -7.24237 -3.89281 -5.43109 18
209 1 6.68907 -5.36305 -3.07788 21
210 1 -3.97696 12.7564 2.57803 18
211 1 -6.62656 -1.25111 2.5311 21
212 1 2.77381 11.8548 9.31221 16
213 1 -8.09417 -0.299293 -6.41543 17
214 1 -7.64318 12.2966 -9.54291 16
215 1 -15.7024 -4.09304 -4.60952 16
216 1 -9.86332 -1.92161 7.37813 18
217 1 -0.528365 -8.974 2.26844 16
218 1 2.74405 -13.4884 4.71892 15
219 1 -15.5281 10.2247 2.05187 14
220 1 17.6542 3.13743 5.02587 10
221 1 6.80234 0.703563 -7.84274 22
222 1 -5.98139 -7.48733 -14.023 15
223 1 3.57776 0.931188 10.1468 18
224 1 5.18201 -15.1269 3.3831 14
225 1 -2.85262 7.28956 -11.2944 22
226 1 1.4727 -9.86665 -14.0519 17
227 1 6.97921 3.99754 -12.9317 18
228 1 2.70857 5.12764 -16.5765 21
229 1 -6.53367 -6.39661 -6.88234 19
230 1 0.819672 14.5188 -7.6087 16
231 1 -12.2388 -11.2217 12.636 9
232 1 8.12258 15.7496 -3.22857 14
233 1 -9.61193 2.42971 9.94826 20
234 1 -7.62101 14.1015 -4.05241 14
235 1 3.63913 3.4078 8.14111 21
236 1 -3.62539 -5.64929 -12.5917 23
237 1 -1.42975 9.12904 -9.43047 20
238 1 2.855 6.61833 -11.5377 20
239 1 -8.15528 -13.4947 7.04391 19
240 1 -11.3196 2.58094 4.74759 20
241 1 -5.78841 6.14057 6.8205 18
242 1 -2.02583 -10.8551 -9.57941 21
243 1 -4.83768 -15.3324 1.99301 20
244 1 8.56299 -12.0281 -4.12929 15
245 1 0.0641144 -6.35842 -4.67455 20
246 1 11.6005 7.2348 11.6544 14
247 1 6.331 10.2153 -9.22481 18
248 1 -3.72631 9.67556 -2.77023 20
249 1 -11.1037 -1.62726 1.64045 22
250 1 -13.9563 11.9852 -3.19041 13
251 1 0.657068 5.66448 10.8985 20
252 1 4.46306 -16.0098 -2.0085 14
253 1 16.0834 -0.42301 -0.762039 16
254 1 0.888702 9.66335 6.50138 18
255 1 -9.54764 6.7916 1.71899 20
256 1 -11.1721 -6.88764 -4.49311 20
257 1 3.59193 4.03311 -13.8013 20
258 1 5.65177 -0.79911 11.6887 19
259 1 9.24325 10.941 -9.88724 14
260 1 -0.662301 -8.53128 -7.07513 20
261 1 -2.63075 2.4179 -13.7383 24
262 1 -0.467367 -19.0256 1.95372 9
263 1 11.0072 -0.826354 -3.35818 20
264 1 -11.7966 -3.67027 5.64622 21
265 1 2.12031 -14.168 -4.03167 18
266 1 -10.8432 -4.20855 -8.20756 17
267 1 4.69366 14.3759 -3.84999 19
268 1 -3.67709 -0.635103 -14.8088 19
269 1 1.60031 5.09463 14.2579 20
270 1 17.2966 2.10321 1.8764 12
271 1 -5.91808 -8.91373 1.14299 18
272 1 11.1996 -5.67298 -12.7799 15
273 1 -1.20101 -5.70749 3.23479 17
274 1 -10.6515 -4.60774 -12.38 13
275 1 -11.2595 2.42409 -8.54157 22
276 1 -9.84449 -15.2074 8.93472 11
277 1 8.06332 2.31772 5.50728 18
278 1 7.988 -5.41961 11.7827 15
279 1 -9.22622 -7.39415 -12.4072 13
280 1 1.43664 -7.96645 11.3016 12
281 1 -0.997632 7.05319 -13.5091 20
282 1 8.4934 7.46625 -1.57001 18
283 1 -9.05019 -7.83106 1.10667 18
284 1 -0.320276 13.0125 1.40993 20
285 1 -5.83756 -2.50593 11.0043 14
286 1 -12.7221 -8.55291 -7.74992 13
287 1 -8.78585 -2.85545 -10.1357 17
288 1 -3.76402 9.36216 -14.6586 16
289 1 -9.68888 -9.95871 -4.08479 22
290 1 -3.55591 -8.40914 -0.299047 19
291 1 6.73681 -3.1399 -15.9928 16
292 1 15.2032 0.195413 -9.32464 13
293 1 12.8584 2.34119 3.37875 18
294 1 -4.17414 -3.76141 -3.72231 18
295 1 -11.5114 -4.62718 8.68957 24
296 1 -2.60326 -10.2899 -2.60764 19
297 1 8.36082 7.10459 11.4055 20
298 1 -4.62614 -17.0475 4.60012 13
299 1 -1.06221 -11.073 0.432602 18
300 1 -2.29917 18.1364 -3.19538 14
301 1 6.67049 1.44904 -18.1606 13
302 1 -7.91521 -4.97423 -14.213 13
303 1 -12.4879 -7.95952 12.7817 11
304 1 2.44579 7.68111 15.2035 13
305 1 0.232028 -11.9823 -2.53015 18
306 1 -6.2216 -13.235 -12.7259 9
307 1 -7.82187 9.3332 -10.7858 20
308 1 11.4079 6.83826 5.67126 21
309 1 -9.20745 4.95012 -7.66545 18
310 1 0.230871 9.14363 -11.899 20
311 1 -4.22361 -4.71261 5.18837 18
312 1 6.24423 -12.1244 -11.2408 16
313 1 -4.57187 15.755 -1.38691 16
314 1 3.32993 8.66382 4.74783 22
315 1 12.4203 0.594361 6.16233 19
316 1 -10.9328 -0.187477 4.52003 21
317 1 -4.37576 -6.99183 9.70085 15
318 1 -12.3024 11.3167 2.28664 24
319 1 4.33874 -3.12096 -13.925 22
320 1 15.1488 11.1522 -3.83619 7
321 1 3.04125 -9.8987 -2.94956 20
322 1 -3.18418 -1.46855 13.8172 11
323 1 -18.0913 -6.30818 7.23096 11
324 1 0.355442 -15.61 -6.33239 14
325 1 -11.2966 6.28225 10.9861 16
326 1 -7.22855 3.23229 8.40847 21
327 1 -16.9001 -4.71605 9.58807 11
328 1 -14.4575 -10.114 10.7304 10
329 1 14.5857 -6.09184 -2.89335 12
330 1 -13.264 -9.15038 7.93129 16
331 1 9.28629 -4.15808 -9.92403 18
332 1 9.30996 -13.3975 -7.11273 9
333 1 3.1346 18.5042 -5.71554 13
334 1 -4.08255 -5.80114 2.12153 17
335 1 -10.7359 15.1075 -5.66928 12
336 1 2.15789 2.62436 5.61851 22
337 1 7.95972 10.0961 7.93455 20
338 1 -9.45483 -2.6968 3.18181 18
339 1 5.68682 -10.6117 -4.62761 17
340 1 -4.03196 9.33924 0.961748 21
341 1 -6.10334 10.3948 2.73972 25
342 1 3.98968 -11.2804 6.46551 16
343 1 12.0371 -4.47554 3.88562 20
344 1 -4.19798 3.63103 8.22254 21
345 1 -5.99317 -1.28518 -7.70429 20
346 1 -1.68531 1.60892 13.245 19
347 1 -4.60881 15.1137 4.3497 14
348 1 8.71674 7.60937 14.5014 11
349 1 -7.97169 13.5121 -6.93469 13
350 1 -1.45822 -3.17432 -18.8669 10
351 1 -10.1971 2.95123 -5.51361 21
352 1 4.0697 -9.21063 -14.8337 15
353 1 -13.2343 4.93454 5.97731 19
354 1 -13.7652 0.136686 1.97652 21
355 1 -8.31391 -0.201845 -10.144 17
356 1 -6.20868 10.9012 -0.476402 20
357 1 10.6852 -2.56365 5.76798 17
358 1 -8.21447 -13.5032 3.71125 20
359 1 9.37094 -9.42256 7.74322 11
360 1 -9.71496 -9.05871 11.723 13
361 1 -14.0211 9.54598 -0.734379 16
362 1 -0.642655 -0.545434 6.13049 17
363 1 0.71129 -9.93061 -5.21853 19
364 1 -5.98759 1.35408 -13.2217 24
365 1 7.59581 0.155654 -15.4151 16
366 1 2.94368 11.854 -0.047434 20
367 1 -13.5004 -1.16798 -4.00598 21
368 1 4.77753 -7.69898 -12.8711 20
369 1 9.77799 4.95919 -12.0189 13
370 1 -5.76624 -14.9278 -7.07952 12
371 1 -15.0016 -7.79445 -5.1297 13
372 1 -3.04002 -6.79496 -2.87351 20
373 1 7.94449 4.58976 13.6742 16
374 1 10.6468 1.72463 -2.00886 22
375 1 -8.49338 6.31666 -11.4442 19
376 1 3.00678 19.0033 -2.87585 10
377 1 -16.0997 -0.343245 -5.06394 11
378 1 -8.60712 9.9843 6.57396 18
379 1 -7.0984 13.5218 -1.09499 20
380 1 -10.0978 9.36762 3.39611 20
381 1 9.89373 4.60589 10.5311 23
382 1 13.5909 -2.81633 -2.55539 24
383 1 8.43022 -2.00292 11.0287 19
384 1 12.3468 0.361857 -7.08333 20
385 1 -4.70522 -15.6204 -3.93254 14
386 1 -5.45762 5.31479 -4.63009 18
387 1 -1.21594 -5.20524 -8.11819 21
388 1 0.997825 9.99265 1.34038 22
389 1 -9.54914 3.23946 -1.10656 23
390 1 4.9662 -7.95015 -2.31066 22
391 1 11.0671 -1.20458 8.26947 18
392 1 -8.90668 -1.91027 -3.42809 25
393 1 -3.43279 -7.67808 4.74416 19
394 1 -10.0217 -6.05449 11.6278 17
395 1 -5.91662 11.5397 -3.70128 19
396 1 -8.73953 -10.6382 -0.573852 20
397 1 7.27459 10.8933 13.9106 9
398 1 -9.66601 11.3881 -5.00079 22
399 1 3.20924 11.7222 -8.86588 17
400 1 7.06971 11.3113 1.21069 20
401 1 -13.8195 -8.51199 -2.12373 14
402 1 -4.10351 -8.99246 -8.39211 20
403 1 -13.6633 -1.56251 4.21573 20
404 1 -13.1497 10.7118 -6.28551 13
405 1 5.1107 -8.35281 3.95456 18
406 1 -5.47878 -11.6654 -1.24819 21
407 1 12.0149 12.1888 8.09848 12
408 1 6.30724 9.10328 -16.3388 11
409 1 -13.6991 6.67494 -10.5035 13
410 1 -2.69247 14.1615 -10.3208 14
411 1 -5.68533 4.67286 -8.00586 16
412 1 -2.35382 -11.3602 3.41333 19
413 1 13.34 5.28108 4.88568 15
414 1 -0.182747 9.4267 -15.3691 15
415 1 -4.97701 0.40464 8.57175 16
416 1 -16.136 0.408471 -1.004 15
417 1 -7.88724 1.70403 3.64619 20
418 1 -1.75543 -13.8746 1.05107 20
419 1 1.65801 -8.06249 -9.36554 20
420 1 7.09024 -4.81238 -12.8039 19
421 1 -1.06687 -3.41987 4.86226 17
422 1 -14.3635 3.37763 3.40019 22
423 1 -18.3679 -2.59285 7.44665 14
424 1 -11.8552 5.52345 3.3614 19
425 1 1.40388 -6.49575 8.54954 19
426 1 -8.22015 2.06323 -16.0787 15
427 1 6.91871 -8.96341 -10.9982 21
428 1 -0.804637 -6.47696 -13.3814 20
429 1 -3.36106 -3.9538 11.1623 14
430 1 3.25955 -6.77238 -4.07393 21
431 1 -6.30431 4.24436 -16.2211 12
432 1 3.26152 -12.9685 -1.30864 19
433 1 2.71037 13.2551 -6.13769 21
434 1 -14.4468 10.9327 5.11501 13
435 1 -7.19201 2.05564 12.0679 16
436 1 -11.8172 -6.61095 -10.3738 12
437 1 -10.5477 -7.82617 8.96176 17
438 1 11.0807 -4.13495 10.5562 16
439 1 7.91175 1.62939 0.265752 20
440 1 -6.76248 5.20074 3.25685 20
441 1 3.2499 -0.630521 -7.67238 20
442 1 11.8608 -7.38883 6.81334 13
443 1 16.5541 7.43703 -4.86126 12
444 1 -4.65398 4.22445 11.9192 18
445 1 2.2241 12.8726 -2.91191 21
446 1 4.07859 -4.99658 8.43543 19
447 1 -2.56774 -11.5262 -6.55002 19
448 1 -6.92112 6.55495 14.2819 12
449 1 -8.42876 14.6486 5.76197 12
450 1 -10.5081 -11.544 -7.54186 12
451 1 8.94132 14.4906 0.270099 13
452 1 4.76418 9.23414 8.05676 20
453 1 -14.0686 1.43096 5.97651 20
454 1 -7.46338 -11.2973 -3.05585 21
455 1 -16.7562 3.12683 7.93682 13
456 1 -9.67692 -6.91808 -6.9344 17
457 1 -4.84862 9.65222 4.96296 14
458 1 -5.42953 -11.5837 -8.82798 20
459 1 -3.06121 -7.43552 -14.8364 21
460 1 -7.41815 -14.2393 1.37139 18
461 1 -6.93802 -4.13953 5.03761 16
462 1 10.2317 1.28712 3.52922 20
463 1 -6.68306 -5.29389 12.0641 12
464 1 -11.3808 7.15472 -7.98508 20
465 1 7.0458 1.96576 -3.16328 21
466 1 -7.3854 -14.1728 -3.86857 14
467 1 1.7385 3.99845 -9.62553 17
468 1 0.39228 17.5065 -1.75542 16
469 1 -0.651061 6.52411 -9.8007 21
470 1 -2.38682 10.6374 9.92173 17
471 1 -14.9154 -2.9004 -1.70132 19
472 1 0.726582 17.4283 -7.59528 12
473 1 9.09355 10.9742 -7.26122 21
474 1 -5.03915 -6.65223 -9.55909 17
475 1 3.91971 2.97626 14.9617 12
476 1 -2.00123 -14.7602 -11.8409 11
477 1 -0.534518 -0.971023 -13.8839 19
478 1 7.10847 -11.1974 1.83353 15
479 1 -12.8742 8.54841 2.10344 20
480 1 0.705837 8.83991 10.445 20
481 1 11.4993 7.48896 -3.32818 19
482 1 2.62438 9.26067 -1.83472 20
483 1 -10.3042 11.7181 -14.5222 5
484 1 4.48393 3.38033 -7.76592 22
485 1 2.99812 -6.28842 2.06297 20
486 1 -16.9206 -4.89059 1.41014 12
487 1 0.458529 16.017 1.70476 16
488 1 -5.82768 8.0512 -12.4955 22
489 1 8.43194 4.10765 -1.46318 23
490 1 8.18646 15.1865 -8.85214 12
491 1 4.42559 -5.65765 -0.902063 23
492 1 16.5809 2.93191 -0.327594 13
493 1 -1.20221 1.17851 -16.3648 20
494 1 1.67111 -6.6228 -1.52464 21
495 1 0.927033 -11.9603 2.36019 19
496 1 3.94165 -8.30957 8.83347 18
497 1 -8.49168 4.94762 -3.51081 16
498 1 -12.5648 -13.3202 5.6485 12
499 1 -3.33177 -13.5499 -14.8485 10
500 1 9.64175 13.9782 3.31602 13
501 1 1.58147 1.77058 -14.9202 19
502 1 0.743376 2.18612 14.6325 17
503 1 -18.7234 0.609891 7.95825 12
504 1 -1.23239 -15.9594 -3.44324 20
505 1 -12.1337 -4.38315 2.44069 16
506 1 13.2804 -6.19073 -6.29835 14
507 1 12.5626 -0.346891 -0.777229 17
508 1 -6.22894 11.4479 -6.79485 19
509 1 2.07156 -6.5444 -7.10894 23
510 1 4.46104 4.44113 -10.7699 19
511 1 10.4268 -5.90009 -7.37966 20
512 1 -11.3279 1.61241 13.3232 11
513 1 6.30077 13.0666 -1.13651 19
514 1 -7.49787 -1.69134 -12.7316 22
515 1 5.89722 5.78755 -17.553 13
516 1 -8.39061 -3.9377 9.71334 22
517 1 -2.00326 14.9516 -6.74112 18
518 1 -10.7952 -2.84342 -14.5443 10
519 1 -16.5574 -1.63748 3.25517 19
520 1 -4.91672 -8.30632 -17.0151 10
521 1 -6.48143 -12.7797 12.6051 5
522 1 1.61392 8.75122 -8.45714 19
523 1 14.8863 3.76178 7.38049 14
524 1 13.9435 5.76492 -1.77476 19
525 1 -9.94369 -14.0401 -1.73604 13
526 1 -0.274096 -8.82153 -2.71041 21
527 1 -2.67127 -0.0747901 -18.5666 11
528 1 -10.3876 9.44009 8.63587 14
529 1 1.40772 -3.96696 -13.2968 17
530 1 5.08611 3.51346 -0.072118 19
531 1 10.1821 -2.67273 -0.711977 19
532 1 6.04018 13.1138 -7.41286 18
533 1 7.53835 -7.65501 0.10113 18
534 1 14.8423 3.36944 -8.86146 14
535 1 3.91911 10.4159 11.5548 21
536 1 -8.58895 4.34575 5.30701 21
537 1 3.66266 11.3465 6.23845 16
538 1 9.43284 -1.48799 15.9247 8
539 1 1.22879 7.7248 -17.8815 11
540 1 -3.02481 -5.71687 -5.94716 19
541 1 0.83909 -0.357092 11.9941 16
542 1 6.20442 13.0012 7.67029 16
543 1 7.09522 5.96119 -10.7708 16
544 1 -8.6895 10.3358 -2.7131 22
545 1 -1.32264 10.4879 -4.3681 21
546 1 10.7256 -3.86279 13.4131 8
547 1 10.7043 2.64254 -13.0281 13
548 1 10.5671 -10.164 -5.22741 12
549 1 11.2775 10.0882 10.3534 13
550 1 -12.0762 -7.46495 2.42606 20
551 1 -8.14892 13.3875 -12.7668 10
552 1 -2.72362 2.53766 10.2806 18
553 1 -16.8959 -1.3137 9.86775 13
554 1 -5.87401 14.3767 -10.2773 13
555 1 5.17281 -13.1308 -3.2719 16
556 1 5.95241 -2.72971 -9.48623 21
557 1 -2.26205 17.9403 -6.17324 13
558 1 -6.36122 -4.05006 -11.3169 18
559 1 4.30836 -11.6988 2.51593 22
560 1 -14.2646 -5.8818 0.38877 18
561 1 1.52347 11.6807 -14.6664 13
562 1 -6.59069 2.40032 -5.15637 18
563 1 -1.60558 10.5761 12.4389 15
564 1 -16.7011 -9.42416 8.11362 7
565 1 2.33544 7.08692 -4.24596 22
566 1 -0.782475 -9.80334 -12.2031 18
567 1 5.01027 -7.1713 11.9388 13
568 1 8.60118 0.141042 -5.53575 21
569 1 -11.4643 5.36122 0.26984 18
570 1 5.03087 5.35258 14.2962 16
571 1 4.92082 16.0971 -6.72645 16
572 1 13.3486 -1.94439 -5.56991 20
573 1 2.57276 7.07817 7.83221 20
574 1 -1.03073 6.21241 -17.1379 13
575 1 -7.19676 -13.6612 9.97683 14
576 1 -3.40957 1.40642 -10.6682 22
577 1 9.08726 2.54186 -15.5502 11
578 1 1.42997 11.6288 3.90762 16
579 1 11.1108 8.24145 -11.804 9
580 1 -4.14313 -2.45156 -17.0883 14
581 1 -5.90473 -10.1354 -5.36436 17
582 1 -13.3483 -3.50521 -10.0061 13
583 1 12.9884 3.37657 -0.583822 18
584 1 17.1412 4.83732 -2.86008 10
585 1 7.24839 -6.00046 -8.58562 22
586 1 13.9406 9.72576 9.94827 9
587 1 3.55372 -9.18489 -6.34484 20
588 1 4.20279 3.87937 -19.4824 10
589 1 3.98269 8.87805 1.30098 21
590 1 -7.2128 2.40629 0.589227 21
591 1 8.65842 9.82589 11.5058 19
592 1 10.8753 4.93384 -2.74893 21
593 1 13.2075 -2.75153 0.500949 19
594 1 12.2005 4.12347 -7.44894 20
595 1 8.73782 2.07381 11.4239 21
596 1 13.1475 4.31306 10.7188 15
597 1 2.68303 -2.47241 10.1143 20
598 1 12.4904 12.0751 -5.55017 14
599 1 -0.508004 7.08799 13.4521 20
600 1 16.9425 -1.96183 -6.50559 11
601 1 6.88323 3.19918 8.13744 20
602 1 -11.0712 4.99529 -10.4238 21
603 1 15.5626 5.31174 0.456053 18
604 1 10.4552 -6.53745 0.965402 15
605 1 -0.913773 -6.50128 0.214083 18
606 1 -12.2687 7.13431 8.18294 18
607 1 9.16368 12.8471 9.42938 13
608 1 9.51332 2.58504 8.30897 21
609 1 4.16836 12.0349 2.52953 19
610 1 -0.927864 15.5161 7.12492 16
611 1 3.37186 5.60187 5.55484 20
612 1 -0.641107 -18.5589 -1.32156 9
613 1 -5.96097 7.73414 -1.84677 22
614 1 10.4985 8.43633 -5.86793 21
615 1 12.7941 -2.62766 -13.9689 10
616 1 0.359383 19.1394 -4.70699 12
617 1 -3.50559 -12.1832 -11.6695 22
618 1 8.99102 -5.59565 -15.6699 12
619 1 -16.7008 0.986544 5.34971 19
620 1 -4.55371 9.24115 -9.57696 21
621 1 -5.83861 -17.0925 -0.180985 11
622 1 -7.89883 3.70939 -13.4659 19
623 1 -14.8741 2.30748 -3.58478 17
624 1 12.0446 -7.41808 3.1083 15
625 1 13.7904 11.0682 2.14755 10
626 1 -0.604881 -11.6447 9.14596 13
627 1 -13.3181 1.26853 -6.51228 18
628 1 0.611436 3.48742 -18.4199 14
629 1 4.89967 -1.87021 5.69978 14
630 1 -6.19149 9.31872 14.3066 12
631 1 6.42986 11.1041 -12.2633 12
632 1 10.3337 0.415458 10.9046 19
633 1 7.24027 4.92119 -8.13294 21
634 1 10.891 12.3995 0.693487 14
635 1 1.45191 -11.0293 -8.32532 21
636 1 -12.3733 -1.52123 12.6445 11
637 1 12.6774 -1.0903 2.81115 19
638 1 -2.79027 15.882 9.66929 10
639 1 8.71775 13.4001 -11.4881 9
640 1 -13.3089 13.7111 -5.82422 9
641 1 10.7502 7.67954 2.81123 21
642 1 -5.76578 -14.5895 -1.15005 16
643 1 14.5585 -5.32627 1.77505 11
644 1 5.94686 14.6733 2.08628 15
645 1 -5.61741 6.09247 9.61986 18
646 1 -9.85766 -5.79159 3.89377 18
647 1 -11.7221 -0.939222 -8.87334 16
648 1 6.79156 0.392574 9.71474 20
649 1 -1.61569 -8.78175 10.8167 11
650 1 6.48494 4.21667 10.9824 18
651 1 -3.6988 12.8324 -2.20982 18
652 1 10.5717 -0.0264505 0.889484 21
653 1 7.1503 4.44265 1.95226 19
654 1 3.55925 2.38447 -17.5332 16
655 1 -13.1135 -1.86454 7.86888 21
656 1 10.2651 -0.217065 -13.383 14
657 1 -4.38785 -3.48921 -6.80258 18
658 1 9.11199 -10.7966 -9.56939 15
659 1 9.5663 4.73682 3.66197 19
660 1 8.39906 7.26835 4.12282 19
661 1 -14.2949 1.17702 11.2757 12
662 1 9.67551 9.50982 6.15004 20
663 1 -0.544125 -2.69807 12.1189 17
664 1 -0.380393 7.32895 8.02438 22
665 1 -5.10057 -3.31609 -14.163 19
666 1 -10.4819 4.17999 8.05906 21
667 1 5.84136 2.1305 12.4728 19
668 1 -10.2336 -15.7788 5.80303 15
669 1 14.0526 8.66965 -2.89054 15
670 1 5.69821 -10.66 -7.93767 23
671 1 -0.385553 7.8456 -5.69882 20
672 1 8.7803 9.54523 -4.03205 19
673 1 9.36758 10.5811 3.11988 24
674 1 3.95698 -0.108385 -19.1336 15
675 1 -1.07182 2.15961 7.40162 22
676 1 1.04103 15.6613 -4.47309 20
677 1 11.3465 6.24629 0.0226416 22
678 1 -7.25371 -6.15808 -0.487228 18
679 1 -6.96094 -0.980703 -15.5184 18
680 1 -12.9145 14.6697 -2.78467 10
681 1 9.55145 -3.04498 -12.9495 16
682 1 10.0426 3.58903 1.03802 21
683 1 11.5302 6.84958 -8.39295 15
684 1 11.1311 10.8422 -2.97114 15
685 1 -4.05307 4.45185 4.41184 17
686 1 -6.12191 3.57117 -1.96245 21
687 1 8.12638 6.17948 -4.38265 24
688 1 12.1244 2.11424 12.1267 16
689 1 12.2688 -1.20741 12.6939 13
690 1 -3.92178 -13.0301 9.66518 13
691 1 -6.22347 11.1042 -13.5836 17
692 1 -0.236282 12.7547 7.8867 15
693 1 5.47792 -5.83111 -15.1638 18
694 1 4.88363 0.814539 6.03742 22
695 1 7.04726 14.6885 -5.6221 16
696 1 6.38747 9.19731 3.09223 20
697 1 10.905 -3.98743 -4.85088 18
698 1 5.69368 8.19281 13.765 16
699 1 -14.4113 -4.74275 7.51026 20
700 1 3.12798 -14.4193 1.66097 21
701 1 2.8263 -2.62913 -10.7931 18
702 1 -13.882 13.7654 2.76321 13
703 1 0.651985 6.17898 5.12075 22
704 1 4.77046 -4.34086 -5.07223 20
705 1 5.11827 6.40541 -0.711704 23
706 1 -14.8372 -4.33809 4.41422 20
707 1 -3.98855 6.42399 15.3924 11
708 1 -6.3641 8.20758 -15.9837 13
709 1 -8.33619 8.8656 -13.6013 16
710 1 1.84228 -8.6802 0.201533 18
711 1 8.3857 7.94518 -7.91253 21
712 1 4.27981 -4.91606 5.13002 18
713 1 -4.07913 7.15238 3.14763 23
714 1 -14.6954 5.4976 9.64618 12
715 1 4.58773 -0.408612 -15.7478 24
716 1 1.7095 -13.2663 8.2486 9
717 1 4.09757 14.6925 0.0144783 16
718 1 -6.34966 3.74814 14.7084 11
719 1 -8.16285 -5.96223 -9.42266 19
720 1 -6.20773 -9.95201 -11.6244 18
721 1 -8.62273 -10.8366 -10.8927 11
722 1 3.24848 14.6087 -8.91052 15
723 1 4.07811 -4.26968 -7.84993 22
724 1 -1.33613 13.5471 4.65779 19
725 1 3.65181 -10.2832 -11.0185 24
726 1 6.12049 -13.9725 -0.122448 17
727 1 3.33846 -8.03865 5.87901 18
728 1 15.2506 1.03922 -6.31517 17
729 1 -0.897548 -13.3652 -8.9608 20
730 1 -10.9728 -1.72327 10.3165 18
731 1 -0.65808 1.66807 -8.83865 20
732 1 -3.08669 -16.3077 -0.710338 16
733 1 -10.3961 -13.0221 -5.06794 14
734 1 -15.0669 0.694031 8.74194 19
735 1 -7.53272 -17.5874 2.19905 14
736 1 15.6343 4.10495 -5.59389 17
737 1 -5.43154 16.2754 1.17045 12
738 1 -8.72838 1.50468 6.84918 20
739 1 -15.4301 6.90814 3.32357 16
740 1 6.5276 -2.95835 3.43022 19
741 1 -14.8255 0.0431836 -11.026 6
742 1 5.71981 6.51385 -5.99677 25
743 1 9.82332 2.20944 -7.79698 19
744 1 6.09679 12.4546 10.732 15
745 1 10.1219 2.67851 -4.72095 22
746 1 -11.091 1.24022 -3.53699 19
747 1 -14.179 -5.57562 -6.48816 17
748 1 -3.02649 9.04635 14.6255 12
749 1 4.62417 8.57198 -11.525 17
750 1 11.8689 11.4938 4.78867 16
751 1 -4.70979 -2.09305 7.44517 15
752 1 -2.62733 -14.6232 -6.18806 20
753 1 -7.26416 -16.2762 4.81425 16
754 1 -1.89731 -6.23265 7.23122 17
755 1 12.7068 8.73862 7.37619 20
756 1 1.8667 -7.48117 -12.1258 23
757 1 -10.2608 7.0677 -2.40265 19
758 1 8.07903 7.71083 1.28295 22
759 1 -7.07337 -7.02492 3.80864 16
760 1 8.19105 7.49286 -13.3126 10
761 1 -2.43816 -16.3109 -8.60716 10
762 1 1.99455 -16.9654 -0.386999 16
763 1 0.514389 -14.4788 -0.972076 19
764 1 8.30039 2.50055 -10.3934 18
765 1 6.01193 16.7428 -1.05759 14
766 1 -2.59412 3.7832 -16.8308 16
767 1 0.0803055 -1.20165 14.7533 14
768 1 1.28452 4.23303 -12.3348 19
769 1 -10.834 -1.39426 -11.4972 17
770 1 -12.7737 -5.02372 -3.07373 19
771 1 3.70978 17.524 -8.85122 10
772 1 7.33323 -3.78265 -0.46285 20
773 1 -5.14687 -5.67752 -16.0393 16
774 1 -6.2103 -6.18697 -3.70651 21
775 1 12.9625 6.23936 -5.57156 25
776 1 13.0215 -8.19977 -0.0295534 13
777 1 -5.5885 10.6632 11.431 18
778 1 6.71056 -5.7972 2.56821 20
779 1 12.5968 -5.21038 -0.988611 18
780 1 13.7214 -2.88508 10.8369 12
781 1 -1.9212 10.7759 3.1132 20
782 1 -12.9356 3.33169 9.29977 18
783 1 -14.8104 7.76829 6.81128 11
784 1 -3.46294 -15.4876 6.64906 12
785 1 6.96085 0.901624 3.19519 21
786 1 6.0604 8.97181 10.6673 20
787 1 -17.6684 -1.80206 0.324778 13
788 1 8.42083 -5.78371 -5.33431 18
789 1 -11.0912 12.3616 -7.83483 15
790 1 1.58235 7.19389 -0.383658 20
791 1 2.33873 -17.1596 3.52739 12
792 1 6.72271 -2.27702 13.9549 14
793 1 -2.25986 10.8379 -0.0178119 17
794 1 0.320422 -7.70219 5.46763 17
795 1 -6.72465 -3.35823 -2.51259 19
796 1 0.853275 2.49676 10.6615 22
797 1 -15.7331 -5.75384 -2.35144 12
798 1 1.14301 11.8162 11.5127 16
799 1 5.96008 9.24786 -1.1773 19
800 1 -10.7104 -10.9436 6.31718 18
801 1 -2.08045 -18.4082 4.77451 7
802 1 9.73536 -6.49782 9.15777 16
803 1 13.1073 -5.30768 8.68591 11
804 1 5.92882 7.0742 6.37546 20
805 1 -2.67249 7.33699 -3.88327 20
806 1 -0.946747 -7.49754 -10.2266 20
807 1 -2.92946 4.18074 -9.24985 23
808 1 -4.10854 2.04966 13.7726 15
809 1 -2.01189 17.1407 0.4586 14
810 1 15.4253 0.841467 4.28543 15
811 1 3.92231 9.62012 -6.63844 22
812 1 -7.9138 8.23901 11.483 15
813 1 6.56188 10.156 5.56707 22
814 1 6.79679 -1.75682 -13.12 18
815 1 -5.88773 -8.8011 -2.02213 21
816 1 -2.69675 -1.45515 -8.96652 20
817 1 15.5679 0.449688 7.25428 11
818 1 2.76191 -0.651167 -12.6223 22
819 1 -4.28303 11.774 14.3589 12
820 1 7.28071 -13.9021 -9.1852 10
821 1 4.22253 7.88821 -18.5493 9
822 1 -3.35932 -8.45033 -4.96896 19
823 1 12.0938 5.00493 -10.2636 14
824 1 16.1309 -3.95092 -0.629124 12
825 1 -0.697631 -5.28461 10.1562 12
826 1 -3.48515 -8.72419 -11.868 20
827 1 7.58495 12.0219 -4.62439 18
828 1 -2.00813 -9.75257 6.28721 20
829 1 -16.9824 4.40744 1.36707 9
830 1 13.495 3.39319 -4.12073 19
831 1 18.3057 5.12479 2.36885 10
832 1 1.62927 -1.47492 -15.5334 19
833 1 -10.6199 14.6992 3.25941 13
834 1 15.6631 8.68147 6.91687 10
835 1 11.9625 9.878 -8.9372 11
836 1 5.86349 3.26526 -15.76 19
837 1 9.52067 -5.66492 -2.32624 18
838 1 -13.0412 -0.150605 -1.15703 21
839 1 13.2163 5.72693 2.147 20
840 1 -12.5706 -10.0448 1.02116 14
841 1 -10.9837 8.0139 -11.0467 17
842 1 5.66598 6.3602 9.09336 17
843 1 -11.2729 -0.54384 -5.90152 18
844 1 -16.6612 4.58899 4.8434 12
845 1 -2.63249 6.74464 -7.36346 18
846 1 10.2343 -7.53049 -10.3822 18
847 1 -12.6712 -10.4176 -4.70963 16
848 1 11.8682 -7.38469 -3.43662 15
849 1 -14.6719 2.59922 0.232004 17
850 1 -8.05787 -7.97611 -4.50515 18
851 1 10.1832 7.53147 9.00578 21
852 1 -4.91549 -10.4154 5.234 18
853 1 10.2293 1.51436 14.1759 14
854 1 15.3572 -3.11436 7.95068 10
855 1 13.768 -2.06144 5.72829 16
856 1 -11.8426 1.95342 1.14964 24
857 1 -3.29562 13.8105 11.8182 16
858 1 5.25335 6.97264 -8.63139 20
859 1 -2.01798 -6.22992 -17.7426 12
860 1 -9.12595 11.9149 4.58994 21
861 1 -12.4885 -11.6738 9.08994 15
862 1 10.2735 14.2554 -5.88961 14
863 1 -2.19467 7.32599 10.9465 16
864 1 15.4895 -3.95599 -4.89059 13
865 1 7.19364 -8.41091 10.2417 13
866 1 -3.54342 12.9952 -12.6815 16
867 1 3.60655 11.0969 -11.9873 14
868 1 -7.61556 -0.119851 9.19163 17
869 1 16.7331 5.8464 5.63895 12
870 1 -2.70842 -1.64308 -11.9456 21