ITEM: TIMESTEP
415000
ITEM: NUMBER OF ATOMS
2000
ITEM: BOX BOUNDS pp pp pp
-30.0 30.0
-30.0 30.0
-30.0 30.0
ITEM: ATOMS id type x y z Coordination
1 2 -10.4903 11.225 -7.72806 17
2 1 -1.37917 -11.8577 -7.04507 19
3 2 4.32667 -14.54 -2.76824 18
4 1 4.02898 -15.0305 8.13771 9
5 2 -8.77452 0.510755 -9.61303 21
6 1 2.61695 -4.97394 -6.21552 18
7 1 7.89474 -2.6877 11.1046 19
8 2 -3.95504 -10.2678 -3.46241 15
9 2 7.44061 -12.201 -3.77762 18
10 1 3.85069 -9.67143 10.3011 15
11 1 -6.43473 -18.392 -4.82936 8
12 1 13.4544 -4.94482 -7.79727 12
13 2 -9.17066 -5.29384 11.184 18
14 2 14.5238 -8.8661 -5.50113 12
15 2 -15.31 -5.60954 -8.64677 8
16 2 -2.17469 6.87181 -15.927 7
17 2 -4.40445 -0.957329 -12.9094 16
18 2 1.69431 2.0994 -15.0997 21
19 2 -11.9108 3.96937 -12.4019 13
20 2 -9.37375 -0.200111 3.85938 21
21 2 7.0099 10.0559 0.27076 18
22 2 8.73245 5.61813 -11.8909 15
23 2 13.352 2.68182 5.34256 19
24 2 -1.32937 -4.08358 -8.11075 16
25 2 10.4137 -13.6643 -0.945316 14
26 2 2.15508 -2.00456 5.70914 16
27 2 3.09721 8.27179 -13.2028 19
28 2 -14.804 10.4196 4.66696 9
29 2 -4.27111 -7.83026 -10.7038 17
30 2 4.12694 -4.90428 -15.8467 15
31 2 1.26223 8.97704 -5.95689 18
32 2 2.27671 7.5276 -16.1526 8
33 2 1.85766 -8.17654 -7.14024 18
34 2 11.1375 5.39847 -9.43513 15
35 2 6.51755 -2.85125 -15.7854 16
36 1 2.13202 7.17982 -11.5189 16
37 1 -0.347685 -0.245516 -16.1539 18
38 1 -0.260166 -4.62193 -4.13157 18
39 1 -12.4899 4.42133 -8.87766 20
40 1 -11.2369 -3.28579 2.63474 19
41 1 -4.22347 7.62808 15.6204 11
42 1 -10.792 -2.32617 -0.205185 17
43 1 -0.267408 -4.431 8.6053 18
44 1 -15.1318 5.1159 -9.40751 10
45 1 2.8387 -5.38118 -17.2869 15
46 1 -4.44132 8.84709 -10.8911 18
47 1 6.37179 -13.5824 -12.6012 14
48 1 -4.70322 -2.40103 -17.3091 12
49 1 2.14115 7.41794 7.23225 15
50 1 -13.015 1.6044 -6.69997 19
51 1 4.42359 -4.29644 -3.50821 18
52 1 -5.70275 -2.70358 12.2582 17
53 1 -9.38573 -8.57785 -3.13052 16
54 1 -5.73365 -9.93254 -2.97168 15
55 1 -9.00181 -1.81043 -13.3414 14
56 1 5.49587 2.82886 -5.80372 19
57 1 -3.51614 3.29634 -1.14456 17
58 1 -14.9061 0.157182 -2.07881 14
59 1 -8.83459 2.26311 4.1312 19
60 1 -10.3234 0.513315 -14.8889 10
61 1 -10.5842 -6.00953 4.25255 20
62 1 -6.98228 -3.99028 0.743957 17
63 1 -0.651406 4.61152 -2.57656 18
64 1 -15.7341 -3.64222 -8.57099 11
65 1 -8.89976 3.40664 -13.4532 14
66 1 -2.2259 -13.4043 -4.8559 17
67 1 -4.53416 -7.58829 -12.7929 16
68 1 6.47248 4.06304 7.22872 19
69 1 7.01652 8.01935 -15.6601 15
70 1 -3.06068 -9.66127 -9.70865 18
71 1 -10.6779 -7.80445 -5.89171 15
72 1 -6.65722 -10.9399 0.297454 16
73 1 -8.17184 -5.7682 7.24526 17
74 1 -5.55899 -1.37619 -8.19102 18
75 1 -10.1179 2.12066 -8.48143 21
76 1 -7.89051 -0.161091 -2.82093 19
77 1 -6.73054 -4.32137 -8.10985 17
78 1 1.15041 17.371 -10.9265 7
79 1 -7.91232 3.80331 -10.6494 18
80 1 -0.621086 -7.01715 -10.1016 18
81 1 -12.1144 -1.68108 -12.4431 9
82 1 -3.87628 5.8971 -8.5621 21
83 1 -15.0962 -8.10092 8.3162 8
84 1 -8.11137 5.9967 -0.727536 17
85 1 3.92492 -9.04693 -11.5094 17
86 1 -1.21283 1.85387 0.0219268 18
87 1 7.16722 -10.4709 2.50832 17
88 1 -0.447756 -16.5789 -8.51186 13
89 1 -1.59308 2.40239 -17.6238 8
90 1 -6.86115 0.770686 -9.492 21
91 1 -4.45336 -15.8612 -4.51572 15
92 1 -3.18344 -14.8009 -2.17594 14
93 1 -1.77549 -5.08608 -1.194 18
94 1 1.16988 -16.6624 -11.0518 10
95 1 -3.18023 -6.16528 -4.0091 17
96 1 -3.45103 -13.6513 -12.7569 11
97 1 -1.79788 -8.41544 -6.92401 18
98 1 2.57234 -7.90537 7.68958 20
99 1 -11.3085 10.4054 -9.08596 14
100 1 -2.32254 -2.64536 -16.0251 14
101 1 4.70196 -12.9871 -6.76075 19
102 1 -11.5599 -8.83459 4.31606 16
103 1 1.35503 -0.52077 1.00922 18
104 1 1.60421 -16.4241 -6.31824 12
105 1 -5.79915 0.915816 -12.2537 19
106 1 8.67785 10.9265 -9.72939 14
107 1 -4.79438 11.7484 -11.0121 10
108 1 11.9428 4.32131 -15.1073 9
109 1 13.7141 -2.97045 -2.39219 20
110 1 -2.79446 -2.7436 -4.27694 18
111 1 -16.9399 -4.98002 5.08332 7
112 1 -2.76992 -7.99977 -1.58622 19
113 1 2.5556 -2.0166 -8.00037 20
114 1 2.34463 -3.942 -10.7695 21
115 1 -0.217957 0.542954 -6.58161 15
116 1 0.711195 -5.7567 -12.1143 14
117 1 -5.1702 -13.0894 -1.05147 20
118 1 9.13536 -14.3882 -9.87643 16
119 1 -4.44359 -6.37699 -9.58483 17
120 1 5.53123 -9.83763 -1.4615 22
121 1 -6.80336 -7.01223 -4.37638 15
122 1 -0.0861615 -14.1369 -13.759 10
123 1 4.07841 -15.6784 -8.2542 16
124 1 -2.03642 -11.135 -12.4274 17
125 1 10.6282 1.47402 -10.055 15
126 1 -3.85241 10.3703 -5.9699 16
127 1 -6.86822 2.83276 -2.33976 13
128 1 -0.844593 -2.16066 -12.2278 15
129 1 -5.26007 -9.78438 -7.20065 18
130 1 7.7139 -16.3362 -4.46084 10
131 1 5.15333 -9.37536 -8.79057 16
132 1 -10.3248 -0.244867 -5.75989 20
133 1 13.8789 -11.8291 -0.468829 13
134 1 2.02847 -13.1698 4.91112 13
135 1 8.87377 -10.5428 -3.31697 19
136 1 -8.13543 -8.1783 -7.46613 18
137 1 0.758169 -5.61892 -19.6017 10
138 1 -1.36626 -7.77046 -13.5915 17
139 1 -11.1905 -8.29197 -8.6257 12
140 1 4.75466 -2.00773 -9.9274 21
141 1 2.78724 1.1636 -5.53535 15
142 1 -2.37283 -3.42821 -9.64414 16
143 1 2.73993 -11.6049 -11.1696 19
144 1 6.38063 -10.8814 -5.37002 18
145 1 10.3084 -0.0421183 10.6812 14
146 1 -13.6572 4.7021 -11.9328 10
147 1 -1.92187 6.90093 -6.46142 19
148 2 -16.2968 3.58558 -9.08949 11
149 2 -0.547237 -7.60755 -1.27847 18
150 2 -3.42913 -6.41693 2.10196 20
151 2 -6.01418 -9.24969 -13.9743 10
152 2 -15.3883 -12.2163 -2.71719 6
153 2 -9.48859 6.17204 6.52296 16
154 2 -14.401 -15.7319 -3.59796 6
155 2 -8.93966 7.76694 8.8797 15
156 2 -12.2373 -7.37454 -7.45443 12
157 2 -1.3624 -9.94823 -8.08388 17
158 2 -8.1234 -14.8437 1.96729 9
159 2 -7.38885 12.8988 -6.73968 14
160 2 -2.65808 -8.04538 -3.44152 19
161 2 -6.96613 -7.95966 -8.90786 19
162 2 -5.88728 -11.7069 -6.64633 14
163 2 1.01361 -5.30994 -17.1596 13
164 2 -14.6153 8.75596 7.6287 10
165 2 -17.6014 -0.297889 1.59916 10
166 2 -3.96739 -2.17557 -9.05993 17
167 2 10.8154 0.493987 -0.352625 14
168 2 4.31151 18.8849 -6.72927 9
169 2 -7.87112 -3.80752 -3.83305 19
170 2 -9.91431 -13.4525 7.0918 11
171 2 -10.6748 8.40586 -3.49985 14
172 2 -9.63096 4.94252 0.142169 18
173 2 4.72505 -13.318 -11.2457 16
174 2 -2.70638 -19.1463 -6.82862 9
175 2 -9.35825 -3.63987 3.22684 21
176 2 -9.76241 -6.83959 -8.7718 17
177 2 2.85697 0.367667 -3.77405 15
178 2 -3.54501 2.94882 -11.0009 17
179 2 11.1609 -8.82139 0.936179 15
180 2 14.6781 -10.5309 0.477984 12
181 2 -6.58345 -2.66136 -9.24159 17
182 2 -0.111168 -7.47398 -12.1373 15
183 2 -10.7269 -9.93816 -9.52525 10
184 2 2.98458 -6.19902 -19.3101 12
185 2 -11.5076 2.82042 -1.63519 19
186 2 -9.07655 -1.12957 -6.89549 19
187 2 -2.35631 -8.56941 4.93478 18
188 2 0.610877 -5.39197 -10.1941 17
189 2 9.13393 -4.25173 -7.97232 16
190 2 -0.363512 1.6659 -1.63887 16
191 2 -13.13 -5.20291 10.8444 21
192 2 -3.61405 -5.01943 5.07717 18
193 2 -7.1133 -2.93126 -6.61183 17
194 2 -15.709 -1.97922 -9.21799 13
195 2 -4.14006 -2.212 -15.4851 14
196 2 1.33126 10.518 -10.5537 17
197 2 3.68571 9.85318 -0.292917 20
198 2 -6.44648 0.94144 -7.65269 18
199 2 -9.2118 5.65148 -13.5325 13
200 2 -1.97987 18.0942 -4.95387 5
201 2 -12.608 -12.7439 5.49717 10
202 2 -10.8368 6.88672 -11.0667 17
203 2 -4.8332 -6.59278 7.87746 19
204 2 -11.0404 -15.8508 -3.29186 8
205 2 -11.6969 -0.295339 8.79897 12
206 2 -6.88588 -1.2494 -1.75039 18
207 2 8.69594 -11.4064 -1.31325 18
208 2 2.10745 -11.0562 -4.66901 19
209 2 -8.91862 -13.5145 -2.33965 11
210 2 -0.235122 0.900947 -10.2955 22
211 2 4.0054 -10.6765 -9.73528 17
212 2 9.0089 -14.748 -5.68006 16
213 2 -5.7572 -16.4603 -8.84796 11
214 2 7.03024 -16.5997 1.96967 9
215 2 -0.199973 -6.93754 -14.7692 15
216 2 0.23013 -6.48983 1.83515 20
217 2 14.5391 -10.2581 3.47528 9
218 2 -6.44577 2.6525 -9.69277 16
219 2 -0.425933 -9.42198 -13.8972 14
220 2 -1.43587 -2.23878 -5.36433 19
221 2 -11.3153 5.45438 -2.13801 16
222 2 -3.27805 -4.74599 -5.3021 13
223 2 0.874344 -2.76917 -11.2811 18
224 2 -8.79322 2.67573 -11.8161 17
225 2 -10.8311 -11.7465 3.13783 16
226 2 -1.5732 -13.1209 -12.4655 14
227 2 -0.993446 -6.08247 5.05982 18
228 2 5.09609 2.3164 -3.81585 17
229 2 -2.25286 -4.56074 -15.7789 15
230 2 14.179 2.93318 -11.8403 10
231 2 -1.03396 0.0727571 0.640074 15
232 2 -3.36197 1.38853 -1.46411 17
233 2 -11.6912 -1.74952 3.41188 19
234 2 -6.32758 -14.3311 -6.87602 11
235 2 -15.1738 0.702359 -10.227 11
236 2 5.72137 -14.6739 -7.54433 15
237 2 -15.5314 -4.35448 12.5166 15
238 2 -10.6256 -5.93298 2.50106 18
239 2 8.84628 -15.2062 -11.8497 13
240 2 -4.39905 -9.8485 6.34328 21
241 2 -2.07361 -14.6885 2.36901 14
242 2 -8.524 1.58799 -2.35442 17
243 2 -13.7775 5.65733 -7.91531 13
244 2 7.04516 -2.01744 -1.94895 20
245 2 10.8168 -14.5909 1.78941 9
246 2 -0.676454 -10.6827 -2.52204 20
247 2 1.8324 3.51667 -1.7178 18
248 2 9.37934 -7.5422 4.26223 19
249 2 8.85198 -16.4093 -8.44707 13
250 2 -9.16449 -5.05597 -10.5616 14
251 2 15.0366 1.70346 -2.80403 17
252 2 -4.80505 -2.16162 -3.60554 19
253 2 -4.693 -4.23607 -13.3618 18
254 2 -3.17021 1.8721 2.55039 17
255 2 -10.368 -2.91954 -8.40972 18
256 2 6.48449 -5.18293 -7.32063 17
257 2 -3.95218 -11.5649 -11.7323 15
258 2 -12.0301 -2.47678 1.14345 15
259 2 -8.33963 -18.5748 -4.18663 5
260 2 5.98689 -6.75025 -4.74707 17
261 2 -11.4462 0.950869 1.09985 20
262 2 -15.1078 -4.10715 -3.61879 13
263 2 7.01919 -5.34613 -10.6165 15
264 2 -6.39179 -1.75955 -17.3419 6
265 2 11.7038 -11.5477 4.06193 9
266 2 1.45783 -0.496884 -15.9113 19
267 2 -15.6809 -6.42788 -5.24932 11
268 2 -2.7825 -10.7665 -14.3467 14
269 2 -8.23656 -11.6604 1.55975 15
270 2 -7.45764 -3.22848 -12.5878 14
271 2 -6.60298 -12.8852 7.97806 12
272 2 -16.4732 -3.90936 -6.84387 12
273 1 -1.73361 -1.90609 -19.0295 8
274 1 -7.06446 -1.9382 -11.2232 22
275 1 -2.94113 -5.18729 -7.23938 18
276 1 -9.80482 -10.8557 -7.55923 9
277 1 -8.01977 -1.03481 0.454752 20
278 1 -13.4029 -6.59381 9.77724 18
279 1 -3.03558 -5.7687 18.6911 7
280 1 -12.9801 -3.15811 10.5362 21
281 1 -11.7818 -7.81995 7.65826 17
282 1 7.57221 -14.13 -7.16348 17
283 1 5.466 -8.84278 4.63731 20
284 1 -9.18296 -4.23374 -12.1551 11
285 1 -0.242349 -13.2167 -10.7119 19
286 1 -3.40783 -9.58926 8.86136 18
287 1 -12.6724 -2.56636 18.7825 6
288 1 5.23658 -14.5438 5.00642 14
289 1 -4.28511 3.6999 12.2366 15
290 1 -17.1574 -3.3907 12.8539 10
291 1 -10.9262 -5.70385 -1.24395 17
292 1 -13.9782 4.35384 1.736 14
293 1 -12.0666 -10.934 9.35635 10
294 1 2.43069 7.83251 3.68219 18
295 1 -13.3335 -5.99732 -8.16162 12
296 1 -12.5979 -0.889123 1.99985 18
297 1 -18.5008 0.739362 -7.15658 10
298 1 -6.72895 0.944466 12.7224 15
299 1 -9.9721 0.786361 0.0196246 16
300 1 1.25386 -10.647 11.4063 15
301 1 -13.8449 2.87133 11.6635 10
302 1 -16.1954 -1.67465 5.06009 13
303 1 -15.4164 -10.4217 -2.29897 7
304 1 11.2822 -13.1745 -8.73824 13
305 1 -18.3197 0.932118 -0.311906 10
306 1 -10.8209 -4.80041 -9.23382 14
307 1 -15.3459 -5.29789 10.7442 14
308 1 -5.79786 -3.04095 6.52314 18
309 1 -16.0631 0.614637 -4.97235 15
310 1 -11.3973 -14.2093 6.22472 8
311 1 0.66033 -16.2614 -0.874442 11
312 1 -13.9065 -3.13995 0.532177 14
313 1 -2.51319 -14.4735 -8.23743 17
314 1 -4.82741 3.43527 -9.55368 17
315 1 -15.3708 1.70234 0.941572 19
316 1 4.14851 -5.94633 6.11621 16
317 1 -13.1764 -5.88714 6.08666 17
318 1 -2.83988 -11.5405 15.2431 13
319 1 -10.8504 -3.88377 6.36763 20
320 1 -3.94714 14.0064 14.983 8
321 1 -7.70658 3.39554 18.0601 12
322 1 -13.7944 -1.23779 -5.40942 20
323 1 -10.4094 5.74357 8.0764 18
324 1 -6.7339 13.4373 -4.8827 13
325 1 -5.71557 -3.47497 17.3211 9
326 1 -7.48593 10.4515 -9.89143 20
327 1 -5.90306 -8.97783 11.2943 19
328 1 -18.1926 -4.69924 16.4582 5
329 1 -1.993 -4.93826 6.28862 20
330 1 -9.45781 5.06005 13.3814 11
331 1 -9.19492 -9.84927 0.228388 15
332 1 -3.83966 -11.5459 1.53906 19
333 1 -4.01767 -8.33108 1.1887 18
334 1 4.12657 -15.7002 -4.58284 16
335 1 -7.13951 -10.455 8.69097 18
336 1 5.58576 -17.2882 2.85501 10
337 1 -7.54803 -3.02961 -1.94195 18
338 1 -2.28801 -2.32884 7.87001 19
339 1 -9.86306 -12.6888 1.68492 13
340 1 -8.02079 -13.9788 7.06346 11
341 1 -12.8886 -5.98132 12.5373 18
342 1 1.62136 -17.3155 -3.11681 11
343 1 -12.1914 11.4336 -6.69491 13
344 1 -12.0784 -0.517037 12.8865 16
345 1 -13.2842 -8.83539 12.7389 6
346 1 -3.39904 -19.7984 -5.16976 8
347 1 -4.38974 -8.50782 14.4138 17
348 1 -9.35176 -13.4442 10.2932 8
349 1 0.0850118 -15.0648 10.8002 6
350 1 -11.9553 -0.24431 16.4276 12
351 1 -2.13132 -3.47967 2.92951 18
352 1 2.73517 -7.83016 -14.2985 23
353 1 -11.4898 10.7996 1.63525 14
354 1 -12.2283 2.85894 5.50935 15
355 1 -10.8683 4.00341 10.6106 13
356 1 -17.2742 -2.24282 -5.90029 14
357 1 -6.73895 -1.47148 16.0463 13
358 1 -12.7664 -9.70094 -0.433793 11
359 1 3.39217 -0.191411 18.1579 11
360 1 1.22847 -13.3621 8.10027 14
361 1 -3.44906 -5.42965 14.2629 14
362 1 -9.66162 -4.81708 1.73359 16
363 1 8.82498 -14.3374 -13.4085 7
364 1 -4.78643 -10.6627 -13.7138 8
365 1 -15.0913 -3.4369 7.22448 15
366 1 -6.17065 1.60199 9.50922 19
367 1 0.459282 -10.3379 8.23749 19
368 1 -2.1126 -9.90865 -4.75829 19
369 1 -14.6238 -9.51099 5.4834 13
370 1 -1.8965 -9.85043 3.57984 19
371 1 3.94869 -13.4755 10.6821 9
372 1 8.97735 3.21905 5.52355 20
373 1 -4.32212 -11.9454 -10.0333 18
374 1 -11.727 -3.22218 -6.59213 17
375 1 -6.75537 -12.7049 -8.37617 13
376 1 10.6298 -15.0258 -2.69514 14
377 1 -0.993752 -8.92592 14.2865 17
378 1 6.08902 -5.58849 15.348 12
379 1 6.86241 8.93115 6.12738 17
380 1 -9.29903 -9.00095 6.44833 17
381 1 13.7595 -3.27078 7.16767 10
382 1 -4.78409 -6.22805 11.9533 16
383 1 9.56152 -2.28391 13.1982 11
384 1 -8.6659 3.02082 1.05379 23
385 1 2.57353 -4.67617 11.1494 17
386 1 6.67851 -16.5087 -8.19651 14
387 1 -5.9387 12.9866 -8.25464 12
388 1 -9.06976 2.97055 7.89362 16
389 1 -12.6096 -11.5939 4.09279 11
390 1 -2.81684 -0.530805 11.9517 20
391 1 8.55947 -5.06679 0.0173569 19
392 1 -13.9289 -12.5877 6.66634 9
393 1 0.0855606 6.71304 19.1253 15
394 1 -1.67322 -7.62992 16.7447 17
395 1 -6.86609 0.762702 18.3395 12
396 2 -2.234 -4.07091 9.19064 18
397 2 -12.5575 10.6094 13.4239 5
398 2 -7.63346 -7.46109 7.31541 14
399 2 -3.23525 5.07834 -1.91597 17
400 2 5.46425 13.3116 6.05627 17
401 2 -9.81778 -9.61172 4.73808 18
402 2 -8.41941 -7.15138 13.7705 16
403 2 4.26389 -10.8803 -15.657 8
404 2 -3.19517 -13.2161 7.18074 14
405 2 -5.0344 -14.499 -2.55319 12
406 2 -10.6309 -13.7476 0.337783 11
407 2 2.26702 -15.0791 -7.48217 18
408 2 2.27739 -8.81796 10.8192 17
409 2 -13.3769 -9.84972 -2.04085 13
410 2 0.813025 -15.7089 3.56189 10
411 2 -6.0008 3.29646 11.1417 16
412 2 -9.97812 -1.45204 -4.30764 20
413 2 -4.46508 5.05108 1.6429 18
414 2 -15.5566 1.95834 11.1954 10
415 2 -11.7334 4.36162 -7.02458 18
416 2 -6.13032 12.6696 6.58915 17
417 2 -13.7253 3.76568 3.62085 16
418 2 -13.2876 -2.92624 6.5915 17
419 2 -1.05944 -11.5751 -5.27221 19
420 2 1.8693 -14.1376 9.9671 11
421 2 -14.1185 -4.80872 1.16291 13
422 2 -15.645 -8.81523 4.04231 6
423 2 -8.20176 -11.5817 -8.12139 13
424 2 -11.3599 -11.0641 -0.0556741 12
425 2 -14.8722 -10.8652 6.9801 9
426 2 -17.2393 2.24961 -0.766968 8
427 2 -10.8842 -0.820274 -13.8628 10
428 2 4.01154 -12.7785 -8.37278 19
429 2 -4.26012 3.96189 17.4785 15
430 2 -11.4447 -7.49033 5.68236 18
431 2 -7.3527 -0.0926423 14.2396 14
432 2 -16.0304 -1.55612 12.4087 12
433 2 -11.3793 -7.20315 12.8787 17
434 2 -7.19783 5.45948 -11.3514 20
435 2 -18.5684 -0.809583 -6.18362 9
436 2 -15.7506 -1.18209 -6.33805 17
437 2 -13.0453 -6.47018 -3.55309 16
438 2 0.169695 -6.29049 8.36518 16
439 2 0.745029 1.79502 12.7251 17
440 2 0.6311 5.7342 13.8636 12
441 2 -6.42599 0.573864 10.9552 18
442 2 -7.55536 -10.7558 14.3806 9
443 2 16.3512 -7.88427 2.79603 8
444 2 11.6817 -15.2606 -4.43638 12
445 2 -9.9491 -8.35388 -0.978468 15
446 2 -6.7928 -8.0088 -5.96201 16
447 2 -3.48275 -9.25408 11.6188 17
448 2 -7.14016 3.41173 -14.3383 12
449 2 4.67331 -13.4273 2.75435 18
450 2 5.75975 -16.679 -4.48318 10
451 2 -6.53483 -11.4796 -2.04118 14
452 2 -1.31293 -0.927302 6.10466 14
453 2 -15.6783 -2.76645 1.57382 13
454 2 -2.86125 -11.2618 -0.168815 18
455 2 1.87089 -0.102901 14.4254 16
456 2 4.78479 0.0430641 -1.81081 18
457 2 -4.32152 -1.02565 -6.75134 16
458 2 -7.19132 -1.87698 1.96331 21
459 2 -8.19553 -0.443027 -12.3329 19
460 2 -4.31356 -1.25489 13.1184 17
461 2 -11.5233 -3.72935 8.36878 18
462 2 -6.65511 6.81623 0.69716 16
463 2 -16.2655 -1.71933 -1.2008 10
464 2 5.3378 -12.0224 -1.15752 20
465 2 -4.20114 -1.02715 -0.0674575 16
466 2 6.78613 -2.17694 6.09543 18
467 2 -12.7256 -3.37393 -4.54876 17
468 2 -13.5164 -4.38494 13.7062 15
469 2 -8.31379 13.2077 9.1346 13
470 2 -9.79781 9.70525 14.2137 6
471 2 -7.51915 -8.72461 0.619437 13
472 2 -11.1375 -8.25873 -4.04826 14
473 2 -7.66994 -5.79666 1.58936 17
474 2 0.704136 -12.4869 -14.3877 14
475 2 7.953 -6.02066 14.9953 12
476 2 -13.0328 -9.80489 4.53704 13
477 2 5.61888 -10.4225 3.65616 14
478 2 -1.5419 -14.1787 10.9179 9
479 2 -14.5755 -0.464712 10.5236 15
480 2 -6.89494 -8.47443 3.45166 19
481 2 2.94138 -9.85749 7.86079 18
482 2 -2.42912 -13.0715 -3.10313 18
483 2 -5.26127 -7.65225 5.09593 19
484 2 -12.748 -12.0192 8.15454 10
485 2 1.62452 -9.65664 16.3535 9
486 2 -6.86813 9.20236 12.339 10
487 2 -7.76676 -15.3833 -0.899041 11
488 2 -12.8596 3.96983 10.4185 12
489 2 7.33893 -6.70999 12.2572 21
490 2 -12.3364 -9.56653 11.0307 13
491 2 -16.0594 -6.5537 2.06173 8
492 2 10.1678 1.56738 11.4009 12
493 2 -2.83979 11.2199 8.98493 20
494 2 -1.65085 -18.8403 -4.2434 9
495 2 -0.0396094 11.9612 9.39028 22
496 2 1.50519 7.76863 19.7883 10
497 2 -10.9532 -12.9348 10.4051 7
498 2 2.8933 -1.07779 11.9965 19
499 2 11.2328 -5.91109 10.3616 14
500 2 2.91304 1.3508 10.0551 18
501 2 -2.18163 -8.30923 7.93904 19
502 2 -17.9242 -4.15183 14.5347 6
503 1 -2.47103 -0.613945 -1.08013 16
504 1 -7.4504 -10.6447 -5.56857 15
505 1 -1.80965 8.4482 17.033 12
506 1 -5.05247 0.903421 -0.913377 14
507 1 -17.7878 0.74212 3.14113 10
508 1 -13.2731 -2.68177 4.60831 19
509 1 -9.66587 5.88257 -9.73508 21
510 1 -11.749 11.4946 8.16062 14
511 1 -15.8719 -2.50747 -2.73094 14
512 1 -7.27572 -7.78424 5.26806 21
513 1 -1.51993 8.23489 -0.341966 20
514 1 -8.74004 4.93897 5.31692 15
515 1 -8.96839 12.1741 -7.5646 17
516 1 -14.6742 -0.964846 -10.8846 10
517 1 -8.93566 -1.66505 -8.70645 23
518 1 -14.0132 -6.63169 -0.0051081 14
519 1 -2.8282 -0.484107 -7.98815 19
520 1 -4.83634 7.22997 1.55031 16
521 1 1.91819 15.512 6.79852 12
522 1 -7.06555 0.135655 2.66907 16
523 1 0.809536 3.30796 -7.88857 19
524 1 -1.77709 1.60926 -3.38001 13
525 1 -10.9767 2.07505 14.5244 12
526 1 -13.3383 5.15299 -6.21228 14
527 1 2.29824 17.7054 -7.37382 13
528 1 -0.812205 3.76329 -5.68688 16
529 1 0.994178 -10.9074 2.00765 19
530 1 -3.75601 7.27922 -15.2831 6
531 1 -8.01437 -4.73421 4.3016 22
532 1 -11.7783 1.06702 -3.56049 17
533 1 -9.0967 9.00087 -8.07483 21
534 1 -2.42605 5.01269 17.852 16
535 1 -14.2086 11.8275 3.4077 10
536 1 6.31029 3.21381 0.616931 18
537 1 -8.11175 -1.59697 -16.1974 9
538 1 -9.80237 3.09481 -2.59665 20
539 1 -3.59976 12.3133 12.3312 15
540 1 7.67447 5.42488 -5.29754 20
541 1 -16.527 2.59968 -7.24694 12
542 1 4.50444 21.8766 -4.07559 4
543 1 0.988093 11.7436 -12.7757 12
544 1 1.66439 1.65166 -1.82407 17
545 1 -6.62813 15.7934 3.54042 15
546 1 -3.7118 13.227 -5.10623 11
547 1 0.301356 10.2227 9.23444 18
548 1 -2.18347 3.44664 -8.16376 21
549 1 -7.40715 15.2237 9.33761 11
550 1 1.98754 -2.33992 -4.64168 20
551 1 -7.03568 6.92021 -9.74371 19
552 1 3.89806 7.64457 -15.4221 14
553 1 6.8369 -7.49534 0.953834 16
554 1 10.284 -3.54407 -3.36611 20
555 1 4.02825 -9.28762 -16.6813 9
556 1 -9.74434 -4.76077 -3.89736 20
557 1 -5.48337 3.9101 0.567768 19
558 1 -11.3289 4.4496 -0.49414 20
559 1 -5.70358 -1.04463 -5.42109 17
560 1 3.72696 9.755 5.29747 20
561 1 -7.43507 5.49355 15.4386 11
562 1 -10.1164 9.53368 -4.98797 17
563 1 -2.21508 13.5697 -11.7258 9
564 1 -9.96154 6.72624 -2.51892 18
565 1 -12.5064 7.89983 7.44194 17
566 1 -17.3439 1.41097 5.91733 8
567 1 1.89197 5.84105 -16.0413 15
568 1 -2.66049 4.2184 2.15904 18
569 1 -8.72805 13.999 -2.27602 11
570 1 13.1914 -5.17984 3.35262 19
571 1 6.17077 6.63698 -2.03573 19
572 1 -7.69604 6.51624 -13.0678 15
573 1 1.48699 8.97049 -9.02277 20
574 1 -12.6658 8.19557 -7.21751 15
575 1 8.96068 14.0159 -10.1973 12
576 1 -5.05471 15.8279 -2.91392 10
577 1 7.11366 17.425 -3.17431 9
578 1 -1.96102 14.6278 11.6565 13
579 1 5.84921 -0.756196 -13.3532 18
580 1 -5.45025 -1.13309 -14.5116 19
581 1 -7.71558 7.30565 7.44476 14
582 1 -5.53329 9.71485 -3.60273 15
583 1 -12.9346 11.3469 11.4878 8
584 1 5.29024 -1.97454 -6.5907 19
585 1 -3.95691 -0.350457 9.34416 18
586 1 -14.6577 -13.9738 -2.46802 7
587 1 13.4276 -14.4709 -4.15582 9
588 1 9.79741 -10.6286 -5.85283 18
589 1 -8.68433 -3.54053 12.4838 16
590 1 -6.42615 9.0673 -13.4147 11
591 1 -7.72402 5.43314 -3.98721 11
592 1 -9.53666 9.94363 -1.55364 13
593 1 -0.992048 6.07275 -9.92633 17
594 1 4.17308 15.7142 2.14049 17
595 1 -5.51033 9.03036 9.60039 17
596 1 -11.5631 14.2397 1.70257 13
597 1 2.74234 -11.7957 -14.6333 12
598 1 5.28867 -6.2934 -15.2127 17
599 1 5.13835 6.36581 -5.19829 23
600 1 -3.83166 9.48071 -1.21644 14
601 1 -10.8352 3.17698 -11.2171 17
602 1 4.98757 -3.41076 -14.6064 15
603 1 -0.189509 5.51914 -13.3002 14
604 1 -9.64377 9.40296 9.46227 14
605 1 2.92385 8.09714 -6.19465 21
606 1 -2.8045 13.0241 4.83754 19
607 1 -1.35633 6.31441 4.638 15
608 1 -11.9237 2.26519 2.27787 21
609 2 -1.75117 -9.96315 -11.0291 18
610 2 -1.79282 9.34627 -2.39928 18
611 2 -11.893 1.36259 4.35991 16
612 2 -6.03123 -4.44626 5.06983 16
613 2 -7.15138 2.87098 8.11509 17
614 2 -15.5153 4.34593 8.69394 10
615 2 -14.5186 -2.82134 19.1429 4
616 2 3.43351 -14.4472 -5.47026 17
617 2 -16.7567 -3.11066 6.27065 8
618 2 -8.56155 13.8018 -4.23336 11
619 2 -0.104911 10.0637 -8.03559 19
620 2 -17.0125 0.876847 -8.26839 14
621 2 -7.76511 -3.31437 16.6347 11
622 2 -2.23775 -1.85778 -2.2915 18
623 2 16.0609 3.66938 -9.1162 15
624 2 -2.20888 3.11441 7.31763 19
625 2 -0.784729 -0.581276 -13.2964 14
626 2 -8.11401 0.864223 0.810054 19
627 2 4.25567 -2.14096 4.15103 17
628 2 3.18607 9.0511 -7.91316 21
629 2 -5.69094 2.75146 -0.786778 13
630 2 -5.04903 7.18178 -13.7109 12
631 2 7.81763 4.24206 -3.84224 19
632 2 -12.0472 14.1331 -0.0615275 11
633 2 -12.6435 -8.12935 0.364684 14
634 2 -8.08268 8.9827 2.71267 17
635 2 -4.13389 14.065 1.83552 18
636 2 -9.00942 4.6928 8.95676 18
637 2 -13.6985 1.20125 2.40615 17
638 2 -3.94183 4.10625 -7.81226 17
639 2 -1.46988 4.96037 -11.6898 15
640 2 7.62193 -0.571171 -12.7803 17
641 2 -8.83682 -6.12036 5.44042 19
642 2 -4.37295 8.14259 -2.6047 16
643 2 -4.0127 4.72327 -13.3703 14
644 2 5.37757 8.50628 -2.59142 21
645 2 -7.62285 -9.87989 -3.62941 14
646 2 -12.9661 7.86787 5.38276 14
647 2 3.14574 -3.8475 -20.6525 12
648 2 -15.9806 -9.0578 -3.84609 7
649 2 -0.397613 12.3062 -2.91037 16
650 2 -11.4075 12.1364 9.92853 10
651 2 2.21672 8.81992 2.03235 22
652 2 9.74919 12.4957 -10.9005 8
653 2 -12.2824 -1.17975 -6.54764 19
654 2 -12.8672 14.9463 -3.23631 7
655 2 -15.6605 -0.819213 -3.5893 12
656 2 13.5909 5.23441 -14.2276 10
657 2 -14.472 1.72814 -0.82897 16
658 2 -12.9364 -1.60475 -10.6764 11
659 2 3.14124 16.497 -1.27878 17
660 2 -10.6134 12.5198 1.971 14
661 2 3.9439 2.33582 -7.09377 17
662 2 -4.30873 1.50756 8.6004 17
663 2 -2.29041 4.69604 -6.54046 14
664 2 -2.5943 -2.6658 -11.5519 13
665 2 -6.37736 7.3386 -7.58696 15
666 2 -8.16209 4.60437 -2.25108 18
667 2 -0.842597 14.5653 -10.5833 12
668 2 2.25586 -1.83619 -0.69225 19
669 2 1.67375 -9.90997 -10.7906 16
670 2 -3.01869 -6.86208 -13.7669 15
671 2 -16.1898 3.09682 5.38346 12
672 2 -6.17326 0.419691 16.3986 16
673 2 5.69257 10.2163 5.71266 15
674 2 -0.587346 5.11565 5.90235 14
675 2 -10.0774 3.37259 2.73859 20
676 2 0.545134 -2.56538 -3.52715 17
677 2 -5.10895 -0.42277 2.95847 16
678 2 -14.8178 3.68917 0.277987 14
679 2 3.5155 3.69807 3.64921 13
680 2 0.350807 10.1312 -13.0286 11
681 2 -8.64565 10.4272 -5.44568 17
682 2 3.21589 6.74829 -1.02312 19
683 2 -12.6977 12.6841 3.15918 10
684 2 -1.35523 8.34247 -5.15868 19
685 2 -8.1126 16.1743 4.31803 9
686 2 -16.4446 1.90265 2.5027 15
687 2 -2.43887 14.4867 14.1412 8
688 2 13.2268 8.4015 5.4815 12
689 2 1.86262 -0.0185651 -12.3513 19
690 2 1.55036 14.4336 -4.08728 22
691 2 5.15606 8.45082 -5.88252 23
692 2 -0.876051 -2.08531 -17.3997 15
693 2 -2.67064 16.5668 1.31307 14
694 2 3.63478 19.1537 0.222324 13
695 2 1.37928 17.9353 -5.35502 13
696 2 5.30413 1.18567 -11.6474 19
697 2 -7.79314 10.3697 -7.89541 20
698 2 -6.67808 12.6897 1.2329 16
699 2 -6.22614 -6.60839 -13.0047 15
700 2 0.295034 -3.90599 -20.0563 9
701 2 2.38913 6.30998 -7.44762 20
702 2 -1.0643 -12.1089 -9.17752 20
703 2 1.95799 -4.43934 0.303417 18
704 2 5.44882 9.19664 -14.9098 15
705 2 -0.576171 13.3967 11.8483 13
706 2 6.32681 -7.53359 5.46345 20
707 2 5.00269 -5.53745 4.54428 21
708 2 -9.12039 7.86938 -0.736751 14
709 2 2.27323 4.60217 -17.4422 15
710 2 13.1198 5.94528 -2.83715 15
711 2 -3.30917 11.512 -4.4182 19
712 2 6.48018 -1.19857 2.58219 15
713 2 -9.35413 9.4367 4.91104 16
714 2 -9.58185 5.9311 -4.26503 17
715 2 -5.92011 6.33973 -4.12181 13
716 2 11.459 9.991 -6.58742 12
717 2 -0.0222806 14.2669 -7.55788 12
718 2 -7.62526 -7.3768 -2.77724 14
719 2 11.0795 5.9966 -14.6976 11
720 2 3.17231 18.6391 4.6127 8
721 2 -3.68548 6.23305 5.98431 18
722 2 -8.83561 7.40679 -9.08352 18
723 2 -8.00881 14.5801 -0.516957 12
724 2 -8.35503 6.6248 13.7454 10
725 2 -2.4613 9.88055 15.8006 11
726 2 3.3997 20.261 -4.18325 8
727 2 8.71013 17.357 0.673139 14
728 1 4.03287 1.13446 -0.638276 20
729 1 -10.9264 -0.569649 4.79532 19
730 1 -12.5182 1.80474 -0.496528 18
731 1 -7.05404 10.9115 -6.03408 18
732 1 -11.6833 13.3571 5.01199 9
733 1 -7.3218 5.68121 2.33771 21
734 1 -2.46139 5.74355 -0.351724 17
735 1 -1.70952 15.5901 6.87503 14
736 1 -11.7696 9.83112 14.6027 4
737 1 -9.45369 8.21632 -11.115 17
738 1 -2.39554 1.97067 9.03819 18
739 1 -15.497 0.240217 11.8732 11
740 1 -13.4009 -5.30964 -5.02557 20
741 1 9.33366 2.93739 12.1787 12
742 1 -3.16454 -2.30069 -13.7189 13
743 1 -15.3009 -5.21965 14.1638 11
744 1 -5.09805 15.2748 10.8177 11
745 1 -1.66822 -12.5431 10.0261 17
746 1 -0.139555 6.00792 15.7023 16
747 1 -11.94 4.89714 -3.82903 16
748 1 -3.23585 14.6936 0.198583 16
749 1 -11.3438 -2.40238 -3.55816 17
750 1 -11.0003 12.6588 -0.989932 15
751 1 -6.41516 8.81221 3.75784 19
752 1 -6.8093 -16.0209 -7.42665 10
753 1 -11.818 -3.51279 14.1931 17
754 1 -0.956416 13.0145 -6.41231 17
755 1 4.95902 16.3471 -5.9531 16
756 1 -1.56187 12.0137 7.43543 21
757 1 -8.66805 -11.0653 4.56131 16
758 1 -10.4384 3.07645 -5.81471 17
759 1 -9.46115 12.4053 10.1307 12
760 1 8.08993 5.93938 4.86978 16
761 1 3.3591 13.6143 5.68697 15
762 1 3.17576 -5.49125 13.9365 17
763 1 -9.12698 -0.712734 14.3236 20
764 1 -0.873136 13.1763 13.8907 12
765 1 0.60524 -2.6483 10.614 20
766 1 -3.72516 -5.29387 8.8765 19
767 1 1.71431 9.8697 13.7507 13
768 1 0.653873 -3.41021 -18.0907 17
769 1 7.76802 8.8952 -12.3749 17
770 1 -12.971 0.398748 9.92394 14
771 1 -4.07831 4.64717 -5.98994 15
772 1 -16.4781 2.81781 9.59854 9
773 1 -12.9405 5.59017 5.05642 17
774 1 -0.957951 10.6175 14.9313 11
775 1 -16.8771 -1.58607 0.461254 9
776 1 -7.23086 11.0803 11.3803 11
777 1 -4.42541 3.4732 19.3032 12
778 1 -8.12614 3.33954 11.0349 16
779 1 -5.18011 2.13324 16.9628 15
780 1 -5.63742 5.37567 10.3529 18
781 1 -3.79448 10.591 14.8907 12
782 1 -12.601 8.34471 -4.29967 13
783 1 9.40732 -5.50794 3.95419 20
784 1 -8.1144 -1.97185 4.13816 19
785 1 -14.5604 9.30106 9.30558 8
786 1 -0.0875242 -0.448348 7.57195 17
787 1 -7.74649 8.75577 0.297578 15
788 1 -10.5476 -5.04123 9.57492 16
789 1 -15.5944 -2.25577 10.6768 13
790 1 -2.42145 0.975127 20.6788 7
791 1 -4.36128 -12.8603 8.73336 16
792 1 8.64669 8.76118 3.86838 17
793 1 -5.10362 -2.25283 1.77821 18
794 1 -16.8383 1.54342 -10.0827 10
795 1 -9.66382 8.05215 3.45219 19
796 1 1.34217 13.1907 0.889012 18
797 1 -10.6339 6.87087 0.699748 18
798 1 -5.26932 8.18616 12.4496 14
799 1 0.935766 6.94427 -0.99953 20
800 1 4.26508 0.402613 15.0428 19
801 1 -15.7219 3.29858 3.67253 15
802 1 2.39795 14.6645 -0.455233 16
803 1 -13.6776 0.572813 4.17073 17
804 1 -8.48809 16.1081 0.674507 12
805 1 -1.76042 11.1167 -3.36561 18
806 1 -14.9848 8.86101 5.82954 8
807 1 5.69296 10.9866 -10.597 14
808 1 13.8138 3.35175 1.12271 12
809 1 -0.734283 6.71878 7.7059 18
810 1 -9.29447 0.74827 -11.4079 20
811 1 0.828531 1.39663 -19.1469 11
812 1 -0.0646151 0.0165156 13.1828 20
813 1 7.1926 -0.165725 10.3355 16
814 1 -7.72313 9.97912 5.76854 14
815 1 -1.32391 2.25949 11.9345 14
816 1 -3.5942 9.62546 2.31168 14
817 1 -0.0423381 -1.39198 15.1691 14
818 1 -4.70307 1.40452 -7.28315 14
819 1 -0.912222 -4.52374 16.1499 13
820 1 -4.61672 11.0847 7.78591 18
821 1 -1.87467 0.897907 17.0861 13
822 1 9.2756 3.14828 -3.49247 20
823 1 -5.40898 11.1716 5.01095 17
824 1 1.83018 18.7525 0.720689 11
825 1 10.8366 2.42301 8.56608 19
826 1 0.191418 4.06948 3.67739 15
827 1 -12.1965 -1.94314 -8.73542 15
828 1 9.39671 -4.69185 14.5971 10
829 1 6.79449 13.8824 -13.3365 11
830 1 1.52302 2.54127 20.1779 12
831 1 -10.2678 13.1182 -4.67557 14
832 1 -4.17621 16.5876 9.01048 13
833 1 -4.31817 4.77609 15.6126 14
834 1 -4.61153 12.2429 1.75662 18
835 1 -8.6156 6.21022 10.1168 15
836 1 -7.73389 16.8661 5.99691 8
837 1 6.45228 13.0597 -1.43968 16
838 1 -3.6245 0.025867 2.07814 17
839 1 -7.86903 11.0934 1.93222 16
840 1 -8.32118 8.79035 13.5008 10
841 1 -13.1734 14.4676 -4.98932 6
842 1 2.81595 14.3319 -5.68452 17
843 2 1.21596 -14.8686 -12.4654 10
844 2 -11.0643 -1.32116 18.0401 8
845 2 -2.89038 8.27614 1.03133 15
846 2 -10.6983 8.311 -6.5735 17
847 2 -3.41025 1.48112 15.8064 14
848 2 -4.82144 7.79022 3.36226 17
849 2 -13.26 4.26079 6.35968 13
850 2 -10.8711 14.7128 4.41852 8
851 2 -10.0841 -4.35433 -0.132619 17
852 2 -6.99803 1.33759 4.08937 17
853 2 -11.1548 7.31269 2.54757 15
854 2 7.71994 -13.8564 0.870651 12
855 2 6.1108 16.681 5.31776 11
856 2 -14.3186 -0.99792 4.79549 15
857 2 -9.63871 5.15532 11.4984 12
858 2 -13.5757 3.59733 -10.3984 14
859 2 -4.63695 8.90787 13.8392 14
860 2 -10.4114 -9.33665 7.79351 15
861 2 -6.99876 3.52882 16.214 14
862 2 2.5374 1.05185 -18.3781 14
863 2 -17.4029 -4.20223 18.0219 4
864 2 -10.4642 0.449055 13.2301 15
865 2 -3.30536 -1.83951 2.43138 18