ITEM: TIMESTEP
7000
ITEM: NUMBER OF ATOMS
2000
ITEM: BOX BOUNDS pp pp pp
-30.0 30.0
-30.0 30.0
-30.0 30.0
ITEM: ATOMS id type x y z Coordination
1 1 -9.95663 3.93552 -14.3043 14
2 1 -4.27037 -10.6408 -9.45527 20
3 1 1.57407 11.2071 12.1575 18
4 1 8.43713 -11.1788 8.07813 11
5 1 -10.903 8.06091 -0.0523965 19
6 1 11.8192 -9.20564 -9.34932 11
7 1 -12.17 4.35359 -6.57816 18
8 1 1.2767 -7.2029 9.97545 19
9 1 -8.67171 -0.252737 -11.5467 19
10 1 -13.2406 -9.71027 6.22619 13
11 1 13.5596 1.2125 -9.25267 16
12 1 -5.48462 -13.4352 2.68325 16
13 1 -11.8539 -7.46042 4.54615 20
14 1 1.51936 4.03987 16.7429 18
15 1 -0.773419 4.01884 10.4014 16
16 1 -2.37871 11.0239 -9.60046 20
17 1 2.54997 -0.721612 12.9793 18
18 1 -8.96438 -1.03541 -16.5362 9
19 1 -12.9584 -3.54507 11.5288 15
20 1 12.474 5.11438 8.42167 15
21 1 1.77895 10.5363 -12.4008 20
22 1 3.24585 5.57413 -12.4702 16
23 1 14.8722 2.01199 12.1607 14
24 1 -12.7383 2.96318 -9.32109 18
25 1 -11.2607 7.96642 9.7302 16
26 1 7.08108 -13.8757 6.39703 12
27 1 2.50744 -13.9371 -10.4829 14
28 1 7.90962 -11.5534 2.56408 15
29 1 -9.2669 -13.4806 -4.94603 13
30 1 -12.984 -6.47147 10.5411 13
31 1 1.70292 -8.05286 -13.1498 23
32 1 9.59308 -9.96129 -11.5598 11
33 1 -3.15217 5.32161 -16.851 10
34 1 0.094655 3.90233 13.2029 19
35 1 -0.67062 -11.1107 7.31831 16
36 1 6.60569 -4.91421 12.6948 13
37 1 -16.5928 -0.86086 -0.501877 12
38 1 -16.5657 -1.70631 7.79195 12
39 1 -4.88115 14.1384 -2.20481 21
40 1 -0.301189 -15.2529 -10.9223 10
41 1 -0.39488 2.08858 -11.355 19
42 1 6.36284 -6.15127 -9.53637 19
43 1 -1.92673 -3.12097 13.0113 18
44 1 -12.4975 3.4762 -0.626967 19
45 1 3.67187 12.9208 -12.7664 13
46 1 -0.0242103 12.0323 7.30817 19
47 1 -9.01451 7.73276 -7.65089 18
48 1 -2.21702 13.6852 -0.572381 23
49 1 1.16737 -11.9074 3.78021 22
50 1 4.97543 -8.41021 -3.68479 19
51 1 6.24691 -6.12031 -15.6974 12
52 1 -10.2759 8.76882 12.4865 16
53 1 -12.6244 -3.42261 -8.07837 18
54 1 -7.62579 8.58235 -5.07445 16
55 1 -8.75484 -8.78791 6.0364 22
56 1 -3.77827 14.0888 11.7877 12
57 1 -13.3786 7.06833 -6.50762 10
58 1 -7.3804 9.77793 14.3159 12
59 1 -6.25465 -14.278 7.74055 20
60 1 5.50937 -14.8734 -2.45468 16
61 1 4.33971 11.4074 13.8323 16
62 1 -14.2903 0.957786 -11.0937 11
63 1 -13.7494 5.99102 -9.39737 11
64 1 4.91284 6.50801 11.3985 23
65 1 13.4084 -4.65013 -10.7166 12
66 1 9.7316 -12.0702 5.07786 11
67 1 -17.7376 -2.10017 4.76629 12
68 1 5.0836 15.4268 5.57285 15
69 1 5.52822 -1.65285 12.6129 21
70 1 -8.5175 -12.4645 5.38057 20
71 1 -11.999 -0.626593 -0.540749 14
72 1 11.3097 1.79781 7.22581 20
73 1 -2.64789 11.2779 9.18658 18
74 1 -2.97367 -6.9298 -8.33285 20
75 1 -13.8302 6.23024 10.2918 15
76 1 -8.23383 10.536 0.546754 20
77 1 -2.79667 8.12137 -8.80454 21
78 1 9.31591 12.1333 -8.41619 13
79 1 7.97608 -6.47229 4.31708 21
80 1 6.40714 -9.05631 9.81003 13
81 1 -5.79436 16.4603 -5.30842 12
82 1 -10.5546 12.136 4.87383 16
83 1 -7.89767 -3.55706 12.42 20
84 1 -6.5706 6.79572 5.82722 21
85 1 -5.75833 -5.59275 9.27423 19
86 1 11.5799 -7.51146 -4.47627 18
87 1 -9.98264 1.92472 4.33016 23
88 1 -11.3779 -13.7101 3.11623 13
89 1 8.59059 -8.47264 -4.09323 18
90 1 4.87956 0.668669 -10.5378 20
91 1 -5.53913 -1.92171 -16.7848 9
92 1 -0.417938 11.624 1.88248 21
93 1 -6.04925 7.50248 -8.13386 18
94 1 0.25584 9.27518 17.087 13
95 1 0.358857 13.2995 -6.19332 16
96 1 -13.417 9.57024 1.42483 15
97 1 -4.67038 -8.51872 8.48985 20
98 1 14.3422 -0.241973 9.90986 15
99 1 0.0412754 -5.60767 -8.54375 25
100 1 4.60725 -7.02092 -6.16816 21
101 1 7.27948 -0.177528 15.0029 18
102 1 -10.7607 -7.00287 -1.49365 18
103 1 -8.48656 -8.40549 -3.47391 19
104 1 10.563 -9.85844 3.06787 13
105 1 6.09288 2.03039 -13.3504 20
106 1 6.17937 16.88 -2.64165 12
107 1 -8.10114 -12.7935 11.9605 12
108 1 -10.1312 -13.9038 9.86577 12
109 1 4.55131 -9.28988 -14.3146 14
110 1 3.85176 5.75206 -9.12645 20
111 1 8.86257 -8.37637 1.17969 16
112 1 -1.49171 -15.7917 6.48145 14
113 1 -8.42944 -8.71325 0.776024 19
114 1 16.7855 6.919 9.00315 10
115 1 15.8434 -3.89997 -8.11801 13
116 1 -17.5354 -5.36214 3.06241 11
117 1 9.61216 9.54709 5.36 21
118 1 13.7094 8.68858 3.42728 12
119 1 -6.45391 2.77224 17.145 9
120 1 -5.58422 10.4588 9.78142 20
121 1 -5.19019 13.7211 -5.30755 19
122 1 -0.620581 -6.94131 -11.2427 23
123 1 8.18628 -10.1375 -8.2029 18
124 1 1.14434 14.1197 -11.8821 15
125 1 9.00849 -2.95493 11.3326 17
126 1 0.957411 -1.76537 -18.5217 10
127 1 -2.12847 10.1524 -6.18821 21
128 1 9.81972 -0.608503 -3.18599 20
129 1 -10.9442 9.66577 -6.17395 12
130 1 -7.84154 13.7119 -0.710837 17
131 1 7.48171 1.94776 -10.3568 20
132 1 10.9458 -9.36105 6.43887 12
133 1 -7.34108 3.90566 -8.01343 20
134 1 -9.09241 13.2697 8.88076 11
135 1 13.663 7.44561 -7.90113 12
136 1 3.60454 11.5346 -3.00041 21
137 1 -3.99554 16.3948 0.740593 13
138 1 9.5096 9.6193 -0.894871 17
139 1 -3.08613 11.7013 -3.84223 23
140 1 1.51683 16.4097 -9.96722 9
141 1 4.39787 9.61584 -14.4467 15
142 1 -12.9724 -10.4891 2.94931 11
143 1 -14.0681 8.01752 -1.07923 12
144 1 -4.58205 -3.4104 -12.7011 21
145 1 2.02607 -11.1078 -15.5814 13
146 1 9.74954 12.9871 9.72666 14
147 1 -0.160975 15.4941 6.71769 11
148 1 -11.6923 -2.83142 -4.74612 22
149 1 -12.6101 12.0374 2.42662 12
150 1 16.4664 -1.80592 -2.92623 13
151 1 -10.4048 0.619206 -14.7366 11
152 1 6.44916 2.40344 17.334 12
153 1 4.3233 17.2585 2.92995 14
154 1 -4.8337 8.15471 8.14373 23
155 1 3.45856 -7.86071 -16.7924 13
156 1 -5.59465 13.5849 9.17789 18
157 1 -2.46145 13.065 -7.51281 22
158 1 3.6244 -3.90431 14.1076 13
159 1 -13.1154 -5.00588 2.60514 19
160 1 -2.32065 -13.2958 -12.939 12
161 1 -8.931 10.8725 -8.24846 15
162 1 -3.28196 -10.3865 6.83225 18
163 1 3.07951 -15.6024 -4.44872 13
164 1 -3.34482 10.4568 -12.2325 13
165 1 -16.6323 0.900866 10.0402 10
166 1 10.89 8.5611 -5.02421 17
167 1 -8.02891 4.84978 16.0802 10
168 1 0.512374 -10.6692 11.4213 8
169 1 -8.81762 4.89387 -1.37219 19
170 1 0.884032 17.4086 3.61792 11
171 1 -1.64695 7.20846 9.63213 22
172 1 13.0305 4.76393 13.2403 13
173 1 -8.21768 14.6257 4.38103 15
174 1 12.7176 -5.15346 -6.62608 20
175 1 -6.96382 12.7961 12.1548 12
176 1 -7.16275 0.0906118 -8.56807 22
177 1 13.8944 -8.06084 2.95404 10
178 1 -16.1507 1.95002 7.48922 12
179 1 -7.41319 -9.66317 3.31593 19
180 1 5.28325 7.3036 15.0188 25
181 1 -15.6932 -0.0436337 -3.06537 11
182 1 -3.05541 -14.7018 0.62017 19
183 1 -3.76609 7.51667 4.36861 22
184 1 3.87976 13.2071 11.2033 13
185 1 -6.55701 13.6208 -7.66587 16
186 1 -14.468 -4.0097 -5.45811 13
187 1 -10.1058 -2.71956 10.67 21
188 1 -0.141369 -9.32565 4.65237 20
189 1 3.43367 -13.9484 7.30618 15
190 1 -12.9712 9.40545 4.84203 16
191 1 14.2804 3.31379 4.10651 13
192 1 -5.03296 -8.00327 -14.4675 14
193 1 4.98418 0.683124 10.5887 21
194 1 5.66754 -16.0499 3.74532 12
195 1 -3.7608 7.72734 -11.0923 19
196 1 3.40889 -11.4584 -11.9137 16
197 1 8.20088 -0.0305999 -12.1947 17
198 1 2.94625 6.76273 -15.4333 15
199 1 -7.08526 -3.32788 -5.87423 22
200 1 -4.40644 16.0125 -7.73393 11
201 1 -9.94848 -10.7138 10.9495 16
202 1 7.71343 14.071 -4.43762 12
203 1 -9.15239 1.53492 15.271 15
204 1 -7.72132 14.9737 -3.71112 16
205 1 6.05241 0.0461035 7.49498 24
206 1 -3.61369 -5.77789 -13.3597 22
207 1 -4.8132 10.5283 -6.78223 20
208 1 1.13966 5.60316 -10.1497 20
209 1 -7.85821 -11.6758 9.11798 20
210 1 -9.79743 4.78857 9.57018 19
211 1 -8.14015 7.84151 10.2702 20
212 1 -0.259948 -12.0581 -7.72911 18
213 1 -6.37235 -15.1269 0.295023 18
214 1 8.96407 -12.1056 -1.01169 12
215 1 11.4237 7.98484 13.6794 12
216 1 5.11263 8.82859 -7.97057 19
217 1 -1.23516 10.5251 -1.36029 22
218 1 -9.94304 0.139249 2.09593 20
219 1 -13.3108 11.5989 -1.1949 11
220 1 1.42002 6.00285 9.81379 20
221 1 3.34852 -18.8462 0.906439 10
222 1 13.0948 -0.710067 -3.42396 23
223 1 3.01533 5.45286 7.4814 23
224 1 -8.77956 4.93591 3.94245 21
225 1 -12.8213 -5.41752 -3.53984 21
226 1 6.31337 4.64325 -11.5047 22
227 1 3.34731 -1.68731 9.71453 22
228 1 9.11753 9.80928 -10.4574 12
229 1 1.11602 -11.1362 -2.81108 17
230 1 -2.06492 -1.01265 -11.3734 22
231 1 0.195554 -19.113 5.94712 10
232 1 11.0018 -0.356015 -8.19159 21
233 1 -11.5189 -0.743008 4.87343 21
234 1 2.51009 -16.0636 -1.22911 18
235 1 -8.40903 -5.25458 -8.27114 21
236 1 3.56027 14.61 -2.08589 21
237 1 0.808463 -3.07974 -15.8492 22
238 1 4.84768 4.73731 13.878 16
239 1 15.1909 3.76255 0.21841 11
240 1 10.9132 -5.59729 -9.63987 22
241 1 -7.6413 -3.60963 -10.8326 22
242 1 -11.195 -0.58041 -9.93861 24
243 1 -7.60933 -15.6082 10.149 12
244 1 9.34961 -0.717982 8.63352 20
245 1 -6.49953 -8.65074 -12.042 15
246 1 0.257596 6.92416 -13.2757 21
247 1 4.72206 9.08334 1.06598 18
248 1 -5.8872 -8.48343 1.4112 16
249 1 2.06531 12.1153 2.36335 21
250 1 -5.2019 -1.65823 9.79544 20
251 1 -9.34746 -8.59602 -8.52754 17
252 1 -5.60922 -5.7817 -10.4077 23
253 1 -3.05402 7.10319 -14.0122 18
254 1 -6.50698 -10.3315 -6.89755 22
255 1 -3.97912 -10.4125 3.26336 19
256 1 9.01227 -4.95072 -14.4375 12
257 1 16.3351 -1.03692 -9.6046 12
258 1 9.90537 2.05765 3.97901 19
259 1 -8.82865 -5.22507 9.64801 20
260 1 -3.4867 -9.61196 -0.273272 22
261 1 7.56629 5.50461 16.3782 15
262 1 -7.29681 -15.4986 5.0329 19
263 1 -1.47753 -11.4404 1.77826 21
264 1 -2.1939 16.5648 -1.82393 14
265 1 5.0343 -0.857 -13.4949 22
266 1 -5.54504 -5.66373 -16.1307 12
267 1 -10.6904 -8.52026 11.916 13
268 1 2.69241 7.03095 16.3619 20
269 1 1.06535 -11.3999 0.662784 20
270 1 -5.32529 -12.9169 -10.9935 12
271 1 -10.1598 5.10643 -9.02557 23
272 1 8.09777 4.74469 4.62968 25
273 1 -5.87244 2.56862 -10.3815 22
274 1 -0.232165 8.74047 -10.2493 20
275 1 7.78039 -13.0844 -8.18035 11
276 1 -5.97074 16.7708 -1.60142 13
277 1 1.37857 10.2471 5.02301 21
278 1 10.6491 -0.977325 5.77536 22
279 1 -8.43983 -1.00393 4.78869 24
280 1 -1.57907 -6.33926 11.9657 14
281 1 -5.44925 9.6245 5.25133 21
282 1 2.39056 -5.38938 -11.1799 25
283 1 14.582 9.66638 -2.15681 11
284 1 3.78483 -10.9336 1.80369 18
285 1 -1.84643 -1.44665 15.2478 11
286 1 -16.0089 -4.57787 5.78865 15
287 1 -0.266109 -15.2328 -2.94172 17
288 1 -10.1016 7.45544 14.7808 10
289 1 -10.8307 5.31204 12.676 22
290 1 -14.9423 -4.28535 8.79182 15
291 1 -13.7771 -6.87105 7.25463 18
292 1 16.1002 -5.10939 -2.00791 12
293 1 -11.0325 -8.28792 8.66772 18
294 1 8.7076 -3.3361 -8.11825 22
295 1 10.6465 -12.1057 -3.5227 11
296 1 3.46888 17.1737 -3.98525 14
297 1 -10.6162 13.8807 -2.47176 10
298 1 10.9681 7.30133 10.6458 17
299 1 -12.358 -2.01254 2.76126 17
300 1 6.60975 -9.61029 -1.97 18
301 1 -3.31546 11.5229 1.86298 19
302 1 -9.24851 6.80953 7.50593 18
303 1 5.29581 -11.6545 7.65865 15
304 1 14.4536 -4.88535 5.04708 10
305 1 -3.6326 5.66406 7.38167 21
306 1 -0.206229 1.47744 15.9049 15
307 1 -5.10443 12.8308 4.3248 20
308 1 8.82211 8.12115 15.6304 14
309 1 -9.71439 13.5397 -5.93423 10
310 1 2.48257 -4.93537 -17.4371 13
311 1 6.92298 -9.3092 -11.5731 15
312 1 -9.44436 2.53335 12.1696 20
313 1 -13.1139 0.893194 2.57091 19
314 1 -5.36937 9.0496 1.75755 22
315 1 8.07453 -3.22891 7.32584 19
316 1 -10.355 -11.482 1.30784 19
317 1 7.825 -8.36539 7.01227 17
318 1 -8.07065 -9.31139 13.164 11
319 1 -12.9069 6.23072 1.57951 19
320 1 0.390438 -4.34626 9.68084 21
321 1 2.88346 -13.4014 -7.07227 17
322 1 -5.12237 -2.52158 -8.76276 21
323 1 7.83077 -2.56716 -13.4137 19
324 1 4.23171 14.439 3.15786 18
325 1 -10.4452 -0.30461 -3.61047 23
326 1 3.89583 -8.82876 -11.1826 17
327 1 9.09701 3.31842 -12.192 14
328 1 -4.89434 -16.2081 -6.90587 11
329 1 -14.9523 -7.45827 -5.11133 11
330 1 10.2481 5.17358 14.5835 14
331 1 13.5333 1.86326 -3.43952 23
332 1 -8.68534 2.96617 -10.7026 21
333 1 4.10267 17.8405 -0.382895 16
334 1 -13.7886 -1.08739 -5.41098 17
335 1 -9.47483 9.24724 5.16178 21
336 1 -7.82405 11.1221 3.66244 21
337 1 -6.651 5.20605 8.52078 22
338 1 9.72008 3.81821 10.4264 17
339 1 11.2517 -2.2256 -5.78953 22
340 1 8.80303 -3.10641 14.5701 12
341 1 14.0674 -0.203628 -6.56589 24
342 1 -5.43121 -16.4005 -3.70803 12
343 1 -0.355745 -9.27381 -6.44666 22
344 1 -2.16651 10.2602 4.45709 20
345 1 -9.85491 2.27444 -5.52096 22
346 1 3.10575 -9.67336 -0.872447 21
347 1 11.4085 -3.541 7.38755 18
348 1 -8.28494 -2.70671 -3.27736 22
349 1 -6.24908 -9.51258 -1.62277 19
350 1 -7.51648 -6.80847 12.2386 17
351 1 -3.99223 11.2377 -0.920139 20
352 1 -12.421 -8.50117 -3.43774 18
353 1 6.62993 10.0898 15.1473 16
354 1 -9.29386 7.07642 -2.76984 16
355 1 0.0889671 12.6274 -9.38873 20
356 1 5.58256 12.5259 6.70944 21
357 1 -14.7119 -8.04729 -1.78867 15
358 1 -3.16961 -9.68303 -6.09976 21
359 1 -12.289 -1.06269 8.33424 14
360 1 -12.5284 6.10409 -3.41071 16
361 1 4.39297 -8.40775 6.82161 19
362 1 -4.83202 -13.4633 -1.95297 21
363 1 11.6505 10.3121 8.38622 20
364 1 5.7769 7.15567 -13.4274 15
365 1 -13.1064 4.23712 -12.2962 9
366 1 -1.55772 14.987 -9.45981 14
367 1 -8.89643 4.98331 -5.50443 19
368 1 -2.1029 -12.8685 4.6001 17
369 1 11.0826 4.90222 5.01236 20
370 1 1.27741 9.32596 -15.9738 13
371 1 -4.81659 1.51857 10.2233 22
372 1 -15.8942 2.10275 0.0824232 13
373 1 -8.26669 3.2954 7.06472 21
374 1 -5.03727 -13.1181 5.22128 21
375 1 5.19015 -8.80249 -8.54206 21
376 1 -14.6118 -0.304439 5.21005 22
377 1 -15.853 -1.97043 11.2798 10
378 1 -14.0309 4.67087 7.44386 15
379 1 -7.9663 2.29056 -16.1204 9
380 1 5.80854 -10.2166 -5.62011 21
381 1 0.303751 -10.1618 -11.3971 21
382 1 -2.65066 -3.62674 10.1496 19
383 1 -4.569 2.94571 -15.0088 17
384 1 5.66589 -13.3568 2.48925 18
385 1 3.27929 10.1984 -5.69572 22
386 1 -13.5609 8.3043 7.8093 11
387 1 -5.0337 -2.96079 14.4862 15
388 1 -11.8656 -6.71139 -9.60115 11
389 1 -7.64308 -5.90165 6.76169 19
390 1 11.3009 -5.24993 10.2372 11
391 1 10.1926 -5.96283 6.74746 18
392 1 14.8092 7.01023 -4.46087 16
393 1 -3.0755 2.58732 12.5259 19
394 1 1.53089 13.0876 -0.770458 21
395 1 -3.10957 -13.8403 -4.30971 23
396 1 -4.60914 5.68486 17.1049 12
397 1 -3.2706 14.58 6.27381 16
398 1 -9.78039 -11.3797 -7.37089 14
399 1 8.8187 14.8487 1.15023 13
400 1 4.66086 7.61876 8.73333 19
401 1 -8.0238 1.87551 9.73771 24
402 1 -5.20955 -8.44728 -4.69774 20
403 1 -12.4728 2.85712 10.1771 19
404 1 -7.46117 -6.99612 -6.05397 18
405 1 -7.50486 9.37928 7.77218 20
406 1 -6.28722 -13.8365 -5.29634 17
407 1 -1.68737 -8.33757 -13.7717 20
408 1 -8.08915 -12.7819 2.70685 19
409 1 8.56186 2.02841 6.64126 20
410 1 -4.72777 -4.48264 11.8809 19
411 1 -10.3599 6.09791 -11.6778 14
412 1 9.52512 1.87275 -1.1733 19
413 1 -8.16422 -13.9161 -2.11618 18
414 1 0.226563 17.8272 0.517045 10
415 1 -0.467295 7.54561 -7.13264 20
416 1 -3.02278 9.0222 11.6302 17
417 1 -17.1025 -3.11183 -1.99697 12
418 1 0.135421 16.1658 -4.59865 14
419 1 6.46431 11.4946 -7.07085 19
420 1 -6.32301 -8.094 -8.72603 21
421 1 3.22991 1.517 17.5982 11
422 1 0.940318 -15.4628 -7.79216 15
423 1 -0.00799987 -3.80309 -11.1626 22
424 1 8.02236 -14.7474 3.51577 11
425 1 -10.8245 9.27334 2.44638 23
426 1 2.257 5.87917 13.2758 20
427 1 8.28025 7.96178 -3.10427 24
428 1 1.91546 10.3117 -0.724204 21
429 1 -8.34611 9.08391 -10.4403 15
430 1 -16.0227 -5.25988 -0.223634 17
431 1 2.27298 17.1041 6.0125 10
432 1 -4.82136 5.03934 -12.4549 22
433 1 10.3169 6.50401 -0.821088 18
434 1 6.48096 14.3375 -7.64439 14
435 1 15.0491 0.50342 -1.02058 16
436 1 0.268058 -0.915502 -13.3245 20
437 1 0.785971 -13.7262 6.13335 21
438 1 3.42247 -9.70924 9.57409 15
439 1 -9.57578 1.83217 -8.50836 22
440 1 -10.8708 -13.9545 6.29175 13
441 1 -2.11256 -12.3615 -9.97564 16
442 1 8.1172 14.7181 6.85968 15
443 1 0.867712 3.77993 -12.588 21
444 1 4.14522 -1.08821 15.7618 13
445 1 -14.5951 1.23027 12.3156 14
446 1 -1.98522 -17.208 1.59021 17
447 1 -13.0537 -3.23905 0.293727 16
448 1 15.141 -6.04377 -5.50421 9
449 1 11.985 -4.1609 -3.27938 19
450 1 -5.02503 9.40099 -4.00869 18
451 1 2.80843 -9.91835 -6.0276 23
452 1 3.72632 3.38 -10.5249 20
453 1 9.65009 -4.83181 -5.03456 21
454 1 -6.16784 0.0140768 15.5678 14
455 1 5.91018 15.0061 0.284118 21
456 1 -3.29789 -3.57623 -16.1722 17
457 1 5.31126 2.36764 -16.7124 14
458 1 -8.16736 -2.83837 7.55206 22
459 1 -3.0981 14.239 2.79808 16
460 1 -7.33328 -2.09426 -13.6452 18
461 1 -16.0006 -0.0688199 2.59526 15
462 1 -0.534929 -10.6398 -14.5665 14
463 1 -6.11413 -10.095 10.6458 20
464 1 0.744179 10.4695 -7.61178 22
465 1 16.4162 3.55896 9.42009 10
466 1 11.7589 3.93254 -1.567 23
467 1 -9.66577 -10.346 -1.774 21
468 1 -0.349348 -9.2295 -0.621363 24
469 1 -0.749548 -3.90012 -18.0701 11
470 1 -9.09731 10.9366 10.1225 16
471 1 3.58067 -5.22957 -8.56519 20
472 1 9.644 -3.68755 -1.32637 18
473 1 3.50409 12.7093 -7.44652 21
474 1 14.349 4.00362 -8.82939 13
475 1 3.56194 8.68143 13.4204 23
476 1 -11.0706 4.14869 6.38594 17
477 1 6.2987 10.3669 8.98073 23
478 1 8.48611 -0.640131 17.1331 10
479 1 0.0669662 1.77485 -14.5773 18
480 1 -5.0277 -5.14817 -7.85895 19
481 1 0.374997 -1.30136 10.5328 17
482 1 8.39681 11.363 7.54855 22
483 1 6.67341 6.59076 -8.62662 17
484 1 -7.2486 11.5747 -5.30685 17
485 1 -1.82257 14.0957 -3.78043 18
486 1 11.4692 -3.34208 12.9078 13
487 1 11.2518 0.700802 -11.3636 13
488 1 12.503 -10.0476 -2.10454 14
489 1 12.312 10.1237 11.6039 13
490 1 -14.3165 -8.00198 1.25626 14
491 1 -6.53244 11.7947 -10.5376 10
492 1 -13.1518 -1.12647 13.8637 11
493 1 -4.4965 13.7387 -10.116 14
494 1 3.41334 -12.9498 -0.909681 18
495 1 7.16337 -2.07163 -10.6662 20
496 1 -2.22027 16.9863 -5.4412 11
497 1 -7.28863 -5.46048 -13.4007 15
498 1 2.68057 -15.1525 4.38502 21
499 1 -13.4112 -5.75992 -0.711058 23
500 1 1.9708 12.3356 -15.1258 11
501 1 -1.85828 9.83604 14.6313 15
502 1 -10.3951 -6.11543 6.7463 21
503 1 2.07005 -10.8396 -8.97226 21
504 1 4.80263 -6.92165 11.2189 13
505 1 -10.1964 5.63688 1.00096 19
506 1 4.73508 4.77846 18.0306 13
507 1 5.01369 14.4187 -4.75217 19
508 1 10.8857 -6.92914 -1.61009 22
509 1 3.25558 9.48223 10.4604 22
510 1 0.810278 4.93007 -18.0448 9
511 1 -5.19164 -13.3057 10.9665 11
512 1 7.34532 -0.0136573 -15.2498 13
513 1 2.52835 13.3551 5.97158 20
514 1 9.13533 4.81654 -9.50213 19
515 1 -1.66412 -3.16425 -13.5813 21
516 1 -3.92173 -10.7557 -3.11072 21
517 1 -10.5385 -4.31117 -10.7575 17
518 1 11.9126 2.44574 1.64108 19
519 1 16.4111 3.81505 -3.32154 11
520 1 7.36023 -6.70923 -6.54501 20
521 1 13.9275 7.05289 10.5944 14
522 1 3.49945 -11.8585 -3.92239 24
523 1 2.44006 3.60832 -16.1504 18
524 1 7.33172 11.7459 1.03818 20
525 1 9.68885 10.9088 13.7141 13
526 1 12.9673 4.71454 -4.12648 21
527 1 13.1497 -1.97727 1.81707 15
528 1 11.9759 2.82993 -7.14402 21
529 1 8.91492 2.47138 13.0101 19
530 1 15.7183 4.82195 11.6906 10
531 1 3.32756 -4.66496 10.2001 20
532 1 14.2036 12.2958 -3.48342 9
533 1 2.15578 2.57627 14.5356 18
534 1 17.0091 -1.42156 -6.22599 13
535 1 7.12292 2.18663 9.05106 20
536 1 -8.74256 -0.412653 -5.86582 23
537 1 13.0332 5.56116 1.85273 20
538 1 10.0064 -5.36317 1.45306 19
539 1 -13.0842 7.7381 12.6324 11
540 1 8.83531 10.1854 10.7147 21
541 1 10.8031 0.634423 11.0412 21
542 1 1.60378 8.55347 7.5248 23
543 1 -0.853204 13.6162 10.3068 12
544 1 -2.47776 -18.2276 4.66024 12
545 1 -6.79916 10.8258 -2.18375 18
546 1 11.312 9.72447 -7.81956 17
547 1 11.5248 -4.65268 -12.9449 13
548 1 1.10067 16.6335 -1.74587 17
549 1 -4.19139 -13.0462 -7.69921 18
550 1 11.3304 -7.44726 -11.9984 14
551 1 -12.9776 1.39304 7.21675 18
552 1 -7.65417 5.9034 -10.2008 23
553 1 -4.62796 -16.4307 2.66208 17
554 1 -5.3571 -0.470464 -11.3055 22
555 1 -12.4849 1.60149 -4.78943 21
556 1 11.5864 -6.94947 4.23533 17
557 1 11.8864 10.7424 3.76438 19
558 1 1.1075 -8.34128 7.48945 19
559 1 -14.2161 -0.778984 -8.78182 13
560 1 2.44885 1.37046 -18.1596 11
561 1 -2.37369 4.59619 15.4801 22
562 1 7.08777 9.64702 -12.7695 11
563 1 13.1804 -0.670019 13.0826 13
564 1 8.41094 4.52949 -6.03279 20
565 1 11.8021 13.3443 2.66046 9
566 1 5.60356 -13.5809 -5.65365 16
567 1 -10.8572 -3.16034 14.0526 13
568 1 12.9502 -2.05574 4.64973 19
569 1 -1.11989 12.6562 13.5552 11
570 1 6.2128 11.7364 -10.4252 16
571 1 -12.2387 9.03746 -3.08843 13
572 1 9.24156 10.0831 2.56319 19
573 1 -9.56197 -14.9053 0.556711 14
574 1 13.2754 -4.7679 2.41294 17
575 1 7.61449 15.815 3.49946 13
576 1 -4.19027 4.27421 10.4494 18
577 1 -10.4668 -6.00754 1.30699 18
578 1 -9.11027 -2.0945 -8.56238 19
579 1 7.7991 -0.171854 11.5254 17
580 1 -2.45658 -9.17827 10.662 14
581 1 7.67495 5.87756 13.2333 18
582 1 -6.0661 12.4995 1.06977 21
583 1 9.92278 4.7438 1.6841 20
584 1 2.43027 -0.0300436 -15.7416 20
585 1 -9.9615 0.5963 7.37147 21
586 1 10.1656 -2.55031 -11.2177 21
587 1 12.2352 -10.1652 -5.64694 11
588 1 6.2963 5.17469 7.9795 19
589 1 -9.77686 -0.413295 13.1233 21
590 1 9.36925 8.38928 8.12009 20
591 1 1.01649 -2.62975 14.8962 11
592 1 -2.17314 5.94933 12.5963 22
593 1 0.127887 -5.79252 -14.0224 24
594 1 -6.33252 2.39556 13.0846 21
595 1 6.41758 3.26769 11.6434 21
596 1 -10.601 -16.4476 8.28842 11
597 1 12.1981 7.32684 -2.96525 22
598 1 6.45865 -12.164 -3.29087 16
599 1 6.0278 9.84323 -1.29861 20
600 1 8.7798 12.9559 4.30159 17
601 1 5.26391 -0.460616 -17.1038 13
602 1 1.93384 14.2119 -4.25865 19
603 1 12.6687 7.95996 0.27856 18
604 1 -6.88872 -11.3667 -3.89441 22
605 1 -1.53275 -0.822588 -15.9956 16
606 1 -10.8711 11.6608 -0.0341702 18
607 1 8.95455 -7.62633 -9.64412 19
608 1 11.1819 7.22685 -9.964 15
609 1 11.1765 11.7647 -3.06063 15
610 1 9.88623 5.74404 -3.75155 22
611 1 11.7872 2.31763 13.4888 17
612 1 10.1313 -0.283125 14.3566 18
613 1 -1.56677 -12.4584 10.5245 11
614 1 -5.85214 9.54706 -13.3383 12
615 1 2.86775 11.358 8.62046 21
616 1 8.93984 -7.59045 -13.7199 13
617 1 6.78179 11.1176 -3.80276 18
618 1 7.15506 10.6053 4.71026 17
619 1 13.9094 -6.63024 -3.04992 14
620 1 5.85173 7.84302 17.8027 13
621 1 -13.1102 -3.78585 5.72242 21
622 1 1.49228 -17.0572 2.0362 21
623 1 -9.43993 13.2034 1.88008 15
624 1 4.2343 11.6197 4.08431 15
625 1 -15.6217 -2.88608 2.98681 19
626 1 -1.67659 4.02236 18.3053 10
627 1 -6.01115 6.64341 -15.2685 13
628 1 -8.07512 7.05423 -13.5361 13
629 1 2.77326 -13.9363 1.79678 19
630 1 8.88725 7.50647 -7.06425 18
631 1 -14.1996 4.48696 13.1684 14
632 1 5.07885 -4.16345 -11.8237 19
633 1 1.69796 -12.5832 9.30897 12
634 1 2.04824 15.4763 0.837912 21
635 1 -3.49169 1.91858 16.0742 16
636 1 -8.88299 -7.22436 -11.2024 17
637 1 -3.93554 -10.83 -13.6789 12
638 1 -7.14567 -13.4287 -7.96061 15
639 1 0.263409 17.2921 -7.78513 9
640 1 4.83702 -2.94299 -8.81342 21
641 1 -4.34372 11.3161 7.11423 21
642 1 4.94312 -11.7996 -8.4193 21
643 1 5.9818 -16.1135 0.737258 12
644 1 3.01342 -5.60702 7.4217 23
645 1 16.3516 1.5083 -7.60111 14
646 1 0.277512 -13.8056 -5.15254 20
647 1 -12.0052 -4.3628 8.24069 17
648 1 -4.63348 -17.6034 -0.130267 13
649 1 -10.4088 -10.7309 -4.52205 15
650 1 -11.0523 0.577389 10.3009 20
651 1 -7.3622 -17.1216 2.2543 11
652 1 14.8502 3.83061 -5.8225 19
653 1 -5.26689 15.8985 3.8887 13
654 1 -14.1733 6.16035 4.16829 15
655 1 10.3649 -1.75338 2.17392 17
656 1 -13.2043 -2.39279 -11.1613 11
657 1 0.33314 11.2264 -4.08926 23
658 1 8.93387 2.10744 -7.54772 17
659 1 7.18965 11.9483 12.4954 15
660 1 10.7347 2.06378 -4.61521 21
661 1 -14.0907 1.95574 -7.31901 14
662 1 -11.2917 -5.88185 -6.77383 17
663 1 -2.14663 7.4528 17.7937 13
664 1 4.69463 8.73778 -10.8836 18
665 1 10.7025 12.7096 6.4659 15
666 1 -2.11469 -0.360891 10.2625 18
667 1 -3.03199 -16.017 -2.05409 15
668 1 -7.85646 -17.4613 7.55422 10
669 1 -3.16579 -5.41603 7.36171 18
670 1 14.7944 9.77485 9.31158 13
671 1 1.84031 -8.0168 -8.65704 24
672 1 -7.17106 7.56866 -0.495269 21
673 1 7.20145 7.47667 3.32351 19
674 1 -9.94781 -4.18172 4.36343 20
675 1 8.85961 6.82968 -12.0026 12
676 1 -1.7075 -16.3882 -5.53435 11
677 1 0.0505673 -19.3321 2.66208 13
678 1 0.147395 -14.4094 -0.0257659 24
679 1 5.59595 3.31802 -8.35614 21
680 1 7.12864 17.9159 0.599395 9
681 1 -3.74343 -0.733635 -14.3264 21
682 1 -0.770872 0.427841 12.9065 21
683 1 -0.149081 6.03509 -15.663 17
684 1 -10.2641 -2.05942 -13.2636 14
685 1 -14.2129 -2.63655 -2.22271 20
686 1 3.37303 15.3201 -6.89974 15
687 1 -2.30406 -6.47978 -16.1161 14
688 1 11.7816 5.96089 -6.29535 23
689 1 12.3712 -7.92283 0.874483 19
690 1 -7.29983 6.71879 13.714 18
691 1 6.0682 -9.84208 4.55 14
692 1 15.0957 -7.85748 -0.498115 11
693 1 13.9577 -3.26685 10.907 12
694 1 -1.88773 8.70195 6.84398 22
695 1 -11.9866 2.30403 13.6117 16
696 1 -7.8143 4.86495 11.77 20
697 1 -3.5139 -13.1833 7.86165 15
698 1 6.54986 8.99561 12.3093 21
699 1 -18.0477 -3.19326 1.15117 11
700 1 7.9343 -6.4384 -0.669594 21
701 1 -11.6306 11.8194 -3.90625 11
702 1 2.01659 -17.0279 7.05671 10
703 1 4.8366 1.32282 13.7989 19
704 1 -0.0810647 12.8947 4.48383 15
705 1 2.48238 -10.943 6.76584 20
706 1 1.81329 1.65035 11.3979 18
707 1 -16.8309 -6.46927 -3.31669 8
708 1 1.17357 10.0938 14.8213 18
709 1 4.51688 12.2845 0.0918142 22
710 1 -10.5394 -10.4447 4.66119 19
711 1 -5.00563 -16.339 6.24433 13
712 1 6.43463 -5.91092 6.91931 17
713 1 13.4761 -5.79289 8.14679 11
714 1 7.24929 7.67865 6.373 19
715 1 -1.26787 -9.15258 -8.94966 23
716 1 -3.42816 1.84641 -12.4241 18
717 1 -4.08206 -0.163267 13.1739 23
718 1 -0.495969 14.822 1.95322 15
719 1 13.0955 0.89781 4.2846 16
720 1 3.06388 7.496 -5.94987 22
721 1 -4.27802 7.87272 14.3766 16
722 1 7.89106 6.74265 10.2948 18
723 1 8.30402 -4.81139 -11.38 21
724 1 -6.86095 -11.7317 -0.161535 20
725 1 15.3396 2.23843 7.01876 12
726 1 2.79462 -1.97818 -10.9792 19
727 1 -0.383059 7.1792 15.1008 22
728 1 9.92836 -12.363 -6.20583 10
729 1 5.25763 4.68889 -14.7759 14
730 1 11.3633 3.61249 -10.1964 15
731 1 14.6062 -2.58643 -0.563971 15
732 1 1.63801 -5.66333 12.6823 11
733 1 -3.57094 -8.8314 -11.2414 21
734 1 8.56343 12.9456 -1.5107 15
735 1 -14.0799 3.16579 5.03559 17
736 1 8.99631 -0.5083 -5.66936 19
737 1 13.5958 5.82696 5.31152 14
738 1 3.4009 -5.79326 -14.5302 22
739 1 -7.78584 12.1079 6.56065 22
740 1 15.1901 8.28745 6.51269 13
741 1 11.8766 12.4657 -6.04661 11
742 1 2.74093 1.42503 -12.7864 18
743 1 12.9287 -5.10734 -0.473389 20
744 1 -10.0358 1.70187 -1.85797 20
745 1 10.4374 7.32021 2.72554 20
746 1 -12.6838 -10.2821 -0.631132 14
747 1 -11.5534 8.26837 -8.94499 14
748 1 3.95793 3.79031 10.2906 20
749 1 -11.3435 -0.600871 -6.79925 20
750 1 -11.0551 6.7078 4.19929 18
751 1 -4.55943 5.2446 -9.31543 20
752 1 10.426 -8.16507 -7.15737 18
753 1 -12.0782 -8.75544 -6.63587 13
754 1 9.61261 -9.41556 -1.43532 17
755 1 -14.7947 3.33876 1.93243 14
756 1 -9.80182 -5.2134 -4.02522 18
757 1 12.221 7.79449 6.82131 15
758 1 -5.59075 -8.43482 4.9744 16
759 1 9.40429 2.32801 15.9256 14
760 1 14.4681 -2.71293 7.46483 13
761 1 9.72148 -3.72151 4.22478 19
762 1 -11.6078 3.83392 2.68556 20
763 1 -0.201658 10.0826 9.57202 20
764 1 2.47802 8.70894 -8.93302 20
765 1 0.680337 -7.70071 -16.1732 16
766 1 -5.98235 14.4184 6.76569 16
767 1 -10.9467 -11.4841 7.89579 16
768 1 9.31261 10.7379 -5.62971 20
769 1 0.263352 8.06031 12.1314 20
770 1 14.4836 -2.80792 -5.40426 20
771 1 7.80573 -6.0052 9.82411 17
772 1 -2.02183 13.1843 -12.1006 11
773 1 3.09148 11.6136 -10.155 20
774 1 -7.77613 -0.977768 9.81743 20
775 1 16.6319 5.17843 6.3944 10
776 1 -2.80355 -5.08652 -10.5521 23
777 1 13.5265 11.1564 0.092228 10
778 1 -13.8802 1.67151 -2.14973 18
779 1 -6.48503 -10.6077 7.12507 17
780 1 4.20727 14.3179 -10.0739 15
781 1 6.27638 -2.82606 9.67323 22
782 1 -1.82705 -12.4045 -1.62677 21
783 1 -6.89256 15.6997 1.41792 15
784 1 -14.7066 4.67558 -1.92951 12
785 1 12.5915 -2.8556 -8.21333 19
786 1 1.13943 -13.1333 -13.1794 13
787 1 -7.76725 7.9035 3.13136 20
788 1 13.9489 9.80009 -5.73831 15
789 1 -6.61103 0.280443 7.25173 23
790 1 7.46319 -3.1907 -16.7919 10
791 1 -7.50712 -10.5366 -9.706 16
792 1 -1.10585 -11.2818 -4.41316 18
793 1 -4.52542 11.2211 13.4493 13
794 1 6.19899 -12.7569 -0.33479 16
795 1 -0.704844 10.1633 -13.6392 14
796 1 16.1305 0.896779 -4.30407 15
797 1 7.51308 7.75622 0.455658 19
798 1 0.269346 -17.7135 -0.455957 14
799 1 4.51157 -3.04064 -15.9474 19
800 1 11.7207 0.273981 -0.573229 18
801 1 -2.02538 4.40019 -13.4732 22
802 1 -2.05169 -7.60228 8.37484 18
803 1 6.40211 8.61105 -5.52433 20
804 1 7.21591 -0.376486 -8.29708 19
805 1 -10.8738 3.90933 -3.46673 21
806 1 -15.3425 3.92834 10.3694 12
807 1 0.323744 6.58994 18.3778 12
808 1 -8.09789 -8.08358 9.13062 23
809 1 4.54675 9.53458 6.78206 21
810 1 -0.52956 -14.8322 3.14484 19
811 1 4.64666 8.30215 -3.27166 22
812 1 -5.48013 7.14874 11.2333 21
813 1 -6.87775 -0.286142 12.5914 23
814 1 -11.1695 10.5649 7.34027 16
815 1 -4.70871 -7.81287 12.0253 14
816 1 4.25201 -12.5164 4.96466 21
817 1 9.38383 4.6611 7.30206 19
818 1 6.19307 -4.16815 -6.02532 21
819 1 5.97795 -12.7099 -11.268 8
820 1 -6.42593 0.957844 -13.1878 19
821 1 -1.58714 2.81775 -16.9094 12
822 1 6.51584 13.4473 9.72691 16
823 1 -10.424 -5.5726 12.2647 16
824 1 -3.83021 7.57041 -6.17983 20
825 1 -14.5438 4.31988 -4.77514 16
826 1 10.5947 12.1572 0.378873 16
827 1 -10.1045 -16.6215 4.8506 11
828 1 13.8997 11.423 6.386 11
829 1 -10.8597 -12.8933 -1.72267 13
830 1 4.33703 14.6527 8.02441 14
831 1 -8.11841 -1.93414 15.1057 14
832 1 -1.73262 -14.9979 -8.1698 15
833 1 13.2503 2.3348 9.58341 17
834 1 3.23713 -18.4755 4.26326 11
835 1 3.89684 10.2519 17.0613 14
836 1 13.1666 -1.6998 -11.0839 14
837 1 4.43332 -8.30654 1.98608 17
838 1 2.36563 -3.09535 -13.6484 20
839 1 -11.1972 1.72264 -12.2185 15
840 1 -7.23841 4.02261 -13.4953 18
841 1 -10.3737 -3.46326 -1.56883 20
842 1 -4.86367 4.97818 13.9431 21
843 1 12.5688 -1.02599 8.45508 20
844 1 -8.71967 -6.80948 3.77032 18
845 1 14.5004 0.694788 1.87687 13
846 1 -1.97458 5.42383 -10.7789 22
847 1 14.7957 6.06362 -1.46036 16
848 1 -2.82166 15.3852 8.94073 12
849 1 -14.6713 -6.98906 4.32401 16
850 1 8.3409 -14.5366 -4.88681 10
851 2 -11.1158 -1.7835 -8.2241 21
852 2 -5.92943 14.0886 -3.70172 19
853 2 1.09642 -2.31552 -12.0806 20
854 2 -4.08312 6.56349 12.7092 20
855 2 6.36218 -12.7715 -9.51201 10
856 2 -6.84829 -5.16907 -6.93268 20
857 2 2.93975 1.13803 13.6232 20
858 2 6.91982 0.676302 16.6597 14
859 2 -13.3608 -9.6744 1.16281 11
860 2 -13.474 5.77456 -5.18468 14
861 2 0.490408 13.5863 6.27347 16
862 2 -9.84286 0.0402964 4.20218 22
863 2 2.30073 13.6225 -6.12142 20
864 2 10.1221 2.96277 2.21174 17
865 2 -0.627297 17.0967 -6.2279 12
866 2 9.78826 12.3838 -6.59849 16
867 2 -11.3773 -3.19441 -12.0405 12
868 2 -11.0386 -7.65263 -7.91468 14
869 2 3.7581 1.93704 10.9839 20
870 2 9.07502 -3.88664 -10.0614 20
871 2 1.36315 -15.0793 2.72436 19
872 2 -7.30094 9.56814 -0.927954 19