ITEM: TIMESTEP
20000
ITEM: NUMBER OF ATOMS
1500
ITEM: BOX BOUNDS pp pp pp
-30.0 30.0
-30.0 30.0
-30.0 30.0
ITEM: ATOMS id type x y z Coordination
1 1 -11.2487 -14.5264 -3.23655 15
2 1 5.00374 -15.9445 4.56117 16
3 1 -12.3111 2.51607 1.50129 16
4 1 -9.85145 -1.95092 -11.2628 20
5 1 -3.28251 -13.3884 9.31723 19
6 1 -9.96805 -4.63431 -16.034 13
7 1 -9.83358 -17.9306 3.94546 17
8 1 -11.7583 -10.0014 4.09469 19
9 1 -1.56852 -3.65961 17.5003 8
10 1 4.67511 -6.03123 6.38636 19
11 1 -3.22807 -3.32713 13.6023 20
12 1 6.57336 -4.75719 4.07044 19
13 1 -5.01143 3.06686 -6.72354 19
14 1 5.1633 -2.79021 11.9651 22
15 1 11.9412 0.913662 6.05851 16
16 1 0.566631 4.14859 -11.1044 16
17 1 1.52564 1.11769 -11.6245 17
18 1 -10.2901 -4.88685 0.990903 19
19 1 -3.61181 -7.15682 -7.52074 21
20 1 3.14929 -16.9891 2.80969 19
21 1 -0.405785 -4.97164 9.03611 21
22 1 6.70615 -13.1325 3.59545 22
23 1 -8.87711 -16.365 -3.4057 16
24 1 2.44232 -8.33628 -1.81796 19
25 1 4.41369 -11.107 -8.81787 20
26 1 1.83002 -7.25283 13.4116 17
27 1 -4.22496 -14.4282 4.16994 20
28 1 0.50246 -13.0004 10.1872 18
29 1 -13.255 -7.08659 4.09513 16
30 1 -8.55948 -4.12948 -1.59073 19
31 1 -4.83826 7.0521 -2.01844 22
32 1 -3.01218 -4.30995 -9.78729 18
33 1 4.85619 -13.0433 -11.6893 9
34 1 1.11472 -13.7996 13.1241 13
35 1 -14.4889 -1.90709 1.25353 15
36 1 1.5819 8.19996 10.9534 10
37 1 -12.299 3.00229 -1.96899 16
38 1 -1.92874 8.75761 -3.95286 16
39 1 -3.50194 -20.2142 0.810859 12
40 1 4.45341 -10.1359 -4.18902 20
41 1 -6.8325 0.207171 17.1735 8
42 1 -12.7315 -8.96028 -7.48053 14
43 1 4.82648 -2.39822 3.83513 25
44 1 -8.05239 2.96158 -11.6642 16
45 1 -11.3682 -11.9313 6.24477 19
46 1 -11.3281 1.54267 -6.63006 15
47 1 -3.35783 -1.60224 -8.68678 19
48 1 -0.858579 2.36877 6.40247 18
49 1 -3.54223 1.06463 7.2184 17
50 1 8.50764 -16.8468 -0.447433 11
51 1 1.91191 0.989483 14.8194 12
52 1 12.1565 -6.27152 -11.9284 8
53 1 5.88935 -11.9967 6.38048 21
54 1 -9.9309 -6.74089 3.82008 22
55 1 5.71679 -11.1218 11.3983 18
56 1 -5.76435 -12.3875 8.88155 18
57 1 -11.8419 -4.43974 -1.7943 16
58 1 6.9933 -0.257988 7.09403 21
59 1 5.57968 -6.24709 1.17236 25
60 1 -1.39995 2.61481 12.135 15
61 1 5.93531 -7.32811 9.98492 19
62 1 -12.5953 -10.0319 8.73161 19
63 1 -4.31738 -9.38787 -5.99088 22
64 1 -8.16498 7.34149 0.413683 18
65 1 -9.88565 1.14882 -12.6961 15
66 1 4.72751 -0.926577 -4.56648 21
67 1 5.69903 -8.04791 -1.78391 21
68 1 6.57684 -8.69537 7.01731 22
69 1 1.76016 -18.637 5.12959 10
70 1 -6.22386 9.75664 -1.42815 13
71 1 -10.6258 5.60949 8.9255 12
72 1 -7.71701 1.35982 6.59686 17
73 1 -11.3564 -14.1025 10.497 12
74 1 14.1768 -8.632 -3.59997 10
75 1 -14.4361 0.944331 3.05877 15
76 1 9.42814 -8.06819 -1.63115 17
77 1 -0.328105 -3.5661 -9.64527 18
78 1 -4.34525 -3.84397 -16.1164 12
79 1 -2.3607 8.45366 2.84927 19
80 1 -11.0694 -3.87348 -13.7207 19
81 1 3.01362 6.06598 -7.60204 15
82 1 0.658186 8.38746 8.15885 18
83 1 -6.91313 -10.0314 6.90156 18
84 1 -1.27777 -9.63112 -6.52117 18
85 1 4.01138 -15.4594 -5.18192 12
86 1 -4.01374 -2.77524 10.1019 17
87 1 -8.1307 -9.53667 -1.18224 19
88 1 5.23766 -7.75178 3.5495 21
89 1 -11.4068 -9.74658 -1.80358 18
90 1 7.5573 -10.1443 4.12607 21
91 1 -9.70494 3.344 7.35279 16
92 1 8.80798 -4.2893 -12.825 12
93 1 -0.637469 1.31863 -5.16143 21
94 1 11.2842 -11.0244 3.76344 16
95 1 -0.399523 -17.4759 6.55668 15
96 1 -7.36653 -15.2004 -0.374845 18
97 1 -14.6445 -11.3623 6.58964 14
98 1 8.60817 -1.0154 9.36075 22
99 1 4.36567 3.55186 -3.02348 19
100 1 -6.05899 5.25977 13.2612 13
101 1 -8.03791 9.83718 -4.37837 11
102 1 -2.83773 -10.5166 -9.09181 20
103 1 10.806 -10.2899 9.41584 15
104 1 -6.06551 7.6542 -4.94487 19
105 1 12.7177 -6.56837 -5.2919 11
106 1 -10.2346 0.505174 -4.23237 17
107 1 -2.07762 11.0023 2.19715 14
108 1 3.15462 -0.958094 -7.30639 20
109 1 1.9179 -15.5933 5.93708 19
110 1 -7.55702 5.56963 -3.10297 17
111 1 2.01583 6.11767 -3.56225 15
112 1 10.4095 -1.57625 6.50321 21
113 1 -11.3269 7.96643 -4.42873 10
114 1 -12.1466 -10.3567 -13.2762 11
115 1 -3.29818 5.09513 11.6283 16
116 1 -14.3473 -5.1623 -3.35559 13
117 1 10.0885 -3.32644 -3.84571 21
118 1 -8.70182 3.36066 13.6366 11
119 1 -5.78039 9.02063 -7.40194 12
120 1 2.50435 -6.79756 9.09977 17
121 1 -13.0527 -14.3119 7.42188 14
122 1 -5.19313 -15.4441 8.57208 19
123 1 0.792308 -15.8311 -3.55552 16
124 1 -8.6695 5.94182 -9.61071 11
125 1 -1.36945 4.13646 -8.79595 18
126 1 10.1884 2.28348 -4.24255 14
127 1 -1.88962 -14.8992 13.3535 11
128 1 -8.40951 -2.11394 0.250619 24
129 1 0.275423 11.3617 3.46314 12
130 1 1.66959 4.05996 13.6877 10
131 1 -5.28611 12.5125 5.62495 12
132 1 -12.6288 -5.41217 -8.97913 17
133 1 10.691 -12.0149 -1.9713 14
134 1 -10.3087 -8.0139 10.3259 22
135 1 -11.6519 -5.76555 8.2114 18
136 1 -10.2739 -14.9783 4.39123 20
137 1 -13.7638 -5.03503 0.494917 22
138 1 -1.72345 -18.602 3.17998 15
139 1 -6.50729 -6.24736 -1.25131 23
140 1 4.14012 -11.269 -1.48908 19
141 1 -3.42005 4.07013 6.3454 22
142 1 -9.23165 -1.10817 5.3284 17
143 1 -5.42109 -0.273186 -8.31979 21
144 1 -12.7356 -0.66345 -13.1329 11
145 1 -14.5932 -11.1056 -6.4435 9
146 1 -13.4165 -6.60307 9.9174 16
147 1 -4.06548 -12.115 6.62934 20
148 1 3.07183 -20.0808 2.13611 12
149 1 14.7663 -6.69693 11.0242 10
150 1 6.66674 -5.95661 -6.96044 23
151 1 4.482 -1.4379 15.3366 10
152 1 -6.01995 5.36789 -11.5657 12
153 1 8.55095 -0.53066 -4.39231 21
154 1 -12.3557 -7.12409 -12.544 15
155 1 -9.17225 6.8993 -5.91038 16
156 1 -4.49582 11.4194 2.61197 15
157 1 4.75443 -6.01542 11.9815 22
158 1 -1.37742 -12.3084 -11.1501 13
159 1 -10.7754 5.34662 -7.46949 11
160 1 -1.82388 1.58353 -10.5151 20
161 1 -6.52409 0.236523 14.4761 14
162 1 -8.16195 8.18615 7.59906 15
163 1 -0.866137 -12.6561 -3.37906 22
164 1 -8.51835 -18.6122 -0.49508 16
165 1 9.58682 -13.536 3.94972 15
166 1 4.02623 -8.99629 0.697094 22
167 1 6.47192 2.18645 -4.60504 21
168 1 -4.36337 4.76194 -4.16958 20
169 1 -16.7456 -8.61425 5.55797 10
170 1 -2.18596 7.17802 6.01651 19
171 1 14.2886 -0.583384 1.52491 13
172 1 1.72475 4.67695 8.126 22
173 1 -12.9132 3.45683 8.71812 14
174 1 -10.6082 -15.6734 -0.370685 24
175 1 5.02673 1.4636 -14.212 7
176 1 3.98965 -4.42972 9.69737 17
177 1 9.72619 -0.256912 -8.07552 16
178 1 2.66109 -15.0799 -0.450507 16
179 1 -6.76665 -9.13953 -13.8582 18
180 1 8.4603 -6.48658 -4.59983 20
181 1 -13.994 -12.3011 9.95273 13
182 1 -2.6773 -19.4162 -1.99944 11
183 1 -13.3477 -11.053 -3.91819 14
184 1 4.08494 7.47545 -4.75577 11
185 1 -1.18095 -10.7883 -13.8215 9
186 1 6.98917 1.24233 14.9944 8
187 1 14.6716 -4.89158 7.89893 10
188 1 -6.15618 -9.80352 1.67224 21
189 1 10.1468 -5.4222 -6.54806 19
190 1 -4.75897 -8.97035 4.43873 25
191 1 -8.94614 -9.99559 -8.93418 17
192 1 -10.4835 -3.15907 -7.86757 22
193 1 11.9189 0.854452 9.43276 15
194 1 6.63479 -8.82481 13.2065 15
195 1 -6.1355 -11.752 -8.14987 23
196 1 0.134086 -9.37839 6.25116 22
197 1 -1.41273 -2.71077 -14.2884 10
198 1 1.02233 3.24523 2.24032 19
199 1 -11.0988 -7.94353 6.15066 15
200 1 -2.79875 10.5175 7.71604 12
201 1 -8.51723 -4.57211 12.8366 21
202 1 -10.5436 -10.886 -7.09105 17
203 1 -9.10812 -11.6091 -12.3509 14
204 1 -9.5036 -12.87 -1.09017 20
205 1 -2.11061 -11.5399 4.34566 21
206 1 9.47906 -3.66503 5.37082 18
207 1 -4.64228 -9.19041 -1.35155 20
208 1 -13.7894 -9.25327 11.5113 15
209 1 -4.04009 -12.4233 1.66906 19
210 1 -0.589717 -14.2945 5.34099 23
211 1 -3.1206 10.2627 -0.906042 17
212 1 2.13003 -2.12141 -9.82397 20
213 1 -8.68016 -7.74232 -17.1346 12
214 1 0.966533 -15.273 2.17537 20
215 1 -6.98945 -13.9784 -7.21728 16
216 1 -8.76532 -6.01337 -13.1263 21
217 1 9.49966 -3.96113 8.56063 21
218 1 -5.66513 -2.33385 -10.5811 18
219 1 -5.00684 2.04125 -12.6059 16
220 1 -5.03156 -6.81338 6.67622 21
221 1 -2.8097 12.9638 4.64613 10
222 1 0.195645 4.96011 5.14085 22
223 1 12.6441 -1.02953 4.38706 17
224 1 -14.2417 -3.49116 10.3345 13
225 1 -8.39608 -12.6739 11.9704 16
226 1 -4.32888 7.60425 0.969153 19
227 1 2.38764 -10.2414 -11.8413 15
228 1 2.90698 -13.8487 3.91799 23
229 1 -5.62766 -7.97968 13.5651 20
230 1 -15.3655 -9.15923 8.54824 12
231 1 13.1394 -6.04732 -2.06279 14
232 1 5.10843 -6.69818 -4.31161 21
233 1 8.86199 -15.0269 -2.98555 13
234 1 -8.11826 -9.40015 4.36188 24
235 1 -8.29708 10.5479 1.92343 10
236 1 -0.702301 -5.17384 14.7841 14
237 1 9.00502 2.02717 7.47857 22
238 1 -8.55744 -3.75318 3.32345 22
239 1 10.2349 -13.9667 0.209519 13
240 1 -4.35427 5.5942 3.17042 23
241 1 -6.18368 3.14012 2.30518 17
242 1 -2.68151 -15.2622 6.64741 16
243 1 9.21712 -9.0493 6.4706 20
244 1 -4.44901 1.85656 12.3192 16
245 1 -9.95047 -5.30324 -4.96167 20
246 1 -3.34902 -6.48615 15.7981 14
247 1 -0.332815 10.809 9.9187 9
248 1 -7.61403 -0.0371777 -11.0037 20
249 1 -10.8813 -4.26852 14.6905 14
250 1 -17.0423 -4.36158 5.51616 9
251 1 -4.63414 -7.53656 -3.88315 22
252 1 -9.24346 4.3208 -0.129122 21
253 1 8.89147 -2.87591 12.3322 18
254 1 -10.8164 -17.3816 6.47213 12
255 1 3.60041 -8.83169 11.5103 21
256 1 -11.548 5.50513 1.25137 12
257 1 2.22454 -11.0394 13.5991 15
258 1 1.03342 -12.498 -6.3505 18
259 1 -8.15729 -7.74538 -4.08299 18
260 1 5.49988 -1.89708 -9.84241 20
261 1 0.322981 8.44928 4.66076 19
262 1 -11.8866 -0.791896 -8.5401 15
263 1 7.15613 -7.2233 -12.1243 16
264 1 -11.3033 -18.6274 1.25356 15
265 1 -14.6409 -8.26282 -5.14023 14
266 1 -2.85679 -9.87146 1.70581 23
267 1 10.2563 3.89373 -2.09437 15
268 1 -7.5623 -3.95848 -12.1944 17
269 1 -8.46371 -1.33572 -8.47528 19
270 1 -7.22613 6.40829 9.27781 19
271 1 -7.54106 10.4634 4.69219 14
272 1 -9.05721 5.87371 12.0195 11
273 1 9.95409 -5.31554 -2.51344 22
274 1 11.7028 -2.94363 -7.42151 15
275 1 -5.83849 2.20833 -2.87942 22
276 1 0.698604 -11.4191 -1.15525 19
277 1 -4.08131 9.44895 5.04454 21
278 1 -6.90645 -0.860223 -2.60191 23
279 1 9.18131 -11.4468 1.71207 18
280 1 9.58397 -8.60364 12.2253 17
281 1 -12.174 -1.28967 -5.43643 17
282 1 -5.65798 -11.7788 3.80627 19
283 1 -4.0747 6.5887 -7.14206 16
284 1 -11.3935 -8.44665 -4.72025 21
285 1 -8.67515 2.1538 -2.64266 19
286 1 -1.58079 6.93565 -9.92352 19
287 1 6.04316 7.74728 6.32828 13
288 1 -15.0481 -10.3716 -0.81471 11
289 1 -3.77037 -13.837 -3.04333 22
290 1 -15.2228 -6.32598 8.01567 12
291 1 -11.7727 4.76834 -4.94916 11
292 1 2.58463 -11.9286 6.60369 19
293 1 -4.32707 -17.776 5.64893 13
294 1 3.6395 3.47399 -12.1805 14
295 1 -7.5928 1.90054 -8.49468 16
296 1 -4.06734 -16.9933 2.54911 17
297 1 9.86984 2.91864 10.5139 12
298 1 -5.02581 -5.59026 11.9384 22
299 1 -16.8798 -7.99743 -0.736783 10
300 1 -11.1639 1.49141 4.13846 14
301 1 -3.06872 -17.4026 9.01461 14
302 1 -1.50343 -7.46563 -4.32116 23
303 1 6.88481 -13.0213 -9.32321 11
304 1 -5.98507 -8.09907 9.54535 17
305 1 -11.1267 -3.53627 5.1708 20
306 1 -0.767977 -7.7382 9.02048 23
307 1 2.45489 -12.9768 -3.71942 19
308 1 2.23341 -13.6037 -9.14419 11
309 1 -7.44347 -10.1499 10.6576 19
310 1 2.81067 -12.2903 0.725367 21
311 1 -7.18608 0.433545 -14.099 13
312 1 7.67231 -14.5552 6.08201 16
313 1 0.555761 9.12584 -8.38804 11
314 1 -9.00126 -9.36104 13.6703 16
315 1 -7.09251 -5.42659 9.48542 18
316 1 5.3768 -11.1679 14.4767 10
317 1 7.83335 -0.680007 0.882565 20
318 1 -7.05653 4.6298 4.96999 17
319 1 4.501 -4.91043 -9.54103 18
320 1 6.67704 -13.2033 9.36826 15
321 1 11.9655 -2.88878 2.88015 19
322 1 -6.64661 -8.12416 15.9975 13
323 1 -1.40781 5.5066 -2.84561 17
324 1 8.11893 -10.2057 9.24903 20
325 1 -5.57994 -18.3927 -0.483413 16
326 1 -5.36607 9.48919 9.33455 16
327 1 -13.9814 -14.1179 -4.5118 8
328 1 -0.967727 -2.64619 11.2388 18
329 1 -12.5756 -2.63921 8.07546 19
330 1 -5.96961 -10.9665 -3.84582 20
331 1 -12.4939 -2.06368 12.3049 14
332 1 -9.53934 -11.1105 -3.86182 17
333 1 -4.3996 8.01181 11.6751 12
334 1 -5.43244 -16.1589 -2.39683 18
335 1 -6.59873 -13.004 -10.7268 13
336 1 -7.51765 -12.5728 1.74428 17
337 1 -7.21664 -2.84286 9.9144 14
338 1 7.32187 -5.5411 13.377 18
339 1 -11.2063 -7.06477 13.2454 16
340 1 -8.75122 -6.4301 -9.63895 18
341 1 9.70047 -3.38024 0.548298 20
342 1 -13.8375 -17.272 0.065227 10
343 1 -0.582029 -1.14162 -7.42303 20
344 1 -0.947824 10.8117 -2.28269 12
345 1 -5.2981 2.77626 -9.85263 19
346 1 -5.95353 3.52219 10.6696 17
347 1 -13.7288 -7.48498 -1.95275 20
348 1 5.9012 3.06958 -9.38928 16
349 1 -7.35853 -10.3065 -6.20671 18
350 1 -4.3409 -15.569 -5.73502 13
351 1 0.713967 -10.4329 -8.989 20
352 1 -11.9458 6.55469 5.4123 7
353 1 -0.189374 -1.66715 14.6612 19
354 1 5.97559 2.69329 0.741957 17
355 1 -2.82735 4.69237 0.246847 22
356 1 -11.7346 1.07645 -10.3608 13
357 1 1.47105 -3.77268 -7.10232 19
358 1 -2.81273 -8.96182 6.86432 20
359 1 -14.0877 -13.9325 1.48133 13
360 1 -4.42018 -9.78157 -15.2592 14
361 1 9.99004 4.2469 1.33608 12
362 1 5.84881 -11.9617 0.980522 21
363 1 12.9003 -4.31872 5.63933 18
364 1 2.20684 -7.67596 -9.46344 18
365 1 -0.685686 -12.4816 1.2646 21
366 1 -8.22262 -20.3081 2.0958 10
367 1 4.55128 -14.4197 7.4755 18
368 1 -13.0999 -2.51189 -11.0397 15
369 1 -0.693364 -13.515 -8.71793 14
370 1 -0.219759 -6.24567 -11.8339 14
371 1 -2.89 -10.014 16.5806 8
372 1 -13.1231 -10.9161 1.49041 18
373 1 10.7653 -8.77605 -4.24934 18
374 1 6.59749 -3.3391 -4.35785 22
375 1 -5.32792 7.51197 6.2262 19
376 1 0.735967 -10.0587 -3.91903 22
377 1 3.97687 0.69941 -9.77045 19
378 1 9.36109 -8.65321 -6.83197 19
379 1 -5.39232 0.369074 9.34244 15
380 1 4.4034 7.08982 3.56756 17
381 1 -5.10504 -7.54845 -17.2479 9
382 1 -9.67573 -3.68247 8.15059 17
383 1 -4.36298 10.0366 -4.17904 16
384 1 -11.1286 -7.56898 -15.1938 15
385 1 -11.9073 -2.07473 0.444709 18
386 1 -5.86334 -15.5612 12.891 11
387 1 -2.17959 4.15782 -5.71715 18
388 1 13.2048 2.74009 -2.6434 8
389 1 -14.029 -15.8055 -2.01582 13
390 1 -2.0732 -15.3456 2.64415 22
391 1 -8.01725 10.9133 7.11365 11
392 1 0.0981676 -6.7792 -6.9297 21
393 1 1.30663 3.25731 -3.46496 17
394 1 15.0311 -7.16888 -0.197475 10
395 1 5.0223 5.9749 -9.8197 12
396 1 1.05914 -11.2502 3.38085 19
397 1 -8.47584 1.3428 9.66793 12
398 1 3.45851 6.01665 11.7708 10
399 1 -5.79958 -6.20153 -14.6986 21
400 1 -9.33301 -13.2725 -9.33683 14
401 1 0.565443 -9.72419 11.5604 17
402 1 4.76456 4.03486 9.45179 17
403 1 0.689305 4.25393 -6.20312 15
404 1 -10.4084 6.06276 -1.75552 14
405 1 -9.4981 9.18442 -1.58822 10
406 1 10.0125 -5.77201 11.5497 21
407 1 8.42925 -3.03832 -7.25354 24
408 1 -7.85509 -16.3675 7.14257 17
409 1 -2.82404 -0.42242 13.0021 20
410 1 -3.00177 9.31122 -10.0411 10
411 1 5.9921 -18.1215 2.11436 11
412 1 10.6025 -9.31996 -12.686 7
413 1 -2.91371 9.68177 -7.57317 14
414 1 -9.20645 -10.1849 -15.1347 12
415 1 3.13199 -20.3838 -0.182717 10
416 1 -10.9195 -13.3384 1.77062 22
417 1 -5.52469 -1.73891 -5.23568 23
418 1 -11.0071 -10.797 11.2442 14
419 1 0.766398 5.10383 -0.421768 19
420 1 5.88749 -16.3641 -2.64488 15
421 1 3.88517 -12.8679 11.7353 17
422 1 4.76626 -2.47187 -1.90162 24
423 1 -11.2563 0.707566 7.077 21
424 1 8.61119 -6.30069 0.341981 22
425 1 -0.162037 5.41552 11.0515 16
426 1 -5.94381 -5.28122 -9.67284 18
427 1 3.79562 9.81279 8.68169 11
428 1 9.81895 0.51334 -1.56738 18
429 1 -0.636371 -8.89869 -11.3831 15
430 1 -7.26947 -13.9722 -4.06503 20
431 1 -10.9233 -5.34441 -11.0548 21
432 1 12.5038 5.67632 -0.278089 6
433 1 11.6448 -5.93102 0.254437 22
434 1 5.0412 -9.86444 -12.5011 12
435 1 7.48776 -9.50904 -4.12001 20
436 1 2.391 2.50381 5.74587 19
437 1 -10.553 -0.93409 2.74809 20
438 1 8.09573 4.76501 -4.2154 13
439 1 11.7189 -7.99331 4.41878 19
440 1 6.46049 -1.82783 -14.2083 9
441 1 11.72 -1.85393 10.9967 17
442 1 -0.941087 -11.8078 13.6172 14
443 1 2.72796 -1.54499 12.708 13
444 1 13.0621 -3.42868 -4.07488 14
445 1 7.14265 -4.89377 9.99421 19
446 1 -8.03801 -4.29935 -7.19989 19
447 1 10.0706 3.51263 4.4071 14
448 1 10.3382 -8.34732 1.62833 18
449 1 0.672393 -9.47975 0.972519 23
450 1 9.91932 -6.80595 14.4311 10
451 1 4.16004 1.06877 11.5168 17
452 1 5.00878 -1.67007 9.31358 23
453 1 -6.51644 7.75921 3.65045 18
454 1 6.72734 3.28924 -12.0797 8
455 1 10.6342 -4.52287 -9.9562 13
456 1 0.415327 10.2746 0.00406937 10
457 1 -1.28116 -14.7767 -5.59926 14
458 1 -15.6949 -1.22169 5.1179 11
459 1 -9.94954 -1.27913 -15.0591 12
460 1 -8.01601 -14.8249 10.0232 19
461 1 -6.61426 -6.95708 -6.46522 21
462 1 -13.8556 -2.17768 -2.16304 14
463 1 8.10745 -7.41785 3.95151 23
464 1 2.69129 6.87982 5.99627 19
465 1 -0.525013 -15.4502 8.96195 17
466 1 -14.8161 -5.43089 -11.0548 8
467 1 4.84663 -10.7296 8.77775 20
468 1 -1.08233 -0.726567 17.2967 9
469 1 8.29585 1.03403 -10.013 13
470 1 6.51282 0.174477 -7.27605 21
471 1 3.53805 -18.3035 -3.07957 12
472 1 12.657 -7.46972 13.8558 11
473 1 5.68891 2.46281 6.12819 20
474 1 14.2727 -9.04637 2.5462 10
475 1 -4.41941 1.53528 16.3052 11
476 1 -9.16853 -12.0536 3.91269 17
477 1 -15.0697 -6.25097 -7.7132 12
478 1 4.71522 -7.38659 15.0582 14
479 1 -5.4748 -13.1465 11.6059 19
480 1 4.49588 3.60753 14.0101 10
481 1 -8.80561 3.87106 -5.78731 20
482 1 9.04465 0.684027 4.45621 19
483 1 6.85949 2.3933 9.30582 15
484 1 -2.70665 -7.92983 -13.8253 13
485 1 -14.0482 -4.61553 5.99047 16
486 1 5.3698 -7.867 -9.49906 19
487 1 -2.66656 -10.3097 -3.65842 24
488 1 9.11686 -11.7687 -4.42059 13
489 1 1.78023 -4.72468 11.4555 19
490 1 1.08902 2.83178 10.3088 17
491 1 8.70586 5.21837 6.00575 14
492 1 -6.47126 -11.2212 13.8532 14
493 1 -3.55642 -1.33892 16.3178 14
494 1 2.34387 -9.19767 -6.52133 23
495 1 -10.1479 -7.27232 16.0849 7
496 1 7.00633 -2.31187 15.0187 11
497 1 14.0943 2.70108 -0.0562333 9
498 1 5.92131 -13.0006 -3.90708 19
499 1 -6.37456 -4.7973 -4.40632 21
500 1 4.31995 -0.385529 6.42944 20
501 1 3.23271 9.61243 5.17283 13
502 1 -3.64196 -5.91286 9.01686 23
503 1 1.31624 9.23099 -5.12109 9
504 1 11.5584 3.47432 7.6037 10
505 1 -6.05417 -12.545 -1.26657 19
506 1 -7.35545 -5.25078 -17.6654 10
507 1 -9.14716 5.99343 3.12052 14
508 1 7.66813 -10.9929 -11.9211 12
509 1 5.8848 0.583417 3.66842 22
510 1 8.54316 -1.42127 -11.5208 14
511 1 11.3779 -1.40072 -9.94448 11
512 1 -5.02573 2.12781 4.61594 21
513 1 -7.83763 0.600616 -0.287445 20
514 1 3.58864 5.22975 -0.209628 19
515 1 -3.29619 -10.1188 9.54154 16
516 1 -2.64604 4.04937 -11.6152 15
517 1 4.35384 7.08282 8.91772 16
518 1 -1.75927 -2.56155 8.21916 19
519 1 5.57465 6.22017 -2.5857 19
520 1 7.24398 6.44832 3.35267 12
521 1 13.7866 -10.6497 -0.617586 9
522 1 -14.9716 -10.1551 3.57718 13
523 1 0.249292 -17.7783 -2.15761 14
524 1 -6.22366 -8.50966 -9.31944 19
525 1 -3.39678 3.16279 9.59935 21
526 1 1.92896 -6.82907 -4.22905 22
527 1 2.5167 8.336 0.652835 14
528 1 -16.7007 -5.42024 0.90772 12
529 1 6.49037 -14.5518 -0.834192 18
530 1 7.48163 3.35563 -1.42108 21
531 1 1.88362 -8.37586 3.57713 22
532 1 -1.6116 7.63956 -0.667403 18
533 1 5.62978 -4.49081 -12.3972 18
534 1 -0.273472 -16.3268 11.5457 14
535 1 3.892 9.52248 -1.75971 9
536 1 -1.94205 -8.4164 14.0274 17
537 1 -6.60218 -12.3542 -14.3456 11
538 1 3.18674 -3.86858 -4.33826 25
539 1 -6.30481 3.75215 7.64125 22
540 1 7.53808 -10.8672 -7.46885 15
541 1 1.94991 -10.2091 8.66216 19
542 1 5.73487 -19.0358 -0.476315 10
543 1 -13.2532 -5.54606 12.8137 13
544 1 -1.90439 -3.98762 -7.2035 25
545 1 -7.95578 -17.6006 1.80691 19
546 1 -10.8132 0.790345 12.5908 15
547 1 11.4288 -0.981883 -5.65708 13
548 1 -13.9789 -0.490403 8.37884 14
549 1 -15.2749 1.69362 7.78484 9
550 1 11.0858 -6.26831 7.04225 20
551 1 -6.74747 5.56116 -7.4988 15
552 1 7.47925 -4.74645 -9.74471 19
553 1 6.34782 0.665255 -1.83814 22
554 1 -8.63799 -2.18362 -5.11432 19
555 1 -12.2918 -10.7842 -9.61088 10
556 1 1.94037 6.6121 -10.3714 12
557 1 -7.92225 -7.17412 12.2142 18
558 1 -7.08055 -15.9508 4.47396 16
559 1 -3.69856 -12.0259 -5.92214 21
560 1 -10.3716 1.02666 -0.198756 19
561 1 1.82814 6.22748 2.48727 18
562 1 -13.1149 -13.1264 4.28258 17
563 1 0.961481 1.2874 -9.13046 17
564 1 -1.88652 -17.6588 0.148516 22
565 1 1.31755 -1.37302 -4.81101 21
566 1 -5.60234 -7.53729 -11.8455 18
567 1 -1.57235 -5.77808 11.8011 17
568 1 -4.24935 -4.8177 -12.959 19
569 1 -11.5033 -7.87252 0.974856 23
570 1 6.28634 -3.53285 1.17279 21
571 1 -8.1864 -7.42509 1.45077 22
572 1 13.5778 -0.493793 -1.79373 11
573 1 6.71433 -5.20018 -2.02117 23
574 1 -5.85283 -1.51357 12.131 15
575 1 3.93927 -10.6969 3.55944 21
576 1 14.022 -12.3153 -2.56405 5
577 1 9.2719 -7.32897 9.19941 24
578 1 -2.21105 8.27465 8.66636 16
579 1 -9.44162 -1.67027 12.3775 18
580 1 -3.86321 -16.2842 11.4047 14
581 1 7.9111 -1.91533 4.03163 20
582 1 7.53627 2.92768 12.6584 10
583 1 -14.5146 -7.9923 1.56137 19
584 1 7.91837 -11.7038 -1.23035 22
585 1 -1.01433 5.86052 2.13739 20
586 1 4.79924 -4.34836 14.8753 15
587 1 -4.05199 6.02341 8.36554 22
588 1 2.22891 -17.2252 8.79938 11
589 1 -10.1902 -7.10076 -1.76135 22
590 1 2.1717 -5.42643 16.0975 8
591 1 5.97769 7.67869 0.484315 11
592 1 -10.1147 -14.2346 7.37365 18
593 1 3.59275 -9.02776 5.8169 21
594 1 6.39503 -3.21543 6.61579 21
595 1 7.21241 -0.190107 11.871 20
596 1 -3.96609 1.24781 -4.94217 22
597 1 4.33374 -12.2111 -6.6625 18
598 1 -4.73589 -1.58554 -14.1274 15
599 1 -6.18087 -5.13429 14.4215 13
600 1 1.21074 11.0384 6.84983 11
601 1 14.163 -7.26148 6.05483 15
602 1 -2.6369 1.26355 -7.89252 20
603 1 -7.30821 3.53401 17.1456 5
604 1 10.0035 0.199531 12.4596 13
605 1 7.96 -8.43701 -9.75521 19
606 1 -3.94263 -15.2289 -0.184058 21
607 1 -4.81 -3.72513 -6.88663 22
608 1 14.4648 -9.46337 8.48618 8
609 1 -0.820669 -6.51732 -9.33611 17
610 1 -2.80398 -12.0841 -1.05759 20
611 1 13.5904 -6.42512 2.91817 17
612 1 2.52668 -15.136 10.6037 12
613 1 -4.03903 -13.6745 -8.6921 15
614 1 8.1854 5.99971 -0.335743 11
615 1 -8.40053 -7.30177 6.92096 21
616 1 -14.5166 3.7266 2.73919 10
617 1 2.72838 3.77279 -9.32231 20
618 1 3.61132 -6.82411 -12.5831 14
619 1 -9.48728 8.17818 4.90725 13
620 1 3.98211 -0.967528 -12.6441 14
621 1 7.11809 -9.11672 0.936025 21
622 1 -10.6371 -1.36114 -2.50593 18
623 1 7.42801 3.44104 3.31777 18
624 1 -12.1686 -16.1923 2.92419 17
625 1 1.80031 -2.47922 8.8054 22
626 1 -12.8807 -5.02022 -5.64919 19
627 1 -13.6005 1.3926 10.931 14
628 1 -7.18982 0.397428 -5.36738 22
629 1 9.9342 -10.9817 -9.78988 12
630 1 -12.7094 -12.8593 -1.10959 18
631 1 9.67087 -12.1438 6.84433 15
632 1 -15.1929 -4.09922 3.42869 18
633 1 -10.5744 -6.973 -7.32992 18
634 1 -9.25541 -10.724 8.3875 18
635 1 12.6275 -8.08147 10.492 15
636 1 10.3794 -5.49254 3.01932 19
637 1 -13.3467 3.53138 5.46882 14
638 1 0.252581 -0.416584 11.2515 17
639 1 4.86132 2.80168 -6.89397 17
640 1 -7.80752 9.20498 10.6063 11
641 1 8.25892 2.97338 -6.98893 14
642 1 -1.13313 0.905778 15.0388 12
643 1 8.61227 -11.3469 12.0895 9
644 1 -1.09161 7.04718 -6.6084 18
645 1 -2.92017 -8.23235 11.4342 16
646 1 -4.89395 -11.0353 -11.7596 18
647 1 -18.1953 -7.07496 2.7561 8
648 1 -6.45499 -17.8368 10.3697 10
649 1 12.6801 -4.48639 13.0761 13
650 1 -1.94169 -16.0809 -2.98887 20
651 1 -12.2256 -4.31794 2.79043 21
652 1 10.7022 -7.21039 -8.74304 12
653 1 -9.0293 2.3063 2.33116 16
654 1 -12.8918 -1.37753 4.53163 21
655 1 -9.85203 -14.0337 -5.94359 14
656 1 -0.646275 -14.7507 -0.595153 24
657 1 4.7644 -14.8249 1.48236 21
658 1 -3.93316 7.11693 -12.8694 6
659 1 8.05428 -2.37854 -1.58318 22
660 1 5.19647 4.96543 6.37205 18
661 1 12.4663 -2.98223 -0.653243 18
662 1 -9.35246 -8.6568 -11.9081 22
663 1 -1.00555 -11.2034 7.89843 17
664 1 6.05126 5.31142 -5.90851 14
665 1 5.10866 -3.03503 -7.19653 21
666 1 -14.1416 1.28037 -0.354093 12
667 1 2.84978 1.62229 -5.13648 17
668 1 -10.6008 -3.9426 10.965 20
669 1 2.69226 0.991694 8.44788 19
670 1 -0.483206 -20.8216 0.658585 11
671 1 4.2931 3.58278 3.47304 17
672 1 -11.2033 3.79383 11.5864 12
673 1 -9.06491 -1.62093 14.8796 10
674 1 11.2589 -0.465044 1.01904 17
675 1 -3.68662 -11.5331 13.6078 12
676 1 1.6282 -18.3903 0.586398 16
677 1 -6.86753 -4.10423 6.61681 20
678 1 11.9078 -1.72423 14.9025 5
679 1 3.49242 -6.0429 -7.07048 23
680 1 -7.38573 -2.6342 -14.4234 16
681 1 -10.8725 4.22763 -11.1032 8
682 1 -14.1416 -2.93268 -7.53842 12
683 1 12.9918 -1.67103 7.89444 15
684 1 -1.50552 4.89461 8.34099 20
685 1 -11.4492 -18.1704 -2.16811 12
686 1 -6.14466 4.52511 -0.888214 18
687 1 12.1583 -4.50305 9.64182 19
688 1 -7.29907 -13.3712 6.69445 18
689 1 5.48987 -8.73565 -6.75463 21
690 1 7.95174 -15.3399 2.25668 17
691 1 1.85916 -3.63258 -12.7122 14
692 1 -3.15365 0.00429165 -12.2137 14
693 1 -9.65641 -10.2381 1.38287 21
694 1 -13.5651 0.826601 -3.80529 12
695 1 -11.3735 -0.494954 10.0091 19
696 1 7.82296 -5.78116 7.00908 22
697 1 -7.30036 -18.7814 5.34704 13
698 1 12.2242 -9.9364 6.79921 16
699 1 -0.442615 -1.40802 -11.7495 15
700 1 12.3368 1.79066 2.529 13
701 2 -11.9813 -4.95921 -3.84425 18
702 2 -7.62075 9.7274 -2.55305 13
703 2 2.80323 -10.0768 -9.21291 23
704 2 3.56357 -2.41611 10.8979 19
705 2 -9.16968 -11.1051 -6.01157 19
706 2 3.81532 -2.86059 13.7112 18
707 2 -14.2883 -15.1227 -0.101437 12
708 2 -12.0517 2.05873 -0.337054 17
709 2 -2.95481 5.24043 9.73444 18
710 2 -15.8672 -5.22522 6.71571 11
711 2 8.62078 -4.1281 10.9199 19
712 2 -3.13126 -6.51345 -4.72945 25
713 2 -14.0774 -12.4374 -5.14304 9
714 2 -12.0575 -2.64357 -1.36764 20
715 2 0.855562 -10.9099 10.0555 20
716 2 -0.288222 -4.53178 10.9235 18
717 2 7.93149 -2.48874 -13.116 11
718 2 -2.03602 -20.2636 1.91007 12
719 2 6.5268 -1.90812 8.22444 18
720 2 -3.30199 11.8644 6.29642 12
721 2 -15.1805 -5.85802 -9.4131 9
722 2 7.63571 -0.0775832 3.08191 17
723 2 7.54796 -11.7673 -3.34478 20
724 2 -11.393 -16.7468 4.65224 15
725 2 -6.8888 -17.0621 12.0181 9
726 2 -4.4682 -14.2359 10.5517 21
727 2 8.31857 -7.63588 7.29046 19
728 2 -0.355429 -13.6788 -6.84976 14
729 2 6.15412 -0.59083 14.9029 13
730 2 1.84453 4.55071 -7.94204 18
731 2 -9.26883 -12.3094 1.78386 18
732 2 0.317523 -0.201036 15.7843 11
733 2 -6.62506 6.49635 5.09732 19
734 2 -6.28882 -9.49912 14.8572 16
735 2 -2.50589 7.71383 1.06709 21
736 2 8.00364 -14.9066 4.34624 14
737 2 -7.3405 -0.294253 5.58717 15
738 2 3.40661 6.90186 -9.43073 11
739 2 4.23445 -9.25802 -2.31911 21
740 2 -3.52476 -5.00032 -8.00505 22
741 2 0.487834 -10.2684 -7.00467 21
742 2 8.39948 -5.99737 -1.51986 22
743 2 -5.28006 -0.204153 15.9386 12
744 2 -0.355371 0.540334 -11.4196 16
745 2 -6.64982 3.5549 -7.80596 16
746 2 9.01513 2.33835 -1.91596 19
747 2 -10.545 -9.37505 12.34 16
748 2 -13.6054 2.86241 7.27676 15
749 2 -2.42599 2.16131 -6.0138 22
750 2 0.632347 -12.4626 -9.57677 14
751 2 -11.5587 -15.5696 6.91099 16
752 2 4.66081 -0.82913 2.74598 22
753 2 -5.73804 8.13358 -0.206283 17
754 2 -5.66791 -16.3133 -0.402279 16
755 2 -3.34722 8.95695 6.69413 15
756 2 0.830421 -16.1849 10.1134 14
757 2 10.7809 -7.57861 10.8179 16
758 2 -11.8041 -3.89689 1.06617 21
759 2 9.89111 -14.0524 2.13084 13
760 2 9.16634 -15.0879 -1.01193 15
761 2 4.13903 3.61058 5.76646 18
762 2 5.31709 -16.2744 2.76089 17
763 2 6.23824 -9.27764 8.92769 22
764 2 -11.122 -6.03119 15.1196 9
765 2 14.4548 -7.66874 -1.86453 12
766 2 1.32325 -0.781817 8.0572 22
767 2 12.325 -0.882899 9.22234 15
768 2 -6.25413 2.03316 17.0902 8
769 2 2.83811 10.3036 7.07515 12
770 2 12.5774 -11.9129 -1.46672 9
771 2 -2.66075 4.1154 -3.53246 20
772 2 -12.0445 -10.3402 -11.5118 10
773 2 -7.71075 -3.67753 8.48905 15
774 2 4.83953 -2.93643 -5.09511 21
775 2 -8.78533 -2.38275 -6.86868 19
776 2 -13.259 -5.81484 7.40084 18
777 2 -10.6812 -16.395 -2.8353 15
778 2 11.1505 -8.63712 6.22975 18
779 2 -6.77185 -12.1788 10.5072 18
780 2 -2.03343 -5.12133 16.4567 10
781 2 5.86259 -3.87602 -10.4405 19
782 2 6.20445 2.77917 14.1798 11
783 2 -5.74587 4.94831 9.39399 20
784 2 -7.35524 1.3739 2.62467 20
785 2 6.3099 -12.6589 -0.86983 17
786 2 8.46383 -6.8493 -6.58889 23
787 2 -9.28782 6.91063 8.53607 13
788 2 -3.79169 -12.5175 4.40671 22
789 2 10.5764 -10.5258 -3.57004 16
790 2 4.7395 -0.535796 -2.53832 22
791 2 3.53822 -3.11118 8.17448 21
792 2 7.55344 -9.03735 -2.11845 22
793 2 1.76207 -8.88834 5.36276 19
794 2 -8.06632 -17.35 3.7089 18
795 2 8.05407 -0.426035 -2.29301 22
796 2 -12.8184 -13.8454 9.22056 13
797 2 7.53886 2.70514 -10.4872 11
798 2 -2.19346 -11.0471 6.27741 20
799 2 12.5152 -8.17706 -4.46429 13
800 2 1.68358 -18.2178 -2.95104 11
801 2 9.90677 -9.97897 2.64668 18
802 2 -7.05611 11.8489 5.93988 11
803 2 8.13586 -1.00123 -7.68143 19
804 2 -5.60545 -11.557 -6.0037 21
805 2 -13.4657 -11.0735 -1.89798 15
806 2 -2.88651 -9.47323 3.58906 23
807 2 -4.45594 -8.88546 1.16453 21
808 2 -7.87376 5.17364 -1.18194 17
809 2 -11.2778 4.11389 8.17959 15
810 2 -0.189983 -4.81487 -7.90693 21
811 2 6.17738 2.75772 -2.78045 22
812 2 2.09436 7.72224 -4.29597 13
813 2 -9.08123 -3.4373 14.4466 13
814 2 -5.43283 -8.10303 -15.4546 15
815 2 -13.309 5.40494 5.45027 10
816 2 -4.88619 -4.11554 13.4168 14
817 2 -15.2946 -0.067177 6.77885 14
818 2 -7.94072 1.20089 -12.5848 15
819 2 5.75178 7.2962 2.27694 12
820 2 13.697 1.24109 -1.62014 11
821 2 12.7455 -9.94617 3.34596 14
822 2 -11.3466 -4.90715 12.7849 17
823 2 8.12764 -2.50167 0.504583 19
824 2 1.59578 10.658 4.8289 11
825 2 -11.309 2.45364 -11.6397 12
826 2 -7.88654 4.39596 3.11076 17
827 2 11.1245 -8.46254 13.8711 10
828 2 -10.2675 -10.2162 -13.2293 14
829 2 2.40432 0.204777 -12.8646 15
830 2 8.79511 5.18568 -2.44026 14
831 2 -9.74578 -14.6365 9.55433 16
832 2 -1.01909 5.87343 0.0760982 19
833 2 -7.0255 6.18113 -10.1334 11
834 2 -4.22589 4.83835 -6.12687 20
835 2 13.529 -7.50991 12.0955 10
836 2 -2.34538 -2.06035 17.5646 10
837 2 14.1536 -10.3311 -2.7383 9
838 2 0.719578 -12.1917 13.839 15
839 2 -0.601671 -9.83359 13.1548 15
840 2 -16.9353 -5.39121 3.16358 11
841 2 -3.79067 -13.9502 -6.87156 16
842 2 4.14569 -11.9295 -3.6245 17
843 2 3.97036 -6.62254 -10.2592 16
844 2 13.4344 -1.69629 2.7757 14
845 2 -6.97913 -8.98623 12.1496 20
846 2 0.718698 -2.90882 -11.0652 17
847 2 -8.18875 -11.2364 13.1183 13
848 2 -5.71204 -9.33129 -12.2843 18
849 2 -0.598059 -14.4832 -3.81994 18
850 2 -1.10396 -9.46378 -4.50413 21
851 2 4.0253 -19.3362 -1.50522 11
852 2 12.8697 -1.09372 0.0721784 16
853 2 -9.52857 -0.0826344 -10.8568 17
854 2 -6.41199 7.08611 7.71629 19
855 2 -8.18702 -9.21131 0.601817 22
856 2 -13.1758 -3.51817 -9.14577 18
857 2 2.89446 2.10916 -10.549 19
858 2 -1.36694 9.47033 -8.97104 11
859 2 -6.86954 -14.2496 8.33278 20
860 2 14.8374 -8.25319 9.75118 9
861 2 -2.58475 1.27119 16.4321 11
862 2 -12.2555 -17.0255 1.04475 17
863 2 6.47197 -13.8684 1.68213 21
864 2 -0.139119 -3.42368 15.4909 13
865 2 2.51364 8.14471 9.21968 18
866 2 11.5358 -1.12052 -7.63417 13