ITEM: TIMESTEP
22000
ITEM: NUMBER OF ATOMS
2000
ITEM: BOX BOUNDS pp pp pp
-30.0 30.0
-30.0 30.0
-30.0 30.0
ITEM: ATOMS id type x y z Coordination
1 1 -8.76275 9.84774 -12.9135 21
2 1 -5.63838 -11.0543 -6.15889 17
3 1 3.87835 14.9914 14.1546 14
4 1 8.26039 -10.2235 5.35292 12
5 1 -9.14792 8.61823 -2.90924 22
6 1 12.381 -7.80688 -12.1541 10
7 1 -11.817 9.29698 -13.7193 11
8 1 -2.05057 -7.96934 10.8829 13
9 1 -5.59702 0.626298 -10.4515 23
10 1 -9.86027 -3.10626 9.67088 18
11 1 13.9499 8.52249 -9.48709 10
12 1 -9.99291 -8.35373 -1.06906 20
13 1 -13.5174 -7.56945 6.11194 12
14 1 -3.06631 1.79089 12.9885 17
15 1 2.81198 5.27348 8.07308 24
16 1 -2.4412 9.79785 -13.0927 15
17 1 2.40264 0.0676489 11.0837 18
18 1 -4.27489 2.42579 -17.9296 17
19 1 -13.6149 2.20443 9.66744 15
20 1 11.94 3.50159 5.33681 16
21 1 0.30292 11.7879 -13.3783 19
22 1 0.990271 8.65187 -18.6704 12
23 1 12.6677 3.14907 9.49504 18
24 1 -9.99986 3.51843 -9.6658 18
25 1 -7.6928 12.6641 9.41544 16
26 1 9.72033 -9.0981 2.22098 15
27 1 3.55276 -10.5877 -11.6611 12
28 1 7.73895 -10.0497 0.285667 19
29 1 -9.63311 -9.21299 -6.30512 17
30 1 -14.4041 -2.52081 9.6955 13
31 1 2.66298 -7.38936 -7.39773 20
32 1 9.38176 -5.09958 -11.1001 22
33 1 -1.95243 8.38294 -18.2274 19
34 1 -0.845546 4.19527 13.7411 17
35 1 0.308442 -12.5674 6.68391 12
36 1 7.69404 -3.18493 12.7587 12
37 1 -15.292 1.01572 -1.24174 20
38 1 -15.5491 3.75559 7.38801 12
39 1 -9.24281 0.165923 -2.54568 18
40 1 -3.50733 13.3714 -4.59704 20
41 1 -3.62637 -9.68596 -13.1226 14
42 1 2.55371 2.88965 -14.0854 19
43 1 7.28844 -2.98252 -11.6527 22
44 1 -5.56137 0.0397377 13.6795 13
45 1 -12.1766 9.62462 -1.72866 16
46 1 3.14903 12.7805 -14.2963 16
47 1 -4.57518 12.1132 9.34671 19
48 1 -8.48083 9.54128 -6.2722 18
49 1 -1.67648 13.3981 1.46991 20
50 1 0.935372 -10.203 -2.88504 19
51 1 7.30939 -3.49609 -8.00018 22
52 1 6.19539 -3.57957 -14.8566 15
53 1 -7.92567 12.7154 12.6242 7
54 1 -10.1917 -0.494577 -8.89795 17
55 1 -3.19074 10.516 -5.50595 19
56 1 -5.92995 -8.41838 7.0902 20
57 1 0.929977 15.8924 11.7942 11
58 1 -10.4763 6.74473 -13.3908 16
59 1 -5.19885 9.87043 11.4815 19
60 1 -5.36973 -13.3943 8.69136 8
61 1 5.29106 5.1531 6.00074 18
62 1 10.0959 -11.9286 -3.91737 15
63 1 5.10942 12.7718 15.6193 16
64 1 -14.8933 1.68043 -12.017 8
65 1 -13.8835 3.42391 -9.34318 14
66 1 -0.222442 14.4076 5.57005 17
67 1 14.4855 0.321053 -9.68935 12
68 1 11.3888 -8.08621 -0.046282 14
69 1 -15.722 -1.40856 2.62207 20
70 1 7.28042 16.0193 4.80002 15
71 1 4.95775 -2.1189 11.5927 18
72 1 -7.48672 -8.33532 4.20544 20
73 1 -15.8464 3.66678 -3.37046 11
74 1 10.6462 4.15531 11.2158 22
75 1 -2.31283 16.8597 8.04544 11
76 1 5.23221 0.121797 6.15821 24
77 1 0.124976 -4.66823 -7.78068 21
78 1 -10.8974 12.7293 7.29718 11
79 1 -5.55004 10.7371 -6.8506 20
80 1 -7.09401 6.69235 -14.2079 18
81 1 8.43009 -0.425521 -5.81613 22
82 1 5.9608 13.4878 -8.80067 18
83 1 7.08374 -2.60126 2.92767 22
84 1 6.72612 -8.03539 7.0807 19
85 1 -6.15086 13.5877 -10.1241 16
86 1 -9.8171 14.0774 -2.54996 12
87 1 -8.612 -0.678825 14.9726 12
88 1 -4.01052 8.0955 6.51232 19
89 1 -6.63542 -2.86908 13.2735 13
90 1 15.9663 -3.98806 -6.83503 12
91 1 -11.7678 5.81133 3.35379 20
92 1 -11.9115 -12.7769 1.45195 17
93 1 13.4697 -5.24304 -10.2493 15
94 1 4.04104 -1.18416 -16.5409 15
95 1 -4.97943 -0.355098 -14.0141 21
96 1 -0.533675 11.2685 -0.521652 24
97 1 -5.57222 10.3428 -10.4449 16
98 1 4.13452 10.2384 18.0019 9
99 1 -3.21088 17.2661 -8.26556 13
100 1 -11.3329 10.5452 1.80686 22
101 1 2.38412 10.6997 1.28667 22
102 1 -3.84915 -2.79034 9.3179 20
103 1 10.2456 1.02122 9.61464 20
104 1 4.74371 -2.37636 -9.54442 20
105 1 5.70544 -5.20185 -10.5689 18
106 1 -2.2514 5.36645 8.05115 21
107 1 5.18345 -1.61494 14.3872 11
108 1 -12.4327 -6.96349 -2.87699 16
109 1 -8.9147 -4.22368 -6.4931 15
110 1 9.86117 -7.93244 5.39688 17
111 1 -6.28206 8.28126 1.57311 24
112 1 7.42166 8.67594 -17.3277 11
113 1 3.11843 16.1586 -0.0720376 18
114 1 -8.09964 -9.16351 13.5104 9
115 1 -9.77695 -8.85826 10.9671 13
116 1 7.92635 -6.16814 -13.4321 18
117 1 5.67573 7.76383 -9.04172 21
118 1 13.971 -6.89438 -1.76387 13
119 1 -7.64766 -13.9611 4.5704 12
120 1 -9.92924 -3.06649 -3.3348 18
121 1 14.2482 8.03931 9.32765 14
122 1 14.9974 -0.873093 -6.51522 14
123 1 -15.8122 -4.04076 0.965927 16
124 1 10.9543 7.93996 1.49779 19
125 1 15.6296 10.4507 1.16808 15
126 1 -5.19527 7.53512 15.6201 18
127 1 1.44566 10.9326 9.15099 21
128 1 -3.04822 9.24773 -9.63751 17
129 1 -0.878613 -7.11731 -9.13449 22
130 1 9.46349 -8.51974 -12.1739 15
131 1 3.63999 12.2027 -11.2738 19
132 1 5.09333 -5.10438 9.02081 20
133 1 1.76297 -0.114025 -18.7768 14
134 1 -0.294967 8.86564 -9.09062 18
135 1 10.4847 1.78994 -5.32552 21
136 1 -13.0621 4.4381 -12.3841 11
137 1 -8.94638 15.5332 -5.46066 9
138 1 6.40311 5.49764 -11.0084 21
139 1 7.3559 -13.1779 3.32608 6
140 1 -6.23775 8.31518 -8.61184 19
141 1 -5.40673 14.9691 9.09194 16
142 1 12.5246 11.2796 -6.8263 15
143 1 2.38729 14.4784 -3.23501 19
144 1 -6.02701 17.8287 -5.14573 11
145 1 8.1682 13.4333 -3.4953 16
146 1 -0.670229 12.5863 -6.6425 17
147 1 -2.8225 15.083 -10.263 17
148 1 1.79907 13.7222 -17.2639 9
149 1 -13.0335 -9.30314 0.946865 17
150 1 -14.6496 9.56125 -1.76317 9
151 1 -9.5856 -4.00085 -15.8036 11
152 1 1.97414 -6.32001 -15.3566 10
153 1 11.5863 15.6927 7.26827 11
154 1 -1.46623 17.164 4.94429 12
155 1 -13.3049 -0.531019 -7.12396 15
156 1 -8.28198 12.9081 1.4872 14
157 1 14.9546 4.96937 -5.21097 17
158 1 -7.97093 6.81646 -17.8997 14
159 1 4.08385 1.41913 15.4163 10
160 1 2.06767 20.3329 0.85964 10
161 1 -1.48515 7.03937 12.2551 17
162 1 -0.63115 -4.5155 -15.2261 13
163 1 -4.63572 13.3269 12.318 15
164 1 -0.0699185 14.192 -8.27623 22
165 1 1.5175 -6.64693 10.6662 10
166 1 -13.0557 -3.2966 1.44298 20
167 1 -1.0324 -8.13377 -13.8217 15
168 1 -10.8187 11.5272 -10.6393 12
169 1 -3.10727 -5.34119 3.83815 22
170 1 7.44038 -10.6449 -5.37706 19
171 1 -3.87534 12.4089 -18.2024 11
172 1 -14.1312 7.80836 5.0975 15
173 1 4.95619 12.3377 -3.56145 21
174 1 -10.6829 2.95435 8.68817 24
175 1 -2.0858 -8.44829 6.33385 21
176 1 -8.1832 5.97451 -1.91428 25
177 1 -0.879511 16.8229 1.29605 20
178 1 3.06457 8.03942 10.1112 20
179 1 13.8073 5.5668 11.5395 13
180 1 -5.50841 15.9232 -0.195261 13
181 1 11.4931 0.238142 -10.5679 22
182 1 -4.06204 13.1262 15.2483 8
183 1 -3.18382 3.57297 -11.0569 22
184 1 13.6359 -5.6194 0.987164 15
185 1 -7.207 -2.82841 4.52366 20
186 1 -17.2528 1.1116 2.37147 8
187 1 -9.04552 -5.47096 4.46291 22
188 1 3.04657 11.069 11.5234 21
189 1 -12.2283 1.84323 -7.37142 17
190 1 -2.66217 -14.5534 0.574388 19
191 1 4.89474 -5.85664 -3.85229 21
192 1 -2.97348 10.5688 1.5445 20
193 1 5.98536 15.7568 11.1184 16
194 1 -10.0067 4.17961 -6.53884 21
195 1 -7.37019 12.079 -11.9092 17
196 1 -10.0349 -1.46011 -5.73008 17
197 1 -9.23374 1.45424 10.6048 17
198 1 -1.2492 -8.12351 3.48539 17
199 1 3.45525 -13.1828 4.91061 10
200 1 -9.7536 8.14026 3.35505 23
201 1 16.7716 7.56125 3.43416 12
202 1 6.15082 5.12532 -7.1778 22
203 1 -7.00127 -5.68175 -16.2005 11
204 1 5.40693 0.852069 12.6344 18
205 1 4.3481 -11.154 2.28408 18
206 1 -5.77119 10.0013 -14.0906 20
207 1 7.44262 -7.34182 -10.2367 19
208 1 8.83979 5.40874 -12.4189 20
209 1 -0.314561 5.3114 -19.8959 15
210 1 -5.92043 -4.94818 -7.29755 20
211 1 -3.66772 13.2863 -7.86387 21
212 1 -11.086 -7.64647 9.00425 15
213 1 5.67241 15.6074 -2.90841 19
214 1 -7.27062 5.43295 14.7917 16
215 1 -3.8867 11.8896 -12.1545 20
216 1 4.70887 2.63083 7.75599 23
217 1 -9.36302 -3.8366 -9.42836 20
218 1 -5.19732 16.0451 -11.215 12
219 1 4.29066 5.36069 -15.8724 20
220 1 -8.37956 -9.00651 8.46806 16
221 1 -8.7254 5.22362 8.2926 19
222 1 -7.46398 7.62331 9.72547 20
223 1 -0.016465 -9.62873 -7.93186 20
224 1 -5.45458 -10.5442 -2.19497 17
225 1 11.0043 -5.71544 -4.33258 18
226 1 10.3186 9.87948 13.6746 17
227 1 3.26643 13.5393 -8.3327 22
228 1 -0.676646 11.9327 -3.78352 19
229 1 -12.3938 4.38746 1.27481 21
230 1 -8.64635 9.30032 0.682773 18
231 1 4.9346 3.14664 11.1747 21
232 1 5.8638 -14.4898 -2.48665 11
233 1 10.7491 2.51089 -2.33642 18
234 1 5.10076 8.03628 4.90939 19
235 1 -8.61295 5.75097 5.04895 21
236 1 -14.0923 -9.20271 -2.65148 11
237 1 6.32414 6.04395 -13.9482 20
238 1 2.50677 -0.297894 7.49854 23
239 1 9.0612 10.7859 -11.5368 15
240 1 2.64262 -10.5234 -8.69063 19
241 1 -3.7257 2.93242 -13.8536 15
242 1 -3.72754 -16.4083 3.23925 11
243 1 7.64977 2.71335 -6.97435 18
244 1 -9.03552 0.0163467 1.00624 18
245 1 7.38277 -13.9212 -5.19102 11
246 1 -5.98826 -8.21572 -14.4723 11
247 1 1.61784 14.7102 1.57406 17
248 1 0.432554 0.776664 -15.0172 17
249 1 -0.961328 7.11408 15.6206 18
250 1 15.7827 4.67792 1.51264 12
251 1 11.9185 -3.08687 -15.4349 12
252 1 -7.9585 -1.69182 -14.5421 21
253 1 -7.63767 -1.1469 -11.6169 22
254 1 -6.17287 -10.5633 10.2984 12
255 1 7.92338 0.394387 7.75114 24
256 1 4.76823 -2.8146 7.63033 21
257 1 -8.99615 -6.89213 -13.8975 13
258 1 2.3172 10.8661 -16.0295 15
259 1 4.91015 11.2122 2.56954 22
260 1 -8.76822 -5.36449 1.23618 20
261 1 -6.48522 13.3593 -1.95199 22
262 1 -5.62527 -4.74413 9.51308 17
263 1 -12.4927 -7.78431 -5.35205 16
264 1 -14.0234 -4.93728 -4.76908 14
265 1 -5.15244 9.48143 -19.3408 11
266 1 -6.51685 -7.82108 -6.27674 17
267 1 -4.25814 -8.87903 1.64623 19
268 1 10.3625 -0.0186443 -15.4031 15
269 1 11.9024 5.57807 -10.4632 17
270 1 11.5738 4.8743 2.05707 17
271 1 -11.5699 -1.31223 14.5735 10
272 1 -4.52484 -7.92857 -1.09239 18
273 1 6.81131 5.80294 15.1905 16
274 1 -10.5141 -13.3134 4.20925 14
275 1 -2.18852 -10.4841 -1.4751 20
276 1 1.87295 17.1956 -3.90217 14
277 1 7.58163 4.84404 -17.5335 15
278 1 -7.84107 -2.15377 -17.4793 12
279 1 -12.4346 -2.70694 11.4746 16
280 1 5.83213 8.58504 10.9323 19
281 1 0.866777 -7.66876 -0.835025 19
282 1 -8.30331 -8.6472 -11.2965 13
283 1 -9.89274 8.8113 -10.2692 17
284 1 9.87944 10.7416 3.38519 18
285 1 -1.68433 5.94023 -11.9266 20
286 1 -3.23951 10.5799 -16.1117 20
287 1 10.0005 -8.93634 -5.61309 16
288 1 -6.54522 13.9849 -5.78938 19
289 1 0.270618 12.6704 10.8124 24
290 1 11.0804 6.05487 8.16442 17
291 1 -9.399 3.96468 3.03771 21
292 1 -3.21891 -10.5732 9.22339 14
293 1 -6.15558 11.1777 6.10916 18
294 1 1.67031 -2.25883 -11.0778 18
295 1 12.7348 13.4922 -4.94628 15
296 1 5.93328 -8.71634 -2.32818 21
297 1 -4.21208 -0.183538 11.0984 18
298 1 -15.5804 -5.34551 4.78169 10
299 1 4.74147 -12.1399 -6.42561 16
300 1 -2.76623 9.16521 14.0468 20
301 1 -8.93461 10.2584 12.2561 14
302 1 -14.4166 0.261393 8.08807 16
303 1 -11.3339 -5.90843 3.21528 20
304 1 15.042 -1.75512 -3.76039 13
305 1 -11.4791 -5.26158 6.79837 16
306 1 9.22295 -1.50481 -9.58707 19
307 1 12.4079 -8.93103 -3.89887 11
308 1 2.7775 18.8878 -1.55407 13
309 1 -5.9384 16.0097 -7.90676 13
310 1 9.69446 11.1886 6.99833 16
311 1 -9.90224 -2.68686 2.76705 21
312 1 4.4577 -9.11357 -4.9013 20
313 1 -4.79046 13.0594 1.55469 20
314 1 -5.78256 5.10499 6.54965 18
315 1 2.94724 -7.68225 4.95362 17
316 1 12.8334 -6.45144 4.09114 9
317 1 0.573916 5.91998 9.77487 20
318 1 -6.59911 -2.61076 -5.75408 18
319 1 2.9943 4.5438 15.8854 15
320 1 -2.56077 14.3473 10.1813 19
321 1 10.1975 13.3035 12.7904 12
322 1 -6.55239 14.9435 -13.4397 10
323 1 2.35537 -2.93154 -15.0079 11
324 1 11.0854 -5.80514 -14.3108 15
325 1 -12.5767 8.12052 7.92329 15
326 1 -15.0352 4.34764 3.9418 19
327 1 -3.04946 -5.0055 -8.93384 18
328 1 -6.11665 8.40745 -1.72737 21
329 1 7.76456 -2.50736 6.24792 22
330 1 -13.5786 -11.9992 -1.1924 13
331 1 9.22478 -8.50196 8.52196 10
332 1 -7.03713 -6.09244 13.7432 10
333 1 -13.7207 14.565 2.1899 8
334 1 -1.00293 -2.92552 7.32188 18
335 1 6.04793 -10.0839 -10.2707 15
336 1 -4.11857 -1.89067 -11.1432 18
337 1 10.1568 2.93844 -15.4342 13
338 1 4.97952 12.9687 5.23971 21
339 1 -8.71532 1.68345 -6.89571 20
340 1 8.83474 -4.87724 -16.6108 10
341 1 10.3665 2.33554 -12.6968 19
342 1 -10.6517 -11.9089 -7.23134 8
343 1 -10.8249 -13.2136 -1.72412 14
344 1 -7.43221 -7.54286 0.366138 20
345 1 11.6853 6.45616 13.3895 15
346 1 11.9076 4.80151 -3.55686 22
347 1 -6.66922 4.27588 -11.255 21
348 1 0.148865 14.8861 -1.00892 16
349 1 -12.9866 -1.75428 -4.75271 18
350 1 -6.00948 9.49394 8.59186 16
351 1 -7.49799 16.0322 -2.9617 15
352 1 -1.17973 8.69432 7.60142 20
353 1 10.3327 7.86291 11.2227 20
354 1 11.0304 -1.16053 -7.43048 19
355 1 8.92377 -0.993764 14.3433 10
356 1 11.7833 4.39348 -6.8122 21
357 1 -6.18272 -14.3639 -4.99766 13
358 1 2.50476 -4.80409 -5.95841 20
359 1 0.358893 10.8323 6.00442 18
360 1 -14.0345 7.20191 -9.47754 4
361 1 9.97737 -3.27418 -2.77585 20
362 1 10.8354 0.0923981 6.54407 18
363 1 -8.47866 1.53569 -10.0272 23
364 1 -6.20923 -5.41761 2.73357 22
365 1 -8.56255 -5.62589 10.957 18
366 1 -3.41131 10.8491 -1.80852 22
367 1 -9.75352 -6.55253 -4.37792 21
368 1 7.60774 14.8859 14.402 11
369 1 -9.47005 3.57754 -3.51986 19
370 1 -1.54659 12.3623 -10.0803 17
371 1 4.44334 13.0187 8.65087 17
372 1 -9.34513 -5.48103 -1.40465 18
373 1 -1.54645 -7.23285 -5.81198 20
374 1 -14.6261 1.06586 4.52753 19
375 1 -13.4868 8.10322 -5.05803 14
376 1 6.87123 -8.28166 3.43609 22
377 1 -1.29733 -10.7527 -5.11528 18
378 1 14.5479 12.8497 3.56698 10
379 1 6.75695 11.5715 -13.4642 16
380 1 -10.4051 2.83946 -17.175 8
381 1 -3.09622 16.4498 -14.0385 9
382 1 -8.58283 5.88429 -8.62488 20
383 1 1.49677 -12.4288 3.27423 18
384 1 13.4174 5.73343 7.19225 16
385 1 -0.502148 11.2051 -17.9522 14
386 1 -2.64568 -0.315161 7.56711 20
387 1 -15.6706 4.37474 -0.0540933 14
388 1 -9.51543 2.76775 5.80883 21
389 1 -5.25595 -11.1214 4.595 20
390 1 5.23027 -5.95223 -6.96974 20
391 1 -14.4281 9.80708 3.27483 11
392 1 -15.6839 6.58286 7.85349 10
393 1 -12.4573 11.6121 4.01658 16
394 1 -0.138002 -5.7084 5.67258 21
395 1 -6.23875 3.91082 -20.0103 9
396 1 10.1306 -10.7463 -0.995541 13
397 1 0.299931 -5.47697 -11.7749 19
398 1 -3.52258 -2.77709 12.4887 14
399 1 -4.73705 6.40764 -19.2227 16
400 1 3.22698 -9.03445 -1.2533 18
401 1 1.28142 11.5677 -8.3145 22
402 1 -10.7317 13.5002 3.8361 13
403 1 -5.4731 4.77128 17.6475 9
404 1 -9.30004 0.930453 -12.6355 16
405 1 -10.2793 -8.31593 5.47507 23
406 1 8.04331 -5.13269 7.47675 23
407 1 2.5083 3.34492 -10.6372 22
408 1 10.7289 -5.32273 6.02356 19
409 1 16.8585 7.88783 -4.72624 11
410 1 -4.09581 2.41536 8.80599 22
411 1 4.16736 13.193 -0.171271 22
412 1 9.93539 -2.7612 4.18572 22
413 1 -2.87439 -15.0454 -5.30581 12
414 1 -2.35612 7.83442 18.0678 12
415 1 -4.73412 17.0707 6.41323 10
416 1 -9.04589 -6.98226 -8.31437 23
417 1 8.62616 16.1009 -1.17952 15
418 1 3.55928 10.3907 6.34826 21
419 1 -7.14852 2.27019 7.90817 23
420 1 -6.59466 -5.45098 -4.1509 19
421 1 -12.9005 2.97493 6.59659 22
422 1 -2.8558 -6.28534 -11.8582 15
423 1 -6.86932 7.9952 4.22909 22
424 1 -3.75457 -12.4429 -3.7412 19
425 1 -3.85292 -5.53999 -14.7017 15
426 1 -6.86667 -10.6056 2.17799 18
427 1 7.47271 2.4978 6.07812 20
428 1 -9.63235 -3.05718 12.7647 12
429 1 -10.7486 6.88058 -16.4738 10
430 1 7.55405 8.37862 -0.668152 21
431 1 -9.34701 -13.0856 -4.56114 10
432 1 -2.84018 13.1061 4.46682 20
433 1 0.893625 5.87466 -10.4883 20
434 1 -1.44749 13.4242 13.1499 15
435 1 -14.7402 -5.78064 -1.28897 12
436 1 -3.55148 16.3209 -5.78634 20
437 1 5.55104 14.2698 -5.93951 22
438 1 -3.4445 -9.34814 -7.34902 18
439 1 4.89049 6.8374 17.7969 11
440 1 -3.01782 -12.6128 -10.479 15
441 1 -2.73457 4.89994 -17.62 21
442 1 5.85224 -12.1409 0.325935 16
443 1 -9.06336 11.068 4.53792 22
444 1 1.88173 13.2186 13.556 18
445 1 7.20536 11.281 1.19437 23
446 1 1.90803 12.0579 -1.92293 19
447 1 -10.3054 12.271 -14.0016 11
448 1 3.54739 5.71176 -8.7475 22
449 1 2.47208 -5.01792 3.91318 22
450 1 -14.6548 1.44012 -4.29458 15
451 1 2.43946 19.5323 3.55654 9
452 1 -6.29242 4.55785 -17.0067 19
453 1 11.5534 7.6165 -5.16429 18
454 1 2.30635 16.9729 -9.47541 14
455 1 12.5003 -3.47334 3.38316 18
456 1 15.5169 5.14953 -2.12706 13
457 1 1.11099 5.18767 -13.7141 22
458 1 -1.52795 -8.18351 0.27084 21
459 1 -1.41822 -14.607 3.91838 14
460 1 -0.196873 -6.44087 8.57969 16
461 1 -9.76322 3.93514 -12.4906 19
462 1 -8.64293 -10.7048 5.369 20
463 1 0.480342 -11.6731 -10.3295 17
464 1 9.88922 15.7419 3.96734 14
465 1 -0.239675 9.03323 -15.4508 21
466 1 0.50631 2.80048 16.5 10
467 1 -17.1177 5.97043 5.09137 10
468 1 -1.68426 -17.3673 0.219768 6
469 1 -11.4556 1.47075 0.279772 19
470 1 15.7019 -2.91574 -10.5329 11
471 1 13.4553 1.89187 -3.32528 18
472 1 -2.88742 7.95301 -7.00602 23
473 1 2.51408 -4.85479 -9.15337 21
474 1 3.8401 6.6257 -12.2295 24
475 1 11.4536 -0.980196 -4.33313 19
476 1 -7.24308 2.4978 15.5047 11
477 1 4.82267 18.2244 1.60062 14
478 1 -2.13573 0.814817 -16.1435 18
479 1 1.69 3.09843 -19.9268 14
480 1 -7.16764 -2.41362 7.96088 19
481 1 -2.98986 13.5868 -1.22191 19
482 1 -10.5915 -0.531221 -16.0776 12
483 1 -14.3377 1.91591 1.67646 19
484 1 2.30186 -8.47627 -13.5301 14
485 1 -5.29105 -9.35047 12.8562 8
486 1 2.56554 8.74734 -10.4184 23
487 1 14.6181 1.0854 5.30556 12
488 1 10.31 7.70438 -2.16462 23
489 1 -14.0505 -15.0005 0.77942 6
490 1 -1.53194 -7.10657 -2.58264 22
491 1 0.410096 -1.91457 -16.9177 13
492 1 -2.24294 10.6278 11.1288 21
493 1 2.29722 -0.0741801 -12.5738 19
494 1 14.2933 -1.9737 0.778578 15
495 1 1.40113 13.8864 -11.5497 18
496 1 5.55977 -5.48493 2.43075 23
497 1 14.7994 7.73593 -6.58788 15
498 1 4.22205 9.39746 13.6008 16
499 1 -9.12166 0.0577374 7.5642 23
500 1 8.84647 15.6706 11.1899 10
501 1 7.82742 1.81994 15.6471 12
502 1 -1.35665 3.69302 -15.1781 20
503 1 -4.2538 -7.67746 -8.96561 17
504 1 3.48141 -4.78553 13.0797 6
505 1 14.2293 10.9588 9.46969 12
506 1 4.49065 10.0774 -5.8887 16
507 1 -8.61136 12.0448 -4.89522 18
508 1 -1.00484 15.212 -4.08893 20
509 1 10.7732 -2.28261 11.476 15
510 1 9.33471 5.76679 -15.5091 16
511 1 14.7508 -6.51422 -4.174 12
512 1 13.6638 13.7146 9.42738 11
513 1 -15.1535 -8.839 3.01875 11
514 1 -7.77295 12.7631 -15.1941 14
515 1 -0.572576 3.03887 7.87218 21
516 1 -10.9969 3.66553 11.7584 14
517 1 -4.13774 13.2078 -14.8662 16
518 1 1.44064 -7.56743 -4.29343 20
519 1 5.74034 -0.0747548 -11.0686 20
520 1 -1.86715 16.6076 -1.63891 18
521 1 -9.0162 -4.35037 -12.5074 19
522 1 2.89403 -7.19515 2.06485 19
523 1 -13.862 -0.947911 0.132007 24
524 1 1.3767 15.1791 -14.2551 15
525 1 0.878743 9.70092 17.6076 13
526 1 -9.87506 -3.01938 5.72623 21
527 1 7.87159 10.6003 -2.56091 19
528 1 0.873993 -8.73647 -10.6278 20
529 1 2.18952 -5.09606 7.70337 21
530 1 -13.8805 7.37984 0.82962 17
531 1 4.89553 5.96809 13.3106 19
532 1 -0.717737 16.4735 -11.2508 14
533 1 13.0531 -6.16217 -6.5611 17
534 1 3.06182 14.2218 10.8162 19
535 1 -2.00211 0.197377 -19.5562 10
536 1 -2.4921 -12.2664 6.69253 18
537 1 -0.126889 2.3597 -12.5916 22
538 1 5.07416 4.00852 -19.0732 13
539 1 2.62315 15.8971 6.04857 18
540 1 8.17361 7.52975 -10.6168 22
541 1 -5.85393 -3.7188 -12.9151 18
542 1 -4.0683 -8.92418 -4.1409 20
543 1 -11.3533 -1.79211 -12.5408 15
544 1 11.4178 5.51119 -0.0949298 18
545 1 15.6623 11.2246 -5.18464 11
546 1 7.22485 -6.9907 -5.45889 20
547 1 13.3175 8.55745 12.2002 13
548 1 6.01564 -9.47084 -7.18669 19
549 1 2.46095 5.67003 -18.3419 16
550 1 5.17751 14.4918 2.36133 22
551 1 -8.08355 5.82377 1.91672 22
552 1 8.51736 9.4263 10.8842 16
553 1 10.4896 12.1056 -4.19987 18
554 1 10.1553 1.94984 3.76471 21
555 1 11.1841 7.30535 -8.4058 19
556 1 8.10914 4.58558 12.0315 20
557 1 15.608 4.78305 9.04706 9
558 1 2.11596 -2.92762 9.56968 18
559 1 10.5715 13.5895 -6.87071 14
560 1 2.90033 5.07287 11.4014 20
561 1 13.7208 2.22973 -6.47821 16
562 1 9.87837 1.79884 12.8009 19
563 1 -6.78719 3.8712 -8.70299 21
564 1 16.4887 8.52171 -1.26883 12
565 1 10.489 -5.37365 2.32787 22
566 1 -9.15901 8.51431 6.91535 20
567 1 10.601 13.7636 9.11574 13
568 1 9.78287 4.50759 14.4467 15
569 1 2.06163 8.19634 6.82794 20
570 1 5.54117 15.5828 7.59885 16
571 1 9.07335 4.95314 4.19699 19
572 1 -1.12156 -11.679 1.03049 17
573 1 -5.7933 11.1529 -3.68233 20
574 1 7.64277 10.7702 -8.76911 22
575 1 11.8437 4.93273 -13.5215 12
576 1 -0.904101 19.8457 -0.951736 12
577 1 -5.44487 -10.7526 -9.90125 16
578 1 14.1434 -1.93689 -12.6148 14
579 1 -9.196 10.5122 9.449 13
580 1 -7.65929 7.28078 -11.579 20
581 1 -4.42674 -14.1456 5.47426 15
582 1 -5.0238 5.8718 -9.73718 21
583 1 -12.6904 4.56198 -4.70327 17
584 1 10.0129 -2.70608 0.66652 21
585 1 13.3975 12.4743 0.206167 16
586 1 0.821102 -10.0533 5.26987 16
587 1 -14.4233 -3.66145 -7.63211 10
588 1 4.68932 0.965439 -18.9169 12
589 1 -8.41575 4.94006 11.0317 21
590 1 7.76148 14.0626 -11.9389 11
591 1 13.1594 0.299196 11.5481 12
592 1 9.61289 9.94241 -5.40175 20
593 1 11.7962 15.3232 0.76775 10
594 1 6.01741 -8.67103 -12.972 14
595 1 -11.8766 1.46417 15.193 7
596 1 13.1291 -2.70834 6.10284 17
597 1 0.438124 15.246 8.7939 19
598 1 5.57931 16.028 -10.5568 11
599 1 -8.0904 6.14009 -5.27689 23
600 1 9.35166 13.8995 1.20495 20
601 1 -7.3007 -14.4373 -1.90481 14
602 1 13.7394 2.51716 2.76096 17
603 1 7.20004 16.7766 1.91802 17
604 1 -3.54684 7.97071 9.96499 19
605 1 -12.4275 -3.65383 -1.90815 19
606 1 -6.86222 -2.03784 -9.07614 19
607 1 7.56302 2.87052 9.56161 23
608 1 -5.57983 -7.68913 9.99191 20
609 1 8.05921 7.4474 13.0538 21
610 1 -5.95128 11.1049 0.0691591 21
611 1 7.32626 8.72112 2.60388 21
612 1 8.18031 5.76933 1.06383 19
613 1 1.47094 2.6146 -17.0432 21
614 1 -11.746 -0.145462 9.31302 20
615 1 9.18657 -0.588072 -12.2714 19
616 1 14.0661 -5.02041 -13.2582 12
617 1 5.89123 5.81807 9.70451 25
618 1 -9.10545 2.23682 13.4465 15
619 1 12.3813 10.3291 1.99501 21
620 1 -0.814379 -1.35945 11.4947 13
621 1 0.21243 10.7774 13.5707 16
622 1 -2.5932 -1.99189 -15.1368 19
623 1 -5.50651 5.16434 9.93987 19
624 1 8.63196 6.24617 9.61909 17
625 1 -10.9423 -10.7132 7.91948 10
626 1 15.3698 10.9319 -2.32865 14
627 1 9.35636 -8.27824 -2.53449 22
628 1 6.55254 14.1817 -0.370062 19
629 1 7.84391 14.1714 7.15365 17
630 1 4.97211 1.5483 -15.9495 19
631 1 2.32648 15.4252 -6.76038 16
632 1 13.306 8.49241 -0.745168 19
633 1 -8.25165 -10.915 -1.01901 18
634 1 -4.4626 -1.07275 -17.9744 10
635 1 -9.34938 11.4832 -1.53972 16
636 1 10.9661 -4.5206 -8.52304 21
637 1 11.0442 10.1799 -8.98212 18
638 1 6.77054 17.1199 -4.98922 10
639 1 -10.9768 7.15037 -0.286147 21
640 1 5.50085 7.66921 -5.82841 19
641 1 12.6117 3.08976 13.6421 10
642 1 13.1448 -2.29922 9.64674 13
643 1 -0.390482 -9.94953 8.35194 13
644 1 -6.49277 10.7521 -17.1406 13
645 1 4.16977 16.5155 4.2319 18
646 1 11.7479 -0.251856 -13.5279 15
647 1 2.15546 2.70824 9.61966 25
648 1 4.44116 18.4312 -4.12315 10
649 1 10.3833 13.7435 5.55584 19
650 1 14.3139 0.284898 -1.1266 15
651 1 7.20143 9.05002 16.2935 11
652 1 -13.1062 -3.42086 4.26927 20
653 1 3.85577 -11.8787 -2.84259 21
654 1 -0.340471 -0.468996 -10.8834 20
655 1 -11.1248 13.5947 0.520215 14
656 1 7.44347 13.244 3.4749 22
657 1 -15.3677 -2.10622 5.95646 12
658 1 -2.27836 4.50444 16.9589 14
659 1 -5.24783 7.3169 -16.4174 21
660 1 -9.33138 9.91771 -16.3166 12
661 1 7.0634 -11.2654 -2.57543 22
662 1 7.26306 11.6488 -5.93156 21
663 1 -13.0675 5.13373 9.51084 16
664 1 7.24861 3.39848 -14.3841 16
665 1 3.23914 -7.63668 8.13968 12
666 1 -1.05632 19.7541 2.18681 12
667 1 -4.48627 2.94508 15.7614 14
668 1 -10.8385 -6.48228 -11.2174 16
669 1 -6.99914 -10.8708 -12.9555 8
670 1 -7.46078 -9.59607 -8.24834 15
671 1 -1.53367 18.3653 -4.27067 13
672 1 9.86024 -3.49454 -6.1048 18
673 1 -0.127314 11.5038 3.23683 18
674 1 3.86409 -7.90897 -10.0149 24
675 1 8.72141 -14.0726 -1.50198 9
676 1 5.08156 -5.81969 5.8405 22
677 1 14.6283 5.0995 -8.48587 12
678 1 -1.53561 -13.2477 -7.59016 15
679 1 -12.1921 -2.22895 7.68393 20
680 1 -4.27701 -14.8577 -2.13175 14
681 1 -8.40081 -8.92979 -3.39083 15
682 1 -11.6478 0.144406 5.76507 22
683 1 -5.63382 -14.9174 0.489286 13
684 1 14.0303 7.10624 -3.48011 19
685 1 -3.45837 18.0414 0.880883 13
686 1 -11.5241 9.82412 5.71591 18
687 1 11.8923 -0.870864 2.0154 18
688 1 -13.874 -1.16982 -10.3427 11
689 1 2.57524 8.39616 -7.55957 19
690 1 7.94615 1.49618 -10.2816 18
691 1 6.71271 10.4941 8.70037 15
692 1 8.08353 7.76237 -3.94593 20
693 1 -12.9481 5.52435 -7.37083 14
694 1 -12.2008 -3.9213 -10.2013 13
695 1 -1.79409 10.5657 19.6985 5
696 1 5.98154 9.20116 -11.6637 23
697 1 13.132 15.7177 5.25996 10
698 1 0.238118 0.119934 9.39617 19
699 1 -0.84448 -12.9538 -2.15748 20
700 1 -8.8039 -12.9862 7.45539 8
701 1 -3.43487 -6.13838 7.25938 17
702 1 12.2623 10.4265 5.20889 16
703 1 3.72886 -5.73809 -12.0766 16
704 1 -6.06487 8.2017 -4.75828 22
705 1 9.89681 8.34282 4.42244 19
706 1 -11.9663 -0.444848 2.30487 22
707 1 8.23638 8.76258 -14.1549 17
708 1 0.265136 -14.4959 -4.873 13
709 1 0.415726 -14.6955 -0.817123 12
710 1 3.62968 -14.3739 -5.14848 14
711 1 9.18328 4.90686 -8.84029 20
712 1 5.75691 18.1079 -1.17294 12
713 1 -0.938123 2.7197 -18.14 23
714 1 2.04084 3.08592 13.1939 18
715 1 0.169415 5.95502 -16.7915 23
716 1 -7.09929 1.48237 -16.4408 16
717 1 -11.2414 1.1808 -4.73843 21
718 1 0.0280215 16.7584 -6.50925 16
719 1 -7.00597 -5.69157 -10.5916 18
720 1 -6.22936 -5.12375 -1.03882 19
721 1 12.7375 9.57061 -4.17062 20
722 1 10.6539 -5.63404 -0.816827 19
723 1 -6.20038 10.9623 15.0105 14
724 1 8.08755 -6.7615 0.947397 20
725 1 15.3749 -1.1734 3.67357 12
726 1 10.1684 -2.46982 8.22912 20
727 1 -3.06576 10.8402 6.1977 17
728 1 -9.80799 5.69437 13.531 13
729 1 -7.89123 8.75043 14.2351 12
730 1 -1.97428 -11.4847 4.21358 23
731 1 10.5267 1.85895 0.791072 18
732 1 5.27237 12.9528 12.7514 17
733 1 -17.4939 -1.72604 -0.17068 10
734 1 12.5373 -2.67943 -2.04159 17
735 1 -11.6401 10.5842 -4.42693 12
736 1 1.81539 -12.0227 -0.179287 20
737 1 8.00835 -0.416133 11.439 21
738 1 1.96084 13.1078 7.39122 21
739 1 1.16094 -9.43344 2.17333 20
740 1 -12.1977 -0.691133 -2.42164 23
741 1 -0.384976 1.83155 11.2105 18
742 1 -16.2628 -10.1042 -0.323075 7
743 1 2.77174 8.38746 15.8678 18
744 1 2.07142 13.4769 3.8743 22
745 1 -12.3913 -9.83855 3.72513 18
746 1 -13.269 -15.0773 3.9564 5
747 1 8.05912 -5.37088 4.64048 21
748 1 10.9932 -5.19318 8.80433 12
749 1 5.11298 7.88719 7.66386 19
750 1 -1.99274 -3.56989 -12.5525 17
751 1 -4.47239 5.4522 -13.152 18
752 1 -6.39311 -0.195409 9.55964 17
753 1 -3.76538 14.4649 6.83491 21
754 1 15.0351 5.02743 4.29904 15
755 1 4.23013 10.4101 -9.46899 20
756 1 -3.19447 10.2724 16.5522 12
757 1 6.89782 10.4714 13.2614 18
758 1 8.96847 -2.97518 -14.292 22
759 1 -10.2131 -11.0194 1.44418 20
760 1 10.146 3.09705 7.54392 23
761 1 5.56182 2.72273 -12.1658 19
762 1 2.32164 12.1994 16.1702 12
763 1 9.52949 -6.44181 -7.62171 21
764 1 5.13373 8.8531 -14.995 19
765 1 -2.81934 -4.00597 -6.16617 21
766 1 10.9681 7.89958 -11.7741 16
767 1 15.742 0.877291 1.68431 11
768 1 -1.67042 -5.10438 11.5746 11
769 1 -2.42784 -9.61921 -10.5208 20
770 1 5.00014 10.4385 -0.689977 20
771 1 -12.5469 2.38656 3.86346 20
772 1 9.26474 4.71184 -5.04254 21
773 1 15.3028 9.80108 4.59269 15
774 1 4.04756 -2.41754 -13.0403 19
775 1 -5.69697 13.8068 4.46486 14
776 1 14.4209 11.211 6.88498 13
777 1 8.09451 15.5863 -7.82848 12
778 1 5.04691 6.83849 -18.1126 13
779 1 6.9858 -3.36319 -4.27148 20
780 1 -12.9829 2.99714 -2.34626 22
781 1 12.6921 7.37089 4.52471 19
782 1 -13.8651 -6.42399 1.87343 15
783 1 -11.1532 10.7376 -7.08657 11
784 1 8.04659 6.13056 6.37058 16
785 1 -12.0056 1.01077 -10.4276 19
786 1 -11.5461 5.99627 6.41249 20
787 1 -2.00341 5.94581 -8.48983 21
788 1 13.3493 -2.74924 -8.89966 20
789 1 -11.5138 -8.9943 -8.56339 10
790 1 15.5454 -4.40563 -1.37391 9
791 1 -16.3382 6.85534 2.75167 10
792 1 -15.2817 -2.46726 -2.07138 16
793 1 12.0643 10.8048 11.4087 15
794 1 -5.97012 -5.75876 5.91852 23
795 1 6.30906 3.77815 17.1961 8
796 1 14.0004 1.13882 8.19866 13
797 1 8.45133 -0.0393183 4.56319 20
798 1 -9.58411 3.81029 -0.233808 20
799 1 -1.47568 12.0666 8.66775 21
800 1 2.45064 7.71172 -14.558 17
801 1 -5.62055 -2.71061 -15.7371 16
802 1 -4.12987 15.8635 3.17634 18
803 1 -11.0802 -6.91481 13.0436 8
804 1 5.0168 16.5454 -7.75397 15
805 1 1.39746 6.81778 13.6018 20
806 1 11.1411 -3.33596 -11.9689 25
807 1 8.0253 -6.37653 9.96375 11
808 1 -1.58397 14.098 -12.8027 18
809 1 3.40525 10.021 -13.1673 20
810 1 -5.74015 -0.28681 5.78357 24
811 1 16.3284 7.51673 7.10923 13
812 1 -2.60999 0.157738 -12.4237 19
813 1 14.2236 14.2836 -1.71124 8
814 1 -14.2532 6.19343 -2.67807 16
815 1 -4.50664 -12.8172 2.63422 19
816 1 4.55722 14.5485 -12.8968 13
817 1 5.39639 0.217887 9.57539 22
818 1 2.26689 -11.2242 -5.70328 21
819 1 -4.44506 17.9594 -2.87368 13
820 1 -13.6761 12.1012 0.827882 11
821 1 10.4075 1.81594 -8.31798 21
822 1 -1.21137 -11.7307 -13.4811 9
823 1 -5.35948 10.8502 3.36735 22
824 1 9.96094 13.085 -9.23105 12
825 1 -8.85927 0.0834831 4.19509 22
826 1 8.21161 1.91867 -17.4035 13
827 1 -11.9867 -5.66428 -7.58391 17
828 1 1.71568 -13.4858 -8.01843 14
829 1 0.689695 8.45258 11.0672 18
830 1 7.86716 -5.15134 -2.23404 18
831 1 -1.43639 13.8513 -16.1275 16
832 1 16.2712 1.45435 -4.44143 8
833 1 10.3385 11.0926 -0.577171 18
834 1 2.51958 -14.4233 -1.72442 15
835 1 7.57805 -1.21593 -16.7145 15
836 1 11.3443 -0.415863 -1.51425 19
837 1 -2.44301 7.13033 -14.9692 20
838 1 -4.44977 -7.94697 4.52506 19
839 1 8.50958 8.17729 -7.38584 19
840 1 5.02943 2.92255 -9.27804 21
841 1 -11.1649 6.3434 -3.15553 17
842 1 -10.3709 7.32811 10.2299 16
843 1 1.49884 6.07642 17.8113 10
844 1 -8.46629 -6.09627 7.65769 23
845 1 7.17164 10.3683 5.28813 19
846 1 -4.50026 -11.617 0.498736 16
847 1 2.40756 12.3024 -5.44549 20
848 1 -5.21636 7.53787 12.5903 17
849 1 -2.21994 4.38994 10.7233 20
850 1 -8.22957 13.7927 6.96743 11
851 1 8.90682 5.14487 -2.33801 23
852 1 -4.84361 -5.45541 12.0149 16
853 1 5.12641 -9.95867 5.3124 12
854 1 11.5257 9.19319 8.54431 17
855 1 12.9601 -3.57699 -5.21894 21
856 1 9.07868 -9.68191 -8.61699 13
857 1 -6.80342 2.3021 -13.4853 19
858 1 -2.73195 3.26698 -20.494 11
859 1 8.29468 16.8108 8.22234 12
860 1 -13.4677 -0.102714 12.1128 13
861 1 -8.17696 10.4449 -9.25152 19
862 1 -10.7217 7.75011 -7.27704 16
863 1 10.9971 13.8976 -1.91669 17
864 1 -8.68341 -13.3176 1.11454 14
865 1 -0.0794859 8.38896 4.6719 19
866 1 15.5238 14.7276 7.1578 8
867 1 -11.3079 -10.664 -3.62904 17
868 1 3.34068 16.9496 9.06213 10
869 1 -6.21448 2.40438 11.1828 20
870 1 -4.75554 -13.1722 -7.35686 13
871 1 15.7945 -1.721 7.15901 9
872 1 3.05916 -14.3714 1.56395 14
873 1 8.35187 12.2776 15.7277 11