ITEM: TIMESTEP
11000
ITEM: NUMBER OF ATOMS
1000
ITEM: BOX BOUNDS pp pp pp
-30.0 30.0
-30.0 30.0
-30.0 30.0
ITEM: ATOMS id type x y z Coordination
1 1 -0.0486602 -7.49825 -10.2878 18
2 1 7.63936 -9.41168 8.26256 10
3 1 -3.26651 8.31022 -2.51341 21
4 1 -11.2877 2.57733 -5.66828 12
5 1 -0.956689 -7.84025 10.6984 15
6 1 -6.13993 -0.0331578 -9.35788 17
7 1 -7.81333 -0.632319 -7.05123 19
8 1 -1.51423 -12.3959 -1.47398 20
9 1 5.47531 -2.50338 3.54084 18
10 1 0.303549 2.32904 8.53701 22
11 1 4.56732 -2.39036 0.162678 19
12 1 -2.06554 5.16239 -10.7998 15
13 1 -3.76325 -1.36075 10.7987 17
14 1 -9.39802 -0.603612 -0.293881 20
15 1 -3.65249 -0.414124 -6.84784 20
16 1 -0.573767 -2.58855 6.65696 23
17 1 1.26471 -7.15682 -6.5571 21
18 1 1.91254 -0.542522 12.8946 15
19 1 -1.20383 -13.9692 6.67453 10
20 1 -10.6605 -0.913976 2.54143 18
21 1 -5.55413 -3.11675 -6.54646 20
22 1 -2.14418 11.2026 -4.91742 17
23 1 4.53368 -2.66979 -9.90965 19
24 1 4.11286 -7.92777 -11.6442 17
25 1 -2.95254 -4.78397 11.344 13
26 1 -11.9055 1.21971 0.314281 15
27 1 -1.16129 11.6654 -1.91761 16
28 1 2.00486 -12.2869 2.48861 19
29 1 7.64517 -9.14442 -6.91262 11
30 1 7.0158 -0.0818065 2.75807 19
31 1 -5.44105 6.24484 -9.24623 15
32 1 -1.12018 6.21654 -4.65653 20
33 1 0.868163 6.02274 4.20353 15
34 1 2.90891 4.46954 6.89816 19
35 1 -5.85164 -3.03372 -0.168803 22
36 1 2.0551 -3.1828 11.6758 16
37 1 -12.4435 -5.4771 1.3636 10
38 1 11.6406 2.53748 4.41291 14
39 1 6.94619 -5.16083 -2.95902 18
40 1 1.44448 -0.10548 9.99663 22
41 1 -7.02704 -5.78702 1.58729 20
42 1 -0.608188 -5.58936 -8.44302 20
43 1 -9.17854 6.63015 -1.72015 12
44 1 0.94461 4.43269 -12.7189 9
45 1 4.29828 0.43183 -5.20338 18
46 1 5.10633 -2.23148 -6.78801 21
47 1 3.78868 -8.13716 3.3728 22
48 1 2.8698 -9.78223 7.90699 19
49 1 -4.17377 4.62461 4.16615 22
50 1 -9.52723 -8.5527 8.23162 10
51 1 -8.30508 1.69761 5.36419 17
52 1 9.05786 -6.62818 -5.04965 14
53 1 5.36408 0.787449 -13.8593 11
54 1 4.63973 -2.5257 7.08088 17
55 1 0.967682 10.9381 1.07571 17
56 1 -6.77608 2.84631 -13.1207 9
57 1 2.20271 8.6792 -1.58923 20
58 1 -6.62777 -10.6027 7.76951 12
59 1 4.79426 -8.26594 -6.87661 17
60 1 1.12865 -5.58953 -12.233 17
61 1 -3.92948 1.82849 5.13036 21
62 1 -8.78822 -9.60131 -0.534014 20
63 1 4.49862 -5.52226 1.70607 17
64 1 -8.97633 -11.0574 -3.8329 12
65 1 9.59276 -7.86865 3.03955 13
66 1 -3.31217 7.36313 0.221093 20
67 1 -4.15624 4.62659 0.543044 22
68 1 6.08177 5.13 -7.65402 22
69 1 10.1315 -10.2092 0.216027 10
70 1 -6.51805 -11.5326 -1.6263 16
71 1 10.9244 7.68184 2.93945 14
72 1 8.47238 3.84229 -3.71661 21
73 1 -5.31013 9.69415 -5.72608 10
74 1 1.10916 -9.18444 -12.3513 12
75 1 -2.35037 7.4249 -9.38831 13
76 1 9.9943 1.48653 -4.87443 18
77 1 4.13675 0.128581 -9.31534 21
78 1 8.50396 -7.00136 6.24155 17
79 1 -7.08117 3.28617 -9.95724 18
80 1 6.44341 11.5979 1.49919 13
81 1 9.91261 7.24767 -3.42513 15
82 1 -0.395166 8.85254 -3.36807 19
83 1 -4.60626 -6.39996 -14.2226 7
84 1 -9.49495 -1.7328 -9.63975 13
85 1 -5.4064 8.93964 7.82811 10
86 1 3.25908 8.64189 -4.43716 25
87 1 3.41828 -5.64463 12.0222 11
88 1 -9.22403 -7.15915 2.55694 21
89 1 -4.14705 -12.0282 3.45572 18
90 1 2.01914 5.26785 -3.27634 17
91 1 9.55602 6.48686 -8.08973 13
92 1 -0.255361 -11.488 8.21988 13
93 1 -9.07222 2.42927 -1.81639 17
94 1 1.87176 5.0348 10.1779 17
95 1 -2.95372 -0.109488 -10.3823 19
96 1 -5.77853 -5.41625 5.13876 21
97 1 -7.10197 -11.1097 2.12855 17
98 1 -5.70289 -2.92105 -3.71482 21
99 1 4.8185 -7.95195 -3.53197 21
100 1 -2.32347 8.27306 8.65055 12
101 1 -6.76826 -0.839181 1.50345 19
102 1 -8.47732 -3.0064 -5.07762 20
103 1 -1.5592 -11.3715 1.62059 20
104 1 6.6778 2.93379 -4.99534 21
105 1 4.41663 0.244348 11.29 14
106 1 1.18274 2.61148 -8.65681 15
107 1 -8.96019 -5.6844 -10.1957 10
108 1 -7.10867 9.24029 -2.95504 12
109 1 7.49574 -0.682969 11.435 11
110 1 -0.534871 10.3729 -7.93984 11
111 1 4.06692 2.60966 -7.48598 22
112 1 -6.89916 0.322757 8.39575 21
113 1 -5.788 6.85506 9.94872 12
114 1 -2.37413 -10.64 -8.57355 15
115 1 -1.49935 0.153321 5.01155 20
116 1 1.43409 -5.67065 -3.57683 20
117 1 6.89421 8.35692 -9.02809 13
118 1 2.32323 11.204 -6.63884 12
119 1 -12.0955 5.53181 3.88837 11
120 1 3.22426 6.4297 11.9568 10
121 1 10.5137 -1.50746 -3.486 23
122 1 5.57608 2.97926 6.44668 19
123 1 -9.57153 6.69725 1.29035 15
124 1 -11.0672 -2.50281 -3.66699 15
125 1 1.96532 -3.01721 8.36689 19
126 1 4.84484 -11.022 -5.74177 15
127 1 0.326339 -3.54265 -14.3121 12
128 1 7.55603 -0.785706 -10.2146 15
129 1 -10.6835 -3.33921 7.21717 12
130 1 -5.37051 -11.7404 -7.48742 15
131 1 -7.2223 -8.25761 3.9575 22
132 1 -1.03883 -8.08931 3.15241 19
133 1 -5.45916 -5.47367 -8.69696 18
134 1 -9.8304 3.36619 -10.9613 11
135 1 6.44373 -0.198107 7.67125 19
136 1 5.21027 -5.30535 5.13128 20
137 1 2.07659 -6.58317 6.71438 19
138 1 2.41333 7.95126 1.65344 19
139 1 -10.0843 -8.3755 4.97767 12
140 1 3.20941 12.4435 2.80189 10
141 1 -2.52937 -5.20792 -11.8868 18
142 1 -5.30946 -8.72104 -8.14704 14
143 1 -4.20211 -11.5101 0.0125848 20
144 1 1.79328 -6.2708 2.94732 19
145 1 13.1091 3.50424 -2.39415 14
146 1 -3.70004 -5.71251 -3.6484 21
147 1 -10.4643 -2.5549 10.6066 9
148 1 -2.732 -15.0124 0.215193 15
149 1 1.54985 0.266488 -6.85202 22
150 1 -2.57443 -15.0866 -2.92782 18
151 1 2.42691 -8.87431 -1.64152 22
152 1 -0.193018 -13.8374 1.05277 14
153 1 -9.31386 4.24443 -8.15463 15
154 1 10.8455 5.08946 4.29923 14
155 1 -5.73909 -3.13071 -13.7046 10
156 1 2.93654 5.26667 -9.4314 16
157 1 -3.87682 -6.22462 3.37889 22
158 1 1.05839 10.5783 4.3494 12
159 1 8.74118 3.94613 2.74673 17
160 1 -8.75697 -2.25599 4.86571 18
161 1 -3.58457 -6.49312 9.17297 17
162 1 -3.60193 7.48468 4.01883 21
163 1 4.11833 -4.74871 -12.3589 17
164 1 2.19842 -11.963 -4.0076 16
165 1 10.2723 -2.24383 -13.074 10
166 1 -3.86896 -6.01041 -0.218601 20
167 1 1.4418 -0.0751287 6.54872 20
168 1 -8.89476 -3.32605 1.69634 21
169 1 10.2929 -7.93829 -2.67698 12
170 1 -6.25572 7.411 -0.353332 18
171 1 -8.67516 5.99848 9.44399 10
172 1 6.84876 -9.7268 4.79154 17
173 1 -1.07665 3.13945 6.47487 18
174 1 -6.5758 -6.13533 -5.42431 19
175 1 -0.53681 8.66481 6.75713 16
176 1 -6.45854 -0.194545 -5.04624 20
177 1 -11.9345 3.14167 6.53881 12
178 1 -1.261 -8.78811 -6.59527 21
179 1 -4.72438 9.96323 2.36423 17
180 1 8.14194 -3.45982 2.09299 15
181 1 4.80046 -7.98122 6.39303 22
182 1 -6.05977 1.96124 -0.2109 22
183 1 -3.01319 -6.73673 6.3842 22
184 1 6.23442 -11.9083 -8.7014 9
185 1 -5.62617 -5.26404 -11.6319 15
186 1 -11.3276 -2.98367 -0.0674069 16
187 1 -3.46006 -8.52562 -1.80042 17
188 1 8.48056 3.37408 -0.345509 20
189 1 -7.98782 -0.0347431 -14.4097 9
190 1 -9.89992 7.63694 4.7413 14
191 1 -7.88834 8.95604 2.25097 11
192 1 -6.38277 3.55061 10.2551 16
193 1 10.8173 -3.94834 -7.57178 11
194 1 10.8627 1.0725 -11.6333 10
195 1 2.35622 2.36295 5.34854 20
196 1 -4.2996 4.96338 -2.85944 19
197 1 -0.471909 -7.82671 -3.03179 22
198 1 -1.48635 9.49324 2.5223 16
199 1 4.97109 -2.65437 -3.59456 21
200 1 -11.4277 -0.507544 -6.44334 12
201 1 4.83217 -11.5041 -2.47939 14
202 1 8.88484 -0.667701 5.74373 14
203 1 -11.9984 -5.1113 -5.42563 12
204 1 -5.28401 -13.9992 2.50764 12
205 1 -0.551007 9.11005 -0.457803 23
206 1 -7.35298 4.35194 -0.155257 19
207 1 -2.05845 -12.4873 -6.13199 20
208 1 5.59911 -11.8063 6.90665 13
209 1 -4.94434 -17.0616 -1.39699 10
210 1 -9.33263 5.33841 -5.34321 12
211 1 -2.07123 -14.8538 3.66559 12
212 1 -3.87672 -0.551558 7.26789 20
213 1 -10.9091 5.85765 7.22699 12
214 1 0.913367 -10.9934 -6.81635 19
215 1 -0.285589 -5.85173 4.78559 24
216 1 -10.8016 -0.240082 5.46538 14
217 1 -0.415105 -8.17667 7.5001 21
218 1 -6.04412 -5.38761 8.84231 16
219 1 2.07587 -9.27365 -4.48249 20
220 1 3.63521 -13.6947 -0.194538 12
221 1 8.34652 9.78258 -2.73919 12
222 1 -6.3738 -7.57559 7.16848 17
223 1 10.3958 -5.03023 8.13143 10
224 1 6.89871 -1.29485 0.186898 20
225 1 -9.41845 4.52726 3.89116 21
226 1 2.15654 -2.46285 -8.40801 21
227 1 7.2288 -4.04304 7.25138 19
228 1 1.44785 5.29339 0.857154 19
229 1 -3.97662 1.48756 11.739 13
230 1 2.09047 12.8747 -1.06665 11
231 1 7.00423 -6.49638 3.45088 19
232 1 -2.1828 -16.1313 -6.09569 12
233 1 6.39594 5.86101 11.4978 9
234 1 -9.8292 0.328662 10.706 9
235 1 -3.6335 -9.55068 -4.77757 17
236 1 -8.24019 -10.7272 -6.65636 12
237 1 -8.30054 8.19226 7.59835 12
238 1 -5.45073 -17.4114 -4.8908 9
239 1 -6.00319 -2.95128 3.23391 20
240 1 3.54584 1.24077 8.21247 20
241 1 13.3697 6.51518 -2.49033 11
242 1 0.588235 -0.021393 -10.392 20
243 1 0.0112816 3.67191 -5.83317 20
244 1 -0.955127 5.47303 8.82177 19
245 1 -11.928 -4.90184 -2.13202 15
246 1 8.24124 8.53496 -6.03352 13
247 1 -8.01963 -7.7636 -7.76415 13
248 1 -1.01917 -6.63485 -13.6256 10
249 1 8.97029 9.0552 0.992505 14
250 1 5.34594 5.05877 0.352203 21
251 1 2.78141 2.87934 -4.79621 20
252 1 1.01737 -9.6198 4.77484 22
253 1 -1.1133 2.41458 -11.3584 15
254 1 11.7899 7.83058 -0.474887 13
255 1 4.11669 -5.36023 -1.87256 19
256 1 0.985427 -0.520924 -13.5934 11
257 1 1.29189 -11.4885 -0.35134 20
258 1 2.21267 -10.0988 10.6175 8
259 1 -7.95797 2.46181 -6.6795 19
260 1 6.01332 8.34701 1.15205 19
261 1 2.21223 -2.51014 -11.4834 23
262 1 -10.0323 -6.84272 -0.570229 19
263 1 11.0193 -1.43615 -6.46235 16
264 1 -4.45965 1.85188 -7.77468 20
265 1 -8.64328 6.43847 -10.6023 8
266 1 6.03008 -9.13774 -9.95794 13
267 1 2.98762 1.44798 -12.7407 13
268 1 8.80079 -6.51205 -8.32449 13
269 1 1.71493 -9.35422 1.70926 20
270 1 -8.77135 -4.85075 9.346 12
271 1 -2.36528 11.6676 0.213313 12
272 1 0.979401 8.24296 -6.2474 20
273 1 15.0198 5.95739 0.255454 7
274 1 0.109674 -15.0766 -4.78567 11
275 1 3.35948 -12.1134 -8.46008 12
276 1 1.90401 11.1011 -3.75252 17
277 1 11.6192 -4.86036 -4.44987 13
278 1 4.59097 -10.9642 1.28268 20
279 1 7.02508 -6.1591 0.0896262 15
280 1 -8.8597 2.80663 8.50493 13
281 1 -7.10727 -6.21353 -1.61806 20
282 1 -2.9229 -6.67686 -6.35249 20
283 1 -0.505765 -5.17847 8.01723 19
284 1 5.96292 5.88486 -4.28929 22
285 1 -5.38925 5.30821 -11.5361 12
286 1 0.435061 13.2041 -4.07048 9
287 1 -1.63912 -0.307971 8.40598 22
288 1 -0.963329 -10.8353 -4.17289 19
289 1 6.91951 -3.67031 -8.98848 19
290 1 -11.4364 -8.78928 -2.22614 11
291 1 -6.32889 2.48287 -3.11899 21
292 1 -11.3852 -8.67964 1.15781 11
293 1 4.87808 3.59772 -2.68944 20
294 1 3.59559 -10.8838 -11.1731 13
295 1 5.13727 -8.12021 10.0297 14
296 1 9.71291 0.56052 -8.41776 15
297 1 -10.582 4.04151 0.84141 16
298 1 5.6756 -4.74109 -5.74546 17
299 1 4.16255 7.47311 8.84444 15
300 1 -4.18412 -2.46403 -11.2563 18
301 1 4.27343 4.07086 -13.0368 10
302 1 -3.1269 -6.96681 -9.17452 17
303 1 -4.28531 -12.2581 -3.31679 19
304 1 14.3584 0.264418 -1.33807 12
305 1 10.2421 -4.81921 -10.8941 13
306 1 7.20061 -10.0309 -4.04436 12
307 1 3.714 10.1463 0.3238 21
308 1 -8.81573 1.81525 2.20447 20
309 1 11.2136 4.73539 -5.17861 14
310 1 4.26843 -5.42887 8.62783 19
311 1 8.04892 2.21379 5.19568 17
312 1 9.54066 1.36743 8.97983 10
313 1 -10.48 -3.44478 -8.21914 14
314 1 14.1392 3.34102 2.18768 9
315 1 11.2563 -4.19102 1.09562 15
316 1 -0.369766 -8.37814 0.0973591 19
317 1 2.6972 9.93092 6.75052 12
318 1 4.17587 -0.107764 5.10094 21
319 1 -4.60079 11.7751 -3.16776 12
320 1 -4.91997 -14.7562 -5.46274 17
321 1 -5.19242 -0.15148 -12.9627 15
322 1 -8.9571 -2.13294 -12.8859 10
323 1 -9.3594 0.395544 -4.00301 21
324 1 5.05217 -8.03907 -0.113315 17
325 1 2.18251 -12.3618 5.71697 18
326 1 2.47273 -3.30148 4.93713 23
327 1 9.83648 3.68722 -10.3195 13
328 1 7.63121 -0.429919 -5.5529 19
329 1 13.5995 -2.07236 1.2272 13
330 1 7.6603 8.36129 3.8046 17
331 1 13.4428 -2.31795 -4.26838 10
332 1 -3.84089 4.97738 6.95806 17
333 1 -9.8243 -10.9821 2.56882 13
334 1 -10.8123 0.335408 -12.0628 8
335 1 4.679 -2.22774 13.0609 11
336 1 -4.98572 10.4288 -0.947127 13
337 1 6.00607 1.78988 0.529566 21
338 1 2.26755 -2.54424 -5.16728 20
339 1 11.3081 3.36738 0.646891 20
340 1 -12.3898 -0.299823 7.78485 7
341 1 8.58234 -0.548437 -14.2547 9
342 1 -0.649452 -5.37089 -5.31177 21
343 1 6.86497 2.56947 10.0219 15
344 1 7.61713 5.37247 5.25674 18
345 1 -0.205733 -4.89326 12.1992 12
346 1 -0.958558 3.85513 11.2143 13
347 1 -3.39244 2.16766 8.62308 20
348 1 -3.16129 2.51144 -4.81989 21
349 1 -2.84992 4.47431 -7.67455 21
350 1 7.41173 6.02269 -1.67272 20
351 1 -3.17917 -3.4662 4.96267 23
352 1 5.57369 10.9073 -5.00606 12
353 1 -7.40036 -14.5567 -3.01398 14
354 1 3.41265 5.13733 3.59548 17
355 1 -6.07 2.76738 3.34239 20
356 1 -6.50104 6.28237 2.28157 22
357 1 3.70556 6.62397 -1.51701 20
358 1 -0.854941 0.547133 11.5941 19
359 1 10.8019 7.37949 5.60593 11
360 1 -6.99756 -0.301846 -1.87468 22
361 1 -0.674021 -2.26542 -6.92466 20
362 1 -0.418828 2.91834 3.33367 22
363 1 3.01694 -5.21466 -6.35307 18
364 1 2.02776 7.18562 6.10065 19
365 1 -10.7429 -4.22861 4.06922 15
366 1 4.42634 -14.094 4.45039 11
367 1 7.77144 5.82186 -11.1595 12
368 1 6.97112 -9.30149 1.68028 17
369 1 -1.44644 6.31988 2.04955 21
370 1 6.53292 -2.72399 -12.486 17
371 1 5.26862 -6.37456 -8.87252 19
372 1 -3.53663 10.105 5.64369 12
373 1 4.07522 -10.8325 4.70614 22
374 1 -0.481553 -3.04695 -10.267 20
375 1 -7.67615 -13.87 -5.93784 8
376 1 -5.90383 2.90142 6.82242 19
377 1 12.3369 -0.717656 4.58969 9
378 1 -2.15282 8.38685 -6.56514 20
379 1 7.89645 2.4342 -12.7044 12
380 1 12.8073 0.507815 -4.01813 12
381 1 4.66621 6.7119 -11.103 12
382 1 -0.683549 -2.50595 10.1742 22
383 1 -4.82448 -9.40876 4.5633 21
384 1 2.13738 -8.56005 -8.94759 20
385 1 -7.05286 6.42473 -3.75117 13
386 1 9.09448 6.45886 1.42887 20
387 1 -8.10756 -5.44021 5.64193 19
388 1 5.38854 2.95177 -10.5489 18
389 1 -1.66997 -1.67915 13.0896 11
390 1 -9.30428 -5.51583 -3.76386 19
391 1 8.07563 -2.25531 -2.55479 16
392 1 -6.84188 -8.60882 -2.9884 14
393 1 12.1387 -3.85727 -1.61158 14
394 1 6.9478 -11.7603 -0.148528 12
395 1 1.26942 7.91943 9.13486 14
396 1 -6.67573 0.624995 11.2473 11
397 1 9.31717 0.629911 0.98825 20
398 1 9.77729 -4.87501 -1.8057 19
399 1 5.55983 3.52791 2.99347 15
400 1 4.18215 9.33461 4.01611 18
401 1 0.902878 -14.7122 4.4502 12
402 1 -8.7145 -3.51361 -1.48823 21
403 1 2.18424 2.64099 12.1825 14
404 1 6.83504 11.1726 3.9109 10
405 1 8.35536 -1.83508 8.53768 14
406 1 11.4509 -5.94608 4.53198 9
407 1 6.45199 5.44086 8.28068 17
408 1 -4.74643 6.44003 -5.89569 16
409 1 0.35623 -11.5958 -10.0085 13
410 1 -1.85234 -1.65881 -12.7308 14
411 1 -7.22003 -2.38148 10.5983 13
412 1 12.529 0.340304 1.45338 19
413 1 4.9575 7.87245 -6.63076 16
414 1 8.12789 -4.54243 -13.3446 8
415 1 -5.03983 -14.4436 -0.949722 14
416 1 -9.52799 -5.87076 -6.75798 16
417 1 2.37969 -5.22441 -9.63872 23
418 1 0.552357 -14.2208 -7.48549 14
419 1 1.71704 -6.86048 10.2122 17
420 1 -1.7549 -10.6609 5.64957 16
421 1 9.17493 3.36385 -6.87887 17
422 1 -6.56701 8.74919 4.82033 17
423 1 8.11612 -3.08712 -5.56813 18
424 1 -13.0415 -0.937731 -1.05542 8
425 1 13.7146 6.0084 3.5687 9
426 1 4.52325 3.65902 10.1599 17
427 1 -10.4393 1.38631 -8.95391 17
428 1 -1.10006 1.07834 -8.18993 23
429 1 11.3883 -7.33762 0.0916492 11
430 1 -10.4165 -8.54157 -5.28624 14
431 1 -7.25029 -11.8057 4.70377 14
432 1 11.3016 -2.52971 3.20829 15
433 1 -11.3082 2.08689 3.56122 15
434 1 2.99978 8.65414 -8.6737 12
435 1 7.57061 -6.26095 9.47676 13
436 1 -3.61291 -3.62102 8.43906 22
437 1 -7.02584 -3.19959 -9.82386 18
438 1 -4.0125 -12.053 6.50636 13
439 1 5.91597 -3.63859 10.4116 15
440 1 0.840819 -14.5558 -1.8659 13
441 1 11.341 -1.68278 -10.0041 12
442 1 -6.71034 6.19566 5.116 17
443 1 -6.58178 -0.266074 5.21088 18
444 1 -2.75987 -3.26058 -4.97599 23
445 1 -2.59025 -13.6539 -8.79134 12
446 1 10.6261 5.35352 -1.55756 19
447 1 11.1951 1.27393 -1.33864 21
448 1 -3.27456 -9.55285 8.23724 16
449 1 5.81359 8.62811 -2.02163 18
450 1 7.10965 1.80094 -8.11687 20
451 1 -11.866 2.62403 -2.28516 10
452 1 3.41926 5.84841 -5.8138 16
453 1 5.80274 8.12301 6.24113 14
454 1 5.1366 11.1583 -2.06135 15
455 1 -3.86642 4.57577 10.3573 14
456 1 8.32903 0.731079 -2.66483 18
457 1 6.17665 -12.3523 3.23153 13
458 1 -5.91005 -2.86302 6.52866 19
459 1 9.34498 4.22558 7.50411 12
460 1 6.97461 -6.23556 -11.6283 15
461 1 -3.0461 -3.81604 -8.00676 20
462 1 -4.03233 3.01793 -10.962 19
463 1 -1.29792 5.88446 5.39105 20
464 1 -1.19893 6.09341 -1.4468 20
465 1 -3.60227 -8.95234 1.72482 20
466 1 7.90128 -9.19442 -1.64057 17
467 1 3.44516 -1.52763 -14.2188 13
468 1 -6.16723 -8.44015 0.464699 22
469 1 -5.82532 4.23475 -6.04443 17
470 1 10.2947 -3.18828 5.91111 15
471 1 -9.584 -11.219 6.23872 9
472 1 10.1923 -1.98165 -0.211297 22
473 1 -0.0996751 5.54964 -7.90675 17
474 2 -10.6582 1.67672 -10.8125 11
475 2 -6.58366 8.73753 -4.61995 12
476 2 0.787036 -4.223 -10.9592 23
477 2 -1.82225 4.91519 7.12566 22
478 2 -7.09418 -5.58984 -10.5682 12
479 2 2.80566 0.925258 11.9336 16
480 2 -8.85847 0.489521 -2.02174 21
481 2 8.35274 0.312722 4.2868 16
482 2 2.58104 0.639033 4.81315 20
483 2 -3.66387 -2.43724 -6.70097 19
484 2 -6.05907 -7.11806 -7.38576 17
485 2 -6.16261 0.510558 -3.42552 22
486 2 -1.09774 -6.60335 6.38604 18
487 2 4.65701 1.74002 10.0837 18
488 2 8.84123 -5.44517 -11.8019 13
489 2 7.97654 -0.742883 -1.46218 19
490 2 -7.41511 7.48597 -1.94782 15
491 2 12.7132 4.22008 3.52771 12
492 2 -11.9589 -4.63551 2.76361 11
493 2 -1.56783 -14.8391 1.62441 14
494 2 11.297 -4.908 6.19425 10
495 2 -9.40849 7.83006 3.02239 15
496 2 -4.10453 8.39325 -6.18786 16
497 2 -0.685171 4.97511 3.58829 19
498 2 -3.08163 5.77321 5.06189 17
499 2 3.7519 -8.63809 -5.13752 19
500 2 -3.10686 0.689931 -8.6066 20
501 2 2.11807 -12.055 -10.2142 12
502 2 10.2688 -3.06861 -11.2577 13
503 2 -0.511287 -9.45814 1.71999 19
504 2 8.9932 9.62445 -0.96898 16
505 2 -2.95672 9.55442 3.73601 15
506 2 -3.44523 -8.54675 -6.37085 19
507 2 3.74442 -9.28838 9.93932 12
508 2 10.8923 -0.0487978 0.0969953 22
509 2 -12.0881 -2.30343 -1.77465 13
510 2 10.6503 7.85187 1.03545 12
511 2 4.25597 -12.7676 3.11488 15
512 2 0.219192 7.0351 5.81113 19
513 2 4.46733 4.91729 2.19003 18
514 2 4.74779 2.67633 -5.31007 20
515 2 -5.75617 -1.07224 10.8938 13
516 2 5.5201 1.52042 -9.12699 14
517 2 -10.7949 2.13284 -3.7132 13
518 2 -12.2447 1.14708 6.61026 10
519 2 -8.63333 -10.7407 0.933811 16
520 2 -0.805994 -9.32872 4.75106 18
521 2 -1.48061 -5.98669 11.3367 15
522 2 1.00975 3.18162 6.63246 21
523 2 -12.5088 1.05162 -1.31961 11
524 2 4.79732 -11.9923 -7.16719 9
525 2 9.88708 0.149317 -6.36852 18
526 2 -6.53261 -10.0975 3.61255 19
527 2 3.98739 -1.6468 -8.36181 20
528 2 2.66368 8.46272 7.96198 15
529 2 8.4523 -8.80389 -3.359 14
530 2 7.55529 -2.04547 10.2489 12
531 2 -7.29713 -7.63879 1.88535 22
532 2 13.2017 1.66056 -2.04873 14
533 2 -0.57995 -12.0515 0.149934 19
534 2 11.1722 -5.43349 -0.374395 15
535 2 -1.27628 2.68327 -4.60582 20
536 2 -0.552225 -5.84465 -3.07582 19
537 2 -4.027 -5.6781 -10.5536 17
538 2 -8.6351 -7.06894 4.85747 20
539 2 -5.90482 -10.5711 -0.0732056 21
540 2 -4.81634 -8.91154 -3.10857 18
541 2 -4.54013 8.4016 -0.997617 19
542 2 0.284024 1.97978 -7.09421 19
543 2 12.6055 5.00877 -3.87579 12
544 2 1.90479 4.52645 -5.66208 22
545 2 -8.12129 0.622313 9.87724 13
546 2 -10.7707 2.25349 1.61863 18
547 2 -4.98082 3.6766 8.67646 18
548 2 -10.6515 5.23155 2.36068 15
549 2 -3.77863 3.15962 -6.51584 20
550 2 9.62581 2.67399 -8.7022 15
551 2 10.3689 -6.20862 -3.25524 16
552 2 6.84207 3.60627 0.451381 19
553 2 -1.45017 8.16175 1.06569 20
554 2 -5.45961 4.60833 5.60776 17
555 2 1.95609 6.49897 2.76086 17
556 2 11.3304 6.99958 -2.28042 15
557 2 -1.0984 7.97271 -1.66694 19
558 2 6.27775 9.02621 -6.07199 15
559 2 0.358914 3.87679 9.50188 18
560 2 -3.26979 -0.0120703 5.24382 21
561 2 1.98009 -1.96392 6.51102 20
562 2 6.22138 -2.24652 -10.4956 16
563 2 -2.81079 2.86378 11.0367 16
564 2 4.9005 2.17969 -12.7668 13
565 2 -7.74109 -11.31 6.47532 13
566 2 -1.67274 -8.42812 -1.27299 17
567 2 -0.765767 -6.99011 -6.76278 21
568 2 2.5576 -11.1259 1.08907 21
569 2 10.252 5.15103 -6.87778 12
570 2 1.78062 0.116071 -11.8908 17
571 2 -2.65036 9.19678 7.01629 13
572 2 -10.6507 -1.15499 -4.79542 15
573 2 5.30549 5.94614 -6.024 18
574 2 0.76095 12.1567 -2.39749 16
575 2 -2.06542 5.57131 10.3731 14
576 2 1.44293 -13.9066 -3.72806 12
577 2 6.78995 1.44167 6.38544 19
578 2 8.1635 -5.32581 -1.13587 18
579 2 7.11484 3.69519 3.86518 19
580 2 -2.81345 1.4464 -11.3092 18
581 2 6.95486 -8.08179 9.49286 12
582 2 0.45575 -12.8012 6.76252 13
583 2 7.16043 -8.73088 6.60584 16
584 2 -1.80572 8.95395 -8.39195 11
585 2 -5.14467 -18.0341 -3.17466 8
586 2 -1.00801 -1.07612 -10.9982 20
587 2 -3.59513 -12.3052 -7.50408 15
588 2 12.1583 6.72271 4.59996 9
589 2 -10.3318 -9.38934 -3.6871 14
590 2 -12.0926 3.74812 4.72885 12
591 2 9.26889 -3.31493 7.68461 14
592 2 -3.63685 -15.8177 -1.33737 13
593 2 1.24592 -1.70425 -9.75819 20
594 2 -3.80256 -1.36439 -13.2407 13
595 2 -8.98731 -3.82355 -9.78445 14
596 2 -2.91969 -3.13876 10.3534 19
597 2 -8.40833 -5.04414 -5.39382 19
598 2 1.24375 -6.80594 -8.63272 20
599 2 8.03436 0.213896 -8.62159 14
600 2 -5.67083 -5.20184 -0.64464 21
601 2 2.21754 -4.09318 -7.73485 22
602 2 1.79055 3.15188 -3.13746 18
603 2 -0.578891 -13.7783 -5.86386 18
604 2 3.1645 7.23951 -9.78777 12
605 2 3.76673 8.57507 5.66711 15
606 2 12.5285 0.995495 5.09587 8
607 2 -10.0155 -4.5537 5.80215 15
608 2 -3.2753 -10.8209 1.60416 21
609 2 2.75138 1.26337 -8.22696 22
610 2 -4.19907 2.91291 3.2601 19
611 2 -4.09172 -7.91935 0.0385201 19
612 2 -6.17193 1.76539 5.2553 19
613 2 -5.94002 -0.959567 3.35191 19
614 2 -10.0904 -3.59626 9.0177 10
615 2 -0.854875 -15.0681 5.11106 9
616 2 -10.165 -2.57139 3.25107 17
617 2 -5.77121 -13.2225 -2.17686 15
618 2 -9.96413 -9.44739 6.46923 11
619 2 8.98097 -6.33115 8.0318 12
620 2 6.64628 10.3415 -3.41842 14
621 2 6.4083 7.04059 -2.80823 22
622 2 12.0374 -1.12223 -4.9056 13
623 2 -1.3311 12.7839 -4.06982 11
624 2 -10.771 -1.35696 -8.08152 11
625 2 -11.3971 -0.815105 0.591177 14
626 2 -1.7858 -15.0868 -7.91598 11
627 2 0.86069 -6.49405 8.35444 18
628 2 7.36956 -5.29915 1.92221 16
629 2 -6.89709 5.6668 -10.2594 15
630 2 7.52463 0.486022 0.850699 19
631 2 2.20635 -2.07601 10.2171 19
632 2 -2.33109 -3.2235 -11.4518 19
633 2 3.83369 2.77694 6.7822 19
634 2 5.85097 7.18912 7.86251 13
635 2 -2.71069 0.0222369 11.7213 16
636 2 -7.54913 5.14066 3.58407 20
637 2 9.19961 5.35502 -3.2613 18
638 2 -8.49806 -11.9813 -5.36845 12
639 2 -6.85821 -1.99208 -5.47114 21
640 2 -8.97267 -1.52276 11.2013 11
641 2 5.70103 10.7331 -0.161056 16
642 2 -1.02473 -3.71451 -8.08752 22
643 2 9.33822 2.48744 1.40596 21
644 2 9.88466 -6.95176 4.77812 13
645 2 -9.458 -2.51661 -0.0331507 20
646 2 -0.411212 11.3281 -0.11977 15
647 2 -5.23014 3.69029 -12.6092 13
648 2 4.08026 -2.9098 -11.841 19
649 2 -7.2404 2.81459 -1.3426 16
650 2 1.50424 -5.07021 5.49139 19
651 2 2.46646 6.66226 -0.152607 19
652 2 -8.68253 -5.2904 2.47995 21
653 2 7.07616 -8.25459 -0.0254553 22
654 2 -0.920745 -14.1393 -2.28118 17
655 2 -5.50648 7.33302 3.97636 17
656 2 1.8594 -8.21007 3.32166 21
657 2 -8.6663 2.44983 -8.85189 17
658 2 1.9786 -11.0064 -2.2422 19
659 2 3.25847 4.77178 8.83822 22
660 2 2.33204 3.17318 -12.7747 12
661 2 -1.23651 5.89118 -9.35754 11
662 2 7.35562 3.85764 -11.1869 17
663 2 -1.99188 10.0906 -3.02081 20
664 2 -7.0172 -4.04784 9.6979 12
665 2 -4.43518 -7.80792 7.79246 18
666 2 -3.61718 -8.19607 3.3929 21
667 2 -11.8949 -4.30107 -3.89316 14
668 2 -3.76332 -5.28737 5.12834 20
669 2 2.83693 7.82678 -6.24787 16
670 2 5.48064 -6.31336 -2.72937 18
671 2 -0.66199 -0.606076 10.1173 21
672 2 -9.14143 -5.38463 -1.67537 20
673 2 5.44738 -1.46278 -13.4626 17
674 2 8.96176 2.20938 -1.84884 22
675 2 6.95374 7.13863 4.84767 16
676 2 6.63155 -3.31477 -2.83007 18
677 2 -7.54258 -6.71072 -3.54675 19
678 2 -4.24243 11.2773 -5.10711 11
679 2 1.73686 0.987511 8.38002 19
680 2 1.64434 -13.8786 -0.169691 14
681 2 -2.19298 -12.4609 6.53098 14
682 2 -3.48078 0.444831 -5.08806 20
683 2 3.95255 -3.52828 8.51521 17
684 2 8.87924 5.43463 -9.68828 13
685 2 2.91678 12.1483 0.772353 15
686 2 5.7341 -11.7224 4.99674 16
687 2 6.25195 -9.34497 -5.66976 15
688 2 4.71729 4.36016 -8.72115 19
689 2 4.82427 -6.41628 3.57409 18
690 2 2.74601 4.41963 11.7975 14
691 2 1.74856 3.1621 3.43759 22
692 2 9.98754 -2.69409 1.59387 17
693 2 3.36018 0.26392 -14.09 11
694 2 11.189 -2.07088 -8.26498 12
695 2 -7.30553 7.64325 1.28237 16
696 2 4.34327 -8.15554 -9.04847 18
697 2 -0.130579 -0.450763 13.0689 13
698 2 -10.0827 3.80516 -6.46075 13
699 2 7.67265 -5.13338 -4.82312 18
700 2 6.32388 9.77765 4.97479 14
701 2 14.8194 5.32256 2.10512 8
702 2 12.6641 2.28531 1.59077 16
703 2 -9.27569 -3.08318 -3.44604 19
704 2 -2.9396 6.42106 -3.2284 18
705 2 -7.59689 4.75613 -6.9207 17
706 2 -6.71777 -3.10868 -2.06559 20
707 2 9.89693 3.24879 -4.98573 17
708 2 -9.31902 5.36916 -0.0953109 16
709 2 -2.5923 -8.23296 9.66403 14
710 2 2.76301 -2.17357 13.1656 12
711 2 1.64353 -12.7177 -7.65693 12
712 2 3.03405 -9.41948 -12.2336 12
713 2 3.32979 11.8452 -2.38122 16
714 2 5.45026 12.1782 2.87742 11
715 2 -9.22522 -6.57266 -8.54253 13
716 2 -6.76762 -15.1924 -4.73339 11
717 2 8.6817 -1.72795 -4.4614 19
718 2 -5.79917 5.48704 0.167298 17
719 2 1.98682 -11.2498 4.16988 21
720 2 6.4052 -11.0654 1.82303 15
721 2 -5.86304 -5.16476 3.12351 24
722 2 -0.875967 -10.7538 -7.16733 21
723 2 0.158845 2.22321 11.9915 14
724 2 3.63882 10.6146 -5.46197 15
725 2 -9.71382 7.0444 8.23763 9
726 2 4.74028 -0.494574 0.0841721 20
727 2 -7.56621 -8.85715 7.93584 14
728 2 -3.27838 11.8369 -1.48783 14
729 2 -1.40681 -16.0601 -4.33508 12
730 2 -2.41787 -5.41566 7.95309 22
731 2 7.80575 1.06632 10.6391 12
732 2 -7.01361 2.53354 1.63338 20
733 2 1.50889 9.33143 -3.13297 19
734 2 -0.370786 -0.819947 6.55917 20
735 2 -1.47382 -6.31978 -10.1342 19
736 2 10.5215 -3.80392 -5.6438 16
737 2 8.87851 -7.5692 -6.64893 11
738 2 -0.477513 7.97531 -5.09724 20
739 2 -5.57494 2.08313 11.3377 15
740 2 -8.32449 0.635888 -5.57344 19
741 2 6.91921 -3.42402 -7.03929 19
742 2 4.78822 2.08402 -1.09657 18
743 2 -3.43255 -0.0582691 9.26731 20
744 2 -1.21641 -3.10437 5.07204 21
745 2 1.36447 4.5966 -8.55348 14
746 2 -11.0918 1.44148 -7.39059 14
747 2 -6.1557 -3.12889 -11.6375 18
748 2 -0.225322 5.05382 -2.92565 19
749 2 -7.32001 -1.97124 -13.9576 10
750 2 4.52319 -4.77442 -9.18372 23
751 2 -1.48143 -8.88727 -4.3514 19
752 2 -1.37041 -10.0169 7.54844 18
753 2 -3.06306 3.95065 -9.64969 21
754 2 4.55877 -3.48075 5.1703 18
755 2 4.22019 8.58775 2.09384 20
756 2 10.4524 -5.17135 -8.91331 11
757 2 0.848053 -13.8296 2.62989 16
758 2 7.12397 4.27523 6.98256 15
759 2 -5.21113 9.17603 6.10988 15
760 2 -11.1737 -6.87589 -2.37324 16
761 2 8.92141 5.92103 -0.424475 23
762 2 4.68983 -8.99441 4.99693 20
763 2 -6.40689 9.73978 3.16052 13
764 2 7.24382 3.56107 -6.96276 19
765 2 4.47591 1.96129 2.23737 21
766 2 -9.41964 2.49554 4.13803 21
767 2 5.05679 8.33491 -8.74383 13
768 2 -6.08697 0.144079 -0.312507 22
769 2 8.45908 -2.66243 -13.4058 13
770 2 -5.81938 -0.759313 7.0614 20
771 2 -1.47743 1.51294 7.93343 21
772 2 9.84956 3.23718 4.49836 14
773 2 7.44545 0.95551 -13.7712 10
774 2 -10.9624 -6.666 -5.24522 14
775 2 1.72587 -8.32459 0.146835 22
776 2 11.0342 0.301721 -9.95207 13
777 2 -3.48174 5.67029 -0.992401 20
778 2 0.921025 -9.27297 -10.3803 17
779 2 -10.3938 3.82999 7.72227 12
780 2 -6.816 -2.74483 1.36591 21
781 2 6.67183 -10.8893 -2.45448 13
782 2 -6.40865 -10.0477 -7.33609 12
783 2 -4.11637 -14.3739 -3.75853 21
784 2 10.036 -2.89653 -1.9232 20
785 2 -0.819847 4.36948 -12.0882 9
786 2 2.88843 5.53672 5.37309 16
787 2 -3.97969 -16.7782 -5.95451 9
788 2 4.42657 -0.336851 7.12042 18
789 2 -4.21401 7.7213 8.87086 12
790 2 -4.0774 2.94738 -2.99046 21
791 2 -6.59583 1.00249 -13.8869 9
792 2 -1.3389 -12.3143 -9.72502 13
793 2 -9.26232 -11.3915 4.38933 12
794 2 -8.93713 6.04869 -3.59346 10
795 2 6.59398 7.00282 -10.4963 12
796 2 -1.11562 5.11595 -6.38741 19
797 2 3.5169 4.63505 -1.69888 17
798 2 0.414412 -7.44602 -12.2377 16
799 2 1.54853 -9.04427 -7.01186 18
800 2 -10.1297 -1.29395 -11.3464 13
801 2 9.47056 5.74811 6.09256 17
802 2 -5.57349 -5.04359 -13.5728 10
803 2 -10.4823 -8.90335 2.99033 13
804 2 8.84268 -0.0931622 7.68184 14
805 2 6.27638 4.31073 10.1893 12
806 2 9.58627 2.44242 -11.7699 11
807 2 -4.10115 6.78648 -10.4072 12
808 2 -1.52843 10.1826 -6.42715 15
809 2 13.8099 -0.515481 0.18163 11
810 2 -5.73889 0.0937053 -7.32032 19
811 2 8.72129 8.46945 -4.25313 13
812 2 -0.947299 -3.09987 12.0471 17
813 2 -3.68756 -5.63397 -7.92044 20
814 2 -5.50871 -4.69628 -4.94792 20
815 2 5.70601 -1.19089 11.8784 12
816 2 -3.36121 6.58047 2.18914 20
817 2 10.4942 -8.39353 1.38753 10
818 2 5.87858 -7.64755 -11.2031 15
819 2 -0.472637 7.52155 8.44719 16
820 2 4.11877 -6.35119 6.92201 21
821 2 -5.07213 6.15423 -7.62718 13
822 2 0.876422 10.0082 6.23095 12
823 2 -5.54135 5.60553 -4.43212 17
824 2 3.95138 9.3266 -1.53574 20
825 2 -9.0935 -8.86346 -6.71614 12
826 2 6.08984 -4.79762 -12.539 16
827 2 -8.10469 4.16615 9.6679 13
828 2 12.5886 -3.70108 -3.35304 12
829 2 1.34576 9.75797 -7.75719 13
830 2 -8.58299 -0.408628 5.32123 18
831 2 -5.98879 -13.3523 -6.71095 12
832 2 4.8106 6.72649 10.6949 12
833 2 -3.27465 -8.96673 -8.85859 17
834 2 -8.02951 3.41973 -11.8264 13
835 2 -1.14157 -0.557335 -6.50517 17
836 2 -0.320163 -1.70139 -13.7509 14
837 2 -8.12136 7.65861 5.6965 16
838 2 -7.05364 7.704 8.85052 10
839 2 1.3984 12.3543 -5.44641 12
840 2 -6.41058 -15.6508 -1.82421 10
841 2 10.412 -0.178436 -13.234 10
842 2 7.49513 -5.61432 -9.25411 15
843 2 -6.19284 -12.5747 3.04165 16
844 2 -6.5761 2.75541 -5.06703 20
845 2 -5.87534 -7.55217 5.14538 16
846 2 -0.0773038 1.99015 -9.98015 19
847 2 1.74562 -7.70861 -3.2629 19
848 2 3.57508 -11.1901 6.67651 17
849 2 8.88536 3.11456 8.97986 11
850 2 6.41079 -4.68344 8.89424 18
851 2 -3.83517 -2.87805 6.71796 20
852 2 4.41183 5.06174 -11.6888 12
853 2 1.84087 7.03929 10.6037 11
854 2 -2.71652 -5.04489 -5.23883 19
855 2 -7.5705 -10.7955 -2.81509 14
856 2 -3.70803 -11.033 4.91555 17
857 2 -8.74326 -0.227079 1.40031 20
858 2 -5.60968 2.21033 -9.23804 20
859 2 -11.2229 -4.76953 -7.09605 12
860 2 -3.64304 10.5493 1.02659 12
861 2 7.29107 -5.67108 5.26709 19
862 2 7.68425 7.87988 1.82299 19
863 2 -4.31705 -13.9232 0.740771 18
864 2 -10.9706 -6.81068 1.31017 14
865 2 -10.9042 -1.60416 6.85612 13
866 2 -0.00805218 -3.29961 8.56656 20
867 2 1.55763 -5.30969 11.6935 14