ITEM: TIMESTEP
195000
ITEM: NUMBER OF ATOMS
5760
ITEM: BOX BOUNDS pp pp pp
0.6481619024 33.0118380976
0.3693142701 33.2906857299
-1.9765389289 67.7765389289
ITEM: ATOMS id type x y z Coordination
1 1 2.01796 19.6908 20.0055 19
2 1 15.7945 16.6252 55.3673 21
3 1 32.7031 22.8525 5.38069 19
4 1 8.06733 32.3392 1.04065 21
5 1 10.8197 17.7145 43.6191 23
6 1 28.5921 31.4196 59.8169 17
7 1 10.1858 7.56733 13.9841 20
8 1 6.24263 32.8495 34.9234 19
9 1 27.2777 25.6638 -0.62093 19
10 1 11.8753 19.0504 64.4701 21
11 1 20.3265 14.9826 6.27915 17
12 1 16.6713 27.1884 64.6423 21
13 1 4.58934 8.38453 4.58729 20
14 1 6.73774 30.9512 8.34324 20
15 1 18.1466 6.70872 39.6633 20
16 1 12.9278 6.52547 10.5606 19
17 1 24.3262 30.9135 25.7404 20
18 1 3.82906 27.3845 14.0409 20
19 1 10.8094 33.3547 13.9915 20
20 1 2.83072 26.2454 32.4644 19
21 1 4.53217 6.16865 7.43215 21
22 1 17.7236 2.24245 64.791 25
23 1 8.9965 6.54837 55.0722 22
24 1 19.7936 8.59812 1.92346 23
25 1 13.0418 11.9182 63.2136 19
26 1 20.832 0.610208 12.9679 22
27 1 7.92997 4.59679 24.84 22
28 1 1.44486 12.8256 16.1071 23
29 1 9.15435 18.9007 25.6329 20
30 1 21.7827 23.6446 61.3058 21
31 1 14.7146 5.76642 3.69669 22
32 1 14.1618 28.2332 -0.104551 22
33 1 27.2012 21.4286 7.22989 20
34 1 11.67 16.985 -0.64023 20
35 1 28.7936 13.7372 2.53535 20
36 1 10.8748 27.593 65.3083 20
37 1 18.4831 19.9205 64.3787 21
38 1 32.0157 26.4957 48.7627 23
39 1 10.7698 9.34391 35.3314 21
40 1 21.9469 12.3963 -1.02801 22
41 1 23.9358 28.5663 2.14745 21
42 1 27.5305 1.19135 53.3436 17
43 1 22.6176 12.85 7.29898 23
44 1 21.623 18.9814 45.2811 16
45 1 24.5246 12.9379 63.5796 20
46 1 23.1022 21.0955 53.0799 24
47 1 21.0679 11.7971 13.2594 21
48 1 9.93102 5.63621 11.5114 25
49 1 29.3749 5.57501 15.4841 21
50 1 6.04799 28.4572 37.147 21
51 1 26.4347 18.7603 67.1177 23
52 1 15.8359 25.1033 60.4317 21
53 1 6.96255 22.5919 17.4183 20
54 1 3.29476 11.1204 24.45 22
55 1 5.194 27.681 17.4429 22
56 1 4.08466 31.3306 26.9192 19
57 1 22.9956 24.5358 7.49793 17
58 1 31.5501 20.6845 -0.176336 19
59 1 15.0591 15.698 21.8792 22
60 1 29.7412 32.4192 1.00516 20
61 1 21.8968 26.2779 66.3494 21
62 1 10.4907 31.0445 0.483511 23
63 1 16.7283 2.01351 -0.248678 22
64 1 1.45621 1.97017 62.8561 21
65 1 6.90534 21.5438 11.5402 22
66 1 10.4595 25.621 -1.90718 19
67 1 2.61362 23.3809 57.6784 22
68 1 6.47088 5.18789 39.6894 19
69 1 21.6533 1.82996 67.5906 19
70 1 3.23308 2.55351 23.2962 19
71 1 15.8343 11.8536 65.2146 19
72 1 1.41184 31.6912 7.84031 21
73 1 7.8973 29.9377 56.2199 21
74 1 32.8915 20.0434 6.50906 22
75 1 5.06508 31.3125 -0.884644 20
76 1 28.5104 29.9157 18.7524 21
77 1 10.7968 32.1293 6.10299 20
78 1 2.36662 16.4292 31.9438 18
79 1 31.0957 9.97214 1.66493 23
80 1 1.77399 17.1008 10.9414 25
81 1 3.95082 29.3623 66.5607 20
82 1 1.3274 27.8558 -1.18048 23
83 1 6.7433 28.5538 13.986 22
84 1 24.521 10.7061 11.8699 22
85 1 14.7097 7.04625 60.6897 22
86 1 25.4152 14.8176 2.12463 21
87 1 17.9712 24.0294 9.72539 21
88 1 18.5199 15.8881 57.7428 21
89 1 6.90934 2.23159 0.794951 20
90 1 4.48801 19.6581 6.17503 21
91 1 22.1467 1.95172 57.4501 21
92 1 9.17046 32.7204 62.2786 22
93 1 20.1992 17.9107 20.079 19
94 1 3.65222 28.1045 52.8613 25
95 1 30.915 30.9304 43.6379 18
96 1 1.53177 18.646 64.5132 20
97 1 7.25791 0.431658 13.7616 21
98 1 1.50832 24.9369 60.3632 19
99 1 29.7482 0.411306 41.2637 22
100 1 17.0781 17.9026 7.62376 21
101 1 23.8338 1.77033 9.32974 19
102 1 11.3546 18.9686 8.14559 24
103 1 21.4311 28.8583 -1.03884 19
104 1 4.51903 25.5399 58.8626 23
105 1 32.4335 6.20419 4.09216 22
106 1 19.6274 25.4959 27.6862 19
107 1 15.1239 21.6619 11.1495 24
108 1 9.47987 22.837 5.72257 21
109 1 27.273 7.42785 21.1462 21
110 1 0.749289 25.7588 3.89176 21
111 1 27.1542 20.1673 38.0517 19
112 1 28.3465 11.1482 11.436 20
113 1 31.963 32.3757 26.5729 21
114 1 26.6411 33.0883 65.8452 22
115 1 27.0836 0.759076 -0.896954 23
116 1 22.5504 4.44383 1.2458 20
117 1 3.98662 8.62446 12.5493 19
118 1 21.5558 4.2936 44.7156 21
119 1 23.945 28.4904 -0.823101 19
120 1 31.7708 28.6822 16.0676 24
121 1 26.5785 29.1914 7.63089 20
122 1 6.80952 15.9926 2.40015 20
123 1 32.5747 6.92451 0.580963 22
124 1 23.7768 17.7566 67.5829 20
125 1 0.839235 23.8608 30.8482 21
126 1 5.90545 17.5142 8.03043 22
127 1 2.69636 32.1016 1.68379 22
128 1 24.7178 12.6654 66.3176 21
129 1 13.8345 17.3038 66.6883 20
130 1 12.8036 24.9598 1.04991 22
131 1 27.295 10.9259 38.5196 18
132 1 33.0201 15.245 60.0565 22
133 1 22.8111 4.65812 -1.63009 24
134 1 22.5341 21.0202 13.3667 18
135 1 2.59759 26.4251 23.7033 23
136 1 30.4492 14.3851 5.73247 18
137 1 17.6276 1.72726 10.8803 21
138 1 8.93778 19.9813 6.33627 22
139 1 9.58281 30.105 17.4186 23
140 1 27.2396 22.5184 40.4232 16
141 1 28.1106 20.159 -0.771226 20
142 1 27.3418 10.321 5.69404 22
143 1 16.7197 11.0955 55.7604 22
144 1 9.39618 21.5821 9.40459 25
145 1 23.6012 22.9868 0.462248 18
146 1 13.3727 27.449 13.5822 21
147 1 21.9577 11.9446 62.7252 20
148 1 26.5835 16.0592 5.17214 17
149 1 5.66326 7.88572 40.1338 17
150 1 8.57268 27.0807 23.4307 16
151 1 7.77638 5.84924 1.88755 24
152 1 14.1503 12.3709 0.184569 21
153 1 16.9371 4.50205 5.68754 23
154 1 21.205 27.035 9.94225 19
155 1 19.8428 0.652538 62.8485 19
156 1 31.1269 23.1703 7.4377 22
157 1 12.1962 28.2561 44.0642 23
158 1 16.2721 2.36325 13.63 22
159 1 31.2011 31.5043 18.696 22
160 1 32.5573 22.28 12.2018 21
161 1 25.8349 6.30101 0.173019 21
162 1 28.3794 8.40875 12.6278 16
163 1 11.0345 27.4553 10.8219 21
164 1 32.6012 19.6653 67.3583 20
165 1 24.6362 6.81703 11.6837 20
166 1 4.15432 12.3191 28.1897 19
167 1 21.22 6.60442 8.50085 18
168 1 16.7898 29.7638 49.843 19
169 1 16.5477 9.30848 12.6909 17
170 1 11.7898 27.0816 26.137 20
171 1 31.0546 21.5543 23.8607 20
172 1 20.6661 21.009 62.051 20
173 1 8.97213 9.90499 19.5716 21
174 1 16.3684 26.3042 1.12208 22
175 1 13.547 19.8686 -0.991078 21
176 1 6.01206 2.23067 51.9243 18
177 1 14.7429 11.8266 11.8327 17
178 1 15.9094 14.1431 13.8102 21
179 1 8.83075 10.0231 9.68412 19
180 1 23.8812 30.5212 59.5619 18
181 2 13.7262 12.814 60.4654 23
182 2 22.6103 17.0903 63.8553 20
183 2 28.5476 1.58991 4.21461 19
184 2 20.8425 21.8361 29.8762 18
185 2 6.6775 23.8956 18.9481 20
186 2 20.9753 27.4005 0.366484 24
187 2 6.48641 23.3995 25.1243 19
188 2 3.03178 25.2791 57.7438 23
189 2 29.8196 13.2468 7.3266 22
190 2 7.82848 21.5393 29.18 19
191 2 2.63261 26.0199 3.9663 21
192 2 16.9298 7.83452 36.8566 21
193 2 22.1096 28.2759 29.1854 18
194 2 4.06268 11.2762 32.4013 15
195 2 25.3888 29.4254 35.2262 19
196 2 0.946054 27.5361 6.3361 19
197 2 10.2304 10.6538 30.611 17
198 2 30.3752 10.9281 29.2756 16
199 2 22.3545 4.49997 49.7872 26
200 2 19.1006 12.8824 13.2339 18
201 2 8.80605 23.3931 63.564 21
202 2 14.9657 12.0501 63.2258 24
203 2 21.4696 7.59904 1.27196 19
204 2 10.9023 25.1796 51.526 19
205 2 0.915773 0.423232 41.2493 19
206 2 4.39013 26.3638 52.6441 19
207 2 4.41164 28.9298 25.4333 17
208 2 16.0586 33.1072 57.0648 21
209 2 20.5576 25.3836 55.2059 21
210 2 29.3381 23.6734 5.29687 22
211 2 23.1521 1.07006 64.7042 22
212 2 29.2059 15.3345 1.54322 19
213 2 6.06274 18.9862 31.1721 19
214 2 13.6689 7.17596 -0.54222 22
215 2 21.5874 31.879 19.7068 24
216 2 17.1198 1.3098 47.2027 20
217 2 2.88867 18.6641 25.7168 18
218 2 24.6879 10.1475 18.3782 23
219 2 4.27364 13.9022 14.2045 21
220 2 10.2289 2.40186 31.1192 23
221 2 21.6057 10.6891 53.9203 18
222 2 22.2129 0.772232 10.208 21
223 2 29.5537 14.1077 51.658 22
224 2 14.0214 2.0529 3.86722 20
225 2 29.0833 8.40749 64.9208 20
226 2 6.29752 27.2207 12.0085 19
227 2 29.7513 20.9048 3.68187 19
228 2 31.6985 28.3118 60.3268 18
229 2 32.6588 22.1813 56.0528 21
230 2 13.3658 3.39678 6.72879 21
231 2 10.5191 11.2854 14.3354 19
232 2 18.7267 0.542406 20.0654 20
233 2 24.6546 24.6806 62.5038 16
234 2 31.9215 15.9375 61.7431 22
235 2 26.0864 15.0999 22.2093 23
236 2 13.8652 23.6149 57.0037 24
237 2 10.2603 7.84437 5.42573 18
238 2 22.3291 5.17664 53.1824 18
239 2 17.0811 22.1612 47.8512 19
240 2 14.9916 12.1691 15.9924 18
241 2 13.6056 3.68873 62.164 21
242 2 28.6605 20.5819 24.211 21
243 2 10.6878 27.9005 67.4599 20
244 2 4.27469 13.7603 -1.5268 23
245 2 3.65994 9.20304 58.4295 19
246 2 17.2884 6.72043 56.8172 20
247 2 12.3507 19.7359 12.6425 24
248 2 3.64795 25.7236 0.332607 19
249 2 15.6107 12.6694 -1.2997 23
250 2 14.196 11.9171 5.81752 16
251 2 8.09167 19.5476 15.9281 21
252 2 16.1025 21.1275 61.4211 23
253 2 8.59075 7.55663 22.9002 19
254 2 0.918204 5.29977 20.5593 22
255 2 27.688 2.90014 52.2442 23
256 2 14.7451 3.63096 13.2275 18
257 2 13.0615 14.6198 5.7225 19
258 2 21.359 32.4045 3.94255 21
259 2 10.5351 3.45963 46.6002 22
260 2 0.720795 28.4894 22.5289 21
261 2 9.56684 23.5658 25.2847 18
262 2 3.05679 11.9882 66.3714 20
263 2 25.6456 31.5532 5.06784 22
264 2 20.9576 22.5671 24.4324 21
265 2 7.71396 28.5263 65.753 18
266 2 17.2833 23.6028 56.5527 18
267 2 31.7251 10.1128 55.2925 18
268 2 15.101 7.89485 23.2288 20
269 2 11.2016 6.19375 0.699021 22
270 2 8.84484 26.9556 7.6674 19
271 2 9.159 21.3745 7.45594 20
272 2 16.5092 9.46068 14.9431 20
273 2 13.5305 15.5006 59.9009 20
274 2 16.6126 19.2688 37.3623 20
275 2 30.1471 9.07187 -0.901744 20
276 2 8.98802 9.66112 27.0453 16
277 2 11.0621 25.6674 64.385 24
278 2 7.6899 33.0004 18.2515 23
279 2 18.0194 10.8884 36.1168 23
280 2 24.5974 22.0167 -1.49772 20
281 2 18.4217 13.7337 10.2301 17
282 2 30.6755 9.73758 11.387 20
283 2 20.7823 32.6454 67.3032 22
284 2 16.7119 15.2047 -0.926546 20
285 2 30.6112 8.19527 39.5946 17
286 2 26.2143 10.3426 4.12634 19
287 2 12.9713 26.53 -0.322548 19
288 2 6.87302 14.2242 1.4097 20
289 2 12.9092 21.3152 32.4194 18
290 2 23.4893 12.2899 29.0133 22
291 2 5.07662 32.4987 22.0717 19
292 2 11.4202 2.64669 1.51672 18
293 2 15.5985 13.8452 65.9918 20
294 2 4.4453 24.416 32.876 17
295 2 27.4293 13.0377 1.37205 18
296 2 28.2975 14.935 6.05615 20
297 2 7.26317 22.1691 -0.530748 21
298 2 21.607 26.3045 16.4991 22
299 2 19.0718 22.2747 45.0211 16
300 2 1.20785 26.3786 64.5509 17
301 2 20.8817 15.6149 48.3295 22
302 2 2.56829 13.6723 4.87474 21
303 2 24.4617 14.2983 56.5449 18
304 2 5.96914 32.2513 64.2419 20
305 2 30.0562 7.64925 3.89234 20
306 2 7.07448 31.9179 -0.811164 19
307 2 17.6873 29.5498 47.938 14
308 2 21.84 31.028 17.2013 19
309 2 10.3879 30.6673 55.878 20
310 2 5.97544 6.5678 0.887623 21
311 2 28.6964 27.5981 2.22108 17
312 2 6.93172 3.14621 17.382 21
313 2 21.018 20.1838 -1.74699 23
314 2 11.1219 20.2198 28.8378 19
315 2 29.9149 27.0677 20.877 22
316 2 17.5542 23.6336 -0.794868 24
317 2 10.8456 7.08161 8.70812 19
318 2 14.9123 17.6537 38.5701 20
319 2 20.269 5.11128 64.2811 21
320 2 8.89684 30.0236 40.5466 16
321 2 4.43822 17.7164 6.64765 21
322 2 13.0589 11.1708 14.1953 20
323 2 26.5161 10.8584 36.2732 20
324 2 12.8068 15.3503 54.4822 18
325 2 12.6083 23.3322 -0.339589 22
326 2 11.4608 4.06262 3.99475 20
327 2 13.9415 21.6458 15.531 18
328 2 8.45971 30.3416 18.953 21
329 2 29.2623 31.7956 19.3745 22
330 2 28.417 18.294 -1.09472 19
331 2 11.7229 28.5565 19.9929 24
332 2 6.84991 18.2261 18.8419 18
333 2 20.0276 11.3359 28.9198 21
334 2 1.50853 4.6239 13.9142 20
335 2 25.5927 30.6216 64.0476 21
336 2 15.4154 28.9015 10.9694 20
337 2 5.28586 1.79556 61.105 21
338 2 24.0282 21.6038 23.1931 19
339 2 26.2447 32.755 24.0564 21
340 2 6.80916 30.7169 23.6098 16
341 2 2.75192 16.0588 60.3973 23
342 2 7.4245 1.74123 47.3907 17
343 2 23.0225 8.51313 56.2949 20
344 2 10.7651 8.90738 12.4965 21
345 2 12.0774 11.8773 23.0707 19
346 2 26.3913 5.45223 63.364 19
347 2 17.736 14.4223 64.1219 22
348 2 6.44633 10.2052 5.86005 19
349 2 26.014 32.16 -0.829231 19
350 2 25.2083 3.78092 4.4387 19
351 2 3.75276 8.34477 54.6489 21
352 2 6.88976 9.50352 59.0359 18
353 2 19.5996 3.58873 30.6525 18
354 2 24.631 15.6064 19.1081 23
355 2 32.3797 15.4697 25.3704 23
356 2 25.1472 17.619 66.307 20
357 2 29.1918 17.998 8.52329 21
358 2 10.1153 30.2629 4.30134 23
359 2 22.5728 18.6689 23.6921 22
360 2 15.5103 4.59626 10.4057 21
361 1 7.95677 14.8624 12.2813 19
362 1 22.8276 28.1935 20.5972 22
363 1 5.53454 22.9593 20.102 18
364 1 21.456 17.5888 2.23549 18
365 1 17.8747 14.6467 24.108 17
366 1 7.54202 28.7926 19.4227 20
367 1 20.6338 23.5079 17.3007 20
368 1 29.6477 19.7219 34.2493 20
369 1 25.0654 3.07103 21.9309 19
370 1 9.3212 12.0253 61.8217 23
371 1 8.7246 32.1021 27.0586 20
372 1 1.63584 31.5621 63.1672 20
373 1 19.6691 3.90515 28.6556 19
374 1 8.06633 27.0054 10.6607 21
375 1 20.0648 16.7426 25.7113 22
376 1 15.2806 16.8387 34.7411 19
377 1 30.8996 10.8094 44.24 21
378 1 17.6787 31.317 21.7341 22
379 1 1.0376 2.79258 29.9095 22
380 1 22.7739 9.89168 34.006 18
381 1 13.8176 19.8416 15.5206 20
382 1 14.4649 3.86944 60.5985 20
383 1 21.0282 31.2363 30.1853 19
384 1 3.83899 29.825 29.6786 19
385 1 22.3195 3.95353 29.6286 21
386 1 18.8675 16.6848 13.7683 20
387 1 26.4272 13.5923 40.6615 22
388 1 16.4053 8.86738 5.53687 21
389 1 6.30919 11.0211 16.7947 22
390 1 30.443 2.2426 26.2173 18
391 1 22.3466 18.2319 21.9538 19
392 1 27.9944 33.4065 11.7843 23
393 1 12.1407 25.2035 47.6729 23
394 1 16.4208 23.4531 54.7168 21
395 1 21.8567 19.676 7.52609 20
396 1 19.8619 12.3448 22.8437 17
397 1 3.4097 33.3658 29.7096 23
398 1 7.24088 3.60482 36.9789 18
399 1 2.68967 29.7788 24.4087 20
400 1 22.637 2.49842 47.3494 20
401 1 31.6283 20.3314 3.25514 20
402 1 7.22627 24.1324 66.4189 19
403 1 11.1837 3.14429 32.7378 20
404 1 6.13115 4.22081 31.4688 24
405 1 31.1937 20.7417 60.635 20
406 1 5.51559 17.0543 -0.204103 21
407 1 10.5339 19.5477 22.9893 19
408 1 1.93298 4.60576 28.3097 21
409 1 3.83089 8.83211 18.8163 19
410 1 25.3295 13.3872 25.4165 21
411 1 6.23799 20.6418 8.49722 19
412 1 31.862 26.6244 25.8854 19
413 1 16.1982 21.0711 23.0051 19
414 1 26.8248 21.0422 2.48497 19
415 1 3.03787 15.2099 -2.0719 22
416 1 30.1377 10.4077 35.3039 19
417 1 22.4806 29.8939 40.708 21
418 1 29.7627 20.4256 36.5815 18
419 1 31.1971 24.5849 40.3274 19
420 1 25.9433 18.5598 44.4917 17
421 1 1.22959 16.3942 15.2508 19
422 1 24.6052 22.1482 8.51423 21
423 1 21.8661 9.8502 28.2191 22
424 1 29.8508 13.6899 23.7882 19
425 1 2.41418 29.3066 32.445 19
426 1 14.4089 13.867 4.91535 16
427 1 16.9275 12.6545 10.1564 16
428 1 25.8399 18.2317 35.2815 22
429 1 18.8128 8.51215 25.3948 21
430 1 12.5609 29.5911 6.99701 22
431 1 10.2918 20.8211 19.7231 17
432 1 28.1539 3.96392 13.6964 18
433 1 13.5058 23.6529 15.6825 21
434 1 22.1057 30.3703 26.6003 23
435 1 0.836219 32.4765 24.2662 23
436 1 29.9845 29.2763 21.2114 22
437 1 6.49096 29.8228 34.0112 16
438 1 32.7502 21.3613 44.7421 25
439 1 15.4701 7.75365 15.2458 16
440 1 30.9729 18.9371 53.1714 21
441 1 16.7831 22.7038 26.9842 20
442 1 8.39841 18.7068 10.145 24
443 1 26.1916 11.9861 3.02337 21
444 1 12.921 24.3446 36.613 23
445 1 25.2672 3.10515 28.3367 21
446 1 33.065 2.66489 24.8539 20
447 1 4.61453 17.778 15.7088 24
448 1 28.3509 23.5011 13.8044 18
449 1 17.6387 12.0808 14.2124 17
450 1 2.75974 29.6913 12.6508 20
451 1 21.9748 16.7055 29.9595 21
452 1 2.42336 16.3237 6.08573 22
453 1 26.9438 27.9057 33.9734 18
454 1 20.5461 7.33204 43.8407 20
455 1 18.2129 31.0041 16.507 21
456 1 12.9288 14.675 24.7486 17
457 1 4.96037 5.21559 25.7966 20
458 1 14.3577 11.8655 17.8062 20
459 1 6.41949 32.6947 24.0723 18
460 1 1.47973 12.9969 10.717 23
461 1 17.8883 14.9786 26.5956 17
462 1 1.69602 8.98777 3.16322 25
463 1 4.1783 8.29388 21.864 22
464 1 32.5687 22.7328 67.7544 21
465 1 9.49259 20.818 30.0143 18
466 1 27.1286 6.30736 10.5859 21
467 1 2.43975 23.9695 13.4813 21
468 1 2.05269 19.1587 4.45728 18
469 1 31.2134 29.3843 -1.64859 21
470 1 16.8603 15.0138 11.3301 20
471 1 12.1116 7.3597 4.79884 22
472 1 30.6796 21.6 16.0379 20
473 1 19.4022 12.5033 19.848 21
474 1 27.7621 1.92354 20.4919 26
475 1 5.1472 29.5549 23.0359 17
476 1 2.91502 20.6132 35.4975 22
477 1 20.5427 18.9399 23.8747 20
478 1 32.3455 20.0057 9.78662 22
479 1 23.4827 25.5623 37.2217 21
480 1 13.7629 3.69156 19.4001 17
481 1 32.3378 1.12389 5.9379 21
482 1 30.0789 8.57982 10.2631 24
483 1 5.35337 18.8178 24.9098 21
484 1 28.1124 23.7398 6.59324 17
485 1 7.88996 6.1406 32.826 23
486 1 28.2827 28.9238 15.8139 22
487 1 29.6478 21.8567 51.7299 20
488 1 31.3778 9.43463 30.2464 21
489 1 7.28124 10.1932 27.5744 19
490 1 6.02862 28.7408 10.8294 17
491 1 0.776858 10.7348 56.6427 21
492 1 6.08561 24.9192 42.5392 23
493 1 31.0732 14.7194 10.1935 20
494 1 29.919 4.8477 24.8753 20
495 1 20.1551 25.3501 4.1827 20
496 1 15.6672 31.0718 28.8376 22
497 1 1.92211 2.57939 16.5791 21
498 1 24.084 11.8694 21.7597 19
499 1 7.04393 29.5669 28.253 21
500 1 18.6228 19.0969 22.0908 19
501 1 13.5973 8.11011 13.121 22
502 1 30.8967 20.7948 28.7516 18
503 1 31.6324 15.929 13.1103 19
504 1 15.1624 1.02995 38.1948 21
505 1 7.95481 26.6024 1.35476 23
506 1 26.4815 31.7653 31.3096 17
507 1 6.0431 25.6776 36.3801 19
508 1 2.53403 18.4316 -0.521709 20
509 1 14.7415 17.7953 6.11673 21
510 1 20.6297 31.5507 38.0798 20
511 1 20.2542 9.50511 22.2927 21
512 1 2.6699 24.958 -1.24583 18
513 1 15.9907 20.3897 0.181341 22
514 1 9.22483 7.03408 36.1292 22
515 1 13.5802 19.1727 43.0696 20
516 1 9.38937 10.8627 25.5571 20
517 1 9.66802 5.99247 42.4639 17
518 1 4.76392 15.1018 20.6763 20
519 1 18.3363 18.6256 1.38765 18
520 1 7.61266 20.5693 22.4704 18
521 1 11.3707 31.8264 3.56848 18
522 1 14.2652 6.6437 19.5071 19
523 1 24.2086 17.6893 31.8359 21
524 1 16.8412 12.5846 16.7152 18
525 1 24.6362 20.5299 55.4431 20
526 1 26.6319 0.941224 1.94421 20
527 1 26.4192 24.8414 48.9169 20
528 1 28.8057 17.3858 39.3702 20
529 1 18.3246 1.91275 4.58239 23
530 1 16.9706 4.37472 23.471 22
531 1 5.53643 17.1748 18.0174 18
532 1 22.9989 24.6534 48.4077 16
533 1 11.5484 11.0564 18.8281 22
534 1 30.7634 31.074 12.7758 20
535 1 23.2814 3.87602 33.4454 20
536 1 19.2116 6.01766 23.7713 19
537 1 21.2213 12.2628 33.6285 21
538 1 10.5009 11.4588 22.208 17
539 1 25.5489 25.8765 42.1109 22
540 1 31.9574 23.9506 46.6938 18
541 2 17.9398 26.3668 31.5885 22
542 2 16.1149 7.29638 13.0457 19
543 2 20.9231 30.9246 43.2082 22
544 2 23.7441 29.0071 18.883 20
545 2 15.3845 26.2521 30.6247 21
546 2 18.1248 11.0125 20.1751 20
547 2 5.57786 8.80332 13.72 22
548 2 5.35044 21.257 6.87245 21
549 2 21.5904 16.1687 32.5209 20
550 2 13.2964 11.8209 19.8789 21
551 2 31.8208 7.60777 30.9256 20
552 2 12.9865 28.6367 12.0573 20
553 2 5.41132 13.7825 29.4458 15
554 2 22.952 24.0687 32.7126 21
555 2 31.8925 30.9155 25.54 19
556 2 7.06386 17.2294 50.7711 21
557 2 9.54393 5.11737 49.4134 21
558 2 25.4352 19.2938 33.4717 22
559 2 6.11963 19.3452 37.1605 19
560 2 5.24195 23.0345 30.0969 17
561 2 18.412 11.5426 5.3131 16
562 2 11.1991 27.8283 35.8221 19
563 2 14.1294 18.2894 14.593 20
564 2 3.3598 8.99547 23.2378 20
565 2 17.3055 26.4189 66.6788 23
566 2 8.55148 9.80583 3.42575 17
567 2 7.61872 5.95727 43.222 18
568 2 15.0287 21.13 13.0503 20
569 2 21.1277 9.13501 3.392 16
570 2 31.1703 16.7534 22.1243 22
571 2 22.9952 13.5381 66.872 21
572 2 31.1665 25.9254 52.5223 21
573 2 23.9299 2.58493 26.9699 21
574 2 7.16506 10.4911 50.4269 20
575 2 17.1538 14.1357 43.6611 21
576 2 16.9086 0.699554 42.7067 19
577 2 29.313 32.7468 30.4374 20
578 2 8.50331 6.46926 52.7652 19
579 2 17.4331 33.082 61.907 20
580 2 2.52429 7.96549 35.1083 19
581 2 30.0801 22.9816 58.8367 19
582 2 10.3355 8.79949 -0.906257 17
583 2 1.22143 28.8684 15.5084 20
584 2 21.4263 3.84848 32.8192 17
585 2 7.17141 6.86745 5.22168 21
586 2 7.13874 29.7061 12.2264 23
587 2 26.9428 18.4618 60.9497 20
588 2 10.2589 2.73449 9.60291 20
589 2 14.0784 13.0989 24.9101 19
590 2 1.33257 17.8754 6.34173 19
591 2 28.8638 6.13159 44.2878 18
592 2 14.0723 2.02084 46.5228 22
593 2 16.2028 24.4413 38.8619 22
594 2 18.3498 0.871047 25.4507 17
595 2 25.5869 24.2177 32.3552 22
596 2 1.00237 18.2029 12.2281 23
597 2 18.7679 27.3336 17.6203 21
598 2 0.92245 20.5839 43.133 20
599 2 20.2615 24.0215 33.9051 18
600 2 30.3816 25.8965 27.0303 21
601 2 10.9841 18.4555 24.4225 19
602 2 24.5351 28.8352 10.3395 21
603 2 7.99365 11.3438 19.0716 21
604 2 19.1982 14.4173 20.1659 19
605 2 11.7865 9.89613 7.65454 20
606 2 16.8238 19.5077 16.3723 21
607 2 20.1189 17.9997 3.39487 20
608 2 16.4637 32.6242 20.9756 21
609 2 5.55914 15.5424 19.0235 18
610 2 23.2427 28.3275 13.1764 14
611 2 20.1451 5.23308 -1.80496 21
612 2 19.008 29.3087 8.24402 21
613 2 30.9102 4.77983 8.73947 19
614 2 32.7209 24.7608 26.183 17
615 2 29.7515 20.47 43.3572 18
616 2 25.2654 3.44969 7.38459 19
617 2 7.45751 11.6632 37.6475 19
618 2 22.4834 7.27996 41.4802 16
619 2 32.0773 29.4337 42.7258 18
620 2 18.6026 16.7133 27.5148 20
621 2 16.6736 19.2098 22.2718 22
622 2 15.2798 1.96443 1.0064 19
623 2 6.04366 19.4912 34.1037 23
624 2 31.0772 22.8015 48.0902 23
625 2 23.941 15.8815 30.3949 20
626 2 18.3302 31.0888 42.6607 20
627 2 22.6079 10.055 32.1377 21
628 2 4.04612 3.86825 20.2056 19
629 2 27.9463 21.4999 46.8443 17
630 2 15.0187 9.75185 19.6591 19
631 2 21.2541 2.59603 28.5033 16
632 2 26.1925 32.8628 35.4869 20
633 2 15.6656 5.01119 7.0019 20
634 2 10.7869 5.83435 55.3816 21
635 2 7.32595 7.00559 39.3181 19
636 2 4.39129 21.283 66.1843 20
637 2 20.5344 30.7073 28.4353 17
638 2 21.6768 1.99549 25.4449 17
639 2 29.5813 6.85569 17.0219 20
640 2 22.1111 30.8312 36.9674 19
641 2 30.0812 31.4561 2.82308 18
642 2 29.7761 32.1596 58.6097 19
643 2 29.0157 15.1493 20.0639 21
644 2 14.5129 15.7331 62.5717 19
645 2 17.4939 25.3374 22.7781 18
646 2 26.8741 25.1912 6.96732 19
647 2 14.9795 26.1416 43.2949 19
648 2 27.2523 20.1807 10.4514 20
649 2 21.2877 20.7244 52.5047 19
650 2 6.48943 26.4345 23.4236 19
651 2 17.773 10.4596 45.1045 16
652 2 30.4185 18.2571 19.0569 23
653 2 13.7787 26.3063 40.5351 17
654 2 13.9509 14.2446 43.2452 18
655 2 20.4928 11.4197 21.3075 18
656 2 16.911 5.83132 63.2957 22
657 2 5.22543 8.92101 20.0643 20
658 2 17.4944 2.30818 2.86492 19
659 2 19.7421 29.509 15.2497 17
660 2 11.3623 3.34771 22.5541 21
661 2 22.3344 26.5623 11.277 16
662 2 8.97434 24.4255 67.2869 19
663 2 30.4044 18.2342 5.86564 21
664 2 18.8793 24.9875 37.6433 16
665 2 17.3382 19.5253 3.08689 20
666 2 4.91809 29.4904 44.1534 20
667 2 20.9544 19.9283 43.7833 20
668 2 31.0218 30.8844 21.8389 21
669 2 7.94301 29.9153 15.9993 20
670 2 23.3733 23.6603 25.9899 22
671 2 31.3668 28.3539 26.473 20
672 2 30.9133 26.8121 32.4345 21
673 2 1.61565 12.7191 37.8808 18
674 2 25.7273 27.4832 42.6168 21
675 2 14.972 26.8545 27.8596 20
676 2 25.3336 2.42907 44.2295 19
677 2 3.53744 19.7962 37.3525 20
678 2 24.2466 28.8666 39.535 20
679 2 6.13436 28.2105 8.73261 25
680 2 31.7123 21.8453 6.59933 21
681 2 32.5885 18.654 4.14019 22
682 2 2.14863 16.9175 8.82789 22
683 2 27.2919 29.7056 14.2383 19
684 2 23.7419 27.5291 37.2969 20
685 2 7.07874 2.47291 -1.31774 21
686 2 9.06988 14.8586 27.8862 16
687 2 25.0745 16.9025 44.7492 21
688 2 17.1478 16.5062 25.3905 17
689 2 22.9443 5.61219 63.2371 24
690 2 2.76733 4.48256 49.0396 21
691 2 4.49575 0.62191 17.3912 21
692 2 8.22036 24.2936 22.3513 19
693 2 17.7272 22.514 34.4722 20
694 2 9.319 18.409 30.6047 21
695 2 18.4744 6.15398 17.9937 19
696 2 6.02681 29.1585 38.744 20
697 2 10.6833 7.73999 34.5861 21
698 2 20.737 2.07559 21.2914 18
699 2 33.0186 26.9781 18.9318 23
700 2 3.11044 28.3029 28.7617 19
701 2 6.45109 24.0788 11.8957 17
702 2 26.6836 3.70093 2.38552 20
703 2 5.66345 5.49014 33.4599 19
704 2 18.5263 30.5027 18.2934 22
705 2 16.1496 6.21146 20.2131 22
706 2 24.0715 13.1727 11.6021 24
707 2 32.5097 16.0329 10.4435 21
708 2 20.2592 32.6251 60.6528 19
709 2 24.2894 19.1151 20.5579 20
710 2 26.603 21.9167 38.6808 18
711 2 31.1922 27.1705 3.53511 22
712 2 14.5397 18.7431 23.9016 21
713 2 26.6464 6.98826 12.4629 19
714 2 7.52478 25.0865 29.3486 19
715 2 30.3027 17.0908 12.4519 21
716 2 9.87382 30.7114 -1.24534 20
717 2 12.2846 15.0038 20.3773 20
718 2 7.54997 31.4479 34.9877 19
719 2 23.6138 4.38613 40.6771 17
720 2 17.5517 8.69397 28.6174 20
721 1 15.0187 16.395 18.7774 22
722 1 19.5351 28.5411 65.5766 23
723 1 10.0825 24.6151 9.94117 22
724 1 14.4089 17.0901 0.334925 20
725 1 22.4692 19.6295 10.5838 20
726 1 5.18751 24.8502 26.4091 18
727 1 24.254 30.9612 7.69153 23
728 1 11.1685 16.2746 66.1826 21
729 1 12.6235 3.00848 64.4284 22
730 1 29.0352 32.9058 43.8879 19
731 1 13.9739 22.5309 -1.76783 20
732 1 3.11326 26.3171 29.8074 20
733 1 32.9799 25.2245 9.27964 18
734 1 8.67601 28.7802 -0.229856 22
735 1 23.4805 18.7206 4.91565 18
736 1 31.123 9.08312 4.59153 23
737 1 14.3353 5.87369 67.6773 20
738 1 13.9222 23.0794 49.9641 21
739 1 25.461 14.4029 20.5145 20
740 1 30.4246 2.67499 16.4136 20
741 1 2.76683 22.1999 64.038 19
742 1 23.5903 1.64868 30.4013 20
743 1 18.1948 32.6011 18.6958 22
744 1 0.73845 31.3661 13.9786 21
745 1 10.6351 32.9219 65.2588 21
746 1 31.9892 25.415 12.297 19
747 1 21.6635 22.1876 9.63289 22
748 1 7.49615 22.2461 62.5927 18
749 1 16.8594 15.4677 5.38154 19
750 1 2.52493 9.85734 -1.2604 18
751 1 28.6714 2.07851 9.18201 18
752 1 31.648 26.9248 65.01 19
753 1 10.5827 10.0336 3.41113 16
754 1 15.9497 23.7944 3.49852 20
755 1 19.9026 32.5113 21.3448 22
756 1 3.07397 19.9866 11.1013 20
757 1 14.2904 24.2062 8.61908 22
758 1 27.6746 16.2956 0.708754 21
759 1 20.3732 27.8855 15.5897 19
760 1 3.83393 13.9021 61.7802 21
761 1 5.07661 3.17562 57.8361 20
762 1 5.59007 9.64297 -0.680956 22
763 1 28.9167 20.4593 62.4416 19
764 1 18.2492 23.6335 59.2953 21
765 1 8.68259 30.9489 14.7047 21
766 1 29.1522 13.0757 13.963 21
767 1 4.46451 31.9017 62.8162 18
768 1 22.1538 22.9169 6.09611 23
769 1 5.79408 2.74366 3.64836 19
770 1 4.09033 4.43061 -1.2341 21
771 1 18.9282 31.5667 11.751 17
772 1 7.853 19.7351 17.8809 17
773 1 19.4925 9.50326 -0.391699 20
774 1 12.5621 16.3605 4.23508 18
775 1 22.9259 1.01216 62.7732 22
776 1 2.25785 6.55042 36.8399 20
777 1 2.55084 7.62742 9.19838 22
778 1 12.1201 3.32578 28.4254 19
779 1 11.0308 8.57204 10.4304 24
780 1 28.5876 18.5287 20.3092 19
781 1 13.2869 24.6785 61.1195 22
782 1 32.0799 16.7729 67.3276 21
783 1 25.7853 17.4713 14.8955 24
784 1 28.8569 26.5598 11.4226 20
785 1 7.53022 31.3774 6.00564 19
786 1 11.0377 21.9144 0.0299593 23
787 1 5.58908 19.5568 2.41983 20
788 1 33.14 1.61596 21.6565 21
789 1 32.1347 2.58159 65.2761 22
790 1 21.4845 32.4563 35.3667 16
791 1 29.7206 26.6812 34.3836 23
792 1 17.5725 22.7826 65.2577 20
793 1 26.6682 23.876 3.11206 16
794 1 13.4624 22.2134 1.69526 22
795 1 19.4011 13.9988 11.9171 15
796 1 14.0432 13.7158 9.6172 20
797 1 29.9904 4.54765 10.5913 17
798 1 31.3051 30.3293 62.3647 22
799 1 18.4641 17.9464 55.6879 19
800 1 10.0111 15.8259 60.7894 22
801 1 30.1636 25.3782 20.5809 23
802 1 25.5036 13.3431 49.6052 19
803 1 14.3044 22.5162 5.85154 19
804 1 2.16489 8.21022 64.5266 17
805 1 31.7069 8.20809 15.3647 22
806 1 1.23534 14.2044 66.372 19
807 1 2.84648 28.503 55.4582 20
808 1 26.9586 22.0396 11.3663 18
809 1 13.5168 6.2403 64.8429 20
810 1 5.76125 5.04343 17.1585 20
811 1 7.35684 13.9488 31.4343 17
812 1 13.1672 28.8598 10.2323 22
813 1 21.1503 30.8439 64.5896 22
814 1 15.8424 23.3428 19.2088 18
815 1 30.6601 24.7351 32.0177 21
816 1 6.17827 29.9859 25.3442 19
817 1 14.0795 20.6663 54.8023 20
818 1 6.78633 30.2414 61.6233 22
819 1 17.8788 2.69361 31.2196 18
820 1 27.4816 29.5253 25.3625 20
821 1 14.5306 22.0316 52.5442 17
822 1 19.9402 12.8212 9.16443 17
823 1 32.2731 25.2134 -0.0515551 21
824 1 9.90881 14.5213 63.7361 19
825 1 5.9839 26.7415 3.43331 22
826 1 19.8636 8.00832 62.4249 21
827 1 25.6201 27.0125 26.9958 22
828 1 14.6455 30.9678 8.47033 19
829 1 22.7764 12.1288 36.0621 24
830 1 8.06694 23.5648 10.8901 21
831 1 29.4618 22.9867 63.9419 20
832 1 22.4427 26.5835 13.4015 21
833 1 9.14826 26.1336 4.8623 21
834 1 17.3565 13.3419 -1.84348 21
835 1 20.9955 16.353 11.5064 19
836 1 12.173 7.27465 7.5897 18
837 1 30.4135 10.1762 57.4112 19
838 1 16.5547 10.7986 67.8065 20
839 1 7.73133 21.0451 67.7107 19
840 1 22.1881 16.4251 8.74339 22
841 1 12.2575 1.8602 -1.82934 22
842 1 15.4645 30.7902 62.642 23
843 1 12.144 28.8444 2.37489 21
844 1 25.2361 13.1469 5.86873 23
845 1 19.9138 6.6214 66.7695 20
846 1 21.2894 17.1387 4.76855 20
847 1 16.8364 7.54509 62.5596 20
848 1 0.674871 12.3235 -0.282428 21
849 1 20.7573 32.8532 49.3161 22
850 1 16.7301 24.4562 67.6023 22
851 1 23.6555 25.984 16.6533 21
852 1 11.6477 12.2064 15.9782 18
853 1 19.3 11.4058 67.3625 21
854 1 24.1573 15.0006 17.0436 24
855 1 10.5641 19.3589 -1.89965 20
856 1 24.1395 0.96157 67.6677 22
857 1 5.81786 5.74602 4.46054 21
858 1 21.2539 30.2138 13.0767 20
859 1 6.30731 15.0691 67.4647 19
860 1 32.4383 20.0216 15.0437 22
861 1 26.5787 32.4306 6.57539 18
862 1 22.0639 8.974 54.5883 18
863 1 27.2127 25.0916 66.0065 19
864 1 10.9567 25.1429 20.6787 17
865 1 3.767 2.69857 18.482 20
866 1 32.5625 16.9297 21.0697 21
867 1 19.6632 5.1329 6.08064 20
868 1 8.77012 3.05765 10.6364 21
869 1 30.6172 22.9844 2.52939 17
870 1 8.33699 25.0146 7.79333 22
871 1 7.10863 16.0447 47.7338 24
872 1 18.051 25.8676 62.2185 21
873 1 29.2098 1.55031 6.00263 16
874 1 30.1113 26.93 53.6115 20
875 1 7.91265 22.8064 35.0581 17
876 1 14.4275 10.8965 21.1736 21
877 1 25.6657 22.8768 43.0913 22
878 1 9.36917 33.2323 17.2424 24
879 1 17.5852 30.1562 65.4385 21
880 1 12.3441 1.86119 4.19193 15
881 1 3.94198 14.2033 0.591653 21
882 1 2.73888 2.66884 7.33918 19
883 1 28.992 25.5783 2.04625 23
884 1 10.1145 30.4403 61.0759 21
885 1 16.3886 32.8458 6.13507 23
886 1 18.4286 28.7897 10.1447 18
887 1 17.8072 29.1078 27.3274 23
888 1 17.4757 6.89276 3.18084 19
889 1 31.2174 1.67549 11.5631 22
890 1 19.261 10.4887 3.92132 20
891 1 22.7627 12.8806 4.04709 20
892 1 16.157 27.8352 31.8974 20
893 1 11.1494 22.359 55.2765 21
894 1 15.3817 13.2532 26.8166 20
895 1 11.4861 23.4298 30.4398 22
896 1 20.0069 14.04 67.1541 23
897 1 27.4693 19.5388 28.4588 19
898 1 13.1014 11.4662 33.7968 20
899 1 11.9978 31.2644 21.7331 21
900 1 19.3572 18.9384 11.889 22
901 2 21.8559 11.3435 50.8914 23
902 2 27.2784 33.1482 45.8249 20
903 2 24.2797 27.2354 63.7282 22
904 2 11.1681 11.855 62.2821 23
905 2 16.26 26.2785 17.3076 20
906 2 2.60724 5.23283 60.8632 20
907 2 2.86165 26.7984 15.5629 20
908 2 14.232 17.5187 55.7449 20
909 2 19.6024 13.31 1.80452 17
910 2 8.93122 8.15932 10.5483 19
911 2 16.9619 19.8007 49.9641 18