ITEM: TIMESTEP
56000
ITEM: NUMBER OF ATOMS
5760
ITEM: BOX BOUNDS pp pp pp
1.1546454364 32.5053545636
-0.8961949844 34.5561949844
-0.3548877968 66.1548877968
ITEM: ATOMS id type x y z Coordination
1 1 32.0058 1.07509 5.95137 20
2 1 5.00069 15.3417 60.8762 20
3 1 1.49955 6.72516 0.169639 19
4 1 5.01946 33.3702 65.9396 19
5 1 8.66748 5.66982 63.6407 22
6 1 4.99757 10.8081 1.22328 17
7 1 4.01856 -0.591199 1.78215 21
8 1 10.9857 1.44637 16.4432 22
9 1 31.5409 1.79777 8.57059 24
10 1 2.99268 33.6642 7.58868 18
11 1 27.8003 8.98014 2.79409 18
12 1 9.03665 4.61389 3.66936 19
13 1 27.5324 3.44596 66.1752 23
14 1 9.4638 34.4776 25.1559 17
15 1 30.5899 31.2311 0.979919 20
16 1 13.8459 1.88982 7.90902 23
17 1 14.6291 8.46325 22.3982 24
18 1 20.7387 8.40923 14.825 21
19 1 13.4536 -0.203201 4.038 19
20 1 32.3336 34.3673 25.4605 22
21 1 2.21745 29.8095 2.54639 21
22 1 3.31385 5.08455 61.2575 21
23 1 10.084 30.9755 61.9738 19
24 1 2.82041 6.5298 10.8441 21
25 1 16.19 33.9934 1.97763 15
26 1 7.36424 0.757835 7.40401 16
27 1 8.95888 14.3815 17.0906 20
28 1 27.0053 18.1579 17.8365 18
29 1 13.1535 15.9145 3.08142 20
30 1 14.9971 11.3766 65.4603 20
31 1 30.9177 10.0504 4.06147 19
32 1 10.3167 6.28797 7.34819 19
33 1 8.96146 3.81902 21.6236 17
34 1 8.14946 21.0005 10.9544 21
35 1 5.32706 20.8716 0.942406 22
36 1 7.6168 12.598 19.3463 22
37 1 7.64522 10.8219 64.8315 21
38 1 30.4106 31.0891 4.18422 22
39 1 22.2039 2.19374 22.2638 21
40 1 23.4409 6.18378 7.13219 17
41 1 27.8957 13.2193 62.7409 18
42 1 15.0181 21.3965 2.42016 23
43 1 8.87396 11.3643 4.53674 21
44 1 9.48659 11.0504 59.5125 19
45 1 27.2155 8.29542 61.7024 20
46 1 5.48554 18.6861 10.4628 20
47 1 27.4714 22.5344 3.65373 19
48 1 14.0883 5.4921 64.381 20
49 1 27.4912 10.308 0.383394 21
50 1 10.5224 30.6254 25.8138 16
51 1 15.9508 27.3722 16.3294 23
52 1 6.65916 13.1151 -0.121298 22
53 1 4.75512 27.8851 10.6743 19
54 1 27.4962 17.2389 2.98992 22
55 1 28.0245 22.7409 16.1715 19
56 1 12.4783 25.5689 5.07742 22
57 1 25.5299 5.79128 13.1668 20
58 1 2.00029 31.7579 5.19768 18
59 1 13.0628 26.3343 16.8573 19
60 1 12.0651 18.979 2.39127 23
61 1 30.9685 17.9452 65.2739 20
62 1 16.2266 13.7633 63.8429 21
63 1 7.1633 23.3058 3.06742 21
64 1 8.59566 5.18768 10.0515 21
65 1 14.8847 0.36051 10.485 21
66 1 14.9653 0.0396123 0.378935 19
67 1 18.4499 0.141997 5.2087 22
68 1 9.32442 16.7842 63.3502 20
69 1 17.2962 11.9666 5.64058 19
70 1 21.4319 16.9251 12.3526 22
71 1 3.74517 33.8618 4.32355 18
72 1 4.64357 28.3262 15.5674 22
73 1 4.46924 34.3049 63.0096 25
74 1 31.838 34.1851 8.71372 21
75 1 19.0955 11.8633 2.62419 16
76 1 4.86929 31.7579 8.25159 17
77 1 14.4568 8.28055 18.8026 22
78 1 6.0674 14.8717 16.8347 22
79 1 25.6235 7.34279 64.2333 22
80 1 9.94027 31.4837 3.7171 21
81 1 15.0737 2.44616 2.4576 20
82 1 32.2679 1.32625 10.8088 24
83 1 8.79002 10.0211 19.0392 20
84 1 26.3235 5.87378 8.59305 22
85 1 16.384 5.67744 63.0319 19
86 1 17.9916 31.5674 5.18608 18
87 1 9.34761 18.6722 10.8849 23
88 1 11.4543 31.6264 13.5058 21
89 1 11.4292 2.83278 1.11242 18
90 1 7.51593 0.981333 14.7033 22
91 1 7.3629 8.14475 2.6701 17
92 1 27.8303 30.6585 6.75824 20
93 1 1.35134 8.78659 2.38015 18
94 1 12.0634 12.5745 59.8684 20
95 1 23.9758 3.22461 25.3526 21
96 1 11.9181 16.806 63.9323 22
97 1 3.20792 5.92505 3.86913 23
98 1 4.31409 31.4164 1.75032 20
99 1 6.46477 2.65569 9.00929 18
100 1 7.8392 5.3738 7.12322 21
101 1 17.3728 9.00573 7.0352 23
102 1 11.5759 12.5364 7.07665 22
103 1 8.32993 23.6451 8.76137 20
104 1 7.28812 16.5114 8.10964 19
105 1 32.1434 7.97508 11.4103 21
106 1 24.4741 2.31801 17.7035 21
107 1 10.3102 24.3869 1.68851 24
108 1 7.56056 18.0291 5.36987 19
109 1 28.6974 6.70396 5.15757 18
110 1 31.5882 15.9642 62.8948 17
111 1 29.8333 12.6519 13.5312 20
112 1 17.1885 22.7587 14.1935 22
113 1 30.8545 6.75622 13.0813 19
114 1 30.0618 18.6161 5.80886 21
115 1 2.5446 3.33902 5.80016 20
116 1 9.79906 14.412 14.1545 22
117 1 11.0266 16.1707 12.5376 16
118 1 10.4271 32.2116 1.19927 17
119 1 2.00241 -0.768938 16.0626 21
120 1 14.6809 21.7975 17.5167 23
121 1 12.0094 4.64317 3.2248 21
122 1 15.1347 9.45512 4.61959 21
123 1 17.7096 11.5914 61.5385 23
124 1 23.6322 10.2333 6.23743 18
125 1 4.42691 6.29665 65.4247 18
126 1 20.2767 23.4153 12.1383 18
127 1 27.6292 1.84843 20.6494 21
128 1 14.3953 10.638 6.92206 19
129 1 19.8131 2.3125 5.26453 23
130 1 11.5295 13.9384 9.89842 19
131 1 11.0974 5.82738 66.1462 19
132 1 18.0138 10.115 12.0246 19
133 1 4.82876 7.30494 1.83999 21
134 1 12.8895 3.26843 13.8214 17
135 1 12.2317 29.7335 21.8332 15
136 1 27.8271 4.02631 6.8895 19
137 1 17.9075 26.6478 13.7852 21
138 1 5.62587 6.02318 12.9488 15
139 1 20.3007 9.5601 24.2043 22
140 1 12.7797 3.09601 16.8924 21
141 1 13.0797 7.23114 4.72265 18
142 1 19.3409 12.5074 64.8805 21
143 1 15.8142 24.7811 5.13867 19
144 1 28.1093 10.0743 18.2873 21
145 1 9.41346 17.9294 2.59762 20
146 1 20.1671 23.8012 8.97867 20
147 1 5.65777 13.2716 9.26813 21
148 1 22.5522 8.41639 64.4613 21
149 1 7.27739 32.8903 2.02092 20
150 1 11.2223 7.72458 10.6446 24
151 1 15.3885 25.9404 2.65132 21
152 1 12.1826 34.2264 8.46839 21
153 1 8.44525 30.9142 11.9295 18
154 1 18.122 16.5822 6.17117 20
155 1 25.7399 11.4847 3.18305 19
156 1 23.6924 0.0648787 15.5794 21
157 1 14.5203 0.927925 21.6417 24
158 1 15.7553 3.26669 8.54043 19
159 1 6.04197 9.81171 9.35591 19
160 1 26.8474 6.77523 23.4434 20
161 1 6.54632 5.25227 3.58191 23
162 1 25.3682 16.2141 65.4743 21
163 1 16.2898 19.9413 12.2304 18
164 1 19.9051 28.0932 65.8684 21
165 1 24.844 13.668 11.0073 19
166 1 24.4869 11.5636 22.503 21
167 1 7.07729 14.6288 14.0551 20
168 1 25.8255 20.2808 2.20881 22
169 1 4.80889 19.1153 24.4968 20
170 1 9.71902 10.5833 21.9699 22
171 1 15.2915 24.8673 12.6709 23
172 1 17.0202 7.79512 66.2989 20
173 1 9.73992 8.51036 65.1932 18
174 1 15.9551 8.56319 2.08395 20
175 1 21.1516 12.8945 4.97862 18
176 1 21.7582 5.89356 65.1406 22
177 1 18.6253 10.2889 15.9252 19
178 1 13.7152 30.2878 30.3291 23
179 1 4.20258 0.227423 14.9311 20
180 1 17.5442 1.10644 2.74953 21
181 2 5.22704 3.14312 58.1972 21
182 2 4.72723 26.4731 65.8266 18
183 2 20.756 1.88894 0.542295 18
184 2 4.48409 16.0269 20.5514 23
185 2 7.61064 12.9397 10.313 20
186 2 4.5854 33.74 8.47635 17
187 2 6.48508 28.7267 14.7346 18
188 2 4.46133 3.19579 4.65046 20
189 2 23.9301 2.70303 21.2968 21
190 2 25.1542 17.5953 13.3893 18
191 2 24.2572 27.2048 6.71298 19
192 2 12.4167 4.46674 23.7628 18
193 2 28.8291 5.36786 12.8509 20
194 2 5.81053 1.89402 19.0286 18
195 2 7.40934 34.2247 23.6354 19
196 2 7.16108 30.3679 8.13093 22
197 2 5.62457 26.927 22.1815 20
198 2 12.2766 17.6766 12.4668 18
199 2 18.4035 12.0424 7.41209 19
200 2 23.4861 4.86246 8.75751 21
201 2 13.3569 19.0969 1.02196 20
202 2 5.61342 21.7446 63.8076 23
203 2 20.0692 4.66853 63.9852 18
204 2 7.5664 5.85989 62.1515 21
205 2 32.0588 20.2999 62.7328 20
206 2 15.1082 4.24758 65.5465 20
207 2 7.28096 32.5494 0.0857567 23
208 2 21.7462 6.58164 6.18555 17
209 2 23.9077 25.4289 4.0733 19
210 2 18.8233 30.74 6.62124 18
211 2 5.72654 3.72152 2.31528 21
212 2 30.7779 12.1216 8.19596 22
213 2 30.5048 19.9754 28.1582 22
214 2 1.65247 4.71779 20.5272 21
215 2 19.6478 7.15701 19.1504 18
216 2 5.21243 0.885188 26.6934 22
217 2 21.3927 6.88534 2.2864 23
218 2 7.38452 8.52313 8.9214 20
219 2 18.9041 28.8677 9.17397 19
220 2 14.9608 2.15614 30.2085 17
221 2 3.37455 13.0629 64.9721 21
222 2 20.6153 13.9845 64.5257 23
223 2 15.5793 17.5328 64.5594 22
224 2 11.0097 29.6945 2.93405 21
225 2 2.43311 13.8392 7.89382 22
226 2 14.4659 16.0761 6.13072 22
227 2 10.6414 11.7522 4.80887 20
228 2 4.9067 0.13992 0.161447 19
229 2 7.42392 20.1594 -0.115919 17
230 2 8.97792 17.2928 4.34542 20
231 2 2.74937 15.7633 15.3032 23
232 2 9.4805 7.73106 11.4864 18
233 2 15.6277 1.87613 0.269771 21
234 2 23.2014 11.9588 10.5003 21
235 2 28.9694 31.0233 27.8558 23
236 2 19.1967 8.83782 7.35187 18
237 2 8.15737 0.116783 12.5949 19
238 2 15.9823 29.1544 6.7833 19
239 2 30.4206 2.39295 27.3933 21
240 2 18.7286 23.2755 13.2415 21
241 2 15.7368 9.75546 58.5285 21
242 2 18.3665 6.47192 9.35123 19
243 2 8.65624 31.9318 5.15269 24
244 2 24.9826 10.7517 58.4673 20
245 2 11.0877 2.53174 65.8635 17
246 2 18.4542 2.08771 61.3462 21
247 2 9.12401 19.7836 2.20435 22
248 2 18.4881 34.1726 7.03289 22
249 2 19.9062 27.3541 3.71624 20
250 2 28.2656 1.89255 7.59538 20
251 2 9.94154 12.5097 14.5488 23
252 2 13.6963 15.1586 15.709 19
253 2 10.7131 32.4219 18.3352 20
254 2 17.1603 6.78825 15.1274 22
255 2 13.1996 32.4371 12.6542 19
256 2 15.7991 1.43443 7.5027 21
257 2 22.36 1.89898 9.95413 19
258 2 8.02386 32.2661 19.1126 20
259 2 15.2164 1.68372 34.3374 24
260 2 31.9056 3.00547 10.1547 20
261 2 14.1958 19.8109 12.8327 17
262 2 10.2324 0.517861 10.4888 21
263 2 10.9415 24.1967 11.7162 20
264 2 22.0084 6.69111 10.5236 22
265 2 2.69078 4.89814 10.1715 18
266 2 15.2677 34.0033 63.3622 22
267 2 32.2212 32.7279 0.149103 15
268 2 21.4672 14.5979 10.8949 19
269 2 12.1849 9.6169 10.1052 21
270 2 10.0005 4.57121 1.59554 19
271 2 30.2554 15.034 9.33045 19
272 2 30.3553 -0.00540716 8.39766 23
273 2 14.2324 22.0092 3.98089 20
274 2 15.253 32.7969 24.6567 19
275 2 11.077 -0.738623 7.06025 22
276 2 4.66473 1.78481 10.5322 21
277 2 5.7486 33.6973 4.64041 17
278 2 8.97824 16.9792 23.5938 21
279 2 18.3136 13.3268 22.0412 21
280 2 13.6771 21.4913 15.7659 23
281 2 7.7277 11.8123 6.16992 21
282 2 5.65363 11.4399 8.2104 19
283 2 15.038 15.6081 12.6607 20
284 2 17.6339 19.1035 4.90211 21
285 2 12.0726 7.44095 25.1023 19
286 2 1.81092 12.0957 5.46378 18
287 2 13.3917 20.6444 6.84682 20
288 2 5.34941 18.3145 64.4767 19
289 2 10.9226 11.9449 11.4676 19
290 2 21.3542 11.2694 6.09543 17
291 2 11.4193 17.2073 17.7113 21
292 2 17.1995 11.3825 65.301 21
293 2 14.1925 12.0118 1.1304 22
294 2 8.20603 30.3608 16.5288 21
295 2 7.39148 27.1592 65.8545 20
296 2 27.4686 15.121 17.5991 19
297 2 15.4499 26.9029 4.37522 19
298 2 25.0872 13.501 12.8818 18
299 2 20.7098 11.0635 20.0205 17
300 2 23.3198 10.4388 8.17972 14
301 2 22.2456 9.16038 5.23616 19
302 2 20.8046 32.3481 64.8138 24
303 2 32.4136 2.8862 0.647675 21
304 2 12.4742 6.42346 10.5299 22
305 2 14.689 7.74909 5.76777 19
306 2 17.7065 31.9401 64.4892 20
307 2 15.9501 4.82972 2.64775 19
308 2 27.3085 9.02388 12.4292 19
309 2 12.1384 5.06902 64.4908 18
310 2 16.5198 27.6801 10.9532 20
311 2 18.5464 5.86404 65.5638 20
312 2 19.4252 4.81623 2.55 22
313 2 29.432 5.26938 3.43445 17
314 2 27.0619 2.37505 22.4301 20
315 2 10.6758 28.6147 21.8871 20
316 2 10.0911 1.71324 1.81703 18
317 2 13.7644 8.42792 1.46451 20
318 2 18.6843 22.2907 35.0246 19
319 2 17.2334 5.52865 17.393 20
320 2 23.8585 1.71132 41.0836 22
321 2 28.8189 14.9774 14.1993 17
322 2 6.15329 2.64117 7.01294 19
323 2 12.6887 12.6955 19.3093 21
324 2 25.3439 8.79917 60.9799 20
325 2 20.4522 32.9822 14.2513 21
326 2 19.1935 6.15396 12.506 20
327 2 6.84193 30.4362 64.8379 16
328 2 19.8921 14.5856 14.5992 19
329 2 20.8126 9.13866 11.3766 21
330 2 13.3807 4.84686 59.6567 20
331 2 18.6294 14.3277 65.5567 20
332 2 15.0481 3.57764 6.5161 19
333 2 12.6879 0.631064 8.54483 22
334 2 2.62532 0.572031 60.7363 18
335 2 14.8193 16.765 3.88679 22
336 2 8.7486 6.14585 8.57534 19
337 2 29.2051 9.95554 66.1501 19
338 2 23.4909 30.2935 24.4111 20
339 2 26.5943 21.7532 25.0319 21
340 2 11.5892 5.10285 13.6375 20
341 2 6.84611 15.8215 9.95171 18
342 2 19.5463 20.8631 1.4759 21
343 2 8.75292 21.5714 63.6942 22
344 2 16.278 10.0666 5.8514 19
345 2 12.5897 15.5498 19.6388 22
346 2 18.4707 17.7962 66.0099 22
347 2 32.1487 17.1163 19.6318 21
348 2 25.508 10.6564 0.900033 20
349 2 15.7746 30.0804 14.5468 19
350 2 16.4559 21.5177 6.39053 20
351 2 21.8419 9.14947 65.8421 26
352 2 28.6601 14.5676 65.9579 18
353 2 28.855 11.2062 14.1787 20
354 2 14.2445 3.99924 13.0715 18
355 2 5.37375 14.9132 12.8733 24
356 2 17.2585 23.318 62.2976 22
357 2 17.1434 11.7097 12.6781 18
358 2 2.40804 1.52212 9.55016 20
359 2 3.20683 31.0801 25.2573 23
360 2 17.519 5.67193 25.6318 22
361 1 31.5893 11.2788 11.7126 22
362 1 27.6387 3.77135 13.3112 18
363 1 9.14435 32.1054 15.9136 21
364 1 5.62348 29.2209 7.22641 20
365 1 23.8753 6.33168 24.8818 20
366 1 3.62308 29.5397 20.7533 20
367 1 25.7201 17.2692 26.0392 21
368 1 32.2496 33.6779 22.1082 21
369 1 4.83916 26.4581 20.4151 17
370 1 2.08104 7.00318 18.4445 19
371 1 18.4173 10.9575 27.3579 24
372 1 3.61497 28.6648 66.085 20
373 1 11.5926 2.53718 20.804 19
374 1 5.7882 7.42177 8.8784 18
375 1 20.1499 15.1389 32.122 20
376 1 9.44048 24.8069 27.4698 17
377 1 9.60319 7.37771 37.636 18
378 1 16.8381 13.654 28.9163 21
379 1 4.00105 4.62058 36.2145 21
380 1 8.20322 12.7187 37.2138 17
381 1 8.19618 6.54378 18.6835 20
382 1 20.3306 12.8398 10.2569 22
383 1 26.1253 8.98829 24.8994 19
384 1 29.993 24.6028 26.842 21
385 1 23.3308 6.45485 28.4648 22
386 1 10.2667 3.7906 14.178 23
387 1 19.9115 12.518 29.1858 18
388 1 30.6152 9.32182 20.1815 18
389 1 28.7312 2.97716 27.6091 20
390 1 16.4734 6.18382 27.0455 24
391 1 9.16067 8.57665 9.44915 20
392 1 4.66634 20.4403 21.2425 22
393 1 5.14166 4.43523 39.4656 23
394 1 22.185 12.2315 31.2658 20
395 1 11.0598 7.32689 14.035 21
396 1 14.1675 3.74813 27.7874 20
397 1 12.0582 0.379025 24.4787 20
398 1 20.4525 22.3577 25.3726 22
399 1 16.7678 6.91212 30.3991 20
400 1 29.9328 4.5058 31.357 20
401 1 11.1921 19.1449 13.7402 19
402 1 19.6282 9.0142 9.74867 21
403 1 29.5066 9.75287 6.22535 22
404 1 6.43532 1.16978 28.4676 22
405 1 11.165 21.3067 8.50454 21
406 1 31.1435 19.3064 10.3023 20
407 1 3.8297 18.7623 12.7466 20
408 1 2.43209 17.6622 26.5018 22
409 1 12.7546 10.1481 15.1388 22
410 1 6.0562 9.86607 33.048 19
411 1 31.1076 13.7104 10.4413 21
412 1 9.86954 6.36473 26.1321 20
413 1 28.5414 29.1293 27.8761 21
414 1 10.0932 21.2947 3.13052 20
415 1 30.8519 11.2675 28.1271 18
416 1 4.85417 16.1153 14.1439 22
417 1 11.9708 19.4093 23.5302 23
418 1 17.9523 19.2232 29.5986 20
419 1 31.9972 21.9795 31.055 21
420 1 2.51642 12.0788 28.2333 20
421 1 29.7288 34.1872 16.6798 21
422 1 10.4919 28.3181 11.8847 19
423 1 31.8872 6.22483 20.342 22
424 1 4.66318 10.7867 20.5211 22
425 1 4.81517 12.7813 18.505 19
426 1 10.7011 2.56785 8.81489 18
427 1 15.5806 32.9511 4.63416 21
428 1 13.9258 14.5089 27.4975 22
429 1 8.13815 33.4135 22.1545 20
430 1 26.7099 -0.712765 10.8742 22
431 1 31.9062 13.3569 4.78222 22
432 1 29.9374 32.5011 26.8397 20
433 1 14.2746 31.9878 26.0532 21
434 1 17.5106 -0.427882 20.5734 22
435 1 16.4517 26.9753 28.136 19
436 1 5.24946 32.7468 32.7361 18
437 1 3.70101 -0.0479408 27.2687 22
438 1 7.8312 14.864 29.6816 20
439 1 9.07209 27.4015 30.5596 20
440 1 21.4486 24.3841 27.3162 20
441 1 25.813 33.973 17.5081 20
442 1 2.54107 9.59585 13.2723 19
443 1 27.5539 8.99508 8.90905 24
444 1 11.6977 1.88161 27.1491 20
445 1 16.5943 10.0213 19.8811 19
446 1 21.6832 5.85534 31.1658 21
447 1 13.1553 21.8172 34.4519 24
448 1 28.5427 7.00658 20.3043 23
449 1 3.06007 10.259 24.089 18
450 1 11.7198 34.0982 15.0418 19
451 1 9.62251 9.33656 29.1334 17
452 1 7.05319 19.1898 19.4807 24
453 1 20.3021 10.4857 35.9677 21
454 1 12.7768 6.24707 23.6425 20
455 1 14.2416 33.3147 34.5405 23
456 1 4.65631 0.922634 19.9752 20
457 1 17.8974 31.8557 26.6842 19
458 1 2.29404 21.461 22.9272 20
459 1 10.6293 10.1462 25.8205 22
460 1 12.3796 16.8545 10.2708 16
461 1 5.94575 32.0527 23.3212 21
462 1 14.4405 24.4891 7.90339 19
463 1 2.01992 21.0398 25.8729 18
464 1 22.696 3.56526 20.1458 20
465 1 5.07731 8.32189 15.2027 18
466 1 8.78636 17.7977 14.9837 18
467 1 8.47314 1.82721 25.6644 22
468 1 12.8319 11.2988 11.1063 20
469 1 27.4497 31.7387 14.6713 20
470 1 1.24088 16.3689 29.4041 17
471 1 3.10441 9.78082 17.1099 23
472 1 10.352 28.1364 26.9721 22
473 1 5.40435 17.5933 27.9643 22
474 1 18.4027 11.3818 24.2793 22
475 1 11.3927 11.9799 13.5248 17
476 1 6.99913 12.7214 31.229 20
477 1 13.3915 16.1845 29.3529 21
478 1 4.65161 17.4511 22.1431 20
479 1 14.8966 15.4543 31.5536 19
480 1 7.0958 9.80942 30.5733 23
481 1 10.0661 3.36602 6.45877 23
482 1 8.66861 9.10247 15.6914 24
483 1 11.0406 8.3153 23.6384 19
484 1 30.9849 31.1577 24.394 20
485 1 16.6754 31.5948 23.8764 19
486 1 24.2728 1.21944 9.87732 19
487 1 23.3123 10.7434 33.7233 20
488 1 6.18683 2.59533 22.7754 21
489 1 8.97049 34.4965 16.9738 23
490 1 14.3218 26.8938 23.9232 19
491 1 15.7123 13.2418 15.1684 21
492 1 10.0834 30.6447 29.8384 21
493 1 4.32747 17.5582 19.1748 20
494 1 11.8766 18.5612 29.589 14
495 1 6.89019 33.9408 29.1863 22
496 1 19.1811 7.59036 26.0523 20
497 1 25.6293 10.943 27.5132 17
498 1 13.4326 30.5247 33.5669 21
499 1 5.99036 13.6929 33.9705 16
500 1 27.7232 31.4154 29.6095 21
501 1 15.3039 25.2351 15.6647 20
502 1 14.1879 33.0166 9.39294 23
503 1 27.077 4.265 18.4722 22
504 1 23.5207 -0.467232 24.7828 20
505 1 7.22074 26.8504 11.3357 16
506 1 15.4457 3.10729 31.8484 19
507 1 26.0339 1.60391 38.2083 25
508 1 13.3061 19.1471 8.02521 19
509 1 6.5066 10.1617 13.1843 17
510 1 26.0172 3.82627 27.2734 20
511 1 24.9244 13.492 29.5821 16
512 1 7.74451 28.3719 18.0728 20
513 1 24.8186 12.5105 1.11614 19
514 1 7.97522 22.92 27.8623 19
515 1 11.3047 13.5812 29.8557 20
516 1 19.0787 4.45314 31.0787 20
517 1 14.2932 6.39122 32.5886 23
518 1 9.28981 2.22503 35.8863 20
519 1 12.9247 13.5276 16.0114 19
520 1 10.4275 13.7137 22.8453 20
521 1 21.0969 24.576 17.6394 21
522 1 20.7089 7.09675 23.3167 21
523 1 23.0444 13.9616 17.2124 21
524 1 14.1789 17.7462 12.7476 22
525 1 16.0122 14.97 4.84474 19
526 1 17.6408 14.1356 8.39687 19
527 1 11.9321 11.3476 32.7512 22
528 1 15.7316 24.4908 24.4774 19
529 1 30.347 13.8235 16.5727 20
530 1 30.513 19.5234 26.1535 23
531 1 10.339 19.2309 20.4099 22
532 1 12.6959 6.07481 26.598 16
533 1 8.13526 9.22556 27.2395 19
534 1 20.8362 12.5371 15.581 19
535 1 10.3728 33.8744 19.4437 19
536 1 16.4866 5.89393 24.0539 21
537 1 18.5928 20.2593 35.0393 20
538 1 16.2061 13.6504 25.4814 19
539 1 30.1302 23.1779 34.3408 20
540 1 22.3039 24.8276 32.8139 20
541 2 3.65856 2.53365 20.9179 20
542 2 24.8054 4.07943 18.0818 23
543 2 24.1912 27.9738 22.7973 17
544 2 7.56459 2.24564 10.7795 21
545 2 4.5978 7.69767 32.6141 23
546 2 4.59831 13.7484 16.5287 22
547 2 26.3786 2.20451 18.832 19
548 2 12.0784 7.57805 15.6218 21
549 2 1.41349 10.8567 27.4328 17
550 2 8.69969 23.1171 22.4877 24
551 2 7.1714 20.5861 23.8227 20
552 2 10.4962 1.90125 31.168 19
553 2 6.82285 21.1085 27.5481 21
554 2 21.9216 9.46347 35.2087 20
555 2 9.1262 32.8437 35.1991 17
556 2 16.66 26.6572 30.3597 24
557 2 22.6793 -0.0767733 22.9993 21
558 2 3.85723 15.9952 32.425 18
559 2 20.8544 33.4659 41.325 21
560 2 9.09671 0.49377 39.3849 23
561 2 7.81253 14.1327 15.5865 22
562 2 18.8563 33.1466 25.8498 18
563 2 8.04897 10.6896 15.936 20
564 2 6.24038 18.2307 23.6616 21
565 2 29.0767 28.063 12.5064 21
566 2 31.1671 8.84988 6.88801 18
567 2 26.9858 16.7281 32.4241 20
568 2 6.33642 27.565 9.59138 17
569 2 1.70539 30.3195 20.6142 25
570 2 29.8373 5.40462 20.299 21
571 2 30.1144 5.85515 14.6625 20
572 2 6.1106 5.02491 31.4091 21
573 2 1.20765 10.9326 24.6352 22
574 2 4.38285 12.8567 27.2152 18
575 2 22.2656 23.0917 35.0467 19
576 2 8.70261 10.8758 30.0053 22
577 2 9.10096 7.31872 24.8875 20
578 2 19.7851 10.0092 14.0532 19
579 2 9.31333 7.60278 28.1182 21
580 2 11.9548 17.8377 27.5027 17
581 2 16.5179 18.059 13.1587 20
582 2 10.7971 2.81779 17.9214 22
583 2 6.49825 13.9843 18.8957 21
584 2 30.2552 9.41267 22.1022 15
585 2 14.5577 10.2303 11.7081 20
586 2 32.058 10.6581 20.7614 18
587 2 31.4844 19.9854 31.6057 19
588 2 29.4282 21.1256 16.4615 18
589 2 22.9544 25.3087 26.1129 20
590 2 16.7757 0.236878 25.1013 19
591 2 19.6994 0.296364 23.9337 17
592 2 3.04534 25.7576 23.0289 23
593 2 14.8762 4.5372 33.3064 20
594 2 13.1264 30.4721 26.4652 18
595 2 31.7133 4.39127 25.9636 19
596 2 6.40778 23.2622 33.5608 18
597 2 2.94672 29.0407 17.6998 22
598 2 13.9997 25.0601 31.1928 21
599 2 6.78867 14.4299 32.1478 15
600 2 16.7582 32.5168 30.7393 21
601 2 17.6361 31.4721 22.2514 21
602 2 12.6224 12.0763 63.2404 21
603 2 18.1371 25.2905 21.5313 25
604 2 13.5583 4.67969 17.9441 20
605 2 6.43013 30.5061 12.458 17
606 2 3.88721 17.897 14.6189 20
607 2 10.1741 34.0122 0.959192 18
608 2 20.0678 11.0449 9.62423 16
609 2 13.157 1.57065 20.3081 21
610 2 31.3022 27.8384 20.0774 20
611 2 18.061 5.77288 62.3081 18
612 2 18.4455 31.8402 10.0041 21
613 2 29.0872 12.9596 17.986 17
614 2 4.07306 1.14252 31.9805 18
615 2 5.96862 9.736 27.9596 22
616 2 5.47585 12.3831 21.3727 21
617 2 14.4905 28.5977 31.3216 20
618 2 13.7808 10.0818 32.4259 23
619 2 21.8737 29.5023 33.7235 18
620 2 9.77394 2.54366 20.4591 18
621 2 23.9986 9.54764 17.8641 17
622 2 15.7747 8.24842 20.3931 17
623 2 17.7702 13.7557 18.1033 19
624 2 28.7428 33.5302 20.1082 24
625 2 11.7798 20.3136 17.9465 21
626 2 20.6368 26.8817 27.7601 22
627 2 4.05878 0.0826481 18.511 19
628 2 6.78865 14.7489 25.239 18
629 2 10.0018 28.3037 29.3457 16
630 2 2.1394 20.5112 18.7909 21
631 2 13.0858 6.66163 30.9864 22
632 2 4.49467 18.9045 29.0039 24
633 2 25.9652 1.82144 27.4829 17
634 2 17.1532 30.6264 34.1305 21
635 2 1.87657 5.08994 15.0006 20
636 2 2.35529 24.1075 17.9381 18
637 2 11.4428 9.27 29.8425 19
638 2 13.4472 6.74956 41.5108 19
639 2 12.0977 20.3868 29.579 19
640 2 9.7214 22.7407 34.7226 23
641 2 22.9794 31.0427 5.02029 19
642 2 27.3293 10.8828 16.7226 21
643 2 1.76245 9.13429 33.8478 23
644 2 7.85795 25.5257 6.59636 18
645 2 22.5498 10.0118 32.0849 18
646 2 14.6241 12.6954 13.5788 19
647 2 9.54644 32.4888 24.9494 20
648 2 20.0213 11.9909 12.0409 23
649 2 25.6981 20.4203 28.0187 23
650 2 22.0373 23.5323 15.9072 21
651 2 22.8051 1.91726 31.8943 20
652 2 14.2438 10.2949 18.8332 22
653 2 21.2585 2.40757 28.9688 18
654 2 6.76842 25.3103 23.7915 20
655 2 3.95132 17.4523 39.1068 20
656 2 3.59586 3.92576 17.973 19
657 2 7.90185 15.1647 27.5412 22
658 2 20.3178 2.90177 37.1682 19
659 2 21.8357 16.3477 28.4245 16
660 2 14.7323 25.8465 34.0271 20
661 2 11.11 0.26514 4.38952 15
662 2 23.6101 26.0449 11.894 21
663 2 21.8306 27.6716 9.71941 23
664 2 20.554 29.2075 25.9332 23
665 2 11.475 -0.271317 13.3794 25
666 2 7.33152 4.19708 22.3623 18
667 2 11.7751 4.2357 38.5727 19
668 2 8.33841 1.99987 27.6764 22
669 2 13.3576 0.573802 25.8206 23
670 2 15.144 30.5396 21.5528 21
671 2 2.43896 28.4666 25.4244 21
672 2 17.6671 3.04393 31.1205 18
673 2 7.60388 12.1237 26.8663 20
674 2 4.86467 3.29511 24.0507 22
675 2 17.027 22.9256 23.8643 18
676 2 8.74748 -0.0711738 29.7017 19
677 2 9.7514 2.96217 23.4018 17
678 2 15.9838 4.63563 35.5947 20
679 2 17.8905 -0.456438 30.2637 19
680 2 10.4094 3.98883 35.5499 21
681 2 7.63933 14.9783 7.02729 21
682 2 13.5754 13.4689 7.09171 20
683 2 3.44482 9.22632 15.2181 19
684 2 27.4444 17.5111 27.2443 22
685 2 17.6655 10.1419 23.1244 21
686 2 16.182 0.0585428 16.8651 17
687 2 2.9745 6.48848 5.91613 20
688 2 20.4153 3.50061 10.8542 23
689 2 19.0978 8.43966 16.7226 19
690 2 29.9773 -0.609669 31.2822 18
691 2 18.0253 32.6287 14.5172 23
692 2 15.2274 17.4999 26.1622 20
693 2 9.80556 23.1399 28.6385 20
694 2 13.5067 -0.67862 22.4611 19
695 2 4.48684 26.0777 37.132 22
696 2 2.00834 31.1717 16.8839 20
697 2 8.15463 4.02893 29.4398 18
698 2 14.7537 -0.275922 39.9633 19
699 2 18.357 6.12656 30.5078 23
700 2 16.8898 33.4541 28.3177 18
701 2 21.3936 17.3514 10.2837 19
702 2 24.0755 19.9711 5.93781 21
703 2 18.9419 18.8958 14.891 20
704 2 22.8569 4.09012 23.8474 20
705 2 21.3195 17.6982 14.3172 19
706 2 8.60438 6.01183 20.587 16
707 2 23.5178 10.308 23.2695 21
708 2 4.97297 23.3689 23.1089 20
709 2 6.36811 8.18701 13.2436 17
710 2 24.076 12.2455 16.2538 21
711 2 12.2138 18.2937 9.07266 20
712 2 30.4722 19.9037 13.3319 21
713 2 27.8153 7.65074 15.8619 21
714 2 7.78569 34.2745 26.9967 19
715 2 11.939 16.6921 30.483 18
716 2 28.6178 12.566 24.2737 18
717 2 7.49307 19.463 10.1686 20
718 2 27.5786 -0.572715 35.3199 16
719 2 8.66965 4.12201 25.5022 22
720 2 6.55251 17.1341 20.3628 19
721 1 28.8353 16.0507 7.90164 19
722 1 18.864 21.5408 12.4842 21
723 1 13.5459 13.7403 0.451195 20
724 1 10.0684 9.49124 1.46013 16
725 1 13.5867 15.3568 58.986 24
726 1 12.1168 6.22902 20.6343 21
727 1 15.0658 8.03797 15.7067 20
728 1 3.03118 13.9564 6.09394 24
729 1 2.94447 32.3679 10.6321 21
730 1 7.95597 9.75634 6.28132 20
731 1 30.2332 26.0195 6.37224 19
732 1 6.93135 16.2429 18.755 22
733 1 9.98831 6.12018 16.0058 18
734 1 23.1118 6.49834 59.5871 20
735 1 22.7147 23.6735 10.4849 23
736 1 3.91851 26.9403 6.89935 20
737 1 4.9726 18.8838 7.38178 23
738 1 6.20127 -0.0849379 22.2299 22
739 1 30.5624 11.3174 0.93648 17
740 1 5.54719 15.6222 11.1202 21
741 1 25.6674 26.5101 66.0522 21
742 1 30.0433 25.4436 3.43626 23
743 1 29.1133 0.222091 6.83273 20
744 1 7.65916 26.7059 22.3488 20
745 1 5.05603 30.9257 64.4195 22
746 1 4.29247 22.3063 65.0889 19
747 1 3.91619 23.7769 9.25364 18
748 1 6.27367 18.294 13.3067 20
749 1 28.0658 18.6886 21.1492 22
750 1 7.83757 29.1013 9.47333 20
751 1 16.0016 33.8225 17.732 24
752 1 11.0202 16.6731 4.43779 21
753 1 29.4173 13.1149 6.88947 19
754 1 24.8101 21.2405 10.2984 19
755 1 6.61215 5.624 21.8182 20
756 1 11.895 33.6992 11.739 21
757 1 13.2769 14.1508 13.1447 20
758 1 3.32627 23.741 6.34845 22
759 1 28.2811 24.7786 18.9953 21
760 1 30.0104 25.795 22.6124 18
761 1 2.29736 28.4032 63.0661 22
762 1 30.2102 2.04913 0.00258394 19
763 1 9.64955 26.0615 7.00456 23
764 1 27.342 23.3454 10.8835 20
765 1 10.1573 25.6064 10.5204 24
766 1 27.7397 30.9733 2.15105 19
767 1 22.2879 27.6461 61.197 22
768 1 2.51867 22.7694 1.11387 20
769 1 8.18503 31.8819 8.64644 20
770 1 29.0696 33.4703 2.90443 19
771 1 30.9099 26.0341 14.4297 20
772 1 10.2955 12.5716 19.6919 23
773 1 6.70502 0.487838 -0.222249 17
774 1 6.93682 30.5566 15.334 20
775 1 28.9214 28.3114 5.12887 20
776 1 16.4225 6.8242 9.28119 18
777 1 31.1453 22.5915 11.0722 24
778 1 5.70189 29.3589 22.9908 20
779 1 16.8284 3.43397 29.2812 21
780 1 12.6902 0.443676 18.6637 19
781 1 23.0137 16.3521 0.101678 19
782 1 16.6216 30.851 10.1483 20
783 1 15.0349 31.7778 15.5462 21
784 1 8.7538 24.4237 4.82118 17
785 1 5.59705 13.1441 3.15312 22
786 1 25.2237 25.8368 9.28655 21
787 1 14.3505 22.1634 9.22358 20
788 1 20.3661 19.3357 13.9068 20
789 1 14.0261 17.9071 5.6267 20
790 1 24.4409 16.3306 14.6894 18
791 1 21.9044 11.0946 9.50908 20
792 1 16.7475 32.0906 13.4804 22
793 1 25.0494 24.9346 12.206 24
794 1 10.112 27.491 20.2049 19
795 1 3.41914 15.5968 8.28976 20
796 1 21.8102 7.15328 20.3818 19
797 1 17.6637 0.993485 8.22809 25
798 1 22.4716 24.4949 7.46619 23
799 1 25.6531 16.9029 20.9088 15
800 1 2.48956 10.5273 4.44882 18
801 1 27.6362 26.5808 8.35085 23
802 1 7.56813 18.6245 62.2922 22
803 1 3.00501 31.9878 15.1779 19
804 1 15.4444 30.9157 61.3188 19
805 1 23.3115 33.1385 18.2119 19
806 1 7.66509 33.2237 6.39566 20
807 1 8.08943 30.4741 59.7696 20
808 1 19.191 31.4356 11.8899 22
809 1 3.45851 21.3797 6.78388 19
810 1 14.7767 30.7169 6.5172 20
811 1 19.0308 19.7952 16.7102 21
812 1 32.4354 20.4383 12.9216 22
813 1 6.29392 26.1535 4.30968 18
814 1 22.1077 18.7002 16.4835 20
815 1 30.783 1.2858 13.8948 18
816 1 11.1913 31.391 9.28278 21
817 1 9.19963 19.1042 0.0811172 20
818 1 13.2493 23.9823 0.250886 22
819 1 16.7702 17.8882 21.7669 18
820 1 16.2537 16.0487 27.2887 25
821 1 8.4095 12.0649 8.30697 21
822 1 14.5747 31.1143 11.4659 19
823 1 7.06722 26.4658 8.47051 21
824 1 18.8055 6.59067 63.8382 19
825 1 11.4735 0.975828 6.44701 19
826 1 6.22459 31.6913 11.0866 17
827 1 19.057 28.6793 16.7898 23
828 1 15.9742 24.7616 63.7518 22
829 1 17.5042 16.9852 18.5678 20
830 1 1.69525 26.2082 4.46872 21
831 1 5.77594 21.7485 9.0166 21
832 1 8.75527 33.9202 13.7249 19
833 1 13.2978 33.1673 6.30528 20
834 1 12.4282 19.6128 11.0221 15
835 1 4.4488 30.0552 13.153 17
836 1 30.507 10.8412 9.48557 18
837 1 30.3145 28.4973 2.41299 22
838 1 9.69191 14.69 7.29109 19
839 1 9.0585 30.4526 6.39356 21
840 1 15.3971 28.4113 12.5617 19
841 1 12.1039 27.6279 64.6276 21
842 1 11.0122 29.032 1.29704 21
843 1 13.8757 29.5749 8.45993 22
844 1 21.6604 3.45526 -0.0375227 22
845 1 15.8907 32.114 21.1386 17
846 1 10.0856 18.9835 5.36805 19
847 1 21.3749 10.8177 1.22666 19
848 1 22.9751 19.7314 4.46799 17
849 1 2.16984 21.6475 62.6077 19
850 1 23.2714 21.0991 2.04468 17
851 1 24.9079 15.4221 7.55431 20
852 1 25.4842 11.1433 16.2333 21
853 1 19.917 23.8689 6.24829 19
854 1 17.4323 22.2777 16.6597 21
855 1 28.6172 21.4508 18.7639 22
856 1 26.4935 1.47775 5.45981 20
857 1 12.7182 30.0499 3.7599 20
858 1 19.8114 33.43 2.39068 20
859 1 5.52728 23.8318 0.511002 24
860 1 5.82444 21.9979 23.9096 21
861 1 22.0072 34.1403 14.024 18
862 1 7.63258 33.4706 64.2223 20
863 1 4.83092 19.7394 63.214 18
864 1 22.0473 30.7926 12.7846 20
865 1 12.3653 26.7394 8.38142 24
866 1 3.96793 1.14651 5.08716 20
867 1 24.4274 13.2226 5.12519 22
868 1 17.5188 33.0644 -0.0482795 20
869 1 20.1536 18.9123 6.94151 20
870 1 15.8693 29.6338 64.7067 20
871 1 14.0808 33.6003 20.5503 22
872 1 15.6868 28.9717 3.45432 18
873 1 25.9873 30.4996 4.8378 17
874 1 16.971 27.8928 19.159 22
875 1 7.68919 25.4078 19.0212 22
876 1 20.9974 24.6267 20.3307 21
877 1 9.74377 23.9066 20.8118 21
878 1 6.7721 3.58842 30.316 21
879 1 8.85355 21.7366 6.5564 23
880 1 14.9463 27.9019 6.03767 23
881 1 13.3108 32.7089 2.86134 18
882 1 21.7455 1.44468 12.1627 18
883 1 18.7106 3.96995 65.4937 23
884 1 23.4834 1.97475 3.79988 19
885 1 25.0726 3.47713 1.6956 19
886 1 17.7602 28.6953 7.60153 20
887 1 7.40788 30.2902 3.03235 22
888 1 32.1039 24.7536 7.83457 19
889 1 15.7205 0.240784 6.13973 21
890 1 13.6901 5.59993 14.2737 21
891 1 3.38434 23.8196 60.5609 19
892 1 19.4299 21.9266 19.094 21
893 1 12.1762 10.7357 4.00179 21
894 1 4.91328 4.36154 7.03186 20
895 1 6.90795 1.13668 17.7407 19
896 1 12.5898 15.5547 6.1852 21
897 1 11.4351 32.1166 23.6393 20
898 1 15.2242 9.73454 9.96573 21
899 1 4.74997 32.4825 21.1773 21
900 1 17.8003 21.1548 4.94192 23
901 2 28.5651 29.6276 8.13007 19
902 2 30.2035 18.2708 56.0308 19
903 2 6.8728 30.1842 5.82241 22
904 2 32.0045 11.4576 54.8823 18
905 2 26.5372 21.5934 5.19337 23
906 2 23.8894 12.2068 64.3647 20
907 2 11.5261 10.7775 21.3547 21
908 2 31.2487 20.3331 65.4683 22
909 2 29.9248 3.63284 60.1716 18
910 2 32.0453 6.76913 1.96125 21