ITEM: TIMESTEP
439000
ITEM: NUMBER OF ATOMS
5760
ITEM: BOX BOUNDS pp pp pp
0.5312991975 33.1287008025
-1.5353237394 35.1953237394
1.991189199 63.808810801
ITEM: ATOMS id type x y z Coordination
1 1 18.209 28.3086 21.7124 20
2 1 4.04541 5.02191 50.5823 24
3 1 7.33505 15.9793 7.87048 20
4 1 32.68 15.8541 46.8687 23
5 1 26.1993 22.9579 49.3807 22
6 1 2.60324 19.4877 58.9966 21
7 1 28.9503 10.6553 58.2946 21
8 1 3.70258 23.9545 37.9938 19
9 1 15.2594 13.7078 25.8191 21
10 1 24.115 27.8126 49.7428 21
11 1 31.1591 26.4196 28.4546 18
12 1 4.62288 34.4216 3.6293 23
13 1 26.7939 9.15678 49.5457 17
14 1 8.75708 29.9366 7.08486 22
15 1 1.1716 20.1117 44.0679 19
16 1 14.2524 21.475 21.971 20
17 1 7.25029 -0.997592 22.3513 23
18 1 5.14108 11.9852 12.7675 20
19 1 2.64433 27.584 11.6421 20
20 1 7.76062 27.7919 27.5685 18
21 1 20.9008 27.261 28.8897 20
22 1 26.5038 6.97345 4.29076 20
23 1 12.5057 18.0471 8.23562 17
24 1 2.36922 6.93803 2.995 21
25 1 17.451 2.42171 54.684 21
26 1 9.19716 32.4015 16.3716 19
27 1 29.4554 25.0988 33.6141 21
28 1 2.58142 6.68651 53.3295 23
29 1 20.0367 24.7336 9.33996 23
30 1 21.1628 31.4937 54.4028 21
31 1 20.3076 30.3337 51.3896 21
32 1 26.0052 12.3548 6.34721 23
33 1 12.2217 26.5068 24.7594 20
34 1 31.5397 15.8575 11.4598 23
35 1 31.3281 24.5804 14.2517 22
36 1 3.22228 23.1044 44.7229 20
37 1 1.80174 24.1102 16.816 19
38 1 1.81169 0.250498 42.198 21
39 1 23.2425 4.82547 25.5735 21
40 1 3.283 16.817 7.04829 21
41 1 1.40387 0.70654 47.2273 19
42 1 14.8848 7.33442 62.5433 18
43 1 30.476 28.7512 58.6324 21
44 1 20.2103 5.13771 34.3864 20
45 1 31.1366 7.10497 48.2807 23
46 1 5.61117 10.046 6.04092 20
47 1 32.916 21.8647 17.094 21
48 1 2.84364 13.9486 13.1187 23
49 1 19.0731 35.1314 24.7621 26
50 1 6.48034 10.8497 53.5853 22
51 1 16.8548 26.0323 6.2542 21
52 1 11.2728 14.4036 44.2658 20
53 1 8.03468 17.9433 13.1332 21
54 1 0.745983 6.35785 18.2926 15
55 1 20.3956 -0.882854 15.9447 20
56 1 18.1287 22.4136 51.4604 17
57 1 27.9369 18.3083 44.4857 21
58 1 27.9424 10.2031 5.38175 21
59 1 18.3912 12.0856 25.7908 19
60 1 30.0548 15.7985 8.29138 22
61 1 19.5872 34.256 12.891 18
62 1 18.1786 23.8256 8.04139 18
63 1 5.69878 32.1027 54.6163 20
64 1 16.1946 12.4818 37.7429 22
65 1 16.7694 -0.498482 34.6082 18
66 1 32.4302 32.833 50.1955 17
67 1 25.2548 8.71038 53.2377 19
68 1 1.89419 22.3361 42.3788 20
69 1 33.0631 9.04463 4.81508 21
70 1 7.77199 11.932 18.2463 19
71 1 28.8261 8.65349 10.3921 20
72 1 28.6939 5.88081 28.8111 19
73 1 8.67669 30.1225 37.9077 21
74 1 5.84799 19.642 62.9492 22
75 1 11.4443 10.1525 32.2154 19
76 1 1.83596 18.7699 30.8534 22
77 1 5.71235 29.8883 22.61 18
78 1 20.3668 23.3634 20.3591 22
79 1 27.0275 3.02945 5.82481 21
80 1 28.1033 2.51814 12.5023 21
81 1 20.7442 32.0822 59.9349 21
82 1 10.5711 23.2714 15.9835 23
83 1 7.98659 28.5502 34.579 18
84 1 20.7356 30.8472 7.85439 22
85 1 10.5548 18.6287 13.2005 23
86 1 29.2243 1.55717 43.5697 17
87 1 23.6295 19.5653 20.8627 22
88 1 23.4343 -1.53241 4.28109 24
89 1 3.80354 -1.05619 6.80624 20
90 1 3.11225 31.1853 12.3964 18
91 1 4.80077 -0.151122 32.9008 23
92 1 24.867 14.2226 54.2112 20
93 1 30.0047 16.6182 30.7471 19
94 1 30.0568 32.1511 36.305 20
95 1 1.51804 30.5869 26.9305 20
96 1 29.2492 31.4774 62.9856 19
97 1 21.3413 -1.10065 63.4157 23
98 1 29.9201 24.9939 44.8804 21
99 1 12.8237 20.3089 11.7197 16
100 1 30.2057 2.65993 55.5372 20
101 1 1.13935 17.346 4.60569 22
102 1 6.69873 34.19 33.3108 22
103 1 26.1902 8.01347 7.07971 22
104 1 14.9846 28.8973 7.08381 21
105 1 23.6967 0.915642 2.39082 22
106 1 13.7902 34.1565 45.8634 21
107 1 24.9912 6.81412 20.558 18
108 1 2.56197 21.9273 56.0821 21
109 1 17.6192 22.9226 27.3004 20
110 1 29.6758 30.7102 10.812 19
111 1 5.53227 3.01517 4.33018 20
112 1 12.7865 11.7073 22.5869 22
113 1 11.061 21.0783 33.812 21
114 1 23.1153 33.3048 60.719 22
115 1 17.7059 30.8347 7.76498 16
116 1 31.1302 17.6039 15.7287 18
117 1 20.3061 21.7555 44.9476 20
118 1 13.0984 4.10757 54.0074 20
119 1 27.5613 29.8216 15.8095 20
120 1 27.8318 10.4767 8.31391 23
121 1 11.8511 31.5492 18.9056 21
122 1 31.0374 21.8882 52.1869 22
123 1 7.26877 25.4152 63.5481 20
124 1 22.8087 13.0 23.8266 18
125 1 20.205 14.1604 26.7434 21
126 1 9.98105 13.6216 22.9558 18
127 1 2.0892 4.23786 9.05777 21
128 1 15.3791 1.63124 7.27886 20
129 1 9.61582 10.0553 6.4657 18
130 1 3.11777 29.3404 31.3954 20
131 1 26.1183 26.2428 39.6566 20
132 1 26.0664 1.13669 49.3528 21
133 1 12.4623 25.7499 11.1229 20
134 1 16.686 33.7735 33.6769 18
135 1 24.238 0.716721 20.8119 21
136 1 17.1653 15.5391 18.0436 18
137 1 27.9964 14.9089 5.54193 23
138 1 8.57666 33.4854 22.2408 21
139 1 16.1548 3.78631 2.60576 20
140 1 13.053 32.063 43.9645 20
141 1 15.6611 17.6763 9.56003 21
142 1 8.73991 6.56533 55.3967 20
143 1 15.3193 22.837 38.7068 21
144 1 24.8648 17.9562 25.252 22
145 1 16.6704 35.1926 12.8488 19
146 1 19.6361 8.57394 30.0459 20
147 1 22.4933 18.5633 56.757 18
148 1 28.9309 13.8801 19.6997 19
149 1 26.9914 -0.515904 40.8387 19
150 1 8.76145 3.33775 17.8789 19
151 1 12.1606 -0.204744 8.98317 19
152 1 19.9062 -0.86945 56.8722 19
153 1 25.3819 15.8944 51.4618 19
154 1 31.8437 7.97492 8.13467 24
155 1 24.4305 32.7274 58.6335 19
156 1 20.7302 -1.29989 5.64539 19
157 1 4.26826 33.1049 38.9673 21
158 1 0.727705 32.3104 14.4774 20
159 1 12.4571 31.116 26.8391 17
160 1 22.4401 25.9151 11.7832 20
161 1 27.289 0.226079 21.2655 20
162 1 12.7164 33.6488 20.5182 21
163 1 22.5247 10.6767 43.2393 20
164 1 27.2357 29.9089 63.671 22
165 1 16.77 9.58924 63.2491 18
166 1 0.849355 26.1321 7.55995 23
167 1 19.7475 26.6435 23.867 24
168 1 3.64662 23.3238 29.332 21
169 1 20.5043 17.6829 44.4261 21
170 1 20.1992 25.5203 34.5401 21
171 1 18.2824 10.4779 9.98998 16
172 1 12.5442 22.8569 9.77649 20
173 1 2.33141 24.6152 10.9395 18
174 1 17.5788 34.8241 9.21261 18
175 1 7.92572 28.2534 63.6782 18
176 1 2.68756 17.3135 48.386 25
177 1 7.36721 34.5444 41.1999 19
178 1 27.6542 5.87627 11.2858 20
179 1 22.6995 21.588 57.6718 17
180 1 22.7938 13.5307 43.1926 23
181 2 26.4588 10.8044 51.0795 20
182 2 25.8199 33.2354 56.4278 23
183 2 24.2699 17.556 4.53141 19
184 2 10.2053 0.460216 61.7163 23
185 2 19.2785 10.588 48.7426 22
186 2 20.8538 20.2421 7.93897 19
187 2 3.84925 32.2332 42.8353 25
188 2 32.5974 12.1976 51.4066 17
189 2 28.7495 21.7201 12.315 21
190 2 25.1657 27.5625 53.8375 22
191 2 32.7466 3.56382 2.58765 18
192 2 7.91123 32.5693 47.698 24
193 2 32.0405 14.8534 14.1404 23
194 2 24.5092 6.36114 4.17403 22
195 2 9.97401 16.9062 54.9516 21
196 2 31.4783 31.9517 16.4262 21
197 2 32.4827 32.8471 2.34289 20
198 2 15.8529 8.37657 24.1978 17
199 2 27.3692 24.9398 30.3799 22
200 2 12.0403 0.177865 11.0403 24
201 2 32.8399 7.56806 57.8271 20
202 2 1.45395 33.309 44.5841 20
203 2 32.6346 8.32989 46.8123 21
204 2 18.9357 15.9149 57.2833 20
205 2 6.33656 2.63663 54.4154 20
206 2 12.8261 2.69579 61.1953 22
207 2 19.593 11.0875 39.4689 21
208 2 32.9013 31.0685 50.7455 17
209 2 9.9497 2.50838 58.8443 23
210 2 14.7413 17.5719 23.775 15
211 2 16.4103 0.266354 14.8228 18
212 2 3.02426 10.7834 41.8952 21
213 2 11.8082 18.8155 10.1603 18
214 2 27.5878 17.5403 12.4987 20
215 2 16.7698 13.2243 24.4478 21
216 2 30.5986 23.0966 59.6447 18
217 2 13.8573 17.8771 46.5307 20
218 2 22.7705 18.4953 14.5991 21
219 2 5.899 30.2218 19.0958 22
220 2 8.785 1.4541 47.949 20
221 2 7.55809 10.019 18.4086 19
222 2 1.55103 1.79318 4.84895 23
223 2 20.5955 21.9618 52.7192 19
224 2 0.963788 5.18462 22.1459 20
225 2 30.7375 10.4737 21.641 19
226 2 8.11951 4.39567 29.5907 20
227 2 13.2162 2.41899 27.2251 22
228 2 31.8885 18.5015 39.427 18
229 2 4.50187 19.3437 23.8727 18
230 2 28.4403 3.57288 63.628 21
231 2 13.7138 15.3249 4.08958 22
232 2 31.1077 10.5621 17.0767 19
233 2 12.5093 5.92595 12.3714 23
234 2 27.7071 23.7573 14.9315 20
235 2 10.5053 5.60519 14.5937 22
236 2 1.25045 -0.711661 7.5908 22
237 2 22.6159 -0.298046 5.46222 22
238 2 20.7577 23.2044 34.5933 14
239 2 27.8234 16.4123 15.8674 21
240 2 24.9178 14.0189 8.73374 17
241 2 19.1252 13.8826 40.395 20
242 2 27.5488 8.80754 34.4811 22
243 2 11.669 9.80713 42.6 22
244 2 1.18746 14.0166 38.5283 16
245 2 11.0444 21.8203 57.571 15
246 2 24.8101 3.26851 46.4704 21
247 2 21.3559 30.5327 34.0022 24
248 2 22.3116 3.57151 13.5102 20
249 2 1.64759 29.979 43.6768 20
250 2 18.0321 15.1858 19.5748 17
251 2 6.23188 6.87352 9.87311 18
252 2 26.1154 2.91161 54.1219 17
253 2 11.0564 32.4167 9.75592 22
254 2 23.1269 2.49215 20.9981 19
255 2 9.68273 23.5313 49.303 18
256 2 28.4684 19.4179 28.1939 20
257 2 27.9509 23.8384 2.06469 17
258 2 32.2203 22.6858 22.6868 19
259 2 14.1387 16.9146 38.8692 24
260 2 18.8811 7.16263 43.8084 16
261 2 25.665 1.83834 20.7668 22
262 2 26.2556 -1.46931 62.6665 21
263 2 25.7832 16.7157 2.14953 21
264 2 16.6192 13.2575 39.7316 20
265 2 7.43184 6.806 16.0806 21
266 2 31.8266 31.0394 45.3523 20
267 2 10.3104 21.0186 50.3718 21
268 2 1.90334 13.1753 5.50872 21
269 2 30.2228 20.1501 52.3449 19
270 2 12.11 8.53379 13.2983 22
271 2 0.985698 32.851 9.19702 21
272 2 2.2264 35.1439 31.1678 20
273 2 19.9531 13.4315 3.10926 18
274 2 21.1993 17.8092 35.3222 20
275 2 29.8834 32.5394 9.35982 18
276 2 8.51727 3.97423 52.2074 20
277 2 6.82771 1.74692 5.20208 24
278 2 24.4944 8.21661 57.6963 20
279 2 27.326 27.9274 63.8038 21
280 2 29.0894 22.9312 40.3803 17
281 2 2.8538 29.8741 59.1196 21
282 2 11.2549 25.0291 63.58 20
283 2 19.0446 22.0116 55.4177 18
284 2 10.7303 30.118 11.9677 21
285 2 29.4499 31.3709 34.5406 21
286 2 29.4401 34.9809 57.3902 22
287 2 9.0028 23.8683 14.6168 26
288 2 13.6912 27.5042 52.4787 19
289 2 27.8424 12.8886 6.08536 21
290 2 10.1218 7.38651 17.5392 23
291 2 28.7824 1.58343 10.444 19
292 2 11.2173 -1.11762 54.3462 19
293 2 9.28648 -1.22716 11.8891 22
294 2 27.0902 20.9962 34.7885 22
295 2 5.33728 10.8198 52.1595 21
296 2 21.3801 25.7626 58.77 23
297 2 19.1976 32.6899 18.821 21
298 2 23.0889 21.8033 40.2096 23
299 2 24.1736 20.4154 19.0132 20
300 2 9.47459 22.0558 8.68371 20
301 2 18.7011 14.7152 43.5539 20
302 2 8.05247 26.4915 21.4975 21
303 2 18.476 13.0459 59.5889 20
304 2 24.2948 12.5885 55.0421 24
305 2 5.48515 9.87456 54.7982 22
306 2 4.35739 9.55439 62.7083 20
307 2 30.7246 25.5269 5.12561 18
308 2 4.81079 24.2934 27.8379 23
309 2 18.6772 32.6444 3.97565 19
310 2 4.19426 1.99086 12.9928 21
311 2 22.3054 19.3628 2.69297 21
312 2 18.745 27.763 24.8964 22
313 2 2.62167 24.4026 50.4688 17
314 2 14.8038 10.9605 22.9048 21
315 2 29.4012 5.5396 24.667 17
316 2 27.906 15.1663 53.4556 15
317 2 4.32654 25.1223 30.6039 18
318 2 17.0957 13.1632 50.1202 22
319 2 13.8278 11.2361 7.77886 18
320 2 26.2573 6.86142 12.3797 21
321 2 14.3221 8.07537 10.4013 24
322 2 16.9431 25.7214 27.7567 21
323 2 4.75708 15.7282 40.8622 21
324 2 16.9319 0.560271 53.8478 18
325 2 7.23849 3.90273 18.7798 21
326 2 27.7587 15.7967 7.3972 22
327 2 24.2512 21.9888 25.8864 20
328 2 9.50053 11.3354 22.5156 20
329 2 22.6752 16.7973 57.4256 20
330 2 4.5851 1.39682 4.18723 20
331 2 16.7949 -1.53302 40.8198 21
332 2 22.1679 25.108 15.9017 19
333 2 10.9617 1.23528 8.91088 17
334 2 21.3509 25.5349 29.7339 20
335 2 11.3572 18.9167 2.37366 18
336 2 30.3473 3.04148 14.5789 22
337 2 30.3413 26.0136 62.4825 15
338 2 9.36572 17.4246 34.6742 20
339 2 18.6678 -1.52949 16.5777 18
340 2 10.9125 12.6498 43.1904 23
341 2 20.3982 33.1758 5.85141 20
342 2 3.47386 31.1941 17.921 19
343 2 8.07175 20.2151 15.8385 22
344 2 16.0296 1.92568 61.1135 19
345 2 27.4857 20.896 26.2448 23
346 2 27.7746 28.0594 46.4644 20
347 2 13.7436 10.5814 4.54829 19
348 2 1.96288 8.86459 13.7903 16
349 2 20.4849 -1.34253 3.48533 23
350 2 15.2544 6.445 13.5503 19
351 2 11.078 16.3054 33.0489 17
352 2 18.3828 6.02228 53.2059 17
353 2 1.24496 5.11952 29.2196 21
354 2 6.21165 28.5508 26.8992 19
355 2 27.5033 13.279 23.979 18
356 2 3.8612 14.0369 20.635 21
357 2 8.39049 16.0188 60.3966 18
358 2 4.24937 18.3372 43.9381 22
359 2 31.4228 25.9647 26.5508 19
360 2 27.4155 0.218057 23.0039 20
361 1 10.5496 16.2492 31.1049 20
362 1 4.78879 13.8323 29.1278 20
363 1 22.0164 32.5615 41.0883 19
364 1 2.55957 34.5178 24.7525 19
365 1 28.0722 3.10971 49.1341 20
366 1 4.83437 21.5556 36.7134 17
367 1 4.67417 9.3983 26.3564 19
368 1 20.4946 -1.34819 38.9754 17
369 1 10.4915 15.6468 39.3463 22
370 1 6.29547 5.15232 35.9204 19
371 1 13.4739 3.64939 44.4393 21
372 1 21.5279 3.12175 36.4713 20
373 1 32.3243 32.7026 59.5292 16
374 1 4.16795 30.6253 19.7346 22
375 1 11.0308 29.9174 15.9227 21
376 1 2.73627 19.657 33.8244 21
377 1 9.67049 0.885458 35.8552 21
378 1 11.6819 8.55072 26.8834 19
379 1 2.03897 14.8785 20.9987 20
380 1 11.1248 34.1639 51.5664 22
381 1 24.6331 30.9676 43.1991 20
382 1 28.2839 25.2357 16.1142 24
383 1 5.1971 10.2681 8.74932 20
384 1 13.3923 7.01711 13.9806 20
385 1 8.04719 14.9507 10.5838 22
386 1 2.25885 33.2578 20.4761 19
387 1 12.6018 17.8413 48.2463 22
388 1 30.0361 20.5027 16.7145 23
389 1 28.9303 30.7108 32.7115 22
390 1 24.9635 27.4662 10.6008 19
391 1 17.0746 30.7175 22.3069 20
392 1 16.1588 30.6999 17.4789 20
393 1 15.5222 34.6405 56.6648 21
394 1 30.8949 5.17422 62.18 19
395 1 32.2042 2.09101 63.4089 18
396 1 21.2382 20.9843 9.75369 21
397 1 18.7623 32.1568 24.5878 21
398 1 25.9142 16.7878 15.9723 22
399 1 20.3698 14.6569 29.7463 21
400 1 21.4898 27.9584 58.3908 22
401 1 24.6158 28.5205 3.51948 22
402 1 2.78859 22.6009 26.2473 21
403 1 26.1634 15.6011 27.7004 21
404 1 25.7216 18.9054 50.2771 17
405 1 12.6367 27.5404 61.0383 19
406 1 31.8633 17.2119 62.283 19
407 1 30.1774 3.44833 37.4819 21
408 1 19.8229 5.24521 27.0218 19
409 1 12.9865 22.3871 37.2311 22
410 1 27.0416 24.6954 44.3437 19
411 1 15.9191 11.1354 57.3662 21
412 1 16.7819 21.4289 16.1656 20
413 1 18.0762 4.56191 15.7283 21
414 1 30.5848 10.3677 23.5251 19
415 1 13.5119 14.2404 53.3579 20
416 1 10.6702 17.9096 38.9913 20
417 1 29.5117 13.138 59.4122 17
418 1 18.6234 26.176 2.28896 23
419 1 13.3194 9.84026 35.3263 18
420 1 25.8541 11.1906 47.5932 21
421 1 2.93115 30.6462 5.7228 21
422 1 11.9251 7.51685 18.151 18
423 1 8.24473 16.9519 21.338 19
424 1 22.7453 0.685693 15.7234 22
425 1 29.1482 34.4789 39.1806 22
426 1 1.61044 12.3213 63.6588 20
427 1 5.10307 1.78046 55.7656 21
428 1 33.0916 27.4828 16.4461 20
429 1 18.2526 14.0969 23.7894 18
430 1 17.3789 32.2257 29.8833 20
431 1 28.3198 13.2878 35.3759 24
432 1 6.15586 10.6859 63.8021 21
433 1 25.2569 34.1086 28.0317 21
434 1 27.7565 2.74787 52.2659 21
435 1 32.977 4.65415 36.5882 17
436 1 6.59976 21.3071 28.9578 21
437 1 3.32307 9.20108 53.7494 22
438 1 23.9132 3.99243 48.2086 18
439 1 17.2511 34.6828 37.4869 22
440 1 23.0867 15.3844 61.3737 21
441 1 11.0541 20.4636 36.6777 23
442 1 13.2168 21.6733 24.25 21
443 1 2.55592 8.29986 60.9407 24
444 1 25.9441 6.26437 46.1421 19
445 1 30.8096 13.5887 29.7568 23
446 1 6.04964 33.0576 15.0003 18
447 1 9.42423 34.216 31.4728 23
448 1 31.1907 19.2307 6.32384 21
449 1 19.5939 13.7047 36.5857 23
450 1 20.2552 19.4606 21.5354 17
451 1 21.3029 21.1601 30.7287 20
452 1 32.2442 19.3892 2.81297 18
453 1 6.0189 13.4295 57.1239 18
454 1 15.9081 2.03586 34.7884 21
455 1 32.8108 10.648 61.497 18
456 1 1.76281 19.9007 6.18981 20
457 1 25.3727 16.9265 19.6696 18
458 1 18.3782 25.6099 12.3374 22
459 1 1.60418 7.03371 21.6614 21
460 1 8.32167 8.08815 53.0365 20
461 1 22.1025 7.125 20.3251 21
462 1 28.3722 2.9875 27.8272 20
463 1 8.76826 23.7615 26.9554 20
464 1 9.03293 21.0705 51.9526 23
465 1 21.3175 8.89463 16.6067 19
466 1 20.4581 18.5739 40.6591 19
467 1 7.41413 20.1352 26.7441 20
468 1 18.5368 32.0841 62.8711 21
469 1 14.8095 25.1879 18.9697 22
470 1 6.93942 32.887 25.2726 23
471 1 6.56043 13.1806 43.0617 22
472 1 12.9776 21.3292 30.8523 20
473 1 27.5238 33.0394 14.5424 20
474 1 15.9599 13.2155 16.6016 17
475 1 16.1061 14.3181 51.2287 23
476 1 22.2878 8.18436 41.7412 19
477 1 19.2644 1.90346 34.2365 23
478 1 5.55402 13.4135 20.9323 21
479 1 13.5313 31.154 15.29 19
480 1 25.2822 21.2486 2.95843 19
481 1 29.9928 28.7566 18.0509 22
482 1 22.6466 14.1634 12.0239 19
483 1 0.809304 22.1798 30.9483 22
484 1 23.8763 26.3781 27.206 22
485 1 18.0921 4.57842 23.7765 23
486 1 22.7202 33.1527 6.51864 22
487 1 12.2065 28.926 6.71008 17
488 1 20.8786 33.4634 50.5667 20
489 1 30.2144 4.95324 54.3829 20
490 1 8.87795 11.5675 63.7328 18
491 1 30.7734 10.4986 8.55744 22
492 1 18.9683 2.92999 29.0747 25
493 1 3.21381 12.0668 22.3506 21
494 1 18.281 31.3875 10.961 19
495 1 21.1215 33.3985 3.82558 21
496 1 32.9338 20.7689 36.0585 19
497 1 4.58559 21.3059 31.4416 22
498 1 26.5358 2.18541 18.8336 24
499 1 15.5077 16.6638 28.0617 22
500 1 21.4687 29.6908 3.67234 20
501 1 10.7123 16.2006 9.45088 18
502 1 7.04528 30.1451 31.6268 20
503 1 22.8573 17.8858 23.225 21
504 1 8.24401 19.9912 35.1052 19
505 1 23.3363 0.632175 60.7459 23
506 1 11.3952 6.31486 32.4309 20
507 1 31.4457 26.6785 34.8688 23
508 1 29.6551 6.09097 9.0489 20
509 1 3.75499 26.8488 48.8763 18
510 1 15.7258 32.2375 44.8961 21
511 1 12.171 23.6963 31.111 24
512 1 31.3112 28.2115 56.0093 17
513 1 12.7449 30.1739 58.7694 24
514 1 6.5017 2.83555 10.2031 23
515 1 25.4612 -0.0243362 44.174 20
516 1 12.7859 4.05436 25.7187 18
517 1 7.20579 5.27873 45.4232 17
518 1 10.4861 2.69292 20.7244 19
519 1 8.64589 9.544 61.2273 23
520 1 10.5922 35.1392 38.5906 20
521 1 25.3939 -0.101564 13.3916 23
522 1 7.55364 24.993 23.8655 21
523 1 18.0629 21.6074 21.9733 22
524 1 25.5824 -1.35129 59.7414 18
525 1 8.16087 1.82548 23.6438 21
526 1 30.9567 17.9306 18.8043 22
527 1 10.4646 26.4448 40.7705 17
528 1 12.1032 9.61722 52.2261 19
529 1 20.749 9.58503 8.26946 19
530 1 30.5456 14.8714 23.2751 18
531 1 3.4582 8.38884 12.7858 18
532 1 15.9999 28.6903 48.0622 22
533 1 17.8462 28.5843 58.8922 25
534 1 5.66224 2.56992 58.6965 19
535 1 28.5666 21.6353 44.3944 21
536 1 10.5088 28.7484 56.9731 24
537 1 14.5267 1.50541 23.8859 21
538 1 24.7348 30.0384 10.4278 18
539 1 7.50382 12.4974 51.2195 19
540 1 1.3015 23.7767 23.3089 24
541 2 3.84987 6.19539 21.7032 20
542 2 27.85 8.25332 15.1474 19
543 2 23.7511 11.1099 2.79633 20
544 2 22.9529 8.94637 43.8233 18
545 2 16.316 7.5045 59.1907 20
546 2 19.4339 6.40864 28.5664 25
547 2 5.82577 31.5306 38.4265 23
548 2 17.3687 12.5795 10.5081 19
549 2 1.27655 26.9664 38.4984 21
550 2 3.78119 3.05424 20.3609 24
551 2 20.1946 11.9369 8.62646 21
552 2 3.69825 18.7643 48.6493 21
553 2 21.0604 11.9772 23.4834 17
554 2 14.7167 15.119 36.7438 21
555 2 14.5426 25.4385 30.2574 21
556 2 26.6069 11.6401 7.93398 21
557 2 20.1713 20.244 39.8491 21
558 2 16.115 5.40861 35.3266 23
559 2 1.83806 -0.844315 35.2761 19
560 2 28.054 13.919 18.1033 21
561 2 16.8642 -0.817077 4.13654 20
562 2 16.0733 16.1706 46.2935 21
563 2 23.8612 6.66285 41.3179 20
564 2 5.72311 0.359606 15.1639 25
565 2 10.0499 19.5258 54.1544 19
566 2 3.48703 9.70164 9.29739 24
567 2 13.8525 25.4929 44.3713 21
568 2 31.2072 23.8026 24.7851 18
569 2 30.1905 11.0461 63.3538 21
570 2 29.2794 1.83987 37.8717 20
571 2 14.4707 21.4981 53.0363 19
572 2 23.2132 1.49373 48.5772 20
573 2 6.34794 26.7256 18.5716 20
574 2 30.9725 9.21191 36.4187 19
575 2 16.8579 10.767 37.8834 22
576 2 14.9284 27.4832 33.275 24
577 2 31.8026 4.10068 23.3194 21
578 2 11.4719 -0.748024 16.7464 21
579 2 27.1359 20.1942 44.9113 23
580 2 16.0978 15.509 32.88 22
581 2 27.2146 8.71874 58.0616 21
582 2 1.68247 12.8355 57.1794 19
583 2 17.9807 32.7636 36.6368 16
584 2 6.62555 9.07307 26.9525 21
585 2 29.047 13.6932 21.6656 20
586 2 16.1433 24.3493 20.328 19
587 2 22.3697 19.4209 41.9875 22
588 2 1.28091 29.2963 16.6664 21
589 2 28.3279 30.2803 6.97551 21
590 2 1.40119 33.4818 58.8046 20
591 2 7.67882 -1.42971 61.5952 21
592 2 15.4707 12.4493 34.2072 21
593 2 22.7133 7.06528 18.0831 20
594 2 1.45692 19.1824 35.8681 17
595 2 7.18447 22.613 26.9694 21
596 2 4.61649 18.2154 17.8 22
597 2 13.9271 12.8534 63.5958 21
598 2 29.6025 -1.11977 46.8972 20
599 2 19.6328 1.54032 3.18843 19
600 2 17.8486 11.0516 34.4893 18
601 2 7.24582 29.161 12.6783 19
602 2 3.5269 29.8698 14.4732 21
603 2 31.145 27.596 10.4831 20
604 2 3.90039 10.6223 27.9295 15
605 2 31.7115 10.144 56.4732 20
606 2 25.6825 5.16872 21.1342 21
607 2 19.4574 30.9263 53.6219 22
608 2 18.1845 33.1035 9.19944 18
609 2 20.8605 13.1034 34.1112 17
610 2 0.645332 -0.700863 3.18723 22
611 2 23.8566 27.3464 12.3599 20
612 2 3.56185 17.9259 27.2304 17
613 2 30.6456 24.2669 9.49502 22
614 2 23.4956 23.2037 17.5486 19
615 2 20.0157 2.08285 60.8339 21
616 2 8.10539 21.6414 19.8007 19
617 2 28.6278 1.67654 19.5193 22
618 2 20.3662 10.338 30.2057 19
619 2 14.3683 21.1697 37.5269 19
620 2 18.2837 5.99476 18.8985 21
621 2 24.9665 9.7091 36.1102 22
622 2 29.8238 34.941 11.7443 20
623 2 26.5342 33.2522 33.9953 20
624 2 32.602 26.3738 2.50728 23
625 2 30.6964 -0.143645 25.5436 18
626 2 26.6312 19.0994 56.3618 19
627 2 13.8905 26.5774 36.216 18
628 2 4.75511 15.7044 13.5996 25
629 2 17.0338 14.035 29.5787 22
630 2 32.8689 26.903 5.7065 17
631 2 22.4719 30.3843 37.1405 18
632 2 20.2462 34.7729 58.6008 23
633 2 25.7983 29.3403 11.846 16
634 2 13.214 1.33895 43.6318 17
635 2 32.1311 30.7507 35.4821 21
636 2 16.3004 22.4365 11.8524 20
637 2 21.6844 3.99201 10.163 25
638 2 4.66841 8.02948 32.499 20
639 2 6.56937 23.933 19.3672 20
640 2 17.3712 33.6587 54.0106 17
641 2 8.65448 28.9033 19.9229 22
642 2 10.3898 1.07972 56.5575 20
643 2 2.74118 1.89158 26.9493 19
644 2 12.333 29.2954 61.5184 21
645 2 32.4303 11.8372 14.4248 21
646 2 10.8837 27.7584 49.0121 17
647 2 17.605 29.4866 56.3818 23
648 2 22.6751 24.3609 12.891 22
649 2 16.7361 7.21347 41.8267 20
650 2 1.59505 26.808 20.8112 18
651 2 11.458 0.482794 19.2149 20
652 2 30.5613 32.9901 31.2133 21
653 2 8.69288 8.82679 29.345 23
654 2 19.7189 27.9701 31.6761 21
655 2 20.3267 2.00699 8.52451 20
656 2 9.15861 0.724504 53.8184 19
657 2 21.0466 34.3373 33.207 17
658 2 15.1217 21.5847 23.7529 21
659 2 26.8936 26.6262 28.2557 21
660 2 8.52809 33.7894 9.39708 18
661 2 13.1946 28.2761 23.9026 21
662 2 6.34349 17.3789 46.393 22
663 2 11.2518 5.29935 5.63848 20
664 2 24.5926 30.0649 54.1412 22
665 2 4.29934 18.5082 59.812 17
666 2 16.5511 19.588 15.2387 21
667 2 29.5916 16.2791 40.8571 21
668 2 13.0888 22.8515 25.9892 22
669 2 5.36669 1.38287 10.2069 20
670 2 8.89657 26.7742 53.9835 23
671 2 4.99927 32.8506 16.6922 21
672 2 0.904419 34.9597 11.6201 22
673 2 28.7927 21.7558 23.3731 22
674 2 31.9877 33.6135 14.2678 21
675 2 14.1356 31.282 21.003 21
676 2 32.0571 21.1935 3.56285 17
677 2 6.0311 31.231 14.9699 20
678 2 30.2077 5.80023 16.9254 17
679 2 17.6239 9.08076 47.8734 17
680 2 25.3039 15.972 7.59888 20
681 2 22.9857 34.7474 2.43914 22
682 2 6.54564 11.5591 61.9181 19
683 2 9.48421 21.6566 13.7008 19
684 2 16.6284 30.8938 25.7967 20
685 2 15.034 9.97045 43.8664 21
686 2 21.2609 6.24483 52.6178 17
687 2 9.82431 6.04204 30.7528 20
688 2 20.8937 6.07916 32.7592 20
689 2 25.212 20.446 28.8211 21
690 2 1.11162 21.843 34.5162 18
691 2 2.72204 26.8133 28.6552 21
692 2 20.5858 32.4786 35.9702 18
693 2 27.4656 5.21521 4.09238 22
694 2 29.1988 2.21954 41.8908 19
695 2 1.64382 5.64458 14.3353 14
696 2 20.5779 30.4598 62.1841 21
697 2 9.94849 17.144 20.3242 19
698 2 13.6831 19.7061 21.3479 21
699 2 15.3966 28.8898 2.01993 20
700 2 15.471 16.6292 17.2778 21
701 2 18.3606 10.138 61.8274 19
702 2 32.0833 14.1021 47.8791 19
703 2 11.7309 0.431328 22.4494 18
704 2 30.6235 24.7799 19.708 20
705 2 22.437 0.648911 19.7803 21
706 2 30.1856 15.4552 10.4139 21
707 2 16.8022 22.0527 58.6579 21
708 2 10.0899 1.62276 24.7537 19
709 2 6.24805 14.5599 58.6241 20
710 2 5.87212 25.0782 25.1586 19
711 2 7.16392 27.6958 43.7602 19
712 2 11.1928 25.9505 35.5297 20
713 2 25.5549 8.15055 45.4808 19
714 2 31.978 -0.606299 37.788 19
715 2 6.04535 25.9775 45.955 16
716 2 2.21326 24.5816 56.5747 22
717 2 30.9796 10.9118 25.6157 18
718 2 20.4796 12.7365 28.4171 22
719 2 25.4317 30.1005 25.0155 21
720 2 28.2606 20.15 21.3011 19
721 1 15.893 3.80273 24.8944 22
722 1 24.6297 17.4194 6.62382 20
723 1 21.7184 29.9917 11.7588 20
724 1 20.4358 16.1846 32.4439 21
725 1 2.02633 3.58571 21.2569 21
726 1 31.9087 20.548 29.4488 24
727 1 24.1459 21.0917 11.672 22
728 1 10.1229 15.3543 6.90425 20
729 1 19.1637 5.4008 63.3915 19
730 1 2.21934 11.0425 35.3518 18
731 1 26.36 33.2607 52.7617 20
732 1 1.49095 10.0414 19.7714 23
733 1 20.7844 29.9521 18.4593 18
734 1 29.673 24.2637 6.21206 20
735 1 12.9114 19.6395 5.86482 19
736 1 13.7062 14.8269 17.4263 21
737 1 18.8928 13.4484 7.8323 18
738 1 22.0242 28.5893 42.9059 21
739 1 22.3659 -1.32891 13.8363 21
740 1 28.3079 17.7802 14.3732 20
741 1 7.48603 14.3849 2.34388 20
742 1 15.2575 27.5368 17.4422 19
743 1 5.65627 23.4306 26.2578 21
744 1 28.6165 33.7455 19.7183 20
745 1 19.0723 13.7072 10.6177 21
746 1 16.1533 11.1466 27.2187 23
747 1 29.9802 10.939 33.644 21
748 1 4.18791 27.0147 30.2391 22
749 1 30.1975 25.8978 8.75881 23
750 1 17.0305 10.0035 24.0155 19
751 1 9.79369 34.1434 19.648 22
752 1 2.61248 6.06144 61.8298 17
753 1 32.1091 9.62128 58.3057 17
754 1 4.95802 20.3381 7.9131 21
755 1 13.4491 20.9222 16.184 25
756 1 0.664862 34.4111 21.8836 22
757 1 25.5484 14.9989 24.453 21
758 1 10.2568 16.9105 50.0266 22
759 1 7.4399 13.4627 28.7541 18
760 1 21.726 6.10395 47.081 20
761 1 17.3845 29.1351 44.2248 24
762 1 26.2105 3.12163 32.9192 25
763 1 5.72223 21.2375 51.9705 20
764 1 32.785 0.526811 59.3242 23
765 1 16.4727 -0.53003 25.9395 22
766 1 21.8718 18.3984 16.2844 18
767 1 11.9157 8.64589 44.9262 20
768 1 24.3747 21.7658 51.6087 20
769 1 5.93383 12.745 25.7228 21
770 1 30.4443 14.6169 41.89 22
771 1 14.2894 3.1008 9.13765 20
772 1 26.1203 27.2506 46.9617 22
773 1 32.0234 18.48 48.2303 21
774 1 11.5785 20.1741 17.4954 21
775 1 6.49748 17.8868 6.04004 22
776 1 7.83455 0.848368 32.4141 21
777 1 9.84687 4.95247 7.00359 22
778 1 15.8855 24.9525 41.3134 24
779 1 4.2157 4.64524 54.1616 24
780 1 25.281 7.95187 25.9337 19
781 1 5.14168 26.5483 39.4989 20
782 1 13.6441 21.7353 4.55546 23
783 1 30.1158 4.46985 12.9189 19
784 1 7.04802 8.05924 8.63302 20
785 1 25.6769 9.62486 41.2615 20
786 1 23.7052 15.5658 21.8887 20
787 1 7.29095 25.9752 16.5116 18
788 1 25.6285 34.7124 15.7968 22
789 1 4.57145 16.9934 3.72489 21
790 1 17.2613 1.15821 37.3498 18
791 1 5.42631 31.3721 2.53138 21
792 1 21.3505 32.1762 13.8462 20
793 1 22.0732 -1.05138 23.2204 21
794 1 27.4557 1.71487 55.1276 18
795 1 5.81589 22.7069 61.649 19
796 1 29.3608 13.7143 3.41025 20
797 1 13.3799 -0.366213 58.0173 21
798 1 22.7479 19.5938 40.1132 18
799 1 29.1147 20.8789 60.2442 20
800 1 17.7472 28.0177 4.6237 24
801 1 6.7441 7.47495 28.0367 21
802 1 6.55612 18.1595 40.4384 20
803 1 12.1851 4.82979 61.0508 19
804 1 4.34914 7.08414 8.67975 18
805 1 29.2967 12.8519 13.6024 20
806 1 30.7929 2.9663 52.0759 23
807 1 29.4144 30.045 4.46104 20
808 1 3.76835 4.29155 37.8328 19
809 1 22.7474 14.3675 32.7177 20
810 1 15.2827 26.7997 29.4229 21
811 1 23.9488 10.1302 15.1554 21
812 1 5.96411 28.557 18.0244 20
813 1 9.43166 14.6168 50.0637 19
814 1 23.052 11.7932 46.1729 20
815 1 26.8112 21.528 37.8439 21
816 1 15.6734 28.1042 42.3136 21
817 1 24.6928 28.0275 43.9521 20
818 1 13.5412 -1.40441 7.0316 18
819 1 15.9702 12.9571 46.4347 20
820 1 6.64794 18.61 19.3165 21
821 1 31.2964 15.3421 36.6547 20
822 1 16.2122 19.1553 56.813 20
823 1 24.2394 23.0714 55.1909 22
824 1 15.0873 35.1947 59.3346 23
825 1 17.9344 10.0406 49.9861 20
826 1 32.0318 8.65871 40.6407 19
827 1 21.7801 32.7785 37.7506 21
828 1 23.6693 32.3553 18.5394 22
829 1 15.4161 7.09119 36.2966 20
830 1 27.1847 -0.101728 27.7595 20
831 1 29.3353 8.01954 7.06361 20
832 1 5.33442 7.96914 61.8328 22
833 1 20.9238 17.8973 2.24083 20
834 1 24.9237 -0.313097 32.8823 20
835 1 14.0697 18.7547 61.3343 23
836 1 32.7343 30.8232 17.2761 22
837 1 15.8437 18.1632 16.0813 22
838 1 31.5628 2.90476 57.6149 22
839 1 30.6122 21.1748 11.7193 24
840 1 4.41128 0.928118 29.7744 21
841 1 27.973 27.8588 3.85876 21
842 1 9.02178 26.4822 60.7961 22
843 1 28.2129 21.8824 20.9613 22
844 1 27.5966 18.3125 31.5853 19
845 1 22.9389 11.8697 60.3057 23
846 1 18.7256 11.0829 21.8835 20
847 1 8.64397 1.36691 4.33067 23
848 1 31.0149 21.992 58.3057 20
849 1 15.6988 24.3774 4.20963 22
850 1 24.0012 9.89279 7.31531 20
851 1 4.90188 35.0568 37.3879 21
852 1 28.4914 1.67527 15.0352 19
853 1 29.1055 0.71806 8.7261 22
854 1 0.552242 7.55556 14.4982 17
855 1 9.74846 -1.48044 62.7937 20
856 1 1.5529 7.04598 7.43668 20
857 1 5.51983 4.81713 13.692 20
858 1 11.9451 6.18244 23.9892 21
859 1 10.3155 17.0175 2.55903 19
860 1 28.8941 26.9966 37.2051 20
861 1 14.0241 9.71537 9.32043 20
862 1 18.7563 12.9356 51.6883 19
863 1 1.33343 9.54983 23.1435 21
864 1 15.3242 4.91983 30.8867 21
865 1 13.0359 34.8953 61.6517 22
866 1 19.5831 33.3706 7.68209 19
867 1 32.9382 21.6188 11.3861 21
868 1 21.3375 2.78309 26.1152 22
869 1 25.5615 6.93704 39.8104 17
870 1 24.8359 31.0608 15.6364 20
871 1 25.3136 17.9376 34.0049 18
872 1 12.6018 -1.169 23.223 20
873 1 0.64747 1.77736 11.1993 21
874 1 27.991 3.60746 58.7749 19
875 1 15.0584 3.79655 61.1442 19
876 1 23.3017 2.13658 18.0497 20
877 1 27.903 17.8622 7.17569 24
878 1 7.24506 -0.641332 19.5051 19
879 1 25.5059 16.7163 44.0883 20
880 1 7.56749 17.1624 33.2121 27
881 1 19.6802 31.1545 5.03082 21
882 1 18.6895 34.4824 3.17551 20
883 1 26.3328 25.3554 56.8344 19
884 1 10.3045 31.5426 4.92109 21
885 1 14.3514 23.3127 6.92582 21
886 1 9.8446 31.7842 11.0386 21
887 1 13.9441 29.6121 22.1259 16
888 1 26.5202 31.6958 60.8397 22
889 1 22.233 21.6388 26.2306 20
890 1 23.9842 29.289 13.1784 22
891 1 20.6308 7.71473 27.6802 21
892 1 20.7512 1.63338 31.4335 20
893 1 9.23983 17.6491 60.0784 20
894 1 32.257 11.0668 28.1816 20
895 1 20.096 8.02006 22.4498 18
896 1 6.53023 14.3839 53.6522 19
897 1 18.5918 18.9111 29.2672 19
898 1 24.7424 13.5857 29.6717 19
899 1 10.1761 25.3885 29.1341 22
900 1 29.275 17.2126 62.2662 22
901 2 21.8202 10.6638 45.5407 20
902 2 32.7075 7.62374 26.9581 18
903 2 8.75259 29.8121 62.9353 21
904 2 11.4416 21.1474 44.4594 20
905 2 14.7615 29.3535 15.9526 18
906 2 22.9232 31.934 61.9923 22
907 2 1.26045 5.36493 47.3798 22
908 2 3.59226 12.5692 59.8186 21
909 2 29.4123 8.68625 5.27186 22
910 2 30.5644 13.3289 12.0705 22
911 2 19.8953 30.204 45.6698 22
912 2 25.8136 26.9851 56.5584 19