ITEM: TIMESTEP
78000
ITEM: NUMBER OF ATOMS
500
ITEM: BOX BOUNDS pp pp pp
-30.0 30.0
-30.0 30.0
-30.0 30.0
ITEM: ATOMS id type x y z Coordination
1 1 -18.8911 22.8688 -25.5554 19
2 1 -21.3411 27.5516 -22.2348 15
3 1 -27.5699 24.958 23.077 21
4 1 29.3226 25.1472 21.6459 13
5 1 -22.6473 27.6751 22.5502 17
6 1 -20.6181 16.462 29.4856 16
7 1 -15.9422 28.873 -24.4245 17
8 1 -20.2563 -28.3535 -22.4563 14
9 1 28.707 23.3044 26.8051 21
10 1 -16.9309 20.2899 27.1387 16
11 1 -15.5591 27.4328 -27.2433 19
12 1 23.6287 19.4809 -29.1811 7
13 1 -25.7402 19.8038 21.0662 12
14 1 -17.0276 19.8519 23.6105 10
15 1 -19.1692 18.1582 -28.5268 19
16 1 -28.6475 -28.8776 -21.0615 14
17 1 -23.2988 -28.272 -27.0503 22
18 1 -25.0747 22.6665 19.3685 8
19 1 -22.8358 30.0822 -21.7869 16
20 1 -28.5334 -29.2682 -24.8001 23
21 1 -21.9253 -28.0872 26.0629 20
22 1 -15.7715 -25.6304 -25.2549 12
23 1 -27.5847 -28.2268 28.0455 16
24 1 -27.6506 28.2556 21.3721 12
25 1 -29.0236 -26.4956 29.6666 11
26 1 25.7957 23.7275 28.7903 14
27 1 -23.5599 -23.4341 -26.0109 7
28 1 -24.5022 27.8825 20.0932 13
29 1 28.8742 17.6551 -26.3117 12
30 1 -20.6198 15.5471 25.9543 13
31 1 28.1276 22.6385 23.3721 13
32 1 -25.897 15.5954 -27.1385 12
33 1 -17.7304 28.8947 24.628 16
34 1 -26.1362 22.2043 23.1724 22
35 1 -18.1725 -28.4659 24.5746 12
36 1 -25.8779 -25.356 29.6432 11
37 1 27.1537 26.3686 -29.7297 19
38 1 -21.8162 -23.8978 -23.0873 8
39 1 -16.0728 21.447 -25.3959 17
40 1 -23.3081 16.5951 27.5613 16
41 1 -18.7728 23.0619 23.623 16
42 1 -15.9488 18.522 -26.6243 12
43 1 -16.5702 19.3245 -23.323 10
44 1 -19.7005 -25.1915 29.229 14
45 1 29.3255 20.497 -28.3116 23
46 1 -27.9134 17.666 -25.5368 15
47 1 27.8765 26.3159 -22.6965 10
48 1 28.9606 -28.4972 -22.8643 16
49 1 -22.2813 17.6997 -23.8292 18
50 1 26.2058 23.8303 -27.9947 15
51 1 -29.4786 -26.174 -27.2659 11
52 1 -29.9219 28.5385 -26.7391 23
53 1 -25.438 -29.5195 -19.9142 13
54 1 23.8157 18.0315 25.7852 6
55 1 -29.5607 -30.0161 24.4644 13
56 1 -28.4465 19.3612 22.8727 16
57 1 -13.2893 24.2314 -27.01 13
58 1 -24.7975 22.2093 -20.1033 12
59 1 -27.2536 25.6774 19.9126 12
60 1 26.4519 21.1268 -29.9049 17
61 1 -27.7296 19.8539 -26.9583 24
62 1 -28.6679 -26.5279 -23.3014 12
63 1 -25.6551 19.5142 24.3243 19
64 1 -26.029 -27.1139 -28.1522 18
65 1 28.6183 28.2909 23.0933 11
66 1 25.7712 23.9086 25.6301 12
67 1 -28.0558 19.5654 26.4927 19
68 1 -20.0314 15.8484 -24.4433 12
69 1 29.379 28.2684 26.619 17
70 1 -28.9533 25.6879 -21.8184 15
71 1 29.4617 28.9475 -20.6753 12
72 1 28.7983 19.6756 25.1026 15
73 1 -23.4856 19.6307 -21.9446 16
74 1 -23.6342 18.1463 22.3547 16
75 1 -20.0461 20.4699 22.4468 14
76 1 -20.7099 14.834 -27.4875 13
77 1 -29.3365 17.0779 28.1726 15
78 1 26.6268 20.4037 -27.0776 14
79 1 -13.5339 26.946 -25.2624 12
80 1 -13.6616 -26.9836 -26.9693 10
81 1 -22.0531 -29.5719 20.936 11
82 1 -24.7235 -27.3565 26.8113 20
83 1 -22.813 -25.5945 -28.7857 18
84 1 -18.7985 28.9838 21.967 11
85 1 -23.1598 15.2633 -25.4606 13
86 1 -22.2939 18.3868 26.1101 25
87 1 -26.5172 16.7235 29.414 15
88 1 26.5161 25.5629 23.6944 11
89 1 -13.8146 29.9102 -27.6434 16
90 1 -29.0309 -28.9632 22.017 8
91 1 -18.1615 15.9164 -27.2435 9
92 1 -28.1311 19.6679 -23.1906 15
93 1 -26.4737 16.7003 26.2613 15
94 1 -23.8578 15.782 24.5084 13
95 1 -24.8081 18.1921 -25.4475 22
96 1 28.9617 19.8351 28.1692 19
97 1 -26.0469 24.9325 -20.8161 15
98 1 -24.2476 27.3276 -20.2887 13
99 1 -16.1481 17.4741 25.9305 7
100 1 -20.0171 -25.9866 26.0723 12
101 1 -16.3046 22.4212 25.2734 13
102 1 -24.3423 24.6706 21.4291 19
103 1 26.9758 26.4226 27.0024 19
104 1 -19.7954 18.6255 -21.9035 11
105 1 -29.1355 22.2405 21.89 13
106 1 -16.4152 24.9493 -26.5657 22
107 1 -17.2527 -28.4162 -23.663 12
108 1 -26.7015 19.7595 -20.496 10
109 1 -15.8719 25.6683 -29.9417 24
110 1 -14.2302 -28.0154 -24.4773 9
111 1 -18.8265 -26.0272 -24.4318 13
112 1 -24.1416 30.2907 24.6304 21
113 1 -27.7738 19.8424 29.7393 22
114 1 28.6705 -28.4725 -26.3436 17
115 1 -19.2528 -29.3066 26.8283 23
116 1 -17.072 23.3365 -23.1094 14
117 1 -22.8998 21.3159 21.3844 13
118 1 -21.431 -25.7204 -26.0065 16
119 1 -20.7384 16.9588 22.8512 12
120 1 -19.3564 18.7881 -25.332 22
121 1 -29.415 28.4616 -23.4024 23
122 1 -13.6966 26.0742 28.2437 13
123 1 -23.3511 -27.0151 23.4276 12
124 1 -16.9213 25.9845 23.6371 11
125 1 -22.7416 24.7286 -21.1579 13
126 1 -27.8606 22.3796 -21.6947 12
127 1 28.3075 -25.6186 -24.5378 7
128 1 -17.7674 -29.7961 -27.1012 17
129 1 21.5265 17.4821 28.5158 5
130 1 -12.6834 23.6277 -30.0221 10
131 1 28.2827 18.158 -30.033 15
132 1 -12.9368 27.0359 -28.6471 16
133 1 -23.3553 15.9188 -28.9821 16
134 1 -23.1783 -28.1106 -23.7036 21
135 1 27.8651 16.9702 26.6491 9
136 1 -15.7059 -29.0849 27.0356 11
137 1 -28.9608 21.8823 24.9252 20
138 1 -19.1167 17.991 24.4764 18
139 1 -26.3849 16.8841 23.056 13
140 1 -16.9487 21.0186 -28.2128 17
141 1 25.9228 20.8013 27.1471 14
142 1 -25.21 30.4954 21.9076 15
143 1 -29.2632 16.8892 24.6669 12
144 1 -13.9374 21.3937 -27.2199 11
145 1 -21.4645 23.6789 22.2337 15
146 1 27.2233 29.1938 -28.0823 16
147 1 27.6465 28.8945 -24.3699 14
148 1 -15.9995 -25.4341 -29.0197 10
149 1 -15.165 -28.0744 -29.7957 13
150 1 29.5307 19.9944 -25.0844 14
151 1 -19.6634 26.4024 22.6653 16
152 1 -17.2191 -26.0606 28.5099 11
153 1 -18.35 -24.9465 -27.6153 11
154 1 -22.8141 -25.1672 27.9604 13
155 1 -16.3909 25.2026 26.7586 15
156 1 -19.0339 18.289 27.8786 18
157 1 -23.1446 -26.826 -21.1024 10
158 1 28.2375 -28.1674 -29.6607 13
159 1 -28.9682 17.2121 -28.5703 16
160 1 -22.0556 17.8664 -27.0622 25
161 1 23.2823 19.6609 28.0252 8
162 1 26.3471 29.4332 28.4517 10
163 2 26.6467 25.6607 -27.7541 15
164 2 -13.982 -26.1731 -25.3348 8
165 2 29.0562 22.5912 25.1596 18
166 2 -27.1202 18.1233 -23.7363 14
167 2 -14.9488 27.2726 -23.9791 14
168 2 -24.9395 -25.8226 -28.6911 14
169 2 -17.2946 18.1305 24.4941 12
170 2 -27.0622 27.0713 22.8296 18
171 2 -26.5938 20.1365 22.9242 20
172 2 -21.9778 -27.8377 -22.1025 14
173 2 -13.1268 22.6721 -28.3661 11
174 2 -14.3416 24.4305 29.1163 14
175 2 -24.5682 -27.8654 -20.1976 11
176 2 -17.8561 -25.0069 -29.7035 12
177 2 -17.1454 -29.2701 26.0447 14
178 2 -19.9932 24.4453 22.8992 15
179 2 26.0347 25.9736 25.4721 10
180 2 -26.535 21.6441 -20.5097 13
181 2 27.312 28.2352 -29.9501 16
182 2 -19.7371 16.0202 -28.7313 15
183 2 -28.4896 17.5913 26.497 17
184 2 -19.4929 -29.1195 -26.9202 18
185 2 -24.2973 24.2364 -20.2453 12
186 2 -27.7461 16.3811 -26.9657 16
187 2 -28.3977 17.0369 29.7158 15
188 2 24.8237 20.4275 29.1291 12
189 2 29.1576 17.8199 -28.3339 15
190 2 -29.621 20.0447 24.0983 17
191 2 -27.6628 -27.6373 -21.9585 15
192 2 -14.7953 -26.7888 -28.4357 13
193 2 -19.8014 -27.8535 25.4109 18
194 2 -12.7282 25.1476 -28.9153 12
195 2 -22.8389 -23.1168 -24.3793 6
196 2 -29.062 -29.6098 -22.9939 20
197 2 -24.5421 -26.1852 28.4224 16
198 2 -23.6372 -27.0105 25.2191 16
199 2 -20.6308 -25.1196 -24.0068 15
200 2 -16.7637 21.517 -23.4064 13
201 2 -17.1064 18.1461 27.2934 10
202 2 -25.758 15.9223 24.5402 14
203 2 28.8866 17.5 24.9131 10
204 2 -17.0879 23.0451 -26.0054 23
205 2 -17.049 -26.6325 -24.2822 12
206 2 -23.1623 23.1549 21.2494 14
207 2 -19.9115 18.5852 22.7981 12
208 2 -24.6049 21.1835 20.4335 11
209 2 -23.4836 19.1921 23.8236 19
210 2 -16.5767 20.561 25.4715 15
211 2 -21.7213 21.5611 22.6409 16
212 2 -25.296 16.5797 27.8515 16
213 2 -23.6854 29.4668 20.9437 14
214 2 28.318 19.63 -26.4812 16
215 2 -29.5287 27.8671 -28.3895 21
216 2 25.2618 20.3786 -28.4027 10
217 2 27.9287 19.9101 -30.13 18
218 2 -15.7371 18.6539 -24.757 9
219 2 -22.7165 -25.2316 -21.8428 9
220 2 -25.9674 26.7331 -20.5229 15
221 2 28.0329 28.4434 -26.4255 20
222 2 27.5593 19.8275 26.4299 15
223 2 -16.5025 -24.8932 -27.1195 10
224 2 26.8718 23.0151 -29.8665 20
225 2 -28.5543 -28.4119 23.9343 9
226 2 -20.5842 29.4201 21.7263 12
227 2 28.792 25.4528 26.7224 20
228 2 -19.9887 15.978 27.8191 14
229 2 -22.5123 16.2159 29.327 19
230 2 -27.9463 -27.0308 -27.9658 16
231 2 -24.7667 16.2155 -25.7465 17
232 2 -19.0814 -28.0705 -23.9075 17
233 2 30.1051 -27.7858 -29.2952 15
234 2 -20.9044 21.3158 -23.6483 22
235 2 -22.2049 -28.1777 22.2386 13
236 2 -18.18 19.4021 -22.6171 10
237 2 -15.1969 27.5763 -29.3663 21
238 2 -19.7295 -26.0775 -26.9418 17
239 2 22.6963 18.5072 29.527 8
240 2 -21.0432 29.4216 -22.1841 14
241 2 -13.6162 28.1396 -26.8762 15
242 2 -21.2051 27.0417 23.6424 19
243 2 -21.5268 23.5323 -22.2192 13
244 2 -18.9429 20.6982 -25.5022 23
245 2 -26.0301 24.1001 20.0722 11
246 2 27.4231 28.3761 27.2581 15
247 2 27.9044 26.7011 22.6553 10
248 2 -26.6312 22.3571 -23.56 18
249 2 -21.6653 -25.5197 26.507 13
250 2 -27.9617 22.8238 23.5282 20
251 2 -12.9915 27.5252 29.412 13
252 2 27.8976 -29.3643 28.9296 13
253 2 -19.3652 15.1211 -25.9616 13
254 2 -28.5574 20.2805 -21.533 8
255 2 -28.2474 17.3375 23.1252 12
256 2 -24.3018 29.2179 26.3212 22
257 2 29.3854 -29.1208 -20.8899 11
258 2 -21.5589 19.3681 -21.6862 13
259 2 27.6326 -29.0156 -28.0545 13
260 2 -23.7567 29.0775 -20.2031 12
261 2 29.9222 29.5456 22.6612 11
262 2 -21.7469 -25.0374 29.5762 15
263 2 -27.1727 29.9101 -20.4802 15
264 2 -26.3343 27.4512 19.9906 12
265 2 -26.1601 19.3943 26.2519 19
266 2 -15.4156 24.3209 -22.8981 14
267 2 -17.024 23.9645 23.8964 14
268 2 -22.0591 15.8333 -24.2033 12
269 2 -29.0932 27.814 -21.3814 14
270 2 26.0945 22.7593 27.0532 16
271 2 27.2154 27.0551 -24.4858 13
272 2 22.3752 17.8973 27.0088 5
273 2 -29.1733 19.7255 28.3585 20
274 2 -25.0564 -28.1884 23.4368 15
275 2 -18.772 -25.9772 27.3992 15
276 2 -18.3696 20.953 23.0321 13
277 2 -17.6737 26.0312 -25.5559 20
278 2 -17.5895 29.6538 -24.9003 17
279 2 -25.9923 -28.4508 26.3543 15
280 2 -25.3787 18.194 21.9241 12
281 2 -27.9288 -27.3776 -24.8544 19
282 2 -29.5332 -27.5586 28.1585 10
283 2 29.8211 -29.8778 26.3199 16
284 2 29.2494 -26.414 -23.1001 12
285 2 -19.7898 15.8974 24.2387 10
286 2 29.4004 23.3931 22.3276 15
287 2 -28.843 25.2507 21.1119 13
288 2 -15.3587 20.137 -27.2623 11
289 2 28.6669 28.3968 -22.7391 15
290 2 26.6769 22.4544 -26.7328 14
291 2 -12.7078 25.2059 -25.493 13
292 2 -30.182 27.6412 24.6003 16
293 2 -28.2966 20.0798 -25.0136 17
294 2 -24.1166 18.2981 -23.5458 16
295 2 -14.7757 25.7238 -26.5179 22
296 2 -22.9935 18.1972 -28.7465 22
297 2 29.071 -25.8984 -26.2084 11
298 2 -27.2269 30.2483 21.6185 13
299 2 -29.8551 18.0162 -25.1 13
300 2 -19.9262 17.7021 -23.6668 14
301 2 -18.3091 -29.8723 23.4092 11
302 2 -13.7641 -28.8779 -26.1274 10
303 2 -15.7638 26.3483 28.111 18
304 2 -17.5072 17.5683 -27.4338 14
305 2 -22.349 15.675 -27.2693 19
306 2 -17.2113 26.8038 25.5097 15
307 2 24.6086 19.7251 26.4579 8
308 2 26.9511 23.7707 24.1054 13
309 2 -20.2615 18.7601 -27.0494 22
310 2 -19.9505 -29.3858 28.5973 20
311 2 -13.8761 -29.5323 -29.4259 14
312 2 -16.3391 -27.8824 28.6911 17
313 2 -18.6582 20.6188 27.725 18
314 2 -22.5211 16.7791 23.0289 13
315 2 -29.1251 20.443 21.2739 10
316 2 -22.4306 -27.6584 -28.7988 22
317 2 -25.1752 -27.7732 -23.3685 19
318 2 -25.4603 16.325 -28.9097 16
319 2 -27.6409 24.6358 -21.7273 14
320 2 -15.2951 29.2082 27.8486 15
321 2 -17.9447 27.5543 22.8925 12
322 2 -23.8155 26.4279 21.4911 16
323 2 -22.3903 16.3724 25.7761 15
324 2 -19.9676 18.617 29.6941 20
325 1 -30.0263 25.7632 28.4154 22
326 1 28.7519 23.4957 -29.7781 21
327 1 -25.1081 19.0247 28.1867 21
328 1 -24.4357 24.0966 24.7649 22
329 1 -27.2721 24.9588 26.3851 22
330 1 -25.9112 22.0368 26.265 22
331 1 -28.751 22.6775 28.295 19
332 1 -24.3596 24.2467 27.9119 20
333 1 -27.2788 25.1534 29.9477 20
334 1 -25.4763 21.5813 29.6709 19
335 2 29.494 23.0764 28.6384 21
336 2 29.8781 22.407 -28.5257 23
337 2 -25.7584 19.2935 29.9376 20
338 2 -25.664 24.1763 23.1956 19
339 2 -28.5985 25.226 24.9458 20
340 2 -24.9489 21.6583 24.745 18
341 2 -28.0415 21.905 26.5629 21
342 2 -25.4984 23.9887 26.3003 20
343 2 -27.9782 25.1006 28.2052 19
344 2 -24.8962 21.148 27.8363 19
345 2 -27.5229 21.9077 29.6938 20
346 2 -25.2494 24.6376 30.0577 20
347 1 -29.9816 25.675 -28.1432 22
348 1 28.7322 23.0511 -26.9182 20
349 1 -29.8409 25.7037 -24.7388 21
350 1 -24.942 18.3267 -28.4005 22
351 1 -25.6647 17.6689 -22.59 10
352 1 -28.1832 22.8009 -28.4735 22
353 1 -24.2566 23.688 -28.578 21
354 1 -26.9758 25.0098 -26.624 22
355 1 -25.3145 21.4861 -26.7121 20
356 1 -28.0363 22.2662 -25.3113 19
357 1 -23.5397 23.8022 -25.3595 21
358 1 -26.5114 24.4637 -23.7875 17
359 1 -24.8007 21.9941 -23.3463 19
360 1 -21.7623 21.6238 -21.9801 13
361 2 -29.0197 19.4938 -28.4126 24
362 2 29.1157 24.9626 -26.5648 22
363 2 28.7635 17.7715 28.1656 12
364 2 -25.8307 19.2465 -26.6099 21
365 2 -28.1583 24.6953 -28.1409 21
366 2 -24.3401 21.6572 -28.3684 20
367 2 -27.0395 21.7903 -27.0702 20
368 2 -24.979 24.5427 -26.6984 19
369 2 -28.1345 24.6643 -25.1237 20
370 2 -23.9089 21.8605 -25.097 23
371 2 29.6348 25.7078 -22.9345 13
372 2 -24.5393 24.7636 -23.6105 22
373 2 29.7456 21.895 -25.6095 18
374 1 29.5347 25.6386 24.9839 20
375 1 -26.7994 -27.6559 24.5667 13
376 1 29.6499 28.1904 -29.9344 20
377 1 -25.1801 27.2158 23.268 21
378 1 -28.3041 27.3935 24.66 18
379 1 -20.858 -29.264 23.3604 19
380 1 -26.3103 29.6471 26.435 18
381 1 -24.8693 27.3248 26.3102 22
382 1 -27.5486 27.7438 28.0112 19
383 1 -23.18 29.8439 27.9018 23
384 1 -25.9558 29.4967 30.0276 18
385 1 -24.7285 26.6151 29.6769 20
386 1 29.0135 -28.7238 27.4826 12
387 1 -23.9809 -27.6667 -30.481 20
388 2 -29.6058 27.6607 28.3017 22
389 2 26.4587 25.4299 28.6201 17
390 2 -24.2994 26.2387 24.7884 21
391 2 -26.8824 27.6101 26.1769 19
392 2 -23.9764 28.8061 23.2735 21
393 2 -26.9745 29.9763 28.3611 19
394 2 -23.998 26.2506 27.7922 21
395 2 -26.6178 27.4258 29.9124 18
396 2 -24.0493 29.9887 29.6503 20
397 2 -27.1529 -26.6864 29.245 14
398 2 -29.812 -29.3633 -26.3787 22
399 1 -28.6647 -28.8183 -28.1844 21
400 1 27.4592 26.2926 -26.1414 17
401 1 -27.528 27.8632 -28.3993 21
402 1 -22.9985 29.5644 -28.5939 23
403 1 -25.8653 -29.8314 -26.6361 23
404 1 -24.5944 26.592 -26.6325 22
405 1 -27.1788 27.4287 -25.268 19
406 1 -22.9418 29.1168 -25.1688 24
407 1 -25.5453 29.6489 -23.4311 21
408 1 -23.9508 26.5681 -23.4856 20
409 1 -27.3796 27.9162 -20.4799 14
410 1 -26.0841 -26.9943 -25.1065 15
411 1 -25.7823 -27.2503 -21.7402 15
412 2 28.9296 25.5732 -29.6476 23
413 2 -29.1053 27.3811 -25.2019 24
414 2 28.1326 -29.176 -24.559 17
415 2 -26.9609 29.927 -28.2757 20
416 2 -23.4245 27.1595 -28.9743 21
417 2 -26.7175 26.8834 -27.1441 22
418 2 -23.8792 29.7287 -26.9088 20
419 2 -26.6799 -30.511 -25.1149 21
420 2 -23.1377 26.9561 -25.3946 20
421 2 -25.5027 27.5184 -23.9907 17
422 2 -23.6166 29.9199 -23.6548 21
423 2 -22.9034 26.5428 -21.5991 15
424 2 -22.6744 -24.7635 -26.8606 13
425 2 -25.1001 -28.0471 -26.347 19
426 2 -22.0694 -27.5597 -25.3959 21
427 1 -22.0332 18.616 29.6322 22
428 1 -23.1311 21.1609 24.221 19
429 1 -21.2168 23.4497 26.1944 20
430 1 -20.1044 20.7308 26.2661 19
431 1 -22.9617 21.2965 27.8505 19
432 1 -18.6117 23.2345 27.3607 21
433 1 -21.1677 23.9764 29.3948 21
434 1 -19.8162 20.5795 29.3593 20
435 2 -23.2047 18.6188 27.8352 17
436 2 -22.5075 23.832 24.6012 20
437 2 -21.8598 21.3265 25.7278 18
438 2 -19.4677 22.5331 25.7006 21
439 2 -22.5774 23.4314 27.9417 22
440 2 -20.3486 18.8415 26.3911 23
441 2 -21.9059 20.5274 29.3342 23
442 2 -19.3119 23.2649 29.1795 21
443 2 -16.6066 23.333 26.9815 18
444 1 -22.7651 20.9676 -28.7684 22
445 1 -18.1798 23.5407 -29.3857 21
446 1 -20.9793 23.2531 -27.1851 20
447 1 -19.7611 20.7494 -27.3981 22
448 1 -22.4074 20.6623 -25.3208 25
449 1 -18.8444 20.9817 -23.518 18
450 1 -20.4283 23.4483 -23.6182 16
451 1 -13.8431 23.833 -24.2232 14
452 2 -22.5633 18.8332 -25.4161 22
453 2 -25.1697 19.0733 -21.0628 12
454 2 -22.1901 24.2448 -28.2916 19
455 2 -18.5691 20.3332 -28.9288 19
456 2 -21.6841 21.4398 -27.1122 22
457 2 -18.9457 22.6974 -27.7484 19
458 2 -21.2246 24.3833 -25.1855 21
459 2 -14.4133 22.7739 -25.7008 14
460 2 -18.7135 24.1326 -23.3601 14
461 2 -23.7657 21.6863 -21.7403 17
462 2 -16.591 22.4181 -29.6391 19
463 1 -22.1744 25.8726 24.8235 19
464 1 -21.3213 28.6962 26.0655 22
465 1 -19.1176 26.2912 26.0702 25
466 1 -22.0702 26.5297 27.995 21
467 1 -18.1738 -28.436 29.6163 20
468 1 -20.4444 28.9999 29.4859 23
469 1 -18.966 26.2331 29.2779 21
470 1 -21.1848 -27.9835 29.1134 24
471 1 -15.7698 22.9719 28.8029 18
472 2 -21.8191 -29.5825 24.8807 22
473 2 -21.133 26.3843 26.345 18
474 2 -19.4203 28.8766 25.7498 22
475 2 -21.8056 28.4511 28.0225 24
476 2 -18.4884 25.2961 27.5502 20
477 2 -20.7013 25.7786 29.6152 21
478 2 -18.1341 28.0113 29.1774 22
479 2 -22.7251 -28.2317 27.8762 24
480 1 -21.7388 26.1574 -28.5369 19
481 1 -16.6729 27.8483 27.3331 18
482 1 -20.203 28.8909 -27.2878 19
483 1 -18.4989 26.4028 -27.5055 21
484 1 -21.3492 26.2458 -25.4897 21
485 1 -16.8811 28.6736 -29.4753 21
486 1 -19.4011 28.9889 -24.0827 19
487 1 -18.55 25.9577 -23.9207 19
488 1 -14.8038 26.0231 -22.6013 9
489 1 -20.4104 -27.6518 -28.1114 22
490 1 -20.5081 -28.5746 -25.2442 21
491 1 -13.962 29.2249 29.2381 14
492 2 -21.1999 29.1621 -28.8651 20
493 2 -17.5225 25.6261 -28.9178 22
494 2 -20.4515 27.0636 -27.1571 23
495 2 -17.4721 28.2158 -27.4785 19
496 2 -20.8355 29.5141 -25.449 23
497 2 -15.3359 -29.2247 -23.7803 10
498 2 -20.0688 27.0806 -23.6542 16
499 2 -17.0999 -29.4454 -29.2014 19
500 2 -19.6468 -27.1425 -30.0965 19
