ITEM: TIMESTEP
8000
ITEM: NUMBER OF ATOMS
500
ITEM: BOX BOUNDS pp pp pp
-30.0 30.0
-30.0 30.0
-30.0 30.0
ITEM: ATOMS id type x y z Coordination
1 1 5.51501 -1.81493 3.17188 11
2 1 -0.27052 5.66479 6.52103 10
3 1 -5.45942 1.37199 -10.0723 19
4 1 -11.4616 1.71335 -6.40967 13
5 1 -1.20894 3.15059 -12.3666 15
6 1 4.20899 -7.62274 -6.1169 12
7 1 5.52211 3.31831 4.80647 11
8 1 1.1951 8.05294 5.05258 11
9 1 -11.5694 0.852531 -3.37472 15
10 1 5.31548 -2.35712 -6.18004 18
11 1 3.73507 0.848585 3.81246 13
12 1 -9.90242 -5.79169 -0.0388893 11
13 1 -3.80682 -2.36981 -12.9198 9
14 1 4.93411 -2.37582 -9.14 11
15 1 4.31923 -6.10516 -1.67428 12
16 1 -5.9675 10.7255 3.27011 14
17 1 -0.928264 14.2065 -0.791271 12
18 1 -4.33028 1.1294 -14.4225 9
19 1 -2.13927 6.90479 4.82287 17
20 1 -5.72999 8.61662 1.06083 21
21 1 0.998807 10.1002 -7.68431 12
22 1 5.66444 7.51271 -0.806671 17
23 1 -5.27689 9.11951 -8.2814 13
24 1 -9.42894 5.51119 -10.1673 13
25 1 -4.90117 11.5326 -5.07669 11
26 1 -12.469 3.94323 -2.5125 13
27 1 -2.84054 12.5155 1.9801 14
28 1 -6.22491 4.33776 -11.4605 18
29 1 -8.10328 -3.4251 1.80402 16
30 1 1.64221 -6.56363 -6.12053 15
31 1 -8.0628 0.422848 -8.47809 15
32 1 -3.46152 -6.58684 -0.251045 17
33 1 4.02054 6.19583 -8.96931 14
34 1 -6.07832 -4.01445 -11.3063 7
35 1 -1.42022 6.63276 -13.5738 12
36 1 -1.92787 11.5374 -2.71034 17
37 1 -12.0285 4.53587 0.551934 11
38 1 -0.441686 10.7276 3.97837 12
39 1 -0.337587 -1.11911 7.74192 10
40 1 -0.687561 -6.68821 -5.36956 18
41 1 3.63841 1.495 -9.06471 14
42 1 3.22077 -4.54896 4.53537 10
43 1 0.176988 -0.865051 4.72149 19
44 1 3.6451 11.1899 -2.42596 11
45 1 -8.37035 -3.97329 -2.66335 19
46 1 -5.27197 -8.65891 -1.05785 10
47 1 -7.76978 0.932556 4.38261 20
48 1 -9.58724 2.97362 2.05562 20
49 1 -1.36178 -8.63072 -2.50243 10
50 1 -10.9317 1.68661 -0.474508 15
51 1 -5.4867 11.4141 0.22935 15
52 1 -7.51982 5.85944 1.83379 23
53 1 -5.09108 8.42494 5.39586 10
54 1 -10.1373 -2.529 -8.05262 10
55 1 -11.5768 7.21954 -8.43508 9
56 1 -6.00101 -0.771515 -12.942 11
57 1 6.89609 0.819008 3.06055 12
58 1 -2.42075 -2.02265 5.74556 19
59 1 -6.63611 3.62537 -14.0508 10
60 1 -12.9195 -1.04058 -6.22632 7
61 1 -5.52252 -4.34584 -0.818456 22
62 1 -7.96484 8.77585 3.21672 16
63 1 -3.77561 -6.62291 -9.31129 9
64 1 -4.15305 13.3318 -2.16427 11
65 1 -10.2937 2.4767 -9.3389 12
66 1 -11.6216 5.38928 -5.56654 15
67 1 -5.38173 -4.47678 -7.4049 18
68 1 -0.0221644 -3.65622 3.79429 20
69 1 -10.5473 6.85308 -3.15273 19
70 1 -9.23666 0.505545 6.8433 9
71 1 -10.4804 6.00058 3.09327 15
72 1 -8.03934 -4.99656 -9.07963 12
73 1 -3.30668 -4.48786 5.15067 13
74 1 0.0324706 -6.03091 -9.07561 12
75 1 0.606908 0.669924 -10.2299 17
76 1 2.90364 -5.57219 0.929357 15
77 1 -6.52647 -8.49571 -3.92874 11
78 1 -10.6322 0.0942865 3.8921 11
79 1 8.08289 3.15501 2.64568 11
80 1 4.53814 8.19459 -3.80988 14
81 1 -0.787209 6.04859 -10.5546 17
82 1 -3.42796 7.33476 -11.128 18
83 1 0.757384 13.2792 -3.16476 10
84 1 2.19269 6.69554 -12.1696 10
85 1 -0.315465 -7.57991 0.841378 11
86 1 0.515795 -3.92333 -7.12542 25
87 1 -3.83702 -6.85247 -3.46997 18
88 1 -12.6201 4.05835 -8.84416 9
89 1 8.36405 2.8341 -3.39599 9
90 1 -8.1982 7.07333 -7.73542 18
91 1 6.56893 -5.40973 -4.07713 10
92 1 -9.42839 -2.46003 4.47773 12
93 1 -3.53696 -8.12389 -6.07209 12
94 1 -2.16199 -4.02586 -8.65739 16
95 1 -0.184901 -4.27511 -0.445904 17
96 1 -7.94459 -4.07448 -5.99945 20
97 1 -3.28516 0.562394 7.81566 12
98 1 -2.85171 3.82487 6.30391 14
99 1 6.04093 -5.37312 -7.01943 10
100 1 1.80944 9.8849 -4.52086 17
101 1 5.92792 0.546631 -7.41241 14
102 1 -3.42029 4.34015 -13.2405 17
103 1 -11.5603 7.13431 -0.370071 13
104 1 0.305865 -4.41848 6.49514 11
105 1 -7.94513 1.33271 -11.6665 12
106 1 4.60225 -3.49108 0.975977 17
107 1 3.8419 6.13314 4.25864 14
108 1 -1.96845 -6.64112 2.92504 10
109 1 5.50382 4.20435 0.735563 19
110 1 6.12561 6.11305 2.45085 12
111 1 2.74973 8.93684 2.72534 14
112 1 -6.8438 7.25552 -10.2827 13
113 1 -5.53919 -4.44628 -3.83589 22
114 1 -9.24284 9.40246 -2.70136 16
115 1 5.61178 7.75733 -7.22913 9
116 1 -0.496078 2.40663 7.85712 11
117 1 -0.622007 -0.718479 -11.9201 12
118 1 2.00235 12.8956 -0.0923998 14
119 1 3.36313 -4.9806 -8.58312 17
120 1 1.52463 -6.55339 3.84957 10
121 1 -7.94675 6.1604 5.15397 12
122 1 8.44325 1.39055 -0.11957 12
123 1 -2.90471 9.41109 -6.54294 14
124 1 5.66095 4.03664 -8.23449 12
125 1 -6.08321 2.09309 7.0362 12
126 1 -5.40972 -1.29831 6.31509 13
127 1 -8.395 11.0693 0.412124 12
128 1 2.92983 9.14953 -0.693647 19
129 1 -11.0709 -2.75194 1.43566 10
130 1 5.65834 -0.402538 -1.04444 17
131 1 -7.55191 -6.55571 -1.66613 14
132 1 8.10186 4.6792 -0.122539 14
133 1 1.54799 -7.98122 -3.52632 11
134 1 -0.142058 13.8534 2.3319 10
135 1 -10.8673 -3.233 -5.06705 13
136 1 -0.198274 8.60771 -10.4438 14
137 1 -6.91811 -2.19836 -8.72334 14
138 1 1.4136 -3.18427 -10.1815 14
139 1 -6.29151 -7.3566 -7.06752 12
140 1 4.89293 -3.0005 -2.65862 20
141 1 -12.2803 -2.72194 -2.20396 10
142 1 -5.14906 7.03039 -13.6189 9
143 1 -8.77268 -6.95547 -6.29896 11
144 1 7.32195 -2.41748 -0.0142377 9
145 1 -3.11863 0.647422 -12.1478 16
146 1 -8.58561 8.20691 -0.0819748 19
147 1 -9.81367 3.45882 5.26282 11
148 1 4.4095 10.7194 0.65064 10
149 1 6.79512 5.5389 -3.04098 13
150 1 -5.81239 -3.11642 4.31046 15
151 1 2.67786 3.78762 -10.6096 12
152 1 3.23532 9.27848 -9.75423 9
153 1 2.50872 12.5917 2.79298 10
154 1 -1.12723 11.8583 -5.54055 13
155 1 5.44097 2.88168 -5.23556 15
156 1 3.36371 -4.54655 -4.93843 21
157 1 -2.74675 9.42681 3.07131 16
158 1 -7.20914 11.8175 -2.54279 12
159 1 -6.59269 -6.62863 1.39806 10
160 1 1.01832 -5.91909 -1.94815 18
161 1 -10.7313 -5.74948 -3.42461 10
162 1 -10.2427 8.72218 -5.6702 11
163 2 -10.745 3.26893 0.563995 16
164 2 5.09308 6.01394 0.707547 19
165 2 -8.78665 1.7784 -7.03844 18
166 2 -6.41529 -4.65608 0.932455 18
167 2 -2.17452 2.11619 6.97209 15
168 2 -3.57034 11.5053 0.500653 18
169 2 1.89507 -5.25532 -9.9854 10
170 2 -5.29902 3.25579 -10.2711 20
171 2 -2.0972 -1.79822 -12.1879 10
172 2 -4.93684 9.38845 2.39054 20
173 2 6.25125 -2.31121 -1.5568 14
174 2 5.08079 9.33509 -0.697005 13
175 2 -2.16596 11.2525 3.03775 14
176 2 1.57223 13.7559 1.58138 9
177 2 1.35557 9.33484 -9.49625 12
178 2 2.23417 1.9806 -10.3621 13
179 2 -11.997 2.3068 -8.43947 10
180 2 -4.21083 -2.91255 5.67699 12
181 2 -12.3134 5.40583 -1.13696 11
182 2 5.69951 -6.43745 -5.47945 9
183 2 -6.61251 -8.26257 -2.17438 11
184 2 0.791834 9.17293 3.40378 17
185 2 -2.30061 -1.16862 7.38579 13
186 2 -8.03047 -1.87265 0.758832 19
187 2 -3.25728 -7.91404 -1.90345 14
188 2 -9.56201 -5.345 -1.8918 14
189 2 -4.96804 -7.99551 -4.70596 13
190 2 -7.35379 -8.2238 -5.76517 10
191 2 -6.90713 11.6032 1.66721 11
192 2 4.88565 7.94137 -5.53068 13
193 2 0.328414 6.739 -12.0464 14
194 2 6.64266 3.75873 -0.835847 18
195 2 -2.30287 13.2122 -1.56002 13
196 2 -6.88252 9.72201 4.50967 11
197 2 -0.921116 12.6952 -3.93648 14
198 2 -1.82288 8.38548 -11.3539 13
199 2 -3.22611 8.5344 4.73029 14
200 2 0.182 0.700504 8.1459 9
201 2 5.31893 -4.04771 -8.52413 12
202 2 -1.82709 -6.1104 -9.3222 9
203 2 -9.88794 -6.38598 -4.92821 10
204 2 4.55764 -4.98527 -3.26728 17
205 2 2.76398 8.22333 1.03107 18
206 2 -3.14653 2.44776 -13.0725 17
207 2 0.57304 -1.45024 -10.355 14
208 2 -5.51695 -2.57918 -12.3814 8
209 2 -0.150415 -3.94673 -9.01227 18
210 2 5.3665 -1.2374 -7.7505 14
211 2 -0.674694 1.22031 -11.5672 15
212 2 -4.45785 -7.17276 -7.51824 12
213 2 -2.72842 5.65276 -10.3158 22
214 2 -8.2489 -6.85108 0.0580767 13
215 2 -8.55986 5.54238 -3.34933 23
216 2 -9.74004 -3.98304 1.1143 12
217 2 -11.4114 -1.217 -3.19972 15
218 2 3.08688 -5.86332 2.91948 10
219 2 0.508382 12.3939 3.44596 10
220 2 -4.66228 3.33328 6.02892 15
221 2 -11.2294 6.21924 1.2968 14
222 2 -8.76927 -1.27792 -8.38714 12
223 2 5.02076 6.66752 -2.51211 16
224 2 -11.7235 2.20047 -2.02044 16
225 2 -6.35152 7.34538 -8.25755 17
226 2 -0.639158 3.86753 -10.6366 18
227 2 -11.314 5.03372 -3.62118 17
228 2 2.63083 -7.5128 -4.88664 14
229 2 -2.57781 -6.90981 -5.19505 14
230 2 -7.32768 8.33244 -2.08071 21
231 2 -0.457703 -7.42948 -1.27009 12
232 2 2.93712 7.95474 4.25315 11
233 2 -4.47553 12.6916 -3.87976 11
234 2 -1.39623 -2.01511 4.04123 22
235 2 -3.29388 6.69498 -13.7304 10
236 2 0.0797213 -2.38022 6.26668 11
237 2 3.25712 9.40201 -2.95831 18
238 2 3.34943 10.9267 2.15757 12
239 2 -11.1735 -2.35946 -0.576034 14
240 2 -0.0618173 6.63121 4.82424 17
241 2 5.31681 -0.0482792 3.56383 12
242 2 -1.50935 4.94313 -12.9462 13
243 2 -0.0466045 3.77448 6.65624 13
244 2 3.39372 -2.0314 0.657357 20
245 2 -9.2031 1.40636 -10.0586 11
246 2 -8.4449 8.14904 -5.86965 17
247 2 -12.6919 5.88014 -8.81252 8
248 2 -4.65718 -2.67664 2.39728 21
249 2 3.47852 11.6999 -0.568293 12
250 2 -6.15819 0.572728 -11.8106 18
251 2 8.57141 2.33389 -1.73376 11
252 2 -10.5646 8.81246 -3.85962 14
253 2 4.54167 -4.81774 -0.410057 15
254 2 -7.67613 -3.07916 3.67748 12
255 2 -8.85312 -3.79734 -7.91646 14
256 2 -3.17455 10.9427 -5.57713 15
257 2 -8.04694 9.41928 1.44069 17
258 2 -1.35879 -4.39841 5.54876 14
259 2 -10.1174 7.75767 -1.35754 15
260 2 -2.30606 5.56996 6.2016 12
261 2 -7.84533 5.20557 -7.15652 19
262 2 1.86536 11.789 -3.61382 13
263 2 -5.97901 6.66743 4.72923 16
264 2 -5.89116 2.11922 -14.7053 11
265 2 -3.48072 -4.37392 -7.25293 19
266 2 3.75687 2.71152 4.14129 15
267 2 6.26913 2.34985 -7.63884 11
268 2 -0.0717185 -6.88412 3.07143 11
269 2 -7.76969 4.15074 5.03374 19
270 2 -11.4043 -1.98615 -6.74125 11
271 2 -10.1116 4.15348 3.52064 14
272 2 -10.8853 -1.67466 2.86972 11
273 2 -6.16933 -4.84637 -5.55467 21
274 2 -5.20597 7.68847 -11.6343 11
275 2 1.50791 8.57441 -6.32384 18
276 2 2.86227 -2.86542 -8.92782 16
277 2 6.97056 2.36919 4.17314 9
278 2 5.43015 5.30304 4.12596 12
279 2 -3.30766 8.55053 -8.11697 17
280 2 -4.00711 -0.546305 -13.6683 11
281 2 -6.0189 12.6458 -1.31552 12
282 2 -6.03178 9.60174 -6.72487 12
283 2 -9.68053 7.02721 -9.01772 12
284 2 -8.65365 7.02969 3.49095 15
285 2 3.64988 -6.3582 -7.34612 14
286 2 -10.6838 4.2953 -9.7153 11
287 2 -5.4251 4.99412 -13.3844 14
288 2 3.80425 -2.85801 3.6828 14
289 2 -10.1131 1.59367 5.47194 10
290 2 -9.12674 0.930241 2.87157 21
291 2 6.34972 -2.57393 1.43351 12
292 2 -10.9878 3.42593 -5.68067 18
293 2 -7.6006 1.15067 6.35981 15
294 2 -1.94928 -6.63181 0.970004 12
295 2 7.90782 1.61089 1.66778 11
296 2 -0.292988 -7.78458 -3.8585 16
297 2 -8.51818 10.5836 -1.34243 13
298 2 -7.66912 3.16186 -12.606 11
299 2 -9.45911 -0.92943 5.49614 10
300 2 1.30298 -4.94773 5.01155 10
301 2 3.11915 6.13049 -10.7143 12
302 2 7.22513 4.58264 1.77708 14
303 2 7.45933 -0.368669 -0.473821 11
304 2 6.36942 -4.00163 -5.66201 12
305 2 2.85093 -7.14429 -2.41425 13
306 2 5.80478 5.94183 -7.98398 11
307 2 -11.7244 -4.04888 -3.4105 11
308 2 -12.5209 0.720915 -5.16685 9
309 2 1.52129 -5.03123 0.0843806 16
310 2 -0.385066 10.4484 -6.35354 14
311 2 6.35221 3.69962 -3.78386 15
312 2 4.3203 8.34952 -8.48881 11
313 2 5.33829 -1.64722 -4.35339 19
314 2 -0.0167894 -6.40157 -7.02152 17
315 2 -6.44298 -3.93979 -9.52182 12
316 2 0.628088 13.3559 -1.34428 12
317 2 -1.47996 13.5791 1.08367 10
318 2 -5.2991 -7.43796 0.42464 12
319 2 -5.00869 0.297618 7.14051 13
320 2 7.20732 6.17976 -1.01726 11
321 2 3.88599 3.53524 -8.94278 15
322 2 -7.42007 5.07666 -10.1196 15
323 2 -7.77374 -6.23951 -7.79912 11
324 2 1.548 -4.71943 -5.49523 23
325 1 -8.16091 1.23891 -5.27232 19
326 1 -9.36548 -1.28701 -3.64539 18
327 1 -2.75122 -4.74155 -5.44015 20
328 1 -2.40152 1.27164 -8.51883 22
329 1 -5.29591 1.40465 -7.15052 20
330 1 -3.66431 -1.71015 -7.22514 20
331 1 -6.16747 -1.3094 -5.24527 21
332 1 -2.41076 0.956046 -5.47802 21
333 1 -5.01808 1.45443 -3.74971 22
334 1 -3.38052 -1.17674 -3.67958 22
335 2 -8.98606 -3.44754 -4.55939 18
336 2 -9.16027 0.560107 -3.74661 21
337 2 -3.73377 -4.79252 -3.66142 20
338 2 -3.62432 1.04772 -10.2986 19
339 2 -6.14693 0.644712 -8.53662 20
340 2 -2.27638 -2.03686 -8.64725 16
341 2 -5.86064 -2.35715 -6.87749 17
342 2 -3.56927 1.31615 -6.80837 18
343 2 -6.30357 0.601266 -5.4365 23
344 2 -2.75525 -1.23662 -5.53698 23
345 2 -5.19717 -1.7314 -3.70817 20
346 2 -3.19655 1.0535 -3.40399 22
347 1 -8.26079 1.05149 -2.03293 21
348 1 -9.15729 -1.70385 -0.893107 18
349 1 -8.34332 0.187845 1.14517 20
350 1 -2.78729 -3.91505 -2.19004 20
351 1 -3.27701 -4.01146 1.57317 19
352 1 -6.24333 -1.37129 -2.03537 23
353 1 -2.21452 1.27586 -1.97348 21
354 1 -5.29364 0.821373 -0.0544435 23
355 1 -3.45617 -1.18604 -0.604154 23
356 1 -5.96998 -1.88225 1.16522 19
357 1 -2.23808 1.22029 1.71095 21
358 1 -5.2718 0.272232 3.39674 19
359 1 -3.16504 -1.519 3.00994 21
360 1 -2.31391 1.32596 4.83039 21
361 2 -8.13207 -1.85672 -2.312 19
362 2 -9.13609 0.421087 -0.615615 20
363 2 -6.59913 -4.99806 -2.3755 21
364 2 -3.4455 -4.68375 -0.565049 20
365 2 -6.21535 1.09873 -2.2487 24
366 2 -2.4957 -1.89513 -2.29438 20
367 2 -5.1241 -2.40643 -0.73136 21
368 2 -3.36135 1.01251 -0.528132 22
369 2 -6.13744 0.0476541 1.22534 21
370 2 -2.59809 -1.78656 1.04196 22
371 2 -5.91134 -1.1962 4.42645 17
372 2 -3.36116 0.705253 3.205 19
373 2 -6.49859 1.75804 3.38095 19
374 1 -9.0739 3.62809 -6.41035 20
375 1 -7.97351 6.24471 -5.15433 21
376 1 -9.38456 3.7857 -3.29076 22
377 1 -3.29438 3.68147 -10.3978 20
378 1 -6.76263 4.20682 -8.46674 18
379 1 -2.25578 6.96815 -8.56779 19
380 1 -5.34772 6.63716 -6.9055 21
381 1 -3.26766 4.13135 -6.96056 22
382 1 -6.4796 3.88023 -5.17261 21
383 1 -2.3762 6.27839 -5.12179 21
384 1 -5.04892 5.5861 -3.28571 20
385 1 -3.18425 3.09137 -3.80389 21
386 1 -7.10332 9.34542 -5.23733 16
387 1 -3.28239 8.25613 -3.29869 16
388 2 -8.13782 3.28905 -4.72376 20
389 2 -11.2665 7.34831 -6.53159 11
390 2 -2.55236 3.6259 -8.54224 19
391 2 -5.55341 3.63243 -7.06283 22
392 2 -3.36545 6.27531 -6.85759 17
393 2 -6.12687 5.97171 -5.27624 22
394 2 -2.35275 4.2048 -5.23072 20
395 2 -4.99422 3.53255 -3.53145 20
396 2 -3.25429 6.36554 -2.99097 20
397 2 -2.44458 8.24963 -5.03654 17
398 2 -6.44797 10.5762 -3.70853 15
399 1 -7.54849 6.49454 -2.08665 19
400 1 -9.19646 4.45493 -0.308756 26
401 1 -6.27909 3.24963 -1.75316 21
402 1 -2.40041 5.33381 -1.63731 21
403 1 -5.05783 5.2846 0.384382 22
404 1 -3.35669 3.02434 -0.271496 21
405 1 -6.54528 2.835 1.78114 22
406 1 -2.04697 6.60864 1.23431 19
407 1 -4.99935 6.10143 3.13821 20
408 1 -3.13319 3.77664 2.74688 25
409 1 -5.88981 3.57498 4.42191 17
410 1 -5.5604 9.17273 -2.41653 19
411 1 -2.99397 9.79949 -0.0713581 18
412 2 -8.62909 3.06337 -1.57881 21
413 2 -8.35381 6.29825 -0.119363 20
414 2 -8.08428 3.9586 1.3825 22
415 2 -6.09648 5.13783 -1.70058 21
416 2 -2.08499 3.2833 -2.04015 22
417 2 -5.39294 2.84245 0.0414714 20
418 2 -3.25172 5.39677 6.90061e-04 19
419 2 -5.80243 6.74272 1.48847 20
420 2 -2.20503 3.14172 1.22227 22
421 2 -5.16333 4.24131 2.71245 19
422 2 -2.72653 6.16611 3.04783 20
423 2 -2.09069 3.3317 4.45252 22
424 2 -1.87736 9.76117 -2.13227 16
425 2 -4.72804 9.09209 -0.64192 17
426 2 -1.95698 8.65756 1.56603 20
427 1 -0.186316 -3.90521 -4.28958 22
428 1 -0.445177 -1.26658 -8.78515 22
429 1 1.11762 1.49635 -7.05282 23
430 1 2.47337 -1.51453 -7.48568 22
431 1 -0.784775 -1.77981 -6.03729 22
432 1 3.49264 0.401427 -5.96591 22
433 1 0.241739 0.783691 -4.18688 22
434 1 2.16808 -1.60134 -4.33554 21
435 2 -1.04633 -3.85181 -6.02683 21
436 2 -0.332946 1.40365 -8.53445 18
437 2 0.655957 -1.69063 -7.244 25
438 2 2.7003 0.379816 -7.63739 23
439 2 -0.644962 0.828598 -6.00285 20
440 2 3.40092 -2.54188 -5.85765 21
441 2 0.153406 -1.72578 -4.21931 21
442 2 2.34954 0.376367 -4.38158 22
443 2 5.35678 0.982318 -5.41661 16
444 1 -0.524151 -1.55179 -2.18711 21
445 1 3.29134 0.0202162 -2.56027 22
446 1 0.632431 1.03902 -0.51567 22
447 1 2.21182 -2.26188 -0.783124 21
448 1 -0.313899 -1.32658 1.04253 20
449 1 3.34075 1.10222 0.851539 20
450 1 0.76336 0.945227 2.88813 19
451 1 2.56702 -1.78096 2.44069 18
452 2 -0.43222 -4.62864 -2.29749 18
453 2 -2.93343 -4.99837 3.20821 16
454 2 -0.0311985 0.30851 -2.33076 25
455 2 3.08045 -1.97003 -2.35032 20
456 2 0.177761 -2.41555 -0.587663 20
457 2 2.51883 0.650117 -0.919899 22
458 2 -0.267604 0.715793 1.34811 22
459 2 0.714945 -1.92474 2.79936 17
460 2 2.4801 0.293015 2.50532 19
461 2 -0.334692 1.12609 4.38302 16
462 2 5.00086 0.710711 -2.34017 20
463 1 -0.757971 3.49622 -8.89522 21
464 1 0.728101 6.77114 -7.21619 21
465 1 2.76695 3.88566 -7.10714 22
466 1 -0.453798 3.95957 -5.17608 21
467 1 2.88322 7.0763 -5.87274 20
468 1 0.516499 6.58971 -3.77535 20
469 1 2.58225 2.75333 -4.01904 22
470 1 -0.533557 8.83228 -5.33698 18
471 1 6.3104 0.0696355 -4.05195 17
472 2 -0.17699 7.20109 -9.00064 19
473 2 0.755127 3.4518 -6.94936 19
474 2 2.75041 5.89811 -7.38853 18
475 2 -0.361042 6.38343 -5.54723 20
476 2 3.68442 3.22061 -5.65987 21
477 2 0.760651 3.21088 -4.12469 22
478 2 2.49994 6.23009 -4.10825 21
479 2 0.350247 8.40576 -3.62474 21
480 1 -0.156534 3.66694 -2.10837 22
481 1 3.39341 5.59633 -2.56123 20
482 1 0.597632 6.50264 -0.370793 21
483 1 2.52568 3.68369 -0.771909 21
484 1 -0.34911 3.84483 1.11028 24
485 1 3.31454 6.46329 0.892292 21
486 1 0.342772 5.62848 3.18141 21
487 1 2.89517 3.72878 2.551 20
488 1 -0.165577 3.06806 4.79199 18
489 1 -0.113073 9.29709 -1.99505 17
490 1 -0.0288224 8.80955 1.52822 17
491 1 5.53587 2.59633 -2.10989 22
492 2 -0.13867 5.54962 -2.00066 22
493 2 3.28983 3.53364 -2.5217 20
494 2 0.759701 3.30606 -0.336574 22
495 2 2.48908 6.1256 -0.900304 21
496 2 -0.143285 5.90341 1.17465 23
497 2 3.70139 3.16698 0.779144 19
498 2 0.390653 3.38382 2.94772 20
499 2 2.49178 5.6831 2.65019 22
500 2 0.633527 8.84957 -0.353247 17
