ITEM: TIMESTEP
199000
ITEM: NUMBER OF ATOMS
500
ITEM: BOX BOUNDS pp pp pp
-30.0 30.0
-30.0 30.0
-30.0 30.0
ITEM: ATOMS id type x y z Coordination
1 1 -7.04008 -4.58921 -7.37185 12
2 1 -5.98032 -6.35195 -2.42261 15
3 1 -9.09007 -7.20636 2.48171 11
4 1 -5.8339 -1.52884 -9.04505 15
5 1 -9.97932 -3.60866 -5.89807 7
6 1 -6.07589 -1.56364 -5.92916 19
7 1 -9.29396 -3.24284 -2.47868 15
8 1 -7.17379 -3.88742 -4.08318 18
9 1 -8.81684 -5.98804 -0.679272 13
10 1 -6.05499 -0.914568 -2.61874 23
11 1 -9.24359 -0.648547 -0.775175 17
12 1 -6.68692 -3.6643 -0.944212 24
13 1 -4.47589 -4.10865 -9.70466 8
14 1 1.07603 -7.2024 -7.80181 9
15 1 -3.77266 -6.3162 -4.7295 13
16 1 -1.01255 -8.62728 -5.07591 12
17 1 -3.43425 -8.88996 -3.25172 12
18 1 -0.430252 -6.62482 -2.83397 21
19 1 -3.22929 -6.54512 -1.34101 24
20 1 -1.10467 -9.17355 -1.33555 16
21 1 -0.355103 -0.956249 -9.37224 16
22 1 -3.63804 -0.586206 -10.692 10
23 1 -2.98009 -0.929618 -7.30406 24
24 1 -1.27166 -4.17902 -7.91254 15
25 1 -3.96201 -3.46812 -6.19604 19
26 1 -0.09207 -1.52504 -6.15256 21
27 1 -3.04546 -1.15261 -4.15022 22
28 1 -1.40711 -3.77781 -4.46808 20
29 1 -3.95764 -3.65172 -2.7186 23
30 1 -0.0698253 -1.12798 -2.83752 22
31 1 -3.31245 -0.799794 -1.03519 23
32 1 -1.06705 -3.69166 -1.2697 24
33 2 -6.05223 -3.67951 -5.83616 17
34 2 -7.20454 -6.80687 -1.13351 12
35 2 -6.79322 -0.751252 -7.58842 14
36 2 -9.06865 -3.69623 -4.17708 11
37 2 -8.80899 -4.22316 -6.9945 7
38 2 -8.68323 -4.10558 -1.00053 18
39 2 -7.04727 -1.4744 -4.17587 17
40 2 -9.57381 -1.19339 -2.62152 13
41 2 -5.86015 -4.44645 -2.66261 22
42 2 -9.69951 -6.00648 1.18068 10
43 2 -6.54168 -1.73917 -0.88605 23
44 2 0.080043 -5.67838 -8.35312 10
45 2 -6.13474 -3.62685 -8.8567 10
46 2 -2.63779 -7.90225 -4.73418 12
47 2 -0.0383778 -8.22986 -6.56674 8
48 2 -4.22259 -6.95298 -2.88122 16
49 2 -0.50081 -9.09515 -3.26185 14
50 2 -2.94427 -9.48755 -1.40683 12
51 2 -1.27473 -6.94864 -1.14409 22
52 2 0.236903 0.87274 -9.42148 17
53 2 -4.24632 -2.18544 -10.3434 8
54 2 0.207481 -2.79113 -9.40691 13
55 2 -3.28199 -3.81651 -8.05781 15
56 2 -1.06911 -0.998142 -7.61299 18
57 2 -4.02453 -1.74787 -5.75715 20
58 2 -0.553077 -3.84107 -6.20053 20
59 2 -3.18365 -4.24686 -4.52689 19
60 2 -1.20537 -1.56719 -4.36972 23
61 2 -4.12109 -1.58384 -2.72292 23
62 2 -0.373796 -4.37906 -3.01371 21
63 2 -2.89528 -4.40544 -1.28476 22
64 2 -1.17248 -1.80936 -1.26649 23
65 1 -9.54575 -4.12165 0.686731 13
66 1 -6.07548 -6.58101 0.591953 19
67 1 -6.09625 -6.55052 3.93707 18
68 1 -5.61634 -7.10945 7.10193 12
69 1 -9.71275 -4.21558 3.81665 14
70 1 -6.04777 -0.970333 0.704914 20
71 1 -8.64674 -1.72998 2.04597 17
72 1 -6.59525 -3.88703 2.64582 21
73 1 -8.71256 -6.02617 5.67212 11
74 1 -6.01145 -0.877493 3.85952 21
75 1 -8.61354 -1.8677 5.25553 15
76 1 -6.48516 -3.85523 5.77956 20
77 1 -6.50115 -1.02838 7.47969 14
78 1 -5.30737 -3.90027 8.97382 9
79 1 -3.93572 -9.26032 0.1296 12
80 1 -0.147337 -6.60334 0.313607 21
81 1 -2.86572 -7.20151 1.98365 20
82 1 -0.964954 -9.82981 1.82723 14
83 1 -0.119904 -6.98773 3.61384 21
84 1 -2.94118 -7.22965 5.20147 20
85 1 -0.322792 -9.64238 5.50041 11
86 1 -2.38253 -7.83181 8.09004 10
87 1 -3.94868 -3.94173 0.52855 21
88 1 -0.289048 -0.970294 0.435499 22
89 1 -3.18717 -1.74348 2.32185 19
90 1 -1.18854 -4.01252 2.37656 20
91 1 -3.97864 -4.45822 3.68233 20
92 1 -0.0216394 -1.49488 3.88651 21
93 1 -3.18811 -1.43563 5.50027 19
94 1 -1.11539 -4.25664 5.32337 21
95 1 -3.55513 -4.99067 7.09156 20
96 1 -0.369214 -1.5615 7.31078 22
97 1 -3.29799 -1.80341 8.87929 16
98 1 -1.42652 -4.43965 9.08034 17
99 1 1.63284 -3.85401 10.4619 10
100 2 -7.09472 -6.99403 2.21376 15
101 2 -6.88806 -6.93979 5.59265 13
102 2 -8.63653 -3.53675 2.35549 18
103 2 -5.66688 -4.61154 0.838914 25
104 2 -9.64729 -6.33376 4.04815 9
105 2 -6.7076 -1.84875 2.54807 22
106 2 -9.32028 -0.75263 3.64982 16
107 2 -5.75785 -4.60798 4.24137 21
108 2 -8.29971 -4.03068 5.20978 16
109 2 -6.53612 -1.81807 5.48024 19
110 2 -5.80436 -5.24373 7.58009 13
111 2 -5.33661 -1.90036 8.86678 13
112 2 -4.11242 -7.20059 0.459027 17
113 2 -0.133951 -9.74789 0.250236 15
114 2 -2.93251 -9.44174 1.73425 10
115 2 -1.07742 -6.30117 2.17237 21
116 2 -4.04701 -6.787 3.6756 20
117 2 -0.266103 -9.3321 3.44176 16
118 2 -0.976611 -8.62416 6.90519 11
119 2 1.60617 -9.20692 5.48587 11
120 2 -3.59083 -7.02126 6.90028 14
121 2 -1.11743 -6.35901 8.19992 14
122 2 -4.01161 -1.33798 0.617427 22
123 2 -0.130091 -4.61556 0.28827 23
124 2 -3.03839 -3.87129 2.10365 20
125 2 -1.3333 -1.22334 2.2913 20
126 2 -3.90813 -0.809216 3.8712 21
127 2 -0.0818117 -3.42359 3.7756 20
128 2 -3.03299 -3.62202 5.57844 24
129 2 -0.984384 -0.931292 5.58969 21
130 2 -3.57855 -0.588618 7.17234 19
131 2 -0.172291 -3.53823 7.68395 23
132 2 -3.27214 -3.93915 8.97205 14
133 2 -1.55022 -0.709919 9.19428 17
134 2 -0.221819 -3.63649 10.3904 12
135 2 3.03556 -4.64966 9.2291 12
136 1 -6.29216 0.985521 -8.10081 12
137 1 -8.79662 -0.565417 -4.25723 15
138 1 -5.42754 3.96821 -7.18596 15
139 1 -9.26561 3.60429 -4.81887 9
140 1 -6.89222 1.55266 -4.8025 19
141 1 -9.90691 2.03277 -2.62461 14
142 1 -6.07079 3.99793 -2.99259 20
143 1 -9.91263 5.07787 -1.62167 13
144 1 -6.94125 1.54471 -1.2166 21
145 1 -6.92603 5.59644 -5.04025 12
146 1 -7.11979 7.50993 -2.21383 11
147 1 -0.533271 1.85776 -10.7528 13
148 1 -3.74068 1.87358 -9.54474 15
149 1 -0.50836 4.80614 -9.84927 12
150 1 -2.79 4.52262 -7.77388 18
151 1 -0.691635 1.12799 -7.84612 21
152 1 -4.02941 1.67375 -6.08536 24
153 1 -0.181634 3.80264 -6.32806 22
154 1 -2.87942 4.23955 -4.51438 23
155 1 -1.15721 1.6785 -4.38271 24
156 1 -4.01354 1.5269 -2.81019 20
157 1 -0.0563575 4.17103 -3.14202 24
158 1 -3.00204 3.88868 -1.44528 21
159 1 -1.18451 1.63474 -1.27259 24
160 1 -0.821319 7.1144 -7.40695 15
161 1 -4.10136 6.85089 -5.85591 13
162 1 -2.85785 9.56188 -2.51754 13
163 1 -1.26337 6.99698 -4.22628 20
164 1 -4.00384 6.81366 -2.87607 20
165 1 0.33568 9.14336 -4.69535 10
166 1 -5.38791 9.48532 -0.646457 12
167 1 -1.52514 6.67979 -1.23533 23
168 2 -5.13679 0.426064 -9.59637 12
169 2 -4.26946 3.30148 -8.65715 13
170 2 -6.02579 2.01859 -6.46561 19
171 2 -8.93381 1.31469 -4.28352 12
172 2 -7.24532 3.77584 -4.38021 16
173 2 -9.91342 3.95042 -3.15852 12
174 2 -5.99989 1.23844 -2.94868 21
175 2 -9.02375 1.24479 -1.08377 18
176 2 -6.8113 3.52648 -1.24499 23
177 2 -5.46616 5.79663 -6.35505 14
178 2 -6.03579 6.0344 -3.4465 15
179 2 -8.96747 6.74823 -1.37937 12
180 2 -7.10116 8.80575 -0.836119 10
181 2 -2.18245 0.823432 -10.5045 13
182 2 0.40587 3.53749 -10.7995 14
183 2 -3.04851 0.975634 -7.79234 23
184 2 -0.985891 4.1631 -8.06732 19
185 2 -3.69065 3.77687 -6.18893 21
186 2 -0.188176 1.33908 -6.07038 20
187 2 -3.03571 0.940362 -4.57474 21
188 2 -1.14389 3.61984 -4.67214 20
189 2 -3.90786 3.50506 -3.11488 22
190 2 -0.138182 0.8019 -2.89356 23
191 2 -3.10093 1.30665 -1.04129 22
192 2 -0.864443 3.54877 -1.31725 22
193 2 0.00487598 6.51493 -8.97062 13
194 2 -2.63302 6.3884 -7.30647 15
195 2 0.180169 7.51959 -5.83466 16
196 2 -2.94855 6.43643 -4.38637 21
197 2 -1.44869 8.88033 -3.75273 14
198 2 -4.46763 8.58913 -2.19225 14
199 2 -0.202119 6.04019 -2.73644 25
200 2 -3.20822 5.91067 -1.49448 22
201 2 -1.7753 8.88843 -1.18515 16
202 1 -9.72599 2.58259 0.52079 15
203 1 -7.08804 4.50799 0.482415 21
204 1 -9.83811 5.50373 2.05965 12
205 1 -7.05716 1.62909 2.05563 20
206 1 -9.9522 0.910824 3.66296 13
207 1 -5.79064 4.37789 3.44029 20
208 1 -8.8688 3.56875 5.02316 13
209 1 -6.69393 1.64767 5.5259 18
210 1 -5.7077 5.09314 6.42111 14
211 1 -9.25545 0.625245 6.82893 10
212 1 -8.61629 8.11888 -0.0924489 11
213 1 -5.05497 10.6387 2.74864 5
214 1 -6.78512 7.00518 2.33115 16
215 1 -6.5673 8.08265 5.10084 9
216 1 -4.24416 1.91807 0.58623 20
217 1 -0.0980329 4.27801 0.22942 22
218 1 -2.88969 3.85992 2.24878 20
219 1 -1.3063 1.11372 2.12245 22
220 1 -3.92202 1.27933 3.95017 21
221 1 -0.0999932 4.05518 3.68727 20
222 1 -2.86783 3.89537 5.31088 23
223 1 -0.991066 1.1403 5.41312 24
224 1 -4.15124 1.1661 7.21766 19
225 1 -0.156858 3.86876 7.13829 24
226 1 -3.12193 4.24155 8.55602 14
227 1 -1.67646 1.12742 8.65803 18
228 1 -0.59173 -1.74073 10.2889 14
229 1 -0.733411 3.93618 10.1668 11
230 1 -4.17585 5.90201 0.518187 21
231 1 -0.115864 8.73151 -0.0427902 18
232 1 -2.70466 8.92372 0.93992 16
233 1 -1.12045 6.47017 2.0244 21
234 1 -3.97405 6.54078 3.40422 22
235 1 0.0760287 9.06163 3.22389 15
236 1 -0.310735 9.0829 6.80376 11
237 1 -1.18763 6.46936 5.36594 22
238 1 -3.68864 7.96491 6.62976 12
239 1 -0.995047 6.93608 8.39239 12
240 2 -9.94428 -1.96503 0.519218 14
241 2 -9.8077 4.55005 0.354039 15
242 2 -5.96147 0.988881 0.410388 22
243 2 -9.08161 1.57538 2.13932 17
244 2 -6.83742 3.64137 2.12398 24
245 2 -9.47813 4.47316 3.52739 13
246 2 -6.1132 1.00543 3.73965 22
247 2 -8.45677 -0.916233 6.79013 13
248 2 -6.63312 3.88922 5.34338 14
249 2 -6.267 1.00414 7.15287 15
250 2 -9.35906 1.78594 5.37848 12
251 2 -6.1604 6.02382 0.857861 20
252 2 -8.7839 7.01986 1.57235 12
253 2 -5.7741 9.64366 4.18636 9
254 2 -5.99411 6.76934 3.98515 15
255 2 -5.47948 7.47196 6.53661 10
256 2 -3.89355 3.94321 0.469711 21
257 2 -0.18326 1.11853 0.380685 21
258 2 -3.00247 1.77107 2.14149 20
259 2 -1.12506 4.36758 1.97207 24
260 2 -3.80232 4.65326 3.72387 22
261 2 -0.298805 1.91309 3.62416 23
262 2 -2.92812 1.79997 5.60323 23
263 2 -0.965066 4.42925 5.27307 21
264 2 -3.77352 4.77161 6.75513 19
265 2 -0.468203 1.88918 7.17472 25
266 2 -3.35478 2.24686 8.5667 14
267 2 -1.35488 4.93737 8.54972 17
268 2 -0.465868 1.97296 10.0289 14
269 2 -4.35953 9.90577 1.02974 11
270 2 -0.150461 6.30923 0.133013 22
271 2 -3.11321 7.09851 1.69291 20
272 2 -0.774569 8.96836 1.65159 15
273 2 -2.96179 7.23914 5.01926 20
274 2 -0.285936 7.09941 3.70883 21
275 2 -1.93379 8.12653 7.3188 10
276 2 0.351558 9.45876 5.01163 13
277 2 0.74836 7.49004 7.32992 12
278 1 1.29768 -4.39741 -9.10925 11
279 1 4.18603 -6.46342 -6.69231 15
280 1 2.03773 -6.92619 -4.62242 19
281 1 4.37127 -9.26199 -4.70959 9
282 1 1.46904 -9.43731 -2.58046 16
283 1 6.4142 -7.56091 -4.057 11
284 1 2.37942 -6.2495 -1.15258 22
285 1 4.34005 -8.67051 -1.59511 13
286 1 2.40975 1.0955 -9.85182 18
287 1 2.10765 -1.68862 -8.1891 20
288 1 5.32122 -0.916556 -9.34173 12
289 1 5.32335 2.73177 -10.0224 11
290 1 4.72674 -3.63882 -8.23791 13
291 1 1.53676 -4.28584 -6.25275 21
292 1 5.62473 -1.20256 -6.07899 21
293 1 2.78188 -1.28276 -4.35786 23
294 1 4.44509 -3.90779 -4.72649 22
295 1 1.51055 -3.79 -2.94519 23
296 1 5.72049 -1.40056 -2.96914 22
297 1 2.83429 -1.3993 -1.10926 21
298 1 4.5345 -3.88505 -1.52076 19
299 1 9.23442 -6.68578 0.0759438 9
300 1 7.92876 -2.0125 -7.55844 11
301 1 7.40427 -5.17733 -6.0202 13
302 1 8.6756 -2.05188 -4.94254 14
303 1 7.28736 -4.73154 -2.88081 15
304 1 11.2565 -1.45295 -2.74921 12
305 1 8.57939 -1.60764 -1.37033 23
306 1 10.2721 -4.234 -1.25911 13
307 2 2.20363 -6.26426 -6.42426 15
308 2 2.64258 -8.66728 -4.24939 16
309 2 5.21173 -7.49146 -5.49154 12
310 2 1.49114 -7.07557 -2.68551 19
311 2 2.87632 -9.57005 -1.36823 14
312 2 5.29509 -8.65398 -3.10927 10
313 2 3.26064 -0.836259 -9.41593 14
314 2 2.90888 -3.51273 -8.01177 16
315 2 5.8684 -1.99105 -7.92451 15
316 2 1.92167 -1.02731 -6.15032 22
317 2 5.44056 -4.86424 -6.80498 17
318 2 2.36481 -3.97777 -4.68503 20
319 2 4.58357 -1.95547 -4.60689 20
320 2 1.76512 -1.76744 -2.68347 24
321 2 5.2795 -4.56014 -3.10233 19
322 2 2.41688 -4.2061 -1.20294 19
323 2 4.91939 -1.89459 -1.12717 21
324 2 8.24663 -4.98104 -1.08954 17
325 2 8.30941 -3.59047 -6.33304 11
326 2 7.38514 -5.87449 -4.38716 12
327 2 10.3374 -1.57088 -4.4641 11
328 2 7.53211 -2.56513 -3.20113 24
329 2 10.1522 -5.01433 0.407289 12
330 2 10.3619 -2.24934 -1.20319 16
331 1 1.74011 -9.21713 0.314817 16
332 1 5.7844 -6.90874 0.981993 17
333 1 2.85058 -6.51225 2.03653 23
334 1 4.42418 -9.17424 2.00448 12
335 1 1.78341 -9.216 3.54493 14
336 1 5.18546 -6.30209 4.1491 20
337 1 2.51989 -7.30971 5.31955 18
338 1 4.06459 -6.19683 7.58897 12
339 1 1.6032 -3.56134 0.475155 22
340 1 5.80228 -1.08045 0.401165 23
341 1 2.8114 -0.86265 2.19395 20
342 1 4.53303 -3.61059 1.7629 21
343 1 1.73967 -4.41398 3.79968 22
344 1 5.46893 -1.12364 3.87568 20
345 1 2.1423 -1.49984 5.73755 21
346 1 4.11105 -3.68641 5.20753 25
347 1 1.69388 -4.15088 7.48853 22
348 1 5.1376 -1.16516 7.18037 19
349 1 2.60468 -0.992976 9.10703 17
350 1 4.6243 -3.91472 8.65008 13
351 1 0.317647 -7.16985 7.50689 16
352 1 8.35445 -6.92181 3.3209 11
353 1 6.99273 -3.95465 0.183554 23
354 1 10.9713 -1.53768 0.600243 15
355 1 8.39442 -1.2229 2.08336 22
356 1 10.1619 -4.37948 2.1676 14
357 1 7.14707 -3.89183 3.9675 19
358 1 8.28805 -1.92945 5.88688 11
359 1 6.95148 -5.35552 6.30009 13
360 2 1.83889 -7.02031 0.439597 23
361 2 5.06632 -8.34309 0.206992 13
362 2 4.52868 -7.43238 2.64077 18
363 2 1.79868 -6.45833 3.58079 20
364 2 2.51294 -9.47644 1.88772 13
365 2 4.38324 -6.85196 5.70097 14
366 2 -1.34837 -6.18629 4.97728 22
367 2 1.62288 -1.51533 0.503671 21
368 2 5.33414 -4.74798 0.283237 21
369 2 2.60481 -4.1011 2.06017 21
370 2 4.75673 -1.67 1.9686 23
371 2 1.85821 -0.825783 3.85444 21
372 2 5.25375 -4.18062 3.68716 22
373 2 2.37522 -3.59534 5.80826 24
374 2 4.2337 -1.68174 5.58322 21
375 2 1.62946 -0.763457 7.34806 23
376 2 5.10657 -4.7517 6.95845 18
377 2 2.00662 -6.11984 7.07731 17
378 2 4.42781 -2.15095 8.65214 17
379 2 1.40387 -1.97222 10.4115 14
380 2 7.76821 -7.09886 1.45516 14
381 2 7.11055 -5.97748 4.52441 13
382 2 7.59548 -2.0683 0.369224 23
383 2 8.33544 -4.81781 2.83863 19
384 2 9.99572 -2.44626 1.88177 14
385 2 7.47804 -1.4853 4.0006 18
386 2 7.7686 -3.69199 5.9927 11
387 2 7.12396 -0.873069 6.89139 13
388 1 2.09181 3.83054 -11.2969 11
389 1 2.95167 3.93303 -8.0568 21
390 1 4.54009 1.40192 -7.48373 21
391 1 1.72289 1.00518 -6.06779 22
392 1 6.31251 4.34688 -6.80936 12
393 1 2.88296 3.70535 -4.44572 22
394 1 4.60425 1.35828 -4.31056 20
395 1 1.82022 1.28369 -2.6644 24
396 1 5.79485 3.78972 -2.55294 22
397 1 2.6966 4.04051 -1.35062 24
398 1 4.56981 1.31207 -1.06037 23
399 1 1.91581 6.76871 -9.31265 11
400 1 4.53234 7.62203 -6.67068 9
401 1 1.88854 6.34864 -5.96361 20
402 1 5.10052 9.37055 -3.35607 11
403 1 4.9029 6.17418 -4.46052 17
404 1 1.68908 6.82151 -2.78673 21
405 1 2.3344 10.0366 -2.01406 10
406 1 4.72999 6.77734 -1.3789 22
407 1 7.62938 1.17478 -6.08231 15
408 1 8.53043 3.51775 -4.33941 12
409 1 10.3579 0.526849 -4.34848 11
410 1 7.55828 1.28443 -2.7755 23
411 1 8.62637 4.03843 -0.997994 17
412 1 10.4355 1.18645 -0.769477 16
413 1 7.30994 6.73152 -2.58508 14
414 2 3.36496 2.51325 -10.8941 13
415 2 2.44224 4.9488 -9.61023 15
416 2 5.20183 0.914873 -9.23904 13
417 2 2.47199 1.81467 -7.90292 22
418 2 4.84208 3.4348 -7.85334 15
419 2 1.71934 4.29264 -6.17222 20
420 2 5.31664 0.811418 -5.95107 22
421 2 2.70506 0.852628 -4.3899 23
422 2 4.73731 3.3258 -4.32573 23
423 2 1.65702 3.26983 -2.89032 25
424 2 5.61831 0.623426 -2.69774 25
425 2 2.64661 0.613838 -1.17341 24
426 2 4.60242 3.27958 -0.986186 25
427 2 2.74258 7.20454 -7.65803 13
428 2 5.45176 5.98735 -6.301 13
429 2 2.97275 5.81675 -4.41747 20
430 2 5.03901 8.52144 -5.04306 12
431 2 1.8677 8.72962 -3.40445 15
432 2 5.60978 5.62547 -2.74966 20
433 2 2.82085 6.06495 -1.24491 22
434 2 4.23275 10.1449 -1.82423 10
435 2 7.92054 -0.689839 -6.09292 15
436 2 7.46263 3.26036 -5.82428 14
437 2 8.76655 1.58387 -4.40711 13
438 2 7.68417 3.41081 -2.42529 19
439 2 10.7658 0.487286 -2.48937 12
440 2 8.45781 0.398084 -1.40857 23
441 2 9.78745 2.99569 0.134237 14
442 2 8.53131 6.2716 -1.23965 12
443 1 1.70251 1.55668 0.522808 23
444 1 5.56125 4.13477 0.699617 23
445 1 2.63445 4.14839 2.15511 21
446 1 5.00422 1.76377 2.28993 21
447 1 1.69251 1.24393 3.72318 20
448 1 5.50861 4.33048 4.10983 23
449 1 2.5769 3.67938 5.40698 22
450 1 4.36045 1.25318 5.7314 23
451 1 1.58361 1.26415 7.46627 22
452 1 4.84827 4.4149 7.39339 13
453 1 2.36885 3.89993 8.94492 16
454 1 4.21881 1.5135 9.18927 15
455 1 1.29689 1.74231 10.5933 13
456 1 1.8368 6.86357 0.344696 22
457 1 5.6896 9.83436 -0.674771 10
458 1 3.09522 9.46229 1.19358 14
459 1 4.93336 7.28786 2.0625 19
460 1 1.93682 6.55209 3.49848 21
461 1 2.28954 9.12468 4.81549 11
462 1 4.72414 7.44157 5.53899 12
463 1 1.95904 6.28688 6.59816 18
464 1 7.65254 1.15226 0.453517 22
465 1 8.80783 3.87729 2.0433 15
466 1 10.3933 1.69581 1.87382 11
467 1 7.90046 0.80588 3.96031 17
468 1 8.89016 3.4926 5.32835 9
469 1 7.04756 1.00066 7.3228 11
470 1 7.93687 6.58609 0.49045 13
471 1 7.38998 6.39748 3.83609 11
472 2 1.73501 3.77333 0.464557 20
473 2 5.48815 1.00662 0.752779 21
474 2 2.66165 1.24824 1.9997 19
475 2 5.97516 6.24843 0.376291 20
476 2 1.73618 4.59271 3.84529 22
477 2 5.58296 0.761901 3.92114 23
478 2 2.59881 1.53119 5.64121 20
479 2 4.70263 3.38499 5.62045 17
480 2 1.88402 4.25018 7.01344 19
481 2 5.12378 0.70805 7.58499 17
482 2 2.43254 1.06236 9.22484 16
483 2 4.33992 3.52331 8.95286 13
484 2 1.21758 3.70843 10.4816 11
485 2 1.78638 9.05082 -0.21802 16
486 2 4.96253 9.03282 0.858017 13
487 2 3.21467 6.3686 1.68874 20
488 2 6.16052 8.28541 -1.96922 12
489 2 2.38067 9.01474 2.92487 16
490 2 5.59324 6.86721 3.89698 15
491 2 2.81688 7.10982 5.10093 17
492 2 4.73867 6.1994 6.87702 12
493 2 7.3306 3.16229 0.747888 23
494 2 11.1342 0.35015 0.776398 13
495 2 8.63517 0.762292 1.99248 19
496 2 9.71057 3.12513 3.55145 10
497 2 4.67535 3.88834 2.34826 21
498 2 7.98168 1.78188 5.81014 13
499 2 7.46777 4.68669 4.66487 14
500 2 8.24202 5.5725 2.1934 16
