ITEM: TIMESTEP
46000
ITEM: NUMBER OF ATOMS
2000
ITEM: BOX BOUNDS pp pp pp
-30.0 30.0
-30.0 30.0
-30.0 30.0
ITEM: ATOMS id type x y z Coordination
1 1 -1.29822 7.53762 -10.0703 14
2 1 5.99728 -10.2267 -1.01001 22
3 1 13.1958 6.40377 15.9369 20
4 1 16.1864 -11.0254 7.15821 10
5 1 -2.22531 9.95312 4.24035 22
6 1 17.4663 -7.44997 -7.4784 11
7 1 -4.25753 3.41309 -3.56135 24
8 1 6.24792 -6.11265 12.9359 21
9 1 -1.0437 3.38433 -8.87177 18
10 1 -4.81547 -5.22391 13.6717 13
11 1 20.7879 5.0602 -6.78705 14
12 1 4.3367 -10.8045 7.09524 23
13 1 -5.40237 -7.81769 10.3971 15
14 1 8.76913 3.43481 22.3938 11
15 1 5.05289 4.10814 15.5666 22
16 1 4.09282 9.75219 -5.3247 23
17 1 6.97658 -0.134863 18.4542 15
18 1 -2.0164 -3.06085 -13.8668 10
19 1 -6.71887 -0.973783 17.9721 10
20 1 16.8858 6.7019 15.0027 23
21 1 4.65315 15.8371 -5.42379 17
22 1 9.54353 1.78605 -11.1844 24
23 1 19.6776 1.34695 9.08888 23
24 1 -6.45374 6.59259 -7.17017 9
25 1 4.22605 -1.28764 -5.90235 25
26 1 -6.66132 11.8348 15.7458 9
27 1 11.15 -11.8287 10.5046 12
28 1 10.9775 -10.9016 -3.92146 20
29 1 11.2279 -10.9124 1.87185 23
30 1 -4.55527 -9.52652 -6.11352 10
31 1 -6.1304 -4.16839 16.185 11
32 1 5.70735 -4.88538 -10.8542 19
33 1 15.1006 -7.3469 -9.98565 9
34 1 3.63464 8.76352 -13.2313 11
35 1 8.37771 4.16933 15.5024 21
36 1 6.75102 -9.10212 12.2225 14
37 1 9.63 -4.06656 15.7795 13
38 1 -9.31256 6.56744 7.8766 12
39 1 -9.02974 -0.464016 12.1289 15
40 1 -4.32965 1.05533 4.73761 20
41 1 2.08678 12.8356 -0.374053 22
42 1 4.46143 -12.6952 -6.13972 15
43 1 9.5518 -2.07153 -8.63872 24
44 1 7.83087 -4.82462 -8.25065 22
45 1 4.72584 1.66989 18.1086 19
46 1 -3.97727 6.79849 4.55832 25
47 1 9.21747 13.003 -5.57986 23
48 1 6.12315 12.8373 10.6736 24
49 1 -1.23486 6.96396 -6.64857 17
50 1 2.04416 14.7627 2.38643 22
51 1 12.7055 -9.79039 4.1954 21
52 1 12.5002 -4.04803 -0.900355 23
53 1 7.73125 -2.72814 -13.9719 11
54 1 -2.7031 12.5528 12.1796 20
55 1 -9.14131 0.747188 -2.32144 14
56 1 14.7699 -1.14982 4.46911 22
57 1 -2.59998 11.872 1.81533 21
58 1 -2.59817 -7.20012 10.319 19
59 1 4.20567 11.5747 13.4912 23
60 1 -7.27283 9.40076 -3.58486 11
61 1 -0.99688 14.8279 12.9809 10
62 1 -1.85822 -12.9335 11.0975 23
63 1 9.40192 7.18291 10.0022 22
64 1 7.90911 -13.7905 -4.52766 14
65 1 6.22079 11.823 16.0834 15
66 1 -6.74929 3.90294 -6.18302 14
67 1 -3.91316 8.34133 -8.2672 15
68 1 11.3169 11.2923 18.6215 12
69 1 15.9943 -3.92369 -10.6545 13
70 1 16.232 -7.9385 7.35789 16
71 1 -9.38223 0.45977 3.33702 17
72 1 14.6563 15.7777 10.1879 15
73 1 14.6848 1.86236 20.6551 13
74 1 -4.39636 -15.4916 10.8835 11
75 1 -7.53362 1.53271 -0.318012 21
76 1 15.5894 -0.340666 13.1198 21
77 1 14.4969 -1.1991 -0.873239 23
78 1 1.56189 11.2662 13.6291 18
79 1 12.9761 1.35832 9.5989 24
80 1 2.40103 -4.13637 -5.49203 21
81 1 -8.63273 8.80847 15.5973 11
82 1 -6.03877 11.4688 2.47849 20
83 1 2.3754 7.0773 -5.48394 22
84 1 14.5773 0.774997 -3.35327 22
85 1 13.0724 15.2775 -2.79337 13
86 1 13.033 -3.91023 4.62236 20
87 1 10.9482 -7.52693 9.29817 21
88 1 -1.16183 13.1511 -0.327419 24
89 1 -3.9084 16.488 4.62796 14
90 1 -5.77989 -1.05509 10.7375 21
91 1 2.70568 9.15878 7.58442 20
92 1 1.23676 -7.21023 9.85415 20
93 1 20.5794 -7.01417 -2.26405 10
94 1 -3.72774 1.48171 10.4012 23
95 1 -6.69951 -13.3921 9.21908 9
96 1 15.8839 -8.2044 -3.80014 15
97 1 9.2096 3.42527 -8.53496 25
98 1 1.57574 -3.36942 -14.0477 11
99 1 5.62712 14.6983 7.98284 22
100 1 -3.14292 9.40164 -11.3991 10
101 1 11.1645 8.58871 21.4222 10
102 1 5.419 12.8608 -0.351859 22
103 1 -7.89362 10.9665 5.11628 15
104 1 5.65596 13.0549 5.18643 24
105 1 2.2567 -2.6556 15.6753 18
106 1 20.798 4.60263 9.38538 18
107 1 4.27852 -5.06933 -3.30986 21
108 1 12.4942 -4.22794 -6.16774 21
109 1 4.18337 5.96603 12.8149 23
110 1 15.7255 4.92091 21.0208 10
111 1 -2.32295 -5.09458 2.41652 22
112 1 -2.30151 -4.87494 -3.10132 22
113 1 18.8983 -9.05306 5.76186 9
114 1 4.29635 9.98272 4.73813 22
115 1 7.28115 4.65621 -10.9731 24
116 1 7.22503 18.2114 1.84264 16
117 1 -2.39864 -16.321 12.9945 11
118 1 -3.53489 -13.4979 8.15597 15
119 1 10.6805 -6.40959 -12.0148 12
120 1 9.15827 7.20469 -5.96485 23
121 1 16.2002 -9.83209 4.08694 15
122 1 4.11365 -16.2864 10.6879 9
123 1 -2.11759 -7.05239 4.68074 21
124 1 20.1539 7.55564 15.2124 13
125 1 18.2596 -4.21637 -7.8115 14
126 1 -5.46145 -5.20641 7.35937 16
127 1 12.5223 9.00731 7.5605 22
128 1 19.7292 7.62287 4.05157 19
129 1 -1.74313 5.29436 19.3178 12
130 1 -0.630198 12.2813 15.0163 14
131 1 2.16809 19.3242 -5.3411 7
132 1 6.0085 -3.95042 -5.53297 24
133 1 12.1954 -7.89855 -9.17613 14
134 1 9.5963 14.7869 -7.96365 14
135 1 12.4763 -5.76048 13.3537 16
136 1 4.19055 2.26587 -14.5638 12
137 1 2.27989 9.07267 -2.95936 23
138 1 14.458 6.62566 -3.30316 23
139 1 -2.54964 12.339 -3.80864 16
140 1 -3.35973 16.0798 -0.728748 12
141 1 12.5719 1.82408 -5.76172 23
142 1 14.0898 -6.75834 9.37974 18
143 1 -4.46712 6.76517 -0.970515 20
144 1 -2.43165 15.0511 10.1398 15
145 1 20.5258 6.82604 -4.02978 16
146 1 14.1926 10.3162 -1.04993 20
147 1 -1.21659 18.6989 5.0039 13
148 1 14.0474 12.5245 1.68492 21
149 1 3.97442 9.82081 -0.557897 23
150 1 6.82816 17.8047 -3.69086 16
151 1 7.23744 11.8996 -8.09071 23
152 1 -3.81401 -8.00697 7.26807 22
153 1 -7.78149 8.87985 2.28552 16
154 1 -0.514249 -2.14771 -8.41541 22
155 1 9.97785 -12.2512 -7.56665 13
156 1 17.4466 11.9932 11.6835 19
157 1 4.54234 9.57958 15.7672 23
158 1 -7.49388 3.40166 -3.3567 15
159 1 -4.03283 12.4918 4.59879 20
160 1 22.3364 1.72483 -2.00906 14
161 1 -3.0242 2.91154 -11.0613 13
162 1 13.1664 3.18665 18.0884 24
163 1 16.3627 15.0695 1.05971 12
164 1 3.03429 8.56874 13.236 23
165 1 7.60967 -10.498 -9.48203 15
166 1 0.986305 15.4514 10.9271 18
167 1 5.28734 14.5653 -2.69533 23
168 1 8.25862 -1.25012 15.827 20
169 1 -3.36237 -4.2408 11.1057 19
170 1 4.39553 -10.8861 -8.58441 13
171 1 0.84523 10.0407 -5.83822 21
172 1 2.59166 -8.05309 7.19858 24
173 1 7.68521 -12.8605 -1.0151 23
174 1 1.92944 17.5548 -7.99071 12
175 1 -10.4276 3.5709 14.9922 10
176 1 17.4183 10.4062 -0.898221 17
177 1 -3.23216 10.9105 17.6067 10
178 1 5.91834 -4.03482 15.5451 14
179 1 -1.00518 7.33062 -0.784071 21
180 1 7.64262 17.5951 8.0538 14
181 1 6.00558 7.32019 10.2888 25
182 1 17.9001 3.74837 15.3383 20
183 1 -2.64927 17.5136 7.73486 11
184 1 14.379 -5.1002 -4.16404 18
185 1 -5.42559 12.723 12.2411 10
186 1 -2.67701 6.25776 -3.47519 19
187 1 20.606 -6.94518 3.28768 15
188 1 0.201355 -5.33171 15.436 15
189 1 -8.87409 0.497121 8.80468 18
190 1 -6.00273 -7.70067 5.08049 15
191 1 16.1582 4.70817 17.7294 21
192 1 -7.44152 3.40046 2.23679 22
193 1 4.37092 -12.3664 4.19234 24
194 1 10.9141 -7.11043 -1.31878 21
195 1 4.27566 11.7552 7.88948 23
196 1 10.8564 12.0101 13.4454 21
197 1 -2.51891 0.287501 -2.404 20
198 1 2.16037 14.9751 -3.16439 22
199 1 -5.77991 -1.45175 -0.296788 23
200 1 -1.58071 -4.06768 13.7517 17
201 1 4.55463 -13.1032 9.89775 19
202 1 7.72079 -10.1028 6.77973 24
203 1 -6.5889 13.629 4.26609 15
204 1 20.2565 11.0404 5.25356 11
205 1 14.5214 4.58231 -0.97597 20
206 1 -0.679931 -7.21401 -9.62253 15
207 1 9.1758 -0.199158 12.8075 21
208 1 13.5334 -12.6637 8.05997 12
209 1 5.5492 9.06801 -7.95098 23
210 1 12.0968 -9.77507 -6.92492 17
211 1 16.9917 2.93644 -10.9072 13
212 1 6.65209 7.81507 -13.5918 13
213 1 -0.776815 -2.14987 -2.90096 22
214 1 3.7005 15.5575 -0.279935 22
215 1 -5.26011 -12.1436 11.5495 16
216 1 12.1782 14.9915 2.06322 21
217 1 -3.44363 7.63473 17.9879 16
218 1 0.364988 11.993 -3.05701 21
219 1 16.217 1.29148 9.71763 21
220 1 1.16784 -4.66844 -8.19019 22
221 1 2.21136 12.8734 -5.7796 19
222 1 10.67 6.10567 -8.31321 25
223 1 -0.681467 -8.0632 7.13621 24
224 1 -7.04612 7.10878 10.3044 18
225 1 -2.44203 10.0888 9.85154 18
226 1 9.01413 -9.81142 -6.05177 22
227 1 2.61091 -9.73713 4.46722 25
228 1 14.2349 -10.7148 1.75554 18
229 1 19.2085 5.93883 17.1391 13
230 1 8.68511 9.18522 -8.60404 24
231 1 3.99354 12.1455 2.34247 22
232 1 -6.85922 -4.89964 10.8405 14
233 1 -8.91909 12.243 2.1774 9
234 1 7.62403 6.05284 12.7282 22
235 1 9.03488 -15.4644 5.5964 16
236 1 17.8827 0.729691 1.753 19
237 1 9.24142 9.15553 7.8074 25
238 1 -2.02697 6.19313 12.6176 23
239 1 -7.33029 -4.08911 0.153993 16
240 1 10.8096 4.60236 -11.2145 21
241 1 10.1246 1.02592 15.2883 21
242 1 12.1687 12.8908 -6.87315 15
243 1 9.49962 -10.317 -1.33283 21
244 1 2.43621 1.69613 -10.8273 23
245 1 7.9383 -12.7493 9.92243 13
246 1 20.9264 0.684934 -4.69319 15
247 1 -1.7432 -1.65498 10.7278 21
248 1 11.2445 -16.1916 2.89504 13
249 1 -4.2704 -2.61218 -2.78674 20
250 1 9.11127 14.6776 2.38726 22
251 1 10.9867 2.78578 -14.0073 14
252 1 11.2784 4.04734 15.2745 21
253 1 19.5793 4.17437 0.997539 22
254 1 18.0774 0.664799 -3.38018 21
255 1 -2.75116 -1.42083 -5.25704 22
256 1 -5.53899 -0.914843 -6.75169 13
257 1 -1.28561 -15.3609 9.88641 14
258 1 13.1797 1.30583 15.4032 23
259 1 11.1162 -1.34043 10.148 22
260 1 4.01117 -6.80653 -6.26156 21
261 1 7.43313 -7.20132 9.40785 23
262 1 6.53056 9.90036 -10.8921 18
263 1 9.01668 13.0627 5.24751 23
264 1 -0.519584 -4.16151 5.27492 22
265 1 6.09608 18.8369 10.0053 8
266 1 -2.59776 -0.242536 15.9101 15
267 1 -7.82007 -1.90593 -2.55868 15
268 1 -0.757798 -4.15445 -10.922 19
269 1 2.76202 14.6632 -8.54496 16
270 1 2.4778 -7.74424 -3.36602 21
271 1 1.04465 -10.7878 7.02072 26
272 1 12.9931 -4.59826 -10.9601 15
273 1 19.0987 2.32884 -6.51469 19
274 1 19.1569 3.27484 6.27932 26
275 1 -2.99169 -5.041 16.4002 14
276 1 4.21278 -7.2198 4.07796 21
277 1 17.5461 1.69218 20.5695 10
278 1 2.77367 -15.4921 4.87708 15
279 1 7.8888 -15.9921 2.66049 15
280 1 -1.27309 18.8067 -0.283659 9
281 1 12.4327 3.54056 -8.71266 26
282 1 2.48122 -4.56302 -10.9006 20
283 1 -0.382964 -2.63389 16.7797 12
284 1 12.4001 5.01544 22.5505 10
285 1 5.988 -13.3637 7.28165 21
286 1 2.63565 -9.48984 -6.56024 23
287 1 -4.46496 10.7478 -5.71184 12
288 1 16.5455 4.58353 12.6899 18
289 1 -2.9747 4.22675 -6.23557 17
290 1 7.2672 6.08513 -8.27007 24
291 1 12.4972 -16.1209 -0.492797 12
292 1 -1.18108 15.2867 -2.60341 15
293 1 5.99306 14.7588 13.3046 14
294 1 17.5655 4.3676 9.08866 17
295 1 -2.21608 0.582261 8.27606 21
296 1 4.87499 -0.816311 15.8323 20
297 1 -0.810197 7.15529 4.63334 23
298 1 10.6295 -7.43406 -6.64966 22
299 1 19.1699 7.74723 -1.22311 18
300 1 7.79133 -7.03359 4.12101 21
301 1 4.90843 4.65412 18.1179 21
302 1 -10.5591 1.68147 6.03253 12
303 1 5.92281 -13.6418 1.51185 23
304 1 -3.74724 9.36966 12.7665 17
305 1 -5.41765 8.77823 15.6678 18
306 1 -7.54995 -1.43358 15.1528 15
307 1 -6.95192 -2.76326 12.8796 15
308 1 22.8157 -2.56722 1.66947 9
309 1 -4.24596 -9.4714 12.6124 13
310 1 12.4973 -1.95978 -8.7672 22
311 1 14.3142 -7.05752 -6.74123 21
312 1 5.2261 19.6283 3.07953 11
313 1 -4.52015 12.9153 -0.997724 17
314 1 12.6788 9.01859 12.6854 19
315 1 -3.90734 -2.30616 8.34173 20
316 1 16.1167 -7.78886 1.69031 20
317 1 0.862151 10.041 4.72541 22
318 1 1.20626 12.1804 7.94998 21
319 1 9.74562 -8.67891 11.5957 15
320 1 18.7248 -4.33759 8.86996 13
321 1 2.90122 7.35489 10.1938 23
322 1 -1.02809 -4.26092 -0.315291 22
323 1 1.83005 3.16184 18.5621 15
324 1 2.79472 15.0201 7.93844 20
325 1 13.2598 6.04367 19.9781 16
326 1 -0.0872241 15.7488 -5.47153 14
327 1 6.09665 1.62759 -10.8126 22
328 1 9.20123 -7.87626 -9.16092 20
329 1 -3.26181 5.93522 15.2404 20
330 1 -4.01223 3.22725 7.47994 23
331 1 0.752909 -1.78633 -5.64327 22
332 1 0.756328 11.844 2.2518 22
333 1 14.5497 -1.35425 10.2647 22
334 1 -3.88464 -9.95216 4.73995 18
335 1 14.7666 -4.86855 6.77445 18
336 1 -3.39476 -13.6099 13.9271 10
337 1 -5.34692 9.50527 4.53404 21
338 1 4.69154 -3.22265 13.0366 23
339 1 12.6528 -13.9408 -3.55681 13
340 1 0.442765 4.54942 -5.65209 19
341 1 14.5211 1.01301 -8.60339 24
342 1 10.6087 16.0011 4.75975 17
343 1 -4.37734 1.59208 -0.241477 20
344 1 10.7823 -1.44858 -11.1992 23
345 1 13.9405 6.61252 -8.73444 21
346 1 -0.996748 -13.021 -3.61894 13
347 1 -5.7462 -7.16408 -0.41715 15
348 1 -0.694398 -8.11361 2.09877 21
349 1 19.1084 2.83374 17.9292 15
350 1 15.8777 3.65665 -3.6453 20
351 1 -4.44636 6.11958 -10.0867 12
352 1 6.09182 19.1623 6.23967 11
353 1 -10.7637 1.23915 0.525826 11
354 1 -2.39877 12.0704 7.96338 18
355 1 -0.68994 12.4917 5.25715 22
356 1 -0.778323 7.06893 9.93588 21
357 1 16.1222 1.51009 17.9629 22
358 1 20.201 -0.984185 -7.96037 12
359 1 11.9036 -2.03454 16.0567 20
360 1 22.6189 3.81058 -4.26649 12
361 1 -2.57064 -12.6315 -0.447049 12
362 1 7.77085 -7.33217 -1.11677 21
363 1 7.64308 11.9416 7.74743 25
364 1 -1.05396 3.46709 -3.18467 19
365 1 12.7166 -7.89705 1.43803 22
366 1 18.1401 -1.46124 10.225 20
367 1 -2.52244 -1.38066 -0.130461 21
368 1 1.08159 -6.83789 4.4482 22
369 1 -2.46265 -7.35672 15.0955 12
370 1 2.4976 13.0407 4.93933 23
371 1 -6.05265 -5.28121 2.89712 17
372 1 11.8936 8.43581 18.3158 18
373 1 -2.33351 6.22401 1.9415 22
374 1 7.40135 16.0204 -5.73776 16
375 1 7.53551 15.8156 10.7359 20
376 1 -4.12059 -7.61902 2.23888 18
377 1 7.954 -5.16725 -3.1718 20
378 1 -5.48788 0.364333 7.66028 21
379 1 -3.98697 8.84726 1.54283 25
380 1 12.7248 -7.76306 6.70026 20
381 1 2.72361 -13.5189 1.44308 21
382 1 14.2218 12.0854 12.1691 19
383 1 8.58993 12.767 -10.7707 11
384 1 -4.60201 3.75839 -8.48128 14
385 1 3.91923 17.8058 -2.6566 16
386 1 -5.94629 10.4326 0.0223335 18
387 1 2.63327 -10.3437 9.87119 22
388 1 19.7177 1.57576 3.40538 21
389 1 1.10486 5.88039 -8.38487 19
390 1 2.83734 3.28244 12.7905 23
391 1 -7.46908 1.47604 5.46945 21
392 1 -2.23598 4.27568 10.1193 20
393 1 -2.06465 -10.6445 7.4072 22
394 1 17.5263 -6.68888 -1.83147 20
395 1 -7.34855 3.30236 7.9884 20
396 1 -8.20322 1.81107 16.3467 15
397 1 -8.8177 4.51198 10.393 19
398 1 6.4906 -4.37331 10.3391 23
399 1 0.62242 4.41284 -10.83 17
400 1 14.4285 -13.0557 -0.68463 14
401 1 5.91088 -9.52501 -6.26955 22
402 1 3.40481 -0.432949 12.7464 22
403 1 1.88105 0.988764 -13.5895 15
404 1 11.3428 -10.8195 7.0406 21
405 1 7.54746 11.7095 -2.693 23
406 1 -7.06979 8.93771 13.2237 17
407 1 0.182275 1.28797 15.9061 22
408 1 -4.30824 -4.31735 -5.7874 16
409 1 -0.162618 -4.45409 10.548 22
410 1 15.2963 -6.41987 14.18 10
411 1 9.30362 1.40629 -5.80064 22
412 1 16.0234 -4.18509 10.2033 16
413 1 19.4723 9.44398 1.59559 14
414 1 7.77659 4.09845 18.2301 21
415 1 5.61707 14.9876 2.61576 21
416 1 16.3308 -4.17249 3.80484 22
417 1 4.35981 -10.7977 1.5609 24
418 1 -0.549882 8.29304 18.3333 15
419 1 4.32066 16.1166 10.7007 19
420 1 0.631734 -6.8435 -6.18788 20
421 1 13.4851 15.9218 5.00278 17
422 1 12.677 6.97947 10.0586 23
423 1 -0.285999 2.99909 13.474 24
424 1 0.78301 -6.96364 -0.462255 21
425 1 -3.64 3.37803 13.0808 22
426 1 -4.20543 -4.33878 -0.0116701 24
427 1 -0.334898 12.5983 10.1768 20
428 1 2.55535 -10.0787 -0.976513 23
429 1 2.58033 -7.41227 -8.92853 20
430 1 -1.02188 -9.53435 4.24106 22
431 1 1.47519 -4.91193 7.88893 22
432 1 14.4374 0.422371 7.02584 22
433 1 1.89519 -0.0173868 17.2509 14
434 1 -3.27298 11.6872 -8.79841 10
435 1 14.4033 4.56556 4.31737 22
436 1 -2.57857 -11.0633 2.31833 19
437 1 0.767339 17.6634 2.48967 18
438 1 5.78843 7.13843 -5.42121 26
439 1 6.21071 8.9382 13.3237 25
440 1 -6.06284 4.35802 4.77477 20
441 1 0.593176 16.0572 -0.27103 21
442 1 10.3026 15.8308 -0.554145 23
443 1 -0.774002 -3.96859 -5.48925 23
444 1 11.9748 0.082498 18.6178 16
445 1 10.2505 -14.7887 -5.96429 9
446 1 4.50474 -4.581 -8.13443 23
447 1 10.6458 -12.6866 4.31893 23
448 1 -3.75602 6.99268 10.0187 21
449 1 11.1885 2.96659 20.4243 19
450 1 15.8614 9.47079 1.41118 22
451 1 7.2739 12.0323 2.41152 23
452 1 2.30389 7.02794 -10.8328 22
453 1 7.56613 4.07075 -5.95503 21
454 1 9.31552 -7.76889 6.57915 23
455 1 -10.7642 3.25268 3.09681 12
456 1 10.9278 15.5104 10.2482 17
457 1 2.05027 4.32853 -13.3408 14
458 1 14.4067 6.41887 1.74217 22
459 1 8.15465 14.6919 -3.01441 23
460 1 14.5032 -5.01755 0.860022 21
461 1 22.7372 1.97979 3.97989 13
462 1 3.89452 0.571292 -8.18739 25
463 1 5.77044 -7.84151 6.86409 23
464 1 4.65724 -11.1508 12.7077 13
465 1 12.8111 -8.43724 12.1878 11
466 1 -4.31815 1.4551 -5.9108 18
467 1 -3.25745 -10.087 10.1192 22
468 1 0.84969 -12.2846 -6.22747 12
469 1 18.3554 14.7811 9.50163 12
470 1 4.02745 4.26809 -10.8756 24
471 1 9.54944 0.410856 20.6228 15
472 1 -5.82804 3.8956 15.0983 19
473 1 2.92795 -15.3807 -0.870585 13
474 1 -6.0559 0.400918 2.41136 20
475 1 17.5399 -5.07769 -4.85438 18
476 1 22.635 -2.42391 6.46098 11
477 1 -1.10112 9.17034 -3.92553 18
478 1 10.8951 -5.262 -3.4914 20
479 1 9.04838 7.42662 -11.0904 20
480 1 15.9213 -2.16507 -3.7479 21
481 1 -4.76891 4.54688 18.1276 15
482 1 9.15224 14.8943 7.32638 19
483 1 3.97066 -0.970362 -15.1559 10
484 1 13.8229 4.28383 -11.0326 17
485 1 1.35095 -3.27434 12.9097 19
486 1 -0.0598434 17.1032 8.14243 14
487 1 -3.45805 -4.87579 -11.298 11
488 1 -9.17075 4.42486 5.84465 16
489 1 7.38672 -7.52485 -11.8107 11
490 1 -0.24174 -13.941 14.5096 12
491 1 7.43892 10.198 -5.50868 24
492 1 20.4199 6.25441 12.4236 12
493 1 15.7382 7.55359 -1.28925 21
494 1 -4.48812 -10.0661 0.595817 11
495 1 9.59265 -7.93132 1.47441 22
496 1 6.6414 -0.332925 -15.6188 9
497 1 -7.14122 12.5257 7.72554 11
498 1 11.1294 -1.27289 -6.04641 22
499 1 17.9023 -1.27448 3.97926 19
500 1 10.1983 17.2342 -3.1633 12
501 1 11.1663 -5.15622 7.37379 23
502 1 14.0457 4.78449 -5.82805 23
503 1 11.1264 9.66375 15.9078 20
504 1 -5.33905 0.596075 13.3777 17
505 1 15.4026 7.85742 11.6648 17
506 1 13.3897 -2.64173 19.0737 11
507 1 6.06322 -2.01854 -8.69147 21
508 1 1.11526 -4.96172 -2.75624 22
509 1 8.50183 2.59523 13.0152 22
510 1 17.5212 9.27488 16.9226 12
511 1 12.6344 7.60316 -5.91372 22
512 1 -2.34389 10.2821 -1.12094 21
513 1 8.82871 12.9877 -0.468291 23
514 1 14.3575 -4.20544 16.4834 16
515 1 19.2552 4.35875 -9.10727 13
516 1 15.6661 -9.60573 -0.887412 16
517 1 19.8596 9.16889 11.8271 11
518 1 -7.10033 -4.09665 6.06818 17
519 1 0.547441 11.9135 -8.606 18
520 1 6.16333 3.5194 12.6651 21
521 1 -7.22568 3.60646 18.2978 11
522 1 5.6281 13.0356 -4.94592 22
523 1 9.59913 -9.89309 4.1146 24
524 1 15.692 4.08042 -8.54303 24
525 1 0.671544 17.8143 -3.04108 14
526 1 -0.808425 -0.787285 -14.7241 10
527 1 7.65185 -12.6678 4.56359 24
528 1 -7.69828 -2.51993 3.00213 16
529 1 5.39062 14.0235 -9.96384 11
530 1 5.64704 10.7202 19.1583 12
531 1 -4.25176 -1.68825 13.876 19
532 1 12.7312 9.12995 2.21711 23
533 1 9.11084 -8.18364 -4.01964 21
534 1 10.8925 -3.21816 12.755 23
535 1 16.1896 1.85961 -1.04698 21
536 1 -3.74052 9.01144 6.86006 20
537 1 10.9647 5.85062 18.0681 18
538 1 8.53156 18.6744 -0.755164 14
539 1 17.955 -5.24072 1.29992 22
540 1 16.2394 11.9534 14.7913 14
541 1 5.3956 5.32723 -13.7227 16
542 1 0.366088 -15.3499 11.9622 13
543 1 5.78541 1.31635 -5.55668 23
544 1 14.3665 -1.3526 -11.3434 19
545 1 9.55798 14.8048 13.096 15
546 1 15.6983 1.8154 -6.11227 23
547 1 4.13475 -0.949556 -11.0578 20
548 1 2.65589 -8.19803 1.74715 21
549 1 -5.65386 -3.68809 -8.69743 9
550 1 21.0336 0.693148 0.864316 20
551 1 21.0193 6.59079 1.64585 14
552 1 14.201 -1.2914 -5.99109 21
553 1 21.0957 4.11719 15.1668 14
554 1 12.7095 -9.89922 -1.14861 23
555 1 8.72325 4.94765 -13.6854 13
556 1 14.3513 12.1277 6.67648 19
557 1 -2.33735 3.94054 4.93715 21
558 1 17.9466 9.23711 13.7752 14
559 1 14.3134 10.4206 4.25088 19
560 1 20.961 -5.44655 6.3339 13
561 1 17.3216 6.65424 -9.32867 11
562 1 18.303 -1.3364 13.787 18
563 1 19.9457 1.28657 14.7981 15
564 1 7.74426 -2.98936 12.8032 25
565 1 17.3854 12.2547 1.60587 16
566 1 6.73627 2.74352 20.424 14
567 1 19.3366 2.05529 -0.934402 20
568 1 13.3212 5.19378 12.6811 21
569 1 -0.912708 1.25562 -5.31892 21
570 1 17.9461 4.7972 3.88097 20
571 1 16.1772 -2.28489 7.61985 22
572 1 -7.25764 10.7076 10.6167 10
573 1 14.3731 10.2582 16.9368 14
574 1 21.0639 2.98863 11.95 15
575 1 7.92626 10.0887 10.5057 24
576 1 7.63074 11.9888 13.2988 20
577 1 14.4493 4.17958 9.73778 22
578 1 4.41179 -16.3532 7.95643 15
579 1 3.96947 11.8758 -2.99247 21
580 1 13.8649 12.5549 -3.85129 16
581 1 19.4697 -2.30236 -4.73101 16
582 1 3.8238 17.6087 1.41948 18
583 1 4.27782 -12.7541 -1.22622 22
584 1 15.5257 -3.90374 -7.05343 22
585 1 -10.6618 0.359105 14.7242 10
586 1 4.33348 6.42459 -7.94525 24
587 1 2.54279 -13.6257 7.08649 22
588 1 0.791203 0.376971 -8.34302 23
589 1 -2.7809 4.06289 -0.77727 20
590 1 17.6263 -5.24559 6.10864 19
591 1 15.3721 13.6755 3.99495 22
592 1 4.35647 -7.42369 10.0396 21
593 1 -7.83223 0.662927 -5.21024 12
594 1 9.98081 -0.347519 -13.9976 16
595 1 5.54501 7.71806 18.3062 21
596 1 10.5439 12.0145 -8.52042 17
597 1 20.7413 -0.43356 11.8561 14
598 1 11.0039 6.64457 -3.28349 22
599 1 18.3622 11.8662 7.81696 19
600 1 5.2387 -14.2542 -3.42719 16
601 1 -4.44824 1.29216 17.5725 17
602 1 18.2329 1.40951 12.2913 19
603 1 2.66197 12.3082 16.4836 13
604 1 11.1754 14.9519 -4.76246 16
605 1 -8.18603 12.1109 -1.27341 7
606 1 12.7256 12.8577 9.31278 22
607 1 -1.90066 -12.6295 4.91762 15
608 1 19.2558 -2.36073 6.47715 22
609 1 16.6978 16.6261 4.25498 10
610 1 1.09823 6.06684 12.7631 22
611 1 -3.62207 -3.92326 5.36801 19
612 1 -2.36212 -4.77368 -8.43243 20
613 1 14.609 4.04744 15.0694 19
614 1 3.26139 -8.43795 12.6063 17
615 1 16.5704 1.29605 15.1022 21
616 1 -0.821631 14.8617 2.70813 21
617 1 16.2823 7.48636 4.07375 23
618 1 14.4025 6.36385 7.08782 24
619 1 12.7369 1.74849 -11.3122 22
620 1 -0.445146 1.24006 10.5626 23
621 1 17.6964 -0.768667 -10.8693 13
622 1 14.2716 -10.6702 -3.18927 17
623 1 9.56316 8.89643 12.8541 20
624 1 7.8881 10.1676 4.98109 23
625 1 -6.74147 7.25174 17.6734 12
626 1 17.3445 6.21421 6.54461 23
627 1 3.49928 1.34716 14.986 21
628 1 6.52459 6.85139 15.3582 21
629 1 5.68681 -7.65156 -9.20144 21
630 1 1.54559 9.70312 16.3026 19
631 1 11.4492 2.43124 12.3028 24
632 1 -0.571891 -14.0194 7.17809 16
633 1 17.6729 10.5108 4.14618 20
634 1 11.231 -13.1809 -0.623128 20
635 1 10.7335 11.8128 2.39088 25
636 1 18.4297 13.8911 5.85767 13
637 1 15.4208 1.23325 -12.8076 11
638 1 7.06422 15.6248 -0.0181269 23
639 1 12.2665 12.8971 5.1515 23
640 1 -0.999789 -7.84332 -3.45863 19
641 1 7.7421 -0.860251 -11.3706 21
642 1 -4.07122 14.6216 1.84221 19
643 1 14.1682 -6.77029 -1.53796 22
644 1 14.3633 10.5463 -7.06356 14
645 1 13.6072 16.1678 -0.263985 14
646 1 -2.32463 6.12444 7.35804 22
647 1 12.5966 7.60308 -0.555778 22
648 1 18.3428 -0.230357 17.4722 16
649 1 16.5596 -3.53302 18.322 10
650 1 2.8539 -13.8623 12.6814 13
651 1 -0.995046 15.1507 -8.24102 9
652 1 9.36203 13.0929 10.3399 21
653 1 15.7808 -1.77342 -8.65885 20
654 1 9.97798 1.90371 17.6374 22
655 1 10.4292 18.0062 2.08565 13
656 1 15.8837 9.37782 6.68316 21
657 1 21.1971 -5.43895 0.657346 18
658 1 15.2234 7.09259 17.8326 13
659 1 -7.08342 1.78115 10.5745 23
660 1 9.09592 -13.4246 1.64211 22
661 1 7.78431 -1.18252 -6.00061 21
662 1 -2.46951 17.722 2.08672 12
663 1 12.1683 15.6828 7.77401 14
664 1 -8.7583 -1.2518 6.01067 15
665 1 1.89617 6.45692 18.7434 17
666 1 3.54602 10.6641 -10.878 16
667 1 0.628608 9.4121 -11.2664 12
668 1 14.1892 -12.2523 4.90337 16
669 1 12.5292 9.80202 -3.67647 22
670 1 -3.7976 12.2984 14.7778 15
671 1 11.0796 0.91565 -8.48553 24
672 1 13.4863 -9.81587 9.24401 16
673 1 4.12074 15.7788 5.36014 20
674 1 -0.440347 4.87 17.0032 22
675 1 -3.31349 -2.14954 -10.3288 18
676 1 0.932226 -9.87901 -9.04153 12
677 1 -0.912773 -9.74583 -6.49956 19
678 1 4.8631 18.8541 -6.77354 12
679 1 12.8045 -1.99915 -3.46498 21
680 1 1.45173 10.1172 10.416 22
681 1 12.5323 -8.25634 -4.12699 22
682 1 12.0859 -14.7316 5.85392 13
683 1 9.62072 -4.51262 10.194 22
684 1 19.2491 3.93923 -4.0342 23
685 1 7.39339 -11.0825 -3.71386 22
686 1 -7.8919 4.06615 13.0602 19
687 1 4.46209 -16.241 2.19035 12
688 1 -2.50336 -6.6756 -6.42604 21
689 1 -2.62271 3.06522 16.3975 24
690 1 1.21621 -12.6788 4.24903 20
691 1 21.1281 5.0511 -1.08473 17
692 1 2.47503 18.1733 10.8139 9
693 1 1.06845 4.44687 10.4411 22
694 1 -7.67578 9.15764 7.35639 14
695 1 16.413 1.89145 4.41953 23
696 1 -5.39905 -0.129443 -9.81748 9
697 1 5.8355 9.02192 -2.87684 23
698 1 17.3865 5.11704 -5.95186 24
699 1 9.43627 12.4665 16.2785 15
700 1 18.8836 8.7639 6.58471 21
701 1 -5.95124 6.3754 -3.51975 18
702 1 -5.80649 -5.13564 -2.6743 16
703 1 6.34289 5.64904 21.0754 13
704 1 12.3034 7.51959 -11.2728 13
705 1 15.8863 12.5591 9.30266 24
706 1 6.0749 -0.278845 12.8949 24
707 1 0.495967 -13.1064 -0.87783 17
708 1 1.44052 -16.6972 8.0431 10
709 1 3.2144 -4.21234 10.5175 22
710 1 16.0974 7.1375 9.20542 21
711 1 10.6654 -4.87506 -8.86739 21
712 1 -0.925566 9.19635 1.80508 21
713 1 10.812 9.97991 5.07625 24
714 1 -0.346452 -2.42784 7.68292 23
715 1 12.2893 9.38603 -8.88221 18
716 1 2.31153 -13.8528 -3.79261 16
717 1 6.39665 -15.4819 -0.744498 16
718 1 7.76239 -10.733 1.60109 23
719 1 10.7667 4.53173 -5.79948 24
720 1 8.80764 18.965 4.51848 11
721 1 1.09049 -1.32789 -11.454 19
722 1 6.87481 1.28993 15.3746 23
723 1 5.41153 7.1887 -10.8607 25
724 1 -2.54816 0.398889 -8.33845 20
725 1 -4.08086 -2.61128 2.45033 23
726 1 5.43235 18.6202 -0.576674 15
727 1 4.84126 -3.36175 -13.3994 12
728 1 -2.46103 -7.11319 -0.852725 22
729 1 15.9291 7.58803 -6.69205 19
730 1 17.7922 -6.95203 4.14732 21
731 1 -0.475981 8.8632 12.4459 19
732 1 11.1387 -6.64481 4.12139 20
733 1 22.686 -4.29633 4.09687 13
734 1 15.4225 -1.31169 15.9631 23
735 1 4.68405 9.98025 10.4357 23
736 1 -7.99769 5.36302 15.3935 17
737 1 -5.35235 6.26449 13.1494 23
738 1 1.27137 -13.0517 9.9646 22
739 1 15.9831 3.38099 7.19155 22
740 1 12.9721 12.4074 15.1567 17
741 1 -9.13562 4.3538 0.269755 12
742 1 16.1593 -4.35795 -1.54028 22
743 1 -7.73616 7.3158 -0.808577 14
744 1 7.37571 15.9403 5.01661 22
745 1 9.61367 -13.2824 7.38081 19
746 1 9.87922 -2.10994 18.5094 13
747 1 3.08195 13.2001 10.7535 22
748 1 6.00319 -10.0323 9.5152 23
749 1 -2.41493 0.660883 2.4457 21
750 1 10.3652 5.43334 12.1617 21
751 1 -9.43631 -1.47264 0.39795 14
752 1 8.38327 7.34463 18.7146 19
753 1 11.1194 10.1112 -0.519616 22
754 1 -7.15604 -7.27308 8.3344 11
755 1 0.671613 -11.0368 1.43544 23
756 1 12.5675 -0.138306 12.7808 23
757 1 18.0816 -4.861 12.4122 8
758 1 14.3 10.1969 9.99064 23
759 1 5.9313 -7.94558 -3.60224 20
760 1 2.34431 1.30962 -5.87694 20
761 1 0.119091 7.24932 15.1257 20
762 1 2.46167 18.4064 4.61931 11
763 1 21.0961 0.473814 6.34467 20
764 1 9.33167 9.30973 -2.93712 26
765 1 -1.63349 9.60235 15.6319 19
766 1 11.2528 10.0394 10.3967 22
767 1 17.9055 1.02099 -8.4516 18
768 1 -1.02667 -10.1361 -0.894911 23
769 1 22.754 1.69834 9.3663 12
770 1 7.39165 -6.9379 -6.46235 23
771 1 7.77397 8.82023 21.2439 12
772 1 13.1144 -12.556 -5.93391 12
773 1 2.49112 9.20094 -8.27389 21
774 1 4.38402 -7.05304 -0.683453 21
775 1 17.7502 5.00345 -1.86463 22
776 1 19.4608 -4.40529 3.44756 22
777 1 9.24751 -6.10432 12.8777 18
778 1 0.720246 -10.313 -3.44232 22
779 1 12.3335 13.1188 -0.482962 21
780 1 -9.98351 2.14681 11.8561 14
781 1 17.4079 7.17351 -4.2932 19
782 1 21.0855 4.54588 4.12303 20
783 1 8.36254 -4.07746 -11.2497 19
784 1 -4.27176 14.5977 6.90421 15
785 1 21.2925 6.56915 6.82722 15
786 1 15.4845 13.1498 -1.21865 17
787 1 7.49716 0.847107 -8.5912 23
788 1 15.6765 -2.37417 1.29471 20
789 1 -4.03871 3.25288 2.10556 25
790 1 20.8779 9.8702 8.56267 11
791 1 -5.41077 -10.7652 7.42882 16
792 1 -1.84639 12.7204 -6.57109 16
793 1 11.4963 4.25264 9.65992 21
794 1 -6.02746 0.434818 -3.06887 19
795 1 -5.49154 4.33116 10.4648 24
796 1 3.95943 4.16546 -5.54637 24
797 1 19.2792 -4.08819 -1.67057 20
798 1 -4.13096 -7.86382 -3.71579 15
799 1 19.1432 -8.28929 0.611055 14
800 1 -10.6782 3.65412 8.54158 11
801 1 -5.83842 -1.54525 4.93045 20
802 1 19.552 7.19383 9.44159 17
803 1 -0.25045 -10.1713 10.0718 23
804 1 16.4466 -1.19793 19.9526 12
805 1 20.9792 -1.43873 8.94795 15
806 1 12.9218 -2.31159 7.65686 22
807 1 -5.86265 6.34947 7.5566 21
808 1 7.84987 9.42424 15.9479 21
809 1 9.96196 10.2709 -11.4412 14
810 1 3.84967 -6.7068 -11.6446 11
811 1 -1.22816 14.6836 7.10698 18
812 1 -7.39697 -10.3748 10.9677 7
813 1 15.6154 9.52429 -4.15184 18
814 1 9.76462 6.90978 15.3486 21
815 1 20.6509 -1.0487 -1.80901 17
816 1 12.732 -4.19418 10.4831 20
817 1 4.49643 17.2032 -9.97307 9
818 1 10.5048 10.0708 -6.00113 23
819 1 0.640139 -0.242072 13.4559 18
820 1 22.6749 3.47618 6.86768 13
821 1 2.50355 -2.14258 -8.56489 23
822 1 15.7773 15.1055 7.14888 17
823 1 -7.4958 7.07443 5.03068 16
824 1 1.18247 -11.4048 12.9648 18
825 1 6.98631 16.9316 -8.64778 9
826 1 16.7237 -3.6611 14.6392 14
827 1 6.11296 -9.81831 4.09404 23
828 1 0.986611 15.8172 5.30748 22
829 1 -5.82696 6.33406 2.01719 21
830 1 17.728 -1.38316 -1.09112 21
831 1 7.10375 -12.624 -7.08616 16
832 1 -0.766135 9.11151 7.37897 22
833 1 19.4612 7.46061 -7.2001 11
834 1 1.51478 -1.36562 10.4731 23
835 1 11.6171 -3.37911 -13.2465 11
836 1 -2.8316 -9.02231 -8.84366 12
837 1 5.86143 -8.11432 1.70141 21
838 1 2.4342 9.86611 19.133 12
839 1 12.8886 -13.7473 2.40693 18
840 1 3.80397 11.8512 -7.95491 22
841 1 22.5629 3.62887 1.07099 15
842 1 12.6224 7.36806 4.57671 21
843 1 9.44157 -15.8217 -0.165094 14
844 1 12.8791 -0.462263 -13.844 13
845 1 17.8367 0.27458 7.13177 22
846 1 2.59042 3.27804 -8.37453 21
847 1 3.13039 -5.39139 14.1199 16
848 1 10.842 12.1894 -3.24308 23
849 1 12.7138 3.80304 -3.37554 21
850 1 -4.27206 9.32305 -2.5563 19
851 1 -9.67746 6.40603 13.2551 13
852 1 9.66611 6.01643 21.0404 18
853 1 -1.96013 -10.7112 13.5096 16
854 1 10.6916 11.8281 7.9423 22
855 1 5.85341 -15.5344 5.11094 18
856 1 7.51913 9.95328 -0.249712 22
857 1 3.26207 7.00112 15.9215 24
858 1 -2.0377 0.583896 13.2104 17
859 1 -4.77291 13.3933 9.53747 13
860 1 16.2892 3.3933 1.6798 20
861 1 1.16986 -8.32763 15.1424 9
862 1 9.30854 -10.1687 9.22088 19
863 1 14.8189 9.25649 14.3987 20
864 1 19.7047 -2.38733 0.950992 20
865 1 9.68713 -16.0525 -2.70658 13
866 1 -0.495506 2.27673 -12.439 13
867 1 7.53425 2.16196 -13.3699 18
868 1 12.7781 14.592 12.5515 15
869 1 -3.91404 -2.01591 18.0486 12
870 1 0.716328 6.35346 -2.87247 20
871 1 -6.14393 4.41274 -0.846035 21
872 1 14.856 17.8581 2.51447 8
873 1 -0.787419 -13.8444 2.02034 13
874 1 6.02761 9.12695 7.55212 23
875 1 17.595 9.63748 9.74226 19
876 1 -3.25902 -10.9188 -2.79618 12
877 1 16.2231 14.4765 12.3945 12
878 1 -1.13476 1.84931 18.6264 12
879 1 3.9063 -10.6641 -4.02319 23
880 1 14.5549 1.97217 12.2286 23
881 1 7.2304 -16.0783 8.53711 12
882 1 8.09551 11.5102 19.1451 10