ITEM: TIMESTEP
5000
ITEM: NUMBER OF ATOMS
2000
ITEM: BOX BOUNDS pp pp pp
-30.0 30.0
-30.0 30.0
-30.0 30.0
ITEM: ATOMS id type x y z Coordination
1 1 -9.99465 4.84853 -11.0267 17
2 1 -6.18299 -14.6039 -8.99602 12
3 1 2.05952 11.0289 13.8969 18
4 1 5.80733 -12.159 6.65315 17
5 1 -14.5594 7.83432 0.182412 13
6 1 10.2739 -12.581 -11.8176 9
7 1 -10.5243 1.08369 -3.52548 18
8 1 -0.142925 -8.74202 9.35172 16
9 1 -11.2253 1.99537 -8.59609 20
10 1 -13.3986 -11.0695 7.85627 11
11 1 12.8593 2.45654 -8.62821 13
12 1 -3.5817 3.43146 -4.46405 19
13 1 -5.88357 -15.9297 0.744328 21
14 1 -11.1565 -9.44828 6.8828 15
15 1 -0.124054 3.21056 20.6062 9
16 1 4.53851 -4.01876 6.29438 20
17 1 -1.31339 0.616585 9.26138 19
18 1 5.63115 -1.11584 4.86543 22
19 1 -4.28588 9.52271 -10.638 19
20 1 0.699 -1.30042 15.2912 15
21 1 -8.62853 -3.01222 -14.5691 12
22 1 -12.7839 -5.63936 12.7051 11
23 1 8.94344 3.13548 9.71415 19
24 1 5.98592 9.08383 -13.0104 13
25 1 3.14107 5.17177 -11.061 19
26 1 13.4483 0.625178 14.0411 8
27 1 -6.81029 0.400269 2.69966 20
28 1 -12.7039 -0.538082 -6.5321 19
29 1 -1.93718 -1.4832 -8.68545 20
30 1 -9.87188 8.83834 11.7596 17
31 1 8.48242 -14.4069 5.79087 10
32 1 -0.555403 0.506275 13.5839 21
33 1 0.0717145 -17.4786 -8.91645 5
34 1 8.17071 -11.5178 -1.67616 14
35 1 -8.73409 -15.18 -3.4359 15
36 1 -7.02104 -6.87154 11.128 21
37 1 7.23226 -5.19168 -5.90531 21
38 1 3.04764 -9.01154 -11.7409 20
39 1 7.46018 -12.3362 -12.4259 14
40 1 -2.56111 5.21438 -16.8965 9
41 1 1.97787 2.93079 14.4406 18
42 1 0.120496 -14.9045 5.0318 20
43 1 3.73739 -3.13302 15.0116 14
44 1 -11.8198 -2.04549 4.29767 21
45 1 -15.4986 -3.1724 8.80808 15
46 1 -6.78564 0.438469 -0.554947 20
47 1 1.61866 17.6065 2.37174 14
48 1 1.54527 -15.8231 -12.164 11
49 1 2.49689 2.22024 -10.0831 17
50 1 4.08442 -6.89763 -13.6406 17
51 1 -3.47141 -1.5112 13.8996 21
52 1 -13.4109 4.58887 -3.05731 17
53 1 1.93237 12.9514 -11.0833 13
54 1 0.760504 15.0619 8.96538 15
55 1 -12.3757 5.90293 -6.56384 14
56 1 -2.20769 13.5749 -3.86574 23
57 1 1.18181 -11.9035 4.0708 20
58 1 5.73546 -8.38387 -5.77284 16
59 1 6.4392 -4.82824 -15.8629 14
60 1 -5.97642 8.89283 11.5015 20
61 1 -13.6907 -5.54714 -7.45343 13
62 1 4.6786 1.75039 6.27722 19
63 1 -8.24272 7.08737 -2.36684 20
64 1 -5.37854 -9.99006 9.278 17
65 1 -0.95376 12.1746 12.7391 15
66 1 -14.9455 0.524555 -8.72948 13
67 1 -5.9434 9.23933 15.8793 10
68 1 3.59964 7.38559 -6.11673 17
69 1 1.05657 7.2826 7.12441 20
70 1 -5.13557 -15.5121 7.76047 17
71 1 0.638776 7.22653 10.085 21
72 1 3.2908 -15.5849 -6.77363 13
73 1 1.79728 10.7663 16.7618 14
74 1 -15.6 2.94408 -10.6514 8
75 1 -11.565 9.15106 -7.60564 12
76 1 5.95999 8.59842 9.92868 20
77 1 12.7383 -3.37479 -9.76409 11
78 1 6.59397 -12.5008 3.75755 17
79 1 -14.5564 -2.04231 5.35029 20
80 1 -8.50951 -2.24576 2.65391 20
81 1 10.3008 15.851 3.44236 7
82 1 3.89743 1.08936 16.8666 14
83 1 -7.84735 -13.6277 6.81218 19
84 1 -13.6979 -3.93408 2.98513 21
85 1 12.6068 2.39645 8.35999 20
86 1 7.14842 -4.15704 -3.31835 20
87 1 -2.70169 10.5033 10.9704 20
88 1 4.23332 0.821911 9.67927 21
89 1 -7.05917 -10.6006 0.514127 18
90 1 -2.58854 -6.72903 -8.05341 18
91 1 -14.0324 7.90629 8.52459 12
92 1 -8.17305 14.1241 -1.64725 17
93 1 -3.2225 9.29016 -7.56739 20
94 1 -0.00595378 4.30027 -2.49008 23
95 1 9.84322 -4.25262 -5.027 23
96 1 6.15716 16.6907 -2.35216 9
97 1 6.11072 -6.85948 4.20096 19
98 1 1.67945 -10.5751 10.3127 14
99 1 -7.52798 13.123 -7.43834 17
100 1 -10.6172 12.8674 7.50266 11
101 1 -5.53486 -6.71166 16.8692 5
102 1 -3.13312 10.579 5.46676 20
103 1 -6.03878 -7.42587 8.35361 20
104 1 12.4744 -10.1153 -6.22918 13
105 1 -9.10231 3.2773 4.83934 21
106 1 -8.93523 -17.7416 2.07273 12
107 1 9.01611 -9.79219 -6.45578 20
108 1 1.18196 -2.64606 -16.5418 21
109 1 -6.41237 -5.03693 -14.5562 13
110 1 2.76422 -1.08539 6.21134 22
111 1 3.86747 11.6981 2.25899 23
112 1 -9.21655 4.96098 -7.11309 20
113 1 -1.07812 10.018 17.7607 13
114 1 -5.03866 13.5973 -2.33217 21
115 1 -14.3019 11.1476 1.127 9
116 1 0.466317 11.8803 3.06815 23
117 1 -9.41154 -7.69655 8.84486 18
118 1 14.4323 -0.75443 9.21051 10
119 1 -0.858356 -4.47678 -7.32937 22
120 1 3.59026 -7.1557 -7.83515 20
121 1 -0.369906 3.33053 7.57038 22
122 1 4.62639 2.49957 19.9162 13
123 1 -11.6794 -6.47043 1.71111 20
124 1 5.00824 -4.14739 2.71132 21
125 1 -7.81437 -8.63773 -2.10739 20
126 1 5.2101 -9.74836 -0.923402 17
127 1 -6.25963 8.08039 3.06328 17
128 1 6.67627 1.32485 -15.7218 11
129 1 2.66378 17.28 -3.05811 12
130 1 -10.9832 -13.8479 12.3711 5
131 1 -10.6729 -13.9392 9.35628 13
132 1 -5.85754 3.38109 1.01515 23
133 1 2.18813 -11.8064 -16.0411 10
134 1 3.38273 3.74683 -4.16507 21
135 1 12.1167 -9.99671 -0.147906 9
136 1 -0.499681 -17.8443 5.00491 12
137 1 -7.58019 -13.3186 2.08628 16
138 1 13.9239 6.36616 11.7929 12
139 1 11.2435 -2.36453 -7.23843 20
140 1 -14.9357 -6.84017 2.59267 18
141 1 12.4906 6.7392 4.76322 22
142 1 12.2002 10.09 5.02722 15
143 1 -6.57708 2.57017 17.9865 9
144 1 5.33885 4.21947 -1.77896 20
145 1 -7.1772 13.4867 8.13667 12
146 1 -7.29718 12.4108 -4.66495 24
147 1 1.4623 -5.77717 -9.05767 19
148 1 8.22672 -14.8961 -10.1603 10
149 1 -0.433357 12.2924 -12.7158 11
150 1 6.22218 0.699513 12.3295 20
151 1 -1.93951 -3.89922 -17.8177 9
152 1 -0.565425 7.86957 -3.80223 22
153 1 12.6334 -4.55653 -3.81946 20
154 1 -10.7889 7.18659 -4.67932 20
155 1 -8.90838 13.5786 2.53626 10
156 1 8.82362 -0.782937 -8.8917 20
157 1 8.39814 -10.4798 5.63721 11
158 1 -7.46545 4.62637 -4.27388 19
159 1 -7.96757 10.6799 13.1996 11
160 1 12.7853 8.51971 -6.05313 10
161 1 4.61768 9.8393 0.0361289 22
162 1 0.432849 16.4895 -0.0388547 17
163 1 11.2396 12.8646 -0.691991 10
164 1 -2.62744 10.4562 -2.30344 20
165 1 -2.79926 14.9197 -10.305 14
166 1 6.77838 11.6014 -7.84889 15
167 1 -11.7214 -12.2943 3.29906 9
168 1 -12.2833 7.42353 -2.19371 19
169 1 -6.45304 -3.83379 -11.8129 21
170 1 -0.213474 -10.3357 -12.6693 18
171 1 7.27959 12.2718 10.5915 20
172 1 2.1936 16.5323 5.67628 15
173 1 -13.8982 -1.82154 0.477161 18
174 1 -11.8914 11.7019 4.4606 13
175 1 14.0618 -1.18815 -4.99904 17
176 1 -9.38808 2.03778 -11.8727 13
177 1 6.24045 4.81926 20.705 10
178 1 3.90148 18.1847 4.59353 9
179 1 -5.38319 5.23961 6.81032 21
180 1 3.80237 -8.62001 -16.4355 12
181 1 -3.88317 12.1927 8.43082 17
182 1 -6.29331 10.0274 -7.2452 24
183 1 1.48898 -2.71835 13.0865 20
184 1 -17.1542 -7.51493 5.85033 12
185 1 -2.14502 -14.6554 -13.9031 10
186 1 -8.40881 9.52032 -4.43756 21
187 1 -2.67784 -10.2506 8.0344 18
188 1 0.924634 -14.6567 -8.99512 17
189 1 -2.16233 11.8426 -9.77802 15
190 1 -14.0295 -0.714722 10.6516 17
191 1 2.19245 6.44927 -2.98907 21
192 1 6.50021 7.064 -1.4608 22
193 1 -3.97522 5.86457 14.011 19
194 1 -0.337307 -12.2386 6.88379 15
195 1 -11.3098 3.9864 0.084733 20
196 1 1.24369 13.4676 6.27437 16
197 1 -3.14135 7.07527 11.2067 24
198 1 12.2518 3.16677 14.6502 12
199 1 -6.07639 10.6207 6.41039 19
200 1 12.4393 -5.5725 -7.0615 17
201 1 -5.88641 11.9706 10.673 12
202 1 -8.50855 -0.737696 -7.9504 22
203 1 11.9339 -6.72539 5.48984 12
204 1 -6.58307 -5.20323 2.79607 22
205 1 -15.692 0.355098 8.37974 10
206 1 -9.9759 -14.5246 3.87718 12
207 1 4.18004 9.86925 17.7604 13
208 1 -15.8279 -0.180597 -2.3148 14
209 1 -4.22951 -13.4886 1.61597 22
210 1 -5.49234 -2.39244 -2.5121 21
211 1 5.22114 -6.89649 -2.51352 22
212 1 -3.46229 8.81491 3.0033 20
213 1 -12.523 -3.77717 7.15377 17
214 1 4.43922 13.722 10.5867 14
215 1 -8.6203 -1.33848 -3.97032 17
216 1 -9.64444 11.7298 -6.36787 17
217 1 -13.8525 -3.02184 -4.70148 19
218 1 -9.89153 -1.67587 7.40959 19
219 1 -1.42343 -11.0977 2.22051 22
220 1 5.34753 -14.5492 6.12792 15
221 1 -14.4338 8.82761 4.81821 10
222 1 14.569 4.80388 6.32487 14
223 1 8.05053 -2.36148 -6.58847 20
224 1 -6.38718 -10.6525 -13.9261 9
225 1 3.68377 -0.391547 14.816 16
226 1 6.47474 -17.2634 1.72297 12
227 1 0.447531 7.46303 -13.3122 16
228 1 4.23142 -13.7317 -13.5107 12
229 1 9.48154 0.929642 -13.7474 13
230 1 2.79227 5.95189 -14.5642 16
231 1 -5.19577 -5.10646 -7.05311 20
232 1 -5.5406 14.7087 -5.9908 19
233 1 -10.6076 -10.3238 12.3103 10
234 1 3.97995 15.5797 -4.48896 11
235 1 -5.74641 3.46927 15.223 19
236 1 -8.07852 15.5564 -4.75022 10
237 1 8.66476 -2.12933 7.30073 21
238 1 -4.11016 -5.64957 -12.8486 19
239 1 -1.48398 9.28237 -12.8424 16
240 1 3.43804 1.08217 -7.05468 16
241 1 -7.1455 -13.0822 9.68754 20
242 1 -7.86318 3.92889 10.523 18
243 1 -7.75004 10.1412 8.74852 22
244 1 -2.06834 -9.88408 -6.71814 20
245 1 -7.22618 -19.1273 -0.173892 13
246 1 8.62834 -13.1606 -3.92263 11
247 1 6.35915 -7.5321 1.26285 18
248 1 10.4249 9.0675 15.0744 18
249 1 2.87706 10.699 -8.39837 18
250 1 -1.28047 10.3558 0.548445 20
251 1 -12.1678 2.37431 2.61 19
252 1 -10.9708 8.76546 0.336368 22
253 1 1.93526 5.57685 13.2343 18
254 1 4.30581 -18.51 -0.583345 11
255 1 10.8174 -1.48645 -4.16487 22
256 1 3.02733 11.9451 8.53512 21
257 1 -11.3857 4.95061 3.82764 18
258 1 -8.83087 -4.88772 -3.31414 21
259 1 6.2993 5.84192 -14.3483 10
260 1 0.924731 1.95785 11.3737 18
261 1 6.27581 8.7979 -7.95273 21
262 1 0.0848973 -9.52565 -4.31586 19
263 1 -0.0381446 0.606445 -10.4401 18
264 1 1.22245 -13.8931 1.93748 20
265 1 11.5225 0.293894 -6.5614 19
266 1 -14.7963 -5.29643 5.71919 20
267 1 3.03412 -16.1179 -2.40853 16
268 1 -8.49878 -7.46291 -5.3686 18
269 1 3.67485 15.5879 -0.267378 15
270 1 0.860265 -3.11052 -13.643 19
271 1 4.75947 3.12731 14.5993 22
272 1 12.7271 4.80701 1.85792 18
273 1 -5.47651 -7.6689 3.59667 20
274 1 8.45617 -6.87082 -10.8457 19
275 1 -2.58319 -7.49338 1.75537 20
276 1 -7.5532 -4.64279 -8.95334 21
277 1 -10.3253 -2.73621 -8.3396 18
278 1 -8.29015 -15.8112 10.8099 11
279 1 9.74024 0.536729 8.99473 21
280 1 2.2715 -1.94524 9.44706 21
281 1 -4.1525 -12.5257 -14.6347 8
282 1 3.00913 -6.91062 5.52037 21
283 1 -0.179646 7.65481 -16.1313 11
284 1 5.06713 5.22265 1.60191 23
285 1 -6.71404 -5.52542 5.6766 20
286 1 1.86082 11.6904 0.275843 22
287 1 -7.60055 -3.93632 11.8701 20
288 1 -11.689 -8.55432 -6.00366 13
289 1 -3.62097 -3.53644 -10.2391 21
290 1 -3.01116 7.65799 -15.5977 10
291 1 -4.69325 -9.10853 -8.32598 19
292 1 -1.56341 -8.9733 3.97106 19
293 1 6.74084 -7.91344 -15.3612 10
294 1 14.3091 1.82017 -5.84954 12
295 1 10.0997 1.64492 6.0682 19
296 1 -3.66598 -5.34891 -1.99416 18
297 1 -10.2566 -4.78633 9.93025 21
298 1 -2.4995 -15.9779 -0.804591 17
299 1 7.45486 6.76404 18.8729 13
300 1 -5.33399 -15.2061 3.82123 19
301 1 1.30085 2.4758 -4.99563 17
302 1 0.165789 -16.6281 2.07892 18
303 1 -1.01608 17.0552 -2.92489 13
304 1 7.43388 1.007 -10.9312 18
305 1 -4.80099 -2.53823 -14.6778 17
306 1 4.75118 -4.3888 -0.635812 20
307 1 -7.1075 -9.17577 13.2521 16
308 1 2.54389 9.33683 20.2513 10
309 1 0.0853022 -12.6371 -3.16175 24
310 1 -6.96948 -13.3928 -12.3021 9
311 1 -13.5961 3.62778 -8.04142 13
312 1 11.2452 4.9946 7.31936 21
313 1 -5.35645 1.01977 -7.99332 18
314 1 -1.7813 7.15546 -10.4448 23
315 1 -4.39747 -4.95119 7.53011 20
316 1 3.63914 -12.8543 -7.66433 19
317 1 -4.92998 17.4529 1.52279 9
318 1 2.38693 10.2225 5.09128 23
319 1 11.6781 -0.992391 7.15967 19
320 1 -9.73182 1.53247 7.09079 17
321 1 -4.69276 -4.93774 11.2859 19
322 1 -9.65559 7.53825 2.80545 21
323 1 3.90863 -3.31386 -14.6349 19
324 1 15.2536 6.57557 0.554382 12
325 1 2.32824 -9.87981 1.0992 20
326 1 -2.65708 -1.41072 16.7078 14
327 1 -17.8396 -4.24232 6.56607 12
328 1 1.03018 -16.7108 -4.64328 15
329 1 -8.62145 7.85224 14.3544 12
330 1 -12.3131 6.64624 11.1938 14
331 1 -13.0888 -5.94468 9.40473 15
332 1 -15.2326 -8.59999 8.75589 11
333 1 13.8919 -2.88512 -2.51008 16
334 1 -12.3421 -8.8133 9.975 13
335 1 7.31732 -3.88905 -9.37484 21
336 1 9.76897 -14.0739 -7.29221 11
337 1 1.19263 17.5706 -5.78774 11
338 1 -2.52308 -7.15677 6.5858 21
339 1 -9.32215 10.3305 -2.0545 22
340 1 -0.133068 -2.11519 7.77733 21
341 1 10.6221 8.40643 11.5216 21
342 1 -10.159 -4.83887 3.29411 22
343 1 4.88365 -9.83041 -3.71019 20
344 1 -5.52041 14.1661 0.519737 17
345 1 -6.81893 7.85065 6.44278 19
346 1 3.50658 -10.0559 6.50688 18
347 1 9.9807 -5.43064 8.79205 12
348 1 -2.35274 6.10503 8.09712 21
349 1 -6.00594 -1.11441 -5.67436 20
350 1 -4.42737 0.607468 18.813 11
351 1 -6.74449 15.3979 3.47652 12
352 1 9.33684 8.91276 19.6699 11
353 1 -9.90898 12.5313 -3.20514 16
354 1 1.11926 -7.4753 -17.7301 12
355 1 -3.14158 6.05131 -2.42745 23
356 1 5.09519 -11.7318 -11.0109 19
357 1 -10.2375 1.63323 12.8307 19
358 1 -13.4401 1.15048 5.17404 16
359 1 -3.47381 -2.62996 -6.62698 21
360 1 -3.15229 8.25223 -0.147517 22
361 1 5.08184 -1.81198 8.08928 19
362 1 -10.857 -15.2657 1.4475 13
363 1 4.52063 -10.3172 9.47144 12
364 1 -6.32137 -11.7904 11.8695 13
365 1 -16.5456 6.07023 -3.08483 6
366 1 -2.50223 -3.98219 11.9073 16
367 1 -1.00348 -11.304 -9.84195 14
368 1 -5.69736 -2.34725 -8.47042 21
369 1 8.3251 -2.74781 -14.5331 16
370 1 5.04919 15.5465 5.25004 13
371 1 -8.51845 -1.93251 -0.736237 18
372 1 1.39537 -8.551 -14.6524 17
373 1 8.87606 3.64632 -13.7764 8
374 1 -6.98656 -16.2407 -5.89767 14
375 1 -15.6045 -5.6552 -4.64881 10
376 1 -3.52191 -10.6549 -0.185158 23
377 1 9.49321 3.83087 15.3732 20
378 1 9.30851 7.95377 -1.36387 19
379 1 -8.31207 2.41313 -8.88209 20
380 1 7.01686 17.0455 2.79702 9
381 1 -15.4059 -0.410958 -5.49559 14
382 1 -9.16898 9.70643 5.20961 21
383 1 -10.1627 11.0306 2.29004 16
384 1 -8.01161 6.33099 4.31958 20
385 1 8.06691 7.23574 14.919 16
386 1 9.70231 -5.13076 -8.29683 22
387 1 7.58734 1.23206 15.0742 17
388 1 9.63697 2.96275 -5.43547 14
389 1 -9.71853 -17.0967 -1.25503 11
390 1 2.03776 3.82862 9.60776 17
391 1 -5.82028 6.30364 0.115336 21
392 1 -0.715622 -6.65668 -1.87983 21
393 1 -0.632806 9.30669 4.46539 17
394 1 6.19694 2.69916 0.842841 20
395 1 -7.65064 1.60932 -3.14003 19
396 1 5.6333 -12.9848 -2.16398 17
397 1 11.1602 -2.52051 9.78461 17
398 1 -6.26182 -4.27492 -4.19953 15
399 1 -4.53913 -9.82796 2.38819 21
400 1 -3.946 -10.4508 13.5425 10
401 1 -4.80278 10.9578 0.931847 19
402 1 -12.3855 -8.90521 3.04798 14
403 1 7.1909 11.171 18.5894 11
404 1 -8.27431 3.37568 -0.953595 20
405 1 -4.6153 11.6871 -5.30624 21
406 1 5.37646 9.8484 5.41695 23
407 1 -13.9045 -9.02667 0.464665 15
408 1 -4.85411 -8.7688 -5.40321 19
409 1 -12.4274 -0.25289 7.22541 18
410 1 -12.4576 2.23223 -5.41097 22
411 1 2.11143 -9.33111 4.30801 18
412 1 -6.93529 -17.7947 -2.86997 14
413 1 10.281 12.3341 11.6349 15
414 1 8.30602 7.19895 -12.7751 10
415 1 -12.6227 2.4114 -11.4649 14
416 1 -5.7572 14.7974 -10.3255 8
417 1 -10.2935 4.26485 -3.02513 23
418 1 -1.7496 -13.8058 2.52644 20
419 1 13.078 2.97987 5.19355 18
420 1 3.8619 7.63682 -12.1846 15
421 1 -3.7791 1.31682 7.63149 22
422 1 -13.8807 0.0650427 2.55733 18
423 1 -11.9757 3.80491 6.83005 17
424 1 -2.62437 -11.9743 4.758 24
425 1 1.04938 -5.52061 -5.17364 20
426 1 5.60324 -10.3923 -7.44031 20
427 1 -3.09339 -1.72451 6.37038 19
428 1 -9.23984 -0.379089 4.45921 17
429 1 -12.8445 -3.63728 10.7794 17
430 1 -13.5217 6.26587 6.21318 18
431 1 0.107166 -9.24061 6.07245 20
432 1 -5.81167 2.37968 -11.3787 17
433 1 5.46334 -12.3309 -4.92731 18
434 1 -0.851452 -13.664 -11.9889 15
435 1 -3.91141 -4.1416 15.8078 11
436 1 2.65697 -7.95555 -4.20636 20
437 1 -5.143 -0.581557 -11.2734 20
438 1 7.28489 -17.1732 4.94402 11
439 1 0.498807 11.9142 -7.49891 19
440 1 -12.4092 9.8312 6.56714 16
441 1 -7.78939 -6.10418 14.5453 14
442 1 -10.1916 -5.99399 -7.37147 18
443 1 -7.61089 -10.1679 6.26218 17
444 1 5.97371 -3.9779 12.991 14
445 1 9.25522 -0.451253 0.933415 16
446 1 -6.42831 2.97486 4.43199 21
447 1 5.18982 -2.38063 -5.99626 19
448 1 8.50193 -6.94148 6.79934 16
449 1 12.6565 9.89002 -2.39534 12
450 1 -3.63154 3.80237 9.25241 21
451 1 1.70668 9.09541 -0.758142 21
452 1 3.02509 -7.28129 9.44576 18
453 1 -4.01971 -17.1656 -4.50453 14
454 1 -0.181946 8.10048 15.5391 18
455 1 -4.24258 13.8083 6.06969 16
456 1 -10.4294 -12.1089 -4.55749 13
457 1 8.41245 12.9695 2.69243 19
458 1 3.1163 7.89121 11.9592 18
459 1 -6.87875 6.05358 13.1766 16
460 1 -8.50956 -7.45944 0.61721 20
461 1 -10.2746 4.34929 10.9403 15
462 1 -7.7353 -10.1672 -5.04805 21
463 1 -4.57602 8.68715 8.38251 21
464 1 -7.46598 -12.9865 -6.17966 16
465 1 -1.08564 -6.97169 -13.2922 22
466 1 -5.93788 -18.4828 2.82597 14
467 1 -5.55373 -2.33891 4.19925 21
468 1 12.4101 -4.67817 3.01482 17
469 1 -4.49432 -6.89993 13.7251 14
470 1 -9.60534 7.3839 -9.47958 17
471 1 9.74981 1.09286 -3.29492 20
472 1 -8.41957 -14.2679 -0.895695 17
473 1 -0.273342 1.11556 -7.3448 15
474 1 -0.340044 17.8483 4.5804 11
475 1 0.0864557 8.18419 -7.17682 21
476 1 -3.52315 8.96718 13.8058 17
477 1 -10.9467 -6.72387 -1.49093 20
478 1 -0.044859 11.7078 -2.28296 21
479 1 3.98823 13.2786 -7.01889 14
480 1 -5.19885 -6.76363 -10.3625 20
481 1 -1.21584 0.676764 19.1246 12
482 1 -3.17161 -12.5501 -8.12201 19
483 1 0.47437 -2.81391 -10.3843 23
484 1 8.75981 -15.0169 2.37682 10
485 1 -12.783 8.93419 2.39718 18
486 1 4.29798 6.32116 15.7354 17
487 1 8.02297 8.98551 0.905284 21
488 1 1.95993 9.11285 2.01134 21
489 1 -9.87059 11.1065 -9.66719 12
490 1 4.35487 0.664698 -4.06308 20
491 1 3.19399 -6.8899 2.45583 20
492 1 -16.5121 -4.26321 0.815436 14
493 1 5.78169 14.2042 8.10646 13
494 1 -3.73377 3.84341 -13.8435 15
495 1 8.04023 5.25481 0.258929 20
496 1 -1.06645 17.006 -8.5178 12
497 1 8.94197 -11.3067 1.67131 15
498 1 13.0925 0.527907 -2.78155 15
499 1 -1.11192 1.86137 -13.0047 20
500 1 -0.891696 -9.43159 -0.827067 19
501 1 2.51834 -16.915 5.89238 14
502 1 -1.95607 -9.99519 11.4904 15
503 1 -4.66924 5.78124 -5.21174 21
504 1 -11.5028 -13.5508 6.5164 12
505 1 -3.91231 -14.5704 -10.5657 11
506 1 11.8816 14.2006 7.06097 6
507 1 -0.877997 4.17862 -11.0528 18
508 1 2.08216 0.985867 19.2553 11
509 1 -10.961 3.14408 14.8787 12
510 1 1.53369 -20.0446 0.740303 11
511 1 -9.28866 -4.7255 0.124902 22
512 1 10.8174 -7.39816 -5.77539 23
513 1 13.6464 -2.34665 0.608666 15
514 1 -8.17175 8.58035 -7.61307 22
515 1 0.425956 -7.5627 -7.01563 19
516 1 3.67393 4.64144 -7.73067 17
517 1 7.88436 -7.41473 -8.22163 19
518 1 -7.00799 0.492051 15.7526 14
519 1 5.41899 14.4384 2.19703 21
520 1 -1.99198 -1.38089 -12.1655 21
521 1 3.00371 -7.6149 -0.715633 17
522 1 3.71736 1.0521 -17.6943 14
523 1 -8.40711 -2.94283 5.26224 22
524 1 -2.8107 12.6565 2.46245 18
525 1 -9.34548 -4.63382 -12.029 16
526 1 -17.7719 -0.936622 5.55684 8
527 1 -1.1891 -12.492 -16.1573 10
528 1 -7.9028 -9.80778 10.5762 20
529 1 0.422538 9.45735 -10.1834 21
530 1 13.9083 5.0627 8.91223 16
531 1 9.37684 2.38358 0.287742 19
532 1 -10.4235 -12.414 0.752155 17
533 1 -2.67926 -10.5536 -3.62544 22
534 1 0.240742 -5.29377 -15.4945 19
535 1 -9.30281 11.4985 10.0964 16
536 1 3.84668 -3.60612 -8.75567 18
537 1 2.14472 5.97819 1.01906 20
538 1 9.94837 -6.51765 0.818885 18
539 1 -2.40723 13.6883 -7.18404 21
540 1 4.87237 -9.67404 3.59141 20
541 1 8.07374 -1.67979 -1.10546 21
542 1 13.8658 5.91334 -2.62801 14
543 1 5.19733 6.6197 12.9928 19
544 1 -10.4647 6.73908 6.40791 19
545 1 5.73169 11.0097 8.5007 20
546 1 7.36878 2.74909 18.1811 9
547 1 -1.74267 1.96624 -15.7272 15
548 1 -7.03717 -8.17799 -8.0085 18
549 1 -1.19098 -3.52775 14.3378 17
550 1 6.68888 7.5856 7.49526 25
551 1 7.18673 5.40622 -7.3072 20
552 1 -9.25204 1.90483 -5.97144 22
553 1 -3.19058 16.0524 -1.05429 13
554 1 6.48473 -1.47164 16.3215 9
555 1 10.6084 2.29036 -10.9198 12
556 1 11.2742 -12.9573 -5.70537 12
557 1 11.9057 11.7986 14.5086 9
558 1 -14.5699 -8.69925 5.66826 14
559 1 -5.54857 9.4372 -13.6205 10
560 1 -3.59035 1.27218 11.2252 20
561 1 -14.4579 -2.65239 14.0478 8
562 1 -6.58206 11.7501 -10.5029 14
563 1 2.45754 -13.7671 -3.87679 22
564 1 6.08469 -1.32322 -9.89022 19
565 1 -4.43554 16.8243 -3.94157 11
566 1 -6.97151 -7.28397 -13.0351 14
567 1 0.508183 -11.7838 -0.392071 18
568 1 -16.5453 -1.80467 2.70991 14
569 1 4.94058 10.8943 -10.7552 16
570 1 -5.59992 3.66941 -2.32285 21
571 1 -3.37243 9.20828 17.4387 14
572 1 -9.65069 -4.65116 7.17339 18
573 1 3.93002 7.10071 -0.831976 22
574 1 2.79739 -9.45239 -8.65476 18
575 1 3.62221 -5.42707 12.143 16
576 1 7.73465 -1.21769 -3.95851 20
577 1 -15.5763 4.81174 -0.508828 16
578 1 3.77937 6.24768 19.9809 17
579 1 1.88419 15.0827 -8.00763 15
580 1 10.4468 -3.44201 -1.72547 21
581 1 3.19053 8.97511 14.8757 19
582 1 -0.7155 -1.06473 -17.9487 14
583 1 -5.23232 -15.1528 11.5021 12
584 1 -2.87724 1.28229 -10.184 21
585 1 3.91622 -0.379474 -14.4657 16
586 1 3.87666 16.8755 8.22067 9
587 1 8.41848 2.48319 -8.3099 16
588 1 -2.05602 -3.69488 -13.5039 18
589 1 -5.68669 -10.8158 -2.22628 22
590 1 -11.9817 -5.49736 -9.9827 13
591 1 12.2377 1.66403 0.531012 19
592 1 11.3447 4.37793 -1.06866 19
593 1 4.78155 -5.96474 -10.6284 18
594 1 12.0942 6.46121 14.7128 12
595 1 2.16443 -11.1316 -5.62273 19
596 1 0.581731 4.09402 -15.6381 16
597 1 3.77454 12.7447 4.86518 20
598 1 -9.47149 1.46221 1.57673 17
599 1 10.7817 11.4386 17.6509 9
600 1 12.4038 7.694 -0.32202 17
601 1 14.1684 -2.3866 4.9768 9
602 1 13.5564 5.17944 -6.58381 11
603 1 6.84372 3.90423 13.3668 21
604 1 14.0693 3.12652 11.5866 9
605 1 -0.653102 -1.38838 11.267 21
606 1 11.349 10.1897 0.453112 22
607 1 5.26222 4.07848 4.54257 20
608 1 -0.118052 1.84484 16.7636 18
609 1 13.9312 -0.896467 -7.91218 16
610 1 6.27389 2.25293 9.25839 17
611 1 -6.22292 2.69536 -6.07179 23
612 1 15.8466 2.71877 3.92965 11
613 1 6.09713 -8.63625 6.99612 17
614 1 0.17274 -6.98476 1.21729 20
615 1 -8.38902 7.09593 9.41966 18
616 1 7.70019 10.2139 12.4851 19
617 1 12.027 0.509574 11.0802 15
618 1 1.10541 10.6466 10.6055 23
619 1 -1.17375 12.5358 9.39688 18
620 1 7.15919 0.482785 7.36145 23
621 1 1.86011 -18.6604 3.52917 13
622 1 -6.03717 10.8989 -2.19692 19
623 1 10.3049 10.4336 -8.1782 10
624 1 8.9499 -6.17759 -13.9547 12
625 1 0.850835 14.3607 -2.28572 18
626 1 -4.58424 -11.4634 -5.51908 24
627 1 8.88106 -9.53281 -13.2707 11
628 1 -13.0505 1.66552 9.60674 14
629 1 -5.30868 4.39942 -8.08571 23
630 1 -3.05616 -16.874 2.97521 22
631 1 -8.27383 -1.98153 -10.8631 19
632 1 -12.8506 -0.773361 -3.22683 22
633 1 8.40607 -8.85065 2.93462 17
634 1 11.0937 5.71564 10.4555 16
635 1 -0.0300625 -6.52918 4.19774 23
636 1 -15.599 -2.58705 -7.86102 10
637 1 1.51852 0.0783309 -20.3 8
638 1 1.45152 -5.18876 7.57247 20
639 1 -3.04073 4.52488 16.3848 16
640 1 8.18324 10.1751 -10.557 13
641 1 11.0554 -1.63822 12.8349 14
642 1 10.6445 6.89217 -6.8285 19
643 1 11.7165 12.6058 3.0206 12
644 1 -1.41791 -15.5162 -6.5612 16
645 1 -9.94167 -4.17662 13.7249 16
646 1 7.88751 -3.05488 2.26209 20
647 1 1.24494 13.4474 11.4135 14
648 1 8.94139 11.8583 -5.14128 13
649 1 -13.1384 10.687 -1.9006 16
650 1 9.22403 6.95171 5.44985 19
651 1 -12.1317 -10.5467 -2.02628 15
652 1 14.8558 -5.52709 4.29032 9
653 1 6.63636 12.7914 4.99885 15
654 1 -4.67973 3.88116 11.8996 21
655 1 -13.2077 -5.1004 -0.235341 21
656 1 -8.1532 -3.80584 -6.29647 20
657 1 7.58923 -1.91185 9.84401 21
658 1 -3.14707 -13.1341 11.7907 11
659 1 6.25456 8.55682 16.3847 17
660 1 -7.58471 12.2653 0.224373 17
661 1 11.5767 0.306809 3.39052 19
662 1 7.2614 -4.97476 -0.0894438 21
663 1 7.46657 1.80548 4.1956 20
664 1 0.624076 -0.132225 -14.5052 17
665 1 -9.88077 1.18547 10.0656 18
666 1 9.40262 -1.19161 -11.8833 17
667 1 -2.24455 -6.71635 -4.8722 18
668 1 11.4716 -11.5803 -8.64999 12
669 1 5.04196 4.72198 7.67359 22
670 1 2.17878 4.36703 6.14508 22
671 1 -8.44731 4.98544 16.0261 11
672 1 8.92952 6.38926 8.75183 23
673 1 1.3354 -5.78271 13.7522 11
674 1 -1.52485 3.0845 13.6154 22
675 1 1.65381 -5.73386 -12.3101 22
676 1 -6.34738 0.712425 9.64528 19
677 1 -7.19658 6.8169 -6.09177 21
678 1 4.37477 3.72256 11.2976 21
679 1 -9.4302 -16.2789 7.56666 11
680 1 10.2585 7.44909 2.5226 21
681 1 5.35607 -14.8459 -4.38469 12
682 1 -2.14119 6.11535 -8.0475 21
683 1 6.58865 10.9551 2.16892 23
684 1 9.95102 12.5509 5.2078 15
685 1 3.61076 -2.05992 -18.8224 13
686 1 -3.04576 -2.25077 9.18116 21
687 1 0.858765 12.8369 -5.26074 20
688 1 7.01414 7.38766 3.53053 20
689 1 -4.94571 -14.0612 -1.19972 15
690 1 -2.17795 -0.965124 -15.1963 19
691 1 -11.4812 12.207 -0.5289 14
692 1 8.5181 -10.3378 -10.3126 20
693 1 7.94285 4.18588 6.68286 22
694 1 8.63465 7.14336 -9.25641 15
695 1 8.20584 11.8088 -0.183932 21
696 1 -5.35821 5.25374 3.68662 20
697 1 -8.81213 4.49571 2.14244 21
698 1 5.41888 5.95993 -4.10317 22
699 1 6.82848 4.86288 16.2812 16
700 1 10.5586 0.48839 15.0691 14
701 1 -2.81154 -14.8773 9.16614 14
702 1 -7.42722 9.07468 -10.9476 17
703 1 4.27339 11.0665 11.5414 21
704 1 5.18087 -9.6643 -13.7864 17
705 1 1.41616 1.08732 8.19812 21
706 1 5.72185 13.025 -4.05686 12
707 1 3.794 7.3022 6.05272 18
708 1 13.3225 -10.3255 -3.58906 11
709 1 5.88407 8.78163 20.4493 13
710 1 -10.4649 -2.05428 10.045 19
711 1 3.77907 -15.3405 0.684459 17
712 1 1.95783 -3.43697 -6.94573 19
713 1 -8.22799 12.317 5.24841 17
714 1 -1.17615 4.57186 10.6228 21
715 1 4.10154 -5.17753 -5.0019 21
716 1 4.64115 8.37798 2.25017 21
717 1 -17.7673 -4.45045 3.91449 14
718 1 -1.50002 6.45737 18.5763 16
719 1 -3.8254 7.16284 -12.2443 20
720 1 -8.88682 7.97962 -12.7864 9
721 1 3.20351 -13.6974 -1.19788 22
722 1 10.2425 8.71073 -4.0588 19
723 1 2.14245 -4.18079 4.48391 20
724 1 -0.672268 7.21771 2.35957 21
725 1 -12.7274 2.86911 12.3548 14
726 1 6.23885 -0.91616 -12.9975 22
727 1 -0.234136 -12.849 10.2212 12
728 1 2.22474 14.4724 2.24696 18
729 1 -4.37402 1.07132 13.8972 18
730 1 -8.89625 -7.27519 -10.2898 17
731 1 -1.35416 -9.11411 -15.8035 16
732 1 -6.43426 -11.7782 -9.22265 14
733 1 -3.67647 16.344 -7.53788 13
734 1 5.73633 -8.88934 -10.3027 18
735 1 -1.67969 16.3871 6.91706 12
736 1 1.81795 -11.8475 -10.6642 20
737 1 6.50616 -13.7723 0.515541 14
738 1 1.11543 -7.41112 11.5108 15
739 1 14.3747 3.3893 -0.263507 14
740 1 -0.9407 -12.5398 -6.00821 19
741 1 -11.5567 -1.41826 12.5759 19
742 1 2.69101 -1.07731 -9.0044 17
743 1 -4.59589 -19.5662 -2.47686 12
744 1 -9.04012 -11.7465 -1.98578 21
745 1 -8.41488 -1.40006 12.3227 19
746 1 -4.07098 -18.4211 0.260784 15
747 1 11.4025 5.8792 -4.18545 15
748 1 -3.19425 15.8251 3.47482 16
749 1 -3.36636 3.67286 5.93248 22
750 1 -15.3557 6.35037 2.76703 14
751 1 10.4286 -3.12694 2.052 20
752 1 -13.0344 -2.68804 -9.4546 18
753 1 -1.35641 10.7657 -5.22655 24
754 1 6.64613 2.70845 -5.11665 20
755 1 8.21752 11.2121 15.5024 16
756 1 8.25825 3.83035 -2.32699 20
757 1 -14.3923 -0.670672 -11.2397 10
758 1 -12.1138 -5.91295 -4.40701 18
759 1 0.505094 6.53714 20.8648 12
760 1 3.27347 8.06366 -8.85086 21
761 1 10.8918 11.3322 8.59144 18
762 1 -4.90736 -1.57236 11.4328 20
763 1 -1.58497 -18.6335 -4.27208 13
764 1 -7.07471 -17.7323 7.80599 9
765 1 -1.4807 -4.99274 8.77106 18
766 1 10.9426 8.35661 7.71282 20
767 1 0.855882 -8.23346 -10.3199 20
768 1 -9.64859 6.46008 0.00163684 20
769 1 8.73747 10.2533 6.04542 18
770 1 -12.0231 -7.01382 5.26702 17
771 1 5.89596 6.19567 -10.0108 15
772 1 -0.852741 -15.3983 -3.53192 20
773 1 -1.2711 -19.3108 1.70467 13
774 1 0.58542 -14.978 -1.0764 19
775 1 6.51125 0.402504 -7.18067 17
776 1 7.47447 14.9828 -0.0817643 16
777 1 -4.20623 0.61524 -13.7659 17
778 1 -2.76031 1.43106 16.3037 20
779 1 1.6967 4.06571 -12.9542 19
780 1 -11.9427 -2.74014 -12.7519 10
781 1 -11.1957 -3.19874 -2.0872 20
782 1 -0.983259 15.3229 -5.66806 18
783 1 9.097 -0.959237 4.82784 19
784 1 -2.14938 -7.01486 -17.3766 11
785 1 -5.26325 -8.02959 0.0649816 22
786 1 7.70342 8.79856 -4.97325 18
787 1 11.8415 -7.70611 2.93882 13
788 1 -8.68145 4.42242 7.92063 17
789 1 2.68554 -10.7521 -1.97717 23
790 1 14.3656 -7.2593 -5.16071 11
791 1 8.94856 -4.07207 11.4806 13
792 1 0.0575605 10.5254 7.21119 23
793 1 -10.9789 6.0026 13.9112 11
794 1 -10.7516 8.50079 8.56152 22
795 1 -2.72483 -14.8377 5.40159 21
796 1 9.22865 -5.88648 3.95334 20
797 1 5.14658 11.6503 14.2643 13
798 1 -11.2744 -2.356 1.16659 21
799 1 10.0314 -9.84329 -3.22307 17
800 1 -11.5117 10.0599 -4.29099 17
801 1 2.1806 6.08787 3.90407 21
802 1 4.10532 -15.8844 3.74162 20
803 1 2.97317 3.9988 17.2753 19
804 1 -1.24568 8.78377 9.28764 19
805 1 2.70539 -12.9677 8.49385 15
806 1 -6.30113 -5.52204 -1.09731 19
807 1 0.0390509 5.06208 16.2822 17
808 1 -15.1177 -3.2785 -2.05509 16
809 1 0.0236827 12.7799 15.4933 10
810 1 -0.938083 13.8315 0.484071 17
811 1 -7.74906 -9.93486 2.99586 16
812 1 -3.92211 -17.9438 5.87457 11
813 1 4.19093 -4.19002 9.75815 20
814 1 6.88637 -4.97565 8.15514 18
815 1 8.84493 9.40567 9.52574 20
816 1 -3.69017 8.6881 -4.69839 19
817 1 -2.63564 -8.74372 -11.174 15
818 1 -4.07264 5.25291 -10.7394 20
819 1 -6.6773 -2.47339 14.4754 15
820 1 -0.20445 14.954 3.47133 22
821 1 14.9222 -0.0190777 5.9012 10
822 1 4.87606 10.297 -5.95894 20
823 1 -4.85137 6.14555 17.4883 13
824 1 3.23022 6.24393 9.46156 19
825 1 6.84087 -3.98494 -12.3143 22
826 1 -3.61435 -13.7137 -3.76808 22
827 1 -3.23354 1.03457 -6.00535 19
828 1 14.592 -0.144751 2.82422 14
829 1 3.76226 -2.89328 -11.6028 22
830 1 2.45238 3.80541 21.2489 12
831 1 7.52927 -12.4267 -8.37119 17
832 1 4.03246 3.51699 -16.0323 10
833 1 -3.43936 -8.07195 -2.4152 17
834 1 11.0613 4.66793 -9.30758 10
835 1 12.8382 -5.48325 0.0644256 17
836 1 0.715492 -4.53781 10.616 20
837 1 -4.34834 -8.37435 -15.0741 13
838 1 5.07671 12.8432 -0.712991 21
839 1 -1.05842 -3.89808 5.76092 23
840 1 -15.0535 3.86041 5.39488 11
841 1 8.45338 6.08383 -4.53208 20
842 1 13.6282 10.4334 7.97539 11
843 1 3.38564 -5.01579 -17.2663 13
844 1 -5.36478 11.8212 3.1944 18
845 1 13.9646 8.7538 13.7409 10
846 1 8.15812 14.0083 -2.93966 12
847 1 4.47356 2.39265 -12.4735 16
848 1 9.90549 -6.13004 -2.36738 22
849 1 -11.5115 0.436685 -0.394816 19
850 1 10.5758 3.59949 3.76432 19
851 1 -15.4316 -6.44201 -1.06598 14
852 1 -12.8324 5.69041 -10.2606 11
853 1 6.32051 5.5682 10.1897 20
854 1 -10.7856 -2.18318 -5.12786 17
855 1 -14.1911 4.62461 8.7683 10
856 1 -1.0368 4.66447 -5.42796 18
857 1 10.709 -8.33677 -8.52104 15
858 1 -13.5604 -8.0687 -2.85334 14
859 1 12.6059 -7.78885 -2.43119 16
860 1 -15.1117 3.38248 2.51612 14
861 1 -10.6238 -9.27245 -4.12165 17
862 1 15.1739 8.05041 6.93536 10
863 1 -4.8639 -9.13697 5.89879 19
864 1 9.96249 7.62731 17.3524 13
865 1 10.565 -3.99249 6.212 19
866 1 7.06501 -3.90454 5.5725 22
867 1 -12.5836 6.11569 1.25882 23
868 1 -0.789108 9.23405 12.5253 22
869 1 0.83132 5.80846 -8.91804 19
870 1 -1.43064 -10.0633 -18.6789 7
871 1 -1.38033 12.8983 5.71261 19
872 1 -9.80571 -11.681 8.17824 16