ITEM: TIMESTEP
27000
ITEM: NUMBER OF ATOMS
1500
ITEM: BOX BOUNDS pp pp pp
-30.0 30.0
-30.0 30.0
-30.0 30.0
ITEM: ATOMS id type x y z Coordination
1 1 -2.05795 -12.3678 -8.22465 19
2 1 7.42537 -10.7937 0.374266 19
3 1 -10.7934 6.59052 -9.93879 12
4 1 -14.056 2.46774 -7.71781 18
5 1 0.847495 -5.52894 12.0211 17
6 1 -9.73293 0.894678 -9.54212 22
7 1 -5.16365 3.46755 -6.53864 19
8 1 -5.5655 -11.7582 -3.06453 23
9 1 -14.8131 -2.63068 4.33864 11
10 1 2.75014 4.49669 12.7399 21
11 1 2.34542 0.797433 4.93927 23
12 1 -0.403302 5.11358 12.8586 16
13 1 2.65047 -5.53603 0.115638 21
14 1 -1.85644 7.98664 -9.46962 16
15 1 1.65156 5.73955 7.06469 21
16 1 10.3962 3.82708 4.96003 15
17 1 1.40011 14.2468 -11.5138 14
18 1 4.52544 7.06108 -15.7396 19
19 1 -7.1636 0.414125 -1.037 22
20 1 -4.15837 -0.711503 -15.489 13
21 1 5.96617 -12.2301 2.73533 13
22 1 2.7958 -2.46136 7.82448 22
23 1 7.38862 -8.12683 -0.35996 20
24 1 -4.8222 -12.8799 -8.77526 12
25 1 1.09593 -4.24464 -7.68216 20
26 1 1.82626 -5.5461 -15.5717 13
27 1 -1.9202 1.89127 13.4685 11
28 1 -0.860065 -9.05741 3.27874 22
29 1 2.15214 -11.1571 7.66356 14
30 1 -7.62549 -3.18465 2.05882 19
31 1 -12.6483 -1.81979 0.0300705 17
32 1 -1.57225 11.535 -3.03673 18
33 1 7.49232 12.8989 -9.73968 13
34 1 3.51423 -0.691405 -18.6639 10
35 1 -2.21372 -6.08784 12.6678 9
36 1 -12.3469 8.68236 -4.04395 16
37 1 1.30955 13.878 2.57669 22
38 1 -6.29559 6.23183 -6.36134 21
39 1 1.56647 15.1982 -5.11687 19
40 1 0.666688 -12.4892 -3.57242 23
41 1 3.57533 -11.8736 -11.3022 13
42 1 -9.5455 15.1545 4.49197 12
43 1 -13.9301 -3.77157 -9.90844 13
44 1 9.79523 0.0758067 -0.417175 21
45 1 -9.92383 7.93387 -5.21427 22
46 1 -2.2503 -9.12395 6.0104 18
47 1 -8.89509 7.78794 -8.41611 19
48 1 2.2185 4.76389 -8.85851 18
49 1 4.79805 4.92863 2.17696 21
50 1 2.58951 6.62322 4.22743 23
51 1 7.17237 -12.8608 -2.2416 14
52 1 4.73316 3.35077 15.8318 7
53 1 5.98698 -3.62974 -14.2149 14
54 1 9.24652 -10.1238 -2.12909 13
55 1 -8.96692 -7.73669 0.404872 22
56 1 1.74931 -8.25448 9.99108 19
57 1 -11.0585 -10.3938 -0.241703 14
58 1 -7.28336 -5.32261 -0.243271 20
59 1 13.5272 1.19857 3.74316 10
60 1 6.48854 -3.1931 -8.24099 17
61 1 1.03583 9.29 4.42441 26
62 1 5.89886 2.23972 2.68035 22
63 1 -10.3279 -4.56317 0.624414 21
64 1 -7.05467 0.286752 -12.1805 20
65 1 -6.46311 8.03316 -3.41395 22
66 1 -1.25687 5.31814 -15.4291 24
67 1 6.3976 0.104127 -5.60732 19
68 1 5.21981 -0.738839 -8.12627 20
69 1 9.79858 -3.27651 2.44775 22
70 1 7.95643 -6.44656 2.37418 19
71 1 -7.72248 7.8397 -11.439 16
72 1 -10.5059 12.248 3.06584 13
73 1 -6.37066 10.4975 7.16533 16
74 1 -7.77551 -0.341124 9.49204 17
75 1 10.1227 -5.87614 -11.3188 15
76 1 -11.3303 6.60389 3.40432 12
77 1 4.58637 -9.04019 -9.38449 21
78 1 -3.97223 8.56277 -13.9089 17
79 1 -1.24717 3.09915 -17.6067 15
80 1 1.02088 11.2926 -1.98487 18
81 1 -5.91659 2.90682 -11.5081 17
82 1 -3.50578 14.6079 -7.65292 15
83 1 -4.41573 11.1785 3.51397 20
84 1 -4.2829 -1.16633 7.55941 19
85 1 -1.07372 -9.53316 -7.79217 20
86 1 -2.77931 -3.94893 -8.47343 23
87 1 -2.67916 3.70907 4.66005 21
88 1 -10.502 -10.4873 -3.88951 16
89 1 11.9843 -4.42869 -2.26676 14
90 1 -4.01225 -9.61205 -7.39087 21
91 1 7.15245 -8.64003 4.79723 16
92 1 -7.05042 5.80539 -1.32797 21
93 1 4.01104 3.14316 -16.1093 20
94 1 8.39926 2.93808 -12.9148 18
95 1 9.48143 -10.7217 -9.44095 12
96 1 0.123652 -18.4057 -2.7372 11
97 1 -8.2134 -11.4878 -4.94714 16
98 1 -8.97361 -2.46545 -1.08843 21
99 1 4.89032 11.1502 6.74584 12
100 1 5.26192 4.90709 -2.75071 18
101 1 -2.44182 15.7505 -0.916697 17
102 1 -3.91072 9.22896 -7.24123 21
103 1 -8.5332 -4.77858 -10.036 23
104 1 5.05797 -6.56082 10.2223 12
105 1 1.88003 10.4142 -9.32722 17
106 1 9.8076 1.10623 -7.1753 22
107 1 -6.82705 9.51696 -6.53297 18
108 1 -3.55589 14.3684 1.88968 19
109 1 11.5584 5.49047 -14.4178 8
110 1 4.29861 -6.24368 2.30989 17
111 1 -7.47017 4.58892 -14.1269 13
112 1 4.06757 10.5944 -3.13232 21
113 1 8.34141 9.39157 -6.53898 22
114 1 -7.98778 9.60641 -0.500783 20
115 1 -1.7846 -0.77781 -13.2143 18
116 1 1.49926 11.1313 1.59793 24
117 1 -15.8011 3.66901 -9.60662 8
118 1 11.339 -1.30198 -2.59251 18
119 1 -0.704689 6.24751 4.70598 20
120 1 -2.2963 13.1647 -11.8163 19
121 1 1.5644 -5.60687 9.08885 22
122 1 -12.1062 -7.89476 1.05255 13
123 1 -7.79243 -12.2191 -0.148186 17
124 1 1.61843 -10.6981 -8.4529 19
125 1 -6.77923 10.7375 -9.40665 17
126 1 -0.678094 9.48843 -6.75744 17
127 1 12.01 9.02904 -7.44333 15
128 1 -1.09503 -3.1041 12.9486 14
129 1 -6.52117 2.19338 -3.74864 22
130 1 3.09962 16.9356 0.83705 16
131 1 -0.485258 3.09977 7.21013 20
132 1 6.18121 15.6004 1.44006 9
133 1 -4.72166 -1.20246 -8.49693 25
134 1 10.216 -8.89173 -5.74857 16
135 1 -5.62491 1.74584 7.13182 21
136 1 -14.3147 0.601629 -1.20278 16
137 1 -9.73716 -10.5139 2.39925 11
138 1 -15.2736 6.55565 -3.8014 9
139 1 -4.68933 -16.6744 1.29113 12
140 1 -3.75544 -5.40665 -5.55696 20
141 1 3.64817 -12.8837 -3.20105 19
142 1 -1.37783 15.8387 2.93953 11
143 1 -5.87879 -2.06606 4.38654 18
144 1 -10.3835 -0.044596 -6.40993 21
145 1 -4.2448 9.70811 -10.8156 17
146 1 -15.3296 -5.35881 -5.00299 14
147 1 -15.3622 0.633981 4.16932 15
148 1 -0.779847 -4.98371 5.28177 21
149 1 -0.350677 -11.0043 5.9187 17
150 1 11.75 3.05477 -5.81573 19
151 1 6.45924 2.16442 -7.94318 20
152 1 5.48816 6.27886 14.4539 9
153 1 -3.59873 7.25539 -16.169 13
154 1 3.63221 0.0450059 -15.2726 18
155 1 -5.59163 -2.86066 -10.8255 19
156 1 -6.09721 13.1492 -11.1476 10
157 1 -10.5841 12.546 0.158237 13
158 1 4.12573 1.69041 11.8394 19
159 1 -3.90934 -8.46401 -12.8225 15
160 1 -6.83206 10.5818 -12.823 12
161 1 3.32508 12.4682 -13.2227 15
162 1 -9.2863 1.18955 1.19001 18
163 1 -7.84482 12.388 8.62057 11
164 1 -3.76123 -6.70861 -14.8689 16
165 1 -6.3125 -17.5181 -3.73731 11
166 1 7.97707 -10.1785 -4.90843 13
167 1 4.63316 -6.69377 -2.93543 19
168 1 5.54813 14.6829 -7.27871 13
169 1 0.0366883 8.60432 -3.71348 20
170 1 -11.7025 0.35074 4.49717 18
171 1 1.07236 3.44794 9.88849 22
172 1 14.7709 2.14032 1.64712 7
173 1 4.67693 5.58376 7.06754 19
174 1 -12.8904 3.30325 3.47426 19
175 1 -13.614 -5.75952 -1.69697 12
176 1 9.77834 7.1975 -12.2036 16
177 1 2.08602 -1.47245 12.7048 14
178 1 6.5284 12.8461 -13.0489 11
179 1 5.21002 -11.9229 -8.07006 17
180 1 -0.968034 -3.88147 -13.0012 20
181 1 8.5783 2.13995 -10.2146 16
182 1 -7.75395 0.646574 3.11078 20
183 1 2.77198 -19.6778 -5.15691 8
184 1 -14.6359 -8.59766 -5.03311 10
185 1 -2.68986 17.5678 -5.8162 14
186 1 -0.100985 -0.0481204 -19.3144 9
187 1 5.61486 -1.19396 12.3757 11
188 1 13.4866 5.00743 -0.467612 13
189 1 -4.11249 -6.29619 -0.0667236 18
190 1 6.77585 0.131377 -11.8345 18
191 1 -2.77422 -12.3903 -2.96003 19
192 1 -12.976 -0.207525 -7.70996 23
193 1 -11.1678 -2.84694 -8.63248 19
194 1 8.59796 -1.23208 10.8337 12
195 1 6.04554 -4.66434 4.99199 20
196 1 -6.9903 -4.51269 -14.6013 17
197 1 2.67714 -3.71343 2.72406 23
198 1 2.86321 9.20936 -12.6718 18
199 1 6.03492 9.766 1.25091 19
200 1 -6.2202 -10.4209 2.24427 15
201 1 -1.35253 12.9774 -0.164982 19
202 1 -11.2673 0.749411 8.93919 13
203 1 -12.8864 -9.13496 -8.00305 13
204 1 -7.85786 -2.83564 -7.35924 21
205 1 -6.01349 -5.94647 -12.1165 19
206 1 -2.65609 -17.6074 -4.81841 10
207 1 8.27277 5.98202 3.16245 19
208 1 -5.42324 -4.70951 -8.77101 20
209 1 -9.62602 -1.72662 4.89004 15
210 1 3.30554 -14.5518 -5.26615 19
211 1 -1.0028 -11.2848 0.824805 21
212 1 -4.28731 17.1002 -2.82458 13
213 1 2.92106 4.57384 -13.5424 18
214 1 -8.38205 -2.53687 -12.6194 20
215 1 1.66907 -13.505 -0.75006 14
216 1 -4.15739 -3.51389 -13.6434 18
217 1 -12.8038 5.23068 -7.90309 15
218 1 13.7481 6.87056 4.68582 10
219 1 1.85508 2.8765 -11.3647 21
220 1 -2.33335 5.98439 -11.5441 18
221 1 -1.40771 -0.667447 9.10524 20
222 1 -6.79089 12.9673 -7.42304 13
223 1 3.48372 8.01573 1.7574 25
224 1 8.32912 1.0454 5.16252 19
225 1 -5.58978 3.74975 4.59336 21
226 1 -2.01011 -1.66794 5.54688 22
227 1 -7.92907 7.67147 6.98948 20
228 1 1.16106 -2.76738 -14.7405 24
229 1 5.30485 -9.23158 2.47586 23
230 1 -5.23314 4.1142 9.8271 14
231 1 -7.64094 -4.61026 4.44653 15
232 1 13.6375 -8.98257 -4.69534 7
233 1 6.96826 -9.05667 -7.79761 20
234 1 12.4805 -11.2124 -7.47344 5
235 1 -4.31402 -10.2377 5.59397 9
236 1 -10.4741 10.5884 -6.54074 14
237 1 1.07739 3.8194 4.3295 21
238 1 8.38172 9.91278 7.02335 13
239 1 -17.2992 -1.50648 -0.858754 10
240 1 8.2525 -13.171 -8.19817 8
241 1 -6.84147 13.8505 0.77272 15
242 1 -8.93615 13.4808 -4.6768 13
243 1 3.76422 -8.13467 7.81762 17
244 1 7.87591 -2.22282 4.31275 19
245 1 -4.24125 11.6389 0.0604294 18
246 1 -7.01334 -3.76985 -3.30724 19
247 1 -6.26534 0.425045 12.6533 11
248 1 0.245486 18.3005 -0.815866 10
249 1 -6.67825 1.672 -8.76904 22
250 1 -9.56979 9.90817 8.43074 13
251 1 -10.9303 9.26385 0.879198 12
252 1 -2.78902 -2.51626 -10.9227 22
253 1 -8.27906 7.47344 1.86642 21
254 1 7.75591 -0.0167369 1.92061 21
255 1 -9.61124 -12.7744 -2.08303 12
256 1 4.38263 -7.70732 5.00243 19
257 1 -10.0249 9.92266 -2.45567 17
258 1 -3.87995 -1.55045 11.1344 17
259 1 4.6908 -6.32054 -11.5004 20
260 1 -2.44857 1.92258 -14.8957 17
261 1 10.0639 3.83612 -17.121 9
262 1 5.37176 15.4837 -1.40361 11
263 1 -10.6016 -0.106635 -1.08324 23
264 1 7.4076 -1.78768 -16.241 10
265 1 -0.710815 -20.4363 -5.36119 7
266 1 -15.5125 -2.12792 -3.95124 15
267 1 -2.07412 -6.67581 -2.53114 21
268 1 12.6331 1.79143 -2.65658 15
269 1 -9.85526 0.119802 -12.6306 16
270 1 -14.8923 -0.0293831 -9.34803 13
271 1 -7.33478 5.73457 4.63432 17
272 1 -5.64195 16.2923 0.182576 10
273 1 -6.77852 10.9671 1.84399 16
274 1 12.3442 0.19193 -5.65557 14
275 1 12.087 -1.24218 -8.49726 11
276 1 -4.94856 5.37396 -3.78841 22
277 1 1.8255 -7.17526 -9.15686 18
278 1 0.0323677 7.9226 1.98133 21
279 1 -12.9015 2.73049 -5.28553 18
280 1 4.49324 -11.4957 -0.0178506 22
281 1 5.54575 0.437493 5.0693 21
282 1 -9.41638 -2.76391 -4.99384 18
283 1 -8.0443 -9.47642 -2.59181 21
284 1 -1.12792 11.1578 2.40024 23
285 1 -10.494 -11.7439 -7.1874 10
286 1 -13.338 6.00433 -1.16258 12
287 1 -1.3852 16.1547 -10.1362 13
288 1 7.28201 12.9867 3.77358 9
289 1 -15.7782 -4.20419 -1.92302 11
290 1 -1.57713 -11.7689 -5.72369 19
291 1 -16.6676 1.22044 7.29846 6
292 1 -12.3461 8.11145 -7.25432 15
293 1 1.89295 -8.95568 4.48497 20
294 1 -7.08762 -17.1201 -0.402121 10
295 1 7.20447 8.74082 -16.1394 15
296 1 -7.80011 4.88948 -9.165 23
297 1 -2.1208 -14.1019 1.92447 14
298 1 14.2007 7.81176 1.54109 10
299 1 1.02274 0.535112 7.41999 21
300 1 -12.364 0.571317 1.71574 20
301 1 -7.65353 3.61799 1.40273 21
302 1 -5.78404 -14.2179 2.03827 12
303 1 -1.44985 -6.56335 -7.85211 20
304 1 5.68438 -3.64432 -10.9271 18
305 1 1.11217 -1.72604 5.0348 22
306 1 -8.37675 0.721168 6.7345 16
307 1 -2.26805 -6.36859 2.61774 21
308 1 7.77612 -8.0413 -11.0011 18
309 1 -2.75682 -6.24279 -11.3744 21
310 1 3.30113 -3.79512 11.2835 17
311 1 2.74982 -5.97548 -5.2601 20
312 1 -9.05376 1.90591 -14.9094 12
313 1 6.04849 -14.2207 0.295264 10
314 1 -2.33497 12.2303 -5.90864 18
315 1 -8.85097 2.40937 9.02784 19
316 1 -5.93672 -3.0564 9.22721 17
317 1 8.11103 -3.58352 7.76252 12
318 1 8.56583 4.58774 -2.45454 19
319 1 -8.7292 3.13694 -1.32943 21
320 1 3.21043 2.16975 -8.15767 19
321 1 5.10385 -11.1269 5.87152 12
322 1 11.0207 6.93211 -1.94132 19
323 1 -10.0525 4.21014 11.7355 11
324 1 2.42076 8.50029 -0.898935 24
325 1 11.3893 -5.62453 3.63786 15
326 1 0.296258 -14.042 -6.52277 15
327 1 -2.54985 14.513 -4.17079 21
328 1 -5.56517 -8.6016 -10.623 19
329 1 2.71503 3.15928 7.50898 20
330 1 -4.26421 0.465994 4.66836 20
331 1 -6.0906 -8.6817 -5.41338 18
332 1 -7.11413 4.6757 7.36311 19
333 1 -10.4437 -5.39435 -7.137 21
334 1 -9.4161 9.18935 4.47562 17
335 1 -7.29214 -7.15878 -8.2259 20
336 1 -1.02259 -4.82377 -16.2629 14
337 1 -6.4334 -14.28 -0.763433 16
338 1 -5.7345 -5.81203 2.59305 16
339 1 8.47854 1.42687 9.62594 14
340 1 -8.82908 -3.39738 7.30908 11
341 1 -5.56802 6.1868 -11.8196 22
342 1 7.90875 5.62296 -10.5156 18
343 1 -6.87186 -14.4651 -6.07187 15
344 1 4.12499 8.65865 -8.94124 17
345 1 2.28749 16.8443 -2.86498 16
346 1 0.720286 7.60359 -9.92441 18
347 1 -7.16685 6.30551 10.887 13
348 1 -16.0665 3.37814 -4.90318 11
349 1 5.07073 9.98273 -11.5301 17
350 1 -8.96692 -8.50646 -10.9211 13
351 1 0.118713 -10.9647 -10.4725 14
352 1 2.17736 8.24289 -17.3142 12
353 1 -10.2653 14.7539 -1.38605 9
354 1 1.40029 6.10946 10.2442 17
355 1 7.21949 10.9431 -3.81482 20
356 1 5.82559 9.01548 -1.29692 24
357 1 -5.57014 7.6498 -9.32793 22
358 1 7.44265 9.7177 -9.83915 17
359 1 -0.22462 -8.13117 0.274078 21
360 1 -15.8599 -4.10083 1.41464 10
361 1 -3.799 0.0960136 -11.5121 19
362 1 14.0181 7.43589 -5.55199 9
363 1 6.02431 -5.59849 -0.138491 20
364 1 9.49611 6.22731 -5.18648 18
365 1 5.69898 3.95697 -11.4636 20
366 1 2.18399 -9.82533 -2.03939 20
367 1 1.92377 -16.1054 -3.69796 17
368 1 0.67406 -7.73874 6.61861 20
369 1 -9.81605 5.50733 -6.62878 21
370 1 -0.898406 -9.52497 -12.9869 9
371 1 -4.10293 4.13819 -17.1241 13
372 1 2.23471 5.574 15.4624 9
373 1 -12.7216 -4.40396 2.37736 15
374 1 11.4355 -2.84515 -11.2411 10
375 1 12.2796 0.0810052 0.338629 15
376 1 -5.05226 9.10929 -0.947657 20
377 1 2.01166 -7.55089 -12.1125 14
378 1 1.39982 -0.146046 -13.5634 20
379 1 4.62598 -6.47284 -8.02955 19
380 1 -11.7045 4.58174 9.0982 13
381 1 -0.181725 14.4508 -2.52449 21
382 1 -6.77673 -1.36891 -15.7899 12
383 1 -3.65338 1.30637 10.4791 20
384 1 -7.83377 10.8956 -4.14868 20
385 1 -3.87923 4.32625 -13.7565 17
386 1 -12.1308 2.09786 -2.01934 18
387 1 -1.26912 -7.40797 8.67633 13
388 1 0.48781 10.9355 -12.7046 18
389 1 13.8946 8.00999 -1.91451 12
390 1 -7.84935 -15.0379 -3.16736 13
391 1 -2.92916 -8.61652 0.592401 20
392 1 -9.2795 15.5496 1.70069 11
393 1 -0.0567991 -5.26228 -10.2873 20
394 1 2.83968 5.78041 -1.1536 21
395 1 9.68993 2.13019 2.1062 19
396 1 3.28806 17.4445 -6.2096 10
397 1 2.18233 -9.69037 1.71487 19
398 1 -4.19917 6.2477 5.68154 19
399 1 4.65954 6.83712 11.3174 18
400 1 -1.13149 9.07082 -16.4708 15
401 1 -7.2867 -5.52025 -5.90747 18
402 1 0.223187 -2.94045 10.1557 22
403 1 3.87946 10.7247 3.6699 19
404 1 10.1521 7.16485 -15.9071 11
405 1 -3.44843 11.8425 -8.90817 16
406 1 -0.845679 15.2387 -7.35448 21
407 1 9.81374 6.89489 8.8245 13
408 1 14.9477 3.9421 -10.7148 6
409 1 -11.7206 -3.27636 -2.68444 16
410 1 1.93758 -0.067078 9.9507 20
411 1 -4.13646 15.7548 -12.0147 6
412 1 2.47604 -11.7016 -5.95982 20
413 1 4.12827 -1.72023 -12.7338 19
414 1 -5.72869 15.015 -5.5663 15
415 1 -5.87378 2.39953 -16.0809 12
416 1 0.678366 -14.8645 3.72435 8
417 1 -16.2748 0.711162 -3.12375 14
418 1 -8.57326 -0.776444 -4.03001 20
419 1 -5.62477 -5.33248 11.0524 9
420 1 3.66991 6.26948 -6.41033 19
421 1 4.37848 -6.61711 -14.7378 12
422 1 -0.868732 -10.4692 9.10951 12
423 1 9.07107 -1.89487 -6.73551 19
424 1 -11.3602 5.04842 -3.91968 19
425 1 9.35508 -5.28462 -6.37955 21
426 1 -0.00957784 9.36221 10.0989 13
427 1 1.35709 7.05431 -14.7511 20
428 1 0.936595 17.4693 2.8124 10
429 1 7.98459 6.51886 -18.4043 12
430 1 4.94781 1.93315 -12.8968 18
431 1 -7.25756 -10.3777 -8.14291 16
432 1 -11.082 -3.9283 -11.666 15
433 1 12.9297 5.11363 -3.82235 14
434 1 14.1644 7.16052 -9.43423 9
435 1 2.97217 -3.12056 -9.9901 19
436 1 0.858872 -9.76794 -4.69095 20
437 1 6.47493 10.0947 4.34422 18
438 1 -10.9328 3.02592 6.52505 18
439 1 8.10053 7.25192 -2.83535 19
440 1 10.5273 -0.357201 8.21743 10
441 1 11.4884 8.94375 -10.8956 12
442 1 5.85709 4.34072 12.7556 16
443 1 -0.0359997 -2.7499 7.67279 18
444 1 6.09677 6.17839 -0.0902432 23
445 1 1.55985 1.8162 12.8079 15
446 1 11.9919 -3.10948 -5.13066 14
447 1 9.30358 3.33241 7.83498 14
448 1 -12.4992 -3.03321 -6.01215 22
449 1 11.7359 9.86897 -0.277116 15
450 1 11.8529 -8.38774 2.80898 9
451 1 1.36837 -7.13297 -2.87452 21
452 1 12.1809 5.39647 7.13175 10
453 1 2.3228 10.8965 7.80793 13
454 1 9.00126 8.64303 3.14242 18
455 1 -4.79109 11.8028 -3.84391 16
456 1 9.11365 6.95957 -8.56657 22
457 1 9.70009 0.153294 -12.0886 12
458 1 -0.763496 17.0309 -3.7057 16
459 1 -3.51016 -14.5574 -6.21163 16
460 1 -14.0411 5.83177 6.26743 9
461 1 -7.02204 7.7227 -14.842 9
462 1 -3.48694 -14.0351 -0.589411 22
463 1 -9.30504 2.88951 -11.0663 19
464 1 -15.2953 5.64431 -6.98758 11
465 1 10.2153 -8.57485 5.63797 10
466 1 7.98028 6.94674 5.83976 19
467 1 -2.50669 -3.70651 7.99339 19
468 1 -15.3777 -2.42066 -7.13236 13
469 1 0.783302 -6.24404 2.64895 21
470 1 -2.99151 9.3172 7.89587 15
471 1 7.53984 12.2965 -16.1386 6
472 1 8.49543 -0.461006 -8.94965 19
473 1 6.86051 -10.7344 -10.6869 15
474 1 8.99394 -5.64624 5.37871 17
475 1 9.38217 11.3358 -1.79704 13
476 1 12.1211 -6.61354 0.160388 13
477 1 -4.87316 5.91459 2.31881 22
478 1 -12.3454 -8.61781 -2.44655 12
479 1 -14.9596 0.389149 -5.89913 16
480 1 7.51692 1.90886 12.4675 12
481 1 -2.97229 -4.17472 11.0509 14
482 1 2.42793 8.04515 12.2645 11
483 1 -6.53927 12.2511 -1.51344 16
484 1 7.144 6.00416 -6.68801 19
485 1 3.65788 8.61949 6.32246 22
486 1 1.47512 1.35875 -17.2165 17
487 1 -10.6943 -1.99211 1.8784 18
488 1 4.90641 4.82594 -18.324 16
489 1 -1.27595 -0.928311 -8.42496 22
490 1 11.6223 -4.46032 -8.21862 16
491 1 7.04178 3.81113 5.21707 22
492 1 3.4504 7.4525 -3.47205 19
493 1 14.1527 3.33287 5.17015 9
494 1 -0.79714 -0.503053 11.9471 18
495 1 -2.7846 3.97434 8.16716 18
496 1 0.715152 -1.89229 -11.6211 23
497 1 -4.85984 6.91848 8.51348 15
498 1 7.44423 4.60031 9.99287 17
499 1 9.87899 11.4174 -4.73225 12
500 1 4.32098 -17.0434 -6.82914 8
501 1 -3.15271 1.95627 -8.52992 23
502 1 8.6516 8.43963 0.180754 20
503 1 6.63479 13.5138 -3.86931 14
504 1 -0.811612 1.06368 4.47556 22
505 1 0.291936 17.8479 -7.18207 12
506 1 9.76333 5.77754 0.146076 20
507 1 -1.09078 -15.2974 -1.89319 15
508 1 0.848116 -2.88042 -17.9724 11
509 1 -7.0493 15.0874 -2.75952 13
510 1 7.14396 -6.51204 -13.2164 13
511 1 10.9266 3.18692 -0.485848 16
512 1 5.07628 10.6079 -15.5261 14
513 1 7.64134 13.0496 -6.97341 14
514 1 -2.29172 5.99999 1.67229 19
515 1 -8.11562 5.14193 -3.98201 22
516 1 5.42423 5.58127 -8.99924 17
517 1 0.422973 -8.88132 12.341 8
518 1 -2.35564 11.0893 -13.8532 13
519 1 2.87704 13.6366 -0.325441 19
520 1 4.05429 3.34162 4.98601 25
521 1 2.34753 12.9792 -7.64159 17
522 1 9.57483 11.2465 1.97678 14
523 1 12.1153 -6.50597 -5.73094 13
524 1 -15.5527 -1.11241 1.52503 13
525 1 1.29808 -17.2629 -6.70867 13
526 1 -0.900584 -0.967059 -15.9215 16
527 1 1.43322 5.69617 1.31028 21
528 1 6.30871 -5.91843 -5.69099 18
529 1 3.63057 15.4962 3.97741 12
530 1 -15.4806 3.30649 4.36459 14
531 1 5.68791 -15.3315 -3.92524 10
532 1 6.04745 7.65304 -12.4684 18
533 1 4.04256 -8.50651 -0.316983 19
534 1 -3.35598 8.77481 1.7062 21
535 1 4.10592 -3.57273 -16.5433 15
536 1 2.24105 -12.3309 5.23003 14
537 1 3.70803 10.7789 0.0395743 20
538 1 -3.61303 3.96853 12.2054 11
539 1 -11.568 -6.37339 -9.97999 16
540 1 3.24367 0.247634 -10.4886 20
541 1 -6.80078 14.3826 6.15536 14
542 1 5.00983 -8.8387 -13.2308 13
543 1 2.46282 -5.09986 5.68054 21
544 1 1.50179 -7.97682 -6.78914 20
545 1 -13.7737 -0.84035 6.86725 14
546 1 3.34221 6.75664 -11.1751 19
547 1 -4.64318 -12.0288 -5.81795 22
548 1 -10.4587 6.51652 6.65477 16
549 1 8.4932 10.3504 -12.2745 14
550 1 -3.74087 6.24149 -1.18946 22
551 1 -10.316 3.34121 2.50603 16
552 1 10.6287 -7.25596 -3.0346 18
553 1 0.316553 12.7561 -5.36019 17
554 1 11.5407 5.60311 -10.798 19
555 1 9.5882 4.34733 -7.75015 20
556 1 -12.6235 1.6154 -10.8505 15
557 1 -13.9066 -5.63316 -7.55356 17
558 1 -0.498507 12.7721 -9.74296 17
559 1 -1.52628 5.89113 9.26895 20
560 1 -7.70137 -2.515 11.9863 9
561 1 2.18584 -4.8933 -11.933 20
562 1 -4.25238 4.72459 -9.13059 22
563 1 5.82295 12.3868 -1.36809 18
564 1 -10.6951 -6.26661 3.5859 13
565 1 2.68389 6.57414 -19.9386 8
566 1 3.17181 -13.6946 -8.73764 12
567 1 7.86496 1.07851 -15.2744 15
568 1 -4.21404 -4.14991 -16.5068 10
569 1 -1.09311 3.13057 11.2535 16
570 1 1.11359 2.66606 -14.6869 20
571 1 -9.0637 -7.2616 -4.93471 16
572 1 6.06455 -3.79094 -2.4261 20
573 1 -4.14621 -9.26603 -3.44306 21
574 1 7.1382 5.62322 -14.4253 18
575 1 7.84215 -6.45305 -3.17307 18
576 1 -10.0277 12.6153 5.9828 12
577 1 10.6228 -9.11019 0.166384 15
578 1 9.65426 -5.37644 -0.213228 22
579 1 9.25673 -10.5216 3.00172 11
580 1 1.72761 12.6257 5.26592 16
581 1 -7.0298 8.99906 9.80316 13
582 1 -1.61704 -17.2391 0.290677 10
583 1 7.37478 3.59124 0.391978 21
584 1 7.66085 7.62875 11.2754 11
585 1 -14.0472 3.20993 0.857771 16
586 1 4.23502 -8.94042 -5.27776 21
587 1 4.79784 13.1418 2.1227 19
588 1 5.76164 -3.12866 10.2323 15
589 1 -4.05501 14.7268 5.00183 12
590 1 -1.60065 -12.3605 3.91473 16
591 1 -12.5969 -0.277361 -4.03497 21
592 1 4.31485 4.5949 9.5513 20
593 1 -0.706368 9.34597 -0.868688 18
594 1 -6.2482 -5.06963 7.16434 12
595 1 4.22787 -2.4185 5.10351 22
596 1 8.07023 -2.76375 -0.530715 22
597 1 6.82878 7.42399 8.36768 18
598 1 -3.07639 6.37167 -6.82633 21
599 1 -3.84007 -7.59789 -9.0018 18
600 1 -1.43255 2.7593 -11.7956 19
601 1 -7.24222 3.87204 12.1936 12
602 1 0.405245 15.721 0.361321 20
603 1 13.0858 -2.47764 3.62543 12
604 1 4.85796 14.1018 -10.3304 12
605 1 -2.33447 9.1313 4.71093 22
606 1 5.17367 9.44902 9.70201 11
607 1 5.73769 1.15439 -17.4881 12
608 1 -6.11582 -8.84914 -0.370347 19
609 1 -4.7326 -2.65426 -5.90849 22
610 1 13.1526 -0.203536 5.95064 9
611 1 -0.576031 -7.08625 -14.1148 16
612 1 -1.81473 -8.46722 -5.24668 22
613 1 11.6216 -3.14464 -0.254953 14
614 1 3.33082 -6.92283 12.8424 9
615 1 -9.71322 -5.64277 -13.2806 13
616 1 4.93211 15.8477 -4.49539 11
617 1 -3.59537 -3.57057 1.22422 17
618 1 -10.0585 5.43486 0.0152087 16
619 1 12.0807 6.17198 -7.11175 15
620 1 7.44361 3.47861 -16.3528 17
621 1 -6.34399 15.0644 3.08577 14
622 1 4.81038 8.57214 -18.8103 11
623 1 9.22985 -3.92434 -3.68277 19
624 1 -9.62183 1.88415 -3.56501 21
625 1 10.0655 11.5107 4.96579 12
626 1 -12.4974 -6.84303 -5.45194 18
627 1 6.01251 2.32446 7.98814 21
628 1 -12.3673 -1.18562 -11.4746 15
629 1 -8.41938 2.96717 4.84322 19
630 1 -1.31541 4.50778 -8.71568 20
631 1 7.22919 -6.12045 -8.689 20
632 1 -13.0167 -11.5071 -5.917 8
633 1 10.1017 -7.36726 -8.57933 17
634 1 -9.75528 6.97182 -1.76132 22
635 1 -10.483 -6.58094 -1.64448 17
636 1 -7.83783 -8.53296 3.59055 11
637 1 10.9617 -3.19274 5.74423 16
638 1 5.9298 -3.15189 2.00474 23
639 1 -13.3571 2.13749 6.98696 18
640 1 -0.144179 11.0105 6.99686 15
641 1 0.470456 5.53945 -12.5985 18
642 1 -5.96156 8.51047 3.93208 19
643 1 9.69415 10.7768 -8.4886 16
644 1 -0.0856249 8.15105 7.42067 20
645 1 6.68427 -7.43231 7.03309 13
646 1 1.70062 15.6416 -8.84204 16
647 1 -10.077 7.02661 10.1672 12
648 1 -7.15559 -8.01792 -13.9577 11
649 1 -15.479 3.77915 -1.6257 13
650 1 -3.84774 -11.1979 -0.399997 16
651 1 5.11229 -4.22624 7.73607 17
652 1 -3.93886 -16.9869 -1.5772 17
653 1 -14.4622 5.65038 2.39151 11
654 1 11.6358 3.17856 -11.8955 12
655 1 -11.2729 11.9714 -3.7369 14
656 1 -8.75818 0.932436 11.5212 12
657 1 -2.99367 -11.3311 -11.2435 11
658 1 -4.14914 -14.9127 -3.55304 21
659 1 5.8613 -12.2014 -5.24659 16
660 1 1.41079 10.3866 -15.0389 16
661 1 9.6943 1.42745 -3.39942 20
662 1 11.427 5.72175 2.33274 15
663 1 12.1937 2.76224 -8.55779 14
664 1 -1.67555 5.9655 -18.6624 10
665 1 -3.53872 -6.68598 6.06639 15
666 1 4.97484 10.972 -6.96338 21
667 1 7.95585 2.69475 -5.21928 21
668 1 -6.90354 -0.144212 -6.33526 21
669 1 6.06337 8.75389 -5.06453 20
670 1 -11.8848 -3.83645 5.68237 10
671 1 5.47734 7.0879 4.42947 17
672 1 1.09285 -12.208 2.51263 20
673 1 2.44142 9.13624 -6.06127 17
674 1 -1.91895 12.9038 4.7471 15
675 1 -2.85973 1.40078 7.22024 20
676 1 7.9648 -1.32497 -3.61626 19
677 1 -4.18028 -3.89252 5.01724 19
678 1 4.06159 -13.5484 3.30623 12
679 1 -5.74179 -0.459729 1.73437 18
680 1 11.7479 9.20009 6.60673 11
681 1 9.03682 -3.6171 -9.63457 18
682 1 -9.45858 -1.97605 -15.4209 8
683 1 -0.161076 13.0046 -13.9581 11
684 1 -11.0606 2.80489 -8.39859 19
685 1 11.0898 8.70002 -3.63562 18
686 1 -7.79064 12.0658 4.3959 20
687 1 -9.78042 -8.67624 -7.65919 17
688 1 -3.15912 8.31895 -3.5792 19
689 1 3.77492 0.914971 8.03385 18
690 1 -1.10763 -9.92321 -2.46613 21
691 1 9.00965 -2.71691 -13.2217 13
692 1 6.15205 -9.7941 -2.71948 19
693 1 1.71282 4.61432 -17.8088 18
694 1 -7.68755 -1.22613 -9.8052 19
695 1 -6.25079 -6.44661 -2.53828 16
696 1 -8.4221 2.36288 -6.75025 21
697 1 -4.42328 12.8277 7.64837 9
698 1 7.05419 -1.02712 7.32497 19
699 1 -4.52599 -8.35575 3.13243 18
700 1 10.7001 -0.685713 3.61396 19
701 1 -0.79868 8.18565 -13.2379 21
702 1 12.3506 9.2143 3.08909 14
703 2 -12.4461 3.48316 -7.03698 19
704 2 -3.61587 10.2379 -12.7145 14
705 2 -2.87837 4.4346 -18.3547 11
706 2 -6.62644 2.62824 5.84747 20
707 2 -12.2637 -5.04068 -5.96587 19
708 2 -4.45054 0.462955 6.55688 19
709 2 -7.6307 -7.47405 -6.36716 19
710 2 -12.063 5.14179 -9.67041 15
711 2 1.30634 17.4679 0.889348 15
712 2 -5.91691 -0.311509 3.62027 19
713 2 9.02968 3.98137 -0.412618 18
714 2 -4.17308 -2.77774 -9.53377 22
715 2 -14.0752 -10.0112 -6.5821 9
716 2 -6.85301 0.414885 -4.4816 21
717 2 -2.51152 -8.25392 2.50389 21
718 2 2.20537 4.58257 8.88229 21
719 2 2.68562 -1.48319 -11.5084 22
720 2 5.40853 -13.8929 2.07717 10
721 2 5.96264 -0.46595 2.30453 20
722 2 -9.77459 8.64857 -0.57105 15
723 2 -13.643 6.85528 -6.75828 12
724 2 13.6154 1.64536 5.66465 9
725 2 8.85103 -9.48608 -10.541 14
726 2 -11.9375 -5.2055 -2.1939 17
727 2 -7.35337 0.466662 1.13015 21
728 2 -0.863444 -11.2219 2.76962 19
729 2 11.2521 -7.31057 4.55277 10
730 2 2.83138 -9.22639 -8.56504 20
731 2 6.79827 -1.94509 11.2249 11
732 2 2.83761 14.6873 -10.2045 14
733 2 -11.1484 -10.898 -5.59407 13
734 2 4.37784 3.59616 11.6179 20
735 2 -11.9914 10.3527 -3.11755 12
736 2 -2.0344 4.17198 12.9344 11
737 2 -6.76968 6.32967 -4.30316 22
738 2 4.75296 -11.0801 1.72293 19
739 2 -0.231982 12.3308 5.61311 18
740 2 -2.90823 16.3871 -7.08047 13
741 2 0.52572 -8.21308 -12.9149 13
742 2 -8.56009 -1.30161 -6.01768 20
743 2 0.606427 -3.71176 -10.9504 17
744 2 6.75677 0.313772 -8.04842 21
745 2 -6.31008 12.8417 7.40005 14
746 2 8.40246 4.64906 -17.8344 12
747 2 -0.523323 7.0851 -11.3793 17
748 2 10.7021 10.1253 -6.22601 13
749 2 -7.41795 1.98999 12.4919 12
750 2 -6.58145 14.5705 -1.04472 16
751 2 7.34254 5.96493 -8.70497 20
752 2 1.05442 -4.47991 -13.5521 22
753 2 -14.839 0.638181 7.10384 13
754 2 10.0538 10.2153 -3.2575 16
755 2 -8.54061 13.7159 5.63331 15
756 2 -4.13754 -7.25168 -11.0093 17
757 2 -1.63553 15.3534 0.961432 19
758 2 3.28953 -10.8135 6.18946 15
759 2 12.3317 -4.09111 4.23326 14
760 2 -10.358 2.11613 -1.7052 19
761 2 11.152 -5.77025 -9.57195 13
762 2 8.02196 -12.0407 -9.79495 11
763 2 4.02846 9.94489 1.95414 20
764 2 8.28143 -6.51828 0.275485 22
765 2 9.10296 -5.06609 3.17141 21
766 2 -6.37176 -3.53386 11.4042 12
767 2 11.5567 -3.01728 -3.26973 15
768 2 1.07946 3.39955 1.33919 23
769 2 11.5244 7.16516 7.63598 11
770 2 -2.47884 3.24519 6.44704 22
771 2 6.26445 14.3487 2.93203 9
772 2 11.0302 -11.058 -8.5361 9
773 2 1.36357 12.927 -12.8464 17
774 2 -8.1077 -2.98558 -9.33442 20
775 2 -2.93182 0.403954 8.85223 19
776 2 10.0109 -3.41 -5.66625 19
777 2 -10.2421 0.343208 -4.44693 22
778 2 -11.9402 -5.05555 4.0313 12
779 2 -15.139 -5.69509 -3.20183 13
780 2 11.782 -2.45387 2.02395 15
781 2 -2.47435 -5.54006 4.42647 19
782 2 -4.46906 2.97151 8.31226 19
783 2 7.87705 0.964459 -13.3162 18
784 2 5.80825 0.869754 12.4085 13
785 2 -0.635461 8.47895 3.84158 20
786 2 -10.6783 -0.0939141 0.99137 23
787 2 1.78746 -11.4821 -10.5156 11
788 2 10.3609 -0.564408 -7.82916 17
789 2 -9.82039 11.1753 4.48172 13
790 2 -0.732667 -17.1824 -1.60897 13
791 2 6.178 -5.09319 -9.73783 18
792 2 6.33892 2.22204 -6.03827 22
793 2 -0.328813 6.28639 0.819069 22
794 2 4.59718 -7.15339 -5.12876 20
795 2 2.40656 -3.01864 4.37793 21
796 2 -4.37362 -13.1224 -4.2187 21
797 2 11.9311 4.33706 -7.54026 17
798 2 -1.97614 -9.28861 8.05314 14
799 2 6.26383 12.0459 -14.7111 13
800 2 -7.64987 -4.38385 6.36318 13
801 2 8.71424 -6.78621 -12.3941 9
802 2 1.93182 -12.3287 -7.78212 17
803 2 11.8284 -6.60935 2.09282 14
804 2 -6.7008 11.8819 0.241215 19
805 2 9.93072 9.21739 -11.8602 13
806 2 -3.4332 -1.48732 -12.4888 20
807 2 -4.07423 -5.44801 1.62877 20
808 2 0.842032 -6.78424 -0.675039 23
809 2 -3.91119 -5.34895 -3.38708 20
810 2 -2.16905 14.4773 -2.28173 20
811 2 -7.22764 13.189 2.74279 19
812 2 3.46892 0.406185 -8.68831 21
813 2 8.2711 11.8546 -8.40786 14
814 2 1.00463 3.45392 -13.0719 19
815 2 -4.37469 10.7651 7.49956 13
816 2 -1.77573 7.33739 -17.2388 13
817 2 -13.7535 7.63852 -3.64398 12
818 2 1.58536 10.0539 -0.233864 21
819 2 -7.86602 8.59559 5.44744 18
820 2 -6.59697 1.85211 -6.71504 19
821 2 8.02838 9.53883 1.73331 15
822 2 15.072 5.46862 -9.9111 6
823 2 8.27526 -7.55579 -9.31993 19
824 2 -8.05843 -2.60727 4.22845 15
825 2 6.37203 2.03537 -0.631904 23
826 2 -2.64477 11.0973 3.81421 17
827 2 -4.99756 14.225 -12.071 7
828 2 -3.93719 8.17622 -1.98273 18
829 2 2.70066 -9.57102 8.76715 12
830 2 -8.22534 -9.23497 -9.29874 14
831 2 8.88851 2.76677 -8.45295 21
832 2 9.29436 7.05085 -1.17777 20
833 2 -7.61407 -2.21808 8.37482 15
834 2 -4.59959 9.89983 0.988279 20
835 2 -4.95114 11.1655 -9.79252 19
836 2 -3.47577 11.0295 -7.102 18
837 2 9.96419 1.49854 8.22293 11
838 2 -2.93036 5.77094 4.2259 20
839 2 12.8884 3.15886 -10.493 9
840 2 -5.43243 4.0375 11.992 13
841 2 -2.52752 -1.88477 12.2531 15
842 2 -8.75398 -0.540529 -1.43779 19
843 2 -4.9592 -4.95633 -14.7974 14
844 2 -0.0973806 -7.99903 -7.77363 20
845 2 4.45438 1.92343 -14.5814 21
846 2 14.7326 3.02009 3.49448 7
847 2 -3.48203 5.69719 9.08321 16
848 2 7.81226 3.67048 -11.4063 18
849 2 -9.55877 0.674142 9.69969 13
850 2 -0.176682 1.72078 -18.36 12
851 2 -1.01052 -11.432 -3.62798 19
852 2 -1.82572 -6.71791 -6.12722 23
853 2 10.3392 -9.06199 -3.78286 18
854 2 11.0419 9.7191 -9.15392 12
855 2 -0.950537 -1.74478 -10.8986 22
856 2 -5.69474 15.3505 4.77225 13
857 2 -7.14921 -5.69649 -3.90868 18
858 2 -10.0991 -7.20181 -10.568 15
859 2 0.632005 9.26128 -13.571 20
860 2 -0.672196 11.2905 -6.00775 17
861 2 -4.93616 -15.3253 -1.52328 23
862 2 11.7376 -1.57843 6.59043 12
863 2 0.572401 5.41719 14.383 10
864 2 -8.65449 -11.0714 -6.85125 15
865 2 1.13848 -20.4631 -5.62356 7
866 2 3.5468 6.28752 14.4844 12
867 2 6.689 8.66618 10.0792 12
868 2 11.9384 1.56725 -7.15315 14
869 2 1.11029 8.07844 10.989 12
870 2 6.50725 14.3294 -5.52037 12