ITEM: TIMESTEP
254000
ITEM: NUMBER OF ATOMS
2000
ITEM: BOX BOUNDS pp pp pp
-30.0 30.0
-30.0 30.0
-30.0 30.0
ITEM: ATOMS id type x y z Coordination
1 1 -16.0884 7.56128 2.81053 11
2 1 -12.8292 9.20935 9.33306 11
3 1 -15.5731 4.64343 8.15355 12
4 2 -14.881 5.24346 6.4006 16
5 2 -15.5246 -0.205887 6.24685 16
6 2 -15.9294 5.65937 2.36243 15
7 1 6.12521 -15.0034 -3.86024 13
8 1 -2.10938 -14.2867 0.998579 16
9 1 4.58581 -14.5546 -8.60741 11
10 2 -0.169634 -14.1251 -6.85768 15
11 2 4.88753 -15.5012 -7.09763 11
12 2 -0.943044 -14.4808 2.69969 16
13 2 -4.66921 -6.08258 -17.2349 9
14 1 2.15037 -4.39228 -16.4313 15
15 1 2.78755 -3.56709 -19.1231 10
16 2 1.06688 -3.00676 -15.8076 17
17 1 -10.4345 -9.7647 -0.372706 16
18 1 -16.3277 -5.05156 -6.71943 9
19 1 -8.82268 -11.0956 -1.89271 19
20 1 -11.8437 -8.71888 -6.41603 15
21 1 -14.9273 -7.75568 -1.97903 11
22 1 -14.3135 -7.93862 -6.79027 9
23 1 -12.6996 -6.25167 -3.58016 17
24 1 -14.5897 -9.58382 0.959432 10
25 1 -16.7197 -7.99159 3.94645 11
26 1 -13.8895 1.27901 -11.6584 16
27 1 -11.9431 -9.04718 -9.44663 11
28 1 -12.4522 3.42311 -12.5965 16
29 1 -17.247 -2.26985 -8.25412 8
30 1 -15.9109 0.172328 -8.65651 13
31 1 -15.9358 -1.56905 -11.2237 8
32 1 -12.1799 -1.38147 -7.83026 15
33 1 -16.9262 -1.92231 -5.31552 12
34 1 -13.1304 -3.37095 -5.2124 17
35 1 -16.8288 -4.32851 -3.14891 12
36 1 -12.1665 -0.829614 -3.49753 20
37 1 -14.9321 -1.04395 -2.17919 20
38 1 -13.9151 -3.76881 -1.79076 19
39 1 -18.2393 -6.8698 -0.906169 9
40 1 -13.2156 -5.08057 -8.34989 13
41 1 -7.15219 -13.5366 -7.11592 13
42 1 -7.1641 -12.7068 -4.26155 15
43 1 -7.39601 -14.3668 -1.7839 13
44 1 -7.74737 -9.58784 -4.77998 21
45 1 -12.1952 -11.591 1.69701 13
46 1 -7.52105 -15.3349 1.73319 13
47 1 -4.87732 -11.479 -12.1806 12
48 1 -10.0024 -6.8932 -8.5402 19
49 1 -7.40548 -11.7274 -9.77946 14
50 1 -9.80719 -11.5991 -5.13766 14
51 1 -6.62809 -6.34922 -10.3539 21
52 1 -9.59996 -13.0383 0.541594 15
53 1 -10.3327 -11.6251 -8.11092 12
54 1 -13.8936 -8.93278 3.87567 16
55 1 -6.84366 -6.91274 -7.0543 20
56 1 -9.70248 -6.21502 -5.25829 22
57 1 -8.60113 -9.59646 -7.72738 19
58 1 -11.0376 -8.57685 -3.45782 16
59 1 -6.52456 -6.33227 -3.74609 22
60 1 -9.5965 -6.12137 -1.91501 20
61 1 -7.76901 -8.26881 -1.61392 22
62 1 -6.00152 -0.0103361 -17.2001 10
63 1 -3.95584 -0.0838999 -15.4412 21
64 1 -6.46977 -7.83807 -13.0601 12
65 1 -8.9585 -8.45483 -11.197 14
66 1 -6.5612 -1.0684 -14.0063 19
67 1 -12.3951 -1.11767 -11.2476 15
68 1 -6.85613 -3.52426 -12.392 20
69 1 -10.3462 -4.22569 -10.3373 17
70 1 -6.74236 -1.16098 -10.1723 19
71 1 -9.60726 -1.31722 -8.9091 17
72 1 -7.92079 -4.34522 -8.76794 21
73 1 -10.6103 -3.21342 -6.88582 19
74 1 -6.70229 -1.65699 -6.76593 22
75 1 -9.6867 -0.9571 -5.25527 21
76 1 -7.96472 -3.87557 -5.20671 18
77 1 -10.9626 -3.66217 -3.2573 22
78 1 -6.72334 -1.43802 -3.6062 19
79 1 -9.64372 -0.575765 -2.16564 21
80 1 -7.77959 -3.39732 -1.92665 22
81 1 -3.1341 -7.23658 -17.7853 7
82 1 -3.29385 -13.9422 -10.8187 9
83 1 -0.896179 -11.5165 -10.6692 18
84 1 -4.35442 -11.8721 -8.93562 15
85 1 -5.04785 -14.7616 -4.33015 16
86 1 -4.39218 -14.8504 -7.75497 11
87 1 -0.618039 -12.4249 -7.12391 17
88 1 -4.19136 -11.8933 -5.23224 19
89 1 -2.03698 -14.6463 -5.08704 13
90 1 -3.45409 -17.2862 -2.88043 6
91 1 -1.26809 -12.1033 -3.87974 23
92 1 -4.24307 -11.8992 -1.67811 20
93 1 -2.19542 -14.2648 -2.02519 17
94 1 -0.308186 -3.3182 -18.7964 12
95 1 -5.59729 -5.43905 -14.9534 14
96 1 -1.09425 -9.03313 -16.5699 11
97 1 -4.35688 -9.02304 -14.8835 15
98 1 -3.61566 -4.46268 -17.2705 10
99 1 -4.22003 -6.3868 -12.2143 19
100 1 -2.30853 -9.32853 -11.9069 20
101 1 -5.56027 -9.38076 -10.0819 19
102 1 -1.21322 -6.52479 -10.8228 20
103 1 -3.74687 -6.67959 -8.93744 21
104 1 -2.29273 -9.68819 -8.85624 21
105 1 -4.79187 -8.82537 -6.63797 19
106 1 -1.09279 -7.06648 -7.11426 23
107 1 -3.91132 -6.50569 -5.54077 21
108 1 -2.19572 -8.81159 -5.19494 22
109 1 -5.06682 -9.65135 -3.44113 21
110 1 -1.26129 -6.44383 -3.43348 22
111 1 -3.92015 -6.66751 -2.01173 20
112 1 -2.06202 -9.68293 -1.87659 22
113 1 -9.6483 -2.68517 -12.755 16
114 1 -7.76264 -3.01035 -15.7479 11
115 1 -3.5984 -3.24569 -13.738 18
116 1 -1.08028 -2.77505 -16.0426 17
117 1 -8.90105 -5.94564 -12.9561 12
118 1 -1.28641 -0.354802 -13.8049 22
119 1 -3.88427 -0.882991 -11.7739 20
120 1 -1.84489 -3.02852 -11.9645 19
121 1 -4.75285 -3.80571 -10.2589 20
122 1 -0.963864 -1.19914 -10.41 20
123 1 -4.10968 -0.981394 -8.46988 23
124 1 -1.50245 -3.43469 -8.66311 21
125 1 -4.69292 -3.48711 -7.11039 20
126 1 -0.827306 -1.53667 -6.85912 20
127 1 -3.90836 -0.76121 -5.06422 19
128 1 -1.64942 -4.43913 -5.54778 21
129 1 -4.1553 -3.8976 -3.73577 22
130 1 -1.26 -1.72998 -3.47641 24
131 1 -4.05327 -0.882821 -1.98322 22
132 1 -2.03987 -3.66086 -1.90673 22
133 2 -8.47838 -11.4847 -3.73831 18
134 2 -11.0417 -11.8274 0.125625 14
135 2 -11.1735 -1.21827 -12.7533 13
136 2 -13.0603 -7.67469 -5.15223 13
137 2 -17.2877 -5.13562 -1.52514 12
138 2 -14.5593 -9.3473 -1.28031 8
139 2 -13.2968 -5.42782 12.641 11
140 2 -14.2902 -5.87832 -2.00915 17
141 2 -16.6913 -1.23195 -9.65718 7
142 2 -14.6504 -5.77879 -7.28645 10
143 2 -13.4275 0.24588 -7.439 15
144 2 -16.8585 -4.01532 -8.29948 9
145 2 -16.2756 -0.826299 -6.92908 13
146 2 -11.3434 -5.22283 -8.93084 13
147 2 -17.0004 -3.90286 -4.95275 11
148 2 -13.6799 -1.50056 -4.67839 18
149 2 -16.7201 -0.506891 -4.00554 12
150 2 -12.671 -4.14979 -3.44631 19
151 2 -15.7459 -2.92034 -1.97589 16
152 2 -13.0656 -1.76266 -2.01002 19
153 2 -12.7666 -8.78619 6.43926 13
154 2 -8.59251 -12.6508 -5.86682 11
155 2 -3.98331 -14.5453 -5.9643 11
156 2 -13.2012 -8.8782 -8.15288 12
157 2 -13.4412 -7.21373 4.38948 19
158 2 -8.89792 -11.417 1.72938 19
159 2 -10.3639 -9.72683 4.1984 20
160 2 -9.87141 -8.81652 1.19148 19
161 2 -14.1152 -0.684535 -11.4924 12
162 2 -7.98613 -6.33186 -8.53069 20
163 2 -5.65002 -11.2794 -10.3477 12
164 2 -10.589 -7.79719 -10.1202 14
165 2 -3.10733 -10.1226 -13.6077 15
166 2 -8.44131 -12.3691 -8.3102 10
167 2 -3.74578 -12.832 -12.8044 11
168 2 -6.26233 -13.986 -3.08796 16
169 2 -10.624 -7.17484 -6.57392 22
170 2 -10.9047 -9.99374 -5.21698 16
171 2 -7.57007 -8.57392 -6.58638 17
172 2 -8.17686 -12.8144 -0.895424 18
173 2 -7.42989 -5.97051 -5.55579 18
174 2 -10.8758 -6.57921 -3.58046 17
175 2 -6.96 -8.38915 -3.6099 23
176 2 -9.53021 -9.3726 -2.02465 18
177 2 -7.75496 -6.15014 -1.80648 21
178 2 -7.46216 -4.9997 -14.2944 13
179 2 -3.05839 -8.89934 -16.2854 9
180 2 -9.78242 1.34669 -14.2653 15
181 2 -8.87305 -2.03696 -14.3406 13
182 2 -2.21555 -0.693323 -15.5779 16
183 2 -7.61915 -6.97388 -11.9579 17
184 2 -7.75033 -2.01464 -11.9665 22
185 2 -11.4349 -0.92995 -9.70701 20
186 2 -6.68043 -4.48977 -10.6796 19
187 2 -9.58066 -3.32124 -8.91733 20
188 2 -7.49231 -0.74799 -8.30838 20
189 2 -10.444 -0.71606 -7.1879 19
190 2 -6.45216 -3.48929 -7.59083 21
191 2 -10.2408 -4.20474 -5.11491 17
192 2 -7.81819 -1.66958 -5.27992 19
193 2 -10.4536 -1.7606 -3.53403 24
194 2 -6.30173 -3.97163 -3.85194 21
195 2 -9.38969 -4.22077 -1.90564 22
196 2 -7.65922 -1.2259 -1.91428 20
197 2 -0.669874 -10.8209 -12.2585 15
198 2 -4.38701 -14.2478 -9.32711 10
199 2 -7.98605 -9.75037 -9.78657 16
200 2 -2.52322 -12.3021 -9.827 16
201 2 -5.69499 -12.5519 -6.27463 19
202 2 2.80407 -14.2068 -8.16447 15
203 2 -3.27296 -15.4952 -3.32642 13
204 2 -2.32238 -12.8139 -5.41576 18
205 2 -5.1292 -11.6461 -3.18698 23
206 2 -0.712043 -14.1944 -3.60153 17
207 2 -4.63302 -17.4072 -1.40871 6
208 2 -2.05897 -12.2851 -1.75057 20
209 2 -9.5386 -4.46844 -12.0639 15
210 2 -0.564004 -8.64388 -14.7323 17
211 2 -1.73589 -3.42658 -17.6482 14
212 2 -10.5453 -9.91857 -8.39837 15
213 2 -5.01564 -6.88048 -13.9205 17
214 2 -5.71232 -9.74668 -12.8438 14
215 2 -2.45372 -7.40289 -12.485 17
216 2 -4.86463 -7.24631 -10.3171 21
217 2 -1.15247 -9.16513 -10.39 20
218 2 -4.29645 -9.89988 -8.40331 18
219 2 -1.63243 -6.59878 -8.93735 20
220 2 -4.8144 -7.11524 -7.25991 23
221 2 -1.37906 -9.20687 -6.99337 20
222 2 -4.12184 -9.83936 -5.27574 20
223 2 -2.03407 -6.46234 -5.43481 22
224 2 -4.60266 -6.87874 -3.82919 22
225 2 -1.33102 -10.156 -3.59403 19
226 2 -4.06345 -9.43547 -1.86041 21
227 2 -1.95848 -7.58594 -1.94665 22
228 2 1.98242 0.256061 -17.715 15
229 2 1.34535 -4.70032 -18.1895 12
230 2 -6.60749 -1.33567 -15.8776 11
231 2 -0.625472 0.248756 -18.2887 13
232 2 -4.33582 -3.92154 -15.5583 16
233 2 -1.15179 -3.43622 -14.3008 17
234 2 -3.92654 -4.04291 -12.1105 20
235 2 -2.01254 -1.12658 -12.1163 19
236 2 -4.84747 -1.71678 -10.1513 23
237 2 -0.96818 -3.83293 -10.696 21
238 2 -3.66318 -4.06986 -8.65541 20
239 2 -1.78014 -1.57806 -8.65144 21
240 2 -4.67839 -1.38893 -6.63561 20
241 2 -0.572189 -3.47426 -6.79208 22
242 2 -3.8958 -4.50736 -5.55846 20
243 2 -1.91407 -1.30072 -5.27008 22
244 2 -4.67473 -1.51356 -3.59856 22
245 2 -1.38613 -3.93091 -3.63401 19
246 2 -4.00728 -4.16131 -1.90225 23
247 2 -2.14068 -1.15064 -1.77385 25
248 1 -12.7218 -12.2344 8.18046 11
249 1 -9.61523 -11.3351 3.56615 21
250 1 -12.6347 -6.07782 -0.351849 18
251 1 -19.552 -6.88994 2.71197 6
252 1 -13.5763 -4.18628 7.85798 15
253 1 -12.8407 -5.99241 2.8821 22
254 1 -13.1484 -6.658 6.20143 14
255 1 -14.7542 -9.84324 6.72539 10
256 1 -15.5642 -1.27018 7.87381 15
257 1 -11.0647 -8.80637 2.7324 21
258 1 -13.0442 -7.0551 11.8755 11
259 1 -16.3824 -4.10199 -0.438068 17
260 1 -12.4522 -1.26838 -0.285244 20
261 1 -16.0018 -1.27198 1.26154 15
262 1 -14.0475 -4.24825 1.73834 20
263 1 -16.8738 -4.88803 3.27747 12
264 1 -12.6079 -1.74823 2.67778 22
265 1 -15.8922 -1.56791 4.83229 16
266 1 -13.7497 -3.59338 4.76988 20
267 1 -16.8492 -4.40669 9.31812 7
268 1 -12.9658 -0.792165 6.02337 21
269 1 -14.0183 -4.34362 11.2511 15
270 1 -16.2033 -2.01296 11.4165 11
271 1 -12.8636 -2.07004 9.65183 20
272 1 -11.3747 -4.66109 12.8427 18
273 1 -13.2853 -1.203 12.8113 15
274 1 -6.80463 -11.6509 -0.154892 18
275 1 -10.6033 -14.554 3.27952 12
276 1 -6.96084 -14.2598 7.84164 11
277 1 -6.76847 -12.7749 3.90918 18
278 1 -10.0739 -13.6161 6.02771 13
279 1 -4.96526 -14.2138 6.22238 17
280 1 -7.3758 -11.4444 6.35276 20
281 1 -5.6824 -9.00975 9.84802 20
282 1 -9.94667 -11.6739 8.6793 14
283 1 -15.4948 -6.98066 0.932166 19
284 1 -6.4516 -5.70837 -0.730698 22
285 1 -9.50381 -6.70193 1.07264 21
286 1 -8.00212 -9.79374 1.17251 23
287 1 -11.1354 -9.33618 6.05457 19
288 1 -6.79017 -6.65182 2.96826 21
289 1 -9.72781 -6.31415 4.50093 24
290 1 -8.18738 -8.47692 4.46348 21
291 1 -12.0775 -9.62335 9.20929 16
292 1 -6.94669 -5.77542 6.67972 22
293 1 -10.1581 -6.27957 7.51052 20
294 1 -8.54808 -8.99311 8.34627 23
295 1 -10.4745 -11.9092 11.1623 10
296 1 -7.42322 -6.5218 9.88256 21
297 1 -10.4036 -8.19947 10.7834 16
298 1 -7.26601 -12.201 9.85336 17
299 1 -7.51485 -7.17963 13.3637 14
300 1 -10.8461 -3.48346 -0.320582 21
301 1 -6.68587 -1.08258 -0.267496 20
302 1 -9.58135 -1.48156 1.76137 20
303 1 -7.95951 -4.23379 1.6728 23
304 1 -10.8436 -4.23117 2.84663 21
305 1 -6.95068 -1.35045 2.94889 21
306 1 -9.90119 -0.878005 4.6402 21
307 1 -7.92607 -3.59544 4.87178 22
308 1 -11.0091 -3.7548 6.02846 22
309 1 -6.74285 -0.851454 6.48839 22
310 1 -10.1264 -1.26347 7.91654 21
311 1 -8.45798 -3.61524 8.2695 23
312 1 -10.8418 -4.97714 9.86034 22
313 1 -7.17744 -1.62496 9.56328 21
314 1 -10.6183 -2.1295 11.2019 18
315 1 -10.3874 -7.44641 13.8729 11
316 1 -8.31257 -4.2122 14.6241 16
317 1 -7.773 -1.63263 12.7558 23
318 1 -10.9151 -1.36453 14.5825 11
319 1 -8.22001 -4.07649 11.544 19
320 1 -7.90396 -15.5726 4.82985 13
321 1 -0.821033 -11.984 -0.426725 22
322 1 -4.16683 -12.0247 1.56818 18
323 1 -5.12386 -16.1421 -0.056724 12
324 1 -4.70159 -14.7969 2.98025 16
325 1 -1.22234 -12.2405 2.87204 19
326 1 -4.30254 -11.4518 5.24779 21
327 1 -2.16161 -14.3423 4.34261 18
328 1 -4.42706 -13.9122 10.4351 10
329 1 -1.14155 -11.6296 6.04305 21
330 1 -4.3474 -10.8367 11.4373 15
331 1 -1.74001 -14.3615 7.95929 15
332 1 -1.54819 -12.2202 9.6146 15
333 1 2.24809 -12.1061 12.6125 11
334 1 0.506748 -10.2885 15.6503 10
335 1 -5.14852 -9.15968 -0.390948 22
336 1 -0.887616 -7.03531 -0.0504698 19
337 1 -3.76945 -6.77355 1.29376 21
338 1 -2.32807 -9.45511 1.34099 21
339 1 -4.91342 -9.04643 2.91953 20
340 1 -0.893661 -6.93313 3.12161 21
341 1 -4.05293 -6.57128 4.89569 21
342 1 -2.19548 -9.05716 4.42819 22
343 1 -5.27904 -8.82205 6.15241 24
344 1 -1.30481 -6.66172 6.55837 21
345 1 -4.16583 -6.40819 8.14812 23
346 1 -2.55111 -8.89812 7.72135 23
347 1 -3.66976 -11.3892 8.54509 22
348 1 -0.761185 -6.74417 9.81853 23
349 1 -4.58534 -7.04234 11.2264 20
350 1 -1.99642 -9.45352 10.9206 17
351 1 -4.78018 -6.90815 14.9149 10
352 1 -1.21488 -7.24857 13.0348 17
353 1 -5.52528 -3.97118 16.7132 11
354 1 -8.03367 -10.2487 12.1013 12
355 1 -4.8973 -3.21621 -0.211007 21
356 1 -0.708332 -1.62921 -0.512973 23
357 1 -3.36985 -0.934178 1.42437 22
358 1 -2.22274 -3.80691 1.46993 22
359 1 -4.79968 -3.70088 2.95902 21
360 1 -0.87368 -0.932672 3.18522 21
361 1 -3.74277 -1.08664 4.84349 20
362 1 -2.03883 -4.05223 4.75826 20
363 1 -4.92102 -3.97649 6.33225 21
364 1 -1.44915 -1.35649 6.39267 20
365 1 -3.80647 -1.30982 8.56811 21
366 1 -2.16679 -4.17729 8.77046 20
367 1 -5.05677 -4.13977 9.63843 22
368 1 -1.17355 -1.57315 9.94428 20
369 1 -4.34268 -1.41899 11.7064 20
370 1 -2.41541 -4.24687 12.0411 19
371 1 -5.46522 -4.59479 12.5567 21
372 1 -1.56322 -1.90762 13.3319 18
373 1 -5.49164 -2.1018 14.4874 18
374 1 -2.59649 -4.11578 14.8427 17
375 2 -16.3432 -7.37603 -0.81343 14
376 2 -12.7407 -9.78302 2.13054 15
377 2 -19.1669 -6.82773 0.777296 8
378 2 -12.7569 -3.89573 3.30596 18
379 2 -15.7902 -8.50685 2.25962 14
380 2 -13.6968 -6.35454 1.25727 20
381 2 -16.0397 -3.16362 8.01142 14
382 2 -15.3743 -8.75963 5.18322 9
383 2 -7.0437 -15.2515 6.36528 13
384 2 -11.2301 -7.16467 12.4568 13
385 2 -15.926 -0.372084 -0.42518 16
386 2 -12.692 -4.01966 -0.141748 21
387 2 -16.0845 -5.40531 1.7687 17
388 2 -14.4869 -2.23805 1.44483 18
389 2 -15.6098 2.82279 7.75861 13
390 2 -13.6454 -1.58571 4.43805 20
391 2 -16.1627 -0.709587 3.14414 13
392 2 -15.6871 2.31277 4.49566 17
393 2 -15.8355 -3.68264 4.44301 14
394 2 -12.871 -4.65604 6.00442 19
395 2 -16.1647 -3.7879 10.8277 11
396 2 -13.3162 -2.0644 7.68158 19
397 2 -10.2516 -6.51977 9.82335 21
398 2 -13.0057 -4.47628 9.65455 20
399 2 -18.0789 -6.77143 3.51518 9
400 2 -11.2537 -12.6538 3.10334 13
401 2 -12.5322 -8.30086 10.6459 11
402 2 -3.87071 -14.9424 4.88488 14
403 2 -13.9257 -11.248 7.47424 8
404 2 -9.46147 -14.5291 1.85273 14
405 2 -7.80078 -11.8671 8.17261 17
406 2 0.809149 -11.8334 14.177 8
407 2 -8.5984 -12.1616 11.3255 10
408 2 -8.51947 -12.3568 4.88845 20
409 2 -10.7326 -6.29181 -0.445695 22
410 2 -7.09219 -9.64133 -0.487525 23
411 2 -10.1892 -9.68627 7.93793 20
412 2 -7.64337 -6.15525 1.17968 21
413 2 -10.8165 -6.11578 2.85033 21
414 2 -7.18922 -8.77741 2.86838 21
415 2 -9.73331 -15.0616 4.68761 12
416 2 -7.50285 -6.42347 4.70785 21
417 2 -10.6405 -7.43673 5.86454 19
418 2 -6.9634 -9.61393 5.51757 19
419 2 -11.6903 -12.1805 9.72596 9
420 2 -8.40147 -6.2037 7.84037 18
421 2 -10.4376 -10.0137 10.7937 15
422 2 -7.80207 -8.50197 10.0381 19
423 2 -11.0661 -12.6229 7.1383 12
424 2 -7.08792 -3.72673 13.2455 19
425 2 -15.2031 -0.801236 9.98043 13
426 2 -5.90356 -6.80584 12.8337 18
427 2 -8.73537 -8.47713 12.9051 12
428 2 -10.454 -1.31368 -0.543382 21
429 2 -6.73416 -3.59159 -0.0353863 19
430 2 -9.7582 -3.45204 1.45918 22
431 2 -7.99334 -0.585373 1.55166 20
432 2 -10.8736 -0.985937 2.96167 19
433 2 -6.84037 -3.36622 3.00361 20
434 2 -9.84935 -3.90933 4.51734 23
435 2 -8.09551 -1.48519 5.01951 21
436 2 -10.9043 -1.66095 6.11363 20
437 2 -6.90761 -3.89386 6.44419 19
438 2 -10.2388 -4.3411 7.78603 23
439 2 -11.0803 -1.0869 9.89778 22
440 2 -10.3705 1.81319 8.24688 17
441 2 -7.01285 -4.29097 9.78635 22
442 2 -10.0577 -4.16055 11.6698 22
443 2 -8.35637 -2.20389 11.0605 19
444 2 -11.4112 -1.64153 12.8412 15
445 2 -8.89076 -5.96647 14.2072 12
446 2 -7.33793 0.0895818 15.9948 17
447 2 -13.7286 0.637203 12.5189 13
448 2 -5.25924 -12.2 -0.0604832 19
449 2 -1.00815 -14.3772 -0.652719 16
450 2 -6.81203 -15.2285 -0.0420802 13
451 2 -2.26795 -12.2886 1.09028 21
452 2 -4.91006 -11.7883 3.54602 22
453 2 -6.66198 -14.7251 3.35913 15
454 2 -3.86133 -15.131 1.15035 15
455 2 -2.20217 -12.2492 4.66128 22
456 2 -5.80454 -12.4207 6.06924 19
457 2 -0.879849 -14.6718 6.07509 14
458 2 -2.09717 -12.3312 7.65621 19
459 2 -0.213605 -13.6627 9.40851 9
460 2 -5.9361 -13.9542 9.60266 12
461 2 -3.95312 -8.82211 10.9594 19
462 2 -5.03563 -7.26902 -0.547984 22
463 2 -0.915457 -9.42909 -0.173094 19
464 2 -4.14366 -9.74982 1.31119 22
465 2 -1.76867 -7.6711 1.66992 18
466 2 -4.87978 -7.03127 2.80563 22
467 2 -0.895265 -9.85721 2.90734 22
468 2 -4.02421 -9.41553 4.82194 20
469 2 -2.12426 -7.13572 4.85711 23
470 2 -5.14208 -6.82761 6.44552 21
471 2 -1.36678 -9.34263 6.3028 21
472 2 -4.43083 -9.72062 7.67091 21
473 2 -2.14745 -7.01853 8.42104 21
474 2 -5.54342 -7.10536 9.42267 20
475 2 -2.0851 -10.2245 9.20135 18
476 2 -3.80555 -12.1179 10.2994 15
477 2 -1.39104 -7.59731 11.3236 20
478 2 -6.13619 -10.5009 11.1323 17
479 2 -0.615755 -9.15526 16.8332 8
480 2 -7.28149 -3.24532 16.2556 12
481 2 -4.321 -5.58114 16.2009 11
482 2 -4.60606 -1.29202 -0.106595 23
483 2 -1.0492 -3.48815 -0.231503 20
484 2 -3.88702 -4.2433 0.999519 19
485 2 -1.3916 -1.3471 1.28545 22
486 2 -4.75524 -1.62266 3.2377 23
487 2 -0.995174 -4.65423 3.13318 22
488 2 -3.78766 -4.62623 4.61687 24
489 2 -1.93793 -2.14939 4.60723 23
490 2 -4.78921 -1.73992 6.53633 20
491 2 -1.08215 -4.6842 6.58579 23
492 2 -3.93096 -4.53517 7.99024 21
493 2 -1.91557 -1.91894 8.30728 20
494 2 -5.3319 -1.90954 10.1032 20
495 2 -1.14992 -4.53215 10.2924 20
496 2 -4.0974 -4.75555 11.3736 19
497 2 -2.44363 -2.25115 11.6379 23
498 2 -5.83485 -0.93784 12.9146 20
499 2 -1.35508 -5.11131 13.6015 18
500 2 2.21134 -9.58982 15.2711 13
501 2 -5.11362 -2.08834 16.5042 14
502 1 -4.69718 2.52778 -16.6248 14
503 1 -10.8805 7.26548 -11.8693 14
504 1 -15.194 3.55014 -9.95059 13
505 1 -13.2001 1.55514 -8.63494 24
506 1 -14.6081 -0.0275585 -5.8354 16
507 1 -12.2429 4.47446 -7.28768 21
508 1 -15.901 3.51871 -6.31325 13
509 1 -13.2442 2.53819 -5.03609 21
510 1 -16.5094 1.39438 -3.78133 14
511 1 -13.41 5.16952 -4.10885 20
512 1 -16.0192 4.33952 -2.19691 13
513 1 -13.437 2.07825 -2.15049 21
514 1 -10.7119 6.99848 -6.70005 17
515 1 -16.4435 6.53523 -4.25871 11
516 1 -14.7697 5.71191 -7.45644 14
517 1 -13.4439 8.26006 -5.7587 15
518 1 -15.6542 14.4804 -0.640177 6
519 1 -12.4623 13.6306 -2.68123 12
520 1 -6.58829 16.5141 -2.14451 10
521 1 -13.6605 7.87839 -2.66087 17
522 1 -1.92166 -0.678803 -17.4494 14
523 1 -9.67944 3.33389 -15.0457 13
524 1 -10.299 -0.637804 -14.4947 11
525 1 -10.9952 1.03674 -12.7193 19
526 1 -7.79001 1.66487 -14.9319 17
527 1 -9.64341 4.26012 -11.9392 23
528 1 -7.71529 1.35831 -11.6705 20
529 1 -10.6048 1.67883 -9.93294 20
530 1 -6.62675 4.30226 -10.4077 24
531 1 -9.02017 3.77074 -8.58634 20
532 1 -7.53558 1.10427 -8.37968 20
533 1 -10.5997 1.24814 -6.83105 22
534 1 -6.65403 3.66336 -6.74212 21
535 1 -9.95932 4.2043 -5.52369 21
536 1 -7.69405 1.50443 -5.00771 19
537 1 -10.4807 1.80085 -3.78174 20
538 1 -6.01136 4.47955 -3.24497 20
539 1 -9.49633 4.8465 -1.95168 20
540 1 -7.58611 1.99741 -1.80976 22
541 1 -5.23228 6.29957 -16.5553 11
542 1 -10.5294 8.97165 -9.77431 14
543 1 -5.23886 6.60027 -13.4189 19
544 1 -1.80584 6.91498 -14.732 19
545 1 -7.5265 7.0354 -11.1491 20
546 1 -11.9104 5.83361 -14.2043 9
547 1 -4.73532 12.1143 -9.77423 12
548 1 -11.8542 10.3576 -7.62601 13
549 1 -7.91442 6.87594 -8.14125 21
550 1 -12.3999 4.68435 -10.2385 21
551 1 -6.29892 9.56641 -6.7429 17
552 1 -8.89132 9.24135 -4.44165 18
553 1 -7.45197 6.33094 -4.79155 21
554 1 -10.3589 6.65499 -3.51907 18
555 1 -6.03354 10.0293 -2.91822 17
556 1 -9.2135 10.1028 -1.51092 20
557 1 -7.43013 7.68032 -1.80731 22
558 1 -7.6943 13.5252 -6.72409 11
559 1 -7.42727 9.73846 -9.96679 18
560 1 -10.8956 13.2638 -5.72448 10
561 1 -7.86375 12.5098 -10.0979 8
562 1 -15.9255 13.8622 -4.11385 5
563 1 -14.53 10.5558 -3.60427 11
564 1 -11.5452 10.6678 -4.64733 18
565 1 -7.2338 13.2521 -0.799171 17
566 1 -1.38779 4.67629 -17.2474 12
567 1 0.497326 1.7354 -17.5637 12
568 1 -3.71287 4.46761 -15.0899 18
569 1 -1.80932 1.45032 -15.3633 20
570 1 -4.62933 2.11358 -13.0557 23
571 1 -0.815806 4.32185 -13.6578 19
572 1 -8.32593 6.72058 -14.5428 13
573 1 -1.82129 2.022 -11.5459 22
574 1 -4.90409 1.596 -10.1193 22
575 1 -0.898268 4.48524 -10.3799 23
576 1 -3.8911 4.33825 -8.65684 21
577 1 -1.59321 1.32435 -8.77082 20
578 1 -4.49665 1.59992 -7.01637 21
579 1 -0.964546 3.82431 -6.87467 22
580 1 -3.65541 4.37814 -5.37328 18
581 1 -1.54798 0.828368 -4.97226 21
582 1 -4.53078 1.99056 -3.85824 22
583 1 -0.94631 3.48338 -3.51209 24
584 1 -3.83559 4.23211 -1.7152 21
585 1 -1.99847 0.974008 -1.42256 22
586 1 -2.05251 6.91149 -11.58 21
587 1 -6.85936 4.55658 -13.2886 20
588 1 0.619069 8.90225 -15.0012 10
589 1 -3.75332 9.00589 -15.3609 8
590 1 -1.51435 9.78775 -13.3134 14
591 1 -4.51771 9.53264 -11.877 18
592 1 -3.79494 4.50933 -11.7614 21
593 1 -4.51265 7.26954 -9.80405 22
594 1 -1.32921 9.68781 -10.026 20
595 1 -3.60714 9.80083 -8.14588 21
596 1 -1.66336 6.85529 -8.18157 22
597 1 -4.58885 7.20034 -6.40575 21
598 1 -0.927433 9.10677 -6.81538 18
599 1 -3.18007 9.89964 -4.58864 20
600 1 -1.45706 6.5278 -4.87733 23
601 1 -4.19197 6.83428 -3.0357 21
602 1 -0.76952 9.10691 -3.08872 21
603 1 -3.52702 9.52102 -1.27431 20
604 1 -1.61061 6.42154 -1.60281 24
605 1 -0.446826 13.2046 -10.5322 10
606 1 -1.8871 12.7498 -8.17225 15
607 1 -9.13871 11.2318 -7.72005 16
608 1 -0.685434 15.006 -5.5548 15
609 1 -4.26157 12.9103 -6.18459 15
610 1 1.88772 16.0148 -4.66183 9
611 1 -3.94716 16.1304 -3.68768 11
612 1 -1.33427 12.0621 -4.9297 19
613 1 -4.67623 12.8127 -2.97706 20
614 1 -13.1043 7.59048 -8.99647 14
615 1 -3.31275 16.4154 -0.495024 10
616 1 -1.77869 11.9356 -1.37342 20
617 2 -6.62552 1.68018 -16.58 12
618 2 -12.2116 5.65159 -12.2529 12
619 2 -13.7489 3.28666 -11.2005 16
620 2 -12.7124 -3.34865 -7.21004 13
621 2 -8.48196 4.52642 -14.2347 16
622 2 -14.8355 1.58854 -9.65287 15
623 2 -11.57 2.60628 -5.91471 19
624 2 -15.2713 1.72752 -5.30085 18
625 2 -13.7332 4.29908 -5.97664 19
626 2 -16.2825 4.5939 -4.11473 14
627 2 -12.2133 1.07664 -3.69577 20
628 2 -15.4443 2.02832 -2.31472 16
629 2 -13.4336 3.88029 -2.66976 19
630 2 -11.6535 3.89273 -14.3337 12
631 2 -15.5344 4.08112 -8.07567 14
632 2 -15.2009 6.88956 -5.91508 15
633 2 -13.1066 9.74682 -4.47315 14
634 2 -12.0568 8.11872 -10.401 12
635 2 -12.4431 6.89318 -4.11986 19
636 2 -16.3175 14.7253 -2.40096 4
637 2 -10.9692 13.11 -3.88657 10
638 2 -12.02 2.86411 -8.68746 23
639 2 -3.74995 0.790838 -17.1522 12
640 2 -3.73379 1.82935 -14.938 19
641 2 -0.757122 3.00364 -17.2304 17
642 2 -12.0625 1.62748 -11.1825 20
643 2 -7.35301 0.40763 -13.5661 19
644 2 -9.39742 2.33403 -11.6494 22
645 2 -10.2727 6.60943 -13.9878 11
646 2 -10.4168 4.56803 -10.2914 21
647 2 -6.46882 0.723456 -10.3636 20
648 2 -9.23056 1.95819 -8.4743 23
649 2 -7.25628 4.87251 -8.47748 20
650 2 -12.3547 8.26817 -7.30349 18
651 2 -6.41482 1.49956 -6.45452 20
652 2 -9.45322 1.03416 -5.0295 20
653 2 -7.69198 4.485 -5.2811 20
654 2 -10.387 4.79609 -3.83231 19
655 2 -6.63518 1.99255 -3.3869 19
656 2 -9.64511 1.29061 -1.95712 21
657 2 -7.20141 3.85758 -1.6869 22
658 2 -4.23521 6.42695 -11.5972 23
659 2 -7.00552 7.28709 -12.9564 17
660 2 -8.79529 8.58594 -10.8029 13
661 2 -4.20172 9.85056 -9.96821 19
662 2 -9.87141 7.52462 -8.43178 21
663 2 -10.4062 4.83691 -7.36823 20
664 2 -3.97993 12.3165 -8.07934 13
665 2 -8.84927 12.4804 -1.36666 18
666 2 -6.70585 7.40568 -6.37676 17
667 2 -9.68285 7.41629 -5.0144 20
668 2 -7.23535 9.99452 -4.40043 16
669 2 -15.0565 12.3995 -3.5157 8
670 2 -6.36607 6.58031 -3.15945 21
671 2 -9.20365 6.72113 -1.27026 20
672 2 -7.34729 9.60114 -1.57621 20
673 2 -6.96065 6.79546 -16.3688 8
674 2 -6.34018 11.5324 -10.2346 11
675 2 -10.403 10.7477 -9.10633 12
676 2 -7.33119 15.1601 -0.766052 11
677 2 -14.2279 14.7665 0.413316 7
678 2 -6.59441 13.0142 -2.72387 17
679 2 -6.25349 12.9076 0.716068 17
680 2 -13.3803 5.65552 -8.88233 16
681 2 -4.00578 9.40325 -13.4897 12
682 2 3.58789 -3.13834 -17.6711 15
683 2 -4.50169 -1.32707 -13.6599 18
684 2 -4.84033 4.4221 -13.5315 20
685 2 -6.34169 2.90395 -12.0991 16
686 2 -1.05862 1.72716 -13.5356 20
687 2 -3.68776 1.23822 -11.778 21
688 2 -1.80769 3.85464 -12.0333 20
689 2 -4.66499 3.93576 -10.1558 23
690 2 -0.378781 0.787474 -10.3198 21
691 2 -3.54485 0.885795 -8.71944 20
692 2 -1.92196 3.70294 -8.68657 22
693 2 -4.65883 3.64914 -6.91073 20
694 2 -0.900342 1.59595 -6.90708 20
695 2 -3.49908 1.16418 -5.32291 22
696 2 -1.75238 4.63286 -5.22301 21
697 2 -3.98877 3.85978 -3.54127 20
698 2 -0.834399 1.30237 -3.12367 21
699 2 -3.84524 1.24524 -2.20448 21
700 2 -1.62446 4.41956 -1.77779 22
701 2 -1.83018 4.57768 -15.3576 17
702 2 -4.79256 4.43889 -16.7631 11
703 2 -4.17143 7.12728 -15.3503 14
704 2 -10.6139 11.4065 -6.38183 15
705 2 -0.928277 6.38902 -13.2065 21
706 2 -7.96882 5.17243 -11.336 22
707 2 -1.48487 8.83773 -15.2312 10
708 2 -1.87367 13.5283 -6.45548 13
709 2 -0.910455 6.36563 -9.89998 25
710 2 -3.75606 6.69629 -8.17397 21
711 2 -1.9057 9.10659 -8.36255 19
712 2 -4.14266 9.23788 -6.46646 19
713 2 -0.612577 7.13099 -6.56078 20
714 2 -3.4568 6.82234 -4.9448 21
715 2 -1.37043 10.2529 -5.04614 20
716 2 -3.70077 8.93986 -3.11921 21
717 2 -0.795038 7.16098 -3.18701 21
718 2 -3.59078 6.56686 -1.41314 21
719 2 -1.53748 9.75167 -1.24856 21
720 2 -1.7932 8.93335 -11.7121 18
721 2 -1.52422 11.5638 -10.2242 15
722 2 0.983766 12.1624 -11.4887 13
723 2 -10.2052 9.8664 -3.36657 19
724 2 2.53026 15.043 -10.3006 10
725 2 -8.10844 13.006 -8.38593 12
726 2 2.2595 13.1024 -7.66145 14
727 2 -7.5195 9.97094 -7.91087 21
728 2 -2.18268 15.3218 -4.32833 13
729 2 -3.71681 12.0422 -4.5483 16
730 2 -0.949534 12.7158 -2.94987 22
731 2 -3.61087 12.4436 -1.26066 19
732 2 -1.27887 14.7043 2.078 16
733 1 -15.8378 1.42008 -0.218437 14
734 1 -12.483 5.04885 -1.22534 21
735 1 -15.8808 4.28396 1.13583 14
736 1 -13.6296 2.67266 1.15137 19
737 1 -16.1058 1.28387 2.99012 15
738 1 -12.7694 5.32962 2.44189 19
739 1 -15.7463 4.31876 4.56165 14
740 1 -13.4555 2.17769 4.39554 21
741 1 -16.0152 1.56735 6.29474 14
742 1 -12.4149 4.80463 5.97166 21
743 1 -13.7368 6.55748 7.63469 16
744 1 -13.6827 2.2279 7.77153 20
745 1 -13.2 3.85304 9.85983 16
746 1 -14.6639 0.665462 10.9728 15
747 1 -16.6579 6.87642 -0.357716 12
748 1 -12.628 11.0309 2.35055 20
749 1 -12.1502 10.2556 -0.784841 19
750 1 -13.6919 7.78882 0.928171 21
751 1 -15.0535 9.9137 -0.334273 12
752 1 -10.3264 12.4144 -0.0169248 19
753 1 -14.0165 2.05751 14.0322 6
754 1 -12.9736 7.99643 4.38952 21
755 1 -14.8948 9.34761 5.84454 9
756 1 -16.0982 4.27446 12.0938 5
757 1 -10.856 1.98248 -0.494069 20
758 1 -6.35311 4.25398 0.168919 19
759 1 -9.83809 4.19273 1.45147 20
760 1 -7.76377 1.31947 1.24976 20
761 1 -10.8267 1.08069 2.99445 17
762 1 -6.80293 3.86002 3.3003 20
763 1 -9.52266 4.56171 4.77444 19
764 1 -7.9841 1.62751 4.5881 21
765 1 -10.8404 1.92309 6.38512 20
766 1 -6.72287 4.30271 6.60636 23
767 1 -9.6408 4.1145 7.96547 20
768 1 -8.14291 1.64607 7.80496 21
769 1 -11.1992 1.35085 9.97262 20
770 1 -6.85443 4.04275 9.94769 22
771 1 -11.3153 6.11772 9.26376 18
772 1 -8.24967 1.22074 11.3264 20
773 1 -10.5637 0.329803 12.7332 16
774 1 -7.42618 3.54678 13.1822 21
775 1 -10.0388 4.60836 15.2965 10
776 1 -8.59701 1.24553 14.6603 17
777 1 -10.4124 7.68034 -0.0563981 20
778 1 -6.41044 10.1645 0.107976 21
779 1 -9.45227 9.724 1.73776 20
780 1 -7.66273 6.5062 1.60268 19
781 1 -10.3878 7.04689 2.92458 19
782 1 -6.51318 9.16853 3.40499 20
783 1 -9.89279 9.63007 4.59329 23
784 1 -7.5263 7.37597 4.80161 21
785 1 -10.5487 7.32726 6.56567 20
786 1 -6.83029 9.97321 6.6714 20
787 1 -10.4819 13.4281 3.19438 14
788 1 -7.88053 6.64717 7.96268 18
789 1 -11.3843 6.16834 11.9133 10
790 1 -9.57276 9.05833 11.0426 14
791 1 -8.09588 6.66964 11.4846 19
792 1 -6.75197 9.89884 10.3087 17
793 1 -10.1777 3.745 11.8622 19
794 1 -6.87771 9.59973 13.0192 12
795 1 -7.23151 6.67512 14.7874 14
796 1 -10.4563 13.449 6.36168 11
797 1 -12.8589 14.2181 1.54416 9
798 1 -9.20979 9.98025 7.68998 19
799 1 -7.41468 12.3155 2.22821 19
800 1 -13.0739 12.4019 4.63615 11
801 1 -9.03747 12.6885 -3.31424 19
802 1 -7.67885 12.6478 5.46982 15
803 1 -12.3028 10.88 7.29144 14
804 1 -4.40846 12.0166 7.00843 19
805 1 -7.25575 12.1444 8.93689 15
806 1 -4.54651 1.47486 -0.454988 22
807 1 -0.386528 3.86292 -0.390695 21
808 1 -3.6283 4.22917 1.71431 21
809 1 -1.49914 1.8525 1.56081 22
810 1 -4.72835 1.23879 3.188 22
811 1 -0.80883 3.91088 3.37542 20
812 1 -4.01851 4.01898 4.9272 22
813 1 -1.9598 1.62644 4.91393 23
814 1 -5.02977 1.63916 6.40786 24
815 1 -1.37512 3.97754 6.49068 21
816 1 -3.84081 4.37192 8.61016 21
817 1 -2.03747 1.3308 8.03716 22
818 1 -5.30568 1.46154 9.7777 24
819 1 -1.35096 3.64981 10.1224 20
820 1 -3.73653 3.09252 11.5466 22
821 1 -2.20476 1.09395 11.5498 22
822 1 -5.63028 0.843936 13.3206 18
823 1 -1.38391 4.16609 13.5308 18
824 1 -6.45097 4.47367 16.5078 15
825 1 -2.52199 0.963299 14.9451 18
826 1 -4.3649 7.12437 0.404242 21
827 1 -0.397998 9.32643 0.525099 19
828 1 -3.78502 9.94004 1.94277 23
829 1 -1.51425 6.92874 1.70144 19
830 1 -4.5628 6.75138 3.46774 21
831 1 -0.839147 9.20016 3.44285 19
832 1 -3.91567 9.69981 5.19161 21
833 1 -1.62597 6.86714 4.92322 22
834 1 -4.9634 7.16006 6.77475 26
835 1 -1.18458 9.62736 6.80693 20
836 1 -3.93822 9.44061 8.41874 20
837 1 -1.8901 6.60134 8.33728 20
838 1 -5.00553 6.2809 9.96729 21
839 1 -0.83655 9.0472 10.1993 17
840 1 -3.96098 8.64394 11.5125 17
841 1 -2.08246 6.41359 11.8185 19
842 1 -3.98126 3.42774 15.2206 19
843 1 -1.00444 7.40473 14.9851 13
844 1 -5.08037 5.64438 13.0439 20
845 1 -2.56274 5.68623 17.5061 12
846 1 -4.44 12.4844 0.403837 20
847 1 -0.168039 14.9483 0.462085 17
848 1 -3.41674 15.3107 2.1529 15
849 1 -1.74417 12.8958 2.07184 20
850 1 -4.76341 12.8276 3.50994 18
851 1 -6.48671 15.4479 0.880454 12
852 1 -3.51516 14.4387 5.67937 14
853 1 -1.73696 11.6139 4.79672 20
854 1 -3.74657 14.2862 9.41729 9
855 1 4.24819 11.1142 9.01319 18
856 1 -1.02951 13.1336 7.47483 17