ITEM: TIMESTEP
138000
ITEM: NUMBER OF ATOMS
2000
ITEM: BOX BOUNDS pp pp pp
-30.0 30.0
-30.0 30.0
-30.0 30.0
ITEM: ATOMS id type x y z Coordination
1 1 -16.9159 6.66351 2.79441 13
2 1 -16.7346 1.10283 6.58007 15
3 1 -19.4976 -1.3231 6.99624 5
4 2 -16.467 4.81141 6.45492 14
5 2 -18.6519 0.332883 6.92983 9
6 2 -16.0897 -0.78626 3.09066 17
7 1 8.15882 -17.1777 -6.09993 6
8 1 -1.5434 -14.711 1.72697 16
9 1 5.26341 -15.6506 -7.29571 10
10 2 3.39504 -15.794 -6.98229 8
11 2 6.50914 -16.1996 -5.86554 10
12 2 -0.891446 -14.9857 3.54146 16
13 2 -2.47631 -2.85399 -18.3901 12
14 1 -1.02173 -3.82645 -18.2698 13
15 1 1.9266 -1.59244 -18.4164 8
16 2 2.93203 -0.869982 -17.0209 14
17 1 -12.7032 -9.77342 1.42095 16
18 1 -12.2133 -6.60014 -10.1622 16
19 1 -13.4613 -9.06758 -8.7882 8
20 1 -12.7566 -6.87631 -6.83676 19
21 1 -15.3113 -6.68351 -4.97004 13
22 1 -13.2105 -9.21964 -2.04746 12
23 1 -12.2504 -6.91328 -3.78893 21
24 1 -15.7401 -7.47764 -1.76178 12
25 1 -15.4693 -10.6064 3.59223 9
26 1 -12.8197 -1.25466 -13.9221 9
27 1 -12.6397 -4.29845 -12.0398 13
28 1 -12.3727 -1.2323 -10.6172 19
29 1 -15.6315 -1.60878 -8.45561 11
30 1 -13.3186 -4.06707 -8.39399 18
31 1 -16.2948 -4.55594 -6.93969 11
32 1 -12.4874 -1.15343 -7.14012 21
33 1 -15.5885 -1.9561 -5.16182 18
34 1 -13.337 -3.95569 -5.37519 21
35 1 -16.7771 -4.70166 -3.42067 13
36 1 -12.4412 -1.0067 -3.31684 23
37 1 -15.5753 -1.76963 -1.99098 17
38 1 -13.7976 -4.02591 -2.13963 21
39 1 -7.07285 -12.1781 -10.1452 10
40 1 -10.5376 -8.86703 -7.03961 19
41 1 -6.60046 -11.7993 -6.91969 17
42 1 -9.57623 -12.172 -5.07577 10
43 1 -7.56255 -15.5194 -1.95775 10
44 1 -6.70971 -12.3192 -3.50619 21
45 1 -9.53161 -12.5548 -1.35607 16
46 1 -8.15874 -15.0888 0.845732 13
47 1 -6.70862 -7.21731 -13.5731 15
48 1 -9.67297 -6.34345 -12.4045 17
49 1 -8.50567 -9.69552 -12.5241 12
50 1 -10.4295 -9.01877 -10.87 12
51 1 -6.98832 -6.3915 -10.2088 21
52 1 -9.82313 -6.6025 -8.68989 21
53 1 -7.59305 -9.80231 -8.86792 17
54 1 -13.33 -9.75012 -5.54738 11
55 1 -6.87089 -6.7928 -7.02555 20
56 1 -9.77081 -7.20201 -5.06862 23
57 1 -7.78246 -9.82705 -5.26563 22
58 1 -10.5394 -9.85355 -3.37841 20
59 1 -7.12723 -7.06757 -3.23888 22
60 1 -9.58773 -7.0254 -1.68647 23
61 1 -7.8223 -9.67042 -1.96796 22
62 1 -4.22797 -1.85541 -18.0843 10
63 1 -9.23945 -0.963318 -15.104 13
64 1 -7.09857 -2.76727 -16.1602 9
65 1 -10.2523 -3.56237 -14.0247 13
66 1 -6.28359 -1.22574 -13.6236 17
67 1 -9.1369 -1.64727 -11.8563 22
68 1 -7.44433 -4.23038 -12.3463 20
69 1 -10.3289 -4.00643 -10.1474 22
70 1 -6.45935 -1.04902 -10.1464 21
71 1 -9.53145 -1.4795 -8.28461 20
72 1 -7.59425 -3.69095 -8.57558 20
73 1 -10.081 -4.46594 -6.73438 23
74 1 -6.68832 -1.16109 -6.53515 21
75 1 -9.74473 -1.581 -4.89373 22
76 1 -7.7869 -4.36508 -5.18647 23
77 1 -10.6656 -4.39305 -3.40496 24
78 1 -6.85461 -1.89955 -3.32668 24
79 1 -9.65085 -1.64474 -1.65908 23
80 1 -7.74746 -4.21955 -1.76714 24
81 1 -1.32123 -12.2402 -12.7286 12
82 1 -4.16917 -13.9944 -10.6587 10
83 1 -1.41004 -11.8005 -10.0488 20
84 1 -3.81381 -11.6858 -8.55797 22
85 1 -1.76534 -14.3185 -8.31942 16
86 1 -4.3694 -14.5051 -7.14368 14
87 1 -0.673645 -12.3337 -6.5309 21
88 1 -3.75192 -12.047 -5.18711 21
89 1 -1.98406 -14.8312 -4.94042 16
90 1 -4.39373 -15.1242 -3.5594 15
91 1 -1.39384 -11.7525 -3.32945 19
92 1 -3.8788 -12.4628 -1.62798 21
93 1 -1.80689 -15.6017 -1.55108 14
94 1 -1.44414 -6.68657 -16.2845 14
95 1 -4.22456 -7.36642 -15.534 12
96 1 -2.09679 -9.57475 -14.6874 13
97 1 -5.29846 -9.95701 -13.7055 11
98 1 -0.67223 -6.55907 -13.2209 21
99 1 -3.80799 -6.60599 -12.0083 21
100 1 -2.34282 -9.11367 -11.7337 21
101 1 -5.16795 -9.3784 -10.3941 19
102 1 -1.1802 -6.76946 -9.94221 22
103 1 -3.92898 -6.59008 -8.62988 22
104 1 -2.27789 -9.16212 -8.13314 20
105 1 -4.85139 -9.16496 -6.89567 20
106 1 -1.21497 -6.32635 -6.51856 22
107 1 -4.27285 -6.3107 -5.27531 23
108 1 -2.17929 -8.98935 -4.93738 21
109 1 -5.06134 -9.73176 -3.39792 21
110 1 -1.12655 -6.12308 -3.0871 24
111 1 -4.02187 -7.07066 -1.62254 21
112 1 -1.97736 -8.88407 -1.55506 20
113 1 -4.01368 -4.27295 -16.6665 16
114 1 -1.02024 -0.992055 -16.7909 19
115 1 -3.11343 -1.54171 -14.7901 21
116 1 -1.04755 -3.43594 -14.9449 22
117 1 -4.4378 -4.19434 -13.3148 22
118 1 -0.783504 -1.13783 -13.0353 22
119 1 -3.91831 -1.00224 -11.4438 23
120 1 -1.47072 -3.77756 -11.6613 22
121 1 -4.53034 -3.96152 -10.0186 23
122 1 -0.80748 -1.07526 -9.88749 23
123 1 -3.90669 -1.31551 -8.26659 22
124 1 -1.82283 -4.04032 -8.36228 22
125 1 -4.73416 -3.82029 -6.88639 23
126 1 -1.22696 -1.15059 -6.50442 22
127 1 -4.08308 -1.03358 -4.91045 21
128 1 -2.2845 -3.73121 -4.99137 22
129 1 -4.98338 -4.68909 -3.12972 23
130 1 -0.728897 -0.98461 -3.62538 21
131 1 -3.67037 -1.86024 -1.83762 21
132 1 -2.02873 -4.39656 -1.47244 19
133 2 -13.5746 -7.33252 -4.95352 18
134 2 -12.5187 -9.37493 -7.13896 11
135 2 -13.6271 -6.81754 -8.71196 15
136 2 -14.9279 -5.04547 -5.95135 16
137 2 -16.2068 -6.44867 -3.34796 11
138 2 -12.6382 -9.6167 -3.72861 13
139 2 -15.7444 -9.01819 4.56739 10
140 2 -13.5333 -7.23141 -2.09755 18
141 2 -13.0432 -2.37744 -12.3052 13
142 2 -12.3488 -4.50976 -10.0751 17
143 2 -15.1921 -3.29824 -7.90583 14
144 2 -13.4898 -1.22978 -9.00504 17
145 2 -16.4284 -0.922573 -6.96397 13
146 2 -11.9936 -3.90951 -6.95721 21
147 2 -16.4507 -3.53914 -4.98533 14
148 2 -13.5119 -1.89941 -4.93742 20
149 2 -15.8874 -0.84681 -3.49244 18
150 2 -12.598 -4.64159 -3.70175 20
151 2 -16.1006 -3.79639 -1.89718 15
152 2 -13.3244 -2.34542 -1.87247 21
153 2 -7.54548 -11.7795 -8.52631 13
154 2 -9.77276 -9.25346 -5.07585 20
155 2 -6.07258 -14.5172 -2.96346 14
156 2 -10.1759 -11.886 -3.41119 14
157 2 -12.4044 -9.5647 -0.513519 14
158 2 -8.85475 -14.3589 -0.996178 13
159 2 -10.4137 -11.9668 0.225775 18
160 2 -7.81001 -11.8738 -1.96413 23
161 2 -10.2677 -6.06811 -10.3912 20
162 2 -11.0813 -5.27245 -13.1814 14
163 2 -7.05681 -9.07376 -13.4181 12
164 2 -9.93197 -8.19666 -12.4533 12
165 2 -4.72513 -6.29137 -13.8706 16
166 2 -12.1076 -8.90094 -10.0931 11
167 2 -7.13632 -10.002 -10.7008 16
168 2 -9.24665 -8.64312 -8.91046 18
169 2 -8.00295 -6.3912 -8.35923 21
170 2 -10.756 -6.65536 -6.77474 22
171 2 -7.02918 -9.32144 -6.93088 20
172 2 -7.68559 -11.9211 -5.15545 17
173 2 -7.77881 -6.50209 -4.99726 23
174 2 -10.2746 -6.34414 -3.45361 22
175 2 -6.89458 -9.14742 -3.62743 21
176 2 -10.0375 -9.01666 -1.75256 25
177 2 -7.82551 -6.14883 -1.6823 25
178 2 -5.55581 -3.10197 -17.0965 11
179 2 -8.97414 -2.78375 -15.2288 13
180 2 -7.24753 -0.740954 -15.2161 18
181 2 -10.697 -1.4018 -13.6269 17
182 2 -5.98109 -3.13571 -13.6085 20
183 2 -9.14919 -3.58814 -12.0095 19
184 2 -7.27305 -1.15671 -11.7615 21
185 2 -10.3935 -1.1544 -10.2334 22
186 2 -6.51591 -4.34325 -10.2947 22
187 2 -9.67176 -3.56682 -8.24902 21
188 2 -7.36461 -1.72055 -8.51445 20
189 2 -10.4349 -0.7563 -6.60518 24
190 2 -6.85388 -4.37622 -6.80144 21
191 2 -9.56142 -3.77519 -4.95596 21
192 2 -7.80959 -1.23982 -4.92054 21
193 2 -10.6511 -0.755463 -3.32585 22
194 2 -6.77883 -3.85181 -3.40462 21
195 2 -9.82352 -3.36779 -2.00829 24
196 2 -7.88746 -0.807984 -2.00979 23
197 2 -2.5911 -12.6126 -11.2562 14
198 2 -5.97675 -13.4307 -10.4045 10
199 2 -3.34829 -14.1948 -9.02744 11
200 2 -1.95679 -12.1844 -8.09583 20
201 2 -4.72012 -12.4684 -6.89883 18
202 2 -0.493996 -14.5903 -6.87716 14
203 2 -3.70953 -15.2218 -5.47055 12
204 2 -2.10204 -12.8511 -5.35483 21
205 2 -4.80298 -11.7436 -3.41994 22
206 2 -1.16733 -15.1967 -3.37267 14
207 2 -3.61065 -14.8541 -1.89764 14
208 2 -2.07029 -11.6847 -1.33371 21
209 2 -3.16477 -6.07294 -16.4628 13
210 2 -3.96001 -9.08979 -14.874 13
211 2 -0.407163 -7.58257 -14.8296 15
212 2 -7.5614 -6.13341 -12.2068 17
213 2 -1.32799 -10.1704 -13.1615 15
214 2 -4.10615 -9.87081 -12.1202 17
215 2 -1.88299 -7.39921 -11.6564 23
216 2 -4.92612 -7.06656 -10.6285 21
217 2 -1.4593 -9.60127 -9.83309 21
218 2 -4.23264 -9.8212 -8.74347 22
219 2 -1.91414 -7.04609 -8.24934 22
220 2 -5.06843 -7.1171 -7.05323 20
221 2 -1.30747 -9.41868 -6.58972 22
222 2 -4.10237 -9.79858 -5.20566 22
223 2 -1.90791 -6.62341 -4.72281 24
224 2 -4.88968 -6.72614 -3.49026 20
225 2 -1.40321 -9.54943 -3.37912 20
226 2 -3.88267 -8.92791 -1.55751 20
227 2 -2.1071 -6.53616 -1.37168 20
228 2 -3.16569 -0.857155 -16.8331 16
229 2 -0.558853 -5.03345 -16.697 14
230 2 -3.14061 -3.54221 -15.0515 21
231 2 -0.935649 -1.4081 -14.9269 21
232 2 -4.33401 -1.01926 -13.448 20
233 2 -0.793971 -4.5264 -13.2042 22
234 2 -3.21539 -4.49876 -11.72 20
235 2 -2.0611 -1.71387 -11.3464 22
236 2 -4.6294 -1.88272 -9.79933 22
237 2 -0.860516 -4.8541 -9.95294 24
238 2 -3.68196 -4.53379 -8.36752 21
239 2 -1.9802 -2.05725 -8.20182 23
240 2 -4.82187 -1.8334 -6.52985 21
241 2 -1.25629 -4.46997 -6.57753 23
242 2 -3.92716 -4.50705 -5.18994 20
243 2 -2.11696 -1.627 -4.94867 21
244 2 -4.92369 -1.06224 -2.99848 22
245 2 -1.14853 -4.03973 -3.24662 22
246 2 -3.96496 -3.75896 -1.93727 21
247 2 -1.80333 -0.862383 -1.52749 21
248 1 -12.8022 -11.8645 3.29735 13
249 1 -13.2298 -11.4752 6.47208 11
250 1 -12.6524 -6.42303 -0.508187 20
251 1 -15.5285 -6.47314 1.38335 13
252 1 -13.2432 -8.93422 4.84434 22
253 1 -12.5539 -6.8012 3.00504 20
254 1 -15.8885 -7.2645 4.88695 11
255 1 -11.0599 -9.05276 6.89982 23
256 1 -13.1876 -5.98696 6.25458 20
257 1 -13.8334 -8.27024 8.1752 13
258 1 -12.8626 -6.63103 10.6236 14
259 1 -16.4636 -4.44964 -0.234741 16
260 1 -12.7655 -1.02271 -0.55176 20
261 1 -15.532 -1.60938 1.32359 18
262 1 -13.5865 -4.12604 1.40448 21
263 1 -15.8955 -4.38606 3.38456 15
264 1 -12.7864 -1.49983 2.96228 22
265 1 -15.7959 -1.22889 4.89105 18
266 1 -13.515 -3.39985 5.11438 21
267 1 -16.5481 -2.9936 6.64228 14
268 1 -12.9587 -0.990957 6.55539 21
269 1 -13.7228 -3.2401 8.14063 20
270 1 -15.2059 -5.45169 9.04191 12
271 1 -12.4338 -1.06084 9.65813 21
272 1 -13.6229 -3.79442 11.3528 12
273 1 -12.5685 -1.54978 13.2184 11
274 1 -6.80174 -12.464 -0.234619 23
275 1 -9.69427 -12.5357 1.85612 16
276 1 -8.25301 -14.7685 7.34407 13
277 1 -6.82773 -12.5485 3.19258 22
278 1 -9.84955 -12.412 5.10862 19
279 1 -5.52223 -14.7875 6.16115 17
280 1 -6.97503 -11.9327 6.34447 21
281 1 -6.75376 -12.621 13.2011 8
282 1 -7.41783 -12.0967 9.75189 17
283 1 -10.4823 -9.86604 -0.115463 20
284 1 -6.89068 -7.1454 -0.133601 23
285 1 -9.85563 -6.88773 1.59073 22
286 1 -7.6855 -9.52738 1.30062 23
287 1 -10.3697 -9.72337 3.24908 21
288 1 -6.99759 -7.07553 2.98933 21
289 1 -9.85762 -6.89727 5.21136 22
290 1 -7.88419 -9.55172 4.76477 21
291 1 -10.2528 -11.5491 7.94162 15
292 1 -7.0402 -6.58729 6.5985 19
293 1 -9.96984 -6.22831 8.14126 23
294 1 -7.93123 -9.08687 8.4266 24
295 1 -10.8756 -8.86974 9.82195 16
296 1 -6.98065 -6.34014 9.83728 23
297 1 -9.36901 -6.86961 11.2269 18
298 1 -8.1996 -10.1578 11.4534 15
299 1 -6.48075 -7.49795 13.0612 14
300 1 -10.7255 -4.44898 -0.319577 24
301 1 -6.82005 -1.31385 -0.351496 20
302 1 -10.0316 -1.56781 1.42954 24
303 1 -8.19019 -4.34353 1.51435 24
304 1 -10.8258 -4.36959 3.26161 22
305 1 -6.87115 -1.54482 2.97031 20
306 1 -10.1245 -1.32921 5.00125 22
307 1 -7.86695 -4.34855 4.90807 20
308 1 -11.0231 -3.55642 6.43857 21
309 1 -6.67375 -1.04221 6.29851 21
310 1 -9.63435 -0.854233 7.75642 22
311 1 -7.74936 -3.91226 8.12843 22
312 1 -10.7534 -3.69387 9.69052 21
313 1 -6.91831 -1.22582 9.63866 21
314 1 -9.3651 -0.97418 10.8092 19
315 1 -7.75798 -3.69283 12.0221 20
316 1 -10.6975 -4.11948 13.2853 12
317 1 -7.01515 -0.805945 13.3587 20
318 1 -9.56212 -1.72286 14.6773 15
319 1 -8.22299 -4.39808 15.3683 10
320 1 -7.95585 -15.4112 4.08723 11
321 1 -1.13956 -12.2733 0.108396 24
322 1 -3.62902 -12.1535 1.66332 19
323 1 -4.55894 -14.9139 -0.199217 15
324 1 -4.52344 -14.3847 3.34715 17
325 1 -0.64971 -11.6421 3.23522 22
326 1 -4.11672 -11.846 4.82262 23
327 1 -2.05714 -15.1373 4.94952 13
328 1 -5.99043 -14.7741 9.3675 11
329 1 -1.13448 -12.5812 6.26333 21
330 1 -4.01844 -11.9819 7.80025 22
331 1 -2.631 -14.9114 7.63428 13
332 1 -1.29754 -12.0236 9.71789 17
333 1 -4.3429 -12.3062 11.174 17
334 1 -1.26433 -12.6639 12.7954 11
335 1 -4.65156 -10.0183 -0.253317 19
336 1 -0.697423 -6.78343 0.0260769 19
337 1 -4.00143 -6.37253 1.53071 19
338 1 -1.98934 -9.27224 1.49786 23
339 1 -5.03104 -9.37397 3.03893 21
340 1 -1.33969 -6.73813 3.35843 24
341 1 -4.15565 -6.33936 4.69592 22
342 1 -2.02892 -9.17751 4.75095 25
343 1 -5.21044 -9.02405 6.5011 21
344 1 -1.20779 -7.20549 6.64787 21
345 1 -3.93308 -6.6536 8.1171 22
346 1 -2.19005 -9.23761 8.01439 22
347 1 -5.30813 -9.21809 9.63022 23
348 1 -1.13172 -6.92924 10.0336 21
349 1 -3.76459 -6.56859 11.6299 22
350 1 -2.18402 -9.52372 11.5505 21
351 1 -4.91073 -10.2398 12.9409 16
352 1 -1.00051 -6.62944 13.3156 19
353 1 -4.66379 -7.61007 14.9784 15
354 1 -1.80666 -9.64907 14.5803 13
355 1 -5.13107 -4.13356 0.0347251 22
356 1 -0.975193 -1.77411 -0.0711858 19
357 1 -3.97181 -1.06722 1.67831 22
358 1 -2.32911 -3.74747 2.3091 21
359 1 -5.0342 -3.52688 3.68711 20
360 1 -1.0636 -0.927935 3.17576 21
361 1 -3.903 -0.870855 4.58932 23
362 1 -2.11221 -3.39324 5.32875 21
363 1 -4.98976 -3.76423 6.71611 20
364 1 -1.05732 -0.950043 6.64269 21
365 1 -4.07011 -1.12614 8.33392 21
366 1 -2.21653 -3.89778 8.18235 21
367 1 -5.18802 -3.61004 9.89006 21
368 1 -1.06583 -1.12076 9.96362 21
369 1 -3.98232 -1.36683 11.6701 19
370 1 -2.11993 -3.83651 11.4397 23
371 1 -5.07842 -4.37712 13.2574 21
372 1 -0.946532 -1.27764 13.2549 24
373 1 -4.15941 -1.86807 14.9064 18
374 1 -2.1904 -4.48874 14.8666 19
375 2 -16.27 -6.47644 -0.249057 13
376 2 -14.2086 -10.7057 2.14091 9
377 2 -12.1433 -8.82871 3.11858 21
378 2 -13.7738 -6.02084 1.61688 19
379 2 -16.3156 -6.20497 3.31012 12
380 2 -14.018 -11.5297 4.65282 11
381 2 -13.6477 -7.15269 4.73579 19
382 2 -14.4087 -6.5991 7.70334 14
383 2 -12.9473 -9.52923 6.74078 17
384 2 -12.853 -8.27697 9.66253 13
385 2 -16.1095 -0.773198 -0.509769 17
386 2 -12.7249 -4.33196 -0.280512 20
387 2 -15.6987 -3.77983 1.49326 16
388 2 -13.4975 -1.39876 1.166 18
389 2 -18.5742 -2.92783 6.79144 7
390 2 -12.9364 -3.49788 3.25256 22
391 2 -15.4177 -3.38389 5.24186 19
392 2 -13.2607 -1.07538 4.71905 22
393 2 -16.0475 -0.766536 6.72732 20
394 2 -12.7856 -4.11501 6.59016 22
395 2 -15.6753 -4.10413 7.92837 14
396 2 -14.0988 -1.22814 8.27082 20
397 2 -14.3423 -5.38837 10.7805 10
398 2 -12.6674 -3.25704 9.8445 19
399 2 -10.9244 -11.6567 3.20148 17
400 2 -8.04512 -13.9738 2.19199 16
401 2 -8.69549 -14.2926 5.41868 13
402 2 -7.89174 -11.5498 1.36598 24
403 2 -11.5059 -11.9403 6.40017 14
404 2 -6.09306 -15.2313 4.13257 14
405 2 -8.07927 -11.6658 4.58667 21
406 2 -7.88467 -12.0379 11.6367 11
407 2 -6.57168 -15.2963 7.74063 14
408 2 -8.56349 -12.7352 7.85883 17
409 2 -10.6451 -6.34872 -0.412609 23
410 2 -6.50965 -9.18744 -0.283714 22
411 2 -9.82273 -9.09318 1.52063 23
412 2 -7.99613 -6.31228 1.40275 23
413 2 -10.6392 -6.09862 3.32448 21
414 2 -7.0021 -8.99657 3.10765 20
415 2 -9.81525 -9.06049 5.06796 20
416 2 -8.08007 -6.42497 4.67461 21
417 2 -11.105 -7.18829 6.6267 21
418 2 -7.28829 -9.96042 6.88028 22
419 2 -9.79109 -9.53186 8.46049 19
420 2 -8.10968 -7.03889 8.48727 23
421 2 -10.6106 -6.49692 9.82301 17
422 2 -7.121 -9.98931 9.9444 20
423 2 -10.0253 -8.78599 11.4263 13
424 2 -7.51173 -6.9892 11.509 19
425 2 -12.2417 -3.42429 12.6212 14
426 2 -4.85439 -12.4121 13.1376 10
427 2 -6.7793 -9.53431 12.8595 14
428 2 -10.8848 -0.901147 -0.222173 24
429 2 -7.06033 -3.51762 0.0112619 23
430 2 -10.0978 -3.79068 1.57628 20
431 2 -8.15598 -0.990207 1.69249 22
432 2 -11.0199 -0.682335 3.08909 23
433 2 -7.35422 -3.6056 3.19087 19
434 2 -9.86493 -3.44839 4.90255 21
435 2 -8.17351 -1.00501 4.88776 20
436 2 -11.0971 -1.35731 6.7364 21
437 2 -6.80079 -4.53905 6.59084 22
438 2 -9.79067 -4.38362 7.94989 21
439 2 -7.49163 -1.79247 7.94093 23
440 2 -10.3366 -1.71219 9.57969 20
441 2 -6.99334 -4.34583 9.9567 22
442 2 -9.78052 -4.10833 11.3945 19
443 2 -7.68308 -1.62764 11.5994 19
444 2 -10.9073 -0.91425 13.8628 13
445 2 -6.93762 -4.79391 13.5146 19
446 2 -9.66336 -3.78778 14.5714 12
447 2 -8.23706 -0.517235 15.1313 17
448 2 -4.94591 -12.0394 -0.0989586 22
449 2 -1.06294 -15.1324 0.0642331 14
450 2 -6.48963 -14.6652 -0.301339 16
451 2 -1.82993 -12.2987 1.80876 19
452 2 -4.93061 -12.5011 3.15429 20
453 2 -3.62932 -14.4624 1.47323 16
454 2 -3.76858 -15.3529 5.45997 14
455 2 -1.95761 -11.9603 4.80341 22
456 2 -5.1283 -12.8411 6.25046 24
457 2 -0.933396 -14.8325 6.74268 14
458 2 -4.02793 -15.1326 8.85554 11
459 2 -2.25647 -12.4035 7.88878 20
460 2 -5.65237 -12.8956 9.73169 19
461 2 -2.55652 -11.944 10.9876 14
462 2 -5.2628 -6.11311 0.0301924 22
463 2 -0.590098 -8.89538 -0.38115 20
464 2 -3.86346 -10.2481 1.5382 23
465 2 -2.1211 -7.13633 1.69579 22
466 2 -5.11993 -7.35537 3.08999 22
467 2 -0.619776 -9.67673 2.78797 21
468 2 -4.30446 -9.91636 5.11302 20
469 2 -2.27704 -7.28267 4.92221 23
470 2 -4.85226 -7.07219 6.51182 21
471 2 -1.08265 -9.14298 6.4202 21
472 2 -4.32093 -10.0304 7.83899 21
473 2 -2.15704 -7.25057 8.55758 20
474 2 -5.15038 -7.11977 9.7458 21
475 2 -1.12647 -9.97884 9.42543 22
476 2 -4.25411 -9.64733 11.1294 18
477 2 -1.748 -7.4509 11.7699 23
478 2 -4.55878 -6.27433 13.4554 20
479 2 -1.05404 -10.7409 13.3536 14
480 2 -3.78643 -9.2189 14.001 16
481 2 -1.25987 -7.78903 14.9848 19
482 2 -5.05679 -0.953513 0.102993 22
483 2 -1.29951 -3.67283 0.0980756 19
484 2 -4.32499 -4.5251 1.93199 20
485 2 -2.11094 -1.46524 1.53298 20
486 2 -5.04681 -1.57719 3.26973 19
487 2 -0.969085 -3.86288 3.56204 19
488 2 -3.83841 -4.09079 4.86612 20
489 2 -2.0803 -1.29308 4.98084 22
490 2 -4.65307 -1.63778 6.256 22
491 2 -1.0783 -4.63536 6.68385 21
492 2 -4.09011 -4.46978 8.43838 22
493 2 -1.83749 -1.60472 8.1643 20
494 2 -4.95005 -1.75022 9.96704 23
495 2 -1.14382 -4.44363 9.73327 20
496 2 -3.99405 -4.51148 11.3984 21
497 2 -2.12478 -1.91773 11.8026 20
498 2 -4.93796 -1.146 13.3999 18
499 2 -1.17149 -4.50459 13.0313 22
500 2 -4.01395 -3.76295 15.3808 17
501 2 -1.71067 -2.38487 15.0185 19
502 1 -13.7166 1.26267 -12.0641 12
503 1 -12.6211 3.2204 -10.2146 19
504 1 -15.597 3.58753 -8.50423 11
505 1 -13.6457 1.22916 -8.34696 18
506 1 -16.668 1.03164 -6.77403 12
507 1 -12.4768 3.75977 -6.57061 20
508 1 -15.6077 3.57919 -5.0054 17
509 1 -13.5777 1.47754 -4.9518 21
510 1 -16.6009 0.827077 -3.21477 12
511 1 -12.7299 4.72712 -3.61484 20
512 1 -15.4921 3.93045 -1.60503 17
513 1 -13.6648 1.75045 -1.76459 21
514 1 -13.6955 6.70033 -8.69596 14
515 1 -16.2543 6.23748 -6.42328 9
516 1 -12.5396 9.55451 -7.37366 13
517 1 -12.809 7.20647 -5.23078 21
518 1 -15.7008 6.88938 -3.48307 12
519 1 -12.2014 10.0876 -3.80141 13
520 1 -10.0938 12.4839 -0.159384 17
521 1 -13.1896 7.47381 -1.97446 19
522 1 -6.33514 3.63641 -16.3649 12
523 1 -9.77112 3.0616 -14.9651 11
524 1 -7.02059 1.22196 -15.3619 16
525 1 -10.4227 0.552906 -13.2373 19
526 1 -6.83519 3.6036 -13.3924 20
527 1 -9.79256 3.52803 -11.7687 20
528 1 -7.67523 1.19063 -11.7825 22
529 1 -10.4412 0.978566 -10.066 22
530 1 -7.00217 4.08612 -10.2594 23
531 1 -9.72103 3.51955 -8.43693 21
532 1 -7.80977 1.28168 -8.38296 20
533 1 -10.6955 1.28813 -6.20093 22
534 1 -6.77178 4.50666 -6.74983 20
535 1 -9.77326 3.85531 -5.16933 21
536 1 -7.91895 0.95323 -4.87632 22
537 1 -10.4939 1.34783 -3.36135 22
538 1 -6.99956 3.94182 -3.5094 21
539 1 -9.75274 3.98887 -1.94887 23
540 1 -7.8596 1.18739 -1.88889 22
541 1 -6.4296 8.97132 -13.2222 11
542 1 -12.4871 4.44371 -13.2969 10
543 1 -10.4193 11.6673 -9.63335 9
544 1 -9.50722 8.76227 -11.5365 13
545 1 -7.9744 6.34451 -11.9629 15
546 1 -10.9181 6.1715 -10.0888 17
547 1 -6.33942 9.79843 -10.4436 16
548 1 -10.1271 8.89931 -8.67652 19
549 1 -7.57192 7.1658 -8.72679 22
550 1 -10.7428 6.2121 -7.02562 20
551 1 -7.00026 10.221 -7.0977 17
552 1 -9.49947 9.03615 -5.01051 24
553 1 -7.72356 6.63519 -5.09142 20
554 1 -10.4098 6.5373 -3.58321 22
555 1 -6.5983 9.38639 -3.11565 19
556 1 -9.74849 9.52224 -1.89903 21
557 1 -7.75785 6.50154 -1.75603 22
558 1 -6.99507 12.9958 -8.67558 13
559 1 -10.1329 12.0811 -6.90943 16
560 1 -5.72751 14.4835 -6.29083 14
561 1 -7.46881 11.9186 -5.0373 22
562 1 -9.87057 12.079 -3.6218 17
563 1 -8.79135 14.8181 -5.25886 11
564 1 -9.19541 15.4424 -1.85793 12
565 1 -7.67114 11.7404 -1.76658 20
566 1 -4.16507 0.777234 -16.9063 15
567 1 -0.816718 3.8932 -16.8811 15
568 1 -3.38621 3.74485 -15.1051 19
569 1 -1.64853 1.76272 -14.811 22
570 1 -4.48348 1.19425 -13.3563 21
571 1 -0.977806 4.44543 -13.1152 22
572 1 -3.94132 4.19974 -11.7623 24
573 1 -1.92506 1.68918 -11.3023 22
574 1 -4.88893 1.57703 -10.0734 23
575 1 -0.984333 4.14187 -9.85803 22
576 1 -4.37415 4.19633 -8.57056 23
577 1 -1.95918 1.63336 -8.17807 21
578 1 -4.88531 1.66612 -6.78781 23
579 1 -1.31419 4.42416 -6.58738 23
580 1 -4.33472 4.48608 -5.10892 24
581 1 -2.14532 1.77965 -5.04503 23
582 1 -5.07244 1.21492 -3.0712 20
583 1 -1.0407 4.27705 -3.59533 19
584 1 -3.89508 4.20873 -1.90797 20
585 1 -2.47646 0.923986 -1.27317 22
586 1 -3.76442 6.05272 -16.9638 11
587 1 -3.25421 8.62594 -15.0837 13
588 1 -0.927341 6.89491 -15.4883 16
589 1 -4.69608 6.44854 -13.6121 18
590 1 -1.01088 9.76937 -13.3495 17
591 1 -3.60932 9.37276 -11.7569 17
592 1 -1.78942 6.98841 -11.7996 23
593 1 -5.13497 7.08401 -10.5667 21
594 1 -1.20357 9.88463 -10.1271 20
595 1 -3.66451 10.1002 -8.85749 22
596 1 -2.0104 7.11187 -8.37309 24
597 1 -4.82935 7.4033 -6.94536 21
598 1 -1.23645 9.86001 -6.74602 23
599 1 -3.58093 9.28205 -5.06803 19
600 1 -1.69479 7.03269 -5.07699 20
601 1 -4.96138 6.7568 -3.07144 20
602 1 -0.841892 9.85411 -3.39559 24
603 1 -3.57111 9.21081 -1.49225 21
604 1 -1.44001 6.38516 -1.77982 21
605 1 -2.68129 12.9481 -12.915 7
606 1 -4.44349 13.2936 -9.74069 13
607 1 -3.64984 15.3532 -8.01932 11
608 1 -1.55507 12.7675 -8.48395 17
609 1 -4.39793 11.6295 -6.80521 21
610 1 -0.783535 15.0317 -6.19944 16
611 1 -3.21998 15.8885 -4.3242 14
612 1 -1.87254 12.4738 -4.97067 19
613 1 -4.27682 11.8127 -3.29254 20
614 1 -6.45017 14.5695 -3.15474 19
615 1 -3.74191 14.4343 -1.47121 20
616 1 -1.7447 12.1739 -1.55338 21
617 2 -12.2217 0.484563 -12.8993 17
618 2 -13.377 2.96552 -12.5817 9
619 2 -12.46 1.21894 -10.259 18
620 2 -15.8184 1.83868 -8.18004 13
621 2 -13.2465 3.22156 -8.2364 17
622 2 -15.9885 4.30137 -6.69695 13
623 2 -12.5912 0.777013 -6.76386 19
624 2 -15.7416 1.70201 -4.69089 16
625 2 -13.3796 3.46428 -4.9997 20
626 2 -15.7882 4.99034 -3.38456 16
627 2 -12.547 0.995616 -3.22956 22
628 2 -15.8006 1.85143 -1.56563 17
629 2 -13.32 3.92169 -1.91755 20
630 2 -12.8032 6.07922 -10.0939 11
631 2 -12.4132 9.3587 -5.51101 15
632 2 -15.3555 6.81029 -7.93379 9
633 2 -14.7615 6.90018 -5.25786 15
634 2 -11.2825 11.1749 -8.00787 10
635 2 -12.3037 6.80879 -3.31034 21
636 2 -15.2081 7.46476 -1.73291 14
637 2 -12.5197 9.40943 -2.07168 14
638 2 -12.2289 7.73781 -7.60912 16
639 2 -5.84256 1.72235 -16.7888 12
640 2 -9.57812 0.999656 -14.8697 13
641 2 -7.89987 3.67196 -15.2858 12
642 2 -10.7797 3.77779 -13.6087 14
643 2 -6.34509 1.59871 -13.2066 23
644 2 -9.44425 1.63255 -11.5039 23
645 2 -7.92819 4.13865 -11.9414 20
646 2 -10.7657 4.05245 -10.1957 20
647 2 -6.71699 0.983129 -9.97976 20
648 2 -9.78636 1.57814 -8.25616 22
649 2 -7.67041 3.75717 -8.4483 22
650 2 -10.6477 4.2651 -6.84325 22
651 2 -6.84211 0.930735 -6.76526 23
652 2 -9.56508 2.13245 -4.84278 22
653 2 -7.95793 4.62056 -5.18696 22
654 2 -10.7767 4.48742 -3.35543 22
655 2 -6.77451 1.98032 -3.60532 24
656 2 -9.69168 2.01232 -1.58684 23
657 2 -7.48762 4.51644 -1.74451 21
658 2 -6.76865 7.16251 -13.4914 14
659 2 -9.62092 6.77467 -11.4389 16
660 2 -7.72747 9.29627 -11.8047 15
661 2 -10.182 9.84598 -10.2606 13
662 2 -6.67768 6.17049 -10.3667 22
663 2 -9.67348 6.72454 -8.60067 18
664 2 -8.0442 9.05973 -8.53549 20
665 2 -9.25929 12.7877 -1.82566 19
666 2 -6.67369 6.82252 -6.78035 19
667 2 -9.79158 7.04704 -5.60309 21
668 2 -8.00478 10.0721 -5.41487 18
669 2 -10.03 10.1417 -3.68779 18
670 2 -6.85484 7.49012 -3.4345 21
671 2 -9.88701 6.95695 -1.80291 22
672 2 -7.89597 9.82061 -1.66874 24
673 2 -5.96987 11.4677 -9.23147 15
674 2 -8.81462 12.4213 -8.67684 13
675 2 -3.40664 12.0272 -8.72498 19
676 2 -9.40846 15.5075 0.102154 10
677 2 -9.4909 12.8812 -5.39861 14
678 2 -6.73097 12.393 -3.34189 21
679 2 -6.5284 13.0615 -0.016569 23
680 2 -9.66052 15.5678 -3.66584 9
681 2 -4.70509 4.54891 -16.7019 13
682 2 -0.959808 1.33965 -16.7128 13
683 2 -3.4014 1.5706 -14.9416 21
684 2 -1.50325 3.65474 -14.7391 21
685 2 -4.64951 3.93287 -13.8155 23
686 2 -0.459246 0.931038 -13.177 22
687 2 -3.72672 0.995851 -11.4317 23
688 2 -1.76581 3.58429 -11.4851 23
689 2 -5.20416 3.56307 -10.4414 22
690 2 -0.58821 0.938813 -9.66549 22
691 2 -3.61179 1.01243 -8.13513 23
692 2 -2.27038 3.69689 -8.23825 23
693 2 -5.15268 3.64108 -6.82861 23
694 2 -1.09831 0.869545 -6.43731 21
695 2 -4.37903 0.971964 -4.84256 18
696 2 -2.58104 3.80182 -5.03432 22
697 2 -5.14567 4.73137 -3.23187 21
698 2 -0.978293 0.969108 -3.84247 19
699 2 -3.81434 2.18018 -1.77187 22
700 2 -2.02604 4.45912 -1.93063 20
701 2 -1.73504 5.74318 -17.0463 13
702 2 -3.47709 6.85523 -15.1734 15
703 2 -1.32739 8.99356 -15.1482 13
704 2 -4.65065 9.12712 -13.2777 15
705 2 -0.862612 6.45108 -13.4501 21
706 2 -3.6951 6.17866 -11.8609 21
707 2 -1.77805 8.96551 -11.7071 19
708 2 -4.47284 8.88198 -10.179 21
709 2 -1.18314 6.13621 -10.1106 21
710 2 -4.07082 6.23837 -8.59906 24
711 2 -1.95117 9.02453 -8.3288 23
712 2 -4.6844 9.6927 -6.90921 21
713 2 -1.09346 6.12628 -6.69978 23
714 2 -3.87312 6.98718 -5.03233 19
715 2 -1.7167 9.03751 -4.94274 22
716 2 -4.68319 9.66177 -3.18947 20
717 2 -0.782479 6.36241 -3.73092 20
718 2 -3.72736 7.02568 -1.36553 19
719 2 -1.75914 9.71045 -1.59094 21
720 2 -1.36058 12.0723 -13.3314 11
721 2 -3.74593 13.293 -11.3851 10
722 2 -0.488453 11.7308 -9.89411 19
723 2 -4.09827 15.9339 -6.10998 9
724 2 4.04147 14.5996 -8.30753 13
725 2 -5.53324 14.2102 -8.19773 13
726 2 -0.954019 11.7991 -6.72587 23
727 2 -1.90727 14.533 -7.54561 15
728 2 -1.68685 14.6294 -4.55975 16
729 2 -3.53626 11.3482 -4.92618 18
730 2 -0.634072 12.3599 -3.46135 22
731 2 -3.7518 12.524 -1.56765 21
732 2 -2.30608 14.7525 1.42313 16
733 1 -16.7705 0.975101 -0.265952 14
734 1 -12.57 4.62553 -0.264436 20
735 1 -15.5269 3.68403 1.23669 19
736 1 -13.7582 0.759219 1.40656 22
737 1 -16.5742 1.13293 3.06994 13
738 1 -12.7017 3.70049 3.22752 22
739 1 -15.8514 3.93515 4.72387 17
740 1 -13.8704 0.997964 4.8314 21
741 1 -15.7204 -0.450658 8.68427 15
742 1 -13.0273 4.38999 6.73139 20
743 1 -16.5652 6.56675 6.18164 11
744 1 -13.6816 1.66648 8.44005 22
745 1 -12.5819 3.89143 9.8884 17
746 1 -13.1681 1.26086 11.2994 13
747 1 -16.3442 6.73054 -0.392254 13
748 1 -12.3206 8.8748 2.88903 20
749 1 -12.4479 9.85426 -0.167775 16
750 1 -13.9246 6.52831 1.48644 21
751 1 -15.2325 9.18316 1.51355 15
752 1 -11.006 12.2189 3.00237 14
753 1 -15.8756 3.87734 8.05024 13
754 1 -13.7414 6.70947 4.90098 21
755 1 -14.381 11.4205 3.37651 9
756 1 -15.8084 9.18242 5.07422 10
757 1 -10.6462 1.17288 -0.0369216 23
758 1 -6.86963 3.79527 -0.203293 24
759 1 -9.78369 3.72605 1.57523 22
760 1 -7.97198 0.861516 1.35743 23
761 1 -10.6899 1.13718 3.09773 23
762 1 -6.89329 3.64292 3.03391 20
763 1 -9.93719 4.10655 4.97799 18
764 1 -8.20173 1.06119 4.64518 21
765 1 -11.026 1.62674 6.51728 20
766 1 -6.99822 4.33277 6.62906 21
767 1 -9.60419 4.13032 8.3486 21
768 1 -7.65715 1.60256 7.99718 23
769 1 -10.4632 1.62315 9.87607 24
770 1 -6.64784 3.91818 9.92282 23
771 1 -9.26543 4.69105 11.3407 21
772 1 -7.78461 1.38814 11.6899 22
773 1 -10.7666 0.972658 13.1272 17
774 1 -6.72496 3.65197 13.1566 20
775 1 -9.99672 4.07842 14.9572 12
776 1 -8.37761 1.59653 14.9639 19
777 1 -10.538 6.52208 0.201149 24
778 1 -6.79394 9.29663 0.0759359 23
779 1 -9.48267 9.60537 1.24019 21
780 1 -7.70571 6.94055 1.65864 20
781 1 -10.8923 6.18699 3.23608 22
782 1 -7.06112 9.31921 3.1589 22
783 1 -10.1695 9.64861 5.04791 20
784 1 -7.94557 6.03768 4.61142 21
785 1 -10.7573 6.94656 6.28684 21
786 1 -7.09258 9.38519 6.29651 20
787 1 -9.80384 9.65226 7.97986 16
788 1 -7.71554 6.8081 8.14206 21
789 1 -10.9147 6.93586 9.85783 18
790 1 -9.46922 10.3719 10.5317 11
791 1 -10.5663 7.24489 13.3276 11
792 1 -7.74655 7.29153 10.8401 22
793 1 -12.0558 3.82496 13.2274 10
794 1 -7.92968 9.52541 13.5356 11
795 1 -7.86474 6.49162 14.4983 16
796 1 -9.29047 15.2221 5.16364 8
797 1 -9.4668 14.7658 1.83707 13
798 1 -6.60015 15.0681 7.49953 11
799 1 -7.50696 12.1613 1.44586 22
800 1 -13.0627 9.74623 6.59528 12
801 1 -6.83094 14.8147 4.01605 16
802 1 -8.15632 11.9265 4.93901 19
803 1 -13.6544 6.95305 8.1418 15
804 1 -3.80639 14.8473 8.76538 11
805 1 -7.54137 12.2654 8.21939 13
806 1 -4.95241 1.18255 -0.00673648 20
807 1 -1.00651 3.84223 -0.233319 20
808 1 -3.94653 4.33858 1.88106 21
809 1 -1.98369 1.74565 1.53297 22
810 1 -5.07969 1.45572 3.00825 22
811 1 -0.970172 4.63905 3.18964 22
812 1 -3.92041 4.25757 4.80685 22
813 1 -1.9387 1.76322 4.87561 24
814 1 -5.09498 1.61812 6.41061 23
815 1 -1.23993 4.1508 6.54265 23
816 1 -4.11644 4.43377 8.21054 23
817 1 -2.26968 1.63371 8.19339 22
818 1 -4.94168 1.29873 10.0867 22
819 1 -1.15325 4.07499 9.72068 21
820 1 -3.88739 3.78725 11.416 23
821 1 -1.8443 1.36685 11.6865 18
822 1 -4.97445 1.2463 13.357 21
823 1 -1.37623 4.51281 13.2582 19
824 1 -4.08511 3.58063 15.1541 19
825 1 -2.04732 1.52575 14.6231 21
826 1 -4.91771 6.31393 -0.0777761 20
827 1 -0.785564 9.14238 0.304417 20
828 1 -4.06358 10.1447 1.77141 20
829 1 -2.54389 7.06285 1.2119 21
830 1 -5.06908 7.09909 3.51258 20
831 1 -0.970478 9.43006 3.4251 18
832 1 -3.98457 9.72741 4.8377 22
833 1 -2.2968 7.00736 4.82874 21
834 1 -5.03748 7.10721 6.40737 23
835 1 -1.37563 9.48445 6.64836 20
836 1 -4.10193 9.53395 8.6676 17
837 1 -2.0884 7.11478 8.0903 22
838 1 -4.80314 6.99504 10.0314 19
839 1 -1.36256 9.99535 9.78888 20
840 1 -5.91956 10.0443 11.8081 12
841 1 -2.02908 7.01354 11.3265 22
842 1 -4.93772 6.8919 12.9362 20
843 1 -1.54798 9.73892 12.9625 15
844 1 -4.39808 9.2565 14.5227 10
845 1 -1.51207 7.50018 14.8315 17
846 1 -5.10392 11.9218 -0.0992381 21
847 1 -0.695438 14.4751 0.0167282 18
848 1 -4.06262 15.3245 1.76211 14
849 1 -2.19041 12.518 1.45717 22
850 1 -4.99503 13.0457 3.30081 21
851 1 -6.70585 15.0769 0.0706964 18
852 1 -3.97729 14.9682 5.35019 15
853 1 -2.34452 12.5737 4.91198 21
854 1 -4.829 11.8018 6.57508 19
855 1 3.27877 13.6869 10.3968 10