ITEM: TIMESTEP
245000
ITEM: NUMBER OF ATOMS
2000
ITEM: BOX BOUNDS pp pp pp
-30.0 30.0
-30.0 30.0
-30.0 30.0
ITEM: ATOMS id type x y z Coordination
1 1 -16.3283 6.42354 3.07165 13
2 1 -14.0832 6.65893 8.26999 16
3 1 -15.8248 3.5655 8.41904 13
4 2 -16.7166 4.09765 6.22933 13
5 2 -16.4722 -1.47752 6.9113 10
6 2 -16.4799 4.53847 2.74328 15
7 1 6.95234 -14.3077 -3.85712 13
8 1 -2.13759 -15.0635 1.64031 14
9 1 4.57943 -14.963 -9.01803 10
10 2 -0.358605 -13.8284 -7.16779 14
11 2 5.12123 -15.3783 -6.67293 11
12 2 -1.26831 -14.777 3.20005 16
13 2 0.952809 -5.78292 -17.217 12
14 1 2.03625 -6.2368 -15.3858 22
15 1 1.1158 -3.54923 -17.2313 15
16 2 1.89571 -4.14575 -15.4535 22
17 1 -10.8495 -9.87922 -0.554706 17
18 1 -12.6421 -3.60274 -9.30082 13
19 1 -9.78785 -12.0616 -1.73673 15
20 1 -12.478 -6.30106 -7.66145 18
21 1 -15.1272 -7.70611 -6.0937 12
22 1 -13.8057 -10.2326 -5.33681 9
23 1 -12.6401 -6.76091 -3.96493 21
24 1 -15.3576 -7.3474 -1.48927 15
25 1 -15.7762 -7.27861 4.91453 14
26 1 -11.3277 0.550536 -14.1393 14
27 1 -11.7424 -8.38723 -10.3903 12
28 1 -11.4275 3.31639 -12.25 14
29 1 -14.7113 -0.875699 -9.01799 12
30 1 -13.2767 0.634799 -11.864 13
31 1 -11.6138 -1.33648 -10.6205 16
32 1 -12.8192 -0.866833 -7.12773 21
33 1 -15.6858 -1.35562 -5.58627 14
34 1 -12.9995 -4.05723 -5.48196 19
35 1 -15.7045 -5.01326 -4.26632 13
36 1 -13.2999 -1.03339 -3.5655 21
37 1 -15.1692 -1.82592 -1.85466 16
38 1 -13.4365 -4.12615 -2.21822 21
39 1 -15.3698 -10.0721 -3.122 8
40 1 -13.7605 -9.31912 -8.63246 8
41 1 -8.92035 -11.2267 -6.99377 15
42 1 -6.75304 -12.1267 -4.28906 19
43 1 -7.62534 -14.1586 -2.33559 13
44 1 -7.99525 -8.7885 -5.27578 21
45 1 -10.9026 -14.2509 0.703386 8
46 1 -7.45462 -14.125 1.13542 17
47 1 -3.55366 -11.4151 -15.3949 9
48 1 -9.42146 -6.49664 -8.80741 18
49 1 -5.87579 -9.62653 -12.7229 12
50 1 -11.1777 -8.96505 -6.97019 19
51 1 -6.80722 -6.08622 -10.4568 19
52 1 -8.61938 -11.5139 2.66192 19
53 1 -10.495 -11.222 -10.0203 10
54 1 -16.1969 -10.8946 3.69713 9
55 1 -6.90134 -6.20717 -6.97645 21
56 1 -9.85194 -6.45862 -5.4749 21
57 1 -8.17336 -9.0843 -8.64493 21
58 1 -10.8152 -8.95877 -3.5524 17
59 1 -6.89109 -6.92365 -3.5636 19
60 1 -10.0094 -6.64051 -1.52158 21
61 1 -7.67152 -9.75694 -2.45737 20
62 1 -3.9202 -0.402044 -18.9955 8
63 1 -5.00035 1.6332 -17.3048 17
64 1 -6.74747 -7.04976 -13.5117 14
65 1 -8.90863 -7.91223 -11.2783 16
66 1 -7.29042 -1.0427 -14.0081 17
67 1 -11.7712 -2.59231 -13.4978 11
68 1 -8.22266 -4.0323 -12.788 12
69 1 -11.782 -5.71634 -12.0046 8
70 1 -7.70528 -1.74779 -10.6488 17
71 1 -9.17558 -0.604851 -8.8541 16
72 1 -7.64631 -4.12832 -8.92007 19
73 1 -10.1514 -3.29489 -7.20776 19
74 1 -6.8924 -1.44652 -6.9245 23
75 1 -9.71656 -1.42333 -4.79359 18
76 1 -8.07412 -4.44781 -5.15035 18
77 1 -10.4925 -4.04601 -3.28728 21
78 1 -6.87779 -1.67658 -3.21704 22
79 1 -9.30609 -1.36802 -1.86462 20
80 1 -7.64981 -4.57718 -1.73616 21
81 1 1.83976 -10.2995 -16.9874 9
82 1 -2.66905 -13.0644 -12.5346 9
83 1 -1.86035 -10.8325 -10.0755 18
84 1 -4.18998 -12.2979 -9.38961 15
85 1 -6.48944 -13.7699 -7.24704 10
86 1 -7.05959 -12.3332 -10.4792 12
87 1 -1.20635 -12.082 -7.27395 18
88 1 -3.85437 -12.3325 -5.72448 19
89 1 -1.48455 -15.1271 -5.87536 12
90 1 -4.86279 -15.1264 -3.78344 12
91 1 -0.907702 -12.5009 -4.02225 22
92 1 -3.71763 -11.9984 -2.26742 19
93 1 -2.19204 -14.7356 -2.8382 14
94 1 -0.869704 -5.57724 -16.7273 15
95 1 -3.85707 -6.36352 -16.0166 12
96 1 -1.42753 -8.83437 -16.0762 15
97 1 -5.32878 -9.24374 -15.6391 9
98 1 -1.05908 -5.95364 -13.9366 21
99 1 -3.67974 -6.02166 -12.0113 18
100 1 -2.03887 -8.72103 -12.359 19
101 1 -4.62459 -9.5885 -10.3589 18
102 1 -1.10394 -7.22955 -10.1124 21
103 1 -4.09257 -6.91883 -8.69984 20
104 1 -2.82959 -9.17733 -7.45149 23
105 1 -5.60852 -10.1767 -7.68712 22
106 1 -0.811566 -6.87422 -6.79615 20
107 1 -4.03414 -6.71641 -5.28104 19
108 1 -1.86605 -9.29618 -5.03128 21
109 1 -4.91614 -9.57337 -4.07257 20
110 1 -0.886776 -7.04085 -3.19701 21
111 1 -3.9267 -6.58583 -2.10865 18
112 1 -1.83806 -9.7297 -1.82653 21
113 1 -9.71194 -0.941806 -16.0029 9
114 1 -6.96303 0.0166993 -16.6954 14
115 1 -4.33851 -1.33966 -15.6944 18
116 1 -2.19895 -3.46225 -15.0951 20
117 1 -5.26076 -3.9906 -13.508 19
118 1 -1.14695 -0.636748 -13.9242 22
119 1 -3.88282 -1.25911 -12.5704 19
120 1 -1.98337 -3.20242 -11.8002 20
121 1 -4.95346 -3.50527 -10.4001 19
122 1 -1.14693 -0.825909 -10.5412 21
123 1 -3.56605 -1.36856 -8.59642 16
124 1 -1.50867 -4.60583 -8.62875 20
125 1 -4.84988 -4.08449 -6.82586 18
126 1 -0.945226 -1.54534 -6.76288 22
127 1 -3.73091 -1.56872 -5.08279 22
128 1 -1.56684 -4.34687 -5.37855 21
129 1 -4.83694 -3.70998 -3.5874 22
130 1 -0.827031 -1.52819 -3.2311 21
131 1 -3.62075 -1.61238 -1.63227 22
132 1 -1.72493 -4.0858 -2.0304 23
133 2 -9.71952 -9.44568 -5.44387 17
134 2 -9.72728 -10.6302 1.37993 21
135 2 -10.8201 -1.32594 -14.622 13
136 2 -13.8899 -8.92639 -6.88104 12
137 2 -14.4705 -6.21118 -5.30926 14
138 2 -15.3494 -9.1307 -4.72845 10
139 2 -14.0322 -6.5178 10.4071 11
140 2 -13.6781 -7.03527 -2.1694 19
141 2 -12.3226 -1.28069 -12.3672 12
142 2 -12.8001 -7.42244 -8.91838 14
143 2 -14.1221 0.700396 -10.2514 13
144 2 -11.7701 -3.51833 -10.9446 11
145 2 -15.1385 -0.692477 -7.18079 13
146 2 -12.7291 -4.25871 -7.40329 16
147 2 -15.1297 -3.56086 -5.46426 13
148 2 -12.6261 -1.88897 -5.51226 21
149 2 -15.274 -0.907064 -3.88801 14
150 2 -12.1594 -4.72195 -3.7592 21
151 2 -15.499 -4.02294 -2.23173 17
152 2 -13.3116 -2.21075 -1.99847 20
153 2 -14.8201 -11.4909 4.74207 10
154 2 -11.8386 -9.94988 -9.28232 12
155 2 -7.8158 -12.6773 -6.33185 12
156 2 -12.2747 -9.88517 -4.347 13
157 2 -12.6743 -10.7063 0.455266 16
158 2 -7.28694 -12.0167 1.32722 22
159 2 -11.0654 -11.1036 3.53075 15
160 2 -13.1779 -8.56807 3.37832 18
161 2 -10.8959 -4.44584 -13.1964 8
162 2 -10.6568 -6.84622 -10.9602 14
163 2 -5.08588 -10.4994 -14.2584 11
164 2 -9.8603 -8.23348 -8.32435 21
165 2 -2.50079 -12.3576 -14.2143 9
166 2 -8.98035 -11.0119 -8.77653 15
167 2 -3.75403 -13.2214 -10.9646 11
168 2 -6.73189 -14.1542 -4.04848 11
169 2 -7.36222 -6.93404 -8.67729 19
170 2 -11.3688 -7.0744 -6.29175 20
171 2 -7.28019 -9.78464 -6.56446 17
172 2 -7.85474 -11.778 -2.09066 15
173 2 -7.85312 -6.3278 -5.08718 20
174 2 -10.636 -7.02618 -3.47531 18
175 2 -6.81431 -9.75618 -4.02082 19
176 2 -9.94669 -9.93403 -2.10885 18
177 2 -7.93076 -7.01508 -1.65897 19
178 2 -5.43244 -7.41968 -14.9684 13
179 2 -3.28464 -9.36511 -16.3313 11
180 2 -10.1269 1.06129 -15.6617 15
181 2 -7.91038 -1.1579 -15.821 12
182 2 -2.37867 -1.45219 -15.372 19
183 2 -7.21547 -8.0665 -11.9981 15
184 2 -8.09385 -1.97367 -12.4562 17
185 2 -9.58279 -0.617008 -10.7487 16
186 2 -7.15917 -4.07433 -10.7676 17
187 2 -9.47547 -4.58969 -8.34481 20
188 2 -7.8104 -1.81875 -8.5316 20
189 2 -10.2675 -1.25741 -6.86717 19
190 2 -6.91612 -4.04818 -6.95203 20
191 2 -9.54335 -3.49614 -5.23672 19
192 2 -7.47727 -1.24888 -4.98015 21
193 2 -10.5177 -0.599895 -3.16564 22
194 2 -6.86753 -4.28174 -3.55055 20
195 2 -9.75938 -4.77942 -1.42895 20
196 2 -7.66349 -0.640727 -1.68155 22
197 2 -1.06097 -11.8334 -11.8657 13
198 2 -6.18815 -13.5693 -9.22896 9
199 2 -6.18731 -10.6492 -11.1938 15
200 2 -2.52675 -11.2997 -8.30061 19
201 2 -5.15055 -12.1 -7.44909 19
202 2 2.8658 -14.1625 -8.61863 14
203 2 -3.32592 -15.1609 -4.99089 11
204 2 -1.97952 -11.2146 -5.33392 24
205 2 -4.73455 -12.0068 -3.91021 22
206 2 -0.695163 -14.6843 -4.1111 15
207 2 -3.90626 -14.3743 -2.0412 17
208 2 -1.72129 -12.8606 -2.27433 20
209 2 -6.87033 -5.19336 -13.2469 15
210 2 -0.911191 -9.38637 -13.5893 20
211 2 -1.88822 -6.95362 -15.6717 18
212 2 -9.99355 -9.69371 -11.1447 10
213 2 -3.98738 -4.5367 -15.1627 15
214 2 -3.95382 -9.07724 -12.1334 17
215 2 -1.78355 -6.7836 -12.0977 19
216 2 -4.82978 -6.18255 -10.2676 21
217 2 -1.45172 -9.04859 -10.2132 19
218 2 -4.19991 -8.87691 -8.86793 19
219 2 -1.884 -6.49618 -8.30602 19
220 2 -4.92569 -6.23462 -7.02366 18
221 2 -0.848144 -9.00535 -6.66819 21
222 2 -4.14251 -9.74701 -6.01569 20
223 2 -1.91804 -6.29985 -5.0144 21
224 2 -5.0552 -7.27225 -3.89211 19
225 2 -0.781864 -9.06068 -3.25779 19
226 2 -3.74874 -9.86126 -2.32834 18
227 2 -1.96039 -6.01511 -1.74709 22
228 2 -1.08225 2.25325 -17.0196 14
229 2 3.73593 -6.30916 -16.6325 14
230 2 -5.26353 -0.407929 -17.4749 10
231 2 -1.8995 -0.509351 -18.503 12
232 2 -5.41837 -1.7599 -13.6556 22
233 2 -1.06688 -3.99193 -13.5209 21
234 2 -4.00698 -4.26899 -12.1271 19
235 2 -2.03132 -1.34405 -12.3334 21
236 2 -4.75303 -1.5259 -10.7206 19
237 2 -0.938604 -3.93443 -10.3888 19
238 2 -4.43576 -3.16442 -8.40854 19
239 2 -1.87978 -0.680824 -8.53589 21
240 2 -4.96028 -0.963368 -6.49053 20
241 2 -0.715012 -3.53889 -6.80475 20
242 2 -3.50849 -3.8417 -5.4326 19
243 2 -1.86836 -0.948212 -4.86157 21
244 2 -4.91174 -1.82843 -3.28268 19
245 2 -0.660894 -3.79937 -3.50348 20
246 2 -3.60946 -3.87298 -2.06651 20
247 2 -1.96374 -0.836739 -1.6369 25
248 1 -13.7761 -12.1353 6.2367 14
249 1 -10.7305 -11.9552 7.30546 15
250 1 -12.7402 -7.1038 -0.214528 22
251 1 -16.079 -6.76776 1.62164 16
252 1 -13.7986 -4.26686 8.3053 16
253 1 -13.0943 -6.83464 2.84335 19
254 1 -12.9829 -7.62103 5.93196 15
255 1 -15.499 -9.11261 6.87032 12
256 1 -15.9307 -3.45761 6.78814 12
257 1 -13.3858 -9.84949 4.73545 17
258 1 -13.4107 -7.77156 9.31157 15
259 1 -16.4076 -4.37783 -0.465185 11
260 1 -12.2763 -0.98276 -0.477221 20
261 1 -15.137 -0.956368 1.31922 18
262 1 -13.7317 -3.98723 1.1594 23
263 1 -16.515 -4.17587 3.158 14
264 1 -12.2824 -1.97259 3.11736 23
265 1 -15.6713 -1.74285 4.73671 15
266 1 -13.4764 -4.49265 4.8356 21
267 1 -16.6071 -0.182414 8.2773 10
268 1 -12.9367 -1.79377 6.25735 21
269 1 -16.0691 -5.40626 10.122 9
270 1 -14.7021 -2.52288 10.5055 14
271 1 -12.0688 -1.2764 10.4376 19
272 1 -14.0506 -5.68031 12.1043 9
273 1 -12.8039 -0.79013 13.231 13
274 1 -6.6799 -12.1958 -0.552349 20
275 1 -11.287 -11.6733 1.1774 16
276 1 -9.13076 -14.5213 7.48768 12
277 1 -6.45842 -12.001 3.72455 22
278 1 -10.6743 -12.5302 4.49473 14
279 1 -5.73518 -14.5336 6.00214 15
280 1 -6.86051 -12.0777 6.76009 21
281 1 -5.45602 -9.33225 9.53479 21
282 1 -12.5185 -14.2522 8.01691 7
283 1 -14.2598 -10.1028 0.433208 13
284 1 -6.86877 -7.18028 -0.179876 20
285 1 -9.59117 -7.34802 1.24787 21
286 1 -7.39801 -9.59604 1.45955 21
287 1 -11.0389 -9.44878 2.91822 18
288 1 -7.2864 -7.3033 3.14617 20
289 1 -10.0823 -6.84458 4.76557 19
290 1 -8.25752 -9.32096 4.82433 19
291 1 -14.0049 -10.9813 9.17588 10
292 1 -6.98078 -6.65906 6.3129 23
293 1 -10.1159 -6.97941 8.20306 19
294 1 -8.13971 -9.45194 7.89157 17
295 1 -11.0565 -9.84155 10.7097 12
296 1 -7.0287 -6.79467 9.39266 21
297 1 -8.74255 -8.58173 10.9819 18
298 1 -8.3169 -11.5263 9.9927 18
299 1 -7.10086 -7.1866 13.1473 12
300 1 -10.8822 -3.86924 -0.0991405 20
301 1 -6.80816 -1.54358 0.0925952 22
302 1 -9.60463 -1.94062 1.46648 20
303 1 -7.88051 -4.31815 1.72237 20
304 1 -10.8401 -4.65724 3.13458 21
305 1 -7.05364 -1.56956 3.50943 20
306 1 -9.77487 -1.49672 5.13019 22
307 1 -7.99984 -3.75707 5.37212 23
308 1 -10.84 -4.22839 6.72493 18
309 1 -6.7324 -1.1704 6.82149 20
310 1 -9.60836 -1.65101 8.20505 23
311 1 -8.18826 -4.5202 8.02422 18
312 1 -11.1515 -4.62911 10.1772 19
313 1 -7.05204 -1.05405 9.83767 19
314 1 -9.49303 -1.96255 11.9479 21
315 1 -7.87924 -4.70446 11.3852 19
316 1 -10.9673 -4.04468 13.3134 12
317 1 -7.05788 -0.890784 13.6509 20
318 1 -9.81329 -1.24496 14.9499 14
319 1 -8.40353 -4.35176 14.7608 14
320 1 -8.02575 -14.5569 3.82385 14
321 1 -0.745942 -12.7208 -0.400564 21
322 1 -3.86431 -12.4035 1.26664 22
323 1 -4.83808 -14.3789 -0.499535 17
324 1 -4.84655 -15.3922 2.75735 14
325 1 -1.19898 -12.7245 3.28554 24
326 1 -3.85143 -11.6496 4.78222 22
327 1 -2.5437 -14.8751 4.72381 15
328 1 -5.37986 -13.9803 8.83726 12
329 1 -1.02022 -13.0374 6.48919 20
330 1 -5.18046 -11.7061 11.1997 12
331 1 -2.46002 -14.9253 8.07732 12
332 1 -1.03076 -11.8477 9.13836 17
333 1 3.69555 -11.0704 13.7603 12
334 1 1.29425 -10.5482 15.59 9
335 1 -4.35197 -9.73088 -0.553839 19
336 1 -1.26798 -6.75482 -0.150395 22
337 1 -3.92021 -6.811 1.45893 20
338 1 -2.287 -10.02 1.41767 21
339 1 -5.03905 -9.12975 3.13461 21
340 1 -1.38154 -6.97318 3.39018 24
341 1 -4.23623 -6.53856 4.75384 21
342 1 -1.93553 -9.454 4.76882 20
343 1 -5.40124 -9.16316 6.27397 23
344 1 -1.38477 -6.507 6.54733 22
345 1 -4.21251 -6.65901 8.10396 21
346 1 -2.16221 -9.08574 8.28268 22
347 1 -3.76633 -11.6158 8.07599 20
348 1 -1.42191 -6.1821 9.84751 24
349 1 -4.6392 -6.58 11.2775 23
350 1 -2.20478 -9.81294 10.9968 17
351 1 -4.36423 -6.32951 14.7552 14
352 1 -2.04789 -6.92703 13.1495 18
353 1 -5.13838 -3.96184 16.2811 13
354 1 -7.89918 -10.922 12.8055 9
355 1 -4.5646 -4.09127 -0.29843 22
356 1 -1.11854 -1.6333 -0.0122746 24
357 1 -3.79568 -1.45364 1.83287 23
358 1 -1.92756 -4.29737 1.66571 22
359 1 -5.0929 -4.00105 3.02674 20
360 1 -1.00304 -1.49078 3.54698 20
361 1 -4.36342 -1.18374 5.09214 21
362 1 -2.40048 -4.01313 4.96144 22
363 1 -5.13609 -3.96755 6.49056 23
364 1 -1.15106 -1.49068 6.48469 21
365 1 -3.58583 -0.826961 8.48836 21
366 1 -2.4545 -3.8665 8.1778 21
367 1 -5.11451 -3.92223 9.76298 22
368 1 -1.23459 -1.04951 10.0756 22
369 1 -4.54533 -1.39464 12.0081 21
370 1 -2.50659 -3.78591 11.359 21
371 1 -6.02378 -3.45152 13.0519 21
372 1 -1.03241 -1.76428 13.7477 18
373 1 -4.28609 -1.05157 15.6129 21
374 1 -2.01557 -3.99624 15.1533 16
375 2 -14.119 -7.43927 1.06924 18
376 2 -15.3755 -9.23321 -1.21267 11
377 2 -16.4942 -6.06668 3.48498 11
378 2 -12.8882 -4.21843 2.84323 18
379 2 -16.3231 -6.12547 -0.510135 14
380 2 -13.9644 -6.39747 4.78723 20
381 2 -15.7952 -4.16301 8.68953 12
382 2 -16.1036 -9.44834 5.04239 13
383 2 -10.7461 -13.7154 7.89125 10
384 2 -9.60617 -10.4711 11.5444 11
385 2 -15.6019 -0.431633 -0.491435 18
386 2 -12.611 -5.04564 -0.381587 22
387 2 -15.8644 -3.63239 1.47033 15
388 2 -13.1025 -0.856454 1.70348 20
389 2 -15.9628 1.74875 7.89483 14
390 2 -13.6838 -1.46272 4.50379 19
391 2 -15.5221 -0.489529 3.01639 16
392 2 -15.6375 1.90924 4.49038 18
393 2 -15.2088 -3.83813 4.77499 18
394 2 -12.8569 -3.70265 6.87076 15
395 2 -15.0723 -4.22244 11.2842 10
396 2 -12.1095 0.0578503 8.9966 17
397 2 -10.347 -8.27012 9.65289 16
398 2 -12.6557 -3.15271 9.70055 19
399 2 -15.3666 -10.3671 2.12397 10
400 2 -10.6586 -12.7959 -0.303364 13
401 2 -14.2876 -7.60718 7.48727 15
402 2 -4.5958 -15.3981 4.63887 15
403 2 -14.0238 -10.3158 7.03006 13
404 2 -9.27767 -15.0513 1.10153 11
405 2 -9.22085 -13.2625 3.81886 16
406 2 1.76342 -10.8785 13.5569 10
407 2 -6.9761 -13.2195 5.08168 19
408 2 -7.23625 -14.0508 7.34135 12
409 2 -11.043 -8.09016 -0.0507918 21
410 2 -6.89099 -9.47479 -0.477631 18
411 2 -9.08485 -8.82225 2.822 17
412 2 -7.98246 -6.37403 1.34644 20
413 2 -10.9446 -6.58827 3.04438 20
414 2 -6.8969 -9.82323 3.46983 21
415 2 -11.8853 -11.9657 5.87284 13
416 2 -8.07929 -7.41693 5.039 21
417 2 -11.0294 -6.96517 6.4516 16
418 2 -7.17629 -10.1182 6.35643 19
419 2 -12.7001 -9.9318 9.92803 10
420 2 -8.23722 -7.34175 7.89897 22
421 2 -9.16655 -11.1907 8.29091 16
422 2 -7.51705 -9.65229 9.63511 22
423 2 -12.8028 -12.4537 8.39164 10
424 2 -7.32527 -5.04897 13.2617 19
425 2 -15.6409 -0.625168 9.68201 13
426 2 -5.10073 -6.72349 13.0978 14
427 2 -7.80216 -6.99648 11.2898 17
428 2 -10.5163 -1.86165 -0.161908 18
429 2 -6.82196 -3.36982 -0.64397 22
430 2 -9.78982 -4.08151 1.37469 20
431 2 -7.70387 -0.841584 1.84599 23
432 2 -10.4701 -1.41442 3.20656 23
433 2 -7.2536 -3.63725 3.42137 21
434 2 -9.90773 -4.86526 4.82119 23
435 2 -7.94803 -1.75619 5.42492 21
436 2 -11.0253 -1.51025 6.43248 19
437 2 -6.96176 -4.77018 6.65869 22
438 2 -9.98319 -4.71747 8.4964 21
439 2 -10.3317 -1.69141 10.0364 15
440 2 -10.0086 1.89719 8.21407 18
441 2 -7.06321 -4.74854 9.69648 22
442 2 -9.7763 -4.01062 11.7431 16
443 2 -7.39718 -1.60728 11.7145 21
444 2 -12.649 -4.75838 12.8272 11
445 2 -9.89736 -3.24374 14.6249 12
446 2 -4.28962 0.452111 18.0247 11
447 2 -10.777 -0.984122 13.2812 16
448 2 -4.73913 -11.6851 -0.448446 21
449 2 -0.818515 -14.6804 -0.0272771 16
450 2 -6.76174 -14.1355 -0.534119 15
451 2 -1.94719 -12.2054 1.04167 22
452 2 -4.6434 -11.847 2.99683 20
453 2 -6.59982 -14.6767 2.55556 17
454 2 -4.05241 -14.5887 1.41558 16
455 2 -2.26294 -12.7852 4.9846 20
456 2 -4.85716 -11.6938 6.28966 19
457 2 -1.12356 -15.0337 6.05589 13
458 2 -4.26085 -14.8016 7.43847 15
459 2 -2.23767 -12.7058 8.11011 18
460 2 -4.92634 -12.4526 9.59889 16
461 2 -4.00176 -10.2415 10.6801 15
462 2 -4.74802 -5.97034 -0.395745 22
463 2 -0.79999 -9.06332 -0.397726 21
464 2 -3.97546 -8.83661 1.45359 22
465 2 -1.99919 -6.13645 1.80072 24
466 2 -5.26813 -7.04217 2.95009 23
467 2 -1.42922 -9.28996 2.83606 21
468 2 -3.99594 -9.26908 4.74365 21
469 2 -2.3893 -6.59614 4.92632 19
470 2 -5.23825 -7.04163 6.4167 22
471 2 -1.22936 -9.93132 6.49825 23
472 2 -3.98771 -9.64462 8.41021 20
473 2 -2.3761 -7.10211 8.28577 20
474 2 -5.24217 -7.36913 9.55094 21
475 2 -1.08107 -10.1041 9.64941 20
476 2 -6.94899 -11.7015 11.6358 11
477 2 -2.92014 -6.23409 11.1577 20
478 2 -7.40172 -9.03081 13.1501 10
479 2 -0.448689 -9.92783 15.1373 10
480 2 -7.14448 -3.41718 15.7065 13
481 2 -3.69723 -4.47065 15.5833 16
482 2 -4.8845 -1.0716 -0.227496 21
483 2 -1.25705 -3.52107 -0.0749879 22
484 2 -3.82273 -3.63647 1.49917 21
485 2 -1.83586 -1.21252 1.75404 20
486 2 -5.08684 -1.89378 3.41914 22
487 2 -1.14676 -3.67128 3.32267 23
488 2 -4.48132 -4.50836 4.68628 20
489 2 -2.45039 -1.77673 5.17024 20
490 2 -4.97355 -1.99191 6.6199 24
491 2 -1.22362 -4.2709 6.76314 21
492 2 -4.17638 -4.70225 8.06495 26
493 2 -1.96943 -1.5365 8.37346 22
494 2 -4.76837 -1.69069 9.8409 21
495 2 -1.1204 -4.34864 9.84114 21
496 2 -4.59197 -4.12196 11.7962 19
497 2 -1.68321 -1.81252 11.7015 21
498 2 -5.36189 -1.78472 13.8213 18
499 2 -1.56839 -4.49625 13.4673 17
500 2 0.565424 -5.85847 16.8929 8
501 2 -5.20048 -2.28422 17.3005 11
502 1 -3.94594 3.84503 -18.778 11
503 1 -11.811 4.67816 -9.81342 17
504 1 -14.0018 4.06343 -6.92223 17
505 1 -13.2927 1.72519 -8.87567 17
506 1 -15.9223 1.16654 -6.89902 15
507 1 -11.4149 5.55785 -6.40042 18
508 1 -16.4765 3.81286 -5.67923 10
509 1 -12.5976 2.08764 -5.57227 19
510 1 -15.3419 1.10648 -3.5217 17
511 1 -12.5743 4.64365 -3.36117 19
512 1 -15.3666 3.8077 -2.30167 16
513 1 -13.1822 1.84262 -1.42526 20
514 1 -12.2769 7.38844 -8.55041 16
515 1 -15.9603 6.6876 -3.98229 13
516 1 -16.3635 6.86836 -7.01788 10
517 1 -12.525 7.59568 -4.57136 19
518 1 -16.2084 12.7811 0.0369217 8
519 1 -13.1513 13.4941 -1.33344 12
520 1 -6.1543 14.958 -3.61837 12
521 1 -13.627 7.44268 -1.63825 20
522 1 -1.84528 1.45418 -18.9553 11
523 1 -8.79602 4.99871 -14.5072 15
524 1 -8.34164 1.74245 -15.2616 19
525 1 -10.7001 3.1101 -15.6983 9
526 1 -6.81014 3.90391 -16.7559 12
527 1 -8.99505 3.7107 -12.2673 19
528 1 -8.63188 0.388026 -12.0677 16
529 1 -10.3203 1.94478 -9.85736 19
530 1 -6.62468 4.68767 -10.1339 18
531 1 -9.14252 4.82048 -8.89984 18
532 1 -7.35629 1.88643 -8.56267 16
533 1 -10.2935 0.89296 -6.65893 18
534 1 -6.58602 3.50956 -6.42317 21
535 1 -9.91003 3.97532 -4.77902 18
536 1 -7.74076 1.19546 -4.82822 23
537 1 -10.5714 1.34282 -3.0796 22
538 1 -6.64067 3.94787 -3.17992 20
539 1 -9.63146 4.17681 -1.43222 22
540 1 -7.5069 1.41119 -1.87571 22
541 1 -7.45102 7.37527 -15.7775 11
542 1 -11.9137 8.34513 -10.9475 12
543 1 -6.53925 9.77153 -14.4235 13
544 1 -4.04988 8.20215 -15.5827 13
545 1 -7.2847 6.96643 -12.3661 21
546 1 -10.1846 6.25084 -11.6446 17
547 1 -7.83908 11.6543 -11.1607 13
548 1 -12.785 10.6765 -6.55428 14
549 1 -8.69739 8.51561 -9.4542 20
550 1 -8.29209 6.70404 -7.1725 18
551 1 -6.40179 9.20299 -6.26053 20
552 1 -9.5033 9.74419 -4.87893 21
553 1 -7.55392 7.35891 -4.37505 19
554 1 -10.1306 6.87665 -3.07914 19
555 1 -6.66628 9.88783 -2.6582 20
556 1 -9.36156 9.79986 -1.53427 17
557 1 -7.15598 6.37808 -1.19306 20
558 1 -10.08 12.3009 -6.52112 12
559 1 -9.6023 9.50537 -12.7729 12
560 1 -10.7447 10.8803 -9.46941 14
561 1 -7.10088 14.1427 -7.1353 10
562 1 -15.4718 10.2988 -1.96461 14
563 1 -15.0309 9.55817 -5.32043 15
564 1 -12.8407 10.6424 -3.45582 14
565 1 -7.58444 12.6806 -1.40812 16
566 1 -2.18295 6.84065 -18.8919 7
567 1 -1.26674 4.40629 -17.0688 17
568 1 -3.96512 4.96441 -15.6863 18
569 1 -2.01574 1.19061 -15.7486 19
570 1 -4.71447 1.86838 -13.4754 17
571 1 -1.49796 4.82294 -13.7214 16
572 1 -5.77056 4.897 -13.6484 19
573 1 -1.72704 2.03268 -12.5713 22
574 1 -5.18344 0.317071 -10.5603 16
575 1 -1.20584 4.4184 -10.1664 19
576 1 -3.69707 4.37507 -8.22469 19
577 1 -1.8004 1.62012 -8.52139 19
578 1 -4.47758 1.13166 -6.78985 20
579 1 -0.989846 3.8234 -6.98161 22
580 1 -3.85867 3.5799 -4.96289 22
581 1 -1.61507 0.954498 -5.0577 22
582 1 -4.86452 1.34402 -3.29456 23
583 1 -0.943577 4.1114 -3.58457 20
584 1 -3.58414 4.1144 -1.14873 21
585 1 -1.83378 1.44061 -1.88165 19
586 1 -0.985411 8.66136 -15.6297 9
587 1 -4.07255 7.68969 -12.8283 17
588 1 1.09703 5.88542 -18.2669 10
589 1 -3.48668 10.6884 -13.3898 11
590 1 -0.958374 9.41859 -12.7386 14
591 1 -5.71143 9.49625 -11.1101 18
592 1 -3.49106 3.76669 -11.4033 17
593 1 -4.96948 6.77929 -9.77626 16
594 1 -0.482548 9.95098 -8.9995 22
595 1 -3.52622 9.25817 -8.19326 18
596 1 -1.6775 6.94872 -8.33821 18
597 1 -4.98232 6.25012 -6.15279 20
598 1 -0.52989 9.07995 -6.36968 23
599 1 -3.93815 9.00384 -4.55217 22
600 1 -1.83003 6.49874 -5.0959 20
601 1 -4.54406 6.75252 -3.14284 19
602 1 -0.802692 9.48068 -3.1028 18
603 1 -3.5089 9.37997 -1.21561 19
604 1 -1.88846 6.46251 -1.95214 20
605 1 -2.24622 12.4611 -10.9803 10
606 1 -4.75808 12.7118 -9.37953 13
607 1 -7.2703 10.9709 -8.38218 17
608 1 -1.39205 12.8003 -8.16511 17
609 1 -4.28859 11.7781 -6.3424 19
610 1 -0.315606 15.6586 -6.19478 10
611 1 -2.6596 14.5797 -4.31133 14
612 1 -1.6515 11.5126 -4.8467 20
613 1 -4.26875 12.5329 -3.31532 21
614 1 -14.4079 9.35523 -8.6112 11
615 1 -3.45974 15.0799 -1.0629 15
616 1 -1.53871 11.9274 -1.55694 22
617 2 -7.06374 5.63815 -15.3213 16
618 2 -11.5434 6.58356 -10.2591 17
619 2 -12.1056 2.6412 -9.96683 16
620 2 -12.9983 -1.47708 -9.23846 17
621 2 -8.58878 3.61875 -15.8854 14
622 2 -14.3214 2.02869 -6.79556 18
623 2 -12.0954 1.18595 -7.3487 20
624 2 -16.3062 1.97689 -5.24952 14
625 2 -12.4538 4.02531 -5.39939 17
626 2 -16.133 4.83171 -3.85733 15
627 2 -13.1415 1.22304 -3.43625 20
628 2 -15.0924 1.8085 -1.62975 18
629 2 -13.4051 3.81443 -1.57893 21
630 2 -10.3317 4.48119 -13.6184 14
631 2 -15.9368 4.77807 -7.14152 12
632 2 -15.8347 7.86663 -5.41688 12
633 2 -14.5773 10.3891 -7.05286 11
634 2 -13.0055 8.78391 -9.72099 11
635 2 -12.3181 6.67273 -2.77448 19
636 2 -16.6017 11.098 -0.628323 7
637 2 -12.3738 12.374 -2.73813 14
638 2 -12.7325 4.92041 -8.00073 16
639 2 -3.82544 1.52205 -18.9564 12
640 2 -6.92229 1.90107 -16.6768 15
641 2 -2.81422 5.13758 -18.3527 12
642 2 -12.2853 1.84438 -12.9866 13
643 2 -7.53007 0.636767 -13.7893 19
644 2 -9.70796 2.03012 -11.9197 18
645 2 -7.46129 4.68225 -12.7275 16
646 2 -9.98948 4.4617 -10.63 18
647 2 -7.17471 0.529502 -10.1015 17
648 2 -9.24095 1.45728 -8.21302 20
649 2 -6.98617 3.95744 -8.3306 18
650 2 -12.1958 7.23964 -6.65291 20
651 2 -6.34216 1.49797 -6.60839 19
652 2 -9.69534 1.43352 -4.93125 19
653 2 -7.94116 3.75238 -4.73811 19
654 2 -10.546 4.72034 -3.18934 20
655 2 -6.60006 1.64006 -3.39748 22
656 2 -9.63602 2.04803 -1.49112 21
657 2 -7.42559 4.48253 -1.48719 19
658 2 -2.28282 8.15032 -16.8933 12
659 2 -7.32231 8.15581 -13.8664 17
660 2 -9.54483 7.67389 -12.2548 16
661 2 -7.96901 10.7125 -13.1197 11
662 2 -8.42084 6.68458 -9.32522 18
663 2 -9.73308 5.2303 -7.12733 18
664 2 -4.93919 8.88697 -9.56254 16
665 2 -9.48641 12.773 -1.2338 16
666 2 -6.70701 7.18758 -5.92987 18
667 2 -9.52795 7.84675 -4.63114 19
668 2 -7.87054 9.63905 -4.06312 18
669 2 -13.5532 9.11832 -4.37877 15
670 2 -6.57379 7.10141 -2.83768 21
671 2 -9.6215 7.92659 -1.61514 20
672 2 -7.4735 9.94903 -1.12797 18
673 2 -4.89282 3.76413 -17.0753 15
674 2 -8.87871 10.3473 -10.1487 15
675 2 -11.3146 11.6406 -7.85836 12
676 2 -6.48672 14.8907 -1.87938 13
677 2 -15.2872 12.1383 1.68237 11
678 2 -6.28156 12.1221 -3.23866 18
679 2 -6.82347 13.3116 0.390099 14
680 2 -15.472 7.9371 -8.26493 9
681 2 -4.92673 9.70747 -12.7674 17
682 2 0.963452 -1.59628 -17.1602 14
683 2 -3.82142 1.4941 -15.1335 20
684 2 -4.32722 6.50188 -14.4538 18
685 2 -4.56246 3.63501 -13.1176 17
686 2 -0.802011 1.48747 -14.2757 18
687 2 -3.54244 1.01169 -11.982 17
688 2 -1.83978 4.23091 -12.0438 17
689 2 -4.57116 4.43974 -9.87951 13
690 2 -1.28438 1.35432 -10.8608 19
691 2 -3.987 0.544856 -8.99121 16
692 2 -2.1168 3.57638 -8.93623 20
693 2 -4.77443 4.06438 -6.3731 18
694 2 -0.793591 1.86514 -6.71766 21
695 2 -3.84249 1.48484 -5.0075 19
696 2 -2.03048 4.33922 -5.11777 21
697 2 -4.6489 4.70443 -3.49249 23
698 2 -0.570566 1.83416 -3.54087 23
699 2 -3.80764 1.64845 -1.39359 20
700 2 -1.60755 4.00463 -1.95782 20
701 2 -2.09123 4.6468 -15.3333 20
702 2 -0.518655 5.95826 -18.7047 9
703 2 -5.85025 8.44393 -16.1796 11
704 2 -11.1649 9.99523 -11.4186 12
705 2 0.391563 8.71202 -14.337 13
706 2 -5.9306 6.37269 -11.169 19
707 2 -2.60958 9.06759 -14.0981 12
708 2 -3.3202 12.4319 -7.90969 16
709 2 -0.25133 5.73475 -9.11518 19
710 2 -3.57496 6.46545 -8.40337 19
711 2 -1.89599 8.80082 -8.5062 18
712 2 -4.22511 9.72489 -6.44918 19
713 2 -0.821245 7.0542 -6.59693 21
714 2 -3.69105 7.14841 -5.10531 23
715 2 -1.5696 9.39963 -4.82129 22
716 2 -4.6716 9.31015 -2.6662 20
717 2 -0.811828 6.50074 -3.59726 21
718 2 -3.64908 6.1837 -1.25965 20
719 2 -1.70731 9.56991 -1.4617 20
720 2 -2.05689 11.2589 -12.3258 9
721 2 -3.71957 13.4612 -10.8771 8
722 2 -0.574001 12.5181 -10.0965 13
723 2 -11.3695 10.4065 -5.12642 15
724 2 1.81174 15.5954 -6.55915 11
725 2 -8.45499 12.8112 -7.42125 13
726 2 -0.692075 11.7607 -6.59598 21
727 2 -6.52107 11.2044 -6.12592 20
728 2 -0.773114 15.0986 -4.54147 13
729 2 -3.40117 12.7417 -4.89772 20
730 2 -0.701308 11.7384 -3.2851 19
731 2 -3.38668 12.5904 -1.34602 19
732 2 -1.4676 14.4802 2.36042 18
733 1 -16.2176 1.20065 -0.325742 13
734 1 -12.5627 4.51381 0.0662539 20
735 1 -15.3417 3.72277 1.22003 19
736 1 -13.2724 1.51246 1.62634 24
737 1 -16.5073 1.09227 2.88388 13
738 1 -12.7223 3.98866 3.24131 21
739 1 -15.5062 3.96893 4.44957 19
740 1 -13.8969 1.01503 4.55002 22
741 1 -16.3923 2.10968 6.09503 14
742 1 -13.4217 3.81766 6.38344 23
743 1 -16.4804 5.88794 6.25905 15
744 1 -13.7422 1.16814 8.61152 18
745 1 -12.8527 4.75364 9.94535 18
746 1 -15.1376 0.358346 11.2675 12
747 1 -16.2896 6.25469 -0.531567 13
748 1 -12.4519 9.56416 3.36041 21
749 1 -12.6078 10.5511 -0.236238 20
750 1 -13.7256 7.65293 1.37407 16
751 1 -15.4237 10.2524 1.4454 14
752 1 -10.4775 12.3963 0.397251 16
753 1 -13.5533 2.90789 12.2113 13
754 1 -13.7421 6.80186 4.84389 20
755 1 -15.4989 9.01687 5.36955 12
756 1 -13.5113 6.66304 12.2443 9
757 1 -10.1307 0.90277 0.108295 22
758 1 -6.81167 3.49314 -0.0251278 21
759 1 -9.80282 3.42733 1.97081 22
760 1 -7.70103 1.14197 1.9377 19
761 1 -10.6841 1.40625 3.63657 21
762 1 -6.845 4.63971 3.35689 24
763 1 -10.0583 4.52137 5.07662 17
764 1 -8.10298 1.01491 5.26844 19
765 1 -11.3535 1.0404 6.88071 18
766 1 -7.06929 4.28595 6.57295 22
767 1 -10.2525 4.01244 8.50172 17
768 1 -8.10123 1.97173 8.4396 22
769 1 -11.0619 1.52738 9.76445 18
770 1 -7.14202 4.47966 10.146 21
771 1 -10.6015 6.65826 10.1998 20
772 1 -7.93381 1.59971 11.7414 22
773 1 -10.8098 1.1087 13.1662 16
774 1 -6.62904 4.37868 13.0862 24
775 1 -9.60167 4.09121 14.9945 14
776 1 -8.05218 1.56233 15.2237 18
777 1 -10.4144 6.45483 0.0537664 21
778 1 -6.24637 9.21785 0.185706 17
779 1 -9.77257 9.56234 1.72661 20
780 1 -7.90098 7.33642 1.69576 18
781 1 -10.8356 6.9021 3.39827 18
782 1 -6.74792 9.57281 3.46965 21
783 1 -9.41102 10.2591 5.31383 20
784 1 -8.12194 7.25104 5.01671 22
785 1 -10.8023 6.50622 6.94604 19
786 1 -6.53713 9.86913 6.90206 22
787 1 -10.3553 12.0711 3.52632 18
788 1 -7.81384 6.85377 8.48299 22
789 1 -10.4528 7.55052 13.3877 13
790 1 -9.20727 9.78297 11.1746 15
791 1 -7.54807 7.10937 12.2049 21
792 1 -6.5624 9.45727 9.83659 22
793 1 -10.2627 3.87593 11.5795 19
794 1 -5.91557 9.99393 12.9988 13
795 1 -7.96213 6.58451 15.6222 11
796 1 -10.7966 11.9382 7.36201 11
797 1 -13.2446 12.4908 1.96884 15
798 1 -9.49994 9.37518 8.47341 18
799 1 -7.52209 12.6089 1.99758 17
800 1 -13.3802 11.9273 5.12098 11
801 1 -10.4309 12.7795 -2.99418 14
802 1 -7.35211 12.9604 5.54757 13
803 1 -12.6415 9.30925 6.74531 16
804 1 -2.75172 14.8228 8.52398 12
805 1 -7.37217 12.1481 8.59758 13
806 1 -4.91457 1.13912 0.139846 22
807 1 -0.73468 3.52318 -0.168025 22
808 1 -3.58273 4.02129 1.93262 22
809 1 -1.84606 1.06585 1.77696 22
810 1 -5.22273 1.45011 3.29731 21
811 1 -0.75304 3.84774 3.13641 21
812 1 -3.61002 4.26982 5.07142 21
813 1 -2.16237 1.18193 4.86008 20
814 1 -5.07213 1.72004 6.45201 21
815 1 -0.9681 4.37338 6.86319 22
816 1 -4.19152 3.91679 8.46637 20
817 1 -2.09702 1.57561 7.93223 21
818 1 -5.06533 1.33553 10.0397 21
819 1 -0.920463 3.38526 9.89271 21
820 1 -3.81801 3.77328 11.8154 19
821 1 -2.29277 1.35936 11.9091 22
822 1 -4.98587 1.387 13.6321 20
823 1 -0.706696 3.88515 12.9066 21
824 1 -6.67021 3.99471 16.8675 11
825 1 -2.02841 0.791351 15.2177 17
826 1 -4.51961 6.58755 0.537589 23
827 1 -0.86222 9.40912 0.311636 20
828 1 -3.62443 9.2982 2.17032 20
829 1 -1.7714 6.63421 1.42212 20
830 1 -4.82435 6.36939 3.57497 19
831 1 -0.735841 9.60651 3.72083 22
832 1 -3.84604 9.7359 5.01569 22
833 1 -1.87187 6.813 4.92751 19
834 1 -5.13837 6.42115 6.64938 22
835 1 -1.60196 9.81723 6.82421 18
836 1 -3.90789 8.68277 8.35419 20
837 1 -1.92128 6.16239 8.73308 19
838 1 -4.57254 6.30051 10.3501 21
839 1 -0.968118 9.36478 10.2387 20
840 1 -4.15479 8.79642 11.6982 21
841 1 -1.87657 6.40535 11.8885 19
842 1 -3.77829 4.16302 14.9272 22
843 1 -1.02521 9.61887 12.8605 17
844 1 -4.95297 6.76567 13.8055 20
845 1 -0.987422 6.77789 14.917 19
846 1 -4.36191 12.679 0.416587 22
847 1 -0.541415 14.9964 0.521405 16
848 1 -3.45122 15.1765 2.15666 14
849 1 -1.61469 12.6155 2.04371 23
850 1 -4.47637 12.3436 3.63406 21
851 1 -6.34031 15.1895 -0.154741 10
852 1 -3.34685 14.9881 5.57406 13
853 1 -1.3517 12.4675 5.55892 23
854 1 -4.57154 12.2804 7.12909 21
855 1 3.33046 11.8697 9.40111 17
856 1 -0.267259 16.0563 6.46326 11
857 1 -1.3669 12.0159 9.08433 16