ITEM: TIMESTEP
22000
ITEM: NUMBER OF ATOMS
2000
ITEM: BOX BOUNDS pp pp pp
-30.0 30.0
-30.0 30.0
-30.0 30.0
ITEM: ATOMS id type x y z Coordination
1 1 -10.872 2.27668 -12.1127 15
2 1 -4.5269 -10.7128 -7.3934 21
3 1 4.92854 10.858 13.3171 10
4 1 6.64866 -12.8163 3.93504 13
5 1 -10.4518 6.24874 -1.93635 18
6 1 11.7289 -7.7452 -10.0352 16
7 1 -11.8415 3.45824 -7.11087 20
8 1 2.02136 -5.5875 9.43915 17
9 1 -12.2979 -3.3856 -11.5598 21
10 1 -14.5057 -11.591 4.28238 13
11 1 13.7303 3.78988 -10.025 13
12 1 -5.18089 -13.5179 1.65717 16
13 1 -16.6509 -5.21271 5.405 15
14 1 0.752764 3.45077 15.1613 17
15 1 -1.27339 3.65159 6.70331 21
16 1 0.165156 9.28496 -9.60636 19
17 1 2.61822 4.09542 12.5081 17
18 1 -10.3093 -4.77033 -15.4777 11
19 1 -15.445 -1.59335 11.3001 15
20 1 12.0601 -0.276019 4.83679 18
21 1 1.82433 9.3143 -14.1264 13
22 1 2.93166 5.90427 -16.6306 9
23 1 12.759 0.838032 12.488 14
24 1 -13.7075 0.810955 -6.75578 21
25 1 -4.47345 -5.3257 -6.65538 21
26 1 -11.8707 6.90415 8.60628 18
27 1 6.01937 -13.876 0.874959 18
28 1 0.955781 -14.2214 -7.63498 19
29 1 9.41217 -14.1619 -0.356045 11
30 1 -11.6618 -13.2716 -5.35634 14
31 1 -15.0624 -8.21025 11.8934 10
32 1 3.67481 -10.3626 -10.207 19
33 1 8.91771 -13.3598 -9.78193 13
34 1 -5.81822 5.09154 -14.8662 14
35 1 8.1603 2.79885 14.4067 20
36 1 -0.770269 -14.4558 8.83539 13
37 1 3.82762 -8.47221 9.98257 14
38 1 -14.9642 -1.19112 0.596186 21
39 1 -17.2367 0.586025 7.4171 14
40 1 -10.8959 0.546117 -1.94811 21
41 1 -4.56244 12.4639 -0.434876 21
42 1 -4.33133 -14.7511 -11.7096 15
43 1 -0.840814 2.60088 -10.2503 19
44 1 3.8759 -4.68044 -8.80275 21
45 1 -0.214194 -1.73905 13.2054 16
46 1 -12.3617 7.99956 1.18187 18
47 1 2.88522 10.1142 -8.93558 17
48 1 1.82959 14.4545 4.55449 14
49 1 -10.5127 4.44775 -10.0648 13
50 1 -2.57429 11.8594 -1.86865 17
51 1 1.82638 -13.9314 1.98715 17
52 1 5.04312 -7.7401 -3.30501 22
53 1 6.79094 -5.77522 -15.7036 10
54 1 -11.3276 6.20458 12.5047 11
55 1 -14.3945 -6.37026 -11.412 16
56 1 6.79137 -3.40495 4.32013 22
57 1 -8.60197 7.44633 -4.96661 21
58 1 -7.08355 -10.2053 6.38103 18
59 1 -7.16805 12.9526 8.51857 14
60 1 -14.6634 3.84547 -8.89338 7
61 1 -4.20581 9.63334 12.199 15
62 1 -10.5475 -14.5469 2.87013 15
63 1 2.13895 4.18357 6.18614 20
64 1 6.69596 -16.3573 -5.01233 12
65 1 8.07369 9.71255 13.7147 12
66 1 -14.1966 -1.24104 -9.52389 20
67 1 -12.601 1.41532 -9.64198 17
68 1 0.483845 7.24246 11.4597 17
69 1 12.6522 -3.07401 -8.68171 19
70 1 7.07754 -10.7435 1.99372 17
71 1 -17.4789 -0.363568 4.38893 14
72 1 5.66893 15.1337 3.60594 12
73 1 7.0129 -7.17662 9.45381 15
74 1 -13.6605 -14.0493 3.06838 9
75 1 -12.8364 -1.96076 -1.51896 23
76 1 10.648 2.3592 4.99965 22
77 1 -7.31447 11.0086 6.1162 17
78 1 4.95892 -2.33585 7.06128 23
79 1 -6.34003 -8.00992 -7.09219 22
80 1 -14.439 4.19594 11.5432 11
81 1 -8.85626 9.1608 -2.11957 20
82 1 -1.45981 6.29092 -9.30777 23
83 1 7.45771 -2.78216 -6.03795 22
84 1 9.92278 10.5654 -11.2277 12
85 1 8.33435 -6.11997 3.55663 20
86 1 2.32251 -12.1853 8.09782 17
87 1 -9.97086 12.56 -6.04254 11
88 1 -9.85861 6.5425 6.01695 18
89 1 -8.00927 -4.33854 14.5593 12
90 1 -4.36315 6.11654 4.23226 21
91 1 -6.74866 -9.08437 9.14969 18
92 1 14.3539 -5.59085 -4.01912 14
93 1 -9.61044 1.81097 6.25842 21
94 1 -10.5257 -17.6223 1.30306 14
95 1 9.40758 -5.66943 -7.10881 16
96 1 3.8288 -5.26295 -14.0144 17
97 1 -7.77787 -3.26098 -15.4736 16
98 1 -0.32482 10.1179 1.54071 21
99 1 -10.1556 6.23638 -7.53782 15
100 1 1.61331 5.5825 17.1854 10
101 1 -2.47745 11.924 -5.85652 23
102 1 -12.3013 10.2059 -1.51331 12
103 1 1.56384 9.00898 -0.874501 22
104 1 -6.74067 -8.44117 2.7313 21
105 1 13.2597 -0.341417 7.66379 13
106 1 -0.991213 -7.96087 -8.90644 23
107 1 2.90562 -5.81526 -11.5107 19
108 1 -4.77334 4.03831 6.42093 20
109 1 0.741456 -2.3958 16.9305 8
110 1 -12.8295 -7.85709 -2.26741 20
111 1 -8.07577 -7.48547 -4.46296 22
112 1 11.7608 -11.2968 0.101734 11
113 1 -2.49082 7.10564 1.97687 23
114 1 5.96952 2.27771 -15.5287 15
115 1 5.00836 17.5035 -5.32198 8
116 1 -12.5308 -11.8865 8.20418 11
117 1 -10.631 -14.1545 8.69447 11
118 1 7.85613 -9.64361 -13.3108 10
119 1 4.24099 2.75316 -6.22664 17
120 1 9.95457 -12.2083 -3.11116 14
121 1 -6.06834 -16.887 0.990093 17
122 1 -16.1145 -10.7592 -0.209575 6
123 1 14.6255 10.2569 6.27244 10
124 1 14.8423 -1.18477 -7.55222 15
125 1 -18.4823 -4.32459 3.31557 12
126 1 10.0329 7.18836 5.86372 20
127 1 17.4717 10.9407 -0.268519 13
128 1 -2.62817 -1.63691 11.846 18
129 1 -2.33717 9.21487 9.56983 19
130 1 -5.76487 9.40407 -1.91035 23
131 1 -2.54517 -10.1579 -9.83725 18
132 1 11.7655 -12.5538 -7.70291 9
133 1 -4.67869 12.2372 -9.16863 15
134 1 6.90862 -5.70985 12.7532 11
135 1 1.07733 0.842388 -18.7079 10
136 1 -1.95547 7.00077 -3.64152 23
137 1 10.9801 0.815215 -3.94848 20
138 1 -16.7447 0.52514 -4.74623 11
139 1 -8.20688 11.9552 -0.903087 16
140 1 9.61447 -2.67972 -8.44329 20
141 1 6.93502 -8.55797 4.44804 23
142 1 -7.35794 0.295773 -7.06929 22
143 1 -12.0778 8.93287 11.1175 10
144 1 11.2321 8.13985 -8.13035 16
145 1 6.12586 9.4518 -4.07836 16
146 1 -4.11602 14.3236 2.69371 17
147 1 11.5788 7.94908 -1.14828 22
148 1 -5.19775 12.7367 -3.94238 22
149 1 1.19293 13.7442 -9.18203 12
150 1 -0.557664 1.78682 -14.1267 20
151 1 -14.4654 -5.54222 3.59142 20
152 1 -14.1973 8.39157 -3.59106 9
153 1 -1.69335 -4.66102 -14.3867 19
154 1 3.18174 -10.0712 -14.0434 11
155 1 9.08859 12.9903 6.70102 14
156 1 -2.75984 15.5561 5.44569 10
157 1 -12.7274 -2.15423 -6.55059 25
158 1 -10.788 12.2323 -2.82174 11
159 1 14.5125 6.21874 -1.92135 21
160 1 -10.4072 0.592236 -14.6032 14
161 1 8.98132 -0.877921 16.7126 10
162 1 4.31469 16.4289 0.311148 7
163 1 2.01993 8.95211 7.9775 21
164 1 4.67996 -8.49906 -12.3125 21
165 1 -3.58598 10.0726 6.81911 18
166 1 -3.36921 9.65132 -4.3137 18
167 1 3.94141 -5.56664 12.4218 12
168 1 -15.4598 -8.23182 5.88398 15
169 1 -1.73231 -12.6584 -11.3787 16
170 1 -5.94307 9.85355 -10.2536 16
171 1 -5.22685 -11.4392 3.78969 16
172 1 4.07351 -15.0612 -5.3355 19
173 1 -1.9117 8.79759 -6.74606 22
174 1 -16.0876 1.85252 10.1726 15
175 1 9.60973 8.1582 -4.19915 18
176 1 -9.91987 3.45757 8.74689 18
177 1 -3.56253 -10.4475 6.53962 19
178 1 -12.2048 3.75131 -1.84987 21
179 1 -1.20926 12.5461 5.9573 16
180 1 0.525865 6.3595 7.42722 21
181 1 13.6329 3.59622 12.5015 11
182 1 -6.57772 13.873 5.03573 13
183 1 14.9354 -4.39661 -6.88025 14
184 1 -6.39891 9.54523 8.56068 18
185 1 -5.4307 1.26893 -10.2213 21
186 1 13.8939 -8.92436 0.707594 10
187 1 -9.45709 -8.329 3.20865 19
188 1 -18.0737 2.75685 4.62452 9
189 1 -12.7082 -8.38615 3.87321 20
190 1 10.872 4.52594 14.7968 14
191 1 -14.4209 1.87201 -3.20333 20
192 1 -7.8477 -13.3405 -0.243022 17
193 1 3.41889 -10.6163 -3.23972 21
194 1 -2.32731 8.7498 4.2556 21
195 1 6.55026 10.005 10.7518 17
196 1 -9.3172 -2.48121 -6.56907 23
197 1 -7.99677 12.8014 -8.82675 10
198 1 -15.4623 -6.55239 -8.43376 15
199 1 -10.2104 -4.2027 11.7827 17
200 1 -1.87773 -11.7251 4.30465 20
201 1 4.20128 -13.6562 6.02479 16
202 1 -12.4223 10.1181 3.52386 13
203 1 13.8604 6.83324 1.52113 20
204 1 5.43446 -0.274471 -6.59012 22
205 1 -8.01647 -9.59111 -12.0907 19
206 1 3.5151 -2.52 9.65386 17
207 1 3.77177 -16.6162 1.65696 14
208 1 -2.93585 8.45374 -11.1274 19
209 1 3.44489 -13.0795 -14.7493 7
210 1 5.54939 3.5261 -12.1794 21
211 1 3.05247 2.38058 -16.053 17
212 1 -11.3309 -5.06295 -6.91713 21
213 1 -6.20351 16.1237 -4.84861 11
214 1 -10.1846 -10.3322 13.557 9
215 1 7.78228 15.4227 -5.10032 12
216 1 -5.52364 0.635061 16.408 9
217 1 -7.38794 14.8901 -1.70223 14
218 1 10.2524 -0.590054 6.84561 23
219 1 -5.66121 -6.62237 -12.1183 22
220 1 -3.70729 6.01039 -6.55939 21
221 1 1.52718 0.695479 -14.4899 18
222 1 -9.79178 -13.3996 5.34572 15
223 1 -11.7728 1.50029 9.31617 18
224 1 -8.8938 8.06454 11.6939 12
225 1 4.71584 -12.0482 -12.2081 15
226 1 -7.72613 -18.8351 -2.00739 13
227 1 8.71961 -15.3862 -3.23249 10
228 1 9.29139 7.0751 14.7045 13
229 1 7.68827 12.8593 -11.1931 11
230 1 -5.36497 7.09042 -4.82954 23
231 1 -10.0519 3.56237 3.00379 23
232 1 -11.9812 6.85728 -5.07438 16
233 1 0.484502 2.8368 8.59234 19
234 1 1.58975 -18.9388 1.51632 11
235 1 9.18645 0.194654 -1.1174 18
236 1 2.30268 6.0877 4.06516 21
237 1 -12.4249 8.26922 5.17623 17
238 1 -18.9303 -5.60164 1.06 10
239 1 8.27482 4.2745 -13.8888 17
240 1 -0.569437 -7.0276 9.11874 20
241 1 12.6957 9.54042 -10.1515 10
242 1 1.87677 -11.7054 -0.691123 23
243 1 -2.33901 -0.872874 -11.9697 21
244 1 -5.16742 -21.4886 0.662891 5
245 1 10.9236 -3.29417 -6.04774 16
246 1 -8.23686 -1.06932 6.34063 20
247 1 3.80233 -18.4209 -4.42654 10
248 1 -11.5804 -9.8704 -11.9877 15
249 1 5.13701 12.7232 -4.40654 17
250 1 0.967368 -4.25353 -15.9901 19
251 1 4.76259 1.99706 13.5874 17
252 1 17.3214 5.66838 -0.60634 13
253 1 12.5662 -5.30868 -12.0193 11
254 1 -11.3096 -6.51687 -11.8517 19
255 1 -15.1591 -3.13452 -12.3312 15
256 1 -8.49472 -16.1842 6.7889 8
257 1 8.61675 1.14339 8.45325 19
258 1 3.6625 -5.15827 7.12186 22
259 1 -6.93193 -14.7634 -10.4166 14
260 1 -0.0266132 -10.5629 6.81398 14
261 1 -1.35209 4.51927 -13.0797 20
262 1 4.10782 6.63785 1.04263 18
263 1 -8.36545 -7.57082 0.574296 20
264 1 0.434981 11.7376 3.74914 19
265 1 -8.27618 -5.6246 9.28447 18
266 1 -14.1543 -8.61853 -13.4524 10
267 1 -6.0508 -8.88901 -9.69825 22
268 1 -3.62363 7.18819 -14.4497 15
269 1 -5.40276 -11.9366 -10.7555 22
270 1 -3.26511 -10.9654 1.51409 21
271 1 4.65345 -2.43856 -11.1782 19
272 1 14.5808 1.80478 -7.6407 16
273 1 15.2684 5.22731 4.20241 20
274 1 -12.773 -6.62676 10.8875 20
275 1 -8.23186 -13.2876 -4.89393 23
276 1 9.11079 1.87833 17.1322 12
277 1 -7.86348 -15.1129 2.22144 16
278 1 -1.55174 -13.756 0.569239 19
279 1 -0.358031 13.5221 -4.4762 18
280 1 10.0135 -2.08552 -14.5854 11
281 1 -4.04201 -3.18943 -15.577 17
282 1 -13.8801 -9.28146 8.80295 14
283 1 4.31772 5.47971 15.2107 15
284 1 2.23644 -12.1357 -6.2941 22
285 1 -6.19224 -12.6665 -13.2642 12
286 1 -8.89822 1.6121 -9.68375 21
287 1 12.1126 5.91603 3.73127 17
288 1 -4.79739 6.49054 -9.51399 20
289 1 1.06337 4.62799 -8.41275 20
290 1 4.72461 -14.7759 -10.5723 12
291 1 -7.89963 13.6077 -3.86597 15
292 1 2.81545 9.17683 2.11535 19
293 1 13.9998 -0.413458 2.01942 15
294 1 -11.2917 -5.50989 3.33781 22
295 1 -2.95378 -9.58499 9.4834 19
296 1 -7.96439 6.07882 3.35606 21
297 1 6.46627 -5.75932 -12.2437 20
298 1 15.4949 9.07405 -4.00906 19
299 1 3.62367 -14.5531 -0.641795 21
300 1 -0.173775 -3.17952 9.69122 18
301 1 -17.084 -2.39194 7.63569 14
302 1 -4.87818 -17.2503 -3.03999 17
303 1 -5.73948 6.71064 11.9182 15
304 1 -9.35008 -0.385935 16.1457 9
305 1 -17.9791 -0.997737 10.1547 10
306 1 -15.8297 -4.42918 8.88083 14
307 1 12.5078 -6.12522 -1.00403 20
308 1 -16.7049 -7.50843 8.90164 8
309 1 14.4043 -6.52577 -9.20418 10
310 1 8.95889 -8.30939 -7.71717 14
311 1 6.80884 15.4414 -9.66128 9
312 1 -10.6861 9.92198 -4.56555 16
313 1 9.3192 4.50621 9.61786 20
314 1 -11.0437 -1.28052 0.924262 21
315 1 10.4834 -9.77999 -4.75648 16
316 1 -3.86176 9.89717 1.5556 19
317 1 -7.97484 4.32115 5.92508 20
318 1 4.70807 -10.5682 5.6407 18
319 1 12.2253 -7.1548 2.6548 12
320 1 -2.8144 7.06058 6.55111 22
321 1 -9.58067 -8.31014 -2.00336 23
322 1 -5.45592 -1.12102 10.9013 17
323 1 -3.60629 11.8328 3.74138 18
324 1 8.78086 5.25138 17.9381 9
325 1 -7.25727 10.1361 -4.97697 22
326 1 1.23908 -5.2183 -18.6454 12
327 1 7.2293 -13.2063 -12.8861 9
328 1 -8.34141 1.67975 13.9959 17
329 1 -14.9825 1.10373 2.95123 20
330 1 -3.4007 -3.91128 -11.8499 19
331 1 -5.88228 6.90738 0.771932 22
332 1 9.6887 -3.32509 5.28374 22
333 1 -15.087 -8.71445 2.80543 20
334 1 8.27186 -10.8963 5.74077 16
335 1 -9.70766 -12.4918 11.3223 10
336 1 -14.855 7.4894 -1.00074 12
337 1 5.70308 -11.468 8.37249 12
338 1 3.97235 -12.4018 -8.65272 19
339 1 -4.52392 -2.05639 -9.6537 22
340 1 11.752 -2.24547 -11.3133 15
341 1 0.328727 16.1621 1.09287 7
342 1 -10.9514 -1.70402 -4.06691 23
343 1 9.87884 -5.08681 -10.0248 17
344 1 11.8465 4.00854 -13.1748 9
345 1 -9.66259 -13.4777 -8.34577 15
346 1 -13.419 -7.81599 -6.70147 16
347 1 -4.28009 -11.779 -2.03239 22
348 1 10.8706 1.27101 14.8135 16
349 1 9.38679 3.06836 -3.14999 22
350 1 -6.6712 3.93034 -10.5242 20
351 1 6.03782 15.2324 -2.82994 13
352 1 -15.4366 -4.35013 -6.24308 17
353 1 -11.7057 4.90466 6.54067 21
354 1 -8.92854 11.8592 3.86242 15
355 1 -6.52466 1.10692 6.09326 20
356 1 10.4077 -1.41779 12.9618 17
357 1 9.12002 -0.400298 -6.17676 19
358 1 2.05296 -4.12387 14.9324 10
359 1 12.0277 -0.147856 -7.24583 21
360 1 -10.5009 -15.7849 -5.47197 10
361 1 0.738404 -10.56 -3.70733 23
362 1 0.728204 7.05102 1.76768 24
363 1 -10.5327 0.297071 -6.82075 22
364 1 5.59542 -14.2155 -2.85601 20
365 1 12.3973 -3.1125 6.79934 12
366 1 -14.113 -3.9078 -8.94662 21
367 1 -9.6013 -10.1464 1.0433 21
368 1 -12.3745 -10.1602 10.9517 16
369 1 -2.75687 8.80381 -0.802255 18
370 1 -11.1582 -11.2589 -1.51284 20
371 1 6.72086 7.26128 16.0293 11
372 1 -10.2985 4.29373 -4.22451 20
373 1 0.346943 10.8749 -7.30623 22
374 1 6.3255 11.6791 4.96291 19
375 1 -12.917 -10.066 -4.56551 14
376 1 0.742747 -10.877 -8.83317 22
377 1 -14.6667 -0.9775 5.61362 17
378 1 -15.4525 5.44605 -3.41201 11
379 1 3.20603 -8.79522 3.74051 17
380 1 -3.89265 -15.5257 -0.560771 16
381 1 11.1835 14.0555 4.32534 10
382 1 4.92926 8.47019 -14.9287 12
383 1 -13.022 -0.192464 -12.6548 14
384 1 -5.25281 15.2075 -7.88686 11
385 1 -8.55761 3.33819 -7.1077 22
386 1 -4.03471 -14.7435 4.87641 18
387 1 13.8434 2.44586 5.61051 17
388 1 0.1101 6.8207 -14.7289 14
389 1 -3.63681 -2.55355 8.60038 21
390 1 -15.8691 2.00475 0.0209626 14
391 1 -6.48673 3.66832 9.2083 17
392 1 -6.21209 -12.9586 6.01013 18
393 1 2.56177 -7.96573 -9.00236 21
394 1 -11.9647 0.443451 3.51869 21
395 1 -12.7949 -4.30751 12.6523 15
396 1 -17.1933 3.98503 8.64217 6
397 1 -2.09855 -7.65384 6.50905 19
398 1 -9.9005 -1.75757 -16.6506 12
399 1 12.3831 -6.21427 -7.09239 17
400 1 -1.76375 -10.4074 -13.1019 17
401 1 -3.15348 -6.06262 9.95121 18
402 1 -6.37196 -0.248973 -15.5997 17
403 1 5.33103 -15.7109 3.89288 10
404 1 2.42957 8.4997 -6.47216 16
405 1 -13.0179 9.65442 8.33216 10
406 1 -6.99689 -6.01322 12.7383 13
407 1 -11.6888 -7.59554 -14.3295 12
408 1 -10.0095 -8.06983 9.38934 16
409 1 8.71216 -4.48411 11.119 16
410 1 1.61563 1.26398 -8.9994 19
411 1 9.82551 -11.7288 2.68028 12
412 1 14.8248 10.011 -7.21381 11
413 1 -3.71562 -1.43397 14.3543 12
414 1 0.892713 12.0508 -1.68436 17
415 1 7.38052 -5.43938 6.4858 20
416 1 -1.96548 -14.9517 -6.21182 18
417 1 0.200783 0.76111 14.7078 15
418 1 -4.61462 12.9509 6.56616 16
419 1 -12.2415 -12.3041 -9.96801 11
420 1 12.3925 12.6705 -1.1538 15
421 1 4.05212 6.38691 6.95641 21
422 1 -10.9579 1.29839 11.3938 18
423 1 -9.97969 -10.0823 -4.41456 21
424 1 -14.3592 -0.390538 8.84459 25
425 1 -9.87328 -9.70734 -9.95054 20
426 1 -6.53918 7.4004 6.33104 16
427 1 -1.38746 -11.7371 -6.77441 21
428 1 -2.02175 -9.4915 -16.0219 11
429 1 -3.86813 -19.5862 -2.06788 10
430 1 -7.94188 -5.22382 3.54674 22
431 1 8.82016 -0.0858728 4.23241 21
432 1 -5.12679 -7.80877 11.4409 14
433 1 -6.23089 8.02586 -13.2637 12
434 1 7.48396 2.92319 -0.426412 21
435 1 -6.48134 -14.1802 -3.27415 24
436 1 4.15781 13.7036 -1.2768 15
437 1 -2.92874 1.86225 -12.0207 21
438 1 -1.48731 5.82914 16.1973 13
439 1 -14.7741 -6.82782 -4.32106 14
440 1 1.82375 15.8947 -5.81636 10
441 1 6.05607 10.5371 -9.74479 13
442 1 -8.34062 -6.89185 -9.94443 23
443 1 4.5907 -2.32739 16.1764 11
444 1 -1.27661 -17.5417 -7.83495 9
445 1 -2.14249 -4.63245 -9.14004 21
446 1 6.75484 -16.5737 0.408593 13
447 1 -10.5364 10.5982 1.00662 15
448 1 5.58624 5.58303 12.4747 15
449 1 9.01816 5.92778 -1.74035 20
450 1 4.55745 8.75412 -1.19915 21
451 1 -8.21242 9.68667 -8.46005 13
452 1 0.403105 0.00778642 -11.6786 22
453 1 0.176271 -11.0721 1.52795 20
454 1 -14.2035 -6.53164 0.341031 20
455 1 2.93207 16.6185 2.67111 8
456 1 -6.06246 2.49282 -13.8311 21
457 1 12.8958 5.32532 -7.4955 16
458 1 4.51468 13.3351 -9.95563 16
459 1 8.56274 -7.52562 1.06005 19
460 1 12.7684 3.07539 -2.85852 20
461 1 -0.992538 0.834879 -16.9564 15
462 1 0.624574 -16.104 0.717626 19
463 1 -3.83333 -15.3158 8.01867 9
464 1 0.288746 -10.1057 10.1703 16
465 1 -7.60914 -1.9776 -9.4117 24
466 1 -12.9707 -14.4246 6.00441 10
467 1 -2.91698 -7.64185 -14.273 18
468 1 7.68593 15.1976 6.48568 8
469 1 -2.75006 3.96309 -9.1482 21
470 1 4.9463 -2.729 12.7769 16
471 1 -12.0692 -1.68123 11.1492 21
472 1 -1.4038 -17.1194 -2.03723 17
473 1 -13.3344 -3.90293 0.667593 21
474 1 12.0732 -1.99954 -2.92827 15
475 1 8.76083 -2.09442 -3.45542 21
476 1 -7.0653 5.87689 -7.47602 22
477 1 0.832042 -8.978 -6.1249 22
478 1 4.31114 4.8885 -10.265 21
479 1 10.8831 -5.15085 -3.84834 17
480 1 -6.79947 -1.62656 15.1078 14
481 1 9.74092 10.5243 -2.50432 17
482 1 -2.08103 -4.29726 -17.3724 18
483 1 4.42275 -0.342603 -17.7574 10
484 1 -6.75222 -4.3718 6.50628 21
485 1 -5.3115 16.4114 0.319196 7
486 1 -5.79958 -5.59771 -14.6546 15
487 1 -18.1714 -1.83046 0.927336 11
488 1 0.230383 -12.4931 -13.6127 11
489 1 -9.11991 -11.5169 8.17671 17
490 1 -0.486265 6.10018 -6.20683 21
491 1 14.4504 1.52269 10.2442 11
492 1 16.3699 7.3645 -6.27254 12
493 1 -13.1778 -9.96223 -0.404816 17
494 1 -1.37555 -11.762 -1.40523 20
495 1 -0.520388 -7.02605 -16.7855 17
496 1 -7.25333 11.2596 10.3254 15
497 1 0.885561 -5.12147 -8.89286 22
498 1 10.7479 -2.81153 -0.603577 20
499 1 3.78517 14.9679 -7.53126 13
500 1 5.39996 -7.8698 1.5425 21
501 1 14.0598 7.53453 -9.21088 14
502 1 2.7996 8.57131 14.9331 14
503 1 -10.0563 -4.51646 6.0286 18
504 1 6.34209 7.71258 5.37385 16
505 1 7.08082 -0.668606 13.6181 17
506 1 4.76842 0.275884 -13.6224 19
507 1 -6.09451 -10.4046 -4.60952 21
508 1 -2.32989 0.194765 10.0352 20
509 1 9.78524 9.98328 6.59592 16
510 1 8.4678 8.31813 -7.25376 14
511 1 -2.85725 10.4896 -9.1587 18
512 1 2.7556 9.63431 -3.67747 20
513 1 10.6094 -3.12374 9.09397 16
514 1 10.9281 1.02049 -11.901 16
515 1 13.7093 -8.51788 -4.56627 16
516 1 12.8504 9.82035 9.1087 14
517 1 -18.1157 -7.45733 3.77151 10
518 1 -8.27512 6.59285 -10.4802 14
519 1 -2.92981 3.15472 8.94382 20
520 1 -13.7535 0.694185 12.2214 17
521 1 -4.10258 10.5539 -12.3187 11
522 1 1.23452 -18.029 -2.91487 14
523 1 6.73158 -1.05258 -9.29146 23
524 1 -3.1957 15.0769 -5.5848 14
525 1 -6.78272 -8.24339 -14.8113 12
526 1 -0.0943406 -17.9251 3.37292 16
527 1 -16.0164 -0.72838 -1.81455 12
528 1 3.81102 9.02232 -11.6659 19
529 1 -3.33458 9.27243 14.8159 11
530 1 -15.4632 -5.00618 12.0702 11
531 1 6.11366 5.94554 -1.15475 19
532 1 6.49714 -10.5184 -8.25947 18
533 1 1.42194 -7.54113 12.1275 11
534 1 -11.0672 4.70466 0.533596 19
535 1 5.80499 0.592806 16.5273 16
536 1 6.36786 13.4351 -7.37522 15
537 1 9.36305 -7.93922 -2.60714 19
538 1 5.20559 9.43448 7.68968 21
539 1 0.528644 3.70712 -16.5477 13
540 1 -5.50806 -11.3871 9.2513 15
541 1 -0.723121 -1.8129 -9.47689 18
542 1 7.84601 -0.208873 -15.5783 12
543 1 3.35363 11.3088 6.71163 17
544 1 7.89159 4.33428 -10.734 17
545 1 -0.266066 -5.5723 -11.7208 18
546 1 -4.49403 -13.3758 -4.94634 20
547 1 -8.89073 -5.84719 -13.2702 17
548 1 10.7744 2.58614 -0.450651 23
549 1 13.9651 3.60275 0.0433993 18
550 1 6.88494 -4.87804 -9.50683 21
551 1 13.358 5.9855 9.71995 15
552 1 7.42958 -10.8861 -3.20111 18
553 1 3.40634 6.10235 -12.9518 24
554 1 8.91508 12.3908 3.34617 16
555 1 -9.72335 1.67978 0.733651 21
556 1 11.2076 9.38082 11.892 11
557 1 14.9502 4.24311 -5.34153 21
558 1 10.9114 0.514022 1.65278 21
559 1 7.68326 2.63922 -5.93537 18
560 1 8.72016 1.06141 11.4741 21
561 1 16.303 6.98531 6.77565 10
562 1 5.25159 -7.80898 7.31115 20
563 1 12.8524 13.0973 -7.13491 9
564 1 0.451809 1.6832 11.9823 21
565 1 13.7728 1.06367 -4.90807 19
566 1 5.70672 0.178348 9.53327 21
567 1 -5.94273 -5.04689 -9.49041 21
568 1 11.3548 5.63926 -3.43677 20
569 1 10.285 -4.95852 1.87865 23
570 1 -7.8695 4.90453 12.6944 12
571 1 8.40134 7.10193 7.46349 18
572 1 8.26419 6.95509 11.2803 21
573 1 4.07453 9.39307 4.65728 17
574 1 -1.84975 5.91195 9.21899 21
575 1 6.98426 -0.0621362 6.64053 20
576 1 -1.96829 -18.9692 0.085648 13
577 1 -3.6455 14.807 -2.00244 13
578 1 11.0156 12.5842 -9.71469 10
579 1 6.48959 -2.93579 -14.4888 19
580 1 2.4535 14.7205 -3.26674 13
581 1 -1.6605 -14.8893 -9.42783 14
582 1 8.04664 -7.54796 -10.8753 23
583 1 -12.8766 1.83421 6.32237 20
584 1 -6.20094 12.8687 -6.41359 20
585 1 -0.123401 -20.2951 4.42337 6
586 1 -7.80252 0.117267 -12.3075 16
587 1 -14.4536 -1.72638 -4.29426 20
588 1 13.0158 -11.0801 3.13641 8
589 1 14.7175 8.70867 -0.522717 21
590 1 -1.50784 -7.82887 11.9042 12
591 1 -16.6735 -4.13818 -9.61652 12
592 1 3.14768 -7.23506 -16.5395 12
593 1 -5.52335 0.756719 9.04216 19
594 1 6.35426 6.60712 -12.3849 23
595 1 11.5546 -0.207449 9.81454 18
596 1 1.02871 4.92258 -11.5042 19
597 1 15.1636 13.751 0.0393077 10
598 1 6.28654 -14.0289 -7.62768 16
599 1 -14.1922 -2.37725 14.1532 12
600 1 14.2752 -2.33741 -0.0746921 15
601 1 -6.34166 11.3676 13.2094 9
602 1 7.26997 9.88059 -12.9115 14
603 1 -13.8484 4.6763 -5.4047 13
604 1 11.9873 13.0905 1.74296 14
605 1 -9.67315 -14.1953 -2.43174 22
606 1 13.7045 -4.45462 1.8505 14
607 1 9.52153 11.4663 0.736083 15
608 1 -2.41677 7.16771 12.9511 22
609 1 -11.4802 -7.28704 0.793373 24
610 1 -9.50092 -4.43701 -10.1595 22
611 1 8.40076 3.78643 6.48528 17
612 1 -1.4949 -12.4423 11.307 11
613 1 5.9908 6.21046 9.23206 17
614 1 -6.82623 10.0329 1.29213 21
615 1 8.78496 5.60362 3.91692 23
616 1 7.04987 2.39083 4.75449 22
617 1 2.97975 -2.47553 -18.7976 12
618 1 -11.7571 -1.38038 6.18592 19
619 1 10.5373 1.45188 -15.1354 9
620 1 11.6276 -11.0145 -10.1836 8
621 1 12.0823 4.52024 6.45022 19
622 1 5.62005 3.09554 7.59651 19
623 1 -10.5706 -2.17794 14.2204 16
624 1 14.9724 4.01466 7.86697 13
625 1 -2.11602 1.19218 12.7367 18
626 1 0.485932 7.11423 14.8232 16
627 1 0.557083 -8.58855 -11.1859 19
628 1 -5.36309 3.03558 13.7888 12
629 1 2.5527 -0.358933 11.7711 17
630 1 -8.98721 -17.675 3.43164 14
631 1 13.4868 7.32944 -5.30485 18
632 1 5.3887 -11.7554 -5.70469 20
633 1 4.41188 6.62359 -4.2523 19
634 1 12.0221 12.2193 7.3316 12
635 1 6.37386 -2.74572 -17.72 9
636 1 6.35152 12.5987 1.33149 16
637 1 17.8078 8.32466 -2.07256 14
638 1 -11.0653 -14.9582 -0.406734 14
639 1 0.0515684 -2.1815 -18.0731 16
640 1 -9.02132 7.52671 0.808838 21
641 1 7.71711 -1.89728 -11.6751 18
642 1 10.0404 5.78059 -6.93799 19
643 1 12.5934 10.2713 0.686393 20
644 1 -7.52826 4.06119 0.80329 18
645 1 5.93869 3.96972 -3.26869 19
646 1 10.7845 2.88157 12.1435 20
647 1 9.42721 -4.10229 14.9213 8
648 1 1.64851 -13.4431 10.5773 9
649 1 -9.50549 3.41405 -14.8305 10
650 1 3.78502 11.3828 9.79006 17
651 1 10.6416 -7.97567 -12.5134 13
652 1 3.63911 2.30664 10.0828 19
653 1 9.37516 14.3293 -7.37074 16
654 1 3.93442 11.2732 0.153818 17
655 1 16.6463 -6.64944 -4.13471 9
656 1 6.32977 3.7768 16.973 15
657 1 -13.0265 -2.29526 3.40085 21
658 1 2.36291 -13.727 -3.74897 19
659 1 1.63042 -2.96475 -11.3141 18
660 1 -9.17094 9.19429 3.40916 19
661 1 3.85049 12.3482 3.32488 17
662 1 -16.614 -4.03761 0.367458 17
663 1 -2.81908 2.91897 15.5552 12
664 1 -4.0276 5.37979 -12.1681 22
665 1 -7.92077 4.59303 -12.7487 16
666 1 1.03743 -15.7398 -5.24156 19
667 1 7.60805 6.29379 -4.65913 18
668 1 -12.2502 0.383342 14.4736 12
669 1 2.71981 -2.29603 -13.8765 17
670 1 2.36991 -15.6579 8.01196 9
671 1 1.59112 12.7812 1.09297 17
672 1 -4.92722 -4.02553 12.1439 14
673 1 -8.79599 -12.2782 -11.0848 15
674 1 -3.07968 -13.7699 -14.5706 9
675 1 -5.46137 -17.3746 -9.70881 10
676 1 -1.77656 13.5974 -7.90779 15
677 1 5.67947 -6.21096 -6.43039 20
678 1 -4.20575 11.4328 9.86828 16
679 1 3.56714 -9.01727 -6.10953 21
680 1 4.13867 -18.6258 -0.688533 10
681 1 1.84007 -8.20271 7.24871 17
682 1 17.0798 1.42452 -5.70816 14
683 1 -1.53861 -18.0165 -5.22993 12
684 1 -13.7185 -4.61015 6.10761 18
685 1 -7.74837 -16.7628 -4.45964 17
686 1 -7.86011 -10.9374 -7.8145 22
687 1 -12.3442 -3.57846 8.71866 16
688 1 -10.5191 -18.0138 -1.92068 11
689 1 17.6092 4.4245 -7.45212 7
690 1 -0.877353 15.0735 3.25914 12
691 1 -14.4225 6.65043 7.18596 13
692 1 8.8023 -2.24314 2.13929 21
693 1 -13.9327 -5.03998 -14.2618 14
694 1 -0.22279 10.2691 -3.8784 19
695 1 13.4236 0.211913 -10.4134 11
696 1 9.41576 10.9139 9.57942 15
697 1 6.60785 2.10888 -8.81239 19
698 1 -16.1315 -1.82 -7.24047 13
699 1 -11.3163 -7.27626 -4.39432 22
700 1 3.21121 2.89055 16.8627 12
701 1 7.14285 5.28313 -7.74549 17
702 1 13.4072 7.008 7.25945 20
703 1 1.63278 -0.126576 9.43232 18
704 1 -7.13185 -15.2467 -6.91312 16
705 1 -7.95054 -19.4235 0.837839 14
706 1 -5.62262 -4.62372 9.60262 17
707 1 10.7055 7.8414 9.37919 18
708 1 7.23643 -8.50973 -5.09391 19
709 1 -7.2357 6.35375 -2.10267 23
710 1 7.68121 6.65783 1.66043 18
711 1 -10.0887 -4.66082 0.893283 23
712 1 9.8744 7.42274 -13.5165 12
713 1 -5.04507 -17.3752 -6.56914 14
714 1 -2.98457 -17.8938 5.36781 12
715 1 -2.61216 -15.9458 2.04162 17
716 1 4.62906 0.811178 -10.2905 17
717 1 7.56679 12.1541 -4.7985 16
718 1 -3.34663 0.0576404 -15.2275 19
719 1 -0.494629 4.33973 12.2491 18
720 1 -2.7298 3.85227 -15.6953 13
721 1 -12.5326 -2.54004 -14.6657 12
722 1 -12.8609 -4.32216 -4.30843 22
723 1 2.97813 12.3359 -6.29973 19
724 1 -3.94442 -6.63999 -16.792 15
725 1 -7.91237 -10.948 -2.14848 19
726 1 8.62172 7.42536 -10.1391 19
727 1 12.6706 -10.0137 -2.30647 14
728 1 -3.87032 4.41252 11.757 18
729 1 3.65222 -11.1867 1.76969 17
730 1 15.3909 -5.24518 -0.756783 12
731 1 11.657 -5.99172 9.2599 9
732 1 0.389628 8.85342 4.50074 22
733 1 -8.66052 -1.24376 12.277 19
734 1 -11.282 3.60302 12.5273 14
735 1 -7.70557 -20.9807 3.2951 8
736 1 9.20963 3.13855 2.54548 23
737 1 1.65799 10.0295 12.33 14
738 1 -14.6552 -4.87527 -2.36056 20
739 1 7.01961 -8.85521 -0.937361 18
740 1 -11.6946 9.21967 -6.89251 9
741 1 -5.40964 -20.5886 6.10167 5
742 1 8.57356 -1.55599 10.2155 20
743 1 -0.372985 9.90581 6.71237 20
744 1 -0.561081 -14.3298 3.69742 20
745 1 -9.40387 -4.97312 -4.37912 22
746 1 1.77067 5.86384 9.57333 17
747 1 -17.4742 -7.31831 -1.8997 9
748 1 -0.225917 9.52472 15.3699 11
749 1 6.88466 11.6129 -1.6874 18
750 1 -12.6898 -12.8445 0.530992 11
751 1 -6.36052 -17.9261 4.50958 14
752 1 8.78325 -9.73131 8.49508 8
753 1 10.3882 -9.23788 4.69491 15
754 1 8.0928 8.86609 3.51004 15
755 1 -2.53602 -8.80846 -6.81427 20
756 1 -5.3489 -1.0215 -13.0168 20
757 1 -7.87189 1.23869 10.9871 17
758 1 -1.76942 12.9529 0.791196 19
759 1 12.4549 3.01833 2.72279 21
760 1 3.8662 5.56112 -7.25906 15
761 1 -4.40189 5.74028 14.6298 14
762 1 3.92175 8.27706 10.4159 21
763 1 7.22535 0.843356 -12.4481 20
764 1 -11.81 -10.6681 2.3567 20
765 1 16.0673 2.40367 2.89857 12
766 1 3.53028 -1.74541 -8.80325 20
767 1 6.77504 3.53095 10.1963 19
768 1 8.99675 -11.6179 -6.21451 17
769 1 5.13793 5.01219 -15.2185 15
770 1 -2.93243 -10.666 -4.28589 21
771 1 11.9139 6.2416 -11.4062 11
772 1 16.7181 -2.03112 -1.62192 9
773 1 -0.771883 -4.541 12.6369 11
774 1 -4.3556 -9.73945 -12.8062 21
775 1 10.2223 8.00361 2.03682 19
776 1 -15.1456 4.13496 5.11795 15
777 1 11.9249 3.10835 -6.04613 17
778 1 16.9765 8.10515 1.14438 15
779 1 6.09226 -7.7544 -9.14799 21
780 1 -9.52586 10.1972 9.16188 18
781 1 12.8699 11.3544 4.35502 11
782 1 11.1726 13.8346 -3.91064 12
783 1 2.8535 2.60575 -12.4552 19
784 1 8.95019 -5.63188 -1.04762 21
785 1 -12.9741 1.11852 0.238527 21
786 1 10.7647 5.17278 0.454357 21
787 1 -17.3221 -8.37615 0.956189 12
788 1 -5.50968 8.98521 -7.13033 19
789 1 3.55953 0.641294 6.66259 20
790 1 -10.9674 -1.60857 -9.5505 21
791 1 -13.2883 3.69942 3.254 22
792 1 -5.37139 3.15322 -7.53783 22
793 1 13.0085 -9.52867 -7.32676 11
794 1 -12.1206 -7.18311 -9.54365 22
795 1 15.5894 -8.86711 -2.20196 9
796 1 -14.0744 4.85065 0.20034 19
797 1 -11.8412 -10.6437 -7.69394 21
798 1 15.1022 8.00321 4.42567 15
799 1 -8.7168 -11.4219 3.98971 18
800 1 11.672 -1.26503 15.1873 9
801 1 11.9252 -6.72169 6.01476 13
802 1 11.8214 -2.40466 2.86298 16
803 1 -14.4214 6.83828 3.41492 16
804 1 0.588703 11.3713 9.40167 14
805 1 5.50347 7.73236 -9.35674 18
806 1 0.27289 -7.67594 -13.8834 15
807 1 -5.61131 9.29496 4.11137 15
808 1 -10.7889 -9.59256 5.91118 19
809 1 8.03959 8.93842 -0.547119 15
810 1 -1.30972 10.97 12.366 13
811 1 17.791 0.537796 -2.83757 10
812 1 9.59239 -7.66798 7.03189 16
813 1 -0.745469 10.5652 -13.403 9
814 1 2.20412 7.14416 -10.0239 23
815 1 -7.17741 -2.17914 9.09862 17
816 1 17.7415 5.69744 3.04387 8
817 1 -3.67499 -6.91878 -10.4865 18
818 1 15.1736 11.3078 -1.90542 17
819 1 -17.4852 4.91337 -1.04252 7
820 1 -5.18545 -7.36589 5.94485 17
821 1 1.95268 11.7882 -11.6287 11
822 1 5.87089 -4.04813 10.052 19
823 1 0.300313 -14.8293 -1.79142 21
824 1 -7.1833 13.6017 1.66332 15
825 1 -16.489 4.13135 2.20259 12
826 1 16.029 -1.56222 -5.11021 11
827 1 1.71497 -12.7074 -10.9238 16
828 1 -11.6046 6.46402 3.20897 21
829 1 12.6094 10.0362 -2.93615 17
830 1 -9.70992 -2.43253 3.36635 21
831 1 8.88796 -4.9083 -12.7902 17
832 1 -9.8035 -8.14382 -6.99955 22
833 1 -0.752464 -12.9788 -4.53562 23
834 1 -9.05785 13.1601 12.1461 5
835 1 5.09808 -17.1344 -2.64892 14
836 1 0.0546719 7.57006 -12.2489 20
837 1 16.1087 3.35154 -2.676 15
838 1 5.75837 3.68884 1.61015 20
839 1 -2.671 -14.4065 -2.84914 18
840 1 4.07921 -4.28004 -16.9344 17
841 1 12.6887 0.0108892 -1.25451 17
842 1 -5.92618 3.2042 -17.1545 8
843 1 -2.70417 -12.4059 7.63044 19
844 1 9.85521 11.2939 -6.83467 15
845 1 10.4446 3.18833 -9.14334 15
846 1 -8.99849 1.23983 -4.4088 22
847 1 -14.1821 3.92954 8.57407 18
848 1 2.99505 0.01136 15.5336 16
849 1 -8.27866 -7.21274 6.50962 18
850 1 5.53616 5.70187 3.76398 18
851 1 -0.592707 -15.938 6.22411 17
852 1 1.27634 7.06984 -3.85153 19
853 1 -5.13888 6.46103 8.82818 18
854 1 -10.2749 -1.30687 9.01294 17
855 1 -11.0284 11.3931 6.60924 12
856 1 7.37429 0.624671 -3.9797 21
857 1 -7.60923 -9.68315 11.6365 14
858 1 1.6066 -11.7959 4.33501 18
859 1 11.134 6.10886 11.8467 18
860 1 7.15624 -5.18795 -3.66642 20
861 1 6.87607 -10.2575 -10.9563 17
862 1 -6.76049 -3.89733 -11.9722 22
863 1 -2.40892 -1.17464 -18.7489 7
864 1 6.63264 12.7401 9.06334 12
865 1 -12.6313 -7.7498 13.4819 11
866 1 -6.96619 4.42561 -4.7329 22
867 1 -12.0338 1.65632 -4.60619 20
868 1 13.2754 12.0283 -4.7929 14
869 1 -8.25357 -16.2777 -1.03491 21
870 1 -0.962063 5.84761 4.43608 24
871 1 14.7168 10.4934 2.07236 17
872 1 -13.8902 -9.39345 -9.86632 15