ITEM: TIMESTEP
4000
ITEM: NUMBER OF ATOMS
500
ITEM: BOX BOUNDS pp pp pp
-30.0 30.0
-30.0 30.0
-30.0 30.0
ITEM: ATOMS id type x y z Coordination
1 1 -3.7369 1.68537 -5.8257 20
2 1 6.02335 -4.07849 4.68609 16
3 1 0.656079 4.06769 8.82428 13
4 1 6.37138 0.130898 1.90995 19
5 1 -9.29151 -3.71673 1.10783 12
6 1 -2.79165 -1.12974 -5.8803 19
7 1 1.20761 -1.15054 9.74598 17
8 1 1.07064 -5.50175 -5.71858 17
9 1 -9.4353 2.7213 -1.3582 15
10 1 1.73764 0.964404 -8.87061 16
11 1 2.72089 -10.1521 -6.88531 7
12 1 6.00549 -1.7848 7.15106 16
13 1 1.54055 6.45861 -3.00111 18
14 1 2.13371 4.70239 4.77053 19
15 1 1.40863 6.50176 7.3319 15
16 1 -7.75714 -2.73936 3.67086 16
17 1 -11.2344 -3.2116 -1.21018 8
18 1 8.94073 -1.6162 -0.574847 18
19 1 6.70677 3.225 8.6756 6
20 1 -7.13046 -6.27326 1.43069 12
21 1 -4.49818 -5.67666 -7.39894 14
22 1 5.29597 2.37546 -4.00084 19
23 1 5.15955 -1.40062 -5.74703 14
24 1 6.77183 -9.22603 2.71769 12
25 1 -4.81457 8.07215 2.45615 14
26 1 4.77654 -1.0328 4.19211 19
27 1 -0.43168 10.5483 -0.606897 11
28 1 -1.01367 -5.62763 -8.74004 15
29 1 -3.74624 4.90862 7.25274 17
30 1 3.2681 -3.98752 4.6233 20
31 1 -4.9 6.84703 -1.33618 14
32 1 -5.69736 5.35112 3.12371 19
33 1 2.05442 6.88698 -6.72935 20
34 1 6.15573 4.09153 -0.76674 17
35 1 -2.58742 8.39068 -5.85001 13
36 1 -4.68175 3.55162 -8.2635 19
37 1 -2.69408 9.49914 -3.24328 10
38 1 2.42198 9.5284 -1.728 14
39 1 -11.5635 2.4825 0.306602 11
40 1 -1.07358 7.16829 7.72345 15
41 1 -2.50749 4.80926 -6.16674 23
42 1 -6.14453 -2.99214 6.67126 15
43 1 -6.06034 -2.47789 -3.01974 14
44 1 4.88161 -9.64668 -3.91968 9
45 1 -8.49165 0.471935 4.4244 14
46 1 -8.57864 0.23824 -3.24736 14
47 1 -1.1485 -10.6119 4.44584 12
48 1 6.46988 3.64233 -6.30906 14
49 1 -7.64937 -7.11898 -6.78087 8
50 1 2.4673 7.1748 -9.79054 9
51 1 -1.76983 2.05334 8.04271 14
52 1 1.22167 -6.27823 -1.67592 17
53 1 0.331434 7.63627 -0.924399 19
54 1 -11.5178 0.817169 3.03643 11
55 1 -1.3495 9.47825 6.71847 13
56 1 4.13304 -2.09834 10.1615 10
57 1 2.04851 -9.43977 -2.74433 15
58 1 7.88924 -2.80452 -5.59145 11
59 1 -4.12459 -8.14317 1.04677 18
60 1 -1.26045 -8.85381 1.65452 19
61 1 3.62815 -0.324543 7.26457 17
62 1 2.787 -7.18939 5.34611 13
63 1 4.50169 8.55355 2.12787 14
64 1 -4.99671 -6.26753 4.16342 14
65 1 -3.28074 -11.2226 1.66863 11
66 1 -0.209053 -3.91987 4.38074 21
67 1 -3.20471 -6.01051 -3.16295 21
68 1 3.93652 5.10658 -5.62956 17
69 1 4.41341 -6.57045 -2.19894 18
70 1 -3.71465 -3.23057 4.87848 18
71 1 -10.0113 3.24845 4.08898 12
72 1 0.88651 -11.2481 0.102692 12
73 1 -2.51994 -5.82606 3.2805 17
74 1 3.74267 2.21238 10.0983 11
75 1 -10.8847 -2.40475 2.70734 10
76 1 -2.70523 8.00615 -0.264505 20
77 1 -8.43659 6.1232 3.7307 9
78 1 -4.29518 7.98262 6.4862 12
79 1 -6.80484 -5.58546 -4.06047 15
80 1 -7.63589 3.53204 -3.91643 16
81 1 -4.36808 -3.46221 -4.79463 22
82 1 8.93861 2.05052 6.13207 11
83 1 -0.428026 -3.94766 9.98791 17
84 1 -6.73502 -3.56957 -6.69639 13
85 1 -11.669 0.411441 -2.38837 12
86 1 -2.38369 -9.06173 -2.09038 18
87 1 -6.77675 5.20021 6.45993 13
88 1 3.37413 3.44175 7.20618 14
89 1 -3.64103 5.58177 1.37344 23
90 1 0.471379 -8.01205 -7.25225 17
91 1 -0.148381 10.3916 4.50906 16
92 1 8.1212 2.21995 -2.96383 17
93 1 -10.2896 1.34601 -5.62661 8
94 1 -7.94685 6.66906 -5.33437 7
95 1 -5.41095 -10.5151 -3.45617 12
96 1 4.46948 -9.83913 4.77241 9
97 1 -7.29503 5.12639 -8.37055 8
98 1 -3.79265 -0.781286 7.12109 18
99 1 -7.78119 2.22509 6.87231 9
100 1 1.95795 -5.32493 -8.89556 12
101 1 -1.45169 -3.13285 7.46458 20
102 1 -1.78576 -6.51897 8.95678 11
103 1 3.08691 -7.5562 -4.79218 20
104 1 10.7287 2.89114 2.8447 8
105 1 -6.5559 2.91822 4.52236 22
106 1 4.7 0.930068 -7.57324 16
107 1 -0.222713 5.80709 1.70011 20
108 1 6.23377 -7.71674 5.42914 9
109 1 -2.6657 -8.52831 -5.23702 14
110 1 -7.05774 -0.322205 1.59019 16
111 1 8.24883 4.43906 5.94275 11
112 1 8.55285 5.40995 1.23015 11
113 1 1.05095 4.01601 -10.5029 9
114 1 -0.867938 6.91742 -8.86913 18
115 1 1.7915 10.4751 1.56759 11
116 1 3.53033 4.10353 -8.58707 15
117 1 1.78902 -10.263 2.71982 12
118 1 6.07475 -5.88484 2.64904 19
119 1 -0.32387 -11.6429 -2.96041 9
120 1 -6.82257 2.31661 -6.25044 15
121 1 11.9223 -2.3269 -0.736729 8
122 1 0.285057 4.82734 -5.63972 19
123 1 -4.44441 6.94114 -7.84538 14
124 1 1.33746 -8.41408 -9.87094 6
125 1 1.63668 -8.30348 0.243905 17
126 1 -5.73554 -8.24118 6.70206 8
127 1 -3.1999 -11.944 -1.52331 11
128 1 0.800582 -2.304 -9.0949 11
129 1 4.06357 6.72565 -0.860318 18
130 1 4.17218 -10.851 1.39687 10
131 1 8.02009 -4.01299 -3.03909 18
132 1 -6.74901 -3.03015 0.198049 16
133 1 -5.37714 -7.90432 -4.64703 16
134 1 2.08676 -3.89572 12.427 9
135 1 0.684005 1.4185 10.124 11
136 1 4.05148 -1.80496 -8.4605 11
137 1 -5.12412 2.87364 -3.04941 20
138 1 5.33108 8.9838 -2.91303 9
139 1 5.01758 -3.04833 -3.25441 18
140 1 -0.65829 1.8794 -6.15893 22
141 1 -8.58821 2.14641 1.4871 21
142 1 1.64901 -6.19554 9.70882 9
143 1 2.82297 1.7567 4.71739 20
144 1 -8.74508 -1.15932 -8.02132 5
145 1 8.19895 -6.20983 0.736235 13
146 1 -1.6446 -6.65102 -0.177769 20
147 1 6.35791 1.01023 5.3352 21
148 1 -0.242864 -7.98686 4.55199 15
149 1 1.92976 -3.10691 7.1618 18
150 1 8.63827 1.50761 0.631964 16
151 1 4.79634 2.88545 1.55623 19
152 1 6.21054 -3.7466 -0.336251 20
153 1 5.40836 4.42286 4.62002 18
154 1 -1.89626 -5.9947 -5.46607 19
155 1 3.92037 7.2142 4.96749 19
156 1 -5.21286 5.29019 -5.76201 18
157 1 -2.93127 5.35453 -10.121 8
158 1 -1.76598 -0.557216 9.81 13
159 1 -5.98203 -10.1045 -0.531355 11
160 1 3.08639 5.68825 1.89755 21
161 1 -3.07038 4.40634 4.16072 20
162 1 -10.117 5.15061 1.16528 11
163 1 6.23182 5.35424 -3.29504 14
164 1 0.878408 -0.596443 13.1793 5
165 1 -5.08781 2.44519 2.23289 21
166 1 -1.05123 -0.26407 -8.09022 13
167 1 -0.695341 4.56898 6.47147 19
168 1 6.54218 -6.55045 -4.90609 12
169 1 3.2381 10.3537 4.39851 12
170 1 3.21306 -5.85121 1.73864 15
171 1 -2.48304 7.32601 4.39259 24
172 1 4.03127 -4.5805 -6.21783 11
173 1 4.53199 -4.34043 8.3791 12
174 1 2.57516 2.6607 -5.9139 21
175 1 -5.21683 2.01598 7.8404 12
176 1 9.98964 -0.547281 1.92158 14
177 1 -0.0886372 8.44778 -4.53795 17
178 1 9.9923 3.13882 -5.3632 7
179 1 -3.73983 -3.68387 9.20013 13
180 1 -4.15918 -5.8432 6.70411 16
181 1 -5.80504 4.2288 -0.27648 19
182 1 7.13376 7.10472 4.03551 11
183 1 -7.22703 -5.49039 5.10549 12
184 1 10.1386 -3.31066 2.1909 11
185 1 -5.26981 -6.54838 -1.30476 20
186 1 7.71125 2.87918 2.85471 20
187 1 7.78946 -7.37465 -2.36702 10
188 1 0.668312 7.3573 4.19891 23
189 1 -9.29792 -1.00382 -0.441049 19
190 1 -2.55942 6.2223 -3.43722 17
191 1 0.0386534 9.39009 -7.76368 11
192 1 -6.13718 -0.783548 -5.31888 16
193 1 1.70247 -0.466762 -6.05855 22
194 1 -0.314778 -8.13947 -4.37716 18
195 1 0.0526643 -5.94998 6.72983 16
196 1 10.4274 -5.45335 -0.471187 11
197 1 -12.2755 -0.907922 0.428935 12
198 1 -1.29854 3.236 -8.89147 17
199 1 -7.78244 -8.43339 -3.51414 12
200 1 8.05768 -1.44562 4.64255 15
201 1 -3.49081 -3.22536 -8.31798 11
202 1 -7.56184 6.91785 0.456521 13
203 1 -5.49763 -0.280917 4.40109 21
204 1 5.95355 5.84555 1.97403 20
205 1 10.2659 0.804375 -2.64982 9
206 1 -2.81971 -8.77921 7.0116 9
207 1 7.37914 0.638767 -5.81237 14
208 1 5.41655 8.06238 -5.44137 9
209 1 1.54049 9.59288 6.83065 12
210 1 2.67198 10.1547 -5.37202 11
211 1 9.37335 -1.27668 -3.74946 14
212 1 -3.46716 2.02329 5.09645 23
213 1 11.0722 -4.30769 -3.40593 9
214 1 -0.337593 -3.11008 -6.43241 20
215 1 -3.36093 10.3568 4.10198 11
216 1 -1.34189 9.10736 1.88506 19
217 1 -3.45339 -9.07206 3.81303 17
218 1 5.35459 -7.94691 0.378798 15
219 1 -8.86525 -5.73758 -1.1709 11
220 1 -8.43263 5.97783 -1.99004 12
221 2 -11.5102 -0.980102 3.61776 8
222 2 6.60906 2.06693 1.57311 19
223 2 -0.616077 -1.96939 9.64917 16
224 2 -4.69503 -3.60386 -6.89409 15
225 2 -11.3758 1.99315 -1.44162 12
226 2 -1.60015 -8.78557 5.63439 14
227 2 1.11357 -2.4292 12.8895 8
228 2 8.18491 -0.503493 0.832737 18
229 2 -4.46423 8.72636 4.64954 12
230 2 -3.79335 6.1354 3.25359 18
231 2 6.39038 -8.28651 -3.87108 10
232 2 -3.55616 1.91653 -3.78782 20
233 2 0.514948 -4.15567 -8.98701 12
234 2 -2.58367 -8.39074 -0.248847 19
235 2 -4.23948 7.40712 0.653535 18
236 2 9.43222 -1.96089 3.42559 10
237 2 7.41936 6.98012 2.08459 10
238 2 -1.98093 10.5473 5.24464 13
239 2 5.43063 7.84105 3.83617 14
240 2 -1.572 8.37293 -7.41971 13
241 2 3.6482 -0.302979 -6.61579 18
242 2 -9.63429 0.187401 -7.16437 6
243 2 1.04321 -7.02632 5.64086 13
244 2 -6.87541 1.67041 2.00981 19
245 2 1.83681 -9.04762 -8.11461 9
246 2 -2.55279 -12.4996 0.20032 9
247 2 7.18522 -1.14928 -6.11034 13
248 2 0.5858 8.17954 7.85849 12
249 2 2.86911 -0.858505 9.03869 16
250 2 -4.90803 -4.04121 7.5295 15
251 2 -1.36421 -7.23286 2.72082 17
252 2 1.16846 4.78011 -3.67229 18
253 2 -0.589886 -5.5068 -1.19627 18
254 2 -6.54501 -6.26468 3.21858 12
255 2 -4.72751 -10.1398 1.00362 13
256 2 -2.18451 -7.38979 -3.47953 19
257 2 -3.78461 8.54634 -2.03246 10
258 2 5.70577 1.55142 -5.8871 19
259 2 6.83906 4.81228 0.694458 14
260 2 0.979495 7.46468 -8.44638 13
261 2 -5.92657 3.79735 -4.49361 18
262 2 10.1673 1.36962 1.72044 13
263 2 0.0690595 10.3964 2.59904 15
264 2 -7.37709 4.79778 4.76425 14
265 2 1.36893 9.85714 -0.186971 12
266 2 1.14832 9.72276 -6.29189 11
267 2 -2.49139 8.11151 6.77668 16
268 2 -0.944179 1.03182 9.17968 13
269 2 4.90019 -2.49663 8.38529 12
270 2 2.52573 -1.85715 -9.46695 9
271 2 1.16177 -7.29893 -5.20583 20
272 2 -0.728645 -5.23033 -6.70591 19
273 2 -8.11687 -6.46481 -2.79477 12
274 2 8.87601 -6.24274 -1.07756 12
275 2 4.87348 4.51735 2.71889 23
276 2 -2.15402 0.833414 -6.83315 19
277 2 1.07624 1.43411 -6.96535 20
278 2 -3.7653 -6.82018 -5.87713 19
279 2 2.61201 -5.25879 -6.98348 13
280 2 9.53974 -3.13504 -4.03801 12
281 2 -7.37015 -3.62219 5.40167 12
282 2 0.331729 -1.40487 -7.34391 16
283 2 3.99356 7.03251 -6.13788 16
284 2 -1.07808 -8.33184 -6.38281 14
285 2 0.367955 2.29347 -9.45072 13
286 2 -2.51956 5.66877 5.72686 20
287 2 -5.95432 -7.59316 0.0593295 14
288 2 -4.76018 3.2838 4.15738 23
289 2 -9.50458 4.84587 3.135 13
290 2 -6.10212 -6.51712 6.19589 11
291 2 -11.597 -1.18021 -1.3594 11
292 2 4.36282 -8.07504 5.6374 10
293 2 10.2145 -0.958663 -1.97415 17
294 2 -2.10975 -2.28538 -7.12755 18
295 2 2.60082 6.20962 3.7409 20
296 2 1.60562 11.0078 5.25452 12
297 2 1.03334 -4.80624 10.9024 11
298 2 -6.66622 1.04058 5.62236 17
299 2 -7.10364 -1.04103 -3.54872 15
300 2 0.218883 -3.58847 -4.58611 19
301 2 9.32677 4.12968 2.16042 13
302 2 -9.28337 -3.40917 2.87912 14
303 2 -5.39617 5.51145 -8.62176 12
304 2 3.55087 2.1814 -8.48143 13
305 2 -9.82253 3.36251 0.420479 14
306 2 3.4946 -4.30896 6.65517 18
307 2 -0.401676 6.10439 -0.310203 19
308 2 3.63169 -9.28796 -5.45652 11
309 2 -2.0308 -10.6941 -2.77961 13
310 2 -6.59027 5.97062 -1.05304 16
311 2 0.345511 -9.63233 0.979258 15
312 2 0.382793 -12.152 -1.28172 9
313 2 2.97944 8.73997 5.55313 14
314 2 -1.52363 10.3475 -2.17461 10
315 2 -4.32774 -8.88449 5.57174 12
316 2 -3.93978 -7.3534 2.87237 17
317 2 -2.49183 -1.97215 6.24246 20
318 2 -0.921634 5.08319 -9.9307 11
319 2 6.66749 -3.15072 -4.22248 16
320 2 3.93047 -3.22865 11.7816 9
321 2 -5.59448 -2.78169 -1.17059 17
322 2 4.21912 3.66369 -0.619449 20
323 2 7.49443 5.48584 4.79988 15
324 2 7.89794 -2.94225 -1.29946 19
325 2 -7.67386 -4.64092 0.21366 13
326 2 -0.344407 5.56724 8.26173 14
327 2 5.20941 -0.473427 5.97043 17
328 2 2.51508 5.21315 -9.83181 11
329 2 4.61653 -3.16937 3.66487 22
330 2 2.13292 4.76415 7.71768 14
331 2 2.7887 -5.83595 3.89539 17
332 2 -10.5053 0.558626 -3.91122 11
333 2 -5.14509 2.76506 -1.18018 19
334 2 -6.82923 3.22895 -8.05793 11
335 2 -3.35106 -7.19843 7.96859 13
336 2 3.37818 10.056 2.43357 10
337 2 -7.35839 -7.78526 -5.14233 11
338 2 11.0166 -2.19879 0.847563 12
339 2 -9.32147 6.31694 -0.175515 10
340 2 9.16516 -4.66825 1.45283 13
341 2 -3.51758 -5.21999 4.88876 20
342 2 -5.43691 -6.55517 -3.14288 19
343 2 1.18639 8.34487 -2.7563 18
344 2 -7.36626 6.12034 2.1948 14
345 2 4.564 6.90291 1.03675 17
346 2 0.0952942 -6.51707 8.58811 11
347 2 -12.0573 0.808831 1.23018 14
348 2 -1.94893 7.92474 -4.1561 16
349 2 1.93382 2.69607 9.67347 12
350 2 -8.45265 1.89641 -4.91055 15
351 2 4.21022 8.66901 -1.46494 11
352 2 -5.25474 6.21771 6.58223 14
353 2 0.853858 0.0847483 11.4374 10
354 2 -6.44517 -5.52472 -6.78882 13
355 2 0.313139 6.96091 -5.60732 20
356 2 0.309243 -9.80147 -3.69244 15
357 2 -4.02164 3.63653 -6.42802 21
358 2 2.17931 -1.40425 6.26887 19
359 2 0.497889 5.7845 5.52721 21
360 2 10.1773 2.30897 -3.65408 9
361 2 3.60604 -10.3769 3.3175 11
362 2 4.37805 -1.27655 -3.79594 16
363 2 3.87694 3.76434 5.23239 15
364 2 -8.10996 3.87486 -2.15015 15
365 2 -2.89168 0.931802 6.84093 17
366 2 -6.11301 -3.78379 -4.28902 16
367 2 1.27848 -8.12748 -1.60502 16
368 2 -0.876187 7.23475 3.00241 19
369 2 -8.893 2.36031 5.31335 13
370 2 -7.81416 -1.61883 0.477264 17
371 2 -4.96592 -11.2882 -1.76522 10
372 2 3.13882 1.57765 6.77225 16
373 2 -2.06394 4.51879 -4.24634 21
374 2 -2.67144 6.70873 -8.81663 15
375 2 5.37643 4.22047 -4.61597 16
376 2 0.718071 -6.83622 -8.84613 11
377 2 8.20804 0.200625 5.88617 11
378 2 4.99525 2.83435 9.18475 8
379 2 2.33743 6.35883 -1.35782 15
380 2 -5.58439 0.910998 -6.1007 17
381 2 -2.97824 -5.13678 -8.42285 11
382 2 -4.31758 -1.50026 -4.54125 21
383 2 -3.07792 9.16323 2.4632 14
384 2 -3.74797 6.79149 -6.11813 14
385 2 -6.98883 5.74061 -6.53132 13
386 2 -6.40278 3.33091 7.26471 12
387 2 2.14695 4.8251 -6.43551 18
388 2 4.56242 -2.88296 -7.0229 14
389 2 -8.34917 6.34194 -3.69826 9
390 2 -1.11512 3.81844 -6.88535 20
391 2 2.94237 -5.58447 -1.66083 19
392 2 6.35554 -5.9324 4.54014 14
393 2 -5.0007 -1.8966 5.4754 16
394 2 -2.87404 -4.604 -4.31123 21
395 2 -9.64459 1.51442 2.88185 14
396 2 6.29343 -9.26597 4.45989 9
397 2 -10.9114 -2.17807 0.837089 12
398 2 -3.35824 -1.83288 8.90207 13
399 2 0.298535 -9.6375 3.68681 14
400 2 9.57512 3.15187 4.65156 11
401 2 3.91452 -8.26434 -2.96565 17
402 2 -3.22054 5.89495 -1.46209 20
403 2 -7.27756 -1.65816 -6.94396 10
404 2 -7.20397 -0.919591 3.6201 16
405 2 3.04947 -4.88595 9.36505 11
406 2 6.40084 3.40119 -2.44894 13
407 2 4.766 4.10299 -7.1298 14
408 2 6.77024 2.89334 4.59882 17
409 2 -5.31879 4.39695 1.37258 23
410 2 6.97995 -2.77788 5.65673 14
411 2 4.5619 -6.3016 -5.31681 15
412 2 -3.28209 -5.73032 -0.964296 16
413 2 7.8238 -5.7868 -3.70059 14
414 2 7.07857 -7.53957 1.67924 13
415 2 4.82214 -2.65536 -1.27385 17
416 2 5.98469 -4.44903 1.47223 17
417 2 -0.824528 2.65533 6.42935 18
418 2 8.23233 3.48565 -5.93793 12
419 2 -10.1685 -4.59533 -0.759224 11
420 2 6.54218 -0.395086 3.79199 20
421 2 -9.12398 0.771724 -1.27087 17
422 2 5.80397 -9.7864 1.24196 10
423 2 4.16796 9.27895 -4.43633 10
424 2 8.89818 1.76568 -1.11945 13
425 2 5.94483 7.13734 -3.87389 9
426 2 0.13524 -3.98419 6.50856 16
427 2 3.35775 -7.44469 0.619685 20
428 2 11.3243 -4.07704 -1.48937 12
429 2 2.63679 -11.3207 0.666853 10
430 2 -4.24827 -9.56977 -4.62041 14
431 2 -1.17877 8.98124 -0.0865781 18
432 2 0.0160062 8.49199 5.56651 20
433 2 -2.27802 -10.2083 3.0372 15
434 2 -1.78157 -4.5291 8.86477 15
435 2 -3.67851 3.21489 7.9978 13
436 2 7.66499 3.39654 7.24923 10
437 2 8.47367 0.527961 -4.27107 15
438 2 -3.18838 3.70875 -9.33331 14
439 2 -6.69638 -9.53259 -2.28072 12
440 2 6.07299 -6.76284 -1.01622 17
441 1 -1.88 -2.83171 -3.37645 22
442 2 -1.88 -2.83137 -1.36755 23
443 2 -1.88 -0.93461 -4.0176 22
444 1 -5.16 -0.934401 -0.726407 19
445 1 -3.52 -3.77954 -0.726424 20
446 1 -1.88 -0.934401 -0.726407 25
447 1 -0.24 -3.77954 -0.726424 22
448 1 -1.88 -2.83171 1.92355 20
449 1 -1.88 -0.934401 4.57359 20
450 2 -5.16 -0.93461 1.2824 20
451 2 -3.52 -3.7797 1.28241 19
452 2 -1.88 -2.83137 3.93245 20
453 2 -1.88 -0.93461 1.2824 25
454 2 -0.24 -3.7797 1.28241 21
455 1 -3.52 0.0131684 -3.37638 24
456 1 -0.24 0.0131684 -3.37638 25
457 1 -1.88 2.85829 -3.37645 25
458 2 -3.52 0.0135641 -1.36761 23
459 2 -0.24 0.0135641 -1.36761 26
460 2 -1.88 2.85863 -1.36755 23
461 2 -0.24 1.9103 -4.01759 23
462 1 -3.52 1.91046 -0.726424 22
463 1 -3.52 0.0131684 1.92362 22
464 1 -1.88 4.7556 -0.726407 23
465 1 -0.24 1.91046 -0.726424 25
466 1 -0.24 0.0131684 1.92362 26
467 1 -1.88 2.85829 1.92355 24
468 1 -0.24 1.91046 4.57358 19
469 2 -3.52 0.0135641 3.93239 23
470 2 -3.52 1.9103 1.28241 25
471 2 -0.24 0.0135641 3.93239 25
472 2 -1.88 2.85863 3.93245 21
473 2 -1.88 4.75539 1.2824 21
474 2 -0.24 1.9103 1.28241 26
475 1 1.4 -2.83171 -3.37645 21
476 2 1.4 -2.83137 -1.36755 22
477 2 1.4 -0.93461 -4.0176 19
478 1 1.4 -0.934401 -0.726407 26
479 1 3.04 -3.77954 -0.726424 21
480 1 1.4 -2.83171 1.92355 23
481 1 1.4 -0.934401 4.57359 20
482 1 4.68 -0.934401 -0.726407 19
483 1 4.68 -2.83171 1.92355 20
484 2 1.4 -2.83137 3.93245 22
485 2 1.4 -0.93461 1.2824 26
486 2 3.04 -3.7797 1.28241 22
487 2 4.68 -0.93461 1.2824 22
488 1 3.04 0.0131684 -3.37638 22
489 1 1.4 2.85829 -3.37645 22
490 2 3.04 0.0135641 -1.36761 21
491 2 1.4 2.85863 -1.36755 23
492 2 3.04 1.9103 -4.01759 20
493 1 1.4 4.7556 -0.726407 20
494 1 3.04 1.91046 -0.726424 20
495 1 3.04 0.0131684 1.92362 24
496 1 1.4 2.85829 1.92355 25
497 2 3.04 0.0135641 3.93239 23
498 2 1.4 2.85863 3.93245 22
499 2 1.4 4.75539 1.2824 25
500 2 3.04 1.9103 1.28241 23
