ITEM: TIMESTEP
31000
ITEM: NUMBER OF ATOMS
2000
ITEM: BOX BOUNDS pp pp pp
-30.0 30.0
-30.0 30.0
-30.0 30.0
ITEM: ATOMS id type x y z Coordination
1 1 -5.32554 3.8315 -21.6791 17
2 1 -2.62315 -10.1604 -16.9297 17
3 1 3.28874 15.7307 2.40701 13
4 1 9.67382 -13.1061 -3.14527 15
5 1 -8.73362 9.29659 -6.03484 16
6 1 10.9621 -8.08623 -18.1038 15
7 1 -10.1147 6.72156 -11.5276 21
8 1 2.55424 -2.87553 6.77346 20
9 1 -4.03515 1.71517 -19.4793 18
10 1 -8.55137 -10.3167 0.82697 14
11 1 15.7724 6.82759 -14.3152 21
12 1 1.55575 -10.4451 -4.21657 20
13 1 -8.45373 -8.59796 -2.20258 16
14 1 4.74869 4.49183 11.9354 14
15 1 3.17013 12.4965 -16.9853 21
16 1 7.0547 -0.861308 7.81316 15
17 1 -9.37229 9.50319 -15.1186 11
18 1 -4.93708 -0.501539 7.17923 16
19 1 13.9221 9.62118 5.53162 14
20 1 5.11854 9.40855 -15.7856 20
21 1 0.507125 -0.38148 -22.0791 18
22 1 12.5625 5.08089 7.11787 15
23 1 -9.32329 4.35762 -18.1168 14
24 1 -7.73015 4.62478 7.91593 12
25 1 12.1163 -10.3468 -3.28812 13
26 1 3.27978 -13.0701 -18.3372 6
27 1 7.95569 -10.2086 -4.00846 19
28 1 -6.90458 -12.9219 -12.7617 8
29 1 -11.309 -4.65889 4.21414 18
30 1 1.86289 -4.45007 -19.5843 20
31 1 8.73238 -9.96246 -20.2754 8
32 1 -1.51045 6.50751 -21.1938 12
33 1 3.33092 1.24908 13.166 11
34 1 2.51399 -13.1465 1.384 18
35 1 5.57768 -2.98048 8.87559 16
36 1 -14.5092 -1.10583 1.34552 11
37 1 -12.7347 -1.93376 3.5828 16
38 1 -1.37569 13.2448 -9.25002 20
39 1 -1.01071 -12.0299 -15.3652 19
40 1 7.82305 -4.36648 -18.4325 20
41 1 -0.0319969 -4.36595 7.78507 14
42 1 -10.2964 3.91384 -4.80142 19
43 1 7.82586 9.34146 -17.7625 17
44 1 1.86218 14.4749 -1.18129 18
45 1 -8.45331 9.72103 -11.9439 17
46 1 2.48048 14.5099 -6.49041 22
47 1 2.88754 -16.3747 -0.0226434 8
48 1 8.9277 -7.3179 -12.4943 21
49 1 5.68169 -2.4789 -24.1027 13
50 1 -4.58029 10.3292 9.65497 12
51 1 -8.13108 -4.12142 -16.6537 13
52 1 -4.96635 9.6174 -11.5013 21
53 1 -5.66089 -6.92536 4.00947 17
54 1 -1.88394 13.2668 2.97924 17
55 1 -12.6961 10.4571 -6.45104 12
56 1 -6.76256 1.98163 6.55706 18
57 1 0.428494 -13.6296 -0.559224 15
58 1 13.0662 -12.2914 -9.92541 13
59 1 8.55144 15.834 9.20398 9
60 1 -10.4156 1.54335 -18.705 13
61 1 -5.21429 15.6607 -10.6873 12
62 1 7.17026 8.95159 4.4768 22
63 1 13.5298 -3.26405 -12.2555 18
64 1 16.1366 -5.12025 -6.50436 16
65 1 -13.9318 -4.40199 2.25299 12
66 1 9.89476 16.8483 3.28239 14
67 1 9.81189 -0.548239 8.37492 13
68 1 1.82069 -10.1764 1.71671 22
69 1 14.4334 4.04907 -1.53378 17
70 1 -3.82052 14.8124 8.74261 8
71 1 -1.57068 -4.26418 -14.7967 23
72 1 -10.7148 11.197 0.815413 13
73 1 -7.16943 11.8293 -6.17943 16
74 1 -0.170535 9.57618 -13.971 20
75 1 13.8402 14.5881 -16.4907 11
76 1 6.22282 -7.23968 1.74308 18
77 1 -1.15373 13.9919 -13.2288 23
78 1 -8.19567 13.7276 1.69328 12
79 1 -5.38011 -3.15236 7.07855 16
80 1 -3.91371 12.1922 -0.93569 22
81 1 -5.9511 -10.4852 6.88242 11
82 1 13.2021 -5.12303 -5.38812 21
83 1 -8.87911 3.70859 -2.26087 20
84 1 -6.27887 -13.5493 -4.51229 12
85 1 11.6065 -5.28813 -14.143 22
86 1 8.80714 1.61193 -14.6244 20
87 1 -1.93142 2.78367 -22.008 18
88 1 1.48263 13.0862 -3.67459 22
89 1 -7.03712 6.00617 -19.2475 14
90 1 2.08666 9.94449 7.47638 19
91 1 13.8941 13.7668 -13.4686 14
92 1 -10.3296 12.9655 -1.30941 13
93 1 -1.63516 -10.0426 3.51467 21
94 1 14.5078 3.38233 5.35718 20
95 1 9.36973 -1.86489 -15.8161 18
96 1 8.40372 1.4179 10.5553 13
97 1 -6.98441 -5.01919 -6.50567 20
98 1 -7.73115 -7.40603 -9.21138 23
99 1 13.3061 -7.02726 -3.00513 15
100 1 9.47759 6.19482 -20.92 11
101 1 9.97572 16.1253 -8.99925 12
102 1 -6.41733 -7.95816 9.1628 13
103 1 -7.86049 -3.48807 4.98253 19
104 1 9.17535 -6.66143 -20.4663 17
105 1 16.7274 -7.91139 -8.01993 9
106 1 1.95263 -13.8533 -3.2284 18
107 1 -5.34152 -8.27819 -6.94529 21
108 1 15.0654 7.20396 2.47089 17
109 1 15.2933 -6.44433 -10.3396 16
110 1 -14.7795 -3.94374 -0.554651 8
111 1 15.4644 16.1039 -6.15157 11
112 1 16.8566 14.0118 -3.24379 13
113 1 0.337875 3.46592 12.1939 10
114 1 0.919694 14.383 4.64042 15
115 1 -3.32582 12.5501 -11.8008 19
116 1 2.98638 -5.67254 -16.608 17
117 1 12.1262 -8.88419 -14.9535 15
118 1 9.04918 12.2743 -18.543 14
119 1 16.8288 1.49226 3.41949 12
120 1 2.30627 1.50006 -19.5867 17
121 1 -0.032341 11.7595 -11.4576 23
122 1 12.1621 3.47309 -11.0852 20
123 1 -9.86195 10.8539 -8.30115 16
124 1 -8.34079 14.4881 -9.11582 10
125 1 9.86944 3.99417 -16.8733 20
126 1 7.92071 -14.0588 -0.509619 13
127 1 -2.16576 12.3051 10.7877 9
128 1 15.9188 5.88721 -11.5702 19
129 1 8.69097 12.832 -8.35977 18
130 1 -1.02652 14.7624 -6.13673 17
131 1 10.025 11.3289 -5.87291 20
132 1 -0.231906 17.4792 -12.3728 12
133 1 4.58367 17.434 -14.4789 11
134 1 6.2928 11.9417 -16.2849 18
135 1 -9.83207 -10.1118 -4.56827 13
136 1 -10.1979 9.60038 -2.91969 19
137 1 -3.21982 0.572592 -17.0552 17
138 1 0.4859 -9.03389 -21.3578 13
139 1 12.3588 17.2558 1.93836 12
140 1 0.210223 15.744 -4.05756 14
141 1 -13.356 -2.23195 -10.8855 13
142 1 -8.45026 13.5121 -3.39936 13
143 1 18.6144 -1.90159 -9.15308 10
144 1 -8.37273 3.07016 -20.9605 13
145 1 9.41131 4.18512 9.65511 15
146 1 11.1989 16.1811 -4.61087 15
147 1 -0.335178 10.2648 2.30887 23
148 1 3.15775 -8.49918 -22.05 12
149 1 -2.74272 15.8281 0.385519 10
150 1 3.13845 12.1262 -11.3645 19
151 1 5.99694 -6.74293 4.48843 17
152 1 -13.0074 -6.99152 4.32106 10
153 1 0.397102 -11.4074 -18.5622 12
154 1 -3.64622 13.8986 -15.3044 14
155 1 -2.42016 -8.44314 -1.37153 22
156 1 8.32767 -15.489 -9.46653 20
157 1 -0.916934 14.5649 -17.0815 19
158 1 -13.1371 3.66224 3.12854 13
159 1 15.9568 10.4873 -10.2377 20
160 1 -7.3418 5.07598 3.90736 20
161 1 1.54353 -7.32539 7.04228 12
162 1 8.54343 19.0313 -1.73517 12
163 1 1.22987 8.45706 4.51527 22
164 1 16.8909 7.52256 7.74262 9
165 1 -5.30368 13.1065 -3.5654 21
166 1 15.3537 -4.16378 -14.1883 15
167 1 -1.58106 13.6575 6.20718 12
168 1 18.7804 2.08449 -2.42165 12
169 1 -11.7364 0.630355 3.90674 18
170 1 -5.41917 -8.68168 -1.2233 22
171 1 9.64434 4.33495 6.35222 17
172 1 -14.0093 1.06926 -12.1939 10
173 1 -0.0704072 -11.531 -6.48754 18
174 1 -0.361653 11.8231 -0.685463 18
175 1 6.41178 15.9257 3.51534 15
176 1 -2.78766 11.1657 -13.7794 19
177 1 -11.5746 -3.69391 -13.0633 12
178 1 -8.24112 -5.17025 7.69005 15
179 1 1.31452 -8.4359 -1.37724 18
180 1 8.30351 -8.59721 -0.633287 16
181 1 -6.32678 11.751 3.84289 15
182 1 16.4569 -3.38918 -1.52218 12
183 1 -3.75752 -3.0347 -17.0978 21
184 1 4.77368 2.77002 4.92848 24
185 1 10.2578 -11.3244 -5.86209 19
186 1 0.307972 6.70908 -17.5295 16
187 1 2.28204 -7.71187 -19.4908 19
188 1 12.8166 1.18349 -19.829 11
189 1 5.73982 11.1312 -19.2469 13
190 1 -3.45336 -1.40013 -14.4166 23
191 1 -2.03565 17.2294 -15.2498 10
192 1 -4.86534 -6.30287 6.54753 20
193 1 16.7992 12.6017 -12.7485 11
194 1 -2.04493 2.21958 9.79378 12
195 1 -2.43812 15.7457 -9.35435 15
196 1 9.67756 4.26817 1.47739 21
197 1 0.268409 -8.51238 -18.0328 18
198 1 1.05614 12.7253 -14.28 19
199 1 5.20268 6.89535 -13.9187 18
200 1 0.0682485 -12.4697 3.9702 13
201 1 -7.02508 3.5725 0.88298 21
202 1 -5.55301 7.0386 2.32672 22
203 1 1.64517 -9.49415 -15.2135 17
204 1 -3.53157 -14.5795 -2.85196 12
205 1 11.2872 -9.19674 -9.60982 19
206 1 16.1363 7.10634 5.54258 15
207 1 11.9389 9.02289 -10.9087 20
208 1 3.57196 11.5416 -5.92791 23
209 1 -11.6073 12.2529 -4.26949 11
210 1 2.54073 5.65727 4.7795 24
211 1 11.4681 -14.7562 -10.6177 11
212 1 13.3386 0.460163 -4.98237 17
213 1 -11.0474 7.56515 -0.576963 19
214 1 -8.60134 -4.77657 -9.75214 17
215 1 9.99212 7.49451 -17.71 17
216 1 11.2635 -5.0527 5.37491 9
217 1 12.8418 12.4822 -17.9973 14
218 1 0.788865 0.361686 -16.5526 17
219 1 5.05568 -18.7106 -6.4677 9
220 1 11.6898 0.467145 -14.6139 21
221 1 -8.72882 -2.49276 -1.70586 19
222 1 3.55637 -12.4594 -10.4355 19
223 1 -8.62241 -3.18383 -12.4499 17
224 1 13.972 11.7851 -10.9953 21
225 1 6.11131 -0.834104 -19.0911 18
226 1 5.34903 8.4506 8.10196 19
227 1 16.324 1.52057 -5.50608 19
228 1 14.3206 -3.53623 -17.5474 12
229 1 -5.88734 -0.586522 -17.6662 19
230 1 -11.9473 3.76171 -16.6401 10
231 1 -9.71415 -7.34874 4.85114 16
232 1 14.1957 1.40911 3.20118 21
233 1 -2.63613 -6.91957 -16.6479 20
234 1 2.42352 11.4091 -19.5993 14
235 1 4.19978 12.3547 -2.77261 20
236 1 -6.02907 -1.33445 4.18426 21
237 1 -9.03313 -6.8462 -14.4511 10
238 1 -6.43803 -1.4812 -14.7177 20
239 1 4.10791 8.46596 -20.0474 9
240 1 -3.86633 -9.69115 -11.9414 15
241 1 10.685 -0.947724 -21.5349 12
242 1 17.3258 -4.56898 -11.497 12
243 1 12.9619 6.67698 -0.484931 17
244 1 -2.44898 -6.88742 4.37384 20
245 1 1.45585 -9.98226 -9.92399 19
246 1 9.05217 7.34973 10.3004 14
247 1 -5.52533 -16.7465 -4.42317 8
248 1 2.91632 -11.1226 -7.03252 16
249 1 2.24458 19.0734 -7.14192 6
250 1 8.04165 1.16868 -21.0958 14
251 1 4.99384 -5.73997 -18.7988 17
252 1 -7.92368 -8.1355 6.898 13
253 1 3.7939 11.0621 10.1968 11
254 1 4.79673 -9.92142 -8.80598 18
255 1 -4.13011 -14.8976 -13.4964 11
256 1 -7.97208 6.44017 -14.0126 21
257 1 11.0161 7.08503 1.61434 18
258 1 -3.53306 4.32619 -14.5466 19
259 1 2.18298 9.38498 -16.799 18
260 1 8.35134 -14.1819 -12.1318 14
261 1 0.680801 16.5166 -8.65184 14
262 1 2.90819 11.4826 -0.243027 21
263 1 11.723 3.59773 -0.965561 19
264 1 -10.7179 0.753703 -1.22902 20
265 1 5.61008 -3.16131 5.61033 16
266 1 -4.01169 10.3274 1.68904 21
267 1 4.70412 -4.10597 -14.5497 21
268 1 19.1415 8.33569 -6.15848 10
269 1 4.82349 -10.4236 -3.96197 20
270 1 0.453361 0.660209 10.8669 13
271 1 -11.3497 -5.77071 7.40494 10
272 1 5.10648 -15.3136 -10.6533 19
273 1 -4.47165 6.51562 9.14795 14
274 1 -8.23583 8.27513 4.6114 18
275 1 -14.3582 -4.80297 5.55509 8
276 1 -10.5455 -9.79981 3.97141 7
277 1 19.2299 0.752966 -5.2598 12
278 1 -7.38598 -5.01611 2.70356 17
279 1 9.96438 -4.75727 -11.3532 21
280 1 14.1761 -6.70754 -13.2769 13
281 1 5.65625 18.343 -10.7856 10
282 1 -6.8951 13.0027 -11.4432 11
283 1 11.8043 7.293 9.46387 15
284 1 12.0763 -6.99099 -10.6175 20
285 1 -7.34004 12.1148 -0.427608 19
286 1 3.29273 -13.13 3.94455 12
287 1 12.9159 0.810666 -0.302923 20
288 1 0.651586 -2.5558 9.57326 15
289 1 -5.07555 13.2049 1.56221 15
290 1 9.17117 12.9227 8.39115 14
291 1 -3.20078 16.5964 -12.6593 11
292 1 -1.02579 -2.4004 -19.69 20
293 1 10.0783 -10.8281 -16.496 14
294 1 -12.7744 2.4622 6.58877 10
295 1 -13.7736 4.23809 -4.77275 14
296 1 -4.21445 11.8048 -6.11116 19
297 1 11.1696 1.15068 2.30418 18
298 1 -4.87508 -10.2335 -4.80284 21
299 1 8.03288 -4.3696 2.08485 18
300 1 -3.34319 -9.31376 6.24374 17
301 1 -11.9977 5.78553 -2.71345 17
302 1 4.62731 -10.5144 -13.4656 16
303 1 -5.4552 1.48606 -14.1281 20
304 1 10.1855 2.82896 -20.548 14
305 1 4.74354 12.8044 1.29687 17
306 1 -8.42417 1.4972 -9.78876 22
307 1 6.35256 -6.07346 -16.0088 19
308 1 12.039 5.65056 -19.7089 14
309 1 0.736818 -15.9739 -9.37847 14
310 1 -11.2101 -6.02241 -8.02285 15
311 1 13.941 12.0385 9.07698 9
312 1 13.5577 3.57916 -7.20731 23
313 1 -4.85363 7.68943 -14.1246 19
314 1 7.98415 17.2117 -4.91547 13
315 1 -9.1768 3.72997 -15.3104 16
316 1 -7.57478 6.08218 -0.667696 19
317 1 -6.52341 10.4462 -3.15609 21
318 1 -5.57132 9.35198 4.63149 20
319 1 13.9192 3.57731 11.5432 10
320 1 12.406 -1.98203 -9.98173 20
321 1 14.9075 -2.19865 8.01669 7
322 1 16.0599 1.52993 -12.0428 15
323 1 -5.63447 -15.3628 -10.2872 12
324 1 -8.69184 3.7828 -11.9961 23
325 1 5.3424 -7.60829 -11.8802 20
326 1 13.6603 0.582841 9.3223 14
327 1 -9.76232 -1.55033 -9.59618 20
328 1 -4.09458 -11.3676 -1.33383 18
329 1 -4.5612 -5.22084 9.50395 12
330 1 0.304747 11.7807 -6.17583 21
331 1 -6.75655 -11.243 -6.93957 16
332 1 6.83556 10.642 9.65532 14
333 1 -9.89868 4.52399 -8.77969 20
334 1 1.33558 16.2959 -14.9719 19
335 1 3.19018 11.3603 3.51565 23
336 1 -10.1928 -8.69153 -9.8556 13
337 1 -1.12218 -8.36237 -12.1916 22
338 1 -12.5341 5.55619 0.81505 16
339 1 -11.9402 9.64158 -9.67694 11
340 1 9.76387 -7.59002 -2.95402 20
341 1 -4.3762 -12.6994 -9.80682 22
342 1 14.8014 18.0797 -0.461985 8
343 1 6.57332 7.15291 -19.5627 15
344 1 -8.4405 -0.256167 -19.3556 12
345 1 3.356 15.898 -16.8758 14
346 1 -6.64175 6.7675 -11.3584 21
347 1 3.09493 -11.6477 -1.51973 22
348 1 14.3326 12.1655 -2.25264 18
349 1 6.18455 14.3876 -17.6081 12
350 1 -13.9123 -3.07142 -3.76103 6
351 1 -2.01108 -10.0422 -3.91314 22
352 1 10.3104 -5.03169 -17.3021 23
353 1 -12.5261 3.11689 -1.87031 19
354 1 -9.46883 -1.4922 3.1684 20
355 1 -14.6567 8.33009 -0.572222 13
356 1 -5.85974 1.24658 -22.4116 7
357 1 6.60329 -10.6848 -17.918 13
358 1 6.21238 -6.83321 -20.9626 14
359 1 -0.158019 -4.0703 4.24737 18
360 1 0.695007 4.3633 -22.9354 12
361 1 10.3192 -11.4284 -0.476506 11
362 1 5.29329 15.6563 -12.0515 15
363 1 -9.51024 12.517 4.13265 10
364 1 -3.77224 -4.29273 4.07627 19
365 1 -7.96275 -6.96936 -17.9177 7
366 1 -5.49878 -4.7432 1.00376 20
367 1 11.343 -4.49902 2.06427 16
368 1 7.58204 -11.9208 1.52455 13
369 1 17.6067 11.899 -6.04417 11
370 1 -0.123681 3.79128 6.66035 19
371 1 5.80173 15.057 -5.96305 19
372 1 3.62389 -13.8468 -8.17583 20
373 1 3.3615 6.45401 10.157 15
374 1 -0.388434 17.0497 -1.56628 10
375 1 -1.95799 -9.64513 -14.5444 21
376 1 12.7468 14.5036 -6.96891 17
377 1 6.16783 10.2925 1.92162 22
378 1 -3.83617 5.6234 3.91891 20
379 1 -12.6324 7.74359 2.36919 12
380 1 -6.86208 -5.94604 -12.4612 14
381 1 -3.87141 8.38936 6.41116 24
382 1 0.174035 -11.267 -12.6896 20
383 1 1.71496 -11.6469 -21.3068 7
384 1 -0.685002 -11.3177 -2.36073 19
385 1 13.546 4.485 1.76218 22
386 1 -2.9139 -2.00451 8.34377 11
387 1 -7.51981 7.53528 -16.4196 14
388 1 12.0766 6.43604 -9.13587 21
389 1 -7.92345 -14.017 -8.7151 8
390 1 4.73378 17.662 -4.94478 12
391 1 0.444942 11.4543 5.22154 22
392 1 -11.7582 -0.655764 -12.5273 17
393 1 1.26151 14.9587 -11.6279 21
394 1 8.40665 14.9805 -11.2577 14
395 1 -4.28957 -7.98246 -14.7499 17
396 1 6.42823 2.54832 13.3421 8
397 1 7.55333 -12.33 -15.0785 12
398 1 1.6969 -2.66215 -17.0777 18
399 1 8.97854 -6.74935 -9.67773 16
400 1 -6.86191 9.8455 2.04041 18
401 1 5.16855 5.56774 6.96602 19
402 1 11.7075 8.75049 -5.29232 18
403 1 -6.11351 11.0254 -14.6381 14
404 1 -10.4053 -7.08089 -4.741 15
405 1 9.97101 19.4045 0.822227 9
406 1 -4.32564 4.52216 -18.8355 18
407 1 13.6045 6.39066 -5.53671 21
408 1 10.355 14.3631 -17.394 10
409 1 16.8037 0.0164762 -8.20369 15
410 1 2.1516 -1.50236 -19.3416 19
411 1 4.65337 -13.7559 -1.12462 20
412 1 2.64991 -9.80936 4.59645 15
413 1 -10.964 7.38697 -16.2995 10
414 1 -6.61693 -11.2782 -3.23356 17
415 1 -2.28139 -14.0099 -17.0261 8
416 1 9.06929 15.1702 -1.23597 20
417 1 3.25194 5.87457 -16.3952 19
418 1 4.82009 -5.80134 7.44819 15
419 1 -10.5775 6.28068 3.7679 16
420 1 6.62706 -18.3108 -9.77589 8
421 1 -10.149 -1.50544 -4.08479 20
422 1 13.4401 -7.2 -7.82195 19
423 1 15.4467 -2.22816 -4.878 19
424 1 3.26017 -7.23876 -14.3229 21
425 1 7.2909 2.05475 -17.7606 17
426 1 14.5796 -4.22777 -8.95234 20
427 1 -2.14001 5.71617 7.68682 17
428 1 15.3206 12.9587 -8.02356 15
429 1 -2.43567 -0.339503 -22.5249 14
430 1 7.31501 4.32508 -19.2902 19
431 1 -6.83757 -2.11521 1.44512 22
432 1 3.01969 15.7777 -3.40698 17
433 1 -7.07848 2.26941 -18.4315 19
434 1 -11.9272 1.31776 -4.14289 16
435 1 -4.30581 -12.5969 -15.0343 14
436 1 -3.11208 -7.67823 10.3454 8
437 1 3.02768 10.6803 -13.9875 19
438 1 15.5299 10.1184 0.941918 15
439 1 18.7632 4.08873 -4.89114 13
440 1 -4.78712 -14.7259 -7.1828 14
441 1 4.26396 -5.85134 -24.3678 9
442 1 -5.18682 11.8057 7.42242 14
443 1 14.6992 -4.1267 -3.24363 17
444 1 11.3595 13.6814 -11.4872 16
445 1 18.2476 7.66736 -13.2962 13
446 1 3.63241 8.25938 5.65132 20
447 1 -8.74167 6.96775 1.75555 17
448 1 8.51034 10.7706 6.68156 18
449 1 11.4052 2.47082 8.44576 16
450 1 5.61495 1.81502 -21.3411 16
451 1 5.97309 -0.0627035 4.92692 19
452 1 12.3996 9.01934 2.45205 21
453 1 8.55058 10.2193 -15.0378 17
454 1 -8.62573 7.40616 -9.11326 20
455 1 2.18267 13.1021 -9.02882 22
456 1 12.2396 -1.67739 10.3619 9
457 1 15.0571 4.85205 -17.5898 12
458 1 9.96408 -10.4386 -13.299 17
459 1 12.9823 11.8476 3.80555 17
460 1 -9.1715 -12.29 -1.99483 9
461 1 -3.55684 9.52833 -16.2671 15
462 1 -11.6089 -0.0654408 7.36796 10
463 1 -1.07975 11.6431 -15.5937 17
464 1 12.2613 -13.6744 -7.31283 10
465 1 4.8799 -3.02669 -16.9905 22
466 1 3.68363 15.9064 -8.88918 23
467 1 -5.28231 -5.62938 -17.7519 17
468 1 6.88233 -11.8864 -6.3095 22
469 1 -11.4326 -4.43626 -5.55864 15
470 1 7.15691 14.5636 -14.4235 14
471 1 -0.557299 9.40113 6.35573 17
472 1 -9.34627 -4.58946 0.195336 13
473 1 7.91851 -7.85038 -17.9409 24
474 1 3.18125 -5.44802 5.08991 18
475 1 -13.012 9.06277 -3.30832 15
476 1 5.55468 8.44828 11.5754 11
477 1 13.5856 14.6734 -9.10346 13
478 1 11.4086 -4.61087 -8.51576 21
479 1 6.84649 16.6405 7.04267 8
480 1 -1.23951 2.00781 -24.4191 11
481 1 -4.69396 -12.023 4.1355 14
482 1 10.0671 -3.90984 -20.8747 17
483 1 7.71756 13.7478 2.01864 20
484 1 13.1645 8.29687 -14.7153 19
485 1 1.63023 -3.40874 -22.9909 15
486 1 -1.65418 -10.4954 -9.76106 20
487 1 -6.63351 -3.47989 -19.4626 11
488 1 15.377 1.70747 -2.6299 16
489 1 17.8485 3.13554 -7.4582 14
490 1 11.2951 -1.9103 -12.5066 19
491 1 10.7318 9.15769 5.20674 20
492 1 7.19245 -9.24705 -14.7717 20
493 1 3.93723 3.27104 -24.1319 10
494 1 14.3867 14.7256 3.13588 10
495 1 11.6353 14.645 7.78331 13
496 1 20.3422 5.59818 -7.89168 8
497 1 12.0552 0.727103 5.81953 16
498 1 17.6745 4.11634 -13.319 14
499 1 12.4114 6.67512 4.45384 20
500 1 17.2333 4.00096 6.41393 12
501 1 18.1676 8.19234 -9.16947 13
502 1 2.83859 -1.24124 10.4905 17
503 1 15.4788 -1.77743 -10.8061 19
504 1 9.22974 6.2483 3.73898 24
505 1 -7.11821 0.153745 -12.4037 19
506 1 18.3311 6.9095 -3.09152 13
507 1 -10.8308 9.95612 3.87112 12
508 1 12.1057 15.0977 4.76383 16
509 1 11.5545 1.99335 11.2881 12
510 1 2.90476 8.87711 1.86055 20
511 1 0.146334 15.9648 1.82845 14
512 1 1.10267 -14.2413 -6.88195 21
513 1 -3.4408 10.3756 -9.03298 19
514 1 18.5167 5.37743 -10.8433 11
515 1 13.8582 -0.33609 -17.6703 11
516 1 5.51695 18.574 -7.27549 14
517 1 0.0435994 -13.1753 -10.2445 21
518 1 12.8311 -2.68426 -19.9602 14
519 1 -14.0777 0.354882 -1.68012 9
520 1 -4.69672 6.80325 -16.5809 17
521 1 4.54691 -16.0218 -4.9655 17
522 1 -1.85929 4.73461 -16.6619 19
523 1 -12.3431 4.46348 -10.4765 11
524 1 11.9387 -8.68518 -0.668372 12
525 1 13.918 15.057 -3.72401 20
526 1 3.0501 -7.34266 2.3984 19
527 1 -12.0319 2.55957 -13.4852 17
528 1 7.3423 -2.60622 -21.3894 18
529 1 4.33955 -0.266637 8.04547 20
530 1 10.9924 9.36981 -20.0054 11
531 1 14.6996 3.41362 8.35754 15
532 1 10.0213 6.70315 -11.4903 18
533 1 14.6837 11.1227 -5.56738 17
534 1 5.06017 -14.0804 -12.7313 15
535 1 -8.16226 -0.528935 6.56788 19
536 1 16.4191 2.22633 0.424085 16
537 1 0.616814 12.8022 8.48189 14
538 1 11.2127 12.7983 -15.5854 18
539 1 -11.6329 9.21371 -13.2248 11
540 1 9.87866 10.5926 -3.01721 19
541 1 -2.09016 -13.9599 -7.80975 17
542 1 12.9341 -1.39996 1.5746 16
543 1 11.977 17.7961 -1.34631 15
544 1 -0.669608 6.00845 4.88532 22
545 1 -8.48348 -4.48218 -3.79636 20
546 1 -8.73801 0.377883 -15.7684 18
547 1 7.73823 3.01378 4.3046 19
548 1 -3.70164 -9.80036 9.16313 10
549 1 6.53944 2.07763 7.42602 18
550 1 -4.92141 13.1111 -8.97385 19
551 1 3.05843 -0.458625 -22.4691 18
552 1 -8.75218 0.68479 1.4278 19
553 1 15.7551 2.78819 -14.9053 13
554 1 9.79833 -7.67832 -15.2713 21
555 1 7.57831 7.44361 1.53228 21
556 1 -9.59619 2.25809 7.94493 12
557 1 10.9252 14.0693 1.54652 21
558 1 2.84748 -4.50716 10.1729 9
559 1 1.39284 6.5479 7.41846 20
560 1 3.02321 -3.5852 -25.6958 10
561 1 -5.85675 2.02537 9.38232 11
562 1 3.15964 3.43079 7.69138 17
563 1 -5.44448 -10.7745 1.35116 22
564 1 15.413 6.30203 -8.01437 17
565 1 9.35161 -13.935 -7.49281 18
566 1 6.48991 11.9878 -5.26879 21
567 1 13.658 18.4957 -4.1805 10
568 1 6.43755 0.752847 -24.2437 9
569 1 6.67245 16.4571 -8.95966 15
570 1 13.8494 9.06339 -2.92083 18
571 1 -3.3006 -7.70791 -9.17193 21
572 1 0.907585 -0.837184 -25.3198 10
573 1 -11.6286 12.8993 -8.2591 9
574 1 12.4607 -2.76724 -15.628 20
575 1 12.6637 6.1046 -16.3264 18
576 1 18.8687 10.5284 -11.2204 10
577 1 14.3797 6.43003 9.94205 12
578 1 11.7662 3.51441 4.00127 18
579 1 -0.0328058 -10.3137 6.18672 13
580 1 0.416524 12.4317 -18.4245 14
581 1 4.20702 16.4761 5.75813 8
582 1 12.3132 -5.63196 -19.5698 15
583 1 12.0909 11.6357 -8.21933 19
584 1 9.83944 12.4497 -0.522401 18
585 1 17.9378 -4.46238 -8.51768 14
586 1 7.35807 5.88995 12.524 12
587 1 -12.6621 0.777403 1.33684 18
588 1 3.95478 -16.6001 -7.93721 19
589 1 -6.85021 14.7747 -5.75029 13
590 1 7.54927 13.7962 -3.24128 16
591 1 -11.5523 -4.55585 -2.57858 13
592 1 -0.118284 6.13629 10.2741 9
593 1 -2.9397 4.71715 -23.8608 10
594 1 -0.317989 9.54586 -18.9313 13
595 1 3.83833 -13.4176 -4.94068 19
596 1 9.21262 7.22042 -14.4419 16
597 1 -10.0702 10.0429 7.03588 6
598 1 4.29169 -3.37821 -21.0176 17
599 1 5.57052 -9.68387 3.53664 11
600 1 6.21143 17.624 -2.60916 15
601 1 3.29787 2.23922 10.3237 18
602 1 -3.85599 -1.38081 -19.7647 17
603 1 -3.29575 -4.69285 -19.5464 15
604 1 -2.76407 -12.005 -12.5418 19
605 1 2.99532 17.931 -11.8277 13
606 1 -3.19087 11.4971 4.68381 22
607 1 8.27889 -10.5355 -8.24796 19
608 1 12.9752 -10.4631 -6.83989 14
609 1 6.77274 -11.3334 -1.34514 22
610 1 15.4522 3.21652 -9.4048 16
611 1 2.30774 -12.3032 -14.7379 15
612 1 -11.2935 -2.50545 0.89537 17
613 1 1.68414 -17.1256 -6.36873 11
614 1 -6.04169 -9.44315 -9.47267 17
615 1 -10.5188 3.24615 1.19956 20
616 1 -4.38147 -13.5908 0.725844 13
617 1 13.8714 4.76636 -14.1582 20
618 1 -3.73385 15.0681 -4.8431 14
619 1 -15.0377 5.78414 -2.5375 11
620 1 11.6263 -2.55289 -0.628993 20
621 1 -9.84314 -2.25438 -14.8305 16
622 1 10.7457 4.16331 -14.0216 24
623 1 9.57083 14.2686 4.51628 16
624 1 -11.0015 5.55995 -13.8632 17
625 1 -10.6803 -6.63123 -11.5188 14
626 1 6.14349 5.68376 9.86553 15
627 1 6.80575 6.33049 -16.5884 20
628 1 16.1778 17.2645 -2.691 10
629 1 -1.85354 2.98242 4.54287 22
630 1 -2.04327 -15.2292 -10.9498 13
631 1 -1.96258 -13.0959 2.13376 11
632 1 12.7395 14.1397 -0.833404 19
633 1 8.63154 -4.65902 -14.2969 19
634 1 8.21838 8.97526 -1.09359 18
635 1 -6.96447 -5.47499 -1.28908 22
636 1 13.8281 8.85836 -18.0877 13
637 1 1.6177 -14.8427 -12.2005 14
638 1 7.32379 -17.2163 -7.1594 14
639 1 8.89335 -15.7042 -4.75068 10
640 1 8.55652 9.26652 -11.8708 18
641 1 18.2887 13.0079 -9.46767 8
642 1 -0.212353 -6.03503 -20.8331 15
643 1 0.435878 -1.6462 5.74 19
644 1 3.18245 3.10464 -21.3913 14
645 1 -11.7086 -1.23251 -17.5619 8
646 1 -8.69967 -2.8325 -6.66472 23
647 1 11.4338 10.3314 -16.5266 19
648 1 8.52556 -5.17507 -23.4986 9
649 1 9.7287 9.00803 -8.86725 21
650 1 9.85757 -5.68193 -0.173725 20
651 1 -6.76802 8.65277 7.64895 15
652 1 11.6195 -8.27361 -5.54362 15
653 1 13.3297 -5.2907 -0.316762 15
654 1 14.4959 -1.35611 4.25466 12
655 1 1.25967 13.0741 1.90371 19
656 1 -10.1597 3.87777 5.20286 15
657 1 -2.084 8.67363 3.58482 20
658 1 4.65922 -10.9454 1.22407 17
659 1 11.0735 9.92556 8.77975 16
660 1 -11.5309 -2.85476 -8.20416 12
661 1 9.84321 -5.56444 -5.63165 21
662 1 -6.70503 10.2152 -8.84061 18
663 1 6.37257 -13.629 -3.76773 20
664 1 5.89299 0.146137 10.7217 15
665 1 5.98522 15.0172 -0.674509 19
666 1 4.77865 -8.71046 -0.596075 20
667 1 0.948357 0.639443 7.97899 21
668 1 -11.7752 -9.32145 -6.85474 11
669 1 6.054 13.434 8.15261 15
670 1 9.06268 14.7431 -6.30557 19
671 1 -7.58648 -9.627 3.5168 17
672 1 -1.76 -16.02 -5.51144 13
673 1 9.45914 -1.55914 2.19829 19
674 1 9.02622 -7.11485 3.34752 12
675 1 9.30375 10.6249 1.94226 19
676 1 0.0782017 -6.97161 -14.7889 22
677 1 1.65481 3.47247 -16.9899 19
678 1 -3.16288 -0.470619 4.74694 20
679 1 -1.69124 12.6595 -3.75436 21
680 1 12.411 4.78707 -3.88649 19
681 1 8.19242 11.9795 -11.2242 17
682 1 -2.63472 8.30162 9.21507 14
683 1 11.7624 11.8917 6.76198 18
684 1 12.7398 2.46385 -16.6015 19
685 1 -3.24533 -11.3153 -7.18553 19
686 1 17.4114 8.17742 0.252931 10
687 1 3.60773 0.288354 -17.1014 21
688 1 5.05965 10.9414 6.85956 20
689 1 14.493 -9.17063 -10.1582 16
690 1 4.30633 5.02464 -19.5952 15
691 1 18.0614 5.53672 -15.8408 9
692 1 19.4717 -2.38761 -3.55095 7
693 1 8.24818 -5.33469 5.97363 11
694 1 -4.37578 -4.38077 -14.5173 19
695 1 13.283 9.12729 -8.14584 21
696 1 -17.4347 7.06537 0.215553 5
697 1 14.0149 11.1864 -15.4932 16
698 1 16.7251 10.1042 -2.74602 19
699 1 4.18899 0.0590753 -25.9755 10
700 1 -5.79101 14.5182 -1.19979 14
701 1 16.4148 10.8832 6.36105 8
702 1 15.9378 9.55458 -13.0993 20
703 1 6.37356 -0.573889 -15.8651 17
704 1 13.6684 -1.08222 -7.46371 18
705 1 -10.1777 0.213834 -6.90132 19
706 1 11.7109 10.4742 0.0131148 22
707 1 -8.60285 -8.24549 -6.61904 20
708 1 -2.67396 12.1743 -18.3889 11
709 1 6.5936 5.76971 4.58451 19
710 1 -12.8396 -1.25021 -14.6915 10
711 1 -8.49958 9.21753 -0.400195 17
712 1 13.3053 -6.6493 -16.4873 17
713 1 -7.81301 -9.10094 -12.2163 12
714 1 17.5609 -4.28711 -4.34078 14
715 1 -12.2766 3.87018 -6.88007 13
716 1 13.7969 12.1622 1.08488 18
717 1 -4.03049 -7.46259 1.10229 22
718 1 11.2318 5.37259 12.1599 12
719 1 15.4025 0.819474 5.85973 16
720 1 -8.94864 7.14599 -3.38706 17
721 1 2.93646 13.3024 6.77599 16
722 1 5.80749 11.5702 -13.1857 17
723 1 1.72677 -6.02704 -22.9071 13
724 1 -2.52176 14.9509 -2.5197 16
725 1 -7.61499 -13.0545 1.0495 10
726 1 12.3065 6.13917 -12.466 18
727 1 6.11533 12.6035 4.58608 18
728 1 18.0531 -1.55165 -6.22174 14
729 1 10.8233 -4.03702 8.18872 6
730 1 0.250615 16.9933 -18.2203 8
731 1 4.07792 14.041 -14.0941 20
732 1 -4.83043 2.2551 4.12726 21
733 1 17.9487 4.92557 -1.36729 13
734 1 -0.801359 -4.78959 -17.987 19
735 1 16.4197 8.3717 -5.18678 16
736 1 -11.7623 1.50345 -9.89262 18
737 1 0.740553 -7.49369 4.22006 22
738 1 10.2883 15.2399 -13.6614 12
739 1 9.1927 0.574331 5.15661 19
740 1 6.93866 -12.7447 -9.87528 23
741 1 -5.78173 16.297 -7.93898 11
742 1 -10.8487 7.29974 -7.36318 17
743 1 13.1794 1.61826 -12.4962 18
744 1 4.75785 -9.42442 -16.259 15
745 1 -4.9251 8.9432 -1.12717 23
746 1 14.7821 7.9927 -10.9372 21
747 1 9.62813 -1.81156 -18.9024 18
748 1 -4.62527 -8.08952 -18.7025 10
749 1 1.41782 -7.59149 -12.0234 20
750 1 0.638689 10.1228 10.1726 11
751 1 6.56527 -14.7964 -7.1111 22
752 1 1.77916 14.751 -19.6516 11
753 1 13.7693 0.81365 -9.89208 24
754 1 11.6667 7.40418 -2.68616 19
755 1 9.77724 -12.1466 -10.4997 21
756 1 10.4876 0.9751 -17.5004 19
757 1 16.3214 5.05507 -4.93312 19
758 1 0.513312 4.50137 -19.5636 17
759 1 -0.651164 -7.99362 1.44857 20
760 1 11.0405 11.0118 -13.0747 18
761 1 -9.66313 1.05842 -13.0293 17
762 1 -15.4229 5.68126 2.5323 8
763 1 -2.35017 11.2268 8.02127 24
764 1 -1.71042 -10.5479 0.49067 19
765 1 6.42605 11.8196 -0.939724 21
766 1 -0.662666 -13.4198 -4.22979 17
767 1 5.58815 13.2845 -8.22092 18
768 1 -5.53435 5.68254 6.31095 18
769 1 -8.57681 1.87098 3.71985 18
770 1 -13.0733 11.2943 -1.84994 12
771 1 -1.83876 -7.13348 7.5938 15
772 1 5.27625 -14.7548 1.62841 12
773 1 14.1785 8.59681 8.4024 14
774 1 7.1688 -10.1141 -11.6178 20
775 1 5.07419 -9.71306 -19.9404 13
776 1 -1.13197 0.93806 -19.3758 18
777 1 -2.42705 7.24754 -18.6356 15
778 1 10.2342 17.4045 6.82881 9
779 1 -10.1037 -3.07653 6.64221 14
780 1 -1.64929 7.29534 -14.9413 23
781 1 -14.0959 7.24586 -5.89934 10
782 1 11.9765 12.8558 -3.64903 17
783 1 -6.09244 -14.2957 -1.54689 13
784 1 15.882 14.6612 -0.352065 12
785 1 -9.1711 -10.8888 -8.84128 12
786 1 6.85781 17.6418 0.482743 15
787 1 -1.92315 0.513798 7.18743 18
788 1 -0.517624 -14.4682 -13.8826 16
789 1 16.1659 4.46534 3.10904 14
790 1 10.6397 -18.1091 -10.2322 4
791 1 8.18898 8.02532 6.79082 17
792 1 14.5074 -0.677864 -13.2209 19
793 1 8.06076 -8.16469 -6.65922 20
794 1 5.33796 3.34534 -16.6108 18
795 1 -6.38026 4.17326 -15.7768 20
796 1 -4.38858 6.46695 -21.1899 11
797 1 -3.71537 2.98901 7.14077 20
798 1 13.8538 -4.39617 2.83994 9
799 1 -7.08207 -7.12199 -4.29542 22
800 1 13.98 -1.09623 -2.20742 17
801 1 1.8695 7.42059 -14.2262 19
802 1 15.509 7.34142 -1.39477 18
803 1 3.74323 17.4016 -0.98054 11
804 1 -7.25543 -7.55328 0.731057 20
805 1 12.3994 -11.3433 -12.5415 10
806 2 -6.74577 0.260526 -14.525 17
807 2 -8.54478 9.26167 -9.64162 21
808 2 1.94372 1.53196 -17.5816 18
809 2 -2.1805 6.53735 3.95382 24
810 2 3.30558 -3.76793 -15.9066 21
811 2 -6.89402 -1.90188 -12.8405 20
812 2 4.99645 3.58495 6.73241 18
813 2 6.3804 1.73433 11.5194 14
814 2 -8.78439 -10.5587 -3.09419 13
815 2 -11.59 3.25801 -9.02119 16
816 2 2.95776 15.7592 0.155819 19
817 2 -10.8829 -0.0744526 -5.05473 15
818 2 5.3322 15.0773 -8.01945 19
819 2 10.9942 6.71886 -0.47788 19
820 2 1.532 17.4754 -13.1828 12
821 2 17.9597 9.69236 -12.654 15
822 2 -8.27679 -1.68426 -15.7 18
823 2 -6.21995 -7.52174 -17.5634 11
824 2 7.65343 2.79504 6.19037 16
825 2 10.9331 -1.46428 -14.6995 19
826 2 6.87906 -13.7976 1.13204 12
827 2 -8.56052 7.56246 -7.05745 19
828 2 -13.2059 2.84994 -12.1818 12
829 2 18.5201 7.84822 -4.57517 12
830 2 12.7132 -7.06473 -14.5654 14
831 2 -5.37896 -15.2956 -5.46071 12
832 2 -10.2481 -5.30077 -4.21433 17
833 2 -0.539098 -11.1844 -4.41568 19
834 2 13.1137 0.743807 1.8747 20
835 2 -1.5448 -11.3506 -13.5131 21
836 2 7.4513 0.929826 4.04955 21
837 2 2.86999 13.1261 -15.1538 19
838 2 8.83968 -15.9996 -6.83197 14
839 2 -8.02342 -9.12976 -9.70453 18
840 2 -2.03631 3.63246 7.65864 15
841 2 -10.4726 9.54122 -0.0228286 19
842 2 3.2605 1.4275 8.37835 20
843 2 -5.06658 9.60171 -9.59745 17
844 2 12.8961 -6.84528 -5.96189 18
845 2 1.71011 13.3343 -10.8705 18
846 2 13.2128 13.7254 -2.53993 18
847 2 13.1117 17.5901 0.273727 11
848 2 12.4219 -0.269704 -12.7394 20
849 2 -5.92768 7.82535 5.93742 20
850 2 6.5824 4.16362 -17.6029 20
851 2 -1.0287 11.2842 -18.6928 14
852 2 14.2762 9.61366 -9.81071 20
853 2 -1.07128 0.910569 8.8839 15
854 2 -14.0977 9.69934 -1.77579 10
855 2 15.998 7.79538 -12.4413 21
856 2 -6.48419 -7.08616 5.79501 21
857 2 3.82871 -8.40432 -20.0971 17
858 2 3.76041 -7.26761 -23.3541 10
859 2 -8.15765 -11.9485 -0.406893 13
860 2 13.2822 9.7322 -6.40521 19
861 2 -4.00694 10.3648 -0.353715 21
862 2 -2.9062 -8.57936 -12.9816 19
863 2 -0.161387 16.8129 0.270622 9
864 2 8.061 0.0444821 9.35319 15
865 2 6.19475 -5.67978 6.00534 14
866 2 16.0625 8.24291 1.46819 14
867 2 11.1349 14.7252 -15.4016 13
868 2 -10.0037 1.16611 -8.86421 16
869 2 13.2771 8.37613 4.21104 18
870 2 12.7779 -5.84675 -9.22695 23
871 2 8.68048 -8.8514 -13.6851 19
872 2 2.35334 10.3587 9.47011 13
873 2 9.75396 -7.63351 -6.12217 19