ITEM: TIMESTEP
4000
ITEM: NUMBER OF ATOMS
2000
ITEM: BOX BOUNDS pp pp pp
-30.0 30.0
-30.0 30.0
-30.0 30.0
ITEM: ATOMS id type x y z Coordination
1 1 -7.70422 4.56892 -12.3937 17
2 1 -4.33994 -10.9886 -11.2225 18
3 1 2.94055 17.5813 9.66293 10
4 1 7.46426 -15.0826 2.54144 10
5 1 -10.4842 8.11341 -1.94981 19
6 1 9.05916 -11.1759 -14.3136 10
7 1 -15.7078 4.56027 -6.61039 9
8 1 -1.78811 -5.89485 9.29273 14
9 1 -6.41173 1.95261 -12.5684 18
10 1 -11.7249 -8.89053 4.87261 19
11 1 14.7644 4.16574 -9.42917 10
12 1 0.0746801 -11.1245 0.67424 23
13 1 -11.7388 -8.08739 1.16556 22
14 1 2.19987 5.23249 16.8954 12
15 1 2.04459 11.9391 -11.6294 19
16 1 2.44998 0.948304 12.2082 18
17 1 -10.3561 3.89355 -14.6521 9
18 1 -11.3026 -0.454913 9.24266 21
19 1 13.0937 5.97043 6.61341 16
20 1 3.1131 9.25753 -12.6091 17
21 1 3.50303 4.31123 -16.0041 19
22 1 12.9055 1.70624 11.0381 18
23 1 -12.0901 4.04214 -11.9589 11
24 1 -10.634 10.0495 10.6811 14
25 1 9.16806 -13.284 -0.44124 12
26 1 0.678863 -11.9312 -11.2031 22
27 1 6.16174 -10.8971 -0.0123884 22
28 1 -8.20002 -12.6179 -7.59214 12
29 1 -12.983 -4.90708 8.25687 13
30 1 2.21163 -5.90396 -12.1303 20
31 1 6.03751 -12.6676 -15.7877 8
32 1 -1.23645 5.4158 -17.5983 16
33 1 -0.168445 2.474 17.8551 12
34 1 2.04933 -12.6913 3.67393 15
35 1 4.94989 -2.7201 11.9598 18
36 1 -16.4234 -0.493571 1.91367 10
37 1 -16.3741 -0.202979 8.07079 9
38 1 -3.87735 11.753 -4.21963 17
39 1 -0.339216 -14.912 -12.0036 11
40 1 7.35512 -6.86738 -13.8214 16
41 1 -0.645306 -3.79751 11.257 17
42 1 -11.7373 1.65159 1.49546 21
43 1 5.18128 13.6291 -15.6259 9
44 1 -1.08725 14.1818 3.84191 19
45 1 -10.8731 7.70238 -7.44673 19
46 1 -1.08387 14.064 -0.608601 21
47 1 1.70997 -14.0177 0.86524 20
48 1 9.3512 -5.02069 -8.14796 18
49 1 5.22468 -7.22681 -17.3601 9
50 1 -8.42699 8.90392 12.8562 11
51 1 -11.6823 -2.83034 -10.3328 15
52 1 -6.85223 8.36458 -7.44014 19
53 1 -8.40077 -8.27797 5.70834 20
54 1 -2.98929 14.9969 10.9777 9
55 1 -13.5265 6.67276 -5.59729 16
56 1 -5.80158 7.25047 12.7498 17
57 1 -3.60488 -10.6033 5.8536 19
58 1 9.01999 -13.4919 -6.45536 21
59 1 4.5425 14.4651 12.9486 11
60 1 -14.5193 1.90899 -11.8061 9
61 1 -8.90993 13.6548 -6.14205 16
62 1 6.04657 7.95855 9.26481 20
63 1 11.8133 -3.58778 -8.80572 21
64 1 10.5981 -10.6928 -0.322225 10
65 1 -14.1571 -0.869482 3.20275 16
66 1 7.28873 16.7602 4.90124 16
67 1 6.55336 0.354569 11.979 21
68 1 -4.37773 -12.8286 3.37116 16
69 1 15.3784 2.91562 1.40462 16
70 1 -4.69556 12.957 9.34606 20
71 1 -3.35074 -4.95435 -9.6133 22
72 1 -15.4194 8.71546 6.22845 16
73 1 -8.65289 11.0435 -1.7664 20
74 1 -1.86189 9.71707 -9.61694 20
75 1 11.0421 12.5927 -10.0403 12
76 1 5.31681 -7.985 8.26968 15
77 1 -2.3412 13.9989 -7.44421 14
78 1 -9.30801 14.8078 5.84543 11
79 1 -7.91627 -3.76344 12.2771 13
80 1 -5.32235 10.9693 3.2971 19
81 1 -5.05509 -7.01437 10.2501 20
82 1 11.8966 -9.00359 -4.73224 17
83 1 -9.69504 2.0815 3.82452 23
84 1 -10.1356 -13.5331 1.98996 12
85 1 11.3555 -7.09849 -7.16476 22
86 1 7.03428 0.947807 -9.3169 25
87 1 -2.72298 2.62088 -17.6466 16
88 1 -0.406249 11.6746 1.41598 23
89 1 -6.89696 6.29406 -9.89717 18
90 1 1.84528 10.3796 15.117 14
91 1 4.15784 16.4642 -10.3091 15
92 1 -12.8601 11.9206 2.42488 14
93 1 -3.90046 -7.65777 12.804 11
94 1 12.4765 1.07916 8.39011 17
95 1 6.61276 -5.1387 -9.1264 20
96 1 7.37528 -1.54999 14.6063 13
97 1 -8.75068 -6.11772 -1.73537 19
98 1 -8.16912 -8.44341 -5.24784 18
99 1 12.1722 -8.48951 0.662287 13
100 1 8.4064 5.61326 -16.8863 9
101 1 7.94407 15.6359 -2.60547 14
102 1 -7.88698 -11.5808 12.1757 9
103 1 -9.60017 -12.8199 9.45189 12
104 1 3.89805 -10.6819 -14.8867 14
105 1 13.0581 -9.75103 -2.54782 13
106 1 0.195805 -15.7215 3.27701 13
107 1 -6.4859 -9.27754 -2.08735 20
108 1 15.6488 4.88123 6.86901 10
109 1 15.6444 -6.13378 -7.23511 13
110 1 -14.8067 -4.26624 2.47516 12
111 1 11.1641 11.2217 4.37636 21
112 1 15.0289 12.4997 1.13514 8
113 1 -5.78369 4.2709 14.7813 17
114 1 -5.26046 10.161 10.2672 20
115 1 -5.56197 12.4458 -6.48597 20
116 1 1.28437 -8.41441 -11.7513 22
117 1 6.35367 -13.0273 -12.7258 14
118 1 1.99394 14.7019 -15.7129 8
119 1 11.9064 -4.97291 9.01405 11
120 1 3.4931 1.64566 -20.3812 8
121 1 -2.27437 11.4129 -7.16592 17
122 1 10.0991 3.77898 -7.37217 17
123 1 -10.1119 12.3164 -4.07144 13
124 1 -7.99847 15.6215 -3.54081 10
125 1 6.821 2.57829 -11.6664 23
126 1 8.47901 -10.4916 4.62772 11
127 1 -7.62475 14.4825 8.5174 14
128 1 13.0307 6.08665 -7.72351 18
129 1 5.40273 13.7698 -2.27838 18
130 1 -3.13318 16.7387 -1.6552 11
131 1 7.92225 10.4332 -2.57217 17
132 1 0.204885 12.7399 -9.04042 18
133 1 4.2292 19.9305 -8.10925 6
134 1 4.55906 11.378 -13.3331 16
135 1 -13.932 -9.50898 2.651 13
136 1 -13.0622 8.45235 0.466771 17
137 1 -4.56881 -0.127763 -11.603 18
138 1 -0.359636 -7.20428 -14.365 15
139 1 10.2086 16.435 6.51803 10
140 1 -2.04074 16.543 1.84646 15
141 1 -11.8701 -2.62359 -4.58836 21
142 1 -9.25685 14.1569 2.48817 12
143 1 17.302 -3.58907 -5.37901 10
144 1 -8.02788 2.87344 -15.889 11
145 1 5.07695 4.84955 14.7091 17
146 1 4.3473 17.1754 -1.13589 17
147 1 -1.96676 8.66945 6.25479 22
148 1 1.51369 -7.07143 -16.9697 11
149 1 -5.47091 14.8686 6.49447 12
150 1 0.887956 11.5869 -6.02459 18
151 1 2.95498 -6.92144 10.5022 14
152 1 -12.7399 -3.28293 4.73455 19
153 1 -1.66647 -11.6206 -12.9838 14
154 1 -7.39036 11.7794 -8.84335 17
155 1 -3.07835 -9.73198 2.78972 20
156 1 4.82792 -16.6768 -6.87863 10
157 1 -3.92492 12.8044 -13.6954 11
158 1 -14.8529 2.68704 7.02065 15
159 1 11.477 8.35199 -6.14157 18
160 1 -10.2766 3.68931 11.0592 18
161 1 0.305947 -9.45236 9.68845 12
162 1 0.736759 16.7563 3.482 17
163 1 -0.684796 8.35161 9.21233 20
164 1 12.3172 4.58669 12.9655 15
165 1 -7.31937 12.7315 1.1657 16
166 1 13.9973 -6.20291 -9.67813 15
167 1 -5.87079 14.0041 11.6421 11
168 1 14.5336 -2.71538 0.839502 17
169 1 -15.5612 1.40241 4.69475 15
170 1 -5.98269 -9.84551 3.64763 18
171 1 5.76877 9.78638 11.259 16
172 1 -14.1552 -0.695955 -4.14049 19
173 1 -1.62301 -11.7152 -2.78223 21
174 1 -2.24122 10.489 3.70626 20
175 1 5.75376 16.2249 10.9869 9
176 1 -5.27807 9.22389 -9.71824 16
177 1 -13.6865 -4.06423 -7.82675 11
178 1 -9.21725 -3.4126 9.44475 19
179 1 -0.382113 -9.43998 3.43245 17
180 1 4.6456 -14.5026 3.54967 14
181 1 -11.0339 12.6032 5.20599 16
182 1 14.3921 -5.93726 2.78406 11
183 1 -4.66114 -4.45277 -17.1351 12
184 1 3.13248 2.5543 9.67931 20
185 1 8.47441 -15.9963 -1.66448 9
186 1 -1.38462 5.84117 -12.7263 18
187 1 0.654217 -10.1785 -14.7407 15
188 1 8.75233 3.05925 -13.6815 14
189 1 3.09345 7.24159 -14.7455 19
190 1 -4.86874 -2.52419 -9.42273 24
191 1 -2.41435 14.9639 -11.3851 8
192 1 -10.2765 -10.2363 10.1279 13
193 1 10.6548 15.456 -4.40997 12
194 1 -3.37509 3.00662 17.2526 13
195 1 -5.57133 14.9173 -5.65591 18
196 1 7.74224 2.8368 6.85818 20
197 1 -1.37332 -5.52955 -12.21 24
198 1 -1.37207 12.2339 -11.5678 19
199 1 3.59751 6.88658 -8.94551 22
200 1 -6.71419 -11.371 6.80162 18
201 1 -7.88759 2.56697 6.73862 17
202 1 -7.5437 4.40846 11.1746 20
203 1 2.00914 -10.6613 -9.39226 21
204 1 -3.77857 -15.383 -1.19787 17
205 1 11.4178 -12.3026 -5.80536 13
206 1 12.1207 7.50619 12.4515 9
207 1 8.27012 11.9314 -10.9187 17
208 1 1.20995 11.3653 -1.66117 20
209 1 -11.4946 10.4456 -0.867491 14
210 1 1.21919 5.44283 9.39554 23
211 1 7.44839 -15.7284 -4.66801 14
212 1 11.2467 0.0838099 -2.05175 19
213 1 -12.4338 4.77679 2.84397 20
214 1 -9.97881 -5.60941 -4.64396 22
215 1 7.26389 5.65328 -12.2984 21
216 1 4.9703 -4.48122 9.89551 23
217 1 10.6103 11.7257 -13.3701 10
218 1 -1.57988 0.00806419 -12.5099 23
219 1 0.528342 -18.1341 1.01365 11
220 1 10.1141 1.05718 -8.69257 22
221 1 -9.70136 -4.20941 3.74395 21
222 1 3.66168 -12.3192 -5.07379 19
223 1 -8.4267 -2.6079 -9.55064 19
224 1 9.06698 14.3627 -7.47227 18
225 1 2.66491 -0.735073 -15.0469 20
226 1 4.32017 8.377 15.1528 17
227 1 15.7276 0.909677 -0.908568 15
228 1 10.3634 -5.57057 -11.0437 18
229 1 -7.33155 -1.02947 -12.6734 20
230 1 -12.3199 2.54717 -9.45151 15
231 1 -5.68057 -12.6703 9.37379 12
232 1 9.98527 0.548005 6.19312 16
233 1 -4.58883 -6.20631 -12.4221 20
234 1 -0.506507 8.19071 -15.0449 16
235 1 3.03039 11.9622 1.54488 20
236 1 -6.15746 -3.64198 9.43361 16
237 1 -9.98964 -8.43225 -10.4808 9
238 1 -6.33503 -3.80897 -12.1039 17
239 1 -2.78661 10.0742 -14.945 13
240 1 -5.98075 -8.77132 -8.50809 17
241 1 8.55189 -4.09026 -14.0591 17
242 1 15.5149 -3.33559 -8.25841 15
243 1 11.7685 5.24883 4.11121 18
244 1 -7.68621 -6.19429 8.79346 21
245 1 0.686814 -10.8218 -4.62832 20
246 1 6.60316 7.30512 15.9015 15
247 1 -5.78296 -15.2597 4.72656 13
248 1 1.42164 -11.8085 -1.71843 18
249 1 -0.128361 16.337 -3.47817 13
250 1 7.13807 2.97464 -16.2418 15
251 1 -5.02182 -2.52139 -14.8052 17
252 1 -9.89918 -6.80137 10.4381 17
253 1 1.3879 7.59599 14.9156 18
254 1 4.50338 -11.85 -2.4905 17
255 1 -2.94253 -13.62 -11.0967 19
256 1 -12.765 6.94899 -9.21114 9
257 1 9.68565 5.93022 7.07685 22
258 1 -5.02529 3.77581 -9.6646 23
259 1 -0.164743 8.51049 -11.5319 19
260 1 7.50598 -11.7402 -9.53577 20
261 1 -2.37091 16.3895 -5.19321 8
262 1 1.36724 10.9756 3.80762 20
263 1 9.64434 2.38036 3.51283 19
264 1 -11.4549 -0.443912 3.74492 20
265 1 2.67689 -3.37158 9.32573 17
266 1 -8.45814 9.65319 5.39312 18
267 1 3.22176 -2.79316 -11.6933 25
268 1 15.6575 7.84081 -1.34214 15
269 1 3.30261 -11.6083 0.897736 22
270 1 -3.43836 -0.125023 15.3926 14
271 1 -14.9629 -3.21762 6.8615 11
272 1 1.20041 -17.5097 -7.00389 11
273 1 -8.78416 5.50709 13.7126 14
274 1 -10.1416 6.71615 10.8703 20
275 1 -14.1406 -2.08665 9.5732 11
276 1 -13.0785 -6.05487 5.9265 13
277 1 17.2397 -1.78785 -2.97089 9
278 1 -10.7927 -7.9992 7.90638 17
279 1 10.2639 -0.917194 -6.62588 20
280 1 11.4405 -11.6739 -9.03546 14
281 1 6.01923 17.7051 -4.08642 14
282 1 -7.17911 12.9303 -2.94221 21
283 1 9.17326 7.5683 9.14602 23
284 1 9.03711 -7.64275 -4.49754 19
285 1 -10.4753 10.355 2.71003 20
286 1 6.26022 -11.2384 7.99772 10
287 1 13.6706 -2.3105 3.43637 17
288 1 -1.20773 -2.43619 14.9649 12
289 1 -3.38851 11.8276 6.70847 21
290 1 8.1131 10.0736 14.7352 11
291 1 -6.86641 15.0539 -8.4525 8
292 1 -3.28271 -5.97376 -14.9518 19
293 1 2.67109 -13.2256 -13.8346 14
294 1 -9.18815 1.07649 10.2136 20
295 1 -16.9462 4.14367 2.95892 12
296 1 -5.52393 10.9216 -0.438297 20
297 1 12.2317 -2.08401 6.5006 17
298 1 -9.30752 -10.2219 2.42875 21
299 1 6.40646 -5.54857 6.72549 21
300 1 -8.06566 -8.79457 11.5952 17
301 1 -14.8451 6.29148 2.18314 17
302 1 3.98916 -12.737 -7.64214 17
303 1 -7.20097 0.570032 -9.41292 22
304 1 8.05687 -0.151802 -14.0784 16
305 1 0.974224 14.5019 6.62437 19
306 1 -10.4244 0.376236 -4.47594 21
307 1 3.42799 -9.72131 -12.0399 23
308 1 10.1162 5.73191 -13.9508 15
309 1 -4.44963 -17.0759 -6.64772 10
310 1 -13.0979 -6.18892 -5.23521 15
311 1 9.64999 6.92984 14.6454 13
312 1 11.7517 4.13935 -4.03775 21
313 1 -8.37987 3.81255 -9.33348 21
314 1 2.6539 18.0838 1.3548 13
315 1 -15.8402 -0.695595 -6.457 12
316 1 -8.82977 4.77263 3.50679 19
317 1 -8.11719 9.68949 1.6779 21
318 1 -5.30684 6.40467 9.58451 17
319 1 9.39484 5.61799 12.3883 18
320 1 11.6107 -2.2486 -3.89692 17
321 1 10.4492 -4.21025 11.8424 12
322 1 12.6527 -0.664548 -10.375 14
323 1 -7.6984 -15.7176 -5.45418 9
324 1 -9.64957 2.15672 -6.84151 24
325 1 2.61977 -9.5538 -6.69809 19
326 1 10.1542 -2.03411 8.65041 22
327 1 -10.5313 -3.4448 -7.08406 16
328 1 -6.16266 -11.3089 0.857049 20
329 1 -9.49856 -5.91064 13.0938 8
330 1 -2.21851 10.6307 -0.964813 22
331 1 -8.78093 -11.0946 -1.58558 15
332 1 7.05405 13.0434 14.932 10
333 1 -10.7736 6.12902 -4.71317 19
334 1 1.41576 15.7421 -9.13467 12
335 1 3.08358 12.194 6.24591 20
336 1 -11.9949 -8.85457 -3.96228 12
337 1 -2.94299 -8.60509 -6.8419 19
338 1 -12.5085 6.03706 8.28439 20
339 1 -13.5674 7.64141 -2.39124 15
340 1 6.8095 -10.1686 2.37319 14
341 1 -5.1438 -14.3532 -4.73141 18
342 1 12.0246 13.1987 6.46258 14
343 1 7.13614 7.47411 -14.421 16
344 1 -12.409 0.195836 -13.6989 12
345 1 0.940278 16.4557 -11.9092 9
346 1 -8.53607 5.31165 -6.77418 23
347 1 -1.43978 -13.197 2.13021 17
348 1 13.0107 8.45143 3.36123 20
349 1 1.10744 10.664 -14.1911 18
350 1 -15.7949 -1.0262 -1.47128 13
351 1 -3.29444 -12.0025 -0.322521 17
352 1 6.88563 -9.86189 -11.9681 19
353 1 -13.039 2.59811 4.24034 22
354 1 -12.651 1.23902 10.8889 15
355 1 -14.1455 11.0935 4.99267 13
356 1 -5.6326 2.12958 -18.4074 8
357 1 9.34883 -9.71687 -8.25096 17
358 1 2.92558 -7.61205 -14.9387 16
359 1 -3.27361 -3.42984 9.50245 19
360 1 -3.45714 5.01839 -19.5429 7
361 1 4.63619 -11.6365 3.52802 19
362 1 6.23994 14.7892 -5.53254 21
363 1 -13.1393 11.2682 7.76006 11
364 1 -5.17186 -2.20698 14.3522 12
365 1 -9.60681 -5.04297 -11.8302 13
366 1 -7.02784 -5.82529 5.15437 19
367 1 8.55266 -5.43638 9.35655 16
368 1 8.11458 -8.13627 6.95621 14
369 1 13.5043 9.84931 -3.50657 16
370 1 -1.78786 1.60614 11.8922 21
371 1 2.69414 14.0869 -1.10891 20
372 1 -0.812482 -14.4165 -5.28332 20
373 1 -3.4644 6.03438 15.1754 16
374 1 -2.06112 15.716 5.54581 14
375 1 -8.13441 -11.7764 -11.4617 10
376 1 9.75168 14.4195 -1.31672 13
377 1 4.55059 9.24777 5.65489 22
378 1 -6.68626 1.75699 9.56922 19
379 1 -8.72518 5.48137 8.1961 20
380 1 -7.76061 -6.52497 -7.15595 18
381 1 -5.50359 9.25923 5.53784 21
382 1 -4.98988 -11.7643 -8.29535 16
383 1 -2.23407 -8.67039 -12.6829 19
384 1 -8.00339 -12.6954 4.22398 19
385 1 11.4432 3.10506 5.33525 17
386 1 -3.74272 -4.17278 12.5653 17
387 1 -9.84255 6.51711 -10.2007 13
388 1 9.26654 7.15529 -3.44649 18
389 1 -8.17019 -13.4774 -4.18065 15
390 1 0.0750044 16.7963 -0.603753 15
391 1 -2.49286 11.0787 9.62576 19
392 1 -15.2631 -3.81618 -5.65795 11
393 1 4.32801 16.455 -7.56562 18
394 1 6.6507 12.9146 -8.25899 20
395 1 -6.60651 -5.70344 -9.84324 20
396 1 2.68575 2.34596 15.5978 17
397 1 -0.624529 -14.96 -9.00973 20
398 1 0.447688 -2.74502 -12.1596 24
399 1 10.2601 -12.0024 -3.22736 17
400 1 -11.6022 9.5673 6.01113 19
401 1 3.00769 6.03698 11.8481 18
402 1 10.1198 8.82381 -1.2786 21
403 1 -9.37347 9.33782 -10.1181 11
404 1 -14.7915 -7.28285 0.695035 14
405 1 3.93563 16.9784 4.33163 17
406 1 -3.21359 4.83374 -14.8192 21
407 1 11.1097 5.49312 -1.37052 20
408 1 6.93853 15.8652 -9.13185 16
409 1 15.1376 -0.642402 -5.33058 16
410 1 -0.343467 -0.843288 -15.1635 21
411 1 2.87589 -17.6654 3.25596 8
412 1 3.47241 -10.2239 9.89641 10
413 1 -11.7721 4.59185 -6.79317 21
414 1 -11.2172 -14.5961 6.52715 9
415 1 -1.52595 -11.8165 -8.90556 21
416 1 6.85848 13.8164 3.23008 21
417 1 1.84917 5.61493 -12.2672 24
418 1 2.47958 -2.57794 15.2198 9
419 1 -14.3199 3.94018 9.70859 12
420 1 3.21065 -17.3882 -4.19354 18
421 1 -11.8673 -1.94849 0.981576 16
422 1 13.5466 -9.1959 -7.97412 12
423 1 15.0501 -4.21628 -2.08875 13
424 1 2.24374 -7.71259 -8.97277 23
425 1 5.18683 4.06977 -13.7525 22
426 1 12.6253 -4.44874 -6.39613 18
427 1 -3.03443 3.1396 14.3959 20
428 1 7.87017 17.6784 -0.7 11
429 1 -2.77042 -0.266434 -17.258 14
430 1 6.12427 3.1979 -18.7337 14
431 1 -7.90165 -2.96232 6.74734 22
432 1 1.04549 14.9088 1.18563 19
433 1 -6.62155 0.0729616 -16.1689 13
434 1 -17.5958 2.04653 -0.062955 7
435 1 -5.25398 -11.846 -13.5748 10
436 1 -4.85318 -9.89816 14.3265 7
437 1 1.33387 9.52882 -9.01528 19
438 1 14.8519 5.75544 3.48058 19
439 1 14.8801 5.13066 -1.50595 17
440 1 -8.64908 -14.9721 -0.549627 7
441 1 1.40563 -4.38096 -18.6326 14
442 1 -8.11932 11.3534 10.1969 17
443 1 12.7803 -5.21428 0.449936 17
444 1 6.00136 18.6086 -9.34425 11
445 1 14.4552 7.60982 -10.1803 10
446 1 2.80978 7.66589 9.16168 20
447 1 -10.6465 3.93429 6.15408 18
448 1 4.64321 10.7758 8.48984 18
449 1 6.5851 2.18595 15.215 16
450 1 2.04992 1.95907 -14.5223 22
451 1 4.27506 -0.843744 10.0805 23
452 1 6.54225 12.0645 6.28489 21
453 1 5.97643 9.14332 -12.1943 21
454 1 -8.6085 8.18433 -4.23447 21
455 1 -0.754632 12.3526 -3.51976 15
456 1 11.1589 -1.2352 14.2298 10
457 1 10.001 4.11867 -11.0342 19
458 1 9.03497 -10.3854 -5.51225 21
459 1 10.757 10.0257 10.4259 16
460 1 -13.7021 -9.8171 -0.899129 13
461 1 -6.14405 10.4997 -12.0435 12
462 1 -10.6829 -0.52801 12.6095 11
463 1 -4.51541 12.609 -9.51601 18
464 1 7.3871 -9.54933 -3.03552 18
465 1 6.46216 -3.58055 -11.8037 20
466 1 1.0595 15.1504 -6.274 17
467 1 -7.9702 -3.33351 -14.911 12
468 1 5.84058 -13.3881 0.209578 17
469 1 -12.0669 -6.54649 -2.0083 19
470 1 4.6247 13.0752 -10.6148 17
471 1 -1.05579 10.0359 12.4915 16
472 1 -9.86742 -5.53793 6.73263 22
473 1 4.72362 -6.92249 -12.2444 20
474 1 0.605076 -6.82717 11.6919 9
475 1 -12.87 8.02237 3.01981 20
476 1 4.1408 7.26467 18.0567 10
477 1 8.25848 17.1408 -6.688 11
478 1 9.5018 -4.44929 -5.06962 22
479 1 2.26264 13.3731 9.72896 15
480 1 0.283433 3.68712 -18.7416 12
481 1 -4.98731 -10.3397 11.2473 18
482 1 8.79649 -6.3648 -16.0624 12
483 1 5.2404 14.9939 6.16086 16
484 1 9.33397 7.24281 -10.4733 19
485 1 -2.09233 -2.9778 -19.5154 8
486 1 -2.4063 -11.7546 -5.97444 19
487 1 -10.9509 -2.89999 -13.4954 12
488 1 11.7283 3.74373 1.6416 18
489 1 15.0541 2.55124 -3.65011 16
490 1 8.41447 -2.19577 -8.94179 20
491 1 12.3529 8.07792 9.28874 11
492 1 5.1822 -8.57149 -9.31024 20
493 1 3.0696 4.52426 -19.8466 10
494 1 10.0775 15.1871 3.6783 17
495 1 8.87138 11.4132 12.6116 13
496 1 14.9204 5.85132 -4.52893 14
497 1 11.4939 -0.110737 3.75483 18
498 1 12.2401 2.69892 -9.71842 20
499 1 7.48397 3.3571 12.5032 19
500 1 14.3627 4.3458 10.5411 9
501 1 14.938 11.6956 -6.03517 11
502 1 1.97325 -0.275469 16.3106 10
503 1 18.4134 -0.647699 -6.84299 5
504 1 8.08437 4.79211 9.47003 20
505 1 -8.44844 -0.760849 -6.8422 23
506 1 16.9108 6.04355 1.40386 10
507 1 -10.596 8.05611 7.89452 17
508 1 9.9705 12.9672 9.62626 14
509 1 9.89994 2.2511 11.6122 17
510 1 1.31691 8.71059 6.61744 22
511 1 -0.514513 16.5042 9.21939 10
512 1 -1.21186 -17.3284 -1.65787 13
513 1 -5.73284 9.34309 -3.94092 21
514 1 16.1567 9.93549 -8.16619 6
515 1 10.5182 -2.11772 -12.5237 16
516 1 2.32619 18.3392 -2.29524 10
517 1 -2.902 -14.5287 -7.47149 20
518 1 11.3051 -5.22922 -13.8276 12
519 1 -14.6515 5.13356 5.05115 20
520 1 -4.6672 5.24527 -12.1964 20
521 1 -2.50431 -16.9097 1.58637 13
522 1 -3.06053 2.91319 -12.3612 23
523 1 -14.9056 2.17415 -5.11827 14
524 1 10.4352 -7.97518 4.46459 12
525 1 11.2228 13.2091 1.74463 18
526 1 1.82295 -8.34095 6.83126 21
527 1 -14.44 -1.61534 -8.89473 12
528 1 5.51608 1.34088 -15.5066 18
529 1 -0.45323 4.36233 15.4916 22
530 1 7.42329 11.0806 -15.065 10
531 1 12.6562 1.83404 14.3809 10
532 1 8.23087 6.54921 -6.83573 19
533 1 11.7541 12.019 -1.3632 16
534 1 5.55567 -14.3145 -9.61858 14
535 1 -8.23123 1.87492 13.0707 19
536 1 15.1254 0.205445 5.65132 13
537 1 -2.95049 12.5348 12.4727 12
538 1 7.44215 13.3552 -13.0878 14
539 1 -11.6526 9.42195 -4.86386 15
540 1 7.88841 9.1678 1.59659 22
541 1 -6.38094 -15.5236 -2.26664 14
542 1 12.8777 -4.93095 5.4305 13
543 1 6.19671 16.893 1.71743 18
544 1 -2.05201 5.28656 9.45914 20
545 1 -10.7926 -5.14504 0.772891 18
546 1 -10.0413 0.644136 -9.58537 19
547 1 6.47841 2.16732 9.3902 20
548 1 -2.28154 -10.5366 11.3276 10
549 1 5.92136 6.52786 12.5251 22
550 1 -4.15216 13.9141 -1.58082 21
551 1 1.08523 0.847364 -17.3877 14
552 1 -9.78699 0.512767 7.00585 20
553 1 9.92611 0.758009 -11.4761 16
554 1 11.4069 -8.01438 -10.3263 14
555 1 6.4273 5.94047 6.77014 23
556 1 -11.1895 3.12436 13.6445 8
557 1 9.01082 13.6339 6.04837 22
558 1 1.7089 -2.47668 12.18 18
559 1 -1.43424 4.76336 12.1676 21
560 1 1.27594 -3.70187 -15.0163 21
561 1 -4.9529 1.32449 12.5489 20
562 1 4.87893 2.91551 12.5732 21
563 1 -7.73154 -14.2531 7.12275 16
564 1 13.0235 7.30304 -2.91613 18
565 1 7.18873 -12.6442 -3.3805 25
566 1 4.49856 11.2018 -0.614058 19
567 1 9.39259 18.2969 3.17319 6
568 1 5.79515 -0.193473 -18.4748 11
569 1 3.48535 16.0891 -4.1386 16
570 1 11.2063 9.86621 1.53505 20
571 1 -5.19069 -7.78984 -4.55123 21
572 1 0.0319476 -2.05193 -17.5686 20
573 1 -10.3907 12.2097 0.235195 15
574 1 8.183 -6.90602 -11.48 16
575 1 11.8362 8.09444 -12.6093 12
576 1 12.2335 11.0866 -7.27566 19
577 1 10.8337 4.07411 16.5515 9
578 1 9.55199 0.700571 14.9235 13
579 1 -2.63651 -11.9224 8.47449 14
580 1 -2.97086 8.9156 -11.9367 19
581 1 1.92802 15.4827 11.422 10
582 1 7.52826 -9.45903 -16.1516 11
583 1 9.54813 11.629 -7.40045 19
584 1 8.64535 10.9671 3.54276 24
585 1 14.0569 -7.57001 -5.09979 15
586 1 5.47716 10.3494 17.0872 9
587 1 -13.4294 -0.295064 6.0676 21
588 1 1.67507 -14.3495 -3.36746 18
589 1 -8.19966 14.8616 -0.414542 13
590 1 6.66584 11.454 0.588118 21
591 1 -15.3835 -4.40632 -0.447285 11
592 1 -0.790082 6.13866 17.5693 12
593 1 -3.76556 7.17499 -16.8041 11
594 1 -5.05022 7.60886 -13.9584 13
595 1 2.40079 -16.5714 -1.04179 18
596 1 6.78312 7.12973 -9.66878 21
597 1 -13.2753 8.14089 9.05799 17
598 1 3.98709 -4.50022 -14.2044 15
599 1 2.9392 -11.1791 6.45529 14
600 1 3.9856 15.0034 2.24581 19
601 1 -0.637864 0.917822 15.2714 19
602 1 -6.79347 -5.80967 -14.6268 15
603 1 -5.38036 -8.9506 -14.1862 13
604 1 -5.97441 -13.6957 -10.3671 14
605 1 7.25538 19.9117 -5.96805 7
606 1 -6.2552 11.7488 7.3286 20
607 1 5.44701 -9.35948 -5.91541 19
608 1 10.6917 -15.0081 -3.54759 10
609 1 5.49963 -9.66858 5.28481 19
610 1 15.407 0.894273 -8.37953 11
611 1 0.938537 -12.8978 -7.60798 23
612 1 -10.0548 -2.16149 6.29665 19
613 1 -2.74194 -16.2694 -4.03076 14
614 1 -5.05082 -10.5103 -4.54789 18
615 1 -12.0003 2.35305 8.32744 18
616 1 -6.16612 -15.3557 1.38729 13
617 1 13.5464 3.46283 -6.72496 17
618 1 -4.97724 15.4524 0.720649 14
619 1 -15.5139 9.70527 2.66003 11
620 1 9.27472 -2.24931 4.51148 16
621 1 -13.8376 -1.36184 -12.403 9
622 1 7.65431 4.53626 -9.18212 21
623 1 6.6154 12.6657 10.7073 16
624 1 -15.1119 1.96404 -8.38372 13
625 1 -10.9674 -7.54671 -7.34108 13
626 1 0.392198 7.30721 11.9322 20
627 1 4.41307 6.63846 -11.686 19
628 1 13.2492 13.838 3.93127 11
629 1 -3.55762 1.92365 9.41243 20
630 1 -0.0373416 -18.1383 -4.51958 15
631 1 -4.88553 -14.6284 7.32758 10
632 1 11.2536 8.97309 6.73976 17
633 1 3.48546 -4.80326 -9.24991 22
634 1 6.5685 7.941 4.36643 23
635 1 -10.0551 -7.08407 3.65968 19
636 1 9.14138 9.20812 -12.7171 17
637 1 -1.5109 -17.9832 -7.93009 10
638 1 2.35709 -19.3444 -2.28328 9
639 1 4.67487 -14.819 -2.84582 18
640 1 6.26558 9.39935 -6.91948 24
641 1 13.1387 13.1822 -4.34016 12
642 1 -2.08475 -2.75706 -14.996 22
643 1 -0.72871 -1.16952 12.6787 18
644 1 2.10641 6.82606 -17.3638 13
645 1 -9.42886 -0.0842718 -14.5441 14
646 1 -10.3713 -3.50564 -1.76651 21
647 1 3.1082 14.4382 -12.8175 17
648 1 4.44852 -3.61867 -17.7908 11
649 1 9.23725 9.5255 -5.35382 18
650 1 8.18695 -5.7308 3.44979 19
651 1 -8.0017 8.67511 8.47101 19
652 1 9.2007 -7.987 1.45865 15
653 1 11.554 -5.606 2.72735 16
654 1 12.5858 -1.7248 10.6378 12
655 1 -0.528793 12.1275 5.67953 21
656 1 -12.8453 6.24688 11.7059 10
657 1 -7.09507 6.41602 5.85605 17
658 1 -0.14176 -10.6516 6.92154 13
659 1 7.96511 8.12986 11.8344 19
660 1 -14.0744 -3.41651 -2.8053 17
661 1 10.3074 -7.81219 -1.97449 21
662 1 -7.74346 10.5464 -5.56212 20
663 1 4.31195 -16.0985 1.17522 13
664 1 4.39044 -0.333293 13.7897 19
665 1 2.58001 14.1027 4.24285 21
666 1 3.07945 -9.16396 3.43139 17
667 1 0.810065 3.50216 12.7207 20
668 1 -15.1094 -7.25359 -2.66619 12
669 1 1.06759 12.6546 13.013 10
670 1 7.10817 14.3864 0.526546 19
671 1 -11.7343 -11.9755 4.00556 14
672 1 -2.76198 -15.2657 4.35705 11
673 1 7.74073 -3.1575 7.16315 18
674 1 9.75797 -5.47379 6.09166 19
675 1 7.74055 9.11912 6.1696 23
676 1 -0.979979 -7.7557 -9.65908 20
677 1 0.116672 2.64998 -12.2595 22
678 1 -3.54449 -1.43376 11.9191 24
679 1 -3.11542 12.4978 1.32529 18
680 1 13.4685 0.389294 1.28576 18
681 1 4.53716 11.6253 -6.0274 16
682 1 -2.75707 7.53835 11.6457 22
683 1 7.91974 10.8943 9.45898 21
684 1 7.58371 -0.732955 -11.1274 20
685 1 -5.13835 -12.0278 -2.01558 18
686 1 16.0199 2.5426 4.27187 12
687 1 1.72422 -0.02667 -11.9504 21
688 1 3.1065 9.317 12.6045 19
689 1 10.0852 -10.7888 -11.4942 11
690 1 5.3137 5.94153 -17.2764 15
691 1 12.6723 5.59937 -11.1466 16
692 1 14.0222 -0.98669 -1.69488 18
693 1 3.26564 -5.37072 13.2651 11
694 1 -3.76685 -8.00249 -9.75276 19
695 1 9.97989 12.5726 -4.33672 17
696 1 -16.887 7.65248 4.27166 11
697 1 11.6772 9.16207 -9.58156 17
698 1 15.9883 8.9436 1.50474 15
699 1 3.1153 -1.26797 -18.6715 12
700 1 -7.38989 12.7684 5.13657 16
701 1 15.8647 7.43354 4.60283 12
702 1 12.5326 14.2001 -7.37488 12
703 1 4.97495 0.0425831 -11.8898 24
704 1 11.9491 -5.28324 -3.07171 19
705 1 -11.8025 -0.746634 -1.65637 19
706 1 10.1114 7.87948 4.20694 22
707 1 -11.2778 -10.8131 0.322318 15
708 1 -10.6473 11.1636 -7.41004 13
709 1 4.83546 5.15005 9.21235 20
710 1 -12.0679 0.0722856 -7.20744 19
711 1 -11.7484 6.55007 5.05623 16
712 1 11.0868 -8.76115 -15.2671 7
713 1 -8.77874 -9.71017 -8.45905 16
714 1 14.2587 -7.16958 -1.81942 15
715 1 -14.8546 3.16938 1.6585 21
716 1 9.69633 10.947 7.19465 20
717 1 -5.20749 -8.06251 6.45926 19
718 1 7.8518 4.30077 15.4461 14
719 1 14.9271 0.466519 9.21497 11
720 1 -10.3314 6.60007 1.07238 21
721 1 -1.08709 13.5863 8.41605 18
722 1 4.69037 10.1495 -9.68034 21
723 1 -1.62878 -4.83462 -17.5362 14
724 1 -4.10476 14.318 3.6247 16
725 1 -10.1185 -11.2247 6.55787 16
726 1 8.12224 9.55426 -8.88562 22
727 1 0.992833 10.7884 8.17646 16
728 1 16.9536 -6.31998 -3.55505 8
729 1 6.84488 -4.82675 12.2992 9
730 1 -0.266503 14.0636 -13.792 15
731 1 2.93747 13.5202 -8.01167 16
732 1 -4.84798 -0.943048 9.11018 22
733 1 16.1194 -0.0471438 2.52308 11
734 1 -2.94524 -3.15974 -12.5323 20
735 1 13.6314 10.1645 -0.087478 16
736 1 -13.927 1.95043 -1.92821 17
737 1 -2.96715 -9.20223 8.84151 19
738 1 6.02744 16.3965 -12.6092 9
739 1 6.98332 -1.65679 9.66118 18
740 1 2.25732 -15.0979 -6.17245 17
741 1 -6.12328 16.754 -2.25359 11
742 1 -13.2631 4.40951 -0.45409 16
743 1 13.1349 -1.28999 -7.16712 18
744 1 2.33953 -14.1018 -10.6826 16
745 1 -8.1818 7.62423 3.40226 17
746 1 14.3355 8.48366 -5.77633 16
747 1 6.9769 -3.40236 -16.6159 12
748 1 -7.35424 -7.83174 -11.4987 16
749 1 -0.124292 -9.3752 -7.34259 21
750 1 -4.78278 9.42905 13.154 11
751 1 6.81588 -12.083 -6.36977 16
752 1 -0.965152 12.4777 -15.9487 10
753 1 12.3915 0.882527 -5.19135 20
754 1 9.52587 6.39166 1.30741 21
755 1 8.13946 -16.4193 -8.13247 8
756 1 5.76416 -1.73161 -14.4022 18
757 1 13.0377 2.48067 -1.1494 19
758 1 0.431035 5.39474 -15.1448 22
759 1 -1.86366 -8.11233 6.48933 20
760 1 7.28635 12.2578 -5.20472 21
761 1 -11.7649 2.90908 -4.02722 17
762 1 -16.2064 5.98374 7.54375 12
763 1 -1.06658 8.23958 15.454 13
764 1 -7.03098 -8.90859 8.89135 19
765 1 4.94624 11.1512 3.69429 20
766 1 -0.860689 -14.2575 -0.776963 18
767 1 2.68841 12.6298 -4.1097 18
768 1 -4.00467 8.83786 8.37306 18
769 1 -7.20346 -0.953706 11.7138 18
770 1 -10.2811 12.7923 8.50037 11
771 1 -6.21286 -6.19484 13.8642 13
772 1 6.20161 -13.3436 5.45643 11
773 1 10.5698 3.78735 9.02139 16
774 1 6.87773 -6.58593 -6.44219 19
775 1 4.47839 -12.1443 -10.925 20
776 1 -3.81906 1.06592 -14.6067 20
777 1 -1.00205 2.95104 -15.1546 24
778 1 7.7658 14.8661 8.49006 14
779 1 -11.8713 -3.4202 11.1909 12
780 1 -3.23026 6.6137 -9.47808 20
781 1 -14.0317 5.01969 -3.58359 15
782 1 9.04419 12.2039 0.612466 18
783 1 -9.1152 -15.332 4.73 12
784 1 14.5404 11.1042 4.48261 12
785 1 -9.77473 -10.785 -4.62091 12
786 1 5.50967 17.6577 7.70349 12
787 1 -5.93572 0.962796 15.2911 13
788 1 -3.20296 -16.1617 -9.65014 13
789 1 14.3179 2.68688 7.3679 15
790 1 5.61997 -17.9816 -1.7319 10
791 1 4.05695 11.4988 14.3469 15
792 1 13.3335 -3.98214 -11.3393 13
793 1 6.78009 -8.12361 -0.689509 20
794 1 3.29292 2.98317 -11.7605 22
795 1 -9.76435 1.86444 -11.8526 21
796 1 -6.71049 5.66588 -15.2613 9
797 1 -4.06231 4.23245 11.4797 22
798 1 9.84421 -0.51939 12.0419 17
799 1 -8.05049 -8.76804 0.284371 16
800 1 11.6401 -2.24976 0.545161 19
801 1 -0.0280129 6.4818 -9.54142 19
802 1 12.8397 6.72181 0.580717 23
803 1 1.95472 17.3884 6.57072 13
804 1 -12.6897 -6.17356 3.0168 17
805 1 9.66711 -13.7315 -9.18875 12
806 2 -10.1259 0.161036 -6.9207 18
807 2 -5.56088 11.1009 -4.92761 18
808 2 0.280712 -0.894088 -12.9522 24
809 2 -2.90007 5.57155 11.2062 18
810 2 3.5175 -8.17747 -10.6876 21
811 2 -6.58415 -4.98852 -7.85466 20
812 2 2.03203 2.79827 11.5523 17
813 2 3.66375 1.9022 13.7758 21
814 2 -12.8103 -9.83735 0.919471 15
815 2 -14.6639 5.36464 -5.35369 12
816 2 0.94443 14.6639 3.31426 23
817 2 -11.5642 -0.0954969 0.234602 18
818 2 4.13559 18.0795 -8.56207 12
819 2 9.75315 5.96773 3.46488 23
820 2 0.791663 14.2611 -8.0162 14
821 2 10.7627 13.363 -8.19272 15
822 2 -12.2487 -1.63371 -13.4548 10
823 2 -9.30973 -7.02252 -11.3146 12
824 2 4.57202 4.96172 11.9055 20
825 2 8.56705 0.0092746 -9.75955 23
826 2 2.74175 -15.3415 0.113425 20
827 2 -8.20486 11.2624 -3.89592 19
828 2 -15.2271 2.82122 -6.77959 12
829 2 15.6309 4.93435 0.385741 15
830 2 10.3524 -9.95093 -9.71377 18
831 2 -9.42998 -13.5022 0.301971 13
832 2 -12.083 -6.56726 -0.255656 21
833 2 -1.42658 -12.7647 0.109309 19
834 2 9.91217 -5.46856 8.03061 16
835 2 -2.97558 -16.4821 -7.90468 15
836 2 3.54884 -1.0057 15.2094 14
837 2 2.07432 12.278 -9.79232 19
838 2 5.12824 -17.3863 0.0580079 11
839 2 -8.90828 -11.9202 -3.38086 10
840 2 -2.08569 6.91019 16.0026 11
841 2 -11.9768 8.37446 4.77258 20
842 2 0.946848 3.20355 14.7461 19
843 2 -6.69588 7.89237 -4.0145 20
844 2 10.3808 -8.88512 0.16678 16
845 2 -0.742312 12.551 -6.45269 17
846 2 12.9904 12.2105 5.11104 13
847 2 7.72117 17.3695 2.85022 14
848 2 9.82171 1.40631 -6.82429 20
849 2 -5.85571 5.08553 10.9125 17
850 2 4.75131 3.12638 -15.4584 17
851 2 -4.89183 8.94982 -12.6708 14
852 2 12.9977 8.19586 -4.58938 16
853 2 -3.52375 -2.91362 13.684 15
854 2 -13.6529 10.3992 3.20217 17
855 2 14.3893 2.58669 -8.11495 14
856 2 -9.21548 -7.34743 12.2056 13
857 2 3.46201 -8.90636 -13.722 17
858 2 2.70052 -3.18444 -18.7267 11
859 2 -13.6491 -7.69707 2.07242 16
860 2 7.74531 10.4838 -0.787286 18
861 2 -4.44364 9.16518 3.2299 19
862 2 -4.99049 -10.2825 -9.5697 19
863 2 -4.00319 15.1826 5.46022 11
864 2 6.38728 0.277059 14.3661 17
865 2 3.81228 -8.21835 9.02529 13
866 2 15.2295 3.25989 5.74144 13
867 2 5.95769 16.8964 -10.6507 12
868 2 -13.7644 3.0662 -3.74857 16
869 2 14.7546 6.14157 5.35694 15
870 2 9.31614 -8.32192 -6.54446 17
871 2 8.55191 -11.0578 -7.23872 22
872 2 -5.80064 12.0059 10.5339 20
873 2 6.91445 -9.41768 0.618655 17
874 2 11.2227 -6.12716 4.87156 14