ITEM: TIMESTEP
20000
ITEM: NUMBER OF ATOMS
2000
ITEM: BOX BOUNDS pp pp pp
-30.0 30.0
-30.0 30.0
-30.0 30.0
ITEM: ATOMS id type x y z Coordination
1 1 -9.85243 4.53705 -18.0404 8
2 1 -1.56189 -11.4043 -14.5188 19
3 1 2.52788 17.6752 4.99761 12
4 1 8.30718 -14.2589 -1.23235 11
5 1 -9.11103 8.33652 -4.19939 20
6 1 11.856 -9.75186 -15.9761 13
7 1 -14.2009 6.97094 -7.57381 10
8 1 0.222474 -3.12792 6.52 22
9 1 -6.1491 2.72757 -15.521 17
10 1 -13.4034 -10.4865 1.33243 6
11 1 14.3847 6.07269 -12.7591 18
12 1 0.671872 -10.8531 -2.59272 19
13 1 -10.0738 -8.17233 -1.10909 16
14 1 3.81607 4.16407 14.3847 12
15 1 2.21508 11.2285 -15.4474 19
16 1 6.90333 -0.200398 9.0438 20
17 1 -8.05326 11.9839 -14.0348 7
18 1 -9.63131 -1.79692 6.35866 20
19 1 13.6713 7.32383 4.27257 20
20 1 4.93063 8.84247 -14.5048 17
21 1 1.52661 2.65703 -19.244 16
22 1 15.7052 2.04198 7.93133 13
23 1 -11.0145 6.02335 -15.4429 10
24 1 -9.28819 5.7868 9.5048 17
25 1 10.9101 -11.9238 -2.16208 8
26 1 0.318691 -11.5277 -16.6831 15
27 1 6.87967 -11.1552 -1.2521 16
28 1 -6.96858 -12.1447 -10.8448 15
29 1 -10.741 -4.52096 6.84699 15
30 1 2.96006 -5.24377 -14.9725 19
31 1 8.97842 -10.6864 -17.0716 10
32 1 0.45039 5.37922 -21.0365 15
33 1 1.70852 2.21719 13.1197 14
34 1 1.42576 -14.8601 3.54065 12
35 1 7.64694 -3.09764 6.99738 19
36 1 -14.059 -0.767878 0.500268 16
37 1 -14.3199 0.93434 6.23872 9
38 1 -2.58344 13.0644 -6.61422 19
39 1 0.909758 -12.8187 -13.9278 16
40 1 8.16107 -5.05678 -17.1183 19
41 1 2.21726 -4.72617 9.02346 16
42 1 -10.856 3.41393 -2.70193 19
43 1 5.85462 10.1019 -18.5704 8
44 1 0.563863 14.544 1.0053 18
45 1 -8.92099 8.54756 -10.7392 20
46 1 1.04157 14.3663 -3.64747 19
47 1 3.80136 -15.2048 1.42612 12
48 1 9.66284 -7.07104 -12.7107 20
49 1 6.11009 -2.78169 -19.507 14
50 1 -7.44975 7.63487 11.2836 11
51 1 -11.1239 -5.72923 -13.3044 12
52 1 -6.00747 9.00596 -9.40293 24
53 1 -7.72996 -7.77606 3.64689 22
54 1 -2.55167 14.8314 6.699 14
55 1 -11.5832 8.47587 -6.92838 16
56 1 -6.64122 4.10931 11.0626 11
57 1 -1.63247 -13.018 4.11216 13
58 1 11.8343 -13.9889 -8.60404 9
59 1 8.3824 14.0624 10.5383 10
60 1 -11.0864 3.44716 -13.0006 19
61 1 -6.69819 14.3088 -9.45958 16
62 1 7.01783 8.57055 7.5253 20
63 1 12.1751 -1.79745 -12.6364 19
64 1 13.3272 -9.03387 -4.77575 14
65 1 -14.1786 -3.14642 2.42997 13
66 1 7.08078 19.2517 3.50899 10
67 1 8.78899 2.10846 8.88079 19
68 1 -3.71833 -10.4598 1.66076 21
69 1 15.5102 6.57125 0.884785 17
70 1 -5.23028 14.5904 7.77323 10
71 1 -2.15272 -4.24043 -12.3092 21
72 1 -14.2323 10.7544 1.67684 14
73 1 -7.53121 11.6692 -4.04282 17
74 1 -0.384136 10.0969 -12.0131 19
75 1 14.7499 12.5009 -13.1181 10
76 1 4.95533 -8.10368 3.30201 20
77 1 -2.14203 15.3708 -8.82818 14
78 1 -10.0323 13.5106 1.58966 10
79 1 -7.34885 -1.19345 9.29042 16
80 1 -4.14222 10.7017 1.95718 19
81 1 -7.45497 -12.2422 6.39246 11
82 1 12.6032 -5.76765 -3.50571 19
83 1 -9.51752 2.50547 0.555478 21
84 1 -8.28272 -13.5008 -2.12983 11
85 1 11.1275 -4.70668 -11.2494 20
86 1 7.87237 0.590453 -11.4775 22
87 1 -4.50106 2.22817 -20.1255 11
88 1 0.632052 12.2508 -1.83979 22
89 1 -6.40528 5.92383 -16.0031 13
90 1 2.27025 10.5288 9.53886 14
91 1 10.8757 14.6157 -11.5648 12
92 1 -12.6713 12.6084 -0.913855 9
93 1 -5.41005 -9.38213 6.42522 20
94 1 13.5912 2.75255 6.40428 22
95 1 7.94943 -4.65607 -12.8579 21
96 1 10.7652 0.598656 11.2072 14
97 1 -7.22456 -5.86124 -4.48124 23
98 1 -7.62991 -7.62677 -7.30377 23
99 1 12.2064 -9.09356 -0.80455 11
100 1 9.08662 5.91068 -18.5805 11
101 1 9.54193 15.3283 -6.39757 18
102 1 -5.39709 -10.3909 9.21907 13
103 1 -7.72443 -4.61975 5.45695 19
104 1 6.37179 -8.08442 -17.5851 17
105 1 16.0855 -8.47073 -6.81353 9
106 1 1.12221 -15.2299 0.202435 16
107 1 -5.92001 -9.10247 -5.0072 21
108 1 17.0016 6.51098 3.85572 13
109 1 15.3377 -6.40783 -9.60822 16
110 1 -12.6062 -3.24531 -0.556315 20
111 1 14.4265 17.4491 -3.07556 9
112 1 15.7049 13.033 -1.42535 9
113 1 -1.00332 3.73312 14.512 9
114 1 0.415155 15.0433 6.06036 16
115 1 -3.92135 12.013 -9.98232 21
116 1 1.08676 -8.01396 -14.2922 16
117 1 12.7857 -10.8508 -12.6335 11
118 1 6.59234 12.5932 -17.5963 8
119 1 14.9761 -2.48694 4.55339 12
120 1 4.1374 1.80111 -20.0844 16
121 1 -0.923117 11.9819 -8.94825 20
122 1 11.164 2.728 -8.74634 21
123 1 -9.72137 14.2859 -8.94895 10
124 1 -7.12195 15.026 -6.25599 14
125 1 8.06901 3.01588 -14.2349 18
126 1 6.62729 -13.5801 1.47722 16
127 1 -7.1209 12.3549 9.37494 10
128 1 17.2245 5.87412 -11.705 14
129 1 6.76244 13.778 -5.44742 19
130 1 -2.19305 15.6349 -4.55963 12
131 1 8.55751 11.1828 -3.76843 22
132 1 0.540096 14.3583 -9.66419 18
133 1 6.01146 16.064 -11.3954 17
134 1 6.52389 11.9034 -14.3335 18
135 1 -9.94106 -11.6125 -3.6832 12
136 1 -10.965 9.60349 -1.40609 17
137 1 -3.68783 0.433798 -14.8139 19
138 1 0.370991 -6.67217 -16.9463 17
139 1 10.3884 19.4069 1.93325 11
140 1 -0.659948 15.5234 -1.75942 16
141 1 -12.3987 0.272939 -7.44668 15
142 1 -9.03298 12.5081 -0.942578 15
143 1 16.7921 -2.91605 -9.28812 11
144 1 -9.2469 2.77212 -15.8681 14
145 1 6.76769 4.24715 14.004 10
146 1 8.45592 18.8915 -4.67941 13
147 1 -0.517185 9.78475 3.93696 21
148 1 2.14852 -6.276 -19.0811 16
149 1 -3.97694 15.2495 3.69606 11
150 1 2.83114 11.9379 -9.33043 19
151 1 4.42955 -6.5 5.66007 20
152 1 -13.1569 -5.67836 2.21011 15
153 1 -2.14264 -12.367 -17.6201 14
154 1 -5.10357 13.6754 -12.3556 13
155 1 -2.25001 -9.27173 -0.0449294 19
156 1 5.95173 -15.9567 -7.78587 19
157 1 -1.58006 13.2438 -14.9204 9
158 1 -13.441 3.40884 5.60706 14
159 1 13.8847 7.09914 -9.92649 17
160 1 -7.99154 4.74303 6.31063 16
161 1 2.96327 -7.65056 8.42901 12
162 1 3.58848 18.3505 -1.1101 13
163 1 0.67895 8.8568 7.34048 16
164 1 16.6776 7.70411 9.42887 10
165 1 -5.5339 12.5277 -0.878861 18
166 1 15.5877 -7.47813 -12.6186 9
167 1 -2.43574 14.336 9.77752 9
168 1 17.1783 1.2931 -1.55615 16
169 1 -14.8674 2.29322 3.12393 13
170 1 -6.26419 -8.86198 0.44194 21
171 1 7.36509 6.90187 9.97484 24
172 1 -13.7761 1.30552 -10.0327 15
173 1 -1.09096 -11.6021 -4.76692 18
174 1 -1.16102 11.4184 0.644251 20
175 1 5.56921 16.6832 4.40043 18
176 1 -3.43799 10.1304 -12.0525 20
177 1 -13.3064 -5.61959 -10.494 8
178 1 -8.69943 -5.42469 9.07629 13
179 1 0.667728 -9.08373 0.563755 20
180 1 6.79809 -9.8634 1.28227 18
181 1 -9.25397 11.489 4.13644 11
182 1 13.5524 -4.54099 1.66591 14
183 1 -5.58105 -2.65919 -15.0581 18
184 1 4.55198 2.22435 6.99392 19
185 1 9.82635 -13.7633 -4.41647 13
186 1 0.439676 5.56928 -15.2979 19
187 1 3.14155 -8.64298 -17.596 13
188 1 11.9977 3.8443 -18.7712 11
189 1 4.00011 7.27341 -17.0531 17
190 1 -3.76289 -1.93949 -12.5591 20
191 1 -0.886047 16.3339 -11.7837 13
192 1 -7.02186 -6.98155 7.04698 15
193 1 12.614 15.2981 -7.62714 12
194 1 -1.70868 1.57109 12.6943 13
195 1 -4.50674 15.6999 -7.1337 14
196 1 9.20855 3.59058 3.71486 22
197 1 -1.81993 -7.4864 -14.528 20
198 1 1.37931 12.3852 -12.1385 23
199 1 4.61707 7.24429 -11.7858 20
200 1 -3.04464 -9.97152 5.11864 22
201 1 -8.1068 3.28888 3.66813 19
202 1 -6.32807 5.86137 3.56344 22
203 1 0.12947 -9.9827 -12.2688 19
204 1 -3.98928 -14.2988 -1.84986 15
205 1 11.1977 -10.1775 -8.56028 20
206 1 15.2929 7.35568 6.8213 16
207 1 8.69642 10.3628 -10.2759 18
208 1 2.58854 12.0142 -4.23569 21
209 1 -12.1438 10.2646 -3.99527 10
210 1 2.18504 5.80818 6.65634 17
211 1 9.51146 -15.2412 -8.9126 11
212 1 12.6146 -0.026164 -4.26509 23
213 1 -11.3781 5.35401 -0.11614 18
214 1 -9.29523 -4.73814 -7.6186 19
215 1 9.09791 5.64575 -14.6447 18
216 1 8.46409 -5.63149 7.5454 12
217 1 12.1895 11.0496 -15.2071 15
218 1 -0.191704 0.296235 -14.9435 22
219 1 2.38737 -17.838 -5.02526 14
220 1 11.4856 0.466511 -10.8719 21
221 1 -9.72022 -3.25938 0.782899 20
222 1 3.0254 -11.7403 -9.2011 18
223 1 -8.47574 -3.09368 -10.5957 18
224 1 11.7833 11.751 -11.0819 19
225 1 4.54296 -1.52543 -16.9751 17
226 1 3.21865 8.02068 12.3139 16
227 1 16.1208 0.623318 -4.39309 17
228 1 13.2088 -5.6741 -13.0671 17
229 1 -7.43277 -1.6597 -13.1977 16
230 1 -13.9977 4.06385 -13.7913 9
231 1 -8.84203 -9.82081 5.3138 16
232 1 10.6506 0.71136 4.16935 18
233 1 -3.80953 -5.66844 -15.1359 18
234 1 0.0435558 9.48671 -17.6585 15
235 1 3.94484 12.4529 -0.876905 23
236 1 -6.16359 -1.9589 6.50242 18
237 1 -9.78736 -8.40364 -12.2845 10
238 1 -5.5982 -4.64936 -12.3322 20
239 1 -1.41828 7.48064 -20.1514 13
240 1 -4.45879 -10.7352 -10.149 21
241 1 11.6817 0.428731 -18.3792 12
242 1 14.7383 -4.06046 -10.9671 18
243 1 12.5816 5.886 1.82991 16
244 1 -4.64606 -6.65668 5.54268 20
245 1 0.860824 -10.2589 -7.55469 20
246 1 9.87395 7.88043 11.519 13
247 1 -5.83667 -17.7028 0.582552 5
248 1 2.19854 -11.627 -5.16131 20
249 1 2.38154 18.778 -6.87934 8
250 1 9.29157 2.12839 -19.8247 13
251 1 -1.30963 -2.40654 -17.6499 20
252 1 -12.5669 -9.45471 6.37738 5
253 1 0.651124 9.09896 12.1796 13
254 1 4.76943 -10.4426 -6.57799 20
255 1 -4.69416 -14.7713 -16.093 8
256 1 -8.93088 5.67396 -11.8388 16
257 1 10.9428 6.66302 4.68949 20
258 1 -3.88264 4.06807 -12.1802 20
259 1 1.949 8.53141 -15.7718 18
260 1 6.89554 -10.9294 -12.0143 16
261 1 0.233787 15.8997 -6.40198 12
262 1 2.01393 11.7481 1.19096 20
263 1 11.547 2.25501 1.4646 17
264 1 -10.754 -0.855864 -0.699114 23
265 1 3.87627 -3.40728 6.66033 23
266 1 -7.78466 8.80343 3.79413 18
267 1 4.71104 -3.11891 -14.3519 22
268 1 16.4436 7.89523 -4.9482 10
269 1 3.32359 -10.8697 -1.39301 20
270 1 -0.262953 -1.61941 13.0966 9
271 1 -13.8028 -5.42955 4.89434 12
272 1 3.8856 -15.6015 -10.5258 15
273 1 -3.62118 4.19267 12.5016 12
274 1 -9.25694 7.64945 6.49242 16
275 1 -12.7901 -2.66254 7.02562 13
276 1 -14.347 -8.27909 3.47342 9
277 1 17.4323 -1.88934 -3.13286 11
278 1 -11.1692 -7.79865 4.75331 17
279 1 10.5506 -2.5943 -8.73991 20
280 1 11.3128 -7.18081 -10.2473 19
281 1 8.55813 18.0243 -7.49347 16
282 1 -5.66454 12.4823 -7.34512 22
283 1 10.1696 7.99523 8.17618 24
284 1 9.32709 -5.64919 -8.52787 21
285 1 -7.33237 10.7822 1.38053 19
286 1 3.23813 -12.186 4.86266 13
287 1 15.0356 1.27966 0.506917 15
288 1 0.56634 -3.75728 11.6802 9
289 1 -2.5749 12.0625 4.00278 20
290 1 10.6384 12.6889 11.3495 8
291 1 -4.29945 16.2549 -10.5465 9
292 1 -1.91528 -6.81348 -19.085 11
293 1 9.71058 -11.6732 -13.9091 14
294 1 -12.3451 2.42807 8.27111 10
295 1 -13.6253 4.33133 -2.241 18
296 1 -4.67745 10.891 -3.23068 19
297 1 12.2426 -2.16395 3.38274 17
298 1 -6.43003 -11.1147 -2.34979 20
299 1 6.88516 -4.81272 4.15783 20
300 1 -6.67385 -7.69923 10.0277 12
301 1 -12.7384 6.92728 -3.7633 17
302 1 3.66497 -10.4461 -12.4878 22
303 1 -5.50161 1.3544 -12.741 19
304 1 9.37541 1.73221 -16.7196 19
305 1 2.64641 14.7608 4.81273 20
306 1 -8.71535 1.23194 -7.52481 23
307 1 3.44349 -8.72092 -14.6017 19
308 1 12.0865 7.06387 -18.4594 9
309 1 -1.36372 -15.9888 -8.38268 17
310 1 -12.1405 -4.8318 -7.44135 17
311 1 15.4382 10.8598 8.35457 9
312 1 13.0964 3.57426 -6.80854 18
313 1 -5.21319 7.51028 -12.1175 17
314 1 6.73861 19.0532 -2.29706 12
315 1 -12.1212 4.04773 -10.8176 22
316 1 -7.63683 5.32085 0.147497 20
317 1 -7.51411 9.797 -1.89751 20
318 1 -4.68775 7.2488 6.82376 17
319 1 11.242 5.88753 9.7209 17
320 1 13.2798 -2.1966 -6.14783 19
321 1 12.9643 -1.95073 10.389 10
322 1 13.274 0.699301 -13.0522 17
323 1 -8.0058 -14.8053 -11.5051 4
324 1 -8.72648 3.19155 -10.3094 23
325 1 4.25824 -8.66356 -9.59629 19
326 1 15.2243 -0.579775 7.89305 16
327 1 -10.4978 -1.75073 -7.79957 18
328 1 -5.55927 -12.4619 0.289639 23
329 1 -5.19666 -5.28682 10.9135 10
330 1 -1.21778 11.6026 -4.19555 21
331 1 -7.48441 -12.1106 -5.0143 16
332 1 7.67459 11.2118 12.7401 10
333 1 -10.6337 6.45144 -9.67397 19
334 1 2.62456 15.8645 -11.8389 13
335 1 3.92398 11.2004 5.61429 16
336 1 -10.7409 -8.17993 -7.73683 14
337 1 -2.32567 -8.36389 -10.0232 19
338 1 -13.1117 5.91649 3.17395 17
339 1 -9.91014 10.3907 -8.35041 17
340 1 9.24577 -8.15418 -0.337037 16
341 1 -3.29702 -14.9014 -6.47106 14
342 1 12.2247 17.2517 2.77735 10
343 1 6.47594 7.32944 -15.9501 16
344 1 -11.6169 1.31814 -15.4382 11
345 1 3.27097 13.8193 -14.5912 16
346 1 -6.95684 5.90397 -9.86323 20
347 1 0.370595 -11.8478 0.887443 19
348 1 12.5321 11.6326 0.789993 18
349 1 2.90363 11.8067 -18.2121 10
350 1 -14.3759 -1.46599 -2.88974 15
351 1 -2.78396 -11.32 -1.79985 23
352 1 10.299 -6.89261 -16.1446 19
353 1 -12.7518 2.06792 -0.150459 22
354 1 -11.0236 0.948592 5.27369 19
355 1 -15.6973 7.50967 0.996108 13
356 1 -8.06783 2.04076 -18.6389 9
357 1 8.19211 -8.76879 -14.3698 16
358 1 4.77178 -7.93977 -20.075 12
359 1 -3.0872 -3.45357 5.72027 14
360 1 -1.50802 2.76867 -22.365 7
361 1 10.0075 -12.8325 1.90454 6
362 1 6.65958 15.6962 -8.93829 24
363 1 -13.1413 10.8551 5.16228 9
364 1 -5.71502 -3.73704 8.38559 16
365 1 -9.1505 -7.44322 -15.468 9
366 1 -5.97697 -5.20785 2.75512 19
367 1 10.0694 -3.28734 5.59537 16
368 1 6.27885 -11.0673 3.97509 10
369 1 16.4734 11.4356 -4.37325 11
370 1 -0.680201 3.23219 9.07772 18
371 1 4.33892 14.3999 -3.98347 21
372 1 -0.0462893 -12.9976 -7.26194 20
373 1 1.09363 6.18009 14.633 12
374 1 -0.997881 17.3556 0.649437 9
375 1 -4.32264 -10.56 -12.9564 16
376 1 12.2652 14.6731 -4.16171 13
377 1 5.71001 9.41972 4.03293 23
378 1 -4.54002 4.64258 6.06672 18
379 1 -14.5121 8.70539 4.04671 14
380 1 -6.9028 -5.97988 -9.77758 19
381 1 -4.58534 11.3111 8.49995 18
382 1 -2.64534 -13.3154 -12.6476 17
383 1 0.00943821 -9.31748 -18.8211 12
384 1 -1.9074 -13.1436 0.423076 20
385 1 12.3192 3.70832 3.92898 17
386 1 -2.7004 -3.04189 10.568 12
387 1 -9.01092 8.40476 -14.2408 11
388 1 11.4815 6.57127 -6.90747 19
389 1 -5.74852 -13.2653 -7.6487 16
390 1 3.25229 17.2774 -4.03721 17
391 1 0.648187 12.0939 5.75387 17
392 1 -12.5845 -2.16564 -9.51283 15
393 1 3.96331 14.2287 -9.74711 18
394 1 8.89942 14.1154 -9.35284 16
395 1 -6.82894 -8.34258 -13.1803 17
396 1 4.49523 1.26831 14.1978 9
397 1 2.86547 -13.0469 -11.8595 16
398 1 0.985056 -2.17048 -16.4212 15
399 1 10.049 -8.16747 -5.75551 18
400 1 -10.8671 9.73384 2.65053 17
401 1 3.95805 7.57385 9.59384 17
402 1 11.4862 8.486 -3.4501 19
403 1 -6.71769 9.69805 -12.9767 15
404 1 -12.6459 -6.02672 -1.43257 11
405 1 5.30331 17.2494 0.813015 20
406 1 -6.27511 4.39376 -19.2604 10
407 1 12.6461 5.37595 -3.86643 19
408 1 12.0369 13.8279 -14.3529 9
409 1 18.0139 -0.569323 -6.60252 11
410 1 2.14695 0.664907 -17.079 19
411 1 3.48119 -17.0731 -1.84348 12
412 1 1.39872 -11.0876 7.84299 9
413 1 -11.3228 6.73885 -12.6276 18
414 1 -8.37871 -11.3703 -0.20716 16
415 1 -1.34128 -14.6275 -15.5018 12
416 1 7.16061 14.2992 1.93327 17
417 1 3.1532 5.5805 -14.4199 21
418 1 5.63062 -4.68778 9.54189 16
419 1 -11.3989 5.74489 7.19849 13
420 1 3.65099 -17.7976 -8.71486 13
421 1 -10.7908 -2.76376 -3.16917 21
422 1 13.3409 -7.40139 -7.66555 18
423 1 15.63 -2.24312 0.364935 12
424 1 2.99855 -7.35842 -12.3177 20
425 1 7.32789 4.187 -17.3606 17
426 1 12.4353 -4.63313 -8.589 20
427 1 -3.43647 5.21105 9.49535 19
428 1 11.6549 16.9223 -5.48683 14
429 1 -4.02212 -1.36286 -17.3295 17
430 1 7.07734 3.38483 -20.3853 13
431 1 -8.06731 -2.24944 3.71988 22
432 1 2.73672 15.4126 -1.24191 21
433 1 -7.65088 -0.388694 -16.4105 16
434 1 -12.391 0.310148 -2.62635 21
435 1 -4.22114 -11.8446 -15.7351 15
436 1 -3.83894 -8.83699 11.2186 8
437 1 3.12607 9.93305 -12.3796 19
438 1 14.3909 9.33468 2.29792 20
439 1 16.9893 5.44498 -5.31865 11
440 1 -5.91247 -14.7816 -4.50448 13
441 1 2.8162 -5.56069 -21.8811 7
442 1 -6.87465 9.80914 6.55752 17
443 1 14.3238 -5.20987 -0.769382 15
444 1 8.84345 17.6504 -10.2857 15
445 1 16.6337 8.50327 -12.9439 13
446 1 4.08538 8.18782 6.38875 16
447 1 -9.80035 5.69126 3.16913 19
448 1 6.45991 11.389 6.955 18
449 1 7.36712 1.9313 11.7431 16
450 1 5.73612 1.39021 -17.3259 20
451 1 6.01514 -0.615872 6.71109 22
452 1 7.71037 11.0562 4.05318 19
453 1 9.00352 9.03634 -13.9145 18
454 1 -8.73493 7.86222 -7.97505 18
455 1 0.797334 12.7019 -6.76409 19
456 1 13.8792 0.855462 10.4119 12
457 1 12.9126 5.39525 -15.6253 18
458 1 10.1496 -10.2059 -11.5031 22
459 1 13.3731 12.1494 6.12082 13
460 1 -13.1105 -10.9333 -2.02904 4
461 1 -4.08015 7.84311 -14.7411 15
462 1 -10.4784 -0.394098 8.15537 13
463 1 -1.75278 13.0002 -12.295 21
464 1 9.5843 -16.2145 -6.32886 10
465 1 7.53147 -2.88843 -15.709 22
466 1 3.69757 15.881 -7.02641 19
467 1 -6.73681 -5.74495 -15.1588 15
468 1 5.43702 -12.5166 -4.00605 20
469 1 -10.3603 -6.15537 -5.61375 18
470 1 7.92149 13.2618 -11.7813 22
471 1 -1.90179 7.65283 5.5853 15
472 1 -10.8937 -4.4477 4.01605 18
473 1 6.39892 -6.5189 -14.9653 20
474 1 1.51173 -6.28946 6.28488 19
475 1 -12.8877 7.81671 1.2038 20
476 1 4.46886 6.82875 15.002 11
477 1 11.4732 18.7595 -7.77438 7
478 1 11.0609 -4.5616 -6.17664 19
479 1 6.06386 15.5075 8.66357 11
480 1 -2.56517 0.144976 -20.3973 14
481 1 -4.5432 -12.164 6.30976 15
482 1 10.7127 -5.32221 -18.1326 17
483 1 5.30828 13.3762 4.68404 18
484 1 10.9848 5.30565 -12.9569 21
485 1 -2.7529 -3.54219 -19.9465 13
486 1 -2.58135 -10.6358 -7.70168 20
487 1 -9.47749 -3.66421 -15.1853 9
488 1 12.8006 2.54431 -1.98953 16
489 1 17.1636 2.53431 -7.07872 13
490 1 9.2685 -1.77234 -11.669 20
491 1 12.1165 9.03354 5.97763 19
492 1 6.1688 -8.07779 -12.2176 21
493 1 3.67752 5.14925 -19.9309 14
494 1 11.2149 14.6276 1.65366 14
495 1 11.0566 13.5576 7.63376 11
496 1 17.2458 5.64338 -8.95301 11
497 1 13.9885 -0.34043 5.36645 18
498 1 14.335 3.80247 -13.1867 15
499 1 10.8481 3.05465 6.62863 19
500 1 16.7898 4.93082 7.07361 11
501 1 16.9801 11.6601 -7.63223 9
502 1 3.22247 -1.44712 11.8461 13
503 1 15.1688 -0.47606 -10.7394 14
504 1 8.76984 5.25987 7.08687 22
505 1 -7.24357 0.264312 -10.0422 20
506 1 17.9161 4.85671 -2.51969 11
507 1 -11.3135 7.93284 4.79934 19
508 1 11.2862 14.3792 4.57887 12
509 1 12.3563 3.57461 11.194 12
510 1 2.25891 9.21954 4.05803 20
511 1 -0.803018 15.8652 3.74406 14
512 1 -0.0248277 -14.8756 -5.01183 20
513 1 -4.0322 9.99688 -6.76154 23
514 1 17.7138 8.53181 -9.59219 10
515 1 13.297 -1.09856 -15.4634 15
516 1 5.30935 19.3343 -5.30661 12
517 1 -3.63112 -14.0644 -9.97401 15
518 1 13.9328 -3.74011 -17.6118 8
519 1 -15.5497 1.54457 -1.76592 12
520 1 -3.61073 4.77643 -14.9802 18
521 1 0.520844 -16.7431 -2.54246 15
522 1 -1.43932 2.81677 -14.8952 18
523 1 -14.5247 4.40412 -8.61809 11
524 1 10.1314 -9.38805 2.58894 10
525 1 11.2019 16.5617 -2.65656 17
526 1 1.56089 -7.84952 3.56439 20
527 1 -12.006 0.760836 -12.7132 15
528 1 8.84529 -3.18218 -19.5171 12
529 1 4.32086 1.05186 11.1438 20
530 1 8.54918 10.4159 -16.4399 15
531 1 13.6306 6.62002 10.9194 11
532 1 9.96711 6.18345 -9.21801 17
533 1 13.5187 11.7051 -2.42652 18
534 1 5.91635 -14.324 -13.3342 9
535 1 -6.98838 1.25325 11.95 8
536 1 17.6246 1.84681 2.29507 9
537 1 -1.04867 12.1513 11.6059 10
538 1 9.2653 13.1131 -14.925 15
539 1 -12.5405 9.20597 -9.92142 12
540 1 9.25676 9.5772 -1.39119 20
541 1 -2.49586 -15.5824 -3.87565 13
542 1 12.4125 -5.05947 4.64653 13
543 1 8.3711 17.247 0.0927587 18
544 1 -1.29591 5.04711 6.80759 18
545 1 -9.02613 -5.16886 -1.9312 21
546 1 -8.52082 1.81683 -13.3275 20
547 1 7.70731 2.6484 6.07005 23
548 1 -1.98003 -10.9172 8.60417 11
549 1 6.40425 3.35824 9.63304 21
550 1 -4.60288 13.3279 -4.83598 20
551 1 0.717738 0.265082 -19.7409 17
552 1 -9.68554 0.52714 2.7064 19
553 1 12.0661 2.37953 -15.4448 19
554 1 13.1602 -8.19137 -13.0575 19
555 1 7.48545 6.72445 4.67707 21
556 1 -9.49552 2.4326 10.0093 10
557 1 9.10008 17.0411 3.51741 18
558 1 4.14827 -1.87199 9.45003 20
559 1 0.964929 6.81944 9.77654 17
560 1 2.87884 -3.38512 -18.7814 15
561 1 -4.6525 -0.490542 9.49144 16
562 1 3.08819 4.41872 10.4238 14
563 1 -6.4164 -14.2356 4.09883 13
564 1 14.6028 6.51992 -6.9267 17
565 1 6.90296 -13.4855 -6.22226 21
566 1 5.47423 11.375 -3.42549 21
567 1 9.59583 19.4329 -1.47888 10
568 1 6.63722 -0.0862838 -21.1364 11
569 1 6.53259 16.8007 -5.79487 21
570 1 13.1993 8.8007 -0.473776 18
571 1 -4.31116 -7.84577 -7.5421 21
572 1 -0.0883496 -1.81717 -21.9695 10
573 1 -9.45164 12.7258 -6.36225 13
574 1 10.5293 -4.30935 -14.5247 20
575 1 13.8861 8.68242 -15.517 16
576 1 15.2017 10.969 -10.6416 14
577 1 14.8635 9.76333 10.9599 7
578 1 14.7327 4.29113 9.45694 16
579 1 -0.184406 -9.13542 7.02729 16
580 1 -1.24099 9.98189 -14.8682 17
581 1 3.06828 16.4731 8.12218 9
582 1 10.6693 -8.24088 -18.4471 12
583 1 11.5628 12.9062 -8.0631 18
584 1 9.3093 11.5448 1.36329 21
585 1 15.2386 -5.11298 -6.4682 16
586 1 6.3751 8.53207 12.9358 14
587 1 -13.2023 0.31054 3.02173 16
588 1 1.84101 -15.4967 -7.79855 21
589 1 -7.85475 14.4576 -3.86464 12
590 1 7.46079 12.9521 -1.59114 18
591 1 -13.2955 -4.38489 -4.02646 14
592 1 -1.48079 6.61994 12.3932 15
593 1 -3.32549 5.10967 -20.7784 12
594 1 -1.88675 7.5891 -16.9596 16
595 1 2.71124 -13.5176 -2.10464 21
596 1 8.19055 7.1285 -11.5225 22
597 1 -13.0402 8.79655 7.79861 7
598 1 5.20333 -5.00392 -17.8369 20
599 1 2.45459 -9.22595 5.81219 18
600 1 5.42748 15.9122 -1.28898 20
601 1 0.508599 4.10449 11.7845 20
602 1 -4.03939 -4.08203 -17.4418 14
603 1 -2.94646 -9.24225 -16.9583 14
604 1 -6.45766 -12.7123 -13.6795 13
605 1 5.34136 17.9762 -8.61297 14
606 1 -5.15881 12.4162 5.08199 17
607 1 8.33862 -10.6549 -6.83281 17
608 1 11.072 -11.396 -5.98716 13
609 1 3.6143 -12.2812 1.47569 18
610 1 14.9997 2.71185 -9.60652 15
611 1 -1.21561 -11.6287 -9.89883 20
612 1 -11.6001 -1.90438 2.59798 18
613 1 -0.411179 -17.9309 -6.5325 11
614 1 -6.09278 -10.6254 -7.72616 19
615 1 -11.7442 3.24295 2.15341 21
616 1 -4.96935 -15.3426 1.39183 16
617 1 12.6826 3.76605 -11.0956 18
618 1 -3.45593 15.7834 -1.18624 11
619 1 -16.0505 7.15144 -2.08074 8
620 1 10.1488 -3.6011 1.76619 20
621 1 -11.9502 -3.4491 -12.024 12
622 1 9.80903 3.11242 -11.8402 19
623 1 8.3148 14.201 6.01877 16
624 1 -14.1937 6.14436 -11.1631 14
625 1 -10.2475 -5.83327 -10.2311 18
626 1 5.53945 5.41966 11.8408 21
627 1 6.31355 5.90397 -13.7586 18
628 1 12.428 18.8517 -0.486941 11
629 1 -2.56719 2.26826 7.08451 20
630 1 0.867719 -17.5577 -10.0353 12
631 1 -4.01319 -13.0017 3.2444 17
632 1 13.628 15.6888 -0.872405 13
633 1 4.83136 -4.9946 -11.818 20
634 1 7.75568 8.89938 1.27689 22
635 1 -7.78384 -6.02417 0.519815 21
636 1 11.3177 7.85702 -15.1559 15
637 1 0.314049 -14.3054 -10.4316 22
638 1 4.17731 -15.645 -4.85299 19
639 1 7.06622 -15.9654 -4.27188 15
640 1 7.659 8.4787 -8.41088 22
641 1 14.1288 11.3574 -7.31314 14
642 1 -0.461313 -4.4588 -14.5334 21
643 1 1.34263 -1.63621 9.25779 20
644 1 2.57832 8.15604 -19.8255 11
645 1 -12.1661 -2.07669 -14.6906 9
646 1 -8.79071 -3.22014 -4.93638 22
647 1 6.15451 14.8614 -14.1156 13
648 1 8.22015 -6.36022 -19.517 14
649 1 9.75758 9.32691 -5.7857 18
650 1 8.4408 -6.43389 2.19106 16
651 1 -7.88986 9.26568 8.97898 17
652 1 10.0134 -8.52591 -2.92161 17
653 1 11.509 -6.60822 1.32862 16
654 1 12.6847 -2.97942 7.21666 17
655 1 -0.324888 13.3101 3.14988 18
656 1 -11.0071 8.69015 10.7274 6
657 1 -4.50664 9.1213 4.41104 18
658 1 0.344681 -11.3314 3.6492 19
659 1 11.8746 9.99983 9.27152 13
660 1 -12.1281 -2.37156 -5.72564 16
661 1 9.23706 -6.44567 -4.31703 19
662 1 -6.93863 9.88917 -6.48746 19
663 1 5.40393 -14.7636 -1.18622 15
664 1 6.77577 -1.90285 11.5567 12
665 1 4.09108 14.2859 1.67479 21
666 1 3.93427 -8.81421 0.500561 19
667 1 1.90636 1.73818 9.76995 17
668 1 -12.5707 -7.68006 -4.61942 10
669 1 5.42301 12.8524 10.6272 12
670 1 8.37568 15.2957 -3.14321 17
671 1 -10.297 -9.73044 1.9186 14
672 1 -2.16851 -17.04 0.23797 9
673 1 8.12659 -1.36036 3.7294 22
674 1 7.04181 -7.98217 5.54347 14
675 1 9.33214 9.35931 4.29601 22
676 1 -1.08275 -6.73161 -11.8919 20
677 1 1.41854 2.93206 -14.5004 20
678 1 -1.98692 -1.23464 8.07832 17
679 1 -2.70565 12.2064 -1.85004 19
680 1 14.9851 3.99477 -1.51561 18
681 1 6.45039 12.2798 -9.03926 20
682 1 -4.64522 8.44228 10.0447 15
683 1 9.24025 10.7348 7.20475 17
684 1 9.77893 -0.613576 -14.4304 19
685 1 -4.2152 -11.9205 -4.89072 24
686 1 18.5124 5.70536 1.03533 8
687 1 3.21492 -0.140762 -14.6749 24
688 1 5.81845 10.1978 9.59544 19
689 1 13.884 -9.32712 -10.229 14
690 1 3.61978 3.52216 -16.915 20
691 1 16.19 6.024 -15.2333 10
692 1 14.4255 -0.362109 -1.79415 20
693 1 5.62894 -7.91763 8.59271 9
694 1 -3.94464 -7.74024 -12.4374 18
695 1 11.6667 11.5307 -4.72524 19
696 1 -14.6076 4.81515 0.419518 18
697 1 13.5499 8.99015 -12.6862 18
698 1 15.5624 10.5324 -1.17699 14
699 1 3.01031 -0.241197 -21.4845 9
700 1 -6.73794 13.9497 1.67335 11
701 1 15.7814 9.9575 4.95309 13
702 1 14.5859 13.4683 -9.71832 13
703 1 6.389 0.0856775 -14.6791 22
704 1 14.1452 -3.14643 -3.59661 19
705 1 -10.5778 0.233585 -4.50428 22
706 1 11.097 8.84723 1.75708 23
707 1 -9.04421 -9.13767 -4.8077 21
708 1 -7.3126 11.7675 -10.4179 20
709 1 5.58798 5.4229 7.30204 22
710 1 -14.6919 -1.40761 -12.3326 10
711 1 -9.27812 8.75056 0.563644 17
712 1 13.2967 -6.96353 -15.9255 14
713 1 -8.5119 -9.36951 -10.1243 14
714 1 15.9084 -6.97547 -3.38394 9
715 1 -13.8233 1.81082 -4.771 15
716 1 11.8117 11.4376 3.75775 18
717 1 -4.6497 -8.27466 2.85752 22
718 1 9.05325 4.38401 11.3836 14
719 1 17.2528 0.633421 5.15986 11
720 1 -9.57545 6.60536 -1.73223 19
721 1 0.515716 12.8182 8.89964 12
722 1 6.21501 10.0401 -11.5427 21
723 1 0.174452 -4.20956 -19.7593 17
724 1 -3.98962 13.7731 1.28491 16
725 1 -8.3686 -12.4612 2.79863 14
726 1 10.7293 8.28024 -10.5856 17
727 1 3.9196 13.1969 7.96746 19
728 1 16.791 -3.04151 -6.09574 13
729 1 9.70126 -1.96267 9.31371 16
730 1 0.213489 15.3897 -14.0693 13
731 1 4.70425 12.8761 -11.9583 23
732 1 -5.56229 1.54998 7.189 17
733 1 17.0698 3.57963 -0.108454 14
734 1 -2.09917 -2.11003 -14.8647 21
735 1 13.769 9.43979 -5.10286 17
736 1 -11.7446 3.07772 -7.36622 19
737 1 -1.43342 -5.88582 6.63931 16
738 1 8.95099 15.9687 -12.9417 11
739 1 9.31605 0.257796 6.39447 21
740 1 5.46644 -12.9732 -9.87745 17
741 1 -5.86341 17.212 -3.58147 5
742 1 -10.4504 5.76666 -6.32723 17
743 1 13.0074 -1.01569 -9.429 17
744 1 3.5143 -12.0609 -15.4666 12
745 1 -5.87251 8.18808 1.51226 20
746 1 12.0005 9.20729 -7.77532 18
747 1 10.7404 -1.96394 -16.8433 18
748 1 -5.46322 -8.43506 -15.4268 15
749 1 1.1591 -8.64634 -9.89769 22
750 1 -4.51395 11.0452 11.6201 10
751 1 3.90446 -13.6561 -7.13925 18
752 1 0.619861 13.5071 -17.2454 9
753 1 14.6534 0.292123 -7.1532 21
754 1 11.2601 6.42298 -1.2951 15
755 1 8.52824 -12.5801 -9.24211 17
756 1 7.70021 -0.824565 -18.3412 19
757 1 14.3057 2.4534 -4.77908 21
758 1 1.25116 6.04721 -18.3269 21
759 1 -1.05715 -8.41166 3.2711 18
760 1 8.83107 12.2228 -7.07367 20
761 1 -10.5542 0.847179 -9.90634 16
762 1 -15.5937 5.37859 3.49286 10
763 1 -1.38908 9.63426 10.0933 16
764 1 -6.31356 -10.512 3.34601 25
765 1 5.74493 11.5254 1.69002 20
766 1 -0.428839 -13.8035 -2.32093 21
767 1 4.41957 13.003 -6.75369 19
768 1 -6.69583 5.97141 8.5722 17
769 1 -8.21571 1.42307 6.10941 17
770 1 -13.6724 9.75129 -1.15028 14
771 1 -3.51698 -7.77554 8.64526 18
772 1 4.72612 -14.7207 4.54745 8
773 1 12.5154 5.7882 7.29514 20
774 1 8.30055 -8.90372 -9.98479 19
775 1 6.06151 -10.29 -15.1602 15
776 1 -1.94588 1.75102 -17.233 15
777 1 -1.4442 4.77668 -17.9775 21
778 1 8.32176 16.8827 6.09173 10
779 1 -10.3226 -2.85719 9.65922 9
780 1 -1.87812 7.02748 -12.8704 21
781 1 -14.0969 4.94455 -5.12101 13
782 1 10.5309 13.1314 -1.54099 18
783 1 -8.01565 -15.0278 1.05089 12
784 1 16.6368 11.7923 1.88154 6
785 1 -9.08257 -11.2682 -7.1277 13
786 1 4.08673 19.5601 2.30222 9
787 1 -1.41048 0.213153 10.2339 19
788 1 -1.90636 -16.0411 -11.917 11
789 1 15.3625 3.67 3.95152 14
790 1 5.08085 -18.5383 -6.32479 9
791 1 8.98372 10.2626 10.2778 19
792 1 14.7564 -2.83327 -14.125 11
793 1 6.95752 -9.48889 -4.24586 18
794 1 4.89711 2.97352 -14.5031 23
795 1 -6.84974 4.47332 -12.987 19
796 1 -4.19499 6.39843 -18.2208 16
797 1 -3.87345 2.42283 10.2376 18
798 1 12.2849 -0.059813 8.33871 19
799 1 -7.42409 -7.96044 -2.25053 19
800 1 12.109 -2.67885 -0.324692 21
801 1 1.41457 7.2218 -12.2011 19
802 1 15.5625 6.95514 -2.5333 16
803 1 2.05363 16.9979 1.4295 17
804 1 -9.97854 -6.84646 2.12554 16
805 1 11.2511 -12.6545 -10.9293 12
806 2 -8.75309 1.46938 -9.56659 15
807 2 -7.80868 11.7933 -6.5804 20
808 2 1.66964 1.13636 -15.4837 20
809 2 -2.94319 6.25151 6.39817 18
810 2 4.82492 -6.94181 -12.4737 19
811 2 -5.88586 -4.38465 -10.3156 17
812 2 3.37686 2.89365 8.44558 18
813 2 5.63835 2.79742 14.1255 11
814 2 -11.5063 -11.1134 -2.97062 9
815 2 -14.6932 5.11471 -6.85048 12
816 2 2.42386 14.915 1.45725 18
817 2 -10.5277 -0.824698 -2.77604 22
818 2 4.68819 15.7542 -8.63981 19
819 2 10.885 6.94428 2.80219 22
820 2 2.28657 14.6387 -10.0685 17
821 2 14.7984 12.8435 -11.3245 9
822 2 -11.0176 -3.95939 -14.0707 11
823 2 -7.19705 -7.85039 -15.0086 13
824 2 7.41934 5.11889 9.15885 21
825 2 9.82078 0.0383048 -12.2298 21
826 2 5.21551 -14.8051 2.43027 12
827 2 -7.79138 9.72198 -8.49884 18
828 2 -14.286 6.09627 -9.29358 11
829 2 17.038 6.33826 -3.6951 14
830 2 14.6609 -8.86072 -11.7857 13
831 2 -7.46389 -13.7605 -3.89007 14
832 2 -10.4988 -6.2609 -1.61511 18
833 2 -1.07139 -11.8873 -2.82343 23
834 2 13.6777 -3.47506 3.96937 15
835 2 -3.35942 -15.2046 -11.1625 9
836 2 5.12002 -0.901043 8.41165 21
837 2 1.64129 12.3794 -14.1438 22
838 2 5.75223 -16.6144 -5.65882 17
839 2 -9.10709 -9.40609 -7.66723 14
840 2 0.166977 4.8342 10.2216 17
841 2 -11.2111 9.14305 0.639195 20
842 2 1.75688 2.97389 11.4366 18
843 2 -5.34386 8.63773 -6.58598 18
844 2 11.5153 -8.53562 -4.31315 17
845 2 1.13603 12.3893 -8.9086 19
846 2 13.5982 17.5664 -1.50156 9
847 2 9.61841 18.7254 0.342653 14
848 2 11.1378 0.346943 -8.99437 20
849 2 -4.53936 6.99415 8.91974 15
850 2 5.6091 3.38458 -16.8755 18
851 2 -2.55189 8.73655 -15.4758 15
852 2 12.2947 11.2217 -7.52022 19
853 2 -0.356705 -0.710243 9.32622 21
854 2 -14.5769 8.83232 0.467592 13
855 2 15.4806 6.43641 -11.0936 17
856 2 -7.98612 -7.24624 8.61929 10
857 2 4.79164 -9.05227 -18.3064 14
858 2 1.45078 -4.77373 -21.0623 11
859 2 -12.8334 -11.1353 -0.304686 6
860 2 9.66909 9.36267 -3.66527 15
861 2 -3.71239 9.23255 0.921889 21
862 2 -3.56195 -9.30268 -11.3702 19
863 2 -2.12544 14.4933 3.37644 17
864 2 9.07915 1.47068 11.0296 16
865 2 4.34315 -7.37352 7.25549 17
866 2 17.1659 6.59523 1.90771 12
867 2 10.3954 14.5714 -13.5085 12
868 2 -12.9586 1.76844 -6.53397 16
869 2 15.5788 7.96095 4.88918 16
870 2 10.9726 -5.44538 -9.29195 18
871 2 9.78214 -8.14781 -11.0772 20
872 2 -2.80903 11.8847 12.0127 9
873 2 8.64457 -8.40022 -4.47132 19
874 2 12.5121 -5.892 2.78128 11
875 2 15.2416 8.69731 -1.19649 13