ITEM: TIMESTEP
27000
ITEM: NUMBER OF ATOMS
2000
ITEM: BOX BOUNDS pp pp pp
-30.0 30.0
-30.0 30.0
-30.0 30.0
ITEM: ATOMS id type x y z Coordination
1 1 -6.15403 3.82716 -21.737 12
2 1 -3.21527 -10.9027 -17.0299 15
3 1 3.12691 16.4988 1.92258 13
4 1 9.35165 -13.3605 -2.07136 13
5 1 -8.50134 9.3693 -5.65655 17
6 1 10.3752 -8.71138 -17.7748 15
7 1 -11.6858 8.02215 -8.71914 12
8 1 1.57138 -3.20999 5.5976 18
9 1 -4.0727 1.59276 -18.8392 17
10 1 -10.3191 -10.5033 0.834141 12
11 1 15.5754 8.19802 -13.8763 19
12 1 1.43751 -10.7371 -3.07651 23
13 1 -10.5645 -9.93679 -2.49012 10
14 1 3.97114 4.42724 14.7822 10
15 1 3.64244 11.9881 -16.1917 19
16 1 7.14573 0.611108 8.57792 17
17 1 -10.1588 8.51235 -14.2414 11
18 1 -5.86429 0.613873 6.80333 21
19 1 12.9508 8.02821 2.69349 18
20 1 4.35147 9.00749 -15.9704 18
21 1 0.0139805 -0.151847 -21.3133 19
22 1 13.4475 5.21254 8.22435 23
23 1 -10.1866 3.86126 -19.6439 9
24 1 -8.47623 6.20599 9.53105 13
25 1 10.6325 -10.6639 -2.03714 17
26 1 2.18352 -11.1042 -16.5 19
27 1 7.6726 -10.7484 -2.6618 23
28 1 -5.67513 -12.5276 -11.7594 13
29 1 -10.9064 -4.01268 5.42069 18
30 1 3.39564 -5.2549 -16.7206 21
31 1 8.26904 -10.0203 -19.5694 9
32 1 -1.5632 7.19274 -20.9353 11
33 1 1.53602 2.52482 14.5005 10
34 1 2.24268 -13.7672 2.74525 12
35 1 5.88432 -2.50153 8.90524 12
36 1 -15.0388 -0.415063 1.19432 12
37 1 -13.4104 -1.62224 3.95751 16
38 1 -1.25595 12.8429 -7.94385 20
39 1 -0.480166 -11.6725 -15.5326 19
40 1 7.87503 -5.53082 -17.8475 21
41 1 0.737995 -4.90297 8.6091 17
42 1 -10.1035 4.40004 -4.28169 22
43 1 5.6454 9.44986 -19.139 17
44 1 1.17373 14.8615 -0.481027 16
45 1 -8.45299 9.15043 -12.3366 19
46 1 1.89362 14.2442 -5.51135 17
47 1 2.61104 -17.172 0.33684 5
48 1 8.78643 -7.3238 -12.1441 16
49 1 5.87227 -2.05776 -21.826 16
50 1 -6.27456 10.2718 11.5342 7
51 1 -8.70549 -4.98391 -14.4272 13
52 1 -5.53146 8.74935 -10.9278 23
53 1 -6.53702 -7.57087 3.3729 20
54 1 -2.00646 13.5077 4.87218 14
55 1 -11.2394 9.93608 -5.93095 17
56 1 -7.42627 3.54084 7.60829 17
57 1 0.0285199 -14.8297 1.25026 13
58 1 13.1309 -12.5488 -8.71459 11
59 1 8.41837 15.6482 8.17407 11
60 1 -9.61466 1.39301 -17.5171 15
61 1 -5.92411 14.6397 -11.3933 12
62 1 6.57545 8.59939 6.42401 23
63 1 13.0689 -3.96946 -12.089 16
64 1 15.1342 -8.2881 -4.81478 12
65 1 -13.7057 -3.32643 1.39888 13
66 1 8.36238 16.161 3.01423 15
67 1 10.4142 1.06314 7.98615 18
68 1 0.936661 -10.7285 2.31866 20
69 1 15.4722 3.06383 0.717267 17
70 1 -3.20146 11.3228 8.96119 16
71 1 -1.82211 -4.23406 -13.0694 23
72 1 -11.9222 14.1687 1.17399 7
73 1 -7.40729 12.2455 -5.31272 21
74 1 0.0562555 10.2172 -13.3256 19
75 1 14.8514 10.6002 -15.7045 11
76 1 6.06946 -7.49338 2.52503 21
77 1 -1.13111 15.2824 -10.9786 19
78 1 -9.12294 13.5652 1.93874 10
79 1 -5.41283 -2.9742 7.78468 15
80 1 -3.55719 11.8522 -0.260569 18
81 1 -7.06258 -11.703 6.19731 11
82 1 13.3271 -5.77765 -5.9739 18
83 1 -8.71309 2.94405 -1.33158 17
84 1 -6.66586 -13.2686 -2.74588 17
85 1 10.8165 -5.07034 -13.5232 18
86 1 8.0896 0.930759 -13.2606 19
87 1 -2.90359 2.60487 -21.7594 16
88 1 2.00893 12.5424 -2.69855 18
89 1 -6.60524 4.84712 -18.568 15
90 1 1.39512 10.1576 8.21613 20
91 1 13.9411 13.3059 -13.2699 15
92 1 -11.2464 11.7813 -0.95024 17
93 1 -1.54377 -9.1912 4.77577 21
94 1 13.4897 3.9623 4.85874 22
95 1 8.66362 -4.16147 -15.0766 21
96 1 9.61974 1.45792 11.4211 11
97 1 -6.84666 -6.00676 -5.74061 22
98 1 -6.73757 -7.81553 -8.11599 21
99 1 12.5435 -7.70133 -2.50161 16
100 1 8.52686 7.10367 -19.3338 17
101 1 9.58655 16.1062 -7.66527 14
102 1 -6.53323 -8.14457 9.12618 11
103 1 -7.21194 -4.00324 5.06849 18
104 1 9.73882 -6.99736 -20.7378 12
105 1 16.1557 -8.85945 -7.91856 13
106 1 2.17221 -14.4747 -1.25215 17
107 1 -5.13212 -9.00661 -5.95777 23
108 1 15.2931 6.06504 2.26613 18
109 1 15.648 -7.75211 -11.0658 12
110 1 -14.1989 -5.26003 -0.814728 7
111 1 13.9357 15.8019 -3.23055 12
112 1 16.7514 13.1934 -2.01684 9
113 1 -1.01268 3.12637 13.0822 10
114 1 0.592102 14.8691 5.58645 15
115 1 -2.89203 12.3779 -10.9222 19
116 1 0.414632 -5.61468 -15.9094 20
117 1 11.8625 -9.88985 -14.5078 11
118 1 7.85702 11.1752 -19.4326 12
119 1 14.844 0.481451 2.37288 16
120 1 1.85231 2.36323 -20.0318 17
121 1 -0.0395793 12.0916 -11.316 21
122 1 11.913 3.59032 -10.8621 20
123 1 -7.9985 13.1505 -9.7377 11
124 1 -7.99114 15.281 -5.94177 10
125 1 7.68331 3.41847 -15.6882 19
126 1 7.70913 -12.5774 0.370561 15
127 1 -2.70771 10.0993 11.8917 10
128 1 16.6873 6.09877 -11.3006 18
129 1 7.8527 12.9596 -8.50758 19
130 1 -2.19403 15.162 -5.67232 18
131 1 9.63418 11.5715 -5.57362 22
132 1 0.796535 16.9782 -11.9701 11
133 1 6.67086 15.9849 -12.9529 12
134 1 6.4196 12.0806 -16.5726 18
135 1 -9.22636 -11.1463 -4.19184 12
136 1 -9.93852 10.2643 -3.04634 21
137 1 -2.54966 -0.361848 -16.3635 20
138 1 0.472061 -7.71314 -20.9385 14
139 1 10.8113 16.89 1.3593 15
140 1 -0.172722 15.3313 -3.77341 15
141 1 -13.6361 -0.624879 -9.09891 9
142 1 -8.82615 13.3395 -2.87726 13
143 1 18.272 -2.93833 -10.8255 12
144 1 -7.17503 2.10063 -19.1436 16
145 1 6.68422 2.73149 12.0974 15
146 1 10.9028 17.0087 -4.90854 13
147 1 -0.65168 10.1636 2.6759 19
148 1 3.64384 -7.92191 -21.9308 13
149 1 -3.47353 16.1993 2.78733 10
150 1 3.49983 11.8272 -11.0678 20
151 1 4.26599 -5.74307 4.84666 21
152 1 -13.1369 -5.27144 3.12848 14
153 1 -0.626773 -11.8994 -18.599 11
154 1 -4.29454 14.8071 -13.3287 14
155 1 -2.07413 -8.75609 0.108148 21
156 1 8.54849 -15.4844 -10.5967 12
157 1 -0.51164 14.148 -16.6035 10
158 1 -13.3823 5.14147 4.9422 10
159 1 14.0548 8.97278 -10.4216 19
160 1 -7.7582 5.78512 4.85537 19
161 1 1.01616 -8.1699 7.98961 10
162 1 6.73895 19.3119 -1.66878 9
163 1 0.34877 8.86705 5.35062 22
164 1 16.2457 6.75114 8.70419 11
165 1 -5.3725 12.8798 -2.33182 17
166 1 15.3421 -7.38954 -14.5445 8
167 1 -1.70021 13.9151 7.84904 14
168 1 18.2841 2.2181 -3.88696 13
169 1 -15.207 1.71776 4.21527 10
170 1 -5.77997 -8.66487 -0.600608 17
171 1 6.65067 6.48357 9.36108 23
172 1 -13.0344 1.97407 -11.2579 9
173 1 -0.252826 -11.4976 -6.06519 20
174 1 -0.397787 12.3442 -0.60762 16
175 1 5.29425 15.9334 3.60818 13
176 1 -3.57722 9.95458 -12.955 19
177 1 -13.24 -4.72127 -11.8157 7
178 1 -7.60381 -5.45885 8.89149 10
179 1 1.50196 -8.94702 0.242806 22
180 1 7.96293 -9.14712 -0.099341 19
181 1 -7.72948 11.7554 4.87247 17
182 1 15.0841 -3.31468 -1.08804 12
183 1 -3.72551 -3.87088 -15.8892 20
184 1 3.58736 2.56841 6.01013 21
185 1 9.43662 -11.4537 -5.02212 17
186 1 -0.553198 6.54275 -16.0244 21
187 1 1.74417 -7.79901 -17.2259 21
188 1 12.844 2.5444 -19.2578 11
189 1 3.04864 9.14344 -21.2632 8
190 1 -2.99686 -1.7472 -13.7535 23
191 1 -1.3148 16.4558 -14.7239 11
192 1 -6.48675 -6.12133 6.07968 19
193 1 15.5007 14.1827 -9.95554 12
194 1 -2.79743 3.39368 10.8391 15
195 1 -2.4438 17.04 -8.21178 9
196 1 9.20084 4.49178 3.78294 20
197 1 -0.987654 -8.42477 -17.2903 18
198 1 1.41533 13.5426 -13.9971 21
199 1 5.21323 7.6314 -12.9899 22
200 1 -0.707393 -12.7813 4.12728 13
201 1 -7.38531 3.7631 1.65357 19
202 1 -5.58484 6.48281 2.4014 22
203 1 1.01966 -9.33915 -14.2105 22
204 1 -3.49398 -13.6923 -3.91104 21
205 1 10.7163 -9.19832 -9.90498 18
206 1 14.7348 6.38182 5.59266 15
207 1 11.2645 8.93146 -11.5437 19
208 1 3.32381 11.483 -4.90125 20
209 1 -12.0551 12.7901 -3.99542 12
210 1 2.46899 5.70179 5.75407 21
211 1 10.5501 -14.4328 -9.15964 14
212 1 13.4702 0.184754 -5.3648 21
213 1 -10.7442 5.82951 -1.38063 19
214 1 -8.25246 -4.65216 -8.52229 24
215 1 10.0414 6.03621 -16.8496 18
216 1 9.9135 -4.59633 5.56593 11
217 1 12.6602 11.6402 -18.1809 9
218 1 0.304606 0.623867 -16.1468 23
219 1 3.83287 -18.7004 -5.21982 11
220 1 11.5971 1.23891 -14.0499 19
221 1 -8.759 -3.23168 -0.810653 14
222 1 3.49756 -13.7601 -11.7468 17
223 1 -7.59958 -3.06082 -11.5411 21
224 1 12.6897 11.9299 -10.2944 21
225 1 6.83503 -0.874742 -19.1915 19
226 1 5.51083 8.12723 11.1913 20
227 1 16.3699 1.34236 -6.57648 18
228 1 13.444 -4.46432 -15.5329 13
229 1 -6.30138 -2.26048 -14.8566 19
230 1 -12.0891 2.8746 -16.4975 8
231 1 -9.56084 -9.81804 3.95795 16
232 1 13.0088 3.25083 2.22374 18
233 1 -3.00723 -6.65548 -15.1822 17
234 1 1.53965 10.3926 -18.3083 14
235 1 4.80957 12.6045 -2.29903 23
236 1 -6.58921 -0.989339 4.8641 21
237 1 -9.20368 -8.4031 -13.4585 9
238 1 -5.03214 -4.68602 -13.1788 21
239 1 1.06994 7.36485 -18.7245 18
240 1 -3.69028 -10.572 -11.5 18
241 1 11.0107 0.213322 -19.1055 17
242 1 15.7589 -4.86143 -11.8007 16
243 1 12.6041 6.34968 0.364498 19
244 1 -4.02745 -6.20158 5.03992 18
245 1 1.3849 -10.5417 -9.15436 16
246 1 8.47841 7.81529 11.7152 15
247 1 -4.7143 -16.1375 -2.1526 12
248 1 3.13595 -11.5324 -6.12998 19
249 1 3.73022 19.1854 -8.38155 9
250 1 7.67197 2.27776 -21.1052 12
251 1 2.24179 -5.43551 -19.5297 21
252 1 -8.49027 -8.40053 6.83142 13
253 1 3.13353 10.3454 10.8621 15
254 1 4.60022 -9.74733 -8.90886 21
255 1 -3.81354 -15.8211 -14.2359 9
256 1 -9.69165 6.08276 -12.4417 21
257 1 9.87181 7.89578 3.28842 20
258 1 -3.3742 4.1138 -13.8885 21
259 1 0.93441 9.29662 -16.0566 17
260 1 6.76042 -12.4909 -13.3073 14
261 1 0.757389 16.0157 -7.62413 15
262 1 2.96896 11.8005 0.0914433 20
263 1 11.0915 3.45232 0.326295 17
264 1 -11.0399 0.440858 -0.413259 16
265 1 4.46298 -2.80194 6.10372 18
266 1 -7.30813 9.20076 1.98181 16
267 1 4.16289 -3.66494 -14.5346 19
268 1 18.2606 8.30688 -5.62093 11
269 1 4.59983 -10.4627 -3.07968 22
270 1 -0.984049 0.541608 10.5302 17
271 1 -11.367 -7.11007 5.51113 12
272 1 4.85631 -15.695 -10.0344 18
273 1 -5.43804 5.39271 9.75088 14
274 1 -8.39587 8.42985 6.30887 19
275 1 -14.1465 -4.56163 6.10376 7
276 1 -11.8655 -7.99379 2.39748 15
277 1 18.4998 -0.810569 -5.97712 11
278 1 -9.04236 -6.33612 3.7772 20
279 1 10.7788 -2.42645 -10.5258 20
280 1 13.0999 -7.25848 -12.5145 18
281 1 7.02616 17.9731 -10.11 12
282 1 -6.32412 11.8534 -11.8536 18
283 1 10.3139 6.04059 9.87154 18
284 1 10.447 -5.73474 -10.4958 22
285 1 -8.75876 11.5385 0.371674 17
286 1 4.87221 -12.0987 5.09522 10
287 1 14.1844 -0.337284 -0.435928 17
288 1 -0.204254 -2.80464 11.0709 11
289 1 -4.0373 13.5339 2.98402 11
290 1 9.75803 12.8978 10.2545 9
291 1 -2.9124 16.8975 -11.6968 11
292 1 -1.40341 -3.45104 -20.4476 13
293 1 8.70814 -11.0382 -16.2332 13
294 1 -13.0672 1.87368 5.7418 10
295 1 -13.1354 3.99928 -3.87452 18
296 1 -3.81438 12.1523 -5.86971 20
297 1 11.0326 0.190529 1.94119 20
298 1 -5.47904 -10.825 -3.2056 23
299 1 7.49866 -5.16407 3.57678 20
300 1 -4.39938 -9.17337 5.99421 20
301 1 -12.5448 7.51597 -4.41274 17
302 1 3.58645 -10.4174 -12.224 17
303 1 -4.78966 0.975885 -13.8714 22
304 1 9.98056 3.66402 -19.2228 15
305 1 4.04846 13.3954 3.12509 21
306 1 -7.78165 1.51155 -8.69946 23
307 1 5.63497 -6.26089 -16.0641 20
308 1 11.4333 6.23316 -19.6469 11
309 1 1.38142 -17.1941 -9.53013 11
310 1 -12.4852 -6.12026 -9.21122 11
311 1 14.3503 10.6129 9.18288 11
312 1 13.1234 4.19815 -7.94195 18
313 1 -4.78632 7.37638 -13.7038 20
314 1 7.66678 16.9738 -4.61019 16
315 1 -9.58378 3.84448 -15.8636 17
316 1 -7.48276 5.883 -0.939097 20
317 1 -6.82959 9.80614 -2.58583 20
318 1 -6.23496 8.99594 4.94286 18
319 1 12.625 6.3236 11.9048 15
320 1 13.516 -1.56682 -8.50717 19
321 1 13.3552 -0.890157 7.92288 11
322 1 14.6176 0.706143 -14.3561 14
323 1 -5.2634 -15.8833 -9.46635 9
324 1 -7.88507 3.28338 -11.4683 18
325 1 5.15924 -7.76034 -12.106 21
326 1 14.6115 2.18705 8.438 13
327 1 -9.41472 -1.27713 -9.55122 21
328 1 -3.88602 -11.9836 -1.25697 17
329 1 -3.73967 -5.2415 9.52384 10
330 1 -0.100506 11.9258 -5.1967 21
331 1 -6.54562 -12.2803 -5.89366 18
332 1 6.88214 10.9972 10.9451 15
333 1 -9.83466 4.62155 -9.53612 22
334 1 3.4867 15.934 -14.0995 14
335 1 2.03677 11.9887 5.098 20
336 1 -9.72253 -7.89487 -9.28775 18
337 1 -0.895429 -8.50324 -10.6786 19
338 1 -12.4969 6.37389 2.09088 15
339 1 -10.0213 10.6029 -9.51761 14
340 1 9.55263 -7.58141 -1.79081 19
341 1 -3.58849 -14.2769 -8.12693 15
342 1 15.4627 16.1395 2.4361 8
343 1 5.68846 6.84827 -20.3694 15
344 1 -7.216 -0.124451 -16.6141 16
345 1 4.29328 15.1409 -17.7085 10
346 1 -6.63671 6.0275 -11.8922 21
347 1 2.66982 -11.9575 -0.198463 19
348 1 14.2718 12.1971 -1.42587 17
349 1 4.64249 12.4837 -19.6452 13
350 1 -13.4748 -1.88665 -1.62395 13
351 1 -1.94076 -10.6035 -3.01534 24
352 1 11.0113 -6.06377 -17.0536 20
353 1 -12.1635 3.3041 -0.937919 12
354 1 -9.59766 -1.70994 4.78732 15
355 1 -13.1638 8.42995 -0.886084 17
356 1 -5.86269 0.901162 -22.1378 9
357 1 4.99814 -10.9151 -18.1431 13
358 1 5.30887 -5.7132 -19.6232 17
359 1 -1.25528 -3.32694 5.87624 14
360 1 -0.107282 3.88354 -22.1536 17
361 1 10.6905 -12.2036 1.17077 7
362 1 6.07459 15.0553 -10.5305 22
363 1 -10.7157 13.2914 4.54662 12
364 1 -4.12454 -3.37562 5.1953 16
365 1 -8.39655 -7.2989 -16.7771 9
366 1 -5.44426 -5.07614 1.36686 15
367 1 11.7865 -4.39605 3.15303 14
368 1 7.40313 -10.6761 2.92235 14
369 1 17.368 11.5429 -5.38421 8
370 1 -0.548571 3.00796 8.74654 20
371 1 5.53177 14.5614 -5.03883 23
372 1 2.58391 -13.931 -8.71561 17
373 1 2.4321 7.15201 11.2919 18
374 1 -2.07071 17.8979 -0.0722238 6
375 1 -1.82998 -9.52406 -13.9282 18
376 1 12.3578 14.1922 -4.83052 16
377 1 5.27201 10.0527 3.6354 19
378 1 -3.99996 5.53941 5.21641 18
379 1 -12.3984 9.27275 1.9812 10
380 1 -6.91432 -5.76576 -10.7367 21
381 1 -5.42311 9.14268 8.67816 19
382 1 -0.804263 -11.889 -11.8698 19
383 1 1.96252 -10.3615 -19.5718 12
384 1 -0.429953 -12.1964 -0.270001 20
385 1 11.455 5.70482 3.14271 22
386 1 -3.47095 -1.90825 10.3546 11
387 1 -7.64278 6.98199 -15.4086 16
388 1 11.6464 7.00269 -8.65556 20
389 1 -7.29495 -13.6175 -8.78159 11
390 1 4.3869 17.5258 -5.09471 15
391 1 -0.614025 11.4288 6.53345 22
392 1 -11.7635 -2.77221 -10.2824 17
393 1 2.55359 14.8769 -10.7804 23
394 1 9.22649 15.0631 -10.8136 18
395 1 -5.78404 -9.74634 -15.8946 10
396 1 4.31154 1.42253 13.4692 12
397 1 4.07206 -12.0738 -14.5088 15
398 1 1.96564 -2.15428 -16.032 19
399 1 9.92792 -6.94589 -7.85534 19
400 1 -9.49502 9.8099 3.35278 19
401 1 3.88113 7.52803 8.64411 24
402 1 11.281 8.99363 -5.74665 20
403 1 -6.54948 9.75743 -14.0444 15
404 1 -10.9111 -7.21529 -3.98414 14
405 1 7.17345 17.0853 0.16884 16
406 1 -3.67194 4.35046 -18.477 20
407 1 13.3147 5.79422 -5.68558 18
408 1 11.9471 14.2383 -16.1154 6
409 1 17.1869 0.368999 -9.12606 14
410 1 0.576451 -1.07917 -18.8514 20
411 1 5.07424 -16.7187 -2.27453 11
412 1 1.70602 -10.5363 5.55111 14
413 1 -11.6003 6.13533 -14.9476 8
414 1 -6.45464 -12.1191 0.0234518 16
415 1 -1.87416 -14.2783 -16.6429 11
416 1 8.17526 14.7683 -0.106244 19
417 1 2.98024 6.42912 -15.9489 20
418 1 3.72926 -4.95207 7.84598 14
419 1 -10.673 6.31362 4.58356 16
420 1 5.2458 -18.8205 -8.61635 7
421 1 -10.7758 -1.66637 -4.54746 15
422 1 12.9635 -6.9697 -9.11935 21
423 1 16.9537 -3.23792 -3.69808 11
424 1 2.97108 -6.67232 -13.5273 20
425 1 6.63375 4.23157 -18.9335 21
426 1 15.0364 -4.26868 -9.15058 21
427 1 -2.38191 5.30274 8.17177 22
428 1 15.0845 13.0027 -7.56421 14
429 1 -3.08036 -0.378454 -20.9125 15
430 1 6.52998 4.82634 -22.2378 11
431 1 -7.36896 -2.39231 2.26299 19
432 1 3.01182 15.2846 -3.44306 20
433 1 -5.81135 2.94663 -16.2621 19
434 1 -11.9676 1.33911 -4.03791 15
435 1 -3.33999 -12.5624 -14.3426 16
436 1 -3.01618 -8.77169 9.91173 10
437 1 2.9828 10.4456 -13.3209 22
438 1 15.2252 9.41501 0.983143 14
439 1 17.5572 4.90743 -5.78935 17
440 1 -5.60253 -15.3661 -5.73639 12
441 1 5.49987 -4.85087 -23.0865 11
442 1 -6.37934 12.5301 7.85788 9
443 1 14.6058 -5.43981 -3.58123 13
444 1 12.3786 14.7443 -10.3247 17
445 1 18.2964 8.83627 -14.032 9
446 1 3.66108 8.75921 5.56347 24
447 1 -9.25455 6.42658 1.89582 19
448 1 8.52543 11.6602 7.38663 19
449 1 8.05541 3.46468 8.34866 17
450 1 4.94496 1.90287 -18.7079 19
451 1 5.77087 -0.209929 5.7607 19
452 1 10.4457 11.3478 4.88921 18
453 1 8.09541 8.94356 -16.3421 21
454 1 -8.77465 7.46521 -9.59396 19
455 1 1.81078 12.9669 -8.59728 19
456 1 12.2013 0.328917 10.1594 11
457 1 15.2745 5.23016 -19.0053 8
458 1 8.99214 -10.701 -13.0048 18
459 1 13.0906 11.8651 6.21374 12
460 1 -8.7709 -12.3532 -0.993127 12
461 1 -4.04628 8.76039 -16.0529 14
462 1 -9.52431 1.42973 5.84313 19
463 1 -1.45706 13.4511 -13.833 17
464 1 10.9183 -12.598 -6.56429 15
465 1 6.86611 -2.55585 -16.4717 20
466 1 3.71017 15.6753 -7.35456 21
467 1 -5.35111 -6.38891 -16.4842 17
468 1 6.30655 -11.3102 -5.6962 23
469 1 -10.1952 -5.39432 -6.31898 21
470 1 7.63544 13.2745 -13.5542 16
471 1 -2.67734 8.97053 4.96662 19
472 1 -10.3875 -5.00358 1.96889 17
473 1 7.05407 -8.3988 -17.6529 19
474 1 1.46443 -6.67548 5.78234 20
475 1 -13.0054 10.328 -3.04609 14
476 1 3.60245 7.65365 13.6856 10
477 1 13.5477 15.7853 -7.14264 12
478 1 11.7823 -3.87928 -7.96816 18
479 1 5.11872 16.1289 7.40405 8
480 1 -1.23452 0.881406 -23.73 10
481 1 -3.6522 -12.0731 5.23642 15
482 1 10.9865 -4.58462 -20.1295 13
483 1 6.75616 13.6736 2.40226 21
484 1 12.2468 7.72098 -14.5447 18
485 1 2.09609 -2.63427 -21.2402 20
486 1 -1.838 -10.4901 -8.68305 20
487 1 -6.47828 -3.64994 -17.7081 13
488 1 12.4426 1.82328 -2.47022 19
489 1 16.5358 3.95402 -8.39712 19
490 1 9.40617 -2.16533 -13.3277 17
491 1 9.31566 9.324 5.88898 17
492 1 6.60842 -9.29958 -14.1965 20
493 1 3.32737 3.73813 -23.6509 10
494 1 13.2648 14.9119 1.99632 14
495 1 11.4769 14.7466 7.49415 10
496 1 19.3579 5.94886 -8.20048 9
497 1 11.4922 2.00878 4.28953 17
498 1 16.4501 3.78429 -13.8964 10
499 1 11.6008 6.84274 5.92739 21
500 1 16.231 3.80618 6.28537 13
501 1 17.0985 7.79035 -8.78595 17
502 1 1.64339 0.0269877 11.7269 15
503 1 15.1509 -1.43391 -11.3399 17
504 1 8.70905 5.952 6.92914 19
505 1 -6.04761 -0.268943 -11.0858 22
506 1 18.7492 5.47829 -3.06722 10
507 1 -11.8101 10.1172 5.53171 12
508 1 14.1555 16.2371 5.3027 7
509 1 12.1673 3.62816 10.9701 14
510 1 2.19753 9.93606 2.63727 19
511 1 -0.847651 15.8862 2.36974 13
512 1 1.2271 -14.6236 -5.87396 21
513 1 -3.72021 10.1645 -9.16824 18
514 1 19.2316 8.6839 -10.3373 12
515 1 13.0522 -0.254243 -17.545 13
516 1 6.43987 19.144 -7.27545 10
517 1 -0.639457 -14.6737 -10.2084 16
518 1 12.2519 -3.13869 -17.7682 15
519 1 -14.4613 1.32252 -1.82299 9
520 1 -4.24254 6.07529 -16.0416 21
521 1 3.01883 -15.9922 -4.07259 18
522 1 -1.71311 3.20671 -16.0098 20
523 1 -14.048 4.79386 -9.3621 8
524 1 11.6501 -8.5162 0.432149 12
525 1 11.1443 14.3439 -1.53296 17
526 1 2.99455 -7.58281 2.81849 20
527 1 -10.8892 0.98752 -14.0089 17
528 1 9.38142 -1.53065 -21.4298 11
529 1 2.96957 1.61326 9.7027 20
530 1 10.2749 9.96135 -20.2443 11
531 1 14.9775 4.57867 10.9843 11
532 1 9.74648 6.28557 -11.3588 18
533 1 12.8628 11.1836 -4.27074 17
534 1 5.96444 -16.0701 -12.6272 8
535 1 -8.44397 0.778493 8.88758 11
536 1 17.2069 1.51482 0.885182 11
537 1 -0.247402 11.9104 10.3424 14
538 1 9.90798 10.2124 -14.3047 17
539 1 -12.0621 9.20378 -11.7354 10
540 1 10.0977 8.87943 -2.87673 18
541 1 -1.37555 -14.1615 -6.58431 16
542 1 13.8988 -3.12034 1.70295 14
543 1 10.0855 18.0317 -1.50443 11
544 1 -1.15848 6.30576 5.37398 21
545 1 -8.98202 -4.70952 -3.57258 17
546 1 -7.70558 1.22662 -14.3603 21
547 1 6.61811 2.76757 5.27427 18
548 1 -4.70449 -10.8647 8.56899 11
549 1 5.48892 2.89635 8.6143 21
550 1 -5.57619 14.4394 -8.16402 15
551 1 3.56727 -0.216441 -20.8074 19
552 1 -9.09476 0.0719917 2.62681 21
553 1 15.3725 3.2795 -16.4724 11
554 1 8.46231 -7.18209 -15.3584 20
555 1 6.82918 6.8891 3.6355 22
556 1 -10.3888 3.59343 7.67433 12
557 1 10.3364 14.1734 2.62343 19
558 1 2.66895 -2.34919 9.90691 14
559 1 0.852258 6.75027 8.1782 20
560 1 3.7508 -2.45646 -24.353 10
561 1 -5.28474 1.00973 10.1433 10
562 1 2.73618 4.23447 8.71194 21
563 1 -4.78668 -13.3402 2.89718 15
564 1 14.9002 6.50983 -7.90438 20
565 1 7.86421 -13.6527 -7.13853 20
566 1 6.49161 11.5686 -4.83438 20
567 1 12.4067 17.6099 -1.9099 11
568 1 5.37537 1.26806 -22.8794 13
569 1 7.10151 15.9176 -7.08369 21
570 1 13.2089 8.74643 -1.88855 21
571 1 -3.46276 -7.82132 -8.17422 21
572 1 0.913115 -2.14377 -24.0743 11
573 1 -10.2548 12.6803 -7.40897 10
574 1 9.94025 -0.741803 -15.92 18
575 1 13.7381 7.36071 -16.8935 13
576 1 16.6947 9.51968 -11.2018 17
577 1 15.5679 7.97557 11.0511 10
578 1 11.2231 3.80429 7.08357 17
579 1 -0.906047 -10.3427 7.95218 11
580 1 -1.91299 10.8229 -15.9741 14
581 1 3.411 14.5163 5.38156 14
582 1 12.9641 -7.06137 -19.4641 10
583 1 10.7367 13.5206 -8.12957 21
584 1 9.69699 11.8949 1.55583 20
585 1 17.7941 -5.77102 -9.31952 11
586 1 6.47188 5.80915 13.5344 14
587 1 -12.3874 0.489054 2.57817 16
588 1 3.36058 -17.1572 -7.52516 19
589 1 -5.50499 14.3414 -4.99783 18
590 1 7.81367 13.2087 -3.07099 18
591 1 -12.5433 -4.38367 -3.63866 12
592 1 -1.40877 6.49236 11.1988 15
593 1 -2.93418 5.12146 -22.3533 12
594 1 -2.2107 10.3805 -18.5779 9
595 1 3.21428 -13.3759 -3.52451 21
596 1 8.4003 7.23283 -13.6084 20
597 1 -9.31756 12.4491 6.98148 10
598 1 4.17489 -2.52543 -18.245 19
599 1 4.76063 -8.80563 5.09824 16
600 1 6.16296 16.3475 -2.54468 20
601 1 1.46233 3.40918 11.5888 19
602 1 -3.35285 -1.98694 -18.4272 16
603 1 -3.65042 -5.15935 -18.8875 13
604 1 -3.2124 -13.6665 -10.7987 17
605 1 4.15388 17.6322 -11.0119 15
606 1 -4.10744 11.4231 5.92537 19
607 1 8.29654 -10.246 -8.13556 20
608 1 12.7111 -9.54383 -6.92501 16
609 1 5.25359 -12.7263 -0.700599 18
610 1 14.944 2.93166 -11.3447 18
611 1 1.23218 -13.2739 -13.8404 15
612 1 -10.7831 -2.30219 1.84075 17
613 1 0.428517 -17.6544 -6.29292 10
614 1 -5.01372 -10.8557 -8.58599 20
615 1 -10.3581 3.36821 3.0088 15
616 1 -3.34526 -14.9634 -0.220646 14
617 1 13.4215 3.41477 -14.1831 18
618 1 -3.19439 16.5098 -2.95691 13
619 1 -14.2342 6.06264 -2.37751 14
620 1 11.3049 -2.59366 0.363207 19
621 1 -9.84758 -2.19569 -13.0325 18
622 1 10.4396 4.7215 -13.7988 20
623 1 7.91296 14.5436 5.59488 16
624 1 -12.8311 5.68741 -11.7564 11
625 1 -9.84499 -5.46865 -11.0887 17
626 1 4.78523 4.83149 11.1203 22
627 1 6.19684 6.189 -17.1393 20
628 1 15.6047 16.3291 -1.015 8
629 1 -1.74282 2.93594 5.00356 20
630 1 -2.22403 -16.8545 -11.326 10
631 1 -2.24536 -13.9723 2.20551 13
632 1 12.0766 12.8349 0.46746 17
633 1 6.48419 -4.75147 -13.1606 18
634 1 7.49517 8.88385 0.384203 18
635 1 -7.6974 -6.08576 -0.530533 16
636 1 11.1592 9.31403 -17.3606 20
637 1 2.14334 -16.5336 -12.846 12
638 1 6.12642 -16.365 -5.0695 17
639 1 8.93518 -14.9797 -4.84776 12
640 1 8.39723 9.03631 -10.7127 17
641 1 17.181 11.3811 -8.7023 12
642 1 -0.381323 -5.87323 -18.8974 16
643 1 -1.37429 -1.7924 8.07568 18
644 1 2.65953 5.08393 -21.2943 15
645 1 -10.0166 -1.56196 -15.5654 14
646 1 -8.54447 -2.69334 -6.10207 23
647 1 9.80711 11.8034 -17.4293 13
648 1 7.48267 -3.86074 -20.3913 16
649 1 10.1879 9.5728 -8.46004 21
650 1 9.53982 -6.41187 1.77657 18
651 1 -8.81551 9.67736 9.28506 10
652 1 11.831 -9.56379 -4.44831 13
653 1 12.5573 -5.73511 0.288505 14
654 1 14.8134 -2.39813 4.70414 10
655 1 0.823602 13.1232 2.45283 17
656 1 -10.6192 7.03023 7.39123 10
657 1 -4.10596 9.88069 2.2686 18
658 1 4.13589 -10.748 2.08939 23
659 1 11.8735 9.07554 11.2571 14
660 1 -11.8088 -3.29217 -7.39681 17
661 1 9.97327 -6.15917 -4.64307 18
662 1 -7.12091 10.2305 -8.53283 16
663 1 6.44495 -13.511 -3.14147 20
664 1 5.10662 -0.00177832 10.7446 15
665 1 4.61398 14.7318 -0.268863 22
666 1 4.45433 -8.97205 -0.167493 20
667 1 0.914488 -0.106202 9.04529 19
668 1 -12.0806 -7.91694 -6.72407 10
669 1 6.78697 13.4737 8.82899 14
670 1 9.2401 14.357 -5.55603 21
671 1 -6.27511 -10.4711 3.35137 17
672 1 -2.11642 -16.1639 -4.52248 13
673 1 9.39153 -1.99561 3.45736 19
674 1 7.55319 -7.76341 4.58233 12
675 1 7.57895 10.4185 2.87981 19
676 1 -0.0954411 -6.66338 -13.2106 21
677 1 1.41377 3.41558 -17.0237 21
678 1 -3.25053 -0.640122 5.19844 18
679 1 -2.42435 13.2582 -2.93846 22
680 1 13.8578 5.02292 -2.2367 17
681 1 6.87711 11.763 -10.6491 21
682 1 -3.74469 8.21397 10.2885 16
683 1 11.1945 10.6698 8.58166 17
684 1 10.739 2.3089 -16.6105 18
685 1 -3.38429 -11.4977 -5.77139 23
686 1 18.0303 4.77139 0.5897 13
687 1 3.38179 1.37952 -15.751 20
688 1 4.86109 10.1809 8.29228 18
689 1 13.7793 -10.128 -10.0513 15
690 1 3.41581 4.62186 -18.7899 20
691 1 17.1049 6.42936 -16.5424 10
692 1 15.8783 -0.0657834 -3.71185 17
693 1 6.79754 -5.58469 6.77062 12
694 1 -5.74021 -8.04618 -13.223 17
695 1 12.5165 11.9389 -6.99928 18
696 1 -16.469 7.44982 -0.0883638 5
697 1 13.3406 10.5346 -13.0403 19
698 1 16.0126 10.0773 -3.05027 14
699 1 2.2899 0.858936 -23.8605 13
700 1 -5.78161 13.5953 0.727185 12
701 1 13.7656 9.14659 5.55182 15
702 1 16.1442 11.6633 -12.9405 12
703 1 5.85083 0.0449493 -15.9363 20
704 1 15.5473 -2.22527 -5.94921 17
705 1 -9.85425 0.0957994 -6.46834 18
706 1 10.6055 9.21349 0.364675 19
707 1 -8.82213 -8.61048 -5.75266 19
708 1 -7.47029 13.2307 -14.4216 6
709 1 5.60825 5.50429 6.33826 23
710 1 -12.6261 -0.973216 -12.9086 14
711 1 -9.4855 8.52077 -0.191627 20
712 1 12.5928 -7.46229 -16.0056 14
713 1 -7.53816 -9.30724 -11.1033 15
714 1 16.5033 -5.98701 -6.25776 15
715 1 -11.7793 3.77292 -6.83082 15
716 1 12.788 11.4085 3.05083 16
717 1 -3.38456 -7.72238 2.28716 18
718 1 9.37474 4.53168 12.3939 13
719 1 14.9118 1.11543 5.02949 14
720 1 -9.14891 7.5401 -3.86569 21
721 1 1.61429 13.8166 8.38797 12
722 1 6.5573 10.2673 -13.4599 23
723 1 1.71076 -5.18122 -22.9203 12
724 1 -3.50583 14.9253 -0.230725 17
725 1 -8.27012 -12.8252 2.55498 14
726 1 13.3503 6.10956 -11.786 19
727 1 5.41879 11.9537 5.9257 18
728 1 17.0077 -2.53574 -8.42205 17
729 1 9.83435 -1.95974 8.37811 10
730 1 1.48178 16.009 -16.9367 10
731 1 4.72409 13.1939 -13.4755 20
732 1 -4.4432 2.22095 5.10157 20
733 1 16.5679 3.27885 -1.94174 16
734 1 -0.958245 -3.25195 -15.9693 19
735 1 15.6379 6.98018 -4.23878 16
736 1 -10.9267 1.45361 -9.40486 18
737 1 -0.963916 -5.84061 4.94449 16
738 1 10.9574 15.1454 -13.4316 11
739 1 9.27259 0.660592 5.50121 18
740 1 5.94818 -12.8318 -9.02899 17
741 1 -4.90431 16.9493 -6.07099 11
742 1 -10.3338 6.8815 -6.77333 21
743 1 12.9427 0.667194 -11.3506 18
744 1 4.4429 -8.79665 -16.0993 20
745 1 -5.5785 8.47341 -0.65429 21
746 1 13.58 9.39326 -7.59023 16
747 1 9.3791 -2.07965 -18.218 21
748 1 -5.13973 -8.0596 -18.4631 10
749 1 2.01202 -8.33835 -10.91 20
750 1 0.100086 8.81023 10.7572 17
751 1 4.71621 -14.218 -6.40623 20
752 1 2.01594 13.6679 -19.2171 11
753 1 14.3159 1.50054 -8.31095 18
754 1 11.3442 6.70204 -2.5886 18
755 1 8.80608 -12.4878 -10.6432 18
756 1 8.42702 1.48626 -18.4751 21
757 1 14.67 3.0801 -4.75478 22
758 1 0.0351916 4.89694 -19.3879 19
759 1 -0.32713 -7.41331 2.46012 20
760 1 10.0273 11.737 -11.2489 21
761 1 -8.93214 0.0192929 -11.9641 19
762 1 -15.9188 5.85333 3.11082 6
763 1 -1.60735 8.75782 7.71217 22
764 1 -1.90515 -10.9778 2.56774 21
765 1 6.25374 11.7129 0.398274 21
766 1 -0.029684 -13.5609 -3.26099 20
767 1 4.94712 13.0988 -8.5114 20
768 1 -5.9726 6.41825 7.07376 19
769 1 -7.47605 2.42476 4.20012 19
770 1 -14.1674 12.3341 -1.13927 7
771 1 -1.97422 -7.01989 7.40036 19
772 1 5.59889 -13.9562 2.74721 10
773 1 13.1786 7.96745 8.96225 19
774 1 6.71244 -10.3026 -11.0546 21
775 1 4.77058 -8.17953 -18.9884 19
776 1 -1.24445 1.99831 -18.7599 20
777 1 -2.56251 7.33362 -18.1843 18
778 1 10.7695 16.3119 5.44893 10
779 1 -8.0903 -2.13139 7.44289 15
780 1 -2.09294 6.72713 -13.0722 23
781 1 -13.7569 5.59216 -6.23297 12
782 1 10.9499 11.6672 -1.8655 18
783 1 -6.16668 -15.0519 0.626084 13
784 1 15.4799 12.7432 1.37201 12
785 1 -8.26668 -10.4292 -7.61843 15
786 1 4.69238 19.0731 1.08945 8
787 1 -2.62368 0.122989 8.1457 20
788 1 -0.911188 -14.85 -13.5647 19
789 1 16.2133 3.62962 3.46138 17
790 1 8.25552 -16.9561 -7.39175 11
791 1 8.08104 8.72026 9.31425 21
792 1 13.6147 -1.68303 -14.4625 14
793 1 7.76769 -8.6812 -6.01183 17
794 1 4.74642 3.88231 -15.9963 21
795 1 -6.70534 4.56319 -14.2738 21
796 1 -4.78987 6.54883 -20.0325 14
797 1 -4.30494 3.15667 8.16283 19
798 1 11.7675 -1.71224 4.84847 18
799 1 -7.29361 -8.12561 -3.58647 21
800 1 12.9334 -1.80605 -2.49077 20
801 1 1.50789 7.21061 -13.4508 20
802 1 15.9851 6.62016 -1.29366 20
803 1 3.1575 17.5688 -1.25889 12
804 1 -8.44626 -8.19606 1.18423 16
805 1 11.5145 -12.55 -11.5888 13
806 2 -7.34779 1.79544 -12.489 19
807 2 -8.76606 9.25129 -8.78228 21
808 2 1.89749 1.99689 -16.1516 21
809 2 -2.6693 7.03578 4.53125 21
810 2 4.49677 -5.54914 -14.6952 18
811 2 -5.99754 -4.08001 -11.1273 20
812 2 3.53287 2.4898 7.90812 18
813 2 5.55178 1.21704 12.0405 15
814 2 -9.9349 -11.8433 -2.29153 10
815 2 -10.6502 3.41809 -8.15294 19
816 2 2.75617 16.0041 -0.00131918 16
817 2 -10.1958 0.226858 -4.48791 16
818 2 5.40084 15.0269 -8.21485 21
819 2 10.5407 7.43092 1.34777 16
820 2 2.46243 17.5757 -11.9494 10
821 2 16.8723 9.94523 -13.2486 15
822 2 -8.9993 -3.03157 -14.7431 16
823 2 -6.70307 -8.11898 -17.2149 10
824 2 6.71139 5.26521 7.8957 19
825 2 9.05808 -0.525437 -14.3414 19
826 2 6.00145 -13.3934 0.997981 14
827 2 -8.57167 7.33724 -5.77462 19
828 2 -13.262 3.8096 -10.9141 11
829 2 17.6074 6.4106 -4.41964 14
830 2 13.1592 -8.52209 -14.1865 12
831 2 -5.76564 -13.9683 -4.41236 15
832 2 -10.8106 -5.0989 -4.11704 17
833 2 -0.424015 -11.1531 -4.22513 22
834 2 13.8905 -1.03553 1.67235 18
835 2 -1.14798 -13.8527 -11.9699 17
836 2 7.33064 0.905196 5.23417 18
837 2 3.19978 12.1921 -14.2195 20
838 2 7.40685 -15.3726 -6.07123 14
839 2 -8.50999 -8.48946 -7.99805 19
840 2 -2.29777 3.60298 9.0336 18
841 2 -9.93527 10.2514 -1.07023 18
842 2 1.02404 1.70399 10.4426 17
843 2 -5.48297 9.08162 -8.93663 19
844 2 13.4644 -8.8842 -3.99081 13
845 2 1.44937 12.7908 -10.6711 20
846 2 12.591 12.9914 -1.61003 16
847 2 11.3712 17.7916 -0.329141 10
848 2 11.3172 1.47209 -12.1834 20
849 2 -6.52267 8.27745 7.11713 16
850 2 4.99309 5.29638 -19.5122 18
851 2 -3.29573 10.1349 -17.0722 10
852 2 13.4008 11.0205 -8.66744 18
853 2 -0.846307 0.83416 8.61525 18
854 2 -13.1407 10.4111 -1.15459 16
855 2 16.3845 7.71069 -11.8774 18
856 2 -8.19928 -7.06317 8.13698 9
857 2 3.83661 -7.01123 -20.1755 20
858 2 2.6476 -6.73836 -23.0445 9
859 2 -8.62187 -12.0613 0.795678 17
860 2 13.4068 10.3163 -5.78553 16
861 2 -3.33384 9.27363 0.637251 18
862 2 -2.01716 -9.52016 -11.9611 15
863 2 -2.08465 16.6171 1.26766 9
864 2 8.94179 1.69624 9.4375 18
865 2 6.04568 -7.45484 5.86616 14
866 2 14.1893 7.66409 1.04212 16
867 2 12.3685 14.1349 -14.203 10
868 2 -10.2867 -0.145751 -8.15746 19
869 2 14.4595 7.51157 3.6764 17
870 2 13.3207 -5.24033 -8.21236 16
871 2 8.30982 -8.71898 -13.1771 18
872 2 1.17501 10.4405 10.3142 15