ITEM: TIMESTEP
3000
ITEM: NUMBER OF ATOMS
2000
ITEM: BOX BOUNDS pp pp pp
-30.0 30.0
-30.0 30.0
-30.0 30.0
ITEM: ATOMS id type x y z Coordination
1 1 -10.1484 4.34747 -14.1202 17
2 1 -3.46072 -12.9936 -8.64315 13
3 1 2.02455 13.1006 15.4667 10
4 1 6.83755 -11.2014 7.2859 14
5 1 -10.9538 10.8901 -1.8388 17
6 1 12.0893 -10.1974 -9.5475 13
7 1 -10.9648 2.91822 -8.14654 19
8 1 -1.87299 -8.13591 14.1064 6
9 1 -7.32211 1.05572 -11.0279 21
10 1 -14.0423 -9.97379 7.20651 11
11 1 12.7786 2.50176 -11.1695 14
12 1 -3.34216 2.81605 -6.90535 16
13 1 -3.76728 -13.1751 2.00686 17
14 1 -13.5337 -9.18673 3.99061 14
15 1 1.44861 2.56221 16.7114 15
16 1 3.75292 -2.9066 7.96913 20
17 1 -1.66093 4.30255 9.74013 22
18 1 6.27335 -1.67016 3.58134 16
19 1 -1.60254 11.7253 -10.42 18
20 1 4.55592 -3.05049 15.7923 10
21 1 -9.29848 -1.57368 -13.9897 17
22 1 -13.0764 -3.61759 12.4511 14
23 1 14.1092 4.61792 7.3536 18
24 1 1.61446 9.43704 -12.4257 16
25 1 3.20761 5.58497 -14.6224 18
26 1 15.2053 2.58076 11.4534 11
27 1 -7.1958 0.731774 1.36875 18
28 1 -14.7177 5.26996 -10.0702 11
29 1 -2.29315 -0.327082 -7.064 17
30 1 -9.61104 7.4506 8.44542 21
31 1 7.46203 -14.6716 6.58154 12
32 1 -1.43842 -0.816912 6.95689 18
33 1 2.7113 -15.3922 -13.0102 9
34 1 8.7045 -12.9438 0.412293 16
35 1 -7.76181 -14.0164 -5.01139 12
36 1 -13.4028 -6.64881 11.4063 15
37 1 2.5742 -1.75635 -4.54964 18
38 1 1.70967 -8.19879 -13.9995 20
39 1 12.0543 -10.1749 -13.0623 9
40 1 -2.17282 4.32352 -17.9035 16
41 1 -0.142361 4.52276 15.1032 22
42 1 -1.30953 -12.2223 6.47951 21
43 1 6.7103 -5.48381 13.6926 12
44 1 -12.1094 -0.557013 2.92862 18
45 1 -16.5352 -1.37081 8.86855 13
46 1 -8.69573 0.85006 -1.68435 20
47 1 -3.03275 13.7036 -3.44995 21
48 1 -0.389541 -15.3609 -11.5899 11
49 1 1.86201 2.91361 -12.7436 17
50 1 6.31329 -6.9049 -10.1968 10
51 1 -3.09117 -3.95696 13.2918 11
52 1 -13.5419 6.12584 -1.67348 15
53 1 3.28029 12.0062 -10.7816 20
54 1 0.790987 12.8755 8.92892 20
55 1 -10.6629 8.27671 -9.59399 19
56 1 0.0747927 14.3483 -0.221526 19
57 1 1.65938 -12.3754 2.6235 20
58 1 5.62271 -9.73292 -4.19676 19
59 1 5.99456 -6.88415 -16.9191 9
60 1 -8.78981 7.72395 11.8899 17
61 1 -13.1126 -4.02022 -10.1924 12
62 1 4.38242 -0.301505 6.12873 18
63 1 -8.78319 7.79165 -5.06395 16
64 1 -9.34123 -11.901 6.19544 13
65 1 -3.36625 14.4307 13.379 12
66 1 -12.3551 6.68344 -7.74412 20
67 1 -6.22309 10.0381 12.7079 16
68 1 1.73398 7.59808 -5.51791 16
69 1 2.67129 4.67922 5.69778 12
70 1 -5.7042 -16.5013 8.37396 16
71 1 0.943175 4.28507 11.5013 20
72 1 6.15537 -15.7467 -4.16949 11
73 1 4.40161 11.2701 15.0139 17
74 1 -15.1253 2.76201 -12.1649 10
75 1 -13.9679 7.90672 -10.1578 12
76 1 4.35597 6.32616 13.0531 20
77 1 13.6023 -3.05285 -10.7051 14
78 1 7.82323 -12.3281 4.73742 19
79 1 -16.7088 -1.69948 5.79854 9
80 1 -7.03751 -2.96277 3.20802 11
81 1 5.50519 16.0452 7.47703 17
82 1 6.33468 -2.44382 13.6982 17
83 1 -6.44733 -13.9136 6.47566 17
84 1 -10.7233 0.767659 0.381513 20
85 1 12.1914 2.87408 5.50353 21
86 1 8.65423 -2.85671 -0.78914 19
87 1 -1.80391 12.1739 11.734 20
88 1 4.55798 0.523594 9.52847 20
89 1 -8.38134 -6.15767 2.17835 20
90 1 -3.12189 -5.38818 -9.34513 15
91 1 -12.1539 8.58633 7.94541 12
92 1 -8.16479 12.1854 -2.07481 16
93 1 -2.41129 7.64504 -10.4787 16
94 1 4.33546 0.53336 -5.32371 18
95 1 6.3797 -1.07368 -5.0757 18
96 1 9.07181 13.868 -8.3768 14
97 1 6.54026 -5.62306 1.20605 16
98 1 5.00417 -10.0143 10.2984 11
99 1 -5.8341 15.6865 -6.07457 10
100 1 -9.30751 10.8367 3.94117 13
101 1 -8.71464 -3.95956 13.5024 20
102 1 -4.85058 8.55786 5.16071 19
103 1 -6.73845 -6.72376 10.0221 25
104 1 14.3245 -6.01362 -5.69219 15
105 1 -10.2361 4.75003 5.12014 19
106 1 -11.4676 -14.577 3.58613 12
107 1 9.42633 -9.55394 -6.34639 17
108 1 4.38416 1.33445 -11.9276 15
109 1 -6.81547 -3.84257 -15.1258 15
110 1 1.902 0.55306 7.66078 20
111 1 -0.193002 12.837 2.31698 22
112 1 -8.02139 6.99937 -10.1836 21
113 1 1.5389 9.0944 19.25 10
114 1 -0.528974 13.5652 -6.29891 20
115 1 -13.6488 11.6034 1.49464 12
116 1 2.19896 9.8784 0.69321 21
117 1 -4.35347 -9.79028 9.13298 21
118 1 12.2484 -1.01809 9.1506 17
119 1 0.606426 -4.17993 -8.58742 19
120 1 4.95357 -8.88576 -8.96109 17
121 1 -3.05344 6.19549 7.90003 21
122 1 7.49283 -2.34904 17.0137 11
123 1 -10.4616 -7.09069 -0.0444513 17
124 1 4.14448 -4.7038 3.26225 15
125 1 -9.11621 -8.58054 -3.73462 16
126 1 9.93755 -11.3264 2.9634 9
127 1 -4.17877 8.36624 1.79233 18
128 1 7.50939 2.47162 -14.7874 17
129 1 6.14014 19.1632 -2.89945 10
130 1 -8.54684 -13.2751 10.6861 14
131 1 -11.2673 -15.0113 9.85323 14
132 1 -2.62491 3.41284 2.90405 18
133 1 4.14504 -9.40966 -15.461 10
134 1 2.4626 5.46507 -8.08756 20
135 1 9.49972 -9.29594 -1.01032 15
136 1 -1.11295 -18.9465 2.83112 11
137 1 -11.9541 -9.53567 0.925461 17
138 1 16.6676 8.20295 9.03921 13
139 1 16.1931 -2.32848 -8.87243 11
140 1 -14.14 -2.54382 2.68303 16
141 1 10.3524 8.90267 6.18243 20
142 1 13.2043 9.73038 4.7879 17
143 1 -5.48222 2.80854 16.2764 11
144 1 8.98181 5.10917 -1.76973 18
145 1 -4.18148 10.2438 10.6998 20
146 1 -4.06457 13.428 -6.3314 17
147 1 -3.28704 -5.93825 -12.5728 16
148 1 10.261 -11.9068 -11.6428 11
149 1 0.595703 14.3115 -10.9525 16
150 1 8.28801 -3.87426 11.341 19
151 1 1.6354 -3.57114 -18.4139 11
152 1 -3.57349 10.1766 -7.89959 18
153 1 11.8046 -0.250548 -5.47574 15
154 1 -12.2217 10.4209 -7.8527 14
155 1 1.70849 -4.46753 0.367976 19
156 1 -5.17128 13.5115 -0.293673 18
157 1 8.41513 2.76778 -11.5705 18
158 1 7.94671 -8.96938 5.11665 14
159 1 -5.99413 5.3153 -8.16239 19
160 1 -7.46318 12.8302 8.54142 12
161 1 14.3157 9.22643 -8.5071 9
162 1 4.98805 11.1702 -0.54627 20
163 1 -0.654596 16.5273 2.05585 13
164 1 8.60108 10.4202 -3.02735 15
165 1 -4.10722 10.6206 -4.07886 17
166 1 1.43267 16.9198 -10.3964 10
167 1 2.9513 10.1474 -14.9016 12
168 1 -13.1681 -11.9226 1.80883 11
169 1 -13.3342 8.72719 -2.26151 17
170 1 -4.12295 -1.85868 -14.238 18
171 1 0.9137 -10.6289 -15.5 16
172 1 8.50467 12.9182 10.327 15
173 1 -0.362381 15.6927 7.30483 13
174 1 -11.2003 -3.06433 -4.33245 19
175 1 -11.9975 13.3541 4.35354 10
176 1 17.0597 -1.82793 -3.50779 11
177 1 -10.9448 1.28737 -15.7364 12
178 1 7.54954 1.20262 17.9413 12
179 1 4.30579 17.8615 4.83315 13
180 1 -2.63313 8.83637 8.12746 20
181 1 -0.52897 -8.29106 -16.7605 14
182 1 -4.53048 13.41 10.1589 17
183 1 -1.23386 11.3615 -7.09042 17
184 1 3.41017 -5.0629 13.1211 14
185 1 -11.9761 -4.18495 3.90118 19
186 1 -2.7539 -13.3391 -11.9063 13
187 1 -8.81214 10.2375 -10.7674 17
188 1 -3.80939 -9.74411 4.03776 17
189 1 5.02619 -17.2635 -7.07349 9
190 1 -3.89998 10.8516 -12.3737 13
191 1 -14.7818 1.78605 10.0548 13
192 1 1.35307 11.065 -4.82437 19
193 1 9.58694 8.05015 -5.26112 18
194 1 -5.38349 6.08303 16.4103 14
195 1 -1.44105 -9.91352 9.09505 17
196 1 -8.29765 4.83065 -1.26304 16
197 1 1.03589 18.3187 5.27915 9
198 1 -0.715797 7.34401 11.1058 21
199 1 13.0012 4.85831 12.5594 15
200 1 -5.31551 13.8336 3.36491 15
201 1 15.3322 -5.28665 -9.31762 12
202 1 -6.4943 13.2117 12.2232 10
203 1 -5.88658 2.00067 -8.29715 16
204 1 11.8147 -4.94898 2.55607 15
205 1 -6.68403 -6.32761 7.09743 22
206 1 -17.3776 1.67056 7.23525 9
207 1 -6.92684 -11.0236 4.1093 19
208 1 4.66711 8.40971 15.5803 22
209 1 -12.5648 -0.153549 -2.57372 17
210 1 -3.6949 -16.7363 -1.41373 13
211 1 -2.83893 -2.42281 -4.48196 21
212 1 6.38314 -8.04009 -1.77692 19
213 1 -2.62057 10.1708 4.73439 17
214 1 -6.33669 -0.595257 4.58319 14
215 1 4.36247 13.4633 12.8235 16
216 1 -5.96887 -0.750084 -2.88714 19
217 1 -7.8477 13.7626 -10.5136 10
218 1 -12.6677 -3.70837 -6.87253 15
219 1 -10.3061 -2.65109 11.1676 20
220 1 -0.857575 -10.8413 3.76228 21
221 1 3.66294 -14.2174 7.28835 14
222 1 -13.9532 11.3562 4.47343 10
223 1 16.169 3.27995 6.37989 12
224 1 7.64038 5.06749 -4.03455 16
225 1 -6.96974 -7.11631 -16.1838 6
226 1 4.83903 0.517964 12.7026 18
227 1 -5.84562 -1.23003 0.0716911 19
228 1 6.66053 -16.6006 3.84453 14
229 1 -3.9924 7.51996 -14.1844 19
230 1 3.29212 -12.3347 -13.9867 14
231 1 8.98774 0.085388 -12.6301 17
232 1 3.72801 7.93032 -17.1886 11
233 1 -6.21844 -2.71692 -8.26773 21
234 1 -2.55567 15.6463 -7.77003 13
235 1 -11.5509 -11.552 10.7916 12
236 1 6.07526 15.7887 -4.3469 14
237 1 -8.72593 1.73578 16.2958 12
238 1 -6.34667 13.2578 -4.2506 16
239 1 7.26164 1.58015 8.7485 15
240 1 -3.77277 -9.41642 -12.9264 19
241 1 -5.20679 11.5597 -9.87485 17
242 1 4.75544 6.80503 -9.62854 16
243 1 -8.82144 -14.6902 8.15591 20
244 1 -7.80901 4.61701 7.73097 17
245 1 -6.66485 7.11887 9.1935 21
246 1 1.26873 -10.3706 -6.03018 18
247 1 -6.0389 -14.7347 0.339003 19
248 1 8.7581 -13.7204 -2.99067 13
249 1 -1.24959 1.53063 5.11539 17
250 1 1.05842 -7.06273 -1.75907 19
251 1 12.4767 7.59558 14.3966 14
252 1 5.67756 11.3288 -9.21588 21
253 1 -0.149078 11.4401 -0.402943 18
254 1 -11.2086 2.65832 3.20092 20
255 1 -14.0166 11.7711 -1.25169 11
256 1 1.07688 7.73368 13.8479 19
257 1 5.7954 -19.2196 1.04565 10
258 1 14.1449 -0.681983 -2.90182 19
259 1 2.40022 7.61302 7.05291 23
260 1 -10.3524 7.3949 5.24786 17
261 1 -9.51257 -6.14096 -2.42343 18
262 1 5.82246 4.27722 -13.1198 22
263 1 3.54523 -1.41007 11.1386 15
264 1 8.75188 11.262 -10.5328 14
265 1 2.87093 -9.13717 -3.37518 17
266 1 -1.44771 -0.607566 -12.6235 17
267 1 1.77874 -20.2176 4.60174 7
268 1 9.08016 0.584321 -6.23967 16
269 1 -12.388 -4.10801 6.53921 18
270 1 4.99798 -17.1911 -0.937734 14
271 1 -8.70076 -3.82925 -7.53193 18
272 1 4.90257 14.0433 -2.23513 18
273 1 1.37089 -2.66286 -15.6589 18
274 1 5.31627 5.16563 16.4421 19
275 1 17.0856 5.6939 3.57499 11
276 1 -5.33155 -7.02536 1.88397 19
277 1 11.9189 -6.34921 -10.2985 17
278 1 -2.33163 -7.66719 2.24679 21
279 1 -8.19484 -1.9905 -10.9436 19
280 1 -12.9643 0.580108 -13.1483 15
281 1 -8.24471 -16.5736 10.2767 14
282 1 10.4714 1.35963 8.47503 20
283 1 4.74612 -4.09604 10.3588 20
284 1 -5.64083 -7.92464 -11.5059 15
285 1 3.2601 -7.72387 5.59688 20
286 1 -0.817442 7.84823 -12.9657 20
287 1 5.57864 9.19871 1.37285 15
288 1 -8.17525 -8.2046 4.86098 17
289 1 2.52858 12.9242 1.38312 21
290 1 -6.81934 -3.62397 11.3858 21
291 1 -11.1328 -5.90022 -8.13049 16
292 1 -5.62973 -3.87999 -11.4923 18
293 1 -2.0381 7.84665 -16.9323 12
294 1 -6.55631 -10.9859 -8.34443 13
295 1 -2.94061 -10.217 1.09975 18
296 1 -4.02179 -4.84627 0.540837 20
297 1 10.0351 -4.1758 -14.7881 11
298 1 15.202 0.80781 -10.0552 11
299 1 0.927728 -5.9804 3.49108 20
300 1 11.4299 4.63165 3.53772 22
301 1 -3.92318 -5.46644 -4.03263 22
302 1 -9.67083 -5.64425 11.2423 21
303 1 -2.78725 -11.9709 -1.10383 17
304 1 8.77354 4.38395 16.9018 15
305 1 -7.19647 -16.5706 5.49268 19
306 1 2.48767 2.6821 -5.53071 18
307 1 -0.661569 -12.7827 0.763405 22
308 1 -0.524002 15.3554 -3.45198 17
309 1 6.21529 0.393778 -13.876 20
310 1 -4.59417 -6.4553 -14.9636 19
311 1 2.97339 -6.91805 1.37701 19
312 1 -11.6148 -9.0839 12.9289 11
313 1 3.71894 7.20636 18.3804 16
314 1 2.48099 -14.1655 0.0514014 18
315 1 -5.19147 -11.7682 -11.2367 15
316 1 -10.4531 5.2509 -10.9085 19
317 1 10.2377 6.07398 6.19975 19
318 1 -7.75224 4.24304 -12.5472 21
319 1 0.85274 6.61205 -10.492 18
320 1 -3.9828 -4.36209 6.66345 21
321 1 7.51244 -13.7711 -10.2345 16
322 1 -4.82417 16.0102 -2.30673 12
323 1 2.96583 10.8642 6.04071 17
324 1 9.85903 1.84295 3.2296 19
325 1 -10.1444 1.38848 6.01723 15
326 1 -3.25992 -6.92555 11.2099 18
327 1 -4.79474 11.1481 2.57812 20
328 1 1.37477 -5.48769 -14.7902 15
329 1 12.8894 10.042 -2.72988 12
330 1 3.97058 -11.8221 1.02045 22
331 1 -2.55205 -1.55051 14.3725 12
332 1 -15.1049 -4.10471 6.89739 15
333 1 3.18833 -17.3447 -3.30898 12
334 1 -7.62184 7.47872 14.6807 10
335 1 -10.3554 5.90715 13.7104 14
336 1 -15.5071 -4.32734 10.0959 12
337 1 -13.9519 -6.92596 8.40001 15
338 1 13.9943 -3.71876 -2.58762 17
339 1 -11.6305 -8.96342 9.51668 16
340 1 8.9087 -2.3921 -7.30189 11
341 1 8.02972 -12.4092 -5.77197 16
342 1 3.35014 19.2311 -4.03578 14
343 1 -3.21116 -5.07405 3.30857 15
344 1 -9.35822 11.3151 -5.22477 16
345 1 -0.137 2.82883 8.07946 16
346 1 10.1991 7.76907 12.9573 17
347 1 -9.20739 -0.176005 3.24671 18
348 1 8.14825 -10.9311 -2.79633 19
349 1 -1.99426 9.92121 1.92315 21
350 1 -5.49559 5.92209 3.14288 18
351 1 3.78394 -11.0955 7.72406 19
352 1 14.3411 -3.80362 4.36623 9
353 1 0.418642 6.87867 8.27171 20
354 1 -5.79561 -3.36176 -5.24745 25
355 1 -0.825888 1.60502 15.0154 20
356 1 -2.56506 12.9257 4.34061 18
357 1 9.88311 7.34474 16.8986 14
358 1 -8.34787 13.4729 -7.09454 11
359 1 1.2467 -6.38962 -19.3411 9
360 1 -6.44601 2.11601 -4.81468 19
361 1 8.19136 -10.1203 -13.3689 11
362 1 -9.39708 2.2486 12.735 21
363 1 -15.4518 3.53929 2.59403 11
364 1 -3.27988 -2.98188 -7.61217 21
365 1 -6.21507 10.9402 -0.236725 15
366 1 7.42396 -0.964537 6.8848 15
367 1 -10.0152 -12.1502 2.96736 19
368 1 6.06296 -8.48806 8.03394 18
369 1 -6.1088 4.29569 1.18047 17
370 1 -8.69725 -10.4854 12.5801 14
371 1 -15.5727 9.10658 0.142777 10
372 1 -1.32858 -3.68429 8.68492 17
373 1 2.94487 -13.8854 -7.65867 13
374 1 -4.62141 -0.44074 -9.42713 18
375 1 7.64276 -2.8251 -13.6557 16
376 1 4.02608 13.608 5.03374 19
377 1 -9.98954 -0.0407253 -3.97078 18
378 1 4.94786 -9.96781 -12.7622 14
379 1 10.8822 2.47763 -13.6938 11
380 1 -4.56484 -15.8951 -5.69031 7
381 1 -12.9128 -5.85784 -4.23042 16
382 1 -4.18828 -8.86388 -1.65048 15
383 1 12.0898 4.77605 15.8883 13
384 1 13.3681 2.57574 -2.81364 20
385 1 -10.9914 2.7479 -11.7254 18
386 1 3.95269 17.5845 -0.965684 15
387 1 -13.733 -0.333368 -5.94843 13
388 1 -7.47666 7.85675 6.49199 17
389 1 -7.71967 14.2205 0.682245 12
390 1 -5.64908 5.5721 6.3517 20
391 1 9.56872 4.50372 13.4387 20
392 1 12.6858 -4.34569 -8.05026 19
393 1 9.36294 -3.6841 14.6227 12
394 1 12.8371 2.09989 -7.89974 18
395 1 -6.18896 -15.9461 -2.58654 15
396 1 2.74626 4.30703 8.55273 21
397 1 -1.2246 5.63089 -1.84255 11
398 1 0.737075 -7.66378 -5.4068 18
399 1 1.00249 10.3373 3.75356 18
400 1 4.24649 3.34486 -3.71636 17
401 1 -8.99702 2.31808 -6.53139 19
402 1 5.67716 -10.4276 -1.30095 22
403 1 10.8075 -0.156395 6.24786 19
404 1 -8.25002 -1.60211 -5.42857 19
405 1 -9.10602 -9.73698 1.65793 17
406 1 -8.58866 -7.40712 13.3373 14
407 1 -2.8696 10.872 -0.990609 20
408 1 -12.0911 -8.90437 -2.38035 16
409 1 7.22738 9.87172 16.2898 15
410 1 -10.1872 6.34127 -3.05195 18
411 1 0.977278 11.8345 -8.42724 17
412 1 5.62632 12.2878 7.35516 22
413 1 -13.5308 -6.75987 -1.22964 17
414 1 -1.55317 -9.62151 -6.83504 16
415 1 -14.7369 0.439224 7.33002 16
416 1 -11.8554 7.97654 -5.50552 15
417 1 5.36389 -10.3445 4.63473 23
418 1 -5.6502 -12.8814 -2.46716 21
419 1 11.6508 10.5874 8.66768 17
420 1 5.63275 8.06771 -14.3655 13
421 1 -13.1761 5.63724 -12.9297 14
422 1 -2.0249 15.9136 -11.2964 10
423 1 -9.51609 5.66569 -7.97203 20
424 1 -1.37852 -13.8622 3.83483 18
425 1 13.1609 6.96163 5.30334 18
426 1 0.890947 8.45563 -15.4893 16
427 1 -4.76351 3.50273 9.37464 21
428 1 -14.9049 3.5362 -0.970176 12
429 1 -8.28934 5.02005 2.70648 14
430 1 -4.56187 -15.6186 4.19922 18
431 1 1.8904 -4.87923 -6.03818 18
432 1 7.53007 -10.5186 -10.1966 18
433 1 -1.18274 -3.80019 5.76563 18
434 1 -13.3831 2.62811 5.18349 14
435 1 -14.836 -0.811112 11.3286 11
436 1 -14.322 7.95853 6.05756 11
437 1 -1.53091 -6.74273 8.009 19
438 1 -7.88484 0.279863 -16.5244 9
439 1 5.86638 -12.2208 -7.6212 20
440 1 1.67791 -10.2649 -11.5396 18
441 1 -4.68269 -3.72608 9.36165 22
442 1 3.80441 -8.2156 -5.99717 18
443 1 -5.12752 2.57584 -16.8722 12
444 1 6.16118 -13.9015 2.27086 22
445 1 3.1813 14.4041 -5.4313 19
446 1 -12.8305 11.1531 7.12159 9
447 1 -5.64526 -2.72728 13.9112 14
448 1 -10.7201 -5.89636 -11.7046 12
449 1 -9.50602 -7.19018 8.04816 18
450 1 10.0791 -5.56625 9.24156 14
451 1 7.13638 2.08192 -3.43713 18
452 1 -6.59578 2.30838 4.31614 16
453 1 3.19934 -0.0234759 -8.14754 20
454 1 8.70436 -6.41339 6.69576 13
455 1 -0.412532 7.24133 2.85467 18
456 1 12.9121 7.61235 -4.96252 17
457 1 -1.12625 1.55352 11.7853 20
458 1 2.30213 12.357 -1.82929 21
459 1 5.25544 -5.65421 6.71964 15
460 1 -3.08133 -14.3398 -3.68487 19
461 1 -2.7645 6.28936 17.816 14
462 1 -3.00867 15.5302 8.21721 10
463 1 -10.0521 -9.17248 -8.60069 11
464 1 8.59484 15.9412 1.89845 12
465 1 2.61346 7.28772 10.4918 19
466 1 -7.857 2.0353 9.53878 19
467 1 -6.87186 -9.9651 -1.99566 17
468 1 -11.441 3.82476 11.4476 18
469 1 -7.62366 -8.06211 -7.06207 18
470 1 -6.0527 10.4393 8.05004 21
471 1 -5.11203 -12.8777 -6.19212 15
472 1 -0.505759 -7.84931 -11.8807 18
473 1 -7.65805 -13.9533 3.3818 20
474 1 -7.05639 -3.13969 6.68006 16
475 1 8.86233 2.99444 6.48667 19
476 1 -5.51778 -6.03256 13.5897 15
477 1 -11.2774 7.33725 -15.3081 8
478 1 11.8741 4.33538 -1.5793 18
479 1 -8.62006 -13.5065 -2.03238 14
480 1 1.52114 2.74463 -9.75222 19
481 1 2.4075 17.9223 2.14518 15
482 1 -1.12327 5.3672 -8.47274 17
483 1 -2.84497 9.42546 13.5521 18
484 1 -13.1955 -1.86831 -0.0280069 18
485 1 0.40847 17.8732 -4.65629 10
486 1 6.71518 12.7518 -6.36255 18
487 1 -5.80614 -5.34557 -7.49345 20
488 1 4.59917 1.79699 18.825 9
489 1 -0.489209 -15.1846 -8.56076 12
490 1 0.407721 -3.32552 -12.4666 16
491 1 9.30432 -14.8969 3.89214 10
492 1 -11.9196 8.72242 2.61508 15
493 1 2.64945 5.62592 15.7985 18
494 1 6.62954 7.94559 -2.92099 19
495 1 1.18898 9.81311 -2.63756 20
496 1 -9.47286 8.12011 -12.5046 16
497 1 4.45929 3.12091 -7.35263 17
498 1 2.26672 -9.30025 3.10713 21
499 1 -15.2781 -4.44448 0.324405 12
500 1 5.12878 5.49745 -2.16673 16
501 1 2.46702 18.0783 7.79509 9
502 1 -4.4426 4.07803 -13.9689 21
503 1 11.0708 6.84396 0.709121 18
504 1 6.37074 14.5914 -9.40514 13
505 1 7.06947 -5.11991 -2.98518 13
506 1 16.1822 1.68652 -3.63742 10
507 1 -0.897882 2.51848 -13.639 17
508 1 1.79054 -10.3472 -0.417382 22
509 1 1.34313 -14.1454 5.44629 17
510 1 1.83176 -8.79134 9.38397 11
511 1 -8.26939 3.43657 -9.26264 22
512 1 -12.0618 -15.2097 6.61542 13
513 1 7.73576 7.70156 5.4093 19
514 1 -0.559505 -12.2221 -10.146 21
515 1 8.51764 15.6464 9.60769 9
516 1 0.714974 5.63196 -13.2558 19
517 1 5.15897 -0.179267 15.9705 16
518 1 -13.8775 2.41107 12.7127 13
519 1 -0.478944 -18.5671 -0.189427 16
520 1 -10.3032 -2.36934 0.964929 19
521 1 15.465 -3.71088 -6.28275 17
522 1 12.875 -3.01473 -4.948 22
523 1 0.174375 4.48362 -6.1398 14
524 1 -5.51067 7.62323 -5.52028 19
525 1 1.99434 -7.54881 -8.40334 17
526 1 4.57333 3.51884 -9.92258 20
527 1 10.0496 -4.79024 -9.05528 20
528 1 -6.31104 0.0184913 15.6011 11
529 1 4.95309 15.4908 2.78731 20
530 1 -3.53719 -4.06802 -16.1911 13
531 1 0.244413 -8.19263 1.13993 20
532 1 5.961 0.800087 -17.3659 12
533 1 -8.78926 -3.89187 8.56192 22
534 1 -2.07162 16.5148 -1.53766 13
535 1 -10.0097 -4.40527 -14.4055 13
536 1 -12.9805 3.58414 1.04708 19
537 1 -1.12085 -10.3236 -13.3454 22
538 1 -6.00954 -11.3694 10.7852 17
539 1 -0.69518 8.71807 -8.42973 16
540 1 17.3626 4.76528 9.01953 9
541 1 14.6061 4.90442 -0.571133 14
542 1 -10.7007 -12.4719 -0.490459 14
543 1 -0.919181 -9.83717 -1.72746 19
544 1 -0.842804 -4.02807 -18.0104 12
545 1 -8.02268 9.86713 10.0285 17
546 1 4.04705 -5.65318 -7.80746 15
547 1 1.76612 6.40418 1.01077 14
548 1 11.7421 -2.39649 -0.872941 20
549 1 2.99917 14.5842 -8.66744 18
550 1 4.86136 -9.08137 1.66609 20
551 1 5.71789 -2.7873 -2.4059 17
552 1 12.549 6.37623 -9.86372 12
553 1 1.23453 10.8259 16.6813 12
554 1 -10.4482 3.8425 8.83462 15
555 1 -5.14825 -3.62605 -2.01792 20
556 1 6.11677 11.2694 10.3763 21
557 1 10.1031 -1.11813 17.1502 9
558 1 -0.337476 2.26508 -16.8519 21
559 1 -4.62384 -7.70893 -6.66479 15
560 1 1.45217 -3.88226 10.6669 16
561 1 8.42278 10.5442 8.17052 20
562 1 7.25492 8.63534 -9.72225 18
563 1 -7.97813 9.76777 -7.66059 17
564 1 -0.888507 12.1506 -3.56961 20
565 1 11.1823 -2.82428 11.5204 16
566 1 9.98579 1.4244 -9.38721 16
567 1 10.6869 -11.3896 -4.00416 12
568 1 11.9501 10.1298 12.0901 12
569 1 -14.4581 -6.3004 2.40568 16
570 1 -7.28343 11.4768 -12.5701 10
571 1 -2.67229 1.31997 8.71562 19
572 1 -13.0193 -0.406201 14.0901 13
573 1 -4.11632 13.9677 -10.7458 12
574 1 3.35144 -12.5114 -1.96457 16
575 1 4.93085 -2.71448 -8.84091 15
576 1 -3.06078 16.6751 -4.91108 14
577 1 -7.727 -5.59215 -12.8128 15
578 1 4.55775 -15.959 5.42142 16
579 1 -12.6013 -4.88646 1.09307 19
580 1 1.73053 12.9568 -13.2925 12
581 1 -9.19569 3.14774 -3.33387 20
582 1 -4.6784 11.6377 18.4192 5
583 1 -11.7685 -4.84968 9.14992 23
584 1 3.23998 8.2335 -1.37261 15
585 1 2.65984 -10.9323 -8.95684 19
586 1 4.60863 -7.33222 12.3537 13
587 1 8.35452 -0.377554 -3.03319 19
588 1 -11.1895 7.45227 -0.212191 18
589 1 5.39643 5.21703 20.1506 8
590 1 5.48885 18.9139 -6.38973 8
591 1 10.2684 -6.31366 -5.94008 16
592 1 3.11987 9.32917 12.4687 19
593 1 1.02164 4.22474 -18.9926 9
594 1 -5.31151 -14.6184 10.6882 10
595 1 -1.14223 1.96361 -10.6672 15
596 1 7.77665 -1.32327 -15.9119 12
597 1 2.37972 15.153 7.51368 15
598 1 8.93344 5.24164 -12.6412 17
599 1 -1.60596 -3.55809 -14.0868 19
600 1 -4.15151 -10.98 -4.11904 18
601 1 -11.648 -2.64354 -12.4372 19
602 1 12.8076 2.85963 1.31384 19
603 1 14.7704 5.10632 -3.73962 16
604 1 9.09866 -8.13301 -8.5195 17
605 1 13.3125 7.50079 10.8809 16
606 1 3.28811 -11.8882 -5.40135 18
607 1 3.29111 3.30262 -17.3135 16
608 1 7.2533 13.0909 4.30161 23
609 1 -9.41211 3.29 0.953393 16
610 1 10.1681 10.0531 14.7027 13
611 1 10.2159 7.76401 -2.06612 18
612 1 15.4872 0.735482 1.85165 10
613 1 10.5359 4.11951 -9.14048 16
614 1 8.46711 1.16022 14.0906 17
615 1 15.8129 5.77785 11.1032 10
616 1 1.20021 -5.6213 6.85338 17
617 1 13.1469 12.9349 -4.17817 11
618 1 4.46008 1.09572 2.79838 16
619 1 1.71581 -0.981265 15.6964 12
620 1 17.0466 -0.26459 -7.10016 10
621 1 9.38957 3.35036 10.3833 17
622 1 -7.95732 -0.0779472 -8.17305 21
623 1 13.9792 6.26572 1.95787 19
624 1 9.39593 -3.24636 2.18863 17
625 1 -2.15746 -6.53158 -0.865275 20
626 1 -11.8738 7.85693 11.0653 13
627 1 8.649 10.1218 11.6683 17
628 1 10.9315 1.80413 12.589 19
629 1 3.40085 10.4367 9.24298 22
630 1 0.539966 10.098 9.94033 23
631 1 4.98639 2.31057 7.22892 15
632 1 -2.56678 -16.6091 2.03716 15
633 1 -7.08824 9.9831 -4.02856 17
634 1 12.2246 11.8384 -7.38154 12
635 1 11.0136 -3.03232 -11.6074 16
636 1 2.90033 16.036 -3.12155 18
637 1 0.0591182 -13.0136 -7.04592 14
638 1 11.9608 -6.95158 -13.6137 9
639 1 -14.906 3.85926 7.2084 13
640 1 -5.22588 6.13198 -11.7355 21
641 1 -4.87563 -18.6785 3.34871 12
642 1 -5.46595 -0.784335 -12.2336 16
643 1 -12.1034 1.88479 -5.59732 22
644 1 9.10891 -5.99592 3.68652 15
645 1 10.8934 11.9266 5.94039 20
646 1 0.631549 -8.97915 7.01069 19
647 1 -13.3624 -1.02276 -8.65179 13
648 1 3.19004 1.29043 -19.3039 10
649 1 1.70604 -2.05433 5.38726 16
650 1 -3.02858 3.54476 15.7519 16
651 1 6.68351 10.6289 -13.5842 9
652 1 13.3704 -0.370083 12.1584 14
653 1 8.06714 6.94885 -7.31737 19
654 1 7.60929 0.0422374 0.148788 16
655 1 12.3447 12.2946 3.04139 10
656 1 4.96228 -15.4107 -9.78818 15
657 1 -11.3668 -3.18908 15.382 12
658 1 14.2716 0.0393465 4.56258 15
659 1 -1.5945 12.1336 14.7808 14
660 1 7.70379 13.7724 -11.9929 8
661 1 -12.6365 11.0677 -4.33288 10
662 1 8.60772 9.69578 2.76682 18
663 1 -9.27452 -15.1624 1.10459 14
664 1 13.4189 -2.31515 1.58691 18
665 1 7.11172 15.9085 4.60358 16
666 1 -3.74776 6.6214 10.883 19
667 1 -10.9932 -7.273 2.87987 20
668 1 -10.7972 -0.379999 -10.6492 17
669 1 8.67088 -0.882933 11.2289 21
670 1 -2.84922 -10.6279 11.9195 10
671 1 7.34316 6.68167 14.5719 24
672 1 -2.93945 12.6522 1.31111 20
673 1 9.71591 4.26643 0.999674 20
674 1 5.51103 -2.11153 0.564039 15
675 1 8.2316 4.45737 3.87748 16
676 1 2.70399 0.367819 -16.4778 18
677 1 -8.41918 -0.304326 7.24054 15
678 1 7.78762 -1.53663 -10.0379 17
679 1 -2.17893 -6.40276 -7.09965 21
680 1 12.4565 -10.7638 -6.91178 11
681 1 8.22331 6.00249 8.56315 17
682 1 5.15864 5.93304 6.35845 18
683 1 -10.1638 -0.487078 14.5801 16
684 1 10.1329 7.59647 9.53997 21
685 1 0.229498 -3.39394 13.5481 14
686 1 -1.9715 6.89698 14.2815 23
687 1 -1.57371 -6.67046 -14.5263 23
688 1 -6.23895 1.9225 12.0661 16
689 1 -5.19426 5.3628 -3.33524 14
690 1 6.72695 3.81091 12.9369 16
691 1 -10.7323 -17.9091 8.37522 11
692 1 14.0442 7.91115 -1.49568 16
693 1 5.63616 -12.7025 -4.14065 19
694 1 -3.33426 5.9778 -6.48135 17
695 1 8.10775 9.86501 0.0261 18
696 1 10.4463 14.712 4.58681 14
697 1 4.68969 -1.52394 -17.8722 12
698 1 -3.80254 -1.37062 7.8225 18
699 1 4.24712 16.9577 -7.03962 17
700 1 11.1515 10.4222 0.4468 12
701 1 -0.75708 -5.35692 -3.83974 20
702 1 -6.50233 -9.32298 1.58647 18
703 1 0.171501 -0.572129 -18.1199 12
704 1 -10.9882 13.4102 0.210542 12
705 1 9.03106 -7.44995 -11.7167 17
706 1 6.46493 3.71861 0.693049 12
707 1 9.57213 7.47088 -9.94557 18
708 1 10.2192 13.5992 -2.62227 8
709 1 -2.83288 6.09252 4.47164 20
710 1 -7.20056 8.57944 1.46301 16
711 1 4.11607 8.2933 -3.85614 16
712 1 13.1308 1.9443 14.4162 14
713 1 10.6808 -0.967659 13.8654 17
714 1 -3.07262 -12.4741 8.81472 16
715 1 -6.10963 8.93077 -11.9602 19
716 1 4.0687 13.1093 9.51162 19
717 1 9.23444 -7.36715 -15.0935 12
718 1 1.83138 1.71321 10.6258 20
719 1 6.54857 16.175 -1.00661 15
720 1 8.57033 13.816 7.25623 20
721 1 -6.024 2.41347 -1.62604 19
722 1 12.2197 -5.97231 -3.63133 15
723 1 6.83414 7.45436 17.9449 14
724 1 -13.6567 -2.07268 8.6952 20
725 1 2.37988 -16.9705 -0.0778642 18
726 1 -0.0191064 -0.445454 -9.33339 16
727 1 -9.12656 14.1344 3.27348 9
728 1 -0.251381 5.30747 6.18098 21
729 1 3.49156 -4.75436 -2.76019 15
730 1 5.03957 10.0349 4.58604 19
731 1 -12.965 -1.36577 5.52652 18
732 1 -1.0441 3.34012 18.3104 12
733 1 -4.53141 6.09689 -16.5389 13
734 1 -7.78386 6.43689 -13.8019 16
735 1 3.93843 -15.5701 2.09834 20
736 1 9.04449 10.3351 -7.59017 20
737 1 5.69182 -7.34214 3.56392 20
738 1 -2.59597 5.94749 0.846096 19
739 1 -13.3607 5.28859 13.1695 12
740 1 5.37978 -2.17537 -11.8582 14
741 1 0.930668 -12.1216 8.37901 15
742 1 3.17098 15.3796 0.259794 19
743 1 -3.60164 1.44791 13.4456 14
744 1 -8.17983 -4.91925 -10.1256 18
745 1 -3.39052 -12.0674 -14.4751 11
746 1 -8.76421 -11.1446 -10.7346 7
747 1 0.974919 16.2698 -6.84253 17
748 1 4.71285 -3.56438 -5.30558 15
749 1 -2.56068 12.0237 8.51504 17
750 1 4.91103 -11.6588 -10.3588 16
751 1 7.78098 -16.2814 0.649747 11
752 1 3.53319 -6.4369 9.18705 17
753 1 14.4859 4.40769 -9.95556 10
754 1 2.05626 -16.7485 -8.16253 11
755 1 -10.7094 -1.4669 8.40188 14
756 1 0.108866 1.51987 -6.98108 18
757 1 -6.00985 -18.5629 0.222321 10
758 1 -7.46432 -11.0752 -5.09399 17
759 1 -10.1822 0.415886 11.1646 12
760 1 -7.29128 -17.1326 2.71004 14
761 1 14.8487 6.8704 -7.05819 15
762 1 -3.00445 15.8342 4.75343 12
763 1 -3.56092 3.09062 6.2287 19
764 1 -16.2871 6.97184 3.13017 8
765 1 10.2211 -0.527089 1.46246 17
766 1 -14.6607 -0.993423 -11.4726 11
767 1 -1.31247 8.82915 -4.92534 16
768 1 7.8296 2.97916 -8.2313 17
769 1 7.30512 11.589 13.6623 17
770 1 10.0336 4.69747 -6.01626 15
771 1 -14.3415 2.24875 -8.73188 14
772 1 -9.18225 -5.08734 -5.04744 19
773 1 0.240549 6.06972 18.7993 15
774 1 3.47894 6.10208 -12.0151 19
775 1 11.2952 13.9021 8.29142 11
776 1 -0.63577 -1.05157 9.84569 18
777 1 0.0629158 -16.4655 -3.31612 12
778 1 -8.0127 -19.1119 7.77356 10
779 1 -4.0258 -6.6407 8.85834 17
780 1 14.5435 10.2472 10.0151 14
781 1 1.5539 -5.90879 -11.0565 13
782 1 -8.41724 9.19078 -1.49997 17
783 1 8.22863 10.5022 5.49738 19
784 1 -9.28041 -5.45813 5.44924 20
785 1 9.2266 8.62649 -12.8523 11
786 1 1.5842 -18.4789 -5.94877 8
787 1 1.90469 -18.844 2.14454 17
788 1 -0.782961 -15.7836 -0.39195 17
789 1 6.92969 5.18005 -10.3322 19
790 1 5.98825 17.8413 2.16499 12
791 1 -1.17174 -0.756284 -15.5453 19
792 1 0.873708 0.188204 13.1849 15
793 1 0.567742 5.48025 -16.4552 17
794 1 -12.8045 -1.74246 -14.8785 10
795 1 -10.7565 -4.15576 -1.21114 18
796 1 2.13514 19.0636 -7.55155 10
797 1 10.9432 -0.170441 -2.41784 21
798 1 -3.50213 -6.68596 -17.6468 11
799 1 -6.97076 -6.56825 -0.545534 20
800 1 11.2278 7.19595 -7.76397 19
801 1 9.52725 -5.61092 0.171707 15
802 1 -7.70992 4.24359 14.3962 15
803 1 7.19607 -10.8162 2.32208 21
804 1 12.9825 -4.97956 -0.238816 13
805 1 13.0001 -3.70294 9.21931 11
806 1 0.593622 10.4369 7.1486 20
807 1 -11.631 2.57844 14.4777 15
808 1 -7.90166 4.60093 11.1445 21
809 1 -2.78133 -15.2997 8.13436 10
810 1 6.72152 1.27461 4.70722 16
811 1 6.15029 9.05318 13.2488 22
812 1 -14.2004 0.604071 0.591339 14
813 1 9.60504 -6.72032 -2.48554 19
814 1 -9.93801 12.2012 -8.9009 13
815 1 2.8711 7.76084 4.00128 15
816 1 1.91873 -17.4057 6.43374 9
817 1 5.60848 2.3504 15.464 15
818 1 0.736655 13.4077 5.57864 19
819 1 1.83772 -11.1596 5.37632 21
820 1 -8.45659 -2.62131 -2.4888 23
821 1 2.44605 2.3118 13.9733 16
822 1 -14.2209 -3.51637 -2.80874 13
823 1 -1.67055 9.53842 19.172 12
824 1 5.2126 12.3517 2.1672 18
825 1 -12.5037 -12.0354 5.10506 13
826 1 -4.56878 -18.3826 6.66612 9
827 1 7.17162 -4.49686 8.75815 18
828 1 11.6543 -5.81863 5.80808 11
829 1 5.8572 7.96825 9.45014 18
830 1 -2.97823 7.70521 -3.05271 14
831 1 -0.248726 -9.03487 -9.06354 18
832 1 -3.35552 1.25737 -14.4614 19
833 1 -4.12232 -1.06031 11.4551 20
834 1 1.62611 15.3197 3.28084 18
835 1 14.6823 3.33894 3.87415 16
836 1 4.36606 8.0936 -7.34732 19
837 1 -4.11029 9.19371 16.3767 13
838 1 7.53375 6.45263 11.6676 18
839 1 8.23714 -4.18415 -11.3851 13
840 1 -7.18296 -12.1959 0.766548 20
841 1 -4.82238 -0.233123 -6.04289 21
842 1 13.786 1.27152 7.27628 17
843 1 2.35666 -2.45561 -10.6164 15
844 1 -0.174759 8.17705 16.4413 19
845 1 9.4193 -12.1159 -8.37937 17
846 1 5.87421 5.33886 -16.2964 11
847 1 -2.44832 -8.17402 -4.27994 21
848 1 11.7928 5.76398 -12.6821 10
849 1 15.235 -2.13769 -0.601924 14
850 1 0.935789 -6.31259 13.4007 9
851 1 -3.27069 -9.49686 -10.2597 16
852 1 7.64411 13.2106 -0.102391 13
853 1 -1.4007 -6.6231 4.78206 21
854 1 -13.3703 5.66779 4.44624 21
855 1 12.7366 4.74897 -5.54189 17
856 1 15.6057 8.67108 3.77678 14
857 1 2.70164 -7.78439 -17.1631 14
858 1 -6.50403 11.4304 5.57156 17
859 1 16.192 10.244 6.63344 12
860 1 11.4765 14.5909 -5.83856 9
861 1 4.35145 2.53382 -14.994 20
862 1 10.0875 -3.3177 -3.10557 17
863 1 -12.0109 2.61098 -2.39734 21
864 1 10.7031 7.13486 3.32532 21
865 1 -14.7164 -9.02062 0.540217 10
866 1 -12.0152 10.5578 -11.1647 10
867 1 4.49565 3.3463 10.6602 16
868 1 -10.7916 -0.818554 -6.92311 19
869 1 -11.9407 5.4546 7.39187 19
870 1 -4.70486 2.97445 -10.7153 16
871 1 12.4687 -7.18235 -7.89502 18
872 1 -11.5829 -8.4732 -5.71608 11