ITEM: TIMESTEP
61000
ITEM: NUMBER OF ATOMS
500
ITEM: BOX BOUNDS pp pp pp
-30.0 30.0
-30.0 30.0
-30.0 30.0
ITEM: ATOMS id type x y z Coordination
1 1 3.06917 -10.9843 -5.75533 8
2 1 -2.4504 -6.61925 -6.01691 14
3 1 -8.87609 -8.61488 -21.0422 19
4 1 -13.8952 -10.7762 -17.8641 12
5 1 -2.14018 -7.29762 -25.9394 10
6 1 0.519637 -17.5945 -16.7903 21
7 1 -0.778861 -11.8892 -7.41473 18
8 1 0.1475 -5.9028 -7.66198 17
9 1 -12.9704 -13.3783 -11.6116 15
10 1 3.42891 -12.697 -15.6787 23
11 1 0.143683 -8.79415 -9.08715 18
12 1 -10.3161 -19.5287 -10.9349 15
13 1 -5.29518 -15.0603 -22.454 16
14 1 3.72315 -12.7624 -18.5994 15
15 1 2.79371 -18.3272 -11.7653 14
16 1 -8.15704 -1.99845 -10.1766 14
17 1 -4.59144 -0.303465 -14.8202 13
18 1 -4.37181 -12.9169 -25.0789 9
19 1 -5.34768 -6.01834 -7.89668 19
20 1 -7.42067 -4.1898 -11.3641 23
21 1 -1.65188 -7.76107 -22.754 21
22 1 -8.11612 -1.82785 -19.5945 15
23 1 -8.83397 -5.3842 -20.2255 20
24 1 -7.59852 -1.51076 -16.2577 19
25 1 -14.1401 -7.54565 -13.7408 9
26 1 -2.72939 -3.81922 -7.70133 12
27 1 -11.3747 -8.33183 -22.821 15
28 1 -8.80455 -19.9476 -7.86386 10
29 1 -0.0227153 -20.1733 -16.1822 12
30 1 -11.0097 -9.57482 -19.4055 22
31 1 -4.71341 -20.3324 -11.64 16
32 1 1.40889 -6.79032 -20.4676 18
33 1 -13.3154 -12.0957 -20.7233 13
34 1 -2.23543 -4.85496 -24.4051 10
35 1 -4.97176 -0.58497 -18.029 15
36 1 -13.0851 -10.2313 -11.7057 16
37 1 -3.08188 -1.19626 -10.0064 13
38 1 0.146113 -11.4284 -4.23919 10
39 1 -2.12813 -18.6066 -19.1366 14
40 1 3.98773 -10.8893 -21.5713 12
41 1 -1.12362 -14.5702 -5.59898 12
42 1 -2.31597 -16.3805 -7.24523 15
43 1 0.601872 -3.2021 -16.2782 14
44 1 -10.5486 -17.5732 -8.00195 10
45 1 -6.39888 -21.9651 -13.8198 11
46 1 -8.25206 -12.1882 -5.86241 13
47 1 -10.4867 -9.02524 -9.46863 21
48 1 0.301673 -17.6529 -13.8886 21
49 1 -10.9083 -14.8937 -9.59724 17
50 1 -10.6264 -0.381809 -14.5111 10
51 1 -10.5593 -3.36851 -15.3565 21
52 1 -8.13081 -4.34799 -7.98533 15
53 1 -11.9095 -14.8586 -21.6753 10
54 1 -7.09465 -12.9523 -23.2131 13
55 1 2.72215 -7.67119 -6.52745 11
56 1 -5.17287 -14.871 -5.94083 12
57 1 -9.55619 -10.6379 -23.8993 14
58 1 -13.0817 -13.0733 -15.4306 16
59 1 -9.68008 -20.7681 -14.2204 14
60 1 -11.0477 -3.9088 -9.46351 10
61 1 -6.18431 -17.1144 -20.3531 18
62 1 -4.98515 -3.27938 -9.63353 18
63 1 -12.7148 -11.5422 -23.4055 9
64 1 -12.2086 -4.10483 -18.0159 15
65 1 -7.64374 -19.2726 -22.0676 7
66 1 0.757317 -17.2621 -7.18617 13
67 1 -12.864 -7.41319 -17.2675 17
68 1 -10.4946 -9.25692 -6.30164 12
69 1 -10.1312 -6.60172 -8.14939 15
70 1 -6.16172 -0.895748 -21.3561 12
71 1 -5.26326 -18.1615 -7.45589 13
72 1 0.380403 -17.6458 -20.6439 14
73 1 1.39037 -11.9117 -23.9272 10
74 1 3.2145 -15.5329 -6.76914 9
75 1 -7.49926 -19.6589 -18.8166 14
76 1 -10.421 -11.9439 -7.59796 15
77 1 4.64332 -10.075 -7.89393 10
78 1 3.43953 -7.26064 -15.372 20
79 1 -5.01829 -7.38834 -24.6666 14
80 1 -4.24877 -3.0099 -22.5274 13
81 1 -2.10893 -1.35446 -16.7756 13
82 1 1.08659 -9.4207 -22.8048 16
83 1 -2.71935 -18.5302 -12.4591 21
84 1 3.16511 -15.691 -13.3928 18
85 1 -2.72387 -21.5769 -14.0563 9
86 1 -13.7974 -8.62113 -20.6761 11
87 1 6.36355 -11.4218 -16.9858 12
88 1 -11.1732 -3.07599 -20.8173 13
89 1 0.446961 -14.7641 -22.1854 12
90 1 -10.3058 -15.089 -5.60936 6
91 1 -4.9225 -20.2205 -15.9195 19
92 1 -2.40098 -13.1718 -22.5408 19
93 1 -0.0115912 -17.8451 -10.3649 16
94 1 -8.46829 -16.0357 -21.9553 14
95 1 -5.29286 -11.6592 -4.27564 13
96 1 -2.70683 -9.10422 -3.92571 11
97 1 0.997578 -12.1952 -20.7864 20
98 1 0.159367 -3.76286 -19.6917 13
99 1 5.09042 -9.56984 -19.3667 13
100 1 -8.44332 -8.04842 -24.6263 15
101 1 -12.8058 -7.71598 -11.0385 14
102 1 -3.03994 -11.9984 -5.43957 16
103 1 -11.6578 -6.41714 -20.2084 17
104 1 2.63642 -15.6247 -9.85957 18
105 1 2.94293 -5.23938 -8.96143 14
106 1 -2.98621 -18.6678 -9.15071 15
107 1 5.78241 -8.3657 -13.1242 13
108 1 1.91879 -3.51342 -10.9596 13
109 1 -0.279578 -3.42654 -9.2922 16
110 1 -8.04872 -2.59934 -22.5083 14
111 1 -10.5276 -17.7275 -13.3536 18
112 1 -13.9986 -4.71431 -15.1037 11
113 1 2.80073 -4.42171 -17.3728 11
114 1 -0.124507 -8.99541 -5.98843 17
115 1 -2.52619 -10.1667 -24.6702 14
116 1 2.8307 -4.41045 -13.945 14
117 1 2.83479 -16.1489 -19.7367 11
118 1 2.97661 -18.6863 -8.56911 8
119 1 -8.11195 -7.10468 -6.18612 15
120 1 3.25804 -10.3217 -11.2078 18
121 1 -5.65077 -3.70875 -19.4808 23
122 1 3.92646 -6.96083 -18.7509 14
123 1 -8.14663 -9.75342 -4.62334 13
124 1 -7.74339 -16.4784 -7.88359 16
125 1 -13.3056 -4.61549 -12.245 12
126 1 -0.22236 -2.98933 -13.0792 19
127 1 -12.8025 -17.182 -10.9517 11
128 1 3.55768 -12.9554 -12.1736 18
129 1 -7.1981 -19.224 -12.8169 22
130 1 4.6176 -7.81923 -9.67576 12
131 1 3.02294 -18.5552 -15.2497 15
132 1 -2.16717 -0.390931 -13.3494 12
133 1 -13.6221 -14.1987 -18.5729 10
134 1 -1.77307 -4.55609 -21.4646 16
135 1 -9.76386 -12.5392 -21.1052 21
136 1 -0.369347 -10.1703 -26.4982 6
137 1 -5.07341 -20.4404 -19.5651 10
138 1 3.23902 -15.4403 -16.6841 18
139 1 -12.6028 -10.7792 -14.4403 15
140 1 -7.03512 -5.94283 -22.938 15
141 1 -10.3842 -18.184 -16.7112 12
142 1 2.28876 -12.505 -8.72085 15
143 1 -6.61986 -10.4793 -24.9659 12
144 1 -10.4613 -2.95657 -12.2802 16
145 1 -13.0083 -10.9075 -9.01774 11
146 1 2.87394 -7.09286 -12.1644 20
147 1 6.1251 -11.1801 -13.885 13
148 1 -6.82716 -19.4473 -9.51228 18
149 1 3.50637 -7.57436 -22.2473 10
150 1 0.460354 -5.67583 -22.7508 13
151 1 0.666708 -0.473903 -11.4136 9
152 1 -2.64601 -1.61633 -20.1502 15
153 1 6.02387 -8.62065 -16.2945 13
154 1 2.67978 -18.9318 -18.475 11
155 1 -5.53829 -0.25522 -11.5806 11
156 1 -7.49943 -1.29418 -13.1896 18
157 1 -8.06895 -21.8928 -11.2071 11
158 1 5.6127 -13.9131 -14.5136 12
159 1 -10.7326 -15.1459 -16.2475 17
160 1 -10.8287 -1.30554 -17.9699 13
161 2 -12.9988 -12.0755 -10.4508 13
162 2 4.67697 -7.46625 -11.6434 13
163 2 -10.7891 -5.09452 -21.3222 17
164 2 -7.91581 -21.0562 -9.26152 10
165 2 0.921752 -7.4503 -6.72241 14
166 2 -10.0581 -7.54361 -6.65585 15
167 2 2.04346 -17.9782 -19.9164 11
168 2 -8.3882 -9.79822 -25.1412 10
169 2 -2.71322 -12.0409 -24.4307 13
170 2 -7.05895 -3.46949 -9.44423 16
171 2 2.53577 -12.1413 -10.5715 19
172 2 -0.138535 -4.23685 -14.7708 18
173 2 -4.9903 -1.44632 -10.0948 15
174 2 -0.29383 -1.00701 -12.9159 11
175 2 -0.85423 -6.09379 -24.1671 12
176 2 2.51982 -10.6665 -22.8067 11
177 2 -13.1943 -9.12429 -18.8496 14
178 2 -3.21974 -18.0396 -7.40173 11
179 2 -11.2338 -7.15977 -9.88914 17
180 2 0.97931 -15.811 -20.6695 14
181 2 -7.70864 -20.8054 -14.5969 13
182 2 1.20446 -4.35182 -8.43916 13
183 2 -1.09695 -12.5964 -5.65677 16
184 2 -10.0332 -19.1164 -9.00434 13
185 2 -2.84751 -20.4109 -12.5813 13
186 2 -11.682 -16.6454 -9.29819 10
187 2 -4.66925 -21.5421 -14.5283 13
188 2 -6.41494 -17.891 -18.6262 20
189 2 -10.9808 -2.25285 -13.7772 14
190 2 2.93583 -6.2076 -17.287 17
191 2 1.29649 -7.51119 -22.2397 14
192 2 -5.69245 -1.45005 -13.4525 20
193 2 -9.91272 -2.6479 -10.4925 14
194 2 -5.70219 -0.803857 -16.3527 13
195 2 -4.05689 -1.51161 -21.3569 12
196 2 -4.49237 -4.29936 -7.98087 17
197 2 -1.251 -10.2941 -3.75504 9
198 2 -2.16718 -9.58557 -22.7688 18
199 2 -3.80769 -19.1346 -19.1209 16
200 2 -9.72123 -16.4141 -17.3403 17
201 2 4.0548 -14.7847 -15.0758 17
202 2 1.97447 -3.14122 -12.7805 14
203 2 -4.98509 -9.48446 -24.3084 16
204 2 -1.8724 -9.1207 -26.1787 11
205 2 -7.19437 -14.534 -22.4162 16
206 2 1.11215 -13.1766 -22.7122 13
207 2 4.32746 -9.11402 -21.1089 13
208 2 -6.35622 -12.5885 -24.9645 11
209 2 -6.77191 -20.3518 -20.6281 9
210 2 -5.20361 -6.98941 -22.6791 16
211 2 -9.4141 -20.7019 -12.2804 15
212 2 -11.4337 -4.83103 -11.4677 15
213 2 -9.41157 -16.3815 -6.7412 11
214 2 -13.3322 -9.3954 -13.4292 12
215 2 3.11344 -17.4291 -10.1107 14
216 2 -3.29066 -0.335427 -11.7535 12
217 2 -4.27799 -10.0874 -5.03437 15
218 2 -13.798 -6.41883 -12.0735 12
219 2 -13.8874 -10.3402 -21.3715 12
220 2 5.12998 -7.54863 -14.6811 14
221 2 -11.6946 -18.4231 -11.794 12
222 2 -7.81831 -3.83166 -19.2058 23
223 2 0.284883 -10.583 -24.8329 10
224 2 -9.83991 -4.9253 -16.1513 18
225 2 -1.62697 -17.6528 -20.6625 13
226 2 -1.81578 -20.4431 -15.4619 14
227 2 -11.4224 -1.08782 -16.1923 12
228 2 0.885325 -18.2786 -12.0682 17
229 2 0.7088 -1.88375 -10.3247 11
230 2 -8.79475 -1.44057 -17.7653 16
231 2 -5.79383 -16.1612 -7.47904 15
232 2 -2.26213 -3.58487 -23.0075 12
233 2 -1.86125 -7.92583 -5.04987 12
234 2 2.39539 -6.26402 -13.9791 21
235 2 -0.337384 -4.25702 -11.011 21
236 2 -9.85916 -15.3124 -11.265 20
237 2 -1.65007 -5.20294 -7.18394 13
238 2 3.7759 -9.32522 -6.43013 10
239 2 -3.30887 -6.30606 -25.1805 12
240 2 -4.12351 -7.06507 -6.64343 17
241 2 2.72012 -14.4263 -8.18692 13
242 2 -13.358 -11.0443 -16.1335 14
243 2 -10.8569 -7.79319 -16.5288 18
244 2 -8.38751 -4.4894 -22.9506 14
245 2 -7.23209 -17.9716 -11.23 23
246 2 2.47342 -3.36596 -15.6242 10
247 2 -11.2778 -10.0638 -23.8125 13
248 2 6.48962 -10.1665 -15.5196 15
249 2 -11.2435 -2.82893 -18.9325 17
250 2 5.58493 -12.945 -12.8954 14
251 2 -7.38434 -18.6337 -7.70198 13
252 2 -10.1437 -15.6726 -21.4468 10
253 2 -6.22465 -1.38017 -19.4766 17
254 2 -12.3447 -3.65012 -16.1621 14
255 2 -4.86855 -12.7692 -5.82928 16
256 2 -13.4036 -3.36138 -13.6734 11
257 2 1.28251 -10.6966 -5.60368 13
258 2 -10.0041 -10.2503 -21.2776 18
259 2 -3.17525 -0.951258 -18.3318 13
260 2 -7.40179 -6.10087 -7.55749 17
261 2 -6.83534 -7.1405 -24.6952 12
262 2 -8.84374 -19.2445 -17.4687 12
263 2 -0.65382 -9.8698 -7.64063 19
264 2 2.78508 -9.18137 -15.7386 21
265 2 1.03352 -18.3447 -8.80244 12
266 2 -6.83918 -8.25002 -5.37152 14
267 2 -11.877 -12.9314 -22.1405 13
268 2 -13.1687 -9.37686 -10.0599 11
269 2 -12.5332 -15.3213 -11.2707 13
270 2 -5.72562 -20.347 -17.6111 12
271 2 -6.31195 -1.82284 -22.886 10
272 2 0.353808 -4.68583 -21.1411 13
273 2 -1.40747 -14.8618 -22.4074 15
274 2 3.52194 -11.7102 -7.47708 11
275 2 3.63873 -7.00384 -8.28552 12
276 2 -4.92115 -4.24993 -21.2256 21
277 2 -8.67861 -12.0002 -22.8308 12
278 2 -7.32243 -0.873646 -11.2334 12
279 2 -9.31956 -2.23419 -20.9952 14
280 2 -13.9592 -6.53417 -15.4399 11
281 2 -9.93319 -4.7982 -8.3695 15
282 2 3.07607 -11.9845 -20.3705 14
283 2 -12.0864 -5.86865 -18.358 18
284 2 -9.9213 -7.18984 -23.6535 16
285 2 -0.171552 -15.7597 -6.91921 15
286 2 -11.3029 -10.3585 -8.03711 16
287 2 -10.2444 -12.9808 -9.25515 18
288 2 2.92967 -17.5337 -6.96603 8
289 2 -13.2246 -12.7007 -13.4656 15
290 2 -9.07892 -10.2825 -6.24061 15
291 2 -4.87986 -19.0268 -9.81151 18
292 2 4.56823 -10.1275 -13.1204 19
293 2 0.911469 -18.7058 -15.2169 17
294 2 -8.80572 -1.01859 -14.6256 15
295 2 -12.5339 -7.62532 -21.582 14
296 2 -9.7823 -13.2753 -6.04836 10
297 2 -3.13822 -15.1732 -6.05124 15
298 2 -0.065815 -10.2043 -21.2321 21
299 2 2.31863 -5.5922 -10.7945 18
300 2 4.32552 -9.86715 -9.72719 13
301 2 3.34383 -14.6138 -18.7851 15
302 2 3.09313 -17.6364 -16.9237 12
303 2 3.40746 -7.10389 -20.4958 13
304 2 -12.7214 -14.6197 -16.8436 12
305 2 2.91461 -15.015 -11.7807 17
306 2 -2.11713 -3.70792 -19.8558 19
307 2 4.98268 -11.2348 -18.4223 14
308 2 1.06444 -3.66415 -18.081 13
309 2 5.66058 -12.5738 -15.7186 15
310 2 3.41486 -17.5741 -13.6041 12
311 2 -7.46661 -17.6718 -21.7873 11
312 2 -2.5732 -0.526689 -15.1385 14
313 2 -2.364 -3.12373 -9.35716 16
314 2 -6.63184 -21.0043 -12.1146 16
315 2 -7.15797 -11.3685 -4.66894 13
316 2 2.2864 -9.105 -12.1619 23
317 2 5.00936 -8.46378 -17.8219 13
318 2 -7.51367 -6.5841 -21.062 21
319 2 -9.87158 -18.9945 -14.7219 14
320 2 0.955066 -19.8524 -17.7262 12
321 1 -9.98863 -12.4647 -17.8777 19
322 1 -10.4513 -15.4006 -19.0023 16
323 1 -4.66356 -17.8166 -17.6909 19
324 1 -8.00965 -19.0711 -15.6416 20
325 1 -5.01675 -12.3734 -21.1222 16
326 1 -7.44432 -13.4947 -19.2511 18
327 1 -4.2938 -14.8816 -19.376 21
328 1 -7.45059 -16.1973 -17.7789 22
329 1 -4.84925 -12.3772 -17.7419 20
330 1 -7.16148 -13.2326 -16.0242 21
331 1 -5.01644 -15.1851 -15.9693 20
332 2 -13.6469 -12.3438 -18.9486 12
333 2 -12.3635 -14.7801 -19.6872 13
334 2 -10.5253 -13.2494 -16.1579 21
335 2 -4.3096 -18.1766 -15.7565 21
336 2 -4.30073 -13.6049 -22.9786 15
337 2 -9.50211 -13.67 -19.3883 20
338 2 -4.60515 -16.1391 -21.1636 19
339 2 -7.5663 -15.5379 -19.7096 19
340 2 -5.48857 -13.2975 -19.3691 22
341 2 -7.89092 -12.4058 -17.747 19
342 2 -4.11052 -15.742 -17.7304 24
343 2 -7.169 -15.2764 -16.1315 20
344 2 -5.07666 -13.2031 -16.0491 20
345 1 -9.89885 -12.4386 -14.4778 20
346 1 -10.8491 -14.7799 -13.0058 19
347 1 -10.3363 -11.9081 -11.1263 24
348 1 -5.23588 -17.6503 -14.2868 21
349 1 -5.34974 -17.5191 -10.9185 23
350 1 -7.72423 -15.9758 -14.381 22
351 1 -4.89789 -12.2659 -14.2637 21
352 1 -7.55534 -13.0851 -12.6299 22
353 1 -5.26396 -14.8765 -12.4836 22
354 1 -8.13534 -16.1415 -11.1123 19
355 1 -5.14981 -12.0754 -10.6421 21
356 1 -8.16006 -13.354 -9.19063 20
357 1 -5.38957 -14.8396 -9.01603 21
358 1 -5.44303 -11.7965 -7.41326 20
359 2 -10.8957 -16.0354 -14.3961 15
360 2 -10.3248 -12.9261 -12.6504 22
361 2 -7.26363 -17.8505 -14.2652 22
362 2 -4.79991 -18.4162 -12.5189 22
363 2 -7.80603 -12.2501 -14.522 19
364 2 -4.71533 -15.6476 -14.1419 23
365 2 -7.39953 -15.1852 -12.5601 20
366 2 -5.41114 -12.8606 -12.4285 21
367 2 -7.97754 -12.2242 -10.8606 21
368 2 -4.7527 -15.6692 -10.7363 22
369 2 -7.60175 -15.1575 -9.30546 19
370 2 -4.93859 -13.112 -8.83495 19
371 2 -7.64895 -12.0216 -7.65189 19
372 1 -12.9317 -1.97952 -15.0344 11
373 1 -10.2187 -6.35697 -17.7701 21
374 1 -10.2863 -9.51709 -16.0682 18
375 1 -4.82392 -9.14562 -22.3915 19
376 1 -10.1738 -5.04544 -23.2652 13
377 1 -4.67411 -6.42697 -20.9109 19
378 1 -6.99225 -7.21176 -19.1975 20
379 1 -5.57365 -9.5125 -19.5532 19
380 1 -8.02045 -10.5102 -17.8755 20
381 1 -4.66205 -6.61817 -17.5283 21
382 1 -7.44436 -7.61541 -16.2163 20
383 1 -4.63323 -9.20863 -15.791 20
384 1 -8.12981 -4.64487 -17.2277 19
385 1 -5.29322 -3.60767 -16.2261 21
386 2 -10.241 -10.4081 -17.8621 19
387 2 -10.0729 -7.64935 -19.7078 21
388 2 -5.18865 -10.5703 -21.3358 16
389 2 -7.55126 -9.33449 -19.634 17
390 2 -4.83529 -7.50183 -19.3211 21
391 2 -8.10143 -6.50592 -17.6011 20
392 2 -4.65931 -10.3796 -17.5957 20
393 2 -8.09789 -9.51535 -16.0289 23
394 2 -5.25513 -7.47263 -15.9415 23
395 2 -5.01884 -4.5154 -17.7459 19
396 2 -7.32358 -3.59308 -15.8995 20
397 1 -9.74551 -6.52209 -15.0194 17
398 1 -9.96559 -9.11019 -12.9676 24
399 1 -10.1681 -6.16632 -11.4563 23
400 1 -7.34166 -10.3278 -14.2415 23
401 1 -4.65545 -6.40928 -14.2095 23
402 1 -7.64141 -7.36337 -12.7527 23
403 1 -4.8896 -9.16206 -12.7354 22
404 1 -7.54662 -10.2938 -10.9037 21
405 1 -4.68208 -6.26237 -11.4768 22
406 1 -7.61372 -6.93716 -9.70511 24
407 1 -4.94412 -8.95255 -9.3656 22
408 1 -7.61662 -10.0338 -8.02397 23
409 1 -7.27369 -4.60673 -14.253 24
410 1 -4.43095 -3.1261 -13.2042 24
411 2 -10.4623 -10.449 -14.3317 20
412 2 -9.84981 -7.16874 -13.0511 16
413 2 -10.9883 -9.97195 -11.4213 22
414 2 -7.79287 -6.59276 -14.6423 22
415 2 -5.3664 -10.2757 -14.2733 22
416 2 -8.13158 -9.43654 -12.4565 22
417 2 -5.55201 -7.46701 -12.5773 24
418 2 -8.11327 -6.13619 -11.1157 23
419 2 -5.46041 -10.1784 -10.9875 23
420 2 -8.37045 -9.02759 -9.47479 25
421 2 -5.46016 -7.04704 -9.65645 22
422 2 -5.67463 -9.63882 -7.67335 26
423 2 -5.23607 -4.57913 -14.4547 18
424 2 -8.22877 -3.35802 -12.8124 21
425 2 -5.22966 -4.40248 -11.4465 22
426 1 -2.28658 -18.5874 -15.9533 21
427 1 -2.64544 -16.1463 -21.4578 16
428 1 -2.01196 -12.8317 -19.3359 22
429 1 0.158778 -14.7654 -18.7275 21
430 1 -2.02421 -15.9215 -17.5144 22
431 1 0.406008 -12.0859 -17.2376 19
432 1 -2.24058 -13.127 -15.8336 22
433 1 0.207164 -14.8605 -15.3653 22
434 2 -1.3215 -17.6697 -17.4526 21
435 2 -3.01537 -12.1448 -20.7865 21
436 2 -2.35362 -14.8064 -19.2494 21
437 2 0.126219 -12.9358 -19.2494 20
438 2 -2.32865 -12.2842 -17.4792 22
439 2 0.896499 -15.8424 -17.1999 23
440 2 -1.72802 -15.1362 -15.6571 22
441 2 -0.198597 -12.9327 -15.7221 21
442 2 2.69981 -12.0229 -17.3049 21
443 1 -2.58142 -15.8418 -13.7843 22
444 1 0.685269 -12.2134 -13.8754 21
445 1 -2.34965 -12.9038 -12.3882 20
446 1 0.508352 -14.8917 -12.1011 20
447 1 -2.65149 -15.9138 -10.5732 21
448 1 0.492156 -11.9296 -10.3985 21
449 1 -2.96217 -12.9328 -8.85301 22
450 1 -0.262901 -14.6035 -8.82552 21
451 2 -1.84508 -17.611 -14.0668 22
452 2 -1.91327 -17.7969 -10.5203 20
453 2 -2.75475 -12.3606 -14.1871 21
454 2 0.671415 -15.8185 -13.8559 22
455 2 -2.29758 -14.8492 -12.1432 20
456 2 -0.213953 -12.7058 -12.1291 22
457 2 -2.82546 -11.8795 -10.6217 20
458 2 0.317571 -15.6702 -10.4314 21
459 2 -2.26366 -14.9148 -8.95145 21
460 2 0.218604 -12.678 -8.63063 20
461 2 -2.99052 -11.5886 -7.40763 21
462 2 2.63108 -12.1348 -13.7446 24
463 1 -2.00202 -10.4244 -21.0272 20
464 1 -1.76597 -7.13949 -19.6054 20
465 1 0.064592 -9.54239 -19.2448 17
466 1 -2.66499 -9.99549 -17.7273 21
467 1 1.06269 -7.13573 -17.353 19
468 1 -2.02545 -7.36054 -16.1054 22
469 1 0.758592 -9.25348 -15.7985 23
470 1 -2.75614 -4.29413 -17.9971 18
471 1 3.38755 -10.0803 -17.3881 22
472 2 -2.39411 -6.53148 -21.3528 22
473 2 -1.83221 -9.09628 -19.4393 19
474 2 0.438834 -7.42349 -19.1191 19
475 2 -2.57388 -6.40064 -17.8109 19
476 2 0.247413 -10.032 -17.4006 19
477 2 -2.60336 -9.17638 -15.8895 22
478 2 0.13847 -7.19392 -15.7244 20
479 2 -1.90832 -3.31495 -16.654 17
480 1 -1.91362 -10.2021 -14.2715 25
481 1 0.387426 -6.01273 -14.066 22
482 1 -2.34451 -7.33835 -12.7746 22
483 1 0.483327 -9.12627 -12.5179 22
484 1 -2.28168 -10.0976 -11.0726 22
485 1 0.270625 -6.13198 -10.9196 22
486 1 -2.5778 -6.83752 -9.26307 23
487 1 -2.63569 -9.5848 -7.62499 22
488 1 -5.09847 -8.60585 -6.19536 19
489 1 -2.16486 -4.2231 -14.9387 19
490 1 -2.27853 -4.16863 -11.057 20
491 1 2.95718 -10.1914 -14.1083 22
492 2 -2.55998 -6.2964 -14.4519 22
493 2 0.0212606 -10.2733 -14.2704 20
494 2 -3.02307 -9.31309 -12.7506 23
495 2 -0.356763 -7.29312 -12.7362 22
496 2 -2.78219 -6.05863 -11.1054 20
497 2 -0.165597 -9.54826 -10.8443 20
498 2 -2.63364 -8.7497 -9.4798 19
499 2 -0.585857 -6.98565 -9.18023 20
500 2 -2.39041 -3.51197 -13.1398 22
