ITEM: TIMESTEP
13000
ITEM: NUMBER OF ATOMS
500
ITEM: BOX BOUNDS pp pp pp
-30.0 30.0
-30.0 30.0
-30.0 30.0
ITEM: ATOMS id type x y z Coordination
1 1 7.46497 -8.76966 3.23498 14
2 1 1.45239 -1.12142 6.1801 11
3 1 -3.37869 -5.03744 -10.6878 21
4 1 -9.54303 -4.3482 -6.5832 13
5 1 1.237 -2.97834 -13.1496 12
6 1 6.64603 -12.1767 -7.05411 11
7 1 6.83064 -2.32721 3.95969 11
8 1 2.19914 2.06995 4.20744 13
9 1 -8.55596 -5.77486 -4.21374 16
10 1 7.86577 -6.71148 -3.98342 15
11 1 5.40704 -5.47577 4.26282 14
12 1 -7.4061 -12.9341 1.10277 11
13 1 -1.49854 -7.26712 -11.2693 18
14 1 7.69951 -9.84862 -8.69448 11
15 1 6.16235 -12.9283 -0.759202 8
16 1 -3.94938 5.0869 2.41377 11
17 1 2.38665 8.20124 -1.90474 10
18 1 -2.42419 -7.41919 -14.2418 9
19 1 -0.289609 0.313738 4.46436 17
20 1 -3.42626 2.50854 0.819009 24
21 1 3.58535 2.78149 -8.61604 19
22 1 7.54556 3.81476 0.178803 12
23 1 -1.88303 3.1424 -9.04959 15
24 1 -6.11889 -0.895404 -10.6135 14
25 1 -0.21086 4.37362 -6.45808 15
26 1 -10.2729 -2.50866 -3.74203 11
27 1 -1.58915 6.52058 1.37386 11
28 1 -4.16233 -2.07372 -12.4242 19
29 1 -4.92359 -11.2039 1.69305 15
30 1 4.39187 -14.0554 -7.57892 10
31 1 -8.76841 -6.3256 -9.42657 11
32 1 -0.807465 -13.5665 -0.964038 18
33 1 6.13406 -0.816346 -9.67911 14
34 1 -3.57486 -8.70158 -9.3194 19
35 1 1.50982 0.461138 -13.8087 10
36 1 0.591759 7.05494 -4.37885 11
37 1 -9.54951 -1.72094 -0.383236 13
38 1 2.10877 5.35539 3.04094 14
39 1 3.14843 -6.26009 5.83631 16
40 1 1.21171 -15.1018 -5.98494 11
41 1 4.91598 -5.77705 -9.40049 19
42 1 5.5177 -8.19748 6.21976 10
43 1 2.56023 -10.3168 3.18344 18
44 1 6.17942 4.3702 -2.63151 14
45 1 -6.27471 -10.2851 -1.25404 18
46 1 -3.20651 -14.5724 -3.00601 15
47 1 -4.47621 -6.00295 4.66707 18
48 1 -7.1705 -3.61875 1.22316 16
49 1 0.0654956 -15.5466 -3.18573 13
50 1 -8.18772 -5.03277 -0.944154 16
51 1 -3.9759 5.85173 -0.768769 14
52 1 -5.41359 -0.319048 0.95715 22
53 1 -3.17461 2.52075 4.25159 11
54 1 -7.01612 -9.40744 -9.41223 11
55 1 -8.23538 1.36531 -8.42466 10
56 1 -4.87277 -7.92828 -11.6826 13
57 1 8.87667 -5.16727 3.53896 12
58 1 -1.41736 -8.90787 6.36001 10
59 1 -4.6159 -5.26303 -13.6197 11
60 1 -7.33455 -6.97908 -6.80546 18
61 1 -3.53617 -11.6059 -1.08765 21
62 1 -6.15088 2.30081 2.58518 15
63 1 -0.847519 -13.1422 -7.88663 16
64 1 -0.676818 6.93879 -1.39169 14
65 1 -7.65984 -3.74877 -8.64944 18
66 1 -8.29951 0.710203 -4.95312 18
67 1 -3.12942 -11.7548 -7.27945 22
68 1 4.94893 -11.1475 1.22908 18
69 1 -10.5826 0.219893 -2.9492 12
70 1 -4.93091 -2.9049 6.553 10
71 1 -8.07179 -0.470845 2.33336 15
72 1 -5.00099 -11.1751 -9.71382 13
73 1 -0.589169 -11.1261 4.17715 14
74 1 1.87915 -11.1123 -8.18906 17
75 1 2.39585 -4.74181 -11.1558 16
76 1 8.15132 -11.5628 2.30561 10
77 1 -4.69922 -14.8106 -5.39465 14
78 1 -6.57992 -6.52896 2.04493 15
79 1 9.96575 -2.14514 2.31207 11
80 1 8.06187 1.6324 -5.4636 13
81 1 2.64835 -0.940693 -10.8615 18
82 1 -0.872841 1.66158 -12.046 14
83 1 4.07397 6.2698 -4.00838 11
84 1 4.87188 0.447464 -12.111 11
85 1 2.34915 -11.6816 -0.370396 17
86 1 3.52714 -11.0919 -5.80379 23
87 1 -1.4201 -13.08 -4.63713 21
88 1 -9.52301 -1.27641 -6.47096 11
89 1 7.46508 -3.91879 -2.36513 18
90 1 -5.44255 2.27502 -8.78731 14
91 1 6.87028 -7.38582 -10.5509 12
92 1 -6.03296 -9.09345 4.29561 11
93 1 -1.40245 -16.389 -6.39447 10
94 1 -1.12383 -10.4556 -9.80986 14
95 1 4.29216 -11.0351 -2.52254 22
96 1 -6.27295 -10.2274 -6.41144 17
97 1 0.197037 -6.89257 7.40435 10
98 1 -1.4108 -2.38638 6.00556 16
99 1 7.14485 -10.2461 -12.1043 8
100 1 5.08784 3.6883 -5.97427 16
101 1 7.65359 -6.43002 -7.23042 15
102 1 -1.14218 -2.0082 -14.4889 10
103 1 -8.201 1.11003 -0.467607 17
104 1 2.09171 -9.79948 6.2379 11
105 1 -6.74983 -4.30301 -11.9194 13
106 1 7.11123 -9.73979 -0.172317 18
107 1 4.84666 0.716811 2.95793 14
108 1 1.01468 -12.6201 1.78408 12
109 1 7.49482 0.930431 -1.65102 17
110 1 8.22559 0.0475094 1.08851 16
111 1 5.05985 3.78539 3.01685 12
112 1 -3.16684 0.412878 -10.5594 20
113 1 -4.19694 -11.8243 -4.82258 22
114 1 -8.5896 2.94011 -2.93722 13
115 1 6.8941 1.80383 -8.10156 14
116 1 0.849671 -3.97092 7.15565 14
117 1 1.14942 -7.20203 -13.0632 11
118 1 4.75109 7.30874 -0.861021 12
119 1 4.53668 -11.0479 -9.81299 14
120 1 5.43251 -10.5611 4.59723 11
121 1 -5.37779 -0.73244 4.10499 15
122 1 9.54358 -4.84532 0.230114 12
123 1 1.09115 4.07528 -9.73765 13
124 1 7.61151 -3.84567 -8.83844 14
125 1 -2.4285 -5.22179 6.88476 15
126 1 -3.10295 -8.91971 3.84449 18
127 1 -5.67162 4.39036 -3.38096 16
128 1 4.55689 4.28695 0.0243627 16
129 1 -7.75312 -9.37588 1.32186 13
130 1 8.14382 -7.17501 -1.0956 16
131 1 -5.69053 -13.7735 -2.20806 15
132 1 8.96824 -1.7287 -0.858596 15
133 1 6.08386 -12.5984 -4.23655 11
134 1 1.23457 8.40651 1.31695 8
135 1 -9.10091 -8.67114 -4.85857 11
136 1 2.62327 2.78936 -12.3384 11
137 1 -5.81943 -6.21562 -9.41538 21
138 1 4.08316 -8.90607 -11.4725 12
139 1 -4.1791 -14.6812 -8.19941 11
140 1 6.82888 -9.77727 -3.35949 15
141 1 -8.73874 -8.87912 -2.10723 13
142 1 -3.87031 0.470482 -13.64 7
143 1 -6.43583 -12.9312 -7.55776 11
144 1 9.52014 -7.93617 1.74224 10
145 1 -1.02842 -4.77281 -12.9696 16
146 1 -6.82729 4.09103 -0.153909 14
147 1 -7.09478 -3.62438 4.3699 11
148 1 7.2913 7.13479 1.31119 6
149 1 8.91363 -1.36765 -4.00041 10
150 1 -2.63318 -12.261 2.93634 12
151 1 5.12876 -2.85307 -10.9362 13
152 1 5.02647 3.6427 -10.9025 8
153 1 3.89079 7.24004 1.79322 12
154 1 2.437 5.57605 -6.7641 13
155 1 8.74762 -0.965029 -7.45624 11
156 1 6.46062 -9.31219 -6.26627 16
157 1 -0.694908 3.45229 2.83964 17
158 1 -2.60399 5.60963 -3.13656 16
159 1 -4.29054 -14.2641 0.471781 12
160 1 3.20144 -13.9736 -4.68989 11
161 1 -7.61896 -11.7721 -3.7105 9
162 1 -7.19217 3.65902 -6.15724 12
163 2 -8.06275 -3.01497 -0.466038 15
164 2 8.00677 1.91484 0.0809797 12
165 2 -7.1588 -4.96562 -7.38661 22
166 2 -4.14681 -13.0898 2.03207 12
167 2 -0.909014 -4.23571 6.97556 13
168 2 -3.40744 6.36103 0.761261 11
169 2 3.68316 -12.365 -8.57344 13
170 2 -3.38006 -2.66511 -10.7524 21
171 2 -0.70242 -7.19017 -13.1003 11
172 2 -1.86765 5.13763 2.77401 12
173 2 7.52844 -8.89071 -1.77074 13
174 2 7.76283 5.64165 0.590943 9
175 2 0.0378164 7.18554 0.727499 12
176 2 5.59588 7.7534 1.04786 9
177 2 4.46975 2.26554 -12.2102 11
178 2 4.37963 -4.54177 -10.7391 16
179 2 -8.48387 -2.71327 -7.12188 14
180 2 -0.747205 -11.6745 2.22389 17
181 2 -10.0968 -1.47607 -2.09459 10
182 2 6.20981 -11.1237 -8.6795 16
183 2 -5.20864 -15.0735 -3.71586 9
184 2 1.27926 3.69121 3.47356 13
185 2 0.576404 -8.77609 6.81033 10
186 2 -4.83924 -7.17123 1.04623 22
187 2 -1.35974 -14.0038 -2.85035 15
188 2 -6.37553 -11.9186 -2.32043 17
189 2 -3.25378 -13.5302 -4.83202 23
190 2 -5.74484 -14.6627 -7.05397 11
191 2 -5.22591 4.83661 0.154754 14
192 2 6.2457 2.01006 -6.06923 17
193 2 3.04642 0.241984 -12.838 11
194 2 8.84164 -0.40818 -2.32201 14
195 2 0.459353 7.54925 -2.57554 11
196 2 -4.37583 3.2541 2.37772 17
197 2 2.46077 6.52458 -5.14723 13
198 2 2.98914 3.49596 -10.4773 12
199 2 -1.36559 1.95669 4.12143 15
200 2 1.74111 -5.87689 6.93393 12
201 2 7.72858 -9.3236 -10.5417 9
202 2 0.10538 -11.5082 -8.58141 14
203 2 -6.76435 -12.1111 -5.5319 15
204 2 6.63214 -10.9262 -5.22491 16
205 2 5.70274 3.10744 1.12185 18
206 2 -0.706005 -2.77705 -12.7867 14
207 2 2.10086 -8.25991 -11.8511 13
208 2 -3.40912 -7.28681 -10.5461 20
209 2 3.05589 -9.62199 -9.56852 17
210 2 6.97376 -5.60597 -8.94936 15
211 2 1.67706 -5.36758 -13.0006 11
212 2 -2.95023 -15.6587 -7.13282 11
213 2 -1.22805 -0.137902 -10.6467 21
214 2 -6.41151 -14.1044 -0.0176231 9
215 2 -5.15404 2.54994 -2.93154 22
216 2 -7.13149 -11.1025 1.45266 12
217 2 -8.92616 -7.10641 -5.62031 15
218 2 7.16251 -10.7202 3.80762 12
219 2 2.04039 7.26008 2.71892 9
220 2 -3.3214 -2.46604 5.68691 15
221 2 -8.84547 -0.280812 0.576224 14
222 2 -5.33147 -9.27821 -10.2435 12
223 2 8.77395 -0.170906 -5.62422 11
224 2 -8.48935 -7.02859 -2.49552 14
225 2 -3.81124 1.37767 -9.09754 17
226 2 2.164 -2.64168 -11.3124 17
227 2 -10.2259 -0.689941 -4.86569 11
228 2 5.5293 -13.436 -6.06712 11
229 2 -0.452741 -14.5946 -6.77118 14
230 2 -7.33457 3.86261 -2.06953 12
231 2 1.52065 -14.5576 -4.04479 13
232 2 3.93237 2.2812 3.46089 14
233 2 -0.400269 5.7445 -5.11399 15
234 2 -1.8807 -9.94126 4.93494 12
235 2 0.438223 -1.01072 -14.3114 10
236 2 5.11633 -6.27208 6.03043 9
237 2 6.46222 2.44292 -2.24567 16
238 2 3.86029 5.13869 2.09735 14
239 2 -7.82338 -9.35485 -0.507246 13
240 2 1.71988 0.213047 4.56928 15
241 2 8.93189 -7.23831 3.41807 9
242 2 0.836909 2.07727 -12.9751 12
243 2 1.60732 -2.93143 5.80982 14
244 2 5.25841 -9.26044 0.625397 23
245 2 -7.52231 -5.11036 -10.2782 12
246 2 -5.4782 3.39027 -5.36375 16
247 2 -8.36721 0.159303 -6.96232 14
248 2 -4.53004 -10.429 -0.0240513 22
249 2 5.46506 5.39799 -1.24286 16
250 2 -5.36145 -5.69533 -11.5486 15
251 2 7.13529 -6.26168 -2.42297 19
252 2 -8.26941 2.64046 -4.94873 15
253 2 6.86616 -11.9081 0.792804 10
254 2 -3.66747 -10.5088 2.84448 16
255 2 -6.45291 -10.9428 -8.32888 14
256 2 0.919592 4.89384 -7.90772 13
257 2 -7.31597 2.29759 0.907109 14
258 2 1.22375 -10.5352 4.62622 13
259 2 -9.18208 1.22472 -2.3502 14
260 2 -0.408997 -0.774334 6.04923 13
261 2 -6.23424 -2.32269 -9.40983 17
262 2 5.1041 4.55591 -4.28981 14
263 2 -3.95916 0.614456 4.19566 15
264 2 -2.63052 -5.37396 -13.779 15
265 2 -1.32878 -11.8458 -6.47689 17
266 2 7.22309 -4.31434 4.1803 13
267 2 8.45881 -2.88572 -7.36643 15
268 2 4.41637 -10.5599 3.04932 16
269 2 -6.36017 -5.43105 4.01841 16
270 2 -7.57971 -7.59317 -8.75682 13
271 2 -7.46246 -2.49636 2.74582 13
272 2 -6.78697 -8.52952 2.86792 14
273 2 -4.07724 -10.3898 -6.24908 20
274 2 -2.82161 1.47183 -12.3498 12
275 2 3.69603 1.49298 -7.19247 18
276 2 4.94024 -7.564 -10.2081 18
277 2 8.15462 -1.65398 2.51742 14
278 2 5.35 -0.996912 3.69765 12
279 2 -0.195166 2.71719 -9.76176 17
280 2 -4.22802 -7.4953 -13.4613 10
281 2 -1.71199 5.30726 -1.37149 18
282 2 -1.88511 3.71984 -7.3081 15
283 2 -6.97966 2.49458 -7.70407 11
284 2 -6.36806 0.336812 2.48982 15
285 2 5.288 -10.1276 -11.9031 9
286 2 -6.79054 0.484252 -9.3424 10
287 2 -2.74247 -1.08875 -13.9685 13
288 2 5.79107 -8.571 4.5283 15
289 2 -5.92047 -2.23053 4.92315 12
290 2 -7.23286 -5.5674 0.561403 15
291 2 8.39508 -9.76231 1.44146 12
292 2 -9.48357 -4.21353 -4.50784 14
293 2 -4.30514 -4.98184 6.35736 14
294 2 0.90067 -13.035 -0.448981 15
295 2 9.91444 -4.29344 2.10867 11
296 2 -0.618348 -16.3979 -4.57178 10
297 2 -4.36643 5.76539 -2.82658 11
298 2 -5.44597 -3.5145 -13.1848 11
299 2 -4.49877 -7.86777 4.75195 16
300 2 4.00318 -9.59897 6.45561 10
301 2 4.60564 -0.856314 -10.8256 16
302 2 9.86198 -1.2823 0.641561 12
303 2 9.39374 -6.81934 0.296647 11
304 2 7.48012 -8.2732 -7.70197 15
305 2 6.13852 -11.9141 -2.44485 13
306 2 7.80868 -0.0426026 -8.86175 12
307 2 -8.44324 -10.0184 -3.71677 13
308 2 -9.41082 -4.98211 -8.28065 11
309 2 4.31064 -11.9747 -0.606177 15
310 2 3.90125 4.26754 -7.27531 16
311 2 7.72547 -3.15291 -4.10607 16
312 2 5.61969 2.56696 -9.46523 14
313 2 6.75468 -8.26718 -4.39055 16
314 2 3.05028 -14.8815 -6.56313 9
315 2 -2.91396 -10.5819 -9.25773 15
316 2 3.95531 7.50581 -2.65642 10
317 2 2.89299 7.77407 0.0442825 14
318 2 -3.96363 -13.8071 -1.36297 15
319 2 -1.32969 -6.91662 6.30926 15
320 2 8.15116 -3.61452 -0.470087 20
321 2 6.24575 -2.76556 -9.52361 14
322 2 -4.9087 -0.129961 -11.9583 12
323 2 -4.50692 -12.7445 -8.2658 16
324 2 3.66795 -12.3178 -3.92235 18
325 1 -5.89803 -4.3332 -6.16073 24
326 1 -5.9427 -7.58644 -4.09333 22
327 1 -0.25709 -10.5148 -5.50572 20
328 1 -0.53295 -4.69573 -9.25911 20
329 1 -3.28406 -5.48552 -7.49516 20
330 1 -0.779178 -7.51671 -7.61747 20
331 1 -3.75863 -8.46894 -6.04422 19
332 1 -0.207016 -4.85761 -5.86571 20
333 1 -2.92884 -5.53597 -4.46791 21
334 1 -1.1027 -7.5592 -4.10332 20
335 2 -6.16151 -8.29858 -5.85577 19
336 2 -6.57604 -5.73491 -4.42561 21
337 2 -0.116957 -11.6455 -3.98741 19
338 2 -1.48668 -5.18565 -11.0333 20
339 2 -4.5238 -4.85941 -8.94704 20
340 2 -0.52926 -8.50656 -10.0534 18
341 2 -3.13142 -7.7717 -7.75492 19
342 2 -0.939985 -5.54152 -7.55718 20
343 2 -3.98003 -4.60752 -5.95449 20
344 2 -0.434304 -8.60965 -6.20873 19
345 2 -3.5121 -7.53085 -4.52025 20
346 2 -0.923094 -5.58971 -4.2098 21
347 1 -5.5965 -4.3351 -3.54379 20
348 1 -6.34336 -7.04643 -1.1032 20
349 1 -4.94355 -4.40907 -0.704118 19
350 1 -1.31568 -10.8047 -2.6552 22
351 1 -1.08794 -10.6741 0.672531 21
352 1 -3.62803 -8.80691 -2.70764 19
353 1 -0.0176672 -4.97306 -2.50585 19
354 1 -2.58167 -5.6191 -1.29475 22
355 1 -0.822141 -7.86161 -0.851474 19
356 1 -3.8061 -8.5501 0.317405 20
357 1 -0.0282087 -5.01461 1.02807 22
358 1 -3.14606 -6.07671 1.78746 21
359 1 -0.363516 -7.75296 2.37972 21
360 1 -1.00954 -5.2694 4.49206 23
361 2 -5.43484 -8.44188 -2.35447 19
362 2 -6.23436 -5.2409 -1.82691 20
363 2 -3.42463 -10.861 -3.04685 21
364 2 -1.73695 -11.9092 -0.722779 18
365 2 -3.56123 -4.72282 -2.69595 19
366 2 -0.749973 -8.87053 -2.44383 21
367 2 -2.7622 -7.71203 -1.29018 22
368 2 -0.728229 -5.57893 -0.786722 22
369 2 -3.31613 -4.73739 0.33179 19
370 2 -0.159715 -8.95989 0.658123 20
371 2 -2.20091 -7.85393 2.10895 19
372 2 0.0305736 -6.09711 2.97869 17
373 2 -2.94263 -5.60891 3.58384 20
374 1 -6.87606 -1.23436 -7.72714 18
375 1 -5.27927 1.60904 -4.93646 20
376 1 -6.01808 -1.51339 -4.36428 17
377 1 -1.35269 -1.9809 -11.1837 22
378 1 -4.36779 -2.77451 -8.99789 21
379 1 0.0972098 0.784459 -9.27489 19
380 1 -3.08071 0.20449 -7.67023 19
381 1 -1.2612 -1.90727 -7.54449 22
382 1 -3.77596 -2.51556 -6.03588 20
383 1 -0.200288 1.12028 -5.9762 20
384 1 -2.94194 0.0935334 -4.29274 24
385 1 -0.793719 -2.12368 -4.18441 21
386 1 -2.99422 3.27275 -5.79776 21
387 1 -0.459421 3.94924 -3.9597 19
388 2 -5.48571 -1.83433 -6.12316 21
389 2 -6.74962 0.336013 -4.00204 21
390 2 -0.949637 -2.77807 -9.33929 19
391 2 -3.30423 -1.63297 -7.55719 20
392 2 -1.03988 0.406572 -7.51929 21
393 2 -3.55891 1.30108 -5.87725 20
394 2 -0.161042 -2.81087 -5.93568 20
395 2 -2.75995 -2.1889 -4.34604 21
396 2 -0.975076 0.136395 -4.3731 23
397 2 0.722488 3.12532 -5.32138 20
398 2 -2.43429 3.72686 -3.85417 22
399 1 -5.90863 0.928978 -2.14994 22
400 1 -6.59386 -1.69444 -1.29416 20
401 1 -3.62325 -2.56584 -2.60282 22
402 1 -0.191752 0.862024 -2.49845 24
403 1 -2.80739 0.0823942 -0.951484 21
404 1 -0.69031 -2.02422 -0.924882 19
405 1 -3.29454 -2.82537 0.927242 20
406 1 -0.334278 0.644835 0.952457 21
407 1 -2.72805 0.124092 2.59435 19
408 1 -0.741951 -2.3819 2.42928 19
409 1 -3.50324 -3.37253 3.95744 19
410 1 -3.25913 2.53066 -2.69618 22
411 1 -0.954139 3.43559 -0.835675 20
412 2 -5.80689 -2.44676 -2.7924 20
413 2 -6.27925 0.250804 -0.53654 21
414 2 -5.57032 -2.64571 0.260387 19
415 2 -3.81742 0.31736 -2.76311 21
416 2 0.0136293 -2.79062 -2.47195 21
417 2 -2.79612 -2.14559 -1.01338 21
418 2 -0.763038 -0.10994 -0.928341 19
419 2 -3.59624 0.447244 0.738212 21
420 2 0.286857 -2.88229 0.847119 22
421 2 -3.04373 -1.9378 2.54537 18
422 2 -0.637663 -0.424938 2.75269 19
423 2 -1.11169 -3.24703 4.09659 20
424 2 0.242791 2.87727 -2.57308 19
425 2 -2.65554 2.31277 -1.02693 20
426 2 -0.464227 2.63287 1.01454 19
427 1 1.33808 -12.6808 -3.24165 18
428 1 1.38371 -8.60692 -9.97766 17
429 1 2.0879 -5.68006 -7.74599 21
430 1 3.84829 -8.38703 -8.27223 22
431 1 1.52046 -8.42734 -6.39811 20
432 1 5.09326 -5.67391 -5.68267 24
433 1 2.40521 -5.99339 -4.23946 20
434 1 4.30511 -8.15655 -4.3635 21
435 2 1.57928 -10.5372 -6.28843 18
436 2 1.49613 -4.75941 -9.44099 18
437 2 1.7063 -7.5713 -8.14292 20
438 2 4.09626 -6.44874 -7.4843 22
439 2 1.75148 -5.0069 -5.85497 21
440 2 4.44928 -9.30606 -6.12292 23
441 2 2.03158 -8.07352 -4.59674 21
442 2 4.34337 -6.34164 -4.16271 19
443 2 7.4116 -5.48554 -5.34023 16
444 1 1.68802 -9.25354 -2.75928 22
445 1 5.26395 -5.45368 -2.40407 22
446 1 2.62441 -6.03151 -0.670927 20
447 1 4.4406 -8.3053 -0.907066 22
448 1 1.74051 -9.06479 0.837848 21
449 1 4.98472 -5.13978 1.01046 18
450 1 2.14791 -6.21807 2.86677 16
451 1 4.59895 -8.42905 2.39739 19
452 2 1.86738 -10.9109 -2.26406 19
453 2 1.85985 -10.9497 1.54692 19
454 2 1.99883 -5.12856 -2.50562 18
455 2 4.60143 -9.17448 -2.7271 22
456 2 2.34631 -8.0937 -0.960434 21
457 2 4.80166 -6.20698 -0.545442 17
458 2 2.03195 -5.31549 0.960832 20
459 2 2.38481 -8.14436 2.57938 18
460 2 4.94391 -6.49722 2.59042 16
461 2 2.97363 -5.2305 4.19943 15
462 2 5.31118 -3.20178 1.09898 19
463 1 1.4422 -2.72262 -9.21203 19
464 1 2.83866 -0.239019 -7.53897 19
465 1 4.55989 -2.50178 -7.30093 20
466 1 2.0797 -3.13203 -5.98739 19
467 1 5.01921 0.523203 -6.04447 18
468 1 2.53722 -0.239429 -4.1036 22
469 1 4.8095 -2.29566 -3.80575 18
470 1 2.47569 2.22433 -5.63484 22
471 1 7.20974 -3.67383 -5.96337 17
472 2 1.62919 -0.202811 -9.44094 18
473 2 2.62264 -2.18852 -7.66622 20
474 2 5.28779 -0.717727 -7.91589 20
475 2 1.71217 0.409537 -5.98943 19
476 2 5.39021 -3.97944 -6.42952 21
477 2 2.9596 -2.5407 -4.22361 19
478 2 4.80799 -0.278535 -4.23792 21
479 2 3.25711 2.31626 -3.84246 20
480 1 2.31682 -3.13038 -2.43266 20
481 1 4.8358 1.42197 -3.16407 20
482 1 2.87937 -0.0854905 -0.776935 22
483 1 5.32421 -1.74996 -1.17186 22
484 1 2.31515 -3.12948 0.703177 21
485 1 5.00398 1.46961 0.177936 21
486 1 1.68492 -0.358257 2.72783 20
487 1 4.36911 -1.77515 1.82779 19
488 1 2.00679 -3.53334 4.04691 20
489 1 2.29932 2.83712 -2.18617 18
490 1 1.7573 2.79576 1.33656 19
491 1 7.16745 -2.70999 1.19837 19
492 2 1.82333 0.530211 -2.37394 21
493 2 5.49019 -3.46255 -2.47675 21
494 2 3.29147 -2.22054 -1.01203 23
495 2 4.83553 0.391575 -1.48254 20
496 2 1.83225 0.537004 0.886011 23
497 2 6.97312 -1.13098 -0.303533 18
498 2 2.61722 -2.24473 2.45132 18
499 2 4.46178 0.0544516 1.16684 20
500 2 2.81828 3.25946 -0.26132 18
