ITEM: TIMESTEP
1000
ITEM: NUMBER OF ATOMS
1500
ITEM: BOX BOUNDS pp pp pp
-30.0 30.0
-30.0 30.0
-30.0 30.0
ITEM: ATOMS id type x y z Coordination
1 1 -2.96351 -5.70509 -8.38943 20
2 1 10.3712 -9.69189 9.92828 9
3 1 -12.0514 7.66429 -1.71969 14
4 1 -14.4635 3.6081 -8.46597 13
5 1 0.27947 -8.62047 12.82 12
6 1 -9.17977 2.63909 -7.99165 20
7 1 -0.642031 2.42853 -8.10389 18
8 1 -1.41191 -12.9566 3.71186 17
9 1 -8.40426 -10.7887 4.79914 14
10 1 -0.914 4.91032 16.0286 16
11 1 7.47553 -6.06485 7.0774 20
12 1 2.01446 4.35792 8.07433 22
13 1 6.32172 -0.379876 2.92789 20
14 1 0.215535 12.9858 -10.2449 10
15 1 3.11902 -1.08996 15.1687 15
16 1 15.3431 2.33111 7.15222 10
17 1 1.22666 8.36829 -8.69235 16
18 1 5.47825 3.95329 -15.2868 11
19 1 -8.36436 2.2301 1.23256 21
20 1 1.47891 -0.55207 -6.04378 19
21 1 9.26377 -12.0009 8.67091 10
22 1 4.7332 -4.38493 7.5565 17
23 1 11.6387 -11.8691 2.29115 12
24 1 -3.7362 -11.1954 -9.04313 12
25 1 3.93323 -5.04774 -3.04946 21
26 1 0.570464 -4.57951 -12.9665 21
27 1 3.93944 6.62703 16.585 13
28 1 0.861784 -11.8155 7.17835 19
29 1 8.25589 -5.42867 15.1398 8
30 1 -10.4854 -1.78964 5.25141 17
31 1 -6.73208 -0.414452 1.75269 20
32 1 -0.991074 17.0742 -5.66855 11
33 1 2.36397 2.08093 -8.75761 22
34 1 7.3889 -9.12054 -10.8766 12
35 1 -1.49153 -3.17377 13.3287 20
36 1 -11.192 9.35915 0.733606 14
37 1 2.00998 13.7306 10.564 7
38 1 -8.24263 13.1482 -7.11077 11
39 1 -4.06944 12.1347 -2.8702 18
40 1 1.35385 -14.1878 3.68007 13
41 1 9.33739 -8.3412 -3.7144 20
42 1 -9.37683 5.36796 11.7406 10
43 1 -12.3156 -4.37483 -8.72884 8
44 1 6.81261 2.36482 4.23028 17
45 1 -7.78488 10.207 -6.15716 18
46 1 -7.41466 -11.6495 8.2416 11
47 1 -9.43482 11.7985 -4.30978 16
48 1 2.69594 5.71373 -4.33711 15
49 1 1.74433 5.14617 4.82673 22
50 1 -1.01871 6.25678 7.70631 18
51 1 7.44095 -13.5422 -1.19581 21
52 1 4.44872 6.50212 12.8585 20
53 1 11.693 -4.39657 -10.0506 16
54 1 10.8743 -10.5418 6.44432 11
55 1 -4.93598 -3.3014 1.37329 19
56 1 6.71533 -3.41019 12.5843 19
57 1 -6.05043 -12.7507 5.43146 15
58 1 -9.97279 1.1343 3.71547 18
59 1 11.3963 0.949152 6.29298 14
60 1 8.87824 -2.18384 -3.58189 24
61 1 -0.941153 12.6866 11.8071 9
62 1 6.00221 -1.26513 10.1071 17
63 1 -5.38208 -5.19921 6.92396 21
64 1 -0.234643 -6.3253 -7.48888 20
65 1 -7.49297 13.5849 -3.92269 14
66 1 -2.66821 4.76226 -11.7884 19
67 1 4.5813 0.297345 -6.97048 21
68 1 5.53934 -1.75468 -4.55357 19
69 1 8.76429 -8.69006 1.27761 17
70 1 7.77745 -11.1567 12.2219 9
71 1 -0.771992 14.262 -8.04976 15
72 1 -6.34917 12.7812 3.48413 16
73 1 -3.3147 7.67676 3.26376 21
74 1 -7.58907 -5.22488 10.9618 13
75 1 15.4594 -5.35392 -6.18728 12
76 1 -7.75564 5.04093 2.83093 19
77 1 9.83315 -5.14228 -3.6437 21
78 1 3.42928 -0.560591 -13.6177 18
79 1 -3.82593 -0.438853 -16.5543 11
80 1 3.93791 -0.160335 4.98908 17
81 1 1.05021 9.25748 0.530261 16
82 1 -8.08385 5.44446 -8.11992 22
83 1 3.29387 11.2056 -9.4767 12
84 1 2.22688 12.3988 0.739878 15
85 1 -3.9233 -8.07741 7.71317 21
86 1 0.279501 -3.36977 -7.03063 16
87 1 6.57632 -4.02036 -5.16628 21
88 1 -1.01363 3.27612 6.85728 20
89 1 -7.65625 -8.25972 -0.213942 21
90 1 11.5884 -6.79301 5.60818 19
91 1 -9.19984 -5.6001 -1.07691 20
92 1 12.3651 -8.4596 2.2721 19
93 1 -5.08729 9.81669 2.10335 20
94 1 5.7541 1.01392 -13.9794 17
95 1 -1.52672 9.48508 1.63744 19
96 1 1.40187 4.99782 -7.75578 18
97 1 11.2077 -10.1028 -0.300923 15
98 1 2.11951 -15.4855 6.67554 11
99 1 -8.42933 -10.9034 -1.15266 13
100 1 -14.414 -5.01189 2.44348 9
101 1 8.52538 8.08371 7.64492 16
102 1 4.99531 3.19504 -3.22339 22
103 1 -3.96385 8.40894 12.1404 16
104 1 -2.89852 13.8338 -10.2457 9
105 1 2.14798 -3.71386 -9.59379 22
106 1 9.46556 -2.81578 14.273 11
107 1 -5.46191 9.44797 -7.67522 19
108 1 10.3174 -0.290826 -5.84858 23
109 1 -10.279 10.5953 -7.76101 12
110 1 -1.75039 12.9785 -0.772357 15
111 1 7.57583 0.92017 -10.9132 20
112 1 10.0585 -9.52588 3.46032 17
113 1 -8.96891 3.40051 -11.0072 18
114 1 6.35644 11.8755 -5.06996 21
115 1 13.553 8.93235 -0.801767 9
116 1 -1.00271 12.3764 -4.17381 16
117 1 -7.40535 -0.617802 -12.1711 21
118 1 -0.890282 14.8416 7.66694 7
119 1 -9.72682 -3.56141 -2.658 17
120 1 12.3104 -3.29273 -4.3748 21
121 1 -0.428632 9.18511 7.19808 18
122 1 -3.50663 10.6483 -5.58065 18
123 1 5.96098 -6.11556 12.8577 17
124 1 -11.6815 -4.58636 3.76147 20
125 1 -1.25995 -9.12733 5.30909 19
126 1 4.98429 -14.3252 -3.92362 11
127 1 -1.22372 10.2736 -10.5454 18
128 1 -1.5737 9.69998 -3.10807 16
129 1 9.03344 8.79565 -0.283854 21
130 1 1.9923 -8.5434 10.5155 18
131 1 -5.58716 4.16932 -0.940758 19
132 1 3.01671 17.4293 0.656551 11
133 1 -0.985875 4.35507 9.88878 22
134 1 -4.82849 15.0163 2.68629 14
135 1 -4.35409 1.66915 -13.005 21
136 1 14.5089 -6.03487 5.93469 11
137 1 -7.84702 -5.84502 8.25848 22
138 1 -13.2242 -0.823104 6.50331 11
139 1 -3.0654 -11.1123 2.48572 20
140 1 -12.7925 0.950063 -2.46617 17
141 1 -0.333704 -14.2473 -0.212882 16
142 1 -6.56344 -1.44649 -4.93385 18
143 1 7.03856 -6.42515 -2.92965 21
144 1 -2.03139 10.4497 4.93189 19
145 1 -6.48527 -2.73306 6.41126 20
146 1 -5.79978 2.4388 -3.47481 19
147 1 -7.85345 11.0444 -9.96135 12
148 1 -14.2492 -2.51849 -6.34088 11
149 1 -8.57031 -0.540472 10.4597 13
150 1 1.30606 -11.0423 4.10158 21
151 1 4.07074 -13.3916 7.71641 14
152 1 13.3402 2.36338 4.23861 19
153 1 6.28985 3.53414 -6.05024 18
154 1 1.85632 0.838291 12.0829 20
155 1 -5.96886 5.09483 -10.3005 20
156 1 7.95847 -1.0601 -12.7806 15
157 1 -10.3375 0.451857 -10.5441 20
158 1 2.04901 13.0283 -7.04306 15
159 1 -3.78693 17.0925 -3.41358 9
160 1 6.78034 3.42191 9.37946 18
161 1 -2.47159 -5.68645 -11.8667 18
162 1 -3.92864 7.45683 -10.1427 20
163 1 0.0886875 3.36232 -10.9162 20
164 1 -6.38853 4.50259 8.5838 20
165 1 -6.4189 9.64089 10.1771 13
166 1 3.18174 -7.35074 -8.32874 21
167 1 -2.83078 -15.4296 -1.22275 12
168 1 10.7764 -13.3996 -0.762607 11
169 1 -3.34456 1.92834 4.93202 23
170 1 2.8957 -6.79044 0.118847 20
171 1 7.0076 8.94696 -5.89187 16
172 1 0.436302 15.4972 -0.23913 19
173 1 -6.69214 1.77263 3.76303 17
174 1 2.72207 4.87195 14.4346 21
175 1 10.3953 1.04797 -3.19582 23
176 1 2.78834 8.52223 5.67873 18
177 1 -9.09666 8.47245 5.68984 16
178 1 -11.9659 -6.54283 -2.28893 15
179 1 8.76205 4.90368 -13.5496 9
180 1 3.6144 -1.83663 10.7567 18
181 1 10.6704 8.93283 -8.44981 12
182 1 4.50844 -8.64989 -2.58177 21
183 1 -1.23839 0.506896 -13.4358 20
184 1 7.86696 -1.60214 -7.20051 22
185 1 -10.5279 -6.24043 6.55491 17
186 1 5.23151 -16.019 -1.10112 12
187 1 -7.09005 -3.00383 -9.03997 15
188 1 6.04868 13.9248 -2.84357 14
189 1 1.73395 -4.67641 -15.7551 15
190 1 5.0981 3.78103 17.9343 9
191 1 14.8769 3.68663 0.901436 14
192 1 -4.09324 -7.33399 4.73592 18
193 1 12.5654 -6.84343 -8.67302 10
194 1 -2.83664 -8.284 2.17506 20
195 1 -11.7808 1.02809 -7.94946 19
196 1 -11.5575 4.48525 -9.64219 17
197 1 8.12511 0.979269 8.72354 17
198 1 6.33189 -5.232 9.60906 20
199 1 -4.41053 -8.65689 -9.71742 13
200 1 3.37603 -5.26005 10.8126 19
201 1 3.08213 6.61659 -9.96003 14
202 1 3.27606 7.83672 -0.456655 15
203 1 -4.09 -10.0865 5.3492 17
204 1 -0.597876 12.1689 2.29939 18
205 1 -6.05186 -2.09907 12.303 13
206 1 -9.13043 -4.63138 -8.06531 17
207 1 -0.532265 -3.34156 -10.2893 18
208 1 -7.07671 -10.2753 -7.84762 10
209 1 -3.02974 -12.5599 -0.0739102 22
210 1 -0.251245 -3.88316 4.62266 17
211 1 9.46633 1.9142 4.60404 20
212 1 -3.81383 -5.34471 -3.22107 24
213 1 -10.785 -5.41232 9.80635 10
214 1 -4.70335 -10.0267 -2.65821 18
215 1 3.45724 3.28887 -5.7551 19
216 1 -0.293841 -11.6154 1.17785 19
217 1 -1.60344 16.3465 -2.17859 15
218 1 5.37116 -1.75664 -16.0875 12
219 1 -7.17456 -1.27737 -15.0458 12
220 1 3.77371 -5.59734 2.6754 20
221 1 2.506 -10.6552 -0.360193 20
222 1 -5.71088 -5.98854 -10.2136 13
223 1 -11.7791 4.51144 -6.96119 17
224 1 11.1645 4.77193 4.82279 18
225 1 -4.68214 5.81934 -13.3661 13
226 1 -0.27101 6.60234 -10.2259 18
227 1 -3.325 -4.06704 5.21335 22
228 1 -3.73009 17.3108 0.214589 10
229 1 4.33168 11.5357 5.57858 14
230 1 14.5056 -0.521185 5.82379 14
231 1 -11.9055 3.19784 7.33472 13
232 1 -1.49115 -12.0146 8.91895 15
233 1 -6.08503 9.83789 5.12708 15
234 1 3.25327 -5.35651 -12.444 21
235 1 4.11986 -12.4138 2.58935 20
236 1 -0.799354 -1.51799 16.1428 16
237 1 -11.1251 -8.74391 3.96152 9
238 1 16.6735 -7.1672 -0.186261 10
239 1 8.57758 -4.14923 -9.34468 19
240 1 11.8951 -7.73881 -3.1595 15
241 1 -4.57196 -6.69093 10.3499 18
242 1 -5.03884 14.9378 -2.15344 12
243 1 1.79548 1.3539 7.23016 22
244 1 9.50705 3.16971 10.8895 18
245 1 -7.7183 -0.219259 5.70412 15
246 1 10.9031 -11.2879 -3.21536 14
247 1 -6.10151 6.31707 0.852492 20
248 1 -6.08034 8.09846 7.58413 22
249 1 6.32366 -12.589 10.6003 10
250 1 13.61 -4.27063 8.51302 14
251 1 -1.2632 7.81349 10.342 18
252 1 -8.1989 1.10834 -5.62076 20
253 1 -1.02575 2.16763 16.5598 16
254 1 -1.88997 15.0217 1.27918 17
255 1 -6.20715 3.81353 -7.01161 20
256 1 -8.32206 3.67775 14.3617 10
257 1 -10.6897 3.96265 2.23998 16
258 1 -1.73341 -0.135823 -5.76651 21
259 1 -5.67057 12.1672 -0.300362 20
260 1 7.75798 -2.98488 7.89338 16
261 1 -5.39253 -10.2649 0.0288706 20
262 1 9.68747 -7.05467 8.14585 15
263 1 -12.3208 8.43935 4.06932 10
264 1 -0.141762 -6.94644 15.3764 10
265 1 6.75149 -9.05841 -5.43858 19
266 1 -4.3839 -0.627805 -10.7969 18
267 1 6.03673 -4.14663 -13.692 17
268 1 3.79622 15.5432 2.58449 13
269 1 -11.7923 -1.69548 -4.47521 19
270 1 4.95478 -6.73545 -15.2244 13
271 1 -2.60959 -13.0687 -6.19962 11
272 1 -13.8487 -4.87574 -3.85851 11
273 1 -1.89656 -10.0755 -0.84749 20
274 1 13.4062 2.33341 -3.87475 22
275 1 -9.58593 6.94569 -10.3131 15
276 1 -16.1891 0.906824 -7.32022 7
277 1 -9.24433 7.86535 9.00806 14
278 1 -8.71394 13.6999 2.18394 10
279 1 -6.96745 7.21967 10.5612 15
280 1 14.8504 -3.91237 -1.5722 19
281 1 12.6723 3.35069 -9.05054 11
282 1 4.62995 3.01148 7.57058 20
283 1 -4.01686 8.54225 -2.93236 16
284 1 4.54661 -6.85766 -5.49503 21
285 1 -3.92119 8.52333 -0.0535799 16
286 1 7.21674 0.722779 -4.80483 22
287 1 -9.75403 -0.39761 -3.07142 20
288 1 4.81357 -8.61132 0.776701 15
289 1 10.8057 -1.13675 8.59224 12
290 1 -8.23342 -0.783103 -8.36162 19
291 1 -6.34247 -9.14519 3.06338 20
292 1 -3.0737 14.1844 -5.88175 14
293 1 -9.25388 -8.92676 -3.98465 15
294 1 -6.942 6.33926 -2.59081 17
295 1 4.97507 8.6607 -9.07588 16
296 1 4.55695 8.40144 8.5252 16
297 1 -14.447 -6.55733 -0.499815 9
298 1 -0.946482 -7.58501 -3.68026 19
299 1 -12.0625 -3.49156 7.24839 15
300 1 -11.5707 10.9518 -1.87295 12
301 1 5.95336 -8.84027 6.92562 11
302 1 -0.97588 -14.3172 -3.77588 13
303 1 7.17572 8.05933 -13.2501 9
304 1 -7.51905 4.05581 -4.82959 19
305 1 -0.428683 -15.0311 6.44575 12
306 1 13.6501 4.49756 6.74692 14
307 1 -0.972685 0.662408 7.26976 22
308 1 -11.4543 1.45258 0.348726 18
309 1 -3.31069 2.09569 8.50453 19
310 1 -3.2814 -15.5297 5.23099 12
311 1 1.56189 -7.61348 -5.31839 20
312 1 7.85828 -6.72086 -13.5763 12
313 1 -0.451817 -4.11608 10.48 18
314 1 -10.9111 -0.453013 8.436 13
315 1 -2.35487 -4.66089 15.2863 12
316 1 11.5205 -9.27139 -6.21816 13
317 1 1.83678 -9.05677 -12.3129 13
318 1 -2.51216 -1.65504 10.594 20
319 1 6.23528 -11.9409 -3.17818 16
320 1 -1.82247 2.085 -16.577 17
321 1 9.51205 -12.4058 5.10177 13
322 1 4.60422 13.8448 -7.3843 14
323 1 -3.9696 -4.10457 11.5667 17
324 1 -6.46216 -8.95248 6.84826 20
325 1 11.5708 -6.77512 10.4651 13
326 1 8.92023 1.01605 1.86585 17
327 1 -5.34998 4.3145 5.02645 17
328 1 4.66429 0.686011 -10.9289 23
329 1 12.6126 -3.34801 6.11277 20
330 1 -1.02788 7.43965 -0.737433 19
331 1 15.4391 4.91535 -3.31446 10
332 1 1.4398 2.48572 9.81135 23
333 1 0.801306 18.4231 -0.644329 9
334 1 10.5015 -4.24718 7.67604 20
335 1 -2.02278 -10.4333 -4.73083 23
336 1 -1.683 12.1301 8.15254 17
337 1 -9.6613 -7.73022 -7.54328 11
338 1 1.71093 5.09554 11.1581 18
339 1 -5.22012 0.615454 10.4885 20
340 1 -4.34572 -7.2939 -1.03725 22
341 1 -9.42261 2.22371 8.77945 16
342 1 -5.08185 -4.80232 -6.1619 18
343 1 -3.44087 12.2486 0.999575 17
344 1 -0.851444 -11.4241 -7.58666 13
345 1 -0.948863 -7.59298 -13.2923 13
346 1 -5.101 -14.6434 2.82121 10
347 1 -5.07729 -1.34733 4.07847 22
348 1 8.61236 -1.10697 5.60753 21
349 1 -1.88049 -6.45359 12.6571 15
350 1 -11.0934 7.58136 -7.83102 14
351 1 6.17945 4.50504 -0.831023 15
352 1 -4.321 -13.1376 -3.27055 16
353 1 -2.52063 4.96932 -8.64926 20
354 1 1.57838 17.2118 -3.42417 12
355 1 -6.71437 3.00959 -13.3653 17
356 1 -0.961519 9.45943 13.6092 12
357 1 -10.0832 -0.978673 1.70927 17
358 1 3.51277 9.21143 -6.56605 15
359 1 -3.33806 -2.04582 -8.18896 19
360 1 3.5277 -10.4275 -6.56991 15
361 1 -0.310756 -0.84936 -8.98153 18
362 1 -9.34759 10.6246 3.79234 12
363 1 1.87163 4.3333 17.187 16
364 1 8.14689 10.3573 2.5186 17
365 1 4.11385 10.8406 -3.65814 15
366 1 -10.5678 9.34808 -10.8541 9
367 1 5.18648 3.16269 -9.05732 20
368 1 3.00303 -8.89902 3.38992 19
369 1 -14.8068 -3.65777 -0.451236 10
370 1 -4.1609 3.1721 -15.3866 12
371 1 11.3671 3.53423 1.6749 18
372 1 5.51253 -5.00646 0.0924327 20
373 1 16.9216 -1.52314 -2.45871 12
374 1 1.09266 1.30122 -15.671 21
375 1 0.0565874 -8.48222 1.62118 21
376 1 6.72945 -13.2274 4.18615 15
377 1 3.27282 -7.58109 13.2346 15
378 1 -11.3116 2.64807 -4.50074 17
379 1 1.20669 -9.38419 -9.15756 16
380 1 1.8846 1.38845 -12.2471 18
381 1 4.52428 0.479168 17.8005 9
382 1 -8.26039 -3.74948 2.402 21
383 1 15.658 -3.00329 -4.85215 16
384 1 13.0236 -1.17905 -2.1207 21
385 1 -1.8306 5.12706 -5.76836 18
386 1 -7.01154 7.12152 -5.33215 19
387 1 6.01661 -8.2417 -8.1961 18
388 1 3.53248 3.50816 -12.0867 18
389 1 13.3719 -3.02807 -7.21975 14
390 1 -3.83173 -1.39115 13.7181 18
391 1 5.40529 14.7369 0.114091 14
392 1 -4.62068 -2.19429 -13.9694 17
393 1 1.00041 -7.12133 4.43265 17
394 1 -5.61023 -3.0719 9.2695 23
395 1 -8.82094 11.1583 0.461899 18
396 1 -10.1212 -1.28494 -13.4096 12
397 1 -12.7206 -1.18554 3.19224 17
398 1 -4.36009 -10.9109 9.1722 17
399 1 -1.92133 8.50532 -8.48893 21
400 1 11.7742 6.64374 0.302119 18
401 1 -7.43625 -11.4831 -4.27831 11
402 1 1.29748 -5.78642 -2.58019 20
403 1 -4.25712 12.5548 9.49094 10
404 1 5.22138 -5.33788 -10.4955 18
405 1 0.605794 6.59144 1.64822 19
406 1 13.8315 -5.24984 1.82577 18
407 1 7.69434 14.3187 -6.46923 9
408 1 6.25616 -10.151 2.69679 16
409 1 5.97292 -3.23156 -1.80543 19
410 1 -9.89991 4.6902 9.01165 15
411 1 -6.40218 -4.83848 -0.942448 22
412 1 4.21247 10.0267 11.0749 13
413 1 1.9728 4.1831 -16.5162 11
414 1 -3.99376 -2.40769 -5.23009 18
415 1 1.34515 -1.61052 13.0293 20
416 1 7.27615 10.4088 9.00047 9
417 1 8.44418 5.7919 -6.27068 18
418 1 -5.68132 12.5147 -6.94624 16
419 1 -0.585942 10.7594 -7.00954 20
420 1 7.49492 0.129964 12.2726 12
421 1 8.30058 2.52409 -14.0142 10
422 1 -11.6498 -6.93926 0.954504 17
423 1 3.88225 -0.866633 7.80191 22
424 1 -3.25784 11.8583 -8.32281 18
425 1 5.00503 -12.4863 -0.579001 20
426 1 9.45715 -1.71716 -10.3406 19
427 1 1.7573 15.4595 -5.99061 12
428 1 -4.55855 -3.3862 -10.7522 17
429 1 8.06543 -16.3475 0.124171 8
430 1 -9.00263 -6.58402 2.08051 23
431 1 -3.52077 2.60298 -5.5328 21
432 1 -9.43305 -8.93463 8.79476 10
433 1 6.20984 7.66292 -1.7491 15
434 1 3.93428 -10.2459 -9.88056 12
435 1 6.68807 -8.55505 14.3413 11
436 1 7.35674 0.38103 -2.29479 19
437 1 -8.96139 5.57524 -0.334636 20
438 1 17.5692 -4.49991 -3.08783 9
439 1 2.80057 8.4264 13.947 13
440 1 -1.25999 3.51836 -13.8561 18
441 1 2.63851 13.6032 3.6635 13
442 1 10.4588 3.35161 -11.1387 13
443 1 0.711402 -1.78119 -14.1618 19
444 1 -4.16329 -7.56957 -5.30319 21
445 1 -10.6859 -3.39954 -11.1245 12
446 1 12.6798 1.47855 -0.140862 19
447 1 15.582 0.797546 -4.54727 13
448 1 7.86021 -6.32629 -6.31095 19
449 1 9.27613 -11.1016 -5.99207 11
450 1 7.76187 12.5165 0.267496 15
451 1 -7.99763 5.90949 6.09625 17
452 1 9.387 5.42783 -0.608168 23
453 1 16.0054 -3.39398 6.83006 15
454 1 10.2347 5.87987 -8.57589 16
455 1 8.25275 2.57162 13.8207 11
456 1 1.09027 -5.30266 13.2765 19
457 1 4.81052 3.28745 1.54215 12
458 1 1.86009 1.28874 18.5469 9
459 1 12.9433 -0.485064 -4.81168 17
460 1 9.96357 3.49678 7.72475 21
461 1 -13.8409 0.676287 -5.32295 15
462 1 15.1189 4.39602 3.8623 14
463 1 10.0187 -6.4871 2.52614 20
464 1 0.495945 -5.30199 1.63969 20
465 1 11.4144 1.56751 12.9408 8
466 1 -0.0782793 6.32545 14.0354 17
467 1 6.31997 0.6484 6.26875 18
468 1 -6.78322 10.3938 -2.38775 18
469 1 13.3305 7.10039 -3.14051 16
470 1 8.70002 -4.07386 -12.5448 14
471 1 1.27567 12.5581 -1.73582 15
472 1 -1.99496 -8.65877 -7.13419 22
473 1 -12.7459 1.95962 4.25069 13
474 1 -7.93493 7.96451 -12.9051 11
475 1 -2.21684 -15.6332 2.05804 12
476 1 -6.70051 1.83578 -10.6572 20
477 1 -14.417 3.48213 -4.90688 12
478 1 14.0695 -9.3147 5.59274 9
479 1 12.9997 7.2999 4.71083 13
480 1 3.46488 -7.04636 8.59093 18
481 1 -12.7315 -1.16358 -10.7778 12
482 1 2.29714 -3.44527 5.78955 16
483 1 -4.19564 3.78003 16.6148 9
484 1 9.39636 9.36645 -11.3212 9
485 1 10.5838 3.09852 -5.91634 21
486 1 12.803 -1.67446 1.12645 21
487 1 3.35371 -11.1422 -3.30169 18
488 1 12.0544 -0.627063 4.10428 16
489 1 10.9206 6.83436 6.55986 13
490 1 11.7934 -3.79262 3.79472 20
491 1 -3.97643 6.60557 9.68685 23
492 1 -8.97731 -9.6036 1.93169 16
493 1 -10.828 -2.03209 -7.69148 18
494 1 6.12042 -1.01118 14.6962 12
495 1 -1.57385 -9.12827 8.98513 22
496 1 7.2859 4.9661 11.9224 18
497 1 -6.9877 15.4932 0.615736 13
498 1 8.81742 4.50758 2.27296 20
499 1 7.77215 -2.16815 0.213286 23
500 1 3.42561 2.4557 4.18543 21
501 1 0.952143 2.81305 -18.7201 10
502 1 -8.11939 3.08776 6.22631 18
503 1 6.35839 -2.04645 -9.88985 22
504 1 -1.77497 -5.24212 -5.62319 19
505 1 15.4305 -6.50278 -3.26241 12
506 1 6.76339 5.81155 7.52428 19
507 1 4.29348 6.10132 6.01892 18
508 1 10.0563 5.71113 9.49951 14
509 1 0.846976 -3.42365 15.5918 16
510 1 -0.211154 3.15349 13.04 23
511 1 -1.99587 -4.68117 -14.8659 12
512 1 -5.13718 2.71074 13.9107 16
513 1 -4.08704 5.44025 -3.81273 21
514 1 6.53065 5.17722 14.8445 13
515 1 12.6438 4.3881 -1.23974 19
516 1 8.85288 -13.9037 -3.68632 10
517 1 -4.8632 6.25552 -7.68009 20
518 1 5.50929 10.4255 0.103621 18
519 1 7.54417 10.833 5.49813 12
520 1 -1.8181 -2.65409 7.74509 20
521 1 3.50598 13.8802 -3.70188 18
522 1 12.7199 9.40904 1.85072 13
523 1 -6.32993 -7.50157 -3.22631 17
524 1 -1.59435 -2.3804 -15.7672 14
525 1 -8.86516 13.3693 -1.4201 14
526 1 9.90126 -7.1194 -11.0995 13
527 1 5.34936 5.47773 3.31832 17
528 1 10.6433 4.64878 -3.59543 21
529 1 10.1178 11.2644 -0.411356 14
530 1 -1.45127 4.84079 3.95721 19
531 1 -7.10682 1.22004 -1.64828 17
532 1 1.61396 8.47905 -2.83125 17
533 1 0.945671 -11.3592 10.5213 15
534 1 -4.182 10.4635 -11.2588 11
535 1 2.92807 10.7294 8.75809 16
536 1 4.50498 1.52587 9.80691 20
537 1 11.0945 9.67425 -2.76695 14
538 1 5.27371 9.61888 3.09632 16
539 1 -4.96748 2.75856 2.0547 22
540 1 11.4795 -3.87363 -1.58637 18
541 1 -8.8494 -4.20062 5.43022 20
542 1 6.27146 -14.8459 1.79544 16
543 1 3.81867 -2.42565 -7.51655 18
544 1 -0.437906 7.73453 4.81985 18
545 1 8.39484 -5.01789 -0.502314 19
546 1 6.0826 12.6851 2.94845 15
547 1 -14.6938 -4.36614 6.08227 8
548 1 2.70406 -14.1104 0.932209 14
549 1 11.4396 7.55526 -5.68428 17
550 1 4.6568 -6.02046 5.27622 17
551 1 -3.81507 5.53455 1.97842 20
552 1 4.2109 -4.31168 -16.7254 11
553 1 4.55591 -10.631 9.04154 17
554 1 4.03417 16.2968 -1.55439 12
555 1 -3.46072 0.473616 15.9333 14
556 1 -7.28043 -3.35884 -11.9564 14
557 1 5.51072 -4.54788 -8.04161 21
558 1 -2.15454 10.4778 10.4062 16
559 1 9.38516 -8.1162 -8.14045 16
560 1 4.56859 -10.2267 12.7663 13
561 1 0.864113 -11.5224 -5.3163 16
562 1 -9.04684 -3.08085 8.39018 21
563 1 -0.225712 2.83168 -5.53177 20
564 1 -5.04929 -10.3935 -5.71327 18
565 1 -9.69568 2.36848 12.0772 10
566 1 15.1903 1.58992 -1.94817 17
567 1 -3.48814 5.64409 6.49393 17
568 1 -7.99247 8.50546 2.30985 18
569 1 9.3873 -4.95944 4.89154 22
570 1 1.49003 10.8793 -4.50087 18
571 1 8.35799 3.81285 -8.685 20
572 1 7.92601 3.45216 -3.25058 23
573 1 -13.6792 1.46621 -10.2471 10
574 1 -8.86699 -2.73729 -5.44622 18
575 1 6.44225 6.06565 -8.1241 18
576 1 0.523746 -0.850332 9.96752 20
577 1 -2.54457 -5.42852 8.77887 19
578 1 4.98685 -8.33571 -12.0754 14
579 1 -7.67414 8.85323 -0.433446 17
580 1 7.99582 5.82809 4.57266 18
581 1 -6.0399 -5.00155 3.96818 21
582 1 8.2888 6.69298 -10.7326 16
583 1 2.05364 -13.6249 -2.46654 17
584 1 5.72229 5.32044 -10.8146 17
585 1 -0.802649 -0.026071 -17.8884 12
586 1 1.94955 -2.09193 18.5746 7
587 1 4.07616 6.33156 -13.2702 11
588 1 -10.8458 -3.95586 1.18731 19
589 1 10.6271 -4.32177 1.11397 19
590 1 -3.135 -5.78362 1.86857 22
591 1 13.0249 4.87441 -5.95552 19
592 1 15.452 -8.24889 2.68678 11
593 1 -5.62611 5.63062 12.7733 17
594 1 7.13273 -7.05934 4.0444 18
595 1 16.6614 -5.11572 2.93628 10
596 1 10.9239 -5.27543 12.6882 13
597 1 0.62126 12.1612 6.24279 15
598 1 -4.55111 3.42076 10.6057 21
599 1 0.837735 -14.3812 9.56238 10
600 1 9.79937 -1.73903 2.78295 20
601 1 4.60818 5.54773 9.97544 22
602 1 -14.0991 -0.310619 0.112314 10
603 1 10.1556 -7.43106 -0.961879 19
604 1 1.76827 10.6384 3.88166 19
605 1 5.44319 2.23072 15.1562 16
606 1 -2.05643 15.0774 4.49966 12
607 1 3.96075 -11.4133 5.67769 20
608 1 -8.04142 -2.18667 -0.245054 18
609 1 1.98134 1.50192 14.8087 20
610 1 7.87305 10.3479 -2.66176 23
611 1 -6.49312 -12.1811 2.03123 15
612 1 8.63042 -6.83743 10.8723 16
613 1 14.1999 -5.55313 11.7935 8
614 1 1.98863 7.63784 8.8971 20
615 1 -2.84908 7.98303 -5.82167 20
616 1 0.973829 -6.5762 -10.5303 21
617 1 -9.26795 1.51119 -14.2809 10
618 1 -1.0454 -0.172592 13.6 22
619 1 0.635221 16.5568 2.77557 10
620 1 15.2089 -2.41196 3.64703 19
621 1 0.286794 7.53907 -5.8205 22
622 1 -3.88688 6.18023 14.9757 12
623 1 7.22525 7.52553 10.3211 15
624 1 3.61883 -2.40797 -11.6943 20
625 1 -5.86889 -13.6623 -0.652676 13
626 1 -5.08678 0.347597 -7.33165 19
627 1 15.752 -0.300504 9.07065 9
628 1 2.53687 -0.840785 -9.92955 18
629 1 -1.17126 -6.56982 -0.695939 20
630 1 16.1513 -2.02461 0.642342 12
631 1 4.11204 -3.72905 13.5781 15
632 1 -1.32707 -9.24375 -10.6028 16
633 1 8.87656 13.2957 -3.03023 12
634 1 0.578073 -9.00668 7.37954 18
635 1 -12.4635 5.1111 4.59468 12
636 1 10.4219 0.911824 -9.10133 22
637 1 2.50769 -7.35104 -14.6405 12
638 1 -5.31013 11.5197 6.72931 12
639 1 4.18079 1.32582 -17.2394 12
640 1 7.38874 -4.36079 2.95754 19
641 1 -11.9249 -1.57746 -1.08242 18
642 1 9.80877 7.19401 2.40143 18
643 1 -11.132 -9.0167 -0.881234 13
644 1 4.24043 3.13451 12.2755 19
645 1 -14.5009 -2.33476 -2.94628 13
646 1 -11.5501 6.92944 7.25178 13
647 1 -4.65355 2.8431 -9.11647 17
648 1 11.9418 -6.16141 -6.07777 17
649 1 -8.98746 -5.96005 -4.86472 19
650 1 13.399 -7.26644 -0.399195 16
651 1 -12.812 6.76055 1.3168 11
652 1 -6.60624 -3.97617 -3.67187 21
653 1 -2.3062 -12.7155 5.91352 18
654 1 14.9969 -2.86167 10.4141 12
655 1 6.26892 -2.90567 5.14173 18
656 1 -11.934 4.58936 -0.774367 13
657 1 1.47086 10.5705 11.2462 14
658 1 7.02569 10.8492 -10.8887 8
659 1 -4.12619 14.2905 6.08493 11
660 1 9.54172 11.4673 -8.39466 10
661 1 0.767064 7.76952 16.3698 13
662 1 5.34549 -7.95509 10.6002 20
663 1 5.8552 11.1781 -7.75654 19
664 1 -6.24786 0.922795 7.803 17
665 1 -2.11384 -2.46049 -12.6184 18
666 1 -9.51793 2.95168 -2.3322 19
667 1 -4.62219 -13.6223 8.17855 10
668 1 8.92305 -3.38748 10.5956 19
669 1 0.0259425 -11.6387 -2.19017 23
670 1 -14.2829 6.31127 -7.14301 7
671 1 11.2102 -1.7693 -8.18766 18
672 1 -5.81056 7.15974 4.16021 22
673 1 -1.23312 1.81297 10.6616 18
674 1 -6.57997 -7.39183 -7.5138 16
675 1 1.11191 -8.94129 -1.78357 20
676 1 9.01946 -13.4608 1.84997 14
677 1 0.81205 5.23014 -12.9893 13
678 1 13.1449 1.46172 -7.27846 16
679 1 6.55286 6.87725 1.20291 19
680 1 10.2709 -0.812579 -0.579172 22
681 1 -0.839041 5.18182 -16.2306 11
682 1 1.62563 -3.69639 8.55583 19
683 1 9.66475 10.7409 -5.14221 16
684 1 7.36329 0.934312 -8.0438 20
685 1 -10.291 5.67583 -3.96084 16
686 1 5.98789 5.91582 -4.0556 15
687 1 -6.62572 -8.50476 9.64977 16
688 1 3.4989 7.60002 2.81579 16
689 1 5.27933 -15.0538 5.21029 12
690 1 8.85807 7.65229 -3.7277 22
691 1 -2.43293 5.41736 12.3786 22
692 1 -6.63774 0.836431 12.7883 16
693 1 8.90238 2.55553 -0.367769 19
694 1 -3.12122 -8.89182 11.3863 12
695 1 6.86169 -11.992 6.96951 16
696 1 -3.89803 -0.982901 7.59693 22
697 1 12.7299 3.20935 9.75393 11
698 1 9.72908 -3.95167 -6.63826 21
699 1 -9.5371 4.96911 -13.2355 11
700 1 2.09522 -4.94358 -5.78354 21
701 1 -7.02812 8.21888 -10.1962 19
702 1 -11.6672 9.09409 -4.68556 13
703 1 10.6542 9.52308 5.10547 12
704 1 -3.36365 8.83233 7.7634 21
705 1 -11.8231 -7.94825 -4.88569 9
706 1 -0.320757 5.76539 -3.41019 20
707 1 13.415 0.319651 11.4081 9
708 1 -0.658355 -5.83653 7.0406 17
709 1 11.472 0.201874 -11.5968 9
710 1 7.21332 -9.63928 -1.06223 16
711 1 2.19897 -1.54308 -17.2502 13
712 1 -6.87379 6.13072 -14.8963 8
713 1 -6.20646 -6.34899 1.66891 19
714 1 -9.17988 8.90033 -3.21439 18
715 1 -3.15236 1.57695 12.5979 21
716 1 12.9194 -2.44649 13.3293 10
717 1 -8.47749 -7.26062 4.99387 21
718 1 15.1091 0.956191 1.9826 14
719 1 -2.10495 1.74993 -10.7995 18
720 1 14.8916 6.82484 1.87973 10
721 2 -10.1573 -0.175533 -8.39163 17
722 2 -5.12928 10.9304 -6.57677 17
723 2 1.08403 -1.97372 -9.87862 18
724 2 -2.70372 6.7325 8.20523 20
725 2 -4.95864 -2.1911 -9.36617 18
726 2 4.98394 -2.47261 11.7651 21
727 2 -12.6103 -7.13327 -0.598141 14
728 2 -10.5003 10.3936 -3.48405 16
729 2 1.39626 12.3736 2.46873 16
730 2 -6.62644 -0.371582 3.87873 17
731 2 4.96687 3.60404 3.32106 18
732 2 2.53792 -0.325629 6.64623 20
733 2 -0.936082 1.12794 -9.50584 18
734 2 -12.5818 -6.19817 -4.15085 10
735 2 -6.53853 1.50822 1.74725 22
736 2 0.411668 -4.08624 6.59459 20
737 2 2.75686 2.27438 11.212 20
738 2 7.70698 -0.968685 -10.7375 21
739 2 6.10346 -15.0027 3.62439 12
740 2 7.36657 1.17277 2.65839 19
741 2 -7.82276 10.5229 -4.10496 16
742 2 -14.3172 4.44779 -6.82228 13
743 2 10.5331 2.88745 5.93515 17
744 2 13.7334 -6.85513 -3.31731 14
745 2 -5.71002 -13.7899 1.11737 11
746 2 -8.40021 -6.37045 6.66758 21
747 2 -1.66206 -14.5882 5.03044 13
748 2 11.0648 -5.74434 8.71718 19
749 2 -1.60568 -10.7689 -2.99923 18
750 2 4.5934 0.0854012 15.8887 12
751 2 2.95149 9.2436 -8.7399 15
752 2 -8.61979 -10.6111 -3.0859 14
753 2 0.644656 5.8871 16.6415 13
754 2 -10.5258 9.54316 4.67389 12
755 2 -2.32708 3.77833 16.6589 13
756 2 -6.48052 8.73179 -6.13673 15
757 2 10.2376 -10.801 4.62539 12
758 2 -3.1926 8.41956 9.94465 23
759 2 -4.10458 5.88172 4.02664 20
760 2 1.66791 12.6384 -9.34932 13
761 2 7.79836 -8.2547 -2.55972 19
762 2 -1.77496 1.77444 -6.00497 19
763 2 6.77218 -4.54529 -9.78379 18
764 2 9.1061 -2.52805 -8.35862 21
765 2 -4.53699 7.50581 13.4435 13
766 2 0.252446 -5.46044 3.59518 20
767 2 4.77338 4.49471 -13.4805 12
768 2 -2.98144 9.38706 -10.163 15
769 2 11.8013 10.1637 0.128707 13
770 2 -6.04905 -3.70742 11.2869 14
771 2 -10.1421 12.022 -0.784275 13
772 2 10.105 -1.0518 -12.4304 11
773 2 3.50472 -9.37295 -11.602 14
774 2 -12.4267 -5.30281 1.95771 15
775 2 12.0433 8.72378 3.69591 15
776 2 -4.92958 9.68044 6.81339 19
777 2 -5.57586 -9.82737 -8.99108 11
778 2 -2.46817 14.8666 6.51554 8
779 2 4.87999 -8.45287 13.4297 13
780 2 9.25884 -3.57722 2.46061 18
781 2 -10.9076 1.28824 -3.34367 18
782 2 12.3243 -8.35182 -1.33841 17
783 2 10.6848 -11.5769 -1.44748 14
784 2 4.53035 8.86177 -1.38604 15
785 2 8.68452 -12.6721 6.9546 11
786 2 14.6523 -4.93435 10.0225 11
787 2 -3.0408 -3.09123 14.766 14
788 2 16.6077 -6.68111 1.66316 10
789 2 3.64683 10.158 7.04515 14
790 2 11.1158 4.22243 9.96664 12
791 2 -7.4989 6.00463 12.4153 11
792 2 5.54475 7.68832 2.49644 17
793 2 15.2158 -5.43002 4.32309 16
794 2 1.47961 7.16951 -4.48939 15
795 2 -8.60085 -2.75746 -7.86943 18
796 2 -7.06563 2.46332 13.67 12
797 2 6.04769 1.44809 -9.78904 22
798 2 -8.5371 -1.04893 -4.35941 18
799 2 -11.5032 -1.64379 6.81417 15
800 2 -9.42141 -9.44554 -0.170361 16
801 2 14.6139 -1.07475 1.65083 12
802 2 4.42068 -10.0481 10.7413 17
803 2 0.871929 -2.33934 16.9998 9
804 2 7.45282 -2.95929 -13.131 18
805 2 6.33431 3.75222 16.3632 11
806 2 -1.23097 5.94114 10.7958 18
807 2 -9.06459 4.62867 1.37976 16
808 2 9.9373 -9.98493 -7.43797 10
809 2 9.86959 -0.577222 -3.87206 17
810 2 -6.92029 14.3885 2.45832 12
811 2 0.402489 -12.8377 2.68269 22
812 2 11.1414 -6.45381 -4.34397 19
813 2 5.33218 -3.64841 -3.55427 21
814 2 -2.09512 9.02957 6.24304 17
815 2 9.71195 -5.63502 -1.70374 18
816 2 7.04916 -3.49855 10.1919 20
817 2 -5.75009 -7.21417 7.66729 20
818 2 8.79528 -0.614204 0.932514 17
819 2 -5.61419 -8.69736 4.99503 22
820 2 10.0557 7.75169 -10.3232 11
821 2 1.0144 -9.09284 3.71004 18
822 2 15.2293 -3.45475 -6.68186 11
823 2 4.00365 -12.9218 -2.95313 18
824 2 12.1225 -4.53471 2.34537 20
825 2 -0.96585 4.09477 -7.09583 17
826 2 -4.37015 15.1781 4.45189 9
827 2 11.259 4.43514 -9.51128 16
828 2 2.92706 -5.72229 -1.46983 23
829 2 -2.07033 -2.42861 -9.63348 19
830 2 -7.44931 -7.87683 1.82484 21
831 2 -1.64859 -6.94736 1.19171 20
832 2 -5.69051 -8.6198 -1.36479 19
833 2 -2.89992 12.2687 -4.57532 18
834 2 -7.73201 9.66374 3.79638 16
835 2 6.25886 1.53704 -6.25211 20
836 2 6.00564 5.76641 -2.22325 19
837 2 -0.644342 1.85584 -14.8949 22
838 2 -4.7195 4.50984 14.3197 17
839 2 -3.60655 1.40574 -15.8067 14
840 2 -12.2597 8.31122 2.20804 11
841 2 -2.3459 3.38142 12.3733 21
842 2 -9.39665 7.02435 7.07495 15
843 2 -3.79849 1.79106 -3.77095 20
844 2 6.31986 13.5834 1.00037 14
845 2 13.3483 3.41811 -7.07171 12
846 2 11.0624 -7.61811 3.88186 21
847 2 -9.70297 -1.69427 9.33428 14
848 2 9.63211 2.83238 1.1367 17
849 2 -0.686471 7.94895 1.1102 18
850 2 -9.63105 10.7193 -9.53506 14
851 2 -5.61384 8.3879 11.1223 14
852 2 12.5038 -6.14587 12.0237 10
853 2 -6.6965 -4.39223 -10.4292 13
854 2 5.4877 7.58228 -13.5511 7
855 2 13.5612 7.70657 0.758967 14
856 2 -4.86835 -10.1022 7.44734 23
857 2 1.5164 13.933 -0.252783 22
858 2 0.920673 14.465 -7.31446 14
859 2 5.49489 9.23587 -6.71793 16
860 2 13.093 -0.658642 13.1095 8
861 2 0.068968 4.29595 8.14419 23
862 2 17.0995 -5.99628 -1.81911 10
863 2 -3.74529 -2.50361 9.07636 23
864 2 -1.62521 0.212839 16.6969 11
865 2 2.17243 -0.924763 11.1653 19
866 2 -8.30828 2.81189 -0.707258 18
867 2 -3.86513 -5.09681 -10.6164 18
868 2 9.23928 -13.7683 -1.81141 14
869 2 1.71339 0.438482 -13.9642 18
870 2 14.9566 2.68965 3.17708 11
871 2 -4.42345 2.16252 15.8096 13
872 2 4.6289 4.01571 -10.5698 18