ITEM: TIMESTEP
1000
ITEM: NUMBER OF ATOMS
1500
ITEM: BOX BOUNDS pp pp pp
-30.0 30.0
-30.0 30.0
-30.0 30.0
ITEM: ATOMS id type x y z Coordination
1 1 -4.21956 -9.7663 -10.113 19
2 1 9.1721 -11.6356 7.24027 8
3 1 -11.7604 11.4678 -2.42761 10
4 1 -8.1661 4.22903 -7.72299 22
5 1 3.01251 -6.70467 11.7655 15
6 1 -6.13392 1.47515 -8.08536 23
7 1 -3.35058 -10.4346 0.0296164 16
8 1 -11.2322 -7.93695 3.67063 16
9 1 1.3388 5.34571 13.9331 14
10 1 -1.90995 3.84506 12.305 18
11 1 1.13992 12.3011 -9.45428 16
12 1 3.84438 -1.18543 11.5779 17
13 1 12.8694 7.48068 6.7458 13
14 1 -1.1691 13.224 -7.91709 14
15 1 5.79804 5.12903 -13.6393 13
16 1 -0.252723 -3.37944 -8.35086 19
17 1 8.87832 -13.0103 3.94598 11
18 1 9.21423 -11.8961 0.82898 14
19 1 -3.32461 -14.3978 -7.94162 10
20 1 2.76995 -6.2881 -15.4026 11
21 1 -0.710527 7.17355 14.3674 11
22 1 2.17051 -9.04015 7.35136 21
23 1 8.03257 -6.05898 13.4259 9
24 1 -14.759 -4.59015 3.65774 11
25 1 -9.3012 1.82347 -3.05085 20
26 1 -2.56913 12.1487 -1.46519 20
27 1 2.39165 1.32525 -10.1853 20
28 1 3.06847 -8.58877 -13.9745 11
29 1 -0.278382 -4.01987 14.2667 13
30 1 -12.2133 8.88859 3.58441 12
31 1 0.879888 12.9177 8.51917 14
32 1 -9.63363 13.1691 -6.1937 10
33 1 -5.64258 13.3854 -0.526069 18
34 1 1.3153 -8.85788 4.26302 21
35 1 8.60165 -11.743 -6.05525 14
36 1 -10.3212 2.90551 11.1437 13
37 1 -10.3192 0.428507 -9.5844 14
38 1 6.02749 -0.338133 6.66702 23
39 1 -9.08751 9.7299 -7.23905 17
40 1 -7.39754 -9.55589 7.14283 15
41 1 -9.93789 6.82434 -6.55863 18
42 1 3.69212 4.03634 8.23173 21
43 1 5.51795 -16.6024 -0.50059 11
44 1 7.92584 6.52475 13.6737 12
45 1 12.1546 -1.80461 -9.3015 16
46 1 9.99813 -9.89871 2.75944 16
47 1 6.80895 -1.40579 13.4382 17
48 1 -5.31964 -11.6765 7.89641 14
49 1 -11.314 -2.47561 0.0756265 17
50 1 11.4696 2.71261 8.28141 18
51 1 9.34887 -0.682577 -5.38102 21
52 1 -0.484664 9.3327 10.5373 16
53 1 6.98733 -0.86701 9.84429 19
54 1 -2.82366 -4.70492 -9.45133 20
55 1 -9.16238 11.3355 -1.56736 16
56 1 -2.03091 8.13472 -9.53576 17
57 1 8.03468 -2.95511 -6.79919 19
58 1 9.84433 -9.41244 -1.20127 15
59 1 6.70851 -5.45807 7.17645 15
60 1 -3.29674 14.851 -6.13392 13
61 1 -8.73692 13.4621 4.01618 10
62 1 -5.21419 10.7924 3.59231 18
63 1 -5.22627 -5.96923 10.6017 19
64 1 12.8795 -6.53951 -5.42445 13
65 1 -14.2319 7.30808 1.15419 14
66 1 10.8887 -6.12087 -1.00655 17
67 1 8.37208 1.75368 -10.038 19
68 1 -4.40689 -0.696855 -17.1389 11
69 1 -0.817211 14.3591 1.94823 15
70 1 -8.03495 8.24537 -9.48321 11
71 1 -1.73111 11.3861 -9.69168 13
72 1 1.23184 9.07729 1.26225 17
73 1 -4.72956 -6.45933 7.73715 17
74 1 0.134167 -6.26526 -9.80014 19
75 1 2.28349 -3.72135 -10.2333 20
76 1 -2.19788 3.80214 8.85514 21
77 1 -11.2225 -6.09388 -3.37546 17
78 1 -8.71762 -10.849 -3.17964 18
79 1 12.4708 -7.21297 3.28648 13
80 1 -5.54807 7.72706 1.95286 19
81 1 7.28766 2.65645 -14.6088 11
82 1 6.3628 11.3104 -7.67506 14
83 1 14.2136 -6.79939 0.749728 9
84 1 1.56735 -10.9982 2.56321 22
85 1 -5.76738 -9.57598 -1.93997 19
86 1 -11.2506 -5.24586 2.72792 21
87 1 11.2937 10.3606 5.90618 13
88 1 -3.52872 8.3885 9.15506 17
89 1 -1.39449 13.8577 -4.2038 19
90 1 -0.694716 -3.77459 -11.604 21
91 1 10.3037 -1.50346 10.8366 14
92 1 -3.57607 6.98984 -6.37553 22
93 1 10.9011 2.19592 -5.03527 16
94 1 -11.4056 10.1154 -4.93584 15
95 1 -7.12475 13.373 -3.33594 16
96 1 10.6299 3.59045 -10.6151 17
97 1 10.786 -9.03609 5.68705 11
98 1 -8.1942 4.6747 -4.09399 23
99 1 6.51599 12.9643 -0.0779693 22
100 1 9.62727 9.08315 -2.68078 19
101 1 -3.04313 9.48173 -4.09367 23
102 1 -2.13767 -1.63647 -14.8865 15
103 1 4.24673 16.9098 4.6983 10
104 1 -13.9444 -4.27579 -6.68059 9
105 1 18.9313 1.35725 -1.67118 10
106 1 -2.83416 9.0479 5.69382 18
107 1 0.846856 14.18 -6.37769 20
108 1 5.69214 -4.32354 15.4065 11
109 1 -9.05139 -4.58022 0.139387 23
110 1 -0.944042 -8.91322 7.27261 24
111 1 3.16201 -14.164 -6.30353 12
112 1 -1.8075 13.119 -12.1293 5
113 1 7.88314 10.5716 -5.20447 21
114 1 2.203 -9.42566 11.4957 11
115 1 -8.86468 0.833904 0.175306 16
116 1 1.81969 15.4492 3.21914 14
117 1 2.2466 6.54285 9.96993 22
118 1 -6.7422 15.9567 2.84789 10
119 1 -5.3027 4.19686 -6.09113 22
120 1 15.3687 -3.84838 -1.19429 15
121 1 -5.19231 -3.8865 5.03771 17
122 1 -14.4071 -1.89927 2.03526 15
123 1 -6.65623 -11.2276 4.55647 18
124 1 -13.6468 3.65417 -4.42195 10
125 1 -2.55673 -13.8597 0.811392 14
126 1 6.1051 -6.19253 -3.48068 19
127 1 -0.749245 10.7136 4.6369 17
128 1 -8.02403 -0.771918 -4.92296 20
129 1 -4.85574 9.13474 -8.33449 16
130 1 -11.724 -1.85423 -7.88964 13
131 1 -7.95487 -1.40036 12.9587 11
132 1 0.79175 -6.0353 6.22293 24
133 1 6.63208 -13.0255 5.61379 11
134 1 14.3558 4.73546 4.59632 14
135 1 5.41288 5.07581 -6.89677 19
136 1 7.94001 1.14853 13.9296 13
137 1 2.51807 6.96499 -13.1253 17
138 1 9.31967 1.03366 -12.7104 13
139 1 -8.87942 -4.14581 -6.71426 19
140 1 -4.05334 12.3058 -7.23928 12
141 1 -4.64399 13.0833 -4.31865 21
142 1 9.7145 -0.0434796 7.90941 20
143 1 -2.7117 -5.82832 -14.6162 12
144 1 -2.64859 9.54335 -12.3276 13
145 1 2.49043 7.6226 -10.1094 17
146 1 -4.96813 4.16588 7.10018 20
147 1 -9.07397 5.7213 10.4458 13
148 1 0.71845 -9.09569 -8.61685 18
149 1 -5.28257 -12.302 1.48868 16
150 1 7.57654 -14.9007 0.370344 11
151 1 8.55569 9.70716 -8.95762 16
152 1 -0.591723 10.1331 -3.05647 22
153 1 -12.1714 -0.199901 2.90537 16
154 1 5.26036 7.1509 8.72541 21
155 1 11.3264 5.62922 -7.22867 18
156 1 2.2666 7.01919 7.13597 22
157 1 -8.65214 3.9471 5.6016 21
158 1 -8.63102 -6.8271 -5.20833 19
159 1 8.92358 5.38312 -12.7757 11
160 1 3.94657 -1.35351 8.29619 23
161 1 10.7089 10.5755 -11.4495 7
162 1 2.67258 -8.82985 -3.97085 17
163 1 -3.4576 1.3078 -9.99129 19
164 1 9.28055 -0.914697 -8.51621 21
165 1 -9.32125 -3.8683 5.70829 16
166 1 2.20723 -16.4785 -0.815903 9
167 1 -11.3048 -6.95834 -7.42838 13
168 1 6.44908 16.2111 -0.0574135 12
169 1 3.51768 -0.791831 -11.9016 19
170 1 7.21961 4.31728 12.0305 17
171 1 15.5206 2.174 -1.24026 19
172 1 12.2854 -7.45973 -8.48668 12
173 1 -4.22672 -4.66535 -11.8395 19
174 1 -9.92757 -3.92776 -10.5742 9
175 1 8.4918 -3.46927 15.2384 9
176 1 5.47472 -3.60285 9.62429 18
177 1 -2.53897 -7.43152 -11.4258 20
178 1 2.48618 -3.6269 6.727 20
179 1 3.64031 9.98899 -11.1985 15
180 1 7.56959 7.3539 -0.137461 20
181 1 -5.21103 -6.41983 3.17222 21
182 1 1.87909 12.1259 2.66855 19
183 1 -5.60204 -2.81877 12.8353 17
184 1 -7.58493 -10.2711 -10.1473 9
185 1 -6.0048 -4.21948 -8.48924 20
186 1 -3.79729 -10.0293 -6.64463 21
187 1 -6.11635 -9.20282 2.078 20
188 1 11.5541 5.29714 2.38204 19
189 1 -9.67532 -5.35718 12.7728 6
190 1 -2.76378 -10.3605 -3.25833 17
191 1 -0.764865 -9.15094 0.943686 20
192 1 0.753846 12.5913 -0.542424 21
193 1 3.88354 -0.443791 -15.1834 15
194 1 -5.09453 -3.9048 -15.2068 12
195 1 0.433554 -11.8563 -0.646997 21
196 1 -1.23238 -11.0921 -7.54907 21
197 1 -7.94432 3.60028 -13.51 13
198 1 9.12293 4.36983 4.45718 24
199 1 -5.09991 4.11062 -13.8138 20
200 1 0.248205 7.97622 -8.00666 20
201 1 -5.08182 -1.37413 6.88968 22
202 1 -4.16931 15.5065 -2.95093 16
203 1 3.07871 14.094 6.17549 14
204 1 10.7962 1.53053 5.3096 23
205 1 -9.22291 0.399747 3.48622 21
206 1 -0.345038 -6.98181 11.9416 17
207 1 -8.83196 9.23273 4.50036 14
208 1 0.0625717 -4.51178 -14.8648 15
209 1 2.08907 -8.61462 -0.308209 19
210 1 -0.165468 1.04221 11.8642 19
211 1 -12.2104 -5.47444 5.44603 14
212 1 14.2131 -1.03779 -1.26592 20
213 1 6.18437 -6.4265 -9.2517 18
214 1 7.08572 -14.2737 -2.74681 16
215 1 -8.28604 10.9587 -4.23159 17
216 1 10.3121 8.6458 8.65945 17
217 1 -8.25628 -2.04742 1.48842 21
218 1 10.2518 -15.1798 -1.95926 6
219 1 -2.73674 9.09226 2.35751 21
220 1 -3.05628 6.61054 7.27132 20
221 1 6.94801 -10.5952 9.8207 7
222 1 16.2152 -1.85437 2.80068 15
223 1 -0.28607 6.8445 11.8311 19
224 1 -6.28857 -3.96909 -4.96353 20
225 1 1.58956 1.5997 15.0114 11
226 1 -2.83578 12.6619 3.81731 20
227 1 -7.56608 2.01758 11.7184 17
228 1 -9.90019 6.41364 3.74665 22
229 1 -3.42111 -3.94369 -6.39008 20
230 1 -4.95054 10.6067 0.475989 19
231 1 9.07978 -0.956116 4.97441 20
232 1 -8.89284 -12.4595 1.85272 13
233 1 9.08247 -8.07445 7.42877 13
234 1 -7.6724 11.5424 2.18048 19
235 1 -0.627235 -4.55373 11.1148 20
236 1 4.06929 -9.36544 -7.82956 17
237 1 -5.49085 -1.08785 -9.97005 18
238 1 6.20907 -2.92211 -15.5559 9
239 1 6.61332 14.3184 6.16822 14
240 1 -11.2027 -2.68598 -3.1242 16
241 1 3.22118 -3.23501 -14.4228 18
242 1 1.28636 -12.0451 -8.94303 13
243 1 -15.8326 -3.82606 -4.05684 7
244 1 -7.45198 -12.333 -1.0301 18
245 1 14.8736 5.67688 -1.11236 18
246 1 -4.86573 3.6616 -10.0508 21
247 1 -13.6328 -1.70898 -5.72413 10
248 1 -7.29705 6.44081 4.50344 19
249 1 -8.96196 14.6065 0.889112 11
250 1 -6.1042 6.14363 8.8055 18
251 1 12.0311 -0.605977 -3.41262 20
252 1 15.3454 0.402515 -7.06311 15
253 1 1.03542 -6.6276 -6.58838 19
254 1 -0.59009 7.16065 5.4158 23
255 1 -8.84193 1.75155 -6.28756 23
256 1 6.32489 -8.43743 -1.41794 19
257 1 12.7242 -0.0331343 8.3887 16
258 1 -10.7411 -0.244699 -5.25216 18
259 1 -8.2381 -6.87849 1.99101 22
260 1 -1.19563 11.0612 1.5607 20
261 1 -10.721 -8.87848 -4.54357 16
262 1 -11.5889 6.8365 -3.92933 19
263 1 0.530934 17.6043 -6.91744 6
264 1 6.79014 14.1372 8.96682 10
265 1 -14.7285 -5.7303 -2.66859 10
266 1 -2.37922 -7.86387 -8.3546 22
267 1 -12.2642 1.31107 8.65907 14
268 1 -14.0174 5.8328 -1.84173 14
269 1 8.94166 -7.35013 4.12927 20
270 1 -4.18543 -12.7638 -2.30548 20
271 1 5.9635 8.03992 -13.1205 14
272 1 -11.0888 3.92103 -5.61573 17
273 1 -1.36339 -10.1467 4.31566 18
274 1 11.7969 4.75083 5.29499 21
275 1 -2.10073 -1.12102 8.51758 22
276 1 -15.2094 4.28391 1.17002 10
277 1 -6.41068 1.30824 5.36133 22
278 1 -3.85439 -12.4041 4.77355 15
279 1 10.5375 -10.2728 -8.11377 10
280 1 -12.3331 0.8953 5.31192 17
281 1 -0.171504 -3.73178 8.33313 22
282 1 9.69835 -14.3934 -4.88063 9
283 1 4.6598 -8.98403 -10.7814 14
284 1 -3.59509 -3.8477 9.42323 21
285 1 3.93872 -7.0225 -5.40168 18
286 1 -1.79435 4.09791 -15.5596 16
287 1 5.9273 -13.8121 2.19398 15
288 1 4.34743 10.7724 -3.41788 19
289 1 -3.18419 -1.86802 14.5868 12
290 1 -8.42799 -7.3732 9.82055 13
291 1 9.6969 -4.43019 11.9498 8
292 1 5.3308 2.33686 -8.49497 20
293 1 8.29704 -3.09334 -0.106867 20
294 1 13.6853 8.68055 -5.34308 13
295 1 0.85894 3.65855 10.342 19
296 1 1.92279 12.4941 -3.99225 20
297 1 5.7168 -6.00644 3.6401 21
298 1 -1.16283 -13.9744 -2.25796 12
299 1 -2.27453 13.7857 7.12963 10
300 1 -5.63042 -12.7229 -9.39807 11
301 1 7.80134 8.17825 6.73727 20
302 1 -6.27864 1.01096 8.7903 20
303 1 -5.16491 -6.31923 -3.3791 17
304 1 -10.7053 4.38636 8.04778 15
305 1 -6.96465 -10.6594 -7.52746 14
306 1 -5.54803 8.18002 5.80131 18
307 1 -2.86666 -11.6113 -9.97876 14
308 1 -0.508048 -7.62364 -13.9508 17
309 1 -8.75009 -9.75931 0.103184 22
310 1 -7.85762 -1.55744 5.06734 21
311 1 11.0877 -2.98577 5.24309 15
312 1 -2.79132 -4.8568 12.7722 18
313 1 -6.61395 6.69452 -13.8751 11
314 1 8.97792 5.24469 -1.88159 16
315 1 -7.89584 -13.7318 -2.96862 11
316 1 1.24926 15.4494 0.232976 14
317 1 2.83239 6.68905 -6.47371 21
318 1 2.21985 9.38076 12.5795 11
319 1 -13.8375 -1.44224 -1.18953 14
320 1 6.38821 13.337 -4.32955 20
321 1 -8.22911 -6.13651 -8.46668 17
322 1 0.0965207 -14.2584 -6.54576 11
323 1 0.83476 -1.6772 -13.1634 22
324 1 -10.514 11.4663 1.68628 13
325 1 4.33009 6.93751 13.877 9
326 1 7.6524 7.5921 -3.33705 20
327 1 5.04717 8.29958 1.50417 22
328 1 -7.85922 12.0321 -9.06686 8
329 1 1.90705 4.39622 -8.37732 20
330 1 3.53827 -6.93153 5.17147 21
331 1 -14.9595 -4.49897 -0.00694136 12
332 1 -4.25062 2.58062 -17.819 11
333 1 11.5115 6.05621 -1.43129 16
334 1 6.89803 -5.68819 -0.934862 20
335 1 17.5635 2.29792 -5.57576 11
336 1 -0.0275132 1.87843 -11.9523 20
337 1 -2.94059 -7.13984 1.33281 19
338 1 3.03679 -13.1936 0.705711 18
339 1 4.84218 -8.65703 9.85113 13
340 1 -7.14204 7.01258 -6.84416 21
341 1 -2.90111 -9.69785 -13.2119 11
342 1 2.97091 4.20536 -11.4245 21
343 1 0.083137 -1.3661 13.7197 14
344 1 -10.8235 -2.51641 4.11046 18
345 1 10.5271 -5.19946 -8.01767 21
346 1 14.0908 2.29604 -4.88362 19
347 1 -6.09213 7.36746 -3.99877 21
348 1 3.23879 -6.25965 -8.93275 17
349 1 5.49054 5.72378 -10.2012 18
350 1 14.1608 -2.12563 -5.00962 18
351 1 -2.92722 0.979955 10.4137 20
352 1 4.00011 13.7302 0.693829 19
353 1 -1.39161 0.958429 -16.9564 13
354 1 -6.89097 -4.72618 7.50556 22
355 1 -4.8134 16.4591 -0.0626063 9
356 1 -7.16196 -4.20005 -12.5363 15
357 1 -14.2159 2.27706 3.10253 13
358 1 -3.46238 -9.40888 8.75116 18
359 1 3.85764 12.7248 -6.1825 20
360 1 16.2588 3.67756 -3.11643 17
361 1 -12.4729 -10.1278 1.6879 11
362 1 -0.391062 -8.8613 -2.15608 23
363 1 -8.80501 7.26906 7.09936 13
364 1 3.75663 -0.769338 -8.37373 23
365 1 8.77565 -7.34468 -3.01236 21
366 1 2.85771 15.2199 -8.2815 9
367 1 6.55598 -7.9378 1.85158 19
368 1 -9.0306 0.977353 6.71385 20
369 1 6.73396 10.5575 8.63459 21
370 1 0.657528 4.39344 -13.6914 16
371 1 -5.32766 -7.08304 -6.62195 17
372 1 2.43662 -3.86034 9.97358 20
373 1 8.78475 11.6604 7.29631 12
374 1 8.09863 4.98469 -8.48943 19
375 1 -5.61305 9.78136 -5.68419 19
376 1 1.43736 15.4 -3.03991 16
377 1 11.1417 -3.48077 8.62807 11
378 1 12.2992 -0.221251 -6.83409 19
379 1 -14.221 -7.05377 1.98867 10
380 1 -0.211825 1.31753 8.54061 23
381 1 -0.239032 11.0155 -5.95593 20
382 1 4.33636 -15.7829 -3.39985 13
383 1 5.41396 -3.86231 -8.60654 18
384 1 -1.38505 16.799 -4.39701 13
385 1 -5.65044 -7.38747 -13.6158 15
386 1 2.82005 -13.2612 4.10395 13
387 1 -11.832 -5.01819 -0.958764 19
388 1 -9.94305 -5.35578 8.52568 14
389 1 4.58958 7.98806 -1.9642 21
390 1 10.3217 -7.50905 -6.14619 17
391 1 4.79582 -4.1338 12.788 15
392 1 9.04676 4.88525 -5.49944 18
393 1 -8.98823 7.98952 -1.45948 18
394 1 12.0876 -8.22537 -2.92579 12
395 1 4.46598 9.00596 11.0503 18
396 1 -3.1355 6.18314 -11.0293 19
397 1 5.98742 17.6338 7.85062 5
398 1 11.2626 0.736595 -9.77501 18
399 1 2.91366 1.60567 -13.0459 19
400 1 -2.9502 -13.0527 -5.26645 15
401 1 -8.16219 4.8719 -10.9207 15
402 1 14.8988 3.93598 1.58089 21
403 1 18.3005 5.1471 -5.76109 8
404 1 7.19236 -9.84373 -9.83745 12
405 1 7.0088 -8.79093 -4.8801 15
406 1 5.99929 15.3107 3.09795 14
407 1 -8.01874 3.23396 2.25394 20
408 1 15.3573 7.21759 -3.88014 11
409 1 16.085 1.01019 3.61101 17
410 1 13.7114 3.35556 -9.65305 10
411 1 10.2996 8.22467 12.2131 10
412 1 3.90292 -6.02054 8.11133 20
413 1 4.17864 0.642027 14.2814 13
414 1 16.6471 -3.70373 -4.44277 11
415 1 11.6709 1.66152 11.3041 14
416 1 -8.12593 -1.1147 -7.83603 22
417 1 18.0345 3.35292 0.257462 13
418 1 11.7562 -2.99226 -1.48023 18
419 1 10.4003 -0.598213 13.4525 10
420 1 3.18813 9.73486 8.36612 20
421 1 8.13407 2.51008 6.87711 20
422 1 -5.85651 10.7109 -2.1073 21
423 1 11.0953 11.0066 -5.46455 13
424 1 10.889 -4.81303 -10.7802 14
425 1 4.80737 16.4689 -2.59788 13
426 1 2.25083 -11.1042 -6.25478 19
427 1 -13.1806 5.67867 3.75192 13
428 1 -6.29795 4.8361 -16.5136 9
429 1 -1.36096 -12.1718 2.38429 16
430 1 -5.30862 -1.17319 -13.7972 16
431 1 -12.535 1.49101 -7.3422 12
432 1 13.5467 -2.47402 0.966744 19
433 1 13.0488 9.48805 3.89382 13
434 1 1.11066 -7.23728 9.50574 21
435 1 -8.1591 -1.22876 -11.5574 13
436 1 -1.65096 4.3061 15.3608 12
437 1 7.32121 10.8302 -10.9876 11
438 1 11.2825 8.67103 -8.04228 17
439 1 5.41729 -12.1389 -7.65353 14
440 1 13.3759 2.1901 3.34248 23
441 1 10.6353 11.7321 3.30433 14
442 1 16.9224 -0.608781 0.21345 18
443 1 -4.8541 3.54956 10.2432 20
444 1 -11.0797 -7.57211 1.00296 21
445 1 -5.45398 -1.5163 -6.48387 21
446 1 8.90526 1.80834 10.0916 21
447 1 -0.856964 -9.45671 10.1877 17
448 1 6.79133 4.04377 8.94709 17
449 1 -4.58117 13.6768 2.32581 17
450 1 12.471 3.62829 -0.214065 19
451 1 7.73743 7.29884 3.20615 21
452 1 1.22585 2.00664 -15.7008 16
453 1 -10.6697 -1.1964 7.20866 14
454 1 10.1969 -1.82026 -11.5721 15
455 1 12.1187 -10.0185 -5.973 9
456 1 9.71862 5.39888 7.52937 23
457 1 6.38343 5.44991 6.30105 23
458 1 16.6994 6.01457 2.05948 9
459 1 2.54315 -2.0359 15.6594 10
460 1 -2.98032 6.19815 10.8127 20
461 1 0.891133 -1.1038 -15.8168 13
462 1 -4.91429 0.504436 12.4334 19
463 1 5.79414 1.44995 11.8706 18
464 1 13.0873 8.43509 -1.96005 15
465 1 5.23628 -11.8622 -4.83881 19
466 1 -5.49754 6.1938 -9.1031 22
467 1 5.03046 11.117 3.07733 21
468 1 9.48647 12.0653 0.50785 15
469 1 4.12009 15.4314 -5.22895 14
470 1 12.3267 10.2055 0.759237 13
471 1 -5.73058 -11.6934 -4.64454 19
472 1 7.1898 -1.09576 -13.666 14
473 1 -7.11752 14.1566 -6.4037 10
474 1 7.41024 -7.56432 -12.1233 12
475 1 13.6882 6.1685 -8.02674 13
476 1 11.8015 11.4459 -2.1158 10
477 1 -8.31149 3.81225 -0.812615 18
478 1 4.65918 8.18989 -5.21046 20
479 1 0.886941 -11.6186 9.08852 12
480 1 -3.57204 6.88336 -13.9787 15
481 1 2.27292 11.7149 11.054 13
482 1 5.49641 1.56975 8.68694 22
483 1 7.48545 15.6954 -3.57556 9
484 1 7.98873 12.8209 3.59587 15
485 1 14.9865 -6.29834 -2.61599 8
486 1 -10.4253 -8.40445 6.90059 12
487 1 3.60147 -15.6755 1.99108 11
488 1 0.284866 -0.688707 -9.94988 22
489 1 2.37835 9.53855 5.40162 20
490 1 -13.9056 -2.12576 5.00136 10
491 1 3.81809 -10.6616 -1.66777 17
492 1 8.52218 7.49649 -6.40973 20
493 1 5.82291 -3.1662 -11.7836 21
494 1 4.275 -11.141 7.70182 15
495 1 4.08576 17.0795 0.985552 11
496 1 -1.97845 1.13577 13.6587 17
497 1 -8.05075 -7.10981 -11.385 11
498 1 7.89905 -5.97745 -6.16086 17
499 1 -2.09256 12.2179 9.37448 10
500 1 6.57247 -14.4371 -5.65607 14
501 1 6.7348 -8.78254 5.46877 18
502 1 2.06813 -13.6146 -3.30821 16
503 1 -7.52859 -3.93671 15.1192 6
504 1 -6.20648 -14.1324 -6.17978 9
505 1 -10.2887 -0.131755 11.0895 8
506 1 17.8465 -1.75332 -1.97506 12
507 1 -7.96427 3.67093 8.69677 19
508 1 -7.92693 6.40508 0.887318 21
509 1 11.8032 -0.829043 3.19669 22
510 1 -0.64461 7.66861 -4.80675 22
511 1 16.3232 0.599699 -9.92023 6
512 1 10.591 8.16594 -4.68626 20
513 1 -10.7463 3.60987 -8.60885 14
514 1 -13.7624 -6.86602 -5.20373 10
515 1 8.00299 7.71205 -11.2361 18
516 1 0.772957 -1.19374 9.98118 20
517 1 -2.96503 -4.23327 6.57326 21
518 1 1.45798 -5.72146 -12.8665 18
519 1 -5.98105 7.31667 -1.05094 19
520 1 7.90171 10.1598 4.88882 21
521 1 -8.17543 -4.72814 3.66325 20
522 1 11.1594 6.95081 -10.6024 14
523 1 0.255115 -14.4589 1.27346 16
524 1 5.7057 7.99895 -8.57335 23
525 1 -3.44606 1.09503 -13.7641 19
526 1 2.93491 1.21252 10.2836 19
527 1 1.90252 5.75117 -16.0525 10
528 1 -8.64984 -4.45361 -3.15834 21
529 1 9.39716 -1.15018 -1.71451 22
530 1 -5.78142 -6.48811 -0.275542 23
531 1 16.2427 7.38976 -7.41806 8
532 1 8.77271 -6.82111 1.0342 20
533 1 -6.38865 7.8381 11.6153 11
534 1 7.15853 -10.4993 3.37582 20
535 1 16.2455 0.0318422 -3.75975 19
536 1 13.7159 -4.07144 2.82906 14
537 1 -0.364345 9.60793 7.6375 20
538 1 -7.30845 5.06574 12.5826 13
539 1 1.1632 -11.9735 6.06031 19
540 1 10.5168 2.15825 1.83685 21
541 1 8.04373 9.79115 11.7098 11
542 1 -14.5459 0.622388 0.664508 14
543 1 12.185 -9.47679 0.356666 12
544 1 3.79771 10.8406 -0.00118035 20
545 1 9.79253 4.97099 10.8269 20
546 1 0.218288 13.4012 5.43976 14
547 1 4.02696 -10.4295 5.07855 20
548 1 -8.21612 -1.28629 -1.78802 22
549 1 3.82257 3.47906 13.426 13
550 1 3.80244 13.6497 -2.55174 23
551 1 -8.99517 -9.3701 3.50493 20
552 1 9.78604 -5.32246 5.82635 15
553 1 10.6073 -4.23778 2.11935 18
554 1 10.5328 7.16805 4.76263 21
555 1 1.90203 -8.0175 -11.4516 16
556 1 -2.68996 3.77658 -12.2906 17
557 1 -2.25072 -1.53026 11.5024 24
558 1 -1.69996 15.362 -1.46018 15
559 1 17.5647 3.80025 3.35745 11
560 1 1.66175 9.37709 -5.12417 21
561 1 -4.40216 6.51514 14.4163 10
562 1 4.95477 11.0474 6.27626 17
563 1 8.19251 -4.78905 -13.1234 13
564 1 -6.16076 -14.7617 0.402731 10
565 1 -2.82483 -1.45783 -8.20955 19
566 1 14.0389 2.22595 6.5032 16
567 1 6.63984 -0.555323 -9.84969 22
568 1 -2.53212 -6.54885 -5.13317 19
569 1 18.8226 0.841275 2.21005 11
570 1 2.52237 -4.59453 14.32 11
571 1 -0.824094 -10.1737 -11.0502 15
572 1 8.77934 12.5561 -2.68505 19
573 1 -10.9942 3.31977 3.75967 18
574 1 12.2653 2.80904 -7.26878 18
575 1 5.73845 -5.84859 -14.7471 12
576 1 -6.05709 13.1892 5.366 12
577 1 4.13596 3.05476 -15.8772 9
578 1 8.74655 -4.20123 -3.20683 19
579 1 -12.1561 0.289807 -2.31018 15
580 1 10.3352 8.52956 1.73206 17
581 1 -11.8098 -9.18425 -1.73434 14
582 1 8.09782 7.30737 9.91559 19
583 1 -8.26338 2.14522 -9.95649 19
584 1 -13.4496 3.3467 6.34756 12
585 1 -2.60567 4.14774 -8.21664 21
586 1 8.97889 -7.85995 -9.23831 16
587 1 -9.77459 -9.29611 -7.25966 11
588 1 13.7419 -4.06315 -6.92122 12
589 1 -13.3358 10.2648 0.758551 11
590 1 -6.7967 -8.79479 -4.9157 19
591 1 -4.32057 -9.10816 5.61745 21
592 1 13.9961 -1.06434 5.30175 14
593 1 8.52687 -1.12202 1.83735 20
594 1 -10.8307 5.46397 0.814575 20
595 1 4.23394 12.3498 9.03586 16
596 1 2.50715 9.85027 -8.10715 21
597 1 -4.46521 10.9587 7.02256 13
598 1 8.69057 13.2961 -6.04372 11
599 1 5.2651 11.9448 11.6282 12
600 1 6.7977 -6.66035 10.204 14
601 1 4.03222 12.1486 -9.19946 14
602 1 -7.63536 -4.36703 9.98946 13
603 1 -2.54229 -1.43712 -11.5055 17
604 1 -13.659 2.45663 -1.03306 13
605 1 -2.05513 -11.4814 7.40161 17
606 1 8.12079 -4.02908 3.29672 19
607 1 0.147414 -11.4684 -4.01052 20
608 1 -13.3647 9.2931 -1.95579 13
609 1 15.5205 -2.48078 -7.8801 11
610 1 -9.00063 9.00025 1.01765 17
611 1 -8.00693 -1.80704 8.65274 15
612 1 -5.35626 -6.47468 -9.98082 21
613 1 -0.90214 -8.83163 -5.35592 21
614 1 6.44445 -11.338 0.299593 18
615 1 0.147886 8.84393 -11.5227 17
616 1 16.4578 4.13739 -8.47787 11
617 1 8.60551 4.47321 1.28844 18
618 1 11.7316 0.0644693 0.194916 22
619 1 -0.665864 7.35227 -14.5656 10
620 1 -2.07691 -6.59908 9.15343 23
621 1 7.07217 10.2399 -1.72078 21
622 1 9.12709 2.74427 -7.34098 22
623 1 -11.3535 4.00854 -2.26028 19
624 1 -6.04572 -9.51877 10.1127 12
625 1 4.93489 7.8671 4.89903 21
626 1 -0.950564 -13.829 4.51469 13
627 1 1.90462 10.2246 -1.93353 20
628 1 -3.49787 8.57005 12.6686 11
629 1 -5.33303 -1.7925 10.3763 21
630 1 10.7153 2.51739 -1.94671 15
631 1 -3.39178 -7.92865 12.4256 12
632 1 4.35565 -10.1909 1.69705 18
633 1 10.1523 3.35924 13.3145 12
634 1 10.8856 -3.28071 -4.98457 17
635 1 -6.38978 1.28566 -11.9714 19
636 1 -5.62477 8.62186 -11.29 13
637 1 -11.6285 7.5029 -1.15292 18
638 1 7.19761 10.0585 1.48568 21
639 1 -0.366376 6.23165 8.80675 23
640 1 -10.9297 -11.717 -1.29812 12
641 1 -3.13924 9.22416 -0.949962 20
642 1 12.038 6.3298 9.49808 11
643 1 -2.16437 -7.06889 5.27889 19
644 1 8.06982 -3.5126 -9.83367 19
645 1 7.68101 -10.9809 -2.79971 14
646 1 5.9496 1.62313 -11.9154 21
647 1 -6.31806 1.63227 -15.4208 16
648 1 -8.93948 -7.27701 -1.53083 22
649 1 -8.8666 8.11711 -4.20318 19
650 1 -4.57612 2.96972 14.1437 15
651 1 7.9251 -2.74772 7.24314 18
652 1 -7.13469 -7.67487 5.27085 20
653 1 14.3428 0.710702 1.07635 20
654 1 -0.264771 4.74845 -10.0337 20
655 1 13.5205 7.15482 1.04552 18
656 2 -7.87938 2.1862 -8.09292 24
657 2 -3.02925 13.121 -5.50392 18
658 2 1.67587 0.0623669 -12.3794 19
659 2 -5.16357 7.55051 13.112 10
660 2 -5.94018 -10.6742 -9.34807 14
661 2 3.36583 5.34319 14.1203 10
662 2 -13.0925 -6.42915 3.28902 14
663 2 -10.3131 8.64977 -5.79644 15
664 2 4.90969 17.1504 6.33241 8
665 2 -12.2315 1.62303 3.52991 17
666 2 7.58856 5.16134 3.0012 22
667 2 -12.7701 -5.89469 -6.54379 9
668 2 -8.34138 1.05191 -1.66077 19
669 2 -0.150868 -7.44456 4.98865 20
670 2 3.60798 2.06024 8.43731 23
671 2 6.37218 -4.0568 -10.2985 16
672 2 3.66436 -13.9019 2.50759 16
673 2 -4.96188 9.15355 -0.93843 22
674 2 -11.1325 1.88251 -8.71845 15
675 2 9.9197 5.39638 5.6942 23
676 2 10.7437 -14.2647 -3.47457 5
677 2 -9.62874 -11.6819 0.310594 16
678 2 -10.7645 -4.83237 6.69076 15
679 2 -2.13031 -12.2982 4.20207 16
680 2 10.0882 -4.31361 3.99518 18
681 2 1.29364 -14.3346 -5.02491 13
682 2 6.09137 0.352434 13.8631 14
683 2 -1.32564 14.5106 -6.20832 16
684 2 -10.7175 -10.156 -3.14487 15
685 2 -0.303342 5.49914 15.1167 11
686 2 -9.55562 10.7438 0.109326 17
687 2 -2.36888 2.72394 15.0011 9
688 2 -4.96309 10.3494 -3.75327 21
689 2 8.37828 -11.1932 -1.04739 15
690 2 0.249643 6.72361 7.10605 22
691 2 0.510708 12.0293 -7.53454 22
692 2 5.9959 -7.03685 -5.30381 17
693 2 2.96924 -2.70717 -11.8954 19
694 2 7.88479 -0.501291 -6.96561 22
695 2 -2.64743 7.6261 14.2848 11
696 2 2.60915 4.03096 -16.2715 9
697 2 -0.935326 8.52303 -12.971 14
698 2 8.88245 9.02446 -4.502 19
699 2 -3.99803 -3.60687 13.6365 15
700 2 -12.0676 10.5067 2.17465 12
701 2 11.2068 -0.733619 -8.11942 18
702 2 5.70664 -10.1801 -8.71684 13
703 2 -15.4139 -5.59524 1.66858 9
704 2 10.5768 10.388 1.7086 16
705 2 -2.87276 7.17205 5.03953 20
706 2 -2.6277 -9.87949 -8.42797 21
707 2 -3.38727 12.3551 7.63812 12
708 2 6.80194 -8.58219 10.2108 11
709 2 10.2038 -5.70775 0.711842 17
710 2 -11.4234 5.47513 -1.00258 19
711 2 14.8899 -5.88825 -0.676132 10
712 2 8.95294 -15.1629 -0.813155 10
713 2 8.46106 7.86711 4.8196 21
714 2 7.07229 -13.2685 3.68086 15
715 2 15.5277 -0.656628 4.22258 15
716 2 -3.32428 -0.558721 13.0874 21
717 2 15.5981 -3.36441 -6.12873 12
718 2 2.23669 4.71273 9.5202 17
719 2 11.9862 8.67616 5.29003 17
720 2 -7.67835 6.42394 11.3314 11
721 2 5.52967 7.21981 3.28982 23
722 2 16.6915 -2.31844 -0.708177 17
723 2 2.16209 7.86246 -8.22492 20
724 2 -7.74033 -3.02264 -7.96852 20
725 2 -4.89033 1.43038 10.6345 19
726 2 9.48976 0.986589 -8.79623 21
727 2 -9.33735 4.15817 -2.46591 20
728 2 -13.8868 1.90051 5.20982 13
729 2 -12.8132 -8.22518 1.56114 13
730 2 17.8099 1.81165 3.51846 11
731 2 0.810719 -2.56349 6.76856 23
732 2 -0.530084 -1.16985 11.8409 21
733 2 6.96828 -3.27325 -13.5183 14
734 2 10.6311 6.73367 11.2255 15
735 2 -2.20271 6.74059 9.15364 18
736 2 -8.06616 1.06961 1.9273 19
737 2 4.66492 -7.63352 -9.15299 18
738 2 12.0575 7.15602 -8.87921 12
739 2 -7.075 14.4443 4.15441 12
740 2 -1.92385 -9.09069 -0.523809 18
741 2 9.32132 -6.9006 -7.65304 16
742 2 2.61202 5.01765 6.81454 23
743 2 10.3329 -10.8751 -6.24388 11
744 2 5.58525 -0.459601 8.65749 22
745 2 -0.931502 -5.05046 6.60049 20
746 2 8.29974 2.39392 1.39911 21
747 2 -8.81084 -9.03244 5.76661 15
748 2 12.1933 2.48689 -9.88918 14
749 2 -2.7852 -12.057 0.878357 17
750 2 13.0097 -5.91974 -7.19473 13
751 2 3.78089 -12.1299 -6.51393 18
752 2 13.4708 -2.77147 -1.0536 16
753 2 -7.22563 11.9687 4.14752 13
754 2 16.5184 -1.94162 -3.59268 13
755 2 -6.18818 -6.48351 -8.07941 18
756 2 -8.10547 -8.8739 1.69795 22
757 2 -4.64146 -7.00375 1.25984 21
758 2 -5.68674 -7.54378 -2.03944 16
759 2 -2.75302 14.0856 2.34837 13
760 2 -9.34458 13.1059 1.97552 14
761 2 14.3716 7.52903 -6.69255 12
762 2 4.40927 7.48724 -10.0864 21
763 2 -6.13518 -0.806025 12.424 15
764 2 -5.33783 0.958841 -13.6043 15
765 2 -11.1561 5.27867 2.86361 19
766 2 -3.09285 4.35566 10.7951 18
767 2 -8.97801 2.82522 7.27826 17
768 2 7.00888 14.3932 4.12118 13
769 2 16.1972 -0.876248 -8.71231 8
770 2 13.6903 -5.8944 2.70297 10
771 2 -7.04644 -2.92915 13.8064 10
772 2 -0.416849 9.34334 2.08889 18
773 2 -7.75924 9.66137 -5.68792 22
774 2 -5.03997 10.3772 5.34102 16
775 2 13.1501 -2.88271 5.03257 13
776 2 -7.96227 -8.77057 -10.9303 11
777 2 4.3509 6.89626 -13.6831 13
778 2 12.6898 5.2885 0.81652 16
779 2 -10.0272 -7.24601 8.48554 11
780 2 0.575571 8.65917 -2.77286 18
781 2 -5.36593 13.5888 -6.25091 14
782 2 6.06107 15.3232 -4.66285 13
783 2 10.0559 3.04106 11.4317 17
784 2 -2.99412 4.82048 7.13882 24
785 2 13.4273 -6.91593 -3.46592 11
786 2 0.128529 0.52317 13.953 15
787 2 3.60363 -3.22915 8.3519 22
788 2 -13.5923 3.95348 -2.38648 14
789 2 -3.03099 -5.98738 -12.6888 20
790 2 4.67867 -14.7917 -5.19455 14
791 2 8.61169 -1.67221 -10.2448 24
792 2 17.2852 2.86707 -1.38766 16
793 2 -5.86943 2.04658 13.0825 12
794 2 7.21973 0.898001 -13.2122 14
795 2 -4.96426 -8.66633 11.4306 9
796 2 -2.78266 2.64071 -16.8532 13
797 2 1.92587 -10.6866 -4.42505 17
798 2 6.19792 -9.96675 1.89062 21
799 2 11.9887 9.27795 -6.10465 15
800 2 -6.65629 3.37773 -14.9812 14
801 2 -0.860269 13.5098 8.45952 9
802 2 -8.07428 -3.66093 -1.32457 22
803 2 -6.33908 5.24926 -7.43227 23
804 2 4.33301 11.3905 -7.45522 17
805 2 2.48952 10.7447 -4.08088 19
806 2 -7.05896 -13.2429 1.20262 12
807 2 14.8267 2.4221 4.9126 16
808 2 -0.125496 4.84 12.3149 20
809 2 -6.52933 -13.5899 -4.32231 13
810 2 7.38147 -8.80435 -2.97402 16
811 2 3.20642 2.37484 14.7709 11
812 2 6.56259 15.8582 8.25453 7
813 2 13.6595 -2.84653 -8.84233 13
814 2 5.85341 3.14363 12.738 14
815 2 9.61479 11.5798 -5.99318 15
816 2 -9.88279 -1.02589 8.99372 11
817 2 10.4089 -0.244068 1.53027 20
818 2 4.82442 17.0817 2.90387 11
819 2 6.36604 7.33527 6.12277 19
820 2 -5.34619 0.920699 -17.1834 12
821 2 7.95968 -5.54477 11.2737 10
822 2 -8.15968 16.0553 1.59589 8
823 2 0.577415 -7.49853 7.78061 23
824 2 10.8561 -8.76217 3.71146 12
825 2 -9.38288 -12.5731 -2.27423 11
826 2 -8.34766 13.006 -7.70457 9
827 2 -4.27111 -8.40558 -13.0501 14
828 2 -2.00008 -12.5831 -6.92906 16
829 2 0.197279 1.31827 -10.2488 20
830 2 -4.13478 -7.90146 -10.4215 20
831 2 7.62884 13.104 7.73783 14
832 2 -11.1256 -4.37426 -2.71779 17
833 2 -9.00597 4.49631 0.823694 18
834 2 8.8509 -3.10152 1.83836 17
835 2 -10.7026 8.23189 4.35787 14
836 2 -0.985402 -13.4388 -0.57992 14
837 2 -3.68248 4.62762 14.598 12
838 2 5.41244 4.20776 -8.95436 20
839 2 -3.62767 -0.620987 -9.78599 18
840 2 7.42798 6.46984 -9.86589 22
841 2 18.269 0.988744 0.330036 15
842 2 -4.79553 -4.57572 -9.94935 19
843 2 -13.0802 10.908 -1.03478 11
844 2 -7.6117 11.4899 -2.54992 18
845 2 -3.36947 -0.948614 10.083 20
846 2 -10.9168 -2.47249 -9.54588 12
847 2 3.47541 -4.39337 -9.01211 20
848 2 5.8433 -1.57956 -8.38171 21
849 2 7.18913 11.1761 2.96938 21
850 2 3.69252 -8.24699 8.41916 20
851 2 2.73115 -0.708023 -9.91896 20
852 2 11.1644 -0.186909 11.863 13
853 2 9.78148 2.0633 -11.1554 16
854 2 -0.536178 -6.76222 -5.46572 19
855 2 2.78206 10.8731 -9.73425 16
856 2 5.70154 13.0724 9.93596 12
857 2 12.7545 4.23774 3.34288 22
858 2 -11.983 -1.2353 4.75563 18
859 2 -14.2754 4.38504 2.78749 13
860 2 0.317427 -9.93248 5.85402 23
861 2 -0.573564 3.89024 -8.33841 17
862 2 -2.90681 -6.41163 3.39629 17
863 2 -5.53421 6.71958 4.04573 19
864 2 -8.41417 -3.64492 8.54613 16
865 2 3.04409 -8.86503 5.50098 22
866 2 -10.0948 11.05 -3.21623 18
867 2 6.94935 -6.48975 -13.4963 10
868 2 -14.8711 -2.61314 3.47043 11
869 2 9.10814 -4.4661 13.8685 10
870 2 -7.61179 -10.272 -1.30913 20
871 2 -7.38656 -6.81566 3.57733 19
872 2 10.4607 -3.32464 6.88734 13