ITEM: TIMESTEP
19000
ITEM: NUMBER OF ATOMS
1500
ITEM: BOX BOUNDS pp pp pp
-30.0 30.0
-30.0 30.0
-30.0 30.0
ITEM: ATOMS id type x y z Coordination
1 1 -7.66803 -9.79545 -2.97868 17
2 1 9.4775 -12.2179 8.58497 15
3 1 -14.0519 9.30745 3.3283 12
4 1 -5.75578 3.16714 -6.04914 16
5 1 2.84903 -8.09955 16.9211 11
6 1 -10.1491 -1.96506 -4.14901 19
7 1 -3.4771 -9.2931 1.14085 23
8 1 -10.4151 -11.5632 8.73691 7
9 1 0.473519 -0.143051 17.9133 21
10 1 -8.16937 2.8933 13.1217 20
11 1 2.21152 10.4312 -9.00024 15
12 1 1.68871 0.551539 14.9375 23
13 1 12.984 6.00991 11.1858 13
14 1 -3.52274 14.003 -5.83381 12
15 1 7.25576 2.02914 -11.6303 13
16 1 -1.71514 -7.03672 -6.10711 22
17 1 6.69785 -14.2909 6.43727 11
18 1 7.09526 -9.49029 3.84713 22
19 1 -5.04079 -13.7197 -2.73116 10
20 1 4.79547 -5.28107 -13.6341 12
21 1 -2.09874 4.5142 15.7394 19
22 1 3.17922 -8.47185 10.0479 17
23 1 6.62771 -4.43893 13.3875 19
24 1 -10.5646 -4.88253 4.65365 22
25 1 -10.5808 0.0754033 -1.45335 20
26 1 -0.256398 12.603 2.37356 17
27 1 1.66898 -0.493217 -7.9342 22
28 1 2.83655 -6.28438 -10.7448 17
29 1 -0.0468411 -2.99642 19.0208 9
30 1 -16.4502 3.79326 6.86753 13
31 1 1.1125 8.90904 10.6309 20
32 1 -10.9896 10.7811 -0.552496 19
33 1 -10.1819 13.3013 4.78699 8
34 1 -0.662404 -6.47411 8.81012 18
35 1 6.23144 -11.6126 -4.30814 17
36 1 -10.0656 6.29098 14.9459 11
37 1 -17.9181 -2.46103 -3.65072 8
38 1 6.77878 -1.68225 7.79622 15
39 1 -8.71853 8.44641 -2.5454 20
40 1 -5.94216 -11.0875 12.8006 12
41 1 -9.06829 6.19036 -0.623393 19
42 1 3.36297 4.79869 11.9386 19
43 1 6.30646 -14.4856 1.34043 13
44 1 5.2799 5.62062 14.5393 19
45 1 12.6867 -4.36611 -6.93684 10
46 1 9.45925 -10.4254 11.9091 11
47 1 3.12219 -0.901526 18.3282 16
48 1 -1.79884 -14.295 9.05804 10
49 1 -13.3467 0.644219 3.28379 19
50 1 14.2249 1.732 12.4644 9
51 1 8.82752 -3.33281 -1.78085 20
52 1 -7.1132 6.14127 16.4342 11
53 1 5.49806 -1.64349 13.2217 21
54 1 -3.66092 -6.38086 -7.7284 20
55 1 -7.35254 10.5101 -0.633257 22
56 1 0.165635 9.93465 -3.76451 15
57 1 6.58249 -3.89996 -8.44982 21
58 1 9.66521 -10.2377 2.24041 15
59 1 8.09936 -5.70776 7.93837 19
60 1 -6.58654 13.0761 1.45932 14
61 1 -10.6695 10.2106 3.04603 18
62 1 -6.9053 7.29478 7.41124 17
63 1 -6.7491 -4.12281 14.956 17
64 1 9.08038 -6.48583 -2.51182 15
65 1 -11.9944 7.2197 5.17836 19
66 1 12.309 -5.35565 2.5679 17
67 1 7.8594 -1.43517 -10.2996 20
68 1 -6.12339 -2.66799 -13.7704 8
69 1 -6.11049 12.2179 4.39753 17
70 1 -9.38299 10.9675 -3.68985 13
71 1 3.89389 12.103 -4.02496 11
72 1 0.307785 9.77789 4.44678 14
73 1 -5.99557 -8.18411 14.2031 13
74 1 -2.75547 -8.50262 -9.37376 19
75 1 2.03371 -3.71897 -8.90328 23
76 1 -3.66124 -0.470153 14.6888 18
77 1 -13.4512 -3.15022 2.19812 17
78 1 -7.29048 -12.3368 3.20622 12
79 1 10.0181 -7.08775 5.71241 17
80 1 -5.94282 8.87406 4.40919 18
81 1 6.503 -2.26811 -13.0389 12
82 1 6.8675 10.1771 -6.85315 10
83 1 12.8311 -7.65585 4.78514 12
84 1 -0.670482 -9.43482 6.00085 16
85 1 -11.0213 -9.33083 1.14259 14
86 1 -11.3107 -1.37818 3.72204 21
87 1 9.22614 9.33592 12.0514 13
88 1 -0.887279 8.09527 13.5092 14
89 1 -1.30188 11.6899 -1.0127 18
90 1 -0.479276 -5.55742 -9.52367 19
91 1 7.68362 -1.11685 14.8004 17
92 1 -1.92651 8.69415 -6.64112 20
93 1 11.7214 3.01678 -5.42084 19
94 1 -9.33806 9.20406 0.538447 19
95 1 -7.22048 13.4195 6.80261 10
96 1 14.5925 2.61458 -7.31877 13
97 1 11.2794 -9.95717 7.40415 13
98 1 -7.90438 4.23321 2.66006 16
99 1 11.0247 12.6652 3.22828 11
100 1 11.101 9.81076 4.10727 19
101 1 -4.18444 9.96483 -2.4532 20
102 1 -3.66003 -5.60563 -14.9182 8
103 1 3.90338 13.9964 8.78675 9
104 1 -17.4987 -0.390324 -0.961763 12
105 1 16.2923 2.98837 3.57767 15
106 1 -8.59756 9.50842 9.38998 12
107 1 1.06106 14.8837 -2.24205 7
108 1 4.22119 -5.1207 15.2706 16
109 1 -12.7763 -7.17035 -1.54144 15
110 1 2.6956 -10.272 7.83302 14
111 1 4.35093 -7.64404 -5.60392 18
112 1 1.63233 14.3487 -5.01746 10
113 1 8.49775 7.30136 -2.57879 22
114 1 1.46223 -6.31214 12.1833 16
115 1 -9.90897 3.56242 4.48792 18
116 1 0.157056 16.4059 6.1376 9
117 1 2.80143 3.337 14.5681 21
118 1 -1.6933 15.6722 3.80168 12
119 1 -5.02188 7.56019 -4.7972 21
120 1 12.9561 -8.96295 1.6287 10
121 1 -9.11295 -4.49114 10.522 21
122 1 -12.5948 -5.04307 5.81552 18
123 1 2.04122 -14.0027 9.36144 10
124 1 -13.0839 5.15563 -1.27588 10
125 1 3.18691 -16.219 2.88279 9
126 1 5.53169 -8.08658 1.81469 18
127 1 -4.37582 11.7154 6.62567 18
128 1 -13.112 -1.13763 -2.20101 17
129 1 -1.49647 14.5982 -3.66833 11
130 1 -7.73331 -7.29469 -7.80105 16
131 1 -6.00542 1.54658 13.8726 15
132 1 1.84619 -7.85115 6.98349 17
133 1 7.92065 -12.39 11.2006 14
134 1 14.2597 4.10432 7.09204 15
135 1 4.88686 4.99293 -3.86282 18
136 1 4.78331 1.43017 19.9609 8
137 1 1.9955 4.17232 -9.18943 17
138 1 6.69435 1.62737 -8.70937 22
139 1 -10.8328 -6.99768 -6.8971 11
140 1 3.31143 12.7518 -7.16492 11
141 1 -8.64618 13.6994 -1.8444 13
142 1 11.7127 -1.779 9.88828 15
143 1 -2.31977 -5.79336 -11.0969 15
144 1 -0.164568 12.0766 -6.07252 17
145 1 2.80866 6.90011 -10.0763 13
146 1 -0.654121 7.5924 8.41832 17
147 1 -9.9125 7.41344 11.5965 13
148 1 3.67173 -11.4654 -6.58771 15
149 1 -1.07229 -11.6564 2.71123 20
150 1 4.25994 -14.0525 3.89271 17
151 1 9.76994 8.83235 0.0279555 21
152 1 1.26654 12.4739 -0.133545 15
153 1 -9.62331 0.389356 5.43113 22
154 1 5.67927 5.98512 10.1109 21
155 1 11.6274 8.66332 -2.31312 17
156 1 -3.45409 8.23388 7.26703 23
157 1 -14.1108 -2.07988 8.28104 14
158 1 -10.54 -9.28843 -1.89488 13
159 1 9.30523 4.02462 -11.4265 7
160 1 7.35999 -3.55639 10.4485 15
161 1 9.91472 7.11748 -6.49687 11
162 1 0.686532 -9.97435 -2.48555 21
163 1 -2.39061 2.87043 -7.15841 19
164 1 10.4437 -2.04729 -5.55794 17
165 1 -9.55435 -7.42973 9.3469 14
166 1 3.79357 -14.9279 0.550612 14
167 1 -6.83865 -10.7361 -6.4622 14
168 1 8.16733 14.0897 1.40604 11
169 1 -0.467582 -2.35491 -9.62661 18
170 1 3.55433 2.0435 17.227 19
171 1 18.2984 1.02496 1.69646 12
172 1 11.1398 -10.3683 -4.74521 9
173 1 -3.08504 -8.20277 -12.7203 11
174 1 -9.35607 -4.48848 -7.98927 16
175 1 7.56002 -3.54278 15.7407 12
176 1 10.995 -4.42524 7.47699 18
177 1 -1.87743 -11.647 -9.6814 13
178 1 2.84577 -5.56356 9.29055 22
179 1 0.535271 8.10602 -9.0415 16
180 1 7.06564 6.08565 0.503064 22
181 1 -6.40844 -5.85168 9.09286 23
182 1 1.29269 13.0541 6.02224 21
183 1 -2.26881 -3.33275 16.9328 16
184 1 -6.85406 -7.33532 -3.50961 19
185 1 -6.63627 1.52537 -3.00626 19
186 1 -4.86367 -11.2063 -0.84882 19
187 1 -8.35496 -9.92382 10.8569 13
188 1 12.1012 4.14117 5.33687 17
189 1 -4.73678 -5.98996 16.7724 11
190 1 -2.56744 -13.3722 -0.510395 16
191 1 -1.2499 -7.3491 1.83026 18
192 1 -1.82856 12.4392 4.76126 20
193 1 4.23293 -2.22976 -14.7707 11
194 1 -5.51354 -5.62968 -12.1097 15
195 1 2.44844 -11.1056 2.51927 15
196 1 -1.71142 -12.8021 -6.67542 11
197 1 -7.63492 6.02483 -4.29054 20
198 1 10.3251 2.94062 8.18218 18
199 1 -11.1345 -2.20052 -10.3087 7
200 1 1.75765 8.88062 -6.07507 17
201 1 -8.03984 -0.761839 10.5442 20
202 1 -5.30958 15.0659 4.32819 11
203 1 2.64916 8.62924 8.15518 17
204 1 8.13678 0.700099 8.73577 18
205 1 -8.83069 1.99527 8.35243 19
206 1 -2.4014 -6.32247 14.7497 19
207 1 -10.3697 4.76886 7.1929 16
208 1 -1.17708 -3.47151 -13.4981 16
209 1 0.258834 -12.1537 -0.408048 19
210 1 6.37184 3.9394 12.1071 18
211 1 -14.5117 -4.6595 10.4507 12
212 1 15.2937 -3.93397 2.0162 12
213 1 9.99799 -9.54666 -8.09395 13
214 1 5.87512 -14.681 -1.99747 11
215 1 -5.94505 7.84706 -1.63459 21
216 1 11.6009 5.13173 15.3924 9
217 1 -8.63141 -2.75236 4.36396 23
218 1 7.65139 -12.1524 3.76076 15
219 1 -2.99112 9.59359 4.09794 16
220 1 -3.32979 8.01337 11.622 11
221 1 1.99994 -9.43125 13.3987 12
222 1 18.5977 0.421127 4.7237 9
223 1 -3.56461 7.11308 15.6042 10
224 1 -8.09187 -4.52201 -2.16853 16
225 1 1.78224 2.00019 19.8498 11
226 1 -3.46076 14.8074 6.16347 13
227 1 -4.84717 2.16921 16.3821 20
228 1 -8.34993 4.79727 9.89437 18
229 1 -5.30196 -4.75873 -5.19188 20
230 1 -6.31269 11.8393 -3.07471 17
231 1 9.93458 -1.17272 6.30832 18
232 1 -4.38689 -13.8776 4.7687 12
233 1 7.78752 -9.1765 13.3539 13
234 1 -12.6673 10.6288 6.08276 10
235 1 0.266749 -3.68431 14.1589 21
236 1 1.25388 -8.7021 -5.0752 18
237 1 -13.6878 -2.23703 -5.53521 17
238 1 7.41978 -4.79696 -11.0757 15
239 1 6.06719 8.74049 10.4903 17
240 1 -12.7482 -0.494634 0.831826 15
241 1 -3.16617 1.49764 -10.1504 18
242 1 1.08414 -12.5927 -8.70496 13
243 1 -15.0259 1.70785 -0.717489 15
244 1 -3.96715 -11.3479 4.06077 19
245 1 18.021 3.36328 -0.300006 13
246 1 -9.52319 0.570993 -6.02779 16
247 1 -16.4183 -1.54134 -6.52948 8
248 1 -6.10899 2.92035 10.4546 17
249 1 -12.9973 11.8732 1.21062 10
250 1 -10.3073 4.83634 11.7873 17
251 1 12.9543 0.430072 -0.0190034 25
252 1 17.5147 -1.43641 -3.78446 7
253 1 -3.4535 -7.24019 -3.31961 21
254 1 -2.20306 10.1013 10.1611 13
255 1 -11.9995 -0.112313 -4.72912 16
256 1 10.4604 -7.21153 0.292235 20
257 1 12.5084 0.903027 7.91258 18
258 1 -15.4812 -3.63532 -1.19901 14
259 1 -9.33709 -1.89808 0.559069 18
260 1 2.92904 6.20728 5.80853 17
261 1 -10.3458 -6.74239 -3.88128 18
262 1 -11.5807 7.51239 -0.606659 15
263 1 -3.29633 13.6635 -1.50594 15
264 1 7.40337 12.3801 8.0607 12
265 1 -16.2914 -2.5284 2.13963 11
266 1 -3.52039 -9.87427 -7.26053 21
267 1 -11.5194 0.951832 11.9898 13
268 1 -18.8791 5.16759 2.93483 6
269 1 13.2384 -8.51863 10.0137 6
270 1 -5.68908 -8.15172 4.00077 20
271 1 5.18758 4.11577 -10.4025 15
272 1 -12.2836 2.26631 -2.92316 17
273 1 -4.69652 -6.28978 6.30322 17
274 1 16.0392 4.67995 10.0596 11
275 1 -2.80524 -3.90908 7.12299 20
276 1 -15.8193 0.398123 5.02756 15
277 1 -5.98319 0.58839 7.35089 18
278 1 -0.916611 -9.82452 8.57807 14
279 1 7.15162 -5.80885 -5.7701 19
280 1 -12.2493 -4.83963 11.9238 13
281 1 1.19399 -3.41359 10.4396 22
282 1 3.719 -13.4589 -3.8952 14
283 1 1.52911 -3.60616 -12.1545 20
284 1 -3.52043 -4.96912 9.91728 20
285 1 0.380147 -6.15237 -3.5719 18
286 1 -1.39125 2.91224 -12.0472 14
287 1 5.76925 -11.2273 8.38986 23
288 1 4.25496 10.6458 1.24442 20
289 1 -0.498823 -1.39114 14.9002 20
290 1 -5.35738 -8.2056 10.7008 18
291 1 10.1789 -3.91831 13.6326 12
292 1 3.96985 1.62662 -6.54622 21
293 1 6.95363 -1.59984 0.564303 20
294 1 15.8045 7.99784 -6.36699 8
295 1 -0.736082 2.47139 12.9815 21
296 1 5.35494 9.91866 4.14307 20
297 1 6.50323 -6.72909 5.25127 15
298 1 0.861312 -15.1147 0.360384 14
299 1 -1.55166 13.8907 7.84083 11
300 1 -1.53761 -10.3765 -4.88931 19
301 1 13.3808 6.18649 8.07441 13
302 1 -9.21675 1.66266 10.7487 21
303 1 -8.8791 -7.26159 0.0534383 20
304 1 -11.6835 2.87488 9.58558 21
305 1 -8.45613 -12.6953 -3.50651 9
306 1 -11.5257 8.73721 8.76227 13
307 1 -4.51962 -10.3854 -3.6631 19
308 1 2.06484 -4.37007 -14.7975 11
309 1 -7.55409 -9.70686 4.80895 14
310 1 -8.43435 -2.24013 8.16418 23
311 1 12.3526 -6.27465 12.5498 9
312 1 -8.4172 -3.85249 17.2249 7
313 1 -7.59549 9.02327 -5.75028 10
314 1 7.90922 1.98324 0.38563 21
315 1 -5.39083 -12.2664 1.6518 12
316 1 5.35422 15.1177 3.29863 10
317 1 1.58839 6.58941 -3.04693 21
318 1 -0.138557 7.02959 16.3707 12
319 1 -14.5306 -2.63271 5.18984 18
320 1 4.1883 8.95013 -4.3692 18
321 1 -8.16573 -4.35871 -5.09527 20
322 1 -2.1014 -12.5602 -3.02674 18
323 1 -3.58426 -2.92866 -11.4784 16
324 1 -11.5834 2.34203 6.83825 20
325 1 0.147275 4.62084 14.1887 23
326 1 8.08955 4.47668 -2.06825 23
327 1 5.58995 6.25401 4.03565 15
328 1 -2.71725 11.4723 -8.17245 14
329 1 2.26603 4.62316 -5.68229 15
330 1 5.11839 -4.72946 6.81502 19
331 1 -14.6851 -5.91849 3.89334 15
332 1 -8.50819 3.37009 -7.77541 13
333 1 8.61831 4.15755 1.79426 19
334 1 9.68986 -7.20244 2.70447 22
335 1 13.1829 1.51803 -2.6186 19
336 1 0.3065 1.65431 -9.64066 21
337 1 -2.63307 -8.35021 4.40764 19
338 1 0.887984 -14.8743 7.03806 10
339 1 0.744239 -7.92223 15.5641 11
340 1 -10.1162 5.10354 -3.24388 17
341 1 0.569334 -6.76296 -12.3978 16
342 1 3.85202 1.63412 -9.64506 20
343 1 -1.41813 1.89545 16.1826 20
344 1 -12.6225 -7.92214 11.2736 8
345 1 13.286 -6.43357 -4.1715 11
346 1 17.0324 7.01574 -1.36671 10
347 1 -8.88551 2.97916 -0.348798 18
348 1 1.08747 -6.56995 -6.75351 17
349 1 5.09475 5.18619 -7.63386 20
350 1 16.3622 0.956148 -1.60518 17
351 1 -5.77948 -1.39437 16.3128 16
352 1 2.65312 10.3885 4.87785 17
353 1 -5.09689 3.41324 -12.3183 10
354 1 -7.81747 -6.79413 11.9709 16
355 1 1.84136 15.5043 4.17948 11
356 1 -7.42548 -6.0524 -10.2554 15
357 1 -14.3433 1.83124 8.44032 17
358 1 -2.97978 -10.7531 11.0145 15
359 1 0.507637 13.2432 -8.71765 10
360 1 15.2698 2.90579 0.729866 21
361 1 -10.3832 -7.88479 6.30735 14
362 1 0.241807 -9.41865 1.0654 21
363 1 -13.3613 5.53238 8.43229 15
364 1 2.92547 -1.84505 -5.99432 17
365 1 9.13744 -4.3132 1.16118 17
366 1 4.25084 9.03001 -8.11384 16
367 1 7.43613 -14.9782 9.20956 7
368 1 -11.5967 -0.194066 9.1038 22
369 1 10.8763 7.30967 13.7965 11
370 1 1.31871 2.08036 -12.6485 13
371 1 -12.108 -8.48571 -4.86752 10
372 1 2.63883 -1.02893 12.3784 20
373 1 8.16105 6.71216 12.1642 19
374 1 6.73391 2.92699 -5.29922 19
375 1 -2.88474 11.2385 -4.95452 21
376 1 5.81569 12.6014 -0.673292 12
377 1 9.59615 -6.56341 12.5348 17
378 1 10.6613 2.44953 -0.643713 21
379 1 -11.6592 -6.4279 2.22447 21
380 1 -1.69618 0.837382 10.4788 18
381 1 2.50188 9.81653 -1.73948 16
382 1 3.10816 -12.5204 -1.164 19
383 1 5.58247 -3.13948 -5.64649 20
384 1 -6.17791 14.8042 -3.9841 10
385 1 -5.54051 -8.66522 -10.6097 15
386 1 4.79412 -14.0509 10.2876 11
387 1 -11.2997 -2.63569 6.33038 22
388 1 -8.36335 -6.76951 15.5679 10
389 1 3.85689 7.91012 2.18627 15
390 1 10.1735 -6.26105 -5.85677 16
391 1 1.48647 -5.40804 17.431 14
392 1 9.08295 1.85524 -3.01117 19
393 1 -11.814 12.698 -2.22938 8
394 1 9.21526 -10.1262 -2.09566 15
395 1 2.80568 5.72156 16.9344 13
396 1 -3.58339 6.31703 -7.10413 18
397 1 7.62645 8.18088 14.5241 12
398 1 9.59361 1.14291 -6.01058 22
399 1 1.94376 -0.894781 -10.9055 21
400 1 3.4311 -10.2613 -0.489041 20
401 1 -6.96765 -0.495892 -7.68534 15
402 1 16.1503 3.92959 -2.16298 21
403 1 17.221 4.44679 -6.42443 8
404 1 8.80778 -13.0129 -3.3877 11
405 1 6.65291 -8.23204 -3.14769 20
406 1 4.43837 11.8873 6.809 19
407 1 -12.4002 4.21028 3.0087 18
408 1 17.8012 5.87258 -4.42928 11
409 1 16.0351 1.68278 8.44861 15
410 1 11.8468 0.206008 -7.49207 15
411 1 6.05642 2.66688 16.5761 14
412 1 3.63269 -3.98779 12.0427 18
413 1 5.1597 1.85515 13.9354 21
414 1 11.786 -8.13584 -2.15853 12
415 1 11.0851 3.77724 13.0383 18
416 1 -13.1466 -3.9514 -2.88641 14
417 1 15.6562 5.5616 1.10424 16
418 1 12.351 -2.51821 -0.429282 17
419 1 5.62701 -3.14829 17.3979 11
420 1 1.53201 9.47825 14.1919 11
421 1 4.85613 2.76399 9.22552 19
422 1 -6.35881 10.0389 1.83982 17
423 1 9.08889 11.2987 -0.808373 14
424 1 10.0236 -3.48493 -9.1171 15
425 1 7.57626 11.1778 1.69406 18
426 1 0.831073 -12.2472 -4.94724 18
427 1 -13.5226 6.42014 1.95921 15
428 1 -5.85253 5.99784 -9.7083 10
429 1 -2.12065 -11.9786 6.02576 18
430 1 -6.41841 -3.57178 -7.68817 20
431 1 -13.841 -2.53692 -8.71346 5
432 1 15.8494 -1.20426 6.24576 13
433 1 12.7628 9.61039 6.67976 13
434 1 -1.3051 -5.07457 11.9718 18
435 1 -5.40527 -8.01355 -5.84893 20
436 1 -4.1198 3.42647 12.6882 18
437 1 8.33067 4.59786 -8.24433 17
438 1 12.1835 8.26961 -5.23796 13
439 1 3.39814 -9.69218 -9.39814 13
440 1 13.5684 0.716845 3.50753 14
441 1 11.0441 11.2677 9.41548 9
442 1 16.9496 -2.43212 3.7784 12
443 1 -2.30421 5.37248 12.206 17
444 1 -8.82987 -7.48196 3.59719 20
445 1 -11.8043 -4.55478 -5.4627 16
446 1 9.3168 -1.01906 11.9156 14
447 1 -0.492225 -10.8487 12.2959 10
448 1 4.96874 0.552295 10.8572 17
449 1 -9.44196 12.4671 1.34808 16
450 1 15.445 -0.224674 1.26401 18
451 1 10.4603 5.89367 6.75479 18
452 1 -6.658 3.13862 -10.0746 11
453 1 -11.8361 -3.15077 9.37035 19
454 1 9.55286 0.635664 -9.23769 14
455 1 6.36042 -11.6653 -1.24262 21
456 1 10.7909 1.73512 11.2839 19
457 1 7.35924 3.73232 7.94486 20
458 1 12.6129 6.65092 1.78693 17
459 1 2.60809 -2.31708 15.6675 19
460 1 -7.23918 5.54918 13.6075 17
461 1 -1.34015 -0.50209 -11.7012 17
462 1 -3.05227 -0.460351 17.8008 18
463 1 8.28208 1.67796 13.7551 15
464 1 10.3699 5.74971 -0.145254 21
465 1 3.82809 -9.96849 -3.23723 20
466 1 -7.07164 5.86152 -7.10402 14
467 1 5.80455 9.4495 6.8034 18
468 1 10.3714 12.1709 6.69382 14
469 1 2.80606 14.8553 1.08572 9
470 1 14.2578 8.4208 3.30803 13
471 1 -9.19862 -11.9156 -0.0839965 11
472 1 9.98725 -2.3251 -11.9569 7
473 1 -5.72927 11.8925 -6.39571 12
474 1 11.5637 -6.59324 -9.03904 9
475 1 14.4702 6.95039 -3.55325 19
476 1 7.65998 8.32576 2.94234 19
477 1 -10.1483 6.89978 2.68336 17
478 1 5.3038 6.66726 -1.82525 17
479 1 -4.44483 -14.0367 11.2324 8
480 1 -2.03422 7.9351 -10.0199 15
481 1 5.07021 10.3931 13.5548 10
482 1 4.45635 -2.5593 9.59585 20
483 1 6.53125 10.5198 -3.137 16
484 1 8.21019 11.3301 4.90644 19
485 1 13.7713 -4.05201 5.01162 15
486 1 -9.45209 -4.93163 7.46317 23
487 1 4.06884 -13.598 7.28196 15
488 1 -2.69597 -2.9214 -6.99217 20
489 1 2.73012 5.87917 9.22375 20
490 1 -14.99 -5.04328 7.09797 11
491 1 5.6058 -11.382 1.78252 18
492 1 14.3328 8.95002 -0.247986 11
493 1 4.56105 -3.49507 -11.2255 20
494 1 6.8622 -6.43606 10.4254 18
495 1 1.33167 11.8496 8.93885 14
496 1 -1.44881 2.11932 19.1795 12
497 1 -7.97653 -9.81945 -9.39938 9
498 1 5.75541 -4.6643 -2.80159 20
499 1 -4.33034 5.93932 9.28754 14
500 1 8.613 -11.574 -6.39489 11
501 1 7.99664 -10.758 6.64177 18
502 1 0.697477 -14.3107 -2.68873 11
503 1 -5.04355 1.47297 18.9479 9
504 1 -7.08249 -9.74858 1.32297 18
505 1 -10.2004 -2.14495 11.6815 18
506 1 13.2062 -6.20895 -0.264279 13
507 1 -13.0287 6.9272 10.9233 10
508 1 -6.91166 3.82096 6.45339 16
509 1 17.1134 3.23074 6.5768 11
510 1 -0.420685 8.88714 -1.20014 21
511 1 14.3347 3.66743 -4.46296 20
512 1 11.4179 5.16821 -3.11959 21
513 1 -10.0348 -1.94933 -7.43135 18
514 1 -14.5186 -5.43616 0.930845 14
515 1 11.3346 3.43194 -8.56249 13
516 1 -0.42574 -0.664653 12.574 20
517 1 -5.48108 -2.62179 8.71793 20
518 1 3.06807 -8.66665 -12.4245 10
519 1 -6.89641 6.36301 1.11841 16
520 1 8.15503 6.90319 9.42662 19
521 1 -12.8098 -6.26219 8.7912 18
522 1 13.3044 5.73722 -6.0616 17
523 1 -1.95921 -14.7597 5.29114 11
524 1 8.90391 5.28581 -4.93578 16
525 1 -5.479 -0.191806 -11.0352 13
526 1 1.92712 2.02591 11.8178 19
527 1 0.668781 -1.3253 -14.2904 12
528 1 -11.3394 -4.81947 -0.177528 16
529 1 9.61404 -0.812055 0.291831 24
530 1 -6.33649 -4.61195 3.3682 20
531 1 18.1331 2.11454 -3.93015 11
532 1 10.5092 -7.24169 9.22342 18
533 1 -9.33919 3.63316 16.5421 10
534 1 4.74996 -10.7047 4.86291 20
535 1 17.9287 -2.21021 0.143102 10
536 1 12.7377 -1.63052 6.86602 16
537 1 -5.57678 9.54608 9.48526 14
538 1 -11.0867 2.86548 13.8903 12
539 1 5.64218 -9.84583 11.6182 15
540 1 11.6368 1.10452 5.17508 16
541 1 8.19374 4.65564 14.5485 17
542 1 -13.2543 0.00143507 6.06699 21
543 1 10.4243 -9.96171 4.74998 15
544 1 8.62138 14.3567 4.43742 10
545 1 11.9579 1.31292 14.9443 10
546 1 -0.392763 10.4255 7.61 17
547 1 0.939442 -13.5912 4.00998 16
548 1 -10.1678 1.40685 2.15577 22
549 1 0.61443 4.07494 17.3651 16
550 1 3.30149 12.6272 3.46587 17
551 1 -10.0676 -12.3517 5.27155 8
552 1 8.15301 -9.43435 9.56218 20
553 1 10.8709 -4.08922 4.72224 18
554 1 11.0877 8.39881 8.88335 17
555 1 -0.30802 -9.63975 -7.83833 19
556 1 -3.20943 4.36564 -9.98872 19
557 1 -3.2931 -3.12863 14.0516 20
558 1 -3.59836 14.0928 2.32744 16
559 1 12.6688 6.82719 5.19838 16
560 1 6.16419 8.95658 0.045528 19
561 1 -5.78255 4.82778 18.2471 8
562 1 3.32918 7.90988 12.0729 18
563 1 5.30053 -7.08363 -9.39873 16
564 1 -4.53093 -10.0585 6.6016 18
565 1 -5.85846 -1.70808 -5.01257 18
566 1 13.1758 3.19164 10.1642 18
567 1 8.14246 -1.22289 -7.37872 22
568 1 -5.08779 -4.7575 -1.85885 20
569 1 15.685 5.7211 4.31234 10
570 1 -0.888624 -6.2878 17.5654 11
571 1 0.27311 -9.78757 -10.9294 12
572 1 12.1334 10.5716 1.10363 13
573 1 -13.9337 3.15137 5.11706 18
574 1 14.0949 -3.32821 -3.79924 12
575 1 6.35134 -10.5654 -8.44056 12
576 1 -10.1892 12.0157 7.46521 10
577 1 4.261 0.667829 -12.2523 13
578 1 7.07362 -5.68237 -0.194299 16
579 1 -15.7628 -0.54464 -3.57767 14
580 1 9.67266 6.85893 3.17289 17
581 1 -13.8398 -8.38815 1.77453 11
582 1 9.07092 3.8369 10.3575 17
583 1 -9.34938 0.7907 -9.28817 12
584 1 -15.4611 4.3362 10.0681 7
585 1 -1.88446 7.4929 -4.29586 19
586 1 4.08523 -5.21777 -7.45986 19
587 1 -5.1816 -11.3787 -9.75932 13
588 1 15.3733 -1.8149 -1.66949 14
589 1 -15.4651 6.05404 4.29585 15
590 1 -5.28525 -8.54011 -1.05676 19
591 1 -4.79098 -13.1326 8.01284 14
592 1 14.9327 -0.336792 9.62982 11
593 1 9.44895 -1.82362 3.32062 17
594 1 -12.1024 2.63003 0.0647979 19
595 1 4.06422 11.3445 10.0397 13
596 1 5.47815 7.63185 -5.49838 15
597 1 -6.69179 10.0634 7.06069 18
598 1 9.4533 10.0891 -4.17147 11
599 1 4.34209 8.16559 15.1362 12
600 1 4.28452 -6.66005 12.3941 19
601 1 6.33841 7.00185 -9.4089 11
602 1 -7.38188 -12.6021 10.7207 10
603 1 -1.31987 0.0735568 -8.41075 18
604 1 -17.2186 0.669716 1.84596 12
605 1 2.90177 -11.6353 11.4374 11
606 1 7.59932 -4.41179 4.94629 15
607 1 -3.31193 -16.2026 -1.13002 6
608 1 -16.9349 7.56804 1.6764 7
609 1 10.4956 -0.651548 -2.85998 22
610 1 -4.42762 7.54061 1.31748 18
611 1 -9.86637 -4.34173 14.1373 14
612 1 -8.72847 -9.18065 -5.14301 20
613 1 -1.82626 -8.94285 -1.23598 20
614 1 3.86247 -7.98653 4.40955 18
615 1 -0.0555027 10.7124 -11.0214 8
616 1 13.407 0.0990086 -4.93297 15
617 1 8.97369 3.23886 5.73732 18
618 1 12.4974 -1.73304 2.34485 20
619 1 -0.0205936 5.78435 -11.2832 14
620 1 -2.2541 -7.89462 11.2286 21
621 1 9.06151 8.46664 5.99053 21
622 1 7.84598 -1.41308 -4.2235 16
623 1 -18.5772 2.24112 5.18627 8
624 1 -3.1116 -9.11314 14.0574 14
625 1 6.47579 6.50634 6.77961 16
626 1 -1.85357 -14.8833 2.09689 13
627 1 1.43438 9.2204 1.4406 22
628 1 -5.12258 4.57375 14.9714 18
629 1 -6.31023 -3.24961 11.7217 15
630 1 10.3234 0.79822 2.52319 20
631 1 -4.91088 -5.92069 12.8712 24
632 1 5.45372 -8.0108 7.61912 22
633 1 5.19436 -0.0393555 16.3294 19
634 1 10.9646 -4.0543 -3.52413 18
635 1 -6.85619 -3.02001 -10.4995 14
636 1 -5.28647 8.97542 -7.98088 15
637 1 -8.96789 8.03843 5.19759 11
638 1 8.47798 9.73591 8.92045 17
639 1 0.484566 6.53308 11.4179 16
640 1 -12.1565 -11.8099 2.56273 7
641 1 -3.76278 11.5787 0.42597 16
642 1 14.8168 5.931 13.367 6
643 1 -3.56105 -8.18137 8.89496 18
644 1 8.37439 -7.37868 -8.41277 16
645 1 7.70173 -9.29249 0.421949 22
646 1 5.07955 -1.29034 -8.86821 24
647 1 -11.187 3.18633 -6.17898 10
648 1 -7.22071 -7.76091 6.84225 20
649 1 -15.7497 2.99341 2.46471 17
650 1 -8.89448 -0.0612924 14.2606 14
651 1 6.34397 -6.70732 15.6002 11
652 1 -7.52059 -11.1386 8.01633 13
653 1 11.9608 3.10161 1.82822 20
654 1 -0.415777 5.63969 -8.1418 17
655 1 13.5916 3.99293 -1.40088 23
656 2 -11.1773 -0.586664 -3.06837 20
657 2 -6.58897 10.1086 -7.0817 11
658 2 0.261893 -0.277076 -9.68619 20
659 2 -5.26991 6.11865 16.2756 15
660 2 -0.852629 -12.6205 -8.41458 13
661 2 1.66765 4.69341 15.7133 19
662 2 -12.0394 -4.63523 7.86195 25
663 2 -10.6392 9.11742 -1.3403 18
664 2 3.60263 14.8199 3.81555 12
665 2 -13.4133 1.89171 6.85947 22
666 2 9.38806 4.39427 7.25792 20
667 2 -10.7232 -8.78817 -6.1471 11
668 2 -8.7459 1.59509 0.912289 19
669 2 -0.715912 -8.37796 4.65639 18
670 2 3.4404 1.73612 10.4046 20
671 2 3.51794 -3.08892 -7.32518 23
672 2 0.143965 -14.5433 9.16337 8
673 2 -5.6829 11.8779 0.176326 17
674 2 -13.5485 3.41898 -1.14862 12
675 2 11.4816 2.0824 9.4706 19
676 2 4.35014 -13.5749 -2.011 18
677 2 -4.00346 -12.4566 6.22226 15
678 2 -8.3011 -8.13585 10.6762 14
679 2 -3.60775 -14.2563 9.54046 9
680 2 10.4638 -6.33025 7.44406 17
681 2 1.45544 -13.7563 -0.703244 14
682 2 5.68061 1.72697 18.1401 13
683 2 0.475279 15.3236 -3.99288 9
684 2 -13.7626 -6.62821 2.48545 13
685 2 -3.00399 0.740897 16.1363 21
686 2 -9.81155 6.68116 6.25371 15
687 2 -3.7544 3.63223 15.8053 17
688 2 -4.78294 11.1648 -3.68915 19
689 2 5.73529 -8.6882 5.34777 21
690 2 -8.1282 6.59055 14.9745 11
691 2 -7.84407 14.5089 -3.1355 8
692 2 6.64097 -6.47081 -2.17631 16
693 2 -1.1681 -3.9294 -10.1865 21
694 2 9.13425 -4.81489 -0.680861 17
695 2 -6.43616 3.73703 13.7703 18
696 2 5.2483 2.36033 -11.1528 14
697 2 0.954423 6.02601 -9.44848 16
698 2 11.8125 10.933 2.95464 11
699 2 -3.15908 -5.13773 16.3649 15
700 2 -16.6255 1.90166 6.30623 13
701 2 7.01439 -1.75537 -6.05376 19
702 2 0.0338801 -8.34784 -6.40563 17
703 2 -11.3619 -6.29639 5.72849 16
704 2 9.28257 11.7177 8.65899 13
705 2 -4.53828 3.95778 9.99146 16
706 2 -1.78131 -10.7023 -7.06255 18
707 2 -0.267427 12.7208 7.57361 13
708 2 10.4841 -6.19269 10.8512 19
709 2 6.86984 -12.4216 5.66128 19
710 2 -15.0939 7.88774 2.45028 10
711 2 14.2887 -2.65592 6.29155 13
712 2 7.24053 -13.1892 -2.33853 13
713 2 9.08565 7.79805 7.97592 20
714 2 5.05593 -14.4639 5.53442 13
715 2 11.817 -0.147528 3.2069 18
716 2 -5.39723 -0.530263 18.0107 12
717 2 13.5349 -2.78346 -1.94009 17
718 2 1.46355 3.62041 12.7398 16
719 2 9.8218 5.47304 14.6211 13
720 2 -10.3104 4.25362 14.9196 12
721 2 6.47963 5.39347 5.3974 16
722 2 18.8408 -0.73436 1.27352 10
723 2 4.68164 7.36826 -9.8284 11
724 2 -11.5438 -3.19654 -3.98125 18
725 2 -10.8939 2.93241 11.7699 18
726 2 10.0221 2.34808 -4.6408 21
727 2 -12.246 1.42103 1.49135 20
728 2 -13.1261 -6.0284 10.8592 11
729 2 -11.4703 -12.0935 4.22393 6
730 2 15.8745 4.26315 5.59052 13
731 2 -1.81629 -5.07173 8.30525 19
732 2 -1.74411 -3.87496 10.5656 18
733 2 6.091 -4.252 -12.4731 14
734 2 11.5762 6.42514 12.1893 17
735 2 -0.754228 3.10645 14.7177 20
736 2 -8.81516 0.978669 3.58186 20
737 2 3.44937 -4.9731 -9.34908 19
738 2 13.4565 1.03566 -6.81916 13
739 2 -5.94718 14.5983 6.14198 10
740 2 -4.06579 -12.4729 0.238273 18
741 2 3.27267 -6.70016 -6.59883 17
742 2 2.72039 3.94905 8.62616 17
743 2 9.37284 -8.69429 1.25463 18
744 2 4.23496 -1.61829 7.57943 20
745 2 -5.38037 -12.4786 11.5046 11
746 2 7.48505 2.48257 4.79731 18
747 2 -8.70343 -11.1694 9.28276 10
748 2 9.66782 -1.28932 -10.1853 15
749 2 -4.00515 -9.66939 4.65973 21
750 2 10.3658 -5.80596 -3.80838 15
751 2 4.32691 -11.6358 -4.62454 15
752 2 17.578 -1.13688 4.89616 11
753 2 -4.62664 9.90473 7.69328 17
754 2 16.9695 -3.09192 1.69 11
755 2 -7.37913 -10.8089 -4.78178 14
756 2 -6.29184 -5.74726 7.35991 19
757 2 -4.53986 -4.81411 0.554556 18
758 2 -9.40247 -5.02706 -0.0989852 15
759 2 0.140819 16.6 4.29134 8
760 2 -10.5835 10.6672 1.22828 16
761 2 10.3279 7.3298 -1.21258 20
762 2 2.53213 8.55886 -8.70088 14
763 2 -7.393 0.925876 14.952 15
764 2 -12.2791 -1.92607 -8.81337 10
765 2 -15.0386 4.63545 5.37399 15
766 2 -4.99885 1.86709 11.907 18
767 2 -11.7481 4.29619 8.33526 20
768 2 7.17139 11.6785 6.3941 17
769 2 12.0043 -1.10977 -4.70588 18
770 2 12.4663 -3.49537 3.47601 18
771 2 -5.20373 3.04136 18.0753 11
772 2 -3.13674 13.1926 6.69206 14
773 2 -3.86354 12.2052 -6.84748 13
774 2 -10.3194 8.60609 10.247 10
775 2 11.552 -8.83826 5.74552 13
776 2 -4.13039 -7.91048 -11.2781 16
777 2 7.41811 4.21917 -11.3016 10
778 2 14.1174 4.40846 0.757022 17
779 2 -5.80779 -7.36703 12.2237 19
780 2 0.193426 6.64809 -0.641714 19
781 2 -6.07953 13.0649 -4.9457 11
782 2 4.59751 14.1581 0.736054 14
783 2 11.4519 3.28024 14.9455 11
784 2 -2.99879 6.21236 10.5489 18
785 2 9.9427 -8.225 -1.51637 16
786 2 -3.0921 1.1144 19.0951 12
787 2 2.97728 -4.03061 10.1218 21
788 2 -19.0222 3.53362 3.9302 8
789 2 -3.60608 -0.0835042 -11.1387 14
790 2 1.81166 -13.6779 -4.0051 13
791 2 10.1381 -0.700129 -6.92107 19
792 2 14.6826 2.70206 -2.19761 21
793 2 -3.86599 -2.2543 15.8684 18
794 2 6.08103 -2.55104 -9.93308 19
795 2 -6.7096 -5.78768 16.2689 12
796 2 -0.544398 0.973724 -12.3787 15
797 2 1.50359 -10.9658 0.958989 18
798 2 5.7249 -14.0325 8.40808 15
799 2 10.8913 9.30987 -4.64203 12
800 2 -11.9235 2.06989 -4.7515 13
801 2 -1.63135 8.88507 11.4213 15
802 2 -8.82471 -2.55332 2.51936 17
803 2 -8.72899 6.43089 -2.62222 18
804 2 5.53845 12.1833 -2.53566 11
805 2 3.25488 10.3129 -3.45838 15
806 2 -1.77628 -14.0695 6.99852 13
807 2 16.8396 3.44889 8.68797 12
808 2 -0.526101 5.98266 12.8235 22
809 2 -6.61399 -8.10706 0.412991 19
810 2 6.85696 -7.21514 0.639127 23
811 2 -0.20239 0.344596 16.031 21
812 2 3.83037 6.83259 13.6977 18
813 2 11.1755 -3.31071 -7.10564 15
814 2 2.04118 2.78311 17.9668 20
815 2 8.40043 10.0763 -5.71769 9
816 2 -11.2019 -0.504532 10.9276 18
817 2 13.923 -4.98328 0.997394 14
818 2 2.76188 12.7743 9.41033 10
819 2 8.24933 5.55112 10.5615 17
820 2 -6.37244 -1.88726 -11.9597 11
821 2 6.16696 -4.92964 11.3316 20
822 2 -12.9309 9.01194 4.72638 12
823 2 0.916902 -9.75755 7.18574 14
824 2 13.2 -7.13335 11.414 8
825 2 -10.7716 -11.9641 1.12139 8
826 2 -10.0019 12.9354 -0.673457 16
827 2 -6.87388 -7.79652 -9.62401 15
828 2 -3.52046 -14.6353 -2.10149 10
829 2 0.298634 1.24256 -7.72772 18
830 2 -5.25627 -5.18036 -7.26363 18
831 2 6.06594 8.97556 14.3476 15
832 2 -12.5751 -9.9239 1.9295 10
833 2 -9.90848 3.11726 2.69466 17
834 2 9.10481 -3.32948 4.54786 14
835 2 -8.85303 3.76384 8.33687 20
836 2 4.59007 -14.9339 2.32482 11
837 2 -7.65041 4.58639 17.1056 12
838 2 5.68303 4.76811 -5.70507 17
839 2 -5.31536 -0.639956 -6.73133 14
840 2 7.59188 3.96081 -3.7639 18
841 2 16.2207 4.74625 2.8026 12
842 2 -6.65026 -5.70154 -1.4369 21
843 2 -17.2274 6.21235 3.26275 9
844 2 -6.3413 10.4705 3.81268 17
845 2 -7.17831 -2.81949 16.2134 13
846 2 -9.25315 -6.33214 -7.61904 17
847 2 2.32683 -2.53526 -4.22327 20
848 2 6.48426 -0.3917 -8.15372 21
849 2 6.75498 9.37659 8.73191 22
850 2 -0.617943 -2.97918 16.0012 22
851 2 1.08646 -1.9583 -6.7593 21
852 2 12.3157 2.85598 12.114 17
853 2 10.9867 1.64594 -8.21051 15
854 2 -1.39091 -6.36747 -4.22368 18
855 2 3.62528 11.183 -7.93274 12
856 2 7.08979 5.87952 13.9257 16
857 2 12.726 5.31604 6.39993 17
858 2 -14.1421 -3.34223 6.88108 18
859 2 -12.5186 -1.0586 7.59641 21
860 2 -2.24815 -11.6535 4.12397 22
861 2 -2.38444 4.51018 -8.22825 16
862 2 -4.5506 -8.02326 7.28215 16
863 2 -9.69144 2.22787 6.24373 20
864 2 -7.73566 -7.17889 14.0379 13
865 2 0.631593 -4.39028 12.0673 18
866 2 -12.5367 12.2793 -0.541135 9
867 2 8.24358 -10.2893 -8.10721 12
868 2 -14.2307 -5.87621 5.53527 13
869 2 8.89909 -0.123683 13.5131 13
870 2 -9.31242 -8.9089 -3.42219 17
871 2 -6.68888 -3.28884 4.49056 17
872 2 8.33897 -5.37107 13.8773 16
873 2 8.00083 9.40401 0.654543 21
874 2 7.0376 8.36721 5.36446 18
875 2 12.5291 4.64746 -4.6944 21