ITEM: TIMESTEP
17000
ITEM: NUMBER OF ATOMS
1500
ITEM: BOX BOUNDS pp pp pp
-30.0 30.0
-30.0 30.0
-30.0 30.0
ITEM: ATOMS id type x y z Coordination
1 1 -9.30253 -10.7614 -4.79597 14
2 1 5.55355 -14.9397 3.41154 15
3 1 -11.8229 5.17485 -3.09085 12
4 1 -11.2622 -1.38104 -4.13755 17
5 1 3.32478 -7.71853 9.178 21
6 1 -8.02913 -0.0724253 -8.65838 19
7 1 -3.09632 -2.76171 -7.38776 22
8 1 -5.75203 -13.1761 5.11626 17
9 1 -8.11076 -8.86603 8.74278 17
10 1 0.997253 0.919852 18.1382 13
11 1 6.06277 -3.55009 6.68239 21
12 1 -3.16216 2.02665 11.034 21
13 1 5.85186 -1.27702 5.02847 17
14 1 0.0576638 6.62745 -7.89592 22
15 1 -1.54803 -6.08328 13.0656 18
16 1 13.6591 5.90777 8.99413 11
17 1 0.252762 9.49918 -9.56547 18
18 1 1.9942 2.36537 -13.6263 14
19 1 -5.86985 1.28431 8.79606 19
20 1 -2.8607 0.149576 -11.8419 18
21 1 4.7494 -11.7796 8.454 15
22 1 3.47229 -2.15681 9.93351 21
23 1 4.77524 -16.7577 1.33925 11
24 1 -7.41799 -7.1388 -0.910673 18
25 1 5.08557 -5.15914 -3.64846 23
26 1 -3.34314 -6.14731 -11.4197 22
27 1 0.540789 7.98402 8.68713 20
28 1 1.97604 -12.8707 7.15603 22
29 1 4.97774 -5.17296 14.0086 12
30 1 -12.1383 -0.256956 2.81586 22
31 1 -3.19989 -3.61651 -10.2232 20
32 1 -7.8186 9.40193 -5.83334 13
33 1 2.35329 2.58483 -7.56545 23
34 1 3.37546 -6.35143 -8.66257 21
35 1 -4.2401 -3.6114 15.4953 14
36 1 -11.224 2.67929 2.99692 19
37 1 2.16429 10.1425 6.52599 21
38 1 -11.3308 4.93411 -5.70972 16
39 1 -4.53361 12.694 -1.08976 15
40 1 3.20031 -10.1231 2.33592 20
41 1 7.8085 -6.47666 -4.9473 19
42 1 -9.11097 4.92583 10.8199 19
43 1 -13.6596 -6.19644 -5.6469 9
44 1 8.63252 0.421441 6.10682 20
45 1 -8.62226 7.99279 0.753214 17
46 1 -7.62777 -4.24333 10.9939 17
47 1 -13.9872 3.01334 -5.37653 10
48 1 2.23818 5.71608 -6.19429 18
49 1 5.25833 4.04907 4.23756 20
50 1 7.07062 2.65425 8.17602 19
51 1 9.86803 -11.0234 1.77549 18
52 1 0.551039 5.27509 14.0141 18
53 1 11.9438 -3.62053 -9.3512 12
54 1 10.0456 -13.0042 -1.52563 10
55 1 -5.83794 -1.53393 4.44105 24
56 1 6.97194 -2.47247 14.1975 14
57 1 -5.53073 -10.9308 7.35478 19
58 1 -8.73876 -2.10231 2.82461 19
59 1 14.6537 2.60932 9.64264 8
60 1 7.65005 -3.17457 -0.44131 20
61 1 5.09177 10.3772 11.7864 10
62 1 6.49336 -0.862708 11.4544 20
63 1 -5.92101 -4.60486 2.97644 22
64 1 -4.13834 -14.2956 -2.89726 14
65 1 -6.92432 11.2187 -0.198268 13
66 1 -0.320972 3.95701 -8.91737 23
67 1 5.06454 -2.19626 -5.72984 19
68 1 9.23337 2.52412 -1.55677 20
69 1 11.9431 -9.43446 5.41932 13
70 1 5.12747 -8.67916 14.1633 11
71 1 -2.55744 11.4251 -7.0495 18
72 1 -4.6544 5.33602 6.25388 18
73 1 -2.75742 11.2755 0.5765 23
74 1 -3.08881 -6.82398 10.4521 22
75 1 8.45037 -9.90249 -5.8645 17
76 1 -10.9885 4.6713 6.22359 18
77 1 10.6042 -7.86948 -5.67278 15
78 1 -0.57952 -1.91881 -11.6936 20
79 1 -5.89412 -0.451532 -13.3585 18
80 1 3.1411 8.99929 3.46644 20
81 1 -10.9888 5.09059 -8.44956 9
82 1 -2.07672 11.4224 -10.2532 12
83 1 0.1025 7.31198 2.74931 20
84 1 -0.819416 -9.07745 11.2203 22
85 1 -0.47186 -5.0573 -6.96464 20
86 1 5.4945 -4.61499 -11.4322 20
87 1 4.75134 1.00221 9.99409 21
88 1 -9.72231 -8.4722 -2.65236 20
89 1 10.2152 -5.48856 3.91982 19
90 1 -4.99541 -11.0644 2.36631 21
91 1 10.9076 -14.8913 1.22301 8
92 1 -5.00346 4.4394 1.06428 21
93 1 5.16872 3.10121 -13.0456 10
94 1 4.80067 3.25804 -5.6033 20
95 1 11.1905 -9.97749 -3.39392 10
96 1 9.7461 -13.9958 3.60884 16
97 1 -14.4166 -6.88786 3.38751 12
98 1 -13.6185 -8.47611 5.75492 12
99 1 10.0529 6.68384 9.60225 17
100 1 7.08649 2.78318 0.99987 20
101 1 -4.11652 7.45809 14.7624 12
102 1 -7.72014 9.73258 -9.02576 11
103 1 -3.0974 -6.23431 -8.14898 20
104 1 7.52449 -3.9037 10.0995 20
105 1 -2.32412 8.67576 -7.74273 23
106 1 10.0416 2.50744 -5.56872 21
107 1 -9.69949 7.59735 -8.05299 11
108 1 -5.0926 13.8492 5.55881 9
109 1 10.0234 4.73479 -8.02371 16
110 1 7.97532 -5.94754 7.84094 21
111 1 -5.40592 1.33095 -7.32963 22
112 1 4.20167 13.7609 -0.559841 18
113 1 7.57851 12.7085 4.5815 16
114 1 -4.71481 7.6427 3.22767 18
115 1 -8.49813 -9.05695 -7.36585 15
116 1 0.192099 10.5766 3.86898 20
117 1 -7.99884 -3.22496 -4.14647 18
118 1 16.31 0.69301 -2.84722 10
119 1 -1.02436 9.66031 6.63124 16
120 1 -3.85626 9.99836 -2.35636 24
121 1 2.31584 -7.26285 13.5532 16
122 1 -10.6417 -7.88142 4.09664 20
123 1 -3.19877 -15.3658 4.3415 13
124 1 6.10104 -10.308 -2.65978 22
125 1 -8.69371 6.69374 -10.7812 12
126 1 2.6815 5.88103 -2.7769 17
127 1 12.9392 11.5578 4.33757 7
128 1 0.758354 -6.72221 10.7647 19
129 1 -5.67634 1.30098 -0.391987 20
130 1 4.80845 10.9447 4.21153 19
131 1 3.7853 3.48185 12.7084 18
132 1 -3.35048 8.61196 5.64908 21
133 1 -2.92767 0.133289 -8.96283 24
134 1 13.852 -7.33002 0.538491 15
135 1 -4.79972 -8.00605 8.07455 18
136 1 -13.4059 5.57583 7.00371 14
137 1 -7.93341 -9.32051 2.52433 21
138 1 -15.0578 0.0918558 3.68611 15
139 1 1.94617 -19.0906 1.48588 7
140 1 -10.3052 -5.79817 -0.539968 23
141 1 9.06631 -12.3036 -3.90941 14
142 1 2.41131 11.7635 3.19447 18
143 1 -5.90357 -4.35594 6.14819 19
144 1 -8.62366 0.316221 -5.70325 20
145 1 -8.57437 6.11671 -4.77683 18
146 1 -13.6759 -4.00461 0.521927 16
147 1 -12.8701 -3.46334 8.76842 11
148 1 0.309622 -10.5054 2.99201 21
149 1 4.30805 -14.6889 7.30746 11
150 1 15.3988 -4.09815 1.89785 14
151 1 5.2823 3.76457 -2.1908 18
152 1 2.3487 0.604367 11.6577 21
153 1 -3.04619 5.42731 -12.8287 17
154 1 7.77756 4.08064 -10.2033 16
155 1 -8.28297 -2.85646 -6.89938 18
156 1 -4.56876 9.88572 -9.18364 17
157 1 -5.25126 9.52236 -5.68756 21
158 1 8.95434 -1.33337 8.96321 21
159 1 -3.25603 -9.25716 -9.24972 19
160 1 -5.82437 7.3395 -10.8822 15
161 1 5.43128 6.64987 -10.7764 12
162 1 -7.36066 7.91269 15.6606 10
163 1 -6.91312 6.79659 12.8605 15
164 1 4.59178 -8.27663 -11.8939 14
165 1 -5.80359 -14.8343 2.65593 12
166 1 2.98996 -15.2807 0.0510515 16
167 1 5.15729 -4.56525 3.21517 23
168 1 9.06375 11.5952 0.838657 18
169 1 -2.21783 8.37674 -0.570147 21
170 1 -8.49368 0.769498 3.83014 22
171 1 -2.11361 5.45076 15.982 14
172 1 12.771 -1.72616 -0.678198 19
173 1 4.86356 5.67154 11.0792 19
174 1 -3.79426 3.94321 8.61268 21
175 1 -13.5408 -4.88957 -2.56006 15
176 1 5.23534 3.31675 -9.03739 21
177 1 3.94739 -2.35536 13.2034 17
178 1 9.95865 11.5632 -5.30792 5
179 1 3.91752 -11.7712 -3.97891 23
180 1 -0.353157 0.426023 -14.1468 18
181 1 11.238 -2.45498 -5.99099 18
182 1 -14.5924 -4.92258 5.97544 12
183 1 3.29932 -17.7157 -1.4492 10
184 1 -10.9666 -7.81533 -5.79202 14
185 1 2.15736 12.014 -1.49692 22
186 1 2.56389 -4.85865 -14.9615 11
187 1 0.523051 4.74866 17.6106 11
188 1 14.9699 -1.03265 3.6526 15
189 1 -5.57019 -9.98848 4.73323 21
190 1 9.70714 -9.24766 -11.302 11
191 1 -2.70479 -12.3116 6.55454 18
192 1 -5.04923 -2.69231 -12.0281 19
193 1 -12.0968 -0.0388182 -6.65387 13
194 1 9.84223 2.9751 6.33203 19
195 1 1.7592 -4.98909 8.93934 22
196 1 -5.27662 -8.477 -12.6568 10
197 1 1.47799 -6.88358 6.78507 20
198 1 0.0459974 6.91466 -11.5964 21
199 1 4.89746 7.36859 0.921135 17
200 1 -11.7402 -4.91323 5.95861 16
201 1 0.972147 9.66936 0.760652 19
202 1 -8.97282 -5.41536 13.4863 15
203 1 -8.10312 -6.16753 -7.98977 19
204 1 -6.40468 -10.3535 -9.94141 10
205 1 -6.52588 -9.20522 -3.79678 19
206 1 -1.08671 -14.3871 -1.34907 18
207 1 12.89 9.51885 8.96321 4
208 1 -6.48587 -10.3305 -0.377322 20
209 1 -7.67448 -8.43878 12.4124 15
210 1 -0.0499026 -17.6076 -0.0204691 12
211 1 2.88831 -7.57646 3.85571 22
212 1 0.248792 14.0903 3.08903 17
213 1 7.11586 1.58533 -12.103 13
214 1 -4.88793 -6.11265 -14.2687 11
215 1 -0.482166 -14.28 4.54061 16
216 1 -0.448656 -10.9167 -6.13047 20
217 1 -11.3408 1.95604 -4.14876 20
218 1 10.0366 4.26863 12.2158 15
219 1 -7.29328 1.86057 -15.0853 9
220 1 -2.85196 8.57814 -11.6706 14
221 1 -5.72069 -1.27181 7.83738 17
222 1 -3.60214 12.4797 -4.65733 17
223 1 8.11345 5.60715 6.69042 18
224 1 11.1859 -1.52206 4.68126 15
225 1 -8.82816 2.36855 9.32071 22
226 1 -2.59772 -11.9424 11.6459 13
227 1 -8.42124 4.72092 5.03605 17
228 1 1.33791 -7.96836 -13.531 13
229 1 2.99984 -9.2084 -0.444644 22
230 1 -5.39662 -0.35227 16.4845 16
231 1 -12.9279 -6.7493 8.65446 12
232 1 16.0057 -1.59826 -0.174776 12
233 1 7.61168 -2.7479 -7.83746 17
234 1 8.03287 -12.4481 -10.4031 10
235 1 -3.34685 -5.94831 4.96771 22
236 1 -5.32434 12.0784 -7.75945 10
237 1 2.16699 3.16346 6.47428 21
238 1 5.49398 5.46876 16.7252 10
239 1 -6.81601 1.30635 6.41432 23
240 1 6.49 -13.6486 -4.13142 15
241 1 -1.86345 9.41007 2.60641 22
242 1 -8.27619 3.18343 1.65432 22
243 1 8.25524 -10.1583 8.61246 12
244 1 10.3391 -4.72591 -0.73548 18
245 1 -6.06383 6.11338 9.54112 19
246 1 -2.74148 -5.85137 -1.72831 23
247 1 0.103712 -1.95801 17.9356 10
248 1 -4.51348 11.2111 3.03416 21
249 1 -5.65799 4.31453 -5.52397 19
250 1 -11.8683 5.27473 9.14133 12
251 1 -7.71808 9.52653 3.16405 13
252 1 -2.77589 -6.05829 -5.12992 20
253 1 -5.29816 13.8935 1.70419 11
254 1 13.4017 -4.76109 8.0794 11
255 1 -10.5277 -11.027 3.94143 14
256 1 8.82969 -8.32314 6.28465 18
257 1 -13.5283 5.34587 2.00973 16
258 1 -3.23301 -7.1781 15.51 11
259 1 4.90599 -11.9244 -9.10954 14
260 1 -5.92367 -4.55902 -9.58523 21
261 1 7.06365 -3.41854 -14.0917 12
262 1 4.44811 12.2252 7.11182 16
263 1 -8.10731 -3.0973 -0.353884 19
264 1 -0.8819 -8.40643 -11.3299 17
265 1 -8.40334 -14.2113 0.0432932 9
266 1 -14.0523 -7.26047 0.275241 13
267 1 -2.47237 -8.70976 2.89442 20
268 1 14.0386 -1.72888 -3.15137 14
269 1 -11.0728 -0.616828 -10.011 12
270 1 -13.1915 -0.587199 5.92615 16
271 1 -9.1644 7.37933 8.69839 15
272 1 -5.33081 9.06762 0.753596 19
273 1 -4.12378 8.18442 11.1878 15
274 1 14.1713 -6.68301 -4.22027 9
275 1 15.3151 -1.52338 -5.86579 9
276 1 -2.56009 5.74558 -2.76538 22
277 1 3.42841 -8.21193 -3.29233 23
278 1 0.226754 6.96782 5.85003 20
279 1 -8.08045 -0.322756 -1.79686 20
280 1 8.90813 -8.48258 2.84697 20
281 1 11.0186 3.89586 9.19977 20
282 1 -5.65319 -1.45377 -5.30678 24
283 1 -8.55095 -12.531 5.68114 10
284 1 -0.742228 12.0834 1.0975 20
285 1 -6.92991 -12.3204 -2.2517 16
286 1 -8.73635 3.77542 -3.97286 17
287 1 -0.534073 14.2987 -3.23449 14
288 1 6.24323 6.92114 8.76011 20
289 1 -13.5393 -3.01929 3.4268 20
290 1 -5.47152 -4.38976 -6.10293 23
291 1 -11.7886 2.49177 8.39911 17
292 1 -13.6959 3.89208 -0.534335 11
293 1 10.2192 -12.192 6.38215 10
294 1 -4.68316 -13.5007 0.702458 19
295 1 6.22523 9.82398 -10.2157 11
296 1 -5.08854 7.18394 -7.39172 21
297 1 -0.219699 -9.99333 6.14519 21
298 1 12.686 3.82009 6.35408 15
299 1 -5.82229 -1.12776 11.3247 17
300 1 -15.4169 2.82047 1.96772 13
301 1 -0.0642364 4.4551 8.15423 17
302 1 -8.12021 -6.00665 7.85037 16
303 1 2.03849 -5.53572 -5.38231 19
304 1 6.89115 -9.68456 -10.7256 13
305 1 0.166079 -1.73683 8.35385 20
306 1 -9.76762 -0.479057 7.24809 18
307 1 -1.11488 -7.10881 8.28753 22
308 1 7.77572 -13.3714 -7.31671 14
309 1 -3.32599 -9.38485 -5.96152 20
310 1 -4.5711 -3.95094 11.1213 15
311 1 5.26726 -8.08325 -5.28839 17
312 1 -3.52106 0.776968 -15.7379 11
313 1 7.54483 -13.978 5.86301 13
314 1 0.266008 9.65125 -2.56041 19
315 1 -7.39669 -3.07431 15.6191 10
316 1 -5.99299 -6.79673 10.4717 22
317 1 8.38926 -5.41945 12.6974 11
318 1 10.4503 1.05257 -0.01147 21
319 1 -5.85287 3.89313 3.90468 19
320 1 5.68814 -0.182467 -14.6628 11
321 1 10.7537 -6.30383 7.2126 15
322 1 15.0252 5.82082 3.75336 7
323 1 -1.83813 -0.546795 15.88 19
324 1 4.23658 10.8255 0.8444 23
325 1 4.59535 -6.44479 6.44183 20
326 1 -0.64535 -13.4367 -7.607 14
327 1 -0.347876 12.2066 8.21896 15
328 1 -3.36512 -11.5842 -0.998677 21
329 1 6.77322 2.63167 12.14 20
330 1 -9.13121 5.48429 16.9238 12
331 1 -1.8785 -12.4949 1.36142 18
332 1 -11.6862 2.09716 11.3948 14
333 1 -4.71247 -7.97701 -1.39771 19
334 1 -2.46276 9.81763 8.98141 16
335 1 -3.22975 -12.1369 -9.77498 8
336 1 -1.9761 -8.08197 -14.3731 12
337 1 -2.74251 -11.9036 3.91747 20
338 1 -4.43064 2.05477 5.10722 18
339 1 9.11972 -2.5048 6.33763 19
340 1 -4.8656 -5.83576 13.2979 19
341 1 -7.97498 3.19978 -10.5447 14
342 1 9.87341 4.59595 0.849914 17
343 1 -8.01071 -12.2501 2.30296 19
344 1 -0.139554 3.56077 -5.79707 23
345 1 -1.43956 11.6464 -2.28328 19
346 1 -2.55898 5.84381 -5.90718 23
347 1 -2.04758 2.53156 13.5732 18
348 1 -10.7071 -3.04424 -1.75678 19
349 1 8.99414 10.3684 -8.63174 10
350 1 -2.06339 -8.99235 -3.04871 21
351 1 -5.90719 -10.8739 -6.84429 17
352 1 2.52946 -6.24919 -11.6462 18
353 1 -11.8015 8.25909 1.1331 11
354 1 -2.35587 0.919962 17.9426 14
355 1 8.67923 7.8505 -0.0279398 22
356 1 2.39195 5.79321 0.864018 21
357 1 -10.3362 2.12724 -8.30461 15
358 1 6.7936 0.474474 -6.78195 19
359 1 8.31782 -10.7458 4.92651 19
360 1 -15.6996 -1.02964 1.33192 12
361 1 -1.79934 3.1401 -15.1058 12
362 1 13.1366 6.34538 -2.49583 12
363 1 11.4178 -9.69112 -0.297709 14
364 1 15.4068 3.77944 -1.38243 12
365 1 2.2169 -0.419901 -9.1043 21
366 1 7.37725 -6.17975 4.72801 19
367 1 2.70836 -14.8795 4.19251 16
368 1 1.61974 -10.1067 14.8506 11
369 1 -5.47075 4.47391 -8.68474 18
370 1 2.32004 -12.5459 -8.12225 13
371 1 2.38877 -0.544021 -12.0445 21
372 1 0.149291 -6.86033 15.4174 10
373 1 -10.8077 -1.73012 4.8325 19
374 1 12.3945 -4.73627 1.55934 19
375 1 15.6211 -4.69092 5.43325 11
376 1 -2.16343 9.03316 -4.48686 22
377 1 2.26807 -9.4876 -9.99038 18
378 1 2.52603 2.51802 -10.5699 22
379 1 10.2293 -5.53765 -7.7548 21
380 1 -8.76838 1.09892 12.2218 23
381 1 10.1113 10.9735 6.24338 12
382 1 -5.03068 -2.30873 -15.0834 13
383 1 -8.17431 -1.134 10.0646 16
384 1 -2.72108 13.5442 3.1269 16
385 1 -7.35643 -5.84378 -11.6779 14
386 1 -15.0392 1.95457 6.97888 11
387 1 -3.94187 -8.87792 12.225 20
388 1 2.99466 8.40219 -7.78033 20
389 1 12.6198 2.2392 -0.97098 18
390 1 -10.2206 -7.95911 1.07356 19
391 1 -0.119963 -10.6217 -0.522478 23
392 1 -5.83209 8.80047 8.58707 15
393 1 5.50929 -8.21152 -8.45726 20
394 1 0.517027 6.54621 -0.896434 20
395 1 10.484 -1.9629 -2.78178 18
396 1 2.71384 14.1792 -3.44633 13
397 1 7.25143 -12.2162 2.99138 16
398 1 -6.35669 3.38421 10.7114 20
399 1 -0.0685905 10.2228 10.825 11
400 1 -0.425265 6.23207 -14.3217 11
401 1 -5.23679 -7.32995 1.84736 24
402 1 -1.23376 -3.16267 14.4245 14
403 1 9.39773 9.75909 9.14531 12
404 1 3.599 11.2787 -6.14185 17
405 1 -8.22304 3.47889 -7.25034 20
406 1 1.38463 14.8325 0.00165608 15
407 1 9.7123 -1.28283 12.4655 14
408 1 12.4267 5.49791 -5.93229 14
409 1 -12.8605 -9.68881 2.30568 14
410 1 2.17244 0.159555 7.89259 22
411 1 3.40873 11.0287 -9.52444 13
412 1 2.63405 -9.47068 -6.14962 20
413 1 5.06372 -2.24734 -8.71309 21
414 1 -1.71649 14.5455 0.00655737 14
415 1 -7.97368 -3.19299 -13.1218 13
416 1 4.95796 -12.4608 5.4347 21
417 1 -16.8383 -2.73103 4.20936 7
418 1 -5.86985 0.908739 -3.83196 21
419 1 -9.24126 -4.61088 4.67463 19
420 1 5.35912 8.91238 -5.35748 13
421 1 -5.17057 -7.54096 -6.08108 21
422 1 2.89923 -9.61351 11.6049 21
423 1 7.51547 3.75642 -4.09757 18
424 1 -10.6182 5.03274 0.0748114 20
425 1 13.5818 -4.225 -6.49372 15
426 1 2.20614 8.33287 12.6167 14
427 1 -0.599353 0.899851 -10.5109 23
428 1 1.59616 13.0428 5.60552 16
429 1 10.4864 1.95213 -8.9683 15
430 1 -2.76182 -4.68996 -15.5995 12
431 1 -1.40578 -15.2486 -4.78974 15
432 1 -8.46146 -2.91386 -9.80257 18
433 1 13.1659 5.71636 0.508859 16
434 1 14.9334 1.08302 0.320363 14
435 1 9.18701 -8.34887 -8.40044 17
436 1 6.01763 -7.52207 -2.06848 21
437 1 12.6084 14.3622 2.6346 4
438 1 -5.61844 1.17796 2.58615 20
439 1 6.9815 5.43705 -0.648747 17
440 1 15.5531 1.62232 6.17655 9
441 1 13.0052 2.72914 -7.50083 13
442 1 4.59962 0.422496 13.8324 17
443 1 -1.25158 -4.03667 10.3163 18
444 1 4.86277 4.47862 1.13962 19
445 1 0.983533 -1.51188 14.7884 15
446 1 14.2686 3.54233 -4.26011 15
447 1 10.4814 1.27791 8.1782 17
448 1 -6.03137 -5.78876 -3.18531 18
449 1 12.8334 1.15317 4.69009 17
450 1 14.9648 -4.75122 -1.35747 13
451 1 0.455301 -7.66981 1.55563 19
452 1 10.5599 2.01907 13.4308 12
453 1 6.55804 11.5215 9.57225 12
454 1 8.40364 3.65352 3.90078 14
455 1 -7.63317 8.57022 -2.56476 18
456 1 8.28399 8.734 -5.63812 18
457 1 13.1218 -0.654045 -8.13309 14
458 1 4.49978 16.7634 0.955546 8
459 1 -3.60543 -13.1684 -5.99605 17
460 1 -12.0736 8.65284 7.52144 11
461 1 -8.086 -0.297115 -12.0809 19
462 1 0.137553 -15.8682 6.98849 10
463 1 -5.49679 1.06222 -10.532 20
464 1 -14.4107 -1.88578 -1.66642 12
465 1 5.77882 -10.8039 0.491286 16
466 1 11.0197 10.4582 2.67485 16
467 1 1.02151 -9.88749 8.984 21
468 1 -13.5647 -3.43324 -5.70372 11
469 1 5.49356 -6.92559 11.7376 23
470 1 0.119533 2.1553 15.3818 20
471 1 5.60505 13.1809 -3.71997 13
472 1 7.53536 3.23655 -7.27214 19
473 1 1.13051 -15.978 -2.74001 15
474 1 10.7096 -7.35693 1.19964 20
475 1 7.82609 9.48331 3.10284 19
476 1 11.0846 -4.94947 -4.33369 21
477 1 -4.08561 4.93057 12.5333 21
478 1 -11.7464 -5.18017 2.57627 18
479 1 -10.9672 -1.13537 -13.1679 7
480 1 8.8665 1.24948 10.4393 23
481 1 -2.5868 -10.2337 8.78867 25
482 1 3.07727 3.08696 16.8859 11
483 1 -6.64393 11.723 -3.44828 13
484 1 10.2306 1.49204 2.87836 18
485 1 10.9549 6.55634 2.56128 15
486 1 4.61885 -2.82017 -15.1037 12
487 1 -11.0497 -4.6907 10.9089 11
488 1 8.84424 -1.3725 -11.3592 13
489 1 1.31936 -10.5075 -3.19871 21
490 1 10.0333 -11.5125 -8.72795 10
491 1 5.35371 2.17409 15.9972 13
492 1 5.1476 1.4368 6.34979 19
493 1 6.69466 5.33731 13.5207 14
494 1 -3.8409 -1.05377 13.5098 16
495 1 -5.39225 5.17408 16.3375 18
496 1 -0.314313 -5.40426 -13.2564 19
497 1 -3.48102 4.18028 18.1223 12
498 1 3.341 -0.540202 16.4236 12
499 1 11.3981 9.25859 -0.439113 13
500 1 2.82324 -12.095 -1.23926 23
501 1 -4.73647 6.98892 -3.96936 18
502 1 4.937 10.2943 -2.96419 18
503 1 2.76122 11.7291 9.16936 13
504 1 -3.01545 -1.50366 9.84762 20
505 1 0.332112 12.3612 -4.96143 17
506 1 9.26577 7.87126 4.87473 18
507 1 -1.65663 -12.0425 -3.95199 19
508 1 0.00749948 -5.18478 -9.93066 22
509 1 -10.3859 7.01317 -1.99385 13
510 1 7.75778 -6.73119 -12.594 12
511 1 7.77437 6.62574 2.45736 20
512 1 8.86482 11.0619 -2.24864 15
513 1 6.2131 15.4744 4.01799 9
514 1 -1.91771 3.17004 5.97821 18
515 1 -7.60867 5.51036 -1.20259 21
516 1 6.77124 6.76957 -2.95908 17
517 1 0.597283 -11.9753 12.5191 13
518 1 -6.5587 4.6681 -12.8485 10
519 1 1.79981 6.02806 11.5558 20
520 1 1.95704 2.91434 9.91654 18
521 1 9.13355 14.2088 -2.01045 8
522 1 7.56001 4.77271 10.1545 21
523 1 13.2718 -3.57526 4.16092 16
524 1 -12.7952 -0.083979 8.82491 13
525 1 0.920373 -13.0267 1.53167 19
526 1 -0.356675 -2.06695 -8.83914 23
527 1 5.35826 5.05678 7.09882 20
528 1 7.77808 -3.25494 -3.75118 19
529 1 5.96172 7.47555 5.08684 22
530 1 -13.3891 2.57569 4.58075 22
531 1 8.12297 -16.0059 2.581 12
532 1 7.41962 6.31073 -7.27023 17
533 1 8.87624 -7.41818 9.75665 17
534 1 -2.8036 6.07903 3.8017 21
535 1 6.14109 -1.73113 -11.673 19
536 1 2.51519 -9.90178 6.42716 16
537 1 3.83646 14.2323 2.74514 17
538 1 -6.97631 2.55847 17.295 14
539 1 -10.6035 -4.60469 -7.31988 13
540 1 4.99152 -5.17339 -6.70816 21
541 1 3.53632 8.69993 9.56743 18
542 1 6.03546 -11.1366 -6.12778 18
543 1 5.42421 -10.1177 11.0888 16
544 1 4.80511 -14.002 -6.91394 11
545 1 -8.06237 -2.65872 6.84833 16
546 1 -0.152868 0.620965 -7.43882 23
547 1 -6.8042 -13.3268 -4.83222 10
548 1 -10.3078 3.09148 14.4934 9
549 1 10.7245 7.75164 -8.0444 12
550 1 -0.855949 1.24604 9.84207 21
551 1 -10.0255 8.03588 5.26233 13
552 1 7.91619 -0.302312 0.712573 19
553 1 0.317789 9.4733 -6.3535 23
554 1 10.4162 -1.49927 -8.72496 16
555 1 7.89478 0.84659 -9.48428 21
556 1 -14.0928 -0.0929098 -4.64007 13
557 1 -12.7004 -7.47748 -2.85713 15
558 1 2.89934 8.01263 -10.572 15
559 1 -6.1025 1.8194 13.0199 17
560 1 -0.443144 -4.47614 6.40839 22
561 1 0.187956 -7.86381 -8.40819 20
562 1 -4.73812 6.73863 -0.932561 19
563 1 7.08587 9.53499 6.53222 22
564 1 -8.2787 -6.00854 1.95339 24
565 1 8.48521 7.51584 -10.2516 12
566 1 -0.494906 -17.162 3.35904 9
567 1 2.58019 5.1815 -9.3761 22
568 1 1.22936 -2.79159 -13.7823 19
569 1 -3.29673 0.449267 7.52115 22
570 1 2.74998 5.31532 -12.4547 15
571 1 -10.9077 -2.21828 1.01371 20
572 1 10.2265 -2.33063 1.62987 19
573 1 -2.37119 -8.46152 0.103022 19
574 1 9.75229 5.77794 -4.99168 20
575 1 13.319 -9.67188 2.461 13
576 1 -9.73956 5.8596 14.0399 11
577 1 12.3323 -12.191 3.67304 11
578 1 12.2079 -6.74109 -2.09747 16
579 1 10.427 -4.03559 9.82525 16
580 1 2.60829 5.84458 8.82444 17
581 1 -7.69859 4.5337 7.54114 19
582 1 3.3199 -12.9991 10.8619 8
583 1 12.793 -0.256367 1.87044 18
584 1 2.60674 6.40725 15.5694 12
585 1 -11.284 0.649033 -1.04718 15
586 1 13.6186 -7.26153 -6.79515 10
587 1 3.21287 5.96628 4.46875 19
588 1 0.702914 -2.22475 11.1911 18
589 1 3.84769 8.01242 6.80823 21
590 1 5.91237 -9.4542 4.31246 19
591 1 -5.7862 -4.72907 -0.475983 20
592 1 0.413051 3.36857 12.222 20
593 1 6.59851 12.8452 -1.06032 18
594 1 -8.30336 -9.61705 6.08051 18
595 1 8.0348 -8.9763 12.1648 11
596 1 13.0815 -6.43097 4.94655 15
597 1 12.7309 7.55563 5.47956 16
598 1 -0.078712 6.38641 -4.3332 23
599 1 -0.0595536 -7.65043 -5.04375 20
600 1 -4.55399 2.81752 -13.1357 18
601 1 -7.9207 -0.0625839 15.216 13
602 1 -1.57633 14.1686 6.07734 10
603 1 14.6373 -1.55264 6.28276 15
604 1 2.14861 8.46414 -4.34331 20
605 1 -4.52169 2.8401 15.8148 19
606 1 5.15834 7.76448 14.3076 11
607 1 8.89208 -4.28405 -10.4087 15
608 1 -2.78315 -15.776 1.3067 14
609 1 -2.69002 -0.149245 -5.74693 21
610 1 14.3543 0.207876 8.93018 11
611 1 2.41704 -2.96824 -7.09677 21
612 1 0.449234 -7.8013 -1.87424 19
613 1 15.1443 -8.07199 4.03339 8
614 1 -1.57549 -9.86199 14.3492 13
615 1 -2.23881 -3.18512 -13.1866 19
616 1 6.20304 13.2282 2.0003 17
617 1 -0.294594 -7.52576 4.54627 22
618 1 -13.1555 7.56564 4.33033 12
619 1 9.73173 7.77287 -2.62357 12
620 1 5.51664 -6.16894 -13.7181 13
621 1 -6.01638 10.2523 5.63932 14
622 1 2.36743 -0.906872 -15.314 14
623 1 8.65771 -6.23641 -2.32478 17
624 1 -8.4881 0.230193 1.16587 21
625 1 13.2062 3.17031 2.0695 17
626 1 -11.1454 -12.6624 1.01747 11
627 1 7.86493 0.491914 14.1767 17
628 1 -10.5943 -5.27579 -3.7796 20
629 1 -8.62782 9.74717 7.17084 10
630 1 -2.8088 3.02513 -7.13713 24
631 1 11.7007 -7.21933 -9.8168 8
632 1 -12.4257 -10.3085 -0.952757 13
633 1 8.18441 -6.07962 1.45114 21
634 1 -10.2788 5.76936 2.60845 19
635 1 -8.07455 -7.09438 -4.93486 20
636 1 -5.59948 -10.3188 10.6421 15
637 1 12.1708 -1.88735 8.47083 15
638 1 6.13243 -8.33607 8.02445 19
639 1 -9.91525 2.38095 6.43292 20
640 1 -1.41627 7.16621 12.1696 16
641 1 6.21132 12.0061 -7.38537 10
642 1 -2.73678 11.5853 5.61451 20
643 1 9.298 15.6158 2.54351 7
644 1 -0.549095 0.0291512 12.6251 20
645 1 2.76079 -4.66687 11.4859 19
646 1 0.877623 11.9388 -7.89086 14
647 1 -8.91692 -2.35017 12.5861 15
648 1 -5.61201 -7.48745 -9.23172 20
649 1 -14.3944 1.44981 -2.35576 13
650 1 -0.481024 -12.9061 8.98534 13
651 1 5.98339 -1.073 8.26516 22
652 1 1.70076 -15.247 -6.19592 13
653 1 -15.3604 5.04063 4.87229 9
654 1 11.4123 0.385923 -3.40996 22
655 1 -7.24006 6.06326 2.56994 18
656 1 -7.40223 3.7614 14.1042 22
657 1 -0.0928636 -10.9315 -9.35081 15
658 1 1.28238 -13.6037 -4.02132 19
659 1 4.03352 -14.9671 -3.07361 14
660 1 0.0969604 9.5819 -12.7159 10
661 1 11.2068 3.69569 -3.13714 18
662 1 11.038 6.23747 6.91793 16
663 1 9.78464 -0.147643 -5.76617 16
664 1 -0.643608 3.75514 -12.3996 23
665 1 2.30724 -12.0319 4.16878 19
666 1 6.58105 9.60329 -0.579218 19
667 1 4.74342 0.702344 -9.11906 18
668 1 -8.99344 2.53973 -1.21146 17
669 1 3.01105 8.697 -1.07695 18
670 1 -9.94964 -7.23913 10.2143 16
671 1 7.35083 8.49499 10.9101 13
672 1 4.04313 -12.9165 1.93363 19
673 1 5.97653 15.7022 -2.11624 10
674 1 -1.58311 5.05235 10.5879 18
675 1 -10.9505 -1.17812 10.9 17
676 1 7.77267 -0.0894511 -2.57268 20
677 1 -7.56484 -6.56029 15.3745 7
678 1 8.05585 -9.10703 -0.166772 17
679 1 -3.29618 -2.64547 6.28704 21
680 1 8.40621 3.94933 15.2548 13
681 1 6.76006 -5.13703 -8.95463 17
682 1 -5.39713 -1.90555 -8.59205 21
683 1 -3.279 3.11049 -10.3306 22
684 1 -13.4605 0.781255 0.80223 18
685 1 7.59738 13.3669 7.35272 10
686 1 -3.01527 6.84617 8.38304 20
687 1 -9.95583 -11.8962 -1.79606 13
688 1 -1.59233 6.13713 0.970613 21
689 1 11.5267 0.62007 10.7329 15
690 1 -3.27986 -9.07416 5.44789 19
691 1 13.6172 1.05964 -5.42306 17
692 1 6.61388 -12.5789 -1.25288 16
693 1 2.56828 -3.40544 -10.3607 18
694 1 -1.09113 -1.52068 -16.2997 10
695 1 -6.60231 -7.18743 4.59196 18
696 1 -5.14214 3.81272 -2.43683 18
697 1 -6.92569 5.69375 18.5566 9
698 1 5.16649 -5.15148 8.82003 18
699 1 -11.125 -8.9575 6.98497 12
700 1 7.63643 -2.90317 3.0013 20
701 1 -2.76113 6.01531 -9.44539 21
702 1 13.2068 8.48438 2.30913 14
703 2 -9.21765 -1.7157 -13.2579 11
704 2 -6.40461 10.7382 -8.32713 13
705 2 3.18687 -2.22867 -8.88308 19
706 2 -2.37271 3.68007 11.8317 21
707 2 -4.83344 -5.94446 -5.04993 22
708 2 2.70803 -1.46993 11.6488 22
709 2 -14.3907 -6.828 5.34874 12
710 2 -15.304 0.888251 1.84495 15
711 2 1.71356 11.2112 5.00265 22
712 2 -8.61907 0.844707 5.87898 20
713 2 9.62135 0.140477 1.49886 19
714 2 -1.9469 -1.87592 -5.30583 24
715 2 -9.73172 -6.26386 -6.62882 15
716 2 -9.39219 0.558853 -0.73873 19
717 2 -1.98896 -11.8935 8.29888 15
718 2 2.67044 1.27175 9.49964 19
719 2 2.59481 -5.22674 -9.88102 19
720 2 1.60469 -10.4068 -1.217 20
721 2 5.14342 0.52436 4.7784 18
722 2 -7.62644 9.67433 0.811551 13
723 2 -15.2386 2.12323 -4.31136 8
724 2 15.267 1.84181 8.05864 10
725 2 7.96246 -11.8309 -5.55505 14
726 2 -6.20414 -11.7082 3.96358 20
727 2 -9.02409 -2.71397 5.30437 19
728 2 -2.35583 -13.5606 5.19262 16
729 2 10.8881 -8.017 6.14741 16
730 2 2.96463 -11.1589 -9.18518 14
731 2 5.69558 -1.16779 13.0811 17
732 2 -0.601399 11.6341 -9.13532 14
733 2 -11.6308 -11.9212 -0.606939 10
734 2 -0.805095 -0.199145 17.8742 12
735 2 -6.16486 7.67771 2.02342 17
736 2 -6.30564 3.49841 15.6927 20
737 2 -7.73624 7.91639 -4.68206 17
738 2 6.2541 -16.5058 2.41873 7
739 2 3.30467 9.60701 7.9087 18
740 2 -3.54308 11.5097 -8.77611 13
741 2 11.6295 -4.53802 -6.49584 18
742 2 -2.49145 -1.6438 -8.81188 21
743 2 2.75942 -5.08203 -7.14789 21
744 2 9.41157 -0.189285 -3.66818 19
745 2 -5.91641 6.83812 14.7425 13
746 2 -0.0245226 2.38864 -13.8609 15
747 2 -10.09 6.29748 -9.48833 10
748 2 10.8674 14.79 2.23855 5
749 2 -7.97896 -4.71436 14.9239 13
750 2 -10.5693 7.50064 -0.082549 15
751 2 9.75945 0.172108 -9.72616 16
752 2 2.21481 -8.13208 -8.68957 21
753 2 -13.4294 1.49621 7.9166 16
754 2 9.3456 6.58056 1.54721 18
755 2 -1.26203 9.89265 4.71525 19
756 2 -6.9945 -7.66972 -7.22566 19
757 2 -6.09821 10.3362 3.71576 14
758 2 2.96666 -9.18063 13.5658 15
759 2 5.97263 -5.2489 5.69861 18
760 2 -7.22737 -0.568071 3.62854 19
761 2 8.35495 -4.91841 -0.094498 20
762 2 4.94052 -14.4676 -5.02066 15
763 2 13.0566 7.78258 9.23793 9
764 2 9.24761 -13.5257 5.33267 15
765 2 13.437 -8.49921 4.56699 13
766 2 -5.13307 0.155653 12.7881 18
767 2 9.4639 -6.59155 -6.36647 15
768 2 2.75473 4.29596 11.0443 20
769 2 4.59781 6.99311 15.7817 10
770 2 -5.73579 6.69446 11.2977 19
771 2 8.86468 9.56674 5.34536 18
772 2 11.8021 -8.89169 -2.09249 15
773 2 6.67785 5.03105 -2.71442 15
774 2 -7.61585 -3.75202 -11.3709 14
775 2 -7.01613 0.603126 16.7034 13
776 2 5.94359 -0.557354 -8.1002 19
777 2 -7.81053 -1.62736 -5.54223 21
778 2 -12.2126 4.24458 7.67754 17
779 2 -12.8187 -8.59723 0.673229 16
780 2 15.1555 -2.88149 4.65591 12
781 2 -1.39158 -8.98585 9.32974 21
782 2 -5.56256 -2.28005 15.9959 11
783 2 7.76735 -2.93097 -12.2397 12
784 2 1.77687 -0.949348 17.696 10
785 2 -2.6572 6.77776 10.2569 19
786 2 -11.6445 4.46885 2.01536 20
787 2 2.59088 -7.79752 -1.65463 19
788 2 14.3228 -5.59806 -5.65231 9
789 2 -7.34078 7.46465 9.05798 15
790 2 -0.293218 -8.74989 2.94059 23
791 2 9.9701 -9.42754 -4.86968 13
792 2 5.54807 -3.00953 -3.95015 19
793 2 4.89508 6.64806 12.8008 17
794 2 7.95646 -12.8697 -2.53862 11
795 2 3.64049 -4.13995 9.58572 22
796 2 -3.91295 -10.1235 3.79809 21
797 2 16.5241 -2.54617 1.17388 10
798 2 -7.39783 -11.3061 6.4248 13
799 2 9.4579 11.9406 -3.68283 10
800 2 -2.15345 -7.35077 4.72465 20
801 2 10.5205 -5.49334 -2.52757 17
802 2 5.86596 -11.4697 -4.10629 20
803 2 8.07484 -5.16951 -3.7342 17
804 2 -6.11467 12.9525 0.130935 13
805 2 13.6571 5.42859 -4.24791 12
806 2 -4.70728 -10.8482 -8.69356 15
807 2 -7.61233 -4.63072 6.86498 15
808 2 -0.57446 -13.1414 0.149822 17
809 2 -2.51074 -10.8741 -2.58684 19
810 2 -3.37526 13.4753 6.01127 11
811 2 -12.7508 7.09083 2.42957 13
812 2 5.52767 -0.459661 -5.19287 18
813 2 11.1796 7.70354 4.12377 18
814 2 3.4058 3.31401 -9.13763 22
815 2 -7.6894 6.66535 17.0348 11
816 2 0.519835 -1.39259 -15.1895 15
817 2 -13.5865 1.9045 -0.699512 14
818 2 -2.61941 0.607409 9.33076 21
819 2 -10.1548 8.65353 7.63483 10
820 2 -4.758 2.9781 -4.10892 20
821 2 5.50193 10.7808 6.03658 23
822 2 9.46017 3.21034 -3.71982 19
823 2 7.84725 -8.0519 -1.81025 15
824 2 -12.0618 0.300585 10.5048 12
825 2 12.1008 1.54742 2.97792 19
826 2 -1.88307 7.36116 2.66972 19
827 2 -10.6742 0.093829 -8.32932 14
828 2 -4.06854 3.46213 6.48938 21
829 2 10.6777 -0.490225 8.88411 21
830 2 -12.5541 -7.43203 -4.90955 14
831 2 2.27425 0.433683 -13.8129 16
832 2 7.7306 9.37219 0.95474 21
833 2 -10.5279 -6.09824 4.87648 19
834 2 3.22959 6.89926 -0.442943 16
835 2 -4.35535 8.55557 -10.4709 17
836 2 0.159278 8.44318 -4.5039 21
837 2 8.98913 2.16965 15.0283 12
838 2 -0.318169 0.269137 14.6558 21
839 2 13.1456 -7.55771 -8.56872 10
840 2 -8.58624 -1.84141 14.591 13
841 2 1.6956 -6.77963 8.82136 23
842 2 -14.1758 -0.221772 -2.58043 14
843 2 -5.59365 -8.81415 -10.8462 14
844 2 9.05979 -6.03485 5.91401 18
845 2 1.43884 -2.0808 -11.7175 20
846 2 14.8052 0.0705567 1.81134 15
847 2 -5.37788 4.77097 18.2383 11
848 2 3.06643 0.674977 -10.4302 19
849 2 -8.27889 -7.23264 13.7959 11
850 2 -3.13486 -1.89129 -12.159 19
851 2 4.49972 -10.6329 -1.47172 20
852 2 0.0989213 -8.98761 -3.29301 20
853 2 7.06324 -10.7529 -0.925041 18
854 2 10.5933 10.3615 0.894942 13
855 2 -7.46031 0.449908 -13.7729 15
856 2 -1.85233 11.4002 7.50476 16
857 2 -6.49714 -10.221 1.56843 19
858 2 -4.74909 0.821442 -12.2803 22
859 2 6.97592 8.2498 -10.8867 10
860 2 -2.04836 11.7113 2.53589 20
861 2 -4.95368 -14.7092 4.29293 14
862 2 13.2679 0.992485 10.3891 12
863 2 0.963132 2.66444 17.2077 12
864 2 -9.49091 -13.7348 1.43971 10
865 2 3.05636 -10.1855 -4.2137 21
866 2 -0.230789 -2.12008 15.9767 14
867 2 0.970465 11.4698 9.70339 14
868 2 15.2572 -0.410826 -3.86317 13
869 2 7.71573 2.86619 10.1586 18
870 2 14.636 4.40648 2.55252 9
871 2 -11.907 8.39305 5.56889 12