ITEM: TIMESTEP
68000
ITEM: NUMBER OF ATOMS
500
ITEM: BOX BOUNDS pp pp pp
-30.0 30.0
-30.0 30.0
-30.0 30.0
ITEM: ATOMS id type x y z Coordination
1 1 -3.97437 6.11855 -4.47807 20
2 1 -11.294 13.6808 -2.58843 15
3 1 -15.1263 12.0873 -7.51698 20
4 1 -12.0305 8.79484 -20.8657 15
5 1 -18.0355 8.85248 -16.1349 13
6 1 -7.26954 9.72736 -20.089 18
7 1 -4.95589 -0.233003 -11.3601 13
8 1 -7.60142 10.7239 -4.69367 22
9 1 -6.99401 13.9031 -18.2663 20
10 1 -8.1512 14.7359 -2.18224 10
11 1 -17.35 6.55505 -10.0434 14
12 1 -0.0446573 6.36959 -15.4035 11
13 1 -7.08571 9.63888 -1.53066 10
14 1 -16.9133 5.67202 -15.282 14
15 1 -9.78734 2.19937 -17.4593 15
16 1 -2.17429 11.1812 -19.1095 23
17 1 -1.6995 4.22133 -4.90755 10
18 1 -12.6025 17.7241 -9.06054 17
19 1 -10.6771 17.9231 -11.2917 16
20 1 -6.66694 2.28236 -17.7046 15
21 1 -10.3837 11.043 -4.36976 22
22 1 -1.69937 7.98628 -4.50288 16
23 1 -16.0702 12.8588 -4.52815 13
24 1 -6.03363 15.4683 -20.411 13
25 1 -2.35133 16.8328 -14.2945 17
26 1 -9.03794 16.4664 -20.1801 10
27 1 -13.8749 13.2628 -18.9676 18
28 1 -10.3532 16.738 -17.0072 17
29 1 -9.65919 18.5369 -14.9338 13
30 1 -17.8107 12.0732 -11.332 16
31 1 -9.32623 13.608 -5.30566 22
32 1 -14.5649 10.8891 -20.5323 14
33 1 -13.8175 3.66637 -7.19532 16
34 1 -1.80889 3.24866 -14.1256 15
35 1 -19.1701 8.9891 -10.501 11
36 1 -14.9834 8.24749 -15.2924 22
37 1 -12.2997 1.05452 -5.6109 13
38 1 -2.05869 10.9985 -22.3219 11
39 1 -13.3594 1.93084 -17.1995 12
40 1 -8.32878 13.4755 -21.1782 13
41 1 -7.50855 19.9101 -12.8331 10
42 1 -16.6811 10.0648 -4.73955 13
43 1 -8.5052 16.9388 -8.9751 24
44 1 -4.6939 9.48368 -4.82166 18
45 1 -5.81663 0.229495 -14.2306 18
46 1 -2.05172 13.8055 -21.2316 12
47 1 -12.3287 1.31787 -8.89009 17
48 1 -5.08453 2.89642 -3.73804 13
49 1 -7.46352 3.54175 -1.55852 11
50 1 -8.31157 16.8245 -12.7081 23
51 1 -15.0585 3.55948 -10.2271 14
52 1 -10.0289 0.613423 -10.4939 18
53 1 -13.6678 10.6005 -4.68598 22
54 1 -15.5634 10.0548 -2.08253 11
55 1 -6.81712 0.882495 -9.35764 17
56 1 -18.2562 8.16425 -7.50024 9
57 1 -11.166 16.4115 -6.12528 17
58 1 -17.2375 14.2134 -8.95605 10
59 1 -12.5958 13.5235 -5.41192 22
60 1 -14.1792 7.32349 -20.8961 10
61 1 -16.6598 13.2971 -19.6625 12
62 1 -11.3209 4.78326 -17.4821 20
63 1 -3.80913 8.62859 -2.21206 11
64 1 -8.1164 2.44421 -4.67692 15
65 1 -13.0608 7.46283 -17.8537 22
66 1 -16.8867 7.64444 -12.7772 18
67 1 -11.9956 -1.17513 -11.4569 11
68 1 -14.1152 15.0986 -7.91869 18
69 1 -8.24946 -0.0800487 -18.8027 8
70 1 -10.4747 18.9668 -6.77604 13
71 1 -17.4511 13.6873 -14.0936 16
72 1 -15.5103 16.8514 -18.2665 9
73 1 -8.1866 -2.18458 -15.1108 11
74 1 -0.795341 2.23528 -7.73783 9
75 1 -15.8924 14.3401 -16.6607 16
76 1 -8.78363 6.70233 -0.402025 9
77 1 -14.8499 12.6046 -2.24547 13
78 1 -3.5936 2.94847 -16.839 14
79 1 -10.0406 5.52886 -4.30926 22
80 1 -3.37305 0.263294 -14.5245 12
81 1 0.123345 12.4601 -9.72088 12
82 1 -4.5244 9.09011 -20.4344 15
83 1 -9.46893 0.3594 -7.37202 15
84 1 -16.4449 3.45686 -16.5878 10
85 1 -13.5388 4.83738 -3.91475 17
86 1 -2.73927 13.5802 -5.17968 13
87 1 -0.600092 14.9639 -11.6324 15
88 1 -4.85789 12.6139 -20.8971 19
89 1 -10.6482 11.6366 -22.2693 12
90 1 -9.76739 20.1796 -9.81536 12
91 1 -1.54089 8.42471 -20.6053 13
92 1 -3.6465 0.407935 -8.32292 11
93 1 -0.909444 3.72774 -10.7833 9
94 1 -6.49561 0.849088 -6.36948 13
95 1 -15.5861 10.2397 -17.8806 19
96 1 -0.412408 9.03181 -12.8005 17
97 1 -12.1929 16.4402 -19.3845 14
98 1 -5.69568 -0.984374 -17.4019 8
99 1 -14.5786 7.36807 -4.08594 15
100 1 -8.16852 -0.755651 -12.0557 17
101 1 -5.93461 4.99004 -17.4592 17
102 1 -2.25604 1.39884 -11.0706 12
103 1 -9.21126 0.619481 -14.4036 21
104 1 -4.72046 5.30378 -1.72266 9
105 1 -12.103 10.3081 -1.4696 13
106 1 -3.33236 8.63434 -17.7015 20
107 1 -15.7891 16.8394 -14.731 15
108 1 -5.23109 17.3431 -13.2697 16
109 1 -0.139571 14.3364 -18.4889 14
110 1 -7.43306 11.2394 -23.0688 10
111 1 -18.3093 11.0967 -7.5659 11
112 1 -6.59943 6.99882 -4.70796 18
113 1 -18.2176 12.0129 -16.823 12
114 1 -0.350465 6.92607 -9.86879 13
115 1 -4.88369 15.6819 -3.17829 10
116 1 -10.3824 2.48071 -3.31692 15
117 1 -1.44708 15.0145 -8.59819 14
118 1 -2.86695 17.1773 -6.00356 11
119 1 -11.0207 -0.0658548 -16.4764 14
120 1 -5.88867 13.3155 -5.07616 17
121 1 -10.7584 13.7378 -19.0082 17
122 1 -13.7148 -0.191798 -14.2822 11
123 1 -3.24207 16.9044 -10.6351 16
124 1 -16.1694 14.9413 -11.8813 16
125 1 0.375411 14.9949 -14.9292 13
126 1 -9.33591 11.618 -1.63023 13
127 1 -9.19158 8.56564 -22.0621 13
128 1 -1.78784 6.27558 -17.8287 12
129 1 -7.93958 19.325 -6.6403 12
130 1 -13.9903 17.9084 -6.50021 11
131 1 0.0742884 9.08363 -17.6954 16
132 1 -3.85667 3.03666 -6.54461 17
133 1 -14.2105 15.6299 -3.84041 9
134 1 -1.26763 10.8559 -4.00617 10
135 1 -7.13985 17.9042 -16.0508 14
136 1 -1.30528 16.8887 -17.556 13
137 1 -10.5543 4.48091 -0.694559 10
138 1 -11.666 8.10981 -4.35938 21
139 1 -14.23 18.0405 -12.1332 14
140 1 -6.61667 18.5353 -10.3157 15
141 1 -15.548 5.92815 -7.36946 13
142 1 -1.62982 5.79801 -7.4318 18
143 1 -13.2659 2.28073 -12.3555 17
144 1 -2.00217 11.376 -7.44291 18
145 1 1.04285 12.3524 -13.2995 15
146 1 -5.93287 14.9156 -10.1427 23
147 1 -14.7157 4.85312 -18.241 15
148 1 -6.42024 18.624 -19.5551 9
149 1 -16.614 7.01549 -18.5059 11
150 1 -7.05441 6.67753 -20.1906 15
151 1 -10.785 -2.20422 -13.6859 12
152 1 -13.0694 1.81032 -2.06619 9
153 1 1.488 9.35111 -14.7753 12
154 1 -18.9605 10.5582 -13.6201 12
155 1 -13.9684 13.6375 -22.1419 8
156 1 -16.1385 2.11587 -13.358 8
157 1 0.0701367 8.95291 -7.09829 12
158 1 -10.5765 6.22696 -20.4071 14
159 1 -16.1894 17.4117 -9.29162 9
160 1 -12.2476 6.99887 -1.64283 11
161 1 -5.3022 17.3929 -8.07348 16
162 1 0.838785 12.2812 -16.5672 16
163 1 -15.0974 2.44363 -4.75533 8
164 1 -3.59079 14.7635 -18.4518 21
165 1 -3.24012 17.0371 -20.0241 11
166 1 -5.14954 18.6202 -4.92616 10
167 1 -4.47903 17.9816 -16.8997 15
168 1 -1.86126 13.7643 -16.3686 21
169 1 0.654544 11.3951 -20.0447 12
170 1 -7.97608 16.6595 -4.91225 17
171 1 -11.9852 17.0166 -13.8072 18
172 1 -10.3996 3.31688 -6.85325 21
173 1 -6.58149 4.15644 -6.2057 20
174 1 -14.9622 5.35532 -12.8514 18
175 1 -13.2123 17.8338 -16.275 12
176 2 -15.6736 8.75007 -3.66384 11
177 2 -2.72269 15.4576 -6.88725 14
178 2 -17.3715 11.9763 -13.5186 16
179 2 -11.8839 1.09329 -3.79182 10
180 2 -8.53915 10.3761 -2.6583 15
181 2 -15.1462 14.0674 -3.28923 10
182 2 -2.56217 2.15609 -15.4324 12
183 2 -10.8768 9.89193 -21.572 17
184 2 -4.72015 -0.196484 -15.8804 12
185 2 -12.0666 18.1187 -6.568 12
186 2 -0.504716 6.98957 -7.84122 15
187 2 -5.11867 17.2871 -10.1326 16
188 2 -7.54437 14.3734 -5.56947 18
189 2 -9.49412 20.114 -7.66354 10
190 2 -5.43349 14.9883 -18.7257 20
191 2 -0.0857403 9.62613 -19.5776 13
192 2 -16.8998 11.7067 -18.4245 15
193 2 -8.31928 2.58759 -2.86008 13
194 2 -14.7672 10.1191 -8.30412 19
195 2 -4.42593 -0.0227334 -13.0143 15
196 2 -9.05791 1.0128 -12.3837 22
197 2 -9.04944 11.6756 -5.68257 22
198 2 -7.75394 8.05773 -0.937804 9
199 2 -12.8632 2.76614 -10.3346 17
200 2 -3.57557 0.547943 -10.3011 11
201 2 -16.3416 5.72061 -11.4571 16
202 2 -11.9796 0.12775 -10.3134 14
203 2 -14.8188 2.91797 -17.3982 11
204 2 -14.5725 18.048 -8.49758 12
205 2 -1.93746 13.8594 -18.3905 20
206 2 -1.56332 17.6222 -15.8116 11
207 2 -8.9118 12.406 -22.553 10
208 2 -1.24137 13.1232 -8.93116 15
209 2 -8.23716 19.7928 -10.9931 13
210 2 -15.8054 17.4437 -11.3818 13
211 2 -7.89625 19.1104 -14.6594 12
212 2 -4.80447 17.9071 -20.3002 10
213 2 -12.0376 11.835 -5.02084 21
214 2 -5.47201 9.38051 -2.66814 13
215 2 -6.637 0.448039 -18.1216 10
216 2 -6.7076 2.4574 -14.4427 20
217 2 -8.25944 3.49385 -17.9943 15
218 2 -14.7819 3.51803 -12.0338 14
219 2 0.923827 10.3612 -13.1678 14
220 2 -7.18349 18.1398 -8.16747 19
221 2 -12.3737 6.78097 -20.5795 15
222 2 -3.96683 11.8533 -19.2833 20
223 2 -12.8746 0.25809 -15.9542 14
224 2 -5.27394 3.21338 -17.1196 15
225 2 -1.17807 12.0732 -20.5507 15
226 2 -14.5245 4.49927 -8.73028 17
227 2 -8.82231 6.9174 -21.033 14
228 2 -9.72033 0.117223 -17.8757 13
229 2 -7.96618 9.98545 -21.9759 13
230 2 -12.2743 15.7323 -8.86584 22
231 2 -16.3885 3.58481 -14.6144 11
232 2 -14.0075 17.6976 -14.1505 13
233 2 -14.6945 4.52966 -5.65544 13
234 2 -15.0798 6.22566 -14.6097 18
235 2 -5.53508 0.430221 -7.87474 15
236 2 0.900017 13.2765 -15.0901 15
237 2 -5.60198 15.4626 -8.1488 19
238 2 -12.2203 8.64843 -2.38568 16
239 2 -17.0191 12.4638 -7.90265 16
240 2 -18.7436 10.583 -15.5164 13
241 2 -0.531216 15.2601 -16.6414 15
242 2 -18.9431 10.3853 -11.7541 12
243 2 -10.3089 16.7588 -18.8497 13
244 2 -2.7767 9.33963 -21.5706 12
245 2 -17.412 13.8408 -10.8542 13
246 2 -2.69239 4.69015 -16.9267 14
247 2 -12.4895 -1.48402 -13.3942 10
248 2 -14.0749 15.732 -5.80813 14
249 2 -6.67175 0.166405 -11.302 15
250 2 -6.75985 15.8684 -3.06571 11
251 2 -10.3032 18.0343 -13.2108 16
252 2 -11.8982 6.09551 -4.38564 16
253 2 -12.5186 14.5674 -18.841 16
254 2 0.719694 10.2545 -16.3585 15
255 2 -6.563 8.86264 -5.2721 19
256 2 -0.755105 15.8254 -13.598 12
257 2 -4.24306 17.0496 -4.33509 11
258 2 -16.8638 8.60553 -17.7337 15
259 2 -9.50902 13.7878 -3.27988 17
260 2 -3.55108 3.56177 -4.62669 14
261 2 -7.36485 16.9153 -20.2561 11
262 2 -11.296 11.6964 -2.23814 15
263 2 -5.16032 3.98527 -7.81963 22
264 2 -15.3438 10.135 -15.8755 19
265 2 -14.0677 13.5755 -15.9525 19
266 2 -15.5203 14.6318 -18.76 14
267 2 -10.3242 3.79308 -4.92767 20
268 2 -9.57058 17.3597 -5.78981 13
269 2 -13.1856 5.50291 -17.416 19
270 2 -0.629439 7.97592 -11.2882 15
271 2 -16.0201 16.3342 -16.5998 11
272 2 0.276908 7.96285 -14.6341 12
273 2 -11.9168 4.45182 -7.41108 24
274 2 -14.5123 1.30463 -13.7965 10
275 2 -8.71682 17.0836 -16.0643 16
276 2 -15.6931 15.5073 -8.7128 16
277 2 -4.24424 6.82102 -2.62483 13
278 2 -17.8135 9.67063 -6.24236 11
279 2 -10.8631 14.5666 -5.97848 23
280 2 -15.9412 15.1037 -13.9938 16
281 2 -3.45509 17.4439 -12.5553 13
282 2 -12.711 14.3378 -3.56297 13
283 2 -10.5784 6.32528 -1.14767 13
284 2 -13.8411 9.21813 -20.9131 13
285 2 -9.35245 14.4198 -20.0133 16
286 2 -9.569 2.4468 -15.3886 20
287 2 -4.33189 13.9542 -4.15283 11
288 2 -1.57521 15.801 -10.3153 13
289 2 -2.67613 1.7734 -7.41976 12
290 2 -1.49456 12.1863 -15.1835 16
291 2 -9.89904 9.1663 -4.71353 21
292 2 -8.61121 4.86323 -0.756879 11
293 2 -16.5058 5.47839 -17.1992 14
294 2 -9.17056 16.7117 -10.8645 21
295 2 -16.3739 11.4218 -3.40103 10
296 2 -17.0716 6.959 -8.09612 14
297 2 -10.1233 -1.6773 -11.9861 12
298 2 -3.25924 8.44992 -5.53119 24
299 2 -12.4486 12.3649 -22.2491 10
300 2 -2.8379 15.2292 -20.4005 15
301 2 -6.91889 -2.03282 -16.6695 9
302 2 -1.87416 6.04337 -4.42136 14
303 2 -7.88591 13.0911 -1.36207 8
304 2 -6.27304 18.4935 -17.6516 10
305 2 -11.5522 2.91097 -17.4284 16
306 2 -11.4665 19.2347 -9.74064 14
307 2 -11.422 17.6164 -15.6443 15
308 2 -17.6488 13.6645 -15.9364 12
309 2 -14.0079 10.8291 -1.59459 9
310 2 -6.33226 13.7657 -21.3573 13
311 2 -6.78304 6.27629 -18.339 16
312 2 -13.4932 17.321 -17.9541 12
313 2 -15.3943 12.7358 -20.9526 10
314 2 -5.48932 5.72089 -5.66653 20
315 2 -8.40847 6.56062 -3.88072 17
316 2 -13.7971 6.22467 -2.63615 11
317 2 -8.29187 0.717613 -5.60024 13
318 2 -18.9004 9.68886 -8.73303 11
319 2 -14.4027 3.13797 -3.00213 9
320 2 -8.59248 0.490793 -8.88367 17
321 2 -2.08772 9.20716 -3.15323 11
322 2 -1.56853 5.38147 -14.396 16
323 2 -12.4906 17.1149 -11.6184 17
324 2 -15.014 6.63698 -19.4624 12
325 2 -15.1273 11.4976 -5.55265 19
326 2 -5.51753 3.69581 -2.0903 10
327 2 -3.37188 12.6168 -22.0556 9
328 2 -4.33612 18.0892 -6.61206 10
329 2 -0.329486 9.25068 -5.11865 11
330 2 -2.56813 7.61346 -19.1153 13
331 2 -6.06312 2.45362 -5.50723 14
332 2 -3.07136 17.039 -18.0313 15
333 2 -17.6626 7.75803 -14.5903 14
334 2 -17.9226 7.80959 -11.3165 12
335 2 -2.16329 2.95059 -12.3695 14
336 2 -5.373 17.1718 -15.3346 17
337 2 0.0454511 13.1516 -11.512 13
338 2 -3.81306 14.3932 -15.9541 21
339 2 -2.13151 10.0133 -17.3416 23
340 2 -1.08918 2.16766 -9.57066 9
341 2 -7.71382 -0.800578 -13.9099 15
342 2 -6.72613 18.0053 -12.1892 17
343 2 -7.03339 18.4949 -5.32738 11
344 2 -11.021 1.38743 -7.08884 19
345 2 -13.5956 2.11891 -6.01718 14
346 2 -1.94775 11.8299 -5.57516 14
347 2 0.955342 12.5189 -18.4875 12
348 2 -14.1583 11.3124 -18.5877 18
349 2 -10.2907 -1.05836 -15.0548 15
350 2 -0.267553 7.16776 -17.1058 16
351 1 -11.2585 3.4533 -15.1477 20
352 1 -13.4624 5.72785 -15.4428 22
353 1 -10.0225 8.07716 -17.9677 25
354 1 -8.5078 5.30908 -17.8314 22
355 1 -8.2319 3.52223 -14.7982 24
356 1 -9.81834 6.41126 -14.9393 23
357 2 -11.8277 3.06924 -13.3437 20
358 2 -13.1846 6.54032 -12.3459 19
359 2 -13.3352 8.06178 -15.9986 20
360 2 -11.4889 5.49059 -15.3608 21
361 2 -10.1304 6.25468 -18.4217 19
362 2 -8.41847 3.76009 -12.7951 23
363 2 -10.1251 6.33187 -12.9148 23
364 2 -10.1073 8.12728 -15.9567 22
365 2 -7.98177 5.52264 -15.7603 25
366 1 -13.4609 8.40957 -12.6154 23
367 1 -11.538 5.62893 -11.9554 23
368 1 -11.4379 3.9379 -9.44328 22
369 1 -13.6633 6.56696 -9.95151 23
370 1 -13.885 8.68216 -7.30926 18
371 1 -12.1367 6.32 -7.14128 22
372 1 -9.92588 2.65138 -12.2964 21
373 1 -10.3708 8.43466 -12.2681 26
374 1 -8.58349 5.57751 -11.8819 22
375 1 -8.37979 3.59319 -9.37131 22
376 1 -10.3504 6.71886 -9.44143 21
377 1 -10.2439 8.85257 -6.93897 23
378 1 -8.6501 5.90461 -7.07767 20
379 2 -13.7259 6.7201 -7.92357 19
380 2 -13.9293 8.52806 -10.5555 21
381 2 -11.7493 5.75911 -10.0743 20
382 2 -9.99486 2.64175 -10.2492 24
383 2 -8.31879 3.67088 -6.86721 21
384 2 -10.2 6.89526 -7.37775 22
385 2 -10.226 8.55247 -10.3025 23
386 2 -8.5074 5.85683 -9.9366 23
387 2 -13.2652 8.78098 -5.20695 19
388 1 -12.2804 10.7144 -18.1411 20
389 1 -11.666 9.15572 -15.3821 23
390 1 -14.0996 11.6115 -15.7445 19
391 1 -12.1789 14.4354 -16.3634 21
392 1 -8.89649 10.84 -18.1204 18
393 1 -8.34441 9.14676 -15.5438 23
394 1 -10.5141 12.1751 -15.8157 23
395 1 -8.72751 15.0816 -15.7855 19
396 2 -15.2802 8.77895 -13.1782 18
397 2 -11.8193 8.79329 -18.8181 21
398 2 -11.6032 9.45862 -13.2413 20
399 2 -13.6687 11.8708 -13.5455 21
400 2 -12.2159 10.9908 -15.8505 18
401 2 -12.1461 15.1235 -14.1236 21
402 2 -8.47511 8.70599 -18.8756 22
403 2 -10.736 11.8745 -18.2824 18
404 2 -9.04431 9.31884 -13.412 22
405 2 -10.4174 12.1164 -13.598 21
406 2 -10.2942 14.4311 -16.6216 20
407 2 -8.7009 10.9228 -16.1532 21
408 2 -8.67282 14.9928 -13.7756 23
409 1 -15.8794 10.7245 -13.3099 18
410 1 -15.4804 9.59415 -10.1035 21
411 1 -13.9184 14.2166 -13.9123 19
412 1 -12.067 11.1872 -12.7921 22
413 1 -12.4917 9.52189 -9.63416 22
414 1 -14.0665 12.4182 -11.1134 19
415 1 -12.1274 11.6334 -7.40558 20
416 1 -12.7738 15.212 -11.0154 22
417 1 -10.5715 14.0426 -13.3969 21
418 1 -8.69972 11.2253 -13.034 22
419 1 -8.68249 9.68137 -10.0363 21
420 1 -10.6604 12.2599 -10.4276 20
421 1 -10.9136 14.4058 -8.3525 19
422 1 -8.96055 11.4874 -7.62883 23
423 1 -8.68402 8.52831 -3.44701 18
424 1 -9.43924 14.7454 -10.7069 20
425 2 -15.5321 11.2182 -11.0883 19
426 2 -11.9545 9.73547 -7.31952 23
427 2 -13.3298 13.402 -7.67301 18
428 2 -14.4856 14.234 -11.6363 20
429 2 -12.4116 11.2677 -10.7358 22
430 2 -8.57793 9.53954 -7.89459 23
431 2 -10.5837 12.3504 -8.38647 24
432 2 -11.1867 14.0972 -11.1354 21
433 2 -8.8616 11.4598 -11.0407 24
434 2 -11.1303 3.03532 -1.61638 12
435 2 -9.07752 15.0944 -8.71937 21
436 1 -6.92205 8.10491 -17.6359 24
437 1 -5.06875 3.56165 -14.4475 23
438 1 -6.65779 6.4583 -14.5923 24
439 1 -3.37042 6.29291 -15.0979 20
440 2 -6.16713 8.38849 -20.9547 12
441 2 -4.94805 3.60079 -12.5965 21
442 2 -7.10531 6.74804 -12.6383 20
443 2 -6.61645 8.14698 -15.7051 23
444 2 -5.01212 5.43308 -14.6519 19
445 2 -3.4442 6.68007 -12.7011 21
446 2 -3.86854 7.99685 -15.9886 22
447 1 -6.51661 2.49 -12.2077 22
448 1 -7.21323 8.61808 -12.2169 25
449 1 -5.1713 5.72559 -12.4548 19
450 1 -5.43841 3.75139 -9.77401 18
451 1 -6.6302 6.76538 -9.86336 23
452 1 -6.75965 8.88423 -7.26896 23
453 1 -5.03426 6.00193 -7.66219 18
454 1 -3.38431 8.58443 -12.7487 19
455 1 -1.41435 6.12204 -12.5825 17
456 1 -3.42716 6.32259 -10.4021 21
457 1 -3.1746 8.48341 -7.47213 20
458 2 -6.91861 2.80772 -10.3146 20
459 2 -6.958 6.68653 -7.6281 21
460 2 -6.89537 9.04637 -10.4239 23
461 2 -5.18884 5.75699 -10.4151 21
462 2 -1.34749 3.98372 -6.71661 11
463 2 -3.26776 6.62689 -8.52187 20
464 2 -3.54731 8.60674 -10.7311 25
465 2 -1.50763 5.48062 -10.8398 15
466 1 -5.21076 11.1785 -17.8597 23
467 1 -4.9828 9.36004 -15.1519 23
468 1 -7.10681 12.0514 -15.4662 22
469 1 -5.50207 15.2489 -15.2455 19
470 1 -1.55412 10.4464 -15.591 23
471 1 -3.98369 12.5905 -15.2103 20
472 2 -5.56584 9.26364 -18.3842 20
473 2 -7.09554 11.8863 -18.6374 19
474 2 -5.39663 9.26852 -12.878 21
475 2 -7.06629 12.0111 -13.3686 22
476 2 -7.06124 13.8649 -16.2599 20
477 2 -5.43162 11.0019 -15.7875 21
478 2 -5.42224 15.1091 -13.1676 21
479 2 -2.09759 9.95017 -13.3975 22
480 2 -3.78574 12.6573 -13.4023 21
481 1 -7.21959 13.9008 -13.0404 21
482 1 -5.42027 11.1901 -12.6163 24
483 1 -5.12918 9.54541 -10.0346 22
484 1 -7.1208 12.297 -10.3232 22
485 1 -7.48044 14.3331 -7.65914 22
486 1 -5.54302 11.3104 -7.60221 20
487 1 -4.16039 14.3508 -8.0601 20
488 1 -3.96609 14.2272 -12.3581 23
489 1 -1.98365 11.8485 -12.9796 19
490 1 -1.92419 9.49577 -10.026 21
491 1 -3.55179 12.2528 -10.0644 22
492 2 -4.95268 9.3368 -7.89941 22
493 2 -7.17301 12.2999 -8.27757 25
494 2 -7.62108 14.0128 -11.1483 23
495 2 -5.41289 11.458 -10.7337 22
496 2 -6.04216 11.5105 -5.51521 19
497 2 -1.6729 9.58945 -7.93318 20
498 2 -3.70432 12.3552 -7.8766 21
499 2 -3.94453 14.2662 -10.2634 20
500 2 -1.9559 11.3279 -10.8229 22
