ITEM: TIMESTEP
71000
ITEM: NUMBER OF ATOMS
1500
ITEM: BOX BOUNDS pp pp pp
-30.0 30.0
-30.0 30.0
-30.0 30.0
ITEM: ATOMS id type x y z Coordination
1 1 -14.8767 -0.787727 -7.07979 9
2 1 -13.7494 -3.06227 -6.2867 14
3 1 -13.6701 -5.33799 -3.40272 14
4 1 -15.3954 -2.1902 -3.92415 10
5 1 -11.6852 -7.04335 -5.93016 16
6 1 -10.2373 -9.63878 -5.76571 17
7 1 -10.4867 -11.8623 -2.50418 13
8 1 -11.7507 -8.49143 -2.89221 16
9 1 -11.8494 -0.676485 -11.419 8
10 1 -11.4195 -2.58305 -8.44686 18
11 1 -10.1732 -5.8201 -8.57395 20
12 1 -13.3884 2.49017 -5.76526 15
13 1 -12.1042 -0.722736 -5.90696 19
14 1 -10.3555 -3.94616 -5.92113 22
15 1 -10.6602 -5.57935 -3.07392 23
16 1 -12.2628 -2.38082 -3.07197 24
17 1 -8.25836 -12.6046 -5.33881 14
18 1 -8.08111 -6.61195 -11.174 14
19 1 -4.86519 -10.048 -10.131 15
20 1 -6.96826 -11.1165 -8.17999 16
21 1 -8.09654 -8.43471 -9.15124 16
22 1 -8.55794 -6.87132 -5.63613 22
23 1 -7.0348 -9.49309 -5.48008 23
24 1 -7.29925 -11.5122 -2.6371 20
25 1 -8.65848 -8.73757 -3.17974 22
26 1 -6.02942 -8.80061 -13.1506 8
27 1 -10.0595 -3.80328 -11.4644 11
28 1 -8.90983 -0.53868 -11.0263 17
29 1 -6.77624 -3.9819 -11.0761 20
30 1 -6.77641 -5.61079 -8.27944 24
31 1 -8.46762 -2.91751 -8.18123 24
32 1 -8.80612 -0.623266 -5.98285 20
33 1 -6.89833 -3.77973 -5.89999 22
34 1 -7.22878 -5.82139 -3.04927 22
35 1 -8.69111 -2.67752 -3.34172 22
36 1 -5.55516 -12.8008 -6.2938 13
37 1 -6.12885 -14.429 -3.47509 11
38 1 -4.98899 -6.64027 -11.0845 24
39 1 -3.11377 -9.22041 -13.0302 12
40 1 -3.35366 -11.8135 -8.4479 14
41 1 -5.06907 -8.22664 -7.92982 20
42 1 -4.91128 -6.64488 -5.46486 21
43 1 -3.76542 -9.74958 -5.61972 22
44 1 -3.9532 -11.6427 -2.79096 21
45 1 -5.5867 -8.79496 -3.03131 19
46 1 -3.82221 -5.73122 -13.6476 16
47 1 -5.34262 -2.53933 -13.6205 14
48 1 -5.46253 -0.927531 -11.3173 20
49 1 -3.7379 -3.87344 -11.1515 24
50 1 -3.45315 -5.6779 -8.39505 22
51 1 -5.33776 -2.90604 -8.49949 22
52 1 -5.36883 -1.03233 -5.81402 24
53 1 -3.72015 -3.63011 -5.89828 22
54 1 -3.83288 -5.6476 -2.9813 23
55 1 -5.5496 -2.93082 -3.21737 22
56 1 -2.12457 -12.4265 -5.85584 18
57 1 -1.2048 -14.5444 -7.32407 13
58 1 -2.47777 -14.6415 -3.99537 12
59 1 0.218358 -8.57177 -13.2647 12
60 1 -2.04029 -7.16265 -11.1973 24
61 1 -0.300137 -10.4235 -10.7903 15
62 1 -0.0920852 -11.5397 -8.07012 18
63 1 -2.04751 -8.62249 -8.34343 22
64 1 -1.83187 -6.62541 -5.71114 22
65 1 -0.549591 -9.16016 -5.97038 22
66 1 -0.689474 -11.3611 -3.61523 20
67 1 -1.94942 -8.48728 -3.00197 23
68 1 -0.858208 -5.85312 -13.5949 15
69 1 -2.32283 -2.9241 -13.9218 17
70 1 -1.98361 -0.981965 -11.2357 23
71 1 -0.509501 -3.87774 -11.3219 23
72 1 -0.55325 -5.37338 -8.32815 23
73 1 -2.01472 -2.59813 -8.35922 23
74 1 -2.02561 -0.778687 -5.5876 23
75 1 -0.482776 -3.4817 -5.85856 21
76 1 -0.34707 -5.74294 -3.06488 25
77 1 -2.23817 -2.8073 -2.98964 25
78 2 -12.0347 -2.47481 -6.29693 18
79 2 -13.5417 -5.47602 -1.25285 15
80 2 -15.2612 -1.19022 -2.41139 12
81 2 -15.2145 -2.0033 -5.69311 12
82 2 -14.2162 -3.52897 -3.46759 14
83 2 -9.873 -8.82434 -9.53215 11
84 2 -8.45724 -4.85639 -11.5555 13
85 2 -13.5327 -3.81553 -8.00515 11
86 2 -12.0054 -8.73721 -1.08807 16
87 2 -12.2802 -6.34237 -4.23394 15
88 2 -10.6098 -9.84151 -3.89826 18
89 2 -9.98174 -5.78815 -6.2856 21
90 2 -13.7033 0.583867 -6.57252 14
91 2 -11.6829 -0.882262 -9.13195 17
92 2 -10.108 -3.88563 -9.02779 18
93 2 -10.8126 -5.60532 -1.11818 20
94 2 -12.1449 -2.51328 -1.04953 23
95 2 -12.2198 -0.72165 -3.88078 21
96 2 -10.4909 -3.64841 -3.64572 19
97 2 -9.08624 -12.1319 -3.53543 15
98 2 -7.53939 -11.2653 -6.40757 15
99 2 -8.64367 -8.8558 -5.8277 18
100 2 -8.02565 -6.65031 -9.22148 19
101 2 -6.46519 -9.40548 -9.2168 17
102 2 -7.21811 -11.4434 -0.503275 19
103 2 -9.03476 -8.63034 -1.24546 25
104 2 -9.13605 -6.87811 -3.6391 22
105 2 -7.06318 -9.81538 -3.45345 22
106 2 -6.58342 -7.15188 -11.9843 14
107 2 -11.2544 -2.32229 -11.8498 8
108 2 -6.71788 -5.72541 -5.96584 22
109 2 -8.93433 -2.55827 -6.4302 20
110 2 -8.49841 -0.76584 -9.11032 20
111 2 -6.95094 -3.88867 -9.17713 22
112 2 -7.22449 -5.63234 -1.20826 24
113 2 -8.86487 -3.04644 -1.0762 22
114 2 -8.91664 -0.766998 -3.90333 21
115 2 -7.13174 -3.76951 -3.80927 23
116 2 -5.30442 -11.9568 -8.23114 14
117 2 -4.1085 -14.9463 -3.36695 11
118 2 -6.68587 -13.7792 -5.32481 11
119 2 -5.97434 -12.9052 -2.37706 16
120 2 -4.66987 -7.52539 -13.5724 10
121 2 -3.9587 -11.6439 -6.01473 19
122 2 -5.40608 -8.58821 -6.12097 21
123 2 -5.14737 -6.54952 -9.07899 24
124 2 -3.5741 -9.80519 -8.69788 20
125 2 -3.71118 -11.7562 -0.785095 19
126 2 -5.4035 -8.7765 -1.04404 23
127 2 -5.59686 -6.74585 -3.33367 21
128 2 -3.40565 -9.79615 -3.39055 19
129 2 -3.4033 -5.81735 -11.683 21
130 2 -5.43913 -2.95955 -11.6666 18
131 2 -5.79665 -0.610492 -13.4519 13
132 2 -4.31276 -3.9691 -13.846 14
133 2 -3.61292 -5.50845 -6.31676 24
134 2 -5.18557 -2.68406 -6.544 24
135 2 -5.04546 -1.19771 -9.24278 23
136 2 -3.44706 -3.68754 -8.98172 24
137 2 -3.78738 -5.85714 -1.1122 25
138 2 -5.33866 -2.76891 -1.24147 23
139 2 -5.40747 -1.01038 -3.8358 24
140 2 -4.02746 -3.94121 -3.80869 23
141 2 -1.71744 -12.8009 -8.02772 14
142 2 -4.68103 -9.71093 -12.0771 11
143 2 -1.60042 -15.026 -1.89477 14
144 2 -2.22042 -12.2917 -3.27547 20
145 2 -1.81188 -14.2883 -5.65145 14
146 2 -1.81846 -10.2017 -11.9598 11
147 2 -1.64208 -7.86793 -13.1985 13
148 2 -0.383217 -11.326 -5.98817 24
149 2 -2.38347 -8.39573 -6.47219 21
150 2 -2.10894 -6.76826 -9.29157 21
151 2 -0.464827 -9.68244 -8.80945 18
152 2 -0.504425 -11.6647 -0.727519 22
153 2 -2.11297 -8.4857 -0.844219 21
154 2 -1.97801 -6.62445 -3.68255 22
155 2 -0.509382 -9.43633 -3.88652 25
156 2 -0.320707 -5.87421 -11.5114 20
157 2 -2.29074 -2.87183 -11.6198 22
158 2 -2.34289 -1.17589 -14.5758 16
159 2 -0.690279 -3.99388 -13.9432 16
160 2 -0.415674 -5.63831 -6.4213 23
161 2 -2.12334 -2.56278 -6.50609 24
162 2 -1.83527 -0.64749 -9.15331 21
163 2 -0.400435 -3.71719 -8.95903 24
164 2 -0.563301 -5.76376 -1.00364 22
165 2 -2.16514 -2.99467 -1.05771 23
166 2 -1.85231 -0.962251 -3.3977 21
167 2 -0.331846 -3.82235 -3.98844 25
168 1 -13.7754 -5.48224 -8.68687 7
169 1 -11.4238 -8.4809 -8.38726 11
170 1 -15.5077 -0.542466 -0.581756 12
171 1 -13.7475 -3.56089 -0.468504 18
172 1 -14.0238 -5.6794 2.15223 13
173 1 -15.425 -2.74909 1.94764 12
174 1 -15.5421 -0.679839 5.10686 13
175 1 -13.8982 -3.4815 4.72331 18
176 1 -13.2891 -4.90457 8.26233 13
177 1 -12.2923 -6.84844 -0.503048 19
178 1 -10.7571 -9.68113 -0.0210022 18
179 1 -9.28433 -11.535 3.5693 14
180 1 -12.2266 -8.48256 2.61137 15
181 1 -12.3248 -6.13851 5.02617 18
182 1 -10.6009 -8.78511 5.10001 18
183 1 -12.1617 -7.97538 7.59187 10
184 1 -12.1457 -0.546547 -0.377476 24
185 1 -10.5833 -3.61124 -0.695744 21
186 1 -10.5456 -5.73088 1.74896 23
187 1 -12.4954 -2.61992 2.13729 23
188 1 -12.124 -0.865943 4.32956 21
189 1 -10.3551 -3.81832 4.77497 24
190 1 -9.97823 -5.17469 7.79019 21
191 1 -12.1107 -2.645 7.1725 22
192 1 -12.5489 -1.56487 9.81697 16
193 1 -7.0504 -10.1037 9.37457 11
194 1 -8.911 -12.4942 0.249886 13
195 1 -7.32602 -12.2199 6.3361 12
196 1 -9.09725 -6.5813 -0.433487 24
197 1 -7.36968 -9.57338 -0.355252 21
198 1 -6.86584 -10.9945 2.30096 18
199 1 -8.79999 -8.58044 2.3683 23
200 1 -8.78904 -6.50657 4.83391 24
201 1 -7.27211 -9.29376 5.08039 22
202 1 -4.6629 -14.1989 7.4483 13
203 1 -8.8073 -8.38513 7.58015 22
204 1 -10.6686 -10.9566 6.89698 10
205 1 -2.23476 -15.8543 7.82993 10
206 1 -8.90791 -0.974167 -0.654023 23
207 1 -7.06265 -3.67787 -0.729414 21
208 1 -7.19331 -5.65406 2.30744 26
209 1 -8.88412 -2.82018 2.05316 22
210 1 -8.68994 -0.767535 4.38683 21
211 1 -7.07299 -3.69546 4.7166 25
212 1 -7.12398 -5.66197 7.64186 26
213 1 -8.78627 -2.81061 7.40779 23
214 1 -9.01252 -6.88778 10.0151 14
215 1 -7.53352 -3.71062 10.2262 20
216 1 -6.8216 -5.07667 12.756 9
217 1 -10.465 -3.52965 10.2889 17
218 1 -5.52285 -12.5576 -0.374677 18
219 1 -3.7705 -15.0284 -1.42848 13
220 1 -5.06586 -14.2944 1.89734 12
221 1 -5.06219 -13.1157 4.38676 15
222 1 -3.45795 -15.7058 4.66725 11
223 1 -5.72408 -6.84188 -0.264188 22
224 1 -3.75433 -9.65877 -0.202574 23
225 1 -3.37057 -11.2414 2.61429 21
226 1 -5.31158 -8.27396 2.36092 23
227 1 -5.46437 -6.10161 5.08837 24
228 1 -3.83822 -9.43835 4.90052 23
229 1 -3.77684 -11.4556 7.04476 19
230 1 -5.49001 -8.62128 7.49919 21
231 1 -5.60334 -6.81195 9.95716 19
232 1 -4.02464 -9.79223 10.2194 14
233 1 1.47349 -9.94266 12.8076 11
234 1 -5.47662 -0.934872 -0.465469 25
235 1 -4.04561 -3.7463 -0.302054 23
236 1 -3.72438 -5.73588 2.24293 23
237 1 -5.43755 -3.03054 2.28544 23
238 1 -5.28299 -0.734885 4.6333 24
239 1 -3.6008 -3.85537 5.04017 24
240 1 -3.96174 -5.96556 7.57654 20
241 1 -5.40707 -2.99177 7.31536 23
242 1 -5.62973 -0.930537 10.002 22
243 1 -3.84145 -3.8807 10.029 20
244 1 -0.460252 -12.7255 11.3507 9
245 1 -3.63796 -5.89527 12.5775 11
246 1 -2.12045 -12.5453 -0.255293 20
247 1 -0.573331 -15.6078 -0.391334 12
248 1 -1.29377 -14.4545 2.77114 17
249 1 -2.08629 -12.7581 4.87936 23
250 1 -0.150525 -15.2294 5.6543 14
251 1 -3.22474 -12.9793 9.765 12
252 1 -0.288294 -9.53431 10.1981 17
253 1 -2.13508 -6.7654 -0.489186 23
254 1 -0.335526 -9.85627 -0.205304 24
255 1 -0.301851 -11.6471 2.53055 24
256 1 -1.89041 -8.5963 2.45653 22
257 1 -2.10429 -6.88908 4.86922 23
258 1 -0.340183 -9.72246 5.2152 26
259 1 -0.88417 -11.4025 8.14873 23
260 1 -2.26625 -8.65513 7.76094 22
261 1 -2.0863 -6.95516 10.3467 17
262 1 -0.0733232 -6.98028 12.9975 11
263 1 2.53589 -12.4446 10.9104 14
264 1 -2.05166 -1.12032 -0.701033 22
265 1 -0.546569 -4.00464 -0.186939 26
266 1 -0.315524 -5.91126 2.20144 20
267 1 -2.13667 -2.85528 2.28049 25
268 1 -2.06571 -0.638323 4.80606 23
269 1 -0.819963 -3.96012 4.9375 22
270 1 -0.668627 -5.7449 7.33105 22
271 1 -2.15458 -2.87491 7.4099 21
272 1 -2.38274 -0.991532 10.1458 23
273 1 -0.560308 -0.180417 12.4715 16
274 1 1.16036 -3.19466 13.0607 15
275 1 -2.14981 -2.76636 12.7555 15
276 2 -12.5288 -6.74888 1.57281 18
277 2 -11.7657 -8.8457 -6.52653 12
278 2 -13.6552 -5.32262 4.03945 15
279 2 -15.4185 -2.35242 3.89549 13
280 2 -14.8335 -1.30597 0.999945 14
281 2 -13.9303 -3.9101 1.51153 16
282 2 -15.66 -1.19474 6.84938 11
283 2 -13.5878 -3.79375 6.47063 17
284 2 -10.5672 -9.28068 1.92246 20
285 2 -10.3256 -10.6868 4.81573 16
286 2 -12.0766 -6.50228 -8.38086 11
287 2 -10.2401 -11.4048 -0.56369 12
288 2 -11.9179 -6.2576 7.69644 16
289 2 -12.2237 -8.00817 4.49397 15
290 2 -10.4693 -5.52437 4.15632 23
291 2 -11.9398 -2.74444 3.92075 22
292 2 -12.0398 -0.422949 1.6414 22
293 2 -10.4874 -3.75263 1.15988 25
294 2 -10.7377 -9.13185 7.1716 12
295 2 -13.9795 -0.65931 8.86227 12
296 2 -12.2151 -0.980335 6.27849 22
297 2 -10.4474 -3.77093 6.57454 24
298 2 -12.5106 -3.19354 9.0705 15
299 2 -8.40033 -12.0762 2.07601 14
300 2 -5.32862 -12.6407 6.42275 19
301 2 -7.45167 -11.3014 4.53085 16
302 2 -8.74625 -8.27319 4.45817 22
303 2 -8.78567 -6.58672 1.50676 22
304 2 -6.95076 -9.18822 1.69547 22
305 2 -0.478838 -15.3562 7.60103 11
306 2 -8.99369 -11.9863 7.1962 11
307 2 -8.71961 -6.47547 6.89569 25
308 2 -7.11084 -9.53407 6.77753 23
309 2 -8.6144 -8.70599 9.48573 13
310 2 -7.03961 -5.73742 4.26693 24
311 2 -8.49045 -2.72224 3.80922 23
312 2 -8.99688 -1.13662 1.21933 23
313 2 -7.21961 -3.84674 1.49811 24
314 2 -7.43342 -5.67779 9.6511 20
315 2 -8.9777 -2.76876 9.28673 23
316 2 -8.76046 -1.00226 6.55673 23
317 2 -7.27581 -3.73831 6.89167 22
318 2 -8.6045 -0.327354 12.5964 13
319 2 -5.63517 -6.38101 12.1512 11
320 2 -4.57788 -14.7752 3.57461 14
321 2 -5.23095 -11.9862 2.51828 19
322 2 -4.43865 -14.4403 0.286785 11
323 2 -3.5596 -16.0019 6.52166 12
324 2 -3.59752 -11.5225 4.62962 18
325 2 -5.77302 -8.36224 4.42963 23
326 2 -5.28165 -6.43617 1.64894 20
327 2 -3.56548 -9.39331 1.73105 23
328 2 -1.96259 -12.4524 6.92933 23
329 2 -4.11005 -11.381 9.07113 15
330 2 -5.57711 -6.61434 6.7691 25
331 2 -3.7768 -9.52414 6.88607 22
332 2 -5.79955 -8.71415 9.47682 18
333 2 -1.39102 -12.3656 9.8629 15
334 2 -3.77572 -5.61926 4.19434 25
335 2 -5.23275 -2.97903 4.3443 23
336 2 -5.38906 -0.863052 1.63459 22
337 2 -3.83038 -3.72362 1.77401 21
338 2 -3.75042 -6.09433 9.6847 22
339 2 -5.36641 -2.92613 9.51838 24
340 2 -5.26078 -1.2469 6.72163 22
341 2 -3.65985 -4.15287 6.95646 22
342 2 -3.14784 -14.3212 8.56068 12
343 2 -9.91023 -5.3795 9.68449 16
344 2 -7.30633 -3.31413 12.0251 13
345 2 -1.95149 -6.67465 12.7564 12
346 2 -1.63487 -15.2045 4.51985 15
347 2 -1.93165 -12.7436 1.65016 21
348 2 -0.236944 -15.4591 1.5692 14
349 2 0.808411 -12.596 7.08428 18
350 2 -0.412863 -11.6017 4.42752 23
351 2 -2.03563 -8.84151 4.4642 23
352 2 -2.01682 -6.61465 1.82054 22
353 2 -0.420975 -9.94153 1.77899 24
354 2 4.47484 -12.301 6.83498 16
355 2 -2.19135 -8.87012 9.90266 18
356 2 -2.41645 -6.85157 6.72483 23
357 2 -0.548728 -9.3879 7.2781 20
358 2 1.26417 -8.04942 12.0802 16
359 2 3.16366 -10.6335 12.0971 14
360 2 -0.498352 -5.84264 4.27888 25
361 2 -2.18658 -2.49976 4.19289 22
362 2 -1.94777 -1.16814 1.2754 25
363 2 -0.490279 -3.91917 1.74836 23
364 2 -0.755574 -5.8359 10.0558 21
365 2 -2.17278 -2.85196 9.42187 24
366 2 -2.19146 -1.03779 6.82535 23
367 2 -0.499077 -3.92744 7.09453 22
368 2 1.08432 -13.6964 10.3111 12
369 2 0.68154 -5.29053 13.3244 13
370 2 0.921172 0.976164 11.0997 16
371 2 -0.445751 -2.74531 11.8855 15
372 1 -12.017 3.85423 -8.56342 14
373 1 -14.461 7.20027 -5.16881 10
374 1 -13.981 0.32734 -3.16716 19
375 1 -15.4544 3.94768 -3.13737 12
376 1 -12.6556 9.59304 -6.75281 11
377 1 -13.3513 6.08126 -3.03005 19
378 1 -11.0566 2.41041 -11.1839 12
379 1 -10.403 0.527849 -8.67051 20
380 1 -13.2568 7.09951 -8.48514 11
381 1 -11.843 5.11605 -5.77372 23
382 1 -10.6153 2.32967 -6.08452 22
383 1 -10.6692 0.495721 -3.35232 20
384 1 -12.0197 3.28501 -2.86224 23
385 1 -9.79564 6.26559 -8.19072 21
386 1 -10.2833 7.86066 -5.58178 20
387 1 -10.0599 5.78992 -2.97345 24
388 1 -11.7862 9.04283 -3.40125 18
389 1 -11.911 12.6116 -4.4586 8
390 1 -7.30944 0.489241 -13.5728 13
391 1 -8.48174 3.33604 -13.2495 12
392 1 -9.13472 5.28257 -11.1451 17
393 1 -6.73392 2.27562 -11.0268 23
394 1 -6.64888 0.204659 -8.41882 21
395 1 -8.57143 2.88806 -8.46841 22
396 1 -8.52666 5.09558 -5.94921 25
397 1 -7.02214 1.83428 -6.03573 22
398 1 -6.95319 -0.0359214 -3.33759 22
399 1 -8.60675 2.84945 -3.61858 22
400 1 -8.04657 7.97591 -10.4277 15
401 1 -7.15979 6.60926 -13.5581 11
402 1 -6.80526 5.61558 -8.44158 21
403 1 -10.1589 8.87196 -9.48649 11
404 1 -8.96825 10.3443 -5.6198 18
405 1 -6.78819 7.81113 -5.76174 22
406 1 -6.77095 5.68252 -3.02608 25
407 1 -8.36052 8.58663 -3.32536 22
408 1 -7.01255 10.2587 -8.34259 13
409 1 -8.41969 12.909 -4.8793 9
410 1 -6.86294 11.3319 -2.90746 20
411 1 -3.95362 0.113662 -13.8954 16
412 1 -5.46385 3.44248 -13.5641 17
413 1 -5.30301 5.13633 -10.8499 23
414 1 -3.75546 1.90656 -10.9135 24
415 1 -3.51766 -0.058433 -8.35033 25
416 1 -5.02884 2.96034 -8.31339 23
417 1 -5.17518 4.80351 -5.84348 25
418 1 -3.60484 1.98474 -5.9501 23
419 1 -3.65887 -0.0208397 -3.07107 22
420 1 -5.322 2.51404 -3.26552 24
421 1 -3.43336 5.83359 -13.8432 16
422 1 -3.61864 10.9578 -8.5146 16
423 1 -3.10151 7.14184 -11.2834 21
424 1 -3.15163 5.75773 -8.46305 23
425 1 -5.22868 8.36096 -9.52924 19
426 1 -5.47459 10.3996 -5.8237 21
427 1 -3.39333 7.54744 -5.83484 22
428 1 -3.5993 5.47401 -3.06338 24
429 1 -5.25033 8.72098 -3.25473 22
430 1 1.65143 14.8566 -7.72843 10
431 1 -3.32747 13.1664 -5.7769 16
432 1 -3.55393 11.5387 -3.12447 24
433 1 -5.56365 14.5345 -3.47876 11
434 1 -0.490081 -0.189441 -14.2803 15
435 1 -1.95001 2.7098 -13.8097 18
436 1 -1.73082 4.56792 -11.1244 24
437 1 -0.351154 1.8968 -10.9327 24
438 1 -0.116932 -0.00956578 -8.24371 26
439 1 -1.60878 2.83672 -8.46621 24
440 1 -1.7888 4.75195 -5.7036 23
441 1 -0.128898 1.89596 -5.77898 23
442 1 0.0600103 -0.196172 -2.95612 23
443 1 -1.83694 2.67955 -3.23178 21
444 1 -0.586814 5.45628 -13.641 15
445 1 -5.70166 8.88393 -12.6705 11
446 1 -2.69634 9.86174 -10.9344 13
447 1 0.074373 7.84633 -11.2646 19
448 1 0.141421 5.73738 -8.56935 24
449 1 -1.70225 8.53007 -8.46434 25
450 1 -1.91855 10.3894 -5.81124 23
451 1 0.12693 7.81762 -5.97576 23
452 1 -0.155793 5.35647 -3.3925 22
453 1 -2.10307 8.34193 -3.50854 25
454 1 -0.313044 11.6494 -8.55261 16
455 1 -0.0121963 13.295 -5.80475 19
456 1 -0.383037 11.1748 -3.45605 22
457 1 -1.8826 14.0657 -3.45057 20
458 2 -15.0954 5.63248 -3.94552 11
459 2 -11.9737 5.7582 -8.70552 13
460 2 -13.7537 0.681738 -1.06169 19
461 2 -15.1883 3.63543 -1.20155 14
462 2 -13.0202 7.75396 -3.88221 16
463 2 -13.8048 2.40623 -3.81131 18
464 2 -11.1438 9.8468 -5.45263 14
465 2 -13.8444 6.26845 -1.19196 19
466 2 -11.6256 8.76577 -8.38245 12
467 2 -10.3421 0.578259 -11.4167 12
468 2 -10.531 0.418888 -6.54571 21
469 2 -12.0283 3.37713 -6.73172 18
470 2 -13.8084 7.72866 -6.74573 10
471 2 -10.5412 2.44788 -9.18717 17
472 2 -10.5715 0.128114 -1.26458 22
473 2 -11.8936 3.3987 -0.861086 21
474 2 -11.6425 5.05541 -3.50406 24
475 2 -10.4422 2.45671 -4.02743 22
476 2 -10.1756 5.90065 -6.29847 19
477 2 -9.61385 7.09137 -10.126 13
478 2 -7.12879 4.82931 -12.7578 15
479 2 -10.0692 5.66681 -1.04093 23
480 2 -11.5665 8.72738 -1.10496 19
481 2 -8.38877 10.5965 -3.84649 21
482 2 -10.0506 7.73386 -3.63868 22
483 2 -11.9834 11.4171 -2.98389 9
484 2 -7.11051 0.185672 -11.4137 17
485 2 -9.9566 3.77938 -12.0074 11
486 2 -6.93189 2.28661 -13.9562 11
487 2 -6.98669 0.00266257 -6.6368 24
488 2 -8.69809 3.3236 -6.626 23
489 2 -8.63309 4.69821 -9.11998 21
490 2 -6.97872 2.22527 -9.26741 21
491 2 -6.81983 0.232477 -1.3511 24
492 2 -8.49353 2.53709 -1.23331 22
493 2 -8.42446 4.92262 -3.99944 25
494 2 -6.91353 1.81513 -4.01296 23
495 2 -3.48026 5.36397 -11.9486 22
496 2 -6.75376 5.94159 -6.51362 20
497 2 -8.58518 8.52662 -6.08838 19
498 2 -8.48124 9.59047 -9.28737 13
499 2 -6.53512 6.81223 -9.98787 24
500 2 -7.08252 5.44542 -0.993643 22
501 2 -8.38386 8.58243 -1.31742 22
502 2 -10.2947 13.0378 -4.84602 7
503 2 -6.76533 7.61789 -3.82267 26
504 2 -7.14366 10.8544 -6.36096 15
505 2 -7.19984 11.5348 -0.850287 17
506 2 -6.79821 13.2323 -3.89284 14
507 2 -3.77074 -0.00807884 -11.9973 23
508 2 -5.13021 3.28839 -11.1438 20
509 2 -4.16231 8.79353 -11.436 16
510 2 -3.96389 1.9339 -13.746 16
511 2 -3.43263 0.0848926 -6.43563 24
512 2 -5.30915 2.79327 -6.41212 23
513 2 -5.08285 4.85407 -8.84414 20
514 2 -3.57634 1.71141 -8.93448 22
515 2 -3.67277 -0.298268 -1.14363 23
516 2 -5.24562 2.97867 -0.854101 22
517 2 -5.44957 4.36916 -3.69135 21
518 2 -3.61637 1.93711 -3.82852 24
519 2 -2.15783 4.61952 -13.9892 14
520 2 -7.59218 8.27897 -12.3356 12
521 2 -3.4018 5.55511 -6.52486 22
522 2 -4.76103 8.67466 -6.27475 24
523 2 -3.63438 11.5174 -6.49796 16
524 2 -3.26344 7.52478 -9.34487 23
525 2 -3.53852 5.62883 -1.08179 20
526 2 -5.30836 8.585 -1.14213 24
527 2 -5.24666 10.6045 -3.91784 23
528 2 -3.76102 7.40207 -3.71748 21
529 2 -3.77997 13.6605 -3.96861 16
530 2 -3.38175 11.4436 -1.21772 22
531 2 -5.38322 14.3142 -1.42316 13
532 2 1.34243 12.9104 -8.22494 13
533 2 -0.315688 0.0211503 -11.8321 22
534 2 -2.05063 2.7161 -11.7113 22
535 2 -5.1332 6.47861 -13.55 13
536 2 -0.556806 1.74026 -14.6039 16
537 2 -0.351702 -0.0777651 -6.42114 23
538 2 -1.74843 2.76445 -6.31202 24
539 2 -1.63998 4.65286 -9.04926 24
540 2 -0.0879655 1.84163 -8.92113 23
541 2 -0.200927 -0.283914 -1.05446 21
542 2 -1.86161 2.43205 -1.32819 25
543 2 -2.14801 4.67486 -3.61324 22
544 2 0.094582 1.52974 -3.79335 22
545 2 -0.186552 5.93672 -11.5992 21
546 2 -5.22774 10.4003 -9.14283 15
547 2 -0.113958 5.78815 -6.55432 25
548 2 -1.68517 8.42634 -6.50222 23
549 2 -1.92091 10.5452 -9.28201 16
550 2 0.0188232 7.75229 -9.26891 24
551 2 -0.533569 5.78836 -1.44327 22
552 2 -2.08757 8.68294 -1.38868 23
553 2 -2.14711 10.2943 -4.05658 24
554 2 -0.301038 7.18834 -4.06002 23
555 2 -0.552284 11.3744 -6.27963 20
556 2 0.369391 15.2545 -6.49626 12
557 2 -1.65657 8.45086 -11.6648 15
558 2 -0.514751 11.0561 -1.4987 23
559 2 -1.98201 14.2678 -1.25812 16
560 2 -0.0413127 12.9258 -3.69867 23
561 1 -15.4233 5.4508 -0.683716 12
562 1 -13.9606 2.417 -0.419318 20
563 1 -13.8999 0.211089 2.06308 20
564 1 -15.7226 3.23586 2.29889 14
565 1 -15.8859 5.04849 4.83596 11
566 1 -13.8444 1.83037 4.72298 19
567 1 -15.1177 -2.03462 8.33218 10
568 1 -13.2104 7.96881 -0.510408 15
569 1 -14.2276 6.07952 1.95488 17
570 1 -14.2331 7.73306 4.6935 14
571 1 -12.2888 3.31299 7.3182 18
572 1 -11.8851 5.34649 -0.174267 24
573 1 -10.4475 2.09436 -0.300711 24
574 1 -10.3434 0.151059 1.84948 23
575 1 -12.3482 3.11942 1.8565 21
576 1 -12.7471 4.73515 4.38703 21
577 1 -10.4769 2.25448 4.26175 20
578 1 -10.4116 -0.15238 6.91295 22
579 1 -13.5411 0.302141 7.28674 17
580 1 -12.6487 4.87395 9.95817 11
581 1 -10.9521 1.36476 9.91861 19
582 1 -10.528 -0.82364 12.2976 11
583 1 -11.9432 10.769 -1.10608 10
584 1 -10.1638 7.53109 -0.553952 24
585 1 -10.3279 6.03635 2.21118 24
586 1 -12.2465 8.72564 2.38728 18
587 1 -11.8206 10.3793 4.52374 12
588 1 -10.4258 7.72632 5.16581 22
589 1 -15.0264 6.69648 7.98796 7
590 1 -12.4248 7.94998 7.99874 13
591 1 -10.1087 7.04091 10.6062 11
592 1 -10.5441 11.5535 1.8715 12
593 1 -8.70539 4.47528 -0.490286 22
594 1 -6.95782 1.95287 -0.380315 22
595 1 -7.07245 -0.0934304 2.00446 21
596 1 -8.67769 2.81407 2.21883 25
597 1 -8.79524 4.93012 4.81464 22
598 1 -7.0752 2.35608 4.62775 21
599 1 -6.98666 -0.292503 7.08565 21
600 1 -8.91509 2.84959 7.33786 23
601 1 -10.5285 5.54504 7.46546 22
602 1 -7.18296 1.85206 9.9223 22
603 1 -8.93851 -1.03345 9.71753 20
604 1 -8.84459 1.55672 12.835 10
605 1 -8.61695 10.3181 -0.341504 20
606 1 -7.06254 7.431 -0.484848 22
607 1 -7.07786 5.93474 2.06437 23
608 1 -8.77224 8.79363 2.33722 24
609 1 -8.63744 10.5918 4.80385 20
610 1 -7.23498 7.53626 4.82724 21
611 1 -7.15673 5.61465 7.42225 23
612 1 -8.61023 8.34578 7.83891 21
613 1 -6.88865 7.2113 10.2042 15
614 1 -9.20504 4.21105 10.487 19
615 1 -6.83325 13.5306 -0.31669 13
616 1 -7.27889 11.698 2.0454 19
617 1 -6.77709 13.3075 5.47799 15
618 1 -9.66653 11.7048 7.17555 9
619 1 -5.21127 4.63817 -0.244038 22
620 1 -3.83876 1.59441 -0.716016 20
621 1 -3.52846 -0.25389 2.03546 23
622 1 -5.50186 2.97532 1.93314 25
623 1 -5.20085 5.07785 4.87446 21
624 1 -3.90608 2.27517 4.72186 23
625 1 -3.58438 0.0203882 7.4902 24
626 1 -5.32605 3.06788 7.37729 21
627 1 -5.45748 4.63189 10.2124 21
628 1 -3.79836 2.0567 10.187 23
629 1 -3.94445 0.311059 12.5869 13
630 1 -6.9073 -1.58639 12.944 11
631 1 -5.332 10.4125 -0.391271 24
632 1 -3.89001 7.44349 -0.448203 24
633 1 -3.34487 5.76438 2.15414 23
634 1 -5.45402 8.57152 2.12244 22
635 1 -5.62079 10.7572 4.47745 19
636 1 -3.83118 7.75714 4.61848 21
637 1 -3.49307 5.92895 7.53348 20
638 1 -5.64969 8.53689 7.18066 22
639 1 -6.56872 11.0393 8.00513 14
640 1 -4.09684 8.20095 9.99448 17
641 1 -5.92254 3.09936 12.4868 13
642 1 -3.87955 6.07971 12.4182 13
643 1 -3.6326 13.3156 -0.935901 20
644 1 -3.82514 11.5037 2.14294 22
645 1 -5.33879 14.2227 2.45048 15
646 1 -3.38676 13.8321 4.97682 17
647 1 -3.84529 11.6004 7.32336 17
648 1 -1.98187 4.32953 -0.849624 22
649 1 -0.286437 1.67342 -0.527007 24
650 1 -0.602743 -0.125363 2.22148 23
651 1 -2.14446 2.47726 2.05554 22
652 1 -1.79571 4.57899 4.68656 23
653 1 -0.180646 2.15841 4.9192 24
654 1 -0.4342 -0.265969 7.14969 21
655 1 -2.03862 2.79231 7.54209 22
656 1 -2.10429 4.97478 9.99729 20
657 1 -0.479997 1.60682 9.88922 22
658 1 0.653436 2.71398 12.6044 17
659 1 -2.3089 2.92532 12.4571 16
660 1 -1.99702 10.2457 -0.304853 24
661 1 -0.549176 7.4869 -0.837894 22
662 1 -0.467239 5.64037 1.91818 21
663 1 -2.22739 8.60973 2.32443 25
664 1 -2.24647 10.4618 4.79368 23
665 1 -0.472713 7.6327 4.57082 21
666 1 -0.214628 5.81114 7.0576 22
667 1 -2.10476 8.97456 7.25617 21
668 1 -3.01095 10.9389 10.0296 16
669 1 -0.685513 7.9586 9.95794 23
670 1 -0.678252 6.29297 12.5068 16
671 1 -2.22918 9.17455 12.4233 11
672 1 -1.17995 16.1605 -5.55246 11
673 1 -0.461579 12.9847 -0.556366 21
674 1 -0.505355 11.2367 2.29036 25
675 1 -1.84877 14.1959 1.88401 15
676 1 -0.582191 13.9806 4.65715 16
677 1 -0.666848 11.6305 7.5335 21
678 1 -2.25094 14.0853 7.98456 12
679 1 -0.934572 12.4481 10.8314 9
680 2 -14.0966 0.0316526 4.1057 19
681 2 -15.3363 3.43864 4.06227 13
682 2 -15.4957 4.65284 1.04692 14
683 2 -14.4427 2.07496 1.4656 18
684 2 -10.8229 -0.37704 9.18202 20
685 2 -13.6043 2.18489 6.55069 16
686 2 -14.1799 5.88747 3.87379 16
687 2 -13.5241 7.7044 1.56695 16
688 2 -10.3812 0.0738434 3.79783 23
689 2 -12.2613 2.60649 3.6822 22
690 2 -11.9981 4.98601 1.76448 23
691 2 -10.5618 2.24304 1.54271 23
692 2 -11.4549 -2.12473 11.3157 12
693 2 -13.1225 6.42794 8.8772 12
694 2 -15.9872 5.8254 6.50716 7
695 2 -10.3822 1.67862 6.18554 23
696 2 -12.212 3.1088 9.35587 15
697 2 -10.0629 6.05807 4.06257 21
698 2 -12.2928 8.46103 4.28231 18
699 2 -10.3828 11.1146 -0.130108 14
700 2 -10.4297 7.78479 1.38289 24
701 2 -10.6971 7.74042 7.26536 18
702 2 -13.8051 7.76367 6.51694 13
703 2 -12.0833 10.7122 2.68363 11
704 2 -7.05626 0.181882 3.98867 23
705 2 -8.78735 3.10261 4.1277 21
706 2 -8.66216 4.77089 1.58662 24
707 2 -7.19997 1.82453 1.56566 23
708 2 -7.16124 -0.176293 9.1079 22
709 2 -9.0061 2.87579 9.21659 20
710 2 -8.85021 4.86111 6.86995 23
711 2 -7.07449 1.74161 6.72335 23
712 2 -10.4126 1.12092 11.7939 13
713 2 -11.9585 4.90971 6.06995 22
714 2 -4.09163 2.16359 12.2742 16
715 2 -7.01645 5.78935 4.23243 24
716 2 -8.85879 8.73739 4.60103 21
717 2 -8.67644 10.5832 1.68404 17
718 2 -7.20591 7.94837 1.51484 23
719 2 -7.5022 5.26983 9.81277 22
720 2 -8.5927 7.88364 9.69166 13
721 2 -10.4046 11.026 5.49655 13
722 2 -7.18285 7.44747 6.69524 24
723 2 -10.7018 5.36513 9.85284 14
724 2 -7.20575 11.7908 4.15072 19
725 2 -6.67065 13.5544 1.54639 14
726 2 -8.59014 10.3789 7.87355 13
727 2 -8.4484 12.9089 6.3712 8
728 2 -3.61685 0.388093 4.12388 21
729 2 -5.23086 3.13747 3.93643 23
730 2 -5.5143 4.83562 1.63521 23
731 2 -3.72196 1.64075 1.32557 25
732 2 -4.0076 0.0769371 9.86691 20
733 2 -5.64203 2.80112 9.71329 20
734 2 -5.40333 4.77026 6.92086 23
735 2 -3.66119 1.84318 6.78842 23
736 2 -3.65208 -3.91847 12.4805 15
737 2 -7.52056 2.37117 11.7899 14
738 2 -5.41027 -0.704901 11.8916 17
739 2 -2.38792 -0.947638 12.2438 20
740 2 -3.44469 5.70981 4.3816 21
741 2 -5.70347 8.30743 4.1265 23
742 2 -5.44308 10.349 1.61245 25
743 2 -3.65056 7.46687 1.7501 21
744 2 -3.76423 5.80063 9.35361 24
745 2 -5.68993 8.39862 9.10128 19
746 2 -5.73235 10.6266 6.42333 22
747 2 -3.54737 7.62213 6.75271 22
748 2 -5.54828 4.98139 12.2146 13
749 2 -3.58733 7.82033 11.7985 15
750 2 -3.83077 11.2514 4.06663 23
751 2 -5.17874 13.8396 4.26314 13
752 2 -3.68587 13.5366 1.2842 18
753 2 -4.77386 11.149 9.01604 13
754 2 -3.37435 13.3933 6.83219 15
755 2 -0.733197 0.36146 4.05657 21
756 2 -2.16875 2.90635 3.98315 24
757 2 -2.00819 4.51789 1.33596 24
758 2 -0.449234 1.76303 1.56279 20
759 2 -0.41056 -0.578034 9.13351 24
760 2 -2.12309 2.78872 9.66141 23
761 2 -1.64358 4.50109 6.69103 23
762 2 -0.257946 1.81491 6.84485 22
763 2 4.42868 -1.24326 12.3148 18
764 2 7.81756 4.31689 12.9093 14
765 2 -2.18119 4.90693 11.9538 18
766 2 -0.946459 1.78182 12.7087 14
767 2 -0.00170499 5.7288 3.81913 24
768 2 -2.04368 8.61503 4.36262 21
769 2 -2.11786 10.4224 1.63323 22
770 2 -0.548531 7.77346 1.22343 24
771 2 -0.767307 6.13243 9.103 23
772 2 -2.36222 9.02147 9.13328 21
773 2 -2.2447 10.8012 6.90976 22
774 2 -0.0203573 7.66846 6.35921 24
775 2 -0.474141 8.23383 11.9263 15
776 2 -1.6607 10.8349 11.5065 14
777 2 0.969487 6.64479 13.7267 7
778 2 -0.568259 11.3408 4.31788 25
779 2 -2.13932 14.0805 3.6121 16
780 2 -1.71638 14.2926 -5.8361 13
781 2 -0.285179 13.2052 1.19422 20
782 2 -2.27247 12.7423 9.43506 13
783 2 -0.615839 14.2035 6.7342 15
784 1 1.25596 -12.5856 -5.5579 25
785 1 1.50828 -15.7824 -5.61334 9
786 1 0.405773 -14.5657 -2.78726 17
787 1 2.81583 -9.47183 -11.2391 14
788 1 1.41995 -6.42304 -10.5449 21
789 1 3.03071 -11.8843 -8.33798 14
790 1 2.0592 -14.4918 -7.93093 11
791 1 1.4027 -8.76152 -8.39195 21
792 1 1.37337 -6.44873 -5.6515 25
793 1 2.99555 -9.62512 -5.73921 25
794 1 2.65205 -11.4627 -2.88604 24
795 1 1.04722 -8.50778 -3.06777 22
796 1 2.52857 -5.73499 -13.6712 14
797 1 0.829019 -2.6779 -13.9926 18
798 1 1.58774 -1.00843 -10.929 24
799 1 2.72057 -3.62433 -11.0733 22
800 1 3.06186 -5.80888 -8.49464 22
801 1 1.57698 -2.58923 -8.21475 22
802 1 1.41296 -0.926798 -5.73734 23
803 1 3.04026 -3.87717 -5.64623 26
804 1 2.91014 -5.87772 -3.10872 24
805 1 1.32904 -2.90098 -3.29196 22
806 1 4.22549 -12.6389 -5.65597 19
807 1 3.53125 -14.201 -3.26995 16
808 1 4.79661 -6.80275 -11.286 18
809 1 6.62765 -9.40108 -11.1412 13
810 1 6.39081 -11.438 -8.06484 15
811 1 4.44871 -8.82538 -8.48272 24
812 1 4.80655 -6.70278 -5.7822 23
813 1 6.18577 -9.34328 -5.72923 22
814 1 6.05416 -11.5525 -3.21443 20
815 1 4.37104 -8.87627 -3.11621 22
816 1 4.10981 -3.034 -13.5979 16
817 1 2.72881 -1.46231 -16.1892 8
818 1 4.51885 -1.16216 -11.0203 26
819 1 6.03161 -4.16914 -10.8511 21
820 1 6.06883 -5.798 -8.4277 24
821 1 4.57393 -2.94165 -8.60117 22
822 1 4.82814 -0.995685 -5.72291 23
823 1 6.35253 -3.92943 -5.80748 23
824 1 5.87504 -5.67062 -3.0273 23
825 1 4.52535 -2.91966 -2.99303 21
826 1 8.14389 -12.2813 -5.22118 12
827 1 8.27181 -6.80419 -11.0648 16
828 1 7.85651 -8.53195 -8.75712 20
829 1 8.09797 -6.69936 -5.98327 22
830 1 9.41837 -9.83935 -6.65458 15
831 1 10.6572 -11.3575 -3.28992 12
832 1 7.8631 -8.68916 -3.22839 24
833 1 9.56868 -3.75406 -11.3252 15
834 1 7.97553 -1.33645 -11.6441 18
835 1 10.07 -9.78231 -11.0972 7
836 1 9.25627 -5.42428 -8.75389 21
837 1 7.50354 -2.58975 -8.35771 23
838 1 8.27435 -0.378705 -5.69338 21
839 1 9.64948 -3.64698 -5.82163 22
840 1 9.47582 -5.74601 -3.17713 23
841 1 7.8701 -2.79053 -3.29002 20
842 1 11.8606 -8.32487 -8.1935 10
843 1 11.6873 -6.1889 -6.49872 16
844 1 11.0951 -8.28773 -4.45332 17
845 1 11.7134 -1.53327 -11.0194 10
846 1 11.7178 -5.4731 -10.0642 12
847 1 11.1444 -2.71459 -8.32166 21
848 1 11.2526 -0.953265 -5.81773 24
849 1 13.4174 -3.50001 -6.08222 16
850 1 12.9154 -5.63356 -3.50034 15
851 1 11.2115 -2.83075 -3.22494 25
852 1 14.9784 -0.373616 -5.46986 15
853 1 15.0765 -3.1261 -3.71708 12
854 2 0.614371 -15.4872 -7.20901 9
855 2 1.20068 -12.7916 -8.33224 14
856 2 1.37015 -14.8656 -1.01012 15