ITEM: TIMESTEP
294000
ITEM: NUMBER OF ATOMS
1500
ITEM: BOX BOUNDS pp pp pp
-30.0 30.0
-30.0 30.0
-30.0 30.0
ITEM: ATOMS id type x y z Coordination
1 1 -11.5729 -8.65565 -5.55562 13
2 1 -18.2517 -3.213 6.10829 11
3 1 -17.9249 2.58823 -1.85355 8
4 1 -14.3704 0.881261 -5.5845 17
5 1 -7.19884 -8.65846 -12.7059 9
6 1 -5.68795 -4.90555 -9.13115 22
7 1 -14.4894 -7.74502 -3.83206 10
8 1 -12.4248 -9.31581 -8.8223 5
9 1 -8.07656 -2.41351 -10.0135 17
10 1 -15.7158 5.23004 -0.133421 14
11 1 -10.3151 -7.71601 -10.9966 9
12 1 -14.2332 -1.81442 -4.60717 19
13 1 -13.3055 -2.56003 -7.46255 15
14 1 -11.5667 -4.86953 -9.95145 14
15 1 -10.0915 -3.07801 -3.43663 14
16 1 -8.70921 -5.75029 -9.09497 17
17 1 -11.7155 -7.38015 0.0576084 17
18 1 -0.299744 -1.50906 -9.97718 15
19 1 -1.37648 -10.6788 -8.97884 17
20 1 -9.62494 -11.1707 -4.45896 11
21 1 -10.9812 -5.5507 -6.73324 15
22 1 -8.2567 -3.6174 -6.99788 16
23 1 -7.80484 -11.4662 -7.41661 11
24 1 -15.5727 -4.9484 -5.41541 14
25 1 -7.2921 -2.55744 -2.61321 18
26 1 -2.79015 -13.3078 -8.0863 11
27 1 -2.89956 2.10172 -7.68672 15
28 1 -11.473 -3.99775 -13.5923 10
29 1 -5.23844 -1.02147 -9.76939 17
30 1 -5.85979 -2.20333 -14.497 18
31 1 -14.0227 -5.46294 -8.56943 12
32 1 -8.31475 4.39342 -9.49483 19
33 1 -9.2802 2.39105 -6.77438 15
34 1 -8.93198 -8.75456 -5.72565 16
35 1 -9.84408 1.06968 -3.9515 17
36 1 -5.05742 0.697235 -12.4023 19
37 1 -0.401343 -12.9942 -6.49681 12
38 1 -4.0751 -4.38758 -12.5257 21
39 1 -2.83355 -6.81759 -13.8401 14
40 1 -13.0301 -4.67374 -3.93959 14
41 1 -8.92928 -2.80402 -14.1847 13
42 1 -6.28211 -6.31828 -6.63174 19
43 1 -5.71217 -9.4876 -5.40581 20
44 1 -5.57826 -13.6619 -1.95608 10
45 1 -5.29662 -9.21489 -1.41644 16
46 1 1.50184 -8.52557 -10.805 12
47 1 -8.79343 -6.36314 -14.0511 11
48 1 4.85694 -3.14167 -11.4608 26
49 1 -6.73527 2.73203 -13.8157 15
50 1 -5.12395 -2.84831 -7.38405 17
51 1 -10.763 2.23584 -10.801 18
52 1 -6.59076 1.42891 -3.01349 17
53 1 -6.60975 -4.17775 -4.57239 20
54 1 -4.49578 -3.068 -0.608789 19
55 1 -6.8417 -0.169072 -0.439212 21
56 1 -5.77432 -12.0145 -10.1071 9
57 1 -6.5381 -12.6207 -4.49475 13
58 1 1.58738 -15.3053 -0.0669822 11
59 1 -6.33196 -8.95835 -9.31742 16
60 1 -6.85183 -3.93669 -12.0819 19
61 1 1.79441 -11.6541 -9.43155 12
62 1 -3.29191 -13.3001 -4.48331 13
63 1 -3.804 -7.8388 -7.8947 18
64 1 -3.15318 -4.866 -6.38095 22
65 1 -2.37977 -10.6865 -5.69661 19
66 1 0.174217 -11.8974 -0.197477 17
67 1 -4.20693 -7.17601 -4.02285 19
68 1 -2.83532 -3.70728 -9.91672 18
69 1 -7.57791 1.23699 -9.53384 18
70 1 -1.83652 -0.414615 -15.8315 11
71 1 -0.869587 -6.02357 -15.4451 9
72 1 -0.212668 -3.80598 -8.30938 19
73 1 -1.22303 -4.05162 -12.8422 21
74 1 -3.75055 1.48125 -3.81389 17
75 1 -0.212851 -3.36309 -4.8318 20
76 1 -1.58483 -4.97513 -2.26228 18
77 1 -1.53509 -1.77542 -2.37919 18
78 2 -5.22304 3.13282 -12.6581 17
79 2 -16.2945 3.85456 6.72889 12
80 2 -10.8959 1.14252 -1.61827 17
81 2 -10.0921 -0.258012 -6.68044 17
82 2 -10.2073 -5.98905 -10.101 10
83 2 2.46004 -0.983649 -13.163 18
84 2 -6.42208 -4.53137 -6.88199 19
85 2 -13.1833 -8.6566 -0.967184 10
86 2 -12.2016 -1.72768 -8.62268 15
87 2 -4.1443 -5.56823 -14.1885 18
88 2 -14.7697 0.624434 -10.4343 14
89 2 -5.74634 -7.28883 -8.27943 17
90 2 -13.4788 -1.92488 -12.0438 11
91 2 -17.2829 -6.17722 -9.84961 5
92 2 -0.22921 -0.126426 -14.634 12
93 2 -12.0515 0.342846 0.811629 12
94 2 -14.5536 -0.60482 -1.51707 19
95 2 -11.9576 4.12902 -7.4922 21
96 2 -11.8731 -8.25654 -10.099 8
97 2 3.37281 -14.5581 1.32115 14
98 2 -4.13386 -12.0598 -8.97351 12
99 2 -8.41648 -8.49814 1.14728 18
100 2 -4.01837 -2.60799 -5.7955 16
101 2 -9.19872 -5.19912 -7.44843 15
102 2 -10.6659 -5.75515 3.99253 20
103 2 -7.28829 -7.73564 -5.28214 18
104 2 -10.5253 -4.8507 -3.02768 15
105 2 -10.5724 -7.26065 -6.12359 14
106 2 -11.9671 -4.82806 -11.9701 11
107 2 -14.779 -5.09067 -10.3368 10
108 2 -5.05453 0.0360815 0.650961 20
109 2 -7.07139 -4.23676 -9.92214 19
110 2 -5.55974 0.77913 -9.46982 18
111 2 -6.88873 0.675566 -12.3451 19
112 2 -5.81936 -5.83541 -4.0573 18
113 2 -8.40926 -3.05534 -4.08291 17
114 2 -8.5384 1.66947 -2.9013 17
115 2 -7.68424 -4.34076 -1.32145 20
116 2 -2.21258 -13.9591 -6.07359 9
117 2 -8.27349 -17.6147 2.12888 3
118 2 -9.05578 -8.34811 -12.5407 8
119 2 -8.82875 -2.35304 -8.21841 15
120 2 -2.48528 -8.04675 -9.29655 16
121 2 -8.76597 -10.6302 -6.03339 13
122 2 -9.98076 -9.3048 -4.00521 15
123 2 -5.83566 -5.50925 -12.2227 18
124 2 -10.7485 -7.81068 -1.62078 14
125 2 -6.70481 -12.1799 1.81386 17
126 2 -5.94182 -6.93187 -0.744411 22
127 2 -5.35834 -3.19714 -2.34342 16
128 2 -5.54187 -9.00335 -3.54761 16
129 2 -1.68909 -4.53646 -14.5653 14
130 2 -5.99122 -8.73015 -11.0916 13
131 2 1.67274 -1.52929 -10.3098 18
132 2 -3.91318 -2.81094 -13.4978 19
133 2 -2.64896 -5.18468 -11.4594 23
134 2 -4.78303 -3.11275 -9.53458 18
135 2 -6.28362 -1.1303 -15.9126 12
136 2 -15.2882 -5.22653 -7.281 10
137 2 -4.09932 -5.00641 -0.405872 17
138 2 -6.31595 -2.55949 0.427605 24
139 2 -5.61392 2.14966 -4.72787 17
140 2 -2.9005 -1.70256 -0.897889 20
141 2 -6.45994 -10.8878 -9.00779 11
142 2 2.67022 -0.764131 -7.22097 17
143 2 -6.07924 -11.3052 -6.19902 19
144 2 -7.19123 -12.9904 -0.901324 10
145 2 -10.586 -1.08851 -3.52088 16
146 2 -3.8593 -9.59817 -6.64213 17
147 2 -3.25601 -7.5958 -12.3789 13
148 2 -5.08994 -13.4953 -3.81412 9
149 2 -3.99505 -6.65704 -6.15542 19
150 2 -2.95536 -4.97201 -8.43284 18
151 2 -7.02017 -6.99557 -14.0012 11
152 2 -3.44779 -9.15379 -0.458538 13
153 2 -2.23752 -6.88516 1.06118 17
154 2 -2.89918 -7.4926 -2.91721 18
155 2 -0.858457 -9.65576 -2.93537 16
156 2 -2.23471 -11.8505 -7.13373 14
157 2 -0.612831 0.685612 -10.2919 18
158 2 -7.11159 -3.77174 -14.2081 16
159 2 -4.05765 -0.443654 -11.2067 14
160 2 -1.11397 -4.93391 -6.45697 19
161 2 -0.649955 -1.60749 -5.79576 18
162 2 1.65948 -4.04594 -7.47391 19
163 2 2.57735 -5.57902 -9.65834 19
164 2 -0.682613 -4.76713 -0.636093 18
165 2 0.255494 -1.98438 1.23834 18
166 2 -4.99124 1.48096 -1.73435 19
167 2 -1.44697 -3.39892 -3.28521 16
168 1 -11.7131 -1.34432 -12.4943 16
169 1 -14.1553 -3.74989 -11.7628 9
170 1 -13.0394 8.38911 3.59175 14
171 1 -15.9679 2.47038 0.693265 19
172 1 -13.7742 -2.27644 8.36143 15
173 1 -10.2444 3.93762 2.99229 16
174 1 -13.7146 -1.54989 4.79311 18
175 1 -13.7747 1.06741 9.61544 11
176 1 -14.1181 5.00919 2.68985 18
177 1 -17.4748 -6.71414 -2.19451 10
178 1 -8.27309 -7.70414 2.90968 18
179 1 -9.45451 -5.65964 5.69199 21
180 1 -8.95337 -8.55646 -0.780711 18
181 1 -8.56018 -3.16798 0.165101 18
182 1 -6.60671 -10.217 4.67021 23
183 1 -15.11 -8.38776 -0.753296 11
184 1 -17.6663 -0.388124 -3.86625 12
185 1 -14.3686 -2.49375 -1.57975 14
186 1 -14.4106 -2.98384 1.38318 18
187 1 -19.4169 -2.82122 2.45144 9
188 1 -17.0857 -0.231418 5.63842 16
189 1 -18.2956 0.703704 2.44594 12
190 1 -9.77854 -5.07431 2.06676 18
191 1 -14.9523 0.978296 7.02394 18
192 1 -8.73566 -1.57962 3.11035 18
193 1 -1.04897 -11.2751 11.5592 7
194 1 -4.91792 -13.7448 7.91988 11
195 1 -12.2723 -9.27698 7.72738 6
196 1 -10.2395 -6.88946 -3.36526 17
197 1 -8.1755 -12.3997 3.21223 14
198 1 -8.19002 -11.7463 -1.76892 12
199 1 -12.126 -9.22019 -2.37088 11
200 1 -6.76804 -4.27975 6.97276 22
201 1 -10.0126 -9.40371 1.9377 14
202 1 6.05074 -4.39747 11.5336 19
203 1 -14.4329 -5.31687 3.36789 17
204 1 -8.45708 -2.38038 6.22092 20
205 1 -3.14552 -12.0055 9.12038 16
206 1 -12.2883 1.83848 -3.3004 20
207 1 -10.4225 -0.801735 -1.52082 18
208 1 -7.21654 -4.31304 3.33056 18
209 1 -13.7262 -0.0122056 0.179103 16
210 1 -11.1707 -2.00162 5.73848 16
211 1 -5.02918 -2.59484 11.0145 18
212 1 -8.96677 -10.9277 7.47726 8
213 1 -16.598 -6.31537 1.31249 14
214 1 -9.891 1.21241 4.84576 19
215 1 -16.6706 -6.21296 4.90119 9
216 1 -6.01547 -0.427166 12.793 16
217 1 -15.3301 0.358772 3.31181 19
218 1 -7.38425 -13.2709 6.16424 12
219 1 -6.6071 -16.6571 2.79133 10
220 1 -5.59456 -16.2014 6.22197 11
221 1 -5.03927 -7.72207 3.46291 23
222 1 -4.7441 -11.3222 2.01944 20
223 1 -5.66027 -5.0944 -1.65323 19
224 1 -6.63937 -7.34087 -2.87851 19
225 1 -7.00916 -10.099 1.32662 21
226 1 -6.70687 -6.39366 0.775966 24
227 1 -3.49278 -4.44744 7.63161 20
228 1 -5.10835 -13.3969 3.7961 23
229 1 -2.21482 -5.74651 10.1802 16
230 1 -9.74601 -9.81209 5.22341 14
231 1 -7.89596 -7.78355 9.74298 10
232 1 -5.91369 -10.1808 8.39024 16
233 1 14.3693 -2.58087 9.4734 9
234 1 -5.67969 0.658239 2.47325 19
235 1 -3.38774 -4.88282 1.51228 21
236 1 -4.63571 -4.94723 5.02408 21
237 1 -5.53215 -2.31702 2.27747 19
238 1 -5.13797 0.0143554 5.48744 20
239 1 -4.04468 -2.35284 4.88232 17
240 1 -6.44471 -7.66866 7.052 19
241 1 -9.11481 2.67457 8.72798 19
242 1 -3.23869 4.27227 9.19846 17
243 1 0.346149 -6.52425 11.7424 13
244 1 7.72241 -5.81505 9.48598 12
245 1 -4.72588 -5.74608 12.6707 10
246 1 -2.48529 -13.4327 -0.700853 13
247 1 -3.98704 -14.844 1.22675 17
248 1 -3.63946 -16.583 3.86741 12
249 1 -4.43758 -10.7323 5.96247 22
250 1 -1.91487 -13.1879 3.12598 22
251 1 2.30842 -11.4043 10.5191 11
252 1 5.56323 -10.8715 7.00162 13
253 1 -3.19807 -6.80484 -0.874342 18
254 1 -1.7113 -9.42195 -1.10504 17
255 1 2.89169 -10.8108 2.13693 20
256 1 -3.32257 -8.61526 1.27071 18
257 1 -2.25248 -6.83481 3.32701 17
258 1 -0.926282 -9.44656 7.07421 19
259 1 -3.7642 -8.11946 6.60434 20
260 1 -3.10327 -8.35017 10.1139 13
261 1 1.75334 -3.17771 13.4184 16
262 1 -1.84958 -3.7 12.9241 16
263 1 12.679 -7.61318 7.73296 11
264 1 -1.84419 -2.03659 1.02278 19
265 1 0.95089 -3.31012 0.121605 15
266 1 0.836831 -5.36366 3.29804 20
267 1 -1.64067 -3.52846 4.37361 24
268 1 -3.78967 1.13481 7.45628 16
269 1 -0.905112 -3.5531 7.87889 19
270 1 -0.327232 -6.62691 8.52648 19
271 1 -5.18022 -1.75893 7.79214 18
272 1 -2.10283 -0.828193 9.78583 18
273 1 3.491 -0.0692953 14.4252 13
274 1 5.00618 -7.51187 12.5116 13
275 1 1.37251 -3.85624 10.1762 25
276 2 -15.9797 -7.71267 -2.34643 10
277 2 -15.6691 -0.40895 -7.3912 12
278 2 -17.05 -4.55233 5.61534 10
279 2 -6.36386 4.28846 12.2845 15
280 2 -10.5057 2.27946 -5.10074 20
281 2 -14.18 2.19389 8.05683 15
282 2 -15.6767 -7.9257 1.01173 11
283 2 -13.0066 -4.0934 2.45244 16
284 2 -12.5626 -7.80222 6.62208 12
285 2 -6.88138 -8.23 4.25366 22
286 2 -12.1357 -4.54594 -7.93891 14
287 2 -14.2424 -5.96999 -4.42157 13
288 2 -17.2302 1.6447 6.21637 15
289 2 -17.7892 -5.82282 -0.52818 10
290 2 -10.5022 -10.0281 6.91441 8
291 2 -17.4934 -1.74712 6.66993 12
292 2 -14.6919 -1.63213 3.10669 17
293 2 -15.8558 -2.95504 0.17362 18
294 2 -6.73464 -1.96643 6.74123 18
295 2 -8.5683 -10.653 2.69995 17
296 2 -5.97125 -4.17223 11.5771 12
297 2 -17.4252 -0.573638 3.44813 17
298 2 -15.6648 -3.07674 7.71184 11
299 2 -13.1177 -2.74013 -0.123858 12
300 2 -7.81483 -9.58 8.72534 11
301 2 -7.80902 -11.4294 6.07956 16
302 2 -12.0903 -8.46905 1.73382 13
303 2 -7.79762 0.112963 2.74373 19
304 2 -7.32977 -10.152 -0.816208 16
305 2 -0.968241 -13.32 8.82725 14
306 2 -4.99027 -11.2692 4.07096 24
307 2 -10.1703 -8.69301 3.83732 15
308 2 -10.583 -5.34599 0.339866 18
309 2 -13.6491 2.60118 10.6196 10
310 2 -7.63615 -5.94954 2.42173 17
311 2 -14.6228 1.07512 1.3202 16
312 2 -14.2379 2.22985 -2.61852 17
313 2 -8.30867 -3.29148 2.1144 17
314 2 -13.4535 -7.05118 3.2769 16
315 2 -14.3112 0.724179 5.28789 18
316 2 -10.3385 -1.20411 4.03221 16
317 2 -12.4425 -3.43363 8.84423 13
318 2 -1.65755 -7.41838 9.22041 19
319 2 -3.56663 -14.8382 7.22084 13
320 2 -6.4894 -14.488 7.21348 10
321 2 -8.44839 -7.02634 -2.13418 19
322 2 -1.95478 -14.2783 1.00014 15
323 2 -4.86747 -11.9623 7.38755 17
324 2 -5.44024 -14.8697 2.41095 18
325 2 -5.10709 -9.43361 1.49121 20
326 2 -4.16765 -5.99615 3.29154 23
327 2 -3.01053 -11.7488 2.97752 21
328 2 3.1045 -9.21729 9.2361 18
329 2 0.577618 -10.5872 7.54182 18
330 2 -8.27966 -4.12734 5.11728 19
331 2 -5.37816 -9.14409 6.34868 17
332 2 -2.39233 -10.6101 10.1564 14
333 2 9.10651 -12.9004 10.462 4
334 2 -5.55612 -5.74951 6.54499 20
335 2 -10.0115 -2.03639 7.32557 18
336 2 -4.72052 -0.841896 3.56027 18
337 2 -5.629 -3.25318 3.96872 20
338 2 -1.20314 -5.29115 11.9875 16
339 2 -7.5126 2.48 9.79691 14
340 2 -4.87821 7.49386 10.7432 18
341 2 -8.56377 0.383964 8.8444 19
342 2 -7.64976 -13.624 4.41628 14
343 2 -12.5147 -2.87228 4.74052 16
344 2 -1.44292 -0.71285 11.4383 15
345 2 2.0091 -1.64776 11.7456 19
346 2 -4.04194 -13.5312 9.75316 8
347 2 -5.29127 -16.7091 4.34286 12
348 2 -2.86053 -16.1923 2.08434 13
349 2 -1.39625 -12.8701 5.13994 16
350 2 2.42448 -9.1264 3.53683 17
351 2 -0.374451 -9.99443 4.24812 17
352 2 -3.28133 -8.49738 3.35679 22
353 2 3.86536 -9.54584 1.09506 17
354 2 6.15947 -9.00549 11.7451 12
355 2 -3.69849 -0.860899 6.40734 20
356 2 0.935021 -6.74391 10.09 17
357 2 2.08948 -4.94968 13.2501 14
358 2 -0.264519 -2.46685 13.7321 12
359 2 10.7764 -13.0142 3.65191 9
360 2 -1.06128 -5.29582 4.10802 22
361 2 -2.95897 -3.44255 5.74653 22
362 2 -3.10567 -3.00393 2.20355 20
363 2 0.816285 -3.55012 4.22741 16
364 2 8.4417 -7.32096 10.8393 12
365 2 -4.72804 -3.55268 8.68844 20
366 2 -1.11322 0.194963 8.48998 16
367 2 -0.156286 -2.89624 9.74151 20
368 2 6.18443 -10.062 8.62793 13
369 2 7.122 -6.85785 7.80722 13
370 2 -2.73851 -0.682032 14.1151 16
371 2 0.49045 -10.9068 10.7152 10
372 1 -8.29612 -0.475474 -12.2853 19
373 1 -7.62372 5.91128 -6.967 19
374 1 -13.3298 2.75172 -8.8238 18
375 1 -10.2689 -1.13589 -8.38995 14
376 1 -10.714 11.4693 -5.1153 9
377 1 -17.1998 -3.92181 -0.490184 13
378 1 -16.1876 0.96609 -8.91388 11
379 1 0.980763 -1.98764 -12.7187 17
380 1 -14.3998 -0.250014 -12.2132 9
381 1 -12.9764 2.26123 -13.0148 12
382 1 -9.97408 1.23344 -14.0778 13
383 1 -11.4831 -1.1079 -5.26269 18
384 1 -10.2035 5.1896 -7.30259 18
385 1 -15.8427 4.17635 -7.6818 10
386 1 -12.6336 8.70577 -3.54586 12
387 1 -15.7585 7.32116 -2.81088 8
388 1 -8.06003 6.65418 -4.24196 15
389 1 -13.2142 5.75387 -8.10089 13
390 1 -6.9584 0.725065 -15.7202 13
391 1 -0.891406 8.47815 -6.21116 19
392 1 -16.4488 -3.37514 -3.34246 17
393 1 -17.096 -5.33084 -8.10803 7
394 1 -13.1561 -0.0281925 -9.26959 16
395 1 -3.39258 3.27083 -12.8659 17
396 1 -8.68297 6.69955 -10.7178 14
397 1 -10.5268 4.48652 -4.29513 18
398 1 -7.82764 5.2839 -1.81469 17
399 1 -13.7616 4.23659 -1.99081 16
400 1 -15.7144 -6.80207 -11.0925 5
401 1 -3.78525 1.90799 -15.2434 12
402 1 -3.42875 6.37096 -11.4351 14
403 1 -14.632 4.10558 -10.852 10
404 1 -5.19092 2.61486 -9.72656 21
405 1 -7.45282 9.25459 -9.1762 9
406 1 -13.3765 6.87256 -1.30312 15
407 1 -7.50806 10.0373 -5.8288 13
408 1 -4.61855 -0.670264 -17.0025 9
409 1 -1.99971 12.9875 -4.40252 14
410 1 -8.1159 12.3267 4.87387 10
411 1 -6.18033 -5.44421 -14.7098 15
412 1 1.16465 1.30267 -9.67409 17
413 1 -1.80918 6.04117 -7.93351 20
414 1 -2.3617 1.03158 -10.4169 17
415 1 -4.58168 -1.74632 -3.35162 17
416 1 -8.00028 -0.628909 -6.76176 16
417 1 -5.66302 6.95467 -9.54128 17
418 1 -4.31278 4.87961 -6.98099 19
419 1 -3.89966 0.35616 -0.676765 22
420 1 -5.45832 4.19154 -4.5439 20
421 1 2.44239 -2.1822 -8.66906 20
422 1 4.28216 12.5027 -3.60664 16
423 1 0.0663073 11.0026 -8.86864 15
424 1 0.374185 5.65246 -10.2955 18
425 1 -3.51828 8.47262 -8.81963 14
426 1 -2.49829 10.1739 -3.06818 17
427 1 -5.34436 10.5599 -7.548 11
428 1 -5.7967 7.03364 -2.85097 17
429 1 -4.89447 7.64374 -6.35644 23
430 1 11.5995 11.5787 -4.46808 9
431 1 -0.0372087 5.62707 -5.19101 16
432 1 -6.30711 14.4641 -3.64697 6
433 1 -3.23524 10.1775 3.53191 18
434 1 1.15679 -4.63707 -10.5812 22
435 1 4.11845 -0.690611 -14.1075 18
436 1 -0.941644 8.57535 -11.2647 11
437 1 -2.38489 -1.14749 -5.61139 15
438 1 -6.10628 1.6794 -6.71539 17
439 1 7.66458 6.93511 -6.62324 20
440 1 -2.61751 7.15087 -3.89677 18
441 1 -1.11494 1.24974 -4.45518 16
442 1 -0.7809 2.08367 -1.57118 19
443 1 -2.63181 3.90209 -4.51904 17
444 1 4.40856 1.70023 -16.3636 8
445 1 -11.7681 5.14653 -10.9808 17
446 1 -6.37746 4.56624 -11.704 15
447 1 1.6636 7.1424 -7.68749 18
448 1 -5.14754 9.62652 -3.81321 18
449 1 -1.49743 13.8181 -7.30451 11
450 1 -7.17289 9.24194 -1.27189 18
451 1 2.85595 10.2849 -7.9101 16
452 1 0.148552 8.51729 -3.85147 19
453 1 0.216741 14.247 0.818836 13
454 1 2.07858 8.46005 -10.3661 16
455 1 7.86561 2.66272 -9.32862 19
456 1 -0.127446 15.341 -4.36665 12
457 1 -1.20132 4.60728 -13.6273 13
458 2 -17.9423 -3.12522 3.73936 12
459 2 -9.38377 10.5789 -5.77257 10
460 2 -14.1509 4.39305 -9.11231 13
461 2 -11.4365 9.76927 -4.50817 11
462 2 -7.84013 1.20032 -7.51792 17
463 2 -15.8267 -3.13236 -5.39203 16
464 2 -8.90687 8.15468 -9.58623 14
465 2 -17.3129 -5.05184 -2.88763 11
466 2 -14.3495 -3.10769 -3.36776 17
467 2 -7.20299 10.3384 -7.67097 9
468 2 -10.4207 -2.19339 -13.5543 12
469 2 -12.0828 -9.83485 -7.15626 9
470 2 -15.9877 2.61514 -8.59272 11
471 2 -17.3976 1.1462 -2.70649 11
472 2 -13.0328 0.432605 -4.43644 18
473 2 -9.30249 4.27327 -2.47609 22
474 2 -12.1477 3.86233 -3.81165 18
475 2 -15.7068 -0.0120994 -4.43959 15
476 2 -11.9385 1.35498 -9.60133 18
477 2 -1.17824 -7.33641 -14.0035 11
478 2 -5.58551 1.63037 -15.076 14
479 2 -13.5795 1.73172 -7.32881 17
480 2 -8.12842 8.25028 -5.23137 16
481 2 -14.5175 5.12955 -6.4684 11
482 2 -14.1635 8.56868 -2.46043 9
483 2 -7.86823 13.4966 -3.56771 9
484 2 -8.68972 0.972644 -15.253 11
485 2 -9.63619 -4.82338 -14.148 11
486 2 -0.862687 -2.21294 -11.9646 19
487 2 -4.72568 3.09934 -7.85781 16
488 2 -12.6126 -8.27835 -4.10542 12
489 2 -10.2589 4.18053 -10.5977 18
490 2 -12.7532 -2.7498 -5.5213 18
491 2 -8.98171 1.9979 0.39065 19
492 2 -9.40503 5.63806 -5.30164 16
493 2 -8.83498 3.88201 -7.75183 18
494 2 -8.72928 -1.62353 -1.08748 16
495 2 -2.81112 2.59684 -9.37287 15
496 2 -5.5054 8.6404 -8.33846 17
497 2 -6.5607 -1.73127 -6.79298 17
498 2 -1.35568 -2.75594 -9.22833 19
499 2 -12.503 0.415009 -12.7481 12
500 2 -5.91739 5.62391 -5.79337 20
501 2 -9.78855 7.08854 0.816965 22
502 2 -0.00968739 14.7018 -1.07551 14
503 2 -13.3632 5.01425 -0.425297 17
504 2 -5.16532 14.1462 -2.10269 12
505 2 -6.62475 14.6303 1.25367 13
506 2 -8.41088 3.29375 -14.0223 12
507 2 -13.4427 3.82132 -12.1948 12
508 2 -8.1146 -2.35273 -12.2848 14
509 2 -2.19407 3.19079 -14.4751 15
510 2 -2.09532 4.88932 -11.8406 16
511 2 -5.98575 -0.614363 -2.96782 19
512 2 -7.44449 6.27698 -8.82253 20
513 2 -10.8506 2.14895 -12.6846 13
514 2 -7.00578 3.06635 -10.2339 20
515 2 -2.46244 1.64999 2.9453 19
516 2 -6.5994 5.40869 -3.33027 17
517 2 -8.26496 5.28345 -12.0602 14
518 2 -4.12851 4.05702 -3.20644 18
519 2 -2.31504 1.88698 -12.0559 17
520 2 -3.32163 0.482667 -16.4068 9
521 2 -6.06775 10.5397 -2.22756 21
522 2 -10.8103 12.0849 -3.13337 10
523 2 -1.89259 14.6787 -3.39681 13
524 2 -2.45121 12.5765 -6.30686 14
525 2 -5.4211 8.12612 -1.32712 19
526 2 -8.83462 12.463 -0.848728 16
527 2 -10.2126 9.55171 -0.838941 15
528 2 -2.39737 9.4379 -1.18506 20
529 2 1.57104 16.0543 -3.85087 11
530 2 7.8661 12.6302 4.37109 18
531 2 -2.88033 14.9184 -0.161586 12
532 2 11.0263 10.838 0.0725362 15
533 2 4.39201 -3.10451 -9.22302 18
534 2 3.05942 0.41199 -15.9134 12
535 2 -2.64072 8.05225 -10.669 13
536 2 5.40457 0.703019 -13.5684 16
537 2 -3.14012 -0.423062 -3.80003 18
538 2 -2.69617 2.09455 -5.76896 16
539 2 1.83486 5.68501 -9.15829 19
540 2 1.15521 1.80935 -13.3206 18
541 2 -1.9732 1.18113 -0.236557 20
542 2 -3.9396 3.73347 0.378013 16
543 2 -1.17708 6.14676 -3.75061 16
544 2 -1.91168 2.55158 -3.216 16
545 2 3.12657 1.39381 -10.6573 18
546 2 -8.20733 -0.462646 -10.074 16
547 2 1.3018 6.95602 -3.65789 20
548 2 -2.50828 5.19572 -6.20282 18
549 2 -5.11277 5.68502 -10.7774 18
550 2 -1.59267 8.82522 -4.22806 18
551 2 -0.791564 5.6911 -0.304383 16
552 2 -4.60394 9.9631 2.05055 19
553 2 -8.06085 7.4395 -1.69461 19
554 2 -3.6955 6.7369 -7.9196 16
555 2 -2.5736 9.17987 -7.36254 15
556 2 -4.27038 7.92429 -3.8674 18
557 2 -0.0700736 7.0515 -11.3741 15
558 2 4.8382 12.6717 -1.34467 19
559 2 6.08111 14.2029 2.75041 14
560 2 4.31747 13.5419 -5.11895 12
561 1 -11.6894 8.98549 0.421365 15
562 1 -16.5357 -1.41503 -6.0872 12
563 1 -18.1065 3.53099 6.7991 5
564 1 -10.0182 7.34786 -1.21956 17
565 1 -17.1203 4.72619 2.86537 12
566 1 -14.6591 4.81687 10.9647 8
567 1 -9.80864 -6.22379 8.39821 15
568 1 -8.95239 5.36345 0.808308 20
569 1 -17.9452 -1.40346 -0.18069 14
570 1 -14.9224 4.02443 8.11621 18
571 1 -7.33133 -4.13495 10.0356 14
572 1 -16.6149 -2.27202 2.80761 19
573 1 -11.9025 2.45291 -6.34463 19
574 1 -11.6548 -0.0296514 2.62293 17
575 1 -13.8308 4.98828 -4.76079 13
576 1 -11.0324 2.15634 0.190006 17
577 1 -11.9417 2.06714 7.73882 19
578 1 -12.389 -5.79761 6.81698 14
579 1 -13.9334 -8.67002 2.05185 11
580 1 -11.7625 -7.48681 4.01389 17
581 1 -15.5403 -4.51521 6.49131 14
582 1 -4.01326 -2.31635 14.6988 11
583 1 -15.4963 6.32748 4.97465 15
584 1 -10.2354 8.39315 -5.87117 14
585 1 -8.30016 8.22848 1.43481 21
586 1 -9.40766 3.83159 -12.3735 13
587 1 -2.89973 4.17775 16.0541 8
588 1 -15.0223 7.63897 1.71727 13
589 1 -16.5197 3.05851 4.52265 18
590 1 -12.9888 6.13825 5.96423 19
591 1 -15.5145 0.742044 -2.34186 18
592 1 -11.0785 10.2366 -2.463 15
593 1 -9.33262 2.71326 -1.54549 19
594 1 -8.46069 2.16376 2.2709 19
595 1 -12.8618 2.52088 4.64203 18
596 1 -11.4711 5.02581 0.114791 16
597 1 -10.1705 7.22948 4.62334 20
598 1 -7.36341 2.66882 5.40084 20
599 1 -11.6971 -4.1789 3.66523 21
600 1 -10.487 -3.43547 8.69612 12
601 1 -7.50467 5.47063 13.3478 7
602 1 -16.494 -1.6269 8.32904 9
603 1 -5.11926 -5.52592 9.86321 18
604 1 -0.0288032 -1.47761 11.974 19
605 1 -7.00465 12.3939 -1.74457 17
606 1 -5.95814 6.5392 0.145001 19
607 1 -2.69616 5.57821 0.643316 15
608 1 -9.50132 11.3904 0.263545 15
609 1 -7.80232 9.12166 5.08602 18
610 1 -9.91756 9.9987 3.22469 19
611 1 -12.1326 3.65279 10.2675 14
612 1 -4.88545 10.2061 7.61017 16
613 1 -7.99588 6.05864 6.73407 18
614 1 -10.5308 -0.440934 8.12498 15
615 1 -8.15306 13.7699 1.09334 12
616 1 -4.86485 14.4626 -0.110965 13
617 1 -11.1774 9.97634 5.53331 11
618 1 0.338895 6.24904 7.28551 19
619 1 -5.90925 3.53589 0.450892 16
620 1 -3.59661 3.23101 -1.504 17
621 1 -2.93207 -0.216271 3.38547 21
622 1 -6.98685 6.70576 3.4796 15
623 1 -4.3843 7.94715 2.64022 15
624 1 -5.04048 4.33095 6.37642 16
625 1 -10.2362 4.19411 6.17889 19
626 1 -11.9622 -3.97357 0.421709 11
627 1 -7.6861 -0.134383 7.04588 17
628 1 -0.965348 -0.985686 14.7375 12
629 1 1.36193 1.73603 13.4114 13
630 1 -9.45632 -5.43969 -1.22746 19
631 1 -10.7217 7.9291 -9.28165 11
632 1 -4.11302 8.61104 -0.0556605 20
633 1 -4.11096 11.5533 0.985789 22
634 1 1.35153 10.6217 5.46347 16
635 1 -6.34403 10.7228 1.62147 24
636 1 -4.89817 7.72728 6.08038 20
637 1 -8.03351 9.81162 8.11099 12
638 1 -11.6467 6.65914 10.0535 10
639 1 -10.5577 7.41311 7.57911 14
640 1 -3.26993 6.48033 13.0185 13
641 1 -4.59501 1.22067 14.9807 12
642 1 -6.9683 2.5427 11.7838 14
643 1 -5.76667 14.1648 2.89851 12
644 1 -0.614033 12.378 8.32329 10
645 1 -2.9572 14.9576 1.82532 11
646 1 -7.00509 3.9797 8.68422 19
647 1 -5.52331 5.61983 11.1986 19
648 1 0.108696 5.51384 -2.25173 15
649 1 0.56577 4.08354 0.250424 22
650 1 -0.612127 1.66424 2.99587 22
651 1 -2.73773 2.59491 1.38221 21
652 1 -3.47684 2.52224 4.43844 17
653 1 -0.126244 3.4539 5.43197 15
654 1 -0.856137 1.95438 7.82199 16
655 1 -5.8983 9.4284 11.0196 13
656 1 -5.99295 0.904584 9.53869 17
657 1 5.7532 -0.977002 10.1375 18
658 1 -2.09124 3.72137 11.9392 15
659 1 -2.99063 0.334854 12.1134 20
660 1 -9.52037 13.401 -2.39351 9
661 1 -1.33816 9.94952 0.239806 16
662 1 0.992146 9.62594 2.4956 20
663 1 1.22447 7.1554 4.13047 21
664 1 2.99063 11.6949 3.17814 15
665 1 -1.4946 8.87343 5.2669 19
666 1 -2.76106 7.37809 7.77288 17
667 1 -8.28119 6.47579 9.79896 18
668 1 -3.07587 8.26261 10.5858 17
669 1 -4.51941 3.41097 13.0804 16
670 1 6.26611 7.32757 14.275 9
671 1 -7.99935 -0.667354 10.4708 15
672 1 -4.04096 12.1038 -1.96932 18
673 1 -5.57922 11.6509 4.60304 16
674 1 4.45527 15.231 -1.32827 13
675 1 -2.4079 12.1195 6.0687 11
676 1 -5.76454 7.66003 8.80346 18
677 1 6.44008 1.22381 12.7234 17
678 1 0.65143 4.81672 13.221 13
679 1 2.71773 7.06389 10.0319 19
680 2 -8.92742 2.96897 4.22379 18
681 2 -17.7719 -2.1154 -2.83888 16
682 2 -18.3423 -2.93637 0.85706 13
683 2 -17.1272 2.62734 2.43939 15
684 2 -14.0161 -5.35818 5.90303 18
685 2 -10.5993 -5.18947 7.19496 17
686 2 -16.7154 3.60345 -0.686537 13
687 2 -12.2938 6.59457 -9.69428 12
688 2 -9.00218 -4.25201 9.34722 15
689 2 -16.4155 5.0436 4.34193 14
690 2 -14.2303 5.85294 -3.00492 13
691 2 -12.0867 3.4668 6.31218 21
692 2 -18.2717 0.138706 0.803776 13
693 2 -16.2146 -5.70017 3.23281 13
694 2 -10.458 3.25447 9.77839 16
695 2 -12.1549 0.31174 8.95278 15
696 2 -14.841 -0.419162 8.18655 14
697 2 -10.0487 7.23192 9.48727 12
698 2 -11.7592 7.28449 -1.91443 18
699 2 -10.8027 7.23967 -7.30533 14
700 2 -8.03274 11.8272 1.81353 19
701 2 -3.27044 8.29202 4.42688 13
702 2 -12.0327 8.15392 5.1756 15
703 2 -7.44012 6.62232 11.6327 11
704 2 -6.95299 6.28445 5.20036 17
705 2 -9.63047 6.52112 6.28432 19
706 2 -6.3406 2.41343 1.77868 15
707 2 -10.3386 3.86352 1.10365 16
708 2 -14.2117 3.3528 3.50748 18
709 2 -11.1482 5.2966 4.14288 16
710 2 -15.5817 5.33508 1.79993 15
711 2 -11.2751 1.56924 3.73159 17
712 2 -4.02144 -3.82922 13.4492 11
713 2 -10.839 10.2597 1.45571 14
714 2 -8.64485 3.88073 7.08472 21
715 2 -14.6696 5.44993 9.18582 12
716 2 -16.2875 6.77906 -0.963901 10
717 2 -14.5913 7.09979 3.46276 13
718 2 -5.32776 12.2358 -0.228073 19
719 2 -8.51145 -6.78304 7.21984 14
720 2 -13.0908 8.19929 1.66512 14
721 2 -6.48426 -2.07452 9.65018 18
722 2 -12.767 5.38204 10.8827 10
723 2 -12.3678 6.71393 7.79747 16
724 2 -4.14494 8.36692 7.75246 19
725 2 2.75027 14.8944 -0.532459 14
726 2 -14.7108 6.60183 6.65715 11
727 2 -1.28142 14.0797 2.13113 11
728 2 -2.33659 1.65798 6.40798 21
729 2 -9.92142 11.2181 4.64627 11
730 2 -7.23256 5.00089 0.306279 19
731 2 -5.44512 2.69137 5.28815 18
732 2 -5.88589 2.28115 13.9341 12
733 2 -3.79862 4.73267 11.1548 17
734 2 -6.9082 5.78015 8.42713 20
735 2 -7.31231 0.779373 5.43648 17
736 2 -2.19724 -4.48005 8.84894 17
737 2 -7.19109 -6.01864 9.83081 15
738 2 -4.96349 -8.96644 9.58222 15
739 2 0.192002 0.424273 14.1378 15
740 2 -3.52243 7.17909 0.987872 15
741 2 -6.40243 13.2979 4.35747 10
742 2 6.12071 15.772 5.66377 12
743 2 -7.39151 9.57005 0.681948 23
744 2 3.52932 -6.21537 7.96883 19
745 2 -2.27675 7.97547 12.4617 13
746 2 -3.18942 5.12135 14.1732 15
747 2 -6.41282 7.34411 1.91187 18
748 2 -10.3799 0.967916 6.79795 20
749 2 -5.43938 -0.252906 14.5297 11
750 2 1.2227 11.8271 1.95976 17
751 2 -3.83878 -2.13783 -16.1281 10
752 2 -6.83401 10.5062 4.71135 18
753 2 4.48936 7.09549 14.6183 9
754 2 3.16499 -4.32905 10.8912 22
755 2 -1.66285 -1.3552 4.15053 21
756 2 -3.94479 6.11371 6.41038 17
757 2 -2.32491 4.1165 4.09782 16
758 2 -1.20558 3.72277 1.23568 20
759 2 -4.1802 -1.08719 11.9168 17
760 2 -0.630244 4.86063 11.6097 17
761 2 -5.27697 3.38399 8.02931 17
762 2 0.855138 2.14159 6.59888 19
763 2 3.34446 -2.05374 13.831 14
764 2 5.47472 -0.0818693 14.0146 13
765 2 -6.56582 0.659789 11.3036 15
766 2 10.8952 0.919504 10.3512 14
767 2 -1.3858 7.26451 6.36596 15
768 2 -2.30835 11.3243 1.55053 17
769 2 -2.0239 11.5091 4.33392 15
770 2 0.0135094 9.01507 0.811203 18
771 2 -2.87438 1.96212 15.8953 12
772 2 0.664402 7.87444 10.1933 15
773 2 4.27511 5.43662 10.7464 19
774 2 -4.30628 13.6817 1.95587 17
775 2 5.73755 9.53315 3.9164 17
776 2 -0.467748 3.28427 13.8484 14
777 2 -4.47707 -0.202126 8.68308 19
778 2 0.586782 10.6872 7.2201 13
779 2 -6.42345 8.98045 7.01448 16
780 2 1.85361 11.8793 -8.68827 12
781 2 -4.10047 11.3171 6.29476 14
782 2 -7.11131 8.95628 9.56359 12
783 2 -4.2687 9.95266 10.0763 15
784 1 -4.67067 -10.9732 -7.59269 16
785 1 -7.07491 -13.7382 0.911134 15
786 1 4.53583 -10.5472 -0.944007 19
787 1 -2.06598 -6.29022 -9.93427 18
788 1 -2.59225 -8.87302 -10.9539 11
789 1 8.29082 -10.8834 -8.45735 12
790 1 5.39777 -12.7833 -3.8352 11
791 1 1.48518 -6.42476 -8.1874 18
792 1 -0.605134 -6.44625 -5.63888 21
793 1 0.828003 -8.88041 -6.562 14
794 1 2.94038 -12.9485 -6.67044 11
795 1 -1.03987 -7.96734 -3.71994 16
796 1 -2.75231 -1.38492 -12.6011 22
797 1 3.34764 -0.39875 -11.1908 20
798 1 1.17214 -0.894758 -5.97952 18
799 1 6.14128 -0.053302 -9.49649 17
800 1 3.87999 -8.94599 -8.30094 21
801 1 1.94737 -4.63448 -5.73739 18
802 1 2.16672 3.32565 -4.50799 20
803 1 3.97396 -0.813233 -5.55127 17
804 1 1.39121 -5.88447 -3.14265 19
805 1 2.59023 -2.72151 -2.95944 19
806 1 6.74968 -13.3087 -6.96082 11
807 1 7.62506 -12.1338 0.395092 16
808 1 -1.00185 -11.564 -2.96873 14
809 1 5.95427 -7.99675 -9.87182 15
810 1 -5.29591 -7.09218 -11.6238 18
811 1 4.02579 -10.7266 -5.7604 18
812 1 3.07037 -7.618 -5.65547 21
813 1 7.83041 -13.4014 2.85804 12
814 1 4.96284 -11.4586 -9.20375 14
815 1 3.79905 -7.09601 -2.23617 15
816 1 9.76023 -1.0926 -12.2127 11
817 1 7.23712 -2.66074 -13.3481 16
818 1 3.95243 -6.51452 -12.0978 15
819 1 7.10879 -5.64206 -11.6077 17
820 1 4.27021 -5.40929 -9.3486 19
821 1 6.24261 -6.04049 -7.28729 20
822 1 4.86461 0.088649 -2.58541 21
823 1 5.26223 -5.52841 -3.7619 18
824 1 7.17259 -7.3286 -1.39452 20
825 1 6.34644 -2.73728 -2.74641 19
826 1 2.23925 -4.93891 -13.8509 13
827 1 12.2849 -7.76704 -6.86832 10
828 1 13.1664 -6.08521 -1.18317 16
829 1 7.65422 3.85099 -6.83421 19
830 1 2.6141 -12.3285 -1.86703 18
831 1 6.67711 -9.05248 -7.15053 20
832 1 7.72513 -10.8404 -4.97013 15
833 1 11.4399 -3.13309 -6.29048 21
834 1 9.99083 -4.56641 -11.1638 14
835 1 1.99881 -9.61299 -3.37733 18
836 1 13.0139 -9.06529 -1.82188 13
837 1 8.54003 -5.02955 -8.40416 22
838 1 8.20373 -5.19375 -5.37437 21
839 1 11.0955 -5.5986 -3.56267 18
840 1 9.52223 -7.77237 -3.65474 17
841 1 8.9317 -2.71641 0.401742 20
842 1 -3.41636 -3.79159 -15.0818 16
843 1 9.10499 -7.66767 -9.4765 14
844 1 8.13092 -9.62618 -1.34753 15
845 1 0.431433 -8.20058 -13.6259 9
846 1 8.74188 -2.05925 -7.10921 19
847 1 8.57596 -4.35576 -2.31783 20
848 1 18.3469 -0.778583 -4.95814 11
849 1 16.3009 -3.59431 -5.48878 11
850 1 18.6939 2.13353 -4.22446 11
851 1 10.8754 -7.34369 -1.11561 21
852 1 13.2779 -1.07423 -4.83199 21
853 1 18.5266 0.499921 -0.721582 13
854 2 4.66219 -13.5078 -2.05028 10
855 2 1.33601 -13.8483 -7.0129 7
856 2 5.84746 -11.1224 -2.89118 16
857 2 1.97788 -14.0102 -1.17703 11
858 2 1.44902 -12.7953 5.7285 14
859 2 1.54793 -10.2709 -10.8502 12
860 2 11.1173 -7.9701 -5.30424 15
861 2 6.78859 -12.3559 -5.11263 14