ITEM: TIMESTEP
21000
ITEM: NUMBER OF ATOMS
1500
ITEM: BOX BOUNDS pp pp pp
-30.0 30.0
-30.0 30.0
-30.0 30.0
ITEM: ATOMS id type x y z Coordination
1 1 -14.2792 -4.22794 -10.6277 19
2 1 -3.81355 -10.6305 4.02487 10
3 1 -18.6195 2.89137 3.50356 16
4 1 -12.334 0.509783 -14.7557 20
5 1 -6.9546 -3.35274 11.332 10
6 1 -11.2428 -2.11256 -18.0704 9
7 1 -11.968 -12.4057 -5.70633 10
8 1 -20.4804 -10.1136 -1.95142 10
9 1 -9.42973 2.28613 12.254 16
10 1 -0.754295 -0.20367 3.56425 21
11 1 -6.52078 7.33666 7.48225 16
12 1 0.207438 0.592852 0.105689 21
13 1 -11.7944 7.96527 -11.162 19
14 1 -1.50116 -1.01953 9.11101 16
15 1 8.05625 6.17743 3.62655 10
16 1 -5.76786 9.91779 -14.0209 19
17 1 -5.03011 12.1736 -17.0322 10
18 1 -16.0176 1.50019 -4.03552 22
19 1 -9.14684 -0.351035 -10.7266 20
20 1 -0.483028 -11.1739 2.95082 13
21 1 -5.96248 0.331691 4.57514 18
22 1 3.65378 -9.20685 -0.615577 14
23 1 -18.3991 -7.55537 -9.69859 12
24 1 -4.00317 -2.74781 -5.34613 21
25 1 1.37191 -7.06765 -12.5282 12
26 1 -6.59178 1.01088 13.4066 12
27 1 -9.62088 -7.27159 2.57102 20
28 1 -3.63258 -3.87283 10.575 9
29 1 -17.0865 -1.88615 -0.0339908 20
30 1 -14.3299 2.55003 -6.68463 22
31 1 -20.1193 11.0374 -8.87882 12
32 1 -7.83917 4.33583 -13.4814 22
33 1 -5.18259 -7.6379 -15.0859 15
34 1 -8.41109 -2.13866 9.44621 18
35 1 -20.8221 8.19006 -7.15397 12
36 1 -6.2619 14.3573 3.94933 13
37 1 -21.4477 10.0194 -5.6044 8
38 1 -9.95942 12.6099 -9.67855 19
39 1 -1.82566 -11.0243 0.121375 12
40 1 -1.99479 -3.08864 -7.5284 18
41 1 -9.41131 8.56989 10.6724 13
42 1 -20.1358 1.46936 -11.5759 14
43 1 0.626183 2.73298 1.95117 20
44 1 -18.6622 8.82831 -16.8796 12
45 1 -15.0252 -2.92225 4.40553 20
46 1 -17.6966 10.8975 -10.8607 15
47 1 -9.94671 5.36354 -11.0958 22
48 1 -6.53088 8.26868 1.78813 23
49 1 -4.59732 3.94695 10.2873 17
50 1 0.150991 -8.52634 -6.45613 16
51 1 -3.614 8.57718 11.2592 14
52 1 1.78998 -1.65503 -14.6182 13
53 1 5.23624 -10.3594 1.72704 10
54 1 -17.7795 -2.94192 2.68638 20
55 1 1.20042 -2.6239 8.38149 12
56 1 -11.4469 -2.47534 9.79807 17
57 1 -18.4567 1.2283 -1.43738 19
58 1 7.84738 4.07926 5.88948 11
59 1 -0.586895 -0.911778 -2.69565 20
60 1 -12.1046 13.6312 6.30554 12
61 1 -3.21962 5.41597 4.71098 22
62 1 -14.7658 -1.19937 1.70848 20
63 1 -10.6693 -3.39386 -10.725 21
64 1 -17.5201 10.8901 -5.80743 19
65 1 -13.0737 6.45164 -14.0624 18
66 1 -0.996112 4.66488 -8.79235 20
67 1 -0.461023 -4.28616 -4.73421 21
68 1 6.68597 -7.26459 0.0713433 12
69 1 -6.80371 -11.7231 2.80045 15
70 1 -17.6903 13.6466 -10.2465 9
71 1 -15.3081 11.1585 0.99715 17
72 1 -12.101 12.4815 3.76316 19
73 1 -13.7365 -7.16289 7.40692 13
74 1 3.35354 -5.9958 -10.6283 14
75 1 -14.5423 4.84067 0.96678 20
76 1 -1.16145 -9.2372 -9.03019 15
77 1 -3.99597 5.48946 -12.9754 16
78 1 -7.33415 -2.38804 -16.6139 17
79 1 -5.00854 15.9255 -4.53742 14
80 1 -17.7153 6.39076 -18.0249 13
81 1 -1.19713 12.8449 -12.516 11
82 1 -5.8569 14.1582 -2.33077 22
83 1 -12.0102 -4.74768 2.37386 21
84 1 -7.26267 -3.1946 -10.7753 22
85 1 -3.16177 -7.197 -9.13468 17
86 1 -10.1688 5.65647 4.59183 21
87 1 -14.0696 -3.29103 -5.58499 20
88 1 -1.20077 -2.65211 0.369405 20
89 1 -17.5152 -3.56395 -5.93883 21
90 1 -4.51139 -10.5242 -2.99723 15
91 1 -15.6866 7.86786 0.0462822 17
92 1 -1.23644 3.63143 -14.4526 18
93 1 -5.9865 7.35915 -8.44513 20
94 1 5.22518 -7.27988 -5.72786 12
95 1 -13.1829 -11.4507 -2.46355 14
96 1 -14.8075 -9.30269 -0.594924 17
97 1 -20.4505 -6.79502 -1.87961 16
98 1 7.13306 7.03972 6.95775 10
99 1 -0.915932 8.57867 -6.29272 19
100 1 -13.765 17.1379 -2.41315 11
101 1 -17.4754 12.58 -3.70676 18
102 1 -6.99329 -0.877169 -12.8461 21
103 1 2.94396 0.488655 7.52224 16
104 1 -11.3989 9.87742 -8.86402 15
105 1 6.91513 -1.4026 -8.93457 13
106 1 -15.7863 7.7825 -15.2782 20
107 1 -12.872 15.4819 -5.62019 13
108 1 -6.44131 6.96223 -13.9383 19
109 1 -0.578392 -8.52881 0.703859 19
110 1 -13.6318 11.0604 -7.0323 18
111 1 -4.44041 13.2916 -6.41979 20
112 1 6.79777 6.23323 -5.42723 13
113 1 -16.1294 13.722 -13.0596 12
114 1 -18.0803 2.53802 -9.659 20
115 1 -7.18048 15.3943 7.06533 7
116 1 -18.9265 -0.267147 -5.94108 20
117 1 6.92098 -3.33655 -6.51563 12
118 1 -12.6258 15.0651 3.70296 15
119 1 -12.8366 14.5485 -12.1103 11
120 1 -0.700662 -1.9812 5.8061 17
121 1 -17.3687 -10.3134 1.3179 16
122 1 -11.6961 -8.09209 5.20801 17
123 1 -6.16891 -8.87221 -11.017 15
124 1 -15.4245 11.0255 -12.8406 19
125 1 -5.16096 10.8646 -8.80833 22
126 1 0.929307 10.4655 -8.28938 17
127 1 -9.74728 -12.1339 5.2918 8
128 1 -14.8533 4.08569 -3.09198 19
129 1 -7.6727 13.5805 -4.98861 24
130 1 -8.34788 9.47953 7.81744 16
131 1 -16.2209 16.4582 -0.630791 12
132 1 -15.7898 -0.640867 -6.06305 22
133 1 2.57216 -2.16566 -4.21663 22
134 1 -14.3399 3.69267 5.63695 16
135 1 -20.6154 -2.37439 1.15518 16
136 1 -14.8236 -8.50894 3.52532 18
137 1 -22.148 3.7326 -5.21314 8
138 1 -12.113 -10.8664 2.56152 15
139 1 -12.2605 -0.746067 -5.92815 19
140 1 -2.43065 -5.77857 -5.8218 21
141 1 -12.2082 10.318 1.31093 21
142 1 -13.5543 2.06758 1.94848 19
143 1 -12.8464 4.52284 -11.4671 20
144 1 -15.9467 4.47532 -16.3961 19
145 1 -18.4419 -7.54519 -6.67894 18
146 1 -17.3299 2.50642 6.43292 20
147 1 -8.39602 -12.0602 -0.848751 16
148 1 -11.4378 -12.448 -0.206764 13
149 1 7.75578 1.16315 4.52731 13
150 1 0.277765 2.19422 -9.93451 21
151 1 -3.24238 0.610139 5.27324 20
152 1 -9.67693 10.1836 -18.6115 12
153 1 2.26526 4.08812 -12.3014 17
154 1 -19.7466 -2.18602 -11.355 17
155 1 -14.0666 10.0377 -10.0805 21
156 1 -15.5013 14.0723 -6.78295 16
157 1 2.15792 6.4062 8.49851 20
158 1 -8.49319 -3.93813 -13.2896 21
159 1 -16.7446 11.5631 -16.0086 13
160 1 -7.9622 8.19787 -15.8078 16
161 1 -9.26513 5.90839 8.36707 18
162 1 -13.4705 17.2238 0.983276 12
163 1 -6.47252 -7.16889 -8.25408 18
164 1 -14.1059 -11.8122 -8.72956 11
165 1 -1.11392 -9.26614 -3.16509 18
166 1 -2.24609 -3.59186 -2.50921 22
167 1 -0.548833 7.57392 -9.20707 19
168 1 -9.94327 11.1911 -6.45294 20
169 1 -19.0289 0.042698 1.68881 20
170 1 -6.72488 5.89577 4.96043 20
171 1 3.14391 -0.392747 -1.30605 20
172 1 -6.50203 11.3446 3.38548 17
173 1 -19.9348 7.21752 3.01291 11
174 1 -20.8947 -5.48123 -10.943 11
175 1 -3.61092 13.0481 -14.864 14
176 1 -4.66045 3.06619 4.95724 22
177 1 4.57867 13.2342 -7.08886 9
178 1 -2.78224 -8.9447 -6.14563 15
179 1 -11.9405 -4.5285 -13.7946 18
180 1 2.58322 3.01559 -6.74003 14
181 1 -16.1358 -5.81383 4.43497 21
182 1 -8.22104 -11.7603 -11.1618 11
183 1 -13.52 -2.09886 -15.3737 16
184 1 -7.30341 13.4496 -8.75366 20
185 1 -2.68731 0.463671 -18.5248 9
186 1 -1.68039 5.7024 10.9447 15
187 1 10.6591 1.02193 -4.48406 8
188 1 -11.8266 -4.56207 -2.53463 19
189 1 1.53312 -1.42702 -10.8212 20
190 1 -10.4129 -3.41723 -0.0411209 21
191 1 -16.6719 5.67382 -10.4976 20
192 1 -18.1892 6.77389 -13.1915 17
193 1 1.11443 4.53072 11.7931 10
194 1 3.14598 5.73252 5.25345 15
195 1 -12.5745 -7.88298 -13.8499 18
196 1 -5.00846 -4.56706 2.50924 18
197 1 -10.9366 12.245 -16.8708 14
198 1 -1.95179 9.51718 -0.302074 19
199 1 -15.6507 -4.64797 1.49764 21
200 1 -7.59974 17.099 -2.29097 13
201 1 -16.5962 0.124874 4.08613 22
202 1 -15.5791 -8.70335 -13.4015 9
203 1 -15.9339 -0.080255 -14.3686 18
204 1 -15.6062 -6.22103 -4.69783 20
205 1 -8.46862 -6.56112 -0.16973 21
206 1 6.20701 1.69904 1.92234 19
207 1 -10.5188 -3.38493 -5.07111 23
208 1 -16.4872 1.11762 9.70801 15
209 1 -10.2918 -7.31065 -2.96928 22
210 1 -7.55561 -9.95604 -2.88501 20
211 1 -9.98424 14.8309 -7.45845 16
212 1 -5.10047 6.91279 -19.3544 7
213 1 -18.4503 -0.537559 -14.0227 10
214 1 -3.32925 -8.33182 -0.803794 14
215 1 -12.9491 -7.99834 -8.73518 17
216 1 -15.968 3.36675 -19.1089 10
217 1 4.74623 7.28624 2.46939 20
218 1 -11.4212 3.61823 -14.0009 19
219 1 -4.45262 7.74473 -16.5688 16
220 1 -9.24946 -3.86708 2.74799 21
221 1 -16.1302 15.5911 -3.83486 14
222 1 -8.31909 8.79615 4.53506 19
223 1 6.41604 -0.244368 -0.404655 20
224 1 -21.2037 1.5751 5.69206 9
225 1 -9.95408 -7.8771 10.0862 7
226 1 -17.3082 9.4393 2.71471 11
227 1 -2.62012 -5.81022 -17.2067 11
228 1 -0.577393 -6.03662 -2.1414 19
229 1 -12.1245 1.46674 13.586 9
230 1 -20.2363 -8.63483 0.440205 14
231 1 4.9135 -0.518137 -10.6527 16
232 1 -0.227513 -0.563685 -7.86906 19
233 1 2.13411 -7.61444 -7.37129 15
234 1 -13.5727 -3.53956 -0.363898 21
235 1 -18.4124 13.4247 -7.24106 9
236 1 -2.53051 4.18571 7.59203 18
237 1 3.95034 8.4057 6.55075 17
238 1 -13.9584 2.40949 -1.06869 21
239 1 6.35525 -4.31087 -9.95915 8
240 1 -13.774 11.0127 -1.61662 20
241 1 -11.731 8.34476 -1.36166 21
242 1 -6.03705 -7.31045 5.95434 13
243 1 4.9655 -7.65058 3.12286 12
244 1 -10.794 8.23542 7.21374 19
245 1 -23.4671 1.27297 -2.85432 9
246 1 -7.10117 1.08799 9.63773 19
247 1 -8.08253 16.2827 0.608043 14
248 1 -10.2067 7.2046 -14.0824 20
249 1 -13.8042 9.31312 7.15731 17
250 1 -22.3186 0.669078 3.02542 12
251 1 -10.4993 -1.62989 -7.79853 22
252 1 -15.8239 9.90554 -3.45473 18
253 1 4.96763 7.97076 9.3302 11
254 1 -16.9678 -7.30916 1.25112 21
255 1 -0.700331 -6.70174 4.10439 17
256 1 -19.5306 10.8117 -2.5233 15
257 1 -9.26207 -1.00435 12.4806 11
258 1 -9.52549 -6.95684 -12.9659 19
259 1 -17.519 -0.374407 -11.1943 19
260 1 -2.45892 4.56348 -17.1505 13
261 1 -2.75831 14.3129 -1.03865 15
262 1 -19.462 8.23015 -10.787 14
263 1 -2.23524 2.12728 -12.6553 17
264 1 -16.8963 -12.4059 -4.45671 11
265 1 -17.7305 -5.24584 -12.2292 14
266 1 -8.55375 -4.15158 -2.5199 24
267 1 2.08896 4.72208 -9.20467 21
268 1 -12.7927 2.96861 -17.4282 14
269 1 -15.4321 4.66368 -12.8042 20
270 1 -14.7699 12.296 5.00022 11
271 1 -18.6611 14.4198 -1.68408 10
272 1 -13.6839 11.795 8.37371 9
273 1 -0.141351 -3.34079 -9.71879 19
274 1 1.03217 5.65192 -14.7805 12
275 1 -11.5699 8.32984 -6.39397 22
276 1 -5.44541 -5.82856 -5.1195 22
277 1 -10.1193 11.3215 -1.23026 23
278 1 -13.0807 5.55781 -5.98118 19
279 1 3.67384 -9.47294 -5.30356 10
280 1 6.19378 -1.61104 2.96788 16
281 1 -18.5848 5.50969 -8.72274 17
282 1 -13.1605 -7.65531 1.76392 20
283 1 -11.9332 11.4312 -12.13 21
284 1 -17.4143 -2.09161 -8.47315 20
285 1 -15.6032 7.93836 -6.30553 19
286 1 -6.99964 14.1565 -11.508 13
287 1 0.228495 8.92383 2.07664 18
288 1 -21.8491 -2.16468 -5.78539 12
289 1 -10.1476 -7.25658 -8.02003 23
290 1 -17.4647 -3.19805 6.03867 16
291 1 -18.9436 6.55505 -5.59744 17
292 1 1.70682 -8.07373 2.29313 21
293 1 -14.4139 -13.4005 -4.54342 10
294 1 -4.01447 15.1448 -12.8667 10
295 1 -14.4887 3.08518 -14.7151 19
296 1 -14.2391 -6.88065 -2.45418 19
297 1 8.13256 7.20631 1.13645 13
298 1 -12.1485 4.79198 6.70117 17
299 1 -22.8141 3.21633 0.485227 11
300 1 -14.6079 9.43485 4.20298 18
301 1 -14.3173 -13.5484 0.822679 9
302 1 -7.13314 -1.45644 -8.01195 24
303 1 -2.75387 -9.71764 -14.7655 10
304 1 -5.58241 -1.25273 7.52876 19
305 1 -17.0962 2.19971 1.2608 20
306 1 -10.7067 -5.03073 11.6131 9
307 1 -3.36552 -12.4147 -9.27635 10
308 1 -2.57266 -3.11583 -18.3491 10
309 1 -15.6278 -2.23661 9.1994 13
310 1 -3.55475 -6.86857 -3.28705 20
311 1 -14.641 6.34308 -18.2448 12
312 1 1.76961 -7.24461 -3.43134 18
313 1 -8.02786 11.6246 -12.1433 22
314 1 -8.30385 0.578372 7.02907 20
315 1 -11.5995 -2.52198 4.21241 21
316 1 1.41565 0.940765 10.0358 12
317 1 0.452444 7.52065 -3.75595 21
318 1 -13.3753 7.55939 1.68528 18
319 1 -5.41744 4.80265 -15.8948 21
320 1 2.66646 -9.9927 4.14748 8
321 1 6.1885 1.59042 -8.88726 16
322 1 -13.3763 2.48084 10.515 14
323 1 -6.84085 11.4279 -6.24792 22
324 1 2.70229 -5.91873 4.46711 11
325 1 -16.7288 -12.8244 -7.29505 10
326 1 -11.0194 16.5274 -0.54056 16
327 1 -16.0845 -10.3139 -9.81848 12
328 1 0.280814 6.73039 13.6461 7
329 1 -11.8497 -0.887477 7.15142 19
330 1 -12.1795 -4.53984 -7.94992 22
331 1 -16.3858 8.00831 5.97783 15
332 1 -17.6783 -4.90444 -9.22614 20
333 1 -11.8796 14.0362 -1.94479 18
334 1 -14.6023 -8.25809 -6.09146 14
335 1 -7.69564 -6.01569 -15.4734 17
336 1 -16.4759 -8.68249 -3.81856 20
337 1 -13.6732 0.0234323 4.61725 19
338 1 8.7205 3.55828 2.46278 14
339 1 -14.0982 -4.06658 10.4613 9
340 1 -19.1039 5.51753 -15.4939 13
341 1 5.75501 4.84145 0.420583 21
342 1 -18.8584 -10.1276 -5.09448 14
343 1 -7.09408 6.02406 -10.8873 20
344 1 -9.23662 16.6002 -4.96395 13
345 1 -9.6403 10.2925 -14.1393 22
346 1 -10.4391 13.6731 0.908573 21
347 1 -15.3605 0.49677 -9.34501 19
348 1 0.987269 12.7478 -10.1849 11
349 1 -10.5839 -1.40719 -13.3357 19
350 1 -11.9523 -10.2483 -14.0874 8
351 1 -3.96758 -6.43453 -12.9304 19
352 1 -20.6231 8.72923 0.064064 10
353 1 -4.93438 5.59361 12.9086 15
354 1 2.65704 11.6214 -3.21683 14
355 1 -8.49103 10.489 -3.49956 20
356 1 -14.2942 11.7065 -17.4979 10
357 1 -2.93359 3.43938 -10.2969 16
358 1 -7.3935 -6.15954 2.44569 19
359 1 -22.1595 -2.55062 -1.98801 10
360 1 -7.85178 2.26647 -19.8442 13
361 1 6.72202 5.02259 -3.07717 14
362 1 2.3884 -5.11868 -5.22522 20
363 1 5.59829 -2.33836 0.234993 17
364 1 -5.7217 -0.271726 -15.4727 20
365 1 -6.74395 -7.29956 -3.32798 18
366 1 -10.5103 -9.51307 -0.509173 21
367 1 -3.18995 -5.2628 6.10283 15
368 1 -18.4477 9.81884 -13.993 14
369 1 -10.4962 -7.50945 -16.3737 10
370 1 -3.19939 1.54233 -15.8366 19
371 1 -4.17228 -0.693623 11.0911 14
372 1 -18.3586 -4.19687 -0.92522 18
373 1 7.44311 0.780678 -11.7844 8
374 1 2.27919 4.55784 -3.77921 21
375 1 -13.316 13.6343 0.617181 20
376 1 -5.06779 -4.29221 -8.14619 19
377 1 -0.216167 5.02453 -11.3836 20
378 1 2.16832 -3.54606 -12.5789 16
379 1 -10.4865 0.616336 9.48087 21
380 1 3.87992 7.99019 -3.68338 19
381 1 -10.1039 -3.68304 -15.9492 17
382 1 -11.1715 -1.1216 1.64771 24
383 1 -15.233 12.806 -10.2376 19
384 1 -15.2223 0.712748 -17.2562 15
385 1 -18.3503 4.3214 -3.6823 19
386 1 -13.6506 -10.3329 5.44483 15
387 1 -8.24593 10.3857 -9.10741 21
388 1 4.67165 2.45542 -1.34706 18
389 1 -21.4456 -8.11158 -4.37443 10
390 1 -10.1094 -10.828 -3.21104 15
391 1 -16.2247 14.702 1.11702 9
392 1 -5.4353 -0.560475 -10.5753 20
393 1 -4.76186 8.35686 -5.88172 19
394 1 8.30652 -2.37806 -3.3982 13
395 1 -3.70803 13.9201 -9.07958 15
396 1 -5.82164 -5.78598 -0.646427 20
397 1 -11.5978 9.06402 4.35089 20
398 1 -2.79007 11.5003 10.8767 12
399 1 -9.28175 -0.327776 -15.8067 21
400 1 -15.1475 -5.05092 -7.88391 19
401 1 -4.05666 1.57256 8.39816 17
402 1 -0.915215 13.4466 4.22694 12
403 1 -3.10074 8.2461 -8.38664 18
404 1 -19.0165 8.50801 -4.03781 18
405 1 -14.1407 12.7625 -4.06627 18
406 1 3.96985 -3.241 3.439 17
407 1 1.98545 2.31173 -15.0441 11
408 1 -17.9728 -9.77691 -1.24281 17
409 1 -6.37093 7.22248 10.5101 17
410 1 -9.79955 13.1237 -13.8506 16
411 1 4.46597 -6.73443 -2.26945 17
412 1 0.00139175 -4.32839 -15.5558 12
413 1 -13.0039 14.2323 -9.12903 12
414 1 -12.7792 -4.58149 -16.6658 10
415 1 -3.49225 -13.0231 2.66588 8
416 1 -18.6841 -6.08296 -4.03523 18
417 1 -11.3216 4.44864 -8.18579 24
418 1 -16.6876 -8.61 6.51908 11
419 1 -5.32553 10.8241 -3.9976 23
420 1 -5.48216 -12.1039 -6.48323 11
421 1 -1.7488 -3.86811 8.31514 13
422 1 -1.53041 2.8031 -5.62096 23
423 1 -16.6831 5.48785 5.40166 18
424 1 4.28983 -3.49501 -1.983 18
425 1 -5.83582 12.4533 9.06403 8
426 1 -9.53205 1.91457 -13.1745 19
427 1 -3.54657 14.793 1.73685 12
428 1 -2.80993 9.50641 -12.9128 19
429 1 -5.07378 -1.47825 -17.9358 13
430 1 -10.5543 -9.27178 -10.6716 18
431 1 -16.1712 -2.53823 -12.0347 17
432 1 9.97974 -0.461873 -1.20976 12
433 1 7.4533 0.0632878 -5.75719 16
434 1 -2.73304 -2.689 -15.0664 19
435 1 1.33822 -3.18923 -7.08099 19
436 1 -3.48011 8.39082 2.73705 21
437 1 -16.9182 4.21381 -1.0575 20
438 1 5.46481 6.58922 -9.14591 11
439 1 6.83329 -4.54938 1.60975 13
440 1 -1.87952 6.86531 -14.9844 16
441 1 3.52015 6.32897 11.2625 10
442 1 -9.71009 0.0241853 4.62716 20
443 1 -1.44009 1.61459 10.5652 14
444 1 4.64453 3.56919 -9.68552 17
445 1 0.693671 8.89914 6.86982 21
446 1 -14.5917 1.64707 -11.7912 21
447 1 6.85222 8.14867 -1.93288 10
448 1 6.45351 -9.09379 -3.10722 10
449 1 -5.50823 -3.49222 -2.90898 18
450 1 4.63994 0.0220159 4.58562 18
451 1 -4.49072 10.0393 8.22693 21
452 1 -1.63101 5.49031 2.33327 20
453 1 -10.2845 13.4996 -4.53766 18
454 1 -4.22358 12.0622 -12.059 19
455 1 4.76897 -1.07045 -13.6818 13
456 1 -3.6986 11.2917 -1.59199 19
457 1 -10.5923 -10.7674 -8.27938 16
458 1 -20.9067 4.31875 3.01204 16
459 1 -13.0897 9.14919 -19.5037 9
460 1 -15.9415 -11.1151 3.96772 12
461 1 -14.2134 -1.87144 -8.83007 20
462 1 -21.5751 3.16182 -2.66644 16
463 1 0.456095 -5.48056 1.1431 20
464 1 6.63305 8.48561 3.88967 11
465 1 -3.39481 -7.25711 3.36898 16
466 1 -18.3062 3.01406 -13.8757 16
467 1 -1.1043 3.09329 4.50557 20
468 1 -7.64363 4.16239 10.6893 19
469 1 4.76822 10.7187 -5.46435 11
470 1 -2.44776 7.1734 -11.2053 19
471 1 -5.33752 -12.9698 -11.6915 8
472 1 7.17338 2.78654 -1.18468 16
473 1 1.32503 9.42194 -0.978907 16
474 1 9.2787 -2.88215 0.125626 10
475 1 -10.8656 3.67594 9.49598 17
476 1 -16.8796 -6.68941 -1.56124 20
477 1 -20.9642 3.27375 -8.85644 13
478 1 3.56878 3.30691 9.58964 14
479 1 -8.31147 -8.64359 8.0579 9
480 1 -0.598841 9.87214 12.5468 12
481 1 -17.2185 8.32247 -8.59081 20
482 1 8.75808 4.63621 -0.0648535 12
483 1 1.94805 6.01378 1.96999 19
484 1 -11.0143 0.623451 -20.3918 7
485 1 -19.9567 -1.29349 4.81205 14
486 1 -2.33188 -0.663929 -10.6062 23
487 1 -8.54955 -4.32124 -8.26218 23
488 1 1.60258 -9.32032 -9.98887 9
489 1 -0.98883 8.9216 9.4108 19
490 1 -1.07254 7.89397 3.95291 18
491 1 2.93956 11.2674 7.54993 8
492 1 -5.40999 -4.55709 8.29791 16
493 1 -10.4024 4.7968 13.0173 12
494 1 -4.20386 -3.31207 -11.9411 18
495 1 -16.2807 3.6955 8.83951 14
496 1 0.839569 3.35281 7.48472 19
497 1 7.5142 2.62484 -5.18136 11
498 1 -6.32928 -9.55292 -13.6619 10
499 1 -12.481 1.08468 -8.76577 20
500 1 -0.522444 10.6424 -4.15192 20
501 1 -0.534067 11.9729 -1.60682 16
502 1 -7.63715 -2.73041 5.07297 19
503 1 -6.5683 15.8549 -6.92794 13
504 1 3.22665 6.48828 -1.05442 17
505 1 -12.2315 -6.43829 -5.22869 20
506 1 -7.80639 2.53891 -15.9372 22
507 1 -15.8491 13.3003 -1.51796 21
508 1 -1.35018 -7.2594 -14.7263 14
509 1 0.12531 6.42957 -0.669493 20
510 1 0.656618 7.35526 -12.4108 16
511 1 2.9376 7.86449 -9.88593 14
512 1 -9.88807 7.48993 1.48559 21
513 1 -13.6012 7.55638 -3.48618 22
514 1 -3.14213 11.0967 -6.86907 23
515 1 -9.96897 -5.2356 5.4663 21
516 1 -12.7095 9.77059 -14.7235 18
517 1 -3.63916 12.0124 4.98163 15
518 1 -7.96484 3.01137 4.83296 22
519 1 0.425017 13.3203 -4.72202 16
520 1 -0.822649 13.4072 1.17935 11
521 1 3.47344 -3.04684 -9.20848 17
522 1 -22.0206 -5.32382 0.585844 8
523 1 -5.5885 -11.7047 0.312994 13
524 1 -12.9269 -1.20361 -11.6095 21
525 1 -9.32653 11.3973 5.39698 21
526 1 -3.95996 -1.18265 -7.85266 23
527 1 -4.47964 11.1156 1.37581 20
528 1 -20.7503 1.54233 -6.04261 16
529 1 1.3244 -7.60923 -0.717446 19
530 1 1.99502 9.20502 -5.73115 17
531 1 -4.07932 -2.66502 -0.00346233 22
532 1 -6.88011 11.4189 -0.82547 22
533 1 -4.42252 3.37536 -20.0052 9
534 1 -8.5635 -5.0021 8.54151 15
535 1 -1.77696 15.121 -6.05959 13
536 1 -6.97124 7.43116 13.4115 9
537 1 -11.8789 -6.51137 -11.1476 20
538 1 -2.24895 1.42143 -8.19565 19
539 1 -10.8193 17.128 2.98593 10
540 1 -2.21347 -11.2847 -11.6727 10
541 1 -4.39482 -2.80353 5.13719 21
542 1 -6.67968 -13.3457 -8.46937 11
543 1 -17.9686 0.0338152 7.78761 13
544 1 -7.91035 2.93334 -11.0202 19
545 1 -17.3815 -10.1327 -7.25335 17
546 1 -18.4807 6.11962 8.44785 9
547 1 3.4931 1.77293 -4.27035 15
548 1 -13.3567 5.72457 3.94028 17
549 1 -18.3161 6.85504 -1.54376 19
550 1 2.4083 -2.70661 -0.077301 18
551 1 -13.5975 12.6211 -14.8609 16
552 1 2.33509 0.868323 -12.5137 19
553 1 0.332094 5.09369 -6.21761 18
554 1 -14.8512 3.63939 -9.38104 19
555 1 -14.9844 -5.09301 -14.0266 14
556 1 -6.46054 13.5246 -14.2329 15
557 1 -13.5181 -0.426081 11.1491 14
558 1 -13.5393 -5.62451 4.44171 20
559 1 -8.49829 -6.36032 -10.2493 21
560 1 -16.3886 7.01769 -3.79662 20
561 1 -1.86346 11.0182 2.58581 19
562 1 -20.188 -6.02053 2.08853 13
563 1 3.92189 10.7292 -9.5489 11
564 1 -8.71557 -12.0073 -5.56572 17
565 1 -4.52118 4.72763 -8.48668 21
566 1 -8.86664 -0.82023 -18.6917 13
567 1 -6.27144 3.45486 7.48404 20
568 1 -7.00531 4.70603 -18.466 14
569 1 -17.7783 -1.3163 -3.43683 18
570 1 0.633076 2.38859 -2.97898 19
571 1 -14.1786 -1.2211 -3.24288 19
572 1 5.35978 4.51696 -7.18529 15
573 1 0.785006 0.154237 -5.11683 18
574 1 -12.6863 8.75984 9.94799 14
575 1 -2.54096 -5.84368 0.250113 22
576 1 4.41849 -5.42766 -7.85115 15
577 1 1.9465 -1.70551 5.07974 19
578 1 -4.90872 16.5127 -0.543003 12
579 1 -12.1626 6.08784 10.8008 12
580 1 -13.0901 -13.1859 5.43687 7
581 1 2.2265 3.28565 -0.70385 19
582 1 1.43521 8.38539 10.7107 15
583 1 -22.3061 -2.57787 -9.03842 10
584 1 0.289238 -5.87958 -8.03389 20
585 1 -4.85755 8.58454 -1.02106 22
586 1 -0.559038 5.81876 6.44045 18
587 1 -9.40007 14.3795 4.27274 14
588 1 -8.38822 -14.0328 0.802122 6
589 1 -17.3751 2.49416 -6.34343 15
590 1 -4.42001 2.11782 13.0326 11
591 1 -3.14846 13.1463 -4.04148 19
592 1 -15.3441 -12.2246 -1.27635 15
593 1 -2.59167 -4.14316 2.78601 19
594 1 3.16169 0.264969 2.12116 19
595 1 1.43774 11.4889 3.37795 11
596 1 -9.43489 7.21492 -8.98652 22
597 1 -6.53729 -6.31821 -11.9673 20
598 1 -6.82059 9.54504 -18.3784 11
599 1 -7.15218 3.82021 14.2761 14
600 1 -6.81303 13.8466 0.915359 16
601 1 8.71726 1.38382 -2.7169 16
602 1 -8.85178 8.76296 -11.7471 21
603 1 -5.81722 12.1519 6.46575 18
604 1 0.640153 12.8647 6.62978 12
605 1 -0.865494 -2.92744 -13.0115 21
606 1 -9.8693 -8.89452 -5.35749 19
607 1 -11.1553 2.16988 -10.7895 21
608 1 5.76786 2.14116 7.18609 12
609 1 -3.62246 -0.441159 -13.1464 19
610 1 -8.78345 -5.9471 -5.77835 22
611 1 5.69881 -4.35989 -4.19265 16
612 1 -7.06687 -5.21184 5.54206 20
613 1 -13.38 -9.83613 -11.4653 15
614 1 5.1043 8.55337 -7.16877 14
615 1 -13.4553 -3.75228 7.11765 21
616 1 -21.6685 6.32753 0.463464 11
617 1 1.35352 10.7168 -11.9023 14
618 1 -5.8376 -4.82078 -17.5818 11
619 1 -17.4086 10.3794 -0.743445 17
620 1 -2.30371 10.0028 -16.5546 9
621 1 0.970395 -3.67435 -2.17755 22
622 1 -16.3436 5.04094 -6.98669 22
623 1 3.81244 10.3975 2.82083 11
624 1 -17.4691 -13.3319 1.65529 7
625 1 -2.73811 8.24681 6.58934 20
626 1 -18.1037 2.17882 -16.6522 13
627 1 -19.2567 5.30603 5.95277 14
628 1 -13.8778 6.6207 -9.06223 20
629 1 -1.5543 -8.60243 -11.8906 17
630 1 -19.6987 -4.27498 -7.38972 18
631 1 3.77012 -5.47564 0.887779 21
632 1 -20.0534 3.79118 -0.0315522 21
633 1 -20.2637 -0.341957 -8.99903 17
634 1 -15.8978 -5.33983 7.72485 13
635 1 0.626739 -3.54231 3.20687 18
636 1 3.99581 3.39673 2.87455 17
637 1 -15.7574 0.0283888 -1.16853 21
638 1 -5.40506 8.70014 4.85899 22
639 1 -5.75794 8.82795 -11.0057 21
640 1 -8.79455 14.3631 -1.74267 21
641 1 3.83876 14.1663 -4.79698 9
642 1 -3.337 6.44722 8.82862 16
643 1 0.65643 -6.261 7.36236 7
644 1 -0.0461071 9.16852 -14.426 11
645 1 -9.72814 2.79193 6.94923 23
646 1 -5.71019 -3.55535 -14.5021 21
647 1 -20.9364 -0.222057 -3.15594 16
648 1 -11.1337 -9.86574 7.38401 12
649 1 2.12982 1.96354 5.26423 21
650 1 -7.96228 -10.1109 -8.43731 22
651 1 -21.706 0.81816 -0.152774 16
652 1 5.36626 2.29588 -12.3284 13
653 1 -17.4247 5.90782 1.94369 21
654 1 -13.2485 1.80962 7.86104 22
655 1 -15.5267 -6.99242 -11.0998 20
656 1 -6.71342 -9.05103 -5.95175 20
657 1 1.56902 -11.0349 0.393849 12
658 1 -8.0882 12.4023 -16.7255 13
659 1 2.79653 0.909962 -9.18169 17
660 1 2.11258 8.17096 4.3237 16
661 1 4.24137 -1.20928 -6.76125 18
662 1 -10.3891 5.3004 -18.7231 10
663 1 -8.61316 -9.25645 4.98386 15
664 1 1.58662 15.2335 -7.17226 11
665 1 -5.46208 2.63644 -13.5556 17
666 1 -20.8303 6.54265 -3.17156 14
667 1 -1.86379 11.1139 -10.2542 20
668 1 -15.6013 -0.586148 6.37899 18
669 1 -2.09962 11.3243 7.36247 17
670 1 -6.08144 -12.7594 -3.56962 10
671 1 -0.716993 13.1355 -7.89154 16
672 1 -10.8218 11.2819 8.90915 14
673 1 -19.4644 2.70709 8.58139 11
674 1 2.96317 6.49123 -5.71472 18
675 1 -9.98621 -2.8647 6.92442 19
676 1 -6.33628 -8.68196 2.89725 16
677 1 -11.8336 2.51917 4.55412 22
678 1 0.298342 11.5383 9.7273 14
679 1 -1.47016 -5.57941 -11.363 16
680 1 -10.2459 2.22356 -16.6902 19
681 1 -15.8161 9.21523 -18.5308 13
682 1 -19.3999 4.84929 -11.5401 14
683 1 5.07977 8.67603 0.0469216 14
684 1 -8.72625 10.6559 1.6813 21
685 1 -20.9522 -4.44969 -4.34413 14
686 1 -11.923 10.6439 -4.20491 20
687 1 6.12616 4.92102 8.82375 12
688 1 -11.8287 -6.61009 -0.507567 18
689 1 -0.409613 0.24026 -14.1281 16
690 1 -7.55335 -9.14695 0.149245 17
691 1 -4.98204 2.00206 -17.6335 20
692 1 -10.5729 8.49333 -17.1762 18
693 1 -15.6288 -3.90616 -2.48615 19
694 1 -14.9027 7.68629 -12.3188 19
695 1 -15.3553 7.02012 9.08591 10
696 1 -0.293623 0.922719 6.80005 20
697 1 -18.4671 -7.86368 3.58298 14
698 1 9.14953 1.00327 1.05464 15
699 1 -9.94293 5.22132 -16.0328 19
700 1 5.29367 -0.803831 -3.3236 21
701 2 -17.9408 -2.57506 -10.4327 20
702 2 -16.7648 13.7608 -8.37305 14
703 2 -2.56598 -4.35208 -12.0744 17
704 2 -11.8532 12.9534 8.02145 9
705 2 -15.84 -5.45499 -9.96452 16
706 2 0.239009 2.46005 11.0221 12
707 2 -21.1475 -8.46873 -2.67218 13
708 2 -19.2015 7.37472 -7.56164 19
709 2 -6.46217 10.8135 7.81507 16
710 2 -19.2387 -1.7852 2.8273 17
711 2 2.66646 9.59101 6.81334 17
712 2 -9.01743 -0.644613 -8.5141 21
713 2 -18.3045 -6.36488 -8.038 17
714 2 -18.3979 4.66469 -6.82378 18
715 2 -9.68365 -2.47902 4.34695 22
716 2 -2.41126 6.17912 6.96228 18
717 2 -0.325245 6.85074 -10.9948 17
718 2 -5.49153 -11.9985 -2.01737 12
719 2 -1.05891 3.28942 2.39757 21
720 2 -8.76643 14.7309 -4.01959 22
721 2 -19.4781 4.15113 -9.67902 14
722 2 4.42711 1.47448 2.86039 16
723 2 6.32976 -4.06893 -8.10891 12
724 2 -18.7418 -10.1412 -3.34502 14
725 2 -12.6716 -8.59977 6.87319 14
726 2 -12.7098 -12.5118 1.48816 12
727 2 2.12194 -6.48237 1.47226 22
728 2 -13.5953 -9.69896 -13.5476 11
729 2 0.0396838 -0.3048 9.61232 12
730 2 -4.74445 10.0482 -12.49 20
731 2 -19.3684 -4.31298 -5.34187 18
732 2 -6.57851 5.65318 14.0572 11
733 2 -18.8831 12.601 -2.32893 12
734 2 -11.2637 6.50917 12.42 11
735 2 -12.5666 13.8384 -4.47168 16
736 2 4.06629 -5.07178 -0.971082 22
737 2 -13.5937 11.1561 0.232819 21
738 2 -5.95151 15.0775 -13.1028 11
739 2 -2.26684 -3.74791 -5.54375 19
740 2 -9.08723 1.5432 -11.2194 18
741 2 -5.31738 -4.83385 -12.7514 17
742 2 0.220028 0.644021 -3.4556 20
743 2 -8.63008 3.98003 12.7024 16
744 2 -6.5432 12.9611 -15.938 13
745 2 -13.381 11.1733 -13.3439 22
746 2 2.02542 10.9957 -9.71765 15
747 2 -14.897 -4.00284 8.70449 15
748 2 -19.4099 9.788 -0.780923 12
749 2 6.33192 2.20634 -10.7359 13
750 2 -9.65874 -7.63494 -11.1711 18
751 2 -19.7877 -10.2981 -0.302571 11
752 2 1.76872 5.70229 -0.0220751 18
753 2 -11.7142 14.7978 -0.177452 19
754 2 -16.305 -9.40042 -11.5897 11
755 2 -12.6973 17.3999 -0.823421 12
756 2 -7.11669 -12.8184 0.458496 12
757 2 0.150925 -4.43892 8.01733 10
758 2 -22.3074 1.77799 1.52197 12
759 2 3.86007 -7.42289 -6.99862 13
760 2 0.723205 -8.89766 -8.28598 14
761 2 -0.201457 12.1274 2.69047 14
762 2 4.41311 -9.89628 3.34504 8
763 2 -3.42733 -5.82624 2.02981 19
764 2 -17.7856 2.14209 8.9802 12
765 2 7.25737 -3.65342 -4.66744 11
766 2 0.625117 10.1688 11.1032 13
767 2 7.27939 5.02532 7.44649 10
768 2 -12.5785 4.19836 10.5161 14
769 2 -1.78408 14.244 2.7065 12
770 2 4.9358 -6.16552 -4.18737 18
771 2 -7.81418 7.65497 -9.82124 20
772 2 -12.4197 -1.27642 -13.6388 18
773 2 -19.2782 4.5028 7.66449 13
774 2 -1.46211 2.68592 -9.25956 21
775 2 -14.7728 3.60976 -11.2926 21
776 2 -18.5234 -3.17662 0.531606 17
777 2 -19.8354 -8.48155 -5.76557 14
778 2 8.97939 1.24251 -5.15607 10
779 2 -11.8358 -2.91334 7.12214 18
780 2 -5.67365 2.64392 14.3812 9
781 2 -2.40671 3.02837 -16.3289 15
782 2 -3.05429 0.463246 9.80458 12
783 2 -5.36158 14.5473 2.20965 16
784 2 -15.1709 3.1641 1.37744 16
785 2 -3.09803 -7.22533 -11.1905 18
786 2 -0.272658 -2.45776 -7.9069 22
787 2 -15.2121 13.1622 0.591168 16
788 2 -9.21645 -8.89261 -3.41388 21
789 2 -0.149291 -9.16287 -10.8066 15
790 2 -1.59308 4.2134 -6.95542 18
791 2 -5.09531 5.03442 4.40462 20
792 2 -0.989104 0.573023 -6.39545 18
793 2 -4.00746 -2.87234 2.14323 20
794 2 -16.312 -13.1304 0.348273 9
795 2 2.43129 2.97308 -2.56104 18
796 2 -14.7687 -6.61161 3.06944 21
797 2 0.973548 9.37296 -12.8835 13
798 2 -10.1065 -7.41265 -1.0336 20
799 2 5.46515 -2.34219 -10.0678 17
800 2 -7.18251 -7.89157 -9.78799 17
801 2 9.96025 -0.907189 0.579402 11
802 2 -11.9686 13.5174 2.21097 17
803 2 3.47731 0.658084 -10.9685 21
804 2 -10.2263 -3.25805 -13.6517 21
805 2 -21.4758 -3.23742 -7.4155 12
806 2 -8.74433 -4.60618 -0.781634 22
807 2 -10.4628 -3.40465 -3.06634 19
808 2 -16.6011 9.55685 -7.1915 16
809 2 -16.5187 9.61195 0.820358 18
810 2 -3.82957 3.56833 -13.3038 18
811 2 0.381844 12.2978 -11.94 10
812 2 -5.39082 13.5279 -10.6901 17
813 2 -15.1403 8.197 7.35307 14
814 2 -9.28737 1.05889 -20.1307 10
815 2 -17.0986 6.44853 0.0342122 18
816 2 -9.68672 9.85457 6.36101 15
817 2 -17.7134 4.05891 4.88411 16
818 2 -14.1694 8.08516 -14.3157 15
819 2 -1.11589 12.752 -3.40893 16
820 2 3.63613 6.00902 -9.56231 16
821 2 1.44605 -5.29981 -3.35909 21
822 2 -18.0266 1.17454 3.05966 15
823 2 2.3201 3.83515 1.87691 21
824 2 -7.04601 13.6973 -1.03602 21
825 2 -15.7329 6.39314 -16.2777 20
826 2 -18.2508 7.81225 2.50884 12
827 2 0.494973 0.835755 2.33613 18
828 2 -11.7199 -6.34899 -13.3245 20
829 2 -3.37343 11.4884 -16.0392 12
830 2 5.70451 6.44773 -7.04269 13
831 2 -15.5348 -7.51185 7.51333 11
832 2 -7.01373 11.9322 -4.17513 22
833 2 -12.502 10.1364 -11.0907 18
834 2 0.0758384 14.2314 -6.34297 13
835 2 3.07569 4.30094 11.2792 13
836 2 -4.37034 7.93423 8.09892 19
837 2 1.96769 -3.25626 -10.41 19
838 2 -5.77612 2.77038 9.28437 18
839 2 -2.71347 -2.07521 10.3365 10
840 2 -20.2802 1.94334 -0.614333 20
841 2 -6.78144 -10.6631 -12.0427 11
842 2 -5.89639 -6.29191 -16.2488 14
843 2 -0.890475 -6.09794 -16.1875 8
844 2 10.4779 0.476944 -2.77123 10
845 2 -13.051 1.35026 11.9484 11
846 2 -4.96262 2.60873 -15.5952 19
847 2 -10.298 -6.95853 11.6633 5
848 2 -8.08621 -4.03228 -16.0097 17
849 2 -7.97039 -5.65231 -13.0978 18
850 2 -6.53861 -3.11787 -9.06029 22
851 2 -1.95855 -9.31425 0.0647577 16
852 2 6.11337 4.51042 -8.76867 12
853 2 -11.0718 3.94769 -17.0031 14
854 2 -12.2272 10.5045 3.18773 21
855 2 -13.8014 -3.07173 -2.41926 20
856 2 -18.9501 7.00203 -16.4734 14
857 2 -5.4256 12.008 -13.763 17
858 2 -11.401 13.8264 -13.0907 12
859 2 -11.4951 -6.08812 4.79233 19
860 2 6.51686 -0.307862 4.30513 13
861 2 -8.05187 7.77208 11.7601 15
862 2 -17.7784 -11.3688 -5.82956 13