ITEM: TIMESTEP
89000
ITEM: NUMBER OF ATOMS
500
ITEM: BOX BOUNDS pp pp pp
-30.0 30.0
-30.0 30.0
-30.0 30.0
ITEM: ATOMS id type x y z Coordination
1 1 25.8697 6.39786 -10.1644 14
2 1 24.1426 16.2971 -10.6011 16
3 1 16.736 8.88747 -28.2428 10
4 1 10.6931 10.2126 -19.0909 21
5 1 20.9656 14.5804 -25.8164 19
6 1 20.9472 1.03034 -20.7436 12
7 1 23.6289 13.368 -8.56721 16
8 1 20.4582 17.8215 -9.73869 8
9 1 7.90836 10.6644 -16.9047 11
10 1 26.5175 9.64129 -18.7079 20
11 1 24.2766 9.9319 -10.0954 20
12 1 11.7341 2.9972 -16.1469 10
13 1 15.7108 8.1827 -25.525 17
14 1 24.3116 10.2424 -23.6503 21
15 1 27.6212 3.8404 -15.5544 9
16 1 12.0284 17.8191 -16.6862 15
17 1 19.447 21.7307 -17.779 10
18 1 13.4018 9.34826 -26.6725 11
19 1 17.9405 16.4992 -10.3278 16
20 1 15.2791 21.2233 -16.0127 12
21 1 21.6553 17.7407 -24.1537 22
22 1 27.1918 18.1565 -17.2556 13
23 1 15.0246 20.9042 -22.0224 11
24 1 13.0078 15.8146 -24.7161 15
25 1 17.9744 21.1188 -22.585 13
26 1 10.8593 14.1054 -16.182 18
27 1 16.4203 21.2451 -12.9277 9
28 1 15.5398 13.9936 -25.4729 21
29 1 13.269 4.12155 -13.5337 15
30 1 24.2606 1.76007 -21.4931 7
31 1 10.0592 11.919 -21.5008 16
32 1 18.6134 1.61161 -15.4325 14
33 1 26.0679 15.81 -25.5513 12
34 1 13.3538 7.74384 -23.425 16
35 1 20.8942 17.1827 -26.9579 13
36 1 21.2431 19.9642 -22.7372 14
37 1 9.23326 13.6117 -13.7938 9
38 1 20.6388 21.1457 -12.5432 11
39 1 24.3533 10.3168 -7.16382 12
40 1 18.2714 1.7308 -22.5532 15
41 1 26.5099 10.0554 -25.3885 12
42 1 22.7599 7.48866 -8.36978 11
43 1 21.9749 5.8763 -10.3493 15
44 1 24.443 19.0129 -18.6107 21
45 1 13.4384 4.74121 -18.2951 21
46 1 16.456 0.220595 -17.7136 9
47 1 12.5805 8.92931 -10.6863 11
48 1 11.4575 11.2043 -13.1869 14
49 1 20.4499 -0.436005 -17.4619 8
50 1 10.5783 11.0689 -16.087 17
51 1 18.178 22.1252 -14.5689 12
52 1 16.2696 14.6741 -15.5238 21
53 1 15.1936 18.159 -11.533 12
54 1 10.3921 8.84903 -22.4602 16
55 1 13.7019 15.3036 -21.0849 19
56 1 15.6225 11.3465 -27.3043 18
57 1 27.6342 11.5654 -7.39846 6
58 1 21.4603 10.0228 -8.68067 19
59 1 13.1115 13.0044 -26.7505 13
60 1 7.75638 9.27241 -20.4837 11
61 1 16.6344 4.77829 -15.9437 21
62 1 12.1629 17.7024 -13.4757 11
63 1 18.9456 4.33425 -24.2333 18
64 1 20.0322 20.1692 -19.8404 18
65 1 12.9391 12.7223 -22.44 20
66 1 9.12303 15.096 -21.4335 9
67 1 15.9126 2.50002 -24.1004 14
68 1 24.4546 2.35332 -15.0537 12
69 1 11.0425 15.8397 -19.0956 16
70 1 15.3904 9.97134 -9.74569 12
71 1 12.007 14.3935 -11.6966 13
72 1 12.9828 4.2416 -24.5938 9
73 1 18.8013 4.60042 -11.0239 13
74 1 23.9684 4.6753 -20.5768 16
75 1 23.5813 10.0506 -26.7357 15
76 1 23.0773 4.78673 -15.2329 17
77 1 13.5509 1.45081 -18.7658 13
78 1 12.3908 7.23837 -12.9594 18
79 1 27.0617 15.0474 -11.9495 18
80 1 26.31 17.8732 -20.6176 12
81 1 24.0809 13.0424 -25.1862 23
82 1 17.9722 15.3046 -27.6369 17
83 1 22.528 21.5796 -20.1347 12
84 1 23.7799 15.1989 -27.4115 14
85 1 21.573 1.09254 -14.4104 12
86 1 25.4477 4.75561 -17.6193 18
87 1 18.7533 1.46927 -18.8812 15
88 1 10.9414 16.6105 -22.6691 9
89 1 27.3115 15.2137 -15.36 16
90 1 13.4845 18.371 -22.6692 14
91 1 24.7413 7.1389 -21.8224 22
92 1 12.6408 5.06368 -10.8956 8
93 1 15.8643 0.97595 -20.9335 14
94 1 18.79 7.23751 -25.9257 16
95 1 19.4281 4.33655 -17.5094 17
96 1 11.5705 5.74283 -22.2905 14
97 1 18.5357 10.2822 -7.64943 12
98 1 19.6549 13.7437 -9.2068 13
99 1 24.9107 4.42804 -23.6659 11
100 1 24.2837 19.4845 -22.4422 13
101 1 27.4919 9.04606 -22.3199 13
102 1 15.7013 14.4127 -28.7688 10
103 1 9.94876 16.9045 -15.7483 11
104 1 24.3231 3.53692 -9.52486 7
105 1 10.6226 13.5546 -24.3625 13
106 1 26.8445 6.38787 -13.7183 17
107 1 23.0855 18.3302 -11.9383 16
108 1 18.7182 1.97479 -12.4531 11
109 1 26.2714 12.1355 -13.7726 18
110 1 26.5724 14.5717 -9.03011 11
111 1 28.292 17.9722 -13.8637 11
112 1 15.18 17.3339 -27.105 11
113 1 16.2569 4.05848 -19.2667 23
114 1 13.9539 15.3192 -17.6105 23
115 1 24.3792 16.1824 -23.3172 19
116 1 21.4878 12.4443 -6.74619 9
117 1 19.8424 9.67232 -27.1252 15
118 1 24.4293 21.6217 -16.9836 10
119 1 21.4897 2.64275 -23.8046 13
120 1 22.1288 3.42744 -12.3515 17
121 1 15.1079 14.9893 -9.69348 9
122 1 26.7468 12.1682 -10.5085 17
123 1 15.9192 20.2155 -25.0856 11
124 1 26.7742 12.5618 -23.563 18
125 1 19.5421 7.2539 -8.90677 11
126 1 15.0198 6.55596 -11.1767 14
127 1 13.7581 20.559 -18.7169 11
128 1 23.6299 18.7598 -15.7435 21
129 1 10.3279 5.39145 -14.2625 12
130 1 26.957 9.42523 -15.1339 13
131 1 13.8353 3.52642 -21.4645 16
132 1 26.9851 17.8668 -10.5149 11
133 1 22.4745 5.84162 -23.4482 19
134 1 23.6576 22.0467 -13.8874 11
135 1 7.55232 7.52557 -18.1237 10
136 1 18.311 18.3221 -25.7643 16
137 1 12.3503 10.7327 -24.1984 15
138 1 21.268 8.66961 -24.6217 22
139 1 16.1203 4.91969 -26.2013 11
140 1 27.3935 6.84545 -17.1221 15
141 1 9.33475 8.11117 -15.3177 13
142 1 18.2955 12.0904 -28.4216 14
143 1 9.19522 5.97829 -20.5444 10
144 1 26.6234 9.02296 -11.8395 13
145 1 21.322 12.1905 -27.1536 16
146 1 15.7795 17.9576 -14.2967 20
147 1 13.8433 12.1646 -11.2637 18
148 1 26.2264 19.708 -15.2265 15
149 1 26.403 14.9535 -18.6245 18
150 1 16.0111 4.29663 -12.7876 18
151 1 26.2041 12.6252 -27.0588 10
152 1 23.8545 18.5555 -25.5905 11
153 1 25.4819 19.5801 -12.3448 13
154 1 18.7305 18.4594 -22.35 20
155 1 27.2655 15.1728 -22.2372 13
156 1 27.0572 6.33044 -20.2123 13
157 1 18.3304 19.0917 -12.2496 16
158 1 15.0129 18.105 -17.0543 20
159 1 15.1202 2.59942 -15.9565 16
160 1 26.6062 3.56143 -12.5026 11
161 1 9.52161 5.38129 -17.1915 13
162 1 13.7686 18.0668 -19.5665 18
163 2 10.5842 12.607 -14.8382 17
164 2 25.2548 20.9083 -13.7109 12
165 2 9.57523 9.95121 -20.9257 14
166 2 16.2274 3.52991 -14.5285 15
167 2 20.3209 11.0248 -7.32598 13
168 2 16.3568 19.6092 -11.916 11
169 2 19.3349 8.89642 -25.0868 19
170 2 12.5218 16.9453 -23.4793 12
171 2 17.1822 10.6607 -28.2398 12
172 2 16.474 21.8662 -14.7829 10
173 2 26.3758 10.1697 -13.4053 17
174 2 23.2015 17.8533 -17.5771 18
175 2 18.582 20.9799 -13.0477 14
176 2 25.1997 19.4002 -16.6102 15
177 2 21.9521 18.3779 -26.1079 13
178 2 24.9198 8.91564 -25.7946 13
179 2 14.0121 11.7511 -23.6657 21
180 2 17.5345 3.20745 -11.6563 10
181 2 9.57337 15.2125 -14.8858 11
182 2 21.7058 4.32544 -24.1444 14
183 2 12.4633 2.97725 -17.9904 14
184 2 21.5712 19.4492 -12.3265 17
185 2 24.2918 6.79234 -9.27564 13
186 2 15.381 4.48105 -17.4936 18
187 2 21.4922 0.129491 -15.9949 9
188 2 10.3759 4.27069 -15.9059 12
189 2 19.5469 2.32918 -21.1562 17
190 2 14.3907 1.9828 -20.4464 15
191 2 16.2777 18.9983 -15.9303 18
192 2 24.2929 18.3668 -20.7764 17
193 2 21.8759 15.4871 -27.1978 15
194 2 26.2385 13.4499 -15.0596 20
195 2 20.9174 21.8342 -18.9693 10
196 2 11.154 17.9695 -14.9959 10
197 2 19.627 20.3464 -21.9041 16
198 2 18.1785 17.5382 -23.819 19
199 2 18.8416 18.2319 -10.4698 13
200 2 23.3566 12.0542 -7.11624 12
201 2 24.6239 6.22382 -24.3369 12
202 2 22.3678 1.93283 -21.9587 12
203 2 10.5121 5.94342 -18.7336 15
204 2 27.2119 4.88066 -16.9624 12
205 2 24.6452 18.4003 -13.8289 20
206 2 21.9147 12.9919 -25.4348 19
207 2 21.7939 10.3023 -27.448 13
208 2 13.7487 8.50049 -25.0636 14
209 2 22.0518 7.051 -25.2147 16
210 2 26.4192 10.4226 -23.2165 17
211 2 27.1912 12.159 -25.4341 12
212 2 17.0281 0.727131 -19.5005 13
213 2 19.0252 14.3205 -25.6831 22
214 2 13.4551 3.14889 -15.1969 16
215 2 17.1986 20.727 -23.9936 12
216 2 11.0125 7.2141 -14.6388 16
217 2 7.48841 9.33432 -18.2627 10
218 2 22.875 4.21372 -10.7488 12
219 2 23.7424 21.0132 -18.6399 14
220 2 17.0394 10.6963 -8.98954 13
221 2 10.8014 12.9548 -12.2495 11
222 2 12.297 9.22756 -22.379 20
223 2 26.2787 16.0605 -20.2998 18
224 2 9.52188 11.442 -17.8627 17
225 2 14.4721 15.6318 -26.4263 13
226 2 24.7499 12.3263 -23.4705 23
227 2 11.3286 14.0536 -18.2757 20
228 2 24.6453 3.71281 -22.0581 12
229 2 19.5003 2.31771 -23.8364 14
230 2 13.2742 18.9887 -17.7372 14
231 2 23.6327 3.64513 -16.5886 16
232 2 24.9739 18.0711 -11.0822 14
233 2 18.3583 20.6058 -18.9779 15
234 2 15.4918 8.37221 -10.9606 16
235 2 19.0669 16.7982 -26.741 17
236 2 23.306 9.25305 -8.37856 14
237 2 26.4096 16.1361 -16.799 21
238 2 28.1402 18.8103 -15.6066 10
239 2 13.4932 6.72544 -14.5069 21
240 2 22.1417 17.0911 -10.6886 14
241 2 26.1735 10.3001 -10.5847 17
242 2 19.4224 11.7721 -26.9253 17
243 2 21.4035 13.3945 -8.4382 13
244 2 24.0828 5.94147 -14.115 21
245 2 11.0233 12.0065 -23.2269 14
246 2 16.6554 21.3988 -21.0844 12
247 2 10.9164 16.2806 -20.8067 13
248 2 19.0945 6.43907 -10.7039 15
249 2 26.4136 18.4089 -18.9376 14
250 2 12.4808 11.1602 -26.068 13
251 2 26.8533 13.0437 -12.1167 17
252 2 13.6706 16.1911 -19.3344 22
253 2 27.833 4.77564 -13.78 10
254 2 14.3579 4.78874 -11.9719 14
255 2 10.0722 7.1308 -21.8346 13
256 2 15.2574 17.6453 -22.4095 21
257 2 14.2067 17.7476 -13.2865 14
258 2 20.1188 3.50003 -12.0193 13
259 2 10.5337 16.7482 -17.5328 14
260 2 19.8646 15.6547 -9.91236 15
261 2 10.1484 15.0734 -23.3374 11
262 2 22.6294 20.5256 -21.6244 14
263 2 16.1298 16.5781 -10.754 14
264 2 14.7243 12.9631 -27.8368 13
265 2 16.9666 3.99734 -24.4821 15
266 2 23.4893 12.0184 -10.2235 21
267 2 27.5774 13.3399 -21.9676 13
268 2 23.2551 2.18831 -13.6665 13
269 2 16.6667 14.2202 -9.91233 14
270 2 8.06104 7.35817 -20.1813 10
271 2 13.6831 14.0294 -10.6352 13
272 2 11.495 4.99786 -12.5373 10
273 2 16.4784 1.79693 -22.6036 14
274 2 16.4192 12.2517 -25.339 19
275 2 25.197 14.1718 -26.5891 13
276 2 26.7374 7.5406 -21.7027 13
277 2 25.9928 10.8388 -6.89949 9
278 2 24.629 14.921 -9.3906 16
279 2 16.1931 18.4349 -25.8445 12
280 2 15.1912 9.4235 -27.4606 12
281 2 19.2354 21.0665 -15.9555 18
282 2 13.6598 19.8234 -20.5882 13
283 2 14.7804 19.771 -23.608 11
284 2 12.262 15.7281 -12.8438 16
285 2 19.6918 5.47516 -25.6168 16
286 2 16.7685 15.1402 -24.1097 21
287 2 17.6917 13.7662 -28.7475 13
288 2 25.7934 4.10337 -10.837 10
289 2 11.7019 9.20585 -12.4916 14
290 2 9.01044 9.97273 -15.5242 12
291 2 25.9777 7.07508 -11.996 16
292 2 9.2466 13.5271 -20.4462 13
293 2 19.3654 8.94086 -8.94791 14
294 2 19.8095 1.37797 -13.9984 12
295 2 27.3119 15.7869 -10.2718 12
296 2 18.2362 0.515751 -17.0812 12
297 2 15.3139 21.2284 -17.9022 12
298 2 12.4926 14.0273 -25.3197 13
299 2 12.6578 7.13418 -11.1767 12
300 2 21.3468 5.0349 -14.6794 20
301 2 24.7229 11.6415 -26.7079 15
302 2 27.4474 18.6663 -12.2131 11
303 2 27.0519 12.7738 -8.79043 12
304 2 25.4925 5.57662 -19.4446 17
305 2 26.8437 7.65286 -15.524 18
306 2 26.1545 15.8004 -23.7014 14
307 2 8.28869 6.7643 -16.406 11
308 2 12.435 9.66677 -16.0989 22
309 2 26.0938 3.07798 -14.5529 12
310 2 20.5915 18.2142 -22.7538 20
311 2 26.9431 13.0184 -18.5599 15
312 2 23.9595 18.0512 -23.7094 18
313 2 27.412 7.88204 -19.0822 16
314 2 20.4671 0.349223 -19.0651 10
315 2 12.7957 5.92803 -23.7445 13
316 2 21.755 22.3251 -13.6114 10
317 2 23.2121 21.1258 -15.7646 15
318 2 14.9106 1.50734 -17.5046 14
319 2 21.2727 6.45153 -8.6965 11
320 2 27.6285 16.1086 -13.631 13
321 2 24.6272 16.7568 -26.2055 13
322 2 16.1394 16.0908 -27.8336 12
323 2 14.2591 4.31303 -25.9214 7
324 2 23.5479 3.0093 -19.5533 12
325 1 13.2888 9.51347 -20.8951 21
326 1 12.0825 7.02632 -19.1878 17
327 1 16.795 4.61523 -22.5253 18
328 1 18.6235 9.61234 -23.6243 19
329 1 16.1196 8.71402 -21.9451 19
330 1 19.3681 6.98299 -22.2062 19
331 1 14.7587 6.49885 -20.367 20
332 1 18.9593 9.97353 -20.5792 20
333 1 16.1358 9.37722 -19.251 20
334 1 18.501 7.14342 -19.0865 21
335 2 12.956 5.44704 -20.5917 18
336 2 12.2434 8.85058 -19.2246 22
337 2 15.5711 4.56956 -21.0267 18
338 2 18.717 8.24086 -27.5767 13
339 2 16.3276 9.20586 -24.0594 19
340 2 16.9838 6.56764 -25.9104 14
341 2 14.5013 7.83526 -21.7983 18
342 2 18.3675 8.82912 -21.9503 23
343 2 15.1953 10.122 -20.715 25
344 2 19.7768 6.16863 -20.2588 18
345 2 16.5655 6.94407 -19.1241 20
346 2 18.3215 9.34025 -18.7349 21
347 1 13.3783 9.7609 -17.9199 19
348 1 12.3235 7.50229 -16.0766 20
349 1 13.4056 9.85495 -14.5465 20
350 1 19.4636 4.2211 -20.6268 19
351 1 19.4799 4.36951 -14.105 22
352 1 15.4836 7.16436 -17.2319 21
353 1 19.4215 10.1074 -17.2343 21
354 1 16.3355 9.57916 -15.7066 20
355 1 18.3424 7.35853 -15.5051 24
356 1 15.5061 7.46245 -14.0554 21
357 1 19.2153 10.1159 -13.7527 22
358 1 16.2502 9.80648 -12.4216 21
359 1 18.1832 7.3859 -12.0483 19
360 1 19.0483 9.99442 -10.6693 22
361 2 13.4483 6.77455 -17.6155 17
362 2 13.4917 11.5445 -13.5254 20
363 2 14.0333 3.24661 -23.2829 14
364 2 18.4193 3.53604 -15.9598 19
365 2 15.4418 9.14069 -17.3312 20
366 2 19.2139 6.40483 -17.4115 22
367 2 16.541 6.80429 -15.6329 20
368 2 18.3944 9.31758 -15.5044 21
369 2 15.048 9.39158 -14.0187 21
370 2 19.2184 6.33271 -13.7146 20
371 2 16.6052 6.4155 -12.6491 19
372 2 18.2052 9.50225 -12.1385 23
373 2 13.7242 10.3667 -10.6107 15
374 1 12.8361 12.7832 -19.0195 24
375 1 16.1814 17.0184 -20.8504 18
376 1 9.5223 13.2489 -18.6159 15
377 1 18.4229 12.3302 -25.3534 25
378 1 15.8216 11.126 -23.8691 20
379 1 18.6079 15.6916 -24.0628 21
380 1 16.0651 17.1313 -24.2092 21
381 1 19.105 12.5917 -22.2754 22
382 1 15.4101 11.9518 -20.6405 21
383 1 19.1867 15.2564 -20.6458 22
384 1 16.6235 14.0135 -22.5638 24
385 1 18.8152 12.7428 -18.7947 21
386 1 16.705 21.1137 -19.2754 13
387 1 17.6915 17.8305 -18.6582 17
388 2 13.8636 13.1852 -20.7932 20
389 2 11.6325 11.6315 -20.0896 19
390 2 19.7611 11.2524 -23.6944 23
391 2 16.8716 11.9768 -22.494 21
392 2 18.9601 14.5346 -22.5221 21
393 2 15.7277 15.0648 -21.0236 21
394 2 19.2952 12.1112 -20.5433 20
395 2 16.8375 12.4994 -19.0929 21
396 2 18.4722 14.6494 -18.9157 20
397 2 18.2235 17.0375 -20.5064 22
398 2 18.584 17.4942 -16.7309 21
399 1 13.421 13.1207 -14.561 20
400 1 13.5793 15.6707 -14.4606 19
401 1 15.6383 12.2149 -17.4622 21
402 1 18.987 15.5444 -16.9864 21
403 1 16.3054 14.363 -19.0855 21
404 1 18.5643 12.5945 -15.4292 20
405 1 15.8402 12.5491 -13.6891 21
406 1 18.4325 16.0173 -14.0029 19
407 1 16.0826 15.1435 -12.1625 21
408 1 19.1161 13.3374 -12.398 22
409 1 17.0075 12.4212 -10.2916 18
410 1 18.2652 19.0325 -15.725 21
411 1 21.3456 20.9508 -15.5629 17
412 2 14.063 11.5265 -18.2181 21
413 2 12.9081 14.4591 -16.1698 21
414 2 14.7287 14.0257 -13.6883 18
415 2 15.5143 14.2205 -17.4165 24
416 2 19.5823 12.2459 -17.1015 22
417 2 16.0419 11.5334 -15.5455 22
418 2 18.3317 14.4606 -15.3855 21
419 2 16.3235 16.1626 -14.2827 20
420 2 19.4826 12.0189 -13.7466 22
421 2 16.1834 11.5858 -11.8943 22
422 2 17.8358 14.5381 -12.6942 21
423 2 19.1106 12.3324 -10.5245 21
424 2 15.8234 17.9708 -18.9178 19
425 2 13.7385 16.8169 -16.0794 22
426 2 18.6135 17.8282 -13.7488 20
427 1 22.507 3.28046 -18.0974 14
428 1 24.0347 7.34508 -25.6292 13
429 1 21.8962 9.36522 -21.8445 23
430 1 21.7196 5.35088 -26.004 10
431 1 21.7697 5.99481 -20.1537 21
432 1 24.8232 10.1579 -20.6557 20
433 1 22.5609 9.23109 -18.8728 20
434 1 24.4722 7.23344 -18.7826 21
435 2 23.015 5.94585 -21.6923 19
436 2 22.671 10.2251 -24.1968 20
437 2 18.5708 5.03988 -22.2171 19
438 2 24.046 8.85045 -21.9498 23
439 2 21.5199 10.3114 -20.203 21
440 2 21.0656 7.74907 -22.599 20
441 2 22.4103 7.16855 -18.9721 22
442 2 24.6867 9.01524 -19.1151 21
443 2 26.8703 10.4737 -20.5769 14
444 1 21.3785 6.60574 -17.3823 20
445 1 24.5779 10.1639 -16.9902 19
446 1 21.8072 9.28502 -15.4193 19
447 1 23.9872 7.2881 -15.5616 22
448 1 21.368 6.82343 -13.9108 20
449 1 24.4003 10.2896 -13.5765 24
450 1 21.8995 9.00854 -12.2655 19
451 1 23.9881 6.79061 -12.6146 20
452 2 18.2665 3.60344 -19.0608 20
453 2 21.2759 4.60083 -18.4749 19
454 2 21.8893 10.0432 -17.1872 20
455 2 24.9132 6.54526 -17.0812 21
456 2 22.0448 7.27294 -15.7879 21
457 2 24.219 9.2673 -15.2432 22
458 2 21.3045 10.0537 -13.7973 21
459 2 22.2052 7.07316 -12.0609 19
460 2 24.0877 9.18684 -11.7731 17
461 2 20.8612 10.0899 -10.8126 20
462 2 26.5533 10.3051 -16.8219 16
463 1 21.6979 11.9143 -24.0108 23
464 1 21.6463 14.9697 -22.6486 20
465 1 24.1027 13.4029 -21.9492 23
466 1 21.4479 12.3187 -20.5226 22
467 1 24.0228 16.2446 -20.2343 21
468 1 21.8018 14.9896 -18.6648 22
469 1 23.9016 13.0957 -18.7162 21
470 1 21.3949 17.6841 -20.9842 21
471 1 27.2012 12.3665 -20.3855 16
472 2 21.4222 15.8212 -24.4432 24
473 2 21.9383 12.9641 -22.498 21
474 2 23.4675 15.332 -21.8671 20
475 2 21.2582 15.6979 -20.5857 19
476 2 24.7605 12.3446 -20.3507 24
477 2 21.7846 13.2584 -18.7461 19
478 2 23.8764 15.1813 -18.5395 20
479 2 20.7665 18.6218 -19.0455 23
480 1 21.5744 12.2881 -16.9258 21
481 1 24.2759 16.2015 -16.9119 22
482 1 21.7086 15.133 -15.0209 19
483 1 24.0985 13.3262 -15.3947 20
484 1 21.4658 12.2436 -13.7958 19
485 1 24.2717 16.3744 -13.6569 20
486 1 20.9735 15.5167 -11.5497 21
487 1 23.952 13.4626 -11.9632 20
488 1 21.5972 12.2006 -10.6633 22
489 1 21.2919 18.0121 -17.3677 21
490 1 20.551 17.9461 -14.0286 21
491 1 26.4426 12.3054 -16.762 16
492 2 21.0664 15.8865 -16.9042 21
493 2 24.2503 12.2016 -17.011 22
494 2 21.9616 13.1821 -15.2776 21
495 2 23.5828 15.6564 -15.1219 21
496 2 20.6395 16.02 -13.5884 20
497 2 24.1903 12.1987 -13.3994 20
498 2 21.5506 13.8087 -11.8445 21
499 2 24.528 15.3107 -12.2177 23
500 2 21.589 18.7614 -15.3628 22
