ITEM: TIMESTEP
30000
ITEM: NUMBER OF ATOMS
2000
ITEM: BOX BOUNDS pp pp pp
-30.0 30.0
-30.0 30.0
-30.0 30.0
ITEM: ATOMS id type x y z Coordination
1 1 -11.8628 7.99213 -15.903 10
2 1 -6.64609 -9.85435 -12.5109 14
3 1 11.4078 17.3182 3.78362 8
4 1 1.49173 -1.98443 8.18315 22
5 1 -13.8271 8.03902 -3.38683 13
6 1 13.2614 -8.09253 -13.8013 13
7 1 -11.5464 8.30827 -12.0508 11
8 1 4.57239 -1.79952 -0.435591 19
9 1 -4.3085 2.04151 -11.5742 18
10 1 -6.33905 -10.8376 -0.193869 20
11 1 16.1369 9.8375 -10.0462 13
12 1 -5.27046 -10.9079 -7.56634 15
13 1 -10.1446 -4.30507 0.177935 20
14 1 11.3065 0.895363 10.0843 19
15 1 9.76079 1.35491 -3.91824 23
16 1 -1.43671 6.24913 5.42753 20
17 1 13.0618 2.39986 -3.22877 19
18 1 -1.18448 17.0639 -13.4553 11
19 1 4.50991 -2.50371 8.30797 21
20 1 -4.63571 1.92719 -20.7318 10
21 1 -9.09135 7.19504 9.81413 12
22 1 16.9816 2.16912 7.87231 11
23 1 5.82666 7.18377 -23.9719 10
24 1 5.49095 11.6131 -13.4843 22
25 1 16.149 7.12426 7.78526 12
26 1 -7.81491 4.37487 -2.87597 22
27 1 -8.18136 6.71981 -10.3522 21
28 1 -5.42116 -3.57536 -10.5076 21
29 1 -7.81183 11.109 0.24033 20
30 1 6.98262 -11.5781 -4.21369 17
31 1 8.01207 -4.23764 1.05468 15
32 1 6.6111 -10.7734 -14.0596 17
33 1 8.37383 -11.1661 3.63398 12
34 1 -6.57455 -9.25371 -3.281 18
35 1 -0.631111 -1.27155 12.9138 11
36 1 4.98586 -4.53231 -14.9627 17
37 1 7.81883 -6.23832 -16.0325 16
38 1 -1.18836 7.33532 -20.8398 13
39 1 -7.78054 14.1638 5.91038 17
40 1 1.19512 -10.0203 5.19914 13
41 1 5.27875 -0.0812068 9.99994 17
42 1 -6.12126 1.51377 -3.75663 19
43 1 -13.2861 -3.30999 -1.99853 12
44 1 -8.96755 5.25495 -5.81764 18
45 1 -4.97239 15.5053 -3.4073 22
46 1 3.81044 -13.9837 -8.97826 17
47 1 4.889 6.81764 -18.1486 16
48 1 11.5893 -3.12769 -11.9914 23
49 1 -0.355112 -1.29707 4.89251 19
50 1 -13.4054 6.61674 1.2193 14
51 1 3.66614 9.60807 -14.9094 19
52 1 4.03327 20.2963 -0.112408 17
53 1 -13.2333 9.22573 -9.19393 13
54 1 5.04095 17.3851 -6.93141 21
55 1 3.36456 -15.7475 -6.60081 15
56 1 10.8697 -8.47998 -10.0941 13
57 1 10.1137 -3.38846 -18.9017 9
58 1 -10.4799 10.9808 8.57385 11
59 1 -11.693 5.97016 -18.5309 10
60 1 5.73693 1.37178 -0.318471 21
61 1 -6.05501 12.833 -4.64533 19
62 1 3.1028 -5.36399 8.92932 14
63 1 -2.09233 16.5084 3.22656 21
64 1 -2.4362 12.375 -17.6407 14
65 1 -8.35077 10.4284 10.3177 9
66 1 1.97303 6.85224 -8.39605 21
67 1 -1.73766 -10.5541 4.15796 16
68 1 10.2453 6.56542 5.53283 23
69 1 9.21166 -11.7741 -1.3379 10
70 1 4.48185 14.6011 5.67193 23
71 1 2.52581 4.85863 -17.7572 20
72 1 -6.54725 9.82725 -10.1154 21
73 1 5.79522 8.70904 10.1366 19
74 1 16.3088 -0.137044 -13.7818 14
75 1 10.0125 -8.8354 4.85033 18
76 1 -6.40674 -4.96947 3.45452 18
77 1 -7.32512 1.97088 -0.1179 22
78 1 4.57965 17.0873 3.17343 18
79 1 9.49447 -0.589993 12.4394 11
80 1 -1.61216 -7.26259 5.9238 17
81 1 -6.06855 4.6453 -5.63099 19
82 1 17.3536 1.75985 5.2055 15
83 1 5.85516 5.73148 -1.00664 18
84 1 -0.65364 8.73073 3.08261 16
85 1 2.65852 -1.3954 5.09912 22
86 1 -1.50591 -3.02639 -2.51935 18
87 1 -3.22474 -0.296498 -9.75577 21
88 1 -11.7919 6.31101 -1.31656 20
89 1 -4.85986 13.5297 -1.63283 21
90 1 -1.64229 12.6101 -10.7571 22
91 1 5.47331 2.85391 -10.9234 23
92 1 12.2214 6.96707 -13.0335 19
93 1 3.65898 -7.65433 -6.56992 20
94 1 5.19478 -5.56219 4.32607 20
95 1 -4.76258 16.7989 -6.98104 16
96 1 -6.19222 17.1714 -1.44163 17
97 1 -1.55718 -1.04996 8.38045 21
98 1 1.27963 15.4104 4.1597 17
99 1 -2.74522 -5.57236 8.14322 16
100 1 16.5199 -1.05599 -10.4104 10
101 1 -13.5922 0.319918 3.22773 10
102 1 -7.65746 -12.9933 2.72966 10
103 1 11.5627 -5.20007 -9.6751 18
104 1 5.40897 3.51324 -14.2209 20
105 1 3.83856 4.96386 -23.0456 12
106 1 2.35882 17.5263 0.548347 22
107 1 -9.57964 14.7445 -8.26259 14
108 1 8.93599 4.0301 8.94059 19
109 1 2.57496 11.1761 -12.0071 20
110 1 -6.79971 14.2683 -8.77719 18
111 1 12.4166 13.6594 0.325252 17
112 1 6.34108 -1.87242 12.9069 12
113 1 16.4895 -0.957087 6.89058 11
114 1 2.27816 1.5349 -11.4159 22
115 1 8.36298 -9.04506 -16.4917 10
116 1 3.37739 1.96068 4.99947 22
117 1 8.14537 3.98047 6.27763 19
118 1 -8.8203 -0.00513843 -3.12307 20
119 1 8.99144 -6.60081 2.45193 21
120 1 -10.5145 -7.21958 -4.99921 16
121 1 9.12325 -4.8743 -4.17796 18
122 1 -10.6778 12.1992 5.40943 18
123 1 4.60144 9.30245 -20.9019 19
124 1 0.776066 20.577 -5.37426 9
125 1 0.169383 -5.95737 8.76532 12
126 1 -7.393 -9.7292 6.70849 10
127 1 5.54697 -1.62283 -17.8297 18
128 1 4.23511 10.8332 -6.21365 19
129 1 14.4444 -7.91762 -5.04926 10
130 1 0.0881526 -14.0605 -1.16058 17
131 1 -9.66443 -5.59362 -7.59877 17
132 1 13.6398 7.34037 5.29924 21
133 1 15.0114 -3.38838 -15.5996 14
134 1 -10.6331 -1.92681 -1.82313 20
135 1 12.4548 15.6112 -4.92006 12
136 1 16.8158 11.4751 3.28519 11
137 1 -5.44838 9.85997 7.4848 18
138 1 17.8276 10.7177 0.254768 12
139 1 -5.95672 5.9506 7.32624 20
140 1 -1.08133 12.0647 -7.7308 21
141 1 -0.267304 -9.47497 -9.63014 20
142 1 11.7715 -9.67903 -16.2435 11
143 1 5.69537 16.4319 -15.511 13
144 1 10.6319 -2.52688 9.29806 15
145 1 8.40621 5.84971 -18.1577 19
146 1 4.02318 8.29593 -10.4225 16
147 1 16.5193 2.82921 -12.3624 12
148 1 -9.0338 16.2347 -10.7968 10
149 1 -7.90179 16.8114 -6.80771 13
150 1 9.39191 7.19879 -13.5714 21
151 1 11.9316 -6.42041 3.987 21
152 1 -0.989388 7.76268 -16.5654 21
153 1 -7.56496 16.1937 7.67206 12
154 1 11.998 13.3002 -9.40845 18
155 1 6.77549 9.99848 -4.67046 21
156 1 -6.00493 17.8967 1.82054 14
157 1 5.65525 13.3917 -4.79431 22
158 1 -3.97647 15.3901 -10.3539 19
159 1 -3.59471 18.4063 -11.5281 13
160 1 5.13908 15.197 -18.714 11
161 1 -5.13006 -3.39395 -1.93735 23
162 1 -11.8116 12.6766 -9.88749 12
163 1 2.54312 -1.29669 -19.2464 14
164 1 1.79008 -8.31444 -17.1068 7
165 1 11.2203 12.0932 6.58604 14
166 1 -5.35263 20.4224 0.522498 10
167 1 -9.65274 2.88626 -15.2189 18
168 1 -6.85987 14.624 0.427648 20
169 1 11.5228 2.22253 -5.95689 20
170 1 -4.8269 5.4187 -19.1703 17
171 1 13.299 7.03212 8.18026 18
172 1 7.03096 15.8341 -5.34214 15
173 1 2.51234 13.4837 1.80381 17
174 1 13.2679 1.24897 -19.5021 7
175 1 1.46945 13.7102 6.6334 17
176 1 -4.98424 13.0569 -15.5849 12
177 1 2.78843 -2.12925 14.0249 9
178 1 -6.66491 -1.53798 -4.71842 20
179 1 2.64922 -14.3156 -14.8633 9
180 1 -6.11941 16.8114 -9.80615 16
181 1 0.111895 -8.8631 2.01735 16
182 1 3.99276 -11.1252 -15.0832 12
183 1 -0.260459 12.3139 -20.4524 11
184 1 -12.0229 3.75304 3.07956 12
185 1 0.210854 11.236 -1.2239 20
186 1 8.77205 13.0137 -4.31728 19
187 1 -1.0042 7.7177 13.6085 8
188 1 3.19055 1.5796 14.5109 6
189 1 -9.35328 6.78122 -2.78616 19
190 1 6.30127 21.4143 -4.47828 12
191 1 -3.28428 5.86736 11.1277 16
192 1 15.0636 4.83541 7.26076 20
193 1 -2.68404 19.3463 0.803657 18
194 1 11.7881 -0.352139 -9.4799 17
195 1 3.79633 11.875 5.39012 19
196 1 -1.13892 2.49984 -7.0192 22
197 1 13.9828 -5.91183 -1.85192 16
198 1 -2.68968 -0.219854 5.66804 17
199 1 -7.68558 0.29043 2.98111 21
200 1 -10.4185 -2.20676 -4.91244 20
201 1 4.82107 7.46451 12.4172 14
202 1 -12.3975 -4.37793 -6.72705 13
203 1 -4.93617 -13.0267 -4.95219 13
204 1 10.8074 -6.4299 -2.62771 13
205 1 -3.33752 15.8622 -0.0189443 22
206 1 -3.82618 2.09971 -0.8778 21
207 1 5.81173 20.3841 3.38308 11
208 1 -5.3033 5.56065 -8.35777 22
209 1 -0.447595 15.8719 -9.43678 19
210 1 -6.9301 -0.0393074 -13.937 21
211 1 -7.83713 5.63675 5.15951 19
212 1 2.36558 -4.07667 3.37916 19
213 1 6.5883 -8.76528 3.84233 22
214 1 -13.2505 6.6072 -10.1946 14
215 1 19.3571 5.1841 -2.07833 12
216 1 7.40832 4.68148 -12.8798 19
217 1 -6.14938 -5.85605 -16.6314 10
218 1 12.0865 -4.22416 6.68773 13
219 1 12.1406 -10.9529 -0.690113 7
220 1 -4.85096 12.8993 -12.015 20
221 1 1.46348 1.09467 -20.8424 12
222 1 13.4621 4.07168 -15.9162 15
223 1 -0.240683 15.1727 -18.4705 11
224 1 -6.52544 3.53973 -17.5142 19
225 1 -2.9808 18.5025 -8.56862 14
226 1 -4.48232 -3.05572 6.32678 18
227 1 2.97961 21.6568 -3.22878 11
228 1 -8.91488 4.03075 8.65429 13
229 1 -4.20481 11.2185 -6.67414 18
230 1 17.126 -3.33264 4.59183 12
231 1 -2.3481 -6.43536 -12.8415 20
232 1 -2.25166 14.598 -13.2622 17
233 1 -2.68274 14.3686 -7.89965 20
234 1 -9.35572 -10.4238 1.37457 12
235 1 -5.83985 7.02785 -4.15252 21
236 1 -10.0809 7.83311 4.82496 17
237 1 3.29834 -10.5107 -8.28453 22
238 1 -5.0572 -13.4588 1.24495 16
239 1 8.52191 -10.691 -11.3458 17
240 1 2.09079 -4.65421 -10.4447 17
241 1 10.574 6.19509 10.441 18
242 1 9.71048 11.1173 -9.45656 21
243 1 0.180988 20.6457 0.235583 15
244 1 -10.6905 -1.15693 1.85547 21
245 1 -7.63363 9.55838 -2.84612 19
246 1 4.01298 12.4565 11.6962 9
247 1 4.25693 -13.893 -4.24647 17
248 1 11.4962 -0.913734 -2.82383 17
249 1 6.03354 2.39472 7.20725 21
250 1 -13.5681 6.82622 -6.79274 13
251 1 -13.2787 0.386189 -12.1963 11
252 1 7.9451 9.11372 -19.4725 13
253 1 8.57076 0.541815 4.91545 20
254 1 7.5475 14.5221 -13.5212 18
255 1 6.87528 -8.99048 -2.2062 18
256 1 -1.1757 5.45851 -18.2207 22
257 1 -2.31192 -14.9971 -3.06776 13
258 1 12.8728 2.05329 -12.093 16
259 1 -6.35005 3.53017 2.50545 16
260 1 0.874896 -14.8296 -7.9315 13
261 1 -10.0096 0.309349 -14.3372 17
262 1 2.83591 15.7538 -8.4185 23
263 1 4.03439 1.25936 -18.7256 21
264 1 13.6146 9.76862 7.06678 15
265 1 17.8872 8.22649 -2.19259 13
266 1 -7.40793 -5.031 0.294115 21
267 1 16.0587 -5.80688 -13.9237 10
268 1 -1.35254 -11.5036 -3.30263 16
269 1 -5.09198 0.080686 -17.0119 19
270 1 -3.31605 9.88217 -16.0005 15
271 1 -3.45287 -8.10022 2.42247 18
272 1 7.16521 -2.77282 4.3924 17
273 1 9.38887 2.76317 -0.847518 19
274 1 -11.112 -5.3543 -13.3207 9
275 1 7.88849 0.784088 -1.77086 17
276 1 2.32215 12.2567 -15.3225 19
277 1 4.54819 16.4889 -2.59657 21
278 1 -2.96061 -0.661122 -0.69972 23
279 1 6.17368 20.0915 -2.27784 19
280 1 -1.50038 -3.1194 6.3654 19
281 1 -9.64236 -5.81326 -15.8465 7
282 1 -2.3524 4.60981 -20.8948 14
283 1 1.55553 7.96858 -14.3312 20
284 1 -2.48721 -11.1517 -9.70228 16
285 1 -1.68935 -6.4731 -0.575272 20
286 1 12.8365 -1.83499 -17.4709 14
287 1 18.0673 8.02959 -4.85095 11
288 1 20.6019 3.81876 0.382392 13
289 1 -2.19401 -3.43893 -11.092 21
290 1 -10.0653 -7.58976 5.65548 13
291 1 -5.3488 -7.92381 -5.75351 16
292 1 14.4152 5.33259 10.4838 10
293 1 -2.18297 -14.0682 0.306333 11
294 1 -5.84978 -0.515065 -7.75965 21
295 1 5.59754 17.7131 -0.143958 18
296 1 10.0265 0.236939 -19.9209 12
297 1 0.769001 -0.445335 -14.1845 19
298 1 -10.0074 -4.33942 2.94704 21
299 1 -4.48264 6.27278 14.0705 10
300 1 -0.642739 -11.5742 -6.84076 13
301 1 -4.22708 -6.28533 -10.4894 18
302 1 -5.3907 5.46449 -14.0141 16
303 1 6.20899 3.24484 4.19727 21
304 1 -2.24288 6.4553 -10.7513 20
305 1 0.631591 7.12228 -11.0472 22
306 1 1.31526 -4.37908 -2.9188 17
307 1 5.49935 -12.3921 -10.4308 14
308 1 -6.25995 17.8509 -4.06618 10
309 1 6.04514 11.485 -2.08986 21
310 1 18.7465 2.91101 -4.68234 10
311 1 -12.385 -4.54196 1.96071 16
312 1 -6.45009 5.30285 10.9718 16
313 1 -8.20111 12.2007 2.6124 20
314 1 3.20814 -0.846083 -15.9144 24
315 1 13.6965 14.2696 -7.03438 13
316 1 6.66293 -8.27343 -5.47415 19
317 1 -3.6015 -2.26793 11.2759 16
318 1 -12.4976 -2.39777 4.63835 14
319 1 2.98799 -15.4198 -1.615 13
320 1 -3.86145 12.5121 9.14008 10
321 1 -7.23838 13.459 9.57472 11
322 1 -8.4538 -4.32237 6.31832 16
323 1 -10.1654 -7.87739 2.62429 18
324 1 15.4775 -4.5169 -6.11169 10
325 1 -6.23808 -7.4386 9.12055 7
326 1 13.4858 0.712525 -16.4424 15
327 1 11.5592 -10.4605 -12.5254 11
328 1 -3.3649 18.5232 -2.2652 21
329 1 -6.94637 11.4956 -8.077 18
330 1 8.17661 9.68455 6.64132 21
331 1 -5.60814 -2.0042 1.50096 18
332 1 6.15508 -8.09961 -8.79473 19
333 1 -9.21574 15.6697 -1.63646 14
334 1 -2.4209 13.1465 0.349035 17
335 1 8.32447 -5.72381 5.12792 16
336 1 17.8787 2.5343 -1.22053 18
337 1 1.7203 6.78574 7.48545 18
338 1 -7.48805 -2.68246 -13.2259 19
339 1 -2.15985 4.71676 14.8466 6
340 1 -2.67793 21.5642 -1.83491 11
341 1 9.15929 9.13716 9.96241 15
342 1 -9.42739 17.6421 -3.7709 9
343 1 2.51862 -5.52204 -15.0397 17
344 1 -3.436 3.67804 -8.89928 19
345 1 8.77003 -4.27676 -13.471 19
346 1 -7.6585 8.765 2.83169 19
347 1 -13.1423 -0.761212 -5.91603 15
348 1 -0.764457 2.64118 -16.6105 19
349 1 -3.2244 13.861 -5.32773 21
350 1 10.3621 -4.08988 2.89929 14
351 1 -7.42883 -15.7685 0.386805 9
352 1 8.25505 -9.38695 1.05925 16
353 1 -5.34072 -4.1305 8.82406 15
354 1 -12.1895 11.3051 -4.10337 14
355 1 -2.91208 -2.65887 3.28929 20
356 1 5.16709 -8.82728 -11.9991 21
357 1 -2.48619 4.26713 -13.6643 18
358 1 16.1411 2.85733 -15.7941 8
359 1 9.53869 21.2587 -3.2539 9
360 1 -12.8432 -0.0789732 -2.72747 18
361 1 6.0603 0.828015 -16.3922 20
362 1 11.5723 7.14407 -17.0302 13
363 1 -7.56743 -12.7127 -2.13856 12
364 1 -10.3543 -2.26816 -14.5001 13
365 1 -7.92728 -2.91957 -9.75778 18
366 1 14.1989 -0.643196 8.64865 14
367 1 16.6824 3.55012 -7.16361 18
368 1 -8.49953 5.82833 -16.1572 20
369 1 2.45939 18.7864 -2.4617 21
370 1 -10.849 6.97146 -8.23344 17
371 1 -2.40902 11.68 6.4736 17
372 1 -9.13618 14.6184 -4.88039 17
373 1 5.9291 14.1716 2.8717 20
374 1 7.3915 11.0068 11.1858 10
375 1 13.606 -0.983864 -11.2385 19
376 1 14.7375 -2.54071 6.10504 17
377 1 13.9633 4.67911 -10.716 19
378 1 -7.26348 -6.43254 -8.97045 18
379 1 -2.59774 10.2694 0.919363 19
380 1 2.18114 -9.8341 -11.5106 17
381 1 2.06321 10.3679 3.21447 15
382 1 -6.60558 4.26334 -10.6134 17
383 1 -1.68307 -14.0122 -5.59231 11
384 1 19.1212 3.17718 2.97604 14
385 1 -8.91056 2.78301 -6.15321 16
386 1 -4.58346 -8.41642 -0.254639 21
387 1 -7.05385 -2.83841 12.3713 7
388 1 -0.648132 17.5332 -0.593693 22
389 1 -12.3489 -2.6501 -11.5801 13
390 1 7.65196 7.24085 7.79074 20
391 1 -11.4967 13.1564 -6.58345 14
392 1 5.66911 13.5805 -15.8054 21
393 1 10.4307 15.591 -1.05076 17
394 1 -13.0649 -6.95622 -2.41245 9
395 1 -0.490265 -7.41088 -2.86811 18
396 1 -8.26675 -1.98946 9.68507 15
397 1 -13.1529 9.7271 -6.00154 12
398 1 6.13102 -10.7889 0.766421 16
399 1 -2.42393 -14.2726 -11.1084 10
400 1 7.48528 13.1541 6.07102 20
401 1 6.30064 12.0227 -19.0491 14
402 1 -8.69114 8.90336 -15.9395 15
403 1 4.78384 17.0904 -12.5333 14
404 1 -8.57522 12.5917 -10.6818 20
405 1 -1.04221 -10.3773 -0.97867 18
406 1 15.152 11.8472 -1.5887 17
407 1 1.66017 7.65308 -17.4833 20
408 1 4.22214 8.59026 3.51686 21
409 1 -9.8968 8.73074 -5.80376 21
410 1 -4.64267 10.3092 -1.19778 19
411 1 -3.92148 -13.1064 3.83045 9
412 1 3.58404 -6.71407 -12.1265 21
413 1 7.1645 -2.64495 -15.2371 17
414 1 -1.72327 1.63659 1.38525 20
415 1 -15.0783 5.402 -3.29099 10
416 1 -7.48723 0.971988 10.0535 10
417 1 -15.4403 8.87347 2.6439 8
418 1 1.77427 -1.85386 1.56725 22
419 1 -7.01648 11.0673 -13.3116 15
420 1 10.8086 -6.99745 -12.4258 18
421 1 3.22319 -3.91897 -18.1591 13
422 1 -6.06434 3.02461 8.24054 15
423 1 5.65045 -11.2404 -7.01229 19
424 1 0.433614 4.96679 -15.8707 21
425 1 9.6811 -10.2016 7.2557 8
426 1 2.38688 19.6933 -8.39838 16
427 1 -10.8053 9.10731 -2.49279 19
428 1 -7.42974 0.323162 6.62203 19
429 1 -4.67685 2.23881 -14.7018 18
430 1 -8.3417 -1.93512 -0.0470313 19
431 1 14.3972 -4.27455 3.14321 15
432 1 11.0391 7.4178 -3.03387 21
433 1 4.96227 0.173619 -10.6144 18
434 1 4.75893 -4.28634 11.7418 13
435 1 15.2038 12.4545 -9.84917 14
436 1 0.574285 1.31726 9.63829 16
437 1 5.26804 20.6183 -7.69673 11
438 1 7.90264 -6.52477 -0.808863 21
439 1 -6.74842 -6.70592 -11.9958 17
440 1 2.08713 9.85674 12.9718 11
441 1 -4.56685 14.7948 8.56836 12
442 1 -1.57807 -5.67661 -9.21848 17
443 1 4.55667 18.9618 -4.37296 18
444 1 10.1422 9.14628 0.96033 23
445 1 -10.8176 1.0127 -0.896071 19
446 1 -7.46212 -12.4142 -7.2328 11
447 1 -10.7342 5.66072 6.64709 13
448 1 -11.052 -2.0176 -8.40801 19
449 1 -10.6763 6.59483 1.86282 19
450 1 -8.1748 -10.9403 -9.81103 13
451 1 3.82554 -15.0816 -12.461 11
452 1 -4.91582 -14.2158 -1.4523 16
453 1 -3.7879 3.96329 2.76432 16
454 1 8.90013 1.47174 1.25998 20
455 1 -4.50522 3.21111 12.4804 11
456 1 -0.0389141 5.42602 -13.2874 17
457 1 14.295 5.62858 1.23295 20
458 1 -8.98613 -6.28827 -2.0933 18
459 1 1.32327 9.77885 -7.65913 20
460 1 -0.274861 20.3198 -2.88215 15
461 1 3.0194 8.24188 -5.42616 19
462 1 -0.712705 13.8096 9.10976 14
463 1 -10.088 3.97189 -10.9274 17
464 1 -0.0652353 18.5555 -10.8193 12
465 1 9.12362 14.571 -10.1717 18
466 1 -5.98429 -2.67311 -18.3762 10
467 1 13.5136 2.40523 8.30248 22
468 1 1.74254 -17.6783 -4.27654 6
469 1 2.77829 -7.72832 -9.81409 21
470 1 14.2737 -7.52701 1.26094 11
471 1 -7.90307 12.8435 -2.34884 20
472 1 1.85197 4.23252 10.936 13
473 1 14.3449 2.28204 -9.62402 14
474 1 0.182456 13.3709 -3.66612 18
475 1 0.894516 10.5382 -16.7129 19
476 1 3.57938 4.87296 -9.55724 18
477 1 5.46782 -6.16255 -3.65214 23
478 1 -14.9825 -6.48324 0.840787 6
479 1 -4.01504 18.869 3.9062 13
480 1 4.53838 11.0202 -17.3458 18
481 1 15.6524 6.70542 -5.60366 19
482 1 4.46245 13.8072 -11.1987 22
483 1 8.43283 3.1884 -5.941 21
484 1 14.7434 0.639811 0.169308 20
485 1 -1.53995 5.8805 -8.05396 22
486 1 1.489 -9.1607 -5.46213 15
487 1 1.92458 -6.88597 0.493068 20
488 1 1.30011 -3.95826 11.4732 14
489 1 -2.58911 7.50269 -13.6764 18
490 1 -7.67854 -8.27936 -6.40408 18
491 1 2.47979 -8.90716 -14.4421 16
492 1 7.43743 19.633 1.02731 13
493 1 6.9995 4.09283 -22.6903 12
494 1 -3.15327 1.69975 7.78353 18
495 1 -8.70386 8.72583 7.31588 21
496 1 1.76513 -12.2599 -2.63747 21
497 1 -14.6321 2.93523 -7.72611 11
498 1 16.0781 -3.0626 -12.5645 13
499 1 13.73 3.99925 -6.86547 21
500 1 0.115156 9.86606 -10.214 17
501 1 2.64858 -3.98591 -7.51904 22
502 1 7.12997 9.34366 -15.1119 17
503 1 15.8269 5.63251 -13.4433 15
504 1 -2.70219 1.14828 10.9426 18
505 1 9.32067 18.4597 -1.05287 17
506 1 1.42102 -3.11835 -15.6355 17
507 1 7.36452 9.6631 -22.1195 8
508 1 -3.57065 -5.54367 4.7227 21
509 1 1.68431 15.4018 -0.959839 20
510 1 -3.53303 2.83624 -18.0072 20
511 1 -12.7995 2.46249 -4.95055 16
512 1 -3.08995 -6.30319 -15.9364 13
513 1 -4.18594 -8.6777 8.08773 12
514 1 0.536714 12.5128 -13.4109 17
515 1 17.6066 1.62694 1.39492 18
516 1 14.4222 15.6083 -0.93822 10
517 1 -4.42553 -11.7381 -2.08837 17
518 1 2.70075 -6.98147 -3.0309 23
519 1 -1.60535 -3.09884 -14.5085 18
520 1 -5.09828 11.2857 3.82424 21
521 1 4.93897 0.776204 -13.5072 17
522 1 6.87594 10.5566 0.241215 19
523 1 9.36787 -1.71241 -4.60389 19
524 1 1.40898 12.2893 -9.60278 23
525 1 11.1145 -9.16108 1.83696 14
526 1 16.7672 13.1663 -6.42354 10
527 1 7.21307 16.4079 6.62705 11
528 1 -10.666 0.189825 4.78436 16
529 1 8.14964 9.44473 3.85214 18
530 1 11.6662 -0.686708 7.02583 17
531 1 3.51846 5.70664 -15.2291 23
532 1 -8.43583 -0.305595 -6.70765 18
533 1 2.70027 -1.15675 11.0434 16
534 1 12.1212 14.2229 3.44561 12
535 1 11.1393 12.6129 -12.5123 16
536 1 -4.35129 12.363 -9.25965 18
537 1 0.426069 16.3993 -3.78646 21
538 1 16.7612 -0.274259 3.31792 16
539 1 10.7299 4.91675 -15.5026 20
540 1 13.3451 -6.74533 -7.86203 10
541 1 10.9063 8.54981 7.39043 21
542 1 -13.3977 -2.09048 0.304024 15
543 1 -4.60208 8.57602 -8.49954 19
544 1 8.05533 -1.68004 7.6814 20
545 1 -11.819 9.68398 6.64774 11
546 1 -4.66782 15.9256 -13.7994 15
547 1 8.77701 -9.80236 -7.88276 13
548 1 7.75009 1.58402 -13.0721 19
549 1 -0.00758765 14.7023 -6.32137 22
550 1 -5.27442 -2.5647 -15.4712 19
551 1 -1.13815 -12.8631 2.67181 12
552 1 -11.4386 1.22855 -7.79936 16
553 1 2.78987 7.15825 -20.5703 20
554 1 -7.55341 7.72125 -7.33189 22
555 1 -1.8582 15.2091 6.13081 18
556 1 -8.36007 -1.58078 4.79099 17
557 1 5.84111 8.01512 -6.34802 20
558 1 0.638281 -11.5567 -15.633 9
559 1 6.6702 -7.85477 6.88951 13
560 1 8.71102 4.62372 -9.58335 19
561 1 -9.71186 9.5553 -9.45864 19
562 1 11.5479 3.78134 10.7011 14
563 1 0.373993 17.9356 -7.25943 20
564 1 8.54279 -2.55074 -10.4498 16
565 1 1.12636 6.6568 3.44128 16
566 1 3.63612 3.33267 -20.475 19
567 1 -0.599029 -4.90078 3.39165 18
568 1 -0.974769 2.13727 -13.0412 18
569 1 5.91614 5.85471 -20.6694 21
570 1 8.97597 13.7371 0.985789 19
571 1 11.0034 9.0062 -11.9786 18
572 1 0.242282 -4.36224 -12.6735 20
573 1 -9.51445 -8.86431 -10.6302 10
574 1 -7.83698 0.859384 -18.5603 12
575 1 13.3073 5.21098 -4.07164 21
576 1 14.6906 1.32749 -5.77769 17
577 1 10.2034 -3.15013 -7.45162 17
578 1 18.2904 5.07638 5.912 12
579 1 8.22553 -7.11465 -10.2266 19
580 1 4.5607 1.67182 -22.5331 9
581 1 10.8026 12.0232 -6.93705 19
582 1 -8.95214 11.5488 -5.17977 18
583 1 12.0946 9.17232 10.5713 10
584 1 12.0545 7.79137 -5.79513 18
585 1 15.7139 9.04976 -0.175193 18
586 1 9.66604 8.81308 -16.3358 16
587 1 2.96825 3.08355 8.07318 18
588 1 16.6823 6.50495 3.13592 17
589 1 7.69034 -0.828614 1.97623 17
590 1 11.8022 18.4525 -2.43554 11
591 1 8.80767 3.10596 11.3052 17
592 1 19.2932 4.4835 -8.97529 5
593 1 8.34423 0.573553 9.53956 20
594 1 -7.49181 2.36144 -12.4948 20
595 1 14.4563 9.07008 -7.55634 16
596 1 10.4293 -4.44141 -0.783908 19
597 1 -13.5463 6.31578 4.28376 11
598 1 8.32442 15.55 3.97867 16
599 1 11.0794 0.0486624 3.64841 14
600 1 4.27701 5.45442 5.8239 17
601 1 2.53454 20.3574 2.79543 12
602 1 3.16609 6.90673 0.894212 17
603 1 -2.8116 -18.7886 -1.89472 3
604 1 -6.78078 10.1998 -5.3397 19
605 1 12.4989 10.2644 -9.48687 16
606 1 14.0468 -6.91915 -16.0897 12
607 1 3.01858 13.6375 -2.94673 21
608 1 -4.86444 -7.88136 -13.8707 19
609 1 13.2625 -1.34622 -14.2836 19
610 1 -12.8895 1.567 0.757056 13
611 1 -3.26298 9.87393 -10.8103 16
612 1 4.36936 -11.0488 -1.37326 19
613 1 -3.20293 -0.853386 -19.3717 10
614 1 -11.2145 6.00648 -13.4182 17
615 1 7.38913 -3.17618 -2.04795 18
616 1 9.40338 12.1157 -1.37579 24
617 1 5.65588 -6.51143 1.72215 20
618 1 -10.3896 -0.09316 -17.8224 8
619 1 8.67483 3.59165 -19.7097 16
620 1 0.0542313 2.15582 12.5677 11
621 1 7.95835 14.3246 -17.8624 10
622 1 14.5235 0.438 4.97972 20
623 1 14.6008 6.39568 -8.2258 20
624 1 12.4163 12.3859 -3.7238 17
625 1 9.42774 -11.2301 -14.8869 13
626 1 -7.98751 10.9667 5.48126 20
627 1 16.4011 -0.888833 -6.76349 11
628 1 3.26821 16.808 7.6065 13
629 1 7.32505 16.59 -11.8605 14
630 1 -8.5559 8.95947 -12.7038 17
631 1 15.1582 14.1676 -3.90073 14
632 1 -9.09826 -9.16378 -1.07583 14
633 1 16.3324 0.891539 -3.53403 16
634 1 7.13182 14.5652 -2.05327 18
635 1 -3.28447 7.68418 7.67333 20
636 1 -3.44294 -5.66869 -2.53783 18
637 1 -6.78167 -0.378472 -10.858 22
638 1 9.83124 3.27116 4.51394 21
639 1 -4.86942 -0.979661 8.55495 21
640 1 10.4368 15.2499 6.30289 12
641 1 -2.04104 17.062 -5.56572 20
642 1 12.3267 3.25804 1.67672 18
643 1 7.16603 4.31537 1.13849 16
644 1 1.49062 1.502 -17.401 21
645 1 -9.39579 4.427 -0.707909 19
646 1 7.06291 6.11944 -15.7646 21
647 1 0.767592 -2.27437 -5.86657 22
648 1 12.1627 -4.30365 -15.5924 16
649 1 10.0065 1.67652 7.13898 20
650 1 7.28111 7.79182 1.42136 21
651 1 -9.55805 13.4863 7.76564 13
652 1 11.4501 9.36869 4.26844 20
653 1 7.53285 -3.75859 10.0069 15
654 1 5.39611 2.9099 10.2122 19
655 1 -4.17871 -1.27001 -12.7568 18
656 1 -0.263519 4.23569 1.72096 18
657 1 4.73548 8.65283 7.0538 22
658 1 -8.31613 -9.97844 4.30496 16
659 1 9.19109 8.99781 -6.8576 22
660 1 6.1539 -13.8597 -6.77208 11
661 1 -1.62147 9.07169 -6.19703 19
662 1 4.38652 11.8699 1.42771 19
663 1 12.6198 17.5203 0.162358 9
664 1 8.11237 11.2814 -16.8683 20
665 1 -2.51243 6.24103 2.38691 19
666 1 10.6487 15.8402 -7.96196 14
667 1 14.5467 11.9303 1.06573 17
668 1 -7.48527 -5.73288 -5.09584 20
669 1 -1.20582 1.06297 -20.1498 15
670 1 -11.4124 14.6305 -3.38346 11
671 1 14.3026 -4.41371 -10.327 13
672 1 11.8653 10.5188 -0.890072 21
673 1 14.2126 14.1249 -12.3954 9
674 1 5.10742 13.7176 -7.66237 22
675 1 0.213009 11.7719 1.83028 16
676 1 -4.05563 9.32426 -3.763 19
677 1 8.20853 6.31987 -7.45781 23
678 1 12.6001 -1.33117 11.6208 9
679 1 11.4389 4.58819 7.44769 22
680 1 -1.58966 -10.2851 7.34746 9
681 1 -0.367506 9.81978 -18.8334 17
682 1 4.75034 18.2953 5.82185 12
683 1 10.5743 -6.56898 -15.0384 20
684 1 0.238981 1.16254 6.28468 23
685 1 7.88646 17.4153 -8.05003 16
686 1 2.9136 11.8866 -0.565596 19
687 1 12.1461 -0.855693 -6.2203 18
688 1 2.45299 8.21335 9.84193 20
689 1 -11.4164 -4.71718 5.75785 14
690 1 2.64312 -12.6201 -11.3635 18
691 1 2.59558 2.20018 -15.0071 23
692 1 -6.39604 14.5448 3.20258 19
693 1 4.0681 5.69584 9.10427 21
694 1 8.49314 -0.0341698 -15.6338 14
695 1 8.00427 16.1529 1.2641 16
696 1 -6.40695 -0.609878 -1.52565 21
697 1 6.76005 1.20727 12.5761 13
698 1 2.44493 13.5542 -20.4232 10
699 1 -6.23673 8.43748 -18.0396 15
700 1 8.94833 -9.00568 -4.40643 12
701 1 9.64312 7.03952 -10.6624 19
702 1 12.1442 -7.32936 6.79416 11
703 1 4.65769 14.7839 -0.00287624 20
704 1 -12.7083 8.99133 3.32902 18
705 1 10.6738 2.47219 -17.6688 17
706 1 7.05989 -10.8029 6.54832 9
707 1 2.56668 16.029 -5.48899 19
708 1 1.98889 6.89664 13.3057 11
709 1 0.0223822 -1.59921 -17.97 15
710 1 -1.84433 -9.25443 -15.1295 14
711 1 -4.33023 -4.1077 -13.4875 22
712 1 -2.44636 20.1975 -5.29191 10
713 1 0.670255 -6.28004 -7.83652 23
714 1 -11.0537 11.6798 -1.08668 11
715 1 6.42049 -13.9391 -14.7238 10
716 1 11.5427 -9.15996 -6.92286 11
717 1 5.36647 -0.421999 5.24532 22
718 1 17.4458 7.13738 -8.2587 16
719 1 1.17906 -14.5044 -4.63922 20
720 1 -4.5607 -5.42972 1.20262 22
721 1 2.6163 4.29558 -12.4931 19
722 1 0.502923 -12.3036 -9.90112 22
723 1 -10.6495 -4.23591 -9.97097 12
724 1 -5.43751 -1.37131 4.18301 20
725 1 -5.0046 -17.4578 0.285886 7
726 1 15.4296 11.07 -13.3152 8
727 1 -7.14834 17.5394 4.36108 14
728 1 -6.10284 8.28659 5.37728 21
729 1 -10.2924 10.1734 2.67951 18
730 1 12.6887 -3.78859 -4.45655 17
731 1 -12.5492 4.2237 -16.6596 10
732 1 3.35789 20.6065 -11.2537 6
733 1 11.3666 4.36339 -8.72509 22
734 1 5.55073 14.4739 8.85947 13
735 1 13.8959 -2.71769 -8.2557 15
736 1 -6.24933 7.96362 -15.352 16
737 1 -2.01806 -0.0339562 -15.3958 18
738 1 3.93261 4.08279 12.5531 15
739 1 9.14407 11.2595 -13.5387 19
740 1 14.0989 8.86798 2.54546 22
741 1 -0.418663 8.18397 6.85031 18
742 1 -4.38125 -8.56225 -8.38406 14
743 1 -3.52183 -8.68351 -2.89365 19
744 1 1.54314 -6.35293 5.99405 15
745 1 13.4698 11.4118 4.24394 17
746 1 5.0379 -5.70668 -9.38787 20
747 1 -8.17263 8.03492 0.250651 19
748 1 8.06052 11.8379 2.22212 17
749 1 -10.2764 -1.81082 7.43451 13
750 1 10.082 12.8501 -15.6324 10
751 1 4.97994 -7.60844 -14.6818 19
752 1 2.39527 -12.4341 -6.23206 19
753 1 3.8941 -13.6275 0.545729 11
754 1 5.30336 7.64894 -13.2162 19
755 1 5.87929 15.4078 -9.72393 20
756 1 -8.08368 5.60525 -19.5367 14
757 1 -1.75793 3.38358 10.0895 16
758 1 7.65512 9.42146 -11.6106 20
759 1 -9.92878 3.35122 -18.0681 16
760 1 -8.857 1.4163 -9.48171 17
761 1 1.58512 14.6421 -11.7175 17
762 1 8.34721 9.20587 -1.82734 19
763 1 -0.092643 -6.23121 -14.8422 16
764 1 -3.99906 -3.05858 -8.10436 19
765 1 17.9065 10.6196 -7.63036 12
766 1 11.3233 -7.08649 0.598696 21
767 1 -8.99382 3.44337 2.18366 15
768 1 14.2879 -8.5534 -1.37449 11
769 1 15.7279 -2.07545 -4.01814 13
770 1 13.4658 -1.48841 2.00374 14
771 1 -0.441081 15.2195 1.71762 18
772 1 -5.05614 1.84945 5.38361 21
773 1 -6.2468 5.77155 -0.275751 16
774 1 1.7918 -9.54752 -1.00601 18
775 1 12.2564 4.99606 -0.712867 19
776 1 1.58213 10.6063 7.48798 17
777 1 -13.5969 -0.0846838 -9.11851 11
778 1 10.2474 -0.62613 -12.7705 20
779 1 -6.90534 17.8128 -12.7412 8
780 1 5.16467 6.1151 2.59905 18
781 1 3.77287 -4.84714 -1.06266 21
782 1 6.34769 3.98199 13.9612 8
783 1 -0.143939 17.467 8.93151 9
784 1 3.98276 -10.0405 -4.32264 20
785 1 -2.18356 -1.36876 -6.64491 16
786 1 6.80845 5.72795 10.7994 18
787 1 -15.2511 1.919 -4.24604 11
788 1 -1.38831 18.1356 6.0431 14
789 1 7.98494 14.5538 -7.4468 19
790 1 -6.37649 -6.78175 -1.82501 22
791 1 3.8554 -9.30213 5.7832 13
792 1 9.37302 -5.56803 8.08414 14
793 1 15.0354 -5.82245 5.62144 11
794 1 8.70475 5.52841 2.56167 19
795 1 -2.61355 12.4296 -2.83609 20
796 1 -0.847327 -11.8905 -12.7105 18
797 1 -5.22523 7.61686 -20.9403 8
798 1 -1.72572 -4.09039 10.6661 10
799 1 -0.361598 18.4983 2.89153 18
800 1 17.3994 4.57747 0.473452 25
801 1 5.43882 18.897 -10.1166 14
802 1 -1.48952 10.5569 8.65586 16
803 1 15.9288 9.16905 5.31879 14
804 1 7.90645 -7.81772 -13.5701 20
805 1 -5.51512 -10.4734 2.9372 19
806 1 -1.58497 2.11446 -10.5365 18
807 1 15.7626 3.4916 3.38291 19
808 1 6.02214 -4.14728 -11.9214 17
809 1 0.995565 11.5227 10.1801 13
810 1 8.63959 -12.7741 -12.5987 11
811 1 2.5111 10.7614 -19.5822 17
812 1 0.199848 -7.20293 -11.5475 17
813 1 12.5806 10.0903 -14.8154 17
814 1 15.9126 3.6445 -4.02798 19
815 1 6.31879 -4.65004 7.0339 17
816 1 -5.25888 -11.9309 -10.4049 13
817 1 7.34769 19.2559 -5.53011 17
818 1 -6.99146 -7.30323 4.6508 19
819 1 -13.0065 3.29438 -1.84415 17
820 1 11.3898 7.54144 -8.62651 20
821 1 11.2282 11.2563 1.78947 20
822 1 6.66119 1.61561 -19.5753 16
823 1 -12.0073 15.0919 3.28193 7
824 1 19.8696 5.88945 3.21565 11
825 1 10.2863 18.2619 -4.92876 13
826 1 8.56594 6.42364 -20.9222 12
827 1 9.22665 0.15716 -7.1266 20
828 1 -12.3805 4.29036 -8.65113 15
829 1 11.4739 6.6101 2.45083 21
830 1 -12.9047 -6.68063 3.93295 12
831 1 -7.71288 14.2687 -13.0573 14
832 1 3.94461 0.275497 2.31842 21
833 1 -8.4373 6.07663 -13.2754 20
834 1 -8.85325 3.00237 5.03008 16
835 1 -9.44131 8.12214 -18.6289 12
836 1 13.3124 -5.16156 -13.0852 22
837 1 -8.17036 -1.52294 -16.3584 18
838 1 12.5132 -8.68622 -3.68481 13
839 1 -11.487 6.02943 -4.30803 20
840 1 -6.94209 -3.33559 -7.07605 19
841 1 18.4799 9.04784 2.93521 11
842 1 -1.86928 -3.41242 0.613179 18
843 1 14.3389 1.38717 11.2445 11
844 1 16.5644 -2.33446 1.31508 14
845 1 13.0835 -2.70744 -0.581537 16
846 1 -10.3009 3.00689 -3.18844 17
847 1 5.86534 11.1992 4.47308 19
848 1 -0.136684 13.8457 -15.9457 18
849 1 3.23742 -2.09374 -12.5437 18
850 1 -2.93523 14.1262 3.04936 16
851 1 -6.86718 -8.12815 1.53469 23
852 1 4.07945 11.0349 -9.13977 23
853 1 -0.933291 6.87645 9.60379 15
854 1 17.2257 5.99173 -10.9185 13
855 1 3.37601 0.36928 7.53054 21
856 1 2.87781 14.8788 -16.9598 14
857 1 10.819 15.639 -12.3509 12
858 1 -4.55432 6.01704 4.76728 23
859 1 17.8893 -1.14907 -1.11036 10
860 1 0.030716 -1.16403 -11.2803 17
861 1 6.93214 12.3814 -10.3089 23
862 1 -9.60405 -0.8112 -11.6119 22
863 1 3.12437 -7.12905 3.51486 19
864 1 3.75399 14.4161 -13.9644 19
865 1 3.23392 -4.04367 6.03532 18
866 1 -10.1445 -10.0521 -7.33612 9
867 1 -8.77363 15.7751 2.06803 14
868 1 -14.2294 3.12468 -10.6899 12
869 1 14.6648 8.52905 -12.4937 17
870 1 0.745086 -15.1092 -11.3807 11
871 1 -13.5217 11.8264 3.80163 10
872 1 7.50303 11.159 -7.18604 25
873 1 -2.09569 2.97179 4.96484 21
874 1 10.3993 -2.50036 -15.2942 16