ITEM: TIMESTEP
7000
ITEM: NUMBER OF ATOMS
2000
ITEM: BOX BOUNDS pp pp pp
-30.0 30.0
-30.0 30.0
-30.0 30.0
ITEM: ATOMS id type x y z Coordination
1 1 -7.41272 4.07568 -15.3929 16
2 1 -3.78905 -7.75291 -7.21574 18
3 1 4.65175 11.3104 13.2766 19
4 1 8.02948 -8.22109 10.0204 11
5 1 -10.6587 12.4976 -7.89209 10
6 1 8.22778 -6.93886 -10.3506 18
7 1 -11.716 3.91627 -8.26886 16
8 1 1.85153 -8.56151 11.1425 20
9 1 -8.2374 1.83995 -11.7557 18
10 1 -12.1893 -8.8807 4.28477 14
11 1 11.8844 6.12685 -13.7411 13
12 1 -5.59569 2.1437 -1.25652 22
13 1 -4.16072 -11.4172 -0.359268 18
14 1 -11.7158 -7.71229 1.27108 17
15 1 1.47652 1.64937 14.9862 15
16 1 10.909 -4.28435 5.40919 15
17 1 0.687976 3.97221 8.57656 16
18 1 8.84128 -1.85144 1.41135 18
19 1 3.54336 8.72204 -5.98922 20
20 1 5.99498 -1.83736 12.1839 23
21 1 -7.97285 -1.13517 -18.3371 11
22 1 -8.28025 -5.50791 9.85878 20
23 1 13.9703 4.67891 7.67388 18
24 1 6.28269 9.29615 -13.5137 20
25 1 4.47118 6.91154 -8.44733 19
26 1 14.2766 -0.138174 11.091 15
27 1 -7.54394 -1.04101 4.53928 19
28 1 -11.6995 5.39634 -10.9724 10
29 1 -2.97262 -0.035558 -9.0204 21
30 1 -10.3479 10.3213 7.43494 16
31 1 9.50234 -12.4188 6.40091 10
32 1 2.47221 -1.80663 7.76593 20
33 1 0.951828 -14.3162 -8.46002 10
34 1 12.9942 -13.1216 0.348997 8
35 1 -6.41299 -13.5168 -5.24981 16
36 1 -11.1798 -5.85781 10.2271 10
37 1 4.28566 -3.59431 -5.78992 23
38 1 0.219116 -6.31388 -10.6191 21
39 1 10.4894 -2.68298 -14.2056 12
40 1 1.26189 6.51369 -14.4647 19
41 1 2.34827 4.22135 13.5464 14
42 1 -7.19801 -10.7902 0.541952 18
43 1 3.34458 -8.38183 13.5265 11
44 1 -9.71663 0.7214 1.55498 17
45 1 -13.2054 0.500234 5.82169 14
46 1 -9.01219 2.95538 -1.00079 19
47 1 1.19127 12.9545 -1.77385 22
48 1 -1.92925 -14.5807 -9.36627 10
49 1 2.4546 -0.739689 -11.4798 20
50 1 4.28138 -9.71072 -6.97805 16
51 1 -0.4198 -3.85244 13.276 16
52 1 -13.7227 9.39522 -4.93074 14
53 1 5.14284 13.1738 -14.3419 7
54 1 -1.62253 15.8019 11.465 13
55 1 -6.60874 6.38253 -8.27874 17
56 1 -2.64541 17.5284 1.34503 13
57 1 6.84242 -11.8595 5.48922 18
58 1 7.99379 -3.76612 -10.2777 21
59 1 1.41513 -7.68762 -15.0278 12
60 1 -9.36247 10.062 11.4514 13
61 1 -14.3283 -2.9324 -9.16069 14
62 1 7.37696 2.53691 5.48979 18
63 1 -7.17709 7.81941 -5.52419 18
64 1 -4.25813 -10.0923 4.50964 19
65 1 -4.21484 11.1756 14.2506 14
66 1 -13.8843 3.25252 -5.8595 15
67 1 -6.65816 11.4752 12.6469 16
68 1 3.38104 6.80195 -3.10877 22
69 1 3.38588 8.27707 8.5462 20
70 1 -6.54842 -15.5799 4.25525 15
71 1 3.44365 9.15702 11.3989 18
72 1 10.544 -10.5251 -5.09722 18
73 1 3.81746 14.8021 15.2893 8
74 1 -10.7324 3.42349 -13.6218 12
75 1 -8.75464 4.05526 -10.3799 18
76 1 6.45601 4.12357 11.7298 19
77 1 7.52933 0.208084 -10.7187 22
78 1 10.5339 -12.3782 2.65667 15
79 1 -14.3936 -0.493302 3.72084 11
80 1 -7.50033 0.017655 -0.789272 21
81 1 5.65828 11.9118 4.65526 19
82 1 7.63591 -4.07452 13.875 15
83 1 -9.60003 -9.77461 -0.0034993 18
84 1 -8.93734 -2.08256 1.54449 18
85 1 17.8224 2.34346 7.96944 9
86 1 9.77196 -0.894265 -3.53236 21
87 1 -2.20188 11.6676 9.21024 17
88 1 7.36031 0.18979 7.53136 17
89 1 -6.34243 -2.76373 -0.501423 19
90 1 -5.07142 -5.16925 -5.23179 21
91 1 -13.208 10.2463 7.10883 12
92 1 -9.13066 10.4485 -4.48755 17
93 1 1.66921 10.7472 -9.33352 18
94 1 7.14118 0.675542 -3.73601 22
95 1 4.95789 -0.593466 -5.70448 23
96 1 11.8895 14.5579 -8.61817 9
97 1 11.7699 -4.69075 1.38708 21
98 1 6.38392 -9.49967 3.07814 16
99 1 -5.61342 14.8495 -7.53305 9
100 1 -8.34397 14.1974 3.47016 11
101 1 -5.99165 -3.49739 10.0157 19
102 1 -4.81649 7.68964 3.18967 19
103 1 -3.7558 -4.57472 12.3535 16
104 1 10.4283 -3.5971 -7.55767 20
105 1 -5.95604 5.57286 0.646606 22
106 1 -11.1727 -14.736 1.15418 9
107 1 10.7497 -6.15035 -9.4084 20
108 1 10.3709 0.559535 -15.695 11
109 1 -5.04661 -0.635081 -19.3422 10
110 1 5.79858 -0.128025 4.97238 18
111 1 -3.23204 11.7703 2.36495 21
112 1 -4.64723 5.11299 -5.57798 15
113 1 -1.64587 9.16294 18.1088 10
114 1 1.50015 14.3809 -4.7331 16
115 1 -11.4161 12.9873 -1.61329 10
116 1 0.225969 8.00741 4.22387 20
117 1 -3.57922 -8.73869 7.30579 18
118 1 15.0059 -1.94962 8.09016 18
119 1 -1.55378 -3.05138 -8.53828 19
120 1 5.29407 -6.50288 -6.39736 17
121 1 -1.9176 2.9116 9.89351 19
122 1 5.18074 -1.54181 15.2231 12
123 1 -9.67937 -5.12858 -3.57938 19
124 1 7.30957 -2.76853 4.2043 18
125 1 -10.551 -7.29092 -2.15518 20
126 1 14.5786 -5.61619 -0.0752123 17
127 1 -2.42896 7.90176 -1.38733 22
128 1 8.82444 9.11226 -16.3274 11
129 1 6.19693 15.6906 -2.68701 16
130 1 -5.76139 -12.6856 12.4718 9
131 1 -6.45661 -15.3701 9.93887 8
132 1 -3.80269 5.19369 -1.56604 21
133 1 3.56592 -9.63929 -13.0477 12
134 1 5.1165 3.61211 -3.7269 21
135 1 11.7087 -7.58817 -0.888769 21
136 1 -1.64729 -15.5473 8.58057 13
137 1 -8.97737 -7.60245 2.17013 23
138 1 15.8282 7.44847 11.0914 9
139 1 11.9747 -1.12942 -6.70044 18
140 1 -14.2006 -0.648071 0.928001 11
141 1 11.1932 9.83695 1.70331 20
142 1 14.3635 8.64673 3.05967 18
143 1 -5.05486 0.425445 15.0841 12
144 1 9.00682 5.70144 -1.60333 21
145 1 -4.3818 13.9706 11.3838 13
146 1 -6.33266 10.052 -7.27009 20
147 1 -2.91741 -5.39597 -11.2887 18
148 1 12.363 -11.3843 -8.36413 10
149 1 2.27441 13.8074 -9.81369 17
150 1 9.42337 -2.87755 8.17358 19
151 1 0.179684 -3.6085 -16.5488 20
152 1 -1.06741 9.5004 -9.33127 22
153 1 11.8276 5.47534 -0.718293 22
154 1 -10.6657 8.38754 -5.79748 17
155 1 -5.89386 13.7645 -2.07574 17
156 1 11.1029 2.2054 -10.303 18
157 1 12.0271 -9.99911 4.35725 13
158 1 -0.944124 1.46547 -9.02737 20
159 1 -3.79932 14.8761 6.50349 17
160 1 13.5978 6.46785 -5.31279 18
161 1 7.69062 13.5233 -0.571599 17
162 1 -1.88453 16.9826 -1.70954 13
163 1 15.5252 8.92751 -2.35304 13
164 1 -0.617327 10.6457 -1.51282 21
165 1 2.93773 15.9529 -7.85653 13
166 1 4.53774 14.4505 -11.9869 11
167 1 -14.1516 -6.25968 2.83814 10
168 1 -14.4622 11.4137 -3.40118 11
169 1 -2.54516 -1.76331 -11.7113 21
170 1 1.03814 -10.9675 -13.541 8
171 1 10.1416 13.6428 8.28995 16
172 1 4.4516 13.4808 7.66085 19
173 1 -11.5349 -2.01795 -0.220432 15
174 1 -9.78217 11.8751 0.65696 16
175 1 16.3914 -1.5642 -5.15366 11
176 1 -7.86158 1.90861 -17.9775 9
177 1 6.80152 1.42794 12.9078 22
178 1 4.33161 18.3613 3.82906 13
179 1 -0.506868 10.3974 6.92222 19
180 1 -1.24927 -7.36819 -12.779 15
181 1 -6.32728 14.7277 8.67657 12
182 1 -0.878161 8.66859 -4.06377 20
183 1 4.0594 -4.89283 13.7409 16
184 1 -15.0135 -4.27681 -0.280037 9
185 1 -4.37033 -13.9281 -10.1724 15
186 1 -0.643482 5.07279 -10.0975 19
187 1 1.39224 -8.51279 5.35079 20
188 1 5.15658 -12.8467 -4.55555 16
189 1 -3.27932 11.8406 -11.945 16
190 1 -13.3736 3.26682 8.15324 14
191 1 5.11701 9.52701 -3.50755 21
192 1 10.6684 8.44796 -5.24692 18
193 1 -6.12889 5.38808 15.917 14
194 1 0.932917 -13.7852 8.42763 15
195 1 -7.01908 2.64818 1.42653 18
196 1 2.18037 15.1447 6.19372 16
197 1 1.25001 5.36823 10.8476 18
198 1 12.3319 7.44932 13.9422 10
199 1 -7.31993 10.4519 2.33275 22
200 1 13.5499 -5.41438 -9.06098 13
201 1 -2.93743 14.8184 8.97478 17
202 1 -4.38855 -0.651193 -6.21164 17
203 1 15.0141 -4.02995 2.49166 14
204 1 -6.20857 0.00421393 7.73118 21
205 1 -12.4824 1.88497 2.47861 17
206 1 -6.3897 -7.63176 4.22292 20
207 1 2.12072 4.4648 16.1687 14
208 1 -14.0231 5.1454 -3.16373 17
209 1 -3.06014 -14.0274 -0.50143 21
210 1 -5.81926 0.00238973 -3.41 19
211 1 6.60701 -5.05505 -3.84642 21
212 1 -4.07353 9.26337 0.962985 25
213 1 -5.79441 1.88062 10.8819 21
214 1 8.46237 15.1417 11.6824 8
215 1 -11.1405 5.2703 -5.26578 20
216 1 -5.2035 12.223 -8.76034 19
217 1 -13.8106 -2.73456 -5.88189 15
218 1 -8.00799 0.0668493 10.5972 20
219 1 0.837384 -10.6998 9.22522 21
220 1 6.25392 -14.5163 6.25869 12
221 1 -10.1251 8.97834 2.41709 22
222 1 17.3157 2.78206 3.98475 13
223 1 2.95828 2.21585 -5.56919 26
224 1 -8.05887 -3.38338 -15.6901 13
225 1 5.94938 0.658459 10.0683 19
226 1 7.74594 -11.9472 1.00153 16
227 1 -0.5412 9.51735 -12.8795 16
228 1 3.35489 -12.7691 -7.21871 13
229 1 8.43651 -1.835 -12.5594 24
230 1 4.38966 5.31983 -16.4218 18
231 1 -7.89944 -4.8361 -9.69689 23
232 1 -3.40988 14.8096 -9.85767 12
233 1 -13.1609 -10.7111 6.01514 9
234 1 13.369 12.7308 -5.38291 11
235 1 -6.53565 5.77572 12.6812 19
236 1 -7.88132 12.5371 -6.969 17
237 1 9.01967 2.3475 9.83519 20
238 1 -5.70575 -5.63111 -15.0876 15
239 1 -4.75732 9.29063 -10.1441 20
240 1 3.73244 3.58939 -8.03085 19
241 1 -11.9486 -13.9262 6.82595 5
242 1 -8.6106 8.0388 8.74136 21
243 1 -4.64659 10.0665 4.83603 20
244 1 -1.29803 -11.928 -4.97286 16
245 1 -9.6372 -13.0524 -0.215494 19
246 1 12.2823 -5.70626 -6.28968 20
247 1 4.20856 -4.92943 2.24242 21
248 1 9.72397 7.66565 12.2985 18
249 1 7.67575 10.7941 -10.7857 16
250 1 2.1701 10.1153 -2.80803 21
251 1 -14.9039 5.59596 -0.408402 12
252 1 -7.5296 10.5709 -1.25376 21
253 1 3.69278 3.03821 10.7643 20
254 1 5.7926 -14.4822 -0.0215569 10
255 1 13.149 2.73181 -1.96743 22
256 1 0.541094 6.81711 6.57888 19
257 1 -11.3245 6.16381 2.7794 24
258 1 -12.2312 -5.36282 -0.773343 19
259 1 6.18585 3.82281 -13.6474 19
260 1 4.0626 -4.01074 10.1573 21
261 1 9.04746 11.1302 -13.9523 11
262 1 4.69709 -8.09528 -3.44738 22
263 1 -4.79231 0.607988 -12.1015 21
264 1 3.21123 -16.3376 0.843963 11
265 1 13.237 0.684558 -10.3765 16
266 1 -10.9454 -4.23255 2.03253 21
267 1 1.8081 -12.792 -4.60788 18
268 1 -9.75394 0.746084 -8.81039 21
269 1 4.00798 14.5551 -0.414057 16
270 1 -0.109244 -0.214993 -15.7192 21
271 1 5.22198 4.38495 17.3258 10
272 1 16.6442 3.4511 -1.94266 14
273 1 -2.23608 -5.55022 2.42262 24
274 1 11.0727 -3.29469 -10.8155 18
275 1 -0.398273 -8.011 2.47733 20
276 1 -7.88533 -4.09652 -12.5935 17
277 1 -13.0241 2.01527 -11.5336 11
278 1 -1.6927 -12.743 4.26569 18
279 1 10.4958 -0.131509 8.38642 20
280 1 7.10697 -6.64342 12.6302 13
281 1 -6.31939 -8.62271 -12.7728 13
282 1 1.48189 -4.79353 8.38416 23
283 1 4.6644 2.41424 -15.5272 17
284 1 9.31951 11.1517 -0.756373 19
285 1 -5.76445 -5.69774 1.33116 20
286 1 0.226078 11.8493 1.60047 22
287 1 -7.9046 5.0259 9.79152 19
288 1 -10.1988 -6.66975 -8.15695 14
289 1 -5.79228 -5.84754 -12.0216 20
290 1 -1.16143 5.21547 -16.5934 15
291 1 -5.97763 -7.8624 -9.50523 22
292 1 -7.25982 -7.81721 -1.19716 17
293 1 3.6789 -4.85586 -14.6999 20
294 1 10.883 0.144878 -12.4149 18
295 1 14.0796 -0.108314 2.53595 18
296 1 0.462246 -5.22477 -3.04501 22
297 1 -7.25735 -3.28069 6.86681 20
298 1 -3.57405 -10.8784 -3.55921 17
299 1 11.9017 4.94571 11.9994 19
300 1 -3.45608 -15.1762 3.17745 19
301 1 1.9287 -14.2671 2.72923 18
302 1 -1.71959 13.9064 -5.81725 16
303 1 8.09809 2.68708 -16.7849 16
304 1 -9.81115 -0.838265 -16.3765 11
305 1 5.8549 -6.11481 -0.787186 20
306 1 -7.8827 -10.9258 10.8578 8
307 1 0.889368 9.12387 16.6881 13
308 1 4.4107 -8.71559 -0.374164 20
309 1 -4.39294 -10.1632 -10.4858 18
310 1 -6.06142 2.41764 -5.53076 18
311 1 12.4771 1.07725 5.28528 20
312 1 -3.18712 4.37634 -12.5995 19
313 1 2.47874 12.118 -12.0864 18
314 1 -4.08344 -2.76669 7.37768 20
315 1 13.0249 -9.13634 -10.9063 9
316 1 -4.86717 14.5643 -4.0877 14
317 1 2.86629 12.7563 3.54918 16
318 1 10.4286 2.77548 4.40755 20
319 1 -10.7867 4.12539 4.0641 20
320 1 -0.11022 -7.3333 13.2243 12
321 1 -7.32304 7.41527 3.04662 18
322 1 1.82848 -3.60982 -10.7741 15
323 1 13.6415 9.35662 -6.67496 13
324 1 7.09052 -7.30125 1.36944 19
325 1 -2.64486 -1.53455 13.525 18
326 1 -12.8952 -3.19181 5.09286 14
327 1 -0.436095 -13.7878 -2.32443 21
328 1 -9.1334 5.2573 14.4322 13
329 1 -11.7369 4.70614 13.4928 11
330 1 -9.58403 -2.35574 9.5627 19
331 1 -10.8775 -4.57709 7.70684 18
332 1 14.0358 -2.65946 -0.94234 18
333 1 -11.9816 -7.80992 7.33555 11
334 1 6.72304 -1.58488 -7.74466 20
335 1 11.5091 -7.02864 -12.1414 12
336 1 2.19696 18.5593 -1.81779 11
337 1 -2.64993 -3.55145 4.93218 19
338 1 -9.0351 13.45 -2.74105 15
339 1 3.46867 0.968931 8.08962 17
340 1 9.23572 10.8938 10.3665 18
341 1 -9.55986 -3.46591 4.81444 21
342 1 10.941 -8.33506 -3.11686 20
343 1 -5.5172 13.0368 3.86777 22
344 1 -10.3208 7.31252 5.57367 24
345 1 4.53551 -9.38662 5.60641 22
346 1 14.6702 -7.18182 4.7489 10
347 1 -2.94816 9.12251 9.02266 21
348 1 -5.75186 -3.1036 -6.94039 16
349 1 -3.50306 3.71607 15.6654 16
350 1 -1.37043 16.912 5.51434 12
351 1 11.0685 10.5603 13.2107 10
352 1 -6.12884 13.3832 -11.5326 11
353 1 -2.85365 -2.5008 -17.1119 17
354 1 -2.6921 2.22141 -6.72734 17
355 1 5.56143 -9.38248 -10.6052 14
356 1 -15.3583 7.9822 6.3982 10
357 1 -14.3516 4.73989 2.69366 18
358 1 -1.54984 -4.23861 -5.66451 20
359 1 -6.37004 11.5241 -4.19152 19
360 1 7.78129 -4.37209 6.561 18
361 1 -12.1621 -12.4269 -1.16602 14
362 1 5.71583 -5.91877 4.40994 23
363 1 -4.37157 -10.7203 10.0184 20
364 1 -12.9031 10.3783 -0.850673 16
365 1 -0.519851 -6.29813 10.444 20
366 1 -1.27823 -9.24267 -6.19017 18
367 1 -6.58321 0.571911 -9.85556 18
368 1 5.60513 -3.59494 -17.8492 10
369 1 4.6082 14.9987 4.34075 22
370 1 -14.3881 0.427608 -2.28198 14
371 1 6.80129 -13.173 -7.55387 9
372 1 8.93182 5.81031 -17.7078 10
373 1 -5.66263 -10.0048 -6.05322 19
374 1 -13.8851 -5.90147 -6.76723 10
375 1 -0.79369 -6.23767 -0.293685 22
376 1 9.90946 5.47556 14.7639 15
377 1 14.0162 3.12573 3.85749 21
378 1 -4.06445 2.59746 -10.4087 19
379 1 4.60118 18.2643 -0.100502 15
380 1 -11.9894 2.92645 -2.9228 19
381 1 -7.68287 9.04457 5.41209 21
382 1 -3.85229 11.0951 -1.86302 21
383 1 -3.71778 5.64152 7.66783 16
384 1 12.1327 6.75039 8.98235 21
385 1 10.4673 1.48945 -5.59508 18
386 1 11.0998 -4.15394 15.0449 6
387 1 16.0044 2.80434 -8.65395 10
388 1 -7.40293 -14.3682 -2.39816 17
389 1 3.51054 5.48518 7.61486 20
390 1 0.251838 5.98192 -4.57967 18
391 1 1.15033 -7.97341 -2.00058 21
392 1 -1.71573 10.04 3.99526 17
393 1 -9.94269 1.93986 -6.06051 19
394 1 7.95363 -8.56317 -1.3998 21
395 1 11.4878 2.82163 7.70121 20
396 1 -5.54809 -2.41622 -10.3638 22
397 1 -8.53537 -13.294 2.56144 19
398 1 -6.20797 -5.75143 13.2478 11
399 1 -2.29458 13.7856 -2.50631 16
400 1 -13.9988 -8.8297 -4.43108 10
401 1 8.00014 10.5239 15.3935 8
402 1 -5.5681 8.03459 -1.73282 20
403 1 0.337825 12.1727 -7.24699 22
404 1 5.94003 9.62711 7.39615 20
405 1 -13.2622 -6.05624 -3.43992 14
406 1 0.293958 -11.5082 -8.65966 17
407 1 -9.33345 1.75327 4.13144 18
408 1 -10.2888 9.52126 -9.00146 10
409 1 2.9513 -6.33566 5.23858 20
410 1 -0.417312 -12.3464 0.323676 22
411 1 13.535 12.7276 7.85337 13
412 1 6.82638 7.63081 -17.2738 15
413 1 -6.47329 4.19126 -12.645 23
414 1 -2.5604 10.2022 -6.64548 23
415 1 -8.12432 2.20659 -3.43992 20
416 1 1.38636 -11.5931 6.48473 23
417 1 12.0636 5.16144 5.81894 22
418 1 4.1977 7.77059 -14.6995 17
419 1 -2.69353 0.428234 7.7558 17
420 1 -12.2443 4.8136 -0.335054 20
421 1 -7.96602 4.87079 3.98913 23
422 1 0.824318 -11.2375 3.31375 20
423 1 0.826391 -6.9532 -5.20091 20
424 1 2.51574 -8.34736 -10.2531 16
425 1 0.72424 -2.93363 10.4315 22
426 1 -13.0817 5.31334 5.37669 18
427 1 -11.2966 0.722983 9.28113 17
428 1 -15.2065 9.58379 3.94257 11
429 1 -3.59864 -8.08167 2.42046 18
430 1 -5.46961 1.28202 -16.7576 18
431 1 7.01596 -10.3679 -4.98524 20
432 1 -1.7293 -12.2389 -11.0865 19
433 1 -2.27614 -3.88806 10.4606 20
434 1 3.53792 -5.45892 -3.57592 23
435 1 -2.69045 0.662064 -17.5951 18
436 1 9.58126 -11.0409 -1.62251 22
437 1 3.8329 13.1203 -3.43397 17
438 1 -10.3906 10.6756 4.60812 16
439 1 -5.86487 -2.58934 14.3318 10
440 1 -10.6537 -3.0919 -11.2619 18
441 1 -8.37196 -6.30815 5.98569 19
442 1 6.22958 -9.64973 12.0134 11
443 1 7.2177 2.92994 -0.771085 21
444 1 -4.51094 5.19544 4.99379 19
445 1 2.73433 -2.09625 -8.21241 23
446 1 9.03827 -6.23385 4.04416 19
447 1 16.6128 7.12906 -4.57367 12
448 1 -1.44713 0.396863 15.9554 12
449 1 -1.65905 13.6336 0.151716 22
450 1 7.62838 -4.47521 1.30604 20
451 1 -5.41728 -16.3501 -4.01213 10
452 1 -6.99598 7.97423 14.3109 17
453 1 1.8085 15.5994 11.5674 12
454 1 -9.09674 -9.37381 -7.52619 17
455 1 9.52284 17.1876 2.09146 15
456 1 4.4772 6.03987 10.1784 20
457 1 -6.78921 8.1242 10.7653 21
458 1 -8.61123 -4.13518 -6.14943 18
459 1 -12.1798 6.9176 7.90329 20
460 1 -8.46976 -2.08161 -8.81072 22
461 1 -4.80356 11.9979 7.77182 21
462 1 -2.79796 -11.6388 -8.17995 21
463 1 -3.6362 -7.35748 -14.5715 15
464 1 -5.03841 -12.5069 2.64597 20
465 1 -6.0591 -0.0569031 2.22971 21
466 1 9.16048 4.33826 6.92271 19
467 1 -5.35289 -7.3349 10.4259 17
468 1 -6.36014 7.08482 -13.7168 14
469 1 10.145 7.38489 1.20128 22
470 1 -10.5286 -10.1727 -2.83401 18
471 1 6.20887 3.55244 -6.15331 21
472 1 1.29486 18.1426 4.91908 14
473 1 3.45414 5.3015 -5.59583 19
474 1 -0.57445 12.8868 11.9622 19
475 1 -16.4184 -1.2356 -4.38335 10
476 1 -0.188076 17.7458 -3.50466 11
477 1 6.01681 17.1477 -6.60997 11
478 1 -7.36051 -6.77727 -6.7611 19
479 1 4.65469 1.80481 15.8382 12
480 1 2.1662 -15.6043 -5.49201 11
481 1 -2.32808 -3.66535 -13.8561 19
482 1 9.4209 -14.5654 0.412489 12
483 1 -10.9863 7.74223 0.0162427 18
484 1 4.19693 6.42333 13.3127 19
485 1 14.5833 5.91139 -2.54029 22
486 1 5.60554 11.4111 -1.31213 22
487 1 -4.1838 6.13918 -10.5439 16
488 1 5.47679 -1.75753 -10.3123 21
489 1 -0.498671 -6.3184 5.04881 20
490 1 -13.9752 -3.09747 -2.59624 15
491 1 5.46567 16.4736 6.74735 12
492 1 0.285212 4.17197 -13.008 20
493 1 10.8811 8.10028 -1.60881 22
494 1 5.47768 15.6716 -9.25846 15
495 1 7.50065 -2.30141 -5.14225 18
496 1 16.4018 1.32541 -4.64172 13
497 1 3.25973 4.12008 -13.3606 19
498 1 3.53712 -7.95432 2.56001 23
499 1 7.28778 -10.7885 8.70615 15
500 1 4.45548 -9.87639 9.03142 19
501 1 -6.76535 3.14746 -8.3916 17
502 1 -3.99449 -13.5929 8.11668 15
503 1 -4.16165 -13.6473 -6.42692 16
504 1 10.4441 13.2698 5.0286 19
505 1 1.45736 3.45109 -15.9734 19
506 1 7.77825 -3.84582 10.2736 17
507 1 -12.8751 2.52158 11.3939 11
508 1 -2.13615 -17.4225 0.760396 12
509 1 -5.54095 -3.86955 4.52889 18
510 1 14.2134 -2.52784 -9.67202 10
511 1 12.0603 0.0936298 -0.975679 20
512 1 0.705249 8.85466 -6.64993 20
513 1 2.36962 -9.6538 -4.74886 17
514 1 6.24683 3.8732 -9.4847 19
515 1 9.93506 -0.51025 -9.10698 17
516 1 -3.0382 1.326 12.612 20
517 1 8.14319 18.0717 -1.31065 13
518 1 -5.7555 -3.74116 -18.1322 12
519 1 1.78262 0.885513 -19.7473 11
520 1 -5.61373 -6.00958 7.46373 20
521 1 -5.44907 12.7566 0.624558 21
522 1 -8.45536 -1.03787 -11.7457 19
523 1 -15.0583 3.16262 4.98035 11
524 1 -3.29561 -14.1766 -13.4562 7
525 1 -2.87618 -11.3653 12.9998 10
526 1 7.20177 8.18147 -6.46469 20
527 1 17.2542 4.52255 9.74566 11
528 1 18.1992 6.38956 -1.69554 12
529 1 -12.4388 -11.7501 -3.78208 13
530 1 1.43865 -9.57653 0.302253 21
531 1 -3.31478 -0.277847 -14.5628 22
532 1 -7.70911 11.4197 9.25824 17
533 1 6.02257 -6.37159 -13.4595 17
534 1 3.84831 8.42853 -0.388993 20
535 1 12.1894 -1.52644 1.37183 20
536 1 5.02178 12.6687 -9.3416 22
537 1 9.89122 -7.59139 1.68912 20
538 1 14.1954 7.31745 -12.061 11
539 1 1.50547 7.09944 13.6389 20
540 1 -12.5529 8.55707 4.68436 23
541 1 6.23219 12.6169 10.4684 20
542 1 8.60569 -1.43769 14.2714 15
543 1 2.64241 4.30733 -18.5211 10
544 1 -4.77954 -7.75994 -3.61312 21
545 1 2.43995 -0.446296 11.118 21
546 1 7.39585 12.4948 7.01072 20
547 1 11.2597 6.82251 -10.6542 17
548 1 -10.1062 6.48225 -8.17292 19
549 1 0.606219 11.4062 -4.72905 18
550 1 13.3385 -1.88545 12.8691 10
551 1 9.49428 4.68148 -14.6036 18
552 1 9.73855 -4.60386 -4.25781 22
553 1 11.6655 9.70226 8.26793 20
554 1 -14.4852 -3.23698 2.38989 13
555 1 -6.47506 10.7565 -12.78 13
556 1 -0.965814 3.99829 12.9211 20
557 1 -10.6209 -0.518302 12.2462 15
558 1 -2.35104 12.3588 -8.83142 19
559 1 14.591 -8.85491 -0.252851 12
560 1 7.90665 1.20606 -7.58264 19
561 1 -2.80309 16.812 -5.36557 8
562 1 -10.9819 -2.82306 -14.1931 12
563 1 9.16377 -9.72458 3.38406 19
564 1 -9.30971 -5.35624 -0.22555 21
565 1 -0.69879 13.1625 -10.6684 18
566 1 -10.1863 0.100707 -1.57376 15
567 1 -0.968562 11.3516 15.3344 15
568 1 -7.94033 -8.15016 8.89713 16
569 1 7.22684 8.23082 -0.732643 23
570 1 8.14987 -7.56245 -4.27544 21
571 1 4.83643 -7.18016 10.7883 22
572 1 10.8967 5.48096 -3.8232 21
573 1 -15.1724 8.39849 -1.88419 10
574 1 3.74668 6.90181 16.1218 17
575 1 5.64488 18.3179 -3.31262 10
576 1 11.9117 -2.82095 -4.25145 19
577 1 6.29987 9.45621 10.3411 20
578 1 -0.0125207 2.16194 -17.8469 18
579 1 -3.59391 -14.4599 11.6329 12
580 1 2.05177 0.76418 -8.1817 25
581 1 5.67881 -0.4243 -13.6574 19
582 1 1.03926 13.2201 8.82445 18
583 1 9.24922 7.63503 -13.501 18
584 1 1.69009 2.81669 -10.5519 21
585 1 -8.05571 -7.88168 -4.21404 19
586 1 -13.8018 -3.6969 -12.3717 9
587 1 17.5346 4.62072 1.04562 13
588 1 17.782 4.51207 -4.41675 10
589 1 9.44024 -9.52211 -10.135 19
590 1 13.0311 8.37777 11.2375 17
591 1 10.0853 -8.0521 -6.86783 19
592 1 4.9149 2.49741 -18.3681 14
593 1 6.39009 15.803 0.924998 19
594 1 -6.50222 2.17071 5.064 20
595 1 8.22559 12.1766 12.9113 17
596 1 13.4391 7.5669 0.315771 20
597 1 16.8284 -3.21313 4.79111 11
598 1 12.9997 2.73845 -7.4932 20
599 1 8.71248 -0.736668 10.9236 22
600 1 14.4578 5.26455 11.2741 15
601 1 -0.738856 -2.61227 7.73082 23
602 1 11.8321 11.5954 -3.79261 16
603 1 7.44733 1.03672 1.38746 16
604 1 3.82198 0.218208 13.3873 19
605 1 18.1235 0.393058 -7.62241 6
606 1 11.5384 1.43435 11.098 22
607 1 -7.53849 0.314211 -6.61908 20
608 1 12.6781 6.61954 3.15388 18
609 1 10.7141 -3.06423 -1.27735 22
610 1 2.44329 -5.96633 -0.0110982 22
611 1 -11.6479 8.93956 10.159 13
612 1 12.5848 12.3468 10.5858 11
613 1 13.8515 0.893447 8.07178 20
614 1 2.87585 10.3584 5.9266 20
615 1 0.414315 14.8126 14.2825 14
616 1 2.23204 5.0036 3.96851 22
617 1 -0.814171 -14.9692 2.92505 16
618 1 -4.43366 8.97882 -4.12087 21
619 1 11.9376 11.4607 -7.91915 17
620 1 7.53481 -4.29501 -15.2998 18
621 1 0.235801 18.2549 0.58126 13
622 1 -3.93426 -13.7918 -3.35931 19
623 1 6.40118 -9.80574 -14.1631 11
624 1 -9.82226 4.85795 6.63849 17
625 1 -3.74203 7.91659 -7.38849 19
626 1 2.29753 -14.6523 5.62663 14
627 1 -4.97512 -2.68924 -13.4479 17
628 1 -16.3627 2.48365 -3.57336 10
629 1 13.2622 -7.68672 2.38875 16
630 1 7.95472 9.97146 2.08982 17
631 1 2.57756 -11.9954 10.9961 13
632 1 -12.5167 0.935452 -8.05819 17
633 1 2.26704 -2.6544 -19.033 10
634 1 6.04016 -2.61664 8.13779 18
635 1 -1.38047 5.92732 9.20091 19
636 1 6.79343 11.3794 -17.0078 7
637 1 12.4327 -2.86958 9.75249 15
638 1 10.816 11.2676 -10.6952 14
639 1 11.1607 14.8002 3.02668 15
640 1 6.5444 -10.7513 -2.28537 19
641 1 -8.71517 -2.96646 11.9364 14
642 1 13.5938 -2.89886 4.50487 19
643 1 -7.35293 10.6096 15.5005 8
644 1 8.59823 15.8343 -8.60514 13
645 1 -11.8333 11.8117 -4.35062 18
646 1 11.0989 13.4898 -0.77414 17
647 1 -10.8475 -14.7492 -2.67092 11
648 1 16.6732 -1.60231 1.0354 10
649 1 7.07557 17.1895 3.9122 16
650 1 -4.39263 4.3466 10.931 20
651 1 -7.95983 -4.7623 3.07203 18
652 1 -12.0546 -0.95116 -10.5416 20
653 1 9.26564 3.2719 12.8505 20
654 1 -0.209198 -10.0228 12.0098 14
655 1 7.67376 6.3764 11.6357 18
656 1 -4.15719 12.4069 -5.78683 19
657 1 8.86376 5.36343 3.97209 22
658 1 7.41628 -2.99975 -1.43241 22
659 1 6.09124 5.47446 4.76329 20
660 1 4.44611 1.22746 -11.1001 20
661 1 -8.75789 2.90387 12.0953 22
662 1 8.81458 4.82583 -11.613 17
663 1 -0.614654 -5.92939 -7.94998 20
664 1 9.91584 -9.56789 -13.1572 11
665 1 6.40352 8.34293 4.31286 21
666 1 3.93386 7.55222 5.24673 21
667 1 -10.0589 6.42385 11.1453 22
668 1 11.7729 10.2598 5.3796 22
669 1 2.78735 -2.32136 13.5671 17
670 1 -3.81106 8.01208 12.2562 19
671 1 0.00752185 -1.41616 -13.3383 20
672 1 -3.15506 5.48743 13.7416 21
673 1 9.81898 4.77485 10.0164 19
674 1 -6.38706 -12.9877 5.33949 16
675 1 13.5068 9.21483 -3.89377 19
676 1 8.47373 -12.8282 -3.99145 14
677 1 -1.3125 6.80305 -7.14633 17
678 1 8.29028 9.62165 -3.48553 20
679 1 7.78485 14.0177 3.47789 20
680 1 4.24627 -0.323003 -18.1965 10
681 1 0.312874 0.637859 8.25276 21
682 1 0.51799 15.0673 -0.0230117 16
683 1 12.7986 10.7913 -0.869418 15
684 1 -6.35415 -5.19742 -2.41323 19
685 1 -0.944071 -1.03703 -18.8874 12
686 1 -10.4079 14.0971 -5.52082 8
687 1 5.39852 -6.91815 -16.4007 12
688 1 3.9969 6.39915 2.15589 22
689 1 11.8574 9.48729 -12.8936 14
690 1 11.7065 15.2532 -3.46785 11
691 1 -1.28533 4.96198 4.53126 18
692 1 -6.28227 5.00867 -2.84286 23
693 1 6.54971 6.32898 -3.86518 21
694 1 12.8277 2.03232 13.7407 13
695 1 11.3979 -0.225811 13.7176 15
696 1 -0.993761 -12.7847 10.6534 16
697 1 1.04423 7.68959 -11.5137 22
698 1 4.96017 14.6019 12.2908 13
699 1 8.56817 -7.48957 -14.8748 12
700 1 5.95207 3.32204 8.46194 19
701 1 7.04409 12.6448 -3.28613 18
702 1 9.55644 12.3498 1.68077 20
703 1 14.0494 -3.27709 -6.45713 18
704 1 6.41408 7.09894 15.3808 15
705 1 -11.2462 -1.26259 6.83517 14
706 1 0.473733 -16.2304 0.138405 15
707 1 -0.041868 -1.17898 -9.8521 19
708 1 -5.71815 15.9008 2.02199 14
709 1 0.437037 9.38567 9.56984 20
710 1 5.51927 -4.50064 -8.97391 19
711 1 2.77352 11.1829 8.33483 17
712 1 -11.1641 -0.935716 3.89787 21
713 1 -1.18918 7.53226 11.8877 20
714 1 -1.79138 7.23111 -12.2251 17
715 1 -3.90144 8.77732 -13.3084 15
716 1 4.37899 -11.2398 1.62828 15
717 1 6.15496 6.40991 -11.7821 18
718 1 4.10816 -3.03884 5.31475 19
719 1 -0.838801 9.21353 1.24929 22
720 1 -13.674 5.59631 10.572 10
721 1 8.63738 1.61765 -13.3258 19
722 1 3.95543 -12.2028 7.73263 18
723 1 2.63576 17.2511 1.69825 15
724 1 -2.93478 6.22329 17.3285 14
725 1 -8.84543 -7.0374 -10.6726 14
726 1 -5.25522 -12.1627 -12.3747 11
727 1 -5.93007 -11.4144 -8.38395 17
728 1 -0.518634 15.1584 -8.37847 14
729 1 5.36982 -3.14813 -12.8144 18
730 1 -2.61596 12.4587 5.80133 20
731 1 1.01041 -8.69985 -8.08001 22
732 1 11.5931 -13.3323 -2.07829 10
733 1 4.37117 -5.07201 7.54549 20
734 1 13.5604 4.38197 -10.5107 17
735 1 3.2518 -10.944 -2.16469 22
736 1 -9.17514 0.055478 7.43957 18
737 1 5.01443 0.361753 -8.43665 22
738 1 -6.09938 -14.519 1.1795 20
739 1 -8.95034 -12.3449 -3.90368 15
740 1 -5.02797 3.13483 7.62022 19
741 1 -8.35023 -16.6206 1.60753 9
742 1 13.9102 7.08736 -8.6314 17
743 1 -8.20788 14.1115 0.452688 16
744 1 -2.31925 7.68755 5.77549 18
745 1 -12.876 10.7214 1.9568 13
746 1 10.5943 -1.746 3.46984 20
747 1 -14.9994 -0.811264 -10.8356 9
748 1 3.18839 11.8096 -6.52072 20
749 1 8.17444 3.36454 -4.33423 22
750 1 7.42599 14.2409 14.9167 9
751 1 13.9585 4.4756 0.221248 20
752 1 -9.30596 5.77405 -13.4038 12
753 1 -11.3836 -3.83706 -8.03168 18
754 1 -0.898843 3.22283 17.1906 10
755 1 4.34839 9.49311 -11.0305 18
756 1 14.0368 14.2216 4.77101 8
757 1 -1.23043 -0.275335 10.4719 23
758 1 -4.85825 -16.7237 -0.927485 15
759 1 -8.49951 -15.1305 7.29572 8
760 1 -2.23015 -5.58951 7.47736 17
761 1 15.5841 10.7361 10.5502 7
762 1 2.5288 -5.27321 -7.92071 18
763 1 -7.83144 10.7632 -9.90798 15
764 1 5.54425 12.5389 1.74728 18
765 1 -3.8948 -6.39663 5.12241 19
766 1 6.971 6.1237 -14.9331 18
767 1 1.3043 -16.5351 -2.69052 11
768 1 -1.89236 -16.6557 -2.24651 15
769 1 2.41175 -13.4763 0.120171 19
770 1 7.91028 6.46315 -8.80027 18
771 1 6.7997 19.1213 1.28749 10
772 1 -1.57945 2.32253 -15.3942 23
773 1 0.474439 -0.677597 13.1925 20
774 1 1.03685 8.24104 -16.7777 9
775 1 -10.3201 0.29785 -13.2619 16
776 1 -8.03247 -2.21351 -3.48947 16
777 1 3.01015 17.7069 -4.68094 11
778 1 8.77516 0.125425 -0.943953 20
779 1 -3.016 -5.55619 -17.6482 10
780 1 -3.6736 -6.61032 -0.423925 22
781 1 9.1501 6.05842 -5.99755 18
782 1 14.9512 -6.55564 -6.23734 12
783 1 -9.71163 8.24295 13.635 11
784 1 11.1867 -10.299 0.887882 21
785 1 15.1469 -4.73047 -3.4158 13
786 1 14.2386 -5.0802 7.16465 12
787 1 0.527147 13.1782 5.6331 16
788 1 -10.0534 1.85998 14.7066 11
789 1 -5.79395 8.94396 8.10267 20
790 1 -3.53001 -15.704 5.69074 15
791 1 10.4484 0.539323 2.37869 21
792 1 6.78506 9.22645 13.2246 19
793 1 -14.1707 2.75767 -0.254423 15
794 1 7.36537 -8.92333 -7.98403 15
795 1 -13.5268 11.9026 -6.63312 11
796 1 2.3734 9.24686 2.77203 19
797 1 4.93284 -15.2692 3.33475 14
798 1 7.52883 3.7923 15.4872 14
799 1 0.313545 15.1506 3.06445 17
800 1 4.10769 -12.4491 4.79695 18
801 1 -11.2232 -2.31593 -3.95543 18
802 1 0.733854 1.94889 11.4639 21
803 1 -12.8296 0.272695 -4.99119 19
804 1 2.1272 12.5747 14.5067 15
805 1 2.68633 11.2826 0.577509 19
806 1 -10.5951 -10.9821 2.52777 17
807 1 -2.68405 -11.2531 2.05637 22
808 1 10.3403 -5.62095 11.1304 9
809 1 11.6517 -7.39844 6.07084 11
810 1 9.05051 7.92885 9.30041 19
811 1 -2.68324 6.2716 -4.04324 20
812 1 -0.158382 -9.94634 -11.0684 19
813 1 1.58966 1.17032 -13.5958 20
814 1 -4.52237 -1.34759 10.4091 19
815 1 -1.25587 19.8608 3.47775 6
816 1 16.0846 1.92411 1.13739 18
817 1 9.18605 12.7198 -8.36948 22
818 1 -4.45506 8.23248 16.2987 13
819 1 10.0058 6.98662 6.6882 21
820 1 0.884643 -4.68065 -13.5028 20
821 1 -6.56518 -10.779 -2.86103 19
822 1 -3.80601 -2.57923 -4.00708 18
823 1 15.3019 0.146909 5.1893 18
824 1 -1.53362 1.10089 -12.3311 23
825 1 1.04934 9.97759 12.7372 18
826 1 13.0401 -9.22289 -7.09643 12
827 1 6.33975 4.46164 -19.181 11
828 1 -1.72117 -8.1487 -3.11097 19
829 1 11.619 5.17254 -7.69974 19
830 1 15.1486 0.13019 -1.68298 17
831 1 2.04271 -5.58789 11.983 20
832 1 -2.14163 -8.23499 -9.59772 20
833 1 9.00125 16.0592 -3.1858 12
834 1 2.43371 -7.9446 8.42974 21
835 1 -13.4269 8.16172 1.30961 19
836 1 13.6621 3.64175 -4.80804 19
837 1 15.3457 5.6543 3.18361 18
838 1 3.49387 -5.76303 -11.9951 15
839 1 -6.9442 15.4137 5.41851 11
840 1 13.8957 7.60877 6.37844 17
841 1 10.6521 13.9475 -5.75757 17
842 1 8.02908 -1.50412 -16.0553 11
843 1 9.41973 -5.78745 -1.21633 24
844 1 -10.0373 5.58028 -2.41409 19
845 1 9.97682 8.17698 4.40005 22
846 1 -13.3616 -8.98311 -1.4077 12
847 1 -7.7721 7.99804 -11.4637 10
848 1 6.67903 6.4079 7.60858 19
849 1 -14.9918 -0.0470086 -7.19519 12
850 1 -17.1355 6.19745 3.94546 7
851 1 0.722485 3.92271 -7.90889 20
852 1 9.34967 -5.27751 -12.8738 18
853 1 -11.2445 -7.21304 -5.81471 16
854 1 14.2505 -8.19947 -3.79946 15
855 1 -13.5805 6.69616 -6.63176 12
856 1 -10.8153 -1.31392 -7.03584 20
857 1 9.33779 10.4677 7.34699 20
858 1 -6.12679 -10.9254 7.75307 13
859 1 9.67509 1.97723 15.2189 12
860 1 17.8291 -0.170364 6.02565 10
861 1 9.11649 -0.229885 5.44719 20
862 1 -9.16949 5.33222 0.675263 20
863 1 2.71663 12.4173 10.9173 18
864 1 5.8831 9.64804 -8.15816 20
865 1 -2.9971 -10.2768 -13.6793 15
866 1 -2.99509 14.8265 3.03686 18
867 1 -10.0528 -12.2196 5.2972 13
868 1 9.24658 11.5243 -5.65674 18
869 1 -2.42326 13.797 14.3492 13
870 1 14.822 0.0343894 -7.94572 15
871 1 6.10133 -7.85116 7.23825 16
872 1 0.112149 12.7293 -13.3402 9
873 1 6.38798 11.3597 -6.54906 21