ITEM: TIMESTEP
3000
ITEM: NUMBER OF ATOMS
500
ITEM: BOX BOUNDS pp pp pp
-30.0 30.0
-30.0 30.0
-30.0 30.0
ITEM: ATOMS id type x y z Coordination
1 1 2.89177 0.317938 9.88799 13
2 1 3.25696 8.70639 10.3671 5
3 1 -1.22361 -2.92423 -11.1204 9
4 1 -9.67632 1.05162 1.01779 11
5 1 -0.137336 3.49807 -10.2347 13
6 1 6.74122 -6.15241 -5.70719 9
7 1 7.43867 1.84878 6.92598 15
8 1 3.1053 6.21267 8.1778 15
9 1 -8.42388 -1.12592 2.27943 18
10 1 8.03499 -1.77405 -1.23866 17
11 1 5.77448 0.624896 8.78991 12
12 1 -9.30728 -4.33554 2.88237 12
13 1 -3.70205 -6.93467 -7.72823 9
14 1 5.64182 -1.3038 -6.15705 16
15 1 6.19975 -8.51704 2.75352 9
16 1 -3.92776 8.61714 6.2567 11
17 1 0.535758 9.9946 2.71577 15
18 1 1.81299 -4.51434 -12.0651 8
19 1 -0.569369 3.99913 7.20621 16
20 1 -3.60734 6.46691 3.75094 19
21 1 5.11114 4.72471 -6.29642 16
22 1 7.08557 9.31342 -1.35138 11
23 1 -0.933529 7.28456 -4.55361 18
24 1 -4.07269 3.54576 -7.23768 16
25 1 -2.156 9.40344 -3.33557 12
26 1 -8.51965 3.88512 0.00324841 18
27 1 0.498984 7.38245 7.98748 12
28 1 -3.31421 2.38807 -9.5919 14
29 1 -5.01712 -7.51203 5.42975 14
30 1 8.76426 -8.14206 -2.90846 9
31 1 -7.91734 -0.103465 -6.21047 12
32 1 0.684453 -10.3609 1.78416 14
33 1 7.59673 3.82506 -4.95055 15
34 1 -5.397 -8.21787 -5.10297 11
35 1 2.15469 6.0061 -9.49693 13
36 1 -0.924828 10.4012 -0.126766 13
37 1 -7.92581 1.36464 4.55873 14
38 1 2.16597 9.24415 5.69218 12
39 1 4.55178 -3.21117 9.17481 12
40 1 2.74688 -7.53283 -1.20517 18
41 1 7.83911 -2.5828 -4.79011 17
42 1 7.73876 -3.67411 3.62806 17
43 1 4.76957 -3.93315 5.50116 15
44 1 4.04374 10.7303 -2.61836 10
45 1 -6.96781 -6.97772 2.96314 14
46 1 -2.00047 -11.0062 -0.356324 10
47 1 -3.42354 -2.47696 8.61142 16
48 1 -7.33324 0.615384 7.28291 13
49 1 3.98807 -10.0873 -2.50614 13
50 1 -8.41206 -2.05061 5.22046 14
51 1 -2.83266 9.74385 2.76849 14
52 1 -6.03791 5.76984 5.58345 17
53 1 -3.21242 3.51712 8.91597 13
54 1 -8.07702 -3.15024 -5.85963 10
55 1 -7.09515 6.60073 -1.18313 15
56 1 -6.9019 -4.91684 -4.49856 14
57 1 7.71714 -1.36244 8.39635 9
58 1 -0.506004 -4.52483 8.58063 12
59 1 -3.32043 -0.582604 -9.86608 12
60 1 -9.58958 -1.12181 -3.5756 13
61 1 -2.42937 -8.19821 0.810676 17
62 1 -5.71082 6.33873 8.50903 11
63 1 2.03306 -8.29183 -6.80252 8
64 1 -0.798191 7.94176 4.85128 18
65 1 -9.98698 2.13178 -4.68109 8
66 1 -9.65633 5.2366 -2.93845 12
67 1 -2.34335 -7.90845 -4.92407 13
68 1 3.11756 -7.88744 4.91214 14
69 1 -6.15488 6.08521 -6.90322 10
70 1 -2.46352 0.638823 10.4253 11
71 1 -8.3863 4.16187 6.54726 9
72 1 -4.00587 19.8385 -15.9905 0
73 1 0.409081 -7.52895 7.02836 15
74 1 5.98601 -7.49738 -1.92759 18
75 1 11.388 4.13751 -0.063331 8
76 1 2.41242 0.621716 -9.56043 18
77 1 9.21261 -6.70835 2.77352 10
78 1 -6.75232 -6.45566 -2.35006 16
79 1 -5.58595 -2.16978 6.83969 19
80 1 8.30166 4.28154 5.0393 12
81 1 8.64815 6.43342 0.175329 12
82 1 1.92422 3.54825 -7.97481 21
83 1 -0.815683 7.54349 -7.63084 13
84 1 2.39422 9.49202 -0.249391 14
85 1 4.17789 2.9574 -9.90654 9
86 1 2.41465 -7.65859 2.07721 17
87 1 8.77047 -8.07565 -0.488188 14
88 1 0.57436 -11.6882 -1.56298 8
89 1 -6.95767 2.86921 -5.98224 12
90 1 9.79773 -3.81059 1.10763 14
91 1 -4.02932 7.9506 -5.73028 12
92 1 3.24918 -7.19221 -4.21296 18
93 1 -4.79561 -5.56944 7.52877 10
94 1 1.07368 -9.62508 -4.0562 14
95 1 3.09392 -5.49104 -8.66707 8
96 1 3.96584 -10.2166 0.793671 12
97 1 -4.36393 -4.56591 -6.01966 19
98 1 1.78304 -2.14438 8.78945 17
99 1 -0.299249 1.3373 9.23025 15
100 1 4.12166 -0.74877 -11.2297 10
101 1 4.37241 7.68392 -1.788 18
102 1 7.25914 0.750556 -6.47736 11
103 1 -0.455814 0.741535 -10.9369 12
104 1 -8.05889 4.46691 3.08203 14
105 1 2.49142 -5.02109 7.09918 16
106 1 -5.96144 0.781586 -8.5165 14
107 1 11.1117 -6.20379 -0.236914 10
108 1 5.29624 4.52237 6.87406 16
109 1 0.318642 -9.96281 5.01301 13
110 1 10.6335 1.41522 1.46376 10
111 1 8.18896 7.6599 4.12081 8
112 1 -1.22394 -5.71578 -7.24886 12
113 1 4.82621 7.86081 5.09236 16
114 1 -3.41348 5.87625 -8.88016 11
115 1 -4.36753 -8.98588 -2.04613 13
116 1 -9.83661 6.25919 0.365861 9
117 1 7.14553 6.69594 -2.97833 14
118 1 3.39221 3.03492 9.56037 8
119 1 1.38223 -1.92987 -11.045 15
120 1 5.2201 10.7211 0.194595 10
121 1 2.78601 -1.84079 -7.81445 18
122 1 6.22273 -6.43109 4.44423 10
123 1 -5.80422 3.36092 7.83669 14
124 1 8.74862 -0.709567 4.94416 14
125 1 1.44832 9.5314 -3.68977 14
126 1 8.13732 3.65261 -1.40662 18
127 1 -0.831346 -2.10543 10.5279 11
128 1 -2.08367 -6.10579 6.28413 19
129 1 -6.91327 7.57316 1.49157 12
130 1 7.21545 8.64921 2.02302 11
131 1 -6.9503 -4.63339 5.25105 14
132 1 8.50058 -0.709122 2.26273 16
133 1 -5.64033 -7.05129 0.410133 17
134 1 7.51486 1.85672 3.48873 20
135 1 7.41899 -4.87161 -2.98086 18
136 1 3.58167 9.05266 2.65146 15
137 1 -8.61751 -2.20361 -0.322348 18
138 1 2.07659 6.46883 -6.28856 15
139 1 -5.52712 -1.9804 -6.66052 15
140 1 4.72091 -3.59577 -11.8891 7
141 1 -1.44528 -9.09771 -2.22806 15
142 1 -1.97312 -9.1302 3.86234 16
143 1 9.86173 -4.94515 -2.28191 15
144 1 -10.1056 2.05787 -1.8935 12
145 1 -0.430042 6.90301 -10.5941 7
146 1 -9.41019 -4.07336 -2.67302 14
147 1 5.66397 -1.12729 6.69866 20
148 1 -3.42326 -4.11992 -9.3594 8
149 1 -5.6797 9.09504 4.10551 10
150 1 -5.29151 -0.180986 9.12058 12
151 1 8.7247 4.66572 1.87164 16
152 1 10.3756 1.45881 -1.65276 9
153 1 -2.44625 -9.00037 6.74462 11
154 1 4.5516 1.21476 -7.72722 17
155 1 7.44958 6.61164 -6.53446 7
156 1 5.27979 8.13952 7.6545 10
157 1 4.21657 7.65054 -4.6377 16
158 1 9.5693 0.820212 -5.05253 10
159 1 7.35084 -5.18604 0.30916 21
160 1 -2.67327 6.29414 7.31938 17
161 1 -3.41421 9.20562 -0.725325 11
162 1 -4.66346 -9.85682 3.66735 8
163 1 6.53251 -10.181 -0.284053 9
164 1 -8.53713 -5.86242 0.125553 14
165 1 -6.71615 7.69142 -3.99383 10
166 2 -8.32413 -0.205813 5.74917 12
167 2 7.4969 3.79254 3.37479 16
168 2 -10.2099 3.39491 -3.31473 9
169 2 -3.52138 -9.59128 5.10008 12
170 2 4.5102 1.44233 9.95179 10
171 2 -4.811 4.50518 8.95211 10
172 2 7.01127 -4.27155 -4.93705 13
173 2 -2.74036 2.18947 -7.20334 19
174 2 3.08944 -2.97033 -12.5599 8
175 2 -3.97147 9.9067 4.20885 11
176 2 7.39607 -1.42414 4.01762 16
177 2 5.21484 9.49996 -1.65908 14
178 2 2.0505 9.80411 3.85 13
179 2 6.94043 9.81791 0.558256 9
180 2 4.08802 6.30192 -6.07093 18
181 2 4.1905 1.16347 -9.83115 12
182 2 -5.49643 1.86374 -6.92875 16
183 2 -0.546968 -9.35675 6.5684 13
184 2 -8.58785 0.915021 2.68485 16
185 2 4.68583 -6.22027 -5.43009 16
186 2 -0.120067 -11.0565 0.0646596 11
187 2 0.64351 8.36055 6.46564 14
188 2 6.00555 -4.51056 4.14506 15
189 2 -5.6683 -8.12312 3.68062 13
190 2 -1.17655 -10.9154 -2.15132 11
191 2 -7.52373 -5.18404 3.41666 16
192 2 -3.16279 -9.61401 -0.833274 12
193 2 -5.71359 -7.60771 -1.5179 16
194 2 -2.75999 10.2016 0.7272 13
195 2 7.59224 7.55404 -1.22677 14
196 2 0.536373 5.44181 -10.4565 10
197 2 8.05668 1.76554 -0.979905 17
198 2 -1.08971 9.01462 3.02194 16
199 2 -4.26506 7.62998 7.84487 9
200 2 0.889056 9.78309 0.849348 16
201 2 2.10856 7.65655 -4.62956 17
202 2 -0.662333 5.84156 7.71758 12
203 2 4.60041 -4.23115 7.61716 13
204 2 5.36415 -2.15853 -10.889 7
205 2 2.33949 -8.84897 -5.17022 10
206 2 -8.30879 -5.3161 -1.71198 16
207 2 8.82518 -3.32383 -1.85088 13
208 2 8.15896 6.99276 2.15764 12
209 2 -0.391452 -1.09192 -11.2236 10
210 2 2.54771 -1.21288 -9.98352 18
211 2 -4.72982 -8.15967 -6.84209 8
212 2 2.25056 -3.78193 -7.84709 14
213 2 8.04533 -0.924296 -5.80394 13
214 2 0.450008 -3.62197 -11.1885 9
215 2 2.07573 -6.6294 -7.41288 11
216 2 -0.275148 3.41066 -7.97645 21
217 2 -7.38341 -7.06128 1.06021 14
218 2 -6.01034 6.29041 0.354248 18
219 2 -5.53227 -5.67296 5.80307 13
220 2 -9.8246 0.630264 -3.40239 9
221 2 4.69983 -7.756 3.78573 12
222 2 4.19422 9.28942 6.18739 11
223 2 -0.143832 -1.81919 8.78517 18
224 2 -7.62137 4.90776 4.8764 10
225 2 -6.5275 -0.706138 -7.43122 12
226 2 10.8938 2.36157 -0.158188 11
227 2 -9.16343 -2.54404 3.51119 14
228 2 -4.43528 6.82631 -7.38367 11
229 2 1.17163 1.86093 -10.4003 15
230 2 -9.57567 5.07201 -1.05349 11
231 2 7.75927 -6.96942 -3.88567 12
232 2 2.03905 -10.6383 -2.46786 13
233 2 -7.05869 8.58258 2.96 7
234 2 2.38169 -9.63635 1.43078 15
235 2 4.01469 7.63529 9.11699 8
236 2 -1.50106 9.33595 -1.58849 15
237 2 -0.651704 -5.91237 7.44009 15
238 2 1.50932 7.2253 -8.14259 13
239 2 3.56786 -1.62098 9.25471 15
240 2 7.69335 4.69304 0.155476 17
241 2 6.24738 8.31542 3.9379 12
242 2 -8.58416 -4.21225 0.975978 17
243 2 1.65678 7.93353 9.35179 7
244 2 5.98619 -1.62477 8.66082 12
245 2 3.31752 4.32942 -9.18243 16
246 2 3.598 4.46663 8.38812 10
247 2 9.9088 -7.25411 0.976812 12
248 2 -8.34704 -1.49733 -5.07665 13
249 2 -5.67564 6.51717 -2.63864 15
250 2 -5.73849 4.24599 -6.19273 14
251 2 -1.72347 -7.37505 4.85232 19
252 2 2.23611 9.98836 -1.94025 15
253 2 -6.05721 -3.55681 -5.81814 16
254 2 9.22423 -2.4301 2.54549 9
255 2 -8.35512 7.38893 0.0922397 12
256 2 10.0394 -6.89519 -1.76579 12
257 2 -3.53866 -7.30812 6.87895 14
258 2 -6.72345 -6.84517 -4.57821 11
259 2 -0.400545 9.3257 -4.17867 12
260 2 -5.04358 7.33691 4.78565 16
261 2 1.32789 -3.87815 8.14128 17
262 2 -9.39261 4.98174 1.80219 11
263 2 -2.08614 2.18772 9.32541 13
264 2 -8.5031 1.7279 -5.85992 11
265 2 4.03971 9.49083 -4.19293 10
266 2 -2.6166 4.23377 7.19358 17
267 2 -2.84553 -2.50365 -9.95613 8
268 2 -2.75106 -6.61377 -6.16627 14
269 2 5.48264 0.875309 6.87516 19
270 2 10.2127 5.29197 0.624049 9
271 2 1.99223 -9.41977 5.16158 12
272 2 5.03082 6.34803 7.10694 13
273 2 -5.22899 1.45312 8.14164 15
274 2 -8.84401 -4.25108 -4.47851 11
275 2 -8.20398 2.31024 6.12725 11
276 2 -6.54322 -2.60106 5.26326 20
277 2 -0.533574 -8.3606 -3.88705 14
278 2 1.82789 1.54865 8.98148 16
279 2 -1.72269 6.55924 -9.1108 12
280 2 6.91561 4.74083 -6.53197 9
281 2 2.9453 -5.43365 -10.7421 8
282 2 7.90975 0.70517 8.45076 11
283 2 7.02988 3.68188 6.59329 15
284 2 -0.832577 6.38409 -6.27102 17
285 2 -4.3768 -4.64788 -7.8266 12
286 2 -2.5395 7.55251 5.46301 20
287 2 -2.8588 7.64728 -4.12162 16
288 2 -5.97592 7.43873 -5.53477 9
289 2 -6.7299 5.10846 7.3321 9
290 2 2.49425 1.52938 -7.70067 20
291 2 4.39203 -0.885647 -7.40169 18
292 2 -8.07369 6.58119 -3.55424 10
293 2 -1.60855 2.02897 -10.3184 11
294 2 8.31762 -4.98779 1.80722 15
295 2 -3.4543 -0.63351 9.50163 15
296 2 -6.65612 -1.13511 8.17532 12
297 2 7.44101 -7.19398 3.22469 10
298 2 -8.97774 2.16321 -0.368318 15
299 2 -0.846258 -0.0671345 10.7468 11
300 2 -0.241601 -10.2133 3.24141 14
301 2 8.77295 1.17916 2.01342 15
302 2 4.30979 -8.29996 -2.1531 15
303 2 -2.91568 7.02041 2.12308 21
304 2 -4.31607 0.902987 -9.38567 13
305 2 -4.75492 -3.77206 7.82611 15
306 2 2.25706 -6.90664 6.78959 13
307 2 5.72364 0.617909 -5.81442 19
308 2 8.29957 6.11399 5.09137 11
309 2 8.55202 -1.62771 6.72265 10
310 2 7.38763 -1.04546 -2.85908 19
311 2 7.32332 -8.72345 -1.38039 13
312 2 7.41392 4.13298 -3.0651 16
313 2 -9.22941 -2.32012 -2.08669 12
314 2 -9.20997 -0.689801 0.648447 15
315 2 5.97802 -9.57315 1.30234 10
316 2 7.49223 6.97159 -4.77654 11
317 2 9.99031 0.991085 -3.34191 10
318 2 5.15803 6.46305 -2.92001 19
319 2 10.8253 -4.36849 -0.369465 11
320 2 4.74428 -10.6381 -0.762072 10
321 2 -2.20948 -5.34701 -8.64713 9
322 2 3.94397 9.71645 0.868644 16
323 2 3.11287 6.95317 5.12336 19
324 2 -3.23555 -9.38987 2.35947 12
325 2 -1.97606 -3.5253 9.02764 14
326 2 8.35547 1.27595 5.22982 15
327 2 8.40256 2.12489 -5.5174 10
328 2 -4.03307 4.18256 -9.12694 12
329 2 -3.65197 -8.53892 -3.67486 15
330 2 7.7522 -6.32011 -1.13357 18
331 1 -5.79911 -1.18911 -2.84 19
332 1 -6.56589 -3.99411 -1.195 21
333 1 -0.189113 -6.79911 -2.84 17
334 1 -0.189113 -1.18911 -6.13 16
335 1 -2.99411 -1.95589 -4.485 18
336 1 -0.955887 -3.99411 -4.485 18
337 1 -3.76089 -4.76089 -2.84 20
338 1 -0.189113 -1.18911 -2.84 21
339 1 -2.99411 -1.95589 -1.195 21
340 1 -0.955887 -3.99411 -1.195 21
341 2 -5.79911 -4.76089 -2.84 18
342 2 -6.56589 -1.95589 -1.195 20
343 2 -0.955889 -7.56589 -1.195 20
344 2 -3.76089 -1.18911 -6.13 19
345 2 -0.189111 -4.76089 -6.13 14
346 2 -2.99411 -3.99411 -4.485 19
347 2 -0.955889 -1.95589 -4.485 18
348 2 -3.76089 -1.18911 -2.84 19
349 2 -0.189111 -4.76089 -2.84 20
350 2 -2.99411 -3.99411 -1.195 19
351 2 -0.955889 -1.95589 -1.195 21
352 1 -5.79911 -1.18911 0.45 21
353 1 -6.56589 -3.99411 2.095 21
354 1 -5.79911 -1.18911 3.74 21
355 1 -0.189113 -6.79911 0.45 20
356 1 -0.189113 -6.79911 3.74 22
357 1 -3.76089 -4.76089 0.45 18
358 1 -0.189113 -1.18911 0.45 21
359 1 -2.99411 -1.95589 2.095 21
360 1 -0.955887 -3.99411 2.095 21
361 1 -3.76089 -4.76089 3.74 21
362 1 -0.189113 -1.18911 3.74 21
363 1 -2.99411 -1.95589 5.385 19
364 1 -0.955887 -3.99411 5.385 20
365 1 -0.189113 -1.18911 7.03 22
366 2 -5.79911 -4.76089 0.45 22
367 2 -6.56589 -1.95589 2.095 22
368 2 -3.76089 -6.79911 0.45 17
369 2 -0.955889 -7.56589 2.095 18
370 2 -3.76089 -1.18911 0.45 21
371 2 -0.189111 -4.76089 0.45 21
372 2 -2.99411 -3.99411 2.095 18
373 2 -0.955889 -1.95589 2.095 21
374 2 -3.76089 -1.18911 3.74 21
375 2 -0.189111 -4.76089 3.74 20
376 2 -2.99411 -3.99411 5.385 21
377 2 -0.955889 -1.95589 5.385 18
378 2 -3.76089 -1.18911 7.03 18
379 1 -5.79911 4.42089 -2.84 18
380 1 -6.56589 1.61589 -1.195 18
381 1 -0.955887 1.61589 -7.775 21
382 1 -3.76089 0.849113 -6.13 20
383 1 -0.189113 4.42089 -6.13 19
384 1 -2.99411 3.65411 -4.485 18
385 1 -0.955887 1.61589 -4.485 21
386 1 -3.76089 0.849113 -2.84 19
387 1 -0.189113 4.42089 -2.84 20
388 1 -2.99411 3.65411 -1.195 21
389 1 -0.955887 1.61589 -1.195 21
390 1 -3.76089 6.45911 -2.84 20
391 1 -0.955887 7.22589 -1.195 22
392 2 -5.79911 0.849111 -2.84 14
393 2 -6.56589 3.65411 -1.195 18
394 2 -0.189111 0.849111 -6.13 18
395 2 -2.99411 1.61589 -4.485 19
396 2 -0.955889 3.65411 -4.485 20
397 2 -3.76089 4.42089 -2.84 18
398 2 -0.189111 0.849111 -2.84 21
399 2 -2.99411 1.61589 -1.195 21
400 2 -0.955889 3.65411 -1.195 21
401 2 -0.189111 6.45911 -2.84 21
402 2 -2.99411 7.22589 -1.195 19
403 1 -5.79911 4.42089 0.45 21
404 1 -6.56589 1.61589 2.095 20
405 1 -3.76089 0.849113 0.45 21
406 1 -0.189113 4.42089 0.45 21
407 1 -2.99411 3.65411 2.095 20
408 1 -0.955887 1.61589 2.095 21
409 1 -3.76089 0.849113 3.74 19
410 1 -0.189113 4.42089 3.74 20
411 1 -2.99411 3.65411 5.385 19
412 1 -0.955887 1.61589 5.385 20
413 1 -3.76089 0.849113 7.03 21
414 1 -3.76089 6.45911 0.45 19
415 1 -0.955887 7.22589 2.095 21
416 2 -5.79911 0.849111 0.45 23
417 2 -6.56589 3.65411 2.095 18
418 2 -5.79911 0.849111 3.74 19
419 2 -3.76089 4.42089 0.45 20
420 2 -0.189111 0.849111 0.45 21
421 2 -2.99411 1.61589 2.095 21
422 2 -0.955889 3.65411 2.095 22
423 2 -3.76089 4.42089 3.74 18
424 2 -0.189111 0.849111 3.74 21
425 2 -2.99411 1.61589 5.385 18
426 2 -0.955889 3.65411 5.385 17
427 2 -0.189111 0.849111 7.03 19
428 2 -0.189111 6.45911 0.45 21
429 2 -0.189111 6.45911 3.74 18
430 1 1.84911 -4.76089 -6.13 17
431 1 2.61589 -1.95589 -4.485 21
432 1 4.65411 -3.99411 -4.485 17
433 1 1.84911 -4.76089 -2.84 20
434 1 5.42089 -1.18911 -2.84 21
435 1 2.61589 -1.95589 -1.195 21
436 1 4.65411 -3.99411 -1.195 19
437 2 1.84911 -6.79911 -2.84 19
438 2 1.84911 -1.18911 -6.13 20
439 2 2.61589 -3.99411 -4.485 20
440 2 4.65411 -1.95589 -4.485 20
441 2 1.84911 -1.18911 -2.84 21
442 2 5.42089 -4.76089 -2.84 21
443 2 2.61589 -3.99411 -1.195 21
444 2 4.65411 -1.95589 -1.195 21
445 1 1.84911 -4.76089 0.45 21
446 1 5.42089 -1.18911 0.45 20
447 1 2.61589 -1.95589 2.095 21
448 1 4.65411 -3.99411 2.095 19
449 1 1.84911 -4.76089 3.74 19
450 1 5.42089 -1.18911 3.74 21
451 1 2.61589 -1.95589 5.385 22
452 2 1.84911 -6.79911 0.45 18
453 2 1.84911 -6.79911 3.74 19
454 2 1.84911 -1.18911 0.45 21
455 2 5.42089 -4.76089 0.45 15
456 2 2.61589 -3.99411 2.095 20
457 2 4.65411 -1.95589 2.095 21
458 2 1.84911 -1.18911 3.74 21
459 2 2.61589 -3.99411 5.385 19
460 2 4.65411 -1.95589 5.385 19
461 2 1.84911 -1.18911 7.03 21
462 2 7.45911 -1.18911 0.45 17
463 1 1.84911 0.849113 -6.13 21
464 1 2.61589 3.65411 -4.485 20
465 1 4.65411 1.61589 -4.485 23
466 1 1.84911 0.849113 -2.84 21
467 1 5.42089 4.42089 -2.84 21
468 1 2.61589 3.65411 -1.195 21
469 1 4.65411 1.61589 -1.195 21
470 1 1.84911 6.45911 -2.84 22
471 1 7.45911 0.849113 -2.84 21
472 2 1.84911 4.42089 -6.13 20
473 2 2.61589 1.61589 -4.485 20
474 2 4.65411 3.65411 -4.485 17
475 2 1.84911 4.42089 -2.84 21
476 2 5.42089 0.849111 -2.84 20
477 2 2.61589 1.61589 -1.195 21
478 2 4.65411 3.65411 -1.195 20
479 2 2.61589 7.22589 -1.195 19
480 1 1.84911 0.849113 0.45 21
481 1 5.42089 4.42089 0.45 16
482 1 2.61589 3.65411 2.095 21
483 1 4.65411 1.61589 2.095 21
484 1 1.84911 0.849113 3.74 21
485 1 5.42089 4.42089 3.74 20
486 1 2.61589 3.65411 5.385 18
487 1 4.65411 1.61589 5.385 20
488 1 1.84911 0.849113 7.03 21
489 1 1.84911 6.45911 0.45 20
490 1 1.84911 6.45911 3.74 19
491 1 7.45911 0.849113 0.45 19
492 2 1.84911 4.42089 0.45 21
493 2 5.42089 0.849111 0.45 22
494 2 2.61589 1.61589 2.095 21
495 2 4.65411 3.65411 2.095 18
496 2 1.84911 4.42089 3.74 18
497 2 5.42089 0.849111 3.74 24
498 2 2.61589 1.61589 5.385 18
499 2 4.65411 3.65411 5.385 19
500 2 2.61589 7.22589 2.095 17
