ITEM: TIMESTEP
32000
ITEM: NUMBER OF ATOMS
500
ITEM: BOX BOUNDS pp pp pp
-30.0 30.0
-30.0 30.0
-30.0 30.0
ITEM: ATOMS id type x y z Coordination
1 1 -8.95026 -12.2768 -13.9252 16
2 1 3.56554 -16.1881 -3.07232 15
3 1 -5.47105 -6.96622 2.54937 8
4 1 2.96653 -13.0064 -1.73079 16
5 1 -11.4884 -8.58358 -7.17613 23
6 1 -5.15938 -14.5466 -17.6774 10
7 1 -5.57905 -13.6595 -0.244529 20
8 1 -0.194694 -18.9624 -10.7751 16
9 1 -15.2672 -11.7086 -3.54183 9
10 1 2.53033 -8.69752 -15.791 11
11 1 2.54759 -17.3254 -9.90789 18
12 1 0.509104 -10.9789 -2.28489 21
13 1 2.64754 -4.16075 -12.6119 10
14 1 -2.37843 -9.05291 -2.20946 19
15 1 -2.93457 -8.17353 1.65995 14
16 1 -9.89358 -13.5795 -3.67112 20
17 1 -13.7452 -14.5337 -4.56722 16
18 1 5.35998 -12.3501 -9.05149 13
19 1 -0.468857 -13.5094 3.06329 10
20 1 -14.1779 -17.6792 -2.8491 11
21 1 -7.47209 -19.9085 -15.6872 8
22 1 0.678848 -11.2868 -12.1385 21
23 1 1.85056 -14.1164 -13.2815 17
24 1 1.54489 -21.1857 -2.06256 8
25 1 -8.51192 -6.18055 -3.94252 19
26 1 -0.0375028 -13.9235 -0.057481 21
27 1 -2.00137 -5.94626 -7.40121 21
28 1 -2.44604 -16.435 -16.6155 13
29 1 -4.77807 -8.0349 -0.496968 20
30 1 -0.508805 -13.9545 -3.5264 19
31 1 -10.1677 -2.81594 -7.00048 12
32 1 -10.1242 -5.23158 -10.1325 17
33 1 1.7965 -6.4486 -14.4387 12
34 1 2.84617 -4.00675 -9.2224 13
35 1 -5.42283 -5.0478 -12.1426 19
36 1 -10.9271 -9.12838 -13.5475 14
37 1 -7.54531 -3.64686 -8.58892 21
38 1 -2.30958 -6.37249 -10.4958 17
39 1 -13.7477 -6.60149 -6.42841 13
40 1 -1.91889 -5.13879 1.71016 11
41 1 -8.60816 -9.29736 -14.8657 11
42 1 -11.4375 -16.3522 -1.90488 20
43 1 -10.5793 -16.7996 -8.23577 23
44 1 0.806901 -19.1934 -7.38826 17
45 1 -11.4453 -13.8461 2.53348 10
46 1 -11.2459 -11.212 -7.97357 20
47 1 -7.25135 -23.4688 -3.64376 12
48 1 3.54867 -9.18866 -12.9275 18
49 1 -10.5662 -19.5126 -13.4835 9
50 1 -0.75118 -10.1495 -17.4016 13
51 1 -4.99399 -19.6858 -6.73543 20
52 1 -4.83447 -2.04782 -7.4029 13
53 1 -13.8569 -9.15407 -5.2936 16
54 1 -2.00981 -4.33299 -1.83294 14
55 1 -2.71731 -13.7564 1.63526 17
56 1 -3.09445 -20.3844 -8.77235 19
57 1 4.07476 -11.7306 -13.7572 11
58 1 -10.0476 -19.6579 -6.60613 25
59 1 -6.9748 -20.4713 -5.07862 24
60 1 -1.27027 -16.5082 1.70797 15
61 1 -1.03184 -16.5854 -1.40565 23
62 1 0.534877 -2.59503 -7.42158 13
63 1 -14.3595 -20.5358 -4.85222 9
64 1 -8.58623 -23.656 -6.5258 12
65 1 -8.45034 -17.6038 -10.3455 22
66 1 -2.3201 -9.19414 -11.9406 18
67 1 0.420455 -16.7147 -5.01972 20
68 1 -7.53535 -14.997 -2.09014 19
69 1 -8.54214 -8.87061 0.977391 16
70 1 -2.8281 -23.2307 -7.04505 13
71 1 -7.3874 -17.6792 -3.54125 22
72 1 -2.20084 -11.6266 -0.530213 22
73 1 -12.4331 -12.8272 -2.14698 16
74 1 -7.28816 -3.34109 -5.56577 12
75 1 -11.2656 -8.04682 -4.01399 19
76 1 -7.73712 -5.76446 -0.795416 12
77 1 -13.2375 -17.5314 -9.31828 15
78 1 -11.8385 -11.2841 -11.0308 17
79 1 -8.56136 -17.263 -13.8364 17
80 1 1.93789 -16.5176 0.313875 13
81 1 -4.8106 -16.2905 1.95056 13
82 1 -7.47713 -14.7591 -15.2375 16
83 1 -14.7627 -12.4401 -10.0842 12
84 1 -9.88066 -22.3623 -8.9171 12
85 1 -10.5649 -7.84147 -0.96742 13
86 1 0.291156 -11.0645 1.3166 17
87 1 -7.35347 -6.37249 -10.1225 22
88 1 -2.48939 -20.091 -11.7083 13
89 1 -2.33727 -3.02269 -5.62483 12
90 1 0.686765 -8.52125 -10.7494 17
91 1 -13.8142 -12.5147 -13.5487 11
92 1 -14.464 -9.3194 -8.65821 16
93 1 -8.30442 -20.0158 -12.0271 15
94 1 -1.03306 -23.0643 -3.86745 12
95 1 -13.6878 -9.51245 -11.9269 13
96 1 -8.99303 -11.9144 2.56565 16
97 1 -10.1277 -10.7023 -2.10197 21
98 1 -0.538111 -18.2842 -13.6832 14
99 1 -4.7848 -16.9295 -2.00277 20
100 1 -6.88694 -17.6764 -0.311251 15
101 1 -0.195401 -21.6047 -8.10487 12
102 1 0.00892652 -8.31586 -6.8409 21
103 1 -11.1183 -10.9658 -5.04747 22
104 1 0.86579 -12.0951 -15.2417 15
105 1 -0.241208 -19.1858 0.28217 12
106 1 -11.0055 -19.4008 -10.154 18
107 1 -13.2991 -16.0499 0.0437858 10
108 1 1.82791 -5.21422 -1.78685 13
109 1 4.01095 -6.87498 -10.6958 15
110 1 -6.33527 -6.49453 -15.2502 10
111 1 -4.94991 -7.74504 -13.2243 20
112 1 -2.38716 -2.9089 -9.12076 18
113 1 -1.00747 -6.89799 -15.5162 13
114 1 -4.7415 -22.9899 -5.1156 16
115 1 3.70117 -18.9846 -4.81834 11
116 1 -4.32699 -23.0256 -1.91951 10
117 1 -11.4978 -11.6688 -15.5971 9
118 1 5.24775 -10.2607 -7.58692 15
119 1 -8.15182 -3.80069 -12.4546 11
120 1 2.38468 -17.8819 -12.9554 12
121 1 -10.8043 -16.6322 1.54247 9
122 1 -5.9612 -22.7366 -8.24226 14
123 1 -2.90925 -16.5469 -13.7612 19
124 1 1.26207 -5.08962 -6.23279 17
125 1 -1.90508 -20.5024 -5.49817 22
126 1 -11.5656 -16.8353 -11.9261 18
127 1 -5.85832 -13.324 3.34315 13
128 1 -5.97326 -10.195 1.31596 17
129 1 0.464472 -15.8041 -15.3782 15
130 1 -13.1495 -6.88884 -9.79565 14
131 1 0.289419 -5.68153 -8.90811 19
132 1 2.99978 -12.2144 -10.6972 21
133 1 -5.86001 -11.411 -15.2604 13
134 1 -13.2948 -9.76031 -1.67464 13
135 1 -3.49255 -18.4244 0.309618 13
136 1 3.43569 -10.4255 -0.607688 12
137 1 -11.3443 -14.6536 -13.5631 15
138 1 1.46996 -18.2446 -2.21784 18
139 1 -7.58325 -20.4347 -8.49284 20
140 1 2.67747 -13.153 1.21898 11
141 1 -6.52965 -20.9021 -1.61514 15
142 1 -3.12808 -14.4315 -1.74357 21
143 1 3.99713 -7.90682 -2.21275 11
144 1 6.08718 -16.3936 -4.86662 9
145 1 3.45168 -4.94923 -4.26341 10
146 1 -4.39919 -19.3542 -13.8928 11
147 1 1.41081 -7.79889 0.369273 12
148 1 -7.75097 -9.22861 -12.1215 21
149 1 -8.6834 -6.68365 -13.3132 16
150 1 -7.83419 -11.8586 -0.421906 21
151 1 -13.0323 -17.3589 -5.99047 21
152 1 -0.0763351 -7.35628 -3.83503 20
153 1 -9.11196 -6.1418 -7.03842 23
154 1 -12.6496 -4.14787 -7.74885 11
155 1 5.01953 -6.37892 -13.0478 8
156 1 -3.15947 -11.08 3.31066 13
157 1 -3.45247 -11.6966 -17.2371 14
158 1 -4.65702 -4.50468 0.274594 11
159 1 2.86289 -14.3723 -8.49659 21
160 1 -0.101337 -3.83263 -4.06085 14
161 1 -2.02462 -17.6088 -3.77428 22
162 1 -4.85847 -5.12616 -5.9053 18
163 1 -0.0922129 -16.3961 -11.9297 23
164 1 -2.40463 -20.7708 -1.95598 14
165 1 -2.96048 -10.9497 -13.9866 18
166 1 -7.61111 -8.64103 -2.04675 22
167 1 3.68488 -10.6629 -4.02789 17
168 1 -0.403964 -4.15809 -13.4634 11
169 1 5.56568 -9.82522 -11.0088 12
170 1 -7.99052 -14.7844 1.54775 16
171 1 -9.51306 -17.9212 -1.49308 14
172 1 -10.5528 -2.14508 -10.0609 9
173 1 -1.08097 -6.63741 -0.82617 18
174 1 -11.493 -19.5194 -3.80259 17
175 1 2.54687 -11.6311 -7.08359 22
176 1 -10.0488 -17.0186 -5.03727 21
177 1 5.35046 -13.4622 -3.32677 12
178 1 2.6562 -16.9643 -6.59316 17
179 1 -2.72559 -6.16721 -3.83563 21
180 1 -14.0263 -15.0123 -11.4964 12
181 1 -5.62025 -2.27267 -10.6513 13
182 1 -3.47921 -5.24449 -14.839 12
183 1 -10.931 -14.2237 -10.1483 20
184 1 -1.61056 -14.0137 -17.7496 12
185 1 -5.48015 -19.2534 -10.3647 17
186 1 -4.44421 -19.7429 -3.51127 22
187 1 4.94968 -13.1237 -5.75056 14
188 1 -13.5532 -11.9846 -6.5023 18
189 1 -3.41466 -8.67259 -15.8038 15
190 1 -13.4967 -20.4224 -7.68406 12
191 1 2.47349 -14.3118 -5.26016 21
192 1 -5.75132 -17.3005 -15.6784 15
193 1 -11.3717 -5.44159 -5.1324 13
194 1 -11.2889 -10.9207 0.599454 15
195 1 4.39053 -6.62876 -7.31548 12
196 1 2.55346 -9.15318 -9.04309 20
197 1 -9.09789 -21.2609 -3.37911 16
198 1 -0.342557 -9.61257 -14.4407 18
199 1 0.0822865 -2.90603 -10.7709 14
200 1 -0.337235 -8.54827 2.7686 8
201 1 -3.05474 -2.9167 -12.4778 11
202 1 2.72791 -8.50158 -5.44517 18
203 1 -10.0577 -13.6198 -0.24949 22
204 1 4.59771 -15.1009 -11.4642 11
205 1 -1.33494 -13.6268 -14.6963 21
206 1 -5.24137 -5.27192 -2.48886 15
207 1 -4.77507 -4.82364 -9.0123 21
208 1 -11.5803 -22.1704 -5.85598 12
209 1 1.26774 -20.8464 -4.91041 13
210 1 -13.3263 -14.7625 -8.04536 15
211 1 -10.5029 -8.6141 -10.5323 20
212 2 -12.4548 -15.3646 1.73251 9
213 2 3.27778 -5.79883 -5.91423 13
214 2 -2.82299 -16.6062 -2.08252 22
215 2 -5.99252 -13.7139 -15.9666 16
216 2 -12.3793 -10.2153 -6.40169 20
217 2 -10.6185 -20.942 -4.70549 17
218 2 -2.10281 -12.4388 2.96366 13
219 2 2.87751 -11.1582 -2.31229 16
220 2 -7.12771 -5.39055 -2.61804 15
221 2 -4.55132 -6.19818 -4.15558 20
222 2 0.15715 -20.1538 -9.11176 16
223 2 -7.55749 -10.6616 -14.1029 14
224 2 -1.56994 -17.229 -15.0256 16
225 2 -11.1925 -17.9961 -6.47299 23
226 2 -8.575 -4.9787 -5.59134 16
227 2 2.85352 -17.0018 -1.43665 12
228 2 1.44169 -4.22948 -8.13513 14
229 2 -3.95395 -4.58004 -1.64577 15
230 2 -0.421027 -3.50281 -5.96983 15
231 2 1.27816 -4.88759 -13.5797 11
232 2 0.469663 -13.9693 -14.6038 14
233 2 -13.1728 -11.4926 -14.8256 10
234 2 -4.67796 -21.0721 -2.25666 18
235 2 -12.3192 -11.3101 -1.00336 15
236 2 3.1261 -16.6458 -11.5284 13
237 2 -7.94252 -22.4388 -8.22831 13
238 2 0.877677 -14.639 -11.7671 21
239 2 -2.76734 -7.96306 -0.470808 21
240 2 -3.05223 -17.1145 1.62344 13
241 2 -10.5353 -17.7761 -3.16748 20
242 2 -5.45761 -23.6483 -3.4773 11
243 2 -13.2756 -21.6709 -6.09664 10
244 2 -10.2982 -22.9495 -6.99231 11
245 2 -9.9504 -20.3937 -8.63731 18
246 2 -8.40588 -2.6557 -7.3309 13
247 2 -1.31492 -11.4647 -14.6783 21
248 2 3.89334 -5.44088 -11.9024 12
249 2 -4.45447 -6.99787 -15.0923 13
250 2 -11.5876 -9.75945 -11.9775 16
251 2 4.11827 -8.71419 -4.06168 14
252 2 -3.02683 -2.58488 -7.44386 14
253 2 -10.5633 -6.22435 -3.62923 13
254 2 -2.53917 -5.18453 -9.15966 19
255 2 -1.23492 -3.12705 -12.1239 12
256 2 -5.70635 -6.17525 -0.548583 15
257 2 -4.59412 -14.4447 2.38784 14
258 2 1.00687 -10.3201 -16.1863 10
259 2 -2.00336 -19.1998 -10.2377 21
260 2 -4.78598 -17.3191 -13.8281 21
261 2 -13.6495 -16.5123 -7.76465 15
262 2 2.3369 -16.1553 -4.8446 18
263 2 1.62894 -4.47284 -3.71163 12
264 2 -4.22344 -10.3602 -16.0363 15
265 2 -3.54406 -13.6604 -17.8887 11
266 2 -10.0646 -20.2964 -11.6875 12
267 2 0.883423 -19.0533 -12.5705 13
268 2 4.00128 -13.4835 -12.7878 10
269 2 -13.6363 -16.3563 -4.24377 15
270 2 -0.983931 -14.983 -16.4463 14
271 2 -0.269368 -9.4853 -12.3592 17
272 2 -8.44455 -19.403 -14.0682 11
273 2 -4.75385 -11.9861 -13.8224 19
274 2 -5.78233 -9.06062 -1.88001 24
275 2 -13.3548 -19.151 -3.75819 12
276 2 -11.0202 -11.9467 -3.29452 22
277 2 -11.0467 -3.28014 -8.73072 12
278 2 -11.0652 -17.3623 -0.243815 11
279 2 -14.398 -11.2225 -8.42995 16
280 2 -2.42365 -19.6278 -3.58882 20
281 2 3.18379 -11.1543 -8.99332 19
282 2 -2.74463 -14.6851 -14.0064 20
283 2 -0.434526 -9.37071 -2.35336 18
284 2 -1.65715 -4.5908 0.0159112 12
285 2 -5.12326 -11.1769 2.7433 14
286 2 -11.5153 -8.91198 -1.93101 17
287 2 -10.8276 -15.0414 -11.801 20
288 2 3.74763 -5.6012 -8.92263 13
289 2 -14.1027 -13.3066 -3.05737 13
290 2 -8.67261 -5.56015 -11.7633 16
291 2 -1.63049 -8.33756 -16.7409 13
292 2 -13.4802 -5.69033 -8.30867 14
293 2 -0.461387 -14.7686 -1.79895 22
294 2 2.87619 -16.4043 -8.2675 15
295 2 -4.7158 -23.6237 -7.0348 12
296 2 -11.5581 -3.94417 -6.1933 13
297 2 -7.76569 -19.5986 -3.56742 23
298 2 -1.94662 -22.993 -5.37441 14
299 2 -1.37966 -6.92966 2.09014 12
300 2 -5.79427 -2.82404 -9.03099 16
301 2 -9.93522 -14.8647 1.32112 15
302 2 -8.07838 -19.6907 -6.9011 23
303 2 -7.85081 -13.2751 2.93399 15
304 2 0.710115 -7.7854 -15.2918 13
305 2 4.37766 -13.9439 -9.92969 13
306 2 -3.26801 -13.3073 -0.15277 18
307 2 -11.2359 -14.9608 -8.45492 21
308 2 -0.0362081 -6.26112 -6.71917 21
309 2 0.750692 -9.19115 1.46916 12
310 2 3.43497 -13.4864 -6.82437 21
311 2 -12.9959 -13.8545 -6.25598 17
312 2 -4.54742 -5.3999 1.94961 11
313 2 -1.01044 -14.6036 1.61805 19
314 2 -1.33969 -11.9827 -17.6235 11
315 2 2.32153 -10.7118 -5.27881 18
316 2 1.076 -12.6888 2.31809 11
317 2 0.0409424 -17.4266 -3.2908 19
318 2 -13.1612 -14.2341 -13.1102 14
319 2 -9.28073 -2.99651 -11.1326 10
320 2 -13.6972 -11.7718 -11.7015 13
321 2 -7.29621 -19.4058 -0.842233 14
322 2 -1.90233 -3.39505 -3.62075 12
323 2 -5.6046 -19.3516 -15.5726 8
324 2 5.31044 -11.8628 -4.43553 14
325 2 -11.3499 -6.80789 -10.1355 17
326 2 4.64063 -17.3612 -4.12007 12
327 2 -10.6793 -14.4418 -1.87149 20
328 2 -12.545 -19.3949 -8.94714 15
329 2 -3.81116 -2.63472 -10.547 15
330 2 -12.849 -7.13818 -4.83337 14
331 2 0.712226 -8.47739 -5.01297 20
332 2 -5.09872 -17.8967 0.0545056 13
333 2 -14.0681 -9.98356 -3.57785 15
334 2 -5.48285 -6.20409 -10.4219 22
335 2 -4.93615 -8.39807 1.43355 15
336 2 -10.7095 -12.3054 -9.95788 16
337 2 -0.253463 -2.62634 -9.09539 12
338 2 -8.30466 -7.69611 -0.621094 16
339 2 -5.65799 -11.5902 -0.445385 19
340 2 -7.35413 -16.6747 -15.17 16
341 2 -1.66013 -5.45716 -14.2872 14
342 2 -5.3063 -20.5749 -8.49236 20
343 2 -9.28675 -8.43152 -13.0017 15
344 2 1.844 -14.5726 0.208454 16
345 2 5.89155 -10.3574 -9.24519 11
346 2 -2.61715 -22.7188 -2.54902 12
347 2 1.84412 -12.0392 -13.3568 18
348 2 -2.08632 -9.57372 2.78868 11
349 2 -10.7785 -9.63076 -8.71118 22
350 2 -8.2728 -10.8307 -2.44175 24
351 2 -13.2266 -16.6604 -11.0669 16
352 2 -5.16468 -20.9895 -5.26921 21
353 2 -5.20944 -6.1904 -7.59441 21
354 2 -9.61302 -11.7821 -0.369298 20
355 2 -10.3594 -12.1335 -6.44875 20
356 2 -4.49261 -20.0059 -11.8473 14
357 2 -0.327782 -11.9341 -0.68756 22
358 2 -8.33375 -8.22131 -10.411 19
359 2 -6.50134 -5.88963 -13.4025 16
360 2 3.64862 -7.17211 -14.3479 12
361 2 -2.07151 -19.2362 -13.3067 13
362 2 3.58489 -12.2759 -0.159065 13
363 2 2.9661 -8.59341 -0.45619 12
364 2 -4.10133 -4.42948 -13.4431 15
365 2 -8.10796 -14.0436 -13.4528 19
366 2 -4.40752 -16.2888 -16.7668 15
367 2 -5.44698 -3.23257 -6.0879 13
368 2 -6.4856 -3.22635 -11.8103 14
369 2 -13.5553 -8.66052 -10.3364 14
370 2 -10.3404 -9.12697 0.483733 15
371 2 -3.28159 -8.84989 -13.5748 19
372 2 -2.14949 -16.1069 -11.8769 22
373 2 -14.5679 -8.24886 -7.07088 14
374 2 -7.74801 -7.56981 -15.3318 11
375 2 -0.105903 -17.2975 0.37907 16
376 2 -7.80525 -10.702 1.48469 16
377 2 -7.74562 -16.7797 -12.0108 21
378 2 -10.8903 -12.0059 2.21173 11
379 2 0.8491 -19.5389 -1.12967 12
380 2 -14.7402 -11.4759 -5.36335 12
381 2 -7.67091 -13.961 -0.381572 20
382 2 -7.73324 -22.1389 -2.40557 11
383 2 3.40641 -6.10968 -2.54508 11
384 2 -2.08214 -22.0497 -8.29849 13
385 2 -10.8866 -6.90838 -6.55222 22
386 2 -10.6649 -17.4394 -13.5604 15
387 2 -13.4718 -16.8065 -1.5616 11
388 2 -2.02727 -19.7935 -0.0884649 13
389 2 5.24886 -7.91497 -11.7596 10
390 2 3.4324 -10.1451 -14.6805 12
391 2 0.742465 -6.35398 -0.575605 16
392 2 -8.79057 -5.16674 -8.61899 20
393 2 3.49591 -14.2752 -2.82139 15
394 2 0.435779 -17.0239 -10.3638 20
395 2 -10.3459 -17.4323 -10.2416 20
396 2 1.2752 -16.6921 -13.9609 12
397 2 2.51363 -20.0835 -3.62131 11
398 2 5.66543 -12.1993 -7.21096 11
399 2 -0.0746442 -17.518 -6.98821 21
400 2 -3.08462 -10.8466 -2.05581 19
401 2 4.15058 -10.7312 -11.7716 16
402 2 -14.1064 -14.0356 -9.66597 15
403 2 -10.1969 -15.0629 -5.14572 19
404 2 0.354507 -21.7719 -3.64242 12
405 2 -0.356736 -6.97832 -10.2313 16
406 2 3.77952 -8.51088 -7.40402 16
407 2 1.93871 -3.49176 -10.9448 13
408 2 -7.91825 -16.7989 -2.03937 20
409 2 -3.09415 -19.5094 -6.88768 24
410 2 5.64721 -14.7074 -4.79895 11
411 2 -0.167519 -20.9051 -6.38807 17
412 2 -7.42653 -19.3941 -10.3238 19
413 2 -2.82007 -4.97467 -5.95846 20
414 2 -0.955638 -5.85299 -2.86086 20
415 2 -7.49382 -22.5335 -5.29296 16
416 2 -6.72488 -16.3079 1.53243 15
417 2 -7.43295 -7.85966 -3.94345 20
418 2 -0.41863 -12.0332 -3.61249 20
419 2 2.70497 -8.39879 -10.887 19
420 2 -10.3226 -10.283 -15.041 10
421 2 -13.8305 -19.0622 -6.54386 14
422 2 2.39982 -18.869 -6.23143 13
423 1 -4.86766 -13.8396 -14.1225 21
424 1 -8.52645 -14.9103 -11.9049 22
425 1 -5.71866 -16.5322 -12.3663 23
426 1 -5.81769 -14.017 -10.4674 21
427 1 -7.75879 -14.7329 -8.3325 19
428 1 -5.36549 -16.9733 -8.50398 21
429 2 -5.14526 -14.6531 -12.3777 23
430 2 -7.91219 -13.9557 -9.95899 20
431 2 -5.0713 -17.4747 -10.3704 22
432 2 -8.33407 -16.5877 -8.46733 23
433 2 -5.44671 -14.7516 -8.63909 21
434 1 -11.0329 -13.9727 -6.6091 22
435 1 -7.48618 -17.7424 -6.936 22
436 1 -5.38848 -13.771 -6.89586 23
437 1 -8.30012 -14.6455 -5.351 19
438 1 -4.7224 -16.7675 -5.4339 22
439 1 -4.91455 -13.9224 -3.64479 21
440 2 -7.49354 -13.533 -6.69071 22
441 2 -5.59953 -17.8921 -6.73492 22
442 2 -8.13921 -16.6893 -5.41891 23
443 2 -4.89944 -14.8686 -5.27366 22
444 2 -7.85082 -13.8159 -3.58502 20
445 2 -5.30908 -18.0264 -3.99882 22
446 2 -5.13701 -14.9275 -1.72849 20
447 1 -5.38546 -11.1263 -12.0214 19
448 1 -8.63085 -12.1126 -10.073 21
449 1 -4.79056 -8.26798 -10.0711 23
450 1 -8.07911 -9.17523 -8.64832 18
451 1 -5.53286 -11.1366 -8.61227 24
452 2 -10.6482 -13.1806 -14.48 11
453 2 -5.81814 -9.09401 -11.9583 20
454 2 -5.34791 -12.0606 -10.3946 19
455 2 -7.85591 -11.1496 -8.62644 21
456 2 -5.78275 -9.28968 -8.95251 20
457 1 -8.16792 -11.7562 -6.91466 23
458 1 -5.90894 -7.8117 -7.1719 20
459 1 -8.28481 -9.13218 -5.44652 21
460 1 -5.1959 -10.8655 -5.60306 19
461 1 -7.21087 -12.0561 -3.64137 21
462 1 -5.30221 -8.01018 -3.84316 20
463 1 -4.98045 -10.8888 -2.18329 19
464 2 -10.0493 -9.29913 -4.80433 23
465 2 -7.91687 -7.95534 -7.07911 20
466 2 -4.65859 -12.143 -7.00594 23
467 2 -7.15376 -10.707 -5.35879 23
468 2 -4.80697 -8.56215 -5.66571 20
469 2 -5.10496 -12.0544 -3.88359 21
470 1 -3.22395 -14.5667 -11.8717 19
471 1 -2.90751 -17.2163 -10.42 23
472 1 0.37008 -13.7259 -10.2495 18
473 1 -3.29207 -14.9112 -8.46628 23
474 1 -0.266302 -16.5245 -8.67186 23
475 2 -3.01829 -13.8593 -10.0726 19
476 2 -2.64231 -16.7255 -8.51115 20
477 2 0.560467 -14.5951 -8.45365 22
478 1 -2.06252 -17.7684 -6.88718 22
479 1 -0.310552 -13.7415 -6.91832 21
480 1 -2.77022 -14.6159 -5.4995 23
481 2 -2.47686 -13.8362 -7.22276 20
482 2 -2.59057 -16.8828 -5.3728 21
483 2 0.0504122 -14.771 -5.28831 19
484 2 -2.73547 -13.9651 -3.69043 23
485 1 -3.02552 -11.9567 -10.4136 21
486 1 -2.13469 -9.24981 -8.78516 19
487 1 0.0283134 -11.0454 -8.72956 20
488 2 -3.25593 -11.1479 -12.0344 20
489 2 -2.92806 -8.04918 -10.292 21
490 2 0.776797 -11.7959 -10.3757 20
491 2 -1.99469 -11.1955 -8.94759 20
492 2 0.520939 -9.24907 -8.80353 20
493 1 -2.66076 -11.8542 -7.086 20
494 1 -2.91732 -8.78075 -5.63366 21
495 1 0.253555 -10.704 -5.02852 19
496 1 -2.52342 -11.5936 -3.86801 21
497 2 -2.04402 -8.20101 -7.19192 24
498 2 0.526187 -11.8098 -6.92193 22
499 2 -2.64436 -10.8457 -5.5126 21
500 2 -2.63669 -7.98748 -3.89262 19
