ITEM: TIMESTEP
48000
ITEM: NUMBER OF ATOMS
500
ITEM: BOX BOUNDS pp pp pp
-30.0 30.0
-30.0 30.0
-30.0 30.0
ITEM: ATOMS id type x y z Coordination
1 1 -4.75686 20.4116 9.32028 13
2 1 -9.99225 24.0425 9.96698 12
3 1 -14.3175 17.8058 -7.6279 18
4 1 -20.9558 21.5214 -2.80445 11
5 1 -11.0488 22.9453 -9.18967 10
6 1 -3.43991 12.7979 -3.59259 10
7 1 -6.49749 17.8712 7.80945 16
8 1 -6.90923 25.6666 8.79406 11
9 1 -20.6072 17.9514 2.42847 16
10 1 -4.23692 18.3064 0.234882 23
11 1 -2.78304 22.1783 7.13805 10
12 1 -15.1933 10.9294 5.80797 12
13 1 -12.5589 14.5864 -7.19392 13
14 1 -2.52794 16.5666 -3.81136 13
15 1 -3.891 12.7361 3.34374 12
16 1 -17.7369 28.4107 6.70716 9
17 1 -11.2199 29.0108 0.811245 16
18 1 -11.6893 18.926 -9.35979 12
19 1 -12.7395 24.3341 7.93688 17
20 1 -15.3184 26.4914 3.75436 25
21 1 -8.38166 23.252 -7.25325 16
22 1 -13.3766 28.8147 -3.96879 16
23 1 -17.7591 26.2669 -4.97823 13
24 1 -13.9001 28.0026 -0.743785 21
25 1 -20.2365 23.6587 -0.943924 15
26 1 -10.04 26.4348 7.68782 10
27 1 -16.7833 23.2298 -6.15815 16
28 1 -17.8719 13.1368 4.71847 19
29 1 -6.29466 13.0741 -1.97567 18
30 1 -18.5502 21.5146 -4.23053 20
31 1 -6.47781 12.7665 1.46201 18
32 1 -5.21001 21.9053 -5.02596 20
33 1 -21.2965 15.7784 -4.28494 9
34 1 -15.4693 28.7321 -6.60747 10
35 1 -10.8435 28.6333 -2.31735 18
36 1 -20.2784 18.115 6.01196 11
37 1 -11.366 29.1109 4.14732 14
38 1 -7.56536 19.0737 10.629 12
39 1 -9.19888 13.0757 -3.39224 19
40 1 -3.66656 19.5264 -5.67952 14
41 1 -7.9122 15.6755 9.87336 11
42 1 -11.1388 14.6127 8.63355 16
43 1 -6.82656 25.2522 -0.561679 21
44 1 -19.6989 11.8212 2.86187 10
45 1 -13.1566 9.70937 -0.397202 13
46 1 -16.6331 17.617 10.2627 13
47 1 -18.6716 21.0895 5.89146 17
48 1 -9.51041 11.9859 3.18469 16
49 1 -15.9642 15.7979 4.42656 21
50 1 -17.3304 28.9051 3.33733 16
51 1 -18.5502 26.3033 4.66024 15
52 1 -15.4362 26.4302 7.0321 16
53 1 -17.6149 18.6883 -2.67723 20
54 1 -17.3894 14.9554 -7.42656 10
55 1 -5.48597 23.2634 7.5698 19
56 1 -13.6988 15.9775 9.71607 18
57 1 -17.0817 17.4975 -9.48171 12
58 1 -21.3491 20.4035 0.418948 16
59 1 -16.5383 10.0562 2.48495 12
60 1 -18.297 24.8692 7.54831 12
61 1 -9.30812 9.86751 -4.96951 10
62 1 -12.4731 26.3721 5.53199 20
63 1 -19.9802 17.4813 -7.09857 10
64 1 -17.2999 27.2186 -1.36636 21
65 1 -11.6958 12.5998 -4.83827 15
66 1 -6.96347 11.7005 8.40333 7
67 1 -19.7363 24.6195 -4.79831 12
68 1 -16.0286 21.1035 10.7289 13
69 1 -20.482 23.3993 5.59437 11
70 1 -12.9251 27.7487 -8.66322 7
71 1 -13.5476 12.4453 8.1463 13
72 1 -6.48802 11.861 -5.2339 11
73 1 -4.86404 21.6178 -8.3897 10
74 1 -5.06075 14.1287 8.899 9
75 1 -17.8755 15.1776 -4.14027 19
76 1 -17.8872 19.0398 8.11419 17
77 1 -4.39347 20.637 2.9666 21
78 1 -3.29666 24.4791 -1.36531 17
79 1 -11.5819 25.9893 -7.2103 15
80 1 -10.6609 28.7744 -5.94948 13
81 1 -7.93299 28.9086 -0.75637 16
82 1 -6.5469 19.2839 -7.09664 15
83 1 -10.3375 9.80423 0.765574 11
84 1 -4.47131 15.3267 2.02615 18
85 1 -9.85504 7.48755 -1.87617 5
86 1 -19.7601 18.3247 -4.47116 17
87 1 -1.28928 19.246 -1.48026 15
88 1 -16.1009 29.534 -3.34468 12
89 1 -7.29052 15.7674 -7.65973 11
90 1 -18.8308 15.6388 7.56575 14
91 1 -10.9926 10.0427 -2.46504 16
92 1 -9.26691 17.8549 -7.01929 18
93 1 -6.61644 12.6752 4.95513 16
94 1 -15.0436 15.1447 -5.6875 16
95 1 -10.2165 21.0416 11.6345 10
96 1 -13.0771 21.9294 9.74756 17
97 1 -5.65447 17.1979 -5.29014 18
98 1 -6.13613 25.6889 -3.45893 18
99 1 -1.8842 22.2109 -3.984 13
100 1 -15.4727 20.4763 -8.98743 12
101 1 -20.4373 22.9407 2.5312 16
102 1 -10.9941 17.2693 9.99677 15
103 1 -18.8037 20.6571 -7.36956 11
104 1 -4.63944 14.8671 5.54648 14
105 1 -3.87952 25.7622 6.61763 10
106 1 -10.4436 12.3808 6.41861 12
107 1 -1.69008 25.131 1.72254 12
108 1 -4.30652 27.0969 3.79541 15
109 1 -6.82586 25.1106 5.53585 21
110 1 -14.6396 26.0478 -5.86425 19
111 1 -18.0672 13.0176 0.847781 20
112 1 -21.2133 25.8617 0.571661 10
113 1 -5.21516 28.0012 -1.92628 11
114 1 -7.449 22.373 9.95173 15
115 1 -10.7376 15.8204 -9.44365 9
116 1 -5.47997 29.2496 1.62135 12
117 1 -4.50683 14.7776 -5.53915 13
118 1 -3.73692 12.0482 7.03501 8
119 1 -15.7535 24.2488 9.72238 11
120 1 -1.7048 20.194 4.90002 11
121 1 -11.5072 26.5928 -4.22789 23
122 1 -2.8995 24.9461 -4.4953 11
123 1 -13.3978 19.3245 10.774 17
124 1 -15.7731 16.5698 7.92781 22
125 1 -18.0571 25.8376 1.94681 23
126 1 -6.67822 25.5867 2.7176 19
127 1 -20.189 14.8304 4.57896 12
128 1 -3.95708 17.0909 3.94917 17
129 1 -14.136 10.1205 2.4221 13
130 1 -2.84329 23.6802 4.79367 15
131 1 -3.84563 13.3183 -0.00583631 14
132 1 -8.87614 30.0575 2.373 10
133 1 -20.0337 14.2182 -2.14117 13
134 1 -8.84909 26.1207 -5.55734 19
135 1 -17.0794 17.6511 -6.1801 23
136 1 -8.4654 20.5078 -8.71889 14
137 1 -14.4318 11.0207 -3.07261 11
138 1 -1.82151 16.3203 -0.681664 14
139 1 -21.3882 20.4931 3.62965 13
140 1 -13.9603 23.6429 -7.81397 13
141 1 -16.9914 13.2467 -1.96476 14
142 1 -4.38477 19.4562 6.10848 16
143 1 -14.4134 15.6472 -9.31596 11
144 1 -19.513 28.86 0.650507 11
145 1 -18.5904 22.2624 8.87114 10
146 1 -4.22831 26.6386 0.499227 13
147 1 -1.1581 22.5635 2.11677 13
148 1 -16.576 14.1011 9.72842 10
149 1 -2.60176 22.5068 -7.04334 10
150 1 -5.67013 24.5384 -6.3561 13
151 1 -7.46458 28.3615 4.45406 13
152 1 -7.80037 28.9148 -3.88611 12
153 1 -0.689225 22.7733 -1.24047 11
154 1 -4.27632 15.2658 -2.04177 19
155 1 -14.7582 28.7923 5.39872 13
156 1 -14.3097 29.2054 2.20866 17
157 1 -15.746 13.7647 6.89359 17
158 1 -1.79162 18.917 2.26424 14
159 1 -21.0038 14.6782 1.07665 15
160 1 -16.7336 29.5478 0.238006 15
161 2 -19.0006 22.7198 6.93041 11
162 2 -2.71694 25.223 0.21605 13
163 2 -19.2974 27.8495 -1.10811 13
164 2 -17.4022 14.3676 7.89552 12
165 2 -6.58703 23.8609 9.09346 14
166 2 -17.3766 26.4447 6.59957 15
167 2 -3.42038 14.7633 -3.78063 16
168 2 -14.5703 21.4458 -7.4279 17
169 2 -10.1748 17.703 -8.91162 13
170 2 -16.0141 28.5011 6.89656 10
171 2 -4.91225 17.0606 5.54991 16
172 2 -5.69651 25.3138 1.18212 19
173 2 -12.8576 28.7654 5.31896 15
174 2 -6.9236 29.2722 2.79839 12
175 2 -11.4963 27.9609 -7.31424 13
176 2 -3.57245 20.9827 -6.98875 12
177 2 -18.8068 18.7429 -6.65181 14
178 2 -11.5813 12.7373 8.14412 10
179 2 -20.4499 20.93 1.89256 17
180 2 -6.39495 15.497 -5.75686 16
181 2 -15.0049 10.2554 0.650869 15
182 2 -5.8137 25.7521 7.23162 13
183 2 -6.83145 17.6094 9.59703 11
184 2 -16.0841 12.6318 5.22973 19
185 2 -10.2803 9.10265 -0.858086 10
186 2 -18.0597 11.0147 2.70466 11
187 2 -9.82096 8.85568 -3.52794 8
188 2 -17.3937 15.0946 -2.35708 19
189 2 -18.5824 28.3154 4.7637 13
190 2 -2.22678 23.8266 -2.93716 13
191 2 -9.18028 22.4086 -8.77829 12
192 2 -12.459 28.283 2.14758 20
193 2 -14.4175 25.8887 5.41168 20
194 2 -11.7547 28.1848 -0.645017 21
195 2 -8.96381 28.1226 -5.34138 13
196 2 -11.647 25.727 7.25555 18
197 2 -9.64557 19.6149 10.3485 14
198 2 -7.22329 17.4886 -7.27038 14
199 2 -7.41833 10.1468 -5.75539 6
200 2 -19.9979 13.1712 1.61647 15
201 2 -1.86882 17.7201 0.704375 14
202 2 -4.21185 27.8011 2.02742 12
203 2 -11.9141 23.2036 -7.51179 15
204 2 -11.5626 20.9518 -9.07745 13
205 2 -14.1697 15.831 -7.24981 17
206 2 -8.89356 19.7667 -7.07889 21
207 2 -3.38454 20.8178 -3.88794 19
208 2 -12.4852 15.42 -9.05062 11
209 2 -9.90744 11.8169 -4.84105 13
210 2 -13.5367 25.654 -7.3585 13
211 2 -15.3579 10.1146 4.01973 11
212 2 -17.0295 25.4376 3.76447 21
213 2 -19.7861 16.2807 6.03798 14
214 2 -19.7725 22.9873 -3.70133 15
215 2 -4.47646 12.5648 5.26356 11
216 2 -10.7246 -29.7376 2.75691 9
217 2 -12.1161 20.819 11.3927 13
218 2 -20.5231 21.9312 4.48026 14
219 2 -20.8924 16.9523 -5.5828 11
220 2 -4.38519 22.6602 -0.760549 22
221 2 -20.4039 15.8168 2.5133 14
222 2 -13.443 26.7582 -4.41316 24
223 2 -6.54233 20.8429 -8.20735 12
224 2 -17.0577 26.2073 0.51256 23
225 2 -4.92485 12.8977 -5.2203 10
226 2 -7.28903 12.7914 -3.69105 16
227 2 -18.0472 29.584 1.60999 13
228 2 -7.67431 12.6355 3.08733 16
229 2 -6.33061 26.7755 4.19559 16
230 2 -14.5295 28.3443 -2.51984 19
231 2 -15.6687 15.8315 9.83213 14
232 2 -14.4347 28.4233 -7.92945 8
233 2 -9.25153 22.1945 10.5504 12
234 2 -4.95416 26.051 -1.45764 19
235 2 -9.01551 25.4185 6.00517 19
236 2 -17.8605 15.1068 4.10062 23
237 2 -8.94554 25.2675 8.76337 13
238 2 -6.45224 20.4963 10.1291 12
239 2 -7.53878 24.8081 -6.53757 14
240 2 -9.36399 20.0583 6.67648 20
241 2 -3.90536 14.4694 7.32979 9
242 2 -20.6621 21.5239 -0.921862 15
243 2 -16.6116 25.9313 -2.87157 21
244 2 -15.0703 24.0744 -5.5322 20
245 2 -15.2186 13.1726 8.66476 14
246 2 -5.94631 28.8905 -0.360968 14
247 2 -18.6279 16.4708 -7.84133 10
248 2 -0.87054 23.4565 0.569948 11
249 2 -16.7732 29.1873 -1.6724 13
250 2 -2.89421 18.6975 4.05645 12
251 2 -19.6756 12.9756 4.47352 10
252 2 -16.7541 14.7878 -5.66867 13
253 2 -11.3148 28.6648 -4.05603 14
254 2 -21.4102 24.1831 1.32744 12
255 2 -12.8647 15.7712 7.90273 22
256 2 -21.0449 25.2334 -1.21745 11
257 2 -11.7604 23.2544 9.33631 15
258 2 -17.9909 24.4059 -5.64256 12
259 2 -8.92087 28.9026 -2.41001 17
260 2 -14.7794 24.543 7.75069 15
261 2 -15.3184 18.7011 -9.0868 13
262 2 -15.5899 12.0588 -2.17589 14
263 2 -3.61307 21.6793 8.69561 9
264 2 -3.20641 19.4928 -1.19071 19
265 2 -7.73376 11.7816 6.65171 12
266 2 -14.8856 22.563 10.6767 13
267 2 -19.6256 14.3746 -4.13344 12
268 2 -17.606 23.9203 9.28334 9
269 2 -20.9115 18.8028 4.25769 14
270 2 -12.9127 10.0648 -2.43377 14
271 2 -15.0772 29.7901 -4.99099 9
272 2 -4.89103 23.0112 -7.08933 14
273 2 -9.11155 15.4257 -7.24264 12
274 2 -5.52225 19.6319 7.68103 17
275 2 -3.73897 23.6644 6.41333 14
276 2 -10.6797 25.4483 -5.64802 19
277 2 -16.192 15.7556 -9.10467 11
278 2 -15.4868 28.3532 3.42634 20
279 2 -16.6279 27.6353 -5.56478 14
280 2 -20.078 20.276 -4.01131 14
281 2 -19.6454 24.954 5.03917 12
282 2 -3.73496 17.7542 -4.68582 15
283 2 -19.597 26.9524 1.25313 16
284 2 -17.3508 20.6479 -8.80666 10
285 2 -7.18528 14.3385 8.82323 14
286 2 -17.1457 20.8039 8.79527 15
287 2 -18.7737 19.1187 6.16241 18
288 2 -5.17753 12.0213 8.48827 8
289 2 -20.7885 18.5651 0.605516 17
290 2 -15.3152 19.5468 10.3449 17
291 2 -13.6387 12.1806 6.06487 14
292 2 -1.90567 23.9711 3.15041 10
293 2 -7.39597 12.7458 -0.414234 15
294 2 -15.2445 28.4362 0.645586 17
295 2 -19.4448 26.3568 -3.87103 11
296 2 -17.9957 17.2128 8.7657 14
297 2 -9.97961 15.5219 10.0157 13
298 2 -5.66336 19.7591 -5.44399 19
299 2 -3.49183 25.784 4.68457 12
300 2 -3.05892 20.6518 6.09801 14
301 2 -1.5459 17.2819 -2.38569 13
302 2 -3.21616 15.128 -0.139174 15
303 2 -4.72587 25.2656 -4.77021 14
304 2 -19.8323 15.3691 -0.57619 16
305 2 -3.9077 14.6689 3.78182 14
306 2 -8.04774 25.0731 -3.51875 21
307 2 -1.04071 21.139 -2.00596 11
308 2 -6.33056 27.6529 -3.5817 13
309 2 -1.41282 20.8931 3.26554 12
310 2 -4.43695 12.5197 1.56285 11
311 2 -13.2378 12.3916 -3.70984 14
312 2 -9.09715 28.7837 0.883899 18
313 2 -9.41421 28.4373 4.18644 16
314 2 -12.3142 9.91915 1.48547 13
315 2 -12.77 17.5315 10.2105 16
316 2 -3.30916 20.0945 1.38253 18
317 2 -2.07951 23.4388 -5.64966 10
318 2 -17.4493 21.5292 -5.75233 20
319 2 -18.7327 12.9204 -1.12046 14
320 2 -4.28968 12.8105 -1.87766 12
321 1 -20.5631 17.3579 -0.902011 15
322 1 -18.0546 16.2674 -0.784309 24
323 1 -12.3401 13.0825 -1.7611 21
324 1 -15.0736 12.0577 0.180367 19
325 1 -11.8789 18.1524 -5.75911 23
326 1 -14.6274 18.0071 -3.97696 20
327 1 -12.685 15.1776 -3.84759 19
328 1 -15.5528 15.3702 -2.32433 20
329 1 -11.894 18.2587 -1.99926 22
330 1 -14.8479 17.8138 -0.657689 23
331 1 -12.8178 15.8632 -0.338474 21
332 2 -21.1412 16.295 -2.37773 14
333 2 -17.9234 17.6871 -4.23868 24
334 2 -18.6475 18.0198 -1.11491 21
335 2 -13.2377 12.1599 -0.389147 22
336 2 -12.4362 18.0837 -7.7498 19
337 2 -15.3278 18.349 -6.1306 20
338 2 -11.5645 14.4416 -5.58137 16
339 2 -14.6199 15.976 -3.97284 19
340 2 -12.7972 18.4236 -3.89676 20
341 2 -15.691 18.8291 -2.60936 19
342 2 -12.0042 15.1605 -1.9607 22
343 2 -14.8524 15.4493 -0.417243 20
344 2 -12.9624 18.0299 -0.490306 20
345 1 -17.6789 18.8777 0.562647 24
346 1 -18.4446 16.4244 2.51962 25
347 1 -17.6743 18.5481 4.44163 23
348 1 -12.4165 12.8438 1.42141 22
349 1 -12.6211 13.0544 4.53682 20
350 1 -15.7407 15.5584 1.09966 21
351 1 -12.0603 18.2654 1.20836 21
352 1 -15.1691 18.3414 2.59299 23
353 1 -13.0122 15.7714 2.84297 23
354 1 -15.3595 12.9982 2.97322 21
355 1 -12.2231 18.2875 4.46821 23
356 1 -14.8385 18.469 5.92421 23
357 1 -13.5691 15.7455 6.09181 21
358 1 -12.5857 18.4324 7.85063 21
359 2 -17.7506 15.9207 0.925949 24
360 2 -18.5442 18.3952 2.41244 21
361 2 -16.3034 13.2623 1.31905 22
362 2 -13.6502 12.3043 2.95004 20
363 2 -16.0731 17.9637 1.06734 22
364 2 -12.1788 14.9186 1.31831 23
365 2 -14.8247 15.1276 2.90522 22
366 2 -13.3218 17.8807 2.67902 22
367 2 -16.0268 17.8254 4.38637 22
368 2 -12.5539 15.0159 4.6779 22
369 2 -15.5221 15.7839 6.23184 21
370 2 -13.3102 17.6863 5.98376 22
371 2 -15.526 18.5904 7.76434 23
372 1 -17.1844 24.1027 -2.46797 21
373 1 -20.3998 27.0142 -2.39036 11
374 1 -18.1958 21.4541 -0.882116 22
375 1 -12.4452 20.9774 -7.2814 20
376 1 -15.8388 20.2479 -5.66096 23
377 1 -11.2843 23.7164 -5.68406 24
378 1 -14.2324 22.9928 -4.21581 18
379 1 -12.1406 20.7695 -3.9525 19
380 1 -15.4563 20.8107 -2.44113 20
381 1 -11.7412 23.4879 -2.09874 20
382 1 -14.5327 23.272 -0.608856 20
383 1 -12.5043 20.7065 -0.354816 21
384 1 -14.7101 26.2856 -2.95371 21
385 1 -11.9221 26.1585 -0.72877 21
386 2 -17.7285 20.7772 -2.60843 21
387 2 -18.1022 23.5119 -0.925664 20
388 2 -11.402 20.3248 -5.56518 19
389 2 -14.4607 20.5171 -4.28573 20
390 2 -12.4038 23.1371 -4.10523 19
391 2 -15.4616 23.099 -2.68974 20
392 2 -11.4815 20.388 -2.00292 21
393 2 -14.5801 20.6825 -0.742336 21
394 2 -12.5882 22.9835 -0.414814 20
395 2 -11.0543 26.0973 -2.51454 22
396 2 -13.9431 26.07 -0.945395 19
397 1 -17.5148 23.5348 0.887276 19
398 1 -18.6012 20.3959 2.57434 24
399 1 -17.5352 23.3769 4.05922 22
400 1 -15.5145 21.0877 0.896795 22
401 1 -11.6722 23.456 1.19195 21
402 1 -14.4484 23.5519 2.54224 22
403 1 -13.0018 20.9961 2.9739 23
404 1 -15.5569 21.3207 4.53524 21
405 1 -11.7156 23.8767 4.29731 25
406 1 -14.4695 23.8992 6.05576 20
407 1 -12.8636 21.2869 6.32828 22
408 1 -15.43 20.4308 8.10443 18
409 1 -15.2462 26.3189 0.692028 22
410 1 -12.4424 26.3238 2.19663 25
411 2 -17.6182 21.082 0.867965 21
412 2 -18.6156 23.5445 2.53789 21
413 2 -17.4023 20.753 4.21453 19
414 2 -15.6149 23.0068 1.05788 23
415 2 -11.6944 20.238 1.6211 21
416 2 -14.7929 20.5446 2.57986 24
417 2 -12.5735 22.9575 2.75211 25
418 2 -15.5013 23.3229 4.35133 19
419 2 -11.8645 20.1796 5.10562 23
420 2 -14.9745 20.5147 6.21362 21
421 2 -12.6651 23.2262 5.99944 22
422 2 -12.7219 20.4027 8.44544 22
423 2 -11.1743 25.4024 0.884865 23
424 2 -14.4459 25.5296 2.23917 25
425 2 -11.7743 25.7918 3.97505 23
426 1 -9.47852 12.6636 -0.233958 20
427 1 -9.81075 15.4054 -5.43535 17
428 1 -9.02668 17.9461 -3.6811 21
429 1 -7.03527 15.1542 -3.80421 20
430 1 -9.97518 15.6088 -1.87801 22
431 1 -6.58671 17.5317 -1.81962 22
432 1 -9.13629 18.0761 -0.141866 20
433 1 -7.19751 15.3754 -0.225958 23
434 2 -10.542 12.2205 -2.13428 20
435 2 -10.1685 17.4161 -5.20253 20
436 2 -9.22064 15.0528 -3.60995 21
437 2 -6.78786 17.7014 -3.7636 20
438 2 -10.0111 17.4254 -1.68666 22
439 2 -6.30847 15.2176 -2.01185 22
440 2 -9.34697 14.8647 -0.221053 23
441 2 -7.01352 17.976 0.0733267 20
442 2 -4.59906 17.1305 -1.54888 23
443 1 -10.2198 15.1665 1.44054 24
444 1 -6.41151 17.8831 2.04324 22
445 1 -9.24061 17.3484 3.1967 18
446 1 -7.32331 14.8186 3.15435 21
447 1 -10.5001 15.2348 4.82346 23
448 1 -6.89877 16.8944 5.24915 21
449 1 -9.61689 17.5683 6.6716 22
450 1 -8.13 14.6806 6.65804 21
451 2 -10.0729 11.6837 1.33068 17
452 2 -10.4656 13.1117 4.57394 18
453 2 -10.2364 17.7211 1.34127 23
454 2 -6.28392 15.0545 1.25848 25
455 2 -9.13228 15.084 3.05767 22
456 2 -7.39026 17.97 3.58508 21
457 2 -10.0501 17.3376 4.74447 22
458 2 -6.71994 14.6359 5.07253 21
459 2 -9.84847 14.1032 6.87393 17
460 2 -7.85968 16.9129 6.78212 18
461 2 -10.84 18.1895 8.16034 18
462 2 -4.48767 17.2622 2.10207 20
463 1 -9.35952 20.8367 -5.49554 22
464 1 -8.51686 23.0877 -3.82244 21
465 1 -7.03251 20.0473 -3.6479 19
466 1 -9.58764 20.5375 -1.96211 19
467 1 -5.89423 22.3653 -1.88636 20
468 1 -8.86094 22.5712 -0.163657 19
469 1 -6.79057 19.924 -0.131661 23
470 1 -9.31146 25.4518 -2.17328 21
471 1 -4.4006 19.3934 -2.82083 22
472 2 -9.36476 22.6552 -5.64529 20
473 2 -8.96859 19.9991 -3.66405 21
474 2 -6.54267 22.7796 -3.91075 20
475 2 -9.62547 23.0368 -2.195 23
476 2 -6.02048 20.213 -1.89876 21
477 2 -8.72446 20.1691 0.0642142 21
478 2 -7.12002 23.1338 -0.784353 20
479 2 -8.47914 26.0833 -0.450716 21
480 1 -9.68229 20.6158 1.71284 20
481 1 -5.55651 23.2449 1.2254 20
482 1 -8.87161 23.5964 2.97422 22
483 1 -7.30068 19.8452 3.58742 21
484 1 -9.98965 20.8491 5.11108 19
485 1 -6.07912 22.1847 4.33084 19
486 1 -8.85875 23.309 6.40888 24
487 1 -7.51566 20.5922 6.53515 20
488 1 -10.3587 20.274 8.44496 20
489 1 -9.38099 26.7292 0.915723 21
490 1 -9.69458 26.3218 4.40921 20
491 1 -3.25515 21.262 -0.173659 23
492 2 -10.0179 22.6292 1.45738 18
493 2 -6.20923 20.1779 1.73203 20
494 2 -9.02162 20.5208 3.57315 21
495 2 -6.93518 23.6525 3.7277 18
496 2 -9.97507 23.2364 4.79661 20
497 2 -5.93907 20.3532 4.86533 21
498 2 -6.98866 22.5188 6.3149 19
499 2 -4.49007 22.5953 2.87299 19
500 2 -8.6842 25.5961 2.83844 20
