ITEM: TIMESTEP
33000
ITEM: NUMBER OF ATOMS
1500
ITEM: BOX BOUNDS pp pp pp
-30.0 30.0
-30.0 30.0
-30.0 30.0
ITEM: ATOMS id type x y z Coordination
1 1 -7.113 -15.8615 -15.7156 13
2 1 5.08254 -16.4946 -0.115909 18
3 1 -16.4171 -0.106929 -8.62845 13
4 1 -14.175 1.08626 -11.0901 12
5 1 4.54828 -9.84967 11.7493 15
6 1 -7.89543 -7.75826 -16.0051 17
7 1 -5.79929 -3.77025 -7.81353 18
8 1 -4.02097 -16.6402 2.62351 18
9 1 -11.5533 -11.9798 1.88338 13
10 1 -1.52304 -3.33461 11.2687 19
11 1 1.50381 -6.88758 1.00268 17
12 1 -0.553262 -2.83344 7.62247 22
13 1 4.71593 -7.53429 3.46897 20
14 1 -3.68544 0.305235 -9.26152 19
15 1 3.82822 -1.42462 11.8313 15
16 1 13.6335 -2.58947 5.82644 8
17 1 -0.391238 1.92275 -16.4077 15
18 1 3.58376 -0.343941 -12.7886 18
19 1 -12.6152 -8.12542 -3.37233 24
20 1 -2.48565 -9.18043 -14.8333 21
21 1 5.28046 -18.7622 2.01009 11
22 1 -0.439587 -9.70437 4.89889 21
23 1 5.66946 -13.6818 -2.40706 17
24 1 -4.95761 -18.6262 -10.1751 17
25 1 3.0414 -10.1639 -8.78632 23
26 1 -2.83307 -7.5851 -17.9637 15
27 1 -3.22399 -2.10821 9.23033 20
28 1 0.905706 -17.5105 3.96566 15
29 1 1.73113 -3.94565 13.4815 9
30 1 -5.58342 -14.5607 1.33888 18
31 1 -16.3174 -3.54812 -4.5527 15
32 1 -3.1223 6.02283 -2.44693 16
33 1 -1.82066 -2.99344 -12.3062 22
34 1 1.01787 -8.14211 -20.1239 10
35 1 -0.92283 -13.473 9.74373 12
36 1 -16.5343 -0.481352 -5.00516 9
37 1 -4.39179 9.49526 0.788707 10
38 1 -9.09252 0.146843 -3.69241 20
39 1 2.72135 8.35015 -7.88968 14
40 1 -1.47096 -19.9285 -6.5772 17
41 1 2.4962 -13.6869 -12.4793 20
42 1 -6.225 5.03561 8.16164 15
43 1 -13.207 -9.97851 -15.231 12
44 1 4.01085 -5.31933 -1.40701 19
45 1 -8.0955 -0.576557 -6.64997 19
46 1 -7.62695 -17.7831 6.71091 7
47 1 -13.0957 -0.917529 -12.8646 12
48 1 4.49499 -1.1904 -8.70125 16
49 1 0.946918 3.94253 3.32583 20
50 1 4.69379 -4.0655 9.55047 23
51 1 4.18016 -20.3592 -7.91582 9
52 1 2.94452 5.47094 10.7852 12
53 1 3.98279 -5.97035 -14.4854 20
54 1 7.16935 -18.1786 -1.13075 13
55 1 -6.02612 -13.3529 -1.22588 21
56 1 4.02161 -6.79601 12.5354 12
57 1 -10.4079 -17.136 -1.32768 12
58 1 -7.3081 -11.9022 -3.21939 20
59 1 11.0633 -4.76411 2.83034 16
60 1 7.47345 -6.62323 -5.94724 17
61 1 -1.68917 8.75807 5.36278 11
62 1 4.37943 -3.98794 3.88709 19
63 1 -10.381 -12.8962 5.39937 15
64 1 -4.91142 -13.3395 -12.4198 17
65 1 -7.48521 1.77782 -2.10889 21
66 1 -1.55533 -3.38362 -15.6156 19
67 1 4.98268 -5.52667 -6.35375 17
68 1 3.1641 -5.20631 -10.1644 20
69 1 5.62103 -11.8953 3.38475 23
70 1 7.6006 -9.53281 4.42041 23
71 1 -11.9615 2.39718 -8.60332 11
72 1 -12.6142 2.83365 3.49369 11
73 1 -9.17186 5.47751 9.29584 9
74 1 -7.14263 -12.9641 9.8189 14
75 1 12.0303 -14.4082 -7.49631 12
76 1 -9.46209 2.53733 3.78315 22
77 1 4.04452 -11.9722 -10.3466 19
78 1 -1.35946 0.628967 -19.1086 10
79 1 -1.16884 -4.32018 -17.9748 18
80 1 1.7192 3.52281 -3.40101 20
81 1 -9.38645 -1.47084 -12.1349 21
82 1 0.364328 9.53003 -5.45227 17
83 1 -1.67187 3.17335 -2.21573 18
84 1 -2.40426 -15.7176 8.09683 11
85 1 -1.37032 -14.8625 -14.2821 20
86 1 3.25545 -7.83215 -11.8391 22
87 1 -0.671362 0.314704 4.13721 17
88 1 -7.97924 -14.1336 -8.38242 19
89 1 9.49088 -9.84862 -1.72661 19
90 1 -9.14343 -16.0182 -6.5252 17
91 1 4.24688 -13.3986 -0.0288258 20
92 1 -4.53922 -3.68732 2.64281 18
93 1 8.26481 -12.5935 -14.8915 7
94 1 1.43187 0.656871 -11.2156 17
95 1 8.27802 -16.6349 -5.55996 14
96 1 1.52249 -19.1326 -6.33439 18
97 1 -4.59888 -14.0718 -9.27327 20
98 1 -13.728 -9.16077 2.01484 11
99 1 8.95703 5.09226 3.33599 16
100 1 4.23234 -2.38722 -2.90884 19
101 1 -4.4299 6.33519 5.32998 16
102 1 -6.51998 1.29283 -5.20812 19
103 1 -5.59799 -10.3843 -13.7937 23
104 1 7.37312 -2.40441 11.3125 10
105 1 -1.01213 1.89182 -9.4458 21
106 1 5.01181 -7.46788 -9.22431 20
107 1 -12.8323 0.90269 -5.15699 14
108 1 -7.58699 7.19528 1.43264 14
109 1 11.5806 -2.12144 -10.75 13
110 1 2.76123 -10.6838 0.880787 19
111 1 -7.89909 -6.58066 -10.2693 20
112 1 4.17278 4.83534 -4.26257 20
113 1 7.44514 4.89592 -4.17936 21
114 1 -4.95036 -1.28197 -0.0738338 20
115 1 -4.22332 -11.0022 -20.4189 9
116 1 3.5952 1.85501 5.62551 19
117 1 -16.1913 -6.24146 -7.1151 16
118 1 8.95244 -13.2565 -1.90496 20
119 1 -1.32897 6.22151 3.51542 20
120 1 -5.41095 5.94064 -7.08616 14
121 1 9.49836 -8.63555 10.6808 11
122 1 -7.19305 -14.3913 4.18351 20
123 1 -8.50022 -16.202 1.23658 18
124 1 7.78978 -12.2015 -11.2949 18
125 1 -4.79999 5.98259 -10.3415 11
126 1 -3.20733 0.931664 -3.98435 20
127 1 7.40211 2.15399 -9.57998 22
128 1 1.2092 -14.823 4.89796 23
129 1 -8.79916 -5.83127 -2.64262 21
130 1 3.92152 9.28351 -1.63264 18
131 1 2.58949 1.98384 12.3886 10
132 1 1.10666 8.48553 7.25013 14
133 1 -5.02283 -7.64671 -15.0085 19
134 1 8.68613 -15.8917 0.936236 14
135 1 -8.36538 -7.2429 8.11942 22
136 1 -12.6683 -1.95082 -0.697275 18
137 1 -5.63723 -15.1182 7.69546 14
138 1 -14.4568 -0.985329 -6.70743 17
139 1 -0.0312678 -18.649 1.40725 17
140 1 -6.3216 -10.6048 -8.15166 18
141 1 5.73658 -14.4447 -6.44719 18
142 1 -7.10498 5.63459 4.70894 16
143 1 -8.74811 -2.58877 7.57159 20
144 1 -7.59912 -5.8702 -6.81305 19
145 1 -6.23488 3.0388 -8.37053 16
146 1 -11.2943 -9.72887 -5.9179 21
147 1 -11.5091 -1.01213 12.0049 6
148 1 -4.13422 -14.9627 5.27494 18
149 1 6.33489 -14.2447 5.52008 19
150 1 9.02292 -1.88285 -1.52792 20
151 1 5.79668 -3.87053 -9.49467 21
152 1 6.26488 2.85724 8.37813 15
153 1 -5.88185 -0.659914 -12.5508 20
154 1 2.71459 -8.77735 -15.1945 20
155 1 -11.9651 -7.16519 -16.8416 9
156 1 -8.15951 5.12007 -6.21889 10
157 1 -8.78922 5.16258 -0.50553 14
158 1 7.43481 -2.95252 8.42922 18
159 1 -8.54093 -14.8332 -11.9701 21
160 1 -3.26774 3.49975 -11.2869 16
161 1 3.63176 5.38629 -12.619 11
162 1 -7.56924 -7.67018 -1.26102 17
163 1 -7.13832 2.34692 9.87103 13
164 1 0.0776169 -12.9324 -16.6221 19
165 1 -13.3693 -15.2648 -9.18249 12
166 1 6.19086 -17.4477 -8.12037 14
167 1 5.28295 -10.4684 -4.10111 22
168 1 9.59474 5.99932 -6.88378 17
169 1 -0.263674 0.273136 -3.6953 20
170 1 -9.96611 -5.24495 5.59809 18
171 1 -1.25703 -0.0162288 9.59232 18
172 1 13.0398 -6.18458 0.96289 11
173 1 -1.86479 3.3392 4.2962 20
174 1 -10.4394 -2.90434 -1.99085 19
175 1 -14.5622 -9.13932 -5.65363 15
176 1 5.91243 -6.05092 -11.5848 22
177 1 2.05792 -6.42328 4.70055 20
178 1 12.9961 4.58717 -9.97276 9
179 1 3.53484 -17.0438 -6.60336 22
180 1 -6.28109 -5.23471 -21.3859 8
181 1 7.93221 -8.69176 -11.5408 17
182 1 -6.77859 -5.48141 6.63431 19
183 1 -1.92279 -20.8963 -9.88554 12
184 1 -13.5167 -12.2045 -10.4642 17
185 1 -3.69805 7.96441 -7.93025 12
186 1 1.82199 -4.76003 -20.3175 11
187 1 3.11468 7.93118 9.01291 12
188 1 12.6628 -6.9858 -2.06604 14
189 1 -2.26848 -13.3829 -1.93359 21
190 1 5.5797 -10.4441 -16.4531 13
191 1 -6.53075 -16.2688 -1.46259 19
192 1 -5.85466 -7.20931 -18.1467 18
193 1 -13.2121 -9.00237 -11.645 16
194 1 5.33303 -5.27701 6.63308 24
195 1 3.07973 -10.8256 8.30225 20
196 1 -10.9613 -11.2413 -17.2462 13
197 1 -0.560456 -6.83708 3.14253 18
198 1 2.51783 0.993661 -16.3778 14
199 1 4.81109 3.43713 -1.10446 24
200 1 -8.63136 -12.0541 2.71177 17
201 1 1.96531 9.12412 0.750459 17
202 1 -8.77027 -6.92408 11.6628 14
203 1 -14.5002 -11.4577 -12.7829 9
204 1 -8.67134 -10.7604 -14.1927 17
205 1 -8.3822 -11.4957 -10.4684 21
206 1 -1.19826 -16.3742 -2.11713 17
207 1 6.84416 -2.11891 2.39804 21
208 1 -4.50785 -11.0145 -10.1524 20
209 1 -10.5339 -9.0403 10.2131 10
210 1 0.572443 -21.6648 -4.45796 8
211 1 -1.46085 -14.2636 3.6009 17
212 1 -0.320139 5.97897 -2.28991 17
213 1 6.3793 -0.764861 -11.294 19
214 1 -6.30242 -3.43245 -16.9776 20
215 1 -3.42689 -17.3256 -4.05524 16
216 1 -8.63281 -13.091 -16.8833 17
217 1 -9.37603 -4.75473 -12.0089 20
218 1 10.555 1.0302 -1.93335 16
219 1 -2.9742 -5.70539 -13.5037 17
220 1 -4.50716 -2.15534 -10.6151 20
221 1 -5.76202 -8.11443 6.28757 24
222 1 -9.73908 2.48802 -6.06029 17
223 1 3.49981 4.92929 4.80466 20
224 1 9.58347 -6.95749 -3.23681 19
225 1 -5.95825 -0.1728 6.40388 23
226 1 -2.80801 -10.4585 7.14303 20
227 1 -8.07645 2.92822 6.2737 20
228 1 1.8764 -10.2959 -12.0274 22
229 1 6.96424 -18.7324 -4.62193 12
230 1 -2.82334 -4.91158 8.28309 19
231 1 -8.7798 -14.9262 7.51436 14
232 1 8.67815 -16.5157 -2.37624 16
233 1 5.07798 -10.6701 -12.8933 19
234 1 10.6548 -14.9478 -4.14936 12
235 1 -6.19425 -12.5657 6.97202 22
236 1 -10.8964 2.96303 -2.42065 14
237 1 3.239 -2.20073 1.84836 18
238 1 6.28079 3.14001 3.56283 22
239 1 -8.55361 -10.9257 -0.52495 21
240 1 3.75404 -15.1515 -8.82311 19
241 1 -4.57394 3.82028 -4.27536 19
242 1 -10.2485 -3.01903 1.60746 18
243 1 3.59976 -15.5648 7.68223 15
244 1 11.8026 -8.91348 0.187011 15
245 1 -2.02822 6.74154 0.255676 14
246 1 -5.30872 -7.41071 -8.09743 21
247 1 -3.41619 -4.2288 13.4477 9
248 1 -2.40871 8.40252 -4.05992 20
249 1 -9.83917 -4.01378 -6.55676 17
250 1 -11.5605 -3.24861 7.53837 13
251 1 -13.9641 -1.98615 2.61432 9
252 1 -2.97532 -10.457 -12.223 20
253 1 -7.5977 8.09977 7.74362 5
254 1 2.54081 -4.70147 7.42412 21
255 1 -8.23915 -19.2181 -2.48323 12
256 1 5.76969 -15.5191 2.48634 20
257 1 -11.0009 2.77616 0.742405 18
258 1 -0.289521 -7.16542 8.1724 19
259 1 -0.665027 -18.0842 -14.5641 11
260 1 -5.78944 -2.3741 -20.6155 12
261 1 9.24207 -5.89506 -12.3143 11
262 1 5.99026 10.3782 -3.54859 13
263 1 -9.6257 -9.4912 -3.04274 24
264 1 1.4289 -15.411 -15.0782 18
265 1 -6.96649 -19.9563 -8.07347 15
266 1 -14.6154 -12.0722 -7.27689 16
267 1 -0.045442 -11.6657 -0.899818 23
268 1 10.7512 -1.6122 -4.08771 19
269 1 -6.50132 -4.00681 -11.5648 19
270 1 -11.6714 -6.43042 -11.6047 16
271 1 -7.39038 3.33858 1.40781 20
272 1 -9.65796 5.11801 2.80535 14
273 1 1.06082 5.96188 5.4588 20
274 1 12.5911 -12.0165 -9.23006 13
275 1 13.3627 -6.45023 -5.29793 12
276 1 -7.54646 -1.77931 -1.11303 21
277 1 0.519956 -18.5355 -11.4303 16
278 1 -0.543472 2.02537 1.74342 18
279 1 -13.2762 -6.9408 -6.72294 16
280 1 2.11146 -15.8959 -4.23979 18
281 1 4.82696 -3.62386 13.3637 10
282 1 -11.0309 -10.7146 -8.86616 19
283 1 -10.5962 -17.519 -4.27525 13
284 1 -8.07629 7.46098 -2.9037 9
285 1 -10.5583 -14.5305 -9.46957 20
286 1 -13.6047 0.873823 0.549894 14
287 1 -0.510578 8.57146 -8.29483 15
288 1 5.64926 6.59271 -1.78993 24
289 1 -13.9072 -12.6329 -4.15808 14
290 1 -2.41829 -19.0748 -11.7167 13
291 1 -10.7894 -9.67165 2.90781 18
292 1 -16.2589 -1.29991 -11.2364 8
293 1 0.748552 -12.8434 2.0039 22
294 1 -9.25549 -20.3094 -5.35721 9
295 1 -1.71409 2.74561 -13.56 14
296 1 -11.3514 -0.150748 -7.72033 16
297 1 -1.83871 -19.2245 -0.557166 14
298 1 13.7111 1.94318 0.929945 12
299 1 -3.54215 -5.27162 5.66672 21
300 1 -13.1861 -3.87835 -6.32912 24
301 1 -8.06258 -4.51054 2.95874 20
302 1 -5.97931 -18.0259 0.592234 15
303 1 -3.06484 -15.919 -11.4379 20
304 1 2.47873 -11.9928 -14.8146 22
305 1 -2.77903 -13.0632 1.51362 25
306 1 -5.23318 -6.69416 3.26522 22
307 1 -0.785139 -10.6055 1.77761 16
308 1 5.73207 -15.5383 -11.9578 13
309 1 -5.80199 -13.204 -18.5217 13
310 1 -2.97775 -8.04705 8.09061 19
311 1 0.460684 -12.3965 -6.52059 22
312 1 -7.34121 -5.28346 -14.3841 18
313 1 3.81501 -19.8825 -0.250419 10
314 1 -5.3065 9.54698 -5.91333 12
315 1 -0.632513 -6.54642 11.5028 12
316 1 -3.94239 -12.7659 8.95762 15
317 1 9.81229 -8.4301 6.27096 13
318 1 13.5498 -4.35278 -3.15098 14
319 1 -7.52623 -1.70388 2.18828 21
320 1 3.30366 -3.91948 -7.18084 18
321 1 4.23381 -13.0225 6.41213 20
322 1 8.60754 1.46932 -4.31658 18
323 1 -10.2147 2.31081 8.73785 14
324 1 2.23291 0.224162 -2.32481 20
325 1 4.86719 -8.7005 6.30862 19
326 1 -5.68756 -16.1369 -6.76379 17
327 1 -5.69272 5.99619 -1.21979 20
328 1 -9.41259 -17.3401 -14.1125 12
329 1 1.24446 2.27493 9.42354 18
330 1 -6.79254 -4.47842 9.88265 22
331 1 -3.73239 -15.4971 -0.670919 22
332 1 -10.1845 -7.96831 -0.198807 20
333 1 -6.93019 -13.4595 -14.611 20
334 1 -12.3591 1.60253 6.02212 11
335 1 -6.61783 -16.8739 -8.89646 18
336 1 -2.48181 -13.355 -18.5283 16
337 1 -4.67935 -18.9059 -2.36318 15
338 1 -2.24408 -10.3042 -1.01657 20
339 1 9.63835 -5.05552 6.34144 13
340 1 -4.01748 -5.49168 11.0378 19
341 1 -11.0434 1.22787 -11.0952 15
342 1 8.76644 2.97507 -6.97113 17
343 1 -10.9498 -16.974 -10.8447 13
344 1 1.51568 -0.807298 -8.12239 19
345 1 2.87411 10.8272 -4.60043 12
346 1 -3.05097 2.59347 -7.39011 14
347 1 -3.1505 5.62115 8.88254 9
348 1 -13.7539 -2.08353 -9.31342 21
349 1 3.20893 4.93065 -6.92585 22
350 1 -10.448 -15.2895 -16.5781 11
351 1 -4.1627 -15.0165 -16.6653 16
352 1 -3.46699 -1.70265 -18.3281 18
353 1 -4.72353 2.13624 -1.54497 22
354 1 2.7595 3.66992 7.81114 23
355 1 5.33719 2.68375 -7.22373 23
356 1 5.40833 2.28486 -4.17009 20
357 1 -8.87206 0.773478 -9.61367 15
358 1 -2.46114 -0.456594 -14.9296 22
359 1 1.68304 -14.4364 -1.09111 20
360 1 -15.0535 -9.66552 -2.53567 12
361 1 -8.63973 -3.95302 -20.2786 11
362 1 12.7423 5.55989 -7.32859 7
363 1 7.12611 -12.8803 1.16162 20
364 1 13.012 -0.0738596 -5.4664 16
365 1 4.97059 -3.29916 -12.1082 20
366 1 -0.852833 -15.4901 0.837106 20
367 1 -0.145777 -20.0466 4.62935 9
368 1 0.462352 -17.5273 7.42982 11
369 1 -13.9312 -9.01959 -8.7538 19
370 1 -0.672379 -16.0171 -17.2047 12
371 1 -3.94019 1.55198 -16.5757 14
372 1 -0.232625 -10.3631 7.56579 22
373 1 -13.8127 -13.1338 -0.642365 9
374 1 10.3524 -11.1543 -12.3444 10
375 1 11.4716 -11.8813 -0.10989 15
376 1 -5.68823 -1.0155 -3.46603 23
377 1 1.40542 -13.1399 -9.61582 23
378 1 1.72706 -4.17012 -16.265 19
379 1 6.40667 -10.7029 -9.20268 23
380 1 -8.33294 -2.95483 11.8185 13
381 1 1.4563 6.62226 -5.67275 20
382 1 -9.58741 -12.7223 -19.622 10
383 1 -5.41164 -2.9462 7.69231 23
384 1 -5.38418 9.83147 -2.3417 10
385 1 -9.35673 -5.40862 -17.9222 14
386 1 -14.4167 -4.11243 -1.6804 13
387 1 -1.71299 -17.0736 5.16886 18
388 1 -3.05586 0.263214 -12.0762 19
389 1 12.9894 -1.96374 -0.48349 17
390 1 -11.7814 -16.0558 -6.52442 17
391 1 -5.37798 -12.3784 3.64824 21
392 1 -4.59268 2.84684 6.21042 17
393 1 -0.0841994 -8.24965 -13.0764 22
394 1 0.529518 -0.429079 -0.340661 24
395 1 10.1449 -6.46772 -0.0630038 22
396 1 6.51436 5.4629 -7.00819 21
397 1 2.17472 -15.8177 1.8405 21
398 1 -12.4686 0.0931384 9.28494 9
399 1 3.76006 0.959045 8.20195 17
400 1 -5.77593 -0.33137 -15.5691 20
401 1 -7.05832 -9.30184 -10.7584 19
402 1 1.57563 -11.8828 10.566 15
403 1 8.96098 7.19727 0.994494 13
404 1 10.144 3.71935 -11.3306 14
405 1 -8.38011 1.06073 -13.2513 15
406 1 -1.80359 5.4236 -5.34227 17
407 1 5.73183 -0.571779 9.46069 20
408 1 12.0968 1.39104 -10.6739 11
409 1 -10.2739 -13.1657 -4.24734 20
410 1 -0.50281 -5.58891 5.80727 21
411 1 -1.4537 5.81186 -9.84208 15
412 1 -4.23661 -18.6306 -6.56965 18
413 1 -0.0980271 -9.68071 -15.9581 17
414 1 -7.67822 4.32779 -3.41517 17
415 1 -7.61575 -7.36481 -19.9703 13
416 1 4.22201 -16.7124 4.80492 14
417 1 -14.9027 -6.1636 -4.14323 16
418 1 -5.74329 -6.96397 -3.43368 22
419 1 -1.26254 -9.4268 10.7147 11
420 1 5.14556 -0.443015 -5.46253 19
421 1 -1.1615 -10.3803 -18.9888 12
422 1 4.96513 -12.8637 10.2738 13
423 1 10.3514 -6.65792 -6.53737 20
424 1 -8.40096 -3.35878 -4.20153 23
425 1 8.73883 -13.1383 -7.77849 17
426 1 5.6818 5.88649 9.83741 11
427 1 0.24351 -0.386642 -14.0033 21
428 1 -2.41443 9.73803 -1.23656 15
429 1 7.63491 1.32157 -12.8336 14
430 1 4.50696 -5.08394 -17.7655 11
431 1 -5.86171 -13.0747 -6.38789 19
432 1 -10.1787 -9.17828 -19.4106 9
433 1 10.2395 -2.87491 0.669505 20
434 1 13.9711 1.98094 -7.45615 11
435 1 9.51244 -2.59848 -13.6941 8
436 1 1.52093 -15.0745 -6.74525 20
437 1 7.58788 3.10208 -1.63999 21
438 1 -9.47959 -4.6942 9.54923 16
439 1 8.76414 3.03371 1.16882 20
440 1 10.3602 -7.82368 3.08406 18
441 1 13.7207 -0.736751 -8.48687 13
442 1 -0.530042 0.869312 12.0245 12
443 1 7.54284 -13.6445 8.6028 12
444 1 5.87802 -2.98109 -0.373452 21
445 1 -3.02044 -0.943203 11.7677 16
446 1 12.2536 -9.09661 -7.56011 16
447 1 10.6783 -2.42383 7.50747 14
448 1 -9.91681 -9.29396 -12.083 18
449 1 12.3283 3.8353 -1.69084 12
450 1 11.1697 -10.5458 3.40778 12
451 1 -2.37666 -12.9858 -5.46186 15
452 1 10.8643 0.141653 5.88895 13
453 1 4.52279 7.50737 6.43342 18
454 1 5.66886 1.73043 1.26801 22
455 1 -5.64466 7.03413 -4.25096 16
456 1 10.3034 6.68854 -9.69237 12
457 1 8.72279 -7.95182 -9.13229 16
458 1 -2.1867 10.6834 -6.18731 11
459 1 -1.25502 -14.2695 -8.48977 20
460 1 -11.2789 -6.96984 7.68786 14
461 1 -10.513 -4.89443 -14.909 12
462 1 -0.837588 -19.2757 -3.22717 18
463 1 -8.42448 -2.75921 -9.4543 20
464 1 -12.3449 -3.41246 -12.1258 14
465 1 9.87592 -13.9189 6.3789 8
466 1 8.17842 0.520209 3.39645 21
467 1 -2.68363 -11.8093 4.29087 23
468 1 -16.1189 -10.2296 -10.0683 10
469 1 2.60581 -9.39479 3.82513 18
470 1 -2.39526 0.461516 6.53124 20
471 1 4.35006 2.66172 -13.7703 14
472 1 9.50223 -0.357078 -10.2215 17
473 1 0.377282 -15.5111 -11.5747 18
474 1 7.29971 -8.03314 7.52936 18
475 1 4.46036 6.99613 1.05281 17
476 1 11.5039 -14.9426 -1.034 12
477 1 -3.86912 -0.416494 3.09089 23
478 1 -11.8747 -11.4943 -2.62937 20
479 1 -13.4183 -5.42827 -9.32093 17
480 1 5.03825 2.76209 11.1009 12
481 1 1.8822 -15.4419 9.91124 9
482 1 8.63672 3.03746 6.2037 14
483 1 1.11972 9.2828 -2.76546 20
484 1 7.86296 -1.45282 -4.06681 18
485 1 7.84546 0.00586769 0.130797 20
486 1 4.19758 -3.06067 -15.0722 14
487 1 -7.9814 -8.91088 2.02434 18
488 1 7.23329 -4.98339 -13.7424 14
489 1 -0.252142 -10.3823 -10.0175 21
490 1 8.96938 -9.57312 -6.99545 21
491 1 4.56765 -2.12425 6.48237 23
492 1 5.67162 -0.0405141 -2.06496 24
493 1 12.8266 -0.614604 3.03072 14
494 1 1.92753 -8.45551 10.354 19
495 1 -6.49106 -2.41191 4.97353 21
496 1 -0.0936075 -1.12621 -16.8966 22
497 1 0.612576 2.81036 6.2599 21
498 1 1.11076 -5.00927 9.98113 18
499 1 10.4524 6.0345 -4.06737 12
500 1 0.556746 -17.4143 -8.51538 22
501 1 -3.6272 -5.10361 -10.0518 21
502 1 2.8164 6.13472 -1.33338 22
503 1 7.47512 7.60737 -4.9698 18
504 1 -1.26412 -3.44274 3.87627 22
505 1 4.18731 7.7301 -4.60669 23
506 1 6.62093 4.88869 0.816954 21
507 1 -9.61284 -18.5182 -8.04813 14
508 1 -1.25483 -6.58353 -20.2513 9
509 1 -11.7192 2.06883 -13.9856 7
510 1 5.27215 -13.1656 -14.7663 16
511 1 7.95715 -4.87015 1.84904 19
512 1 7.07067 4.36398 -12.3608 14
513 1 13.6905 0.839555 -1.78196 12
514 1 0.613342 -1.31342 2.36973 20
515 1 -10.716 0.218352 -1.12612 20
516 1 7.31674 0.00672868 -8.21858 21
517 1 2.0111 -20.3308 2.28589 10
518 1 -5.29021 2.24475 -13.7584 14
519 1 1.13945 10.1759 3.671 11
520 1 -2.74456 -7.9513 4.62591 21
521 1 8.64582 9.18924 -8.17026 7
522 1 8.62936 8.36761 -2.1474 13
523 1 11.7696 -12.2319 -3.31369 15
524 1 -12.1947 -10.194 -0.503465 18
525 1 3.48623 -19.303 -4.47116 13
526 1 -7.19131 -10.0501 -18.4475 16
527 1 1.72794 0.00462216 6.66201 17
528 1 3.27816 -11.8461 -7.16719 23
529 1 6.21279 6.18644 3.57826 18
530 1 -10.4337 -6.39321 2.47089 22
531 1 0.536199 -20.5416 -9.13111 14
532 1 4.992 1.82043 -10.7567 20
533 1 2.95852 -11.1184 -2.3307 22
534 1 0.860533 6.0977 1.0853 20
535 1 2.20358 -10.7463 -17.8934 14
536 1 1.16687 -13.0283 7.60906 18
537 1 0.679646 11.0825 -0.284193 10
538 1 -5.19212 -2.7101 11.2639 20
539 1 -11.7678 -13.1734 -15.3575 12
540 1 1.46321 -4.94625 -12.672 18
541 1 -0.977416 9.18262 1.77608 16
542 1 2.51476 -17.3913 -13.2526 14
543 1 1.82542 -11.726 4.89259 20
544 1 3.2402 -18.4831 -9.8061 18
545 1 -11.5906 -9.68068 6.55126 12
546 1 -0.520709 -5.36806 -10.7117 23
547 1 -7.92523 -18.1348 -11.373 14
548 1 -12.0361 -4.2329 4.03157 14
549 1 12.327 -4.0023 -8.3708 11
550 1 -5.51028 1.71761 1.24329 18
551 1 -11.2434 0.0715464 2.41491 17
552 1 6.73645 -7.58239 -2.78882 21
553 1 -0.0286669 3.96854 -7.86272 17
554 1 10.1354 -10.478 -9.54758 19
555 1 8.84622 -4.8793 -7.84241 19
556 1 -10.5764 -5.6832 -8.69121 17
557 1 -11.6311 -13.2388 -7.41016 22
558 1 5.12124 7.29182 -9.44157 12
559 1 -3.46044 -2.40343 5.36315 20
560 1 -7.51072 -9.73837 10.9747 12
561 1 -3.67297 -16.9068 -14.3824 14
562 1 -7.05199 3.30941 -11.2342 12
563 1 6.1931 9.61974 0.104768 9
564 1 -6.1075 -10.3574 8.28172 21
565 1 8.39235 -3.41037 -10.8515 19
566 1 -4.16703 -21.4406 -8.05055 10
567 1 1.69714 -2.36839 -11.5765 18
568 1 -3.85246 -4.76204 -17.9748 13
569 1 1.39101 -2.59785 5.14549 20
570 1 3.27926 -1.81512 -18.0176 12
571 1 -8.64415 -8.83412 -8.16873 23
572 1 3.99229 -8.14645 -0.78657 18
573 1 -8.49519 -15.395 -3.26066 18
574 1 10.311 0.494164 -7.15217 19
575 1 11.4512 -11.8403 -6.56042 18
576 1 -3.73314 2.52827 11.0268 11
577 1 8.50662 -10.4801 1.54127 24
578 1 10.5433 -13.6838 2.00322 14
579 1 9.5438 -10.974 8.30831 11
580 1 5.87809 5.07128 6.32977 16
581 1 -4.45119 0.48131 8.73306 19
582 1 -3.10939 -19.3835 3.13377 10
583 1 10.7507 -4.29107 -2.15469 20
584 1 6.28638 0.41049 6.1691 21
585 1 -13.8161 1.45856 -2.56432 11
586 1 6.66167 -14.0503 -9.2352 17
587 1 3.35449 0.312251 0.148929 21
588 1 4.12425 -6.91443 9.19168 19
589 1 -4.9058 5.56976 2.09668 20
590 1 3.50519 -13.3046 3.10768 22
591 1 -9.26112 -7.52515 -5.0517 19
592 1 3.21544 -0.652423 14.2744 7
593 1 1.44672 3.20542 -0.284805 22
594 1 -7.97587 -10.8438 5.58748 20
595 1 7.18684 -6.51584 10.9274 13
596 1 6.40896 -11.3582 6.50435 20
597 1 5.15952 -0.373179 3.12451 20
598 1 -4.94393 -0.967703 -6.45663 19
599 1 -0.401018 -11.8075 -13.4618 23
600 1 -8.35106 -1.67937 -18.0498 13
601 1 -6.24034 -5.57918 13.3228 11
602 1 -1.16932 11.5123 -3.41764 12
603 1 10.219 -1.89095 3.64846 19
604 1 7.64587 5.0551 -9.57337 17
605 1 -1.88918 3.08609 9.43579 16
606 1 2.61072 1.54932 2.44294 22
607 1 6.1094 -7.83822 -13.8819 16
608 1 -2.99627 -17.0021 -8.78767 20
609 1 -4.51429 -7.71828 -11.5269 18
610 1 13.4943 -2.90846 2.09635 13
611 1 -0.199139 -6.667 -15.423 18
612 1 -1.74982 -13.2573 -11.0304 21
613 1 7.86584 -7.87236 1.58442 19
614 1 7.47575 -11.2 10.9049 12
615 1 -5.1333 -11.0595 -16.7679 19
616 1 6.03043 9.70895 -6.59753 13
617 1 -5.81518 -9.71842 3.51067 20
618 1 -13.4711 -5.40488 1.34857 14
619 1 14.34 -2.51361 -5.54816 13
620 1 2.8107 -7.33935 -17.795 16
621 1 -11.0109 4.22963 6.36495 14
622 1 0.6588 -2.20668 -19.3953 12
623 1 6.69268 -11.7928 -6.43092 17
624 1 -11.7898 -5.61111 -1.14366 19
625 1 11.6096 5.07165 1.49319 12
626 1 -14.5868 -15.1204 -6.04297 10
627 1 8.21669 -0.334718 7.51701 16
628 1 -15.2634 -6.65908 -10.429 10
629 1 -6.69426 0.980243 4.0516 22
630 1 -0.879832 -1.52865 -9.7022 20
631 1 3.3738 -13.3603 -17.3803 13
632 1 -10.8624 -12.7563 -11.9408 17
633 1 10.5728 -13.8666 -10.6879 12
634 1 -15.9036 -1.17374 -1.91696 11
635 1 -14.3927 -7.29204 -1.06023 15
636 1 -13.1175 -15.7347 -2.95276 11
637 1 5.48708 -9.58332 1.31723 17
638 1 6.56291 -10.9447 -1.45437 20
639 1 -9.82926 -0.944849 4.50218 18
640 1 2.98207 8.1853 4.24427 18
641 1 2.91971 0.226626 -19.881 7
642 1 -5.67093 8.01423 3.57738 11
643 1 11.4007 2.65295 -4.47771 17
644 1 0.631887 5.55765 8.30607 17
645 1 7.15867 -8.69675 13.3314 9
646 1 1.82377 6.27494 -9.55832 16
647 1 -7.38838 -0.728933 9.74411 20
648 1 -3.39926 -12.7616 -14.794 22
649 1 -15.977 -3.3844 -8.03932 16
650 1 -1.32805 -13.1921 6.23232 24
651 1 2.41531 -2.02837 8.71066 17
652 1 -5.85935 -20.0511 -5.07276 12
653 1 -12.6314 -7.44564 4.42601 13
654 1 11.1156 -4.03656 -5.87319 18
655 1 -8.36397 0.601276 0.839276 19
656 1 -8.76132 0.47373 6.98983 21
657 1 -6.1332 -16.1748 -12.6804 16
658 1 -1.33481 -16.7622 -6.11732 19
659 1 5.51805 -16.4718 -3.88165 21
660 1 1.17284 3.82379 -10.7698 16
661 1 15.3445 -1.27127 -2.71905 9
662 1 11.1566 0.694789 0.997136 21
663 1 11.2971 -9.2801 -4.25269 19
664 1 -7.61991 -2.49628 -14.6512 19
665 1 -6.56885 -17.8771 3.51664 13
666 1 4.86814 4.4023 -10.4059 22
667 1 9.57092 -2.1072 -7.12578 20
668 1 -6.09391 0.408738 -9.36983 17
669 1 2.33855 1.94057 -8.46332 19
670 1 -9.45958 -11.4818 8.27627 16
671 1 3.60342 4.4603 1.85869 21
672 1 1.09953 -20.106 -1.31873 12
673 1 2.21926 1.45392 -5.6123 19
674 1 3.23554 10.5465 6.55127 8
675 1 -9.92706 -1.28358 9.92704 17
676 1 8.29739 -4.04718 -4.31078 21
677 1 -5.79854 -7.31472 9.63395 16
678 1 8.09128 -12.8633 3.69556 16
679 1 -8.16132 -7.71523 4.44999 20
680 1 7.26496 -2.89803 5.07591 20
681 1 14.2415 -11.6686 -6.38295 8
682 1 -10.5926 -8.14758 -14.7211 19
683 1 -4.54484 -2.99418 -14.2203 20
684 1 -11.7718 -1.75783 -4.52716 18
685 1 9.6379 5.21551 -1.2968 18
686 1 -4.09705 3.01858 3.0219 17
687 1 -11.5682 -15.5483 -13.296 13
688 1 -2.76758 4.05845 0.538188 21
689 1 9.37863 -4.94645 9.41598 10
690 1 -10.021 -13.7082 -0.68723 17
691 1 4.75947 -15.7643 -15.4051 10
692 1 1.62318 -17.3391 -1.02678 19
693 1 -5.43803 0.597058 -19.2674 10
694 1 -7.42455 -7.7604 -12.9541 18
695 1 -8.84979 -11.333 -6.31489 20
696 1 -11.6519 -5.21517 -4.43882 18
697 1 -1.80343 6.12597 6.348 15
698 1 1.82106 -7.81816 6.97503 21
699 1 -9.72388 -16.1149 4.49354 11
700 1 7.48417 -5.24881 -1.1699 20
701 1 1.43309 2.99583 -14.0418 16
702 1 10.6194 2.29377 3.35482 15
703 2 -7.92029 -6.6908 -17.7768 18
704 2 -5.55984 4.37008 -10.4923 14
705 2 4.91218 -9.55591 -14.7447 16
706 2 -6.73027 -1.78605 11.6167 14
707 2 -9.78138 -11.1621 -12.1031 19
708 2 -2.04929 1.66702 10.8834 14
709 2 -4.50264 -13.0183 -4.76663 17
710 2 -12.3627 1.03863 -12.5175 11
711 2 -0.920887 11.0722 -1.55974 12
712 2 -6.46478 -3.29552 3.15911 17
713 2 6.97697 -3.4679 1.0636 21
714 2 -2.7338 -1.54656 -11.1231 20
715 2 -13.1835 -13.2607 -8.67938 17
716 2 -7.61804 -5.5668 -1.22163 19
717 2 -7.10627 -9.29385 4.86816 21
718 2 4.26089 -1.87559 9.7267 17
719 2 1.83173 -10.3849 -15.7474 21
720 2 3.58325 -19.6723 1.90403 9
721 2 3.14087 -6.18602 0.40605 19
722 2 -14.6088 0.534051 -5.21971 15
723 2 -14.4653 -1.19276 -11.3265 13
724 2 13.5815 -2.69314 3.93694 10
725 2 11.0705 -14.0296 -5.68787 13
726 2 -9.75738 -15.7792 -4.64 18
727 2 -10.2091 -4.80278 7.67336 17
728 2 3.30043 -15.4578 -0.618869 19
729 2 8.71835 -9.37541 7.64876 14
730 2 -2.06502 -18.3724 -13.4022 14
731 2 3.51116 -8.36073 11.4537 13
732 2 0.245636 4.87121 -9.49643 17
733 2 -13.4347 -15.8555 -7.33194 12
734 2 5.76305 4.15448 9.80824 13
735 2 -11.3533 -1.29768 -2.70532 17
736 2 -0.417208 2.23362 8.42912 18
737 2 -8.61917 -2.29705 -5.83731 22
738 2 7.83865 -18.5021 -2.72927 11
739 2 -8.73883 7.18178 8.78169 6
740 2 -5.07201 6.84066 -8.7284 12
741 2 -2.74264 -15.9744 -15.6739 16
742 2 -7.07075 -11.6538 -14.109 17
743 2 -4.47475 -9.54322 -15.5412 20
744 2 14.7917 -2.87668 -3.63916 11
745 2 -5.12103 2.08437 9.83769 15
746 2 9.17232 -12.3882 -13.4672 8
747 2 -2.02736 7.42866 -8.75672 12
748 2 11.3519 6.09721 -6.20661 11
749 2 -2.1936 -5.15774 11.7506 15
750 2 -4.30779 0.729746 -0.344236 23
751 2 7.57771 -3.90791 -8.9727 19
752 2 -2.50175 -11.6463 -19.6846 10
753 2 -11.5484 -8.94195 8.45583 10
754 2 12.6021 4.09349 0.302352 11
755 2 -4.91167 3.54351 1.39488 18
756 2 1.25991 -12.0012 -12.6479 22
757 2 -6.09193 6.46031 0.525808 16
758 2 3.57612 -14.2413 9.42948 14
759 2 1.14977 -10.4871 3.5647 18
760 2 -10.9816 -3.09971 -0.232468 20
761 2 12.8712 -11.7573 -4.89013 14
762 2 7.02845 -13.4712 -7.37069 17
763 2 6.14128 2.20252 -0.590866 19
764 2 5.13031 -17.2435 3.21046 13
765 2 7.78857 -6.34467 0.323902 17
766 2 -3.65129 -2.70061 12.5124 15
767 2 11.6135 -13.6118 0.192476 12
768 2 -0.721196 -2.86969 2.1225 21
769 2 4.2534 0.11947 6.21205 19
770 2 -8.67174 0.769214 8.92934 19
771 2 3.00437 6.76871 5.69449 22
772 2 9.60517 -15.6208 -0.935971 15
773 2 4.35636 2.83481 -8.99446 19
774 2 -1.36782 -12.9165 -15.0754 22
775 2 -11.6322 -1.58622 8.83918 15
776 2 5.03789 -5.48566 -10.0171 20
777 2 -3.54362 -9.35435 -10.8787 19
778 2 -10.4773 -11.7422 3.36184 15
779 2 -11.9018 -12.4749 -4.17337 19
780 2 8.75139 -13.9799 1.13609 18
781 2 -1.40654 -11.1698 5.81534 22
782 2 -0.221674 -3.75081 5.56309 21
783 2 6.47492 -9.2462 -12.5048 15
784 2 3.19149 0.284211 12.7007 11
785 2 -2.55427 7.22605 4.91689 17
786 2 -13.0345 -6.56714 -4.62292 20
787 2 -1.21156 -14.2602 -17.4568 15
788 2 8.60824 -6.90041 -7.50253 13
789 2 -8.39566 3.74643 9.63203 11
790 2 -3.52477 -16.6677 -2.31694 19
791 2 8.3753 -13.6116 -10.307 17
792 2 4.94972 -3.77617 -7.77325 16
793 2 -1.06016 2.12589 5.32842 19
794 2 6.59875 -8.32779 -9.68309 19
795 2 2.86918 -8.57747 8.50233 20
796 2 -4.61808 -12.7138 1.33479 20
797 2 12.3231 -5.26672 -6.79532 15
798 2 -8.18637 -17.6053 4.95329 11
799 2 8.67318 3.31357 -12.5692 11
800 2 -8.99992 -12.3524 0.929714 20
801 2 6.91103 -10.5886 -5.01136 16
802 2 -1.64241 -14.5781 -12.4324 23
803 2 6.80611 -11.3294 4.85168 18
804 2 -0.858942 7.06472 1.66975 18
805 2 12.654 0.90628 -8.63713 17
806 2 -8.87933 -14.4643 -10.1346 19
807 2 -8.31479 -2.49989 9.67369 20
808 2 0.778986 -11.33 1.04073 21
809 2 -1.35298 -12.7017 -7.2159 19
810 2 -2.45179 5.2278 -0.86131 19
811 2 -10.8262 3.66832 2.69408 15
812 2 2.12604 -4.82844 -8.48165 21
813 2 7.27586 2.99005 -3.81879 21
814 2 3.22158 0.119993 -8.67492 19
815 2 -6.05903 -0.924172 8.2499 24
816 2 -0.254562 2.10751 -18.4034 10
817 2 -13.1113 -0.655765 1.43318 15
818 2 -3.78953 -1.04523 -2.61744 18
819 2 -9.95686 2.31603 6.75342 17
820 2 -10.6828 -5.39178 -2.53485 20
821 2 8.441 5.93493 -5.35632 17
822 2 14.1941 -0.936819 -6.54957 11
823 2 9.35548 -16.2058 -4.07623 15
824 2 -9.61112 -14.617 5.73942 12
825 2 5.96814 -4.41039 -1.7902 20
826 2 0.516109 0.779974 2.43625 23
827 2 -7.89884 -0.939506 -13.5947 16
828 2 -7.5866 2.44645 3.09479 19
829 2 8.98513 -6.767 9.92545 11
830 2 -6.54462 -11.1158 -10.0088 21
831 2 -1.01881 -6.40103 -13.5363 19
832 2 8.88257 1.6521 -0.608271 22
833 2 -8.48178 -13.3829 8.43784 15
834 2 1.69797 1.08839 -0.58689 23
835 2 -1.60353 7.25788 -3.16227 15
836 2 -6.30729 2.80162 -3.64682 19
837 2 7.49093 -1.22135 9.52255 16
838 2 0.780912 3.86931 1.4827 20
839 2 11.279 -14.8593 -9.26472 9
840 2 -4.67848 -5.3743 14.1584 7
841 2 -6.8824 -8.55891 7.9491 22
842 2 -10.7836 -8.83646 -4.30893 21
843 2 -11.9556 -11.3307 -15.5044 13
844 2 5.49075 -15.2623 -9.90677 15
845 2 2.37778 -4.8178 -14.7246 20
846 2 12.5106 -1.55421 1.27408 17
847 2 0.699363 -0.808654 4.93885 20
848 2 2.90885 -3.87719 -11.5333 21
849 2 -10.3968 -11.0771 6.55434 13
850 2 -5.74814 -6.44698 -20.0397 14
851 2 -1.42152 -17.7295 -4.3993 18
852 2 -0.172633 -13.8075 -10.0479 23
853 2 5.17051 -18.4358 -4.16211 16
854 2 10.9445 -0.968909 -5.94151 21
855 2 -8.32494 -5.66399 -20.6889 10
856 2 -6.81825 6.3252 6.67094 13
857 2 -7.19923 -11.7133 -6.77882 18
858 2 -12.4069 -8.49561 -15.6834 10
859 2 2.85815 1.87202 -14.707 15
860 2 2.82013 6.5577 -7.8514 21
861 2 -4.9852 -17.4611 -8.03475 17
862 2 9.99092 -4.4355 -0.246793 21