ITEM: TIMESTEP
13000
ITEM: NUMBER OF ATOMS
1500
ITEM: BOX BOUNDS pp pp pp
-30.0 30.0
-30.0 30.0
-30.0 30.0
ITEM: ATOMS id type x y z Coordination
1 1 -7.05322 -10.757 -5.23112 16
2 1 9.59786 -10.9882 9.2744 15
3 1 -12.3446 10.5558 -2.71726 8
4 1 -9.43425 3.66341 -6.08406 17
5 1 4.01858 -6.59556 13.9817 16
6 1 -7.63178 0.790414 -5.92054 18
7 1 -3.41512 -11.3882 -0.384985 17
8 1 -12.8859 -11.7145 7.62712 7
9 1 4.13403 1.25735 14.9349 17
10 1 -4.07343 3.45421 14.8128 19
11 1 4.24794 11.9519 -6.206 12
12 1 1.37939 -2.10657 14.6629 18
13 1 12.4932 5.53369 10.3589 10
14 1 1.00642 11.388 -8.02991 11
15 1 4.21873 6.55871 -9.34548 16
16 1 -1.51737 -5.09014 -5.96744 19
17 1 11.8191 -12.4778 6.58377 9
18 1 4.74477 -10.5761 4.3463 20
19 1 -0.318198 -12.0649 -7.58825 11
20 1 1.76413 -7.7656 -10.9355 15
21 1 -0.487595 6.09273 16.4433 12
22 1 -1.0578 -6.7166 12.7366 17
23 1 4.81841 -6.02912 16.5286 13
24 1 -15.8658 -6.84101 5.52781 12
25 1 -10.4419 0.150108 -1.1187 19
26 1 -2.46981 10.6687 1.28822 14
27 1 1.23657 1.21995 -7.28496 21
28 1 3.90674 -6.14135 -10.0122 16
29 1 -1.81322 -4.1199 14.5959 20
30 1 -12.5211 9.37617 5.17576 12
31 1 -1.11196 11.1909 10.3256 12
32 1 -6.52141 12.1258 -3.54472 15
33 1 -9.62475 9.62297 1.18129 18
34 1 -0.964457 -10.4125 7.60267 19
35 1 7.58792 -10.7113 -3.91286 10
36 1 -11.8738 1.59328 10.8875 14
37 1 -10.1873 0.946097 -7.67664 17
38 1 4.84227 -1.58606 9.50045 20
39 1 -7.25006 10.336 -6.41488 12
40 1 -7.59366 -8.89985 9.28325 17
41 1 -13.0762 7.17316 -6.68043 9
42 1 -1.49794 2.85257 13.316 20
43 1 4.46079 -16.1369 2.75773 13
44 1 6.00385 6.74909 16.5665 12
45 1 13.9393 -2.87901 -8.34475 11
46 1 7.54967 -9.10123 6.23154 18
47 1 7.3585 -1.02635 14.7031 15
48 1 -5.60774 -11.3012 8.39472 14
49 1 -12.3427 -2.2438 2.50447 20
50 1 9.28477 0.123271 12.0171 15
51 1 8.39397 -2.1546 -2.09845 23
52 1 -4.68188 10.1172 14.4125 9
53 1 4.38326 -1.41058 13.1884 18
54 1 -8.90945 -7.91336 -4.39714 19
55 1 -11.0533 7.20344 1.53718 20
56 1 -4.33839 5.53094 -6.73706 14
57 1 7.41808 -4.72906 -3.9091 20
58 1 9.77338 -9.81342 0.797083 13
59 1 7.13005 -9.30071 9.51223 18
60 1 -0.664245 11.8984 -3.11431 12
61 1 -10.9136 11.7513 3.4456 8
62 1 -7.58587 7.5702 6.13751 19
63 1 -6.82502 -8.36779 13.5336 17
64 1 11.9909 -6.58314 -3.48619 12
65 1 -14.4122 5.7553 1.10502 16
66 1 11.2663 -6.23198 3.24638 21
67 1 7.23066 1.97412 -7.17487 21
68 1 -2.83514 -2.21031 -12.2427 18
69 1 -6.75829 13.1194 8.81599 7
70 1 -10.1026 7.28 -7.74894 13
71 1 -1.26606 10.3307 -9.45786 13
72 1 -1.6974 8.54666 6.48123 21
73 1 -4.68149 -7.98342 11.0241 20
74 1 0.88057 -10.3787 -10.3011 9
75 1 1.76144 -4.48435 -7.06295 21
76 1 -3.74426 3.04713 11.1291 18
77 1 -13.16 -7.93269 0.934624 18
78 1 -10.7834 -10.3963 0.135628 15
79 1 11.6344 -6.69406 6.39339 15
80 1 -8.37673 4.92763 4.41241 22
81 1 5.12362 4.47884 -11.4929 15
82 1 3.07995 8.47871 -4.14891 21
83 1 16.5833 -2.61682 0.217464 11
84 1 0.139201 -13.8834 7.27364 13
85 1 -7.91859 -10.7736 0.663344 20
86 1 -14.1342 -4.03603 4.3295 18
87 1 14.163 7.68508 5.20805 10
88 1 -7.18558 8.12178 9.23022 18
89 1 -3.45429 13.1082 -2.55039 10
90 1 -0.774782 -5.91943 -8.74242 19
91 1 6.92987 -7.42597 14.3048 14
92 1 -5.28255 5.86167 -4.08908 19
93 1 9.59217 0.549701 -2.29927 22
94 1 -14.533 8.2623 -3.24031 8
95 1 -6.54769 14.4204 -1.57427 9
96 1 12.0085 3.61988 -11.4966 10
97 1 11.8607 -9.61826 11.506 6
98 1 -9.55345 2.75571 -2.97006 22
99 1 4.7885 12.1846 2.29593 17
100 1 10.1656 6.10116 0.920289 20
101 1 -6.13474 8.86928 -2.85826 20
102 1 -1.58159 -5.8271 -11.6462 18
103 1 6.47647 11.9095 9.86061 11
104 1 -14.945 -8.82175 -2.75007 12
105 1 15.9745 0.821455 0.870899 18
106 1 -4.53521 8.12532 7.38988 22
107 1 -3.25744 9.01374 -1.48511 13
108 1 5.45278 -1.77395 19.715 12
109 1 -9.75443 -5.34432 2.73408 19
110 1 -3.10179 -10.4678 9.74953 16
111 1 5.00067 -13.6873 -0.586501 16
112 1 3.48683 9.36313 -7.2241 19
113 1 5.69797 8.30433 -1.74499 16
114 1 1.48772 -7.95202 13.1776 14
115 1 -10.4658 0.0953467 2.33409 20
116 1 3.47486 10.9079 7.77548 15
117 1 2.52034 6.62582 15.2769 20
118 1 -2.70907 13.6963 3.44518 15
119 1 -6.55915 3.05555 -4.13424 20
120 1 14.2544 -7.1984 2.35839 13
121 1 -7.98338 -4.69423 7.19421 18
122 1 -15.6976 -3.75382 7.53757 11
123 1 -9.05114 -13.7691 7.81759 5
124 1 -15.1959 2.32355 -3.07187 12
125 1 -2.26146 -16.977 2.19904 13
126 1 5.89842 -8.01863 -0.493468 20
127 1 -3.24599 11.7163 7.01528 19
128 1 -9.12483 -2.66519 -3.03665 20
129 1 -6.89353 8.13589 -8.93724 10
130 1 -12.1604 -3.12363 -4.62871 19
131 1 -9.46111 -2.54906 14.3747 14
132 1 -0.508934 -7.69382 9.25562 20
133 1 9.12017 -13.5021 6.83416 11
134 1 13.966 4.69404 7.22111 11
135 1 4.70883 3.44417 -3.95479 19
136 1 8.35019 -1.90433 17.9065 9
137 1 1.1154 4.87183 -11.7257 14
138 1 10.0337 1.97735 -12.9294 8
139 1 -14.2744 -5.87175 -4.64519 16
140 1 -1.80726 11.9835 -6.05239 12
141 1 -5.75146 12.9133 2.04707 12
142 1 7.1892 -2.47689 11.3408 20
143 1 -2.383 -10.6338 -9.90584 11
144 1 -0.563167 7.46031 -11.5664 14
145 1 1.00839 7.91645 -9.35275 18
146 1 -7.24268 2.63318 9.75484 20
147 1 -11.1253 4.93236 11.9412 13
148 1 -3.15896 -8.70099 -8.02991 15
149 1 -5.76959 -16.7729 2.49802 14
150 1 7.36522 -12.0105 5.09035 17
151 1 8.13563 7.96805 -8.77024 10
152 1 -7.15716 10.9508 -0.368882 19
153 1 -14.2607 -1.04541 4.92775 16
154 1 0.899751 3.30133 11.2328 17
155 1 10.2886 2.438 -8.12346 22
156 1 0.318061 5.83366 9.61066 20
157 1 -9.70053 1.80804 7.01972 21
158 1 -10.4652 -5.58212 -3.50569 20
159 1 8.60621 4.60286 -11.4917 12
160 1 2.23677 -2.33682 11.1473 19
161 1 8.9392 7.19803 -5.5658 15
162 1 2.20823 -12.238 -0.366627 18
163 1 -4.71189 0.117508 -7.17801 21
164 1 8.52886 -1.824 -5.03023 23
165 1 -10.9421 -3.80023 8.95212 18
166 1 0.907487 -16.5879 2.22671 17
167 1 -9.12896 -9.63731 -6.80966 13
168 1 7.1087 13.3565 -0.085415 16
169 1 2.95879 -1.92008 -9.01061 20
170 1 4.14888 1.12507 18.179 13
171 1 12.4754 0.577078 2.8154 20
172 1 12.1745 -7.55688 -6.36165 7
173 1 -4.52928 -5.09663 -11.0626 15
174 1 -12.3489 -5.40793 -7.20133 15
175 1 6.73965 -4.16729 18.9574 9
176 1 3.94977 -4.31403 11.3229 20
177 1 -7.21832 -7.61517 -7.62577 16
178 1 1.37343 -4.81019 9.31769 22
179 1 5.97035 9.31009 -5.5347 15
180 1 5.80394 9.09938 3.62684 17
181 1 -6.24442 -7.81488 6.45432 22
182 1 -0.0124299 11.7267 6.4244 18
183 1 -9.03186 -6.15001 14.429 14
184 1 -11.3604 -10.5331 -4.44263 14
185 1 -6.72973 -5.6092 -5.39521 18
186 1 -5.76774 -10.8023 -1.80809 16
187 1 -4.42092 -11.002 2.7335 19
188 1 11.007 3.85305 6.37534 20
189 1 -6.23336 -6.79618 16.1865 13
190 1 -3.62031 -13.7303 -2.04096 16
191 1 -1.64734 -11.3844 3.16228 21
192 1 2.87834 11.6748 4.73692 16
193 1 3.02043 -1.72799 -12.4478 15
194 1 -4.27373 -7.98985 -11.5146 12
195 1 -3.39301 -13.8829 3.58061 21
196 1 -4.96234 -15.7879 -3.39357 8
197 1 -6.70834 0.170977 -12.5577 15
198 1 7.74457 3.85651 7.62192 18
199 1 -7.62078 0.817725 -9.54763 18
200 1 -1.75508 8.55631 -7.4302 20
201 1 -6.61212 -2.50625 9.22348 22
202 1 -3.46261 14.8654 0.513885 11
203 1 4.58888 9.38225 10.3138 18
204 1 9.27981 1.57731 7.78511 18
205 1 -11.5873 -0.229732 5.68493 21
206 1 1.45045 -5.55393 15.8072 14
207 1 -10.3347 9.38822 7.47852 14
208 1 -2.79447 -5.77704 -14.0918 8
209 1 1.89259 -10.7008 2.98056 17
210 1 -1.78136 0.0878162 14.7665 18
211 1 -11.4359 -8.25387 9.08632 11
212 1 15.276 -4.02112 2.78919 14
213 1 2.26436 -7.5605 -8.07609 21
214 1 6.31686 -12.999 2.54121 21
215 1 -9.36147 12.7191 -0.579527 9
216 1 10.7078 8.17501 10.9942 12
217 1 -9.47444 -2.48115 4.11425 20
218 1 12.3961 -10.0644 1.8052 9
219 1 -4.89538 7.91647 4.22673 20
220 1 -5.62375 5.15745 9.05858 18
221 1 6.21806 -11.7757 10.7145 12
222 1 15.0387 -2.81208 6.45747 12
223 1 -5.78983 6.53262 15.2185 12
224 1 -7.41322 -5.5456 -2.5025 20
225 1 1.52398 0.444094 16.6722 17
226 1 -6.66227 10.6245 6.9645 16
227 1 -7.53703 0.54916 14.6653 19
228 1 -11.5599 4.17758 5.8931 21
229 1 -3.99415 -5.62387 -4.3022 22
230 1 -7.75216 7.77878 2.54155 23
231 1 7.87868 -1.90872 7.63857 21
232 1 -9.45895 -14.8226 3.41117 12
233 1 8.43672 -9.56306 12.2631 13
234 1 -7.29772 10.7574 3.01014 18
235 1 -1.62956 -6.36541 16.7878 11
236 1 2.24281 -11.9733 -3.36351 15
237 1 -6.53369 -2.41843 -7.4733 19
238 1 2.95561 -3.54533 -14.9417 6
239 1 8.01548 11.4261 6.46033 12
240 1 -12.2719 -2.78931 -1.07857 23
241 1 0.486477 -4.07511 -13.5629 15
242 1 -3.42941 -10.9286 -6.62496 16
243 1 -16.0751 -5.72657 -0.763065 11
244 1 -8.46401 -16.5987 0.440819 10
245 1 13.8826 3.10641 1.18435 22
246 1 -6.68918 2.77702 -7.56522 17
247 1 -15.3533 -2.95048 -2.91009 14
248 1 -8.42474 4.64618 7.57725 16
249 1 -12.9369 9.39916 1.74567 15
250 1 -8.05204 5.07675 10.9724 20
251 1 11.1406 -1.738 -0.393043 20
252 1 14.7443 -1.16102 -5.0331 16
253 1 -1.81344 -7.80984 -3.66303 16
254 1 -2.38567 5.55245 7.91863 21
255 1 -10.5447 -0.289003 -4.6495 21
256 1 5.45567 -7.95716 2.84918 20
257 1 10.6348 -1.62958 9.76062 20
258 1 -13.3123 -0.396507 -3.28919 20
259 1 -9.0392 -8.28747 4.43789 20
260 1 -1.87403 14.0371 6.42676 10
261 1 -13.4643 -5.83255 -1.99713 20
262 1 -14.5631 5.73695 -4.82752 13
263 1 1.59109 10.4429 -5.3064 16
264 1 7.74947 9.36681 11.3202 16
265 1 -16.2847 -8.86983 0.619651 6
266 1 -4.40456 -4.9728 -7.81449 18
267 1 -14.3885 -0.520475 10.8071 10
268 1 -14.662 4.10136 4.17892 14
269 1 8.80719 -7.19208 7.8979 17
270 1 -5.80342 -16.7369 -0.962326 12
271 1 2.96816 7.13875 -12.173 9
272 1 -12.2889 3.09974 -4.74058 19
273 1 -2.74822 -12.965 6.52356 16
274 1 10.498 3.41734 9.27938 19
275 1 -3.17711 -2.32864 10.485 22
276 1 -15.408 0.0341553 2.16522 14
277 1 -7.58013 0.156459 7.89143 20
278 1 -5.73365 -14.0889 6.28041 16
279 1 8.92562 -8.16113 -4.73641 12
280 1 -14.5895 -0.593431 8.01632 18
281 1 -1.25915 -4.79893 10.7676 22
282 1 10.0771 -12.991 3.04283 13
283 1 4.56536 -4.60107 -5.89608 20
284 1 -6.81847 -3.84053 14.7871 17
285 1 2.32456 -7.48524 -2.21689 13
286 1 -7.19153 1.64956 -14.7249 7
287 1 4.69969 -13.9513 5.15298 14
288 1 1.50666 8.58777 1.69309 17
289 1 -4.01092 0.698798 16.5391 17
290 1 -9.06086 -7.16125 11.3698 14
291 1 8.04906 -5.17808 15.8137 12
292 1 4.22209 1.14147 -5.36207 20
293 1 7.37925 -4.47166 2.71357 22
294 1 9.86678 2.46785 -4.28892 21
295 1 0.0815905 7.46216 13.0438 16
296 1 1.81438 11.6693 0.935844 17
297 1 8.33865 -6.98199 4.36666 20
298 1 -2.55947 -16.0005 -0.11813 10
299 1 0.356947 13.2281 12.3683 5
300 1 -9.25393 -13.3633 -5.20357 8
301 1 6.42558 6.38702 9.53218 18
302 1 -8.02679 -0.200844 11.1474 19
303 1 -5.45508 -8.62878 0.052384 18
304 1 -12.1961 3.75222 8.67682 15
305 1 -10.0748 -12.006 -2.05952 13
306 1 -9.75449 8.51061 10.9007 10
307 1 -5.49695 -12.9648 -4.79497 16
308 1 -1.54054 -8.46074 -11.6498 15
309 1 -8.6808 -11.2743 3.01771 18
310 1 -9.60896 -1.98314 7.23104 20
311 1 11.8833 -4.43814 11.3739 11
312 1 -4.32374 -3.90154 16.2819 13
313 1 -3.53398 8.18581 -10.6039 13
314 1 8.09051 3.68627 1.02192 21
315 1 -6.01456 -13.112 -0.0845282 19
316 1 0.677238 13.6913 4.3391 13
317 1 0.916136 6.73308 -3.51577 22
318 1 1.33426 8.1112 17.8341 7
319 1 -14.8069 -2.88698 0.960401 16
320 1 0.950936 9.21811 -1.52561 16
321 1 -11.4366 -7.43332 -5.4359 18
322 1 -1.10016 -11.4189 -4.40775 13
323 1 -0.248347 -2.86864 -10.7746 20
324 1 -10.7309 7.27395 4.8771 20
325 1 6.71267 3.85988 17.9573 9
326 1 6.93743 6.0971 -0.231679 19
327 1 3.21901 5.83252 4.15957 19
328 1 -3.49327 8.37985 -4.58616 18
329 1 1.60016 3.58996 -5.3014 18
330 1 1.93203 -7.69155 7.73041 19
331 1 -14.4063 -5.64229 2.42178 16
332 1 -8.59246 3.98549 -12.4574 9
333 1 10.7364 3.7601 -0.870466 20
334 1 8.28527 -7.03312 1.26928 19
335 1 12.7049 0.435979 -0.392184 23
336 1 -1.44206 0.919189 -9.2101 19
337 1 -3.54026 -8.17979 4.42185 22
338 1 2.73692 -13.5952 2.10744 23
339 1 4.45282 -9.23481 11.8577 15
340 1 -8.08095 7.60037 -4.97293 17
341 1 -5.96423 -10.8726 -7.69998 12
342 1 3.29997 3.20268 -9.34081 15
343 1 -1.08381 -0.676956 18.1088 11
344 1 -12.757 -2.66349 6.73887 19
345 1 10.4516 -4.49314 -1.80685 18
346 1 14.104 -2.79931 -1.85289 19
347 1 -8.57462 6.0562 -2.90418 18
348 1 3.17423 -7.14037 -5.25885 17
349 1 5.39924 3.93415 -7.11388 17
350 1 11.5709 -2.22908 -3.54752 18
351 1 -5.00176 0.843874 13.1019 23
352 1 5.76346 12.6941 5.056 13
353 1 -2.56603 0.854348 -14.1727 11
354 1 -9.31272 -7.29647 7.23476 19
355 1 -3.6091 10.4083 4.53392 19
356 1 -11.0459 -4.16021 -10.1997 12
357 1 -16.1778 1.34563 5.713 13
358 1 -5.46006 -10.1186 15.2197 9
359 1 5.68094 11.6029 -2.76314 16
360 1 16.5527 3.57692 -0.14643 11
361 1 -15.7128 -9.66523 7.26673 7
362 1 -0.716086 -10.3776 0.769404 15
363 1 -11.4862 6.44495 8.72371 11
364 1 2.19631 -1.47353 -5.43107 20
365 1 11.3404 -6.94188 -0.077976 17
366 1 3.41202 14.3162 -3.76029 6
367 1 5.39309 -7.37947 6.24986 19
368 1 -10.7827 -0.0290256 9.17473 17
369 1 12.3061 7.20336 7.95223 13
370 1 0.264096 3.24967 -9.40242 16
371 1 -4.78368 -8.98431 -4.56938 16
372 1 -3.63089 -4.50112 12.5538 20
373 1 11.5395 8.4383 5.23124 18
374 1 8.14729 4.1715 -5.33974 19
375 1 -9.21985 10.4808 -3.12431 15
376 1 3.42089 14.7299 3.52735 11
377 1 10.1728 -6.96351 13.3077 12
378 1 10.2723 0.264338 -5.7394 17
379 1 -14.5393 -9.26209 4.20535 11
380 1 -2.03848 0.399055 11.0542 21
381 1 -0.892472 8.8331 -4.0202 21
382 1 1.78865 -15.2653 -0.378367 14
383 1 5.35213 -3.49542 -9.06311 17
384 1 -0.660328 12.5897 -0.222934 13
385 1 -7.57706 -6.65867 -10.7909 10
386 1 3.03824 -14.374 8.39974 11
387 1 -12.129 -4.5224 1.10166 18
388 1 -11.8093 -5.73123 11.7201 12
389 1 3.91631 6.5692 1.27368 22
390 1 8.86812 -7.19781 -2.09595 17
391 1 6.14839 -4.41709 13.3226 19
392 1 7.87275 3.37674 -2.2599 22
393 1 -10.4388 5.17963 -1.24833 19
394 1 14.9933 -6.17908 5.35957 9
395 1 4.54979 4.2594 15.4441 16
396 1 -8.86473 5.76349 -10.1783 11
397 1 9.79369 10.1516 8.39558 15
398 1 13.3097 0.7985 -10.5104 9
399 1 1.82136 1.00791 -10.6453 17
400 1 -2.27237 -13.7065 -5.01169 12
401 1 -10.2091 2.97106 -9.57911 12
402 1 13.3531 3.43572 4.63384 19
403 1 14.2906 3.01845 -1.80297 16
404 1 6.28736 -10.1164 -6.28363 11
405 1 6.08655 -7.39818 -3.63006 19
406 1 8.21698 8.77188 5.34786 23
407 1 -10.2593 2.30648 4.08743 19
408 1 10.4312 5.36495 -3.27364 18
409 1 13.4881 -0.944922 7.85805 17
410 1 13.4307 3.33524 -8.49983 13
411 1 9.26587 5.4032 11.9033 15
412 1 3.91445 -7.03202 9.33025 19
413 1 2.08917 -1.52727 19.2549 13
414 1 16.3794 -2.94197 -6.75574 8
415 1 9.14192 -3.69613 12.7087 16
416 1 -9.31339 -3.12612 -5.96292 19
417 1 13.7673 -1.15609 1.30321 20
418 1 9.9025 -4.38462 1.29574 22
419 1 8.52658 1.34154 15.6277 13
420 1 1.04015 8.85709 10.8109 16
421 1 6.67602 0.352062 9.64392 19
422 1 -7.88034 8.0359 -0.778964 18
423 1 9.11867 7.63241 -2.02679 20
424 1 8.76633 -3.11602 -10.6535 12
425 1 5.65551 16.0036 1.07193 7
426 1 2.74969 -13.2133 -6.37936 6
427 1 -14.9414 4.53256 6.70544 12
428 1 -5.25814 2.71984 -12.2907 17
429 1 -3.90397 -16.6809 5.1648 11
430 1 -7.69827 -3.4663 -12.2527 14
431 1 -12.9301 1.09156 -6.49091 12
432 1 9.69774 -3.78061 4.85013 21
433 1 12.1364 6.01009 2.90493 22
434 1 0.800962 -4.49175 13.0147 18
435 1 -12.0817 -2.0227 -7.7302 15
436 1 -2.95017 7.0519 13.9206 16
437 1 6.17586 10.5292 -8.80683 7
438 1 10.9478 5.87318 -8.20094 12
439 1 5.49541 -13.132 -4.03437 11
440 1 12.3874 1.36275 7.12068 19
441 1 9.24187 8.26387 2.46295 20
442 1 16.4838 -1.29141 3.21992 15
443 1 -6.71367 3.20949 12.7686 20
444 1 -12.0364 -8.96333 6.46223 18
445 1 -6.20713 -2.7306 -4.4902 18
446 1 6.26277 1.54969 13.0121 18
447 1 -1.88393 -9.27138 14.1622 13
448 1 4.84064 4.35397 12.2154 20
449 1 -5.66582 12.9281 5.50825 12
450 1 11.1469 3.33725 2.70943 21
451 1 6.3172 5.78146 5.949 21
452 1 0.332372 -1.07484 -13.027 14
453 1 -14.039 -3.33894 10.046 14
454 1 10.2634 -0.278817 -11.1605 12
455 1 6.76887 -11.2322 0.0464383 15
456 1 7.48559 3.24469 10.9171 20
457 1 4.5659 4.04299 9.56734 18
458 1 14.9427 4.95523 3.10807 15
459 1 0.432331 -3.88194 18.2851 11
460 1 -5.12078 7.18421 11.718 11
461 1 -0.445735 1.8556 -12.4459 13
462 1 -6.3369 -0.847904 16.2658 12
463 1 3.88005 -1.96315 16.8769 16
464 1 11.9704 7.41466 -3.51748 12
465 1 3.17168 -18.1853 0.308551 7
466 1 -10.9803 5.77733 -4.4881 18
467 1 4.25641 8.11263 6.262 16
468 1 6.87285 6.43339 2.63294 22
469 1 3.27707 13.8405 -0.47897 13
470 1 13.5523 8.46924 2.25372 10
471 1 -6.69441 -13.4074 2.9006 21
472 1 7.96775 1.97081 -10.443 19
473 1 -4.36345 11.2609 -5.12824 13
474 1 5.91792 -7.22661 -7.68203 14
475 1 14.5554 2.60947 -5.23067 13
476 1 11.8346 8.69645 -0.144451 16
477 1 -9.61582 2.29381 0.301622 20
478 1 3.91928 6.00398 -1.91356 21
479 1 -0.377792 -10.4097 11.6001 15
480 1 -5.60949 6.1304 -11.1481 12
481 1 -1.53298 8.93908 15.7105 11
482 1 3.90947 1.21607 11.2029 19
483 1 5.94196 14.8159 -2.2704 10
484 1 9.85748 11.0401 0.299304 13
485 1 13.1528 -4.514 0.360786 20
486 1 -9.51013 -10.3107 6.51809 16
487 1 2.09298 -15.2561 5.07052 15
488 1 -0.0533395 -2.1793 -7.85662 19
489 1 1.04161 9.21327 7.91975 19
490 1 -13.7075 -6.17145 7.31353 17
491 1 4.99562 -10.4949 -2.21889 18
492 1 3.34907 6.02009 -5.88839 18
493 1 6.09533 -1.34995 -10.7667 16
494 1 3.11554 -12.2523 11.6493 11
495 1 8.30267 11.387 3.04887 16
496 1 -1.5581 2.42238 16.8203 14
497 1 -10.1533 -6.9768 -8.52628 12
498 1 7.78697 -6.08923 -10.4572 9
499 1 -1.88924 12.1397 14.7484 5
500 1 6.36264 -16.0115 0.598962 8
501 1 4.41061 -10.0456 8.23737 20
502 1 -0.576884 -13.7827 1.31168 21
503 1 -12.7124 -3.19703 12.5547 9
504 1 -7.82019 -14.4708 -2.45873 14
505 1 -10.2187 -0.782163 12.6266 17
506 1 16.7124 -2.28152 -3.22118 9
507 1 -9.39377 2.36043 12.8706 16
508 1 -10.9435 4.45408 2.49312 20
509 1 10.7706 -1.24793 6.24642 19
510 1 -2.23848 5.90711 -2.12405 22
511 1 11.6271 -0.879483 -8.49808 16
512 1 6.57164 6.50257 -3.67444 19
513 1 -11.9544 4.6845 -7.28743 15
514 1 -13.7203 -8.62223 -6.1324 9
515 1 6.43329 7.40875 -10.9124 12
516 1 -0.81275 -1.65909 12.6848 20
517 1 -4.15398 -5.139 8.8652 20
518 1 1.71326 -4.75146 -10.2692 20
519 1 -8.34521 5.06254 0.881404 23
520 1 3.27835 6.7316 11.113 19
521 1 -10.7625 -4.57352 5.48187 19
522 1 7.31206 4.78563 -8.91955 20
523 1 0.295915 -13.3067 4.3083 21
524 1 0.591119 7.69251 -6.22722 18
525 1 -4.64901 0.151806 -10.226 15
526 1 0.586339 0.763304 13.4142 18
527 1 -3.59511 3.79833 -14.1766 6
528 1 -9.91547 -5.26547 -0.667693 19
529 1 8.03115 -1.44728 1.06984 18
530 1 -5.89107 -8.21189 3.05948 18
531 1 12.2999 4.474 -5.47527 13
532 1 10.2812 -10.6846 4.74974 18
533 1 -8.90364 6.92204 13.411 9
534 1 11.6205 -9.26594 8.18599 12
535 1 15.6207 0.92285 -2.52593 16
536 1 12.386 -4.0104 5.71162 19
537 1 -1.79944 8.24057 9.72896 17
538 1 -8.69246 4.44871 14.7702 13
539 1 1.67197 -11.833 9.23032 15
540 1 9.79581 1.50151 4.59074 21
541 1 8.42291 7.63534 13.7989 10
542 1 -16.2824 0.00566853 -1.03531 12
543 1 12.7373 -8.71612 5.02759 14
544 1 1.02911 8.77502 4.82709 21
545 1 7.64696 4.33497 14.2879 19
546 1 0.800919 12.7406 8.85627 11
547 1 5.95767 -12.6826 7.93136 15
548 1 -9.5113 -2.57283 0.803789 22
549 1 1.77944 4.0364 14.2298 13
550 1 4.12942 10.2243 -0.152624 16
551 1 -11.2858 -11.7947 4.16692 12
552 1 9.71626 -5.10323 10.2886 18
553 1 10.2143 -3.72561 8.01084 19
554 1 9.41563 7.52234 7.75916 18
555 1 4.12855 -9.2897 -8.73922 11
556 1 -4.17689 3.34828 -9.0852 17
557 1 -3.91557 -1.69854 14.1224 20
558 1 0.388463 14.8472 1.53972 12
559 1 15.2813 1.36369 5.39804 13
560 1 -1.84924 8.14105 3.23814 21
561 1 -3.46729 4.73766 17.2997 9
562 1 2.97226 9.61728 12.8826 13
563 1 6.07627 -4.40019 -12.5855 11
564 1 -7.29916 -16.2194 5.15375 10
565 1 -3.47376 -2.65654 -5.77017 21
566 1 11.7529 0.621931 10.096 14
567 1 5.90331 -1.72623 -7.15275 21
568 1 -3.41534 -7.96607 -1.7627 16
569 1 17.0865 2.27318 3.20138 12
570 1 3.57062 -4.37869 18.9465 12
571 1 -0.552443 -7.75091 -6.11935 17
572 1 8.93986 12.9967 -2.13287 11
573 1 -13.1141 1.94224 6.16752 23
574 1 12.7751 0.192192 -3.67148 20
575 1 3.22684 -5.8618 -13.3648 11
576 1 -9.50235 9.86553 4.85171 16
577 1 4.06141 1.05196 -12.6956 9
578 1 6.98983 -4.83375 -0.829131 20
579 1 -13.3991 -0.336956 -0.0381483 21
580 1 9.57265 5.84791 4.4948 19
581 1 -11.6895 -6.95268 3.89601 19
582 1 5.68885 6.96079 13.7037 20
583 1 -9.45746 -1.6921 -9.8664 14
584 1 -14.8278 1.89395 8.97376 13
585 1 -3.18537 2.94858 -4.87743 20
586 1 7.82646 -3.63406 -6.82954 16
587 1 -11.4337 -8.47274 -2.23944 22
588 1 10.49 -3.72555 -5.24019 18
589 1 -13.3471 6.20298 3.52891 17
590 1 -8.10316 -8.21877 -1.21471 17
591 1 -3.84888 -10.3226 5.68943 18
592 1 13.6861 -2.34027 10.1464 9
593 1 7.88561 -1.01234 4.63563 20
594 1 -12.8444 1.47815 3.07395 19
595 1 4.05405 9.61256 16.0578 10
596 1 -1.68058 6.05485 -5.19682 22
597 1 -4.7561 12.0727 11.7383 6
598 1 11.0025 10.4484 -2.81752 10
599 1 5.90177 10.3941 13.2623 12
600 1 6.45434 -6.83142 11.3174 17
601 1 8.00237 10.2105 -3.85474 15
602 1 -6.79965 -6.29502 9.37129 18
603 1 -3.29582 -1.91573 -8.95159 18
604 1 -15.3564 2.79703 0.346451 13
605 1 -3.71856 -10.8062 12.7128 12
606 1 6.96613 -4.88661 5.9131 19
607 1 -0.666869 -13.5771 -1.86465 15
608 1 -13.6931 8.1884 -0.636831 11
609 1 11.6476 -4.77379 -8.2373 9
610 1 -15.4793 7.84711 2.96732 8
611 1 -8.71528 -3.79215 11.225 20
612 1 -7.4067 -4.84859 -8.94719 21
613 1 1.43008 -9.56554 -4.84601 13
614 1 4.21214 -9.97603 1.30219 20
615 1 -1.55865 5.74032 -9.08629 18
616 1 14.6412 0.210702 -7.32165 11
617 1 7.53908 3.49855 4.52065 18
618 1 10.7099 -2.01069 2.80893 20
619 1 -2.46286 4.29691 -11.5903 16
620 1 -6.62619 -5.93384 12.5112 20
621 1 6.84271 9.98464 0.958688 18
622 1 7.12514 1.11809 -3.93667 23
623 1 -12.3881 2.31688 -1.72807 18
624 1 -6.30954 -10.2644 11.3757 12
625 1 3.25747 5.59656 7.66682 20
626 1 -0.887187 -15.5199 4.62392 17
627 1 -0.432353 10.8196 3.34476 22
628 1 -6.93358 10.7709 11.4196 10
629 1 -6.37389 -2.12389 12.3959 20
630 1 10.1479 0.92103 0.901952 21
631 1 -4.28579 -7.00227 14.3064 18
632 1 1.43432 -10.4354 6.13247 18
633 1 7.50985 0.907562 18.4252 10
634 1 14.0248 -5.74609 -6.39713 10
635 1 -5.80536 -2.27856 -10.5911 18
636 1 -4.19937 9.69483 -7.76964 16
637 1 -14.8964 5.5323 -2.01054 12
638 1 6.36066 9.44475 8.28002 19
639 1 -1.78787 5.79149 11.5284 16
640 1 -9.26646 -13.6168 0.419632 17
641 1 -5.30502 9.44785 1.56443 18
642 1 10.567 2.75083 12.4355 13
643 1 -3.25799 -7.75794 7.77187 21
644 1 8.56809 -0.592862 -8.44291 21
645 1 7.65346 -9.97412 2.96778 22
646 1 4.77213 0.672531 -8.90194 19
647 1 -5.22731 -1.54912 -13.9669 11
648 1 -9.77621 -8.12729 1.11417 18
649 1 -10.2091 9.65408 -5.39368 10
650 1 -6.17747 2.96494 16.4826 13
651 1 7.00246 -4.88157 9.17441 19
652 1 -6.54284 -10.6262 5.09161 20
653 1 13.6315 -0.864261 4.81155 19
654 1 -1.20954 3.15693 -6.979 18
655 1 13.6878 5.89026 -0.218621 16
656 2 -9.44304 0.420984 -6.07068 21
657 2 -0.132197 9.91038 -2.83999 14
658 2 1.70819 -2.46895 -10.5363 17
659 2 -7.56798 6.31007 14.3676 11
660 2 -9.44589 -10.9324 -5.05195 14
661 2 5.9297 1.97703 18.3655 12
662 2 -14.5747 -10.9595 7.77179 6
663 2 -14.3113 7.61814 -5.22485 10
664 2 6.56301 8.4646 9.94911 21
665 2 -13.4749 -0.191117 6.48858 21
666 2 5.9747 3.88664 5.517 19
667 2 -14.5088 -8.90329 -4.53025 10
668 2 -9.60999 0.170376 0.750588 19
669 2 -1.2582 -9.94651 9.58124 15
670 2 2.14732 1.63768 10.8418 18
671 2 3.42294 -4.15725 -9.03176 19
672 2 1.7323 -15.0096 6.89299 13
673 2 -6.2252 8.18082 0.477812 21
674 2 -11.9016 -0.0348697 -7.68162 13
675 2 9.81271 7.05856 5.97645 21
676 2 10.8184 -10.8698 2.67146 14
677 2 -7.65017 -14.2455 -0.429166 16
678 2 -10.3667 -8.55807 5.95119 16
679 2 -1.14284 -14.0481 5.96976 18
680 2 7.7358 -4.11248 7.6495 20
681 2 0.785931 -11.4865 -4.45131 15
682 2 4.0885 -1.09549 18.7385 14
683 2 -0.0959296 11.2695 -5.29629 16
684 2 -9.76236 -7.18989 2.99212 16
685 2 -1.26334 7.19854 14.4221 14
686 2 -11.5657 6.3484 3.49195 22
687 2 -1.65468 4.64011 16.797 12
688 2 -10.8618 10.0724 -3.78107 10
689 2 6.26517 -12.8771 0.656782 17
690 2 -1.67328 6.2757 9.63455 18
691 2 2.59338 9.87705 1.14851 15
692 2 7.78904 -6.87401 -3.8724 16
693 2 4.85044 -1.47042 -8.87224 17
694 2 7.98166 -0.673574 -3.42743 21
695 2 -4.50087 5.04953 15.6584 12
696 2 -5.45884 3.02123 -14.499 10
697 2 -0.533513 9.00271 -10.486 14
698 2 4.59321 7.16874 -3.24984 19
699 2 -5.30872 -2.17913 15.5543 16
700 2 -13.6868 8.45311 3.85245 15
701 2 10.4165 0.479153 -7.96176 18
702 2 3.47802 -12.7599 -4.64181 10
703 2 -15.6712 -8.74868 5.71346 11
704 2 10.0162 9.06971 4.18945 17
705 2 -4.25248 5.46459 7.96777 17
706 2 -4.35341 -13.9838 -3.8561 13
707 2 -3.02284 11.3917 10.8704 9
708 2 5.42205 -8.39516 10.43 17
709 2 7.48577 -7.80375 2.90179 20
710 2 -14.2848 1.58225 1.68016 14
711 2 14.8118 -5.69191 3.43335 12
712 2 8.38444 -12.7577 2.99468 16
713 2 7.60577 6.06564 7.72756 18
714 2 7.39785 -12.9484 6.69017 13
715 2 14.7819 -2.27668 8.461 9
716 2 -6.29136 1.10799 16.3731 13
717 2 16.9303 -2.69106 -5.01567 7
718 2 0.401255 2.88327 13.2742 15
719 2 11.0878 6.58189 9.62845 15
720 2 -9.86121 5.27809 13.5603 12
721 2 4.05044 6.14398 6.11856 17
722 2 15.058 -3.63787 0.886321 14
723 2 -0.559351 7.29085 -8.05385 14
724 2 -13.5246 -6.54576 -6.12674 13
725 2 -6.91746 0.379194 12.7069 23
726 2 8.38726 2.44736 -8.52456 17
727 2 -10.6203 3.05709 -1.18116 19
728 2 -15.9854 0.829011 7.73263 13
729 2 -12.9232 -8.23932 4.60028 18
730 2 16.3951 0.531375 3.44725 13
731 2 -0.273011 -4.15267 9.00614 22
732 2 -1.98535 -2.0526 14.5364 20
733 2 4.65885 -4.25807 -13.8062 9
734 2 9.08283 3.74088 12.9873 16
735 2 -5.94915 6.92134 10.1372 13
736 2 -9.48538 0.638642 3.78543 22
737 2 5.00391 -6.73723 -5.80843 19
738 2 10.9533 0.913515 -3.88529 19
739 2 -11.4501 11.0028 5.02288 11
740 2 -2.76478 -10.9561 1.3969 19
741 2 6.06074 -9.38678 -3.33541 19
742 2 0.331503 3.89559 9.74229 20
743 2 8.13584 -9.76028 -5.57048 10
744 2 4.157 -2.40765 11.3591 18
745 2 -1.45302 -6.9053 7.63687 24
746 2 7.83447 0.972406 4.53367 18
747 2 -9.58575 -8.56588 8.83684 15
748 2 11.6364 1.15213 -11.7365 11
749 2 -3.91296 -16.8553 1.38826 13
750 2 13.3862 -6.52301 -4.78645 8
751 2 5.73096 -12.3095 -2.12068 13
752 2 10.4244 -4.00274 3.09434 19
753 2 -8.24725 9.79927 6.44507 16
754 2 15.8414 -2.33183 -1.56358 14
755 2 -8.05493 -6.78144 -5.97433 19
756 2 -6.40842 -12.6703 4.77736 22
757 2 -7.14833 -7.16 4.3695 23
758 2 -4.9624 -13.0373 1.49926 19
759 2 -1.08167 13.8781 4.73683 15
760 2 -9.24662 10.644 2.96629 15
761 2 12.4039 4.55273 -7.32896 12
762 2 1.53301 9.05394 -7.73131 20
763 2 -8.71658 -4.31919 14.6252 13
764 2 -6.56995 -1.97376 -12.6931 13
765 2 -15.5516 3.08156 5.59741 12
766 2 -4.99085 2.79036 13.4164 19
767 2 -11.6975 1.86267 8.73743 20
768 2 6.36531 8.4699 5.46387 19
769 2 12.0487 -2.97502 -8.06914 13
770 2 10.9223 -4.63659 6.56584 19
771 2 -7.76863 -5.8011 10.8139 21
772 2 -4.77419 10.5119 6.2867 18
773 2 -6.40899 11.4568 -5.45831 13
774 2 -8.28687 9.55086 10.7701 11
775 2 13.5134 -3.51982 11.5922 7
776 2 -7.24069 -9.58486 -6.95143 15
777 2 -2.26534 2.76413 -12.9076 12
778 2 12.9611 4.05346 2.6892 20
779 2 -10.5555 -4.19486 11.0084 17
780 2 -1.12299 5.53206 -0.38537 21
781 2 -3.28398 12.4479 -4.37916 11
782 2 4.23805 13.8029 -2.15559 11
783 2 7.90862 2.56006 16.8256 9
784 2 -5.33817 3.21066 9.87683 19
785 2 11.4202 -4.23721 -3.63361 16
786 2 0.463822 0.0881824 15.3447 21
787 2 2.04366 -4.3819 11.4573 19
788 2 -16.3042 -1.75384 -1.79534 10
789 2 -5.95236 -5.74924 -7.36381 15
790 2 3.17351 -14.2194 0.408409 20
791 2 5.81412 -3.80431 -6.9689 19
792 2 16.0801 -0.595009 -3.30789 11
793 2 -7.66595 2.94916 14.9029 15
794 2 4.50169 2.85556 -12.2007 13
795 2 -6.29513 -10.2457 13.0929 11
796 2 -7.294 2.38704 -12.9157 12
797 2 3.1271 -11.5987 -1.80931 16
798 2 5.62075 -9.37828 6.09725 20
799 2 11.8504 5.83193 -4.43622 15
800 2 -6.10604 -0.0639837 -14.5161 9
801 2 -0.52618 13.0011 13.8835 4
802 2 -9.65596 -4.30637 1.10526 21
803 2 -5.15869 3.88823 -7.64728 14
804 2 1.28312 8.72764 -4.13094 19
805 2 1.25151 8.25822 -0.149869 15
806 2 -7.54948 -14.9686 3.62751 17
807 2 14.3802 0.534882 6.92896 14
808 2 -2.07795 2.44629 14.9988 18
809 2 -6.76964 -15.9807 -2.65744 12
810 2 5.47398 -9.97983 -0.26162 18
811 2 3.47 0.0796687 16.457 14
812 2 9.3415 9.54527 10.1871 13
813 2 12.3137 -6.22499 -7.39789 11
814 2 5.74177 3.11506 14.1433 20
815 2 7.26539 7.10987 -1.91634 19
816 2 -10.9016 -2.36845 13.3156 12
817 2 9.67527 -1.93608 4.84126 20
818 2 7.38422 11.9527 4.61006 15
819 2 2.94313 4.3466 12.0806 19
820 2 -3.21459 -0.909235 -13.9166 11
821 2 3.26678 -6.2916 15.656 12
822 2 -11.8657 10.6989 2.31004 12
823 2 -4.45972 -7.17118 9.30912 20
824 2 10.6229 -7.83175 7.52557 17
825 2 -10.5882 -12.3142 -0.145007 13
826 2 -5.29207 13.0455 -2.28661 12
827 2 -4.06371 -10.3235 -8.51207 12
828 2 -1.77661 -12.1411 -6.12368 13
829 2 -0.567608 0.822911 -7.20179 19
830 2 -8.41341 -6.62482 -9.27813 14
831 2 11.1679 8.91376 7.53018 14
832 2 -12.0005 -4.90552 -0.8327 21
833 2 -11.0916 2.68907 2.21082 19
834 2 8.10189 -4.99496 4.34332 21
835 2 -10.5821 8.13201 9.22286 10
836 2 -1.41255 -13.4677 3.10679 23
837 2 -3.97182 2.80868 16.8536 12
838 2 3.63684 4.03419 -5.54992 18
839 2 -4.89654 -1.75867 -6.59746 18
840 2 7.10385 4.34267 -7.04806 16
841 2 15.9672 -1.42918 1.39877 14
842 2 -9.91741 -4.97909 -5.41323 20
843 2 -12.0621 8.50449 0.223652 16
844 2 -9.03916 7.88433 0.852071 19
845 2 -4.40864 -2.35207 12.3028 23
846 2 -10.3886 -8.24738 -7.01545 17
847 2 2.43823 -5.21534 -5.36902 20
848 2 4.8117 -0.867406 -5.52449 20
849 2 1.23605 5.72087 8.01944 20
850 2 3.84459 -7.53657 7.30103 21
851 2 1.67659 -2.50579 -7.11599 19
852 2 8.30633 -4.01725 14.3768 13
853 2 10.1158 3.79803 -12.1851 10
854 2 -1.62458 -7.13277 -1.83978 18
855 2 -1.13199 8.05873 -5.66889 19
856 2 5.56524 8.43605 16.6818 11
857 2 12.7903 3.23452 6.51249 17
858 2 -10.9276 -7.12676 10.7244 11
859 2 -15.8639 0.234557 4.14189 12
860 2 -0.167464 -12.0377 8.03137 18
861 2 -1.38196 4.03841 -5.46659 19
862 2 -4.31815 -7.15147 6.14476 24
863 2 -7.47247 5.61603 6.39118 21
864 2 -12.8961 -4.33221 8.21477 17
865 2 2.69594 -10.5842 8.10714 18
866 2 -9.12868 11.0341 -0.38776 16
867 2 5.74123 -5.51934 -11.0243 14
868 2 -12.6896 -5.15334 5.55692 20
869 2 7.94275 -4.05568 17.3984 11
870 2 -9.5808 -10.0771 1.4581 17
871 2 -9.09438 -12.1147 7.00258 15
872 2 11.1755 -3.70248 9.75384 14
873 2 7.85565 8.77492 -5.09983 13