ITEM: TIMESTEP
966000
ITEM: NUMBER OF ATOMS
1000
ITEM: BOX BOUNDS pp pp pp
-30.0 30.0
-30.0 30.0
-30.0 30.0
ITEM: ATOMS id type x y z Coordination
1 1 -1.55939 -9.32791 -6.61274 19
2 1 7.2037 -8.28765 8.75332 12
3 1 -9.83803 8.22468 -2.57002 14
4 1 -12.7036 -0.601791 -5.68736 13
5 1 -0.248827 -4.73382 10.4233 19
6 1 -10.6494 -0.506074 -10.5083 10
7 1 -2.38575 2.51514 -6.25702 19
8 1 -3.57708 -13.5178 0.0356762 11
9 1 5.65722 -0.243766 4.79459 24
10 1 -1.52098 4.78826 9.06094 25
11 1 7.27496 1.03576 -1.3166 23
12 1 1.34878 12.3637 -7.41625 12
13 1 1.44566 -0.161689 11.8219 20
14 1 -6.01918 0.24304 0.616461 19
15 1 -3.66881 -0.205193 -7.83359 23
16 1 -2.66131 -0.858161 8.18673 21
17 1 1.41376 -3.31188 -6.0126 22
18 1 -0.62339 1.58168 9.91852 20
19 1 -4.38716 -11.7035 2.75274 15
20 1 -14.1548 -0.513075 2.89119 12
21 1 -12.2339 -0.520418 -2.59685 13
22 1 -2.45627 12.9139 -3.21032 13
23 1 1.62915 2.70845 -10.5157 21
24 1 2.54267 -4.30028 -12.2717 15
25 1 -3.91908 -5.24951 11.827 12
26 1 -10.8568 5.80013 -0.440794 16
27 1 -0.483005 12.1081 -1.14709 17
28 1 7.16312 -13.3034 2.5107 10
29 1 6.27696 -5.58602 -4.76616 21
30 1 9.05504 0.19359 4.06199 23
31 1 -8.7499 6.12244 -5.37038 17
32 1 4.28432 11.0422 -8.14601 13
33 1 3.0789 4.19514 1.91538 24
34 1 1.39145 3.35813 7.99258 23
35 1 -7.64538 1.66787 3.04876 21
36 1 4.43703 -2.19805 13.6971 12
37 1 -8.78683 -1.0057 1.82909 19
38 1 10.479 2.36346 6.43712 17
39 1 7.3702 -2.99651 -5.13602 18
40 1 4.37824 -1.13432 10.9044 22
41 1 -8.54908 -4.39448 0.358934 24
42 1 -3.85317 -3.69528 -12.2631 18
43 1 -5.08392 11.2026 -2.02246 17
44 1 -0.641974 10.0552 -8.95545 12
45 1 2.92598 -0.25818 -4.75467 17
46 1 6.26973 0.201711 -5.50588 19
47 1 4.64524 -8.81699 4.20391 23
48 1 3.27699 -8.0653 11.5325 9
49 1 -5.52504 6.5719 4.37719 19
50 1 -7.4639 -3.4044 7.34803 21
51 1 -9.89105 9.07906 4.02699 12
52 1 9.21302 -5.95755 -5.94089 16
53 1 4.374 -1.85403 -13.2252 10
54 1 1.4628 -0.488089 3.78872 20
55 1 -0.854872 12.3335 1.88538 14
56 1 -7.66138 5.62432 -7.87497 16
57 1 -0.0357961 8.87383 2.1296 24
58 1 0.448731 1.10612 -4.40969 21
59 1 -4.87669 -5.82254 7.44993 17
60 1 -2.7658 -3.49975 -7.88221 22
61 1 3.68392 -6.4418 -9.71691 18
62 1 -2.79046 2.46221 7.49901 22
63 1 -8.41619 -10.6809 3.60431 13
64 1 7.31262 -1.90521 2.85503 20
65 1 -8.74611 -10.5213 -1.22311 14
66 1 8.47538 -12.0126 4.63986 9
67 1 -1.71239 6.76937 0.64831 26
68 1 -3.65358 4.5508 -0.550968 22
69 1 5.48336 6.67461 -6.95786 19
70 1 8.86966 -8.56311 -0.562671 16
71 1 -8.26852 -6.6751 2.98271 18
72 1 9.27807 8.31236 4.84531 14
73 1 8.74831 6.19286 -0.497415 23
74 1 -4.16886 10.4433 -5.09213 15
75 1 -1.5773 -2.39111 -13.885 14
76 1 -0.336652 7.48202 -5.35786 23
77 1 7.88306 5.39366 -4.87898 20
78 1 1.22768 -5.13951 -3.24808 22
79 1 8.22298 1.43424 -7.51925 17
80 1 12.0071 -4.30822 3.37182 14
81 1 -6.64657 2.3594 -7.91461 20
82 1 -0.863551 3.18996 -1.82725 22
83 1 9.10103 11.0372 -3.34696 15
84 1 11.5107 9.69451 -1.31032 14
85 1 -1.71392 9.38552 -3.08879 23
86 1 -2.37401 -1.33254 -10.599 23
87 1 -11.5496 -5.03523 -1.11193 14
88 1 -3.67578 8.89845 5.8569 22
89 1 -1.24082 11.1921 -5.64747 17
90 1 1.69088 -0.349369 14.7121 10
91 1 -10.57 -3.84913 8.76228 14
92 1 -2.60951 -10.1972 4.32074 22
93 1 3.82946 8.64914 -1.50325 22
94 1 11.1165 5.55255 -5.25618 17
95 1 2.62608 -10.8738 9.82154 12
96 1 -9.18575 1.25962 -0.623955 20
97 1 0.860542 6.53848 7.55884 22
98 1 -7.9151 -0.853802 -9.25101 20
99 1 -6.03264 -5.3118 4.6029 21
100 1 -5.56952 -11.0128 5.75038 14
101 1 -0.723819 0.480977 1.902 22
102 1 -1.87954 -1.00406 4.42725 21
103 1 -5.57745 -0.351103 -2.62483 23
104 1 6.31846 -7.79441 -1.91769 20
105 1 -1.91524 11.1475 4.79892 15
106 1 -10.4779 3.4516 1.37885 19
107 1 -9.5603 -2.46349 -5.32096 22
108 1 2.52289 -7.6942 1.94866 21
109 1 9.76961 7.51367 -3.04268 22
110 1 1.406 2.78736 13.7222 10
111 1 -6.35131 -3.02816 2.17993 20
112 1 -3.58406 5.22481 -11.8566 16
113 1 -6.22378 -5.21182 -11.4924 10
114 1 -6.79914 8.52842 -3.48808 18
115 1 0.762168 4.28312 11.2563 18
116 1 -2.89112 8.66072 -7.13607 18
117 1 -0.428793 0.858327 -13.9158 14
118 1 -1.29689 3.6124 1.36899 24
119 1 -6.81662 6.36226 10.2564 13
120 1 -3.12953 6.69326 10.9033 15
121 1 1.35559 -8.44926 -8.25448 21
122 1 -2.45091 1.91363 4.14565 21
123 1 -4.61837 -0.225316 3.17467 17
124 1 3.97886 -7.36163 -3.47171 20
125 1 6.59688 9.29236 -7.9598 16
126 1 0.416866 8.67835 -0.733062 20
127 1 -10.5962 0.678582 4.03082 23
128 1 -0.157411 6.83255 10.6935 19
129 1 10.547 1.12433 -1.7513 18
130 1 4.07151 6.62342 6.77546 19
131 1 -8.04083 7.55156 2.23054 22
132 1 -8.84051 -8.29967 -3.98337 14
133 1 2.19672 -2.99114 9.22822 23
134 1 2.48481 -11.1375 -2.87557 14
135 1 -2.34474 2.12535 -11.8966 21
136 1 9.92296 -1.17608 -7.10754 17
137 1 -12.9095 1.57533e-04 5.91675 12
138 1 -6.87828 -6.87889 -8.41256 13
139 1 -5.52266 -5.80783 1.50368 21
140 1 -2.97008 -8.0213 1.41556 21
141 1 -5.45446 -2.59798 -9.36853 24
142 1 -11.0692 -2.34383 -8.15519 12
143 1 9.42344 0.787829 9.01661 14
144 1 4.29802 -7.95374 7.05372 19
145 1 0.494322 -5.41085 7.73035 21
146 1 10.4985 8.91271 1.75545 17
147 1 -8.7211 -9.40304 6.68353 11
148 1 2.17017 10.7717 1.12854 17
149 1 -4.02082 -5.74327 -9.2775 23
150 1 -4.81871 -10.765 -5.82249 12
151 1 -0.0810844 -8.87386 2.81921 20
152 1 -2.97611 -4.82816 0.277432 22
153 1 1.66181 -4.5098 1.78622 18
154 1 9.81968 5.77603 5.63754 16
155 1 -3.87416 -5.29911 -3.70223 22
156 1 -2.88449 -3.87565 8.98561 20
157 1 -7.54645 -11.7554 0.918502 14
158 1 2.8447 3.22042 -5.58097 22
159 1 4.05784 -9.59079 -0.692026 23
160 1 3.18532 -6.42207 -0.399225 21
161 1 4.50217 -12.5271 0.12036 15
162 1 -12.5474 1.60987 -8.03961 11
163 1 8.60365 3.49906 3.6242 24
164 1 -7.94203 1.08127 -11.8328 14
165 1 -0.91931 4.7737 -10.6423 23
166 1 -4.59898 -2.42608 5.79538 21
167 1 3.06496 10.4042 6.60221 14
168 1 8.36349 3.98675 8.50363 16
169 1 -11.1515 2.09566 7.51831 12
170 1 -4.77531 -7.39767 9.72415 13
171 1 -6.30498 9.93982 3.94946 18
172 1 -0.0332236 -1.72556 -8.701 19
173 1 10.0869 -6.35962 4.92472 14
174 1 8.27777 -3.61851 -8.31933 17
175 1 -3.40994 -3.9762 3.2 20
176 1 -0.223122 0.836151 6.53524 20
177 1 -7.50318 -1.16703 4.57041 18
178 1 7.77613 -8.82755 -6.00094 13
179 1 -3.42879 8.54937 2.68446 22
180 1 -5.03046 6.19451 1.36993 23
181 1 0.940521 2.78087 3.85803 21
182 1 5.48152 -10.7362 10.3509 9
183 1 -3.54784 5.64942 6.86878 23
184 1 -6.45634 -3.21607 -3.60914 22
185 1 3.76194 -2.27045 3.51875 21
186 1 -3.9317 11.5202 2.61518 20
187 1 -5.2871 1.47861 -5.05843 20
188 1 -10.529 6.42256 6.067 9
189 1 -5.39772 -4.69581 -6.61716 24
190 1 -5.75463 9.29451 0.721114 24
191 1 5.31712 0.392619 7.93641 23
192 1 0.63952 -8.8722 8.80521 14
193 1 -3.12632 1.23496 -0.242189 22
194 1 -2.25163 -4.70236 5.85866 21
195 1 2.83309 -9.40594 -5.33773 20
196 1 -8.16295 -3.62634 -7.97564 20
197 1 -9.25388 -4.08753 -2.4589 21
198 1 -0.261945 -11.0413 -4.52375 14
199 1 -2.77432 -2.4183 -2.2253 20
200 1 13.0706 3.11357 -3.71295 10
201 1 -9.01671 2.25571 -9.35073 17
202 1 3.59315 1.28455 2.52018 23
203 1 -8.61729 7.8025 7.47101 9
204 1 -6.43534 12.5468 0.337783 13
205 1 -6.37683 5.53233 7.60595 19
206 1 8.48479 -4.38701 -2.78385 19
207 1 11.8371 -0.758047 -4.18657 12
208 1 2.82452 1.44734 5.79964 23
209 1 -4.24346 7.72492 -1.55642 21
210 1 0.0302512 -7.00282 -5.35121 20
211 1 2.19459 8.0874 4.84508 24
212 1 4.81881 5.25083 -4.15929 26
213 1 -8.11207 3.17693 -5.37973 22
214 1 8.27362 -10.4432 -3.02131 13
215 1 11.1145 -1.01251 6.89114 16
216 1 -7.92519 -5.42505 -5.39667 21
217 1 -3.73881 -7.25126 4.35485 19
218 1 -2.50455 9.89543 -0.0357618 23
219 1 -11.3882 5.25626 -3.77111 13
220 1 -2.93409 -8.71261 -3.8167 22
221 1 2.39635 -10.9731 2.8162 14
222 1 -10.238 -9.10842 1.40241 14
223 1 -10.6441 4.31068 -7.01105 14
224 1 -0.0673282 -12.0824 4.33706 11
225 1 -6.01882 2.43699 8.39026 20
226 1 2.8204 0.141386 -1.89086 22
227 1 -8.07382 4.84915 3.35312 19
228 1 0.0233492 -5.42007 -8.08727 21
229 1 -0.399573 -2.33826 7.37433 20
230 1 -10.4235 3.39775 4.27514 17
231 1 -1.99197 -6.55686 8.83354 19
232 1 -7.00963 -6.51444 11.8433 10
233 1 2.71048 -6.16249 -6.33378 21
234 1 9.75649 -10.7598 1.64135 9
235 1 3.6096 11.5755 -5.02428 19
236 1 -6.38714 -8.0002 6.50938 18
237 1 7.71887 -6.7278 12.1266 8
238 1 6.70903 4.14842 -1.93173 22
239 1 -4.595 2.94922 1.70923 20
240 1 1.79704 1.26405 -7.85521 20
241 1 9.66852 -2.27726 9.58211 13
242 1 0.970701 5.31999 -0.11352 23
243 1 -3.7413 -1.91982 11.7188 17
244 1 2.89974 11.9735 -1.80843 15
245 1 6.25025 -3.71706 5.20655 22
246 1 -1.26074 -9.55648 -1.21889 20
247 1 4.615 4.08908 12.7658 12
248 1 -8.19211 2.5547 6.3663 18
249 1 -6.85592 -6.21013 -2.36251 22
250 1 -6.25837 -9.75337 -2.82257 20
251 1 -1.43627 9.78655 11.0977 9
252 1 -6.10897 -12.7761 -2.30706 11
253 1 -10.2848 -2.07454 5.85819 19
254 1 7.54929 2.07216 5.9949 22
255 1 9.35012 3.18157 0.560379 21
256 1 0.559953 6.84214 -8.78891 23
257 1 1.76683 6.57021 -3.02505 23
258 1 -1.9944 8.17777 8.0708 22
259 1 -10.9087 -5.95964 2.00933 17
260 1 6.81121 11.6745 -5.84378 13
261 1 -2.74803 -6.43106 -12.5167 11
262 1 -3.64264 -0.271095 -13.4453 16
263 1 12.0588 8.78069 -4.61924 10
264 1 6.05255 7.95826 0.8602 24
265 1 2.13842 5.74555 -11.9601 17
266 1 1.39737 -10.6549 0.125308 19
267 1 4.59804 2.10984 -0.368106 23
268 1 -5.40028 2.60923 -13.079 14
269 1 11.127 5.20183 1.54707 21
270 1 5.88444 -7.35945 1.27713 20
271 1 -2.38671 3.73599 -14.2967 12
272 1 -1.34953 -11.6842 1.5851 17
273 1 2.68218 -6.11662 9.32735 17
274 1 -11.4129 1.90988 -4.70674 16
275 1 5.18497 3.29258 4.20688 25
276 1 -0.806679 6.85246 -13.4173 12
277 1 -12.2341 -5.12466 4.73862 12
278 1 10.8444 -2.2596 -1.87733 18
279 1 0.0321325 4.22105 -4.65017 21
280 1 -4.91362 4.90914 -6.41608 23
281 1 -4.23689 -8.76159 -8.05942 15
282 1 3.34264 -0.486942 -10.5619 20
283 1 10.7739 -4.92493 -7.99573 9
284 1 -0.428665 -6.7454 0.28203 20
285 1 -11.5444 -1.02645 8.76121 12
286 1 -3.32022 12.976 -0.0294496 12
287 1 1.32702 8.49604 -11.4415 11
288 1 12.5458 3.69686 -0.442517 15
289 1 1.32905 -8.16259 -2.28267 22
290 1 3.88277 -1.35159 -7.40728 20
291 1 4.24549 5.53124 -0.952134 25
292 1 9.99158 -3.60084 1.15197 22
293 1 5.71291 -10.2281 1.98046 19
294 1 5.64846 -1.27544 -2.91794 24
295 1 -8.99502 4.46334 9.06546 16
296 1 -5.62464 -3.45021 -0.98427 21
297 1 -5.59417 -7.67925 -5.24279 21
298 1 -0.267857 -1.84746 10.1058 25
299 1 7.18686 6.22073 -9.81427 11
300 1 -6.27 7.93441 -6.38157 15
301 1 0.701173 13.2954 -4.1909 11
302 1 1.96257 0.339057 8.75508 23
303 1 5.49772 -10.729 -5.75528 13
304 1 4.5942 1.72984 -8.84502 20
305 1 -10.809 -8.13098 4.78194 13
306 1 -8.49414 0.130424 -4.05066 18
307 1 -9.2955 -4.62082 11.4349 10
308 1 8.18173 9.5009 -0.468128 18
309 1 3.54715 -10.1388 -8.76952 9
310 1 4.77775 -5.25454 12.3885 14
311 1 6.33764 3.25219 -6.5362 21
312 1 1.99286 -1.15404 0.814941 22
313 1 -10.5022 8.97541 0.643195 16
314 1 7.39182 -2.35575 -0.886889 23
315 1 0.270509 9.93134 7.20258 18
316 1 0.34076 4.07284 -7.65352 19
317 1 4.9313 4.0997 -11.4343 14
318 1 -0.218636 -5.10116 -14.2417 12
319 1 -4.04225 -7.62648 -1.11577 22
320 1 13.0983 0.75094 5.25481 13
321 1 7.26998 -6.47842 -8.74501 11
322 1 4.75097 -7.93708 -7.04516 18
323 1 6.01598 10.5728 -2.81798 17
324 1 -7.74617 4.05655 0.328487 19
325 1 12.2479 6.43711 -1.87186 16
326 1 5.62481 -5.9245 9.44184 19
327 1 5.00992 -0.765733 0.608119 22
328 1 6.37812 2.2182 10.3747 18
329 1 -9.34661 0.382998 -6.79823 22
330 1 12.6323 4.08511 4.6146 12
331 1 8.16913 -8.98271 3.83319 17
332 1 -1.36555 -6.21031 -2.33056 18
333 1 1.91769 9.54771 9.94644 13
334 1 4.65763 3.43926 7.39419 23
335 1 -3.75601 7.5087 -4.71512 24
336 1 0.0459106 -11.1984 -8.03777 8
337 1 -6.28633 3.80722 -10.4876 18
338 1 -6.03224 -1.87708 -12.1465 12
339 1 -12.1071 0.746311 0.641287 18
340 1 10.317 -7.36455 1.86708 15
341 1 4.30217 -13.0248 7.80735 9
342 1 1.31696 2.079 0.311759 23
343 1 1.02707 -3.68245 5.04971 19
344 1 7.29548 3.10694 -10.0428 16
345 1 4.91692 2.06304 -3.53831 24
346 1 9.47681 -3.22525 4.36274 23
347 1 12.3892 7.22062 3.95992 12
348 1 11.9384 -1.62065 2.97045 18
349 1 -4.27549 4.1916 10.1087 20
350 1 -9.27657 -3.94732 3.58648 20
351 1 -11.1034 -5.20971 -6.47149 12
352 1 4.01542 1.22489 13.2773 14
353 1 -7.36902 12.6458 3.81623 10
354 1 8.40888 6.59379 2.70004 23
355 1 5.10702 -3.8489 1.25454 19
356 1 6.91125 1.35068 2.08428 23
357 1 -9.51064 1.45792 10.221 13
358 1 6.91484 -0.149736 -9.22106 20
359 1 -0.816979 -3.99529 -10.748 24
360 1 5.09368 8.6648 9.02589 13
361 1 2.45328 5.00931 5.17458 24
362 1 -0.767713 -2.68676 13.347 12
363 1 -1.78663 3.67022 11.9027 15
364 1 -6.645 0.0381802 11.8937 12
365 1 -6.42089 2.14179 -2.04893 20
366 1 -1.95892 5.4839 -7.45382 20
367 1 7.44693 8.61231 -5.16965 22
368 1 -3.91792 1.33482 10.6663 21
369 1 1.30158 9.54106 -3.93625 21
370 1 -1.26146 -4.09291 -4.85806 22
371 1 -5.78816 -9.25733 2.29968 20
372 1 6.36013 4.35428 1.53524 23
373 1 -2.66255 5.27619 3.51131 24
374 1 -7.68449 7.29336 -0.956615 20
375 1 9.90861 4.25606 -2.40414 24
376 1 3.65333 2.2908 10.3501 24
377 1 6.97555 5.27852 5.78848 22
378 1 -8.07947 -1.40199 -1.14347 20
379 1 -1.06164 1.29547 -9.00348 20
380 1 -0.841054 4.37502 5.89339 23
381 1 3.89132 -3.44533 -4.74213 21
382 1 4.2733 10.33 3.49952 17
383 1 -11.5094 -2.13963 3.19878 21
384 1 7.15781 -11.742 -0.345736 16
385 1 9.39514 7.69966 -7.52681 14
386 1 4.44794 -5.3777 3.6157 21
387 1 0.310924 5.90757 2.97301 25
388 1 1.56611 -1.87154 -14.3441 14
389 1 -3.38793 -1.81046 0.758663 21
390 1 5.18782 -4.5151 -7.8704 22
391 1 3.08704 -3.03367 -1.67367 20
392 1 -5.63123 11.0408 6.62378 9
393 1 3.8384 -4.70499 6.64829 22
394 1 -1.21943 -0.939664 -6.13255 20
395 1 -3.19097 -11.8556 -2.78184 17
396 1 0.186147 -1.85288 -3.46863 21
397 1 -5.18336 3.60939 5.21793 23
398 1 7.55933 -5.60756 3.17681 23
399 1 2.01354 9.31941 -6.99387 21
400 1 9.22866 4.59134 -7.76467 15
401 1 3.44352 -1.68445 6.44939 21
402 1 8.29425 2.1329 -4.29432 22
403 1 3.79259 3.52346 -14.0056 10
404 1 -5.31364 -1.62613 9.19949 19
405 1 -0.618405 -8.02962 5.97633 22
406 1 0.584829 -6.92902 -11.4759 15
407 1 -6.13876 5.34304 -3.11034 20
408 1 4.85079 6.49646 3.33095 23
409 1 -7.89225 -6.08184 8.65166 17
410 1 5.80273 1.1128 -12.3598 12
411 1 -1.52938 0.152211 12.6115 17
412 1 -9.98351 -7.43846 -1.1391 17
413 1 9.46926 -0.320265 0.767235 24
414 1 -4.13086 -10.7817 0.132766 21
415 1 8.33127 -5.88518 0.0107389 19
416 1 6.42556 -10.3925 6.74369 15
417 1 -3.39499 10.8158 8.37409 11
418 1 -7.26487 3.11281 11.3298 12
419 1 11.8252 1.9796 2.50857 19
420 1 9.74147 -7.30633 -3.57716 14
421 1 2.14196 3.44556 -2.66477 22
422 1 2.6904 7.57138 1.36033 22
423 1 1.03945 11.1482 4.14091 14
424 1 2.54053 -10.6717 6.13254 18
425 1 -11.0627 -2.13591 -0.0596605 18
426 1 2.93473 5.17486 9.71901 18
427 1 5.45293 10.9296 0.429221 13
428 1 7.82453 -4.60261 8.1247 17
429 1 11.0371 -3.73993 6.78064 15
430 1 6.01528 8.29451 5.67723 17
431 1 -3.4791 3.73821 -3.58755 19
432 1 -1.48076 -7.65997 -9.58938 15
433 1 -5.12089 0.511954 -10.5875 22
434 1 -6.76258 -3.29399 12.7609 12
435 1 14.1775 -2.36286 5.61569 9
436 1 4.17792 8.40849 -4.76021 21
437 1 5.5662 -3.03784 -10.3347 15
438 1 -7.39812 -7.94038 -0.0756668 21
439 1 -6.35554 -1.38463 -6.28445 24
440 1 0.404467 3.85309 -13.5275 16
441 1 -2.92279 -6.59977 -6.66652 23
442 1 1.8905 -3.05741 12.5828 16
443 1 -0.909766 -0.310656 -0.966515 21
444 1 -0.774812 -5.88538 3.43355 22
445 1 11.0283 2.02104 -5.4243 17
446 1 -8.94717 10.9571 1.92018 14
447 1 5.72531 -4.70446 -1.8907 20
448 1 -13.3712 2.15526 2.97538 11
449 1 7.97409 7.2291 8.07886 13
450 1 3.24963 7.13215 11.5688 11
451 1 -12.8335 -3.59406 -3.91798 10
452 1 -3.91217 3.42226 -9.22886 21
453 1 11.2808 -5.58691 -1.02932 12
454 1 -11.2306 -6.05288 -4.01225 13
455 1 -2.97917 -9.71157 7.95244 14
456 1 7.95758 -1.19952 7.04708 22
457 1 -10.8724 6.27398 2.85426 16
458 1 3.92649 7.83231 -9.33893 15
459 1 6.64922 -3.38107 11.3123 16
460 1 -0.102052 -3.64802 -0.556023 21
461 1 -8.50267 -1.62542 10.5553 17
462 1 0.491814 -0.269717 -11.4336 20
463 1 -2.89232 -12.2985 6.21946 12
464 1 5.74212 -2.68476 8.36878 22
465 1 -0.442791 -12.6448 -1.77052 12
466 1 11.5203 -4.29923 -4.28102 14
467 1 -8.58924 10.7137 -1.38006 15
468 1 -8.33762 -0.632415 7.81216 22
469 1 -4.01149 -1.9359 -5.21533 21
470 1 5.33871 -10.8688 -3.04436 16
471 1 13.3509 7.3812 0.650091 11
472 1 14.7627 -0.989707 2.89359 8
473 1 -0.195266 -11.0354 7.29308 16
474 1 9.77748 10.3306 -6.67625 11
475 1 3.55811 4.52853 -8.45106 21
476 1 -11.8475 2.60533 -1.53992 15
477 1 2.2646 6.1273 -6.23256 22
478 1 7.50325 9.96867 3.13275 14
479 1 6.7264 7.29415 -2.33622 22
480 1 -5.22283 8.16132 8.65433 16
481 1 9.02856 -0.947057 -3.83811 22
482 1 -0.406364 -2.82973 2.1863 21
483 1 5.01757 -11.7565 4.43969 16
484 1 -5.58199 0.523378 6.28532 20
485 1 5.9806 5.54216 10.2698 17
486 1 9.2427 -1.65061 -9.9769 8
487 1 2.47025 -3.47009 -9.34356 19
488 1 -4.85555 6.66026 -9.03888 15
489 1 -1.11892 7.51108 5.04274 24
490 1 -2.66286 0.782024 -3.33989 21
491 1 -1.31379 5.99967 -2.57125 21
492 1 2.14533 -7.13548 5.45061 19
493 1 6.89504 -6.77429 5.95229 22
494 1 2.61129 1.02245 -13.0014 16
495 1 -13.4269 -4.11426 1.76276 12
496 1 -8.80158 4.5076 -2.20587 21
497 1 7.08802 -0.831121 10.9784 14
498 1 -9.20669 -5.62956 6.11173 18
499 1 12.6621 0.277395 0.487598 12
500 1 -2.19319 7.9662 -10.5899 15
501 2 -12.5712 -4.82816 -5.36202 8
502 2 -4.09566 12.821 -1.7343 13
503 2 1.48093 -1.64263 -10.0087 19
504 2 -0.74038 3.51251 10.2192 20
505 2 -5.77202 -7.87202 -7.22804 16
506 2 1.80114 0.925055 13.3395 13
507 2 -10.6379 -1.51102 1.64045 23
508 2 8.42328 5.37331 4.1819 23
509 2 2.34247 -1.99899 4.96638 20
510 2 -5.12609 -0.0798566 -6.3188 20
511 2 -8.28404 -9.66437 -2.85054 14
512 2 -10.8438 2.06771 -0.017313 20
513 2 -5.26821 -4.49823 3.00133 20
514 2 5.16972 2.36416 8.79424 22
515 2 7.34473 -2.10362 -9.89133 14
516 2 8.09662 1.27865 0.408945 24
517 2 -6.03982 7.0034 -2.07747 20
518 2 8.38339 5.47508 7.30328 17
519 2 -1.23525 -5.0683 -0.621369 22
520 2 -9.03682 -4.53861 7.90592 18
521 2 -3.14119 -12.5504 1.48656 13
522 2 8.20202 -2.26994 10.7063 15
523 2 -8.23333 9.17882 -2.23855 16
524 2 -4.88325 5.64013 -4.52675 20
525 2 -5.43876 8.89022 5.19044 17
526 2 -1.40815 5.44123 2.01041 22
527 2 3.55092 -1.34127 -0.667401 20
528 2 5.79805 -6.36588 -3.08489 17
529 2 -2.82671 1.53466 -8.08412 22
530 2 3.20355 -2.01116 -5.75779 19
531 2 -0.880048 -2.1061 -1.81147 20
532 2 11.9106 -2.52035 -3.74849 11
533 2 -0.996758 -7.52676 1.99595 20
534 2 11.5928 7.06544 -4.23698 14
535 2 -5.07642 9.87013 2.4035 23
536 2 -0.536554 -9.09892 -8.34272 18
537 2 3.97043 -9.67574 10.9458 8
538 2 7.62213 -3.73585 3.76428 21
539 2 -12.317 1.29046 -3.02883 14
540 2 5.75947 -2.27049 1.93036 21
541 2 0.741594 0.226774 0.268807 21
542 2 10.0008 9.51939 -0.0524988 15
543 2 6.31382 -12.9428 0.764331 12
544 2 -0.41903 8.29622 6.92102 17
545 2 6.53323 6.27583 2.0691 22
546 2 3.74226 9.17608 -7.98105 17
547 2 -5.56516 2.64516 10.3618 17
548 2 1.92653 1.0104 -11.0408 20
549 2 -8.21037 -1.10734 -5.72378 20
550 2 -10.1546 2.40174 5.99557 18
551 2 -10.3195 -7.73468 2.73641 16
552 2 4.2222 -11.8566 6.39769 15
553 2 -2.33675 -4.98259 10.5971 15
554 2 2.07706 3.44534 10.0066 22
555 2 -8.45836 3.2318 2.01323 21
556 2 5.69107 -3.93429 -5.68071 19
557 2 8.90956 -2.48384 -2.44216 22
558 2 -2.24643 -13.5234 -1.69591 11
559 2 4.54541 0.154248 -3.18804 21
560 2 0.140744 4.84281 7.72917 24
561 2 7.36138 -10.3374 -4.84104 11
562 2 6.59309 -4.21727 9.51675 19
563 2 -2.27061 -8.84922 5.58042 21
564 2 13.2929 -1.00308 1.62974 12
565 2 3.26687 -3.89379 2.61039 21
566 2 -0.986607 -10.7582 3.25104 20
567 2 9.15217 -5.48554 1.57618 21
568 2 -1.23821 0.317062 -4.82891 20
569 2 -0.423137 -5.7589 -3.9907 23
570 2 -3.60794 -5.63623 -11.1352 17
571 2 -5.07017 -6.74116 5.64277 16
572 2 -3.87809 -6.33594 0.825475 23
573 2 -3.1631 -9.20841 -0.372614 21
574 2 -4.1746 9.18698 -0.231886 21
575 2 7.51403 3.11299 -8.15064 17
576 2 7.69193 4.29337 0.0793133 25
577 2 1.10998 -0.303944 -13.4472 17
578 2 -6.97009 7.29073 8.55168 12
579 2 -1.6961 1.44316 -1.86285 21
580 2 -10.9738 5.37363 1.25569 16
581 2 -2.59955 0.943527 8.85611 24
582 2 -5.28849 10.1367 8.30904 12
583 2 -1.28331 3.89507 -6.15658 19
584 2 11.9082 1.16318 -3.88924 15
585 2 10.2028 -6.97684 -0.287501 16
586 2 11.1293 4.15675 5.78193 17
587 2 1.57062 8.98334 0.750767 20
588 2 -4.09673 6.70847 3.07761 21
589 2 1.6574 5.90216 1.60913 25
590 2 13.0181 8.28687 -1.03176 13
591 2 5.52757 5.5857 -2.1751 23
592 2 5.40722 11.2685 -4.77187 18
593 2 0.40832 10.2034 10.5854 9
594 2 -2.92497 0.323943 3.43158 19
595 2 3.03772 -2.59713 11.023 23
596 2 3.38683 0.12943 -8.6963 21
597 2 -2.15229 -1.56162 12.9854 11
598 2 6.50723 4.71189 -10.6606 13
599 2 -7.76708 -4.81791 12.3398 11
600 2 -2.17457 -7.86195 -5.49647 24
601 2 -1.83518 -4.84183 -6.69665 23
602 2 8.64027 -10.5932 -0.0268417 14
603 2 -3.90179 -0.872149 -3.40061 23
604 2 12.0379 3.86939 -5.37519 10
605 2 -6.87783 2.6847 -12.0768 12
606 2 -8.28493 9.69226 3.37931 16
607 2 0.0644016 3.55407 -0.276736 23
608 2 -5.44485 -4.78355 -2.48929 22
609 2 0.946268 7.15714 -12.8903 12
610 2 1.30099 11.6055 -0.521423 15
611 2 -2.93445 4.93397 11.3582 15
612 2 4.90825 -10.0535 -7.43438 12
613 2 6.9293 4.02379 9.8059 16
614 2 8.99303 0.807801 -2.92692 23
615 2 6.80517 3.0628 2.89051 24
616 2 -5.03214 5.28377 -10.4286 16
617 2 6.63982 -5.13099 12.3817 11
618 2 -1.09116 -9.58274 8.19202 13
619 2 7.24177 -6.59646 7.77225 14
620 2 -4.57492 8.81339 -5.99506 16
621 2 -7.29787 -11.7974 -1.17204 11
622 2 0.653787 2.77069 -8.84643 21
623 2 -0.378495 -11.1455 -6.25188 12
624 2 4.26427 8.99041 6.7759 17
625 2 -9.0936 -8.89381 -0.448955 17
626 2 -7.03523 2.86418 4.5819 19
627 2 9.64252 -0.934425 8.18442 16
628 2 -5.66298 -10.7004 1.2118 19
629 2 -1.34151 0.41119 -10.8666 23
630 2 4.20294 3.0912 -7.10431 21
631 2 -4.33782 -1.93495 -12.991 14
632 2 -5.65892 -3.42022 -11.319 15
633 2 -7.2069 -1.87613 8.94918 17
634 2 -4.57244 -4.07023 -8.37678 23
635 2 3.76306 -5.85712 -7.83995 21
636 2 8.20776 3.99165 -3.4693 24
637 2 -8.70871 -0.0539355 3.48673 21
638 2 -1.54324 -2.88821 -9.34034 22
639 2 2.34281 -4.59704 -4.81696 20
640 2 3.33966 6.6223 -4.3844 24
641 2 -3.07219 -7.26503 -8.46225 20
642 2 2.36556 7.05026 -10.3556 15
643 2 5.88823 9.88607 4.26763 15
644 2 11.6688 0.766739 6.50857 14
645 2 -11.197 -2.45176 7.64543 13
646 2 -4.01582 -10.7769 6.87865 13
647 2 -4.18733 1.11763 -12.266 20
648 2 -2.20832 5.8727 5.41344 23
649 2 -6.56241 -4.37263 0.525084 20
650 2 -11.5477 -0.873952 4.80815 18
651 2 -3.53683 6.46674 -0.0175018 20
652 2 -9.70726 -3.07908 10.3818 15
653 2 6.73565 -12.5529 4.36415 11
654 2 -13.1694 0.811913 4.26389 13
655 2 -3.82348 -11.8183 4.5619 15
656 2 -8.4914 -1.70868 6.18697 22
657 2 7.19016 -7.31647 10.4339 11
658 2 5.76429 8.28321 -5.70064 23
659 2 -2.87941 -3.00479 4.96221 23
660 2 4.41498 10.6129 -1.28523 17
661 2 6.44468 2.01944 -4.91004 22
662 2 -0.612346 12.6914 -2.96392 15
663 2 -6.06177 -5.93724 -9.80928 14
664 2 -13.3714 -2.34516 2.60688 14
665 2 0.557399 -12.0808 -3.15474 14
666 2 4.18616 -6.27762 7.98875 19
667 2 11.2352 -6.13721 3.3293 13
668 2 -7.22933 7.29234 -4.99924 17
669 2 5.96233 2.31315 -1.89486 21
670 2 3.64417 -3.9588 13.1879 12
671 2 -2.84801 -1.64319 -6.8735 22
672 2 3.87522 4.67261 3.60356 23
673 2 1.9286 6.79852 6.02006 22
674 2 3.12705 0.449807 10.7799 22
675 2 -5.72635 4.51899 1.10215 21
676 2 1.10497 1.23701 4.96716 23
677 2 3.74562 5.15646 -12.8589 12
678 2 -4.85602 -9.27987 -4.42925 19
679 2 -8.31487 -3.85147 -4.17102 23
680 2 -9.87442 -0.36541 9.49331 15
681 2 8.18179 10.5723 -5.14087 15
682 2 -0.331899 -2.43603 -5.29752 23
683 2 6.22348 3.59304 5.97059 21
684 2 7.20103 -7.80991 -0.194162 21
685 2 -12.4407 -5.27544 2.81656 13
686 2 -2.086 11.9403 3.19209 16
687 2 -3.6791 4.85358 -8.04242 21
688 2 1.43047 4.46374 -5.95999 24
689 2 -8.71052 5.73045 -0.730459 20
690 2 1.98936 -5.27455 6.15868 23
691 2 2.33685 5.21966 -1.65716 24
692 2 -8.11546 -5.25922 4.56679 21
693 2 4.1025 -7.85239 0.569377 22
694 2 1.55198 -9.4305 1.68739 18
695 2 -6.45538 11.5447 5.00352 11
696 2 1.6578 -6.20583 0.806999 20
697 2 -11.2861 4.01563 -5.17696 16
698 2 2.12537 -9.78249 -1.41707 23
699 2 6.43045 7.51083 9.15921 13
700 2 -1.22711 5.21058 -14.328 10
701 2 1.07984 10.5925 -8.20773 14
702 2 6.10671 1.27627 -10.3275 16
703 2 -1.1272 9.82847 -1.23332 20
704 2 -4.86263 -3.63344 12.1044 13
705 2 -3.02064 -5.41513 7.58023 20
706 2 -2.28757 -3.39313 1.8116 18
707 2 -0.87643 2.29042 2.85476 24
708 2 -9.24176 -2.94139 -0.832508 19
709 2 -0.304678 -4.06007 6.48107 20
710 2 3.57074 6.19694 -7.61339 20
711 2 2.91054 -0.584602 2.57085 21
712 2 6.42547 -0.60397 -1.11955 22
713 2 5.47218 -0.978262 9.29156 22
714 2 -6.44023 -1.98845 -1.98013 21
715 2 1.98057 2.84859 -13.7096 14
716 2 6.17438 5.17395 -5.7053 24
717 2 5.47565 6.497 5.41618 22
718 2 5.00679 -3.31772 -3.0322 20
719 2 -8.0332 -2.44123 3.18246 19
720 2 -2.59256 11.0069 -4.04788 17
721 2 0.580826 1.49638 8.22212 22
722 2 -3.46338 2.11114 -4.71022 19
723 2 -0.718191 -11.3299 -0.16954 18
724 2 -1.01818 -11.9668 5.93794 14
725 2 -6.73108 0.868016 -3.84691 19
726 2 7.14718 -2.9901 6.88442 24
727 2 8.96331 0.0279338 -8.74185 14
728 2 4.11114 11.0177 1.61169 18
729 2 2.02094 2.55043 2.06552 26
730 2 7.97905 -10.3209 5.35759 13
731 2 9.02758 -7.68278 -5.32314 12
732 2 3.43119 3.27946 -9.92443 21
733 2 5.17078 -1.98582 5.36991 22
734 2 3.25514 3.20718 13.5563 12
735 2 -1.50926 -0.655229 6.58937 20
736 2 5.49125 -5.37892 5.54733 23
737 2 -3.75505 3.70743 -13.0674 15
738 2 11.1708 -5.27644 -6.06216 10
739 2 -6.8418 11.2236 -0.8963 15
740 2 -0.207755 -5.92005 -9.8929 20
741 2 -2.42544 1.76965 11.7104 14
742 2 0.994293 -2.84919 0.889968 21
743 2 -3.10977 3.06442 0.493043 22
744 2 -10.5819 2.60312 -8.06561 16
745 2 10.8472 -5.77994 -3.04818 15
746 2 2.66686 10.2071 4.71777 17
747 2 12.0945 5.40237 3.25876 16
748 2 12.8201 2.17506 4.24463 13
749 2 -12.1062 -0.51346 -0.628979 14
750 2 -6.46834 3.3767 -6.35026 21
751 2 -9.35947 1.51636 -5.24159 19
752 2 -6.00682 1.30258 2.17371 21
753 2 12.7274 4.62259 -2.56269 12
754 2 -10.3334 6.74006 -3.66509 15
755 2 1.54019 -11.1883 4.62189 16
756 2 3.67074 -0.569274 14.2528 14
757 2 3.96026 -10.4799 -4.43764 16
758 2 -1.11922 2.51465 -13.7568 16
759 2 7.66842 7.67456 -0.677266 20
760 2 7.85271 10.7414 -2.08301 17
761 2 -9.65909 -5.78314 -5.20347 14
762 2 -8.40486 -5.66751 -1.31368 22
763 2 8.2724 -2.26915 1.1076 24
764 2 -8.28622 4.61337 -4.06881 20
765 2 4.35182 -10.5006 3.22339 19
766 2 5.79712 -5.65316 2.16394 21
767 2 -8.43692 -6.18015 10.4863 11
768 2 -4.34407 -6.05016 -5.54499 23
769 2 -1.47325 6.78385 9.39127 19
770 2 1.82967 8.46478 -2.15512 24
771 2 -9.65079 8.13834 5.68806 10
772 2 4.54905 3.83871 0.750858 23
773 2 -5.2376 -6.39032 11.2495 12
774 2 -1.59252 12.7436 0.2046 13
775 2 3.84756 -12.0025 -1.86366 14
776 2 2.06711 -7.86982 9.74671 15
777 2 5.09613 2.12725 11.8399 16
778 2 -7.20981 8.0611 0.690659 21
779 2 -2.76824 7.55942 -3.00142 23
780 2 -3.25443 4.26274 8.44323 23
781 2 -1.86781 -2.53262 -12.0679 18
782 2 10.8853 -3.84406 -0.652757 16
783 2 6.49639 -4.55457 -9.3835 13
784 2 -5.55823 10.022 -3.77399 17
785 2 -7.40886 -1.56702 12.3041 13
786 2 -8.92943 0.0458662 -2.18043 18
787 2 7.03399 -1.00889 -4.55951 20
788 2 4.18314 7.37852 0.113622 23
789 2 -4.55501 -1.14109 7.53417 18
790 2 -1.02705 -3.18411 8.94699 18
791 2 2.72288 1.939 -1.14992 24
792 2 -0.280162 8.36031 -9.95505 16
793 2 -12.9291 -1.78518 -4.08505 10
794 2 1.52822 -0.31107 -3.27719 19
795 2 -4.22708 -1.04458 -9.46894 23
796 2 0.242922 -0.0396222 -7.74303 21
797 2 -9.69194 -1.76571 -9.29276 12
798 2 2.65205 -5.05046 -10.6729 17
799 2 -3.17507 -6.97815 -2.7306 21
800 2 -0.132501 -7.18472 7.68852 20
801 2 -0.37434 5.34445 -8.89047 20
802 2 6.97226 0.0932205 3.52741 24
803 2 0.603498 4.44989 4.55952 25
804 2 10.3295 -2.78427 -8.54121 10
805 2 8.7045 -12.1212 2.57548 11
806 2 9.15486 9.05863 2.96448 16
807 2 -0.905146 8.01659 11.7851 10
808 2 -9.14583 -5.17906 2.12989 21
809 2 9.64257 6.46494 1.18031 22
810 2 2.62406 -8.85653 6.40604 19
811 2 -9.39831 10.5242 0.205785 15
812 2 3.69921 3.57177 -3.81037 23
813 2 2.8883 3.52348 6.33193 22
814 2 -11.4755 2.42111 2.83593 17
815 2 5.88612 7.40739 -8.74472 15
816 2 -4.94896 1.07482 -0.991999 21
817 2 0.481355 2.88715 -3.39265 22
818 2 4.28167 -2.13581 -11.4207 18
819 2 -7.27058 0.847932 7.46681 19
820 2 -4.81987 -0.392388 11.382 18
821 2 9.06742 2.05 4.88726 20
822 2 5.02895 2.81231 -12.7781 12
823 2 -10.8148 -1.22637 -6.51206 17
824 2 1.27669 -8.63231 -4.35974 21
825 2 10.3013 -0.879245 -5.23521 18
826 2 -0.254193 6.76628 -0.807924 24
827 2 -1.25383 -7.4856 -11.5463 12
828 2 -10.4216 5.23736 4.36952 15
829 2 -9.85066 6.12676 7.77384 11
830 2 5.08316 -9.04828 -2.34168 23
831 2 -7.18674 -7.14995 -4.20615 18
832 2 -0.646965 -7.74683 -1.27116 20
833 2 11.1524 -0.502763 -0.653499 19
834 2 -3.08609 7.53812 -8.63461 19
835 2 6.79825 9.84306 1.30243 16
836 2 -1.93542 -10.2116 -3.13705 22
837 2 3.33425 0.0637958 7.36565 24
838 2 -3.64292 7.4547 7.31073 22
839 2 -2.41675 4.4785 -2.18758 22
840 2 -5.99389 6.44268 -7.58181 17
841 2 -3.28843 -10.3201 -7.15713 13
842 2 -6.95015 -9.81391 6.38254 10
843 2 -10.6986 7.72203 -0.768097 16
844 2 6.06086 11.2414 -7.6767 13
845 2 1.04583 7.69061 -6.78951 24
846 2 9.37277 5.25976 -5.93325 18
847 2 -1.79931 -0.500402 -13.9225 14
848 2 1.0641 -6.9725 -6.92201 22
849 2 -11.3769 -4.25803 -2.9001 18
850 2 4.20657 5.38568 11.2994 15
851 2 -6.66323 -0.330344 -11.495 16
852 2 -11.0778 -6.53527 5.71427 14
853 2 6.61963 0.377384 6.42587 24
854 2 3.52902 8.55414 10.2685 12
855 2 9.27475 2.01819 -6.07792 19
856 2 -0.560537 9.45902 -4.68819 20
857 2 -0.154438 5.97878 -4.16948 23
858 2 13.3631 -3.16097 4.02121 12
859 2 -7.79217 0.735338 -8.22923 21
860 2 3.12835 12.0251 -6.77839 13
861 2 -0.349045 0.127977 11.0402 21
862 2 0.114775 -3.19654 -14.1392 11
863 2 -5.73441 -3.13409 -5.26925 22
864 2 0.0249502 3.51792 12.8153 13
865 2 -2.43939 9.13681 4.54229 20
866 2 5.4383 -10.548 0.163034 18
867 2 8.86554 -5.52779 -7.80592 15
868 2 -3.27512 11.1015 6.44281 15