ITEM: TIMESTEP
128000
ITEM: NUMBER OF ATOMS
1500
ITEM: BOX BOUNDS pp pp pp
-30.0 30.0
-30.0 30.0
-30.0 30.0
ITEM: ATOMS id type x y z Coordination
1 1 -14.881 -0.997054 -5.66673 14
2 1 -13.8325 -3.64868 -5.99573 13
3 1 -13.314 -5.84214 -3.22293 15
4 1 -15.252 -3.6717 -3.34916 11
5 1 -11.8962 -6.31345 -5.94922 13
6 1 -9.32801 -10.8307 -5.65698 12
7 1 -10.5849 -11.2935 -2.82603 13
8 1 -11.8742 -8.82256 -3.09762 13
9 1 -11.2457 1.17952 -10.8276 12
10 1 -10.7751 -2.6018 -10.5724 13
11 1 -9.87839 -5.47764 -9.94588 13
12 1 -11.8345 -3.6382 -8.2092 16
13 1 -11.7628 -0.922762 -5.96748 21
14 1 -9.8615 -3.65005 -5.2398 20
15 1 -10.2077 -6.03405 -3.17955 20
16 1 -12.0315 -2.696 -2.80765 24
17 1 -5.57359 -14.4585 -7.80447 11
18 1 -8.16007 -6.39172 -12.8864 10
19 1 -7.23808 -9.38482 -11.2308 11
20 1 -7.00148 -11.3977 -8.53492 15
21 1 -8.81468 -8.44733 -8.3551 15
22 1 -8.40417 -6.88096 -5.78476 19
23 1 -6.74719 -9.3803 -5.78001 23
24 1 -6.82771 -11.5465 -3.11389 20
25 1 -8.42499 -8.78006 -3.05078 21
26 1 -4.58123 -5.47327 -13.635 12
27 1 -9.3718 2.56418 -12.8677 11
28 1 -8.61908 -0.6413 -10.7092 19
29 1 -7.34475 -3.79029 -11.0199 19
30 1 -7.03274 -5.93509 -8.56269 21
31 1 -8.35178 -2.75512 -8.547 23
32 1 -8.3072 -1.16439 -5.93755 21
33 1 -6.88748 -4.03855 -5.91337 21
34 1 -6.84654 -5.78775 -3.26346 24
35 1 -7.59695 -2.28631 -2.89808 20
36 1 -5.71175 -12.1005 -5.7106 20
37 1 -4.63657 -14.1724 -4.24998 15
38 1 -5.28976 -6.88896 -11.3662 18
39 1 -4.04187 -10.1013 -11.0001 12
40 1 -3.68099 -11.5805 -8.07188 20
41 1 -5.34216 -8.55903 -8.46036 25
42 1 -5.07117 -6.59778 -5.6485 24
43 1 -3.70799 -9.1954 -5.78774 23
44 1 -3.53682 -11.6258 -3.42552 21
45 1 -5.25493 -8.55826 -3.27824 23
46 1 -1.28549 -5.77085 -13.6142 11
47 1 -5.45991 -2.6206 -13.8506 15
48 1 -5.14549 -0.671876 -11.1632 21
49 1 -4.08609 -3.70453 -11.3927 22
50 1 -3.90737 -5.41243 -8.6236 23
51 1 -5.32319 -2.60724 -8.71847 21
52 1 -5.18144 -0.957864 -6.14057 21
53 1 -3.41859 -3.95207 -6.20124 22
54 1 -3.305 -5.64334 -3.34818 21
55 1 -4.97284 -3.04086 -3.34707 20
56 1 -2.30883 -12.0876 -6.16788 24
57 1 -3.74071 -15.9605 -6.34326 10
58 1 -1.60426 -14.6584 -3.86304 16
59 1 1.28124 -7.23308 -11.1045 21
60 1 -2.04799 -6.74679 -11.0391 22
61 1 -0.347131 -9.0347 -10.9887 13
62 1 -0.333138 -11.4086 -8.2291 20
63 1 -2.35259 -8.72306 -8.78411 23
64 1 -1.72011 -6.59738 -6.155 22
65 1 -0.558765 -9.47817 -5.65828 21
66 1 -0.203371 -11.4974 -3.05554 22
67 1 -2.26722 -8.43142 -3.00426 24
68 1 1.11783 -2.75597 -13.8594 17
69 1 -2.14346 -2.954 -14.3092 16
70 1 -1.873 -1.05949 -11.2346 22
71 1 -0.344015 -4.1345 -11.4745 22
72 1 -0.612119 -5.69162 -8.35709 24
73 1 -1.95642 -2.8392 -8.73649 24
74 1 -1.66135 -0.782815 -5.95005 23
75 1 -0.171794 -3.85411 -5.72585 22
76 1 -0.0843297 -5.69895 -3.21196 23
77 1 -1.63688 -2.96665 -3.03879 21
78 2 -15.2886 -2.68797 -5.05797 12
79 2 -13.8973 -8.37203 1.45517 15
80 2 -14.8436 -3.04115 -1.49656 15
81 2 -15.2362 -0.0271458 -4.10154 13
82 2 -13.2426 -4.04535 -4.01815 19
83 2 -12.1237 -7.08559 -3.91784 14
84 2 -9.20861 -6.84074 -9.13847 14
85 2 -9.08501 -11.885 -3.97436 13
86 2 -10.4406 -11.6488 -0.883619 15
87 2 -13.2363 -0.279267 -6.78924 19
88 2 -13.0139 -5.18167 -7.20137 10
89 2 -10.2108 -5.67914 -5.26583 18
90 2 -11.7904 -2.84563 -6.17842 19
91 2 -12.2495 -2.14387 -9.35479 12
92 2 -11.4444 -4.45437 -9.90784 9
93 2 -10.1588 -5.70506 -1.17165 22
94 2 -11.8876 -2.72992 -0.466452 19
95 2 -11.9173 -1.04281 -3.83609 23
96 2 -10.5457 -3.92537 -3.28554 19
97 2 -10.0846 -9.394 -3.00506 16
98 2 -5.52178 -12.6363 -8.32524 14
99 2 -8.63159 -8.73607 -6.4278 17
100 2 -8.58971 -5.30759 -11.3076 14
101 2 -7.27216 -9.86464 -9.5473 15
102 2 -7.08919 -11.4728 -1.10327 19
103 2 -8.64575 -8.62294 -0.917048 23
104 2 -8.34607 -6.81863 -3.24436 21
105 2 -6.73707 -9.70608 -3.89819 25
106 2 -6.05076 -6.3315 -12.8841 14
107 2 -9.01307 -2.45041 -10.3872 16
108 2 -7.00278 -5.90043 -6.61929 23
109 2 -8.63661 -3.06132 -6.49439 21
110 2 -8.42482 -0.769052 -8.53735 18
111 2 -7.01811 -3.87225 -9.02513 20
112 2 -6.97989 -5.46926 -0.841886 20
113 2 -8.57401 -2.85201 -1.23874 22
114 2 -8.24419 -0.629464 -3.81842 21
115 2 -7.30164 -3.85357 -3.95333 22
116 2 -7.29543 -11.0839 -6.59769 17
117 2 -3.46022 -14.936 -3.17838 13
118 2 -5.33374 -14.5036 -5.88872 12
119 2 -5.28904 -12.3519 -4.00309 19
120 2 -8.42923 -8.28894 -12.0042 10
121 2 -4.36538 -10.9712 -6.3332 23
122 2 -5.51942 -8.39257 -6.54399 25
123 2 -5.26571 -6.51689 -9.23674 23
124 2 -5.43337 -8.7852 -11.3621 13
125 2 -3.46548 -11.1377 -1.53056 21
126 2 -5.46531 -8.54122 -1.13368 24
127 2 -4.91783 -6.45421 -3.77052 24
128 2 -3.82784 -9.65492 -3.72129 23
129 2 -3.24479 -5.72798 -12.138 19
130 2 -5.91192 -2.97293 -12.061 21
131 2 -5.62042 -0.811037 -14.322 11
132 2 -3.94719 -3.77342 -14.1844 13
133 2 -3.68672 -5.68222 -6.64172 24
134 2 -5.20558 -2.87723 -6.55356 23
135 2 -5.18396 -0.683669 -9.07362 24
136 2 -3.89347 -3.62469 -9.4064 23
137 2 -3.46877 -5.40003 -1.30293 24
138 2 -5.31813 -2.93587 -1.41184 23
139 2 -5.74983 -1.22243 -3.76692 20
140 2 -3.08647 -3.64343 -4.26686 23
141 2 -2.0042 -12.5283 -8.52185 15
142 2 -3.8497 -9.90926 -9.04212 19
143 2 -2.35961 -15.1764 -0.0456169 13
144 2 -2.43408 -12.8992 -4.56799 22
145 2 -2.03648 -15.678 -5.51365 14
146 2 -2.42721 -8.67586 -10.9628 14
147 2 4.61714 -8.89699 -11.7539 14
148 2 -0.326421 -11.3201 -6.4318 18
149 2 -2.15883 -8.62434 -6.59612 25
150 2 -2.29505 -6.57978 -9.07019 22
151 2 -0.188131 -9.52062 -9.20102 20
152 2 -0.554578 -11.4397 -1.0589 22
153 2 -2.1788 -8.44768 -0.816295 23
154 2 -1.90772 -6.93168 -4.04815 25
155 2 -0.606249 -9.70765 -3.66129 21
156 2 -0.460356 -6.00902 -11.7623 17
157 2 -2.54068 -2.90169 -11.876 23
158 2 -2.04065 -0.92571 -14.1471 16
159 2 -0.287232 -4.1514 -13.9311 13
160 2 -0.204675 -5.57074 -6.49744 22
161 2 -1.79504 -2.84695 -6.68502 25
162 2 -2.00701 -0.865404 -8.97277 21
163 2 -0.366826 -4.04413 -9.45144 23
164 2 -0.358184 -5.65399 -1.13179 25
165 2 -1.59109 -2.47585 -1.06467 21
166 2 -2.10978 -0.916521 -3.61122 20
167 2 -0.0827201 -3.83006 -3.88509 24
168 1 -14.8457 -10.0764 1.21001 7
169 1 -11.9116 -11.5241 0.183643 13
170 1 -15.0561 -1.25632 -0.71465 14
171 1 -13.7814 -4.26137 -0.440784 17
172 1 -13.5852 -6.48408 2.16305 16
173 1 -15.2776 -3.22299 1.72815 12
174 1 -15.2015 -3.28892 7.20965 12
175 1 -14.0238 -4.02407 4.07085 18
176 1 -13.7378 -5.77339 6.41735 11
177 1 -12.9084 -7.86246 -0.498684 17
178 1 -10.5478 -9.02578 -0.142884 24
179 1 -10.2761 -11.5505 2.90379 17
180 1 -12.3462 -9.45711 2.48586 17
181 1 -16.0265 -1.27195 4.70597 11
182 1 -11.2407 -10.2307 5.55605 11
183 1 -11.9369 -7.18923 4.71504 19
184 1 -11.8906 -0.756677 -0.26965 23
185 1 -10.2419 -3.75488 -0.935731 19
186 1 -10.4799 -6.04679 1.82718 22
187 1 -12.107 -2.9927 1.79486 21
188 1 -12.4249 -0.996322 4.08579 24
189 1 -10.5244 -3.84653 4.14762 22
190 1 -10.2278 -5.71825 7.44425 22
191 1 -12.3866 -2.58231 6.36397 20
192 1 -14.0296 -3.70684 10.2111 10
193 1 -10.8975 -3.55478 9.29823 21
194 1 -8.65562 -11.9884 -0.191885 16
195 1 -8.62324 -12.2592 5.34611 14
196 1 -8.48418 -6.56447 -0.293185 23
197 1 -7.11953 -9.55256 -0.487853 22
198 1 -7.01237 -11.4345 2.22347 19
199 1 -9.01238 -8.71721 2.19656 22
200 1 -8.75284 -6.79055 4.69489 20
201 1 -7.23946 -9.52633 4.81913 19
202 1 -7.08003 -11.282 7.53586 17
203 1 -12.1839 -8.15884 7.84093 12
204 1 -8.7371 -6.45871 9.77236 17
205 1 -9.02472 -8.44155 7.25983 18
206 1 -8.86433 -0.999495 -0.716886 19
207 1 -6.86435 -3.47896 -0.54163 22
208 1 -7.06666 -5.6001 2.2217 23
209 1 -8.52649 -2.62314 2.01211 21
210 1 -8.97862 -0.911365 4.61066 22
211 1 -7.41796 -3.88977 4.78787 24
212 1 -7.05329 -5.48041 7.3629 21
213 1 -8.98056 -2.81549 7.17273 22
214 1 -12.9432 -6.32506 10.3991 10
215 1 -7.3239 -3.64338 10.2365 23
216 1 -7.49192 -5.37539 12.613 12
217 1 -10.999 -4.57722 11.7653 15
218 1 -5.54117 -12.4219 -0.279006 18
219 1 -3.70771 -15.1113 -1.35527 12
220 1 -5.41679 -14.7215 1.3546 10
221 1 -5.41862 -12.2647 5.2817 20
222 1 -3.75854 -15.5075 4.49506 12
223 1 -5.59693 -6.74607 -0.558035 23
224 1 -3.67887 -9.64943 -0.575935 21
225 1 -3.86953 -11.6594 2.43395 21
226 1 -5.382 -8.7639 2.13087 22
227 1 -5.47922 -6.81537 4.92366 23
228 1 -3.67904 -9.76392 4.87429 22
229 1 -5.76476 -14.185 7.25707 12
230 1 -5.38147 -8.26844 7.60519 24
231 1 -5.55711 -6.51513 10.2266 18
232 1 -7.36263 -9.35828 10.1841 10
233 1 -3.85389 -5.74277 12.8693 11
234 1 -5.52953 -0.858997 -0.529621 24
235 1 -3.81422 -3.66179 -0.363867 25
236 1 -3.86112 -5.74849 2.2399 24
237 1 -5.41642 -2.92972 2.23382 22
238 1 -5.5832 -0.725434 4.80404 22
239 1 -3.81933 -3.73648 4.833 24
240 1 -3.80243 -5.52877 7.48023 23
241 1 -5.40385 -2.97911 7.20036 19
242 1 -8.82611 -0.594356 9.74933 20
243 1 -3.86586 -3.73947 10.3179 24
244 1 -5.59325 -2.90661 12.4075 15
245 1 -8.92222 -2.41463 13.1435 13
246 1 -2.26005 -12.1704 -0.419886 21
247 1 -0.422833 -14.9753 -0.663303 14
248 1 -2.37211 -14.2221 1.5353 19
249 1 -2.02843 -12.5167 5.08003 24
250 1 -0.280389 -11.4201 7.62622 19
251 1 -1.98592 -14.2074 7.20303 13
252 1 -5.08682 -12.7828 9.70313 9
253 1 -1.9603 -6.32597 -0.322201 23
254 1 -0.638908 -9.45175 -0.352543 23
255 1 -0.262331 -11.5844 2.47128 25
256 1 -2.21999 -8.28158 2.17567 21
257 1 -2.16276 -6.68538 4.74999 22
258 1 -0.264329 -9.43167 4.77523 22
259 1 -0.285885 -15.3471 4.35715 12
260 1 -2.04537 -8.19096 7.24025 22
261 1 -1.92023 -6.43866 10.1929 19
262 1 -0.776907 -9.9114 9.88135 14
263 1 -3.81779 -9.40648 9.93366 15
264 1 -2.1919 -0.679259 -0.480487 22
265 1 -0.308509 -3.78767 -0.32472 24
266 1 -0.258299 -5.73135 2.15924 23
267 1 -2.07333 -3.15715 2.24252 23
268 1 -1.88208 -0.969164 4.67271 24
269 1 -0.272827 -3.99704 4.92479 22
270 1 -0.416125 -5.54187 7.50117 23
271 1 -1.84709 -2.5465 7.4568 23
272 1 -1.88446 -0.636292 10.3538 21
273 1 -0.32769 -3.69702 10.4515 23
274 1 -1.78321 -3.18971 13.147 15
275 1 -3.63841 -0.245916 12.8281 14
276 2 -13.3194 -10.9981 1.61888 11
277 2 -13.2925 -6.0671 -1.27816 18
278 2 -13.5632 -5.98875 4.14948 13
279 2 -15.6533 -2.64149 3.47623 13
280 2 -14.5003 -1.56424 1.33912 18
281 2 -13.818 -4.53319 1.76513 16
282 2 -15.13 -1.67425 6.36292 12
283 2 -13.8751 -3.92893 6.05691 16
284 2 -10.252 -11.398 4.71213 14
285 2 -10.5612 -10.1079 1.55586 20
286 2 -11.5403 -7.47626 0.927616 19
287 2 -11.9613 -9.55053 -1.31678 16
288 2 -11.7702 -6.52679 6.68684 19
289 2 -11.6449 -8.87947 4.1695 19
290 2 -10.5836 -5.80002 3.84057 23
291 2 -12.2276 -2.86828 3.92336 23
292 2 -11.8901 -0.976385 1.89141 21
293 2 -10.3034 -3.98441 1.81201 19
294 2 -12.0041 -7.73463 9.61111 12
295 2 -10.6406 -5.52488 9.42987 22
296 2 -12.3439 -0.745085 7.00173 22
297 2 -10.8157 -3.50683 6.65071 22
298 2 -14.2445 -5.00071 8.45871 13
299 2 -9.0671 -12.0906 1.74831 15
300 2 -4.71308 -14.5165 5.67305 12
301 2 -7.12025 -11.4758 4.17326 20
302 2 -8.69305 -8.54007 4.01142 25
303 2 -8.73889 -6.66046 1.65883 21
304 2 -7.22371 -9.74085 1.53799 23
305 2 -8.13883 -8.10539 8.99003 17
306 2 -10.8934 -9.02488 6.93393 14
307 2 -8.63475 -6.44184 6.77356 23
308 2 -7.43543 -9.67654 6.76963 22
309 2 -5.47734 -5.77025 12.0874 14
310 2 -6.93285 -5.56307 4.26329 21
311 2 -8.97163 -2.74371 4.06821 22
312 2 -8.77832 -0.79313 1.34907 23
313 2 -6.95574 -3.76103 1.55278 23
314 2 -6.84011 -5.41406 9.21198 23
315 2 -8.92441 -2.54706 9.32984 26
316 2 -8.91175 -0.838003 6.66812 22
317 2 -7.07968 -3.50186 6.60624 23
318 2 -12.7664 -4.81173 11.2496 11
319 2 -9.3127 -5.36377 11.9982 13
320 2 -4.05101 -14.8699 2.63893 14
321 2 -5.41574 -12.6892 1.65292 18
322 2 -5.19347 -14.3345 -0.522832 12
323 2 -4.25872 -14.1166 8.64176 10
324 2 -3.6052 -11.773 4.29203 21
325 2 -5.26403 -8.76573 4.01883 23
326 2 -5.27732 -6.90922 1.34955 23
327 2 -3.32168 -9.45116 1.31519 22
328 2 -7.24098 -13.1749 6.62014 12
329 2 -5.16627 -11.9194 7.16 22
330 2 -5.32821 -6.49703 6.83123 23
331 2 -3.6582 -9.30718 6.95924 22
332 2 -3.75023 -3.66014 12.4971 15
333 2 -6.41036 -11.117 9.42354 14
334 2 -4.11531 -5.44285 4.3164 21
335 2 -5.3484 -2.59171 4.23416 22
336 2 -5.35318 -0.967536 1.34327 24
337 2 -3.76173 -3.78769 1.52312 23
338 2 -3.65211 -5.94993 9.52701 21
339 2 -5.5406 -2.74788 10.195 21
340 2 -5.33066 -1.13821 6.8613 19
341 2 -3.63491 -3.5799 7.02465 22
342 2 -5.63146 -8.36533 9.67176 17
343 2 -7.38085 -3.42978 12.64 15
344 2 -1.98957 -6.04635 12.4858 15
345 2 -8.50833 -1.07464 12.0747 16
346 2 -2.00002 -14.9533 5.41006 12
347 2 -2.29169 -12.0499 1.38592 22
348 2 1.15538 -14.07 -0.0892443 19
349 2 -1.74751 -12.3298 6.96389 21
350 2 -0.404616 -11.9132 4.57859 24
351 2 -2.31207 -8.62049 4.31837 23
352 2 -1.88885 -6.50825 1.45753 23
353 2 -0.453134 -9.64534 1.83965 22
354 2 1.01488 -14.0644 5.18783 16
355 2 -1.96523 -8.34558 9.56417 20
356 2 -2.27224 -5.98778 6.43632 22
357 2 -0.760543 -9.59118 6.75469 22
358 2 -3.63421 -11.3383 9.75236 13
359 2 -0.0191261 -11.6679 9.60689 13
360 2 -0.544238 -5.82882 4.19447 23
361 2 -1.99328 -2.94232 4.201 24
362 2 -1.91147 -0.725403 1.50952 23
363 2 -0.3925 -3.8731 1.53694 22
364 2 -0.393083 -5.38604 9.37712 24
365 2 -2.08508 -3.08253 9.93592 21
366 2 -2.11274 -0.613076 6.90083 20
367 2 -0.254855 -3.3457 6.67791 21
368 2 4.35439 -14.2445 5.61267 12
369 2 -5.49419 -1.02693 12.6177 16
370 2 -1.80279 -1.17728 12.3776 17
371 2 -0.142528 -4.02417 12.733 16
372 1 -13.2609 -0.587709 -8.75468 13
373 1 -13.162 1.82412 -5.98815 20
374 1 -13.3948 0.191471 -3.10295 21
375 1 -15.7158 1.79558 -3.51033 10
376 1 -14.0497 7.75811 -6.52704 10
377 1 -13.8678 5.86516 -3.22805 16
378 1 -10.6946 5.46698 -8.20429 17
379 1 -10.2207 0.564472 -8.12783 23
380 1 -12.358 2.75873 -8.73796 15
381 1 -12.2524 4.86269 -5.7262 19
382 1 -9.94997 1.88317 -5.51569 21
383 1 -10.1207 0.0137436 -2.96604 21
384 1 -12.1472 3.11194 -3.13359 22
385 1 -13.942 4.76941 -8.32938 10
386 1 -10.5788 7.7449 -5.60333 21
387 1 -10.4128 5.90677 -3.06222 23
388 1 -12.1715 8.70886 -3.39931 17
389 1 -10.3515 11.3939 -3.20471 14
390 1 -6.70628 0.385478 -13.4109 15
391 1 -6.69265 6.6844 -13.2165 10
392 1 -9.08513 5.47297 -11.0316 15
393 1 -7.37833 2.34826 -10.7955 22
394 1 -6.82617 0.291724 -8.46088 20
395 1 -8.70345 3.23135 -8.0559 22
396 1 -8.7071 5.08274 -5.57187 23
397 1 -6.99355 1.96791 -5.86301 21
398 1 -6.7472 0.48672 -3.19277 21
399 1 -8.69154 3.09673 -3.21281 21
400 1 -6.87757 8.51472 -11.0558 16
401 1 -7.04255 10.9165 -8.96462 19
402 1 -6.84696 5.56345 -8.42365 22
403 1 -9.14985 8.26496 -8.70853 18
404 1 -9.833 11.6555 -9.00381 9
405 1 -7.18954 7.83499 -5.95975 22
406 1 -6.77259 5.74243 -3.25453 24
407 1 -8.73599 8.53129 -3.22947 23
408 1 -11.9432 10.7938 -6.13016 10
409 1 -8.76933 10.6579 -5.94785 17
410 1 -6.78728 11.4682 -3.48181 20
411 1 -3.75763 -0.111656 -13.6034 19
412 1 -5.66049 3.21897 -13.7972 16
413 1 -5.5574 5.13478 -11.0131 25
414 1 -3.8182 2.17157 -11.0246 22
415 1 -3.58392 0.185221 -8.24323 24
416 1 -5.30025 2.8593 -8.32818 21
417 1 -5.13858 4.95851 -5.70986 24
418 1 -3.57199 1.83508 -5.73428 24
419 1 -3.66905 0.0542625 -3.40385 20
420 1 -5.12304 3.01124 -3.02837 22
421 1 -3.58325 5.94624 -13.7194 14
422 1 -6.11494 13.4398 -10.242 8
423 1 -3.37665 7.70477 -11.2972 20
424 1 -3.6056 5.8008 -8.24817 24
425 1 -5.41533 8.29325 -8.82649 23
426 1 -5.01135 10.3882 -6.0164 23
427 1 -3.68103 7.56761 -5.788 25
428 1 -3.71085 6.03813 -3.21526 24
429 1 -5.19134 8.78591 -3.14082 25
430 1 -4.07153 11.88 -8.8587 18
431 1 -4.18804 13.4637 -6.40652 14
432 1 -3.73899 11.4228 -3.28845 24
433 1 -7.14307 12.9508 -7.35737 15
434 1 -0.496697 0.247131 -14.1505 13
435 1 -2.25835 2.90083 -13.8333 17
436 1 -1.91442 4.9896 -11.2131 22
437 1 -0.224759 2.08941 -11.063 22
438 1 -0.526522 0.349549 -8.61163 21
439 1 -1.95425 2.89321 -8.17896 25
440 1 -1.76762 4.93971 -5.6615 25
441 1 -0.230508 2.17332 -5.85561 22
442 1 -0.198545 -0.0196888 -3.04495 24
443 1 -2.28078 3.15439 -3.22306 21
444 1 -0.133675 5.04541 -13.792 13
445 1 -4.60708 10.3076 -11.5663 13
446 1 -1.60919 10.8595 -11.4331 13
447 1 0.0465286 7.82631 -11.4059 18
448 1 0.0544957 6.23402 -8.68817 23
449 1 -2.10537 8.90867 -8.60616 21
450 1 -1.92506 10.6769 -6.05516 22
451 1 -0.29925 7.76385 -5.97747 24
452 1 -0.441712 6.00439 -3.02077 23
453 1 -1.74298 8.51692 -3.36064 22
454 1 -0.0829675 11.5559 -9.08924 13
455 1 -0.454482 13.405 -6.11982 13
456 1 -0.11596 11.3051 -3.83467 23
457 1 -2.31211 14.582 -3.33142 11
458 2 -12.2695 0.881668 -9.2928 14
459 2 -13.9125 2.93223 -7.56244 11
460 2 -13.8164 -0.0369197 -1.25497 19
461 2 -15.8884 2.6963 -1.6624 12
462 2 -12.2575 4.60102 -9.16533 14
463 2 -13.7843 2.04555 -4.0438 18
464 2 -10.7051 5.98588 -6.35421 21
465 2 -14.3904 5.65547 -1.25396 15
466 2 -13.5424 7.63386 -3.06998 12
467 2 -9.61413 0.671011 -11.5195 14
468 2 -10.0058 -0.145196 -6.25477 22
469 2 -11.4036 2.93755 -6.56677 23
470 2 -8.81936 10.0861 -8.95241 13
471 2 -9.98023 2.15811 -9.3515 21
472 2 -10.5361 0.20432 -1.0003 21
473 2 -12.4815 2.98312 -0.942988 22
474 2 -12.1222 5.12223 -3.71588 19
475 2 -10.5396 1.99712 -3.49449 20
476 2 -8.98506 8.52842 -6.53543 20
477 2 -12.4201 8.87278 -6.35847 11
478 2 -5.04156 12.0154 -10.8123 11
479 2 -10.7829 5.66485 -0.884192 22
480 2 -12.3608 8.97515 -0.40597 16
481 2 -8.62508 10.5699 -3.74644 18
482 2 -10.574 7.71493 -3.38469 20
483 2 -10.4735 11.2273 -1.18093 13
484 2 -7.03299 -0.0996243 -11.7265 20
485 2 -8.95624 3.59303 -11.3995 13
486 2 -7.36196 2.20885 -13.4532 11
487 2 -6.76547 0.105057 -6.54269 25
488 2 -8.67923 3.16226 -6.18296 22
489 2 -8.74767 5.21688 -8.82066 18
490 2 -7.1077 2.26176 -8.80806 22
491 2 -7.10549 0.361422 -1.0573 24
492 2 -8.85063 3.15009 -1.13331 22
493 2 -8.70883 5.03007 -3.68168 23
494 2 -6.81119 2.33932 -3.78863 23
495 2 -7.30261 5.89611 -11.5482 15
496 2 -6.76952 5.69428 -6.51592 23
497 2 -13.6211 5.85143 -6.82027 13
498 2 -10.5435 11.4808 -7.09152 13
499 2 -7.5549 7.83163 -9.26372 18
500 2 -7.34785 5.94659 -1.43668 23
501 2 -8.72178 8.24243 -1.47869 25
502 2 -5.88834 9.91832 -10.1066 18
503 2 -6.93339 7.63942 -3.89199 24
504 2 -7.18382 11.0544 -6.98019 23
505 2 -7.13746 11.5183 -1.29637 21
506 2 -11.7257 10.405 -4.14819 12
507 2 -3.61207 0.138905 -11.6296 22
508 2 -5.6594 3.236 -11.3617 20
509 2 -5.50333 5.19787 -13.8816 12
510 2 -4.11915 2.07655 -14.2421 15
511 2 -3.37313 0.0325601 -6.17445 21
512 2 -5.03891 3.16509 -6.23742 22
513 2 -5.2194 4.72377 -9.00526 23
514 2 -3.53867 2.05902 -8.69427 20
515 2 -3.98563 0.128275 -1.10233 21
516 2 -5.07335 3.11908 -1.10619 22
517 2 -5.13392 4.75225 -3.71173 23
518 2 -3.53393 1.82681 -3.73207 21
519 2 -3.78437 5.84557 -11.8947 20
520 2 -2.86427 9.53726 -11.8021 14
521 2 -3.31623 5.86145 -6.21764 19
522 2 -5.38165 8.67911 -6.74306 22
523 2 -3.58883 11.6424 -6.61931 18
524 2 -3.42566 7.62813 -9.26296 21
525 2 -3.56787 6.07086 -1.0361 25
526 2 -5.49428 8.6377 -1.33097 24
527 2 -5.24807 10.4991 -3.96788 23
528 2 -3.67858 7.87193 -3.8897 25
529 2 -5.28778 13.1515 -8.20473 12
530 2 -6.59087 13.9762 -2.66075 10
531 2 -7.82551 13.0555 -9.25128 12
532 2 -3.76376 13.7477 -4.46356 16
533 2 -0.272781 0.0857892 -11.6728 21
534 2 -2.26783 3.12414 -11.8793 22
535 2 -1.99648 5.0091 -14.0206 11
536 2 -0.326771 2.44347 -13.8562 17
537 2 -0.029157 0.176139 -6.42889 24
538 2 -1.87287 3.02814 -6.35303 25
539 2 -1.6474 5.29629 -9.11202 21
540 2 -0.216452 2.42404 -8.89931 21
541 2 -0.442235 0.296871 -1.02506 20
542 2 -2.05603 3.21452 -1.33942 22
543 2 -2.18408 4.98468 -3.71094 22
544 2 -0.0917169 1.95039 -3.9894 24
545 2 -0.188156 5.8249 -11.9176 22
546 2 -1.95709 10.8756 -9.62007 16
547 2 -0.120031 5.97377 -6.6157 25
548 2 -2.27493 8.53664 -6.61774 22
549 2 -0.0243595 11.7671 -10.998 11
550 2 -0.231786 8.30532 -9.44583 24
551 2 -0.327713 5.85384 -1.16577 25
552 2 -2.05343 8.70485 -1.4666 22
553 2 -2.25435 10.3499 -4.03333 20
554 2 -0.16719 7.58196 -4.04142 24
555 2 0.0132794 11.3075 -6.41053 19
556 2 1.33149 14.1339 -5.72043 11
557 2 -5.51396 7.77076 -12.1391 14
558 2 -0.128894 11.6604 -0.550278 19
559 2 -6.32755 13.8405 -5.83083 12
560 2 -0.550877 13.3581 -3.87828 15
561 1 -15.8979 4.49737 -0.894911 13
562 1 -14.3664 1.96301 -0.81376 19
563 1 -14.0642 0.075959 2.15882 21
564 1 -15.8576 3.0915 1.99629 12
565 1 -15.8854 4.66721 4.80869 10
566 1 -13.8901 2.13307 4.82141 16
567 1 -13.9896 -0.103365 6.47166 13
568 1 -13.8552 7.5507 -0.847294 13
569 1 -15.5037 6.28344 2.02482 12
570 1 -10.9951 7.74379 4.92301 19
571 1 -12.5172 2.90745 7.5124 16
572 1 -12.3815 4.98871 -0.166497 24
573 1 -10.6024 2.1192 -0.666509 22
574 1 -10.4328 0.194137 2.13325 22
575 1 -12.4869 2.9402 2.06183 21
576 1 -12.0292 4.96955 4.05202 17
577 1 -10.7408 2.06148 4.93599 21
578 1 -10.7197 0.173817 7.05386 21
579 1 -11.9673 -1.69586 12.0861 12
580 1 -11.9045 4.44462 10.3632 12
581 1 -10.4608 2.12879 9.41882 19
582 1 -12.4667 1.91555 11.8963 9
583 1 -11.8415 10.7618 0.32615 13
584 1 -10.1843 7.75452 -0.425138 22
585 1 -10.44 5.6261 2.08795 24
586 1 -12.498 8.17932 1.58139 17
587 1 -13.7521 7.93848 4.47935 13
588 1 -8.99878 10.3257 4.7143 19
589 1 -12.4894 6.42702 7.15815 11
590 1 -9.24666 8.46655 7.32068 17
591 1 -10.7897 7.09526 9.51452 9
592 1 -12.0908 10.7248 3.61331 9
593 1 -9.06604 4.97443 -0.602149 22
594 1 -6.84362 2.14206 -0.54523 24
595 1 -7.09711 0.00137713 2.06032 23
596 1 -8.9223 2.95638 1.77986 22
597 1 -8.6321 4.77432 4.59136 22
598 1 -7.20315 1.78249 4.69478 21
599 1 -7.18523 -0.146764 7.39148 20
600 1 -8.59394 3.20505 7.3461 21
601 1 -8.35695 5.06167 10.2499 19
602 1 -7.04871 1.93596 10.2349 19
603 1 -12.2423 -0.482257 9.50984 18
604 1 -10.1212 4.12334 12.3731 11
605 1 -8.78379 10.8395 -0.555214 16
606 1 -6.99285 7.79897 -0.711049 24
607 1 -7.14593 6.07268 1.95099 23
608 1 -9.03975 8.55878 2.12334 22
609 1 -7.21465 13.052 10.0193 7
610 1 -7.2505 7.70161 4.89864 24
611 1 -7.02206 6.04155 7.39541 21
612 1 -7.32696 11.1874 7.20709 17
613 1 -7.15966 8.08591 9.90715 13
614 1 -6.73395 3.76613 12.6487 14
615 1 -7.22859 13.6748 -0.923763 11
616 1 -6.66404 11.3408 2.17889 21
617 1 -5.51096 14.6559 1.95219 11
618 1 -5.20628 10.5205 9.8922 16
619 1 -5.35201 5.1816 -0.617575 22
620 1 -3.53562 1.98038 -0.607142 23
621 1 -3.70618 -0.126117 2.03917 22
622 1 -5.47451 2.95429 2.0881 23
623 1 -5.50376 4.8007 4.84478 22
624 1 -3.47103 1.92844 4.68006 22
625 1 -3.73862 0.149788 7.47206 23
626 1 -5.31988 2.93629 7.42196 24
627 1 -5.41451 4.79181 9.92078 19
628 1 -3.89832 2.22056 10.6071 24
629 1 -5.65634 -0.872959 9.96435 21
630 1 -7.11129 0.0326363 12.8971 13
631 1 -5.63984 10.4202 -0.620551 22
632 1 -3.66906 7.97661 -0.688889 22
633 1 -3.7958 5.65197 2.20163 23
634 1 -5.59258 8.63686 2.26267 24
635 1 -5.09331 10.5665 4.8139 22
636 1 -3.92738 7.87967 4.65897 21
637 1 -3.82929 5.7978 7.43203 22
638 1 -5.5022 8.86178 7.24099 23
639 1 -2.32077 9.04269 12.6109 9
640 1 -3.8564 7.81602 9.69015 20
641 1 -2.21146 3.0515 12.8897 14
642 1 -3.73799 5.69121 12.1115 13
643 1 -3.80957 13.5184 -0.387429 17
644 1 -3.61717 11.2919 1.9996 23
645 1 -3.84764 14.2536 4.61173 14
646 1 -9.97455 12.0486 6.51149 9
647 1 -3.7859 11.9031 7.2267 20
648 1 -1.96676 4.86035 -0.245331 24
649 1 -0.501971 2.18537 -0.484705 22
650 1 -0.154609 0.330439 2.05521 21
651 1 -2.17458 2.79021 2.26761 24
652 1 -2.12125 4.70352 4.84263 22
653 1 -0.181989 1.89747 4.9449 26
654 1 -0.397424 -0.0470069 7.57134 22
655 1 -2.13281 2.71624 7.24366 21
656 1 -1.98651 4.5687 10.0884 24
657 1 -0.305855 2.01097 10.3229 23
658 1 -0.142415 -0.00114049 12.8841 15
659 1 -0.434564 5.9512 12.5122 12
660 1 -1.79181 10.794 -0.688626 23
661 1 -0.193649 7.85082 -0.820359 21
662 1 -0.395819 6.03799 2.27621 24
663 1 -2.08763 8.50037 2.16939 23
664 1 -2.11647 10.8487 4.29138 21
665 1 -0.339642 7.57967 4.32948 22
666 1 -0.330473 6.11038 7.27822 22
667 1 -2.3621 8.60099 7.1639 22
668 1 -2.25123 11.0145 9.62085 17
669 1 -0.560863 7.77695 9.94115 22
670 1 3.19428 8.03921 9.95464 17
671 1 -4.04018 13.6187 10.3825 11
672 1 -5.56111 14.4258 -4.13401 10
673 1 -0.29655 13.7296 -0.8749 17
674 1 -0.17507 11.6981 1.57332 20
675 1 -0.192232 13.3156 4.78928 19
676 1 2.73636 13.4612 8.68726 14
677 1 -0.507147 11.7747 7.27273 25
678 1 -7.00751 13.483 4.63516 13
679 1 -2.37066 14.7823 7.73175 13
680 2 -13.9224 0.06926 4.24663 19
681 2 -15.1153 3.25183 3.83754 15
682 2 -15.8772 4.61313 1.2217 14
683 2 -14.3887 1.90859 1.20074 20
684 2 -12.7292 -2.46001 9.83651 17
685 2 -13.667 1.7119 6.64416 14
686 2 -15.2539 6.41071 3.96406 10
687 2 -14.369 7.52052 1.169 13
688 2 -10.7468 0.33055 4.12159 22
689 2 -12.2847 3.2007 4.2504 19
690 2 -12.1346 4.82253 1.9707 19
691 2 -10.8486 2.08345 1.26856 22
692 2 -10.576 0.252168 9.1271 21
693 2 -12.2253 2.55297 9.46696 15
694 2 -12.8213 6.20116 5.23502 14
695 2 -10.4496 2.15691 6.94957 18
696 2 -10.2175 5.52379 10.8807 12
697 2 -10.3415 6.01406 4.35436 20
698 2 -12.1234 8.54296 3.54103 19
699 2 -12.5735 11.161 1.96165 7
700 2 -10.4078 7.60347 1.42993 20
701 2 -11.1818 8.02222 7.30531 12
702 2 -8.95335 10.3406 6.87924 16
703 2 -10.6023 11.3275 4.56636 10
704 2 -7.24808 0.00723686 4.09882 22
705 2 -8.86944 2.75824 4.10954 23
706 2 -8.73456 4.88714 1.35283 25
707 2 -7.2372 1.88164 1.61351 19
708 2 -7.12221 0.251818 9.30078 22
709 2 -8.5785 3.20677 9.47351 22
710 2 -8.25302 4.77796 6.60053 18
711 2 -7.00268 1.93983 6.84908 21
712 2 -12.6813 -0.0119138 11.3252 9
713 2 -11.883 5.48915 8.66728 12
714 2 -7.24204 1.87052 12.1889 16
715 2 -6.95162 5.70849 3.84138 24
716 2 -8.71346 8.53 4.02368 21
717 2 -8.06971 10.4467 1.12455 20
718 2 -7.22204 7.72944 1.17558 24
719 2 -6.96357 5.91288 9.34473 22
720 2 -8.98511 8.04947 9.2175 13
721 2 -7.15718 11.2781 9.49708 13
722 2 -7.35286 7.78985 6.83298 20
723 2 -5.01789 4.57228 12.5429 14
724 2 -5.56277 14.3073 3.75084 14
725 2 -5.75845 13.5576 0.310449 14
726 2 -2.59729 10.5668 11.4861 13
727 2 -7.23482 11.4068 4.06116 19
728 2 -3.51302 -0.0615071 4.25619 22
729 2 -5.26647 2.70597 4.28106 24
730 2 -5.43482 4.72431 1.28248 23
731 2 -3.86833 1.71724 1.95069 22
732 2 -3.83176 -0.158663 9.65579 20
733 2 -5.50505 2.94037 9.44101 23
734 2 -5.31529 4.9079 7.00996 21
735 2 -3.67445 1.87613 6.63401 23
736 2 -10.4583 -2.72308 12.2343 16
737 2 -8.13051 4.77189 12.2723 10
738 2 -12.0354 3.68224 12.187 8
739 2 -0.141407 0.100671 9.68816 21
740 2 -4.00679 5.63612 4.26931 23
741 2 -5.52782 8.5979 4.04241 24
742 2 -5.22716 10.3377 1.56942 21
743 2 -3.83479 7.79403 1.46134 24
744 2 -3.65873 5.52726 9.3742 23
745 2 -3.46181 7.63097 11.9958 14
746 2 -5.46638 10.5823 6.71911 21
747 2 -4.05114 7.88257 6.66775 21
748 2 -3.62454 1.57286 12.4379 17
749 2 -5.47997 8.63106 9.57459 20
750 2 -3.88894 11.5928 3.91206 24
751 2 -3.46521 13.5677 1.45316 18
752 2 -3.66608 11.4524 -1.26486 21
753 2 -4.04292 12.0707 9.28506 18
754 2 -8.05512 13.1824 6.32811 11
755 2 -0.266873 0.0227348 3.99416 23
756 2 -1.85224 2.86044 4.35393 20
757 2 -2.03087 4.98401 1.83952 21
758 2 -0.467273 2.24244 1.67947 22
759 2 1.73567 -2.95089 9.44317 21
760 2 -2.19099 2.39274 9.80525 21
761 2 -1.84059 4.71096 6.93113 23
762 2 -0.205274 1.66852 6.78174 22
763 2 6.31165 2.18202 11.9693 20
764 2 -1.89601 4.83115 12.2982 17
765 2 1.08708 4.91451 12.0124 16
766 2 -0.64676 1.88793 12.1885 18
767 2 -0.487075 5.70986 4.19314 21
768 2 -2.09519 8.57328 4.09049 24
769 2 -1.82378 10.5767 1.69201 20
770 2 -0.40641 7.69382 1.14516 22
771 2 -0.602551 5.91333 9.51408 21
772 2 -2.34317 9.0509 9.20486 22
773 2 -2.17868 10.6233 6.87154 21
774 2 -0.338228 7.91594 6.54175 20
775 2 -2.22348 14.0519 9.59526 13
776 2 -0.407924 11.2704 9.11514 19
777 2 -1.1059 7.79979 11.7493 13
778 2 -0.351189 11.5354 3.89317 24
779 2 -3.65242 13.7192 6.28966 16
780 2 -2.30205 14.0096 -1.60398 13
781 2 -0.276477 13.9482 1.21435 18
782 2 -5.75324 14.1268 9.97907 6
783 2 1.19608 14.4335 9.12319 11
784 1 1.30549 -12.596 -6.0171 17
785 1 1.19832 -14.4064 -8.82388 9
786 1 -0.545341 -15.8304 -6.44053 11
787 1 6.44921 -9.76432 -11.5611 11
788 1 3.25993 -9.79523 -10.9553 15
789 1 3.26131 -11.6532 -8.60326 14
790 1 -2.2421 -14.3766 -8.98563 12
791 1 1.35367 -8.93062 -8.17345 23
792 1 1.25746 -6.7616 -5.68618 24
793 1 3.12028 -9.52875 -5.74751 24
794 1 3.3318 -12.0407 -3.35925 20
795 1 0.986624 -8.83652 -3.06242 24
796 1 2.98779 -5.26501 -13.9347 11
797 1 4.69711 -2.7367 -14.1914 13
798 1 1.32095 -0.800867 -11.293 20
799 1 2.68368 -3.92729 -11.2582 23
800 1 2.77605 -5.56958 -8.18967 25
801 1 1.16672 -2.97754 -8.54399 24
802 1 1.52828 -0.947166 -5.86556 23
803 1 3.10491 -3.70559 -5.7842 26
804 1 3.02242 -6.06206 -3.16709 23
805 1 1.54223 -3.0376 -3.0507 24
806 1 4.78537 -12.4741 -6.46608 14
807 1 1.36614 -14.4296 -3.99939 14
808 1 4.5672 -6.92531 -11.0724 19
809 1 6.72197 -11.2038 -9.04256 15
810 1 9.76353 -11.7237 -7.06948 9
811 1 4.53015 -8.56321 -8.11911 22
812 1 4.77993 -6.77874 -5.52681 25
813 1 6.81582 -9.24322 -5.88058 21
814 1 7.05836 -11.2845 -4.06674 15
815 1 4.25825 -8.53868 -3.0892 20
816 1 7.18263 -6.38734 -13.0181 10
817 1 5.83915 -4.09048 -11.1469 20
818 1 4.81787 -0.806475 -11.6169 21
819 1 9.28679 -7.87835 -11.2475 12
820 1 5.50387 -5.39137 -8.1325 19
821 1 4.5791 -2.5088 -8.81928 21
822 1 4.74968 -1.15886 -6.01874 23
823 1 6.15348 -3.84046 -5.67698 23
824 1 6.44344 -5.79736 -3.07274 25
825 1 4.58855 -2.87017 -2.95179 24
826 1 5.55232 -13.6565 -3.36596 10
827 1 7.81154 -8.29051 -8.77219 21
828 1 9.32402 -11.2722 -10.166 10
829 1 8.00919 -6.5045 -6.02456 22
830 1 9.66115 -9.10533 -5.58634 19
831 1 7.66924 -12.3752 -0.688454 12
832 1 7.63128 -8.52035 -3.03031 21
833 1 9.36969 -4.49653 -11.6893 15
834 1 7.84689 -1.12576 -11.7352 16
835 1 11.2381 -2.83861 -9.74043 15
836 1 10.2857 -5.60384 -8.75499 20
837 1 7.93754 -3.13913 -9.53788 16
838 1 7.74511 -0.91864 -5.51829 23
839 1 9.21985 -3.84526 -6.82324 18
840 1 9.63704 -5.94956 -3.36101 20
841 1 7.86419 -3.19872 -2.70416 22
842 1 12.1316 -9.46207 -7.90541 8
843 1 11.2206 -6.65073 -6.0589 21
844 1 11.5401 -8.62555 -3.838 11
845 1 10.9003 -1.15039 -11.8541 10
846 1 13.0381 -6.07969 -8.4138 13
847 1 12.4052 -3.89153 -7.13291 16
848 1 11.2489 -0.796556 -6.07164 20
849 1 14.1455 -1.59676 -6.04334 14
850 1 14.4244 -5.01094 -5.605 10
851 1 10.9553 -2.68301 -3.22509 20
852 1 16.0237 -0.0860365 -3.02557 14
853 1 13.9967 -2.75184 -3.53795 17
854 2 -3.7961 -15.2326 -8.14901 10
855 2 1.54363 -12.3712 -8.63742 15
856 2 0.0175479 -15.0692 -2.45278 16