ITEM: TIMESTEP
70000
ITEM: NUMBER OF ATOMS
1500
ITEM: BOX BOUNDS pp pp pp
-30.0 30.0
-30.0 30.0
-30.0 30.0
ITEM: ATOMS id type x y z Coordination
1 1 -14.9207 -1.38039 -6.19882 13
2 1 -15.0533 -4.7445 -6.51649 10
3 1 -13.9856 -6.37734 -3.72525 12
4 1 -15.781 -3.13429 -3.54426 11
5 1 -11.7087 -6.39146 -6.43454 12
6 1 -9.41979 -10.7406 -5.46737 12
7 1 -10.4701 -12.5765 -2.77211 9
8 1 -11.5886 -8.38946 -3.72313 16
9 1 -9.70932 -0.872731 -13.3183 7
10 1 -10.5675 -2.49158 -10.1879 14
11 1 -9.44751 -5.82598 -10.0922 11
12 1 -12.6849 -3.12548 -7.60474 13
13 1 -11.4923 -0.69406 -5.86423 24
14 1 -9.9838 -3.69687 -5.83559 21
15 1 -9.86581 -5.50197 -3.5749 21
16 1 -11.7613 -2.7609 -3.12698 19
17 1 -7.92458 -13.3344 -5.34155 12
18 1 -7.38993 -5.56826 -12.8282 11
19 1 -7.49405 -9.38354 -11.272 10
20 1 -7.15082 -11.7369 -8.58818 14
21 1 -8.1828 -8.6194 -8.24249 17
22 1 -8.38888 -6.81369 -6.00446 17
23 1 -6.81057 -9.93004 -5.59351 24
24 1 -6.571 -11.6817 -2.38903 19
25 1 -8.51551 -8.52568 -3.15826 20
26 1 -4.19082 -5.48272 -13.7887 12
27 1 -8.73377 2.46582 -13.4002 12
28 1 -8.62645 -0.249397 -10.6762 20
29 1 -7.27679 -3.51738 -11.0463 20
30 1 -6.63583 -5.82536 -8.53518 20
31 1 -8.41198 -3.06463 -8.24143 24
32 1 -8.30303 -0.863753 -5.8301 25
33 1 -6.83921 -3.78708 -5.94368 24
34 1 -6.75602 -5.77575 -3.40452 25
35 1 -8.10348 -2.72407 -3.377 23
36 1 -5.09162 -13.0613 -6.43629 14
37 1 -5.22885 -14.13 -3.5721 13
38 1 -5.07885 -7.25358 -11.1748 19
39 1 -3.61283 -10.1064 -11.3833 12
40 1 -3.38648 -11.9388 -8.49095 15
41 1 -4.92788 -9.1448 -8.61261 22
42 1 -5.29562 -7.14368 -5.96488 23
43 1 -3.88856 -9.93977 -5.57481 22
44 1 -3.65305 -11.1839 -2.5596 21
45 1 -5.30647 -8.8056 -3.0526 23
46 1 -0.627494 -5.62183 -13.942 14
47 1 -5.65191 -2.94367 -14.019 14
48 1 -5.36474 -1.00555 -11.1627 24
49 1 -3.84928 -3.8561 -11.1334 21
50 1 -3.42662 -6.04049 -8.76806 23
51 1 -5.2531 -3.00495 -8.57112 23
52 1 -4.93192 -0.893065 -5.68327 26
53 1 -3.54312 -3.86553 -6.44903 21
54 1 -3.59526 -5.63765 -3.38318 24
55 1 -5.11099 -3.00316 -3.42813 23
56 1 -1.92189 -12.5288 -5.77525 17
57 1 -0.00200819 -15.7503 -5.72732 9
58 1 -2.0858 -14.2521 -3.13913 15
59 1 1.05414 -6.51538 -11.3081 22
60 1 -2.30972 -6.49048 -11.2966 21
61 1 -0.554027 -9.34699 -10.8918 16
62 1 -0.415773 -11.5392 -8.26319 17
63 1 -2.0441 -8.90656 -8.35751 24
64 1 -1.86153 -6.76256 -5.8123 23
65 1 -0.397641 -9.58351 -5.54618 24
66 1 -0.183276 -11.3342 -2.71329 24
67 1 -1.98217 -8.35485 -3.07173 22
68 1 0.831123 -2.87995 -13.9518 17
69 1 -2.24399 -2.81876 -14.755 12
70 1 -2.16122 -0.768126 -11.3283 21
71 1 -0.406313 -3.64575 -11.2857 22
72 1 -0.321172 -5.97399 -8.38296 23
73 1 -1.84091 -2.7423 -8.94909 21
74 1 -1.78313 -0.878153 -6.45923 19
75 1 -0.43743 -3.61171 -5.8397 24
76 1 -0.326234 -5.28428 -3.12086 24
77 1 -2.04622 -2.50663 -3.51332 23
78 2 -14.4232 -2.98852 -6.90012 12
79 2 -13.8212 -6.17914 -1.85977 16
80 2 -15.2887 -2.89367 -1.70928 13
81 2 -15.0751 -1.52497 -4.36641 14
82 2 -14.9632 -4.86198 -4.39001 11
83 2 -10.1742 -9.32943 -4.44819 18
84 2 -8.3825 -6.87323 -8.97077 16
85 2 -9.15373 -12.603 -1.15361 10
86 2 -12.2129 -11.8576 -2.51134 9
87 2 -12.8562 -5.12343 -7.14659 11
88 2 -12.4466 -6.99025 -4.77276 12
89 2 -9.99299 -5.69783 -5.67392 18
90 2 -11.2905 -2.44367 -6.62346 22
91 2 -11.747 -1.39098 -9.21501 16
92 2 -9.74718 -4.00748 -9.14262 17
93 2 -9.75464 -5.49726 -1.46328 20
94 2 -12.1176 -3.0247 -1.18426 20
95 2 -11.9494 -0.846773 -4.09496 21
96 2 -9.87914 -3.49381 -3.9389 20
97 2 -9.46726 -12.5614 -4.39484 11
98 2 -7.45268 -11.6656 -6.46872 14
99 2 -8.19845 -8.89843 -6.14903 16
100 2 -8.37 -5.07225 -11.3734 14
101 2 -7.45577 -10.0516 -9.46682 13
102 2 -6.58718 -11.4422 -0.588238 19
103 2 -8.29547 -8.61031 -1.15047 20
104 2 -8.32971 -6.78135 -3.85712 21
105 2 -7.02918 -9.99005 -3.37876 22
106 2 -6.07594 -4.99851 -14.208 12
107 2 -9.97288 -1.45576 -11.7659 12
108 2 -6.87619 -5.7472 -6.44201 22
109 2 -8.45657 -2.64048 -6.47958 21
110 2 -8.56157 -1.2509 -9.0607 21
111 2 -6.82612 -4.05866 -9.33384 22
112 2 -6.77467 -5.81823 -1.42694 26
113 2 -8.48796 -2.85701 -1.32254 26
114 2 -8.16462 -0.828435 -3.85213 24
115 2 -6.71902 -3.59808 -4.17298 24
116 2 -5.31449 -12.3952 -8.21848 14
117 2 -3.945 -15.2928 -2.97411 9
118 2 -6.01013 -14.0773 -5.16438 10
119 2 -4.96699 -12.5661 -2.55825 19
120 2 -6.9662 -7.51522 -11.7552 14
121 2 -3.73176 -11.7005 -6.09686 23
122 2 -5.2442 -9.28955 -6.70164 22
123 2 -4.88777 -7.18486 -9.24988 24
124 2 -5.50008 -9.50566 -11.1225 10
125 2 -3.22812 -11.3301 -0.637113 22
126 2 -5.10827 -8.67391 -1.00337 23
127 2 -5.20409 -6.94496 -4.07678 24
128 2 -3.48601 -9.4244 -3.50183 24
129 2 -4.23852 -5.65753 -11.7543 19
130 2 -5.62163 -2.99209 -11.9275 18
131 2 -5.57004 -1.10618 -14.0839 13
132 2 -3.67669 -3.62879 -13.9846 13
133 2 -3.31341 -5.78551 -6.50921 21
134 2 -5.15245 -2.65795 -6.56018 22
135 2 -5.46177 -1.19235 -9.18546 23
136 2 -3.55927 -3.81527 -9.08991 22
137 2 -3.57724 -5.50013 -1.00212 23
138 2 -5.40122 -3.08993 -1.38401 23
139 2 -4.94444 -1.12485 -3.78596 22
140 2 -3.40401 -3.71078 -4.04257 24
141 2 -1.81015 -12.7721 -7.93391 14
142 2 -3.32187 -10.2569 -9.26021 18
143 2 -1.71209 -13.7269 -1.39297 20
144 2 -2.02652 -12.3729 -3.37738 20
145 2 -1.42528 -14.7134 -4.9419 14
146 2 -2.41457 -8.5344 -11.4249 15
147 2 4.25807 -8.57843 -10.7206 14
148 2 -0.288345 -11.4603 -6.15313 22
149 2 -2.26106 -8.79009 -6.28005 22
150 2 -1.8244 -7.18541 -9.24356 22
151 2 -0.49637 -9.75811 -8.95205 20
152 2 -0.0511383 -11.2145 -0.709064 21
153 2 -1.87537 -8.39784 -1.0427 24
154 2 -2.1083 -6.47677 -3.93057 23
155 2 -0.313882 -9.17245 -3.58181 22
156 2 -0.710958 -5.56449 -11.7638 20
157 2 -2.17876 -2.6215 -11.39 23
158 2 -2.38002 -0.877912 -14.5073 15
159 2 -0.524656 -3.73368 -14.755 14
160 2 -0.213521 -5.62913 -6.54738 23
161 2 -2.20334 -2.63445 -7.09131 23
162 2 -2.16574 -0.448853 -9.11936 20
163 2 -0.348526 -4.17097 -9.06441 20
164 2 -0.48893 -5.36927 -0.999834 22
165 2 -2.10401 -2.66681 -1.52036 27
166 2 -1.87704 -0.500012 -4.20945 24
167 2 -0.305658 -3.51294 -3.82689 22
168 1 -14.6968 -7.62036 -0.587788 11
169 1 -13.6259 -10.8516 -1.81976 7
170 1 -15.0406 -1.17255 -0.489425 14
171 1 -13.7167 -4.16283 -0.848717 19
172 1 -13.459 -5.53411 1.79897 18
173 1 -15.2341 -3.17564 2.20271 14
174 1 -14.8042 -1.33226 4.69197 15
175 1 -14.5101 -4.60875 5.01663 12
176 1 -12.9778 -5.59453 7.78501 13
177 1 -11.6939 -6.4157 -0.989631 20
178 1 -9.99494 -9.77 -1.0059 20
179 1 -10.2744 -11.3403 2.20017 13
180 1 -12.1766 -8.22117 1.41026 16
181 1 -11.9424 -6.66086 4.30357 19
182 1 -10.4179 -9.15601 4.4344 17
183 1 -12.0265 -8.70725 7.04572 12
184 1 -11.8487 -0.970574 -0.920181 23
185 1 -10.1778 -3.88874 -0.653968 23
186 1 -10.0593 -5.74291 2.01836 23
187 1 -12.1802 -3.05762 1.78368 20
188 1 -12.1789 -0.587212 4.5483 21
189 1 -10.5555 -3.48224 4.30941 19
190 1 -10.3348 -5.83419 6.89154 20
191 1 -12.2207 -2.92085 6.94855 21
192 1 -15.0369 -2.23979 7.63003 11
193 1 -10.3282 -3.80133 9.60552 20
194 1 -8.02238 -12.5912 0.238633 14
195 1 -7.52232 -13.3639 5.20094 12
196 1 -8.35715 -6.72704 -0.642543 24
197 1 -6.77814 -9.40978 -0.238272 22
198 1 -6.56418 -11.2348 2.41563 20
199 1 -8.68615 -8.49095 2.19993 24
200 1 -8.59417 -6.567 4.73312 23
201 1 -7.09338 -9.82134 4.75198 23
202 1 -7.57441 -11.3463 8.02172 15
203 1 -8.65757 -8.51564 7.3519 19
204 1 -8.26045 -6.70678 10.5552 17
205 1 -9.94477 -11.4972 5.84709 13
206 1 -8.54776 -1.11097 -0.510595 24
207 1 -6.95152 -3.92886 -0.567515 22
208 1 -6.74563 -5.70117 2.06963 23
209 1 -8.85486 -2.7631 1.87875 21
210 1 -8.45466 -0.848367 4.74365 23
211 1 -6.91819 -3.80037 4.55715 23
212 1 -7.03875 -5.87346 7.6697 23
213 1 -8.6424 -2.93436 7.20459 23
214 1 -11.0333 -7.10273 9.83963 13
215 1 -7.00972 -4.02877 10.154 18
216 1 -6.92612 -6.60916 13.3711 10
217 1 -9.92427 -5.6277 13.0565 11
218 1 -4.86264 -12.4886 -0.117015 21
219 1 -4.31854 -15.8785 -1.15446 9
220 1 -5.26772 -14.7841 2.18777 10
221 1 -5.00278 -12.1412 5.5007 21
222 1 -2.92396 -15.6359 4.67244 10
223 1 -5.12379 -6.78287 -0.408706 25
224 1 -3.5667 -9.44498 -0.206988 24
225 1 -3.38227 -11.4256 2.56457 23
226 1 -4.97836 -8.64174 2.47021 25
227 1 -5.46012 -6.78477 4.94915 25
228 1 -3.55376 -9.68615 4.86374 23
229 1 -4.59277 -14.5725 7.0814 10
230 1 -5.32895 -8.94908 7.93534 23
231 1 -5.12721 -6.42496 10.3991 20
232 1 -6.65134 -9.5147 10.889 14
233 1 -3.5489 -5.38023 12.9584 12
234 1 -5.08116 -1.12386 -0.679825 24
235 1 -3.71395 -3.59209 -0.540468 25
236 1 -3.75986 -5.64182 2.27006 25
237 1 -5.65094 -2.64568 2.08814 22
238 1 -5.42315 -1.04717 4.59544 22
239 1 -3.54432 -3.60818 4.8894 23
240 1 -3.72573 -5.76177 7.60358 25
241 1 -5.43271 -2.76128 7.468 23
242 1 -8.59366 -1.11433 9.87016 22
243 1 -3.65865 -3.58585 10.1042 22
244 1 -5.44895 -2.40239 12.9023 15
245 1 -8.64664 -2.4854 13.1441 14
246 1 -1.71574 -12.2995 -0.319022 23
247 1 -0.243182 -14.9628 -0.560493 13
248 1 -2.50523 -14.512 1.58452 17
249 1 -1.61003 -12.8109 4.6762 21
250 1 -0.0320624 -11.6166 7.48543 19
251 1 -1.31371 -14.7721 7.22978 12
252 1 -5.20784 -12.1234 9.42599 14
253 1 -2.00087 -6.41826 -0.44135 24
254 1 -0.291175 -9.28139 -0.303262 24
255 1 -0.326222 -11.4202 2.02006 23
256 1 -1.93395 -8.40954 2.15508 24
257 1 -2.03093 -6.48111 4.8959 24
258 1 -0.352537 -9.65736 5.09966 24
259 1 0.515365 -15.7513 4.97518 13
260 1 -2.16443 -8.68041 7.76852 20
261 1 -1.61228 -6.41191 10.389 19
262 1 0.0904766 -9.20485 10.1124 15
263 1 -3.30607 -9.31933 10.5548 14
264 1 -2.04347 -0.820852 -0.715799 21
265 1 -0.344879 -3.414 -0.745886 21
266 1 -0.410827 -5.86676 2.2805 23
267 1 -2.24604 -3.03334 1.9458 24
268 1 -1.8607 -1.11377 4.85749 22
269 1 -0.303994 -3.79471 4.81749 22
270 1 -0.321973 -5.76783 7.44093 23
271 1 -2.02909 -2.96386 7.40546 23
272 1 -1.76138 -1.07019 9.75564 20
273 1 -0.312127 -3.64153 10.2459 23
274 1 -2.15527 -2.97507 12.9872 16
275 1 -3.51274 0.176865 12.8748 15
276 2 -14.1586 -7.20291 1.43081 12
277 2 -14.293 -9.15731 -1.51781 10
278 2 -13.5616 -5.60907 3.79877 17
279 2 -15.6323 -3.07143 4.02117 12
280 2 -14.9737 -1.29234 1.43559 15
281 2 -13.9486 -3.85221 1.12285 16
282 2 -15.1059 -0.790339 6.4083 12
283 2 -14.0867 -3.87313 6.72362 13
284 2 -10.4056 -11.4392 4.01487 12
285 2 -10.6524 -9.87977 1.16446 16
286 2 -11.6006 -6.11709 0.876014 23
287 2 -11.1956 -8.43427 -1.54836 18
288 2 -12.2112 -6.84292 6.27833 18
289 2 -11.4359 -8.04585 3.08217 18
290 2 -10.2635 -5.67255 4.07372 23
291 2 -11.8317 -2.22571 3.48411 24
292 2 -11.9874 -0.66824 1.08344 23
293 2 -10.4146 -3.74178 1.46083 22
294 2 -9.94963 -5.98546 11.1282 16
295 2 -11.0732 -5.28462 8.53421 17
296 2 -12.1963 -1.00955 6.4395 20
297 2 -10.4857 -3.57691 6.54961 21
298 2 -12.5204 -7.64569 8.72686 9
299 2 -8.314 -11.8389 1.8299 16
300 2 -5.97793 -14.4629 5.84716 10
301 2 -6.34143 -11.5418 4.45251 19
302 2 -8.53837 -8.6122 4.10204 26
303 2 -8.35582 -6.69498 1.34359 23
304 2 -6.85259 -9.18887 1.87751 23
305 2 -9.50494 -8.25671 9.16514 17
306 2 -10.1838 -9.58472 6.35259 18
307 2 -8.62501 -6.46727 6.50315 21
308 2 -8.2717 -12.4013 6.52503 13
309 2 -7.21631 -7.74226 11.8477 12
310 2 -6.8298 -5.92373 3.97012 24
311 2 -8.42068 -2.7882 4.04605 24
312 2 -8.79838 -0.842345 1.52165 23
313 2 -7.12469 -3.56155 1.36552 24
314 2 -6.71603 -5.87642 9.68419 19
315 2 -8.50355 -3.06039 9.14537 21
316 2 -8.49086 -0.909973 6.59408 21
317 2 -6.95387 -4.00993 6.66447 24
318 2 -11.5171 -3.48247 10.9286 15
319 2 -8.49492 -6.23281 14.123 8
320 2 -3.7056 -15.0529 3.10234 14
321 2 -4.95927 -12.587 1.97734 19
322 2 -4.89226 -14.7222 0.264077 14
323 2 -3.03959 -15.3564 6.49331 12
324 2 -3.43778 -11.5818 4.39527 20
325 2 -5.1835 -8.7096 4.39789 23
326 2 -5.26448 -6.75553 1.78717 23
327 2 -3.38791 -9.3037 1.68824 26
328 2 -4.75589 -12.7475 7.70864 17
329 2 -7.12184 -9.63114 6.95804 22
330 2 -5.26646 -6.97296 7.15418 21
331 2 -3.69371 -9.65192 6.94863 22
332 2 -5.17323 -6.25081 13.4201 9
333 2 -6.7946 -10.8362 9.5575 13
334 2 -3.74934 -5.75382 4.44904 25
335 2 -5.14749 -2.96247 4.07484 24
336 2 -5.14631 -0.803114 1.38733 24
337 2 -3.97012 -3.63991 1.58137 23
338 2 -3.56032 -5.52911 9.83365 21
339 2 -5.36971 -2.96327 9.46598 23
340 2 -5.58117 -1.00305 6.68453 24
341 2 -3.74623 -3.9252 6.9697 24
342 2 -5.09712 -8.47237 9.80424 18
343 2 -7.19725 -2.76988 12.1949 13
344 2 -1.78264 -5.77719 12.2751 16
345 2 -8.55753 -0.547499 13.4273 12
346 2 -1.07949 -14.6196 4.66352 17
347 2 -2.05064 -12.4849 1.54535 22
348 2 -0.175325 -15.1846 1.36133 15
349 2 -1.80914 -13.025 7.76809 15
350 2 -0.588123 -11.2939 4.03436 20
351 2 -1.97604 -8.34801 4.50313 24
352 2 -2.38212 -6.62257 1.43693 23
353 2 -0.22319 -9.17035 1.74623 22
354 2 0.702244 -15.2979 6.8436 13
355 2 -1.54497 -8.21982 9.96905 17
356 2 -1.96088 -7.05677 6.93243 22
357 2 -0.578555 -9.52359 7.42909 20
358 2 -3.64457 -10.9617 9.69106 12
359 2 0.487347 -11.1273 9.68393 13
360 2 -0.339566 -5.41729 4.16911 25
361 2 -1.96408 -2.82232 3.90499 25
362 2 -1.99385 -1.13777 1.22768 23
363 2 -0.392725 -4.25707 1.20397 23
364 2 -0.123575 -5.39342 9.18346 23
365 2 -2.01834 -2.84212 9.41368 25
366 2 -1.95403 -0.90907 6.91713 23
367 2 -0.540128 -3.96833 6.75493 26
368 2 2.49882 -13.4272 9.62652 11
369 2 -3.9559 -3.45068 12.7789 16
370 2 -2.07305 -1.04704 12.1626 21
371 2 -0.294493 -3.49319 12.2343 21
372 1 -13.0406 0.0592227 -8.67762 14
373 1 -13.0009 1.69565 -6.23412 18
374 1 -13.662 -0.296506 -3.45778 19
375 1 -15.1804 2.45145 -3.53104 10
376 1 -13.0153 8.38406 -5.62697 12
377 1 -13.3637 5.99721 -3.64912 16
378 1 -10.5737 2.57076 -10.6072 12
379 1 -10.2151 0.0495917 -8.42489 22
380 1 -12.4752 3.6683 -8.42087 12
381 1 -12.0277 5.10487 -6.14884 18
382 1 -10.03 2.13338 -5.93774 21
383 1 -10.0763 -0.0523939 -3.37262 22
384 1 -12.059 2.87656 -3.47383 23
385 1 -10.2327 5.62484 -8.81357 15
386 1 -9.77206 7.71448 -6.03597 22
387 1 -10.1719 5.72923 -3.44702 22
388 1 -11.3593 8.98487 -3.13998 18
389 1 -10.3106 12.0694 -2.7234 10
390 1 -6.58082 0.474372 -14.0099 15
391 1 -6.75191 6.44118 -13.4626 12
392 1 -8.29813 4.80454 -11.3898 18
393 1 -6.55343 2.08283 -11.2725 21
394 1 -6.95086 0.0486791 -8.53027 25
395 1 -8.57194 2.95047 -8.27643 25
396 1 -8.68327 4.89945 -5.95722 22
397 1 -6.79281 1.87905 -5.86471 24
398 1 -6.60331 0.0341428 -3.10412 24
399 1 -8.29618 2.80386 -3.44359 20
400 1 -8.01168 8.14088 -11.04 14
401 1 -9.04847 10.6843 -11.6381 9
402 1 -7.03738 6.07955 -8.49714 22
403 1 -8.18163 9.48836 -8.4379 19
404 1 -10.9755 9.9187 -8.45849 11
405 1 -6.838 7.79337 -5.63095 21
406 1 -6.90278 5.78744 -3.17845 24
407 1 -8.56321 8.79686 -2.8656 23
408 1 -9.50122 12.9479 -9.00377 10
409 1 -9.57054 11.0861 -5.54889 14
410 1 -6.91813 11.9889 -3.0091 16
411 1 -3.76059 0.0364822 -13.8528 18
412 1 -5.13037 3.15191 -13.7337 17
413 1 -4.84273 4.62584 -11.1171 23
414 1 -3.30001 1.71571 -11.1214 23
415 1 -3.69983 0.285622 -8.61286 24
416 1 -5.14088 3.14183 -8.45508 24
417 1 -5.5024 4.61561 -5.77361 22
418 1 -3.15864 2.26542 -5.86951 23
419 1 -3.5255 0.197255 -3.35352 23
420 1 -5.16625 2.8677 -3.23746 24
421 1 -3.70848 6.2558 -13.6863 14
422 1 -6.59711 12.4762 -9.59102 11
423 1 -3.84975 7.85501 -10.8899 19
424 1 -3.48865 5.86478 -8.41921 22
425 1 -5.28308 8.99397 -8.5071 20
426 1 -5.29456 10.7885 -5.87141 17
427 1 -3.64277 7.60959 -5.77686 22
428 1 -3.67462 5.80521 -3.04819 24
429 1 -5.22934 8.99452 -3.05385 21
430 1 -3.936 12.1748 -8.25616 15
431 1 -3.73082 14.0364 -6.02056 13
432 1 -3.44534 11.8556 -3.31314 19
433 1 -6.68829 13.7733 -6.67543 12
434 1 -0.814466 0.0678976 -13.8387 19
435 1 -2.43891 3.1392 -13.7189 18
436 1 -1.70821 5.06012 -11.2393 23
437 1 -0.474104 2.09413 -11.6163 20
438 1 -0.395167 0.48584 -8.77993 24
439 1 -1.93351 3.42201 -8.6972 24
440 1 -2.03669 5.22391 -5.94406 20
441 1 -0.216016 2.15061 -5.93307 24
442 1 -0.265868 0.357352 -3.30818 24
443 1 -1.79919 3.09574 -3.40729 24
444 1 -0.49083 6.09626 -14.0654 13
445 1 -5.64217 9.49686 -12.9041 10
446 1 -3.04482 10.3922 -10.7354 13
447 1 -0.53618 7.89824 -10.9593 20
448 1 -0.237959 5.79325 -8.50289 22
449 1 -1.92006 8.87833 -8.42425 22
450 1 -1.66266 10.1905 -5.64142 23
451 1 0.0309708 7.59607 -5.45373 23
452 1 -0.248759 5.84347 -3.05826 23
453 1 -1.98266 8.78271 -3.00376 23
454 1 -0.959704 12.1533 -8.0337 12
455 1 -1.07956 13.0243 -5.39638 14
456 1 -0.195933 11.9845 -2.87745 24
457 1 -2.23097 14.9454 -2.93517 15
458 2 -13.221 -0.114954 -6.75043 17
459 2 -13.1104 2.01874 -8.77692 10
460 2 -13.899 0.115374 -1.56754 19
461 2 -14.7783 3.3014 -1.79448 13
462 2 -13.3858 6.56624 -6.41298 10
463 2 -13.6219 1.95697 -4.41207 17
464 2 -10.1693 5.99799 -6.99323 20
465 2 -13.704 6.02969 -1.65464 17
466 2 -12.9251 7.84643 -3.7685 15
467 2 -8.76674 0.644104 -13.8894 10
468 2 -9.76892 0.233091 -6.46534 24
469 2 -11.6157 3.14292 -6.6521 21
470 2 -11.2251 4.23248 -9.50924 12
471 2 -9.39966 1.37789 -9.84865 19
472 2 -10.1895 -0.1514 -1.36056 22
473 2 -12.0301 2.71258 -1.44546 22
474 2 -11.9352 4.89417 -4.2352 21
475 2 -10.1265 1.79768 -3.93239 23
476 2 -8.18716 9.12929 -6.52441 19
477 2 -11.3697 8.82988 -6.60938 15
478 2 -7.5623 9.59842 -12.2672 11
479 2 -10.6274 5.89496 -1.36765 23
480 2 -12.1987 8.81367 -0.998038 15
481 2 -10.953 10.7115 -3.88938 14
482 2 -9.93059 7.80531 -3.61805 22
483 2 -10.1302 11.2131 -1.09723 15
484 2 -7.16236 0.24267 -11.6708 20
485 2 -9.35532 3.43731 -11.6821 15
486 2 -6.94541 2.72798 -13.1793 13
487 2 -6.64016 -0.0557587 -6.54731 22
488 2 -8.37756 2.89527 -6.43026 22
489 2 -8.5279 4.98295 -9.18866 18
490 2 -6.72883 2.14629 -9.20424 23
491 2 -6.88456 -0.245642 -1.13358 20
492 2 -8.44688 3.12868 -1.31268 21
493 2 -8.69991 4.45995 -3.78151 22
494 2 -6.65138 1.80509 -3.64834 22
495 2 -7.60661 6.59884 -11.9045 13
496 2 -7.0925 5.9726 -6.45595 22
497 2 -9.59772 9.6465 -9.89173 11
498 2 -8.82796 12.1452 -10.6732 10
499 2 -7.08553 7.9621 -9.09028 18
500 2 -6.90791 5.7509 -1.09636 21
501 2 -8.55865 8.37436 -0.913116 20
502 2 -10.1145 11.3291 -7.59939 12
503 2 -6.88783 7.85212 -3.50277 20
504 2 -7.61962 13.4922 -8.32061 9
505 2 -6.84752 11.553 -1.05956 20
506 2 -8.54091 11.7552 -4.03323 14
507 2 -3.91064 0.138032 -11.9947 23
508 2 -4.7857 2.76669 -11.6694 20
509 2 -5.32294 5.17938 -13.4455 15
510 2 -3.77948 2.06008 -14.2335 15
511 2 -3.52273 0.301424 -6.60653 22
512 2 -5.07784 2.76259 -6.46648 24
513 2 -5.38004 5.21138 -8.98681 22
514 2 -3.62325 2.02733 -9.08315 23
515 2 -3.71524 0.139038 -1.14713 23
516 2 -5.01137 2.77403 -1.35293 25
517 2 -5.47213 4.73664 -3.80421 23
518 2 -3.64881 1.98338 -4.15169 24
519 2 -3.53493 6.10284 -11.5881 21
520 2 -5.90006 7.97277 -14.0185 10
521 2 -3.83139 5.69772 -6.34183 22
522 2 -5.28385 8.85076 -6.44232 20
523 2 -5.27874 11.1454 -9.17961 16
524 2 -3.66298 7.91809 -8.82475 20
525 2 -3.70766 5.59924 -0.968683 23
526 2 -5.25053 8.62894 -0.933538 23
527 2 -5.01682 10.729 -4.09977 20
528 2 -3.60516 7.95986 -3.76037 23
529 2 -5.16807 12.7054 -6.88913 13
530 2 -3.77698 11.7187 -1.41391 22
531 2 -6.77522 13.974 -3.15555 12
532 2 -2.76191 13.5602 -4.22859 18
533 2 -0.62133 0.18156 -11.7091 20
534 2 -2.00832 3.27891 -11.8383 24
535 2 -2.06169 4.92937 -14.2692 13
536 2 -0.650712 1.99907 -13.9267 16
537 2 -0.212083 0.243825 -6.87966 25
538 2 -1.68538 3.33222 -6.80696 23
539 2 -2.01618 5.29095 -9.43853 24
540 2 -0.335372 2.34493 -9.26114 24
541 2 -0.926766 0.632316 -1.29211 20
542 2 -2.11725 3.13691 -1.59458 24
543 2 -2.02878 4.90738 -4.03248 23
544 2 0.156829 2.31133 -4.05208 23
545 2 -0.124974 6.37183 -12.1029 20
546 2 -4.7379 9.64724 -11.2765 14
547 2 0.0915819 5.59927 -6.49156 23
548 2 -1.86482 8.4044 -6.39472 21
549 2 -2.4503 10.9777 -8.77849 16
550 2 -0.215494 7.82652 -8.80252 22
551 2 -0.228033 5.72809 -1.02943 24
552 2 -1.76537 8.85966 -1.1215 22
553 2 -1.77779 10.7699 -3.75681 20
554 2 -0.298594 8.00333 -3.51598 19
555 2 -0.23479 11.4179 -6.39204 20
556 2 -2.28703 13.5111 -7.25575 11
557 2 -1.9243 9.01428 -11.218 14
558 2 -0.238183 11.6038 -0.934035 23
559 2 -5.36127 14.9766 -5.78267 10
560 2 0.0581632 13.6865 -4.10314 18
561 1 -15.1718 4.86445 -0.855705 14
562 1 -13.5637 2.0065 -0.717662 20
563 1 -13.7823 0.0906115 1.84011 19
564 1 -15.1353 2.97275 1.93088 15
565 1 -15.3562 4.58166 5.04292 10
566 1 -13.9697 1.92707 4.88945 19
567 1 -13.4754 0.241989 7.63455 17
568 1 -13.6326 7.71736 -0.651609 14
569 1 -13.8747 5.74032 2.07324 19
570 1 -13.6328 7.91218 4.31194 10
571 1 -12.2206 3.30431 7.6394 15
572 1 -12.1211 4.64827 -0.496212 23
573 1 -10.3026 1.86892 -0.908667 20
574 1 -10.5002 0.0625416 2.26147 24
575 1 -11.9106 2.78524 2.09605 23
576 1 -12.2027 4.86707 4.42945 20
577 1 -10.2726 2.22868 4.73738 22
578 1 -10.1345 -0.159676 7.1023 20
579 1 -12.0764 -1.55189 9.98103 16
580 1 -11.3437 4.63089 10.8228 11
581 1 -10.5579 1.55591 9.7044 19
582 1 -11.8883 -3.11991 12.5017 9
583 1 -11.7582 10.5552 -0.272607 15
584 1 -10.5045 7.75502 -0.565142 22
585 1 -10.4035 5.89199 2.37402 21
586 1 -12.2746 8.87718 1.98132 14
587 1 -8.33292 10.9165 4.70321 17
588 1 -8.17897 9.36104 7.19299 18
589 1 -10.5002 5.82077 7.21784 17
590 1 -10.3668 8.17437 4.89366 16
591 1 -10.3802 7.8563 8.93418 12
592 1 -9.99305 11.8136 2.44997 14
593 1 -8.77943 5.0289 -0.58538 21
594 1 -6.85781 1.73198 -0.954394 21
595 1 -7.05893 0.0936964 1.73546 21
596 1 -8.75381 2.80036 1.86864 22
597 1 -8.79578 5.16774 4.89237 22
598 1 -7.04824 2.12867 4.5964 21
599 1 -7.05382 0.240457 7.2437 22
600 1 -8.82626 3.09085 7.67839 21
601 1 -8.67974 4.88553 9.92361 17
602 1 -6.77198 1.8936 9.83243 21
603 1 -10.2319 -0.184567 12.5744 13
604 1 -8.80071 2.62772 12.2731 12
605 1 -8.51213 10.4099 -0.34404 22
606 1 -6.84722 7.60755 -0.280877 22
607 1 -7.16557 5.66921 2.14153 23
608 1 -8.52112 8.55235 2.37238 24
609 1 -6.60001 12.1454 7.7618 17
610 1 -6.6881 7.60058 4.77345 20
611 1 -7.11595 6.20201 7.41054 22
612 1 -8.70416 10.9379 10.0637 9
613 1 -7.27723 8.30187 9.71872 17
614 1 -5.2116 3.0058 12.3687 14
615 1 -6.47033 13.6085 -0.952471 14
616 1 -6.79758 11.7254 2.34881 23
617 1 -7.50625 13.563 4.95483 13
618 1 -5.4039 11.0265 10.2135 17
619 1 -5.41905 4.5856 -0.555104 22
620 1 -3.56176 2.1423 -0.354942 25
621 1 -3.5773 0.0258781 2.21818 25
622 1 -5.48586 2.99982 1.97136 23
623 1 -5.38886 4.75094 4.75929 24
624 1 -3.84687 1.84237 4.64997 22
625 1 -3.91338 -0.0287273 7.39183 23
626 1 -5.23643 2.9306 7.29587 21
627 1 -5.47308 5.45515 9.66949 17
628 1 -3.34935 1.59447 9.86899 19
629 1 -5.35339 -1.10043 9.98037 23
630 1 -6.88711 0.322145 13.1215 16
631 1 -5.17371 10.718 -0.511928 21
632 1 -3.38675 7.51317 -0.445742 23
633 1 -3.58907 5.61617 1.92812 20
634 1 -5.18309 8.85585 1.99563 22
635 1 -5.07033 10.499 4.73018 24
636 1 -3.69433 7.54936 4.56544 20
637 1 -3.8748 6.18075 7.3714 21
638 1 -5.0936 9.01673 7.5695 23
639 1 -3.92558 9.70906 13.0395 9
640 1 -3.6326 8.09355 10.1911 23
641 1 -2.0746 2.82118 12.0748 17
642 1 -3.79502 6.10534 11.736 14
643 1 -3.41885 13.3716 -0.857028 20
644 1 -3.69751 11.5418 2.01697 23
645 1 -5.43581 14.4968 1.86623 15
646 1 -4.42582 13.5534 4.68757 16
647 1 -3.50925 11.6262 7.3241 22
648 1 -2.05499 4.92948 -0.338916 23
649 1 -0.502542 2.31476 -0.648607 23
650 1 -0.55376 -0.0132297 1.94791 20
651 1 -2.10903 2.8892 2.17261 22
652 1 -2.24101 4.79489 4.72582 23
653 1 -0.440918 1.97895 4.5887 21
654 1 -0.140459 -0.150103 7.27324 21
655 1 -2.17237 2.79062 7.4212 22
656 1 -1.73178 4.96414 9.80354 22
657 1 -0.206735 1.78187 9.77867 21
658 1 -0.524586 -0.244216 12.6318 16
659 1 -0.426864 5.52918 12.5419 11
660 1 -2.06112 10.5299 -0.538778 23
661 1 -0.402256 7.66236 -0.26532 23
662 1 -0.0363602 5.6116 2.24722 23
663 1 -1.85312 8.59595 2.20309 22
664 1 -2.13733 10.9199 4.76501 22
665 1 -0.492316 7.71606 4.79769 22
666 1 -0.411944 6.07297 7.14144 21
667 1 -1.88551 9.02401 7.33237 23
668 1 -2.12336 11.2809 10.2453 18
669 1 -0.403918 7.44162 9.80774 19
670 1 2.83712 7.62636 10.3872 19
671 1 -0.610171 9.25446 12.3131 14
672 1 -5.87264 15.5098 -3.89868 11
673 1 -0.352645 13.52 -0.175389 19
674 1 -0.314076 11.5667 2.13543 20
675 1 -1.95673 14.405 2.78864 13
676 1 1.02482 14.3385 6.09286 11
677 1 -0.287477 11.4104 7.08729 23
678 1 -2.23366 14.3675 6.53288 14
679 1 -4.18646 13.9121 8.95905 11
680 2 -13.8522 0.133019 3.82459 20
681 2 -14.8796 3.24557 3.71595 14
682 2 -15.5171 4.75118 1.03645 13
683 2 -13.6076 2.04769 1.44594 20
684 2 -13.494 -1.66448 8.77167 11
685 2 -13.4997 2.09084 6.9138 15
686 2 -13.9772 5.85657 4.21069 14
687 2 -13.5064 7.47557 1.30293 17
688 2 -10.2151 0.148478 4.41255 21
689 2 -12.3401 2.74993 4.13561 23
690 2 -12.1844 4.75756 1.64813 22
691 2 -10.162 1.74556 1.314 22
692 2 -10.3908 -0.44549 9.1487 20
693 2 -11.8619 3.32927 9.54131 14
694 2 -12.1243 4.86342 6.41485 18
695 2 -10.3786 2.04281 6.94858 21
696 2 -9.64284 4.23001 11.5276 10
697 2 -10.3668 6.01743 4.28426 21
698 2 -11.8673 8.27716 3.59424 14
699 2 -11.5907 10.839 1.58583 13
700 2 -10.1144 7.68206 1.37654 22
701 2 -10.1683 7.88016 6.99762 16
702 2 -7.96802 11.1435 6.52121 15
703 2 -9.17875 12.5342 4.08938 11
704 2 -6.60805 0.193514 3.9094 22
705 2 -8.71345 3.10302 3.93484 24
706 2 -8.78681 5.04808 1.45158 24
707 2 -7.13217 1.96414 1.1394 23
708 2 -6.99391 -0.0899974 9.42551 22
709 2 -8.50122 2.89086 9.56481 21
710 2 -8.66156 4.93035 7.12381 21
711 2 -6.96076 2.20626 6.76391 24
712 2 -11.3576 -1.28017 11.8444 13
713 2 -10.2173 6.06426 9.43195 16
714 2 -5.25403 -0.457071 12.9406 15
715 2 -7.38301 5.88344 4.10046 21
716 2 -8.57854 8.85446 4.50296 20
717 2 -8.60474 10.6759 1.66006 18
718 2 -6.84755 8.04485 1.78662 20
719 2 -7.13892 6.25237 9.2489 20
720 2 -8.80093 9.25039 9.1704 14
721 2 -7.09415 11.4727 9.55436 13
722 2 -6.62603 7.91934 6.71593 23
723 2 -5.2997 4.87825 11.5683 15
724 2 -6.86266 13.2091 1.15827 17
725 2 -4.05294 16.0249 -3.2237 10
726 2 -5.25657 10.7008 12.0947 10
727 2 -6.58815 11.6148 4.23684 20
728 2 -3.56662 -0.152641 4.3297 22
729 2 -5.28914 2.99784 3.99599 22
730 2 -5.44223 4.79366 1.40536 24
731 2 -3.74822 1.89779 1.49643 26
732 2 -3.59561 -0.364279 9.45392 21
733 2 -5.00234 1.92588 9.17277 19
734 2 -5.31711 5.03069 7.25101 20
735 2 -3.75379 1.86755 6.76506 23
736 2 -10.0802 -3.66956 13.4026 11
737 2 -7.03875 2.31517 12.6436 11
738 2 -9.8854 1.2274 11.4108 16
739 2 -0.227044 -0.247036 9.3627 23
740 2 -3.87159 5.47149 3.89981 22
741 2 -5.28213 8.72043 3.9802 23
742 2 -5.30468 10.6594 1.40412 23
743 2 -3.23376 7.49502 1.54985 21
744 2 -3.57126 5.80973 9.69762 17
745 2 -3.79423 8.10606 12.2679 13
746 2 -5.18365 10.8312 6.69899 23
747 2 -3.63606 7.90057 6.46138 26
748 2 -3.70998 2.01955 11.8845 16
749 2 -5.38382 9.02495 9.67031 24
750 2 -3.85932 11.8203 3.81344 22
751 2 -6.05165 14.3041 4.12965 11
752 2 -3.6382 13.9783 1.94601 16
753 2 -3.68207 11.8173 9.13034 21
754 2 -3.98259 13.9853 7.03618 13
755 2 -0.703751 0.168501 3.71953 23
756 2 -2.18667 3.02014 4.16001 23
757 2 -1.78499 4.74556 1.49073 24
758 2 -0.419554 2.16992 1.49394 24
759 2 1.47728 -2.95655 9.85092 21
760 2 -1.96486 3.05127 9.40973 21
761 2 -2.14961 5.42234 6.50319 22
762 2 -0.310217 1.90368 7.04055 19
763 2 6.00564 1.79562 12.0861 18
764 2 -2.21045 4.97381 11.9996 17
765 2 0.394162 4.00236 11.8633 16
766 2 0.915812 0.918127 11.1238 18
767 2 -0.0893081 5.94063 4.01642 23
768 2 -2.17669 8.60451 4.2633 22
769 2 -2.05223 10.6411 1.43458 24
770 2 -0.212648 8.01991 1.69207 24
771 2 -0.193989 5.45104 9.03459 23
772 2 -2.12594 8.66392 9.2412 25
773 2 -1.83524 10.9214 6.6792 22
774 2 -0.24718 8.10089 6.68153 20
775 2 0.831707 10.5804 12.1526 11
776 2 -2.35289 10.0812 11.8059 15
777 2 -0.17587 7.08856 11.6786 17
778 2 -0.379941 11.0592 3.97254 23
779 2 -2.06928 14.3652 4.5385 13
780 2 -1.73207 14.1416 -1.31529 17
781 2 -0.588409 13.5782 1.84848 17
782 2 -2.32227 14.0289 9.19705 10
783 2 -0.4993 13.6739 7.20945 13
784 1 1.23586 -12.4565 -5.53462 24
785 1 2.90595 -15.7215 -5.55256 9
786 1 2.04073 -14.291 -3.00281 18
787 1 3.40622 -10.8742 -13.9146 5
788 1 2.64658 -9.66775 -11.1314 19
789 1 3.04612 -11.5297 -8.09474 17
790 1 1.14095 -14.3243 -8.45529 11
791 1 1.33874 -8.56435 -8.4239 24
792 1 1.25279 -6.65886 -5.58364 24
793 1 2.88014 -9.71126 -5.84788 22
794 1 2.93505 -11.1288 -2.83069 25
795 1 1.50608 -8.441 -3.13845 21
796 1 1.04229 -8.47426 -13.4893 12
797 1 4.01621 -2.36348 -13.8527 15
798 1 1.25086 -0.715174 -11.6809 21
799 1 2.99892 -3.82696 -11.4887 22
800 1 2.76487 -5.57515 -9.06101 22
801 1 1.14258 -2.85834 -8.74517 21
802 1 1.41092 -0.738641 -6.0644 23
803 1 3.13743 -3.54869 -6.13806 22
804 1 2.74475 -5.39602 -3.61084 20
805 1 1.41552 -2.43377 -3.33723 22
806 1 4.77654 -12.8108 -5.77459 17
807 1 5.23014 -14.2806 -3.34563 12
808 1 4.52943 -6.80282 -11.5439 15
809 1 3.1561 -12.5355 -10.8082 9
810 1 6.13001 -12.1556 -8.9425 10
811 1 4.4912 -8.18535 -8.93268 17
812 1 4.38219 -6.87894 -6.08969 21
813 1 6.02817 -9.63368 -5.85407 23
814 1 6.19007 -11.3964 -3.12292 21
815 1 4.62392 -8.37885 -3.07046 24
816 1 2.83956 -5.64412 -13.9997 13
817 1 6.10257 -3.88272 -11.2022 21
818 1 4.73835 -0.912778 -11.3807 19
819 1 7.97118 -6.4823 -11.0718 13
820 1 6.35505 -5.63187 -8.64635 20
821 1 4.53138 -2.62405 -8.45533 22
822 1 4.73819 -0.499448 -5.8021 24
823 1 6.24059 -3.77761 -6.07532 23
824 1 6.27603 -5.6547 -3.38284 22
825 1 4.68981 -2.97273 -3.22492 22
826 1 7.94837 -12.5325 -6.14208 12
827 1 8.56941 -8.40413 -8.48776 17
828 1 9.67774 -11.2556 -8.95072 9
829 1 7.68266 -6.6977 -5.83758 22
830 1 9.31793 -9.51221 -5.80023 20
831 1 9.19937 -11.4949 -3.24798 15
832 1 7.72083 -8.58179 -3.30379 22
833 1 9.8681 -4.1472 -10.7974 15
834 1 8.3239 -1.20173 -11.7632 15
835 1 11.115 -7.25974 -11.7524 8
836 1 9.47545 -5.50472 -8.29175 23
837 1 7.64082 -2.59526 -8.59517 19
838 1 7.81194 -0.710362 -5.96487 24
839 1 9.66826 -3.52152 -5.93945 20
840 1 9.36498 -5.43607 -3.22371 21
841 1 7.7072 -2.57236 -3.13901 23
842 1 11.4514 -8.65365 -8.82191 12
843 1 10.9222 -6.81941 -6.00865 19
844 1 10.6986 -8.43319 -3.09294 20
845 1 11.1589 -1.02364 -11.2426 11
846 1 12.4952 -5.56476 -8.8263 15
847 1 11.8967 -2.74212 -8.25502 17
848 1 11.6669 -0.727981 -5.98634 21
849 1 13.1961 -4.10341 -6.09575 14
850 1 12.7418 -6.04644 -3.23865 14
851 1 10.8043 -2.36797 -2.96268 23
852 1 14.2524 -1.33237 -6.22483 13
853 1 14.4911 -3.07818 -3.46469 11
854 2 1.60965 -15.2459 -6.83899 9
855 2 1.53937 -12.4435 -8.71577 15
856 2 1.46145 -14.3617 -1.01473 17