ITEM: TIMESTEP
98000
ITEM: NUMBER OF ATOMS
500
ITEM: BOX BOUNDS pp pp pp
-30.0 30.0
-30.0 30.0
-30.0 30.0
ITEM: ATOMS id type x y z Coordination
1 1 -8.22836 -1.8589 -4.95476 17
2 1 -7.31552 -3.69024 -6.62656 13
3 1 -7.15988 -5.85005 -4.1712 14
4 1 -8.72054 -3.80961 -2.81006 15
5 1 -5.57512 -6.2257 -6.36706 13
6 1 -5.4614 -8.22539 -3.44482 12
7 1 -2.79824 -4.59375 -7.47862 15
8 1 -5.28668 -2.9735 -8.82272 12
9 1 -5.52243 -0.031261 -5.72518 20
10 1 -4.53031 -2.66584 -5.54977 22
11 1 -3.70276 -5.83456 -3.45316 22
12 1 -5.81287 -3.25214 -3.14033 22
13 1 -1.94359 -6.89828 -6.08022 18
14 1 0.0750372 -9.9437 -5.75337 8
15 1 -2.1703 -8.9127 -3.95951 13
16 1 -0.509823 -5.46525 -9.01169 15
17 1 -1.90116 -2.57795 -10.1576 11
18 1 -1.85952 -1.26307 -6.15194 22
19 1 -0.226024 -4.04483 -5.95513 22
20 1 -0.345293 -6.13631 -3.37238 20
21 1 -2.17928 -3.02733 -3.27769 23
22 2 -7.42726 -5.794 -6.11634 9
23 2 -8.00796 -1.92904 -6.80254 14
24 2 -8.61577 -5.65816 -2.57266 13
25 2 -8.96735 -2.99157 -1.17642 16
26 2 -8.58565 -0.158095 -4.32407 18
27 2 -7.40364 -3.62225 -4.3861 19
28 2 -6.55597 -7.78741 -2.0531 12
29 2 -5.41909 -6.44656 -4.19115 18
30 2 -3.81746 -9.17319 -2.92789 14
31 2 -3.62673 -6.1741 -6.6749 15
32 2 -5.46597 -3.86698 -6.95746 20
33 2 -5.6085 -1.05849 -8.60337 14
34 2 -3.43268 -3.51925 -9.00775 13
35 2 -3.79979 -5.87798 -1.32262 23
36 2 -5.45596 -2.94656 -1.17393 23
37 2 -5.78864 -1.41041 -4.01993 22
38 2 -4.00382 -3.86136 -3.89931 22
39 2 -1.655 -8.93137 -6.02976 11
40 2 1.39647 -9.02939 -0.748051 17
41 2 -1.52904 -9.1237 -0.878852 15
42 2 -1.96581 -6.93523 -3.98619 21
43 2 -0.253218 -9.62875 -3.8815 13
44 2 -0.540572 -5.69937 -7.01082 19
45 2 -1.90044 -3.09944 -6.48119 21
46 2 -2.07289 -0.836842 -9.31682 17
47 2 -0.410294 -3.71625 -9.88809 15
48 2 -0.334072 -6.03159 -1.32617 21
49 2 -2.08473 -3.00713 -1.29756 21
50 2 -1.8559 -1.15745 -4.13522 23
51 2 -0.400031 -4.20613 -3.85385 20
52 1 -10.8523 -2.5326 -1.50569 10
53 1 -8.05957 -6.90802 -1.33508 11
54 1 -8.36602 -1.26229 -0.490611 22
55 1 -7.21599 -3.89534 -0.340588 19
56 1 -6.76073 -5.83267 1.9786 18
57 1 -8.43631 -2.67712 2.28264 18
58 1 -8.92049 -0.657957 4.45497 15
59 1 -6.62629 -3.77404 4.17779 20
60 1 -7.0843 -6.02821 5.9538 10
61 1 -8.54226 -3.01596 6.27033 11
62 1 -5.35198 -6.77897 -0.641466 20
63 1 -3.31042 -10.0067 -1.1959 10
64 1 -5.30902 -8.78088 1.5978 12
65 1 -5.10912 -7.03518 4.25922 16
66 1 -3.31723 -9.62947 4.18081 10
67 1 -5.36628 -0.957114 -1.01023 23
68 1 -3.74276 -3.93928 -0.825284 22
69 1 -3.49909 -5.95018 1.97713 22
70 1 -5.069 -2.64155 1.61732 22
71 1 -5.3281 -1.0263 4.65208 24
72 1 -3.66075 -3.85155 4.31743 22
73 1 -3.64434 -5.77161 6.82829 17
74 1 -5.14483 -2.76801 6.86243 20
75 1 -5.41207 -0.914433 8.91929 9
76 1 -3.55569 -3.82153 9.66641 13
77 1 -1.97705 -7.0478 -0.831527 22
78 1 0.126916 -9.52384 -1.93119 16
79 1 -1.99826 -8.8274 1.29248 17
80 1 -1.72136 -7.02069 4.85275 23
81 1 0.0982203 -9.87143 3.91031 10
82 1 -2.09671 -6.82479 8.81568 9
83 1 -2.03615 -0.911863 -0.907895 22
84 1 -0.417063 -4.06191 -0.734289 23
85 1 -0.212323 -5.89351 1.89591 23
86 1 -2.0426 -2.86806 1.68418 21
87 1 -2.12963 -1.08658 4.28536 21
88 1 -0.367508 -3.71667 4.51391 22
89 1 -0.267816 -5.7222 7.15208 21
90 1 -1.9805 -2.67773 7.04651 23
91 1 -2.06804 -1.03471 9.83156 16
92 1 -0.238332 -3.98457 9.53859 16
93 2 -10.8284 -0.969876 -0.369937 13
94 2 -7.22745 -5.72877 -0.0986984 14
95 2 -6.85938 -5.72293 3.92159 16
96 2 -8.18487 -2.72633 4.20795 17
97 2 -8.43331 -0.921853 1.33572 21
98 2 -6.85011 -3.69444 1.85819 17
99 2 -8.50235 -1.00004 6.35248 12
100 2 -6.72573 -3.9239 6.16903 16
101 2 -4.65706 -8.75315 3.38933 13
102 2 -5.14491 -6.81731 1.27989 20
103 2 -3.73121 -9.21649 0.637784 14
104 2 -5.29943 -6.74187 6.23771 13
105 2 -3.48062 -5.86816 4.02438 22
106 2 -5.09707 -2.65689 3.62442 23
107 2 -5.32159 -0.629429 1.01488 23
108 2 -3.66483 -4.09942 1.26894 23
109 2 -3.19953 -5.34903 8.69223 14
110 2 -4.83398 -2.74787 8.89128 13
111 2 -5.34268 -0.92281 6.67922 19
112 2 -3.48267 -3.85347 6.30801 23
113 2 -1.57552 -8.8434 4.33514 13
114 2 -1.80657 -6.78725 1.29902 20
115 2 -0.260632 -9.3875 2.09421 15
116 2 -1.82839 -6.80556 6.8143 14
117 2 -0.225686 -5.89319 4.41392 19
118 2 -2.03166 -2.91301 3.85722 24
119 2 -2.25453 -0.879963 1.1449 22
120 2 -0.314797 -3.95211 1.21946 22
121 2 -0.246029 -5.88532 9.51247 12
122 2 -1.79149 -2.7964 9.35877 17
123 2 -1.784 -0.876584 6.58384 22
124 2 -0.274332 -3.76371 6.61568 23
125 1 -10.4208 -0.239151 -3.79186 12
126 1 -7.48146 -0.782072 -8.04407 13
127 1 -9.04901 4.9045 -4.86518 8
128 1 -8.02517 1.56329 -5.34634 15
129 1 -6.89543 -0.104432 -3.27982 23
130 1 -9.912 2.91836 -2.61023 12
131 1 -6.40604 6.21053 -3.57059 15
132 1 -3.95549 -0.287124 -9.16766 15
133 1 -5.74524 2.27923 -7.66008 15
134 1 -5.81578 5.47497 -6.05493 12
135 1 -3.21497 1.37315 -6.38265 24
136 1 -3.61472 -0.315803 -3.65769 22
137 1 -5.20066 2.92162 -3.81715 24
138 1 -4.01392 4.99492 -8.21989 12
139 1 -3.52134 7.74362 -6.4594 11
140 1 -3.33735 5.929 -3.72805 21
141 1 -4.67962 8.95865 -3.35375 13
142 1 -0.456506 0.129855 -8.88072 19
143 1 -2.26614 2.58605 -8.92314 18
144 1 -1.46157 4.23599 -6.0892 22
145 1 0.00247504 1.61968 -6.10166 25
146 1 -0.23514 -0.181724 -3.45513 23
147 1 -2.18342 2.83249 -3.40255 23
148 1 -1.11614 6.14399 -8.24195 15
149 1 -0.158913 7.4819 -6.17313 19
150 1 -0.254451 5.69372 -3.38252 25
151 1 -1.83579 8.57193 -3.21981 17
152 2 -10.2996 -1.87406 -3.10652 13
153 2 -10.7246 1.12652 -2.36948 12
154 2 -6.91138 0.940729 -7.10414 16
155 2 -9.23092 2.81243 -4.66288 12
156 2 -7.27514 -0.179837 -1.44077 23
157 2 -8.48959 2.88253 -1.20013 15
158 2 -9.42617 5.15186 -2.91412 8
159 2 -6.1663 1.38245 -4.5519 19
160 2 -7.45761 5.85552 -5.118 11
161 2 -6.6049 5.64151 -1.3348 19
162 2 -6.07064 7.88567 -2.75694 13
163 2 -3.75504 -0.682054 -5.95031 22
164 2 -5.4447 4.00956 -7.28609 13
165 2 -4.13385 1.33064 -8.31317 16
166 2 -3.68645 -0.0584432 -1.64459 24
167 2 -5.3721 2.78649 -1.65299 21
168 2 -5.04994 4.85522 -4.07469 17
169 2 -3.46763 1.59714 -4.25434 22
170 2 -4.60269 6.56602 -7.26036 11
171 2 -3.37001 5.69826 -1.61991 26
172 2 -5.04451 8.51602 -0.143571 18
173 2 -3.3883 7.61842 -4.47647 18
174 2 -0.347838 -0.122487 -6.79785 21
175 2 -1.62555 2.48537 -6.89284 20
176 2 -2.15805 4.56161 -8.18053 15
177 2 -0.500982 2.04155 -9.2264 17
178 2 -0.228262 -0.131675 -1.45605 22
179 2 -2.24946 2.96072 -1.31666 23
180 2 -1.9349 4.71511 -3.97544 21
181 2 -0.429096 1.94701 -4.02881 23
182 2 0.0579731 5.39371 -6.4832 19
183 2 -1.74547 7.57688 -7.1663 12
184 2 0.0473339 5.71881 -1.34717 24
185 2 -1.74345 8.39076 -1.17596 20
186 2 -3.18647 9.95672 -2.73623 9
187 2 -0.148786 7.61957 -4.14175 19
188 1 -11.0655 1.02346 -0.48159 13
189 1 -10.3966 -0.771266 1.65478 14
190 1 -10.4565 2.01832 3.16084 10
191 1 -8.5115 4.94746 -1.17475 14
192 1 -6.85857 1.70234 -0.839364 22
193 1 -6.8746 0.114886 2.01251 25
194 1 -8.79338 2.74599 0.76351 18
195 1 -8.64888 5.16187 3.02311 11
196 1 -7.38776 2.31121 4.14343 19
197 1 -7.0726 0.210443 6.54528 13
198 1 -6.80991 8.01072 -0.848844 10
199 1 -6.58319 5.72925 0.991017 18
200 1 -6.73655 7.73386 3.16946 9
201 1 -5.17359 5.0603 8.59652 7
202 1 -4.75548 4.46463 -1.17144 22
203 1 -3.7681 1.85403 -0.871216 24
204 1 -3.68535 0.0770848 1.89925 25
205 1 -5.39735 2.81332 1.69674 22
206 1 -5.3624 5.03329 4.52432 19
207 1 -3.70061 2.05362 4.30079 21
208 1 -3.39277 0.159775 6.86315 23
209 1 -5.23001 3.0284 6.64373 17
210 1 -3.43725 1.97865 9.66967 14
211 1 -3.36994 7.39012 -0.551239 24
212 1 -3.46074 5.63466 1.77512 22
213 1 -4.34851 9.27225 1.5397 14
214 1 -3.42549 7.57252 3.92184 17
215 1 -3.37931 6.17463 6.71597 16
216 1 -1.70817 4.73108 -0.897872 24
217 1 -0.173719 1.97377 -0.827945 22
218 1 -0.532902 -0.158207 1.7018 23
219 1 -2.01733 2.81873 1.85101 24
220 1 -1.78468 4.61793 4.37351 23
221 1 -0.123131 1.73588 4.41976 24
222 1 -0.293003 0.214526 7.22587 23
223 1 -1.90251 3.1268 6.98694 22
224 1 -1.7687 4.83089 9.30127 13
225 1 -0.212956 1.87643 9.56157 16
226 1 -2.33724 10.3164 -1.16651 11
227 1 -0.0086819 7.44249 -0.476379 23
228 1 -0.20677 5.63277 1.51146 20
229 1 -1.48555 9.04331 1.68534 16
230 1 0.164022 7.43193 3.93789 21
231 1 -0.0119711 5.98396 7.00456 20
232 1 -1.56279 8.90719 5.6436 10
233 2 -10.2878 0.0714454 3.3436 13
234 2 -10.4104 1.62503 1.23877 14
235 2 -7.01463 -0.174162 4.0509 21
236 2 -8.91262 3.29073 3.40086 12
237 2 -8.37251 4.60342 1.05322 16
238 2 -6.72586 1.78233 1.1096 22
239 2 -6.6627 1.82383 6.1452 16
240 2 -7.05451 5.90647 3.77515 14
241 2 -7.21088 7.52808 1.26898 12
242 2 -3.76716 -0.0156575 3.99052 23
243 2 -5.62227 3.00898 3.78029 21
244 2 -4.95827 4.78069 0.962428 23
245 2 -3.72658 1.94469 1.07722 25
246 2 -3.68452 0.0816587 9.13101 17
247 2 -4.74372 3.10126 8.71213 13
248 2 -5.06094 4.93363 6.60565 16
249 2 -3.40168 1.92881 6.2839 22
250 2 -3.54432 5.433 3.95626 21
251 2 -4.98741 8.53977 3.25722 15
252 2 -2.86335 7.5243 1.64761 21
253 2 -3.24113 5.62905 8.5535 13
254 2 -3.14881 7.82989 5.69266 14
255 2 -0.256103 -0.12508 3.60929 25
256 2 -1.85164 2.61075 3.92434 21
257 2 -1.86607 4.70645 1.12659 23
258 2 -0.571046 1.65961 1.15018 23
259 2 -0.393567 -0.139325 9.33344 20
260 2 -1.8098 2.75045 9.05268 19
261 2 -1.6913 4.99615 6.35836 21
262 2 -0.410896 1.9635 6.41062 23
263 2 -0.287783 5.47958 3.53728 24
264 2 -1.34075 8.71745 3.74936 17
265 2 -2.73984 10.2102 0.753515 11
266 2 0.211116 7.86752 1.52714 19
267 2 0.115074 5.49616 9.01983 14
268 2 -0.14382 7.97054 6.43766 13
269 1 1.06017 -6.86192 -7.0294 16
270 1 1.93358 -8.39909 -4.40383 15
271 1 0.960776 1.53337 -10.4768 8
272 1 2.84867 -5.69492 -9.00521 12
273 1 1.09663 -2.51272 -9.36169 17
274 1 1.21649 -1.19023 -6.37858 22
275 1 2.83917 -4.23369 -6.0611 20
276 1 3.30636 -5.8869 -3.45717 21
277 1 1.17574 -3.1425 -3.30363 25
278 1 4.59467 -6.98284 -6.17144 13
279 1 5.26735 -8.40971 -2.98838 14
280 1 4.17305 -3.05526 -8.52735 14
281 1 4.788 -1.12892 -6.12992 23
282 1 6.15074 -3.82826 -6.32617 15
283 1 6.66198 -5.89825 -3.86291 14
284 1 4.69212 -2.99587 -3.58199 23
285 1 7.88506 -0.976079 -6.15536 12
286 1 7.93177 -2.86334 -3.854 18
287 2 1.34198 -8.5546 -6.19232 12
288 2 1.59092 -7.01649 -3.04675 17
289 2 3.08611 -6.219 -6.78081 17
290 2 4.59581 -8.70794 -1.22063 16
291 2 1.02879 -6.33033 -8.97653 11
292 2 1.39851 -3.10961 -6.8097 24
293 2 1.19191 -0.421059 -9.73421 15
294 2 2.41837 -3.80746 -8.90352 17
295 2 3.4014 -5.88093 -1.49115 22
296 2 1.42223 -2.89797 -1.37633 22
297 2 1.37345 -1.04498 -4.42458 25
298 2 2.7722 -4.07564 -4.11782 22
299 2 6.99277 -7.73958 0.359177 12
300 2 3.97529 -7.73133 -4.42762 13
301 2 5.88856 -5.67479 -5.6978 15
302 2 4.3709 -2.9285 -6.54245 16
303 2 4.45278 -1.16806 -9.1311 12
304 2 7.69999 -5.28693 -0.766576 18
305 2 4.62592 -2.9166 -1.53367 22
306 2 4.84261 -1.17787 -4.11025 22
307 2 6.50067 -4.04055 -3.3044 16
308 2 6.83684 -7.25103 -2.68969 13
309 2 7.6406 -2.75453 -5.84001 14
310 2 10.6266 -3.3589 0.0590227 14
311 2 8.4033 -2.57361 -2.01883 18
312 2 8.13196 -0.673013 -4.20169 17
313 2 10.0006 -0.536203 -1.36572 16
314 1 1.68413 -6.66156 -0.981531 20
315 1 3.33557 -9.68827 -0.405432 12
316 1 1.44328 -8.55791 1.1479 18
317 1 1.57848 -6.72076 4.85035 21
318 1 3.16952 -9.49013 3.49305 12
319 1 1.50678 -6.50431 9.06589 9
320 1 1.40384 -0.975178 -0.729348 24
321 1 3.09368 -3.92763 -0.833159 24
322 1 3.22776 -5.83797 1.94047 24
323 1 1.47695 -3.06546 1.96905 24
324 1 1.25618 -1.06714 4.62149 25
325 1 3.06472 -3.98531 4.45767 21
326 1 3.54884 -5.62264 7.25705 16
327 1 1.47849 -2.92038 7.27962 24
328 1 1.39931 -0.864103 9.43051 17
329 1 3.13334 -3.66379 9.89354 12
330 1 4.81075 -7.02792 -0.362881 22
331 1 7.91707 -7.24017 -1.16103 12
332 1 5.96159 -8.1756 1.89341 12
333 1 4.96799 -6.86465 4.40361 15
334 1 4.82511 -1.00868 -0.907827 23
335 1 6.41609 -3.75599 -1.22589 22
336 1 7.06058 -5.73915 1.22407 17
337 1 4.80953 -3.00141 1.73403 22
338 1 4.51752 -1.0758 4.4728 25
339 1 6.29902 -3.13033 5.02616 19
340 1 6.77992 -5.22926 6.87199 10
341 1 4.4981 -2.5598 7.32185 22
342 1 5.22444 -0.892364 10.132 11
343 1 9.34477 -4.23937 -1.25052 15
344 1 9.16324 -4.36704 3.97486 12
345 1 8.01913 -1.01294 -1.00697 23
346 1 11.2037 -1.4588 -0.259448 14
347 1 10.6494 -4.37268 1.67157 11
348 1 7.77476 -2.94275 1.72923 23
349 1 7.99613 -0.913344 4.49522 22
350 1 11.4329 -1.72521 3.34689 13
351 1 7.82795 -2.07541 7.77625 12
352 1 12.0056 1.07393 1.62833 12
353 2 1.6295 -8.6298 4.29013 15
354 2 1.47617 -6.60839 1.15527 22
355 2 3.08993 -9.48499 1.50532 14
356 2 1.53589 -6.51779 6.93779 16
357 2 3.22266 -5.94533 3.88358 20
358 2 1.41038 -3.07211 4.17169 21
359 2 1.31497 -1.18981 1.31121 22
360 2 3.06652 -4.04932 1.09335 23
361 2 3.04459 -5.36301 9.1074 13
362 2 1.34544 -2.86721 9.26265 19
363 2 1.33661 -1.05473 6.70055 23
364 2 3.11242 -3.73624 6.49803 24
365 2 5.23416 -8.68855 3.45901 10
366 2 5.1313 -6.34574 1.58586 18
367 2 5.25489 -6.4002 6.28606 13
368 2 7.7918 -4.8467 5.19252 12
369 2 4.4259 -2.95582 3.79046 23
370 2 4.78311 -1.06937 1.04083 25
371 2 6.33476 -3.8611 0.869531 22
372 2 4.18248 -2.36899 9.18628 16
373 2 4.62243 -0.780796 6.48103 26
374 2 6.39969 -3.33382 6.93374 17
375 2 8.69321 -4.81259 1.91076 15
376 2 7.56304 -2.68923 3.60088 20
377 2 7.89661 -1.1182 1.02082 23
378 2 10.745 -3.38182 3.38962 12
379 2 7.63383 -0.915253 6.34092 16
380 2 11.5309 -0.847962 1.5271 14
381 1 2.95738 0.123626 -8.79326 21
382 1 1.08729 3.5284 -8.50982 20
383 1 1.62551 4.66518 -5.90762 24
384 1 3.19532 1.80557 -6.18569 23
385 1 2.73962 -0.0720822 -3.60995 23
386 1 1.42855 2.71958 -3.42065 25
387 1 2.02093 6.54652 -8.35734 10
388 1 3.12944 7.84579 -6.17561 16
389 1 2.95084 5.65557 -3.59575 24
390 1 1.59541 8.26449 -3.37861 18
391 1 5.96449 0.131949 -8.99061 11
392 1 3.88055 2.98363 -9.10384 13
393 1 4.65126 4.82113 -6.50076 18
394 1 6.27426 1.96703 -6.52533 20
395 1 6.24152 0.151886 -3.61167 23
396 1 4.84061 2.89447 -3.68137 21
397 1 6.18212 5.83836 -4.16077 17
398 1 4.41141 9.09947 -3.71681 12
399 1 7.86819 5.12328 -6.98447 8
400 1 9.65483 0.129861 -3.10617 13
401 1 7.93628 2.75716 -4.39695 17
402 2 3.12402 -0.2477 -6.87997 24
403 2 1.58571 2.83003 -6.55781 22
404 2 0.580094 5.38503 -8.77389 15
405 2 2.23578 2.11287 -9.19182 15
406 2 3.016 -0.291298 -1.58507 25
407 2 1.56564 2.67716 -1.35875 23
408 2 1.32418 4.57857 -3.94462 23
409 2 3.05907 1.81543 -4.16011 24
410 2 3.01848 5.99895 -6.84186 17
411 2 1.41987 7.89986 -7.14109 12
412 2 3.19579 5.75518 -1.60554 25
413 2 1.57977 8.48936 -1.22472 21
414 2 2.96061 9.84706 -2.77344 10
415 2 2.84904 7.63085 -4.49533 19
416 2 6.30575 -0.0210037 -7.09368 19
417 2 4.71648 2.77916 -7.09279 21
418 2 5.20664 1.73402 -9.55707 10
419 2 6.43808 0.0689236 -1.60954 24
420 2 4.64472 2.87828 -1.72587 25
421 2 4.45654 4.66757 -4.52274 23
422 2 6.32246 1.7877 -4.55583 21
423 2 6.2811 5.82001 -6.22565 12
424 2 6.48352 5.8336 -0.909775 15
425 2 4.97019 8.69965 -0.786178 14
426 2 5.48866 7.64922 -3.4633 16
427 2 7.85205 3.36476 -6.38195 11
428 2 11.2137 2.0902 0.109981 13
429 2 8.86698 1.41043 2.08873 20
430 2 7.55423 4.63616 -3.3404 17
431 2 9.01232 2.00085 -3.0247 15
432 2 7.92923 2.9071 -0.614591 18
433 1 1.87633 4.73194 -0.950153 22
434 1 3.30464 1.68336 -1.03422 22
435 1 2.94805 -0.141831 1.73967 25
436 1 1.46668 2.67161 1.56682 25
437 1 1.43654 4.68802 4.35216 24
438 1 3.05861 1.84005 4.14505 22
439 1 2.91138 0.112675 7.11825 24
440 1 1.61679 2.88787 7.1686 22
441 1 1.64631 4.53673 9.45381 13
442 1 2.92318 1.63281 10.2392 12
443 1 2.01299 10.4135 -1.13372 10
444 1 3.30338 7.68931 -0.791424 24
445 1 3.01852 5.52549 1.7589 24
446 1 2.0057 8.68488 1.96927 17
447 1 3.82054 7.3838 4.49412 18
448 1 3.19761 5.60901 6.86559 17
449 1 1.68468 8.66987 5.93286 11
450 1 4.76527 4.69839 -0.911833 25
451 1 6.24464 1.91999 -1.01356 24
452 1 6.43926 -0.0608705 2.03305 24
453 1 4.54903 2.92275 1.61239 22
454 1 4.89796 4.69235 4.07258 22
455 1 6.27397 1.96728 4.34211 24
456 1 6.18981 0.205704 7.10263 19
457 1 4.4393 2.99744 7.09885 19
458 1 6.28746 7.6323 -1.59094 13
459 1 6.39236 5.95449 1.11245 18
460 1 4.69378 9.33363 1.02573 11
461 1 7.01004 7.48055 3.66309 11
462 1 6.57954 6.2346 6.37458 12
463 1 7.85061 4.58106 -1.59358 13
464 1 9.64078 1.88642 -1.11542 16
465 1 9.4908 -0.317106 1.78906 20
466 1 7.79 2.73311 1.32817 22
467 1 8.24161 4.4434 3.87004 17
468 1 9.77085 1.40131 4.04914 17
469 1 8.07135 3.15077 6.73694 10
470 1 10.6547 3.52713 1.49251 10
471 2 2.82364 0.0225005 3.76367 21
472 2 1.458 2.82741 3.54864 24
473 2 1.45085 4.71724 0.967752 23
474 2 3.13065 1.61529 1.0112 25
475 2 1.77292 1.04928 8.5732 18
476 2 1.45331 2.84783 10.2773 12
477 2 1.50735 4.80156 6.26744 24
478 2 3.00728 1.80906 6.22215 23
479 2 3.18446 5.5002 3.71454 22
480 2 2.00635 8.31904 3.82975 14
481 2 2.85186 10.1417 0.630046 10
482 2 3.37733 7.44241 1.1923 19
483 2 3.03846 4.02508 8.12063 14
484 2 2.90992 7.27458 6.3634 15
485 2 6.08043 0.186377 3.9189 23
486 2 4.72838 2.80304 3.60242 25
487 2 4.62399 4.72364 1.04224 22
488 2 5.85977 1.70241 1.07015 19
489 2 6.69965 -1.05498 8.94542 10
490 2 3.52209 -0.185198 10.2361 12
491 2 5.08874 4.94001 6.06651 19
492 2 6.24132 2.09057 7.0367 15
493 2 6.674 5.55131 3.09949 19
494 2 5.81194 7.43418 5.20069 11
495 2 6.09087 7.98919 2.07806 12
496 2 9.73089 -0.661507 3.83712 17
497 2 8.03841 2.52641 4.7569 18
498 2 9.04026 4.0753 2.21185 12
499 2 11.1362 2.17405 3.00033 13
500 2 7.99291 4.96135 5.84259 12
