ITEM: TIMESTEP
34000
ITEM: NUMBER OF ATOMS
2000
ITEM: BOX BOUNDS pp pp pp
-30.0 30.0
-30.0 30.0
-30.0 30.0
ITEM: ATOMS id type x y z Coordination
1 1 -2.13863 1.93957 -22.8961 5
2 1 -3.63584 -12.7755 -11.8035 19
3 1 1.50079 11.7105 10.7816 10
4 1 7.18939 -13.6215 3.90978 14
5 1 -9.67457 5.7435 -5.61875 19
6 1 13.6366 -11.5855 -8.77463 10
7 1 -9.80155 4.59003 -8.78122 21
8 1 -4.78122 -10.8999 11.552 7
9 1 -6.16402 -4.49407 -11.9547 17
10 1 -16.8485 -13.1694 -3.96901 7
11 1 11.2687 1.21233 -4.54387 19
12 1 -6.24081 -13.9416 -2.80948 15
13 1 -14.1606 -12.0983 -2.44681 16
14 1 -0.0966526 -2.97655 14.7678 12
15 1 2.3983 2.48875 6.75048 22
16 1 -5.0301 12.1496 -15.8603 16
17 1 2.52469 -3.29286 9.87503 19
18 1 -8.5541 0.755972 -17.8304 10
19 1 -15.8949 -7.00958 4.25283 12
20 1 11.5188 1.78546 5.28496 16
21 1 -3.16616 12.7659 -12.9606 20
22 1 -3.21528 8.90176 -19.0162 12
23 1 13.3603 -3.96566 7.00067 10
24 1 -11.4663 2.70458 -11.6487 21
25 1 -13.6458 5.12655 8.79787 12
26 1 0.270223 -18.7017 3.04006 11
27 1 0.86942 -16.7512 -10.3539 14
28 1 8.09163 -15.0463 0.651635 14
29 1 -10.7094 -16.3141 -4.15828 9
30 1 -13.5706 -11.8673 2.36755 17
31 1 0.952716 -10.2991 -9.77054 20
32 1 8.57364 -12.6912 -9.9745 17
33 1 -2.74899 7.71849 -16.2493 18
34 1 -0.302668 2.56754 11.3529 19
35 1 -1.53764 -13.5628 6.41021 16
36 1 7.02188 -6.99767 11.1062 14
37 1 -12.7477 -3.02685 -1.89014 21
38 1 -17.0945 -5.16573 6.40201 12
39 1 -9.565 -2.41586 -3.67929 19
40 1 -4.1434 10.495 -5.12895 19
41 1 -5.58314 -18.5593 -6.50391 10
42 1 2.34216 -2.08865 -15.3899 22
43 1 4.08122 -6.92384 -13.1893 20
44 1 -2.66396 -5.14083 14.4875 6
45 1 -13.6605 5.30442 -3.21896 15
46 1 0.425638 9.41475 -18.137 12
47 1 -9.36036 9.00675 5.49932 11
48 1 -8.37433 7.96774 -7.07429 19
49 1 -1.52863 10.2219 -3.1526 20
50 1 0.527549 -10.6784 2.00378 21
51 1 7.14646 -6.66884 -8.66616 21
52 1 6.24193 -9.31119 -17.0464 13
53 1 -11.0204 3.96993 9.6595 16
54 1 -11.2687 -2.61073 -15.2541 15
55 1 -3.15914 6.42029 -6.76818 20
56 1 -7.80456 -10.3153 7.40288 17
57 1 -3.58317 7.36635 15.162 10
58 1 -9.80807 5.69412 -12.2093 18
59 1 -8.10612 5.55609 9.29056 16
60 1 -6.85509 -14.289 4.52269 21
61 1 5.29601 2.17763 4.86365 21
62 1 5.65657 -14.4651 -6.08362 19
63 1 11.2174 5.48113 11.2883 11
64 1 -13.2109 2.78432 -14.2662 13
65 1 -11.7867 5.77723 -10.4535 15
66 1 4.77521 7.65681 7.85803 17
67 1 9.32452 -10.2357 -11.5224 18
68 1 13.4905 -13.1149 -2.37284 8
69 1 -17.8512 -4.60391 0.0466406 12
70 1 1.51066 10.2262 1.53866 18
71 1 4.8693 -5.8353 13.2943 13
72 1 -7.79535 -11.2395 4.41781 16
73 1 -13.5833 -0.527613 -3.86015 19
74 1 9.6016 -2.34186 6.99092 19
75 1 -2.16076 10.7644 6.20034 20
76 1 4.80037 -3.41585 4.91923 19
77 1 -2.0374 -6.83843 -9.9651 22
78 1 -14.9231 3.10341 6.39747 16
79 1 -8.77009 7.53451 -3.47015 19
80 1 -3.9131 3.99754 -12.2216 21
81 1 8.30149 -3.84992 -6.09271 20
82 1 7.73882 11.0648 -11.496 10
83 1 6.54868 -5.80794 1.57637 21
84 1 5.37936 -10.9762 3.02149 17
85 1 -2.5699 7.57434 -9.44271 20
86 1 -10.1859 10.6313 1.68339 11
87 1 -11.838 -5.07423 12.1584 11
88 1 -4.75016 5.16287 5.01248 21
89 1 -4.95324 -5.65786 11.7454 17
90 1 16.0146 -1.71593 -5.3992 14
91 1 -10.5139 -0.0753644 1.35943 22
92 1 -10.4911 -12.7128 0.216557 16
93 1 7.21144 -9.44728 -6.09649 22
94 1 1.31086 -7.70709 -18.1252 14
95 1 -5.44928 -4.56757 -18.2779 14
96 1 -0.767729 7.49418 -1.53704 21
97 1 -5.47588 7.08963 -11.6199 21
98 1 2.02334 8.67261 12.7 16
99 1 -5.0646 15.7405 -8.78688 15
100 1 -11.7412 7.49767 -0.875359 20
101 1 2.17853 7.44556 -0.062142 22
102 1 -4.24646 -7.50884 6.8245 21
103 1 10.854 -4.60731 8.78367 12
104 1 3.99493 -7.5044 -9.93419 16
105 1 2.00738 -15.6377 -7.84476 16
106 1 -3.73405 1.9108 6.58177 22
107 1 5.66843 -3.91953 15.4053 13
108 1 -14.5541 -8.92966 -7.34471 16
109 1 -11.6026 -10.4244 -8.93815 16
110 1 8.85233 -10.7331 3.90759 20
111 1 -7.3471 4.50297 -0.361881 20
112 1 6.56504 3.49639 -14.9049 14
113 1 1.98247 14.4884 -1.6496 13
114 1 -12.2562 -14.7592 4.4532 19
115 1 -11.7961 -17.5506 2.86949 13
116 1 3.80623 -9.77718 -14.6674 21
117 1 4.42972 3.47256 -9.78051 23
118 1 16.5153 -5.99531 -7.02137 12
119 1 -6.09826 -15.8051 2.49948 20
120 1 -13.1203 -8.24457 -4.77508 18
121 1 15.5302 5.22063 -0.134326 11
122 1 11.3009 -8.73022 -13.3231 12
123 1 -16.2669 -0.895686 -6.27116 11
124 1 12.378 5.22059 -4.63349 16
125 1 18.1944 5.44311 -5.85959 7
126 1 -7.77059 0.388867 13.5535 15
127 1 1.08201 4.67052 8.4531 17
128 1 -2.41774 6.84016 -12.75 21
129 1 -1.20409 -12.3679 -9.69048 20
130 1 7.56716 -14.683 -8.08161 17
131 1 5.48018 13.2632 -12.6049 10
132 1 8.25812 -8.3394 5.97937 22
133 1 -0.676014 -1.03914 -20.042 15
134 1 -1.23738 4.54905 -10.551 21
135 1 10.2254 -1.35383 -5.93022 17
136 1 -12.2846 10.4023 -8.45689 7
137 1 -9.87687 11.5048 -4.4992 15
138 1 5.60444 0.956317 -11.6904 21
139 1 9.19612 -12.5981 1.04954 13
140 1 -6.91842 5.15765 -10.4031 21
141 1 -8.17946 10.967 4.04263 12
142 1 10.1461 3.69767 -14.8346 12
143 1 1.64422 8.97864 -5.15034 19
144 1 -3.06406 13.8557 -2.64386 14
145 1 4.97535 7.18931 -5.25545 19
146 1 2.9406 7.25634 -9.41551 18
147 1 -2.18034 13.9522 -8.73088 20
148 1 -0.573124 6.58322 -19.2987 14
149 1 -15.8758 -10.3046 -5.05067 13
150 1 -14.0666 7.39726 -6.39669 10
151 1 -10.404 -5.42837 -12.412 21
152 1 2.32789 -12.1854 -14.9554 14
153 1 12.0221 9.6908 -2.25635 17
154 1 -6.17764 13.1053 2.31344 14
155 1 -10.608 -1.0122 -9.22013 19
156 1 -10.6421 5.22811 1.33984 21
157 1 15.8084 3.56737 -5.31446 18
158 1 -8.88185 8.08113 -17.3084 9
159 1 1.86355 -1.19557 14.9204 15
160 1 2.3702 13.734 0.862437 12
161 1 -0.328069 9.86474 10.7039 16
162 1 3.57542 -10.1068 -17.6739 11
163 1 -3.19667 8.57938 10.3637 12
164 1 -0.219742 16.1367 -9.29097 11
165 1 4.34091 -5.85813 9.84582 18
166 1 -12.8318 -7.32933 5.40872 19
167 1 -1.75442 -15.6177 -10.815 13
168 1 -9.6141 11.0616 -8.15215 15
169 1 -4.14096 -8.90673 3.51881 20
170 1 8.53362 -16.2004 -5.38429 14
171 1 -7.35856 10.5416 -15.6047 16
172 1 -13.3209 4.36055 3.20424 18
173 1 6.71419 9.71691 -5.26801 17
174 1 -9.47279 -2.14193 10.483 21
175 1 -2.659 -10.1778 7.27678 16
176 1 -9.72464 1.826 -3.76945 19
177 1 -3.8581 11.1517 -7.99408 19
178 1 4.13239 4.6941 6.6026 20
179 1 14.4941 2.30538 6.46695 13
180 1 -10.0471 13.6522 -1.62561 8
181 1 10.0039 -7.86447 -9.79685 17
182 1 -7.11993 8.4891 8.27514 12
183 1 -4.60007 -1.27045 -11.4298 20
184 1 15.1413 -8.0727 -1.93439 17
185 1 -7.95482 -5.38823 3.49652 21
186 1 -16.8522 -1.35156 0.558476 14
187 1 -9.91107 -7.66533 3.78066 18
188 1 3.85883 8.10007 14.958 8
189 1 -14.1511 -5.75229 -6.44407 23
190 1 0.415978 -18.9154 -1.04463 11
191 1 1.84069 -9.6967 -6.55867 21
192 1 -3.78541 7.03401 -0.170767 23
193 1 5.24106 10.9605 9.31193 10
194 1 -13.2274 -0.209481 -10.531 23
195 1 -7.87475 8.50365 -12.6559 18
196 1 -16.8947 -0.655278 -10.2849 9
197 1 -9.59759 -2.27024 6.71182 19
198 1 -2.38603 -11.579 4.11422 21
199 1 0.814123 -13.4338 4.51315 19
200 1 -15.4244 7.70635 1.93368 9
201 1 16.7566 3.02529 -1.53561 12
202 1 5.94458 1.00396 -8.56115 21
203 1 -6.73797 -6.08178 -15.9652 17
204 1 4.4367 -0.686316 10.4542 20
205 1 5.39674 -16.4794 2.98699 12
206 1 -3.76028 4.23269 -15.3114 22
207 1 3.72668 -11.7382 -11.7341 18
208 1 10.6297 -1.59664 -14.0597 13
209 1 -1.38997 2.31975 -18.4459 16
210 1 -10.1601 -9.52041 -6.80816 17
211 1 -7.55275 15.7201 -6.2192 11
212 1 -13.0458 -12.2348 5.47599 12
213 1 4.39191 10.0217 -3.40184 22
214 1 -10.5073 0.0863901 11.7539 16
215 1 -6.01491 11.4799 -13.0915 19
216 1 4.23541 -0.252763 7.01415 23
217 1 -3.9649 -10.0688 -12.3194 19
218 1 -2.61371 16.49 -6.73302 13
219 1 2.34447 0.354723 -13.5037 17
220 1 -5.68506 -13.603 10.9305 7
221 1 -9.41579 2.78342 6.19304 20
222 1 -7.46852 0.590568 10.2796 22
223 1 3.38141 -14.8662 -3.92592 18
224 1 -3.17241 -16.126 -2.53065 20
225 1 11.2404 -14.4184 -4.41149 13
226 1 14.1936 6.24505 10.3405 8
227 1 1.96653 14.1144 -14.3009 11
228 1 -0.559563 6.9176 -5.04542 20
229 1 -13.6084 -0.273968 -0.659653 21
230 1 -13.8351 8.22017 -2.88637 15
231 1 5.38817 1.91611 8.35729 21
232 1 1.39823 -13.6708 1.25246 22
233 1 10.7142 -4.45566 -4.84982 19
234 1 3.69475 4.79669 3.40802 25
235 1 -9.34775 2.64551 2.85349 23
236 1 -13.9951 -8.64855 -10.1493 15
237 1 4.72748 4.89416 -17.3513 10
238 1 2.20355 -3.18379 7.01909 19
239 1 6.75178 7.45251 -13.0291 12
240 1 3.31911 -12.9489 -6.02142 21
241 1 -3.93178 -2.12326 -15.1871 21
242 1 -3.12724 -18.1386 2.91786 17
243 1 7.37531 -2.16649 -8.0836 18
244 1 -9.78887 -2.55859 -0.211793 21
245 1 3.46041 -18.0313 -2.37902 12
246 1 -11.5779 -7.31431 -7.71321 20
247 1 -2.72813 14.0992 2.20891 12
248 1 -0.636072 -3.83911 -18.4647 18
249 1 1.58474 2.30962 13.5964 19
250 1 17.5083 0.732379 -3.5129 9
251 1 9.4918 -6.31447 -15.1939 12
252 1 -6.26989 -3.23368 -14.4023 17
253 1 -9.9927 0.0626102 -12.2407 22
254 1 -6.78684 -14.8765 7.87145 12
255 1 6.97384 -1.84329 5.29354 19
256 1 3.96635 -5.58605 6.82387 21
257 1 -9.46699 -7.61228 -14.5553 14
258 1 1.87573 7.06747 -16.3129 15
259 1 5.00313 7.41821 -1.59747 22
260 1 -9.99625 -7.63594 0.445837 20
261 1 -4.03165 9.63293 -1.41291 21
262 1 -7.38289 -4.59766 10.3811 22
263 1 -10.0688 -8.51856 -10.5296 20
264 1 -4.62004 -11.707 -15.2383 11
265 1 -6.21908 8.30457 -18.3653 12
266 1 -6.22664 -12.8713 -6.042 19
267 1 -5.85202 -10.6728 2.07028 21
268 1 4.76367 -4.2565 -15.3202 18
269 1 11.4223 0.216849 -8.16959 20
270 1 10.6255 1.06153 2.02736 20
271 1 -10.7311 -4.47064 8.32872 21
272 1 -5.12471 -11.5867 -0.996723 20
273 1 1.4177 3.89467 16.6768 11
274 1 -12.7309 -15.0686 1.25488 19
275 1 -1.23279 -13.7762 -0.673949 21
276 1 -0.831221 14.6376 -0.358148 16
277 1 8.37236 -3.40134 -16.9908 9
278 1 -7.80032 -2.62581 -17.2444 16
279 1 -12.482 -7.43332 10.0765 14
280 1 4.38084 4.57474 15.0871 14
281 1 0.672522 -11.2174 -0.999767 23
282 1 -1.59161 -6.98378 -13.2823 22
283 1 -8.47018 13.4807 -11.4393 10
284 1 6.7661 4.84751 2.08648 23
285 1 -3.22627 1.13602 -13.082 21
286 1 -0.905732 14.1082 -14.6653 11
287 1 6.63353 -12.3464 -8.23383 17
288 1 -7.27176 13.7056 -3.78722 14
289 1 -3.9123 7.35796 6.61372 19
290 1 10.1828 -1.5471 3.56305 18
291 1 -12.4325 -2.39975 1.31067 19
292 1 -4.10411 -8.10783 9.92862 15
293 1 -6.34674 7.45138 1.55297 18
294 1 1.26906 -7.27602 -11.5286 21
295 1 15.2515 6.52426 -7.48202 13
296 1 5.67269 -16.6622 -3.41582 15
297 1 -3.90373 -2.58181 10.1234 21
298 1 -15.5895 -3.23795 -1.0844 18
299 1 10.8326 -16.7806 -7.11932 9
300 1 -6.18438 6.82171 11.1436 15
301 1 -12.8154 3.22711 11.7679 10
302 1 -18.1135 -6.08148 3.05036 13
303 1 -14.141 -15.6733 -1.51802 10
304 1 16.8719 -5.87041 -3.48807 10
305 1 -8.48449 -12.9013 9.57765 8
306 1 8.52753 -4.48379 -9.67069 19
307 1 10.9067 -14.6243 -1.18205 10
308 1 0.350108 16.2561 -3.27414 12
309 1 -2.60447 17.46 -2.93749 11
310 1 11.0446 1.99857 8.00194 16
311 1 -10.6395 -5.17205 1.69054 21
312 1 6.88244 -17.8332 -8.24253 8
313 1 -7.07826 10.114 -0.162252 16
314 1 -6.53386 2.42737 4.84015 20
315 1 3.54573 -11.4924 0.320022 23
316 1 13.4478 -8.45247 1.4746 11
317 1 -0.532086 1.91426 8.06422 22
318 1 -10.3161 -5.08611 -8.7663 16
319 1 7.28061 0.176166 11.7301 22
320 1 -3.60241 7.64591 3.37178 19
321 1 6.38542 3.72956 12.7863 20
322 1 -5.11098 17.7134 -5.80224 11
323 1 0.832782 -9.53106 -16.0875 16
324 1 9.67356 -12.0108 -13.3984 12
325 1 -12.5136 1.96751 8.02584 21
326 1 -16.9665 -0.621626 3.84449 20
327 1 -4.41498 -9.90425 -9.45406 20
328 1 -7.05028 5.19312 -3.78369 21
329 1 6.93267 -5.83402 4.83041 18
330 1 -12.8369 -11.4884 -5.77131 18
331 1 10.4094 -10.7112 6.88041 9
332 1 -9.50045 -9.48272 10.1008 13
333 1 -12.6231 9.98235 -5.60745 11
334 1 -2.10148 -4.65157 7.42752 22
335 1 4.02952 -17.0446 -8.45352 14
336 1 -7.0653 -7.37072 -12.9352 20
337 1 7.72363 -1.39413 -14.7812 17
338 1 3.96251 10.3675 -0.707338 21
339 1 -9.64496 -2.80451 -6.94281 16
340 1 6.58672 -11.4727 -15.0328 14
341 1 10.5873 -1.88864 -10.6948 17
342 1 -1.5348 -14.3087 -4.07195 20
343 1 -12.0406 -10.3021 -12.1238 11
344 1 -8.90994 -9.75328 1.59899 18
345 1 14.0813 0.669245 10.1732 11
346 1 9.75678 -2.07209 -2.74739 19
347 1 -10.4847 10.3287 -11.8041 14
348 1 -0.0809055 12.9231 -3.63366 16
349 1 -15.4914 -3.10613 -8.62156 15
350 1 -10.3346 6.30896 7.1012 14
351 1 -5.80328 7.81472 -2.12314 20
352 1 -1.72099 4.58271 6.80234 21
353 1 13.4688 1.11849 3.28407 17
354 1 12.6452 -2.18595 -4.7757 20
355 1 5.57812 -3.15145 11.598 21
356 1 9.69452 5.09687 -6.23763 17
357 1 -6.50575 -17.9347 -4.05631 13
358 1 0.674014 -12.2824 -7.67158 19
359 1 2.02905 7.8716 3.38699 19
360 1 -13.8848 4.00605 -11.2117 13
361 1 4.35182 -9.05179 -4.68117 21
362 1 10.8454 -4.24744 5.11645 17
363 1 -10.8156 -6.24035 -5.05176 19
364 1 -7.11997 -7.60113 1.54214 21
365 1 -14.0965 -4.69593 9.8939 13
366 1 -3.13306 7.64137 -3.83776 22
367 1 -8.82412 -14.3802 -8.23668 11
368 1 7.27907 8.72062 11.2593 10
369 1 -10.8237 -0.205551 -5.85021 19
370 1 -0.80224 10.4353 -9.55683 20
371 1 1.88554 12.3359 7.04896 16
372 1 -11.0718 -12.4339 -3.2585 13
373 1 -1.56331 -9.56342 -8.07607 21
374 1 -15.0941 -3.71819 2.59976 25
375 1 -11.5737 7.22771 -8.03251 17
376 1 9.23776 -6.65667 0.559932 17
377 1 -2.17899 -12.17 -6.40586 19
378 1 10.8561 7.38853 0.0369588 18
379 1 -0.159998 13.6707 -11.3955 19
380 1 -9.31725 2.67384 -14.013 19
381 1 -2.87198 15.2232 -11.6061 14
382 1 -8.97828 2.16169 -10.3495 19
383 1 -1.41594 -13.7483 2.56929 24
384 1 12.4179 4.48914 4.21286 17
385 1 -5.31552 11.5653 -19.265 8
386 1 -4.02651 -2.27203 6.85147 21
387 1 -17.166 5.00472 2.09355 7
388 1 -10.626 0.0305865 4.65524 19
389 1 -10.8341 -12.7527 3.54501 19
390 1 6.56398 -9.74605 -9.53933 19
391 1 -18.0765 1.58549 2.11253 10
392 1 -18.8171 -3.03396 3.08987 15
393 1 -15.5278 2.35069 3.65755 17
394 1 -1.65341 -7.69083 5.45347 18
395 1 -6.69814 -1.8484 -19.8999 9
396 1 9.86172 -18.6023 -10.0034 4
397 1 -2.11802 -9.76546 -14.7222 18
398 1 -4.98571 -5.5277 8.64634 18
399 1 -6.59234 5.31139 -16.4379 17
400 1 4.77381 -14.0963 1.39948 22
401 1 1.84458 9.91866 -7.87281 20
402 1 -13.283 5.63317 5.67383 14
403 1 -6.59029 -2.31611 12.1128 17
404 1 -9.86939 -4.56169 -15.6467 15
405 1 -9.04508 -16.2413 4.87014 13
406 1 11.9908 -10.0522 4.81641 12
407 1 1.55788 -1.99551 -11.721 24
408 1 10.876 -9.68561 1.66526 13
409 1 14.3965 4.68283 -10.2855 11
410 1 -4.77135 -0.359018 8.32361 18
411 1 1.34397 10.6724 -1.73471 19
412 1 10.0429 -7.45524 3.72839 21
413 1 -3.33487 -18.9833 -3.25374 12
414 1 -4.66665 0.602094 15.4275 9
415 1 -4.67827 10.594 8.65512 11
416 1 -8.98547 -10.4711 -14.1971 13
417 1 7.81905 12.6012 -4.82366 15
418 1 2.69988 7.94466 6.60761 19
419 1 -7.87021 0.217657 6.62893 19
420 1 -7.20388 -8.84801 -4.84102 18
421 1 -12.5024 -1.91625 8.64046 19
422 1 -7.04491 -9.53599 -10.9721 20
423 1 -7.41848 4.96107 6.37868 19
424 1 -4.2463 -14.9863 -5.38634 22
425 1 -0.89308 -12.5413 -14.6767 13
426 1 -7.3501 -13.02 1.01309 18
427 1 8.74454 0.43661 5.63001 19
428 1 -9.53378 -6.74233 11.2274 16
429 1 -8.92057 7.64197 -10.3219 19
430 1 6.62399 3.86916 -1.37059 21
431 1 -8.09601 -16.0737 -2.15987 14
432 1 -7.43192 15.1839 -0.895124 10
433 1 -0.428397 1.01499 -11.8281 21
434 1 -1.58196 5.10371 10.1091 21
435 1 -16.9053 -4.35187 -6.32202 13
436 1 -5.9124 17.2853 -3.08952 12
437 1 4.32783 10.3231 -7.06449 17
438 1 -3.76679 -13.1548 -8.4913 18
439 1 4.56947 2.41645 11.7443 20
440 1 -1.48711 -15.0611 -7.88436 22
441 1 -1.13616 -1.13844 -16.915 18
442 1 5.92454 -17.3008 -0.123983 13
443 1 -10.4016 5.11633 4.49743 21
444 1 4.95634 6.46814 12.6371 14
445 1 7.0868 6.01518 -3.26168 17
446 1 2.1422 7.25594 -3.13314 22
447 1 -10.3774 12.0326 -13.8648 10
448 1 2.44697 1.16136 -10.3327 24
449 1 1.49585 -8.38545 3.78417 17
450 1 -16.187 -9.64677 -2.31976 15
451 1 -4.481 12.2347 3.93834 15
452 1 -7.03718 -0.178778 -13.9329 20
453 1 16.562 2.61962 -8.16017 10
454 1 2.96803 15.1732 -5.33745 14
455 1 9.51062 -7.29431 -2.88792 20
456 1 16.1856 -3.81034 -8.41465 12
457 1 -0.14101 1.38658 -15.3174 16
458 1 -2.65428 -11.6236 0.763576 20
459 1 -4.99934 -17.4469 5.32765 12
460 1 2.59703 -8.47749 7.67434 15
461 1 -9.08593 2.33971 -7.07635 21
462 1 -10.5572 -10.4196 5.39829 18
463 1 -5.4444 -15.8814 -8.43773 19
464 1 10.1531 11.3433 -0.205409 12
465 1 2.0493 3.63406 -16.4322 16
466 1 2.50777 -5.3023 15.1301 9
467 1 -16.0657 -2.6231 5.56713 21
468 1 -0.382812 -16.616 0.850813 23
469 1 -16.6959 -5.74125 -2.90861 13
470 1 13.3872 -9.1819 -11.0666 13
471 1 15.9653 -7.17077 -10.1407 13
472 1 -4.29693 4.74232 -8.76114 24
473 1 4.11792 -10.6081 -8.3564 19
474 1 1.64238 4.6628 -11.9392 18
475 1 13.6213 -5.4242 -3.09348 19
476 1 -9.56142 -2.45491 13.5089 14
477 1 -3.12513 12.4549 0.451647 19
478 1 -2.93936 -4.83363 -16.0973 22
479 1 1.00539 0.687661 -20.6931 10
480 1 -7.66125 -4.81832 6.84997 21
481 1 -7.19713 10.2756 -3.57837 18
482 1 -9.3649 -0.713086 -15.3413 19
483 1 -15.326 -2.7844 -3.95337 17
484 1 1.80864 -13.5784 -10.8627 18
485 1 -3.57228 -12.7473 8.65617 13
486 1 -0.622251 10.1827 -12.6131 20
487 1 16.077 0.122593 2.73739 11
488 1 12.1088 6.43695 -8.59436 17
489 1 -7.04977 -15.4471 -10.7892 8
490 1 -2.19583 -11.2471 -2.60387 20
491 1 0.367632 -5.44971 -20.5638 6
492 1 -6.75349 7.70078 4.65412 19
493 1 2.29441 -4.36948 -13.646 20
494 1 13.5896 -5.72282 -6.35369 21
495 1 2.00347 12.5178 -5.69069 17
496 1 3.83789 -8.40928 1.88613 21
497 1 11.2333 3.33347 -9.33156 20
498 1 4.05758 11.1938 12.864 7
499 1 -10.3757 0.653193 8.32762 21
500 1 8.0228 8.71716 8.55778 16
501 1 7.38943 -0.592128 16.037 9
502 1 -3.56397 5.32173 -18.4649 14
503 1 -7.26837 -9.9535 -7.90652 16
504 1 1.49067 -5.47662 11.7019 15
505 1 7.25785 8.10268 3.05392 16
506 1 0.48988 7.32531 -11.4486 19
507 1 -4.59187 14.177 -6.13124 19
508 1 -0.275178 7.16937 -8.42517 20
509 1 10.0803 -8.27292 12.1509 4
510 1 7.35338 0.0467616 -17.3683 11
511 1 9.03225 -12.452 -4.93501 18
512 1 10.976 8.68343 6.99169 14
513 1 -16.2336 -7.26169 -0.0869092 14
514 1 -5.78434 8.11187 -15.1566 18
515 1 -1.72379 -0.537041 7.1725 22
516 1 -17.3386 0.943926 6.77302 16
517 1 -8.52332 13.6141 -16.8406 5
518 1 0.341198 -11.5097 -4.35313 23
519 1 5.33846 -4.65628 -11.3349 22
520 1 -1.85019 12.4554 -6.53276 18
521 1 -9.11127 -2.7517 -13.2839 21
522 1 2.65322 -15.6394 3.31212 15
523 1 -12.4011 -3.04866 -5.28126 21
524 1 -0.525811 11.1775 -15.1876 16
525 1 -1.24651 7.20099 12.6551 13
526 1 -12.6362 -9.67099 8.20883 12
527 1 5.0211 8.78469 -9.45778 19
528 1 4.69738 -14.1223 -9.48771 21
529 1 5.6348 -8.00028 7.74719 17
530 1 -12.0352 2.60376 0.778606 21
531 1 3.83764 4.21166 9.91944 21
532 1 4.14414 13.2432 -2.88151 16
533 1 12.9639 -6.34989 -9.35467 20
534 1 2.28788 7.07974 10.0089 16
535 1 -3.27783 -2.37922 -18.4734 18
536 1 -9.42032 -13.8694 6.13821 14
537 1 -1.79537 -1.82417 -13.1072 20
538 1 0.790493 3.95797 -21.3891 9
539 1 -0.722611 12.9842 5.04125 17
540 1 5.03714 0.656293 -15.1238 17
541 1 -4.30747 -7.95964 -17.4173 15
542 1 -4.98596 -11.2026 -4.10289 19
543 1 -13.3898 -4.83897 -14.1018 11
544 1 9.70492 4.1212 -2.88626 23
545 1 17.6687 -0.491635 -0.674561 10
546 1 9.42364 -10.4657 -7.869 24
547 1 10.3492 9.66454 3.04033 11
548 1 6.80774 -15.7847 -10.6872 13
549 1 2.08781 6.2963 -19.6896 10
550 1 6.64226 11.3144 -1.82434 18
551 1 -9.43681 1.99694 -0.526382 21
552 1 13.3557 3.4498 12.1909 10
553 1 10.2309 9.79957 -5.72491 14
554 1 15.3479 -2.51956 0.583695 13
555 1 7.61989 3.43392 -8.29366 19
556 1 4.59113 -1.03166 16.2137 11
557 1 13.8944 5.38124 6.93625 14
558 1 1.08158 -5.73302 8.65439 18
559 1 9.25564 5.64365 -9.27136 17
560 1 2.36014 1.70113 9.93317 23
561 1 15.4868 -4.35499 -10.8884 13
562 1 8.40738 -2.72693 10.1895 19
563 1 -7.46247 -0.431656 -10.0925 18
564 1 13.4826 2.59033 -3.25638 20
565 1 11.8855 -9.9773 -1.5698 17
566 1 -15.3795 2.54897 9.5973 13
567 1 10.974 8.25844 10.2801 12
568 1 9.81639 0.474743 14.2599 9
569 1 1.22594 4.66004 4.85569 22
570 1 2.21055 12.0953 4.07672 16
571 1 8.33376 2.2891 3.49558 20
572 1 -3.03698 -18.4888 0.0540044 18
573 1 -7.3287 13.4372 -8.37461 17
574 1 11.0689 0.551834 -11.8556 17
575 1 6.83902 -5.804 -17.4758 12
576 1 -1.10173 9.63356 -6.38707 22
577 1 -7.53339 -15.4333 -5.79199 18
578 1 11.4396 -12.3618 -10.5482 13
579 1 -20.0577 0.133962 4.82452 8
580 1 -6.80623 5.42985 -13.3158 22
581 1 -5.73088 -16.7041 -0.588649 19
582 1 -6.30332 2.11642 -12.2177 22
583 1 -14.963 1.44948 -8.90112 16
584 1 12.5464 -7.01109 -0.828615 17
585 1 13.6766 7.42603 -1.77866 17
586 1 0.148632 -10.293 5.64248 18
587 1 -14.9443 -2.06052 -12.2292 12
588 1 2.22428 -2.22209 -18.9711 14
589 1 -0.927938 -0.306977 13.5424 16
590 1 4.92431 9.93896 -11.9836 19
591 1 13.6117 -2.4486 4.62476 14
592 1 7.48711 7.61281 -6.89778 17
593 1 14.3607 7.91075 -4.61706 15
594 1 6.22409 -12.1235 -4.59651 19
595 1 -12.6714 -2.21813 12.0027 12
596 1 13.2374 -4.40916 0.708205 16
597 1 -0.531037 11.5921 8.42648 16
598 1 1.42083 13.6288 -8.42206 20
599 1 -11.8483 2.43719 -8.5409 21
600 1 10.5941 6.93202 -2.91142 17
601 1 -9.65064 -15.6874 2.34824 19
602 1 12.3611 -2.01717 -1.62458 17
603 1 10.6191 12.8253 -3.45255 12
604 1 -4.72917 5.23394 8.55423 20
605 1 -13.6043 -5.43565 -3.64211 18
606 1 -8.25693 -6.53037 -10.0465 15
607 1 7.24258 -0.183245 8.51531 23
608 1 -7.2728 -7.51633 8.61429 20
609 1 7.25071 1.9883 15.0729 14
610 1 -6.14845 7.4215 -5.32174 20
611 1 13.465 3.49562 -7.05195 18
612 1 8.04918 1.69924 0.00683115 20
613 1 2.05775 -4.53302 -16.8812 15
614 1 -13.7118 -4.40722 6.68559 19
615 1 13.422 -3.52067 -14.8327 6
616 1 12.4735 -11.6053 -5.58631 17
617 1 6.88101 5.05684 8.12671 17
618 1 -15.5865 -0.963132 8.40917 13
619 1 14.3534 6.35491 1.67033 13
620 1 -1.39591 -3.47535 12.0648 16
621 1 -0.060077 0.697259 16.3942 8
622 1 -0.893258 -3.81542 -14.9749 19
623 1 -6.42643 2.28256 8.35747 19
624 1 7.7168 2.64312 10.0689 19
625 1 -14.7778 -15.093 3.60441 9
626 1 13.6362 9.03339 -8.03297 9
627 1 8.16964 -10.0178 -1.63252 15
628 1 8.88657 10.0475 -2.36995 20
629 1 6.54054 10.2421 0.543777 18
630 1 4.93614 -0.265424 -19.8184 9
631 1 1.89361 11.3631 -11.3376 19
632 1 8.03852 6.93123 -0.104437 20
633 1 -7.90583 -10.9522 -3.26394 15
634 1 -2.91064 -5.58324 -19.1207 12
635 1 -12.86 11.101 -2.06193 10
636 1 5.89945 -9.82805 -12.5995 18
637 1 4.25316 3.02493 -13.1484 19
638 1 5.01859 13.2415 -5.92168 14
639 1 -9.97973 4.60697 -2.16372 19
640 1 5.55813 5.78491 -8.43313 20
641 1 13.2072 -0.145634 7.4713 14
642 1 7.88941 -4.98959 12.9566 10
643 1 -3.41553 -15.5026 7.95489 9
644 1 -10.7454 8.44252 -13.8455 12
645 1 -0.0679945 12.444 2.20578 18
646 1 9.47269 -9.58888 -15.4547 11
647 1 1.42495 -0.626763 8.42843 21
648 1 7.11786 10.634 -7.9249 17
649 1 10.1971 5.40301 6.2379 19
650 1 11.8735 -8.70115 -6.64089 17
651 1 4.13783 1.62758 15.1515 14
652 1 -10.5035 -4.68386 5.2393 21
653 1 3.36484 -11.6984 -3.25162 20
654 1 -0.655075 -4.35737 -11.4404 20
655 1 -8.80187 7.61223 0.0703122 20
656 1 4.85641 7.55099 1.6204 23
657 1 -14.9272 -7.2783 2.0523 18
658 1 -1.62352 4.44458 16.6142 10
659 1 -0.918604 5.03051 -16.3402 16
660 1 -9.85314 5.95609 -15.3835 12
661 1 5.15574 -13.738 -2.10853 19
662 1 2.5107 8.44542 -13.0679 16
663 1 -14.3222 0.113251 5.74698 21
664 1 3.67855 0.830843 -17.4504 16
665 1 6.44099 -11.4406 6.01933 15
666 1 -4.75863 15.223 -0.586686 14
667 1 -4.67034 0.196983 11.8477 17
668 1 -12.2804 -7.7365 -12.6472 15
669 1 -6.49779 -12.4777 -12.3313 14
670 1 -9.30337 -11.3109 -11.422 13
671 1 -5.63838 14.6605 -13.367 11
672 1 7.73181 -7.03961 -11.9562 19
673 1 -0.843744 7.22313 1.8441 21
674 1 6.35556 -13.3794 -12.9218 14
675 1 7.99856 -15.743 -2.62559 16
676 1 4.74395 -8.72276 5.0703 21
677 1 13.617 -1.68841 -10.8382 14
678 1 0.579915 -14.9871 -5.51173 22
679 1 -12.9523 -4.91225 3.57761 21
680 1 -5.7323 -19.2222 2.24439 14
681 1 -9.17645 -11.8168 -5.95895 15
682 1 -12.6462 -2.13407 4.57764 22
683 1 -5.18709 -20.2732 -0.823662 10
684 1 13.8245 1.27175 -10.0351 17
685 1 -8.95569 13.543 1.15918 10
686 1 -13.7657 5.32363 -0.12898 20
687 1 10.5424 -4.9885 2.22797 19
688 1 -12.4247 -2.23216 -12.3576 21
689 1 1.41407 4.01358 -8.49753 18
690 1 7.25755 -2.07265 -11.7984 19
691 1 7.72441 8.14612 5.50609 15
692 1 7.06344 3.24043 -4.98581 20
693 1 -15.1971 1.28126 -12.2676 12
694 1 -13.7453 -5.8029 -10.5122 17
695 1 -4.93759 4.01332 15.3055 14
696 1 -0.292509 8.28742 -14.825 17
697 1 12.4676 9.54295 1.04938 11
698 1 -0.660049 -2.411 8.81801 22
699 1 -7.5954 -19.7369 -0.722471 12
700 1 -10.1809 -17.7058 -0.415507 12
701 1 -1.1414 -7.78791 8.42918 16
702 1 12.434 7.40174 4.12757 14
703 1 0.982327 -9.99988 -13.0455 21
704 1 -6.73497 5.07137 -7.06662 22
705 1 9.57034 5.74352 2.86332 18
706 1 -13.216 -5.32302 -0.00478072 24
707 1 8.22641 1.43667 -13.4683 17
708 1 0.336143 -17.9893 -7.84111 12
709 1 -1.82798 -19.1687 5.32323 7
710 1 -0.25806 -16.5687 -2.6722 19
711 1 8.73524 0.966462 -10.0839 17
712 1 5.49442 13.4384 -0.0257879 11
713 1 -5.12565 2.80041 -18.5539 14
714 1 1.42206 -0.780207 11.7187 20
715 1 -3.46554 9.87521 -14.3888 17
716 1 -11.4962 0.579244 -15.6581 13
717 1 -13.4595 -0.474461 -7.41526 18
718 1 0.0955002 15.2026 -6.28058 17
719 1 -4.12309 -7.46177 -14.373 20
720 1 -7.13181 -8.01967 -1.46973 19
721 1 11.4876 3.72037 -12.1311 14
722 1 8.06429 -13.1951 -2.17038 17
723 1 -3.13255 1.9758 13.2156 17
724 1 10.4479 -9.47294 -4.29746 21
725 1 15.9997 -5.90204 -0.37372 14
726 1 10.8608 -7.76085 7.4618 15
727 1 -1.53597 10.1544 3.28087 22
728 1 -13.3228 0.204908 10.4213 14
729 1 -9.15817 3.07566 11.8661 15
730 1 -3.03479 -14.9986 4.69157 19
731 1 10.0457 -1.8135 0.876707 20
732 1 4.3133 10.3069 5.91814 15
733 1 -16.2488 0.138697 -2.16879 12
734 1 11.2474 -4.37771 -8.20703 17
735 1 -6.77038 11.2236 -6.49607 19
736 1 -0.507968 -16.0056 3.82862 19
737 1 2.91357 -3.06649 13.5049 18
738 1 0.938907 9.93504 5.08074 23
739 1 3.19073 -10.7398 4.94602 17
740 1 -8.15955 -5.91705 -6.47002 18
741 1 -2.068 -0.0925974 10.173 22
742 1 -16.9522 -7.5152 -5.33241 12
743 1 -0.266175 7.25732 15.2573 11
744 1 -1.51318 9.93119 0.0892525 19
745 1 -11.6987 -9.9164 0.23339 17
746 1 -8.99978 -18.5372 2.39257 13
747 1 7.5135 -8.50246 2.21678 20
748 1 13.1366 -5.82087 3.72335 11
749 1 4.96066 7.30238 4.84964 18
750 1 -1.54581 -9.75314 -11.4926 21
751 1 -3.32534 0.996274 -16.5615 20
752 1 -7.08065 -2.21014 8.61529 22
753 1 -4.75192 10.1066 1.60079 17
754 1 16.1135 2.82005 1.5119 13
755 1 4.41699 3.83902 -6.40746 19
756 1 -7.55746 2.80855 15.1794 10
757 1 9.59987 4.6907 13.313 10
758 1 6.73528 -7.76253 -14.722 19
759 1 -13.6392 -14.7514 -4.62484 11
760 1 6.80485 -2.05939 13.392 15
761 1 4.59379 -1.51705 -13.3357 21
762 1 -6.78999 6.31242 14.2215 10
763 1 10.9935 -13.6427 -7.51515 16
764 1 3.93055 5.62397 -14.6933 16
765 1 -4.23264 -8.9011 -6.14599 21
766 1 12.0705 1.34208 -14.5693 10
767 1 15.6462 -2.74269 -2.69138 16
768 1 -1.82282 -5.42682 10.2392 17
769 1 -2.87242 -18.0768 -8.69217 13
770 1 7.63636 14.3257 -2.93882 9
771 1 -13.7273 0.329191 2.54238 16
772 1 8.51446 1.39671 -6.54777 18
773 1 13.7865 1.43784 -0.0973902 17
774 1 1.50501 -6.92221 -15.2389 19
775 1 -12.5457 7.23925 2.57739 16
776 1 16.6498 6.20667 -3.12747 12
777 1 7.85072 8.18147 -10.1875 19
778 1 3.20793 3.25626 -19.3947 13
779 1 6.66097 -6.97658 -4.79884 18
780 1 -12.883 2.22783 -2.46021 18
781 1 12.6563 4.36822 -1.39348 18
782 1 -13.4843 -8.06634 -1.27468 17
783 1 -7.37244 10.7189 -9.78143 22
784 1 8.11986 3.03513 7.13331 18
785 1 -12.3747 -3.49449 -9.21638 18
786 1 -12.4012 1.92985 4.49887 21
787 1 -3.24048 2.09089 -9.85195 23
788 1 13.472 -6.40395 -12.6358 12
789 1 -7.35414 -9.74059 -16.6841 9
790 1 13.3632 -7.94961 -4.43879 19
791 1 -16.4072 6.52323 -0.993725 12
792 1 -16.3789 -6.46132 -8.86177 11
793 1 13.4376 8.50469 7.94105 8
794 1 -6.89661 -8.47532 4.74224 19
795 1 12.7716 0.171218 12.5642 11
796 1 10.2056 -0.273271 10.3341 16
797 1 7.94763 -3.17675 3.11971 20
798 1 -10.796 -0.645118 -1.99314 20
799 1 -0.75728 7.18833 4.96429 22
800 1 4.24327 6.05865 -11.8125 20
801 1 -1.56629 -7.61351 -16.2076 15
802 1 -2.68941 13.4745 8.3278 8
803 1 -15.1991 -13.4252 0.292798 11
804 1 4.37108 12.6112 -9.33759 19
805 1 2.39269 5.28799 12.1822 17
806 1 14.55 -8.84639 -7.96034 14
807 1 8.66233 -8.71551 9.15474 14
808 1 -5.28097 13.037 -10.6075 19
809 1 2.85858 11.2727 -14.3333 12
810 1 -6.57835 -2.73751 4.97659 20
811 1 13.2015 -1.12173 1.50399 18
812 1 -3.24047 -4.52161 -12.7751 25
813 1 12.9524 10.6465 -5.21919 11
814 1 -15.2498 3.1445 -1.06907 14
815 1 -4.63539 -13.2787 2.95787 19
816 1 2.68999 14.4102 -10.8442 12
817 1 5.63892 -2.76697 8.2665 20
818 1 1.56293 -13.8952 -1.927 21
819 1 -10.5188 9.63499 -2.00745 15
820 1 -14.2382 8.93776 -0.157713 13
821 1 13.8813 -2.32665 -7.68509 15
822 1 0.562311 -15.2828 -13.3503 9
823 1 -7.39896 5.0449 2.73457 21
824 1 9.67494 6.59287 -12.5053 12
825 1 -9.6354 -2.88338 3.10516 22
826 1 4.93034 -2.87154 -17.8771 17
827 1 -4.16102 -16.7211 -11.6392 10
828 1 3.0671 -15.7165 -0.395194 21
829 1 -1.09512 8.07857 7.84306 17
830 1 6.10767 -11.598 -0.103069 17
831 1 -2.12937 11.8908 -17.7056 11
832 1 14.2906 0.577247 -6.96819 19
833 1 9.50447 4.16609 0.417605 18
834 1 1.84604 -17.8958 -4.38346 13
835 1 4.43016 -6.86895 -16.4419 20
836 1 10.7234 -4.31947 -1.24371 22
837 1 -4.17679 9.68682 -10.8875 19
838 1 -5.13179 -11.1033 5.59772 18
839 1 7.1399 4.48466 -11.7041 22
840 1 4.11673 -1.77551 -9.99638 21
841 1 -12.1404 3.22796 -5.49189 15
842 1 -19.2695 -2.22187 6.25861 11
843 1 -0.411363 4.37025 13.6079 19
844 1 -9.92711 -7.34869 7.31822 20
845 1 7.292 4.47376 4.95481 21
846 1 -3.90721 -14.85 0.779698 20
847 1 2.68626 6.19391 -6.54481 18
848 1 -3.66848 5.41594 12.4119 22
849 1 -3.43294 2.46913 10.1002 21
850 1 -9.29359 7.50104 3.21028 18
851 1 8.02067 1.00524 -3.13314 21
852 1 -6.7907 -8.29246 11.8974 12
853 1 4.14773 -14.2854 5.32707 11
854 1 10.3113 2.22888 11.6261 18
855 1 9.60986 -6.95149 -6.47642 23
856 1 3.78196 -15.375 -11.6288 14
857 1 -5.94119 -0.339151 -17.352 20
858 1 -3.67858 0.0796246 -20.1333 15
859 1 5.26694 11.1403 2.96748 13
860 1 -14.7704 -6.99663 7.83098 12
861 1 -5.59249 8.20232 -8.38137 24
862 1 -13.9564 4.32315 -8.21573 12
863 1 10.7545 8.68129 -10.4661 9
864 1 -11.1998 -15.0706 -1.78343 16
865 1 -1.76527 4.50516 3.29247 21
866 1 15.2035 4.3685 3.97654 12
867 1 -6.50044 -12.4534 -9.17461 19