ITEM: TIMESTEP
3000
ITEM: NUMBER OF ATOMS
1500
ITEM: BOX BOUNDS pp pp pp
-30.0 30.0
-30.0 30.0
-30.0 30.0
ITEM: ATOMS id type x y z Coordination
1 1 -3.20629 -9.97362 -8.90225 21
2 1 10.0579 -11.0384 6.56172 9
3 1 -11.5816 9.6292 -3.39247 16
4 1 -7.65548 3.7022 -8.07891 22
5 1 3.06417 -7.12714 11.6723 17
6 1 -5.68757 1.18648 -8.3177 22
7 1 -3.14557 -10.3929 -0.315504 24
8 1 -12.001 -7.4592 3.81055 12
9 1 0.467024 4.89324 13.6102 15
10 1 -1.81308 2.54599 11.8635 20
11 1 1.21041 13.0692 -9.46013 11
12 1 4.2128 -1.2202 11.3763 20
13 1 13.0586 6.95188 7.28936 13
14 1 -1.78294 14.3034 -7.77637 12
15 1 4.21488 3.216 -13.8967 15
16 1 -0.147586 -3.99026 -8.1065 24
17 1 9.04901 -13.4939 4.56175 11
18 1 10.5482 -11.9423 1.4022 13
19 1 -3.10589 -14.0176 -6.87483 13
20 1 0.503065 -7.12455 -16.2409 8
21 1 -0.721218 6.93929 15.199 9
22 1 2.43345 -9.331 6.21724 18
23 1 5.85842 -4.06494 11.579 16
24 1 -14.9317 -4.6654 4.01829 11
25 1 -9.45822 1.73641 -3.12402 19
26 1 -2.06943 12.0528 -1.03618 21
27 1 1.94689 2.02652 -9.8427 22
28 1 2.78557 -8.33025 -14.2356 13
29 1 -0.0702305 -4.39584 14.4655 14
30 1 -12.2409 8.15172 1.79908 13
31 1 1.62052 11.3711 7.34019 19
32 1 -8.59913 13.7185 -6.51182 9
33 1 -5.33898 13.7754 -0.161334 16
34 1 2.33586 -9.58217 3.26743 18
35 1 7.80782 -10.2709 -6.38031 16
36 1 -10.5474 3.49402 10.848 12
37 1 -10.4671 -1.0343 -10.8659 10
38 1 6.4143 -0.658077 6.9054 22
39 1 -9.05921 10.2524 -6.90985 12
40 1 -8.11817 -9.90617 7.12022 13
41 1 -10.6698 6.0597 -8.00945 15
42 1 3.36608 4.07738 8.33297 20
43 1 6.66581 -15.3237 0.00602787 11
44 1 7.52111 5.89849 13.7548 11
45 1 11.3428 -1.51661 -8.87454 13
46 1 10.8977 -9.61333 3.00548 16
47 1 5.36638 -2.59622 14.238 19
48 1 -5.10641 -11.447 7.87423 11
49 1 -11.0849 -1.70824 -0.115321 14
50 1 11.9764 2.41453 8.35473 17
51 1 8.91014 -1.0866 -4.74198 18
52 1 0.236913 9.23258 9.94608 18
53 1 7.04605 -1.3826 9.60813 21
54 1 -2.64876 -4.65328 -9.89825 22
55 1 -9.77102 11.9637 -1.28265 17
56 1 -2.00837 7.2186 -8.49375 22
57 1 8.04083 -4.8177 -5.92005 22
58 1 9.65734 -7.11997 -1.29901 16
59 1 7.0697 -6.12462 6.88437 22
60 1 -3.29059 14.9581 -5.08917 16
61 1 -8.91751 13.1666 1.14331 16
62 1 -5.47487 10.8186 4.04321 21
63 1 -4.89362 -6.38524 11.1016 17
64 1 10.5667 -5.20495 -3.64196 16
65 1 -14.5708 6.48891 0.631982 13
66 1 11.988 -5.52153 0.159034 18
67 1 7.77758 1.90104 -9.91725 17
68 1 -4.01929 -0.291188 -16.447 13
69 1 0.1793 13.3768 3.58869 15
70 1 -7.79457 8.25243 -9.24718 13
71 1 -2.00693 10.5535 -8.25543 15
72 1 1.62098 9.77865 1.97549 20
73 1 -5.31417 -5.91487 7.92209 14
74 1 0.341644 -6.34224 -10.273 19
75 1 2.74236 -4.00235 -9.63853 20
76 1 -2.31297 3.43336 8.61751 23
77 1 -11.186 -6.42001 -3.69831 21
78 1 -8.6095 -11.616 -2.74984 18
79 1 12.0162 -5.96581 3.54111 17
80 1 -5.73508 8.07097 2.50474 21
81 1 7.04297 1.10715 -14.5465 9
82 1 4.80684 10.3837 -5.87155 21
83 1 15.1269 -5.18126 2.04948 12
84 1 1.5441 -12.4214 2.83431 23
85 1 -6.13818 -9.14969 -0.933569 20
86 1 -12.3825 -4.15993 2.50368 20
87 1 11.8315 9.94162 5.86321 12
88 1 -2.81686 8.08245 9.81133 16
89 1 -1.672 12.3244 -3.9503 19
90 1 0.441631 -3.4634 -11.6642 22
91 1 9.68876 -1.78405 11.6841 17
92 1 -3.66199 6.8372 -5.88338 22
93 1 11.3915 2.45493 -4.85826 18
94 1 -12.1431 8.76921 -6.44258 9
95 1 -7.63807 13.9278 -3.25437 13
96 1 10.0876 4.0674 -10.7134 15
97 1 11.8229 -7.95223 5.69599 11
98 1 -8.06235 4.46989 -4.62031 21
99 1 7.02997 12.4826 0.182648 15
100 1 9.94978 8.09737 -2.51315 20
101 1 -2.68898 9.54051 -4.21138 20
102 1 -2.07077 -1.91306 -14.6048 17
103 1 4.99507 15.4076 4.56714 13
104 1 -13.4958 -5.36393 -4.90376 14
105 1 19.4678 0.529728 -1.25501 12
106 1 -2.97407 9.47219 5.42432 22
107 1 0.396998 13.8395 -5.17366 16
108 1 6.68577 -1.22941 16.8119 8
109 1 -8.38713 -5.11297 0.504357 18
110 1 -0.30378 -9.48166 6.95751 22
111 1 3.5143 -14.0496 -6.29052 11
112 1 -3.8904 11.8281 -9.89292 10
113 1 7.28009 9.30437 -4.31876 21
114 1 1.75437 -9.55159 11.5096 11
115 1 -9.18148 1.84438 0.341716 21
116 1 2.02384 15.251 5.63462 9
117 1 2.52791 6.78568 10.5404 20
118 1 -7.90558 15.9417 2.38363 8
119 1 -5.43828 4.45053 -5.82343 21
120 1 15.5127 -3.79018 -1.06778 16
121 1 -6.21665 -4.26652 5.35422 18
122 1 -14.1448 -1.29945 2.8973 18
123 1 -5.98948 -10.9179 4.19662 16
124 1 -13.1324 2.16738 -5.14596 13
125 1 -2.24795 -15.7363 1.97258 9
126 1 6.89375 -6.21253 -2.50011 20
127 1 -0.435314 10.1451 4.24867 23
128 1 -7.77288 -1.1535 -4.73943 19
129 1 -5.02468 9.22469 -7.8775 19
130 1 -12.125 -3.02369 -7.25193 12
131 1 -7.73278 -1.69845 12.4736 12
132 1 1.05474 -6.45847 6.67342 20
133 1 6.36915 -12.8364 5.96589 15
134 1 15.2764 5.82661 4.37514 11
135 1 4.87475 4.95287 -6.154 20
136 1 7.24449 -0.58496 13.4051 20
137 1 0.745098 10.1816 -11.8433 14
138 1 9.82487 0.155558 -12.3001 8
139 1 -8.52244 -2.87147 -6.6877 18
140 1 -3.35398 12.2075 -6.45218 20
141 1 -5.1084 12.3991 -3.17161 22
142 1 9.84438 -0.291727 8.72379 22
143 1 -2.14398 -4.98 -13.3606 19
144 1 -2.71957 10.2843 -12.8237 10
145 1 2.67303 8.00005 -11.7922 16
146 1 -5.51504 3.95897 6.97539 20
147 1 -9.53652 6.96011 10.6191 11
148 1 0.495199 -9.50786 -8.38852 22
149 1 -4.88806 -13.4085 2.1985 15
150 1 8.9362 -14.7648 1.43297 12
151 1 8.37745 10.087 -7.19289 16
152 1 -0.126312 10.3166 -2.9798 20
153 1 -12.4174 1.2101 1.91491 19
154 1 5.03473 6.74109 8.96811 19
155 1 10.6361 4.61295 -8.06354 18
156 1 2.06957 6.6639 6.96584 21
157 1 -8.55123 4.70013 4.50704 18
158 1 -7.92223 -6.57554 -5.44739 18
159 1 7.75084 3.42924 -13.3544 11
160 1 3.63645 -1.74011 8.21136 24
161 1 7.93127 9.02238 -10.089 10
162 1 2.17033 -10.8075 -2.70691 19
163 1 -3.07734 1.07224 -10.0014 22
164 1 8.34529 -2.13435 -8.007 21
165 1 -11.3371 -2.53025 5.58334 17
166 1 3.31727 -16.4267 -0.763836 8
167 1 -10.172 -5.16098 -6.39544 16
168 1 7.00682 15.617 -0.067321 11
169 1 3.60816 -0.681421 -11.2965 22
170 1 6.39813 2.0784 15.2546 12
171 1 14.251 2.14795 -0.0330336 17
172 1 12.2158 -7.06426 -8.83076 8
173 1 -4.6833 -4.99473 -11.9171 18
174 1 -8.2912 -3.99403 -10.0773 14
175 1 8.20188 -3.41825 14.2991 10
176 1 5.5256 -3.99215 8.54171 21
177 1 -2.564 -7.78215 -11.216 20
178 1 2.73999 -4.03465 6.69187 19
179 1 3.33168 11.3181 -11.6423 12
180 1 7.44818 7.11247 0.0121825 21
181 1 -5.21852 -7.10088 3.65237 17
182 1 3.09175 13.3474 2.89799 20
183 1 -5.54157 -3.74083 13.4555 15
184 1 -5.91422 -9.69687 -10.1036 13
185 1 -6.03195 -4.24882 -8.53116 22
186 1 -4.21809 -10.4664 -5.90135 19
187 1 -4.84808 -9.93599 2.20515 19
188 1 11.3817 5.13048 2.10793 18
189 1 -6.43483 -7.59665 13.038 10
190 1 -3.31344 -9.64421 -3.59819 22
191 1 -0.499026 -9.40942 1.55759 20
192 1 1.46866 12.3938 0.404493 20
193 1 4.09228 -0.171843 -14.7263 16
194 1 -4.50008 -3.54332 -15.1523 11
195 1 0.40994 -12.089 -0.132465 23
196 1 -1.27419 -11.6717 -6.48567 17
197 1 -8.49031 3.42631 -13.8464 8
198 1 9.19327 4.2572 4.99723 19
199 1 -5.52897 4.37593 -13.1428 19
200 1 0.893759 8.18345 -8.79435 17
201 1 -5.20341 -1.79777 7.0796 18
202 1 -3.66281 14.9177 -2.06363 16
203 1 4.07271 12.6524 6.00783 17
204 1 10.9973 1.49019 5.97769 20
205 1 -9.30335 1.07767 3.6136 23
206 1 -0.166021 -7.74518 12.8389 15
207 1 -8.44021 9.26466 4.75381 14
208 1 0.182637 -4.605 -14.9842 14
209 1 2.77737 -10.0084 0.21687 23
210 1 0.359718 1.16361 12.2105 18
211 1 -12.6816 -5.45975 5.91924 14
212 1 14.8555 -1.1227 -1.23328 17
213 1 5.26739 -6.37874 -10.0754 20
214 1 8.59696 -12.9495 -1.80091 18
215 1 -8.7621 11.1407 -3.8098 20
216 1 10.7534 8.11759 8.84903 16
217 1 -8.29364 -1.76528 1.85235 18
218 1 9.05613 -15.7747 -2.27579 8
219 1 -2.92332 9.34263 2.13729 20
220 1 -3.22516 6.36566 7.37756 22
221 1 7.06707 -10.8756 8.73716 11
222 1 16.9037 -2.68735 3.3609 11
223 1 -0.609469 6.80964 11.7359 20
224 1 -5.53318 -3.8365 -4.99908 22
225 1 0.775767 0.114079 15.6142 11
226 1 -2.96018 12.3583 3.92778 20
227 1 -7.24716 1.36197 11.7116 15
228 1 -11.3467 5.39391 5.70087 12
229 1 -3.17916 -4.23443 -6.55743 23
230 1 -4.10373 11.4719 0.893488 18
231 1 9.15906 -1.2339 5.15117 22
232 1 -7.88248 -13.0792 3.63279 9
233 1 9.22391 -8.65636 7.65157 11
234 1 -6.5607 10.7366 0.883129 20
235 1 0.186418 -4.70902 11.5612 20
236 1 0.95142 -11.8884 -10.5382 12
237 1 -5.29323 -1.21193 -10.2648 20
238 1 5.20121 -3.13875 -14.6046 16
239 1 7.62669 12.9231 5.43212 18
240 1 -11.0631 -2.91398 -3.1535 22
241 1 3.1785 -4.83364 -15.564 15
242 1 0.793323 -13.5439 -7.50596 15
243 1 -14.709 -3.99918 -2.40296 15
244 1 -6.0239 -12.6345 -0.428154 18
245 1 15.8728 5.07259 -1.43478 13
246 1 -5.49765 3.45576 -10.1165 24
247 1 -13.978 -1.703 -5.11126 13
248 1 -5.43421 7.75565 5.40269 18
249 1 -10.1803 14.7778 -0.582513 8
250 1 -5.85586 6.78055 8.92105 21
251 1 11.8463 -0.580181 -3.06855 18
252 1 17.3911 -2.04426 -6.39247 12
253 1 0.742494 -6.75175 -6.49633 19
254 1 -1.06515 6.21955 5.6593 19
255 1 -8.69019 1.42426 -6.56014 18
256 1 5.85902 -9.05953 -1.38014 18
257 1 12.7928 -0.2245 9.36943 10
258 1 -10.3565 -0.708205 -5.64608 18
259 1 -8.05132 -7.32766 2.53304 18
260 1 -0.65786 10.3179 0.319783 23
261 1 -9.71244 -10.7651 -5.59915 8
262 1 -12.9457 5.98907 -5.17619 16
263 1 1.79196 18.1263 -5.46198 6
264 1 7.58886 12.6957 8.92361 12
265 1 -13.8148 -7.29849 -2.22046 12
266 1 -1.67782 -7.10141 -8.40759 20
267 1 -11.3094 2.43784 8.50557 15
268 1 -14.7322 5.11144 -2.47396 13
269 1 8.98614 -7.04886 5.23487 20
270 1 -2.61912 -13.601 -0.348945 17
271 1 2.96814 9.09661 -14.7285 9
272 1 -10.8783 3.61634 -6.53276 16
273 1 -0.455915 -10.753 4.42746 18
274 1 12.7586 4.33344 5.01673 18
275 1 -2.43806 -1.70778 8.33544 22
276 1 -14.2895 3.46063 0.637067 16
277 1 -6.61254 1.59343 5.38618 19
278 1 -3.2885 -11.1132 4.88585 20
279 1 9.90164 -9.95147 -7.67356 9
280 1 -12.5672 0.695267 5.91683 16
281 1 -0.180169 -4.35475 8.49889 21
282 1 8.77373 -12.7975 -4.73343 14
283 1 4.24926 -11.0237 -12.0268 9
284 1 -2.79689 -4.65818 9.75924 16
285 1 3.67822 -7.52376 -4.92393 17
286 1 -2.12123 4.70941 -15.1279 14
287 1 6.34325 -14.3668 3.2891 16
288 1 4.79133 10.9613 -2.49011 17
289 1 -2.64358 -2.24661 14.914 11
290 1 -8.22104 -7.71275 10.0907 12
291 1 8.41427 -4.66226 9.94912 16
292 1 4.99389 1.87359 -8.03535 20
293 1 7.97571 -3.5722 0.479393 20
294 1 13.8332 7.4849 -6.18685 12
295 1 0.852209 3.65894 10.5403 15
296 1 -0.354127 14.4857 -1.37129 17
297 1 6.3375 -6.1667 3.79443 20
298 1 -0.7679 -15.0622 -1.69734 14
299 1 -4.26661 12.7618 6.28458 11
300 1 -4.87232 -12.8409 -8.85979 14
301 1 7.73777 7.3487 6.95582 20
302 1 -6.11399 0.788094 8.58646 18
303 1 -5.24591 -6.5919 -3.30233 21
304 1 -10.3445 4.7334 8.28647 17
305 1 -6.85598 -10.7377 -7.47793 14
306 1 -8.13672 9.22438 8.11766 9
307 1 -1.92282 -13.2752 -9.95975 15
308 1 -0.225751 -7.36721 -13.1272 14
309 1 -8.70549 -9.69993 0.234505 17
310 1 -8.24263 -1.32115 4.97068 20
311 1 12.4206 -1.08357 6.49487 18
312 1 -2.42622 -5.23546 13.088 15
313 1 -6.46548 6.56545 -12.1762 16
314 1 9.00429 4.2529 -1.40173 19
315 1 -7.53581 -14.3243 -2.78039 10
316 1 0.825714 16.1533 1.02654 10
317 1 1.8369 6.15301 -6.39518 21
318 1 1.86798 8.26602 12.9166 12
319 1 -13.9202 -2.01656 -0.935873 17
320 1 6.95109 12.2789 -4.48113 16
321 1 -7.49163 -7.16629 -8.45341 18
322 1 0.152839 -14.6955 -5.14644 11
323 1 2.05993 -2.24947 -14.2006 17
324 1 -11.6223 11.5444 1.15131 12
325 1 4.05118 5.47979 13.0359 10
326 1 7.52239 6.75459 -3.06401 21
327 1 4.36405 7.92138 1.86149 23
328 1 -6.79872 11.5829 -6.96233 14
329 1 2.87419 4.46359 -8.32158 18
330 1 3.73937 -7.10216 5.18423 22
331 1 -16.3006 -3.03381 0.750308 10
332 1 -3.80401 3.13522 -17.861 8
333 1 12.0463 5.54308 -3.71238 14
334 1 6.42678 -6.59779 0.638236 20
335 1 17.457 1.37836 -6.52812 11
336 1 -0.554047 0.326231 -11.6603 20
337 1 -2.5727 -7.435 2.03411 20
338 1 2.89124 -13.34 -0.315575 17
339 1 4.59755 -9.91395 9.64159 12
340 1 -7.74098 6.76353 -6.51631 20
341 1 -3.95343 -11.0318 -12.0001 12
342 1 2.64402 4.73659 -11.3904 16
343 1 0.729499 -1.88438 13.6829 16
344 1 -11.0763 -1.30058 2.90671 18
345 1 10.8273 -4.71048 -8.4572 17
346 1 13.7437 0.959594 -3.93537 12
347 1 -6.88744 7.66039 -3.98185 19
348 1 2.96616 -8.08837 -8.05151 16
349 1 5.07558 5.37951 -10.2093 14
350 1 13.4386 -5.05184 -2.3873 18
351 1 -3.40034 1.01334 10.3273 20
352 1 6.45357 13.7285 2.53911 18
353 1 -0.431629 2.10289 -16.6079 11
354 1 -9.01186 -3.5995 6.73317 17
355 1 -5.33469 16.8416 0.435226 7
356 1 -7.51456 -4.60476 -13.4087 10
357 1 -14.9312 2.06663 3.66905 15
358 1 -2.68451 -11.0359 9.61495 14
359 1 1.97876 11.6594 -4.04395 18
360 1 16.9119 2.74453 -3.28748 14
361 1 -10.9408 -10.0618 1.85207 12
362 1 -0.329599 -9.31657 -1.58801 20
363 1 -8.23201 6.70791 7.2885 20
364 1 3.02388 -1.72862 -7.90258 19
365 1 9.64735 -8.18714 -3.9572 18
366 1 1.9445 15.14 -7.26349 11
367 1 5.48408 -9.00858 2.69427 22
368 1 -9.05779 2.86686 6.56575 21
369 1 6.60539 9.30004 9.13274 18
370 1 0.266356 3.22624 -13.5928 17
371 1 -4.4964 -7.5089 -6.86028 20
372 1 3.04868 -4.65976 9.8396 21
373 1 10.1755 11.5843 7.00302 10
374 1 7.81522 4.14083 -7.76835 21
375 1 -5.88954 9.75498 -4.7176 23
376 1 2.20519 15.8049 -3.68426 14
377 1 11.1069 -3.03979 9.25346 12
378 1 11.8903 -0.237267 -6.22881 17
379 1 -14.2222 -5.47222 0.202373 14
380 1 -0.59865 0.898687 8.72498 26
381 1 -0.287827 9.83783 -5.92848 19
382 1 6.29166 -13.9955 -3.9077 14
383 1 5.41999 -3.48317 -8.15467 23
384 1 -1.12451 16.421 -4.2552 12
385 1 -5.10354 -7.5807 -12.7673 16
386 1 3.43396 -14.4528 4.87577 13
387 1 -11.4869 -5.02826 -0.689505 19
388 1 -10.7008 -4.77262 8.26046 12
389 1 4.88807 7.52195 -1.38143 21
390 1 6.93929 -8.11847 -4.85714 18
391 1 2.70757 -4.15684 12.4057 18
392 1 9.01599 4.12118 -4.56561 20
393 1 -9.34987 8.99319 -1.45359 16
394 1 12.7417 -8.24857 -2.84375 15
395 1 5.26946 7.72679 12.5755 14
396 1 -3.24893 5.52543 -10.3539 19
397 1 6.22884 15.8673 7.93011 4
398 1 10.612 1.96163 -8.14831 19
399 1 1.804 0.752973 -12.834 16
400 1 -3.91537 -14.6714 -3.2002 12
401 1 -8.57931 4.93629 -10.8707 15
402 1 14.6327 4.32175 2.07904 17
403 1 17.3741 4.38995 -6.09524 10
404 1 6.58381 -10.0829 -9.57429 13
405 1 7.89541 -10.2355 -3.40352 18
406 1 9.20418 14.1757 2.22704 10
407 1 -8.17617 3.96758 1.7642 19
408 1 15.596 5.77741 -4.57081 14
409 1 17.6619 0.064065 4.71954 9
410 1 13.3124 2.58672 -9.78278 13
411 1 10.3027 6.7525 12.2756 12
412 1 3.79915 -7.44854 8.5463 21
413 1 3.73984 0.0981759 15.4574 14
414 1 16.2771 -4.71989 -4.282 11
415 1 11.2329 0.939459 11.9443 14
416 1 -7.62755 -0.687983 -8.50128 22
417 1 17.3271 2.15418 -0.33127 16
418 1 11.9991 -2.74496 -1.10611 18
419 1 10.7815 -1.65016 14.446 7
420 1 3.37393 9.14774 8.09786 22
421 1 8.22681 2.16327 7.39218 22
422 1 -6.80975 10.5242 -2.24963 19
423 1 11.5717 10.2463 -5.80604 10
424 1 10.4046 -5.2922 -11.4095 8
425 1 5.85754 15.2308 -3.26983 12
426 1 2.32546 -10.8482 -6.15291 17
427 1 -14.0335 5.24196 3.25704 14
428 1 -5.47637 5.22544 -16.106 9
429 1 -1.92324 -11.6559 1.84823 21
430 1 -4.59446 -0.55972 -13.4753 17
431 1 -11.7428 0.536327 -8.07987 13
432 1 14.0168 -2.1739 1.46651 21
433 1 12.8157 8.19722 3.49107 17
434 1 0.896884 -7.10358 9.34488 22
435 1 -7.63211 -1.59507 -11.7763 14
436 1 -2.4884 3.9384 15.2609 11
437 1 5.45743 10.7859 -8.84565 12
438 1 9.99323 7.25191 -8.7567 16
439 1 3.49782 -11.2706 -8.80597 15
440 1 12.7442 2.00323 2.60619 19
441 1 11.7504 11.3711 2.90033 12
442 1 17.551 -1.60015 0.264987 16
443 1 -5.43433 3.85728 10.6726 18
444 1 -11.2788 -7.4227 0.664236 21
445 1 -4.85243 -1.64735 -6.67851 19
446 1 8.10279 1.3654 10.7066 20
447 1 -0.676882 -9.25765 10.3825 15
448 1 6.4242 4.06379 9.96716 19
449 1 -6.39402 13.636 3.05006 16
450 1 12.521 5.94357 -0.778611 16
451 1 7.44573 6.91547 3.19314 20
452 1 2.26101 0.355496 -17.6494 7
453 1 -9.67952 0.203382 7.09404 19
454 1 8.60861 -2.6571 -10.7427 18
455 1 11.9059 -8.70335 -5.87873 10
456 1 9.56979 4.70443 8.12427 21
457 1 6.33736 4.6738 6.64322 21
458 1 17.6522 4.74405 2.40827 11
459 1 2.60257 -2.31867 17.0195 9
460 1 -3.07043 5.36761 10.3823 19
461 1 -0.354831 -1.2554 -16.3285 11
462 1 -5.08591 -0.720719 13.1658 18
463 1 5.08134 1.07796 13.1876 17
464 1 13.6213 8.03316 -2.70601 15
465 1 5.1973 -10.5837 -4.00954 18
466 1 -5.40547 6.31002 -8.58032 22
467 1 5.28488 10.7097 3.65525 17
468 1 10.1356 11.221 0.148334 17
469 1 4.0624 13.3062 -4.00808 15
470 1 12.8723 9.88444 0.26107 12
471 1 -5.18183 -11.9506 -3.08338 20
472 1 6.60901 -1.21469 -12.7579 16
473 1 -6.1988 14.9245 -6.53714 10
474 1 5.88812 -8.46606 -12.7965 14
475 1 13.5803 5.85286 -9.13929 11
476 1 12.1411 11.4111 -2.61926 10
477 1 -8.93144 4.15667 -1.51207 19
478 1 4.38716 7.15896 -4.69878 23
479 1 0.586314 -12.3798 9.73006 10
480 1 -3.44171 7.13375 -13.4417 16
481 1 2.52568 10.3747 11.0676 15
482 1 5.33877 1.25562 9.29382 19
483 1 8.45252 14.9762 -3.48965 8
484 1 9.19393 11.7184 3.55913 19
485 1 15.1089 -6.44731 -1.22456 12
486 1 -10.2702 -8.12168 7.23715 11
487 1 4.09567 -15.8249 1.6952 12
488 1 0.613877 -1.29964 -9.68218 22
489 1 2.59502 9.55379 4.94544 19
490 1 -14.3082 -2.64194 6.02037 10
491 1 5.56747 -12.2591 -1.29814 17
492 1 6.92612 7.59653 -6.88881 19
493 1 5.69835 -3.41984 -10.9278 21
494 1 3.79487 -12.3029 7.69861 13
495 1 4.2912 16.4376 1.75835 10
496 1 -2.10794 0.82215 14.1835 16
497 1 -7.95871 -6.99692 -11.1555 13
498 1 6.10839 -6.1236 -6.62467 20
499 1 -1.84792 10.6992 7.85584 15
500 1 6.21972 -12.8961 -7.23288 12
501 1 5.58401 -8.78727 5.83828 20
502 1 1.99875 -13.9963 -3.07156 13
503 1 -7.55079 -4.82001 12.541 12
504 1 -5.74484 -13.8165 -5.96235 13
505 1 -10.0094 0.301606 10.7325 12
506 1 17.7173 -1.98829 -3.17926 12
507 1 -7.9679 4.15512 9.61666 23
508 1 -8.87817 7.10845 1.94398 15
509 1 12.1351 -0.445571 3.1647 20
510 1 -0.744969 6.88565 -4.2521 21
511 1 15.6683 -0.690051 -9.15138 9
512 1 9.91578 7.18725 -5.90333 18
513 1 -10.9324 2.77391 -9.83892 13
514 1 -12.0317 -9.66192 -4.27575 9
515 1 5.39887 7.09736 -12.4367 11
516 1 0.8546 -1.82899 10.3909 23
517 1 -3.42446 -4.14001 6.74405 20
518 1 4.02067 -5.02346 -12.7701 21
519 1 -6.94127 6.91113 -0.775394 18
520 1 9.01023 9.4858 5.24994 17
521 1 -9.32963 -4.37316 3.33258 20
522 1 8.15401 6.01258 -11.0918 11
523 1 0.692071 -15.2463 1.30466 14
524 1 3.99127 7.92898 -7.80744 17
525 1 -2.2527 1.17612 -14.283 21
526 1 2.73605 1.0361 10.0529 19
527 1 2.51092 5.7444 -14.3644 14
528 1 -8.42847 -4.223 -3.80338 21
529 1 8.82554 -0.769572 -1.0549 20
530 1 -5.12739 -7.41078 0.369238 21
531 1 16.4344 6.41225 -7.93228 9
532 1 9.28246 -6.69721 2.04352 17
533 1 -6.08334 6.64608 12.0521 13
534 1 7.60141 -10.8866 3.53392 18
535 1 19.1055 0.459206 -3.87049 9
536 1 13.8529 -3.14073 4.35519 16
537 1 -0.0833465 8.71686 7.30466 24
538 1 -8.42734 5.1594 12.5676 9
539 1 1.2018 -12.8003 6.2662 15
540 1 10.5531 2.30167 0.977477 18
541 1 8.25187 8.75073 11.6141 14
542 1 -15.5682 0.347975 0.781107 12
543 1 12.0177 -9.05493 -0.196844 12
544 1 4.38316 10.8041 1.00235 20
545 1 10.2458 3.55964 10.655 17
546 1 -0.76441 13.3873 6.52746 13
547 1 4.52437 -11.6872 4.38654 23
548 1 -8.32669 -1.58844 -1.41921 20
549 1 2.92972 2.98237 15.2275 9
550 1 3.32903 15.0451 -0.521654 13
551 1 -8.88233 -9.4657 4.03504 15
552 1 10.8149 -4.3978 6.00102 19
553 1 11.2387 -3.61935 2.33105 21
554 1 10.5708 6.93906 4.59034 19
555 1 2.685 -8.10512 -11.2108 18
556 1 -2.53687 3.0524 -12.2539 19
557 1 -2.19661 -1.22746 11.9063 20
558 1 -2.00713 14.2287 0.896889 16
559 1 16.2443 2.333 3.98244 16
560 1 1.96437 8.50133 -4.40569 21
561 1 -4.49 6.14031 15.0672 9
562 1 6.06706 10.3259 6.50943 21
563 1 7.43012 -5.19814 -12.831 14
564 1 -4.55874 -14.7988 4.72795 8
565 1 -2.23631 -1.4778 -8.13976 24
566 1 14.2007 1.66648 6.01248 14
567 1 5.83803 -0.70512 -9.59764 20
568 1 -2.41871 -7.28267 -5.24659 18
569 1 18.9025 1.36684 1.76657 12
570 1 3.18168 -5.63145 15.1768 8
571 1 -1.36905 -10.5951 -11.6968 14
572 1 9.52289 11.7404 -3.48531 16
573 1 -11.8169 3.07791 3.97054 18
574 1 14.1276 1.02188 -7.12397 18
575 1 5.88817 -6.32106 -15.0791 11
576 1 -9.23866 12.117 4.14962 9
577 1 3.43844 3.63024 -17.198 6
578 1 8.10623 -3.43989 -2.85234 18
579 1 -12.6262 -0.0421866 -2.97282 17
580 1 10.2848 8.26786 1.42959 20
581 1 -10.9618 -9.78905 -1.70257 14
582 1 7.92562 6.50599 10.0154 23
583 1 -8.44949 1.34958 -10.5093 18
584 1 -13.4734 3.48034 6.31729 12
585 1 -3.23125 3.64603 -7.56253 23
586 1 8.25619 -7.89462 -8.06428 15
587 1 -11.0634 -7.76391 -6.59526 11
588 1 12.8225 -5.71516 -5.71361 16
589 1 -13.8885 9.82855 -0.433737 10
590 1 -6.92386 -9.61678 -4.4673 18
591 1 -5.30823 -8.33956 6.0546 17
592 1 15.4395 -1.11449 6.31263 10
593 1 8.85552 -0.5568 2.29825 21
594 1 -11.3008 4.4335 0.943651 18
595 1 4.65231 11.8955 9.09526 15
596 1 2.43972 11.1683 -7.43754 16
597 1 -4.73849 9.79557 7.73639 16
598 1 9.45802 12.7243 -6.18538 11
599 1 6.05174 10.9378 11.7323 11
600 1 6.48579 -7.36739 9.75383 16
601 1 4.32911 13.6645 -10.2196 6
602 1 -8.03767 -4.79614 9.86061 14
603 1 -2.25677 -2.04696 -11.3006 19
604 1 -14.7999 2.14856 -2.36398 11
605 1 -1.93046 -12.8718 7.38128 16
606 1 8.38223 -3.7708 3.36248 20
607 1 -1.48977 -12.2483 -2.49266 21
608 1 -14.1273 8.30526 -3.32161 11
609 1 13.9858 -2.72379 -6.84872 14
610 1 -9.06576 9.95111 1.70258 19
611 1 -8.56819 -2.01687 9.18928 15
612 1 -5.00596 -7.00525 -9.76503 22
613 1 -0.425765 -9.36162 -4.93179 17
614 1 8.11828 -10.8704 0.621079 18
615 1 -0.967673 7.74926 -11.7763 19
616 1 15.876 3.08486 -8.56297 12
617 1 8.0699 4.15937 1.65313 20
618 1 11.8116 -0.388148 0.293553 22
619 1 -0.584119 7.87894 -14.808 11
620 1 -2.4223 -7.41626 8.36612 24
621 1 7.34829 9.75455 -1.36886 21
622 1 7.83667 1.24907 -6.37084 19
623 1 -11.6686 3.60754 -3.19151 21
624 1 -5.95914 -9.55478 10.3649 13
625 1 4.99714 7.46998 5.32161 23
626 1 -0.624052 -13.6093 4.3595 16
627 1 2.20505 9.60521 -0.948299 22
628 1 -3.19728 7.82303 13.0681 11
629 1 -5.28559 -1.59332 10.2763 19
630 1 11.0654 2.17501 -1.80054 20
631 1 -3.17139 -8.66249 11.7975 15
632 1 4.86765 -11.8427 1.76548 19
633 1 8.58877 2.31673 13.5357 11
634 1 10.8443 -2.89341 -5.73841 20
635 1 -5.68575 1.64507 -11.718 20
636 1 -4.4024 8.49951 -10.7383 18
637 1 -12.3135 7.06758 -1.43937 20
638 1 7.31316 9.72898 2.24461 21
639 1 -0.340483 6.06079 8.77427 23
640 1 -9.21869 -12.7094 0.187514 12
641 1 -4.06324 9.39185 -1.40081 22
642 1 12.3168 5.45177 10.0218 12
643 1 -2.52602 -8.09524 5.15403 17
644 1 7.8245 -4.84824 -8.98767 20
645 1 10.2765 -11.0031 -2.23775 15
646 1 4.65979 2.30921 -10.6403 18
647 1 -5.29141 1.98641 -15.3384 16
648 1 -8.14163 -6.77707 -1.67755 18
649 1 -9.84042 6.53426 -3.58242 16
650 1 -4.64946 2.49685 13.7957 16
651 1 8.57677 -3.00761 7.13465 19
652 1 -8.30453 -6.48087 6.19348 19
653 1 15.7028 0.390723 2.06931 22
654 1 -0.467638 4.54355 -9.86228 17
655 1 14.6173 6.94575 0.901326 15
656 2 -7.50191 1.74337 -8.3706 20
657 2 -3.51763 12.7812 -4.6201 21
658 2 2.6429 -1.1544 -12.9163 18
659 2 -4.90395 6.87878 13.6 9
660 2 -4.75822 -11.4662 -10.1545 15
661 2 2.93901 4.29807 14.0552 10
662 2 -12.9393 -5.86237 3.362 15
663 2 -11.9249 6.96408 -6.94659 10
664 2 5.534 15.8418 6.27917 9
665 2 -11.2623 1.08482 3.3627 18
666 2 7.82515 5.00531 3.52352 21
667 2 -11.7706 -6.32709 -5.69955 16
668 2 -8.42555 1.94949 -1.60513 20
669 2 -0.348248 -6.7965 5.26899 20
670 2 3.6984 1.93921 8.3161 21
671 2 6.01392 -4.69869 -9.34252 23
672 2 4.44465 -14.9383 3.38438 16
673 2 -5.36093 10.4174 -0.409761 21
674 2 -10.9264 0.63869 -10.0833 13
675 2 10.9236 5.1247 4.6317 18
676 2 8.73905 -14.3091 -3.44389 11
677 2 -8.25209 -12.7188 1.70623 12
678 2 -11.2484 -4.10707 6.69945 15
679 2 -1.83753 -12.0619 3.64215 21
680 2 9.12271 -3.22131 5.14691 19
681 2 0.0915703 -14.0969 -3.09101 15
682 2 4.59812 -0.906462 13.3437 16
683 2 -1.60757 15.0748 -5.9381 15
684 2 -10.0973 -10.2521 -3.48408 12
685 2 -0.860702 5.03024 14.9112 11
686 2 -8.60016 10.889 0.0362495 18
687 2 -2.43494 2.66256 13.8712 14
688 2 -4.9569 10.3811 -3.08948 21
689 2 9.69926 -12.0742 -0.516604 17
690 2 0.110095 6.69232 7.05226 19
691 2 0.317452 14.0943 -7.77234 11
692 2 5.37818 -6.9619 -5.22541 17
693 2 3.95299 -4.67666 -10.8963 17
694 2 7.93095 -0.908588 -6.37473 21
695 2 -2.67791 7.07344 14.6707 11
696 2 1.67559 4.46058 -12.9025 17
697 2 -0.869917 9.35052 -13.1348 12
698 2 8.77455 7.82914 -4.3377 18
699 2 -3.72136 -3.76233 14.1725 13
700 2 -12.4587 10.0012 1.04494 11
701 2 10.8907 0.150202 -8.06067 20
702 2 3.01982 -11.4071 -10.7564 13
703 2 -15.0676 -4.51795 1.96638 13
704 2 11.1356 10.2589 1.34332 16
705 2 -2.93567 7.3538 5.48422 22
706 2 -2.71837 -10.7539 -7.12297 21
707 2 -3.4981 11.3847 7.3051 15
708 2 6.59101 -9.17694 9.30449 13
709 2 10.3501 -5.38278 2.36431 19
710 2 -11.7344 5.70553 -0.208149 18
711 2 15.0008 -5.0301 0.233436 13
712 2 8.60461 -15.7729 -0.596263 9
713 2 8.41009 7.78966 4.60331 19
714 2 6.15704 -12.4273 3.37613 19
715 2 16.7518 -1.61391 4.71943 10
716 2 -3.311 -1.01187 13.6686 17
717 2 14.5027 -4.32093 -5.44669 14
718 2 2.51203 4.7372 10.0195 18
719 2 12.1621 7.90776 5.88937 15
720 2 -7.79211 6.61813 11.2842 13
721 2 5.57634 6.84517 3.31007 21
722 2 16.5475 -2.14991 -1.17043 16
723 2 2.15143 6.94494 -7.94188 17
724 2 -7.63978 -3.1917 -8.44294 20
725 2 -5.69419 1.5317 10.3251 17
726 2 8.45819 2.37937 -7.87863 18
727 2 -9.80031 4.47165 -3.43258 17
728 2 -13.7105 2.07466 5.04856 15
729 2 -10.8333 -9.14288 0.103785 13
730 2 17.6813 1.50563 3.17508 13
731 2 0.5978 -4.01011 6.5963 20
732 2 0.0478785 -0.834395 11.9914 21
733 2 5.72761 -3.85452 -12.802 20
734 2 10.4908 5.42513 11.2142 15
735 2 -2.21901 6.25996 8.83378 19
736 2 -8.21986 2.19625 2.13122 24
737 2 3.55257 -7.23415 -9.81502 16
738 2 11.6152 6.25665 -8.38496 15
739 2 -8.27123 13.9534 3.18594 10
740 2 -2.61814 -9.09448 -1.66648 21
741 2 7.88086 -6.66958 -6.57044 16
742 2 2.12783 4.50893 6.83794 21
743 2 9.8813 -9.20222 -5.83353 18
744 2 5.4487 -0.800483 8.91928 20
745 2 -3.59292 -7.5502 6.76741 18
746 2 8.24792 2.19268 1.94305 19
747 2 -9.04593 -8.47724 5.8738 14
748 2 11.7126 3.68851 -9.6855 14
749 2 -1.61524 -11.6847 -0.102841 21
750 2 12.1729 -5.88518 -7.39116 13
751 2 2.59075 -12.8373 -7.82937 14
752 2 11.91 -3.23691 0.689233 20
753 2 -7.5954 10.9851 4.22735 15
754 2 17.3254 -3.13491 -4.61274 9
755 2 -5.89515 -6.48397 -7.71902 19
756 2 -9.23772 -8.8848 2.16824 16
757 2 -4.61162 -9.25452 0.285749 18
758 2 -4.9978 -7.36556 -1.60396 19
759 2 -1.8358 13.4439 2.9425 14
760 2 -10.7629 12.8726 0.0277218 11
761 2 14.6669 7.04689 -7.68761 10
762 2 3.92307 6.64192 -11.3269 16
763 2 -5.57485 -2.13761 12.0189 16
764 2 -4.16294 1.25512 -14.0148 17
765 2 -12.0402 3.11646 1.97928 21
766 2 -3.27418 3.12566 10.6245 18
767 2 -9.31622 3.20522 8.49159 18
768 2 8.20682 13.6361 3.84106 13
769 2 15.4074 -1.94673 -7.81911 10
770 2 12.9884 -4.77211 4.65308 13
771 2 -7.3375 -3.08355 13.8618 9
772 2 -0.263108 9.16534 1.67503 20
773 2 -8.42152 11.6902 -5.81822 15
774 2 -4.95572 9.63689 5.69094 21
775 2 13.9808 -2.40863 5.92935 14
776 2 -6.84548 -8.20028 -9.97999 16
777 2 3.1856 4.26401 -15.5208 9
778 2 13.4106 5.35225 0.81064 18
779 2 -9.70423 -6.44091 7.90938 16
780 2 0.162552 9.10112 -0.930829 23
781 2 -4.42589 14.5242 -6.62414 12
782 2 6.79552 14.1969 -4.14065 12
783 2 9.82417 2.1674 11.9726 16
784 2 -3.38497 4.23901 7.19172 23
785 2 13.2294 -6.91612 -1.63616 15
786 2 -0.252657 0.376622 14.0628 14
787 2 3.55642 -3.61127 8.28744 22
788 2 -13.97 3.50103 -3.24617 13
789 2 -3.59349 -6.48227 -12.1458 17
790 2 5.27201 -13.9429 -5.58705 11
791 2 7.22048 -2.02742 -9.53237 19
792 2 18.0345 1.78131 -2.52117 12
793 2 -5.6298 1.15976 13.0493 17
794 2 8.68498 1.43108 -13.4398 10
795 2 -5.16749 -8.4019 11.9906 13
796 2 -2.03835 2.70177 -17.1596 11
797 2 5.6908 -12.1188 -3.1099 18
798 2 5.98129 -10.2745 1.14323 18
799 2 12.4257 8.69735 -6.15026 11
800 2 -6.61232 3.35748 -14.5606 13
801 2 -0.0507418 11.799 7.32791 14
802 2 -7.12803 -2.91266 -2.80599 18
803 2 -6.40101 5.48028 -7.19234 20
804 2 3.04126 10.1269 -4.98231 21
805 2 2.47177 10.8849 -2.2948 20
806 2 -6.06503 -13.884 3.9048 9
807 2 15.9651 0.963791 5.55756 12
808 2 -0.337249 4.12119 11.9459 20
809 2 -7.19868 -13.8088 -4.61371 11
810 2 9.52359 -9.06504 -1.99872 21
811 2 1.95122 1.46031 15.7292 9
812 2 7.23346 14.3849 8.34827 8
813 2 11.7392 -2.95531 -7.53621 17
814 2 4.617 1.89427 15.279 11
815 2 9.96934 10.9392 -6.64066 13
816 2 -9.02912 -0.0695858 8.93355 17
817 2 10.8438 0.283408 1.83216 22
818 2 5.4582 15.5629 2.93211 12
819 2 5.7661 6.54842 7.05352 24
820 2 -4.49442 1.45611 -17.0982 10
821 2 6.94004 -5.36164 10.8591 9
822 2 -8.82713 15.1879 0.854715 13
823 2 1.24639 -8.35247 7.62864 20
824 2 11.4028 -7.84666 3.68744 14
825 2 -8.17794 -13.1719 -1.44298 11
826 2 -7.21818 13.2945 -7.74928 9
827 2 -4.78091 -9.03469 -11.4349 16
828 2 -1.22909 -13.6107 -6.18704 13
829 2 0.363164 0.837241 -9.79851 22
830 2 -3.39479 -8.12232 -9.31371 23
831 2 8.5653 12.4679 7.12232 14
832 2 -11.4415 -4.8196 -2.72784 19
833 2 -9.82215 3.54141 0.285333 15
834 2 8.08249 -2.49495 1.99045 18
835 2 -8.55185 5.65826 2.95091 17
836 2 -1.60428 -15.1392 0.24112 14
837 2 -4.43884 4.26028 14.8267 8
838 2 4.47364 3.78062 -9.11049 17
839 2 -3.30709 -0.996159 -9.69956 20
840 2 6.36914 6.37799 -11.0919 12
841 2 18.415 0.376281 0.186702 12
842 2 -5.01737 -4.90401 -9.97027 23
843 2 -13.2802 10.0589 -2.323 10
844 2 -7.22385 12.0253 -3.27948 17
845 2 -3.03771 -1.86654 10.043 19
846 2 -10.4757 -3.31778 -6.56107 15
847 2 3.22712 -3.71108 -7.70996 19
848 2 5.05822 -1.63916 -7.92961 21
849 2 7.99214 10.3574 3.88017 21
850 2 4.25152 -9.15929 7.43348 19
851 2 2.52453 -1.7182 -9.67631 23
852 2 11.4076 -0.682879 12.9623 9
853 2 9.55916 1.64599 -10.7078 15
854 2 -0.40945 -7.53137 -5.1455 19
855 2 1.75326 11.4972 -10.1997 14
856 2 7.1054 11.0443 10.0101 13
857 2 12.964 4.22924 3.16034 21
858 2 -12.8451 -1.11727 5.5048 15
859 2 -14.8507 3.7321 2.45571 15
860 2 0.784338 -10.63 5.91276 17
861 2 -0.722582 3.80694 -8.08814 19
862 2 -3.06267 -6.93175 3.76372 20
863 2 -5.23118 6.59917 3.8784 19
864 2 -9.22873 -3.72756 8.78515 12
865 2 3.64681 -9.31195 4.73897 18
866 2 -10.1408 10.4961 -2.83858 15
867 2 6.5668 -6.79493 -13.3561 11
868 2 -14.6766 -2.56627 4.33901 15
869 2 6.98762 -2.92162 12.9415 16
870 2 -8.04835 -8.5971 -1.01387 22
871 2 -6.27188 -6.57556 1.89824 21
872 2 10.1198 -4.15841 8.08773 14
873 2 7.73148 11.4726 -6.02296 15
874 2 8.15237 7.82668 1.47927 18