ITEM: TIMESTEP
0
ITEM: NUMBER OF ATOMS
1000
ITEM: BOX BOUNDS pp pp pp
-30.0 30.0
-30.0 30.0
-30.0 30.0
ITEM: ATOMS id type x y z Coordination
1 1 -2.8413 -9.69557 -10.0249 12
2 1 4.66919 -10.1379 9.31266 10
3 1 -8.58654 9.57786 -1.17026 13
4 1 -9.21162 3.27168 -10.7162 14
5 1 -2.15436 -7.33806 12.3366 11
6 1 -7.20505 1.44417 -9.59787 19
7 1 -2.34392 -11.4004 5.07951 16
8 1 7.6948 -1.02281 5.67002 18
9 1 -1.14418 3.58561 10.317 19
10 1 9.76407 0.903201 4.18723 12
11 1 -2.87325 9.35651 -11.3938 14
12 1 -1.07902 0.765239 12.2276 17
13 1 -9.5339 0.780069 0.468904 20
14 1 -2.83003 -1.91077 -7.67052 21
15 1 1.59892 1.63488 7.24428 20
16 1 -2.44418 3.59913 13.5749 15
17 1 -2.33676 -11.1069 8.43494 11
18 1 -11.7853 -0.393656 2.50674 18
19 1 -9.39835 2.77133 -1.95596 17
20 1 -3.95599 14.5261 -3.85211 9
21 1 -0.0871681 4.66981 -9.7561 18
22 1 2.46981 -3.04233 -13.5337 18
23 1 -3.24167 -1.9653 12.3536 17
24 1 -10.2233 5.65967 -0.939398 13
25 1 -1.92697 14.4625 -0.914701 12
26 1 0.922 -14.3885 3.64398 9
27 1 6.56307 -5.24007 -5.84442 18
28 1 4.50346 0.910713 5.54386 21
29 1 -3.21958 6.28387 -6.07657 20
30 1 2.05702 6.35146 -3.25946 18
31 1 2.93121 4.89185 7.9161 19
32 1 -9.28269 -1.49994 2.89121 21
33 1 2.63328 -1.51556 12.0129 13
34 1 -10.7424 -2.60304 0.335747 19
35 1 10.3333 2.82837 7.87242 12
36 1 7.41272 0.915402 -6.54609 17
37 1 4.10331 0.475909 8.60295 19
38 1 -7.04148 -3.33585 0.362305 20
39 1 -3.01457 -6.30971 -11.4336 11
40 1 -7.78549 12.6396 -1.28001 10
41 1 -2.89952 6.29841 -9.63943 22
42 1 5.26379 -0.867891 -9.66788 22
43 1 9.61284 -7.48859 7.56359 9
44 1 2.77854 -9.39995 11.2708 10
45 1 -4.5548 8.05582 8.46112 18
46 1 -6.72317 -4.652 8.85615 15
47 1 -12.3147 3.067 7.68391 13
48 1 6.13051 -6.31045 -2.87944 16
49 1 2.55574 1.20989 -12.6939 16
50 1 -0.370015 13.5268 3.74601 11
51 1 -6.8579 9.49238 -6.19255 9
52 1 2.11202 9.51277 1.89666 13
53 1 -6.80909 -7.50282 8.18778 14
54 1 -4.15805 -4.39168 -9.03495 18
55 1 2.25199 -5.16282 -9.05555 18
56 1 -2.86105 5.42456 8.49191 18
57 1 -9.54193 -7.95161 -3.44107 13
58 1 7.69154 -3.67806 3.78378 21
59 1 -7.55536 -8.89206 -1.01313 16
60 1 10.0418 -9.55571 4.80886 13
61 1 -4.90283 7.29139 3.51444 16
62 1 -0.278402 7.85402 -10.3107 19
63 1 12.4412 -8.16891 -0.67168 9
64 1 -9.80362 -8.02027 1.0574 14
65 1 10.2979 6.47987 3.73398 15
66 1 7.0311 8.46587 0.17545 18
67 1 -4.12526 11.5399 -5.57863 12
68 1 0.811859 -6.51853 -12.6681 7
69 1 -1.33361 10.1493 -6.67676 14
70 1 8.26813 -2.50221 -6.42525 19
71 1 5.00942 2.67563 -12.5327 14
72 1 7.47013 -9.94736 6.29173 14
73 1 -5.30269 3.65414 -10.4548 21
74 1 1.80785 12.1986 -2.0783 17
75 1 10.4265 9.44146 -2.90813 11
76 1 -0.461705 10.5824 -0.574982 15
77 1 -5.30039 -7.31557 -9.45441 13
78 1 -11.6991 -3.8812 -5.75222 9
79 1 -6.54053 9.96109 9.10979 13
80 1 0.0671876 10.7851 -4.09522 15
81 1 3.43288 -5.12511 11.6863 12
82 1 -12.0085 -5.81335 5.88758 10
83 1 -1.0038 -9.85264 2.53447 18
84 1 2.71911 9.12382 -1.20461 15
85 1 8.85175 6.83813 -4.92073 20
86 1 -3.34059 -8.02216 9.0171 20
87 1 -7.25844 5.02106 -1.39183 21
88 1 -0.822335 6.39365 12.63 13
89 1 -3.96799 0.451475 -8.87647 17
90 1 -5.46076 -3.50017 6.33201 20
91 1 -7.38502 -8.86426 5.49028 16
92 1 6.44306 -5.83354 1.52484 16
93 1 -5.84911 11.7636 7.28481 10
94 1 -9.58026 1.47782 3.76529 25
95 1 -8.8923 0.258976 -3.09687 19
96 1 1.67781 -12.3013 1.0059 17
97 1 5.93267 3.94572 -2.93571 20
98 1 2.80375 1.66821 13.3035 13
99 1 -2.31621 3.61723 -12.2882 18
100 1 -9.74229 -2.00001 -8.25262 12
101 1 -6.61179 13.5644 -3.89049 9
102 1 5.54312 4.99435 10.1996 15
103 1 -4.0044 9.01891 -7.71293 18
104 1 3.03841 6.24996 -10.0507 19
105 1 -9.67725 4.22313 9.4406 17
106 1 -7.8566 6.67006 8.96455 16
107 1 2.71738 -9.08923 -6.30023 17
108 1 6.18776 -7.93399 -0.332356 16
109 1 4.99418 6.41706 -4.77758 20
110 1 -2.14074 12.0773 2.11446 18
111 1 -11.8324 2.83029 1.74363 14
112 1 1.58217 4.61392 15.5197 6
113 1 9.25269 -0.842615 -4.23209 18
114 1 1.83687 7.2459 7.05714 15
115 1 -12.4454 7.95008 4.73767 6
116 1 -8.73823 -5.53344 -1.41418 22
117 1 2.4346 -1.87399 8.99291 16
118 1 3.12608 -7.17164 -0.951763 18
119 1 -2.59343 -1.61176 -10.8048 20
120 1 7.40397 1.35218 -10.2499 12
121 1 -12.1718 -2.3249 5.64534 14
122 1 -8.21778 -6.23982 -8.21043 15
123 1 -6.93083 -6.47297 1.64233 25
124 1 -2.56554 -7.13597 1.81912 19
125 1 -7.93497 -3.33909 -10.5421 12
126 1 -10.1003 2.05318 -7.84256 15
127 1 7.27084 1.93682 10.1121 19
128 1 5.16946 -2.32095 6.87307 20
129 1 1.78722 -3.87926 7.23762 19
130 1 7.18513 12.1089 1.13897 10
131 1 -7.13157 -9.51139 2.23815 18
132 1 1.637 11.7666 3.14514 16
133 1 -4.20446 -4.25307 -6.09392 19
134 1 -5.61082 -9.71088 -7.58233 15
135 1 -3.21181 -11.2956 1.89609 14
136 1 11.3893 3.36392 4.28338 14
137 1 -0.783963 -4.19724 -7.70485 22
138 1 -10.1945 -0.62902 13.1636 6
139 1 -0.0141438 -9.60205 -0.132901 17
140 1 -1.04214 -12.3043 -0.299367 15
141 1 1.42309 -12.2226 -2.09368 15
142 1 -7.82074 6.37673 -10.2769 13
143 1 8.39387 7.82044 5.46899 10
144 1 -7.44595 2.05323 -12.3494 14
145 1 0.733673 9.70352 -12.1638 10
146 1 -1.30207 -3.65923 8.25353 20
147 1 1.76662 11.3399 8.79997 11
148 1 7.81422 4.72414 5.56625 20
149 1 -8.4349 4.11073 5.93829 19
150 1 -5.55611 -6.50495 10.837 11
151 1 -6.13775 9.31087 5.48575 19
152 1 -0.13357 -2.42638 -15.4309 11
153 1 4.25913 -13.1544 2.70958 13
154 1 6.82254 -2.35401 -12.4222 15
155 1 -9.51395 1.08319 6.84876 23
156 1 9.77084 -8.65301 -1.3048 15
157 1 -4.53508 12.7311 3.99823 13
158 1 -9.99961 6.5233 3.83206 17
159 1 1.59326 -10.6548 8.104 16
160 1 0.214594 6.15485 9.94208 20
161 1 -8.33871 -1.88126 -4.86439 22
162 1 -1.7865 11.5119 6.71024 13
163 1 -6.85002 1.52334 -4.47538 20
164 1 -11.3101 3.66467 4.64357 16
165 1 -7.6871 -3.78584 -7.6854 19
166 1 -5.63266 10.2523 2.36288 18
167 1 8.14597 -2.13727 8.84145 14
168 1 4.64649 -6.26579 7.56993 17
169 1 -2.96983 -4.59697 10.6426 21
170 1 3.67294 -10.548 -3.68623 14
171 1 -5.68954 -1.75224 -9.36717 22
172 1 -11.6101 -1.36038 -3.46407 16
173 1 -3.56245 -7.92237 -1.53752 14
174 1 11.072 4.80337 -6.70795 12
175 1 -7.99063 5.23363 -13.5955 10
176 1 -10.2776 5.74158 6.80532 14
177 1 -9.88544 10.7884 0.962687 9
178 1 -5.84793 5.11601 9.91784 20
179 1 7.86341 -6.15312 -8.17046 12
180 1 7.8613 -3.00128 -3.2738 22
181 1 -5.03375 5.7124 0.669837 20
182 1 0.0997174 -7.11076 -6.08052 23
183 1 0.859072 9.37525 5.34882 18
184 1 -10.7893 4.24139 -7.29954 10
185 1 7.60229 -11.0133 3.17029 13
186 1 10.0006 0.5272 10.124 8
187 1 -9.04202 -5.50981 -4.79817 19
188 1 -5.65867 -11.8929 4.29549 10
189 1 -5.32888 15.0764 -1.01196 11
190 1 -6.9133 7.30962 -3.89169 21
191 1 -2.74411 -7.61162 -7.99288 20
192 1 4.08904 -9.57393 6.65654 18
193 1 -6.74081 -12.8434 -2.64315 8
194 1 -8.24438 6.65802 -6.82129 12
195 1 -0.077969 -12.9136 6.99611 12
196 1 -3.76636 0.586162 6.78789 21
197 1 -5.17526 5.97932 6.54969 16
198 1 1.9984 -5.07086 -5.85408 22
199 1 -3.31469 -0.430217 10.2012 19
200 1 -12.5563 1.0147 4.79022 16
201 1 -3.78104 -5.59943 7.35006 23
202 1 -5.82953 -2.65318 11.0705 15
203 1 3.34484 -7.22522 -4.30326 20
204 1 7.15386 -10.6681 -0.0506152 14
205 1 1.32665 11.7167 -6.60973 13
206 1 -5.84741 -6.30261 5.27395 21
207 1 6.77111 -8.17483 9.13804 13
208 1 7.32506 1.3908 0.674783 21
209 1 2.17863 0.515573 -9.65472 20
210 1 9.5253 -6.22864 4.73427 13
211 1 -6.246 2.96488 13.9069 13
212 1 1.21843 13.8535 0.614549 14
213 1 6.4308 -5.53811 10.5673 10
214 1 -1.53324 -9.24841 -5.09388 18
215 1 1.93576 7.31422 13.5868 12
216 1 -7.68966 1.81819 9.08801 20
217 1 -3.71544 -7.77519 -4.7307 18
218 1 -10.9746 -7.11447 -6.51938 9
219 1 -8.68986 9.12501 6.78884 12
220 1 -4.58532 -11.9441 -4.86289 11
221 1 -8.55371 -1.73145 5.75337 23
222 1 7.74256 1.47002 7.23749 18
223 1 8.67076 3.52254 -0.998574 19
224 1 -0.238391 4.82755 -5.89725 21
225 1 -0.893823 7.30745 -7.73287 20
226 1 -2.21208 8.19336 10.1157 15
227 1 -11.6845 -4.7863 -2.49256 15
228 1 4.25338 11.3605 -6.61483 11
229 1 -6.32371 -6.69533 -6.30969 19
230 1 -2.55079 -1.95279 -14.0148 12
231 1 8.3814 6.60947 -2.35397 18
232 1 4.75708 11.2671 3.58265 15
233 1 2.35246 3.59847 -7.88026 21
234 1 1.80964 -8.32914 2.06194 15
235 1 -5.5083 3.97881 -14.123 12
236 1 12.009 7.57535 -1.14202 12
237 1 8.37909 -8.21049 2.15537 20
238 1 -0.733706 1.78054 -11.4516 17
239 1 3.70308 -9.92026 1.24959 18
240 1 -0.369772 -8.7489 9.72725 17
241 1 -7.42804 3.60407 -6.89283 17
242 1 -0.338278 4.032 -14.3566 10
243 1 -10.3735 -4.33088 3.77601 20
244 1 12.5402 -1.56914 -3.91289 7
245 1 -3.48215 9.01829 -3.96815 17
246 1 4.45033 -6.64142 -7.42327 18
247 1 1.86069 4.39698 -11.8165 18
248 1 8.40733 -4.77001 -11.4062 9
249 1 -8.34469 -1.13463 9.13245 17
250 1 -3.42335 14.9567 1.99056 9
251 1 -0.749974 10.7154 -9.25853 14
252 1 11.6969 5.49413 -4.11304 14
253 1 1.22393 -8.77531 -2.85049 19
254 1 3.13966 -2.52962 -10.6404 20
255 1 13.4147 -5.12522 -3.00582 11
256 1 3.74969 -7.10379 3.71953 20
257 1 -11.0199 1.12098 10.2708 13
258 1 -8.61056 -9.13646 -6.97616 10
259 1 -0.464038 -1.77901 10.4922 19
260 1 5.15502 6.93215 -8.55205 14
261 1 -6.31457 10.1441 -2.98326 16
262 1 -0.345697 13.6988 -2.71493 12
263 1 1.35396 1.57226 10.6658 19
264 1 6.72637 -10.2664 -2.61837 11
265 1 4.32221 -0.955766 -12.8961 20
266 1 -13.0755 -1.90057 -0.858314 11
267 1 -5.44329 4.39391 -4.05666 17
268 1 -10.4862 -3.80339 8.28174 11
269 1 4.76168 6.77747 -1.55143 19
270 1 1.78436 -8.13938 -9.47742 13
271 1 1.30476 -7.08514 12.7358 14
272 1 5.61098 -1.45594 -5.96707 20
273 1 -10.6127 7.69566 1.33993 14
274 1 9.37145 -6.36691 -5.38543 10
275 1 0.550837 8.9926 12.0649 12
276 1 -1.07218 1.77617 -7.3463 18
277 1 4.49586 6.05109 -12.299 12
278 1 -0.502033 -4.10803 -12.2441 17
279 1 -4.00341 -11.955 -1.32383 15
280 1 10.6578 0.930956 -1.17722 15
281 1 4.76947 -4.58947 -12.2593 12
282 1 6.09687 -8.13605 -5.05357 13
283 1 4.45956 13.778 -1.35991 11
284 1 -8.46466 3.98731 1.57255 20
285 1 10.9021 8.55467 -6.07287 11
286 1 -0.446549 -6.42479 7.59471 21
287 1 8.28575 5.30568 9.82039 12
288 1 -7.55295 0.21494 -7.0868 19
289 1 12.2616 3.99783 -1.16846 13
290 1 7.14357 -3.70191 0.16647 19
291 1 3.01115 10.0993 11.2593 11
292 1 5.3078 3.09988 7.19135 23
293 1 -3.46959 10.711 -1.11088 11
294 1 -2.59407 -11.3552 -7.39697 11
295 1 -5.99784 8.84848 -9.72118 11
296 1 -5.76911 -1.09622 -12.4744 14
297 1 -11.7027 1.75103 -4.68543 11
298 1 6.39895 -7.23387 4.88277 23
299 1 2.08466 -7.15435 6.09404 19
300 1 8.28764 6.86417 -8.02208 13
301 1 8.64462 -0.950975 2.07723 21
302 1 6.53866 10.2178 6.021 12
303 1 10.4217 -3.15428 -1.81055 19
304 1 -4.12533 2.36727 9.54424 19
305 1 -9.23426 -6.76074 3.7066 21
306 1 -9.80168 -0.0920433 -10.2642 13
307 1 -0.976649 -1.13632 15.6807 7
308 1 -6.2765 13.5577 1.54098 13
309 1 9.41966 6.99669 0.769251 16
310 1 5.32117 4.50269 3.65604 20
311 1 -11.7774 -0.425838 7.97024 13
312 1 6.19609 0.412241 -14.5974 9
313 1 -0.344791 -6.39233 -9.72893 18
314 1 6.08855 7.24579 7.71096 18
315 1 4.84438 5.92765 5.74202 19
316 1 -1.27662 -4.61395 14.1376 11
317 1 -4.06438 4.88824 11.8209 16
318 1 -8.67456 1.78055 12.2884 14
319 1 -5.1155 5.78794 -7.85162 16
320 1 6.64579 11.7791 -1.47821 13
321 1 -1.29561 0.672744 8.59275 21
322 1 2.90094 14.0392 -4.44929 9
323 1 -4.99849 -9.107 0.727102 19
324 1 4.45341 7.07756 1.95863 16
325 1 -5.6455 4.66231 3.79232 17
326 1 -7.61874 6.67385 1.23139 20
327 1 7.21425 9.03152 -3.2619 17
328 1 4.00703 2.42059 10.3965 16
329 1 4.11808 9.72623 7.93132 15
330 1 2.48616 -2.25222 -7.70397 23
331 1 -0.32413 3.87409 7.07917 18
332 1 4.57824 -3.93519 -4.49121 21
333 1 3.51544 12.4383 6.24442 10
334 1 -12.7437 -3.30235 2.5574 15
335 1 4.08655 -11.693 -0.769848 13
336 1 7.00669 8.74023 -6.0887 14
337 1 4.50397 -4.8934 5.01567 20
338 1 -2.73066 9.65291 4.06556 19
339 1 3.01682 -0.802513 -15.6086 13
340 1 5.2967 -3.55154 -7.87738 19
341 1 -3.70887 10.5912 10.3147 11
342 1 1.90076 -6.67907 9.72657 18
343 1 -6.94208 -10.012 -4.319 13
344 1 -5.84913 2.89341 7.00894 19
345 1 7.26675 2.04743 3.92983 22
346 1 -1.19862 7.25873 -4.3516 17
347 1 6.37153 4.64082 -10.501 14
348 1 8.48089 3.86132 -4.34945 20
349 1 1.43339 6.7707 -13.528 12
350 1 -6.00177 0.312641 11.6405 19
351 1 -4.25866 -2.72328 8.60714 22
352 1 0.312678 -2.67585 -9.37055 21
353 1 -5.63884 8.609 -0.769698 17
354 1 7.22391 9.33841 2.72657 13
355 1 -7.23987 -3.89225 3.51825 20
356 1 4.10409 2.77918 -10.0096 19
357 1 -3.77628 1.15216 13.2314 14
358 1 -12.2197 -6.55773 2.912 11
359 1 8.43081 -1.04098 -1.12085 22
360 1 -5.68426 -6.06788 -0.772294 19
361 1 11.0644 -8.02426 2.0921 13
362 1 4.85244 -10.2558 4.11136 16
363 1 -0.162809 9.70526 9.10403 17
364 1 -7.59754 5.27588 12.3303 11
365 1 8.31943 4.09931 1.99978 17
366 1 11.8024 -7.66138 -4.17147 8
367 1 2.16435 6.54134 3.75363 17
368 1 0.696482 12.9851 6.53902 10
369 1 0.979988 -11.6399 4.2308 17
370 1 -8.35283 -2.78874 -2.13714 21
371 1 0.297295 1.68509 14.5168 12
372 1 3.96267 11.9335 0.726363 16
373 1 5.31851 -2.36458 10.1499 15
374 1 7.33913 -4.6932 6.8061 17
375 1 5.70951 7.98216 10.4595 10
376 1 -1.06586 7.12268 -1.22913 16
377 1 -0.232154 -9.6529 -7.7634 16
378 1 -3.86343 1.39677 -11.8287 18
379 1 -6.81517 -0.522259 14.1549 9
380 1 12.1621 2.00111 1.5835 11
381 1 2.72463 6.21526 -6.8124 17
382 1 5.46753 -2.8016 -15.156 12
383 1 -5.90413 -11.8404 0.94992 12
384 1 -5.67221 -1.37611 -5.82057 22
385 1 0.563702 -1.18399 -12.059 23
386 1 -1.03349 -7.05984 -2.84193 20
387 1 -0.106109 -4.63624 11.6886 16
388 1 0.0872002 -6.73698 3.9589 22
389 1 8.32322 3.99535 -7.81077 13
390 1 -7.72168 11.6398 4.02553 14
391 1 11.1278 -3.86767 -4.87258 13
392 1 -11.5779 1.33706 -1.5374 14
393 1 12.0541 5.34344 1.47929 12
394 1 1.3317 4.19128 12.6808 18
395 1 -11.3967 -0.528666 -6.88439 14
396 1 -2.84811 3.35293 -8.74257 20
397 1 12.2859 -5.45235 -0.18212 9
398 1 -6.42372 -4.59778 -4.16231 18
399 1 -4.63722 -8.72748 3.59515 20
400 1 10.0685 -4.0868 1.38024 15
401 1 -12.5145 5.84961 1.97992 12
402 1 2.62294 9.48202 -9.14184 13
403 1 4.97519 -7.83572 12.4677 9
404 1 -6.22965 -0.871883 7.2698 21
405 1 -5.03872 -3.6163 -12.0406 12
406 1 -4.67963 -9.67019 6.52097 17
407 1 5.42824 -0.0188066 11.9882 13
408 1 -1.50198 -12.7817 -3.1928 11
409 1 8.63954 -1.50774 -9.69815 13
410 1 -8.08055 8.74939 3.27238 17
411 1 -7.15019 1.01543 5.27423 21
412 1 0.834134 -11.7481 -5.11618 13
413 1 9.79842 10.225 0.279393 12
414 1 11.1565 2.18862 -4.10213 11
415 1 -0.0934086 -9.16141 6.66771 19
416 1 4.57609 11.2577 -3.43194 15
417 1 4.252 0.88189 -7.46838 21
418 1 -8.59173 4.85099 -4.31808 17
419 1 5.48386 3.82656 -6.34537 20
420 1 3.02671 7.1729 10.2832 21
421 1 2.88959 8.90475 -5.40155 16
422 1 -5.58429 7.8981 11.415 13
423 1 7.66833 1.25382 -3.00795 21
424 1 3.28915 -12.6427 6.10328 14
425 1 10.5002 5.2627 6.85076 12
426 1 9.87862 -4.17119 -8.81122 8
427 1 -4.89658 6.80889 -12.2703 15
428 1 -1.46431 8.36851 6.96673 15
429 1 -3.10333 8.64544 0.812723 17
430 1 -2.59098 -7.357 5.60934 20
431 1 10.0063 -10.7986 1.38258 11
432 1 0.14939 0.733119 -14.6542 14
433 1 -9.66404 -5.20825 1.32158 22
434 1 -3.98101 6.27245 -2.42941 20
435 1 8.31991 -0.948458 11.7393 10
436 1 -8.58152 -5.24543 6.64059 19
437 1 11.5804 -1.58045 0.667085 10
438 1 -1.6065 6.96348 -13.1239 14
439 2 -9.99215 0.194432 -8.03956 14
440 2 -7.39578 12.0786 -3.15202 11
441 2 -1.10564 -0.704314 -14.6917 10
442 2 -5.64218 5.94576 12.0615 14
443 2 -8.04303 -1.85257 -6.99257 19
444 2 -0.00615673 0.476774 16.039 7
445 2 -9.88102 2.40967 5.47917 20
446 2 9.56784 5.72509 2.20637 15
447 2 -2.7333 -3.92454 -7.37734 20
448 2 -9.58026 -7.76271 -7.89106 11
449 2 -7.6569 3.25935 -1.37874 21
450 2 0.0158715 -7.28106 5.81672 18
451 2 2.69219 2.87452 11.8542 16
452 2 6.86203 -1.18374 -13.8299 10
453 2 7.32982 -1.62489 3.92807 19
454 2 -4.69199 9.60458 0.747547 16
455 2 10.9227 3.56829 6.11112 14
456 2 -10.6533 -5.02106 6.68805 12
457 2 -1.33214 -11.0472 1.02414 17
458 2 8.23376 -8.87105 7.77814 11
459 2 -8.48141 10.5226 2.30143 13
460 2 -3.26018 7.17103 -4.01717 19
461 2 -2.56318 7.33046 8.30145 18
462 2 5.69699 -4.12671 -2.95687 20
463 2 -2.7046 1.00978 -7.77187 17
464 2 2.83803 -4.06484 -7.33673 23
465 2 7.12929 -0.384863 -9.93162 14
466 2 8.9476 8.41099 -2.9777 17
467 2 -5.58781 11.9815 5.47004 13
468 2 -4.4078 -9.56095 -8.83361 12
469 2 1.18203 -8.40937 11.0452 14
470 2 7.44856 -1.61345 0.606261 21
471 2 -10.879 1.94245 -2.96621 15
472 2 8.09951 11.249 -0.262673 12
473 2 4.20367 -11.2117 5.76977 15
474 2 0.575449 8.58418 7.69847 21
475 2 5.08756 11.653 5.46981 10
476 2 3.01229 7.35119 -8.51845 17
477 2 -10.8182 0.778444 12.0936 7
478 2 4.25101 0.878213 -9.57107 22
479 2 -8.05981 2.01528 -7.88555 20
480 2 -11.8107 -0.348858 6.08268 17
481 2 -8.59832 -8.20081 2.64296 16
482 2 2.11897 -9.04831 6.79366 24
483 2 -2.04678 -3.34437 13.0134 12
484 2 -0.568113 7.74626 10.8786 18
485 2 -8.68559 2.02709 1.99109 20
486 2 4.89221 -5.91913 -4.86294 21
487 2 8.25469 -0.558199 -5.90597 15
488 2 -2.39401 -13.0054 -1.27847 12
489 2 3.62275 6.95817 6.74657 19
490 2 11.0317 -8.13682 -2.56471 10
491 2 4.46166 -1.08706 5.623 19
492 2 -5.78541 -8.03374 2.33284 24
493 2 11.9567 0.518197 0.478184 11
494 2 -2.7487 -8.94972 2.68232 18
495 2 11.274 -3.99363 -0.298139 11
496 2 -4.00463 -6.35119 -8.40054 20
497 2 -8.22296 -5.09015 2.55083 21
498 2 -3.54486 -6.66488 0.249226 23
499 2 -5.73721 -5.24785 -2.38202 20
500 2 -5.00716 14.3485 2.87755 11
501 2 2.15229 1.43055 -7.97997 18
502 2 8.21285 6.50567 -0.545944 19
503 2 4.81839 5.49887 -10.1417 19
504 2 -7.76457 3.48143 12.8117 13
505 2 -11.1946 6.13611 0.554889 13
506 2 -6.11858 3.08918 9.30065 19
507 2 -11.6983 7.4924 3.09386 11
508 2 -8.85594 4.85247 -6.32624 13
509 2 7.94244 1.68881 -8.13366 12
510 2 12.0821 -6.87877 1.14774 10
511 2 7.05683 3.45476 0.563489 19
512 2 1.10849 13.4074 2.42908 12
513 2 -5.61002 6.55144 8.41113 20
514 2 12.2087 5.74258 -1.56653 10
515 2 2.77193 7.33277 -1.63514 18
516 2 1.27056 10.1266 -5.2065 17
517 2 -0.924166 4.75438 8.75786 15
518 2 3.84276 -3.0705 11.3117 13
519 2 2.54376 -1.30479 -12.1899 23
520 2 -4.40896 3.17202 13.5718 12
521 2 3.08543 3.00504 -12.0819 19
522 2 -5.74219 -4.45265 10.5806 15
523 2 2.11649 -6.71567 -2.72228 19
524 2 -0.00830009 -4.9507 -5.82697 19
525 2 5.76209 -12.1701 3.66996 13
526 2 8.94116 8.26057 -6.38145 13
527 2 -6.15692 7.40443 -11.0061 15
528 2 -2.03385 10.0827 9.68911 15
529 2 -8.84876 -3.72668 -0.365711 21
530 2 4.66943 5.56184 -6.53455 19
531 2 -0.133458 14.1595 -0.698868 13
532 2 -2.27959 5.08941 12.7347 13
533 2 5.32785 -9.30726 0.510094 19
534 2 1.39324 3.18701 14.4265 11
535 2 11.137 -5.90195 -4.54608 12
536 2 5.95171 8.29584 1.793 15
537 2 -6.17907 5.96682 -13.5839 10
538 2 3.14305 -7.79379 12.5416 11
539 2 -2.396 -6.75067 7.64207 21
540 2 5.16603 -8.81787 8.08824 15
541 2 -3.03501 10.6439 -6.91987 13
542 2 -6.52875 -11.6947 -4.07333 9
543 2 -0.8491 -2.56967 -11.068 19
544 2 -1.58119 -10.6071 -8.79445 12
545 2 5.85772 9.14443 7.24078 13
546 2 -10.3249 -6.31943 -2.45939 15
547 2 -12.4141 4.15254 3.09282 14
548 2 4.19161 -1.64264 8.54382 20
549 2 -3.36495 -12.4718 -3.61693 10
550 2 0.789496 0.75927 -11.3536 17
551 2 -6.44704 -2.31478 -11.1974 15
552 2 -9.40571 -1.86541 -9.92653 14
553 2 -6.03867 -1.54575 12.5614 12
554 2 -3.74058 -1.87326 -9.52139 19
555 2 3.46915 -4.34827 -10.4184 20
556 2 4.65329 -1.69545 -7.84626 20
557 2 -5.48414 -4.57073 4.55893 21
558 2 1.93383 -1.46034 -9.60205 20
559 2 -0.266429 -7.93131 -4.34506 21
560 2 1.3503 9.16502 -10.454 15
561 2 3.93206 8.9555 9.61704 16
562 2 11.2819 1.67697 3.48308 10
563 2 -11.8467 -1.96172 3.84646 17
564 2 -2.03025 -12.3857 6.80252 11
565 2 -1.00162 3.8513 -7.7241 20
566 2 -4.92232 7.89805 6.19781 15
567 2 -5.78836 -4.89545 0.788857 21
568 2 -8.92246 7.30918 2.53869 17
569 2 -8.6601 -4.63582 8.47972 12
570 2 -0.525492 -10.2744 4.79525 19
571 2 -11.8679 1.41766 2.99051 16
572 2 -6.82525 -10.2753 0.431321 16
573 2 -8.34091 -0.375682 7.23626 18
574 2 5.1198 -6.11603 11.8488 11
575 2 3.07664 10.3927 -7.79173 10
576 2 5.63173 12.5907 0.223118 11
577 2 9.40897 5.48484 -7.04148 15
578 2 -2.38931 14.3839 -2.72937 10
579 2 -7.83852 -0.0988413 -4.60935 16
580 2 -12.523 -0.314555 -1.70986 15
581 2 -2.93734 -8.62749 -6.3099 20
582 2 4.33684 -6.89073 5.56973 20
583 2 8.68356 -6.04569 6.88547 10
584 2 -5.12649 9.87858 -5.24512 15
585 2 8.37547 1.27169 -1.04843 19
586 2 6.54885 -1.3779 11.3388 13
587 2 -0.773259 -1.91992 -7.85273 19
588 2 4.22869 6.29897 3.74862 16
589 2 1.30235 10.1918 10.3578 13
590 2 1.3618 -1.15741 10.5147 19
591 2 -6.80601 3.55283 2.73033 18
592 2 6.34095 10.4823 -2.81685 13
593 2 -6.51913 -7.16833 -8.21747 17
594 2 -6.18272 -2.83143 -4.68125 23
595 2 -10.3156 -0.860865 9.2489 14
596 2 4.26861 13.2299 -3.34599 13
597 2 9.69063 5.41683 -3.80743 19
598 2 7.5316 -7.15761 1.05154 18
599 2 -12.7876 -4.82567 3.74551 12
600 2 -3.60028 11.1129 3.17991 18
601 2 -3.64592 7.01193 -7.87743 18
602 2 1.91846 4.5228 -9.73796 18
603 2 -8.44914 5.42167 0.0543573 17
604 2 -8.89698 -3.05233 4.48061 21
605 2 8.06224 -9.4429 -1.65091 13
606 2 0.286452 -10.2233 -1.96664 19
607 2 -6.0868 8.84511 3.52888 18
608 2 -0.491229 -7.96501 1.96218 18
609 2 -11.3394 2.84572 -6.19863 11
610 2 1.78878 -9.97721 0.676077 22
611 2 1.94449 6.08706 8.944 15
612 2 -0.35212 2.22881 -13.4981 16
613 2 -1.00456 9.69358 -11.0228 12
614 2 5.44201 4.62273 -12.6224 11
615 2 -5.44573 14.6235 -2.83932 9
616 2 -8.39908 -0.0257578 12.9922 12
617 2 -3.20408 -4.39739 8.68665 22
618 2 -2.85381 -6.56736 3.93719 20
619 2 -11.4401 -3.36804 -3.88768 15
620 2 -1.34666 -1.56233 8.74143 22
621 2 0.0458743 8.21109 -13.0871 11
622 2 7.47674 -1.00295 -3.05266 23
623 2 1.67198 -1.92642 7.06459 20
624 2 2.02951 0.287057 -14.2075 15
625 2 4.306 6.14159 0.294127 18
626 2 4.73315 6.44475 10.9651 13
627 2 -10.442 -3.4474 2.0377 20
628 2 -4.59638 13.0307 -4.67289 9
629 2 0.149927 4.94113 11.4581 18
630 2 3.95616 -12.032 1.20952 15
631 2 -4.10661 -10.6094 4.49091 18
632 2 5.3474 1.04601 10.3588 19
633 2 6.48836 7.8174 -7.54182 13
634 2 1.69356 10.1013 0.150658 16
635 2 1.54951 -12.2464 6.7756 15
636 2 5.50331 -9.29748 -3.89662 15
637 2 -1.22148 3.44384 -10.7472 20
638 2 0.904537 1.1906 12.6773 17
639 2 1.60586 3.74845 7.25047 19
640 2 5.08234 -5.66713 3.21128 19
641 2 -2.1754 0.219401 -11.4994 20
642 2 8.94522 -5.33895 -9.71433 9
643 2 -8.79272 11.4188 -0.503587 10
644 2 0.451841 -4.67137 -9.03729 21
645 2 -1.85729 1.72503 13.7281 14
646 2 -7.72621 7.70044 -5.53139 13
647 2 12.9565 -6.3978 -1.88165 10
648 2 3.46538 11.0334 2.19543 16
649 2 11.3778 6.82676 0.489032 13
650 2 11.9755 3.48904 0.684602 14
651 2 -8.48961 0.933807 -1.26969 20
652 2 -4.93646 6.88652 -0.739903 19
653 2 -7.0817 2.9973 -10.7107 20
654 2 11.1864 9.5807 -4.58171 7
655 2 -7.32831 8.58228 -2.206 14
656 2 -4.64349 -7.92969 5.52774 22
657 2 2.28533 1.29741 9.02241 20
658 2 2.03988 -9.88613 -4.40026 18
659 2 -1.10973 -3.2864 -14.039 12
660 2 2.69914 13.1477 -0.443042 15
661 2 6.23064 11.197 2.3514 14
662 2 -7.66252 -5.10666 -6.14049 18
663 2 -8.02428 -9.07012 -2.91723 12
664 2 8.26021 0.916268 2.61437 18
665 2 -5.98593 6.1086 2.23601 18
666 2 2.9297 -14.0659 3.98804 11
667 2 6.72947 -3.67983 9.89161 14
668 2 -3.32063 -4.24111 5.79578 21
669 2 -5.01566 -5.98555 -5.06181 14
670 2 2.07465 5.48855 13.8503 10
671 2 2.93443 6.98744 -4.97366 17
672 2 -11.0177 6.98299 5.46446 14
673 2 -3.90069 -6.31994 11.6769 11
674 2 -3.47616 14.7647 0.106062 13
675 2 0.652384 -12.8326 -0.426865 14
676 2 0.0101089 -4.49966 6.94095 22
677 2 8.577 0.851051 11.226 10
678 2 -9.65716 4.95738 4.60383 18
679 2 -1.64156 8.92188 -0.997343 18
680 2 -0.578122 1.86494 10.1564 23
681 2 -3.26383 -7.90223 -10.3347 13
682 2 12.9218 -3.71966 -4.1749 8
683 2 6.51587 -3.20044 -6.15825 20
684 2 -4.70625 9.66856 -1.99189 16
685 2 -5.97407 1.0261 13.4079 11
686 2 -7.07398 3.47435 -4.82304 19
687 2 9.26185 -5.66929 -7.09802 13
688 2 2.15715 7.40625 1.94183 17
689 2 -3.46567 4.06229 10.1493 18
690 2 -3.12011 0.883521 8.67325 21
691 2 -2.04638 5.22978 -13.6174 12
692 2 -11.0079 -0.0165354 -4.87666 15
693 2 -8.13332 -4.79726 -9.39537 13
694 2 -1.35274 6.26254 -6.13284 18
695 2 -5.85173 -0.0884809 -8.82211 21
696 2 6.01375 -5.41848 -7.86602 18
697 2 -0.640016 -7.85884 -1.12022 19
698 2 -1.80058 -7.97441 10.492 17
699 2 7.29581 -2.13466 7.19114 15
700 2 8.38213 -2.72664 -11.1954 11
701 2 -0.366845 -13.6153 5.14574 10
702 2 11.97 5.09631 3.44437 11
703 2 -7.03328 9.98908 7.2325 15
704 2 -10.8551 -6.55648 1.20993 16
705 2 9.53959 1.40097 -3.89429 17
706 2 3.48444 -9.1887 3.0514 20
707 2 -6.19723 12.1364 2.75634 14
708 2 5.63304 0.472537 -5.98687 22
709 2 4.62226 4.07311 5.86007 21
710 2 -12.5114 2.69412 5.76913 14
711 2 0.427166 11.3805 -8.05739 11
712 2 4.84226 -0.996459 -15.4103 12
713 2 -5.68974 0.759674 6.56371 24
714 2 -4.16417 1.04368 11.3163 21
715 2 9.28854 1.64109 8.64266 13
716 2 4.87601 0.869229 -13.0465 18
717 2 -8.35865 -4.45215 -3.21858 18
718 2 8.99234 -2.68962 -8.34508 13
719 2 -2.15564 11.2126 0.465 15
720 2 0.868136 -7.38848 -10.9324 11
721 2 -10.9437 4.32512 7.82327 15
722 2 -8.77909 -0.230822 4.44795 23
723 2 5.80111 -11.1542 -1.38098 12
724 2 -0.683346 -10.8175 -6.13134 15
725 2 0.276598 -12.8153 -3.68015 11
726 2 10.7183 -2.16065 -3.92349 15
727 2 -2.91643 7.21391 -11.7328 15
728 2 3.25509 11.3741 7.66194 14
729 2 -4.39211 -11.0092 -6.25007 13
730 2 4.23774 3.7686 8.87171 22
731 2 -4.12633 8.51277 10.3096 15
732 2 -6.12449 9.42144 -7.99123 13
733 2 1.58898 -9.48146 -8.10932 14
734 2 -6.31782 -8.94787 7.15106 13
735 2 -9.92204 8.94365 0.0526592 13
736 2 6.89429 7.18103 -4.93744 20
737 2 -4.08736 4.53134 -9.16141 18
738 2 4.68386 3.6241 -4.38645 20
739 2 -4.01474 -4.89805 -10.9548 16
740 2 1.92174 -7.32489 -5.83954 21
741 2 -11.1276 -2.38357 -6.76723 12
742 2 6.80529 6.60582 9.15889 13
743 2 -5.81913 0.752937 -12.4729 16
744 2 -10.894 -6.45032 4.37102 15
745 2 7.51755 3.32198 6.81668 20
746 2 7.08126 3.75857 10.3479 14
747 2 7.56923 5.25694 -9.19192 12
748 2 -1.05674 8.99574 -8.37206 17
749 2 -0.165393 11.4378 -2.30954 17
750 2 9.94434 -2.16915 1.47389 15
751 2 -5.91689 0.707659 -6.08562 20
752 2 4.39828 10.051 -5.24029 16
753 2 -2.07807 -0.72519 11.7683 16
754 2 -0.703569 -7.66761 -7.90264 20
755 2 3.66893 0.106523 12.9923 11
756 2 -1.98845 9.76635 5.7854 15
757 2 9.99767 -9.58841 2.76113 13
758 2 6.73123 -4.84619 -11.9638 9
759 2 -5.07582 11.0263 8.95469 9
760 2 5.0022 -9.31207 11.0992 10
761 2 -1.58505 9.07298 -4.77983 17
762 2 0.133874 11.6387 7.8227 14
763 2 -4.67913 5.18488 -5.74976 17
764 2 1.24528 13.4555 -3.5751 15
765 2 -9.49165 -8.08236 -5.28685 13
766 2 1.61935 -2.07259 -15.0393 14
767 2 -6.36087 4.29875 5.46829 18
768 2 8.27612 -3.50117 -1.41777 20
769 2 -3.77622 9.10321 -9.79004 16
770 2 -11.6217 1.3453 8.50477 14
771 2 -6.86471 -9.34365 -6.20433 15
772 2 2.44912 8.90555 12.7076 10
773 2 -1.02061 -6.11701 -12.1356 11
774 2 -8.52847 5.19756 -11.6475 11
775 2 1.6476 4.6915 -6.23784 22
776 2 -4.15837 3.31892 -12.3978 17
777 2 -8.41594 9.96833 5.02081 15
778 2 -8.95433 7.23747 7.31148 15
779 2 2.70469 12.7673 -6.05131 12
780 2 -5.8714 -12.7729 -0.81774 9
781 2 6.02651 2.59363 -10.575 16
782 2 5.09564 -1.74175 -11.4354 21
783 2 -6.718 -10.0659 4.20407 15
784 2 -6.20946 5.83707 -3.05935 17
785 2 -7.89628 -6.71373 5.37675 20
786 2 -1.00339 6.37188 -9.44325 18
787 2 -0.368139 -10.2678 8.40429 17
788 2 9.83847 5.15166 8.52718 10
789 2 5.64111 -4.04958 6.22322 22
790 2 -7.0406 -0.0605754 10.0774 18
791 2 2.60063 6.52164 -12.0381 15
792 2 -0.0925553 7.70941 13.6043 10
793 2 -8.34446 -7.07347 -0.0404925 22
794 2 -6.22856 -5.83488 7.22449 20
795 2 -7.73878 2.61384 7.04671 17
796 2 -7.19722 5.87978 -8.2898 17
797 2 -10.7557 -5.51874 -5.65604 13
798 2 -1.79179 14.0052 2.68753 13
799 2 6.06169 -6.33906 8.9 14
800 2 9.4978 6.24434 5.41201 13
801 2 -4.16534 -10.5277 -0.148346 17
802 2 -12.9282 -2.22608 1.01216 10
803 2 -10.96 2.10655 0.16784 16
804 2 -3.9165 -1.54358 6.91824 22
805 2 -0.870759 -3.64097 10.2961 18
806 2 1.22668 -12.4734 2.7841 16
807 2 7.47879 3.88918 3.63301 21
808 2 7.52497 -6.83261 -5.1013 15
809 2 -3.40258 8.26321 2.78052 14
810 2 -5.78035 -3.44852 -8.50297 22
811 2 -6.5615 -1.68865 5.60024 21
812 2 2.75404 -5.91269 8.03238 17
813 2 -3.7227 -2.46282 10.6023 19
814 2 1.51831 -5.47468 11.3215 12
815 2 4.16703 3.03255 -7.92637 20
816 2 6.7665 6.36187 6.07716 17
817 2 4.35602 -3.21903 -13.7152 15
818 2 7.55002 -5.51702 4.74155 15
819 2 11.6583 6.69514 -5.6312 9
820 2 9.04303 -3.79075 -4.55566 18
821 2 1.76642 12.3556 5.1787 15
822 2 8.27397 0.850844 5.45224 19
823 2 -5.2723 -7.63151 9.32331 15
824 2 -0.338087 -6.3202 13.0961 12
825 2 -6.22276 -2.76008 8.23797 19
826 2 3.20143 -11.7504 -2.50617 15
827 2 8.29192 -10.7149 4.91643 13
828 2 9.64187 -6.97513 3.08085 14
829 2 -3.38351 -9.72144 8.04431 15
830 2 8.02699 -4.60199 1.81873 18
831 2 -8.10675 5.35925 10.2618 14
832 2 -3.92705 4.02715 7.1077 20
833 2 7.49479 3.75799 -6.08776 23
834 2 1.27607 -4.67386 -13.0516 15
835 2 3.05636 -6.99783 -8.6942 16
836 2 0.829517 5.08216 -13.4515 14
837 2 -7.45599 3.37628 -13.8533 10
838 2 7.73225 9.30095 4.76684 13
839 2 -9.61765 -1.65806 -3.01447 19
840 2 11.1079 2.65901 -2.10281 16
841 2 -10.082 -0.646504 1.36423 20
842 2 6.09602 -8.95507 5.06502 18
843 2 3.1931 10.4625 -2.39518 17
844 2 11.3084 3.63194 -5.26004 11
845 2 6.46717 7.76065 -1.88777 15
846 2 2.87871 -10.1744 9.4822 14
847 2 -11.7157 -3.34596 -1.17807 15
848 2 9.5012 -1.32392 9.79956 9
849 2 10.5943 -8.00483 5.98595 10
850 2 1.91279 -7.17593 3.81113 17
851 2 8.71786 8.95096 1.1569 15
852 2 -9.43849 2.3878 10.1114 17
853 2 -9.30056 5.04532 -2.48883 12
854 2 10.3209 -1.18188 -1.22751 18
855 2 8.08832 -10.832 1.48904 14
856 2 -3.14669 -6.74389 -3.06165 18
857 2 1.09506 9.87211 3.56585 15
858 2 11.022 -9.38466 0.12621 10
859 2 0.949956 7.49631 5.19648 12
860 2 -4.97732 -12.3139 2.48911 13
861 2 0.333434 -7.28976 8.88916 19
862 2 -7.14411 8.64838 10.3032 15
863 2 -3.95907 -2.28488 -12.7374 15
864 2 -10.1621 3.43253 -9.17117 15
865 2 -11.702 -2.61206 7.31594 10
866 2 -0.972905 -2.86081 15.0115 6
867 2 -8.49662 0.895138 -11.1028 15
868 2 5.41905 1.07589 7.25607 21
869 2 7.63355 3.42938 -2.6029 19
870 2 -4.0909 2.01649 -10.0292 16
871 2 10.938 9.15103 -0.999722 12