ITEM: TIMESTEP
25000
ITEM: NUMBER OF ATOMS
2000
ITEM: BOX BOUNDS pp pp pp
-30.0 30.0
-30.0 30.0
-30.0 30.0
ITEM: ATOMS id type x y z Coordination
1 1 -11.7098 4.37901 -12.0845 14
2 1 -3.88132 -11.1054 -10.163 15
3 1 1.93358 14.6364 15.7683 10
4 1 9.6798 -12.0417 6.61443 10
5 1 -14.3228 4.76451 -0.87441 16
6 1 5.92341 -15.0693 -5.18897 15
7 1 -13.2763 -0.645053 -7.73623 22
8 1 -0.622199 -10.6574 9.5566 15
9 1 -9.04477 -3.48762 -11.4526 19
10 1 -13.2944 -14.2648 6.75485 10
11 1 15.635 -1.2657 -7.70723 9
12 1 -4.69443 -11.6909 4.04865 20
13 1 -15.8453 -13.0865 0.932215 7
14 1 5.29893 1.60417 18.5651 10
15 1 -0.828778 2.67199 10.4728 21
16 1 -1.71703 7.79306 -14.0201 13
17 1 1.73052 -3.24653 13.3782 19
18 1 -9.41699 -2.30874 -15.1288 18
19 1 -14.6262 -7.69408 10.8577 13
20 1 12.2685 1.53571 6.83033 16
21 1 -0.561281 7.32764 -9.74604 18
22 1 4.43226 -0.0389978 -14.8889 20
23 1 6.40242 3.3534 14.221 18
24 1 -15.9779 4.39352 -8.61074 11
25 1 -12.9851 11.5579 4.51457 11
26 1 6.94265 -11.1318 3.90636 18
27 1 -0.134472 -15.5714 -9.58542 15
28 1 4.57992 -12.0526 -3.67363 19
29 1 -9.76473 -14.4413 -8.51219 10
30 1 -16.9444 -6.31917 11.3797 11
31 1 -2.75903 -10.4355 -16.3873 8
32 1 2.05219 -15.0902 -5.81899 19
33 1 -3.45592 3.37601 -17.0616 14
34 1 -0.82525 3.10643 14.1562 20
35 1 -4.64212 -14.9679 5.74667 19
36 1 1.28628 -6.15354 15.3749 12
37 1 -13.1282 -2.49463 0.250187 16
38 1 -13.3929 -8.5127 7.21476 18
39 1 -4.20551 10.5227 -2.18177 21
40 1 -3.2963 -15.566 -11.3377 12
41 1 7.47813 -5.59494 -10.0629 17
42 1 0.441086 -2.34039 16.2466 12
43 1 -13.4968 5.55619 2.23951 18
44 1 1.45816 9.92193 -9.39005 17
45 1 -0.746606 7.76797 13.7838 17
46 1 -7.36151 6.12315 -7.88922 20
47 1 -2.75214 11.7483 -4.4365 16
48 1 0.37699 -11.4562 4.71167 20
49 1 4.28355 -9.77817 -5.71051 21
50 1 0.499367 -5.71909 -16.7284 21
51 1 -12.1789 9.55354 7.02693 12
52 1 -14.1128 -5.81432 -10.2881 14
53 1 -7.45955 6.14997 -4.24899 20
54 1 -10.5739 -9.75769 5.1114 17
55 1 -3.90423 10.5538 14.5861 14
56 1 -12.5583 3.92966 -5.76941 22
57 1 -8.1651 4.95181 14.8845 14
58 1 -3.03623 -17.4576 4.4148 16
59 1 1.88783 -12.5161 -4.56482 22
60 1 1.85447 11.7212 14.1055 19
61 1 -15.0907 2.08839 -7.26405 17
62 1 -15.2809 6.66523 -6.20181 11
63 1 3.97303 6.59447 11.8096 24
64 1 13.0983 -6.22676 -10.0443 13
65 1 9.89225 -9.78865 4.39681 17
66 1 -14.2017 -10.6843 4.96921 16
67 1 3.13017 15.1636 7.63003 12
68 1 4.73945 -2.07064 13.8955 17
69 1 -10.3942 -14.5874 12.1741 9
70 1 9.86866 0.425745 8.26672 19
71 1 -1.4056 10.5234 12.2461 19
72 1 -3.34103 -9.10294 -8.11821 21
73 1 -13.8761 5.72928 9.57661 9
74 1 -6.9343 11.6823 -0.769116 20
75 1 -2.11574 6.10519 -7.7157 19
76 1 10.7954 2.48949 -3.79822 19
77 1 2.01587 -8.28688 13.1151 15
78 1 -7.19404 15.0301 -1.11767 12
79 1 -10.1774 12.5588 6.76261 9
80 1 -9.74857 -7.0211 16.0987 10
81 1 -3.56385 8.45959 5.64865 23
82 1 -6.137 -8.74558 10.8136 19
83 1 9.46472 -13.8239 -3.99251 10
84 1 -9.92543 2.08496 5.79264 16
85 1 -10.645 -14.8601 4.2238 14
86 1 4.17476 -10.8571 -8.84685 21
87 1 5.80325 -7.84445 -14.2345 14
88 1 -10.0652 -0.258397 -16.622 10
89 1 -1.29562 11.2892 2.16608 19
90 1 -9.19468 3.45178 -8.05127 21
91 1 2.90915 11.8332 16.9415 12
92 1 -1.9878 9.16375 -11.2722 15
93 1 -13.4347 9.93851 1.82905 12
94 1 -6.82415 -7.6163 7.57342 19
95 1 13.5529 -8.2396 7.99549 10
96 1 3.88947 -5.37322 -11.8381 21
97 1 6.40258 -1.62438 16.8277 10
98 1 -9.60474 -9.09893 -0.931934 21
99 1 -9.36745 -8.93724 -4.62382 22
100 1 8.20628 -11.0388 1.33329 18
101 1 7.58829 0.432782 -15.7323 12
102 1 6.79223 11.5011 -2.43049 18
103 1 -9.38639 -13.7086 9.70234 16
104 1 -7.42351 -16.2813 6.50522 15
105 1 0.541352 -9.53397 -16.9409 15
106 1 11.8495 -11.5204 -2.62905 11
107 1 0.00736944 -18.2714 2.82156 14
108 1 -10.3868 -12.3214 2.32469 16
109 1 11.8886 5.17702 14.3319 18
110 1 12.2124 -6.63701 -6.94166 17
111 1 -13.7622 -10.8293 8.33912 15
112 1 9.56694 6.29387 5.16305 21
113 1 11.3505 8.45026 3.70396 15
114 1 -9.6814 3.99836 17.6085 10
115 1 -8.18027 7.91641 10.9006 15
116 1 -8.92546 11.0609 -3.64409 19
117 1 -0.728571 -8.38879 -9.67248 23
118 1 0.77749 -12.9529 -8.02373 17
119 1 -2.51025 13.1369 -10.2438 8
120 1 6.31782 -5.75559 11.3672 16
121 1 -1.76622 0.367041 -18.4349 13
122 1 -7.56988 9.99498 -8.24445 19
123 1 10.0143 -0.0678574 -5.02526 21
124 1 -9.89169 7.99948 -4.12895 19
125 1 -7.49319 12.2406 -5.98928 17
126 1 10.1032 -0.919325 -7.9528 18
127 1 6.98489 -7.17411 6.00887 18
128 1 -3.57783 13.6967 9.71934 10
129 1 13.8371 5.73834 -7.48262 13
130 1 4.58917 12.7887 -1.1211 19
131 1 -5.4438 13.6878 2.38538 17
132 1 9.60127 6.05956 -1.77422 16
133 1 -4.21537 7.96223 -4.2514 21
134 1 0.35588 13.4568 -9.06498 12
135 1 4.56352 5.27313 -15.1973 12
136 1 -10.9285 -12.6853 5.90416 18
137 1 -16.7923 4.81693 1.58394 11
138 1 -6.87357 -2.1797 -12.5737 22
139 1 -2.57726 -4.95683 -18.0161 16
140 1 5.82514 13.1569 7.23182 17
141 1 -3.77416 11.1172 7.74344 18
142 1 -13.4782 -5.85486 -4.03889 15
143 1 -11.8839 13.0546 1.38626 10
144 1 12.7411 -3.95133 -1.90376 16
145 1 -10.3494 -0.76752 -12.1953 21
146 1 8.64501 4.93036 15.4391 17
147 1 1.58414 16.792 0.619996 14
148 1 -3.49155 8.0004 9.20863 19
149 1 2.12295 -4.83436 -21.1519 7
150 1 -0.9896 8.25997 7.24809 24
151 1 -4.85019 10.4754 -5.52304 19
152 1 1.95099 -7.56879 5.39051 18
153 1 -14.1847 -7.81392 0.340299 16
154 1 -0.0475886 -7.35656 -13.8966 18
155 1 -9.8562 9.43964 -9.43335 11
156 1 -4.50394 -17.0826 7.71636 11
157 1 1.33048 -15.564 -3.14176 18
158 1 -4.13918 4.76693 -13.065 17
159 1 -14.6162 -3.38314 6.60747 14
160 1 8.47386 7.08039 -4.78588 18
161 1 -5.66016 -0.360129 14.1335 18
162 1 2.66579 -11.0184 11.0506 11
163 1 3.00444 16.9263 -3.91381 13
164 1 -1.71308 5.35829 9.04678 20
165 1 8.67241 7.05892 13.4948 18
166 1 -7.36479 11.7289 2.71749 17
167 1 11.8066 -9.44041 -9.29035 8
168 1 -5.77771 9.23893 12.3899 13
169 1 12.0361 -10.4058 5.73981 10
170 1 -18.6738 -5.75251 8.70776 7
171 1 -7.49076 -13.4908 3.20173 21
172 1 3.87411 8.61697 16.6426 16
173 1 -16.2443 0.262027 -3.83804 14
174 1 -4.15544 -14.2233 -0.949694 20
175 1 -0.989947 8.25655 3.55415 22
176 1 0.916094 14.7259 13.0119 12
177 1 -6.11974 13.1989 -9.30291 12
178 1 -14.1537 -5.53006 -6.74769 13
179 1 -9.37926 -10.854 14.1479 10
180 1 -1.90826 -14.1037 4.17133 19
181 1 3.11409 -17.2853 3.69819 15
182 1 -10.1671 7.07178 2.75494 15
183 1 14.1881 -0.129317 6.50168 13
184 1 -8.26574 -4.44361 -17.3993 12
185 1 4.3328 0.263427 12.114 19
186 1 1.4995 -13.8072 3.07828 21
187 1 -0.588367 2.82257 -12.951 20
188 1 1.37709 -4.94961 -12.9161 22
189 1 6.1661 -5.0891 -13.6131 17
190 1 2.87614 4.96648 -17.5742 9
191 1 -7.77236 -5.47542 -7.77145 21
192 1 -6.41424 14.7661 -6.62198 10
193 1 -14.3446 -10.9009 10.952 11
194 1 5.73097 16.3449 -1.60231 12
195 1 -9.57828 0.670215 18.5533 9
196 1 -10.1509 11.1243 -6.26903 13
197 1 6.98507 0.980466 9.60146 14
198 1 -0.240204 -7.30167 -19.2263 13
199 1 -7.26384 8.71063 -5.82336 21
200 1 1.81734 6.25344 -10.0674 23
201 1 -7.52944 -10.7648 8.91008 18
202 1 -9.3956 1.88177 9.49952 16
203 1 -7.71047 4.86596 8.71617 20
204 1 -1.23467 -10.825 -4.73164 21
205 1 -10.9664 -16.1654 -1.74187 5
206 1 5.36378 -9.80201 2.18122 18
207 1 4.86993 9.52516 13.7609 22
208 1 8.00108 4.5536 -6.57276 18
209 1 1.0204 14.0843 -4.1827 20
210 1 -13.9691 0.372726 1.27874 19
211 1 -15.921 7.82245 0.447484 12
212 1 1.26914 5.42164 10.2517 22
213 1 3.74952 -16.2518 0.859358 18
214 1 9.71632 -5.43047 -1.97959 21
215 1 -10.705 4.30524 7.41704 17
216 1 -12.4362 -9.15254 -6.92337 15
217 1 7.82827 2.66817 -11.307 18
218 1 3.76571 -5.01235 9.00998 17
219 1 9.51286 8.40162 -10.1568 13
220 1 -1.10416 -2.44037 -12.6313 23
221 1 2.31406 -13.6404 5.82344 19
222 1 8.2411 -2.91524 -8.41436 19
223 1 -11.2038 -11.4859 10.8639 17
224 1 2.60303 -18.1729 -1.96243 13
225 1 -10.3497 -5.92807 -9.50331 20
226 1 7.57414 13.6973 -3.62297 15
227 1 -3.85513 -1.82884 -17.6663 14
228 1 2.59925 3.54094 14.9225 21
229 1 13.0411 2.55626 3.96074 11
230 1 8.62679 -12.2566 -10.1102 10
231 1 -6.64636 -5.14214 -11.6797 18
232 1 -11.7724 -2.67872 -9.64013 25
233 1 -8.72345 -17.735 4.27809 9
234 1 13.5195 0.641282 9.75714 16
235 1 -7.50034 -7.78471 -16.411 16
236 1 2.16846 4.98656 -13.2075 18
237 1 1.39352 10.9919 -0.0179853 19
238 1 -6.65482 -5.78534 15.5364 11
239 1 -12.7773 -8.72095 -10.1214 14
240 1 -7.07942 -8.00046 -9.78419 20
241 1 -1.25225 4.92549 -14.8784 18
242 1 -7.04534 -10.8828 -8.25888 14
243 1 2.34644 -11.4773 -16.3222 8
244 1 14.3085 -4.29078 -7.27568 14
245 1 10.244 3.54129 3.23055 20
246 1 -8.46589 -7.6816 10.3648 18
247 1 -4.78508 -11.2242 0.705842 20
248 1 7.58459 7.345 17.2573 14
249 1 -4.52179 -17.1962 0.3805 19
250 1 -0.967634 -13.2309 0.558458 20
251 1 -3.41981 16.4836 -5.749 8
252 1 3.94082 -3.00816 -13.4694 21
253 1 -11.5071 -4.3322 -12.2685 17
254 1 -12.3 -2.19601 13.8607 20
255 1 4.95785 5.68393 19.4025 7
256 1 -1.54313 -13.644 -2.81814 21
257 1 -6.78487 -10.7783 -11.2686 16
258 1 -10.4604 5.7987 -9.59873 19
259 1 10.1669 3.93869 6.58398 22
260 1 -6.14181 2.51313 -9.60622 19
261 1 -1.74981 5.46746 -11.2915 21
262 1 -1.94831 -7.73858 -17.0031 15
263 1 -5.81612 13.5965 -3.4251 18
264 1 1.93055 8.0249 5.36013 20
265 1 9.89057 0.608039 4.94445 24
266 1 -12.3911 -3.28651 4.35951 18
267 1 -11.2937 -8.74431 11.3081 14
268 1 -6.34224 8.11401 4.19399 20
269 1 1.27315 -2.08071 -14.7625 21
270 1 10.8498 8.66359 -3.327 14
271 1 3.47132 -10.1181 -0.56964 21
272 1 -4.11827 -4.90502 13.5413 17
273 1 -15.2719 -13.0762 3.67898 10
274 1 -3.87913 -17.8172 -5.49397 11
275 1 -6.31892 4.7393 16.833 12
276 1 -11.9363 2.55122 16.6831 10
277 1 -16.7334 -3.43266 9.77583 11
278 1 -10.7076 -10.8517 8.14951 18
279 1 10.4896 -3.13234 -3.54152 22
280 1 -17.1425 -9.11376 9.26352 11
281 1 9.94462 -6.64896 -8.54725 19
282 1 9.99529 -8.81776 -6.35653 17
283 1 -1.61858 17.8792 0.506646 8
284 1 -15.1106 9.70107 -1.09528 8
285 1 6.72697 9.3479 11.619 19
286 1 4.5605 -12.9254 -6.65362 21
287 1 -1.84826 11.244 5.25073 20
288 1 6.71475 -13.5168 6.94096 10
289 1 9.7629 -5.09173 5.43409 18
290 1 -2.70521 4.87586 12.365 20
291 1 -1.55543 -0.0727526 15.3046 14
292 1 -2.17484 14.0209 4.13135 17
293 1 6.68881 12.4512 14.2752 14
294 1 -9.76093 7.62062 -7.42194 18
295 1 -0.801843 -3.39995 -20.6426 8
296 1 1.85688 -7.97272 -11.372 24
297 1 -8.91675 -1.87584 8.6779 18
298 1 -16.6724 2.23667 4.72402 8
299 1 -6.15719 8.38274 0.653183 19
300 1 7.54737 -2.00014 8.84489 19
301 1 -9.59516 -15.4968 1.68423 17
302 1 4.76845 -10.4905 9.02976 13
303 1 -14.4037 -3.79297 11.9494 12
304 1 -8.73747 9.84503 4.78453 18
305 1 1.43441 -10.6542 -6.0669 21
306 1 -3.98846 -3.03498 -11.2625 19
307 1 5.22996 -11.7811 -14.4671 9
308 1 1.67169 10.3605 3.84863 20
309 1 -13.6686 -1.99657 -2.97539 15
310 1 3.14542 -5.98099 -18.8322 18
311 1 12.056 -3.01737 -9.3459 17
312 1 -6.99431 -12.5276 -13.9755 12
313 1 -15.3939 -8.81667 -4.64639 11
314 1 7.77568 9.0667 14.9294 15
315 1 8.7492 4.63009 0.647655 18
316 1 -11.5567 1.94394 -7.41575 22
317 1 2.5893 14.7178 -2.17254 18
318 1 -13.2619 0.79165 -5.11951 22
319 1 -7.6293 5.46138 5.57914 21
320 1 -10.2953 10.1669 1.97416 16
321 1 -5.37392 6.17321 10.4925 22
322 1 7.4261 2.52189 11.477 20
323 1 10.467 -4.04881 -6.87691 20
324 1 4.17738 -5.68488 13.3464 14
325 1 13.1617 -0.248174 -6.20031 16
326 1 -6.76822 -16.7101 -3.97917 11
327 1 -10.3658 -0.726576 -6.24537 21
328 1 0.264283 -10.8373 -2.4406 20
329 1 10.7842 -1.93176 6.64922 21
330 1 -10.5829 -6.33466 -6.08019 16
331 1 -7.93751 -10.6773 5.60725 22
332 1 -11.703 -8.9861 14.4329 10
333 1 -3.96381 11.0868 1.02263 18
334 1 -13.3939 -10.7864 -4.27024 16
335 1 4.49104 14.5815 13.7046 14
336 1 -12.3825 2.70254 0.189508 23
337 1 -4.22642 7.69621 -7.86329 20
338 1 2.98858 12.7269 5.37235 20
339 1 -15.7789 -10.3373 -1.63002 12
340 1 -4.21735 -12.0507 -6.64208 20
341 1 -11.6959 -3.34109 8.64981 15
342 1 -12.9893 7.46062 -4.89462 15
343 1 6.98228 -10.2311 6.99169 18
344 1 -6.74334 -13.4096 -3.04635 16
345 1 11.716 2.97105 9.48467 16
346 1 8.22466 3.10435 -13.9597 14
347 1 -14.3274 2.62223 -11.3692 9
348 1 -3.57153 13.4645 -7.66154 14
349 1 -10.1703 5.43079 -5.8282 20
350 1 -4.35167 -14.9844 2.37677 19
351 1 11.9803 7.07004 12.2121 18
352 1 1.27393 6.91941 -16.3965 11
353 1 -15.9275 -1.17596 0.124823 12
354 1 -7.78949 -13.3743 6.60492 17
355 1 5.4159 -13.4263 -11.0908 15
356 1 -14.2383 -1.89738 3.27008 14
357 1 -14.215 -5.37168 8.8623 19
358 1 -15.7598 3.97096 7.80229 10
359 1 -6.76432 6.57914 -13.5153 12
360 1 3.03739 -14.7339 -8.83046 19
361 1 -3.66561 -8.42394 -11.2424 19
362 1 -3.25005 -6.20728 11.0508 20
363 1 -4.74642 0.888341 -18.2239 10
364 1 6.87752 -14.9868 -1.79231 11
365 1 1.01452 10.5446 -6.00455 21
366 1 -15.3303 7.54594 7.15269 10
367 1 -7.76114 -8.79689 14.1241 14
368 1 -12.3239 -7.08424 -12.5897 13
369 1 -11.7815 -7.24138 9.11731 17
370 1 6.4333 -4.80461 7.53239 19
371 1 7.28981 -7.98236 9.36692 16
372 1 13.7168 5.93851 -4.33959 11
373 1 -6.70615 -2.78946 14.3282 16
374 1 1.05516 10.6374 -2.99082 19
375 1 -6.33698 -13.9765 -6.68879 14
376 1 -4.3296 2.31322 15.7126 15
377 1 -1.8487 14.2405 7.33428 14
378 1 -10.8434 -10.9893 -9.55826 13
379 1 7.8146 14.114 -0.878113 16
380 1 4.03844 5.62172 8.39186 20
381 1 -7.1468 0.894187 8.492 20
382 1 -13.8786 -0.878244 9.10754 14
383 1 -9.54978 -8.8081 -7.87809 21
384 1 -6.42058 8.33371 7.46841 21
385 1 -8.996 -13.9136 -11.4921 10
386 1 -1.84818 -4.53344 -14.8327 19
387 1 -7.65181 -10.6983 2.07658 20
388 1 7.84992 -2.51336 12.2215 16
389 1 -5.67354 -11.2212 14.0288 10
390 1 -9.98874 2.15661 -10.8186 22
391 1 9.23234 6.78354 2.1216 20
392 1 -9.04847 -14.7923 -5.49629 11
393 1 -3.59816 16.1487 -1.89374 11
394 1 -3.35594 9.28698 17.7593 6
395 1 -15.7821 -3.37529 -4.83589 14
396 1 0.261875 16.0716 -6.52081 11
397 1 2.35811 7.47478 -7.54413 18
398 1 -6.72781 -8.24938 -6.39105 20
399 1 7.97231 1.10278 16.1828 20
400 1 -4.80708 -12.6025 -15.5576 8
401 1 1.52749 -5.00039 -9.52266 23
402 1 6.69727 -14.0534 1.8567 12
403 1 -10.8797 6.69253 5.93781 16
404 1 0.774461 5.48745 13.0889 20
405 1 4.08498 11.8986 -4.41534 16
406 1 -7.60142 10.8647 -12.0344 10
407 1 -17.5141 -7.9103 -1.45533 10
408 1 2.89032 15.6346 3.86104 14
409 1 -7.52798 0.674962 -11.1582 20
410 1 14.8616 5.39697 -1.06368 8
411 1 3.34887 8.00016 -11.9362 11
412 1 14.0067 -2.87322 2.25287 13
413 1 -1.59289 0.185585 -11.0231 22
414 1 0.1143 -16.3063 5.36106 15
415 1 -0.797421 -9.02871 14.8598 7
416 1 -12.8542 3.72146 -9.29431 21
417 1 -6.7974 -16.8489 2.13501 15
418 1 -2.97788 -12.0363 -13.2035 10
419 1 5.38241 14.108 4.43223 16
420 1 2.47437 2.63813 -11.0995 20
421 1 3.02321 -2.77323 16.2048 12
422 1 -11.9437 -0.122323 11.5736 18
423 1 -0.339331 -18.8253 0.175288 18
424 1 -11.7973 -5.1833 -0.951684 15
425 1 13.227 -9.43974 -5.16921 12
426 1 11.1341 -3.71137 0.407957 20
427 1 5.49051 -8.29452 -7.47271 17
428 1 4.21778 -0.478387 -11.569 20
429 1 8.54334 -8.93738 -10.2107 12
430 1 -7.82664 1.54655 15.4047 17
431 1 4.68475 14.4595 0.967942 21
432 1 -7.30642 3.20093 -19.4269 6
433 1 5.39982 -3.48265 -19.2635 10
434 1 -5.98413 -4.55259 10.058 15
435 1 -0.27307 15.9836 2.59919 12
436 1 -7.46117 -5.19272 -14.8898 18
437 1 -16.8727 -6.03223 3.00807 8
438 1 -6.669 -7.25056 -19.2017 8
439 1 -7.97671 -12.6687 12.3547 15
440 1 -1.96679 9.16267 -6.49939 20
441 1 13.7677 2.92428 15.9424 10
442 1 12.1642 5.54942 0.0782857 16
443 1 -12.2742 -11.344 -0.968491 15
444 1 -6.57457 -1.87967 -16.7488 14
445 1 -9.14242 7.67624 8.09554 18
446 1 11.3599 -8.26121 2.48308 17
447 1 2.8948 14.6527 -6.38021 13
448 1 13.8051 -0.502086 -9.52192 12
449 1 2.59708 7.18579 14.5995 20
450 1 -11.0416 -0.976141 5.91394 16
451 1 5.67724 7.98459 9.18204 19
452 1 10.5491 3.30352 16.9301 11
453 1 -1.51852 -0.0364638 -14.293 20
454 1 -3.93486 -7.66347 13.3779 16
455 1 5.28392 11.1285 8.58404 17
456 1 6.90184 8.05075 -11.5543 12
457 1 -9.24852 13.5828 -3.32398 13
458 1 -1.5697 11.6272 -1.20711 21
459 1 12.7755 -5.60101 10.3704 8
460 1 9.16505 0.0605313 -12.3641 14
461 1 8.50463 -13.2316 -0.716777 11
462 1 12.5361 8.71768 14.7542 11
463 1 -15.293 -10.2122 1.60187 15
464 1 -7.72613 4.81622 -10.7631 21
465 1 -10.0205 -2.41473 11.2753 19
466 1 -4.94554 7.03117 -10.9971 19
467 1 -1.41864 -16.8064 -4.4168 20
468 1 4.76389 -3.36426 -9.98248 19
469 1 -1.05831 12.7276 -6.4201 17
470 1 -10.9899 -5.14308 -15.3259 10
471 1 7.19793 -16.3558 4.7203 7
472 1 -12.22 -8.52342 -2.14862 18
473 1 0.226441 6.78628 -13.1561 17
474 1 -5.1156 7.60744 15.4123 14
475 1 -9.883 -5.27406 11.3007 18
476 1 1.94991 -8.39544 -7.76318 22
477 1 -1.23759 -4.33078 13.9101 17
478 1 -13.5905 4.72849 5.82453 18
479 1 7.00966 4.09241 17.5806 16
480 1 0.312234 18.0731 -2.07196 7
481 1 9.84412 -6.23291 -4.74787 21
482 1 2.01072 8.77708 12.2562 22
483 1 1.79515 1.27825 -19.2939 9
484 1 -6.0793 -13.9866 11.3723 12
485 1 5.94741 -3.2114 -15.8684 17
486 1 1.37869 13.4745 2.12218 20
487 1 10.8142 3.32714 -11.7929 14
488 1 -0.988098 -5.33375 -11.3344 21
489 1 -7.56846 -11.0929 -5.11641 19
490 1 -12.749 -0.805251 -14.2318 10
491 1 12.6779 5.71616 3.23294 15
492 1 12.8825 -0.731902 -0.0878966 14
493 1 5.20588 -7.84078 -10.6194 18
494 1 13.2189 10.3299 11.6781 10
495 1 1.78559 -17.8813 -8.46081 9
496 1 2.88024 -2.46233 -20.1433 12
497 1 10.0751 12.3312 6.55572 12
498 1 9.91127 10.0938 12.4127 17
499 1 10.7864 5.31477 -6.02032 18
500 1 13.4687 -8.35344 4.35043 9
501 1 7.40904 7.69448 -7.88068 20
502 1 5.62921 6.12371 15.1202 22
503 1 14.5303 5.73241 13.8351 9
504 1 13.8601 7.76978 -2.04507 9
505 1 1.62132 0.0859665 13.9995 21
506 1 14.6258 -2.63607 -4.54719 10
507 1 10.2259 -2.23775 10.177 16
508 1 -6.05917 -3.38469 -9.57411 18
509 1 13.5392 4.3637 11.047 13
510 1 -12.6623 4.08105 11.6235 11
511 1 7.01525 12.0153 10.688 15
512 1 12.976 1.74418 12.8115 15
513 1 1.92396 8.19058 8.48386 22
514 1 -1.46807 13.3048 12.006 14
515 1 -1.52408 -16.1779 -1.73108 23
516 1 -6.83228 8.66118 -1.94675 21
517 1 10.9993 8.23563 -7.03593 17
518 1 9.9266 -5.61548 -12.0042 9
519 1 0.158923 13.6868 -0.676606 16
520 1 -6.68117 -15.6158 -9.85284 11
521 1 6.9871 -14.4461 -8.50625 11
522 1 -15.8477 5.53296 4.52428 15
523 1 -9.78485 7.58484 -11.5947 13
524 1 -2.77108 -20.0033 -0.940288 11
525 1 -10.4445 0.186204 -9.36869 22
526 1 -12.7398 3.03986 -2.79555 19
527 1 7.61297 -7.60285 2.83391 20
528 1 8.58457 14.1168 8.75832 10
529 1 -2.2073 -11.4851 6.21193 17
530 1 -15.1938 -3.41646 -8.46117 15
531 1 4.63044 -0.401985 -17.6817 16
532 1 -3.39103 1.9471 12.7704 20
533 1 9.88962 5.99217 -12.4417 13
534 1 12.6336 -0.0365862 14.9433 11
535 1 8.2113 1.93125 -8.49512 18
536 1 8.37247 13.4068 -7.10045 8
537 1 -1.0445 -13.1265 -11.6453 14
538 1 -11.9653 -5.46132 13.7847 11
539 1 13.7027 -3.37023 5.88465 15
540 1 -1.19456 10.646 15.2987 14
541 1 4.91986 8.33356 -2.54907 18
542 1 -12.9468 7.59057 -2.09972 17
543 1 9.66747 9.89721 1.25459 19
544 1 -10.1507 -11.4854 -3.0646 20
545 1 9.74409 -5.94041 2.14521 21
546 1 3.80965 11.7686 2.13939 21
547 1 -6.42971 2.83628 10.8114 19
548 1 -9.59642 -8.38064 2.79847 20
549 1 -9.39537 -2.97617 -8.15212 20
550 1 9.51316 -1.38267 15.0185 15
551 1 1.37179 -5.40066 11.2966 22
552 1 9.97006 4.74085 11.3853 18
553 1 -5.0268 10.5715 4.0372 22
554 1 1.66403 -0.137718 -16.3711 19
555 1 -8.25355 -4.9623 8.48627 19
556 1 6.68484 -0.543794 -9.50801 22
557 1 7.24669 -12.07 -6.40672 15
558 1 7.7551 4.00453 8.52967 19
559 1 -9.29949 -4.13742 14.4538 18
560 1 7.96771 9.67734 6.94497 17
561 1 -3.49608 -1.90847 12.2966 20
562 1 -5.40875 4.73599 13.8512 18
563 1 -4.95149 -4.83854 -15.988 15
564 1 -8.14893 0.0930953 11.9798 20
565 1 4.54504 4.17562 13.0754 18
566 1 -5.47203 -18.6298 4.74361 11
567 1 13.0164 2.35502 -1.60553 15
568 1 3.79064 -15.2873 -2.69979 18
569 1 7.41222 12.1225 1.05611 22
570 1 7.13532 15.0853 1.70546 13
571 1 6.03423 -6.27504 -17.0213 12
572 1 4.59889 8.71086 -8.66437 17
573 1 8.25465 8.63109 -1.37984 18
574 1 -6.55946 -10.7836 -1.57127 22
575 1 -3.53447 -1.92534 -14.042 19
576 1 -9.82044 4.95139 0.548968 18
577 1 2.49415 -8.51392 -14.9963 20
578 1 13.4706 3.4417 -10.3964 10
579 1 9.61349 11.4553 -1.52954 16
580 1 10.3581 0.279699 11.7139 18
581 1 7.2252 0.110387 13.0444 18
582 1 -4.60854 -11.5402 10.6937 15
583 1 -6.27675 3.10077 -13.0494 19
584 1 0.618588 11.1003 6.84789 17
585 1 3.94587 -10.2469 -12.083 18
586 1 5.55354 15.9639 -4.4789 12
587 1 6.98718 7.51971 4.30507 23
588 1 13.6151 -9.17721 -1.59415 10
589 1 6.10603 10.8707 16.9783 12
590 1 -12.5274 -5.62804 6.24058 19
591 1 4.43163 -15.7695 6.68373 10
592 1 -8.46194 14.5709 2.19308 12
593 1 4.05542 8.48205 3.54283 20
594 1 -13.958 -4.88161 2.04109 19
595 1 2.02707 0.180392 17.8241 12
596 1 -6.62377 3.60195 -15.7974 17
597 1 -4.72253 9.33018 -13.0985 11
598 1 4.0432 -10.9717 5.71497 18
599 1 7.46119 5.60389 -10.3013 17
600 1 -11.0487 5.26499 14.5643 12
601 1 3.38902 -5.49038 -15.3535 21
602 1 2.80988 -13.5845 8.73418 10
603 1 -3.97499 13.5003 -0.792238 18
604 1 -3.5433 -2.25464 15.9418 12
605 1 -9.79359 -8.82155 -11.2723 18
606 1 -4.45428 -7.73544 -15.0372 14
607 1 -8.78235 -9.87408 -13.843 13
608 1 3.04437 12.3814 -8.28725 11
609 1 -1.16006 11.0903 9.03443 19
610 1 1.5698 -10.3841 -10.1509 22
611 1 5.05351 -12.9479 0.0460153 20
612 1 1.33714 -8.11301 9.90821 18
613 1 13.732 2.26537 -8.06162 12
614 1 -1.1518 -14.1019 -6.25602 20
615 1 -9.30056 -7.59426 6.48657 19
616 1 -0.478534 -19.2635 -3.14908 13
617 1 -10.6812 -11.7751 -6.27538 19
618 1 -9.92609 -2.43462 17.0213 10
619 1 -6.92816 -14.2596 0.323735 20
620 1 13.5263 3.15988 -4.9777 14
621 1 -6.67038 11.4861 6.57468 14
622 1 -13.8952 8.12181 4.74195 14
623 1 10.8136 -2.65531 3.8679 21
624 1 -14.6616 -2.95196 -11.9886 12
625 1 -1.03882 10.4877 -8.86991 17
626 1 8.32001 -3.32821 -11.4072 14
627 1 4.30688 12.482 12.2182 20
628 1 -15.8836 -0.520523 -10.0796 13
629 1 -15.0261 -9.73764 -7.67835 9
630 1 0.0547931 2.96 16.9951 13
631 1 4.89011 2.72483 -12.9239 19
632 1 8.21479 14.7349 5.53847 11
633 1 -4.52338 0.465678 10.5518 21
634 1 -3.82199 -17.9417 -2.54895 17
635 1 -7.51255 -16.2155 9.49182 10
636 1 9.7727 10.673 9.67739 17
637 1 -1.3349 -10.0683 -11.7326 20
638 1 -9.60605 8.19233 -0.884564 18
639 1 7.13828 5.087 3.04543 22
640 1 -10.8936 -6.14729 3.44178 19
641 1 12.6769 6.73557 -10.5651 10
642 1 -3.35328 -15.0793 -8.08766 16
643 1 1.62785 -18.2691 -5.00897 12
644 1 0.656137 -15.7571 0.0347251 19
645 1 4.96598 2.38115 -9.47744 21
646 1 5.99968 10.7052 5.07461 19
647 1 -5.08502 -0.126058 -12.6176 21
648 1 -1.40785 -0.0381329 12.431 19
649 1 -0.933309 2.0569 -16.4014 16
650 1 -13.0143 -0.135664 -11.3367 17
651 1 -10.3963 -6.56773 -3.20981 21
652 1 -1.70684 14.5275 -3.20898 16
653 1 -3.52775 -5.91906 -20.1303 9
654 1 10.869 1.63366 -6.93565 23
655 1 12.0211 -7.2556 -0.512497 15
656 1 -10.5285 6.00954 10.2017 15
657 1 3.41576 -11.5522 2.69397 22
658 1 10.4991 -9.82908 -0.200714 14
659 1 11.9728 -5.68426 7.28906 15
660 1 0.770185 14.7487 5.72956 17
661 1 -13.7492 0.981174 14.4678 10
662 1 -10.3341 1.98529 12.9192 16
663 1 -3.26085 -14.0642 9.26848 12
664 1 3.62839 9.62914 10.6697 19
665 1 -16.3517 -5.43589 -0.374357 10
666 1 7.41303 -8.70313 -4.51553 16
667 1 -11.4188 10.8677 -1.53318 13
668 1 4.62237 -14.6538 3.66041 18
669 1 4.47753 1.21246 15.8195 18
670 1 0.474845 13.6191 9.4968 17
671 1 -0.0968659 -12.9421 7.635 18
672 1 1.90837 2.86642 11.952 21
673 1 -16.3608 -6.13255 -3.42123 10
674 1 0.939412 9.13385 16.3733 14
675 1 4.33151 9.38836 0.241105 20
676 1 -12.6397 -9.71633 2.27093 18
677 1 -3.31906 -19.2359 2.06049 12
678 1 4.38982 -7.61275 7.80312 22
679 1 9.91348 -8.24184 6.89753 17
680 1 6.44552 6.02541 6.41087 21
681 1 -1.01689 -11.0591 -8.17708 20
682 1 -3.46105 2.40017 -11.012 24
683 1 -9.74493 -0.889633 14.3016 20
684 1 -3.56628 15.5617 2.17531 9
685 1 12.7916 -0.576644 3.57183 16
686 1 5.00101 5.43754 -8.37573 19
687 1 -3.8062 7.41431 12.42 18
688 1 7.02698 5.81959 11.0592 18
689 1 6.436 -10.2648 -11.5637 15
690 1 -9.07202 -12.4049 -0.278872 17
691 1 14.6337 -2.47031 8.87945 9
692 1 1.95363 -2.42396 -10.9836 22
693 1 2.21481 5.75504 17.7954 11
694 1 1.91887 -13.6077 -11.8504 13
695 1 6.12278 2.96664 -16.736 12
696 1 11.2785 0.699948 -10.1203 15
697 1 13.9478 -6.07305 1.00575 11
698 1 -0.859092 -7.10412 11.6778 19
699 1 -3.76205 -5.9257 -12.6699 19
700 1 5.74743 13.9787 -6.5236 13
701 1 -11.7992 1.2904 3.54341 19
702 1 10.647 4.6127 -9.22305 21
703 1 12.3824 6.58483 6.16879 12
704 1 -0.657851 -2.15883 -16.5804 17
705 1 -7.39678 14.2671 5.07232 12
706 1 12.1971 8.78311 8.94358 13
707 1 8.73332 9.93763 -7.62036 15
708 1 6.91547 -1.36429 -13.2683 16
709 1 7.64981 -7.84498 -0.519562 18
710 1 -13.5701 -0.0180218 -1.67638 21
711 1 9.40885 11.5162 4.01526 17
712 1 -12.6883 -14.1937 1.65302 11
713 1 -13.2414 6.42203 -7.96599 16
714 1 4.5904 3.12977 9.79986 21
715 1 -12.4124 -3.4769 -5.93888 21
716 1 -13.663 0.654725 6.24847 11
717 1 10.6229 -11.6333 -5.69503 10
718 1 -14.7986 -12.775 -6.33214 7
719 1 10.3387 -8.59294 -2.79295 20
720 1 -14.4626 3.09621 2.84526 17
721 1 10.8258 6.07938 9.2193 18
722 1 -5.03896 -10.5477 7.78891 17
723 1 11.2865 0.709146 17.5095 8
724 1 12.7498 -5.34427 3.99482 16
725 1 -15.8216 2.27014 -0.959787 13
726 1 -0.886328 8.45611 10.4259 22
727 1 4.49497 5.32626 -11.7267 19
728 1 -6.72739 -7.80081 -13.2112 19
729 1 -4.63568 13.9541 5.87366 16
730 1 -10.1231 -15.6044 7.28846 16
731 1 9.9439 10.8055 -4.98283 13
732 1 -2.61223 4.91553 15.9023 13
733 1 12.6878 -5.48249 -4.55014 15
734 1 4.63059 -8.60511 11.7419 13
735 1 -4.78846 10.1086 -10.1491 16
736 1 6.7512 9.71561 -4.81432 16
737 1 -6.62257 -1.62007 10.9101 19
738 1 9.76114 2.46951 14.1204 22
739 1 -4.58213 -6.17168 -9.53423 18
740 1 12.3224 11.315 2.38292 9
741 1 -15.2428 3.63369 -5.18313 15
742 1 -1.83483 -15.1863 6.90789 17
743 1 6.10193 10.8834 -8.31179 13
744 1 4.14736 -3.31691 11.3123 19
745 1 -4.30004 -11.5212 -3.27795 21
746 1 -9.24476 12.5606 -0.522696 17
747 1 -15.7908 7.06384 -3.0561 12
748 1 12.3032 -3.95254 -12.6031 7
749 1 -7.36059 -10.3723 -16.8968 9
750 1 -10.2501 4.6421 3.57117 18
751 1 13.3578 8.61642 -5.36284 9
752 1 4.26026 -8.82798 -17.8558 9
753 1 -9.49966 -6.50034 -12.7661 18
754 1 -4.26329 -14.9534 -3.99643 20
755 1 -4.63707 12.9897 12.6784 7
756 1 2.30955 -13.3876 -0.773937 21
757 1 0.155759 3.83488 -18.3107 13
758 1 13.0989 -0.520411 -2.8393 16
759 1 6.66153 9.6874 2.36521 19
760 1 -1.93881 -17.1794 -8.34863 12
761 1 2.73027 -3.22222 -17.1942 20
762 1 10.9719 2.25166 0.0556611 17
763 1 -3.52101 1.93691 -14.2799 22
764 1 -3.65983 -8.41339 9.50408 21
765 1 2.83347 8.9 -4.73284 14
766 1 -10.9056 5.30621 -2.79391 21
767 1 -13.9139 1.99979 9.53909 13
768 1 2.63283 2.98611 18.5265 12
769 1 -12.8413 -13.8497 10.0906 10
770 1 4.61004 8.67181 6.917 20
771 1 -1.76458 -16.3165 2.05686 20
772 1 0.569325 7.22603 -4.7402 18
773 1 -9.31426 8.01113 13.1787 10
774 1 -14.9833 -1.07227 11.7873 12
775 1 -10.5337 14.0713 4.16304 10
776 1 -2.64455 -9.6837 11.9882 15
777 1 0.0710733 -15.35 9.10406 11
778 1 8.72446 7.3683 7.58167 19
779 1 7.06866 -5.56043 -6.46736 21
780 1 1.09 -10.3494 -13.1875 18
781 1 -8.92818 4.65174 -13.3099 18
782 1 -7.81201 0.394914 -14.7917 19
783 1 3.01453 12.6548 9.06836 19
784 1 -6.75429 -5.93515 12.5737 19
785 1 -4.43856 5.06022 -9.43435 18
786 1 -15.903 -0.706677 -6.7049 13
787 1 10.2768 13.3592 1.41286 11
788 1 -7.8603 -17.4749 -0.661137 10
789 1 11.8817 12.3744 8.83341 10
790 1 -11.9257 -14.0285 -4.65531 11
791 1 3.09215 15.6518 10.8912 10
792 1 -12.3023 -0.846293 16.942 10
793 1 -5.95011 -15.0055 -12.8089 10
794 1 12.87 -2.89613 11.1353 8
795 1 2.65529 -19.3713 1.18403 10
796 1 5.20343 14.5032 16.6243 8
797 1 14.7722 -3.82003 -10.3128 10
798 1 6.2963 -10.0069 -1.86125 16
799 1 1.02778 0.294966 -12.7602 20
800 1 -10.8329 2.00181 -14.2065 15
801 1 -9.25977 3.22213 -16.806 10
802 1 -8.57139 5.18795 11.9503 20
803 1 9.27019 -5.01081 10.1922 12
804 1 -13.8784 -7.76576 3.93689 20
805 1 10.062 -0.159449 1.66601 20
806 1 3.31697 2.24655 -16.8584 16
807 1 13.1522 8.0278 1.09557 12
808 1 0.959567 11.3626 10.8967 19
809 1 -16.0785 -6.61426 6.41793 14
810 1 4.23596 -17.0201 -6.82292 10
811 2 -13.6976 -2.64835 -7.51831 18
812 2 -7.60347 10.4064 -2.29808 22
813 2 -2.16805 -3.0157 -11.1431 22
814 2 -4.69208 5.54662 12.1851 19
815 2 3.27765 -13.4928 -10.5576 15
816 2 -7.71903 -8.992 -8.20531 20
817 2 1.71891 3.97242 16.9048 14
818 2 5.52447 -0.327965 13.4752 22
819 2 -13.1546 -9.52434 -0.711452 18
820 2 -11.2024 7.316 -5.87642 18
821 2 1.32332 11.6755 5.31409 19
822 2 -14.2636 -2.77697 4.82823 15
823 2 1.26659 11.776 -9.09487 13
824 2 9.62198 2.85994 4.98941 20
825 2 -6.47551 13.1853 -7.47278 13
826 2 6.78761 9.49516 -7.24338 15
827 2 -13.7086 -1.31365 -12.6849 14
828 2 -9.36601 -7.70328 -9.7229 16
829 2 2.44769 0.717876 12.1127 19
830 2 7.31437 -3.83657 -9.84524 18
831 2 -0.0514911 -16.0147 7.21963 13
832 2 -7.55615 7.70967 -0.369127 18
833 2 -16.2632 -2.56496 -6.62562 13
834 2 11.5022 1.06351 10.0111 17
835 2 2.41587 -13.7526 -7.35669 19
836 2 -9.55717 -16.4577 -0.472958 11
837 2 -10.3272 -7.09846 10.4517 16
838 2 -6.45729 -14.8271 2.33324 17
839 2 8.11019 -6.54147 10.6646 10
840 2 -2.29473 -16.4363 -10.112 11
841 2 4.90141 -2.57783 15.9757 11
842 2 -1.73008 8.18735 -8.28766 18
843 2 3.44955 -17.7892 1.86937 13
844 2 -11.9686 -11.1774 -2.97372 17
845 2 -1.23009 5.81951 13.2613 18
846 2 -8.84298 5.16379 2.18665 19
847 2 1.96838 -1.67619 17.1726 10
848 2 -6.79275 8.09888 -3.99187 23
849 2 6.71979 -12.2569 2.26184 18
850 2 -4.44915 2.66377 10.7034 21
851 2 -6.63015 10.4495 -6.42372 18
852 2 11.9028 11.7504 6.85016 9
853 2 8.48734 13.6461 0.919883 16
854 2 10.2249 -2.82409 -8.39828 16
855 2 -7.32504 4.56263 13.234 18
856 2 4.11853 -2.3602 -18.4869 15
857 2 -5.48447 7.71661 -12.7731 14
858 2 9.5312 7.23993 -3.20948 16
859 2 -13.0195 -4.06243 13.3062 16
860 2 -15.2595 6.09864 8.28509 10
861 2 15.0537 -2.11431 -9.51738 10
862 2 -12.0495 -7.35597 13.8747 13
863 2 -2.15921 -6.68737 -11.6312 18
864 2 -6.10789 1.79849 -18.9231 8
865 2 -14.1826 -6.90204 5.91333 16
866 2 8.73561 9.32911 -5.16528 18
867 2 -4.49437 8.23655 3.98766 20
868 2 -6.39626 -11.843 -6.72369 14
869 2 -8.63837 11.3828 6.716 14
870 2 11.1738 -0.778985 16.118 10
871 2 -1.56001 -8.23648 13.3999 14