ITEM: TIMESTEP
428000
ITEM: NUMBER OF ATOMS
1500
ITEM: BOX BOUNDS pp pp pp
-30.0 30.0
-30.0 30.0
-30.0 30.0
ITEM: ATOMS id type x y z Coordination
1 1 -14.9374 -4.90591 1.84483 12
2 1 0.922724 15.9877 10.9041 8
3 1 -3.37649 -7.91413 -0.756851 14
4 1 -12.6971 5.58362 2.61542 8
5 1 0.0318172 6.2482 14.3429 14
6 1 -1.67225 -13.1233 -11.4752 13
7 1 0.645566 -16.0086 -7.776 14
8 1 -4.72006 -5.10288 -15.2178 10
9 1 3.59534 16.8257 5.5738 10
10 1 -3.17529 -4.92873 0.555506 17
11 1 4.1769 7.8189 -11.2592 17
12 1 -11.034 0.0883828 -2.74981 16
13 1 -8.01558 -9.81396 -2.4098 17
14 1 -6.7833 2.61476 13.0769 11
15 1 -11.5559 -0.607943 -5.57802 21
16 1 -13.0042 -3.45801 -5.65334 17
17 1 -5.59578 -8.87084 -14.79 13
18 1 -8.4493 7.27322 -2.31964 18
19 1 1.05073 -17.1808 11.222 8
20 1 -2.10652 -12.7602 2.85715 18
21 1 -2.64239 9.43829 -14.0412 10
22 1 -7.34021 -13.4158 -6.77831 13
23 1 -10.4511 -3.10375 -3.80494 20
24 1 -3.21114 -11.2143 -2.80141 16
25 1 -2.34273 -4.05788 -9.065 17
26 1 7.57877 -17.7732 6.8394 10
27 1 6.7642 14.3834 -6.44738 11
28 1 -5.2893 12.7781 8.36644 10
29 1 12.9563 12.6846 -4.43777 11
30 1 4.65157 -5.81186 -14.005 8
31 1 -7.2118 8.68411 -11.0968 8
32 1 -3.54022 -4.14328 -5.4362 18
33 1 7.28531 -12.9363 6.50683 18
34 1 -3.50872 -8.70466 -4.18001 18
35 1 -1.90985 1.18262 -11.6586 18
36 1 -9.26405 -11.2354 -5.11962 14
37 1 9.97335 -11.2849 8.3164 12
38 1 -12.8615 0.212234 -0.650489 17
39 1 -11.062 2.30562 8.10091 16
40 1 -11.3816 -6.7861 5.67805 20
41 1 -0.252814 -11.4522 -3.93143 16
42 1 5.24569 -18.5454 4.42116 9
43 1 -5.23011 -6.13061 -6.81513 17
44 1 2.88357 -3.34427 11.7553 16
45 1 11.7013 -6.2883 -2.01126 18
46 1 -11.1253 -13.0395 5.9864 6
47 1 -9.50584 -11.4879 -12.2371 13
48 1 -1.1534 -6.55851 -12.8251 13
49 1 -3.86469 -11.8966 -10.9996 16
50 1 -7.68652 -9.98777 8.693 14
51 1 -4.61739 -0.517452 -5.82187 19
52 1 -12.9713 1.96625 -7.20601 13
53 1 0.270723 -3.57435 -12.1071 12
54 1 -3.9224 -4.52973 -11.8229 19
55 1 -2.83518 -4.01785 9.22001 17
56 1 8.20185 -5.96267 6.93668 16
57 1 7.56178 -13.5949 9.62474 13
58 1 8.0888 -3.07772 0.4526 15
59 1 9.17308 3.02023 -9.80855 12
60 1 7.63161 6.42835 -4.78052 17
61 1 -3.75429 -12.9028 11.0211 11
62 1 3.30947 -4.34992 -7.89545 18
63 1 -4.71267 0.98839 -13.8536 12
64 1 -13.588 -2.11982 -8.29167 13
65 1 -2.05406 -14.519 -8.65638 17
66 1 1.22801 2.29035 -12.38 18
67 1 0.749644 -11.614 4.74958 19
68 1 1.02123 6.63787 -3.79427 20
69 1 -1.4072 7.16303 -5.92994 16
70 1 3.57776 -15.5925 -8.3557 10
71 1 -4.68231 1.63075 -2.96247 17
72 1 -6.19726 -12.7224 -13.9472 11
73 1 1.26629 -6.07029 -14.6365 7
74 1 -6.79834 -6.19819 -12.8078 17
75 1 -4.36668 -13.4163 5.88337 18
76 1 5.8347 2.7534 0.395213 18
77 1 5.85538 11.9594 8.06519 19
78 2 -2.01332 9.48255 -0.632219 15
79 2 -10.5506 -4.6422 -11.403 12
80 2 -10.0453 -2.71818 3.43074 13
81 2 -11.0701 6.43974 6.80729 16
82 2 -8.01756 -7.87215 0.896839 17
83 2 -4.78016 6.63014 -8.7127 15
84 2 -11.3271 5.25318 -9.07363 12
85 2 -1.18469 -2.23924 -2.92693 16
86 2 4.2454 -8.06564 5.63514 15
87 2 1.31973 -1.31227 -9.11283 13
88 2 5.75243 -10.506 0.927572 12
89 2 -3.04668 6.79278 -2.10187 17
90 2 -5.38092 14.2336 -0.05149 18
91 2 -6.04724 5.85594 -1.14076 16
92 2 -3.64121 10.9627 -13.187 9
93 2 -15.709 -7.20735 -3.71653 7
94 2 3.95051 -14.8114 -6.62255 14
95 2 -3.80905 14.1559 8.62885 11
96 2 -13.1694 -9.68822 -7.13366 11
97 2 -11.8384 9.03586 -2.36872 12
98 2 -15.3094 -6.27673 6.01736 12
99 2 -13.2369 -7.0609 5.26925 14
100 2 -0.490825 -6.94186 -14.8733 8
101 2 -2.78192 2.92009 -9.44957 18
102 2 -9.95001 10.0765 -5.50457 12
103 2 1.35303 -0.716807 -5.36537 19
104 2 -10.7542 0.621584 8.02721 17
105 2 1.34709 -8.5861 6.49003 20
106 2 -8.16535 1.72271 -5.56618 14
107 2 -4.29665 1.4872 -6.66311 20
108 2 -5.04819 -0.660028 -14.9025 10
109 2 -13.6421 1.33738 -5.66072 12
110 2 -6.4442 -1.3624 -1.52513 17
111 2 -4.11955 -9.20861 -13.4051 13
112 2 -2.29015 -14.1082 -3.76655 12
113 2 2.21379 -7.27189 3.92372 20
114 2 -6.65569 0.722707 -9.73648 18
115 2 -8.68437 -2.12949 -10.0231 17
116 2 8.36082 0.418442 -2.2077 17
117 2 -8.85 -13.4731 -8.02166 13
118 2 -6.17048 -13.9998 -2.74028 9
119 2 4.47819 -14.7333 -2.82463 16
120 2 -3.5181 -4.62551 -7.41623 18
121 2 2.90024 6.56115 16.1212 13
122 2 -6.67242 -1.07991 -7.12422 16
123 2 -4.2908 7.90323 3.83456 18
124 2 8.60078 14.1328 -6.39917 10
125 2 3.59295 -17.6199 7.068 14
126 2 5.85292 2.56756 -5.66698 17
127 2 -7.04788 2.50622 3.14731 14
128 2 2.389 6.31543 -8.32447 18
129 2 9.01544 -12.3477 -3.40857 11
130 2 2.57303 14.8769 5.4121 16
131 2 -2.02044 2.06709 -0.451362 14
132 2 -0.634473 -14.5833 -7.06459 16
133 2 7.0107 0.524798 -7.77028 19
134 2 -3.73878 -6.08721 -16.2632 6
135 2 -11.2178 -6.36322 -1.60121 20
136 2 -13.9827 -9.46662 0.621805 11
137 2 -3.41162 -13.2827 4.36547 17
138 2 5.75456 3.96881 5.4781 16
139 2 4.97319 -6.11707 9.65313 14
140 2 4.29058 -15.8104 1.93999 15
141 2 2.50539 -13.7454 8.03855 19
142 2 -11.5687 -11.1177 6.14562 9
143 2 -7.48378 8.03316 -9.21781 12
144 2 -2.41315 -11.8083 -12.7376 10
145 2 1.39667 -12.1373 -8.55888 11
146 2 -9.13736 -10.3389 -13.6289 11
147 2 -6.61224 -6.57114 -8.06941 18
148 2 -3.25815 -14.8624 -7.13927 11
149 2 0.93349 15.4456 -7.38541 8
150 2 0.123913 3.25936 -14.7532 18
151 2 -5.24428 -13.2351 -12.0767 12
152 2 13.7076 -14.1116 2.73449 6
153 2 6.00679 -12.7883 8.83564 17
154 2 -5.58829 -1.51002 -12.2474 17
155 2 7.74618 -13.9851 3.71884 14
156 2 -3.35885 7.84566 -12.4227 13
157 2 8.22644 -17.4177 5.20721 10
158 2 -3.09267 -0.692243 -7.93072 18
159 2 -14.6281 -3.82461 0.107361 12
160 2 -10.2108 7.1992 -3.85042 14
161 2 -0.220911 -1.28717 -0.251069 17
162 2 8.83051 -4.08239 -11.5492 12
163 2 11.6646 -7.75656 4.84789 10
164 2 7.57842 -5.76045 -7.13772 18
165 2 0.146379 -5.08427 -12.6578 12
166 2 -1.4021 -16.1311 3.09129 14
167 2 -9.34564 -9.19526 8.57838 14
168 1 -6.5914 11.8974 -7.14988 14
169 1 1.41864 -16.2514 -1.29098 12
170 1 -1.42543 -12.8294 5.95761 19
171 1 -3.3247 0.778088 3.39659 16
172 1 5.15822 -9.86031 -1.1195 16
173 1 -12.4014 -9.25347 -1.13027 12
174 1 -6.79184 5.24193 13.0305 10
175 1 -12.1275 -6.90294 2.88245 21
176 1 -5.0459 -5.43828 -2.2937 18
177 1 5.3463 -5.34644 -4.97787 17
178 1 -9.73771 -8.17643 10.0601 11
179 1 -6.75721 -12.7166 -11.0036 12
180 1 -11.1211 -2.54264 -0.787547 18
181 1 -3.09492 -10.748 8.13026 20
182 1 3.29819 -17.9881 -5.55028 7
183 1 -5.53384 -5.48183 7.99418 16
184 1 -3.70441 9.04481 0.108426 16
185 1 -5.58146 -8.10184 7.98525 17
186 1 -9.60218 4.24067 11.2199 12
187 1 6.27241 -16.7754 9.84338 11
188 1 -11.8907 7.21413 -2.04729 15
189 1 -13.7745 -1.8539 4.66931 15
190 1 -12.8263 0.213755 8.93791 11
191 1 -8.09773 -6.97237 13.2432 10
192 1 -11.1053 13.3615 -3.34986 7
193 1 -7.65168 -11.3731 2.34855 16
194 1 -0.0939771 -16.5541 1.80634 12
195 1 -6.1108 -5.88951 -10.0205 19
196 1 -3.23185 -15.4894 4.42105 14
197 1 -1.66866 -6.08773 3.67477 18
198 1 0.821217 -7.11166 7.84227 16
199 1 -12.9788 4.2898 -0.440981 13
200 1 -9.47798 -12.4999 -9.60181 12
201 1 -11.386 -10.433 -6.64707 13
202 1 13.2104 -11.0356 -1.09904 11
203 1 -0.780219 16.3106 -6.24121 7
204 1 -5.519 -15.5563 7.40175 11
205 1 -11.7104 -2.16231 10.741 9
206 1 -8.21404 9.49936 -4.66063 19
207 1 -6.55549 5.15892 -2.87973 16
208 1 -3.61043 -2.25672 7.24751 20
209 1 5.31874 14.12 3.66637 20
210 1 1.28269 6.16236 -15.1519 17
211 1 -11.5909 -5.66599 -3.4697 16
212 1 3.18239 -17.1972 2.71531 12
213 1 -2.38354 2.00954 7.19204 18
214 1 -8.93743 0.337463 7.26937 17
215 1 3.4209 11.0531 -2.41337 16
216 1 3.03758 -8.56916 13.2695 10
217 1 -0.511738 -3.29703 12.0305 18
218 1 -12.1706 -3.64165 -10.8776 13
219 1 5.98051 -9.58286 -9.92269 10
220 1 8.59236 -0.588997 -6.25173 18
221 1 2.82851 -11.7225 -4.32534 19
222 1 -13.0623 -5.31888 -0.212573 15
223 1 1.63568 -9.47575 -5.38051 18
224 1 -2.38663 -14.7619 0.690904 13
225 1 -9.34655 11.397 5.45314 12
226 1 -13.1588 -0.302738 -10.7586 7
227 1 -5.21321 -3.14162 -7.48031 20
228 1 7.97727 -13.7256 -0.578847 13
229 1 2.01206 2.15604 11.2317 15
230 1 -0.192627 -4.20662 1.18818 20
231 1 0.299194 -3.22085 9.17902 17
232 1 -13.652 -10.3657 2.13488 9
233 1 -4.49048 -5.08519 5.55186 19
234 1 -5.22103 17.3683 -0.00985093 11
235 1 -4.96956 10.2652 -5.7032 18
236 1 1.15925 -14.5139 7.21894 20
237 1 -6.37368 -8.18189 -4.19402 16
238 1 -1.22979 1.44873 10.5294 19
239 1 5.08936 -19.1528 7.57928 9
240 1 -10.6974 -9.6556 7.32576 12
241 1 1.4825 -2.27698 4.06064 19
242 1 4.06614 -2.21697 14.5707 10
243 1 3.46765 1.68813 -6.8097 18
244 1 -0.394753 -16.5301 9.26723 14
245 1 -8.12007 -8.96979 5.59215 16
246 1 -6.60981 6.26809 5.55205 16
247 1 8.78527 -5.73496 -0.217388 19
248 1 -8.05352 -5.07683 -7.99819 17
249 1 -0.357804 -12.1885 8.48623 16
250 1 3.30304 1.70786 14.5186 10
251 1 -7.12956 -13.5355 9.76736 8
252 1 -10.2771 -13.323 -6.89281 9
253 1 13.864 -7.93017 -1.66841 11
254 1 -9.76333 8.00639 6.62729 15
255 1 -13.9459 5.0162 -3.55721 10
256 1 2.81633 -6.83951 5.74518 16
257 1 -2.24712 -5.73695 12.2194 14
258 1 -13.7612 -6.31046 7.42955 12
259 1 2.27803 10.0503 6.80468 13
260 1 -11.0156 -4.97249 8.79231 15
261 1 -7.72106 -8.06259 -7.18511 17
262 1 -2.61253 -7.84846 7.38849 13
263 1 -5.98246 -11.6633 7.54049 17
264 1 -1.19259 3.96146 -10.5327 18
265 1 -5.66523 -10.5938 4.87286 20
266 1 -14.9255 -8.86036 -4.78569 8
267 1 -2.27898 7.57507 7.35666 18
268 1 9.42253 -5.79064 -7.29448 15
269 1 -8.59769 11.4685 -1.86589 15
270 1 -8.96469 -9.60172 0.315255 15
271 1 -4.22151 -10.3115 1.50268 17
272 1 8.26823 -8.58765 7.91857 17
273 1 -1.66331 17.6438 -0.234659 13
274 1 9.86479 19.1817 5.57946 5
275 1 2.04617 8.47578 -8.7323 18
276 2 -13.7891 4.20701 1.36235 10
277 2 3.96377 -17.36 4.41014 10
278 2 -8.04179 -5.28267 3.00989 17
279 2 -14.2032 -0.0906816 -2.17749 16
280 2 -13.2656 -3.84196 -7.60857 13
281 2 -7.16598 -9.42529 7.09866 14
282 2 3.4427 -1.33739 3.55842 19
283 2 -10.6688 -10.3439 -4.64669 13
284 2 -5.89523 -11.2943 1.23462 15
285 2 -3.69869 -3.37819 -3.2339 17
286 2 9.55051 8.74474 7.40595 12
287 2 4.13102 1.42496 7.55155 16
288 2 -13.213 2.24152 8.82344 8
289 2 -14.155 -3.44613 3.55695 15
290 2 -4.90126 5.12778 -12.3234 12
291 2 -1.73556 -8.17997 13.582 13
292 2 -7.09946 17.4586 0.101265 7
293 2 -10.3475 -7.45428 2.10504 17
294 2 -7.27584 -4.67716 7.66855 18
295 2 -0.78444 -16.9809 11.3347 10
296 2 3.03088 10.558 2.0525 17
297 2 -2.2125 -9.62357 6.91921 18
298 2 0.530311 -14.2938 -1.8045 16
299 2 -10.7969 -9.48037 -0.537997 12
300 2 -11.453 5.0733 0.708128 15
301 2 5.87803 -7.20733 -4.63776 18
302 2 0.995309 -7.5504 9.81629 13
303 2 2.58298 9.51542 16.6458 8
304 2 7.26698 9.62889 -9.1328 13
305 2 -12.0468 -2.08032 5.76499 18
306 2 -5.44396 -2.72299 -9.54146 20
307 2 -13.3129 -1.64998 -5.42214 15
308 2 -5.61205 -6.62129 4.4223 15
309 2 6.62374 -1.24259 -5.59021 15
310 2 -6.79951 1.16777 -2.6736 14
311 2 -11.2378 -7.38769 -4.21781 15
312 2 -12.2853 -10.6133 3.29325 13
313 2 2.1328 -12.6048 2.03079 19
314 2 -5.25562 -11.6216 -2.29925 16
315 2 -5.11748 -10.0615 8.49047 19
316 2 -0.371343 -10.9475 12.8746 10
317 2 -10.1597 -1.87471 -5.19264 18
318 2 10.5062 -10.3601 3.60897 14
319 2 -7.36432 1.34705 11.6129 14
320 2 0.411896 -7.22847 -2.35072 17
321 2 8.67985 -10.0189 9.06132 13
322 2 -8.91537 -8.3652 -8.41542 14
323 2 -8.6282 -8.04809 11.6135 11
324 2 -11.8452 -1.39825 -2.05149 16
325 2 6.18694 -3.73475 -4.41271 15
326 2 0.181203 -11.6869 6.6717 19
327 2 2.50103 -4.06643 2.05183 20
328 2 -6.44651 -9.16289 -8.48466 16
329 2 1.29731 -8.03564 14.0128 10
330 2 6.23965 -14.4581 -0.77197 14
331 2 4.48685 -6.36049 0.444509 17
332 2 0.33603 9.25907 7.13377 16
333 2 7.31966 7.0566 13.2868 9
334 2 1.7059 -16.0763 2.21596 17
335 2 0.1521 2.8956 1.4516 9
336 2 -4.1894 8.27322 10.7731 12
337 2 13.9749 0.320581 1.28036 13
338 2 -6.31768 -7.01078 9.24701 18
339 2 5.96869 4.57606 12.5385 11
340 2 -3.36993 -6.19999 2.24885 18
341 2 -8.11299 -11.6184 -3.56218 15
342 2 -9.47639 13.2074 -3.79072 10
343 2 0.678622 -9.27004 2.63406 20
344 2 1.81048 -10.3484 -3.42249 20
345 2 3.64758 9.46446 -13.3862 11
346 2 -12.5209 -8.73437 7.14931 10
347 2 -12.5745 -7.12318 -9.287 13
348 2 6.2972 -18.541 8.6317 8
349 2 -0.0346301 -2.05963 13.4722 12
350 2 5.01464 -3.55287 2.59228 19
351 2 -4.41432 -8.32538 15.6391 8
352 2 4.20064 -7.13335 13.0301 10
353 2 -1.79933 5.80175 3.55636 17
354 2 -5.2965 3.83577 13.3778 15
355 2 -0.752626 -13.773 1.27321 18
356 2 -8.81663 5.16263 -2.84036 15
357 2 -2.32005 0.153461 11.3771 18
358 2 -9.36523 0.635049 5.25196 17
359 2 -14.5811 -6.66261 -0.401897 12
360 2 7.89477 -7.21293 3.41345 15
361 2 -7.40387 0.74785 9.17601 16
362 2 0.873922 -7.81756 -5.21484 17
363 2 8.70427 -11.9023 -0.0794754 14
364 2 8.29414 -7.28973 10.3395 13
365 2 12.6062 -2.17122 3.89797 12
366 2 -2.84947 -2.30736 8.77418 16
367 2 9.70581 -3.75784 1.89594 19
368 2 -2.36273 10.5169 -11.0174 16
369 2 -0.0334248 -10.3347 9.41101 19
370 2 3.5015 13.4705 3.05724 17
371 2 -2.26498 -0.728082 2.75289 15
372 1 -2.32366 1.39348 -6.25709 19
373 1 6.19133 15.1292 0.386264 18
374 1 -12.3644 6.57087 8.76386 8
375 1 1.38564 7.7718 7.7232 16
376 1 3.81032 14.7796 -1.16332 16
377 1 -5.15503 -13.3498 2.79711 15
378 1 -9.90088 14.0963 4.03495 9
379 1 -3.71804 9.45304 -11.5673 14
380 1 -0.83264 13.8047 -7.34381 13
381 1 7.83923 5.75894 -7.39876 16
382 1 -6.61887 0.424635 -0.831521 18
383 1 -3.9667 15.0262 -1.67474 12
384 1 8.34288 1.31226 -15.3459 8
385 1 -7.03831 -5.68867 4.51821 18
386 1 -9.9008 5.48916 -4.63359 16
387 1 -6.76685 6.23307 -5.07624 20
388 1 1.33866 6.54074 1.86416 15
389 1 9.13735 13.2736 6.32303 16
390 1 -6.42433 4.01297 -12.1494 10
391 1 -10.0502 1.52161 -9.28806 15
392 1 3.56025 -4.85407 -11.2794 20
393 1 -6.9358 2.63994 -9.73392 17
394 1 -9.17122 -8.82924 3.47033 17
395 1 3.14507 3.25969 4.60431 13
396 1 -11.0431 -3.61146 4.83195 17
397 1 -2.35574 3.00505 -14.1892 18
398 1 5.95677 1.72892 -8.9621 14
399 1 2.73853 -1.69972 -11.296 12
400 1 -7.31586 6.40941 0.110525 16
401 1 16.0794 12.746 1.61161 11
402 1 -6.54067 8.61627 -7.4538 16
403 1 -14.6916 -0.358983 -6.08097 12
404 1 4.87788 6.12985 -9.21974 17
405 1 3.67254 11.2392 -12.6148 8
406 1 -5.75621 -2.67277 10.847 14
407 1 11.4805 16.2801 6.75354 10
408 1 -1.37358 11.3227 -0.215505 18
409 1 -1.26199 9.4245 14.1278 13
410 1 -0.785849 10.9422 11.2387 10
411 1 -3.72765 2.11563 0.411524 15
412 1 1.36886 -13.5802 -9.72021 15
413 1 -3.4253 -0.238834 -15.9436 9
414 1 -3.96735 3.8449 -10.7654 18
415 1 -8.40978 -0.156578 -3.34581 19
416 1 -2.27691 -1.16804 -4.11714 19
417 1 -11.4369 4.3961 -7.20333 16
418 1 1.32921 -13.9771 2.98521 18
419 1 -6.55348 9.6971 -2.75512 14
420 1 -12.2699 0.402797 1.86734 15
421 1 10.988 -2.55904 -4.31778 16
422 1 1.65386 11.5979 -10.6271 10
423 1 5.7823 12.6268 10.9678 10
424 1 0.0421059 0.239275 -4.50323 18
425 1 6.14898 15.1292 6.30539 14
426 1 12.5572 -9.73333 -3.91994 11
427 1 0.265788 -6.52455 -0.65845 15
428 1 -16.3896 -0.304451 2.25791 9
429 1 -10.2151 -6.9165 0.143885 15
430 1 7.38759 8.03861 -10.5977 11
431 1 -5.87697 11.2489 5.28213 19
432 1 12.671 14.9779 -1.94325 10
433 1 -5.54299 -2.67104 0.219256 19
434 1 4.11549 1.65024 -0.998532 21
435 1 -5.322 4.93171 -7.60897 19
436 1 6.37288 5.33958 -12.4413 12
437 1 6.22954 -2.47722 -10.4405 18
438 1 -2.63783 -3.20549 -1.58784 15
439 1 5.68185 -10.4426 -4.08172 19
440 1 -0.555534 8.22477 -16.095 9
441 1 -1.97267 -1.83327 -7.06693 19
442 1 8.36236 14.0316 8.97797 10
443 1 -1.83062 -14.3568 -5.67819 13
444 1 -6.58214 5.97915 -9.87216 16
445 1 -8.81185 7.43444 9.85005 11
446 1 -3.62762 10.9888 -8.84195 15
447 1 10.4125 -8.2301 -6.68719 14
448 1 -15.0078 1.52118 -2.94173 11
449 1 5.12097 13.0387 -9.477 9
450 1 4.35821 12.526 -0.20785 19
451 1 -1.07578 15.4078 1.66547 16
452 1 -4.84879 12.353 -0.414736 16
453 1 1.75872 10.9089 0.702076 21
454 1 -0.711438 5.98335 -8.89156 20
455 1 -10.0354 12.187 -5.76172 11
456 1 15.5295 12.745 -1.77555 12
457 1 0.809845 14.868 -3.65286 14
458 2 -11.2696 -5.3335 3.8837 17
459 2 5.93438 3.62503 -12.9295 11
460 2 -4.7461 10.5372 0.668994 16
461 2 -5.11592 12.2748 -5.84195 16
462 2 -5.5518 -12.818 10.7778 11
463 2 11.1071 -9.22462 -5.15889 12
464 2 -9.31523 2.51954 9.54558 14
465 2 2.31952 17.9187 4.52598 7
466 2 -0.636719 -2.96119 2.63552 21
467 2 9.94244 1.44541 -8.894 13
468 2 -8.46561 8.64672 8.41157 10
469 2 -8.74885 14.1085 2.4778 10
470 2 -1.56491 -8.10156 3.74849 16
471 2 -0.271995 12.2587 -6.23854 16
472 2 -2.36144 -12.6102 9.7632 17
473 2 -0.303554 7.3928 -1.66238 15
474 2 1.53908 5.55299 -13.3722 20
475 2 -6.704 7.34582 1.49064 17
476 2 5.71056 16.4249 4.91588 13
477 2 10.5022 17.5961 5.95482 6
478 2 1.08902 -0.837069 -15.2284 10
479 2 -12.3013 -3.90992 0.574549 19
480 2 -5.46111 4.06429 -9.63899 15
481 2 -2.33476 13.4642 1.72654 18
482 2 -7.50676 6.88082 -6.99773 18
483 2 -9.7219 5.44878 -6.50395 16
484 2 -8.24217 12.788 -6.18879 10
485 2 4.3481 2.67916 -8.28322 15
486 2 -7.95374 -12.6941 -13.2453 10
487 2 2.87661 2.33843 -3.05613 17
488 2 5.96165 5.57835 -7.6403 17
489 2 -1.53164 4.24069 -17.2742 8
490 2 -4.38142 12.9271 -10.8292 10
491 2 -14.3144 -3.21657 6.17145 11
492 2 -10.0861 -8.34214 5.20506 20
493 2 -6.85756 10.3287 3.9105 19
494 2 -6.64311 -3.99552 -12.8603 16
495 2 -3.54409 -3.15952 0.317906 20
496 2 0.419885 10.5545 -9.58195 14
497 2 -10.677 8.0318 -7.84142 13
498 2 -10.0045 3.37681 4.95948 17
499 2 0.183301 13.8414 1.49278 17
500 2 -13.0835 -1.79163 8.80994 12
501 2 -11.4269 -0.0357705 -10.0866 11
502 2 8.9749 3.92702 -7.89879 15
503 2 6.72011 9.83314 -6.23971 15
504 2 -2.22775 5.26481 -14.5738 16
505 2 -11.2056 12.1944 -1.98402 8
506 2 7.63438 14.1781 7.10579 15
507 2 3.97974 -9.52793 -11.1435 11
508 2 -12.8308 0.608295 5.35502 17
509 2 -13.6982 3.10509 -3.24345 13
510 2 4.54723 6.07386 -12.6741 13
511 2 -3.70251 0.902412 -10.9816 17
512 2 -5.27597 -10.65 -10.7084 17
513 2 1.75223 11.3437 -12.7992 8
514 2 -3.82589 -7.5445 -7.13415 20
515 2 -12.6168 9.22442 -6.06123 11
516 2 -12.0913 -9.52418 -9.79421 12
517 2 -9.87237 -4.79871 -4.19786 19
518 2 -0.922 12.9222 4.83594 17
519 2 -12.9406 4.15089 -6.04039 15
520 2 1.91356 -0.995933 -2.18822 18
521 2 -0.275675 -13.1271 3.80552 21
522 2 -14.485 6.34049 -4.65766 10
523 2 -6.03601 -1.28432 6.27976 15
524 2 7.62241 -10.0454 -4.72529 19
525 2 14.1703 7.63514 -5.28679 11
526 2 0.171967 -0.112832 11.2419 16
527 2 -0.324679 15.4609 3.43583 15
528 2 -7.96985 4.95357 -10.7963 11
529 2 -10.8618 -3.21947 9.58061 14
530 2 3.27107 14.3537 -2.84745 13
531 2 8.08768 15.2246 -1.32106 14
532 2 4.01367 -5.66009 -9.47619 17
533 2 -3.58566 1.84886 -14.9649 13
534 2 6.56383 13.0981 -8.04457 13
535 2 9.87005 13.9125 9.99087 7
536 2 9.35422 -0.294437 -15.0857 8
537 2 6.81443 -14.2162 -4.74674 11
538 2 -13.9115 7.19495 -7.48106 10
539 2 -9.61255 -3.07646 -1.98961 17
540 2 13.7493 3.51142 -0.598065 15
541 2 2.61701 11.5722 -6.60986 12
542 2 6.18301 -9.61553 -7.83469 12
543 2 -4.71977 9.77594 -3.6918 16
544 2 -10.5632 -8.58625 -11.6934 14
545 2 -6.11406 13.4272 6.86386 11
546 2 -0.0319497 6.557 -16.3088 14
547 2 4.44418 13.3155 8.11464 16
548 2 -3.10792 -3.17031 -10.4428 18
549 2 7.25888 4.93822 -1.97156 18
550 2 3.72494 13.5565 -7.92876 12
551 2 3.00311 -2.79656 -7.32142 16
552 2 -7.20324 10.1154 -6.32752 16
553 2 -2.1862 1.52121 13.5294 12
554 2 -5.41155 -7.25001 -11.3497 15
555 2 -2.92223 13.8051 -2.4102 15
556 2 9.23016 7.71101 -9.94031 10
557 2 0.815534 -10.265 -10.5531 16
558 2 2.46011 15.7477 9.62301 9
559 2 -4.61334 3.40347 -3.72018 17
560 2 -10.4154 -5.0157 6.74662 16
561 1 5.92553 -5.93334 -9.99589 17
562 1 -5.18537 -2.10274 -3.33904 20
563 1 -8.15282 -3.17452 2.82648 17
564 1 -8.81863 -3.83222 -11.1682 15
565 1 -1.16647 10.738 -5.36178 15
566 1 0.12465 4.32477 -16.5552 13
567 1 -4.96765 -10.3315 11.0125 15
568 1 -15.053 -7.40796 4.29037 12
569 1 -4.9076 3.94318 11.1733 19
570 1 -9.08342 6.68246 -8.07635 16
571 1 -7.44784 14.1484 -0.381062 16
572 1 -8.79785 2.24097 4.35952 14
573 1 -11.7213 3.11456 1.63247 17
574 1 3.06781 -16.4888 5.63598 16
575 1 -10.3908 -1.40622 -9.30611 15
576 1 -0.429812 -0.752274 -1.90569 19
577 1 2.34689 -1.07385 -7.1765 13
578 1 0.119823 2.5954 6.11422 16
579 1 5.8502 11.377 5.04143 20
580 1 -10.5378 -11.3909 3.40559 14
581 1 2.33598 7.74885 11.4233 16
582 1 -12.6568 5.6722 5.75774 11
583 1 -5.77412 0.333812 7.28456 17
584 1 -7.15621 2.17802 -3.98727 16
585 1 -14.1625 -3.45601 8.01766 12
586 1 -17.321 1.6571 -0.507991 7
587 1 -3.8745 13.8018 -9.00946 11
588 1 -10.6412 -7.89621 -9.58626 17
589 1 -8.51714 -2.53685 9.1763 16
590 1 -3.09269 17.5846 2.85814 9
591 1 -1.05589 9.65749 -10.1818 13
592 1 4.6962 2.85576 -4.10195 17
593 1 -4.58553 9.78211 7.79606 12
594 1 8.6912 5.58982 9.46112 10
595 1 -10.0347 -3.86786 -6.05925 16
596 1 3.90618 15.6416 11.8202 7
597 1 -11.9283 3.13865 4.8237 17
598 1 0.969659 -12.8476 -6.75293 16
599 1 -14.687 -7.24218 -2.13341 13
600 1 11.9025 11.5687 6.88748 11
601 1 -3.94075 14.5591 1.409 17
602 1 -4.32238 -11.6865 -6.04946 16
603 1 4.11672 -1.85203 -1.47568 17
604 1 -7.66641 6.22778 3.02761 15
605 1 -14.0164 5.47034 -6.64803 10
606 1 -6.93353 14.5474 3.06836 13
607 1 7.32503 12.0819 1.66155 19
608 1 -9.63415 -5.65067 2.41816 16
609 1 -12.777 -5.59455 -8.08334 12
610 1 -6.06909 -11.0111 -3.8966 22
611 1 -3.49134 -2.93281 12.9279 14
612 1 -11.4488 10.9757 2.62392 9
613 1 -8.22418 3.47453 1.79103 16
614 1 14.551 11.0179 1.15998 13
615 1 3.80203 13.4955 6.30623 17
616 1 -2.19434 15.2658 9.13033 10
617 1 11.2357 -5.18391 1.47456 21
618 1 -9.72196 4.97432 6.0787 15
619 1 -14.9793 -8.02397 1.0254 11
620 1 -9.75842 4.77866 -0.304287 14
621 1 3.5382 4.85882 16.1064 10
622 1 -7.4619 -5.27611 1.08541 14
623 1 14.5109 -6.22135 1.0972 10
624 1 1.0023 -8.96844 10.7853 16
625 1 -0.782762 -1.21101 1.67634 13
626 1 -5.08393 -13.8499 -7.52695 10
627 1 6.05491 -3.10391 11.5916 17
628 1 1.12217 16.688 4.21094 11
629 1 -7.66351 9.38709 0.426105 17
630 1 -1.25937 -9.81843 2.32938 17
631 1 -11.5554 -2.36876 7.58817 19
632 1 7.37335 11.5003 -6.3986 18
633 1 2.60115 14.9782 -7.9905 8
634 1 9.00367 6.92507 6.23248 13
635 1 -8.12866 3.61507 -6.32351 16
636 1 -0.264212 7.14601 9.88989 16
637 1 -11.8618 10.6864 -1.12345 10
638 1 -4.10731 7.87384 -3.71138 14
639 1 -0.571886 8.43515 0.170069 17
640 1 -7.695 14.2289 6.06853 10
641 1 -15.2432 -2.03305 0.303342 14
642 1 -9.0293 1.1449 10.7714 12
643 1 4.73087 9.43438 10.0505 17
644 1 -0.307534 6.59839 4.59277 17
645 1 -0.474191 -4.09083 6.46639 21
646 1 -5.56022 11.6511 2.49687 16
647 1 -9.19353 12.4318 1.47802 14
648 1 -5.08855 7.94743 2.23622 16
649 1 -12.169 -9.39552 -11.7913 10
650 1 -11.1074 9.82706 -7.36157 10
651 1 1.5505 7.87545 15.9222 13
652 1 0.267222 -15.8186 -10.4033 10
653 1 2.91133 6.06806 -17.5011 6
654 1 4.80505 -4.49254 8.79534 12
655 1 6.47643 0.385836 -2.31683 19
656 1 15.2365 15.6074 4.05261 8
657 1 -2.69166 9.31808 10.4179 15
658 1 -0.259441 -16.4487 4.84599 12
659 1 -3.25592 13.4179 3.81626 16
660 1 -4.80895 2.95108 -5.75943 19
661 1 -3.27077 7.58139 -8.75206 16
662 1 3.19778 14.1889 9.46249 13
663 1 10.3433 12.5309 1.41913 18
664 1 -3.21769 13.1739 -6.08477 16
665 1 0.595219 10.0167 -13.5802 11
666 1 10.5402 -1.15298 7.55503 10
667 1 7.58216 -3.2073 5.75558 14
668 1 12.1767 10.101 -0.856511 16
669 1 6.73404 -2.02367 2.90643 21
670 1 1.83649 12.7501 12.9638 11
671 1 2.55133 19.2756 3.31016 7
672 1 6.16181 9.46973 -4.34271 13
673 1 11.1067 7.64081 -2.144 20
674 1 -11.5287 8.64195 -4.33191 13
675 1 -4.67339 14.8049 6.80208 11
676 1 15.7166 15.3649 -1.02031 6
677 1 9.20166 -3.02259 10.5929 12
678 1 -2.09868 -3.03128 3.98058 20
679 1 -9.56509 -0.812359 3.40284 14
680 2 -7.3249 -4.22298 -9.69313 15
681 2 5.62733 -9.20197 9.79376 13
682 2 6.15974 3.08513 2.06054 15
683 2 9.6035 -1.09373 -4.66495 16
684 2 -4.19982 -6.92861 7.02525 18
685 2 0.140192 -14.1075 12.3823 13
686 2 -6.45103 12.1198 -3.05273 19
687 2 6.4132 10.2938 3.64895 18
688 2 -8.50079 -13.0273 -5.43538 11
689 2 7.70972 -5.0185 1.26003 18
690 2 -9.35208 0.248806 -1.89006 17
691 2 -10.7782 -4.34999 -7.84618 19
692 2 1.7521 7.21756 9.4033 15
693 2 0.192284 4.59574 13.6534 11
694 2 -3.15696 -10.9406 -7.43435 18
695 2 -3.95828 -5.98631 -0.797745 15
696 2 -2.07214 -2.20081 5.96959 18
697 2 2.46214 1.12407 -0.0992641 19
698 2 2.82374 9.46989 12.1829 14
699 2 2.85528 2.52686 2.97775 11
700 2 4.24537 11.3987 10.22 13
701 2 -13.3147 -1.27995 0.923937 18
702 2 -5.93287 -12.1841 5.83284 20
703 2 -7.4417 10.2171 -1.23139 14
704 2 -2.49465 2.32724 2.59686 12
705 2 -7.91095 -4.08735 -6.43751 19
706 2 -16.0661 2.07618 -1.6109 9
707 2 -12.2373 4.87993 4.13761 13
708 2 -12.4735 1.93616 2.94684 18
709 2 -3.67635 5.23677 10.9449 18
710 2 -4.34585 3.48008 1.87856 18
711 2 -16.847 -1.23624 0.558893 8
712 2 -6.43122 4.9693 4.06622 17
713 2 -4.76903 -1.01696 11.8838 14
714 2 -1.10523 8.07307 15.4228 9
715 2 -2.83004 11.8806 -4.36452 14
716 2 5.84466 6.14083 3.18048 16
717 2 -8.38359 12.6724 -0.217088 15
718 2 5.2346 -2.91765 9.84466 14
719 2 -9.0805 13.2186 5.81185 10
720 2 10.9827 15.3211 2.03643 14
721 2 -5.75802 -6.84409 -14.2686 11
722 2 -2.40667 12.7869 -7.99903 14
723 2 -11.6653 10.5809 0.870482 9
724 2 -6.07731 9.98513 6.50226 16
725 2 -2.03962 7.9651 9.14396 20
726 2 11.4054 12.2432 -5.42182 15
727 2 4.04616 -0.219589 14.5377 8
728 2 -3.27669 -14.1839 2.15791 12
729 2 1.87749 -13.3537 -4.97739 17
730 2 -6.55297 4.14137 -5.59526 17
731 2 -1.70714 -11.0042 3.83354 18
732 2 -2.0369 -16.7461 8.71624 10
733 2 -1.45739 6.37334 6.23345 20
734 2 -1.09193 6.56222 12.1275 19
735 2 -0.235597 7.68378 1.88124 15
736 2 -1.07039 7.85176 -9.32839 19
737 2 5.6491 13.4394 5.42022 18
738 2 8.38607 9.91553 -4.44408 19
739 2 -0.937386 -7.49351 7.95423 16
740 2 -7.90755 15.7674 4.77342 8
741 2 12.6712 10.9762 5.30083 11
742 2 -12.0295 3.57038 6.68812 15
743 2 5.82478 -2.9327 5.20573 17
744 2 -9.13123 -6.13617 9.72246 15
745 2 -7.84331 -11.8917 8.78979 12
746 2 -16.6459 1.5798 1.23394 9
747 2 2.44568 -2.4196 15.1277 8
748 2 -4.79821 -0.236807 2.60232 16
749 2 12.1106 13.719 -2.93929 11
750 2 3.64914 6.48886 10.9071 12
751 2 -8.97331 -5.32313 -0.0585543 16
752 2 1.42628 1.07948 -7.69549 13
753 2 -9.68941 -12.5864 4.70023 11
754 2 -15.1461 0.207355 3.44247 12
755 2 5.89424 1.93527 -2.88066 18
756 2 -3.38902 6.3265 15.205 10
757 2 5.49744 15.9243 -3.23289 11
758 2 -13.0879 -5.0054 8.44203 14
759 2 8.2646 7.64806 4.51429 15
760 2 -4.82304 -0.245592 8.80714 18
761 2 -7.24448 -1.77758 -4.06904 23
762 2 -9.08619 9.5872 5.76388 14
763 2 12.9432 6.95129 -2.27483 19
764 2 -8.25687 -11.4499 -10.5147 17
765 2 -1.13633 11.7184 9.4419 15
766 2 7.65679 19.3303 -0.0196581 6
767 2 7.82839 8.8194 -0.97746 16
768 2 0.19164 6.05112 -5.55665 17
769 2 4.65341 14.0518 11.22 11
770 2 -3.42815 16.7487 -0.628588 14
771 2 9.92297 -14.2268 -0.0524038 11
772 2 -2.16386 0.651577 8.63294 21
773 2 -7.34873 -1.44747 3.20627 17
774 2 -2.07934 5.39467 0.00673299 19
775 2 3.67211 11.5611 5.87641 18
776 2 12.3379 -1.52857 -5.4051 16
777 2 -0.45664 5.74844 -11.2849 17
778 2 -9.58994 2.76725 0.390608 15
779 2 9.09026 13.4727 4.32494 20
780 2 7.16644 12.4218 9.20241 15
781 2 2.0684 12.7522 0.0337491 19
782 2 -9.8647 11.7238 3.34196 12
783 2 -0.647552 12.4619 -1.41482 16
784 1 0.571636 -12.4236 13.2043 7
785 1 -11.868 -9.10185 -3.94114 15
786 1 3.01212 -16.5361 8.85594 16
787 1 -10.074 -6.27051 -12.3623 9
788 1 12.7715 -5.24411 -7.09543 11
789 1 0.729736 -7.56458 2.11657 17
790 1 13.9926 -5.1027 -4.24143 12
791 1 -1.06642 -10.3958 -0.626081 16
792 1 -12.5879 -2.7847 2.23803 18
793 1 3.27166 2.97094 8.19968 14
794 1 0.613321 -13.1202 0.0785649 22
795 1 4.65433 -14.2618 7.88491 19
796 1 -4.8611 -4.98153 3.14077 18
797 1 -4.62863 -9.37669 -6.95528 20
798 1 5.59016 -2.94374 -15.7501 11
799 1 2.79411 2.63419 -15.7766 15
800 1 9.46501 -10.1891 -4.39088 15
801 1 -0.879131 -7.49395 -9.34613 17
802 1 -12.1793 -11.35 -9.56404 12
803 1 -9.1287 -8.75982 -12.9779 11
804 1 -6.36267 -8.07586 0.141656 17
805 1 0.197633 2.58883 -7.89709 14
806 1 -0.951231 12.6091 2.4153 18
807 1 9.08329 -0.217566 -9.44338 16
808 1 -4.5996 -14.9099 -11.3763 8
809 1 -1.1926 4.75161 6.68904 16
810 1 0.742943 -2.44119 15.1416 6
811 1 1.58719 -5.06771 3.4736 21
812 1 -4.39118 3.87666 6.99502 17
813 1 3.43393 -11.0927 -11.4178 9
814 1 12.9927 1.73433 -0.459553 18
815 1 10.8427 -2.87125 -8.7133 15
816 1 -5.57274 3.69673 3.26306 17
817 1 4.89637 -6.93261 7.27787 17
818 1 9.07297 -9.94868 5.27576 17
819 1 -7.27486 5.62241 8.38915 16
820 1 -0.698859 -0.302971 8.34031 18
821 1 -14.2852 8.17925 -5.73107 8
822 1 9.8674 5.05718 -3.06133 19
823 1 7.33797 -10.6334 -6.55537 14
824 1 6.04849 -1.95097 -3.89919 16
825 1 13.838 4.57288 1.1267 11
826 1 -7.27368 -5.13925 -4.69195 22
827 1 2.64243 -5.00095 -2.44135 18
828 1 2.33239 -2.12385 -4.31996 17
829 1 12.9306 7.78086 -6.71264 10
830 1 -0.238597 -4.91431 -7.54199 17
831 1 9.73719 -2.39273 -11.622 15
832 1 10.7299 -10.4184 1.68142 15
833 1 -12.3491 2.52142 -4.65729 14
834 1 -5.742 -8.82942 -10.2946 17
835 1 -9.70259 5.3178 -10.1247 12
836 1 -8.34626 -11.3791 -14.8167 7
837 1 13.7628 12.5862 4.09099 14
838 1 14.4221 -12.6005 2.23729 5
839 1 3.05444 5.01093 -12.67 23
840 1 10.4886 10.6667 -4.42214 17
841 1 2.93228 -0.53773 -14.743 13
842 1 2.53919 -6.76066 -8.78508 14
843 1 -13.6619 -8.03565 -7.90935 10
844 1 -3.95336 -7.89662 -12.2999 14
845 1 10.3999 13.1857 -1.80607 16
846 1 5.62151 -0.578424 0.31344 19
847 1 2.52644 -13.9414 -2.1636 17
848 1 10.3438 7.64344 -5.23241 23
849 1 4.06966 -2.21514 1.98194 19
850 1 10.3847 -8.63211 -1.47642 20
851 1 3.37455 -13.8925 0.993059 19
852 1 8.3081 10.1995 3.4207 18
853 1 10.9654 4.93565 -7.20375 16
854 2 -7.39863 1.14538 1.04542 18
855 2 6.03973 -18.5977 6.07597 8
856 2 -10.9695 -11.6522 -7.89898 14
857 2 6.83986 -2.00449 -12.3424 14
858 2 -3.04734 -14.4625 11.7478 11
859 2 8.21571 -15.8144 1.55041 13
860 2 6.62672 -5.63229 -2.11393 18
861 2 10.7374 -16.2221 4.14739 12
862 2 -7.64134 -10.8402 -0.980714 16
863 2 -9.83785 -0.301132 -7.84392 16
864 2 13.9698 -3.88579 -2.92499 13
865 2 11.8089 6.27912 -5.73977 18
866 2 -2.35367 -3.93792 11.6412 17
867 2 -1.23793 -11.215 -2.30424 15
868 2 12.1861 -2.04347 1.34437 15
869 2 -2.53785 -10.1015 -10.6793 16