ITEM: TIMESTEP
405000
ITEM: NUMBER OF ATOMS
2000
ITEM: BOX BOUNDS pp pp pp
-30.0 30.0
-30.0 30.0
-30.0 30.0
ITEM: ATOMS id type x y z Coordination
1 2 -9.0693 8.39959 2.07223 15
2 1 1.10133 13.8813 -9.30598 14
3 2 -2.23844 0.749774 11.0699 17
4 1 -2.32654 -12.7487 -8.90748 17
5 2 -9.65962 -8.29945 -12.2789 14
6 1 -4.70211 -3.93049 -18.036 9
7 1 9.51821 -4.14931 -5.21041 18
8 2 -11.9701 -5.94665 -10.5062 16
9 2 9.07832 -8.72927 -4.89776 17
10 1 9.05264 -9.46572 9.90973 13
11 1 -10.9865 -11.5565 -3.24937 8
12 1 -6.77094 -6.56317 -8.77605 22
13 2 -3.07978 -13.0987 9.12826 14
14 2 -2.29117 -18.3616 -0.905123 15
15 2 -6.38674 -3.72584 -16.8329 16
16 2 11.4908 -3.997 5.87236 20
17 2 -5.64205 6.0327 -14.8478 13
18 2 5.97397 4.86862 -11.8928 19
19 2 5.32263 10.946 1.82919 14
20 2 -3.08613 3.57126 10.2936 16
21 2 0.465994 -0.504718 -14.9635 13
22 2 -7.01644 -5.6593 3.35391 17
23 2 0.777024 10.4589 -6.12583 20
24 2 4.84026 -11.1039 -9.97165 14
25 2 2.00892 -3.70127 -6.66052 18
26 2 8.49953 -4.60194 -12.5968 17
27 2 -0.296466 -6.69945 -13.0493 14
28 2 -5.24997 11.1467 -10.1492 16
29 2 -3.09879 6.39252 -12.0927 17
30 2 10.056 4.17591 -7.09788 18
31 2 -14.8235 4.19682 -1.87754 13
32 2 1.75756 10.0674 9.21188 16
33 2 -3.4132 4.96774 -6.49573 18
34 2 13.6748 -8.50517 -0.666125 13
35 2 2.71375 -5.20709 -15.658 14
36 1 -12.8248 -5.62513 -4.01015 18
37 1 -6.55855 -7.25978 -6.33504 18
38 1 1.22407 -11.784 -0.729515 19
39 1 8.0026 -7.02742 -3.19601 17
40 1 4.28867 -16.7528 2.60486 14
41 1 -10.4419 12.2291 -0.600449 17
42 1 -12.0214 3.89682 -13.8496 9
43 1 -14.9525 -0.0194883 -4.51618 12
44 1 -3.48387 -0.453936 3.41538 20
45 1 -10.4195 -3.39232 -5.04735 16
46 1 -9.83664 0.576383 -7.67275 16
47 1 -0.406144 -11.9194 -16.9829 13
48 1 -12.9128 -6.39777 -8.61245 16
49 1 12.9206 -0.709883 -2.36664 18
50 1 -16.7095 7.20476 6.71493 8
51 1 -13.7657 5.76743 2.23367 17
52 1 -2.12193 -4.74666 -9.47554 18
53 1 -4.7453 3.64529 -6.88292 20
54 1 -8.10278 -9.89756 -7.43458 17
55 1 7.85038 -9.99006 -11.5753 15
56 1 -8.79928 -9.06738 -4.19331 17
57 1 -17.4153 7.20536 -3.53886 10
58 1 -13.9437 -8.53993 0.326637 13
59 1 -7.48652 17.2543 10.0063 7
60 1 -3.23623 -11.5484 5.09114 16
61 1 -13.9771 -3.3804 -6.34082 16
62 1 -14.4167 7.68645 -5.62519 15
63 1 -12.4619 7.72151 3.32879 16
64 1 13.7263 0.105025 -11.2255 13
65 1 -1.62397 -17.8163 -4.71929 19
66 1 -2.78776 0.891109 -8.28662 17
67 1 -9.09571 -6.38184 -3.14683 19
68 1 -1.31138 -0.368187 -13.2399 19
69 1 2.25384 -8.47415 6.66007 15
70 1 -9.9999 -9.05463 -10.554 14
71 1 -5.03529 -9.1704 -8.15146 22
72 1 -6.75402 12.789 -9.74943 14
73 1 -3.14264 -17.5495 8.81885 12
74 1 -11.0706 -6.70516 1.64792 15
75 1 -13.8016 8.02299 0.251486 16
76 1 1.44862 -8.22052 -13.2379 13
77 1 -9.14028 -3.33759 5.40624 17
78 1 -8.6283 -0.817748 -5.86614 17
79 1 -12.3866 5.92404 -11.4731 10
80 1 3.70102 -6.20123 -9.6151 16
81 1 -8.20897 1.05549 -17.0519 10
82 1 5.36875 5.02394 -16.9774 12
83 1 -6.96066 6.17002 -2.41637 17
84 1 -6.12887 -1.97331 5.1669 19
85 1 -4.7607 -7.99707 -1.40069 18
86 1 -14.3015 -11.5682 -6.0367 7
87 1 -6.3695 -15.3653 -3.66093 13
88 1 9.18982 -16.2129 -8.27361 4
89 1 -5.17505 -6.15873 -3.74556 22
90 1 0.661976 -10.4803 -3.79448 17
91 1 1.32451 2.39903 -5.6788 20
92 1 -7.05753 -12.7747 10.5849 9
93 1 14.5702 -5.0916 1.85657 17
94 1 -5.49826 -15.8679 -0.0647676 16
95 1 -5.27294 -4.52604 -8.12169 20
96 1 -0.992329 12.0894 -10.7788 14
97 1 10.6682 -7.94397 -9.70481 13
98 1 -2.25563 -4.56529 -2.77083 20
99 1 -11.7629 -10.4389 -8.25888 10
100 1 7.64013 0.095417 16.6909 16
101 1 -1.09294 -6.63919 -17.354 14
102 1 4.84608 -1.96662 6.62016 20
103 1 -4.19659 10.6378 14.0239 14
104 1 -6.02585 -5.29164 -13.4868 20
105 1 8.42267 12.3297 -7.63109 14
106 1 -13.8141 -3.53389 -9.15781 10
107 1 13.9633 -7.50711 -7.20816 10
108 1 -5.39495 8.18065 -4.42885 17
109 1 1.94719 -2.43781 -8.09481 20
110 1 -6.63364 -1.90302 -16.0976 20
111 1 -6.45546 9.4388 -12.625 17
112 1 -4.18684 5.12384 -1.15665 17
113 1 5.37949 -12.7747 -10.7234 13
114 1 -0.428856 -14.9653 4.44307 22
115 1 4.38047 -1.56762 -3.00326 15
116 1 -0.960262 -0.319322 -9.92945 21
117 1 -3.70109 -4.91123 -11.9442 20
118 1 9.99907 -10.4354 -8.27366 12
119 1 0.396896 -7.69873 -9.20566 16
120 1 -11.6093 -3.99318 -11.4061 16
121 1 -7.4281 -13.3254 0.804335 10
122 1 -3.8768 -15.9629 -4.56439 19
123 1 -0.915706 -16.9392 1.18993 18
124 1 -3.90702 -2.28971 -13.6862 21
125 1 -9.64847 -1.46938 -15.4041 16
126 1 -2.58701 -12.2146 -11.6859 12
127 1 3.20457 -6.83389 -4.70259 19
128 1 4.39084 -12.9351 10.3556 18
129 1 -5.17219 -2.076 -10.0217 21
130 1 -7.9091 -7.68244 -11.2997 20
131 1 -8.25607 -7.3777 2.61852 17
132 1 8.60674 -3.55711 -8.18158 20
133 1 -2.91878 -7.20498 -7.26235 20
134 1 -3.66984 -13.17 -4.43928 16
135 1 -15.8169 -6.53133 -1.74921 14
136 1 -12.0091 5.09395 -4.28256 17
137 1 -5.89767 0.60693 -15.4147 19
138 1 -9.8491 5.27966 -11.3745 12
139 1 -1.22275 -7.52208 -11.7229 19
140 1 -12.0951 -0.779809 -5.47771 16
141 1 -1.31903 15.4455 -8.51941 11
142 1 12.4091 -4.02531 -6.67512 19
143 1 1.46179 -0.168086 -19.0537 8
144 1 3.33596 2.02366 -18.7853 9
145 1 -6.5947 -2.47807 -13.2229 21
146 1 8.28537 -12.65 -13.1933 12
147 1 2.53366 -7.43519 0.484893 19
148 2 -9.68538 0.364947 -16.1215 13
149 2 -12.6449 6.60761 14.2618 7
150 2 -2.52503 -15.9493 10.3189 14
151 2 -12.842 -6.68207 4.23247 12
152 2 -15.9543 -2.27038 -4.78344 8
153 2 -1.31387 -0.712991 7.61296 18
154 2 -0.87886 3.78441 7.49396 19
155 2 -7.46475 17.1968 -5.2739 5
156 2 0.841474 1.06923 -4.54875 19
157 2 -6.72728 -0.986197 -10.9578 18
158 2 -1.803 -4.26518 -12.7214 19
159 2 -15.1321 5.1874 3.24681 15
160 2 -9.88953 -9.92311 -7.34059 16
161 2 -3.05236 -13.7358 5.76437 17
162 2 -3.07488 -11.6962 15.4764 8
163 2 -4.91639 7.6487 15.5553 13
164 2 -4.93653 1.82697 16.0793 20
165 2 -12.3099 -0.168156 -0.821016 16
166 2 -9.20761 -4.62492 -12.0509 21
167 2 0.544719 -10.7686 -5.65677 19
168 2 -9.04308 5.07854 0.841599 20
169 2 -4.23755 -8.75625 -6.581 17
170 2 -0.237062 -2.07206 -3.6138 16
171 2 -13.5605 -1.55293 -13.1488 9
172 2 -9.63442 11.8621 4.66663 17
173 2 -11.1982 -11.6291 6.50441 11
174 2 -5.32903 -11.4525 -15.3279 9
175 2 -16.7868 9.59891 0.754897 9
176 2 -14.208 7.98382 2.34812 19
177 2 -14.34 1.5708 -11.1139 13
178 2 -14.6215 1.4305 -1.19839 11
179 2 -0.0726957 -8.63718 -3.40577 18
180 2 -13.1195 -5.76632 7.29223 8
181 2 -14.4793 -7.05866 -0.478085 9
182 2 4.34461 -15.404 -3.54517 17
183 2 -2.8915 -8.44548 -9.0919 20
184 2 -4.37525 0.46954 -2.90137 20
185 2 -0.235175 4.77478 -18.3105 12
186 2 -5.2716 2.59666 -8.3454 17
187 2 -10.5773 -0.0166999 -10.1666 12
188 2 4.33959 -1.89118 -15.3276 14
189 2 -14.6369 -10.5759 -4.62643 10
190 2 -1.15706 -4.04679 -7.91109 19
191 2 -5.40681 -2.42698 -3.09032 19
192 2 -1.75498 -8.81714 -1.15032 20
193 2 -8.1742 -9.77053 -10.5431 17
194 2 -13.1861 -3.65793 5.01882 14
195 2 0.300025 -9.53581 -8.45046 18
196 2 -11.07 -4.88444 0.515106 15
197 2 -6.1883 7.60878 -12.3068 16
198 2 -7.50484 8.40314 4.68353 19
199 2 -1.67834 -4.95655 9.688 17
200 2 -5.19659 2.69224 -5.22778 19
201 2 -7.63375 -10.5982 5.57006 15
202 2 -4.82043 2.51751 5.10186 19
203 2 -10.698 -9.55678 -4.05528 13
204 2 -4.45372 -1.43643 -0.213033 21
205 2 -5.50087 6.72811 -5.8077 19
206 2 -2.13036 -1.53395 -6.29857 16
207 2 -4.22318 -11.1572 -4.9721 17
208 2 9.72011 -1.2845 -12.3509 15
209 2 -18.4391 6.37041 -4.95853 8
210 2 -8.35062 -13.1937 6.55862 10
211 2 1.63868 -3.76157 -11.8675 14
212 2 0.156099 -15.5148 8.12675 18
213 2 -13.9251 -4.94886 -7.49109 14
214 2 -13.1546 -11.0431 -7.25728 9
215 2 -11.4749 -1.09697 -14.5946 14
216 2 -3.26762 -14.4936 -5.76165 19
217 2 -11.328 -5.32973 -2.97347 18
218 2 -3.70643 -9.97021 0.470533 17
219 2 -4.39408 -5.67807 -17.1264 11
220 2 7.51541 -2.97529 -15.1035 19
221 2 -14.0944 5.28713 0.37289 13
222 2 -11.218 7.61084 -11.2913 12
223 2 -1.33613 -9.34596 2.34928 19
224 2 -4.97961 -9.58773 -2.36185 18
225 2 -12.3615 -10.9576 -2.32072 9
226 2 -3.57496 -18.362 -6.14089 14
227 2 -3.7941 -5.13885 -9.0307 18
228 2 -13.1269 9.31258 -2.89338 17
229 2 3.09283 0.96553 -14.9126 18
230 2 -3.21037 -3.3957 -10.5296 20
231 2 -0.318225 -11.5145 -2.24231 16
232 2 -11.8792 0.248164 -7.22021 16
233 2 -11.6532 11.2972 -5.33805 15
234 2 5.50206 -3.27342 -6.66908 20
235 2 1.57892 -17.5107 -4.17336 13
236 2 -8.17292 -4.66568 -4.25056 19
237 2 -6.06311 -7.53608 -0.227975 19
238 2 -15.9123 -8.92597 -5.94088 12
239 2 -1.19575 -15.1398 -2.47124 23
240 2 -10.2126 -1.22189 -4.66291 18
241 2 -4.54871 2.45561 -15.7282 18
242 2 2.81322 -9.05123 -16.3965 12
243 2 8.98662 -16.0913 4.61531 8
244 2 5.17578 -9.4181 8.63534 15
245 2 -1.91792 -6.50788 1.34098 20
246 2 -5.7974 -10.9621 -8.39952 18
247 2 2.12133 -14.3943 -1.76145 19
248 2 5.75985 -5.78775 -14.0929 16
249 2 10.7467 -1.08917 0.27793 20
250 2 0.225524 -0.957896 -7.8924 19
251 2 5.49206 -10.6083 -14.9896 14
252 2 -10.3073 -6.43929 -8.59921 17
253 2 -0.907662 -7.87254 -18.597 9
254 2 -3.06428 -1.04734 -12.1882 21
255 2 -0.707738 -15.5899 -5.52117 19
256 2 -8.63604 -8.2029 -2.59567 15
257 2 -3.10468 -5.15458 3.91824 18
258 2 -7.78206 -11.0927 -5.92429 13
259 2 10.8108 -8.22981 13.3482 11
260 2 9.2667 -15.0326 -10.0824 6
261 2 11.5617 -9.08462 -10.6942 8
262 2 -12.0397 12.9051 1.9937 15
263 2 -4.0336 -1.91387 -18.3707 13
264 2 -11.2226 -2.9278 7.99445 13
265 2 -9.19805 -11.4709 -3.83291 12
266 2 -9.99438 -4.73357 -6.37823 17
267 2 11.8023 2.31424 -8.5859 20
268 2 6.10361 -11.1936 1.86122 16
269 2 3.53693 -0.411547 -7.67877 18
270 2 -5.0127 -3.1061 3.23851 20
271 2 4.86005 2.30761 -7.50467 18
272 2 14.8061 -6.93673 1.35013 13
273 1 -7.64413 -12.4062 -3.99492 16
274 1 -13.3936 -8.59422 -10.2062 8
275 1 0.783645 -6.03799 -2.27764 20
276 1 -19.34 4.85292 -4.49126 7
277 1 -2.02622 -14.3354 1.02255 20
278 1 -8.3603 -6.98795 12.7474 13
279 1 -8.28747 -7.95605 8.55275 13
280 1 -4.9736 17.3567 -1.21054 11
281 1 -13.4734 10.5698 -5.00635 16
282 1 -14.043 -5.44008 4.07837 10
283 1 -4.91076 -8.37263 -11.9834 16
284 1 5.39582 -0.181953 8.60352 22
285 1 6.19803 -14.9549 10.4733 11
286 1 -2.23109 -7.30306 -2.53946 21
287 1 -6.29128 -4.33053 2.37662 15
288 1 -1.53435 -4.46278 7.68588 19
289 1 -6.18971 1.02186 -5.92815 18
290 1 -6.23567 -10.1503 -10.336 17
291 1 -12.1003 4.72898 14.878 10
292 1 -4.57809 -13.6248 -1.74508 20
293 1 -1.20546 -9.58768 6.33441 20
294 1 -14.7781 3.35856 3.58723 14
295 1 -1.75711 5.14654 -11.9466 17
296 1 -0.472477 1.86374 18.1592 12
297 1 -8.58296 -3.75242 13.0828 15
298 1 -9.71474 -5.96072 10.4698 12
299 1 -11.0889 9.5137 8.17886 12
300 1 4.14797 -17.6245 -0.238899 12
301 1 3.04602 -11.9021 7.95144 17
302 1 -15.5342 2.40426 -2.41915 9
303 1 13.2791 2.59772 11.9752 13
304 1 -14.089 0.185047 -12.5767 12
305 1 -0.381807 -17.2839 6.87887 17
306 1 -16.6726 -3.82746 -4.33925 9
307 1 -4.69564 -7.74053 10.4722 16
308 1 -12.4651 -10.2239 6.1693 9
309 1 6.74241 -2.75871 -17.1282 10
310 1 -2.73444 -15.3789 12.0369 13
311 1 -14.7513 -8.14506 -4.69668 14
312 1 -12.2064 -2.2872 -0.390085 16
313 1 -5.88867 -6.25315 13.3481 20
314 1 2.39327 -1.63152 9.80374 17
315 1 -12.4607 -7.06833 6.37348 14
316 1 -3.07135 1.36195 16.6267 21
317 1 2.62541 6.3381 12.5252 17
318 1 -2.99304 -4.05059 13.854 20
319 1 -10.538 1.18018 10.8329 13
320 1 -11.2193 1.91596 15.0368 11
321 1 -4.99333 -9.63734 -4.22709 18
322 1 -8.46842 -0.265874 14.577 10
323 1 -13.7562 -0.616407 5.76847 16
324 1 -8.41925 -10.7446 7.82326 15
325 1 4.57922 -4.33433 -3.49245 19
326 1 -7.71166 -12.1557 4.34575 11
327 1 3.22251 1.08753 18.9936 12
328 1 3.67221 -7.97269 15.5984 12
329 1 -1.93429 -4.87112 16.3659 17
330 1 5.23562 -2.9646 10.4171 18
331 1 -13.9286 -2.8207 2.03121 14
332 1 -4.05891 10.8906 2.9196 16
333 1 -5.76236 -10.9954 -1.36323 18
334 1 1.51706 -18.6209 0.417692 11
335 1 -6.13092 2.87651 6.65452 19
336 1 2.48668 4.77877 3.82653 21
337 1 3.94575 -13.7896 12.9723 13
338 1 -10.0255 -6.85748 4.7807 17
339 1 10.3266 -2.14958 -1.29811 20
340 1 -4.22794 -7.13426 -15.6863 15
341 1 1.33511 -6.14222 14.1538 16
342 1 5.78625 -12.4167 -15.5891 10
343 1 -14.0461 0.140848 2.92732 15
344 1 5.70618 -0.478684 3.63546 16
345 1 -6.46819 -8.58382 15.3326 13
346 1 -6.05801 -1.68803 14.445 17
347 1 -11.8657 -4.90557 -15.1515 9
348 1 14.1927 -8.78084 1.25963 10
349 1 -6.50154 -12.2321 -6.97465 13
350 1 0.369009 -3.86582 9.89426 17
351 1 -7.73617 -4.04695 -10.7914 18
352 1 4.6896 -9.6091 -16.3497 11
353 1 -1.35127 -11.1171 1.69369 20
354 1 1.80052 -5.50959 -7.07499 21
355 1 1.23133 -7.65794 11.4254 16
356 1 11.9171 2.75708 8.21517 15
357 1 1.87028 -3.33237 6.247 19
358 1 11.7609 7.18938 -4.41775 17
359 1 -3.38122 -11.5176 8.15052 14
360 1 -6.41728 0.877098 17.0735 17
361 1 5.51567 1.96292 18.0176 11
362 1 2.26645 3.33511 16.52 14
363 1 -9.05729 0.211353 5.38183 14
364 1 -8.11142 -13.9073 -1.72317 12
365 1 -2.21121 -10.2405 -14.9722 17
366 1 -7.20962 -13.6338 7.81606 9
367 1 5.22375 -14.3686 -8.05197 12
368 1 0.459349 -14.8061 -1.27253 18
369 1 9.38135 -2.88567 18.0009 13
370 1 -10.5473 -9.55329 1.83011 15
371 1 4.50159 -1.79631 14.0849 18
372 1 2.23681 -17.8847 6.66431 12
373 1 -2.27598 -8.35561 0.640183 19
374 1 -3.93264 -15.6033 5.93144 11
375 1 -5.27359 -8.73082 1.06326 18
376 1 0.812171 -6.29678 7.10575 18
377 1 4.41784 -7.7699 12.486 20
378 1 1.98456 -0.0993118 13.5738 15
379 1 -8.82205 -2.41316 10.0843 13
380 1 -6.51174 2.909 9.55602 17
381 1 6.64241 -10.889 8.49362 16
382 1 -4.57642 -11.8876 12.8612 12
383 1 -7.55684 -5.16259 16.3955 11
384 1 -7.81388 -4.27733 -6.00814 21
385 1 0.248246 -3.90734 0.801339 18
386 1 0.588097 -9.82708 3.61475 18
387 1 -5.82818 3.96145 15.8155 20
388 1 -1.06528 -1.76794 17.7992 19
389 1 3.31463 0.841938 -0.927219 14
390 1 0.0132832 0.843891 -1.23112 17
391 1 0.577652 -0.593946 1.18427 20
392 1 -4.50671 -0.51168 18.7077 13
393 1 13.3615 3.25306 5.58675 13
394 1 -4.35545 8.91084 16.9331 9
395 1 1.28974 -3.22627 15.4168 17
396 2 -14.3737 -4.47274 -4.6825 15
397 2 -12.0326 -3.16312 -9.77806 16
398 2 3.35236 -9.12852 14.1065 14
399 2 -12.2599 -2.89034 -5.39869 14
400 2 -7.31846 11.6222 -8.30594 17
401 2 -10.9831 10.8375 0.801838 16
402 2 -1.2788 -7.37204 -6.35726 21
403 2 -0.238154 -13.7514 6.21894 16
404 2 -9.42782 -6.41999 8.72219 15
405 2 -8.34784 -4.86553 11.2475 15
406 2 -1.23377 -12.8751 2.47097 20
407 2 -7.25288 -12.2145 -1.74692 13
408 2 -0.950998 -10.9707 5.02839 19
409 2 0.850377 2.31428 16.6351 13
410 2 8.34762 2.70479 11.9001 19
411 2 1.68667 -12.6113 -7.72445 15
412 2 -19.3122 2.90444 -4.72702 5
413 2 -0.955866 -19.0065 -3.26639 11
414 2 -5.26442 6.64409 12.2351 13
415 2 3.3429 8.73837 16.4529 8
416 2 -8.33889 -0.907235 -7.88663 21
417 2 -8.48687 -1.54327 5.12913 16
418 2 -12.2358 -8.3904 1.46086 16
419 2 -6.12947 -6.48538 15.5102 13
420 2 -6.66544 7.37773 1.28096 16
421 2 -6.62852 -14.4277 -0.90678 13
422 2 -3.08894 -6.89576 -11.6893 17
423 2 -4.78638 -7.69014 8.52583 15
424 2 -3.6427 4.6332 15.1555 18
425 2 -3.89007 -11.4824 3.30348 16
426 2 -0.493326 3.21849 3.66045 16
427 2 -8.12802 -2.1023 14.0142 16
428 2 -1.36236 -16.3203 5.65378 19
429 2 -6.23225 -0.860165 16.2043 18
430 2 -5.09166 -8.22264 2.68355 17
431 2 -3.81509 -10.5076 6.67578 15
432 2 0.507557 -1.91391 -0.3856 18
433 2 -5.5754 11.4573 12.6573 14
434 2 -10.1581 11.6096 -14.0672 6
435 2 -13.4656 14.4638 -2.74268 8
436 2 -0.0394425 9.2576 17.4719 9
437 2 -5.84111 -13.8608 9.33104 10
438 2 6.33575 -4.54337 15.817 15
439 2 -12.4281 5.16116 8.00179 11
440 2 -8.41369 2.9961 8.51859 16
441 2 6.00955 0.796599 12.4738 17
442 2 1.19781 1.59697 6.43627 18
443 2 -4.79944 -14.3693 -3.48397 19
444 2 -7.23449 0.679605 13.3756 15
445 2 4.95911 -6.05518 -5.64208 17
446 2 0.370722 4.71094 -9.08974 17
447 2 -5.85567 -13.7454 -8.37946 8
448 2 9.71895 2.60324 14.9314 15
449 2 -1.76498 -9.34568 15.0846 11
450 2 3.0877 -11.8954 0.265126 20
451 2 -6.98325 -12.444 2.61844 7
452 2 -13.0976 -7.11932 -5.45975 18
453 2 -10.9367 -6.32156 -14.4407 11
454 2 -4.04278 -13.656 12.0774 13
455 2 3.84762 -13.8389 -9.34644 14
456 2 -0.649864 -11.5001 9.72031 13
457 2 3.77291 -11.7932 12.7654 15
458 2 -2.30256 -17.7152 2.42201 13
459 2 2.54451 7.14758 -6.5658 20
460 2 9.53001 -5.80857 17.6351 14
461 2 -9.87994 -12.0522 3.86554 12
462 2 -7.10791 -3.69819 5.84057 19
463 2 1.7394 1.46654 -1.66619 14
464 2 -2.70866 -11.7569 12.5792 16
465 2 -4.56166 -0.90208 12.8678 21
466 2 -5.7773 1.15439 10.637 21
467 2 -0.239198 -0.00918813 17.6162 15
468 2 -7.87905 -5.50365 14.1394 16
469 2 -2.48126 2.1198 18.4435 11
470 2 4.85246 7.69915 14.8416 11
471 2 5.91791 -8.2027 0.0355411 19
472 2 5.25434 -13.7536 0.941944 18
473 2 3.04408 -15.3135 12.2995 14
474 2 -11.8469 -9.49607 -10.1861 13
475 2 -0.698412 -9.03575 -14.9232 19
476 2 -5.43356 -17.8158 3.05067 7
477 2 -11.5217 0.765202 8.51346 13
478 2 -10.8673 3.68601 15.6784 11
479 2 -14.8117 7.17649 7.64013 13
480 2 -10.1652 4.11405 7.18595 14
481 2 -15.5975 -4.61745 -2.56829 12
482 2 5.50803 -2.77891 -3.83011 18
483 2 -4.44395 -2.49205 18.1197 15
484 2 0.608319 -11.5534 13.7107 10
485 2 -11.6757 -11.3384 1.14274 11
486 2 -5.7071 -6.6376 5.75299 16
487 2 -15.8824 2.31411 4.95106 13
488 2 2.94779 -6.24831 15.067 17
489 2 0.287789 -3.74775 7.69104 18
490 2 0.68478 0.503497 8.66767 18
491 2 6.71775 -2.57486 20.2427 9
492 2 1.72496 1.73453 13.45 18
493 2 5.13814 -12.4777 8.31875 16
494 2 -7.44823 -8.84784 13.7976 12
495 2 1.61347 -9.69658 11.4522 16
496 2 -10.4443 7.20365 12.1973 12
497 2 0.620179 -1.61266 6.04071 18
498 2 -8.68165 15.9293 -2.45773 10
499 2 -7.75634 4.15286 16.1612 13
500 2 -7.28652 -1.00667 10.2762 17
501 2 8.42848 -10.4624 8.32444 16
502 2 9.23163 -3.21066 16.0453 16
503 1 10.0516 -2.92418 -13.0014 16
504 1 -3.09949 4.44571 1.49513 17
505 1 -8.07149 -4.73821 -16.0657 15
506 1 -2.58209 3.56222 13.9259 19
507 1 -9.84548 -1.1881 -2.55081 19
508 1 -11.28 13.3268 4.10582 12
509 1 -8.50826 1.44697 1.49862 17
510 1 -2.87005 9.7736 0.100482 18
511 1 -14.3258 7.93224 -2.77854 18
512 1 -13.2369 -3.85958 7.12558 9
513 1 -9.40557 4.44171 -3.37201 14
514 1 -14.9092 5.9921 -9.31898 10
515 1 -9.88532 -9.70901 5.77173 20
516 1 -15.4879 12.4475 -3.08251 8
517 1 -14.8643 -6.06021 -5.83727 15
518 1 -5.41274 -2.31655 -5.21433 24
519 1 -14.8384 -8.98856 -7.72435 12
520 1 -13.687 3.42805 -0.301963 14
521 1 -3.85935 2.94172 -12.2645 20
522 1 -12.7475 11.1341 1.56706 19
523 1 2.91404 12.3025 -6.37537 21
524 1 3.41916 -3.66174 -11.0268 13
525 1 -17.1358 2.82418 -5.22868 10
526 1 -8.22967 10.1018 5.98934 19
527 1 -5.8482 4.15063 3.83121 16
528 1 -13.2108 15.1537 -4.37648 6
529 1 -11.4893 0.493493 -15.7151 10
530 1 -6.2149 3.44686 -3.56857 21
531 1 6.60601 12.8312 -3.2275 21
532 1 5.78209 -4.86513 -12.3552 15
533 1 -12.8407 -11.4822 -0.400166 9
534 1 1.67996 -4.01508 -4.44588 20
535 1 5.18917 7.65067 -3.79731 20
536 1 -9.34316 7.82302 4.29162 15
537 1 -9.73826 9.77087 1.13913 18
538 1 -13.7943 -10.1315 -3.07567 13
539 1 -0.807422 0.159621 -6.40186 20
540 1 8.41284 -1.28564 -14.4872 15
541 1 4.37848 -7.02851 -13.125 11
542 1 -14.471 4.0077 -6.92008 17
543 1 -4.29442 10.525 -6.00692 18
544 1 -4.67636 -3.77498 -1.90415 17
545 1 -5.0128 15.5471 -8.1865 10
546 1 1.85824 14.962 0.764631 21
547 1 -13.5579 1.69885 12.6024 5
548 1 -6.00387 7.25815 -10.188 17
549 1 -7.81969 13.4833 -4.45264 15
550 1 -2.53032 9.31088 6.97879 11
551 1 4.20443 -0.834649 -9.85083 21
552 1 -8.44904 11.6386 -6.85864 15
553 1 -7.46515 5.77789 -13.7751 15
554 1 -10.9084 8.89104 -9.94986 12
555 1 -3.80643 1.89911 -1.79223 19
556 1 -9.58233 -6.44049 -6.80577 20
557 1 10.245 -15.8342 -11.6382 4
558 1 -10.6379 1.9593 -0.772103 19
559 1 -4.2037 12.8408 -10.5578 14
560 1 1.04461 5.90821 0.548988 17
561 1 -5.35115 -11.4411 -13.3893 11
562 1 -11.9718 0.485275 -2.83404 15
563 1 1.01782 10.9805 -12.227 14
564 1 -2.63549 19.4523 -3.1541 10
565 1 -9.1133 1.43349 -4.17839 18
566 1 -3.9125 0.95999 -4.76999 23
567 1 -12.4416 -0.559968 -9.1451 17
568 1 3.35415 13.82 -1.30862 20
569 1 -3.37366 -1.7965 15.847 23
570 1 -8.04172 13.8867 7.39171 15
571 1 3.58065 17.9357 3.52428 8
572 1 -7.32497 4.41244 1.12544 19
573 1 3.99115 4.84932 -10.7531 23
574 1 -8.82012 -1.02701 -0.180817 14
575 1 -2.42255 11.7094 -13.4368 8
576 1 -9.1129 1.85688 -14.4029 16
577 1 -0.937658 2.18174 -11.9538 20
578 1 -0.119636 3.15153 -8.27721 19
579 1 -15.0703 2.75688 -12.4672 8
580 1 9.06351 1.79674 -6.04204 19
581 1 -6.90241 0.698997 -12.1751 22
582 1 -6.36516 7.69449 -15.4655 12
583 1 2.40709 6.95761 -14.9498 13
584 1 -9.38965 1.80775 -9.84313 17
585 1 -5.27077 -11.832 1.92677 14
586 1 0.748606 6.64836 -5.73883 17
587 1 -2.64837 7.8398 -11.0557 19
588 1 -1.7152 -4.67215 2.72595 18
589 1 -7.02382 8.95873 2.62706 15
590 1 -4.11204 4.67493 -9.91507 20
591 1 -10.8835 11.5869 -3.51499 19
592 1 -9.97177 7.68561 -12.9395 14
593 1 1.23196 10.9438 4.29211 17
594 1 -5.64987 -0.862832 -18.3618 11
595 1 0.224763 8.69295 -10.0836 18
596 1 -4.28126 4.78732 -15.6843 13
597 1 6.00268 12.2397 6.82327 11
598 1 -1.95833 12.5972 0.967219 19
599 1 -3.73855 -12.6338 -15.4077 9
600 1 -8.1423 10.1012 10.0057 18
601 1 -2.48005 12.0285 -7.63073 19
602 1 -10.9801 9.75388 -6.76148 18
603 1 11.7947 8.77328 -12.3203 9
604 1 11.5035 10.1886 -0.0428157 15
605 1 -0.0294433 14.7577 -1.51178 20
606 1 2.05378 18.3557 0.931827 13
607 1 -7.22068 8.90247 -7.42193 17
608 1 -1.49701 9.55591 3.6199 21
609 2 -13.8597 -5.02966 1.91601 15
610 2 -13.4805 2.06876 2.83014 17
611 2 -5.1865 3.36437 -11.1997 21
612 2 -9.44648 -7.42336 -5.24237 18
613 2 -5.61667 -4.76146 8.39567 15
614 2 -3.58569 6.38094 1.0055 19
615 2 -13.2014 3.83029 -5.53392 13
616 2 -14.7378 11.3153 -4.355 12
617 2 -7.68161 3.85731 3.56948 18
618 2 0.259303 3.84887 -1.73194 17
619 2 -11.1877 4.77847 -12.5689 10
620 2 -3.07839 -2.62765 -15.2844 19
621 2 -15.8334 1.94578 -4.1707 11
622 2 -7.19755 13.5962 4.43789 17
623 2 7.75187 10.4979 -10.0542 10
624 2 -13.3883 -3.81912 -1.13368 17
625 2 4.97916 8.17839 -7.86098 17
626 2 -9.34613 0.740953 -0.0466648 18
627 2 -7.00862 -0.227902 -17.2811 15
628 2 -7.80254 7.45818 -8.64204 15
629 2 -9.99698 10.077 6.80768 17
630 2 0.479942 7.22789 -1.71456 19
631 2 -13.7905 3.65562 -13.6981 8
632 2 -8.35911 0.883871 3.3828 16
633 2 -7.50137 9.93958 8.25541 18
634 2 -16.3425 3.84203 -6.68867 16
635 2 3.8531 17.7772 -3.30686 11
636 2 -14.5821 12.0412 -1.53474 10
637 2 -7.20966 8.33646 10.1874 13
638 2 -6.4537 9.47335 -16.0481 11
639 2 -12.8078 8.6066 -5.8433 16
640 2 -7.00986 8.54336 -3.28265 17
641 2 -7.15665 12.7324 -11.5368 12
642 2 -8.85613 0.87168 -12.43 19
643 2 -2.32896 -6.39421 -15.295 18
644 2 -7.73813 1.85363 -2.87071 18
645 2 -7.78427 -1.21673 1.64572 16
646 2 -16.2844 -6.43593 -4.93614 12
647 2 -15.8263 8.20902 -4.85622 13
648 2 -7.91492 -1.40495 -2.13408 20
649 2 -2.15593 11.3574 10.6885 17
650 2 -13.422 9.82799 0.0721246 16
651 2 -2.02905 1.17096 -5.27519 18
652 2 -9.99823 10.1855 -10.6809 12
653 2 5.7746 -4.53182 -16.8785 11
654 2 6.87498 -0.631372 -13.0626 17
655 2 1.09778 0.451927 -10.2433 20
656 2 -4.09017 12.439 -6.23357 17
657 2 0.227745 12.6316 -1.7174 21
658 2 4.72317 -7.54669 -8.93156 15
659 2 -16.3737 5.36869 6.78878 10
660 2 -2.8674 11.7691 -0.502522 15
661 2 -3.95373 11.2754 -3.42982 17
662 2 -8.53129 12.2687 -16.3355 6
663 2 0.598824 7.93842 -4.34314 18
664 2 3.13299 8.12978 -13.6675 13
665 2 -7.51623 1.8267 -15.4455 16
666 2 -6.39912 -7.35602 -12.5414 22
667 2 -2.24987 12.8618 -9.55017 15
668 2 -6.83486 -5.50651 -6.93531 20
669 2 0.909129 -14.8744 -8.67412 14
670 2 -1.39749 2.0903 -7.5005 21
671 2 -7.517 0.0703813 -4.71961 19
672 2 1.6381 5.38724 -3.64387 15
673 2 10.02 0.172542 -5.86346 18
674 2 13.1682 -3.36566 -9.23839 20
675 2 -4.9545 -0.205782 4.7817 19
676 2 10.9799 -0.828038 -2.4418 19
677 2 -6.069 -8.10199 -15.9112 10
678 2 0.837852 -18.2782 5.33143 13
679 2 -7.406 1.44877 -10.1291 18
680 2 -6.51811 4.40484 -7.08654 16
681 2 5.21978 -3.078 -12.1013 19
682 2 9.97922 -3.17475 -10.626 15
683 2 4.67053 17.3957 1.8864 8
684 2 -0.193362 13.5908 -4.29293 20
685 2 -2.41716 -11.3958 -7.68734 19
686 2 -5.01947 3.27283 -1.78838 20
687 2 -12.4265 0.00293493 4.50618 15
688 2 -17.3953 6.74971 -1.79062 10
689 2 6.4972 16.8812 -3.45098 12
690 2 -3.34228 -4.98222 -1.41838 22
691 2 -8.57049 11.67 -4.59742 18
692 2 7.07473 4.73474 -17.4883 11
693 2 -2.47325 5.31327 -1.43475 19
694 2 -13.7225 9.57024 4.75216 13
695 2 2.91541 7.90766 5.23909 19
696 2 13.165 -11.2732 0.0712123 10
697 2 1.43936 2.35981 -12.6726 20
698 2 -12.9911 6.82861 -3.89909 16
699 2 -15.4206 4.19459 -9.30655 12
700 2 -0.420115 -0.553841 -17.993 11
701 2 -0.0881618 6.81613 -15.2791 14
702 2 -12.2569 -4.10581 -13.2936 12
703 2 4.98146 -4.29246 3.4903 19
704 2 0.0394302 -3.77891 -17.2965 9
705 2 -8.98587 6.20339 -12.595 13
706 2 -16.7211 -8.00345 -2.83454 10
707 2 9.16228 -5.85908 -4.40339 19
708 2 1.29556 2.15655 -7.77404 18
709 2 -5.42648 -7.88524 -4.87201 17
710 2 6.90683 11.5045 -7.20303 19
711 2 -3.98605 16.7153 -7.20605 9
712 2 1.32673 17.3254 -4.85268 14
713 2 -15.1609 7.85091 -0.879273 16
714 2 2.36967 -0.537632 -17.4547 17
715 2 5.60353 2.05762 -12.6152 20
716 2 -7.12974 -9.05647 7.46933 14
717 2 -12.1005 2.26912 11.2494 12
718 2 -1.35809 13.2439 -6.3467 19
719 2 -3.48959 3.88493 -13.8206 17
720 2 0.765036 -9.32841 5.77442 19
721 2 0.170025 -11.0621 0.637723 19
722 2 0.364758 6.49368 4.21025 19
723 2 0.664143 15.4703 -8.26383 10
724 2 4.83789 3.09297 7.34436 20
725 2 -10.455 13.147 -2.43086 16
726 2 -5.10929 -0.449818 -6.18159 20
727 2 -6.62102 16.5257 -0.144406 14
728 1 -14.0483 13.8528 -1.11174 8
729 1 -15.6926 10.9483 1.22429 12
730 1 -11.4276 -7.83985 -4.97438 15
731 1 -9.36524 14.3649 -1.91275 15
732 1 -11.8544 8.3971 -3.96661 15
733 1 -6.71525 -4.78865 10.5822 18
734 1 -5.55311 1.33974 -9.47713 19
735 1 -7.46554 4.83646 -8.70715 18
736 1 -3.33114 -5.30401 0.534036 21
737 1 -11.238 3.93191 -7.67858 14
738 1 -11.2392 10.4197 4.56116 20
739 1 -11.5446 -11.741 3.05414 11
740 1 0.309552 -4.78273 -13.3039 14
741 1 -9.35693 10.8329 -12.4234 12
742 1 -12.1909 -2.13203 4.29013 16
743 1 -2.44398 18.001 -6.73892 10
744 1 9.32371 7.63127 6.72795 13
745 1 -11.8542 1.71972 4.08051 18
746 1 -10.0596 2.208 7.93695 19
747 1 10.5699 3.41853 4.90291 12
748 1 -5.68865 8.04742 5.17208 16
749 1 5.35452 18.0414 -2.40755 9
750 1 -6.22333 11.1731 8.08594 15
751 1 3.53228 -2.8411 3.53785 17
752 1 -4.04099 5.68913 16.7191 13
753 1 -9.05607 11.3396 -9.33759 14
754 1 -12.3051 -8.27677 3.36407 17
755 1 -9.42688 3.53144 4.26985 19
756 1 -6.49507 0.212212 -2.79593 23
757 1 -10.4281 5.04561 -0.616916 17
758 1 -0.44445 1.70847 2.62741 19
759 1 -14.5713 5.28398 7.19448 16
760 1 -10.7009 14.2482 1.66849 14
761 1 -17.2848 8.00145 -0.149843 10
762 1 4.48101 -5.09343 15.0295 18
763 1 -16.8887 1.11171 3.98575 9
764 1 5.71879 -5.24643 8.09121 15
765 1 -12.2511 3.35665 1.99552 16
766 1 -6.99681 -8.6269 5.71713 18
767 1 -6.28906 0.951637 3.9837 20
768 1 1.55442 7.89071 2.56508 19
769 1 -1.70424 5.80996 11.4271 13
770 1 -16.6775 5.79272 -6.43051 12
771 1 11.0228 1.13213 14.2915 14
772 1 -1.25478 9.88526 15.9609 12
773 1 3.29795 -8.22576 3.64718 18
774 1 -6.76342 -3.69776 7.71686 18
775 1 0.465568 -1.67039 3.91495 17
776 1 -6.3487 -2.44322 17.239 14
777 1 -2.92215 -0.410782 8.97163 19
778 1 -2.64591 0.655087 0.483526 21
779 1 3.04246 5.0906 -4.98307 21
780 1 -1.42577 -2.45158 11.5189 18
781 1 -14.1885 -3.41319 -2.84783 13
782 1 -7.91726 -8.41857 -0.677172 14
783 1 -16.2941 5.5198 4.55371 13
784 1 -7.23848 -5.62857 5.20446 18
785 1 -6.63996 5.23078 -5.43732 14
786 1 -4.05145 5.29402 9.49107 14
787 1 -8.20892 4.93198 14.4897 13
788 1 -7.0666 3.73588 -11.0322 19
789 1 -15.1332 5.88692 -1.03117 12
790 1 -5.54492 1.39047 14.2441 19
791 1 -7.23993 11.9971 0.311052 14
792 1 -3.62162 -4.33668 10.3478 16
793 1 -3.8046 14.3547 3.83355 19
794 1 -9.76551 7.17424 -7.78148 12
795 1 -13.1046 1.91656 -5.85011 16
796 1 -1.63408 -14.7845 7.04054 17
797 1 6.90141 -9.20596 -1.17368 20
798 1 -3.24622 2.44646 4.23408 19
799 1 -6.78929 -5.74398 -0.231525 19
800 1 7.57806 13.5312 4.74715 12
801 1 -0.288019 5.69465 14.3443 15
802 1 -4.56874 15.6609 0.494756 18
803 1 -15.2217 2.42635 6.70197 11
804 1 -12.0061 1.20718 6.76995 13
805 1 5.85026 7.94376 6.94405 17
806 1 -5.0899 -1.31973 11.1162 19
807 1 -5.96403 8.42166 -1.25567 17
808 1 -1.73343 7.09354 -2.0752 22
809 1 5.0808 1.80727 5.41115 22
810 1 -4.17304 11.7428 10.9605 18
811 1 7.40492 -4.32805 -2.64082 16
812 1 -1.62202 9.05239 -7.82155 18
813 1 -8.18326 2.37857 -1.2364 19
814 1 14.2058 6.34093 -5.48809 16
815 1 -7.5843 -3.56619 -2.83968 19
816 1 -11.744 4.70794 9.74669 14
817 1 -9.9915 -4.423 7.69166 16
818 1 -7.12143 3.81785 18.3627 10
819 1 5.23747 -13.2746 6.50917 14
820 1 2.00969 10.0282 11.1073 11
821 1 14.9097 1.23624 9.77919 12
822 1 -4.88796 13.9492 9.33304 16
823 1 7.97309 9.46245 11.2269 9
824 1 -1.2695 3.98869 -0.62367 21
825 1 1.83182 12.1263 8.54075 12
826 1 -6.69626 13.251 11.7005 14
827 1 -9.01043 9.54654 -1.8831 16
828 1 -6.741 15.6902 14.2663 5
829 1 -15.9745 8.70042 3.13373 15
830 1 -8.54245 4.96832 7.96256 13
831 1 11.749 6.23116 -0.24022 18
832 1 -4.52279 16.9601 12.0503 9
833 1 -13.9585 8.54284 6.27821 14
834 1 -7.75177 9.84473 -4.66714 13
835 1 -5.90337 12.6238 -7.295 21
836 1 -8.31775 15.9936 0.265726 13
837 1 -10.2219 -6.08592 -10.5138 20
838 1 4.57828 14.8615 5.35733 9
839 1 -7.71352 5.86129 5.61856 16
840 1 -1.16797 7.707 8.81907 16
841 1 -1.92078 12.6231 9.30393 17
842 1 -10.8377 0.360803 -12.5866 17
843 2 2.13307 -3.41547 10.5348 13
844 2 -2.41582 -2.28184 -1.94779 18
845 2 -14.244 5.77232 -10.9162 10
846 2 -12.159 -2.12421 2.40102 15
847 2 2.95595 -0.576816 17.9142 12
848 2 1.82665 -3.05936 3.61473 18
849 2 2.42727 4.61268 11.3071 16
850 2 -11.9967 3.48266 0.153416 17
851 2 -7.60547 -12.0506 8.89058 11
852 2 -5.00262 -4.69596 0.98841 17
853 2 -6.2276 -4.75469 -2.09523 15
854 2 -11.0448 8.68141 3.81577 19
855 2 -14.2606 -1.4296 -9.32621 12
856 2 -8.80276 15.5065 6.26522 11
857 2 -4.30365 -0.285416 -9.42046 15
858 2 5.99731 -15.6966 2.51915 15
859 2 -9.77211 -3.86518 -15.3102 13
860 2 -3.3319 7.79112 -4.08799 19
861 2 -7.93884 6.96 7.03096 15
862 2 -14.688 6.25087 -6.97995 14
863 2 -9.86582 12.5757 -7.74229 13
864 2 -2.50968 13.8093 -3.36759 19