ITEM: TIMESTEP
11000
ITEM: NUMBER OF ATOMS
2000
ITEM: BOX BOUNDS pp pp pp
-30.0 30.0
-30.0 30.0
-30.0 30.0
ITEM: ATOMS id type x y z Coordination
1 1 -14.8312 3.85626 -11.8057 10
2 1 -3.61967 -9.07252 -10.6741 19
3 1 6.4481 14.2694 11.8889 13
4 1 3.91117 -6.2812 12.4984 10
5 1 -9.96193 5.83063 -0.126944 20
6 1 10.3358 -7.63857 -13.9674 14
7 1 -11.7959 4.74764 -8.04386 20
8 1 0.0946897 -9.73373 1.87393 19
9 1 -7.56616 -0.975653 -12.7762 19
10 1 -14.0984 -9.53443 5.55211 11
11 1 15.8275 3.41966 -9.1207 13
12 1 -8.72795 -14.2048 1.37565 14
13 1 -8.99947 -6.79808 5.88027 19
14 1 1.24396 6.056 18.4511 12
15 1 8.82217 -1.93107 0.612339 21
16 1 1.27762 6.24119 9.79937 20
17 1 10.2976 0.462669 1.0322 20
18 1 -3.00031 13.1226 -11.5885 17
19 1 1.54081 1.06801 9.58167 21
20 1 -4.05751 -2.84826 -17.1188 12
21 1 -10.2934 -1.7948 12.1068 12
22 1 14.0134 6.52586 9.1368 19
23 1 -2.75905 6.64437 -18.1077 16
24 1 3.30606 4.50679 -12.072 19
25 1 12.2175 3.86999 8.91281 19
26 1 -9.50704 0.586569 -1.4177 21
27 1 -8.59586 5.72688 -11.7424 19
28 1 -2.97901 0.453565 -10.4474 20
29 1 -8.86993 10.9032 2.95774 18
30 1 4.88012 -11.2549 4.92592 18
31 1 4.32268 -1.55341 6.73642 22
32 1 0.656224 -13.5588 -10.1892 12
33 1 9.45874 -9.31124 3.70388 9
34 1 -11.1467 -12.455 -5.24 10
35 1 -11.7383 -5.91188 7.15768 20
36 1 5.28715 -3.34143 -11.8193 19
37 1 9.82449 -10.7503 -11.8211 15
38 1 -10.1068 5.77322 -14.5053 12
39 1 -3.17161 6.42464 13.7275 20
40 1 1.85139 -10.2273 9.72709 20
41 1 1.20846 -2.23499 8.39437 18
42 1 -10.3532 -1.46315 3.39502 18
43 1 -13.9342 -0.241945 8.37986 14
44 1 -6.56927 2.61435 -3.03427 23
45 1 -5.06672 14.7929 0.541113 18
46 1 -4.80151 -11.9522 -14.6591 6
47 1 2.29298 3.70709 -9.68241 20
48 1 5.18961 -6.69234 -6.8143 14
49 1 -3.50956 -0.905242 11.3127 15
50 1 -11.3046 11.2404 4.70055 17
51 1 3.22 10.3087 -10.1971 15
52 1 2.13627 17.0426 5.56116 15
53 1 -11.9502 10.8804 -6.92431 17
54 1 3.80915 12.0872 0.763348 21
55 1 2.98449 -10.6794 0.949561 19
56 1 10.8292 -8.4138 -6.5506 15
57 1 4.80828 -1.66508 -16.6163 14
58 1 -7.26004 9.25168 13.1737 18
59 1 -9.11367 3.7384 -8.94753 17
60 1 8.01208 -0.488588 3.59295 22
61 1 -6.09244 11.9008 -5.22845 18
62 1 -1.24165 -10.113 9.26304 19
63 1 -1.76591 13.2573 10.0796 20
64 1 -13.3059 8.1221 -9.23045 11
65 1 -4.34071 13.4393 12.0657 15
66 1 3.47777 7.07867 -4.68702 22
67 1 -1.01439 -9.84061 12.1714 10
68 1 6.04208 8.7596 5.43335 22
69 1 9.97948 -11.8812 -3.47912 6
70 1 1.24727 15.3252 12.7122 14
71 1 -10.24 0.438077 -12.7265 16
72 1 -10.7594 12.3635 -12.7189 8
73 1 8.19723 12.1082 15.291 12
74 1 13.2243 -5.65525 -10.5527 19
75 1 6.20708 -9.12716 2.81159 18
76 1 -10.3276 -1.35741 6.79108 21
77 1 -6.34307 0.330714 0.106007 22
78 1 7.91195 17.6422 4.6014 19
79 1 4.36258 1.51283 11.6169 21
80 1 -6.1785 -13.7207 7.31888 14
81 1 -7.47916 -0.466352 -3.05737 20
82 1 14.5578 0.816556 11.4157 12
83 1 8.9676 -0.0389409 -1.86959 21
84 1 -2.76371 15.866 12.0502 11
85 1 -1.64951 -3.03965 7.39473 19
86 1 -6.38375 -5.06476 0.46983 21
87 1 0.197449 -2.88896 -8.32973 18
88 1 -9.11095 8.57478 8.09412 20
89 1 -4.70893 9.8491 1.03204 18
90 1 -2.8282 7.29837 -10.0919 19
91 1 5.13187 -0.0503628 -7.2785 20
92 1 6.85417 7.1696 -9.81954 20
93 1 5.58202 -5.47375 -2.18311 18
94 1 2.55538 -9.57086 12.6079 8
95 1 -7.23838 17.8745 -4.07635 9
96 1 -7.80931 14.0745 3.70368 18
97 1 -8.11979 -2.02186 10.0944 17
98 1 -2.94833 13.2136 5.42163 18
99 1 -7.98725 -6.19552 15.9139 5
100 1 13.0829 -3.51779 -7.96576 22
101 1 -8.81368 -0.0468816 1.87943 19
102 1 -5.69841 -15.3034 2.31224 15
103 1 9.60108 -2.62443 -8.96418 20
104 1 3.89094 -0.143048 -13.0824 20
105 1 -3.15487 -2.29311 -13.4152 20
106 1 -2.52324 15.0634 2.40644 19
107 1 -6.29997 9.45206 -8.33059 18
108 1 3.69723 11.7634 15.009 13
109 1 -1.80729 17.9225 -7.86378 11
110 1 -12.5803 16.9973 -0.464962 7
111 1 8.34253 9.31141 0.643584 21
112 1 3.07834 -0.558111 14.0303 13
113 1 16.3578 2.62909 9.42452 12
114 1 1.19338 -3.93856 -5.88677 18
115 1 7.97535 -8.51494 -12.5756 19
116 1 -0.596707 6.56072 5.38755 20
117 1 3.50645 3.75023 8.7302 22
118 1 -11.7007 -4.97523 -2.23515 20
119 1 6.88683 -4.74869 1.45855 22
120 1 -14.4488 -9.65036 -0.710741 10
121 1 8.36978 -7.82829 0.800003 20
122 1 -5.43448 3.78214 6.05245 20
123 1 3.1024 6.05232 -17.1356 16
124 1 2.43733 17.4859 -0.837429 14
125 1 -8.20234 -11.9696 9.76394 12
126 1 -6.32497 -10.8238 7.75436 19
127 1 4.75065 -6.9855 -13.113 18
128 1 4.37076 8.82909 -7.97712 22
129 1 12.4811 -6.40699 -1.21555 13
130 1 1.24436 -12.7639 7.09387 17
131 1 -15.758 -2.22629 -2.19424 13
132 1 15.802 9.08337 9.86878 10
133 1 12.3315 -2.50629 -11.4456 19
134 1 -15.2179 -0.613137 0.405419 12
135 1 8.87989 7.52107 5.91986 21
136 1 12.4201 12.5546 7.27376 12
137 1 -7.45421 2.89237 12.8145 15
138 1 8.69665 10.1648 -4.54251 20
139 1 -5.24737 10.4814 10.6962 18
140 1 -2.49895 12.3472 -6.03385 20
141 1 -1.8519 -11.4531 -10.3976 15
142 1 11.972 -10.4485 -9.19602 13
143 1 0.35633 13.6394 -11.2545 14
144 1 7.92247 -2.29263 12.2102 12
145 1 -1.24655 -1.67274 -16.4048 19
146 1 -1.10465 9.64677 -5.14615 21
147 1 13.5415 0.305513 -11.6379 16
148 1 -11.8697 13.7563 -4.56394 12
149 1 -8.96414 16.9857 -1.30065 12
150 1 8.28768 3.60708 -16.1914 13
151 1 9.82308 -6.59018 6.76963 10
152 1 -1.85538 4.9424 -10.0043 20
153 1 -8.18952 14.1163 8.83785 10
154 1 13.4788 14.2017 -0.92808 11
155 1 3.58126 9.21578 -2.49078 16
156 1 -4.86544 15.2193 4.004 20
157 1 7.09375 11.4994 -1.81316 19
158 1 -3.05663 15.5661 -6.48416 15
159 1 4.36018 19.3283 -8.80813 6
160 1 2.48765 12.2984 -12.3026 10
161 1 -6.94864 -6.55001 3.0388 23
162 1 -12.735 11.7722 -1.7882 11
163 1 -3.39941 -6.13728 -9.32571 19
164 1 -3.59988 -5.96574 -15.9504 14
165 1 10.4769 16.3756 5.8438 9
166 1 0.789987 12.9594 5.57362 17
167 1 -16.262 1.75683 -10.3221 10
168 1 -10.5577 15.743 1.50812 10
169 1 14.3664 1.22315 -4.27131 19
170 1 -10.6725 2.70992 -14.8797 14
171 1 8.95275 2.65691 10.9966 21
172 1 5.43101 16.5323 3.44183 16
173 1 -0.285421 16.3885 7.3579 15
174 1 3.11309 -7.41756 -15.2137 14
175 1 -4.10972 12.891 8.2694 20
176 1 -8.24039 14.794 -9.84545 13
177 1 5.69076 -0.328706 14.1261 11
178 1 -9.87147 -5.63057 0.85426 19
179 1 0.376109 -7.75518 -18.0851 9
180 1 -10.3787 16.9095 -3.73652 11
181 1 -3.40435 -9.37356 6.81498 19
182 1 5.87659 -15.5605 -5.36182 11
183 1 -5.48908 15.9602 -11.9815 8
184 1 -12.8591 0.150467 11.9834 10
185 1 -0.119184 9.09472 -2.25362 20
186 1 10.6504 6.56455 -4.0229 16
187 1 -4.96754 10.8568 14.7212 14
188 1 -0.0713299 -7.35266 11.4117 15
189 1 -8.19727 5.69083 -2.26341 25
190 1 -0.901744 16.7227 4.08249 16
191 1 -1.86595 7.34901 11.6129 20
192 1 14.478 7.72489 12.77 11
193 1 -5.21266 12.3109 3.07986 22
194 1 10.951 -4.03249 -5.73067 18
195 1 -5.29747 15.5971 9.64402 12
196 1 -2.48147 2.89467 -7.67797 23
197 1 13.4997 -5.43618 1.96912 12
198 1 -4.36362 -2.99275 5.66386 18
199 1 -12.3129 0.366256 1.0705 19
200 1 -8.74404 -8.7854 3.28992 17
201 1 6.01824 7.00781 13.4256 16
202 1 -12.7834 -1.02159 -5.91174 22
203 1 -2.16971 -15.9126 -3.26772 13
204 1 5.65644 -12.9262 -1.3125 16
205 1 -0.888793 11.5483 7.73348 17
206 1 -8.18084 3.38242 -0.231573 19
207 1 3.65613 16.9454 11.7617 10
208 1 -6.2788 1.14063 -5.44218 18
209 1 -7.36773 12.5117 -7.61822 18
210 1 -11.6772 -5.40204 -11.7857 11
211 1 -5.68086 -3.81002 11.3109 14
212 1 -2.27491 -8.83553 3.4662 21
213 1 4.09441 -13.7761 6.93158 11
214 1 -13.4824 10.5696 1.66517 10
215 1 16.9284 1.34195 -2.6433 16
216 1 6.99126 3.24867 -7.03864 20
217 1 -6.23849 -6.43935 -14.0446 13
218 1 1.79041 3.59546 11.7416 20
219 1 7.22674 -13.49 1.26185 10
220 1 -5.54603 6.41706 -15.7009 18
221 1 1.07885 -10.0716 -15.2724 13
222 1 12.7399 1.66506 -14.1819 10
223 1 2.0703 8.98286 -18.4145 10
224 1 -8.01062 -5.06043 -7.17019 20
225 1 -3.50721 18.1199 -4.46875 11
226 1 -9.5567 -10.7876 7.17094 19
227 1 3.99695 17.4037 -2.97216 14
228 1 -8.02928 0.560099 7.55459 20
229 1 -4.78687 9.59166 -5.02814 20
230 1 6.77137 2.12993 9.00507 21
231 1 -0.00305929 -9.01763 -9.49623 18
232 1 -4.1852 11.5678 -8.47981 20
233 1 -1.25309 13.9424 -8.67012 19
234 1 -10.5498 -12.5559 3.50881 13
235 1 -11.7254 3.99386 5.84301 19
236 1 -7.23497 8.5351 9.84157 18
237 1 2.60424 -9.64297 -5.74567 17
238 1 -5.74945 -15.6718 -3.12257 11
239 1 9.89902 -6.50301 -3.63255 18
240 1 4.64161 -4.53385 -4.99953 22
241 1 12.3153 5.59884 13.6995 15
242 1 8.03545 8.83076 -7.92551 20
243 1 0.158437 16.5718 0.891574 16
244 1 -9.07061 -4.37039 3.85923 22
245 1 -9.58105 8.16263 -2.06447 21
246 1 0.0230983 9.28409 10.5422 21
247 1 0.55324 -16.3015 -4.38375 14
248 1 13.8294 2.67376 -1.23343 18
249 1 1.99933 4.49996 6.4243 17
250 1 -11.2368 5.31696 2.7519 18
251 1 -16.2262 -5.14401 -4.52774 8
252 1 1.83137 6.67824 -13.7423 19
253 1 3.21348 -1.48985 10.2129 18
254 1 8.09687 11.9079 -6.90109 17
255 1 2.67066 -11.5428 -3.90304 19
256 1 0.329824 3.09797 -13.4345 19
257 1 -2.26421 -14.0886 0.815049 20
258 1 8.30939 0.365844 -7.3818 19
259 1 -7.17225 2.01409 3.32814 20
260 1 -2.18633 -15.3061 -6.28394 14
261 1 -14.7473 -0.591075 -8.359 18
262 1 4.34332 14.1 -1.97907 17
263 1 1.39401 -5.94028 -13.4448 21
264 1 8.87836 5.78029 12.1077 18
265 1 18.512 5.87843 5.30372 9
266 1 -7.69485 -8.21738 -0.0305751 22
267 1 10.1804 -5.25657 -12.3306 20
268 1 -2.41732 -10.783 0.60353 24
269 1 -9.13238 -2.11782 -10.0864 19
270 1 -2.56027 3.2797 -12.6701 21
271 1 -7.13399 -9.52479 11.2259 12
272 1 11.7523 -1.89122 10.6319 11
273 1 6.15844 -5.37475 7.46598 21
274 1 -9.57435 -5.28254 -10.2242 18
275 1 1.74757 -5.37469 2.88807 19
276 1 1.28813 11.1732 -15.4168 10
277 1 6.33398 13.9453 0.289235 18
278 1 -6.46979 -2.79639 2.92404 22
279 1 3.86345 13.732 4.05788 21
280 1 -6.64974 -5.30697 5.59836 21
281 1 -12.7864 -3.50891 -9.33467 17
282 1 -6.62691 -7.96972 -11.2732 16
283 1 -1.30174 9.89435 -17.3147 13
284 1 -0.256665 -12.8065 -4.81633 20
285 1 -4.61416 -7.58708 0.886723 23
286 1 7.30691 -1.59375 -15.2151 16
287 1 15.3514 3.8927 -4.33745 17
288 1 14.6632 4.13375 7.18182 19
289 1 -3.42339 -5.39613 -3.87863 21
290 1 -9.17794 -4.03306 7.46668 21
291 1 -5.4311 -9.82477 -0.77237 22
292 1 7.15742 4.60782 17.0731 11
293 1 -4.09823 -14.2481 4.67305 19
294 1 -2.12715 -10.44 -2.73257 20
295 1 1.10988 14.6139 3.06124 18
296 1 7.71282 0.715791 -17.9544 8
297 1 -6.8607 -2.11492 -15.4623 10
298 1 -11.6235 -6.36357 10.0664 15
299 1 5.72627 10.0475 16.3076 14
300 1 -0.696141 -13.7642 -1.7781 20
301 1 -5.36005 -11.8582 -11.191 12
302 1 -10.2378 7.31863 -9.16656 20
303 1 8.5413 2.93702 5.46364 18
304 1 -6.38801 6.10155 -9.51906 19
305 1 0.726074 8.57788 -7.09985 19
306 1 -3.89342 -5.48683 3.17995 23
307 1 7.05285 -13.5229 -8.74499 11
308 1 -8.31897 14.2643 0.831696 18
309 1 2.44838 9.70755 -0.186874 21
310 1 16.8146 8.72407 4.86301 10
311 1 -7.67112 -0.778613 4.55894 21
312 1 -7.68775 0.112367 14.3182 12
313 1 -7.03766 16.8715 5.80816 10
314 1 4.76058 -4.97737 -9.36865 18
315 1 15.1482 11.757 -1.34368 10
316 1 5.96112 -10.4329 0.119253 18
317 1 -6.53596 -2.90011 16.2553 6
318 1 -12.4492 -3.21021 5.2471 20
319 1 3.71677 -18.0788 -4.45074 9
320 1 -5.77631 7.31784 15.1566 15
321 1 -8.621 6.52837 14.4507 11
322 1 -14.3408 -5.42952 8.25693 11
323 1 -14.9044 -5.97216 5.01599 12
324 1 17.0913 -0.804597 -4.56526 11
325 1 -12.0852 -6.94642 4.32118 21
326 1 9.99549 -0.140842 -10.8133 22
327 1 13.5854 -7.95353 -9.11808 14
328 1 -1.72966 16.6449 -1.58397 14
329 1 -8.193 11.3268 -3.34581 19
330 1 8.83375 8.7345 13.3254 20
331 1 -4.9116 -0.0468917 2.55456 23
332 1 2.40749 -13.1466 -1.23689 21
333 1 -6.65767 11.9397 0.620876 18
334 1 -2.96612 8.82282 3.26942 21
335 1 4.88102 -10.6914 8.04716 14
336 1 14.4298 -2.92366 2.75914 16
337 1 -0.608124 4.19135 13.6556 18
338 1 -6.16433 3.57691 -7.56354 17
339 1 -4.27287 1.75473 13.1537 18
340 1 -3.47546 15.8199 6.0729 22
341 1 8.86708 9.28675 16.8674 13
342 1 -7.16193 13.9022 -2.48309 19
343 1 -2.04023 -6.08079 -13.421 20
344 1 -8.57349 5.9054 -7.29605 19
345 1 7.61246 -11.2097 -14.5711 9
346 1 -6.34201 6.50825 11.8283 17
347 1 -15.8737 1.16186 -2.34792 14
348 1 -2.36741 -4.4002 -6.41842 17
349 1 -3.32425 8.71845 -2.07821 21
350 1 6.69042 -2.3903 8.63561 21
351 1 -12.5378 -12.2622 0.712323 10
352 1 7.59644 -6.18597 4.35054 20
353 1 -10.6756 -10.1059 10.8438 13
354 1 -12.4394 8.61343 4.05015 13
355 1 -2.94997 0.488856 5.4399 17
356 1 7.76603 -8.54712 -7.87656 12
357 1 -11.2822 3.48568 -11.9022 21
358 1 6.7434 -0.357957 -12.29 20
359 1 5.05254 17.8756 6.77429 13
360 1 -12.5707 0.558323 -2.74521 21
361 1 12.481 -8.88406 -12.2802 12
362 1 10.8686 4.35801 -13.8886 11
363 1 -8.94925 -11.9984 -6.93963 12
364 1 -12.5309 -4.46362 -5.36713 16
365 1 -7.0901 -12.4535 -1.02981 18
366 1 9.73266 3.42344 14.7382 15
367 1 10.4217 2.87478 -1.6837 20
368 1 -9.23894 0.888689 -10.2035 19
369 1 6.38051 17.559 -1.20549 16
370 1 -14.5485 2.5179 -7.20219 14
371 1 -6.58878 7.0321 6.16694 21
372 1 -9.59349 11.2204 -0.491427 19
373 1 -1.51312 9.63071 6.23617 22
374 1 5.57188 6.67708 16.4332 19
375 1 15.8004 -5.21394 -8.74683 12
376 1 9.80708 0.171257 13.4075 13
377 1 15.8206 0.106152 -8.94565 11
378 1 -5.57779 -14.4634 -5.82536 13
379 1 -3.33661 7.06203 0.751352 21
380 1 5.3344 -8.20982 -3.91716 18
381 1 0.568777 8.80685 3.30187 20
382 1 -10.341 2.70267 -3.13466 20
383 1 2.98164 -14.6391 -4.5469 14
384 1 15.0856 -2.15844 6.14978 11
385 1 -14.5739 -2.91817 -6.95965 13
386 1 -4.50039 -7.57823 5.01465 18
387 1 -8.73262 -7.36084 12.3505 12
388 1 -2.855 12.5938 -0.431871 16
389 1 -15.8863 -8.66646 -3.21175 7
390 1 11.1384 11.8203 15.9859 9
391 1 -11.8533 6.838 -2.76319 21
392 1 -2.015 10.8814 -11.2362 19
393 1 7.03802 14.0757 3.9345 20
394 1 -15.0411 -5.68816 -2.38118 11
395 1 -1.26618 -12.6576 -7.88428 18
396 1 -9.22006 -4.64124 10.5717 18
397 1 -12.952 9.15774 -0.932036 15
398 1 2.62957 -9.18079 6.4244 21
399 1 -5.48111 -11.5347 -3.80898 17
400 1 11.1228 10.2984 5.81143 17
401 1 4.18363 8.90744 -16.1055 13
402 1 -12.396 6.40873 -11.9798 13
403 1 1.28081 16.3921 -10.27 13
404 1 -6.32024 6.30965 -4.58212 20
405 1 -1.81709 -11.7914 3.63052 21
406 1 13.6413 6.56385 1.01833 21
407 1 -3.4541 8.56576 -13.5785 22
408 1 0.0148855 3.2353 8.92421 20
409 1 -13.5119 5.98379 -5.61847 17
410 1 -5.21939 5.50967 3.46326 21
411 1 -5.36541 -12.4565 2.10359 21
412 1 2.11215 -7.14969 -8.2573 19
413 1 7.22884 -5.5206 -11.9226 19
414 1 -2.44038 3.90572 5.98606 18
415 1 -16.7287 7.03595 -4.2765 7
416 1 -10.1729 -5.38953 13.4292 8
417 1 -10.54 10.9694 8.17879 16
418 1 -1.31013 -3.99339 4.15192 20
419 1 -8.38326 8.54134 -10.3575 19
420 1 11.0451 -6.0813 -8.38482 17
421 1 4.18869 -11.9457 -13.3519 10
422 1 -4.00915 -0.822744 7.9725 14
423 1 6.01291 -10.7098 -4.1184 15
424 1 -4.59663 9.25012 -16.1883 13
425 1 4.97792 -14.7824 3.92164 11
426 1 1.50959 15.7852 -5.7241 19
427 1 -8.49353 7.76304 2.17667 16
428 1 -6.77434 -4.96713 8.73556 21
429 1 -15.0387 -1.95029 -10.6717 11
430 1 -12.019 -8.48702 7.96904 17
431 1 9.20897 -3.24177 6.0525 21
432 1 8.7368 6.05009 -1.21453 20
433 1 4.70351 1.3498 -9.78928 21
434 1 4.42134 -4.51717 10.1065 16
435 1 11.663 8.32669 -9.45851 11
436 1 -2.87948 -1.27522 14.8144 16
437 1 0.676313 17.883 -3.52827 11
438 1 6.18572 -3.3169 4.21127 21
439 1 -5.59188 -5.94817 -5.69518 20
440 1 -0.430159 8.56722 17.3809 15
441 1 -6.96827 17.3813 9.00805 7
442 1 -11.1849 -7.55239 -5.02715 15
443 1 10.0446 18.6173 3.17785 10
444 1 2.68668 10.559 5.27196 21
445 1 -5.65875 0.973632 5.82348 21
446 1 -5.54042 -8.72726 -3.8802 20
447 1 -13.6517 7.10758 16.0493 2
448 1 -7.84976 -6.09946 -4.37909 19
449 1 -8.30461 9.6185 5.55411 21
450 1 -7.44257 -8.76552 -5.95377 15
451 1 2.65112 -7.90705 -11.2325 16
452 1 -6.8846 -9.83475 2.04947 17
453 1 -3.73895 2.2959 8.52101 21
454 1 7.29893 -0.646946 6.32316 21
455 1 -6.23173 0.625236 10.5793 17
456 1 -5.04033 5.42332 -12.2404 17
457 1 11.5496 7.41853 3.87832 22
458 1 -11.2737 -9.95147 4.76635 17
459 1 2.19181 6.1425 -6.97392 19
460 1 2.8325 18.4892 2.41637 10
461 1 -1.57521 6.23625 -7.69405 21
462 1 0.826161 13.5019 15.9228 9
463 1 -15.8138 3.44963 -4.96845 11
464 1 -1.35212 15.6814 -4.28765 15
465 1 8.77798 15.102 -5.40345 14
466 1 -4.34146 -6.1962 -11.9163 18
467 1 3.71249 4.02219 17.0076 14
468 1 1.80224 -14.2729 -7.2828 15
469 1 1.84407 -11.658 -8.28667 18
470 1 4.50555 -12.5005 1.80176 20
471 1 -10.707 9.2311 1.37852 18
472 1 4.0607 8.68874 14.1344 19
473 1 12.3537 3.6684 -5.1415 17
474 1 1.94965 11.7964 -2.95808 18
475 1 -6.42252 9.41869 -13.2304 19
476 1 4.14685 3.68081 -7.24464 21
477 1 1.96027 -7.93986 0.25365 20
478 1 -11.0156 -2.09044 -0.0418441 20
479 1 -1.96297 19.0377 5.71626 10
480 1 -0.604455 8.92755 -14.3465 17
481 1 16.8635 6.68406 0.330247 12
482 1 6.85485 16.915 -7.60948 10
483 1 6.98982 -2.55186 -1.67375 23
484 1 14.8619 -0.718952 -1.76333 22
485 1 3.17485 2.32548 -14.687 16
486 1 3.94435 -10.2315 -1.86231 24
487 1 -0.619885 -9.75458 5.64585 20
488 1 0.420456 -4.76502 6.78514 18
489 1 -4.47045 3.62026 -9.8578 18
490 1 -13.3953 -10.1686 2.42518 15
491 1 -0.199324 -8.81963 -12.201 19
492 1 10.5919 15.4001 3.48068 15
493 1 5.04181 4.93088 -14.2044 19
494 1 3.38563 2.80166 14.2914 16
495 1 -12.5906 5.27362 10.8576 14
496 1 -0.20033 -16.966 1.24342 11
497 1 -12.734 -2.48105 -2.4103 18
498 1 15.2805 -2.48887 -9.54407 15
499 1 12.1927 -0.301529 -1.74058 18
500 1 -3.07481 9.15024 -7.3162 19
501 1 -1.26331 -6.8409 -6.67126 20
502 1 5.79315 1.39819 -15.4125 20
503 1 12.3834 -1.62915 -5.21657 16
504 1 -5.4765 1.07247 15.6062 11
505 1 6.36563 18.7031 1.7082 13
506 1 -0.29522 -3.25321 -14.23 19
507 1 1.77589 3.39635 -18.802 12
508 1 -3.81179 -5.16078 8.5116 17
509 1 -4.86823 11.3572 -1.99466 20
510 1 -4.90375 0.527323 -12.7434 21
511 1 -13.2167 3.82783 -3.32034 19
512 1 -3.69232 -8.84142 -13.8931 16
513 1 -4.88224 -6.37339 11.4225 17
514 1 0.449413 13.0751 -5.52378 20
515 1 16.5127 5.83267 10.6749 12
516 1 15.0263 9.80734 0.985395 12
517 1 -8.64024 -14.2959 -3.90378 15
518 1 0.507101 -10.7653 -1.09188 22
519 1 -1.32445 -4.69971 -18.0219 9
520 1 -7.57622 11.6084 8.69752 18
521 1 2.28629 -4.25841 -9.9344 19
522 1 5.55467 9.91741 0.270854 20
523 1 13.4873 -3.35992 -2.89144 20
524 1 3.88818 16.8067 -7.55397 16
525 1 5.09114 -7.53255 -0.290995 19
526 1 13.7101 8.60523 -7.41432 9
527 1 6.32456 11.349 13.1316 18
528 1 -14.5145 2.44182 5.86665 9
529 1 8.83764 11.8305 8.06023 18
530 1 6.72085 0.22539 11.3301 16
531 1 -0.12156 6.31103 -15.8934 17
532 1 -4.89374 -3.5329 -8.15407 20
533 1 -0.640338 -1.92697 10.9052 18
534 1 8.70508 10.719 4.72513 20
535 1 8.27166 6.04124 -14.6941 14
536 1 -6.5983 15.9028 -7.04155 11
537 1 -1.7151 11.8267 -3.09265 19
538 1 10.5057 -0.345599 5.91599 19
539 1 9.66065 1.54589 -13.5649 14
540 1 13.9845 -6.7096 -6.56743 16
541 1 11.293 11.1582 13.1534 16
542 1 -12.3026 -4.26448 2.64995 17
543 1 -8.70848 9.38006 -7.51011 18
544 1 -0.734308 1.29379 11.8363 15
545 1 -12.7585 2.5022 10.1344 16
546 1 -4.98859 14.3859 -9.20132 19
547 1 5.10917 -12.9274 -6.50845 18
548 1 3.22767 -1.24014 -9.95428 22
549 1 -5.03869 16.3717 -2.208 12
550 1 -6.59178 -4.5487 -11.0929 20
551 1 1.65029 -11.44 4.46698 18
552 1 -7.86364 -2.70939 -5.03874 18
553 1 -2.22868 11.3813 -14.8379 13
554 1 -8.05908 4.0017 -5.18748 19
555 1 -2.16773 11.6318 16.5844 12
556 1 -13.4493 -1.20474 3.60606 14
557 1 7.24179 6.77975 -4.32256 22
558 1 4.64896 -9.49201 -14.7768 13
559 1 4.37389 -3.57072 14.6389 8
560 1 7.21919 1.25278 -4.42718 24
561 1 -13.6017 5.4471 -0.657546 14
562 1 3.78044 7.12807 18.8921 10
563 1 5.08083 15.8637 -4.86762 18
564 1 7.86539 -4.38193 -4.43951 20
565 1 3.52718 13.424 12.1459 17
566 1 -5.4233 4.88425 -18.3944 9
567 1 -4.71804 -9.69574 9.83449 14
568 1 0.977373 6.62024 -9.82372 20
569 1 5.0654 3.50372 -17.3509 14
570 1 1.96822 11.3904 8.43475 19
571 1 3.6616 7.31245 -10.785 19
572 1 -2.1644 -3.76812 -10.6325 17
573 1 -2.85516 -9.44659 -7.87753 17
574 1 -9.17185 -3.51605 -12.8706 14
575 1 12.5558 3.27536 1.17517 19
576 1 16.6973 6.59562 -3.69777 14
577 1 12.4185 -0.640051 -9.15321 17
578 1 11.4919 7.9749 11.6447 18
579 1 7.54151 -8.51143 -1.83104 21
580 1 -2.01413 3.94247 -18.1982 14
581 1 12.2822 9.88461 -3.43863 19
582 1 -8.4848 4.39522 2.48553 18
583 1 9.57301 6.0526 16.097 12
584 1 12.2723 5.51577 -1.80021 16
585 1 17.9439 2.79774 3.81929 11
586 1 7.68542 5.0519 -12.3352 17
587 1 4.48051 8.25555 10.5725 16
588 1 14.4531 4.24695 11.6782 17
589 1 0.302441 -1.1026 5.40675 20
590 1 11.0722 15.536 -2.55699 13
591 1 1.96559 5.48877 14.6216 21
592 1 18.4185 4.21484 -4.29642 12
593 1 11.3347 4.26762 11.5652 20
594 1 -9.4638 -0.130501 -5.32293 19
595 1 15.6869 3.91869 0.956187 18
596 1 9.75798 -5.76752 3.73247 17
597 1 -11.9855 8.12328 9.69127 13
598 1 8.64411 14.5926 8.83219 14
599 1 15.2977 2.17229 3.74083 21
600 1 -2.70319 10.2488 9.67698 20
601 1 -0.0117469 17.2381 10.7153 11
602 1 4.9182 0.367546 8.85614 19
603 1 -4.36932 -13.0261 -0.701029 19
604 1 -6.15881 8.36021 -2.46233 18
605 1 9.44933 6.01922 -6.6292 14
606 1 10.1694 -1.03288 -14.1088 12
607 1 2.9119 15.1757 0.484864 18
608 1 -6.71219 -12.8776 -8.9845 11
609 1 8.74463 -2.40374 -11.8587 21
610 1 -13.1442 2.48054 3.23807 16
611 1 -4.8612 9.63299 -10.8069 19
612 1 -1.25882 -15.0439 6.81091 11
613 1 -6.07323 0.60323 -9.45985 16
614 1 -10.991 0.279913 -8.0806 17
615 1 10.2187 -4.99856 0.977956 18
616 1 8.8643 12.5636 1.69346 20
617 1 0.52376 -7.23946 4.42746 19
618 1 -12.2394 -1.1189 -10.3596 21
619 1 -0.120081 0.828646 -18.1051 13
620 1 -4.26895 4.23078 15.8993 11
621 1 5.04433 10.0569 -12.8919 15
622 1 11.3773 0.892789 10.1566 20
623 1 9.75928 5.82889 -9.65966 18
624 1 12.937 11.8178 1.18973 14
625 1 4.16481 -13.2439 -10.0037 15
626 1 -11.6272 6.92964 13.1074 13
627 1 15.8268 -0.418897 3.61034 16
628 1 -1.66265 12.9787 13.9119 16
629 1 7.27628 14.1894 -9.10702 7
630 1 -10.9996 10.0816 -3.63332 20
631 1 11.3885 8.01148 -0.736571 18
632 1 -11.5013 -13.9816 -2.58925 10
633 1 8.99202 -3.68852 9.18542 14
634 1 5.71799 12.0524 6.08356 22
635 1 -5.35983 9.59809 7.54577 20
636 1 -10.7457 -9.68233 0.8823 17
637 1 -10.6884 -2.68238 -7.31587 23
638 1 10.289 1.91709 8.00514 20
639 1 -5.50688 -7.38689 7.9636 21
640 1 3.35639 10.7008 11.5182 19
641 1 -3.66586 14.3933 -3.13673 21
642 1 8.41639 5.43246 4.04738 21
643 1 6.4992 2.65195 3.38708 20
644 1 -1.87444 0.449528 -13.1907 21
645 1 -9.99616 1.1515 5.17981 19
646 1 4.09528 -3.91139 -15.0554 18
647 1 -4.95971 -2.1488 -5.11536 23
648 1 12.5466 -5.53562 -13.8541 11
649 1 7.02371 6.80591 9.34046 17
650 1 4.8879 5.79844 3.8081 21
651 1 -9.95308 9.58545 13.2831 10
652 1 13.4063 7.57307 6.48658 22
653 1 -0.138655 -2.42998 13.5936 12
654 1 0.336063 12.5363 11.6862 18
655 1 0.250782 -5.3483 -11.3181 17
656 1 -1.46297 4.57856 10.83 19
657 1 6.89623 9.37083 8.59122 20
658 1 -9.27255 -13.948 7.35033 10
659 1 15.1855 9.80122 -4.28821 12
660 1 11.5943 -11.6615 -6.33581 8
661 1 -3.0071 6.83502 -4.55011 23
662 1 5.69428 11.2234 3.06748 22
663 1 10.9342 10.0368 2.19576 20
664 1 3.04917 0.849279 -17.7535 13
665 1 -3.92857 7.15481 5.6989 22
666 1 3.11822 13.8221 -5.13961 18
667 1 14.5945 8.3681 -1.72148 19
668 1 -9.98907 -12.1334 -1.14515 14
669 1 0.28029 -0.0323175 -14.6691 19
670 1 -10.4147 14.5561 -2.02166 17
671 1 10.1411 -7.9102 -10.6995 23
672 1 6.57195 6.53674 1.08701 22
673 1 8.31638 9.30679 -11.5729 12
674 1 10.0519 12.6842 -3.99056 19
675 1 -1.37051 11.5535 3.48657 20
676 1 -4.6834 5.46058 -2.08766 22
677 1 8.82532 3.74692 -4.0205 23
678 1 11.9879 1.91168 13.2981 15
679 1 11.6698 8.50923 15.0009 15
680 1 -3.13855 -7.44236 10.0557 18
681 1 -4.73167 11.6823 -12.9683 17
682 1 4.93513 12.6533 9.19525 19
683 1 7.3646 -7.53103 -14.9028 15
684 1 4.94963 2.31301 6.31042 21
685 1 7.37918 18.2999 -4.64276 9
686 1 1.24905 8.7134 7.24813 18
687 1 15.9436 -3.68816 -5.78752 17
688 1 7.20698 7.59043 18.7548 11
689 1 -9.17216 2.57105 9.1137 16
690 1 6.94958 -15.6348 -1.90283 8
691 1 -5.04059 -1.80429 -10.9961 21
692 1 -5.69159 13.0676 6.41195 20
693 1 2.02184 1.28657 6.62378 19
694 1 6.82576 -0.779859 -9.74177 20
695 1 2.21322 11.7395 2.7087 19
696 1 -10.3857 -2.46452 -3.68485 23
697 1 0.389294 3.22819 16.7409 14
698 1 -8.33788 11.2825 -13.9165 13
699 1 -11.1012 10.2604 -10.599 15
700 1 8.9666 -10.576 1.32921 11
701 1 9.95795 2.95922 -7.37595 18
702 1 4.87639 -5.92631 3.96762 20
703 1 0.401262 12.5552 -0.143195 21
704 1 -12.9078 9.60273 7.41635 10
705 1 2.05229 -2.10045 -16.2906 16
706 1 0.746238 -7.6268 8.13942 20
707 1 8.27298 15.9654 1.32738 20
708 1 -2.33306 1.88475 15.6835 13
709 1 -9.11163 -7.83135 -12.15 10
710 1 -1.63119 -10.4962 -14.585 11
711 1 -7.57425 -10.0966 -9.34803 14
712 1 0.134333 19.7499 -9.5214 7
713 1 3.5824 -2.61073 -7.09373 20
714 1 -4.4224 10.3359 4.99449 18
715 1 9.72141 -12.9469 -9.7374 10
716 1 10.0404 -8.78994 -1.51721 17
717 1 3.96707 -7.8236 9.10293 17
718 1 16.8093 1.84254 -6.33995 14
719 1 4.73281 -10.0225 -8.33349 15
720 1 -6.65748 -1.97762 7.01762 19
721 1 -0.349934 1.94399 -10.6017 23
722 1 -6.0311 -16.2917 0.0707855 10
723 1 -12.9884 -9.76378 -3.79775 9
724 1 -8.2647 3.39502 6.49362 18
725 1 -8.61211 -15.6306 -1.33784 12
726 1 12.8558 5.48457 -9.38994 11
727 1 -5.45132 17.6258 1.12946 10
728 1 -4.06658 5.59213 8.49149 18
729 1 -11.7079 3.22733 -0.0730372 19
730 1 12.3789 -2.29832 0.204957 25
731 1 -7.59336 1.01801 -15.072 16
732 1 -0.921996 10.6475 -8.6698 15
733 1 8.14666 2.33724 -10.4362 21
734 1 8.73582 10.6083 11.1418 17
735 1 13.5946 1.34113 -7.11839 18
736 1 -13.2014 1.40175 -12.3877 15
737 1 -12.3629 -2.36912 -12.7644 13
738 1 2.21982 8.64215 16.337 18
739 1 5.59555 7.5538 -13.5608 20
740 1 9.58086 13.5002 6.37775 15
741 1 -0.276689 -0.226734 16.2585 7
742 1 -3.30119 -17.1452 2.44446 10
743 1 -8.02792 -14.7353 4.33036 12
744 1 -1.05468 -4.71178 10.2886 19
745 1 12.7541 9.84782 9.70132 17
746 1 8.87539 -9.17441 -4.61786 18
747 1 -6.48763 6.02539 0.760007 21
748 1 7.73459 8.22634 3.10819 23
749 1 -15.1876 -2.91479 6.79214 10
750 1 7.549 9.41536 -15.0863 10
751 1 -4.04744 -12.4357 -6.74638 12
752 1 1.44984 -16.5736 -1.60598 14
753 1 2.74378 -15.4144 1.549 14
754 1 5.75135 4.69145 -10.0263 21
755 1 8.54165 14.3747 -1.8341 21
756 1 -4.43927 -0.232234 -15.8401 19
757 1 -1.62714 5.44896 16.3821 16
758 1 -0.75624 6.53595 -12.7071 21
759 1 -7.94296 2.49884 -12.742 19
760 1 -7.35289 -1.50611 -7.7016 22
761 1 1.35221 18.8062 -6.92911 11
762 1 8.65991 3.69368 0.901705 19
763 1 -5.48034 -3.36349 -13.9538 19
764 1 -5.7357 -6.93689 -1.80917 20
765 1 16.8033 5.38957 -6.33513 10
766 1 14.6944 -4.16981 -0.612683 17
767 1 -9.40049 5.9974 11.5191 18
768 1 6.37325 -8.26391 6.756 14
769 1 17.206 -3.46393 -2.61341 13
770 1 13.7671 0.895993 8.25987 21
771 1 2.85062 16.946 8.83142 13
772 1 -11.2493 3.09379 12.0495 16
773 1 -10.019 5.76969 8.30314 20
774 1 -1.61314 -14.9191 3.42606 16
775 1 10.607 3.00564 3.07337 16
776 1 0.39012 11.1296 15.0096 17
777 1 -15.7122 -0.0519613 -4.94305 13
778 1 8.34441 -5.26982 -1.20449 21
779 1 -8.86869 15.1847 -5.20864 15
780 1 3.69779 8.91323 2.55222 21
781 1 1.5202 -14.8015 4.93946 16
782 1 6.85835 3.84918 13.6059 18
783 1 3.5249 14.5769 6.47914 17
784 1 3.68629 -8.71759 3.66766 15
785 1 -8.63856 -4.90543 -1.63642 19
786 1 4.17963 5.23889 13.4262 19
787 1 -16.2905 4.27518 -2.08569 11
788 1 0.931965 14.5701 9.44222 17
789 1 10.3694 11.3218 -1.03787 21
790 1 -12.8997 -6.92879 1.01864 15
791 1 -2.94468 -12.5526 6.60207 17
792 1 2.05664 -5.29062 9.38393 18
793 1 11.4585 -2.03094 7.89731 17
794 1 6.77483 4.70203 7.09832 21
795 1 1.23346 14.9453 -2.28178 19
796 1 -0.200904 -9.81629 -6.28957 19
797 1 -7.64436 4.60117 -15.5992 15
798 1 -2.95129 -4.08929 12.4791 14
799 1 -2.02934 18.4934 1.68038 11
800 1 13.4279 4.96466 4.01921 18
801 1 5.65033 9.35453 -5.39436 21
802 1 -2.94929 8.42947 16.0311 17
803 1 10.3717 8.16442 8.42422 16
804 1 6.34041 -8.38432 -10.1886 17
805 1 -4.77359 -11.4251 4.93337 23
806 1 -4.10481 -0.90671 -7.6357 16
807 1 15.9221 1.15785 6.42069 17
808 1 8.09232 -5.39596 -9.39223 19
809 1 -0.39424 7.71802 14.5559 20
810 1 7.0667 -12.4423 -11.7145 13
811 1 -0.0920864 6.80442 -18.9419 12
812 1 -2.68125 -8.57166 -4.29052 17
813 1 10.7441 7.13235 -12.421 10
814 1 16.6557 1.05226 0.815825 16
815 1 2.18743 -3.43306 12.1396 16
816 1 -5.96582 -7.36744 -8.31687 18
817 1 8.73364 18.2158 -1.28781 11
818 1 -1.28147 -6.51908 2.10599 20
819 1 -12.6576 6.2315 6.22837 15
820 1 13.7057 7.08365 -4.19125 16
821 1 15.3192 6.97983 3.20157 16
822 1 2.38652 -2.77091 -12.4796 20
823 1 -9.13715 12.7516 6.11932 13
824 1 16.2846 7.23337 7.27653 16
825 1 12.4709 12.4718 -3.68971 15
826 1 6.21791 6.5327 -16.6853 14
827 1 10.0494 -3.10483 -2.26402 19
828 1 -10.4177 5.98824 -4.93577 21
829 1 10.4948 5.02297 6.41895 21
830 1 -13.6736 -3.79647 -0.214914 14
831 1 -10.1615 12.6864 -9.14243 14
832 1 4.32208 6.87001 7.72802 20
833 1 -13.0597 2.39362 -9.29951 18
834 1 -9.52442 6.58478 5.44815 20
835 1 -5.11411 3.31541 -15.4827 20
836 1 9.52519 -4.75258 -15.4395 11
837 1 -11.1806 -6.35282 -7.99129 15
838 1 14.812 -5.81874 -4.21197 12
839 1 -13.7588 9.32718 -4.43701 13
840 1 -8.41308 -9.76547 -3.18178 17
841 1 14.8188 10.2154 6.58372 13
842 1 -7.21671 -9.06011 5.77015 23
843 1 5.87143 4.20895 10.7969 20
844 1 12.408 -3.78479 5.39732 17
845 1 12.8568 -0.564721 3.56477 21
846 1 -14.8414 2.7594 0.463779 13
847 1 -2.97956 16.8652 8.95418 14
848 1 5.33372 12.1808 -7.80669 15
849 1 -0.444928 -7.44745 -15.2479 19
850 1 -4.59928 18.3474 4.06473 14
851 1 -12.1535 -11.7881 6.7526 11
852 1 6.63442 12.734 -4.43159 18
853 1 1.80483 7.94517 12.0634 17
854 1 17.9395 -2.68812 -7.58618 8
855 1 3.63656 -4.22323 6.82234 19
856 1 -1.76927 16.3555 -10.2343 12
857 1 6.49971 10.8838 -9.70207 17
858 1 -6.98829 5.4297 8.75563 19
859 1 18.0645 3.66527 7.14934 11
860 1 -0.159013 -1.42984 -11.042 24
861 1 10.8683 13.8641 0.467478 19
862 1 -11.4828 2.37218 -5.86292 19
863 1 -0.116912 -12.8985 9.57946 9
864 1 2.40833 13.8182 -8.7999 16
865 1 8.67268 -0.680922 9.41951 22
866 1 -3.38369 -12.9307 -3.547 18
867 1 -10.8083 12.8555 2.21005 13
868 1 -11.58 8.1884 -6.43243 24
869 1 12.4117 2.45646 -9.74857 14
870 1 0.707668 -12.8268 -13.2138 9
871 1 -6.13557 8.32042 3.51208 20
872 1 10.9895 10.1625 -6.21796 14
873 1 -1.05328 1.14918 7.81598 17
874 1 6.85572 -4.52898 -14.5642 18