ITEM: TIMESTEP
2
ITEM: NUMBER OF ATOMS
1500
ITEM: BOX BOUNDS pp pp pp
-30.0 30.0
-30.0 30.0
-30.0 30.0
ITEM: ATOMS id type x y z Coordination
1 1 -5.86799 -8.18816 -5.83849 9
2 1 0.669142 -10.8658 6.4387 11
3 1 -18.7115 8.98341 -0.736709 9
4 1 -14.7552 -0.030645 -3.91221 20
5 1 -5.20076 -3.48137 15.3277 21
6 1 -13.2656 7.78568 -2.53974 19
7 1 -8.71328 2.09613 -2.54939 21
8 1 -11.0908 -5.79882 13.9111 19
9 1 -13.141 -1.12315 15.6747 23
10 1 1.30613 6.83961 18.9848 13
11 1 -0.440815 2.48298 12.1806 22
12 1 -4.33787 2.26578 22.1373 14
13 1 -0.797181 2.29271 8.9965 24
14 1 -4.76489 11.8167 -2.13876 23
15 1 -10.1348 -0.134779 17.2061 24
16 1 5.71075 11.7028 13.4583 16
17 1 0.478379 15.6154 -3.29532 12
18 1 -4.72642 8.87742 -7.23766 21
19 1 -13.8077 2.04742 10.9064 24
20 1 -8.61395 2.25029 -6.6623 18
21 1 2.99366 -5.36475 13.9049 13
22 1 -2.99769 1.26722 13.7602 21
23 1 4.15914 -5.82686 8.48937 15
24 1 -12.5765 -9.40812 5.52975 14
25 1 -1.35546 -0.48777 0.5973 23
26 1 -1.38956 -3.23972 -4.27741 23
27 1 -5.0772 17.2037 13.841 12
28 1 -8.74683 -10.0644 13.6333 10
29 1 -2.19259 0.953672 17.2933 19
30 1 -16.5383 0.559015 10.5922 21
31 1 -10.8504 3.13121 -4.41551 21
32 1 -11.4135 15.0019 3.10781 16
33 1 -2.8844 7.45676 -2.63699 22
34 1 -3.82399 -1.17898 -4.43486 22
35 1 -7.3772 1.38024 20.5013 16
36 1 -13.8792 7.78006 7.61694 25
37 1 -2.219 16.3493 12.0754 17
38 1 -15.8465 9.10456 -0.4951 15
39 1 -7.28548 16.4933 2.0 14
40 1 -1.37429 -3.54157 5.37756 24
41 1 5.22522 -5.04216 -1.42242 13
42 1 -13.8339 10.6203 16.3994 13
43 1 -15.829 -8.46448 4.86156 10
44 1 2.41216 4.19877 12.3423 23
45 1 -16.0828 11.9315 0.746397 16
46 1 -14.0882 -0.893216 12.4907 20
47 1 -19.942 0.733196 -4.23616 6
48 1 -2.49714 10.1539 -0.649468 22
49 1 0.0355755 8.06882 8.83432 23
50 1 -3.01054 7.22958 13.882 23
51 1 4.06742 -7.55806 0.35545 15
52 1 -0.202913 10.6251 17.1976 18
53 1 4.19816 0.31464 -3.93039 20
54 1 5.32936 -2.76246 9.80974 17
55 1 -11.5614 -0.104583 7.41462 24
56 1 -1.44013 -0.042315 21.9027 10
57 1 -11.8735 -9.34183 12.084 13
58 1 -14.1062 2.00383 7.56348 23
59 1 6.13903 12.8284 11.019 18
60 1 4.65974 3.06389 3.90699 25
61 1 -2.95456 13.2014 20.1632 13
62 1 -2.87654 4.16504 15.6212 23
63 1 -14.1419 -0.482958 5.54003 22
64 1 -7.80941 -8.61924 -1.6063 17
65 1 -16.7348 13.9498 6.0188 11
66 1 -4.93618 9.03193 -3.97344 22
67 1 -0.905431 2.26729 -0.952221 26
68 1 1.83965 1.30464 0.955826 22
69 1 4.85052 -0.35179 12.2742 19
70 1 -2.61905 -5.02343 13.7955 18
71 1 -8.46668 16.766 -1.42131 9
72 1 -10.8227 8.3983 12.2003 20
73 1 -10.8553 11.5814 7.48417 22
74 1 0.536522 -3.81049 14.7012 16
75 1 0.756066 -9.54749 0.43016 14
76 1 -16.4411 8.53881 9.04948 15
77 1 2.78062 -4.96034 -7.21352 9
78 1 -5.42789 3.26802 -7.71517 22
79 1 -7.20616 5.24197 -10.5095 15
80 1 -4.92226 14.0929 8.95952 20
81 1 -10.1596 12.2901 -5.08616 15
82 1 -4.65822 15.2003 -3.52884 12
83 1 -5.24579 11.5001 7.21828 20
84 1 -10.8685 -6.03865 17.4383 17
85 1 -6.48878 -0.236683 -3.07566 21
86 1 -1.21439 -0.432555 -2.50596 26
87 1 -1.83503 7.28673 17.2331 17
88 1 -19.6516 -0.856355 2.39404 8
89 1 9.76938 2.72573 5.49013 17
90 1 -12.0561 -5.5169 3.85397 19
91 1 9.05796 -2.60582 9.2718 14
92 1 -11.1144 8.9668 5.95621 23
93 1 0.308696 5.03652 -9.15846 16
94 1 0.0938103 8.20383 -0.707228 19
95 1 3.59458 -8.32524 -2.12732 8
96 1 2.90363 -7.52456 10.8274 12
97 1 -19.4931 1.0546 5.95855 12
98 1 -13.6339 -4.05464 14.0278 15
99 1 4.12199 12.7285 16.4511 11
100 1 8.94727 12.0055 6.32332 9
101 1 -7.51216 13.4096 14.026 22
102 1 -10.3337 14.7835 -1.60802 14
103 1 -9.0703 -0.828387 -4.61168 21
104 1 0.554341 0.318354 18.9684 15
105 1 -6.95456 13.6736 -2.3359 20
106 1 2.81614 7.31098 -2.28304 20
107 1 -13.2425 11.0779 -4.75536 13
108 1 -9.86168 14.6855 6.10259 18
109 1 4.66301 8.50823 -6.38568 13
110 1 1.97948 -2.55678 12.1198 17
111 1 -10.4159 6.10622 -2.66747 19
112 1 3.50883 15.3109 1.07914 18
113 1 5.49371 15.6663 9.84742 12
114 1 -7.21618 13.4896 7.2327 22
115 1 -13.9666 -1.48666 -6.94696 14
116 1 -5.50938 17.0284 10.5541 22
117 1 -14.3378 2.55495 0.694977 23
118 1 10.2094 6.13876 1.24239 14
119 1 -7.18161 13.4213 10.6407 25
120 1 -7.37293 13.362 0.825532 19
121 1 -5.14077 -3.49729 18.569 15
122 1 -11.5088 -2.69896 12.6402 22
123 1 -9.26414 -6.95092 8.86115 21
124 1 -1.90941 -9.55455 1.80971 16
125 1 -7.4475 11.0994 -7.17851 18
126 1 -2.80224 10.1625 2.45719 20
127 1 6.30362 10.6156 4.06233 12
128 1 -4.88268 -0.519192 17.0789 21
129 1 -11.2495 6.02097 4.23118 23
130 1 0.78211 14.8018 5.66894 19
131 1 -2.40528 10.0058 19.2926 22
132 1 -9.76776 14.3419 9.21244 19
133 1 -8.36088 5.00889 -4.54307 19
134 1 11.7501 0.750899 4.66581 10
135 1 -8.92346 -4.26062 10.9849 21
136 1 -16.3456 11.6961 4.17427 18
137 1 -10.6765 -3.09527 15.8209 22
138 1 -19.2414 11.2923 5.62645 8
139 1 -10.0445 -12.33 4.5713 9
140 1 -14.2251 -3.49506 7.46465 22
141 1 4.43292 0.892057 -7.19592 14
142 1 -8.16247 16.3647 9.20389 23
143 1 -8.53385 1.96636 14.065 22
144 1 -12.9046 5.33626 -4.45432 19
145 1 -13.4061 11.0951 2.56222 20
146 1 -19.1309 5.45477 2.76669 12
147 1 -13.9817 1.95202 13.9876 25
148 1 -7.52732 -11.7139 6.00725 12
149 1 3.21811 -9.6771 5.20481 9
150 1 7.13915 3.66445 9.23203 20
151 1 -0.532857 7.92866 2.53785 22
152 1 3.78209 6.95325 16.5582 17
153 1 -2.56217 10.8394 -10.4604 10
154 1 2.81579 7.42647 -9.68762 10
155 1 -11.5022 0.370744 -2.77064 22
156 1 -12.5016 13.3679 -3.32843 14
157 1 -12.6486 13.8775 0.387056 19
158 1 -0.275438 5.28884 14.0272 23
159 1 -5.55671 0.169124 -10.0734 14
160 1 -10.0049 11.8552 -2.26343 21
161 1 0.718313 12.5488 -7.79057 10
162 1 -8.31051 7.46747 17.3523 21
163 1 -7.51817 10.5429 12.2542 22
164 1 1.23054 -7.10525 -1.20496 18
165 1 -13.8653 -6.86512 12.8054 13
166 1 3.67859 -6.25916 4.94108 20
167 1 1.94309 -1.88483 5.49146 22
168 1 6.30555 8.36122 -2.28535 16
169 1 -10.8869 17.2294 7.4644 16
170 1 -13.9354 4.85049 8.97748 22
171 1 -2.6723 16.7836 18.3451 6
172 1 8.99264 8.83848 12.3347 16
173 1 -2.11279 12.9665 14.0988 21
174 1 -8.31184 7.5949 13.8284 19
175 1 -17.6758 3.71237 -0.102446 19
176 1 0.319005 8.64638 -7.65426 18
177 1 -0.0312233 2.24411 15.5572 19
178 1 3.50783 9.89399 -3.86654 19
179 1 -4.66671 -6.94391 -1.72722 23
180 1 -4.3505 11.7981 -8.44558 13
181 1 1.92988 3.97516 -1.00009 23
182 1 -14.0943 -0.807652 9.13758 24
183 1 -4.88085 -10.0486 3.36466 17
184 1 -14.6815 -3.04851 -3.29576 14
185 1 -3.30952 16.7134 2.52012 19
186 1 -5.9021 10.3313 -11.316 7
187 1 -2.72664 7.78666 21.1864 16
188 1 11.9697 6.19529 6.75977 12
189 1 -4.3091 -7.00317 5.13998 21
190 1 6.7831 -2.28186 1.11305 15
191 1 -6.46268 -9.12388 8.51818 19
192 1 -14.2907 5.33136 -10.2256 9
193 1 -16.7986 2.04723 -5.19629 18
194 1 10.6207 7.49004 9.11607 18
195 1 -5.74302 2.65794 12.191 26
196 1 -13.8143 -0.697163 -9.93687 10
197 1 -3.74506 -4.13468 10.6052 22
198 1 -7.32286 11.0155 -4.37067 20
199 1 -0.155823 11.0894 3.88673 21
200 1 -11.2026 2.81693 12.4902 24
201 1 -4.87687 14.8743 5.59612 22
202 1 -10.1137 2.36283 18.8839 20
203 1 -12.4214 -5.19014 -3.16878 17
204 1 -11.6429 -5.17029 -6.71992 9
205 1 -10.369 -9.24934 3.42269 19
206 1 -4.59696 -10.2621 6.69426 15
207 1 8.22199 10.6785 14.6509 8
208 1 -9.57916 -6.68378 5.50354 19
209 1 -13.3584 -4.41192 17.1941 15
210 1 0.86153 -10.8716 3.19755 14
211 1 -4.0325 -4.55199 7.40844 22
212 1 -3.21199 18.9304 9.28624 10
213 1 -1.09295 2.53018 -7.43258 20
214 1 -16.6809 4.06268 -7.61888 13
215 1 -3.95393 -10.3288 0.0722013 15
216 1 -6.42791 -3.0599 -4.68975 19
217 1 -14.2464 5.04363 -1.05597 20
218 1 2.55281 10.2193 15.4838 19
219 1 -15.1462 2.52615 -9.62595 13
220 1 -7.72591 14.2508 -5.43323 11
221 1 -8.41021 4.78878 12.2719 24
222 1 -11.13 17.0595 0.717359 11
223 1 -4.93457 14.3968 15.4566 21
224 1 7.74287 6.94329 7.23368 20
225 1 -19.5513 6.99519 8.6593 9
226 1 -8.80601 -7.01836 15.6953 14
227 1 -13.6492 10.7534 9.21035 21
228 1 3.76768 -5.13422 -4.63413 12
229 1 1.38146 -4.78307 7.02367 22
230 1 -4.74774 10.6992 21.105 15
231 1 -19.5028 2.04196 2.52125 15
232 1 7.45268 1.03121 0.381821 16
233 1 5.67277 3.09633 -5.71232 13
234 1 1.03356 -4.45399 -2.38656 19
235 1 -8.92611 -1.21808 9.15534 20
236 1 -15.7033 15.0784 -0.201338 9
237 1 -2.73641 7.05918 10.5165 23
238 1 -2.42896 13.4681 17.4021 18
239 1 -16.3949 3.21954 12.487 16
240 1 1.15806 -4.48811 3.77317 21
241 1 -8.61758 18.7799 12.2771 12
242 1 -12.9238 10.6907 12.6888 19
243 1 3.03427 -1.74449 14.6057 17
244 1 5.51382 5.59995 12.2724 20
245 1 -14.5865 15.8103 11.7568 10
246 1 -9.27129 -1.01756 2.19947 22
247 1 -9.8542 8.08611 19.7798 15
248 1 -13.3022 16.6056 8.97072 13
249 1 -10.2881 8.9197 -0.8922 24
250 1 -15.6081 9.77211 13.8603 12
251 1 -16.2714 11.4372 7.48317 16
252 1 -8.89159 -0.803461 -1.03829 21
253 1 -13.4634 16.4307 5.46856 10
254 1 2.23274 1.44433 13.4682 18
255 1 -16.7823 -2.58245 9.10168 19
256 1 7.98198 2.76048 15.2288 13
257 1 -19.7308 7.82728 5.38408 9
258 1 -7.3919 -1.5244 18.9115 20
259 1 -1.83515 -8.81658 -1.51351 16
260 1 -13.81 2.62366 -6.27408 22
261 1 -3.70404 1.75277 -5.87218 23
262 1 0.0762824 14.154 9.20998 18
263 1 -14.1948 2.27001 3.89341 22
264 1 -3.56114 -6.97288 -7.92899 10
265 1 -3.66351 -10.3599 10.1865 13
266 1 -16.7561 -5.39604 6.86723 12
267 1 -6.86798 -6.12277 3.17483 22
268 1 9.41118 6.02893 4.88224 19
269 1 -15.5812 5.06079 -4.69806 17
270 1 -19.6167 2.1605 11.0613 8
271 1 -13.4117 7.93107 14.421 19
272 1 -15.3008 14.4465 8.8825 15
273 1 -11.6425 17.3304 11.7611 11
274 1 7.16114 0.640185 6.90935 20
275 1 9.17115 -4.32632 2.63284 8
276 1 -8.67628 10.5043 2.85125 19
277 1 -3.90003 -4.44328 0.432972 20
278 1 -4.69467 11.267 10.5992 21
279 1 -13.9141 5.30716 2.34369 21
280 1 4.18169 -3.32749 6.84507 26
281 1 5.32285 2.55949 13.7555 22
282 1 -11.4742 3.19856 -0.957033 24
283 1 -9.1488 -9.48576 10.4632 15
284 1 -9.63499 17.5918 3.82053 11
285 1 -10.0386 -9.67661 0.223736 11
286 1 -13.219 7.81677 0.79304 20
287 1 -5.58668 17.2607 -0.00959369 9
288 1 -5.36943 17.2036 7.57151 20
289 1 -17.3549 -2.37378 5.9067 14
290 1 -12.1899 -2.46422 -1.24404 22
291 1 -16.4964 6.25199 10.6943 17
292 1 -16.7598 6.28544 0.988548 23
293 1 9.98972 -0.245517 10.9054 14
294 1 -12.3067 -9.1205 8.95348 15
295 1 -0.104732 14.3785 -0.573776 17
296 1 -15.696 12.1999 -2.42205 10
297 1 -1.3828 -6.30809 6.48063 22
298 1 7.92488 7.02827 10.2453 18
299 1 -4.79747 2.31163 18.7336 20
300 1 -16.8625 5.72159 7.64076 21
301 1 -4.71769 14.1061 12.3779 22
302 1 -11.7142 -2.90419 9.30862 22
303 1 -3.89316 -1.51274 -1.16984 20
304 1 1.7758 1.23818 -2.30814 21
305 1 -2.79907 4.40965 12.2954 21
306 1 -16.9923 3.27979 9.3473 20
307 1 -6.36923 -6.01311 10.2028 24
308 1 1.338 -7.30759 -4.58692 11
309 1 -2.72885 -3.28114 -9.19665 11
310 1 -10.8516 2.93592 15.4941 23
311 1 1.70511 -1.52564 2.19431 21
312 1 -9.82474 6.83039 -9.12576 17
313 1 -1.59 -9.55836 8.38706 20
314 1 -4.9273 14.337 2.47991 20
315 1 -11.7251 2.59865 21.7753 9
316 1 -14.3243 3.84537 19.2783 11
317 1 -0.235663 -0.626972 13.4022 24
318 1 7.12614 3.97873 5.60508 23
319 1 -10.8986 8.73063 8.99694 23
320 1 -0.401255 7.70283 -10.6155 10
321 1 -1.01087 -3.59697 12.1558 26
322 1 11.8672 9.93401 10.6438 6
323 1 -6.78155 7.27107 20.8578 13
324 1 -3.79327 19.6833 2.82324 9
325 1 -3.35092 -1.51248 12.1779 23
326 1 -7.07924 -11.6715 -0.786951 9
327 1 -2.23391 15.9183 15.0263 14
328 1 -12.0874 -5.66884 0.504451 19
329 1 -2.59766 10.0161 15.5357 19
330 1 -13.724 4.97844 12.4185 24
331 1 -9.3429 -6.74304 1.78836 18
332 1 -16.088 6.20406 14.1081 12
333 1 -14.5859 -6.10033 2.32829 14
334 1 -7.49734 15.953 12.5249 19
335 1 -9.97415 -6.63696 -4.7743 11
336 1 -8.66482 -0.794637 -8.30537 16
337 1 -13.3704 -7.13459 15.8667 11
338 1 -11.3108 2.94716 9.11985 23
339 1 1.9673 4.19865 8.42317 21
340 1 -7.59274 -1.67688 16.2738 19
341 1 -14.0733 8.2807 -5.83264 13
342 1 5.2173 5.4457 2.0272 21
343 1 -15.0283 -7.32159 8.20021 13
344 1 -5.3756 8.48372 -0.954438 20
345 1 -5.8088 17.8556 4.08649 16
346 1 -7.52572 10.7017 -1.12792 21
347 1 -4.69354 11.3097 13.9524 22
348 1 -16.9466 -2.13669 2.40456 15
349 1 -1.49683 18.6575 0.554012 7
350 1 -12.0707 -2.723 2.07763 24
351 1 -7.14502 -5.89238 -3.41894 19
352 1 -3.09144 -0.436379 -7.90851 21
353 1 -14.1045 13.7418 4.25671 19
354 1 -2.68257 4.94072 22.8769 12
355 1 5.35475 11.9079 8.24927 18
356 1 -2.75042 10.4648 5.48187 20
357 1 -18.5788 4.01084 -3.51671 12
358 1 -0.588614 5.50324 -2.26759 22
359 1 6.79294 -0.512264 10.0121 21
360 1 -16.8969 0.367442 7.60608 23
361 1 -10.8037 9.80298 -7.39847 17
362 1 9.87738 9.23896 2.06391 15
363 1 4.75733 3.04989 -2.47484 19
364 1 7.78798 6.83476 -0.0847311 14
365 1 -2.88848 4.3174 -4.04573 19
366 1 -0.984521 -3.37269 8.74154 25
367 1 -6.07247 -9.05595 11.6628 18
368 1 -6.38531 -8.67156 15.7209 7
369 1 -11.0002 8.9956 -4.12281 20
370 1 -0.852422 -6.01224 -6.0458 15
371 1 -2.54283 4.88885 -7.35431 19
372 1 -4.49731 -0.331898 20.3501 18
373 1 -14.3384 -3.68312 10.975 20
374 1 9.46157 0.0243805 2.10744 11
375 1 4.26011 0.180029 8.56053 22
376 1 -7.77975 13.7118 4.13085 20
377 1 4.82652 -2.38702 -2.98915 16
378 1 -2.28264 7.54381 -5.80096 21
379 1 6.93422 -2.74484 4.26957 18
380 1 -10.8441 5.51562 17.5044 21
381 1 5.3825 14.7244 13.3135 10
382 1 -12.9657 2.32792 -11.805 8
383 1 -5.37323 2.5135 15.4235 19
384 1 -6.67702 20.1683 10.5664 9
385 1 -11.1108 0.403036 -9.9932 14
386 1 -19.6487 3.82784 7.57723 11
387 1 -10.5173 -3.07498 18.9526 15
388 1 -1.85497 14.1034 -5.64525 11
389 1 11.0559 -1.30007 7.60468 10
390 1 -16.4578 -5.65227 10.3777 12
391 1 -4.22785 -4.22691 3.71304 24
392 1 -10.2527 14.1483 12.4126 21
393 1 2.29292 -1.34879 -7.86101 16
394 1 -5.6832 11.425 4.01786 23
395 1 4.54454 2.79429 7.38165 24
396 1 3.08854 12.6981 4.00298 20
397 1 1.32458 -7.67439 8.2722 18
398 1 -11.261 8.78896 16.6687 18
399 1 -2.66736 16.2589 8.69974 18
400 1 -2.74006 7.96818 -9.04798 18
401 1 -11.6175 -3.00201 5.65293 20
402 1 -2.55523 -4.39676 17.1729 10
403 1 2.86984 12.6715 13.5636 16
404 1 2.58462 14.2821 -1.73601 17
405 1 -13.2249 10.8299 -0.977444 22
406 1 -7.80289 16.7139 5.67142 19
407 1 5.87494 -3.81972 14.3571 10
408 1 6.94525 7.42769 3.95295 17
409 1 -11.9678 -5.4726 7.4446 21
410 1 -9.25158 5.4364 21.7551 11
411 1 0.487123 12.541 -4.77166 17
412 1 -4.02008 -7.29459 1.8104 18
413 1 -0.426092 2.60264 -4.06022 23
414 1 -3.81869 14.6284 -0.538561 19
415 1 -7.84358 2.20736 -9.65492 18
416 1 -1.52449 -6.53041 3.52265 20
417 1 -19.4954 -0.461901 9.36537 11
418 1 -10.9947 5.96745 0.616157 20
419 1 -11.2472 -0.0517095 14.1319 24
420 1 0.879259 14.5831 2.35417 22
421 1 -11.9573 -2.46325 -4.87158 22
422 1 0.116688 -6.6316 12.833 15
423 1 2.97939 7.24632 1.02595 20
424 1 -13.7403 10.7011 6.10222 22
425 1 9.4722 -3.90641 6.06758 12
426 1 -1.68157 10.6749 22.2149 11
427 1 -4.9195 6.05264 -5.68718 24
428 1 -2.44841 17.1528 5.65821 18
429 1 0.132222 8.53283 -4.09249 18
430 1 -5.77927 -2.54521 -8.25196 15
431 1 -6.95 -9.21663 1.29349 21
432 1 -14.2977 -6.07787 -1.3582 11
433 1 9.87742 4.23871 8.5328 13
434 1 9.8412 9.01798 5.85295 18
435 1 5.86584 -5.19692 2.00631 17
436 1 -1.43604 -3.46877 -0.969291 22
437 1 2.54793 19.282 4.92855 6
438 1 -11.2667 5.82565 7.41359 25
439 1 2.74117 6.67905 4.06961 19
440 1 12.7761 9.27213 7.39735 8
441 1 1.51123 0.811978 -5.95135 21
442 1 -0.240362 4.85695 20.5284 15
443 1 -6.07551 -0.26138 13.8641 22
444 1 -0.378716 8.0173 5.56114 24
445 1 -5.31571 5.11701 20.6382 16
446 1 7.50625 3.88957 -1.01952 16
447 1 8.01058 9.91997 8.77742 18
448 1 -11.7701 0.405301 0.529166 23
449 1 6.34475 13.3796 5.25079 16
450 1 4.58823 2.31247 10.8673 19
451 1 -6.55525 -3.25348 5.50642 21
452 1 2.99571 -0.26506 17.4351 13
453 1 0.565256 14.1821 12.173 17
454 1 2.85611 7.3047 10.3428 21
455 1 -16.71 9.0912 2.71796 17
456 1 2.31191 7.08614 -5.88446 19
457 1 5.96402 5.90771 -4.23627 13
458 1 -8.25165 19.1903 7.70349 15
459 1 -6.38194 -5.55101 -7.01524 12
460 1 -15.4947 10.2093 10.9251 15
461 1 -10.389 6.59324 -5.93835 22
462 1 -9.70027 -9.65429 6.94088 17
463 1 -7.66547 5.24926 -7.71972 21
464 1 -16.3063 -1.96724 -1.32865 13
465 1 6.09111 -5.07519 5.46468 14
466 1 8.11849 14.133 8.29127 10
467 1 -5.10799 -6.34995 13.4733 20
468 1 -16.9761 1.56319 -2.25103 19
469 1 2.73808 3.99172 15.7042 19
470 1 -5.42927 11.2634 17.2396 22
471 1 7.70728 10.7037 -0.349755 13
472 1 2.64142 10.608 -7.0494 13
473 1 -1.54813 -6.17628 -2.75508 23
474 1 8.69568 5.46739 12.8747 14
475 1 -0.0707358 11.4125 7.14824 23
476 1 11.4687 4.38664 3.2533 13
477 1 -5.51264 5.50327 17.2917 21
478 1 -14.2738 -0.490711 2.41949 22
479 1 -16.3997 0.26824 -7.80111 12
480 1 5.98129 -0.364892 15.4297 14
481 1 -8.63852 -7.24539 12.3998 22
482 1 0.289993 10.4955 20.3105 11
483 1 -13.7204 16.7348 2.14007 12
484 1 4.69746 5.2969 9.72639 18
485 1 2.49532 7.09316 7.28515 20
486 1 -4.98869 3.31221 -11.6123 12
487 1 -8.1928 4.62279 19.0387 22
488 1 2.91702 4.06356 -4.18858 24
489 1 -9.59849 -3.45649 -2.9587 24
490 1 2.50038 -7.65034 2.50978 16
491 1 0.0713064 7.97513 12.1937 20
492 1 -0.0550431 5.14059 10.4683 21
493 1 5.84921 9.48365 10.4446 22
494 1 -7.54716 1.82103 17.3725 22
495 1 -7.72186 9.96806 18.9671 18
496 1 -3.44525 -3.65195 -6.39302 20
497 1 -10.6957 11.2787 17.8614 15
498 1 -2.81015 4.55763 18.8998 21
499 1 5.54295 16.0691 7.06861 11
500 1 -1.94465 -9.747 4.91712 18
501 1 -10.6243 11.5891 0.568527 17
502 1 2.62608 12.7827 0.455745 19
503 1 -0.237579 17.4111 10.4808 11
504 1 -8.61819 -1.01456 12.2587 20
505 1 1.61947 17.3429 -0.288172 14
506 1 2.04744 9.78615 5.45936 18
507 1 -9.56349 -3.77808 0.281706 23
508 1 -6.34981 -0.128737 -6.46811 21
509 1 -16.6304 6.21631 -2.23227 18
510 1 0.184338 5.41619 -5.72301 20
511 1 2.77187 10.0297 8.80987 21
512 1 2.27305 9.89107 2.41929 17
513 1 0.420733 17.7629 7.07706 11
514 1 -8.31664 7.48217 10.5936 25
515 1 -13.8061 8.12703 4.21534 22
516 1 0.0837394 11.2029 1.01151 21
517 1 -2.67046 -7.95224 11.362 18
518 1 -13.6897 5.61059 -7.40186 17
519 1 -5.07147 14.389 18.3897 15
520 1 0.853503 7.95735 15.6214 20
521 1 3.79294 15.398 4.45009 16
522 1 5.20033 9.296 15.8831 14
523 1 6.73396 -2.27973 7.06549 20
524 1 -12.7685 2.13901 17.18 20
525 1 -3.32974 -7.45768 -4.75626 15
526 1 -6.44971 2.86338 -4.59869 21
527 1 0.133808 11.1085 13.7659 21
528 1 4.89033 5.99234 6.02864 18
529 1 -2.36074 13.4947 6.95555 19
530 1 -17.3696 -2.12734 11.7428 13
531 1 -7.03652 -8.91933 5.17952 22
532 1 0.819082 11.1746 -1.92629 23
533 1 5.81389 -5.75261 11.7867 11
534 1 -7.89274 10.5599 8.91466 22
535 1 -2.50084 4.9107 -10.7448 13
536 1 0.108133 -9.41331 10.8729 11
537 1 -6.02075 20.6099 5.35349 8
538 1 -7.90529 13.4702 17.8432 17
539 1 -17.1032 -1.29011 -4.8839 14
540 1 1.62016 -1.55777 -0.904589 23
541 1 -7.44328 16.267 16.1503 13
542 1 -4.0366 -4.30007 -3.04498 19
543 1 -1.0086 -6.29823 9.77982 24
544 1 0.903443 -7.65444 5.22472 23
545 1 -15.3226 0.777333 17.3448 15
546 1 -6.09514 5.67759 -2.6576 20
547 1 -7.82179 -11.4724 2.78947 15
548 1 -13.8273 7.11277 17.7512 14
549 1 3.04572 9.74479 -0.4686 19
550 1 -5.48641 8.492 12.0478 20
551 1 -16.3966 14.9996 2.61069 10
552 1 2.14689 3.9532 5.56089 23
553 1 -2.23178 13.3055 -2.77982 19
554 1 2.63893 3.87889 -7.44056 17
555 1 4.88414 5.72876 -7.44277 12
556 1 -17.1123 0.47729 4.12033 21
557 1 -14.5586 -3.16247 4.13775 20
558 1 3.30798 13.3898 -4.69658 13
559 1 -5.51964 8.38002 15.5495 22
560 1 -6.05729 -0.206858 10.5739 24
561 1 1.17493 -1.41791 -4.18918 20
562 1 -10.9205 11.9827 4.23942 20
563 1 3.0193 13.0607 10.2305 20
564 1 -11.4217 0.0887013 11.0187 22
565 1 5.93481 11.0997 -4.83225 9
566 1 -3.60593 -8.65699 13.652 12
567 1 -1.89374 10.5175 -3.77333 22
568 1 -11.2863 -2.64795 -8.60408 13
569 1 -8.12951 4.50407 15.5099 22
570 1 -4.26504 12.127 -5.20479 20
571 1 -13.9528 -6.42797 5.69275 18
572 1 1.64067 1.00088 7.31954 23
573 1 -9.17363 -3.94372 3.7221 20
574 1 6.03801 8.81061 1.17492 16
575 1 4.35544 -2.61793 0.407695 21
576 1 -8.21617 10.2989 15.7223 18
577 1 7.80079 0.0221677 13.3526 15
578 1 11.1786 -2.11429 4.37859 9
579 1 9.38328 1.49478 8.63149 15
580 1 -2.2653 9.79037 12.17 21
581 1 -10.2458 11.2092 13.8328 19
582 1 -5.86349 -3.09872 12.3055 19
583 1 2.33443 -1.94273 8.71479 22
584 1 2.8679 9.38336 18.4359 13
585 1 -16.768 3.09959 6.10057 20
586 1 4.87531 2.8836 0.793443 24
587 1 -2.45448 10.179 8.76813 21
588 1 -1.66559 2.36052 20.621 17
589 1 -1.99098 12.6797 11.0858 20
590 1 1.84179 -4.94616 10.3783 22
591 1 -11.3182 0.159174 3.93453 23
592 1 -4.64657 8.39206 18.6737 19
593 1 0.160685 17.4792 3.36613 16
594 1 -16.4962 0.0743142 14.2386 12
595 1 -2.2296 -1.56154 18.822 18
596 1 7.86668 -2.81199 11.9971 14
597 1 8.72165 11.4962 11.4139 13
598 1 -4.83003 11.3739 0.83947 21
599 1 -6.67771 -3.16736 -1.2921 21
600 1 -9.26305 10.0428 -9.85038 11
601 1 -13.3931 4.75002 15.5888 21
602 1 -10.096 19.5986 9.74599 12
603 1 4.74941 8.73061 7.65345 16
604 1 -2.02906 13.1057 1.26097 18
605 1 -9.99823 13.7935 15.7159 21
606 1 0.570009 13.572 15.7856 15
607 1 -0.13156 -2.96577 -7.21689 18
608 1 -9.19887 -3.82823 7.40045 22
609 1 -8.72911 4.73101 -0.834578 21
610 1 5.90942 5.12518 15.2679 17
611 1 -3.84471 1.52005 -2.38462 20
612 1 -6.79228 -2.96571 1.92429 22
613 1 7.22329 1.06144 4.08793 20
614 1 -7.86706 -4.50477 17.5551 14
615 1 -9.67413 2.98019 -11.8265 8
616 1 6.18946 15.7314 2.26862 12
617 1 -6.68911 -3.1928 8.95777 23
618 1 -16.5384 8.83337 5.82261 20
619 1 10.0207 3.44784 -0.132183 9
620 1 2.16313 1.83726 -9.21846 13
621 1 -12.7032 13.4005 10.5374 20
622 1 -4.77632 5.73478 -9.16147 18
623 1 4.77344 0.100245 2.37783 21
624 1 -14.1503 5.04012 5.63961 23
625 1 0.468658 11.0025 10.485 21
626 1 -13.4826 -8.71069 2.28577 11
627 1 0.205284 -1.33422 16.7929 15
628 1 -13.982 2.73499 -2.83009 21
629 1 -15.5349 12.9944 12.1298 12
630 1 -7.71469 7.90196 -2.82701 22
631 1 8.21099 3.62178 2.53676 21
632 1 -14.7797 -3.31987 0.48899 19
633 1 -1.65307 -6.40824 0.35852 21
634 1 -13.4315 7.76387 10.7777 22
635 1 -14.3858 0.125596 -0.895232 22
636 1 -8.21349 -4.22854 14.1916 21
637 1 9.05887 2.79017 11.9814 12
638 1 -0.618366 -0.476674 10.4581 24
639 1 -11.1926 5.65416 10.8136 23
640 1 -6.52262 12.5272 20.7029 11
641 1 5.00859 11.6766 -2.17053 16
642 1 -10.1124 16.9795 14.4755 11
643 1 6.28177 14.2314 -0.359472 11
644 1 0.104716 7.49794 22.2642 10
645 1 -2.67214 -1.97894 15.1629 20
646 1 3.19344 17.7562 2.06952 13
647 1 -15.9124 4.29484 17.0178 11
648 1 -11.1518 0.404587 -6.36247 19
649 1 -16.6442 3.40811 2.66891 21
650 1 -11.5132 -8.80582 14.8556 15
651 1 -0.0913484 4.97317 17.1625 18
652 1 -5.06428 -10.0325 -3.12228 12
653 1 -19.6127 5.70684 -0.605937 12
654 1 4.39357 0.192371 -0.611532 21
655 1 -12.7368 13.6235 7.26125 20
656 1 -10.8098 5.51175 13.9844 20
657 1 -9.25151 -3.52794 -6.18927 18
658 1 -7.24729 -5.99981 -0.142577 21
659 1 2.16485 -4.83424 0.873519 22
660 1 -1.52892 10.7508 -7.01974 20
661 1 12.0595 7.60386 3.99625 12
662 1 3.47067 10.1517 11.8612 17
663 1 2.14644 1.17591 4.23314 21
664 1 -6.80074 8.31004 -9.20337 18
665 1 -3.90292 -7.57146 8.28473 18
666 1 7.9027 12.468 2.44299 12
667 1 -0.418431 -0.54455 -9.29429 14
668 1 -16.7375 6.23791 4.25263 21
669 1 -2.01721 14.1077 4.11274 19
670 1 -12.9066 -0.919577 18.5961 15
671 1 2.56517 13.2609 7.18969 19
672 1 -1.28622 -3.26166 2.11671 20
673 1 5.24219 17.6354 -0.554898 9
674 1 -12.8398 13.9915 14.1152 14
675 1 -11.6355 4.98611 20.2876 15
676 1 1.89191 4.01293 2.18493 21
677 1 -10.0378 -0.386636 20.6131 13
678 1 4.81119 -0.190986 5.38866 23
679 1 -5.67195 5.52627 14.1093 22
680 1 2.91909 6.65927 13.9097 18
681 1 5.12456 -2.46117 -6.36938 12
682 1 -10.9924 3.9122 -7.67107 16
683 1 -7.80248 8.06762 -6.09959 23
684 1 -17.2013 0.652814 0.651677 18
685 1 2.43392 16.1717 8.98914 16
686 1 -9.96024 11.6056 10.5711 21
687 1 -10.3078 -6.67559 -1.46715 18
688 1 -8.33014 10.4748 5.9505 22
689 1 4.85819 2.40222 16.9369 14
690 1 -6.59875 -6.06745 6.81979 21
691 1 4.80333 5.42038 -1.15271 22
692 1 4.1064 -3.15619 3.25488 22
693 1 -1.172 -0.125123 -5.76893 22
694 1 -2.62297 1.96141 -9.6683 15
695 1 -11.1184 -5.93992 10.9154 20
696 1 -10.9344 8.92274 2.48299 19
697 1 -11.9395 13.7407 17.744 7
698 1 2.29554 3.30953 19.0059 13
699 1 -15.6811 -2.18634 17.0331 9
700 1 1.86437 0.477895 10.9264 20
701 1 -12.5025 8.25267 -8.83968 12
702 1 7.38038 7.33871 14.8996 13
703 2 -10.5251 5.77397 -7.69135 17
704 2 -10.3391 16.6932 -0.943366 10
705 2 -3.3042 2.41533 -4.06057 22
706 2 0.715103 4.46895 18.8907 15
707 2 -10.8741 -0.504363 -1.0252 24
708 2 0.770892 4.25337 15.507 23
709 2 -18.3962 -1.85841 10.0171 11
710 2 -16.1384 5.1255 -0.509316 20
711 2 -2.30296 17.5169 10.4233 12
712 2 -18.7031 2.76142 6.3221 17
713 2 2.42625 11.1228 10.4636 20
714 2 -7.88364 2.93328 -0.838854 22
715 2 -14.2041 -2.55247 2.23529 19
716 2 -13.373 5.88549 0.485342 20
717 2 -14.7284 -1.34774 18.4437 9
718 2 0.846005 7.12721 10.4576 22
719 2 -2.93877 5.54806 -5.5284 19
720 2 -3.8936 -10.2373 4.95548 13
721 2 6.277 6.11887 10.468 19
722 2 -12.5028 15.6705 1.05668 13
723 2 -17.1714 8.2623 1.0508 20
724 2 7.48218 13.0889 6.85003 15
725 2 4.42556 -4.31636 -3.04709 14
726 2 -11.1974 -3.57889 7.51868 19
727 2 -13.4658 2.91768 5.62382 22
728 2 -11.1528 -5.7762 9.08026 18
729 2 9.92135 -0.390361 8.90157 14
730 2 -4.03262 -6.43085 0.0425892 21
731 2 -2.85283 2.01936 18.985 23
732 2 -0.685012 14.183 -3.94052 18
733 2 -14.1606 -8.41999 5.9675 15
734 2 -2.78528 7.97053 19.0228 15
735 2 -11.5209 12.6861 13.4022 17
736 2 -2.11369 5.25965 17.1068 20
737 2 -15.8617 13.7436 -1.4277 11
738 2 -1.13799 -10.2508 6.6686 15
739 2 -5.55241 13.1243 13.9711 23
740 2 -3.40186 13.9428 -4.36144 16
741 2 2.56364 -2.9668 1.00319 17
742 2 -8.61399 2.97587 -4.57232 19
743 2 -3.33612 -0.339815 -2.69846 23
744 2 4.63394 -1.54871 -4.69372 15
745 2 -4.67207 10.2389 15.7176 17
746 2 -6.70517 9.15234 -7.36238 20
747 2 -9.16497 10.9934 -8.183 11
748 2 2.11368 14.2752 8.88311 20
749 2 -8.52953 -3.14677 18.7632 17
750 2 -15.9835 13.735 1.23164 17
751 2 2.68448 3.12148 3.80564 23
752 2 -6.08666 -3.74942 -6.49977 19
753 2 -16.0725 2.20203 7.90191 23
754 2 7.63803 8.99059 10.9201 16
755 2 -12.8453 17.1726 7.12321 11
756 2 -11.5895 -3.15532 -3.00502 21
757 2 -10.7841 13.4906 10.5902 18
758 2 -2.87829 -6.84261 9.70053 20
759 2 4.5738 -1.68116 7.926 20
760 2 -13.129 3.1111 12.6139 24
761 2 3.23352 -8.03953 4.27651 13
762 2 1.47195 -2.50647 -2.5851 18
763 2 -0.242889 10.0199 12.1692 19
764 2 4.5586 -5.49022 6.5871 14
765 2 1.92419 -6.04763 12.3018 18
766 2 -12.7111 5.67598 17.1851 20
767 2 5.14318 -1.80124 2.19212 21
768 2 -8.53696 17.9176 14.0115 11
769 2 2.99321 8.27932 15.2251 17
770 2 -16.3286 13.3105 7.84069 13
771 2 -4.64744 15.9736 9.01217 24
772 2 5.11808 3.42427 9.27006 18
773 2 -0.0363408 9.77708 2.33499 22
774 2 -18.6996 -0.566126 -4.39415 7
775 2 -10.8307 1.3508 20.6011 14
776 2 -0.225101 4.52155 -3.93205 19
777 2 -13.4519 3.1919 -0.952475 21
778 2 -17.8815 7.32482 9.61123 11
779 2 -4.53966 -8.93954 -4.62566 12
780 2 6.89324 5.88834 13.6682 17
781 2 -8.67135 -6.28257 10.6943 19
782 2 -7.43301 5.35102 20.7954 16
783 2 2.19563 5.0114 -5.72832 21
784 2 0.735766 6.47259 20.8064 11
785 2 -4.81679 7.25572 20.8189 18
786 2 -13.0255 8.85623 9.10165 23
787 2 -1.20415 -2.21004 -8.78922 15
788 2 7.73462 2.11649 5.68613 20
789 2 -13.7161 10.2886 14.4802 16
790 2 -6.31299 -7.04477 4.99201 20
791 2 2.8757 5.45919 -1.81945 21
792 2 -0.190126 1.12391 0.657278 25
793 2 3.4707 11.6193 7.71259 18
794 2 2.23274 -2.76843 3.77831 25
795 2 0.921306 6.84444 13.9541 21
796 2 -5.7541 -4.03533 10.5036 21
797 2 11.163 5.70333 8.59233 12
798 2 -10.939 -7.11726 15.6808 16
799 2 6.33586 8.97458 3.04002 14
800 2 -6.02342 -4.10249 7.27754 23
801 2 10.1294 -3.72463 4.14831 9
802 2 -0.73475 -7.17925 -1.19305 20
803 2 8.85372 5.12979 -0.36681 11
804 2 -10.4934 13.4447 7.40179 22
805 2 5.29291 4.09585 -4.08661 17
806 2 -9.7212 -5.38578 -6.22729 15
807 2 -10.691 1.93741 10.7797 25
808 2 -8.93933 -5.9259 3.55372 19
809 2 -9.82505 -8.48621 -1.25283 14
810 2 -15.8679 7.7741 7.34196 24
811 2 -15.3096 16.1681 1.34558 10
812 2 -0.136102 4.08896 -0.879489 22
813 2 8.61336 10.8658 1.40344 12
814 2 -2.19495 8.60598 -4.10797 20
815 2 -7.4218 11.2382 17.2707 21
816 2 -4.77843 7.96308 -9.07881 19
817 2 -16.0932 13.6762 4.00645 15
818 2 -7.65733 5.65398 13.8796 23
819 2 -15.4457 14.3482 10.7178 11
820 2 -10.7545 7.89242 0.834214 22
821 2 6.58348 15.1207 8.35814 12
822 2 5.67549 3.68718 -0.811474 20
823 2 7.9831 -0.778773 1.01308 12
824 2 -14.837 2.67594 17.6447 13
825 2 5.84512 7.29524 7.25078 21
826 2 -7.32951 11.5097 7.22939 23
827 2 -14.0987 6.34566 -5.65597 17
828 2 -12.6186 11.7576 17.5078 11
829 2 4.61079 0.349023 16.6019 13
830 2 -11.942 -5.60402 -4.92052 13
831 2 -2.36721 8.93848 -7.31206 18
832 2 2.67056 14.1843 5.39926 16
833 2 -15.3072 5.20055 15.4784 16
834 2 -2.11176 11.4645 3.83838 22
835 2 -8.22117 12.3441 -5.67682 17
836 2 -5.36183 13.2622 0.853962 21
837 2 5.16712 -2.05354 14.7864 15
838 2 0.263473 6.99665 17.26 21
839 2 6.20354 3.66818 2.12531 23
840 2 -7.67912 5.5728 17.3342 20
841 2 -8.20249 0.0733183 13.8353 22
842 2 -16.004 5.33789 2.60272 23
843 2 -12.0238 -1.46251 -10.058 12
844 2 5.02071 -6.94964 1.80523 12
845 2 -0.816296 -1.31062 -4.18693 20
846 2 7.86906 11.8939 4.49729 11
847 2 -4.6222 12.7232 21.0347 12
848 2 -2.90914 5.92754 -8.98233 20
849 2 -11.1559 -1.25981 19.28 16
850 2 -8.32424 0.270574 -6.61603 19
851 2 -1.90756 -7.55146 1.91202 19
852 2 -6.43061 -4.24273 0.416806 20
853 2 4.84793 -4.99183 3.80241 20
854 2 5.477 15.2216 5.36213 12
855 2 -12.8393 3.92714 -7.28912 19
856 2 -10.3871 18.7164 11.4949 12
857 2 -11.6074 -6.28325 5.58973 20
858 2 -17.3516 7.91112 -1.6391 13
859 2 4.34833 10.3056 -5.78401 14
860 2 -3.99202 16.4897 -0.332573 13
861 2 -13.5092 -5.83515 14.5018 15
862 2 5.24718 3.69011 12.0731 20
863 2 -4.3249 4.1797 21.9816 14
864 2 -5.57484 -9.98078 10.02 15
865 2 -1.27401 -4.58593 0.698159 20
866 2 -2.63563 -0.677688 20.5517 15
867 2 -3.28104 16.7405 13.6471 14
868 2 7.37661 -3.71053 2.49188 14
869 2 -0.600886 12.7501 17.1546 19
870 2 5.16673 6.16813 3.9567 19
871 2 -13.2281 8.50545 16.4265 14
872 2 2.32423 0.0556011 9.05343 21
873 2 -0.324734 15.8003 11.5327 17
874 2 2.54983 13.8897 12.023 20
875 2 -7.91457 6.65493 -9.41399 17