ITEM: TIMESTEP
22000
ITEM: NUMBER OF ATOMS
1500
ITEM: BOX BOUNDS pp pp pp
-30.0 30.0
-30.0 30.0
-30.0 30.0
ITEM: ATOMS id type x y z Coordination
1 1 -0.320764 -10.9067 -11.2122 9
2 1 7.24943 -7.90641 6.6018 15
3 1 -9.34034 12.3476 -2.3527 11
4 1 -9.48021 5.3716 -5.31334 17
5 1 1.34687 -6.95596 11.0565 22
6 1 -7.59683 1.32595 -8.14862 16
7 1 -3.73458 -9.99444 3.03283 21
8 1 -14.7986 -3.68148 4.79685 12
9 1 3.90301 5.57123 17.6979 8
10 1 6.26478 -3.01839 9.88475 23
11 1 2.6023 3.93646 10.0374 22
12 1 -1.00499 10.3765 -9.51927 17
13 1 3.29109 1.15717 11.2956 21
14 1 10.8522 9.70558 5.64255 16
15 1 0.247269 13.3701 -10.5086 11
16 1 5.78403 5.6579 -8.61593 19
17 1 -8.2245 -1.26302 3.17383 16
18 1 -2.24921 -4.27115 -5.26185 24
19 1 7.1188 -13.0874 7.78001 6
20 1 3.05513 -4.78011 6.96207 21
21 1 13.8983 -8.54967 1.14971 12
22 1 -4.68406 -12.406 -3.08886 20
23 1 2.39649 -7.33549 -11.4641 15
24 1 1.51077 2.0564 13.4389 21
25 1 -3.06366 -7.56602 8.52271 16
26 1 9.4263 -5.79607 12.8322 12
27 1 -10.1304 -1.14873 5.46301 19
28 1 -7.72139 -2.04263 -0.0898269 19
29 1 -5.41235 11.4148 -1.5518 17
30 1 3.67299 1.21461 -9.32642 21
31 1 6.74306 -5.8767 -10.1222 14
32 1 -1.17156 -3.12278 12.9143 18
33 1 -7.53782 9.792 2.62438 18
34 1 -0.373996 13.107 10.0173 20
35 1 -4.5395 8.89845 -6.66418 17
36 1 -1.23969 17.1484 -3.68245 12
37 1 1.0959 -12.013 1.88898 20
38 1 10.8446 -4.15551 -4.00159 19
39 1 -5.7017 11.4077 7.32472 17
40 1 -10.8283 0.571728 -6.47116 19
41 1 8.66453 1.58026 4.3651 20
42 1 -10.7127 7.73902 -3.59981 19
43 1 -5.68587 -7.11595 7.50376 18
44 1 -11.1178 9.79367 -1.58687 15
45 1 1.00751 5.10533 -5.45835 18
46 1 2.90623 6.65372 7.52602 20
47 1 5.35554 -12.8571 -4.87268 11
48 1 1.72314 5.31512 12.744 23
49 1 5.37564 -0.473651 -12.3786 22
50 1 9.77034 -9.79286 -1.9812 16
51 1 6.93001 -0.405897 14.1192 13
52 1 -9.02872 -8.3615 7.92332 15
53 1 -7.30802 0.951658 1.33767 17
54 1 12.1614 4.26027 0.623782 20
55 1 15.588 -0.4537 1.55251 20
56 1 -7.10722 16.195 4.3191 10
57 1 3.31796 -2.13409 8.73766 21
58 1 -4.62534 -3.01315 3.32421 23
59 1 3.00359 -4.77548 -5.80958 19
60 1 -11.896 8.54214 1.46618 10
61 1 0.110129 4.77247 -8.95864 22
62 1 7.99463 -1.74246 -4.07497 24
63 1 9.07572 -4.46772 0.691817 20
64 1 9.5699 -9.26942 8.13153 14
65 1 -1.90867 16.5917 -7.06103 11
66 1 -8.75478 9.28589 7.24368 12
67 1 -4.88832 10.8186 4.50086 20
68 1 -8.59563 -2.66022 11.114 13
69 1 14.9119 -6.29598 -1.31647 14
70 1 -4.38287 7.94376 3.20955 22
71 1 14.0681 -2.26725 -9.07745 13
72 1 4.96197 2.9822 -13.0162 20
73 1 -1.11812 -0.397679 -14.8938 13
74 1 -0.980183 12.7745 0.653811 19
75 1 -3.95882 11.6186 -4.78435 19
76 1 5.4868 13.5596 -4.21915 23
77 1 0.794488 10.6471 4.94283 18
78 1 -14.8047 -2.7659 2.09894 16
79 1 0.49266 -3.31488 -7.30806 22
80 1 2.94745 -7.68009 -7.6831 18
81 1 -0.625491 3.19057 11.0605 18
82 1 -4.96628 -6.23284 -1.79004 22
83 1 9.03385 -3.82333 4.35931 16
84 1 -7.31015 -4.18008 -1.57026 22
85 1 14.4662 -6.51337 7.2167 14
86 1 -2.40905 7.11082 -2.09033 21
87 1 8.7609 4.40977 -10.6334 16
88 1 3.35606 6.88352 -5.32743 19
89 1 16.5119 -7.3012 1.26655 9
90 1 -2.3471 -9.7536 6.59442 18
91 1 -9.05885 -6.88046 2.68336 20
92 1 -12.9904 -4.76409 -0.125974 19
93 1 10.8956 7.0622 0.290404 18
94 1 6.76057 10.9117 1.20851 20
95 1 1.08435 10.8434 10.8317 18
96 1 -4.57746 14.25 -6.88611 14
97 1 0.317008 -6.38372 -9.42881 20
98 1 9.52553 0.810129 12.5428 13
99 1 -4.94813 8.41903 -3.46146 21
100 1 12.1463 4.58583 -5.22039 18
101 1 -9.10499 6.31067 -8.50676 14
102 1 -5.03363 14.0274 0.0137389 18
103 1 11.1006 5.44439 -9.70242 15
104 1 4.11873 -11.4714 3.50903 20
105 1 -4.87147 5.39852 -5.07547 21
106 1 6.20444 10.9168 -2.06212 20
107 1 6.86512 11.1999 4.59967 18
108 1 -3.0884 14.8785 -4.15143 16
109 1 -1.65113 -5.02569 -8.09555 19
110 1 3.03613 16.795 7.95461 13
111 1 -15.4317 3.73334 -5.76882 9
112 1 16.1595 0.229289 -1.59954 10
113 1 5.25842 8.54768 8.71875 22
114 1 2.5563 13.1201 -5.50318 19
115 1 2.89967 -7.17915 14.089 13
116 1 -15.1401 -0.724807 0.0839305 14
117 1 1.82013 -7.04751 4.4394 21
118 1 0.668794 -12.3414 -4.76253 16
119 1 -4.82907 11.2533 -7.91629 15
120 1 3.31341 10.0754 -0.122749 21
121 1 7.55599 15.1893 -2.70696 15
122 1 6.09954 -5.2951 11.8868 18
123 1 -5.28957 5.11695 4.96767 19
124 1 -1.54102 15.5103 4.2909 18
125 1 1.22994 6.73027 15.7727 11
126 1 -1.63841 12.4566 4.55428 20
127 1 -0.488067 1.95866 -10.8292 19
128 1 11.8304 -10.0553 3.22841 12
129 1 -2.22158 -4.54155 7.68715 20
130 1 -15.1409 -0.385468 3.98052 12
131 1 -6.2156 -5.49051 4.36724 18
132 1 -14.1423 4.18233 -1.79077 16
133 1 -4.89213 -12.8335 2.40411 12
134 1 3.35024 -11.127 -2.61176 20
135 1 -1.72254 9.88725 3.32017 21
136 1 -4.15926 2.08455 6.6746 20
137 1 -5.1237 2.34543 -3.39261 21
138 1 -1.7154 10.176 -6.77212 19
139 1 -12.5409 -2.10391 -7.35118 13
140 1 -9.03086 0.279697 9.69253 18
141 1 4.05248 -8.47804 2.99838 16
142 1 0.408301 -14.909 1.54039 14
143 1 15.0472 6.01368 2.43146 15
144 1 5.9015 5.078 -5.44395 20
145 1 6.58159 -1.72838 6.88253 17
146 1 0.745639 8.02226 -9.91274 23
147 1 6.61432 1.11974 -14.5739 13
148 1 -8.19664 -1.37444 -6.73708 19
149 1 -2.06085 13.6583 -8.92094 10
150 1 -5.82017 14.4893 -3.95035 12
151 1 7.53343 -5.22103 8.10025 16
152 1 -2.31785 -2.90445 -12.8244 18
153 1 -6.93221 12.6771 -9.39346 10
154 1 6.14049 2.34842 -10.572 20
155 1 -8.11833 4.00661 9.39255 17
156 1 -3.91001 11.3018 9.79219 20
157 1 4.96576 -9.62487 -5.44468 14
158 1 -6.84658 -11.5433 3.98994 15
159 1 7.82559 -7.85994 -3.56928 19
160 1 3.78845 13.1157 -8.09966 16
161 1 -2.5841 13.1095 -1.88673 23
162 1 -9.86534 7.29075 3.35455 16
163 1 1.80713 7.84422 9.98391 22
164 1 12.7625 1.12883 -0.595623 15
165 1 0.808523 14.1187 6.35322 24
166 1 -6.90975 7.34455 1.24496 20
167 1 -12.5777 -4.97119 -7.04232 9
168 1 5.4401 6.29125 -12.0215 14
169 1 4.41129 -1.91626 11.9323 19
170 1 8.54903 9.73709 -3.90505 20
171 1 2.78227 -7.75647 -4.61175 19
172 1 -2.71861 -1.68152 -7.07023 22
173 1 5.42536 -0.484681 -5.5998 22
174 1 -11.8769 0.231497 8.81241 11
175 1 7.43929 -9.70124 2.90898 17
176 1 -13.9884 -6.2634 -2.35792 12
177 1 0.598305 11.1371 -1.69717 19
178 1 2.84353 -4.03558 -15.4903 8
179 1 6.93408 10.4721 10.8874 16
180 1 15.4964 8.99266 1.83089 8
181 1 -2.57553 -10.6942 -2.14326 17
182 1 10.916 -3.54379 -10.6655 13
183 1 -0.061354 -9.58115 2.7633 18
184 1 -5.56139 -2.46042 -12.1304 14
185 1 -7.16505 4.12665 -10.146 15
186 1 14.043 7.36416e-04 9.02823 12
187 1 8.13354 -3.27751 12.9698 13
188 1 -4.54793 -6.45937 -9.06577 15
189 1 3.15716 -4.33987 10.6962 22
190 1 2.63137 10.6227 -9.78715 19
191 1 5.6725 13.2975 -0.56026 19
192 1 -7.57982 -8.30251 5.32761 22
193 1 1.14576 10.9628 1.90758 21
194 1 -7.21848 -0.738961 14.2622 11
195 1 -10.2214 -7.31645 -5.64086 14
196 1 -4.80929 -3.78003 -7.20532 17
197 1 -5.20621 -8.83009 -7.38907 16
198 1 0.607255 -11.3124 -1.59416 19
199 1 11.3855 1.31017 5.47494 19
200 1 -11.9698 -4.42966 6.11916 18
201 1 -2.39179 -12.9387 -0.204242 17
202 1 -0.589656 -12.533 6.73519 12
203 1 -4.12924 16.8219 -1.79094 13
204 1 7.10767 4.31239 -14.7315 13
205 1 -4.05512 -2.33549 -15.2702 7
206 1 4.11902 -7.80227 -1.69987 17
207 1 -4.61545 -8.84009 -4.12509 23
208 1 -10.7037 8.13163 -6.99574 13
209 1 10.3957 5.18009 8.78982 19
210 1 -5.41026 5.56748 -8.3041 19
211 1 3.96418 15.9403 -6.34332 15
212 1 -4.50953 -0.916329 8.66879 21
213 1 -2.29466 15.2526 1.19263 16
214 1 4.41622 13.9532 7.31501 17
215 1 12.1584 -1.39684 7.49039 22
216 1 -11.4625 4.84832 4.88231 10
217 1 -1.72902 -2.17898 16.2936 8
218 1 -4.26033 8.34813 -0.210772 18
219 1 3.37962 -4.72884 -9.13723 18
220 1 3.63392 -10.3664 0.36938 19
221 1 -3.72198 2.58812 16.7737 8
222 1 -10.6692 -7.43212 4.79762 23
223 1 13.7702 -2.04032 -3.46496 20
224 1 8.35685 1.22253 -5.45763 23
225 1 11.7161 -10.5773 -0.0490222 13
226 1 -6.31842 16.4219 0.72696 11
227 1 9.3878 12.0782 9.63783 10
228 1 -10.4538 -2.58849 8.22418 17
229 1 7.68454 -7.26499 -0.25941 18
230 1 -3.90728 11.2129 1.55501 21
231 1 -1.70238 6.94357 4.74476 18
232 1 3.49404 -8.73344 8.85974 18
233 1 14.8546 -3.04281 7.20231 15
234 1 -2.7244e-04 11.2019 7.61549 20
235 1 -5.08292 -3.46314 -3.72926 21
236 1 -1.44884 2.01725 14.8277 17
237 1 -0.655351 14.27 12.8844 7
238 1 -7.66101 4.29412 -3.29531 20
239 1 -9.27741 9.02007 11.3982 8
240 1 -11.2246 7.744 6.08815 12
241 1 -2.40206 -7.47271 -6.64484 21
242 1 -10.5083 5.15532 -1.92349 20
243 1 8.25567 -0.157845 9.96636 17
244 1 -12.7517 -8.86158 2.91183 11
245 1 7.63657 -7.38905 10.5675 18
246 1 -7.57228 6.99913 4.80698 18
247 1 0.964768 -3.85471 9.40971 18
248 1 8.46824 -11.8982 -7.75069 5
249 1 -2.31062 1.28469 -8.70029 20
250 1 8.09351 -1.4377 -13.0132 12
251 1 1.47872 17.0569 4.81376 16
252 1 -12.0743 0.830668 2.87704 15
253 1 6.51255 -9.51145 -9.37171 8
254 1 -5.11005 -15.5082 -2.4205 10
255 1 -11.5508 -7.65127 -0.192918 19
256 1 -1.78689 -7.11153 -0.220068 20
257 1 8.23237 3.80682 -0.786788 20
258 1 -4.30258 6.62394 -11.1475 18
259 1 -13.5954 1.24132 -8.17757 9
260 1 -4.43753 14.0768 3.58417 21
261 1 -9.42045 12.1281 0.587387 14
262 1 -4.3104 8.37587 9.5114 21
263 1 10.8738 -1.10511 -5.21553 20
264 1 12.1935 1.82725 -6.67923 19
265 1 6.48715 -9.83692 -1.35598 18
266 1 0.0292846 7.65703 6.64159 19
267 1 -10.9104 -0.456951 -3.85661 15
268 1 -2.36855 -10.4686 -5.01485 19
269 1 14.6245 0.0653011 6.33653 16
270 1 -8.27355 -4.74943 -4.87155 18
271 1 -6.62295 -9.39582 2.11728 19
272 1 -1.61231 10.0648 -3.4721 19
273 1 -10.0826 -9.9229 -3.19532 11
274 1 -9.81783 7.72365 -0.176647 22
275 1 1.06489 15.0811 -7.75043 14
276 1 4.48283 15.8743 4.85232 15
277 1 -12.2469 -5.68222 2.92412 23
278 1 0.0465863 -9.35595 -3.82051 19
279 1 -9.77961 1.65456 7.2217 18
280 1 -10.6402 5.08141 1.49081 17
281 1 4.30609 -10.278 6.01682 18
282 1 -2.48807 -14.4244 2.31565 9
283 1 6.75787 8.70772 -9.96158 12
284 1 -7.24244 7.5462 -5.19131 20
285 1 -0.0985156 -9.25824 8.21816 19
286 1 15.6999 5.95088 6.84444 10
287 1 -2.07532 1.02417 8.03866 21
288 1 -16.6188 1.98767 -0.873928 10
289 1 -5.61834 8.15425 6.5374 18
290 1 -3.71542 -12.3435 5.89006 12
291 1 5.19003 -3.40382 -4.49151 20
292 1 2.06713 -13.3296 -9.66643 11
293 1 -15.1281 2.04828 2.07367 12
294 1 -0.197572 -6.21717 13.627 13
295 1 11.9206 -3.80065 -7.03493 18
296 1 -2.57763 -8.51797 -9.99193 14
297 1 -5.17531 -3.30385 15.871 9
298 1 5.53118 -6.32585 -4.53171 19
299 1 -3.48697 1.63486 -15.2118 8
300 1 9.35458 -11.1125 1.65067 13
301 1 5.25707 10.7861 -5.03589 20
302 1 -3.68521 -4.43011 12.9107 14
303 1 -12.0683 -9.09942 6.81645 11
304 1 12.1614 -8.56144 6.34013 10
305 1 9.44477 3.79601 2.53905 22
306 1 5.16359 -3.81762 -10.927 19
307 1 11.4341 -4.14085 2.68425 16
308 1 15.7321 6.12589 -5.10334 9
309 1 -8.77315 6.57296 7.99677 17
310 1 1.90203 14.3958 0.00154003 25
311 1 6.19294 -4.74927 5.52821 19
312 1 -2.76117 -14.2416 -6.00664 16
313 1 -4.36252 16.9508 3.32306 11
314 1 -8.38611 -9.35115 -7.76457 7
315 1 3.78798 9.06864 11.7433 16
316 1 -4.199 -0.609494 14.2446 17
317 1 -4.68976 -6.39096 1.60212 22
318 1 -9.04554 6.01581 11.4522 12
319 1 -7.97354 -13.0021 -2.67898 11
320 1 -2.7374 9.78319 6.63089 22
321 1 -1.43639 -13.4972 -2.92948 19
322 1 -0.971445 -6.25645 -12.6844 10
323 1 -9.00579 -10.6873 6.27956 13
324 1 -4.39975 -4.03597 6.57111 19
325 1 8.86145 1.95849 15.3713 9
326 1 -4.06871 -3.62354 9.6891 17
327 1 -10.2531 10.6821 -5.06642 12
328 1 8.25277 6.72906 1.06013 20
329 1 -9.40926 -9.71115 2.86495 16
330 1 3.08297 4.23117 -7.32644 22
331 1 0.666661 16.6525 1.85328 15
332 1 0.866197 2.27609 -7.19014 20
333 1 0.27199 8.39448 12.6629 17
334 1 -13.5732 -3.76752 -3.81581 15
335 1 4.60621 16.4938 -3.454 15
336 1 -7.61346 -5.81077 -7.38094 18
337 1 1.12481 -16.514 -1.04628 10
338 1 -2.95157 -1.39916 -10.245 20
339 1 -6.99519 13.2966 5.40305 14
340 1 4.57368 7.1333 14.5604 12
341 1 11.1699 6.90813 2.99307 18
342 1 4.18677 10.1447 3.36198 19
343 1 -8.02693 10.2021 -7.03306 16
344 1 6.22933 2.44536 -7.38208 18
345 1 2.311 -13.459 4.57587 12
346 1 -14.9931 -0.90024 -2.77219 14
347 1 -1.65483 8.53687 -11.8914 12
348 1 9.59869 4.3381 5.68503 21
349 1 13.4281 -1.78027 3.50408 19
350 1 15.5994 5.54452 -0.525112 9
351 1 -7.93035 1.16776 -4.86811 21
352 1 4.99123 -6.43335 0.681594 15
353 1 4.26799 -14.4227 1.84486 11
354 1 4.58811 -7.78188 11.642 18
355 1 -7.52602 4.36085 -6.57497 20
356 1 -0.528686 -12.3093 -7.45463 16
357 1 2.69534 1.59868 -12.2299 19
358 1 0.629068 -1.03852 14.8493 18
359 1 -8.20573 -7.12539 -0.281321 19
360 1 13.404 -0.701172 -6.51452 19
361 1 18.4433 -1.84024 1.99149 9
362 1 -2.42569 7.0999 -5.37255 20
363 1 -1.03333 -18.2915 -6.4412 5
364 1 8.48998 6.90507 -7.66263 19
365 1 13.3554 -0.954444 -11.5983 11
366 1 -3.56223 4.0619 13.9549 15
367 1 8.92448 14.11 3.68958 13
368 1 -5.29485 1.33598 -10.9966 15
369 1 -9.22031 -5.63479 7.06302 20
370 1 -8.81229 14.7805 0.293504 10
371 1 -3.9754 0.0568767 -13.0591 17
372 1 -14.8428 5.39755 1.30046 7
373 1 -13.6844 -7.02167 6.12187 12
374 1 0.209699 7.54647 -6.88166 21
375 1 9.09887 9.509 2.73759 23
376 1 -10.7028 -5.88709 -2.77656 25
377 1 1.57624 -8.56496 -0.101038 18
378 1 -5.2752 14.2565 8.45019 11
379 1 3.01787 -1.88205 -7.33185 21
380 1 17.8524 -5.13888 6.30702 9
381 1 6.32643 13.3855 -7.23029 15
382 1 10.4251 -7.79152 1.37155 19
383 1 -10.8216 6.60755 9.68696 11
384 1 6.52635 7.68514 12.0551 19
385 1 2.59324 4.50923 -13.3534 15
386 1 -2.42928 -7.0287 -3.41606 22
387 1 1.84559 -1.33028 11.3709 19
388 1 12.3892 10.1529 1.68026 15
389 1 5.3139 8.1053 -6.85055 18
390 1 -7.12703 10.5057 -3.85626 16
391 1 -0.710683 12.5188 -4.38045 15
392 1 10.2492 -1.09582 14.4448 10
393 1 12.1233 2.76493 -12.2334 14
394 1 -15.0888 -5.8349 1.56466 10
395 1 0.980854 1.10193 9.67645 21
396 1 1.48927 17.2083 -5.67797 11
397 1 0.386402 -15.6121 -3.9144 12
398 1 8.26888 -1.67477 -10.4399 21
399 1 -7.79612 10.2597 -0.513798 18
400 1 -3.07292 -4.96428 -10.7002 17
401 1 6.47896 -13.1494 4.37477 13
402 1 -13.6017 -0.366961 -5.30402 15
403 1 -8.68429 1.74594 4.01699 17
404 1 -11.4203 -6.2184 8.22968 16
405 1 5.86791 7.9435 -0.560104 22
406 1 1.98125 -10.4644 -9.4814 18
407 1 6.59937 -7.2006 14.1702 9
408 1 11.2109 1.77208 -3.93185 20
409 1 -10.5405 10.2647 4.35873 11
410 1 11.2165 -1.12235 -2.53511 18
411 1 3.8874 11.7866 9.88202 17
412 1 0.13901 -0.692483 -12.1089 19
413 1 0.558774 16.4229 10.2235 11
414 1 8.95941 6.01397 -13.0495 7
415 1 0.123284 -2.90067 -15.0663 11
416 1 -4.53163 -9.27302 -0.550587 22
417 1 -8.16203 -2.61038 -10.3271 9
418 1 15.097 3.30029 2.21404 15
419 1 15.2704 3.9193 -7.2011 13
420 1 7.99127 -4.52048 -5.57098 22
421 1 8.92094 -12.3902 -0.952256 14
422 1 6.28062 14.9584 2.43097 16
423 1 -1.69853 3.97646 6.40521 24
424 1 13.9538 6.87246 -8.66436 9
425 1 16.2773 -2.83569 4.56588 19
426 1 14.8038 3.96558 -9.95368 9
427 1 6.0763 3.72634 16.1447 8
428 1 6.48476 -9.61507 8.97409 18
429 1 5.00476 -4.77371 15.3172 9
430 1 13.7569 0.893329 -3.84745 17
431 1 7.9764 2.9072 8.97544 20
432 1 -5.37435 -0.286094 -5.49485 22
433 1 13.639 8.07481 4.5588 16
434 1 14.9666 -4.27591 1.65033 17
435 1 13.6487 4.47507 9.69314 10
436 1 6.41881 13.2606 9.41409 14
437 1 9.02451 -2.58019 7.61637 19
438 1 -7.66335 13.0256 -6.15123 13
439 1 7.35417 15.9449 -5.62951 11
440 1 10.6953 -1.11651 -7.93705 22
441 1 2.21444 17.2804 -0.846157 13
442 1 -0.70508 -15.0706 -8.43086 8
443 1 -12.9573 2.30838 6.82479 11
444 1 -9.15277 9.74785 -10.0366 11
445 1 -1.39041 -12.2197 3.66916 19
446 1 -4.74875 2.48479 -6.84302 20
447 1 -16.4019 2.05179 -3.77786 10
448 1 12.8097 -7.29633 3.95603 12
449 1 12.5971 4.14531 3.67436 19
450 1 1.4959 -6.50954 8.30956 18
451 1 -10.0455 3.10113 -7.60342 14
452 1 -3.14272 5.97747 11.5337 21
453 1 6.16075 11.5431 -10.2901 10
454 1 11.478 8.27574 -8.162 11
455 1 -2.80024 -16.4428 -4.10823 11
456 1 11.483 -0.703757 10.3991 13
457 1 10.1601 12.7915 6.62593 10
458 1 18.0688 -4.74237 2.7482 10
459 1 -1.36268 0.131619 12.4705 16
460 1 -10.5787 -2.79337 -1.71282 16
461 1 -4.86973 -6.22007 -5.46314 24
462 1 6.63208 2.04093 12.0064 20
463 1 -1.30658 -8.53813 11.2936 13
464 1 8.79578 7.76427 13.4275 9
465 1 -7.56297 7.26079 -2.20334 17
466 1 12.5493 4.60942 6.57537 17
467 1 11.1646 2.02003 9.52936 12
468 1 3.97586 2.13942 -15.3376 12
469 1 -5.64014 1.88384 9.17964 20
470 1 5.41137 -1.27537 -9.06467 19
471 1 0.459326 -6.69598 -6.00649 24
472 1 10.1928 -6.85795 -5.27879 15
473 1 7.62337 5.34058 10.663 19
474 1 9.15098 0.652684 6.95472 23
475 1 12.8278 7.57869 7.64185 15
476 1 2.26277 -4.00755 13.5783 15
477 1 1.62081 3.63354 16.0089 17
478 1 2.45261 -4.74868 -12.8065 17
479 1 -1.15112 9.14573 10.1657 20
480 1 3.59958 -0.0271765 14.6512 15
481 1 11.0793 9.21767 -2.82492 17
482 1 8.09391 -11.3436 -4.14103 13
483 1 -1.7272 4.14021 -6.85604 21
484 1 3.42844 16.2858 2.23566 16
485 1 10.7272 10.0784 8.40366 14
486 1 1.61997 15.3292 -3.20391 17
487 1 13.4774 7.62666 -0.36038 16
488 1 -1.21611 -9.94129 0.178279 18
489 1 2.72785 -1.01643 -14.2 18
490 1 -9.69111 13.8286 3.90296 10
491 1 9.30073 -4.69454 -8.56702 17
492 1 6.67055 4.90429 4.33044 23
493 1 8.8801 12.7049 -5.45825 14
494 1 11.5709 12.1948 3.50775 12
495 1 -10.324 2.50532 0.928385 15
496 1 8.59518 6.6186 -2.07955 23
497 1 -0.0277944 -11.1228 10.4493 9
498 1 -5.89754 9.87447 -11.0188 9
499 1 6.99583 13.9317 5.7121 15
500 1 7.82681 7.48706 8.968 22
501 1 8.80237 12.3192 -2.16136 18
502 1 7.64702 10.3068 7.58856 22
503 1 15.1388 -2.73508 -0.884977 15
504 1 -13.3315 -1.08973 6.173 12
505 1 7.46556 -10.9096 6.05748 15
506 1 0.275719 -0.264735 -8.89492 21
507 1 0.41841 4.84463 7.99898 23
508 1 8.3437 -5.08587 -2.3407 18
509 1 3.3522 12.8003 5.08526 19
510 1 -11.2262 -2.55098 2.42134 13
511 1 5.77646 -13.8911 -1.8281 13
512 1 7.76524 10.2192 -7.16798 17
513 1 6.80306 -6.4653 3.25522 21
514 1 0.408921 7.6516 3.31885 19
515 1 8.15745 -5.07288 -12.4216 9
516 1 1.29066 -10.5981 5.18713 19
517 1 3.86395 13.0186 1.74234 18
518 1 -1.00407 4.09779 16.8104 12
519 1 -7.06053 -5.13334 -10.5864 10
520 1 5.83488 -4.02753 -7.30113 20
521 1 -2.24749 13.0344 7.50254 20
522 1 5.29848 -11.9632 -9.33678 9
523 1 4.53105 -6.2062 9.18386 23
524 1 -6.03645 -14.245 -5.1732 9
525 1 -10.8138 3.06747 9.74819 12
526 1 -7.17078 -10.3755 -4.68243 17
527 1 -4.66142 1.65636 12.1109 15
528 1 13.245 8.47172 -5.54382 13
529 1 -5.70887 5.21105 8.16752 21
530 1 -3.69355 15.7968 6.08111 14
531 1 12.5465 -4.58842 -0.678535 19
532 1 2.48043 9.84794 -3.7089 17
533 1 9.58614 3.95553 -7.09257 17
534 1 8.54559 3.82049 -3.96664 22
535 1 -10.7441 2.65607 -3.33905 18
536 1 -9.76281 -3.94036 -8.31638 14
537 1 1.36121 7.63067 -13.2169 14
538 1 -1.50053 -1.87833 9.57783 20
539 1 -7.1028 -2.91368 9.01003 19
540 1 -0.240391 -2.99401 -10.5993 20
541 1 -7.38913 3.98576 2.5268 19
542 1 4.57516 10.2307 6.32654 19
543 1 -2.05207 -7.42229 2.78419 21
544 1 8.43669 1.86337 -12.5866 19
545 1 2.70266 -14.0368 -0.600779 17
546 1 9.99239 3.00515 -14.636 8
547 1 -1.29776 3.25716 -13.5795 15
548 1 0.99191 0.807004 17.0807 11
549 1 3.88058 8.90958 -11.5632 13
550 1 -4.69486 -3.31262 -0.26264 21
551 1 12.651 -1.80565 0.671692 19
552 1 -7.11966 -4.70023 1.67788 19
553 1 10.557 9.86625 -6.06751 14
554 1 13.3046 -8.75986 -2.40019 11
555 1 -2.86427 8.06859 13.4013 14
556 1 9.50805 -8.52843 4.72854 16
557 1 17.2438 -7.32996 4.97223 9
558 1 13.2237 -4.09127 10.2636 11
559 1 2.39043 9.40254 7.90335 18
560 1 -5.09358 10.087 12.0688 16
561 1 -5.17065 -9.9884 6.59881 15
562 1 9.8514 -1.51051 2.4863 20
563 1 9.76456 9.58979 11.7079 13
564 1 -13.2506 1.38624 -2.86058 16
565 1 13.4352 -5.40086 -3.69783 17
566 1 4.48291 6.9623 5.15041 20
567 1 5.25009 3.24032 10.0646 19
568 1 0.943392 13.7617 3.04986 20
569 1 4.3233 -7.32903 6.01349 20
570 1 -10.6378 -3.07073 -5.49445 20
571 1 4.25485 3.99738 13.4393 18
572 1 3.32943 12.6012 -2.5102 16
573 1 -6.67836 -9.9168 -2.32979 18
574 1 12.9436 -4.00929 5.14631 17
575 1 11.3835 -4.74987 7.6443 17
576 1 7.40508 7.9465 5.42021 20
577 1 0.3707 7.65133 -3.69582 18
578 1 4.32187 -9.44912 -11.8052 9
579 1 -2.71294 5.92895 -13.8381 11
580 1 -6.01881 2.62927 14.1875 12
581 1 -0.953347 16.0296 -1.07284 18
582 1 14.2248 1.15655 3.96919 16
583 1 2.46881 9.87107 -6.86746 22
584 1 -0.884485 5.86417 14.1197 18
585 1 10.3977 7.30033 6.07125 17
586 1 8.15043 -1.82431 -6.94544 20
587 1 -7.46684 -11.2135 0.523605 14
588 1 -8.00543 -1.50828 -3.54317 22
589 1 16.3392 2.37005 7.21705 9
590 1 5.45834 -1.4196 -15.4945 10
591 1 1.83561 -10.3298 -6.66404 18
592 1 17.0386 0.65494 3.91996 13
593 1 1.81103 -10.1413 11.8213 14
594 1 -0.190891 -8.96973 -8.36791 18
595 1 5.11569 16.0795 -0.610815 16
596 1 -0.737007 -6.94957 5.6923 20
597 1 -7.42724 3.59601 6.34501 20
598 1 10.127 6.84129 -5.20435 20
599 1 5.09763 -6.25607 -13.4137 10
600 1 -0.529472 17.1132 7.06376 15
601 1 3.18643 4.27113 -10.6517 17
602 1 8.29519 -1.76329 -0.349831 20
603 1 -7.95987 4.32863 0.0719768 20
604 1 10.9882 6.81403 10.8487 14
605 1 -10.2007 -4.61193 0.462694 20
606 1 7.63218 4.79821 13.7473 13
607 1 -7.84046 1.12088 -2.04672 18
608 1 -7.18229 9.53367 9.58748 15
609 1 -3.14954 3.70431 -10.1261 21
610 1 15.2468 -3.10783 -5.44543 10
611 1 -7.28764 -7.01623 -3.64462 19
612 1 7.12719 -7.24286 -7.08457 15
613 1 -13.3233 7.01131 -0.814833 13
614 1 -12.6875 -8.07503 -4.89338 8
615 1 -15.6714 -3.75751 -1.21475 14
616 1 11.4936 -3.19602 12.7289 11
617 1 10.4565 -1.49425 5.2821 21
618 1 -13.469 3.86489 3.63043 10
619 1 -2.29775 11.3148 12.6957 15
620 1 1.47491 10.5765 -12.4258 13
621 1 -2.43957 15.7775 9.28522 15
622 1 8.10267 14.2607 0.525191 15
623 1 4.42287 6.34938 10.7557 22
624 1 11.358 -7.17533 10.0971 11
625 1 0.776274 11.9531 -7.13178 20
626 1 -6.33303 -0.794334 11.4264 18
627 1 -5.65504 -0.776931 -8.82773 18
628 1 -6.90685 0.161212 6.48817 22
629 1 -4.81821 -6.55455 10.6104 11
630 1 5.29908 0.0804293 9.54486 18
631 1 2.84907 -13.4325 -7.38771 14
632 1 -12.6762 2.75378 -5.8254 16
633 1 15.2193 0.675974 -8.88407 11
634 1 -6.93118 12.84 1.9937 20
635 1 -2.58521 3.83932 9.17144 19
636 1 -4.83853 -11.2122 -6.21024 13
637 1 6.03439 -12.4295 1.05932 17
638 1 3.02763 -14.7587 -3.91406 14
639 1 3.08371 6.91229 -8.62377 21
640 1 10.9578 4.80034 -2.24316 20
641 1 6.3657 8.04308 2.75381 20
642 1 11.4995 1.10919 2.22185 20
643 1 0.340871 5.55184 -15.4609 6
644 1 -1.87394 -5.25298 10.7445 19
645 1 5.69532 8.12154 -3.88163 21
646 1 8.84691 1.45965 -8.9285 19
647 1 -12.7438 0.0985441 0.32034 14
648 1 5.72569 5.01443 -2.26989 20
649 1 -6.48288 -3.02677 13.1424 14
650 1 6.31474 5.101 7.75968 23
651 1 -2.11869 -15.9034 -0.743986 14
652 1 8.88814 9.64486 -0.683268 22
653 1 -3.63884 13.5365 11.0422 14
654 1 -5.90137 4.73779 11.5495 14
655 1 8.38088 0.787545 -2.23593 20
656 1 -7.9731 -5.80788 9.60245 13
657 1 1.88099 -11.4114 8.74332 14
658 1 2.93235 14.2698 10.0756 13
659 1 12.636 1.58559 -9.69979 18
660 1 -7.2172 7.28528 -10.7464 12
661 1 -2.57582 7.09406 -8.61036 22
662 1 -12.2653 5.8246 -4.72514 14
663 1 9.9312 12.3086 0.837522 15
664 1 -0.706975 6.3706 10.3818 20
665 1 -10.7787 -10.2402 0.214442 8
666 1 -1.76335 10.232 -0.480438 20
667 1 15.8658 3.56947 4.47469 13
668 1 -4.3587 -7.70598 4.70794 20
669 1 10.5813 0.896416 -11.1735 17
670 1 10.6289 -6.68897 -1.95754 18
671 1 2.76551 -1.84805 -10.7042 20
672 1 -4.99323 3.55755 -12.7851 14
673 1 -9.44739 -4.23537 4.4198 22
674 1 -4.80094 5.11362 -1.87723 22
675 1 -6.24353 7.58105 12.3075 16
676 1 9.74226 -4.45217 10.5316 20
677 1 -7.10215 -2.58728 6.14132 20
678 1 14.6531 3.64217 -3.45641 14
679 1 -0.641821 5.47431 -11.5496 20
680 1 13.448 6.59733 -2.85125 17
681 2 -12.2682 -0.989196 2.06492 14
682 2 -4.43931 12.978 -1.638 19
683 2 5.06522 0.615356 -15.6281 13
684 2 1.97872 9.11748 11.8083 18
685 2 -9.94003 -2.16342 -3.36721 20
686 2 2.31273 0.151654 12.7333 17
687 2 -14.8268 -4.51468 2.97297 11
688 2 -12.0982 8.65434 -0.396292 12
689 2 -0.209241 13.3738 7.86615 19
690 2 -13.2256 0.401245 6.9261 12
691 2 11.279 4.96995 2.55501 21
692 2 -12.2466 -6.59875 -6.32786 11
693 2 -5.46299 -1.28808 12.9598 16
694 2 3.27642 -8.46532 4.73745 20
695 2 4.68167 2.62141 12.0962 21
696 2 8.22592 -3.74439 -7.51052 20
697 2 6.66125 -12.6262 6.20302 11
698 2 9.75822 0.213469 5.00745 21
699 2 -7.16455 5.29465 -1.6279 21
700 2 -7.52049 5.78146 -4.80975 20
701 2 11.3781 -2.90933 4.3659 17
702 2 11.5883 -2.51285 -3.80342 21
703 2 -10.489 -9.44056 7.48809 12
704 2 -8.20778 -1.44915 9.62645 18
705 2 -2.7939 -6.94324 10.7936 15
706 2 9.5182 -4.27083 8.32468 16
707 2 4.18349 -13.9369 -5.84859 8
708 2 7.89071 3.52493 11.5794 17
709 2 3.21382 16.7031 -4.73095 13
710 2 -10.6351 -9.42015 -1.34999 12
711 2 2.37669 4.52981 17.3591 11
712 2 -5.28121 15.7874 4.57022 14
713 2 -2.59291 3.63004 15.666 13
714 2 -5.07765 10.6827 -3.4933 18
715 2 7.06745 -11.2917 4.16718 16
716 2 -1.52674 11.2386 6.13615 18
717 2 0.508552 13.0985 -5.70895 17
718 2 6.02779 -4.61204 -5.72798 19
719 2 -2.66261 2.19488 -6.88309 19
720 2 0.947508 -1.21548 -7.18663 20
721 2 9.51008 -0.814183 -11.7567 17
722 2 -4.71618 8.51924 13.2724 14
723 2 6.88702 5.75954 -13.2517 12
724 2 6.34739 12.3403 -5.39394 20
725 2 8.84799 13.8269 -3.62128 13
726 2 -3.87421 -5.81248 8.07145 19
727 2 -10.7131 9.17891 3.03061 13
728 2 6.44573 1.39004 -12.5342 21
729 2 1.75085 -8.99315 -8.39393 18
730 2 -13.3285 -6.68362 -0.553525 16
731 2 10.1434 13.0992 2.62524 12
732 2 -2.48519 7.97681 3.29356 22
733 2 -5.73307 -12.1115 -4.82493 18
734 2 -3.09298 15.5429 2.94981 16
735 2 3.09505 -10.4151 7.76869 16
736 2 8.57315 -1.83225 4.09502 21
737 2 -7.61193 -1.06079 5.03958 18
738 2 11.5777 -5.04323 -5.79926 16
739 2 9.72309 -6.01644 -3.66337 16
740 2 6.37459 6.7392 4.29863 20
741 2 5.23004 -10.1086 2.82612 18
742 2 14.114 -1.30918 7.74127 16
743 2 -3.55786 -1.88588 15.8217 11
744 2 16.2552 -6.19541 6.62802 10
745 2 0.306583 12.2363 3.83457 22
746 2 4.79841 10.7983 11.2504 16
747 2 -7.2494 10.4256 7.78641 14
748 2 2.752 10.8175 5.16446 18
749 2 16.7528 -7.71273 3.0466 8
750 2 6.38772 7.00124 -2.49255 20
751 2 -6.92183 -3.61397 -11.6366 9
752 2 -2.97765 1.13529 12.9371 15
753 2 6.44405 -1.54513 -10.6734 19
754 2 -4.57141 1.88467 -13.5256 12
755 2 -10.4234 9.55576 6.20473 11
756 2 -8.71124 -5.64515 1.10668 18
757 2 14.6102 0.431674 0.0323451 18
758 2 6.04132 -9.70722 6.79252 20
759 2 -4.15222 -5.0005 11.2136 15
760 2 6.49695 -1.19693 -13.8822 15
761 2 7.54713 6.32461 13.0711 14
762 2 0.577818 7.47138 14.1962 12
763 2 -8.23606 1.65787 5.98038 15
764 2 6.85633 -6.23741 -3.05218 21
765 2 15.6572 -1.44167 -2.1357 14
766 2 -5.58407 13.3494 6.60237 16
767 2 0.752991 -10.154 0.923853 17
768 2 14.2029 -3.76871 -4.17022 18
769 2 6.56122 4.29939 9.39432 22
770 2 5.95564 -7.82187 -5.58995 16
771 2 7.5735 -5.41417 13.4992 14
772 2 -1.92416 -3.77313 9.30663 22
773 2 14.5851 4.75754 0.814359 15
774 2 -12.8212 -7.41189 7.82661 13
775 2 11.5571 8.75499 -4.69625 15
776 2 -2.63731 -6.35478 1.34338 21
777 2 14.3692 -0.832392 -4.73241 18
778 2 5.40671 -10.7502 -0.0421307 19
779 2 12.0372 -1.04584 2.33174 24
780 2 -4.55469 10.012 6.25239 19
781 2 9.92258 8.09462 -6.96482 16
782 2 -4.26248 -3.89141 -5.36873 20
783 2 -8.64032 -3.53956 7.21313 22
784 2 5.67364 -7.78519 -0.709944 15
785 2 -4.65788 -7.39199 -0.0755834 18
786 2 -4.42781 6.97634 -1.88971 19
787 2 -8.1758 14.7299 4.58637 11
788 2 6.18764 4.40515 -7.20481 20
789 2 9.40366 11.2342 7.81861 15
790 2 6.73601 7.35298 -8.31884 17
791 2 -0.0822347 5.28731 15.72 14
792 2 -1.43358 1.46642 -14.4354 13
793 2 -9.74253 7.28907 -2.25414 22
794 2 -1.94037 4.8311 10.7698 17
795 2 -6.40512 11.9106 3.90131 17
796 2 -4.56846 4.35989 -3.65702 22
797 2 5.08962 15.9412 1.34955 18
798 2 11.9037 2.33096 0.561245 17
799 2 18.1053 -5.50691 4.46901 9
800 2 -6.08569 0.677029 14.2293 15
801 2 9.69888 1.85789 2.5764 22
802 2 0.372366 15.7654 3.64257 19
803 2 -10.1218 9.84255 -6.84953 11
804 2 -2.14677 7.90993 6.3787 20
805 2 11.772 -5.35568 9.63574 14
806 2 -11.7337 -3.49398 -8.18279 10
807 2 2.74698 8.79084 -12.9989 12
808 2 8.98777 10.8407 0.853655 17
809 2 -14.4999 -1.70727 4.87234 12
810 2 -1.67366 11.3047 1.42787 21
811 2 -1.11518 12.0731 -9.34188 12
812 2 3.28607 10.9804 -5.0477 21
813 2 14.1136 4.6828 7.84589 14
814 2 -2.67168 9.78087 8.97168 20
815 2 14.1648 -7.02183 -2.92205 11
816 2 -5.25615 2.86396 15.8583 8
817 2 4.20253 -5.8399 11.1816 21
818 2 -12.689 3.17859 -2.67614 15
819 2 -4.06814 -8.30948 -8.6572 15
820 2 -1.77865 -14.63 -4.31314 17
821 2 -1.62939 -1.60754 -11.7437 20
822 2 14.7768 5.24134 -2.19264 16
823 2 -2.81638 6.18951 13.6763 18
824 2 5.65103 7.98306 -11.3207 13
825 2 -7.78984 -4.21087 10.4341 17
826 2 0.66359 -0.896609 -14.2956 14
827 2 4.85166 -13.8108 -0.0413521 13
828 2 1.36381 -3.54343 -5.68655 21
829 2 8.59957 -9.83695 -3.49224 13
830 2 8.76091 13.6069 5.72384 12
831 2 -4.60737 5.03322 -10.0329 18
832 2 -0.778686 16.653 8.86049 13
833 2 -7.00542 -6.35646 -1.56713 22
834 2 -5.55835 8.06854 -10.9476 11
835 2 5.25613 6.89277 -5.40948 22
836 2 -1.7868 14.2312 -0.404759 18
837 2 -8.60094 -10.9677 4.45192 12
838 2 14.5596 4.71969 3.93767 18
839 2 -1.46938 9.41601 12.375 18
840 2 -1.72554 -8.9891 1.79173 19
841 2 7.44458 -12.6467 -2.32695 15
842 2 2.64369 3.40506 13.9867 19
843 2 2.14032 15.8703 9.35894 15
844 2 14.4332 -0.258059 -10.085 12
845 2 7.52066 11.9649 10.0151 13
846 2 6.0204 9.84697 -6.63092 18
847 2 -9.84349 4.72389 10.2176 13
848 2 9.74412 -3.38823 2.02732 17
849 2 -1.84227 16.9028 5.59564 14
850 2 8.51334 3.53669 4.47036 18
851 2 -1.25364 8.27172 -9.63508 19
852 2 7.84295 -8.09436 8.62054 17
853 2 -4.4481 10.3195 -0.23646 19
854 2 6.54273 -7.5989 12.1702 15
855 2 6.44729 -5.31473 9.93471 20
856 2 -6.35137 -14.0838 -2.93216 10
857 2 -3.64652 10.5355 -6.54696 18
858 2 -4.11981 -6.68232 -6.98169 21
859 2 -4.36676 -15.0958 -4.82691 14
860 2 -8.6769 1.78726 -6.59695 20
861 2 5.55337 -4.72256 -9.17916 17
862 2 11.2708 11.5569 5.35418 13
863 2 -7.34158 -0.771998 -1.62784 22
864 2 -10.4936 6.52914 4.83003 16
865 2 10.9409 -2.65669 7.21211 21
866 2 -7.42556 7.79337 6.75176 19
867 2 -3.01371 -12.6904 -2.38995 20
868 2 -0.465775 4.05896 13.2474 22
869 2 3.24586 -0.731295 -8.78479 18
870 2 -3.48985 -4.49697 -8.66941 20
871 2 4.45715 10.6654 -10.7453 13
872 2 13.5008 0.601168 -7.8925 16
873 2 -4.54068 -1.92448 -7.70136 17