ITEM: TIMESTEP
139000
ITEM: NUMBER OF ATOMS
5760
ITEM: BOX BOUNDS pp pp pp
-0.164598323 32.964598323
-0.1830985603 34.3230985603
0.5992901931 63.0007098069
ITEM: ATOMS id type x y z Coordination
1 1 32.7261 5.3522 1.00387 22
2 1 1.33954 2.57628 0.806404 22
3 1 4.87325 0.332587 3.3615 21
4 1 29.7008 11.1665 6.03758 22
5 1 -0.252785 9.41445 8.67112 21
6 1 31.3584 2.42462 6.22298 22
7 1 3.31832 3.23339 8.30484 21
8 1 3.05233 3.55541 3.58436 23
9 1 32.7023 9.39055 13.81 22
10 1 6.64177 33.7641 6.3679 25
11 1 4.77242 7.8942 6.00345 23
12 1 4.88052 6.48843 14.2936 22
13 1 32.8889 11.3262 1.32495 23
14 1 1.52683 8.19418 1.02312 23
15 1 2.92402 5.04346 6.01027 22
16 1 -0.0506181 11.1691 6.32056 25
17 1 28.0068 12.1048 8.47534 25
18 1 -0.205994 9.44517 3.58971 24
19 1 3.36678 15.4926 3.83762 21
20 1 26.298 9.22328 13.8992 24
21 1 1.73811 14.3168 11.2894 24
22 1 32.7111 15.2106 8.17582 22
23 1 31.2094 17.4397 24.533 23
24 1 31.186 8.57175 11.4983 23
25 1 32.8985 17.0871 1.02773 22
26 1 1.43854 14.4924 1.29649 22
27 1 1.6428 12.4149 3.47221 20
28 1 -0.0217806 15.1318 3.35378 19
29 1 31.0086 18.0833 3.39773 25
30 1 31.0794 13.9393 5.7183 21
31 1 4.89801 12.3064 8.45537 21
32 1 2.86041 17.0788 6.1625 24
33 1 10.1568 28.3416 16.4887 22
34 1 3.17829 21.1863 8.58379 23
35 1 1.3751 14.0762 6.26382 24
36 1 3.14347 14.6488 19.0061 23
37 1 2.88211 5.27548 1.01702 22
38 1 4.75862 2.49877 0.590856 20
39 1 8.25813 0.325587 3.19282 22
40 1 6.40435 5.26044 5.96256 25
41 1 1.45886 2.66454 6.28014 23
42 1 3.12441 34.0248 5.64879 19
43 1 7.92429 2.58386 6.09526 24
44 1 5.1207 6.23358 8.30081 21
45 1 3.24825 11.4505 16.1508 22
46 1 28.2142 6.31641 18.96 21
47 1 4.85998 8.38825 11.3244 24
48 1 1.4056 2.51608 17.0021 26
49 1 3.12702 11.6929 1.23409 24
50 1 4.79627 8.48068 63.0916 21
51 1 3.32494 9.2531 3.61594 23
52 1 4.93742 2.16325 5.61495 20
53 1 9.86911 5.23271 6.25527 24
54 1 1.5176 8.41581 5.99835 23
55 1 9.70676 9.31655 8.69483 24
56 1 0.886663 18.2048 8.78941 24
57 1 6.26094 9.28065 8.4914 22
58 1 11.7662 6.20303 13.4019 22
59 1 32.7258 3.81087 13.9146 22
60 1 8.04248 6.51334 13.8062 21
61 1 3.51592 17.363 0.98565 22
62 1 5.0055 13.8485 1.12681 23
63 1 3.12823 11.0647 6.1563 23
64 1 4.48319 12.3427 3.46941 21
65 1 6.40397 10.768 6.10008 21
66 1 4.96729 14.0938 5.93457 20
67 1 7.91788 14.006 11.2722 24
68 1 8.15782 18.0292 13.6685 22
69 1 6.47567 20.7455 3.48823 25
70 1 11.2224 7.80396 16.319 21
71 1 6.47893 9.12934 13.7396 23
72 1 3.28434 14.7093 13.9059 22
73 1 6.1494 5.48732 0.672056 21
74 1 8.02715 2.50492 0.867939 23
75 1 6.17545 3.49116 2.93067 20
76 1 4.78119 6.64433 3.24424 21
77 1 9.76614 11.3642 10.2419 23
78 1 8.3266 31.2577 6.19167 23
79 1 11.7678 2.76137 11.1511 23
80 1 6.30336 3.61327 14.4083 23
81 1 12.8077 17.1502 11.4488 22
82 1 6.46937 5.16531 16.7373 23
83 1 4.65255 0.406477 14.2454 23
84 1 1.27097 14.1008 16.572 22
85 1 6.34911 11.182 0.911293 24
86 1 7.95892 8.47719 0.940245 24
87 1 7.9517 6.74873 3.31034 23
88 1 6.43094 9.3825 3.19514 21
89 1 14.6706 6.18818 3.38389 24
90 1 14.8269 2.25304 5.75145 23
91 1 11.668 12.1342 8.63676 23
92 1 11.6414 7.5441 5.8564 22
93 1 8.0638 19.8175 11.4878 25
94 1 3.28002 5.39647 11.331 22
95 1 4.77345 8.38557 16.18 23
96 1 3.2909 11.6422 11.0854 20
97 1 6.55381 15.371 3.60803 22
98 1 8.27251 14.0363 0.938341 21
99 1 7.86245 12.3407 3.65515 21
100 1 13.2106 9.04087 8.56051 22
101 1 5.05877 19.6553 6.32321 22
102 1 11.7871 18.0156 3.3784 22
103 1 11.291 12.1769 3.12461 19
104 1 9.89809 14.9936 3.1 21
105 1 8.52159 19.6338 6.37337 21
106 1 9.55386 9.30382 13.3623 20
107 1 13.1149 8.90743 3.31103 21
108 1 15.6828 14.9738 14.1453 22
109 1 9.4216 5.29764 0.999137 22
110 1 11.297 2.67226 0.803536 21
111 1 6.46545 32.6568 9.06242 22
112 1 14.4466 6.36977 8.23913 22
113 1 3.0237 3.65408 14.0165 22
114 1 11.4804 2.46493 5.90027 24
115 1 16.2751 3.63973 13.6714 21
116 1 16.5208 5.41635 10.9592 20
117 1 6.78048 3.23139 18.7227 20
118 1 16.6942 33.7359 5.95092 25
119 1 19.6364 3.42886 18.5321 20
120 1 12.669 3.65054 8.7149 22
121 1 9.60602 11.1435 1.0605 23
122 1 11.2808 6.11638 3.00087 21
123 1 13.2069 3.24104 3.22458 24
124 1 9.97141 9.37751 3.45964 22
125 1 18.0852 8.54164 5.54891 19
126 1 5.16328 12.0285 13.2209 24
127 1 11.5174 1.99105 16.7507 25
128 1 13.1108 5.17293 5.78384 23
129 1 13.2857 5.27281 16.5626 22
130 1 10.8091 8.47847 21.6212 23
131 1 17.8797 6.5726 13.824 22
132 1 19.7821 9.35705 13.1879 22
133 1 9.87896 16.733 1.00678 23
134 1 11.2738 13.8985 63.143 24
135 1 14.4432 11.9715 3.50029 24
136 1 10.087 16.9067 6.41905 23
137 1 13.3546 16.8964 6.02449 21
138 1 13.5064 15.054 8.82465 22
139 1 14.6173 13.8288 6.21767 23
140 1 9.77663 11.3259 6.27824 23
141 1 8.31396 13.976 6.31782 22
142 1 11.4924 14.154 11.098 20
143 1 7.75207 12.0935 8.42541 22
144 1 13.084 20.8903 13.5922 21
145 1 12.7876 5.29885 0.44218 20
146 1 14.7532 2.42434 0.459309 21
147 1 14.9792 0.612736 3.10917 20
148 1 11.4266 0.580096 3.1167 23
149 1 16.8536 3.464 3.06196 23
150 1 14.6411 29.401 3.82931 24
151 1 15.9931 3.55753 8.22916 23
152 1 15.2503 2.50083 11.1842 22
153 1 13.0155 11.0233 5.80124 22
154 1 22.5635 33.9559 11.3597 23
155 1 11.9204 0.856357 14.0727 23
156 1 19.7094 3.44371 13.7845 22
157 1 12.9784 11.0412 0.62445 20
158 1 14.4633 8.13465 0.954481 22
159 1 17.7135 6.5291 3.05065 20
160 1 11.2748 8.24632 0.769942 24
161 1 16.3767 9.1805 8.50253 22
162 1 18.274 6.48073 8.30215 21
163 1 22.9762 9.37218 8.38386 25
164 1 14.6297 8.53823 5.85069 22
165 1 9.63396 5.56904 11.4315 22
166 1 29.816 34.0869 11.2114 21
167 1 17.9925 8.44545 10.9263 21
168 1 14.8548 11.7284 8.62521 23
169 1 12.7896 16.8678 0.934543 23
170 1 14.3997 13.7192 0.879407 23
171 1 16.2396 14.8355 18.8418 20
172 1 18.0952 12.3644 3.28268 24
173 1 9.85919 15.2114 8.74875 22
174 1 16.1208 14.9861 3.25304 22
175 1 18.2638 19.6325 11.3638 24
176 1 11.3991 14.0487 6.20946 21
177 1 7.94999 8.19057 5.90652 21
178 1 9.88235 20.9429 8.95762 25
179 1 11.096 6.26092 8.95398 23
180 1 11.3496 0.49776 8.7632 23
181 2 3.21749 33.9355 2.95446 24
182 2 29.8907 3.44908 5.39565 23
183 2 31.3575 6.24666 6.23769 20
184 2 3.35754 5.45849 8.03673 23
185 2 31.3375 0.750632 16.0905 23
186 2 1.53193 12.6676 10.7384 20
187 2 5.05274 14.0979 13.426 22
188 2 0.184324 34.1433 2.90849 20
189 2 0.157347 26.7046 10.7069 24
190 2 5.15276 31.3276 8.60831 22
191 2 29.4332 11.3936 12.9164 26
192 2 31.5536 31.4657 14.3556 21
193 2 1.62886 8.39291 3.33424 18
194 2 29.3397 5.42748 2.99653 25
195 2 1.90938 14.4044 3.58843 22
196 2 3.06446 10.9333 2.94024 24
197 2 6.57189 8.98242 15.6139 21
198 2 31.5203 2.33146 8.14389 23
199 2 -0.0490401 22.9739 8.43749 21
200 2 6.74532 5.23407 7.94573 23
201 2 1.97805 30.9928 18.6386 22
202 2 3.05368 9.52129 20.8871 22
203 2 31.251 17.6093 10.4623 23
204 2 4.99543 6.38786 10.649 22
205 2 9.72334 9.46869 10.7389 22
206 2 32.6796 15.5513 5.22389 22
207 2 29.4181 16.7772 2.60445 24
208 2 -0.00844096 3.26527 15.7801 25
209 2 4.82885 14.2319 3.10824 21
210 2 2.50395 17.6948 8.45869 24
211 2 29.5274 26.4232 5.84178 20
212 2 11.2434 23.5903 5.43269 23
213 2 6.21395 22.7651 18.0341 24
214 2 7.67645 23.7285 20.7642 23
215 2 7.91327 17.8549 10.5086 24
216 2 9.26025 15.155 20.9608 22
217 2 16.4049 34.2979 7.86449 25
218 2 8.30813 31.3219 8.19842 24
219 2 26.1203 9.35685 5.51646 23
220 2 0.426211 32.5355 5.25732 23
221 2 1.88081 25.6585 8.3725 22
222 2 26.4228 14.7287 21.0478 22
223 2 4.66841 6.13631 5.18367 24
224 2 3.10621 3.52099 10.5884 23
225 2 30.1574 26.669 15.767 21
226 2 11.2438 0.437246 21.8583 21
227 2 31.3596 1.10611 11.0679 22
228 2 8.44887 0.16721 16.4413 21
229 2 1.47435 6.37407 5.48674 24
230 2 1.61775 2.92915 8.28789 21
231 2 31.0502 18.029 5.26582 23
232 2 8.10783 8.86438 2.92087 21
233 2 2.76735 11.4418 8.0773 22
234 2 1.57133 8.32991 7.92848 23
235 2 8.37822 17.7379 5.71591 22
236 2 11.4395 12.2565 10.8439 21
237 2 2.99549 32.1724 11.1651 22
238 2 4.91482 6.46934 16.4364 22
239 2 26.3019 9.08912 10.2161 26
240 2 8.06891 6.52577 10.6011 24
241 2 6.69986 14.889 5.49499 22
242 2 8.36056 23.8651 5.45525 23
243 2 1.29065 20.0229 3.42338 25
244 2 3.16273 17.265 2.83251 23
245 2 4.8604 14.3436 7.94005 23
246 2 1.40535 14.3295 8.17178 21
247 2 0.145306 26.6 5.72857 20
248 2 7.85666 12.2137 5.66741 19
249 2 9.26168 10.8374 18.0583 22
250 2 9.655 5.04787 13.2194 21
251 2 3.24433 20.6212 10.4697 24
252 2 12.8708 9.47284 15.8776 23
253 2 8.07746 0.500961 6.14836 19
254 2 4.69345 12.1219 6.12519 19
255 2 1.40052 2.77684 2.88717 22
256 2 9.79004 33.9172 2.65554 20
257 2 29.7923 5.64608 18.5823 22
258 2 3.2455 9.54756 10.8674 21
259 2 9.69437 3.39633 5.54242 20
260 2 4.93106 0.367119 10.9544 22
261 2 6.4641 34.0535 18.7572 22
262 2 29.1911 3.42952 16.081 20
263 2 1.49893 6.1082 15.8872 23
264 2 7.97491 8.101 12.9854 23
265 2 3.15924 11.3285 13.1052 24
266 2 6.15451 11.1987 2.86775 23
267 2 4.70741 12.1387 62.5974 24
268 2 13.0567 14.9486 5.44002 24
269 2 4.44437 8.12008 18.891 20
270 2 7.81028 6.342 5.28793 22
271 2 9.59425 34.1389 8.40968 22
272 2 6.65385 5.28852 2.9288 21
273 2 14.7682 13.8532 23.5801 23
274 2 9.78723 5.34626 8.13185 21
275 2 13.2656 17.1447 13.3168 22
276 2 11.0629 5.73779 20.7497 21
277 2 9.35971 11.3429 2.92873 22
278 2 1.76899 6.71136 10.942 19
279 2 4.66756 20.1814 3.13374 23
280 2 6.34027 17.2133 2.89986 22
281 2 9.5039 4.87478 23.5339 23
282 2 8.41941 8.20556 7.88728 24
283 2 3.43083 21.0748 5.5791 24
284 2 11.5928 7.98921 2.908 22
285 2 30.9784 12.0144 16.0314 19
286 2 1.12135 12.229 15.8689 23
287 2 6.31429 17.2398 8.14658 21
288 2 4.85249 23.3221 21.2686 25
289 2 15.1559 2.13155 13.0086 25
290 2 8.00371 2.14857 2.72609 24
291 2 9.49002 5.55946 2.97254 22
292 2 13.2321 3.27642 5.10796 21
293 2 12.0436 2.19286 12.8196 21
294 2 10.0651 3.62031 10.9092 25
295 2 13.6632 3.43914 10.7194 24
296 2 7.44086 8.25341 18.1232 23
297 2 9.90565 33.8791 18.5853 25
298 2 6.45147 34.2676 13.4119 23
299 2 2.17509 23.4127 15.9876 22
300 2 14.7442 8.4534 7.73541 22
301 2 13.0836 33.9386 2.88219 24
302 2 16.2041 5.4452 13.0104 24
303 2 9.68038 9.28568 5.38858 22
304 2 11.5 12.1308 5.4372 22
305 2 8.26704 2.55302 7.94427 24
306 2 4.66413 8.09771 7.95576 23
307 2 6.13539 9.11105 5.53442 22
308 2 8.33729 13.8053 8.52646 22
309 2 6.36125 5.37409 18.4736 19
310 2 14.225 2.89845 7.75704 22
311 2 12.8761 3.14148 15.6688 24
312 2 17.6654 8.59517 13.1692 22
313 2 12.8463 10.8938 2.73929 25
314 2 9.80322 15.0969 6.14899 21
315 2 13.5599 16.8045 2.85209 22
316 2 11.445 14.0092 2.96363 23
317 2 4.6608 8.45119 13.8473 22
318 2 9.8287 14.8074 10.7184 22
319 2 8.48844 19.9473 8.3715 24
320 2 3.47252 15.3123 10.6835 23
321 2 17.6112 6.23173 20.6754 22
322 2 4.77268 17.9254 21.1843 23
323 2 9.65426 17.1523 18.2777 25
324 2 25.0502 12.1144 15.9668 21
325 2 16.1466 31.6082 5.63326 24
326 2 11.2024 29.5832 11.1197 23
327 2 13.1611 5.14288 2.43591 23
328 2 14.9921 2.39616 2.84125 23
329 2 9.94163 32.1122 21.4057 24
330 2 11.5672 6.0899 15.7868 22
331 2 6.61211 5.35044 13.5588 22
332 2 13.1741 33.9003 13.3691 23
333 2 19.673 0.0173008 23.456 22
334 2 4.89452 0.137216 21.7052 24
335 2 19.8431 3.59391 15.6861 22
336 2 11.4931 25.3455 23.9484 20
337 2 19.8988 31.9579 15.7273 23
338 2 15.2583 0.628881 10.5315 24
339 2 21.3455 11.7785 5.25281 22
340 2 21.3427 6.08682 5.39633 21
341 2 14.5276 6.50657 10.3833 23
342 2 10.9959 6.04714 4.97714 24
343 2 19.6896 9.73036 5.44557 22
344 2 19.6585 9.28082 11.1376 22
345 2 14.518 8.2931 18.702 21
346 2 19.499 5.40039 7.69666 25
347 2 11.1936 7.84189 18.4643 23
348 2 16.4384 5.67743 7.86046 22
349 2 17.6511 14.0338 13.7213 22
350 2 9.85871 17.0925 8.39595 21
351 2 14.556 13.7992 2.73415 23
352 2 16.6058 11.4069 2.79872 21
353 2 17.8759 2.82538 17.9377 22
354 2 14.6839 11.9347 5.5486 20
355 2 6.57225 9.17613 10.5966 23
356 2 11.5708 14.1317 8.33119 22
357 2 11.3034 6.43984 10.9456 23
358 2 14.6195 11.9115 15.7238 25
359 2 11.6317 2.19868 18.7623 23
360 2 7.99829 12.0339 15.8671 22
361 1 1.36943 0.646974 19.6353 23
362 1 1.25695 8.69356 11.3843 23
363 1 29.8608 3.60867 18.9532 20
364 1 21.1557 2.40545 21.1064 21
365 1 28.2204 0.337303 18.9419 21
366 1 2.69626 3.57541 23.9678 23
367 1 1.38615 2.45429 26.4334 23
368 1 30.9954 0.830533 24.7315 24
369 1 32.7399 9.43049 24.5331 23
370 1 31.0367 8.21053 21.7187 22
371 1 1.53526 6.1889 29.5519 23
372 1 0.126687 3.38423 29.2292 21
373 1 9.76754 26.6725 19.2944 25
374 1 6.21249 17.3453 11.1399 22
375 1 4.73696 2.60263 26.9249 21
376 1 1.43606 12.5245 13.8067 21
377 1 1.34126 8.05528 27.0597 24
378 1 26.3679 3.23732 24.1067 22
379 1 31.4511 8.17315 16.1646 24
380 1 3.30345 20.8873 24.4796 23
381 1 1.43401 17.608 24.0167 24
382 1 2.81007 9.01229 30.0733 22
383 1 -0.097842 9.21613 29.4961 21
384 1 2.93426 5.25348 26.9676 22
385 1 10.5917 13.7217 21.0335 20
386 1 5.03219 19.6441 22.0253 24
387 1 1.12461 7.02194 24.324 21
388 1 29.4482 5.33801 21.4477 19
389 1 31.1156 18.0644 19.052 24
390 1 24.7989 0.0922127 18.7939 23
391 1 28.0087 17.8106 18.7099 21
392 1 27.9518 14.0634 21.5914 23
393 1 29.9318 16.59 21.5104 23
394 1 1.28908 11.9759 29.4312 23
395 1 2.49559 11.148 21.4684 22
396 1 4.69164 17.8476 29.6519 21
397 1 27.7329 12.1476 19.0183 24
398 1 1.33865 31.2837 22.1213 23
399 1 29.8879 28.4694 26.7863 20
400 1 32.9323 32.4486 19.1112 22
401 1 1.24586 12.0814 18.6565 22
402 1 1.06674 8.91537 21.5513 20
403 1 6.36819 9.71462 24.1859 23
404 1 6.58005 33.958 16.7102 23
405 1 21.2575 11.6073 18.9713 22
406 1 6.48738 3.53051 24.3369 19
407 1 3.20802 2.99318 29.8968 23
408 1 9.92602 3.48268 29.3219 21
409 1 6.53847 15.0661 8.65578 24
410 1 -0.115199 15.1365 18.7632 25
411 1 29.7062 5.28641 16.5705 21
412 1 32.7852 9.27889 19.1684 24
413 1 28.3608 23.4741 18.2945 19
414 1 5.81358 4.97423 21.4041 22
415 1 1.40941 2.50766 21.679 22
416 1 6.03917 16.7352 21.8018 24
417 1 29.8386 20.8816 19.5829 23
418 1 1.14647 12.2134 24.025 23
419 1 6.26803 9.27175 29.7591 25
420 1 4.45113 12.3009 24.0206 22
421 1 4.59265 17.6638 19.1637 24
422 1 8.26549 12.2961 13.3068 21
423 1 1.18257 6.50273 19.0056 20
424 1 8.12533 8.31385 10.7471 21
425 1 9.0697 9.23413 24.1144 21
426 1 14.5993 13.7251 16.7277 23
427 1 7.81893 14.1131 21.771 24
428 1 4.39065 14.1131 27.0965 23
429 1 6.32019 20.7129 29.3712 20
430 1 3.30037 21.0564 19.3848 24
431 1 3.1974 16.5859 26.9239 22
432 1 2.92961 15.0555 29.6142 22
433 1 8.18768 0.693583 14.1953 21
434 1 2.74103 34.0376 16.7729 24
435 1 16.1868 3.60478 24.0574 21
436 1 11.4675 0.38461 24.5037 21
437 1 4.67166 6.39803 18.9314 21
438 1 15.0711 0.51274 24.4887 23
439 1 7.95837 2.36833 26.9912 21
440 1 14.8887 6.34411 29.3181 24
441 1 14.2998 12.0197 24.2257 24
442 1 9.96335 3.5502 25.008 22
443 1 7.94711 0.507664 30.1656 24
444 1 4.90415 6.37653 24.0652 23
445 1 4.4563 11.8931 18.9685 24
446 1 9.23374 9.06858 18.8465 21
447 1 14.4948 8.48141 16.6019 24
448 1 12.6385 11.076 20.9456 18
449 1 11.0049 8.12214 26.8524 23
450 1 11.1307 6.202 24.0769 19
451 1 14.4101 6.34435 24.1996 22
452 1 22.9649 14.6425 19.3915 23
453 1 2.67955 11.0795 26.8985 24
454 1 8.0264 2.27073 21.8644 24
455 1 11.2363 12.1423 29.6485 25
456 1 9.25761 11.1236 26.7244 23
457 1 1.65115 17.8606 14.2208 23
458 1 13.0968 11.3193 16.4609 22
459 1 -0.222552 3.65127 19.1092 22
460 1 2.95803 16.6653 21.2797 25
461 1 0.228172 22.7549 16.3719 22
462 1 6.05208 9.43902 19.0428 23
463 1 7.80817 14.1784 26.7532 23
464 1 7.58194 17.8949 24.0069 27
465 1 4.47551 19.7478 27.2336 23
466 1 1.33153 13.897 26.719 22
467 1 9.49238 15.2916 29.4535 24
468 1 4.33156 12.2043 29.5939 23
469 1 1.44048 8.25348 16.1972 22
470 1 13.1649 34.113 21.9551 25
471 1 16.5106 3.61698 18.9698 25
472 1 19.5893 34.136 21.3278 20
473 1 16.3595 9.23653 18.8286 23
474 1 14.5019 30.7082 26.9862 23
475 1 8.27663 0.275171 19.1287 22
476 1 16.2576 32.2015 29.4637 23
477 1 6.11348 11.3531 26.8251 22
478 1 14.7961 0.630041 29.5187 22
479 1 11.6583 0.295071 29.2991 22
480 1 8.18636 6.4863 29.3569 21
481 1 16.3435 9.01344 24.1804 20
482 1 17.7826 31.3826 21.5929 23
483 1 9.95066 4.98825 16.0718 21
484 1 4.47749 2.26131 22.0929 21
485 1 9.30811 5.02696 21.6209 24
486 1 7.80457 8.63158 26.9793 23
487 1 18.0036 17.5759 24.0984 20
488 1 8.09845 6.25158 24.1424 21
489 1 12.7693 10.9924 26.3111 22
490 1 6.1042 11.189 21.4687 22
491 1 11.4276 6.47192 29.8421 25
492 1 9.67056 9.25405 29.658 25
493 1 21.4154 19.6665 16.6208 23
494 1 11.584 19.5788 16.3989 20
495 1 12.9079 14.9044 13.9163 25
496 1 6.46399 11.0168 16.1381 23
497 1 14.4618 13.578 21.7337 23
498 1 14.8424 19.833 16.1576 23
499 1 12.6768 14.8801 29.3381 20
500 1 11.2044 12.1902 24.024 22
501 1 8.12914 12.2514 24.381 23
502 1 12.2839 9.24956 24.3685 21
503 1 6.2289 14.6858 29.4609 21
504 1 19.1788 11.1808 26.2769 22
505 1 13.4644 3.3423 13.9377 23
506 1 14.7049 31.3462 22.0194 23
507 1 7.91762 0.752072 24.5635 23
508 1 6.47973 32.2125 19.3652 23
509 1 14.2597 8.15511 21.68 24
510 1 9.55118 33.8669 27.2358 22
511 1 15.9928 32.4878 19.1938 22
512 1 9.65158 5.63558 27.2288 24
513 1 18.0654 5.88495 29.3242 22
514 1 14.5999 2.41951 26.823 22
515 1 13.4545 33.963 26.6458 23
516 1 13.1408 3.74092 29.4996 21
517 1 12.9219 11.151 11.0966 22
518 1 18.0151 8.61267 16.3445 21
519 1 9.6973 33.8105 22.4671 22
520 1 14.585 11.8253 19.0187 21
521 1 19.8842 9.22031 18.7118 21
522 1 19.5315 5.34955 26.527 21
523 1 12.8276 5.21427 26.9411 24
524 1 12.7809 15.151 19.0863 24
525 1 16.6764 20.7017 13.7311 23
526 1 16.5413 3.35393 29.3061 22
527 1 13.9923 13.8919 27.2683 23
528 1 16.0504 11.0119 26.7031 23
529 1 10.7606 11.7503 18.7516 20
530 1 16.3182 16.7726 11.2307 24
531 1 9.496 11.2095 16.2041 23
532 1 17.4579 12.2332 24.0531 22
533 1 21.2069 17.642 19.0945 21
534 1 7.68651 12.1569 18.7104 23
535 1 6.28472 17.2992 26.6489 23
536 1 17.7062 19.1288 26.9532 24
537 1 12.8658 17.256 27.2964 23
538 1 16.3917 11.0164 21.6924 23
539 1 14.4975 11.9934 29.4051 20
540 1 13.3388 16.7885 16.5674 21
541 2 31.4771 31.3255 18.4978 22
542 2 4.55012 2.17091 24.005 23
543 2 29.2666 11.314 23.8327 22
544 2 6.01721 15.2088 20.6519 23
545 2 26.2873 3.49723 20.8473 22
546 2 31.3713 2.6627 29.2315 22
547 2 8.00092 14.2059 13.542 22
548 2 31.1136 12.3283 20.7982 23
549 2 1.33864 0.156008 32.0253 21
550 2 32.9644 3.19222 31.5209 23
551 2 4.5339 0.525333 26.8218 22
552 2 6.55449 5.43402 28.8511 24
553 2 19.6315 5.42469 18.4573 21
554 2 5.83503 17.0233 23.8067 23
555 2 4.69183 14.115 23.5679 23
556 2 1.39086 8.57145 13.6604 20
557 2 26.2032 11.5675 28.6542 21
558 2 2.9165 11.5669 23.3236 24
559 2 2.72433 16.3777 23.1129 23
560 2 0.90614 11.9597 20.6697 25
561 2 1.50744 6.34452 31.5463 25
562 2 32.6621 8.8061 31.2462 25
563 2 1.46115 13.9121 29.0669 24
564 2 9.436 9.36679 26.3219 23
565 2 27.9541 14.3434 13.2891 23
566 2 1.44444 19.7103 13.7419 21
567 2 6.28996 20.9112 15.7025 26
568 2 31.2347 17.9275 15.5353 24
569 2 29.9633 20.4378 15.8315 23
570 2 1.65993 19.459 23.5151 22
571 2 29.8425 9.23522 15.3859 24
572 2 26.1609 20.0669 26.0881 23
573 2 1.2959 11.9504 31.4539 24
574 2 32.7642 14.7857 31.1532 24
575 2 32.7499 17.2593 28.8219 21
576 2 4.60053 8.26191 29.2987 20
577 2 29.1827 14.7405 16.011 21
578 2 3.06929 5.34326 18.9291 21
579 2 4.90492 12.1385 15.7674 22
580 2 3.15872 32.1319 16.205 23
581 2 4.45487 6.26597 26.5915 19
582 2 4.3125 12.1883 20.8938 24
583 2 27.6972 31.3453 23.7024 22
584 2 14.9743 0.522585 26.4794 21
585 2 3.84254 0.757641 31.2272 21
586 2 3.50429 3.72173 32.0247 23
587 2 0.993317 8.69762 23.4912 23
588 2 2.79983 33.7186 29.0887 22
589 2 12.9263 10.8567 18.8617 21
590 2 29.5573 16.7067 23.7237 22
591 2 2.8756 5.73963 13.4707 23
592 2 32.9252 9.31142 15.853 21
593 2 12.8648 3.21563 26.3459 22
594 2 4.68438 6.53598 21.954 19
595 2 4.93794 23.7855 15.6155 24
596 2 23.0917 16.8849 13.3494 27
597 2 4.81059 6.1726 31.5058 23
598 2 3.27989 9.02145 31.9934 20
599 2 2.81737 10.8341 28.9087 23
600 2 7.84138 12.1714 26.4315 22
601 2 11.5263 18.1087 20.985 23
602 2 11.4194 12.3278 16.1742 21
603 2 2.76205 20.6237 26.2505 23
604 2 9.91434 22.9931 13.6996 23
605 2 2.8549 9.03376 26.2515 20
606 2 1.26552 12.0229 25.9287 25
607 2 3.16347 14.9478 20.9846 25
608 2 6.46679 11.268 29.0694 23
609 2 4.4381 11.8192 31.5684 21
610 2 2.42831 15.1641 31.6008 20
611 2 2.81548 16.9105 28.6721 24
612 2 6.19873 20.8306 26.9913 21
613 2 7.93857 29.5165 20.9956 24
614 2 16.2435 5.40466 18.239 24
615 2 12.7097 9.20414 21.1306 20
616 2 1.49329 31.268 23.9677 26
617 2 32.8551 32.4696 21.2826 24
618 2 32.8489 9.1838 26.4483 20
619 2 8.27608 31.3533 23.8248 24
620 2 6.43534 -0.22347 24.0494 26
621 2 7.6153 0.802493 31.9717 21
622 2 6.60493 3.13491 31.2073 23
623 2 5.02857 2.09175 29.3558 21
624 2 10.1073 5.41181 29.0757 22
625 2 10.9101 7.89175 23.5789 23
626 2 7.47059 6.06814 20.9898 22
627 2 19.6651 20.6405 20.7701 23
628 2 18.1031 29.3999 20.8486 24
629 2 9.65059 11.1616 28.7613 22
630 2 31.2052 8.52116 18.5825 23
631 2 7.42335 12.353 20.9147 22
632 2 10.0044 3.69404 27.0017 18
633 2 7.95668 6.15045 31.5016 25
634 2 6.6166 9.13673 31.6583 20
635 2 1.31408 6.45734 26.3028 20
636 2 31.3417 6.72765 26.4859 19
637 2 9.81737 11.0743 13.8574 20
638 2 -0.0887019 22.8161 18.3062 23
639 2 31.3341 18.1488 21.2893 22
640 2 14.2723 11.9702 20.987 20
641 2 11.3178 12.1292 25.9762 23
642 2 11.2837 14.1443 23.1534 24
643 2 16.3527 10.8675 23.6606 23
644 2 4.69288 13.7935 18.4141 25
645 2 7.80265 12.2552 31.3453 24
646 2 6.07089 15.0126 31.3663 23
647 2 6.14439 16.6627 28.7876 24
648 2 4.64481 13.796 29.0081 23
649 2 11.3316 29.4044 26.243 25
650 2 16.2173 32.2591 26.5409 23
651 2 6.57768 32.0111 16.1252 22
652 2 12.2904 15.38 21.0846 22
653 2 6.24263 3.73901 26.1106 23
654 2 11.1536 6.1341 26.0709 23
655 2 9.54018 22.6153 28.811 23
656 2 11.1542 -0.0427202 31.1795 22
657 2 9.84731 32.0586 31.2904 24
658 2 10.0224 3.40144 31.3462 22
659 2 16.1573 4.9866 28.737 24
660 2 13.3061 9.32046 31.2902 25
661 2 12.8777 3.5158 21.3311 23
662 2 12.749 5.66929 23.4927 24
663 2 7.92084 6.13044 15.5138 23
664 2 4.84447 8.6613 23.5918 20
665 2 9.66592 32.0002 26.6647 23
666 2 8.49947 2.44919 18.8969 19
667 2 9.30443 10.8081 23.389 24
668 2 12.7313 14.747 26.4821 24
669 2 11.0393 6.54761 31.7807 21
670 2 9.64303 9.18379 31.5441 24
671 2 8.08397 8.3716 28.9677 23
672 2 14.2781 5.93499 26.1087 22
673 2 16.298 16.774 29.225 22
674 2 6.72398 20.6458 21.2439 25
675 2 10.9674 14.0024 13.1748 20
676 2 19.4111 9.00391 20.8259 23
677 2 7.70268 13.9379 28.5653 24
678 2 16.1822 14.8912 16.1229 24
679 2 8.12455 14.2153 23.7614 23
680 2 20.8963 17.7921 26.3541 21
681 2 11.3254 11.9463 31.7313 21
682 2 9.62396 14.4999 31.2295 23
683 2 9.86531 28.3327 23.8086 25
684 2 10.6377 11.5864 20.7102 21
685 2 11.3821 0.379342 27.0133 22
686 2 18.036 8.15898 23.4233 20
687 2 15.7602 14.6639 26.7095 23
688 2 23.2043 26.248 25.9628 21
689 2 8.35193 30.9171 29.5282 24
690 2 16.5619 3.59809 26.223 24
691 2 6.38742 11.1636 18.1302 24
692 2 17.9859 29.204 26.2348 24
693 2 14.8675 0.703452 31.537 24
694 2 13.173 3.28959 31.7711 21
695 2 12.6714 11.292 23.3784 21
696 2 12.8751 5.47787 29.0646 26
697 2 19.9505 3.55548 20.4911 22
698 2 24.8878 8.21387 23.6299 23
699 2 2.98692 9.38801 15.9113 21
700 2 11.6014 17.8208 15.7973 23
701 2 13.3926 33.745 29.1941 23
702 2 18.0424 7.76053 28.7213 21
703 2 2.83472 16.718 18.676 22
704 2 24.7547 0.413778 26.3464 25
705 2 14.8414 6.19136 31.4315 26
706 2 14.5368 7.95777 28.5175 23
707 2 12.628 9.20379 26.5366 19
708 2 21.2569 11.8648 25.8155 23
709 2 18.1153 14.0821 18.5921 22
710 2 11.3383 23.2674 26.4832 22
711 2 9.69533 17.1719 13.2031 23
712 2 3.37563 20.5488 21.1462 22
713 2 7.74892 17.7617 20.9579 25
714 2 17.9995 23.5561 20.945 23
715 2 14.7409 17.4313 26.6427 21
716 2 19.7249 9.26682 15.4645 23
717 2 12.9054 11.3769 28.6079 22
718 2 12.525 15.2721 31.4231 24
719 2 9.36165 17.217 28.7502 23
720 2 14.2849 13.8512 29.3986 20
721 1 -0.131428 22.8226 1.09941 25
722 1 1.37522 19.889 1.13503 26
723 1 1.40371 18.1461 3.33285 21
724 1 0.402707 22.4998 6.27388 22
725 1 5.23352 23.8227 13.8374 27
726 1 1.54187 23.4719 3.37702 21
727 1 3.3255 22.929 6.14961 22
728 1 31.6652 25.6972 11.3139 21
729 1 28.1572 25.4887 11.0456 21
730 1 29.8092 28.0848 16.8054 24
731 1 3.4183 26.3594 19.4784 25
732 1 28.102 31.0168 16.0479 23
733 1 32.9754 28.2438 0.833214 22
734 1 1.77373 25.4252 0.834878 23
735 1 31.3761 25.5102 6.24349 22
736 1 0.0324256 26.2347 3.79786 21
737 1 29.803 28.595 5.98554 22
738 1 1.75344 29.393 3.62199 26
739 1 4.97633 19.9226 11.4414 24
740 1 31.5654 29.4699 8.62447 23
741 1 24.9613 29.4963 8.62916 24
742 1 32.8709 34.1928 11.4144 22
743 1 1.24345 17.7721 19.0061 22
744 1 1.58109 19.7648 21.3344 22
745 1 -0.00569845 34.1738 0.851992 23
746 1 1.72279 31.282 62.9705 24
747 1 3.09863 28.1436 6.50689 22
748 1 1.75982 0.746051 3.57085 23
749 1 1.72073 29.5064 9.00333 23
750 1 -0.0183309 32.1464 3.40432 24
751 1 26.5045 26.296 8.5636 24
752 1 27.9907 29.3815 8.56598 24
753 1 32.9387 33.9777 16.7671 25
754 1 1.65085 6.54193 8.56975 22
755 1 2.96961 32.1688 14.3071 23
756 1 4.62984 0.553675 8.87117 23
757 1 3.13939 22.5804 1.13138 22
758 1 4.90089 20.0568 0.8235 24
759 1 4.36991 18.3441 3.64209 21
760 1 0.124593 26.4288 8.65878 20
761 1 4.74761 23.4317 3.93477 25
762 1 2.95593 20.7244 3.62353 24
763 1 31.2625 23.9332 8.86499 22
764 1 32.6399 21.0568 3.5822 22
765 1 3.32878 22.6994 11.354 23
766 1 33.089 28.6055 11.1947 23
767 1 5.11855 29.4973 14.3465 23
768 1 11.353 18.0431 13.917 23
769 1 3.02937 28.4371 1.2604 23
770 1 4.80316 25.2518 1.47084 24
771 1 3.21023 26.7844 3.845 24
772 1 6.56989 28.424 6.23893 23
773 1 9.71695 28.3231 6.25851 22
774 1 6.57691 22.8822 11.3563 23
775 1 1.80684 23.6246 13.8767 23
776 1 1.73197 31.5212 6.52456 22
777 1 3.2724 28.363 16.7209 25
778 1 11.1988 25.7521 11.3745 23
779 1 8.01103 25.6876 11.6618 25
780 1 11.5855 31.216 21.6533 24
781 1 3.37206 34.5355 0.709091 21
782 1 4.83168 31.2941 0.969843 26
783 1 5.16013 29.561 4.01804 25
784 1 2.93534 32.1434 3.47604 22
785 1 3.39366 31.8812 9.19966 22
786 1 11.3556 31.3433 5.8077 21
787 1 -0.293935 32.3861 9.26754 25
788 1 31.6913 31.2477 6.22477 24
789 1 32.9828 11.6208 11.4588 22
790 1 2.92175 34.1237 11.7203 23
791 1 4.76221 29.6266 9.21883 23
792 1 1.46142 1.16783 14.0885 24
793 1 6.21241 23.3335 1.38142 23
794 1 8.19916 19.3758 1.13327 22
795 1 9.72842 20.8105 3.61235 23
796 1 6.5294 16.9816 6.30311 23
797 1 5.00488 24.1389 8.69434 22
798 1 6.67018 16.9833 63.0744 20
799 1 6.38549 21.0262 8.81562 24
800 1 6.79073 -0.103932 11.2572 22
801 1 10.0361 23.2047 11.4057 23
802 1 31.0679 17.9874 8.4097 20
803 1 32.7786 11.2998 16.2278 24
804 1 8.27483 7.89055 16.4866 23
805 1 6.40855 28.5225 1.33287 24
806 1 8.09029 25.6893 0.927695 22
807 1 8.0628 17.7228 3.71252 24
808 1 11.3879 23.5922 3.54404 23
809 1 12.6071 28.1161 6.46476 23
810 1 6.46505 26.7647 3.37306 24
811 1 1.66486 25.7307 6.32118 23
812 1 3.60124 26.5116 9.03679 25
813 1 1.59848 29.1035 19.249 23
814 1 5.13795 25.6481 6.22675 24
815 1 11.4042 19.7511 11.0996 22
816 1 8.20898 23.7372 13.9841 24
817 1 6.4408 34.1627 1.08548 23
818 1 8.06636 31.5046 62.9387 22
819 1 8.48705 29.3761 3.33399 24
820 1 6.33401 31.9909 3.75813 23
821 1 6.60142 3.22709 8.72929 23
822 1 4.87136 31.5481 11.8459 25
823 1 4.84516 25.6243 11.4594 22
824 1 8.13283 25.4927 6.20844 23
825 1 8.27768 6.32354 8.64989 24
826 1 6.67693 32.3551 14.2183 21
827 1 8.21421 0.807458 8.87988 24
828 1 4.75603 2.36718 11.4297 21
829 1 8.47757 21.5273 1.47878 19
830 1 11.1667 19.6333 0.655717 21
831 1 15.1262 19.6784 6.11011 24
832 1 12.8703 20.8773 3.30979 22
833 1 11.5806 18.1412 8.68089 22
834 1 11.6849 19.9441 5.996 24
835 1 14.7371 17.729 8.70664 23
836 1 9.39748 16.7047 11.0408 22
837 1 6.63568 28.5772 11.4572 22
838 1 6.6016 26.6546 9.31031 24
839 1 11.1986 8.3685 11.2493 22
840 1 8.41104 29.7235 14.1354 21
841 1 9.84297 28.6018 1.08487 25
842 1 10.8359 24.9077 1.21925 24
843 1 9.76253 22.5931 6.05736 24
844 1 9.89919 26.5716 3.55254 26
845 1 8.18845 31.4336 11.4297 21
846 1 14.2988 31.1348 6.11526 22
847 1 16.5825 20.5412 2.77615 21
848 1 13.1306 26.3757 8.65219 23
849 1 9.80494 28.4574 11.7836 24
850 1 11.7983 29.5665 13.8143 23
851 1 8.20272 17.9557 8.60205 21
852 1 19.2779 28.1889 21.6912 22
853 1 10.2075 34.0112 0.833824 22
854 1 11.5434 31.021 0.673413 24
855 1 16.734 26.4303 8.64687 22
856 1 9.70083 32.0695 3.51044 25
857 1 9.45489 3.40557 3.51725 22
858 1 17.8604 2.40999 5.76821 23
859 1 5.1602 30.9055 6.41819 25
860 1 13.2958 32.2178 14.0953 25
861 1 11.1274 31.4898 11.4397 21
862 1 13.2674 -0.108371 11.6561 25
863 1 10.1273 33.9814 16.7711 22
864 1 9.77754 32.5449 13.9455 23
865 1 13.0878 22.8051 0.824336 20
866 1 14.1712 19.6759 0.456604 22
867 1 13.0872 14.999 3.28421 21
868 1 16.4353 16.7343 5.74632 22
869 1 13.0492 22.9132 6.17264 23
870 1 14.7313 25.6949 6.119 21
871 1 13.3529 20.5855 9.06146 24
872 1 6.80289 22.7359 6.37856 25
873 1 19.5892 26.5424 18.8907 24
874 1 14.7769 25.7069 11.0234 23
875 1 16.5172 14.9629 8.52056 24
876 1 16.3022 22.6168 11.1918 21
877 1 13.2093 28.4138 0.94084 24
878 1 14.1838 25.7115 1.18597 22
879 1 11.4435 25.5148 6.10252 23
880 1 13.0332 26.7491 3.58764 23
881 1 14.7744 29.1121 8.65116 22
882 1 11.6038 29.7688 9.16074 26
883 1 16.8148 20.7879 8.33175 21
884 1 8.31309 23.7054 3.51067 26
885 1 16.7549 33.9188 11.1635 23
886 1 21.469 29.0954 19.0955 23
887 1 24.7466 25.3326 16.4484 24
888 1 13.2786 22.9202 11.5991 23
889 1 13.4184 33.8995 0.7496 21
890 1 15.1045 31.2074 0.888497 24
891 1 11.556 29.2474 3.62544 24
892 1 9.62051 32.2603 8.9631 23
893 1 9.99824 -0.156854 6.31917 24
894 1 16.3979 28.0824 11.3306 22
895 1 13.1988 5.23093 11.2222 23
896 1 13.5526 33.9304 6.02713 24
897 1 16.5976 33.7033 16.5558 20
898 1 9.70263 3.14112 13.7807 23
899 1 8.48079 23.8424 8.95192 24
900 1 11.2925 0.0900154 19.7103 24
901 2 31.5337 19.8866 7.83351 23
902 2 26.2019 20.5015 11.1787 21
903 2 25.1003 20.443 3.02224 21
904 2 32.6078 21.06 5.53049 24
905 2 6.5782 20.6756 5.72409 24
906 2 4.46217 18.2306 10.972 20
907 2 24.6533 23.7073 10.6489 22
908 2 31.4185 25.946 8.3295 21
909 2 31.4685 23.4232 15.5671 25
910 2 27.7252 25.625 23.6874 21
911 2 6.1637 22.3906 23.9257 23