ITEM: TIMESTEP
183000
ITEM: NUMBER OF ATOMS
5760
ITEM: BOX BOUNDS pp pp pp
-0.1569717334 32.9569717334
-0.1301708138 34.2701708138
0.4841725885 63.1158274115
ITEM: ATOMS id type x y z Coordination
1 1 32.6954 5.24776 0.687182 22
2 1 1.25852 2.5295 0.795183 22
3 1 4.8433 0.777263 3.38077 22
4 1 29.7337 11.0166 5.89246 21
5 1 32.9218 9.19518 8.77251 24
6 1 31.4599 2.36931 6.34795 23
7 1 3.21517 3.49848 8.76268 21
8 1 3.14589 3.72893 2.89228 23
9 1 0.263077 9.21738 13.7876 23
10 1 6.59634 -0.325459 5.97719 24
11 1 4.82695 8.21232 5.89359 23
12 1 4.30307 6.93736 14.2798 22
13 1 33.1756 11.1906 1.18424 25
14 1 1.49325 8.24076 1.18448 24
15 1 2.98425 5.55266 6.24735 24
16 1 -0.129926 11.0164 6.13459 23
17 1 27.5683 11.9516 8.48855 23
18 1 32.7585 9.40013 3.22388 24
19 1 3.23469 15.1247 3.01021 20
20 1 26.4597 9.66803 13.9162 23
21 1 1.19431 13.9092 11.1654 24
22 1 32.9389 15.1927 8.66591 23
23 1 31.3272 17.5121 24.1295 23
24 1 31.4615 8.56311 11.2868 22
25 1 32.6337 16.722 0.55762 21
26 1 1.45118 14.1255 0.994123 23
27 1 1.52836 12.2617 3.50256 25
28 1 -0.288656 15.3304 3.53973 23
29 1 31.0264 18.0637 3.38247 23
30 1 31.128 14.0384 5.88813 22
31 1 4.5528 12.0934 8.87509 23
32 1 2.73525 17.122 5.93698 22
33 1 9.82634 28.1098 16.9109 25
34 1 3.05408 20.5492 8.32491 18
35 1 1.43265 13.9488 5.93646 22
36 1 3.32843 14.9009 18.7961 22
37 1 3.25151 5.00969 0.753723 22
38 1 4.56323 2.3027 0.735434 24
39 1 8.03037 0.671899 3.51712 25
40 1 5.89893 5.21225 5.91009 22
41 1 1.33551 2.78019 6.14761 21
42 1 3.09643 0.217597 6.32678 22
43 1 8.00128 2.65741 5.97699 24
44 1 4.6375 6.37263 8.93275 25
45 1 3.23427 11.0754 16.5659 24
46 1 28.1723 6.45843 19.0522 26
47 1 4.86418 8.67148 11.419 24
48 1 1.14417 2.47122 16.3427 23
49 1 3.25722 11.1391 0.461151 20
50 1 4.6261 8.39113 0.739456 22
51 1 2.83599 9.43838 3.2995 23
52 1 4.5508 2.60729 6.2076 23
53 1 9.76587 5.42996 6.08762 22
54 1 1.29362 8.18318 5.89264 25
55 1 9.74645 9.23138 8.95515 24
56 1 1.76964 17.9208 8.58597 23
57 1 6.16059 9.1622 8.42586 23
58 1 11.1483 6.53782 13.8928 23
59 1 -0.369101 3.4619 13.8034 23
60 1 8.13985 6.64196 14.0429 21
61 1 3.10191 17.1672 0.71056 21
62 1 4.77654 14.1985 0.361369 22
63 1 3.1548 10.8609 5.82909 23
64 1 4.92649 12.2956 3.29211 23
65 1 6.26135 11.3504 5.94961 22
66 1 4.75998 14.3646 5.80798 23
67 1 8.38003 14.0548 10.9753 22
68 1 8.24469 17.4778 13.9899 21
69 1 6.68993 20.9135 3.37602 22
70 1 11.4256 7.85618 16.7711 21
71 1 6.24092 9.19727 13.6745 21
72 1 3.19222 14.7085 13.5118 22
73 1 6.1673 4.90058 1.05826 23
74 1 8.08189 2.65124 0.540415 22
75 1 6.54366 3.26603 3.71779 23
76 1 4.50971 6.77108 3.11457 21
77 1 9.60052 11.107 11.2801 25
78 1 8.03479 31.4188 6.10647 24
79 1 11.1761 2.21582 11.4625 23
80 1 6.34081 3.9102 14.1849 23
81 1 12.655 16.7344 10.9184 22
82 1 6.71734 5.68792 16.6203 21
83 1 5.20711 0.818609 14.4013 23
84 1 1.14649 13.9174 16.5008 21
85 1 6.51882 11.5286 0.771934 23
86 1 8.10599 8.15614 0.659004 21
87 1 8.21015 5.85788 3.84122 22
88 1 6.36305 9.78834 3.33657 21
89 1 14.5334 6.21569 3.66762 24
90 1 14.8337 2.60194 6.31415 25
91 1 11.7283 12.2724 8.61812 24
92 1 11.5698 8.39316 6.24199 23
93 1 8.03171 19.83 11.3872 23
94 1 3.25162 5.55752 11.4092 23
95 1 5.22164 8.02156 16.5183 23
96 1 3.14696 11.2328 11.1889 24
97 1 6.79592 15.2343 2.97629 22
98 1 8.23056 13.5077 63.2759 22
99 1 8.08334 12.4504 3.48481 24
100 1 13.0082 9.07501 8.69371 23
101 1 4.63609 19.692 5.39376 22
102 1 11.4012 17.9367 3.25033 21
103 1 11.1377 12.4571 3.3427 23
104 1 9.97368 15.2706 3.29501 23
105 1 7.9872 19.9849 5.95135 21
106 1 9.8827 9.31314 14.4814 24
107 1 12.8269 9.49874 3.62399 24
108 1 16.153 14.4436 13.6071 25
109 1 9.75173 5.62805 1.09417 22
110 1 11.2183 2.63954 0.883768 25
111 1 6.48901 32.2921 8.99718 24
112 1 14.6163 5.95431 8.74363 20
113 1 3.21314 3.48462 13.7025 21
114 1 11.4827 3.07324 6.00418 25
115 1 16.404 4.15048 13.8155 22
116 1 16.2434 5.45906 11.162 22
117 1 6.78183 3.47299 19.0916 20
118 1 16.1537 33.7983 6.28236 25
119 1 19.751 3.48745 18.7148 22
120 1 12.9281 3.15684 8.84415 24
121 1 9.91984 10.7726 0.353345 21
122 1 11.3459 6.48605 3.65018 21
123 1 12.9996 3.58607 3.58532 24
124 1 9.80175 9.32844 3.72935 25
125 1 17.7603 8.61555 5.99477 23
126 1 4.82116 12.1173 13.7462 23
127 1 11.6382 2.3844 16.6734 25
128 1 13.0068 5.71578 6.07962 22
129 1 13.2419 5.46134 16.2039 21
130 1 11.6362 8.30502 21.9806 24
131 1 17.8338 6.57938 13.7256 25
132 1 19.8591 9.4034 13.5437 22
133 1 9.58029 16.9197 0.457276 23
134 1 11.4777 13.9288 62.8677 22
135 1 14.4081 12.3858 3.55547 23
136 1 9.7032 17.0272 5.84993 22
137 1 13.2881 16.9212 5.59334 20
138 1 13.2726 15.1166 7.98226 19
139 1 14.8323 13.7817 6.46221 24
140 1 10.0134 11.1124 6.2026 22
141 1 8.13059 14.3247 5.97572 23
142 1 11.3231 13.7456 11.3338 21
143 1 7.886 12.1047 8.47034 22
144 1 12.9586 20.8171 14.1297 23
145 1 13.2758 5.34989 62.8033 21
146 1 14.4566 2.41508 0.75687 23
147 1 14.5603 0.435893 3.31269 24
148 1 11.5538 0.788287 3.54858 22
149 1 16.3003 3.09322 3.37859 22
150 1 14.5224 29.1945 3.18606 24
151 1 16.3243 3.35161 9.00544 25
152 1 14.9703 2.45703 11.5303 21
153 1 13.0791 10.9825 6.22788 25
154 1 22.8139 34.1752 10.89 21
155 1 11.1515 0.484046 13.823 23
156 1 19.4116 3.63241 13.7898 21
157 1 13.0001 11.0851 0.82478 22
158 1 14.8118 8.20367 1.01917 24
159 1 17.4649 6.50303 3.40573 24
160 1 11.5983 7.90512 1.07759 23
161 1 16.305 9.074 8.44407 24
162 1 18.1794 6.33249 8.61645 22
163 1 23.0846 8.55821 8.61446 24
164 1 14.8963 8.1298 6.18263 23
165 1 9.75473 5.47617 11.0727 20
166 1 29.4548 33.8817 11.2235 23
167 1 17.9835 8.38577 11.081 23
168 1 15.116 11.8981 8.73367 22
169 1 13.0924 16.9773 0.769783 24
170 1 14.8714 14.2299 0.818253 22
171 1 16.7667 14.6431 19.0342 22
172 1 17.9603 11.886 3.24071 23
173 1 9.64948 15.1682 8.33152 23
174 1 16.4651 14.9855 3.31445 23
175 1 17.8855 19.2809 10.9364 25
176 1 11.3933 13.8834 6.04186 21
177 1 7.9865 8.83057 6.06956 20
178 1 9.54788 20.7505 8.3458 21
179 1 11.3547 6.10838 8.48111 23
180 1 11.1248 0.74088 8.63775 21
181 2 3.00248 34.2848 2.72464 22
182 2 29.7651 3.201 5.87366 21
183 2 31.2 6.66451 5.61101 25
184 2 2.73759 5.55889 8.34084 20
185 2 30.89 0.50951 16.2858 25
186 2 1.51987 12.3016 10.3692 26
187 2 5.00143 14.1719 13.1429 23
188 2 0.152787 34.1471 3.16624 22
189 2 32.5083 26.3419 10.7334 21
190 2 5.07169 31.605 8.17209 21
191 2 29.8308 11.3211 13.2732 23
192 2 31.224 31.0575 12.9149 23
193 2 1.13013 8.36654 3.11243 22
194 2 29.805 5.36526 2.88644 24
195 2 1.6807 14.1724 3.05989 20
196 2 3.33157 11.3358 2.44604 25
197 2 6.88715 9.05677 16.6335 21
198 2 31.4819 2.53315 8.17599 26
199 2 33.0647 23.085 8.41099 21
200 2 5.97805 5.57276 7.90438 22
201 2 1.05138 30.9837 18.7718 20
202 2 3.08246 9.06774 21.0453 23
203 2 31.0568 17.8609 10.7849 23
204 2 4.79729 6.48675 10.9659 24
205 2 9.63639 9.25412 10.9071 19
206 2 -0.202825 15.1315 5.47888 22
207 2 29.7318 16.6096 2.58458 23
208 2 32.4822 3.17226 15.6435 21
209 2 4.87941 14.1673 2.5994 25
210 2 3.20193 16.6889 8.16965 23
211 2 29.3682 26.5602 5.40893 23
212 2 10.9967 23.6715 5.68828 21
213 2 6.508 22.4589 18.5521 25
214 2 8.19226 23.788 21.2841 22
215 2 7.97727 18.0018 10.8035 23
216 2 9.64672 14.8109 20.9834 26
217 2 15.9379 33.8243 8.60322 22
218 2 8.14313 31.1254 8.08104 24
219 2 26.0406 8.88988 5.41889 22
220 2 32.9562 31.9247 5.88828 20
221 2 1.61849 25.8085 8.3587 22
222 2 26.4984 14.7736 20.9603 23
223 2 4.5094 6.05739 5.13324 24
224 2 3.21696 3.54958 10.8055 23
225 2 29.8775 26.1721 15.7498 23
226 2 11.2242 0.605493 21.3318 22
227 2 31.1009 0.909239 11.2205 20
228 2 8.30848 0.480134 16.0023 23
229 2 1.33535 6.17713 5.66929 20
230 2 1.51902 2.75454 8.36529 24
231 2 31.2658 17.8233 5.45843 23
232 2 8.1016 8.67244 2.69608 23
233 2 3.0443 10.8939 7.73986 25
234 2 1.54224 8.46354 7.66083 23
235 2 8.00544 17.8713 5.52346 24
236 2 11.4214 11.9395 10.6533 22
237 2 3.28942 32.5068 10.5689 23
238 2 4.7309 6.13562 16.2099 23
239 2 26.3983 8.96467 10.7828 23
240 2 8.07354 6.55039 10.6778 26
241 2 6.54124 14.9829 4.87955 26
242 2 7.66253 23.5796 5.24858 23
243 2 1.12775 19.9947 2.43615 21
244 2 3.23597 17.269 2.78659 20
245 2 4.67788 13.8631 7.78949 23
246 2 1.29287 14.1087 7.95301 24
247 2 -0.0842804 27.3164 5.28776 23
248 2 8.10685 12.4235 5.4401 26
249 2 9.7461 11.5192 18.9563 23
250 2 9.57203 5.45428 13.1146 24
251 2 2.77398 20.3898 10.4038 22
252 2 13.107 8.93661 16.1148 23
253 2 8.37968 0.844281 5.3866 23
254 2 4.63078 12.1352 5.33607 23
255 2 1.24194 2.95805 2.65745 25
256 2 9.78621 0.0773855 3.34648 19
257 2 29.8457 5.7919 18.6592 23
258 2 3.46857 9.41877 10.6164 22
259 2 9.32049 3.79725 5.12288 24
260 2 5.01187 0.675302 10.5837 25
261 2 6.56318 33.835 18.7077 22
262 2 29.5322 3.74202 16.2435 22
263 2 1.36915 6.40302 15.7728 24
264 2 8.03353 8.64974 13.9827 23
265 2 3.2268 11.5081 13.0246 26
266 2 6.62701 11.4526 3.05071 21
267 2 4.87055 11.9652 62.8523 22
268 2 13.2044 14.8212 5.42364 23
269 2 4.95028 7.78116 18.9273 18
270 2 8.26156 6.90593 5.56878 21
271 2 9.55903 -0.22179 8.10229 23
272 2 6.59602 5.26188 2.81463 24
273 2 14.5347 13.4788 23.4653 25
274 2 9.69234 5.71953 8.03489 22
275 2 13.3092 16.4844 13.9239 20
276 2 11.4594 6.55133 21.273 24
277 2 9.53169 10.9192 2.97877 22
278 2 1.76467 6.69718 11.3364 23
279 2 4.4355 20.0682 3.4181 19
280 2 6.56454 17.2616 2.79346 23
281 2 9.68464 5.50159 23.8725 23
282 2 8.10257 8.5607 8.40141 20
283 2 3.27963 20.9606 5.93257 19
284 2 11.5662 8.20879 2.957 21
285 2 31.5375 14.4324 18.3657 22
286 2 1.78755 12.0612 15.8505 24
287 2 6.47351 17.2836 7.72125 24
288 2 4.92259 23.1571 21.2618 25
289 2 14.1797 2.5592 13.3896 22
290 2 7.89553 2.33382 2.67834 24
291 2 9.8573 5.35051 3.04365 21
292 2 13.2351 3.76393 5.68454 23
293 2 11.1827 2.45174 13.3616 21
294 2 9.94072 3.66994 10.751 22
295 2 12.7981 2.89249 10.8018 21
296 2 8.33133 8.61195 19.3137 21
297 2 10.0332 34.005 18.6435 22
298 2 6.42611 34.1129 13.3258 24
299 2 1.56553 23.3432 15.7896 23
300 2 14.5339 7.83014 7.87825 24
301 2 12.8881 33.967 2.58457 23
302 2 16.1481 5.88949 13.151 24
303 2 9.81455 9.39685 5.69739 21
304 2 11.4809 11.9162 5.56105 22
305 2 7.92189 3.12967 7.9044 22
306 2 4.62672 8.16269 7.69019 24
307 2 6.30619 9.57645 5.34591 21
308 2 7.88672 14.4023 8.08812 21
309 2 6.66123 5.97501 18.6689 22
310 2 14.765 2.53581 8.27241 22
311 2 12.8349 3.59003 15.8883 20
312 2 18.1305 8.51904 13.0559 24
313 2 12.9189 11.0593 2.73873 23
314 2 9.77454 15.0053 5.49606 23
315 2 13.2112 17.3795 3.37696 22
316 2 11.5167 14.0657 2.89727 23
317 2 4.57364 8.59644 13.1467 25
318 2 10.0834 15.2194 10.5821 20
319 2 7.85972 20.041 7.80173 20
320 2 3.07308 14.7063 10.682 22
321 2 18.0915 6.35963 21.4069 23
322 2 4.86599 18.03 20.8336 25
323 2 9.56259 16.7877 18.5094 24
324 2 24.986 12.2338 15.2572 23
325 2 16.2676 32.3407 4.79732 23
326 2 11.4692 29.6153 10.5723 24
327 2 12.785 5.45417 3.23979 22
328 2 14.2933 2.64571 2.56292 23
329 2 9.57896 31.9449 21.0925 25
330 2 11.5106 6.14255 15.7587 25
331 2 6.12269 6.00573 13.5532 21
332 2 12.6873 33.9925 13.496 21
333 2 19.9787 -0.0594027 23.8196 21
334 2 5.04642 0.283578 20.9461 21
335 2 19.1385 3.72249 16.0846 20
336 2 11.6659 25.4324 23.7938 23
337 2 19.7615 32.1676 15.7554 24
338 2 14.939 0.648374 11.1171 22
339 2 21.2636 12.118 5.43236 24
340 2 21.3672 6.26932 5.42182 23
341 2 14.4471 6.48444 10.5293 22
342 2 11.2955 6.52 5.65409 24
343 2 19.4104 9.52147 5.12085 26
344 2 19.6731 9.36306 10.6298 22
345 2 14.7413 8.03739 18.4123 23
346 2 19.6217 5.07886 8.22293 23
347 2 11.2659 7.90979 18.7361 21
348 2 16.3039 5.24922 8.38283 22
349 2 17.9996 13.7559 13.0114 22
350 2 9.51045 17.2084 7.74724 23
351 2 14.5603 14.1882 2.72031 23
352 2 16.2331 11.2813 3.61828 23
353 2 18.2833 2.53229 18.5034 21
354 2 14.2983 12.2774 5.55347 23
355 2 6.4882 9.51406 10.5389 25
356 2 10.9375 13.7766 7.89034 21
357 2 11.4522 6.42737 10.5508 23
358 2 14.747 12.0726 15.8742 24
359 2 11.7985 2.62484 18.8052 21
360 2 8.09388 12.2033 16.052 23
361 1 1.28352 0.604364 18.8693 20
362 1 1.77904 8.76005 11.1186 23
363 1 29.7645 3.91233 19.0229 24
364 1 21.4383 2.40518 21.7066 24
365 1 28.0971 1.16246 18.8109 25
366 1 3.29115 3.51311 24.2885 25
367 1 1.38304 2.55627 26.8086 20
368 1 31.0741 1.05153 24.3572 24
369 1 -0.462793 9.54092 24.2036 21
370 1 31.1074 8.48983 21.8342 23
371 1 1.35413 6.87306 29.646 21
372 1 33.0024 3.78954 29.173 19
373 1 9.94813 26.0385 19.0177 20
374 1 6.6281 16.7787 11.134 24
375 1 4.39976 2.72049 27.0717 23
376 1 1.68329 12.3021 14.0243 23
377 1 1.81939 8.64292 26.9895 20
378 1 26.3875 3.83236 24.6759 23
379 1 31.3097 8.33079 16.3189 23
380 1 3.10523 20.809 24.4557 24
381 1 1.67463 18.1079 24.2846 23
382 1 3.22973 9.36614 29.9824 23
383 1 -0.234937 9.46392 29.7277 26
384 1 2.92151 5.48796 26.3895 21
385 1 11.4933 13.7594 21.9164 25
386 1 4.67594 19.8645 21.7563 24
387 1 1.32636 6.62533 24.1599 22
388 1 29.5655 5.68582 21.4662 21
389 1 31.1492 18.1217 18.8976 20
390 1 24.7105 0.594175 19.1443 24
391 1 28.2762 17.8902 19.5376 23
392 1 28.2905 14.4342 21.8601 23
393 1 29.6834 17.1727 21.6911 21
394 1 1.64738 12.1485 29.4141 24
395 1 3.45098 10.6575 21.9446 23
396 1 4.73563 17.4617 29.7611 24
397 1 27.8847 12.361 18.898 22
398 1 1.37711 31.2367 21.6177 23
399 1 29.5037 28.0749 26.7472 22
400 1 32.5179 32.1766 19.4259 24
401 1 1.67696 11.9798 19.0985 23
402 1 1.58328 8.3021 21.6169 23
403 1 6.41424 9.59341 24.2458 23
404 1 6.44779 33.9316 16.5699 20
405 1 21.0643 12.196 19.0706 22
406 1 6.67831 3.68622 24.7494 23
407 1 3.125 3.42306 29.4019 22
408 1 9.70475 3.57946 29.5098 23
409 1 6.31335 15.1839 8.54165 22
410 1 -0.265184 15.428 19.1597 22
411 1 29.4471 5.63318 16.3329 24
412 1 -0.100311 9.4615 18.9828 23
413 1 28.1664 23.4822 19.0924 24
414 1 6.66625 5.34733 22.0254 19
415 1 1.63818 2.22958 21.71 21
416 1 6.28464 16.8526 21.8523 25
417 1 29.7518 20.907 19.1934 24
418 1 1.64606 12.1942 24.649 24
419 1 6.59726 9.42561 29.472 24
420 1 4.30158 12.3597 24.3813 24
421 1 4.70499 17.7884 18.9281 22
422 1 8.35276 12.0378 13.8361 23
423 1 1.19328 6.03938 19.1817 22
424 1 7.94717 8.46273 10.6189 18
425 1 9.75196 9.19724 24.3439 23
426 1 14.9588 13.925 16.6847 24
427 1 8.09765 14.1055 21.8005 24
428 1 5.02276 14.0306 26.7116 24
429 1 6.26183 20.6142 29.8983 23
430 1 3.30128 20.4178 18.9015 23
431 1 3.05829 17.1626 26.6922 21
432 1 3.18428 14.9778 29.535 25
433 1 8.04349 0.633417 13.9249 23
434 1 3.22025 -0.15375 16.0828 19
435 1 16.5436 3.35408 24.563 25
436 1 10.878 0.29714 24.2214 22
437 1 4.62341 5.87826 18.5225 21
438 1 14.4344 0.375147 24.4255 23
439 1 8.22015 2.65149 26.6853 21
440 1 14.3115 6.39671 29.7095 24
441 1 14.7191 11.6329 23.9458 20
442 1 9.67229 3.49002 24.1341 21
443 1 8.10431 0.522873 29.3593 24
444 1 4.827 6.56542 24.3826 21
445 1 4.92008 12.0346 19.5822 23
446 1 10.1168 9.27487 19.4606 23
447 1 14.9037 7.93726 16.3105 22
448 1 13.138 10.8439 21.5583 24
449 1 11.6889 8.20247 27.1289 23
450 1 11.48 6.26442 24.4267 21
451 1 14.6072 6.20996 24.2895 21
452 1 23.1713 14.7386 19.1006 23
453 1 3.44539 11.1287 27.0961 22
454 1 8.07452 2.29404 21.8203 21
455 1 11.5139 12.0798 29.7732 24
456 1 10.1968 11.1693 26.9213 21
457 1 1.75016 17.7324 13.5767 23
458 1 13.0463 11.0799 16.0399 22
459 1 32.9513 3.40477 19.0712 24
460 1 3.25879 16.8025 21.5508 25
461 1 -0.0762732 22.4069 16.6057 26
462 1 6.42932 9.30515 18.9818 21
463 1 8.27515 14.0465 26.7747 25
464 1 8.04933 17.8983 24.1917 22
465 1 4.77845 19.8058 26.9097 20
466 1 1.72988 14.1011 26.8393 24
467 1 9.73166 15.3562 29.6099 22
468 1 4.74328 12.1346 29.7393 24
469 1 1.52486 8.10955 16.2808 23
470 1 12.7534 -0.245848 21.7866 23
471 1 16.4397 3.54858 19.3068 24
472 1 19.857 34.0292 21.8338 22
473 1 16.0053 9.24112 19.0375 21
474 1 14.4217 31.3242 27.0459 22
475 1 7.9906 0.644843 19.1735 25
476 1 15.9512 32.0256 29.8469 25
477 1 6.40714 11.3356 26.8252 23
478 1 14.7502 0.631417 29.6912 23
479 1 11.5477 0.995086 29.327 22
480 1 7.62441 6.60472 29.8039 23
481 1 16.2141 9.23137 24.5341 21
482 1 18.2534 31.0154 21.6439 21
483 1 9.99719 5.1121 16.6659 26
484 1 4.61912 2.1819 21.2035 20
485 1 10.025 5.63537 21.9181 22
486 1 8.26036 8.48467 27.1728 22
487 1 18.1034 17.6206 24.3153 23
488 1 7.98795 6.83596 24.6414 22
489 1 13.5429 11.2983 27.0333 20
490 1 6.45205 11.3278 22.0089 23
491 1 11.1769 6.4579 29.7696 25
492 1 9.7961 9.37465 29.5018 21
493 1 21.1719 19.6849 16.5031 25
494 1 11.2552 19.5407 16.3945 21
495 1 13.2677 14.6421 13.9151 26
496 1 6.5951 11.0142 16.3344 22
497 1 14.6364 13.723 21.5742 24
498 1 14.897 19.5335 16.3169 22
499 1 13.5391 14.8963 29.6203 22
500 1 11.7423 11.7862 24.3743 24
501 1 8.07637 12.2867 24.4363 23
502 1 13.2537 9.03491 24.7434 24
503 1 6.37417 14.8323 29.7002 22
504 1 20.0979 11.2629 26.7848 21
505 1 12.6303 3.66414 14.0462 22
506 1 14.9031 31.1997 21.6827 21
507 1 7.64294 0.563716 24.2593 23
508 1 6.27903 31.9654 18.8359 23
509 1 14.7665 8.18328 21.8857 25
510 1 9.86125 33.7566 27.0818 23
511 1 16.7191 32.1514 19.0011 20
512 1 9.4619 5.36006 26.8873 23
513 1 18.0107 6.65819 29.3897 22
514 1 14.9022 2.19514 26.976 20
515 1 13.0742 34.1368 26.8636 23
516 1 13.0461 3.46087 29.2022 22
517 1 13.2338 11.0877 11.1889 23
518 1 18.1556 8.31291 15.7248 21
519 1 9.68128 33.9857 21.5834 24
520 1 14.9703 11.8457 19.1059 25
521 1 19.6299 8.6538 19.1645 22
522 1 19.4651 5.21363 27.2753 23
523 1 13.2956 5.29343 26.6921 22
524 1 13.0317 15.0038 19.3317 23
525 1 16.3018 20.4691 13.4772 23
526 1 16.4362 3.58036 29.3209 22
527 1 15.0525 13.7096 26.8051 23
528 1 16.9158 11.0589 26.8734 23
529 1 11.6925 12.0478 19.1095 21
530 1 16.0435 16.7479 11.2064 24
531 1 9.8379 11.4185 17.0676 25
532 1 18.3099 12.0749 24.3973 24
533 1 21.531 17.6435 19.2178 23
534 1 8.05933 12.465 19.5035 24
535 1 6.49221 16.9361 26.7593 24
536 1 17.7029 19.9076 27.0061 23
537 1 13.0398 16.695 27.0155 23
538 1 16.6412 11.0225 21.6419 22
539 1 14.7751 12.0596 29.3209 20
540 1 13.1808 16.71 16.4341 24
541 2 30.9978 31.3274 18.4181 22
542 2 4.93299 2.53938 24.3544 17
543 2 29.7559 11.3488 23.5106 25
544 2 6.49515 15.1362 21.1282 25
545 2 26.0609 3.60307 20.7296 24
546 2 31.0437 3.03118 29.4396 21
547 2 8.35474 13.7293 12.9282 26
548 2 31.5721 11.8244 20.85 22
549 2 1.64506 0.612506 31.7312 22
550 2 0.0840513 3.46568 31.7306 22
551 2 4.64148 0.730371 26.542 22
552 2 6.31572 5.57107 29.2094 22
553 2 19.352 5.42158 18.4674 22
554 2 6.34251 16.8615 23.6627 25
555 2 4.73085 14.4557 23.6433 24
556 2 2.09799 8.31279 14.1856 22
557 2 26.5313 11.3759 28.9043 25
558 2 2.84286 11.0825 23.5714 23
559 2 3.23583 17.3421 23.5032 24
560 2 1.19459 12.1535 20.9691 22
561 2 1.09909 6.46126 31.916 19
562 2 32.7771 9.70569 31.7307 23
563 2 1.31064 13.9122 28.9794 24
564 2 9.89286 9.33055 26.38 22
565 2 27.9509 14.2911 12.9535 23
566 2 1.5664 19.6083 12.8436 22
567 2 6.2236 20.933 15.7471 22
568 2 31.2891 17.9281 15.8061 24
569 2 29.5789 21.0066 15.8649 21
570 2 1.67417 19.9778 23.6323 24
571 2 31.3261 12.4132 15.6191 23
572 2 26.4878 20.3187 26.1313 23
573 2 1.59972 12.3432 31.449 24
574 2 32.8752 15.3559 31.5349 23
575 2 32.6343 16.9984 28.8113 22
576 2 5.05098 8.36155 29.5925 21
577 2 29.664 15.0652 15.6457 25
578 2 2.73685 5.25315 18.2613 21
579 2 4.79699 11.4791 15.5806 22
580 2 3.00229 32.3648 15.8697 22
581 2 4.55683 5.85043 27.1567 22
582 2 4.83465 12.2287 21.2891 23
583 2 28.2494 31.2497 23.6748 23
584 2 14.7979 0.409193 26.4592 23
585 2 4.87678 0.481104 31.5893 25
586 2 3.15588 3.0316 31.5646 20
587 2 1.40648 8.61076 23.8533 23
588 2 2.86021 33.9706 28.9515 25
589 2 13.3707 10.9591 18.7945 22
590 2 29.1581 17.0713 23.4953 23
591 2 3.39738 5.38118 13.6821 20
592 2 -0.172776 9.47858 15.7735 24
593 2 13.34 3.29639 26.275 23
594 2 4.81061 6.16638 21.7988 19
595 2 5.03324 23.4949 16.4266 22
596 2 22.9528 16.4949 13.0092 23
597 2 4.89533 6.56778 31.6011 22
598 2 2.7526 9.13792 31.725 22
599 2 3.3073 11.0933 29.0574 25
600 2 8.23519 12.0346 26.6536 24
601 2 11.4399 17.6312 21.0863 22
602 2 11.4535 12.0104 16.1094 21
603 2 2.78115 20.7345 26.5395 23
604 2 9.37581 22.2734 13.2847 22
605 2 3.58756 8.83089 26.1278 23
606 2 1.57984 12.1583 26.686 22
607 2 3.38743 14.9245 20.7775 23
608 2 6.43299 11.5235 29.1363 21
609 2 4.93241 12.1924 31.6944 25
610 2 3.07382 14.9166 31.5852 25
611 2 2.79337 16.9243 28.8622 22
612 2 6.36851 20.6731 27.2321 20
613 2 8.25489 29.3907 21.1639 22
614 2 16.6093 5.39412 19.0647 23
615 2 13.2364 8.82494 21.0573 23
616 2 1.35192 31.3949 23.8589 23
617 2 32.6847 32.1708 21.5615 21
618 2 -0.0375556 9.26396 26.3491 23
619 2 7.81381 31.2445 23.5314 25
620 2 5.67517 34.1161 23.9743 22
621 2 8.13093 0.723998 31.3291 24
622 2 6.60687 3.91024 31.7272 20
623 2 4.93691 2.58258 29.0123 22
624 2 9.72165 5.73706 28.6477 23
625 2 11.5899 8.19633 24.1068 25
626 2 8.30874 6.56302 21.7374 22
627 2 19.4772 20.4434 20.8379 22
628 2 18.6299 29.2784 21.1874 21
629 2 9.96619 11.346 28.9105 22
630 2 31.2932 8.69277 18.5792 23
631 2 8.17298 12.1051 21.5733 21
632 2 9.87449 3.74593 26.085 23
633 2 8.08632 6.55017 32.077 23
634 2 6.28182 9.24984 31.8383 24
635 2 1.31107 6.69851 26.7203 20
636 2 31.1733 6.39135 26.4938 21
637 2 9.77509 10.9813 13.3865 23
638 2 32.6069 22.7207 18.6835 23
639 2 31.2673 18.0137 20.7268 25
640 2 14.8431 11.7827 21.1848 22
641 2 12.1465 12.1522 26.0878 22
642 2 11.4827 14.2215 23.7558 24
643 2 16.7439 10.9948 23.6226 23
644 2 4.97776 13.7011 18.6248 23
645 2 8.28774 12.0854 31.7109 23
646 2 5.91096 15.1884 31.8428 20
647 2 6.6092 16.6288 28.737 23
648 2 4.8086 14.1277 28.6636 24
649 2 11.0385 29.2957 26.1682 24
650 2 15.9632 31.5852 25.9443 22
651 2 6.34555 32.217 15.8392 26
652 2 13.1436 14.8178 21.145 24
653 2 6.62433 3.55679 26.5274 22
654 2 11.5964 6.48657 26.4993 23
655 2 9.76957 22.4236 29.156 23
656 2 11.6497 0.436347 31.3464 22
657 2 9.67315 32.1207 31.3002 23
658 2 9.54686 3.27935 31.3322 23
659 2 16.016 5.45788 29.0186 22
660 2 13.1487 9.19561 31.7804 23
661 2 13.2917 3.55138 21.102 25
662 2 13.049 5.21009 23.7393 24
663 2 8.47972 6.17133 16.2634 24
664 2 4.83208 8.66176 23.7902 22
665 2 9.57866 32.4146 25.929 25
666 2 8.5322 2.48859 18.4029 21
667 2 9.80308 11.4512 24.2209 23
668 2 12.9773 14.9955 26.2608 25
669 2 11.1611 6.08666 31.6544 21
670 2 9.48661 9.12743 31.5023 24
671 2 8.46932 8.03505 29.0876 20
672 2 14.933 6.18798 26.2445 23
673 2 16.4891 16.808 29.4751 20
674 2 6.58021 20.5221 21.4579 23
675 2 11.554 13.9629 13.1202 25
676 2 20.0406 8.90044 21.0451 22
677 2 7.89488 14.164 28.7844 24
678 2 16.3915 14.929 15.2874 26
679 2 8.11936 14.1787 23.7161 24
680 2 21.2853 17.64 26.2659 23
681 2 11.195 12.0878 31.7305 22
682 2 10.0786 14.7572 31.4438 22
683 2 9.89074 28.3191 23.657 23
684 2 11.7047 12.0964 21.1908 24
685 2 11.1498 0.594144 26.219 24
686 2 18.2045 8.06729 24.3147 18
687 2 16.379 15.0126 26.2686 23
688 2 22.7983 26.2598 26.7195 23
689 2 7.7723 31.1961 28.8743 25
690 2 16.5335 3.36078 26.8993 22
691 2 6.63618 11.3968 18.5455 21
692 2 17.6512 29.3428 25.9753 21
693 2 14.8633 0.58897 31.8276 21
694 2 12.7465 3.25423 31.1892 23
695 2 13.1608 10.7243 23.3667 26
696 2 13.003 5.22343 28.8166 21
697 2 19.9106 3.16904 20.799 25
698 2 25.1563 8.42531 23.6751 22
699 2 3.51398 8.82406 16.2169 22
700 2 11.4969 17.6147 15.6332 25
701 2 12.9364 34.1628 28.8753 24
702 2 18.227 8.47365 28.999 22
703 2 2.83504 16.7557 18.3232 25
704 2 24.962 0.462651 26.2185 25
705 2 14.096 6.31533 31.6396 23
706 2 15.1728 7.8985 28.7974 24
707 2 13.4436 9.31508 26.7887 24
708 2 21.6105 12.3398 26.2589 24
709 2 18.2902 13.715 18.358 23
710 2 10.8241 23.6943 26.1924 22
711 2 10.0481 16.4232 12.9629 23
712 2 3.37221 20.544 20.7756 23
713 2 8.36917 17.5227 21.3998 23
714 2 18.1575 23.3828 21.0426 26
715 2 14.7114 17.5348 26.7449 20
716 2 19.7393 8.96378 15.3926 25
717 2 12.8286 11.0915 28.8399 24
718 2 13.1655 15.1685 31.445 24
719 2 9.87207 17.2638 29.2023 21
720 2 15.0188 13.8604 28.9392 24
721 1 33.1047 22.7919 0.895507 26
722 1 1.19138 19.8653 0.44021 19
723 1 1.49306 18.0605 3.24456 21
724 1 32.7287 22.9434 6.21993 22
725 1 4.88796 23.678 14.0687 24
726 1 1.62518 23.9501 3.81341 23
727 1 2.87176 22.8604 6.27819 20
728 1 30.8901 25.5022 11.1674 22
729 1 27.7037 25.4086 11.3503 25
730 1 29.4977 28.2896 16.4225 23
731 1 2.82118 25.8704 19.4214 23
732 1 27.601 31.3944 16.2028 22
733 1 -0.12507 28.1261 0.657432 24
734 1 1.53957 25.7032 0.966292 25
735 1 31.2594 25.7556 6.03566 23
736 1 32.9086 26.3864 3.55359 22
737 1 29.3649 28.4232 6.06432 24
738 1 1.66643 29.3769 3.30706 23
739 1 4.65623 19.8392 10.9247 20
740 1 30.8171 29.4854 8.71686 22
741 1 24.4861 29.0973 8.4418 20
742 1 32.7703 -0.0217346 10.8906 22
743 1 1.46499 18.059 19.0234 22
744 1 1.5887 19.8945 21.6682 24
745 1 -0.0629475 33.9393 1.14096 23
746 1 1.25959 31.0286 1.05912 23
747 1 3.05925 28.7376 5.50949 22
748 1 1.50403 1.10603 3.38962 21
749 1 1.33786 29.4929 8.79818 22
750 1 -0.00621212 31.5042 3.71485 21
751 1 26.4829 26.4434 8.60397 23
752 1 27.6577 29.2505 8.27417 21
753 1 32.8756 33.615 16.262 23
754 1 0.959339 6.62403 8.76616 22
755 1 2.95749 32.6526 14.0007 21
756 1 5.08263 0.62556 8.41845 21
757 1 3.04575 22.8359 0.775727 23
758 1 4.86753 20.0077 63.201 23
759 1 4.77442 18.0417 3.34009 22
760 1 33.0455 26.4182 8.92089 24
761 1 4.9351 23.1798 3.69626 23
762 1 2.89718 20.8729 2.67283 21
763 1 31.2858 23.7438 8.9728 23
764 1 32.7198 20.7496 3.25914 23
765 1 3.3646 22.4447 10.6397 21
766 1 32.979 28.2523 11.572 22
767 1 4.85732 29.529 13.7399 21
768 1 11.3417 17.3517 13.7779 22
769 1 3.28383 28.4759 0.581977 22
770 1 4.8173 25.4607 1.14519 24
771 1 2.96448 26.527 3.07826 21
772 1 6.88264 28.3958 5.62868 22
773 1 9.61111 28.3817 6.1143 24
774 1 6.46496 23.0965 11.0463 22
775 1 1.49 23.3307 13.7509 23
776 1 1.60607 31.4697 6.04841 22
777 1 3.20343 28.1677 16.6403 23
778 1 11.4972 25.3354 11.2305 24
779 1 8.29333 25.5969 11.2234 21
780 1 11.2854 31.197 21.6646 23
781 1 3.43516 33.7593 1.01396 24
782 1 4.69045 31.3805 0.601178 25
783 1 5.15208 29.4155 3.25916 21
784 1 3.26913 32.4224 3.312 23
785 1 2.88949 32.5387 8.5939 21
786 1 11.1085 31.195 6.01248 22
787 1 32.8511 32.0579 8.96646 24
788 1 31.2851 31.4482 6.02311 23
789 1 -0.0313071 11.3552 11.2828 22
790 1 3.40616 34.2276 11.2472 23
791 1 4.82386 29.6077 8.52735 22
792 1 1.31559 0.732098 13.5781 21
793 1 6.44142 22.6964 0.351545 19
794 1 8.03104 19.8025 0.860103 22
795 1 9.65932 20.8565 3.14935 22
796 1 6.2692 16.996 5.69248 21
797 1 4.95168 24.1363 8.70465 19
798 1 6.46072 16.9894 0.427787 22
799 1 6.5119 21.0181 8.83895 23
800 1 6.61317 34.1829 11.3054 24
801 1 9.49516 22.2277 11.2313 23
802 1 31.323 17.8511 8.74781 26
803 1 32.8035 11.4399 16.4215 23
804 1 8.65746 8.07767 17.2706 22
805 1 6.45724 28.2119 62.9166 20
806 1 8.06694 25.7877 0.900383 22
807 1 8.45785 17.7996 3.56533 23
808 1 11.7631 23.3638 3.83051 25
809 1 13.0601 28.6267 6.08339 23
810 1 6.13886 26.6394 3.82284 22
811 1 1.46789 25.9894 6.06237 22
812 1 3.13876 26.8864 8.74807 20
813 1 1.44467 28.9673 19.1089 24
814 1 4.80932 25.5409 6.38211 22
815 1 11.3238 19.8062 11.3046 24
816 1 7.93194 23.6454 13.9183 23
817 1 6.63549 34.0826 0.716579 21
818 1 7.84023 31.4708 62.9455 21
819 1 8.21601 29.5847 3.05091 22
820 1 6.32676 32.0714 3.19269 22
821 1 6.41244 3.70131 8.80677 23
822 1 4.78206 31.419 11.1639 19
823 1 4.76649 25.4719 11.373 23
824 1 8.36629 25.7761 6.38089 24
825 1 7.79559 6.62006 8.38207 22
826 1 6.52347 32.1688 13.7311 22
827 1 8.20479 1.02831 8.90601 23
828 1 4.90058 2.76593 11.2853 23
829 1 9.67224 22.5665 1.04694 26
830 1 11.0685 19.5044 0.659123 23
831 1 14.7236 19.8744 6.00787 24
832 1 12.7205 20.6848 3.16922 21
833 1 11.3566 18.0772 8.38476 23
834 1 11.3503 19.7874 5.53449 23
835 1 14.7848 17.8604 8.39416 25
836 1 9.69819 16.9942 11.1702 24
837 1 6.38216 28.088 11.4337 21
838 1 6.62591 27.103 8.98756 23
839 1 11.413 8.43862 11.3901 25
840 1 8.01552 29.2121 14.3003 24
841 1 9.57252 28.1815 0.68384 22
842 1 11.7311 25.373 0.821325 24
843 1 9.31787 22.8295 5.9506 20
844 1 9.81049 26.0236 3.58416 24
845 1 8.48212 30.9481 11.4914 22
846 1 14.899 31.4982 5.79632 23
847 1 16.3146 20.8689 3.51602 24
848 1 13.128 26.3072 8.3055 23
849 1 9.855 28.6642 11.6464 24
850 1 11.766 29.3565 13.8297 23
851 1 8.00006 18.0914 8.69896 25
852 1 20.0488 28.351 21.96 23
853 1 9.67383 34.3051 1.13846 24
854 1 11.1772 31.6076 0.850609 23
855 1 16.5781 26.6173 8.76009 24
856 1 9.69778 32.4719 3.46953 22
857 1 9.68829 3.28979 3.42527 22
858 1 18.1872 2.22909 5.72825 23
859 1 4.90964 31.6862 6.32694 25
860 1 13.5007 32.271 13.5202 23
861 1 11.7942 31.3447 11.2276 23
862 1 13.1867 -0.225211 11.3705 24
863 1 9.91509 33.6976 16.7132 24
864 1 9.68951 32.2226 13.8871 23
865 1 12.8527 22.4199 0.977164 24
866 1 14.7201 19.6975 0.606638 21
867 1 13.0836 15.0248 3.55905 24
868 1 16.5711 16.8811 5.87255 23
869 1 13.3782 22.6913 5.94499 22
870 1 14.7581 25.9149 6.16556 23
871 1 13.2334 21.1049 8.47145 22
872 1 6.46188 22.7318 6.30015 24
873 1 19.2459 26.5719 19.389 24
874 1 15.0198 25.145 11.0651 20
875 1 16.3954 14.6889 8.59515 24
876 1 16.1014 22.2643 11.3207 26
877 1 12.578 28.2656 0.686493 22
878 1 14.5977 25.5529 1.01074 25
879 1 11.5431 25.506 6.17567 24
880 1 12.7342 26.7785 3.54738 23
881 1 14.7247 29.1394 8.73646 23
882 1 11.5276 29.449 8.52505 22
883 1 16.4089 20.5263 8.77945 24
884 1 7.94748 23.5003 3.33029 22
885 1 16.3694 33.926 11.3142 23
886 1 21.4985 29.0344 19.0248 23
887 1 24.4105 25.4254 16.2548 22
888 1 13.0159 22.3603 11.0556 21
889 1 12.9363 34.3944 0.596735 22
890 1 14.3336 31.5286 0.762886 24
891 1 11.2351 29.0454 3.11856 23
892 1 9.63697 32.2022 8.61561 24
893 1 9.89794 34.3639 6.17852 22
894 1 16.2958 27.9991 11.1509 25
895 1 12.91 5.27113 10.969 21
896 1 13.0308 34.2264 5.93646 24
897 1 16.3936 33.7552 16.4103 24
898 1 9.69131 3.6987 13.7384 21
899 1 8.46669 24.186 8.96496 24
900 1 11.5528 0.797219 19.2156 24
901 2 31.5521 19.9699 8.40084 23
902 2 26.2451 20.7369 10.6188 23
903 2 24.478 20.0374 2.80163 23
904 2 32.9602 21.1386 5.44462 22
905 2 6.48185 21.2105 5.19184 21
906 2 4.69872 17.8249 10.7131 23
907 2 24.6131 23.4231 10.4071 26
908 2 31.3687 25.771 8.10903 24
909 2 31.509 23.6154 15.9411 22
910 2 28.3091 25.4195 23.4613 22