ITEM: TIMESTEP
213000
ITEM: NUMBER OF ATOMS
5760
ITEM: BOX BOUNDS pp pp pp
-0.162578634 32.962578634
-0.127007361 34.267007361
0.4918695086 63.1081304914
ITEM: ATOMS id type x y z Coordination
1 1 -0.0935281 5.59216 0.99629 24
2 1 1.41571 2.73524 63.0464 23
3 1 4.52522 0.514254 3.38273 22
4 1 29.0771 11.0303 6.19458 23
5 1 32.8889 9.0886 8.88287 22
6 1 31.323 2.31959 6.03025 23
7 1 2.92969 3.76737 8.55319 23
8 1 3.08902 2.95028 3.2349 21
9 1 32.6859 8.96269 13.9992 23
10 1 6.34452 -0.236409 5.86466 24
11 1 5.12082 8.32995 6.15449 25
12 1 4.71233 6.46065 13.72 22
13 1 32.597 11.0737 62.5035 19
14 1 1.45877 8.24202 0.684324 23
15 1 2.95358 5.53745 6.03138 25
16 1 32.4489 11.1986 6.03575 24
17 1 27.8111 12.3299 8.689 22
18 1 0.177842 9.57683 3.35907 21
19 1 3.22905 14.355 3.4331 22
20 1 26.1746 9.52425 14.0117 24
21 1 1.2002 14.1869 10.4263 19
22 1 32.7666 14.9991 8.19724 23
23 1 31.5265 17.8183 24.7422 23
24 1 31.1211 8.36308 11.2032 24
25 1 33.0842 16.9338 1.11239 23
26 1 1.62649 14.113 0.375608 19
27 1 1.33481 11.8528 2.82542 22
28 1 32.894 14.5386 3.26863 20
29 1 30.8964 17.5346 3.67306 22
30 1 31.121 13.8735 5.8816 22
31 1 4.85771 11.7766 8.65808 24
32 1 3.03625 16.6001 5.33478 20
33 1 10.0631 28.1572 16.5013 23
34 1 3.33067 20.5214 8.68151 23
35 1 1.30393 13.4652 5.85541 21
36 1 3.07612 14.7773 18.9111 24
37 1 2.98369 5.46571 0.725211 23
38 1 4.46184 2.58229 0.686081 23
39 1 8.05795 0.991335 3.17052 24
40 1 6.37086 5.39319 5.88498 24
41 1 1.50168 2.70808 5.97119 22
42 1 3.27903 34.0634 6.00894 24
43 1 8.28982 2.67255 5.23752 24
44 1 4.7085 6.50022 8.89887 25
45 1 2.99384 10.964 16.72 23
46 1 28.0627 6.34994 19.102 23
47 1 4.94044 8.048 11.2173 22
48 1 0.968595 3.02665 16.7134 22
49 1 2.95149 10.8094 62.9888 22
50 1 4.75341 8.00813 63.1396 22
51 1 3.27498 8.9273 3.22678 24
52 1 4.95271 2.53199 5.97159 21
53 1 9.76926 5.61654 5.61937 23
54 1 1.56079 8.49512 6.01252 23
55 1 9.87166 9.1498 8.6044 26
56 1 1.7476 17.4531 7.99271 24
57 1 6.65426 9.1469 8.66354 24
58 1 11.6003 6.48952 13.7315 21
59 1 32.6021 3.50174 13.5218 22
60 1 8.15125 6.04055 13.9456 23
61 1 3.11234 17.1991 1.34912 23
62 1 4.76985 13.9352 0.874614 20
63 1 3.22365 11.0579 5.73773 22
64 1 4.82019 11.3314 3.1059 23
65 1 6.32341 10.9611 5.61549 23
66 1 4.71954 13.734 5.8626 23
67 1 8.03417 14.0342 10.7892 21
68 1 7.78037 17.6034 13.547 22
69 1 6.48631 20.7812 3.60386 23
70 1 11.2921 8.18543 16.188 21
71 1 6.51851 9.39505 13.6598 24
72 1 3.01486 15.0011 13.7359 25
73 1 6.45855 5.30821 1.02104 24
74 1 8.36105 2.93219 0.978561 21
75 1 6.40025 3.57329 3.60216 25
76 1 4.74189 5.92147 3.49894 22
77 1 9.78055 11.407 10.4158 22
78 1 8.05387 31.5021 5.86492 22
79 1 11.3244 2.47891 11.4052 24
80 1 5.97922 3.84009 14.2391 18
81 1 12.8171 17.1333 11.233 23
82 1 6.23929 5.29095 16.6554 22
83 1 4.84466 0.774939 13.9313 21
84 1 1.49386 14.0517 16.4569 23
85 1 6.6228 11.0094 0.823433 22
86 1 8.12468 7.91579 62.9268 22
87 1 8.27213 6.24554 3.50371 25
88 1 6.70064 8.89172 3.23638 23
89 1 14.8369 6.11193 3.24563 24
90 1 14.5622 2.80889 5.98865 23
91 1 11.6755 12.0583 8.66599 22
92 1 11.8076 8.10976 6.222 24
93 1 7.79905 19.7388 11.4756 25
94 1 3.15316 5.19308 11.3675 23
95 1 4.91294 8.20859 16.4039 22
96 1 3.05731 10.9625 11.0173 22
97 1 6.67112 14.1484 3.34603 22
98 1 8.01385 13.9296 0.56637 21
99 1 8.17417 11.5731 3.78347 24
100 1 12.8374 8.79834 8.94415 25
101 1 5.1507 19.458 6.09446 22
102 1 11.5804 17.7952 3.84296 25
103 1 11.3375 12.2326 3.4976 21
104 1 9.5477 14.8241 3.53515 21
105 1 7.80459 19.5487 5.92874 24
106 1 9.67451 9.39188 13.7108 19
107 1 13.4064 9.15333 3.39164 22
108 1 15.9197 14.7456 14.2359 24
109 1 9.81175 5.50578 63.1046 22
110 1 11.8416 2.6151 0.624248 23
111 1 6.43042 32.2826 8.16727 22
112 1 14.8372 5.88355 8.87238 22
113 1 3.12813 3.33806 13.9768 23
114 1 11.3087 2.62244 5.51814 22
115 1 16.434 3.3918 13.928 24
116 1 16.775 5.47661 11.4159 23
117 1 6.61684 3.39183 19.0382 23
118 1 16.4699 34.14 5.92007 22
119 1 19.8065 3.53527 18.941 23
120 1 13.1266 3.37285 8.41455 23
121 1 10.1002 11.097 0.653265 22
122 1 11.7908 5.8974 3.29289 24
123 1 13.5116 3.07265 3.56447 23
124 1 9.89949 9.02172 3.11045 23
125 1 18.1841 8.41079 6.0142 23
126 1 5.15509 12.5405 13.8727 23
127 1 11.2374 2.43067 16.2585 23
128 1 13.3313 5.48907 5.91888 23
129 1 13.0687 5.04489 16.058 22
130 1 11.3899 8.26648 21.1236 23
131 1 18.2527 6.03785 14.0946 24
132 1 19.5673 9.43317 13.7462 22
133 1 9.69355 16.9583 1.21614 23
134 1 11.4747 14.2283 1.39643 23
135 1 14.7436 12.2598 3.68488 26
136 1 9.61789 16.7651 6.11441 24
137 1 12.9453 17.1001 6.21032 25
138 1 13.0927 15.2713 8.27093 22
139 1 14.5012 13.9399 5.97982 22
140 1 10.059 10.9476 6.35494 22
141 1 8.24974 13.5609 6.14363 25
142 1 11.8391 13.8384 11.1572 20
143 1 8.1018 11.6047 8.24814 22
144 1 12.4948 20.9331 13.7611 22
145 1 12.9151 5.31653 0.563607 23
146 1 14.8047 2.21168 62.9242 22
147 1 14.9004 0.601147 3.43229 23
148 1 11.6998 0.939705 3.16774 22
149 1 16.3767 3.30562 3.20129 23
150 1 14.4283 29.3079 3.44062 20
151 1 16.6155 3.50037 8.83547 23
152 1 14.6498 2.87257 11.2436 24
153 1 13.1336 10.948 5.80708 21
154 1 23.0512 33.851 10.9524 21
155 1 11.4937 0.725125 13.8481 24
156 1 19.6039 3.55067 13.7153 20
157 1 13.1751 11.2767 0.894283 24
158 1 15.2055 8.26501 0.787214 21
159 1 18.1471 6.74355 3.33285 24
160 1 11.4772 8.31439 0.555493 22
161 1 16.4111 9.14911 8.79165 23
162 1 17.9159 6.57486 8.63321 23
163 1 23.3512 9.20516 8.96962 23
164 1 15.1598 8.21721 6.05832 25
165 1 9.65607 5.37604 11.1806 23
166 1 29.8397 33.8865 11.3567 23
167 1 18.1437 8.20523 11.0273 22
168 1 14.4237 11.8314 8.4096 22
169 1 13.1289 17.3325 0.975214 23
170 1 14.8125 14.4466 1.25878 26
171 1 16.0175 14.9146 19.0952 20
172 1 17.7093 12.2946 3.33491 23
173 1 9.77679 14.5797 8.64518 23
174 1 16.4733 15.1187 3.53345 24
175 1 17.9331 19.8095 11.0614 23
176 1 11.5238 14.1165 5.74446 20
177 1 8.27981 8.58031 6.03116 23
178 1 9.29508 20.7238 8.56668 25
179 1 11.424 6.06146 8.29843 23
180 1 10.8454 0.977 8.51899 23
181 2 3.04656 34.1253 2.63403 22
182 2 29.1874 3.53058 5.50041 22
183 2 31.0356 6.43382 4.93329 24
184 2 2.97927 5.58095 7.79236 24
185 2 31.0907 0.387444 16.0193 21
186 2 1.34747 12.1903 10.582 21
187 2 4.79274 14.1171 12.6959 22
188 2 32.9005 -0.166383 2.97733 22
189 2 -0.0796481 26.0935 10.4738 23
190 2 4.58041 31.1511 8.24704 22
191 2 29.6536 11.0649 12.9518 24
192 2 31.3042 31.2327 13.0833 26
193 2 1.22593 8.22445 2.55643 23
194 2 29.6203 5.41725 2.69751 23
195 2 1.77725 13.73 2.5088 23
196 2 2.88805 10.7253 2.81405 20
197 2 6.24621 9.32269 15.8092 21
198 2 31.0032 2.37946 7.98401 23
199 2 32.6445 22.2298 7.75043 25
200 2 6.09638 5.76989 8.0388 22
201 2 1.2793 31.5595 18.0355 24
202 2 3.13306 9.53494 20.9017 23
203 2 31.1954 17.7422 10.3809 25
204 2 4.83335 6.28667 10.8414 22
205 2 9.88661 9.27169 10.729 24
206 2 32.8064 14.3907 5.15679 24
207 2 29.3491 16.94 3.0819 21
208 2 32.3526 3.4651 15.7256 22
209 2 5.3284 13.4561 2.50005 21
210 2 3.86653 16.1319 7.62095 20
211 2 29.3129 26.4458 5.57054 22
212 2 11.1749 23.6005 5.30241 24
213 2 5.79124 22.3832 18.2608 21
214 2 7.6792 23.625 20.84 22
215 2 7.51848 17.9724 10.5613 22
216 2 9.42524 15.3674 20.8298 21
217 2 16.5965 33.6241 7.66975 23
218 2 8.31634 31.5358 7.97131 23
219 2 26.2584 9.47576 5.33946 21
220 2 0.385659 32.5038 5.50336 20
221 2 1.75279 24.9786 7.92854 23
222 2 26.0234 14.9695 21.251 22
223 2 4.51286 6.4863 5.35101 22
224 2 2.98676 3.44593 10.4649 24
225 2 29.7132 26.1752 15.8331 23
226 2 11.3675 0.682039 21.1357 23
227 2 31.4126 0.500419 10.7265 22
228 2 8.29172 0.825577 16.2408 18
229 2 1.56807 6.62117 5.13652 22
230 2 1.45254 2.54551 8.04507 24
231 2 31.1494 17.4318 5.69065 20
232 2 8.32148 7.822 2.17975 22
233 2 3.14163 10.8985 7.71723 23
234 2 1.22085 8.20329 7.93379 23
235 2 7.94922 17.8686 5.45076 25
236 2 11.7062 11.8823 10.7056 23
237 2 2.98954 32.4943 10.9635 21
238 2 4.74808 6.22766 16.1089 22
239 2 25.9546 9.40495 11.0141 21
240 2 8.13202 6.41263 10.3136 26
241 2 6.42077 14.1863 5.21787 23
242 2 8.36063 23.3641 6.07794 20
243 2 1.37272 19.3645 2.97671 22
244 2 3.01165 16.9708 3.42312 21
245 2 4.72627 13.6148 7.84318 25
246 2 1.15791 13.752 8.02389 22
247 2 32.7853 26.0902 5.54868 18
248 2 8.35033 11.4619 5.82232 22
249 2 9.81608 11.1997 18.6214 21
250 2 10.0693 5.35063 13.248 23
251 2 3.20975 20.456 10.6622 25
252 2 13.1298 8.83156 15.6587 21
253 2 8.07011 0.802329 5.34256 21
254 2 4.87655 11.8008 5.09954 24
255 2 1.5422 2.35483 2.18577 24
256 2 9.68164 0.0028608 2.59875 23
257 2 29.8359 5.39974 18.2876 24
258 2 3.5085 8.96259 10.7242 23
259 2 10.0605 3.97735 4.85539 24
260 2 4.97696 0.889615 10.6912 22
261 2 6.6112 33.9181 18.398 25
262 2 29.1524 3.32192 15.2216 24
263 2 1.26761 5.93916 15.6519 23
264 2 8.42784 7.66641 13.003 23
265 2 3.16309 11.2527 12.9544 22
266 2 6.58481 10.8111 3.06237 20
267 2 4.97235 11.8897 62.7854 22
268 2 13.093 14.9563 5.53612 23
269 2 4.46772 7.97794 18.2353 23
270 2 7.92328 6.34625 5.42448 23
271 2 9.4277 -0.116396 7.75352 24
272 2 6.74132 5.20544 2.93702 22
273 2 14.293 14.3469 24.1204 19
274 2 9.53637 5.44795 7.59531 23
275 2 13.1073 17.2735 13.2601 22
276 2 11.2593 6.23629 20.8779 22
277 2 9.8764 11.1555 2.806 23
278 2 1.65902 6.15101 10.5576 24
279 2 5.31234 19.4231 3.36033 26
280 2 6.9062 16.947 2.58657 25
281 2 9.61802 5.52828 23.5628 25
282 2 8.23412 8.36257 7.98972 24
283 2 3.29713 20.26 5.60471 23
284 2 11.7545 8.13603 2.7102 24
285 2 30.9756 14.0462 18.1553 22
286 2 1.67421 12.2403 15.8102 24
287 2 6.74614 16.5372 7.7325 24
288 2 4.89493 23.5427 20.965 20
289 2 15.0189 2.49668 12.9778 23
290 2 8.28556 2.81619 2.87802 22
291 2 10.0242 5.58148 2.4907 24
292 2 12.8169 3.57933 5.44322 22
293 2 11.5268 2.43735 13.2124 23
294 2 9.9116 3.43235 10.529 23
295 2 12.9534 3.44324 10.4623 24
296 2 7.92531 8.5769 18.4598 20
297 2 10.1155 33.9335 18.6929 21
298 2 6.46241 34.2244 13.8757 19
299 2 1.405 23.3683 15.9321 24
300 2 14.6873 8.20257 8.54451 22
301 2 13.2541 34.191 2.34648 25
302 2 16.689 5.3298 13.5369 20
303 2 9.8315 8.82889 5.19544 21
304 2 11.383 11.6098 5.33192 24
305 2 8.08338 2.63134 7.89533 24
306 2 4.85212 8.13337 8.14297 22
307 2 6.57673 9.01869 5.29598 24
308 2 7.98467 13.5622 7.88082 23
309 2 6.36399 5.34358 18.5417 22
310 2 14.7085 2.6212 7.83385 24
311 2 12.9876 3.07166 15.8502 23
312 2 18.6805 7.88023 13.3034 20
313 2 13.3052 11.3718 2.8194 22
314 2 9.78694 14.9042 5.44416 24
315 2 13.2284 16.8657 2.89398 23
316 2 11.5209 14.2155 3.30799 21
317 2 5.1389 8.35981 13.1924 22
318 2 10.2616 14.7717 10.5871 20
319 2 7.64402 19.2187 7.88303 23
320 2 3.15571 15.0486 10.1914 22
321 2 17.9935 6.73941 20.821 23
322 2 4.29813 17.9548 20.9478 22
323 2 9.59501 16.998 18.1228 26
324 2 24.7281 12.3213 16.1451 22
325 2 16.4686 32.2165 5.5627 20
326 2 10.8342 29.5193 10.6821 23
327 2 13.2814 5.05901 2.69309 21
328 2 14.7309 2.07371 2.20088 23
329 2 9.45313 32.0962 20.7513 23
330 2 11.6353 6.2758 15.7909 22
331 2 6.38307 5.5826 13.033 24
332 2 13.1134 34.2676 13.2714 23
333 2 19.7451 0.185909 23.4588 23
334 2 4.96957 0.580328 20.7584 25
335 2 19.6174 3.49327 15.7888 24
336 2 11.1395 25.5676 23.905 23
337 2 19.9778 32.7146 15.4969 23
338 2 14.9181 1.02323 10.8186 23
339 2 21.2628 12.5941 5.40491 21
340 2 21.1294 6.63189 5.1813 23
341 2 14.882 5.93244 10.6841 23
342 2 11.7484 6.40062 5.2158 23
343 2 19.5532 9.69806 5.40263 24
344 2 19.5048 9.48631 10.7406 23
345 2 14.5572 8.32147 18.2537 23
346 2 19.7747 5.29639 7.96738 23
347 2 11.2992 8.22416 18.2189 22
348 2 16.3814 5.4952 8.00112 26
349 2 17.8991 13.7981 13.22 24
350 2 9.62256 16.3817 8.61781 22
351 2 15.0602 14.1387 3.26454 23
352 2 16.194 11.218 2.77008 25
353 2 18.0927 2.60533 18.267 23
354 2 14.7357 12.1173 5.91823 22
355 2 6.91054 9.26384 10.5796 23
356 2 11.5937 14.0746 7.83764 24
357 2 11.2793 6.59339 11.0456 22
358 2 14.4082 12.2417 15.8934 22
359 2 11.4952 2.51047 18.6092 25
360 2 8.3211 12.5255 15.9925 21
361 1 1.66655 0.396378 19.1295 24
362 1 1.34838 7.96283 11.4256 22
363 1 29.6839 3.62016 18.8863 23
364 1 21.4698 2.84918 21.6127 24
365 1 28.0627 0.517003 19.0321 23
366 1 3.10495 3.43269 24.3102 21
367 1 1.90466 2.44184 26.5842 22
368 1 31.3323 0.4501 24.2477 22
369 1 33.0506 9.50498 24.1767 24
370 1 31.5196 8.18573 21.6708 24
371 1 1.51287 6.27103 29.5904 23
372 1 -0.0881646 3.54799 29.4502 23
373 1 9.75088 26.0556 18.9758 21
374 1 6.09537 16.81 10.9001 26
375 1 4.9227 2.65862 27.0428 23
376 1 1.38643 12.1145 13.511 19
377 1 1.60735 8.5247 26.7281 23
378 1 26.1 3.92905 24.7138 24
379 1 31.0513 8.3812 16.5814 23
380 1 3.38439 20.865 24.326 22
381 1 1.60532 18.306 24.3761 25
382 1 3.21894 9.32864 29.5439 24
383 1 0.101546 9.07009 29.5338 22
384 1 2.79043 5.84916 26.6612 22
385 1 11.1855 14.5813 21.038 22
386 1 4.14779 19.9028 21.4412 22
387 1 1.33876 6.55746 23.9231 21
388 1 29.3878 5.57505 21.5067 20
389 1 30.9094 17.5303 19.1714 25
390 1 24.4545 0.55261 18.6519 23
391 1 27.7046 17.5295 19.2282 26
392 1 28.0432 14.4817 21.872 20
393 1 29.4976 17.5946 22.1933 21
394 1 2.01389 12.3132 29.573 21
395 1 3.17547 11.4516 21.9674 24
396 1 4.98417 18.2791 29.6821 21
397 1 27.8983 11.8748 18.7346 22
398 1 1.4498 31.004 21.8734 22
399 1 29.5277 28.5001 26.8417 24
400 1 32.9192 32.3076 19.4672 22
401 1 1.40481 12.026 18.835 22
402 1 1.54822 8.21202 21.5017 21
403 1 6.01425 9.37322 24.2629 23
404 1 6.57901 33.9792 16.4791 23
405 1 21.1744 11.7901 19.1788 21
406 1 6.23341 3.58538 24.1027 24
407 1 3.09126 3.07065 29.4902 22
408 1 9.61116 3.44002 29.3835 22
409 1 6.51286 14.7544 8.27856 22
410 1 32.6429 15.1029 18.7885 21
411 1 29.471 5.36769 16.3979 24
412 1 -0.118747 9.2651 19.09 24
413 1 27.7952 23.5047 18.83 20
414 1 6.37748 5.52024 21.7303 24
415 1 1.41918 2.79825 21.4808 22
416 1 5.99317 17.4823 21.5706 22
417 1 29.518 20.6053 19.1588 23
418 1 1.58 12.1498 24.4066 23
419 1 6.55973 9.77428 29.4914 23
420 1 4.92578 12.432 24.2713 23
421 1 4.93943 17.7893 19.0308 22
422 1 8.27413 12.4265 13.9196 21
423 1 1.44262 6.26179 19.0491 22
424 1 8.14949 8.0998 11.1544 22
425 1 9.59464 9.41572 24.1227 23
426 1 14.1562 14.3236 16.6261 22
427 1 8.20063 14.1013 21.6728 23
428 1 4.81492 14.5541 26.8748 23
429 1 6.52642 20.8062 29.9519 23
430 1 2.41992 20.6907 18.9921 24
431 1 3.38953 17.4225 27.0201 22
432 1 3.25299 15.4339 29.4834 21
433 1 8.35807 0.43646 14.1265 22
434 1 3.22013 0.154681 16.4655 25
435 1 16.3669 3.52061 24.389 25
436 1 11.0669 0.487995 24.3466 24
437 1 4.57661 6.31334 18.9567 23
438 1 14.6314 0.586767 24.0449 23
439 1 8.21368 2.71746 26.8329 22
440 1 14.5665 6.71506 29.7797 26
441 1 14.5371 12.5046 24.2111 22
442 1 9.56141 3.56265 24.0023 23
443 1 7.91106 0.593109 29.7482 25
444 1 4.57505 6.65982 24.2841 22
445 1 4.6543 12.2445 19.1825 24
446 1 9.50453 9.38592 18.5879 20
447 1 14.7578 8.15755 16.0492 21
448 1 12.9769 11.4987 21.2446 21
449 1 11.2841 8.05527 26.6674 22
450 1 11.5164 6.6117 23.8812 21
451 1 14.7473 6.21455 24.3252 24
452 1 22.7812 14.2074 19.1869 23
453 1 3.18043 11.5201 26.9524 25
454 1 7.86328 2.67564 21.7675 24
455 1 11.2885 12.1163 29.4404 23
456 1 9.88682 11.009 26.8586 22
457 1 1.14814 17.7284 13.6187 24
458 1 13.0635 11.0188 16.4682 25
459 1 32.7304 3.44408 18.7667 23
460 1 2.97731 16.8895 21.8048 25
461 1 32.6347 22.3911 16.6522 24
462 1 6.46834 9.65762 18.9966 23
463 1 8.36009 14.0729 26.6813 22
464 1 8.20943 17.9532 23.9864 24
465 1 4.9634 19.9607 26.8214 23
466 1 1.49171 14.3168 26.9296 21
467 1 9.39385 15.3574 29.1155 21
468 1 4.89283 12.4735 29.4957 23
469 1 1.75025 8.63038 16.7015 22
470 1 12.9433 -0.0822614 21.593 21
471 1 16.4655 4.03196 18.8844 21
472 1 19.6374 34.2916 21.2031 22
473 1 16.1867 9.15882 19.2511 24
474 1 14.8992 31.7655 26.5102 20
475 1 8.1985 0.454094 19.2024 22
476 1 16.121 32.1252 29.1589 21
477 1 6.37785 11.5115 26.6709 24
478 1 14.4948 0.306166 29.507 22
479 1 11.0835 0.376659 29.392 23
480 1 8.19143 6.04565 29.2364 23
481 1 16.151 9.40682 24.1757 23
482 1 18.1138 31.4501 21.1934 18
483 1 9.78289 5.12962 16.2539 22
484 1 4.73777 2.47134 21.7474 23
485 1 9.51732 5.65264 21.7409 23
486 1 8.08398 8.34459 27.236 23
487 1 17.9459 17.4737 24.7792 24
488 1 8.02583 6.6916 24.4116 23
489 1 13.0268 11.1184 26.7304 21
490 1 6.40204 11.3814 21.7126 24
491 1 11.5453 6.41601 28.7949 20
492 1 9.61753 9.06841 29.3564 24
493 1 21.2967 19.2728 16.4048 21
494 1 11.264 19.8883 16.1827 23
495 1 13.216 15.196 13.9381 24
496 1 6.75245 11.6039 16.6683 25
497 1 14.3564 14.6187 21.4792 22
498 1 14.4939 19.94 16.6142 26
499 1 12.88 15.3419 28.926 23
500 1 11.398 12.3759 24.104 24
501 1 8.1197 12.2325 24.1294 22
502 1 12.9429 9.38114 23.744 20
503 1 6.50501 14.9822 29.5892 23
504 1 19.4051 11.2401 27.5412 24
505 1 13.2412 3.20586 13.6048 23
506 1 14.7607 31.3667 21.8137 24
507 1 8.16591 0.759586 24.2219 23
508 1 6.14554 31.9358 19.4647 24
509 1 14.5215 8.82581 21.3388 24
510 1 9.20776 -0.204285 27.0974 24
511 1 16.562 32.3545 18.8021 23
512 1 9.73136 5.71787 26.2231 22
513 1 17.854 6.62256 28.8072 16
514 1 14.7177 2.49535 26.8408 23
515 1 12.7008 -0.03483 26.916 23
516 1 13.0546 3.50227 29.289 23
517 1 13.1791 11.2552 11.3958 22
518 1 17.9353 8.27585 16.3259 22
519 1 9.69748 33.9564 21.363 21
520 1 14.7604 11.7717 18.6815 21
521 1 19.808 9.1545 19.1125 23
522 1 19.4106 5.52885 26.998 23
523 1 13.3827 5.53114 26.7763 23
524 1 12.7606 15.3852 18.6019 20
525 1 16.3615 20.4735 14.1856 20
526 1 16.1524 3.68534 29.7407 22
527 1 14.6279 14.0538 26.7402 21
528 1 16.5153 11.2704 26.9293 23
529 1 11.3949 12.2281 18.9399 22
530 1 15.9943 16.4271 11.2793 22
531 1 9.97697 11.1946 16.4296 22
532 1 17.9808 12.3058 24.3696 24
533 1 20.9722 18.0945 19.4086 22
534 1 8.21945 12.677 19.0571 22
535 1 6.57009 17.1525 26.9336 26
536 1 17.7011 19.8316 26.7988 23
537 1 13.1824 17.4785 26.9403 24
538 1 15.9309 11.3117 21.7473 22
539 1 14.5991 12.2754 29.3835 23
540 1 12.865 17.3824 16.5989 24
541 2 31.3283 31.2872 18.5552 23
542 2 4.70285 2.45921 23.6467 24
543 2 29.854 11.7334 23.443 24
544 2 6.36356 15.4642 20.7424 25
545 2 26.291 3.62197 20.9279 24
546 2 31.635 2.29051 29.4534 23
547 2 7.99264 13.8819 12.6138 24
548 2 31.211 12.2852 20.601 25
549 2 1.2535 0.960088 31.4928 25
550 2 0.168064 3.93174 31.3463 22
551 2 4.47599 0.890637 26.4739 24
552 2 6.67627 5.17414 28.6886 23
553 2 19.6227 5.55337 18.6599 21
554 2 6.36778 16.9466 23.2772 22
555 2 4.77213 14.4111 23.2109 24
556 2 1.4078 8.70853 13.2603 21
557 2 26.3096 11.0758 29.325 23
558 2 3.45231 11.4471 23.9506 22
559 2 2.90952 16.9236 23.7928 21
560 2 1.88899 12.1062 20.5029 22
561 2 1.53035 6.34607 31.4809 25
562 2 32.9332 9.39911 31.46 23
563 2 1.69584 14.0648 29.0499 22
564 2 9.66734 8.95309 26.3131 20
565 2 27.3216 13.9214 13.1273 22
566 2 1.49713 19.8712 13.3694 22
567 2 5.76805 20.307 15.9546 21
568 2 30.9613 17.7796 15.6565 26
569 2 29.3812 20.8599 15.4791 24
570 2 1.4718 20.1288 23.7965 22
571 2 31.3946 11.4745 15.8786 22
572 2 26.1319 21.1958 26.4645 22
573 2 1.28085 12.3252 31.3467 22
574 2 32.9247 15.0791 32.4167 21
575 2 32.752 16.5254 28.7854 22
576 2 5.04864 8.79391 29.1079 22
577 2 29.7102 14.8879 16.0325 24
578 2 2.84068 5.00313 18.3903 22
579 2 4.74772 11.9685 16.145 20
580 2 3.08785 32.7596 15.7968 23
581 2 4.41223 6.68522 26.3717 22
582 2 4.78121 12.2334 21.1267 24
583 2 28.0216 31.5019 23.5912 24
584 2 14.487 0.639945 26.1992 26
585 2 4.05581 0.540869 31.5463 21
586 2 3.25582 3.63436 31.3238 25
587 2 1.69703 8.41418 23.6522 23
588 2 3.30069 -0.115832 28.4775 23
589 2 13.0803 10.8052 18.7995 23
590 2 29.5377 17.4809 24.3245 21
591 2 3.14611 5.25316 13.5634 20
592 2 -0.123928 9.19756 15.8957 23
593 2 12.9445 3.59856 26.781 20
594 2 4.58301 6.52416 21.384 21
595 2 4.56735 23.7809 15.9478 22
596 2 22.7667 16.811 13.4739 25
597 2 5.1042 6.52738 31.2209 24
598 2 2.99656 9.30321 31.9086 21
599 2 3.485 11.1942 29.0679 20
600 2 8.14046 12.2287 26.0045 24
601 2 11.1957 17.9307 21.2441 22
602 2 11.5019 12.2709 15.9494 21
603 2 3.05258 20.7715 26.6138 20
604 2 9.77806 22.6222 13.2027 24
605 2 3.47903 9.47275 26.4957 23
606 2 1.3047 12.2981 26.4313 22
607 2 3.19332 15.3102 20.7675 22
608 2 6.55345 11.4687 28.7005 25
609 2 4.81067 12.3881 31.7183 23
610 2 3.19601 15.3343 31.7543 23
611 2 2.87257 17.2627 29.0295 23
612 2 6.71542 20.7776 26.1884 24
613 2 7.93975 29.3813 20.8324 23
614 2 16.5681 5.83391 18.3058 22
615 2 12.7439 9.66605 21.0947 22
616 2 1.79494 31.1212 23.8655 24
617 2 32.9366 31.99 21.4718 21
618 2 0.206773 9.76868 26.3607 22
619 2 8.04634 31.1134 23.7172 24
620 2 6.34559 -0.034189 23.6112 25
621 2 7.52068 0.775988 31.8632 22
622 2 6.62494 3.72179 31.7038 21
623 2 4.95781 2.52355 29.1123 22
624 2 10.0268 5.42442 28.9406 24
625 2 11.0519 8.49173 23.2758 24
626 2 7.91452 6.55364 21.1019 22
627 2 19.7811 20.6108 21.0966 24
628 2 17.925 29.5082 20.9945 20
629 2 10.0117 11.0873 28.768 24
630 2 31.2882 8.63174 18.5732 23
631 2 8.10524 12.2366 20.9528 24
632 2 9.72967 3.76466 26.0304 23
633 2 8.06595 6.7461 31.2245 23
634 2 6.52811 9.63587 31.6503 23
635 2 1.5026 6.80771 25.8379 25
636 2 31.0915 6.89724 26.4302 24
637 2 9.75587 11.2472 13.7186 22
638 2 32.6939 22.5161 18.3339 25
639 2 31.0324 17.6919 21.0429 27
640 2 14.5659 12.7095 21.1028 23
641 2 11.261 12.1468 26.14 24
642 2 11.4664 14.234 23.2396 23
643 2 16.0537 11.4455 23.8277 22
644 2 4.85046 14.2573 18.4177 23
645 2 8.21636 12.1102 31.4436 23
646 2 6.28701 14.9773 31.5834 21
647 2 6.08334 16.9727 28.775 22
648 2 4.68752 14.4193 28.8114 24
649 2 10.8034 29.8066 25.6386 22
650 2 16.5463 32.5302 26.4984 21
651 2 6.1167 31.5738 16.0624 21
652 2 12.7209 15.3463 20.5674 20
653 2 6.77227 3.77801 26.2796 22
654 2 11.9047 6.25405 26.1909 21
655 2 10.0765 22.4358 28.8275 23
656 2 10.5577 0.792372 31.4053 22
657 2 9.45353 32.4159 31.8042 21
658 2 9.6148 3.3099 31.3101 24
659 2 16.4338 5.3182 28.662 25
660 2 12.7494 9.24185 31.459 22
661 2 13.1029 3.40939 21.4163 20
662 2 12.9286 5.51477 23.576 23
663 2 8.01983 6.12135 15.9931 21
664 2 4.4449 8.33999 23.7371 24
665 2 8.97119 32.4011 26.0865 22
666 2 8.44144 2.70367 18.4592 23
667 2 9.81568 11.3326 23.5239 22
668 2 12.9649 15.1068 26.5692 25
669 2 11.0887 6.1852 31.6703 24
670 2 9.98283 9.09633 31.4209 22
671 2 7.85906 8.09283 29.2235 21
672 2 15.0345 6.66045 26.1718 22
673 2 16.5042 16.823 29.6395 22
674 2 6.13485 20.8434 21.367 18
675 2 11.849 14.1306 12.9482 21
676 2 19.5916 9.21322 21.3535 21
677 2 7.81373 14.1368 28.6956 23
678 2 16.1853 14.9408 16.0238 25
679 2 8.11803 14.2803 23.4142 25
680 2 21.5063 17.8642 26.4161 23
681 2 12.076 12.4099 31.3535 22
682 2 10.1315 15.1606 30.9573 24
683 2 9.27379 28.3493 23.3666 23
684 2 11.044 12.4881 20.8334 21
685 2 10.9591 0.658622 26.3498 24
686 2 17.7328 8.57746 23.1768 24
687 2 16.249 15.0849 26.3368 26
688 2 23.2274 25.9918 25.8749 21
689 2 7.88947 31.308 28.9378 22
690 2 16.2628 3.38581 26.3339 25
691 2 6.54946 11.4885 18.7028 19
692 2 18.1646 29.4665 26.1865 20
693 2 13.9874 0.601286 31.6796 21
694 2 13.095 3.609 31.5472 21
695 2 13.1395 11.259 23.0895 23
696 2 13.1227 5.54226 28.7984 23
697 2 19.8284 3.38229 20.983 22
698 2 24.8391 8.61184 23.9846 21
699 2 3.19343 8.73764 15.6781 22
700 2 11.212 17.9827 15.7817 24
701 2 12.8534 -0.00271686 29.0274 22
702 2 17.9829 8.5245 29.0182 24
703 2 3.1519 16.8711 18.332 22
704 2 24.3122 0.780355 26.3577 24
705 2 13.9586 6.56046 32.1663 20
706 2 14.1074 8.3691 29.0038 23
707 2 13.1338 8.95798 25.712 22
708 2 21.1555 11.8265 26.5276 23
709 2 18.1058 14.019 18.7135 22
710 2 11.5153 23.2296 26.0957 21
711 2 9.40642 16.6971 13.0078 23
712 2 2.49309 20.8952 21.327 22
713 2 7.48203 18.1839 20.6101 22
714 2 18.2612 23.8346 21.0487 21
715 2 15.114 18.3313 26.7463 23
716 2 19.7417 8.6006 15.9682 22
717 2 13.1019 11.2924 28.4513 23
718 2 13.0606 14.8232 30.931 22
719 2 9.7691 17.3881 28.8409 23
720 2 14.763 14.6793 28.6949 22
721 1 32.7715 22.7811 1.16775 23
722 1 1.35951 19.5064 0.815444 22
723 1 1.27529 17.4874 3.19566 22
724 1 32.6625 22.2036 5.80149 22
725 1 4.64966 23.6544 13.4465 23
726 1 1.46088 22.9707 3.64684 23
727 1 3.1299 22.5193 6.22721 23
728 1 31.4763 25.3681 11.1522 24
729 1 28.0336 25.2217 10.8179 22
730 1 29.5769 28.2466 16.2383 22
731 1 3.19392 26.8489 19.385 22
732 1 27.5204 30.798 16.4498 24
733 1 0.057625 28.4292 0.798813 25
734 1 1.47428 25.5829 1.19414 23
735 1 31.1078 25.1192 5.85468 22
736 1 -0.180755 25.8115 3.48233 21
737 1 29.4738 28.4346 5.68495 23
738 1 1.58046 29.4981 3.50968 21
739 1 4.82775 19.6004 11.3892 24
740 1 31.3496 29.2915 8.61138 23
741 1 24.72 29.0724 8.35392 24
742 1 0.015223 34.1231 11.2487 23
743 1 1.36818 17.6053 19.2368 23
744 1 0.902523 20.1701 21.6849 22
745 1 32.8532 -0.206126 1.05325 23
746 1 1.64868 31.7675 0.620838 23
747 1 3.15433 27.9087 6.27029 22
748 1 1.76704 0.943175 3.4005 24
749 1 1.57123 29.2584 8.95862 23
750 1 33.0022 32.2733 3.18441 22
751 1 26.5445 26.2119 8.3606 25
752 1 27.99 29.5188 8.2681 22
753 1 -0.119112 33.7613 16.7256 24
754 1 1.1875 6.31222 8.53033 23
755 1 2.95542 32.8255 13.822 21
756 1 4.8109 0.780805 8.76194 25
757 1 3.16123 22.2743 1.19806 22
758 1 5.21679 19.9365 0.809139 25
759 1 5.03407 17.4352 3.3587 22
760 1 0.252183 26.0877 8.41989 21
761 1 4.91878 23.2617 3.78001 23
762 1 3.17015 19.9385 3.67008 26
763 1 31.3455 23.491 8.45993 25
764 1 32.8872 20.4726 3.0115 21
765 1 3.13433 22.1543 11.3493 23
766 1 32.7697 28.4187 11.2911 24
767 1 4.165 29.1843 13.5861 24
768 1 11.041 17.9811 13.7463 22
769 1 3.03023 28.6033 0.92639 23
770 1 4.87592 25.6068 1.13744 22
771 1 3.08505 26.4507 3.4961 21
772 1 6.24462 28.5019 6.09046 23
773 1 9.4891 28.5163 6.42997 24
774 1 6.13876 22.7572 11.218 22
775 1 1.46203 23.5029 14.0812 24
776 1 1.7405 31.3632 6.28673 23
777 1 3.48442 28.2845 16.3477 22
778 1 11.4291 25.2028 10.9509 19
779 1 8.00781 25.5018 11.5227 23
780 1 11.1927 31.2518 21.761 25
781 1 3.2378 33.8606 0.621092 24
782 1 5.4398 31.2351 0.870822 21
783 1 4.74242 29.048 3.61871 22
784 1 3.32066 32.5218 3.17919 24
785 1 3.2301 32.5852 9.03095 23
786 1 11.1295 31.2077 6.06915 22
787 1 -0.192007 32.297 8.88234 25
788 1 31.4195 30.9708 6.00892 23
789 1 32.7264 11.4661 11.3791 24
790 1 3.45591 0.150651 11.3834 23
791 1 4.69455 29.284 8.67513 23
792 1 1.36828 0.940995 13.8948 21
793 1 6.53653 23.0213 1.15 24
794 1 8.05131 19.9392 0.876817 22
795 1 9.3968 20.8712 3.29529 23
796 1 6.3521 16.4936 5.87274 23
797 1 4.63089 23.4501 8.96914 23
798 1 6.13638 16.7034 0.841062 21
799 1 6.38296 20.1318 9.05422 23
800 1 6.56144 0.160535 11.2923 24
801 1 9.53559 22.7432 10.9394 22
802 1 31.2165 17.5188 8.28883 21
803 1 0.0859954 10.9761 16.3661 22
804 1 7.96757 8.15807 16.751 22
805 1 6.51786 28.5625 1.24429 22
806 1 7.95907 26.1022 62.8395 21
807 1 8.31991 17.7398 3.41214 22
808 1 11.3064 23.9505 3.20698 20
809 1 12.9631 28.386 5.97645 21
810 1 6.25838 26.4496 3.99314 22
811 1 1.58579 24.9546 5.72762 22
812 1 3.18141 26.0366 8.677 23
813 1 1.30367 29.5152 18.9987 22
814 1 4.74954 25.2893 6.47667 23
815 1 11.2067 19.9363 11.0115 21
816 1 7.98218 23.4153 13.653 21
817 1 6.70249 -0.0782082 0.733318 24
818 1 8.28799 31.436 63.3557 21
819 1 8.45726 29.7245 3.45987 23
820 1 6.38294 31.9287 3.47576 21
821 1 6.49901 3.84883 8.08592 21
822 1 4.58717 31.467 10.9935 24
823 1 4.94746 25.4637 11.1566 21
824 1 7.89124 25.6225 6.23096 23
825 1 7.95565 6.54579 8.14643 23
826 1 6.19732 32.4075 14.1646 22
827 1 7.96214 0.718578 8.39148 25
828 1 4.68667 2.79907 11.1844 24
829 1 9.63192 23.0186 1.12588 24
830 1 10.9455 19.7865 1.02283 22
831 1 14.383 19.8081 6.07163 25
832 1 12.9059 20.6466 3.43027 24
833 1 10.9828 17.3527 8.48961 21
834 1 11.2733 19.627 6.27352 23
835 1 14.4869 18.0136 8.9302 25
836 1 9.53743 16.7127 10.9079 22
837 1 6.48348 28.4778 11.3655 23
838 1 6.62812 26.8635 8.57489 22
839 1 11.1968 8.38911 11.5103 23
840 1 8.02627 29.5215 13.7721 24
841 1 9.77212 28.6379 0.670289 22
842 1 11.2928 25.8148 0.830935 22
843 1 9.81857 22.3404 6.21976 22
844 1 9.43167 26.8894 3.60328 22
845 1 7.78938 31.3086 11.0599 23
846 1 14.5924 31.2356 5.774 22
847 1 16.1656 20.7163 3.34047 22
848 1 13.0264 26.791 8.75132 22
849 1 9.81516 27.9771 10.9168 23
850 1 11.2153 29.388 13.8254 22
851 1 8.00628 17.7046 8.78631 23
852 1 19.1253 28.2381 21.6194 20
853 1 10.1042 -0.0680191 0.595184 22
854 1 11.7111 31.2399 0.826761 24
855 1 16.4452 26.6929 8.77496 23
856 1 10.0096 32.4002 3.0246 20
857 1 10.006 3.75808 2.72492 24
858 1 17.547 2.49726 5.83342 21
859 1 4.77364 31.2798 5.98795 24
860 1 12.9046 32.2749 13.5156 21
861 1 11.0571 31.2854 11.1515 22
862 1 13.2584 0.0346193 11.1244 23
863 1 9.80545 -0.329412 16.5672 25
864 1 9.52735 31.8447 13.8821 21
865 1 13.0543 22.6292 1.15475 24
866 1 14.8187 19.8991 63.346 21
867 1 13.1616 15.0174 3.50514 23
868 1 15.9819 17.0699 5.82525 22
869 1 12.7107 22.8311 6.27242 23
870 1 14.3758 25.4795 6.07412 21
871 1 12.6668 20.6995 9.0136 23
872 1 6.56495 22.7889 6.56811 24
873 1 19.9986 26.6274 18.8732 21
874 1 14.4946 25.2498 11.4954 24
875 1 16.092 14.8947 8.31834 23
876 1 16.3479 22.2076 11.6859 24
877 1 13.0866 28.2153 0.717853 21
878 1 14.6599 25.7018 1.24311 23
879 1 11.0518 25.4053 6.03846 23
880 1 12.6241 26.2669 3.61501 23
881 1 14.4829 29.5631 8.58043 21
882 1 11.2437 29.3414 8.81698 25
883 1 16.0626 20.8895 8.92215 25
884 1 8.44163 23.9108 4.28753 23
885 1 16.1459 34.3494 11.3762 24
886 1 21.5393 29.3748 19.0283 23
887 1 24.7544 25.5437 16.5002 24
888 1 13.0181 22.5122 11.1881 23
889 1 13.4645 -0.168601 0.351413 22
890 1 14.7979 31.3852 1.06032 24
891 1 11.6261 29.4013 3.7475 24
892 1 9.81953 32.5194 8.65302 24
893 1 9.65704 34.2045 5.83318 23
894 1 16.2347 28.3155 11.1502 21
895 1 12.6918 5.54643 11.0873 22
896 1 12.7954 -0.147606 6.32583 22
897 1 16.3216 -0.0880527 16.0748 21
898 1 9.94374 3.33612 13.5289 20
899 1 8.12865 23.704 8.9208 23
900 1 11.5239 0.688326 19.1835 24
901 2 31.6171 19.6684 7.80399 22
902 2 26.0732 20.8608 10.587 24
903 2 24.5705 19.9464 2.86558 23
904 2 32.6897 20.2053 4.88736 23
905 2 6.19614 21.2612 5.43026 23
906 2 4.29395 17.6735 10.3192 22
907 2 24.8342 23.5179 10.7472 24
908 2 31.3746 25.5852 7.92182 20
909 2 31.2531 23.5783 15.8867 25
910 2 27.5387 25.2536 23.7604 21
911 2 6.33105 22.8297 23.761 22
912 2 30.9323 23.5815 21.499 21