ITEM: TIMESTEP
456000
ITEM: NUMBER OF ATOMS
1000
ITEM: BOX BOUNDS pp pp pp
-30.0 30.0
-30.0 30.0
-30.0 30.0
ITEM: ATOMS id type x y z Coordination
1 1 -10.6254 1.90568 -6.16555 16
2 1 -9.68988 -6.37071 -5.92271 15
3 1 -7.78312 -5.84435 -3.68007 17
4 1 -10.7076 -3.43067 -5.21407 17
5 1 -11.6021 -4.29249 -8.03084 10
6 1 -10.3176 -3.5563 3.04177 22
7 1 -7.40833 -11.8312 -2.77855 9
8 1 -0.414741 -8.80298 -6.05872 24
9 1 -6.73024 -2.88994 -10.9396 14
10 1 -3.72056 -7.89301 -8.63348 18
11 1 -7.32311 -8.25851 -7.50453 14
12 1 -9.60855 -2.36076 -8.78697 21
13 1 -8.67461 -0.786624 -6.28603 21
14 1 -7.50173 -4.01645 -5.57777 23
15 1 -2.57661 -6.37906 -6.54655 20
16 1 -8.14909 -2.52974 -3.49134 21
17 1 -2.58547 -5.57291 -10.5416 20
18 1 -8.26507 -5.13794 -7.92677 16
19 1 -5.90301 -6.81372 -5.78279 23
20 1 -1.7918 -8.58159 -11.6822 10
21 1 -3.5348 -11.1421 -3.57889 18
22 1 -5.6922 -8.76076 -3.33752 23
23 1 -4.01205 -3.65924 -13.5129 9
24 1 1.57982 -0.122868 -10.9163 17
25 1 -4.22399 -9.18071 -5.76641 20
26 1 -6.62526 -2.77526 -8.26624 18
27 1 -5.42205 -1.21527 -5.5786 23
28 1 -4.2495 -3.95123 -6.23525 18
29 1 -3.84156 -5.80512 -3.36965 22
30 1 -4.85398 -3.14179 -3.17847 20
31 1 3.19518 -9.34574 -5.91424 21
32 1 2.49244 -3.54078 -11.9517 20
33 1 -0.365391 -6.56667 -8.8284 23
34 1 -2.42585 -11.9881 -6.19756 12
35 1 -4.56808 -7.03088 -12.4037 10
36 1 2.06514 -8.17124 -8.75147 18
37 1 -0.0162864 -11.2222 -3.7538 19
38 1 -1.91926 -8.55234 -3.50195 22
39 1 -1.03986 1.20789 -11.124 18
40 1 -0.60525 -3.25065 -12.2852 14
41 1 0.96806 -6.411 -11.4181 16
42 1 -5.96688 -6.06441 -9.92995 12
43 1 -2.16678 -1.28245 -6.09728 22
44 1 -0.219823 -4.28421 -6.41022 22
45 1 -0.316814 -5.80861 -3.91193 20
46 1 -2.16614 -2.94065 -3.82536 21
47 2 -13.0983 -1.85299 -2.08815 13
48 2 2.97474 -7.56711 -7.11193 22
49 2 -7.1697 -4.17469 -3.48883 19
50 2 -10.9661 -4.9385 -6.29667 14
51 2 -10.9916 3.97346 -6.67417 12
52 2 -2.57387 -3.48189 -11.9287 13
53 2 -9.10668 -8.1636 -6.37536 11
54 2 -7.79697 -5.99647 -0.72242 20
55 2 -11.9155 -2.0485 -4.96177 14
56 2 -9.91295 -3.43073 -3.39746 18
57 2 -6.08772 -3.22509 -6.4759 21
58 2 -7.08777 -6.78617 -8.76879 13
59 2 -5.04876 -12.5993 1.04499 12
60 2 -0.915021 -11.5805 -7.19208 12
61 2 -9.24677 -5.46844 2.78539 19
62 2 -7.66932 -5.77782 -6.1835 22
63 2 -3.2863 -8.3375 -13.0165 7
64 2 -8.357 -1.05256 -8.00758 22
65 2 -6.91245 -4.30646 -9.36049 15
66 2 -9.7152 -4.4073 -8.66859 14
67 2 -5.27556 -8.47584 -1.36083 21
68 2 -7.94813 -2.71035 -1.04547 23
69 2 -8.81494 -2.41479 -5.46482 23
70 2 -6.11922 -6.92383 -3.94738 20
71 2 -3.75448 -11.6765 -1.78856 18
72 2 -3.7752 -9.01534 -3.93708 24
73 2 -6.87572 -12.4119 -4.35103 10
74 2 -6.14635 -9.01852 -6.33513 17
75 2 -0.960356 -6.87859 -10.7563 18
76 2 -0.277783 -11.6931 -1.35272 16
77 2 -7.13749 -10.0097 -3.19596 17
78 2 -4.37352 -5.95173 -6.39367 22
79 2 -0.00500893 -9.20176 -4.18292 22
80 2 0.774577 -4.59205 -11.982 16
81 2 -4.51085 -5.36517 -13.1129 9
82 2 -0.672527 -6.7207 -5.93358 18
83 2 -5.66656 -1.43795 -9.26392 18
84 2 -3.4773 1.1343 -9.56804 21
85 2 -4.12122 -6.82596 -10.3636 13
86 2 -3.89264 -5.95199 -1.41317 23
87 2 -5.12613 -2.99304 -1.24482 23
88 2 -5.50558 -1.32523 -3.52522 24
89 2 -3.64432 -3.96189 -4.3801 23
90 2 -2.2904 -12.1889 0.501855 17
91 2 -9.17034 -7.83215 -3.17074 12
92 2 -1.75317 -11.5357 -4.56112 16
93 2 -2.71411 -8.35462 -6.96563 20
94 2 2.64477 -7.2906 -12.3429 12
95 2 4.61998 -6.99981 -10.1056 19
96 2 1.13147 -12.7382 1.41487 14
97 2 -1.8794 -9.39709 -1.65438 23
98 2 -2.1475 -6.55843 -3.41412 18
99 2 -2.53393 -9.0827 -9.94479 12
100 2 1.48825 -6.34157 -9.34344 19
101 2 -2.73491 2.25531 -12.1342 15
102 2 6.14902 -4.36357 -12.5294 12
103 2 -2.50336 -3.21678 -6.58505 19
104 2 -2.42328 -1.8031 -9.36903 19
105 2 -1.98849 -5.43456 -8.57285 18
106 2 -0.13101 -5.81075 -1.40726 23
107 2 -1.96144 -3.09951 -1.71276 26
108 2 -2.37209 -1.0799 -3.99203 19
109 2 -0.197657 -3.81799 -4.24039 21
110 1 -13.0949 -0.84876 -3.79316 10
111 1 -9.51592 -4.65074 -0.167897 16
112 1 -11.2516 -6.52593 2.34981 14
113 1 -12.3096 -7.00106 6.06435 10
114 1 -12.9418 -0.480041 -0.942959 14
115 1 -12.3371 -3.64118 0.958085 14
116 1 -8.81838 -6.30596 4.47665 21
117 1 -11.5532 -3.31713 -2.29038 15
118 1 -12.1974 -4.50346 4.67082 13
119 1 -9.18907 -7.40225 -1.339 13
120 1 -9.34548 -3.86294 10.6108 10
121 1 -9.81926 -5.2099 7.14725 18
122 1 -8.08305 -9.19349 -4.72606 17
123 1 -6.98559 -9.70269 -1.0184 19
124 1 -6.58535 -11.7097 1.25596 12
125 1 -6.16047 -11.6059 -5.73285 12
126 1 -10.3571 -8.9641 4.25932 12
127 1 -8.79154 -9.11431 1.65141 15
128 1 -8.72678 -8.48224 6.75364 12
129 1 -8.52598 -0.803225 -0.726639 20
130 1 -6.77669 -4.10731 -1.16515 21
131 1 -7.44058 -5.81389 1.63795 24
132 1 -7.69087 -2.58413 1.25329 24
133 1 -8.83581 -0.551944 3.83935 19
134 1 -6.94764 -3.82734 4.18753 22
135 1 -6.65527 -5.88422 6.78103 20
136 1 -7.43169 -3.28518 7.85739 21
137 1 -6.35755 -3.95186 10.5201 19
138 1 -4.06344 -1.87002 11.6674 14
139 1 -5.3749 -13.1542 -0.807353 12
140 1 -6.99048 -10.0984 4.28672 10
141 1 -5.67455 -6.69179 -0.910515 21
142 1 -3.81472 -9.62181 -0.493549 24
143 1 -3.45952 -11.5114 1.86695 16
144 1 -5.44117 -8.7622 1.87278 22
145 1 -5.20981 -7.02596 4.45718 19
146 1 -3.67548 -9.81697 3.98088 18
147 1 -4.45933 -8.78031 7.12235 18
148 1 -3.74128 -9.89498 9.79963 11
149 1 -5.02871 -6.365 9.6995 21
150 1 -8.02905 -6.25623 9.31458 16
151 1 -5.1694 -1.13199 -0.791399 22
152 1 -3.48141 -3.85216 -0.738142 23
153 1 -3.94584 -6.04066 1.39913 21
154 1 -5.05207 -2.92535 1.48731 22
155 1 -5.476 -0.902019 4.09061 24
156 1 -3.33853 -4.20071 4.29709 23
157 1 -3.14723 -5.74034 7.10922 22
158 1 -5.08019 -3.05362 5.94005 21
159 1 -5.49251 -1.22475 9.023 21
160 1 -3.36407 -3.68549 9.66347 22
161 1 -6.82138 -9.47909 9.43973 9
162 1 -2.9145 -5.63912 12.4938 11
163 1 -2.05551 -12.1248 -1.33558 14
164 1 -1.5806 -12.7998 4.31075 13
165 1 -1.97445 -6.52644 -1.11528 22
166 1 0.0675684 -9.59 -1.12112 21
167 1 -0.507376 -11.5153 1.03643 18
168 1 -1.63296 -8.54927 1.79208 22
169 1 -1.86879 -6.70184 3.92176 22
170 1 0.257236 -9.57687 4.22238 25
171 1 -2.64542 -11.7602 6.89504 13
172 1 -1.73665 -8.62895 5.89986 19
173 1 -1.94051 -6.9597 9.94679 16
174 1 -0.833678 -9.7484 9.31201 16
175 1 -1.8271 -1.18374 -0.851983 22
176 1 -0.00626658 -4.03017 -1.11349 20
177 1 -0.373905 -5.66361 1.43997 23
178 1 -1.64469 -2.85714 1.91398 23
179 1 -2.1555 -1.25854 4.42943 22
180 1 -0.0381467 -3.98607 4.45808 24
181 1 -0.215704 -5.97689 6.76076 23
182 1 -1.7268 -2.98344 7.15335 24
183 1 -2.07864 -0.737718 9.40473 22
184 1 -0.0622977 -4.0001 9.32534 21
185 1 0.268754 -6.01339 12.6657 10
186 1 -1.47568 -2.7548 12.6213 14
187 2 -12.3848 0.411197 3.09522 13
188 2 -10.4936 0.229705 -0.552831 18
189 2 -6.72159 -11.6561 -0.955209 13
190 2 -8.56297 -6.43081 6.57712 20
191 2 -12.0952 -4.28632 2.62435 12
192 2 -11.2409 -4.16695 -0.533111 14
193 2 -9.56671 -2.98431 1.01331 21
194 2 -11.4662 -4.81897 6.26322 13
195 2 -9.42193 -2.92938 7.69595 17
196 2 -6.78347 -10.2759 2.41166 14
197 2 -10.2397 -8.12875 2.3849 11
198 2 -11.8466 -6.38164 4.17314 12
199 2 -8.58429 -8.86858 -0.169299 15
200 2 -10.8157 -8.26394 6.10575 11
201 2 -8.5703 -9.49456 5.00622 11
202 2 -6.9732 -5.91676 3.95459 18
203 2 -8.28669 -2.40605 3.36092 20
204 2 -8.68724 -0.503473 1.80627 18
205 2 -6.67501 -4.05587 1.24913 22
206 2 -3.07817 -3.69926 12.4543 13
207 2 -7.35359 -5.55998 11.3325 12
208 2 -8.58108 -2.19714 10.2633 14
209 2 -6.50019 -4.21619 5.97548 21
210 2 -3.83963 1.3047 10.7693 20
211 2 -3.01352 -11.5112 3.8543 16
212 2 -1.03765 -12.6927 5.93971 11
213 2 -5.26868 -9.02594 4.56309 15
214 2 -5.69596 -6.99605 1.11986 20
215 2 -3.39437 -9.30878 1.301 23
216 2 -6.6541 -4.89569 8.75831 23
217 2 -4.91235 -6.95588 6.61723 20
218 2 -2.36202 -10.8489 8.5977 12
219 2 -3.83254 -5.92824 3.33618 26
220 2 -4.8619 -2.81908 3.69718 21
221 2 -5.22527 -0.829233 1.27113 21
222 2 -3.32062 -4.16961 1.12353 20
223 2 -3.39119 -5.29277 8.82416 21
224 2 -5.41287 -2.53026 10.2654 18
225 2 -5.14013 -0.873904 5.95709 19
226 2 -3.29565 -3.80432 6.25981 23
227 2 -4.33415 3.30788 12.516 14
228 2 -6.4043 -7.65296 10.3664 12
229 2 0.325265 -11.8372 4.13851 15
230 2 -3.12588 -10.1027 6.11671 17
231 2 3.16883 -8.89339 11.2828 10
232 2 -1.4605 -8.72496 3.64585 22
233 2 -2.13218 -6.82889 0.975156 20
234 2 -0.0411161 -9.48777 1.02123 20
235 2 -2.26134 -8.80266 10.3457 16
236 2 -1.84205 -6.63284 5.84595 23
237 2 0.0643545 -9.2192 6.08463 21
238 2 -1.3654 -5.87464 11.4554 15
239 2 -0.272817 -5.82562 3.56109 23
240 2 -1.63232 -3.40598 3.85335 22
241 2 -2.33599 -0.997565 1.25741 22
242 2 -0.173924 -3.75959 0.908995 24
243 2 -0.498343 -5.99466 8.91908 22
244 2 -1.6517 -3.00944 9.15599 21
245 2 -2.23678 -1.08832 6.49389 20
246 2 -0.240203 -4.116 6.45959 24
247 2 0.371657 -3.21398 12.6559 13
248 2 -2.28259 -0.687694 11.9722 15
249 1 -12.0283 2.58158 -2.95036 15
250 1 -11.8168 -1.08471 -6.8579 15
251 1 -10.0199 6.68629 -3.47062 14
252 1 -8.9528 7.12041 -7.20458 13
253 1 -10.5579 0.057151 -2.95764 21
254 1 -11.164 1.09712 -9.55218 16
255 1 -8.23866 9.66311 -2.51099 12
256 1 -11.4428 5.32568 -5.51179 13
257 1 -7.41473 -0.0235275 -9.24478 21
258 1 -12.5152 -1.47793 -9.90435 8
259 1 -8.68549 2.47194 -11.1705 12
260 1 -9.68847 3.76325 -8.11002 15
261 1 -6.25285 5.60984 -6.28758 17
262 1 -6.89634 0.306651 -3.20228 21
263 1 -9.00616 3.22025 -3.32883 20
264 1 -7.15052 3.18711 -8.36682 16
265 1 -4.54342 10.6558 -7.08545 14
266 1 -7.3371 6.07139 -3.23174 20
267 1 -5.84819 12.6215 -2.63313 9
268 1 -6.87668 8.80371 -6.06634 16
269 1 -6.90642 0.0941164 -12.2183 12
270 1 -0.527094 -0.496151 -13.7294 13
271 1 -4.11201 -0.509527 -8.82571 19
272 1 -7.54043 1.84219 -5.69946 18
273 1 -4.09473 7.38588 -6.26879 22
274 1 -4.17188 1.62178 -6.66595 20
275 1 -3.75319 0.0485326 -3.32726 24
276 1 -5.72899 3.26595 -3.79095 21
277 1 -2.42152 3.91674 -11.2262 15
278 1 -7.45749 6.28368 -9.51081 12
279 1 -9.51051 -0.816114 -11.8724 11
280 1 -6.28794 8.88959 -9.05461 14
281 1 -3.01642 8.78607 -9.42224 14
282 1 -3.78052 6.16325 -3.65396 19
283 1 -5.67046 8.99355 -3.5481 20
284 1 -3.5626 10.8344 -4.72644 17
285 1 -3.71721 0.79147 -12.7713 12
286 1 3.49809 9.36005 -9.4845 10
287 1 1.44444 1.98231 -12.925 15
288 1 -2.13691 -3.5707 -8.48421 15
289 1 -4.80562 4.60507 -8.29076 19
290 1 -2.56104 4.7811 -6.12684 21
291 1 -0.966471 2.03746 -6.24003 23
292 1 -0.741255 -0.0786377 -3.41675 20
293 1 -2.35321 2.93573 -3.50355 21
294 1 0.292254 9.6406 -10.1755 14
295 1 -2.11797 2.44679 -8.77257 22
296 1 -1.66012 9.95461 -6.89535 20
297 1 -1.47414 12.8762 -6.42445 10
298 1 -0.688162 7.62199 -7.74991 20
299 1 -0.575195 5.80113 -3.64046 20
300 1 -2.01965 8.81273 -3.37548 20
301 1 -4.53712 6.59277 -11.0984 12
302 1 3.31124 11.4586 -4.19043 14
303 2 -12.3923 0.780091 -3.0809 14
304 2 -13.626 0.90014 0.343272 14
305 2 -10.3789 0.0714692 -6.24818 20
306 2 -10.556 2.38132 -4.10843 15
307 2 -11.4391 -2.45233 -8.3414 15
308 2 -8.79585 -0.617004 -2.89849 21
309 2 -12.2281 3.88338 -0.765928 13
310 2 -10.045 6.53957 -5.62175 14
311 2 -11.6511 5.6789 -3.56564 11
312 2 -8.51357 9.08374 -0.651044 14
313 2 -8.89431 5.08605 -3.13879 16
314 2 -4.14061 12.2332 -3.59114 14
315 2 -7.98291 -1.50795 -11.0866 14
316 2 -11.3789 -1.33953 -11.3459 8
317 2 -8.9744 5.52963 -8.38897 14
318 2 -7.04251 -0.029915 -5.31535 20
319 2 -12.1619 0.0102388 -8.39636 10
320 2 -6.71349 0.21403 -0.970367 22
321 2 -9.05327 2.7171 -1.06345 22
322 2 -8.59017 2.34425 -7.34483 19
323 2 -7.21846 2.20844 -3.90516 18
324 2 -6.93105 1.99776 -9.91049 19
325 2 -5.3591 12.6718 -0.938411 9
326 2 -5.26609 9.75571 -5.4184 17
327 2 -6.88777 5.52185 -1.09603 20
328 2 -3.65372 9.54219 3.00512 19
329 2 -7.08432 7.89607 1.45054 16
330 2 -5.45802 8.41161 -0.9497 18
331 2 -6.50435 10.7481 -2.61617 14
332 2 -4.93792 -2.68118 -11.978 15
333 2 -8.70478 0.917925 -12.0402 10
334 2 -3.92673 -0.331515 -6.53713 21
335 2 -4.2485 5.57122 -6.8716 16
336 2 -10.0282 2.46246 -9.75003 13
337 2 1.12428 3.61379 -13.6413 10
338 2 -3.56729 -0.00442643 -1.35409 23
339 2 -5.501 3.42173 -1.22559 21
340 2 -5.67969 5.36068 -4.23717 20
341 2 -4.05375 2.12403 -3.92368 23
342 2 -5.54103 1.27219 -11.9867 16
343 2 -4.61306 9.53253 -8.57051 15
344 2 -7.96891 9.03732 -7.7626 11
345 2 -3.91387 3.89337 -9.99361 17
346 2 -3.49215 6.27457 -1.76228 22
347 2 -7.39772 8.08328 -3.1982 16
348 2 0.519062 8.68613 -6.70226 18
349 2 -3.57699 8.04775 -4.491 20
350 2 -6.99599 7.1445 -6.52325 19
351 2 4.73198 10.5147 -4.75143 13
352 2 -1.94196 10.8098 -3.29053 18
353 2 2.20452 -1.98532 -10.566 17
354 2 -2.65266 -0.832874 -13.1236 13
355 2 -0.452567 -0.156148 -6.8909 19
356 2 -2.57239 2.82408 -7.10045 19
357 2 4.70202 5.00539 -12.4226 10
358 2 -5.66561 2.71218 -7.12585 23
359 2 -0.373845 0.0261712 -1.23183 19
360 2 -2.19874 3.17903 -1.49396 21
361 2 -2.49916 4.63649 -4.19192 22
362 2 -0.79441 1.81324 -3.9874 20
363 2 4.98301 8.66718 -8.95445 10
364 2 -0.681114 5.72838 -6.81873 17
365 2 -6.05462 7.28887 -10.1733 11
366 2 0.92681 5.60227 -9.08591 18
367 2 -6.67815 4.99471 -8.35421 17
368 2 -0.208816 5.65387 -1.46883 21
369 2 -1.9015 8.83357 -1.23499 20
370 2 -2.65125 8.16299 -7.55778 17
371 2 -0.48784 7.63751 -3.95345 22
372 2 -0.522429 11.23 -6.10429 14
373 2 -0.599395 13.1993 -2.91426 13
374 2 3.28441 13.5921 0.743647 13
375 2 -2.9624 11.7664 -6.42933 13
376 1 -13.9985 2.91117 0.156898 11
377 1 -13.5129 -0.341195 1.58674 11
378 1 -12.3058 -0.568484 4.73212 12
379 1 -12.2486 5.56189 -1.64858 12
380 1 -10.5674 2.13664 -0.0592679 22
381 1 -10.4185 -0.775577 1.14784 21
382 1 -13.0142 5.08565 3.01007 9
383 1 -10.1108 4.93576 8.34378 10
384 1 -12.1292 2.29907 2.99338 17
385 1 -6.83429 -0.472775 11.5204 13
386 1 -9.9915 -2.60223 5.9998 16
387 1 -6.23465 -6.95251 12.1691 8
388 1 -10.0526 8.14808 0.199055 14
389 1 -10.6157 4.94221 1.24089 19
390 1 -10.3029 7.5854 3.45047 11
391 1 -10.5954 0.601498 6.80784 13
392 1 -8.64696 4.6867 -0.814427 21
393 1 -6.88219 2.31081 -0.813519 20
394 1 -6.98036 0.275767 1.46628 20
395 1 -8.63982 3.19353 2.1618 18
396 1 -10.2746 4.68543 4.37908 17
397 1 -7.5162 2.22561 4.44538 19
398 1 -6.70966 0.0530476 6.51869 20
399 1 -12.292 2.80274 6.23695 9
400 1 -8.83863 -1.28523 8.63759 15
401 1 -5.47261 4.85725 13.1525 11
402 1 -7.89181 7.59348 8.89593 12
403 1 -7.9048 9.43963 2.42607 13
404 1 -7.18004 7.61319 -0.498331 23
405 1 -7.02686 5.929 1.76912 17
406 1 -5.98489 10.2986 -0.769089 18
407 1 -1.93458 8.89929 2.00163 23
408 1 -5.42739 6.82086 7.1059 19
409 1 -8.89517 2.02744 9.87359 12
410 1 -6.2254 3.37027 7.41852 18
411 1 -8.06513 5.82909 5.88974 14
412 1 -6.30569 10.0037 5.55241 13
413 1 -4.89581 5.14369 -1.25675 23
414 1 -3.97527 2.03962 -0.986274 20
415 1 -3.69975 0.448428 1.64784 22
416 1 -5.60284 3.06961 1.85432 21
417 1 -5.41902 4.94381 4.19013 18
418 1 -3.85652 2.16111 4.81268 23
419 1 -3.80274 -0.0392461 6.90339 20
420 1 -4.06846 1.96266 9.07071 19
421 1 -7.96438 4.89482 10.805 13
422 1 -5.30893 5.47539 9.5088 23
423 1 -3.57219 0.799827 12.5528 12
424 1 -5.80273 2.25328 11.1875 16
425 1 -2.5524 12.5129 -2.5679 16
426 1 -3.70243 8.0243 -0.902473 19
427 1 -3.37942 5.95281 1.77796 21
428 1 -5.04857 8.82014 1.53411 17
429 1 -5.55943 9.71169 8.68616 13
430 1 -3.95274 7.9234 4.21616 19
431 1 -2.64928 7.9852 6.90106 22
432 1 -4.1639 12.2972 6.64987 12
433 1 -2.09574 15.3528 6.66495 5
434 1 -5.37947 7.61577 11.2275 14
435 1 -4.21837 12.3437 0.476299 14
436 1 -0.538951 12.5248 6.09832 13
437 1 2.42948 11.1318 7.07094 14
438 1 -2.03382 4.92989 -0.990125 22
439 1 -0.684071 2.10216 -0.601426 23
440 1 -0.611972 0.0991549 1.59519 21
441 1 -2.51635 3.48267 1.77284 20
442 1 -1.98328 5.0473 4.70113 22
443 1 -0.698824 1.79244 4.03806 19
444 1 -0.0241473 0.108974 6.5485 21
445 1 -1.97488 2.78087 6.79899 17
446 1 -2.34979 5.31235 8.22597 19
447 1 -0.882194 2.18016 9.52121 22
448 1 -0.554161 0.178246 11.9075 15
449 1 -2.73067 3.61507 11.1461 19
450 1 -0.0523585 11.3685 -4.26355 20
451 1 -0.353976 7.50451 -0.731801 22
452 1 -0.420059 5.97406 1.47915 20
453 1 -1.05486 10.6119 -1.22934 21
454 1 2.37431 7.92296 8.57161 17
455 1 -0.0393578 7.60351 4.09821 23
456 1 0.167427 6.17153 7.1274 22
457 1 -2.69175 10.595 4.44572 22
458 1 -0.00790031 9.26 9.1372 14
459 1 -2.74574 6.33812 12.9565 10
460 1 -1.5057 12.6639 1.26554 16
461 1 0.405968 11.2015 3.08535 18
462 1 -5.01009 11.098 2.92915 15
463 1 2.56991 12.665 4.56356 14
464 2 -11.2867 -2.20075 4.50551 17
465 2 -13.112 3.94962 1.7148 13
466 2 -9.33673 -0.707045 5.83262 16
467 2 -11.3277 3.96436 7.2306 10
468 2 -12.7587 -1.95066 0.941738 14
469 2 -10.5869 3.04557 1.61106 20
470 2 -7.75137 1.0121 10.8743 13
471 2 -9.55384 0.561775 8.59158 12
472 2 -12.1796 0.924762 5.7775 10
473 2 -9.49909 6.56338 4.91132 11
474 2 -11.3553 6.17349 3.03648 14
475 2 -12.2482 3.65491 4.59705 12
476 2 -7.12665 0.264393 3.90922 20
477 2 -8.45701 4.01535 4.29817 19
478 2 -8.63471 5.06947 1.39536 22
479 2 -7.17759 2.14578 1.53794 22
480 2 -6.89097 -1.44662 7.66613 20
481 2 -9.78534 -5.27532 9.18843 13
482 2 -8.33892 5.93844 7.85656 13
483 2 -6.85167 1.94268 6.34384 18
484 2 -8.05889 -8.29134 8.53851 16
485 2 -6.33646 5.25557 6.24406 17
486 2 -10.7512 6.47524 -0.889194 14
487 2 -4.57153 11.4348 4.8203 14
488 2 -6.7347 10.0688 3.74409 11
489 2 -9.10934 3.76884 9.5993 12
490 2 1.78483 9.94877 8.46153 12
491 2 -6.45578 8.01291 8.12183 16
492 2 -3.50064 -0.00138503 3.65504 21
493 2 -5.50832 2.89159 3.99307 22
494 2 -5.26553 5.87535 2.33233 17
495 2 -3.86316 2.35166 1.10301 24
496 2 -3.75106 -0.719486 8.68817 19
497 2 -6.73382 6.70906 10.409 15
498 2 -5.50259 3.42588 9.3348 19
499 2 -3.9996 1.89978 7.06886 21
500 2 -6.6359 4.01829 11.7227 13
501 2 -4.61529 -6.24457 12.3092 12
502 2 -3.56833 5.86203 4.00195 21
503 2 -5.1203 10.8716 7.34792 10
504 2 -9.56778 8.72791 2.12382 12
505 2 -3.53883 7.74582 1.00131 21
506 2 -0.67095 6.11596 9.12495 22
507 2 -3.76369 6.6114 8.36155 18
508 2 -3.02572 13.6539 6.62515 9
509 2 -4.33961 8.11164 6.09983 19
510 2 -3.0399 13.1466 2.014 12
511 2 -2.26357 12.1729 -0.512639 15
512 2 -0.387867 -0.334527 4.48491 20
513 2 -2.33869 2.92727 4.29612 20
514 2 -2.17848 4.98657 0.982256 22
515 2 -0.820161 2.21876 1.47422 20
516 2 -0.517149 0.267396 9.00641 24
517 2 -2.38156 3.53695 8.90294 17
518 2 -1.54183 4.93766 6.595 19
519 2 -0.216524 2.00731 6.01808 22
520 2 -1.63665 4.68238 12.2653 14
521 2 -5.15717 -0.546944 12.5857 11
522 2 -0.546884 5.64646 3.5981 21
523 2 -1.28091 14.0334 4.9931 12
524 2 -5.65954 10.8918 1.04272 18
525 2 1.41276 8.835 -0.769756 19
526 2 -0.715976 2.08813 11.4026 19
527 2 4.22851 10.7088 6.58991 13
528 2 1.30456 12.1391 5.99346 12
529 2 0.54737 7.8343 6.03047 22
530 2 -4.56541 8.62219 9.83411 15
531 2 -0.90469 11.1524 4.97235 21
532 2 -0.180253 7.82385 1.30502 22
533 1 3.25475 -11.6888 -3.66901 16
534 1 5.40429 -4.84677 -10.5684 16
535 1 -1.53152 -9.94939 -8.41552 12
536 1 1.0139 -12.0257 -6.61426 12
537 1 4.31147 -10.5811 -8.39741 11
538 1 5.62401 -12.5454 -5.97217 9
539 1 1.74004 -8.46912 -3.55341 22
540 1 3.29394 -6.29963 -13.7946 10
541 1 -3.26595 -1.80071 -11.3281 17
542 1 6.60347 3.50239 -9.51361 22
543 1 1.82896 -2.93146 -8.70543 18
544 1 -1.02964 -0.825159 -8.67705 19
545 1 1.26516 -0.758838 -6.37115 22
546 1 3.47877 -3.61067 -6.47205 21
547 1 3.25953 -5.82286 -3.6579 24
548 1 1.29999 -2.834 -3.49809 23
549 1 1.56883 -6.25564 -5.99238 22
550 1 3.48617 -8.30111 -11.0402 11
551 1 4.64555 -6.71625 -6.45177 22
552 1 6.79005 -9.39183 -7.25867 13
553 1 6.15865 -11.5019 -2.87827 13
554 1 5.32917 -9.22 -3.70372 19
555 1 4.17939 -0.399993 -13.2095 12
556 1 -0.120409 4.92745 -13.9053 10
557 1 7.76083 -4.97501 -11.6042 8
558 1 6.30367 -5.0329 -5.65236 19
559 1 4.03058 -0.618333 -6.65879 21
560 1 9.81641 -3.59882 -6.56948 13
561 1 6.01911 -6.0468 -3.15451 20
562 1 4.6517 -2.71523 -3.81669 21
563 1 6.82541 -4.39686 -7.99867 20
564 1 8.55433 -7.22277 -6.64171 12
565 1 6.49292 4.88002 -12.5042 12
566 1 5.5816 -3.42457 -13.9803 10
567 1 3.36705 2.32724 -11.03 17
568 1 7.74386 0.187364 -6.90327 21
569 1 9.21937 -4.67874 -3.90868 15
570 1 3.2142 -5.75375 -8.98898 21
571 1 8.01007 -2.19962 -4.08646 22
572 1 9.35798 -9.72782 -4.46033 8
573 1 10.5536 -0.849081 -8.79751 11
574 1 6.47228 -7.35959 -9.5479 14
575 2 4.82545 -10.3645 3.31828 16
576 2 -4.45008 -11.1123 -5.51099 13
577 2 4.76677 -12.5559 -4.29607 13
578 2 2.86052 -11.0549 -7.17527 15
579 2 0.252153 -8.69814 -7.96179 18
580 2 7.62591 -6.62581 -10.6452 8
581 2 2.93216 -11.9542 -1.45844 16
582 2 1.91082 -8.62261 -1.57824 22
583 2 1.67982 -6.70224 -4.24881 23
584 2 8.58375 -9.11444 -5.98916 11
585 2 3.58436 -4.00796 -10.0206 18
586 2 0.00674149 0.847479 -12.7238 12
587 2 6.69674 -7.26807 -7.61894 15
588 2 1.82813 -4.56189 -7.11477 20
589 2 -0.193019 -2.90347 -7.89521 16
590 2 2.99957 -4.28549 -14.1272 10
591 2 3.20215 -5.69045 -1.74985 23
592 2 1.51799 -2.73667 -1.35328 20
593 2 0.90127 -0.959047 -4.07705 19
594 2 2.88721 -3.35639 -4.55584 23
595 2 1.52348 -11.8537 -4.68356 14
596 2 3.58677 -9.53035 -9.65374 13
597 2 8.48545 -5.7882 -5.3765 15
598 2 6.34123 -12.1685 -1.09669 10
599 2 5.01773 -7.66538 -2.39766 21
600 2 5.01657 -6.01765 -4.64326 20
601 2 5.76334 -11.1044 -7.0826 11
602 2 0.460278 -2.2971 -13.6695 12
603 2 8.455 -0.476265 -8.53596 16
604 2 2.65245 -1.82338 -7.39469 20
605 2 -0.0469418 0.368533 -9.8624 20
606 2 5.45064 -1.19667 -9.1337 18
607 2 5.90877 -5.35148 -0.662773 16
608 2 4.84072 -2.58701 -1.68765 24
609 2 4.41158 -1.03146 -4.77774 19
610 2 6.04121 -3.49025 -4.89119 22
611 2 7.6308 -5.285 -2.48273 20
612 2 12.7388 1.70864 1.86853 14
613 2 6.84642 -9.77059 1.20598 16
614 2 7.27487 -10.0614 -3.38857 13
615 2 5.24449 -8.61003 -5.59234 19
616 2 4.94481 -4.79222 -7.36137 21
617 2 3.98427 -2.08085 -13.9046 11
618 2 2.79901 1.21008 -9.61903 21
619 2 8.3339 -3.32557 -7.69963 15
620 2 8.019 -5.40419 2.22068 18
621 2 8.22365 -2.29566 -2.19752 21
622 2 7.93185 -0.174916 -4.83246 21
623 2 10.49 -5.82331 -2.78171 14
624 2 11.8083 -6.7807 -0.279931 15
625 2 10.557 -7.46871 3.18973 14
626 2 10.5747 -1.86598 -7.1432 14
627 2 9.60138 -4.10693 0.273219 18
628 2 10.0232 -2.99323 -4.48188 15
629 2 9.49579 1.40455 -6.4724 19
630 2 10.0161 -8.9504 -2.69857 9
631 1 1.32598 -12.2507 -0.50579 16
632 1 0.568571 -11.8516 6.43045 17
633 1 1.77693 -6.94999 -0.652279 20
634 1 3.38186 -10.0397 -1.34299 18
635 1 1.80738 -12.8323 3.15267 13
636 1 1.80328 -8.88656 1.72279 21
637 1 1.43546 -6.65606 4.17433 22
638 1 3.61904 -8.96021 4.57721 20
639 1 1.37831 -12.4226 9.36018 7
640 1 1.54148 -8.51916 7.22721 19
641 1 0.981776 -6.59535 9.86168 18
642 1 4.91614 -8.43035 11.4927 8
643 1 1.40288 -0.802309 -1.06454 22
644 1 3.18694 -3.7876 -1.04487 21
645 1 3.10633 -5.71715 1.76191 24
646 1 1.42744 -2.61004 1.5205 20
647 1 1.48539 -1.05883 4.27413 21
648 1 3.3679 -3.66272 4.41727 22
649 1 3.14126 -5.58384 7.53777 23
650 1 1.48826 -3.07347 7.04058 21
651 1 1.15384 -0.504103 9.56431 20
652 1 3.20154 -3.45219 9.74783 20
653 1 3.33367 -5.38685 11.7412 13
654 1 1.8434 -1.96601 12.252 13
655 1 4.45637 -12.7129 -0.764803 12
656 1 1.35694 -9.48756 10.78 10
657 1 4.49277 -6.75344 -0.805991 22
658 1 6.60561 -11.7703 0.880718 9
659 1 4.40229 -12.0118 3.12924 14
660 1 4.95057 -9.065 1.6628 17
661 1 4.66059 -6.32895 4.66559 22
662 1 3.4262 -11.9585 6.22098 12
663 1 4.79956 -8.53967 7.13699 16
664 1 7.44724 -9.55372 8.97862 9
665 1 4.89627 -0.600301 -1.27316 23
666 1 6.24522 -3.48542 -0.94847 21
667 1 6.25953 -5.8718 1.6238 20
668 1 4.77534 -2.20803 1.54126 21
669 1 5.08321 -0.752918 4.30648 22
670 1 6.85455 -3.1551 4.5703 22
671 1 10.1731 -3.29387 8.76971 13
672 1 4.87618 -2.98957 7.00991 22
673 1 4.97641 -1.0339 9.59475 19
674 1 6.7274 -5.47115 6.77162 23
675 1 5.04601 -2.37402 12.2292 12
676 1 8.25219 -5.85368 -0.940966 22
677 1 8.38337 -9.08149 -2.10054 16
678 1 8.33716 -8.82915 0.980289 14
679 1 8.5349 -8.18104 6.55551 16
680 1 6.47976 -9.63497 4.86753 14
681 1 9.73661 -5.36717 6.89568 16
682 1 5.90324 -6.63823 9.48895 15
683 1 8.01206 -0.658585 -1.37154 19
684 1 10.2781 -3.76169 -1.7009 17
685 1 9.9667 -5.30672 1.64685 19
686 1 8.35147 -2.63543 1.27862 19
687 1 8.22583 -0.347684 4.36754 22
688 1 8.19069 -5.54215 4.24486 19
689 1 9.0173 -6.55316 9.1852 13
690 1 8.12746 -2.37565 7.21981 21
691 1 10.8609 -0.234526 9.32299 11
692 1 6.47799 -3.7386 9.89525 17
693 1 11.0356 -7.41212 -1.86446 11
694 1 11.2244 -8.12857 1.08222 11
695 1 10.0347 -3.09414 4.51812 18
696 1 13.3817 -2.02195 -0.793416 8
697 1 11.7618 -5.99899 3.62848 13
698 1 9.67371 -9.25684 3.53957 10
699 1 11.8208 -3.10748 2.35646 15
700 1 13.7493 2.01221 3.58804 11
701 1 11.6572 -0.20449 4.54948 16
702 1 12.7211 1.18544 7.23166 12
703 2 1.94223 -12.2533 7.58222 10
704 2 -5.11547 -9.75288 8.6397 11
705 2 1.05065 -8.46607 9.01337 16
706 2 2.05056 -8.46697 3.7964 22
707 2 1.35107 -6.53266 1.26435 21
708 2 3.17566 -9.2835 0.560591 20
709 2 0.663169 -10.9918 9.98187 10
710 2 1.88729 -6.84143 6.44278 24
711 2 3.03169 -12.1788 4.44069 13
712 2 1.84297 -6.48011 11.505 15
713 2 3.09153 -5.76868 3.75636 20
714 2 1.28442 -3.00414 3.30208 22
715 2 1.26825 -0.699707 1.04977 22
716 2 3.37273 -3.49073 0.884011 25
717 2 6.0804 -8.89173 10.0606 11
718 2 1.23735 -2.42254 8.91334 22
719 2 1.67345 -0.907212 6.21697 23
720 2 3.22406 -3.99566 6.61038 23
721 2 1.2358 -0.174774 12.1346 15
722 2 3.45783 -3.37779 11.8394 15
723 2 3.27793 -9.65028 -3.62387 17
724 2 8.32557 -9.03729 4.66963 13
725 2 5.35527 -8.05775 5.26686 18
726 2 4.65908 -6.76129 1.40163 18
727 2 4.76293 -12.3241 1.21371 14
728 2 7.27314 -5.73601 8.75347 18
729 2 5.07157 -6.56499 7.16623 20
730 2 3.67025 -9.85789 6.2122 18
731 2 5.01496 -6.17309 11.0959 13
732 2 6.04858 -4.97907 4.31873 18
733 2 4.8521 -2.63072 3.70737 19
734 2 4.96085 -0.45465 0.642345 23
735 2 6.57736 -2.65631 0.652498 20
736 2 5.02713 -2.74751 8.94813 22
737 2 2.08138 -4.66428 8.90398 19
738 2 5.08486 -1.00247 6.11303 22
739 2 6.58684 -3.62131 6.5606 22
740 2 4.46985 2.43178 13.0093 9
741 2 6.5534 -2.08055 11.36 13
742 2 9.66528 -3.323 6.53518 19
743 2 8.51929 -6.44805 5.99329 21
744 2 8.136 -7.64298 -0.460503 20
745 2 11.5007 -2.06503 9.4007 7
746 2 10.3136 -5.2335 8.77892 10
747 2 8.51185 -2.11299 4.01763 22
748 2 8.31537 -0.351784 0.657778 20
749 2 12.9208 -1.67057 1.5397 10
750 2 8.7648 -8.23173 8.26626 12
751 2 8.32229 -2.72369 9.16935 19
752 2 8.07395 -0.325401 7.00974 20
753 2 6.55931 -9.7494 7.16778 13
754 2 4.16164 -0.795846 12.6928 11
755 2 10.1149 -9.38634 1.62413 8
756 2 10.494 -4.80266 4.08555 14
757 2 12.2258 -3.51301 -0.917438 12
758 2 11.3393 -0.18007 7.40221 15
759 2 12.7853 3.00894 7.53203 11
760 1 7.79771 5.48329 -6.84037 20
761 1 2.10148 -2.82377 -14.6995 10
762 1 -1.34292 7.02882 -11.3604 15
763 1 2.79598 5.17152 -13.3811 11
764 1 4.30881 -2.20257 -10.0723 21
765 1 0.286799 4.41503 -10.7493 19
766 1 0.326867 4.48128 -7.64236 17
767 1 2.36686 2.56117 -6.01433 18
768 1 2.88075 0.123151 -3.98142 20
769 1 0.805201 3.01258 -3.51543 20
770 1 4.99214 7.52331 -6.70701 18
771 1 1.42796 7.9354 -12.5405 10
772 1 1.17135 10.4795 -6.90194 14
773 1 -0.167863 13.1394 -0.806766 15
774 1 1.58556 7.30911 -6.06168 19
775 1 2.74053 5.85707 -3.77579 20
776 1 1.51985 8.70461 -3.08192 22
777 1 6.5786 11.2523 -4.29767 13
778 1 6.57019 7.78967 -9.32926 9
779 1 -5.03065 2.23636 -10.3543 18
780 1 4.22399 1.66134 -8.26244 17
781 1 1.08867 1.61687 -8.89889 21
782 1 3.932 4.81236 -7.18307 21
783 1 6.18442 2.43951 -6.49813 22
784 1 6.1689 0.250076 -4.04473 21
785 1 4.66215 3.3774 -4.07636 19
786 1 3.86786 5.10366 -10.567 14
787 1 2.18528 7.04802 -9.27246 21
788 1 6.78508 7.92829 -1.2486 23
789 1 6.64902 0.299853 -9.51218 15
790 1 6.64778 5.88893 -4.28326 19
791 1 4.82365 8.65802 -4.1557 20
792 1 11.1604 5.83977 -7.02946 9
793 1 7.42471 -2.01783 -9.16621 14
794 1 6.32054 1.33781 -13.4279 8
795 1 8.4063 2.63281 -11.763 10
796 1 10.2771 2.23565 -9.55135 14
797 1 9.6859 0.458612 -4.22798 20
798 1 8.16423 3.18804 -3.96925 24
799 1 7.68716 8.33368 -6.05408 16
800 1 9.37887 5.29907 -10.2144 13
801 1 11.2931 3.98769 -4.57466 14
802 1 9.63375 6.62258 -3.89008 17
803 1 9.13052 9.81668 -3.86376 14
804 1 9.28571 3.21464 -7.17442 21
805 1 11.4644 -1.97253 -5.3424 11
806 1 11.4827 1.15815 -6.52096 14
807 2 2.94 0.907847 -12.3301 16
808 2 1.8523 8.4081 -10.6151 14
809 2 2.69862 0.765943 -6.52436 17
810 2 0.85548 2.63452 -7.18786 21
811 2 -0.713176 2.93449 -10.0699 20
812 2 3.92564 6.10421 -8.78937 16
813 2 3.44703 0.177201 -2.16924 22
814 2 1.44205 2.87713 -1.39257 18
815 2 0.937583 4.82369 -4.35181 22
816 2 2.781 2.54779 -4.01422 17
817 2 -1.21944 5.04786 -12.1709 16
818 2 4.80669 5.32434 -3.97799 20
819 2 -2.91829 7.51025 -10.8188 13
820 2 -0.0880934 8.66533 -11.8181 11
821 2 1.89983 10.2922 -8.80341 11
822 2 3.09243 5.84743 -1.18929 21
823 2 1.58235 10.409 -3.95716 19
824 2 0.545856 11.2552 -0.719575 21
825 2 2.53356 7.84163 -4.30784 20
826 2 -1.01715 9.32922 -8.74488 16
827 2 0.808028 14.4116 0.207535 9
828 2 1.76992 12.8272 3.00518 14
829 2 6.3801 11.0732 -2.265 16
830 2 3.34747 6.47928 -6.59511 17
831 2 0.909101 6.29489 -13.1041 10
832 2 6.09685 0.941242 -7.84307 20
833 2 4.23765 2.86084 -6.44824 19
834 2 7.08842 3.0923 -13.251 9
835 2 5.83393 -0.262741 -12.78 11
836 2 6.57368 0.444923 -2.11874 22
837 2 4.70866 3.28125 -1.56163 20
838 2 7.95888 3.37203 -1.76656 19
839 2 6.47366 2.08847 -4.39591 20
840 2 7.37174 1.94631 -10.2131 20
841 2 6.91771 4.27594 -5.38816 19
842 2 7.01422 7.28643 -7.50913 15
843 2 7.96209 6.38388 -2.58328 21
844 2 4.9743 8.64675 -1.90887 22
845 2 7.76401 10.056 -5.31906 11
846 2 9.66751 8.34396 -2.81296 14
847 2 10.657 6.56141 0.100592 15
848 2 11.2505 0.864338 -8.41173 11
849 2 4.47636 3.25788 -9.65241 19
850 2 2.31894 4.06497 -11.2163 18
851 2 7.29628 5.0853 -10.7352 15
852 2 9.84766 0.315998 -2.14781 18
853 2 9.94754 2.29694 -3.51516 18
854 2 7.74662 3.85184 -7.96535 19
855 2 11.4427 -0.221284 -4.8447 11
856 2 10.7296 5.943 -8.88897 10
857 2 9.35026 6.54842 -5.83871 18
858 2 11.1632 3.72221 -0.924163 15
859 2 9.04907 11.2916 -2.78775 9
860 2 6.17678 7.5801 -5.04109 19
861 2 11.0185 5.36836 -3.24515 16
862 2 9.7923 3.52382 -10.7072 12
863 2 12.7636 -0.291307 -1.04922 8
864 2 9.87164 2.57246 1.06661 17