ITEM: TIMESTEP
401000
ITEM: NUMBER OF ATOMS
1000
ITEM: BOX BOUNDS pp pp pp
-30.0 30.0
-30.0 30.0
-30.0 30.0
ITEM: ATOMS id type x y z Coordination
1 1 -12.1338 0.500232 -6.14664 11
2 1 -9.25072 -4.24612 -6.45507 14
3 1 -10.6644 -5.90185 -3.81212 17
4 1 -11.5088 -2.60519 -4.31287 14
5 1 -8.79424 -7.00943 -6.54205 12
6 1 -11.8828 -6.42391 -0.961181 16
7 1 -8.23713 -11.0753 -3.28467 13
8 1 -10.2332 -9.10826 -5.22239 8
9 1 -8.25372 -0.517941 -11.5597 11
10 1 -6.26275 -3.84 -11.2387 15
11 1 -6.75182 -5.72972 -9.31581 15
12 1 -8.10885 -2.47271 -8.82408 16
13 1 -8.42118 -0.273796 -6.75051 18
14 1 -6.39391 -3.45151 -6.55563 23
15 1 -6.93104 -5.58085 -3.95043 20
16 1 -8.52362 -2.93318 -3.58971 22
17 1 -4.49754 -6.76442 -11.6151 12
18 1 -6.69503 -9.96699 -6.05892 15
19 1 -5.67194 -6.75068 -6.21057 21
20 1 -3.59275 -9.66454 -6.0948 18
21 1 -4.49938 -11.3739 -4.18945 15
22 1 -5.53507 -8.69804 -3.59977 20
23 1 -4.96002 -0.423319 -11.8774 16
24 1 -3.20234 -3.64165 -11.4931 18
25 1 -3.73155 -5.1722 -8.75864 26
26 1 -4.42223 -2.33261 -8.75287 23
27 1 -5.07212 -0.625558 -6.12074 23
28 1 -3.33911 -3.69116 -6.05808 24
29 1 -3.43122 -5.74885 -3.2687 23
30 1 -5.28706 -2.69893 -3.76052 23
31 1 -5.46411 -8.43314 -8.73599 13
32 1 -1.5523 -6.4702 -11.5567 16
33 1 -2.20375 -8.31348 -9.09089 17
34 1 -2.24062 -12.3321 -6.88452 8
35 1 -2.27626 -6.49878 -6.44924 22
36 1 -0.517444 -9.30793 -6.32519 23
37 1 -0.160712 -11.5441 -4.33542 17
38 1 -1.81475 -8.58622 -3.58087 19
39 1 -1.89473 -0.876931 -11.4138 21
40 1 1.46225 -0.884857 -11.1198 23
41 1 -0.333874 -5.82746 -8.93047 23
42 1 -1.22122 -2.5289 -8.73468 25
43 1 -2.20266 -0.607003 -6.58121 23
44 1 -0.175736 -3.69841 -6.11278 23
45 1 -0.193148 -5.66862 -3.62004 23
46 1 -1.97695 -2.56874 -3.45294 25
47 2 -11.8299 -3.12168 -0.733863 21
48 2 -11.3347 -8.19013 -0.632734 14
49 2 -8.46832 -8.73049 -1.21788 17
50 2 -7.59179 -5.51367 -5.96444 18
51 2 -10.2292 0.490442 -6.91333 15
52 2 -7.72542 -2.47215 -10.9528 13
53 2 -10.4308 -5.42516 -1.66801 21
54 2 -13.7765 -5.65661 -0.878055 11
55 2 -11.9381 -0.789681 -4.59943 14
56 2 -9.96406 -4.1463 -4.61136 17
57 2 -6.38839 -6.90315 -8.23417 15
58 2 -8.59602 -8.95114 -6.24574 11
59 2 -5.46425 -12.3122 0.833984 13
60 2 -10.0041 -9.87539 -3.42329 9
61 2 -10.3323 -8.67118 2.24336 11
62 2 -6.63532 -10.5693 -4.23723 17
63 2 -4.28408 -8.05341 -10.2361 13
64 2 -8.24149 -2.54378 -6.73636 16
65 2 -8.53043 -0.574542 -9.37997 14
66 2 -6.29214 -3.84364 -8.67754 19
67 2 -7.26184 -5.6724 -2.09537 24
68 2 -8.44973 -2.5216 -1.56141 22
69 2 -8.64089 -0.92254 -4.5523 22
70 2 -6.92071 -3.71833 -4.38297 20
71 2 -3.93322 -12.2881 -2.41771 11
72 2 -3.60617 -11.5918 -5.86583 12
73 2 -10.3792 -7.15713 -5.02136 11
74 2 -5.70215 -5.78909 -10.9252 14
75 2 -5.1808 -9.12167 -6.94505 17
76 2 -0.698613 -12.3072 -2.423 11
77 2 -5.5947 -8.66206 -1.51493 19
78 2 -5.51699 -6.88195 -4.21382 19
79 2 -3.72771 -9.53217 -4.07403 18
80 2 -2.98979 -5.53863 -12.0859 13
81 2 -4.59927 -2.39992 -11.9182 14
82 2 -4.08483 -5.89629 -6.87555 23
83 2 -4.72115 -2.39381 -6.75164 20
84 2 -4.70384 -0.710166 -9.63752 23
85 2 -3.07961 -3.37242 -9.61829 22
86 2 -3.66816 -6.27327 -1.45955 21
87 2 -5.33895 -2.72238 -1.92547 25
88 2 -5.22661 -0.779615 -4.15738 23
89 2 -3.54877 -3.71298 -4.15496 25
90 2 -2.20959 -11.9022 0.144084 18
91 2 -2.14645 -8.39401 -6.65273 19
92 2 -0.397736 -12.1236 -6.98586 8
93 2 -0.566599 -8.84503 -9.54152 13
94 2 -2.06087 -6.18949 -9.42971 20
95 2 3.96301 -7.59411 -6.84537 18
96 2 1.50567 -12.1365 0.178659 16
97 2 -1.54977 -8.53902 -1.34612 21
98 2 -1.92869 -6.50008 -4.15871 23
99 2 -0.371172 -9.55064 -4.43522 20
100 2 0.208931 -5.84918 -11.5756 13
101 2 -1.45674 -2.75309 -12.204 18
102 2 -0.957712 -5.34716 -6.60213 21
103 2 -1.62059 -2.72136 -6.90216 22
104 2 -1.54269 -0.59539 -9.32199 21
105 2 -0.102579 -3.97572 -9.3365 24
106 2 -0.180034 -5.41503 -1.63538 23
107 2 -2.20918 -2.75649 -1.21773 21
108 2 -1.96888 -0.756678 -4.38418 24
109 2 -0.241117 -3.36096 -3.89415 21
110 1 -13.5051 -3.72914 -1.37817 15
111 1 -14.1193 -5.77474 1.0839 10
112 1 -8.98207 -8.35393 1.19391 16
113 1 -10.3412 -3.95184 3.81685 19
114 1 -11.5855 -1.26474 -1.02079 22
115 1 -9.91923 -3.60471 -0.850828 24
116 1 -10.4972 -5.83751 1.64289 21
117 1 -11.8578 -8.28789 1.18003 11
118 1 -12.2453 -0.515865 4.66302 14
119 1 -12.1269 -3.15558 1.25994 19
120 1 -10.06 -5.55276 6.10955 15
121 1 -12.1979 -3.22217 6.38226 11
122 1 -8.64321 -6.58929 -1.02357 21
123 1 -7.03306 -9.61824 -0.646932 19
124 1 -6.93534 -11.3745 1.80673 13
125 1 -10.3461 -9.04577 -1.94389 14
126 1 -10.1945 -7.91549 4.10784 14
127 1 -6.88723 -9.64098 4.37763 17
128 1 -7.99388 -8.44699 6.70128 11
129 1 -8.29413 -0.863604 -0.776637 23
130 1 -6.94258 -3.98333 -1.2972 22
131 1 -6.93015 -5.60899 1.78445 22
132 1 -8.91647 -2.62699 1.85948 25
133 1 -8.97487 -1.16621 4.46479 21
134 1 -6.96842 -3.75454 4.52622 24
135 1 -6.99066 -5.67395 7.27058 20
136 1 -8.50127 -3.10235 7.06063 19
137 1 -8.57014 -2.94545 11.7491 7
138 1 -6.72972 -3.76642 9.74229 18
139 1 -5.46765 -12.3618 -1.18742 13
140 1 -5.5279 -12.792 4.20906 11
141 1 -5.58719 -6.51257 -1.24123 22
142 1 -3.55369 -8.71262 -1.18576 19
143 1 -3.73392 -11.6469 1.52915 17
144 1 -5.30419 -8.2049 1.75027 22
145 1 -5.34784 -6.74307 4.5423 23
146 1 -3.53153 -9.80634 4.18027 22
147 1 -6.4657 -11.3455 7.48551 12
148 1 -4.89717 -8.57658 7.2312 21
149 1 -5.88259 -7.13415 10.2688 12
150 1 -3.62355 -9.89092 9.54699 11
151 1 -5.56527 -0.980292 -0.94902 22
152 1 -3.87659 -3.81787 -1.08587 22
153 1 -3.71832 -5.72684 1.58137 23
154 1 -5.65139 -3.12368 1.36485 21
155 1 -4.9085 -1.12439 4.30972 20
156 1 -3.4552 -3.76435 4.32491 22
157 1 -3.50113 -5.59424 7.13749 23
158 1 -5.31465 -2.97655 7.23921 21
159 1 -5.2977 -1.02934 9.7101 21
160 1 -3.24533 -3.74949 10.0137 22
161 1 -3.63734 -6.4114 13.0661 7
162 1 -5.39698 -4.50546 12.4364 12
163 1 -2.32671 -12.4008 -1.57149 14
164 1 -1.91658 -12.9768 3.94408 13
165 1 -1.84985 -6.78762 -0.927913 23
166 1 -0.427219 -9.8257 -0.965344 22
167 1 -0.331388 -11.6436 1.11192 17
168 1 -1.94869 -8.99952 1.59763 20
169 1 -1.90068 -6.93033 4.20388 21
170 1 -0.0667637 -9.54506 4.10363 21
171 1 -3.51367 -11.334 6.57221 16
172 1 -1.86981 -8.47574 6.80923 21
173 1 -1.53898 -6.91219 9.75575 17
174 1 0.114233 -9.51589 8.67088 14
175 1 -1.88485 -0.821271 -0.573009 21
176 1 -0.487378 -3.77141 -0.706383 22
177 1 -0.0456369 -5.9325 1.80492 21
178 1 -1.89811 -2.9902 1.63726 20
179 1 -1.78887 -0.876105 4.07314 21
180 1 -0.0776267 -3.87158 4.6042 22
181 1 -0.205379 -5.74695 7.33649 22
182 1 -2.08733 -2.80885 6.72968 22
183 1 -1.97406 -0.88725 9.78548 22
184 1 -0.200468 -3.60439 8.93686 20
185 1 -0.120869 -5.45123 11.8323 16
186 1 -2.26408 -2.49236 12.7192 13
187 2 -13.7685 -4.02619 1.89646 14
188 2 -12.3563 -6.32417 1.16748 17
189 2 -7.05442 -11.2558 -1.75287 14
190 2 -10.4913 -6.00429 4.27006 15
191 2 -12.0284 -3.06191 4.25884 19
192 2 -12.1055 -1.1708 0.878675 23
193 2 -10.2114 -3.81203 1.38051 22
194 2 -11.9008 -1.34806 6.24872 15
195 2 -10.234 -3.82944 6.71179 16
196 2 -7.00678 -11.3661 3.66348 13
197 2 -8.39981 -8.69949 4.90523 14
198 2 -8.65903 -6.44184 0.907496 25
199 2 -7.20066 -9.32909 1.33347 18
200 2 -8.7504 -6.66448 7.02997 13
201 2 -6.52495 -9.54677 6.76884 17
202 2 -7.01911 -5.61656 3.5915 24
203 2 -8.47604 -2.91658 3.66718 23
204 2 -8.77199 -0.876955 1.4494 22
205 2 -7.0312 -3.96818 0.499209 23
206 2 -5.15017 -6.63543 11.9342 11
207 2 -7.98254 -2.5403 9.1512 18
208 2 -8.5977 -1.08804 6.51694 21
209 2 -6.9479 -4.04699 6.42257 21
210 2 -3.65519 2.42521 11.7838 16
211 2 -3.60526 -12.0658 3.8228 16
212 2 -5.518 -12.2736 5.92202 12
213 2 -4.9928 -8.67553 3.6138 22
214 2 -5.38424 -6.65198 0.771458 24
215 2 -3.49102 -9.61186 0.789472 23
216 2 -6.33193 -5.67052 9.17777 18
217 2 -5.29257 -6.68169 6.43963 22
218 2 -3.41764 -9.35335 6.08495 24
219 2 -3.70397 -5.8193 3.92903 21
220 2 -5.1016 -2.95497 3.18055 21
221 2 -5.56735 -0.986669 0.983385 22
222 2 -4.27841 -4.13754 0.683803 21
223 2 -2.73588 -5.56696 8.94095 22
224 2 -5.10508 -2.89563 9.34603 22
225 2 -5.19797 -0.960008 6.24237 21
226 2 -3.81298 -3.55905 6.22646 23
227 2 -6.60021 1.85901 11.8613 13
228 2 -4.7122 -8.4147 9.49254 16
229 2 -0.392752 -12.8935 2.66642 12
230 2 -1.82625 -12.2001 6.00782 13
231 2 0.72308 -11.3651 8.19984 12
232 2 -1.93507 -8.93902 3.68024 20
233 2 -1.9934 -6.68515 1.10752 22
234 2 0.0682098 -9.84999 1.60137 20
235 2 -1.72941 -8.76264 8.82087 19
236 2 -1.81846 -6.42974 6.35559 24
237 2 -0.149725 -9.24346 6.54762 21
238 2 -2.13213 -6.1621 11.5509 13
239 2 -0.242591 -5.76293 4.14951 19
240 2 -1.80684 -2.75141 3.71732 20
241 2 -1.99626 -0.96765 1.41333 19
242 2 -0.370691 -4.06535 1.23905 19
243 2 0.128866 -5.55284 9.32451 19
244 2 -1.94069 -2.5645 8.80937 24
245 2 -1.59734 -0.999688 6.26094 24
246 2 -0.165005 -3.80929 6.75434 21
247 2 -0.256303 -3.37315 12.2243 17
248 2 -3.5594 -3.63506 12.0563 17
249 1 -13.6652 -1.05574 -3.33574 11
250 1 -10.4302 0.338064 -8.79962 11
251 1 -12.3411 2.62273 -3.74046 17
252 1 -11.7128 4.70612 -5.84107 11
253 1 -10.3573 0.0469948 -3.53038 23
254 1 -9.87347 2.45684 -6.31426 18
255 1 -10.4194 7.79454 -5.90407 12
256 1 -10.3997 5.97718 -3.21284 18
257 1 -6.35742 2.3127 -11.8721 12
258 1 -6.62554 0.465567 -9.09691 22
259 1 -8.36004 3.34526 -9.47506 14
260 1 -8.72811 4.98665 -7.35364 16
261 1 -7.07201 2.34999 -6.46883 21
262 1 -7.06859 0.122535 -4.02897 23
263 1 -8.70458 3.15314 -3.37994 19
264 1 -6.55807 6.16102 -8.92148 16
265 1 -6.87395 8.77321 -6.55692 14
266 1 -7.86766 6.2693 -4.51689 16
267 1 -11.6865 8.71071 -2.98144 10
268 1 -8.38536 9.60861 -4.34092 14
269 1 -4.58849 5.38377 -11.6517 12
270 1 -3.52345 2.85173 -11.5917 18
271 1 -3.38457 0.671956 -9.42983 21
272 1 -4.92467 3.39015 -8.7805 23
273 1 -5.07519 5.18175 -6.15156 21
274 1 -3.78631 2.22082 -6.41569 22
275 1 -3.69744 0.017838 -3.49976 24
276 1 -5.18285 2.87389 -3.6349 22
277 1 -1.43174 5.82656 -10.9869 19
278 1 -3.17306 6.52667 -8.78992 20
279 1 -5.30602 9.54563 -8.98664 10
280 1 -5.22514 11.4765 -6.68402 12
281 1 -3.4907 7.88024 -5.81784 19
282 1 -3.54819 5.74264 -3.25398 24
283 1 -5.16542 9.30101 -3.7149 19
284 1 -3.34832 12.3481 -3.8997 10
285 1 -2.40533 1.01818 -13.8739 11
286 1 -1.8203 4.18356 -13.5968 10
287 1 -0.362851 -2.17462 -13.794 12
288 1 -0.210182 0.814922 -8.60845 23
289 1 -1.62807 3.623 -8.96491 22
290 1 -1.69332 5.34474 -6.28106 23
291 1 -0.051141 2.38658 -6.33877 23
292 1 -0.371607 0.173264 -3.80796 21
293 1 -1.86202 2.94726 -3.97453 20
294 1 -0.279921 9.81659 -12.0731 7
295 1 0.175795 6.43639 -8.60769 19
296 1 -3.04852 12.2803 -8.39094 10
297 1 -1.74941 11.1197 -5.87194 16
298 1 -0.00634379 8.02676 -6.45812 20
299 1 -0.155315 5.62292 -3.52596 21
300 1 -1.68645 8.6672 -3.79705 19
301 1 -1.62293 9.17146 -9.60349 17
302 1 0.336347 11.4604 -8.55497 11
303 2 -12.854 -2.87753 -3.03729 13
304 2 -13.8418 -0.0295183 -2.04358 14
305 2 -10.1815 1.86336 -4.20419 21
306 2 -11.8797 2.67829 -5.83423 12
307 2 -9.97855 2.12067 -9.75963 11
308 2 -10.1229 -0.0944161 -1.30384 19
309 2 -12.0301 4.1802 0.934144 16
310 2 -11.4278 4.29502 -3.89708 15
311 2 -12.9421 2.77702 -2.07174 12
312 2 -10.3747 5.89719 -6.79784 13
313 2 -11.7168 5.77851 -1.49099 15
314 2 -11.9099 8.52327 -0.946661 10
315 2 -6.57431 0.398394 -11.5875 13
316 2 -6.57737 0.24682 -6.96585 22
317 2 -8.52979 3.20628 -7.27278 22
318 2 -8.10115 5.12927 -9.32899 11
319 2 -6.60823 2.49517 -9.79431 22
320 2 -6.98361 0.302515 -1.7368 24
321 2 -8.78516 3.00362 -1.19759 21
322 2 -8.50194 4.98264 -3.38049 18
323 2 -7.16602 2.08092 -4.61072 23
324 2 -7.24521 5.70554 -6.27723 18
325 2 -11.3078 7.20895 -4.18916 13
326 2 -8.52234 8.51739 -5.76058 12
327 2 -7.15339 5.77959 -0.765757 17
328 2 -9.61494 9.92511 0.809968 12
329 2 -10.0244 9.77427 -3.10872 11
330 2 -6.89497 7.72583 -3.74471 19
331 2 -7.45833 11.2519 -0.830802 11
332 2 -3.31839 0.313485 -12.3475 15
333 2 -5.42436 3.78534 -12.2964 11
334 2 -3.88635 0.484972 -7.42229 22
335 2 -5.40837 3.34371 -6.94333 21
336 2 -4.62838 5.29091 -9.62952 17
337 2 -3.16914 2.63148 -9.64171 24
338 2 -3.59344 0.15279 -1.2665 22
339 2 -5.28355 2.9254 -1.64199 22
340 2 -4.93612 4.90118 -4.23235 21
341 2 -3.61457 1.89858 -4.34643 22
342 2 -3.0022 4.91398 -12.0204 13
343 2 -3.74914 6.12781 -7.02324 21
344 2 -5.55185 9.86566 -5.58476 15
345 2 -3.41118 9.23523 -9.15259 14
346 2 -3.77385 5.55956 -1.04615 22
347 2 -5.56352 9.05784 -1.61701 19
348 2 -0.287538 8.35613 -8.27912 20
349 2 -3.6454 7.73247 -3.83619 20
350 2 -4.8298 11.3979 -8.51914 9
351 2 1.93327 10.674 -7.89838 14
352 2 -4.18799 11.0264 -2.68713 16
353 2 -0.0340277 0.0579589 -11.9035 21
354 2 -1.0002 -0.0904173 -14.4532 10
355 2 -0.636867 0.26069 -6.90681 20
356 2 -1.96212 3.20434 -6.61156 21
357 2 -1.7561 2.48337 -12.603 18
358 2 0.0691894 2.52496 -9.46845 20
359 2 -0.263463 0.268692 -1.643 24
360 2 -2.12659 2.99601 -1.76377 23
361 2 -1.85243 5.05066 -4.25187 21
362 2 0.0194616 2.10905 -4.3384 22
363 2 -0.252214 5.08544 -12.7815 10
364 2 0.00332272 5.70481 -6.448 20
365 2 -6.32907 8.17328 -8.22276 15
366 2 -1.11555 7.89933 -10.8969 14
367 2 -1.53164 5.6046 -8.90906 18
368 2 -0.308138 6.01093 -1.15128 21
369 2 -2.06997 8.41816 -1.45686 19
370 2 -1.73262 8.9123 -5.69825 20
371 2 -0.16 7.63251 -4.13975 20
372 2 -1.41459 11.7786 -7.56703 13
373 2 -1.50889 11.6105 -3.87338 12
374 2 -0.761081 12.1772 4.51473 12
375 2 -3.44356 11.9478 -5.93018 11
376 1 -14.0047 1.48967 -0.913602 13
377 1 -13.9297 -3.18762 3.59284 11
378 1 -13.9008 -0.559585 1.82219 14
379 1 -12.1388 3.96024 -1.07178 16
380 1 -10.1622 1.7623 -0.519465 24
381 1 -10.747 -0.378251 1.91565 24
382 1 -12.1366 2.53596 1.75541 17
383 1 -12.098 4.05434 4.68747 14
384 1 -10.2322 1.66187 4.40203 21
385 1 -10.3848 -0.336299 7.45775 18
386 1 -11.6836 2.75641 7.41628 13
387 1 -8.54801 -0.805029 9.51788 14
388 1 -12.4978 6.82193 -0.0813245 11
389 1 -10.9541 5.59623 2.098 17
390 1 -10.8013 7.72319 3.7715 14
391 1 -10.4412 5.85536 6.49576 14
392 1 -9.09889 5.11914 -0.836528 18
393 1 -6.93778 2.14369 -1.0426 24
394 1 -7.10553 0.0441818 1.93063 22
395 1 -8.76371 2.92636 1.89045 23
396 1 -8.71621 4.90926 4.48233 22
397 1 -7.18156 1.87001 4.22049 21
398 1 -6.99477 -0.343118 6.18094 20
399 1 -8.30559 2.77187 7.13974 23
400 1 -10.3919 1.86147 9.87475 12
401 1 -6.95776 2.09837 9.9566 21
402 1 -6.79265 0.0496224 12.3459 11
403 1 -9.09276 10.2609 -1.22232 12
404 1 -6.89789 7.37219 -1.80569 18
405 1 -7.29771 5.74258 1.30349 20
406 1 -11.3446 9.0763 0.794031 10
407 1 -8.85265 10.0308 2.71298 14
408 1 -6.95753 7.57216 3.54789 19
409 1 -9.09509 4.79514 8.78512 13
410 1 -7.0442 6.09859 6.97185 21
411 1 -5.9863 8.04021 8.25915 14
412 1 -7.02638 11.7072 0.97803 12
413 1 -5.33486 4.5675 -0.766423 22
414 1 -3.64375 2.1712 -0.908217 23
415 1 -3.59963 0.197212 1.79987 23
416 1 -5.40982 2.4831 1.55308 21
417 1 -5.23846 4.83598 4.22536 21
418 1 -3.60486 2.08356 4.45993 22
419 1 -3.5886 -0.140627 6.8996 20
420 1 -5.23657 2.6456 6.77882 20
421 1 -5.55943 5.10311 9.66184 19
422 1 -3.63031 2.17776 9.33685 23
423 1 -3.30569 0.497937 12.1585 15
424 1 -5.46391 3.52882 12.2295 11
425 1 -5.51338 10.9999 -1.282 14
426 1 -3.89136 7.82959 -1.43246 20
427 1 -3.98731 5.84027 1.58345 24
428 1 -5.32762 8.83114 1.74294 20
429 1 -8.82693 8.82779 6.1681 13
430 1 -3.44635 7.92835 4.01915 21
431 1 -3.86132 5.69491 6.75976 21
432 1 -5.77848 11.5153 4.2466 12
433 1 -4.29544 10.154 10.2273 9
434 1 -3.53953 6.85075 10.9489 14
435 1 0.1722 12.177 -3.25548 14
436 1 -4.35066 10.9687 7.60481 13
437 1 -5.60556 8.63276 5.47657 20
438 1 -2.03489 4.85235 -0.833204 24
439 1 -0.317944 2.25035 -1.07384 22
440 1 -0.185277 0.422776 1.71065 22
441 1 -2.05294 3.14954 1.44006 22
442 1 -1.71968 5.07108 4.04964 23
443 1 -0.369693 2.1146 4.40784 24
444 1 -0.315636 0.316088 6.89238 21
445 1 -2.02643 3.27343 6.99625 23
446 1 -2.07525 5.32931 8.91787 18
447 1 -0.258681 2.14312 9.59974 22
448 1 -0.00253086 0.255833 12.1625 14
449 1 -2.15075 3.60492 11.3041 16
450 1 -2.40185 10.3214 -2.06118 20
451 1 0.178396 8.01804 -1.11692 20
452 1 -0.42381 5.99884 1.3863 19
453 1 -1.99189 8.48505 0.488382 19
454 1 -2.65838 10.7706 4.25641 17
455 1 -0.178803 8.08154 3.70093 20
456 1 -0.528594 5.86162 6.54761 19
457 1 -1.92274 8.93207 6.58977 19
458 1 -1.65932 9.8571 11.7593 9
459 1 -0.398308 6.35422 11.4753 14
460 1 -0.182898 11.7177 0.36978 14
461 1 0.754887 10.8232 4.14819 19
462 1 -3.42757 11.466 1.17853 15
463 1 -1.08354 12.4348 6.4717 12
464 2 -13.6413 -1.22341 3.70424 12
465 2 -13.6455 1.32025 1.09054 14
466 2 -10.4808 -0.00773904 3.91895 23
467 2 -11.9781 4.40044 6.61423 12
468 2 -12.1511 2.56187 3.75954 16
469 2 -10.7191 1.29915 1.19749 21
470 2 -8.26237 -0.973096 11.6356 13
471 2 -10.4735 3.6169 8.95623 11
472 2 -10.6933 1.46998 6.57968 18
473 2 -9.99884 7.51331 6.40817 11
474 2 -10.5954 5.81674 4.29531 15
475 2 -8.76631 4.89158 6.71211 20
476 2 -7.22659 -0.115308 3.87745 22
477 2 -8.48841 3.07244 3.84049 24
478 2 -9.2149 5.14052 1.33515 22
479 2 -7.18548 2.04482 1.20641 21
480 2 -6.80262 0.15386 9.73847 20
481 2 -9.95827 0.224631 9.10858 14
482 2 -7.76574 3.43289 8.88156 16
483 2 -7.24844 1.76931 6.14424 21
484 2 -7.09957 -4.0095 11.6965 10
485 2 -7.03292 5.81235 4.24412 19
486 2 -11.5813 7.33365 1.68895 12
487 2 -7.20997 11.208 2.9325 14
488 2 -6.73262 7.50556 1.57297 17
489 2 -6.66606 6.3538 8.96991 14
490 2 -4.9787 9.4305 8.75457 14
491 2 -7.17502 7.97994 6.64535 16
492 2 -3.62127 0.0666994 3.95156 21
493 2 -5.04702 2.90248 3.87264 21
494 2 -5.37549 4.50947 1.47154 21
495 2 -3.57522 2.11423 1.00282 24
496 2 -3.63775 0.402764 8.70759 22
497 2 -5.20334 3.02476 8.82296 22
498 2 -5.49946 4.49732 6.07649 24
499 2 -3.45857 1.92185 6.38293 22
500 2 -4.86849 5.19157 11.6157 12
501 2 -4.98217 -0.155151 11.4281 16
502 2 -3.57161 6.10839 3.5709 24
503 2 -5.12564 8.92111 3.66708 20
504 2 -8.91224 8.57048 3.86847 16
505 2 -3.88202 7.7585 0.840307 22
506 2 -0.0924077 5.51504 8.58184 19
507 2 -3.9205 6.36036 8.66704 19
508 2 -5.41561 10.4404 6.04764 16
509 2 -3.47316 7.67724 6.12777 23
510 2 -4.14083 11.6565 3.27621 13
511 2 0.272232 11.7849 -1.49945 13
512 2 -0.300022 0.300967 3.97392 20
513 2 -2.05969 3.19285 3.72337 22
514 2 -2.17998 5.0635 1.37117 19
515 2 -0.364478 2.30254 0.865843 25
516 2 -0.374478 0.288925 9.87507 19
517 2 -2.095 3.46309 9.11699 21
518 2 -2.09645 5.03472 5.99368 22
519 2 -0.404095 2.29068 6.48465 22
520 2 -2.06673 5.468 11.2207 14
521 2 -1.81411 -0.865826 11.8964 16
522 2 0.112884 6.17388 3.47368 20
523 2 -1.81936 9.20447 3.74916 18
524 2 -5.16145 11.2016 0.643185 14
525 2 -0.0180374 7.84906 0.932801 19
526 2 -0.416229 2.11789 11.6531 17
527 2 -3.21566 11.3901 9.13104 12
528 2 -2.16749 10.7133 6.33725 16
529 2 -0.191675 7.99929 6.22207 20
530 2 -3.24574 8.8417 11.2101 11
531 2 1.96057 10.561 5.95882 16
532 2 -2.21329 11.0629 -0.251676 15
533 1 1.29153 -11.9843 -7.47637 11
534 1 1.97174 -6.68841 -11.5997 14
535 1 3.87807 -11.0558 -7.95235 14
536 1 1.08497 -5.87564 -6.36464 23
537 1 5.42455 -13.2441 -5.94363 9
538 1 3.08746 -11.2514 -4.74587 22
539 1 1.08801 -8.46741 -3.80337 23
540 1 -0.00190839 -3.87767 -11.4009 21
541 1 0.761927 0.565305 -13.9621 13
542 1 5.88097 -1.88719 -11.3462 13
543 1 3.05133 -6.06469 -8.82218 21
544 1 1.77258 -2.61665 -8.74607 23
545 1 1.28728 -0.472818 -6.47799 23
546 1 3.09458 -3.36528 -6.24684 21
547 1 2.97194 -5.53146 -3.14347 25
548 1 1.55251 -2.64147 -3.92171 21
549 1 1.18335 -8.72446 -8.9481 14
550 1 2.67999 -8.98636 -6.48302 21
551 1 4.34936 -5.95786 -5.82615 21
552 1 7.28348 -10.4094 -7.12466 10
553 1 6.48791 -11.6203 -3.84271 11
554 1 4.67011 -8.38467 -3.94803 20
555 1 3.05449 -1.29345 -13.1806 11
556 1 3.38878 2.08738 -11.8233 17
557 1 8.29974 -3.23634 -9.71967 11
558 1 5.20999 -2.90292 -8.83079 19
559 1 4.56236 -1.02348 -6.27015 21
560 1 6.69252 -4.21273 -6.42558 17
561 1 6.39494 -5.90258 -3.43138 23
562 1 4.9586 -3.12604 -3.61807 24
563 1 11.2338 -3.34027 -4.03392 16
564 1 9.9993 -6.19958 -3.57725 13
565 1 9.17693 4.2443 -11.6106 9
566 1 5.36718 -5.42885 -10.4637 11
567 1 9.121 0.216005 -11.5495 11
568 1 8.1618 -1.37377 -6.10207 21
569 1 9.95529 -3.42512 -7.38808 10
570 1 5.48642 -7.80187 -8.08726 13
571 1 8.31937 -3.14908 -3.36391 24
572 1 7.64768 -8.72522 -4.24962 15
573 1 11.9377 -1.22746 -5.11224 16
574 1 8.2088 -6.87271 -6.26664 12
575 2 3.54753 -12.1241 2.2606 11
576 2 1.55487 -11.5729 -5.64459 16
577 2 4.75226 -12.5258 -7.50526 10
578 2 0.860414 -7.99099 -6.79527 20
579 2 1.42452 -6.91657 -9.57058 20
580 2 3.58113 -4.0964 -9.31386 19
581 2 4.57578 -12.5815 -4.46456 12
582 2 1.13532 -8.74114 -1.8437 23
583 2 1.43858 -6.36327 -4.43898 24
584 2 2.95819 -9.25104 -4.45791 22
585 2 2.20122 -10.2004 -8.06451 15
586 2 1.63608 -2.74235 -11.1176 18
587 2 2.81185 -5.05526 -6.99462 24
588 2 1.35619 -2.80159 -6.71168 20
589 2 1.70458 -0.434328 -9.08837 18
590 2 3.53687 -5.53346 -11.8588 12
591 2 2.89168 -5.52565 -1.32003 22
592 2 1.29801 -2.81049 -1.23738 21
593 2 1.36956 -0.831279 -4.47163 24
594 2 3.31521 -3.8401 -4.1567 23
595 2 6.85287 -11.5993 -5.66735 11
596 2 5.57629 -9.83715 -7.78312 11
597 2 7.38229 -0.334529 -11.3365 13
598 2 5.64957 -11.7686 -1.78211 11
599 2 4.37901 -8.60013 -2.20504 22
600 2 4.55911 -6.24369 -3.7967 20
601 2 6.25533 -9.66427 -3.30258 18
602 2 4.1889 -1.86249 -11.9742 14
603 2 6.31164 -6.32151 -5.91319 16
604 2 5.21431 -2.9449 -6.90998 21
605 2 4.86329 -1.03251 -9.28858 18
606 2 6.46748 -3.47021 -10.4065 14
607 2 6.27384 -5.74065 -1.14306 22
608 2 4.9218 -2.96759 -1.58898 23
609 2 4.91791 -1.05496 -4.4191 23
610 2 6.50166 -3.98229 -4.24342 21
611 2 7.88875 -8.74334 -6.28791 10
612 2 13.6646 -1.68652 -1.82489 12
613 2 7.3105 -8.76151 -0.513061 17
614 2 8.47762 -7.03847 -4.24942 14
615 2 11.5225 -6.90846 -2.6725 10
616 2 5.03615 -6.90026 -9.41307 14
617 2 8.37271 -3.36565 -6.57481 17
618 2 1.31228 -1.34036 -13.9678 11
619 2 9.41607 -1.90765 -8.86237 13
620 2 8.17985 -7.07258 1.98303 18
621 2 7.71952 -2.89361 -1.62771 21
622 2 8.18726 -1.05774 -3.97691 21
623 2 11.1188 -1.54437 -3.34437 17
624 2 12.8643 -7.15656 -0.251279 12
625 2 13.9074 -4.99373 -1.34683 8
626 2 11.177 -3.011 -6.04431 11
627 2 9.62631 -5.94433 -0.608649 19
628 2 11.1667 -3.19249 -0.577915 22
629 2 12.9999 0.553068 -4.55833 12
630 2 9.84157 -4.40515 -3.29429 15
631 1 1.04952 -12.4109 -1.67847 13
632 1 1.80773 -12.7061 3.27586 13
633 1 1.31552 -6.9417 -1.036 20
634 1 2.82885 -9.26542 -1.39317 22
635 1 3.40371 -11.7008 0.41152 15
636 1 1.82621 -8.76174 1.63052 23
637 1 1.48221 -6.65217 4.84528 24
638 1 3.22299 -9.87885 4.85422 22
639 1 -0.148469 -11.3343 6.19888 18
640 1 1.62997 -8.3293 6.71439 22
641 1 2.05905 -6.94419 9.74869 18
642 1 3.50181 -9.65656 9.10133 14
643 1 1.26687 -0.779563 -0.899786 20
644 1 3.25791 -3.51138 -1.17096 21
645 1 3.31168 -5.65747 1.52541 20
646 1 1.31573 -2.91954 1.30587 20
647 1 1.13051 -0.918466 4.2367 21
648 1 3.23395 -3.67155 4.64838 22
649 1 3.49645 -5.37709 6.9476 23
650 1 1.59915 -2.58406 6.91228 21
651 1 1.41019 -0.755796 9.64453 22
652 1 2.96133 -4.01519 9.79712 21
653 1 3.26853 -5.15543 12.6813 13
654 1 1.21292 -2.50111 11.7854 16
655 1 4.0594 -12.3538 -2.52374 14
656 1 2.12405 -12.4287 8.39925 8
657 1 4.76641 -7.23457 -0.724584 19
658 1 6.0243 -10.1407 -1.14867 17
659 1 5.12112 -11.3684 2.90253 11
660 1 4.74902 -8.8137 1.86628 22
661 1 4.75947 -6.58308 4.36418 19
662 1 4.9802 -11.24 6.60688 13
663 1 5.40873 -8.20895 7.55047 23
664 1 5.15848 -6.71353 9.97589 19
665 1 4.72924 -1.01647 -1.23023 23
666 1 6.42284 -3.9742 -0.597401 24
667 1 6.48005 -6.07931 2.24853 22
668 1 4.68613 -2.89491 1.70617 22
669 1 4.70968 -0.665941 4.35954 23
670 1 6.33409 -3.49604 4.48161 21
671 1 10.1533 -5.86874 6.51675 14
672 1 4.99263 -2.63344 7.78823 22
673 1 4.76741 -0.588281 10.0762 23
674 1 6.64424 -5.51533 6.92102 18
675 1 4.77093 -2.75287 12.1414 14
676 1 7.90465 -7.01232 -0.371883 18
677 1 10.9123 -7.74552 -0.882725 13
678 1 8.31189 -8.91123 1.43667 14
679 1 9.10845 -7.661 3.86496 16
680 1 6.2982 -9.20594 4.92535 16
681 1 8.57144 -9.91955 6.57818 9
682 1 6.50477 -6.44875 12.7211 7
683 1 8.38097 -1.0059 -1.19753 21
684 1 9.584 -3.97273 -1.17493 21
685 1 9.69106 -5.57737 1.3492 21
686 1 8.22935 -3.16149 1.85378 23
687 1 8.08383 -0.968101 4.39103 22
688 1 9.41523 -3.83387 4.331 21
689 1 6.82716 -9.06173 9.96904 11
690 1 8.57376 -2.97353 7.09154 20
691 1 6.97431 -3.71133 9.65998 15
692 1 8.07438 -6.94314 9.05987 13
693 1 13.3122 -6.5357 -2.07266 7
694 1 12.1196 -8.23911 1.7174 9
695 1 11.8705 -5.57839 3.94618 15
696 1 11.6246 -1.12321 -1.33306 22
697 1 13.4974 -3.40024 -0.492098 12
698 1 13.7312 -5.60242 0.666684 12
699 1 11.5568 -3.0103 1.36032 20
700 1 11.6245 -0.427474 4.46323 14
701 1 14.1847 -3.13225 2.93341 9
702 1 11.9492 -2.81762 6.0401 11
703 2 0.805028 -11.4177 4.38057 17
704 2 -4.89507 -10.92 8.41059 9
705 2 3.72538 -11.491 8.05789 11
706 2 1.50388 -8.72737 4.12169 21
707 2 1.12705 -7.13946 0.971942 22
708 2 3.45687 -9.70207 0.922651 19
709 2 1.57756 -8.5485 8.95632 17
710 2 1.68686 -6.37312 6.77854 23
711 2 3.59004 -9.08686 6.77201 23
712 2 1.94251 -5.7073 11.4169 14
713 2 2.99676 -5.95299 3.80246 23
714 2 1.48386 -2.79323 4.46835 21
715 2 1.22795 -1.08161 1.14212 22
716 2 3.12171 -3.78199 1.0019 22
717 2 6.45089 -5.52129 9.02559 22
718 2 1.65868 -2.64154 9.15465 22
719 2 1.16913 -0.735573 6.68613 24
720 2 3.40502 -3.42209 6.68009 21
721 2 1.72845 -0.312546 11.6425 18
722 2 2.98521 -3.2766 11.8519 17
723 2 2.57678 -11.223 -2.15556 19
724 2 4.76508 -11.3116 4.7679 13
725 2 4.85286 -8.54711 4.11761 21
726 2 4.80858 -6.82996 1.28503 22
727 2 6.38332 -9.70482 2.28844 15
728 2 5.07482 -8.72941 9.28106 17
729 2 5.08313 -6.47578 6.32292 22
730 2 6.56508 -9.89548 6.50865 14
731 2 4.59577 -6.40098 12.1622 13
732 2 6.16127 -5.39189 4.04266 22
733 2 4.60311 -2.52197 3.6734 20
734 2 4.7192 -1.10869 0.983334 24
735 2 6.61762 -4.15835 1.4511 21
736 2 5.08559 -2.51226 9.72432 18
737 2 3.5038 -5.75917 9.25806 21
738 2 4.77926 -0.729142 6.68874 23
739 2 6.34922 -3.5724 6.65059 22
740 2 4.8297 -0.533555 12.2181 12
741 2 6.06444 -4.38881 12.587 11
742 2 8.64231 -9.04225 4.85628 11
743 2 10.037 -6.02775 4.3274 14
744 2 10.365 -8.54821 0.798486 11
745 2 8.42574 -8.86644 8.36519 11
746 2 8.56259 -5.8898 7.48119 14
747 2 7.76942 -2.83377 3.72929 21
748 2 8.27288 -1.2935 0.85639 23
749 2 10.0384 -4.03917 2.31494 20
750 2 7.14983 -7.49477 10.985 10
751 2 8.8041 -3.24459 8.96269 14
752 2 8.28397 -1.04163 6.33884 23
753 2 10.25 -3.89785 5.98874 16
754 2 7.61226 -1.07097 11.285 13
755 2 12.2984 -6.67733 2.52689 13
756 2 12.8626 -4.03638 4.59981 14
757 2 11.4282 -1.03289 0.905399 20
758 2 13.296 -3.90854 1.50287 15
759 2 11.2477 -1.051 6.14545 15
760 1 9.9323 5.71689 -9.5 15
761 1 3.59866 -3.74082 -11.2627 16
762 1 1.37536 4.82506 -11.9676 15
763 1 0.0350145 2.32659 -11.444 23
764 1 3.46523 0.200413 -8.89072 19
765 1 1.68404 3.30186 -8.54187 24
766 1 1.95302 5.02398 -6.05555 23
767 1 3.45675 2.01294 -6.28007 24
768 1 2.96888 0.0487776 -3.93319 20
769 1 1.68857 2.99886 -3.74486 21
770 1 2.69151 7.57753 -11.5263 12
771 1 3.1973 5.97571 -9.06921 19
772 1 1.45607 9.08822 -9.14037 17
773 1 2.22173 10.743 -5.9117 15
774 1 3.41886 7.87315 -6.15277 21
775 1 3.42736 6.18982 -3.24788 21
776 1 1.65734 8.69131 -4.02242 20
777 1 3.44565 11.9363 -3.81547 13
778 1 4.79634 4.8905 -11.6173 14
779 1 6.92918 1.77074 -11.4301 14
780 1 6.30728 0.0584659 -8.66505 20
781 1 5.04021 3.2778 -8.80294 21
782 1 4.94072 4.9647 -6.27936 21
783 1 6.66179 1.98626 -6.08577 19
784 1 6.669 -0.148208 -3.63615 24
785 1 5.10203 2.51537 -3.46512 20
786 1 6.68386 5.92628 -9.29183 20
787 1 4.83289 8.43516 -9.22047 16
788 1 5.62805 10.2634 -6.23432 13
789 1 6.55978 7.65287 -6.82546 20
790 1 6.49459 5.63661 -3.41775 22
791 1 5.46086 8.7682 -3.50317 21
792 1 8.58484 9.65409 -5.5688 13
793 1 10.6339 0.0666173 -8.19175 14
794 1 8.64516 2.80955 -8.8564 23
795 1 8.21006 4.77879 -6.25306 21
796 1 9.53805 1.36882 -5.72986 20
797 1 9.89939 -0.0308386 -3.31321 22
798 1 8.8894 3.05254 -3.50011 22
799 1 8.19281 9.03884 -9.27601 10
800 1 10.4116 7.26165 -7.1019 12
801 1 9.61525 6.6018 -4.09631 18
802 1 11.5317 9.16099 -4.26148 9
803 1 11.2037 3.72211 -7.22602 13
804 1 11.1501 2.41466 -10.3708 10
805 1 14.273 -0.339328 -3.50654 8
806 1 12.324 2.26492 -4.02303 14
807 2 2.64066 0.625369 -12.884 11
808 2 1.83701 2.96148 -11.9165 16
809 2 3.13725 0.166327 -6.91606 23
810 2 1.61333 3.18115 -6.58282 21
811 2 1.64244 4.98253 -9.33565 22
812 2 3.28024 2.19002 -8.90079 19
813 2 3.14809 0.0722719 -1.52624 22
814 2 1.41802 3.25274 -1.54795 21
815 2 1.71071 4.80474 -4.04073 21
816 2 3.09542 1.79987 -4.00501 22
817 2 3.08297 5.89625 -12.0672 12
818 2 3.4006 6.14701 -6.74957 23
819 2 1.92683 8.87686 -5.99956 21
820 2 1.3263 8.89037 -11.8657 9
821 2 3.07626 7.68355 -9.57588 17
822 2 3.33125 5.93629 -1.26415 19
823 2 1.62241 9.05491 -2.03112 22
824 2 1.45765 11.7455 -4.65267 13
825 2 3.64904 8.03889 -3.86676 20
826 2 -0.302432 10.8273 -10.0605 11
827 2 3.58416 11.7082 -1.9869 14
828 2 0.498294 12.8637 1.67595 10
829 2 8.60692 8.86207 -1.14536 14
830 2 8.14198 5.02636 -9.98924 17
831 2 5.28535 2.69862 -12.1804 12
832 2 6.80209 0.0864391 -6.80646 22
833 2 4.9321 3.03447 -6.77652 22
834 2 4.73802 4.99728 -9.72259 20
835 2 6.51803 1.93902 -9.10398 18
836 2 6.41029 -0.296639 -1.675 23
837 2 5.08209 2.89042 -1.38231 20
838 2 4.83971 5.06904 -4.20703 22
839 2 6.77681 1.61195 -4.08808 21
840 2 6.68056 5.70344 -6.97712 22
841 2 5.21667 8.72039 -7.25483 21
842 2 6.71287 7.87397 -9.44452 12
843 2 6.68794 5.85175 -1.58989 21
844 2 5.29664 8.91932 -1.60513 19
845 2 4.17868 10.8809 -5.43511 13
846 2 6.77125 9.06921 -5.13362 16
847 2 9.40555 7.11391 2.00525 17
848 2 10.4528 -0.295804 -6.33436 20
849 2 8.64471 2.94963 -6.76542 19
850 2 8.75986 2.45551 -11.3445 13
851 2 10.6242 4.24995 -10.5312 11
852 2 9.95638 -0.126961 -1.47491 22
853 2 8.10178 3.00395 -1.72884 24
854 2 8.11501 5.31444 -4.36104 17
855 2 10.1119 1.64712 -3.7037 19
856 2 10.0566 5.10651 -7.40129 16
857 2 9.42793 7.50598 -8.94988 12
858 2 10.1897 6.16759 -2.31506 16
859 2 9.77127 10.3407 -4.03704 10
860 2 7.92456 9.10391 -7.36221 14
861 2 9.84471 8.23064 -5.36796 15
862 2 10.649 2.29512 -8.45463 14