ITEM: TIMESTEP
145000
ITEM: NUMBER OF ATOMS
1000
ITEM: BOX BOUNDS pp pp pp
-30.0 30.0
-30.0 30.0
-30.0 30.0
ITEM: ATOMS id type x y z Coordination
1 1 -11.8622 -0.500545 -6.20976 16
2 1 -10.1585 -3.6091 -6.4204 17
3 1 -10.6533 -6.07262 -4.55693 14
4 1 -12.5028 -3.46257 -4.79163 13
5 1 -8.56998 -6.59463 -6.87287 16
6 1 -6.94472 -9.31265 -6.37183 18
7 1 -7.13768 -11.1555 -4.22349 15
8 1 -8.88965 -8.84281 -4.18005 13
9 1 -8.49568 -0.790007 -11.6691 12
10 1 -6.68052 -3.78061 -12.5779 12
11 1 -7.82792 -5.2559 -9.90122 13
12 1 -8.52911 -2.45458 -9.05859 16
13 1 -8.81131 -0.536208 -6.21932 24
14 1 -6.99853 -3.47378 -6.67489 21
15 1 -7.35443 -5.56288 -4.25036 21
16 1 -8.37524 -2.74592 -3.9197 21
17 1 -5.18593 -6.44631 -11.4743 13
18 1 -6.06322 -7.99814 -9.10792 13
19 1 -5.2928 -6.52361 -6.35576 26
20 1 -4.1252 -9.47101 -6.26629 20
21 1 -3.73574 -11.5595 -3.57535 14
22 1 -5.1763 -8.57708 -3.42354 23
23 1 -5.08275 -0.684306 -12.0134 18
24 1 -3.73734 -3.61251 -11.483 18
25 1 -3.68612 -5.43437 -8.9176 23
26 1 -5.31688 -2.66524 -9.29322 22
27 1 -5.34435 -0.800225 -6.26297 23
28 1 -3.73556 -3.88588 -6.36683 22
29 1 -3.53999 -5.92502 -3.71308 23
30 1 -5.08542 -2.71963 -3.70789 21
31 1 -4.81026 -12.0693 -6.92621 10
32 1 -1.73178 -6.14744 -11.6021 16
33 1 -1.72346 -10.851 -8.28645 11
34 1 -2.7587 -8.29906 -8.86498 17
35 1 -1.97594 -6.50528 -6.43473 21
36 1 -0.659907 -9.37251 -6.32571 23
37 1 -0.193683 -11.3656 -3.43695 18
38 1 -1.96068 -8.90728 -3.68737 23
39 1 -2.11396 -0.862977 -11.492 19
40 1 -0.370379 -3.55173 -11.5683 21
41 1 -0.318953 -5.55197 -9.00192 24
42 1 -2.12137 -2.5979 -8.90683 24
43 1 -2.15338 -0.893826 -6.08262 23
44 1 -0.312011 -3.75162 -6.22897 22
45 1 -0.386433 -6.05329 -3.62722 23
46 1 -2.1701 -2.93356 -3.28713 23
47 2 -12.2615 -2.58405 -1.049 21
48 2 -11.9769 -5.03985 -3.36251 15
49 2 -8.72737 -10.5688 -3.23843 11
50 2 -10.1766 -5.57938 -6.37793 14
51 2 -11.6754 -2.28595 -6.05671 15
52 2 -8.23528 -2.58838 -11.8342 11
53 2 -10.5157 -6.13819 -1.37507 17
54 2 -14.3366 -5.27818 -1.13004 10
55 2 -12.2553 0.117284 -4.43036 16
56 2 -10.1727 -3.39901 -4.2795 21
57 2 -8.52989 -8.24965 -5.8451 16
58 2 -7.87925 -7.03401 -8.87145 13
59 2 -5.19794 -12.5342 1.63669 12
60 2 -8.7668 -8.91971 -0.955753 15
61 2 -8.94777 -6.56732 -3.61062 19
62 2 -6.90602 -9.15338 -4.07016 20
63 2 -6.93677 -5.37741 -6.27151 21
64 2 -8.75757 -2.40807 -6.9986 20
65 2 -8.68847 -0.55467 -9.62063 17
66 2 -7.12606 -3.67772 -8.90911 18
67 2 -7.21282 -5.79736 -0.895819 19
68 2 -8.71306 -2.91016 -1.87008 20
69 2 -8.74985 -0.685776 -4.269 23
70 2 -6.77267 -3.6626 -4.2862 21
71 2 -5.60631 -11.9335 -3.28792 14
72 2 -3.51812 -10.8822 -7.67456 12
73 2 -5.42769 -8.33883 -7.37177 20
74 2 -6.86426 -5.34702 -11.4781 12
75 2 -4.61839 -7.00775 -9.68214 16
76 2 -1.86595 -12.1875 -3.1433 13
77 2 -5.09065 -8.43837 -1.2757 21
78 2 -5.25263 -6.71935 -4.1384 22
79 2 -3.79247 -9.53046 -4.2776 24
80 2 -3.56385 -5.56717 -11.7886 13
81 2 -5.12084 -2.66984 -12.4655 15
82 2 -3.55351 -5.66497 -6.98568 22
83 2 -5.24067 -2.79475 -7.06647 23
84 2 -5.02694 -0.927421 -10.0248 25
85 2 -3.59362 -3.60228 -9.53472 23
86 2 -3.54529 -5.59247 -1.4732 22
87 2 -5.17542 -2.90636 -1.55124 22
88 2 -5.52239 -0.824539 -4.30023 24
89 2 -3.68191 -3.92457 -4.08337 23
90 2 -3.51861 -11.5817 -1.38942 20
91 2 -6.07314 -10.8932 -6.19164 13
92 2 -0.396413 -11.1705 -7.0858 13
93 2 -2.40116 -8.43292 -6.76628 21
94 2 -1.96042 -6.42126 -9.58912 21
95 2 -1.23055 -9.27897 -9.49532 12
96 2 0.199134 -11.6067 -1.66022 17
97 2 -1.75814 -8.65096 -1.56206 25
98 2 -2.01864 -6.91226 -4.31732 22
99 2 -0.298666 -9.63414 -4.50362 22
100 2 -0.105179 -5.3654 -12.2621 13
101 2 -2.06755 -2.71134 -11.7692 18
102 2 -0.205943 -5.76728 -7.00389 22
103 2 -1.90235 -2.74864 -6.92509 23
104 2 -2.02383 -0.737805 -9.53915 24
105 2 -0.160542 -3.64771 -9.28014 23
106 2 -0.369626 -5.71441 -1.78554 23
107 2 -1.78001 -3.06242 -1.26029 21
108 2 -2.07983 -1.02907 -3.88077 20
109 2 -0.418787 -4.06044 -4.17405 22
110 1 -13.3646 -3.76465 -2.13357 15
111 1 -12.3911 -6.60699 -1.59519 11
112 1 -9.19602 -10.6534 -1.43024 11
113 1 -10.6166 -3.94125 3.85938 20
114 1 -12.1931 -0.550243 -0.816053 20
115 1 -10.488 -3.76288 -2.19015 20
116 1 -10.458 -5.59204 0.656356 19
117 1 -14.102 -5.68423 0.710059 8
118 1 -12.278 -0.702361 4.82875 15
119 1 -12.3971 -2.8519 0.829861 17
120 1 -10.0069 -5.77462 6.51365 12
121 1 -12.0142 -3.06964 6.3747 11
122 1 -8.80828 -6.86309 -1.73295 19
123 1 -6.6286 -9.62424 -0.789802 21
124 1 -6.96623 -11.4254 1.41925 15
125 1 -8.71779 -8.27568 0.985055 16
126 1 -8.61235 -6.59388 3.65367 18
127 1 -7.14864 -9.71711 4.41354 15
128 1 -8.59011 -8.50879 6.27151 11
129 1 -8.76217 -1.11351 -0.940872 21
130 1 -7.13721 -3.79256 -1.07922 20
131 1 -7.02463 -5.83918 1.49441 21
132 1 -8.94527 -3.01852 1.64663 19
133 1 -8.72143 -1.24602 4.34913 23
134 1 -7.2145 -4.07053 4.52021 22
135 1 -6.83326 -6.00605 7.28976 20
136 1 -8.63527 -3.03176 7.4196 21
137 1 -8.62478 -1.44532 9.91077 13
138 1 -6.52301 -3.98479 10.1867 16
139 1 -5.34531 -12.1639 -1.05466 15
140 1 -5.57827 -12.4752 3.37313 9
141 1 -5.26953 -6.51158 -0.895957 21
142 1 -3.44722 -9.59484 -1.01661 22
143 1 -3.54642 -11.6122 1.45073 17
144 1 -5.34707 -8.65252 1.73982 21
145 1 -5.30026 -6.83557 4.50706 23
146 1 -3.63365 -9.81047 4.22104 22
147 1 -3.27215 -11.4635 7.1668 12
148 1 -5.00588 -8.70126 7.08262 19
149 1 -5.16265 -7.09762 9.71665 15
150 1 -3.23688 -10.1526 9.72379 10
151 1 -5.31377 -1.0562 -0.789762 23
152 1 -3.58285 -3.77734 -0.922558 22
153 1 -3.6301 -5.75071 1.8325 23
154 1 -5.45674 -3.1266 1.85398 24
155 1 -5.37505 -1.11504 4.54623 26
156 1 -3.95362 -3.91789 4.67246 21
157 1 -3.48019 -5.96524 7.11773 21
158 1 -5.53758 -2.93534 7.1787 22
159 1 -5.35711 -1.0513 9.93224 22
160 1 -3.44466 -4.08124 9.56141 21
161 1 -3.53802 -5.25902 12.5689 11
162 1 -4.81802 -2.67899 12.7587 13
163 1 -1.73115 -12.2838 -1.01263 16
164 1 -2.11103 -12.5742 4.21595 14
165 1 -1.87854 -6.54307 -0.798398 23
166 1 -0.209461 -9.63271 -0.753612 25
167 1 -0.376988 -11.863 1.86248 19
168 1 -2.07546 -8.75284 1.99093 24
169 1 -1.95143 -6.84004 4.26938 21
170 1 -0.200641 -9.80227 4.53765 23
171 1 -0.311051 -11.8364 7.23596 14
172 1 -2.08982 -8.85023 6.83046 21
173 1 -1.95342 -6.69397 9.95307 19
174 1 -0.368588 -9.79745 9.38927 12
175 1 -1.82757 -1.16971 -0.814747 23
176 1 -0.102818 -4.02069 -0.676384 22
177 1 -0.325748 -5.86322 1.81903 24
178 1 -2.02521 -3.00792 1.92568 23
179 1 -1.99557 -0.822354 4.55421 21
180 1 -0.500412 -3.94267 4.43934 21
181 1 -0.343463 -5.77884 6.94073 20
182 1 -2.03914 -2.84093 7.2855 22
183 1 -1.96589 -0.997599 9.66774 20
184 1 -0.3289 -3.85883 9.46683 22
185 1 -0.220294 -5.43026 12.1538 14
186 1 -1.52621 -2.57684 12.5419 16
187 2 -13.8856 -3.94097 1.71822 13
188 2 -12.3229 -6.19193 0.449003 12
189 2 -7.26039 -11.4594 -0.605761 14
190 2 -9.99279 -5.64974 4.59705 16
191 2 -12.1892 -3.03861 4.49969 14
192 2 -12.2412 -0.919441 1.10178 19
193 2 -10.7061 -3.86051 1.81834 18
194 2 -11.6848 -1.30257 6.58767 13
195 2 -10.4821 -3.9382 7.02898 13
196 2 -6.96619 -11.2166 3.31921 13
197 2 -8.58639 -8.32749 4.29406 14
198 2 -8.94611 -6.58063 1.59772 18
199 2 -7.03455 -9.47826 1.06663 19
200 2 -8.49853 -6.83966 7.03689 15
201 2 -6.77548 -9.57611 6.4462 13
202 2 -6.80827 -5.96195 3.84658 23
203 2 -8.60136 -3.12549 3.70158 23
204 2 -8.69885 -0.984174 1.0571 23
205 2 -7.21661 -3.90603 1.13052 23
206 2 -6.4402 -5.7995 9.25745 16
207 2 -7.93203 -3.12384 9.31987 14
208 2 -8.5548 -1.26469 6.47381 21
209 2 -7.11336 -4.08314 6.44896 23
210 2 -4.88686 -3.9798 11.3588 15
211 2 -1.96643 -12.5643 0.954735 17
212 2 -3.6936 -11.8391 3.58429 17
213 2 -5.20168 -8.66403 3.90417 22
214 2 -5.133 -6.7064 1.20961 23
215 2 -3.61091 -9.69414 1.01118 23
216 2 -4.82754 -8.79222 9.08932 15
217 2 -5.16115 -6.84601 6.62778 22
218 2 -3.6996 -9.92259 6.16439 19
219 2 -3.51443 -5.83836 3.94317 23
220 2 -5.52105 -2.96784 3.81052 24
221 2 -5.4446 -1.27322 1.17532 24
222 2 -3.60327 -3.80257 1.35732 24
223 2 -3.59972 -5.96631 9.29086 20
224 2 -4.98112 -2.7204 9.00138 21
225 2 -5.56158 -0.910474 6.53833 22
226 2 -3.72633 -3.71625 6.88488 21
227 2 -5.15578 -0.857651 12.2582 15
228 2 -2.98798 -3.3845 13.1794 12
229 2 -0.236914 -11.7681 3.93816 18
230 2 -1.77087 -10.9839 8.34882 12
231 2 -1.77941 -12.4974 6.10243 13
232 2 -1.80577 -8.88691 3.87576 22
233 2 -2.15826 -6.9112 1.36619 22
234 2 -0.114067 -9.595 1.18092 25
235 2 -1.88793 -8.58602 9.74271 14
236 2 -1.88216 -7.03054 6.51159 22
237 2 -0.181244 -9.93313 6.56281 21
238 2 -2.02225 -5.8937 11.6455 15
239 2 -0.237856 -5.81419 3.70193 24
240 2 -2.20466 -2.85798 3.94296 22
241 2 -1.89781 -0.610252 1.30193 21
242 2 -0.308956 -3.90807 1.24466 25
243 2 -0.204652 -5.82057 9.20778 23
244 2 -2.03785 -2.91005 9.38018 23
245 2 -2.13926 -0.904887 6.78096 22
246 2 -0.30477 -3.8844 6.53732 21
247 2 -1.82432 -0.737434 11.9356 17
248 2 -0.0632826 -3.58814 12.1697 17
249 1 -13.6369 -0.720959 -3.35244 13
250 1 -10.0845 0.40675 -8.98146 13
251 1 -12.2157 4.91171 -5.76707 9
252 1 -10.3472 2.24957 -6.78298 18
253 1 -10.5315 -0.00676988 -3.52926 22
254 1 -12.2439 2.32218 -4.09981 15
255 1 -10.0642 7.86253 -5.3618 10
256 1 -10.1913 5.82483 -3.77169 19
257 1 -6.92619 2.03033 -11.6461 13
258 1 -6.83125 -0.0297545 -8.94069 25
259 1 -8.2394 3.31954 -9.21999 16
260 1 -8.77491 5.25005 -6.7101 21
261 1 -7.03169 2.12474 -6.13209 22
262 1 -7.04948 0.123596 -3.65255 22
263 1 -8.8084 3.12372 -4.25581 21
264 1 -6.62331 6.25123 -8.96771 15
265 1 -6.99885 7.75149 -6.28137 19
266 1 -6.98776 5.87579 -3.57773 20
267 1 -8.37516 8.914 -3.51312 18
268 1 -7.22179 11.913 -3.10422 10
269 1 -4.96876 4.98402 -11.2722 13
270 1 -3.73863 2.23389 -11.7775 20
271 1 -3.62628 0.267822 -9.20246 22
272 1 -5.39165 3.04142 -9.0063 19
273 1 -5.1674 4.94408 -5.86621 24
274 1 -3.73106 2.03091 -6.32572 22
275 1 -3.82207 -0.191537 -3.3659 23
276 1 -5.25461 2.94899 -3.39862 23
277 1 -3.00779 7.82924 -10.8651 14
278 1 -3.38231 5.97527 -8.44151 23
279 1 -4.77071 8.98805 -8.28377 16
280 1 -5.71226 10.5863 -5.98029 14
281 1 -3.51173 7.72907 -5.58068 24
282 1 -3.34461 5.60782 -3.26544 23
283 1 -5.16703 8.62965 -3.59403 23
284 1 -3.96642 11.5417 -3.65844 17
285 1 -1.77216 0.448108 -13.7713 11
286 1 -1.84692 5.05239 -11.5332 18
287 1 -0.11133 1.88872 -11.3026 24
288 1 -0.50564 0.100184 -8.46754 24
289 1 -1.79722 3.06954 -9.02432 22
290 1 -1.79018 4.76389 -6.15617 22
291 1 -0.261934 2.21769 -6.07451 22
292 1 -0.426001 -0.0487123 -3.44545 23
293 1 -1.99053 2.6499 -3.35424 24
294 1 -0.305349 7.3231 -13.0084 12
295 1 -0.13278 6.07458 -8.95316 25
296 1 -1.52056 8.85202 -8.17738 19
297 1 -2.56023 10.59 -6.13524 17
298 1 -0.220972 7.43938 -6.07223 26
299 1 -0.0585462 5.64775 -3.45846 23
300 1 -1.66428 8.56986 -3.29623 22
301 1 -0.021737 9.27311 -11.0725 11
302 1 -0.807295 11.33 -3.33649 18
303 2 -13.7138 -2.57263 -3.72437 13
304 2 -13.6052 0.313217 -1.70478 14
305 2 -10.2778 0.259391 -7.1037 18
306 2 -11.8912 3.13556 -6.08869 14
307 2 -9.78328 2.24141 -8.65683 14
308 2 -10.3751 -0.00954802 -1.39267 20
309 2 -12.1791 3.02113 -0.889194 16
310 2 -11.9454 4.43268 -3.65886 13
311 2 -10.3338 2.05974 -3.19845 21
312 2 -10.5276 5.94862 -5.78585 15
313 2 -10.4271 5.52001 -0.50587 19
314 2 -10.279 7.78811 -3.33326 14
315 2 -6.87513 0.189261 -12.3031 13
316 2 -6.976 0.288582 -6.89712 24
317 2 -8.72028 3.33356 -6.30041 21
318 2 -8.22642 5.11864 -8.68524 13
319 2 -6.86244 1.90192 -9.53599 21
320 2 -6.94154 -0.173355 -1.5672 23
321 2 -8.62367 2.68764 -0.82659 22
322 2 -8.51048 4.91214 -3.3452 21
323 2 -6.90978 2.10049 -4.02024 23
324 2 -6.94077 5.80029 -5.94337 22
325 2 -8.52511 8.64707 -5.50622 16
326 2 -6.39111 8.0231 -8.04769 16
327 2 -6.88632 5.68611 -0.832055 21
328 2 -8.79655 8.59091 -0.60168 18
329 2 -8.56478 10.4531 -2.62905 15
330 2 -6.77728 7.79149 -3.02141 20
331 2 -6.79399 11.8413 -1.08568 12
332 2 -3.49067 0.241913 -12.536 17
333 2 -5.47125 3.26364 -11.4175 12
334 2 -3.6917 0.0160942 -6.98436 22
335 2 -5.50471 3.07744 -6.84643 24
336 2 -5.01667 5.19648 -9.3299 21
337 2 -3.61212 2.17123 -9.32246 21
338 2 -3.46392 -0.128325 -1.34734 23
339 2 -5.47577 2.83755 -1.36414 23
340 2 -5.14478 5.02871 -3.84762 20
341 2 -3.67059 1.7917 -3.95268 23
342 2 -3.44099 6.20176 -11.7065 13
343 2 -3.61674 6.13781 -6.52932 23
344 2 -5.10124 8.79297 -5.5824 19
345 2 -3.29085 8.15588 -9.11362 19
346 2 -3.44792 5.43437 -1.21316 21
347 2 -5.23561 8.86157 -1.14788 23
348 2 -4.19728 10.4445 -7.10829 14
349 2 -3.25716 7.59048 -3.5337 19
350 2 -1.9673 8.38401 -6.47951 21
351 2 -3.55353 11.6694 -1.81968 19
352 2 -5.74186 11.0926 -4.07553 16
353 2 -0.453159 0.0944925 -12.417 17
354 2 -1.32647 2.21659 -14.3194 9
355 2 -0.434286 -0.0221057 -6.50096 21
356 2 -2.03142 2.83843 -6.60931 22
357 2 -2.0767 2.97894 -11.3721 20
358 2 -0.137047 1.70267 -9.27533 21
359 2 -0.319681 -0.0401356 -1.40958 23
360 2 -1.86757 2.63798 -1.3312 25
361 2 -1.87294 4.44734 -4.01371 24
362 2 -0.324629 1.85633 -4.18313 23
363 2 -0.154156 5.45663 -12.6763 16
364 2 -0.326585 5.76602 -7.01186 24
365 2 -1.22854 10.5694 -7.36487 13
366 2 -1.49043 8.38311 -11.9502 10
367 2 -1.57893 4.91842 -9.55114 22
368 2 -0.252778 5.54677 -1.58528 25
369 2 -1.99387 8.4203 -1.28974 21
370 2 -2.41796 10.7385 -4.18996 22
371 2 -0.0820161 7.54998 -3.98376 24
372 2 0.0331047 8.08002 -9.25923 20
373 2 -0.495164 10.6505 -1.47862 21
374 2 1.18444 12.8821 0.195104 16
375 2 -0.765325 13.3423 -2.47119 14
376 1 -13.9338 1.77658 -0.563468 11
377 1 -13.7713 -2.71434 3.31196 11
378 1 -13.5242 1.04984 2.99943 13
379 1 -11.7289 4.66108 -1.69563 16
380 1 -10.3946 1.9624 -1.37597 19
381 1 -10.4941 -0.431274 1.96319 22
382 1 -11.9589 3.00332 1.33512 18
383 1 -11.7523 5.29195 3.9575 15
384 1 -10.6206 1.81772 4.00218 20
385 1 -10.1286 -0.217412 7.11537 17
386 1 -11.9894 2.73639 6.21359 13
387 1 -10.1808 1.59594 9.4945 11
388 1 -10.2238 7.63354 -1.29475 16
389 1 -10.4029 5.84617 1.40499 16
390 1 -10.3109 7.95138 4.27366 14
391 1 -10.2537 5.93744 6.49879 16
392 1 -8.46937 4.86235 -1.21706 21
393 1 -7.00598 1.70369 -0.977456 20
394 1 -7.04554 -0.114356 1.874 24
395 1 -8.90587 2.68732 1.18972 21
396 1 -8.5779 4.84585 3.95646 22
397 1 -7.12096 1.79103 4.44671 22
398 1 -7.26738 0.191606 7.178 22
399 1 -8.71226 2.83757 6.7197 20
400 1 -8.74608 4.53593 9.37551 12
401 1 -6.89906 2.02473 10.3607 21
402 1 -6.86633 0.0629404 12.446 9
403 1 -8.42624 10.5973 -0.676017 13
404 1 -6.83267 7.69644 -0.920255 20
405 1 -7.12024 5.70092 1.21509 22
406 1 -8.54759 8.51887 1.36292 17
407 1 -8.5043 10.5779 3.29792 13
408 1 -6.92464 7.69191 3.9951 22
409 1 -7.11862 5.80412 6.76189 21
410 1 -8.55682 8.85674 6.53061 12
411 1 -6.74846 7.47577 9.22768 12
412 1 -6.63429 11.9815 1.26622 11
413 1 -5.15955 4.60664 -0.743874 23
414 1 -3.72943 1.81056 -0.590347 25
415 1 -3.73554 -0.437982 1.91569 21
416 1 -5.33062 2.88426 1.98086 20
417 1 -5.48166 4.6969 4.53019 21
418 1 -3.69439 1.79465 4.65263 23
419 1 -3.80487 -0.147597 7.41914 23
420 1 -5.23557 2.79253 7.19007 20
421 1 -5.4326 4.5109 9.80997 19
422 1 -3.54423 1.89462 9.75577 22
423 1 -3.49643 0.0698466 12.5536 15
424 1 -4.85813 3.04122 12.5519 13
425 1 -5.1804 10.8392 -0.842928 19
426 1 -3.51221 7.36117 -0.753942 24
427 1 -3.54438 5.70143 1.9179 22
428 1 -4.9572 8.95121 1.7645 22
429 1 -5.0936 10.6068 4.1013 18
430 1 -3.66998 7.55324 4.46366 22
431 1 -3.8714 5.8497 7.1132 22
432 1 -5.21147 8.9435 7.19032 16
433 1 -3.11876 7.80351 9.80937 16
434 1 -3.37848 5.97954 11.6809 12
435 1 -2.5023 13.0487 -1.26265 14
436 1 -3.23002 11.9231 1.97885 18
437 1 -3.25649 11.7991 5.93272 10
438 1 -1.9999 4.44121 -0.601059 23
439 1 -0.157781 1.73057 -0.624017 25
440 1 -0.0353761 -0.00216369 1.74557 21
441 1 -2.01316 2.52871 2.13592 24
442 1 -1.99288 4.88489 4.64638 23
443 1 -0.194903 1.82255 4.61001 21
444 1 -0.17897 -0.0446175 7.05868 21
445 1 -1.95656 2.76617 6.84483 20
446 1 -1.76182 4.97936 9.32426 22
447 1 -0.151805 2.10453 9.64528 21
448 1 -0.0470724 0.0549779 11.6236 17
449 1 -1.78571 2.99213 11.8918 16
450 1 -2.20532 10.3215 -0.814119 23
451 1 -0.284261 7.39264 -0.760721 24
452 1 -0.143249 5.67307 1.82461 23
453 1 -1.88846 8.47589 1.73884 21
454 1 -1.54467 10.7383 3.99745 19
455 1 -0.369952 7.75625 4.27488 20
456 1 -0.077645 5.9633 6.94393 22
457 1 -1.90994 8.83541 6.77218 19
458 1 -0.367023 7.786 9.6815 16
459 1 -0.400472 6.07178 12.159 13
460 1 0.928057 13.2849 -1.56672 14
461 1 -0.376089 12.2109 1.33826 17
462 1 1.33538 13.2352 3.92362 11
463 1 0.0419692 11.769 7.01359 12
464 2 -13.7248 -0.746485 3.56831 12
465 2 -13.8499 1.80665 1.3119 11
466 2 -10.1778 -0.0916366 4.09343 22
467 2 -12.5173 1.90874 4.35103 15
468 2 -11.6862 4.57405 2.20702 16
469 2 -10.4656 1.67336 1.88131 20
470 2 -9.41521 0.0836884 8.9354 14
471 2 -11.5006 4.62994 5.87184 14
472 2 -10.4134 2.06373 7.22943 18
473 2 -10.1446 5.92674 4.35514 17
474 2 -9.94824 7.58204 2.4343 18
475 2 -10.2723 7.93493 6.35854 11
476 2 -7.11644 -0.275909 4.05173 20
477 2 -8.88998 2.71106 4.65012 24
478 2 -8.45172 4.52886 2.04641 23
479 2 -6.75962 1.8158 1.39906 22
480 2 -7.0401 -0.438614 10.4716 16
481 2 -8.84049 2.74684 10.2137 12
482 2 -8.67639 4.90742 7.42858 17
483 2 -6.85317 1.90671 6.48271 22
484 2 -6.15442 1.82252 12.3025 13
485 2 -7.085 5.88036 4.74908 23
486 2 -8.35098 9.22822 4.62029 15
487 2 -8.29107 10.6938 1.22884 15
488 2 -6.80403 7.65646 1.81921 20
489 2 -7.05984 5.61596 9.79074 13
490 2 -7.17356 7.91568 7.42589 16
491 2 -6.84811 11.5469 3.25568 13
492 2 -3.75685 0.0761119 3.89149 21
493 2 -5.24154 2.75129 4.01085 22
494 2 -5.23748 4.74263 1.45364 21
495 2 -3.68762 1.71582 1.51148 21
496 2 -3.68889 0.0132044 9.42639 20
497 2 -5.25411 2.63689 9.23187 21
498 2 -5.31661 4.65496 6.70278 21
499 2 -3.58515 1.72202 6.59421 21
500 2 -4.63715 4.64141 11.6736 16
501 2 -3.23952 1.86775 11.9146 17
502 2 -3.74831 5.57028 4.01418 21
503 2 -5.2112 8.62351 3.66313 20
504 2 -4.92175 11.0011 1.2417 18
505 2 -3.44996 7.50864 1.15635 23
506 2 -3.49338 5.67338 9.3833 20
507 2 -4.89265 8.06237 9.39606 12
508 2 -4.80446 10.5485 6.24449 13
509 2 -3.85744 7.73187 6.42643 22
510 2 -3.38816 11.5779 3.99449 14
511 2 -1.99311 12.8995 0.584137 13
512 2 -0.394647 -0.145171 4.20258 20
513 2 -1.70718 2.87491 4.09746 21
514 2 -1.76861 4.6488 1.27693 25
515 2 -0.130192 1.80624 1.43866 22
516 2 -0.348597 0.122897 9.30143 23
517 2 -1.92467 3.01865 9.43694 21
518 2 -2.0669 4.81259 6.72708 19
519 2 -0.123185 1.83409 6.66202 21
520 2 -1.85002 4.88854 12.2141 15
521 2 0.134143 2.11957 11.5051 17
522 2 -0.250635 5.78405 3.93635 23
523 2 -2.1993 8.67137 3.96465 25
524 2 -2.46736 10.2853 1.28296 22
525 2 -0.114389 7.64376 1.22041 22
526 2 -0.12531 5.92004 8.89775 23
527 2 -1.78963 8.65907 8.65403 17
528 2 -1.65953 10.7877 6.27684 16
529 2 -0.34812 7.69294 6.31736 22
530 2 -1.68427 6.94497 11.0104 14
531 2 1.3613 12.9935 5.99081 9
532 2 -0.0287832 11.9756 3.38615 19
533 1 1.18677 -12.1257 -6.38414 11
534 1 1.4352 -6.26486 -11.3805 16
535 1 0.539662 -8.70322 -9.06902 16
536 1 1.2322 -6.814 -6.16423 24
537 1 2.97385 -9.13276 -6.57416 21
538 1 3.05096 -11.4763 -4.58896 14
539 1 1.43144 -8.82836 -3.54842 23
540 1 1.45917 -4.72985 -13.595 7
541 1 1.0957 -0.818649 -12.6584 13
542 1 3.01128 -3.31565 -11.4708 21
543 1 2.58344 -5.88477 -8.74618 23
544 1 1.29084 -2.43584 -8.843 21
545 1 1.37117 -0.725222 -6.17901 23
546 1 3.14702 -3.81032 -6.22152 23
547 1 2.91178 -5.64847 -3.49039 22
548 1 1.28476 -2.95266 -3.61817 23
549 1 4.4258 -6.25292 -11.7924 14
550 1 5.49837 -7.76875 -8.9502 15
551 1 4.70169 -6.49417 -6.11226 25
552 1 6.28567 -8.97141 -6.42003 14
553 1 6.52554 -11.2319 -4.19434 11
554 1 4.78 -8.51485 -3.59782 23
555 1 4.42736 -0.734627 -11.314 18
556 1 6.46843 -3.52586 -11.6506 13
557 1 5.72084 -5.00007 -8.91093 22
558 1 4.42694 -2.55145 -8.64161 22
559 1 4.54864 -0.584428 -6.23821 22
560 1 6.5772 -3.28574 -6.33896 21
561 1 6.30946 -5.44739 -3.58828 20
562 1 4.45042 -2.9212 -3.61681 22
563 1 7.92798 -6.30529 -7.17179 16
564 1 8.29989 -8.30059 -4.58487 16
565 1 9.33529 0.984781 -10.8612 11
566 1 7.93164 -5.96874 -10.9424 11
567 1 7.96666 -2.632 -9.2141 15
568 1 7.70809 -0.610166 -6.03482 23
569 1 9.70522 -3.39779 -6.36666 14
570 1 9.41766 -5.30999 -4.18695 19
571 1 7.88532 -2.7299 -3.16445 23
572 1 11.6081 -7.76671 -3.8765 8
573 1 11.8693 -1.01048 -6.12424 12
574 1 11.5015 -3.70056 -3.89659 16
575 2 1.33865 -12.2392 1.14375 16
576 2 1.36432 -12.1732 -4.57635 14
577 2 2.7641 -11.0368 -6.70261 11
578 2 1.02601 -8.58066 -7.12318 21
579 2 1.09132 -6.83539 -9.65191 16
580 2 4.44408 -6.53073 -9.78697 17
581 2 3.58434 -11.6186 -0.664806 16
582 2 1.32917 -8.83124 -1.63408 22
583 2 1.39955 -6.80311 -4.15598 23
584 2 3.14617 -9.52521 -4.37738 23
585 2 2.9075 -5.21609 -12.211 14
586 2 1.44397 -2.85137 -12.5956 15
587 2 3.06333 -5.97229 -7.00331 21
588 2 1.42947 -2.71901 -6.68521 21
589 2 1.28935 -0.572385 -8.86892 20
590 2 2.95812 -3.63489 -9.37674 23
591 2 2.96128 -5.93109 -1.25507 21
592 2 1.39098 -3.01863 -1.49021 25
593 2 1.36807 -1.06443 -4.07501 21
594 2 2.89733 -3.9338 -4.23286 22
595 2 4.66969 -12.135 -3.89336 10
596 2 4.76223 -8.31232 -7.22763 19
597 2 6.2441 -5.57928 -11.9135 12
598 2 6.61379 -11.1266 -2.17132 11
599 2 4.84558 -8.79574 -1.6624 21
600 2 4.57936 -6.49886 -4.02747 22
601 2 6.42381 -9.36299 -4.56812 17
602 2 4.87219 -2.48688 -11.8762 14
603 2 6.07648 -5.34425 -6.87318 20
604 2 4.79988 -2.66731 -6.61387 22
605 2 4.71396 -0.663697 -9.34353 21
606 2 6.06718 -3.05524 -9.36746 20
607 2 6.36903 -5.57895 -1.35253 20
608 2 4.61116 -2.78344 -1.62853 24
609 2 4.68761 -0.686553 -4.17218 24
610 2 6.38382 -3.67659 -4.07568 22
611 2 7.84425 -8.05281 -6.36922 13
612 2 7.0856 -6.36996 -9.18807 17
613 2 8.35203 -8.54314 -0.803233 19
614 2 7.88603 -6.58221 -3.46822 21
615 2 9.93754 -8.54146 -3.48948 12
616 2 8.98515 -5.02641 -6.10518 17
617 2 8.45165 -2.32276 -7.30116 18
618 2 8.47373 -0.307696 -9.8161 17
619 2 8.22727 -4.154 -10.4867 11
620 2 9.35982 -5.54637 -0.696205 22
621 2 8.06502 -2.92485 -1.148 22
622 2 8.34873 -0.880458 -4.13803 21
623 2 9.65053 -3.23636 -3.397 20
624 2 11.2492 -8.02211 -0.65385 15
625 2 11.13 -6.01753 -3.28826 17
626 2 11.44 -2.93327 -5.71145 14
627 2 12.6066 -5.1752 -0.181466 15
628 2 11.2828 -2.8573 -0.318116 22
629 2 11.7942 -0.509198 -4.21562 16
630 2 12.7735 -2.97055 -2.57348 13
631 1 1.64915 -12.4478 -0.726444 15
632 1 1.24359 -12.608 4.75376 16
633 1 1.26644 -6.94449 -0.823318 23
634 1 3.10027 -9.54784 -0.976131 23
635 1 3.14943 -11.5737 1.43496 18
636 1 1.52734 -8.80349 1.9871 24
637 1 1.50557 -6.77876 4.29183 21
638 1 3.16262 -9.8167 4.53544 24
639 1 3.3388 -11.6307 6.78001 13
640 1 1.5616 -8.83774 7.09799 21
641 1 1.4131 -6.83505 9.55088 20
642 1 2.96567 -9.69492 9.80183 11
643 1 1.42555 -1.03473 -0.85344 24
644 1 3.04049 -3.91513 -0.782471 23
645 1 3.05275 -6.02662 1.87197 23
646 1 1.43211 -3.05039 1.79938 21
647 1 1.30375 -1.11587 4.5622 23
648 1 2.84683 -3.98184 4.46254 21
649 1 3.20754 -5.8198 6.95988 21
650 1 1.36319 -2.81793 7.09666 21
651 1 1.39582 -1.04552 9.51557 22
652 1 2.98839 -3.98863 9.58179 22
653 1 3.02959 -5.71421 12.1624 13
654 1 1.52831 -2.70496 12.0969 16
655 1 4.93741 -12.2172 -1.91466 10
656 1 4.38512 -12.6257 3.93865 12
657 1 4.89441 -6.75297 -0.795687 22
658 1 6.60982 -9.62312 -0.987918 18
659 1 6.69813 -11.3546 2.16154 12
660 1 4.84186 -8.82533 1.73325 20
661 1 4.87682 -6.99939 4.64547 22
662 1 6.49409 -10.991 5.43356 14
663 1 4.97372 -8.73059 7.34923 19
664 1 4.66124 -6.80379 9.47932 18
665 1 4.64856 -0.906307 -0.785892 23
666 1 6.30753 -3.68236 -0.920575 21
667 1 6.23716 -5.82769 2.1291 20
668 1 4.50832 -2.86038 1.75959 22
669 1 4.81195 -1.0217 4.59525 22
670 1 6.25695 -3.90206 4.4201 23
671 1 6.4812 -5.64379 7.12984 20
672 1 4.81864 -2.8718 6.92835 20
673 1 4.74138 -1.12196 9.67297 23
674 1 6.29938 -3.81842 9.2745 23
675 1 4.94993 -3.09876 12.1775 16
676 1 7.96964 -6.62485 -1.40491 21
677 1 9.97601 -9.08591 -1.72955 15
678 1 8.10093 -8.45981 1.2941 20
679 1 8.31629 -6.51355 4.36609 19
680 1 9.47855 -10.1438 4.01519 12
681 1 8.35095 -8.53758 6.58285 13
682 1 6.76879 -5.81426 11.2152 9
683 1 8.15319 -1.07967 -0.843773 22
684 1 9.85051 -3.80321 -1.24767 22
685 1 9.4516 -5.71653 1.32262 24
686 1 7.95002 -2.86429 1.88212 22
687 1 8.3067 -0.80219 4.42935 22
688 1 9.99066 -3.7335 4.23112 20
689 1 9.91678 -5.55222 6.62067 14
690 1 8.11506 -2.60219 6.72853 21
691 1 8.22267 -3.09733 11.9711 11
692 1 9.73244 -3.83731 9.21232 10
693 1 11.1935 -6.21327 -1.30333 21
694 1 11.3 -8.62861 1.17942 13
695 1 10.8237 -7.23036 4.03708 14
696 1 11.2439 -0.934416 -0.490554 21
697 1 13.2591 -3.46257 -0.84864 13
698 1 12.8063 -5.57939 1.50333 13
699 1 11.457 -2.85198 1.62154 19
700 1 11.7537 -0.621666 4.89277 17
701 1 13.4355 -2.78332 3.74368 10
702 1 11.6751 -2.70269 6.82535 11
703 2 2.79256 -11.5738 4.01347 17
704 2 1.64828 -12.2203 6.69501 14
705 2 4.88344 -11.8355 5.73916 13
706 2 1.42084 -8.69 3.97582 22
707 2 1.17291 -6.97544 1.2274 23
708 2 3.27748 -9.41826 0.932305 23
709 2 1.46292 -8.90865 9.24381 16
710 2 1.30164 -6.75676 6.26414 23
711 2 3.31056 -9.57489 6.78214 19
712 2 1.34273 -6.56563 11.6133 16
713 2 3.31762 -5.90062 4.05983 22
714 2 1.21466 -2.91661 3.8797 23
715 2 1.72428 -1.1796 1.01034 24
716 2 3.03336 -4.16914 1.26414 23
717 2 2.91684 -5.91164 8.94487 24
718 2 1.17532 -2.95708 9.37624 23
719 2 1.53239 -0.857182 6.79339 22
720 2 3.06853 -3.96267 6.56274 23
721 2 1.77863 -0.944753 11.544 18
722 2 3.19596 -3.93764 11.525 20
723 2 5.00113 -12.1622 2.27813 14
724 2 7.68946 -11.1379 3.95762 13
725 2 4.72247 -8.70009 3.66221 25
726 2 4.93166 -6.84015 1.22532 20
727 2 6.49076 -9.71181 1.12048 18
728 2 4.45369 -8.6447 9.29829 13
729 2 5.00221 -6.67519 6.74748 20
730 2 6.74801 -9.5035 6.82613 14
731 2 4.93605 -6.30141 11.4488 12
732 2 6.33494 -5.99455 4.11545 19
733 2 4.6076 -2.99281 3.8334 24
734 2 4.79975 -1.04412 1.23062 25
735 2 6.3759 -3.85377 1.2582 24
736 2 6.46736 -5.82991 9.28517 17
737 2 4.69801 -2.90998 9.07011 24
738 2 4.94182 -1.00765 6.70536 23
739 2 6.40322 -3.62841 6.38227 20
740 2 4.82045 -1.07987 11.7564 18
741 2 6.46369 -4.01363 11.7291 14
742 2 9.34104 -8.45285 4.9693 15
743 2 8.09013 -6.90382 2.4113 22
744 2 9.70997 -9.4667 2.02523 14
745 2 8.24303 -6.48535 6.31387 18
746 2 10.2184 -5.59018 4.63857 17
747 2 8.24303 -2.9361 4.4151 19
748 2 8.27689 -0.900943 1.42065 22
749 2 9.7505 -3.82045 2.07588 21
750 2 8.72916 -4.38255 10.5307 10
751 2 7.78926 -2.5952 8.66914 21
752 2 8.22236 -0.587715 6.65313 20
753 2 10.7196 -4.24274 7.63153 11
754 2 7.66368 -1.15981 11.6981 14
755 2 11.3201 -6.87917 2.05522 16
756 2 11.551 -2.62049 4.7376 17
757 2 11.446 -0.961111 1.45438 21
758 2 12.9709 -4.09186 2.58413 13
759 2 11.3493 -0.907229 6.9317 13
760 1 9.10142 4.01538 -10.5861 9
761 1 -0.110708 3.76713 -14.069 9
762 1 1.44137 4.69869 -11.535 20
763 1 2.90303 1.93078 -11.7725 19
764 1 3.00053 0.355865 -8.88632 21
765 1 1.3446 2.8597 -8.76389 23
766 1 1.53916 4.92181 -6.48313 23
767 1 3.02083 2.14719 -6.12345 24
768 1 2.84588 0.250017 -3.25184 25
769 1 1.16119 2.91604 -3.67524 21
770 1 2.84171 7.64877 -11.2741 14
771 1 3.074 5.64845 -8.82723 23
772 1 1.68191 8.48945 -8.27553 21
773 1 0.570962 10.9332 -6.28169 15
774 1 3.34912 7.38056 -5.84357 23
775 1 3.03598 5.44927 -3.53298 24
776 1 1.44057 8.79938 -3.51491 21
777 1 2.33713 11.2704 -3.3075 18
778 1 4.58203 4.66816 -11.4637 15
779 1 6.4079 2.23731 -11.6219 16
780 1 6.63363 -0.0490752 -8.83712 21
781 1 4.66088 3.02245 -9.02703 24
782 1 5.03993 4.87623 -6.09084 25
783 1 6.27631 2.11199 -6.07343 24
784 1 6.33054 -0.036106 -3.40741 23
785 1 4.70933 2.91991 -3.48054 24
786 1 6.48474 5.80687 -8.79218 20
787 1 4.7408 8.03208 -8.77073 17
788 1 3.97413 10.3697 -6.30054 14
789 1 6.45228 7.77749 -6.24203 19
790 1 6.59781 5.82212 -3.4738 24
791 1 4.6574 8.35821 -3.35067 23
792 1 5.44255 11.4791 -3.8666 13
793 1 9.54038 -0.664224 -8.09738 16
794 1 7.93692 2.59724 -8.35883 23
795 1 8.42464 5.02429 -6.35673 19
796 1 9.66256 2.25678 -5.77043 22
797 1 10.0056 -0.0379415 -3.3878 21
798 1 8.04731 2.96564 -3.37293 25
799 1 7.85162 8.90289 -8.65355 8
800 1 9.50626 7.91676 -5.68627 12
801 1 9.88526 5.75297 -3.55595 17
802 1 7.879 8.69384 -3.1682 18
803 1 11.3666 5.07736 -6.06558 11
804 1 11.3153 2.11491 -8.24002 12
805 1 13.3211 -1.15417 -3.1841 11
806 1 11.2379 3.01885 -3.17378 18
807 2 2.84259 -0.0599001 -12.1011 14
808 2 1.20709 2.94381 -12.0824 18
809 2 2.89932 0.256356 -6.79746 24
810 2 1.36765 3.03516 -6.85734 25
811 2 1.3595 4.81784 -9.52552 26
812 2 3.06206 2.2301 -9.64321 24
813 2 3.13026 0.144568 -1.3066 21
814 2 1.31916 2.7899 -1.26311 24
815 2 1.51414 4.89393 -4.49035 25
816 2 2.99158 2.10346 -4.08738 24
817 2 3.03552 5.6166 -11.7075 14
818 2 3.23119 5.68715 -6.98371 26
819 2 1.63228 7.9025 -6.42758 22
820 2 1.14594 8.03103 -11.8919 12
821 2 3.10004 7.81096 -9.42142 18
822 2 3.01272 5.5659 -1.39125 23
823 2 1.2726 8.41621 -1.45864 23
824 2 0.701039 10.5537 -4.36466 21
825 2 3.13305 7.37975 -3.92834 22
826 2 2.1447 10.2951 -7.18699 13
827 2 3.00604 10.7012 -1.60002 21
828 2 2.59683 13.0635 -2.57469 13
829 2 5.81739 12.7704 -2.67986 12
830 2 8.22888 2.53337 -11.6771 9
831 2 4.68946 2.91071 -12.1672 13
832 2 6.31463 0.279771 -6.95283 24
833 2 4.59507 3.03431 -6.95865 24
834 2 4.87694 5.00204 -9.64665 20
835 2 6.28167 1.87549 -9.66116 22
836 2 6.35229 -0.175179 -1.42561 22
837 2 4.61568 3.00648 -1.34961 22
838 2 4.81138 4.81809 -4.1433 23
839 2 6.17008 1.91202 -4.11797 24
840 2 6.72555 5.88055 -6.70014 23
841 2 4.84953 8.69553 -6.7189 19
842 2 6.53567 7.67318 -9.06287 10
843 2 6.51518 5.62643 -1.68341 24
844 2 4.77662 8.24741 -1.42125 22
845 2 3.8574 11.0177 -4.582 16
846 2 6.43662 7.74858 -4.13048 20
847 2 7.26219 11.5053 -0.145532 13
848 2 8.99902 0.576737 -6.78627 19
849 2 8.03887 3.06994 -6.4816 22
850 2 7.82429 4.53472 -9.17304 15
851 2 9.79454 2.27008 -9.49822 16
852 2 9.53601 0.10809 -1.43674 25
853 2 8.01445 2.90305 -1.4106 23
854 2 8.15275 4.69253 -4.29572 24
855 2 9.67943 2.02164 -3.81458 19
856 2 9.98785 6.24646 -6.4799 13
857 2 8.09126 8.3386 -6.83399 13
858 2 9.66937 5.6477 -1.37435 22
859 2 8.09082 8.68913 -1.23576 19
860 2 7.30196 10.6457 -3.19125 13
861 2 9.78146 7.77861 -3.56968 14
862 2 11.1762 3.41363 -6.81209 13