ITEM: TIMESTEP
122000
ITEM: NUMBER OF ATOMS
1000
ITEM: BOX BOUNDS pp pp pp
-30.0 30.0
-30.0 30.0
-30.0 30.0
ITEM: ATOMS id type x y z Coordination
1 1 -11.7693 -1.08646 -6.17137 14
2 1 -10.2454 -3.86076 -6.23184 17
3 1 -10.1324 -5.83672 -4.16975 20
4 1 -12.1077 -3.62581 -4.02185 17
5 1 -8.33242 -7.00261 -6.75785 16
6 1 -7.00759 -9.84738 -6.11522 15
7 1 -6.60494 -11.7661 -3.81275 12
8 1 -8.45765 -8.80904 -3.75108 14
9 1 -8.30742 -1.22049 -11.4411 12
10 1 -6.76392 -4.01058 -12.0712 13
11 1 -7.10803 -5.73537 -9.38968 15
12 1 -8.72561 -2.84488 -9.19444 15
13 1 -8.55104 -0.719287 -6.36602 24
14 1 -7.16831 -3.72447 -6.43254 21
15 1 -6.94505 -5.8005 -4.02603 23
16 1 -8.6665 -2.58242 -3.76388 23
17 1 -4.85401 -6.84023 -11.3067 13
18 1 -5.78465 -8.47683 -8.6642 14
19 1 -4.92986 -6.69088 -6.11373 22
20 1 -3.29817 -9.47476 -6.20319 22
21 1 -3.62153 -11.6137 -3.56299 19
22 1 -5.02955 -8.82241 -3.62226 21
23 1 -5.19259 -0.988341 -11.6984 18
24 1 -3.63213 -3.83574 -11.6058 18
25 1 -3.62508 -5.796 -8.83969 24
26 1 -5.64958 -3.07951 -9.07534 22
27 1 -5.50687 -1.00103 -6.30219 24
28 1 -3.71668 -3.8066 -6.33482 22
29 1 -3.43519 -5.76733 -3.46197 22
30 1 -5.41566 -2.90689 -3.55139 22
31 1 -4.52603 -11.9106 -6.63093 11
32 1 -1.60368 -6.51784 -11.4578 14
33 1 -1.23426 -11.3824 -8.10883 10
34 1 -2.34867 -8.21735 -8.94341 19
35 1 -1.79425 -6.38922 -6.19447 24
36 1 -0.094225 -9.36938 -6.26927 24
37 1 -0.278347 -11.3574 -3.74457 18
38 1 -1.92302 -8.51164 -3.64752 24
39 1 -2.11272 -0.571474 -11.2323 19
40 1 -0.421214 -3.50944 -11.1928 21
41 1 -0.319392 -5.54885 -8.81242 24
42 1 -2.17335 -2.69906 -8.76877 25
43 1 -1.82061 -0.843314 -6.17873 23
44 1 -0.309091 -3.6213 -6.05378 24
45 1 0.0237328 -5.60779 -3.71801 21
46 1 -2.0393 -2.71796 -3.58947 25
47 2 -11.916 -3.36891 -1.97701 20
48 2 -11.9482 -5.59759 -3.91182 12
49 2 -6.72071 -11.714 -0.864666 13
50 2 -9.56301 -5.66828 -6.19952 16
51 2 -11.8427 -2.82764 -5.86653 13
52 2 -8.1146 -2.92368 -11.1049 13
53 2 -10.8152 -6.71717 -1.25535 18
54 2 -13.8897 -5.02681 -1.39793 10
55 2 -12.0606 -0.079034 -4.4287 15
56 2 -10.1346 -3.82908 -3.91669 20
57 2 -8.53218 -8.73646 -5.80914 13
58 2 -7.26268 -7.37364 -8.57026 14
59 2 -4.91872 -12.3867 0.949099 15
60 2 -8.69639 -9.00348 -1.72169 13
61 2 -8.65422 -6.82819 -3.33774 18
62 2 -6.7175 -9.78754 -4.10189 18
63 2 -6.74398 -5.94874 -6.04937 20
64 2 -8.78984 -2.7976 -7.00309 20
65 2 -8.84119 -0.735992 -9.63755 15
66 2 -7.28794 -4.08427 -8.55916 17
67 2 -7.12095 -5.64092 -1.59759 21
68 2 -8.70191 -2.80115 -1.89082 20
69 2 -8.70641 -0.653067 -4.46296 23
70 2 -6.96585 -3.73145 -4.46754 25
71 2 -5.03231 -12.7141 -2.8441 14
72 2 -2.89268 -11.1408 -7.16059 12
73 2 -5.23073 -8.83941 -6.84401 20
74 2 -6.17021 -5.45689 -10.9977 14
75 2 -4.23768 -7.77117 -9.54103 17
76 2 -1.92375 -12.3055 -3.31468 12
77 2 -5.32577 -8.56464 -1.63222 24
78 2 -4.75904 -6.94509 -4.14603 21
79 2 -3.54356 -9.86938 -4.35774 24
80 2 -3.33989 -5.93438 -11.7326 14
81 2 -5.26241 -2.90241 -12.3417 13
82 2 -3.4112 -5.61599 -7.00777 23
83 2 -5.2889 -2.83479 -7.12848 21
84 2 -5.46433 -1.1197 -9.4543 23
85 2 -3.94632 -3.87588 -9.56719 24
86 2 -3.37019 -5.46218 -1.30658 20
87 2 -5.44888 -2.9034 -1.50765 23
88 2 -5.45115 -0.926117 -4.18136 24
89 2 -3.66432 -3.52664 -4.23113 24
90 2 -3.42395 -11.3932 -1.15135 18
91 2 -6.18129 -11.4986 -5.8053 12
92 2 0.138919 -11.625 -6.97832 13
93 2 -1.752 -8.28542 -6.67417 23
94 2 -1.8019 -6.35367 -9.49982 21
95 2 -0.92273 -9.58608 -9.06527 13
96 2 -0.172611 -11.2934 -1.72812 18
97 2 -1.98611 -8.53127 -1.63455 23
98 2 -1.75799 -6.48413 -4.09964 23
99 2 -0.257886 -9.34492 -4.13757 21
100 2 0.0429212 -5.23416 -12.1631 14
101 2 -2.17003 -2.55687 -11.3562 15
102 2 0.0118496 -5.48373 -6.85041 22
103 2 -2.08437 -2.90883 -6.75605 23
104 2 -2.17816 -0.640964 -9.18166 22
105 2 -0.470737 -3.75934 -9.36368 22
106 2 -0.342545 -5.48753 -1.60894 24
107 2 -2.07583 -2.6803 -1.40607 24
108 2 -2.00216 -0.821838 -4.17121 23
109 2 -0.136946 -3.68555 -4.01166 25
110 1 -13.6304 -3.06136 -1.29946 13
111 1 -12.5614 -6.21262 -2.18981 12
112 1 -10.519 -8.6818 -0.978772 11
113 1 -11.6923 -5.43258 3.561 12
114 1 -11.5334 -1.26417 -1.32712 23
115 1 -10.1118 -4.14866 -1.44246 23
116 1 -10.5673 -6.2331 0.865904 17
117 1 -13.809 -4.95149 0.600182 13
118 1 -12.1856 -1.21987 3.97575 14
119 1 -11.6665 -3.32787 1.57889 19
120 1 -10.38 -6.24785 6.71892 9
121 1 -11.6743 -3.27799 5.59987 13
122 1 -8.60327 -6.90553 -1.42328 19
123 1 -7.09086 -9.68874 -0.866252 18
124 1 -6.71936 -11.5638 1.23868 12
125 1 -8.57163 -8.84244 2.09868 18
126 1 -8.85089 -6.61259 3.85703 17
127 1 -6.58202 -9.90648 4.00778 15
128 1 -8.37116 -8.7158 5.88433 13
129 1 -8.65207 -1.1603 -1.01637 21
130 1 -7.19018 -3.8604 -0.936263 22
131 1 -6.99229 -5.68559 1.50131 24
132 1 -8.54871 -3.03414 1.66914 22
133 1 -8.72884 -0.927124 4.38791 22
134 1 -7.1689 -3.83765 4.50291 20
135 1 -6.93863 -5.89784 6.95268 21
136 1 -8.66565 -3.15443 7.18768 20
137 1 -8.61302 -1.21009 9.20308 15
138 1 -6.79246 -4.05163 9.84635 15
139 1 -5.17484 -12.7554 -1.07868 12
140 1 -4.65596 -12.7465 3.03014 11
141 1 -5.37241 -6.60427 -0.971442 22
142 1 -3.75785 -9.49306 -1.10646 21
143 1 -3.35331 -11.3817 0.847523 19
144 1 -5.34092 -8.50562 1.4199 23
145 1 -5.38061 -6.69237 4.30676 24
146 1 -3.47104 -9.82614 3.70324 21
147 1 -3.76523 -11.4603 6.34261 12
148 1 -5.53647 -8.56874 7.20064 17
149 1 -5.62963 -6.71897 9.90144 14
150 1 -3.44274 -9.45399 9.25539 11
151 1 -5.29893 -0.857656 -0.747322 24
152 1 -3.60483 -3.65235 -0.801441 24
153 1 -3.62849 -5.93995 1.75009 24
154 1 -5.24044 -2.93524 1.87326 24
155 1 -5.35259 -0.889354 4.3063 23
156 1 -3.75389 -3.94107 4.46456 22
157 1 -3.67462 -5.64841 7.21281 25
158 1 -5.38055 -3.07191 7.17759 23
159 1 -5.2421 -0.828177 9.30044 21
160 1 -3.83883 -3.67753 9.81479 22
161 1 -4.09183 -5.50983 12.4154 10
162 1 -5.37901 -3.01766 12.3967 11
163 1 -1.69354 -12.6048 -1.50509 14
164 1 -1.71695 -12.6204 4.07688 14
165 1 -1.86709 -6.68882 -0.968564 22
166 1 -0.27486 -9.54446 -0.939088 22
167 1 -0.177351 -11.3122 1.89335 19
168 1 -2.02756 -8.75562 1.49268 22
169 1 -2.04669 -6.77949 4.26533 22
170 1 -0.271068 -9.53481 4.38102 24
171 1 -0.239198 -11.4686 7.25681 14
172 1 -1.99705 -8.42066 6.88358 24
173 1 -2.27134 -6.65003 9.99819 20
174 1 -0.274657 -9.11901 9.90342 13
175 1 -2.30928 -0.792543 -0.946092 24
176 1 -0.432647 -3.81059 -0.759395 25
177 1 -0.237847 -5.8505 1.72425 25
178 1 -1.91643 -2.93254 1.7259 22
179 1 -1.93038 -0.897704 4.60911 23
180 1 -0.415721 -3.96651 4.30363 24
181 1 -0.320038 -5.92414 7.09454 21
182 1 -1.93622 -2.85782 7.16698 24
183 1 -1.76966 -1.11412 10.1135 22
184 1 -0.424101 -3.87444 9.67668 22
185 1 -0.652344 -6.10245 12.581 13
186 1 -1.81839 -3.05874 13.1082 15
187 2 -13.6608 -3.07833 0.867859 14
188 2 -12.2653 -5.54062 1.75199 12
189 2 -10.1236 -8.7297 0.910912 12
190 2 -10.4587 -6.238 4.69578 13
191 2 -11.7094 -3.42804 3.61506 18
192 2 -11.5411 -1.49983 0.652443 21
193 2 -9.91493 -4.06432 0.5734 23
194 2 -11.7601 -1.36092 5.79035 13
195 2 -10.2354 -4.17527 6.55625 15
196 2 -6.5187 -11.7817 3.21381 13
197 2 -8.19712 -8.4442 3.97404 16
198 2 -8.74794 -6.44668 1.51452 22
199 2 -7.10231 -9.40605 1.00203 20
200 2 -8.59965 -6.9591 6.61574 15
201 2 -6.64383 -9.5193 5.85433 15
202 2 -6.98451 -5.81847 3.79234 24
203 2 -8.34088 -2.67309 3.52337 23
204 2 -8.72062 -0.857022 1.02022 23
205 2 -6.77191 -3.69692 1.08889 23
206 2 -6.7664 -5.72137 8.96264 16
207 2 -8.33561 -3.09386 9.21694 15
208 2 -8.78253 -1.28737 6.49209 20
209 2 -6.90707 -4.02483 6.46426 21
210 2 -5.57103 -4.6494 11.2018 12
211 2 -1.99382 -12.1481 2.22888 17
212 2 -3.89 -11.7196 4.34621 16
213 2 -4.88001 -8.46035 3.45176 21
214 2 -5.44704 -6.6181 1.17334 20
215 2 -3.68853 -9.49976 1.24678 20
216 2 -5.0584 -8.44712 9.21655 13
217 2 -5.27774 -6.76389 6.3234 23
218 2 -3.52184 -9.57724 7.12585 16
219 2 -3.6349 -5.81586 3.67085 24
220 2 -5.4199 -2.84276 4.00637 22
221 2 -5.35514 -0.889407 1.234 23
222 2 -3.55082 -3.91475 1.13951 24
223 2 -3.75067 -5.63191 9.09631 25
224 2 -5.34038 -2.65113 9.13455 22
225 2 -5.27067 -0.935122 7.24024 20
226 2 -3.57736 -3.62582 6.56968 21
227 2 -5.21293 -1.04029 12.1071 15
228 2 -3.63213 -3.561 12.7709 12
229 2 -0.143998 -11.4404 3.92599 19
230 2 -0.450566 -10.7077 9.02739 11
231 2 -1.84342 -11.988 6.16622 14
232 2 -1.84179 -8.77504 3.45828 24
233 2 -1.81263 -6.58712 0.948436 23
234 2 -0.180399 -9.53615 0.986808 24
235 2 -1.91676 -8.44306 9.84595 15
236 2 -2.12223 -6.61785 6.33166 23
237 2 -0.246121 -9.2753 6.38058 22
238 2 -2.36436 -6.39503 11.971 14
239 2 -0.256484 -5.90166 3.60951 25
240 2 -1.94724 -2.84302 3.82289 24
241 2 -2.09631 -0.982323 1.34291 24
242 2 -0.352317 -3.92761 1.26402 24
243 2 -0.363015 -5.93884 9.04435 23
244 2 -2.04496 -2.90957 9.16707 23
245 2 -1.78197 -0.989197 6.45201 23
246 2 -0.200553 -3.91776 6.47439 23
247 2 -1.8748 -1.1027 12.6316 15
248 2 -0.353426 -3.94419 12.0661 18
249 1 -14.1068 -0.215323 -3.65811 10
250 1 -10.4827 -0.0409782 -8.84862 12
251 1 -11.9077 4.86186 -5.49076 12
252 1 -10.3349 2.06948 -6.9217 18
253 1 -10.2159 0.187776 -3.52213 22
254 1 -12.0841 2.197 -4.22179 17
255 1 -10.1249 7.82653 -5.51536 13
256 1 -10.1145 5.7599 -3.78374 20
257 1 -6.6181 1.90702 -11.9247 12
258 1 -7.21526 0.131511 -9.26695 21
259 1 -8.5218 3.24087 -9.32339 15
260 1 -8.80521 5.0125 -6.98458 19
261 1 -7.11522 2.13869 -6.23792 22
262 1 -7.06179 0.113382 -3.6348 22
263 1 -8.63435 3.22895 -4.30281 23
264 1 -6.75265 6.30266 -9.47754 13
265 1 -7.12398 7.89637 -6.75888 17
266 1 -6.97324 5.9145 -4.22512 25
267 1 -8.46625 9.15732 -3.61999 17
268 1 -6.77333 11.9075 -2.43812 13
269 1 -5.21491 4.98145 -11.5386 13
270 1 -3.45594 2.12026 -11.364 21
271 1 -3.97195 0.0139205 -8.79667 22
272 1 -5.39552 3.01687 -8.94157 22
273 1 -5.41143 4.79949 -6.09292 23
274 1 -3.98576 1.94839 -6.13576 23
275 1 -3.72398 -0.10877 -3.65585 23
276 1 -5.4818 2.7591 -3.49508 23
277 1 -3.64008 8.16053 -11.3681 12
278 1 -3.88008 5.73434 -8.68984 23
279 1 -4.57019 9.08565 -8.41319 14
280 1 -5.78151 10.5832 -5.61692 13
281 1 -3.82364 7.63696 -5.94002 23
282 1 -3.65462 5.65547 -3.20531 23
283 1 -5.18914 8.79603 -3.30618 21
284 1 -3.8158 11.6897 -3.2104 15
285 1 -0.993136 0.728251 -13.868 9
286 1 -2.12857 4.91521 -11.3217 19
287 1 -0.289159 1.8887 -11.1744 22
288 1 -0.354635 -0.0580908 -8.78021 24
289 1 -2.14164 2.96022 -8.65061 24
290 1 -2.02309 4.93124 -5.93714 24
291 1 -0.507929 2.07138 -6.08707 25
292 1 -0.509325 0.149582 -3.42897 26
293 1 -2.20537 2.81758 -3.35826 24
294 1 -0.779145 7.3347 -13.4393 10
295 1 -0.482567 5.7229 -8.4756 22
296 1 -1.56843 8.88932 -8.35539 17
297 1 -2.4402 10.5773 -6.01927 17
298 1 -0.395128 7.62459 -6.01971 23
299 1 -0.525561 5.83252 -3.21007 26
300 1 -2.03885 8.76998 -3.27287 24
301 1 -0.44535 8.99307 -11.4413 11
302 1 -0.565876 11.6565 -3.13299 18
303 2 -13.5805 -1.0154 -1.85933 14
304 2 -13.6931 1.67664 -2.83927 15
305 2 -10.3726 -0.113929 -6.89959 18
306 2 -11.7414 2.99136 -5.86414 15
307 2 -9.8133 1.96536 -8.68957 14
308 2 -10.534 0.206573 -1.51555 20
309 2 -11.9219 2.85278 -0.810113 16
310 2 -11.7506 4.808 -3.48472 17
311 2 -10.2257 2.3002 -3.50405 21
312 2 -10.225 5.86775 -5.88741 16
313 2 -10.4856 5.97837 -1.02444 17
314 2 -10.1109 7.83849 -3.3716 14
315 2 -6.93306 0.0369391 -12.069 11
316 2 -6.94045 0.300544 -7.15579 24
317 2 -8.7267 3.03836 -6.23525 22
318 2 -8.15759 5.07349 -8.79273 14
319 2 -7.10652 2.20195 -9.76613 20
320 2 -7.06113 -0.157093 -1.5524 25
321 2 -8.56998 3.06398 -0.644216 20
322 2 -8.33418 5.12337 -3.15549 23
323 2 -7.07803 1.8651 -4.19487 22
324 2 -6.99455 5.98647 -6.26772 23
325 2 -8.56177 8.79546 -5.69603 13
326 2 -6.15809 7.83146 -8.6238 14
327 2 -7.22014 6.00512 -0.558025 21
328 2 -8.45316 8.74813 -0.875653 18
329 2 -8.2132 10.7282 -2.33433 15
330 2 -7.13799 7.60249 -3.20304 23
331 2 -6.36728 11.835 -0.600353 14
332 2 -3.73686 0.255492 -11.8304 16
333 2 -5.00696 3.04018 -11.9622 12
334 2 -3.63726 0.0266403 -6.74031 22
335 2 -5.36465 3.01448 -7.05501 23
336 2 -5.22181 4.96022 -9.68351 20
337 2 -3.79131 1.88104 -9.41167 25
338 2 -3.8746 0.198818 -1.51364 24
339 2 -5.52882 3.05783 -1.36938 23
340 2 -5.25945 4.64001 -4.12955 22
341 2 -3.86727 1.84414 -4.16418 25
342 2 -3.57344 6.1742 -11.3584 13
343 2 -3.77361 5.67258 -6.84902 23
344 2 -5.74407 8.48682 -5.45797 18
345 2 -3.08009 8.57993 -9.54127 14
346 2 -3.89627 6.04538 -1.26606 23
347 2 -5.17881 8.89089 -1.04739 26
348 2 -4.27684 10.2655 -7.00816 13
349 2 -3.60564 7.62547 -3.74534 22
350 2 -2.31885 8.37167 -6.75326 20
351 2 -3.2504 11.5526 -1.21208 20
352 2 -5.37505 10.9065 -3.65748 17
353 2 -0.554894 0.0908373 -12.1065 18
354 2 -1.02249 2.43261 -14.5675 7
355 2 -0.27354 0.040224 -6.66723 24
356 2 -2.38269 3.04292 -6.61367 22
357 2 -1.83478 3.0539 -11.637 19
358 2 -0.353236 1.90448 -9.14264 22
359 2 -0.587467 0.0982212 -1.54686 25
360 2 -2.35474 2.97438 -1.32729 23
361 2 -2.07263 4.64439 -3.86113 21
362 2 -0.486744 2.27947 -4.04629 21
363 2 -0.703947 5.66884 -12.7823 13
364 2 -0.381132 5.84055 -6.48409 22
365 2 -0.875777 10.4866 -7.11138 13
366 2 -2.02492 8.41383 -12.3248 9
367 2 -2.14606 5.02238 -9.35712 20
368 2 -0.53491 5.57403 -1.12202 22
369 2 -1.89882 8.63454 -1.37527 24
370 2 -2.20461 10.8454 -3.84777 20
371 2 -0.360667 7.81938 -3.94432 21
372 2 0.0310838 8.66036 -9.64061 16
373 2 -0.00801685 11.0583 -1.11777 21
374 2 1.44687 12.8048 0.451661 15
375 2 -0.90542 13.1841 -2.02967 12
376 1 -13.6202 1.43467 -0.958487 14
377 1 -13.4613 -1.1727 1.31815 14
378 1 -13.6663 1.66646 2.9234 12
379 1 -12.0729 4.81287 -1.51075 15
380 1 -10.1312 2.15877 -1.4145 22
381 1 -10.3283 -0.1051 1.51454 20
382 1 -11.8977 2.97743 1.07451 18
383 1 -11.8136 4.53149 3.70285 15
384 1 -10.4421 1.88546 3.93028 23
385 1 -10.7213 -0.219264 6.89867 15
386 1 -12.242 2.6038 6.11784 12
387 1 -10.48 1.84927 9.04935 10
388 1 -9.87606 7.74711 -1.52953 18
389 1 -10.0152 6.03813 1.16861 18
390 1 -9.55769 7.49363 4.20913 17
391 1 -10.3217 5.75292 6.44374 14
392 1 -8.72635 4.90727 -1.28036 24
393 1 -6.7375 1.8138 -0.856652 21
394 1 -6.99671 -0.0259621 1.84193 22
395 1 -8.64239 2.85174 1.41081 22
396 1 -8.48654 4.39584 3.78085 24
397 1 -7.0415 1.91106 4.6372 20
398 1 -7.18815 -0.23657 6.88753 22
399 1 -8.89115 2.82461 6.64721 20
400 1 -8.42768 4.61463 9.17316 12
401 1 -7.18124 1.80649 9.92993 19
402 1 -6.78918 0.155454 11.8381 13
403 1 -8.52772 10.7266 -0.51377 13
404 1 -6.69093 7.68796 -1.13091 21
405 1 -6.97937 5.79563 1.52294 19
406 1 -8.11242 8.65494 0.998815 21
407 1 -8.34155 10.6102 3.30078 13
408 1 -6.52469 7.76487 3.77396 24
409 1 -7.24307 5.93606 6.21578 20
410 1 -8.54757 8.9327 6.34646 10
411 1 -6.85332 7.59188 9.03893 11
412 1 -6.47424 11.949 1.45829 14
413 1 -5.4137 4.94026 -0.788738 25
414 1 -3.89668 2.07505 -0.799634 25
415 1 -3.6108 0.120074 2.0378 25
416 1 -5.37993 3.01011 1.92253 25
417 1 -5.34012 4.7713 4.4281 19
418 1 -3.72908 1.88205 4.52455 22
419 1 -3.43089 -0.211647 7.18452 24
420 1 -5.36081 2.88492 7.24919 23
421 1 -5.10626 4.66609 9.79908 19
422 1 -3.79998 1.99418 9.98311 22
423 1 -3.47505 -0.169203 12.0144 16
424 1 -5.23652 3.14491 12.6033 12
425 1 -4.66206 10.6948 -0.298867 22
426 1 -3.58314 7.86917 -0.432564 24
427 1 -3.70283 5.80844 1.99208 24
428 1 -4.51604 9.03634 2.11667 21
429 1 -5.0857 10.9678 4.56118 15
430 1 -3.39569 7.79443 4.57732 21
431 1 -3.57505 5.9836 6.87131 21
432 1 -4.6579 8.95389 6.92123 17
433 1 -3.44706 7.59035 9.55524 16
434 1 -3.06746 5.69985 12.2579 12
435 1 -2.40966 13.4112 -0.864365 12
436 1 -3.00313 12.0419 2.10388 17
437 1 -2.96043 12.027 6.1626 8
438 1 -2.20199 4.77717 -0.594117 25
439 1 -0.500853 2.08816 -0.906403 23
440 1 -0.479602 0.0213971 1.68086 23
441 1 -1.88761 2.82334 2.13473 25
442 1 -1.88048 4.81103 4.6829 22
443 1 -0.337871 1.90051 4.40066 25
444 1 -0.132784 0.0651827 7.0247 21
445 1 -1.95241 2.63218 6.99282 21
446 1 -2.1409 4.49748 9.09797 20
447 1 -0.352196 1.92009 10.0067 23
448 1 -0.191991 -0.237115 12.6524 15
449 1 -2.07742 2.52833 12.9193 14
450 1 -1.78329 10.4723 -0.651639 22
451 1 -0.408066 7.43516 -0.633576 25
452 1 -0.3424 5.45114 1.80979 23
453 1 -1.60226 8.63232 1.78655 22
454 1 -1.32858 10.7291 4.346 20
455 1 -0.129039 7.59454 4.38719 21
456 1 -0.317462 5.95183 7.1708 22
457 1 -1.46877 8.91249 7.12735 19
458 1 -0.651547 7.8231 9.92498 15
459 1 -0.288761 5.72051 12.3173 12
460 1 0.831909 13.4068 -1.11756 12
461 1 0.312577 11.4439 1.58648 17
462 1 1.62156 13.0707 4.26177 12
463 1 0.397508 11.7129 7.06465 11
464 2 -13.3269 -0.268483 2.88794 15
465 2 -13.6564 1.73213 1.01082 13
466 2 -10.4945 -0.0865416 3.8532 20
467 2 -12.447 2.81047 4.10888 14
468 2 -11.3903 4.81848 1.84491 15
469 2 -10.3257 2.08973 1.73316 22
470 2 -10.1329 -0.0782754 9.21061 12
471 2 -11.5918 4.33471 6.21314 13
472 2 -10.6324 1.74084 6.90533 16
473 2 -10.0084 5.60723 4.34929 18
474 2 -9.21329 7.53228 2.15277 18
475 2 -9.94555 7.59224 6.17582 9
476 2 -6.86787 0.0623208 4.00238 21
477 2 -8.81851 2.67459 4.56427 22
478 2 -8.71676 4.81279 1.87795 22
479 2 -6.73677 1.78144 1.12773 20
480 2 -7.09319 -0.284186 9.90377 17
481 2 -8.75554 2.75302 9.44541 13
482 2 -8.55239 4.90083 7.07095 19
483 2 -6.90647 1.68965 6.72572 22
484 2 -6.58221 1.96866 12.0108 12
485 2 -6.9025 5.73773 4.1578 22
486 2 -8.10793 8.86777 4.42513 16
487 2 -7.90263 10.5628 1.27039 17
488 2 -6.36543 8.05397 1.80779 22
489 2 -6.8236 5.61669 9.6536 15
490 2 -7.36475 7.57667 7.18612 15
491 2 -6.60902 11.4671 3.36685 15
492 2 -3.61523 -0.131332 4.06085 22
493 2 -5.36841 2.85421 4.03178 23
494 2 -5.40395 4.79016 1.21929 23
495 2 -3.61642 2.15617 1.39242 24
496 2 -3.42618 -0.0795193 9.72335 20
497 2 -5.67582 2.76007 9.20533 21
498 2 -5.60102 4.91971 6.33795 21
499 2 -3.58312 1.75186 6.63411 23
500 2 -4.37719 4.61103 11.64 15
501 2 -3.82253 1.88299 12.058 17
502 2 -3.49146 5.89142 3.86367 24
503 2 -4.87119 8.9768 4.11352 19
504 2 -4.45321 10.7765 1.59285 19
505 2 -3.41314 7.56569 1.59693 23
506 2 -3.61328 5.73817 8.99123 22
507 2 -5.09034 8.17461 8.77471 11
508 2 -4.60502 10.8944 6.45463 12
509 2 -3.21692 7.87337 6.63732 19
510 2 -3.102 11.7002 4.17452 15
511 2 -2.92434 13.6217 0.892037 11
512 2 -0.175284 -0.00624406 3.89198 24
513 2 -2.09674 2.92922 4.18874 23
514 2 -2.09763 4.55543 1.36727 23
515 2 -0.438188 1.84931 1.1761 25
516 2 -0.344949 -0.0638714 9.15137 25
517 2 -2.06725 2.47119 9.33257 24
518 2 -2.16019 4.60025 6.66689 21
519 2 -0.311223 1.80644 6.27982 25
520 2 -1.63913 4.37765 12.5611 15
521 2 -0.277888 1.68523 12.1465 16
522 2 -0.1531 5.66727 4.10243 23
523 2 -1.65086 8.73474 3.86369 21
524 2 -1.60791 10.595 1.49392 23
525 2 -0.0795267 7.38766 1.34705 22
526 2 -0.356309 5.37352 8.97657 24
527 2 -2.0737 8.95873 8.9324 14
528 2 -1.32213 11.0167 6.43076 16
529 2 -0.210119 7.61981 6.35344 25
530 2 -1.66675 6.86245 11.2231 13
531 2 1.66974 13.0374 6.30157 9
532 2 0.241953 11.6107 3.61219 19
533 1 1.43302 -12.6365 -6.04899 8
534 1 1.45417 -6.35882 -11.7288 15
535 1 0.950646 -8.59297 -8.91739 15
536 1 1.31364 -6.60258 -6.22497 25
537 1 3.136 -9.42808 -6.28898 20
538 1 3.34908 -11.67 -4.23866 15
539 1 1.56931 -8.89761 -3.56177 23
540 1 1.07116 -3.85055 -13.7564 7
541 1 1.25703 -0.909639 -11.666 17
542 1 2.89938 -3.71244 -11.4684 21
543 1 2.92088 -5.88013 -8.9836 21
544 1 1.26961 -2.85869 -8.65687 24
545 1 1.30712 -0.855072 -5.87912 24
546 1 2.86081 -3.74341 -6.17724 22
547 1 3.05316 -5.53944 -3.42495 25
548 1 1.243 -2.79543 -3.28457 25
549 1 4.97159 -6.65902 -11.4043 13
550 1 5.51148 -8.40269 -8.7005 14
551 1 4.7541 -6.55977 -6.1764 24
552 1 6.33026 -9.81017 -6.32829 13
553 1 6.62303 -11.1392 -3.55446 13
554 1 4.65773 -8.30929 -3.54478 22
555 1 4.29191 -1.09183 -11.3234 15
556 1 6.37708 -3.75174 -11.5807 13
557 1 6.20507 -5.66292 -8.65141 22
558 1 4.55496 -2.88212 -8.79327 26
559 1 4.55064 -0.818772 -6.21344 23
560 1 6.13705 -3.57258 -6.0907 24
561 1 6.23551 -5.53049 -3.36218 23
562 1 4.67439 -2.7989 -3.40773 23
563 1 8.04582 -6.93159 -7.06519 16
564 1 8.07547 -8.48597 -4.20008 17
565 1 9.56502 1.81913 -11.5933 10
566 1 8.37232 -6.30805 -10.2397 12
567 1 8.11866 -2.98342 -9.16354 16
568 1 7.87032 -0.692582 -6.45858 22
569 1 9.49825 -4.28486 -7.19817 14
570 1 9.39157 -5.49982 -4.00986 17
571 1 7.73418 -2.57517 -3.46324 21
572 1 11.1873 -8.17817 -4.19808 10
573 1 11.1773 -0.880305 -6.66748 14
574 1 11.1223 -2.7741 -4.81383 16
575 2 1.28385 -12.0275 0.795654 15
576 2 1.46005 -12.2572 -4.2089 15
577 2 3.13781 -11.4223 -6.19911 13
578 2 1.46009 -8.48439 -7.02407 20
579 2 1.26374 -6.91691 -9.8113 18
580 2 4.66825 -6.71308 -9.43648 17
581 2 3.16976 -11.5375 -1.43847 16
582 2 1.43754 -8.6504 -1.51185 24
583 2 1.33164 -6.97533 -4.2242 23
584 2 3.20855 -9.51287 -4.26886 23
585 2 3.26221 -5.77843 -11.9758 13
586 2 1.37779 -2.82886 -12.1192 16
587 2 3.08175 -5.73337 -6.85628 23
588 2 1.21549 -2.72281 -6.8042 25
589 2 1.22345 -0.921907 -9.61345 26
590 2 2.79186 -3.90712 -9.41801 22
591 2 2.94499 -5.74735 -1.59764 25
592 2 1.13492 -2.76575 -1.38751 23
593 2 1.15869 -0.747965 -3.97036 23
594 2 2.84334 -3.65895 -4.14955 25
595 2 4.98576 -12.1941 -3.40329 11
596 2 4.88777 -8.66909 -6.83273 17
597 2 6.7226 -5.76829 -11.3891 12
598 2 6.35361 -11.4053 -1.6087 12
599 2 5.06873 -8.2636 -1.54592 22
600 2 4.58163 -6.45248 -4.13305 23
601 2 6.09979 -9.50575 -4.3432 18
602 2 4.74357 -2.9251 -11.8587 12
603 2 6.20096 -5.45119 -6.75571 24
604 2 4.4651 -2.53695 -6.75522 22
605 2 4.54988 -0.858669 -9.40931 22
606 2 6.12926 -3.67024 -9.62685 22
607 2 6.09808 -5.19785 -1.44591 21
608 2 4.34703 -2.66628 -1.43198 25
609 2 4.54723 -0.786941 -4.00388 24
610 2 6.25797 -3.7763 -3.96657 23
611 2 7.95601 -8.56564 -6.1465 14
612 2 7.30326 -7.22389 -8.87138 15
613 2 8.20972 -8.17546 -0.831299 19
614 2 7.86106 -6.6528 -3.3246 23
615 2 9.79527 -9.14825 -3.37654 14
616 2 9.04885 -5.72285 -6.03155 19
617 2 7.761 -2.69718 -7.06829 22
618 2 7.90373 -1.07652 -9.40165 15
619 2 8.98143 -4.68988 -9.25777 14
620 2 9.61267 -5.49909 -0.943905 22
621 2 7.71896 -2.48881 -1.32751 23
622 2 7.97361 -0.823492 -4.23496 24
623 2 9.64479 -3.46268 -3.61595 19
624 2 10.9224 -8.5563 -0.541633 14
625 2 10.9699 -6.46406 -3.384 16
626 2 10.7323 -2.83498 -6.74129 14
627 2 12.5454 -5.32903 -0.892943 13
628 2 11.4609 -2.617 -1.00223 18
629 2 11.3788 -0.52229 -4.66742 17
630 2 12.7623 -2.68396 -3.45729 12
631 1 1.42779 -12.2844 -1.09511 15
632 1 1.55294 -12.1906 4.653 17
633 1 1.25227 -6.74693 -0.910917 21
634 1 3.23935 -9.55751 -0.930925 25
635 1 3.06503 -11.5808 1.74513 19
636 1 1.36744 -8.66037 1.70019 25
637 1 1.3309 -6.76407 4.47808 25
638 1 3.01221 -9.42459 4.30155 25
639 1 3.35243 -11.107 6.93043 14
640 1 1.43373 -8.48925 7.17103 23
641 1 1.35485 -6.63897 9.76778 22
642 1 3.2125 -9.01536 10.2102 13
643 1 1.04118 -0.821862 -0.73912 24
644 1 2.65655 -3.83256 -0.897183 23
645 1 3.17001 -5.78644 1.82174 23
646 1 1.17537 -2.85668 1.69092 21
647 1 1.3643 -0.969558 4.48205 26
648 1 3.03679 -3.87996 4.2681 25
649 1 3.14263 -5.80268 6.93874 23
650 1 1.45557 -2.99165 7.11099 24
651 1 1.33672 -1.06197 9.57469 19
652 1 3.05654 -3.73682 9.88798 22
653 1 2.72042 -6.04796 12.213 12
654 1 1.44623 -3.08578 12.2404 16
655 1 4.91183 -12.6974 -1.53124 10
656 1 4.56806 -12.6984 4.22455 11
657 1 4.62447 -6.45642 -0.780605 23
658 1 6.50606 -9.42342 -1.18053 21
659 1 6.5125 -11.1774 2.02577 14
660 1 4.88035 -8.57278 1.62682 23
661 1 4.67206 -6.85722 4.32467 24
662 1 5.78006 -9.83686 4.75549 19
663 1 4.95246 -8.60717 7.06846 17
664 1 4.88451 -6.768 9.46828 17
665 1 4.62471 -0.828527 -0.737161 24
666 1 6.12491 -3.39659 -0.758544 22
667 1 6.43251 -5.58619 1.54135 21
668 1 4.66341 -2.71313 1.85962 21
669 1 4.76759 -0.972144 4.62388 24
670 1 6.37658 -3.89415 4.10522 23
671 1 6.33908 -5.83505 6.95437 23
672 1 4.76486 -2.95554 7.01867 22
673 1 4.84763 -0.980298 9.55404 22
674 1 6.52378 -3.88212 9.67908 22
675 1 4.89879 -3.19983 12.3483 13
676 1 7.77699 -6.39153 -1.43291 24
677 1 9.66752 -9.33394 -1.53607 15
678 1 8.33784 -8.50208 1.05711 21
679 1 7.85998 -6.62717 3.84099 25
680 1 9.01132 -10.018 3.84308 12
681 1 8.60438 -8.50133 6.52904 13
682 1 8.50399 -6.07299 9.24532 14
683 1 7.88499 -0.677984 -0.752583 22
684 1 9.76473 -3.72928 -1.68959 23
685 1 9.85629 -5.72636 1.1558 23
686 1 8.12768 -2.67503 1.72276 22
687 1 8.25793 -0.795793 4.4596 22
688 1 10.0279 -3.82615 3.88794 20
689 1 9.94794 -5.59357 6.44778 15
690 1 7.94461 -2.83691 7.13719 23
691 1 8.35837 -3.24202 12.0231 10
692 1 9.87143 -3.62836 9.12527 13
693 1 11.34 -6.7692 -1.34747 16
694 1 11.5965 -8.57686 1.30572 11
695 1 10.5177 -7.42863 3.66103 14
696 1 11.2592 -0.7433 -0.899402 21
697 1 12.8713 -3.76383 -1.83905 15
698 1 13.0642 -5.55768 1.04955 12
699 1 11.3995 -2.74155 1.05821 19
700 1 11.4753 -0.422006 4.64534 16
701 1 12.8655 -2.84684 3.5093 11
702 1 11.6621 -2.50949 6.78251 12
703 2 2.97833 -11.3665 3.64465 20
704 2 1.39666 -11.8003 6.40705 15
705 2 4.90859 -11.3288 5.82106 13
706 2 1.363 -8.65208 3.68282 24
707 2 1.82388 -6.95095 1.03228 22
708 2 3.25415 -9.62629 1.18163 22
709 2 1.57845 -8.50704 9.24366 18
710 2 1.38793 -6.78991 6.45102 24
711 2 3.23333 -9.21938 6.32048 21
712 2 0.971911 -6.42521 11.8074 16
713 2 2.95241 -5.90922 3.90567 22
714 2 1.26196 -2.94264 4.01048 22
715 2 1.1957 -0.849489 1.2684 24
716 2 2.91661 -3.82722 1.28269 24
717 2 3.09793 -5.5673 8.96708 25
718 2 1.41526 -3.11442 9.40503 19
719 2 1.43651 -1.03992 7.05384 20
720 2 3.22348 -3.94072 6.26339 23
721 2 1.47126 -1.12146 12.5115 15
722 2 3.32052 -4.10345 11.9171 17
723 2 5.02183 -12.1889 2.26169 13
724 2 7.26393 -10.4261 3.4941 15
725 2 4.79596 -8.71032 3.49828 23
726 2 4.937 -6.75854 1.04143 22
727 2 6.64981 -9.75409 0.788317 17
728 2 4.56014 -8.54042 8.98321 15
729 2 4.82235 -6.69534 6.3761 25
730 2 6.78687 -8.97249 6.02424 15
731 2 3.77297 -7.1935 11.1582 11
732 2 6.22748 -5.81388 3.53351 19
733 2 4.67461 -2.9694 3.8671 23
734 2 4.73257 -0.707491 1.19966 23
735 2 6.52516 -3.58836 1.42475 21
736 2 6.60644 -5.78615 8.9887 18
737 2 4.81192 -2.98322 9.08817 24
738 2 4.44391 -1.18402 6.61402 22
739 2 6.34714 -3.9544 6.31873 24
740 2 4.55164 -1.09766 12.4547 16
741 2 6.52604 -3.83018 11.6942 14
742 2 9.25483 -8.39214 4.82541 13
743 2 8.1636 -6.61102 1.8068 22
744 2 9.96539 -9.0888 2.45523 13
745 2 8.37757 -6.52104 7.33196 16
746 2 9.46376 -5.69203 4.61391 18
747 2 8.14401 -2.64473 3.93144 19
748 2 8.23973 -0.781317 1.27938 23
749 2 9.90045 -3.91845 1.95759 21
750 2 9.20022 -4.68358 10.5843 10
751 2 8.16524 -2.73309 9.11777 19
752 2 8.0519 -0.996549 6.53598 23
753 2 10.2166 -3.72721 7.26038 15
754 2 7.8346 -1.49379 11.7699 14
755 2 11.6163 -6.72487 1.87445 15
756 2 11.444 -2.49809 4.81151 16
757 2 11.5325 -0.724036 1.07541 20
758 2 12.6493 -3.9613 1.95661 13
759 2 11.4567 -0.565893 6.56998 13
760 1 7.83829 4.75584 -11.4568 11
761 1 -0.866657 4.07275 -13.665 10
762 1 0.945687 5.30062 -11.1378 20
763 1 2.88516 2.00005 -11.3905 19
764 1 2.89648 0.0660115 -8.73939 24
765 1 1.32372 2.88 -8.52578 23
766 1 1.40775 4.9748 -5.76972 25
767 1 2.96496 2.05849 -6.05443 25
768 1 2.82551 0.0157543 -3.39653 24
769 1 1.30088 2.90446 -3.47572 24
770 1 2.54397 7.78849 -11.6396 11
771 1 2.96164 5.88206 -8.508 23
772 1 1.60339 8.93016 -8.54757 17
773 1 0.841882 10.9226 -6.22088 15
774 1 3.03883 7.76315 -5.95473 24
775 1 3.40542 5.61285 -3.22467 23
776 1 1.33563 8.68563 -3.35443 22
777 1 2.74194 11.7173 -3.58604 16
778 1 4.18487 4.99766 -10.9487 16
779 1 6.24419 2.08217 -11.3862 16
780 1 6.40878 0.029732 -8.86109 22
781 1 4.62904 2.74112 -8.54532 22
782 1 4.72631 4.90617 -5.99454 24
783 1 6.49096 2.03952 -5.91194 23
784 1 6.44058 0.0836934 -3.32858 24
785 1 4.61805 2.7587 -3.37133 24
786 1 6.5313 5.86519 -8.68165 17
787 1 4.47958 8.31141 -8.55363 16
788 1 4.37375 10.6955 -6.43761 13
789 1 6.3682 7.87201 -5.93947 19
790 1 6.25525 5.84757 -3.44004 25
791 1 4.45209 8.79705 -3.05781 23
792 1 5.94147 12.164 -4.02607 11
793 1 9.68352 -0.304643 -9.12425 14
794 1 8.18859 2.99188 -8.90084 19
795 1 7.9191 5.02474 -6.09155 21
796 1 9.59271 2.10754 -6.11196 24
797 1 9.80785 -0.133172 -3.60835 23
798 1 8.08711 2.87461 -3.37726 25
799 1 7.87558 8.9124 -8.37194 8
800 1 9.50065 7.70741 -5.2952 14
801 1 9.58385 5.05878 -3.52406 19
802 1 7.64573 8.79434 -3.08984 17
803 1 11.3295 4.80152 -6.13042 10
804 1 11.4935 1.8941 -8.60509 10
805 1 12.9541 -0.802831 -3.66838 12
806 1 11.4476 2.37427 -3.67782 16
807 2 2.8889 0.0218768 -11.8807 15
808 2 1.24055 3.25371 -11.5502 17
809 2 2.85901 0.149417 -6.83115 24
810 2 1.12921 3.08132 -6.44358 22
811 2 1.30027 5.01132 -8.957 18
812 2 2.91549 2.08887 -9.21666 22
813 2 2.67489 0.067013 -1.35446 23
814 2 1.10622 2.90706 -1.26597 23
815 2 1.24175 4.89782 -3.69325 20
816 2 2.85624 2.01091 -4.16295 24
817 2 2.70713 5.91041 -11.3041 12
818 2 2.96389 5.74363 -6.49012 22
819 2 1.17642 8.44375 -6.70923 22
820 2 0.968842 8.07306 -12.8077 9
821 2 3.05159 7.83801 -9.55149 17
822 2 3.0066 5.6662 -1.37363 26
823 2 1.1679 8.35031 -1.40587 23
824 2 0.978103 10.7197 -4.34433 22
825 2 2.94696 7.64438 -3.7562 22
826 2 2.65461 10.3439 -7.43918 12
827 2 3.52097 10.4232 -2.2625 20
828 2 2.42659 12.9493 -2.29618 16
829 2 5.72948 12.8181 -2.21047 12
830 2 7.95172 2.79641 -11.829 8
831 2 4.54372 3.13896 -11.4366 12
832 2 6.09771 0.233621 -6.95408 23
833 2 4.62625 2.77531 -6.57607 22
834 2 4.71241 5.29639 -9.11556 18
835 2 6.26593 1.8751 -9.48337 20
836 2 6.22074 0.145371 -1.35823 25
837 2 4.50645 2.91603 -1.46231 24
838 2 4.69589 4.65899 -4.12372 24
839 2 6.35323 1.94363 -3.94208 22
840 2 6.37305 6.03149 -6.47005 22
841 2 4.6612 8.57609 -6.51895 20
842 2 6.4282 7.92389 -8.83391 10
843 2 6.18718 5.59465 -1.39187 24
844 2 4.62593 8.3506 -1.00998 23
845 2 4.47522 11.8711 -5.07302 12
846 2 6.05525 8.0257 -3.97373 21
847 2 6.98325 10.8978 -0.0814747 17
848 2 9.46464 0.260284 -7.00164 20
849 2 7.94048 3.16367 -6.96006 23
850 2 7.78647 4.69267 -9.68362 15
851 2 9.63434 1.73727 -9.58667 16
852 2 9.67239 0.141651 -1.72955 25
853 2 8.01627 3.02208 -1.3222 24
854 2 7.66912 4.64111 -3.84664 22
855 2 9.51043 1.81771 -4.07519 20
856 2 9.73039 5.85851 -5.95695 13
857 2 8.23327 8.18466 -6.79728 12
858 2 9.7006 5.36646 -1.36336 18
859 2 7.77048 8.27667 -1.13999 19
860 2 7.19129 10.6487 -3.23308 13
861 2 9.28932 7.36954 -3.4807 16
862 2 11.1982 2.92745 -6.95462 14