ITEM: TIMESTEP
318000
ITEM: NUMBER OF ATOMS
1000
ITEM: BOX BOUNDS pp pp pp
-30.0 30.0
-30.0 30.0
-30.0 30.0
ITEM: ATOMS id type x y z Coordination
1 1 -12.0497 -1.17794 -6.39011 14
2 1 -10.0813 -3.91742 -6.12489 17
3 1 -10.4099 -5.90462 -4.11849 18
4 1 -13.42 -4.02895 -5.11122 10
5 1 -8.49275 -7.10868 -6.77814 13
6 1 -13.1009 -7.40913 -3.85755 7
7 1 -6.62208 -11.941 -3.93557 12
8 1 -8.11126 -8.64083 -3.8241 18
9 1 -8.21203 -0.796079 -11.6557 13
10 1 -6.89244 -3.78582 -12.0604 14
11 1 -6.97379 -5.81114 -9.7179 14
12 1 -8.38371 -2.73621 -9.19639 16
13 1 -8.63613 -1.35454 -6.13774 22
14 1 -7.02609 -3.98779 -7.02672 19
15 1 -7.04257 -5.8941 -3.55008 22
16 1 -8.48308 -2.92152 -3.98897 19
17 1 -5.21512 -6.65768 -12.0522 11
18 1 -6.97977 -9.73311 -6.59461 13
19 1 -5.20355 -6.7809 -6.08731 23
20 1 -3.41855 -9.63233 -6.70198 19
21 1 -3.49838 -11.8072 -4.06542 16
22 1 -5.36118 -8.93611 -3.70102 23
23 1 -4.77639 -0.505258 -11.6304 18
24 1 -3.62648 -3.87712 -12.0854 17
25 1 -3.86058 -5.58104 -8.99853 23
26 1 -5.34624 -2.66987 -9.94067 20
27 1 -5.2885 -0.979008 -6.21994 20
28 1 -3.46259 -3.90921 -6.25554 21
29 1 -3.60858 -5.96458 -3.45893 24
30 1 -5.35477 -3.07406 -3.46424 21
31 1 -4.89734 -8.11253 -8.8938 14
32 1 -2.25084 -6.8018 -11.69 15
33 1 -1.00312 -11.8045 -8.13862 11
34 1 -1.90721 -8.83117 -9.53891 15
35 1 -1.95056 -6.75434 -6.32447 19
36 1 -0.202072 -9.59826 -6.34618 19
37 1 -0.422501 -11.6679 -4.31545 14
38 1 -2.04696 -8.64681 -3.71827 22
39 1 -1.68811 -1.10903 -11.6253 22
40 1 1.18962 -1.28881 -11.0069 21
41 1 -0.472485 -5.69587 -8.95851 23
42 1 -2.12042 -2.85655 -8.93966 24
43 1 -2.18267 -0.908896 -6.01364 23
44 1 -0.1746 -3.76067 -6.08667 21
45 1 -0.0907053 -5.97287 -3.50416 23
46 1 -2.17417 -3.00901 -3.48538 22
47 2 -11.9308 -2.7226 -1.27781 19
48 2 -12.8874 -5.59586 -4.32491 13
49 2 -12.0489 -8.19714 -2.66165 10
50 2 -9.7917 -6.00133 -5.99341 14
51 2 -11.691 -2.99188 -6.02764 15
52 2 -8.02466 -2.56142 -11.3346 13
53 2 -10.7152 -5.66407 -1.14383 20
54 2 -14.0181 -5.36243 -1.04566 13
55 2 -11.9848 -0.28681 -4.60126 16
56 2 -10.2106 -3.91184 -3.56132 21
57 2 -8.16182 -8.7269 -5.64747 15
58 2 -6.84749 -5.84032 -6.77829 20
59 2 -4.86739 -12.3073 2.21217 16
60 2 -8.62405 -8.94398 -1.49642 16
61 2 -9.05823 -6.91827 -3.42625 17
62 2 -6.51565 -11.4236 -5.69411 11
63 2 -5.05082 -6.6799 -10.2024 17
64 2 -8.60884 -3.10859 -7.03612 17
65 2 -8.83892 -0.405448 -9.82579 15
66 2 -6.75438 -3.99033 -9.43039 15
67 2 -7.21872 -5.95247 -1.35335 20
68 2 -8.47592 -2.885 -1.89365 20
69 2 -8.56497 -0.893803 -4.37429 22
70 2 -6.8463 -4.02235 -3.97556 22
71 2 -5.04358 -12.6452 -3.13781 13
72 2 -3.36273 -9.14391 -8.56797 14
73 2 -6.96024 -10.127 -3.15899 17
74 2 -6.81903 -5.59218 -11.8231 10
75 2 -5.43465 -8.60707 -7.10031 16
76 2 -1.85404 -12.6379 -3.39728 11
77 2 -5.05526 -8.92847 -1.44055 22
78 2 -5.32741 -7.15772 -4.10577 21
79 2 -3.67721 -9.78783 -4.33507 20
80 2 -3.7491 -5.72287 -12.2845 13
81 2 -5.29492 -2.56074 -12.0432 15
82 2 -3.54972 -5.78555 -6.90526 23
83 2 -5.21277 -3.04071 -6.76459 23
84 2 -5.39156 -0.661055 -9.51176 24
85 2 -3.77993 -3.87432 -9.61614 23
86 2 -3.87632 -6.07976 -1.46623 23
87 2 -5.24223 -2.83899 -1.32455 22
88 2 -5.13961 -0.90033 -4.34358 25
89 2 -3.72036 -3.77609 -4.27315 22
90 2 -3.31629 -11.9768 -0.723204 16
91 2 -0.414412 -11.5481 -6.41598 15
92 2 -0.482559 -9.7529 -8.64787 13
93 2 -1.87073 -8.58277 -6.60975 22
94 2 -2.08789 -6.65084 -9.71515 23
95 2 2.73169 -9.74676 -9.48664 11
96 2 -0.0165291 -11.7714 -0.73714 17
97 2 -1.94698 -8.78308 -1.73942 24
98 2 -1.90367 -6.60267 -3.86267 22
99 2 -0.323849 -9.4204 -4.26929 23
100 2 -0.515227 -6.15783 -12.2997 12
101 2 -1.67727 -3.08359 -12.217 15
102 2 -0.277037 -5.51762 -6.84291 23
103 2 -1.86935 -2.69139 -6.6799 22
104 2 -1.99589 -1.05915 -9.75199 23
105 2 -0.400081 -3.96294 -9.58455 23
106 2 -0.468765 -5.99947 -1.35877 22
107 2 -2.20414 -3.02954 -1.56838 24
108 2 -1.84649 -0.943844 -3.79013 20
109 2 -0.400396 -3.88948 -3.98542 21
110 1 -13.621 -3.60243 -2.0134 16
111 1 -12.5418 -6.47342 -1.33331 15
112 1 -10.6879 -9.21225 -1.54042 11
113 1 -10.5549 -4.18056 3.57163 18
114 1 -11.9192 -0.857915 -0.753864 19
115 1 -10.3765 -3.74866 -1.68056 19
116 1 -10.5714 -6.15214 0.796847 16
117 1 -14.26 -5.25041 0.840894 8
118 1 -12.6091 0.157281 4.3128 16
119 1 -11.862 -3.33404 0.917149 21
120 1 -10.208 -5.65006 6.64939 11
121 1 -11.5975 -2.90082 6.46412 11
122 1 -8.95118 -6.95318 -1.32404 19
123 1 -6.85146 -9.96652 -1.06293 17
124 1 -6.62772 -11.5847 1.75775 15
125 1 -8.36019 -8.84184 1.48693 15
126 1 -8.73929 -7.0609 4.27812 15
127 1 -7.09279 -9.96665 4.31325 14
128 1 -7.96982 -8.27839 8.04763 8
129 1 -8.3751 -0.979099 -0.816541 24
130 1 -6.85952 -3.80517 -0.984128 21
131 1 -7.3212 -5.73869 1.85934 23
132 1 -8.60672 -2.79923 1.86806 19
133 1 -8.52669 -0.72151 4.68972 20
134 1 -7.21214 -3.70737 4.20644 23
135 1 -7.13896 -5.73198 6.92709 20
136 1 -8.45714 -2.86306 7.00407 18
137 1 -8.16129 -0.81568 9.88507 16
138 1 -6.93453 -3.46741 10.0732 14
139 1 -5.24104 -12.7845 -1.141 13
140 1 -5.04503 -12.8841 4.01415 9
141 1 -5.43918 -7.12115 -0.941025 22
142 1 -3.92517 -10.0078 -0.572105 24
143 1 -3.39853 -11.6195 1.23747 19
144 1 -5.26371 -8.57716 1.63872 23
145 1 -5.61514 -6.91851 4.28941 22
146 1 -3.60171 -9.54488 4.3332 23
147 1 -3.25303 -11.3147 6.58239 14
148 1 -5.25891 -8.05354 7.01923 19
149 1 -5.08627 -6.27084 9.66493 17
150 1 -3.55459 -8.77686 10.5052 12
151 1 -4.97805 -0.832352 -0.631702 23
152 1 -3.67276 -4.09987 -0.874176 22
153 1 -3.91417 -6.03201 1.77303 22
154 1 -5.22129 -2.68554 1.57257 20
155 1 -5.25941 -0.964183 4.49744 22
156 1 -3.81641 -3.70524 4.40593 24
157 1 -3.78679 -5.24495 6.89616 21
158 1 -5.59435 -2.74424 6.98363 23
159 1 -5.06156 -0.746667 9.26381 21
160 1 -3.48825 -3.78382 9.855 23
161 1 -3.00368 -5.92962 12.2882 12
162 1 -5.14782 -3.00557 12.2957 12
163 1 -1.51739 -12.5868 -1.48854 15
164 1 -1.67373 -12.5697 3.67751 13
165 1 -2.22746 -6.95929 -0.881959 25
166 1 -0.429848 -9.362 -0.878243 22
167 1 0.0525746 -11.6343 1.13124 18
168 1 -1.9137 -8.68613 1.93271 23
169 1 -2.09676 -6.81031 4.44205 23
170 1 -0.343982 -9.60383 4.58399 23
171 1 -1.50869 -11.8537 9.84188 8
172 1 -1.92932 -8.58727 6.89425 21
173 1 -1.84181 -6.47511 9.70629 20
174 1 -0.369188 -9.0856 9.54909 17
175 1 -1.78888 -1.26931 -0.859394 21
176 1 -0.535438 -4.10985 -0.740346 23
177 1 -0.61759 -6.06705 1.93239 24
178 1 -2.10011 -3.07323 1.80839 22
179 1 -1.54234 -1.12656 4.06448 20
180 1 -0.129073 -3.81261 4.75187 22
181 1 -0.283405 -5.97369 7.13751 23
182 1 -1.8687 -2.77324 6.95521 23
183 1 -1.66104 -0.941991 9.43576 21
184 1 -0.0547664 -3.70331 9.65743 22
185 1 0.556424 -6.7012 13.1508 6
186 1 -1.82707 -2.53614 12.0716 14
187 2 -13.7188 -3.74611 1.94858 13
188 2 -12.5264 -6.0279 0.839586 12
189 2 -6.33258 -11.6347 -0.262943 16
190 2 -9.95007 -5.75474 4.44513 17
191 2 -12.1106 -3.57201 4.53843 12
192 2 -11.9843 -0.311955 1.00079 17
193 2 -10.1677 -4.14296 1.73945 17
194 2 -12.1612 -1.10605 6.56314 13
195 2 -10.0364 -3.84509 6.91547 15
196 2 -6.56326 -11.7248 4.00579 10
197 2 -8.14747 -8.68794 3.49787 15
198 2 -8.85272 -6.91187 1.27392 18
199 2 -6.70768 -9.5773 1.14258 19
200 2 -8.79414 -6.60075 7.13988 13
201 2 -6.98661 -9.36509 6.44913 14
202 2 -7.21056 -5.7316 3.94952 21
203 2 -8.41271 -2.24051 3.71339 20
204 2 -8.85203 -0.812874 1.32332 23
205 2 -6.86286 -3.71061 1.23218 21
206 2 -5.84332 -4.73292 10.6634 12
207 2 -8.04949 -2.40662 8.91451 17
208 2 -8.68727 -0.644713 6.55964 20
209 2 -7.03851 -3.89201 6.32465 23
210 2 -4.98981 -1.17336 12.9879 10
211 2 -1.72179 -12.3792 1.833 14
212 2 -3.28678 -11.8134 4.56168 15
213 2 -4.99287 -8.57718 3.65877 22
214 2 -5.69867 -6.65705 1.1777 21
215 2 -3.36926 -9.72316 1.16568 24
216 2 -6.41932 -7.47837 8.72103 12
217 2 -5.34616 -6.35645 6.15832 22
218 2 -3.43376 -9.25339 6.43255 17
219 2 -3.64049 -5.7544 3.79727 22
220 2 -5.38806 -2.79063 3.74639 22
221 2 -5.33613 -0.913582 1.34979 22
222 2 -3.49774 -4.12202 1.13154 22
223 2 -3.49308 -5.4642 8.73449 23
224 2 -5.03481 -2.65942 9.21427 22
225 2 -5.57117 -1.04382 6.53887 22
226 2 -3.89672 -3.40368 6.42339 20
227 2 -6.54861 -1.73415 11.0206 14
228 2 -3.86269 -7.21406 11.2801 12
229 2 -0.299714 -11.5706 4.53093 16
230 2 -2.67915 -10.2731 10.2908 10
231 2 -1.90057 -11.7621 7.81246 12
232 2 -1.8428 -8.56489 3.83666 21
233 2 -2.34598 -6.94117 1.17438 25
234 2 -0.0837837 -9.65422 1.04847 23
235 2 -1.93909 -8.17774 8.94861 20
236 2 -2.23058 -6.69818 6.34896 24
237 2 0.0635638 -9.24962 6.66776 21
238 2 -1.10613 -6.17953 13.0739 8
239 2 -0.489816 -5.75923 3.97892 24
240 2 -1.94981 -3.1521 3.98948 20
241 2 -2.23094 -1.03377 1.14312 23
242 2 -0.174336 -4.29159 1.27398 20
243 2 -0.355741 -5.47652 9.03091 19
244 2 -1.87016 -2.88585 9.25537 20
245 2 -1.72193 -0.905612 6.3783 23
246 2 -0.066229 -2.83616 6.50091 22
247 2 -0.111951 -3.25489 11.5218 19
248 2 -3.2515 -3.88912 11.9729 17
249 1 -13.4086 -0.975391 -3.48727 13
250 1 -10.3536 0.589276 -9.01209 11
251 1 -11.9928 4.63384 -5.68298 12
252 1 -10.3552 2.31531 -6.47987 17
253 1 -10.2532 -0.559187 -3.4546 21
254 1 -12.1556 1.67557 -3.92496 16
255 1 -9.70622 7.35699 -7.22986 11
256 1 -10.1212 5.612 -3.91436 17
257 1 -6.88843 2.09454 -11.8036 12
258 1 -6.97306 0.395965 -9.08588 23
259 1 -8.51737 3.48188 -9.14544 15
260 1 -8.25144 5.04143 -6.2143 20
261 1 -6.92736 1.8234 -6.22093 22
262 1 -6.74704 -0.053289 -3.63658 23
263 1 -8.76019 2.78906 -3.79171 19
264 1 -6.51819 6.27424 -8.31495 17
265 1 -6.69449 8.36484 -6.15041 17
266 1 -7.12543 5.72875 -3.14045 19
267 1 -9.05863 8.58632 -3.9471 17
268 1 -7.61813 11.2848 -3.16743 11
269 1 -4.89804 4.81622 -11.2169 15
270 1 -3.50612 2.20917 -11.0568 22
271 1 -3.65912 -0.227647 -8.85843 22
272 1 -5.1016 3.10135 -8.63952 23
273 1 -5.23639 5.04136 -5.85183 23
274 1 -3.71761 2.03436 -5.95065 22
275 1 -3.39063 -0.0967109 -3.25433 25
276 1 -5.32786 2.79484 -3.48436 21
277 1 -2.9492 7.55283 -11.5325 13
278 1 -3.10213 5.82719 -8.64315 22
279 1 -4.88385 9.15078 -8.68761 14
280 1 -5.2524 10.9535 -5.43971 12
281 1 -3.6648 7.89864 -5.72869 24
282 1 -3.67275 5.73786 -3.27389 21
283 1 -5.54972 8.63407 -3.05884 22
284 1 -3.04182 12.1706 -3.25813 13
285 1 -1.91357 1.13293 -13.3534 12
286 1 -1.67859 4.5829 -11.9816 19
287 1 -0.534406 1.51339 -11.0382 24
288 1 -0.441206 0.0355704 -8.48978 24
289 1 -1.94239 2.85754 -8.61721 23
290 1 -2.0739 4.90076 -6.01207 23
291 1 0.0363298 1.81672 -5.80721 23
292 1 -0.239853 -0.24771 -3.23686 23
293 1 -1.88371 2.69262 -3.68492 22
294 1 0.209559 7.03384 -13.3194 10
295 1 -0.355459 5.54775 -8.89508 21
296 1 -1.77883 8.86623 -8.74483 19
297 1 -2.64439 10.5418 -6.59056 14
298 1 -0.202484 7.63681 -6.04442 22
299 1 -0.53698 5.68518 -3.42655 24
300 1 -1.8935 8.48658 -3.43162 19
301 1 0.185339 9.21261 -11.4923 10
302 1 -1.31843 13.6076 -5.91483 7
303 2 -13.7915 -2.74891 -3.87435 11
304 2 -13.635 -0.104804 -1.87843 15
305 2 -10.7042 -0.452726 -7.56003 14
306 2 -12.1587 2.72346 -5.88645 12
307 2 -10.1146 2.38503 -8.36854 13
308 2 -10.0882 -0.372077 -1.24926 19
309 2 -12.6505 2.50847 -1.82026 14
310 2 -11.7466 4.62285 -3.75253 14
311 2 -9.99439 1.4395 -3.17544 19
312 2 -10.4024 5.73506 -6.185 14
313 2 -10.8454 5.24759 -0.92472 15
314 2 -10.257 7.44622 -3.02687 16
315 2 -6.53636 0.293609 -11.9166 13
316 2 -7.10667 -0.329586 -6.83242 19
317 2 -8.63866 2.99516 -6.06476 17
318 2 -8.09804 5.21372 -8.23468 15
319 2 -7.29497 2.32176 -9.79164 19
320 2 -6.74821 -0.223806 -1.28415 21
321 2 -8.73338 2.63356 -0.671704 19
322 2 -8.31969 4.91016 -4.22354 22
323 2 -7.15778 1.8576 -3.79306 19
324 2 -6.50486 6.4295 -6.25228 20
325 2 -8.68825 8.28183 -5.83958 16
326 2 -6.36871 8.06481 -8.54687 14
327 2 -7.07683 5.62258 -1.11127 18
328 2 -9.49263 8.35522 -0.842352 16
329 2 -9.22681 10.3521 -3.07848 10
330 2 -7.17293 7.75926 -2.96946 20
331 2 -7.22607 11.4413 -1.24847 13
332 2 -3.13511 0.290555 -12.1032 16
333 2 -5.21362 2.97532 -11.4371 14
334 2 -3.64978 0.0862284 -6.9152 23
335 2 -5.40785 3.2006 -6.79451 25
336 2 -4.81039 4.85536 -9.14762 19
337 2 -3.54953 1.75467 -9.26416 22
338 2 -3.35311 0.0630833 -1.30283 22
339 2 -5.18937 2.76955 -1.4044 23
340 2 -5.18804 4.77192 -3.81785 23
341 2 -3.48568 1.66373 -3.96416 22
342 2 -3.4473 5.71425 -12.0115 12
343 2 -3.7884 5.96389 -6.51903 22
344 2 -4.92006 9.27378 -6.41165 17
345 2 -2.70212 7.49123 -9.65977 18
346 2 -3.57413 5.96825 -1.18289 21
347 2 -5.47287 8.72157 -1.00651 19
348 2 -3.67585 11.682 -5.05779 12
349 2 -3.69674 7.90988 -3.58705 20
350 2 -3.35632 10.0884 -8.40585 12
351 2 -3.69105 11.4781 -1.57334 16
352 2 -6.13127 10.3855 -3.86607 17
353 2 0.0367815 -0.109009 -11.6644 18
354 2 -0.164219 1.37659 -14.0471 11
355 2 -0.407656 0.0526436 -6.58328 24
356 2 -1.90743 2.97946 -6.30453 24
357 2 -1.78511 2.66288 -12.0232 18
358 2 -0.296776 1.81662 -9.33483 24
359 2 -0.323002 0.197558 -1.17804 21
360 2 -1.76021 2.99512 -1.47862 23
361 2 -2.19412 4.60961 -3.68123 24
362 2 -0.076312 1.54518 -3.78133 23
363 2 -0.0443691 5.24133 -12.651 15
364 2 -0.442671 5.86251 -6.84782 23
365 2 -1.88197 8.65735 -6.68237 20
366 2 -1.27064 7.77987 -12.3092 10
367 2 -1.70596 4.46109 -9.90419 23
368 2 -0.468905 5.88359 -1.527 22
369 2 -1.80624 8.87363 -1.37863 21
370 2 -0.584754 11.8864 -6.59508 11
371 2 -0.2868 7.6902 -3.883 22
372 2 -0.163041 9.04219 -9.62791 15
373 2 -0.180899 11.6748 -1.57411 17
374 2 0.634605 13.3214 2.68632 11
375 2 -1.68198 13.4342 -3.90674 8
376 1 -14.0998 1.46859 -0.990297 11
377 1 -13.8019 -3.08738 3.68128 10
378 1 -13.8922 -0.310095 1.50285 12
379 1 -12.1419 4.24058 -1.92338 14
380 1 -10.5139 1.62008 -1.12565 22
381 1 -10.4137 0.173928 1.9483 22
382 1 -12.6142 2.55253 2.05506 15
383 1 -12.737 5.29859 4.35488 12
384 1 -10.3642 2.29286 4.03876 20
385 1 -10.5785 -0.244493 7.2459 17
386 1 -12.1124 2.74791 6.48255 13
387 1 -10.2004 1.70963 9.47172 11
388 1 -10.8591 7.21583 -1.16907 13
389 1 -10.9222 5.20647 1.52243 16
390 1 -10.8901 7.62275 3.68297 11
391 1 -10.5584 5.71912 6.77252 12
392 1 -9.05073 4.9224 -0.384353 21
393 1 -6.78903 1.57204 -0.630063 22
394 1 -7.00301 0.204275 2.06737 23
395 1 -8.58442 2.6735 1.19301 19
396 1 -8.95044 5.10566 4.23476 21
397 1 -6.96024 2.40639 4.46715 21
398 1 -6.94186 0.29771 7.10812 22
399 1 -8.78826 3.07345 7.0755 21
400 1 -8.53354 4.71257 9.78728 11
401 1 -6.93077 2.158 9.92502 18
402 1 -6.5006 -0.214205 12.0519 12
403 1 -9.17209 10.2852 -1.05979 14
404 1 -7.46768 7.65586 -0.892017 21
405 1 -6.93845 5.57729 1.72775 21
406 1 -9.62018 8.11523 1.17668 15
407 1 -9.07194 11.0124 2.70508 10
408 1 -6.91666 7.59319 4.36799 19
409 1 -7.12043 5.73975 7.37011 21
410 1 -7.45206 11.4635 5.95308 7
411 1 -6.95158 7.62586 9.8266 9
412 1 -7.12 11.8423 0.622244 12
413 1 -5.36876 4.86672 -0.943336 22
414 1 -3.41322 2.08922 -1.01724 23
415 1 -3.4456 0.137692 1.75519 20
416 1 -5.06915 2.99409 1.92508 23
417 1 -5.23141 5.04065 4.59993 23
418 1 -3.58012 1.77444 4.49242 20
419 1 -3.58024 -0.0195915 6.75156 21
420 1 -5.3176 3.02491 7.27459 23
421 1 -4.98097 4.95747 9.99561 19
422 1 -3.65986 1.98764 9.1074 18
423 1 -3.41825 0.0755882 12.4236 16
424 1 -4.9184 3.11285 12.6655 12
425 1 -5.32189 10.7178 -0.957522 16
426 1 -3.53808 7.75225 -0.840318 21
427 1 -3.55134 5.87658 1.90881 23
428 1 -5.46446 8.61846 1.44082 18
429 1 -6.08729 10.6333 3.72911 15
430 1 -3.74889 8.04994 4.58615 24
431 1 -3.76657 5.98686 7.12786 24
432 1 -5.45475 9.11709 7.19042 17
433 1 -3.59031 8.11536 9.86519 14
434 1 -3.38523 6.14542 12.551 12
435 1 -0.115615 13.0584 -2.84812 12
436 1 -3.88221 11.6575 1.72971 14
437 1 -3.99449 11.5398 5.61904 13
438 1 -2.09715 4.90623 -0.862279 21
439 1 -0.357022 1.92127 -0.782427 22
440 1 -0.330288 0.0229681 1.89681 22
441 1 -1.94528 2.86722 2.00815 23
442 1 -2.0457 5.10059 4.32642 20
443 1 -0.102821 1.7326 4.72014 21
444 1 -0.00141138 -0.12788 6.96107 21
445 1 -1.75448 2.98294 6.321 21
446 1 -1.55789 5.47764 9.84862 18
447 1 -0.0257154 2.05429 9.27148 18
448 1 0.153601 0.373662 11.5739 18
449 1 -1.75963 3.05912 11.7819 16
450 1 -1.99214 10.8767 -0.77161 17
451 1 -0.0439317 7.85195 -0.7464 22
452 1 -0.178336 6.02372 1.68577 22
453 1 -2.00288 8.8257 1.50642 21
454 1 -1.92473 10.4701 4.0891 17
455 1 -0.36749 7.7125 4.38593 22
456 1 -0.282152 5.74751 6.97174 19
457 1 -2.16509 8.61032 7.10213 20
458 1 -1.19724 8.38437 11.9441 11
459 1 -0.078905 5.63574 13.0511 13
460 1 2.89864 13.5063 -1.34519 12
461 1 -0.0599386 11.6552 2.10793 20
462 1 1.5065 12.8848 4.27621 12
463 1 -0.549221 11.4141 6.69363 15
464 2 -13.6997 -1.13624 3.38931 12
465 2 -13.7134 1.56363 0.849493 13
466 2 -10.0665 0.283178 3.86368 20
467 2 -11.2768 1.92349 7.72019 14
468 2 -12.3019 4.36093 2.7208 13
469 2 -10.4532 2.27287 1.92426 19
470 2 -9.71799 -0.0850362 9.36753 13
471 2 -12.5033 1.98249 4.67476 15
472 2 -12.3886 4.72301 6.21634 10
473 2 -10.3893 6.0897 4.82105 15
474 2 -11.1794 7.11685 1.80979 14
475 2 -6.98279 7.73093 6.73276 16
476 2 -6.75223 0.310673 4.1065 19
477 2 -8.89147 3.21609 4.87182 20
478 2 -8.94198 4.92115 1.61216 21
479 2 -6.68495 1.88266 1.34895 21
480 2 -6.6064 0.444423 8.96533 22
481 2 -8.73276 2.88534 9.29827 16
482 2 -9.02557 4.95666 7.61126 16
483 2 -6.95824 2.19409 6.53975 20
484 2 -6.27519 1.80284 11.8045 15
485 2 -7.04164 5.70291 3.79031 18
486 2 -9.61698 9.10943 3.06833 11
487 2 -9.01463 11.4034 0.841661 9
488 2 -7.4039 7.52583 1.25837 17
489 2 -6.79373 5.54829 9.33369 16
490 2 -5.50953 8.45451 9.33395 12
491 2 -7.8401 11.2001 4.12391 11
492 2 -3.63726 -0.0438435 3.96566 23
493 2 -5.03926 3.09561 3.83424 23
494 2 -5.23716 4.74635 1.19544 23
495 2 -3.58114 1.93237 0.94871 24
496 2 -3.44917 -0.0403531 8.71307 21
497 2 -4.97589 3.29733 9.12943 20
498 2 -5.57077 4.93231 6.60156 20
499 2 -3.71631 1.97972 6.61656 20
500 2 -4.96721 5.13428 12.2517 11
501 2 -3.34714 1.8908 12.1755 15
502 2 -3.73657 5.99495 4.00444 21
503 2 -5.56365 8.59356 3.51389 21
504 2 -5.56733 10.8816 0.956237 17
505 2 -3.71733 7.63264 1.17855 21
506 2 -0.164784 5.6745 8.71041 20
507 2 -3.45921 6.03648 9.07227 20
508 2 -5.83261 10.4724 5.76554 12
509 2 -3.79397 7.87054 6.69681 20
510 2 -4.09163 11.3277 3.70945 14
511 2 1.50238 14.0919 -2.41954 8
512 2 0.0639328 0.134723 3.84168 22
513 2 -1.72549 2.82947 4.23111 21
514 2 -1.84729 4.98007 1.45807 22
515 2 -0.273894 2.01953 1.24636 21
516 2 0.0152637 -0.218006 8.95066 23
517 2 -1.32253 3.19304 10.0392 18
518 2 -2.09736 5.13145 6.32 22
519 2 -0.101192 1.88189 6.85222 20
520 2 -1.98048 4.83854 12.8961 13
521 2 -1.75842 -0.643874 11.758 14
522 2 -0.170947 5.77144 3.68085 23
523 2 -2.04998 8.55296 3.76648 21
524 2 -2.10978 10.9679 1.7166 16
525 2 -0.429574 8.03876 1.11432 24
526 2 0.338317 2.22745 11.5253 18
527 2 -1.98847 8.96299 9.01773 18
528 2 -2.32321 11.0243 6.11905 15
529 2 -0.464067 7.68342 6.55546 23
530 2 -2.76964 7.59213 11.4302 14
531 2 0.445739 12.5478 5.74297 12
532 2 0.117948 10.8664 3.87922 20
533 1 2.54644 -11.4968 -8.81525 11
534 1 1.15209 -6.46575 -11.6123 14
535 1 1.10512 -8.57901 -8.93173 21
536 1 1.27135 -6.57927 -6.22724 24
537 1 2.91922 -9.55527 -6.10224 23
538 1 2.65575 -12.4717 -5.2598 10
539 1 1.35346 -8.54411 -3.5253 23
540 1 -0.358179 -4.24412 -11.7874 17
541 1 1.0645 0.167794 -13.6459 11
542 1 3.09105 -3.86734 -11.7905 16
543 1 2.68989 -5.88205 -9.0485 21
544 1 1.27099 -2.84992 -8.60866 24
545 1 1.47663 -0.986203 -6.04679 22
546 1 2.94926 -3.94283 -6.47379 22
547 1 3.15245 -5.73378 -3.71617 21
548 1 1.33141 -3.01228 -3.40815 22
549 1 4.72513 -6.28885 -11.5322 13
550 1 4.36639 -8.83048 -9.18425 15
551 1 4.86718 -7.12612 -6.95939 20
552 1 6.27909 -9.57932 -6.28994 17
553 1 5.72952 -11.841 -3.55059 12
554 1 4.84524 -8.7078 -3.5768 21
555 1 4.35958 -1.11363 -11.7748 12
556 1 6.53986 -3.4022 -12.1159 12
557 1 5.99668 -5.56375 -9.11766 20
558 1 4.42389 -2.53414 -9.03004 22
559 1 4.94972 -1.01329 -6.20958 26
560 1 6.25304 -3.78974 -6.91945 21
561 1 6.29783 -5.87623 -4.92214 21
562 1 4.76133 -3.09518 -3.71515 20
563 1 8.08547 -6.72912 -7.69593 18
564 1 7.64319 -8.55385 -3.8584 17
565 1 8.69508 4.61446 -11.7045 10
566 1 8.44117 -5.84795 -11.0393 9
567 1 7.78226 -2.63841 -9.42082 16
568 1 8.21482 -1.0452 -6.22481 23
569 1 9.83768 -4.01523 -6.82842 12
570 1 9.58742 -5.83798 -4.28159 19
571 1 7.52338 -2.76975 -3.72098 20
572 1 9.51196 -7.95056 -6.09887 11
573 1 11.0759 -1.24697 -6.32943 14
574 1 11.5782 -3.74256 -4.27683 15
575 2 1.66834 -11.8564 2.21701 16
576 2 1.48298 -12.1451 -3.80004 15
577 2 2.64846 -11.8097 -6.92706 12
578 2 1.69373 -8.3395 -6.92921 22
579 2 0.902459 -7.01043 -9.87219 20
580 2 4.61256 -6.80455 -9.656 19
581 2 3.10142 -11.6386 -1.02133 16
582 2 1.28362 -8.68154 -1.52725 21
583 2 1.52 -6.76851 -4.03836 21
584 2 2.98732 -9.36144 -4.04614 23
585 2 2.98325 -5.85582 -11.1753 16
586 2 1.38859 -3.09672 -11.6395 17
587 2 3.09873 -6.04129 -7.19903 26
588 2 1.41241 -2.80068 -6.44614 22
589 2 1.19058 -0.910255 -8.99222 22
590 2 2.89869 -3.90351 -8.88368 22
591 2 2.82012 -5.55297 -1.70611 22
592 2 1.10288 -2.83925 -1.32774 22
593 2 1.61791 -0.956351 -4.20078 23
594 2 2.79176 -4.10386 -4.43902 22
595 2 4.53577 -12.305 -4.86482 10
596 2 4.48688 -8.99205 -7.25567 17
597 2 6.3704 -5.44625 -12.2178 11
598 2 6.16505 -11.5555 -1.83565 13
599 2 4.61113 -8.18317 -1.5549 22
600 2 4.99426 -7.26592 -4.85318 19
601 2 6.33877 -10.1446 -4.56579 16
602 2 4.7095 -3.00385 -12.0553 13
603 2 6.42938 -5.70742 -6.95733 21
604 2 4.51055 -2.63218 -6.94317 22
605 2 4.53518 -0.624135 -9.88357 21
606 2 6.2194 -3.71616 -9.2098 20
607 2 6.4295 -5.8147 -1.12143 18
608 2 4.61203 -2.9009 -1.56661 23
609 2 5.03735 -1.2553 -4.18334 21
610 2 6.29443 -3.89611 -4.63429 21
611 2 7.89536 -8.54221 -7.10465 14
612 2 7.85299 -6.47576 -9.48624 13
613 2 7.43352 -8.7598 -1.88366 17
614 2 7.82694 -6.5384 -3.84431 22
615 2 9.44081 -8.45876 -4.35902 15
616 2 9.74826 -5.98392 -6.68782 15
617 2 8.01505 -2.9673 -6.81848 21
618 2 7.99936 -0.848513 -9.68787 14
619 2 7.96408 -4.0041 -10.7741 9
620 2 9.4436 -5.78756 -0.850089 23
621 2 7.55714 -2.9106 -1.70179 21
622 2 8.09138 -0.729941 -4.31573 22
623 2 9.72262 -3.54704 -3.64269 23
624 2 11.0561 -8.03801 -1.03711 13
625 2 11.4344 -5.75882 -3.47706 17
626 2 11.2341 -3.22715 -6.02892 13
627 2 12.9572 -5.48745 -0.660419 13
628 2 11.1787 -3.10146 -1.00385 21
629 2 11.6993 -0.553858 -4.36873 16
630 2 13.0689 -2.75357 -3.12002 12
631 1 1.5334 -11.829 -1.9294 16
632 1 1.37821 -12.3235 4.157 12
633 1 1.29786 -6.73971 -0.961473 24
634 1 3.18719 -9.59715 -1.07782 21
635 1 3.14945 -11.2761 1.07899 18
636 1 1.27805 -8.66048 1.8808 22
637 1 1.17206 -7.00934 4.44682 21
638 1 3.49955 -9.95135 3.8012 19
639 1 -0.19368 -11.2224 7.08612 16
640 1 1.7324 -8.63841 7.33908 21
641 1 1.34568 -6.48055 9.91074 21
642 1 2.96969 -9.5536 9.63335 10
643 1 1.38187 -0.961237 -1.10078 20
644 1 2.89756 -3.72615 -1.01267 19
645 1 2.76182 -5.84638 1.73874 23
646 1 1.32968 -3.36097 1.6806 19
647 1 1.81534 -1.0813 4.56626 24
648 1 3.29642 -3.97903 4.51375 21
649 1 3.11927 -5.94928 7.10046 21
650 1 1.63889 -2.68191 7.11064 25
651 1 1.73671 -0.938652 9.70641 22
652 1 3.42735 -3.73457 9.62294 22
653 1 3.50474 -5.72502 12.3117 12
654 1 1.6401 -2.83793 12.4173 13
655 1 5.02899 -12.4705 -0.443853 10
656 1 3.9785 -11.1997 6.49134 10
657 1 4.53383 -6.34352 -1.11974 22
658 1 6.22492 -9.79396 -0.880951 20
659 1 6.40826 -11.1298 2.42905 13
660 1 4.59867 -8.84465 1.82029 21
661 1 4.598 -6.96315 4.27622 21
662 1 6.70758 -9.41616 5.23917 18
663 1 5.48391 -8.45802 7.49868 17
664 1 5.02504 -6.68968 9.6234 19
665 1 4.91211 -1.06529 -1.16281 19
666 1 6.08584 -3.94586 -0.807013 21
667 1 6.22254 -5.84139 1.80362 21
668 1 4.64582 -2.42948 1.7771 22
669 1 4.82899 -0.954967 4.31814 20
670 1 6.483 -3.79723 3.64167 19
671 1 6.5136 -5.69185 6.52084 23
672 1 5.07678 -2.99645 7.03417 21
673 1 5.28802 -1.02402 9.57466 21
674 1 6.80057 -3.88673 9.0 20
675 1 5.29602 -2.80899 12.2703 16
676 1 7.89513 -6.87591 -1.68889 20
677 1 10.291 -9.03631 -2.54689 12
678 1 7.94497 -8.82954 1.69374 18
679 1 7.81768 -6.67669 3.89613 22
680 1 9.6127 -10.1324 3.49456 13
681 1 9.17673 -8.14928 6.41684 14
682 1 6.94314 -5.81001 11.8713 10
683 1 8.09311 -1.01412 -0.953553 23
684 1 9.58644 -3.7765 -1.61771 25
685 1 9.41503 -5.6611 1.22023 23
686 1 8.23166 -2.75556 1.52374 21
687 1 8.34039 -0.820028 4.17602 21
688 1 10.3764 -4.26263 3.69414 19
689 1 9.50993 -4.99041 6.28755 16
690 1 8.12028 -2.29671 7.15771 20
691 1 8.5556 -2.88664 11.8122 10
692 1 8.17255 -6.70317 8.99151 13
693 1 11.1913 -6.36965 -1.62496 17
694 1 11.3431 -8.68126 0.880655 13
695 1 11.4303 -7.19794 4.12275 14
696 1 11.6061 -0.895308 -1.19523 20
697 1 12.7407 -4.19694 -1.91303 13
698 1 12.6001 -5.7011 1.13988 15
699 1 11.3972 -2.97586 0.963742 20
700 1 11.4967 -0.889316 4.29848 17
701 1 13.3679 -3.1793 3.38979 11
702 1 11.4815 -2.6024 6.66296 10
703 2 2.79597 -11.5085 4.93883 14
704 2 0.0918335 -10.9523 8.95631 12
705 2 5.57407 -10.1139 6.33135 13
706 2 1.36265 -8.64045 3.76101 24
707 2 1.18876 -6.81455 0.999357 23
708 2 2.98166 -9.24594 1.06909 22
709 2 1.44199 -8.38345 9.3961 17
710 2 1.46951 -6.44138 6.58317 20
711 2 2.92261 -10.1004 7.66641 14
712 2 1.82332 -6.35253 11.8348 14
713 2 2.93599 -5.87449 3.75352 23
714 2 1.6164 -2.95318 3.80579 21
715 2 1.54165 -0.613757 0.987085 22
716 2 3.13982 -3.46875 1.05351 23
717 2 2.83893 -5.42398 8.90926 21
718 2 1.59321 -2.95054 9.08871 21
719 2 1.87362 -0.567621 6.71499 21
720 2 3.30596 -4.0294 6.70621 20
721 2 1.80845 -0.872771 11.7797 16
722 2 3.25906 -3.87507 12.1591 15
723 2 4.93462 -11.8269 1.45888 14
724 2 7.60333 -10.2371 3.66425 15
725 2 5.10201 -8.77882 3.65987 23
726 2 4.38097 -6.57726 1.43715 20
727 2 6.43584 -9.72014 1.00572 18
728 2 4.64605 -8.45517 9.40048 14
729 2 4.70715 -7.06578 6.23362 23
730 2 7.44278 -7.55433 5.36895 20
731 2 5.24203 -6.24775 11.6989 13
732 2 6.01985 -5.78066 3.85473 20
733 2 4.70446 -2.86027 3.885 19
734 2 4.88081 -0.818041 0.98722 23
735 2 6.37247 -3.87332 1.37756 19
736 2 6.56525 -6.8978 8.09801 18
737 2 5.0697 -2.98625 9.02066 23
738 2 4.73338 -1.3676 6.36492 20
739 2 6.75303 -3.78577 6.84493 21
740 2 5.15548 -1.07382 11.606 19
741 2 6.78686 -3.84494 12.0518 12
742 2 10.3302 -8.63243 4.81813 12
743 2 8.12789 -6.87054 1.91251 23
744 2 9.72088 -9.33905 1.6838 13
745 2 9.38163 -6.56241 7.49912 12
746 2 9.93332 -5.96691 4.49834 16
747 2 7.85941 -2.5573 3.57307 18
748 2 8.35558 -1.02996 0.954971 21
749 2 9.83504 -3.77782 1.99392 21
750 2 7.11664 -5.33375 9.96713 14
751 2 8.02321 -2.44969 9.20098 18
752 2 8.39319 -0.610103 6.15588 22
753 2 9.77724 -3.24992 6.94817 17
754 2 8.42404 -0.981123 11.7883 11
755 2 11.6629 -7.06811 2.09708 16
756 2 11.7438 -3.00426 4.45562 13
757 2 11.2635 -1.19947 0.915871 20
758 2 12.6554 -4.1731 2.17868 14
759 2 11.3458 -0.787072 6.31118 13
760 1 9.91477 6.11786 -9.0495 12
761 1 0.126985 3.31644 -13.3243 12
762 1 1.70622 4.75582 -11.5336 20
763 1 2.84233 1.83003 -11.49 20
764 1 2.91008 0.0602031 -8.76578 24
765 1 1.45128 2.90439 -8.88945 21
766 1 1.01105 4.86599 -6.03523 21
767 1 3.03936 1.87444 -6.20857 21
768 1 3.38697 -0.032036 -3.7257 21
769 1 1.33128 3.02039 -3.49052 22
770 1 2.96774 7.52767 -11.4679 13
771 1 3.08579 6.05552 -8.64929 21
772 1 1.5695 9.27864 -8.74775 12
773 1 0.799611 10.6717 -6.32781 14
774 1 2.76948 7.75317 -6.03335 24
775 1 2.90805 5.6272 -3.42194 23
776 1 1.36319 9.02561 -3.31108 22
777 1 3.10682 11.6993 -4.15715 15
778 1 4.88352 4.77204 -11.4189 15
779 1 6.53735 2.64814 -11.3236 12
780 1 6.41779 -0.0877356 -8.99365 23
781 1 4.43929 3.12035 -9.05909 20
782 1 4.65971 4.82111 -6.12183 24
783 1 6.09564 1.93125 -6.46262 23
784 1 6.43368 0.103682 -3.59273 23
785 1 4.74821 3.0451 -3.51242 22
786 1 6.4669 6.18657 -8.84927 16
787 1 7.30716 9.21517 -8.53755 10
788 1 5.1016 10.4456 -6.38839 14
789 1 6.06338 7.75955 -6.4178 20
790 1 6.58565 5.97815 -4.05909 20
791 1 4.50109 8.50953 -4.07335 25
792 1 6.45849 11.4626 -3.91429 15
793 1 9.52178 0.108292 -9.03278 13
794 1 7.93797 3.01939 -9.03298 21
795 1 7.77868 4.44709 -6.24685 22
796 1 9.77561 2.16306 -6.17891 21
797 1 9.90721 -0.168247 -3.77994 19
798 1 7.82417 2.92191 -3.60421 23
799 1 8.72126 10.8288 -6.0055 9
800 1 9.553 7.4147 -6.26584 18
801 1 9.97486 5.78956 -3.64973 17
802 1 7.94458 8.62263 -3.55558 20
803 1 11.7496 4.9368 -6.26036 11
804 1 10.7848 3.09327 -8.94414 13
805 1 13.3037 -0.987622 -3.70413 10
806 1 10.9704 2.95292 -3.51302 18
807 2 2.61814 -0.105576 -12.2348 16
808 2 1.12197 2.70297 -11.894 19
809 2 3.22644 0.0411297 -6.79579 23
810 2 1.24018 3.00178 -6.65088 23
811 2 1.51696 4.92205 -9.4224 20
812 2 2.87113 1.99302 -9.38855 21
813 2 3.48439 0.19069 -1.6027 20
814 2 1.90143 3.09192 -1.61416 21
815 2 1.06518 4.89919 -4.21005 22
816 2 3.35241 1.93509 -4.23829 24
817 2 3.24016 5.85331 -11.8577 13
818 2 2.85526 6.03911 -6.74035 22
819 2 1.26646 8.96358 -6.81586 17
820 2 1.35344 8.00567 -12.182 10
821 2 2.465 7.79563 -9.53775 16
822 2 2.91448 6.11537 -1.65206 23
823 2 1.57398 8.89591 -1.47785 20
824 2 1.63203 10.5304 -4.71111 18
825 2 2.66087 7.52897 -4.10108 21
826 2 4.19529 8.67773 -6.29166 20
827 2 2.93774 11.6294 -2.15231 19
828 2 2.73222 13.9551 0.415432 10
829 2 6.35282 11.6009 -2.05852 13
830 2 8.1435 5.34786 -8.87364 18
831 2 4.51258 2.6943 -11.7137 14
832 2 6.55384 -0.129642 -6.85557 21
833 2 4.42042 2.58809 -7.15752 22
834 2 4.95165 4.86545 -9.296 21
835 2 6.47138 1.8953 -9.5628 18
836 2 6.53496 0.0748334 -1.54306 23
837 2 4.66271 3.08894 -1.37983 22
838 2 4.85294 4.87077 -4.09923 22
839 2 6.21066 2.06282 -4.51395 24
840 2 6.25132 5.88417 -6.37447 21
841 2 5.85817 7.82855 -8.43025 15
842 2 6.97668 10.5981 -6.90222 11
843 2 6.60923 5.8869 -1.81473 23
844 2 4.65581 8.76011 -1.68817 24
845 2 4.64977 10.5329 -4.30034 18
846 2 6.39768 7.99111 -4.40277 22
847 2 9.47253 7.43489 0.667114 16
848 2 9.6612 0.26838 -6.99137 19
849 2 8.09766 2.85811 -7.12864 19
850 2 6.76513 4.31737 -11.6773 12
851 2 10.1836 4.51546 -10.3104 9
852 2 9.87618 -0.11812 -1.73373 22
853 2 7.96913 2.89655 -1.53062 23
854 2 8.21092 4.8517 -4.41696 23
855 2 9.53205 1.65 -4.24952 20
856 2 10.5825 6.15379 -7.15323 13
857 2 8.6734 8.57067 -7.63235 14
858 2 10.0347 5.99066 -1.55189 17
859 2 7.95099 8.83681 -1.54003 17
860 2 8.01506 10.3607 -4.29714 15
861 2 9.57855 7.50064 -4.41849 16
862 2 11.2738 3.39326 -7.10752 14