ITEM: TIMESTEP
32000
ITEM: NUMBER OF ATOMS
2000
ITEM: BOX BOUNDS pp pp pp
-30.0 30.0
-30.0 30.0
-30.0 30.0
ITEM: ATOMS id type x y z Coordination
1 1 -2.94969 -3.116 -20.2634 10
2 1 0.411135 -16.5065 -8.53681 18
3 1 3.91196 4.68909 15.186 13
4 1 4.71325 -17.8001 4.71829 11
5 1 -9.98519 6.7197 -11.3678 10
6 1 16.4459 -10.8727 -7.24707 18
7 1 -12.0127 0.153149 -9.94621 12
8 1 0.514945 -19.1202 8.73529 9
9 1 -11.187 2.57619 -11.5226 12
10 1 -8.2239 -20.3819 3.83135 11
11 1 15.2378 -8.16085 -11.482 13
12 1 -7.17156 -0.859423 -2.93038 18
13 1 -1.08579 -19.9671 -3.88893 19
14 1 -9.51703 -12.5359 2.62072 18
15 1 4.05828 1.30723 14.8265 12
16 1 11.6306 -7.6426 10.1827 12
17 1 2.16639 2.36069 12.9848 17
18 1 5.67859 -8.15805 -0.674333 20
19 1 6.01444 3.75793 -16.1484 19
20 1 4.76712 -4.26794 8.04503 20
21 1 -3.79319 -5.47551 -12.2414 21
22 1 -6.68712 -6.11676 8.70514 19
23 1 11.9638 9.7117 8.91152 10
24 1 2.67291 -2.11088 -18.5459 15
25 1 -0.379067 7.64883 -3.96887 19
26 1 17.1495 -4.55144 8.7297 5
27 1 -10.8648 -7.37537 4.59058 21
28 1 -10.0676 -4.3429 -2.87356 19
29 1 2.44428 3.14269 -15.6551 22
30 1 -9.27052 6.26289 5.04248 14
31 1 8.80964 -19.376 -2.05627 10
32 1 7.41369 -2.46472 3.10973 19
33 1 6.04549 -22.2659 -7.2913 11
34 1 13.7411 -16.6042 -3.44581 15
35 1 -3.56776 -19.8716 -9.16302 14
36 1 -7.68498 -11.4262 8.40939 11
37 1 8.80008 -14.0664 -4.08683 21
38 1 1.60005 -9.39543 -10.1512 18
39 1 8.18469 -9.72199 -15.7749 14
40 1 -5.07053 4.38237 -12.7208 20
41 1 -3.2729 2.90653 13.9652 16
42 1 -9.31313 -14.3619 -5.69305 16
43 1 9.05374 -13.1776 8.96755 11
44 1 -7.02635 1.87606 -2.57366 22
45 1 -11.3872 -4.41274 12.5497 5
46 1 -12.5373 -6.42237 -2.36546 15
47 1 1.46365 13.6811 -0.67008 15
48 1 0.777331 -19.0816 -13.7618 9
49 1 -0.406997 -0.650676 -11.9857 20
50 1 6.67822 -15.0303 -9.15819 15
51 1 -4.52736 -3.15946 9.4168 20
52 1 -5.58905 3.42679 -4.9041 22
53 1 11.1589 5.40961 -13.2872 10
54 1 0.113189 6.9677 7.91129 19
55 1 -7.91768 6.17109 -8.53644 18
56 1 -3.36858 7.35169 0.942918 19
57 1 5.38866 -22.5063 0.740655 7
58 1 17.4411 -11.1694 -10.8092 10
59 1 5.124 -8.60029 -13.3892 19
60 1 -5.19034 6.10341 10.1709 15
61 1 -13.1298 -7.54639 -12.4288 10
62 1 10.8543 -8.83989 1.38296 18
63 1 -4.05487 7.21344 -2.39746 18
64 1 -0.643182 -12.9289 0.099084 23
65 1 -2.71856 12.078 5.20929 15
66 1 -15.5737 1.90381 -4.81826 9
67 1 5.47687 13.5671 10.0431 9
68 1 4.22032 6.57821 -3.41502 21
69 1 9.60728 -4.07369 9.76752 13
70 1 -1.19778 -17.9624 -6.15045 18
71 1 5.70513 0.574812 10.2748 19
72 1 13.3418 -13.5533 -4.13527 23
73 1 8.05477 12.9922 7.86707 10
74 1 -5.98875 -3.4629 -15.23 12
75 1 -12.7888 -2.81495 -10.3909 8
76 1 9.35911 8.0075 8.93718 19
77 1 3.85333 -2.41121 -8.77604 20
78 1 11.6691 -19.1899 -1.31605 6
79 1 -15.6318 -7.6455 2.3168 11
80 1 -8.42134 -5.45593 -5.45017 21
81 1 6.13433 5.5315 3.78389 16
82 1 2.61619 -10.0201 11.3891 14
83 1 -6.67041 -18.4898 -2.36075 18
84 1 -5.20838 -5.53167 0.0276016 19
85 1 19.3895 -1.69495 0.100485 11
86 1 13.0116 -8.02931 -2.73157 20
87 1 5.99947 10.9364 12.32 13
88 1 7.80398 -6.16428 7.52198 15
89 1 -1.58461 -13.5602 -4.35795 18
90 1 -3.98827 -13.7682 -9.00712 15
91 1 -10.827 2.47613 -3.6 21
92 1 -5.32777 2.77179 -0.307939 20
93 1 -5.94384 7.03066 -5.11273 17
94 1 8.35678 -6.2111 -3.05013 20
95 1 5.63465 -6.24924 -6.339 17
96 1 9.93911 3.17931 -12.1601 19
97 1 8.44672 -13.5399 2.38713 17
98 1 3.57286 -21.8083 3.73614 10
99 1 -3.4911 10.1388 -13.7094 10
100 1 -6.63841 7.24983 3.68658 15
101 1 -6.338 -1.31319 11.1644 16
102 1 -1.09488 8.64019 2.32785 19
103 1 -3.20721 -8.83246 5.41515 18
104 1 11.0222 -6.17167 -7.02244 21
105 1 -8.89265 4.4189 -3.11083 21
106 1 -8.4579 -20.0434 -7.22995 11
107 1 5.50288 -5.12943 -2.43577 17
108 1 12.7154 -5.62255 -14.3777 13
109 1 -12.0118 -5.44469 -10.1869 14
110 1 5.09072 -5.97703 5.57626 20
111 1 -0.816362 14.3261 4.63693 11
112 1 -2.34183 5.90695 -4.10681 18
113 1 0.302585 6.54024 12.1498 13
114 1 4.4351 11.8196 -9.56908 14
115 1 -13.622 3.46523 -3.36283 14
116 1 5.39279 8.16717 3.54775 18
117 1 -3.04576 -14.3429 6.41793 17
118 1 14.3651 -11.6359 5.72467 13
119 1 -6.84349 -7.38172 -12.858 17
120 1 9.37626 -14.4412 -7.54178 20
121 1 -3.15507 1.72971 8.17934 21
122 1 -2.27301 -11.8619 11.469 12
123 1 -6.2859 -9.05428 -8.06636 19
124 1 5.73757 -8.46105 10.3048 19
125 1 -11.5469 -17.3763 -5.07958 9
126 1 18.0764 -10.5721 1.147 13
127 1 0.107384 2.99122 1.41894 21
128 1 10.3967 1.13576 -17.4527 10
129 1 8.30257 6.14715 -6.6486 20
130 1 -3.48563 -15.0485 11.014 10
131 1 -3.70331 -17.9574 -4.2969 18
132 1 -3.69126 3.2618 -2.99866 20
133 1 8.58075 -12.6418 -15.126 13
134 1 5.15667 0.513825 -6.96503 16
135 1 11.3925 -14.4641 -2.25026 19
136 1 -2.44671 -21.8867 4.85467 12
137 1 -8.37882 -10.2659 -1.69978 19
138 1 10.636 2.81933 9.23757 18
139 1 18.8698 -6.23289 -3.50647 14
140 1 -11.5651 -9.25815 -1.12432 20
141 1 10.1438 1.96193 -2.71489 17
142 1 12.1448 6.10522 0.676045 15
143 1 -2.76648 -0.333771 14.3566 10
144 1 13.0432 -1.07061 -2.6789 18
145 1 -2.38327 4.00078 5.1175 19
146 1 -0.418185 8.9213 -7.01227 18
147 1 -3.71825 -9.36892 -16.8362 13
148 1 10.9977 -9.83714 -7.86141 19
149 1 2.62954 7.751 -13.8419 18
150 1 12.0383 -13.7001 6.66402 12
151 1 -2.80554 -15.1094 -12.9423 15
152 1 -2.86727 5.86371 -10.8177 21
153 1 14.5825 2.72105 -7.221 15
154 1 -5.34111 9.79862 -11.1351 10
155 1 -6.26081 5.46566 -1.93714 19
156 1 13.3058 -5.21178 -8.29582 18
157 1 16.4733 -15.366 -2.8025 13
158 1 -4.03458 -3.40889 -2.70467 19
159 1 -0.568048 13.9595 7.53147 13
160 1 14.9038 -2.75235 -10.2404 20
161 1 6.64938 10.3553 -10.6248 16
162 1 -2.73325 10.618 1.50383 16
163 1 15.8314 3.56235 -4.37158 7
164 1 -1.12521 9.08199 -0.693048 20
165 1 2.77569 12.8571 -6.81672 18
166 1 4.52579 5.2662 -13.2626 22
167 1 -14.8044 -10.6922 0.714528 13
168 1 -13.535 4.43648 -6.46269 12
169 1 -1.49153 -1.17841 -15.1251 19
170 1 3.64145 -12.529 -15.5002 15
171 1 9.98566 8.17232 -0.168725 15
172 1 0.169897 11.2817 3.84371 18
173 1 -12.4252 -9.79023 2.04818 23
174 1 -3.9248 6.20849 4.62803 18
175 1 14.4894 -6.31134 -5.4335 19
176 1 -8.15583 -1.79991 -18.8331 8
177 1 8.67485 -7.02132 10.2092 16
178 1 9.61647 11.0268 -0.417412 15
179 1 1.18645 10.099 7.24398 18
180 1 2.32977 -11.974 -8.874 18
181 1 -1.20819 8.06703 5.45324 19
182 1 -2.47557 3.95979 -0.743671 21
183 1 3.42783 -15.5213 5.93966 19
184 1 -12.3934 -12.6901 1.60311 17
185 1 4.21326 -19.2164 -14.3674 9
186 1 -5.22338 -1.33288 -7.83554 14
187 1 -2.83055 -5.54551 5.15681 19
188 1 11.4064 -15.2719 -5.57209 20
189 1 -5.28738 5.70966 -15.8725 10
190 1 -13.3537 -11.4853 6.84825 9
191 1 4.27365 3.96797 -5.75443 16
192 1 6.97375 3.51243 -13.2867 18
193 1 1.0944 -0.770442 14.2401 12
194 1 -2.18697 -22.5113 -3.54419 14
195 1 -8.92181 -2.60523 -0.419569 16
196 1 4.63294 12.5596 -4.75909 17
197 1 6.30514 -0.150846 6.64363 18
198 1 11.1151 -0.559605 11.7395 10
199 1 -4.58768 9.36354 3.38273 15
200 1 17.7484 -8.25814 -9.00209 11
201 1 2.01481 15.4786 5.74095 9
202 1 -3.60002 -6.19295 -3.87315 24
203 1 16.1199 -14.9413 1.15563 10
204 1 -7.36276 -7.56218 11.9131 9
205 1 -7.10324 -7.77141 -0.494175 19
206 1 -9.83424 -12.258 -0.307519 21
207 1 8.62269 0.228497 9.36477 20
208 1 -14.1938 -7.59632 -4.54439 13
209 1 0.826276 -18.3683 -2.46077 19
210 1 -4.87988 -2.78764 -0.0626202 20
211 1 8.06284 -9.64598 -9.49436 18
212 1 -8.54999 8.58175 2.09553 15
213 1 -6.40208 -6.86817 5.68943 19
214 1 9.18283 10.3934 6.98422 16
215 1 -8.92738 -3.12631 -13.9926 16
216 1 0.696196 8.09643 -16.4416 15
217 1 -13.2592 -10.7659 -4.76651 13
218 1 -8.94452 -9.76575 1.83922 21
219 1 1.29891 -15.6854 8.56642 13
220 1 11.2056 -13.8087 0.56728 16
221 1 -11.4298 6.73935 2.62628 7
222 1 14.4346 -1.49876 3.59695 21
223 1 2.214 -2.34525 -4.38226 17
224 1 -6.99757 -9.72329 -15.3012 14
225 1 0.744469 -3.10162 11.7972 13
226 1 12.8247 -17.4939 -7.39265 11
227 1 2.64328 3.5917 -18.9565 16
228 1 8.67222 -14.0363 -12.5979 18
229 1 16.3851 -5.06807 -11.5791 14
230 1 0.704527 -2.84664 -16.1577 20
231 1 -3.71455 -7.59525 -9.43415 17
232 1 -1.73344 12.0769 -8.73429 14
233 1 -7.91185 -19.1326 6.44596 10
234 1 11.8547 0.543037 -4.68023 20
235 1 -5.76076 3.73834 12.0183 13
236 1 -4.70294 7.3007 -13.6665 17
237 1 8.03319 -2.33268 12.2939 15
238 1 2.03858 -9.44602 -16.7585 13
239 1 -2.98129 2.76026 -10.4413 19
240 1 -0.770542 2.1071 -7.50749 22
241 1 -6.51666 -22.2264 4.62925 9
242 1 -9.77876 6.69566 -0.420804 15
243 1 2.02521 7.42438 2.20144 17
244 1 6.26995 -15.3067 -11.6786 20
245 1 -8.34273 -16.5945 -8.58231 14
246 1 9.35749 -11.4622 0.382814 16
247 1 4.42915 -12.9652 2.06555 18
248 1 9.42389 -5.6011 12.4902 12
249 1 9.38274 2.42083 -14.7557 21
250 1 3.07672 0.304874 -1.90588 19
251 1 -11.766 -4.01843 -0.445452 15
252 1 -7.47458 8.11289 -2.89983 15
253 1 5.95347 4.90169 9.95452 17
254 1 8.32828 -14.3479 -1.00762 17
255 1 17.5587 0.063454 -11.0396 11
256 1 -2.67404 9.82082 7.85952 14
257 1 -10.339 1.5202 2.13142 16
258 1 -9.03655 -7.27512 -2.81321 18
259 1 7.10949 0.680106 -15.9984 25
260 1 1.49261 -5.45887 7.37468 19
261 1 6.60413 6.28597 -15.8892 18
262 1 3.29085 -16.0867 -1.48416 17
263 1 -7.90041 3.6692 -11.3697 21
264 1 4.02105 -22.1262 -2.21297 10
265 1 14.2318 -2.68261 -7.19346 21
266 1 -9.90849 -11.6661 -4.07406 19
267 1 8.68005 -20.2028 -8.38334 10
268 1 -10.1533 4.31534 -14.0294 9
269 1 1.67181 4.80574 -7.96256 19
270 1 2.36024 -1.56577 -13.8103 21
271 1 7.01617 3.50881 15.83 11
272 1 14.7709 0.37405 -5.42207 15
273 1 -4.51487 -14.6564 -2.45957 20
274 1 9.10625 -3.41017 -8.41525 21
275 1 0.77776 -15.3751 0.499118 20
276 1 -13.0231 -9.89099 -13.5413 12
277 1 -10.7578 -3.02571 -7.49049 17
278 1 -4.58292 -17.4438 2.50488 17
279 1 9.38058 -10.5868 3.62313 15
280 1 7.20985 -8.16974 4.49463 17
281 1 -7.87123 -12.4258 -13.7843 14
282 1 -2.153 -14.3371 9.1193 16
283 1 -0.938968 2.12754 -16.4595 17
284 1 5.15595 9.86977 -4.43759 16
285 1 -6.59912 -7.52225 -3.71564 21
286 1 0.924726 11.325 0.507583 21
287 1 -4.69001 -0.6824 7.42523 23
288 1 -9.27668 -12.6643 -11.5531 17
289 1 -9.08695 -5.68484 -12.062 20
290 1 -6.01712 1.85965 -14.3104 15
291 1 0.623122 -14.954 -13.0858 17
292 1 -11.466 -8.53671 -4.33782 16
293 1 2.26461 -2.98147 -11.1739 20
294 1 7.13207 -4.92042 -12.466 18
295 1 16.5984 -13.6507 3.86977 7
296 1 2.70472 -5.41598 -7.95627 19
297 1 -9.46535 -17.8403 3.19309 14
298 1 -4.93557 -17.4881 -7.49671 18
299 1 12.3616 -2.69155 7.30799 14
300 1 -2.52845 -22.4222 -7.0331 13
301 1 0.41744 -22.1885 -1.38457 12
302 1 1.42876 11.2796 -8.70501 17
303 1 10.6837 -9.40783 -14.6262 15
304 1 -8.39566 -0.671077 -8.88502 21
305 1 8.72491 -7.74075 -5.92994 20
306 1 -9.77036 -16.6059 5.76659 10
307 1 -0.683631 4.58562 15.0297 12
308 1 4.88273 -13.3861 -10.6737 18
309 1 -5.846 -17.2802 -14.3642 4
310 1 -8.71854 -2.10304 -5.59314 18
311 1 19.4473 -7.97451 1.0346 12
312 1 -4.34732 -2.44721 -12.6907 17
313 1 4.33453 1.64853 -17.8154 21
314 1 -4.02809 -7.471 12.1338 11
315 1 16.5237 -14.2578 -5.31754 13
316 1 1.3964 9.03411 -10.877 16
317 1 5.08436 8.70076 0.318007 16
318 1 4.80846 -1.63732 0.498238 18
319 1 -12.1331 -5.72716 -6.43352 15
320 1 1.04566 -10.3571 6.36016 19
321 1 -11.3867 3.31258 -0.324896 17
322 1 -0.678867 -6.28129 -13.5778 19
323 1 11.1505 4.93585 -6.49137 17
324 1 5.63012 -19.6959 -1.05081 15
325 1 -3.43129 -6.44833 8.62785 20
326 1 -12.2017 -7.85512 7.37088 14
327 1 2.86497 -20.9421 -12.1428 18
328 1 -5.35226 9.37017 9.34111 10
329 1 -5.73875 0.714165 13.3293 13
330 1 -10.6198 -5.42123 8.94486 17
331 1 -7.64606 -14.9052 2.7669 20
332 1 14.2059 -14.0394 -1.34357 24
333 1 -5.03607 -19.9179 5.04139 15
334 1 8.69978 -6.86318 -8.83507 18
335 1 11.7401 -9.03623 -5.15079 22
336 1 4.50596 14.8913 -2.09517 11
337 1 2.22274 -7.88213 2.02517 20
338 1 -2.804 12.0411 -11.5663 11
339 1 7.20937 -2.63796 9.07449 21
340 1 11.0305 2.59778 12.3949 14
341 1 -1.97122 -15.6671 -1.98645 18
342 1 16.8403 -11.755 -4.25258 19
343 1 -5.77256 12.5502 3.54532 7
344 1 -14.5988 -10.9904 3.54159 12
345 1 1.77925 -20.8029 1.44357 15
346 1 13.1006 -16.4408 0.798548 10
347 1 -2.68446 6.02236 7.62784 20
348 1 -6.42692 -6.02497 -10.0803 21
349 1 -1.73523 -1.29399 8.36821 19
350 1 4.539 12.8366 0.442126 18
351 1 9.8768 1.29567 17.0054 8
352 1 -0.683167 10.7068 -14.4625 12
353 1 -5.15812 -4.48611 -18.2134 11
354 1 -3.06996 -4.14145 1.68664 19
355 1 10.6927 -16.2777 -9.25242 16
356 1 -10.8351 0.492476 7.35483 13
357 1 -12.989 -1.56627 1.04965 17
358 1 -6.89995 -3.64763 -7.77878 19
359 1 -11.5447 5.53939 -3.67029 13
360 1 10.3894 -7.42843 4.22929 14
361 1 -6.77094 -18.427 -5.62815 13
362 1 11.8489 -5.53491 7.69704 15
363 1 -6.83075 -12.8934 -0.347064 19
364 1 -8.68226 1.4262 -5.11876 20
365 1 -5.46252 -4.85496 11.1549 17
366 1 0.517858 -11.3557 -6.76097 15
367 1 -11.2582 -1.18073 -13.8088 10
368 1 13.1637 -9.42711 -13.3452 14
369 1 6.83735 12.3699 -1.88187 19
370 1 -12.0374 0.180607 -0.781394 17
371 1 7.55008 -17.5846 -9.5928 17
372 1 15.8618 -4.26362 -15.2355 10
373 1 -10.3841 -14.9154 -8.74888 12
374 1 -10.6661 -8.71911 -7.55957 17
375 1 1.41355 -12.3986 -3.12097 19
376 1 6.23884 -4.27718 13.3847 10
377 1 16.6986 -1.82041 1.99994 20
378 1 -3.46688 8.67855 -5.76734 18
379 1 7.52352 15.2446 -3.43395 9
380 1 -9.71022 -12.1178 -7.8956 18
381 1 -7.18041 1.37758 3.23022 19
382 1 -5.42361 5.0932 1.62387 19
383 1 -1.566 -3.97837 7.55332 21
384 1 11.1534 5.79557 5.51123 19
385 1 7.80452 -4.24096 -5.12701 17
386 1 14.5539 -6.91286 9.22487 8
387 1 17.9711 -2.79367 -9.43339 12
388 1 -6.80237 -13.8996 -4.08572 19
389 1 5.47165 -0.27604 2.86818 17
390 1 -3.0014 -0.966668 -5.52584 18
391 1 4.41158 -9.48707 -3.21976 22
392 1 2.28672 10.4351 -5.45823 19
393 1 -10.8058 4.32241 -6.54204 19
394 1 5.53709 -11.8576 -1.70115 18
395 1 17.0965 -2.02717 5.50134 15
396 1 -6.82139 1.42348 -17.3647 10
397 1 -9.87748 -19.749 0.858943 11
398 1 -6.04477 -18.9273 9.02982 5
399 1 -3.67241 12.2288 -3.77886 12
400 1 -12.187 -14.8291 -0.819137 11
401 1 13.7634 3.51221 7.80591 12
402 1 -5.26799 11.1203 -5.53584 13
403 1 -2.42906 9.69497 -3.64238 19
404 1 9.32238 -0.446142 2.94471 19
405 1 -14.2816 -10.3094 -10.5217 9
406 1 -1.34376 -7.01947 -6.03963 19
407 1 -6.91894 -4.96362 -2.12429 21
408 1 -7.3392 6.22281 -13.3468 14
409 1 0.652073 -13.6368 4.91998 19
410 1 4.06638 -20.1382 -5.55298 15
411 1 8.4271 7.67979 5.66834 18
412 1 13.3613 -2.4898 -13.7921 15
413 1 -0.573743 2.9787 -19.6543 10
414 1 0.554338 12.2423 -11.7613 11
415 1 -5.2422 -6.80511 -6.64003 22
416 1 -1.35762 -20.2376 -0.478003 22
417 1 9.95881 -3.37976 4.32684 17
418 1 8.34007 0.794537 -19.0138 13
419 1 1.39049 -2.04421 7.68041 18
420 1 -12.9156 1.29332 4.72158 11
421 1 -8.99428 -1.45468 5.52894 17
422 1 -2.14871 -16.9816 0.607302 20
423 1 -0.082016 -9.0296 -14.1004 19
424 1 16.8745 -11.0873 -14.4764 5
425 1 0.214885 -12.9162 7.64752 17
426 1 -8.85406 -8.06217 7.35682 17
427 1 -9.15122 -1.75722 13.0832 5
428 1 -9.41664 -1.32769 2.58806 15
429 1 2.86592 -19.5825 -8.88124 21
430 1 -8.02606 -4.32198 -19.086 8
431 1 14.6672 -11.908 -11.75 16
432 1 3.52171 -14.6397 -13.2067 17
433 1 -4.48619 -14.819 3.26098 22
434 1 5.97105 -8.8253 -5.68815 17
435 1 -1.77745 -6.59426 -16.667 17
436 1 13.4513 -11.3474 -5.83861 20
437 1 4.55797 7.50976 -11.3462 17
438 1 -10.1155 3.94381 7.10052 12
439 1 -4.67692 -15.4451 8.36675 14
440 1 -11.4079 -10.3485 -10.1424 18
441 1 -1.51184 -14.5647 2.67506 18
442 1 8.84777 -13.3848 5.78336 16
443 1 7.55529 0.433823 -3.66836 17
444 1 3.04784 1.31109 1.91661 21
445 1 4.70286 0.720014 -13.6738 18
446 1 6.89142 -9.84213 2.21842 17
447 1 11.876 -2.17073 -9.50457 20
448 1 4.32973 -2.77946 11.602 20
449 1 1.16216 5.50145 -2.36412 18
450 1 10.7139 -15.1211 3.77786 9
451 1 1.57912 -23.9968 -12.0441 7
452 1 -3.1657 3.57635 10.4847 21
453 1 6.5503 12.7306 4.91145 15
454 1 -0.498929 -19.7531 -9.03101 19
455 1 7.42287 11.7279 -8.9863 13
456 1 7.24814 2.36914 7.9283 17
457 1 -7.31808 4.1147 4.22584 16
458 1 -3.37978 -10.4341 -7.75337 15
459 1 -12.7814 -5.04189 6.48359 12
460 1 -8.09293 -8.38352 -6.48338 18
461 1 3.63122 6.33053 -0.365157 18
462 1 -0.71424 -17.5883 -12.1405 15
463 1 -10.2375 -10.8188 -14.5522 12
464 1 -5.15231 -16.2067 -0.0221648 20
465 1 -8.54676 -5.20211 0.481603 18
466 1 10.1394 2.64073 6.03633 18
467 1 -1.31235 -11.1738 4.20457 19
468 1 -5.98384 1.24184 -10.8956 21
469 1 6.63995 -1.82645 -8.50648 19
470 1 -3.32941 -20.0814 -5.90519 16
471 1 8.27872 -2.81689 -10.8122 20
472 1 3.64592 10.521 -1.36185 18
473 1 -1.29393 5.46715 -7.65911 19
474 1 2.11998 12.7497 8.45882 16
475 1 -12.8154 -1.84588 -2.65142 17
476 1 -5.24801 12.0406 -9.11183 11
477 1 1.81152 10.9919 -15.0088 9
478 1 -8.83015 -19.6126 -10.4438 8
479 1 1.89768 3.54033 17.6262 5
480 1 7.85614 -17.9035 -12.9502 12
481 1 -0.236638 -8.09323 -18.3907 9
482 1 10.3514 -11.4093 -2.90547 17
483 1 -15.1141 -1.2769 -4.22858 10
484 1 8.08191 2.69755 11.7427 17
485 1 14.7704 1.93764 -2.36586 13
486 1 0.0752114 2.98028 -10.1246 17
487 1 -6.99116 -2.0499 -11.5552 14
488 1 5.93972 -4.99902 -9.23588 22
489 1 -0.402408 -9.79808 0.955207 19
490 1 -12.6544 -12.2438 -7.7154 14
491 1 14.0834 6.45177 6.22838 11
492 1 -0.0711252 5.05824 -16.7701 16
493 1 8.6669 0.798877 -9.30047 20
494 1 9.78885 5.60834 -15.4678 13
495 1 10.5394 -3.11453 -6.28894 19
496 1 16.6699 -5.19333 -8.37099 17
497 1 0.95782 -0.262636 -8.66909 19
498 1 0.900049 -12.0521 2.52003 25
499 1 5.8871 -14.6387 7.28535 12
500 1 2.62404 -18.6044 7.38028 12
501 1 -8.90032 2.37892 -9.16131 20
502 1 -4.84488 -16.5061 5.52624 16
503 1 -0.695445 -16.6853 -15.4398 12
504 1 9.4317 4.70156 3.07512 20
505 1 -2.93294 0.968284 -12.9515 19
506 1 2.61571 -7.92725 5.74949 18
507 1 -8.54581 -4.64624 11.1418 15
508 1 -3.57274 -22.8579 -0.230909 12
509 1 -9.4758 -9.95284 4.55368 20
510 1 14.3262 -8.27261 -7.2778 19
511 1 16.6367 -3.34871 -0.624535 20
512 1 -2.06563 1.72665 -4.2375 21
513 1 6.06965 -20.577 -10.2612 14
514 1 2.87953 2.10402 -7.66492 14
515 1 12.9108 -6.14069 -10.9984 15
516 1 -0.0568147 -8.64236 3.94848 19
517 1 4.71009 15.1759 -5.11155 11
518 1 -1.90576 -5.3372 -19.5967 11
519 1 5.57277 -3.4493 -20.5364 6
520 1 -6.82912 -12.5403 3.1916 20
521 1 -9.43109 11.6789 3.4029 5
522 1 -9.25668 -9.10202 -12.8616 22
523 1 -13.8214 -7.32116 4.30562 14
524 1 1.06756 -14.1543 -17.0744 11
525 1 0.9608 -21.4941 5.9344 11
526 1 7.09481 3.58962 -7.57327 16
527 1 16.838 1.74333 6.43411 10
528 1 12.5498 3.84111 -4.13952 18
529 1 -12.9414 -14.3044 -4.66466 10
530 1 3.45232 -17.8795 0.361443 17
531 1 -3.31383 -7.74193 -13.9033 18
532 1 -2.47675 8.43314 10.6191 13
533 1 2.3811 -8.72644 -7.62499 18
534 1 5.42048 7.07367 -6.26965 17
535 1 11.717 -5.26037 2.02391 20
536 1 8.14012 -2.54071 -13.9463 17
537 1 5.94978 -14.0723 0.370887 16
538 1 12.714 2.25526 -10.515 15
539 1 -3.78413 0.326993 11.0276 23
540 1 -8.19269 3.4462 9.07773 12
541 1 5.60461 7.94696 11.1899 20
542 1 3.87353 -6.36508 11.5588 15
543 1 9.94293 -4.60929 -16.412 12
544 1 1.94621 -18.2877 -5.743 21
545 1 0.381905 -10.4007 9.57599 15
546 1 11.8427 7.46937 3.43902 15
547 1 2.27461 7.04228 -5.44486 18
548 1 -10.9075 4.81836 -9.58041 14
549 1 1.19471 5.61415 -14.5767 20
550 1 6.30206 -11.5736 8.77918 15
551 1 9.86775 -7.25424 -11.9748 20
552 1 8.01751 -11.1857 -5.7561 18
553 1 10.8033 8.36631 5.94251 15
554 1 -10.4872 -10.2013 7.07421 16
555 1 -9.46085 1.36252 -15.4164 8
556 1 5.80045 -0.104561 12.8997 16
557 1 -2.50051 -2.34613 10.9286 19
558 1 -2.05156 7.2161 -15.4139 17
559 1 17.7035 -13.3087 -1.59629 12
560 1 0.543716 -2.95753 -8.08018 19
561 1 -3.26356 13.8077 -6.2854 13
562 1 -8.46295 -6.62129 -15.5822 13
563 1 6.12672 -15.3703 -2.97408 20
564 1 -4.12482 -15.66 -5.1937 21
565 1 8.7901 8.60071 -14.5197 11
566 1 -12.8669 -11.7652 -2.03455 17
567 1 2.2166 9.63569 12.5133 9
568 1 -5.07078 -12.1799 9.72562 14
569 1 9.33993 2.65332 -6.05449 20
570 1 5.41774 -11.4002 -7.80569 15
571 1 6.19307 -14.7906 3.98031 15
572 1 13.8376 -3.0388 0.18313 20
573 1 -15.5114 0.976868 -1.93055 12
574 1 3.44081 6.01973 12.5055 17
575 1 4.2091 3.5671 -10.2 15
576 1 11.3309 -5.81803 -4.07951 21
577 1 6.99197 8.98422 9.10558 15
578 1 0.271339 -2.30985 -20.0553 12
579 1 -2.08013 -19.8358 2.66168 20
580 1 0.899565 -5.54065 -5.32256 20
581 1 8.70604 -10.7244 -12.6174 20
582 1 7.3242 13.4595 1.53203 11
583 1 7.1766 -1.59476 -5.81114 21
584 1 -3.72555 1.28824 -16.2651 15
585 1 -3.7866 -8.15177 -1.95428 21
586 1 -5.46023 -6.54873 -15.5779 15
587 1 17.8447 0.498386 3.60243 12
588 1 9.73388 -0.384161 -6.90209 22
589 1 11.6425 -12.5376 -13.2775 17
590 1 12.3691 2.98011 14.9855 6
591 1 13.0732 -10.5413 0.170103 23
592 1 10.6429 -4.6432 -13.3512 19
593 1 2.58188 7.24144 -8.54367 16
594 1 -2.71901 -1.79998 5.48555 19
595 1 9.25748 11.2364 10.5953 14
596 1 10.3869 8.01504 -8.05156 14
597 1 16.507 -6.74114 -1.20557 20
598 1 10.2634 -1.94209 -3.58632 19
599 1 6.12483 -8.66545 7.28061 18
600 1 11.5712 -0.403104 5.16021 18
601 1 -0.178285 -4.34553 4.38778 18
602 1 11.897 11.7497 -9.22893 6
603 1 6.37594 -4.64711 0.201496 22
604 1 -1.64925 -8.54535 10.3444 16
605 1 18.9697 -5.52741 -7.02559 11
606 1 15.8631 -9.11522 6.83319 11
607 1 -5.284 3.90987 -9.37275 21
608 1 14.0136 2.97742 1.04706 13
609 1 14.2589 -5.143 -2.2208 19
610 1 1.01681 -10.1963 -0.974849 21
611 1 -6.18127 7.85048 6.5042 13
612 1 8.74611 5.17079 7.83904 19
613 1 6.29547 -11.3465 4.84419 19
614 1 3.39726 8.05694 7.67669 18
615 1 8.16113 8.98832 12.9985 10
616 1 5.23064 3.06743 4.40944 17
617 1 -0.245069 -23.6348 -6.47036 11
618 1 1.1934 2.48433 4.12081 21
619 1 15.9882 2.53935 -10.3969 10
620 1 3.26017 -4.22667 -14.8878 18
621 1 0.25963 11.0553 -2.35693 20
622 1 1.44185 -14.735 -7.15691 14
623 1 9.18907 -16.1203 -15.3686 6
624 1 -8.70745 -5.1117 5.91108 23
625 1 -6.67039 1.89689 -7.62151 18
626 1 2.9537 -23.0868 -7.03126 15
627 1 0.796722 -5.87525 -10.568 21
628 1 -8.91097 -5.78099 -8.29372 21
629 1 13.8034 -11.0266 8.75621 10
630 1 6.8944 10.3804 1.10283 20
631 1 0.123165 -17.5171 3.41442 15
632 1 -13.4801 -8.88782 -7.3812 14
633 1 -2.17105 -3.79446 -14.7249 18
634 1 5.31812 -6.56429 1.98145 19
635 1 -0.224691 0.582376 9.59254 19
636 1 8.2272 3.89558 -17.9172 15
637 1 13.7256 -7.34531 0.850118 20
638 1 15.9405 -3.93469 -4.48487 14
639 1 8.43649 14.32 -6.26365 10
640 1 6.69333 -16.0375 -6.14514 17
641 1 -5.18975 -9.77418 10.5723 15
642 1 8.05326 -1.03006 -0.30846 19
643 1 -0.741088 11.5131 9.85766 10
644 1 8.83242 8.45597 -11.2544 16
645 1 -6.17106 10.4315 -1.43492 12
646 1 8.15228 11.0 -3.87341 17
647 1 -10.3294 -18.6171 -1.94062 11
648 1 18.1262 -9.28634 -2.31579 15
649 1 11.6237 9.99917 -3.16119 12
650 1 -0.90796 0.148636 12.0499 19
651 1 -9.02 -12.9946 5.86913 19
652 1 -8.48482 -8.62041 -10.1354 22
653 1 6.20927 -5.74774 10.3098 23
654 1 -4.07002 -22.9815 2.36948 10
655 1 11.8821 6.16245 8.73636 18
656 1 -2.92512 12.3093 -1.07483 14
657 1 14.897 -0.311799 0.336581 16
658 1 3.48951 -10.0265 0.427171 20
659 1 8.12752 -7.00046 0.24793 20
660 1 5.47375 -1.75129 -11.4565 20
661 1 -7.65236 -3.28129 8.32281 20
662 1 14.8853 -0.733599 -15.4964 7
663 1 3.03635 -14.4496 -4.28379 16
664 1 14.3712 -16.3373 -10.2676 11
665 1 11.1228 -0.746017 -1.09175 19
666 1 5.67873 1.27843 -0.367271 18
667 1 -11.779 -12.5251 5.03802 18
668 1 10.1317 12.9866 -3.53835 11
669 1 3.33058 -7.1335 8.97728 17
670 1 -0.687581 4.87954 9.79163 16
671 1 -1.62517 -3.65756 -11.1627 21
672 1 -6.69645 1.6249 6.40961 19
673 1 14.3134 -0.175939 6.48888 17
674 1 -4.76637 -11.5369 -2.73084 21
675 1 4.98944 0.996993 -10.531 17
676 1 4.18159 -16.8091 -8.35883 17
677 1 -3.63912 -0.814484 2.26566 21
678 1 -0.784189 7.95342 -12.9408 19
679 1 9.34592 9.63594 2.6541 16
680 1 8.46888 -7.15159 -14.8997 21
681 1 2.94364 -3.26878 5.39726 21
682 1 0.0264297 13.2532 -6.6178 11
683 1 11.9773 4.09565 2.62466 19
684 1 -7.15907 -11.6843 -9.03953 17
685 1 -2.50019 0.117259 -18.4303 13
686 1 -9.07401 10.4397 -0.479585 11
687 1 6.84951 -8.0177 -11.7522 20
688 1 7.58558 -5.19639 3.2915 22
689 1 11.0197 -4.64138 -10.4167 16
690 1 9.90487 5.35007 -2.75634 21
691 1 3.3159 5.60217 5.23213 22
692 1 -10.7167 1.03819 -6.95123 16
693 1 7.35975 7.81502 -3.5467 19
694 1 4.88966 -10.4136 13.7873 5
695 1 5.86586 5.52304 6.83668 16
696 1 -2.28931 -20.4529 7.18427 11
697 1 -6.35373 7.4935 -10.6239 16
698 1 4.81623 14.7115 3.56839 11
699 1 4.26709 -5.06681 -11.8003 18
700 1 12.2151 0.383357 8.96223 12
701 1 3.48717 10.9318 -12.1899 16
702 1 2.62104 0.43907 -11.3088 20
703 1 12.4498 -14.1408 -8.02999 19
704 1 7.4001 0.57199 15.6929 10
705 1 -10.0674 -8.42799 9.87293 12
706 1 0.638067 -22.3382 -9.37021 17
707 1 -0.85782 -8.80999 -8.64251 16
708 1 -6.71379 10.6256 1.8888 14
709 1 -0.465768 2.86841 11.9909 17
710 1 -1.45388 -8.0438 -11.2093 19
711 1 4.03088 10.6356 6.49491 16
712 1 -11.6029 -6.97171 1.36856 23
713 1 -0.523719 1.77924 15.2551 14
714 1 -3.65134 -0.553081 -10.7008 19
715 1 -5.42872 -1.36587 -18.5231 13
716 1 1.62458 -22.1211 -4.36271 16
717 1 5.59988 -0.757298 -18.6058 17
718 1 -0.99753 -7.81531 7.01921 21
719 1 0.0786668 3.40033 7.19625 22
720 1 -11.749 -2.00441 5.45458 13
721 1 10.4138 -10.1098 -10.9843 17
722 1 0.64061 -18.3161 0.349829 17
723 1 0.147319 6.46771 0.344092 19
724 1 2.66155 -4.20484 9.58753 18
725 1 -4.88002 -12.4034 -12.9063 14
726 1 -2.35365 -13.88 -15.9532 14
727 1 -0.834112 -21.2635 -11.4587 12
728 1 -0.0563234 6.32817 -10.9388 19
729 1 0.519817 -3.73014 -13.1008 22
730 1 2.02077 8.15913 -1.9601 20
731 1 9.4241 -12.9981 -10.413 16
732 1 15.5446 -17.5435 -5.4591 10
733 1 1.44443 -13.275 10.7154 12
734 1 16.602 0.307575 -7.94591 14
735 1 8.90191 -20.8262 -5.51092 9
736 1 -10.5332 -2.6646 7.61707 15
737 1 1.50983 -1.85415 -0.843364 22
738 1 3.58241 -18.0338 -3.37265 18
739 1 -1.84991 -15.1547 -6.85178 20
740 1 -9.77082 2.41135 4.84946 17
741 1 -8.64973 -23.0977 1.91363 7
742 1 17.7849 -2.53196 -6.5823 13
743 1 -0.953145 13.7103 -3.57404 12
744 1 0.311632 2.48472 -1.65836 21
745 1 -7.63618 3.61495 0.825471 20
746 1 12.7813 -10.0098 3.3265 18
747 1 -11.0691 -6.42971 -13.9617 12
748 1 -1.35417 4.18788 -13.0702 20
749 1 7.69796 -2.99523 -2.19503 18
750 1 11.3171 8.15598 11.7049 11
751 1 10.225 8.00094 -4.91024 19
752 1 -9.70322 -3.07929 -10.5836 19
753 1 -11.674 -12.8776 -13.2222 8
754 1 -0.412077 -5.74715 9.69919 16
755 1 1.35997 -6.44474 -15.5515 17
756 1 7.55038 7.26616 1.23823 17
757 1 2.43753 1.09995 8.03515 16
758 1 0.633224 -20.9323 -6.69607 20
759 1 -4.85137 -19.8785 0.364045 18
760 1 -3.9374 -12.0198 5.44209 19
761 1 13.4055 3.22768 5.12136 18
762 1 0.375724 -12.6774 -11.4717 13
763 1 -3.32284 3.8764 -6.72196 21
764 1 6.80684 3.60373 1.6767 21
765 1 -5.70877 -10.3219 0.662729 19
766 1 16.41 -2.16558 -13.1253 13
767 1 2.65899 -16.3192 -15.9755 12
768 1 -2.48314 -16.3394 -9.92847 15
769 1 4.02575 -22.7759 -10.1083 13
770 1 4.39898 -1.12227 -16.0676 16
771 1 4.83301 14.4409 -8.37754 8
772 1 4.13489 -4.24687 -17.4992 17
773 1 -5.34695 -3.92747 6.47406 24
774 1 7.94483 -2.31529 -17.6582 14
775 1 -10.347 -3.78166 -16.6638 10
776 1 -7.17285 -11.5797 -5.83889 19
777 1 7.88729 6.24585 -13.1032 23
778 1 15.1817 -4.28827 2.85527 21
779 1 -4.87899 -12.234 -16.3749 10
780 1 -6.79485 -14.5009 -7.22902 19
781 1 4.53888 -3.466 -6.39653 15
782 1 17.8504 -8.46463 -5.66672 15
783 1 -7.62086 6.27393 8.42086 11
784 1 2.85463 -12.8334 -0.271005 19
785 1 15.7315 -10.1159 -1.09596 23
786 1 15.0287 -11.9523 1.50549 17
787 1 3.67641 10.8926 3.06779 19
788 1 -6.24861 1.62618 9.99651 19
789 1 0.419204 5.49713 4.1267 21
790 1 -4.1881 -20.2543 -2.25122 18
791 1 11.0708 -3.91729 -1.32908 21
792 1 9.86483 5.18732 14.8102 9
793 1 -13.6568 -4.46624 2.44726 12
794 1 3.31994 -11.1161 -5.40555 20
795 1 -8.52439 5.4458 -5.51769 14
796 1 3.77435 3.44564 -2.39248 18
797 1 5.61115 -19.7852 2.63773 12
798 1 10.1549 -0.563429 14.5303 9
799 1 1.47585 8.77383 4.888 19
800 1 3.88068 -13.5072 8.74817 15
801 1 -5.1363 -9.35547 -5.02311 21
802 1 9.25529 -1.02796 6.47065 18
803 1 -14.4493 -8.49649 -0.714118 14
804 1 5.76026 3.26292 12.9741 18
805 1 4.4936 10.0643 -7.54527 19
806 1 -10.3164 -14.6069 -3.112 19
807 1 0.694967 -15.932 -4.04339 19
808 1 3.25533 -12.5794 5.82841 18
809 1 13.5649 -14.5198 3.49584 14
810 1 9.82615 1.80279 0.621404 21
811 1 -3.98904 0.18486 -2.17099 22
812 1 4.35793 -9.88492 -10.2884 17
813 1 2.67823 -7.2819 -12.8896 19
814 1 -7.67424 -0.209406 8.02789 19
815 1 2.41298 12.8688 -3.06183 16
816 1 19.556 -2.98139 2.79797 12
817 1 5.51946 5.09114 -19.294 13
818 1 2.86694 5.34115 8.50451 16
819 1 14.377 1.09601 3.5498 19
820 1 5.5714 -10.0027 -16.5214 14
821 1 -11.1116 -18.7875 -8.55856 9
822 1 -2.92864 -4.25566 -6.20798 16
823 1 19.7065 -4.60678 -0.474334 14
824 1 4.74531 -7.03866 -15.8669 18
825 1 3.33496 4.1642 2.09155 19
826 1 9.40218 -17.4749 -6.21575 18
827 1 6.7992 -4.83437 -16.1565 17
828 1 -4.07066 -12.5934 -5.62386 19
829 1 12.1207 1.41577 -13.9589 16
830 1 18.4983 -3.01278 -3.18294 10
831 1 -2.29206 -10.3905 8.0075 21
832 1 0.240449 -11.9726 -14.8752 18
833 1 7.17973 7.31894 -9.10218 17
834 1 2.30224 -19.3817 4.28791 14
835 1 -14.4109 1.67539 1.11788 13
836 1 10.851 2.49818 -8.64436 17
837 1 16.1266 -8.89443 1.99586 18
838 1 2.99528 -11.111 -12.621 19
839 1 -4.06775 13.4516 7.12714 6
840 1 9.14777 5.56421 10.8718 19
841 1 9.67009 11.0779 -11.7767 8
842 1 15.311 -7.75307 -15.0783 8
843 1 11.0664 -6.91728 -0.90039 22
844 1 -15.337 -0.712721 2.93172 7
845 1 18.0867 -4.80835 5.17474 13
846 1 -9.61397 -16.2245 0.157794 16
847 1 -13.3704 2.52346 -8.99902 12
848 1 8.17275 1.35721 4.36604 17
849 1 -15.546 -1.55898 -0.257634 11
850 1 -10.9037 -3.98963 3.54885 17
851 1 -3.39714 1.20766 -7.8225 20
852 1 13.3469 -10.9051 -9.34371 16
853 1 -3.05006 -10.5624 -10.9276 15
854 1 13.5133 -10.7786 -2.86532 19
855 1 -13.3316 0.980197 -6.0142 13
856 1 -13.0804 -4.19948 -4.28476 11
857 1 15.7234 4.2319 4.07084 9
858 1 -7.99259 -15.25 -1.42411 17
859 1 6.65122 -7.35734 13.3128 11
860 1 14.4094 -7.47662 4.81359 15
861 1 12.6436 -5.04645 4.70108 18
862 1 -6.00406 0.041162 0.511766 24
863 1 2.4283 7.91099 10.5655 15
864 1 2.02166 3.57914 -12.3865 17
865 1 -1.52546 -11.247 -17.0407 14
866 1 2.01784 13.6752 2.88083 16
867 1 -9.20941 -19.9651 -3.9533 11
868 1 9.93608 11.2783 -6.6126 14
869 1 3.97998 10.744 9.90943 16