ITEM: TIMESTEP
29000
ITEM: NUMBER OF ATOMS
1000
ITEM: BOX BOUNDS pp pp pp
-30.0 30.0
-30.0 30.0
-30.0 30.0
ITEM: ATOMS id type x y z Coordination
1 1 -6.76661 -8.62859 -8.32586 10
2 1 0.926818 -6.61161 5.54923 15
3 1 -15.7128 10.4846 3.1654 12
4 1 -12.6414 9.15881 -6.22041 13
5 1 -6.61388 -1.13795 14.0258 10
6 1 -13.4974 2.58686 -8.79305 16
7 1 -6.37938 -9.23385 2.6503 14
8 1 1.94618 1.71947 7.33016 20
9 1 -5.94096 9.23205 8.8663 17
10 1 -6.67339 16.7009 -8.31745 9
11 1 -3.82022 8.49553 12.715 11
12 1 -12.9449 1.3755 1.83256 20
13 1 -6.59536 0.291881 -10.937 20
14 1 -2.28038 10.2091 9.78867 16
15 1 -5.44491 -7.49388 8.03702 14
16 1 -16.2502 1.24448 3.21408 13
17 1 -12.3297 1.59179 -1.18087 19
18 1 -7.01333 16.8357 -1.8515 11
19 1 -1.68577 2.96618 -9.99821 20
20 1 3.54928 -0.984603 -13.6285 10
21 1 -8.79571 -3.55963 12.8238 12
22 1 -17.3839 7.87277 1.51886 11
23 1 -0.7233 16.0667 -1.81264 14
24 1 -3.18827 -9.20887 2.91298 12
25 1 3.03734 -4.5966 -8.53543 12
26 1 3.42958 4.65517 7.36848 24
27 1 -11.7607 11.7775 -3.53813 19
28 1 -3.14756 8.70475 7.47909 21
29 1 -1.26842 1.69403 12.2425 17
30 1 -13.3114 -0.711258 -3.4846 19
31 1 6.568 3.84791 5.22077 16
32 1 3.64702 -1.61127 -6.59428 17
33 1 0.367032 4.23522 8.84015 20
34 1 -11.1585 -1.62887 1.63558 22
35 1 -5.71064 -4.4674 -9.78815 17
36 1 -12.2984 11.9218 -0.673117 18
37 1 -7.53197 10.9298 -9.12368 13
38 1 0.215503 4.38092 -7.92104 17
39 1 1.23448 -3.64577 6.93378 20
40 1 2.90191 -5.31408 8.32492 13
41 1 -7.38252 11.4629 5.6568 21
42 1 -11.6399 -3.3251 11.344 10
43 1 -13.9409 3.13232 7.06355 19
44 1 4.65329 -3.84589 -5.00427 17
45 1 3.97541 7.11641 -11.6176 9
46 1 -1.47857 15.3271 1.24233 15
47 1 -10.306 9.25125 -4.7042 25
48 1 0.996643 13.5641 -1.94789 21
49 1 -10.5298 -5.04626 9.71915 15
50 1 -0.937541 -6.51669 -10.0738 10
51 1 -2.35552 -4.48491 -8.00979 23
52 1 -4.06804 6.19222 6.66029 20
53 1 -11.1538 -6.18815 1.71072 21
54 1 6.1976 -1.26671 1.95893 18
55 1 -12.9837 -4.95227 -3.97442 17
56 1 3.63044 -0.697376 3.50226 21
57 1 -8.18174 9.88555 3.5055 21
58 1 -1.28668 6.78472 -8.21023 19
59 1 3.52211 -7.49681 -0.0717991 12
60 1 -13.4341 -9.19865 1.13766 7
61 1 8.91776 11.6913 1.12984 11
62 1 4.7198 6.45577 -1.67253 20
63 1 -7.54846 15.1401 -5.16065 19
64 1 -2.90347 -4.50872 -11.3845 14
65 1 -5.85804 12.7091 -7.12136 18
66 1 7.6176 1.4868 -6.8554 12
67 1 5.97329 10.7299 -8.10929 10
68 1 3.9562 -6.36246 5.44728 11
69 1 -9.72458 6.41131 -6.21131 20
70 1 1.77754 15.534 0.272782 16
71 1 7.13877 8.03108 -3.20957 15
72 1 -9.21513 12.6984 -4.43011 22
73 1 -3.1897 0.72468 -10.8612 24
74 1 -16.1842 -0.57611 -5.67641 13
75 1 -8.60728 14.4972 6.39658 11
76 1 -4.47872 16.0397 -3.30542 15
77 1 -2.90773 5.03962 13.4338 13
78 1 -17.2037 -1.9454 2.96216 7
79 1 -8.56295 -7.50859 8.91449 11
80 1 1.97817 11.6356 0.56738 20
81 1 6.95273 10.1116 -5.1558 14
82 1 -5.52643 -3.86174 12.6851 11
83 1 -13.8426 3.99806 0.147574 22
84 1 -7.35791 7.99547 11.5748 10
85 1 -10.9963 3.4608 -7.91061 21
86 1 -9.66832 -3.85671 3.27065 21
87 1 -8.59391 -9.21393 6.69811 9
88 1 2.00342 -3.87663 -2.93202 20
89 1 -6.60407 12.4724 0.428327 20
90 1 -10.9377 3.35074 5.28189 20
91 1 -12.3309 1.33723 -5.44674 19
92 1 -4.64192 -9.38855 0.163748 16
93 1 1.19002 10.0481 -4.70506 19
94 1 -0.03671 4.45086 11.4719 16
95 1 -3.69415 7.86691 -9.59712 18
96 1 -10.5597 -1.02301 -9.92448 15
97 1 -9.54805 12.4209 1.71574 23
98 1 4.74741 6.63879 9.29418 11
99 1 -8.5018 13.8564 -8.29908 14
100 1 -1.71512 10.3385 -9.15758 21
101 1 -11.403 10.6724 7.87166 13
102 1 -8.26554 8.8393 6.95043 21
103 1 -5.16069 -8.62672 -5.69675 15
104 1 -0.261369 14.2099 -7.75305 13
105 1 -6.26422 13.2285 -3.14509 18
106 1 -16.5851 4.12417 1.86433 14
107 1 -2.59991 13.4845 6.99528 14
108 1 8.84271 5.23281 -3.75843 12
109 1 0.0203277 11.3234 4.08203 17
110 1 -12.9495 5.62902 5.22142 23
111 1 -9.84544 -3.46919 -2.62898 21
112 1 -1.0005 1.8915 8.79315 21
113 1 -0.631718 -8.08027 -4.96503 14
114 1 -7.7818 2.43844 -12.4444 12
115 1 8.87766 1.56912 -9.69911 10
116 1 -16.0078 -0.187859 5.89519 12
117 1 -7.8597 -2.02857 -9.50863 17
118 1 -9.52013 0.370754 -12.4743 11
119 1 -14.1039 4.13597 -6.60339 15
120 1 6.70432 3.89911 8.46181 13
121 1 0.827955 -0.76815 8.27161 25
122 1 -2.23939 -0.988349 6.78238 21
123 1 4.02482 15.699 1.76257 10
124 1 -7.91157 -6.69798 3.18422 20
125 1 -1.31199 13.9074 4.05176 18
126 1 -0.252789 0.0648049 -11.5518 20
127 1 -9.36839 -4.37774 -8.44231 16
128 1 -7.01801 -3.65518 1.8291 23
129 1 4.5373 7.52975 5.06895 19
130 1 -12.5869 -0.384504 10.8391 12
131 1 -8.00372 -6.74951 0.0290353 24
132 1 -4.95241 -6.76987 -1.19305 20
133 1 1.04297 -9.12808 -1.92647 12
134 1 -9.64047 8.50844 -8.22185 18
135 1 8.15014 9.18186 4.38933 10
136 1 -10.4369 3.68417 -4.68706 23
137 1 -6.51002 8.06187 -9.99751 15
138 1 -7.94598 -1.53504 7.0867 19
139 1 -5.19293 14.9311 6.69367 10
140 1 7.54514 1.56562 3.59614 15
141 1 -12.6563 0.883944 5.34453 19
142 1 -10.9037 -2.21173 8.18009 18
143 1 -12.7943 12.1554 2.43652 17
144 1 -2.28094 -1.90037 -13.3751 14
145 1 0.588337 -6.11004 -0.515359 19
146 1 6.1672 0.657167 -11.5532 13
147 1 -14.2269 -1.28128 3.42879 20
148 1 3.97168 -6.1799 -2.98915 11
149 1 -9.27719 12.7401 -1.23942 21
150 1 -10.0813 6.89414 3.32749 19
151 1 -0.696761 -5.76176 8.54984 12
152 1 -3.4862 11.2639 5.00006 19
153 1 -10.8323 -1.90013 -4.62244 21
154 1 -7.90953 13.9908 3.6264 18
155 1 -12.5321 6.31797 -4.87724 19
156 1 -15.9598 6.82278 3.78405 16
157 1 -8.07731 -1.59981 -6.50714 18
158 1 -11.1656 9.59038 1.76483 20
159 1 6.65803 -1.3906 8.78896 12
160 1 -2.80136 -3.09661 11.3647 14
161 1 -3.46637 0.649393 10.5564 18
162 1 -2.34312 -7.83974 -7.59061 13
163 1 -4.58072 0.553571 -13.4051 11
164 1 -16.7089 0.718099 -3.19438 12
165 1 -6.75556 -3.73154 -1.36395 22
166 1 8.13743 4.5908 -8.29068 11
167 1 -9.18102 5.29546 -9.0532 19
168 1 -11.1278 15.0007 3.64464 13
169 1 -11.7953 14.8172 0.417977 14
170 1 -10.1919 12.0241 5.48333 20
171 1 3.89083 1.5767 -8.8213 14
172 1 7.02309 3.33184 -11.0995 9
173 1 -1.39655 -5.97424 -3.12452 21
174 1 -4.66991 13.4021 3.64495 19
175 1 -13.3864 3.38032 -3.38236 17
176 1 -1.97489 -9.30645 -2.11863 14
177 1 7.83687 0.938186 7.01441 13
178 1 -13.985 -2.73277 -5.83928 16
179 1 -5.10008 -6.88282 2.35095 21
180 1 -9.51621 15.4146 -2.65077 15
181 1 -15.5215 11.4165 -2.39473 11
182 1 -7.39078 -5.86933 -6.83085 22
183 1 0.584678 -0.88064 5.15339 20
184 1 -7.55723 -10.0908 0.575429 15
185 1 -13.7281 9.49865 -2.82512 14
186 1 -5.94213 -7.2119 5.55498 16
187 1 -8.02568 3.59896 6.784 24
188 1 -13.1296 8.50172 7.45334 14
189 1 -2.09537 -1.899 -6.42616 21
190 1 -14.137 0.3736 8.62316 11
191 1 -6.85227 1.1762 8.66743 18
192 1 -10.2392 1.06051 7.26848 19
193 1 -1.42716 -4.12649 -4.94395 21
194 1 -1.38287 -7.02533 3.06954 18
195 1 1.85241 13.5893 -5.31644 17
196 1 -11.3932 -7.2078 7.08172 14
197 1 5.63971 -3.87514 7.07096 13
198 1 6.10025 4.26263 -5.55553 18
199 1 1.03845 2.37442 -9.94425 17
200 1 5.98698 -3.84297 3.68837 15
201 1 -9.83217 2.05775 10.9649 21
202 1 -0.655999 12.7957 0.930257 19
203 1 3.63892 -0.871279 6.97718 22
204 1 -9.95647 -8.84073 -2.28183 15
205 1 0.893603 9.40243 9.09637 14
206 1 -9.77988 5.80604 10.2307 19
207 1 -10.1011 -8.8959 1.13306 18
208 1 -12.1578 -5.1346 -7.37583 13
209 1 -10.7018 8.60785 5.34367 21
210 1 -3.87046 -8.07001 -3.32997 17
211 1 -10.7971 -1.45634 4.78407 20
212 1 7.90869 6.62536 2.88136 14
213 1 10.1316 8.73169 1.03187 13
214 1 -1.33188 5.58255 -13.6665 11
215 1 -4.5407 10.7054 -8.14766 21
216 1 -8.45999 11.7809 8.43568 16
217 1 -15.3574 -3.54489 0.668979 11
218 1 4.63763 15.4879 -4.93424 9
219 1 -7.55616 -6.53086 -9.91935 12
220 1 -1.90461 -1.89576 -9.77613 20
221 1 3.59434 9.28777 -0.536932 21
222 1 0.275962 10.358 -1.36068 22
223 1 1.38429 4.165 -12.0007 17
224 1 -1.09925 -4.12061 2.26993 23
225 1 -6.41674 5.61449 -11.2133 16
226 1 5.38459 11.0691 5.891 13
227 1 3.84673 -1.0574 -0.0266647 18
228 1 -3.89982 7.02354 -12.5834 12
229 1 1.90534 -3.52283 0.557776 17
230 1 -3.37477 -1.04323 13.4041 13
231 1 -12.3556 6.35944 -8.42425 14
232 1 1.46274 8.03339 -12.6636 11
233 1 -15.6939 1.30176 0.124916 15
234 1 7.29915 1.72812 -3.58938 13
235 1 -7.79049 10.4459 -6.09654 21
236 1 -4.12571 -7.25757 -10.1422 13
237 1 -1.21874 7.94533 -11.8851 18
238 1 4.97984 -2.6208 -11.5816 8
239 1 -13.336 -4.49974 8.46262 11
240 1 -3.87704 16.8688 -0.0881224 12
241 1 -1.87559 10.1776 -6.31428 21
242 1 12.086 10.3786 -0.551276 6
243 1 -0.784557 -3.63433 -1.17719 21
244 1 2.22909 -1.26523 -10.5451 18
245 1 7.50504 -3.17291 0.713067 11
246 1 -1.46279 -3.98567 5.37516 23
247 1 -15.5633 6.43008 7.11087 10
248 1 -9.81301 -4.77358 -5.32449 20
249 1 -7.54986 -0.445568 10.9511 13
250 1 3.58077 10.9277 -6.67765 19
251 1 -11.0576 14.8119 -5.84669 10
252 1 -4.82952 16.9575 -6.47817 9
253 1 -4.08454 6.90622 9.98191 21
254 1 1.52715 -9.99226 -5.77035 5
255 1 2.40407 0.71279 -6.24314 15
256 1 -12.931 -3.90964 1.89149 20
257 1 -12.8685 6.92452 -1.20552 18
258 1 -12.5069 -4.22043 5.20917 17
259 1 4.3391 9.03981 -3.9796 21
260 1 0.14741 -3.39705 -10.7378 17
261 1 -1.0739 -1.02143 10.3999 19
262 1 3.20745 4.2546 -6.98469 16
263 1 -15.6788 6.25005 -0.0128614 13
264 1 6.56076 -1.27543 -5.12823 16
265 1 0.679406 13.3048 6.75969 8
266 1 -3.92872 4.84976 -8.26182 19
267 1 2.61193 10.308 -10.3627 11
268 1 -6.71324 0.882 -7.91454 20
269 1 -11.7522 -7.75814 -5.15514 12
270 1 10.0993 7.63046 -1.99283 10
271 1 5.61276 -3.10856 -8.20654 11
272 1 0.187316 -6.72634 -7.27289 14
273 1 6.58683 10.8871 -1.67724 18
274 1 -13.0693 6.88722 1.82146 19
275 1 6.82279 6.83979 -6.5267 16
276 1 -9.93883 -0.66269 12.9945 13
277 1 3.44192 3.96272 10.3522 14
278 1 -11.7481 -1.34854 -7.24668 18
279 1 7.15712 12.2213 4.10266 10
280 1 5.31301 -6.90666 2.62346 10
281 1 1.1152 14.4501 3.14017 14
282 1 -1.15295 7.09974 8.5711 21
283 1 -7.76489 10.6355 -2.70602 22
284 1 -4.20017 -5.80617 -5.17465 21
285 1 -6.19658 13.9464 -10.3562 12
286 1 -11.1796 3.19851 -11.1572 13
287 1 -16.8323 3.13738 -4.86183 10
288 1 1.62926 -6.61106 2.29033 16
289 1 -4.55357 -5.07756 9.88784 15
290 1 6.64122 12.7878 -5.67546 9
291 1 5.04616 -4.36876 0.419932 18
292 1 2.05829 9.63827 5.40088 18
293 1 6.4859 -1.57374 5.1342 16
294 1 -10.1684 9.18547 9.09664 15
295 1 -11.2984 -6.35745 -1.08766 18
296 1 -14.3654 -0.434699 -8.11479 15
297 1 1.81531 1.91748 10.4052 19
298 1 -9.03316 15.4042 0.66355 14
299 1 4.82543 7.03405 1.49686 20
300 1 1.87187 7.11035 7.4993 21
301 1 -13.346 -1.65926 6.6176 15
302 1 1.77931 1.81797 -14.5521 10
303 1 -4.81704 -3.16776 -6.58649 19
304 1 3.77512 9.81422 7.93398 13
305 1 -0.421149 10.4772 6.93129 17
306 1 -5.43598 4.43948 12.3885 15
307 1 -7.85407 3.62159 10.4673 19
308 1 -8.53772 5.0586 13.2398 11
309 1 -4.97186 10.4785 -4.66994 21
310 1 4.17033 13.7562 -0.45928 19
311 1 3.07275 16.0799 -2.47383 13
312 1 -9.51844 -10.7232 3.74078 8
313 1 1.62448 6.45866 3.76449 19
314 1 -16.9839 10.6503 0.553242 10
315 1 2.84179 11.2983 -2.74347 16
316 1 -2.59983 4.75533 10.6383 20
317 1 4.29377 13.0181 2.76807 13
318 1 -8.93574 2.18615 -9.75821 22
319 1 1.28758 -4.69914 -5.36581 19
320 1 -3.86086 11.9934 0.676766 13
321 1 -16.5465 4.09993 5.38879 12
322 1 -2.14202 -7.10778 -0.11475 21
323 1 4.0397 8.1649 -8.6166 18
324 1 -1.3829 2.19993 -13.1728 17
325 1 0.676968 -2.44662 -7.62315 21
326 1 -5.84447 14.8455 1.68273 16
327 1 1.31464 -3.93657 10.165 14
328 1 -8.59198 -8.3959 -5.26985 16
329 1 -7.09702 6.12129 8.5359 21
330 1 4.56921 1.7237 1.83886 20
331 1 -2.39189 12.9698 -7.16664 18
332 1 1.80776 7.5495 -6.91148 17
333 1 3.73792 6.44645 -5.1091 18
334 1 -2.61739 13.0969 -10.6095 14
335 1 -4.91302 3.72671 8.42599 20
336 1 -7.29464 -6.13915 11.0954 12
337 1 0.469674 -0.167821 -14.6242 9
338 1 -14.8759 13.0084 0.293842 10
339 1 4.42631 9.93396 2.79006 18
340 1 -13.7088 -1.19474 0.125083 19
341 1 0.922879 11.1061 -7.52704 18
342 1 -7.8293 1.79771 13.3495 15
343 1 -15.2342 -2.50217 -2.84486 14
344 1 4.65508 1.71483 -1.77544 18
345 1 -9.94952 -3.67421 0.19381 22
346 1 6.38911 -6.23672 -0.707771 11
347 1 1.25984 -3.22128 3.72965 17
348 1 -5.01064 11.3239 7.73626 16
349 1 -12.3829 5.95524 8.41577 18
350 1 3.78862 3.92942 3.74447 20
351 1 6.73254 -0.64991 -1.57519 16
352 1 0.945767 8.85313 2.09722 17
353 1 -4.00658 16.5226 3.21434 8
354 1 -4.40874 -4.37474 6.85065 22
355 1 -13.1594 0.205341 -10.6912 8
356 1 -0.971415 7.90788 11.9558 15
357 1 -0.868084 12.2792 -4.18211 20
358 1 4.96195 1.52181 8.53058 21
359 1 3.74079 -1.88738 9.70532 16
360 1 6.65548 9.75805 9.02738 6
361 1 -4.77003 -2.08517 -11.9173 17
362 1 -5.59181 2.82413 -9.37397 21
363 1 -11.2956 2.77921 13.3901 9
364 1 7.90837 6.35201 -0.17356 17
365 1 0.00831614 10.9374 -11.3334 14
366 1 3.76496 1.9889 -11.8551 14
367 1 -13.1457 -7.92075 -2.21547 9
368 1 -9.69148 1.15802 -6.59365 19
369 1 -2.04384 1.23012 -8.04825 20
370 1 -6.80483 -3.78401 -4.55751 21
371 1 -4.50519 1.86685 14.0493 13
372 1 -6.87473 -4.49982 7.86177 19
373 1 6.90027 7.75363 -9.49221 9
374 1 -13.2504 12.4404 5.3525 10
375 1 7.87582 2.52002 0.0412319 12
376 1 -16.3514 4.23218 -1.85003 12
377 1 7.20169 9.13704 0.661196 18
378 1 2.00202 7.3266 11.6765 10
379 1 -16.2454 1.58036 -7.31103 10
380 1 -6.79715 6.03167 -7.95482 23
381 1 6.56921 -3.37088 -2.55347 15
382 1 -7.42 -6.43041 -3.37294 21
383 1 -10.0077 -4.31955 6.61932 19
384 1 4.76298 1.66518 5.42741 22
385 1 -13.8846 3.4306 3.54708 20
386 1 -3.64459 14.8205 -8.9288 13
387 1 -1.84444 -3.38857 8.48448 22
388 1 -13.4579 3.15583 10.3947 13
389 1 -4.54961 -1.04524 -8.67221 21
390 1 -10.6052 -8.35953 4.27295 14
391 1 1.2949 -0.992203 11.9771 13
392 1 -6.701 -9.15782 -2.41359 16
393 1 7.35343 -1.06871 -8.62753 11
394 1 -13.579 8.98254 4.10884 17
395 1 -10.7201 3.17228 8.57178 21
396 1 -10.449 -7.60559 -8.28255 13
397 1 6.23354 14.1697 -2.49637 12
398 1 6.39617 4.4678 1.42375 17
399 1 -4.48636 -1.78654 8.6247 22
400 1 0.87436 16.2543 -4.87665 12
401 1 1.31827 6.11263 -9.77408 19
402 1 -16.7485 8.21649 -1.90088 10
403 1 -4.09589 13.3602 -4.69901 17
404 1 7.16733 13.6015 0.930476 11
405 1 -1.69807 15.3338 -4.8006 16
406 1 -9.98363 5.89676 6.69482 23
407 1 3.51119 3.30048 -3.71094 20
408 1 -2.36161 -7.63709 5.98521 13
409 1 8.01156 6.14947 6.33007 8
410 1 3.67793 -0.762071 -3.34863 20
411 1 -11.1506 11.506 -6.73386 13
412 1 -5.37586 8.95441 5.24882 23
413 1 -3.25228 13.5053 -1.8152 19
414 1 -6.60461 -3.97375 4.92222 21
415 1 -0.305758 -9.06617 0.820093 14
416 1 -3.90433 3.65124 -12.0977 16
417 1 -12.8676 -4.20694 -1.64034 18
418 1 -10.7116 9.5566 -1.74511 22
419 1 4.66386 0.467308 11.313 10
420 1 -13.4756 -6.9539 4.10677 10
421 1 6.53668 3.97483 -2.08809 18
422 1 -3.42533 10.0302 -11.3795 15
423 2 -15.5564 2.99986 -6.5158 14
424 2 -10.2267 13.2419 -7.32311 13
425 2 -6.08559 4.23099 -8.00491 20
426 2 -8.33481 6.333 11.7978 13
427 2 -8.61479 -0.358588 -10.59 16
428 2 0.478723 6.2215 12.0877 14
429 2 -13.9334 1.20519 3.63745 20
430 2 5.19679 9.22175 1.33129 15
431 2 -10.9726 -3.54354 -4.20456 22
432 2 -12.8428 3.66956 -1.50564 18
433 2 -9.14168 -6.34366 10.0729 14
434 2 -1.96729 6.51683 10.2686 21
435 2 5.42798 2.6969 -11.3523 10
436 2 -10.2345 9.04092 0.0448369 22
437 2 7.0923 10.5255 5.13684 12
438 2 -16.3151 -0.568347 3.94938 11
439 2 -6.12497 -7.50723 3.85507 17
440 2 6.27205 -3.36504 5.47219 13
441 2 -12.641 8.59581 2.41113 19
442 2 -9.48847 11.1055 -5.31799 19
443 2 -7.44215 9.49612 5.39721 22
444 2 1.6411 -5.30234 -7.16723 15
445 2 -9.81639 1.86114 -8.25152 23
446 2 -0.684166 -0.797555 -13.2053 16
447 2 6.23463 -2.38111 -9.84606 10
448 2 5.6841 8.16287 -5.08264 20
449 2 -10.4032 14.6514 1.9661 16
450 2 -10.3934 -8.02409 -6.30687 13
451 2 1.00204 -1.87316 10.3065 17
452 2 3.56499 1.80998 3.5456 20
453 2 -15.3172 3.75382 -3.35718 14
454 2 -0.341711 12.7189 2.90684 17
455 2 0.253899 -7.0292 3.83518 16
456 2 -4.20368 10.0242 6.37553 23
457 2 0.373758 14.8126 1.28642 18
458 2 -1.02551 10.1857 -4.59236 19
459 2 -10.6572 6.71433 8.60475 19
460 2 2.68511 1.28088 -10.4039 17
461 2 -12.4372 4.4757 -4.70311 20
462 2 -13.847 1.25981 6.92614 17
463 2 -13.6808 -8.38311 2.72856 9
464 2 -4.97122 -3.87512 2.2192 19
465 2 -7.21202 3.77833 12.3568 16
466 2 -10.2903 11.2236 9.37958 11
467 2 -12.8693 3.57441 1.75137 21
468 2 1.96953 -3.69275 -9.78364 12
469 2 2.28205 2.70779 -12.9517 17
470 2 -4.71464 -9.9282 1.92758 13
471 2 -1.4431 10.1319 5.15425 20
472 2 5.37129 -4.72524 -3.41543 11
473 2 -4.2719 -4.11819 11.3898 14
474 2 -7.80907 -4.5907 3.70766 21
475 2 7.27472 4.41527 -0.345371 17
476 2 -2.24229 -5.16664 3.7149 20
477 2 6.7749 -4.09962 -0.684006 14
478 2 -8.72414 -8.03868 -9.1909 11
479 2 -10.7287 -4.40029 1.79867 20
480 2 -6.6963 -7.35344 1.48709 21
481 2 -5.21455 -9.21086 -3.98878 16
482 2 -6.91917 9.21727 -1.22317 24
483 2 -1.95371 4.77066 -8.35668 19
484 2 1.41023 9.2887 -2.83372 23
485 2 -3.68953 9.79819 -9.45998 18
486 2 -12.6124 3.98134 8.5255 20
487 2 -13.9323 6.88128 0.269153 16
488 2 -9.88238 9.75462 6.98314 22
489 2 -11.25 11.6519 1.374 19
490 2 4.15528 4.24825 -5.2341 18
491 2 4.79834 -6.68386 -1.46191 11
492 2 4.52521 4.08669 1.69404 18
493 2 -6.22278 12.5231 4.47172 23
494 2 -8.30738 11.8089 0.144869 23
495 2 11.4726 8.75561 -1.58812 6
496 2 -5.16017 12.8381 1.8108 19
497 2 -1.77239 14.1944 -8.88507 13
498 2 -6.80583 10.9101 7.92663 16
499 2 -1.70275 0.924018 10.1726 19
500 2 -0.076038 1.73098 -14.3015 11
501 2 -9.77119 4.01779 9.95511 22
502 2 5.60861 11.1557 -6.23996 13
503 2 -11.8899 -1.01274 9.40035 15
504 2 -4.64031 -6.01203 -3.27031 20
505 2 0.205827 -3.07375 -4.86083 21
506 2 -2.586 -8.06823 4.05848 13
507 2 5.19218 7.39924 -10.1766 11
508 2 -5.01497 6.9967 -10.8978 16
509 2 -7.75426 14.299 1.64194 17
510 2 -10.8554 -4.49922 -1.38105 19
511 2 -1.74866 11.3159 -11.2525 13
512 2 -4.5513 14.0147 -2.96467 17
513 2 -5.30091 8.0991 11.5261 13
514 2 -3.08588 -4.10687 -6.13709 18
515 2 3.82398 6.53169 6.74731 18
516 2 6.94512 2.46467 1.99529 16
517 2 3.71973 7.08502 3.05599 18
518 2 -7.6484 6.39567 -9.75407 13
519 2 3.12996 -0.798259 11.3756 12
520 2 -4.22902 -0.679414 6.90555 23
521 2 4.34712 -5.03398 7.01431 11
522 2 -6.57239 16.5586 -6.34414 12
523 2 -12.966 -5.89113 -2.44073 13
524 2 -6.6454 3.68531 -11.6204 15
525 2 -5.84854 -7.37836 -9.31868 14
526 2 3.34415 11.0813 1.85348 15
527 2 -12.1587 -5.7396 -5.61847 14
528 2 -12.5247 9.01604 5.75006 16
529 2 4.99652 -2.11821 7.94802 15
530 2 -11.6751 -8.40361 -3.27176 12
531 2 -0.556239 4.11599 -12.7673 16
532 2 -9.70043 2.1447 -11.8951 14
533 2 -4.76526 -0.401136 -10.6749 21
534 2 -9.64627 1.22275 12.724 16
535 2 -8.63485 -3.48332 -6.35353 21
536 2 -2.60883 -0.309696 -9.30836 18
537 2 4.06139 -0.325048 -7.89995 15
538 2 -9.83723 -1.77881 3.19077 21
539 2 -3.67036 2.94466 -10.29 20
540 2 -5.81663 -4.81501 -5.86279 20
541 2 -4.32493 13.5911 -10.7342 11
542 2 5.26458 12.0318 4.09626 11
543 2 7.15014 4.60541 3.49034 15
544 2 -16.7233 1.96267 1.52615 12
545 2 -7.08167 -8.26345 7.27934 12
546 2 -4.87675 7.10836 -8.05848 21
547 2 -10.1127 -7.03172 0.381293 17
548 2 -9.97491 9.23407 3.5588 21
549 2 -9.96834 -4.16601 11.6377 10
550 2 -5.91133 -6.56483 9.82862 15
551 2 -16.193 5.99726 5.38356 11
552 2 -12.8331 -8.44554 -0.451509 12
553 2 -9.74089 -1.22756 6.8704 19
554 2 3.82943 1.82971 10.0311 16
555 2 2.0347 12.3223 -6.66838 15
556 2 5.4244 14.3681 1.97548 11
557 2 7.26927 5.61905 -5.10549 14
558 2 -6.57339 15.4759 -3.40407 17
559 2 -12.6783 -0.729749 -8.91127 16
560 2 -13.1645 1.35652 -3.35242 19
561 2 -9.34932 -9.54447 -0.541493 15
562 2 -2.5238 -3.28021 6.75449 21
563 2 4.90692 -5.35834 3.92266 12
564 2 -9.33446 14.9804 -4.62712 15
565 2 4.3853 3.95725 -2.01719 20
566 2 -1.60126 3.86253 12.48 16
567 2 -2.77741 13.0156 4.74283 17
568 2 -4.7042 5.08314 10.8259 18
569 2 -14.1062 6.52963 4.04596 18
570 2 -2.1637 13.3377 -5.30385 19
571 2 -11.0713 -0.440293 -11.5437 10
572 2 -9.73244 -2.584 -9.08516 16
573 2 -12.7978 -1.47985 4.61429 22
574 2 6.15956 13.6999 -0.730225 13
575 2 6.805 6.54152 1.3074 17
576 2 3.43773 -7.10827 1.84858 13
577 2 -16.5342 1.28329 -1.5851 12
578 2 -5.03035 16.8122 -1.59942 10
579 2 -6.75097 9.57859 -4.74996 20
580 2 -1.64897 7.94374 -9.60221 19
581 2 -12.6667 13.8634 4.0564 11
582 2 -13.3524 -1.85204 1.9479 21
583 2 1.89203 -7.71183 -1.17892 13
584 2 1.18271 -4.28929 -1.18036 19
585 2 -13.6747 11.5846 -2.1678 13
586 2 -12.4961 10.1061 -4.44565 18
587 2 0.996131 -4.59463 2.05122 18
588 2 1.07886 9.08803 10.8583 12
589 2 -3.41575 5.23015 -12.8902 13
590 2 -4.09913 12.598 -8.08099 21
591 2 0.0240857 9.41234 -12.2093 13
592 2 -5.38951 11.8212 -0.749658 20
593 2 -12.2101 3.08628 11.877 10
594 2 -6.99237 -0.732302 8.95724 14
595 2 -15.4404 -2.32156 -0.94066 15
596 2 0.735288 11.1813 -9.46359 14
597 2 3.31191 1.1995 -3.55156 17
598 2 -1.45367 3.75781 9.41061 21
599 2 2.98195 8.86019 -11.6214 12
600 2 3.82703 7.12597 -0.0951451 19
601 2 1.65713 9.77676 0.00312835 22
602 2 -12.8191 -1.37956 -1.67586 22
603 2 -8.28181 15.9945 -0.917457 13
604 2 -7.4298 8.74671 9.75268 17
605 2 -3.62519 -8.44491 -1.28108 18
606 2 -9.74915 -6.70607 3.12373 17
607 2 4.94813 4.58539 9.0089 14
608 2 6.79718 12.8009 -3.89383 10
609 2 -2.23036 13.4598 0.231539 19
610 2 2.29336 -6.54661 6.616 10
611 2 2.95961 -4.74235 -4.31775 14
612 2 -2.84247 8.59631 -12.536 14
613 2 -4.09932 9.8478 8.98329 15
614 2 -2.51111 6.9108 7.21262 20
615 2 4.63562 -0.341977 5.16432 21
616 2 -6.46804 0.991828 -12.7111 15
617 2 7.77044 0.734708 -8.47456 14
618 2 -10.8281 11.6991 -2.0668 21
619 2 -0.58494 1.91623 -11.2445 19
620 2 -2.45724 9.36573 11.7035 10
621 2 -12.4853 1.98582 -10.5071 16
622 2 6.78669 -1.98978 -7.11506 13
623 2 2.7808 13.9977 2.93561 13
624 2 7.72235 10.9407 -0.154415 12
625 2 8.57742 8.92799 2.25534 14
626 2 -10.5576 1.73038 -4.83346 22
627 2 -16.3142 11.9697 -0.699027 9
628 2 -10.7426 7.0678 -4.57609 20
629 2 6.49799 7.17924 -1.52271 23
630 2 -16.4255 8.88002 2.94453 12
631 2 -6.07571 -5.34311 6.4482 16
632 2 0.933304 1.01707 8.80287 22
633 2 -3.46642 -7.60907 -6.13523 18
634 2 -4.00209 -1.63082 -6.81573 20
635 2 1.15261 15.5431 -1.46795 15
636 2 3.60336 15.6632 -0.253321 13
637 2 -7.06978 -0.81848 -8.00326 21
638 2 -10.7478 -5.72588 -8.56078 13
639 2 9.53346 7.40344 -0.0234464 14
640 2 -9.28471 9.55831 -2.91626 23
641 2 -1.02989 -6.24684 6.73991 17
642 2 4.55228 -0.274169 1.82507 18
643 2 -10.872 -5.48055 7.89553 14
644 2 -9.56761 -1.41492 -3.05665 22
645 2 -1.03749 9.41308 8.55961 19
646 2 0.751879 12.9659 -3.80809 21
647 2 -9.09393 12.0397 3.56232 20
648 2 -8.13632 -1.4752 12.941 13
649 2 -2.4335 11.8831 -2.83319 20
650 2 -3.85741 -6.4777 0.815914 21
651 2 -3.30971 -1.78816 10.0203 19
652 2 1.59855 3.7833 10.2422 18
653 2 -16.4786 6.24026 1.87979 14
654 2 -5.184 7.00451 8.32136 20
655 2 -6.85843 -7.7519 -6.65871 17
656 2 7.09872 -1.72175 -3.1822 14
657 2 4.17246 -3.76621 -7.14602 15
658 2 -8.07771 12.5828 -2.90796 23
659 2 -9.99683 4.00149 13.7879 11
660 2 -16.6081 6.23473 -2.00573 11
661 2 7.1798 0.547155 -5.21241 13
662 2 2.99393 12.501 -1.24036 21
663 2 -8.20107 6.92886 6.99821 21
664 2 -1.30674 11.3001 -7.57708 21
665 2 -16.9879 1.27338 -5.16268 9
666 2 -4.77136 1.35038 -8.15319 20
667 2 -3.67084 10.049 -6.20006 21
668 2 -12.755 2.31118 -6.98869 21
669 2 0.105649 -1.42828 -10.4652 17
670 2 -8.07354 -4.45346 -3.00201 20
671 2 -5.08234 -2.02359 13.4243 13
672 2 3.82574 1.09901 6.96665 21
673 2 3.23678 -2.05501 -12.033 10
674 2 -4.19474 -7.73496 6.53589 10
675 2 7.84722 12.4628 2.44228 13
676 2 -6.98253 14.8555 6.7038 10
677 2 -13.652 -4.30304 0.228296 18
678 2 3.62115 7.16634 -3.12751 19
679 2 -0.564942 -2.44494 3.01097 18
680 2 -13.8457 11.1283 3.69711 12
681 2 1.34591 4.32372 -9.86192 19
682 2 0.972928 6.61176 5.65267 19
683 2 -15.9634 3.14932 3.79975 17
684 2 -3.59081 15.8488 -5.40022 12
685 2 1.93469 6.3087 -11.6885 14
686 2 -10.181 3.98345 6.91967 21
687 2 -7.61651 1.53213 10.9674 16
688 2 7.04762 -0.83592 6.82257 15
689 2 3.8502 10.1214 -8.79737 15
690 2 -9.98118 -0.965391 -6.30632 22
691 2 7.81045 0.993944 -11.3997 8
692 2 -1.10732 -5.10174 -11.3911 13
693 2 -13.7139 6.45961 6.99039 17
694 2 -10.6114 1.21739 5.31204 21
695 2 -0.338929 -9.5895 -1.05994 12
696 2 -4.37391 -3.82674 -8.4069 21
697 2 -1.87308 -7.86617 -3.38469 17
698 2 7.13835 3.61756 -3.8009 15
699 2 -7.39817 12.7315 -9.52159 12
700 2 1.23026 11.4153 5.99611 14
701 2 -8.29915 -8.44701 -3.24773 14
702 2 1.80485 3.7495 7.4867 23
703 2 -4.36076 13.0962 7.51451 14
704 2 -10.8476 9.52597 -7.01162 14
705 2 -2.42095 -7.76504 -9.68544 11
706 2 -9.13732 -9.33682 4.83852 15
707 2 -15.5665 11.553 1.59757 11
708 2 5.18112 14.1575 -6.00685 10
709 2 -7.39685 15.2568 -9.44732 10
710 2 1.56332 9.42185 -6.46753 18
711 2 -7.57002 -4.81027 -9.1901 16
712 2 -4.07491 -5.56351 -10.825 15
713 2 -15.4547 -0.659466 -3.7091 13
714 2 0.830998 9.59825 3.80248 21
715 2 -10.3961 4.20448 -9.74013 13
716 2 -12.07 -7.24362 5.13283 13
717 2 7.32335 1.85915 5.49551 16
718 2 0.426805 6.23481 8.51781 24
719 2 7.38771 6.38406 -8.32062 11
720 2 -5.62559 12.3605 -4.65232 21
721 2 -4.57194 16.4221 -8.3848 10
722 2 6.97722 -0.255409 3.47824 17
723 2 2.67972 15.7391 -4.26683 11
724 2 -2.98627 7.02662 13.5058 13
725 2 -6.40381 -2.59707 -10.5865 14
726 2 3.55357 6.32635 10.7643 11
727 2 -9.73248 14.6113 4.91137 13
728 2 0.155471 -7.13012 1.06245 16
729 2 1.87868 -1.56007 -6.57954 21
730 2 -4.80605 16.4482 1.4607 12
731 2 3.07454 -3.677 9.32741 13
732 2 -7.54946 13.8486 -6.73579 20
733 2 -4.6535 15.3926 4.59312 14
734 2 -15.6973 9.49472 -2.56755 10
735 2 0.268157 14.8269 -5.95162 12
736 2 -12.501 -3.13227 -6.84457 18
737 2 -3.26175 2.04996 -13.0523 15
738 2 -11.1128 6.52804 5.09989 23
739 2 6.97293 -1.32617 0.299554 15
740 2 -11.2893 13.0844 -4.83384 14
741 2 -13.311 1.30839 10.0436 13
742 2 -8.57428 -6.52387 -5.26507 16
743 2 2.03137 9.07416 7.63234 15
744 2 -2.77598 -2.62093 -11.6617 19
745 2 -7.84496 9.04164 -9.16201 15
746 2 3.66323 6.93122 -7.17459 18
747 2 -7.16137 1.7154 -9.85917 20
748 2 -13.1065 13.3939 0.321721 13
749 2 -12.3469 9.23689 9.005 10
750 2 -0.825397 16.4697 -3.68618 12
751 2 -7.9467 -10.3947 2.4955 13
752 2 8.5105 3.62121 -9.96279 9
753 2 -0.539667 2.31037 -8.66618 17
754 2 -9.87375 -8.13053 7.63364 11
755 2 -12.3126 8.73643 -2.04265 18
756 2 -12.2909 -4.18981 9.86396 12
757 2 -7.69469 6.72946 -6.2052 22
758 2 -2.64808 -5.1141 9.28405 14
759 2 5.19204 8.4406 8.71021 12
760 2 1.72464 -1.66935 7.23164 21
761 2 -9.55201 1.5101 8.92844 20
762 2 3.1334 10.8131 -4.62128 16
763 2 -0.981096 12.3766 7.23703 14
764 2 -10.7476 -9.61243 2.73883 14
765 2 -12.4514 -3.40451 7.15623 16
766 2 -12.9352 3.56904 5.27511 21
767 2 -6.52257 10.6777 -7.41252 19
768 2 -15.0494 -1.63646 -7.00265 11
769 2 -10.5581 14.2345 -1.18112 18
770 2 -0.976485 -1.41997 8.27201 23
771 2 5.72293 10.935 8.00191 6
772 2 -6.28078 -9.74783 -0.571908 14
773 2 -16.3715 -3.23182 2.16459 10
774 2 -15.7868 4.11803 0.0609245 15
775 2 -6.91538 4.17925 8.46558 22
776 2 -4.14838 3.76474 13.7796 11
777 2 -4.76754 -3.36159 5.12619 19
778 2 4.56839 3.93785 5.46976 19
779 2 -0.529568 -6.07456 -5.00078 20
780 2 -7.20964 9.42218 1.87036 24
781 2 -9.87505 4.47464 -6.53452 21
782 2 -7.83203 1.5311 6.94999 19
783 2 -5.38066 -3.57164 8.63996 20
784 2 -11.5038 -1.25284 11.9269 12
785 2 -3.33481 0.852973 12.5051 13
786 2 0.67501 6.7161 -8.22632 15
787 2 8.27592 7.45018 4.74853 9
788 2 4.78316 0.0134247 -12.5209 12
789 2 5.45588 -0.498572 10.0286 11
790 2 8.86206 6.92973 -3.08805 13
791 2 4.52056 -1.74512 -4.65586 21
792 2 0.3235 14.2157 5.03549 12
793 2 6.04621 -3.38528 1.89263 17
794 2 -7.1564 -4.75333 12.3746 10
795 2 -6.24848 0.935272 14.1785 12
796 2 -8.33103 -3.4702 7.51065 15
797 2 -1.09805 -6.30322 -1.33299 22
798 2 0.316248 -3.26988 5.38573 20
799 2 5.86552 -6.24406 1.06594 12
800 2 -2.0057 -1.65888 12.1234 14
801 2 -11.822 11.8199 6.40845 15
802 2 1.63439 3.4814 -3.3259 21
803 2 2.2487 -0.207802 -14.3075 11
804 2 -1.32304 -5.86645 -8.10783 21
805 2 -0.138002 7.01046 -13.2667 12
806 2 -13.0332 4.43776 -8.28947 15
807 2 4.1994 9.47552 5.28486 16
808 2 -12.6536 -0.903883 -5.23932 21
809 2 10.2495 10.4798 0.4105 10
810 2 -13.8892 0.718492 0.408911 21
811 2 1.81198 -1.05265 3.79574 18
812 2 5.03461 15.3633 -2.89806 10
813 2 7.09906 3.13664 -7.43047 14
814 2 6.53688 9.12982 -8.35972 12
815 2 0.878764 -4.64341 8.43509 17
816 2 -13.1529 -4.90704 3.51938 17
817 2 6.85928 1.91044 8.43636 14
818 2 3.6407 -3.29721 0.506525 17
819 2 4.32915 9.96281 -2.18151 19
820 2 -15.6252 4.04505 7.18224 12
821 2 -17.4291 8.91394 0.12833 11
822 2 6.72984 1.76539 -1.6509 15
823 2 -1.97024 -8.81907 1.48932 15
824 2 -14.0829 -3.62401 -3.63447 15
825 2 0.608825 12.2017 -0.70948 20
826 2 0.755009 -9.05957 -3.91825 10
827 2 -1.12227 8.98872 2.02598 19
828 2 -10.6937 -3.46098 4.80432 19
829 2 -5.13438 1.97996 8.00917 17
830 2 -8.40922 12.5922 6.70355 18
831 2 -4.09032 -1.31066 -13.545 11
832 2 -12.8729 7.21155 -6.5874 13
833 2 -14.9898 -0.99639 7.27772 11
834 2 0.245255 0.556101 11.7683 16
835 2 -14.9607 1.33274 -8.61109 12
836 2 7.36113 4.34153 6.75748 12
837 2 2.83897 2.23579 -7.27502 16
838 2 -10.4277 6.72231 -8.13033 17
839 2 6.74342 9.74499 -3.21291 13
840 2 -6.8057 -6.85152 -1.51791 21
841 2 -2.06815 16.239 -0.527971 14
842 2 -2.42295 15.2484 2.83557 17
843 2 4.82096 -0.936799 -1.67707 18
844 2 0.316978 -8.48212 -6.70297 9
845 1 -9.79161 1.38828 -3.1662 21
846 1 -10.8472 -0.852049 -1.44073 23
847 1 -3.71261 -3.81151 -2.65683 22
848 1 -4.39934 1.88309 -6.37427 21
849 1 -6.85833 2.20735 -4.57253 22
850 1 -4.748 -0.528897 -4.42114 18
851 1 -7.6838 -0.980233 -3.14668 23
852 1 -4.0705 2.06956 -2.90543 23
853 1 -6.93468 1.66726 -1.19008 22
854 1 -5.12465 -1.01728 -1.35679 21
855 2 -10.4313 1.13804 -1.30913 20
856 2 -5.02517 -4.02363 -1.12932 18
857 2 -7.71679 1.87435 -6.30797 22
858 2 -1.19913 -2.79431 -8.01578 20
859 2 -6.5482 -2.00769 -4.73673 19
860 2 -5.05287 1.34065 -4.69999 21
861 2 -7.54498 1.2063 -2.95471 21
862 2 -4.00452 -1.52364 -3.11146 22
863 2 -7.17398 -1.74228 -1.33961 22
864 2 -4.99705 0.990715 -1.37646 21
865 1 -9.65225 1.68979 0.278991 23
866 1 -9.97018 0.962665 3.43902 21
867 1 -3.87756 -4.38207 0.646412 18
868 1 -3.52674 -3.8793 3.65426 19
869 1 -8.12685 -1.14167 0.303769 21
870 1 -4.14624 0.895106 0.399433 20