ITEM: TIMESTEP
66000
ITEM: NUMBER OF ATOMS
500
ITEM: BOX BOUNDS pp pp pp
-30.0 30.0
-30.0 30.0
-30.0 30.0
ITEM: ATOMS id type x y z Coordination
1 1 15.0444 7.1148 -1.86971 11
2 1 13.1302 13.0838 -3.33443 19
3 1 17.6578 6.58349 -4.17161 14
4 1 2.98949 7.89347 -7.52455 21
5 1 6.5281 8.51383 -20.2255 11
6 1 6.2081 7.01315 -2.86005 13
7 1 0.768799 5.2615 -9.08268 17
8 1 14.7819 9.25835 -18.4185 15
9 1 14.7924 0.0621865 -12.6582 18
10 1 18.9323 11.544 -5.17152 14
11 1 11.5817 14.7272 -19.2749 9
12 1 12.6323 14.5924 -6.14539 22
13 1 1.6647 -2.5518 -11.9455 10
14 1 -0.0884758 0.393451 -10.9707 10
15 1 19.3934 3.79956 -12.2618 10
16 1 16.2974 9.06307 -5.58884 21
17 1 2.46843 1.5514 -8.70968 15
18 1 5.34449 2.68378 -18.8075 15
19 1 11.1239 3.37014 -15.7625 19
20 1 15.8311 1.08069 -9.35969 18
21 1 4.69483 16.0005 -7.51816 14
22 1 9.58355 15.3101 -10.804 19
23 1 8.58105 4.48505 -15.9814 21
24 1 11.1006 10.1549 -2.78003 15
25 1 16.3052 0.703274 -4.22452 12
26 1 6.17874 13.1863 -7.19142 17
27 1 15.6545 12.4403 -18.3105 11
28 1 17.3149 14.8072 -13.1944 16
29 1 10.0475 15.4791 -16.5315 17
30 1 4.17119 13.173 -15.1817 12
31 1 7.7654 17.6535 -11.9301 15
32 1 12.7424 16.895 -16.2644 13
33 1 2.91313 9.65464 -10.0918 22
34 1 12.0367 16.6151 -3.16614 11
35 1 4.85296 8.55294 -18.1257 17
36 1 -0.735812 4.34948 -6.79926 8
37 1 13.2013 -2.09295 -14.8787 12
38 1 4.70273 12.1737 -4.39714 16
39 1 2.27265 7.8815 -12.7542 17
40 1 11.4141 -2.13898 -4.97289 13
41 1 16.2309 9.84875 -16.2434 19
42 1 5.44628 4.23976 -16.0026 20
43 1 12.684 11.0044 -19.6175 13
44 1 11.2749 -1.21713 -8.14383 18
45 1 10.9009 18.1692 -11.2706 12
46 1 1.48351 11.0127 -7.55929 16
47 1 12.8335 17.5588 -5.70082 13
48 1 11.9791 7.63598 -1.69286 14
49 1 10.5798 -1.10092 -14.1334 14
50 1 17.1302 6.99527 -16.7008 13
51 1 8.33881 -1.52739 -6.48224 15
52 1 10.9547 -0.511681 -2.46663 15
53 1 14.7874 4.15432 -3.28849 19
54 1 15.338 1.85547 -1.27721 11
55 1 16.0685 15.2738 -10.6407 15
56 1 5.30549 -1.41008 -4.25067 12
57 1 5.81241 -1.19099 -7.58962 16
58 1 5.99887 1.86181 -13.6855 23
59 1 5.59384 -1.17944 -1.09975 8
60 1 2.41986 3.50318 -5.70707 13
61 1 12.5789 -2.6507 -11.5327 11
62 1 1.15112 6.81178 -5.88688 12
63 1 8.15211 18.2373 -5.77693 8
64 1 1.6387 14.3199 -7.86283 13
65 1 9.65961 12.8499 -2.99446 12
66 1 3.07702 3.88478 -17.4871 14
67 1 0.588149 8.17153 -15.1355 14
68 1 2.6179 2.10709 -14.0428 18
69 1 17.696 9.48776 -2.68182 12
70 1 9.85716 1.99326 -1.89349 14
71 1 4.1104 5.85195 -20.027 10
72 1 -0.142964 5.85052 -12.622 13
73 1 4.9059 -2.31466 -10.5258 14
74 1 3.02756 15.372 -4.70831 10
75 1 5.6835 13.5432 -12.9719 21
76 1 10.4872 -1.04695 -17.1279 14
77 1 9.58707 15.1804 -5.79205 18
78 1 0.429108 4.76585 -15.9346 13
79 1 0.705219 10.6502 -13.4411 11
80 1 7.05488 -1.80257 -16.3429 11
81 1 13.9298 0.187562 -6.38871 18
82 1 2.76592 10.3921 -16.4043 13
83 1 4.64314 5.03749 -1.89733 11
84 1 1.14705 13.0495 -4.89106 9
85 1 7.61733 0.181353 -18.9069 12
86 1 7.66855 3.90545 -3.13932 18
87 1 12.884 1.87103 -2.97734 22
88 1 13.4963 0.422485 -16.191 15
89 1 17.6296 6.1263 -11.2512 20
90 1 14.3792 6.15873 -18.9193 11
91 1 17.7469 3.02957 -4.11004 13
92 1 4.23184 -1.12057 -13.9644 16
93 1 4.25219 6.39754 -5.39711 18
94 1 16.6993 12.5861 -2.92305 12
95 1 19.7352 12.0585 -12.8373 12
96 1 11.2018 12.6229 -15.8516 19
97 1 9.22683 12.8646 -18.5505 13
98 1 15.0087 16.6533 -13.6308 12
99 1 12.3612 9.70452 -16.3462 20
100 1 14.0614 -1.02618 -3.60925 13
101 1 15.3841 3.1096 -11.771 22
102 1 8.17721 -1.50637 -3.55839 11
103 1 1.9223 6.9009 -17.8634 12
104 1 19.0708 6.64159 -14.2722 12
105 1 6.38602 16.1228 -14.6628 10
106 1 10.483 1.69359 -17.9801 16
107 1 4.95497 2.31141 -3.5832 16
108 1 8.17151 -1.40224 -9.75152 16
109 1 11.0119 4.65218 -18.5873 17
110 1 12.9402 15.1899 -10.6573 21
111 1 13.7304 -0.968689 -9.74683 15
112 1 5.00247 0.946063 -16.081 15
113 1 10.3622 5.43462 0.411019 11
114 1 6.81719 5.57328 0.756807 8
115 1 13.8804 2.94272 -18.0053 11
116 1 0.583682 8.41525 -9.22687 13
117 1 16.6013 11.0251 -13.146 24
118 1 16.0922 7.592 -13.5781 25
119 1 9.6035 9.82516 -20.1188 12
120 1 0.267259 11.8419 -9.94603 12
121 1 11.1334 4.27373 -3.49709 20
122 1 4.11817 6.97915 -15.703 22
123 1 18.2323 1.60058 -7.1296 13
124 1 14.6311 11.6887 -5.67187 20
125 1 11.2601 2.05023 0.318942 12
126 1 21.0162 10.259 -9.79367 9
127 1 18.7966 8.64075 -6.10235 14
128 1 8.19071 0.652293 -15.9143 17
129 1 19.4538 13.0468 -8.11441 12
130 1 7.38615 13.4962 -15.7567 18
131 1 7.81309 10.1557 -2.15169 11
132 1 2.43736 -1.48178 -8.56384 12
133 1 16.0929 13.2267 -8.4268 17
134 1 8.08494 16.3606 -8.29724 20
135 1 4.26855 12.5241 -10.1329 20
136 1 14.4184 13.6403 -14.2537 19
137 1 14.5499 10.2741 -2.37719 15
138 1 9.11257 6.7238 -20.1302 12
139 1 9.43836 7.22452 -2.50657 18
140 1 15.4019 2.06506 -15.1598 14
141 1 13.7376 18.2425 -9.38498 11
142 1 15.7255 2.72663 -6.77431 23
143 1 11.4576 16.0894 -8.36229 22
144 1 12.4195 1.77424 -13.6402 21
145 1 13.2028 4.73664 -0.403946 13
146 1 11.7373 7.89981 -18.8393 18
147 1 6.35851 15.2369 -4.90349 14
148 1 19.2614 6.87872 -8.95025 14
149 1 9.55845 16.5958 -13.931 16
150 1 19.2609 9.62452 -14.8833 15
151 1 5.32875 2.36182 -0.265058 10
152 1 8.21491 3.16731 1.4171 11
153 1 6.23194 15.5846 -10.5425 18
154 1 14.6593 16.0387 -7.69703 15
155 1 4.01524 0.455779 -5.99067 16
156 1 17.2806 4.16026 -9.39195 20
157 1 4.52801 0.606923 -11.3639 20
158 1 17.7395 10.4003 -8.28645 23
159 1 17.6736 0.621341 -12.5664 14
160 1 15.0155 15.7037 -3.96488 14
161 1 0.261386 2.75842 -13.0695 13
162 1 5.01466 18.2773 -11.4766 8
163 1 13.1781 13.6329 -17.4789 17
164 1 5.75126 10.2618 -15.4895 21
165 1 8.20815 3.0997 -19.8725 11
166 1 6.96264 -0.745571 -13.2064 18
167 1 10.9201 0.838801 -5.61147 22
168 1 18.9832 1.45711 -10.3739 10
169 1 -1.14177 3.70197 -10.5231 11
170 1 7.17265 11.0884 -18.5081 11
171 1 2.75806 3.50855 -10.8371 18
172 1 18.4868 5.22491 -6.61575 14
173 1 6.84685 6.00539 -18.4883 17
174 1 8.01548 19.235 -9.34007 9
175 1 2.81735 9.78158 -5.40222 13
176 1 17.5701 12.0947 -11.0274 20
177 1 18.9059 8.94426 -11.5906 19
178 1 7.91111 0.493211 -0.513297 13
179 1 13.8853 7.11954 -16.1343 22
180 1 11.9735 14.6226 -13.9851 21
181 1 17.4329 14.4874 -5.80871 12
182 1 15.8609 15.2888 -16.3674 14
183 1 17.7093 12.8143 -15.476 14
184 1 17.1228 4.80112 -13.9328 15
185 1 10.9731 19.5984 -4.46601 6
186 1 3.24538 15.418 -10.0798 13
187 1 7.51013 1.10594 -5.68504 22
188 1 15.685 -2.64577 -12.7548 9
189 1 0.761563 -0.72652 -13.8437 10
190 1 2.16508 13.6967 -12.5613 11
191 2 0.928821 4.79288 -5.89574 12
192 2 20.5425 11.5281 -8.42344 10
193 2 5.53646 8.34354 -15.9707 19
194 2 2.11789 7.80509 -10.6304 18
195 2 9.06661 -0.0495617 -1.99243 14
196 2 12.927 9.34191 -2.2924 15
197 2 17.5578 6.02424 -9.33595 19
198 2 4.74156 15.8658 -5.29638 11
199 2 15.899 1.17021 -11.3755 20
200 2 5.24617 7.07625 -19.2607 16
201 2 10.0747 3.17002 -19.1925 16
202 2 9.26009 19.0719 -4.53391 7
203 2 17.7702 3.53418 -7.34663 16
204 2 16.2361 15.8748 -12.4523 12
205 2 11.3737 15.7862 -5.22189 19
206 2 14.4917 16.3162 -9.7588 17
207 2 15.0481 14.0689 -17.5728 14
208 2 13.3986 4.65896 -18.3904 14
209 2 0.454019 7.40037 -13.543 13
210 2 11.5333 3.92658 0.207021 12
211 2 1.08058 7.04396 -7.90546 17
212 2 11.9707 2.23352 -17.1613 18
213 2 6.46654 -1.75735 -5.70541 13
214 2 13.3769 15.1394 -2.95031 12
215 2 12.8578 3.67566 -3.65874 20
216 2 5.76143 1.09495 -6.73483 20
217 2 11.9982 -0.881435 -6.26902 19
218 2 2.97569 -2.26034 -10.5358 12
219 2 6.15847 -1.89048 -9.19582 16
220 2 5.36963 -1.17046 -12.1308 17
221 2 6.57 19.1259 -10.5401 10
222 2 12.2224 7.80978 -16.5846 20
223 2 18.4269 13.4531 -12.687 13
224 2 12.8188 13.643 -15.5195 19
225 2 2.20676 9.90982 -12.5954 18
226 2 19.7576 8.30657 -9.96725 15
227 2 9.51584 17.9113 -12.3354 13
228 2 1.55355 14.6298 -5.9769 10
229 2 11.2663 16.3179 -15.0699 15
230 2 14.5622 16.5296 -15.4377 14
231 2 8.06803 16.3472 -5.26135 12
232 2 10.3255 6.67365 -0.964298 12
233 2 8.32446 5.02858 -19.4676 15
234 2 10.7596 0.859138 -13.9523 21
235 2 9.39439 2.49862 -15.9317 20
236 2 2.1504 3.63163 -8.98557 19
237 2 18.7866 2.08971 -12.4579 13
238 2 17.7441 12.1853 -8.78872 18
239 2 11.3244 9.63407 -19.6694 14
240 2 10.8612 6.31639 -19.5704 14
241 2 4.32096 0.999337 -14.2528 19
242 2 10.4739 5.12657 -16.4747 20
243 2 15.3169 6.84829 -17.4655 13
244 2 3.91538 4.59704 -5.97362 18
245 2 6.96823 1.7765 -19.6536 10
246 2 6.75869 0.286098 -17.155 15
247 2 10.9435 10.7947 -16.1311 20
248 2 6.15 13.2491 -5.24571 19
249 2 4.04075 1.15763 -9.50528 22
250 2 3.05639 13.7637 -10.9769 16
251 2 4.58794 0.29915 -4.18868 15
252 2 -0.691229 2.13259 -11.637 13
253 2 14.9512 -0.365424 -5.03353 14
254 2 17.269 10.2138 -11.4016 20
255 2 8.35096 8.4271 -20.3541 12
256 2 12.7541 14.8636 -8.11193 22
257 2 12.2262 18.2832 -4.05982 9
258 2 6.00247 0.528244 -0.52056 11
259 2 1.04921 12.6182 -8.3407 15
260 2 3.81768 5.27878 -16.2669 22
261 2 20.0271 10.9895 -11.2262 15
262 2 1.16923 -0.320423 -9.59506 11
263 2 5.77665 14.4324 -14.8787 13
264 2 13.7161 7.79688 -19.3572 13
265 2 0.72748 10.166 -9.13475 12
266 2 14.1425 0.758168 -14.3372 19
267 2 9.20176 -1.37112 -8.19641 18
268 2 8.23623 18.2947 -7.79815 11
269 2 9.34096 -1.74033 -4.98197 15
270 2 12.1228 -1.89571 -9.77391 13
271 2 14.6457 9.85939 -5.86378 18
272 2 7.92663 16.5268 -10.3182 20
273 2 14.9006 0.37276 -2.45489 11
274 2 7.73445 1.64677 -8.95711 24
275 2 2.93367 7.77168 -5.74207 17
276 2 11.7057 12.6998 -18.8761 17
277 2 18.1548 8.75448 -16.1774 12
278 2 8.6243 5.12821 0.994865 8
279 2 15.9564 13.2702 -10.6642 20
280 2 16.1499 14.9094 -7.3978 17
281 2 0.0313615 -1.17689 -12.2415 8
282 2 15.0353 11.6051 -3.57218 15
283 2 15.6218 6.06879 -3.34514 15
284 2 14.4592 11.1055 -18.8371 12
285 2 7.9332 5.95991 -3.44153 19
286 2 17.1135 1.70238 -5.68251 14
287 2 0.238952 4.60818 -14.0316 14
288 2 4.1821 11.3641 -15.5133 15
289 2 3.8273 12.8447 -13.2031 16
290 2 9.36658 1.99112 -0.0124288 13
291 2 12.1124 18.7141 -10.0352 8
292 2 4.8354 2.65726 -17.0075 15
293 2 17.3697 6.28016 -14.9787 17
294 2 4.54902 16.594 -10.8095 13
295 2 18.9432 3.44244 -10.3628 16
296 2 9.44466 3.39091 -3.25629 20
297 2 2.55477 -1.90239 -13.5685 11
298 2 12.3546 15.4426 -17.5835 14
299 2 2.992 15.4237 -8.1922 12
300 2 11.6244 1.16127 -1.51615 17
301 2 2.86397 9.82296 -7.94257 20
302 2 6.0798 17.0023 -12.8884 13
303 2 9.55702 9.21314 -2.53212 15
304 2 -0.20853 5.41111 -10.8298 14
305 2 9.85421 15.0956 -12.6281 20
306 2 11.3908 12.1845 -2.71023 13
307 2 6.21215 6.06984 -1.01337 12
308 2 6.99271 5.55439 -16.6226 21
309 2 8.62745 11.3101 -19.5363 11
310 2 7.71908 -0.419754 -11.3025 16
311 2 15.8679 7.09635 -6.37061 20
312 2 19.1819 8.40147 -13.3737 16
313 2 14.1627 0.337722 -8.62413 18
314 2 15.8363 9.44946 -14.2751 20
315 2 13.1124 13.0026 -5.25674 18
316 2 4.82913 12.5839 -8.33083 24
317 2 1.71922 3.24661 -16.2336 14
318 2 11.8163 -2.33563 -13.3961 13
319 2 6.31311 15.4675 -8.05419 19
320 2 1.55738 11.248 -5.54584 13
321 2 2.69795 1.88703 -6.74185 17
322 2 5.81365 -1.39172 -14.9897 12
323 2 13.5355 6.52557 -0.895784 12
324 2 7.27775 11.5484 -16.6806 17
325 2 18.4475 11.3033 -14.217 17
326 2 9.23828 0.338852 -17.8366 13
327 2 17.861 10.2369 -6.30805 17
328 2 17.9332 11.2289 -3.43848 12
329 2 9.71243 14.7194 -18.4041 11
330 2 0.782889 6.62981 -16.3658 13
331 2 5.21505 4.1715 -19.7837 13
332 2 13.1658 17.7511 -7.58351 12
333 2 8.37252 15.983 -15.2845 14
334 2 0.852641 12.3127 -12.2461 11
335 2 3.19765 13.4281 -4.06271 10
336 2 9.53144 13.7067 -15.5513 20
337 2 14.8868 1.85308 -16.8434 9
338 2 1.27524 10.0789 -15.2482 11
339 2 5.85003 9.86548 -18.9069 11
340 2 14.4236 3.56557 -1.51889 14
341 2 11.8252 0.552072 -4.02874 20
342 2 7.52488 1.07677 -14.0856 21
343 2 4.42687 10.5575 -5.66981 19
344 2 18.3205 4.72724 -4.71167 13
345 2 -0.896534 4.10571 -8.63515 8
346 2 4.93146 3.20145 -1.91156 10
347 2 12.2812 -1.89399 -3.20573 12
348 2 19.1501 7.12164 -7.08341 15
349 2 12.344 -0.959955 -16.336 14
350 2 9.80906 15.0399 -7.73603 19
351 2 2.80838 5.48493 -18.5968 15
352 2 6.62567 2.43826 -4.53541 14
353 2 16.2501 2.21378 -3.16937 15
354 2 14.8854 11.962 -13.3964 23
355 2 16.5088 14.3052 -4.08641 13
356 2 18.0801 8.51352 -4.22842 12
357 2 15.5364 3.54953 -13.7822 17
358 2 17.8698 0.962682 -8.89296 13
359 2 15.5381 2.89585 -8.86685 19
360 2 8.22613 11.6835 -3.05815 14
361 2 16.8277 11.6672 -16.9362 14
362 2 1.09443 1.12671 -13.7536 12
363 2 2.64608 3.29654 -12.6821 17
364 2 14.1971 -1.51994 -11.7133 15
365 2 16.4549 13.981 -14.7061 15
366 2 19.6512 5.18115 -13.3887 9
367 2 13.4933 15.1365 -13.0111 21
368 2 12.3413 1.809 -6.51723 20
369 2 16.566 4.54783 -11.4086 20
370 2 14.9223 -3.02536 -14.4922 9
371 2 8.95768 -1.34655 -15.6231 15
372 2 11.3276 16.3108 -10.5306 20
373 2 14.2417 16.1313 -5.66073 16
374 2 6.39865 -1.56171 -2.62865 9
375 2 6.50216 3.5146 0.571425 11
376 2 18.8619 13.2958 -6.14659 12
377 2 14.3076 9.71368 -16.44 21
378 2 2.8555 8.46888 -17.2357 15
379 2 3.83372 -1.33541 -7.29955 15
380 2 16.7343 -0.983083 -12.7141 8
381 1 3.68705 5.08725 -13.6608 19
382 1 7.11279 7.30396 -15.701 21
383 1 9.12309 1.97237 -13.6832 23
384 1 7.41957 5.05874 -13.1567 23
385 2 5.86281 1.97444 -11.7225 23
386 2 4.22755 5.05544 -10.6595 19
387 2 3.95526 6.91824 -13.7975 20
388 2 5.62248 4.24845 -13.8603 22
389 2 9.44784 2.06964 -11.1229 19
390 2 7.52354 4.88007 -11.1827 21
391 2 7.37503 6.74737 -13.7833 23
392 2 9.04542 4.2611 -13.7144 22
393 1 3.88698 6.75402 -10.3546 22
394 1 5.76643 4.01015 -11.394 22
395 1 5.88635 1.77184 -8.73285 20
396 1 3.88465 4.65214 -8.30835 22
397 1 5.68549 3.52301 -6.2059 21
398 1 7.58488 1.65018 -10.9898 20
399 1 7.46747 6.91508 -10.6334 22
400 1 9.20136 3.83683 -10.6897 23
401 1 9.49536 1.93576 -8.13506 21
402 1 7.26899 4.66575 -8.35876 21
403 1 7.76012 6.39246 -5.31654 21
404 1 9.22105 3.8192 -6.24508 21
405 2 4.15513 6.51617 -8.23512 22
406 2 5.73477 3.54163 -8.37689 21
407 2 9.2981 1.56698 -6.14649 20
408 2 7.2034 4.76536 -6.18513 23
409 2 7.47802 6.60491 -8.63843 21
410 2 9.24806 3.93961 -8.56102 20
411 2 4.56014 5.92868 -3.48572 16
412 1 5.73517 7.86667 -13.0609 23
413 1 4.03498 10.8843 -12.7378 24
414 1 9.03065 10.2286 -15.7484 23
415 1 9.03383 7.87451 -13.3133 23
416 1 7.64428 10.7168 -12.9613 23
417 1 9.04674 13.6201 -13.7168 23
418 2 5.67742 7.94534 -11.089 23
419 2 4.55467 10.8562 -10.6956 20
420 2 6.00549 9.75059 -13.5803 23
421 2 6.20085 13.7424 -11.2143 22
422 2 8.8106 8.26996 -15.8437 20
423 2 9.13785 7.87741 -11.3207 24
424 2 7.56974 10.9043 -11.1101 21
425 2 7.50296 12.6432 -13.607 23
426 2 9.17468 9.76409 -13.6119 23
427 2 9.4554 13.3622 -10.211 23
428 1 6.21156 9.68543 -10.3988 22
429 1 5.85097 7.57236 -7.8025 23
430 1 4.78704 10.7252 -7.6156 22
431 1 6.23319 9.31978 -4.85196 20
432 1 7.54882 12.6418 -10.1815 22
433 1 9.55131 9.89005 -10.7857 19
434 1 9.10338 7.70967 -8.02906 23
435 1 7.80627 10.4906 -7.83538 22
436 1 7.90093 12.3269 -5.10882 18
437 1 9.34778 9.55514 -5.10341 23
438 1 9.65791 13.2745 -8.19244 21
439 2 6.20567 7.5923 -5.89858 23
440 2 6.10084 9.34279 -8.35426 22
441 2 9.36319 7.40801 -6.17689 23
442 2 7.71408 10.553 -5.74758 23
443 2 7.68506 12.4692 -8.04096 20
444 2 9.37787 9.61984 -8.75871 21
445 2 6.49436 8.8428 -3.02364 14
446 2 9.69647 13.2798 -5.03817 20
447 1 10.5235 6.9657 -15.9702 22
448 1 10.8101 5.01104 -13.483 23
449 1 13.977 4.76372 -13.7268 20
450 2 12.2196 1.56142 -11.5369 22
451 2 10.5995 4.79167 -11.6384 23
452 2 10.68 6.88817 -13.9912 24
453 2 12.5268 3.70039 -14.3629 24
454 2 13.8812 4.51413 -11.5967 21
455 2 14.1084 6.65054 -14.0093 20
456 1 10.8398 0.478853 -10.893 23
457 1 11.1823 6.81227 -10.8374 22
458 1 12.0255 3.49329 -11.3351 22
459 1 12.6579 1.69943 -8.47403 21
460 1 11.1423 4.7191 -8.08548 21
461 1 10.9125 6.46229 -5.31409 21
462 1 12.7358 3.42235 -5.55237 19
463 1 14.5236 6.36732 -11.2728 20
464 1 14.2425 4.16041 -9.282 20
465 1 14.418 6.08942 -5.94162 19
466 2 10.9873 0.687352 -8.79864 20
467 2 11.0436 4.55851 -5.91468 21
468 2 10.9513 6.54749 -8.87318 20
469 2 12.4938 3.4526 -8.92696 22
470 2 11.3297 6.68641 -3.56382 20
471 2 14.5651 4.18326 -6.04535 19
472 2 14.404 6.48353 -9.15907 24
473 1 12.3859 7.52374 -13.3338 23
474 1 10.9649 10.5726 -13.5971 20
475 1 14.207 10.3939 -14.1733 20
476 2 12.7813 7.29113 -11.3564 22
477 2 11.242 10.7118 -11.655 21
478 2 11.1536 12.6202 -13.5953 22
479 2 12.5939 9.29033 -14.3992 22
480 2 12.5773 13.0808 -10.527 23
481 2 16.319 7.42232 -11.6965 22
482 2 14.4391 10.5475 -11.0717 19
483 1 10.8554 12.6785 -11.5162 22
484 1 12.8656 9.71851 -10.9882 19
485 1 12.7595 7.24306 -8.34887 19
486 1 11.1262 10.1459 -7.68611 21
487 1 11.2612 12.256 -5.7214 22
488 1 12.8931 8.82776 -5.38068 21
489 1 12.9252 12.9332 -8.39495 24
490 1 14.2725 12.4134 -11.391 20
491 1 15.9049 9.07714 -10.6786 21
492 1 15.9723 7.11593 -8.5466 21
493 1 14.6164 10.0712 -8.04626 22
494 2 12.6677 7.17701 -6.32809 20
495 2 11.1168 10.2773 -4.95942 22
496 2 11.3462 12.0498 -7.75307 20
497 2 12.8781 9.6003 -8.79145 22
498 2 15.8704 8.88727 -2.12154 12
499 2 14.4808 11.9896 -7.81989 20
500 2 16.3143 9.14303 -8.66829 22
