ITEM: TIMESTEP
22000
ITEM: NUMBER OF ATOMS
1000
ITEM: BOX BOUNDS pp pp pp
-30.0 30.0
-30.0 30.0
-30.0 30.0
ITEM: ATOMS id type x y z Coordination
1 1 -2.45074 -12.6616 -7.16075 11
2 1 -0.668728 -12.3796 8.44977 14
3 1 -9.53352 5.30799 -0.641498 18
4 1 -8.70793 2.54604 -1.71245 19
5 1 -1.45929 -5.23312 13.954 16
6 1 -7.06338 -1.88816 -8.14307 13
7 1 -5.12742 -13.0602 3.64367 13
8 1 5.13542 -2.79578 7.77592 21
9 1 -1.14724 6.62196 12.4791 13
10 1 -4.81815 10.8262 -5.21899 15
11 1 0.541791 1.01273 16.3584 7
12 1 -8.9441 -2.86554 3.96274 18
13 1 -3.68977 0.0595171 -8.06977 21
14 1 -0.449168 2.11306 11.9463 20
15 1 -1.28301 -10.2393 13.1014 14
16 1 -12.669 -1.00834 4.10469 14
17 1 -9.12759 -2.3343 0.731602 22
18 1 -6.80604 9.60626 0.771142 18
19 1 0.0207255 -0.749578 -10.8502 13
20 1 3.92571 -5.10169 -7.5516 22
21 1 -6.74961 -8.1771 12.1436 13
22 1 -11.9079 1.96326 2.76842 18
23 1 -0.74131 12.4652 2.22618 15
24 1 1.74336 -10.8898 9.38071 18
25 1 3.8202 -13.8866 -7.06736 8
26 1 7.27388 -0.094694 7.91439 23
27 1 -9.59573 6.84621 -3.82952 16
28 1 0.946941 4.79256 8.72002 20
29 1 2.32768 -2.65475 13.5284 15
30 1 -9.30904 -5.35237 1.81872 21
31 1 8.30344 2.79002 9.5502 17
32 1 6.66712 -10.6832 -5.60269 12
33 1 4.51029 -0.296595 9.81936 22
34 1 -7.46948 -5.99266 4.17603 22
35 1 -1.26332 -10.0246 -8.24861 14
36 1 -10.5613 10.198 -2.79143 11
37 1 -8.44535 10.6578 -5.2128 11
38 1 10.7782 -3.46908 -5.39962 12
39 1 4.83058 -12.0117 8.86583 12
40 1 7.17073 -9.83652 10.5545 12
41 1 -4.62546 7.57588 7.46211 15
42 1 -8.586 -9.67494 9.36173 11
43 1 -10.6446 -0.612622 9.04499 19
44 1 4.31628 -9.8631 -3.24706 19
45 1 0.911653 -5.41068 -12.1028 10
46 1 -1.74387 11.2836 4.9401 16
47 1 -6.60458 5.59538 -2.45985 19
48 1 3.87381 6.14023 8.17028 21
49 1 -5.70953 -11.2656 8.95802 13
50 1 0.808716 -12.0868 -6.24537 17
51 1 5.71768 -7.48567 -10.9744 12
52 1 -0.0336993 2.15749 8.86776 22
53 1 -8.80275 -12.9009 -1.28229 13
54 1 9.49483 -7.7168 6.19976 13
55 1 -7.42817 -10.8168 -6.8844 10
56 1 6.73718 -5.4235 6.18029 19
57 1 -4.77338 4.4992 6.94145 12
58 1 1.74047 2.85001 -6.59698 24
59 1 7.33578 -8.6042 3.88193 17
60 1 -11.5056 -12.9863 3.30153 6
61 1 10.5834 6.2777 4.65116 13
62 1 8.62357 4.25388 -1.62179 17
63 1 -4.74186 11.3335 -1.76581 20
64 1 2.16642 -10.6395 -9.05291 14
65 1 -1.92697 10.7314 -3.29355 20
66 1 9.83064 -0.512636 -5.75933 14
67 1 5.28198 3.44415 -8.0128 19
68 1 4.44372 -9.831 11.5716 20
69 1 -6.24791 2.91255 -4.11665 18
70 1 4.46116 12.1987 3.79712 10
71 1 7.50906 2.04244 -0.561272 22
72 1 -4.09101 8.29474 -3.22949 22
73 1 -2.2068 -7.36063 -8.37133 16
74 1 -14.4561 -3.04433 -0.884124 11
75 1 -3.88061 10.597 6.74225 13
76 1 -3.34545 11.2674 0.898031 15
77 1 -0.941991 -2.22191 15.0658 11
78 1 -12.4395 -6.83403 3.27519 14
79 1 -2.42248 -10.5575 7.59974 17
80 1 1.47237 10.5974 -2.27612 19
81 1 4.37135 5.94878 -5.21371 18
82 1 -3.7918 -8.87782 13.1651 13
83 1 -10.0893 -0.122857 2.3122 19
84 1 -0.159143 3.69698 14.1833 12
85 1 -8.01966 2.95613 -7.97762 12
86 1 -6.53935 -8.22354 5.49409 22
87 1 -9.70209 -10.7062 2.01847 15
88 1 7.30393 -5.79847 -2.56379 21
89 1 -2.6955 7.85732 5.20032 16
90 1 -7.28703 0.358164 7.04404 22
91 1 -9.55757 -0.826016 -5.88679 14
92 1 -1.4433 -13.3651 2.91713 13
93 1 2.52419 4.79892 -8.04578 18
94 1 4.81824 -0.194286 12.8493 15
95 1 0.942149 6.22267 -6.42302 19
96 1 -1.53063 -4.47238 -9.86301 17
97 1 -9.65866 10.0956 0.150052 12
98 1 6.17014 2.1427 11.7839 12
99 1 -7.59732 12.6478 -3.5469 10
100 1 1.76444 -0.428506 -8.25568 18
101 1 -9.12075 4.93484 9.64581 14
102 1 -4.74607 5.07951 12.7702 12
103 1 -1.45176 -14.1152 -5.23885 14
104 1 2.91498 11.8142 -6.34289 10
105 1 -0.944012 8.75094 -0.470026 19
106 1 -11.3027 2.27108 6.33088 16
107 1 1.30928 4.48451 11.8418 18
108 1 12.8795 -0.750975 3.33806 12
109 1 -0.688699 6.95923 9.53486 21
110 1 -11.8184 4.90999 7.5404 12
111 1 -9.69506 -5.84087 -0.945061 22
112 1 2.44504 -2.7664 9.94432 22
113 1 0.590693 -14.5149 0.0128145 10
114 1 1.14523 2.42366 -9.59633 18
115 1 7.03072 3.69139 -3.69807 18
116 1 -12.49 -7.17381 8.26095 6
117 1 -6.13825 -4.86546 -7.08736 13
118 1 -4.96106 -3.01807 -9.5098 14
119 1 -10.1603 1.22781 -3.79559 15
120 1 8.36487 -4.01014 9.98261 12
121 1 4.23481 -5.91714 10.0681 21
122 1 0.945181 -5.614 8.62165 19
123 1 3.44226 9.62354 5.60588 19
124 1 -3.77724 -8.15813 7.37002 20
125 1 3.48966 12.1534 7.22914 10
126 1 -4.78585 -10.5475 -7.28202 13
127 1 -4.28796 -11.8872 -4.52157 21
128 1 -3.63527 -8.37327 3.90993 20
129 1 8.11053 2.5909 5.67483 22
130 1 -9.51986 -2.34363 13.6045 7
131 1 -1.65889 -10.5453 -0.173052 23
132 1 4.03169 -11.0225 -0.0909535 20
133 1 6.48839 -8.95827 -0.375351 20
134 1 -6.52142 7.43192 -5.35151 15
135 1 13.1406 4.40635 4.94387 8
136 1 -7.34964 -0.0782917 -2.82365 22
137 1 -6.25813 4.59113 -6.3952 16
138 1 -4.65862 -5.50999 8.79512 24
139 1 2.05979 9.07638 8.99083 19
140 1 10.1374 -0.290502 5.86107 17
141 1 -9.22044 -2.91718 7.21468 19
142 1 -7.85596 -5.77909 11.1271 17
143 1 -8.8242 7.32185 5.35526 13
144 1 5.28824 -10.6319 -8.79535 12
145 1 3.12206 -10.3756 3.1969 19
146 1 7.90393 4.62859 -8.14368 11
147 1 -10.6554 -5.43552 5.24078 20
148 1 6.70689 -7.71574 -8.15509 14
149 1 -4.20596 8.14026 -0.0190544 20
150 1 -6.05161 2.7874 5.068 19
151 1 1.81774 -13.1081 11.1072 8
152 1 -0.614534 10.1764 10.8112 11
153 1 -7.35811 -5.25696 -3.36484 22
154 1 -5.60511 6.59971 2.97845 17
155 1 -11.1003 2.70912 -6.22398 10
156 1 -13.2034 -0.367681 7.09204 12
157 1 -3.66289 -6.02651 -4.90722 20
158 1 -8.16358 5.06954 3.76611 19
159 1 10.0423 -4.96769 7.50758 13
160 1 4.21924 -9.0854 8.81156 23
161 1 -0.426144 -3.45147 11.8356 23
162 1 1.46338 -10.572 -1.89536 18
163 1 -2.80888 -1.62897 -11.7047 10
164 1 -11.6641 -3.56293 -0.334723 20
165 1 -4.19649 -8.49777 0.319478 19
166 1 11.7732 -0.965286 -3.15857 11
167 1 -3.06891 8.91424 -6.15213 15
168 1 -6.28281 7.05516 10.1971 9
169 1 -7.32285 9.36031 6.51542 11
170 1 -8.29483 4.10454 7.0057 19
171 1 7.61584 -2.90483 -7.09058 16
172 1 7.04967 0.249832 -4.7449 20
173 1 0.544765 -11.544 1.51277 16
174 1 0.142172 8.49997 4.20015 20
175 1 -10.1085 -0.273072 -1.03165 21
176 1 3.86909 -14.538 1.01437 9
177 1 10.6173 -1.85363 8.7416 13
178 1 -10.9992 -4.78825 -4.2949 14
179 1 0.775123 -11.4967 5.88527 18
180 1 -6.40446 11.3154 4.78723 10
181 1 -6.89167 8.6553 -2.30737 20
182 1 -4.21422 -15.3047 -4.7066 9
183 1 3.79084 -6.02052 7.19343 21
184 1 -4.53512 -13.9463 1.01411 12
185 1 -11.8036 7.45337 -1.29385 11
186 1 -2.45366 -13.1051 5.86767 14
187 1 -4.83837 -0.365297 9.0334 21
188 1 -9.71145 2.17112 9.61915 21
189 1 1.08195 -6.09896 -5.25252 22
190 1 -12.4002 -3.09892 8.32357 13
191 1 -3.72188 -3.0691 10.7185 23
192 1 -6.51391 -3.26676 9.4335 21
193 1 1.50393 -8.65649 -3.67123 17
194 1 3.40856 -13.3211 4.23498 10
195 1 4.99834 9.03495 -4.17837 17
196 1 -11.6512 -10.2301 4.79978 9
197 1 6.90867 -9.63983 7.55569 16
198 1 7.60078 -3.22295 -3.97771 22
199 1 3.9368 -1.8388 -7.42544 21
200 1 10.4257 -8.40935 2.8723 11
201 1 -6.48878 -2.90907 12.2821 19
202 1 1.72826 11.0724 3.1011 18
203 1 5.38504 -10.7547 5.61968 14
204 1 -6.15154 -14.1874 -2.50246 14
205 1 5.73907 4.87468 10.408 12
206 1 -10.0069 0.25551 12.0139 13
207 1 -5.06423 -11.4305 -0.93738 18
208 1 -7.10363 -8.26562 -8.723 8
209 1 -9.47838 7.19796 8.42797 10
210 1 -0.95634 -10.4769 3.72737 19
211 1 -7.6383 -5.07919 7.09594 21
212 1 10.4567 2.00246 7.86376 14
213 1 10.863 3.09453 4.24407 17
214 1 2.86615 4.64448 -11.2398 10
215 1 -0.507949 8.33311 -4.25213 18
216 1 -3.3032 8.36096 10.5249 13
217 1 -12.7538 -6.07138 -0.00301076 15
218 1 -2.81742 13.5098 -3.985 10
219 1 -11.8929 -7.58762 -2.72964 13
220 1 1.14366 -6.34398 -8.86349 25
221 1 12.7552 2.25737 1.8769 11
222 1 4.61949 5.14473 2.2251 20
223 1 3.71837 -5.03677 -11.0351 13
224 1 1.56384 -8.32709 3.945 21
225 1 -4.98376 3.33067 -9.56326 12
226 1 9.52419 5.49296 1.67297 18
227 1 6.82175 -6.47972 1.89533 16
228 1 1.19875 -3.50067 -9.19406 18
229 1 4.64097 -8.76456 2.16878 21
230 1 1.24782 -4.95119 15.1767 13
231 1 -6.70726 0.729841 -6.2436 20
232 1 4.15676 1.33028 -9.68894 12
233 1 -13.3231 -4.03371 2.50706 13
234 1 10.1923 -3.78127 -1.80978 17
235 1 -3.45579 5.68689 -4.90775 20
236 1 3.58614 -12.4208 -4.29279 15
237 1 -0.642853 4.85709 -10.5272 12
238 1 8.45862 -5.92477 -8.98781 11
239 1 -9.36307 -7.79312 7.19377 18
240 1 -4.16716 12.9518 3.4776 9
241 1 2.19521 5.16298 -3.64076 18
242 1 11.9073 2.02107 -1.97972 13
243 1 1.31245 -8.54127 0.375321 24
244 1 6.06406 -5.78774 -5.97339 19
245 1 13.0178 -4.14059 2.27081 11
246 1 1.47772 -8.91158 7.44942 17
247 1 -12.8353 1.98958 9.25549 10
248 1 -7.00337 -7.92618 -1.52168 23
249 1 -4.72636 -6.01328 11.9595 23
250 1 2.08205 7.4218 -10.0168 11
251 1 -7.99855 11.7845 -0.992944 13
252 1 -1.22667 12.6407 -0.704199 14
253 1 -1.92517 4.48179 10.6682 18
254 1 4.45354 -7.4278 -1.12629 22
255 1 4.96601 -2.91034 -5.19404 23
256 1 -13.5441 -4.6556 -2.95308 10
257 1 -8.74418 3.2177 1.30053 23
258 1 -10.1179 -8.23857 0.398653 19
259 1 8.40976 9.59096 -4.26153 8
260 1 1.10458 -14.21 -2.97466 13
261 1 -0.0887131 -8.34097 15.9206 9
262 1 4.35124 2.91593 -5.06412 18
263 1 -12.4217 5.25849 1.57545 13
264 1 10.0738 -6.13157 -3.29795 14
265 1 1.74853 7.47359 11.5905 15
266 1 -1.23116 0.722881 -6.5529 22
267 1 6.48789 8.20632 -6.87902 12
268 1 -4.13863 -2.9031 -5.95281 21
269 1 -9.66632 -12.3071 -4.08531 10
270 1 12.3323 -0.369342 0.527364 14
271 1 8.44519 -9.58478 -2.49553 12
272 1 3.91652 -14.2628 -1.65199 10
273 1 9.55853 8.87678 2.92499 11
274 1 -9.40253 2.56559 4.22662 18
275 1 11.8488 3.86806 -4.77506 8
276 1 -7.39729 -5.01242 13.8227 9
277 1 7.80953 -0.625459 10.8061 15
278 1 -8.76672 -9.41814 -3.93433 17
279 1 7.0815 7.7329 1.52321 18
280 1 11.9482 -6.11128 4.97604 11
281 1 5.83706 9.06767 7.52459 11
282 1 2.90636 2.07297 10.3701 22
283 1 -3.9687 5.4141 -1.9279 21
284 1 -1.05321 -10.6903 -3.50026 17
285 1 -9.15106 5.34393 -6.19639 12
286 1 -5.97143 0.4361 -10.0827 10
287 1 -13.0902 0.130266 -2.19992 12
288 1 9.53247 -11.3758 2.3061 11
289 1 -3.09251 -11.6229 10.971 12
290 1 8.96637 3.25331 -5.81837 17
291 1 12.9221 -5.45599 -1.26989 9
292 1 8.17962 7.39925 5.85086 15
293 1 11.1843 -2.94122 4.53486 15
294 1 -7.40475 4.7921 12.2101 11
295 1 -3.47851 -10.9552 2.10364 20
296 1 -8.17949 -6.52243 -6.36167 10
297 1 5.22865 -2.99018 11.3826 18
298 1 -6.51051 12.407 1.43643 11
299 1 8.05685 2.20624 2.66208 22
300 1 5.0694 2.62962 8.03752 20
301 1 -10.6143 -5.75151 8.95564 15
302 1 4.03625 -10.9505 -6.71933 19
303 1 -2.31009 -8.69508 -5.49353 16
304 1 4.46698 7.84283 11.3797 9
305 1 2.64841 4.39949 5.1431 19
306 1 -1.80958 0.54002 14.1335 14
307 1 -4.22094 -0.0068977 12.4479 17
308 1 -7.11863 2.15468 12.7839 15
309 1 -0.778118 6.13876 -2.66387 19
310 1 6.32943 9.41901 4.00289 17
311 1 3.98724 11.6961 -2.99231 12
312 1 -7.79984 -13.3394 2.11495 13
313 1 5.07183 2.33795 4.81803 22
314 1 -12.9911 4.55165 4.45899 10
315 1 3.1133 8.18601 -2.39166 19
316 1 1.11009 -0.0874472 11.7306 19
317 1 5.3013 6.73869 5.34301 20
318 1 -1.81319 -2.3058 -8.20439 22
319 1 6.91201 -12.8347 0.34671 11
320 1 7.15025 10.8144 1.58481 9
321 1 -13.4385 -3.86102 5.48167 11
322 1 0.531444 -14.4201 5.39503 8
323 1 3.47309 8.17184 -7.31783 17
324 1 2.77662 -8.06536 -11.6705 13
325 1 3.55635 -7.95226 -6.34316 21
326 1 1.03732 11.8281 5.49241 17
327 1 -1.18206 -7.24759 12.5428 20
328 1 -6.1487 -8.48844 -4.95446 23
329 1 -3.72877 2.3631 10.2299 21
330 1 7.68006 -3.4294 2.96026 19
331 1 6.02702 9.60605 -1.34639 17
332 1 5.20753 6.64446 -9.4632 10
333 1 7.07635 1.09767 -7.60168 13
334 1 -3.06177 5.63852 -7.908 11
335 1 -1.86686 -0.32927 10.3219 20
336 1 -4.22639 -8.68715 10.0749 20
337 1 3.5159 -8.06312 -9.03176 19
338 1 -9.77194 6.94662 1.89514 19
339 1 7.80258 5.11634 3.83342 20
340 1 -9.65343 -8.15968 4.17941 20
341 1 -0.232507 8.50086 -7.56552 13
342 1 -3.45703 -3.34027 13.8592 14
343 1 -11.062 -10.3413 -1.46371 12
344 1 7.66055 -3.76148 -0.251572 20
345 1 -7.39114 -7.75364 1.71914 22
346 1 12.2792 -7.02958 1.72181 11
347 1 4.75994 -7.90927 5.31777 20
348 1 -1.27734 9.39341 7.49167 20
349 1 -10.6169 3.24084 12.4014 9
350 1 6.92175 0.0337076 4.55868 20
351 1 9.36152 -6.56327 -0.0523875 20
352 1 3.09488 7.88305 3.37033 16
353 1 0.156498 12.0195 8.09709 10
354 1 1.61326 -8.34733 11.1785 22
355 1 -9.44843 -2.82028 -2.82625 21
356 1 2.5 2.45016 13.764 13
357 1 0.157682 12.4852 -4.31536 14
358 1 7.04348 -6.90755 8.52787 17
359 1 5.47522 -8.97972 14.0406 9
360 1 10.6055 5.1741 7.72703 10
361 1 0.678705 -9.18113 -6.35255 21
362 1 -1.87205 1.17742 -9.91754 15
363 1 -3.55677 2.76016 13.8844 12
364 1 9.95778 2.34313 0.643201 21
365 1 1.9525 9.75713 -5.1342 19
366 1 6.46368 -3.10515 -9.26871 9
367 1 -10.0993 -15.3575 1.28469 5
368 1 -6.90819 -2.80427 -4.90603 19
369 1 1.07183 -3.53569 -6.55991 20
370 1 -4.0833 -9.17686 -2.90602 19
371 1 1.55408 -5.30101 12.0891 21
372 1 -1.21986 -8.93066 9.84616 19
373 1 4.44184 4.02132 -1.32856 19
374 1 -8.46721 9.03052 3.47698 16
375 1 10.3377 -9.72093 0.1162 10
376 1 -13.2994 -0.229627 0.718509 14
377 1 9.69299 -0.554666 -0.62344 23
378 1 3.47199 5.81659 14.2866 7
379 1 -11.9896 -1.75738 -4.43104 11
380 1 -3.80564 2.46721 -6.53275 21
381 1 6.50741 -8.0915 -3.77447 21
382 1 -6.92812 -11.49 -3.48129 20
383 1 -8.39656 -10.597 6.36878 13
384 1 7.90889 -2.83034 6.18887 19
385 1 -10.0939 -0.45908 5.96643 18
386 1 -1.06839 11.4902 -6.7603 12
387 1 2.66356 -8.28482 14.145 15
388 1 -9.3926 -2.90484 10.3416 19
389 1 -1.37958 -5.13284 -6.87346 19
390 1 -5.10533 -11.1889 5.47443 16
391 1 4.09826 -5.75227 13.4197 13
392 1 -3.36844 -13.4331 -2.27864 17
393 1 9.7128 1.62251 -3.4669 20
394 1 -11.6228 6.8727 4.435 14
395 1 -7.19339 -0.424054 10.4971 21
396 1 -1.01917 -15.893 -3.06556 9
397 1 8.41257 6.336 -4.95428 13
398 1 9.71827 0.00549966 3.33188 21
399 1 -1.83034 -5.5174 10.6149 20
400 1 7.42995 6.85173 -2.33464 19
401 1 4.21635 0.624629 -6.52268 19
402 1 -11.8742 2.53765 -0.192277 16
403 1 8.91415 8.70449 -0.385588 12
404 1 6.8673 5.10098 0.464817 18
405 1 2.2512 12.3562 0.379271 10
406 1 -6.55266 2.42778 8.89464 18
407 1 6.99691 -1.08672 -1.75568 17
408 1 2.01014 -10.8163 13.7693 13
409 1 6.80374 4.79693 7.49267 18
410 1 9.02612 -7.04507 -5.60749 13
411 1 -11.6404 4.78672 -3.55336 11
412 1 -1.65643 5.93545 6.95317 18
413 1 -2.36034 8.67949 2.52701 19
414 1 -6.83289 -7.29621 9.30137 20
415 1 6.52571 -10.754 2.29112 15
416 1 -0.639638 -7.91121 -11.144 12
417 1 -7.77915 -10.6194 0.244455 19
418 1 -7.24014 6.15175 0.64331 20
419 1 6.56267 -7.31383 11.1618 15
420 1 -6.78722 -9.98944 3.24828 19
421 1 10.2055 -2.76567 1.47122 19
422 1 -1.03319 3.67472 -7.98689 16
423 2 -11.7828 0.0129726 -3.61124 15
424 2 -8.07412 11.0442 1.02596 12
425 2 -1.94446 -0.228228 -11.1948 11
426 2 -6.00193 3.65304 12.483 12
427 2 -6.23514 -9.87565 -8.05904 9
428 2 3.68479 1.22812 13.3241 13
429 2 -10.0276 -3.35548 5.49311 21
430 2 6.57445 6.00503 2.23026 21
431 2 -9.73083 -10.2093 -0.0750081 16
432 2 -9.46274 -3.37541 2.26713 19
433 2 -5.16195 -7.75914 8.71797 22
434 2 0.0145331 8.2618 11.2756 13
435 2 7.79393 2.94417 -7.66949 11
436 2 -8.65117 5.05057 1.67838 20
437 2 12.6215 3.284 3.42725 11
438 2 -11.8799 -7.45367 -0.750603 14
439 2 -4.5517 -13.0692 5.56654 11
440 2 7.41908 -8.88657 9.12571 14
441 2 -12.318 5.60978 5.797 11
442 2 -10.6681 8.44486 -3.82888 11
443 2 -3.67325 6.0485 6.66181 15
444 2 6.74237 -6.32137 -4.16878 21
445 2 -4.88118 0.290778 -6.56701 22
446 2 2.1339 -8.97818 -10.1123 14
447 2 8.36362 -6.90735 -7.52456 10
448 2 11.1423 2.98604 -3.33689 12
449 2 -7.4332 6.84261 3.78459 16
450 2 -5.63162 -11.0603 -5.73349 17
451 2 1.01693 -9.30799 14.443 12
452 2 6.5967 -3.62413 5.08176 18
453 2 -12.3492 0.923261 -0.765163 16
454 2 2.05765 8.18297 5.31283 20
455 2 5.65423 -10.9185 10.4641 13
456 2 -0.777405 7.58538 7.57486 22
457 2 3.00462 11.274 4.79773 16
458 2 2.26215 6.51917 -2.45142 18
459 2 -9.35154 0.405944 10.2272 19
460 2 5.56569 -2.95528 -7.76498 14
461 2 -10.2104 0.905408 -5.80525 13
462 2 -13.1318 -2.33993 6.54538 13
463 2 -10.9456 -11.3348 3.59388 10
464 2 -1.51556 -8.44607 3.81971 19
465 2 -1.33474 -3.26137 13.6482 18
466 2 -2.22092 6.63636 10.9268 15
467 2 -9.07594 -0.52229 3.94866 22
468 2 0.0435477 -15.4205 -1.67876 10
469 2 9.98031 -0.149859 -4.13666 18
470 2 1.84476 -13.1105 5.75225 12
471 2 -0.91905 5.01588 8.60359 17
472 2 6.26991 -7.27316 -1.726 23
473 2 2.16683 -4.93441 10.2031 22
474 2 -4.64249 -7.63352 5.50559 22
475 2 10.1659 -0.495697 1.45253 20
476 2 3.4504 -8.59033 3.53118 24
477 2 12.1567 -7.46812 3.58978 11
478 2 -4.296 -8.0071 -5.09515 19
479 2 -7.23501 -7.83368 3.55924 20
480 2 3.92423 -11.4947 4.42853 17
481 2 -1.97221 -8.94761 -3.6059 21
482 2 -3.50232 6.35184 -0.349483 25
483 2 1.511 0.824514 -6.48655 22
484 2 3.07384 7.87261 -0.0533853 14
485 2 -1.77827 5.57394 -9.21842 12
486 2 -9.13165 1.91619 12.702 12
487 2 -9.95797 1.93304 2.52761 18
488 2 -9.10652 4.54075 11.6578 12
489 2 -10.7502 5.37298 8.97893 14
490 2 8.40805 4.96888 -6.12066 14
491 2 9.10554 -7.80667 -3.68882 13
492 2 7.80058 0.200343 2.8077 22
493 2 -2.9482 8.93902 6.7305 16
494 2 -6.57548 4.06405 6.65546 15
495 2 7.20376 -1.29534 -3.84849 19
496 2 -1.44924 9.56415 4.02083 20
497 2 0.19694 10.3472 -3.85659 19
498 2 1.55454 2.51943 11.8667 19
499 2 1.22011 -2.12609 12.0886 18
500 2 5.90067 -9.80573 -7.11154 15
501 2 -6.18718 0.485242 11.8969 16
502 2 3.3432 5.7752 -9.48065 15
503 2 -9.60618 -5.15184 10.4986 18
504 2 0.914669 -10.7624 3.4275 19
505 2 0.250537 -10.4059 -4.97636 18
506 2 0.857406 -12.6837 9.35647 11
507 2 5.81816 1.95144 -8.96108 11
508 2 -4.50711 4.17798 -7.63279 15
509 2 -3.68558 11.6712 5.06616 11
510 2 -6.17923 -9.2261 0.679437 18
511 2 -1.56819 9.87202 -6.77652 14
512 2 0.51669 12.3301 0.80515 13
513 2 -1.68587 2.69244 13.6389 18
514 2 2.03473 -11.018 0.0887326 18
515 2 9.61252 3.69919 8.53137 11
516 2 9.40133 -3.05405 3.42492 18
517 2 6.92443 3.06946 4.04131 20
518 2 -7.4927 6.00604 -6.35003 12
519 2 2.62266 -4.53905 13.738 16
520 2 -1.02672 -5.11628 8.67517 22
521 2 2.84426 -9.51147 10.2737 21
522 2 -4.2026 12.0131 -3.57812 14
523 2 -5.01126 -13.7054 -3.91711 15
524 2 -1.72296 0.27222 -8.21273 20
525 2 -0.807368 -13.2794 -6.74728 11
526 2 5.05706 7.97462 -2.35073 17
527 2 -8.41971 -11.0855 -5.16286 12
528 2 -12.6408 -0.0556695 8.89906 14
529 2 5.06933 -7.13273 13.9978 10
530 2 -6.94436 -11.8077 -1.3381 21
531 2 5.16702 -4.42711 -9.91347 13
532 2 -5.94327 -1.33364 -9.54305 13
533 2 -3.23716 -2.91298 -10.3726 13
534 2 -3.63675 0.950795 13.8847 14
535 2 -7.18034 -8.85322 -3.25392 18
536 2 0.5822 -5.27246 -7.23967 22
537 2 4.09857 -4.65742 -5.65975 23
538 2 -6.31509 -5.08506 5.40782 19
539 2 -0.502785 -2.45377 -9.75369 19
540 2 -0.352452 -10.3079 -1.73738 16
541 2 -2.94983 6.89182 -6.47013 15
542 2 6.69686 5.73386 5.66176 19
543 2 6.95426 2.84413 7.1957 20
544 2 -12.5802 -5.22016 4.51431 11
545 2 -1.7402 -10.8309 9.60878 17
546 2 -1.89224 2.90587 -6.10835 20
547 2 -4.37026 -10.3456 3.72001 21
548 2 -5.59732 5.01618 1.49743 20
549 2 -4.9189 -7.96342 11.898 18
550 2 1.40893 -10.8188 7.41443 17
551 2 -13.5625 -2.6547 3.86143 12
552 2 -7.84755 -13.4059 -2.91914 11
553 2 -6.67374 -5.3365 9.0662 22
554 2 2.10831 -7.26932 12.658 20
555 2 1.05351 12.2803 -6.15404 10
556 2 6.19259 11.2805 3.19069 9
557 2 11.6559 0.0554869 -1.46067 14
558 2 -2.62071 12.3605 2.31742 15
559 2 -12.4481 -5.89777 -3.8476 9
560 2 -10.5921 -2.44651 -1.27896 24
561 2 -5.09308 -13.7537 -0.949962 15
562 2 6.78337 -10.638 4.20844 17
563 2 9.40958 -8.6456 4.58587 12
564 2 -10.9379 9.07183 -1.10536 11
565 2 7.93456 0.098691 -0.303476 20
566 2 4.58451 -1.82242 12.7779 14
567 2 2.1619 5.91643 7.39178 20
568 2 -0.790369 0.262357 11.7908 18
569 2 -9.15483 1.42313 6.03646 22
570 2 5.66612 4.26013 -4.89001 19
571 2 -10.368 -9.01624 -2.55979 16
572 2 -4.49372 -4.77301 -6.02098 18
573 2 -9.46369 -5.45836 7.17296 20
574 2 7.67536 9.38055 2.78411 13
575 2 9.92438 2.32117 2.54429 20
576 2 10.8837 -7.49337 0.745418 12
577 2 -13.2023 -4.78146 -1.25293 16
578 2 -3.33683 6.9232 3.25055 17
579 2 -5.23789 8.86951 -5.31933 15
580 2 0.840154 3.95602 -8.04608 21
581 2 -12.5205 5.87637 3.13733 10
582 2 -11.9981 -8.30107 4.32505 11
583 2 6.60337 -9.0023 1.51074 20
584 2 3.67648 -8.0223 0.548171 21
585 2 -6.0562 7.81821 1.28319 20
586 2 -8.87348 0.601617 -2.21741 22
587 2 6.06535 -6.93559 3.58814 17
588 2 2.37837 4.58451 13.3379 12
589 2 1.63885 -5.01419 -10.3319 17
590 2 -6.76726 11.6302 -5.15786 8
591 2 2.04095 -2.43227 -7.87737 21
592 2 -2.55612 9.2021 0.861408 17
593 2 -10.1278 -1.81492 11.8169 12
594 2 -3.7981 -4.95973 10.4257 23
595 2 -14.0855 -1.0503 -0.897888 11
596 2 1.41178 7.1108 -8.15384 14
597 2 6.74638 -3.87157 -1.99168 20
598 2 2.57668 -0.0327767 10.3772 19
599 2 1.0872 -7.24024 -11.7682 12
600 2 6.97795 2.8755 1.05589 23
601 2 4.38557 9.18328 4.04397 18
602 2 -9.6645 -6.20423 3.50956 18
603 2 -5.33093 11.0117 0.982101 16
604 2 -3.4898 3.49284 11.9528 17
605 2 -1.22079 -13.686 4.73701 12
606 2 -6.89805 -10.2363 5.40143 17
607 2 7.19086 -2.4655 11.0224 15
608 2 7.46866 8.08684 -5.18069 12
609 2 1.53771 8.73163 2.75918 18
610 2 3.44023 -12.5608 10.2338 11
611 2 5.53477 -13.4786 -0.74372 9
612 2 3.81581 0.151695 -8.37797 17
613 2 -0.378667 5.11664 13.1352 15
614 2 1.80616 2.86274 8.72208 24
615 2 7.63463 -5.86196 10.2421 13
616 2 0.927357 0.599918 -9.76099 16
617 2 8.96012 -2.62882 -5.66704 12
618 2 -9.15092 11.7987 -3.18854 11
619 2 2.9393 -9.32341 -7.5859 20
620 2 1.07673 2.56278 15.3355 12
621 2 -11.3056 2.88157 -4.04836 15
622 2 4.93166 -10.104 -1.48821 21
623 2 6.95162 6.77062 -0.408546 19
624 2 9.62755 4.86355 3.62049 20
625 2 10.0949 2.49621 6.10076 19
626 2 -7.52911 -2.00507 -3.20952 21
627 2 -11.1114 6.26256 0.572876 17
628 2 -7.15381 3.44543 -2.5805 18
629 2 9.38258 2.17618 -1.55829 17
630 2 -12.6911 3.302 1.6074 13
631 2 -7.70668 -8.63245 10.6234 16
632 2 4.60434 -2.44454 9.62306 21
633 2 -0.161265 -13.6505 1.44335 12
634 2 -0.927095 -3.02949 -6.76708 19
635 2 3.1788 12.0058 2.29362 13
636 2 7.15354 9.39994 0.30015 16
637 2 -2.36811 -5.57102 -8.48568 17
638 2 -8.09249 -8.2621 -5.35506 17
639 2 11.2988 -0.885986 4.44812 15
640 2 -2.61344 5.90992 -3.32735 18
641 2 5.40838 -10.6571 7.85536 17
642 2 8.10123 -5.49743 0.827722 18
643 2 -7.52948 -10.7174 8.23723 14
644 2 -6.69848 -6.09303 -1.8249 17
645 2 1.25491 5.89267 10.3082 19
646 2 6.50867 10.3414 -3.1183 14
647 2 -9.0924 8.37457 6.99464 12
648 2 -7.60391 -6.71233 13.0805 10
649 2 0.649722 10.1474 -0.586132 21
650 2 -1.12713 -10.7262 1.76657 17
651 2 -2.1368 -7.42863 10.8336 22
652 2 6.54447 0.289826 12.0691 12
653 2 -11.5989 3.03355 4.55351 16
654 2 -1.81767 2.64415 10.1388 19
655 2 -3.60093 -13.6985 -5.96826 12
656 2 8.35938 -9.38525 -0.619853 16
657 2 7.2376 -10.0488 -3.91125 14
658 2 -5.20604 9.00747 -1.44717 21
659 2 -8.02111 -3.23575 13.6185 11
660 2 -9.18087 -0.257837 0.762759 22
661 2 8.23159 -3.96949 -8.69722 10
662 2 3.14426 10.0388 -3.42855 18
663 2 -4.62006 2.81979 8.45736 17
664 2 -1.70056 12.217 -5.03642 12
665 2 -13.0815 -3.05682 0.710693 14
666 2 -3.67805 -1.67718 -7.51067 19
667 2 0.253814 5.30143 -4.5579 19
668 2 -6.10817 -3.33589 -8.08589 12
669 2 4.24918 -6.72971 -11.8067 12
670 2 -4.19563 -7.8974 -1.57848 21
671 2 -2.23318 -8.68243 14.2646 12
672 2 6.92056 -2.18364 7.71379 21
673 2 2.77787 -6.54515 -8.273 21
674 2 -1.22931 -11.8701 6.75185 14
675 2 9.30304 7.68797 4.27731 15
676 2 -0.596359 11.1003 6.43425 15
677 2 -9.70707 -6.22239 -4.88665 13
678 2 6.3422 5.37565 -9.13473 9
679 2 1.27437 -7.50193 5.77052 18
680 2 -8.98915 8.52769 1.38912 16
681 2 7.35512 -6.96283 -10.2291 9
682 2 3.82893 3.33236 6.41501 22
683 2 -12.0414 0.12998 5.74706 17
684 2 0.667335 8.60015 -5.80889 18
685 2 3.67608 3.11568 -6.97373 19
686 2 -6.43971 0.499198 8.76629 19
687 2 -4.61392 -2.30369 12.6057 18
688 2 10.6539 -0.104571 7.85877 10
689 2 2.89917 3.03777 -10.3434 15
690 2 -8.79007 -4.49563 -1.95754 21
691 2 10.9256 3.44322 -6.28881 8
692 2 0.485589 -11.0252 -7.75336 14
693 2 -11.2786 2.14413 10.5782 13
694 2 -7.22781 -3.20824 7.56644 21
695 2 2.59156 -13.9434 -0.26344 14
696 2 -3.79641 -10.6438 0.261943 19
697 2 0.096631 -14.729 -4.37334 10
698 2 11.7185 -5.42901 -2.50431 12
699 2 -7.58995 7.70271 -3.74128 16
700 2 4.95656 7.36309 7.30255 17
701 2 -2.8231 -15.2897 -3.03801 12
702 2 4.61469 0.612164 7.81789 20
703 2 -2.2392 9.77046 9.69144 14
704 2 -10.9732 5.90934 -2.28826 11
705 2 2.5188 -12.5667 -6.37252 15
706 2 -6.01429 -13.9293 2.25745 9
707 2 -9.29627 5.37523 5.77343 19
708 2 5.14694 8.30375 -8.4422 9
709 2 -9.62155 3.48697 -7.31345 10
710 2 2.71448 5.74779 -6.03593 19
711 2 -2.94777 -11.0802 -7.7769 13
712 2 -1.60894 -6.22181 -5.01315 20
713 2 -10.0482 -2.14588 -4.76007 15
714 2 5.27172 4.61333 8.58511 16
715 2 -4.15489 1.42045 -9.52632 14
716 2 -8.73806 -13.9283 0.513254 14
717 2 9.82126 -3.41744 6.11592 18
718 2 4.70338 1.64742 10.4296 18
719 2 5.19171 0.908153 -4.85783 20
720 2 -0.483468 8.0603 -2.22054 21
721 2 -2.57507 11.391 -1.03464 17
722 2 10.6967 -6.32157 6.40137 10
723 2 3.73151 12.2491 -4.76505 11
724 2 -0.675245 -0.228029 15.4197 9
725 2 -1.64591 -8.4818 -7.02929 18
726 2 5.57052 6.49419 11.1083 10
727 2 -5.784 10.5451 6.65985 9
728 2 10.7327 -10.0429 2.05415 9
729 2 5.07456 -6.8163 -7.18839 22
730 2 0.113558 12.1464 3.88684 13
731 2 6.40911 -9.15706 12.4002 9
732 2 -2.72146 9.22411 -4.29515 21
733 2 0.574361 10.5512 9.36117 14
734 2 -8.33914 9.76722 -1.44871 18
735 2 -0.858369 13.1496 -2.69209 11
736 2 -6.79793 -6.81963 -7.58762 10
737 2 4.85288 -12.355 -7.95549 11
738 2 -8.22947 3.41309 8.96794 16
739 2 12.983 -5.23515 0.681329 10
740 2 -6.50071 12.3704 -2.10063 14
741 2 -10.565 -3.16964 8.74344 17
742 2 -1.93759 -12.5991 -3.32346 19
743 2 3.81577 7.34711 13.1844 6
744 2 -0.740765 -8.25064 -9.43693 15
745 2 -10.4704 5.26362 -4.84774 10
746 2 5.09399 7.72966 -5.5246 15
747 2 -0.737288 2.87114 -9.80261 15
748 2 -10.0618 7.73659 4.11865 15
749 2 -7.84209 6.39298 9.38253 13
750 2 3.46226 12.1189 -1.2331 10
751 2 -11.4022 -14.2829 2.09322 6
752 2 4.28005 2.00329 -0.0107044 19
753 2 4.20186 -7.97541 -4.19997 24
754 2 -9.81909 -9.20464 5.96906 17
755 2 -7.82069 5.84429 -0.988633 21
756 2 -10.8722 -7.8554 9.03583 10
757 2 -4.30731 3.37539 -4.62678 21
758 2 -0.289452 -8.94639 11.8063 20
759 2 6.79761 3.3386 10.4496 12
760 2 5.08893 -4.98397 8.03339 23
761 2 -7.38066 -2.212 10.6795 24
762 2 3.00675 9.84346 -6.62376 14
763 2 2.95526 8.2025 10.1954 13
764 2 -10.3617 -12.2509 -2.39197 11
765 2 -7.6717 -7.44202 6.94987 22
766 2 -9.1807 -1.01526 7.46269 20
767 2 -4.90222 6.27483 -3.53086 20
768 2 -12.4414 -3.22987 -3.54597 13
769 2 -7.59131 9.86664 4.72968 11
770 2 3.73562 -9.78518 13.6054 12
771 2 11.8055 5.15776 5.91688 11
772 2 -3.23675 -12.9857 2.3739 15
773 2 -13.3376 -5.83339 1.80198 11
774 2 -12.0766 -0.0168395 2.3555 16
775 2 -3.72163 0.13444 10.5826 18
776 2 0.918412 -3.03866 15.0767 11
777 2 -1.89852 -8.38564 7.33582 20
778 2 8.09704 -0.0937269 6.21557 19
779 2 2.60603 -11.0878 -3.31051 20
780 2 -1.06645 4.98763 2.07702 18
781 2 -6.00018 1.03656 -4.05844 19
782 2 -4.69831 -2.36228 8.92818 22
783 2 0.576924 -7.80196 9.13906 22
784 2 -6.03267 -4.82798 12.4547 17
785 2 -0.803388 -5.35327 12.151 23
786 2 3.98758 -1.1828 -5.53879 20
787 2 9.54009 6.34155 6.7558 12
788 2 8.05651 0.22025 -6.51397 14
789 2 5.28276 -7.38874 9.58207 18
790 2 12.1362 2.22267 0.0104004 13
791 2 12.3002 -4.48399 4.00877 13
792 2 4.04726 10.248 7.48298 13
793 2 12.0967 -2.2702 1.92448 14
794 2 -4.53455 -10.6566 10.2971 15
795 2 -0.243698 -6.37584 15.5875 12
796 2 -3.35742 -5.17123 13.2439 17
797 2 4.54387 -11.2055 1.66592 19
798 2 3.63517 -8.19197 6.92968 21
799 2 7.9235 -6.70233 6.89148 20
800 2 -3.0489 -10.9549 12.6165 10
801 2 -5.89527 6.49958 12.1212 10
802 2 8.31242 2.09403 -4.44112 21
803 2 5.19803 -9.02078 -9.7369 16
804 2 4.89566 -10.9489 -4.72278 16
805 2 1.11751 5.28322 -11.2108 11
806 2 -7.9297 -0.958873 -6.76315 13
807 2 6.76574 8.82109 5.92492 13
808 2 -10.6706 -5.14311 0.528185 18
809 2 13.3651 0.604973 2.14467 10
810 2 -8.58405 -7.43057 -0.531535 21
811 2 4.75482 -5.58099 5.49898 21
812 2 9.77703 7.4084 1.36977 14
813 2 9.9091 -5.1662 -4.92903 15
814 2 6.59439 -3.87396 -5.44672 21
815 2 1.32699 -11.6861 12.1582 12
816 2 -9.44799 -8.70277 2.25123 20
817 2 9.43677 -3.41541 8.40804 12
818 2 6.31125 -8.77511 5.92634 19
819 2 9.26994 4.58195 0.0788034 17
820 2 -12.0862 2.97455 7.71132 13
821 2 -10.1031 3.39531 -0.40016 21
822 2 9.76692 -2.57225 -0.511096 19
823 2 3.68492 -14.3594 2.73397 6
824 2 -4.67303 -10.9221 -2.72121 21
825 2 8.54064 8.58598 -2.48496 12
826 2 7.87493 -11.707 1.34282 11
827 2 3.73565 5.82186 4.36647 18
828 2 -4.35242 -10.5453 7.56076 18
829 2 -1.58351 -2.68342 10.4397 19
830 2 -4.49762 7.66864 9.31166 12
831 2 -0.862044 -5.67062 -11.42 12
832 2 -6.88598 2.74184 -6.4048 17
833 2 -12.4969 -5.0258 8.25593 11
834 2 4.77277 -5.12047 11.9474 17
835 2 -7.06652 -4.89024 -5.23822 17
836 2 8.30176 0.633086 9.46161 16
837 2 11.1225 -2.72101 -3.58759 14
838 2 -6.70826 2.34279 -9.1074 13
839 2 8.46613 5.3305 -3.30254 17
840 2 -7.84086 -11.2962 2.30368 16
841 2 -6.09597 12.6166 3.28211 11
842 2 1.80641 12.6212 7.13417 9
843 2 9.21901 -5.40061 -1.7418 17
844 2 3.01971 -13.8025 -3.23752 12
845 1 -6.66715 -2.22933 -1.42133 24
846 1 -6.6321 -4.92941 -0.196315 18
847 1 -0.801671 -7.86776 -1.70823 18
848 1 -0.817255 -2.04437 -4.97168 19
849 1 -3.71666 -3.20585 -3.17655 20
850 1 -1.73497 -5.40825 -3.22307 19
851 1 -4.66838 -6.01441 -1.68781 18
852 1 -1.0045 -2.40695 -1.84343 20
853 1 -4.03729 -3.20931 0.273177 20
854 1 -1.30194 -5.05925 -0.151694 22
855 2 -7.34758 -2.90009 0.39295 23
856 2 -1.54417 -8.46657 0.137345 20
857 2 -5.12862 -2.24655 -4.32759 21
858 2 1.69329 -7.9246 -5.43797 18
859 2 -3.6517 -5.09249 -3.02901 20
860 2 -1.64358 -3.06926 -3.50224 22
861 2 -4.26572 -2.2463 -1.50427 22
862 2 -0.540963 -5.81767 -1.68326 20
863 2 -4.75779 -4.98269 0.0642938 20
864 2 -2.03607 -3.16793 -0.423431 18
865 1 -6.22035 -2.44225 2.2357 23
866 1 -6.42894 -2.94406 5.60105 22
867 1 -1.35865 -7.8916 1.99281 20
868 1 -0.906642 -7.97733 5.63084 19
869 1 -4.26964 -5.8479 1.9101 20
870 1 -0.985426 -2.47587 1.70064 23