ITEM: TIMESTEP
3000
ITEM: NUMBER OF ATOMS
1000
ITEM: BOX BOUNDS pp pp pp
-30.0 30.0
-30.0 30.0
-30.0 30.0
ITEM: ATOMS id type x y z Coordination
1 1 -2.36618 -10.1952 -8.33672 11
2 1 5.74645 -9.81208 7.67351 12
3 1 -12.5707 7.02006 -0.991107 10
4 1 -9.85179 4.58914 -5.95911 10
5 1 -3.15957 -6.05544 14.4067 10
6 1 -7.86536 -0.048794 -7.04799 16
7 1 -4.18514 -13.9043 2.45943 12
8 1 6.01505 -1.80898 8.01714 21
9 1 -0.284386 5.62284 10.2841 19
10 1 -4.51776 12.1615 -5.61557 11
11 1 0.161523 2.53991 14.5688 14
12 1 -9.18271 -1.6531 3.2339 20
13 1 -2.25464 0.740488 -8.11928 20
14 1 0.555009 5.11342 13.7649 10
15 1 -0.602713 -10.8946 7.84983 15
16 1 -12.6238 0.161225 3.31337 11
17 1 -8.88673 -1.33568 -0.273214 23
18 1 -3.8592 10.9996 -2.73141 17
19 1 -0.0625414 1.71272 -11.3199 20
20 1 6.42675 -6.60516 -8.85654 17
21 1 -4.77489 -7.8264 12.4462 13
22 1 -11.2158 3.51205 0.668533 14
23 1 -0.523263 12.7343 0.230448 13
24 1 0.71863 -10.9927 4.68883 18
25 1 8.50982 -8.27777 -6.77368 16
26 1 7.96478 0.821752 7.75383 22
27 1 -8.75543 9.27441 -4.43911 11
28 1 2.28251 5.61343 8.67128 21
29 1 3.51519 -0.208381 14.8517 12
30 1 -9.37633 -3.99924 1.23726 23
31 1 10.6895 1.37236 9.0414 13
32 1 8.53482 -6.1932 -3.88071 19
33 1 5.07868 -0.0475766 9.72707 18
34 1 -6.81445 -4.24358 2.99639 22
35 1 -4.42765 -5.51491 -8.38412 16
36 1 -8.71613 11.6215 -1.84379 11
37 1 -5.06547 8.0212 -9.41922 11
38 1 8.47414 -2.35155 -3.28898 19
39 1 8.44899 -8.47741 6.39726 16
40 1 5.40553 -6.96228 11.3864 13
41 1 -2.71277 8.45388 7.19594 23
42 1 -7.77911 -8.23733 10.3954 9
43 1 -8.87542 1.40035 8.45215 19
44 1 10.573 -9.98813 -5.25689 11
45 1 1.89464 -1.07863 -13.4341 10
46 1 0.0874356 12.5845 3.73577 11
47 1 -5.81197 8.02927 -2.62034 18
48 1 2.26373 8.09919 3.61175 20
49 1 -5.4628 -10.0913 10.2633 10
50 1 2.46479 -9.78316 -9.19327 13
51 1 3.58353 -5.77708 -6.19782 21
52 1 0.399407 3.0301 8.35658 20
53 1 -9.5007 -9.50563 -1.94722 15
54 1 10.6247 -5.50633 5.15204 21
55 1 -6.96172 -8.74616 -4.07808 19
56 1 7.56888 -6.51764 4.06992 20
57 1 -3.57517 5.58575 5.4043 22
58 1 3.10952 3.23633 -7.15457 22
59 1 7.96072 -9.16381 2.34932 19
60 1 -8.40626 -12.0505 -0.687784 13
61 1 11.6327 9.52537 3.23325 11
62 1 7.88628 4.59976 0.104697 20
63 1 -4.88608 13.811 -2.84376 9
64 1 1.30758 -6.63004 -10.8298 13
65 1 -0.99983 11.562 -6.44367 9
66 1 13.3264 -2.3853 -3.79695 14
67 1 3.50876 1.35993 -14.3812 7
68 1 6.62725 -11.3739 5.04751 13
69 1 -5.44357 4.22522 -4.66391 20
70 1 5.21548 13.1401 -0.18246 10
71 1 8.83086 2.80527 -2.52483 21
72 1 -2.45169 8.77465 -3.34574 17
73 1 -1.08203 -4.59576 -10.0101 16
74 1 -12.3494 -3.98112 -4.33353 10
75 1 -2.81453 11.1859 8.58938 13
76 1 -1.55743 12.7286 -3.36078 14
77 1 0.719926 -1.09374 14.6369 14
78 1 -12.0827 -5.66162 3.66188 14
79 1 -3.42647 -11.2523 7.70612 12
80 1 2.11565 8.86135 -0.177702 23
81 1 7.90435 6.05316 -6.71797 11
82 1 -1.12204 -7.45298 11.7161 18
83 1 -9.73894 0.650714 1.39486 20
84 1 -2.56967 3.47487 13.1345 12
85 1 -5.44656 1.40315 -6.9072 22
86 1 -6.08931 -7.06356 4.70411 19
87 1 -9.75594 -12.1399 1.98859 11
88 1 5.00826 -7.14828 -1.45832 19
89 1 -2.74616 8.52247 3.86143 19
90 1 -5.70008 1.11099 6.68284 20
91 1 -8.79236 -1.06776 -3.94036 24
92 1 -0.731429 -14.0059 3.2104 10
93 1 5.50235 4.92893 -4.83235 24
94 1 5.85159 0.78642 13.4295 13
95 1 -1.92745 7.63935 -9.25261 13
96 1 -3.24756 -3.78665 -10.8798 16
97 1 -7.07113 8.89202 0.57715 16
98 1 8.44984 4.03314 9.14435 15
99 1 -4.09411 9.60383 -7.11502 11
100 1 0.789903 6.03289 -7.16812 20
101 1 -8.28055 4.75838 9.57675 10
102 1 -3.5049 5.62948 8.89162 18
103 1 0.572999 -10.5068 -6.18443 18
104 1 4.11737 10.5571 -8.45912 10
105 1 -0.339383 10.3501 -1.11996 21
106 1 -11.6583 3.40205 4.37419 12
107 1 2.9738 6.064 11.9792 14
108 1 13.0904 -1.14152 -0.811543 14
109 1 2.69344 8.50505 6.60122 20
110 1 -9.64909 6.77136 4.7175 13
111 1 -9.41221 -6.62367 -3.42199 15
112 1 2.71316 -1.56665 10.2965 15
113 1 3.76315 -12.9911 -3.73796 10
114 1 -2.7798 1.13488 -12.8572 13
115 1 10.8 -0.646315 -4.42063 17
116 1 -11.6373 -5.87727 6.90242 10
117 1 -6.96287 -3.42855 -6.8109 20
118 1 -5.24554 -1.72691 -8.89694 22
119 1 -9.9903 1.36911 -4.89696 16
120 1 9.27618 -1.64883 9.35842 15
121 1 4.34328 -4.16972 10.4081 20
122 1 1.8275 -4.08337 8.09852 19
123 1 6.91234 11.0975 2.83723 15
124 1 -4.33959 -10.0801 4.73816 16
125 1 3.44657 11.4788 4.20528 14
126 1 -2.91843 -7.14233 -10.2497 9
127 1 -4.30465 -8.97297 -6.16273 16
128 1 -3.05729 -7.77276 2.82549 19
129 1 8.65405 3.71152 5.94122 20
130 1 -8.22476 -2.23446 13.5309 11
131 1 -2.89294 -11.2867 -0.552154 17
132 1 2.78569 -11.4487 -1.0167 18
133 1 6.38509 -10.2958 -0.385654 17
134 1 -7.92912 7.19441 -7.38025 14
135 1 13.0045 6.83775 5.33972 8
136 1 -6.8239 1.6896 -3.53327 22
137 1 -3.21345 6.55681 -11.7574 10
138 1 -3.68645 -5.41881 8.36844 21
139 1 3.82715 11.0883 7.73294 11
140 1 13.7894 -0.338206 4.83395 10
141 1 -8.71749 -1.46507 6.76243 22
142 1 -6.32568 -5.57871 9.87497 19
143 1 -7.63387 9.61564 3.92708 12
144 1 4.47784 -4.56036 -11.3805 10
145 1 3.79695 -10.6259 2.42831 19
146 1 9.28698 -1.95818 -8.45724 10
147 1 -9.27073 -4.26709 5.19429 20
148 1 8.40986 -9.90435 -2.87286 14
149 1 -2.79334 8.82135 0.0962601 20
150 1 -5.56658 3.96474 4.87759 19
151 1 3.67522 -9.441 10.4007 12
152 1 1.15668 8.60335 8.98421 18
153 1 -6.24383 -3.9901 -3.75676 21
154 1 -5.29302 11.1784 2.89798 16
155 1 -8.35373 3.54548 -2.74257 21
156 1 -11.4167 0.213695 7.70385 12
157 1 -3.98183 -5.66971 -5.78308 17
158 1 -6.85197 6.35368 2.99197 18
159 1 10.6351 -3.87542 7.55301 16
160 1 6.0896 -6.74172 8.09027 18
161 1 -0.298292 -2.18849 11.6207 20
162 1 3.58779 -10.4538 -6.07911 17
163 1 -2.85085 -0.513024 -10.4119 19
164 1 -12.1518 -3.60283 -0.834963 14
165 1 -3.66026 -8.19033 -0.398232 21
166 1 13.5883 0.855509 -2.73869 10
167 1 -5.4953 5.42326 -7.4121 17
168 1 -5.48563 8.31638 8.93752 12
169 1 -8.70839 11.4112 1.3457 14
170 1 -6.66408 6.78852 5.9596 13
171 1 10.9842 -3.50632 -5.08721 16
172 1 7.53165 -0.537968 -10.464 8
173 1 2.26069 -9.57015 -3.3032 24
174 1 -0.149528 8.61076 5.05878 18
175 1 -10.006 1.13128 -1.70331 21
176 1 5.08433 -13.3136 -0.280493 8
177 1 12.3443 -0.982929 7.57864 9
178 1 -12.1786 -6.71366 -6.81747 6
179 1 -1.59358 -10.5641 2.68145 17
180 1 -5.74082 11.1886 -0.249086 16
181 1 -8.96683 7.25776 -1.68349 18
182 1 -2.39937 -11.3644 -5.57478 17
183 1 5.09858 -5.25976 6.2182 21
184 1 -3.96153 -13.6444 -0.130265 14
185 1 -8.01334 5.84237 -4.1303 19
186 1 -1.93069 -12.9652 5.34658 12
187 1 -3.57377 0.300643 8.19959 23
188 1 -8.3473 3.62958 6.27358 18
189 1 1.67936 -4.90578 -4.96953 24
190 1 -10.8702 -2.64786 8.44841 13
191 1 -2.81344 -2.20278 10.0581 22
192 1 -5.6527 -2.49388 8.6074 22
193 1 2.88284 -6.56777 -3.15971 18
194 1 3.989 -12.264 4.86743 8
195 1 4.84929 10.5741 -3.94271 19
196 1 -10.1544 -13.796 4.38584 5
197 1 11.5262 -8.41062 6.80209 10
198 1 10.7164 0.812903 -0.565632 19
199 1 1.69094 0.467842 -8.54303 19
200 1 11.2373 -8.04413 3.52092 12
201 1 -5.44005 -2.80328 11.8705 23
202 1 2.14684 11.8021 1.41703 16
203 1 7.68343 -4.38543 5.74356 18
204 1 -2.30743 -13.1612 -2.8061 14
205 1 5.5616 4.72944 10.1329 18
206 1 -9.44604 0.490993 11.3877 15
207 1 -5.06226 -10.9707 -3.33613 19
208 1 -9.65728 -7.98995 -9.12341 5
209 1 -5.68839 10.48 6.1648 12
210 1 -0.249921 -9.99584 -0.574857 21
211 1 -6.53928 -4.18829 6.80164 20
212 1 10.799 0.826005 5.81344 17
213 1 11.779 3.29075 4.37805 16
214 1 2.40755 2.79628 -10.7252 16
215 1 -0.873744 7.7851 -6.09776 16
216 1 -1.93281 8.37732 10.1154 14
217 1 -11.3167 -6.57446 0.657984 14
218 1 5.36515 13.1668 -6.40543 5
219 1 -7.15478 -5.10521 -9.44659 12
220 1 1.69967 -5.03808 -8.13717 24
221 1 10.3272 5.95575 -1.29539 15
222 1 5.15109 6.45946 0.191438 21
223 1 3.93954 0.00609869 -10.9022 13
224 1 2.25042 -8.02852 2.79122 17
225 1 -4.1574 3.60789 -10.6499 15
226 1 9.21454 6.97893 1.51776 19
227 1 7.16453 -4.89836 1.21698 20
228 1 -0.0501361 3.11088 -8.52323 19
229 1 5.497 -7.44281 1.60969 20
230 1 -0.966401 -4.61533 13.5283 15
231 1 -7.66784 3.21007 -7.40932 16
232 1 0.0286761 1.9541 -14.18 11
233 1 -12.422 -2.40387 2.2331 14
234 1 10.9098 -3.52586 -1.68483 20
235 1 -3.126 5.92636 -5.2457 17
236 1 1.84854 -7.64707 -6.7015 23
237 1 1.85766 4.31583 -13.144 13
238 1 9.27755 -5.24918 -7.58417 15
239 1 -8.8333 -7.84028 5.4799 14
240 1 -2.83285 11.7457 2.00629 13
241 1 2.75804 6.10223 -4.83689 21
242 1 12.372 3.20493 -2.03219 14
243 1 2.51016 -8.33957 -0.424488 19
244 1 4.09158 -3.83514 -7.70063 21
245 1 13.9895 -3.84485 -0.983389 13
246 1 2.65652 -7.85643 6.44082 17
247 1 -11.6418 2.76574 10.5332 7
248 1 -6.64518 -6.95039 -5.97856 17
249 1 -3.6574 -5.53491 11.3009 23
250 1 3.26736 7.66765 -10.9961 11
251 1 -7.22794 12.1513 -4.81296 10
252 1 1.06295 11.3385 -4.04086 15
253 1 0.446455 3.18882 11.6973 21
254 1 5.04638 -10.0992 -3.02553 14
255 1 5.66958 -1.40417 -4.73178 19
256 1 -8.28794 -8.84557 1.04623 17
257 1 -8.52453 4.28002 -0.0598739 19
258 1 -10.9701 -9.22678 2.51696 10
259 1 8.25988 5.79278 -3.30547 17
260 1 5.77974 -8.99115 -7.93922 15
261 1 1.41737 -4.55552 11.46 20
262 1 8.15989 0.563233 -5.03143 17
263 1 -12.3165 6.14412 2.31814 12
264 1 13.3535 -6.01226 -2.79506 10
265 1 4.55734 7.60681 9.18601 13
266 1 0.0131039 1.73027 -6.35461 21
267 1 4.22175 5.06372 -10.3802 14
268 1 -3.19598 -2.28446 -7.06497 21
269 1 -8.31933 -11.967 -4.0495 10
270 1 14.7467 3.31376 0.37026 6
271 1 11.5205 -6.93142 -5.55573 12
272 1 8.19568 -11.4634 -7.65651 5
273 1 9.98794 10.1254 0.0652011 12
274 1 -8.81344 3.67545 2.91941 22
275 1 11.1047 5.84698 -4.00695 10
276 1 -5.82802 -5.05325 13.455 13
277 1 7.59808 1.18488 10.7971 16
278 1 -9.35164 -5.88328 -7.02812 14
279 1 12.8914 4.47011 2.72137 10
280 1 13.2579 -5.29411 3.02705 13
281 1 5.46804 9.42608 5.65747 15
282 1 3.04845 2.97575 9.93107 21
283 1 -3.21597 5.91301 -2.28061 19
284 1 -1.07368 -10.1886 -3.54993 20
285 1 -6.72112 5.35901 -10.4155 12
286 1 -6.11547 1.50311 -9.80097 16
287 1 -11.9805 -1.24774 -3.19108 16
288 1 9.64454 -10.7741 4.60318 10
289 1 0.300685 -9.5966 10.5422 13
290 1 8.88506 1.89659 -8.26469 11
291 1 14.7029 -2.24958 2.26818 12
292 1 9.80663 11.3474 2.72835 11
293 1 11.7862 -2.76609 4.73347 18
294 1 -5.2347 5.32082 11.131 12
295 1 -4.68234 -10.9711 1.87362 18
296 1 -9.57701 -3.27794 -5.41061 18
297 1 6.69977 -1.99845 11.3437 17
298 1 -5.57431 13.87 0.349081 7
299 1 8.89591 3.64711 2.9878 21
300 1 6.07695 2.45811 7.98893 19
301 1 -9.27328 -5.67396 8.25909 13
302 1 5.2364 -1.7491 -8.94132 14
303 1 -1.25494 -7.25473 -5.65985 20
304 1 7.34616 6.55768 7.18572 16
305 1 4.42597 5.28268 7.30675 20
306 1 -1.37445 0.184786 13.5231 17
307 1 -4.48032 0.800193 13.1286 13
308 1 -7.3086 0.912173 13.5706 12
309 1 0.226412 6.75837 -3.00366 19
310 1 7.92487 13.4446 1.18994 8
311 1 3.79412 13.6101 -3.55265 8
312 1 -7.15666 -14.3541 1.08405 11
313 1 5.84507 3.82157 4.52123 21
314 1 -9.53401 7.22972 1.22781 16
315 1 4.70135 8.43664 -5.77646 19
316 1 2.15113 0.820884 11.9278 19
317 1 7.93932 8.49457 4.12283 19
318 1 -0.378712 -1.87054 -8.92562 21
319 1 5.50005 -7.52049 -5.0154 20
320 1 4.70336 8.2587 2.5941 21
321 1 -11.6152 -2.6965 5.55389 16
322 1 1.98146 -12.6297 2.11189 14
323 1 5.83676 7.75034 -8.79967 13
324 1 2.3835 -3.01553 -10.281 17
325 1 6.8445 -5.13255 -5.62917 20
326 1 -2.74137 11.0978 5.42949 16
327 1 2.37878 -8.01208 12.6648 11
328 1 -5.87402 -10.8635 -6.66283 10
329 1 -2.62336 3.32427 10.2537 20
330 1 8.46519 -3.03159 3.30808 23
331 1 2.45424 9.15862 -2.98332 22
332 1 6.42695 3.95618 -8.23259 17
333 1 8.16416 3.38351 -5.58088 19
334 1 0.413711 5.23285 -10.6846 17
335 1 -0.988083 0.592862 10.2098 19
336 1 -2.88981 -8.52696 9.55672 18
337 1 3.8109 -7.0181 -9.56677 16
338 1 -11.1751 9.95536 -0.186033 14
339 1 6.63988 6.18276 2.66747 21
340 1 -9.24874 -6.59021 2.7291 23
341 1 3.88731 6.2062 -7.58364 22
342 1 -2.84093 -2.33049 13.7808 15
343 1 -9.36744 -6.16193 -0.77907 19
344 1 8.39829 -2.00159 0.166786 22
345 1 -6.5475 -6.75099 1.14756 20
346 1 9.79696 -6.09131 1.70824 21
347 1 5.17938 -7.95337 4.51838 21
348 1 0.385595 11.316 9.53791 9
349 1 -8.46548 3.68321 11.8629 12
350 1 7.74101 0.901416 4.24873 21
351 1 8.68199 -7.33279 -0.579808 18
352 1 4.53386 6.71338 4.63526 20
353 1 0.0469677 10.8406 6.95677 16
354 1 1.94572 -6.85885 9.76636 24
355 1 -9.74477 -3.61627 -2.13856 20
356 1 3.4578 3.17335 13.5697 15
357 1 4.86449 10.238 -0.128056 20
358 1 7.86162 -4.24919 8.89589 19
359 1 7.68992 -4.56663 11.807 12
360 1 10.043 6.57197 4.61246 20
361 1 -0.328677 -8.10321 -9.03762 16
362 1 -5.35995 -1.03862 -11.7314 9
363 1 -5.67819 -1.8035 15.0944 12
364 1 13.3281 0.928016 2.40348 13
365 1 2.01867 9.3468 -6.40888 21
366 1 6.93733 -2.36767 -6.96623 19
367 1 -5.71001 -13.6695 -2.21244 11
368 1 -5.77111 -1.36655 -4.95963 20
369 1 1.86527 -2.35369 -6.85447 21
370 1 -3.13783 -8.30799 -3.47379 18
371 1 2.10569 -3.71019 15.0031 11
372 1 -0.437022 -7.74785 8.14281 18
373 1 10.9022 3.09214 -4.82837 13
374 1 -12.0741 10.6301 3.29253 5
375 1 12.1316 -6.54045 0.16409 15
376 1 -12.6021 -0.267289 -0.316392 12
377 1 10.4775 3.71647 0.716814 17
378 1 5.99972 3.81757 12.3946 12
379 1 -11.4111 -1.2294 -6.64996 10
380 1 -2.94597 3.15135 -7.39555 18
381 1 10.7631 -8.39247 -2.63763 12
382 1 -5.81481 -7.0551 -1.77633 20
383 1 -5.80715 -9.27359 7.22251 17
384 1 8.57524 -2.01503 6.00567 20
385 1 -9.78443 0.749018 4.81162 20
386 1 1.2365 8.13152 -9.14358 15
387 1 4.05553 -5.49302 13.5859 13
388 1 -8.02216 -1.78571 10.2034 16
389 1 -1.25091 -3.88268 -7.20133 22
390 1 -6.75827 -12.5955 4.24159 11
391 1 5.58362 -2.63503 14.1689 12
392 1 -0.243947 -13.0264 -0.199743 16
393 1 12.1562 -1.03982 -6.80685 7
394 1 -14.118 8.58394 1.69944 7
395 1 -6.17275 0.4702 10.4283 19
396 1 0.572215 -12.6781 -3.57029 17
397 1 9.63096 8.63738 -1.91101 13
398 1 10.3356 -0.675778 2.53969 18
399 1 -1.0977 -4.80289 9.95066 24
400 1 7.84959 12.029 -1.9283 13
401 1 5.72622 1.33292 -6.53196 21
402 1 -11.2437 4.35611 -2.73205 14
403 1 5.82016 7.58109 -2.82767 19
404 1 7.27921 8.77295 0.221854 20
405 1 2.68258 11.7973 -1.3416 17
406 1 -5.88521 2.82262 8.94593 21
407 1 7.60708 -0.0137501 -1.95621 17
408 1 2.19815 -10.2035 8.18611 14
409 1 10.8875 4.77156 7.06579 13
410 1 7.16766 -4.32018 -1.7845 21
411 1 -7.19302 10.1291 -6.85965 10
412 1 -0.910001 5.76331 7.10702 24
413 1 -0.248443 9.60424 2.00392 21
414 1 -2.80233 -8.01335 6.34185 21
415 1 6.97685 -11.8204 2.17345 12
416 1 -0.428012 -1.76912 -11.9578 15
417 1 -6.16438 -10.0734 -0.855762 19
418 1 -4.68271 7.02127 0.42432 17
419 1 9.45596 -6.75072 9.34776 11
420 1 -6.84046 -9.29998 3.77336 16
421 1 11.3026 -3.47602 1.70169 21
422 1 -1.76402 3.89547 -12.3756 13
423 2 -11.4329 -0.0880271 -4.92417 13
424 2 -6.22587 13.444 -4.00601 9
425 2 -0.987575 0.130479 -11.1489 18
426 2 -2.79386 1.70912 13.5186 13
427 2 -6.03776 -4.08138 -8.61866 17
428 2 5.29779 2.72939 13.7696 11
429 2 -8.44472 -2.2423 5.07849 21
430 2 8.72869 6.87196 3.42982 20
431 2 -11.1001 -7.38036 -8.25068 5
432 2 -8.81629 0.534461 -0.279618 24
433 2 -3.91517 -10.3196 9.29021 13
434 2 2.62392 2.95854 11.7156 21
435 2 7.46039 -1.97258 -8.76791 13
436 2 -10.3196 11.3267 -0.961802 8
437 2 13.0325 5.03522 4.40624 11
438 2 -12.2229 -7.34788 2.2737 8
439 2 -2.58195 -13.9659 3.4171 10
440 2 10.1674 -7.76462 7.80471 11
441 2 -8.36925 8.11566 4.36484 12
442 2 -8.22921 8.77714 -6.16012 12
443 2 -2.90144 6.48061 7.31781 19
444 2 9.10814 -7.43472 -2.59935 16
445 2 -3.64661 1.431 -7.15098 21
446 2 2.80835 -5.4478 -10.6887 13
447 2 10.4796 -5.15449 -6.05817 15
448 2 11.525 4.86822 -2.34201 14
449 2 -7.25134 10.482 2.02913 12
450 2 -4.10834 -10.9054 -7.63684 9
451 2 2.29718 -6.25611 11.8145 17
452 2 7.12251 -2.51773 4.75398 22
453 2 -11.5406 -0.0502565 -1.79356 15
454 2 6.39719 9.50789 3.72341 18
455 2 8.23971 -10.266 5.9122 13
456 2 0.990342 9.23725 6.5796 22
457 2 3.71886 12.3018 0.504839 13
458 2 2.35347 7.26071 -3.07505 19
459 2 -8.2447 0.383453 9.945 19
460 2 5.62475 -0.656002 -10.462 8
461 2 -8.95427 1.53677 -3.02817 20
462 2 -11.8782 -1.58064 6.96076 12
463 2 -8.31448 -12.9007 0.989559 12
464 2 -1.48938 -6.61263 3.48634 20
465 2 -0.913857 -1.66578 13.5266 18
466 2 -1.88725 6.54038 10.2706 17
467 2 -8.48448 0.225815 3.44879 20
468 2 7.24886 -10.0051 -7.31426 13
469 2 10.4357 -2.60615 -3.47331 15
470 2 -0.910559 -12.2116 4.16583 14
471 2 2.96836 6.50786 6.57324 23
472 2 10.1172 -10.0259 -3.40472 9
473 2 2.3752 -4.96773 9.76744 16
474 2 -4.22928 -8.05736 4.70205 17
475 2 11.9079 0.166178 1.27967 17
476 2 0.065098 -9.57255 3.25588 17
477 2 11.5435 -5.35203 1.30694 19
478 2 -5.06219 -6.79769 -7.12763 15
479 2 -7.32687 -7.53249 3.16711 16
480 2 -3.31508 -9.85153 3.03207 18
481 2 -1.67516 -10.8512 -1.9188 22
482 2 -2.72407 6.88952 0.405118 19
483 2 2.13618 1.52921 -6.74533 20
484 2 7.87325 4.42072 -1.89097 23
485 2 -0.00469509 4.58502 -12.7325 15
486 2 -8.54973 1.91745 12.6011 11
487 2 -9.45429 2.72266 1.44268 21
488 2 -7.04765 4.71028 11.1489 10
489 2 -8.31104 5.57016 5.98118 15
490 2 9.76425 4.53592 -4.3291 17
491 2 10.8414 -7.77881 -0.577046 14
492 2 8.2623 -0.161503 2.41981 20
493 2 -2.03638 9.0946 5.46943 20
494 2 -5.67821 5.8572 4.7189 17
495 2 12.6277 0.595576 -1.22318 17
496 2 0.259498 8.28121 3.28107 19
497 2 3.06475 9.88698 -4.90463 19
498 2 0.527339 6.02372 8.51224 19
499 2 1.65988 -2.45471 11.5672 22
500 2 5.06249 -2.37729 -6.86849 18
501 2 -6.04771 0.628781 12.2431 19
502 2 3.01808 4.33723 -11.7146 13
503 2 -8.10433 -6.3998 9.52557 11
504 2 1.42914 -9.68918 -1.23402 21
505 2 2.10969 -6.93888 -4.94018 23
506 2 2.6083 -11.8402 3.67773 13
507 2 8.21294 0.79709 -9.55894 11
508 2 -3.49616 4.79822 -12.0149 11
509 2 -3.46856 11.2441 3.76575 13
510 2 -5.79518 -8.23536 -0.0327083 16
511 2 1.81878 6.89775 -10.5204 16
512 2 1.08678 11.6285 -0.367912 18
513 2 -0.78294 3.94339 13.3402 15
514 2 3.73912 -11.0269 -4.10623 16
515 2 7.78989 2.96214 7.52615 22
516 2 10.5961 -2.46431 3.08498 21
517 2 7.8214 3.32689 4.39901 20
518 2 -3.75081 4.68262 -7.60734 17
519 2 4.07358 -3.73415 14.3221 13
520 2 -0.189972 -4.35825 8.36991 23
521 2 6.94937 -8.39591 7.70108 14
522 2 -3.53915 12.6184 -3.51372 14
523 2 -7.15849 -11.8377 -5.72977 9
524 2 -0.224986 0.73965 -8.04593 22
525 2 -2.13989 -8.6593 -9.52797 9
526 2 5.99461 7.65915 1.58165 20
527 2 -8.7559 -10.0967 -3.43951 14
528 2 -11.0472 1.25183 9.27609 11
529 2 8.34321 -6.02853 10.6214 11
530 2 -4.25954 -12.6347 -2.91333 15
531 2 0.194535 3.21914 -10.359 17
532 2 -6.12399 -0.382925 -9.99152 13
533 2 -4.71647 -2.54174 -11.0737 11
534 2 -4.13013 -0.926214 14.3429 13
535 2 -3.3924 -7.49216 -5.29201 20
536 2 2.55406 -4.09836 -6.42478 21
537 2 7.48894 -1.47009 -5.14023 22
538 2 -6.12181 -4.97157 4.72954 20
539 2 1.89756 -1.74114 -8.71927 19
540 2 -1.0442 -8.33846 -3.90187 23
541 2 -1.31349 6.17249 -10.3645 17
542 2 6.00877 5.72453 4.39486 23
543 2 11.5117 0.622193 7.65764 13
544 2 -11.1964 -4.54949 5.27295 16
545 2 -1.77105 -11.9009 6.90367 10
546 2 -0.936356 3.24872 -6.73243 19
547 2 -5.76417 -10.9101 3.59675 14
548 2 -5.20256 6.4661 2.18287 17
549 2 -5.87406 -8.61796 11.1507 13
550 2 -0.931899 -9.33519 9.24983 19
551 2 -11.2582 -1.64461 3.73939 18
552 2 -7.17199 -12.3383 -2.18182 14
553 2 -5.39773 -4.4316 8.39395 19
554 2 6.96204 -2.98917 12.8669 12
555 2 2.61157 9.44284 -8.54256 15
556 2 8.20503 12.6016 2.98155 8
557 2 12.6227 2.30313 -3.89262 12
558 2 -1.15927 13.1979 -1.41944 12
559 2 -8.6828 -4.12121 -6.80168 15
560 2 -9.13043 -1.67487 -2.0762 22
561 2 -2.2535 -13.3543 -0.878577 17
562 2 1.22388 -8.23839 7.53357 20
563 2 10.3909 -9.00829 5.33738 13
564 2 -8.36195 11.0234 -3.59916 10
565 2 8.89685 0.152424 -0.292879 20
566 2 3.02559 0.983977 13.5641 16
567 2 3.99546 8.55591 4.56559 19
568 2 -0.401398 1.26052 12.2773 20
569 2 -9.7009 2.89015 4.53355 15
570 2 5.63286 8.79824 -4.08944 14
571 2 -8.49077 -6.36396 -8.64333 10
572 2 -5.83125 -4.79685 -5.34813 17
573 2 -8.43187 -4.72945 6.94448 19
574 2 9.25857 11.7812 1.03264 13
575 2 11.0515 4.2434 2.56478 16
576 2 9.43212 -7.95526 2.52283 17
577 2 -12.669 -2.1718 0.269233 14
578 2 -2.37656 9.61886 1.99325 21
579 2 -2.60233 7.72778 -4.96595 16
580 2 4.1971 4.61322 -8.68593 18
581 2 -10.447 6.6186 2.77254 15
582 2 -9.53987 -8.55401 3.89202 14
583 2 6.37246 -11.9995 0.386858 12
584 2 4.36396 -8.26606 -0.0591605 20
585 2 -8.50682 8.06356 -0.0848117 21
586 2 -10.0023 4.5651 -4.22813 15
587 2 4.08866 -8.8559 2.75496 15
588 2 4.73874 5.22618 12.0011 14
589 2 -1.39144 2.28441 -12.9649 14
590 2 -3.3098 8.43022 -8.31519 14
591 2 2.86406 1.26969 -9.64861 15
592 2 0.382059 8.97356 0.267845 22
593 2 -8.98959 -1.34227 11.9538 13
594 2 -2.94098 -4.3511 9.93036 23
595 2 -10.6803 -4.58832 -0.183698 18
596 2 2.26572 7.33266 -6.7489 19
597 2 7.44776 -2.06916 -1.6013 21
598 2 2.6423 0.555755 10.0581 20
599 2 1.54502 -2.13853 -11.8055 14
600 2 8.07746 2.84833 1.36935 21
601 2 6.43039 5.05472 1.32475 21
602 2 -8.71251 -4.93657 2.89217 23
603 2 -5.06877 12.7011 -1.23679 11
604 2 -3.87682 4.20911 11.7996 14
605 2 0.377322 -13.474 1.80542 12
606 2 -8.37325 -13.2622 4.36891 8
607 2 8.18795 -2.78525 10.3213 14
608 2 8.25438 4.18481 -7.46291 14
609 2 2.95174 8.66544 1.68849 20
610 2 3.82591 -9.2207 8.2731 13
611 2 9.3459 -10.9763 -6.40678 7
612 2 0.556504 5.09707 -8.83904 20
613 2 1.17929 5.41042 11.8636 16
614 2 2.11179 3.6622 8.41516 24
615 2 8.82009 -6.04344 5.30618 23
616 2 -3.81165 0.0284308 -12.0715 14
617 2 12.1003 -1.82378 -5.18254 11
618 2 -5.06481 9.10091 -0.156556 18
619 2 2.65253 -6.42213 -7.98827 22
620 2 1.83697 3.78692 14.178 14
621 2 -8.37931 5.26909 -6.94093 13
622 2 12.0862 -6.7978 -3.71576 14
623 2 6.39618 10.2439 1.1953 22
624 2 9.60361 5.48531 0.52179 16
625 2 10.4451 3.15238 5.6362 18
626 2 -7.04846 -2.04656 -3.77477 21
627 2 -11.1454 8.21993 -0.0967007 13
628 2 -6.42023 3.57201 -3.14173 21
629 2 10.2517 2.95086 -0.908901 19
630 2 -13.3218 7.01623 0.757723 10
631 2 -3.2596 -7.29208 7.98921 20
632 2 5.05313 -2.12814 9.9396 17
633 2 1.97436 -13.2166 -4.76129 10
634 2 -1.07165 -1.92679 -7.05927 21
635 2 4.43658 12.8637 -1.73681 12
636 2 6.89902 12.9456 -0.510468 11
637 2 -3.09182 -4.29299 -7.38648 21
638 2 -6.33493 -9.04499 -5.96676 13
639 2 12.6063 1.23606 4.21508 14
640 2 -5.45577 6.69911 -1.37684 21
641 2 5.12815 -11.2104 6.23281 10
642 2 8.75572 -4.96175 2.8868 20
643 2 -6.82128 -9.27422 8.94706 9
644 2 -6.24777 -5.38067 -2.20423 19
645 2 3.05997 6.40681 10.0269 17
646 2 3.40602 9.67833 -1.25527 22
647 2 -6.44303 10.7916 4.52624 11
648 2 -4.9059 -6.72263 13.89 10
649 2 -0.760667 11.9491 2.01317 13
650 2 -1.30451 -10.5458 0.827214 19
651 2 -0.366937 -4.13317 11.8215 20
652 2 6.18683 0.0114415 11.3912 18
653 2 -12.2 4.24052 2.55424 10
654 2 -0.73875 3.64405 10.023 23
655 2 -1.39024 -10.3848 -6.71453 16
656 2 13.2449 -5.63269 -0.903705 12
657 2 10.2408 -8.26117 -5.92921 15
658 2 -2.18097 9.80558 -1.74826 18
659 2 -7.2676 -0.744896 14.2573 11
660 2 -10.333 3.9499 -1.16921 14
661 2 13.5974 -4.19983 -3.4139 11
662 2 5.05957 6.06631 -2.08411 20
663 2 -4.25333 3.81457 9.26043 15
664 2 -0.300636 7.693 -7.90613 15
665 2 -11.6491 -3.02642 -2.59623 16
666 2 -3.24531 -1.12959 -8.73323 22
667 2 -0.0872983 6.34218 -4.95111 19
668 2 -6.3276 -1.42528 -7.11602 19
669 2 5.18755 -5.77532 -7.30465 21
670 2 -3.70401 -6.95643 -1.86707 16
671 2 -2.04512 -6.27352 13.0832 15
672 2 7.91063 -2.42127 8.00436 19
673 2 8.07685 -6.87867 -8.00284 13
674 2 0.93184 -11.2273 6.5736 14
675 2 11.0688 9.45771 1.48269 11
676 2 -1.11411 11.5694 8.29791 14
677 2 -9.71435 -7.58662 -1.92214 15
678 2 7.24206 5.6695 -4.92277 19
679 2 1.77824 -7.19683 4.40479 18
680 2 -12.9722 9.11018 3.11454 8
681 2 4.717 0.216742 -5.06023 20
682 2 5.11718 3.56784 6.46741 21
683 2 -12.1064 1.67812 4.18891 12
684 2 0.0132936 9.95514 -5.78953 15
685 2 3.49005 0.154802 -12.7808 9
686 2 -5.20313 0.807068 8.66899 19
687 2 -3.51035 -2.31558 11.9084 23
688 2 12.3482 -1.10026 5.71027 15
689 2 0.700941 0.168201 -14.0946 11
690 2 -9.79233 -4.58537 -3.94001 18
691 2 10.6804 -1.54222 -7.57509 12
692 2 1.56923 -8.34199 -9.83622 13
693 2 -7.82427 3.14754 8.25198 16
694 2 -6.39873 -1.68042 6.94184 20
695 2 4.06486 -12.6885 -1.77091 13
696 2 0.732553 -10.0136 -4.23446 21
697 2 1.04503 -12.1784 -1.43933 20
698 2 12.2437 -2.64178 -0.759735 16
699 2 -5.9449 9.15532 -8.00771 10
700 2 7.14189 8.04499 5.99338 14
701 2 -1.12409 -12.2316 -4.12577 14
702 2 5.9395 0.333192 8.09957 20
703 2 -0.404419 9.13892 9.6091 13
704 2 -6.36131 5.72469 -4.96766 21
705 2 2.04013 -9.81914 -7.19638 16
706 2 -6.00625 -13.7313 2.73017 11
707 2 -8.69005 5.46339 1.45997 20
708 2 5.25652 9.06001 -7.53107 14
709 2 -5.05666 6.83389 -10.9623 12
710 2 4.41445 6.3156 -5.64706 22
711 2 -3.83309 -5.51494 -10.2365 12
712 2 -0.0372295 -7.45727 -7.25537 21
713 2 -11.6385 -2.9309 -5.88374 13
714 2 8.96108 5.49998 6.86662 14
715 2 -5.92703 3.60388 -10.0725 14
716 2 -10.207 -10.3967 1.33281 11
717 2 10.1865 -3.71489 5.59463 17
718 2 4.82718 3.52775 9.16677 21
719 2 7.58147 1.7516 -6.54705 14
720 2 0.698484 9.91804 -2.67306 19
721 2 -0.458477 12.3981 -4.63421 9
722 2 13.2589 -3.48017 3.11245 13
723 2 4.60206 11.9328 -7.30079 9
724 2 0.196469 0.653883 14.8383 12
725 2 0.160739 -4.06716 -8.81829 20
726 2 7.12699 3.33102 10.5635 13
727 2 -3.69649 10.7087 7.0364 14
728 2 8.28181 -10.899 3.00862 12
729 2 7.5842 -7.0955 -5.29175 19
730 2 -0.576342 11.805 5.45517 12
731 2 5.59801 -5.20202 12.4468 12
732 2 -2.96962 11.394 -6.18112 12
733 2 2.15335 11.1606 8.74598 10
734 2 -8.3885 7.77345 -3.53724 12
735 2 2.38868 12.441 -3.36616 13
736 2 -8.17779 -7.22407 -4.75167 17
737 2 4.15588 -3.21455 -9.62688 19
738 2 -6.64531 2.68047 6.11282 17
739 2 14.7088 -3.10535 0.646194 10
740 2 -6.09861 11.1162 -5.90544 13
741 2 -9.10841 -2.02314 8.62687 19
742 2 -3.69979 -10.1999 -4.63062 20
743 2 5.63468 6.31562 8.33298 17
744 2 -0.797425 -6.5981 -10.3174 12
745 2 -6.67516 6.2462 -8.68489 13
746 2 4.83546 6.94784 -10.1615 12
747 2 -2.86051 2.3452 -9.93088 20
748 2 -10.5153 10.6017 1.96863 11
749 2 -5.87939 8.5207 6.73708 14
750 2 5.10217 12.5097 -4.69723 9
751 2 -5.7561 -14.1988 -0.28025 11
752 2 9.20511 -0.368481 -3.04359 16
753 2 4.40806 -5.7179 -4.40757 20
754 2 -11.0475 -13.3938 2.81682 5
755 2 -8.31596 5.29665 -1.88222 18
756 2 -9.77981 -6.57639 6.40407 12
757 2 -3.47599 4.76023 -3.9662 18
758 2 1.89029 -10.0564 10.1294 13
759 2 10.0976 3.27621 8.78967 13
760 2 6.58504 -5.05935 7.27051 21
761 2 -6.12309 -1.83488 10.3661 19
762 2 6.32775 5.98224 -7.89862 15
763 2 4.04062 9.18983 8.06804 14
764 2 -8.14832 -10.1979 -0.375966 14
765 2 -6.95889 -8.53755 5.71655 13
766 2 -9.67546 0.819739 6.76941 17
767 2 -4.45079 9.04528 -3.01519 14
768 2 -12.4966 -5.51851 -5.44787 9
769 2 -7.61512 11.3902 -0.192995 15
770 2 5.18711 -5.73489 9.80536 17
771 2 12.1033 8.34421 4.52648 8
772 2 -3.62425 -12.4653 1.06646 17
773 2 -12.3846 -4.18698 2.65286 13
774 2 -11.8656 0.259677 1.36552 16
775 2 -2.50649 1.55054 9.26669 20
776 2 2.37947 -1.81059 15.0292 11
777 2 -1.03027 -7.10724 6.23233 18
778 2 8.91782 -0.00589793 5.64498 22
779 2 4.29979 -8.20562 -3.17743 17
780 2 -2.55449 6.52393 4.03563 20
781 2 -5.76277 0.729247 -4.86387 22
782 2 -3.76733 -1.79716 8.52356 21
783 2 -0.486786 -6.67374 9.95986 23
784 2 -6.71403 -3.40376 13.5959 13
785 2 0.499903 -4.1625 14.8199 13
786 2 5.20415 3.11938 -6.8637 18
787 2 11.236 6.08155 5.88936 12
788 2 8.15814 -3.96505 -6.75182 17
789 2 9.5213 -5.09751 8.43038 16
790 2 14.2421 2.78619 -1.29195 7
791 2 7.46459 -5.76326 -0.603661 19
792 2 3.99715 10.8091 5.88189 11
793 2 14.2579 -0.87728 3.22926 11
794 2 -3.38153 -7.27078 10.9808 18
795 2 -3.65696 -4.20218 14.3559 14
796 2 -5.97444 -4.83555 11.4758 19
797 2 3.22649 -11.809 0.850201 17
798 2 4.44147 -7.25849 6.36692 17
799 2 12.1525 -6.28773 4.03287 15
800 2 0.63824 -8.21679 11.9975 12
801 2 -5.01006 6.59274 9.30215 15
802 2 7.36475 1.87019 -3.38279 20
803 2 5.36312 -5.78811 -10.1421 11
804 2 4.35117 -9.21283 -9.06738 13
805 2 2.1575 2.78554 -14.2302 11
806 2 -7.08468 1.42988 -8.05211 13
807 2 9.27677 9.72149 3.44332 16
808 2 -8.05306 -4.76998 -0.571399 22
809 2 13.6422 2.92029 1.86011 11
810 2 -9.04127 -2.23884 1.4442 22
811 2 5.98926 -5.13055 4.42816 19
812 2 9.01638 10.4997 -1.61596 11
813 2 13.6405 -0.85145 -2.99807 11
814 2 9.7925 1.65685 -5.20523 14
815 2 3.98637 -8.1996 11.6624 11
816 2 -9.39865 -7.17144 0.874828 19
817 2 10.6683 -1.86883 8.20124 17
818 2 6.55557 -8.04651 3.3007 20
819 2 9.03251 7.91771 -0.232182 15
820 2 -9.82886 3.57705 10.5177 10
821 2 -12.6332 5.82692 -2.43115 6
822 2 9.95131 -2.86379 0.454545 21
823 2 5.53734 -11.6395 3.34417 15
824 2 -5.87485 -9.29747 -2.65608 20
825 2 5.87683 8.53815 -1.22685 16
826 2 6.64504 -9.94314 -2.34039 14
827 2 2.68683 5.89067 3.37235 19
828 2 -4.35199 -10.1437 6.49693 17
829 2 -1.23885 -1.18415 10.2092 21
830 2 -3.49022 9.07794 9.32936 12
831 2 -1.70839 -2.72741 -10.9778 13
832 2 -9.02734 2.66962 -6.02395 17
833 2 -11.1778 -4.67419 8.40783 11
834 2 5.22448 -0.58654 14.3371 10
835 2 -9.09183 -1.00095 -5.87705 18
836 2 8.99517 0.292997 9.52549 19
837 2 7.5954 -4.33739 -3.71985 20
838 2 -5.84605 3.59363 -6.54718 20
839 2 10.2557 7.14467 -2.91652 11
840 2 -4.35065 -10.1962 -0.104515 19
841 2 -4.92083 12.5534 1.44304 12
842 2 1.70084 11.7193 3.39599 14
843 2 7.62791 -8.76266 0.344555 18
844 2 4.7272 -8.81691 -6.08072 20
845 1 -5.98552 -1.31872 -2.00328 20
846 1 -6.57485 -3.65403 -0.297578 22
847 1 -0.540609 -6.88995 -2.36917 25
848 1 -0.542566 -1.22999 -5.32463 21
849 1 -3.00978 -2.2734 -3.4812 22
850 1 -1.22923 -4.36051 -4.15833 21
851 1 -2.78224 -5.43514 -1.96028 22
852 1 -0.803342 -1.7977 -1.80189 20
853 1 -3.40035 -2.10591 0.157772 20
854 1 -1.25147 -4.0524 -0.506131 22
855 2 -6.44993 -1.67427 -0.139147 20
856 2 -0.637519 -7.92447 -0.76603 20
857 2 -3.83505 -1.65339 -5.32892 25
858 2 -0.227555 -4.71302 -5.65327 22
859 2 -3.24269 -4.29779 -3.76433 20
860 2 -1.00096 -2.4245 -3.68643 22
861 2 -3.97122 -1.88408 -1.89963 22
862 2 -0.647998 -4.94346 -2.15901 22
863 2 -3.0084 -4.12704 -0.223018 21
864 2 -1.44751 -1.82072 -0.200681 21
865 1 -6.21576 -1.35585 1.65285 20
866 1 -6.36998 -1.41945 4.91099 19
867 1 -0.534137 -6.86375 0.981567 23
868 1 -0.194606 -7.74279 4.57345 18
869 1 -3.87637 -4.77276 1.56957 21