ITEM: TIMESTEP
34000
ITEM: NUMBER OF ATOMS
1000
ITEM: BOX BOUNDS pp pp pp
-30.0 30.0
-30.0 30.0
-30.0 30.0
ITEM: ATOMS id type x y z Coordination
1 1 4.24736 -13.1185 -2.36271 15
2 1 10.561 -15.1364 16.2304 11
3 1 -3.56317 -1.1059 7.13104 14
4 1 -2.66238 -1.02908 0.664638 14
5 1 5.51553 -10.3321 19.4195 11
6 1 3.03671 -7.44485 0.520454 21
7 1 1.69129 -16.4372 8.58298 17
8 1 13.8585 -7.18392 13.6892 21
9 1 4.39341 2.50986 16.3067 16
10 1 4.39142 8.40855 2.36491 7
11 1 8.61997 -1.64047 19.4235 11
12 1 -0.639227 -6.42581 8.24495 21
13 1 5.68188 -4.96415 -6.30068 8
14 1 9.22314 2.62224 15.4598 16
15 1 9.24374 -15.1369 11.2118 20
16 1 -2.69078 -6.09336 11.4312 20
17 1 -0.496899 -6.18263 4.7859 19
18 1 8.33247 7.83433 11.2436 12
19 1 7.41881 -6.82946 -6.58678 10
20 1 15.1328 -9.27509 -4.73043 22
21 1 5.24264 -12.825 17.8515 13
22 1 -3.25645 -0.545933 10.0702 16
23 1 5.171 3.26634 8.69953 17
24 1 8.90291 -19.2856 10.6448 10
25 1 12.5658 -11.8051 -0.447118 18
26 1 16.3656 -7.07135 14.6977 18
27 1 1.91196 5.42065 4.67319 13
28 1 10.2287 0.796245 13.0382 19
29 1 11.1318 -7.07125 18.2521 18
30 1 -1.59717 -8.39484 6.21705 18
31 1 18.5659 1.02625 13.1913 12
32 1 16.5781 -11.5004 0.702869 16
33 1 13.241 -4.37046 14.9639 18
34 1 1.38433 -8.32891 8.15162 23
35 1 4.99012 -11.1763 -5.10905 13
36 1 4.09583 7.83951 6.13322 12
37 1 3.17875 3.24821 -0.898194 13
38 1 15.5635 -8.94579 6.21414 23
39 1 13.8794 -12.3532 12.0551 23
40 1 12.9576 -10.3385 17.5101 16
41 1 6.8916 3.08333 13.6262 19
42 1 -0.238411 -13.0347 16.0306 10
43 1 -1.34866 -3.41687 13.1645 24
44 1 16.3639 -14.3786 1.28117 10
45 1 12.082 -5.01825 -7.88685 11
46 1 7.27517 8.51042 7.48608 12
47 1 3.31023 -1.48701 0.291908 20
48 1 11.5114 4.2198 8.39147 19
49 1 1.76395 -14.2634 10.9963 17
50 1 10.9722 -13.0845 -4.68595 15
51 1 12.2251 -7.36804 -0.222099 20
52 1 8.40314 -2.24807 13.2608 22
53 1 -4.71438 -13.7234 8.35717 10
54 1 18.3118 -10.5456 11.2234 17
55 1 -0.920686 -10.6501 0.32234 14
56 1 15.9825 -9.42218 9.33654 21
57 1 4.69015 0.563592 9.95893 23
58 1 12.6348 4.33195 -5.67453 8
59 1 17.5524 -15.4014 9.30058 9
60 1 0.26748 -13.6771 5.39118 18
61 1 19.6165 5.5774 9.16172 10
62 1 18.2221 0.661911 8.00008 17
63 1 6.6082 8.63734 3.85913 12
64 1 10.3579 -10.9169 -2.72345 23
65 1 5.79944 5.18941 -0.974866 14
66 1 17.6616 -5.70868 -1.17149 15
67 1 12.7556 -0.206569 -5.18934 15
68 1 17.3037 -12.2413 13.9399 13
69 1 8.79517 -0.386021 -0.414356 21
70 1 15.1981 6.70549 4.7003 14
71 1 19.6243 -3.75556 0.829663 13
72 1 7.4106 4.41897 3.455 19
73 1 9.39546 -7.36951 -2.50273 21
74 1 -4.51325 -5.90886 -0.824415 7
75 1 3.46906 3.98613 14.0309 18
76 1 9.83697 4.42924 5.62849 20
77 1 9.83067 -4.9188 19.5853 13
78 1 -5.15277 -8.63908 10.6299 12
79 1 6.224 -15.2624 12.3935 21
80 1 11.4146 3.79706 3.19397 20
81 1 15.1605 6.02107 -1.65603 12
82 1 7.77323 -13.2232 16.2634 19
83 1 -1.69395 -4.27361 6.54024 18
84 1 5.99041 -0.521105 17.5585 11
85 1 -1.46662 -6.15415 -2.2687 11
86 1 2.75818 -11.3845 9.67271 19
87 1 -0.974093 -15.6764 10.6918 13
88 1 14.3763 -12.4182 2.4686 19
89 1 4.45972 5.03998 4.96678 18
90 1 1.54171 -3.62708 11.5214 21
91 1 -0.00462579 -5.99534 1.00861 17
92 1 10.6778 -17.9893 13.1093 13
93 1 14.7929 -1.36662 -3.48586 15
94 1 13.0747 -4.21556 18.1697 13
95 1 9.07178 -1.34887 -3.594 16
96 1 8.20292 -9.84743 -4.75348 15
97 1 4.26109 5.11594 1.99144 18
98 1 17.0737 -3.89982 14.6892 12
99 1 6.58465 2.506 0.702643 19
100 1 11.2725 1.49065 -2.34439 17
101 1 -0.0202106 -0.954583 15.1662 16
102 1 6.10159 5.37353 15.6117 12
103 1 11.1802 -16.738 -1.08224 10
104 1 12.5175 4.5655 0.239336 19
105 1 10.4371 0.92109 3.63082 22
106 1 -3.83048 -4.35613 8.4745 14
107 1 7.79769 1.72303 17.9424 11
108 1 20.4467 -6.94015 5.92545 15
109 1 10.7718 5.63602 11.078 16
110 1 -1.33107 1.75659 13.8093 13
111 1 -2.95106 -12.7081 5.99715 16
112 1 11.0173 -7.33851 15.1263 21
113 1 9.80568 -18.8415 1.28034 9
114 1 11.4075 -10.3481 -5.83142 14
115 1 19.4546 -3.37087 -2.45706 11
116 1 -2.03995 -9.29506 12.3393 18
117 1 3.78955 -9.33745 -2.88736 21
118 1 0.950787 -9.1905 -2.215 15
119 1 -3.8834 -3.56942 1.78014 13
120 1 16.0347 -6.16519 17.3638 10
121 1 13.0404 -9.89767 13.984 21
122 1 10.1015 -10.2391 12.6131 23
123 1 17.3524 7.24341 6.6046 11
124 1 4.43488 -14.8753 9.21765 19
125 1 9.3322 9.55495 5.80029 8
126 1 9.94666 -13.8025 -1.42376 19
127 1 2.14024 -14.9281 0.459174 15
128 1 5.55814 -12.2615 7.66753 21
129 1 17.2262 -1.68989 12.1233 19
130 1 -1.32284 -9.29001 15.3719 11
131 1 6.24748 -15.8668 6.57552 19
132 1 8.90505 -15.1939 7.69374 18
133 1 14.9932 -14.468 7.03909 17
134 1 0.268841 -0.539613 -1.39143 11
135 1 19.9736 -2.84855 12.935 12
136 1 2.1632 -4.18313 1.53735 24
137 1 3.31611 -0.0265881 -2.92661 13
138 1 4.21943 -9.9433 12.9727 21
139 1 8.29887 3.44017 10.4561 24
140 1 22.0049 -6.28309 11.4889 9
141 1 -0.29581 -6.14918 11.8587 22
142 1 1.63506 -10.1948 14.6899 16
143 1 -0.42615 3.78557 11.6117 12
144 1 13.997 -11.7376 -6.64658 10
145 1 12.122 -13.8656 6.79594 16
146 1 16.7522 -4.63108 -4.00333 15
147 1 -1.4163 -8.87015 9.56147 20
148 1 13.884 -15.3707 4.13085 12
149 1 4.48298 2.1895 3.20677 21
150 1 2.45972 -1.12385 10.0518 22
151 1 12.9026 -13.6417 17.2368 11
152 1 7.07204 0.74835 14.8655 23
153 1 -1.53489 -8.88674 3.05376 17
154 1 3.04744 4.18137 11.0745 18
155 1 -1.02959 -3.15265 3.11026 22
156 1 -3.97668 -3.53311 11.8308 15
157 1 4.67712 -9.92569 0.290594 21
158 1 1.83691 1.18189 11.6813 23
159 1 19.0317 -9.20455 14.3421 11
160 1 11.1418 -12.3696 14.4454 19
161 1 8.06193 -7.02677 17.0333 19
162 1 8.17913 -17.6812 -1.17779 12
163 1 7.67149 -12.9065 -3.7238 18
164 1 -4.86424 -9.02336 4.63121 9
165 1 5.18741 -11.4481 4.35273 17
166 1 21.2958 -5.23226 3.43351 11
167 1 1.99779 -2.81842 -1.81572 15
168 1 1.6241 1.54427 14.4248 14
169 1 -0.824932 4.01759 7.91133 12
170 1 4.25884 1.19995 12.9307 19
171 1 17.7751 -8.90447 -0.310235 15
172 1 17.4384 -0.830248 -2.82351 13
173 1 7.7139 -14.7176 1.28252 16
174 1 9.14584 6.14801 8.80488 16
175 1 -4.74117 -0.912363 3.70352 10
176 1 10.4721 -15.658 2.89041 12
177 1 19.4651 -5.6692 13.9307 11
178 1 -0.679878 -11.2155 4.91235 18
179 1 7.02505 -16.8361 10.1549 18
180 1 2.68004 4.34348 7.24413 16
181 1 1.84547 3.55688 2.76511 17
182 1 5.32978 -16.4178 0.614512 13
183 1 12.9211 -9.62498 10.9152 21
184 1 4.29196 -17.6415 7.83751 16
185 1 0.398129 -0.864243 1.85952 22
186 1 4.43907 -17.4841 10.7601 14
187 1 4.31836 -4.36048 13.1465 22
188 1 -0.193929 -0.6197 11.5709 24
189 1 10.0775 -9.97511 -0.0701235 22
190 1 -4.14661 -4.00613 15.0197 11
191 1 5.36362 -7.43847 14.8574 22
192 1 2.56593 -6.88046 13.2143 22
193 1 9.89317 -12.5939 1.81017 19
194 1 12.4252 -17.9969 9.97997 10
195 1 12.3165 8.69188 4.52363 11
196 1 -3.95177 -14.1694 11.8749 9
197 1 15.5251 -15.0916 12.7502 13
198 1 19.3139 -2.41437 6.91064 22
199 1 11.6999 -5.58965 -2.75902 19
200 1 16.5456 -12.9672 10.5587 20
201 1 1.75483 -7.9836 16.2839 19
202 1 12.7161 2.13566 5.46196 21
203 1 15.7361 -9.62043 12.9831 22
204 1 8.76015 -18.4999 4.38446 11
205 1 12.7305 1.86246 15.2412 13
206 1 2.14492 -8.50603 19.4132 9
207 1 1.28106 -16.8525 5.3633 13
208 1 2.10103 -11.3974 -3.93525 10
209 1 1.08063 5.95005 13.4819 6
210 1 8.22359 -13.7719 4.80425 18
211 1 1.3322 -9.19832 11.6615 17
212 1 19.1232 -5.20533 7.97147 20
213 1 20.7639 -1.01311 11.2595 11
214 1 10.759 1.74924 -6.76945 10
215 1 9.34267 5.10205 0.675294 23
216 1 3.12137 6.02279 16.1718 8
217 1 -3.14528 -11.0369 10.3208 19
218 1 18.1824 4.85555 0.198314 11
219 1 4.30969 -7.52091 -4.90204 14
220 1 12.5835 -8.90703 -3.27219 21
221 1 19.3416 0.914239 5.3038 18
222 1 14.7953 4.11052 3.08608 21
223 1 14.1649 -3.34974 -6.15313 12
224 1 10.8915 -11.5457 7.45151 21
225 1 2.59425 -4.80484 -4.76093 12
226 1 19.6013 1.87843 10.5158 16
227 1 16.7309 -11.3364 7.18464 22
228 1 9.99479 -4.48741 -4.93839 18
229 1 13.987 -11.4744 5.29351 22
230 1 7.71414 -9.94868 17.9084 14
231 1 -0.75174 -3.57655 -0.0100685 19
232 1 11.4831 -1.59426 -7.36529 11
233 1 -4.53952 -7.55212 7.46911 13
234 1 18.183 -4.01069 3.68388 16
235 1 4.86838 2.77317 -3.47233 12
236 1 15.801 -13.1649 -2.14458 13
237 1 8.35263 -0.506265 -7.03899 11
238 1 17.1585 -8.35243 -6.39206 11
239 1 0.478092 -14.9039 13.613 14
240 1 2.06974 1.84957 8.43426 21
241 1 7.48251 2.49935 -6.12112 11
242 1 21.8279 -1.67282 4.80924 10
243 1 10.9511 -11.3332 4.49499 21
244 1 17.7899 -7.59959 -3.70871 16
245 1 19.8075 -8.4645 3.9961 13
246 1 10.9809 -12.2865 11.0817 22
247 1 -3.12188 -1.00119 13.4641 14
248 1 2.31037 -11.6311 -0.231138 20
249 1 4.12738 -10.6988 16.4613 21
250 1 11.7876 7.76348 -5.42293 5
251 1 3.03744 1.03227 1.22117 18
252 1 7.36291 7.33904 1.19927 14
253 1 8.35918 -2.21841 16.3703 20
254 1 13.0741 -15.5878 1.15991 9
255 1 14.5302 -6.60575 -2.04464 20
256 1 -2.50883 -13.6288 9.46118 17
257 1 -0.364958 -1.23038 5.24707 18
258 1 -3.12131 -6.61067 14.3803 17
259 1 16.8325 -1.24763 5.23938 19
260 1 9.55205 -15.9288 -3.77411 10
261 1 9.39592 -10.0223 15.247 19
262 1 14.7135 -5.2441 0.792401 19
263 1 -3.65261 1.85221 12.4409 9
264 1 16.7158 -9.65628 3.55091 23
265 1 11.5207 3.32244 12.6557 17
266 1 7.90409 -4.7221 -2.17602 20
267 1 15.1742 1.9779 -3.66749 11
268 1 4.63319 -3.10801 -3.36284 16
269 1 2.91963 -17.6336 2.6077 11
270 1 21.592 -3.97346 6.55536 13
271 1 17.1237 -11.9062 -5.41447 9
272 1 12.8076 -15.0834 -2.37402 12
273 1 20.9253 3.17966 6.40893 7
274 1 -0.225157 -1.24593 8.58961 20
275 1 19.1579 -0.680247 2.97612 16
276 1 2.8714 -14.1125 16.1485 13
277 1 13.9061 -0.785015 17.0455 12
278 1 -2.81244 -8.72334 -1.41173 10
279 1 20.695 -0.229473 8.13204 18
280 1 18.2483 -13.8908 6.37466 12
281 1 12.4052 5.50399 5.03104 18
282 1 11.0604 -1.96048 14.854 19
283 1 5.93455 -0.288843 1.50674 22
284 1 4.98936 -14.4347 3.36149 21
285 1 6.15354 -0.447795 -4.89054 12
286 1 3.04373 -6.05662 -2.26754 20
287 1 -2.61492 -5.86835 2.18343 16
288 1 14.7661 -15.3863 9.74885 17
289 1 6.95771 -18.4014 13.1781 12
290 1 16.2374 1.11152 3.32901 21
291 1 20.7206 -9.17857 11.0319 13
292 1 17.0733 6.7783 9.35189 10
293 1 19.2186 -5.86643 11.1001 21
294 1 2.70197 -2.24829 17.2292 11
295 1 3.78024 -14.741 6.30389 20
296 1 -2.83356 -13.1258 2.20086 12
297 1 13.8414 -7.3971 17.2636 17
298 1 5.66587 6.08909 9.16477 16
299 1 18.3139 -2.67058 9.52837 19
300 1 14.3495 -2.00929 13.4292 18
301 1 -1.91972 -12.6471 13.2409 15
302 1 13.9367 -6.46069 -5.27678 17
303 1 7.48085 -12.3156 -0.39701 20
304 1 17.6714 4.11872 11.6778 12
305 1 13.2589 0.731324 11.6413 22
306 1 7.17502 -4.61038 18.3769 15
307 1 4.3459 -4.65129 16.6561 20
308 1 1.4817 -5.48847 17.9797 15
309 1 9.92371 5.03008 -2.30382 17
310 1 18.753 5.0247 6.15889 12
311 1 15.1192 6.85509 0.956414 13
312 1 -1.50223 -15.6345 7.11118 11
313 1 14.5057 -1.45421 10.0027 20
314 1 -1.12756 1.27822 6.98565 21
315 1 18.0854 1.24432 0.98198 14
316 1 10.231 -4.55709 16.6227 22
317 1 13.449 6.93081 10.0593 13
318 1 5.83584 -7.60175 -1.72285 22
319 1 17.3625 -10.2058 -3.12726 13
320 1 13.608 7.42899 7.04376 12
321 1 -5.78742 -6.29393 12.39 8
322 1 10.768 -17.3311 6.71895 14
323 1 11.7835 7.24744 -1.60935 12
324 1 13.7263 -8.26018 -7.54208 11
325 1 17.5774 -6.77334 2.14384 18
326 1 6.21364 5.39444 11.7707 16
327 1 8.8346 -15.9438 13.9234 15
328 1 0.0674976 -15.5905 2.80859 13
329 1 5.36421 -1.7451 14.9063 24
330 1 16.6002 -6.49654 7.96113 20
331 1 12.7312 1.70595 1.26928 21
332 1 17.7506 2.04326 -1.68924 12
333 1 15.9796 -2.2891 2.66891 19
334 1 9.63732 5.02015 -5.51934 11
335 1 7.01403 -4.58675 15.0696 21
336 1 6.72875 -15.9501 15.9851 13
337 1 13.6812 -11.8102 -3.41442 20
338 1 -1.11186 3.1411 4.05994 13
339 1 16.1317 1.38129 10.9341 21
340 1 -0.29337 -11.0903 8.14933 19
341 1 13.121 3.71069 -2.5893 16
342 1 4.29771 -6.70186 18.8287 11
343 1 -5.05513 -10.6262 7.26266 12
344 1 17.6601 -6.70803 5.03621 20
345 1 2.39672 -10.7758 6.26778 21
346 1 16.479 -12.6382 4.39139 19
347 1 13.9468 -11.9671 9.22598 21
348 1 8.59922 5.13897 13.521 15
349 1 -1.39167 -4.60202 16.8756 13
350 1 15.8925 -4.39375 10.4227 19
351 1 18.9013 -11.9244 3.00487 12
352 1 14.3021 4.17802 10.992 18
353 1 10.8129 8.78478 9.08861 11
354 1 8.05456 -12.5472 12.7974 22
355 1 -4.92307 -11.5099 -0.189582 6
356 1 11.2964 -1.36202 17.9188 16
357 1 15.9598 2.03224 5.8946 19
358 1 16.0202 -9.69391 16.1111 16
359 1 13.3078 -16.4568 14.9659 10
360 1 17.5698 3.58601 8.89484 19
361 1 6.46506 -15.6943 -2.41359 9
362 1 1.01622 -7.74349 -4.31178 12
363 1 1.01745 -11.2877 17.6487 13
364 1 21.3259 -3.23619 9.50385 17
365 1 8.39813 7.58933 -2.00449 10
366 1 14.6828 -10.0156 -1.25077 19
367 1 5.7447 -17.7399 4.7053 15
368 1 1.63571 -9.68027 1.76128 20
369 1 11.8064 -2.35953 -3.34716 18
370 1 4.90467 -12.8807 1.27965 18
371 1 8.28515 -7.6984 20.2677 11
372 1 4.8067 -12.703 14.2903 18
373 1 19.744 -0.412585 -0.582167 9
374 1 -3.96216 2.21436 8.41237 8
375 1 19.5542 -12.3559 9.17087 14
376 1 -4.03258 -3.98938 4.94709 14
377 1 14.0001 -0.878952 6.47871 22
378 1 10.7849 1.17309 18.3916 11
379 1 0.304514 -13.0653 1.37647 14
380 1 6.37879 -1.83115 -1.49067 19
381 1 19.8427 -11.0712 5.95416 13
382 1 1.98982 -12.3259 3.72213 19
383 1 3.47037 -15.8306 13.8592 16
384 1 16.3481 -7.24445 11.3123 20
385 1 -1.39559 -3.71609 9.89154 21
386 1 7.09525 5.23163 -3.94498 13
387 1 10.4597 -11.8095 17.5128 14
388 1 -0.0549446 -6.37729 14.6559 20
389 1 7.02887 -10.1215 -2.20477 21
390 1 1.52026 -17.4636 11.5931 12
391 1 11.38 -9.3876 19.8644 7
392 1 7.79422 -18.33 7.45417 16
393 1 18.9229 -5.20307 -5.8429 8
394 1 -1.24163 1.49516 10.2178 20
395 1 1.83202 -3.98654 15.0585 19
396 1 6.38697 -19.2047 2.02422 11
397 1 18.0584 3.16128 3.53994 15
398 1 18.9564 -8.96054 8.07175 21
399 1 6.62979 -10.5098 14.1442 23
400 1 17.2984 6.07562 3.21819 13
401 1 15.7432 -3.02703 -1.00938 17
402 1 -1.96794 0.634571 3.29552 15
403 1 15.2193 2.97968 0.295337 20
404 1 14.288 4.45569 7.97148 19
405 1 10.0997 7.0377 3.19925 15
406 1 2.48618 -1.82094 13.6643 21
407 1 14.9296 -5.72875 3.46217 19
408 1 11.7296 -15.3788 9.15381 18
409 1 15.215 0.728803 14.0709 15
410 1 12.9868 -10.0219 1.94366 21
411 1 -0.395078 2.20773 0.994993 13
412 1 7.74011 0.911262 11.6814 23
413 1 7.22832 4.21418 6.89068 18
414 1 5.51263 -12.3199 11.1679 20
415 1 12.9246 -15.4096 11.6622 18
416 1 10.5561 -7.26586 -5.2422 16
417 1 -4.98077 -11.62 3.60566 10
418 1 1.54792 1.55999 5.07206 21
419 1 14.4465 -12.7207 15.1311 19
420 1 -0.282395 -11.7493 11.2801 18
421 1 21.668 -6.94086 8.75016 15
422 1 8.88898 -4.05493 -8.15186 10
423 2 -3.90215 -5.42615 0.790403 12
424 2 8.17307 3.65219 5.04731 18
425 2 10.2278 -6.24272 -3.72055 15
426 2 7.83859 -0.638375 17.5634 16
427 2 4.66842 -9.41486 -4.68706 14
428 2 12.9504 -2.30995 17.6726 13
429 2 -0.495475 -9.06191 7.7892 20
430 2 18.6133 -1.11934 8.52892 21
431 2 -1.65654 -12.2298 1.00606 13
432 2 -2.69244 -4.16135 3.4281 17
433 2 6.18271 -14.0936 16.854 13
434 2 10.2804 -2.17803 16.6031 21
435 2 16.3257 -2.4565 -3.22672 15
436 2 0.404402 4.1771 4.15038 14
437 2 22.2802 -4.79151 10.2585 12
438 2 -4.73028 -5.66719 13.7347 11
439 2 6.25167 -17.5197 11.6385 18
440 2 16.5357 -15.6297 10.9233 12
441 2 3.01499 3.66503 9.032 19
442 2 2.75866 2.3465 3.71401 20
443 2 5.54484 0.700489 11.7557 20
444 2 16.2681 -12.7945 2.40386 17
445 2 6.14985 -3.69627 -2.23862 19
446 2 12.7256 -10.1277 -7.194 10
447 2 18.764 -8.68956 -2.1024 8
448 2 20.3825 1.29771 6.80748 15
449 2 5.33926 3.74393 6.60111 18
450 2 4.6179 -18.0247 1.88713 12
451 2 8.55284 -15.2437 15.9598 11
452 2 15.5173 -6.88956 9.60029 20
453 2 -3.42716 -3.42522 6.83524 14
454 2 15.1294 6.00843 9.28127 17
455 2 16.0209 -13.6783 14.0189 13
456 2 7.75496 4.30552 15.2601 17
457 2 9.65489 8.8939 7.48264 10
458 2 12.9777 -0.154697 1.81189 21
459 2 -0.0171111 -8.08812 15.7142 17
460 2 16.6231 0.899648 -2.79043 12
461 2 0.0927855 -3.5966 1.66447 22
462 2 -3.24822 -2.8995 13.8781 16
463 2 -0.0642249 -15.6915 8.91464 15
464 2 7.22982 -11.4852 7.76438 21
465 2 5.41928 -5.40739 18.1776 14
466 2 5.49277 1.98188 14.3935 22
467 2 -0.441111 -4.14563 8.14834 21
468 2 14.3813 -9.88344 -3.08784 21
469 2 14.5761 -3.92009 2.70827 20
470 2 8.15791 -18.4419 9.22383 13
471 2 11.3018 1.60576 11.5766 22
472 2 16.3279 -13.1704 -0.331654 12
473 2 11.0917 -9.62882 14.1904 20
474 2 7.32242 -11.6027 10.9964 22
475 2 18.676 -5.77364 6.28081 22
476 2 8.28839 -15.3698 9.45644 19
477 2 18.7496 -11.8442 7.47442 17
478 2 1.77731 -11.1397 -2.03724 14
479 2 -2.11784 -14.5086 11.2743 17
480 2 5.69472 -14.5917 1.4969 17
481 2 3.08457 -16.3483 1.05895 11
482 2 12.2114 0.458825 4.56765 20
483 2 13.4524 -2.02084 -4.73452 15
484 2 15.2551 -6.73798 1.90771 21
485 2 8.51553 1.38599 -7.28047 10
486 2 -0.309216 -4.25875 15.0665 21
487 2 -0.35156 -4.28756 5.09025 21
488 2 1.78361 -1.91316 15.6357 16
489 2 -0.223342 0.939375 14.9287 13
490 2 19.443 -1.26162 0.972968 13
491 2 19.8863 -10.5337 4.00868 11
492 2 17.0013 -4.52266 8.55554 21
493 2 2.44463 0.307048 13.4663 20
494 2 2.63208 0.830581 9.95743 22
495 2 17.4976 -2.77202 6.3485 18
496 2 10.1481 4.71844 9.59534 20
497 2 7.02016 6.90655 -0.694185 13
498 2 7.65861 3.94952 12.1267 19
499 2 10.1073 -6.83883 16.6745 20
500 2 14.0474 -10.7777 0.578682 18
501 2 2.61604 -4.13105 17.1366 14
502 2 11.7216 0.150078 -6.65176 11
503 2 -2.44732 -8.44629 13.972 15
504 2 8.97377 -14.1798 2.89399 15
505 2 13.1853 -6.70784 -3.40832 19
506 2 11.5381 -17.7731 8.3226 12
507 2 18.8487 1.00399 -0.740711 10
508 2 8.04978 -1.09782 -5.24341 12
509 2 4.73101 4.89792 10.6567 12
510 2 -3.07008 -12.1238 4.03973 15
511 2 8.02292 4.08147 -5.42733 12
512 2 10.4534 8.63796 4.37574 10
513 2 5.91807 1.34585 17.2875 13
514 2 13.2353 -15.975 -0.762889 9
515 2 16.0845 -2.84722 13.4265 16
516 2 19.4846 -9.75793 12.4156 11
517 2 16.4586 -2.07539 10.4161 17
518 2 4.8386 -1.17167 -3.60384 15
519 2 8.43297 -11.5931 17.2422 16
520 2 8.2827 -9.35468 13.3911 22
521 2 14.3262 -13.9803 11.1106 20
522 2 7.2542 9.06152 5.53634 9
523 2 -0.592421 -15.5785 5.54915 13
524 2 7.60238 -6.73586 -1.82375 19
525 2 6.06565 -11.5305 1.00109 22
526 2 13.6949 3.40612 9.2835 20
527 2 3.87456 -12.7102 3.08113 21
528 2 -3.92566 -1.62918 11.4664 14
529 2 14.484 -10.4195 15.0381 20
530 2 6.92042 -18.4662 3.66225 12
531 2 12.8045 -6.68778 -7.12988 12
532 2 -0.770191 -9.32545 -1.19638 15
533 2 1.78076 -9.3875 -4.03217 14
534 2 4.17082 -8.70331 19.3053 11
535 2 3.45865 -13.4512 -0.514984 16
536 2 16.6545 -10.3745 -1.44901 18
537 2 18.8597 -4.07647 -4.23397 12
538 2 2.77878 -9.50505 10.3233 19
539 2 11.2316 -3.43036 -1.83326 21
540 2 5.4134 -8.4338 1.0754 17
541 2 7.51202 -5.06803 -7.10639 9
542 2 14.452 0.541595 10.1728 19
543 2 18.8316 -3.88454 14.1061 12
544 2 -2.48079 -11.2493 12.0304 16
545 2 5.43931 -14.2159 10.8618 23
546 2 10.8479 -1.25736 -0.287214 21
547 2 4.70737 -11.7544 9.4704 20
548 2 0.349844 2.1249 11.4741 18
549 2 1.75462 -15.2657 14.8876 11
550 2 8.84702 -18.5607 12.519 12
551 2 -4.30895 -7.17374 11.4361 16
552 2 1.48707 -16.7641 3.45217 12
553 2 2.41401 -9.01445 13.1817 20
554 2 11.4227 -11.0712 18.9568 9
555 2 11.1302 7.68443 -3.6185 9
556 2 13.4322 7.29262 4.91568 12
557 2 19.6614 -4.57261 2.62967 13
558 2 8.61874 6.7579 2.21822 12
559 2 -0.231715 -7.07915 -3.14083 11
560 2 -0.885963 -6.92216 2.59717 21
561 2 6.04119 -17.7427 6.6296 16
562 2 10.1946 -12.2381 12.7579 20
563 2 17.1199 -12.0346 11.979 18
564 2 5.10731 1.37876 1.4415 20
565 2 14.7477 -9.26313 2.9792 21
566 2 11.3048 -5.00293 18.4237 16
567 2 11.8799 0.63452 8.20944 22
568 2 8.13684 -4.42208 16.551 21
569 2 1.38223 -1.62369 11.5666 20
570 2 15.5666 -0.660791 3.94414 21
571 2 1.75888 -11.7998 1.66547 18
572 2 -0.369798 -9.75435 1.83087 18
573 2 -0.412541 -9.64676 11.2455 20
574 2 16.2845 3.16096 7.55331 17
575 2 20.7536 0.418879 10.0113 14
576 2 18.2095 -12.8023 4.54176 13
577 2 -3.58145 -8.55965 6.15126 13
578 2 7.78058 6.70489 12.6477 13
579 2 4.26481 4.69471 0.158891 14
580 2 13.7265 3.44291 -4.35005 11
581 2 -2.10516 3.06377 12.2116 9
582 2 -1.19835 -12.0626 9.50553 20
583 2 13.7642 -15.8919 13.3172 14
584 2 12.8159 -11.5413 3.23036 20
585 2 -1.17954 2.30033 2.48065 12
586 2 -0.895911 -0.870122 3.41854 21
587 2 12.4992 -12.1197 6.3275 16
588 2 11.0203 2.37845 14.4727 14
589 2 8.65941 -7.74732 -5.4837 14
590 2 5.69946 4.49962 -2.88967 12
591 2 14.1653 0.481004 -4.26726 15
592 2 10.9751 2.19936 2.08018 19
593 2 1.64613 -10.3527 19.0777 9
594 2 2.50657 -9.8743 16.319 18
595 2 -5.5011 -10.6472 5.26161 11
596 2 10.1687 2.79444 -1.99043 14
597 2 16.9555 -5.41333 3.50173 16
598 2 11.3136 -4.87254 14.9985 20
599 2 5.58959 -6.80335 -5.84958 10
600 2 17.6462 0.357413 6.1877 22
601 2 17.8613 1.9669 9.79545 18
602 2 -0.526293 -9.21873 4.84427 21
603 2 5.51022 3.82958 3.06306 16
604 2 4.49471 -1.38961 16.828 15
605 2 9.10596 -17.8276 6.141 13
606 2 4.80325 -14.5228 13.659 17
607 2 15.7077 -7.93481 16.9723 14
608 2 13.4238 6.5819 -0.324231 12
609 2 13.4109 3.58351 4.42949 20
610 2 12.9632 -12.3688 13.791 22
611 2 15.2972 -11.019 -5.65365 14
612 2 9.79402 -3.08933 -3.87451 14
613 2 9.52368 2.14948 17.4258 12
614 2 10.1965 -1.00376 13.1787 21
615 2 12.9835 -15.3822 16.3442 9
616 2 2.52755 -6.8378 -4.66936 13
617 2 19.2867 -4.51401 -0.891158 11
618 2 2.58342 1.3962 6.7768 20
619 2 9.22584 -14.0149 -4.1167 13
620 2 10.026 -0.568981 19.2806 11
621 2 0.38989 -2.39185 -1.10771 15
622 2 17.6598 -10.4682 1.77485 19
623 2 15.4528 7.4164 6.62452 14
624 2 20.6042 -0.31875 4.14695 13
625 2 18.9839 2.54721 11.9445 11
626 2 3.13616 -3.58583 -0.353166 21
627 2 -3.65995 0.448964 8.18241 13
628 2 5.11753 -1.24736 -0.240167 21
629 2 17.7523 -1.8354 3.78957 18
630 2 -4.19781 -0.501658 5.38942 12
631 2 5.04804 -11.5669 12.8126 21
632 2 13.1422 -7.78885 15.3184 20
633 2 9.93857 -17.7891 -0.151429 10
634 2 5.17819 -9.85125 -1.65171 22
635 2 12.5756 5.6646 7.06476 20
636 2 17.3557 6.08608 5.10411 13
637 2 4.44537 -7.15904 -2.66063 19
638 2 0.243857 -13.6349 3.39653 18
639 2 19.8574 -2.6237 10.8711 17
640 2 5.42878 1.22011 4.74888 24
641 2 11.307 -18.519 11.3524 12
642 2 18.2386 -13.6895 9.70195 13
643 2 -0.613545 -13.7259 14.2373 12
644 2 2.79614 -8.66173 6.32738 20
645 2 14.7628 -0.242671 15.6162 10
646 2 8.60454 4.00971 2.05767 20
647 2 0.723321 4.80139 12.1648 9
648 2 4.11847 -12.5957 16.0964 18
649 2 9.92407 7.45219 10.1945 14
650 2 7.7362 -14.8763 6.18413 20
651 2 5.11136 -9.43992 14.7491 19
652 2 14.1986 -5.47413 17.5827 13
653 2 -1.23089 -0.929625 10.0664 21
654 2 7.28024 -1.41379 14.8707 21
655 2 6.37447 -13.7914 -2.46653 15
656 2 19.4229 -8.79678 6.16303 19
657 2 16.5744 -12.1747 -3.58337 12
658 2 9.12424 4.8329 7.36386 16
659 2 -0.275205 -5.10962 18.3869 8
660 2 -4.81506 -2.89958 3.51587 11
661 2 17.5027 -6.91781 0.202376 18
662 2 16.0508 1.07302 1.06248 21
663 2 4.43018 -1.5994 13.2537 22
664 2 11.0655 3.25031 -6.13673 10
665 2 -3.48707 -8.99433 3.47899 13
666 2 4.46424 -4.11674 -5.23611 12
667 2 6.15843 1.56281 -4.69547 12
668 2 2.87102 -9.39024 0.412652 18
669 2 11.6183 -8.8724 -4.81119 22
670 2 4.16743 -11.4983 5.83969 20
671 2 5.80034 -10.9693 17.6522 16
672 2 15.5618 -7.59126 13.176 18
673 2 17.4556 -9.29594 -4.73909 13
674 2 11.1491 -15.5328 11.2438 19
675 2 20.0297 4.29619 7.76208 11
676 2 5.17348 5.05732 13.9478 17
677 2 2.16645 -13.9668 5.547 19
678 2 15.5997 -2.21265 0.808514 14
679 2 9.8104 -11.7505 9.52538 18
680 2 -3.54743 1.67954 10.4571 11
681 2 10.4839 -6.57169 -0.912006 20
682 2 13.5878 -1.50053 11.6743 21
683 2 -3.23944 -4.45455 10.3878 19
684 2 8.72056 6.01975 -3.36332 16
685 2 15.1185 -4.73337 -5.20417 15
686 2 2.4999 -3.82634 13.2343 23
687 2 2.47222 -7.14298 17.9531 13
688 2 20.8762 -5.64379 12.7766 12
689 2 12.5028 -3.25498 -7.13717 14
690 2 1.18736 -10.8797 4.78045 21
691 2 18.2928 -6.87666 -5.6748 9
692 2 8.66349 -9.18801 -2.85674 21
693 2 -2.92758 0.807904 13.7214 13
694 2 1.51101 -6.86353 11.5408 21
695 2 13.4593 -14.9747 5.87956 14
696 2 6.91241 -16.5464 -0.328144 12
697 2 9.61524 -17.6148 2.97889 12
698 2 21.5774 -3.6097 4.47879 12
699 2 3.55214 1.90844 -2.3238 10
700 2 13.7881 1.59468 13.2896 15
701 2 8.08371 -19.7169 1.35071 9
702 2 13.5052 -5.33873 13.3688 20
703 2 3.27772 2.61188 12.277 18
704 2 2.19996 -0.551811 1.63919 22
705 2 8.02919 -16.6854 -2.89761 11
706 2 2.70203 -17.5329 9.92225 13
707 2 -1.38973 -1.00828 6.78962 18
708 2 16.6102 6.32961 -0.254139 10
709 2 8.29791 -1.38107 -1.92241 19
710 2 15.4871 6.73286 2.77794 12
711 2 6.73883 -11.0511 -4.14575 16
712 2 8.90254 -13.5878 0.256375 17
713 2 -3.78083 -10.2257 -1.24562 7
714 2 15.8892 3.25073 11.7255 16
715 2 2.98196 -4.01081 -3.08019 14
716 2 0.701894 -15.7969 11.6631 14
717 2 17.165 -9.05878 10.8989 22
718 2 12.8601 -2.37238 14.5941 19
719 2 15.3492 -4.96153 -1.12646 15
720 2 7.23183 3.94277 -0.715882 18
721 2 6.16249 8.46833 2.06346 8
722 2 19.7836 -10.1748 9.71701 16
723 2 12.1811 5.29688 -2.06804 16
724 2 8.64037 -3.37321 19.4304 12
725 2 11.6089 -12.5875 -2.31056 18
726 2 12.4532 0.709846 17.376 11
727 2 6.7129 4.5195 8.89776 17
728 2 13.2189 -13.8226 8.58335 20
729 2 14.0062 -8.06749 -0.813263 22
730 2 7.34373 7.27534 9.42121 15
731 2 13.8557 -11.9767 16.9372 13
732 2 3.08913 5.20545 3.30527 14
733 2 8.4341 1.50504 13.6077 20
734 2 -3.57217 -0.485314 2.27302 12
735 2 11.3406 5.02332 1.69884 17
736 2 -4.50147 -12.2922 7.11685 13
737 2 15.1543 -8.10787 -6.28412 15
738 2 -1.10369 -1.29277 13.492 16
739 2 19.4256 -6.76054 9.34965 22
740 2 4.43993 8.17679 4.28375 11
741 2 -1.42959 -5.80769 13.2255 22
742 2 0.296921 -14.8553 0.748317 11
743 2 12.7117 5.52206 11.06 13
744 2 3.87448 -12.2256 -4.01928 12
745 2 1.58213 2.38911 1.10151 17
746 2 11.2152 6.10708 -5.94445 8
747 2 10.3392 -4.76283 -6.96354 13
748 2 -2.25047 2.79792 7.87405 10
749 2 2.89879 2.65268 15.2176 14
750 2 10.5954 5.4444 4.32188 18
751 2 2.76558 -16.5376 6.85145 17
752 2 19.1758 -1.39506 -2.31265 11
753 2 10.8985 -11.7003 0.531624 20
754 2 3.38632 -17.0 12.479 15
755 2 0.0568631 1.14645 8.56538 21
756 2 -3.13446 -8.9944 10.4644 15
757 2 8.17961 1.38802 0.148922 17
758 2 10.6689 -16.3826 14.5147 15
759 2 16.5921 0.023888 12.5149 17
760 2 17.0384 -9.30209 7.43068 19
761 2 1.74218 -6.26313 15.2967 22
762 2 14.5738 4.0935 -1.32076 16
763 2 10.175 4.62538 12.4875 17
764 2 2.60887 -14.9832 9.4874 19
765 2 -3.778 -13.3489 13.4323 7
766 2 -0.432007 -4.02471 11.5059 22
767 2 -0.692491 0.056815 0.315143 16
768 2 -4.47485 -11.8631 1.70709 8
769 2 0.781527 4.50725 7.16761 14
770 2 14.0252 -10.2021 12.2025 23
771 2 17.7761 5.34253 10.0444 14
772 2 5.37296 -16.8467 9.15424 19
773 2 -5.33618 -9.00062 8.65165 10
774 2 -4.31067 -6.04848 8.05872 15
775 2 5.20828 -3.77354 15.1699 22
776 2 8.34909 -5.93968 19.1879 14
777 2 8.087 -14.7033 12.7023 21
778 2 17.5048 -5.47783 11.131 20
779 2 12.2607 -15.6188 2.91439 10
780 2 5.67344 1.32573 8.51601 22
781 2 -3.20613 -6.95987 -1.632 8
782 2 4.46793 -6.28586 13.3018 22
783 2 8.62013 -8.74501 16.6505 19
784 2 -0.114455 -11.0944 15.342 13
785 2 10.0392 -7.98301 19.7892 13
786 2 14.1331 -1.12893 -1.61421 21
787 2 19.5364 -0.625805 12.8199 10
788 2 16.5835 -6.26519 -2.97244 20
789 2 17.0829 -10.1316 14.4705 16
790 2 21.0646 -1.70636 6.69448 14
791 2 16.2857 -10.5131 5.27993 22
792 2 12.648 8.19023 8.74531 10
793 2 21.9196 -7.88066 10.2742 11
794 2 7.26886 -12.2874 14.6048 23
795 2 7.02346 -8.91315 19.5772 11
796 2 1.4486 -12.7751 16.8669 12
797 2 10.8893 -15.353 7.3486 15
798 2 12.6525 -11.4804 10.5126 19
799 2 16.9456 -14.4495 7.5509 16
800 2 7.12074 -16.9548 14.4101 13
801 2 2.62126 5.93439 14.4496 9
802 2 12.4522 1.40098 -0.638623 17
803 2 12.7747 -11.8978 -4.8808 14
804 2 10.9791 -15.7115 -2.48606 12
805 2 9.504 -2.23345 -8.01168 11
806 2 -1.03136 -5.39944 -0.474903 15
807 2 18.4823 6.63148 8.00412 10
808 2 -0.802715 -12.3475 6.64269 18
809 2 20.2708 -3.81229 7.96339 19
810 2 -1.36793 -6.38873 6.52979 21
811 2 14.1198 -9.3518 9.31124 19
812 2 18.0939 4.6783 2.06477 14
813 2 20.9093 -7.07343 3.95992 12
814 2 18.0967 1.12212 3.11823 17
815 2 10.8946 -13.2899 16.4809 16
816 2 -4.17873 -13.1519 10.0679 12
817 2 18.3951 -7.35839 14.5809 16
818 2 15.9784 -11.4265 9.01284 23
819 2 19.2681 3.31063 5.1357 15
820 2 -3.07701 -5.35807 16.1681 11
821 2 -0.448497 1.70512 5.2919 17
822 2 21.5041 -5.99014 7.17517 14
823 2 13.3349 -16.5404 9.29188 15
824 2 -2.65714 -14.2736 7.55232 13
825 2 16.069 3.05846 4.09513 21
826 2 14.4376 -14.4884 2.06867 12
827 2 11.4027 3.07062 6.43142 21
828 2 1.49774 -12.1881 11.1823 16
829 2 6.9519 -6.73077 15.2048 18
830 2 4.55156 4.64035 16.5644 10
831 2 9.84699 -11.249 -5.16194 14
832 2 -2.39186 -2.79833 0.859457 16
833 2 -1.08432 -6.47279 10.1758 22
834 2 12.5208 -8.56728 18.4141 14
835 2 1.71454 -6.21734 1.29939 18
836 2 16.5374 -5.43467 15.4427 14
837 2 17.7402 -8.10047 3.45805 20
838 2 2.20906 -0.543628 -1.53901 17
839 2 17.0795 3.50557 -0.577798 13
840 2 5.25248 -15.6829 4.71876 17
841 2 3.09159 5.97527 6.06193 11
842 2 5.64068 7.33048 7.23298 12
843 2 15.2098 -12.8605 5.7924 20
844 2 14.0549 -13.6908 -2.7699 12
845 1 2.46598 -6.44803 3.43518 21
846 1 1.39657 -8.86869 4.72204 22
847 1 7.57992 -11.6322 2.55097 24
848 1 8.82716 -5.91299 0.0334078 20
849 1 5.6601 -6.31489 1.42104 21
850 1 7.16579 -8.76153 0.729075 19
851 1 4.6378 -8.50922 2.87308 23
852 1 8.27045 -6.93548 3.19697 22
853 1 5.55743 -5.84117 4.7555 22
854 1 7.23893 -8.88821 4.75996 22
855 2 1.38595 -6.20343 4.73948 21
856 2 6.85989 -12.1943 4.32163 21
857 2 4.23198 -6.22682 -0.336499 20
858 2 8.93136 -12.1176 -2.02215 20
859 2 2.56327 -8.51629 3.07698 21
860 2 7.55167 -6.60841 1.24876 20
861 2 4.38278 -6.37417 3.3274 23
862 2 8.37918 -8.78278 2.54887 20
863 2 5.48955 -9.40778 4.31284 23
864 2 7.37748 -7.01949 4.86156 22
865 1 2.71176 -6.09638 6.37125 21
866 1 2.52803 -6.08685 10.0937 22
867 1 7.90561 -11.4662 5.73657 19
868 1 8.09143 -12.1627 9.41259 20
869 1 4.65064 -8.81011 5.93701 21
870 1 8.23275 -6.11315 6.50814 22
871 1 5.29686 -7.07832 8.26688 21
872 1 7.30541 -9.4594 7.86875 23
873 1 4.58233 -9.1316 9.67197 21
874 1 8.11803 -7.0639 9.72165 24
875 1 5.29187 -6.83468 11.5019 22
876 1 7.3833 -9.56179 11.5416 21
877 1 8.19935 -7.20575 13.498 23
878 2 1.5784 -11.0434 8.001 19
879 2 1.51825 -6.43888 8.04772 18
880 2 5.27938 -14.2857 7.4061 19
881 2 4.97874 -6.50828 6.45627 22