ITEM: TIMESTEP
34000
ITEM: NUMBER OF ATOMS
1500
ITEM: BOX BOUNDS pp pp pp
-30.0 30.0
-30.0 30.0
-30.0 30.0
ITEM: ATOMS id type x y z Coordination
1 1 4.51097 -11.779 -7.35938 9
2 1 7.65441 -9.24449 5.15798 18
3 1 -9.94332 8.05318 -5.46275 18
4 1 -10.4081 1.39873 -11.7268 12
5 1 -5.68059 -6.24331 12.7586 17
6 1 -4.88476 1.79068 -8.44508 18
7 1 -8.08915 -14.3005 3.9021 10
8 1 -9.8073 -8.62654 9.7054 15
9 1 -1.86841 0.197189 15.5217 14
10 1 -1.60899 7.1265 6.87946 20
11 1 -2.96617 5.37329 -9.13522 16
12 1 -4.98293 -0.596383 15.4854 13
13 1 12.4561 7.14188 3.70097 12
14 1 5.39082 4.42563 -11.8387 13
15 1 3.5942 -2.95302 -12.145 14
16 1 -6.5367 -2.62539 -5.60888 21
17 1 6.11048 -7.61126 7.38629 20
18 1 6.67168 -5.68468 -3.65216 21
19 1 -5.68923 -11.3802 -5.85247 19
20 1 -5.94659 -8.22455 -11.382 14
21 1 0.322161 0.486567 12.2886 17
22 1 -3.12674 -7.08463 10.9767 17
23 1 1.44984 -4.65767 11.2073 16
24 1 -14.212 -0.754573 1.14923 19
25 1 -10.5526 0.568139 -0.742975 21
26 1 -14.2679 8.11235 -0.00731905 20
27 1 -3.23205 10.4407 -12.3573 12
28 1 -4.45658 -3.25476 -15.5492 15
29 1 -4.23811 2.24822 15.3193 12
30 1 -10.6153 6.66185 -0.263791 21
31 1 -0.586437 10.1012 6.20766 20
32 1 -13.2061 6.86357 -7.20318 12
33 1 -1.75983 8.36529 -7.48548 15
34 1 2.98472 -11.3056 0.909137 12
35 1 2.42503 -8.27154 -3.81833 17
36 1 -6.99124 1.92578 10.7133 21
37 1 -13.8943 1.38755 -8.20804 19
38 1 5.48833 -0.403718 4.56796 15
39 1 -10.4567 11.9184 -4.433 11
40 1 -12.6521 -7.88407 10.6213 11
41 1 -16.4236 1.93299 -9.60663 13
42 1 1.65946 6.55537 6.84651 18
43 1 7.0126 -10.0536 0.969176 15
44 1 13.0967 6.10301 10.8738 6
45 1 11.9881 -0.825374 -7.54162 12
46 1 9.74135 -10.3127 3.09075 9
47 1 5.7635 -5.60989 12.3536 14
48 1 -14.1285 -11.3843 4.93789 13
49 1 -10.806 -0.891118 1.48288 21
50 1 8.40682 -6.26541 10.1538 15
51 1 3.88028 -4.04027 -5.80888 18
52 1 -6.36789 7.41284 10.4876 19
53 1 -2.68204 -4.49347 13.1454 15
54 1 1.35331 -6.05862 -7.17788 18
55 1 -9.95935 12.8816 -1.08388 19
56 1 1.13457 8.95576 -9.33218 20
57 1 2.53934 -2.61798 -2.84089 24
58 1 4.10026 -3.66442 4.91941 18
59 1 -0.185386 -9.41169 4.56971 17
60 1 -13.5344 10.3031 -1.90688 14
61 1 -12.6697 6.92668 2.80484 23
62 1 -5.5353 8.96799 4.79844 21
63 1 -8.55998 -6.20417 9.65653 22
64 1 12.231 -7.80543 -5.65217 7
65 1 -12.0627 3.85563 4.13688 20
66 1 10.0588 -5.9681 -7.48446 16
67 1 4.43444 -5.12039 -13.8863 8
68 1 -10.7968 -3.23169 -9.22829 17
69 1 -5.0402 14.3974 -0.534522 17
70 1 -5.85082 12.9361 -10.4563 12
71 1 1.88597 8.26217 -0.840732 22
72 1 -0.363546 9.29365 0.939795 22
73 1 -7.01194 -4.65261 11.1443 20
74 1 -4.66955 -5.36065 -5.82956 20
75 1 1.97034 -8.43276 -10.6172 12
76 1 -4.14647 2.30185 9.73706 20
77 1 -16.7603 -6.14183 -1.51407 16
78 1 -14.7431 -7.99534 -3.55472 15
79 1 11.3161 -7.87629 0.573081 9
80 1 -8.40683 10.1759 0.617983 18
81 1 0.318474 3.33138 -13.6033 11
82 1 7.70023 8.85823 -7.1943 18
83 1 4.67004 -9.75685 -1.05461 19
84 1 -10.4086 -15.2511 6.5674 7
85 1 -14.668 -6.34463 2.71476 17
86 1 -18.1664 -4.39634 4.04068 13
87 1 7.28944 11.9505 7.70344 13
88 1 -14.5549 5.42322 10.8697 10
89 1 -3.02041 14.4958 -11.3736 11
90 1 -3.84132 -3.32798 -10.5062 17
91 1 4.14126 -3.36354 10.2402 24
92 1 3.67967 8.77754 -3.716 20
93 1 10.7216 7.68799 -1.83809 20
94 1 -14.6966 7.76156 -3.28076 14
95 1 -13.8003 10.8361 1.49559 18
96 1 12.9365 3.81075 -8.51187 13
97 1 11.1711 -5.34584 -4.26625 14
98 1 -7.06218 6.40452 -5.71368 17
99 1 -5.50448 10.8482 2.5053 18
100 1 11.9475 11.7283 -0.0483185 7
101 1 -3.97703 17.4052 -1.3995 8
102 1 -9.12321 -10.6171 -7.83131 17
103 1 -7.02619 12.5318 4.52815 16
104 1 -16.9851 -1.19294 4.35451 13
105 1 13.1806 -2.27065 1.26055 13
106 1 1.65013 11.0704 12.1716 10
107 1 -0.103653 11.2126 -7.14258 19
108 1 0.764145 -0.722447 9.42954 19
109 1 -13.9209 -10.0881 9.53026 9
110 1 -7.99375 -8.6986 6.823 19
111 1 -3.16935 -12.1247 -7.806 13
112 1 -8.08981 10.2814 -9.20184 10
113 1 -1.50182 12.4521 -4.26861 15
114 1 -6.6046 -8.96391 11.0595 15
115 1 -14.1454 5.35742 0.0546626 18
116 1 -1.82782 16.1359 0.831007 12
117 1 -2.92011 9.14751 15.3171 8
118 1 -10.9151 12.0958 2.02366 19
119 1 -4.16328 2.54076 -11.1357 18
120 1 5.96411 -6.5827 -0.457924 19
121 1 -9.95271 -3.94399 7.1084 21
122 1 -13.2884 8.37736 5.88401 17
123 1 -10.024 -8.58266 4.66502 18
124 1 -16.8005 4.37031 -8.19691 8
125 1 -10.6719 -11.9169 -1.69913 16
126 1 2.0384 -9.48859 -7.38077 15
127 1 -11.7289 12.6963 5.12341 11
128 1 -11.554 0.883352 -5.26631 21
129 1 -1.91297 14.2534 -8.65036 12
130 1 -15.7849 2.62335 -2.97423 17
131 1 -10.8786 -0.543175 6.58071 22
132 1 -1.89052 -12.0978 3.64178 11
133 1 -0.251463 -9.03046 9.87208 9
134 1 9.30272 3.4973 1.6452 21
135 1 5.92771 3.21243 -3.91391 22
136 1 -1.33275 2.00732 10.2873 19
137 1 -8.39846 -1.14542 -12.8721 18
138 1 7.49003 -4.22497 -8.28459 15
139 1 -9.07384 -4.44428 -2.84373 23
140 1 -6.39432 12.0226 -6.95948 15
141 1 -6.71402 11.3163 -2.15656 17
142 1 8.31585 2.59434 4.26099 16
143 1 -6.15137 -2.25309 -12.9209 21
144 1 -1.10218 11.7445 -13.7163 9
145 1 -7.86495 5.09536 -7.99949 16
146 1 -8.5038 6.99064 8.10129 21
147 1 -4.79037 6.3172 13.0313 17
148 1 -0.811673 -7.51279 -12.6466 10
149 1 -16.205 -7.99443 1.23908 17
150 1 10.4707 -6.75651 -1.84206 13
151 1 3.61335 9.32749 -11.071 16
152 1 -2.8021 12.2342 -0.37104 14
153 1 -20.0166 -0.0298021 -5.52839 9
154 1 -1.10119 2.78195 13.7958 15
155 1 14.4318 3.85232 2.10268 14
156 1 -0.606764 9.14152 9.6181 17
157 1 -10.6353 9.91373 7.35009 18
158 1 -13.5334 -8.02129 -0.429367 19
159 1 5.61444 1.37725 -12.23 9
160 1 6.00307 1.41559 12.3789 15
161 1 6.17149 11.3638 -8.55413 10
162 1 -3.06067 -11.1987 -4.33675 24
163 1 -3.29607 -0.258831 -16.6318 11
164 1 9.01783 -1.02234 -5.44726 20
165 1 -11.7211 1.27646 9.43185 19
166 1 0.488157 -10.7948 -4.27005 17
167 1 -14.4821 3.44497 -6.15332 17
168 1 -0.28039 11.4251 -1.40917 21
169 1 -3.47763 -0.110197 -11.6827 18
170 1 3.44114 -0.0383223 14.123 13
171 1 7.78231 6.6295 1.27168 17
172 1 10.7523 -3.44767 -6.48278 13
173 1 -14.8055 -2.37895 -11.5406 10
174 1 -18.9744 3.13048 -3.25447 11
175 1 8.84384 -0.483423 11.314 14
176 1 3.19867 -1.88752 7.72674 20
177 1 -10.0075 -8.68508 -5.86407 21
178 1 -0.448081 -7.29905 12.623 10
179 1 -2.828 11.7408 -9.55535 18
180 1 4.09969 6.35038 1.67433 23
181 1 -9.64029 -4.33077 2.13343 22
182 1 1.31197 12.7163 1.36258 19
183 1 -10.1582 -2.71541 10.2229 22
184 1 -15.1602 -4.57499 -4.20186 17
185 1 -14.6617 -10.5201 -6.28007 8
186 1 -13.655 -7.71704 -6.7127 13
187 1 -5.04227 -7.813 2.86076 19
188 1 12.539 1.39423 7.19701 13
189 1 -16.1124 0.813891 7.49217 13
190 1 -6.62672 -8.68841 0.365991 21
191 1 -13.5518 -11.1645 -0.445898 11
192 1 -7.51752 12.8739 0.759176 18
193 1 5.03439 4.00129 -9.21184 24
194 1 -11.5611 -4.15639 -15.1016 12
195 1 -2.63515 -13.1605 0.348689 11
196 1 -10.7221 -6.12813 -7.24489 17
197 1 -10.9364 8.91676 -9.00221 12
198 1 7.64339 7.91274 5.23031 17
199 1 -2.55147 0.0947025 -8.76612 19
200 1 -4.99815 8.03336 -7.40155 15
201 1 -8.50889 9.53789 4.17926 18
202 1 -3.38386 11.3395 -6.67671 19
203 1 10.3671 -2.88046 4.46537 22
204 1 -12.9727 4.15613 8.5674 18
205 1 -11.5041 -2.41363 14.3395 11
206 1 -7.1151 9.83567 7.18739 20
207 1 -3.05401 -5.54209 -8.36996 21
208 1 1.7097 -9.97204 -1.15236 18
209 1 -15.1657 -6.99613 8.50025 12
210 1 -15.0526 -3.50837 3.77634 21
211 1 9.61421 0.46463 -0.673219 19
212 1 5.81316 -7.68407 -12.0026 9
213 1 8.91333 -7.96472 -4.51385 18
214 1 -8.48151 15.7586 0.250513 12
215 1 8.80019 5.66002 7.75996 20
216 1 -12.8584 -1.7626 3.4675 23
217 1 10.6494 -8.44681 -8.82031 10
218 1 -3.73882 9.62464 6.75231 19
219 1 -7.14201 5.81394 4.80912 20
220 1 6.34679 -8.62962 10.7733 12
221 1 13.7466 -2.95443 4.12402 11
222 1 -5.4934 6.94372 7.66098 23
223 1 -10.8315 -5.54966 -0.454731 20
224 1 0.265864 -1.74762 13.8568 13
225 1 -9.23009 14.358 3.30322 14
226 1 -12.1293 2.84125 12.3776 15
227 1 -16.8979 7.11328 5.34662 13
228 1 -4.24012 -8.44225 -8.4134 20
229 1 -11.3275 9.42293 0.220763 20
230 1 7.30006 -0.890067 7.19007 18
231 1 -14.6485 -9.90968 2.15144 17
232 1 10.6799 -8.72005 6.20101 11
233 1 -16.8379 10.0537 0.943336 11
234 1 -5.68034 -1.09592 10.5079 21
235 1 -3.15178 -14.4511 -6.03581 16
236 1 -8.22598 -3.81407 -10.7521 13
237 1 5.0226 -3.12685 -9.53916 13
238 1 1.9489 10.0709 7.88891 19
239 1 -9.1914 1.96828 -3.43778 22
240 1 2.82281 -5.89767 -11.6732 16
241 1 -5.85801 -13.1637 -2.29217 16
242 1 -17.9574 0.0729828 -3.40938 16
243 1 -8.63229 -7.27814 2.51547 21
244 1 5.63632 8.14762 -5.97094 17
245 1 -6.59006 0.547063 -10.9221 16
246 1 -12.1736 -3.39391 -1.86611 20
247 1 -16.1014 5.57913 8.00946 13
248 1 -17.113 7.53232 -0.532189 15
249 1 -9.9419 6.85482 5.09301 21
250 1 5.78879 -2.72593 -3.01471 19
251 1 12.1789 5.19759 -3.1765 19
252 1 -1.1093 -8.13799 -3.31229 24
253 1 -6.86214 10.1747 9.74778 14
254 1 -11.9447 3.67412 -1.86894 20
255 1 2.13857 -14.2393 -6.3088 5
256 1 10.536 -0.296091 8.82229 17
257 1 -8.4433 -4.69237 -7.84925 18
258 1 -11.1301 -10.6277 2.10917 14
259 1 -3.23548 9.44687 0.923898 17
260 1 -17.8947 -2.71148 -4.15479 13
261 1 -13.5172 5.20471 -4.15831 15
262 1 6.59235 9.44493 -11.3028 11
263 1 -2.5533 12.904 2.04097 17
264 1 -18.0648 -2.93046 -1.02722 14
265 1 -5.83629 -10.4057 -3.14704 18
266 1 -12.7092 -3.52918 6.19591 19
267 1 -10.7345 11.6713 -6.95022 9
268 1 1.07833 -8.03798 7.68254 18
269 1 -13.5575 -11.4314 -3.58145 12
270 1 2.54764 0.615934 -11.6729 14
271 1 -11.4387 3.54534 -9.10322 13
272 1 -6.18398 -13.3613 1.38337 13
273 1 9.1065 12.2667 1.72019 18
274 1 -11.8465 -0.701296 12.1932 18
275 1 -13.3292 1.47799 -11.1441 15
276 1 -11.1554 5.71291 10.7178 17
277 1 -11.551 -13.7217 4.20916 10
278 1 4.54439 -8.98452 -8.55053 16
279 1 -16.267 0.108868 -0.959133 13
280 1 -3.1798 -4.66356 7.75078 18
281 1 4.34646 -7.41967 -6.29953 18
282 1 -6.63732 -10.7881 -9.17344 19
283 1 -10.4416 -6.95901 7.22172 17
284 1 -1.56093 -6.30316 -5.88805 19
285 1 -6.61615 -0.807482 -16.1121 12
286 1 6.79724 -11.0339 -2.57127 12
287 1 -5.00072 14.7487 -8.1952 13
288 1 -8.37552 -1.91337 15.2892 13
289 1 -15.9219 -8.21002 5.70982 13
290 1 -1.00457 -6.05315 8.74445 17
291 1 -0.506937 -1.19185 -11.1416 21
292 1 4.10815 -7.03453 9.90788 18
293 1 7.8267 11.049 -5.20569 14
294 1 -9.48168 3.82298 9.75662 22
295 1 -6.30205 15.0045 2.54357 13
296 1 3.6263 -5.58557 7.02514 18
297 1 -3.39876 -15.035 -2.6609 10
298 1 -3.74076 12.0701 5.17194 21
299 1 -11.4153 -11.9483 -5.09176 13
300 1 0.314447 5.95588 9.8409 14
301 1 -6.32737 -2.82315 5.07569 22
302 1 -7.64189 -7.76682 -2.60556 21
303 1 -13.0538 -2.20246 8.71524 24
304 1 -11.7351 -9.37571 -8.45105 11
305 1 -9.40275 8.2509 10.108 13
306 1 -6.44442 -15.8418 -4.8338 10
307 1 -5.6267 -5.00247 -12.6813 16
308 1 -16.5283 -9.62931 -0.879748 11
309 1 -9.75613 -2.29141 4.66495 23
310 1 4.89848 3.0984 10.01 19
311 1 -10.7114 -5.30265 12.0182 17
312 1 -16.7269 4.94886 -4.90085 12
313 1 8.16154 8.82375 2.86005 19
314 1 -8.75712 -13.6195 -3.16885 13
315 1 -6.42799 16.6538 4.49056 5
316 1 2.99005 2.00845 -9.24291 16
317 1 -0.4873 6.49545 14.6105 10
318 1 -14.4445 0.347863 -5.10558 18
319 1 3.46664 13.2171 -6.98473 10
320 1 -8.29434 -13.9014 -6.37937 15
321 1 -8.85663 -10.1333 -11.1314 9
322 1 -1.15412 3.04011 -8.54631 20
323 1 -15.4924 7.89819 2.76203 21
324 1 -3.64163 1.66628 12.366 23
325 1 5.93968 11.7468 -1.70704 16
326 1 3.68654 14.5568 -1.08674 11
327 1 -18.772 0.977203 -8.54515 8
328 1 2.60872 6.05357 -11.2951 17
329 1 1.70549 -8.09143 1.59471 19
330 1 -13.3405 0.990774 -2.33623 18
331 1 -1.86041 8.11851 -14.025 10
332 1 12.7193 6.28865 0.292817 17
333 1 3.38733 -6.11827 2.75463 17
334 1 12.9698 9.37867 -1.45057 10
335 1 -2.01667 1.23399 -13.4585 17
336 1 -2.2129 -8.14424 2.56123 17
337 1 -0.841641 -10.8061 1.7502 17
338 1 1.99386 -11.2349 6.65743 9
339 1 -11.0499 0.506585 -8.37534 18
340 1 -1.06717 -8.39314 -9.56623 15
341 1 1.87185 3.50335 -11.3941 17
342 1 3.20562 -3.18737 13.4754 16
343 1 -18.776 7.75025 7.73007 4
344 1 14.6118 0.670508 -2.9456 13
345 1 8.25677 5.4546 -2.39879 21
346 1 -3.50287 10.3772 -3.32313 19
347 1 -8.65071 -8.0801 -8.84228 18
348 1 -4.45081 6.9684 -12.4986 9
349 1 8.72795 0.136387 -8.08089 14
350 1 -10.1168 4.37073 14.1299 10
351 1 6.82253 14.2452 -0.202774 13
352 1 -13.7096 4.38984 -9.96815 11
353 1 -11.5195 0.861729 4.43736 22
354 1 -1.67583 12.9329 6.93506 17
355 1 -12.619 -5.36011 -11.53 8
356 1 -19.9827 5.4722 -1.08811 9
357 1 -12.3543 -5.52589 8.97609 19
358 1 2.85084 4.99284 -6.50758 22
359 1 7.57533 8.54973 -3.36747 19
360 1 -19.8701 -5.05154 -2.26077 7
361 1 -0.965498 -8.2435 -0.0802785 20
362 1 -8.08188 5.95473 12.2629 16
363 1 -3.54589 -10.0605 -10.8297 11
364 1 8.58379 11.6843 -1.04611 17
365 1 3.21009 10.0348 -7.00941 22
366 1 1.54954 -6.12812 4.86498 24
367 1 -11.9367 7.08092 8.73455 16
368 1 6.5961 6.81395 9.42228 16
369 1 -5.24809 0.543523 -14.0652 13
370 1 -7.91871 -5.93614 -5.41771 19
371 1 5.28125 -0.718892 9.59963 22
372 1 9.63691 6.09473 10.6486 14
373 1 4.48862 11.7799 -4.14629 17
374 1 -18.3782 6.15524 2.31667 10
375 1 8.10991 12.8774 -3.42605 11
376 1 8.21601 -5.84159 5.3049 22
377 1 7.96815 4.16604 -6.92622 22
378 1 -18.4682 -7.53418 4.3564 12
379 1 -7.34023 0.604695 14.3447 16
380 1 -7.83555 14.0368 -5.90992 13
381 1 -1.59924 -10.8897 -1.52222 19
382 1 6.02543 -1.4641 -6.8246 17
383 1 -9.64407 14.8493 -3.28449 10
384 1 -13.2792 -1.6375 -7.14976 18
385 1 8.02728 -8.53684 -1.45847 16
386 1 -17.6773 1.68683 2.60765 10
387 1 -17.2621 -5.47006 6.80745 12
388 1 5.13235 8.2138 -0.902915 21
389 1 -3.50125 -6.75391 -10.9552 21
390 1 0.355958 -4.91223 13.8904 12
391 1 5.61115 5.6834 -6.65403 20
392 1 -15.9907 12.8674 -0.325542 7
393 1 7.62262 2.58746 -1.23415 21
394 1 4.33613 9.02666 10.1929 14
395 1 0.509701 -0.0945647 -8.26928 17
396 1 3.47946 12.5265 7.59443 15
397 1 10.1077 4.57167 -9.51783 13
398 1 -7.75956 -3.97469 -14.845 14
399 1 -8.46612 -10.101 3.06649 18
400 1 -15.8704 -0.600973 -9.40294 16
401 1 11.3853 6.34601 6.47573 16
402 1 11.7667 1.76615 -2.80628 18
403 1 7.83372 -4.17602 -5.44175 19
404 1 5.4486 -8.25795 -3.32434 21
405 1 0.876944 14.7363 7.2985 10
406 1 -11.3234 4.12349 1.31012 21
407 1 8.37405 8.57072 -0.558651 18
408 1 15.309 0.664118 0.046768 10
409 1 10.9303 1.87484 -6.70681 23
410 1 10.976 2.5667 10.5731 14
411 1 -1.80417 -5.98672 5.0286 20
412 1 5.79355 -4.50667 7.44724 21
413 1 9.32063 2.77657 -4.22982 20
414 1 4.92783 6.04439 11.773 10
415 1 -8.44958 1.71689 -8.58394 19
416 1 11.5046 8.07434 9.21964 13
417 1 11.3936 -5.21076 5.27413 16
418 1 7.69345 -3.1926 10.3407 18
419 1 1.72433 2.71647 9.55263 19
420 1 12.1486 10.0647 7.09358 9
421 1 -5.0042 12.5785 -3.96268 20
422 1 11.0665 10.6595 -3.96915 11
423 1 11.0085 1.53637 -9.88798 12
424 1 -3.21834 14.454 -5.66339 13
425 1 -0.793708 -13.1027 -4.31875 14
426 1 -13.6635 1.95016 6.67404 21
427 1 -10.1477 6.25857 -8.35783 13
428 1 -9.71102 -13.3969 1.40413 14
429 1 -10.0031 -4.04716 -12.7484 14
430 1 -15.6646 2.63637 0.103139 17
431 1 5.14212 -6.64834 4.69022 20
432 1 3.42072 14.5364 1.79339 14
433 1 -5.20302 -9.00575 6.05262 17
434 1 -13.7662 -1.90071 -4.2938 17
435 1 -9.5088 0.385921 10.0519 21
436 1 4.05104 9.84438 -14.1395 6
437 1 5.58935 7.42426 -9.75849 21
438 1 6.69865 -10.322 -5.30856 13
439 1 13.8824 0.515301 3.0374 12
440 1 5.66558 9.22213 7.53853 19
441 1 11.094 -0.626123 2.97581 17
442 1 -9.01491 2.35221 12.5896 20
443 1 -19.0272 -5.57085 1.26245 12
444 1 -15.4777 -3.75963 -8.83066 10
445 1 1.43933 -4.57993 7.82556 20
446 1 -8.95249 -4.74924 14.4131 12
447 1 3.489 2.54044 12.3774 16
448 1 -11.5262 15.3349 1.18894 9
449 1 6.13818 5.50676 4.00429 20
450 1 7.27621 10.9198 4.58887 17
451 1 -0.151378 0.286908 -15.7265 10
452 1 -14.1717 -0.603183 5.64145 22
453 1 14.454 3.38237 -5.33995 10
454 1 8.12967 -10.2078 -7.76458 12
455 1 7.55069 1.71135 8.9447 19
456 1 -2.36173 8.92823 3.77038 23
457 1 13.6337 4.25405 5.10922 11
458 1 -8.15713 -1.36844 11.8471 20
459 1 -3.28201 5.93674 10.2506 21
460 1 -1.96505 -4.09534 -13.0119 17
461 1 -9.3208 1.88597 6.6532 17
462 1 12.3136 4.29968 8.1543 14
463 1 11.5676 4.65256 2.59021 18
464 1 3.73011 -11.2659 -2.90136 13
465 1 4.92789 8.68933 3.36818 19
466 1 -1.38944 14.9822 4.48675 14
467 1 -6.2994 15.2451 -3.34898 12
468 1 11.0832 10.4899 4.66073 13
469 1 -9.47114 -9.21487 -0.388909 19
470 1 -1.03791 -2.18908 -15.4524 12
471 1 -12.8697 12.6611 -0.905756 14
472 1 7.62257 -8.06558 -9.82821 14
473 1 9.30038 6.27221 -4.93198 20
474 1 1.30583 10.9052 -4.41885 16
475 1 -8.93486 7.17024 1.94866 16
476 1 4.42398 5.98039 -3.12694 21
477 1 -9.92511 -12.108 8.21524 10
478 1 -1.02157 5.47976 -6.18314 20
479 1 3.98167 11.8079 9.94191 14
480 1 2.94509 3.66982 7.20709 19
481 1 2.04592 14.3283 -4.02487 12
482 1 4.18642 14.8149 5.041 9
483 1 13.7856 3.14268 -0.754 17
484 1 -14.7548 1.21815 3.05423 22
485 1 -3.77288 -11.1531 6.01501 14
486 1 1.66598 -3.04528 -8.57878 19
487 1 -0.546042 12.0577 3.5591 17
488 1 -16.2725 3.46418 5.39014 17
489 1 6.10708 -11.5218 2.91932 9
490 1 2.89083 12.2491 -9.48809 17
491 1 0.731642 -4.66811 -13.5945 13
492 1 3.41875 -10.0145 9.37904 10
493 1 -1.33241 14.5899 -2.42786 12
494 1 -14.4149 -0.370717 10.202 14
495 1 -5.62009 -14.7364 -7.55381 11
496 1 7.44266 -7.29012 -7.00536 20
497 1 -3.81905 9.25294 9.79889 18
498 1 -1.25136 -9.23118 -6.75261 18
499 1 3.39681 -6.32933 12.5557 12
500 1 -4.34677 -10.6379 1.1896 20
501 1 -16.3783 -3.68481 0.917228 18
502 1 -9.10468 -10.6645 -3.65212 17
503 1 -14.7939 2.65901 9.65456 14
504 1 11.3693 4.84739 -5.99389 16
505 1 -5.91265 4.47346 10.7522 22
506 1 -14.8276 10.4115 4.3425 11
507 1 6.03659 -1.95504 1.66959 19
508 1 -1.07596 9.31532 -4.61173 20
509 1 7.74578 0.290398 -2.94474 17
510 1 6.14071 3.23712 1.76259 18
511 1 -9.64566 3.31769 -6.37558 20
512 1 -13.0067 -4.25554 -6.55266 16
513 1 5.69082 0.589191 -9.44458 16
514 1 2.98737 -0.173647 11.303 22
515 1 -15.5703 -3.82329 9.17786 12
516 1 -1.53644 -2.47844 -8.39386 21
517 1 -6.52263 9.55618 -4.6954 16
518 1 0.869241 8.46037 4.08585 21
519 1 -11.9177 -4.98496 4.10309 21
520 1 9.11442 8.38144 -9.67151 10
521 1 -7.75085 -12.0326 -0.269073 18
522 1 -0.226166 13.1222 -11.0956 14
523 1 -11.9924 -0.791067 -13.6478 13
524 1 -2.6172 -2.90548 15.698 11
525 1 -2.38985 4.9742 -12.4091 15
526 1 -14.8949 -3.59155 -1.11839 17
527 1 -11.4612 -6.99858 1.75583 20
528 1 12.441 7.99214 -4.49476 14
529 1 9.34029 -2.96224 -2.92087 16
530 1 -6.29812 3.21856 13.4159 16
531 1 4.61084 -8.85888 1.65251 18
532 1 9.18635 -2.28012 1.1282 18
533 1 11.7527 -2.08979 6.60196 15
534 1 0.22409 12.045 9.24024 16
535 1 -10.7644 0.849255 15.2022 10
536 1 -8.59498 -7.95745 12.9381 11
537 1 9.1346 0.29425 5.83713 18
538 1 7.87271 3.8961 11.4713 13
539 1 -17.2203 -0.929815 -6.5324 17
540 1 10.8037 -4.02771 -0.979975 16
541 1 2.94591 9.48586 1.4012 21
542 1 5.95498 -1.82628 12.5971 18
543 1 -4.76527 12.2251 7.87059 11
544 1 5.09481 -10.3199 6.4477 13
545 1 -10.7083 -0.901133 -3.35579 21
546 1 -2.38138 -0.835958 9.47212 19
547 1 3.43294 11.7462 3.94345 19
548 1 -12.5227 -12.8527 7.27917 11
549 1 8.68408 -3.39905 7.48135 22
550 1 8.28436 -4.73845 1.76618 22
551 1 10.0404 11.3802 8.29601 11
552 1 -5.26901 -2.9819 -8.09408 19
553 1 -13.9871 -2.16335 -14.9877 6
554 1 -6.04938 -6.91054 8.71683 21
555 1 -3.69759 17.2433 2.49138 9
556 1 7.68567 0.509914 1.90801 18
557 1 2.11039 11.7477 -11.735 13
558 1 -1.45586 4.64176 12.0952 17
559 1 6.48019 3.96359 6.82839 19
560 1 7.75109 2.75268 -9.98916 17
561 1 -17.1129 -10.2112 3.2605 10
562 1 11.3842 2.39507 4.1932 21
563 1 -0.296267 -4.67771 -10.4989 23
564 1 -3.76177 -8.13293 -4.90682 21
565 1 14.7194 0.886309 -7.26626 11
566 1 -5.95269 -3.01021 13.8189 20
567 1 -6.54073 -8.62899 -5.65799 19
568 1 5.84185 13.6011 2.35491 13
569 1 -13.5561 5.63521 6.0453 22
570 1 3.04983 6.88569 -8.52822 20
571 1 2.11243 -1.4678 -14.4049 9
572 1 -1.91992 7.54698 12.2417 21
573 1 -5.5734 4.95154 -10.353 13
574 1 7.29669 -4.02375 -0.78734 18
575 1 -12.7154 1.81305 1.4 22
576 1 12.1057 1.66707 0.877461 23
577 1 -15.8268 -2.36807 6.48508 16
578 1 4.54011 6.30638 6.80817 17
579 1 -17.572 -3.80431 -6.554 10
580 1 -10.6798 4.4897 6.75311 20
581 1 -0.67941 1.84975 -11.0394 21
582 1 12.4796 -0.697549 -0.971554 14
583 1 -11.9664 -6.27728 -4.00962 21
584 1 12.685 -0.854073 -4.77766 13
585 1 -15.4102 5.09095 3.35534 17
586 1 -7.97946 -5.63947 0.0876787 24
587 1 -12.974 -7.80957 5.02112 15
588 1 7.18607 -3.33008 4.2051 21
589 1 11.4597 -4.89062 2.22253 17
590 1 -8.51815 7.71924 -2.82286 17
591 1 2.12724 7.89532 11.7201 12
592 1 0.840864 15.2078 -0.448347 11
593 1 -8.93281 12.3266 7.45423 9
594 1 2.06107 15.2711 -10.1807 6
595 1 -2.83326 -1.4509 12.8317 20
596 1 10.6732 -6.39961 8.1905 13
597 1 11.0737 8.89362 -7.12356 8
598 1 -3.83308 -4.11943 10.7074 23
599 1 -10.4835 -3.0282 -5.51331 22
600 1 -19.1237 3.13323 0.605935 10
601 1 -5.78502 -11.9202 3.93071 15
602 1 3.79668 1.20652 7.48194 18
603 1 -3.98661 -9.71257 -1.28872 18
604 1 -16.9172 5.1548 -1.76913 17
605 1 7.18622 1.35107 -5.94586 19
606 1 -11.7674 9.6367 4.05983 20
607 1 -7.99494 -1.29294 7.33926 21
608 1 -8.25936 -13.2313 -9.46985 10
609 1 -0.196473 -12.1792 -6.84814 15
610 1 6.96984 -7.19191 2.45749 16
611 1 1.13636 7.73633 -5.63821 22
612 1 10.7156 4.23086 -0.998729 20
613 1 5.7894 10.5643 1.30758 22
614 1 11.3439 8.61338 1.49073 13
615 1 0.639354 9.6448 -13.0036 12
616 1 -4.20403 -9.01847 8.76308 15
617 1 1.22051 13.1052 5.22401 18
618 1 7.41337 6.21533 -9.52285 18
619 1 -12.9054 9.41721 -5.12542 12
620 1 -12.0692 -9.82094 7.35325 16
621 1 3.32193 9.22489 5.45998 17
622 1 -7.49199 -11.3835 5.84807 14
623 1 4.6818 2.08568 -6.14242 22
624 1 -4.57435 9.64174 12.39 13
625 1 -13.2173 -3.5765 11.4901 14
626 1 5.99468 4.80785 -0.713103 19
627 1 -1.34947 -3.26264 10.1085 20
628 1 2.97627 -9.30402 4.77303 19
629 1 8.26768 8.90614 9.45023 14
630 1 3.40443 -5.48944 -8.91274 16
631 1 -8.02253 7.35987 -10.4206 10
632 1 -5.06729 9.34706 -10.336 14
633 1 -11.6965 7.55034 -2.70888 21
634 1 9.79091 12.5264 5.54978 11
635 1 -1.47229 10.5819 12.0001 13
636 1 -10.6703 -7.68099 -2.42253 16
637 1 10.8259 -3.48653 9.79906 11
638 1 -7.75069 -5.625 4.86566 22
639 1 14.0732 1.52619 -10.6964 5
640 1 8.35411 -9.25893 8.05251 13
641 1 7.04827 -4.77875 -11.6233 10
642 1 -9.79031 -1.91581 -15.4653 12
643 1 -12.9342 -4.0146 1.4268 21
644 1 -9.83305 5.02295 -3.34599 19
645 1 -2.73649 5.06619 14.9114 13
646 1 10.3314 -7.53064 3.19037 16
647 1 -6.74683 -11.0963 8.45415 12
648 1 10.0709 2.88269 7.12454 21
649 1 0.0575651 6.38153 -11.4754 17
650 1 8.82275 5.31427 4.62052 23
651 2 -14.3239 -8.89054 -5.17267 11
652 2 -3.42372 10.3053 -1.30709 20
653 2 2.9011 -1.17041 -12.5846 13
654 2 -8.08165 4.36569 13.3954 18
655 2 -16.8041 -4.61568 -7.86976 6
656 2 1.30268 -1.05889 11.0541 21
657 2 -18.027 -6.93834 2.28056 16
658 2 -11.3321 7.58735 -7.31874 12
659 2 -6.17386 5.99323 11.7465 18
660 2 -15.4906 2.2664 6.4956 17
661 2 6.95655 -0.238679 12.1325 13
662 2 -12.503 -6.3429 -5.82893 18
663 2 -11.8453 1.71863 -1.50319 19
664 2 -5.01475 -7.59321 4.84764 19
665 2 3.42733 10.5826 11.3617 11
666 2 4.18401 0.237832 -5.33012 18
667 2 -3.73094 -9.12566 2.21007 21
668 2 -7.68265 5.93832 -3.7532 19
669 2 -14.8345 0.777166 -10.1192 14
670 2 7.75598 3.57565 8.17971 18
671 2 11.3788 -5.2583 -2.45276 11
672 2 -15.343 -10.98 3.59431 11
673 2 -11.1783 -8.29436 6.17029 16
674 2 -9.84724 -14.7494 4.85526 9
675 2 8.39747 -6.07434 3.06498 20
676 2 0.4429 -10.3996 -6.05103 17
677 2 10.5768 -5.34142 9.88112 11
678 2 5.40562 10.0632 -9.86777 14
679 2 -15.4964 -6.10645 -3.07862 12
680 2 1.65983 -0.392308 13.7717 14
681 2 -14.1634 6.81162 1.56737 20
682 2 -9.02421 0.0824323 15.0914 12
683 2 -5.20309 14.4004 -4.76932 14
684 2 10.6865 -9.01398 1.97421 10
685 2 -6.49825 5.94356 8.9723 21
686 2 -0.851037 11.1921 -5.3297 20
687 2 0.0796513 -5.30886 -5.72758 18
688 2 -2.96959 -4.89982 -6.52465 19
689 2 13.7343 -0.32478 0.357682 15
690 2 -5.60469 0.988344 15.4683 12
691 2 -0.684433 1.97638 -14.6605 11
692 2 -2.84045 12.6134 -12.835 11
693 2 7.27619 8.9097 -5.28411 17
694 2 -9.24207 -2.4033 8.54214 19
695 2 -13.1165 11.3939 4.82289 14
696 2 14.8585 0.551726 -8.99192 7
697 2 0.830205 -4.87917 -8.65473 19
698 2 -17.4458 0.0626305 3.28614 10
699 2 9.67316 12.4874 3.73226 9
700 2 -5.63263 8.50048 6.5771 21
701 2 -5.11494 -6.79958 -12.1823 12
702 2 -10.6572 11.6418 6.55662 11
703 2 0.216146 -4.44864 9.44027 17
704 2 5.45902 -2.31553 4.33859 19
705 2 -15.1641 -2.15863 0.33637 18
706 2 9.55944 -9.73024 5.15584 12
707 2 6.83992 -7.26546 -2.39357 20
708 2 4.71323 12.0814 2.52254 17
709 2 4.59309 -10.9628 1.65619 14
710 2 9.90976 -8.24291 -0.891601 14
711 2 -12.6651 -0.144056 10.7664 19
712 2 9.85882 -3.90562 -4.54296 18
713 2 -6.83211 10.092 3.70675 17
714 2 6.66482 6.46396 6.92113 20
715 2 -11.0244 4.59146 12.2739 15
716 2 6.68914 9.56507 5.87814 18
717 2 11.3907 -5.95803 0.72735 16
718 2 2.23417 10.5279 -9.81299 20
719 2 -11.5836 -4.58933 -8.07872 15
720 2 -9.93846 -0.988933 11.288 17
721 2 1.5984 0.807695 -9.90297 16
722 2 -9.19402 -0.0459684 -7.85853 17
723 2 -13.0052 1.51674 3.32869 22
724 2 -10.4153 -3.9695 3.76258 24
725 2 7.84729 2.33343 2.18697 18
726 2 -1.61044 -6.23221 7.03427 19
727 2 -7.36948 -0.182663 10.6194 19
728 2 5.48757 -3.65738 -12.4254 11
729 2 6.06355 -2.45435 10.5757 19
730 2 -1.34368 6.15765 10.7969 17
731 2 -15.0056 1.29649 -1.67199 18
732 2 6.69158 -3.96205 -10.003 12
733 2 9.09212 3.7227 -2.29134 24
734 2 -8.89867 7.67738 3.68188 19
735 2 -8.03016 -13.885 2.03017 12
736 2 9.36519 -9.61676 -9.20958 8
737 2 0.181104 10.2522 8.0343 17
738 2 11.6062 -8.7718 -7.11776 10
739 2 10.268 -2.60467 8.14501 19
740 2 -17.2319 -8.98414 4.67825 12
741 2 9.17191 8.64592 1.17012 19
742 2 -11.0328 -12.8139 2.69515 11
743 2 9.46678 9.0218 -7.7434 12
744 2 -7.13179 -10.4383 -7.18607 19
745 2 8.19013 -6.27337 -5.58656 20
746 2 0.561568 -13.5386 -5.74048 10
747 2 10.3129 -1.116 5.12905 20
748 2 -13.1404 7.24771 7.40384 17
749 2 8.32122 9.67729 -2.04255 19
750 2 -7.88383 -14.5913 -4.69825 11
751 2 -7.67129 -12.0803 4.01398 13
752 2 -8.08234 -5.58833 1.9159 24
753 2 -7.97108 -7.25679 -0.670371 20
754 2 -5.47777 12.8565 -1.67364 20
755 2 -17.0596 11.6087 0.246422 7
756 2 8.88417 9.9403 4.40261 15
757 2 4.97017 7.04807 -4.67163 19
758 2 -13.0277 6.30928 10.2949 12
759 2 -8.3738 -3.10447 -8.94681 16
760 2 -19.6599 3.54807 -1.33642 9
761 2 -7.31967 1.83867 12.7812 18
762 2 -10.562 0.366476 8.26201 19
763 2 0.0553053 14.7052 5.63324 11
764 2 11.249 6.03073 -1.65921 20
765 2 12.8545 -0.456656 -2.90993 12
766 2 -16.2441 -0.357047 6.12753 16
767 2 -4.03662 10.2379 4.78249 22
768 2 -9.16173 15.0345 -1.4331 12
769 2 -13.4154 5.42091 4.02628 22
770 2 11.2719 -6.07334 3.73651 16
771 2 -10.1649 -10.5385 -5.41315 18
772 2 5.74005 5.72039 -10.5666 17
773 2 9.5712 6.88735 5.90313 17
774 2 -14.735 -9.61304 -0.273434 13
775 2 -0.145001 9.43579 -0.955362 22
776 2 -4.73962 9.11391 -12.2866 9
777 2 -3.41811 11.8001 -4.80368 19
778 2 11.7352 2.40355 8.81185 13
779 2 -3.9987 7.85218 12.5302 18
780 2 11.3277 1.01291 -1.03643 18
781 2 -4.24956 -2.04211 9.40451 20
782 2 -6.69334 -5.416 9.56216 18
783 2 -17.2797 -1.2036 -1.79852 13
784 2 -10.3736 -3.81894 -10.867 13
785 2 6.66894 -8.14429 0.758758 16
786 2 3.19652 -3.50962 -9.95693 16
787 2 11.9961 -2.54804 -0.615909 17
788 2 -11.3498 -0.428949 14.0286 13
789 2 6.72762 2.61499 -11.7269 11
790 2 -12.086 -6.07153 10.9703 15
791 2 -12.1795 -2.3639 -15.5662 9
792 2 -2.88684 -14.2975 -1.14564 11
793 2 6.59401 -10.3084 -0.925802 17
794 2 9.55884 11.7356 -4.16159 12
795 2 -9.69102 10.7066 -8.36647 11
796 2 -4.38191 7.48573 9.42135 24
797 2 -12.3528 -6.69526 3.40055 19
798 2 -19.3842 1.43711 -4.34056 9
799 2 5.2214 7.42085 -7.90581 20
800 2 -3.82056 13.8995 1.03162 19
801 2 -13.2073 -11.5828 8.39667 10
802 2 10.0372 3.85935 3.56953 19
803 2 -2.61596 1.83785 14.5292 17
804 2 -13.2231 -11.611 -5.51671 9
805 2 3.54882 -5.47141 -6.81491 18
806 2 4.49902 1.13156 10.8531 21
807 2 -0.278258 11.9918 5.69027 21
808 2 13.5216 3.07907 -7.00211 12
809 2 3.46776 -1.56845 9.62516 15
810 2 3.27092 13.0439 -5.01095 13
811 2 -14.5269 -0.671837 3.61262 21
812 2 3.83753 -9.17937 -2.6495 19
813 2 -1.81726 16.1404 2.95425 11
814 2 4.41745 6.6595 3.73904 22
815 2 -6.99406 6.01739 -9.7292 15
816 2 7.12245 -4.84468 11.4628 14
817 2 -11.9889 10.3889 2.21722 21
818 2 -4.86376 -4.72196 7.03752 21
819 2 7.34232 -7.70085 9.4101 14
820 2 -10.1688 -12.51 -3.54277 13
821 2 -3.28399 9.57873 -7.45666 16
822 2 -8.70359 -12.428 -7.65049 14
823 2 -4.81834 -12.0261 -3.9237 16
824 2 -2.97285 -1.73825 -9.43807 20
825 2 -4.73753 -8.57996 -6.60609 21
826 2 1.83385 12.1971 8.22057 17
827 2 -10.9183 -5.18669 -2.65397 18
828 2 -17.1018 8.12432 1.16937 13
829 2 8.78867 -3.58322 5.47769 22
830 2 -12.4953 7.9634 -1.08832 17
831 2 -10.0664 -9.89217 -9.36271 13
832 2 -7.75487 3.81305 10.7258 22
833 2 -0.98477 -2.95154 -11.3644 18
834 2 -3.5722 0.591038 -14.9457 16
835 2 2.69188 10.5293 -13.1854 9
836 2 11.4212 -5.88406 -6.21107 13
837 2 -6.19518 -1.24946 -7.59472 18
838 2 -10.3334 6.95356 -3.96057 18
839 2 -10.1899 13.0514 -3.05529 13
840 2 -11.5088 -7.53262 9.01723 17
841 2 -4.41923 -6.59397 -9.11665 22
842 2 2.22214 -2.69816 -6.4066 19
843 2 2.19226 -0.75041 -3.12627 20
844 2 3.1912 10.9853 6.12117 21
845 2 -0.721294 -8.39452 8.29678 15
846 2 -4.69584 -2.22617 -5.95451 18
847 2 13.2348 5.27322 9.29055 11
848 2 9.65316 2.7361 -10.1829 14
849 2 -6.89593 -8.94037 -3.85159 23
850 2 0.268923 11.4891 -12.2529 14
851 2 4.51373 14.9211 3.19821 10
852 2 11.5689 -0.229735 7.10755 15
853 2 -15.2958 -4.517 2.25522 20
854 2 -18.0914 8.4303 5.97316 6
855 2 -6.40549 -10.5566 10.226 10
856 2 -0.992899 7.64171 -5.53207 15
857 2 -16.6297 1.37226 -4.16039 19
858 2 -11.4298 -4.97671 7.4307 20
859 2 1.52894 -3.50197 12.7992 17
860 2 -11.9764 10.967 -0.892349 19
861 2 -7.65948 -8.37283 -10.4734 14
862 2 -17.4618 1.92854 0.655183 13
863 2 3.29755 -5.13444 10.5848 18
864 2 -9.99972 -8.70359 2.47616 17
865 2 -13.2237 -3.49199 4.26452 21
866 2 11.4672 -6.72375 6.32364 11
867 2 3.21442 14.2195 -8.65259 9
868 2 4.01686 12.5693 -1.62378 18
869 2 6.42528 9.89028 3.17725 19
870 2 0.0680934 14.9029 -9.47169 10