ITEM: TIMESTEP
11000
ITEM: NUMBER OF ATOMS
2000
ITEM: BOX BOUNDS pp pp pp
-30.0 30.0
-30.0 30.0
-30.0 30.0
ITEM: ATOMS id type x y z Coordination
1 1 -6.28558 6.45947 -13.1196 14
2 1 -2.8076 -11.2767 -10.0549 17
3 1 6.85531 10.1123 12.1524 15
4 1 10.247 -9.33445 9.17777 11
5 1 -9.94924 8.60921 -7.45829 15
6 1 11.3164 -4.13989 -11.4194 19
7 1 -13.5518 4.52072 -7.89238 14
8 1 1.48886 -7.66134 11.5343 17
9 1 -8.76772 -1.19402 -9.48441 19
10 1 -14.8891 -11.0724 3.03293 10
11 1 8.52754 1.19172 -19.6863 6
12 1 -1.59979 -11.3348 1.32295 20
13 1 -14.4919 -8.56774 1.70445 12
14 1 2.9901 1.50596 11.0885 21
15 1 -2.2359 2.36547 8.98838 23
16 1 -0.508983 8.55944 -10.2719 18
17 1 4.33164 -0.665897 12.1232 19
18 1 -12.7873 2.64733 -11.1459 10
19 1 -11.6487 -1.78026 11.7183 11
20 1 18.2445 2.32999 6.53571 14
21 1 3.07818 8.45794 -9.98276 21
22 1 9.22451 4.03464 -17.7911 11
23 1 16.4835 0.342021 9.2377 17
24 1 -10.4557 3.78185 -8.35371 17
25 1 -9.32207 12.0162 9.81588 9
26 1 6.34196 -13.6999 7.22597 12
27 1 10.2988 -10.234 -10.0549 16
28 1 10.6386 -12.475 -1.45043 14
29 1 -5.39621 -14.373 -2.93028 12
30 1 -6.76253 -9.18662 12.3291 10
31 1 5.8712 -7.75952 -14.1025 17
32 1 15.7892 -11.5215 -10.1673 9
33 1 -0.198576 7.44669 -15.4261 16
34 1 6.02239 3.52024 11.6017 20
35 1 -1.8684 -11.3034 6.7819 19
36 1 12.9976 -3.82077 12.0682 11
37 1 -8.41592 -0.436569 0.391737 21
38 1 -13.1902 1.02998 10.995 9
39 1 -2.61652 11.5199 -4.63639 20
40 1 1.93341 -12.8013 -13.6071 12
41 1 1.60281 1.87906 -12.5822 22
42 1 7.08001 -7.18743 -11.4319 21
43 1 -1.78374 -3.92767 8.92933 22
44 1 -11.1106 8.19389 -0.23647 20
45 1 8.05098 11.6817 -10.7998 12
46 1 4.05174 12.1467 6.05321 21
47 1 -5.38925 7.29277 -7.61883 19
48 1 4.35694 11.5956 -4.94892 22
49 1 5.03187 -11.3057 1.23208 23
50 1 6.68794 -6.75746 -7.29219 20
51 1 10.1867 -11.0649 -14.1775 17
52 1 -7.35931 7.72728 13.2965 10
53 1 -11.8249 -5.00175 -7.1906 18
54 1 -7.31288 8.30833 -5.56985 20
55 1 -3.55834 -8.89788 6.46324 22
56 1 0.490072 13.3577 8.49866 13
57 1 -11.4036 5.97165 -5.7298 20
58 1 -6.74669 10.1425 10.6337 15
59 1 -2.62013 -15.548 9.67452 10
60 1 3.50141 -13.6546 0.248586 22
61 1 5.8284 10.982 9.31524 19
62 1 -12.1103 -0.634433 -9.91702 13
63 1 -9.00105 8.52052 -10.6266 12
64 1 6.02031 5.13937 8.66524 20
65 1 16.1763 -5.81491 -9.83026 9
66 1 8.19924 -10.6118 7.58887 18
67 1 -14.0187 -1.42216 3.63256 12
68 1 7.24371 13.804 2.50382 23
69 1 4.61827 -6.86743 11.6946 15
70 1 -2.06595 -17.4393 6.80974 8
71 1 13.2311 0.253967 8.91765 17
72 1 3.69382 13.2078 9.50347 13
73 1 -1.94037 -5.98752 -10.1513 22
74 1 -11.7017 9.65111 7.76133 8
75 1 -8.13615 10.0431 -2.88854 19
76 1 1.34346 5.59917 -9.78735 23
77 1 12.6218 10.5444 -7.85281 13
78 1 9.73579 -6.1971 3.97749 21
79 1 7.01641 -8.9164 9.73213 16
80 1 -4.54279 13.3299 -5.78541 17
81 1 -9.17006 7.36737 3.10752 17
82 1 -6.65027 -5.47502 10.9379 21
83 1 -4.37948 8.38023 4.78758 18
84 1 -0.641869 -6.81316 9.18631 22
85 1 15.076 -3.7312 -1.94807 16
86 1 -7.20791 2.31073 6.32162 21
87 1 -12.5175 -12.3166 5.9516 12
88 1 10.2777 -8.52545 -4.08587 18
89 1 6.73896 -1.31785 -11.9381 22
90 1 -6.72987 -6.74437 -12.7394 16
91 1 0.978753 11.7996 -0.0811813 19
92 1 -5.60374 6.05865 -10.1113 19
93 1 -0.658435 10.6988 12.3535 14
94 1 0.926201 11.8886 -5.2129 20
95 1 -11.7449 8.62779 2.46553 15
96 1 -1.98326 -9.5269 9.72946 24
97 1 16.9303 -1.07705 6.10509 11
98 1 13.6849 -11.4721 -12.3629 13
99 1 7.84546 -1.71246 11.9764 18
100 1 -6.74164 -7.16015 -1.83474 24
101 1 -6.08072 -9.21156 -4.92298 20
102 1 11.5225 -11.3421 1.70071 16
103 1 9.9266 -1.30639 -12.0319 22
104 1 8.1187 16.9683 -2.16823 16
105 1 -8.72919 -11.7562 7.89874 19
106 1 -6.22806 -12.4476 3.2716 19
107 1 10.372 -13.1875 -11.8929 14
108 1 11.7835 -9.24918 -1.34569 19
109 1 -0.179281 -12.721 9.2227 16
110 1 -7.35143 -8.57838 1.51761 21
111 1 15.9522 4.66672 5.92709 21
112 1 14.3971 -3.42443 -14.5528 11
113 1 -15.0258 -4.59454 3.41301 12
114 1 11.2912 8.13751 3.46522 23
115 1 14.7992 9.93764 6.62246 14
116 1 -4.7456 -0.136484 14.4276 16
117 1 -1.54818 13.775 10.6977 12
118 1 -4.40883 12.1082 -11.5174 14
119 1 1.66677 -5.87301 -9.99084 22
120 1 12.5459 -13.0218 -6.5694 8
121 1 3.00383 15.2451 -9.80363 11
122 1 14.4062 -5.44393 9.88313 12
123 1 -1.42016 -2.81038 -17.4741 12
124 1 -1.05278 10.6715 -7.83798 23
125 1 13.7629 -1.02996 -6.78541 20
126 1 -7.79864 13.9155 -5.5463 11
127 1 -5.93856 12.9966 -2.46055 21
128 1 8.28085 1.58968 -13.1591 22
129 1 10.7409 -9.86009 4.74753 16
130 1 -3.43364 2.4876 -9.9051 25
131 1 -4.62257 10.0402 7.53373 21
132 1 17.1672 3.17819 -8.64941 12
133 1 7.68782 11.3551 -5.13325 22
134 1 -1.4264 14.537 -0.382551 24
135 1 12.6614 11.1506 -2.27467 20
136 1 -3.29905 13.3672 -2.49424 22
137 1 3.70937 17.2918 -5.16239 16
138 1 2.89005 11.2383 -14.3566 8
139 1 -11.5812 -13.234 0.792928 11
140 1 -10.9821 10.2535 -2.4461 15
141 1 -1.41979 -4.07856 -12.8982 24
142 1 10.4858 -9.24024 -16.6564 11
143 1 9.52474 11.83 7.50281 18
144 1 1.83506 14.8118 5.16559 14
145 1 -10.0256 -4.01695 -4.59918 23
146 1 -10.3997 11.9975 2.81759 15
147 1 14.9791 0.223771 -4.2499 17
148 1 -9.05912 3.26795 -12.8305 10
149 1 8.06033 -3.43755 14.746 11
150 1 5.01032 15.3621 0.945284 17
151 1 -0.852598 8.60216 4.93461 22
152 1 7.0185 -7.69709 -17.1617 16
153 1 -1.35803 10.2678 8.55686 21
154 1 0.116458 10.6231 -13.425 17
155 1 4.51388 -3.34227 9.38801 24
156 1 -10.5596 -7.15339 3.88877 19
157 1 -3.68457 -9.948 -14.3402 12
158 1 -5.12579 13.1463 -14.4704 6
159 1 -1.57734 -9.40816 3.77262 24
160 1 8.24057 -14.5624 -2.98996 14
161 1 -1.32376 12.9803 -11.1975 14
162 1 -11.8245 3.6652 10.7912 12
163 1 12.6526 9.22352 -4.92826 18
164 1 -2.2458 3.58732 13.4925 20
165 1 1.0735 -9.90466 9.60174 20
166 1 3.69556 13.9824 3.29508 19
167 1 1.06202 8.06679 7.71717 19
168 1 17.1916 7.46529 13.713 8
169 1 -4.59809 14.2651 0.195819 18
170 1 16.5443 -2.64133 -8.45634 12
171 1 -3.72987 12.0451 11.9605 9
172 1 12.6119 -8.23435 1.20414 18
173 1 -12.4812 -1.23234 6.03427 15
174 1 -6.99963 -6.70429 3.93739 21
175 1 9.37877 4.20994 11.3137 19
176 1 -14.3607 -0.643475 -2.4042 15
177 1 0.0732912 -16.3856 -3.94165 13
178 1 -0.732169 11.1241 3.04287 19
179 1 8.06641 12.7615 10.3676 10
180 1 -1.41998 13.5447 -14.6322 9
181 1 -13.7004 -1.73414 -7.43635 12
182 1 -8.39223 -4.18311 7.73057 20
183 1 1.71449 -9.37096 3.29436 19
184 1 3.72749 -15.6638 8.76056 7
185 1 -14.9516 9.38756 2.17128 6
186 1 18.3907 7.00004 0.250822 10
187 1 -1.88458 -6.56817 -15.1555 15
188 1 8.00306 -3.31381 9.06623 20
189 1 5.77919 -14.5767 3.89341 14
190 1 -0.106069 10.933 -16.3523 9
191 1 8.06016 -10.2583 -12.1794 18
192 1 13.4654 -6.79352 -12.1259 16
193 1 5.47812 4.80404 -16.6259 11
194 1 -3.45213 -3.20717 -9.7501 21
195 1 -2.63174 13.205 -8.47618 15
196 1 -11.1572 -11.9013 8.65914 12
197 1 4.02351 18.2655 0.450983 10
198 1 -6.97066 -2.09484 15.1719 12
199 1 -9.19449 13.1493 -2.83974 13
200 1 9.93216 -0.595888 9.49101 19
201 1 3.47794 -6.95053 -12.9941 19
202 1 -4.15213 10.2355 -7.02427 22
203 1 10.2767 5.66413 -15.1078 13
204 1 -5.81506 -13.6732 8.43491 14
205 1 -9.07321 4.91068 5.77917 18
206 1 -7.56821 4.63642 8.30587 17
207 1 3.06584 -14.8672 -4.85748 19
208 1 -6.21718 -17.5581 2.81353 11
209 1 12.596 -7.46733 -6.22712 15
210 1 14.3331 8.89528 14.9323 12
211 1 8.03848 5.38162 -10.04 18
212 1 -1.03715 10.8255 -2.02439 21
213 1 -8.75381 1.57075 3.2402 21
214 1 -9.55128 10.8592 -5.2118 18
215 1 2.8136 5.23977 8.37899 17
216 1 3.21911 -17.3207 -2.3811 12
217 1 13.281 -0.740728 -1.22256 24
218 1 -7.03069 4.21218 3.18074 21
219 1 -9.2765 -6.36677 -6.57638 16
220 1 6.6806 -0.988923 -17.7341 12
221 1 2.80476 -0.540809 9.09385 24
222 1 9.34312 10.812 -7.60271 18
223 1 6.8892 -8.32454 -4.61872 17
224 1 0.196383 -1.02313 -11.8975 21
225 1 -1.31128 -14.679 4.82449 18
226 1 10.2871 -0.476284 -6.805 22
227 1 -10.651 -3.99856 6.08415 22
228 1 8.63297 -15.332 -6.12499 9
229 1 -10.3121 -8.40059 -8.36352 14
230 1 7.2414 13.6531 -2.41317 20
231 1 1.45233 -5.38895 -15.3501 19
232 1 9.09138 1.4202 11.5132 19
233 1 16.9203 3.37269 0.776989 12
234 1 13.0982 -9.56952 -15.1993 12
235 1 -6.64081 -1.48469 -12.2234 23
236 1 -16.2873 -2.09398 -5.00135 8
237 1 -8.72074 -14.7464 8.03675 11
238 1 8.95411 -6.42588 9.37957 17
239 1 -0.851766 -10.1229 -11.9262 18
240 1 1.65474 7.3712 -12.4175 19
241 1 -3.65906 -8.66608 0.988973 23
242 1 2.50245 10.9945 -2.56472 20
243 1 -9.09539 0.25567 12.6437 16
244 1 -6.54418 -7.60931 -7.33058 23
245 1 -4.98124 -4.36853 -12.8592 21
246 1 1.57546 6.46697 -17.984 10
247 1 -7.91412 -8.37602 -9.8412 17
248 1 15.6302 -6.92548 -14.2612 9
249 1 14.7615 1.67341 -11.3444 15
250 1 11.4142 2.43246 3.47157 20
251 1 -12.3175 -6.77855 8.80012 11
252 1 -1.82841 -9.4802 -1.56212 22
253 1 10.7348 1.80178 14.2053 17
254 1 -7.72142 -13.2905 -0.584378 15
255 1 1.73857 -11.1998 0.936596 19
256 1 -4.59642 16.259 -1.59 13
257 1 5.31921 -0.298203 -14.6788 25
258 1 0.083352 -7.0353 -12.7347 18
259 1 -6.6314 -12.0095 10.7915 12
260 1 -0.290452 5.49523 14.2011 18
261 1 4.99856 -9.25446 -1.43169 20
262 1 -6.10324 -11.4332 -8.74758 16
263 1 -8.2077 6.57611 -8.52314 18
264 1 13.0897 4.21449 6.84946 19
265 1 -7.25029 1.1671 -14.9171 17
266 1 4.5255 5.543 -9.88231 23
267 1 9.67225 -13.1384 -8.37442 13
268 1 -1.20021 14.128 -6.07709 20
269 1 0.244327 11.2641 6.15216 19
270 1 11.3707 1.01656 6.23266 19
271 1 -9.11076 -0.0950964 5.88264 19
272 1 0.219971 -4.38327 11.7581 21
273 1 -6.21894 10.5733 5.12682 19
274 1 7.44525 -5.30792 -14.9735 18
275 1 14.5182 8.86287 -6.66847 16
276 1 8.5134 -11.4613 1.61796 20
277 1 1.02265 -1.46836 11.1742 21
278 1 -14.0307 -4.03202 6.29271 12
279 1 5.21533 -15.4153 -1.74726 18
280 1 -8.77359 7.40987 9.32848 18
281 1 -9.17929 9.98936 13.1326 8
282 1 -12.8576 -6.73487 6.18001 16
283 1 -13.5198 -9.24633 7.53135 9
284 1 13.0053 -2.41764 -3.99273 19
285 1 -10.3535 -9.55272 7.19695 18
286 1 8.47855 -5.64364 -9.27638 20
287 1 14.2654 -8.69868 -4.70871 13
288 1 5.15957 16.6582 -2.3101 19
289 1 -7.34988 10.8494 -7.19035 18
290 1 4.94794 7.79026 12.9394 16
291 1 -10.5388 -1.12204 3.06894 18
292 1 8.32601 -9.10034 -1.2238 24
293 1 -4.58332 10.462 2.33324 22
294 1 6.09908 -12.0131 9.51101 12
295 1 15.7677 -9.26751 1.75497 7
296 1 -0.36694 4.99826 8.41083 19
297 1 2.13639 2.55926 16.8551 8
298 1 -3.04266 13.37 3.41472 14
299 1 12.0111 4.48612 15.7243 13
300 1 -5.77805 11.1499 -4.47031 21
301 1 3.32613 -0.787937 -17.4255 14
302 1 8.75257 -8.45524 -14.4366 19
303 1 -4.57629 5.75174 14.1995 17
304 1 -10.7469 1.69995 4.8422 19
305 1 -4.49661 8.14776 0.394754 21
306 1 9.57095 -1.8949 6.5528 20
307 1 -8.34384 -11.7036 1.1677 21
308 1 8.06894 -5.07044 6.43754 23
309 1 -3.87794 -10.5363 12.7083 12
310 1 -12.7366 10.6122 -0.158739 12
311 1 -0.615967 -0.719275 9.25213 26
312 1 5.40291 -11.8721 -9.3379 14
313 1 -3.35325 -1.31115 -12.3097 19
314 1 9.53238 -4.89451 -16.9985 11
315 1 4.73968 12.4344 0.611225 20
316 1 -8.52625 -0.835307 -4.86472 21
317 1 7.14983 -10.8448 -16.2593 12
318 1 10.5307 4.62571 -12.1954 22
319 1 -3.45997 -13.2772 -7.36375 15
320 1 -9.34352 -5.32839 -9.1754 18
321 1 12.3078 3.34649 12.3519 21
322 1 14.4623 5.94604 -4.45476 21
323 1 -6.51186 3.97289 -14.7635 17
324 1 5.27758 14.8781 5.46799 17
325 1 -14.9828 -3.27271 -2.08342 13
326 1 -5.90238 5.53094 5.78828 19
327 1 -6.33761 11.3861 0.48091 20
328 1 -4.17898 4.82848 8.40692 21
329 1 15.3805 3.4579 12.3446 19
330 1 11.8574 -3.63582 -6.42266 22
331 1 5.08591 -3.75646 15.7224 13
332 1 15.1174 2.32816 -6.4468 17
333 1 0.0319335 -13.9848 -10.5484 12
334 1 2.33938 11.2287 3.10874 21
335 1 -8.46513 1.44309 -7.60178 17
336 1 11.291 -14.0991 -4.27952 10
337 1 12.915 -2.2215 6.48124 20
338 1 -6.35345 -1.27048 -6.94806 23
339 1 -5.06082 -9.47158 3.44252 20
340 1 -6.82245 -6.99238 8.63362 18
341 1 -2.48772 11.9652 0.799892 19
342 1 -9.31615 -8.98338 -4.151 18
343 1 9.4022 5.13827 14.2919 16
344 1 -9.73172 6.8828 -2.79191 20
345 1 2.60556 14.726 -4.78015 19
346 1 5.52677 10.9768 3.30196 20
347 1 -14.9135 -5.82328 0.0418023 11
348 1 2.05502 -9.51531 -6.87704 20
349 1 -10.8609 -1.29784 8.2617 18
350 1 -14.5456 6.14632 -4.76754 11
351 1 4.89214 -9.0184 3.9215 22
352 1 -2.19196 -13.884 -4.33083 16
353 1 12.8018 12.4432 7.65245 10
354 1 11.8876 7.39103 -12.91 9
355 1 -11.0183 6.42615 -9.67189 13
356 1 4.19758 13.2397 -7.43531 21
357 1 -6.9992 4.33862 -7.27396 22
358 1 0.00655946 -12.2044 3.46148 21
359 1 14.3147 9.47672 3.04086 17
360 1 2.87101 6.49535 -14.9762 14
361 1 -11.0805 2.28587 0.907403 17
362 1 -2.78341 -13.9907 1.67059 21
363 1 10.9812 -3.85755 -14.2115 15
364 1 -12.3288 1.78018 7.83761 12
365 1 -12.5361 -4.00743 9.04293 13
366 1 -9.44768 9.6869 5.51132 14
367 1 -9.69456 0.929526 -11.8112 14
368 1 10.7554 -7.37046 -12.2588 17
369 1 0.381592 -8.62046 -9.72664 20
370 1 -5.18975 -3.81901 8.98161 23
371 1 -3.93401 4.13804 -12.0067 21
372 1 9.27572 -11.8087 4.551 12
373 1 5.36829 16.0645 -7.4345 15
374 1 -12.5786 10.6441 4.70862 9
375 1 3.11147 -0.936392 16.2926 11
376 1 -10.5455 -7.18797 -11.2394 10
377 1 -7.27915 -8.98767 6.11227 20
378 1 12.3478 -7.81313 6.70784 12
379 1 13.6288 -5.541 3.54439 14
380 1 17.9033 8.52977 -2.15858 13
381 1 -3.60668 0.737831 11.2947 22
382 1 5.95295 10.6203 -7.51918 20
383 1 5.77553 -16.3089 -4.73745 11
384 1 -2.14551 7.63317 13.3601 17
385 1 6.43431 13.5583 8.30908 15
386 1 -9.23607 -10.8467 -10.0262 8
387 1 11.0062 14.2303 2.40298 14
388 1 7.80324 6.27569 6.05447 21
389 1 -7.03929 -1.54135 8.52481 20
390 1 -2.69954 -8.55053 -4.36907 23
391 1 -9.55059 2.74915 12.6646 14
392 1 -8.79048 -3.3191 -7.37084 20
393 1 -4.72375 14.872 5.52618 8
394 1 -1.39046 -9.06289 -7.17342 21
395 1 2.22445 -9.54831 -13.978 19
396 1 -4.82536 -11.428 0.374596 20
397 1 9.6468 3.74384 6.11788 23
398 1 -3.41028 -4.61559 11.0167 22
399 1 -8.38413 6.00477 -12.2729 15
400 1 11.5859 6.02408 0.982345 23
401 1 -5.93342 -15.0267 0.57785 16
402 1 5.78516 17.295 3.49663 13
403 1 2.07143 10.5896 9.12668 22
404 1 -10.3696 -1.8208 -2.56064 19
405 1 0.677564 16.874 0.476596 14
406 1 10.4727 13.2425 -9.1708 11
407 1 -5.41105 -6.1374 -10.2155 17
408 1 4.16474 1.46804 14.5807 15
409 1 7.16306 -14.3878 -10.8903 9
410 1 1.60634 0.506867 -15.1051 19
411 1 6.82598 -14.2681 0.748795 12
412 1 -7.96395 10.032 2.55878 17
413 1 6.28808 -0.522513 9.26209 20
414 1 11.1699 7.91886 -2.31811 21
415 1 6.07767 10.8852 -2.0472 25
416 1 -5.91567 9.74712 -9.83652 19
417 1 -8.61666 -4.37902 -1.86445 24
418 1 2.25557 14.4766 -0.610812 17
419 1 -4.22517 1.26806 -14.014 18
420 1 12.6495 8.74083 0.687066 21
421 1 10.1991 15.3648 -6.26679 11
422 1 14.3802 2.17738 -2.21165 19
423 1 -2.06476 1.28058 -12.1373 20
424 1 1.51946 -11.078 6.47822 18
425 1 2.66638 -12.6306 8.8773 18
426 1 -6.28108 3.58552 -9.60891 18
427 1 -4.33029 -15.7248 3.72661 16
428 1 4.31124 -9.1535 -16.336 18
429 1 8.99742 10.9735 2.86744 22
430 1 1.1858 4.05396 -15.2149 22
431 1 2.07069 -2.99896 14.2382 17
432 1 -11.9343 1.56473 13.6388 12
433 1 0.469788 -13.7577 0.855631 20
434 1 -10.1162 -2.62654 0.876336 19
435 1 15.4836 -6.06477 -3.93254 13
436 1 11.5447 0.249231 -4.18344 24
437 1 4.23361 -8.73657 -9.4782 20
438 1 4.86782 1.52166 -12.1871 22
439 1 17.0125 -7.17196 -6.50165 9
440 1 -1.69093 -3.32935 14.2755 12
441 1 10.4133 17.7003 -4.39534 13
442 1 -1.5209 -0.859915 -14.9484 20
443 1 10.744 2.41408 -14.7529 16
444 1 -5.085 -5.83115 6.26847 21
445 1 0.426049 13.7709 -2.66792 22
446 1 -7.93406 -5.00412 -14.9606 11
447 1 -13.2914 -0.162552 0.728354 13
448 1 1.87198 -10.8041 -17.7271 8
449 1 -1.1517 -11.0787 11.6949 14
450 1 7.93865 7.51642 -7.33953 23
451 1 18.2095 1.16847 11.7611 11
452 1 16.7536 5.43657 -1.89919 16
453 1 -7.81485 -10.1476 -1.493 19
454 1 -3.84983 -0.574899 -17.2856 11
455 1 -6.1624 12.9285 8.38979 11
456 1 11.8311 -3.6746 -1.62184 21
457 1 0.963315 13.6337 -9.08428 15
458 1 15.2861 5.50215 -10.7098 12
459 1 2.44786 4.94513 14.2634 15
460 1 -8.55019 1.27025 9.19063 18
461 1 10.7044 7.0614 11.9148 21
462 1 12.8287 -1.35507 15.1913 12
463 1 1.06762 3.23463 -18.2012 10
464 1 -3.24828 -6.94064 -7.38905 23
465 1 1.16329 2.21453 8.64254 21
466 1 11.4298 9.32905 8.94185 20
467 1 9.76809 2.97934 -9.28035 19
468 1 -3.91592 8.40528 -4.7594 21
469 1 6.05118 14.6404 -4.97548 19
470 1 14.4989 -4.92501 6.97268 13
471 1 13.6053 -1.08279 -12.1276 17
472 1 12.1304 -12.642 -9.96427 12
473 1 13.7226 8.25769 11.4959 20
474 1 -10.2912 -11.0254 -1.54753 15
475 1 -6.38606 7.60961 -15.4916 9
476 1 -9.81756 -1.71703 14.4151 13
477 1 1.13268 13.7356 -12.5542 13
478 1 6.8895 -12.2311 -1.36521 20
479 1 6.68813 -2.97684 -9.35319 23
480 1 -1.44854 17.6575 -1.99626 13
481 1 -9.3446 -4.38631 -11.8217 17
482 1 6.27207 -11.648 4.31063 22
483 1 -11.9838 -6.66742 0.848134 14
484 1 5.80477 9.85619 -13.1551 13
485 1 -3.47259 9.19002 10.9295 15
486 1 -9.29888 -6.65221 6.05724 17
487 1 -0.353009 -10.5445 -14.8308 14
488 1 3.18564 -5.83472 9.48245 21
489 1 -9.25971 4.9736 -0.246586 18
490 1 9.62816 -1.20212 15.3763 14
491 1 6.71747 17.9042 -4.82762 14
492 1 15.2626 -9.15651 -1.65725 9
493 1 3.37433 6.10682 11.8601 17
494 1 -0.825832 1.95381 -16.2945 19
495 1 -10.8582 -15.7095 5.86972 8
496 1 6.71878 2.14116 -16.6641 17
497 1 0.702818 14.0068 1.85074 17
498 1 13.3457 7.75169 -9.82262 15
499 1 -6.44567 -2.42801 -15.041 14
500 1 -1.60818 -11.2307 -4.56003 23
501 1 -12.0604 -3.87998 -9.92966 15
502 1 13.5355 3.08626 0.854928 18
503 1 18.9913 5.88367 -3.41885 10
504 1 7.15443 -8.78759 -9.39721 15
505 1 12.8347 11.8756 14.5302 5
506 1 5.53365 -9.97689 -7.03939 18
507 1 8.10394 3.91942 -14.7408 19
508 1 9.13122 14.8581 -0.204812 20
509 1 11.5829 7.50132 14.7768 16
510 1 14.4215 8.2377 -2.78174 20
511 1 11.2566 -3.41458 9.04227 19
512 1 16.6368 7.7881 -9.16587 9
513 1 10.8988 -1.0121 12.9332 16
514 1 13.5971 5.84756 13.191 22
515 1 1.3228 -3.28376 9.21981 22
516 1 14.2496 12.2699 -5.28167 11
517 1 -0.175885 -0.684345 16.0457 13
518 1 17.5288 -0.874776 -5.94772 10
519 1 11.2663 2.90751 9.33878 20
520 1 -5.51783 -0.216471 -9.89908 21
521 1 14.8415 7.05124 1.45768 17
522 1 -11.3102 9.75273 10.6366 9
523 1 10.6428 10.1612 12.5935 17
524 1 15.4958 5.89753 15.331 11
525 1 5.88844 9.49006 6.23833 22
526 1 5.13477 12.5893 11.9571 13
527 1 0.00132109 -17.711 -1.03735 13
528 1 -6.18033 7.35729 -2.72139 22
529 1 9.40418 8.87822 -5.5063 21
530 1 11.8858 -0.818759 -14.6222 12
531 1 0.0911051 17.2865 -5.08966 12
532 1 -0.463407 -11.8238 -7.74167 19
533 1 16.5366 -8.83607 -10.8393 11
534 1 -11.0585 5.41016 7.97955 15
535 1 -2.25595 7.06514 -13.0035 22
536 1 -8.80389 -15.046 1.69328 14
537 1 -3.50364 -3.30526 -15.01 17
538 1 -10.9056 2.80647 -5.07717 22
539 1 11.4844 -5.31631 1.28714 20
540 1 12.2596 10.3 5.58475 23
541 1 3.01894 -8.13793 6.65874 22
542 1 -10.7446 -1.62219 -6.88035 20
543 1 4.36167 -3.17549 -18.9936 10
544 1 -4.37454 3.00222 15.1061 13
545 1 5.29768 6.5436 -13.4292 16
546 1 16.5586 -3.28086 8.43491 10
547 1 11.8155 2.07526 -6.7838 24
548 1 12.3272 11.3762 2.51715 20
549 1 6.87576 -12.9412 -6.26113 15
550 1 -9.7055 -4.83835 9.66546 14
551 1 16.3668 -0.0222074 3.62236 13
552 1 3.53178 11.3456 13.6712 10
553 1 8.18205 6.9733 -13.839 14
554 1 -12.2086 8.53994 -4.99938 13
555 1 10.9001 11.8469 -0.147684 21
556 1 -8.0204 -12.1572 -3.91472 15
557 1 12.9597 -0.291193 4.33419 22
558 1 7.15712 17.5326 0.777991 16
559 1 -5.27746 1.64201 8.66722 21
560 1 -10.323 -9.34386 1.51904 20
561 1 -6.75452 -3.39282 -9.58911 22
562 1 14.3805 -2.20819 9.98981 16
563 1 -3.26122 -14.2255 6.81582 18
564 1 16.0316 5.94035 10.7091 17
565 1 -4.33913 10.2378 -1.98022 22
566 1 1.41293 -2.92772 -18.5236 11
567 1 -6.94753 -3.02932 5.9963 21
568 1 10.0792 -2.88567 -9.14578 26
569 1 12.665 -8.91895 -9.84184 16
570 1 9.83546 5.84613 9.11986 22
571 1 -7.85243 -4.75998 13.5559 12
572 1 14.1995 7.26532 5.11645 23
573 1 3.13983 -4.18053 11.731 22
574 1 -2.38961 5.83075 10.9251 22
575 1 4.37763 -3.13725 -15.065 21
576 1 -6.77871 1.55487 11.4641 19
577 1 13.3536 0.469089 12.0195 19
578 1 -6.04612 -11.4178 5.656 17
579 1 16.8689 10.0233 1.32463 10
580 1 7.91066 -11.0336 -3.67 20
581 1 11.4384 17.0368 -1.9024 14
582 1 10.3749 12.6474 4.95877 18
583 1 7.0923 -5.62874 -19.3437 7
584 1 7.76021 13.4704 -7.88719 20
585 1 12.8021 5.19443 3.73243 21
586 1 -4.93315 -9.5849 -1.89852 19
587 1 -0.109365 -0.184759 -17.972 14
588 1 -9.45672 11.2732 0.138231 18
589 1 12.034 -6.73464 -15.0133 15
590 1 13.1729 3.8299 -9.8368 17
591 1 16.0576 11.2145 -2.1853 13
592 1 11.5585 5.75207 -4.75192 21
593 1 14.0366 1.59392 14.8552 15
594 1 16.1541 -0.763557 13.9343 8
595 1 -3.1326 -11.9601 4.26213 21
596 1 -2.7072 8.80985 -16.4629 10
597 1 7.32131 12.054 5.62294 19
598 1 15.6196 -9.74723 -13.7298 12
599 1 14.1647 13.877 -2.5996 12
600 1 7.79569 11.8601 0.0127315 19
601 1 16.8767 -0.853781 -2.09449 13
602 1 7.02315 1.84482 13.9662 13
603 1 -12.1884 -4.21551 2.5437 20
604 1 3.67302 -13.7253 5.86933 18
605 1 -8.22553 14.1918 0.570906 11
606 1 6.17863 9.07486 0.456639 20
607 1 -14.0804 -2.95905 0.699339 14
608 1 -1.368 2.64631 16.6589 11
609 1 -3.87723 6.15145 -16.2025 16
610 1 -3.32741 8.95965 -10.2492 19
611 1 3.66185 -11.8594 -2.01611 19
612 1 9.78411 4.91925 -7.14972 21
613 1 -10.6646 6.177 12.7203 10
614 1 7.70252 -2.59343 -14.875 17
615 1 4.9541 -10.49 6.97011 24
616 1 4.08146 13.4427 -2.51443 20
617 1 -1.54509 0.42996 14.059 16
618 1 -3.28424 -7.06247 -12.706 20
619 1 -1.51593 -12.9374 -13.4547 11
620 1 -4.17608 -10.2021 -6.7588 19
621 1 0.919577 15.2151 -6.66884 15
622 1 4.79436 -5.53328 -9.61998 21
623 1 -3.06235 11.2253 5.35032 21
624 1 12.0104 -6.07084 -8.71795 16
625 1 5.30768 -16.5792 1.63352 13
626 1 6.01169 -5.68578 9.40564 20
627 1 15.6829 0.0906923 -9.03192 17
628 1 2.98719 -15.763 -7.50386 9
629 1 -8.415 -2.46582 11.0178 19
630 1 -7.92446 -14.9224 4.72926 16
631 1 -4.51742 -11.924 -4.35717 20
632 1 -7.80651 1.31089 14.9465 12
633 1 -1.6732 -15.5206 -1.00894 17
634 1 16.8687 7.54833 -5.28049 16
635 1 -2.24258 16.6359 1.33808 13
636 1 -12.875 7.37321 -2.08625 15
637 1 15.1158 2.75302 3.54195 19
638 1 -12.993 -3.21163 -4.87331 20
639 1 2.52387 10.5359 -7.41676 21
640 1 12.0423 -0.0987241 -9.66903 20
641 1 8.5321 8.51527 14.0886 13
642 1 13.0525 3.3955 -4.21684 22
643 1 -14.0058 3.01861 -5.84697 13
644 1 -12.8302 -5.74304 -3.72799 10
645 1 1.37848 8.11025 13.6361 16
646 1 6.83895 4.32255 -11.915 19
647 1 15.9151 10.3114 9.91776 8
648 1 -2.09932 -1.65908 12.0416 24
649 1 1.89909 -14.846 -1.61724 22
650 1 -8.51158 -9.61497 9.85038 14
651 1 -1.8065 -7.35192 12.1066 18
652 1 16.7439 7.52223 7.96538 16
653 1 5.11667 -10.3776 -13.1545 16
654 1 -8.14754 8.28972 0.139989 21
655 1 7.60667 8.18755 3.61312 23
656 1 -8.71624 -4.09479 3.76574 23
657 1 9.80705 8.00906 -10.7822 15
658 1 0.0737038 -14.68 -6.9881 16
659 1 2.77891 -16.8688 0.967907 16
660 1 -0.0802157 -16.5849 2.31707 15
661 1 6.57114 2.6491 -10.0836 21
662 1 10.3297 17.3209 0.813004 12
663 1 -2.45105 3.96423 -14.8471 19
664 1 -0.760736 1.0045 11.2918 23
665 1 -0.931309 5.35418 -17.2875 15
666 1 -11.2392 -1.49162 -12.2747 10
667 1 -8.52332 -6.21344 1.5298 24
668 1 2.00969 16.6802 -2.3364 18
669 1 -4.96035 -6.84884 -15.6907 12
670 1 13.1116 5.18491 -7.4774 20
671 1 14.8579 -5.25692 0.824637 16
672 1 -6.21911 7.80749 7.17145 17
673 1 7.97661 -9.27359 4.17059 22
674 1 12.7894 -2.38398 1.55431 22
675 1 13.6735 -10.1816 4.28009 9
676 1 2.99838 9.08432 5.70651 22
677 1 -7.64869 5.15405 11.9157 15
678 1 -2.38559 5.75915 16.2934 12
679 1 -5.80077 -16.6336 6.39342 13
680 1 5.10087 7.60883 9.11049 18
681 1 -12.2579 1.12746 -2.12151 17
682 1 11.5189 -5.48493 -3.90935 22
683 1 -6.11379 13.1251 -8.57636 13
684 1 0.303506 -15.5413 8.24636 11
685 1 6.36491 -1.21588 15.555 15
686 1 -1.51989 14.7909 6.83558 10
687 1 3.38442 -11.823 3.74435 22
688 1 4.626 2.44655 8.56616 18
689 1 -11.7891 -4.62646 -1.4045 24
690 1 7.56766 6.94584 11.355 19
691 1 10.3786 13.9913 -2.72397 24
692 1 -13.4575 -10.459 -0.25709 11
693 1 -3.07798 -17.1426 1.3515 11
694 1 5.68727 -3.41158 12.282 20
695 1 11.2161 -5.20719 6.89887 22
696 1 11.0586 6.77248 6.49723 21
697 1 -3.66451 -8.87688 -9.93028 21
698 1 -6.09486 1.37558 -11.9752 19
699 1 2.43779 -6.20892 14.1461 10
700 1 0.679399 16.6429 3.54161 8
701 1 18.9747 5.23773 7.41232 13
702 1 4.61577 7.60338 -7.47663 22
703 1 -5.19463 6.39078 10.7408 17
704 1 13.0282 11.3091 10.9538 10
705 1 8.44364 -4.30829 -11.63 22
706 1 -2.92037 -12.4202 -1.70432 21
707 1 14.6588 3.02309 9.53474 20
708 1 5.2547 -4.01863 -12.3213 20
709 1 -0.273686 8.35723 10.7802 20
710 1 14.837 -9.0126 -7.82398 12
711 1 11.6741 1.8064 -12.1556 22
712 1 13.5737 4.31498 -13.2087 12
713 1 14.9042 0.638639 0.880197 19
714 1 3.86253 -9.17074 10.0621 16
715 1 2.54691 -11.3199 -11.3075 16
716 1 12.6619 15.4073 -4.57365 11
717 1 -13.2154 4.17337 5.61091 6
718 1 16.3997 5.57909 -7.23419 17
719 1 17.3686 7.00457 5.09854 11
720 1 4.7948 -6.07417 -16.3483 21
721 1 -6.61342 13.1064 2.88716 15
722 1 18.7494 7.02806 10.4764 10
723 1 10.4776 12.5956 -5.9986 21
724 1 3.77984 2.33503 -15.1454 18
725 1 10.1924 -6.41967 -1.42755 21
726 1 -8.76887 1.0952 -2.28699 19
727 1 9.42307 5.04383 3.41586 21
728 1 -10.0452 -7.33112 -1.41628 20
729 1 -6.78168 11.0776 -12.0714 10
730 1 7.86701 2.61238 9.22991 20
731 1 -12.7295 -0.0548099 -4.71838 17
732 1 -3.94631 3.20631 11.4413 19
733 1 -2.15279 5.50412 -9.96244 22
734 1 13.644 -3.23794 -9.31842 18
735 1 -8.1751 -10.9556 -6.89811 16
736 1 13.7065 -6.69223 -1.89374 19
737 1 -12.8057 5.49373 0.520815 11
738 1 -7.9027 -6.06179 -4.18476 19
739 1 19.4113 4.19375 12.0724 9
740 1 -3.54274 -12.3884 10.3208 17
741 1 17.2407 2.43157 14.4306 9
742 1 14.5346 -3.0942 3.93376 16
743 1 11.1464 -3.35107 4.26016 23
744 1 -10.0675 4.36607 2.4942 16
745 1 7.99682 8.64013 8.20644 17
746 1 6.56652 8.34346 -10.1653 19
747 1 0.872283 -8.07187 -16.5474 15
748 1 -3.51462 12.976 8.58568 15
749 1 -12.0973 -10.5024 3.19129 16
750 1 9.37743 10.7747 -2.867 21
751 1 3.00253 9.59121 11.1708 18
752 1 15.9609 -4.03947 -5.836 12
753 1 9.29958 -8.18422 6.3712 19
754 1 4.35364 13.2959 -12.7854 12
755 1 6.01405 14.2609 -10.787 11
756 1 -3.81237 -1.03552 8.54874 23
757 1 17.6599 3.97638 9.37801 19
758 1 1.87767 -4.03604 -12.5924 18
759 1 14.6145 12.0326 0.634934 15
760 1 -10.6733 3.66152 -2.65225 22
761 1 1.74601 -11.486 12.2177 9
762 1 8.18757 18.0848 -7.31819 7
763 1 6.72579 -6.45619 14.522 7
764 1 1.65567 -11.8948 -4.94161 19
765 1 -2.4361 15.4851 -4.05705 15
766 1 -14.1322 4.21786 -2.37508 11
767 1 16.2565 -2.57078 -11.5264 12
768 1 7.33999 -13.0223 -13.3954 11
769 1 -5.91929 6.99657 2.90095 19
770 1 11.173 7.76094 -7.79067 20
771 1 3.48568 -7.87517 -18.602 13
772 1 -5.7883 -9.96911 -11.3387 13
773 1 5.32254 -11.7695 -4.87287 17
774 1 1.48616 12.806 11.4096 14
775 1 11.6569 -10.8885 -3.97549 13
776 1 1.50475 10.9878 -10.5692 21
777 1 16.455 3.70992 -4.80415 18
778 1 9.43475 8.79423 0.183677 21
779 1 0.133101 -12.2105 -2.22205 19
780 1 1.05942 -5.7495 -18.8045 9
781 1 13.3284 5.42914 -1.38536 21
782 1 -0.651415 4.80636 -12.3255 21
783 1 -0.242366 -8.43925 6.88348 21
784 1 6.17049 8.74787 -4.96263 21
785 1 8.57409 0.0184871 -9.47477 21
786 1 -8.55063 5.47071 -4.58574 18
787 1 -12.4939 6.84962 10.3376 10
788 1 1.49727 1.96427 13.6331 18
789 1 -5.49028 -9.42251 8.5442 20
790 1 9.58734 9.29346 5.49879 21
791 1 2.18933 -14.846 3.10896 20
792 1 4.85591 11.1753 -10.1236 19
793 1 -2.03767 7.61547 8.10803 19
794 1 -5.58797 -1.81727 11.6469 22
795 1 -7.72659 10.2318 8.05557 14
796 1 -4.07396 -6.82709 9.25994 23
797 1 6.10337 -8.06727 6.51724 22
798 1 12.5316 5.58177 10.1316 22
799 1 9.79717 -5.6253 -6.30887 20
800 1 12.835 -12.1129 -15.0206 7
801 1 -9.29255 -1.65512 -15.0423 9
802 1 -4.46762 2.96753 -16.8217 14
803 1 8.56989 14.8902 6.55842 11
804 1 -4.97268 -6.90579 12.8795 15
805 1 -1.65166 7.33685 -7.56675 20
806 1 -12.081 1.22826 -7.57649 18
807 1 12.7198 14.8703 -0.515683 13
808 1 -10.3905 -13.2649 3.99218 17
809 1 13.7958 7.80932 8.56264 20
810 1 -6.36214 -13.6276 -6.28148 11
811 1 8.87875 15.9151 3.81919 12
812 1 -4.64035 -3.70272 13.6181 17
813 1 3.36558 -13.937 -10.4766 13
814 1 14.6026 1.25622 6.38905 20
815 1 2.94756 -17.8352 4.11057 7
816 1 5.73168 5.07484 14.3621 13
817 1 8.74233 0.284089 -16.1017 17
818 1 9.94481 -8.29985 1.72072 23
819 1 3.34825 -1.21756 -12.5828 23
820 1 -15.7121 2.34058 -9.23631 6
821 1 -4.77406 9.86293 -13.3733 15
822 1 0.887533 4.26532 11.0512 20
823 1 11.7482 -6.68427 10.1165 12
824 1 -9.00053 -10.3901 4.57914 17
825 1 15.9221 -2.21778 1.01747 14
826 1 3.5404 4.34635 -12.3309 19
827 1 18.5835 3.76975 3.6929 10
828 1 3.27911 17.6928 5.70036 7
829 1 -15.666 -7.94499 4.98272 8
830 1 3.38398 -12.6822 -7.61888 22
831 2 -14.8541 -1.7129 -6.03311 11
832 2 -2.6462 11.5543 -7.43701 19
833 2 0.30399 -2.91806 -12.5665 18
834 2 -2.29562 5.80016 7.87341 20
835 2 9.58786 -9.63356 -13.161 19
836 2 -5.25388 -6.1519 -8.02041 22
837 2 0.980526 2.12727 10.581 22
838 2 6.55427 -4.65881 14.9075 10
839 2 -12.4022 -9.61172 1.23044 18
840 2 -12.8497 4.7974 -6.19678 17
841 2 0.339604 11.2137 8.36787 20
842 2 -8.76681 -0.216015 2.38589 23
843 2 5.49368 16.622 -5.27394 16
844 2 11.0938 6.09202 2.985 21
845 2 6.0115 14.1989 -7.05461 18
846 2 12.586 15.3515 -2.37466 15
847 2 -12.0012 1.35317 -9.90094 14
848 2 -10.242 -4.31836 -7.90595 19
849 2 8.26211 0.237407 8.90113 20
850 2 8.46216 -3.91739 -9.89359 21
851 2 3.71022 -13.9371 3.8274 20
852 2 -8.24558 7.41062 -4.04634 19
853 2 -15.0435 3.07682 -7.59658 9
854 2 11.3994 2.78628 5.5041 20
855 2 16.5323 -5.58046 -5.35675 10
856 2 -6.69876 -9.12171 -2.24037 22
857 2 -9.56129 -8.44431 5.77382 17
858 2 -4.81457 -11.2798 3.7889 19
859 2 14.4306 -9.41097 2.72902 9
860 2 3.07139 -14.3693 -8.60999 15
861 2 3.27868 -4.54394 14.864 14
862 2 3.31012 10.2866 -10.3986 19
863 2 2.02945 -17.5217 -0.788926 14
864 2 -8.29291 -12.7463 -6.0338 9
865 2 2.5718 -0.34895 10.9244 22
866 2 -7.55408 8.14337 2.33904 18
867 2 -1.91454 2.1462 15.0235 19
868 2 -5.50169 7.20427 -5.59852 21
869 2 5.60011 -10.3432 9.83149 14
870 2 -2.52986 7.53447 4.5356 22
871 2 -0.761966 8.87743 -8.28391 21
872 2 14.3583 11.6202 7.13622 9
873 2 4.92303 -3.6286 -9.87794 23
874 2 10.0716 16.0631 2.35198 13
875 2 9.91117 -3.08118 -12.488 19
876 2 3.62809 13.9976 5.60007 18