ITEM: TIMESTEP
67500
ITEM: NUMBER OF ATOMS
2880
ITEM: BOX BOUNDS pp pp pp
0.0 32.8
0.0 34.14
0.0 31.8
ITEM: ATOMS id type x y z Coordination
39 1 4.75922 0.844267 2.85174 21
42 1 4.64638 2.95276 5.70964 22
3 1 1.20988 0.382312 3.21787 22
181 2 1.43108 1.24877 5.28506 23
218 2 3.12987 4.07167 5.01416 22
37 1 3.27072 5.68969 0.24128 23
184 2 0.869065 2.54463 2.50324 21
220 2 4.7935 2.738 2.09681 24
6 1 1.58492 3.17525 5.7032 23
40 1 2.96914 3.74456 2.83528 26
586 2 2.96566 3.55086 -0.0155617 23
38 1 4.85151 2.68976 0.143199 24
2 1 1.48364 2.19592 0.866653 25
217 2 5.01353 1.13218 5.03136 23
785 1 3.29739 0.214648 5.62952 23
963 2 3.01336 0.079854 2.2582 24
1 1 0.478455 4.97626 0.913517 19
219 2 3.52001 5.24873 2.31879 22
550 2 0.252052 3.36988 0.0227489 21
749 1 -0.0911119 0.136929 6.03464 23
7 1 1.87635 0.966985 8.19022 24
188 2 2.39506 2.83946 7.93728 20
222 2 3.2549 3.4926 10.8531 23
10 1 1.61423 2.68658 11.4368 23
789 1 3.57288 0.036655 10.6848 20
44 1 3.68051 3.8461 8.84284 23
221 2 5.15913 0.929759 10.3451 23
224 2 4.82839 3.0602 7.7419 25
185 2 1.92754 1.05656 10.2897 24
46 1 5.28448 3.20088 11.4483 24
43 1 5.32416 1.32163 8.37696 25
186 2 0.120418 4.51302 10.475 23
45 1 3.06563 5.43843 11.0066 23
967 2 3.59294 -0.00932482 7.72161 21
8 1 0.498355 3.56008 8.61591 25
931 2 -0.00885147 0.574697 7.88546 21
753 1 0.171133 0.411784 10.8507 21
11 1 2.23455 1.0451 13.7558 23
362 1 1.64307 3.03587 16.4603 21
228 2 5.04283 2.9244 13.2646 23
48 1 3.34473 4.00384 13.0948 21
1287 2 0.328713 0.827301 18.0157 21
397 1 3.6232 5.69697 16.3676 24
398 1 5.01759 2.65009 16.1794 21
189 2 1.89501 0.606681 15.6664 23
399 1 4.89416 1.00248 18.7927 23
226 2 3.42562 3.43913 15.8361 24
935 2 0.436109 0.075179 13.3123 22
192 2 1.62257 2.94194 13.6093 23
47 1 5.05555 0.725379 13.937 26
544 2 1.94962 3.36748 18.8277 21
190 2 0.0878897 3.88019 16.1098 24
225 2 4.91765 0.543387 15.7864 22
578 2 3.43623 3.9491 21.3271 22
366 1 1.76794 2.78556 21.9439 24
367 1 1.6289 0.448579 24.2343 23
577 2 4.81211 0.981055 22.2124 19
548 2 1.76408 2.3874 24.4081 23
541 2 1.73609 0.605564 21.0543 22
402 1 5.13608 3.01312 21.7157 20
404 1 3.27544 4.02138 24.3946 22
542 2 0.235302 3.72414 21.1517 23
400 1 3.50047 4.26314 19.2837 23
547 2 0.168585 5.53399 24.0865 21
584 2 4.98552 3.58462 23.8084 20
363 1 1.92181 1.1902 19.0833 23
368 1 -0.060218 3.43361 24.7211 20
1145 1 3.62999 0.0274315 21.1414 20
588 2 4.87934 2.96568 29.0528 24
370 1 1.79311 2.3954 26.8903 21
549 2 1.70408 0.479916 31.7579 20
406 1 4.88683 2.7282 26.9705 24
545 2 1.48511 0.276553 26.302 21
371 1 1.783 0.584948 29.6485 23
407 1 5.34872 0.931672 29.4532 20
408 1 3.25949 3.87434 29.8455 24
581 2 4.71353 0.962685 25.9602 24
582 2 3.00349 3.59517 26.8034 20
552 2 1.52833 2.79877 29.041 22
405 1 3.56033 5.51941 27.6664 24
585 2 4.82936 0.670969 31.2384 25
551 2 0.292424 5.77748 28.8218 19
1149 1 3.3539 0.279422 27.004 21
229 2 5.07247 6.33354 5.18334 20
50 1 4.36577 8.31631 0.662042 27
598 2 2.56072 9.02659 -0.035327 23
15 1 1.63825 6.58515 2.96594 22
230 2 4.01343 9.12271 6.14908 19
51 1 4.91374 6.36399 3.05552 23
196 2 1.4425 8.67979 3.07979 19
54 1 5.60259 8.00302 5.97477 24
14 1 0.957736 8.30025 0.584635 20
52 1 3.19596 9.46709 3.6042 23
193 2 1.95458 6.8144 4.81088 22
232 2 4.73776 8.27555 2.87431 24
231 2 2.74544 11.0779 2.47763 23
41 1 3.13542 5.75888 5.71482 21
18 1 1.16279 7.96878 5.95512 21
597 2 4.99085 6.58799 -0.0463852 25
49 1 3.06092 11.1924 0.643646 23
53 1 2.9166 10.8272 6.05421 23
13 1 0.26049 11.2261 0.731704 21
19 1 1.69108 6.79868 8.51287 21
236 2 5.10066 8.64484 9.15567 20
55 1 5.28453 6.55406 9.00187 19
22 1 1.90606 8.86432 11.5506 25
58 1 5.26904 8.33707 11.1275 21
56 1 3.50079 9.20467 8.63394 21
234 2 3.23363 9.95981 10.607 20
187 2 0.248702 6.36623 7.38434 21
197 2 1.40987 6.70923 10.4641 22
200 2 1.74671 9.29312 7.63768 22
233 2 4.92961 6.27509 10.8653 20
235 2 3.6931 11.0524 7.7353 20
223 2 3.40216 5.98456 8.21428 24
23 1 1.98261 6.60275 13.8808 24
227 2 3.14829 5.78977 12.7278 25
204 2 2.08098 8.54421 13.4245 21
60 1 3.79595 9.7731 13.9812 23
201 2 2.24119 6.75556 15.8654 23
237 2 4.89313 6.65579 15.5026 25
191 2 -0.035929 6.04006 13.37 25
556 2 2.17575 8.70507 18.6439 22
543 2 0.445275 6.10222 18.0374 24
238 2 3.31361 10.0315 15.7583 23
374 1 2.04842 8.59133 16.3771 22
410 1 4.8044 8.48269 16.2132 25
59 1 4.99226 6.58192 13.4814 24
240 2 5.20206 8.49823 13.2164 23
202 2 0.577048 9.83276 15.6579 22
24 1 0.483885 9.60622 13.8917 24
361 1 0.351657 5.76831 15.908 20
579 2 3.78162 5.86853 18.421 21
412 1 3.51322 9.87076 19.0844 24
376 1 0.565535 9.93231 18.962 21
411 1 5.30281 6.79721 19.0377 23
560 2 1.61665 8.6779 23.9444 24
378 1 1.59034 8.94746 21.989 23
379 1 1.43683 6.89939 24.647 22
554 2 0.190107 9.6331 21.0588 26
414 1 4.8327 8.91289 21.7089 23
583 2 3.03769 5.84622 23.6294 21
415 1 5.01329 6.75732 24.2515 24
416 1 3.11294 9.51907 24.2344 24
553 2 1.81691 6.77351 21.3814 21
590 2 3.2822 9.78561 20.8839 22
595 2 3.26956 11.4739 23.8763 25
596 2 4.8974 9.25272 23.5198 23
589 2 5.04844 6.80333 21.0705 24
365 1 0.297242 5.70337 21.3914 22
401 1 3.54106 5.82405 21.6789 21
375 1 1.91194 6.77321 19.109 24
558 2 0.0447794 9.1248 26.5231 22
382 1 1.86809 8.13952 26.8576 21
383 1 1.66594 6.68803 29.7512 22
557 2 2.50662 6.38546 26.388 23
593 2 5.07097 6.30681 25.9742 25
417 1 3.61309 11.2496 27.0393 24
599 2 3.29813 10.7065 29.1553 22
420 1 3.34763 9.15333 29.6668 22
381 1 0.46238 10.951 26.8598 22
594 2 3.27108 9.4003 26.2487 23
564 2 1.89471 8.4173 28.8624 24
418 1 4.88539 8.05076 26.8453 24
600 2 4.97541 8.10805 28.6602 27
587 2 3.56609 6.11114 29.9011 22
369 1 0.35894 6.03472 27.0611 20
561 2 1.20393 6.4105 31.6683 20
65 1 2.56919 16.6895 5.86823 22
241 2 4.6764 11.5582 4.97152 24
27 1 1.21387 12.0144 3.29451 22
208 2 1.25845 14.0149 2.73077 24
205 2 1.52166 12.2623 5.16989 21
66 1 4.43972 13.4949 5.73919 21
242 2 3.37937 14.9849 4.93811 22
609 2 4.68307 11.9158 0.107957 25
30 1 1.52322 13.9719 5.91582 23
64 1 2.84418 15.2028 2.73412 20
244 2 4.54639 14.1127 2.59198 23
63 1 4.47266 11.9574 3.12859 22
26 1 1.56959 14.1169 0.420171 23
610 2 3.05135 15.1981 0.379114 21
62 1 4.26523 13.9132 0.53112 21
247 2 2.95746 16.7651 7.8341 21
31 1 1.71048 12.2188 8.12023 23
212 2 1.51658 14.1297 7.75437 22
34 1 1.33688 14.1984 11.2658 23
67 1 4.67773 12.3985 8.68412 22
68 1 3.45838 15.035 8.40007 25
248 2 4.77244 13.9969 7.40031 23
70 1 5.2491 14.3729 11.3167 21
209 2 1.50977 12.4613 10.1069 24
246 2 3.57866 14.9035 10.2391 23
245 2 5.09592 12.7406 10.7205 21
32 1 0.0385774 15.1215 8.65892 25
210 2 0.187789 15.1214 10.5545 21
69 1 3.039 16.934 11.2698 23
21 1 0.0753452 11.5168 11.1268 23
211 2 -0.0463168 16.8905 8.07535 25
57 1 3.02419 11.7078 11.0861 21
249 2 5.1042 12.2619 15.9334 24
213 2 1.43838 12.8846 15.7348 23
239 2 3.64124 11.6387 13.0586 24
72 1 3.15357 15.2399 14.2542 24
422 1 5.09861 14.5158 16.2333 23
35 1 2.11399 12.7368 13.8057 24
591 2 3.6497 11.5472 18.2328 25
252 2 4.59897 14.1141 13.8416 19
203 2 0.888264 11.3593 12.99 23
250 2 3.55671 15.4542 16.2248 22
409 1 3.30602 12.0449 16.2047 25
386 1 1.49722 14.7951 16.3455 22
387 1 1.69711 12.8085 19.2458 24
604 2 5.12606 14.3679 18.8741 23
568 2 1.63542 14.3616 18.1762 24
424 1 3.36499 15.3847 18.2056 24
373 1 0.313813 11.3809 16.5102 25
555 2 0.125932 11.7587 18.8766 23
216 2 1.90791 14.5024 12.997 23
602 2 2.95172 15.6084 21.1494 24
390 1 1.42646 14.252 21.7022 23
391 1 2.29658 12.4687 24.8563 23
427 1 5.17386 12.4961 24.1606 23
571 2 0.554226 16.7388 22.9179 23
601 2 5.16451 12.3743 21.3779 24
608 2 4.85929 14.336 24.3807 22
428 1 3.42052 15.3197 24.075 22
565 2 1.69236 12.4864 21.1192 23
572 2 1.69489 14.1884 23.7176 25
426 1 4.40083 14.3627 21.1621 20
423 1 4.97184 12.3664 19.224 22
392 1 0.102317 15.0858 24.1277 22
413 1 3.5157 11.4103 21.7981 23
576 2 1.0256 14.3147 29.4312 19
394 1 1.5701 14.2693 27.2579 22
395 1 1.86655 12.5951 29.5343 23
605 2 5.22447 12.2213 26.0975 24
606 2 3.13042 15.0319 26.8812 22
573 2 1.51413 12.4917 31.4369 24
563 2 0.135858 11.7181 28.7683 21
432 1 3.01758 15.1488 29.0505 22
569 2 1.9099 12.5348 26.6768 19
430 1 4.80893 14.3072 26.8829 22
612 2 4.26291 13.7106 29.3474 23
431 1 4.71399 11.8345 29.5553 22
429 1 3.01334 16.8299 26.708 24
937 2 3.86944 17.8251 5.40118 22
904 2 1.78047 19.7845 2.19938 23
723 1 1.21669 17.9501 2.90092 22
762 1 4.87192 19.6282 5.69469 22
938 2 3.65758 20.8632 5.19798 20
902 2 0.311172 20.4756 4.74096 25
759 1 4.48543 17.3612 3.70221 24
901 2 0.964814 17.8218 5.19457 21
726 1 1.85169 19.6929 5.48437 22
760 1 3.40396 20.2155 2.97164 22
243 2 3.08583 17.4713 2.62046 21
940 2 5.05895 19.2074 2.28318 20
758 1 4.49342 20.216 0.109723 24
761 1 3.32922 22.6355 5.47597 25
61 1 3.08412 17.167 0.208517 22
725 1 0.272694 22.2622 5.38836 21
1305 2 4.89144 18.159 0.0613066 22
724 1 -0.214921 20.6301 1.8422 23
727 1 1.51433 18.1417 8.35562 23
908 2 1.57614 19.8808 7.4142 26
763 1 4.77179 17.7199 8.20167 22
730 1 1.42874 20.0601 10.5095 22
941 2 4.82768 17.801 10.334 21
764 1 3.92777 20.6712 8.54665 21
944 2 5.03242 19.455 7.83594 23
766 1 5.03201 19.6293 11.2366 23
905 2 1.58962 17.6949 10.7217 25
942 2 3.68193 20.7613 10.3994 23
943 2 3.85287 22.8291 7.63964 21
947 2 3.22163 22.4845 12.9139 24
911 2 0.514726 22.6416 12.3839 23
912 2 1.12642 19.8788 12.3234 23
729 1 0.0910696 22.36 10.6019 22
765 1 3.10039 22.499 10.8371 23
907 2 0.510058 22.4514 7.5285 21
1118 1 4.83187 20.068 16.0407 22
909 2 1.44742 17.4672 15.6676 21
767 1 4.94403 17.9025 13.6841 22
945 2 4.82653 17.9314 15.761 22
1300 2 4.85523 20.0655 18.0269 22
1083 1 1.09085 17.8478 18.4431 25
1264 2 1.25832 19.5994 17.7516 26
1119 1 5.00693 17.9503 18.6293 21
768 1 2.7509 20.5888 13.1958 22
946 2 2.93735 20.7094 15.369 25
1082 1 1.29871 19.6788 15.6811 24
603 2 3.01456 17.4649 18.7316 23
731 1 1.46421 18.0936 12.9888 22
251 2 3.15795 17.5066 13.2443 22
1081 1 0.0217224 22.4243 15.9633 23
1120 1 3.04343 20.7302 18.6872 23
421 1 3.23998 17.2516 15.9525 21
1299 2 3.18636 22.3998 17.9901 23
1117 1 2.98445 22.7066 15.9454 23
948 2 4.50811 20.0918 13.1068 21
1298 2 3.23794 19.9651 20.4694 20
1086 1 1.29008 19.6428 20.4663 19
1087 1 1.64099 18.0148 23.6907 22
1303 2 2.75409 22.227 23.6587 22
1268 2 1.67915 19.697 24.4699 19
1304 2 4.75762 19.5185 23.8 22
1123 1 5.49629 17.8343 24.6291 20
1124 1 3.48433 20.7698 24.4804 22
1261 2 1.36394 18.0418 20.8518 23
1122 1 5.07133 19.6124 21.6114 23
425 1 3.30915 17.5499 20.9285 20
1297 2 5.39363 17.8661 20.4941 21
607 2 3.39832 17.1409 24.0325 21
1269 2 1.4851 18.2631 31.1162 24
1090 1 1.72833 19.7537 26.4659 22
1091 1 0.916672 18.1685 29.3746 23
1272 2 1.44186 19.9067 28.545 22
1265 2 1.6592 17.919 26.1395 24
1127 1 4.66532 18.0195 30.0622 23
1126 1 5.14672 19.6428 26.8256 22
1128 1 3.02323 20.8272 28.9038 24
1302 2 3.35974 21.0327 26.7841 23
1306 2 3.49388 21.2652 31.003 22
1301 2 4.69621 17.6627 26.4854 23
1308 2 4.83969 19.4817 28.9813 19
1089 1 0.489733 22.711 26.9829 23
611 2 2.91847 17.211 29.1737 22
722 1 1.73429 20.454 31.6043 21
950 2 3.58736 26.3535 4.7027 20
774 1 4.97028 25.4558 5.45526 22
735 1 1.74218 23.4378 2.63785 22
769 1 3.56308 28.2402 1.03836 24
952 2 5.21213 26.0545 2.30007 24
949 2 4.79677 23.6605 5.00617 23
916 2 2.06833 25.2942 1.80126 21
913 2 1.80144 23.7617 4.58587 22
738 1 1.59534 25.4941 5.38652 24
772 1 3.46628 26.1291 2.76615 22
757 1 3.11184 22.8011 0.392966 22
939 2 3.70242 23.1024 2.11894 22
771 1 5.1034 24.0974 3.16768 22
914 2 0.195555 25.9046 4.20774 20
770 1 5.01964 25.8 0.34696 22
915 2 0.206157 28.0449 1.83508 25
739 1 2.03136 23.602 7.92215 21
917 2 1.36774 23.6554 9.99176 21
956 2 4.74838 25.8283 7.3207 23
742 1 1.8006 25.2861 10.9015 24
778 1 4.70482 25.7352 10.9135 21
776 1 2.89457 27.089 8.03224 23
920 2 1.50742 25.4545 7.57297 21
775 1 5.12238 24.0495 8.55871 23
953 2 5.00446 23.6081 10.6114 23
954 2 2.81524 26.4817 9.84557 21
918 2 0.404759 26.5642 10.5276 20
740 1 0.309437 26.5307 8.50174 23
919 2 0.775676 28.3301 7.67519 21
741 1 0.292494 28.7443 10.8751 23
1096 1 0.959671 26.7116 18.4561 23
743 1 1.74548 23.5497 13.4242 23
1276 2 2.26642 25.13 17.7553 22
780 1 3.5683 26.6612 13.8472 23
1095 1 1.2642 23.4081 18.5408 22
1130 1 5.04363 25.3889 16.3545 25
960 2 4.69365 25.6913 12.8458 24
1312 2 5.14229 25.4059 18.3042 22
921 2 1.42508 23.5473 15.2814 24
958 2 3.50002 26.4346 15.8388 22
779 1 4.78062 23.471 13.3253 23
1094 1 1.95575 25.1421 15.8889 22
924 2 2.22293 25.5766 13.1198 23
957 2 4.7165 23.581 15.2459 25
1311 2 2.92434 27.752 18.3184 20
1129 1 3.80935 27.9225 16.721 24
923 2 0.274963 28.377 13.0741 20
1131 1 4.70045 23.2537 18.5734 20
744 1 0.339818 26.5102 13.5987 22
922 2 0.588009 26.6855 15.683 22
1099 1 1.09748 23.1332 23.7639 22
1098 1 1.78491 25.2241 21.4657 22
1100 1 0.340535 25.6959 23.9225 19
1316 2 4.70229 24.9461 23.6996 23
1310 2 3.51168 26.6837 20.9627 22
1315 2 3.56437 28.2599 23.5898 24
1273 2 1.6532 23.4751 20.4007 25
1136 1 3.32223 26.3689 24.3643 26
1134 1 4.8233 25.2887 21.8307 23
1280 2 2.10013 24.7874 23.267 22
1135 1 4.97778 23.2926 24.5458 25
1274 2 0.366393 26.244 21.441 22
1309 2 4.6115 23.4261 20.6392 24
1133 1 3.78156 28.6 21.5141 22
1121 1 3.0376 22.9701 21.7874 23
1278 2 0.752392 26.8569 25.276 22
1132 1 3.57968 26.0719 18.8825 22
1314 2 3.64335 26.5118 26.2295 25
1102 1 1.72961 25.5326 26.8468 22
1103 1 1.45976 23.5448 29.6716 25
1313 2 4.95484 23.7551 26.4403 24
734 1 1.73868 25.7947 31.8732 23
1104 1 -0.0672234 26.5295 29.6103 22
1139 1 4.63655 23.7636 29.393 23
1140 1 3.29544 26.7494 29.3894 24
1320 2 5.10353 25.7448 29.3145 19
1277 2 1.59522 23.8301 25.9046 24
1284 2 1.77235 25.7602 29.2004 22
1317 2 4.87698 23.8949 31.5314 25
1281 2 1.62385 23.6742 31.4492 20
1125 1 3.43398 23.1441 26.6417 23
1307 2 2.7962 23.5311 28.2946 21
1138 1 5.06142 25.5028 27.328 23
1318 2 3.84722 27.0263 31.2562 20
1283 2 0.368738 28.3749 29.1592 22
1137 1 3.92259 28.1612 27.2109 24
786 1 4.2702 31.4742 5.30553 23
951 2 3.55629 28.7585 2.87152 21
781 1 3.45708 33.8776 0.224402 23
750 1 1.49394 31.1316 5.35545 23
782 1 4.79862 31.6653 0.309475 22
773 1 3.20927 28.2972 5.31372 21
928 2 1.23784 30.8268 2.6407 24
746 1 1.80972 31.1366 0.323064 23
927 2 0.320492 33.2056 2.3224 23
784 1 2.95064 31.7148 2.91608 25
962 2 2.86771 32.7424 4.74081 23
964 2 4.93363 31.4681 2.17606 24
925 2 1.43976 29.1702 4.96422 23
783 1 5.24853 29.8451 3.03196 21
1329 2 4.90793 29.2422 0.0338515 27
745 1 -0.0292446 33.8043 0.332653 25
747 1 1.60607 29.177 3.01768 20
751 1 1.74959 29.8774 7.89669 21
965 2 5.24854 29.6771 9.94236 24
966 2 3.75431 32.3454 10.3585 22
754 1 1.83727 31.4802 10.9726 23
787 1 5.00089 29.9525 7.72245 22
788 1 2.97894 32.3803 8.17339 23
932 2 1.49223 31.7497 7.21815 24
968 2 4.72169 31.7978 7.62176 23
955 2 3.26751 28.7782 7.3482 22
929 2 1.85758 29.5844 9.74319 25
930 2 0.156341 32.7031 10.5643 22
959 2 3.66901 28.5337 12.1153 23
777 1 3.51965 28.5195 10.3432 23
1105 1 0.545464 33.7163 16.4697 22
755 1 2.08011 29.3092 13.5789 23
1324 2 5.26836 31.0345 17.7341 24
791 1 5.04056 29.1569 13.3367 21
933 2 1.92545 29.0301 15.6503 23
1106 1 2.17145 31.0687 16.0892 19
792 1 3.75828 32.1532 13.391 23
934 2 0.303118 31.9664 15.9929 21
969 2 5.27348 29.019 15.8322 23
970 2 3.36254 32.3809 15.4176 24
1141 1 3.22205 33.7274 16.4959 24
936 2 2.0692 31.3007 13.2886 21
756 1 0.43556 32.4761 13.9618 23
1288 2 1.79042 30.5754 18.4466 24
1323 2 3.32996 33.9839 18.6055 19
1142 1 5.35408 31.3733 15.7032 22
1143 1 5.18282 29.1844 18.8714 24
1093 1 0.171099 28.7096 16.6435 25
971 2 3.72626 34.0118 12.7735 24
1111 1 1.85114 28.6827 24.241 23
1110 1 1.63386 30.9731 21.5716 24
1146 1 5.00784 31.2254 21.473 24
1147 1 5.10007 28.9394 24.3117 22
1322 2 3.58581 32.3019 20.966 25
1144 1 3.29257 31.6756 19.0121 21
1107 1 1.52825 28.9282 18.9293 20
1148 1 3.37952 31.7239 24.019 20
1285 2 2.21611 29.5878 20.5933 22
1292 2 1.70461 30.8396 23.5221 25
1328 2 5.10647 30.8283 23.6293 24
1109 1 0.167224 34.0159 21.8616 24
1112 1 0.329756 32.1042 24.4393 22
403 1 4.88443 34.3602 23.8956 23
1291 2 -0.0628468 33.8002 23.9176 22
1327 2 2.92154 33.5022 23.7968 20
1108 1 0.172043 32.5263 19.2406 22
1325 2 5.30546 29.0554 26.1162 25
1114 1 2.31038 31.2932 26.9283 25
1290 2 0.2988 31.8917 26.3704 20
1326 2 3.97016 32.5388 26.3965 22
1296 2 1.45793 30.5195 28.6706 21
1289 2 2.61967 29.7807 25.8011 21
1293 2 1.9557 29.1962 31.7807 25
1152 1 3.14896 32.0713 29.7117 26
1150 1 5.18409 31.0689 26.7146 22
1332 2 4.99004 31.0209 28.8872 22
1151 1 5.20205 29.2864 29.6695 24
1101 1 0.903968 28.7742 26.9466 23
1331 2 3.37684 34.0364 28.7812 21
1115 1 1.86982 28.9595 30.0019 25
1294 2 0.0391771 30.8874 31.3439 23
1330 2 3.12778 32.0206 31.3765 23
1319 2 3.46163 28.6811 28.8051 21
733 1 0.0620311 28.6672 31.8725 22
77 1 6.61776 5.27949 6.16868 23
75 1 8.19139 0.561137 2.78235 21
999 2 6.49089 0.260004 2.20064 23
76 1 6.3708 3.52944 3.19378 24
256 2 8.09465 2.61976 2.79531 20
78 1 8.00593 2.6011 5.56981 21
254 2 6.48838 3.63141 5.26234 21
112 1 9.29822 4.03397 3.26084 23
290 2 9.47575 4.35512 5.19715 22
74 1 8.33777 2.83443 0.347866 22
73 1 6.36663 5.58196 0.379873 23
253 2 8.66783 1.10966 4.87231 23
255 2 6.38471 5.43114 2.47373 24
79 1 8.66513 1.04504 8.13744 23
80 1 6.54218 4.02623 8.46145 23
260 2 8.08457 3.09576 7.63429 22
82 1 8.14221 2.97038 10.9345 22
116 1 9.84214 4.30597 8.01433 23
294 2 9.66355 3.48038 9.6791 21
257 2 8.58379 1.03969 10.2752 21
258 2 6.51103 3.68286 10.1874 24
1039 2 10.2775 -0.103033 7.60818 20
299 2 9.03959 5.30386 12.7568 21
118 1 10.9603 3.27208 11.0853 21
1003 2 6.86957 0.135069 8.07435 21
81 1 6.63701 5.4602 11.2587 24
825 1 6.87572 0.287194 10.4116 22
652 2 10.9446 3.00365 17.984 23
120 1 9.48457 3.53 13.6887 21
580 2 5.24823 2.75187 18.3352 22
261 2 8.14584 1.20023 15.7814 24
262 2 6.5891 3.74517 15.881 22
264 2 8.46216 2.03574 12.5689 23
434 1 8.56297 2.86041 16.5727 25
298 2 10.006 4.14149 15.2528 25
616 2 8.24209 3.00627 18.431 24
84 1 6.69234 3.38879 14.2487 25
1213 1 10.1789 0.227522 15.9401 22
83 1 8.44717 0.664613 13.5921 22
1359 2 6.5972 0.266984 18.6634 22
263 2 6.73395 4.82645 13.1379 23
435 1 8.50753 0.881278 18.6881 22
1177 1 6.67662 -0.0175624 16.1174 24
436 1 6.72421 3.93326 18.8556 23
620 2 8.51417 2.61608 22.9912 24
438 1 8.33081 2.75019 21.1693 22
439 1 8.16383 0.940178 23.8131 22
440 1 6.76238 3.74065 24.5097 23
437 1 6.49181 5.5592 21.6642 23
476 1 9.95994 3.73178 23.7329 20
613 2 8.13888 0.695834 20.3846 23
614 2 6.6503 3.80309 20.8235 25
472 1 9.87023 3.98079 19.2075 26
655 2 9.55758 5.76456 24.0759 20
1181 1 6.761 0.0468885 21.5614 22
650 2 10.4214 4.41311 21.2804 24
619 2 6.32378 5.53098 24.0295 20
1217 1 9.73677 0.0813946 21.2912 24
444 1 6.60128 3.72778 29.5245 25
442 1 8.19659 2.70567 26.8605 25
443 1 8.14554 0.853627 29.3223 23
617 2 7.68334 0.875857 25.8752 24
480 1 9.6334 3.58553 29.1049 23
477 1 9.33751 5.64665 26.6857 21
623 2 6.42202 5.66877 29.1373 25
618 2 6.49584 3.67645 26.3954 21
624 2 7.81112 2.71966 28.9578 22
654 2 9.14952 3.74689 25.6001 25
659 2 9.58378 5.29395 28.7525 24
621 2 7.85176 1.13673 31.3763 22
441 1 6.12019 5.54764 27.1735 27
1221 1 9.60388 0.111493 26.8485 26
658 2 9.55319 4.00913 31.6285 21
622 2 6.5431 3.81119 31.6192 24
89 1 6.43752 11.1635 5.32464 25
302 2 10.0063 9.32431 5.11451 22
87 1 7.83043 6.35707 3.42495 23
88 1 5.90295 9.72396 3.16112 22
268 2 7.82185 8.83501 2.42419 23
90 1 8.27782 8.87027 6.00443 22
265 2 8.12163 6.72193 5.65711 21
124 1 9.72006 9.55815 3.09568 23
291 2 9.37853 6.29333 2.23434 19
266 2 6.68537 9.45077 4.80253 22
109 1 9.91779 5.77624 -0.118897 20
86 1 7.65874 8.53345 0.492872 24
91 1 8.33609 7.40063 8.78952 23
92 1 6.50062 9.79453 8.89607 24
306 2 10.0373 9.18879 10.4998 25
94 1 8.52838 8.57899 11.2847 24
128 1 10.0889 9.52469 8.58705 25
272 2 8.23229 9.04228 7.77039 22
269 2 8.03722 6.956 10.4849 23
270 2 7.30211 9.9028 10.5747 20
129 1 9.81174 11.686 11.1505 23
295 2 10.146 6.41226 8.23279 21
259 2 6.95476 6.08114 8.16478 23
307 2 10.2421 11.0829 7.58097 22
311 2 10.648 11.0336 12.5821 21
117 1 9.52488 5.64006 10.9705 24
113 1 9.84683 5.89101 6.15544 23
132 1 9.72185 9.48642 13.6151 21
433 1 6.39143 5.56208 16.3871 23
615 2 6.73825 5.87454 18.2429 25
96 1 6.9578 9.76412 13.5007 20
274 2 6.20415 9.78662 15.4981 22
592 2 5.8008 8.509 18.0873 23
469 1 9.75903 5.66132 16.415 25
310 2 9.72518 9.62499 16.0155 24
446 1 7.95932 8.67612 16.8622 26
95 1 7.8444 6.34651 13.8083 21
276 2 8.04257 8.33321 13.0736 22
273 2 8.0128 6.68102 15.871 24
445 1 6.59773 11.2819 16.5187 20
651 2 9.71555 5.8989 18.161 24
662 2 10.0251 9.50033 21.6974 20
450 1 8.21097 8.93099 21.6836 23
451 1 7.86911 6.613 24.5892 23
452 1 6.34596 9.51497 24.5473 24
632 2 7.7811 8.25456 23.8055 23
488 1 9.72791 8.86604 24.2658 23
628 2 8.53952 8.66144 19.1287 22
626 2 6.50621 9.70223 21.1533 23
625 2 8.00757 6.19101 21.1491 22
484 1 10.3566 9.80391 19.2093 23
485 1 9.9307 11.5072 21.8647 23
667 2 9.77893 10.7703 23.8633 22
448 1 6.914 9.78026 19.0624 22
473 1 9.63205 6.12433 21.713 25
447 1 8.3182 6.74387 19.2347 25
631 2 6.49583 11.2139 23.6845 24
636 2 7.91778 8.60516 28.7443 24
454 1 8.09081 8.36294 26.8369 25
455 1 8.09119 6.94201 29.309 23
456 1 6.40106 9.44573 29.697 25
634 2 6.14531 9.79244 31.7255 24
492 1 9.35894 9.41765 29.5341 23
666 2 9.74162 9.24698 26.1045 26
671 2 9.35828 11.2688 28.8914 24
629 2 7.90604 6.54953 26.824 24
630 2 6.60322 9.37044 26.5261 25
453 1 7.00833 11.1917 27.242 23
633 2 7.91427 6.89148 31.3037 23
635 2 6.63434 11.2237 29.3883 23
670 2 9.3283 9.85995 31.5002 24
419 1 5.48994 7.04413 30.0785 22
489 1 10.1119 11.0716 27.0796 24
278 2 6.17255 14.7339 5.62794 20
277 2 8.25871 12.0701 5.08256 23
99 1 8.11994 11.9004 3.07429 22
100 1 6.05171 14.7679 3.65502 22
280 2 8.07713 14.3986 2.87339 22
314 2 10.4732 14.8545 4.63374 22
303 2 10.014 11.7286 2.87015 23
137 1 10.0813 16.7278 5.24857 22
136 1 10.123 15.2036 2.70676 21
98 1 8.00138 14.1741 0.774056 22
102 1 8.75035 13.8469 5.20649 24
645 2 7.99163 12.3724 0.0366437 23
121 1 9.78843 11.3919 0.870276 23
133 1 9.40927 17.2569 1.0835 22
646 2 6.18642 14.7424 0.0225486 22
101 1 6.23708 16.7832 5.54493 23
279 2 6.46793 16.875 3.45854 20
267 2 6.10786 11.4434 2.62983 23
682 2 9.55112 15.3761 0.695791 19
125 1 9.95401 11.4968 5.82673 24
85 1 6.57061 11.4925 0.711381 22
103 1 8.52735 12.198 8.3668 22
104 1 6.86342 14.4739 7.79179 24
318 2 9.63113 15.0487 10.0375 24
106 1 8.37909 14.1127 11.0917 21
140 1 9.851 15.1954 8.02489 25
284 2 8.69289 13.3835 7.14213 19
281 2 8.41815 12.3458 10.2305 24
282 2 6.78248 15.1408 11.169 19
271 2 6.75719 11.3956 7.57639 26
141 1 10.0413 16.9737 10.4343 22
105 1 6.58953 16.9443 10.3882 22
93 1 6.88432 11.9176 11.2053 20
283 2 6.4648 16.4362 8.06143 21
323 2 9.6775 16.9433 12.4005 24
319 2 9.7235 16.9548 7.50685 22
107 1 8.59464 12.546 14.2378 24
627 2 6.75232 11.3787 18.5409 23
663 2 9.95789 11.7932 18.9287 24
285 2 8.30052 12.4073 16.2165 20
286 2 6.72081 15.2884 14.9896 22
108 1 7.27279 15.5695 13.2864 19
640 2 8.31134 14.6536 18.3696 23
322 2 9.57051 15.4101 16.2174 21
639 2 6.80992 16.7771 18.0815 25
458 1 7.99325 14.3521 16.6782 26
144 1 10.0315 15.4615 13.9131 24
288 2 8.67551 14.217 13.494 24
496 1 10.1606 15.1378 18.6875 22
275 2 7.64421 11.4261 13.2509 20
71 1 5.29827 12.1588 13.9298 23
457 1 6.33913 16.9298 16.1766 24
481 1 9.78547 11.8299 16.9958 21
644 2 8.35287 13.7289 23.8257 22
462 1 8.11154 13.9812 21.9781 22
463 1 8.38228 11.9009 24.5112 24
464 1 6.83889 14.8955 24.8279 23
674 2 10.0596 14.7043 21.3241 21
500 1 9.65445 15.2776 23.812 21
637 2 8.09861 11.8708 21.127 22
638 2 6.68118 14.882 21.5739 23
497 1 9.7371 16.8774 21.5458 22
643 2 6.92562 16.9139 23.6207 22
449 1 6.7112 11.7731 22.0023 23
460 1 6.64504 15.2375 19.0671 20
499 1 11.0015 12.253 24.756 24
461 1 6.486 16.7298 21.5823 22
459 1 8.76527 12.7281 19.7433 23
648 2 7.98751 13.9103 29.4292 21
466 1 8.30798 14.115 27.3561 24
467 1 8.13708 12.1793 29.9276 24
468 1 6.15829 14.6583 29.7588 21
678 2 9.59714 15.1527 26.238 24
504 1 9.61407 15.0177 30.1823 25
641 2 8.24074 12.314 26.4218 24
684 2 10.876 14.2774 28.9709 25
465 1 6.34238 17.186 27.1322 23
642 2 6.57655 15.3058 26.9634 21
683 2 9.31895 16.7337 29.3088 24
647 2 5.97535 16.9214 29.4796 22
976 2 8.0504 19.7956 3.00542 23
973 2 7.88004 17.5244 5.58318 22
795 1 7.9325 17.8297 3.72276 22
796 1 6.28826 20.7467 3.13033 23
97 1 6.07119 17.448 1.33264 23
798 1 8.28815 19.6398 5.80334 23
974 2 6.47374 20.5844 5.08094 23
832 1 9.8106 20.7522 3.46497 23
1010 2 9.78375 20.9385 5.41914 21
1342 2 6.3654 20.5425 0.164653 22
794 1 8.09034 19.7064 0.953223 22
315 2 9.89649 17.2154 2.7234 21
1341 2 7.6377 17.9154 0.421325 22
793 1 6.39047 22.732 0.555192 22
829 1 9.7653 22.709 0.542144 23
1378 2 9.37823 20.6834 -0.0311986 23
975 2 6.31222 22.6906 2.56515 21
797 1 7.01131 22.3685 5.55835 25
799 1 8.25493 18.0977 8.17513 23
800 1 6.2552 21.2371 8.3276 22
980 2 7.75981 19.8335 7.60903 22
802 1 8.31764 19.8903 10.8304 21
836 1 9.27299 21.0129 8.4051 23
1014 2 9.74862 20.5962 10.2679 21
977 2 8.44213 18.1826 10.2442 22
978 2 6.6516 20.9298 10.2971 24
837 1 10.2592 22.6729 10.7864 26
1156 1 6.51312 20.5567 18.776 24
1336 2 8.04959 20.0528 18.0562 22
840 1 10.194 20.6094 13.5407 24
981 2 8.62244 18.1858 15.8726 25
982 2 6.72363 20.2816 15.603 21
984 2 8.44178 19.923 13.0024 23
803 1 8.69757 18.1876 13.5108 25
1018 2 10.052 20.8287 15.6576 22
675 2 9.96644 17.1 18.6606 22
1154 1 8.38122 20.239 16.3087 22
804 1 6.60583 20.6637 13.7068 23
287 2 6.80467 17.5261 13.3467 21
1335 2 6.83696 22.5589 18.1186 23
1371 2 10.4849 22.4827 17.8151 23
1192 1 9.83978 20.7671 18.4253 23
493 1 9.90867 17.263 16.6227 25
1019 2 10.1114 22.6319 12.7215 24
1189 1 9.98752 23.1307 16.1335 21
1370 2 9.85777 20.9155 20.3996 23
1158 1 8.33037 20.236 21.7723 24
1159 1 8.35654 18.2272 24.468 23
1160 1 6.36837 20.9082 24.3436 23
1340 2 8.0061 19.9436 23.6101 22
1196 1 9.86724 20.6904 24.1553 24
1333 2 8.44169 18.418 20.9615 22
1334 2 6.39795 20.9255 21.3222 20
1193 1 9.4523 22.5787 21.4354 23
679 2 9.6625 16.9426 23.3169 25
1339 2 6.49808 22.5755 23.4759 25
1155 1 8.42101 18.3148 18.836 21
1375 2 10.4692 22.2819 23.5766 22
1157 1 6.48727 22.7748 21.113 21
1344 2 7.73965 19.6153 28.679 23
1162 1 8.17689 19.8388 26.7001 22
1163 1 7.39897 18.0201 30.2286 20
1379 2 10.2148 22.5863 28.8793 22
1343 2 6.09011 22.2841 29.0113 23
1200 1 9.4448 20.5005 29.6198 20
1337 2 7.5742 17.918 26.1768 21
1164 1 6.51628 20.6465 29.8628 23
1374 2 9.69548 21.0141 26.2818 23
1338 2 6.71051 21.1463 26.5584 23
501 1 9.31214 17.17 27.2486 23
806 1 8.49383 25.4884 0.233953 24
1022 2 9.96639 26.5004 5.3039 20
807 1 7.67018 23.6041 3.0478 23
808 1 6.6644 27.091 2.86822 24
988 2 8.07032 25.4106 2.20831 23
810 1 8.14461 25.3106 5.72734 22
986 2 6.52349 26.2649 4.69338 23
844 1 9.51859 26.1358 3.39296 25
985 2 8.41259 23.6342 4.73422 23
833 1 10.1548 22.8723 5.73506 23
1024 2 10.7992 25.7863 2.15115 22
1011 2 9.97569 22.941 2.63953 24
1354 2 7.27648 26.9093 0.361086 21
811 1 8.04131 23.8404 8.59035 23
812 1 6.38139 26.7221 8.12701 23
992 2 7.84053 25.7037 7.71929 24
814 1 7.75512 25.5174 10.7761 24
848 1 9.49387 26.7552 7.96377 23
1026 2 9.48358 26.0655 9.77824 23
989 2 8.47134 23.6336 10.572 24
990 2 6.13597 26.3432 9.92272 24
1015 2 9.48841 22.8255 7.64278 23
801 1 6.77526 22.9916 11.5039 23
849 1 10.0424 28.3835 10.9995 22
995 2 6.20644 27.9841 12.5949 21
813 1 6.51048 28.2192 10.3913 22
979 2 6.78567 22.9883 7.38627 24
1348 2 8.44288 25.6567 18.0057 25
1153 1 6.51167 23.1348 15.8117 20
1204 1 9.64429 26.9804 19.0255 25
816 1 6.47768 26.6571 13.7612 25
994 2 6.97178 26.1029 15.2846 26
1165 1 6.75088 28.012 16.3769 23
1166 1 8.53997 25.5544 16.111 23
1030 2 10.0936 26.738 15.4018 25
993 2 8.23292 23.7842 15.7295 21
852 1 9.98054 26.7524 13.6345 22
996 2 7.93947 25.3139 12.6915 26
815 1 8.4636 23.4665 13.5752 22
1167 1 8.01618 23.7963 18.5574 21
1347 2 6.77884 27.9977 18.2361 23
1201 1 9.81528 28.5646 16.0172 22
983 2 6.74943 22.9748 13.4649 20
1382 2 10.1823 26.5379 21.8481 21
1170 1 8.50767 25.6486 21.503 22
1171 1 8.02795 23.4873 24.0302 25
1172 1 6.34498 26.0326 24.1855 23
1352 2 8.51025 25.2142 23.2975 24
1208 1 9.87051 26.4415 24.0722 23
1345 2 8.38433 23.7717 20.4342 22
1346 2 6.6064 26.2841 21.4439 21
1351 2 6.80837 27.8619 23.455 23
1205 1 10.2894 28.42 21.4413 21
1169 1 6.80345 28.1687 21.4465 25
1357 2 8.58344 28.23 20.6664 21
1168 1 7.13094 26.3869 19.2688 20
1386 2 10.3541 25.8827 26.1842 23
1174 1 8.35128 25.3612 26.8268 22
1175 1 8.10898 23.5068 29.5535 20
1176 1 6.99651 26.7412 29.8133 24
1356 2 9.12352 25.0446 29.0331 18
1212 1 10.4286 26.4599 29.4089 21
1349 2 8.48817 23.6313 26.069 23
1173 1 7.10645 27.9594 26.6058 21
1350 2 6.63906 25.9491 26.1227 25
1197 1 10.1384 22.9725 25.7623 20
1390 2 9.94169 26.6055 31.5695 23
1161 1 6.79415 22.9057 27.0036 23
1353 2 7.90198 23.7516 31.3975 22
1355 2 6.72791 28.2323 28.5079 24
1391 2 9.46034 27.9986 29.0975 22
1209 1 10.0183 27.8802 26.4594 23
1034 2 9.37883 32.2807 5.0548 22
822 1 7.88618 30.9595 5.69554 25
809 1 7.09276 28.3513 5.53297 23
820 1 6.54782 32.6194 2.71546 23
998 2 6.14826 32.5783 4.86377 21
819 1 8.28562 29.4296 3.01004 22
997 2 8.85263 29.2517 4.92325 22
856 1 10.0102 32.1928 3.28039 24
1000 2 8.26482 31.8183 2.32613 23
818 1 8.08198 31.4849 0.444452 25
987 2 6.65405 29.0686 2.50047 23
961 2 5.62351 29.9533 5.0621 21
805 1 6.83376 28.9309 0.44168 24
1023 2 9.90795 28.4557 2.38638 25
1035 2 9.876 34.0718 2.50373 25
857 1 9.92471 34.0629 5.79559 20
841 1 9.93303 28.4453 0.221947 21
845 1 10.4649 28.9599 5.71252 23
853 1 9.91539 34.0897 0.285476 21
821 1 5.69485 33.9449 6.31612 20
991 2 6.53744 28.8147 7.40714 21
824 1 6.35817 32.1691 8.53974 23
1038 2 9.72348 32.0652 9.92479 24
826 1 8.56212 30.8825 11.0217 22
860 1 9.44091 32.271 8.04078 21
1004 2 7.81357 31.2527 7.6217 25
1001 2 8.75678 28.8206 9.95944 21
1002 2 7.25001 32.6834 10.306 22
790 1 5.53355 31.4781 11.2113 22
823 1 8.1744 29.4685 8.31718 23
1027 2 10.1357 28.9258 7.83681 25
861 1 9.87295 33.6446 11.0733 24
864 1 10.2537 31.9867 13.7434 22
828 1 6.89331 32.3693 13.5608 23
1395 2 9.85621 34.1004 17.7015 25