ITEM: TIMESTEP
20000
ITEM: NUMBER OF ATOMS
2000
ITEM: BOX BOUNDS pp pp pp
-30.0 30.0
-30.0 30.0
-30.0 30.0
ITEM: ATOMS id type x y z Coordination
1 1 -9.08723 8.00018 -12.5463 11
2 1 -2.59228 -6.58323 -11.2374 23
3 1 1.54621 13.8599 11.5181 19
4 1 7.91495 -8.19123 8.29228 13
5 1 -9.44848 9.26554 -0.0781121 22
6 1 9.5969 -8.33367 -11.2345 12
7 1 -13.567 4.84763 -6.19522 15
8 1 -0.833773 -4.8544 10.5974 15
9 1 -6.56785 3.26045 -10.1792 20
10 1 -12.311 -7.37915 6.02125 18
11 1 15.6859 3.52865 -9.72144 15
12 1 -3.06578 2.95399 -5.77952 23
13 1 -3.48397 -11.7107 2.42721 23
14 1 -9.81131 -6.36406 4.48509 22
15 1 1.46718 4.25821 15.8654 17
16 1 7.59532 -1.58598 4.51453 20
17 1 1.37656 6.03899 11.2687 20
18 1 10.1039 3.9789 3.2466 20
19 1 -0.49555 11.0063 -8.13149 18
20 1 2.09177 3.00945 10.3784 19
21 1 -11.6422 2.02562 -14.5536 10
22 1 -12.3479 -1.78581 12.2156 15
23 1 17.6197 3.69077 7.23449 13
24 1 2.65617 10.4572 -8.91817 18
25 1 5.54653 6.09574 -11.3588 20
26 1 13.0644 6.4531 10.7975 20
27 1 -8.38571 3.3797 2.0102 19
28 1 -13.1689 8.73979 -7.13826 10
29 1 -3.54762 -0.896966 -7.37667 19
30 1 -11.7916 12.9227 11.8127 9
31 1 7.10275 -11.3987 7.89262 9
32 1 3.89656 2.2778 7.45592 21
33 1 1.49713 -11.9923 -11.5418 12
34 1 9.81901 -8.64017 3.47984 13
35 1 -7.55583 -11.124 -5.83379 13
36 1 -12.8336 -4.89838 10.8074 14
37 1 5.73816 -1.40606 -2.67822 20
38 1 2.08455 -6.22984 -11.2012 19
39 1 7.30702 -8.54395 -12.6376 14
40 1 -1.67999 5.95352 -16.2599 12
41 1 1.43741 6.98279 14.3116 22
42 1 0.4471 -11.3848 9.99968 10
43 1 6.55596 -1.91143 13.3301 15
44 1 -10.9544 1.64524 3.33605 21
45 1 -15.0658 0.813614 8.37432 16
46 1 -7.53642 1.18226 -1.44312 17
47 1 -3.49588 15.9581 -1.42265 16
48 1 -1.89859 -11.7342 -10.8418 15
49 1 3.84401 2.91252 -6.49076 19
50 1 6.34057 -2.79774 -8.05169 17
51 1 -2.45726 -1.1303 12.8022 19
52 1 -14.7904 4.60002 -1.77547 13
53 1 6.54604 13.081 -12.6806 11
54 1 3.78966 18.4647 7.90437 13
55 1 -6.15156 11.5818 -5.03081 19
56 1 -2.19549 17.6322 1.43793 11
57 1 1.63654 -9.86594 1.50206 20
58 1 8.59543 -6.54907 -6.40165 17
59 1 7.11924 -4.56771 -16.799 13
60 1 -8.80434 13.6801 12.9464 12
61 1 -13.3552 -1.94912 -10.4009 12
62 1 7.98727 3.04118 5.58696 19
63 1 -10.0218 6.81612 -4.04289 18
64 1 -8.54476 -7.30402 7.26279 21
65 1 -2.83603 13.974 13.9931 19
66 1 -15.9529 7.30465 -6.43402 8
67 1 -6.09549 12.5635 14.7939 15
68 1 9.17547 11.5456 -6.46987 19
69 1 2.12484 6.1373 4.84601 18
70 1 -5.94091 -11.1877 4.6556 23
71 1 6.18829 5.33776 6.56526 19
72 1 4.47253 -14.2495 -5.38336 11
73 1 5.2613 14.2626 14.6055 13
74 1 -13.2798 6.20554 -8.89847 13
75 1 -8.82256 8.8956 -9.28774 15
76 1 5.96563 9.94181 9.70375 17
77 1 15.1869 0.582702 -10.3277 15
78 1 8.89269 -10.2516 6.03525 12
79 1 -16.5911 0.0342016 5.47182 13
80 1 -6.04752 1.45817 1.83977 21
81 1 6.57845 17.8803 6.36743 15
82 1 6.25849 0.776187 14.0315 14
83 1 -5.96182 -9.32817 2.17084 22
84 1 -10.1034 1.0772 0.193531 19
85 1 9.45027 8.12073 6.67911 21
86 1 7.33505 1.36695 -2.60283 21
87 1 -1.15439 14.0336 10.863 23
88 1 4.80591 4.8395 9.7006 23
89 1 -4.54938 -1.39769 1.50411 21
90 1 -1.6761 -5.83723 -8.35255 21
91 1 -14.1515 7.64874 9.46559 13
92 1 -7.34974 11.7881 0.566977 21
93 1 -0.301828 7.41367 -5.93399 18
94 1 5.62657 0.429469 -5.44954 18
95 1 9.31718 1.57382 -5.43744 19
96 1 11.3219 15.5275 -9.28866 9
97 1 9.15209 1.15192 3.39648 17
98 1 4.81638 -4.57075 12.6045 14
99 1 -6.36453 16.2087 -3.37055 12
100 1 -10.5864 14.5981 4.90079 12
101 1 -7.08022 -3.24483 14.6884 13
102 1 -4.38236 11.0271 7.70593 20
103 1 -5.59494 -3.58144 9.85427 22
104 1 13.1681 -5.15147 -3.8093 15
105 1 -13.1148 6.71877 6.57521 15
106 1 -11.4855 -10.4445 1.72013 13
107 1 12.4349 -6.56362 -6.35858 17
108 1 7.31916 5.11989 -9.24264 20
109 1 -6.88081 1.55828 -16.4358 11
110 1 5.49751 1.24295 5.1156 18
111 1 2.65765 15.4552 3.57256 18
112 1 -6.48362 8.68672 -7.09097 19
113 1 0.927 11.1635 16.1976 13
114 1 -0.182812 14.6378 -5.01504 18
115 1 -12.168 8.74008 1.83765 18
116 1 2.67951 11.3899 1.65893 20
117 1 -5.45225 -6.33372 7.78539 20
118 1 15.9232 0.749366 6.82386 15
119 1 -1.19604 -3.04248 -8.37876 19
120 1 8.33969 -9.40166 -6.93748 18
121 1 -3.15446 4.92141 11.869 23
122 1 9.15768 3.53656 12.4413 21
123 1 -7.69213 -4.42717 -0.8746 16
124 1 5.82055 -0.527126 2.53373 21
125 1 -12.0863 -7.64729 -3.75503 11
126 1 9.239 -6.43277 1.24114 20
127 1 -4.39808 9.39224 4.23396 19
128 1 8.65168 4.64891 -11.8998 20
129 1 8.1859 18.5889 -2.45036 15
130 1 -7.01885 -11.4155 10.3799 12
131 1 -10.078 -12.672 9.36961 11
132 1 -3.45015 7.391 1.28072 21
133 1 3.62053 -5.42242 -16.6978 13
134 1 3.88732 10.1638 -4.6548 18
135 1 11.8923 -7.43357 0.559166 12
136 1 0.227336 -16.2633 5.99001 12
137 1 -5.33382 -6.83572 0.726692 20
138 1 16.4005 8.25267 10.6599 8
139 1 16.4235 -2.3633 -8.07144 12
140 1 -15.0889 -2.21015 3.93124 16
141 1 10.9755 13.9601 3.71344 20
142 1 15.6113 9.11759 4.96236 22
143 1 -3.83889 4.13617 15.687 15
144 1 7.04721 3.99105 -1.21834 20
145 1 -3.992 12.3684 11.7409 22
146 1 -4.35745 13.8085 -4.21286 21
147 1 -0.709389 -4.6068 -10.8836 21
148 1 8.44875 -11.6399 -11.3115 11
149 1 3.3777 14.6862 -10.3154 15
150 1 8.41422 0.476284 11.0858 20
151 1 2.90064 0.666172 -16.1088 18
152 1 -0.0845714 10.0481 -3.43493 20
153 1 13.8802 2.43685 -7.51442 21
154 1 -7.91336 9.31911 -3.65777 19
155 1 -10.3191 12.5193 -0.360617 12
156 1 7.95085 2.25212 -10.0916 17
157 1 9.82654 -6.6434 5.91382 13
158 1 -5.59988 4.10637 -6.55756 22
159 1 -5.88274 15.1664 10.6522 13
160 1 16.1514 10.0456 -7.78107 10
161 1 7.38605 14.7267 -3.73615 15
162 1 -4.89397 16.4166 3.21469 15
163 1 13.1605 11.536 0.376686 18
164 1 -2.0398 13.8091 -2.40217 19
165 1 0.341852 15.2429 -8.62114 18
166 1 3.76426 11.5279 -13.3916 11
167 1 -12.1026 -7.65539 2.78185 16
168 1 -13.7869 7.22466 -3.80208 15
169 1 -3.91941 1.16489 -15.224 20
170 1 -0.192157 -7.09957 -13.4118 19
171 1 11.5962 15.4084 9.07573 16
172 1 0.221873 18.4307 6.75223 15
173 1 -10.4315 -0.013161 -5.71538 20
174 1 -11.1295 11.3659 3.72285 18
175 1 17.7218 1.43955 -4.5014 12
176 1 -8.08503 3.56404 -14.5281 13
177 1 6.40555 4.36919 17.83 12
178 1 3.68846 18.249 2.12087 15
179 1 -3.36705 9.71521 10.1627 21
180 1 1.77385 -2.40577 -16.0171 16
181 1 -2.70673 16.3155 10.9542 14
182 1 -1.74554 11.8995 -4.90777 18
183 1 3.05628 1.82026 13.5634 19
184 1 -13.0109 -1.59004 6.17554 21
185 1 -3.51652 -9.1705 -13.4032 15
186 1 -10.8596 14.0461 -9.50682 5
187 1 -2.93599 -8.94981 2.74876 22
188 1 2.3474 -12.0217 -5.88067 20
189 1 -4.36717 12.9391 -10.4023 13
190 1 -11.2128 2.90948 9.15125 16
191 1 3.71143 11.371 -2.02822 20
192 1 13.358 11.6353 -2.50341 23
193 1 -6.18114 5.206 13.9784 16
194 1 1.89732 -8.89062 9.01419 14
195 1 -6.91398 6.70096 0.991973 21
196 1 2.51737 12.8878 6.66813 21
197 1 -1.18121 7.11474 9.18807 21
198 1 14.6488 7.73691 16.3394 9
199 1 -7.91116 16.6854 2.50425 11
200 1 14.6842 -5.70182 -8.38887 11
201 1 -5.32322 15.0012 13.1051 15
202 1 -4.2304 1.45948 -10.3563 18
203 1 13.0901 -3.368 3.59728 14
204 1 -4.99062 -1.13182 7.3194 19
205 1 -17.6056 2.44827 7.48597 8
206 1 -8.56905 -9.16577 4.82275 20
207 1 6.6668 8.50294 15.0667 19
208 1 -16.977 -1.12958 -0.76983 9
209 1 -1.45895 -12.2473 -0.775787 21
210 1 -5.44478 -1.9522 -1.85381 22
211 1 8.40219 -6.49984 -2.1419 19
212 1 -1.88648 10.9738 5.20883 20
213 1 -6.28105 3.75733 4.7569 18
214 1 5.98421 17.0931 12.81 11
215 1 -7.43182 -1.16508 -3.47788 18
216 1 -8.33961 15.9435 -7.72886 9
217 1 -12.5903 -4.53173 -4.72371 14
218 1 -7.90145 1.36677 12.1448 15
219 1 1.58714 -7.98718 4.26541 21
220 1 3.82303 -11.7355 8.90851 11
221 1 -13.2768 9.71913 5.026 10
222 1 16.4705 4.49326 4.77521 17
223 1 8.96812 5.15031 -6.28749 19
224 1 -6.19218 -4.32131 -13.8017 17
225 1 5.13861 1.86924 10.9777 19
226 1 5.28264 -14.1596 4.04247 16
227 1 -0.125983 8.51532 -9.16852 19
228 1 2.45257 -9.21355 -11.5003 16
229 1 11.4192 2.50682 -14.291 13
230 1 3.57 7.95783 -13.3344 15
231 1 -3.99327 -4.18283 -8.96433 22
232 1 -5.15673 16.8318 -6.58694 11
233 1 -9.24217 -9.21034 9.80417 17
234 1 9.26575 16.8496 -4.64022 17
235 1 -9.50009 4.84362 10.7795 17
236 1 -7.81254 14.996 -0.89929 13
237 1 6.7355 2.23601 8.1617 21
238 1 -4.30567 -3.42693 -15.8755 13
239 1 -2.9029 9.53568 -6.15913 20
240 1 3.85201 5.08057 -8.9786 22
241 1 -7.08362 -9.94816 7.68853 21
242 1 -8.40388 8.64058 8.32582 22
243 1 -6.2283 10.777 12.0453 20
244 1 1.4322 -10.1922 -7.73283 19
245 1 -5.9387 -12.3361 0.180239 16
246 1 10.1383 -9.19278 0.00809931 16
247 1 -1.46421 4.91169 7.13368 18
248 1 2.5225 -4.66003 -0.436147 19
249 1 12.817 10.3941 15.5343 13
250 1 7.10121 11.2338 -8.1133 21
251 1 0.654919 12.3347 -1.15697 23
252 1 -10.8173 4.05767 4.59607 18
253 1 -14.1302 7.8046 -1.07341 12
254 1 3.81997 8.23 11.0505 24
255 1 4.7175 -15.1252 0.98046 13
256 1 12.5746 4.10002 -2.72926 18
257 1 3.99186 9.87683 7.84922 22
258 1 -8.97329 13.0853 6.75869 19
259 1 -8.97268 -5.87047 -3.6835 19
260 1 9.45461 7.8304 -13.3445 13
261 1 4.18979 -1.74519 10.5201 18
262 1 10.0833 12.744 -9.42996 21
263 1 2.94443 -6.78514 -2.73278 21
264 1 -1.23234 -0.0120403 -13.1508 21
265 1 2.94995 -15.8234 5.99591 14
266 1 10.7163 -1.19688 -6.03386 19
267 1 -9.68378 2.60599 6.6419 20
268 1 3.81049 -15.5185 -2.00809 11
269 1 -8.51023 -3.78384 -8.74252 17
270 1 5.87104 15.8699 -1.57959 16
271 1 5.59079 -0.0502672 -14.7216 17
272 1 4.54756 6.0949 16.3126 21
273 1 15.5533 6.41286 1.85657 21
274 1 -1.28907 -4.83877 4.97788 20
275 1 14.4306 -3.91443 -10.7817 9
276 1 0.85311 -4.17726 2.33441 21
277 1 -10.1001 -1.70456 -11.1705 17
278 1 -9.73716 2.19602 -11.7283 21
279 1 -7.60929 -13.4853 7.23909 16
280 1 12.9048 3.25684 9.92943 22
281 1 5.62312 -0.920711 7.1006 19
282 1 -4.5058 -3.71584 -11.6381 21
283 1 4.50493 -3.84097 7.44427 17
284 1 2.14606 7.02742 -11.0383 19
285 1 7.76276 12.3071 3.31453 17
286 1 -6.84003 -3.76123 2.1122 20
287 1 4.60124 13.0141 3.75168 19
288 1 -5.88794 -0.27479 9.82461 18
289 1 -9.8282 -7.47103 -9.42334 15
290 1 -4.40485 -1.39186 -13.2926 22
291 1 -1.02618 8.37445 -13.7341 12
292 1 -7.44746 -9.69954 -10.5602 15
293 1 -0.724865 -6.72609 2.684 21
294 1 9.33273 -3.87939 -15.4087 11
295 1 12.5312 2.59096 -10.7694 18
296 1 0.299544 -1.97188 4.54796 19
297 1 10.6164 5.6155 4.89021 20
298 1 -2.45739 -4.12274 -3.35717 22
299 1 -8.4313 -2.47578 11.054 18
300 1 -3.99316 -7.34976 -3.13398 20
301 1 7.90525 7.36274 17.4189 15
302 1 -9.47071 -11.7165 5.27838 23
303 1 5.56312 4.17216 -3.82252 18
304 1 -1.30455 -9.79177 0.694631 22
305 1 1.03422 18.3839 -0.323361 13
306 1 9.11195 2.00101 -16.0667 12
307 1 -6.41067 -1.1655 -15.5736 15
308 1 6.27264 -5.05978 -0.322757 18
309 1 -9.71065 -6.71817 11.0507 14
310 1 3.47307 10.3336 18.5338 11
311 1 3.11991 -12.71 1.22785 20
312 1 -4.93126 -12.2667 -11.9009 7
313 1 -8.16191 5.87166 -7.03882 19
314 1 10.0013 11.0741 5.37379 21
315 1 -3.78154 3.99179 -8.95147 20
316 1 5.10773 9.44409 -7.04878 21
317 1 -1.73829 -1.12927 6.63056 18
318 1 6.43909 -12.734 -10.037 10
319 1 -5.70466 17.1065 0.19158 11
320 1 3.82513 13.0482 9.07514 19
321 1 13.5118 4.03918 4.23039 21
322 1 -7.66726 1.36486 4.79866 22
323 1 -2.35919 -5.82522 8.1093 20
324 1 -4.41825 12.3925 4.90039 19
325 1 4.20126 -3.78593 -13.5921 18
326 1 17.122 8.96427 0.694163 16
327 1 4.5967 -9.87804 2.5018 19
328 1 -1.55842 0.146021 15.7133 14
329 1 -16.4059 -2.9497 7.09347 9
330 1 0.854624 -15.1907 -3.82306 12
331 1 -8.92635 10.8135 12.8167 13
332 1 -9.47727 5.9323 13.4294 11
333 1 -14.4657 -2.2054 9.88443 12
334 1 -13.6968 -4.63874 7.93233 16
335 1 16.7423 -0.900285 -2.34725 11
336 1 -11.4242 -6.82079 8.7646 18
337 1 7.71809 -1.7558 -5.14746 21
338 1 10.4212 -10.8983 -5.1949 11
339 1 4.63194 18.3294 -2.97813 12
340 1 -3.2832 -1.9414 4.45529 20
341 1 -11.1323 8.34145 -2.56478 15
342 1 1.58532 5.31782 8.17902 23
343 1 10.3755 11.4562 11.1966 18
344 1 -8.45567 -0.868991 2.3883 19
345 1 7.74658 -10.5193 -2.09891 17
346 1 -2.13077 13.5591 3.55042 22
347 1 -7.076 10.7571 6.34077 19
348 1 6.06002 -6.53489 6.94061 20
349 1 13.5884 -1.49599 6.21467 16
350 1 -5.49813 8.3697 8.46529 21
351 1 -5.19392 -2.8637 -5.40831 20
352 1 -0.592782 2.5054 17.7755 8
353 1 -4.24061 15.1117 5.83538 16
354 1 9.43002 10.1053 16.3167 15
355 1 -8.71777 14.4194 -4.30361 11
356 1 5.08254 -2.1841 -16.5078 17
357 1 -6.17964 6.73573 -4.79037 22
358 1 5.29162 -7.07249 -11.3927 21
359 1 -10.7701 6.74085 9.10921 18
360 1 -16.1285 3.10956 4.22807 14
361 1 -2.24744 -2.37751 -5.4479 21
362 1 -3.8978 11.1479 1.51785 20
363 1 10.8599 -2.98991 8.06927 19
364 1 -7.02236 -6.14256 3.26728 21
365 1 6.96957 -5.67399 10.0677 14
366 1 -5.05631 4.3209 1.93091 20
367 1 -6.6253 -8.08389 11.5336 10
368 1 -14.5241 6.04133 1.47397 15
369 1 0.46105 -2.34801 10.9244 18
370 1 4.29995 -10.6192 -3.10377 21
371 1 -5.68078 -1.70771 -9.52926 19
372 1 10.9357 -0.893773 -15.0506 12
373 1 5.73213 15.9626 4.84233 18
374 1 -12.0764 0.124071 -2.13219 16
375 1 6.03465 -7.28851 -8.04853 18
376 1 10.9078 7.79398 -10.8419 17
377 1 -5.57741 -10.8798 -8.66184 15
378 1 -11.7264 -5.45268 -1.05473 17
379 1 -2.73503 -4.36594 1.74884 22
380 1 10.8488 7.81641 15.6166 16
381 1 14.2437 5.68572 -0.845456 17
382 1 -9.17075 5.71173 -10.3517 21
383 1 6.72551 18.3659 0.190935 15
384 1 -14.2115 -0.0494115 -7.7878 15
385 1 -9.37589 11.3147 9.77669 17
386 1 -7.43615 14.4008 4.30842 19
387 1 -2.69928 8.38446 6.77232 19
388 1 10.218 5.71134 10.7033 22
389 1 11.6734 -2.11949 -9.56441 20
390 1 12.596 -0.159793 14.8859 8
391 1 11.8772 5.11515 -12.1137 20
392 1 -4.24279 -13.3685 -2.28356 15
393 1 4.35759 4.97375 3.58812 17
394 1 -4.84045 6.9016 -1.80219 22
395 1 0.66033 -3.77965 -2.7513 22
396 1 0.669767 11.0781 7.00374 19
397 1 8.38777 8.53134 -6.05928 23
398 1 -9.43044 4.1209 -1.00852 19
399 1 3.85495 -8.64036 -0.359853 21
400 1 12.5315 1.46259 4.6781 17
401 1 -9.60741 -3.4163 -5.8684 16
402 1 -8.8615 -8.22556 1.72818 21
403 1 -7.04411 -4.82401 12.287 15
404 1 -2.02733 13.4184 0.4011 19
405 1 -10.8189 -8.87419 -0.574505 16
406 1 6.96099 11.9357 15.5338 15
407 1 -11.682 4.32066 -4.06958 19
408 1 2.26974 13.2529 -7.54669 20
409 1 6.36934 15.0249 8.16183 20
410 1 -13.2995 -7.44441 -0.22424 9
411 1 0.961589 -7.3921 -6.66893 20
412 1 -13.6205 0.959557 4.6957 23
413 1 -10.9632 5.81825 -7.26217 18
414 1 6.10363 -4.94213 4.28607 19
415 1 -4.28416 -10.1197 -0.517288 21
416 1 13.9189 13.3574 9.85899 13
417 1 6.16935 9.50445 -13.1341 15
418 1 -11.5985 7.51606 -11.1797 10
419 1 -2.92828 15.3581 -8.91859 13
420 1 -7.76145 4.8387 -3.78139 21
421 1 -0.371639 -10.1013 4.2719 24
422 1 15.2821 6.92373 7.89878 17
423 1 1.43237 9.92319 -12.076 16
424 1 -2.03476 0.570341 8.52287 15
425 1 -17.8941 1.97914 -0.70732 8
426 1 -7.85048 4.96217 7.19246 18
427 1 -2.5981 -11.8619 5.06488 21
428 1 3.59003 -5.72351 -6.0633 18
429 1 7.25459 -9.58729 -9.57802 22
430 1 2.2221 -0.909092 6.65802 18
431 1 -13.1292 0.444672 0.838321 18
432 1 -13.8705 1.19614 10.8295 14
433 1 -9.757 9.65192 5.42688 21
434 1 2.51035 -4.08141 9.72424 17
435 1 -10.1307 5.30637 -14.2615 9
436 1 6.85863 -11.225 -4.91143 20
437 1 3.04986 -6.43185 -13.7849 17
438 1 -3.15973 -2.4316 9.6259 24
439 1 4.17104 -4.0521 -2.94302 21
440 1 -3.24863 6.00563 -13.7708 14
441 1 8.04617 -14.4863 2.26093 9
442 1 2.66687 15.4606 -6.00518 17
443 1 -11.732 12.1312 6.63293 14
444 1 -3.77041 -2.43094 15.4993 11
445 1 -11.285 0.0843445 -8.67241 19
446 1 -7.08425 -5.19185 5.84504 22
447 1 11.3307 -4.81649 11.1135 9
448 1 10.8578 4.61862 -0.601054 21
449 1 -4.94017 6.41934 3.53561 18
450 1 2.27324 0.841103 -5.99112 20
451 1 9.57591 -5.16928 8.70414 12
452 1 -0.240094 7.48232 1.60688 17
453 1 17.2435 11.5444 -4.61027 12
454 1 -2.9854 2.16171 13.1514 19
455 1 3.86782 13.6735 -0.0193606 21
456 1 7.73116 -3.03108 7.02792 22
457 1 -4.63414 -12.6438 -5.74951 12
458 1 -3.52861 7.3105 15.4623 18
459 1 -1.78142 13.7085 7.02247 21
460 1 -7.99795 -8.8224 -7.97086 18
461 1 11.423 16.9655 3.28523 12
462 1 7.04641 8.73785 6.09067 23
463 1 -6.37239 6.05198 10.087 18
464 1 -3.90572 -5.58345 -5.93205 21
465 1 -14.0077 11.5122 9.49714 9
466 1 -7.05923 -5.70483 -6.31355 19
467 1 -4.05551 14.0325 8.86596 21
468 1 -4.70764 -7.51801 -7.86489 21
469 1 -5.85892 -7.1749 -15.6177 9
470 1 -12.4732 -10.4497 4.59427 15
471 1 -4.37174 0.888063 4.51401 21
472 1 11.3962 3.08572 6.97261 21
473 1 -4.2697 -3.73896 12.6563 17
474 1 -6.28604 6.41364 -8.7019 21
475 1 11.5658 8.7261 -1.49034 22
476 1 -6.13557 -10.8002 -3.02528 17
477 1 1.57875 3.00062 -8.50836 20
478 1 0.478544 18.0451 2.97956 14
479 1 2.85313 7.22598 -7.1263 17
480 1 -1.23768 11.448 12.2877 20
481 1 -13.5181 -0.976959 -5.41391 15
482 1 -1.30066 18.1578 -2.96692 9
483 1 9.4217 14.4876 -6.9543 18
484 1 -6.87217 -6.03827 -9.66982 19
485 1 4.69017 3.05574 15.4111 16
486 1 0.297623 -13.3644 -8.39721 14
487 1 0.588408 -1.67394 -10.8622 19
488 1 7.945 -12.0442 3.58472 14
489 1 -9.20939 8.20977 2.65532 18
490 1 4.53746 7.33915 13.7149 19
491 1 10.5848 11.9752 -1.40126 19
492 1 5.88402 11.742 0.86182 20
493 1 -6.57684 11.1005 -8.8963 18
494 1 6.97404 3.16791 -6.73257 20
495 1 4.26425 -7.6013 4.95162 19
496 1 -14.9396 -2.10745 0.784879 15
497 1 2.96375 17.9007 5.34573 15
498 1 -4.16394 3.65296 -12.3978 21
499 1 11.8898 8.56045 4.01417 20
500 1 5.1488 17.0421 -9.32972 11
501 1 9.67746 -3.74231 -0.265178 20
502 1 18.1005 6.15517 -0.9504 11
503 1 1.9262 0.898963 -10.8516 21
504 1 2.68736 -6.59333 1.56304 20
505 1 1.66537 -13.7374 8.1934 13
506 1 2.20739 -4.84798 13.1918 10
507 1 -9.35798 3.54641 -9.12624 18
508 1 -12.565 -12.9253 6.67748 10
509 1 3.16762 8.17488 2.16994 21
510 1 -2.35724 -9.28391 -8.69145 19
511 1 8.91464 16.7805 8.54542 13
512 1 2.11716 3.73305 -11.6118 21
513 1 7.92326 2.16648 16.5525 12
514 1 -14.7991 3.91269 12.9192 10
515 1 -0.595379 -16.6406 1.27072 11
516 1 -11.8364 -2.11365 3.26246 22
517 1 15.0755 -4.22319 -5.69354 13
518 1 14.1319 2.02179 -4.61277 16
519 1 4.6341 6.61959 -2.75657 20
520 1 -3.8988 10.4679 -3.30069 18
521 1 3.72287 -8.53259 -5.27068 23
522 1 5.10516 2.28851 -10.2933 18
523 1 10.1275 -0.0898748 -11.5228 18
524 1 -7.03591 2.71741 15.4932 13
525 1 10.232 18.3875 -0.201795 13
526 1 -3.56614 -0.38884 -17.6617 10
527 1 5.86149 -6.84597 1.95141 19
528 1 6.41857 3.84423 -16.3718 13
529 1 -7.74259 -2.40164 7.43861 21
530 1 0.880146 13.9803 1.34351 18
531 1 -8.93953 0.38814 -14.446 16
532 1 -15.6761 0.934542 2.07446 16
533 1 -2.23312 -7.97036 -15.8396 9
534 1 -4.72552 -9.05744 9.05865 15
535 1 1.53745 10.5271 -6.16772 21
536 1 17.0758 3.73377 12.2535 9
537 1 17.1018 9.62176 -2.0523 12
538 1 -9.61955 -8.46124 -5.3407 13
539 1 0.875886 -7.5389 -0.520674 21
540 1 -0.490537 0.414407 -15.954 20
541 1 -6.76032 11.8165 9.66622 23
542 1 4.51534 -4.38417 -9.94165 16
543 1 8.60125 5.49092 1.13848 20
544 1 14.0429 0.745516 -1.20147 18
545 1 6.73309 15.6546 -6.95222 17
546 1 7.67958 -3.83807 2.02972 21
547 1 9.84122 -1.11506 -2.94404 19
548 1 15.7867 6.58106 -8.42285 13
549 1 4.73268 11.2316 12.7668 17
550 1 -10.3771 6.35997 5.98615 21
551 1 -2.25667 -1.62847 -0.330864 21
552 1 4.6005 14.3307 11.7713 17
553 1 11.1825 2.97287 15.2311 17
554 1 1.01669 3.78501 -16.224 19
555 1 -0.735303 -5.18459 -5.58778 19
556 1 -0.606149 0.86227 11.5848 19
557 1 11.6622 11.7532 8.81668 21
558 1 10.3504 9.68023 -8.44275 23
559 1 -7.68694 12.2668 -2.53067 14
560 1 1.16407 14.7626 -1.91727 18
561 1 14.0972 1.32667 11.7409 14
562 1 13.0093 5.05966 -14.8936 9
563 1 12.287 -8.52794 -2.75578 10
564 1 13.4257 12.0357 12.6647 12
565 1 -13.4647 -4.3945 1.4411 17
566 1 -5.57728 13.9774 -7.49841 18
567 1 -1.05236 3.65999 10.167 21
568 1 -13.7893 1.14268 13.6462 9
569 1 -3.73466 12.0879 -7.51122 19
570 1 1.83151 -11.1062 -1.23239 22
571 1 7.57896 0.153555 -7.67944 19
572 1 -2.87561 15.8567 -4.68455 14
573 1 -7.52763 -1.78297 -12.8387 18
574 1 4.75523 -13.5738 6.51178 15
575 1 -11.7324 -1.94207 0.162309 21
576 1 1.46311 12.6187 -10.8427 18
577 1 -6.21865 3.86597 -0.827782 23
578 1 -2.33602 11.4042 17.4749 12
579 1 -10.8434 -2.34559 8.73181 20
580 1 4.86244 9.13813 -0.565308 18
581 1 3.0588 -7.2918 -8.92824 21
582 1 3.67822 -1.81045 14.8625 13
583 1 9.18466 3.58496 -3.54463 20
584 1 -11.3162 6.66941 -0.372931 21
585 1 4.89744 7.25953 19.0973 11
586 1 6.85804 19.0047 -5.45859 9
587 1 11.983 -3.80274 -6.87507 19
588 1 2.10375 9.63946 13.1815 17
589 1 1.82248 6.75154 -17.14 8
590 1 -4.6274 -12.341 7.61475 14
591 1 0.5439 0.148915 -8.5077 21
592 1 9.46996 4.87854 -15.5245 14
593 1 3.81396 15.5868 7.25272 22
594 1 10.3993 4.02743 -8.67332 20
595 1 -1.73649 -3.02073 -12.9737 20
596 1 -2.21695 -7.96349 -5.80491 20
597 1 -12.7439 1.30465 -11.0083 15
598 1 14.493 8.89734 -1.02595 19
599 1 15.4282 9.22415 -4.40801 16
600 1 9.47902 -3.55562 -7.25588 19
601 1 15.29 9.46581 13.6018 11
602 1 6.15841 -7.97585 -3.25669 19
603 1 4.02822 5.35942 -14.2872 19
604 1 9.28692 15.3771 -1.55169 24
605 1 -7.63536 7.55708 5.07578 20
606 1 10.107 11.7479 14.1648 16
607 1 18.1842 6.59902 3.04208 12
608 1 17.6542 3.82388 1.50529 14
609 1 12.7745 5.57966 -8.77567 23
610 1 11.3507 5.15804 13.6781 21
611 1 15.9368 6.18568 14.7053 9
612 1 2.61821 0.23654 10.1457 16
613 1 14.584 14.3297 -4.1857 15
614 1 7.0477 2.91292 2.59016 23
615 1 1.99453 0.952631 16.2626 13
616 1 16.3853 0.807375 -7.23232 15
617 1 9.83731 2.68343 9.27643 22
618 1 -5.64588 1.43553 -7.32367 21
619 1 14.5297 6.53812 5.2088 19
620 1 10.5775 -1.37795 3.08437 19
621 1 -0.754665 -4.93388 -0.347391 25
622 1 -12.3272 9.34597 11.0286 15
623 1 11.5818 14.5809 12.1248 12
624 1 14.085 3.72986 13.0122 18
625 1 1.79733 11.5488 10.3156 20
626 1 -0.469576 15.7432 13.3488 14
627 1 7.6982 6.13705 4.06261 22
628 1 -2.27247 -15.0942 3.72894 19
629 1 -4.61758 12.2442 -1.21718 18
630 1 13.222 11.7351 -9.21936 12
631 1 13.3985 -1.06246 -12.3535 11
632 1 3.0164 16.379 -0.45496 18
633 1 -1.10203 -11.3074 -6.00047 20
634 1 11.0452 -6.09292 -12.7161 9
635 1 -16.9848 5.0665 10.2347 8
636 1 -3.63588 6.34278 -6.88708 22
637 1 -5.37738 -13.7774 2.99144 16
638 1 -6.82676 1.21191 -12.4336 18
639 1 -11.7359 1.83412 -6.7167 17
640 1 9.69069 -3.65884 4.71885 17
641 1 8.88723 13.0006 0.816596 21
642 1 2.68497 -6.69359 7.40865 18
643 1 -11.7106 -4.43912 -9.64273 13
644 1 3.62273 3.69142 -17.3683 12
645 1 4.41562 -2.11304 4.92597 19
646 1 -1.6028 5.46103 13.8907 21
647 1 9.97297 14.1119 -12.525 10
648 1 16.0319 2.41216 9.6317 16
649 1 5.88098 5.8461 -6.0774 20
650 1 9.31951 2.06771 0.284758 18
651 1 13.3857 15.0417 3.84731 11
652 1 3.21715 -12.5713 -8.67108 15
653 1 -8.67501 -1.19433 13.484 16
654 1 15.703 -1.29629 3.87155 13
655 1 -0.979416 14.1061 16.4919 10
656 1 7.47576 14.5559 -9.97836 17
657 1 -10.3764 9.83834 -5.26363 12
658 1 9.00442 16.2267 5.72731 16
659 1 -8.74914 -10.8266 -0.821094 15
660 1 14.5255 -1.53095 0.639686 17
661 1 8.85494 15.9673 1.71703 19
662 1 -8.03579 8.46434 11.2199 20
663 1 -8.87441 -3.33315 4.38265 21
664 1 -7.37354 -1.28463 -7.04407 17
665 1 11.3675 1.95117 12.4806 20
666 1 -3.00478 -8.65232 6.11306 21
667 1 9.54171 8.23828 12.2542 17
668 1 -5.90832 13.3573 2.471 18
669 1 12.3257 6.15817 2.28746 24
670 1 7.57401 -1.51027 -0.0645142 19
671 1 9.22734 5.71661 7.48651 24
672 1 1.27824 2.41173 -13.5613 22
673 1 -4.93095 2.65608 7.26237 20
674 1 8.30167 -2.0404 -10.3635 19
675 1 1.10459 -2.14829 -5.69205 22
676 1 10.8633 -8.98398 -8.37509 13
677 1 11.0751 8.59069 9.32326 20
678 1 6.17028 8.64316 2.19716 18
679 1 -10.3889 1.5542 14.6947 13
680 1 14.1784 9.79616 7.47998 18
681 1 0.635553 -0.275435 14.1518 16
682 1 -1.01157 9.85749 14.6 16
683 1 1.00741 -3.83478 -13.6005 20
684 1 -4.46752 7.37466 12.1257 22
685 1 -4.09481 4.52386 -3.40497 22
686 1 7.1607 6.93168 11.9189 22
687 1 -10.3313 -14.7177 6.79538 12
688 1 15.5338 11.6296 1.87262 13
689 1 6.16749 -13.2288 -2.78397 16
690 1 1.64027 8.04734 -3.33742 16
691 1 8.28255 9.96388 0.168676 21
692 1 12.4868 17.0943 6.6856 9
693 1 5.9921 1.19362 -17.6465 13
694 1 0.603916 1.65823 7.46022 20
695 1 1.92145 17.2723 -3.73602 14
696 1 13.2422 11.3207 4.16694 21
697 1 -7.43268 -8.10382 -1.92821 19
698 1 1.81885 -0.839856 -13.7064 18
699 1 -12.6362 10.9644 -0.81627 11
700 1 7.22253 -4.8189 -10.0675 14
701 1 8.12444 6.92241 -1.78065 20
702 1 13.4443 8.80686 -9.02693 18
703 1 14.0317 14.4184 -0.735889 12
704 1 -2.03723 6.75274 4.47961 20
705 1 -6.38395 9.47105 2.29334 21
706 1 6.71087 8.19183 -3.65302 18
707 1 12.6927 5.05877 16.0852 14
708 1 9.29233 -0.0775863 14.4149 16
709 1 -1.78576 -8.48742 9.71915 15
710 1 -3.90425 9.29889 -9.11395 21
711 1 3.56322 16.5752 10.3612 18
712 1 8.11369 -5.48527 -13.0968 15
713 1 7.26079 4.48961 10.6155 20
714 1 11.1025 13.6167 -4.35865 19
715 1 6.46525 12.3546 9.69841 15
716 1 -4.45858 0.760158 -1.0527 21
717 1 15.6354 -3.85636 -2.36316 11
718 1 6.41044 10.3641 18.3942 13
719 1 -12.1515 0.490214 7.94612 20
720 1 2.7433 -11.4044 4.22771 21
721 1 3.07781 -1.98046 -8.49382 18
722 1 -12.1466 13.5386 1.82727 9
723 1 0.279611 7.98975 6.4679 19
724 1 8.10874 -3.95014 -2.50492 19
725 1 5.88776 12.3517 6.65267 23
726 1 -10.2363 -0.479739 5.10861 19
727 1 -1.08359 5.80897 17.3017 13
728 1 -2.89121 6.59666 -10.4411 17
729 1 -6.14116 9.19846 -11.6858 10
730 1 5.5342 -11.7166 -0.497845 22
731 1 12.0259 13.4091 -6.9314 18
732 1 4.34445 -3.67242 2.05569 19
733 1 -0.547782 11.1912 1.76251 19
734 1 -12.1294 5.89803 11.0383 16
735 1 7.35899 -2.74198 -13.5711 19
736 1 5.01443 -8.64055 8.54455 16
737 1 5.95912 15.1813 1.77964 22
738 1 -4.37754 0.900528 16.138 12
739 1 -8.77893 -4.23925 -11.5292 15
740 1 -5.42322 -7.16284 -12.8632 18
741 1 -4.42507 -9.13665 -10.8694 17
742 1 -1.15227 17.1013 -6.62643 12
743 1 5.83452 -5.59724 -4.62815 18
744 1 -1.62091 11.6675 9.16194 19
745 1 4.79054 -10.2561 -6.93684 20
746 1 7.14221 -14.9495 -0.516626 11
747 1 4.02659 -6.6818 10.8066 12
748 1 16.0771 3.87659 -6.2131 14
749 1 0.573569 -12.0088 -3.4912 19
750 1 -10.9002 0.620163 11.0372 19
751 1 0.0606853 3.32133 -6.11714 19
752 1 -3.03205 -14.3872 0.650788 15
753 1 -5.97903 -8.49884 -5.03698 20
754 1 -6.9704 2.76802 9.17704 19
755 1 -8.58663 -11.7366 2.20445 19
756 1 14.131 7.14719 -6.4979 18
757 1 -2.14094 17.7159 4.71806 10
758 1 -4.88858 6.00231 6.35205 19
759 1 -13.9807 5.739 4.33865 14
760 1 13.523 0.559046 2.16463 17
761 1 -8.33262 0.215298 -9.46321 17
762 1 1.90207 12.8329 -3.94496 19
763 1 11.8316 4.43046 -5.56118 20
764 1 8.04591 14.2356 13.0302 16
765 1 11.9755 9.72967 -5.11218 21
766 1 -14.8161 3.34629 -9.17386 11
767 1 -12.4949 -2.62333 -7.35457 15
768 1 -1.33773 8.88639 17.2798 12
769 1 8.39367 10.9627 -11.7222 17
770 1 12.4656 13.525 6.54529 17
771 1 -3.90158 1.49187 10.3201 20
772 1 -2.12465 -15.4258 -1.9982 12
773 1 -8.27369 -14.1044 4.08916 13
774 1 -0.325726 -3.70662 7.87157 20
775 1 13.6066 9.77585 10.5433 19
776 1 1.25234 -4.74264 -8.17723 19
777 1 -6.03057 9.6255 -0.901285 19
778 1 8.90296 13.3444 7.10263 20
779 1 -6.22054 -1.83639 4.30478 21
780 1 11.4721 10.805 -11.7077 14
781 1 -1.96131 -13.9714 -4.62912 13
782 1 0.73745 -17.6157 3.81938 9
783 1 2.91776 -13.2499 -2.7888 19
784 1 7.72061 8.39094 -9.33169 20
785 1 6.88948 18.1789 3.14271 15
786 1 -1.68432 3.18396 -14.1574 22
787 1 0.178679 3.43302 12.9738 19
788 1 0.758438 6.70223 -14.1434 18
789 1 -11.2556 -1.18424 -13.6938 11
790 1 -10.7182 -2.74391 -2.81268 18
791 1 4.37396 18.4196 -6.31621 13
792 1 11.4107 -0.511013 0.0656002 15
793 1 -1.46105 -3.14435 -16.1501 13
794 1 -4.02035 -4.32409 -1.1169 20
795 1 10.7954 7.14744 -7.82319 22
796 1 11.0682 -4.6612 2.71125 16
797 1 -6.49841 8.25244 14.3914 15
798 1 7.06248 -8.36965 4.18935 20
799 1 13.9834 -4.46906 0.335886 10
800 1 12.6174 -2.00531 11.8319 11
801 1 1.32571 15.6492 8.30061 22
802 1 -11.6862 3.44903 13.0898 16
803 1 -11.6616 9.36135 7.70654 19
804 1 -1.27928 -11.7564 7.80725 15
805 1 10.1767 8.09499 0.952515 19
806 1 7.40206 9.85566 12.807 17
807 1 -13.46 3.40589 2.75869 22
808 1 9.36748 -8.59902 -3.85404 16
809 1 -8.58538 12.973 -6.64829 15
810 1 3.43678 10.3051 4.83206 18
811 1 0.380067 -13.4184 5.43928 20
812 1 6.80732 4.75785 14.9513 22
813 1 0.844625 12.505 4.03221 23
814 1 1.17609 -10.2043 6.72044 18
815 1 -6.10013 1.96071 -4.09905 23
816 1 4.22787 4.78784 12.6563 21
817 1 -13.7199 -2.90273 -2.12101 16
818 1 2.04501 14.1748 15.07 11
819 1 6.85512 12.4935 -1.92283 17
820 1 -10.6046 -9.33448 6.99577 19
821 1 -4.30692 -14.5365 5.68476 12
822 1 6.99185 -2.69787 9.88453 21
823 1 13.3932 -3.95856 9.15576 10
824 1 8.81118 8.57647 3.61255 21
825 1 -2.03686 9.95115 -1.00725 20
826 1 -0.286978 -8.60339 -10.184 19
827 1 -1.00311 2.17816 -11.213 22
828 1 -5.26531 -0.77668 12.4671 22
829 1 0.686238 15.3482 5.54394 21
830 1 16.3353 0.647 0.853491 16
831 1 5.31858 13.5825 -8.06734 17
832 1 -5.20145 10.2966 17.0385 12
833 1 8.57967 10.4052 8.24267 19
834 1 10.7029 -2.805 -12.6015 17
835 1 -2.65737 -7.16279 -0.148602 22
836 1 -4.54372 -0.0984892 -4.47647 19
837 1 15.7299 2.02822 4.2126 18
838 1 5.23739 -0.915897 -10.0968 16
839 1 3.58524 9.34484 15.4444 16
840 1 9.24285 -12.0892 -7.88088 14
841 1 7.38139 6.43702 -14.5055 13
842 1 -0.751472 -6.72263 -3.22567 21
843 1 14.4918 6.49756 -11.5418 11
844 1 17.968 2.44567 -1.64496 12
845 1 -0.827938 -3.19016 14.1694 12
846 1 -2.77143 -5.66455 -13.8662 22
847 1 11.6119 16.8978 -2.21183 14
848 1 2.31582 -4.63495 5.17078 21
849 1 -12.4856 3.58431 6.17735 19
850 1 13.3902 6.83211 -3.28935 17
851 1 18.0967 7.05288 6.28133 15
852 1 5.92883 -6.37985 -15.1709 12
853 1 -6.86244 15.3707 7.53573 12
854 1 17.194 9.55252 7.59555 12
855 1 12.1937 16.137 -5.64488 12
856 1 7.03582 3.10087 -13.5528 19
857 1 12.8699 -2.51143 -2.26953 18
858 1 -12.2237 3.38529 -0.83099 18
859 1 10.7423 11.0932 2.38011 20
860 1 -10.4966 -4.88375 2.55438 20
861 1 -11.297 11.2523 -7.66341 8
862 1 6.50142 7.32114 9.04265 20
863 1 -8.66184 2.21209 -6.81575 19
864 1 -15.2033 4.70369 8.00907 11
865 1 -1.36966 2.48365 -8.64934 21
866 1 11.2085 -5.77122 -9.49071 16
867 1 -11.0234 -6.18563 -6.87214 16
868 1 11.2924 -5.71741 -1.33058 19
869 1 -16.0694 3.75837 0.542864 12
870 1 -6.10677 -5.12453 -3.28502 20
871 1 12.4302 8.11523 12.9015 18
872 1 -4.06712 -5.89401 3.62014 21
873 1 9.32783 5.0144 15.5286 17
874 1 14.8668 -1.12823 9.48014 11
875 1 10.269 -0.533654 5.79805 21
876 1 -10.9755 5.64247 1.96264 20
877 1 3.78369 7.1481 7.57093 22