ITEM: TIMESTEP
29000
ITEM: NUMBER OF ATOMS
1500
ITEM: BOX BOUNDS pp pp pp
-30.0 30.0
-30.0 30.0
-30.0 30.0
ITEM: ATOMS id type x y z Coordination
1 1 -5.74769 -17.1376 -10.2258 18
2 1 6.92606 -15.6514 4.93615 11
3 1 -13.7948 1.03182 -7.71164 12
4 1 -10.208 1.22283 -8.46605 15
5 1 1.26352 -12.7217 13.682 9
6 1 -9.7865 -2.75571 -5.97247 19
7 1 -7.07904 -24.0072 2.13868 9
8 1 -15.3928 -16.1136 5.56515 16
9 1 -1.27412 -6.17635 15.084 14
10 1 -6.57311 -1.22731 11.1105 23
11 1 1.65502 7.65259 -9.66321 14
12 1 0.0515011 -9.19656 14.09 14
13 1 8.64198 1.27983 4.60091 14
14 1 1.99649 9.38673 -6.53876 13
15 1 2.99433 0.443281 -12.951 15
16 1 -5.26156 -10.2687 -7.14179 21
17 1 4.34026 -16.1152 3.03339 17
18 1 2.75362 -19.1072 -1.65899 15
19 1 -4.27655 -19.8742 -9.21824 11
20 1 -1.03274 -13.5759 -10.8035 15
21 1 -3.71437 1.27196 14.7602 9
22 1 -1.52978 -16.8675 6.33041 20
23 1 1.3622 -14.0902 10.3829 10
24 1 -12.5348 -10.7701 4.61019 21
25 1 -13.9121 -5.25625 -2.31034 19
26 1 -2.96214 3.30271 3.97019 17
27 1 -2.23885 -5.34647 -10.0002 19
28 1 1.27906 -14.6866 -14.7041 11
29 1 -4.70453 -13.4976 13.9229 12
30 1 -11.8215 3.26258 4.98222 14
31 1 -2.46605 4.37197 13.2602 12
32 1 -9.85773 5.02404 -9.01559 13
33 1 -12.5829 2.71765 -0.988419 18
34 1 -0.719406 -19.6883 7.53984 10
35 1 8.60368 -7.85941 -3.02365 23
36 1 -12.5608 -3.3847 9.32996 14
37 1 -13.9896 -4.91572 -6.41097 13
38 1 2.39927 -7.99541 6.95811 23
39 1 -3.86539 3.69246 -9.68577 19
40 1 -12.8659 -16.414 7.60635 18
41 1 -12.6369 -1.75215 -7.44412 15
42 1 -0.588267 -1.78996 8.69195 22
43 1 -1.48377 -23.6836 -0.0315212 7
44 1 -0.913967 -0.498545 12.42 18
45 1 7.04017 -10.3302 -11.8283 9
46 1 3.88546 -16.1474 -0.568269 21
47 1 4.80337 -7.7589 8.98636 21
48 1 -16.0454 -16.5007 8.74226 12
49 1 -13.6398 -10.8458 1.20536 22
50 1 8.75911 -1.27577 7.58174 14
51 1 3.78949 -4.93295 -6.99782 20
52 1 -2.75457 6.6828 6.82456 15
53 1 4.407 -10.3728 6.70547 22
54 1 -8.15902 -10.8246 -8.99637 19
55 1 -9.36133 7.8403 -7.05158 12
56 1 -4.16858 2.51791 -6.33252 22
57 1 3.92348 -10.6756 -5.89616 15
58 1 7.46864 -14.3975 -5.68755 8
59 1 1.90708 -13.007 7.26587 17
60 1 -3.10031 10.1242 -6.26465 10
61 1 -14.6145 4.60239 -0.906512 9
62 1 -8.86159 2.98409 3.80129 20
63 1 -6.25897 -13.381 9.21799 20
64 1 10.5966 -10.8621 -2.64165 22
65 1 -17.0081 0.416336 2.01774 11
66 1 10.1187 -15.7208 0.738731 10
67 1 4.34014 -5.86413 -10.1287 21
68 1 -1.61037 -6.35327 -13.3492 17
69 1 -4.58502 9.18384 2.89399 17
70 1 -7.09871 3.6149 -10.4115 15
71 1 -3.72918 6.8292 -9.16262 16
72 1 0.287447 2.26214 4.91192 18
73 1 -7.24788 -15.7448 7.40616 21
74 1 -5.14093 -9.894 -10.627 20
75 1 -2.33135 -10.3041 -8.87345 20
76 1 -6.73153 -2.30624 8.40126 21
77 1 -12.7107 -13.1775 -3.90088 20
78 1 -10.1249 -16.0413 -0.824821 20
79 1 6.92562 -9.5545 5.13442 23
80 1 -9.86632 0.874773 2.02913 19
81 1 5.39139 -1.6725 -14.1131 13
82 1 3.009 11.3902 -3.92175 7
83 1 11.709 -12.7271 2.14023 10
84 1 1.35426 -20.1425 4.36896 8
85 1 -11.0729 -15.741 -4.06502 21
86 1 -15.4886 -10.9254 9.65065 12
87 1 6.87378 5.94307 2.05323 11
88 1 -4.1241 6.39954 4.35496 19
89 1 -5.47961 5.35301 -4.00132 19
90 1 -2.94555 -11.6307 -12.4306 18
91 1 6.771 -3.9707 12.3085 13
92 1 -7.22538 0.502355 -6.53205 20
93 1 7.12062 -5.56198 -7.61979 19
94 1 -12.2316 3.06753 -6.4171 17
95 1 -8.95128 5.23596 -2.52149 18
96 1 5.9478 0.0638292 -11.6859 17
97 1 8.05668 -13.2421 -1.34175 20
98 1 -15.5149 -2.18954 -2.84151 20
99 1 4.87133 5.73702 -1.21859 14
100 1 3.0609 6.12852 -7.14469 19
101 1 -2.06444 5.00792 -6.89558 24
102 1 -7.99434 -8.01673 -14.0345 13
103 1 -0.0332639 9.64171 2.06683 18
104 1 -15.4524 -13.4383 -2.34262 18
105 1 14.0347 -5.81393 -5.09044 13
106 1 -5.67923 5.9844 7.4755 12
107 1 -3.08631 7.32036 -5.09964 21
108 1 2.05349 -7.46514 10.2885 23
109 1 -10.283 -10.5533 -0.779106 23
110 1 -4.8184 -18.3214 7.0664 17
111 1 3.16294 -16.357 -3.15032 20
112 1 -0.868918 8.07232 -7.3913 16
113 1 6.08182 2.61342 2.23142 18
114 1 -7.70929 -16.0715 10.494 18
115 1 -12.9798 -2.09632 2.96278 21
116 1 -2.64806 11.4627 4.44481 12
117 1 -1.90709 1.55492 10.2357 18
118 1 -5.29501 6.41337 1.39781 18
119 1 -12.7822 -3.79904 -4.46667 19
120 1 13.1623 -11.107 -3.86065 11
121 1 -9.8613 -10.6785 5.83259 21
122 1 -19.0973 -5.19402 3.56148 10
123 1 -10.1367 -15.7936 8.409 21
124 1 -17.5208 -6.47627 -2.26196 13
125 1 -4.38451 -19.4245 3.81812 16
126 1 1.40719 -15.5311 -5.415 17
127 1 -0.832991 4.94636 5.43061 18
128 1 -12.4382 -7.90785 -3.80949 19
129 1 -5.58928 5.08434 -7.13063 19
130 1 -15.5878 -13.2216 -5.70741 13
131 1 -11.3657 -8.75006 11.592 18
132 1 -2.93728 -13.4763 7.62094 19
133 1 -2.4725 -21.0158 1.37372 17
134 1 12.1612 -2.06251 0.457166 13
135 1 2.04557 -2.35596 -6.3142 21
136 1 4.31663 -7.30505 12.1667 16
137 1 3.42613 3.42984 -12.9777 16
138 1 5.57301 -7.97625 -12.1715 12
139 1 -10.7246 -10.743 -7.39848 19
140 1 -7.79583 2.96958 -7.92735 19
141 1 -9.211 4.23939 0.760325 15
142 1 7.36736 -8.02775 7.44683 19
143 1 -10.7586 -12.4748 -12.7352 8
144 1 -4.17036 5.0227 -12.2802 12
145 1 -0.949609 5.55454 -10.037 20
146 1 -9.50502 -2.83362 6.59023 20
147 1 -10.0661 0.356484 8.24487 16
148 1 3.60385 -16.1114 -7.39239 18
149 1 -10.6912 -19.6561 6.46593 13
150 1 -4.15287 -20.2237 -1.79575 16
151 1 5.71283 5.44616 -9.29647 12
152 1 -4.05846 2.50274 -3.59176 20
153 1 -18.4159 -2.4989 3.82316 12
154 1 0.911488 0.42485 9.20061 19
155 1 8.13987 -2.28594 -12.4192 11
156 1 -1.46349 0.470312 6.93514 19
157 1 -13.2745 -2.27631 6.36459 18
158 1 -15.4036 -16.273 -10.4472 5
159 1 5.24607 1.49833 -14.6773 9
160 1 -0.713658 -7.42937 8.68739 21
161 1 7.69087 -1.25469 -15.9059 5
162 1 -1.38875 -16.0997 -3.0196 24
163 1 -8.03648 -5.46714 -9.11964 22
164 1 8.26445 -7.99407 -9.7317 15
165 1 -16.98 -13.8623 9.17745 10
166 1 -4.25655 -24.3951 2.14752 9
167 1 -13.6764 -10.4885 -2.09356 19
168 1 4.41649 7.54101 2.55917 13
169 1 -0.929374 -8.12324 -11.1285 18
170 1 3.91233 -3.84718 13.2686 16
171 1 8.43571 -2.61588 0.718796 17
172 1 7.07499 -10.4314 -1.29997 19
173 1 -8.23896 -10.1573 -12.1901 16
174 1 -16.1999 -16.2763 -3.70818 11
175 1 1.96666 -6.71127 13.9202 14
176 1 1.45493 -10.3841 8.87073 19
177 1 4.13783 -18.5123 -13.3439 5
178 1 -1.65962 -10.0102 7.09312 19
179 1 3.86987 6.42264 -12.0513 12
180 1 4.03103 0.534664 -0.0582597 22
181 1 -9.64184 -13.1634 3.86555 23
182 1 0.511258 4.93535 1.34067 13
183 1 -13.071 -11.3734 11.4544 17
184 1 -8.76141 -17.6546 -11.6415 11
185 1 -10.937 -13.1054 -9.55229 16
186 1 -2.80125 -18.0883 -6.9612 17
187 1 -10.251 -16.3538 2.48452 17
188 1 8.43921 -7.75111 3.34958 19
189 1 -12.3549 -13.797 9.55697 19
190 1 -7.50091 -16.1164 0.864924 21
191 1 -0.86742 -18.8669 -1.23435 22
192 1 -4.1405 3.31183 -0.0195818 18
193 1 0.243482 -1.58257 -15.375 12
194 1 -13.5869 -13.7946 -10.4336 8
195 1 -4.29625 -15.7402 1.78449 20
196 1 -5.00806 -15.3968 -7.6945 18
197 1 -4.05215 0.827191 -11.1518 18
198 1 7.05796 -5.60158 5.35983 13
199 1 -8.52078 -2.94255 -11.5889 19
200 1 -1.6508 0.734921 -6.51274 20
201 1 -9.07274 -7.85503 7.33978 22
202 1 -7.18368 7.91268 -3.86664 16
203 1 -1.61515 9.65966 6.68997 12
204 1 10.4509 -6.47986 8.19172 10
205 1 -13.2204 -5.1913 4.27101 15
206 1 -4.87734 -16.466 11.7453 13
207 1 -9.73559 5.35359 4.81189 12
208 1 -5.82373 -10.8375 -13.6089 11
209 1 -1.39071 -16.2878 0.599395 21
210 1 -4.23267 -5.5027 12.4926 23
211 1 -15.0202 -12.823 4.46808 20
212 1 14.3443 -8.12371 -3.00949 14
213 1 1.81508 -12.3662 -9.71879 18
214 1 5.48206 -18.3516 -1.3699 13
215 1 -11.0156 3.43336 -3.79301 18
216 1 7.38488 3.88958 6.81252 11
217 1 -12.2571 -7.54274 2.69931 22
218 1 5.52248 -13.3705 -2.19122 17
219 1 -5.69942 2.77346 2.02028 21
220 1 -6.82242 0.901295 7.34434 22
221 1 5.03793 -13.4359 8.66748 9
222 1 10.2728 -10.662 0.301135 20
223 1 -1.74842 -3.42705 13.9032 15
224 1 -10.8268 -10.7324 -3.78166 21
225 1 -3.32339 -8.1889 14.9341 18
226 1 -4.70923 9.00184 6.28073 11
227 1 -14.2149 -1.01593 9.02803 9
228 1 -9.14212 0.332143 5.82478 19
229 1 -7.7142 -10.3352 -5.81748 22
230 1 -11.522 6.15886 -0.815969 12
231 1 5.08235 -7.58508 5.3071 20
232 1 -13.0161 -17.6313 5.07975 11
233 1 6.70959 -11.2906 8.50186 16
234 1 -7.3657 5.35939 2.97577 16
235 1 -5.56264 -10.9023 14.0801 16
236 1 -0.0796709 -16.936 -7.75212 15
237 1 -9.56898 -7.41182 -8.12215 21
238 1 3.81427 -9.60851 -14.0796 11
239 1 3.51703 9.06221 5.91653 13
240 1 -12.2954 -7.99143 -0.791226 22
241 1 0.806364 -10.9457 -15.0092 12
242 1 -0.641751 -18.9174 -10.3781 13
243 1 -16.6287 -10.5905 3.16345 13
244 1 -9.67499 -23.1957 -1.03442 10
245 1 9.19858 -0.0760053 0.733552 16
246 1 -8.0074 0.0660802 -9.48093 18
247 1 -16.4515 -10.6963 -0.279541 14
248 1 -12.8467 0.968834 6.41776 13
249 1 -17.8645 2.44588 -1.47075 8
250 1 -9.98699 0.246947 12.2344 11
251 1 7.11886 -5.37826 -4.79045 21
252 1 11.4045 -7.70255 -8.21002 13
253 1 -3.95409 -12.8172 -5.47934 23
254 1 -4.14102 0.8421 5.37596 20
255 1 -15.8334 -7.49669 -5.22075 16
256 1 0.857375 -16.198 -1.1618 21
257 1 11.54 -3.89952 7.37333 12
258 1 -15.337 -8.32959 -1.99178 17
259 1 -9.19695 -12.963 7.35143 22
260 1 -0.027967 12.4233 2.43354 10
261 1 -10.4317 -17.9026 -5.93777 13
262 1 -12.1742 6.26804 -6.69891 10
263 1 -5.50144 9.36024 -0.93459 15
264 1 0.909957 11.0036 5.43338 13
265 1 -10.4127 -18.4615 -2.97776 19
266 1 -6.87908 -13.3702 -7.07132 19
267 1 -11.9826 -2.74116 12.057 12
268 1 -14.9166 -2.1781 0.632145 21
269 1 5.99825 -13.0675 3.81745 20
270 1 -3.53124 -18.3948 0.796287 22
271 1 0.782129 5.78009 -12.4774 10
272 1 -11.0059 -5.06886 -7.30077 21
273 1 0.513192 -18.752 1.72924 19
274 1 7.96792 -0.627236 9.83512 11
275 1 -6.7763 -7.40814 9.05439 17
276 1 -19.1245 -4.17297 0.805108 11
277 1 -10.2449 -4.99248 4.99395 18
278 1 -9.75924 -18.3289 9.69013 12
279 1 3.77425 -18.0419 -9.86852 11
280 1 -14.1866 -8.61642 10.102 14
281 1 -4.17089 -10.8057 9.29395 22
282 1 0.613006 -21.7069 -2.67249 9
283 1 -2.55755 -15.7617 -9.58938 23
284 1 -6.81192 -10.6012 10.9369 19
285 1 -0.545504 -13.0742 -4.67891 23
286 1 -3.18208 -2.66439 -15.0157 12
287 1 -0.38533 -18.2007 -4.43263 15
288 1 2.70185 3.53703 -1.29811 17
289 1 -9.32004 -8.38685 14.1865 12
290 1 -15.3684 -11.0446 13.1341 8
291 1 4.59281 -10.1973 10.6045 15
292 1 1.40711 -6.12535 -7.89457 21
293 1 4.24447 -10.8731 -0.13617 21
294 1 9.99871 6.18213e-04 -6.76524 13
295 1 -3.21741 -2.32516 11.1252 21
296 1 1.83257 6.21159 -1.78049 18
297 1 2.36737 -13.5622 3.9933 22
298 1 -8.00414 -20.7171 4.30837 14
299 1 -8.18862 1.99769 10.7367 12
300 1 -6.08692 -19.2432 -11.7855 11
301 1 4.37991 0.513784 8.59061 21
302 1 -9.91783 -4.65687 8.68385 17
303 1 -7.73762 -16.2524 -2.4269 20
304 1 -15.1123 -0.321439 4.22345 14
305 1 -7.60568 -18.7403 -8.51488 12
306 1 -8.8334 3.3421 6.96608 16
307 1 -2.92136 -18.2253 -11.6685 15
308 1 -0.597915 -16.1611 -12.0835 17
309 1 -13.0987 -17.8303 0.455758 14
310 1 -11.7296 -8.69061 5.91092 19
311 1 6.64426 -5.74012 10.0347 16
312 1 -1.94106 -11.8182 15.1782 12
313 1 -4.13902 -4.15878 -13.1411 15
314 1 3.9757 -3.20092 -1.27482 18
315 1 -8.42744 -20.0687 -1.41851 20
316 1 -0.412545 7.76905 -1.57684 16
317 1 -1.7199 -0.322888 -10.0789 19
318 1 -4.22771 0.0165142 12.5221 19
319 1 -16.5213 -5.1859 -0.139822 19
320 1 -2.8702 9.17763 -2.65785 17
321 1 -16.2585 -17.4061 -7.12452 5
322 1 -8.59496 -20.455 -4.96253 11
323 1 -4.40896 -7.61619 -12.7078 18
324 1 -16.0078 2.67034 0.414789 13
325 1 -0.683357 1.85614 14.1234 11
326 1 4.32858 0.374044 -3.61137 14
327 1 1.02809 0.00554978 1.90991 24
328 1 -5.76438 7.6848 -6.86149 17
329 1 -0.67439 -3.62739 -8.1095 18
330 1 -0.762164 -13.9828 5.03149 21
331 1 -15.2731 -16.3835 2.35182 11
332 1 -1.00664 -3.15218 -11.7084 18
333 1 11.4255 1.92553 -4.40847 11
334 1 2.66403 -13.443 0.44857 22
335 1 12.6659 -4.10574 -7.66381 13
336 1 -5.38681 -5.27101 -10.9689 17
337 1 -6.47156 -13.3627 2.58305 20
338 1 7.18944 -17.0384 1.71824 13
339 1 -3.01532 -14.0809 10.726 16
340 1 -13.636 0.676269 -4.36519 19
341 1 -5.76664 -17.3366 -13.7588 10
342 1 1.06407 -1.33675 -11.4418 18
343 1 -0.805339 -13.731 12.3261 13
344 1 -14.6574 -9.11388 4.54248 17
345 1 3.69865 -14.396 -10.5146 16
346 1 7.09857 -0.461609 -6.03991 18
347 1 -7.68677 3.24109 -4.68302 22
348 1 -1.03977 -12.9108 -7.50193 23
349 1 -1.70121 0.09881 -13.0124 19
350 1 10.4743 -10.3918 -6.29908 11
351 1 -7.39948 -4.37031 10.3376 22
352 1 2.29936 5.31596 4.55027 18
353 1 -5.72422 -1.23068 -11.5503 16
354 1 -14.6785 -8.20435 7.36624 12
355 1 -6.71099 5.1319 -0.89571 16
356 1 -10.4104 -9.88728 -10.5931 16
357 1 -17.3171 -2.76567 7.01499 6
358 1 -9.39489 -13.1444 10.4174 20
359 1 1.47332 4.24101 -4.50596 19
360 1 11.6808 -3.65616 -4.34682 20
361 1 -13.6613 -17.7774 -2.46843 13
362 1 -4.2435 -16.1066 -1.21531 23
363 1 -13.462 1.70951 2.38375 18
364 1 -0.967733 -7.36477 -8.01454 21
365 1 2.02435 -13.7457 -3.02516 22
366 1 -0.057684 9.94379 -4.25939 14
367 1 1.56275 -15.826 1.89261 21
368 1 -13.4228 -6.09094 11.8594 12
369 1 2.63222 2.58783 6.9708 20
370 1 1.18132 -5.16012 -14.7018 13
371 1 -7.81163 -15.8287 -5.68093 20
372 1 -1.12872 -9.67603 10.7148 17
373 1 4.40455 1.52729 12.1334 11
374 1 2.31482 -3.28239 -9.37466 18
375 1 -7.15165 6.28229 -8.94257 13
376 1 0.613547 2.46586 0.623028 20
377 1 7.34261 -8.98356 10.7765 10
378 1 5.26307 -2.93193 -8.41179 22
379 1 -11.7718 -20.4814 -0.798112 11
380 1 -4.73791 -5.06385 8.88677 18
381 1 0.446179 4.90004 -7.62947 20
382 1 -3.69832 -17.8937 -3.02143 20
383 1 0.822971 -10.0319 -8.03827 19
384 1 -5.23403 9.42468 -4.52643 13
385 1 -6.20406 -14.2458 -14.7909 5
386 1 0.680431 -21.6252 0.27559 11
387 1 -15.3995 -13.3213 1.28822 18
388 1 -14.6141 -14.4804 11.4207 14
389 1 1.02278 0.363455 -1.4875 21
390 1 5.48147 -18.9815 -6.99015 9
391 1 -7.52804 -13.8361 12.9458 14
392 1 5.34228 -2.8234 -4.64907 18
393 1 -12.9556 5.68653 -3.74443 11
394 1 6.86809 -16.2315 -1.57573 15
395 1 0.549865 2.20997 12.0383 17
396 1 -1.40641 3.00993 -11.7277 19
397 1 3.3468 10.3507 2.98295 10
398 1 5.42307 -3.87864 -11.7488 18
399 1 1.41322 -5.11847 -11.3272 24
400 1 -7.16504 -22.6829 -3.0761 11
401 1 -11.2655 -1.08061 -10.6854 11
402 1 8.28284 3.30319 -4.18688 13
403 1 11.6269 -0.398983 -3.07365 17
404 1 1.05746 -15.9491 -9.78814 23
405 1 4.36766 -13.9893 -4.82521 20
406 1 3.27626 5.01642 1.44561 18
407 1 -11.3883 -0.496097 4.4399 19
408 1 8.68381 -3.07071 -6.78492 21
409 1 10.5765 -7.82676 5.61508 16
410 1 10.5718 -2.18526 -9.16487 12
411 1 5.57556 3.93081 9.704 11
412 1 -0.597501 -12.1657 9.02285 19
413 1 -0.943938 -6.60951 12.2241 25
414 1 11.68 -13.6854 -1.3662 12
415 1 2.55944 -1.92659 9.69839 20
416 1 -13.3004 -8.05974 -7.60612 11
417 1 12.8216 -5.57814 -2.04264 18
418 1 5.37645 -8.07534 -4.86763 20
419 1 0.889687 -3.65341 13.8715 16
420 1 -0.393006 3.47022 7.85902 15
421 1 4.15543 -4.64063 7.08488 17
422 1 -10.5045 7.7908 -3.8265 13
423 1 4.38912 8.51024 -8.43615 10
424 1 7.65097 -12.1558 -9.15327 8
425 1 -0.885113 10.6134 -0.812271 15
426 1 -1.8764 -15.3908 -6.18541 22
427 1 -16.107 -3.88625 2.62137 17
428 1 -4.56655 0.341854 -14.5925 13
429 1 -10.043 -16.7541 5.42914 17
430 1 -10.0383 -7.02413 -10.7593 19
431 1 -16.7667 -10.073 -4.0332 12
432 1 13.0777 -10.6037 -0.857777 14
433 1 9.99713 -1.50929 4.12023 14
434 1 -6.43805 -18.428 9.26244 14
435 1 -13.8408 -10.4976 -5.34003 17
436 1 -4.34629 -4.76815 15.5501 13
437 1 -0.801851 2.73465 -4.84849 21
438 1 7.31141 -1.66674 -9.22692 19
439 1 -4.90145 -19.983 -5.50438 16
440 1 9.83816 -5.08732 3.75518 16
441 1 7.01657 -0.237139 2.94341 19
442 1 14.4257 -7.314 0.471081 9
443 1 -4.59569 2.29226 9.77657 20
444 1 -14.8929 -15.5319 -0.825497 15
445 1 -9.76281 -8.46294 -5.61756 17
446 1 9.14977 -4.15543 9.97171 11
447 1 -8.56275 -11.3853 13.405 16
448 1 6.09965 -3.05724 8.54318 17
449 1 -3.14799 11.0174 1.01116 13
450 1 8.30879 -2.33518 -3.70266 17
451 1 4.24283 -0.357547 3.05407 22
452 1 -7.17889 -1.8153 -14.2216 12
453 1 -18.9719 -15.8323 6.92778 7
454 1 4.49936 -11.1136 -10.9784 16
455 1 7.8164 -10.6033 -4.07616 15
456 1 11.3242 -0.628433 6.51822 10
457 1 2.29554 -2.52503 6.90099 19
458 1 13.8019 -2.70416 -2.75541 11
459 1 -3.5437 -11.0963 12.2913 19
460 1 -6.30884 3.41762 8.63715 16
461 1 -1.88802 -9.24908 -14.2695 13
462 1 -10.0956 -5.23999 12.4427 17
463 1 4.01274 -4.54012 10.4646 20
464 1 6.32328 5.49977 -6.51629 15
465 1 5.07767 -20.3268 -3.9388 10
466 1 -5.0152 0.112866 -8.38737 19
467 1 4.80697 5.83174 7.41215 15
468 1 7.20625 6.69907 -3.72954 9
469 1 -1.09103 2.64004 -8.64256 23
470 1 10.5097 1.90241 -1.41294 11
471 1 -9.57706 -18.6203 0.511617 20
472 1 1.34811 -7.79253 -13.1698 18
473 1 -9.69586 5.16676 -6.06068 19
474 1 2.86637 -12.8204 -13.1226 15
475 1 6.08479 2.3347 -1.69869 14
476 1 4.53057 5.00286 -4.18238 16
477 1 -12.4279 -2.93409 -1.1988 21
478 1 1.25023 0.431987 -4.76713 19
479 1 -3.97166 -20.8575 7.73826 9
480 1 -3.02278 3.38078 -14.7822 10
481 1 -3.33111 4.95647 10.7781 12
482 1 1.35526 -5.06429 8.75739 21
483 1 1.98001 1.91091 -7.3011 20
484 1 5.13904 4.73286 4.28298 20
485 1 11.5971 -7.82555 -1.16225 22
486 1 -14.8658 -13.6606 7.45719 20
487 1 -6.34605 -23.0681 -0.563362 14
488 1 -4.03424 -7.46767 -9.19612 21
489 1 -1.82729 7.06809 3.00318 17
490 1 -17.4097 -14.2084 4.01265 10
491 1 -1.29189 -19.0718 3.71251 20
492 1 5.25936 3.24504 -11.0086 14
493 1 -0.058347 -10.5961 -11.9161 20
494 1 3.98245 -15.347 5.9954 16
495 1 0.491084 8.0872 4.78974 15
496 1 -6.43915 -7.64803 16.1188 11
497 1 -12.8027 -12.9034 -7.03451 19
498 1 2.16821 -13.0291 -6.66129 18
499 1 2.06507 5.45811 8.02784 16
500 1 2.75828 -18.2314 -5.80746 14
501 1 1.08144 -16.3726 7.72832 13
502 1 -4.49491 -23.2818 -5.66796 6
503 1 -11.8116 -10.6224 14.071 11
504 1 -6.1925 -18.2928 -0.381259 21
505 1 -15.0136 -4.05647 8.867 10
506 1 11.4208 -8.38868 -4.50267 21
507 1 -9.72448 -1.79832 10.3967 18
508 1 -11.8558 4.56331 1.82277 13
509 1 8.26387 -7.82341 0.206557 22
510 1 -4.64771 0.323698 -4.89243 22
511 1 10.2674 -5.82612 -6.0646 22
512 1 5.67379 9.25927 -5.35036 10
513 1 -10.4621 -3.3404 -9.29775 16
514 1 -13.7284 -15.8931 -5.59882 16
515 1 1.71832 3.87246 -10.1871 18
516 1 -3.77198 -7.86626 10.8485 18
517 1 -6.97454 -10.3064 7.7571 22
518 1 -4.03005 -15.4847 -12.721 11
519 1 -10.2856 0.591102 -1.84549 19
520 1 6.11913 8.01847 4.94463 10
521 1 -12.3086 -13.2685 2.41478 17
522 1 6.19495 0.972996 -8.67761 17
523 1 -2.19424 -21.0916 5.48767 10
524 1 4.17889 -0.481479 -6.90293 19
525 1 -8.86055 -4.92534 -15.3592 7
526 1 -1.83592 -4.47018 9.84351 19
527 1 2.59286 -3.29138 -13.3299 17
528 1 -8.51545 -15.7756 -9.05705 14
529 1 5.18915 -7.92826 -1.35122 22
530 1 -7.14463 -16.1454 3.9864 15
531 1 8.32698 2.91813 -6.92656 11
532 1 5.59568 -14.191 0.647883 20
533 1 -9.0497 -2.52556 13.5156 16
534 1 1.41077 -16.6827 4.85846 18
535 1 10.5334 -2.00825 -1.59112 18
536 1 11.3421 -12.1139 5.60563 7
537 1 -3.0926 3.19895 7.07537 21
538 1 -7.06408 0.787683 13.9808 13
539 1 -4.88058 -22.1936 4.57626 12
540 1 7.10386 -5.56823 1.97018 20
541 1 -0.204798 5.33159 12.0412 10
542 1 -18.7215 -7.13296 0.685218 10
543 1 10.11 -10.1042 3.8171 16
544 1 -1.71205 3.9332 1.80226 19
545 1 5.55714 -1.06331 10.7895 15
546 1 -6.35685 3.19886 5.42386 21
547 1 -1.79488 -16.1896 3.32421 20
548 1 -13.5568 -5.20793 1.03673 21
549 1 0.169294 -3.45692 11.3391 20
550 1 2.14206 9.11803 -0.158683 14
551 1 -11.4269 -16.1424 11.0395 12
552 1 9.76832 -10.139 7.29414 14
553 1 7.30126 -10.8914 1.75572 21
554 1 4.67204 -1.38033 5.60441 16
555 1 -3.80635 -13.0886 -9.00444 19
556 1 -7.5873 -5.18744 -12.8622 19
557 1 -6.24992 -8.32634 13.4221 18
558 1 -4.23981 6.48251 -1.57149 19
559 1 8.83272 3.01225 1.75933 10
560 1 -1.85303 5.57852 -3.15232 19
561 1 -5.91906 -2.69234 13.6517 16
562 1 0.303346 8.10496 8.08438 11
563 1 2.51291 -16.5415 -12.3437 15
564 1 -9.01362 -21.3236 1.08867 16
565 1 -6.86572 -7.60258 -7.48521 24
566 1 13.5262 -2.27201 4.86131 10
567 1 2.48105 -8.86625 -10.2039 17
568 1 -6.9532 -12.7316 -3.73713 22
569 1 12.7261 -4.6741 2.79298 13
570 1 -1.32058 -16.6813 9.31765 12
571 1 0.654514 -18.197 -14.0363 9
572 1 4.00722 9.05709 -2.40241 11
573 1 -15.9613 -5.44023 5.56806 12
574 1 11.1511 -5.54401 -10.0456 8
575 1 -1.44707 -12.8406 -14.7244 10
576 1 -7.4055 8.26074 4.2113 10
577 1 8.28705 -4.75765 -9.87864 19
578 1 4.01968 -10.7919 -2.97507 22
579 1 -15.3158 -8.0602 1.21948 17
580 1 5.2952 1.71688 5.55477 22
581 1 -12.5016 -13.0545 -0.838123 20
582 1 5.26539 -1.14789 14.011 8
583 1 -14.8941 -1.6915 -6.10802 14
584 1 -17.1745 -7.94135 5.01393 10
585 1 -7.1177 -2.51001 -7.9753 20
586 1 5.37557 -13.3301 -7.64321 12
587 1 -10.9082 -15.3644 -7.18446 17
588 1 10.7579 -10.7495 -9.79922 6
589 1 -10.0502 0.543811 -5.20038 18
590 1 -9.46673 -13.2657 -5.43307 21
591 1 -4.18876 -15.2798 5.59769 21
592 1 12.8756 -5.4264 5.36713 11
593 1 5.41124 -8.32967 1.84906 25
594 1 -11.9708 -0.355477 0.736196 19
595 1 2.78105 3.55515 10.4272 15
596 1 0.8848 -0.768675 -8.30401 22
597 1 -2.80959 8.4592 0.516837 21
598 1 5.10063 2.99078 -6.68206 15
599 1 2.70338 6.71224 10.691 8
600 1 2.24229 -9.88942 12.2225 13
601 1 0.532222 7.01525 -4.83817 21
602 1 -9.59885 -10.5312 9.60327 17
603 1 -7.26091 -7.81218 -10.3884 22
604 1 -18.6855 -3.63909 -1.89908 11
605 1 -7.52875 -20.2039 7.5642 11
606 1 4.46727 -10.7805 3.24628 22
607 1 -6.78983 -18.4317 -3.79229 20
608 1 -15.9965 2.97564 -6.34148 7
609 1 9.96036 -5.29576 -3.19446 18
610 1 -14.361 -0.143132 -1.30727 16
611 1 -11.7825 -7.1617 8.96322 16
612 1 -12.0703 -15.9611 -11.4839 10
613 1 -4.84909 -15.5931 -4.64167 21
614 1 8.47011 -13.9608 2.49702 16
615 1 -1.464 0.636923 -16.0553 9
616 1 12.8967 -0.942487 -6.15188 10
617 1 5.60678 -2.67885 1.833 19
618 1 10.062 -5.18308 0.207269 20
619 1 0.545462 2.18962 -14.6767 11
620 1 -4.06306 -15.7186 8.86621 18
621 1 3.20353 2.19687 2.9233 19
622 1 3.31228 0.804586 -10.0012 20
623 1 -16.9301 -4.36211 -4.97622 10
624 1 -12.2646 -11.4496 7.87549 21
625 1 1.56402 -0.294995 4.69218 20
626 1 -5.99263 -20.6464 0.951994 20
627 1 -1.32041 2.82879 -1.64212 18
628 1 -5.78108 2.95962 12.5899 14
629 1 -9.16276 -7.55518 10.9173 21
630 1 6.95652 -5.3107 -1.29604 18
631 1 -11.2104 -13.7221 12.9533 14
632 1 -1.4438 -20.7804 -5.24934 11
633 1 2.06168 -0.945115 13.4328 16
634 1 8.02804 -8.21309 -6.4355 19
635 1 -12.7654 -7.08394 -12.0791 5
636 1 -6.03882 2.20263 -13.0454 12
637 1 -17.3424 -0.482482 -0.739396 13
638 1 6.19614 -1.01033 -0.795513 16
639 1 -4.01259 -0.14842 8.84064 23
640 1 -10.8721 -19.4363 3.08664 15
641 1 -7.08424 2.53976 -1.68123 24
642 1 6.9287 1.54044 8.21796 14
643 1 -6.71835 -13.2365 5.8839 19
644 1 4.86823 -7.89679 -8.11429 18
645 1 5.7021 -16.938 -4.89339 17
646 1 3.78218 -6.27114 -13.201 15
647 1 -11.1343 -3.90937 -12.5242 11
648 1 -9.30357 -13.425 0.955178 21
649 1 -16.6133 0.645849 -4.18801 13
650 1 -7.58483 -5.59285 13.5984 17
651 1 8.0178 -12.7742 5.62508 17
652 1 -11.8958 -14.117 5.72267 23
653 1 11.4564 -7.24641 2.09177 16
654 1 -3.72006 -2.52313 -9.61851 20
655 1 8.29656 0.388108 -2.68327 19
656 2 -12.885 -5.98055 -7.46847 13
657 2 -4.99364 6.47435 -5.62887 19
658 2 -1.88349 -10.4432 -10.8898 20
659 2 -7.20867 -1.41708 13.3193 14
660 2 -5.40959 -15.5238 -13.9687 7
661 2 -2.75206 3.34686 10.107 21
662 2 -16.2642 -14.7186 2.5508 15
663 2 -13.6164 -2.95052 -2.86781 18
664 2 0.321878 9.45765 6.50192 12
665 2 -16.2014 -4.26924 7.43231 10
666 2 3.97352 -2.36363 2.83784 22
667 2 -13.8054 -13.7854 -2.0782 19
668 2 -12.5861 -5.1382 -0.822339 21
669 2 -4.16838 -13.2868 5.92175 19
670 2 -0.577116 -5.16787 8.51449 21
671 2 2.78226 -10.757 -10.0702 15
672 2 -5.64179 -23.8228 3.46254 9
673 2 -7.79406 1.91895 6.13031 19
674 2 -13.3107 -3.08788 -6.31357 15
675 2 7.29218 -7.79041 1.97259 19
676 2 4.37981 -19.7888 -5.48909 10
677 2 -14.2247 -16.6844 4.1196 14
678 2 -17.7634 -15.5782 8.33286 10
679 2 -3.42238 -17.2793 5.71278 16
680 2 7.56341 -14.0422 4.13037 15
681 2 -5.60597 -23.2842 -4.21148 9
682 2 0.0601171 -7.02549 14.1018 14
683 2 0.21161 8.68819 -5.79759 14
684 2 -12.107 -16.6921 -6.12939 13
685 2 -3.01024 3.0315 14.9029 8
686 2 -14.9842 0.426105 -3.01855 17
687 2 -3.08523 -6.44596 15.5419 14
688 2 -8.18405 1.48191 -4.59639 19
689 2 4.29637 -19.7261 -2.4408 12
690 2 -3.3343 -0.0823342 7.00192 21
691 2 1.27036 2.47777 -5.21771 16
692 2 1.20133 -13.4892 -4.90397 22
693 2 0.98543 -8.71404 -11.3756 18
694 2 4.30147 -8.09817 -6.43448 19
695 2 -2.19653 0.552977 13.6676 15
696 2 -0.46975 -0.0995697 -14.388 14
697 2 -1.85839 3.6474 -10.0791 22
698 2 0.380124 6.80143 -2.9002 17
699 2 -7.70964 -7.64015 14.4766 16
700 2 -12.9215 0.925349 -0.499483 18
701 2 7.13434 -8.55865 -11.0142 13
702 2 0.43557 -17.746 -9.43562 15
703 2 -15.5246 -7.77497 5.86863 14
704 2 7.66765 1.60784 2.88676 16
705 2 -5.88382 0.0527973 5.32524 22
706 2 -2.01747 -13.1596 -12.7497 14
707 2 -4.2566 4.53893 7.67573 15
708 2 0.629368 -15.5224 9.41697 13
709 2 5.30002 -10.1873 1.50214 20
710 2 -17.1875 0.98524 0.300641 12
711 2 11.3754 -12.3663 0.242738 13
712 2 5.77276 -17.3612 -3.02118 15
713 2 2.99603 -0.797204 5.85841 18
714 2 1.06939 -20.3666 -1.21941 13
715 2 10.3141 -8.0247 3.76111 19
716 2 -9.19669 -4.42208 13.811 14
717 2 11.7151 -10.3375 -4.41716 16
718 2 -1.82975 -2.52295 9.81338 20
719 2 5.82521 4.71261 6.09357 18
720 2 -10.1915 -1.68719 12.2346 14
721 2 2.419 0.576125 3.38171 22
722 2 8.28836 -9.92888 0.108787 21
723 2 -1.01306 0.393414 -8.51949 18
724 2 -10.8331 -13.547 -3.866 22
725 2 -8.49319 -5.5517 11.379 16
726 2 4.14049 -3.50682 -9.87684 18
727 2 -12.9672 4.89935 -1.86267 13
728 2 -17.7491 -6.18417 4.66275 12
729 2 -13.0859 -18.9452 -1.20487 12
730 2 13.0091 -3.29386 1.57253 10
731 2 -3.74069 -9.74515 7.77801 19
732 2 -3.33888 -9.76928 10.5518 18
733 2 3.18895 -8.13764 -13.2996 15
734 2 6.7375 3.54814 8.38194 13
735 2 -5.41957 -1.26025 9.10399 18
736 2 -12.8014 -3.81599 2.3308 22
737 2 3.49633 -12.7616 -11.2729 12
738 2 1.76172 -0.273412 -9.70908 18
739 2 -5.8069 6.06146 3.58269 19
740 2 -1.89 -17.7557 2.24777 21
741 2 5.38457 -9.855 -12.7166 14
742 2 -1.4116 -1.70378 6.99729 20
743 2 6.94455 -18.0055 -6.27219 9
744 2 1.17608 -7.12268 8.52542 20
745 2 -7.51699 -13.7815 7.91838 19
746 2 10.7619 -5.31551 1.85747 18
747 2 -13.299 -13.4582 4.37144 19
748 2 8.94995 -1.39029 -8.32283 16
749 2 -5.58356 -24.4978 0.686392 9
750 2 10.2429 -8.1256 -6.50339 18
751 2 0.61386 -12.5254 -8.12342 18
752 2 12.4011 -12.3182 -2.34838 10
753 2 -5.10158 7.78393 -0.113868 16
754 2 10.955 -14.3977 1.87277 8
755 2 -7.3991 -18.3341 -12.6617 9
756 2 -8.07878 -23.1717 -1.63456 12
757 2 -4.61899 -19.6916 1.87362 18
758 2 -6.64396 -16.2144 -0.793526 20
759 2 -2.41212 5.67848 4.57255 20
760 2 -13.7864 3.74414 0.667509 11
761 2 5.58042 -0.756505 -8.5374 17
762 2 0.3672 4.02583 -11.6955 15
763 2 -10.2062 -7.55948 12.6019 17
764 2 -12.065 -5.49479 -12.0115 8
765 2 -18.3962 -2.41832 -0.494472 13
766 2 -7.72774 -2.40287 10.1298 20
767 2 -13.8475 -2.75429 8.07613 12
768 2 3.25409 9.04212 1.40065 13
769 2 9.00453 0.0159908 -5.03793 19
770 2 11.2516 -9.90072 5.9294 10
771 2 -9.77344 -10.2083 14.153 12
772 2 -1.35793 2.83731 4.62147 19
773 2 -9.79265 3.28572 -7.99885 17
774 2 -4.96441 -1.88724 11.8808 19
775 2 9.62677 -12.1078 6.20707 13
776 2 -10.8868 -13.3969 -6.76353 19
777 2 3.99926 1.57411 -7.71424 18
778 2 9.5942 1.68096 0.214357 12
779 2 -12.0928 -16.246 6.00105 18
780 2 -1.35571 3.88112 -3.38275 18
781 2 -5.02643 9.302 -6.47756 12
782 2 5.73687 5.93314 -2.83965 15
783 2 3.00169 -0.141337 9.46957 17
784 2 -7.1009 -2.8203 6.45436 22
785 2 11.2561 -9.84607 -1.21676 19
786 2 -5.44598 -9.00323 15.1846 12
787 2 -0.404483 -9.48196 8.76879 19
788 2 -15.4008 -4.13631 0.77071 21
789 2 -7.07539 -9.37379 -13.6418 13
790 2 3.56039 -16.2372 -5.14838 22
791 2 4.00314 -7.75056 -9.87962 19
792 2 14.0923 -4.80991 -6.7834 9
793 2 -5.91955 -5.90983 15.9801 13
794 2 2.23312 -5.25198 -13.1081 15
795 2 -12.143 -12.1909 13.5153 12
796 2 -8.08353 -3.09416 -15.1016 8
797 2 -1.39046 -18.8331 -5.82471 16
798 2 -0.266153 -15.4416 2.05029 23
799 2 4.99261 5.20029 -10.9512 12
800 2 -5.4062 0.568231 -12.4878 15
801 2 -4.27622 4.17753 12.254 12
802 2 -12.1364 -11.2457 2.74831 21
803 2 -7.38947 4.42572 -6.81487 24
804 2 1.44219 5.67045 -6.00982 19
805 2 -3.66407 7.69367 2.19099 18
806 2 -10.7294 -18.8366 8.14026 13
807 2 7.5686 2.27848 6.02698 13
808 2 -3.3141 -4.50533 13.8703 17
809 2 -9.92325 -19.2073 -4.64296 15
810 2 6.79972 -17.571 -0.190504 13
811 2 -0.467342 -4.40661 15.17 14
812 2 1.46797 11.1291 2.37291 12
813 2 11.9725 -5.95598 -8.34579 10
814 2 3.53569 -2.07109 14.2949 9
815 2 5.05897 9.7513 -3.51099 10
816 2 -15.0255 -10.0439 11.4503 11
817 2 5.03541 -4.71625 2.3351 20
818 2 -0.894791 3.77528 0.225404 18
819 2 1.79281 3.58715 5.2899 21
820 2 -9.22392 -4.35952 -13.2534 14
821 2 5.03694 -11.5332 9.36387 15
822 2 -10.7457 5.24046 0.599329 12
823 2 -2.50024 -15.8152 7.72493 18
824 2 4.59067 -15.7968 1.17073 17
825 2 -10.4356 -19.4069 -1.37531 19
826 2 -7.62032 7.67974 -7.46597 14
827 2 -10.0609 -14.7528 -8.7167 17
828 2 -3.77495 -16.4839 -6.18749 19
829 2 -4.11807 -5.29471 -9.5762 18
830 2 -4.50461 -15.7791 -9.47058 16
831 2 1.63639 7.19915 9.11645 11
832 2 -15.3771 -16.8423 -2.14064 13
833 2 -18.086 -3.58133 2.37376 16
834 2 1.37291 -12.9244 2.42169 21
835 2 -10.1856 3.38792 5.61736 16
836 2 -7.43975 -22.3623 1.05375 17
837 2 -8.05194 0.775363 12.206 15
838 2 0.831085 -2.70711 -7.92867 20
839 2 -11.4982 -8.27448 -11.4779 11
840 2 5.20825 2.75795 -12.8146 14
841 2 13.1191 -6.5236 1.65887 15
842 2 -14.0173 -15.5439 -11.0938 7
843 2 -16.3258 3.51567 -1.24378 9
844 2 -17.455 0.393405 -2.53193 13
845 2 -7.30571 -9.03397 10.0757 20
846 2 -15.7967 -11.4088 -5.06444 15
847 2 -1.02414 -10.4871 -7.4857 18
848 2 0.987428 -8.16878 -7.54588 20
849 2 5.06189 7.70414 6.51461 9
850 2 -0.517194 -17.8447 7.49202 12
851 2 -2.11517 -7.42706 -9.60747 19
852 2 1.52454 -3.70213 10.1358 20
853 2 7.36472 -1.27606 -11.2157 16
854 2 -5.19976 -13.5196 -4.06886 20
855 2 0.88263 6.04461 -10.4915 15
856 2 2.49619 10.2246 4.87356 12
857 2 10.4009 -2.18644 7.1128 14
858 2 -17.5474 -15.7224 5.50385 13
859 2 -17.7541 -3.3345 5.33 10
860 2 -3.57086 -15.6325 3.65284 21
861 2 -4.6841 -2.72293 -7.89822 19
862 2 -7.77596 -13.1721 3.96779 18
863 2 -11.8388 0.360466 2.73975 22