ITEM: TIMESTEP
15000
ITEM: NUMBER OF ATOMS
2000
ITEM: BOX BOUNDS pp pp pp
-30.0 30.0
-30.0 30.0
-30.0 30.0
ITEM: ATOMS id type x y z Coordination
1 1 -5.59208 1.82974 -15.0773 11
2 1 -6.55526 -12.4952 -6.58897 19
3 1 1.87139 13.217 11.1725 18
4 1 1.4368 -13.1434 12.1429 8
5 1 -11.9719 4.63348 -2.47258 20
6 1 8.46444 -8.70937 -11.0218 11
7 1 -14.637 0.219593 -8.77793 12
8 1 -1.89736 -6.43173 11.4535 19
9 1 -4.07517 5.1737 -14.3049 14
10 1 -10.7046 -12.3299 9.19229 17
11 1 8.70052 4.96567 -11.257 12
12 1 -7.99396 -15.6806 3.95591 18
13 1 -14.4379 -10.6431 4.5582 19
14 1 -0.261705 3.068 17.0994 15
15 1 -4.05155 15.8599 -6.65537 10
16 1 4.14808 -1.19502 13.5932 16
17 1 -8.68944 -1.83561 -11.6115 19
18 1 -9.23226 -3.70066 10.8391 18
19 1 12.4002 3.90977 9.06114 16
20 1 3.06686 13.8282 -6.471 15
21 1 3.19876 5.04524 -10.7899 18
22 1 13.3717 0.935346 9.76689 11
23 1 -14.5425 4.57966 -8.08814 15
24 1 -13.9426 11.9587 5.68871 9
25 1 5.13023 -7.97572 13.0124 14
26 1 0.854768 -13.3709 -11.2057 15
27 1 3.51345 -15.1295 4.02324 16
28 1 -9.26092 -17.3175 -4.91346 9
29 1 -13.8277 -3.62782 6.9289 16
30 1 -1.56111 -10.7852 -9.9022 18
31 1 2.95739 -11.4056 -9.85611 21
32 1 1.2776 7.45537 -16.8282 7
33 1 2.12674 0.707294 17.8566 16
34 1 -5.6381 -9.05489 12.0539 19
35 1 4.65751 -5.61865 10.4861 16
36 1 -14.5604 -0.523596 2.32107 18
37 1 -12.2106 -0.764388 7.17161 19
38 1 -4.96044 12.2768 1.01167 18
39 1 -4.52195 -14.5467 -7.99638 14
40 1 4.69852 -8.97376 -16.7303 13
41 1 -2.1081 -3.71335 13.8975 19
42 1 -12.1693 7.18247 -1.51735 20
43 1 4.90299 14.022 -8.99402 17
44 1 1.33575 12.6435 7.66615 24
45 1 -11.0931 8.235 -4.29471 21
46 1 -2.01554 13.7913 0.0277855 20
47 1 -0.0424573 -13.7443 3.31643 22
48 1 7.02629 -11.1372 -8.25233 15
49 1 3.60323 -6.69828 -18.1975 11
50 1 -5.25789 10.1578 13.2292 20
51 1 -12.7634 -7.72655 -6.0387 17
52 1 -6.36521 7.81912 -3.84588 20
53 1 -9.84827 -7.40699 6.95263 19
54 1 -6.73733 10.495 4.66323 19
55 1 -15.9099 7.76351 -8.70058 7
56 1 -12.03 8.1332 10.5851 9
57 1 -6.963 -12.6096 7.4908 19
58 1 4.71559 -16.6366 -1.19398 13
59 1 6.59365 9.84816 12.6841 18
60 1 -15.0739 -2.3387 -6.92952 11
61 1 -9.30852 6.66782 -6.47578 19
62 1 3.88843 8.11697 12.9567 22
63 1 9.67967 -0.730722 -13.9048 9
64 1 6.57305 -11.1169 8.58076 10
65 1 -18.1214 -2.46224 3.30793 14
66 1 7.59432 13.9591 2.97038 19
67 1 8.92637 -1.70752 15.0701 16
68 1 -7.82971 -9.07152 5.81351 18
69 1 11.0723 0.230971 8.05614 18
70 1 -2.16678 10.8924 11.2235 21
71 1 -6.98758 -7.16539 -5.83198 21
72 1 -8.46049 8.49129 8.60844 18
73 1 -10.0794 18.712 -0.89443 8
74 1 -0.954703 12.2603 -9.17074 16
75 1 2.06121 17.9231 0.187161 19
76 1 7.18853 -7.45252 10.0053 15
77 1 -5.88872 15.1646 -1.96131 15
78 1 -14.1506 10.6607 2.41108 12
79 1 -9.92247 -7.24709 14.5518 13
80 1 -4.14587 9.15766 6.97417 16
81 1 -8.25675 -2.64546 13.3654 18
82 1 9.738 -9.28208 -8.39704 9
83 1 -10.8672 6.65858 3.55223 18
84 1 -12.0331 -11.0566 1.9843 22
85 1 9.1205 -7.10724 -5.31037 12
86 1 5.41237 1.9978 -14.3018 12
87 1 -7.66943 2.96345 -12.7685 14
88 1 -2.69198 13.0155 2.72519 20
89 1 -6.15342 7.89812 -7.34677 21
90 1 0.804132 10.4112 16.1596 11
91 1 -3.5912 12.8091 -5.0469 15
92 1 -14.0515 12.5589 -5.31584 7
93 1 -7.63272 -5.86379 12.3342 20
94 1 8.68336 -7.01437 12.6467 9
95 1 2.76128 -7.68612 -9.02829 19
96 1 8.35265 0.918491 17.398 15
97 1 -10.0898 -10.5682 -2.46665 18
98 1 -10.7133 -15.2009 -2.36158 16
99 1 6.10496 -9.3094 4.27803 19
100 1 2.63481 -0.506153 -13.9459 18
101 1 0.830636 21.2744 1.09613 10
102 1 -11.5987 -9.92413 13.0712 9
103 1 -13.8471 -11.7446 10.6123 10
104 1 2.61333 -11.2654 -16.8042 11
105 1 11.8419 -5.3227 0.352724 10
106 1 -5.93338 -9.51318 8.35084 23
107 1 -9.16253 -10.8081 2.13268 19
108 1 12.3566 6.34893 8.00335 14
109 1 8.093 1.28116 -11.7339 21
110 1 -12.0422 -5.76742 3.95345 11
111 1 9.28107 7.93653 6.33943 19
112 1 12.2496 13.1191 6.76713 10
113 1 -5.09919 4.9673 12.7529 18
114 1 -8.12172 11.1541 10.0696 18
115 1 -6.45716 14.1831 -5.08838 13
116 1 -3.34755 -5.91056 -11.755 21
117 1 8.61243 -6.6918 -13.4647 11
118 1 -2.54762 15.3237 -9.85496 10
119 1 1.96346 -7.78846 15.3442 11
120 1 -2.51883 -1.351 -18.8787 7
121 1 -3.23203 10.1255 -7.30056 18
122 1 9.22668 -1.46923 -5.61113 19
123 1 -13.4266 10.2217 -8.20226 9
124 1 -7.09379 17.5586 -0.676558 14
125 1 6.3373 4.20494 -7.3465 14
126 1 7.55873 -7.13284 1.30058 22
127 1 -5.4698 10.1919 15.9967 9
128 1 13.2275 7.52808 -5.65424 9
129 1 0.415112 14.7313 -4.73155 15
130 1 -9.25429 12.989 7.99052 15
131 1 11.4473 9.73803 2.17039 21
132 1 -3.50782 9.41093 -3.88237 21
133 1 1.2222 17.9924 -5.19085 11
134 1 2.62177 12.007 -9.82447 18
135 1 -12.8599 -8.59361 6.56136 19
136 1 -11.0147 7.95818 -8.03776 20
137 1 -5.76981 -3.78068 -11.3012 22
138 1 -1.02143 -11.4219 -16.014 10
139 1 4.1016 15.9566 8.03677 12
140 1 -1.31364 13.8662 9.48385 19
141 1 -10.3916 -3.35964 -6.79568 19
142 1 -11.6585 11.7034 3.17607 18
143 1 12.3245 5.09172 -2.99862 15
144 1 -13.5395 5.42517 -10.6986 9
145 1 5.28701 2.25059 18.7649 9
146 1 4.71622 15.4383 4.47365 15
147 1 -4.92171 10.1083 10.176 16
148 1 1.1867 -9.07668 -17.3946 15
149 1 -5.5785 16.3977 6.96204 13
150 1 -1.45999 17.3972 -7.13871 10
151 1 1.61208 -4.74217 14.6973 17
152 1 -9.49081 -4.93183 4.24829 19
153 1 -1.46042 -11.9776 -12.5434 14
154 1 -7.66834 9.26768 -11.718 13
155 1 -5.32024 -10.6626 5.00454 20
156 1 -1.45174 -15.9418 0.369296 19
157 1 -3.25978 8.24677 -15.2983 12
158 1 -12.5902 -0.217323 10.4904 11
159 1 8.42012 11.3339 1.66398 19
160 1 -11.024 6.90694 13.245 12
161 1 -2.48043 -9.42899 12.8844 18
162 1 -2.12915 16.7561 7.24366 17
163 1 -2.20122 8.14731 9.48626 22
164 1 11.6851 6.15618 13.6297 12
165 1 -6.69409 13.824 6.23505 12
166 1 9.69232 -4.62324 -10.9891 12
167 1 -7.55126 14.0378 11.112 9
168 1 5.56337 -8.83334 -0.42216 18
169 1 -15.8072 0.24274 -0.489076 15
170 1 -7.33766 -12.5106 1.11723 19
171 1 9.76726 4.77307 11.2147 22
172 1 -12.9329 -1.93038 -1.45669 17
173 1 -8.09261 -13.1462 -2.28023 18
174 1 -2.90567 10.5956 4.45946 19
175 1 -2.26514 14.1739 12.8125 11
176 1 -8.506 13.3712 -8.4648 6
177 1 -17.4106 -5.03914 -1.93648 12
178 1 -10.4557 0.0715526 16.5716 12
179 1 -0.258608 -11.1959 4.37321 21
180 1 2.87971 -10.0665 13.263 12
181 1 -10.3097 14.265 2.4563 14
182 1 10.1862 -1.40055 10.8564 15
183 1 -6.39414 -6.94531 -12.4927 16
184 1 2.62762 2.08272 13.3843 18
185 1 4.71032 -12.9113 5.90357 15
186 1 -3.32054 4.03544 -10.8216 20
187 1 1.48835 -8.3129 -14.8228 21
188 1 7.68027 -1.95144 -11.9371 17
189 1 7.47702 11.2671 -13.0276 6
190 1 -9.20738 -4.52805 -9.50931 23
191 1 -11.7469 13.7075 -2.44321 15
192 1 -12.9314 -9.41557 10.6385 15
193 1 3.79177 19.7828 1.58369 9
194 1 -8.09291 2.44227 17.0104 12
195 1 -8.92101 15.8416 -3.11746 11
196 1 5.6513 1.07616 11.9332 20
197 1 -4.16986 -8.48258 -10.4856 20
198 1 -3.16587 11.3378 -10.678 15
199 1 3.44312 2.36595 -9.84804 19
200 1 -11.3142 -12.5398 5.69586 20
201 1 -9.67818 4.37032 8.72953 18
202 1 -11.8399 14.3616 5.54937 13
203 1 -1.72052 -10.4514 -6.88172 20
204 1 -9.58043 -16.2757 0.834537 13
205 1 6.15102 -14.0068 0.39394 15
206 1 7.70199 14.9543 12.7588 12
207 1 4.65542 8.14892 -6.87046 23
208 1 -8.33754 12.939 -0.695169 18
209 1 -1.89263 5.20688 10.7943 21
210 1 7.04264 -14.6069 4.41571 8
211 1 8.12295 -4.11822 -4.02253 19
212 1 -12.4217 9.81946 -0.95739 19
213 1 -15.6893 -7.70426 -0.80797 21
214 1 5.1506 7.4449 -10.2359 22
215 1 0.789979 -2.30643 14.2931 20
216 1 8.0745 15.2881 -4.97797 16
217 1 -3.17517 -2.07555 -11.1356 19
218 1 -1.89719 -18.0353 5.18108 14
219 1 5.71743 -0.0621728 -8.96362 20
220 1 -14.6481 -0.519627 6.01265 16
221 1 -0.546613 -17.794 -4.76048 11
222 1 -8.59268 -5.09113 -6.2776 18
223 1 5.34494 14.8773 -2.59014 21
224 1 -2.81656 -1.08088 -14.7245 16
225 1 5.65572 9.09917 16.6422 16
226 1 14.2492 -0.166365 6.27566 9
227 1 3.15044 -4.58806 -10.8289 18
228 1 -6.08781 -0.90835 -9.66903 20
229 1 -6.71291 5.7433 -12.4733 18
230 1 -8.97826 -14.6012 10.0875 11
231 1 9.91911 -4.22917 12.5854 11
232 1 -9.25947 -7.25433 -10.6169 15
233 1 2.11068 7.26201 -8.92159 22
234 1 0.539836 12.5976 1.83511 20
235 1 -4.01378 -5.43685 16.2615 12
236 1 -14.9275 -6.63316 -4.07128 19
237 1 -6.43131 -6.70238 -8.99297 23
238 1 -0.735259 7.69541 -14.7784 16
239 1 -4.54891 -11.1313 -5.76034 19
240 1 3.26071 -10.4271 -12.0481 16
241 1 6.63099 3.18194 -9.83845 21
242 1 8.61653 4.91181 1.11651 21
243 1 -9.86773 0.263575 12.2345 18
244 1 -4.49053 -11.2099 1.03432 20
245 1 6.45257 3.75435 12.5892 18
246 1 -4.93211 -14.2591 5.97255 18
247 1 -1.76702 -12.9005 1.48942 21
248 1 -0.153879 18.3119 2.84074 19
249 1 -0.17559 -5.51006 -13.783 19
250 1 -5.19226 -0.662386 -13.0361 18
251 1 -15.0244 -9.25143 7.98799 13
252 1 -1.27891 7.93365 12.8531 21
253 1 0.630647 -13.8403 -0.536111 20
254 1 -11.5822 -12.8069 -3.59617 19
255 1 -9.23859 4.23765 -10.8616 16
256 1 8.58305 4.92888 4.80174 21
257 1 -6.08479 5.08916 -9.52741 21
258 1 5.09756 10.3352 -8.68062 21
259 1 1.58916 -17.7688 -6.7669 9
260 1 -11.6316 18.5958 2.0706 8
261 1 1.32581 9.92475 5.98462 21
262 1 9.20245 1.62321 6.2586 19
263 1 -9.0676 1.55169 6.78695 21
264 1 -8.07031 -4.25056 15.9256 13
265 1 -8.66315 10.9716 1.9102 16
266 1 -0.588254 -3.55364 -15.9093 12
267 1 11.3782 10.6769 -1.09773 17
268 1 2.66974 -12.9525 1.68695 18
269 1 -1.92268 -3.24254 16.9509 14
270 1 -17.081 -3.18847 6.41511 13
271 1 1.16435 -16.6545 -1.53875 13
272 1 -10.8803 2.6765 18.413 6
273 1 -10.7647 1.96247 10.0528 15
274 1 -12.2995 -2.15647 4.27804 20
275 1 -15.2701 -6.18639 6.33719 13
276 1 14.8537 -0.524565 -3.70767 5
277 1 -12.4202 -6.48188 8.82214 16
278 1 5.18298 -2.80371 -7.0621 20
279 1 6.88597 -14.0536 -5.96549 13
280 1 0.378835 17.927 -2.6777 15
281 1 -12.0265 12.4131 0.454846 17
282 1 9.2549 7.85332 12.7546 17
283 1 3.142 -13.7465 -1.76708 20
284 1 -5.62606 13.654 3.96439 13
285 1 2.55588 -11.6973 8.99744 14
286 1 6.9817 -6.30162 4.26266 18
287 1 1.17458 -2.51942 17.7295 10
288 1 -2.01646 13.4836 6.16759 17
289 1 4.54726 11.8708 16.7458 11
290 1 -8.98205 12.5475 -4.03936 17
291 1 -1.74809 -7.73522 -18.8574 12
292 1 4.02302 -13.4734 -11.4991 15
293 1 -9.895 3.9462 12.5259 16
294 1 -13.6429 2.46277 -0.271821 15
295 1 -7.64383 15.5514 1.41772 16
296 1 6.82943 -2.38977 6.47533 22
297 1 -14.3639 -12.455 1.33045 17
298 1 2.62403 -7.11251 7.79543 16
299 1 -11.7701 -4.46967 13.3653 11
300 1 -13.9292 7.3626 -6.5032 14
301 1 0.273171 -11.4227 -4.53212 20
302 1 -6.78351 -3.71797 -8.20597 19
303 1 5.57057 -5.97219 -12.3904 17
304 1 2.97619 13.7431 5.93448 23
305 1 -12.2556 -1.26928 -3.82184 16
306 1 1.52639 -14.8593 -8.64298 17
307 1 5.85475 5.40951 -12.6839 15
308 1 -8.00804 -18.6991 -1.62061 8
309 1 -17.9691 -7.93122 0.966741 11
310 1 7.8575 5.31526 18.532 13
311 1 9.07015 0.808305 -3.63259 20
312 1 -5.7338 8.00654 -10.9746 20
313 1 -4.14982 21.5832 5.84434 11
314 1 -15.48 -0.126778 -3.3192 14
315 1 -12.8016 8.54923 6.27971 14
316 1 -9.48026 9.69709 -1.29524 19
317 1 -9.97287 9.82638 5.47089 19
318 1 10.9636 6.33929 18.8494 10
319 1 12.0256 -3.55848 -9.88246 9
320 1 11.1352 -0.0704404 16.9349 10
321 1 8.6724 1.16704 -7.80098 19
322 1 -7.56628 -15.8758 -0.932314 17
323 1 3.2144 -11.0433 -0.0840583 19
324 1 7.37926 -0.354134 9.38199 19
325 1 -7.44597 -9.9993 -4.02206 22
326 1 -7.01517 -9.61476 3.03199 20
327 1 -7.48908 0.377221 13.849 18
328 1 -8.76584 19.2358 2.07826 11
329 1 -18.5305 -4.38404 0.200792 11
330 1 3.35495 10.9726 14.2339 19
331 1 -9.1374 6.32347 -3.09652 20
332 1 0.138373 11.9559 -6.4771 11
333 1 4.34552 10.8668 7.93424 23
334 1 -16.1308 -10.8031 -1.19544 13
335 1 -4.30271 -8.34155 -7.2903 23
336 1 -15.5998 2.16949 2.16578 18
337 1 -12.1555 4.97124 -5.75214 20
338 1 3.56638 -10.0304 6.64284 19
339 1 -9.83088 -12.9674 -7.03077 14
340 1 9.76318 14.0495 10.2213 12
341 1 5.27845 8.32827 -13.5346 12
342 1 -11.0336 5.30041 -8.70157 17
343 1 -2.19509 17.8804 -4.50145 11
344 1 -12.306 2.31687 -8.47644 16
345 1 -2.8959 -12.6919 4.6764 22
346 1 9.57724 4.93771 8.20575 23
347 1 2.78165 13.6914 -12.954 12
348 1 -13.5954 -3.37089 -4.03952 17
349 1 -5.8444 -13.2735 3.38046 21
350 1 3.5629 -5.75002 -14.0576 15
351 1 -16.9708 -0.158384 4.86493 13
352 1 -15.4485 2.65055 5.25217 12
353 1 -14.6081 11.2217 -2.00597 13
354 1 -10.2318 0.22162 -12.7558 12
355 1 6.9459 -14.0857 -3.05504 11
356 1 -1.63959 -13.5651 -8.71839 17
357 1 -3.62317 -4.34692 10.8977 20
358 1 -5.35155 -1.23924 -16.1688 11
359 1 1.51966 -13.125 6.24714 18
360 1 4.0714 10.8726 -5.66406 21
361 1 -10.9497 9.91992 7.88037 13
362 1 -5.4629 -2.57039 15.6331 19
363 1 -13.9225 -13.173 -1.6884 15
364 1 -10.887 -6.47898 11.2811 15
365 1 7.07671 -4.81364 14.4685 12
366 1 6.74068 -8.16306 7.08985 16
367 1 14.0031 11.4981 4.01607 10
368 1 -7.58047 5.80455 13.5685 17
369 1 0.498971 13.3366 -1.95877 18
370 1 -5.00898 -14.1593 -3.64792 22
371 1 -2.5386 5.34272 17.0432 14
372 1 -5.6075 19.1894 3.1413 12
373 1 -14.2424 -10.2312 -4.20016 15
374 1 5.40519 18.444 4.10533 12
375 1 3.42821 8.09922 9.31532 18
376 1 -7.31213 2.03352 8.87179 23
377 1 -12.3975 2.32185 5.90899 14
378 1 -10.1022 -7.33825 -7.5241 22
379 1 -7.24175 7.82454 5.61655 21
380 1 -4.54432 -11.1802 -8.8603 21
381 1 -1.92451 -8.55168 -15.6404 15
382 1 -12.6511 -15.0586 1.42715 13
383 1 9.42519 2.18333 9.03033 19
384 1 -6.7026 -7.85266 15.1562 15
385 1 -13.5758 2.0421 -11.2719 8
386 1 9.36446 8.90948 0.791662 19
387 1 -12.8704 -10.496 -1.46172 22
388 1 -0.892835 20.2371 5.65864 14
389 1 -7.59269 8.13821 15.1917 13
390 1 -10.0732 -5.731 -0.188606 18
391 1 -1.39328 19.6635 0.200019 11
392 1 5.45576 16.3557 -6.74724 11
393 1 -9.62913 -7.78654 -4.24691 23
394 1 4.03903 -2.37616 16.6031 14
395 1 -3.87946 -16.9958 -6.05379 15
396 1 0.966218 -5.47946 -8.7501 17
397 1 5.95214 -12.1045 2.92549 16
398 1 -13.6235 8.85367 -3.66528 14
399 1 6.98741 4.09869 16.3434 15
400 1 6.21749 9.99749 -0.399441 21
401 1 -8.62754 9.6087 -5.414 21
402 1 -13.4472 -5.06434 -1.19741 17
403 1 -3.13278 19.4481 7.46006 15
404 1 -2.27172 0.939164 -12.2114 24
405 1 8.63972 7.94522 2.94923 21
406 1 6.96084 17.6066 -3.85208 8
407 1 12.6368 7.28999 -1.60952 13
408 1 -0.679216 -2.28486 -12.8489 18
409 1 0.199968 -17.5206 7.41839 10
410 1 -0.0101231 -7.78603 13.1275 19
411 1 -8.67494 4.01553 -7.70383 17
412 1 -11.3146 -15.6711 5.75526 11
413 1 -4.22962 -12.6967 -11.2869 12
414 1 7.25073 15.9101 9.54803 15
415 1 0.336741 1.21167 -14.1048 20
416 1 6.74145 -2.49226 17.1322 10
417 1 -18.0293 -5.64189 3.90887 15
418 1 -5.01845 -16.6715 4.1204 16
419 1 -15.275 -3.19169 4.27234 21
420 1 11.6977 -1.71991 -7.83107 12
421 1 11.0624 -2.34224 1.52082 18
422 1 0.69791 -8.46515 -6.93718 17
423 1 1.941 -1.06514 -11.1441 19
424 1 6.10948 -8.95998 -13.2602 15
425 1 -4.99366 0.139035 12.8703 19
426 1 6.69329 16.6476 6.6104 14
427 1 -4.25586 -3.65431 -18.1144 11
428 1 2.12282 1.94255 -16.7766 10
429 1 -6.78842 -3.54034 9.65397 20
430 1 -3.03703 17.1657 1.45525 16
431 1 -8.07884 -4.74419 -12.6202 16
432 1 -15.857 -2.92236 0.2182 18
433 1 -3.64221 -12.1579 -14.6565 7
434 1 -8.011 -10.9259 10.4321 15
435 1 1.79173 9.43776 -4.2308 18
436 1 11.5656 9.27105 8.02291 16
437 1 13.1691 1.9611 3.75968 9
438 1 -8.34013 -14.4011 -4.6488 17
439 1 -4.9217 -4.62122 -14.4908 14
440 1 -6.10274 19.5316 6.18751 11
441 1 7.96404 -4.38269 -0.648177 20
442 1 0.905206 16.0698 -8.2002 12
443 1 10.2391 8.29039 -6.15253 16
444 1 3.99525 14.023 13.4687 13
445 1 -9.90865 6.20322 6.16076 20
446 1 3.82107 10.5619 11.0142 18
447 1 10.415 1.85609 14.6601 19
448 1 1.82311 -3.85712 -18.4417 11
449 1 -2.57751 -0.842451 14.5479 20
450 1 7.3158 10.0293 6.51528 19
451 1 6.0346 10.3181 -3.33908 22
452 1 -11.7273 10.962 -4.33691 19
453 1 -3.24219 12.0229 -1.81247 20
454 1 7.03813 -1.95069 13.0182 17
455 1 4.69865 0.563687 -11.2467 21
456 1 5.90174 -11.6365 -1.38461 15
457 1 9.3071 10.2485 14.4522 12
458 1 -15.8264 -6.20543 1.50748 21
459 1 -3.2262 7.31225 -9.09037 18
460 1 -13.2946 7.57481 2.27532 16
461 1 -5.08865 13.6968 -8.7359 11
462 1 2.4034 -16.1354 -3.92364 14
463 1 2.93067 -2.01568 -8.95295 21
464 1 -3.75577 17.6758 -1.42987 11
465 1 -12.3984 -6.13021 -9.20429 13
466 1 -0.12162 -13.7969 9.24345 12
467 1 -9.44547 -8.67561 -0.847744 21
468 1 0.403047 12.0429 -11.9087 18
469 1 -0.74289 8.13229 16.1169 18
470 1 -10.6021 -4.45122 7.62157 15
471 1 0.478373 -12.1163 -7.31536 18
472 1 2.04929 -7.00666 11.9059 18
473 1 -10.0564 6.40886 0.416633 19
474 1 5.45695 5.94058 20.3711 8
475 1 3.75564 17.7506 -2.11518 14
476 1 9.94952 -4.29487 -7.12574 13
477 1 1.24838 7.11573 11.1571 21
478 1 2.40153 8.81099 -11.136 21
479 1 -5.66241 -12.9376 9.94667 12
480 1 7.21418 -3.87646 -14.6889 12
481 1 -0.772385 19.9632 8.98351 8
482 1 7.58501 6.27184 -8.84574 18
483 1 -2.5411 -5.85162 -15.7901 18
484 1 -4.87526 -10.962 -2.32865 20
485 1 -11.0987 -4.21836 -11.8613 15
486 1 14.2077 9.13908 0.617436 11
487 1 9.88083 3.0349 -9.13727 14
488 1 4.89826 -9.38775 -9.87128 16
489 1 10.8681 7.62352 16.128 13
490 1 3.55036 -10.5058 -3.30852 21
491 1 4.28734 5.36895 -14.9085 10
492 1 5.80145 12.6322 5.34545 20
493 1 6.356 12.6816 14.8062 17
494 1 11.2359 13.1696 2.18721 18
495 1 11.6672 3.5352 -0.255811 17
496 1 10.0688 3.57369 -4.9041 15
497 1 10.4302 3.55152 17.5311 13
498 1 10.7886 9.34282 11.0901 15
499 1 8.96472 11.6421 -1.09593 19
500 1 4.34885 1.12663 15.6144 16
501 1 9.88969 -0.126406 -10.2671 14
502 1 7.28707 0.846709 14.4389 21
503 1 -8.95035 -1.34299 -8.05553 20
504 1 12.4002 2.87421 6.43598 20
505 1 -12.4257 5.95185 8.38948 12
506 1 6.52876 9.91571 9.5194 23
507 1 6.26485 6.53014 14.6 18
508 1 0.811355 10.2079 9.55341 24
509 1 -1.56799 17.1821 10.0515 11
510 1 -3.37438 -16.0887 6.94298 14
511 1 -6.6473 10.9595 -2.81286 17
512 1 11.7716 10.7661 -4.81539 13
513 1 5.03426 -5.85462 -8.67936 17
514 1 -3.48897 18.4099 4.36059 20
515 1 -2.30527 -13.2432 -5.59133 22
516 1 5.00634 -11.3076 -14.3692 12
517 1 -14.7901 8.29897 -0.0235918 14
518 1 -2.83331 7.34652 -12.5164 20
519 1 -5.39809 -13.9652 -0.415138 19
520 1 -5.46566 2.3512 -11.0635 18
521 1 -15.4024 2.45102 -3.01402 13
522 1 10.8924 -5.26155 3.47735 14
523 1 11.9889 6.76347 1.54903 19
524 1 -2.52404 -9.7868 6.42518 20
525 1 -13.461 -5.21181 -6.89689 15
526 1 -1.75834 5.16887 -16.5922 13
527 1 -0.975401 5.10239 14.4372 20
528 1 8.03442 9.24035 -9.30152 13
529 1 11.2805 -0.9301 13.3665 12
530 1 6.15339 13.3797 -5.7812 21
531 1 10.7067 15.5544 4.51332 12
532 1 -1.20311 -16.018 -7.40707 13
533 1 -10.8633 -2.74968 15.9565 10
534 1 7.747 -1.19037 0.956035 24
535 1 -4.20566 13.4162 15.3116 9
536 1 3.17907 16.5242 -11.2953 9
537 1 -10.4021 10.843 -6.91145 15
538 1 8.88292 11.0037 4.40458 18
539 1 -14.8892 -9.20272 1.41548 19
540 1 10.0645 -3.02964 4.49625 17
541 1 2.18472 20.3912 4.10831 8
542 1 -4.09627 7.38802 11.5391 21
543 1 -12.6966 -8.05951 -0.0161152 19
544 1 -8.87094 1.19262 -9.41535 21
545 1 9.17213 1.41387 12.0664 18
546 1 -4.4103 -6.72485 13.5403 18
547 1 7.75929 11.299 17.5676 9
548 1 -4.98586 15.1193 0.444529 19
549 1 -0.860942 1.75464 -17.5167 10
550 1 -9.44985 -1.23694 8.964 23
551 1 8.50961 -2.18971 -9.21971 18
552 1 6.55129 -8.50824 -6.85964 16
553 1 6.39344 3.78697 9.6478 22
554 1 -5.27308 0.493942 16.3186 14
555 1 9.10772 7.59173 9.6661 21
556 1 -1.3016 -6.17476 15.0811 14
557 1 -5.97524 6.14145 16.1422 13
558 1 0.971236 -5.62777 -16.5824 17
559 1 -7.30335 2.731 12.1658 17
560 1 0.507251 1.03519 14.5242 25
561 1 -12.5167 -14.8507 9.13771 11
562 1 9.66406 6.74163 -0.658646 19
563 1 3.1801 -13.3697 -5.30497 19
564 1 4.26102 12.9194 -3.46297 17
565 1 8.9362 14.0737 5.77999 18
566 1 0.90652 -1.13661 -16.7515 15
567 1 -0.177027 15.5383 1.61709 19
568 1 11.4314 7.28223 4.61611 19
569 1 -7.11095 -9.85159 -0.891495 20
570 1 -2.64532 1.93782 -15.4984 16
571 1 -10.0016 16.6385 3.73605 12
572 1 4.08669 -13.0419 -8.31482 20
573 1 10.7653 12.8784 -3.55247 13
574 1 7.80111 12.6185 -3.37636 20
575 1 6.55887 8.37857 20.0563 10
576 1 12.5896 4.58177 16.049 11
577 1 -2.72994 -9.49882 9.61207 23
578 1 -5.0276 10.7056 -13.4523 12
579 1 -4.18082 15.4341 9.98445 13
580 1 3.44304 -16.0478 -10.1361 10
581 1 7.34924 14.4315 -0.186311 17
582 1 7.2802 12.8957 8.25523 18
583 1 13.7287 -3.09466 -1.48677 6
584 1 3.20324 8.61782 15.7703 21
585 1 -17.7546 1.0024 2.43746 12
586 1 1.98487 -15.954 1.61942 20
587 1 -11.9961 15.8893 -0.0459095 10
588 1 3.0995 10.395 0.991686 20
589 1 -16.6051 -8.18092 4.44665 12
590 1 2.67032 3.1637 16.7032 14
591 1 -6.14924 7.9908 -14.6337 10
592 1 -5.94661 11.0009 -9.03367 16
593 1 1.44058 -16.5758 4.60417 19
594 1 8.64235 9.18109 -2.90501 21
595 1 -11.2375 1.87565 14.1736 12
596 1 6.12733 -6.66614 -15.6207 13
597 1 0.0568121 -11.0872 11.0337 18
598 1 4.85087 12.5554 -0.437996 19
599 1 -2.329 2.209 15.6406 18
600 1 -9.86158 -10.2422 -8.98865 11
601 1 -6.90843 -10.0861 -10.8648 17
602 1 -6.87617 -15.586 -7.1083 14
603 1 2.38633 15.4184 -2.50852 17
604 1 -5.8094 16.4944 3.84093 17
605 1 3.03205 -10.4459 -6.45157 19
606 1 5.26369 -16.6175 2.02048 11
607 1 0.191969 -8.20092 9.39046 17
608 1 11.3189 5.20964 -6.58756 13
609 1 -4.76678 -17.1057 -1.06424 16
610 1 -12.8633 -1.08481 14.0503 9
611 1 -4.57561 -15.1232 1.58565 22
612 1 -6.81544 -18.4784 2.34693 9
613 1 -12.032 -3.38007 9.59175 15
614 1 -10.4007 -13.5851 3.0818 23
615 1 13.5272 12.206 0.878363 11
616 1 -1.20109 16.8447 4.75127 20
617 1 -14.3256 5.20635 0.56913 15
618 1 8.84084 -5.26137 6.31571 18
619 1 -12.7984 -2.77674 -9.61908 14
620 1 10.7361 6.81527 -8.84046 11
621 1 5.58516 13.0731 11.3589 22
622 1 -12.2058 -0.939485 -7.04443 20
623 1 -11.2911 -5.661 -4.15362 20
624 1 0.248729 5.78681 18.6401 9
625 1 7.33712 9.87335 -6.28109 17
626 1 9.8554 15.9174 7.59306 12
627 1 -4.81405 1.89389 10.7855 18
628 1 -2.35243 -15.7146 3.66341 21
629 1 -9.52897 -14.2646 7.22336 17
630 1 8.621 11.8252 11.7396 19
631 1 2.18145 -7.51032 -12.4737 17
632 1 3.39689 10.7605 4.29815 20
633 1 -8.18901 -8.24947 10.2345 18
634 1 5.41983 13.8113 -12.3998 9
635 1 -2.76836 -16.1018 -3.26496 15
636 1 7.53215 -11.6972 5.67817 11
637 1 0.228157 -18.5745 2.40815 13
638 1 4.29797 5.64056 -8.35826 24
639 1 -1.79441 21.2633 3.10723 12
640 1 -1.41746 3.94818 -13.1945 20
641 1 -2.49394 2.12419 12.615 19
642 1 4.80665 10.7258 -12.1689 13
643 1 -10.1266 -2.75674 -14.357 8
644 1 -9.11728 -4.21395 -3.20038 20
645 1 -2.54853 15.2972 -2.64411 20
646 1 -2.11525 -4.90175 -19.7607 9
647 1 6.67826 3.19174 -3.46074 20
648 1 9.09099 -6.76743 -2.2263 16
649 1 -4.63582 3.1761 17.6606 9
650 1 2.76396 -10.1098 3.56728 18
651 1 10.4133 -3.46466 -1.69096 16
652 1 7.03483 -3.82529 9.83926 15
653 1 -1.40528 10.9229 8.03692 20
654 1 -13.393 4.46707 14.2737 6
655 1 -7.19935 5.53514 10.6683 22
656 1 -0.881243 -14.4469 5.91982 21
657 1 8.42108 8.35036 16.8616 15
658 1 -12.1143 0.44408 1.7599 18
659 1 6.50821 -8.51193 -3.68317 19
660 1 -9.42282 10.1174 -9.11602 14
661 1 -3.12995 -12.4724 7.78865 20
662 1 4.73448 -5.52738 15.5123 11
663 1 2.07433 16.4094 3.4672 19
664 1 -0.292065 -10.4882 7.78973 22
665 1 0.993536 3.96965 12.4799 19
666 1 -17.5442 -8.27004 -3.64352 10
667 1 -2.5904 10.3966 15.0181 15
668 1 4.14881 13.3858 2.6622 18
669 1 -10.6324 -10.044 4.83907 21
670 1 -7.15001 -15.9626 7.53224 12
671 1 5.79664 -5.3516 7.80771 21
672 1 9.23259 -6.28577 9.11995 12
673 1 6.73445 6.65571 7.78751 22
674 1 -0.940064 -7.84357 -9.29457 17
675 1 0.146963 2.6748 -10.851 23
676 1 -5.8837 -3.10349 12.5751 15
677 1 0.71819 15.8423 6.61942 17
678 1 11.2215 -0.107792 4.11374 19
679 1 1.83196 9.74144 -7.61968 20
680 1 -8.07296 11.6965 13.4417 12
681 1 6.6635 6.89176 11.3651 20
682 1 5.53075 -3.09687 -10.4043 19
683 1 -11.0087 -13.1018 -0.545969 19
684 1 13.2551 -2.78387 4.43852 10
685 1 -1.03522 -4.23074 -10.822 17
686 1 3.91207 5.05246 14.5043 20
687 1 6.31002 -13.5505 -9.89236 10
688 1 2.93738 2.92539 -13.0956 18
689 1 10.954 13.1195 -7.22181 8
690 1 10.688 0.539144 1.64584 15
691 1 0.319016 -4.70803 11.4343 19
692 1 -7.51973 -9.62789 -7.50946 23
693 1 4.88262 16.9179 0.374544 14
694 1 -13.55 5.61096 5.43958 15
695 1 10.5335 7.08153 -3.92476 19
696 1 14.0139 5.06941 4.38748 11
697 1 1.02933 -7.06181 -20.0023 9
698 1 -7.69183 11.3987 6.863 15
699 1 15.0811 8.08752 9.4264 6
700 1 9.85231 16.1668 1.30621 14
701 1 4.02076 -1.88907 -16.5312 8
702 1 8.25577 -1.71246 -2.03843 20
703 1 -11.7413 0.734624 -1.90741 18
704 1 11.2414 3.8078 2.94042 17
705 1 -12.9912 -8.77083 3.41623 19
706 1 -8.30407 7.44601 -9.18321 21
707 1 3.65885 5.18666 11.1459 21
708 1 -8.34587 0.913157 -6.3608 16
709 1 -13.2487 4.12012 3.13654 17
710 1 6.21756 -11.0706 -4.77359 15
711 1 -10.9849 -10.146 -5.62328 20
712 1 10.7352 -7.96059 1.00874 9
713 1 -15.2761 5.87959 -2.50121 12
714 1 12.0658 6.28058 10.9661 17
715 1 -7.29266 -6.23131 8.06671 21
716 1 3.09313 5.97629 17.703 14
717 1 9.47274 -2.28671 7.46987 16
718 1 -9.85667 3.50985 4.0035 17
719 1 0.912674 10.2656 12.6673 21
720 1 7.90593 14.6346 -8.42219 11
721 1 -3.97909 -8.64226 -13.7608 12
722 1 -9.52043 15.9202 7.14819 10
723 1 -13.9076 -12.0913 7.14261 16
724 1 9.31014 15.293 -2.24489 15
725 1 1.50773 7.38323 14.2972 18
726 1 11.8476 1.6886 -6.82027 12
727 1 5.2648 -9.50375 10.5285 12
728 1 -1.50087 10.4013 -12.7452 16
729 1 8.12222 12.1329 -9.12843 12
730 1 -7.23871 -0.570445 10.7482 22
731 1 14.2159 10.9891 7.18654 9
732 1 -4.02126 -5.01751 -9.13234 19
733 1 8.69794 17.7208 4.34275 11
734 1 -18.3196 -1.40541 -1.09759 10
735 1 -2.93464 -12.1379 11.9634 12
736 1 0.480124 14.9064 -10.6113 13
737 1 2.06147 -0.993859 11.7282 18
738 1 -2.27456 -13.2931 -1.96351 20
739 1 -12.1053 13.6547 8.27757 10
740 1 -15.4389 4.19381 -5.37317 12
741 1 8.54466 1.92397 -15.2846 6
742 1 1.76334 -11.3873 -13.5232 16
743 1 -10.6832 8.99266 1.93371 19
744 1 11.6907 14.5868 -0.717542 11
745 1 -1.07615 -8.15177 -12.343 18
746 1 -7.94754 -12.9076 -9.16911 13
747 1 0.250259 -10.8249 -1.66235 20
748 1 -9.13393 5.35705 16.3937 10
749 1 0.253437 -14.2141 -3.86544 17
750 1 1.13005 10.1803 -14.5685 9
751 1 12.7974 1.667 -2.73643 12
752 1 5.77021 9.55046 3.26098 22
753 1 -2.85211 -18.6093 2.068 12
754 1 -4.65247 -6.52935 -17.7179 9
755 1 11.6849 -0.781012 -4.33953 15
756 1 0.283785 6.01166 -12.0372 21
757 1 -4.8003 -7.65633 9.85411 19
758 1 7.01651 6.90412 -5.40373 18
759 1 -12.9063 2.1209 -4.75639 20
760 1 -12.5671 4.59901 10.9406 11
761 1 3.10523 8.31364 19.2466 11
762 1 -10.8245 -10.0102 7.96894 18
763 1 -0.0382128 13.283 4.69009 22
764 1 3.34929 -18.8896 3.49919 10
765 1 2.95056 14.8017 0.335427 20
766 1 -3.55782 7.42198 14.6436 19
767 1 -1.14406 -0.0906517 17.5401 13
768 1 -10.5805 10.0304 11.8777 8
769 1 -5.50013 -10.8062 14.4021 10
770 1 0.159712 -11.6143 13.9741 11
771 1 12.0516 2.72978 12.0434 14
772 1 6.41567 -5.70966 -5.76241 19
773 1 4.61115 -16.1803 -6.37123 13
774 1 -8.22438 0.00173896 -14.233 13
775 1 1.22646 5.01045 -14.8747 18
776 1 3.99851 13.6279 9.0064 20
777 1 -8.24719 -9.95597 13.8483 13
778 1 -5.99434 11.0374 -5.54587 18
779 1 -15.4119 1.38713 -6.43885 14
780 1 7.41899 17.681 1.33638 11
781 1 -8.40092 -12.312 4.75989 21
782 1 9.74896 11.055 8.20254 20
783 1 -12.3477 -8.1461 -2.63912 25
784 1 1.13866 15.6377 9.87894 14
785 1 -7.99191 -1.02005 17.5239 13
786 1 -6.5144 -16.4281 -3.57098 16
787 1 4.87348 -1.98504 10.2438 17
788 1 0.619869 -19.8846 5.30645 9
789 1 0.725868 13.0497 14.3337 12
790 1 10.9986 -6.84102 -11.0354 8
791 1 7.81296 -9.64975 1.34751 10
792 1 4.3521 -2.57778 -12.9789 18
793 1 -11.1988 -0.704771 -10.2319 18
794 1 -10.2055 6.94684 -11.4779 11
795 1 -7.54829 8.34175 11.7806 23
796 1 11.505 -5.18621 6.44039 10
797 1 -10.015 -7.67012 2.27668 19
798 1 10.2522 0.273435 -1.22131 19
799 1 -0.8697 8.9179 -10.2025 21
800 1 14.2901 8.63671 4.51034 10
801 1 -5.03999 13.0655 11.7502 16
802 1 -13.6953 -13.7685 4.10628 13
803 1 6.29584 -17.366 -4.02884 8
804 2 -10.9083 -1.75777 -8.4332 17
805 2 -5.65843 15.2992 2.38817 16
806 2 -0.490113 2.46782 -12.7249 19
807 2 -9.72242 3.88264 17.4373 7
808 2 -0.26815 -17.4758 -6.64659 11
809 2 -12.8358 -4.43799 -8.54138 15
810 2 2.45309 -1.37521 17.6745 13
811 2 6.83422 2.32065 17.5211 13
812 2 -12.4516 -9.8265 5.14376 22
813 2 -11.6753 3.6823 -4.66044 14
814 2 0.369429 14.1059 3.07804 23
815 2 -13.9114 0.878513 1.73355 17
816 2 0.418206 17.1527 -6.61391 11
817 2 9.19729 3.87355 2.91176 19
818 2 -1.43672 14.5004 -11.1532 12
819 2 3.91136 18.6228 -0.276901 14
820 2 -9.70493 -4.15422 -13.3061 11
821 2 -15.855 -8.85884 -3.98762 13
822 2 0.39038 4.9387 10.9926 23
823 2 9.0302 -2.54176 -7.36887 17
824 2 1.81839 -17.691 2.50955 14
825 2 -8.58652 11.3995 -2.15084 16
826 2 -14.2003 5.36302 -6.04438 15
827 2 8.53254 3.40645 6.1672 21
828 2 8.00912 -10.2704 -9.57206 13
829 2 -16.9403 -9.17026 -0.087731 11
830 2 -10.6615 -4.10286 5.70737 19
831 2 -7.9092 -13.1511 2.9447 17
832 2 10.3413 -5.83063 7.82352 10
833 2 -5.23084 -16.5317 -7.62187 9
834 2 8.26482 -1.38592 17.0098 10
835 2 0.712636 12.1022 -9.96847 18
836 2 -1.70681 -17.1811 7.151 11
837 2 -14.5483 -11.4369 -2.4265 14
838 2 0.685758 5.58046 13.8311 17
839 2 -7.01497 10.0063 2.48205 18
840 2 -1.71115 3.86547 15.863 17
841 2 -12.4814 12.8351 -4.197 12
842 2 7.2076 -12.7969 4.24596 11
843 2 1.23737 13.7168 -6.03121 11
844 2 8.8738 12.3329 9.22811 19
845 2 6.07923 16.6869 8.41769 14
846 2 5.0351 -4.79186 -7.03225 18
847 2 -9.57639 5.77882 13.7348 15
848 2 4.79626 3.96922 -13.6103 14
849 2 -3.85879 7.91481 -11.1363 22
850 2 9.55862 9.09049 -1.04265 20
851 2 -8.14862 -6.4388 14.6944 15
852 2 -13.6426 11.3394 3.9874 12
853 2 9.13606 -0.0260447 -12.2284 15
854 2 -11.2781 -3.90139 11.4417 16
855 2 2.5684 -16.6688 -8.09793 13
856 2 -2.13307 -3.07289 -19.3299 9
857 2 -11.8422 -7.65353 4.84943 16
858 2 13.0724 7.74532 0.179576 14
859 2 -4.79202 10.1962 5.1791 18
860 2 -6.3042 -17.5585 -2.0056 12
861 2 -5.98701 15.174 5.22056 12
862 2 10.4802 1.56401 17.4802 12
863 2 0.181357 -6.99831 11.4257 17
864 2 11.1737 7.84715 7.10274 17
865 2 4.56221 15.2465 -7.82407 13
866 2 -9.87273 1.56379 -1.77391 19
867 2 12.8317 2.56888 10.3464 15
868 2 7.25278 -12.8291 -4.73631 12
869 2 2.41572 -14.4539 0.202599 18
870 2 -6.8359 12.6853 12.4909 13
871 2 4.37384 -11.1977 4.7017 19
872 2 8.57474 -5.2815 4.37917 18
873 2 11.5143 11.5176 7.82037 14
874 2 -3.41022 -2.0588 15.8096 19
875 2 7.98489 -2.21199 -13.8458 10