ITEM: TIMESTEP
11000
ITEM: NUMBER OF ATOMS
500
ITEM: BOX BOUNDS pp pp pp
-30.0 30.0
-30.0 30.0
-30.0 30.0
ITEM: ATOMS id type x y z Coordination
1 1 -5.86927 4.42548 -4.388 20
2 1 2.24142 2.21469 9.58461 20
3 1 -1.27594 6.5949 11.7192 13
4 1 3.02274 1.8709 5.93018 17
5 1 -8.57814 5.59945 0.484788 21
6 1 -4.54661 3.41485 -6.63141 18
7 1 -0.810936 4.73163 9.54351 25
8 1 2.12065 -0.796531 -2.67201 17
9 1 -11.6862 3.17392 -1.01713 12
10 1 -4.14564 7.8814 -9.25176 12
11 1 3.79143 -5.78115 0.396136 12
12 1 3.86735 6.84816 5.71297 16
13 1 -2.83717 8.40483 -3.92898 22
14 1 -0.380863 7.00401 7.63693 20
15 1 2.46925 10.4742 10.1867 12
16 1 -8.1081 -1.25034 0.727247 22
17 1 -10.4532 0.711109 0.69468 16
18 1 6.38025 2.50784 -0.282709 12
19 1 2.98805 7.57064 8.68551 18
20 1 -8.14319 -0.976322 3.90537 21
21 1 -5.25295 -4.22698 -4.05789 12
22 1 -0.0655647 -0.591043 -5.1944 16
23 1 2.9119 2.15776 -3.33705 17
24 1 3.51485 -3.09434 8.88923 11
25 1 -5.71565 12.7154 6.1104 13
26 1 1.3024 8.13511 5.47006 21
27 1 -3.2479 0.318107 -6.86741 17
28 1 -5.56511 9.69168 8.60892 14
29 1 4.5555 -3.20726 6.09238 11
30 1 -5.88921 9.91804 5.08355 20
31 1 0.401797 9.4586 -3.93432 17
32 1 2.73202 8.04232 2.6207 20
33 1 -6.48869 12.7551 -2.72331 8
34 1 -5.10689 6.91824 -5.54659 22
35 1 -4.93654 12.5959 -0.382131 13
36 1 -3.92838 15.0927 1.65005 9
37 1 -10.1304 8.9171 0.866429 15
38 1 -0.396682 11.7464 11.7435 5
39 1 -9.44997 4.53206 -6.19484 19
40 1 -8.21798 -1.07187 8.26585 14
41 1 -10.6218 -0.632346 -4.23794 10
42 1 2.29098 -6.79501 3.4256 10
43 1 -8.88217 4.82009 3.75365 23
44 1 -11.1219 1.9871 -6.91782 10
45 1 -3.62794 -6.11829 7.87941 11
46 1 2.58743 10.7816 -2.52969 12
47 1 -8.17018 0.39583 -7.75211 12
48 1 -3.60234 10.3342 -7.0681 11
49 1 -3.61857 -3.64328 -0.987292 21
50 1 -3.08874 13.4222 4.57225 19
51 1 -11.1494 6.57711 3.16041 19
52 1 -0.261684 11.3704 6.05697 20
53 1 3.61041 4.75548 10.4735 13
54 1 0.995614 -6.64389 0.122604 15
55 1 2.83676 7.18505 -3.36315 17
56 1 -7.30407 -3.80384 3.67465 20
57 1 -4.54315 -7.87237 0.941865 10
58 1 1.91161 4.47687 7.81878 20
59 1 -1.10918 -3.76064 8.21153 18
60 1 2.38504 11.1037 3.60193 20
61 1 -8.17544 -4.00763 6.76504 13
62 1 -6.79979 -7.01384 3.47421 11
63 1 -4.83573 -0.472164 -1.20524 17
64 1 -7.53094 1.62501 9.32427 15
65 1 -11.7818 3.49901 5.15342 13
66 1 2.05681 -5.45776 7.89233 10
67 1 -5.46715 -1.83672 6.14816 18
68 1 -3.23927 7.82294 9.11803 23
69 1 -10.4708 0.735875 4.13826 15
70 1 -6.26181 13.1249 3.01126 16
71 1 -8.38026 11.7611 5.36815 12
72 1 -3.29326 9.55979 11.7098 10
73 1 -7.66895 -2.1642 -5.8303 10
74 1 -9.06489 7.96724 -1.49149 18
75 1 -8.43648 1.8327 -4.11283 19
76 1 4.89457 4.23083 6.18305 18
77 1 -4.81082 1.25585 10.9666 14
78 1 -5.08216 1.70417 -9.42258 11
79 1 -11.7979 6.55884 -0.280941 13
80 1 -3.45924 -6.63606 4.56924 14
81 1 -8.21538 7.03577 8.61888 14
82 1 -5.59318 9.93373 1.69357 20
83 1 -1.15344 -5.60492 -1.57174 17
84 1 -1.18809 15.6696 2.94067 9
85 1 -8.2341 7.22024 -4.73993 19
86 1 -11.1349 7.33397 -3.81889 15
87 1 -2.20919 -4.52896 -4.06138 12
88 1 1.53607 -3.54986 10.8202 8
89 1 -11.9165 5.91572 -6.37825 9
90 1 -2.42534 3.26236 12.5601 13
91 1 -10.503 6.27475 5.98255 14
92 1 0.854969 -3.37972 -4.46867 12
93 1 -2.76518 -0.834439 7.76352 20
94 1 -2.78289 -1.05153 11.3302 11
95 1 2.48913 -3.63937 -1.74972 17
96 1 6.61539 8.20453 1.29438 15
97 1 -8.32225 8.22106 5.02484 18
98 1 -1.16685 5.68767 -8.71832 10
99 1 2.59022 -0.410667 11.0356 11
100 1 -7.14327 -3.89526 -1.73284 13
101 1 -8.1671 1.89767 5.70135 22
102 1 6.98106 6.49475 6.96101 13
103 1 7.40172 5.81298 -0.774121 12
104 1 -2.40411 11.0875 -3.75624 15
105 1 -9.96379 8.38101 -6.41608 11
106 1 -0.69125 12.5286 3.02519 20
107 1 -1.70418 8.37389 -6.51287 16
108 1 -0.664786 -5.55432 2.63468 17
109 1 1.82566 -3.78909 1.72569 22
110 1 -2.7357 -5.53478 1.29896 18
111 1 -7.21602 6.34952 -7.50656 15
112 1 7.78858 3.28987 2.4606 13
113 1 -4.12056 9.81905 -1.27878 19
114 1 1.99609 -6.20701 -2.79259 8
115 1 -10.3764 0.980185 7.69554 11
116 1 -4.54766 -6.46932 -2.16689 12
117 1 -0.615891 -0.521379 -8.13473 9
118 1 -0.329223 9.4066 2.94761 23
119 1 -0.409219 -2.97518 0.0192649 22
120 1 -8.61715 -1.41017 -2.92025 14
121 1 -0.408438 1.46288 11.127 15
122 1 0.926826 4.59272 12.0925 13
123 1 3.33332 4.29307 -5.06132 11
124 1 -13.0705 5.18033 -2.97391 10
125 1 1.03814 12.3616 0.626334 17
126 1 4.12729 6.69934 0.692868 22
127 1 -4.56885 5.12248 -9.45984 11
128 1 -10.6372 9.47009 4.32436 12
129 1 -3.83864 -3.37054 9.70072 12
130 1 6.48677 6.02556 3.68028 19
131 1 -8.23323 2.77335 -8.5863 8
132 1 5.93514 -0.428157 8.29083 7
133 1 -3.85632 -3.59441 2.85652 21
134 1 6.058 9.45547 9.02411 11
135 1 -1.11947 -5.74189 6.02612 13
136 1 5.55386 1.8382 10.8359 9
137 1 8.60125 8.56928 4.11738 13
138 1 7.12346 11.2979 6.28318 11
139 1 -2.34493 -2.36312 -5.70351 14
140 1 4.96083 12.2695 8.19392 10
141 1 -5.44947 9.84615 -4.145 17
142 1 -2.54455 2.20712 9.17097 22
143 1 -8.78949 -4.24001 1.307 15
144 1 4.63755 12.8032 5.1143 14
145 1 -6.40728 6.80985 6.98423 20
146 1 -7.71419 8.04108 1.81137 19
147 1 3.91191 10.3937 0.534572 15
148 1 0.750916 7.75722 10.7018 14
149 1 -2.29329 2.68494 -7.78138 17
150 1 -0.642478 10.1497 9.00479 17
151 1 4.96209 -0.857867 -0.582141 14
152 1 -0.228635 14.6925 6.10033 13
153 1 1.41752 -4.2444 5.38984 19
154 1 -3.32588 10.8007 7.2272 19
155 1 2.5866 -0.293782 -6.0304 9
156 1 0.418564 -1.27489 9.18258 19
157 1 -2.3394 5.42065 -5.42015 18
158 1 -6.03412 7.56581 10.3929 13
159 1 9.53796 5.85346 4.83815 10
160 1 -1.30509 14.196 -0.376457 13
161 1 4.83478 7.77986 -1.77111 13
162 1 -4.10159 4.67645 10.9738 15
163 1 -6.18143 -1.63619 10.1682 13
164 1 -8.16822 10.9112 -0.364405 15
165 1 1.73601 14.042 3.74686 11
166 1 -10.6049 -2.13035 5.78651 13
167 1 4.67766 3.7904 2.6655 20
168 1 -10.8234 -2.19017 2.47751 14
169 1 8.652 8.75157 6.91156 9
170 1 5.82633 1.78988 4.35487 11
171 1 2.87904 10.3818 6.71193 16
172 1 -11.0795 2.92401 -4.13209 15
173 1 -2.47918 10.7273 0.877231 19
174 1 0.163471 12.8256 -2.70607 10
175 1 -8.7566 5.04413 -2.51736 22
176 1 0.634928 1.91063 -5.75821 18
177 1 -5.74597 -5.23428 0.873715 19
178 1 -2.72765 -3.5997 5.65165 19
179 1 5.97046 0.629137 1.83968 13
180 1 -10.7844 3.51809 1.77015 17
181 1 -6.54574 8.98558 -7.32907 13
182 1 -10.6126 -2.29837 -0.981908 13
183 1 6.58255 3.34476 8.86919 9
184 1 -5.31184 -1.55074 -7.62941 12
185 1 -8.58034 11.373 2.49373 13
186 1 -9.16457 3.91943 7.36863 17
187 1 5.34611 9.7327 3.72114 18
188 1 9.55723 6.51328 1.52955 10
189 1 -6.72062 -4.74526 9.11088 10
190 1 1.36992 7.14266 -5.95272 10
191 1 0.314836 9.44787 -0.529718 19
192 1 3.04404 14.9895 7.19581 7
193 1 -3.1434 14.1715 -2.73912 8
194 1 5.39857 4.63264 -2.40744 15
195 1 -6.38181 4.39965 8.91547 18
196 1 4.59613 -2.60262 2.26103 15
197 1 -2.16848 12.8925 8.02079 10
198 1 -3.23873 10.6267 4.06729 21
199 1 -5.84979 -5.34595 5.89424 19
200 1 4.99674 -5.26449 3.27328 9
201 1 -9.75071 -5.11722 3.93268 11
202 1 -8.96046 10.2717 -3.4258 13
203 2 -10.7927 1.8141 5.8333 14
204 2 8.37092 9.84824 5.5698 11
205 2 -8.66177 0.483726 -2.8396 18
206 2 -11.2503 4.80027 0.180026 15
207 2 -5.59561 -5.56446 7.83459 11
208 2 0.300754 6.03204 11.0959 16
209 2 3.1066 5.06277 5.97938 18
210 2 -3.62946 12.5329 6.36588 16
211 2 1.55543 -3.11117 -0.22078 22
212 2 -6.65527 2.75 -4.22503 17
213 2 -1.57058 -0.741785 -6.4926 16
214 2 -6.71453 11.0857 6.24324 14
215 2 6.03744 1.29345 8.99334 9
216 2 2.98206 12.9302 4.458 15
217 2 -1.40747 11.2711 7.56577 14
218 2 -0.205512 14.2556 3.69027 15
219 2 -1.81798 12.9998 -3.22397 9
220 2 1.55399 3.31296 -4.6219 15
221 2 -11.4841 4.04971 -6.35602 12
222 2 -2.95945 -4.18498 8.17503 17
223 2 -10.9969 4.50247 3.68279 16
224 2 3.13978 -5.80208 -1.32263 10
225 2 -5.33911 -6.49648 4.60748 16
226 2 2.16882 1.10284 -2.00346 19
227 2 1.10629 10.213 6.69333 17
228 2 5.10151 3.76254 10.1429 10
229 2 -7.8396 -3.20093 8.37602 14
230 2 -3.35921 -7.07659 2.60652 14
231 2 -9.65786 -0.717133 7.10058 16
232 2 -7.98413 -5.69752 3.13784 14
233 2 -7.36131 -4.30329 0.164703 18
234 2 -5.1802 13.8054 4.68571 13
235 2 -0.268964 6.80523 -7.33838 10
236 2 6.21338 6.53559 -2.19097 12
237 2 -2.65162 11.1112 -5.63253 12
238 2 -8.04896 6.92801 -2.85477 21
239 2 5.60884 5.83488 1.9346 16
240 2 -1.54448 14.3349 7.14262 11
241 2 -4.79297 9.38972 10.522 10
242 2 -1.84615 14.7794 1.33835 11
243 2 0.214423 13.4238 -0.85158 12
244 2 -3.56275 9.54184 8.52991 16
245 2 0.287057 -0.490145 7.38923 19
246 2 0.667956 0.255924 -7.03618 12
247 2 0.585885 -6.22172 -1.51244 13
248 2 -4.0109 -1.62443 -6.2093 14
249 2 -10.3662 -4.15106 2.32928 11
250 2 4.28445 -4.25405 1.33949 14
251 2 6.87859 8.9607 3.03683 14
252 2 -4.10418 3.13275 -8.51663 14
253 2 -1.52537 4.34152 -7.53958 14
254 2 -6.57299 -2.72419 -4.31673 13
255 2 1.80565 -1.91246 -5.18591 11
256 2 3.14196 6.1634 -5.06828 11
257 2 -5.73273 -3.50505 10.0822 11
258 2 -1.88133 0.87215 -8.61691 11
259 2 -1.17603 9.27079 -4.88662 15
260 2 -0.999032 -3.13301 -4.50318 14
261 2 -5.58494 6.68179 -8.53752 14
262 2 -2.73196 6.86959 7.5433 21
263 2 -6.16622 -0.722261 7.6836 21
264 2 -5.16817 10.925 3.59854 22
265 2 -10.388 -1.23088 4.10287 14
266 2 -10.9068 -1.66045 -2.73116 9
267 2 2.26425 -4.53084 9.29348 10
268 2 6.6939 4.05686 -1.17226 11
269 2 -3.16296 2.11894 -5.87854 19
270 2 4.23587 13.6179 7.2421 10
271 2 3.6381 10.9822 8.47413 13
272 2 -0.541992 3.19319 12.1942 15
273 2 -8.97456 7.24336 3.51136 21
274 2 -6.82399 1.44655 -8.80938 10
275 2 7.89506 7.17449 0.51495 14
276 2 -10.3798 1.50779 2.55894 17
277 2 -6.72354 11.9724 -0.647061 14
278 2 -3.05502 6.31004 -9.5318 9
279 2 -10.0802 10.1967 2.3445 15
280 2 2.28151 -6.52433 1.47035 14
281 2 -0.910826 -5.91773 0.750428 18
282 2 -7.93587 12.6779 3.6741 12
283 2 -2.25531 -4.89328 4.20329 20
284 2 0.759821 -6.09352 4.0597 15
285 2 0.564801 11.0437 10.3389 10
286 2 -4.9777 13.459 1.333 14
287 2 -7.41473 -0.184715 9.82394 13
288 2 -4.20924 -6.6118 -0.344106 14
289 2 -5.7701 2.29498 9.34088 18
290 2 -5.56622 10.0319 -6.2376 13
291 2 4.98817 1.22113 -0.409989 17
292 2 -0.640193 2.49792 9.22065 20
293 2 -10.68 1.75496 -0.874733 15
294 2 5.50792 11.1902 5.1749 14
295 2 6.56769 11.0827 8.1066 10
296 2 2.56858 -1.76115 2.21188 21
297 2 -9.45208 -3.91501 5.54073 14
298 2 -2.05887 10.8195 12.0737 6
299 2 2.92872 5.68734 9.04652 19
300 2 -3.14234 8.79434 -7.96215 13
301 2 1.05074 0.596035 10.1646 14
302 2 2.2416 3.48347 11.0511 16
303 2 2.55618 -2.03756 10.224 10
304 2 -10.8915 1.26427 -5.06798 13
305 2 -9.29187 9.96304 -1.57083 12
306 2 -10.0169 6.50401 -6.06581 14
307 2 -4.83992 -0.60665 11.2927 11
308 2 1.63058 12.5245 2.54106 15
309 2 -7.17647 -1.21891 -7.4768 10
310 2 9.20395 7.02111 3.27457 10
311 2 -7.52542 9.97266 1.31317 18
312 2 4.84592 2.53033 5.72105 15
313 2 -8.64061 2.13177 7.69522 17
314 2 -8.22722 -2.26678 -1.13961 17
315 2 -4.56015 13.2381 -2.16672 12
316 2 -8.90428 10.0502 4.74382 14
317 2 -2.98178 -1.70405 9.5387 15
318 2 -11.1703 7.52134 4.80576 12
319 2 -4.40405 10.788 0.306668 17
320 2 -2.37617 7.96367 10.9761 15
321 2 -12.2245 3.54681 -2.72325 12
322 2 -0.440302 11.3787 1.2674 17
323 2 -6.60469 7.91052 8.7143 13
324 2 -2.32507 0.624789 10.4825 17
325 2 -9.52061 1.76412 -7.64202 11
326 2 -5.6855 8.14358 -4.05606 19
327 2 -5.34868 -4.45078 -2.11852 16
328 2 -6.85607 5.96688 -5.23805 20
329 2 2.06265 2.54358 7.73003 17
330 2 4.85794 8.70395 0.201542 16
331 2 -0.857693 -3.22813 6.25109 17
332 2 3.311 6.36437 -1.38538 18
333 2 -0.180063 8.26486 8.93221 20
334 2 -2.76746 4.21518 9.14886 22
335 2 -8.98909 -1.11286 -4.91649 11
336 2 -3.91863 -4.20078 0.801172 23
337 2 -1.46278 11.5814 4.4205 23
338 2 -11.5375 4.8884 6.55204 11
339 2 -8.39813 -2.38855 2.69286 21
340 2 -2.82551 -5.73658 -2.57979 15
341 2 3.23216 8.42302 6.50888 16
342 2 -1.79593 9.69868 -0.846649 19
343 2 -10.0216 8.64097 -4.39989 13
344 2 1.99165 10.4579 -0.097981 18
345 2 1.9108 -4.29039 -3.33984 11
346 2 6.36097 4.69498 7.66952 13
347 2 2.46912 8.50559 10.2231 12
348 2 -7.04739 10.9501 -3.38006 13
349 2 -9.2945 3.86086 -4.03291 20
350 2 -4.74402 0.180025 -8.21009 13
351 2 -2.87548 14.9204 3.42245 13
352 2 -3.49404 9.75547 -2.87451 18
353 2 -12.3193 6.14649 -4.49227 12
354 2 -8.77302 7.20937 6.7304 16
355 2 -3.13027 7.34415 -5.56751 21
356 2 2.25508 0.967397 -4.60466 15
357 2 -11.1507 7.06998 -1.89422 15
358 2 -4.30823 4.82674 -5.40552 18
359 2 4.11037 0.625428 10.9685 9
360 2 -8.24337 5.25396 8.60455 16
361 2 -5.5152 -0.284587 -2.86943 16
362 2 -8.35324 1.01054 3.99939 20
363 2 4.98925 -2.1334 7.8598 8
364 2 -11.4718 7.32961 1.51966 15
365 2 -2.54002 5.33519 11.9349 12
366 2 -2.66304 -6.842 6.43169 12
367 2 8.83244 7.13908 5.95444 11
368 2 -1.69556 -3.80902 -1.1095 20
369 2 -3.90192 9.63481 5.71826 20
370 2 -7.89428 4.47 -7.7842 13
371 2 -7.98011 4.40045 5.81878 22
372 2 0.0304278 -3.05946 9.62793 16
373 2 1.08271 7.69919 -3.9888 18
374 2 7.10902 8.09653 7.94898 9
375 2 -8.82124 7.44243 0.291572 21
376 2 9.07583 4.53188 1.77889 12
377 2 3.31644 -1.09673 -1.16675 14
378 2 -5.74942 -3.83364 2.52392 21
379 2 5.1203 -1.00478 1.4763 15
380 2 5.0284 -3.2433 4.2223 12
381 2 6.25757 3.61949 3.67123 13
382 2 1.71395 -2.43952 4.82518 18
383 2 -5.53872 5.68381 10.0635 16
384 2 3.73773 8.94267 -2.48934 14
385 2 -10.2483 -1.45573 0.735499 14
386 2 -8.19333 0.992544 0.630206 19
387 2 0.370028 -5.31281 7.10911 14
388 2 0.937597 11.0402 -3.07959 13
389 2 7.24221 1.89246 1.34796 11
390 2 3.89361 9.6908 2.44573 15
391 2 -0.106126 -3.59362 2.24116 20
392 2 4.56023 1.58054 2.89719 18
393 2 3.0025 -4.2064 6.63793 11
394 2 -3.67744 -3.41561 -4.40162 16
395 2 1.64589 9.47729 3.64538 24
396 2 1.58146 14.987 6.1926 8
397 2 -6.44901 -3.58357 5.5931 18
398 2 -4.11569 2.71673 11.8592 12
399 2 -6.25172 7.96297 5.44319 21
400 2 5.69633 6.08342 5.41553 16
401 2 3.80019 3.85506 -3.11039 17
402 2 -8.1694 8.16263 -7.13277 13
403 2 -6.05172 -7.04617 1.65002 13
404 2 3.9569 -6.9437 4.22847 8
405 1 -8.04856 1.61567 -1.18139 22
406 1 -2.30944 2.42712 -4.10446 19
407 1 -5.48515 1.65361 -3.09776 16
408 1 -5.0006 -1.68177 -4.45237 15
409 1 -2.74876 2.06615 -0.857022 20
410 1 -5.8376 1.44709 0.73377 21
411 1 -2.75223 -0.937794 0.613653 21
412 2 -3.48427 1.72446 -2.49013 18
413 2 -5.92309 1.93109 -1.15315 18
414 2 -3.45429 -1.5644 -1.08349 19
415 2 -6.15836 -0.827431 0.371298 19
416 2 -3.4322 0.811784 0.844763 21
417 1 -8.44104 2.09042 2.30072 20
418 1 -5.53228 -1.6527 2.07324 22
419 1 -3.03921 2.0222 2.42308 22
420 1 -5.91947 1.12191 4.03886 18
421 1 -3.71116 -0.732133 4.25371 17
422 1 -3.21121 1.84653 5.87263 19
423 1 -5.34662 1.241 7.62471 21
424 2 -6.17574 2.28935 2.26594 23
425 2 -3.5349 -1.77844 2.59798 19
426 2 -6.13047 -0.935177 3.9175 21
427 2 -3.87743 1.09619 4.17759 23
428 2 -6.04385 2.15209 5.81392 22
429 2 -3.65587 -2.11866 5.28753 20
430 2 -3.13922 0.98047 7.52591 20
431 1 -6.18042 7.23458 -2.41746 20
432 1 -3.05252 5.21501 -2.68022 23
433 1 -6.13529 4.00242 -1.03874 22
434 1 -1.91374 7.6052 -0.756054 19
435 1 -5.25226 6.87778 0.42522 18
436 1 -3.274 4.73905 0.639911 18
437 2 -8.18448 4.14366 -0.800283 19
438 2 -1.72046 4.3367 -3.90935 20
439 2 -5.29024 5.42529 -2.61885 21
440 2 -2.17114 7.0102 -2.49914 20
441 2 -4.98254 8.01733 -1.16933 19
442 2 -2.49129 4.07256 -0.926759 20
443 2 -5.37134 5.00161 0.620066 18
444 2 -2.95052 6.72165 0.598579 20
445 1 -5.55187 4.00325 2.49725 19
446 1 -2.89053 7.9175 2.17679 21
447 1 -5.14693 7.21495 3.9685 20
448 1 -3.49034 4.77837 4.21986 21
449 1 -6.11881 4.12257 5.65606 21
450 1 -2.57597 8.08712 5.89878 22
451 1 -3.5259 5.14095 7.49949 19
452 2 -8.81691 4.14323 1.85784 19
453 2 -5.51652 8.03304 2.15637 19
454 2 -2.83791 3.9832 2.66539 20
455 2 -5.54501 4.92267 4.00089 18
456 2 -3.07907 6.88966 4.10427 21
457 2 -3.04153 3.83319 5.92117 22
458 2 -5.4898 5.19436 7.17463 22
459 2 -2.16529 9.86728 2.60492 19
460 1 -0.274823 1.03441 -2.30388 19
461 1 -1.8702 -2.03043 -1.9263 17
462 1 3.05282 1.8061 -0.24394 22
463 1 -0.203325 0.721658 1.12365 21
464 1 1.85743 -1.10123 0.421402 22
465 2 -0.510606 1.47019 -4.21256 18
466 2 -0.196098 -1.09013 -2.6972 21
467 2 -0.66771 1.67508 -0.468802 20
468 2 -0.664485 -1.27227 1.14085 19
469 2 1.95704 0.647075 1.09458 20
470 1 -0.746614 -2.11954 3.06359 22
471 1 2.59667 1.73387 2.67296 22
472 1 -4.66668e-04 1.10896 4.32982 20
473 1 2.47866 -0.961252 3.85155 18
474 1 0.117173 -1.57685 5.69172 16
475 1 0.101736 1.60345 7.57267 21
476 2 -1.02246 1.85173 2.6241 19
477 2 -0.351193 -0.542296 4.11072 20
478 2 2.25793 0.75513 4.41179 18
479 2 -0.481735 2.21777 5.83317 21
480 1 0.361979 4.09664 -3.62529 22
481 1 -0.00857267 6.8837 -2.63595 20
482 1 2.37116 4.68639 -1.57858 22
483 1 -0.586918 3.82279 -0.870641 21
484 1 0.465141 6.84607 0.994384 23
485 1 1.61363 4.59106 1.33276 20
486 2 0.358747 5.10176 -2.00082 20
487 2 0.14223 7.62664 -0.880074 18
488 2 2.50594 3.64186 -0.00413229 20
489 2 -0.313641 4.47476 1.23297 22
490 2 2.26101 6.68531 1.28633 18
491 1 -0.945591 3.84122 2.95645 20
492 1 -0.960725 6.58971 4.03946 22
493 1 1.9095 5.00359 4.32841 21
494 1 -0.812506 4.06927 6.23662 21
495 2 -0.60138 7.57973 2.34924 22
496 2 2.69541 4.16346 2.87653 22
497 2 -0.0206982 4.94953 4.48925 22
498 2 2.55006 7.057 4.31539 20
499 2 -0.650844 7.6093 5.74415 18
500 2 -0.0334421 5.17268 7.75518 22
