ITEM: TIMESTEP
1000
ITEM: NUMBER OF ATOMS
2000
ITEM: BOX BOUNDS pp pp pp
-30.0 30.0
-30.0 30.0
-30.0 30.0
ITEM: ATOMS id type x y z Coordination
1 1 -10.056 5.44856 -9.64285 17
2 1 -4.26581 -9.19633 -8.01541 21
3 1 1.67507 13.01 11.9002 16
4 1 5.27267 -10.0014 4.90187 15
5 1 -11.0827 8.54736 -0.492409 19
6 1 9.46316 -6.57727 -10.1338 18
7 1 -12.7618 4.3296 -5.25569 17
8 1 -0.0286529 -2.28673 10.769 22
9 1 -8.49877 -0.566012 -10.5884 15
10 1 -14.135 -9.20176 6.11584 12
11 1 13.9304 4.32049 -8.09349 17
12 1 -4.46229 -10.8392 1.85851 24
13 1 -18.0606 -6.75615 5.84535 8
14 1 0.337363 3.99991 16.6369 13
15 1 -0.94434 5.84789 7.79851 19
16 1 -1.72293 11.6508 -8.96425 18
17 1 3.04933 5.47471 15.8801 23
18 1 -9.48051 -1.84097 -15.8937 10
19 1 -16.4179 -1.79777 12.6142 9
20 1 13.3965 4.25924 4.58319 16
21 1 -1.07006 11.4226 -12.2 16
22 1 3.93092 7.69819 -11.2899 21
23 1 14.4577 4.5423 12.1798 11
24 1 -14.6371 5.06191 -7.41671 12
25 1 -3.44207 -2.68172 -7.36159 19
26 1 -10.7988 8.38775 9.64005 18
27 1 5.41908 -13.7464 4.16831 10
28 1 0.498457 -13.1666 -9.98245 16
29 1 8.39904 -11.1128 0.723739 14
30 1 -9.19364 -12.4689 -5.53081 9
31 1 -12.6417 -5.76088 11.6801 13
32 1 0.570135 -7.34676 -9.67272 19
33 1 7.16772 -8.92182 -9.72397 21
34 1 -4.79003 4.70135 -14.9169 11
35 1 5.31905 7.57986 16.0164 20
36 1 -1.39545 -11.5308 7.08273 19
37 1 4.73166 -3.70224 11.6886 18
38 1 -14.2692 0.520297 3.53433 18
39 1 -17.1546 2.06964 7.59362 11
40 1 -10.3755 2.40831 0.0103639 23
41 1 -5.22796 13.9611 1.06625 19
42 1 -2.0858 -14.5807 -9.24247 11
43 1 0.069759 2.53269 -10.6337 19
44 1 5.00766 -2.63884 -7.40956 19
45 1 1.23548 -3.27919 16.4998 7
46 1 -13.1615 7.94758 2.11303 20
47 1 4.3715 11.6473 -7.96737 17
48 1 1.42187 16.2393 7.40309 16
49 1 -11.431 6.54375 -7.12277 22
50 1 -3.14909 16.2833 -0.0984253 13
51 1 1.82162 -11.6105 2.06717 18
52 1 7.22983 -5.47439 -2.20206 18
53 1 6.76651 -5.38953 -14.8371 10
54 1 -9.1025 8.82964 13.1586 14
55 1 -11.9026 -3.68213 -9.06141 15
56 1 7.58953 -0.573253 4.72594 22
57 1 -11.6428 10.1761 -3.72419 22
58 1 -8.9716 -9.6002 5.69748 20
59 1 -6.52904 15.939 8.7436 9
60 1 -14.2171 7.89295 -7.7934 12
61 1 -5.62457 9.8715 13.9962 16
62 1 -9.27937 -12.3065 5.53815 18
63 1 2.5023 5.68582 7.63625 18
64 1 7.2673 -12.7184 -5.01598 12
65 1 5.77473 12.9335 14.671 12
66 1 -12.9943 3.33998 -10.3554 17
67 1 -12.9395 6.47235 -10.2674 15
68 1 3.35243 9.39517 10.8939 18
69 1 12.2367 -1.18883 -9.84327 18
70 1 8.20903 -11.4856 4.0387 9
71 1 -19.2246 0.101592 5.70135 8
72 1 6.8749 18.4475 7.05891 7
73 1 4.92779 -3.80017 15.7078 9
74 1 -13.1387 -12.2033 5.84012 11
75 1 -12.3303 -0.168605 -0.4014 21
76 1 10.5442 4.84542 6.48943 22
77 1 -9.12398 13.7042 9.84373 13
78 1 5.93528 0.120139 7.68297 20
79 1 -3.36411 -5.89123 -8.68867 20
80 1 -12.6131 5.69553 10.2516 19
81 1 -9.4408 11.3387 -1.14853 19
82 1 -0.108987 6.90824 -7.83626 19
83 1 7.62207 -1.75289 -4.74247 22
84 1 9.65325 13.6855 -10.1566 6
85 1 9.47722 -2.51176 5.49243 19
86 1 3.65621 -9.96595 10.9502 9
87 1 -9.3954 14.9847 -5.64762 10
88 1 -8.93646 10.1805 7.98851 21
89 1 -10.1489 -2.78925 15.565 13
90 1 -4.38328 7.84321 4.42976 19
91 1 -6.60044 -5.30885 8.88565 17
92 1 12.3234 -5.44384 -4.98817 15
93 1 -9.74774 4.55602 8.40306 23
94 1 -11.9455 -13.0051 2.84874 16
95 1 8.9716 -4.61103 -4.7588 21
96 1 4.48579 -0.398754 -10.1478 18
97 1 -7.41832 -0.179201 -13.5539 17
98 1 -0.896555 11.7366 2.86527 25
99 1 -9.86199 8.4991 -5.50461 20
100 1 2.26886 8.97563 15.5299 20
101 1 -1.43396 12.9875 -5.66841 24
102 1 -14.4452 10.7014 2.00945 13
103 1 1.20058 10.6806 0.687841 23
104 1 -6.07888 -6.1819 4.78059 20
105 1 12.9454 2.86753 9.76387 15
106 1 -1.07674 -4.76759 -8.27695 22
107 1 0.993568 -4.41732 -10.4158 16
108 1 -3.92934 6.43596 7.17536 23
109 1 3.76241 -1.30802 17.7804 8
110 1 -11.867 -6.21029 -0.723082 17
111 1 -7.82109 -6.97308 -4.85944 22
112 1 8.56998 -8.17158 2.44046 17
113 1 -2.37103 8.6469 2.33282 22
114 1 8.51598 5.63944 -14.5551 14
115 1 5.05292 19.9458 -1.62623 5
116 1 -10.4399 -12.0036 11.3594 11
117 1 -10.9673 -13.8447 8.19261 10
118 1 4.4459 -7.62712 -14.1791 12
119 1 4.94578 4.8115 -5.46426 22
120 1 9.63121 -8.2263 -0.487462 17
121 1 -5.68177 -17.2554 6.42583 13
122 1 -13.8542 -7.48952 1.07951 17
123 1 16.2116 11.1365 9.74088 13
124 1 15.436 -1.14063 -8.1948 10
125 1 -19.4571 -2.79871 3.78915 9
126 1 10.6088 10.765 7.20482 21
127 1 16.7279 11.7914 3.94535 12
128 1 -2.22716 -1.21801 14.9888 14
129 1 -5.07724 10.4299 10.7861 20
130 1 -5.97195 12.4557 -3.16019 16
131 1 -1.66745 -6.10209 -11.6768 20
132 1 9.09666 -11.1808 -8.29198 11
133 1 -0.0772881 13.5931 -10.4899 15
134 1 6.65324 -2.46104 13.8703 14
135 1 0.682998 3.0822 -16.7246 12
136 1 -2.05983 9.38879 -3.0837 20
137 1 10.6118 2.71432 -2.78986 21
138 1 -12.9998 7.0931 -4.33139 17
139 1 -10.1357 14.277 0.261078 15
140 1 10.1221 -0.291837 -7.96315 20
141 1 5.87607 -6.35677 6.58559 22
142 1 -6.69465 3.6526 -5.24394 21
143 1 -11.0488 11.4504 10.7057 12
144 1 12.8663 11.4513 -5.89529 15
145 1 6.3252 11.905 -1.39611 21
146 1 -4.70099 15.6532 3.7243 15
147 1 11.9652 10.6778 0.106113 21
148 1 -3.84105 12.8732 -0.895817 21
149 1 0.719397 15.78 -8.29198 13
150 1 0.723922 5.10234 -13.5462 20
151 1 -14.1222 -5.00592 1.87123 18
152 1 -16.4976 8.07654 1.19961 15
153 1 -5.39128 -2.50078 -13.5854 20
154 1 1.8089 -7.23436 -12.6702 17
155 1 10.3374 13.4346 8.83536 17
156 1 -0.795778 17.9493 5.40945 12
157 1 -12.6995 -0.588083 -4.90065 19
158 1 -12.6142 11.8847 -0.872941 17
159 1 16.8725 1.98733 -0.792469 12
160 1 -11.2586 3.51368 -16.1153 7
161 1 8.70651 4.20225 20.1689 6
162 1 5.6246 17.8716 4.56895 11
163 1 1.58608 11.5095 8.71235 17
164 1 3.2219 -4.92355 -14.5065 16
165 1 -3.83686 11.6547 8.4298 17
166 1 -3.85024 11.3399 -4.98632 19
167 1 3.24035 -1.40448 12.6954 20
168 1 -13.9882 -4.2448 4.46588 19
169 1 -2.01466 -12.7364 -12.5453 14
170 1 -9.6375 11.3265 -6.48807 18
171 1 -4.53284 -8.93755 4.96917 21
172 1 3.05473 -15.926 -5.41446 10
173 1 -1.14678 10.2267 -6.41878 20
174 1 -13.7126 2.03417 10.7304 21
175 1 10.9496 10.0415 -2.98329 25
176 1 -6.26881 4.0506 15.819 18
177 1 -1.28546 -8.55553 11.3069 9
178 1 -12.5722 5.62025 -0.400732 19
179 1 -2.37868 15.8317 5.37236 16
180 1 0.843191 8.80904 7.7072 17
181 1 13.4576 7.17766 14.2009 11
182 1 -6.88011 14.0201 5.01934 16
183 1 13.3078 -3.21624 -7.76745 15
184 1 -5.58697 13.3961 10.2199 17
185 1 -5.01144 3.45594 -7.95118 23
186 1 13.5463 -5.86401 3.04854 11
187 1 -9.38683 -6.35237 4.97433 18
188 1 -17.272 1.917 4.0723 13
189 1 -11.8332 -7.65879 3.17659 14
190 1 8.1823 6.17634 14.2966 17
191 1 -13.8313 2.61243 -0.782132 17
192 1 -4.62319 -14.1782 1.47906 20
193 1 4.65484 -8.93804 -2.78428 20
194 1 -2.72298 10.3745 5.76488 20
195 1 5.00828 14.2535 11.6176 12
196 1 -8.82928 -0.29204 -5.68148 21
197 1 -7.1403 13.0943 -6.40384 13
198 1 -17.483 -2.75948 -5.12502 9
199 1 -11.1613 -3.02832 10.4886 15
200 1 -1.52678 -9.6241 4.80376 22
201 1 2.33336 -13.0512 5.63273 13
202 1 -12.8398 11.0547 5.07648 14
203 1 16.6781 5.48678 4.02103 13
204 1 6.48793 1.70822 -5.27426 21
205 1 -7.27518 -8.27775 -12.6859 11
206 1 4.33831 0.643862 10.4442 21
207 1 3.83935 -15.208 2.66793 17
208 1 -2.89735 8.87846 -11.0488 17
209 1 3.11276 -9.56284 -12.4333 13
210 1 8.39796 4.27516 -11.1678 20
211 1 1.94198 8.78168 -13.3967 16
212 1 -8.17115 -3.29018 -5.43011 20
213 1 -5.10752 15.7225 -6.19426 11
214 1 -11.603 -9.19284 10.4436 14
215 1 6.76794 17.6836 -3.42903 12
216 1 -5.87537 2.25396 18.0726 8
217 1 -9.78725 16.7827 -3.21561 8
218 1 10.7567 2.04469 8.82594 18
219 1 -5.13008 -5.19463 -13.2284 19
220 1 -3.38592 8.5232 -5.83249 18
221 1 3.09436 2.26896 -11.4876 19
222 1 -8.68868 -10.2758 8.63049 21
223 1 -8.88881 6.49212 11.0686 22
224 1 -8.1072 9.42545 10.7355 20
225 1 1.3638 -10.2404 -9.5849 20
226 1 -9.31668 -15.5373 -0.0217669 17
227 1 7.6731 -10.6395 -2.23875 18
228 1 11.3478 9.27558 13.6202 16
229 1 7.7926 13.9302 -7.08301 14
230 1 -5.31658 8.78331 -3.0686 22
231 1 -8.41362 5.13712 5.41657 21
232 1 -15.6015 10.6588 -1.09899 12
233 1 0.496722 8.17972 10.6611 19
234 1 1.96541 -16.2664 0.580436 13
235 1 9.31528 2.08579 -0.185547 20
236 1 2.83312 7.63986 5.30946 19
237 1 -12.2168 9.00471 7.21602 20
238 1 -18.8255 -4.66739 -0.822375 9
239 1 7.7877 6.76837 -11.1098 19
240 1 3.08255 -1.88651 10.2411 20
241 1 12.5732 10.8596 -9.70418 9
242 1 2.74949 -8.65354 0.16105 22
243 1 -4.227 -0.800231 -10.8311 19
244 1 -2.4555 -16.0917 7.61008 13
245 1 12.8429 -0.530432 -5.96371 24
246 1 -7.51369 -0.681617 8.16256 19
247 1 3.03654 -15.5266 -1.7509 13
248 1 -12.1989 -8.93501 -10.7781 11
249 1 4.24692 14.5541 -2.55 17
250 1 1.49007 -2.03305 -14.7466 17
251 1 5.65197 4.76762 18.2644 16
252 1 17.5483 3.48982 1.64029 11
253 1 11.517 -3.84696 -10.9393 12
254 1 -8.98234 -5.19542 -10.4968 20
255 1 -12.1311 1.01492 -11.9944 15
256 1 -7.45737 -13.0649 9.19262 15
257 1 9.4086 3.73214 11.3155 18
258 1 4.17898 -3.11153 7.73352 20
259 1 -6.69784 -10.446 -10.5417 17
260 1 0.323454 -8.36942 7.44184 19
261 1 0.30771 9.13959 -10.8132 20
262 1 4.29795 8.87326 2.19088 23
263 1 -7.88586 -5.34121 2.15561 21
264 1 0.0640098 13.9231 4.61731 22
265 1 -7.33781 -2.06621 10.4554 21
266 1 -14.0706 -6.67509 -8.7102 11
267 1 -6.09144 -6.53283 -10.2726 22
268 1 -3.23835 7.57063 -15.2396 9
269 1 -6.103 -9.945 -5.12651 18
270 1 -2.49607 -8.25061 2.35031 23
271 1 6.25639 -3.82198 -11.3522 18
272 1 15.3128 1.2598 -9.91727 10
273 1 13.7821 7.56774 4.57082 19
274 1 -9.51868 -5.98701 11.3663 18
275 1 -6.62534 -9.84354 -0.138461 19
276 1 8.09132 6.39515 17.6084 18
277 1 -9.19686 -14.2754 3.75089 21
278 1 -1.25803 -11.1844 0.96183 19
279 1 -0.595728 17.9148 -0.977643 10
280 1 8.51922 1.46153 -13.3155 20
281 1 -6.18533 -3.01908 -16.284 11
282 1 -12.8764 -7.77647 14.3346 7
283 1 3.76036 8.0829 18.4039 16
284 1 2.41535 -11.3715 -2.32396 22
285 1 -4.07066 -12.0267 -10.7541 15
286 1 -10.5718 3.08237 -7.87429 21
287 1 11.3468 7.80286 7.23956 21
288 1 -7.53031 7.48771 -6.52573 19
289 1 1.79304 6.66498 -10.517 17
290 1 6.12669 -12.5137 -10.0427 14
291 1 -6.98261 16.5199 -3.95331 10
292 1 2.20286 11.8059 3.07246 21
293 1 12.8356 2.42778 6.50054 15
294 1 -11.1373 -3.23451 5.02294 22
295 1 -3.58308 -5.88607 11.0949 15
296 1 -7.52597 7.86528 4.90621 22
297 1 3.42413 -2.62549 -11.8479 18
298 1 17.3235 12.0848 -1.22818 10
299 1 4.95217 -11.1167 0.264468 21
300 1 -2.04912 -2.93888 12.703 18
301 1 -16.5411 -4.27919 4.62081 19
302 1 -3.50515 -17.1375 -1.60234 11
303 1 -5.47705 6.93679 16.0309 10
304 1 -9.33089 3.34056 16.5047 12
305 1 -16.1177 -0.966717 9.34165 13
306 1 -14.9565 -6.06161 7.28154 16
307 1 12.0008 -3.1238 -0.891668 23
308 1 -13.1337 -6.86845 9.04225 14
309 1 10.2698 -2.61301 -6.38507 21
310 1 9.8079 -10.0396 -5.59583 12
311 1 4.59437 18.6805 -5.00318 10
312 1 -12.1211 14.7852 -2.48712 9
313 1 7.85551 8.92831 13.5292 20
314 1 -10.5766 0.593222 2.77933 21
315 1 9.17744 -7.87728 -3.6816 17
316 1 -4.42589 11.2278 2.4008 23
317 1 -6.91992 6.17818 8.10397 21
318 1 3.86604 -8.91048 7.44363 17
319 1 12.3423 -4.34387 5.45415 10
320 1 -2.34617 8.70775 8.95077 22
321 1 -6.98357 -4.421 -2.42809 20
322 1 -4.35758 -0.598312 12.6813 22
323 1 -3.21361 13.2183 4.493 19
324 1 9.27912 9.36972 16.1065 15
325 1 -9.4774 13.24 -3.39424 20
326 1 2.31469 -2.66827 -17.0004 11
327 1 6.10757 -10.334 -12.7947 12
328 1 -8.18692 1.51788 14.6102 20
329 1 -13.7286 3.14828 4.96778 18
330 1 -6.73613 -2.96065 -10.6043 20
331 1 -5.87229 8.76145 1.93801 21
332 1 9.13844 -0.720006 7.81671 21
333 1 -16.0904 -7.53214 3.72085 16
334 1 6.37026 -8.71664 8.63427 11
335 1 -9.43454 -8.73446 13.2802 11
336 1 -16.3557 8.09627 4.23044 12
337 1 1.75778 -4.67652 9.89386 23
338 1 2.18957 -12.6343 -7.32454 17
339 1 -3.47673 0.387824 -7.90208 22
340 1 10.5654 -1.48783 -12.8584 13
341 1 0.653832 16.8999 2.5549 15
342 1 -10.2045 0.939002 -3.06249 22
343 1 6.24975 -5.60067 -9.07814 19
344 1 10.9256 5.11976 -11.8968 14
345 1 -5.42379 -13.41 -4.43424 16
346 1 -15.6367 -5.93209 -5.55331 9
347 1 -3.69859 -8.99788 -0.233287 23
348 1 10.983 6.78229 15.8373 13
349 1 9.77141 6.41827 -2.52444 20
350 1 -7.25238 5.07431 -7.88511 22
351 1 6.27548 17.2984 0.72752 10
352 1 -15.9406 -0.11267 -6.07592 12
353 1 -9.57759 7.62331 6.73635 20
354 1 -7.95508 11.9838 1.85114 21
355 1 -6.0993 3.30549 7.58458 21
356 1 6.31862 4.61134 15.7261 19
357 1 9.48371 0.995115 -4.98065 23
358 1 4.78048 -0.134607 15.4305 15
359 1 11.2451 2.86217 -6.19334 21
360 1 -8.12475 -13.0158 -2.43294 13
361 1 1.39558 -8.40467 -3.00226 22
362 1 1.0594 8.3965 3.14516 23
363 1 -11.1524 1.67268 -5.80963 19
364 1 5.13656 -12.0008 -3.01759 18
365 1 12.8455 -0.279004 7.54661 10
366 1 -11.2356 -2.8035 -5.79055 18
367 1 -9.37424 -8.499 1.24374 17
368 1 -9.79622 -6.18936 14.7745 13
369 1 -1.94668 10.9248 0.139171 20
370 1 -11.6312 -9.4128 -2.45604 11
371 1 7.458 12.1998 16.7077 10
372 1 -11.0537 6.40768 -2.76014 20
373 1 0.846025 12.6227 -7.8098 20
374 1 5.68836 13.8814 5.48502 18
375 1 -14.5723 -6.8415 -2.15606 14
376 1 -1.67775 -8.49341 -8.57972 18
377 1 -14.4559 0.747653 7.34682 17
378 1 -14.8584 7.74157 -1.55991 13
379 1 3.42235 -7.1485 4.77305 20
380 1 -5.47305 -11.9356 -1.18169 19
381 1 13.2571 14.9989 8.6076 11
382 1 4.78571 11.4214 -11.8204 11
383 1 -13.9385 3.31703 -13.8216 8
384 1 -2.47026 14.9142 -8.45294 13
385 1 -9.82889 5.03571 -5.7228 24
386 1 -3.63087 -12.1015 4.72248 22
387 1 13.7482 5.60075 7.12089 18
388 1 -0.525727 10.3327 -14.5549 12
389 1 -2.94335 2.08159 10.7884 19
390 1 -15.8272 3.0292 1.77396 17
391 1 -7.29451 4.02151 10.6721 19
392 1 -6.10042 -11.3696 6.0505 21
393 1 2.93969 -5.7552 -7.90224 19
394 1 -10.6374 2.51892 5.4665 23
395 1 -13.6274 -1.7523 11.7698 20
396 1 -14.0773 7.64554 8.91578 13
397 1 -0.795703 -5.52921 7.62935 21
398 1 -9.40841 1.48082 -14.2941 16
399 1 7.9869 -7.52334 -6.98507 21
400 1 -0.872773 -9.44975 -11.8186 21
401 1 -4.26748 -3.27406 9.82835 19
402 1 -6.52148 2.99856 -12.9232 16
403 1 4.74977 -18.7361 3.50807 5
404 1 1.72353 11.1274 -5.12214 20
405 1 -14.0835 11.5288 8.69448 9
406 1 -8.27651 -4.15046 13.888 18
407 1 -12.5371 -5.36443 -11.4373 14
408 1 -9.08427 -3.87639 8.81752 18
409 1 8.86962 -3.53219 11.0766 13
410 1 1.44988 3.16806 -8.2472 17
411 1 8.05198 -8.20641 5.95791 16
412 1 15.4793 9.53919 -3.98514 15
413 1 -5.17502 -0.1172 15.6856 16
414 1 -1.26028 13.9277 -0.448659 18
415 1 7.93011 -4.09029 7.42815 18
416 1 -2.70242 -14.3357 -3.67586 19
417 1 -3.41383 2.20993 15.8992 15
418 1 -4.21301 14.4105 7.31527 17
419 1 -9.92073 -10.7112 -8.36501 13
420 1 10.1186 13.5718 0.991903 15
421 1 3.71622 9.09239 8.35538 18
422 1 -8.48331 4.4395 13.4487 19
423 1 -6.03683 -7.80501 -2.64147 20
424 1 -10.6246 3.32663 11.0798 19
425 1 -10.1454 -6.42901 -7.00618 21
426 1 -5.99451 9.10351 7.64369 22
427 1 -1.47118 -9.27812 -5.44662 15
428 1 -3.40004 -7.93037 -14.4771 14
429 1 -7.14069 -15.7629 2.06848 19
430 1 -8.59017 -3.61624 5.15942 20
431 1 9.32755 2.16187 5.14508 22
432 1 -5.23915 -4.03302 12.4959 18
433 1 -7.51476 7.44756 -9.91243 16
434 1 8.04128 4.91562 -0.375066 20
435 1 -7.77858 -12.5209 1.66717 21
436 1 1.911 16.0356 -0.761521 16
437 1 -0.864794 5.91632 -11.0365 19
438 1 -2.54277 6.23433 10.7744 20
439 1 -15.6101 -1.53997 -3.33491 16
440 1 1.52236 17.0733 -3.60727 15
441 1 7.66981 11.3756 -6.93536 16
442 1 -7.29588 -5.1747 -7.94585 23
443 1 4.62823 2.22272 17.5773 13
444 1 0.222596 -15.0145 -7.09897 13
445 1 -1.04733 -1.80494 -9.94135 21
446 1 7.30163 -14.1328 1.66766 12
447 1 -11.275 10.7409 1.83408 21
448 1 4.88493 8.47246 12.9697 21
449 1 10.2619 7.88642 0.517457 23
450 1 4.08184 10.3899 -0.378639 18
451 1 -10.5937 8.58986 -8.70988 18
452 1 6.68388 1.81593 -10.4159 21
453 1 0.39592 -8.61545 2.15392 24
454 1 -14.4587 -2.87545 -0.532334 17
455 1 2.52988 17.7808 5.10902 12
456 1 -5.10739 5.09706 -10.4284 15
457 1 12.6103 7.33112 -1.50498 20
458 1 6.93536 17.5891 -6.89168 8
459 1 8.43185 -5.54078 4.02558 22
460 1 14.7525 6.58423 -4.25476 17
461 1 -1.67024 0.57332 -12.1199 18
462 1 0.333843 -12.9478 -0.936747 22
463 1 -1.8211 -13.5504 9.16643 12
464 1 1.16454 -7.30089 10.2748 18
465 1 -8.08374 1.6431 -7.62445 20
466 1 -12.0431 -11.2927 8.89619 13
467 1 -1.42813 -11.2537 -9.59099 17
468 1 8.29053 15.4782 6.45245 15
469 1 -3.28091 6.77275 -8.56652 17
470 1 4.2122 1.20682 13.4193 19
471 1 -14.0926 4.51133 12.8553 11
472 1 -4.34173 -17.0565 1.93274 16
473 1 -13.3377 -2.17207 1.81711 17
474 1 12.1381 0.115628 -2.46145 21
475 1 9.37637 -0.445886 -1.7937 22
476 1 -8.2732 9.68237 -3.19437 22
477 1 0.877819 -6.35036 -6.09381 23
478 1 3.8167 6.23427 -7.93454 17
479 1 10.8926 -2.52929 -3.53914 22
480 1 -7.43734 -1.06433 16.7835 13
481 1 9.84634 12.8411 -1.62661 21
482 1 -3.31854 -1.61667 -15.8192 13
483 1 6.16933 5.11208 -16.5607 10
484 1 -6.11101 -2.90103 6.8614 21
485 1 -7.47944 16.3697 -0.574611 9
486 1 -8.37384 -3.65452 -13.3937 19
487 1 -16.7743 -0.379375 1.8602 16
488 1 -1.68663 -10.1831 -14.7845 11
489 1 -7.31114 -10.5764 11.3243 12
490 1 0.0878624 8.1371 -5.01207 21
491 1 15.0 6.07697 9.5693 13
492 1 17.4823 8.79 -1.76791 11
493 1 -12.162 -9.76724 0.884161 17
494 1 -0.705176 -9.53476 -0.95367 21
495 1 -0.903473 -3.20539 -16.1494 14
496 1 -8.05098 11.9925 12.3061 13
497 1 1.4354 -2.64508 -7.89299 19
498 1 11.5795 -0.0535052 0.674752 22
499 1 3.66596 16.3334 -5.85553 11
500 1 5.658 -5.65813 2.81319 22
501 1 14.4068 7.51056 -7.22724 16
502 1 0.723737 11.6784 15.8456 11
503 1 -11.0461 -2.00027 7.54344 19
504 1 7.09194 10.3981 8.2342 18
505 1 7.18408 1.69766 15.9383 13
506 1 5.64324 3.19485 -13.3219 22
507 1 -4.8283 -7.3383 -5.87093 21
508 1 0.958277 1.02828 10.8756 20
509 1 8.51272 12.9434 6.62402 18
510 1 6.79128 8.16413 -6.0252 20
511 1 -6.26817 10.288 -5.85489 19
512 1 1.44787 12.9517 -1.7766 20
513 1 10.332 -0.687055 12.1008 13
514 1 13.42 3.82786 -11.2909 12
515 1 12.2308 -8.65666 -3.11794 11
516 1 11.1013 12.4586 11.376 13
517 1 -19.1886 -5.71867 3.0768 11
518 1 -7.97605 10.2177 -9.32638 14
519 1 -0.709274 3.48749 10.8167 23
520 1 -15.471 0.887466 12.045 14
521 1 -4.42299 12.201 -7.8508 16
522 1 2.4266 -13.115 -3.99951 18
523 1 7.03899 -0.313539 -7.75058 20
524 1 -3.65093 15.2716 -3.46864 16
525 1 -10.2268 -6.89459 -12.6588 11
526 1 -1.92925 -13.7577 1.95417 19
527 1 -17.9225 -1.08589 -1.64757 11
528 1 1.72258 12.0755 -13.2866 9
529 1 -2.65701 11.1667 15.4068 13
530 1 -15.4554 -4.03423 9.98266 12
531 1 6.81705 7.84034 -0.228006 20
532 1 1.92076 -9.10239 -6.5269 18
533 1 3.21078 -6.34284 12.4168 13
534 1 -10.6669 6.19538 1.95711 21
535 1 5.8765 6.85306 20.0181 11
536 1 5.09088 12.6817 -4.79078 14
537 1 10.0641 -5.39709 -1.90625 22
538 1 4.68848 12.4676 7.79613 17
539 1 2.10931 6.3318 -15.8233 11
540 1 -4.11981 -10.4849 9.02653 17
541 1 -0.354756 0.330178 -8.20142 23
542 1 8.37693 2.532 -15.9485 11
543 1 2.69922 13.4345 6.26815 20
544 1 10.4404 4.72049 -8.86071 23
545 1 -1.82884 -2.62805 -12.973 19
546 1 -3.81565 -10.8338 -3.37414 18
547 1 -11.5023 -3.94585 -13.8012 11
548 1 11.513 4.86628 -0.375963 20
549 1 15.1629 4.8229 -0.126062 12
550 1 7.36092 -4.32665 -6.65815 17
551 1 13.3935 10.3011 12.1703 12
552 1 6.48683 -9.49715 -5.31994 18
553 1 4.43912 6.05712 -14.3446 14
554 1 8.68058 13.3986 3.66029 17
555 1 -8.78716 3.25433 2.7461 24
556 1 9.0764 12.0272 13.7787 15
557 1 13.1185 9.11704 -4.5455 21
558 1 10.9712 2.82836 2.2875 21
559 1 11.6187 6.16208 -6.474 20
560 1 4.61183 4.63938 12.9978 19
561 1 14.222 8.69314 8.23973 21
562 1 4.59381 -7.32639 10.197 19
563 1 15.1119 14.7578 -1.5857 8
564 1 1.16725 -0.287815 14.8747 14
565 1 15.2186 1.99886 -6.82744 16
566 1 8.75785 4.70148 9.10671 19
567 1 -6.11381 -1.45539 -7.69991 18
568 1 13.399 8.03385 0.941488 19
569 1 11.881 -2.75413 2.79694 21
570 1 -8.75928 6.26449 15.4468 15
571 1 8.7924 10.5582 10.7206 22
572 1 9.34258 7.30117 11.5051 20
573 1 4.44374 10.6145 5.37795 20
574 1 -2.56401 9.82373 11.7558 18
575 1 7.60619 1.98607 7.36269 21
576 1 -2.29719 -17.887 4.29716 11
577 1 -7.32075 13.3523 -0.971127 18
578 1 10.231 13.415 -4.94722 16
579 1 6.47497 -1.0874 -12.4558 20
580 1 -1.05693 15.3933 -2.93286 20
581 1 -2.55695 -13.2316 -6.47241 11
582 1 8.75408 -4.17528 -12.7265 19
583 1 -12.3935 3.24211 8.0331 20
584 1 -5.21355 9.69905 -9.09111 17
585 1 -5.79128 -18.8587 4.01705 9
586 1 -6.26241 2.34834 -9.57322 21
587 1 -14.6449 1.87941 -4.09786 15
588 1 10.967 -6.92584 4.56584 14
589 1 14.1168 10.3759 2.47628 22
590 1 -0.779572 -5.28122 11.1858 15
591 1 -13.6869 -1.47355 -8.1665 12
592 1 3.3922 0.888599 -17.2278 11
593 1 -0.603123 2.88065 13.9074 18
594 1 7.39784 9.34417 -11.1558 15
595 1 12.6733 1.62432 12.782 11
596 1 6.96707 5.60904 -7.69228 20
597 1 13.0232 13.2763 2.91531 13
598 1 4.15299 -14.267 -8.5475 13
599 1 -13.7017 -1.10267 14.8788 13
600 1 13.7851 0.520925 2.79477 16
601 1 -0.92305 13.7082 13.6856 9
602 1 6.79539 11.9058 -9.52746 17
603 1 -15.1305 9.57216 -4.47318 11
604 1 11.1141 11.7718 3.8871 18
605 1 -12.6685 -15.5554 0.714462 6
606 1 14.7378 -2.39844 1.56949 14
607 1 7.95462 16.225 3.14509 10
608 1 -3.77056 4.71353 13.4625 23
609 1 -11.2519 -4.91519 2.5538 21
610 1 -8.86774 -3.01648 -8.26697 18
611 1 6.71555 5.99525 11.9521 20
612 1 -4.21168 -9.41304 11.5565 11
613 1 6.47917 7.96212 10.248 21
614 1 -6.50981 10.415 -0.166747 23
615 1 8.83052 7.87174 4.97549 18
616 1 7.70457 4.64151 5.20852 20
617 1 2.94661 3.03208 -14.6798 18
618 1 -9.88143 1.18704 8.28023 20
619 1 11.2488 2.8712 -13.8993 10
620 1 10.6102 -8.77277 -8.45133 11
621 1 8.95677 7.67511 8.74627 21
622 1 6.03077 5.80889 7.83124 18
623 1 -10.7145 0.216579 15.5177 13
624 1 15.1463 8.26562 11.4441 12
625 1 -1.02874 0.31354 12.7066 17
626 1 -0.592786 5.95275 13.3006 18
627 1 0.19803 -4.0306 -12.8631 20
628 1 -5.89439 1.97251 13.2948 21
629 1 5.8543 3.54305 9.93557 23
630 1 -7.68347 -14.9114 7.18615 18
631 1 14.2864 10.0469 -1.25383 19
632 1 3.82664 -10.4776 -5.31672 21
633 1 4.72269 9.86026 -3.63627 16
634 1 12.3832 13.146 6.38559 14
635 1 5.74149 0.977408 -15.2027 14
636 1 3.78823 13.5993 0.564132 20
637 1 16.6169 9.59865 1.11384 17
638 1 -10.2666 -12.1389 -0.277411 14
639 1 0.397216 0.0857832 -16.9064 14
640 1 -9.01588 9.03325 1.57641 22
641 1 8.42404 -3.5622 -9.46396 21
642 1 11.5092 9.48496 -7.24296 17
643 1 9.70063 15.8069 -1.80812 14
644 1 -7.43191 5.86468 1.89345 21
645 1 5.85133 6.82003 -3.39809 17
646 1 12.6064 3.93077 14.8928 10
647 1 9.81382 2.13695 14.0962 13
648 1 -1.34564 -10.102 9.07603 16
649 1 -5.77901 9.86755 -12.1549 13
650 1 2.96887 14.6115 9.44972 16
651 1 7.73793 -7.18717 -12.4082 15
652 1 2.45535 3.62731 10.8048 20
653 1 8.71558 16.325 -4.77295 13
654 1 5.6142 11.9855 2.43182 19
655 1 13.4556 -5.2441 -2.61623 14
656 1 6.34641 9.89317 18.2827 11
657 1 -12.1957 -0.0756657 5.36879 19
658 1 3.20469 -13.377 -0.327284 19
659 1 1.62902 -0.223825 -10.721 20
660 1 -9.24207 11.207 4.35518 19
661 1 3.26888 15.0533 3.4011 20
662 1 -17.3966 -3.19878 1.12201 18
663 1 -2.42568 5.48107 16.2227 15
664 1 -6.60858 7.05227 -14.6077 9
665 1 -9.71558 7.46626 -12.2778 12
666 1 -0.553394 -15.6321 -1.08294 15
667 1 9.5018 8.20893 -5.21459 20
668 1 -12.1477 5.43609 14.7572 9
669 1 3.64593 0.200329 -13.4007 23
670 1 1.33719 -12.2174 9.10389 12
671 1 0.77479 13.8776 1.23849 20
672 1 -5.05648 -3.31441 15.3153 12
673 1 -8.89284 -8.24826 -9.88263 18
674 1 -4.92296 -10.7098 -13.6187 11
675 1 -6.34317 -11.8931 -7.74648 13
676 1 -1.23333 16.5831 -5.5766 12
677 1 5.48958 -4.36976 -4.44146 20
678 1 -2.05635 12.8207 10.5775 16
679 1 3.91996 -7.31491 -5.20222 18
680 1 5.45485 -16.2771 0.507964 11
681 1 2.49704 -5.79312 7.54143 24
682 1 16.7523 3.82794 -4.97892 9
683 1 -0.245943 -15.678 -4.14773 14
684 1 -14.0442 -2.79003 6.99992 17
685 1 -7.2856 -18.2983 0.207696 8
686 1 -8.47033 -10.2208 -2.81903 17
687 1 -11.4262 0.549818 11.3529 15
688 1 -10.3546 -18.1779 0.999146 11
689 1 17.3809 7.30558 -5.1062 8
690 1 -2.33474 17.8393 2.23084 13
691 1 -15.5249 9.78397 7.07554 11
692 1 9.18182 0.145917 2.34451 22
693 1 -13.3468 -2.12014 -11.6322 13
694 1 -1.06892 12.065 -3.00136 21
695 1 12.7779 1.31971 -8.75563 20
696 1 7.22234 13.2122 9.52158 17
697 1 8.70298 4.74324 -5.34878 23
698 1 -13.3452 1.78014 -7.39453 18
699 1 -12.8803 -3.63292 -3.18409 18
700 1 0.570782 6.93806 17.3766 13
701 1 8.4955 8.62073 -8.29567 21
702 1 15.8175 13.0072 7.12823 15
703 1 -2.35701 -0.469367 9.9308 20
704 1 -5.67357 -15.0137 -1.46305 18
705 1 -8.60386 -17.3877 4.30931 14
706 1 -4.14823 -5.46093 7.38368 18
707 1 13.4501 11.9869 9.0141 22
708 1 4.54621 -8.50918 -8.16628 20
709 1 -7.28883 7.84803 -0.893434 19
710 1 7.77714 8.96846 2.30314 18
711 1 -9.54887 -2.29541 2.43512 20
712 1 10.3629 7.93297 -9.68734 18
713 1 -4.9593 -16.568 -4.74602 9
714 1 0.105126 -15.9778 3.80672 16
715 1 -2.88161 -15.0062 4.65557 21
716 1 4.90503 2.85778 -7.79719 20
717 1 7.0656 14.6475 -2.10208 17
718 1 -4.28091 1.01581 -13.8187 17
719 1 1.8954 3.16225 13.7463 18
720 1 -0.536178 7.473 -13.7472 18
721 1 -10.1626 -1.21428 -12.7752 19
722 1 -10.5836 -4.91395 -3.65569 20
723 1 1.53861 14.6885 -5.40317 19
724 1 -3.20936 -4.94141 -15.8669 13
725 1 -8.91905 -7.16358 -1.97027 18
726 1 10.178 12.1969 -8.0066 16
727 1 11.1063 -5.65935 1.37674 21
728 1 -4.6586 4.86446 10.1823 20
729 1 4.02344 -8.33219 2.55073 19
730 1 14.4143 -4.94132 0.362035 14
731 1 12.2946 -1.52023 10.5707 9
732 1 1.07613 10.4857 5.10094 22
733 1 -12.2383 2.00802 14.0868 17
734 1 -11.4336 7.57241 13.0689 11
735 1 -5.06346 -15.7874 9.26953 11
736 1 9.63068 5.4624 2.86374 18
737 1 3.57978 11.3554 13.684 17
738 1 -15.85 1.03126 -0.662007 14
739 1 8.07721 -5.3973 1.05038 20
740 1 -14.206 12.2652 -4.04369 10
741 1 -4.34818 -13.2796 7.54723 20
742 1 7.15123 1.39134 13.0705 19
743 1 -1.12311 11.8393 7.19544 18
744 1 -0.301337 -12.4702 4.20657 18
745 1 -9.99816 -1.82425 -3.02989 20
746 1 3.90537 6.29243 10.4656 24
747 1 -16.3947 -4.22967 -3.03749 16
748 1 -1.02945 8.34185 15.2508 16
749 1 6.46072 14.3577 1.1346 16
750 1 -14.5668 -10.4845 3.04103 12
751 1 -5.89833 -14.7841 4.6719 19
752 1 6.6332 -5.35434 12.6517 13
753 1 9.79117 -6.29871 7.03042 14
754 1 7.44636 10.6699 5.12211 20
755 1 -2.43342 -5.65117 -5.46662 22
756 1 -3.45583 2.29702 -10.8027 20
757 1 -6.98776 -1.42088 13.6588 21
758 1 -2.40985 14.3589 2.07972 26
759 1 12.9633 5.66512 2.0747 17
760 1 3.45026 8.10614 -5.80338 17
761 1 -3.40379 7.9478 13.5547 21
762 1 6.12021 11.3385 11.7321 21
763 1 8.4116 -0.837706 -10.8552 20
764 1 -9.75801 -10.9359 3.08081 19
765 1 15.9714 2.03797 4.34995 10
766 1 3.28362 0.08126 -7.88191 23
767 1 2.03589 6.2124 12.8953 21
768 1 5.80079 -11.7815 -7.38761 21
769 1 6.31763 7.90978 -13.7778 11
770 1 -2.36618 -8.02448 -2.90735 23
771 1 13.2062 7.07238 -10.2839 12
772 1 14.853 -1.40597 -0.873897 18
773 1 1.37807 -4.17762 13.0127 14
774 1 -3.91005 -8.8132 -11.0505 21
775 1 8.59868 10.8196 0.823132 21
776 1 -14.6972 4.92399 7.55915 15
777 1 11.7039 5.06888 -4.04678 19
778 1 16.743 8.423 4.27536 15
779 1 4.62014 -6.96085 -10.7923 18
780 1 -6.93262 12.4642 7.53014 17
781 1 16.1315 14.4249 10.3222 8
782 1 11.9564 14.9533 -3.51949 12
783 1 5.15504 4.79402 -10.1875 17
784 1 9.42113 -2.49468 1.32824 21
785 1 -12.3274 3.23507 2.04449 21
786 1 11.1047 8.56651 3.36052 22
787 1 -16.6008 -5.88481 0.15308 17
788 1 -12.7212 10.0874 -6.43039 17
789 1 4.14611 3.08506 7.81053 23
790 1 -11.5846 -0.372261 -9.39977 20
791 1 -11.6815 5.14212 5.34268 21
792 1 -4.82637 5.5397 -5.75048 21
793 1 10.3264 -5.4518 -7.23555 14
794 1 -12.7307 -6.14931 -5.46809 14
795 1 12.8349 -7.51404 -0.488432 13
796 1 -14.6996 5.60329 2.72788 21
797 1 -10.4435 -8.90835 -5.46761 17
798 1 16.3171 9.80809 6.82405 16
799 1 -6.70043 -10.1437 3.29923 19
800 1 9.87223 3.96052 16.6929 15
801 1 10.605 -3.30407 8.95931 11
802 1 11.249 -0.215172 4.3683 17
803 1 -13.905 7.7683 5.66083 19
804 1 0.0971938 14.3068 9.8525 12
805 1 5.69889 8.80281 -8.67814 20
806 1 -0.00152302 -6.63574 -15.5659 9
807 1 -6.36253 10.6871 5.01263 20
808 1 -11.1519 -8.67009 7.0685 17
809 1 8.45719 8.84644 -2.07675 17
810 1 0.722584 9.91788 13.3935 19
811 1 15.1507 0.426764 -3.86816 14
812 1 5.80132 -5.03089 9.16224 18
813 1 -5.62792 12.9343 -10.8669 9
814 1 1.31589 9.78131 -8.22419 20
815 1 -5.65125 1.12599 10.2716 21
816 1 17.0894 6.44295 6.77862 11
817 1 -3.49317 -3.82433 -10.7172 20
818 1 15.6034 12.9681 1.37676 13
819 1 -16.0493 4.88962 -0.347699 13
820 1 -6.10916 -8.30009 7.96887 20
821 1 3.12292 12.9703 -9.69116 14
822 1 6.21846 -0.743476 11.333 18
823 1 -2.98089 -13.1436 -0.855187 18
824 1 -7.71688 16.2787 2.25236 8
825 1 -17.8121 5.20468 2.70087 9
826 1 14.232 -2.34588 -4.35038 15
827 1 0.938249 -11.412 -12.8902 10
828 1 -11.0609 8.52937 4.02662 20
829 1 13.0253 12.531 -3.093 19
830 1 -9.14117 -0.533262 5.29991 24
831 1 8.41074 -1.75459 -15.0485 13
832 1 -7.36229 -8.28396 -7.5799 20
833 1 -1.0588 -11.5663 -2.82439 17
834 1 -4.61424 12.6152 13.3706 15
835 1 7.39054 -13.7475 -1.59071 10
836 1 -3.8809 11.6489 -13.286 9
837 1 13.64 2.78871 -4.72769 18
838 1 6.09541 5.94008 2.29916 23
839 1 -1.26006 -17.902 1.20484 12
840 1 4.8378 -2.42073 -14.9951 16
841 1 13.5691 2.11049 -0.60246 14
842 1 -1.70567 3.97439 -13.04 18
843 1 -2.83799 -8.30555 7.4782 20
844 1 8.26512 11.0934 -3.81737 20
845 1 8.5245 2.61892 -7.81065 22
846 1 -9.12037 3.73247 -2.89284 21
847 1 -15.6747 4.17538 10.2914 10
848 1 2.87581 5.15867 19.0597 13
849 1 -8.88653 -7.13545 8.20359 18
850 1 5.9418 7.54309 4.47006 19
851 1 0.456434 -14.6026 6.90566 15
852 1 0.859178 9.51603 -2.00671 19
853 1 -5.04105 7.52391 10.7321 21
854 1 -8.39331 1.14499 11.2675 23
855 1 -10.9135 12.1815 7.36422 14
856 1 7.84481 3.47405 -3.15963 19
857 1 -7.04201 -7.06216 12.7789 12
858 1 1.95058 -9.46137 4.68466 20
859 1 11.7675 8.86143 10.038 21
860 1 7.47138 -2.61474 -2.14442 22
861 1 4.02246 -10.8393 -9.63353 18
862 1 -9.55274 2.38413 -11.1647 20
863 1 -2.17604 1.95645 -15.2312 13
864 1 7.68488 15.8343 9.3562 11
865 1 -12.4284 -4.45138 14.4468 11
866 1 -7.29734 6.3078 -3.78467 23
867 1 -11.961 3.50352 -2.7785 21
868 1 12.7341 14.4932 -0.322889 15
869 1 -11.1426 -16.6504 3.45313 10
870 1 -1.10537 8.14505 5.45519 24
871 1 14.1979 10.7514 5.76995 22
872 1 -12.2894 -9.10579 -7.75242 12
873 1 5.02232 16.5344 7.15549 15
874 1 -9.7952 -1.27881 12.658 20
875 1 -2.72515 -16.1766 -6.25456 13