ITEM: TIMESTEP
5000
ITEM: NUMBER OF ATOMS
2000
ITEM: BOX BOUNDS pp pp pp
-30.0 30.0
-30.0 30.0
-30.0 30.0
ITEM: ATOMS id type x y z Coordination
1 1 -7.00535 5.50378 -15.0 13
2 1 -4.05645 -9.80677 -8.24301 16
3 1 2.60572 11.9956 14.1646 12
4 1 6.35769 -12.1492 7.96253 13
5 1 -10.6734 8.067 -1.87747 17
6 1 11.0728 -8.49201 -10.2559 16
7 1 -13.5787 2.70494 -7.38108 19
8 1 -2.20108 -8.5834 10.7332 20
9 1 -10.112 -0.845117 -12.2181 20
10 1 -15.0195 -8.22009 7.16143 13
11 1 15.2743 4.60537 -9.13236 10
12 1 -4.99775 2.99769 -3.46639 21
13 1 -2.02195 -9.6799 -0.150098 19
14 1 -14.5491 -8.87456 3.7052 13
15 1 0.944949 1.50267 17.9191 11
16 1 4.90766 -0.774616 4.79912 19
17 1 -1.94865 3.06766 10.734 19
18 1 7.87939 -1.24636 0.147769 22
19 1 -1.8684 11.465 -11.1727 18
20 1 4.28849 -0.683255 13.4795 18
21 1 -10.4437 0.741442 -14.8882 15
22 1 -13.6693 -3.40303 10.1112 15
23 1 15.0603 0.912195 4.82471 15
24 1 0.691999 10.6505 -11.3754 16
25 1 4.12299 3.65807 -13.3093 22
26 1 14.7132 0.93929 9.7953 12
27 1 -6.83094 1.36088 -1.37697 17
28 1 -14.6991 5.67267 -8.70675 11
29 1 -5.18803 -2.09954 -8.35871 17
30 1 -11.3242 9.11685 9.55614 17
31 1 3.86222 -14.2991 7.65219 12
32 1 0.379602 -1.59974 7.31376 19
33 1 1.12973 -12.1292 -10.4437 22
34 1 8.45777 -11.0261 1.27745 14
35 1 -3.57708 -15.9574 -5.08429 13
36 1 -12.5504 -10.0197 10.5701 15
37 1 4.8179 -3.08523 -3.32304 22
38 1 1.72611 -7.33573 -12.4776 21
39 1 11.5121 -8.46894 -13.6587 12
40 1 -0.285976 4.44824 -16.7742 14
41 1 -0.445872 4.24483 13.6291 18
42 1 -3.20456 -9.91075 5.00489 19
43 1 3.2214 -5.29429 9.47299 18
44 1 -11.7837 -0.0601717 3.36672 16
45 1 -18.3273 -0.366075 7.4386 9
46 1 -10.1228 0.827272 -4.26682 17
47 1 -6.16175 14.8631 -3.14532 12
48 1 0.881564 -15.0006 -9.3608 11
49 1 3.03961 4.84361 -10.5691 19
50 1 6.3597 -6.09869 -11.6218 19
51 1 -2.80068 -5.92947 13.6506 14
52 1 -14.6057 6.35693 -0.30359 14
53 1 4.03697 13.0761 -13.3994 11
54 1 1.85305 12.9141 9.0283 16
55 1 -8.48288 7.0557 -6.45304 20
56 1 0.416647 13.0712 -1.91775 20
57 1 3.93049 -13.4544 2.25871 15
58 1 10.1836 -7.25986 -4.48539 18
59 1 6.62346 -7.52618 -15.7522 13
60 1 -10.418 8.26885 12.5823 16
61 1 -12.8056 -4.00364 -8.06846 13
62 1 5.85818 1.7584 5.94054 19
63 1 -9.86123 5.62046 -3.58411 23
64 1 -7.02242 -9.64514 7.36979 22
65 1 -2.41817 13.2034 11.9016 11
66 1 -14.3969 8.08639 -6.16901 16
67 1 -7.4969 9.63528 12.753 14
68 1 0.0880456 7.94641 -5.25036 20
69 1 1.86706 4.98313 9.69502 17
70 1 -5.28758 -16.5171 11.3736 7
71 1 2.55303 7.66771 9.17494 21
72 1 10.2934 -15.2735 -1.89621 9
73 1 3.68507 9.86516 16.1591 15
74 1 -12.1076 1.2608 -10.0563 19
75 1 -11.9277 6.60398 -11.1995 10
76 1 4.67477 6.05141 11.5403 23
77 1 13.2706 -2.47696 -10.8679 12
78 1 8.01545 -11.8557 5.40709 14
79 1 -17.9583 -1.44762 4.67069 12
80 1 -7.28894 -2.98742 -1.68075 16
81 1 6.3824 14.51 6.87847 13
82 1 5.65413 -4.37922 12.0921 19
83 1 -5.98473 -10.9842 5.05832 18
84 1 -15.9574 -1.65745 -0.484977 13
85 1 11.4682 0.519828 5.88775 18
86 1 6.49512 -0.660594 -3.30024 21
87 1 -3.09137 10.2974 10.6015 17
88 1 3.84875 0.727286 10.3618 19
89 1 -7.92342 -3.6368 1.72494 14
90 1 -4.23597 -6.58 -8.37379 19
91 1 -13.6881 7.38801 10.4575 11
92 1 -7.13628 9.81885 -1.16734 17
93 1 -3.32001 5.95141 -10.5706 18
94 1 4.92693 -1.25286 -6.37211 20
95 1 6.69244 0.0898408 -8.93293 19
96 1 8.89165 13.7226 -6.7955 13
97 1 7.48376 -5.00117 1.00867 18
98 1 4.08065 -9.51338 9.99501 15
99 1 -7.19664 16.5371 -5.45806 8
100 1 -11.9399 13.3303 5.13915 7
101 1 -10.9466 -5.43429 16.3859 7
102 1 -4.57191 8.33987 6.7812 13
103 1 -8.94472 -6.11924 10.7753 18
104 1 13.6957 -7.95744 -7.74704 11
105 1 -11.5471 2.41245 5.32215 22
106 1 -11.2288 -14.5186 3.93046 8
107 1 11.715 -10.3917 -3.12197 17
108 1 5.64407 0.494725 -12.2273 23
109 1 -9.40113 -2.18425 -14.8866 12
110 1 3.25949 -0.433879 7.78113 25
111 1 0.197247 11.9618 2.51738 17
112 1 -9.79908 6.02464 -9.13688 19
113 1 0.835376 8.34659 19.3493 10
114 1 0.124161 14.7615 -4.4899 17
115 1 -12.4612 11.2675 0.267389 17
116 1 0.797892 7.60497 0.179227 19
117 1 -6.96244 -7.75129 9.01243 20
118 1 13.3222 -4.6196 7.69778 12
119 1 0.0165122 -5.50558 -10.3823 19
120 1 5.09346 -6.62287 -8.79053 20
121 1 -5.15173 4.00697 10.319 19
122 1 4.02038 -3.0345 14.7949 12
123 1 -9.60663 -5.8674 -1.8904 15
124 1 5.94217 -4.53129 3.94066 21
125 1 -9.64856 -9.79213 -2.71646 18
126 1 10.7845 -10.4688 3.99086 11
127 1 -4.89152 8.9064 2.3251 15
128 1 7.98271 3.18213 -17.1765 11
129 1 5.76976 15.7552 -1.94394 15
130 1 -9.38428 -14.3828 13.3021 12
131 1 -10.5577 -14.6196 10.353 11
132 1 -3.14767 6.09463 1.99921 20
133 1 5.30191 -10.6592 -14.4689 11
134 1 3.68643 5.81115 -7.9829 15
135 1 11.7479 -8.61405 -0.296188 18
136 1 -2.94897 -15.2945 5.59492 17
137 1 -11.4717 -6.85454 3.43282 18
138 1 15.4528 6.43024 7.37778 10
139 1 12.4793 -2.72259 -7.3101 19
140 1 -17.1142 -4.25703 2.59222 15
141 1 10.1506 7.78996 5.39369 16
142 1 12.7785 8.86548 3.4664 20
143 1 -6.8855 1.37862 15.138 18
144 1 8.44133 2.19555 1.59311 20
145 1 -6.0966 10.4282 9.70322 20
146 1 -3.30015 10.5798 -7.60252 24
147 1 -3.14619 -6.82584 -11.2447 18
148 1 9.34773 -10.8932 -11.3553 14
149 1 -0.695121 13.8641 -11.8284 12
150 1 5.98087 -1.60654 7.87875 18
151 1 1.39068 -4.02509 -16.1866 19
152 1 -2.03614 7.71834 -7.18017 20
153 1 10.2487 2.02918 -6.15603 21
154 1 -11.0721 8.5325 -4.95359 19
155 1 -8.71015 14.8894 -0.00920421 13
156 1 7.5156 3.21659 -9.01384 17
157 1 9.48384 -10.397 7.29278 10
158 1 -5.30477 3.94768 -12.4638 22
159 1 -7.88517 14.0197 9.1651 12
160 1 12.7279 6.05631 -7.22118 16
161 1 6.09931 12.2295 -4.62965 19
162 1 -3.55509 15.0225 1.69916 17
163 1 9.99485 8.67998 -2.27843 19
164 1 -2.70998 8.63081 -4.32845 18
165 1 0.227963 16.0659 -9.38703 12
166 1 4.57358 10.0908 -14.798 13
167 1 -14.2852 -10.9235 7.81821 12
168 1 -15.3886 9.08017 -0.537505 11
169 1 -7.04214 -2.80392 -13.6556 20
170 1 2.6813 -12.0839 -15.3487 9
171 1 11.0941 15.0029 9.54635 6
172 1 0.224559 15.6484 6.10571 12
173 1 -12.4184 -1.05398 -3.2641 17
174 1 -11.5622 13.1851 -1.56507 12
175 1 18.0574 -2.04132 -2.92704 7
176 1 -9.66199 3.52239 -14.5641 14
177 1 9.40749 1.12423 12.5105 25
178 1 5.46183 16.9594 3.63175 12
179 1 -0.907575 8.58556 10.3364 18
180 1 2.39077 -8.8993 -15.2003 13
181 1 -4.20237 13.2059 9.01119 16
182 1 -4.65643 11.881 -5.33571 20
183 1 2.66288 -3.9966 12.0976 19
184 1 -11.8436 -5.39991 6.22859 21
185 1 -2.10633 -13.5499 -11.4547 14
186 1 -9.47259 12.0698 -7.90402 13
187 1 -2.54402 -7.93063 2.73838 20
188 1 3.26945 -14.9393 -3.57016 15
189 1 -3.86623 12.0125 -13.8416 11
190 1 -16.4384 1.53234 8.93704 13
191 1 -0.371251 5.33301 -3.3397 22
192 1 9.9939 8.59376 -6.07189 18
193 1 -8.41565 4.18027 16.25 14
194 1 -2.08902 -11.3674 8.87598 16
195 1 -7.9738 3.48314 1.11527 18
196 1 2.27376 15.763 3.89546 14
197 1 -0.42028 5.90754 10.5438 20
198 1 14.3801 2.93735 12.3938 10
199 1 -5.54051 13.2487 2.91787 18
200 1 14.015 -4.85977 -9.22228 10
201 1 -5.91821 12.8108 11.4652 12
202 1 -3.8165 0.379629 -8.0608 22
203 1 13.5444 -4.58749 2.28143 14
204 1 -6.76468 -5.1472 3.76501 22
205 1 -17.1027 1.38502 4.4171 10
206 1 -9.40854 -9.90557 4.40004 20
207 1 5.73604 4.34491 14.0811 21
208 1 -12.7518 1.6984 -1.91818 19
209 1 -3.64691 -17.4905 0.0226859 11
210 1 -5.04051 -2.79834 -3.3887 22
211 1 5.01436 -8.52454 -3.7982 17
212 1 -4.13135 12.1154 5.4913 15
213 1 -6.69068 0.40549 1.94386 20
214 1 4.45866 13.606 11.4926 11
215 1 -8.63277 2.87353 -4.89635 19
216 1 -6.37297 11.9207 -8.46517 18
217 1 -15.215 -4.30147 -5.98212 13
218 1 -9.38791 -1.26344 11.7339 18
219 1 0.474566 -8.92058 1.34903 19
220 1 0.671922 -14.9174 7.31698 16
221 1 -12.0263 10.2646 4.86416 12
222 1 14.3832 2.70161 2.03244 18
223 1 7.87724 4.50749 -5.68841 20
224 1 -5.68672 -9.40239 -15.2334 10
225 1 0.931688 1.61723 12.6395 16
226 1 5.92345 -18.053 5.47615 8
227 1 -1.51707 7.77702 -12.8044 17
228 1 2.30479 -10.4942 -12.4733 21
229 1 8.7882 -2.25725 -16.2826 11
230 1 3.15508 6.79244 -14.1355 19
231 1 -6.74748 -4.53275 -8.57343 20
232 1 -4.92753 15.0046 -6.98442 17
233 1 -12.4133 -12.7602 12.5534 12
234 1 8.45339 15.4433 -1.3081 14
235 1 -10.3055 1.40414 16.4169 9
236 1 -7.54689 13.6944 -6.1365 19
237 1 6.13338 -5.58209 7.78443 20
238 1 -6.52802 -6.01477 -14.6004 16
239 1 -4.39295 8.18944 -9.13543 18
240 1 0.78177 6.36972 -8.34419 16
241 1 -7.22878 -12.7012 8.57936 17
242 1 -6.21337 0.948911 5.0964 19
243 1 -8.42387 8.18804 10.2822 21
244 1 1.04553 -10.28 -6.60492 16
245 1 -2.89071 -12.5594 -0.908187 22
246 1 10.7016 -12.2558 -0.547225 12
247 1 2.40247 -8.82854 -3.45861 19
248 1 10.8118 4.29309 13.8445 17
249 1 5.16612 9.16021 -8.54275 19
250 1 -0.817812 10.6864 -0.599269 21
251 1 -12.1725 4.67827 2.50265 15
252 1 -14.7768 12.0701 -1.3548 9
253 1 1.29057 7.32193 12.424 19
254 1 5.36101 -16.5683 1.89988 14
255 1 10.5816 -1.59541 -5.29788 21
256 1 2.68924 8.18475 6.17037 17
257 1 -11.1786 5.38755 5.59146 16
258 1 -12.598 -8.0832 -2.35652 15
259 1 8.18294 5.37924 -14.6072 18
260 1 1.68753 -1.65452 10.2508 18
261 1 8.44693 10.3184 -8.80293 15
262 1 3.18232 -8.25976 -6.77054 17
263 1 -3.82693 -1.46814 -13.3596 19
264 1 -1.17243 -17.539 6.4222 13
265 1 8.43299 2.23473 -11.8732 20
266 1 -7.36545 -3.00815 6.13706 16
267 1 4.80877 -16.2616 -1.12446 14
268 1 -9.77803 -5.23828 -6.5082 18
269 1 3.18735 13.922 -0.788989 20
270 1 1.93592 -1.50024 -14.525 22
271 1 3.33024 3.46618 18.6216 14
272 1 12.9908 2.34442 -1.67362 20
273 1 -4.60058 -5.92557 1.13956 14
274 1 11.6031 -5.30964 -12.0134 16
275 1 -1.98444 -6.62184 5.4677 20
276 1 -8.47439 -3.50998 -10.9024 19
277 1 -9.32699 1.25939 -10.019 18
278 1 -8.02566 -16.64 11.5235 11
279 1 10.8236 -2.55167 7.96231 20
280 1 4.93687 -3.30914 5.95447 19
281 1 -6.08853 -8.84587 -12.469 17
282 1 2.49222 -3.80775 7.49927 19
283 1 1.04827 7.41274 -11.7398 19
284 1 4.47031 4.89657 -0.750909 22
285 1 -8.81791 -7.19612 2.86543 19
286 1 2.04748 11.0613 -0.225605 18
287 1 -7.8288 -2.49064 10.1231 21
288 1 -10.3021 -8.39321 -7.2008 17
289 1 -6.22584 -6.0024 -11.1529 19
290 1 -2.22338 7.41867 -16.677 12
291 1 -7.1611 -10.1089 -6.72458 21
292 1 -1.72316 -6.62344 -0.471546 22
293 1 8.86023 -5.51776 -17.562 10
294 1 14.5351 -1.17928 -8.401 10
295 1 11.655 2.78686 3.91374 23
296 1 -4.07673 -5.79426 -3.78363 19
297 1 -11.0185 -4.29728 9.71021 18
298 1 -2.10759 -13.3532 -3.79205 19
299 1 8.27655 2.01704 15.3352 20
300 1 -7.98029 -13.389 4.04699 16
301 1 2.10002 -11.7501 1.36422 17
302 1 -2.89761 13.6764 -1.24564 17
303 1 6.15239 -1.37014 -14.8833 21
304 1 -8.93183 -8.1773 -15.1467 7
305 1 3.3182 -5.74197 1.24422 15
306 1 -12.2173 -9.31746 13.8138 11
307 1 3.39134 5.81434 20.5177 8
308 1 3.63083 -11.0851 -1.49127 15
309 1 -4.28935 -12.5521 -8.70879 16
310 1 -11.6613 5.9029 -6.77902 22
311 1 10.0879 4.95739 6.94834 21
312 1 -5.79557 1.92273 -9.67021 24
313 1 -1.36843 8.51665 -9.81311 19
314 1 -4.42399 -4.87631 6.18537 19
315 1 7.63115 -13.8053 -10.0221 8
316 1 -8.85841 14.2267 -2.73365 13
317 1 2.13463 10.7415 3.99459 15
318 1 10.9491 -2.36057 4.70137 19
319 1 -10.462 -1.19685 5.97359 18
320 1 -4.61145 -7.02927 11.644 17
321 1 -8.00553 9.67764 4.15725 13
322 1 3.39859 -5.30804 -10.8824 22
323 1 12.239 10.3734 0.126591 17
324 1 5.03045 -10.0731 1.77407 19
325 1 -2.01612 -2.82365 15.1572 14
326 1 -18.1525 -3.83038 5.9825 12
327 1 1.46512 -17.4188 -2.27821 14
328 1 -10.1173 7.19626 15.384 9
329 1 -11.4831 4.9558 14.448 15
330 1 -16.0236 -2.17905 7.52602 18
331 1 -14.7702 -4.90809 7.75661 15
332 1 16.0691 -3.36427 -0.441641 13
333 1 -12.7639 -7.65909 8.74429 17
334 1 8.95085 -4.61516 -11.0435 21
335 1 11.8293 -11.6147 -6.34921 13
336 1 2.86642 16.9052 -2.30847 13
337 1 -3.22493 -4.54717 3.38445 23
338 1 -10.2747 11.9811 -4.45447 15
339 1 -0.840562 3.6702 7.71189 15
340 1 9.99811 7.07245 12.1018 16
341 1 -11.3961 -0.525169 0.0904333 13
342 1 8.53653 -10.047 -5.08101 18
343 1 -1.98267 8.97395 1.53203 17
344 1 -7.68459 6.49948 5.90367 19
345 1 3.58159 -11.4128 7.54838 15
346 1 10.4343 -5.34899 6.95359 19
347 1 -3.06172 5.71442 9.34555 15
348 1 -6.27645 -2.41178 -5.55438 21
349 1 -1.41155 0.423412 15.4517 14
350 1 0.355089 14.0532 0.933055 24
351 1 8.60352 5.06541 16.1375 12
352 1 -7.78631 15.023 -9.13716 7
353 1 1.00131 -7.18229 -16.8062 11
354 1 -6.04904 2.96721 -6.70546 21
355 1 8.13155 -9.60134 -13.9198 12
356 1 -10.1675 1.99417 13.7041 16
357 1 -16.323 3.68481 3.01852 10
358 1 -3.70108 -3.3857 -6.09658 21
359 1 -8.3787 8.90828 1.45393 19
360 1 8.18517 -3.0957 6.19625 21
361 1 -11.6268 -11.2455 3.3648 13
362 1 5.89362 -8.8412 8.34828 17
363 1 -9.75428 -11.4317 13.1019 14
364 1 -14.0925 9.67007 2.01639 12
365 1 -2.17391 -5.194 10.8646 17
366 1 4.28993 -12.5587 -5.71102 14
367 1 -6.4425 -0.854382 -10.7993 22
368 1 8.36481 -4.35592 -13.7893 19
369 1 5.43658 12.4621 4.33494 20
370 1 -9.21159 -1.88619 -5.3546 21
371 1 4.26075 -6.36506 -13.7424 20
372 1 10.9552 5.66317 -13.4002 10
373 1 -4.96643 -15.6664 -8.27869 8
374 1 -15.2733 -6.39199 -3.53057 10
375 1 -4.2451 -7.24731 -1.3928 17
376 1 11.8629 1.27478 14.7088 12
377 1 12.8991 3.22824 -4.89062 21
378 1 -7.74878 2.02939 -12.5575 23
379 1 3.16117 16.1832 1.05249 16
380 1 -16.2744 -2.04107 -7.19901 7
381 1 -9.02616 9.53114 7.58374 15
382 1 -9.59612 10.7414 -1.34255 19
383 1 -6.07147 6.3277 8.6676 16
384 1 11.0124 0.765947 9.22782 19
385 1 8.07855 -0.149505 -6.22803 18
386 1 7.65881 -6.32964 14.5183 12
387 1 10.7921 -0.314801 -8.14739 19
388 1 -4.24223 -15.5155 -2.4004 16
389 1 1.45956 1.03253 7.27317 22
390 1 -4.98304 6.94997 -2.12127 19
391 1 -1.16437 -8.31049 -8.57711 21
392 1 -0.331689 9.72746 5.38521 16
393 1 -10.5326 3.32748 -7.48368 18
394 1 6.04533 -10.6045 -3.01993 17
395 1 8.33674 0.599334 7.16273 16
396 1 -11.7775 -2.91601 -5.58882 17
397 1 -7.70697 -8.40108 -0.240709 17
398 1 -9.30539 -8.44257 14.878 12
399 1 -4.33155 11.5719 0.139561 20
400 1 -10.7237 -8.40323 0.178243 16
401 1 6.82742 7.71255 15.8801 15
402 1 -12.0687 4.80375 -1.10837 21
403 1 -1.91981 13.3464 -5.8856 21
404 1 5.16734 10.121 7.07743 17
405 1 -14.365 -7.5284 -0.102191 13
406 1 -2.26582 -6.13484 -6.3315 18
407 1 -12.6246 0.728542 8.15766 23
408 1 -12.8915 6.54778 -3.57349 25
409 1 2.89481 -8.92705 6.77489 21
410 1 -6.71518 -13.3362 -3.53279 15
411 1 10.6119 13.526 6.77028 15
412 1 6.39696 7.99654 -14.1931 15
413 1 -13.8875 3.92163 -10.8116 11
414 1 -2.22214 13.7516 -8.84563 18
415 1 -6.04785 5.86959 -9.56127 17
416 1 -1.36491 -11.2136 2.69303 18
417 1 11.9844 5.72371 3.97947 21
418 1 1.13599 9.12235 -16.036 14
419 1 -5.2137 -1.83034 4.29938 22
420 1 -15.2481 3.14752 0.412982 15
421 1 -8.64771 3.84428 6.3201 20
422 1 -4.40374 -11.9296 2.15998 19
423 1 1.62511 -5.62554 -8.10574 17
424 1 7.0759 -9.59312 -9.97166 18
425 1 -1.4442 -4.47021 7.81583 18
426 1 -13.7572 -0.771717 5.13649 21
427 1 -15.6141 -0.725142 9.89565 11
428 1 -13.3554 6.44777 7.78581 14
429 1 -0.987898 -9.09677 7.86602 21
430 1 -8.63167 2.8874 -17.3844 10
431 1 9.35779 -9.25114 -7.98024 22
432 1 -1.35072 -10.8297 -10.5339 21
433 1 -5.50423 -4.69117 9.83119 15
434 1 3.77702 -5.62919 -4.52482 18
435 1 -5.90815 -2.49767 -16.1894 12
436 1 8.57338 -15.2313 4.13504 6
437 1 1.46891 12.4823 -5.46697 19
438 1 -13.3668 9.7988 7.91771 10
439 1 -4.63543 -3.61213 15.1963 14
440 1 -10.6856 -5.95496 -10.1133 13
441 1 -8.7232 -7.03859 5.9816 23
442 1 6.18452 -6.85511 11.2649 21
443 1 4.68648 2.694 -3.50228 22
444 1 -4.8597 6.32346 4.21952 16
445 1 4.4005 2.15944 -9.72879 19
446 1 8.47578 -6.55498 9.45373 18
447 1 15.6827 8.33852 -3.13405 9
448 1 -4.53605 1.62725 12.1906 19
449 1 2.37039 10.6404 -2.8296 20
450 1 7.8638 -6.6503 5.89488 22
451 1 -0.246289 -14.8832 -1.54391 20
452 1 -5.10248 4.92955 17.5778 9
453 1 -2.17955 14.4253 7.43886 13
454 1 -10.0076 -11.4511 -7.78062 10
455 1 8.91445 13.0318 1.127 14
456 1 5.35162 6.30768 8.13432 20
457 1 -7.55713 0.719303 10.7816 20
458 1 -4.4056 -8.04022 -5.6911 23
459 1 -10.0437 5.02324 11.6324 17
460 1 -9.95077 -7.79929 -4.46286 19
461 1 -6.69693 10.9117 6.50868 16
462 1 -4.26772 -11.625 -5.51778 18
463 1 -3.17605 -10.4982 -14.2156 12
464 1 -7.7626 -11.0577 2.03882 19
465 1 -8.66269 -1.37699 3.2444 18
466 1 9.05079 2.85183 5.27743 19
467 1 -6.13888 -6.7847 14.3822 11
468 1 -8.70633 5.25433 -11.8471 18
469 1 7.22135 4.21268 -2.4431 19
470 1 -6.8667 -15.7662 -4.95334 11
471 1 0.114261 1.58539 -10.6904 22
472 1 -0.594421 16.5478 2.41986 11
473 1 -1.92726 2.53761 -8.44531 19
474 1 -2.05494 8.00045 12.6244 19
475 1 -16.3651 -1.6906 -3.7627 11
476 1 0.482928 18.2598 -4.12564 9
477 1 3.95162 10.4662 -5.84415 18
478 1 -7.6371 -7.48637 -7.50153 19
479 1 2.57385 2.8332 15.0605 20
480 1 1.91928 -14.2774 -6.621 15
481 1 -2.03666 -3.44539 -11.8408 22
482 1 5.81246 -14.6632 5.1369 16
483 1 -10.9937 11.7058 2.38306 17
484 1 0.922477 4.75374 16.8333 20
485 1 7.71897 7.29614 -4.1462 20
486 1 2.79745 6.85249 -3.08879 21
487 1 -7.56682 8.84864 -9.27252 18
488 1 1.62447 2.99366 -8.48692 22
489 1 2.71815 -7.44377 3.70473 19
490 1 -15.7269 -4.50988 -0.782897 13
491 1 4.02548 15.4091 5.9728 12
492 1 -5.89093 2.91457 -15.7821 20
493 1 9.04689 5.60544 -0.597163 20
494 1 6.5644 15.3747 -7.51871 12
495 1 6.86985 -5.55803 -3.22134 19
496 1 15.8951 3.41125 -0.936661 10
497 1 0.250811 -1.2058 -11.0855 22
498 1 3.93994 -8.32705 -0.615924 15
499 1 -0.0486173 -12.5784 5.26314 18
500 1 1.13124 -9.83713 9.69211 15
501 1 -7.95155 3.78501 -8.6161 18
502 1 -13.1951 -13.6645 5.98254 8
503 1 -1.03766 -12.7778 -7.93567 20
504 1 8.91702 12.9871 8.84799 18
505 1 0.602415 4.0655 -12.9951 18
506 1 5.37136 1.71333 15.8538 18
507 1 -13.8555 2.57036 10.4413 17
508 1 -0.768347 -17.2739 0.412936 16
509 1 -12.6286 -3.61568 3.2383 19
510 1 13.507 -5.6184 -5.91914 16
511 1 9.68058 -3.1124 -2.29653 19
512 1 -6.71408 5.33591 -4.23113 20
513 1 6.28691 -4.34228 -6.15402 21
514 1 7.12079 2.29359 -14.392 20
515 1 7.62803 -6.75913 -5.82959 21
516 1 -7.97658 -1.30131 16.3016 11
517 1 5.79683 14.3055 1.23881 22
518 1 -3.95747 -4.50821 -14.3129 20
519 1 5.11461 2.55695 -17.5495 13
520 1 -8.32476 -4.82602 8.21078 17
521 1 -2.65511 12.3155 2.33664 20
522 1 -12.8236 -0.973452 -13.6857 11
523 1 -14.9708 0.490123 2.09468 14
524 1 -0.0888495 -12.2494 -13.8123 16
525 1 -7.4771 -12.1384 11.3197 15
526 1 -0.728668 10.5851 -7.86556 17
527 1 15.9284 2.83204 7.32638 11
528 1 12.4879 7.29513 -1.33043 20
529 1 -10.4897 -11.1979 0.688728 14
530 1 1.01041 -7.38314 -0.872226 19
531 1 -1.4099 -5.29886 -16.7536 12
532 1 -8.7893 11.0924 10.3416 16
533 1 0.830211 -2.58467 -8.50171 18
534 1 3.07801 6.04282 1.56262 17
535 1 13.5349 -2.2593 -0.446987 18
536 1 2.29083 13.7116 -10.521 15
537 1 5.73501 -7.10891 2.86656 19
538 1 13.1463 2.93403 -8.26161 20
539 1 3.60024 6.51515 14.5439 15
540 1 -9.85475 1.0587 7.86823 19
541 1 6.46024 8.92089 10.2446 20
542 1 6.9224 -0.677497 15.35 17
543 1 -0.693538 0.219093 -13.3023 18
544 1 -5.98093 -5.32139 -5.87351 22
545 1 -0.120034 -4.04547 12.7876 14
546 1 10.7437 10.4018 6.48526 22
547 1 7.33746 7.77012 -10.1488 19
548 1 -7.17996 10.3997 -6.27861 16
549 1 -4.06497 10.1554 -2.65202 15
550 1 9.21779 -4.3357 13.0826 17
551 1 10.434 2.74614 -14.6204 12
552 1 14.3339 -9.20969 -5.00242 8
553 1 11.9313 9.47403 11.4898 10
554 1 -16.1453 -7.16051 1.68141 12
555 1 -5.70971 9.93304 -11.4136 12
556 1 -1.49864 -0.243988 8.39523 13
557 1 -12.535 -0.228714 11.1152 16
558 1 -4.28546 12.8858 -10.4826 12
559 1 6.74943 -14.4786 -3.39648 14
560 1 2.73472 -0.183437 -8.45156 21
561 1 -3.68171 15.1866 -4.33733 13
562 1 -9.43178 -5.26229 -12.9707 13
563 1 3.07012 -14.4751 4.52756 19
564 1 -15.4291 -1.98358 2.42025 17
565 1 1.66924 11.9 -15.5127 9
566 1 -5.02533 4.60909 -1.11781 23
567 1 -2.45594 9.40295 16.4958 12
568 1 -10.0195 -7.83425 8.62506 21
569 1 5.0642 8.91302 -3.14577 22
570 1 3.65923 -10.1284 -9.28051 19
571 1 4.04146 -6.52365 14.0475 11
572 1 3.24273 -3.34043 -5.93276 17
573 1 -11.2192 8.33055 2.54341 16
574 1 7.37448 2.08889 17.7829 8
575 1 4.06712 16.9512 -5.07342 13
576 1 9.25199 -6.05792 -1.30423 20
577 1 3.92006 9.34652 12.551 19
578 1 -0.403504 1.95552 -16.0141 19
579 1 -6.02894 -14.2962 13.4904 9
580 1 -2.97751 -0.802744 -10.4512 21
581 1 6.2206 -0.0296724 -17.7851 13
582 1 2.97504 12.3394 6.4641 16
583 1 9.22256 5.2441 -10.9218 21
584 1 -1.4277 -2.43071 -15.0936 20
585 1 -2.91118 -10.4553 -2.98558 20
586 1 -12.3047 -3.21567 -10.9875 14
587 1 9.46946 2.42979 -1.51994 19
588 1 13.8694 5.39068 -3.34902 14
589 1 7.79914 -6.38512 -8.9408 22
590 1 12.9136 5.97652 11.2635 14
591 1 5.79946 -9.35379 -6.7688 21
592 1 2.48354 3.91392 -15.9034 16
593 1 6.65316 11.1997 1.89186 16
594 1 -6.79934 3.69216 4.11438 21
595 1 8.94909 9.63373 13.7489 11
596 1 12.8618 7.96772 -3.82115 15
597 1 11.9544 1.0559 1.11676 23
598 1 12.371 5.60385 -10.2161 16
599 1 11.6883 2.68671 11.5169 22
600 1 14.331 4.42132 9.33561 16
601 1 0.365176 -6.6326 9.18874 18
602 1 12.8267 10.7987 -2.64206 17
603 1 6.18747 0.191704 2.52604 20
604 1 2.41246 -0.356619 16.3466 10
605 1 16.418 -0.428924 -5.45113 12
606 1 9.05306 2.26472 9.80063 20
607 1 -7.31771 0.263546 -7.75016 19
608 1 11.6428 4.1461 0.885468 22
609 1 8.75643 -5.13708 3.72277 18
610 1 0.388844 -5.6209 -3.10402 20
611 1 -13.355 7.9117 13.7441 9
612 1 11.6513 11.6285 8.59038 15
613 1 9.63432 -1.57857 10.957 19
614 1 3.17297 10.9282 9.58076 21
615 1 1.61458 13.1509 11.9435 13
616 1 4.48259 2.73407 7.98331 21
617 1 -2.50856 -17.9979 3.40748 10
618 1 -7.99339 8.20513 -3.65561 20
619 1 10.4987 11.6738 -7.51793 12
620 1 10.6474 -2.35435 -13.0544 14
621 1 -0.41328 16.2013 -1.30936 13
622 1 -2.05639 -10.3418 -6.20003 17
623 1 11.8631 -6.23897 -15.9628 8
624 1 -15.0549 2.6949 6.63685 15
625 1 -3.98863 5.49868 -15.0124 16
626 1 -5.77013 -15.3014 2.79184 14
627 1 -5.28035 1.0252 -13.2532 17
628 1 -14.5429 1.211 -4.50103 17
629 1 11.1678 -7.70933 5.83757 12
630 1 10.3464 10.7426 2.8812 19
631 1 -9.93134e-04 -8.92664 4.73408 19
632 1 -13.6225 -0.836212 -8.24024 16
633 1 2.6363 0.98245 -17.792 13
634 1 2.63038 -4.29585 3.94485 21
635 1 -2.65651 2.99045 14.5351 20
636 1 6.39262 10.3504 -12.0247 16
637 1 13.6395 -2.39884 10.2972 14
638 1 10.0604 4.73031 -7.44478 20
639 1 10.9639 13.911 4.12053 11
640 1 3.62666 -12.7898 -9.08147 15
641 1 -10.8327 -3.69718 12.2942 18
642 1 11.8173 -2.07905 2.01743 22
643 1 -0.409591 10.9376 14.1573 15
644 1 7.69253 12.9229 -9.49149 11
645 1 -15.0033 10.4816 -4.96062 9
646 1 7.82016 7.77165 2.02505 20
647 1 -8.86966 -14.3969 1.4265 13
648 1 15.2109 -1.66476 2.35514 14
649 1 7.96555 14.8264 4.42765 15
650 1 -8.21871 3.54072 9.56763 20
651 1 -14.1553 -4.63148 1.14332 15
652 1 -10.504 -1.69885 -8.88759 19
653 1 6.72595 -0.00976777 9.82957 20
654 1 -5.04764 -10.1103 10.427 21
655 1 8.57215 4.45488 12.5928 22
656 1 -7.37143 11.6923 1.36635 19
657 1 6.21883 1.77646 -0.669916 24
658 1 6.52375 -3.50214 -0.911072 22
659 1 7.26037 6.28602 4.73722 20
660 1 3.99877 -3.04763 -13.691 21
661 1 -10.3721 -1.651 9.04994 20
662 1 8.36789 -0.191734 -13.8046 16
663 1 -0.180732 -4.41009 -5.89125 21
664 1 12.9841 -10.4805 -8.55821 10
665 1 7.27805 4.04238 7.88582 20
666 1 3.76407 5.01723 5.50201 16
667 1 -10.0987 -2.10707 15.0921 11
668 1 9.28059 10.2971 9.36797 17
669 1 0.889875 -1.28993 13.8598 18
670 1 -3.39309 5.21218 12.8327 22
671 1 -1.13451 -5.85092 -13.5555 19
672 1 -7.54696 3.0921 12.7367 19
673 1 -3.41003 5.621 -4.34682 24
674 1 6.51139 1.82883 12.5277 21
675 1 -10.093 -14.9855 7.11605 8
676 1 14.9635 8.7924 0.0168992 12
677 1 9.38486 -12.2192 -3.55246 14
678 1 -3.46566 1.9895 -5.75027 23
679 1 6.97013 7.39814 -1.06079 19
680 1 8.29026 12.0568 5.23574 20
681 1 3.85537 -1.9884 -17.0487 17
682 1 -3.48368 -1.84251 7.3904 17
683 1 2.57903 14.9917 -7.29084 21
684 1 14.4996 11.8166 1.60081 8
685 1 -5.35491 -10.8038 -0.820877 18
686 1 0.362135 -1.14183 -16.7848 14
687 1 -12.3125 10.195 -3.03224 18
688 1 9.37337 -7.34287 -12.4291 19
689 1 5.23413 6.03538 2.84292 15
690 1 10.525 7.93477 -9.00597 16
691 1 8.58995 10.6891 -3.96481 15
692 1 -2.25242 4.23683 5.20482 18
693 1 -6.68884 6.2804 1.23805 20
694 1 5.43765 5.60479 -4.98006 19
695 1 12.4806 -0.0981407 12.1008 15
696 1 7.53788 -3.01061 15.3995 13
697 1 -1.95942 -14.4986 8.65943 13
698 1 -3.94235 8.74276 -14.5366 13
699 1 6.21703 12.1112 9.45666 18
700 1 9.60992 -8.46957 -16.181 11
701 1 0.852978 1.48474 9.98182 19
702 1 6.1594 15.2971 -4.79342 14
703 1 7.19676 9.61289 4.45133 18
704 1 12.0242 -4.61686 -3.55045 18
705 1 5.87848 4.75441 17.8063 13
706 1 -12.5589 -2.56061 6.76717 19
707 1 3.22443 -17.3833 3.16432 15
708 1 0.12623 0.0249663 -8.29718 21
709 1 -8.69849 14.1592 3.49817 15
710 1 1.3116 3.97179 5.85623 16
711 1 8.10489 -2.95775 -4.53756 19
712 1 4.18991 8.2222 -0.0479788 20
713 1 -14.6288 -3.66373 4.87715 21
714 1 -1.86541 3.49112 17.5946 14
715 1 -3.05994 2.68682 -17.6258 15
716 1 -6.03415 7.60671 -12.527 17
717 1 5.86449 -13.3624 -0.525345 16
718 1 7.77569 6.54735 -7.6198 19
719 1 5.7185 -8.86229 5.38834 22
720 1 -2.14573 7.1461 4.67818 15
721 1 -14.6935 4.66486 13.2244 10
722 1 6.12878 -3.05871 -11.7382 20
723 1 0.803245 -12.2127 8.22743 15
724 1 3.4246 12.8599 1.98207 18
725 1 -4.43432 -0.401741 14.967 17
726 1 -8.94693 -7.92857 -10.5293 13
727 1 -4.26252 -11.0317 -11.5761 14
728 1 -7.01509 -13.3831 -6.71183 15
729 1 -1.44116 16.1794 -6.59529 14
730 1 5.92788 -3.3586 -9.00113 21
731 1 -2.78379 10.7453 7.60069 17
732 1 6.73851 -12.1626 -7.99539 17
733 1 8.02465 -17.0889 0.216978 8
734 1 4.25071 -6.08501 6.1551 24
735 1 15.95 2.05887 -6.93924 14
736 1 1.14059 -12.4087 -3.83014 18
737 1 -12.8831 -6.48274 11.7864 12
738 1 2.71774 1.9538 -5.91057 22
739 1 -2.84102 -15.3747 1.1898 20
740 1 -6.32944 -10.3691 -3.60863 18
741 1 -10.506 1.71086 10.998 21
742 1 -5.60912 -13.8914 0.098386 19
743 1 15.0829 2.01688 -3.39859 20
744 1 -6.45128 16.3285 2.5382 10
745 1 -5.61752 3.95565 6.64323 18
746 1 -13.4717 7.93118 5.11463 14
747 1 11.5015 -5.22154 0.154147 18
748 1 -14.4928 -0.841555 -11.5893 7
749 1 -1.3216 10.9188 -4.27183 21
750 1 10.6636 2.81998 -9.69887 19
751 1 6.03572 10.4853 13.9029 13
752 1 10.526 4.23588 -3.71223 20
753 1 -16.388 1.53806 -7.51114 9
754 1 -12.7862 -6.56669 -6.27863 12
755 1 -1.82741 6.50403 18.2869 15
756 1 4.31274 7.54531 -11.6963 16
757 1 13.4724 11.5069 5.24842 13
758 1 -4.66513 1.14583 8.69401 18
759 1 -1.53002 -17.7914 -2.80416 13
760 1 -7.60882 -15.4844 8.80727 11
761 1 -3.48031 -6.76229 8.44701 21
762 1 12.6477 7.21605 8.92346 18
763 1 4.46582 -8.68772 -11.6475 23
764 1 -7.87966 6.10698 -1.17974 20
765 1 4.21164 9.02725 2.83359 19
766 1 -9.53639 -4.05302 4.36419 18
767 1 9.30356 8.07913 -12.4036 12
768 1 -0.334024 -15.2508 -4.22135 17
769 1 0.815576 -18.8646 3.81731 12
770 1 2.57028 -15.348 0.0919885 21
771 1 6.06765 4.81007 -11.7744 18
772 1 6.88748 16.9031 1.37721 11
773 1 -3.45844 -0.191374 -16.393 18
774 1 -2.27236 -0.100898 12.7126 19
775 1 -0.10233 6.56287 -14.4911 15
776 1 -12.8878 2.33504 -13.6035 10
777 1 -10.6982 -3.04393 -2.45169 18
778 1 1.81177 17.5607 -6.85378 11
779 1 10.5598 -0.43184 -0.716727 17
780 1 -3.65917 -6.97134 -15.2861 13
781 1 -7.08969 -7.33306 -3.92828 21
782 1 15.672 5.89749 -5.84478 9
783 1 12.2524 -7.60114 2.77352 13
784 1 -7.85141 6.8783 13.4293 18
785 1 7.57329 -9.58553 3.61306 16
786 1 14.2088 -6.44206 0.193453 11
787 1 10.7985 -4.84039 10.3967 18
788 1 0.543152 10.461 8.09462 19
789 1 -13.0303 2.20789 13.8107 12
790 1 -9.70102 6.13399 8.2282 21
791 1 -2.67136 -13.3543 3.65486 16
792 1 9.20319 0.446259 3.2434 19
793 1 7.18514 7.83882 12.6493 18
794 1 -15.6827 0.838077 -1.59712 13
795 1 9.16954 -9.64266 -1.63697 20
796 1 -12.372 10.2471 -6.70076 11
797 1 1.06146 7.11065 4.09229 20
798 1 0.0919218 -15.7048 4.58004 20
799 1 7.30936 -1.7987 12.2026 22
800 1 -0.245592 12.4732 5.95084 19
801 1 2.76315 -10.2334 3.77855 18
802 1 -8.03164 -0.454007 -3.05683 18
803 1 3.15153 3.24473 12.0937 17
804 1 -13.9049 -3.4951 -2.82842 15
805 1 0.841851 11.0288 17.1678 9
806 1 5.72765 11.693 -1.29592 16
807 1 -10.3183 -10.7588 7.44508 17
808 1 -4.45503 -12.334 7.47989 19
809 1 7.49549 -9.322 12.7744 9
810 1 9.61034 -7.48624 12.2148 12
811 1 9.40861 7.24469 8.49066 22
812 1 -1.04159 4.5074 -6.35864 24
813 1 1.60008 -8.43084 -9.56581 23
814 1 -2.99903 2.77051 -10.837 20
815 1 -3.86793 -3.0304 12.5042 18
816 1 -1.27861 14.5344 3.94353 17
817 1 12.6 0.0279615 3.57667 19
818 1 1.88208 5.23182 -5.90982 22
819 1 -4.35811 8.29942 14.0002 14
820 1 7.67073 5.74502 9.96307 21
821 1 8.50941 -0.909428 -10.5282 21
822 1 -8.15775 -11.5052 -0.727652 17
823 1 -6.08352 0.257776 -5.16285 20
824 1 14.2576 -2.29416 4.92625 13
825 1 3.32063 -1.26145 -11.2044 18
826 1 0.720792 8.14831 16.1581 20
827 1 10.3897 -12.2665 -8.59686 14
828 1 5.58299 5.34387 -16.0153 15
829 1 -1.25758 -8.16722 -3.42519 25
830 1 12.6012 3.37064 -12.118 11
831 1 15.2605 0.201854 -0.490324 16
832 1 1.40573 -7.67397 12.1158 13
833 1 -0.839493 -9.13333 -12.3003 20
834 1 8.69212 12.0569 -1.46355 15
835 1 0.829954 -6.1531 6.29198 18
836 1 -14.6193 4.83698 5.1449 15
837 1 13.1579 0.469407 -6.07097 21
838 1 13.9261 6.12593 1.55918 15
839 1 1.32009 -4.02721 -13.1715 21
840 1 -9.51562 13.706 6.32841 13
841 1 14.9161 7.80735 4.515 11
842 1 11.7896 13.3038 -4.63801 11
843 1 4.23455 0.646713 -14.7425 20
844 1 9.07066 -7.71344 1.22347 21
845 1 -10.7575 2.62854 0.416127 14
846 1 9.14511 4.91095 2.78808 20
847 1 -13.124 -9.10287 1.1841 15
848 1 -10.9121 8.83226 -8.37639 14
849 1 5.60347 3.55923 10.343 21
850 1 -11.415 0.55943 -6.58261 21
851 1 -11.2028 3.49009 8.44388 18
852 1 -4.30627 4.74268 -7.75671 23
853 1 10.9827 -5.94995 -8.37128 21
854 1 -11.5323 -10.558 -4.65406 12
855 1 12.7755 -7.52107 -3.13591 14
856 1 -15.6509 6.63844 2.0605 12
857 1 -8.30634 -4.39697 -3.72681 19
858 1 12.5922 3.72352 6.6626 19
859 1 -3.95378 -9.42463 7.68171 21
860 1 10.1406 -1.50865 14.1535 16
861 1 11.3884 -7.44022 8.26493 12
862 1 8.13177 -2.64426 2.63598 19
863 1 -9.91468 5.71856 0.50043 20
864 1 1.3492 10.0471 11.6243 19
865 1 3.83032 10.3106 -11.4469 17
866 1 -1.07039 -9.16438 -15.1674 15
867 1 -6.64987 14.232 5.74868 14
868 1 -13.6765 -13.0866 9.66116 9
869 1 4.71586 13.0523 -7.3191 19
870 1 -2.74068 5.80493 15.798 18
871 1 15.3061 -3.57176 -3.43923 13
872 1 3.99331 -9.59387 12.8009 9
873 1 -0.812387 10.6641 -13.9697 17