ITEM: TIMESTEP
27000
ITEM: NUMBER OF ATOMS
2000
ITEM: BOX BOUNDS pp pp pp
-30.0 30.0
-30.0 30.0
-30.0 30.0
ITEM: ATOMS id type x y z Coordination
1 1 -5.42294 -4.58373 -8.88919 13
2 1 -0.828734 -16.5729 -5.08911 15
3 1 6.84723 14.5754 10.7973 12
4 1 11.7294 -10.7516 9.2233 16
5 1 -4.33086 12.8175 3.95323 13
6 1 15.667 -12.6214 -8.54295 15
7 1 -4.5047 4.13671 -4.54864 19
8 1 5.97183 -9.95414 15.7928 9
9 1 2.30624 -0.497972 -7.86845 21
10 1 -8.07683 -10.4211 13.5183 14
11 1 18.501 1.434 -7.74086 19
12 1 1.15974 0.736358 -1.08104 21
13 1 -1.03593 -13.7823 6.16065 15
14 1 -5.60072 -10.4295 5.44079 23
15 1 10.5853 7.24939 14.7828 20
16 1 11.1248 -11.109 5.9758 16
17 1 3.26757 -0.751966 14.3267 22
18 1 13.9158 -4.80691 3.70981 22
19 1 -0.445938 6.92229 -6.73263 20
20 1 4.88955 -3.11457 13.9353 20
21 1 -2.05599 -4.97087 -9.70925 16
22 1 -4.67071 -4.78424 18.4445 10
23 1 18.1841 -0.699142 11.0496 14
24 1 10.9907 5.88993 -7.81493 19
25 1 7.83724 6.73079 -6.1092 19
26 1 13.1882 -1.37487 14.4047 18
27 1 -2.38264 -0.962942 7.90226 22
28 1 -2.69986 -4.17972 -6.57115 19
29 1 0.719266 -4.23261 -5.16051 21
30 1 -2.63506 7.82246 13.8772 16
31 1 8.59267 -14.7182 8.24367 16
32 1 3.133 -3.71917 9.90265 19
33 1 6.42034 -18.5761 -8.16299 11
34 1 11.23 -10.4823 -1.28331 23
35 1 -6.17823 -12.7312 3.77931 14
36 1 -6.83681 -9.49232 15.8092 9
37 1 8.71115 -2.65803 -3.08883 21
38 1 12.3137 -7.91651 -9.7111 17
39 1 12.594 -11.6311 -9.66114 21
40 1 1.90076 -3.09868 -13.1598 18
41 1 8.15191 5.15603 16.4522 18
42 1 4.47585 -14.9741 13.262 10
43 1 4.61516 -9.80561 11.829 21
44 1 -7.25702 -3.14053 0.49132 22
45 1 -11.4847 -6.05382 10.3658 12
46 1 -1.7339 -1.0317 1.54415 23
47 1 2.2263 12.6194 -1.40313 17
48 1 2.5102 -17.319 -6.32167 14
49 1 10.9277 -5.2381 -10.6544 16
50 1 12.9637 -6.82922 -12.9675 17
51 1 3.29206 -5.64507 15.6154 19
52 1 -3.24168 5.25849 2.22455 18
53 1 10.0288 9.71218 -10.8229 12
54 1 5.62335 15.2166 8.18936 18
55 1 -3.83129 6.68743 -2.30897 20
56 1 -1.65548 13.5891 1.27531 11
57 1 5.7986 -13.6347 -0.178728 18
58 1 16.0092 -10.1435 -6.0993 20
59 1 11.8401 -8.06881 -15.8064 11
60 1 -8.29318 5.85303 16.9379 12
61 1 -9.06562 -2.59678 -4.63055 17
62 1 8.65235 -4.07972 6.29998 23
63 1 -5.67389 6.3288 3.23228 17
64 1 -1.95664 -9.51982 6.75554 19
65 1 -1.0381 14.3087 11.7429 11
66 1 -6.659 1.55927 -7.72099 14
67 1 -6.58715 7.83301 15.2289 15
68 1 2.90764 7.06321 -6.21555 18
69 1 5.23221 1.14451 8.3069 19
70 1 1.46855 -13.8552 8.27841 18
71 1 4.94941 5.51886 12.8611 18
72 1 9.51777 -17.1531 -1.9215 20
73 1 7.44814 8.33375 13.9019 18
74 1 -7.80081 0.526592 -4.76927 18
75 1 -8.17657 3.28789 -3.03849 14
76 1 7.93341 6.28348 12.6987 21
77 1 17.5076 -5.57818 -6.20117 16
78 1 11.0075 -18.9695 5.95333 11
79 1 -12.3525 -4.57088 7.24928 12
80 1 -7.77766 -4.74532 6.10194 19
81 1 8.55407 16.0157 8.27469 13
82 1 11.2454 -6.5768 20.1551 6
83 1 -9.43299 -11.9475 11.1521 15
84 1 -8.0837 -2.27139 4.29411 22
85 1 13.781 -1.9828 11.4311 18
86 1 11.3329 -4.57865 0.68471 19
87 1 2.47376 16.1099 9.10431 11
88 1 8.14931 -3.52121 8.99022 21
89 1 -4.76311 -8.37166 6.83702 23
90 1 2.72085 -9.56824 -7.19677 18
91 1 -8.08372 10.1461 14.8657 7
92 1 -3.61641 11.4018 0.954932 14
93 1 7.76902 4.69592 -8.12758 19
94 1 10.7889 -3.36301 3.46327 22
95 1 8.63137 -0.0376655 -0.759736 21
96 1 14.8807 11.7515 -3.57001 10
97 1 13.7054 -10.3751 3.62121 19
98 1 3.2811 -11.6167 14.5044 18
99 1 -0.657686 12.2508 -1.32459 13
100 1 -3.59913 12.2163 12.544 17
101 1 -0.963784 -8.30865 19.2064 7
102 1 0.88886 6.26124 8.6812 19
103 1 1.63072 -10.0018 12.019 21
104 1 19.7838 -8.75598 -2.24903 12
105 1 -8.80737 2.75415 9.84084 17
106 1 -6.77246 -12.2144 7.38264 19
107 1 17.087 -13.693 -2.43194 12
108 1 13.0336 3.87717 -7.02734 19
109 1 -1.95963 -5.52408 -12.4006 13
110 1 5.78888 -1.47813 10.1619 19
111 1 3.21501 5.50689 6.46717 18
112 1 -0.535078 5.48498 -9.7087 13
113 1 5.3362 1.87012 18.9031 16
114 1 5.21771 5.6389 -5.39384 19
115 1 -8.2591 7.45664 8.91469 17
116 1 2.44263 7.61106 2.49741 16
117 1 1.81317 -9.90688 16.6125 11
118 1 16.4472 -1.40605 13.5263 16
119 1 5.28011 -7.46323 -3.45922 19
120 1 8.25498 -8.61381 -6.76169 21
121 1 0.25251 3.31206 15.3553 19
122 1 12.3227 -5.85188 12.5592 15
123 1 -5.0029 -11.0615 -1.20653 19
124 1 8.40634 -7.10678 5.19269 20
125 1 -1.63065 -16.1238 -2.01881 20
126 1 15.008 -13.0544 3.76778 15
127 1 0.0567902 6.75147 5.6094 23
128 1 12.0006 -0.276259 -10.8132 19
129 1 10.3368 14.8187 -1.40545 10
130 1 -4.60593 -14.7061 12.9728 16
131 1 -6.57381 -16.1677 8.21364 9
132 1 -1.88113 -0.120843 -1.37932 20
133 1 9.75154 -10.7321 -14.5813 10
134 1 10.171 4.94516 -5.40872 20
135 1 16.6753 -10.7454 1.80838 16
136 1 3.64512 -15.1745 6.49282 21
137 1 -5.09613 -7.99304 3.00241 20
138 1 17.5641 2.01577 9.76008 16
139 1 19.3038 -3.49096 -4.54958 13
140 1 -12.1995 -7.79249 8.42498 12
141 1 15.5741 5.49224 7.89306 23
142 1 17.0231 8.61224 1.20027 17
143 1 -2.29881 -1.59694 15.5019 18
144 1 10.6111 7.27923 2.46027 19
145 1 1.47032 8.93278 15.9419 17
146 1 -2.45208 8.84615 0.251273 18
147 1 9.29576 -11.8267 -6.89395 19
148 1 14.6463 -15.7879 -6.89062 10
149 1 7.45665 14.7091 -6.3972 10
150 1 8.5577 2.02983 16.5873 19
151 1 7.03202 -0.193792 -14.9263 15
152 1 0.570744 3.64789 -2.45279 17
153 1 23.0034 1.48467 -0.126731 9
154 1 -7.07903 6.09903 -2.99373 15
155 1 -5.84772 12.0394 7.51678 13
156 1 10.5547 -0.921278 -7.23718 22
157 1 13.6054 -11.9422 0.976519 21
158 1 -5.90572 -1.48014 -4.35085 21
159 1 -3.08611 8.74649 11.6969 20
160 1 18.8971 3.17844 -4.99291 18
161 1 11.3587 7.75717 -0.504763 18
162 1 -1.00816 13.6872 4.55707 15
163 1 18.7695 7.38095 3.75132 14
164 1 0.536065 7.27413 -0.488857 16
165 1 6.3961 16.3317 1.92507 12
166 1 7.79872 7.928 -12.4132 13
167 1 -10.9322 -13.6546 9.6462 10
168 1 -11.0273 6.39627 4.76681 13
169 1 3.99065 -2.12287 -10.2641 19
170 1 6.94847 -12.893 -11.511 11
171 1 11.8918 11.4071 11.7938 14
172 1 1.16099 14.1356 0.887647 14
173 1 -10.4143 -4.95455 1.31011 14
174 1 -6.71573 12.8374 10.3155 9
175 1 22.1131 -4.10799 0.0511608 16
176 1 -3.65844 -1.77728 -7.18171 19
177 1 8.78969 -1.18058 17.7466 17
178 1 9.39883 12.4521 4.2264 15
179 1 2.84972 6.92644 10.5929 17
180 1 2.24244 -6.80305 -8.52722 22
181 1 -0.959884 11.8866 8.74223 19
182 1 0.513731 7.14836 -3.50382 23
183 1 8.1998 -8.43968 15.1412 15
184 1 -7.87702 -7.60444 4.81885 21
185 1 4.32717 -19.8665 -5.89451 12
186 1 -4.75525 3.57101 -1.25285 21
187 1 -3.53682 -17.073 1.88305 12
188 1 4.565 -19.5335 -2.34229 10
189 1 0.506921 11.7592 -4.59867 12
190 1 -9.47659 -0.571355 9.78559 17
191 1 7.72794 2.33603 0.444536 19
192 1 15.9385 6.49172 -7.29257 22
193 1 -4.76195 0.589151 15.8347 17
194 1 -0.463574 -10.8818 14.3719 22
195 1 -2.33793 -1.27448 4.83604 19
196 1 4.23431 13.9297 0.994697 17
197 1 5.2789 10.3471 8.07 20
198 1 13.4887 6.47543 10.5143 22
199 1 -0.679502 11.3911 11.5402 19
200 1 20.704 -5.71014 -2.76803 11
201 1 1.88395 10.7724 13.3683 20
202 1 -3.75884 1.51164 -5.88369 20
203 1 19.7087 -9.17043 1.33633 9
204 1 0.926777 -7.79372 6.30526 21
205 1 -12.2237 -1.68761 9.12728 8
206 1 -2.90599 -9.9441 3.26057 19
207 1 11.347 -3.39692 16.4277 19
208 1 -10.3704 -1.93142 2.81855 11
209 1 0.325014 -13.685 -0.373529 20
210 1 -2.26396 -3.82541 -0.473589 20
211 1 10.5873 -7.70819 -3.0104 18
212 1 4.23234 12.0438 6.07278 20
213 1 -2.24738 -4.19522 6.54044 21
214 1 6.90477 8.37988 10.4721 17
215 1 -4.76597 -5.02486 -1.36108 21
216 1 1.92512 5.10854 -4.50141 20
217 1 -5.22938 -8.44161 -2.70985 21
218 1 -7.72689 -4.37519 13.2781 19
219 1 5.80882 -10.3964 4.74283 20
220 1 13.3379 -16.3025 4.99732 11
221 1 0.505329 4.04501 7.02493 19
222 1 21.2729 -2.4881 7.37534 9
223 1 9.29801 3.28026 -2.22458 21
224 1 -2.72319 -8.89911 -8.19732 18
225 1 10.1468 -3.48797 13.6759 17
226 1 7.49313 -15.131 4.84326 21
227 1 5.57353 1.42478 -5.3459 17
228 1 5.51279 -15.206 -9.31291 15
229 1 14.0081 1.81084 -12.1686 13
230 1 9.29136 5.24366 -13.1488 18
231 1 -3.148 -7.61128 -5.28421 20
232 1 1.23083 10.0051 -2.77962 20
233 1 -5.71156 -13.4825 15.4548 11
234 1 6.94767 14.2157 -0.764196 17
235 1 -6.84746 2.79756 17.3851 12
236 1 -4.79968 8.83393 2.46932 23
237 1 10.0615 -8.7769 10.888 18
238 1 -4.21765 -11.0995 -8.98144 13
239 1 1.67238 9.31972 -6.52978 20
240 1 9.1106 6.0193 -10.6404 17
241 1 0.374691 -16.9118 9.08834 13
242 1 -2.31485 3.729 8.661 19
243 1 0.916836 3.88281 10.0672 20
244 1 2.4929 -14.4622 -7.28141 19
245 1 0.304435 -16.4976 0.60706 19
246 1 16.6156 -13.9355 0.875533 13
247 1 5.3821 -13.3378 3.15454 22
248 1 9.50708 9.1188 17.3435 13
249 1 10.7957 8.64376 -6.44368 18
250 1 8.83478 5.74351 -0.0316136 18
251 1 -5.57069 2.62907 7.86451 19
252 1 -9.37267 8.99144 5.93458 9
253 1 5.12002 7.41016 8.24175 20
254 1 11.1433 -16.1176 0.466364 19
255 1 18.3137 4.51761 -2.16852 17
256 1 5.40272 3.63439 5.99343 20
257 1 -0.218535 8.46661 13.4145 21
258 1 -5.13961 -10.0097 -5.64925 17
259 1 12.0103 4.21613 -13.8348 11
260 1 5.64621 -5.17187 11.526 19
261 1 13.4511 10.0404 -10.1707 8
262 1 11.2032 -13.8528 -7.4284 22
263 1 5.1449 -4.68886 -9.06173 21
264 1 9.24131 -20.5233 3.04907 11
265 1 16.5575 -6.12351 -9.13138 16
266 1 -6.84649 -7.11272 12.9779 18
267 1 12.3345 -17.9652 -2.09421 11
268 1 -7.11055 -6.01529 -3.50165 19
269 1 9.62334 11.6239 -0.591246 20
270 1 7.80635 -4.09295 -14.5216 18
271 1 13.898 2.21752 18.9273 12
272 1 17.5298 -0.867232 5.61532 18
273 1 -3.11721 -9.40923 -0.0708099 22
274 1 16.8865 -13.0957 -5.6488 15
275 1 2.8443 -9.84109 3.25609 19
276 1 1.81612 -6.60149 -12.1641 22
277 1 -4.83369 -4.38539 -4.38705 19
278 1 -0.212492 -13.5221 12.9863 13
279 1 11.4729 -3.34608 10.8777 21
280 1 7.64592 -7.02421 11.967 19
281 1 0.218665 -10.013 -8.49649 20
282 1 8.31581 -12.0658 5.19233 18
283 1 5.66572 4.90135 -10.365 15
284 1 8.43786 5.78841 3.39354 18
285 1 -2.02898 -6.95874 4.78239 21
286 1 12.7238 9.77646 5.64699 16
287 1 -1.44809 -9.99579 17.1182 15
288 1 -7.79105 -9.3643 -5.27419 14
289 1 -5.86629 -6.57399 -6.37165 17
290 1 0.555869 3.09853 -11.8054 11
291 1 -2.46366 -11.4047 -6.46561 19
292 1 -0.423553 -13.6134 3.16641 22
293 1 17.2488 -1.93262 -6.30148 23
294 1 20.5367 -1.23297 -7.65332 11
295 1 12.2371 -2.5628 5.93036 21
296 1 0.182208 -7.98561 -0.159058 23
297 1 -5.07479 -6.75683 10.1322 20
298 1 2.61106 -12.5975 5.10106 23
299 1 13.9787 1.45205 13.3141 17
300 1 -4.36512 -13.9466 6.60892 15
301 1 8.60642 -15.2595 -0.480657 22
302 1 5.72091 15.9035 -3.11587 9
303 1 13.2087 -1.66152 -8.42512 17
304 1 -2.41271 -11.6305 -11.577 12
305 1 17.8433 -5.47204 1.83965 19
306 1 -2.65088 -11.6468 12.5155 21
307 1 6.58527 -0.945859 19.7274 10
308 1 7.2578 -15.5019 -3.56332 17
309 1 -3.25009 -14.5901 -6.31608 15
310 1 -0.991765 1.32353 -7.54059 22
311 1 10.8998 2.068 7.96618 21
312 1 1.43853 -0.448141 -11.5067 14
313 1 -1.57458 9.31325 -5.68854 10
314 1 -4.65098 -8.8755 12.1987 19
315 1 13.3684 -14.6205 -9.92029 12
316 1 -2.9305 12.7528 6.90866 14
317 1 9.37746 10.5089 9.35039 20
318 1 9.48039 -0.685113 7.07114 20
319 1 -7.28011 -3.15609 8.98919 15
320 1 -3.05099 -7.84575 14.8004 19
321 1 -0.879014 9.11918 7.68222 20
322 1 9.04528 -7.61243 -15.8201 13
323 1 20.7802 4.55827 2.74469 12
324 1 4.90048 -10.6231 1.09336 20
325 1 8.34796 -3.99936 16.8483 14
326 1 -7.6169 -7.68875 7.51018 18
327 1 7.08101 -20.4876 -0.227295 10
328 1 0.446587 10.5763 19.5698 6
329 1 -5.69919 5.99934 18.124 12
330 1 -8.2963 -6.53493 15.3272 10
331 1 -8.76676 -8.55493 10.9686 18
332 1 19.2814 -3.78036 -1.20206 19
333 1 -11.9862 -10.3753 10.8597 9
334 1 13.9835 -4.54426 -10.2696 17
335 1 14.0351 -14.6067 -1.29235 17
336 1 9.14971 15.6726 1.70937 12
337 1 6.06629 -10.3717 8.20421 20
338 1 -6.94544 11.1257 1.93486 11
339 1 2.57111 -1.33226 11.7468 20
340 1 11.1643 3.02288 21.544 9
341 1 -8.93615 2.39621 6.50552 19
342 1 18.295 -10.8202 -4.3383 12
343 1 -0.67232 6.7297 2.48993 20
344 1 -2.65297 4.61919 5.25329 19
345 1 10.4325 -16.2602 6.43903 15
346 1 18.9521 -6.90265 4.27686 13
347 1 1.60742 4.7731 13.0485 17
348 1 -2.27289 -4.73319 -3.83136 20
349 1 1.01391 -1.68406 19.056 12
350 1 3.74818 14.7247 3.78209 18
351 1 13.2379 5.80731 13.6724 15
352 1 -5.29724 9.45764 -1.03215 14
353 1 4.59452 -10.7776 -11.6713 13
354 1 -2.87421 -0.963097 -4.48717 19
355 1 12.5079 -12.1229 -12.5115 13
356 1 -4.39807 2.73643 13.3059 20
357 1 -10.2872 -0.365891 5.27758 15
358 1 2.50974 -6.79146 -5.08176 22
359 1 -3.59671 10.5194 9.04903 23
360 1 2.97073 -6.89742 11.9548 23
361 1 -5.95019 -10.5694 1.57825 23
362 1 11.7236 -13.6554 8.08944 13
363 1 -5.36633 -16.2317 10.5544 12
364 1 -5.46097 5.74367 6.89597 20
365 1 0.708494 -7.26112 13.6776 22
366 1 11.1286 -12.5287 -4.62513 20
367 1 -0.488474 -6.51061 -6.69474 21
368 1 16.5663 -3.41779 -12.2231 8
369 1 12.6559 13.1741 5.57082 13
370 1 -7.58493 -3.59301 -2.41254 20
371 1 10.445 -12.807 -10.871 14
372 1 16.0829 3.83646 -9.21773 15
373 1 -1.52071 -19.0143 -2.9546 10
374 1 -10.29 -4.94987 -2.26676 11
375 1 0.0410228 -10.9651 1.35364 20
376 1 13.2244 -1.16556 18.4454 15
377 1 20.8266 6.73311 5.60964 9
378 1 2.32478 2.0199 -6.11564 18
379 1 10.1621 15.1987 4.78305 11
380 1 -11.8632 4.45874 1.84756 10
381 1 0.236871 8.99675 10.3282 17
382 1 -5.45286 7.5563 9.66549 20
383 1 -0.436488 1.26177 8.48099 21
384 1 14.6767 0.64117 15.9974 17
385 1 15.0877 0.648026 0.666943 20
386 1 9.16875 -7.80246 17.8785 8
387 1 21.7006 -3.77083 3.82093 14
388 1 -2.71088 -14.9333 0.498002 20
389 1 -2.70005 7.88283 4.56535 22
390 1 1.7918 -19.6818 -3.89532 10
391 1 4.15889 4.34736 8.91085 19
392 1 -4.29059 -1.95005 0.0761999 21
393 1 8.05695 -6.32896 -1.89799 19
394 1 13.2168 -8.53015 11.4718 13
395 1 -2.655 -9.89792 -3.71847 20
396 1 -1.76824 -12.8421 9.1412 20
397 1 0.486259 -7.61385 16.467 18
398 1 2.03813 14.0291 6.31365 21
399 1 -5.88244 -13.8532 0.685445 16
400 1 7.12141 6.95274 18.8352 14
401 1 -4.52643 8.96939 6.27478 19
402 1 7.20168 11.6332 -5.833 18
403 1 15.2951 10.3128 7.3896 15
404 1 -6.99638 -11.7115 -3.53445 16
405 1 2.9054 -11.8868 -5.98715 20
406 1 -5.04817 -2.47798 6.30113 21
407 1 -8.27024 8.10901 3.52498 16
408 1 8.15236 -18.1433 8.2096 11
409 1 1.08012 -14.4797 -4.40167 17
410 1 14.928 2.96278 8.2074 20
411 1 10.9318 2.84699 -11.3733 22
412 1 -3.82891 0.106749 -9.09936 16
413 1 3.5154 8.37308 -3.44208 19
414 1 -1.57947 5.53948 -0.645301 22
415 1 5.25843 -16.7863 4.28736 20
416 1 13.6492 5.83016 4.92574 20
417 1 2.96545 4.27889 -7.85977 16
418 1 0.00463823 -1.48798 13.6164 18
419 1 -7.03988 -0.723925 7.02957 17
420 1 -3.17627 1.77081 10.3441 20
421 1 0.0804866 -15.9935 5.77653 22
422 1 5.62735 -13.1414 -3.87636 20
423 1 10.4886 -9.28039 -12.6385 19
424 1 2.95701 -6.83666 8.24263 20
425 1 -11.4714 1.79676 7.89655 13
426 1 -10.6184 -3.25154 11.8744 12
427 1 -8.37408 8.4675 11.8968 17
428 1 5.03854 -7.44363 9.58691 23
429 1 2.49469 -4.42626 -10.3835 19
430 1 16.751 -8.69555 -3.08721 16
431 1 1.49565 -12.1299 -12.0679 11
432 1 0.606806 -5.11773 11.1753 19
433 1 11.0365 -3.06761 -9.07241 16
434 1 -0.92256 -4.3069 -14.7564 9
435 1 13.7646 -9.52589 -3.84581 21
436 1 3.58893 4.57345 -1.40739 15
437 1 -7.22938 9.91237 8.51781 18
438 1 2.02783 -3.00989 16.1144 19
439 1 -5.75695 -8.62179 -8.6176 10
440 1 -4.03588 -7.92622 17.3813 15
441 1 15.3798 -9.6838 9.13155 10
442 1 8.28617 1.49 3.56252 18
443 1 -3.21092 1.3201 3.50993 22
444 1 11.3309 -1.07789 -3.49968 23
445 1 17.9195 -7.92009 7.00806 11
446 1 17.8196 1.36578 -1.74723 22
447 1 -6.02925 6.64925 12.7089 22
448 1 7.98964 8.64663 2.20047 16
449 1 8.31282 -12.4146 1.24024 21
450 1 9.48482 -19.8068 -2.80072 10
451 1 3.2287 5.17545 15.4084 18
452 1 6.70886 13.1103 2.1909 17
453 1 -4.607 -13.9582 -2.32746 16
454 1 17.6149 11.4636 1.47675 10
455 1 4.38833 11.396 11.5293 17
456 1 -7.81161 -1.71594 12.0033 17
457 1 -0.764073 -10.3534 -1.63987 19
458 1 -9.7545 1.15773 12.7865 13
459 1 -1.09193 -12.9676 -3.4803 20
460 1 0.925234 15.7092 4.13299 13
461 1 -0.261439 -15.7119 -8.11514 14
462 1 3.4753 -12.1402 -9.47102 19
463 1 -9.65227 -9.98833 8.56952 20
464 1 -5.00176 -5.15358 4.44442 22
465 1 7.52565 -2.66902 11.965 19
466 1 -2.53968 -13.1265 15.5578 11
467 1 -0.814034 0.859892 -10.8835 14
468 1 11.4024 4.06807 3.00379 20
469 1 -9.02241 -10.6004 4.93664 16
470 1 7.85729 0.461636 -7.60118 21
471 1 4.22972 16.2944 6.20482 14
472 1 3.33181 1.79258 -2.90593 19
473 1 3.21136 7.72486 13.8752 19
474 1 -9.93224 -1.59221 -1.45003 12
475 1 1.07375 12.3628 3.37129 24
476 1 12.4061 11.7434 -7.84344 10
477 1 0.0433438 -10.7803 -4.88679 18
478 1 1.65459 1.39094 18.989 14
479 1 8.90315 -17.8562 -5.81226 16
480 1 5.1529 -7.42589 -7.15514 20
481 1 12.5173 -13.2612 4.46279 15
482 1 -1.33005 6.17347 10.706 18
483 1 3.82631 -0.713535 17.8791 19
484 1 15.1783 3.50298 2.36331 21
485 1 5.27434 8.61131 2.04117 21
486 1 -5.52229 4.12965 -8.36695 10
487 1 17.6709 2.06845 -10.6728 10
488 1 7.46376 -9.06952 2.12355 18
489 1 -10.5396 -8.20202 3.27856 15
490 1 9.79749 13.4857 6.90128 18
491 1 0.338815 -7.21467 -14.8395 11
492 1 17.6578 3.15856 0.779797 20
493 1 10.1069 10.4037 -3.28576 19
494 1 11.5214 -7.87819 -0.115456 21
495 1 22.3737 -1.12952 1.63039 15
496 1 6.86369 -2.18634 -9.09488 18
497 1 6.49002 -19.1689 2.27373 16
498 1 3.78851 -12.8219 8.4717 20
499 1 9.76973 -12.8361 10.9021 13
500 1 -0.0446113 3.81549 -6.72221 17
501 1 -8.38609 -14.0131 12.8867 11
502 1 10.073 -16.182 -8.31787 12
503 1 11.5769 13.4662 1.42522 14
504 1 6.32661 0.56061 -10.9463 19
505 1 0.420216 -4.93319 18.2416 13
506 1 -9.77669 -1.78721 14.8197 10
507 1 6.00888 -17.2693 -0.940023 19
508 1 -10.4783 -6.64482 6.92978 18
509 1 20.0774 -6.34723 0.178738 15
510 1 16.7649 0.578877 3.02594 19
511 1 -5.75984 5.96238 0.279546 20
512 1 5.91224 -13.1995 -7.00692 21
513 1 8.39449 0.257144 -4.23249 23
514 1 18.5228 -8.77565 -9.92189 7
515 1 5.32305 -3.10956 16.933 15
516 1 9.54948 9.30805 4.95824 18
517 1 2.33095 -8.84061 -10.9038 20
518 1 13.0705 -3.04685 -13.5024 12
519 1 -5.14347 -5.04022 7.86221 20
520 1 0.687547 9.678 4.27371 21
521 1 -3.32093 -8.43748 -11.1348 13
522 1 -10.1872 -2.90027 6.85544 19
523 1 3.3043 -15.1562 -11.6914 9
524 1 -0.402928 -11.1733 10.9249 18
525 1 7.52668 3.27854 -5.72515 20
526 1 19.8484 0.775354 8.25333 14
527 1 16.0654 6.44605 -0.356784 21
528 1 -10.0626 -13.1267 7.03706 10
529 1 5.35159 -10.3203 -1.8236 18
530 1 2.5926 -5.26325 -15.2572 15
531 1 -3.03048 5.0934 14.3949 20
532 1 10.8304 -4.48279 -3.152 19
533 1 6.26899 3.32245 3.17523 20
534 1 15.9348 -3.4011 0.6189 20
535 1 8.15354 9.0305 -0.878846 20
536 1 9.0968 -6.51656 1.58312 23
537 1 14.4851 -0.381106 -2.0707 22
538 1 5.87329 5.01031 20.2304 10
539 1 -2.45344 0.234637 12.9627 21
540 1 7.03063 12.632 8.43219 21
541 1 9.61368 -5.62184 10.8709 19
542 1 4.61378 -2.67275 -15.3462 13
543 1 -0.315345 -7.55325 -3.71891 21
544 1 5.59103 2.0115 14.6734 19
545 1 14.426 10.0728 10.5689 13
546 1 12.0875 4.61047 -2.7943 21
547 1 -7.50079 2.25531 -0.00812237 18
548 1 7.36574 11.7522 -2.4473 15
549 1 11.6596 -8.63778 15.7463 8
550 1 15.0796 -1.21118 -11.5855 17
551 1 15.7551 -7.85205 -5.26085 19
552 1 14.6667 7.9356 7.65789 19
553 1 -8.28412 -8.92935 1.6473 25
554 1 -4.05291 6.83227 -5.88075 12
555 1 -0.230342 -1.67014 10.0404 19
556 1 -5.25538 -4.28605 11.5108 21
557 1 -1.91756 8.75358 -2.42678 18
558 1 8.49667 -12.6165 -2.15585 21
559 1 14.4639 -4.66493 -6.98079 21
560 1 3.78459 13.9399 -4.41299 12
561 1 -0.522828 -9.76281 -12.45 13
562 1 9.03215 -17.4867 2.19767 20
563 1 -11.0492 -7.91042 -0.385595 13
564 1 3.79188 10.1747 -8.47603 14
565 1 -1.67159 2.69202 0.49349 21
566 1 1.50324 12.2257 16.4397 11
567 1 -1.32156 -8.40587 12.4095 18
568 1 9.73402 3.90183 5.22571 19
569 1 6.67337 -10.5469 -8.88584 20
570 1 7.78786 -10.7148 12.9247 14
571 1 13.4764 2.2629 -4.37948 18
572 1 -5.20509 3.47997 4.78788 19
573 1 8.95516 3.87301 19.8418 12
574 1 8.66175 14.3894 -3.7313 15
575 1 18.7355 -11.4746 -7.70308 11
576 1 7.89552 11.2184 15.4926 12
577 1 8.08223 3.05647 -10.6664 20
578 1 1.356 -16.5187 12.002 11
579 1 2.8069 -3.82056 -7.131 22
580 1 10.8033 -4.80676 -14.6424 13
581 1 6.38534 10.8174 0.775403 21
582 1 13.6853 1.80676 -9.4588 18
583 1 5.08435 -7.5875 -10.6927 21
584 1 2.99871 -12.6101 1.5313 19
585 1 -0.343729 -7.54233 -9.85676 20
586 1 19.846 -0.703615 3.54464 17
587 1 20.806 3.31669 -0.190859 13
588 1 10.511 -6.42084 -7.32719 20
589 1 14.9914 4.15576 11.2728 20
590 1 11.2344 -9.04681 -5.76739 21
591 1 5.65274 5.75673 -13.2815 11
592 1 15.4024 9.75969 3.9384 19
593 1 -2.43158 -3.64474 10.0104 22
594 1 13.0062 3.26941 15.9212 16
595 1 14.6778 3.23654 -1.38601 20
596 1 18.9649 -3.95873 5.38461 18
597 1 18.26 6.36418 -5.11954 13
598 1 12.7155 3.30904 9.95649 19
599 1 16.4881 1.99237 13.0488 14
600 1 9.00984 -9.59394 7.25919 20
601 1 16.0935 6.34253 3.04181 18
602 1 8.3208 1.65572 6.56047 19
603 1 6.78065 -0.675727 15.8051 20
604 1 20.8187 -1.01089 -1.12973 18
605 1 11.8354 -0.377383 8.95709 20
606 1 -4.72637 0.903112 -2.88395 17
607 1 18.8973 1.93775 5.33003 13
608 1 14.089 -5.90016 0.778476 20
609 1 2.53688 -9.82027 -0.694956 23
610 1 -9.60356 3.80928 15.1985 12
611 1 13.1247 7.92989 16.3153 10
612 1 12.4362 -6.48065 9.16245 20
613 1 3.81719 13.0378 9.24519 21
614 1 1.30861 13.7892 11.6435 17
615 1 8.37458 -0.0405865 9.98022 21
616 1 2.91038 -18.0365 4.71334 16
617 1 -8.53612 2.4101 3.2667 23
618 1 14.1922 7.41743 -2.75004 20
619 1 15.7246 2.90851 -6.46944 21
620 1 3.78266 10.7065 3.36305 18
621 1 3.67933 -15.5783 -3.75055 15
622 1 14.437 -9.94535 -11.2067 16
623 1 -10.6634 5.05834 7.91304 14
624 1 7.19415 -1.8681 -12.5371 22
625 1 -1.73986 -18.6671 -0.136158 13
626 1 -0.224406 -1.54122 -6.72168 21
627 1 -11.0325 1.55612 2.31033 11
628 1 16.4653 -9.66181 5.34547 11
629 1 16.1843 3.34189 5.27819 18
630 1 5.65254 -12.8659 12.2013 16
631 1 -10.0335 1.06867 -3.86146 12
632 1 9.16875 0.793509 -13.1491 20
633 1 3.63659 -15.6402 10.2162 17
634 1 3.78986 7.67573 19.2864 10
635 1 11.4928 7.132 -11.5021 14
636 1 14.7246 -3.01592 15.9917 14
637 1 18.7909 4.42694 -8.02889 13
638 1 14.7868 13.1716 -0.0849779 13
639 1 9.13019 -10.359 -3.83925 16
640 1 -2.44693 -4.83503 16.3171 18
641 1 17.5217 -5.30645 8.06648 18
642 1 6.52927 12.8307 13.3685 11
643 1 9.77826 11.9753 -6.77493 15
644 1 -1.77803 5.40627 -3.85378 21
645 1 13.1948 2.84192 5.54139 19
646 1 -3.06753 -17.294 8.39816 11
647 1 16.5652 -2.46046 3.40063 22
648 1 13.688 6.05444 1.19942 19
649 1 0.472455 7.25542 18.911 12
650 1 -4.87669 -4.8755 1.46024 21
651 1 0.204452 -4.36636 -8.14375 19
652 1 13.8539 -6.30696 15.6186 10
653 1 3.58562 -8.42954 14.6268 20
654 1 16.0028 7.38667 12.1095 12
655 1 -1.67718 11.1995 3.07376 18
656 1 10.5792 6.74828 5.6799 22
657 1 12.1419 -6.96683 2.96845 18
658 1 9.53906 2.62183 11.0755 21
659 1 3.63689 -8.08465 -13.9283 15
660 1 -2.61924 -3.16006 13.2382 17
661 1 16.074 -0.213594 -8.43704 18
662 1 2.67686 -9.3086 -3.43351 21
663 1 14.241 -14.6861 -4.41498 16
664 1 6.55409 8.01675 5.3025 20
665 1 7.23122 5.3691 10.0197 21
666 1 -1.8277 0.442282 18.586 15
667 1 9.74799 4.53525 8.35109 21
668 1 5.88763 0.100499 12.3793 24
669 1 3.19023 2.0907 16.4506 21
670 1 8.37297 -7.21071 -12.5589 17
671 1 -4.07298 4.59452 10.9419 19
672 1 10.5694 5.3927 11.3907 19
673 1 -8.5374 -14.7362 9.73295 14
674 1 22.2441 1.99862 2.91989 12
675 1 11.7187 -15.2699 -2.86231 21
676 1 -0.336505 1.04528 -4.67057 20
677 1 12.7894 10.4129 -1.34739 19
678 1 13.3287 11.5591 2.75805 17
679 1 7.6404 -4.83374 -11.2081 18
680 1 2.41788 -3.9014 13.1893 22
681 1 5.56418 7.74 -0.907041 18
682 1 14.2896 -0.585565 4.97513 21
683 1 -3.36354 -12.1318 1.8333 19
684 1 4.00631 -0.164583 -13.5534 13
685 1 -6.09697 10.3871 4.81698 14
686 1 15.6464 -9.36041 -8.9113 22
687 1 7.44625 5.7964 6.3833 19
688 1 14.1095 8.68962 -7.43438 15
689 1 18.2534 5.82362 1.11006 18
690 1 -0.0627357 0.84699 11.5426 18
691 1 -1.5505 10.5193 5.70452 22
692 1 7.63259 6.60805 -2.67825 18
693 1 10.5422 -3.33082 19.6539 12
694 1 13.3197 -4.60546 18.8518 11
695 1 -2.00959 -15.4625 11.2074 13
696 1 -2.74862 3.03906 -10.3905 13
697 1 6.48522 13.4986 5.24999 20
698 1 13.7909 -9.26837 -14.1653 10
699 1 11.3549 -0.107622 11.7291 18
700 1 11.2011 14.5033 -5.41965 9
701 1 11.4772 7.99588 7.94348 18
702 1 21.6044 -6.42649 3.09557 8
703 1 11.4032 0.380205 16.3347 18
704 1 -10.4437 -6.23285 12.9655 11
705 1 8.39571 -18.0163 5.06847 20
706 1 5.66819 -4.95299 -5.45846 22
707 1 -4.19002 13.8495 10.071 11
708 1 3.96983 2.32509 12.8213 18
709 1 13.0815 -3.49745 -1.70576 17
710 1 8.23614 7.64372 7.95731 24
711 1 -4.21075 -1.20218 9.23748 15
712 1 -3.78937 3.70462 17.4479 17
713 1 1.84533 2.19586 -9.29637 19
714 1 -7.19751 3.74854 -5.39277 14
715 1 11.0083 -13.0586 -0.468612 21
716 1 13.1105 6.53516 -5.39895 22
717 1 9.70964 -9.18986 3.83591 18
718 1 0.390289 3.77275 3.80925 18
719 1 -8.01514 0.170047 15.6003 13
720 1 18.1473 -1.2626 -9.89701 13
721 1 7.24981 -15.4877 10.6651 11
722 1 3.84076 9.96891 -0.566165 18
723 1 -0.626691 4.19134 18.7055 15
724 1 -3.97905 -16.7342 -4.17935 13
725 1 -3.01009 -13.912 -9.34756 11
726 1 0.270739 -13.2582 -10.1785 16
727 1 1.64178 10.1193 0.942549 17
728 1 12.9177 -5.82217 -4.5941 19
729 1 -1.36132 10.7923 14.8165 13
730 1 13.0944 -11.3883 -6.68778 21
731 1 14.1903 -15.5144 2.05078 14
732 1 7.0096 -9.32667 10.4756 17
733 1 21.2235 1.82101 -6.21723 10
734 1 9.05359 -14.1732 -5.30905 22
735 1 -5.27702 -5.77037 15.1519 20
736 1 8.41962 -6.51936 -5.23366 20
737 1 2.39109 -15.4296 3.29232 23
738 1 -5.12162 -17.1878 -0.689646 12
739 1 -6.01326 0.683089 11.4918 17
740 1 -3.20442 -14.8264 3.93338 18
741 1 20.9226 2.06182 -2.80768 14
742 1 1.80378 11.2142 6.48786 21
743 1 -3.19947 1.39511 6.29224 19
744 1 -6.65299 4.60447 9.92088 19
745 1 13.0753 1.57026 3.01676 18
746 1 -9.71913 -0.645812 -7.41726 9
747 1 6.5553 3.71092 -2.28742 18
748 1 13.7911 -1.31462 -5.31548 19
749 1 9.02208 10.9805 12.0893 16
750 1 12.0362 1.75864 -1.74768 20
751 1 -10.4526 2.15216 -0.961461 12
752 1 -7.91881 -8.85372 -2.32953 23
753 1 2.80333 4.40015 18.7715 17
754 1 5.57985 8.95141 -6.57356 17
755 1 15.9796 12.8182 3.50711 12
756 1 -1.14112 3.46652 12.627 19
757 1 3.05695 -18.1223 1.57424 17
758 1 -0.677008 -18.6614 6.90816 11
759 1 3.33253 -9.80937 9.70011 23
760 1 17.1217 7.84968 9.13691 13
761 1 10.2599 -9.91233 -9.428 16
762 1 -7.82197 5.10647 5.39951 18
763 1 12.8266 5.13078 7.75836 23
764 1 -3.15014 -9.15937 9.81092 22
765 1 13.4144 6.12536 -9.47777 12
766 1 1.41495 -17.5019 -1.84557 18
767 1 5.81192 -19.4512 5.98525 9
768 1 5.77926 -16.155 1.66954 22
769 1 10.6303 2.54434 -8.45317 21
770 1 11.9355 12.9187 -2.85604 16
771 1 4.66761 -4.50756 -12.6115 24
772 1 0.657958 -0.0106796 16.782 21
773 1 5.00856 8.1796 -11.3114 12
774 1 -7.80274 -3.87404 -6.49402 12
775 1 -6.02265 -7.58988 -0.0695158 23
776 1 3.62233 15.7455 -1.39878 10
777 1 11.2782 0.14333 5.01489 19
778 1 10.1197 -1.60872 -14.8503 12
779 1 -2.20082 -6.60288 1.69669 19
780 1 17.9285 7.61067 -2.32657 16
781 1 15.5753 -3.23202 6.96372 22
782 1 -2.44946 7.49527 19.9082 8
783 1 10.8006 -10.0433 1.38954 22
784 1 16.464 -5.29213 4.97449 21
785 1 14.8661 -4.48245 12.8982 14
786 1 6.52007 2.27618 10.583 18
787 1 -7.14229 -3.53658 16.4976 15
788 1 -1.82125 1.60447 15.5027 20
789 1 2.8242 -17.7274 8.08929 12
790 1 11.2465 -3.80266 8.28335 21
791 1 12.9644 8.4813 12.7815 16
792 1 -10.6047 -4.68533 4.17706 15
793 1 16.999 -6.41853 -0.83815 16
794 1 -7.94206 8.1825 0.269896 12
795 1 4.66905 6.06085 3.89729 17
796 1 5.81801 -16.6364 7.62285 17
797 1 11.2495 2.66082 18.0263 18
798 1 3.00033 8.69185 6.15175 19
799 1 7.96509 -12.3661 8.69753 16
800 1 -4.48077 -1.86978 3.07037 25
801 1 10.4537 4.02263 14.5627 16
802 1 -9.99491 -10.3648 -0.233028 16
803 1 4.79615 7.13564 16.6114 21
804 1 10.5075 10.3512 1.64116 19
805 1 -11.2278 -10.9906 2.5244 11
806 1 -0.109817 -17.3155 3.1277 17
807 1 8.61381 -6.44738 8.14171 23
808 1 11.9507 -8.46134 6.18868 19
809 1 11.0854 10.307 14.9132 13
810 1 0.838859 3.92529 0.848846 17
811 1 6.16215 -16.4685 -6.32315 19
812 1 4.18982 3.06334 -11.9166 16
813 1 -0.323934 -4.57752 14.7944 21
814 1 7.268 16.4721 5.2737 12
815 1 13.9969 -5.68948 7.27232 18
816 1 6.32529 9.03848 -3.98194 20
817 1 3.38464 13.0619 13.9506 15
818 1 10.4172 8.10975 10.9996 19
819 1 16.0909 -6.91538 -11.6521 13
820 1 -3.77066 -11.6929 7.78161 19
821 1 0.77469 -1.77469 -3.15783 20
822 1 18.3298 -2.17961 8.31283 17
823 1 7.82739 -7.14255 -9.20712 20
824 1 4.28405 15.2535 11.8978 16
825 1 13.325 -12.2897 -2.42804 18
826 1 9.11773 2.34764 -15.2347 11
827 1 2.9966 -12.813 -2.0031 16
828 1 16.1757 0.0996134 -4.51349 18
829 1 19.2658 -2.24092 1.12579 19
830 1 6.48171 -5.96184 14.7619 20
831 1 -0.0761547 -12.68 -7.05234 20
832 1 16.2648 10.426 -1.84758 14
833 1 3.39472 -10.149 6.45639 21
834 1 -9.87796 5.66627 10.9936 12
835 1 19.315 -0.24922 -4.61649 19
836 1 15.6521 -0.38155 8.4439 17
837 1 6.03389 -6.00142 -15.6026 11
838 1 -4.70472 9.93705 15.0255 13
839 1 17.6181 5.00077 10.6842 15
840 1 16.1946 8.81741 -5.14382 16
841 1 8.48666 -4.51514 -7.80452 21
842 1 11.3088 -5.87444 5.85309 19
843 1 -6.78751 -0.639969 -1.42779 21
844 1 13.6466 8.86244 1.15929 20
845 1 -9.8079 -13.6943 0.40266 8
846 1 -8.45861 5.22911 2.19921 20
847 1 8.83554 -0.159939 13.0363 16
848 1 -8.46044 -6.05213 -0.329403 19
849 1 -7.69841 3.66533 12.6835 17
850 1 3.16816 -0.600332 -4.71596 20
851 1 13.6977 -7.69253 -7.46142 19
852 1 -10.5077 -10.6315 -3.06315 9
853 1 17.1779 -10.9272 -0.950012 16
854 1 -6.79741 -0.238011 2.21404 21
855 1 -2.46506 -6.97154 -1.6363 23
856 1 7.73533 3.28816 13.4789 20
857 1 0.717596 -10.3875 8.07202 18
858 1 11.1236 0.180284 19.8926 15
859 1 17.4563 -3.84395 11.233 13
860 1 15.5829 -7.44003 3.16401 15
861 1 -5.83241 0.424394 4.94347 21
862 1 4.66141 10.2736 14.9567 16
863 1 10.7468 1.42051 -5.67075 17
864 1 6.94463 -9.61708 -13.4606 13
865 1 -5.61013 10.1159 11.7004 17
866 1 -2.98781 -6.00594 12.4952 19
867 1 12.4508 9.13344 -4.19337 16
868 1 6.42399 9.41454 17.5501 13
869 1 17.2414 -0.857374 0.503 18
870 1 11.1645 -11.0742 12.7402 11
871 1 3.88193 11.2487 -4.99411 17
872 1 6.57294 10.8446 -10.8209 11
873 1 -1.99642 -2.76482 19.3494 10
874 1 14.0654 0.986757 10.2561 20
875 1 5.70902 -10.2676 -5.48764 20
876 1 21.234 3.50109 6.121 10
877 1 -10.7609 3.60469 5.1982 15