ITEM: TIMESTEP
21000
ITEM: NUMBER OF ATOMS
2000
ITEM: BOX BOUNDS pp pp pp
-30.0 30.0
-30.0 30.0
-30.0 30.0
ITEM: ATOMS id type x y z Coordination
1 1 -2.31263 6.3067 -22.2895 12
2 1 -0.748463 -9.24937 -17.0511 23
3 1 6.65088 14.2704 7.13346 11
4 1 9.61033 -13.1493 -2.36514 15
5 1 -13.3344 7.31367 -3.5441 13
6 1 11.6161 -12.8794 -14.1663 12
7 1 -11.4065 5.69216 -15.8215 12
8 1 0.543741 -7.79534 4.35125 21
9 1 -6.31491 2.23818 -20.681 18
10 1 -12.7045 -12.2384 -2.8913 12
11 1 6.23813 1.57377 -19.2016 20
12 1 -2.0013 -14.9251 -3.68111 19
13 1 -9.72719 -11.199 -4.15405 20
14 1 0.994958 0.790364 12.5302 11
15 1 0.493235 8.94923 -15.9464 15
16 1 3.48278 -3.11028 5.87508 17
17 1 -4.04798 3.2326 -19.7627 22
18 1 -6.67879 -6.31066 8.15747 17
19 1 15.4517 1.71603 -2.76461 12
20 1 1.43554 6.32914 -16.6019 16
21 1 6.55833 5.0047 -20.1145 16
22 1 13.6582 -0.891483 5.73224 16
23 1 -7.34399 2.72866 -17.6575 21
24 1 -11.1422 7.91004 5.07012 10
25 1 7.59163 -13.082 0.612384 14
26 1 3.47252 -12.8991 -18.332 13
27 1 13.1021 -11.0851 -6.49421 13
28 1 -6.66297 -14.5015 -7.50424 15
29 1 -10.2129 -7.28617 7.22724 13
30 1 -0.149798 -7.96394 -21.292 19
31 1 10.8316 -16.5409 -13.3704 11
32 1 2.98011 5.31096 -23.2859 13
33 1 1.2084 3.98958 4.46152 19
34 1 1.06314 -13.7829 1.21508 20
35 1 3.14271 -4.21091 9.19951 12
36 1 -10.0795 -2.20428 -5.88293 21
37 1 -13.3797 -3.44704 2.23806 11
38 1 -4.03319 8.69964 -5.23009 19
39 1 -2.02274 -12.5655 -18.8106 13
40 1 5.37938 -8.30509 -15.2799 19
41 1 3.53703 0.765476 10.7101 15
42 1 -7.33302 5.52885 -5.61947 19
43 1 3.99469 12.285 -18.2663 19
44 1 -1.7642 11.3987 0.546475 21
45 1 -12.4688 3.22783 -13.897 14
46 1 -0.750102 17.2721 -6.3409 10
47 1 3.36799 -11.9462 -1.9486 21
48 1 8.42849 -9.38511 -10.0728 22
49 1 5.52025 -5.69939 -20.6401 12
50 1 -8.12142 7.39427 7.2343 11
51 1 -9.55099 -1.69451 -15.7768 19
52 1 -4.80024 6.17452 -10.7718 16
53 1 -7.2605 -11.8115 1.60677 22
54 1 -3.07404 11.0858 7.83314 8
55 1 -12.1002 4.4081 -10.3109 19
56 1 -5.4852 10.0814 4.56173 13
57 1 -1.83638 -17.577 2.05704 13
58 1 5.50625 -16.8477 -14.5128 15
59 1 8.62498 11.4919 3.78311 19
60 1 -9.4714 2.88226 -19.3859 14
61 1 -9.87469 3.39593 -15.4363 20
62 1 5.90443 9.2234 3.80078 21
63 1 11.2354 -6.05636 -13.8293 23
64 1 10.1064 -11.3262 0.642112 15
65 1 -12.9013 -6.50032 -3.00591 14
66 1 6.52284 14.9583 -2.97998 18
67 1 6.2976 -4.2019 7.17661 15
68 1 -6.62808 -14.2884 0.371897 21
69 1 11.0448 0.281305 -0.730473 23
70 1 0.0288586 12.2773 6.08726 14
71 1 -1.9066 -8.71708 -13.8905 20
72 1 -11.8887 3.40957 0.0939338 16
73 1 -6.93438 8.2568 -10.4505 20
74 1 -0.867125 5.43968 -19.1774 17
75 1 11.425 12.9927 -10.7409 20
76 1 9.49412 -8.97124 4.37717 11
77 1 -5.94057 14.7362 -9.16128 10
78 1 -12.0565 9.54027 -3.1184 9
79 1 -5.54089 -1.5998 7.62249 20
80 1 -4.61806 -8.10512 1.35312 20
81 1 13.442 -7.32937 -12.9227 15
82 1 -7.37484 2.36426 -0.555338 23
83 1 -11.449 -15.1879 -3.95462 13
84 1 12.0588 -13.8657 -8.32189 14
85 1 7.00022 -0.337462 -20.8253 16
86 1 1.46975 -2.27923 -22.1964 13
87 1 1.66081 12.2951 -4.47952 18
88 1 -7.68968 5.35453 -16.5251 18
89 1 0.0346214 12.1026 9.36312 11
90 1 -0.11744 12.8683 -10.7955 18
91 1 -13.8166 8.57269 -5.93614 9
92 1 -4.42549 -10.9794 3.09456 18
93 1 13.8454 -2.09668 3.08394 15
94 1 5.96928 -11.1836 -13.805 19
95 1 6.80979 0.635493 9.249 15
96 1 -9.6889 -8.42644 -6.05407 20
97 1 -7.59463 -8.91965 -10.6764 22
98 1 9.6333 -12.6336 -5.33665 20
99 1 10.1411 4.75537 -21.1862 9
100 1 5.25835 17.4881 -10.8569 11
101 1 -2.04442 -9.18139 6.23924 15
102 1 -7.6692 -14.8684 3.0342 13
103 1 8.0787 -12.6896 -16.7475 14
104 1 9.44329 -9.33972 -6.62065 18
105 1 0.557776 -16.6895 3.41105 12
106 1 -7.00023 -9.20867 -3.93795 23
107 1 14.2295 4.91118 4.80332 13
108 1 13.3436 -6.13593 -16.6662 15
109 1 -12.6947 -6.59184 -6.31342 14
110 1 14.3156 5.78394 1.40258 19
111 1 12.8419 8.59942 -8.30289 20
112 1 0.295724 1.35464 9.63737 20
113 1 -4.74223 9.6372 1.18863 21
114 1 -4.09095 9.05492 -12.1847 23
115 1 1.43385 -7.66922 -15.2407 17
116 1 7.13138 -15.8866 -17.5295 10
117 1 0.75106 13.1929 -16.6725 14
118 1 7.89266 -6.45285 5.51746 14
119 1 1.12195 -5.45599 -20.9181 18
120 1 -1.85401 8.66396 -14.3527 23
121 1 10.9279 1.15816 -9.17629 19
122 1 -8.28986 6.42047 -13.8452 19
123 1 -13.5867 7.28665 -0.142315 9
124 1 6.73945 -2.47505 -15.6719 18
125 1 12.946 -10.0583 2.36508 11
126 1 -3.7171 15.7408 -1.51244 8
127 1 12.7884 6.45549 -14.1514 14
128 1 7.683 12.3892 -12.2066 17
129 1 -2.89528 15.5511 -7.35848 12
130 1 15.2624 15.3149 -9.91833 5
131 1 -6.1592 10.3621 -6.60982 14
132 1 1.74208 16.2116 -17.8407 7
133 1 4.29532 6.9593 -21.1158 17
134 1 -9.93815 -13.404 1.26209 15
135 1 -14.4039 4.82918 -8.55315 9
136 1 -3.92636 0.349098 -20.9883 21
137 1 1.63279 -6.14169 -23.2725 11
138 1 9.24341 11.2093 0.704632 19
139 1 3.91431 14.399 -4.07132 21
140 1 -9.8728 -2.14821 -12.7452 23
141 1 -8.07945 9.80044 1.8555 15
142 1 14.7299 -3.69495 -10.3498 15
143 1 -4.20964 3.32592 -23.0043 14
144 1 8.75903 6.73533 8.14432 20
145 1 7.71229 16.3215 -8.83321 15
146 1 -2.54303 8.44506 2.6839 21
147 1 -1.07489 -4.86684 -23.35 15
148 1 0.450977 12.6148 2.58123 13
149 1 -1.83691 11.1629 -12.5956 20
150 1 0.617424 -4.70603 9.13827 15
151 1 -12.3238 -9.5118 -4.54033 15
152 1 -5.8939 -11.9436 -18.7451 11
153 1 -8.84936 7.69864 -18.9002 7
154 1 -2.38891 -12.2265 -1.9706 21
155 1 7.51827 -18.4591 -12.843 12
156 1 -1.92619 11.2902 -15.8415 16
157 1 -9.78214 1.35646 4.17326 17
158 1 10.4032 11.8743 -13.1402 21
159 1 -3.71449 5.13046 12.1781 13
160 1 3.96936 -12.082 4.95276 15
161 1 6.44059 18.161 -2.21099 13
162 1 0.325798 6.99085 2.63507 21
163 1 11.7926 6.32819 6.30341 17
164 1 -6.4638 11.4578 -0.976814 16
165 1 15.6117 -6.64336 -11.0748 8
166 1 -4.69069 12.9529 2.4387 11
167 1 12.3653 -8.43369 -5.20808 17
168 1 -12.4591 -3.36971 -1.6904 15
169 1 -6.85115 -12.0954 -2.31871 19
170 1 6.27663 7.12355 6.12533 21
171 1 -14.2089 2.27007 -10.8455 11
172 1 0.480043 -19.478 -7.04624 10
173 1 -1.82564 8.42939 -0.46742 19
174 1 5.14531 8.46866 8.54838 16
175 1 -6.61932 11.2159 -10.1784 14
176 1 -12.848 -3.17657 -11.2822 15
177 1 -7.40049 -2.63816 9.4445 15
178 1 0.558248 -11.2222 -0.219889 21
179 1 6.39307 -13.8613 -2.39135 15
180 1 -10.5285 7.01878 1.75989 18
181 1 13.5753 1.32222 -5.12511 19
182 1 -7.64545 -11.4143 -12.3454 18
183 1 5.9309 0.637689 5.92133 20
184 1 2.75637 -20.4751 0.314749 11
185 1 -3.80178 6.05848 -18.0212 18
186 1 6.30107 -13.6958 -19.9892 10
187 1 9.21713 -0.602244 -18.6626 19
188 1 4.58304 10.0221 -20.7419 13
189 1 -4.20767 -4.98548 -13.9144 21
190 1 -3.06315 14.9929 -10.5261 14
191 1 -5.5934 -13.9707 4.66953 10
192 1 9.4765 13.6273 -8.16103 20
193 1 -4.68579 -1.95691 11.2838 11
194 1 -7.80237 8.41333 -5.38409 20
195 1 8.53543 -0.377173 4.46489 19
196 1 -1.13268 -8.43723 -24.3693 8
197 1 -3.74853 10.2075 -18.4828 17
198 1 3.96418 2.36566 -17.2573 22
199 1 -5.38537 -10.9303 5.87293 17
200 1 -9.74515 12.0414 -1.27798 11
201 1 -7.47366 3.14162 6.37302 16
202 1 0.723832 -13.9117 -12.4665 18
203 1 -0.35183 -16.3819 -5.73337 15
204 1 8.97482 -16.5571 -10.5957 14
205 1 9.28551 12.3174 7.06553 15
206 1 5.488 9.30493 -15.4487 19
207 1 -9.46331 10.743 -4.08079 10
208 1 3.80468 6.1 4.34531 20
209 1 0.0751577 -19.8923 -1.58385 12
210 1 10.9396 -2.86534 -8.16006 21
211 1 -7.53676 5.39121 -1.78199 20
212 1 -7.01101 -6.0837 -9.04105 19
213 1 8.6974 6.31482 -18.1241 15
214 1 10.0751 -6.21881 3.01381 17
215 1 8.64333 14.0182 -14.6854 13
216 1 -1.56988 -3.2784 -17.4307 21
217 1 2.92133 -14.9321 -0.835757 15
218 1 8.71289 -3.75589 -13.7209 18
219 1 -9.76031 -2.29977 -2.6173 21
220 1 7.0774 -19.0181 -9.3535 10
221 1 -10.1474 -5.18588 -14.2543 19
222 1 5.91166 14.5916 -10.0058 18
223 1 9.68906 -2.56025 -21.0939 11
224 1 7.77396 3.02261 6.86729 18
225 1 15.8659 2.91913 -6.24954 10
226 1 8.51097 -10.7402 -19.1024 11
227 1 -6.59305 -9.4253 -17.0815 17
228 1 -6.89702 -3.26868 -17.691 21
229 1 -1.08678 -14.1449 3.18094 15
230 1 11.21 0.276941 2.50687 20
231 1 -3.48339 -7.95749 -18.9376 19
232 1 3.29524 5.20156 -18.8857 20
233 1 3.75804 11.3706 -5.85646 23
234 1 -4.81282 -2.19383 4.29905 20
235 1 -13.2633 -9.15026 -10.9856 11
236 1 -1.45775 -6.02894 -15.6498 20
237 1 1.93479 8.97424 -22.6814 10
238 1 -4.78613 -8.26561 -12.4217 22
239 1 11.772 -8.24555 -15.5906 17
240 1 11.8951 -3.2131 -15.5525 19
241 1 11.597 2.77891 -2.77294 21
242 1 -4.29186 -4.83227 6.20709 20
243 1 -1.61483 -12.084 -5.39855 21
244 1 10.6381 5.00508 10.5015 8
245 1 -3.77718 -17.0768 -0.208563 15
246 1 1.03893 -13.7963 -5.57911 21
247 1 2.40901 17.7088 -10.5118 13
248 1 6.64292 4.88192 -23.3142 11
249 1 -7.04609 -3.13428 -21.1838 17
250 1 -8.74141 -12.4953 5.59836 12
251 1 1.42487 9.93376 8.06142 16
252 1 4.17359 -14.7496 -4.17318 19
253 1 -7.89539 -8.96016 -14.2071 21
254 1 -6.57056 2.90307 -14.3055 20
255 1 12.4602 5.42538 -1.70793 19
256 1 -4.60969 3.26496 -16.1174 22
257 1 3.93302 5.55456 -15.2289 20
258 1 5.69586 -14.0275 -15.3532 16
259 1 -1.94451 14.3293 -4.3941 16
260 1 3.84234 8.01264 -1.39313 21
261 1 10.9446 -2.41506 1.38806 21
262 1 -7.10443 -0.568447 1.29976 23
263 1 -1.87879 -6.03222 8.0697 18
264 1 -4.81787 6.74674 -0.528008 18
265 1 3.48072 -11.2692 -21.1949 10
266 1 15.7374 5.39519 -1.51609 13
267 1 6.53799 -17.2368 -4.02736 12
268 1 -2.41414 -0.0485585 8.18992 23
269 1 -12.3395 -6.37278 -0.156073 16
270 1 -1.4355 -20.2993 -4.32051 7
271 1 -9.86781 4.0576 8.54595 10
272 1 -3.6176 1.76452 11.0731 15
273 1 -10.7991 -4.72248 5.49792 16
274 1 -11.9054 -10.2459 0.135692 15
275 1 15.4009 -1.26998 -12.9778 11
276 1 -11.1187 -7.42047 4.10231 16
277 1 8.45566 -6.42765 -15.2452 18
278 1 11.8954 -14.7558 -10.9648 13
279 1 2.59144 16.8287 -5.95219 13
280 1 -9.4511 6.19691 -10.7025 20
281 1 12.2555 16.0715 3.58172 6
282 1 8.74445 -12.5519 -8.41061 17
283 1 -4.16301 9.478 -2.1586 22
284 1 5.8168 -13.0489 2.78844 16
285 1 11.6248 -9.17826 -1.72933 21
286 1 1.13445 -1.77435 10.9116 13
287 1 1.05404 12.0798 -0.662399 16
288 1 9.21772 15.0608 5.21091 14
289 1 -8.49285 8.4908 -8.29328 18
290 1 -1.29031 -2.76108 -20.6889 20
291 1 5.66508 -11.4281 -17.0746 18
292 1 -6.01815 0.520054 9.59123 15
293 1 -9.58007 0.397809 -4.44081 21
294 1 -1.8972 8.25359 -7.37014 20
295 1 8.74838 -3.84909 2.88639 19
296 1 -6.80238 -12.2143 -5.54956 21
297 1 6.92832 -7.37724 1.59072 18
298 1 -7.6321 -9.51371 7.95168 13
299 1 -13.1578 4.98912 -5.45894 15
300 1 2.84781 -12.1639 -11.4301 21
301 1 -3.99755 -2.41062 -15.9241 23
302 1 10.6031 -6.20049 -17.6603 18
303 1 7.13737 12.3353 -1.43202 25
304 1 -10.1329 -2.25814 -9.51982 21
305 1 2.80878 -9.87121 -16.8352 19
306 1 11.0729 0.914219 -16.4059 20
307 1 -4.33619 -13.3365 -12.8141 18
308 1 -12.8018 -12.5323 -9.09697 9
309 1 10.2926 3.51936 8.30856 19
310 1 13.6916 2.54181 -8.50474 17
311 1 -9.58744 0.873372 -16.93 23
312 1 5.32033 17.4162 -5.00886 17
313 1 -12.7225 0.00277799 -12.4112 16
314 1 -7.6681 6.34051 1.07744 18
315 1 -10.6336 9.64919 -6.72288 12
316 1 9.18364 -1.82338 10.1003 9
317 1 11.519 -2.79541 -11.9237 19
318 1 11.2264 -1.39431 8.24335 16
319 1 11.4493 3.89319 -11.0024 17
320 1 -6.65185 -12.123 -9.34151 20
321 1 6.62809 -11.349 -6.90602 24
322 1 12.6143 -4.57977 3.86367 15
323 1 -7.22043 -6.2777 -12.7341 19
324 1 -4.10168 -10.8927 -3.55127 21
325 1 -8.3065 -6.10146 4.58322 21
326 1 1.6283 16.0204 -0.0559964 9
327 1 -9.56277 -11.3348 -7.17404 23
328 1 6.41151 12.0262 9.01698 11
329 1 -7.06004 5.40309 -8.52884 20
330 1 3.74558 12.1463 -15.0696 15
331 1 12.0226 8.97503 -2.62651 20
332 1 -10.4636 -10.976 -11.001 17
333 1 -1.5476 -12.3486 -11.6151 19
334 1 -10.0686 -2.48756 0.669488 23
335 1 -12.0243 7.47781 -8.69247 14
336 1 8.15909 -9.79505 -0.593132 23
337 1 -1.82172 -14.5268 -7.22915 22
338 1 11.0473 10.1225 3.60055 19
339 1 10.179 8.0915 -19.675 9
340 1 -4.43454 8.54217 -21.0057 15
341 1 -2.62826 14.05 -13.9589 9
342 1 -8.77459 3.86093 -12.1975 19
343 1 0.491602 -13.4233 -2.115 22
344 1 14.1458 2.99299 -0.336936 17
345 1 1.78039 11.1341 -20.2182 12
346 1 -12.5138 -0.778979 -6.35776 18
347 1 -4.62795 -14.3305 -2.00814 18
348 1 8.35511 -9.05383 -13.5065 20
349 1 -10.0021 0.345635 -0.976467 19
350 1 -12.4278 -1.51404 5.17375 10
351 1 -12.5601 5.55091 2.89406 14
352 1 -4.76628 0.813936 -23.7351 12
353 1 8.58577 -12.624 -12.3935 16
354 1 -6.65792 -5.96674 -19.2812 18
355 1 -1.59801 -6.21757 4.65896 19
356 1 -1.08258 2.45426 -20.9306 20
357 1 5.54264 -11.318 -0.607423 20
358 1 4.13375 11.3181 -9.19626 22
359 1 -11.0091 10.0123 1.95061 9
360 1 -2.02387 -2.94158 9.96222 15
361 1 -9.7251 -5.04057 -17.3057 13
362 1 -7.01432 -6.13147 1.03489 21
363 1 13.1558 -3.70801 7.1388 9
364 1 11.5937 -5.3221 -0.268427 17
365 1 15.8744 8.85054 -11.1941 9
366 1 -1.96549 2.65659 5.8992 19
367 1 1.08922 12.1236 -7.89332 18
368 1 -4.38565 -14.2207 -9.14196 18
369 1 -1.10677 3.09174 12.4945 15
370 1 4.45374 14.1914 -0.566993 18
371 1 -10.4498 -8.34869 -12.55 21
372 1 13.2481 14.4163 -7.56487 15
373 1 5.80746 6.62911 2.26229 20
374 1 -7.81776 2.62321 2.80067 20
375 1 -6.85391 -0.15263 4.26225 17
376 1 -7.53325 -6.15616 -15.7599 25
377 1 -4.82892 6.72032 3.2359 19
378 1 -9.50594 -13.5739 -9.98882 11
379 1 -8.68453 -9.18696 -19.4285 8
380 1 -8.91793 -14.6163 -1.85283 19
381 1 11.1872 6.42993 3.4423 19
382 1 -4.88576 -4.64807 9.49198 15
383 1 -5.76471 7.79985 -18.4474 19
384 1 9.39581 8.24952 -10.8985 21
385 1 -8.96407 -17.5438 -2.78987 10
386 1 1.13276 15.9351 -3.8174 15
387 1 0.298758 6.18674 6.26082 19
388 1 -11.9445 -3.64582 -8.04529 16
389 1 -0.376227 15.8892 -12.0193 14
390 1 4.66179 14.9929 -16.2113 13
391 1 -4.50566 -5.47071 -17.3393 19
392 1 1.99237 3.51348 11.0507 18
393 1 2.62632 -15.6193 -14.1926 13
394 1 7.12932 -3.49397 -19.2099 19
395 1 6.00035 -19.2616 -0.858876 8
396 1 -13.8328 4.12784 -2.13214 15
397 1 3.08019 6.86365 7.68114 17
398 1 9.16725 8.18592 -7.4112 23
399 1 -6.89251 10.7604 -17.6198 11
400 1 -12.3045 -6.53314 -9.74623 17
401 1 7.94259 18.2711 -5.77473 11
402 1 -1.46191 2.51607 -17.6298 22
403 1 11.775 3.13704 -5.76188 21
404 1 8.47648 9.29027 -14.417 20
405 1 16.0138 -1.03299 -10.2429 10
406 1 1.28841 -2.36124 -18.9997 22
407 1 3.7161 -15.2333 3.33295 14
408 1 1.23804 -10.8271 3.15009 23
409 1 -7.32967 -0.259244 -15.5814 20
410 1 -9.24915 -11.1391 -0.600942 19
411 1 0.598273 -12.0822 -16.7712 14
412 1 9.46168 13.7823 -4.07731 18
413 1 1.42986 0.420527 -17.3892 20
414 1 2.82115 0.61951 7.40619 21
415 1 -14.227 1.73762 0.610604 12
416 1 3.20148 -18.9399 -2.15955 12
417 1 -9.29017 -5.29791 -4.48666 19
418 1 11.0135 -11.9677 -10.8087 19
419 1 11.2399 -2.937 -5.01075 19
420 1 3.47317 -9.01311 -13.4494 21
421 1 6.18553 3.64803 -15.8896 16
422 1 10.6301 -8.62195 -12.2315 21
423 1 -1.98966 -0.411536 11.5214 15
424 1 8.57343 15.0532 -11.3587 16
425 1 -7.1536 -2.07558 -23.7256 8
426 1 7.30194 2.86039 -22.0346 17
427 1 -4.77848 -5.19499 2.77613 20
428 1 -3.89742 13.0435 -8.05672 16
429 1 -4.55095 -2.20793 -22.9214 15
430 1 -12.5677 -1.00299 -3.50106 16
431 1 -3.50425 -10.8791 -17.0962 18
432 1 -5.50213 -16.7063 2.36319 11
433 1 1.05073 9.3872 -12.2854 22
434 1 15.7288 0.354247 3.77003 8
435 1 11.9697 5.86301 -7.58703 19
436 1 -9.51682 -14.0122 -6.71005 14
437 1 -6.0305 -5.23344 -22.8667 10
438 1 -8.45837 8.34448 4.22088 16
439 1 14.1786 -0.411298 -7.71933 15
440 1 4.17709 10.7234 -12.4539 20
441 1 13.0205 2.80939 -14.898 15
442 1 8.39134 6.15756 5.19548 16
443 1 -9.89058 3.55049 1.42648 18
444 1 9.21092 16.1426 2.15726 11
445 1 4.78174 -1.59985 7.8378 17
446 1 4.15569 0.205681 -21.6618 14
447 1 0.648111 -5.01129 6.00917 17
448 1 5.75304 10.7184 6.41904 21
449 1 5.68587 6.87162 -17.2393 18
450 1 -9.11605 9.38692 -11.7148 11
451 1 -6.72189 14.4181 -5.99904 7
452 1 9.81008 -4.38764 7.93929 12
453 1 7.24868 1.02 -16.0428 20
454 1 10.0654 -15.0416 -7.14682 14
455 1 12.8489 12.7043 2.09132 11
456 1 -12.7502 -9.36277 -7.70434 16
457 1 -7.00485 9.41842 -14.2356 15
458 1 -9.48658 -5.00789 8.60665 12
459 1 -4.2939 12.651 -11.1933 17
460 1 3.84953 -11.6304 -8.31466 24
461 1 15.1276 -0.874346 -19.6302 7
462 1 -1.05799 17.4209 -9.36804 10
463 1 -4.03395 -10.9612 -13.5261 18
464 1 2.57416 -17.6077 -5.60273 17
465 1 -9.97512 -5.47824 -7.55034 22
466 1 -1.11956 11.3391 -18.9302 15
467 1 -1.47972 8.97517 9.36001 18
468 1 -9.94587 -8.11497 1.1732 20
469 1 2.96892 -12.3891 -14.3033 19
470 1 1.38776 -7.65019 8.17247 11
471 1 -9.70002 5.91981 -3.78344 19
472 1 7.20533 6.4751 10.9387 13
473 1 3.35229 13.9801 -10.8517 20
474 1 13.7811 -9.64157 -10.6843 12
475 1 3.72536 11.5354 4.12175 16
476 1 4.71466 2.82559 -23.8789 11
477 1 -4.2667 -7.94959 7.77478 14
478 1 11.7983 -1.2129 -19.1279 17
479 1 4.17925 10.9978 0.453668 19
480 1 9.90014 6.83323 -15.4807 15
481 1 -4.71475 -7.98094 -15.3887 20
482 1 -2.19378 -11.87 -8.47266 24
483 1 -8.88783 -0.592905 -20.9376 12
484 1 14.8842 -2.17146 -4.58274 12
485 1 15.3168 5.08486 -11.9244 8
486 1 9.09928 -6.46463 -11.3353 21
487 1 11.1722 9.42054 7.94104 11
488 1 5.86387 -11.5119 -10.3723 21
489 1 3.92968 3.16959 -21.0232 24
490 1 15.1492 12.5736 -5.36145 11
491 1 13.4896 9.63133 6.4566 11
492 1 15.1226 5.99167 -8.22103 15
493 1 12.0072 -11.5629 -3.39563 17
494 1 13.5901 11.0401 -13.2691 15
495 1 10.4675 3.67828 4.60141 19
496 1 13.9937 4.13993 8.19925 9
497 1 11.5172 11.4486 -7.97211 18
498 1 1.80052 4.16036 7.98125 22
499 1 14.0137 -4.43947 -13.9901 15
500 1 12.8948 2.93044 3.36283 16
501 1 -7.20592 -3.14079 -14.2352 21
502 1 15.069 4.35261 -3.88805 16
503 1 -10.2848 4.37066 5.39125 17
504 1 13.9994 11.1285 3.95277 11
505 1 10.6354 1.18049 6.26609 18
506 1 3.17714 8.644 2.39316 21
507 1 6.41967 16.2892 4.06535 9
508 1 0.665138 -17.3405 0.225652 18
509 1 -4.30837 9.75079 -8.89566 22
510 1 15.0745 11.4354 -10.2291 13
511 1 9.44892 -0.888654 -15.1972 21
512 1 1.54217 15.4879 -8.82629 18
513 1 -2.14322 -15.5518 -13.2363 15
514 1 10.7702 -15.4138 -16.5348 9
515 1 -12.8608 2.56032 3.47452 13
516 1 -1.74831 5.36038 -15.4811 21
517 1 -1.53716 -17.6231 -2.10722 14
518 1 -4.28 0.65634 -17.9138 22
519 1 -9.23998 0.513542 -10.6302 23
520 1 12.8947 -12.3929 -0.490312 11
521 1 11.6433 11.6199 -4.47267 24
522 1 -2.00388 -9.11458 2.95885 20
523 1 -12.0642 -0.115665 -9.36103 18
524 1 2.68155 -7.86485 -19.9848 15
525 1 -0.759646 6.61043 12.1747 15
526 1 5.50408 13.8191 -13.3362 19
527 1 11.062 -2.50658 4.89558 21
528 1 9.78336 5.34853 -12.2345 21
529 1 14.7303 9.43674 -5.17627 19
530 1 3.59784 -18.2337 -12.6899 12
531 1 -8.44347 -9.52648 5.67324 19
532 1 14.7369 -10.9464 -3.49798 11
533 1 -3.16855 7.85272 12.4154 8
534 1 4.76395 14.7151 -19.3408 8
535 1 -11.5952 7.08311 -12.4634 11
536 1 10.3598 15.7601 -5.8992 14
537 1 -8.4985 -15.5551 -4.59076 13
538 1 15.2305 -5.58784 -4.98254 9
539 1 7.02254 15.0437 -6.2926 21
540 1 -4.31513 3.69239 4.60694 19
541 1 -9.58418 -8.49067 -2.44427 21
542 1 -4.16741 -2.13203 -19.6835 21
543 1 8.36554 -1.51235 6.89398 18
544 1 1.22049 -10.7466 6.92451 13
545 1 7.94746 9.5285 9.1736 13
546 1 -1.91911 11.6726 -5.64138 16
547 1 9.62471 1.0668 -21.2301 16
548 1 -7.63449 -3.15145 3.02603 19
549 1 9.5939 -3.41332 -17.6688 20
550 1 13.7873 -12.3023 -12.4474 10
551 1 8.64355 2.40459 2.45523 21
552 1 -7.18272 -3.51315 6.67876 20
553 1 9.73345 10.7961 -2.46859 21
554 1 0.9757 -1.42056 7.84589 21
555 1 -1.81225 5.52884 3.8851 21
556 1 -2.56349 -10.0134 -20.2045 17
557 1 -3.77981 3.08451 8.25226 17
558 1 17.2238 6.53919 1.90869 6
559 1 -9.516 -16.9583 0.656515 12
560 1 16.8054 6.56098 -5.2441 8
561 1 6.60501 -14.2791 -5.17114 20
562 1 6.68312 9.237 -5.82965 23
563 1 9.04803 11.304 -5.70571 19
564 1 12.0466 2.17945 -19.2243 13
565 1 6.69283 8.91197 -12.3723 20
566 1 11.6428 8.94529 -5.74533 19
567 1 -7.04562 -9.25594 -7.28237 19
568 1 -1.56219 -6.11298 -19.252 18
569 1 -6.77032 13.7338 -2.6865 10
570 1 8.12567 -6.94506 -18.7516 16
571 1 11.6126 9.83414 -15.605 16
572 1 10.9024 15.0993 -13.5028 11
573 1 12.926 1.6775 8.89824 11
574 1 15.0441 1.77333 6.09438 11
575 1 -1.64897 -11.7769 4.95541 16
576 1 -1.28245 8.38665 -20.7909 13
577 1 6.8406 12.9664 1.38371 15
578 1 12.9939 -7.61259 -18.9263 9
579 1 11.2718 15.4044 -10.0682 13
580 1 9.35193 8.42281 -0.905885 20
581 1 12.025 -14.4267 -4.88822 11
582 1 7.6658 3.47204 10.576 16
583 1 -10.35 -4.99782 1.58641 21
584 1 2.93357 -18.0963 -8.97093 17
585 1 -3.90605 12.7289 -1.09584 19
586 1 6.67253 9.00128 -2.59454 24
587 1 -9.56125 -5.14686 -1.11451 21
588 1 2.91305 6.8084 12.7889 6
589 1 -5.45756 5.96238 -22.1366 11
590 1 -5.9429 11.8007 -20.8112 5
591 1 3.84856 -14.9481 -7.18045 21
592 1 8.86327 11.0107 -10.0272 20
593 1 -11.8701 -0.233444 1.86929 15
594 1 12.5491 -3.64723 -18.7705 16
595 1 3.47363 -12.1158 0.986656 20
596 1 4.47033 14.5761 -7.39045 20
597 1 -0.911817 3.99843 9.3718 20
598 1 -10.1816 -8.22567 -16.1855 13
599 1 -6.76753 -12.185 -15.0232 10
600 1 -1.93018 -12.3965 -15.1283 16
601 1 1.54408 12.6857 -13.0359 17
602 1 6.29366 17.9376 1.58058 9
603 1 5.80213 -14.0518 -12.2134 18
604 1 0.927932 -16.3448 -8.22293 20
605 1 2.92296 -7.03531 3.03324 17
606 1 14.4474 0.58518 -17.545 13
607 1 -2.30695 -18.6393 -12.4945 7
608 1 -10.4626 -1.96479 3.88093 18
609 1 -4.71167 -16.4971 -11.1864 9
610 1 -4.36964 -11.0027 -10.5302 22
611 1 -15.7331 -1.79826 0.353938 5
612 1 -3.66057 -16.8761 -7.7687 11
613 1 13.3963 -0.452074 -14.99 17
614 1 -1.17072 11.0365 -2.90439 23
615 1 -11.6436 1.41817 6.52263 13
616 1 12.141 -2.80619 -2.05098 19
617 1 -9.9776 1.1585 -13.5107 22
618 1 9.68763 2.45912 -13.8896 21
619 1 11.4613 12.2255 5.67297 13
620 1 -11.7928 0.388692 -19.1072 10
621 1 -12.2562 -3.24665 -14.1931 13
622 1 0.636749 9.47218 11.4701 11
623 1 6.99393 6.26649 -14.2678 19
624 1 9.63907 16.7002 -3.19024 11
625 1 -1.63525 -3.04413 6.49991 21
626 1 -1.84045 -15.1572 -10.3226 21
627 1 -5.34389 -16.7958 -3.54218 12
628 1 12.2021 10.9713 -0.674816 17
629 1 5.42563 -9.13252 -19.3301 15
630 1 -7.28522 -6.40222 -2.28976 21
631 1 6.94702 12.0965 -19.7848 10
632 1 0.71202 -16.7209 -11.5634 18
633 1 0.996293 -19.8888 2.16179 10
634 1 0.961909 -19.5477 -10.7858 9
635 1 10.3767 11.1698 -18.6615 9
636 1 3.84519 18.9391 -7.94249 8
637 1 -1.41929 2.15355 -24.636 9
638 1 0.126735 1.05128 6.12947 20
639 1 -2.07406 8.26037 -17.3995 19
640 1 -9.46036 -2.49018 -18.6997 14
641 1 -9.82963 -5.37785 -11.2391 21
642 1 3.10713 16.0846 -13.0682 12
643 1 -3.15303 -7.563 -21.9942 17
644 1 12.0745 12.7627 -15.8463 10
645 1 12.0417 -5.67239 -6.36081 20
646 1 -5.37087 6.98509 6.04225 17
647 1 9.52515 -15.7575 -4.63493 13
648 1 13.6596 -6.40954 -8.26052 14
649 1 13.2263 -7.18609 2.96898 11
650 1 1.18289 9.48871 0.58027 21
651 1 -6.53366 3.03479 10.4635 11
652 1 -7.33711 5.46707 4.40537 17
653 1 -1.18861 -14.9324 0.0692028 20
654 1 8.87599 9.38637 5.60753 21
655 1 -11.9563 -3.96467 -5.04177 18
656 1 11.4686 -8.43934 -9.08217 18
657 1 -4.50727 11.9868 -4.13901 17
658 1 6.34901 -16.2802 1.24449 9
659 1 4.99136 2.44686 8.63522 19
660 1 3.74107 11.2097 -2.46347 24
661 1 7.18167 -10.4463 2.38515 16
662 1 3.86615 3.03276 5.83931 16
663 1 -9.80207 -8.3511 -9.05059 20
664 1 3.31107 12.6536 7.57768 12
665 1 6.17558 12.1259 -4.14184 20
666 1 -11.47 -14.2765 -0.897788 12
667 1 1.27279 -13.8636 5.39582 14
668 1 11.2885 -6.30473 5.75925 13
669 1 10.5129 -8.31095 0.782291 21
670 1 8.62674 5.31769 0.800419 22
671 1 0.460964 -10.8797 -13.6753 21
672 1 -1.56543 -0.212563 -18.6215 21
673 1 -1.99537 -0.113272 4.38427 20
674 1 -0.939446 14.1573 -1.17139 18
675 1 14.2199 -6.39927 -1.46741 11
676 1 2.92263 8.52747 -14.2008 18
677 1 -6.37317 6.33298 10.2041 8
678 1 8.7334 8.24352 2.39905 21
679 1 6.33345 -5.40237 -17.1305 21
680 1 -3.86756 -14.4579 -5.63021 18
681 1 13.8283 -3.0736 0.582171 14
682 1 3.8888 -3.13558 -17.1146 22
683 1 0.649508 6.73249 9.44041 19
684 1 14.4131 -12.4886 -9.30675 11
685 1 8.89411 2.27821 -18.0252 16
686 1 6.42076 8.57908 -19.3107 16
687 1 14.7904 -3.50928 -7.3896 15
688 1 4.26855 -9.82435 2.61932 22
689 1 -0.0689769 -11.3645 -22.0039 10
690 1 7.12136 12.3215 -16.6025 14
691 1 -14.9534 0.933221 -1.97405 9
692 1 12.3432 6.59899 -10.8617 19
693 1 14.4456 11.3887 -2.48056 12
694 1 3.76535 -5.4383 -18.7013 20
695 1 -8.58509 8.45376 -0.822718 18
696 1 14.5192 9.8205 0.928339 12
697 1 13.827 11.3637 -7.65543 18
698 1 3.66969 -0.00717649 -19.0027 19
699 1 11.2285 -5.66627 -2.99906 20
700 1 -9.30547 0.382657 -7.80691 23
701 1 12.2256 6.58706 -4.28089 19
702 1 -11.7244 -12.2939 -5.92499 16
703 1 -6.48749 4.98 -19.9142 18
704 1 6.62791 3.66577 3.82418 22
705 1 -7.25902 0.039358 -12.4648 20
706 1 -10.392 3.16661 -2.446 23
707 1 13.653 -10.3101 -15.9391 8
708 1 -12.9812 -6.1271 -12.8637 11
709 1 7.46408 -16.1788 -7.17467 15
710 1 -12.9817 1.60414 -4.21024 18
711 1 14.4493 7.55033 3.58531 14
712 1 -5.09982 -10.8464 -0.21839 22
713 1 10.0062 0.958515 10.2378 12
714 1 14.5639 -9.34341 -0.0171354 10
715 1 -10.0322 3.19131 -5.76171 21
716 1 0.434967 9.67964 4.07088 19
717 1 8.20835 9.96283 -17.4531 19
718 1 -6.11563 -8.90714 -20.0443 13
719 1 -2.15503 11.4844 3.80782 18
720 1 -10.1239 -10.6491 3.04407 17
721 1 10.5835 8.55672 -13.0548 20
722 1 2.95084 9.08439 5.6128 20
723 1 13.7411 1.47748 -11.349 14
724 1 3.27434 -9.28999 5.65478 14
725 1 -4.3235 11.0145 -14.3673 16
726 1 3.19002 8.96994 -18.1661 18
727 1 -4.75571 0.970924 2.5437 22
728 1 14.0753 -0.369933 -1.57157 14
729 1 1.06276 -5.27937 -17.0436 18
730 1 10.2585 13.5089 1.44077 15
731 1 -12.4325 2.50036 -7.5798 17
732 1 -4.13888 -13.9022 1.52371 22
733 1 0.752097 13.7621 -19.8315 11
734 1 5.92558 -2.20392 4.2729 20
735 1 0.704988 -13.5881 -9.17834 26
736 1 -1.58917 14.5487 1.45072 14
737 1 -10.0709 5.9518 -7.33533 22
738 1 11.1453 0.0828332 -12.6928 21
739 1 1.06397 -10.5641 -19.4739 20
740 1 -6.92074 8.22216 -3.13819 20
741 1 15.9408 8.88983 -7.82796 12
742 1 10.4478 -9.55599 -17.8583 15
743 1 -10.3356 -11.1165 -14.3716 10
744 1 6.18441 -14.4007 -8.86753 19
745 1 -4.04807 7.67973 9.14837 12
746 1 5.87014 -17.0496 -10.7073 17
747 1 -5.10328 8.70674 -16.0246 20
748 1 12.6635 -1.4855 -9.82133 21
749 1 9.05622 8.33276 -4.28167 21
750 1 4.75866 -20.1674 -7.08182 6
751 1 -3.81552 -4.89716 -20.9019 20
752 1 11.31 3.56562 1.00566 21
753 1 0.830484 5.49885 -21.8601 18
754 1 -1.97867 -12.0043 1.45995 20
755 1 6.38783 8.95003 -9.11436 20
756 1 -9.75447 3.29965 -9.12861 18
757 1 -9.11459 0.944168 8.73623 12
758 1 4.58413 4.28551 10.8591 12
759 1 -8.12145 -8.77051 3.16405 17
760 1 6.41581 9.18832 0.662632 22
761 1 1.39204 -16.3122 -3.05448 18
762 1 6.67991 12.1375 -7.54689 21
763 1 -2.14225 8.59743 5.63392 20
764 1 -5.01741 1.00199 5.98509 19
765 1 -11.0759 6.08258 -1.01964 19
766 1 -5.16517 -7.81118 4.64243 20
767 1 6.88664 -11.3311 -3.85485 22
768 1 12.0622 7.8691 0.675329 19
769 1 11.6807 -5.27883 -10.1898 20
770 1 9.71445 -10.5833 -15.5907 16
771 1 -1.53899 -0.258042 -22.5601 16
772 1 1.26633 2.02156 -22.7435 14
773 1 3.53144 16.9226 -1.62773 14
774 1 -11.3808 -10.2084 6.24667 9
775 1 -4.87567 6.33071 -14.3481 20
776 1 -12.4285 0.108801 -15.3894 14
777 1 12.5319 10.0274 -10.8085 20
778 1 -6.53258 -17.5097 -0.515495 15
779 1 12.6338 14.694 -4.06145 11
780 1 -4.49057 -11.6278 -7.14354 21
781 1 7.99874 15.9175 -0.443591 16
782 1 -10.0325 -2.02943 6.9799 14
783 1 3.64534 -14.9448 -9.80458 20
784 1 14.0135 0.546715 1.19484 15
785 1 4.35271 -18.3502 1.69189 9
786 1 5.5718 5.10999 8.32507 19
787 1 11.1255 3.97345 -16.4337 13
788 1 9.39684 -9.65173 -3.61208 20
789 1 4.38506 -2.23311 -20.4765 15
790 1 -11.8532 2.98483 -17.4988 13
791 1 -6.83907 -0.554996 -19.1023 21
792 1 -2.42982 5.77728 7.56092 18
793 1 6.24046 -8.91617 4.29979 15
794 1 -7.1237 -8.89375 -0.243091 22
795 1 15.0309 -2.4325 -16.2424 12
796 1 1.01154 2.99244 -19.0834 18
797 1 14.8767 8.26198 -1.90184 18
798 1 4.04533 15.1871 1.67721 12
799 1 -14.1238 -9.05888 -1.72622 9
800 1 8.92262 -18.0916 -15.5532 8
801 2 -7.32247 0.614196 -17.5419 23
802 2 -7.99432 9.92673 -10.1935 13
803 2 3.34096 -2.10635 -18.7679 20
804 2 -2.16432 3.5872 4.41973 21
805 2 3.79866 -11.4337 -16.9269 19
806 2 -0.8084 -5.29192 -17.556 20
807 2 6.92331 2.49198 8.62714 20
808 2 11.4449 1.93521 3.7648 17
809 2 -11.8794 -11.3221 -4.34998 16
810 2 -8.30467 8.16639 -12.9374 14
811 2 3.29304 12.3104 -0.851901 20
812 2 -10.5361 -0.485196 0.548454 16
813 2 6.76492 14.0592 -11.8095 18
814 2 11.9003 1.6 -4.44735 22
815 2 1.07551 14.4099 -12.2462 16
816 2 5.71801 13.2191 -19.0787 12
817 2 -7.60853 -2.30626 -15.8537 23
818 2 -3.42559 -5.69544 -18.931 21
819 2 3.82821 1.00196 5.59693 21
820 2 9.39888 -8.73052 -15.0186 18
821 2 0.865146 -17.7838 -6.38027 15
822 2 -4.76604 8.8117 -7.36571 19
823 2 -9.69155 2.46167 -10.8656 21
824 2 11.1451 1.97587 -1.26329 21
825 2 9.69877 -11.8737 -13.9219 16
826 2 -12.2036 -8.1789 -9.16407 17
827 2 -10.364 -6.43266 0.225783 18
828 2 -1.61228 -13.9907 -1.65609 22
829 2 7.89284 -9.88588 4.64494 10
830 2 0.177753 -15.718 -9.96002 19
831 2 0.834568 3.05106 9.47563 22
832 2 2.82708 10.7709 -18.7384 18
833 2 4.56911 -16.5494 2.43603 10
834 2 -10.7224 -13.1293 -8.65427 12
835 2 3.67154 3.75401 7.91702 20
836 2 -8.04027 6.90238 -3.92707 17
837 2 0.440753 2.84224 5.90289 21
838 2 -2.11838 9.34697 -12.6248 20
839 2 8.86006 -15.9032 -8.47731 17
840 2 0.280923 11.3702 -12.5821 17
841 2 11.0675 11.8406 1.12228 16
842 2 6.78509 18.2817 -4.06597 13
843 2 11.5888 -0.666243 -14.5988 21
844 2 -0.397014 5.62155 10.4826 19
845 2 1.17564 4.05408 -23.0793 14
846 2 -3.69185 10.4221 -16.2286 17
847 2 14.313 9.98272 -11.8433 11
848 2 -6.01141 -1.35666 9.65081 16
849 2 -12.7426 5.35243 -3.36732 17
850 2 9.31757 0.514636 -13.7048 21
851 2 -4.41628 -9.21456 6.15067 17
852 2 5.20623 -9.22995 -17.03 16
853 2 -3.63277 -3.0455 -21.0586 19
854 2 -9.59309 -6.49279 -2.59555 19
855 2 13.241 4.95409 -3.95696 19
856 2 -2.02144 9.23172 -2.44842 22
857 2 -2.25683 -9.60611 -18.1995 16
858 2 0.30304 14.7708 0.530961 14
859 2 7.7978 -2.22905 5.1833 18
860 2 0.710149 -5.68849 4.44915 15
861 2 13.53 -4.05111 2.20321 16
862 2 3.44441 15.7154 -17.7256 11
863 2 -7.88498 3.60023 -8.95135 24
864 2 14.6722 1.17732 -0.604057 12
865 2 10.3908 -14.1439 -4.24874 14
866 2 13.2484 -11.7311 -14.294 10
867 2 -7.1959 9.50137 3.43009 13
868 2 6.00354 -12.4163 -5.54802 24
869 2 13.4264 -10.9197 0.697077 12