ITEM: TIMESTEP
5000
ITEM: NUMBER OF ATOMS
2000
ITEM: BOX BOUNDS pp pp pp
-30.0 30.0
-30.0 30.0
-30.0 30.0
ITEM: ATOMS id type x y z Coordination
1 1 -9.85337 3.59894 -10.7948 19
2 1 -3.61678 -10.7181 -9.9547 19
3 1 0.43706 10.166 13.0039 22
4 1 9.04774 -11.6856 5.17122 12
5 1 -4.77354 9.56328 -3.08934 23
6 1 9.40652 -8.87823 -11.1607 11
7 1 -11.8458 1.33248 -5.0086 19
8 1 0.632093 -6.8345 10.4819 12
9 1 -9.15947 5.17851 -13.8621 13
10 1 -12.474 -9.58571 1.68917 17
11 1 12.3127 3.51983 -11.9017 9
12 1 -4.43765 -16.7185 -1.89479 12
13 1 -11.8523 -5.404 1.11108 18
14 1 3.73649 4.42399 18.427 10
15 1 0.0358721 1.4213 8.54693 20
16 1 -0.0348204 10.1443 -9.90902 24
17 1 9.15654 -3.82009 9.91666 20
18 1 -10.7503 -0.642108 -12.0573 15
19 1 -12.961 -3.85716 11.7088 10
20 1 14.8702 4.38615 8.45857 19
21 1 -0.976306 12.2552 -12.3015 19
22 1 5.45923 5.02959 -13.3818 22
23 1 14.2638 2.16681 10.4559 17
24 1 -11.0752 4.86114 -5.71123 17
25 1 -11.2691 8.72855 7.13036 10
26 1 8.21726 -11.3686 2.26386 18
27 1 3.10023 -13.4554 -8.64191 19
28 1 12.9288 -11.3305 0.27498 12
29 1 -2.35503 -14.7849 -7.21385 19
30 1 -11.8403 -6.81361 6.75366 16
31 1 4.5459 -8.55775 -16.9081 11
32 1 8.47282 -11.3578 -14.2491 10
33 1 -5.01843 4.439 -16.5243 16
34 1 0.437597 4.43746 13.9548 19
35 1 -0.374389 -12.7627 9.55719 13
36 1 6.77198 -4.1298 14.9073 9
37 1 -8.76439 0.581462 0.00832065 21
38 1 -12.5868 -3.36538 8.4694 17
39 1 -9.00159 0.503068 -3.33612 25
40 1 -1.51478 11.587 -3.22435 20
41 1 -1.10273 -13.196 -13.3347 15
42 1 5.04736 1.58307 -11.9654 19
43 1 2.63991 -9.43524 -10.5046 22
44 1 -1.46638 -2.90075 14.6375 12
45 1 -8.03331 8.59462 -1.08561 18
46 1 1.09757 9.6369 -12.8258 23
47 1 3.25369 15.7102 6.20149 16
48 1 -8.99639 10.0233 -6.69578 19
49 1 2.11946 14.2262 -1.50287 17
50 1 -0.109968 -18.8735 4.18668 10
51 1 11.8678 -9.44456 -5.67931 21
52 1 7.42361 -6.25512 -16.8744 8
53 1 -6.0553 9.544 7.42636 15
54 1 -10.8141 -2.68675 -9.51164 22
55 1 -7.61683 9.14869 -4.38646 18
56 1 -8.13981 -9.62292 6.26172 18
57 1 -4.84551 13.5792 7.82504 15
58 1 -10.7383 3.37556 -2.79654 20
59 1 -10.8927 7.56438 10.0565 13
60 1 -6.44097 -13.5284 5.1876 18
61 1 3.31077 3.89255 8.50027 20
62 1 5.97779 -15.0771 -2.63475 20
63 1 5.47165 8.39633 14.8647 16
64 1 -13.2388 -2.92024 -8.16735 16
65 1 -15.7509 4.66951 -3.58213 10
66 1 5.55101 6.83927 11.8038 18
67 1 9.99787 -5.06553 -8.28081 16
68 1 10.8943 -9.79001 2.68744 15
69 1 -16.1178 -2.05982 0.112683 14
70 1 5.54683 16.7126 3.76472 12
71 1 8.68503 1.38838 13.1381 21
72 1 -4.95668 -10.7595 5.59088 19
73 1 -10.4536 -1.26848 -6.51521 22
74 1 12.1948 4.06874 6.54483 20
75 1 5.2535 13.794 8.16523 15
76 1 6.29711 -1.20113 6.76292 20
77 1 0.0661692 -6.95494 -6.56702 22
78 1 -10.7596 5.42423 6.34079 19
79 1 -7.17866 11.6194 -2.1106 19
80 1 -2.25548 6.1148 -10.0854 19
81 1 9.03408 -2.12052 -4.50274 19
82 1 10.5602 11.4235 -9.08148 14
83 1 8.14697 -7.94004 2.29074 22
84 1 5.82762 -9.641 8.35401 13
85 1 -4.55843 14.1719 -5.84824 18
86 1 -11.5788 12.7896 1.99958 6
87 1 -9.51369 -6.04837 14.3351 9
88 1 -0.388887 7.12091 5.26133 20
89 1 -4.32479 -6.67492 7.03251 19
90 1 11.7373 -14.0206 -5.17255 11
91 1 -8.28095 4.44653 7.83797 21
92 1 -2.78942 -16.9605 0.532373 16
93 1 10.7878 -8.11848 -8.5563 17
94 1 6.1146 -1.26984 -13.2057 21
95 1 -8.87882 -5.63102 -12.9091 13
96 1 0.0407472 13.2678 1.49564 17
97 1 -10.3223 6.82902 -8.50557 17
98 1 0.414929 8.19056 17.4779 12
99 1 0.300676 15.7765 -7.19943 12
100 1 -12.5366 13.4517 -4.65454 7
101 1 3.08019 11.685 -0.00385491 20
102 1 -2.53698 -10.3845 11.1661 13
103 1 14.7475 -0.404319 8.47969 22
104 1 0.490756 -7.14929 -9.85866 20
105 1 8.29729 -9.84743 -6.65074 22
106 1 0.0988229 1.58076 12.2603 20
107 1 6.60511 -1.24981 17.0381 10
108 1 -8.78333 -4.89782 0.396687 20
109 1 -7.5114 -8.51486 -4.38424 21
110 1 13.7652 -7.73078 3.40253 13
111 1 -6.03146 6.61464 2.06663 20
112 1 8.75928 1.50116 -15.7734 13
113 1 9.27758 15.9514 -3.98936 10
114 1 -8.19052 -15.0548 7.3744 14
115 1 -11.3516 -11.2461 5.11071 15
116 1 3.739 -9.15298 -13.4809 25
117 1 5.78545 6.51073 -8.486 19
118 1 15.5238 -8.82626 0.500175 11
119 1 0.367438 -12.6399 3.92885 20
120 1 -9.62845 -10.2328 0.116437 21
121 1 15.6982 8.70217 11.9267 14
122 1 14.6052 -4.04867 -7.00364 9
123 1 -13.3332 -2.55987 0.875481 19
124 1 8.65845 6.6231 6.762 21
125 1 15.728 10.8458 6.28552 13
126 1 -4.77793 -1.56962 13.5081 18
127 1 -4.56144 8.74991 10.3986 20
128 1 -0.174708 12.7727 -8.36562 22
129 1 0.50117 -7.41624 -12.8179 20
130 1 12.4228 -13.8193 -8.82658 10
131 1 1.12294 14.005 -13.4125 14
132 1 8.53407 -5.65965 12.6918 12
133 1 -2.01975 -2.40074 -14.865 20
134 1 -0.40329 6.95599 -8.14379 23
135 1 11.2836 1.23242 -5.00161 17
136 1 -13.1345 9.99442 -5.61179 11
137 1 -6.21159 11.9617 -4.89952 22
138 1 7.88404 0.125281 -10.271 21
139 1 11.0248 -6.21703 2.79252 22
140 1 -2.27992 9.03341 -5.01099 20
141 1 -7.65081 12.3369 7.02624 10
142 1 14.6826 5.74007 -7.87835 11
143 1 8.25183 11.5894 -3.74317 19
144 1 -5.31747 15.4813 -0.537007 11
145 1 13.7808 7.3081 3.54917 20
146 1 0.601168 9.32783 -3.45279 20
147 1 3.9182 14.577 -12.014 13
148 1 1.63919 8.81718 -16.3556 14
149 1 -10.9728 -12.3462 1.90297 16
150 1 -11.8311 6.90728 -0.828825 16
151 1 -2.94165 -4.98706 -13.1547 20
152 1 6.71373 -9.0457 -15.233 16
153 1 11.3826 13.7082 8.03839 12
154 1 0.313202 15.794 6.3179 15
155 1 -15.177 -3.95628 -5.20625 13
156 1 -11.4222 12.068 -1.43798 11
157 1 17.0015 2.98255 3.97938 11
158 1 -13.0773 2.01789 -10.8892 10
159 1 8.44203 1.17285 16.4404 18
160 1 6.55226 16.9172 -2.04904 13
161 1 0.119484 10.1787 6.80722 19
162 1 1.43773 -7.64753 -15.3678 17
163 1 -1.10134 14.2171 8.31803 18
164 1 -0.38548 9.94997 -6.742 22
165 1 1.16694 -2.20383 13.6455 14
166 1 -10.1957 -1.99084 3.87037 20
167 1 -3.11838 -11.946 -15.7198 11
168 1 -8.56806 11.6327 -9.33573 14
169 1 -2.09847 -7.98455 5.16109 18
170 1 4.14093 -17.5795 -4.92945 14
171 1 -2.10315 8.9518 -11.7579 18
172 1 -14.3981 -0.120998 7.28243 12
173 1 9.91977 10.4011 -6.32035 23
174 1 -5.7521 1.33672 14.4779 10
175 1 -0.169954 -9.39792 9.01906 16
176 1 -7.9685 3.26013 -1.31604 20
177 1 1.1831 16.1753 0.638701 16
178 1 0.474596 4.18933 10.1285 22
179 1 14.8243 5.67121 14.6269 15
180 1 -8.07949 12.422 3.92211 12
181 1 13.9525 -7.57252 -7.20399 13
182 1 -5.60298 11.3647 9.56111 17
183 1 -5.13607 4.62498 -9.53859 18
184 1 14.4767 -4.34867 3.4075 15
185 1 -5.15788 -4.32769 5.2208 20
186 1 -11.9555 2.61268 3.61126 21
187 1 -7.88856 -10.9575 3.38285 23
188 1 8.33519 6.80899 13.6149 16
189 1 -14.2054 0.594421 0.280141 20
190 1 -1.98789 -13.861 -1.63151 21
191 1 6.11736 -7.06981 -3.35339 19
192 1 -2.18653 8.88497 1.62029 20
193 1 1.71876 13.1242 14.1078 11
194 1 -7.88821 -2.17031 -4.85714 19
195 1 -5.51946 12.7628 -8.44158 19
196 1 -14.6548 -5.35587 -2.35969 18
197 1 -7.84886 -5.01597 9.38816 19
198 1 2.66084 -10.9183 3.4654 18
199 1 3.42639 -11.0029 6.2567 18
200 1 -11.8815 5.72993 2.05676 15
201 1 15.2199 4.9616 5.28596 18
202 1 8.31698 6.22255 -3.35247 19
203 1 -6.31157 -6.34842 -15.943 9
204 1 8.52323 1.76666 10.0786 22
205 1 8.73531 -15.2601 1.86403 10
206 1 -3.89828 8.79536 -19.3847 5
207 1 5.53095 -12.2899 -7.51969 21
208 1 9.7522 0.0554612 -13.0615 16
209 1 -1.51056 8.31319 -16.4832 13
210 1 -6.34016 -4.54039 -7.90475 20
211 1 -3.01323 15.2666 -8.40631 13
212 1 -5.20721 -7.09942 10.3681 20
213 1 9.62246 15.8911 -0.394533 19
214 1 -7.6812 -3.71758 14.9312 11
215 1 -2.79341 12.0531 -6.45251 23
216 1 11.2487 1.4479 8.06999 24
217 1 -3.25442 -7.86297 -11.5651 18
218 1 -3.12037 9.05833 -8.19681 23
219 1 3.61523 5.86177 -10.5245 20
220 1 -1.50162 -15.0255 7.57734 13
221 1 -2.4891 9.45704 8.05418 17
222 1 -8.38337 9.40445 9.15231 17
223 1 -1.54408 -12.8234 -5.24424 20
224 1 -4.92094 -12.5045 -2.73539 22
225 1 8.68544 -12.9689 -2.32757 20
226 1 12.1359 4.12221 17.0417 16
227 1 8.28472 11.194 -11.5133 12
228 1 3.02561 9.04833 -5.03532 20
229 1 -8.2229 0.817945 3.37553 20
230 1 -10.4271 9.22564 -2.98387 19
231 1 2.64137 6.47552 10.0021 18
232 1 5.11745 -15.5889 1.35483 19
233 1 11.1514 0.995227 -1.66613 21
234 1 3.25507 9.26975 5.07487 21
235 1 -8.36907 7.31921 6.7042 20
236 1 -10.3571 -9.59001 -3.51812 16
237 1 9.95688 4.50906 -14.0621 11
238 1 2.60538 1.29356 10.2477 20
239 1 4.05014 10.1648 -15.8502 10
240 1 3.42073 -10.8696 -3.19461 24
241 1 -2.97579 0.390822 -12.9411 21
242 1 0.119149 -15.6287 4.62944 19
243 1 8.11251 1.13667 -6.87856 20
244 1 -7.41041 -2.42633 6.19706 21
245 1 4.33764 -17.0997 -2.02671 18
246 1 -8.70596 -4.86589 -9.83453 19
247 1 5.47504 12.314 -1.45303 19
248 1 3.0888 -1.369 -14.4505 19
249 1 9.47452 4.42493 15.0463 20
250 1 13.9768 2.31253 3.24373 24
251 1 11.543 -10.9542 -10.3473 10
252 1 -5.02892 -1.60197 -9.54999 20
253 1 -13.6577 -1.97375 -11.2329 11
254 1 -9.78321 -15.5989 1.62628 11
255 1 11.9159 4.20419 9.98259 21
256 1 3.59143 -1.97974 8.41753 22
257 1 -5.18394 -7.02345 -9.5561 19
258 1 4.17403 8.06877 -13.4012 22
259 1 5.9284 9.75294 0.0816046 22
260 1 -7.64278 -8.47991 1.7063 21
261 1 3.34615 16.9013 -2.21062 11
262 1 -4.56402 -1.4814 10.3282 20
263 1 -9.39735 -8.73941 -10.1039 11
264 1 -5.2143 -7.09916 -13.1297 19
265 1 -4.40284 9.58265 -16.545 12
266 1 -7.58763 -11.0408 -5.69584 21
267 1 -2.88347 -10.7744 0.512822 21
268 1 8.46894 -4.85267 -14.1206 14
269 1 12.0102 -2.19517 -8.35334 12
270 1 11.267 4.57185 0.0797988 20
271 1 -4.8561 -4.58134 11.8904 19
272 1 -5.00789 -9.74905 -1.10346 21
273 1 9.10329 0.0448866 19.0609 12
274 1 -4.63261 -15.6445 2.62945 18
275 1 -0.0847217 -12.4597 0.12991 21
276 1 0.306998 12.407 -5.42157 20
277 1 7.6705 2.16787 -13.088 22
278 1 -5.13153 -1.53019 -12.9275 21
279 1 -8.71767 -10.4507 9.81847 17
280 1 6.34769 4.76119 16.7887 17
281 1 3.02688 -10.9826 -0.204501 20
282 1 -4.45861 -13.8085 -12.9502 8
283 1 -8.62861 6.28343 -6.11632 20
284 1 13.1522 10.2402 6.62091 23
285 1 -0.221695 7.09845 -14.5175 19
286 1 0.777 6.75414 -11.202 23
287 1 9.58433 -13.2221 -11.0741 8
288 1 -1.23622 14.0416 -1.276 20
289 1 8.41244 13.6854 8.98521 13
290 1 14.9309 -0.38471 1.61351 18
291 1 -8.35463 0.727952 6.7822 19
292 1 0.850621 -4.1751 11.464 14
293 1 -2.26608 9.1141 4.97911 18
294 1 2.7973 -5.62759 -12.7305 20
295 1 12.9401 10.4584 -4.78433 18
296 1 3.23972 -7.83832 1.97755 21
297 1 0.21206 0.27338 15.4825 13
298 1 -14.791 -3.90492 3.11874 14
299 1 3.24266 -16.4474 -8.20211 13
300 1 -7.8164 7.03077 10.7451 19
301 1 -10.5923 5.43809 12.8089 9
302 1 -12.2974 -6.86284 3.65257 19
303 1 -13.6244 -9.09416 4.77683 15
304 1 16.5473 -4.13626 -1.75319 11
305 1 -9.93509 -12.7314 7.94489 12
306 1 7.59382 -7.17535 -9.13206 22
307 1 11.106 -7.3939 -3.39425 18
308 1 5.9537 14.9989 -6.74597 15
309 1 -5.52693 9.98174 -6.47172 20
310 1 13.1378 6.44424 16.7323 11
311 1 -8.02383 -1.68081 1.72748 20
312 1 11.3185 -11.7381 -7.54833 18
313 1 -4.79702 9.9414 2.9076 17
314 1 -5.62935 7.06673 5.13859 20
315 1 2.31486 -11.1273 8.77036 15
316 1 16.9801 -1.92622 9.59514 11
317 1 0.107949 7.57278 8.64801 20
318 1 -5.81682 -4.1057 -4.67014 21
319 1 -2.73166 1.31097 13.9197 19
320 1 1.06711 12.7707 5.74102 22
321 1 8.99983 3.54869 18.5435 13
322 1 -8.05361 13.642 -6.71625 16
323 1 -3.35463 -4.96282 -16.481 17
324 1 4.92845 -11.8747 -15.051 14
325 1 -9.10527 -0.0256065 13.0284 16
326 1 -14.7123 2.3939 2.93267 13
327 1 -2.82816 -5.00957 -9.77942 21
328 1 -2.28369 8.83989 -1.5735 20
329 1 9.39725 -1.87203 5.17226 19
330 1 -7.88885 -15.5398 -1.35904 12
331 1 8.3336 -8.68642 7.21486 14
332 1 -5.83348 -11.1461 8.21689 20
333 1 -12.8673 3.48088 0.555809 19
334 1 0.220256 -3.79174 8.40432 21
335 1 6.70284 -12.2652 -4.18385 25
336 1 -3.20118 0.906107 -9.78584 21
337 1 9.21711 -1.79327 -15.8273 10
338 1 2.35346 15.1149 3.32516 19
339 1 -8.83662 1.28669 -6.91691 19
340 1 1.45798 -11.6191 -13.2495 17
341 1 8.93937 5.60201 -10.872 19
342 1 -6.25851 -9.48345 -10.918 13
343 1 -12.6627 -4.38992 -5.5638 18
344 1 -5.08917 -7.03215 0.179284 21
345 1 14.7705 3.06134 16.7707 11
346 1 14.0004 0.487382 -3.50598 17
347 1 -11.2462 8.25685 -5.92545 18
348 1 6.70742 14.5836 0.032309 20
349 1 -13.3773 -2.16216 -2.17975 19
350 1 -8.76949 11.4497 0.617996 14
351 1 -5.09069 9.82316 -0.015883 18
352 1 -3.13917 6.30492 6.8735 18
353 1 12.1941 4.03621 13.4433 20
354 1 7.98915 -4.08201 -6.01204 21
355 1 9.9959 -3.40566 14.7386 13
356 1 10.9132 0.701131 -8.31101 18
357 1 -5.30072 -15.6167 -7.27551 13
358 1 2.7983 -8.06555 -4.62945 23
359 1 3.08756 9.08936 1.995 20
360 1 -8.73436 0.901256 -9.91921 20
361 1 5.90358 -10.0343 -1.7518 22
362 1 11.2736 1.80493 4.81118 22
363 1 -9.18485 -4.27321 -6.38542 21
364 1 -4.73265 -9.63291 2.35295 19
365 1 -10.6885 -9.22231 12.3732 9
366 1 0.678703 9.42508 -0.0851987 20
367 1 -9.59918 -13.0382 -3.89345 13
368 1 3.28648 7.06575 17.1588 13
369 1 -5.89895 6.84903 -4.72237 18
370 1 2.76823 14.5775 -8.74862 18
371 1 11.7746 11.3049 9.54624 21
372 1 -13.6287 -7.23017 -4.3048 11
373 1 -2.14774 -10.2864 -6.40442 23
374 1 -11.5762 0.587905 5.33326 21
375 1 -13.4324 9.00057 -2.67178 11
376 1 5.52994 -6.5968 7.02939 19
377 1 -3.74056 -14.6791 -4.28639 19
378 1 12.5074 13.8286 2.64196 14
379 1 4.1378 6.55823 -16.3117 18
380 1 -12.464 6.39128 -3.63899 19
381 1 -2.06512 15.0054 -11.9763 8
382 1 -6.09647 6.99738 -7.72312 20
383 1 -2.73706 -14.0629 4.74532 20
384 1 14.5496 7.09875 7.19483 18
385 1 2.35355 5.52868 -13.9413 19
386 1 -2.6944 1.02065 10.601 20
387 1 -17.107 0.0738576 -1.95041 12
388 1 -4.94967 3.84313 7.21012 21
389 1 -5.10685 -14.4544 -0.280264 20
390 1 4.13421 -11.5967 -11.1596 19
391 1 -12.7509 4.9623 8.47812 12
392 1 -14.7126 -1.72704 9.29148 8
393 1 -13.6998 2.88569 6.31373 14
394 1 -0.35325 -6.81221 7.18459 23
395 1 -11.867 4.00882 -13.6562 8
396 1 6.8045 -13.0873 -12.1616 12
397 1 -0.928836 -10.009 -11.1559 20
398 1 -2.39334 -4.46699 7.0363 19
399 1 -5.46154 1.29669 -17.7836 13
400 1 5.49781 -9.86026 1.872 22
401 1 2.45152 8.4964 -8.49403 20
402 1 -10.9288 8.0504 4.62101 16
403 1 -2.67907 -6.20301 14.6614 13
404 1 -11.1621 -5.5833 -11.2126 14
405 1 -9.52808 -6.87791 8.20768 16
406 1 13.3395 -3.81313 9.34529 13
407 1 2.6582 0.411143 -9.57642 22
408 1 11.3218 -3.7739 5.33884 19
409 1 15.3686 8.83432 -5.53896 10
410 1 -6.24859 0.603533 11.4605 21
411 1 2.29966 11.7383 -2.88676 21
412 1 13.8998 -5.63685 6.23095 11
413 1 -0.789647 -15.5692 -4.0329 20
414 1 -6.63523 4.53704 13.6655 11
415 1 -1.88394 11.7056 3.05294 18
416 1 -9.80014 -9.19096 -6.84899 13
417 1 12.7562 14.7636 -0.315218 11
418 1 2.76549 6.73071 6.65153 20
419 1 -2.24124 3.56131 8.49659 21
420 1 -4.99045 -7.22821 -3.11762 21
421 1 -5.82373 6.77155 8.53058 20
422 1 -7.909 -7.05984 -7.66272 24
423 1 -1.96355 12.555 6.06221 20
424 1 -4.59415 -12.6821 -7.36565 26
425 1 -3.85742 -8.36534 -15.9766 13
426 1 -4.64355 -12.4811 2.55831 20
427 1 8.37342 1.06653 6.90508 20
428 1 -4.41856 -8.80414 13.2625 13
429 1 -10.863 7.13899 -11.8331 15
430 1 8.17914 6.04638 0.154414 22
431 1 -7.92148 -13.7297 -6.92226 14
432 1 -2.21191 16.727 0.1906 14
433 1 0.767833 3.97305 -9.56925 21
434 1 -1.32501 9.69742 10.6357 22
435 1 -16.1012 -1.38222 -3.72623 16
436 1 3.85891 16.9862 -7.13856 9
437 1 6.92899 12.2298 -6.66593 18
438 1 -2.44317 -7.6664 -8.10024 20
439 1 2.08421 2.92777 15.3134 18
440 1 5.8221 -15.2223 -6.32721 16
441 1 -0.104704 -4.68044 -14.6104 21
442 1 10.3687 -12.9686 -0.00510187 15
443 1 -10.3673 8.94512 1.3904 14
444 1 4.30748 4.98957 14.8279 18
445 1 11.0609 7.22466 -1.57521 20
446 1 3.24694 8.51342 -1.62986 19
447 1 -8.01823 9.29742 -11.9963 16
448 1 3.51109 3.39339 -7.86858 21
449 1 3.55899 -8.36927 4.80288 22
450 1 -17.3673 -3.64942 -2.24836 10
451 1 4.97665 13.8464 4.87614 23
452 1 -5.87109 4.10824 -13.1658 20
453 1 13.8439 5.96593 -0.41836 16
454 1 10.8845 13.3363 -6.31336 13
455 1 12.0826 -14.0411 -1.8916 11
456 1 16.656 2.54124 0.894891 13
457 1 -0.458691 1.31026 -14.9175 19
458 1 0.664535 -9.64348 1.71896 20
459 1 3.34578 -14.5084 4.43666 16
460 1 2.59435 -8.07756 8.02877 21
461 1 -8.48673 3.92244 -7.99688 20
462 1 -9.60971 -13.7166 4.89218 17
463 1 -1.21415 -12.6343 -8.44374 18
464 1 8.16782 15.2711 3.12098 19
465 1 -0.281795 4.19253 -13.2379 18
466 1 6.4662 -1.55374 13.3946 16
467 1 -11.4327 -0.821411 11.5287 16
468 1 -0.897535 -18.9207 1.1049 14
469 1 -10.7439 -2.31438 -3.12219 22
470 1 16.3193 -5.5018 -5.12223 11
471 1 10.8964 -4.21035 -4.66018 19
472 1 -3.03058 6.0631 -6.21513 21
473 1 3.08002 -7.77892 -7.89883 22
474 1 2.62135 3.50421 -11.7042 18
475 1 6.37085 -4.46887 -11.1266 20
476 1 -6.06382 -6.47091 14.8517 12
477 1 4.29662 16.3654 0.835015 14
478 1 -8.08206 -1.00133 -13.992 15
479 1 5.30721 3.41238 -16.758 13
480 1 -7.70027 -8.57326 12.6156 15
481 1 -3.4344 14.5447 2.038 18
482 1 -5.84215 1.36291 -11.6174 19
483 1 -10.8962 0.0372589 1.89323 23
484 1 0.332369 -12.5963 -16.0313 10
485 1 -7.08344 -13.3791 10.0522 11
486 1 4.94028 11.542 -9.4171 22
487 1 17.4642 5.75885 12.8578 8
488 1 13.6483 6.6718 -4.00645 19
489 1 -9.33656 -13.0578 -0.75405 15
490 1 0.622392 -9.12565 -1.88098 25
491 1 -5.14482 -1.96586 -15.8996 15
492 1 -7.83829 9.06652 3.27971 16
493 1 2.45042 -5.01047 -9.90792 18
494 1 11.8428 -3.84908 1.75961 19
495 1 8.41168 13.5925 -8.73111 15
496 1 5.58509 -6.72037 3.13325 22
497 1 12.8734 3.40566 -8.58274 15
498 1 -0.204106 11.6394 16.3358 11
499 1 -4.39325 3.32224 10.5564 17
500 1 4.71454 11.4185 13.4902 13
501 1 8.62616 -3.02682 17.4988 10
502 1 -0.34456 0.402741 -18.4267 14
503 1 -5.17205 -6.93729 -6.31014 22
504 1 6.25726 -4.59183 11.463 15
505 1 7.80644 9.96938 7.88124 19
506 1 3.26483 9.4145 -10.8003 21
507 1 -5.75598 9.37037 -9.97149 21
508 1 2.6317 11.6188 -7.3963 20
509 1 11.1951 -3.66314 11.8907 14
510 1 12.2533 -0.340387 -11.3443 11
511 1 14.7286 -8.91016 -4.9577 15
512 1 11.9214 6.85508 7.69499 20
513 1 -11.9782 -7.99092 -1.94821 15
514 1 -6.1515 11.7891 -11.4706 12
515 1 0.643306 -0.882641 10.2614 19
516 1 -10.0113 -2.6105 10.0967 19
517 1 -3.16685 11.5204 -9.75727 22
518 1 3.32476 -13.1091 -5.04628 19
519 1 5.35924 -4.62225 -7.98678 20
520 1 -1.50626 14.6062 -4.70721 18
521 1 -6.56748 -4.03865 -14.2909 18
522 1 5.7671 -11.2383 4.59921 16
523 1 -15.5463 -5.05677 0.238037 16
524 1 0.37736 11.6482 -15.593 14
525 1 -1.77425 12.2906 13.5241 16
526 1 -7.50433 -5.99273 6.04192 21
527 1 11.3309 7.67268 -4.56998 22
528 1 2.89032 -10.6996 -6.80264 22
529 1 0.290534 -5.65806 14.366 8
530 1 -8.98103 5.89738 0.45931 22
531 1 6.32891 1.81331 18.1822 14
532 1 6.50498 14.366 -3.90485 18
533 1 13.631 -6.28848 -4.41102 16
534 1 3.09112 8.99708 11.7068 20
535 1 0.606945 2.71764 -18.6242 11
536 1 -4.91155 -14.0659 7.58136 16
537 1 -0.262666 1.3658 -11.3764 21
538 1 6.64622 -0.116227 -17.5912 11
539 1 13.3663 13.3079 5.93359 14
540 1 11.6671 6.03312 -9.84698 19
541 1 0.484646 -1.76832 -16.3421 21
542 1 -2.17591 -10.5562 -3.06623 23
543 1 -7.69822 -2.20488 -11.162 21
544 1 11.1619 1.68307 1.68289 19
545 1 11.8552 3.58495 -3.38324 17
546 1 9.18096 -5.91086 -11.0822 16
547 1 13.4356 8.46093 13.6763 13
548 1 5.50966 -9.91994 -5.1918 22
549 1 1.4735 6.16804 -17.4204 13
550 1 6.83106 15.6184 6.2255 13
551 1 -7.55056 3.90235 2.09259 19
552 1 9.53297 6.28851 17.3584 11
553 1 11.8224 5.10075 -6.22923 20
554 1 15.3947 -3.41945 6.70909 15
555 1 9.54218 3.8678 -8.14328 20
556 1 11.5589 1.77056 15.2464 19
557 1 15.6826 2.86392 13.3144 15
558 1 5.62507 -3.99646 8.51017 21
559 1 13.398 11.9239 -1.57393 12
560 1 2.97433 0.919996 13.5411 16
561 1 15.3009 -2.61825 -4.1465 15
562 1 9.38553 4.35838 11.6387 21
563 1 -5.99806 1.28193 -8.0844 19
564 1 11.0646 7.21954 1.38189 19
565 1 14.0461 -3.27042 -0.437219 16
566 1 -12.3934 2.45347 12.5613 9
567 1 10.3001 9.2026 12.3197 15
568 1 12.2324 -1.10861 13.3209 17
569 1 5.68223 10.91 6.25591 22
570 1 2.05932 14.6564 9.24884 15
571 1 6.13204 4.80423 6.67836 20
572 1 2.26257 -20.216 1.91385 7
573 1 -2.91599 11.7938 -0.155281 16
574 1 10.3224 8.79047 -9.15328 18
575 1 10.4712 -3.24905 -12.838 10
576 1 6.09369 17.7887 -4.57065 9
577 1 0.0914687 -15.3567 -8.93538 13
578 1 5.7444 -6.90572 -12.9845 22
579 1 -11.2432 2.64835 7.5727 18
580 1 -5.12194 6.9909 -11.5323 19
581 1 -3.49364 -19.8255 -0.309578 7
582 1 -2.50374 -2.17263 -11.4659 20
583 1 -15.4671 1.13811 -5.03249 13
584 1 12.5009 -8.27346 0.486474 17
585 1 10.7683 10.6323 0.422746 23
586 1 0.604484 -9.49517 5.54941 22
587 1 -11.4282 2.48153 -7.59937 17
588 1 3.06935 0.572958 -17.0564 16
589 1 0.0452531 7.07092 12.1704 21
590 1 3.27697 11.5225 -13.5646 17
591 1 15.6469 -0.331358 11.6 14
592 1 6.51361 3.63058 -6.54493 19
593 1 13.6627 11.5627 1.25893 13
594 1 7.35627 -17.1093 -4.08045 10
595 1 -10.4269 -6.29692 11.3555 16
596 1 12.2427 -0.86466 6.67281 16
597 1 0.00591797 12.8651 11.0003 18
598 1 6.95245 13.2865 -11.8531 10
599 1 -8.97117 6.15591 -2.68652 22
600 1 10.3753 11.665 6.315 21
601 1 -7.19152 -14.3437 2.36831 18
602 1 13.7206 2.14485 -0.141261 22
603 1 8.62557 12.8542 -0.840585 20
604 1 -2.10362 3.923 11.9475 21
605 1 -7.63785 -7.02589 -1.46807 18
606 1 -7.84581 -1.95662 -8.1928 23
607 1 11.7548 1.59436 11.625 18
608 1 -2.01591 -7.37681 11.5443 13
609 1 11.2826 7.01586 11.3962 22
610 1 -6.04128 12.7685 1.25972 16
611 1 8.90402 3.3753 2.0299 23
612 1 8.88171 3.72973 5.19079 21
613 1 -1.8383 -2.39552 -18.4328 11
614 1 -5.35966 -4.01579 8.53872 23
615 1 5.72825 -1.57508 -9.86517 20
616 1 13.3835 -11.7809 -4.39634 17
617 1 9.37813 4.31937 8.42879 24
618 1 -2.01611 -2.32033 11.9218 20
619 1 10.4652 9.03788 8.40238 18
620 1 3.74189 -1.39802 11.4552 16
621 1 -4.98428 7.89534 14.8968 12
622 1 0.0604641 -3.99516 -11.617 23
623 1 -8.66252 3.00657 12.1691 16
624 1 6.80392 3.95973 13.099 19
625 1 -9.46819 -17.2247 5.00862 9
626 1 13.1836 9.12317 -1.5514 20
627 1 6.00929 -12.5417 -0.368327 20
628 1 8.74309 8.9663 -1.60919 21
629 1 14.3194 10.3441 3.85974 14
630 1 3.56229 -2.34492 -17.4036 13
631 1 2.10998 14.9419 -4.63621 14
632 1 8.67808 8.8488 1.6706 22
633 1 -7.54717 -10.9701 -2.77008 21
634 1 -2.91532 0.855 -20.0104 8
635 1 -9.6396 12.5388 -4.11064 18
636 1 6.09232 -9.41771 -11.8956 19
637 1 9.39659 8.5252 -11.5625 14
638 1 10.5895 13.8149 -3.11458 14
639 1 -5.82364 6.71637 -1.35298 18
640 1 5.49472 6.86774 -5.29574 19
641 1 14.3796 0.514589 14.5349 10
642 1 11.0381 -1.07639 16.3439 13
643 1 -3.4172 -13.0276 9.35717 16
644 1 -5.09135 9.78632 -13.6255 18
645 1 5.96087 10.9707 9.84176 21
646 1 9.31234 -7.62805 -14.2834 12
647 1 5.61043 1.67989 8.42797 22
648 1 7.59789 11.7798 1.73531 22
649 1 10.9693 7.95099 4.50759 17
650 1 16.7361 -6.99464 -2.81369 10
651 1 5.57098 2.12948 14.9929 17
652 1 -14.2854 -5.47461 5.65796 13
653 1 2.30274 -15.6414 -3.38878 21
654 1 0.651631 -1.37894 -9.99872 22
655 1 -6.95523 14.4323 -3.42531 14
656 1 11.353 10.4296 3.4797 22
657 1 -12.9739 -2.40373 5.76201 16
658 1 -1.19378 3.24344 15.9972 14
659 1 -3.18557 6.21546 -13.766 20
660 1 -9.77316 7.98132 -14.5977 7
661 1 3.31735 -14.0661 -0.843775 22
662 1 7.7041 9.6143 -8.62229 21
663 1 -12.191 0.292693 14.9723 7
664 1 4.56641 -7.42362 -10.1788 22
665 1 1.67113 -13.8939 7.18786 13
666 1 -0.17492 16.3967 -2.39241 15
667 1 -4.28225 4.36035 14.7272 14
668 1 -5.73449 -4.37849 -11.3151 21
669 1 -3.06888 -10.6541 -13.319 16
670 1 -5.87835 -13.1092 -9.73418 15
671 1 0.690801 15.2545 -10.5029 13
672 1 8.6084 -9.5768 -3.50215 24
673 1 3.26726 12.0818 7.42229 21
674 1 9.88887 -11.8927 -5.04772 19
675 1 6.96225 -17.442 -0.182967 11
676 1 10.4726 -6.15075 7.16884 12
677 1 12.4942 -1.79058 -5.53512 14
678 1 1.09533 -13.8998 -6.43439 20
679 1 -10.5707 -1.11792 7.58066 21
680 1 -2.79161 -17.37 -5.28591 11
681 1 -4.83852 -10.2406 -4.61191 21
682 1 -8.78846 1.37997 9.31864 21
683 1 -7.25333 -14.6833 -4.24645 13
684 1 13.9971 3.38436 -5.30183 14
685 1 -5.9466 15.3235 3.02976 9
686 1 -13.3789 5.37788 4.72862 13
687 1 12.2106 -1.0311 3.15614 21
688 1 -10.9555 -2.93262 -13.2769 11
689 1 2.71648 6.13782 -6.40814 18
690 1 6.47804 4.07776 -10.0184 22
691 1 9.44341 11.7262 10.7006 13
692 1 15.9007 2.91602 -2.61915 10
693 1 -13.4471 -1.30105 -5.62885 16
694 1 -11.0371 -6.18583 -7.99251 17
695 1 -1.9949 9.35733 15.7405 13
696 1 7.3717 4.53594 -15.4841 14
697 1 8.3637 9.67134 4.75598 21
698 1 -1.99139 -1.76513 8.86188 20
699 1 1.44657 -18.0519 -3.09241 13
700 1 -5.90497 -17.0285 5.89885 14
701 1 -2.23835 -4.94534 10.1667 21
702 1 13.43 11.3768 12.4282 11
703 1 0.614685 -12.5211 -10.7168 17
704 1 -4.343 12.9155 -2.69552 23
705 1 5.47802 10.4209 3.14238 23
706 1 -9.63641 -4.15573 6.9241 22
707 1 7.76686 7.58033 -13.7667 14
708 1 1.04452 -16.812 -6.04225 15
709 1 2.68843 -17.2155 3.30122 13
710 1 0.289948 -15.9043 -0.628101 17
711 1 6.25681 7.5086 -10.9977 19
712 1 7.70039 17.709 1.13994 11
713 1 -5.6059 1.19564 -14.8786 20
714 1 5.74771 1.30728 11.6857 20
715 1 -6.57249 7.54069 -17.5246 9
716 1 -8.59774 2.05916 -13.2625 16
717 1 -11.7049 -4.89601 -1.67077 19
718 1 5.68995 15.2286 -9.62653 14
719 1 -1.82491 -7.17955 -14.8695 17
720 1 -8.78849 -4.5879 3.4071 19
721 1 9.02337 6.94526 -7.01633 19
722 1 15.1203 -9.71726 -2.02718 11
723 1 -4.82882 6.10685 12.1994 21
724 1 10.6893 -8.57643 4.92785 14
725 1 14.5755 -5.80351 0.959027 16
726 1 12.0389 -1.17452 9.78181 20
727 1 2.12733 12.0839 3.20806 17
728 1 -10.4479 -2.63702 13.6075 13
729 1 -6.92089 4.06498 10.3994 23
730 1 -2.5025 -17.2859 4.67572 13
731 1 11.7627 4.63337 3.50753 22
732 1 7.09306 9.40865 12.1601 17
733 1 -13.196 -0.655327 3.18751 18
734 1 8.49391 -10.047 -0.0936171 22
735 1 -11.3152 11.7901 -7.27697 13
736 1 6.57325 -13.69 3.62801 14
737 1 6.74678 -1.29795 10.2399 21
738 1 7.71955 12.703 4.63455 21
739 1 -1.6468 -11.2034 3.1912 21
740 1 -8.23199 -2.40384 -1.60002 20
741 1 3.4827 3.94135 11.9242 23
742 1 -14.6008 -8.24149 -0.761643 13
743 1 -2.90549 8.17331 13.0483 18
744 1 4.78296 12.8746 1.89958 20
745 1 -10.2654 -9.34551 3.38645 18
746 1 -3.45042 -19.3671 3.18865 11
747 1 8.25077 -4.19273 6.76797 19
748 1 14.5542 -3.13125 12.1787 10
749 1 6.21372 7.63793 8.46953 19
750 1 5.727 -9.64183 -8.70261 21
751 1 -2.98603 -0.0731088 -16.2059 20
752 1 -4.29814 -3.74383 15.3939 10
753 1 -0.821004 15.7979 3.48149 14
754 1 14.3573 1.94946 6.50195 20
755 1 4.83313 9.32041 -6.90863 20
756 1 -4.3686 10.8347 12.4801 15
757 1 8.55057 7.05461 10.1763 22
758 1 5.34904 -4.14646 -13.3761 17
759 1 -6.6493 -11.5388 0.430105 23
760 1 17.6216 -1.07939 6.66971 12
761 1 3.43179 -2.31194 -11.3672 23
762 1 -1.56232 6.58012 15.2115 19
763 1 14.1043 -10.7762 -7.78257 12
764 1 1.81011 3.47622 -16.2821 14
765 1 -2.38795 -7.6211 -4.85026 24
766 1 9.89487 2.64552 -10.7657 20
767 1 17.6239 -0.0484762 3.36124 10
768 1 3.17086 -5.47102 9.47827 15
769 1 0.273531 -9.79746 -8.23438 22
770 1 9.92047 13.4208 1.88703 21
771 1 -8.71754 3.17492 5.13252 18
772 1 9.01263 3.26492 -4.96834 21
773 1 16.7259 7.9505 4.21596 13
774 1 1.06161 -4.57237 -17.2565 12
775 1 -5.07162 13.1111 4.81724 16
776 1 15.216 10.6072 9.31088 15
777 1 13.0029 10.7768 -7.71705 12
778 1 5.43892 1.53229 -14.8238 21
779 1 8.0174 -5.1023 -2.71563 20
780 1 -14.6272 1.87684 -2.19747 20
781 1 14.801 5.0809 2.20721 20
782 1 -12.3483 -11.0634 -0.661949 12
783 1 -11.5936 9.40884 -9.22285 10
784 1 6.18258 4.47486 10.1496 23
785 1 -12.2882 -0.0581544 -9.02653 18
786 1 -9.94287 4.60466 9.99959 17
787 1 -2.28415 3.49571 -8.2695 21
788 1 8.20723 -12.5418 -8.5526 16
789 1 -10.3473 -6.9048 -5.13029 19
790 1 11.5537 -5.0989 -1.35394 18
791 1 -16.0171 3.17593 -0.169517 12
792 1 -8.6047 -5.12811 -2.96956 19
793 1 14.3545 13.0138 9.05274 10
794 1 -9.13607 -7.44479 4.97933 17
795 1 11.8626 1.54258 18.5649 11
796 1 14.8695 -0.952506 4.92695 18
797 1 8.29187 -4.60781 3.50551 19
798 1 -10.1896 3.04715 1.21543 19
799 1 3.59003 9.40433 8.40631 23
800 1 6.20752 9.99643 -12.713 18
801 1 -0.420232 -9.86898 -14.7129 20
802 1 -3.09424 15.1781 5.63779 15
803 1 -11.9598 -10.0733 7.89667 12
804 1 7.83849 8.81202 -5.08429 22
805 1 2.09005 7.11753 14.3704 22
806 1 9.0009 -7.29459 -6.05097 21
807 1 7.94063 -6.52291 9.11107 17
808 1 -3.85127 12.4926 -14.3092 10
809 1 4.62371 12.2413 -4.89882 21
810 1 -5.32605 1.35899 8.82495 24
811 1 16.4891 7.17704 9.90792 13
812 1 0.397235 -1.37456 -13.0885 21
813 1 16.0434 7.56846 -2.23874 8
814 1 -11.4677 0.907163 -1.39137 21
815 1 -3.08889 -9.40916 8.17333 20
816 1 1.93193 12.4485 -10.6916 22
817 1 9.60091 -1.06661 11.6338 20
818 1 0.885182 -12.2923 -2.69571 21
819 1 -3.51365 15.71 -2.75215 14
820 1 -14.1202 5.54636 -1.08993 15
821 1 8.93472 -1.70069 -7.8748 20
822 1 2.60253 -10.3026 -15.8863 14
823 1 -8.43835 6.31665 4.01624 19
824 1 13.347 7.88299 -7.09468 18
825 1 -4.82006 -1.33398 6.74704 21
826 1 5.87099 -2.61966 -16.2411 14
827 1 -5.74834 -9.80763 -8.07444 22
828 1 0.652128 -9.66162 -5.02013 23
829 1 1.00482 11.1 9.35956 22
830 1 9.36282 -16.1019 -1.47559 11
831 1 -1.95724 10.0008 -14.4398 18
832 1 12.2762 -1.95983 -2.59204 21
833 1 8.00762 6.32778 3.44176 22
834 1 2.9289 -17.313 0.106941 18
835 1 4.4098 -5.17083 -16.1285 16
836 1 12.1453 -0.948179 0.223907 21
837 1 -2.86874 3.25508 -14.9763 17
838 1 -1.74562 -11.3384 6.63626 19
839 1 10.9409 10.722 -2.71718 21
840 1 5.48296 1.19773 -8.64608 21
841 1 -8.17153 3.51915 -4.51183 20
842 1 -13.3877 1.69994 9.66878 12
843 1 0.453979 5.10347 17.7013 13
844 1 -6.41656 -8.4104 8.18918 19
845 1 5.70384 7.57606 5.02018 22
846 1 -1.97175 -14.0575 1.75737 24
847 1 5.82498 9.64931 -3.24171 20
848 1 -2.28794 6.29625 10.0538 24
849 1 -7.75229 -2.29359 11.6518 22
850 1 -10.7423 11.5096 5.10785 10
851 1 8.84325 3.23326 -1.51779 20
852 1 -5.4596 -10.2052 10.7021 18
853 1 6.41744 -9.07334 5.20679 19
854 1 14.2603 5.85163 11.5629 22
855 1 6.06928 -6.8296 -6.54902 23
856 1 5.98224 -14.1565 -9.30864 12
857 1 -7.83073 3.2837 -15.9509 12
858 1 -3.0246 3.21875 -18.551 11
859 1 10.9339 14.9765 4.80808 14
860 1 -12.4712 -7.29259 9.75809 11
861 1 -7.76078 6.1271 -9.98017 18
862 1 -13.8342 3.82001 -5.36181 12
863 1 10.728 16.7612 2.11726 12
864 1 -7.4538 -17.77 2.99811 9
865 1 0.545609 9.79692 3.45527 20
866 1 13.5173 8.0067 9.45335 22
867 1 -7.94405 -11.254 -9.17184 13
868 1 3.38454 12.0556 10.9615 16
869 1 -7.49655 -1.34497 9.05987 22
870 1 -2.74358 -14.2635 -10.627 14
871 1 16.9975 1.4984 8.839 12
872 1 1.86917 -14.3526 1.88446 20
873 1 2.47607 9.94146 15.4449 16
874 1 -5.793 -6.73361 3.48059 18