ITEM: TIMESTEP
3000
ITEM: NUMBER OF ATOMS
2000
ITEM: BOX BOUNDS pp pp pp
-30.0 30.0
-30.0 30.0
-30.0 30.0
ITEM: ATOMS id type x y z Coordination
1 1 -9.60897 3.83784 -15.3528 13
2 1 -3.54321 -9.10379 -9.98067 21
3 1 2.00771 12.4404 13.2323 15
4 1 8.31316 -10.9124 6.74746 11
5 1 -10.8546 11.6174 -3.09637 16
6 1 10.9324 -6.81414 -11.7375 16
7 1 -10.8644 4.00041 -8.88882 19
8 1 1.25796 -6.51125 10.238 16
9 1 -8.77851 -0.973866 -11.0868 21
10 1 -12.8966 -8.8115 6.01352 13
11 1 14.313 1.17842 -11.0707 10
12 1 -2.85907 -14.4989 1.97194 19
13 1 -15.2089 -4.77105 5.10455 17
14 1 0.561119 4.81798 15.9227 16
15 1 1.4458 4.58881 9.9192 20
16 1 -3.26003 10.7286 -10.2239 19
17 1 1.6972 -1.87815 12.5876 20
18 1 -8.14938 -2.29998 -16.0794 11
19 1 -12.9465 -2.83074 11.0633 18
20 1 14.5272 3.34263 6.77749 16
21 1 -1.36273 9.98029 -12.7632 18
22 1 4.0945 5.00792 -12.8689 14
23 1 15.0866 3.3255 12.1931 12
24 1 -11.83 6.99069 -9.49883 15
25 1 -9.17103 10.5935 9.09171 22
26 1 7.35711 -13.9563 5.57561 13
27 1 2.02151 -15.1847 -12.4198 8
28 1 10.5296 -12.1447 1.43003 16
29 1 -6.11629 -12.9458 -4.49027 16
30 1 -13.4931 -5.85611 11.4422 12
31 1 0.783392 -7.07625 -11.7585 21
32 1 8.96969 -8.03324 -13.5259 12
33 1 -1.46086 6.32024 -17.3604 10
34 1 -0.159427 3.32443 12.9282 20
35 1 -0.454789 -13.5535 7.96787 15
36 1 6.88177 -4.16066 13.1536 14
37 1 -12.7463 1.28735 3.10589 19
38 1 -16.3643 -0.990122 8.33804 16
39 1 -3.39817 13.2638 -2.10491 21
40 1 -3.89119 -15.0848 -10.2098 8
41 1 2.88242 -4.23679 -11.1156 18
42 1 -1.78193 -5.58132 9.93311 14
43 1 -10.675 7.60861 -1.60345 18
44 1 2.32703 10.5289 -11.511 18
45 1 2.69254 12.1314 7.58125 19
46 1 -10.2516 7.44658 -6.66395 22
47 1 0.0975373 15.8581 1.7536 16
48 1 -0.0700528 -11.7027 1.5765 20
49 1 7.23819 -7.72958 -6.73312 14
50 1 5.15668 -5.14438 -15.5635 15
51 1 -11.8134 10.3218 10.6035 9
52 1 -12.7451 -4.19159 -11.2088 11
53 1 -6.72191 7.58125 -6.2154 22
54 1 -8.12826 -12.42 5.85199 23
55 1 -3.52787 15.4514 12.9591 9
56 1 -13.3115 8.44371 -6.80621 11
57 1 -6.69088 11.3542 12.0544 17
58 1 -4.3892 -16.7354 9.44029 12
59 1 6.17302 -15.6147 -2.90944 12
60 1 5.33022 13.1849 14.9518 12
61 1 -13.2417 3.69298 -10.5988 9
62 1 -10.3253 7.91043 -12.4573 10
63 1 5.15134 6.32293 12.5542 20
64 1 14.9299 -2.16133 -10.4694 12
65 1 8.67198 -11.1124 3.84142 16
66 1 -16.7038 -1.88098 4.77552 12
67 1 5.72709 16.857 7.08812 11
68 1 5.08737 -2.41716 11.5937 22
69 1 -5.28736 -14.8164 4.8191 19
70 1 12.5754 0.325213 7.20857 20
71 1 -1.08017 13.1573 9.63721 16
72 1 -2.99919 -5.92534 -8.57784 23
73 1 -11.1878 9.18596 6.93136 14
74 1 -8.85565 10.3219 -1.47406 15
75 1 -3.75887 5.08515 -8.63805 18
76 1 7.13265 12.0279 -7.98766 14
77 1 7.08496 -8.96549 9.52535 13
78 1 -5.38215 14.6045 -3.72268 18
79 1 -8.50373 12.0994 3.1966 16
80 1 -8.30058 -4.16976 15.11 12
81 1 -4.38224 9.53623 6.06996 15
82 1 -7.10469 -4.39837 10.0731 21
83 1 14.6229 -7.28871 -6.54855 11
84 1 -8.46202 4.74699 4.47755 21
85 1 -11.1668 -11.9236 4.18158 14
86 1 12.5284 -9.52573 -7.3272 11
87 1 4.36197 -0.74673 -11.7846 21
88 1 -4.7237 -1.05996 -15.8172 18
89 1 -0.177175 11.73 1.81253 19
90 1 -7.01985 5.4551 -8.78742 20
91 1 -0.165183 9.00817 18.1889 11
92 1 -1.57413 14.8227 -4.11478 20
93 1 -14.3798 12.7585 0.385366 9
94 1 -6.85705 -5.82521 6.89825 22
95 1 12.8371 -1.02531 10.5637 16
96 1 3.17833 -5.89089 -8.64169 21
97 1 6.13134 -1.69601 14.9726 14
98 1 -8.61001 -5.97782 -0.895146 20
99 1 -9.30583 -8.23443 -3.10844 21
100 1 10.7546 -9.4094 1.58252 16
101 1 6.69952 5.14989 -16.4406 9
102 1 4.4047 18.5156 -1.43256 12
103 1 -8.86234 -12.8198 11.1361 11
104 1 -9.36967 -13.2215 8.67468 18
105 1 3.67333 -7.8893 -14.8282 11
106 1 12.5069 -10.905 -1.54502 13
107 1 -1.92512 -15.603 5.33157 19
108 1 -8.54945 -8.35529 0.701471 23
109 1 16.1673 9.99777 9.59862 10
110 1 15.6062 -2.44942 -7.49484 13
111 1 -13.5252 -2.06326 4.29752 19
112 1 10.4382 7.48262 4.50079 18
113 1 15.3927 10.8599 3.76723 13
114 1 -6.02162 4.47283 16.1477 10
115 1 -4.25868 12.3333 10.5246 18
116 1 -7.09485 13.5641 -6.53187 18
117 1 -0.0846157 -5.5136 -8.63099 22
118 1 8.33246 -7.88645 -10.7881 19
119 1 -0.31077 12.6719 -12.0321 16
120 1 8.79381 -1.71153 12.7556 16
121 1 -1.01571 -0.259006 -16.6661 17
122 1 -4.06177 7.54439 -6.33986 20
123 1 9.57348 -4.28918 -6.54981 19
124 1 -11.8374 10.9799 -7.42971 15
125 1 -7.3842 13.5662 -1.64541 16
126 1 7.1104 2.30275 -11.1749 19
127 1 7.47547 -7.2954 4.1186 17
128 1 -6.66883 13.6684 9.19498 19
129 1 13.7191 9.06841 -8.52344 10
130 1 6.9781 9.71823 -3.3387 19
131 1 -2.63258 14.7998 0.390611 19
132 1 8.22478 10.5816 0.264524 19
133 1 -3.67619 11.281 -3.71668 19
134 1 0.130757 14.9755 -9.34792 17
135 1 1.19482 9.97774 -13.8518 14
136 1 -13.8047 -10.7447 1.75743 7
137 1 -15.0993 9.98603 -1.82738 9
138 1 -7.17004 -5.68861 -13.5015 19
139 1 1.40256 -10.361 -15.2368 7
140 1 9.40264 13.4521 9.66488 12
141 1 -0.98178 15.2475 6.97759 17
142 1 -12.1859 -2.76955 -4.60767 16
143 1 -11.7201 13.2989 2.73104 8
144 1 16.6821 0.335135 -2.88502 10
145 1 -10.9761 0.733372 -16.776 7
146 1 6.77633 3.04172 17.7518 11
147 1 3.12194 18.6432 5.78012 10
148 1 -1.77835 8.52671 7.21797 21
149 1 1.85885 -6.8199 -16.4693 12
150 1 -4.38803 15.2817 9.76271 15
151 1 -2.73711 13.1312 -8.73057 21
152 1 3.06844 -3.46475 14.7386 14
153 1 -10.0347 -3.98462 4.47909 22
154 1 -4.39485 -12.359 -12.1988 14
155 1 -6.35241 8.37318 -9.26499 17
156 1 -3.69973 -9.42868 4.61054 20
157 1 4.41658 -13.7866 -4.54688 14
158 1 -4.71098 11.0188 -14.9975 12
159 1 -15.8766 2.02189 9.08809 15
160 1 10.3166 9.40572 -3.72232 21
161 1 -7.83272 6.18796 14.6032 13
162 1 -0.518193 -11.3781 9.44461 11
163 1 0.839553 16.5669 4.66739 18
164 1 -0.358211 7.59145 10.028 20
165 1 13.6362 6.23324 13.4509 12
166 1 -5.54597 13.4896 3.05091 21
167 1 13.2727 -4.42283 -7.81909 17
168 1 -6.52094 14.0349 12.3787 14
169 1 13.6184 -10.3268 1.55946 9
170 1 -17.1241 1.82607 5.94355 11
171 1 -7.27287 -8.62554 6.19597 21
172 1 5.7847 7.14357 15.7215 20
173 1 -13.4919 -1.06471 -2.57153 16
174 1 -3.7397 -15.7948 -0.750072 18
175 1 -1.61437 10.6133 4.29135 20
176 1 4.43175 13.6073 12.0469 13
177 1 -8.21079 11.9461 -9.15743 13
178 1 -13.6506 -4.01008 -6.82986 13
179 1 -10.1515 -2.41212 10.4974 18
180 1 -0.187731 -9.63085 4.04282 17
181 1 3.55475 -13.9066 6.19277 16
182 1 -13.6869 11.7172 3.86692 9
183 1 14.4685 3.10372 3.60953 14
184 1 -6.15339 -7.94693 -16.4681 10
185 1 4.5114 0.198259 10.5098 13
186 1 6.72281 -17.174 3.94976 9
187 1 -0.330222 7.00222 -13.574 17
188 1 7.23384 -10.7158 -12.1883 13
189 1 8.5215 2.37575 -14.7463 12
190 1 3.05785 8.50896 -15.084 12
191 1 -7.624 -5.62012 -8.79397 22
192 1 -3.89378 13.4946 -5.9269 22
193 1 -10.4448 -10.538 10.8883 13
194 1 7.12784 17.2867 -1.74969 11
195 1 -9.45673 3.28965 15.9293 10
196 1 -7.0677 11.4853 -4.37918 18
197 1 7.57345 2.20897 8.1606 17
198 1 -1.9569 -7.12302 -11.6595 23
199 1 -3.68948 7.99429 -11.5309 17
200 1 3.20213 5.7866 -8.59162 23
201 1 -5.44881 -12.4626 8.60704 21
202 1 -8.90121 2.39296 6.05673 20
203 1 -7.13526 7.43132 8.53504 14
204 1 0.0619982 -11.7017 -7.82297 18
205 1 -5.58203 -12.8724 3.11036 17
206 1 9.15186 -10.3867 -1.03929 21
207 1 10.9674 9.37549 14.4036 13
208 1 8.24023 7.81594 -5.59144 20
209 1 0.975413 10.4684 -0.691545 22
210 1 -12.0254 3.12683 1.32852 21
211 1 -13.882 12.9177 -3.03086 11
212 1 1.57963 6.34421 13.0832 19
213 1 5.11388 -18.3837 1.39542 10
214 1 13.0858 -0.153993 -3.6964 21
215 1 -13.5583 5.92266 2.47979 20
216 1 -10.3467 -5.45515 -3.95269 19
217 1 7.31058 4.28862 -13.3667 16
218 1 2.87232 -4.07185 9.70804 19
219 1 7.20774 9.38942 -9.82584 16
220 1 -3.03217 -4.11552 -11.1337 21
221 1 -0.321479 -18.6209 3.91474 11
222 1 8.57028 2.86682 -8.44286 22
223 1 -11.3641 -0.192522 5.79285 16
224 1 4.04553 -17.9541 -1.41448 11
225 1 -10.8953 -5.98385 -9.13055 18
226 1 3.23991 15.4728 -1.84575 18
227 1 1.06448 -2.09526 -14.1239 19
228 1 4.75656 3.80567 15.2943 17
229 1 15.205 3.21265 0.810452 12
230 1 12.6504 -4.46956 -10.7423 15
231 1 -6.7818 -3.993 -11.1461 22
232 1 -11.1963 1.03808 -10.7828 21
233 1 -8.04743 -16.4316 10.3791 11
234 1 10.3939 1.34256 8.87287 16
235 1 -5.91569 -9.7812 -12.0321 16
236 1 4.02053 7.6412 -10.7662 18
237 1 3.09306 11.2633 1.69889 24
238 1 -6.85107 -2.64116 12.9098 20
239 1 -11.0596 -8.49457 -9.38567 13
240 1 -4.78435 -6.79135 -11.2613 22
241 1 -5.30826 8.19808 -16.4475 11
242 1 -4.13715 -7.67352 -5.31295 18
243 1 7.75204 -2.27689 -14.8965 15
244 1 15.0546 0.677012 -8.50045 13
245 1 11.4011 3.76247 7.22029 20
246 1 -10.5205 -5.3773 9.88608 23
247 1 -2.15047 -12.4251 -2.35292 16
248 1 8.23996 6.10381 18.0147 14
249 1 -8.21105 -15.5804 4.62813 15
250 1 -3.53005 -11.5545 1.62986 21
251 1 -1.00828 16.8475 -1.49163 14
252 1 6.74147 0.664511 -13.6461 16
253 1 -6.36933 -4.68164 -16.1184 15
254 1 -11.3766 -7.78406 12.3076 13
255 1 2.45152 8.24731 19.8506 10
256 1 1.91259 -12.8826 -0.30387 16
257 1 -7.55033 -12.3259 -12.4478 8
258 1 -8.54082 2.32246 -8.8022 21
259 1 9.44091 6.15763 6.94839 20
260 1 -6.55302 1.00506 -11.0761 21
261 1 0.957282 7.65601 -10.9264 19
262 1 7.23616 -12.8447 -8.98658 10
263 1 -4.03593 16.3491 -1.99647 16
264 1 1.77287 10.5157 4.50749 20
265 1 11.1683 1.22154 4.23048 19
266 1 -11.355 4.08855 4.07164 21
267 1 -4.80628 -6.67379 10.0367 19
268 1 -6.34465 10.3217 3.71062 19
269 1 1.72177 -5.08056 -14.2576 20
270 1 14.2894 11.9113 -3.13975 12
271 1 3.60435 -11.297 1.33485 20
272 1 -2.36658 -1.03586 15.4478 11
273 1 -17.8736 -3.8283 7.46742 11
274 1 1.3065 -18.8574 -2.90673 7
275 1 -9.02501 8.67194 12.2872 14
276 1 -10.2427 6.09619 12.9249 16
277 1 -16.0657 -3.55192 10.4952 10
278 1 -12.9481 -5.93272 7.94572 17
279 1 13.2964 -6.028 -2.4163 17
280 1 -11.9121 -8.12684 9.30186 16
281 1 8.5552 -2.3401 -8.18311 20
282 1 9.82507 -12.6866 -3.27806 10
283 1 1.75699 18.3249 -3.17323 11
284 1 -8.76352 14.4947 -4.40921 14
285 1 10.724 7.03532 12.35 19
286 1 7.70593 -8.56042 -3.60665 20
287 1 -3.81089 11.5026 1.56069 20
288 1 4.65499 -11.0673 7.7892 18
289 1 10.7715 -4.6862 6.79573 14
290 1 -2.14327 4.75384 9.80778 18
291 1 -1.57016 1.91368 15.3612 16
292 1 -2.77656 14.0736 4.22277 18
293 1 8.39886 8.81967 16.3089 14
294 1 -10.0555 14.0941 -7.99287 9
295 1 0.142216 -4.2648 -16.4928 15
296 1 6.2165 -7.72471 -13.0586 18
297 1 -9.42841 2.90973 12.1981 21
298 1 -16.1755 6.07799 2.1171 11
299 1 -5.24764 10.4976 -0.984913 23
300 1 9.29295 -1.05967 8.57742 20
301 1 -10.5171 -11.114 1.81205 19
302 1 6.6988 -6.15622 7.07413 19
303 1 -8.5246 -9.62765 13.5809 8
304 1 -14.574 9.75227 1.21811 11
305 1 2.18852 -11.2694 -5.33666 16
306 1 -5.34219 -2.99189 -8.65506 21
307 1 9.84406 -0.675681 -13.3404 15
308 1 7.19505 13.9933 5.84687 16
309 1 -10.4901 -0.528722 -3.07652 16
310 1 5.77907 -4.44394 -11.0745 18
311 1 10.04 4.92226 -11.1545 12
312 1 -4.94053 -13.8575 -7.19135 13
313 1 -13.9733 -6.29844 -5.07944 14
314 1 10.6618 6.34317 15.5486 17
315 1 11.302 2.91067 -3.42036 23
316 1 -8.61396 2.84616 -11.8156 19
317 1 3.4328 18.1415 2.32724 16
318 1 -14.0458 -1.00942 -6.30525 12
319 1 -8.36446 9.17464 6.49209 15
320 1 -6.90041 11.3583 1.02236 21
321 1 -7.26037 5.02201 7.27262 18
322 1 7.57165 4.99847 14.4237 22
323 1 11.849 -5.03195 -5.11588 17
324 1 9.35801 -2.5521 15.5164 11
325 1 10.735 0.576463 -6.36684 20
326 1 -4.14094 -15.5932 -3.9615 14
327 1 -10.0584 1.96105 -6.57647 18
328 1 3.4892 -11.3921 -2.7808 21
329 1 10.7196 -1.23556 5.65624 16
330 1 -9.78823 -4.12311 -6.7828 18
331 1 -6.55726 -9.90688 3.78717 22
332 1 -8.33204 -6.93651 12.7879 17
333 1 -2.27243 10.5823 -0.76101 22
334 1 -12.5752 -8.84404 -2.98868 11
335 1 5.75167 10.7195 17.4237 12
336 1 -8.56489 8.37356 -3.81204 19
337 1 0.00693032 11.8023 -9.02963 20
338 1 6.07262 10.8671 7.59761 18
339 1 -14.5962 -6.80134 -1.46546 11
340 1 -2.94444 -9.64319 -6.79278 23
341 1 -13.3097 0.0657209 9.59902 19
342 1 -9.96953 5.49604 -3.6072 23
343 1 4.88889 -8.92548 5.84557 19
344 1 -4.7646 -13.0135 -1.31617 21
345 1 10.9061 11.2064 8.93533 16
346 1 6.5818 7.96861 -15.1412 10
347 1 -10.9658 4.20796 -12.2277 15
348 1 -2.76881 15.2115 -10.7542 12
349 1 -8.53328 4.8208 -6.2486 23
350 1 -0.597204 -12.8541 4.75304 18
351 1 16.5494 5.19595 5.63954 13
352 1 0.608546 9.66985 -17.0519 11
353 1 -15.1997 3.36289 0.999237 15
354 1 -5.27079 -11.6645 5.70537 18
355 1 5.63197 -7.00951 -9.9927 19
356 1 -14.2744 3.73655 4.3664 17
357 1 -15.4173 -0.668943 11.8261 11
358 1 -10.8517 8.02017 4.2774 14
359 1 -8.10692 0.921867 -16.4444 14
360 1 9.59042 -10.7028 -5.36065 14
361 1 0.0949691 -9.79268 -11.0253 19
362 1 -4.85974 -2.4349 10.8349 17
363 1 -4.78627 2.46162 -15.9434 13
364 1 6.97686 -11.297 1.03858 22
365 1 -0.407817 13.7195 -6.67943 21
366 1 -10.3506 11.5959 5.47378 16
367 1 -5.07444 -3.03019 15.4853 10
368 1 -9.87246 -5.93074 -11.9963 17
369 1 -8.30349 -7.39685 9.25913 17
370 1 9.47084 -6.63322 9.45167 14
371 1 9.22748 -8.49107 7.06722 12
372 1 17.0148 9.34784 -5.3484 8
373 1 -2.78405 2.82378 11.9396 17
374 1 2.39682 13.3388 -0.342051 17
375 1 -2.52746 -13.0329 -5.90848 21
376 1 -5.28146 8.79769 15.0297 14
377 1 -2.88696 17.3547 7.37453 8
378 1 -8.32454 -8.8506 -8.00317 18
379 1 8.14665 15.9179 0.883003 11
380 1 2.89914 7.29464 9.87812 19
381 1 -7.22446 2.08901 9.20637 20
382 1 -11.5456 4.40322 10.6158 20
383 1 -7.90659 -6.96429 -5.83115 20
384 1 -6.31371 11.0318 8.34761 17
385 1 -6.03136 -11.1129 -8.08318 18
386 1 -4.438 -7.67321 -14.2484 18
387 1 -8.29793 -12.8624 2.96861 21
388 1 8.92567 3.75207 5.61528 18
389 1 -5.58421 -5.09634 13.0338 13
390 1 -8.73986 5.68582 -10.8031 21
391 1 11.3294 4.72422 -0.781241 22
392 1 -6.57951 -15.4953 -1.80274 11
393 1 0.338463 19.2532 3.40735 9
394 1 -2.08733 10.4582 9.77829 18
395 1 -11.6527 -2.68383 1.70209 18
396 1 -2.27806 17.5278 -4.57817 11
397 1 4.7642 12.2557 -5.24252 18
398 1 -5.65538 -8.01083 -8.1103 18
399 1 3.81487 2.39112 17.9444 10
400 1 0.916135 -14.564 -9.18224 11
401 1 0.965533 -0.658284 -11.1145 20
402 1 8.02163 -13.8064 2.85563 16
403 1 -8.19201 8.47088 2.50936 19
404 1 2.43989 8.17425 15.971 20
405 1 9.18934 7.98217 -1.33547 19
406 1 -6.48762 7.39252 -12.6221 19
407 1 -14.2157 -3.62318 -0.502922 14
408 1 2.74275 15.1338 6.12575 18
409 1 -3.66348 1.66317 -11.3667 24
410 1 12.5003 6.38683 1.5586 20
411 1 4.95764 14.278 -8.0219 13
412 1 14.2812 2.73798 -2.62048 17
413 1 -1.91804 -1.15518 -11.4292 23
414 1 1.39209 -12.1142 6.66558 21
415 1 4.52707 -10.6693 11.1895 7
416 1 -7.18915 -0.385262 -8.58756 23
417 1 -11.4662 -14.5782 5.64121 10
418 1 -1.28536 -13.4021 -11.3839 13
419 1 10.0815 12.4192 5.88753 16
420 1 1.35714 4.43615 -11.3241 20
421 1 3.18113 -0.523042 15.9679 13
422 1 -13.7705 2.5383 11.4949 19
423 1 -2.43208 -18.3703 1.10571 13
424 1 -13.2421 -4.82764 1.87938 17
425 1 15.0638 -4.82878 -4.90065 12
426 1 11.603 -2.83589 -3.19631 20
427 1 2.25583 -8.93585 -9.09112 16
428 1 3.58424 2.04566 -11.0905 18
429 1 10.546 -5.42511 -9.05429 16
430 1 -7.01833 1.75831 15.2278 15
431 1 5.37958 13.5398 0.480744 18
432 1 -4.04655 -3.68132 -13.6804 19
433 1 3.94701 4.1792 -19.2635 9
434 1 -7.98231 -3.07679 7.80505 22
435 1 -0.103202 13.5622 -1.09881 19
436 1 -7.27688 -2.41106 -13.5589 22
437 1 -15.8185 1.1545 3.49455 12
438 1 -0.641137 -11.6972 -13.703 10
439 1 -5.54735 -11.8758 12.0034 12
440 1 -2.00116 7.95741 -8.83804 18
441 1 16.6146 4.26643 9.01388 9
442 1 14.6531 5.97042 -0.566004 16
443 1 -9.93385 -10.0947 -1.02409 17
444 1 -2.50286 -3.29209 -17.0946 13
445 1 -9.61296 13.2225 11.0437 10
446 1 12.5065 -4.33476 -0.146172 17
447 1 2.43331 14.4372 -7.06686 19
448 1 13.9571 5.53366 -6.00971 16
449 1 4.52596 10.2328 14.7239 18
450 1 -11.1488 2.19128 8.67837 20
451 1 5.52224 8.20782 8.56293 18
452 1 8.52319 0.141513 16.7041 10
453 1 -1.53592 3.90423 -13.6695 21
454 1 -0.365425 -3.16835 10.4785 18
455 1 8.66525 10.0336 9.92937 17
456 1 5.98056 7.09761 -7.98317 19
457 1 -5.68331 10.7988 -7.45555 19
458 1 -0.376101 11.8129 -3.41266 21
459 1 11.3977 -2.25457 13.0888 15
460 1 12.2792 0.447848 -13.5917 8
461 1 12.7261 -8.82297 -3.83473 15
462 1 13.1696 10.4497 11.7763 12
463 1 -14.5914 -7.66512 3.53038 13
464 1 -6.7701 10.4617 -12.0269 13
465 1 -13.0632 0.392693 13.8804 12
466 1 -5.49431 12.5547 -10.226 13
467 1 5.06859 -13.1069 -1.05919 20
468 1 6.25579 -0.0111973 -8.70569 24
469 1 -4.9662 16.7021 -5.35987 11
470 1 -9.45805 -6.07909 -15.7402 8
471 1 4.51967 -15.3585 4.03636 17
472 1 -11.7649 -6.29496 -1.17679 20
473 1 -1.09114 12.1538 -15.2224 13
474 1 -2.50782 10.176 15.6877 15
475 1 -10.1186 -6.42022 6.68712 22
476 1 4.20772 -14.0779 -10.1819 12
477 1 4.02398 -4.88349 12.6243 16
478 1 -10.1369 6.00378 1.601 18
479 1 4.73649 5.18958 18.9039 14
480 1 4.61606 16.2327 -4.27112 14
481 1 9.85111 -5.82565 -3.63808 19
482 1 2.74963 9.32643 12.2782 20
483 1 -0.784332 3.22497 -15.9958 15
484 1 -6.26222 -14.2009 10.4824 14
485 1 5.50071 0.828914 -16.5108 14
486 1 4.18078 12.3073 5.17294 20
487 1 8.184 6.30533 -8.78723 22
488 1 -1.54572 -2.29081 -13.5964 20
489 1 -3.66283 -10.7249 -3.64822 18
490 1 -10.0898 -3.50551 -13.1376 17
491 1 10.8824 3.22202 1.94872 17
492 1 15.9838 6.00438 -4.07447 13
493 1 7.32196 -5.34307 -8.36922 19
494 1 13.7608 7.82555 10.822 17
495 1 5.22619 -10.1686 -5.86477 17
496 1 1.88743 5.64454 -17.2247 17
497 1 8.87735 11.6043 3.72904 20
498 1 8.58504 12.0255 15.3079 10
499 1 11.9183 7.95448 -0.760891 15
500 1 13.0517 -1.50728 1.66914 15
501 1 9.85132 3.32048 -5.54638 19
502 1 9.30092 1.61464 13.5723 17
503 1 16.5545 6.21615 11.0213 9
504 1 11.994 10.8478 -1.56702 15
505 1 2.18983 2.28876 15.2101 17
506 1 15.7974 0.940802 -5.96081 16
507 1 9.2446 4.28529 12.5026 16
508 1 -8.29923 -1.00081 -6.00373 23
509 1 14.9973 5.74492 2.83915 17
510 1 -11.1717 7.6272 9.98633 17
511 1 9.67078 10.8261 12.3619 16
512 1 10.8225 0.647351 11.8702 20
513 1 3.0892 9.41048 6.80915 20
514 1 1.30902 15.098 11.5988 7
515 1 -3.57675 -18.4526 3.24387 12
516 1 -5.03399 8.70301 -3.50139 22
517 1 10.7625 10.2483 -6.61443 14
518 1 13.0689 -2.96311 -13.4564 9
519 1 1.45806 18.5188 0.027485 13
520 1 -2.52576 -12.4468 -9.00898 21
521 1 10.498 -4.82692 -14.6169 10
522 1 -13.6384 3.38747 7.12852 16
523 1 -5.60833 4.27614 -11.0306 20
524 1 -6.73474 -18.1066 3.71452 12
525 1 -4.92213 -1.41336 -11.5238 22
526 1 -13.7671 1.1925 -4.67958 11
527 1 11.2313 -9.16666 4.36385 7
528 1 12.0387 11.2658 2.93938 19
529 1 1.64903 -8.63011 6.82811 19
530 1 -13.6297 -1.34563 -9.3846 12
531 1 1.58958 2.23745 -17.253 18
532 1 -2.74691 4.43689 15.1686 20
533 1 8.52798 9.79869 -12.2828 8
534 1 13.9958 0.754551 12.9786 14
535 1 7.58798 5.03798 -5.9474 22
536 1 10.4134 14.595 3.51894 11
537 1 3.29514 -11.9601 -8.16455 13
538 1 -10.987 -1.837 13.7796 14
539 1 13.7039 -1.23361 4.72848 13
540 1 -1.20718 12.9272 14.2511 11
541 1 5.40178 12.0514 -10.9025 12
542 1 -14.2137 11.3985 -5.30151 11
543 1 10.1479 9.47038 2.09407 19
544 1 -9.00237 -13.1234 -0.511041 13
545 1 9.79703 -5.98912 1.58669 17
546 1 5.1607 16.7373 4.26222 14
547 1 -5.08952 4.3415 9.97596 22
548 1 -10.3222 -5.54736 1.67407 21
549 1 -8.9013 -3.11162 -9.01359 17
550 1 7.36365 0.393153 10.7337 18
551 1 -3.42523 -10.0577 10.0166 16
552 1 8.11546 7.90193 12.9911 21
553 1 -5.23565 14.3017 0.158628 20
554 1 3.09911 -0.422728 -16.1538 19
555 1 -9.80784 -0.299347 8.2526 20
556 1 9.29187 0.0890226 -9.0863 17
557 1 11.3331 -8.95322 -10.7589 13
558 1 10.2872 3.98541 9.64815 17
559 1 -10.5112 1.33241 14.6188 14
560 1 10.7521 7.80239 8.67254 19
561 1 0.538631 -1.46905 14.8577 11
562 1 -1.84246 6.5192 12.9057 18
563 1 -1.34741 -5.45207 -14.2257 20
564 1 -5.90187 2.6414 12.0961 19
565 1 6.11585 3.04059 12.3177 16
566 1 -9.80214 -15.859 8.12375 9
567 1 15.2743 8.41781 -1.84981 14
568 1 6.55147 -11.6649 -2.6 22
569 1 7.67756 8.57032 2.49008 22
570 1 7.26402 14.4263 2.98809 15
571 1 2.96979 0.588788 -19.418 9
572 1 1.65753 13.989 -3.95301 22
573 1 12.9829 8.80806 4.57697 17
574 1 -6.91463 -9.24326 -1.89963 22
575 1 0.253419 0.731305 -14.556 22
576 1 -10.989 14.1156 -1.3061 10
577 1 9.25364 -4.01506 -11.2398 19
578 1 10.0007 8.54205 -8.83959 15
579 1 9.44095 12.0808 -2.11752 15
580 1 12.1881 3.46374 13.9682 17
581 1 11.4254 0.184768 15.39 13
582 1 -3.11715 -13.4601 9.97077 16
583 1 -8.13749 9.58576 -14.4564 9
584 1 4.54765 11.2118 9.8112 15
585 1 7.7691 -5.42727 -13.5828 19
586 1 6.62771 14.2408 -5.03258 12
587 1 8.89866 9.44153 6.66533 17
588 1 16.4699 -7.16891 -2.98859 7
589 1 5.30767 7.9663 18.4779 14
590 1 -14.3359 -2.512 7.05619 19
591 1 2.94833 -15.9717 1.24049 18
592 1 -8.427 14.6497 0.800566 11
593 1 6.2316 10.9088 2.27427 18
594 1 -13.9927 0.741408 6.40092 19
595 1 -1.34067 4.2846 18.1365 10
596 1 -4.6205 4.96863 -13.4663 17
597 1 -8.02018 7.0918 -14.9724 13
598 1 2.30001 -13.1179 3.38086 21
599 1 10.969 6.67539 -5.9177 20
600 1 -13.177 5.97645 12.1931 11
601 1 4.72773 -3.03243 -13.8321 22
602 1 2.87852 -12.9847 9.25894 9
603 1 3.23444 14.2976 2.83876 20
604 1 -3.93616 1.89716 17.1881 11
605 1 -8.08251 -7.90869 -11.0196 17
606 1 -5.1052 -10.8882 -14.8214 11
607 1 -8.26671 -12.4614 -6.61868 11
608 1 -2.07487 15.9214 -7.31017 16
609 1 -3.06574 11.9913 7.41683 17
610 1 7.68141 -9.67732 -8.58902 18
611 1 6.51898 -15.8899 0.816854 15
612 1 4.14512 -7.9413 8.83959 15
613 1 14.7736 3.67563 -8.05847 14
614 1 0.0769113 -14.368 -6.00716 17
615 1 -11.1679 -3.33706 7.51784 20
616 1 -5.3843 -16.435 1.42569 17
617 1 -6.83121 -9.63671 -5.37891 22
618 1 -11.4003 0.507507 11.3379 22
619 1 -8.31902 -16.0614 0.939342 12
620 1 16.0693 6.88295 -6.90013 11
621 1 -5.84821 16.454 3.99048 9
622 1 -14.9213 8.2618 3.62824 10
623 1 10.7677 -2.86469 2.6352 19
624 1 -13.0539 -1.74734 -12.657 11
625 1 -2.29019 10.7029 -6.63906 22
626 1 11.8256 1.96184 -8.73247 19
627 1 7.76668 13.6717 12.5795 11
628 1 9.81536 5.77637 -3.48442 21
629 1 -12.9519 1.84871 -7.91223 16
630 1 -13.4358 -6.6425 -8.6408 9
631 1 -2.86478 7.42417 17.2 11
632 1 5.3953 9.56808 -12.8058 14
633 1 11.3027 15.247 6.90239 6
634 1 -5.08534 0.621387 10.1239 21
635 1 -2.33002 -18.3491 -2.43531 9
636 1 -6.90235 -16.968 7.27843 14
637 1 13.2103 9.32986 8.35484 16
638 1 3.4602 -7.82153 -11.5465 17
639 1 -9.0983 10.5916 -6.24228 19
640 1 7.54929 6.52943 4.82927 21
641 1 -8.56549 -6.74301 4.02133 22
642 1 6.9507 6.69958 -11.795 20
643 1 -0.896364 -16.2963 -3.66258 14
644 1 1.98157 -18.7593 1.20361 12
645 1 -1.18877 -13.4332 -0.162949 18
646 1 6.22525 4.67855 -10.3485 21
647 1 5.10995 16.4773 0.873696 17
648 1 -2.355 0.729064 -13.8236 22
649 1 0.156883 0.258825 12.9527 20
650 1 1.70601 3.9755 -14.4168 20
651 1 -10.2957 -0.602332 -14.2459 18
652 1 -10.2781 -3.36589 -1.12013 19
653 1 0.547275 16.8439 -6.01816 14
654 1 -3.37273 -6.59355 -16.8612 11
655 1 13.9806 8.81081 -4.65411 18
656 1 10.9629 -7.58263 -0.998607 17
657 1 -6.05826 7.89168 11.5137 18
658 1 8.19889 -8.57622 1.35825 18
659 1 14.6004 -7.2868 0.0975864 11
660 1 11.3749 -3.79836 10.4997 15
661 1 -0.318539 11.0932 6.82574 16
662 1 -12.2193 3.92436 14.3525 13
663 1 -8.02649 5.26552 10.6869 17
664 1 -3.51814 -14.4914 7.14702 18
665 1 6.01534 9.40944 11.7818 15
666 1 -13.5658 -0.635247 0.606985 13
667 1 7.83428 -6.92738 -1.38044 21
668 1 -10.9168 13.5098 -5.35764 14
669 1 1.37647 -15.4994 4.91316 17
670 1 3.7732 0.627288 13.2946 17
671 1 0.881498 13.311 3.73752 20
672 1 2.60208 -10.1281 4.33004 20
673 1 3.35649 3.63104 12.388 19
674 1 -14.9503 -4.24388 -3.23598 10
675 1 0.97515 10.6543 15.1821 18
676 1 4.86075 10.682 -0.854016 19
677 1 -10.0177 -9.63034 4.44865 19
678 1 -4.45619 -17.6278 5.99089 11
679 1 8.12203 -3.09863 6.71543 17
680 1 12.1919 -6.41385 8.61255 9
681 1 6.35824 5.28585 7.62341 21
682 1 -0.465464 -8.31675 -8.5592 19
683 1 -5.24848 2.49871 -8.56759 24
684 1 -5.08245 -0.278086 13.6926 16
685 1 -2.32029 16.8032 4.06398 15
686 1 15.1124 0.193746 1.53069 10
687 1 1.65456 11.224 -5.79505 19
688 1 -3.64115 9.33172 12.7382 22
689 1 8.02937 6.38974 10.2331 23
690 1 7.34333 -1.79798 -11.4793 20
691 1 -6.59093 -11.0722 0.504229 22
692 1 15.181 -0.270943 7.98177 10
693 1 -0.633694 2.16273 -11.0661 21
694 1 -0.585713 7.30573 15.2066 19
695 1 10.1766 -11.1973 -8.1478 11
696 1 4.51793 7.31261 -17.8772 10
697 1 11.5863 5.41465 -8.65596 14
698 1 14.6656 -1.84671 -1.24551 13
699 1 0.0598021 -4.91252 13.2456 11
700 1 -2.49689 -9.92277 -12.406 19
701 1 7.297 14.3799 -2.01209 12
702 1 -12.8757 6.6209 5.98666 15
703 1 13.1258 5.58759 -3.10918 19
704 1 17.0116 7.90683 4.28186 11
705 1 3.36523 -4.98124 -18.4699 8
706 1 -6.84872 13.1569 5.5196 17
707 1 16.0965 10.0542 6.56126 12
708 1 11.4235 12.652 -4.57704 13
709 1 4.47781 3.22063 -16.308 17
710 1 9.60756 -4.09335 -0.726838 21
711 1 -13.7456 1.95555 -1.64846 12
712 1 12.3304 5.00344 4.47613 20
713 1 -12.076 -8.16016 0.775342 18
714 1 -9.26803 8.92188 -8.82741 18
715 1 4.87219 4.88015 9.63063 19
716 1 -10.7126 -1.14821 -8.39969 19
717 1 -10.7489 5.12925 7.09698 16
718 1 13.6459 -7.12056 -9.62125 12
719 1 -11.4079 -8.02957 -6.10397 15
720 1 15.464 -9.70997 -1.56966 8
721 1 -14.2264 6.93432 -0.394082 13
722 1 13.1972 6.65362 7.1983 21
723 1 -4.14362 -8.90228 7.29518 19
724 1 9.60058 3.24806 16.287 17
725 1 13.5589 -2.94423 7.97659 14
726 1 -11.7866 5.0038 -0.894443 18
727 1 0.960407 10.8806 10.3739 17
728 1 1.16527 9.05943 -8.23737 18
729 1 -1.09083 -8.12371 -14.8282 16
730 1 -4.52471 14.8356 6.63302 18
731 1 -10.7628 -10.7473 7.39529 15
732 1 8.5663 11.9244 -4.86427 15
733 1 -0.368932 9.86336 13.075 20
734 1 15.6604 -1.61274 -4.5166 12
735 1 5.88315 -5.28963 9.71048 22
736 1 -3.38712 13.0704 -12.5646 13
737 1 3.13338 11.6963 -8.34532 20
738 1 -7.17703 -1.52674 10.2965 19
739 1 17.9403 7.5029 7.92234 10
740 1 0.17333 -3.87384 -11.4975 24
741 1 14.3354 11.7105 0.594088 11
742 1 -12.942 6.69745 -3.5144 13
743 1 -2.29131 -11.0053 7.19673 20
744 1 2.56052 13.353 -10.3821 15
745 1 6.28518 -2.45349 9.18566 21
746 1 1.01088 -13.464 -3.2384 18
747 1 -5.31073 16.5486 1.42015 14
748 1 -11.0784 9.27818 -3.92728 20
749 1 11.6628 -1.88101 -6.65545 18
750 1 3.96261 -12.5798 -12.9247 8
751 1 -6.80434 7.57523 4.94409 21
752 1 13.9848 11.4767 -6.29406 13
753 1 5.45681 -2.64183 -16.8611 12
754 1 -9.00317 -11.3562 -10.3885 11
755 1 -0.999189 -10.8562 -4.93348 18
756 1 -4.16643 12.2049 14.0898 13
757 1 7.93945 -13.662 -0.74604 14
758 1 -2.13259 9.6314 -16.4312 15
759 1 13.3488 2.26947 -5.59426 19
760 1 9.30518 6.05082 1.72844 18
761 1 0.0451738 -16.5219 -0.491443 16
762 1 1.00935 -2.19508 -17.9851 12
763 1 12.7718 1.26565 -0.690028 21
764 1 -1.80147 5.24631 -11.4345 23
765 1 -1.58223 -8.14833 8.29233 18
766 1 5.38543 9.87262 -6.28855 18
767 1 -11.8889 3.19058 -4.39525 17
768 1 -13.8755 5.05667 9.46535 15
769 1 1.74836 5.21319 19.4042 8
770 1 -7.86635 -10.441 8.70225 14
771 1 5.44064 9.05435 4.9539 18
772 1 -0.205764 -15.7004 2.42328 23
773 1 2.98949 10.9302 -3.12055 19
774 1 -3.41188 7.65237 10.2023 19
775 1 -7.98361 0.531386 12.4025 20
776 1 -9.23812 13.1278 7.35699 12
777 1 -5.29978 -8.70084 12.4529 10
778 1 5.75355 -12.1082 4.37447 20
779 1 12.6653 5.28143 10.2914 18
780 1 10.2539 -7.91641 -6.31425 18
781 1 5.1529 -10.8805 -10.7005 18
782 1 -5.84006 0.688959 -13.9809 18
783 1 -3.59219 4.98128 -16.3815 12
784 1 6.35931 15.2178 10.3325 9
785 1 -10.2727 -4.79871 12.6484 16
786 1 -3.03652 7.27212 -14.624 20
787 1 -11.912 5.27232 -6.29037 17
788 1 11.2071 13.1423 0.724503 12
789 1 -10.5592 -14.3838 2.19496 13
790 1 12.7843 11.0705 6.15718 15
791 1 -8.87016 -11.4351 -3.26988 13
792 1 5.25161 13.5711 8.29241 17
793 1 -8.01508 -1.26262 15.197 15
794 1 -2.43321 -15.5929 -7.04912 12
795 1 13.3882 1.8675 9.35982 18
796 1 3.046 -18.9983 4.03279 10
797 1 2.69056 10.4132 18.1324 12
798 1 12.1233 -0.859575 -10.8051 14
799 1 6.19705 -9.44187 -0.844391 23
800 1 3.23239 1.42747 -13.7661 18
801 1 -11.7074 1.81434 -13.1431 14
802 1 -6.95673 3.54465 -14.3746 16
803 1 -4.87023 5.89037 13.1305 18
804 1 8.66716 -3.69059 10.5533 17
805 1 -12.1552 -6.16611 4.50203 19
806 1 11.4314 -0.892284 -0.720574 22
807 1 -0.237602 5.4588 -8.70922 24
808 1 15.6281 8.70641 1.33578 13
809 1 -1.51141 16.0991 10.3476 11
810 1 -17.5388 -6.82788 5.77373 5
811 1 7.72687 -13.7242 -5.72942 12
812 2 -11.961 -0.415869 -9.62275 15
813 2 -7.36245 11.6051 -6.18676 19
814 2 -1.87497 0.892643 -11.923 23
815 2 -1.55985 4.60367 11.9219 21
816 2 5.41908 -12.7825 -9.65534 15
817 2 -7.53837 -5.28106 -6.87383 20
818 2 3.99754 2.58985 13.9586 17
819 2 7.71833 1.49332 17.85 7
820 2 -13.8663 -8.86808 2.28725 12
821 2 -12.5193 8.3921 -4.84566 17
822 2 3.98733 13.8715 6.46548 18
823 2 -13.186 -0.186361 4.88239 17
824 2 1.11142 15.6543 -7.60535 15
825 2 10.9672 5.05575 1.21273 19
826 2 -3.4029 17.2262 -6.06261 11
827 2 10.1472 11.7675 -5.73712 14
828 2 -9.05828 -2.0901 -14.1174 15
829 2 -11.702 -7.56889 -7.93903 13
830 2 6.08111 3.64722 8.70818 17
831 2 7.57303 -1.30531 -9.54453 21
832 2 2.78201 -14.9664 3.07656 16
833 2 -7.33647 11.3508 -1.25703 19
834 2 -11.9906 2.89853 -6.462 15
835 2 14.3837 1.40295 7.59222 16
836 2 10.601 -10.2185 -9.77267 12
837 2 -10.436 -9.23019 0.81423 20
838 2 -11.0956 -1.35054 7.17622 23
839 2 -1.23103 -14.1085 3.22449 19
840 2 10.4497 -7.34916 8.00924 10
841 2 -0.432538 -15.3275 -7.4947 13
842 2 4.69731 -0.604025 14.5507 14
843 2 -1.77931 11.4035 -11.2005 19
844 2 1.25392 -19.2502 3.30006 9
845 2 -10.8067 -9.41845 -2.47725 14
846 2 1.23318 7.01929 14.8754 18
847 2 -9.82842 7.52314 2.56522 16
848 2 -1.88101 3.18846 16.7065 13
849 2 -6.51253 7.51919 -4.30045 20
850 2 9.86097 -12.7563 3.03377 13
851 2 -3.66563 7.55345 6.55222 22
852 2 -2.27615 13.9945 -7.04074 21
853 2 11.1592 11.4691 7.10713 16
854 2 8.3068 13.3931 4.56189 14
855 2 7.93506 -3.18261 -6.34947 19
856 2 -4.3796 7.55706 11.8611 16
857 2 3.63709 4.36991 -14.9064 17
858 2 -6.37688 10.4552 -14.2619 14
859 2 6.65282 7.94655 -3.58768 21
860 2 -6.48483 -4.13007 14.5842 13
861 2 -14.3756 10.0757 3.15799 9
862 2 12.7259 0.888698 -11.7611 12
863 2 -9.83429 -8.03852 13.3674 11
864 2 1.57502 -8.56977 -11.1223 17
865 2 -3.70841 -2.36116 -15.2965 17
866 2 -15.9594 -7.13773 5.07788 8
867 2 10.9115 8.29708 1.17708 19
868 2 -5.24233 8.29579 3.98541 20
869 2 -4.24645 -9.58477 -8.14789 18
870 2 -4.44456 16.053 8.02603 13
871 2 7.70223 -1.43116 15.8569 11
872 2 5.46569 -9.52242 9.99828 8
873 2 15.9935 4.27671 7.36517 11
874 2 3.11967 13.8021 -8.78365 15