ITEM: TIMESTEP
119000
ITEM: NUMBER OF ATOMS
1000
ITEM: BOX BOUNDS pp pp pp
-30.0 30.0
-30.0 30.0
-30.0 30.0
ITEM: ATOMS id type x y z Coordination
1 1 -12.034 -1.03635 -6.06565 16
2 1 -10.616 -4.04815 -6.80071 13
3 1 -10.4744 -5.76993 -3.9677 15
4 1 -12.3242 -2.97478 -4.07082 16
5 1 -8.71291 -6.79294 -6.29654 15
6 1 -6.89479 -9.62396 -5.52256 14
7 1 -8.02075 -11.3524 -2.86907 13
8 1 -9.27242 -8.63587 -3.50744 15
9 1 -8.88479 -1.17662 -11.548 10
10 1 -7.21843 -4.19139 -11.4184 12
11 1 -6.69046 -5.91404 -9.02003 16
12 1 -8.59185 -3.02275 -8.93835 17
13 1 -8.88297 -0.980332 -6.28766 21
14 1 -7.15734 -4.01687 -6.14201 21
15 1 -7.29417 -5.54877 -3.34866 23
16 1 -8.93722 -2.93851 -3.59738 22
17 1 -4.97204 -6.90125 -11.3699 11
18 1 -5.30149 -8.67386 -8.53704 14
19 1 -5.60863 -6.70712 -6.00477 21
20 1 -3.833 -9.53014 -6.36715 18
21 1 -4.47464 -11.0461 -3.67116 17
22 1 -5.61679 -8.19934 -3.34854 23
23 1 -5.43788 -1.38878 -11.4938 17
24 1 -3.55452 -3.97149 -11.9917 17
25 1 -3.21893 -5.87045 -8.56812 22
26 1 -5.29654 -2.91351 -8.86621 22
27 1 -5.44928 -0.740644 -6.24253 21
28 1 -3.94247 -3.65675 -6.07839 23
29 1 -3.71174 -5.84422 -3.56689 21
30 1 -5.26444 -2.90302 -3.46646 25
31 1 -2.2219 -12.4028 -5.65689 11
32 1 -1.67693 -6.6621 -11.4333 14
33 1 0.0243482 -11.8126 -8.24688 11
34 1 -1.76223 -8.68938 -8.82916 18
35 1 -2.11069 -6.56679 -6.0099 23
36 1 -0.46266 -9.72586 -6.36119 22
37 1 0.0906973 -11.5788 -4.29825 16
38 1 -2.05397 -8.71463 -3.63511 21
39 1 -2.24124 -0.87984 -11.5625 18
40 1 -0.480482 -3.59447 -11.7029 20
41 1 -0.217696 -5.58924 -8.69334 22
42 1 -2.19494 -2.80501 -8.75992 23
43 1 -2.25406 -0.876978 -6.29077 23
44 1 -0.308444 -3.77829 -6.21145 22
45 1 -0.194318 -5.61968 -3.5071 22
46 1 -2.08635 -2.80341 -3.71027 23
47 2 -11.8501 -1.0536 -3.5535 21
48 2 -13.9633 -2.3306 -2.79283 12
49 2 -9.72992 -10.5475 -2.6903 9
50 2 -10.2975 -5.70589 -5.98155 14
51 2 -11.8654 -2.99393 -5.84718 13
52 2 -8.91824 -3.02953 -10.9641 10
53 2 -10.3376 -5.623 -0.538424 16
54 2 -11.855 -2.564 -0.791777 18
55 2 -13.6671 -0.0565764 -5.49032 11
56 2 -10.6915 -4.09132 -3.20578 19
57 2 -8.18246 -8.38412 -5.4042 16
58 2 -5.12684 -7.02448 -9.34454 15
59 2 -7.0456 -11.3388 -1.11781 16
60 2 -8.90222 -8.66502 -1.49002 19
61 2 -8.84554 -6.69668 -3.35052 17
62 2 -6.5768 -10.2825 -3.68705 17
63 2 -7.15026 -5.7651 -6.93542 20
64 2 -8.9111 -2.85554 -6.92067 19
65 2 -9.03853 -0.82522 -9.57719 14
66 2 -6.80102 -4.0077 -9.28821 17
67 2 -6.95494 -5.85305 -1.40947 21
68 2 -8.59512 -2.87804 -1.45592 23
69 2 -8.68864 -1.04145 -4.16586 24
70 2 -7.10132 -3.68663 -3.96288 22
71 2 -3.89386 -11.4272 -5.41453 15
72 2 -0.636855 -11.5115 -6.31193 14
73 2 -5.55739 -8.78259 -6.58329 18
74 2 -6.79669 -6.0929 -11.0983 10
75 2 -3.43761 -9.30051 -8.52995 13
76 2 -3.84362 -11.2936 -1.67305 20
77 2 -5.07387 -8.31676 -1.48303 21
78 2 -5.69318 -6.3915 -3.97574 22
79 2 -3.90387 -9.10682 -3.95825 20
80 2 -3.37228 -5.85015 -11.678 13
81 2 -5.4096 -3.37672 -11.835 14
82 2 -3.83459 -5.98951 -6.54264 22
83 2 -5.56391 -2.70042 -6.61599 22
84 2 -5.33794 -1.07106 -9.41383 21
85 2 -3.70163 -4.08585 -8.56197 20
86 2 -3.6211 -5.46314 -1.64181 23
87 2 -5.30282 -2.94496 -1.50212 25
88 2 -5.20456 -0.996168 -4.03407 22
89 2 -3.56869 -3.89138 -4.13037 22
90 2 -2.47081 -13.9426 -1.05272 9
91 2 -1.73505 -12.3204 -3.8498 15
92 2 1.75544 -12.1833 -8.54241 9
93 2 -2.05111 -8.5456 -6.44002 22
94 2 -1.64585 -6.7875 -9.58712 19
95 2 -0.110631 -9.80232 -8.56109 13
96 2 -0.231288 -11.8326 -0.846031 18
97 2 -1.77783 -8.58753 -1.30316 20
98 2 -1.84412 -6.68034 -3.86598 19
99 2 -0.154752 -9.72781 -3.64943 20
100 2 0.0913283 -5.61137 -11.9515 14
101 2 -2.14058 -2.85468 -11.9594 16
102 2 -0.43849 -5.75988 -6.55883 24
103 2 -2.14472 -2.95648 -6.72368 24
104 2 -2.26736 -1.0878 -9.44352 23
105 2 -0.591209 -3.85102 -9.6696 27
106 2 -0.202038 -5.63001 -1.41054 21
107 2 -2.11876 -2.60595 -1.61613 23
108 2 -1.91448 -0.81606 -4.26827 24
109 2 -0.13677 -3.80388 -4.04879 23
110 1 -13.8215 -3.18793 -1.15881 12
111 1 -13.981 -4.8917 2.03883 8
112 1 -10.2334 -10.0463 -0.928566 11
113 1 -12.1303 -6.38573 4.21168 11
114 1 -11.773 -0.81163 -1.25664 23
115 1 -10.5038 -3.72428 -1.32568 20
116 1 -10.48 -5.58617 1.4359 18
117 1 -11.9807 -2.85947 1.25511 19
118 1 -12.0729 -1.04219 4.43934 17
119 1 -10.6794 -3.91328 4.23533 21
120 1 -10.0566 -6.09238 6.79434 13
121 1 -12.0451 -3.58977 6.65528 10
122 1 -9.00252 -6.76414 -1.26688 19
123 1 -7.07461 -9.32887 -1.06871 21
124 1 -7.91473 -11.3056 0.874711 15
125 1 -8.72952 -8.68924 2.07525 18
126 1 -8.64506 -6.86332 3.98248 19
127 1 -6.6451 -10.0695 3.93643 16
128 1 -8.66039 -9.10462 6.033 10
129 1 -8.6304 -1.04163 -0.81029 23
130 1 -7.01879 -3.68357 -0.775611 24
131 1 -7.25892 -5.72326 1.66799 22
132 1 -8.75335 -2.86099 1.90476 24
133 1 -8.56391 -1.04241 4.75078 22
134 1 -7.05487 -4.0747 4.5598 22
135 1 -7.04232 -6.17663 7.05545 21
136 1 -8.84997 -3.23045 7.483 17
137 1 -9.11783 -0.862594 8.98508 14
138 1 -7.05952 -4.17249 9.83802 14
139 1 -5.23342 -12.4473 -0.821733 14
140 1 -5.26556 -12.5893 2.60613 12
141 1 -5.26598 -6.51692 -0.825779 23
142 1 -3.65075 -9.55478 -0.884276 19
143 1 -2.83709 -13.8119 0.79151 10
144 1 -5.37834 -8.48118 1.25715 19
145 1 -5.36269 -6.82428 4.22894 24
146 1 -3.47612 -9.73924 3.43434 18
147 1 -3.57679 -11.3225 5.7025 14
148 1 -5.49081 -8.85393 6.95905 16
149 1 -5.33517 -6.67388 9.73424 15
150 1 -3.66136 -9.89588 8.81562 11
151 1 -5.48054 -1.0104 -0.719678 24
152 1 -3.68474 -3.77298 -0.76852 26
153 1 -3.41394 -5.74627 2.03084 24
154 1 -5.40578 -3.07991 1.9336 21
155 1 -5.43331 -0.969405 4.62762 22
156 1 -3.63514 -3.81329 4.44763 24
157 1 -3.6772 -6.16887 6.99426 22
158 1 -5.50157 -3.21781 6.86221 22
159 1 -5.52472 -1.10586 9.28814 21
160 1 -3.79153 -4.15937 9.52385 21
161 1 -3.96096 -5.64646 12.2782 10
162 1 -5.26233 -3.19958 12.283 12
163 1 -2.13282 -12.4325 -2.04947 17
164 1 -1.64462 -12.4968 3.97438 13
165 1 -2.10878 -6.60234 -0.924899 22
166 1 -0.147694 -9.79487 -1.50925 20
167 1 -0.56755 -11.7149 0.999961 18
168 1 -1.69339 -8.6685 1.08223 20
169 1 -2.09262 -6.71349 4.465 23
170 1 -0.240417 -9.63383 3.60609 19
171 1 -0.13588 -11.6258 6.62325 13
172 1 -1.7817 -8.8437 6.34505 20
173 1 -2.17056 -6.92289 9.96084 17
174 1 -0.297448 -9.59071 9.15199 11
175 1 -1.9297 -0.998248 -0.707088 25
176 1 -0.524519 -3.77676 -1.10147 22
177 1 -0.395089 -5.71489 1.56506 20
178 1 -2.12319 -2.86082 1.81631 26
179 1 -2.05543 -1.02738 4.67541 26
180 1 -0.362148 -4.01302 4.43152 24
181 1 -0.465243 -5.68909 7.08322 22
182 1 -2.01004 -3.05992 6.95011 23
183 1 -2.13963 -1.12583 9.22373 20
184 1 -0.224612 -3.90904 9.80699 25
185 1 -0.564012 -5.92513 12.4286 13
186 1 -1.74899 -2.84977 12.4509 15
187 2 -13.7826 -3.62284 0.665348 12
188 2 -12.344 -5.85482 2.40421 11
189 2 -9.54504 -10.2311 0.796064 11
190 2 -10.1925 -5.93345 4.77056 19
191 2 -12.5156 -4.46861 4.80476 12
192 2 -12.1942 -1.19715 2.41382 18
193 2 -10.5213 -3.79611 2.18025 21
194 2 -12.2841 -1.8636 6.13019 12
195 2 -10.2732 -4.30934 7.28368 13
196 2 -6.92803 -11.7405 2.3801 13
197 2 -8.31915 -8.89909 4.02163 15
198 2 -9.0111 -6.64493 2.05428 18
199 2 -7.10964 -9.19084 1.00323 20
200 2 -8.69916 -7.40491 6.82356 13
201 2 -6.86014 -9.85389 6.06657 13
202 2 -7.02554 -5.99259 3.65842 22
203 2 -8.73814 -2.90617 4.06133 22
204 2 -8.65545 -0.755614 1.23448 24
205 2 -7.06942 -3.71007 1.14154 23
206 2 -6.8944 -5.87908 9.01135 17
207 2 -8.37927 -2.73744 9.23452 15
208 2 -8.49621 -1.18652 6.87346 22
209 2 -7.18035 -4.31687 6.51867 23
210 2 -5.46427 -4.77383 11.129 11
211 2 -4.77746 -13.113 0.890244 11
212 2 -4.17294 -11.5298 3.80647 14
213 2 -5.12354 -8.6626 3.3913 22
214 2 -5.44956 -6.31387 1.23462 21
215 2 -3.49436 -9.42815 1.22461 20
216 2 -4.77044 -8.34948 8.92405 13
217 2 -5.26124 -6.99977 6.22946 22
218 2 -3.74789 -9.98138 6.85841 17
219 2 -3.70728 -5.68073 3.89011 21
220 2 -5.39532 -3.08465 4.00632 25
221 2 -5.35491 -1.27201 1.23868 25
222 2 -3.59896 -3.97737 1.13686 25
223 2 -3.51223 -5.99748 9.04032 20
224 2 -5.20215 -2.98434 9.2645 20
225 2 -5.40762 -1.07268 6.75149 21
226 2 -3.68587 -4.11181 6.58785 24
227 2 -5.63786 -1.28952 11.6423 15
228 2 -3.4312 -3.73284 12.8764 11
229 2 -1.65062 -12.8956 2.07297 14
230 2 -1.83346 -12.162 5.9311 14
231 2 0.119371 -11.6623 3.96099 14
232 2 -1.98524 -8.84566 4.35536 21
233 2 -2.12776 -6.41716 0.973002 22
234 2 -0.188605 -9.75969 1.41858 19
235 2 -1.99642 -9.16266 9.63258 11
236 2 -1.96453 -6.76971 6.27731 21
237 2 -0.179093 -9.69903 7.2111 16
238 2 -2.30334 -6.07164 11.6884 14
239 2 -0.521998 -6.02204 3.50015 25
240 2 -1.95737 -2.93738 4.02564 23
241 2 -2.02767 -0.908052 1.17911 25
242 2 -0.510623 -3.84453 1.21324 24
243 2 -0.410225 -5.77982 9.06619 24
244 2 -1.87391 -3.00799 9.15166 21
245 2 -2.11824 -1.13414 6.87136 21
246 2 -0.354106 -3.74172 6.47843 25
247 2 -2.29465 -1.02954 11.5636 18
248 2 -0.274594 -3.97169 11.925 17
249 1 -14.1291 -0.581267 -3.55527 11
250 1 -10.5473 0.103212 -8.87229 13
251 1 -12.0617 4.3915 -5.05788 13
252 1 -10.2764 1.94002 -6.01566 19
253 1 -10.1391 -0.0904913 -3.30628 21
254 1 -13.7692 1.77237 -5.24664 9
255 1 -10.6819 7.88909 -5.46672 10
256 1 -10.0246 6.03146 -3.0713 18
257 1 -7.19995 1.49415 -11.7321 14
258 1 -7.1683 -0.0742088 -9.06881 24
259 1 -8.70194 3.08157 -8.62508 16
260 1 -8.9116 4.7562 -5.90332 21
261 1 -7.14457 1.94752 -6.15827 24
262 1 -6.96083 -0.301092 -3.42253 25
263 1 -8.32162 2.7648 -3.47687 22
264 1 -7.51078 6.21152 -8.70796 14
265 1 -7.11653 7.75932 -5.92556 19
266 1 -6.84974 5.66509 -3.36563 20
267 1 -8.35947 9.79572 -4.24333 14
268 1 -6.28333 12.2893 -3.31442 13
269 1 -6.22223 4.27475 -10.9569 14
270 1 -3.97512 1.8569 -11.913 14
271 1 -3.86678 0.0942467 -8.97067 23
272 1 -5.26529 2.90686 -8.86511 23
273 1 -5.68439 4.80058 -6.15062 23
274 1 -3.89789 2.02038 -6.04983 23
275 1 -3.599 0.129502 -3.38531 25
276 1 -5.28291 2.83388 -3.42953 25
277 1 -4.39315 7.36806 -10.9812 10
278 1 -3.52625 5.73598 -8.77106 24
279 1 -5.09635 8.77486 -8.49318 14
280 1 -5.53116 10.7108 -6.03903 13
281 1 -4.04924 7.62159 -6.26733 22
282 1 -3.68952 5.58855 -3.47319 22
283 1 -5.31528 8.46794 -3.27798 22
284 1 -3.07343 12.0388 -4.30971 15
285 1 0.542488 4.27327 -11.0466 21
286 1 -2.81212 4.65782 -11.1406 18
287 1 -0.510123 1.71427 -11.6537 17
288 1 -0.453836 -0.164459 -8.96609 23
289 1 -1.98132 2.82151 -8.80467 25
290 1 -2.05648 4.58738 -5.9767 25
291 1 -0.510169 1.78993 -6.09562 25
292 1 -0.391365 0.0166944 -3.34796 26
293 1 -2.06427 2.74702 -3.27043 24
294 1 -0.97965 7.25062 -11.4258 13
295 1 -0.164883 5.7043 -8.69637 23
296 1 -1.99916 8.58811 -8.66479 20
297 1 -2.12994 10.3521 -6.00566 18
298 1 -0.43854 7.39375 -6.18157 24
299 1 -0.328578 5.91479 -3.50232 24
300 1 -2.05076 8.45186 -3.64116 21
301 1 -0.601098 11.7189 -8.75257 7
302 1 -0.448251 11.6269 -4.2689 19
303 2 -13.0684 0.483045 -0.15911 18
304 2 -13.6881 1.59622 -3.32252 14
305 2 -10.4385 0.108987 -6.9032 18
306 2 -12.1357 2.74639 -5.89516 12
307 2 -7.75338 1.70598 -9.67446 16
308 2 -10.0995 0.0882283 -1.31685 22
309 2 -11.8642 3.23166 -0.600801 15
310 2 -11.8782 4.87407 -3.30791 14
311 2 -9.77464 1.63146 -4.14746 21
312 2 -10.712 5.7109 -5.76384 12
313 2 -10.2112 5.51207 -0.955385 18
314 2 -10.7606 7.95021 -3.58751 12
315 2 -7.21526 -0.497842 -11.7494 12
316 2 -7.29617 -0.110294 -6.99912 23
317 2 -8.8492 3.01872 -6.73268 20
318 2 -7.6652 4.458 -9.49462 14
319 2 -5.70913 2.67753 -11.6954 12
320 2 -6.97106 -0.0107291 -1.43067 25
321 2 -8.36758 2.77598 -1.51458 23
322 2 -8.6245 4.82473 -3.82984 23
323 2 -6.75886 1.70166 -4.0564 22
324 2 -7.3586 5.87193 -6.80439 19
325 2 -8.9291 8.58904 -5.6435 12
326 2 -6.21205 7.4203 -9.5019 13
327 2 -6.79025 5.69591 -1.31291 24
328 2 -9.01488 8.12782 -0.613327 16
329 2 -8.98527 10.1611 -2.41576 11
330 2 -6.5658 7.44647 -4.08598 19
331 2 -6.67117 11.4502 -1.47261 13
332 2 -4.16822 -0.0542668 -11.9616 15
333 2 -2.21028 2.56511 -11.5785 16
334 2 -3.84614 0.0489361 -6.8686 26
335 2 -5.50808 2.84631 -6.9015 24
336 2 -4.5196 4.64178 -10.0272 18
337 2 -3.62819 1.96102 -9.2016 22
338 2 -3.66973 -0.214859 -1.38652 24
339 2 -5.25009 2.92822 -1.38215 24
340 2 -5.41236 4.59668 -4.11792 25
341 2 -3.68956 1.89634 -4.0882 24
342 2 -2.71525 6.41308 -11.7726 12
343 2 -4.06459 5.80438 -6.85417 24
344 2 -5.58959 8.79503 -6.69094 18
345 2 -3.65238 7.81961 -9.33218 16
346 2 -3.25744 5.66105 -1.53981 24
347 2 -5.3866 8.61552 -1.48202 20
348 2 -6.69909 11.0058 -4.58317 14
349 2 -3.78536 7.43238 -4.10224 23
350 2 -3.69338 11.3861 -6.10977 15
351 2 -3.25728 11.5476 -0.913681 21
352 2 -4.47281 12.6832 -3.18179 12
353 2 -0.412434 -0.243543 -12.1023 15
354 2 1.18258 2.67601 -12.0413 16
355 2 -0.494408 -0.139874 -6.95953 24
356 2 -2.25132 2.81542 -6.65082 22
357 2 -1.72538 4.74787 -8.98878 22
358 2 -0.449241 1.89265 -9.42361 22
359 2 -0.416591 0.0919152 -1.3666 25
360 2 -2.06833 2.90903 -1.25852 24
361 2 -2.10745 4.53275 -4.0106 23
362 2 -0.401084 1.82267 -4.0246 23
363 2 0.424854 6.07308 -11.7958 15
364 2 -0.475942 5.53794 -6.73837 23
365 2 -2.30246 8.3932 -6.7309 21
366 2 -1.8418 10.3853 -8.87249 12
367 2 -0.417394 7.6116 -9.46967 20
368 2 -0.14479 5.8223 -1.5557 23
369 2 -1.92709 8.79328 -1.66137 22
370 2 -2.02567 10.3386 -4.05688 20
371 2 -0.350118 7.69593 -4.25623 22
372 2 -0.372014 11.3494 -6.23194 17
373 2 -0.0116623 11.6808 -0.783487 21
374 2 -1.79934 14.3149 -0.568025 12
375 2 -1.54809 12.9469 -3.23356 16
376 1 -13.3366 1.95859 -1.54504 14
377 1 -13.3992 0.212987 1.66879 13
378 1 -12.9965 2.20627 4.27334 14
379 1 -12.0247 4.9567 -1.3904 12
380 1 -10.2382 2.08705 -0.74038 21
381 1 -10.4181 -0.0368095 2.0799 24
382 1 -11.6794 3.16492 1.35747 17
383 1 -11.9664 5.30372 4.13718 12
384 1 -10.0846 1.57376 4.88777 22
385 1 -11.495 -0.111829 6.96874 14
386 1 -11.5626 3.69919 6.79316 15
387 1 -10.4449 2.09895 8.74692 14
388 1 -10.2486 8.79451 -1.845 10
389 1 -10.0671 5.82238 1.00171 17
390 1 -10.1196 7.88385 4.05661 13
391 1 -9.86558 6.22134 6.99115 16
392 1 -8.38277 4.68485 -0.877525 22
393 1 -6.80399 1.78666 -0.841177 26
394 1 -6.97247 0.128972 2.0389 24
395 1 -8.48477 2.76393 1.93792 23
396 1 -8.52338 4.90406 4.3544 23
397 1 -7.05502 1.86521 4.58651 23
398 1 -7.25278 0.204485 7.24351 24
399 1 -8.4905 3.34311 7.0865 20
400 1 -9.11018 4.84464 9.57703 13
401 1 -7.16927 1.86207 9.83736 20
402 1 -7.25316 -0.425946 11.877 10
403 1 -8.13151 10.7104 -0.789878 14
404 1 -6.99789 7.50529 -0.683527 25
405 1 -6.76589 5.84711 1.83743 23
406 1 -8.49485 8.72866 1.33566 16
407 1 -6.21029 11.4813 1.87861 14
408 1 -6.83718 7.72178 4.43165 21
409 1 -7.16225 6.06028 7.34308 25
410 1 -8.29697 8.91885 6.64902 14
411 1 -7.25061 7.73428 9.65226 11
412 1 -4.48749 13.6115 3.71133 10
413 1 -5.00107 4.90937 -1.0091 22
414 1 -3.72131 1.87074 -0.619849 25
415 1 -3.68227 -0.172685 1.89567 23
416 1 -5.34008 2.97801 1.85633 21
417 1 -5.34947 4.85574 4.47563 25
418 1 -3.76373 2.07865 4.52675 23
419 1 -3.69435 -0.124868 7.00452 20
420 1 -5.40386 3.02957 7.01244 23
421 1 -5.49921 4.99925 9.50378 20
422 1 -3.77366 1.84751 9.65405 22
423 1 -3.88253 -0.294905 12.0463 16
424 1 -5.53503 2.80332 11.7912 11
425 1 -4.93332 10.8288 -1.37459 20
426 1 -3.42987 7.58732 -1.01243 25
427 1 -3.60065 5.70283 1.82351 23
428 1 -4.99956 8.7111 1.59581 22
429 1 -5.74763 10.54 4.85207 15
430 1 -3.68567 7.76838 4.28722 20
431 1 -3.84186 5.73443 6.61226 20
432 1 -5.1757 8.74783 7.37856 19
433 1 -3.78235 7.71387 9.43793 14
434 1 -3.62748 5.64067 12.5782 10
435 1 -3.06783 13.271 -1.74781 15
436 1 -3.3522 11.7293 1.10608 19
437 1 -3.3205 11.61 6.22501 12
438 1 -1.80168 4.73471 -0.854644 24
439 1 -0.268062 1.96719 -0.601171 25
440 1 -0.482972 -0.0899213 2.01873 24
441 1 -2.01473 2.82497 1.86182 22
442 1 -1.78383 4.86405 4.45192 23
443 1 -0.354169 1.9013 4.585 23
444 1 -0.330304 0.057234 7.22468 25
445 1 -2.06629 2.66223 7.05077 22
446 1 -2.33921 4.8601 9.60496 23
447 1 -0.511032 2.04647 9.61524 21
448 1 -0.448383 -0.22354 11.497 18
449 1 -2.14906 2.55307 12.7154 17
450 1 -1.58421 10.6772 -1.37799 23
451 1 -0.0468159 7.84357 -0.898837 22
452 1 -0.206645 5.88298 1.71247 23
453 1 -1.744 8.67409 1.83573 22
454 1 -1.26809 12.9951 4.15075 13
455 1 -0.523715 7.6604 4.18484 18
456 1 -0.584959 5.76894 7.0655 23
457 1 -2.03484 8.80593 6.86936 18
458 1 -0.504369 7.54703 9.69205 15
459 1 -0.810421 5.30994 12.1531 12
460 1 -0.294499 13.471 -1.77234 14
461 1 -0.135362 11.6497 1.31504 19
462 1 -2.0599 14.5054 1.25779 11
463 1 -0.00575565 11.5061 6.84324 12
464 2 -12.084 0.959693 5.4794 14
465 2 -12.8192 2.02119 2.41224 16
466 2 -10.2647 -0.221279 4.09367 22
467 2 -12.5296 3.83864 5.24593 11
468 2 -11.0939 4.85242 2.38027 17
469 2 -10.0641 1.81575 1.2018 23
470 2 -10.7867 0.138399 8.82133 11
471 2 -10.5329 4.71438 8.17115 13
472 2 -9.99611 1.98864 6.74258 20
473 2 -10.7146 6.23053 5.09259 13
474 2 -9.51081 7.27732 2.20785 17
475 2 -8.65896 7.57319 8.20308 13
476 2 -7.01828 -0.0739099 4.06777 23
477 2 -8.72258 2.90704 3.97011 21
478 2 -8.31889 4.71558 1.21514 23
479 2 -6.68908 1.87338 1.39924 22
480 2 -7.44793 0.0587559 9.49389 17
481 2 -8.67003 2.89259 9.19479 19
482 2 -8.44445 4.9964 6.19791 24
483 2 -7.12046 2.01926 6.54556 24
484 2 -6.74849 1.43455 11.8662 12
485 2 -6.8695 5.85008 3.81994 22
486 2 -8.64428 8.51964 4.84887 15
487 2 -7.82793 10.654 1.36218 14
488 2 -6.67745 7.65374 1.21538 22
489 2 -7.29339 5.67309 9.47658 17
490 2 -6.70884 7.79052 6.54602 20
491 2 -5.63799 12.0649 3.63167 12
492 2 -3.66419 -0.121038 4.12474 23
493 2 -5.47013 2.80914 3.90228 22
494 2 -5.19519 4.80376 0.994756 26
495 2 -3.6929 1.89455 1.46016 22
496 2 -3.95495 -0.0210236 9.00698 21
497 2 -5.59814 2.88103 8.95946 21
498 2 -5.57122 4.90251 6.39094 23
499 2 -3.7635 1.656 6.46316 23
500 2 -4.93918 4.4454 11.4413 15
501 2 -3.50013 1.63916 11.7017 16
502 2 -3.48063 5.71391 3.79426 25
503 2 -5.309 8.77556 3.72169 22
504 2 -4.94053 10.4485 0.771233 20
505 2 -3.54959 7.50959 0.897914 23
506 2 -3.90996 5.80255 8.70401 24
507 2 -5.55716 8.4043 9.25745 13
508 2 -4.71201 10.4223 6.51622 13
509 2 -3.74416 7.64076 6.40883 25
510 2 -3.07435 12.983 4.8415 12
511 2 -3.71192 13.6008 1.90593 13
512 2 -0.238523 -0.181634 3.92227 24
513 2 -1.96242 2.84825 4.14959 21
514 2 -1.79513 4.89596 1.43618 22
515 2 -0.230596 1.83476 1.28016 24
516 2 -0.271928 -0.0253983 9.29038 23
517 2 -2.29284 2.98108 8.97434 24
518 2 -2.07997 4.52093 6.52522 22
519 2 -0.326408 1.91276 6.54787 24
520 2 -2.10983 4.43037 13.0979 10
521 2 -0.622462 1.81611 11.5435 17
522 2 -0.105402 5.7493 3.72715 25
523 2 -2.14466 8.49685 3.71088 18
524 2 -1.80363 10.5482 1.50992 18
525 2 -0.105609 7.76538 1.1088 23
526 2 -0.577427 5.65338 9.00125 21
527 2 -2.06261 8.60062 9.0845 15
528 2 -1.66778 10.8856 6.90296 13
529 2 -0.501879 7.7607 6.33208 22
530 2 -2.35173 6.09642 11.1648 14
531 2 -0.0787708 11.9636 4.91684 13
532 2 -0.812211 13.1685 2.35994 13
533 1 3.29881 -11.7215 -7.78619 12
534 1 1.50858 -6.71386 -11.0437 16
535 1 1.26758 -8.59684 -8.53972 20
536 1 1.23181 -6.78381 -5.95089 25
537 1 3.08177 -9.40297 -6.12099 19
538 1 3.3959 -11.5856 -3.98623 16
539 1 1.59843 -8.79653 -3.37336 22
540 1 1.20002 -4.89393 -13.3809 9
541 1 1.39033 -1.29015 -11.7982 20
542 1 2.95508 -3.60239 -11.2392 23
543 1 2.7586 -5.5364 -8.65776 24
544 1 0.873733 -2.88829 -8.83674 23
545 1 1.15513 -1.08451 -6.0611 24
546 1 2.88054 -3.8743 -6.15043 24
547 1 3.0507 -5.63485 -3.47201 23
548 1 1.27577 -2.67605 -3.54194 23
549 1 4.33631 -6.40725 -11.6954 14
550 1 4.47494 -8.22151 -8.51115 18
551 1 4.58765 -6.6074 -6.1397 22
552 1 5.95781 -10.1731 -5.96968 15
553 1 6.47796 -11.8413 -2.84065 9
554 1 4.83235 -8.73346 -3.48205 21
555 1 4.72062 -1.00343 -11.5052 16
556 1 6.26642 -3.93733 -11.6598 12
557 1 6.00134 -5.72159 -8.88291 20
558 1 4.43806 -2.85568 -8.69883 24
559 1 4.89271 -1.29905 -5.96456 20
560 1 6.41134 -3.82205 -6.25669 22
561 1 6.39731 -5.58287 -3.61048 23
562 1 4.88857 -2.93792 -3.38845 22
563 1 7.82936 -6.99923 -6.69097 16
564 1 8.1014 -8.96557 -4.36442 18
565 1 7.90092 0.107034 -10.9049 13
566 1 9.42752 -5.81398 -9.45168 8
567 1 7.82842 -2.77033 -8.99537 18
568 1 8.47243 -0.88966 -6.27745 21
569 1 9.65012 -3.88312 -6.92759 16
570 1 9.29129 -5.98675 -4.10922 19
571 1 8.30418 -2.60343 -3.56529 22
572 1 11.4267 -8.30943 -4.1554 9
573 1 11.6141 -0.896211 -6.6529 12
574 1 11.0081 -3.22392 -4.41443 16
575 2 3.03206 -11.9953 -0.373841 15
576 2 4.15861 -11.2122 -6.10761 13
577 2 2.99244 -9.29033 -8.185 18
578 2 1.256 -8.8736 -6.32574 22
579 2 1.37293 -6.6605 -9.25676 22
580 2 4.29242 -6.73496 -9.61188 20
581 2 1.55137 -12.1273 -3.16693 15
582 2 1.36037 -8.7723 -1.2115 21
583 2 1.39304 -6.68225 -3.92695 20
584 2 3.21636 -9.68842 -3.95984 18
585 2 2.69268 -5.45339 -11.9518 14
586 2 1.37881 -3.16227 -12.3488 15
587 2 2.66359 -5.96135 -6.70815 24
588 2 1.22897 -2.95371 -6.82882 24
589 2 1.17301 -1.11047 -9.25309 23
590 2 2.66508 -3.77952 -9.26249 24
591 2 3.09668 -5.64038 -1.43475 22
592 2 1.38531 -2.79699 -1.45313 24
593 2 1.28317 -0.893671 -4.11826 23
594 2 3.17744 -3.70658 -4.13166 24
595 2 4.70672 -12.3455 -2.64144 14
596 2 4.77808 -8.57386 -6.32622 19
597 2 6.04364 -5.75539 -12.1241 9
598 2 6.39891 -11.2665 -0.705749 15
599 2 4.53869 -8.50336 -1.54514 21
600 2 4.61184 -6.72265 -4.08915 22
601 2 6.41205 -10.2038 -3.8596 17
602 2 4.64491 -2.89859 -11.5298 14
603 2 6.18487 -5.77688 -6.85368 22
604 2 4.6673 -3.07763 -6.68452 23
605 2 4.56375 -1.0925 -9.57834 23
606 2 6.23973 -3.96384 -9.5413 22
607 2 6.38635 -5.68989 -1.36818 22
608 2 4.90288 -2.73743 -1.38784 22
609 2 4.77837 -0.992443 -3.94248 21
610 2 6.38007 -3.58539 -4.0537 22
611 2 7.48543 -8.73929 -6.17067 14
612 2 7.88068 -6.51484 -8.67574 14
613 2 8.10473 -8.39432 -0.900978 21
614 2 7.81362 -7.03118 -3.61644 21
615 2 9.79892 -9.3479 -3.57134 11
616 2 9.15084 -5.58904 -5.8798 20
617 2 7.8998 -2.79581 -6.94081 21
618 2 8.02252 -0.830758 -9.35536 16
619 2 9.37325 -4.03018 -8.82984 12
620 2 9.46722 -5.56592 -0.584607 23
621 2 7.88194 -2.75501 -1.56394 21
622 2 8.59268 -0.926441 -4.34392 22
623 2 9.65615 -4.10956 -3.39338 19
624 2 11.0975 -8.25932 -0.464361 14
625 2 10.766 -6.77605 -3.07046 16
626 2 11.1203 -2.62726 -6.27336 14
627 2 12.6961 -5.50163 -0.215145 14
628 2 11.0391 -2.69807 -0.575582 20
629 2 12.4632 -0.358272 -5.1065 14
630 2 12.5423 -3.04808 -3.09516 11
631 1 1.58182 -12.5766 -1.33702 13
632 1 1.47305 -12.8982 4.17011 14
633 1 1.47883 -6.77492 -1.05811 20
634 1 3.0702 -9.69857 -0.881612 23
635 1 3.35826 -11.5176 1.4021 18
636 1 1.47208 -8.61689 1.64222 21
637 1 1.33799 -6.74542 4.46987 25
638 1 3.04538 -9.66061 4.22531 21
639 1 3.59523 -11.4069 6.39965 14
640 1 1.68571 -8.71335 7.18612 20
641 1 1.33961 -6.76467 9.79761 21
642 1 3.38449 -9.18107 10.2064 12
643 1 1.16568 -0.998061 -0.576538 23
644 1 2.97839 -3.69356 -0.810027 23
645 1 2.87094 -5.51389 1.89073 22
646 1 1.17522 -2.86507 1.8966 25
647 1 1.38049 -1.18774 4.4214 22
648 1 3.0024 -3.74806 4.51202 24
649 1 2.66809 -5.7784 7.23916 23
650 1 1.19581 -2.90505 7.07834 24
651 1 1.37124 -1.09879 9.50812 20
652 1 2.74376 -3.92755 9.8154 22
653 1 2.96529 -6.06129 12.1131 13
654 1 1.37943 -3.03336 12.259 15
655 1 4.96484 -12.6623 -0.538043 11
656 1 4.62043 -12.8007 3.60392 10
657 1 4.67947 -6.66617 -0.789011 23
658 1 6.32025 -9.20104 -1.15473 20
659 1 6.83233 -11.2414 1.34726 14
660 1 4.84153 -8.3186 1.94803 24
661 1 4.75955 -6.60499 4.76802 21
662 1 6.09764 -9.94288 4.39065 18
663 1 4.87083 -8.64887 7.16045 19
664 1 4.74897 -6.55313 9.63924 18
665 1 4.74282 -0.748017 -0.894889 25
666 1 6.5032 -3.76628 -0.667838 21
667 1 6.39858 -5.45501 1.90958 21
668 1 4.47015 -2.47025 1.82231 22
669 1 4.72749 -0.844125 4.63891 24
670 1 6.1895 -3.65304 4.38898 21
671 1 5.98799 -5.45761 7.17302 22
672 1 4.53842 -2.67789 7.22593 22
673 1 4.76885 -0.897736 9.88089 22
674 1 7.13034 -4.39241 10.5066 11
675 1 4.39325 -2.97501 12.3293 12
676 1 8.11964 -6.5287 -1.54896 21
677 1 9.83032 -9.0277 -1.66782 15
678 1 8.05604 -8.4588 1.02977 20
679 1 8.01528 -6.51336 3.90462 23
680 1 9.07046 -10.0013 3.6997 12
681 1 8.32529 -8.53906 6.36662 12
682 1 8.13698 -6.86057 9.37052 10
683 1 7.90837 -0.921147 -0.738874 23
684 1 9.63324 -3.69205 -1.49605 21
685 1 9.60683 -5.53058 1.39098 24
686 1 8.02395 -2.24983 2.04209 21
687 1 8.01613 -0.792896 4.52147 21
688 1 9.76716 -3.88783 4.09932 20
689 1 9.21025 -5.45964 6.65656 19
690 1 7.91418 -2.65949 6.79112 22
691 1 7.88345 -0.933183 9.90914 17
692 1 9.58214 -3.73339 9.16896 12
693 1 11.2775 -6.39782 -1.1717 17
694 1 11.5637 -8.36307 1.46874 13
695 1 10.783 -6.99519 3.90861 13
696 1 11.3717 -0.666338 -0.745746 18
697 1 12.9334 -3.83611 -1.21608 14
698 1 12.8394 -5.11873 1.62332 12
699 1 11.2741 -2.67893 1.50673 20
700 1 11.5416 0.156073 4.68171 17
701 1 13.0514 -2.58425 4.1629 10
702 1 11.2178 -2.33314 6.80865 13
703 2 2.77169 -12.4287 3.00984 12
704 2 1.67354 -12.026 6.20272 11
705 2 4.716 -11.246 4.83526 14
706 2 1.41354 -8.53511 3.66554 18
707 2 1.4444 -6.62575 1.26028 22
708 2 3.18734 -9.51998 1.30822 18
709 2 1.48346 -8.74522 9.2942 15
710 2 1.11435 -6.83502 6.61193 21
711 2 3.23765 -9.47128 6.43669 19
712 2 1.13659 -6.73935 11.764 15
713 2 2.89809 -5.76383 3.98803 23
714 2 1.23513 -3.10023 3.96817 24
715 2 1.23756 -0.99383 1.31464 24
716 2 3.04672 -3.58512 1.35644 21
717 2 3.05703 -5.9281 9.12676 22
718 2 1.21779 -3.00404 8.99066 24
719 2 1.39735 -0.995202 6.57182 22
720 2 2.81647 -3.82987 6.47331 25
721 2 1.37337 -1.24732 11.6254 19
722 2 2.89792 -4.19142 12.0254 17
723 2 5.28892 -12.1219 1.9032 13
724 2 7.46346 -10.4474 2.8807 15
725 2 4.64305 -8.52655 3.86734 20
726 2 4.78265 -6.39168 1.45017 22
727 2 6.23145 -9.06022 0.943098 19
728 2 4.7507 -8.57087 8.93403 16
729 2 4.46681 -6.67943 6.72158 19
730 2 6.5528 -9.04561 6.06193 17
731 2 3.82441 -7.60092 11.2257 10
732 2 6.29015 -5.64492 4.10076 20
733 2 4.59058 -2.57095 3.79492 25
734 2 4.73004 -0.576137 1.02624 23
735 2 6.49604 -3.42059 1.47937 21
736 2 6.41116 -5.59309 8.94994 19
737 2 4.2207 -2.65556 9.22895 23
738 2 4.48777 -0.730147 6.62139 23
739 2 6.41819 -3.71947 6.51995 21
740 2 4.59236 -0.888015 11.9672 17
741 2 5.73672 -4.00164 11.6443 12
742 2 9.35995 -8.3339 4.65657 15
743 2 8.07279 -6.67033 1.82437 23
744 2 9.93778 -8.90546 2.18068 15
745 2 8.49292 -7.00668 7.50129 13
746 2 9.48818 -5.68654 4.79829 17
747 2 8.15438 -2.69064 4.32427 21
748 2 8.01496 -0.591693 1.08907 24
749 2 9.7135 -3.54895 2.09473 20
750 2 9.16813 -5.4176 9.64794 8
751 2 7.97023 -2.82431 9.90886 16
752 2 7.79864 -0.810195 6.70524 20
753 2 9.70839 -3.42874 7.23068 14
754 2 8.11743 0.0867116 11.5218 11
755 2 11.628 -6.26096 2.36949 17
756 2 11.311 -3.04254 4.98402 15
757 2 11.2938 -0.559413 1.16505 19
758 2 12.8257 -3.39691 2.2868 14
759 2 11.0486 -0.430609 6.39051 16
760 1 5.41076 1.62636 -12.4609 11
761 1 2.27957 3.62416 -13.425 10
762 1 2.25183 6.78972 -11.7168 13
763 1 2.67037 1.57203 -11.4162 21
764 1 2.97106 -0.182388 -8.78729 23
765 1 1.29693 2.63923 -8.63332 25
766 1 1.39846 4.56329 -6.10334 23
767 1 2.99392 1.75798 -6.23166 21
768 1 2.95582 0.0265863 -3.46583 26
769 1 1.31339 2.86726 -3.49279 24
770 1 4.51131 7.91838 -9.10357 15
771 1 2.93541 5.55937 -8.8899 25
772 1 1.22916 8.64898 -9.17095 18
773 1 1.42791 10.3758 -7.21265 16
774 1 2.75203 7.62017 -6.52752 21
775 1 2.89535 5.65195 -3.58643 26
776 1 1.32862 8.91897 -3.70241 22
777 1 2.80017 11.8283 -4.33755 16
778 1 4.72496 4.42155 -11.8326 13
779 1 8.0608 3.37385 -11.2387 12
780 1 6.01103 -0.141104 -8.6927 23
781 1 4.45422 2.91426 -8.62554 20
782 1 4.84138 4.77113 -6.06526 25
783 1 6.27692 1.80806 -6.08205 23
784 1 6.40983 0.0402288 -3.70909 22
785 1 4.37769 2.97757 -3.36638 23
786 1 6.53266 5.29921 -9.12907 20
787 1 7.69803 8.35631 -9.36028 10
788 1 4.63007 10.1979 -6.40453 13
789 1 6.46231 7.41116 -6.35604 21
790 1 6.18872 5.58619 -3.58118 23
791 1 4.58775 8.60724 -3.98694 22
792 1 5.97851 11.867 -3.81769 13
793 1 9.70424 0.0938015 -8.98326 13
794 1 7.93318 2.83042 -8.48096 22
795 1 8.34431 4.80409 -6.21009 23
796 1 9.96342 2.02814 -6.12252 19
797 1 9.47591 0.514889 -3.48804 19
798 1 8.06697 3.0145 -3.63803 23
799 1 9.9128 5.59521 -9.05567 10
800 1 9.86537 7.8469 -6.92989 11
801 1 9.64036 6.12156 -3.67904 19
802 1 7.94161 8.73191 -4.12299 17
803 1 11.8324 5.02196 -5.9879 12
804 1 13.1463 1.65016 -5.34991 12
805 1 13.1328 -1.2057 -3.44612 12
806 1 11.3651 3.27801 -3.74913 17
807 2 2.94172 -0.190501 -12.052 16
808 2 3.7818 2.67506 -12.6955 13
809 2 3.09479 -0.366512 -6.81033 24
810 2 1.41914 2.65002 -6.72029 23
811 2 1.34998 4.55221 -9.37184 21
812 2 2.86039 1.82122 -9.21082 21
813 2 2.81805 -0.0857721 -1.17877 21
814 2 1.16375 2.97171 -1.5872 25
815 2 1.35824 4.74982 -4.27476 24
816 2 2.90397 1.8816 -4.28025 24
817 2 2.99915 5.19152 -12.0952 13
818 2 2.88898 5.77335 -6.94692 24
819 2 1.1072 8.24646 -7.21311 21
820 2 0.915685 10.5358 -9.13336 10
821 2 2.8071 7.69948 -9.93184 16
822 2 2.86199 5.71777 -1.50091 24
823 2 1.56768 8.77218 -1.61809 21
824 2 1.44456 10.8039 -3.55767 22
825 2 2.94119 7.36849 -4.5751 24
826 2 8.19699 8.14131 -6.15791 15
827 2 4.16992 12.6406 -3.42684 12
828 2 1.42806 13.4486 -2.4714 11
829 2 5.06809 10.3299 -4.57704 15
830 2 6.12101 0.233535 -11.7213 14
831 2 6.35744 3.38294 -12.1125 13
832 2 6.5711 -0.272792 -6.73976 22
833 2 4.69375 2.77337 -6.63763 23
834 2 4.64344 4.5787 -9.59158 22
835 2 6.17316 1.80611 -8.66696 21
836 2 6.4621 0.124276 -1.66341 25
837 2 4.47353 2.7415 -1.46819 23
838 2 4.53322 4.66821 -4.01282 23
839 2 6.32921 1.9153 -4.01744 21
840 2 6.42606 5.40555 -6.92322 22
841 2 4.60009 8.52263 -7.344 20
842 2 6.20037 7.27835 -9.33093 12
843 2 6.36537 5.6851 -1.61232 22
844 2 4.67815 8.63286 -1.8999 24
845 2 2.98702 11.1502 -6.18113 15
846 2 6.33263 7.48676 -4.36885 22
847 2 6.41134 10.7209 -0.366669 15
848 2 10.0855 0.344261 -7.21497 17
849 2 8.16567 2.91561 -6.43195 20
850 2 8.25867 4.52815 -9.57225 15
851 2 8.57901 1.69457 -9.99264 12
852 2 9.66973 0.254249 -1.60852 22
853 2 7.68042 3.17124 -1.63542 22
854 2 8.02449 4.95155 -4.08386 22
855 2 9.87367 2.16247 -4.27438 21
856 2 10.1046 5.57716 -6.93781 15
857 2 9.20556 7.4605 -8.79881 11
858 2 10.1513 5.92815 -1.50081 17
859 2 7.91594 8.32297 -0.881884 20
860 2 7.43809 10.6459 -3.45817 14
861 2 9.39196 8.00229 -3.16533 14
862 2 11.711 2.89445 -5.87574 13