ITEM: TIMESTEP
147000
ITEM: NUMBER OF ATOMS
1000
ITEM: BOX BOUNDS pp pp pp
-30.0 30.0
-30.0 30.0
-30.0 30.0
ITEM: ATOMS id type x y z Coordination
1 1 -12.1419 -0.572052 -6.64389 14
2 1 -10.4055 -3.90738 -6.9884 14
3 1 -10.631 -5.64914 -4.06729 16
4 1 -11.7909 -3.00034 -4.23899 18
5 1 -8.75509 -6.81396 -6.23874 15
6 1 -7.17753 -9.71845 -5.25247 15
7 1 -7.25622 -11.627 -2.56971 13
8 1 -9.4396 -8.74469 -3.50955 13
9 1 -8.77405 -1.42676 -11.5178 11
10 1 -6.69879 -4.62275 -11.4763 13
11 1 -6.70983 -6.13023 -8.92465 17
12 1 -8.41086 -3.32375 -9.15703 17
13 1 -9.0566 -1.0814 -6.18258 21
14 1 -7.12087 -3.99844 -6.28654 22
15 1 -7.19855 -5.63089 -3.491 22
16 1 -8.71455 -3.01943 -3.74273 22
17 1 -5.16961 -7.07703 -11.2609 12
18 1 -5.48869 -8.91357 -8.38431 14
19 1 -5.77633 -6.99822 -6.03729 22
20 1 -3.71211 -9.52248 -5.89687 20
21 1 -4.30273 -11.2715 -3.47911 16
22 1 -5.34911 -8.45742 -3.2511 21
23 1 -5.41274 -1.52904 -11.578 16
24 1 -3.73534 -4.16528 -11.2046 18
25 1 -3.65673 -6.13702 -8.24443 23
26 1 -5.08616 -3.25355 -8.57706 24
27 1 -5.60429 -0.903682 -6.09262 24
28 1 -3.85783 -3.73504 -6.11793 22
29 1 -3.7688 -5.63476 -3.57096 22
30 1 -5.38251 -3.02445 -3.3335 24
31 1 -2.41134 -12.6535 -5.49961 9
32 1 -1.75791 -6.52698 -11.2207 16
33 1 -0.518833 -11.8335 -8.16989 10
34 1 -2.10032 -8.81474 -8.93046 15
35 1 -2.00371 -6.65973 -5.86135 24
36 1 -0.524999 -9.51357 -6.26744 19
37 1 0.0390022 -11.7548 -4.05868 13
38 1 -1.93393 -8.40644 -3.47146 23
39 1 -1.97638 -1.30331 -11.2698 17
40 1 -0.362973 -4.10316 -11.2128 21
41 1 -0.418845 -6.10948 -8.54783 22
42 1 -1.7999 -3.12188 -8.645 22
43 1 -1.99799 -0.827113 -6.07395 24
44 1 -0.385226 -3.89139 -6.40447 21
45 1 -0.214797 -5.66577 -3.42748 23
46 1 -1.97305 -2.81231 -3.70757 22
47 2 -12.3646 -1.26099 -3.26498 18
48 2 -12.4663 -4.89715 -4.03407 12
49 2 -8.94728 -10.6251 -2.4557 11
50 2 -9.89633 -5.23073 -5.86314 15
51 2 -11.6184 -2.62715 -6.29353 14
52 2 -8.09794 -3.33878 -11.1198 12
53 2 -10.6843 -5.41738 -0.269594 16
54 2 -11.9728 -3.03375 -0.476437 18
55 2 -13.5656 0.0798408 -5.54313 11
56 2 -10.2089 -3.88922 -3.15982 20
57 2 -8.35622 -8.2553 -5.05556 14
58 2 -5.01702 -7.24805 -9.21498 18
59 2 -6.79756 -11.4766 -0.770085 16
60 2 -8.9048 -8.32564 -0.874498 17
61 2 -9.06966 -6.39631 -3.13959 16
62 2 -6.22478 -10.2635 -3.58257 18
63 2 -7.17245 -5.84503 -7.06795 20
64 2 -8.71614 -2.94819 -7.06375 20
65 2 -8.87445 -1.07625 -9.47527 14
66 2 -6.69902 -4.23243 -9.18127 20
67 2 -6.86696 -5.49439 -1.5889 22
68 2 -8.53242 -2.75025 -1.55271 24
69 2 -8.77472 -1.09863 -4.20708 25
70 2 -6.96576 -3.83557 -4.13351 23
71 2 -3.85852 -11.4689 -5.33884 14
72 2 -0.846327 -11.5508 -6.08018 13
73 2 -5.84978 -8.80485 -6.59693 18
74 2 -6.98615 -6.52666 -11.0589 10
75 2 -3.80068 -9.53699 -8.11184 12
76 2 -3.75686 -11.1934 -1.56996 19
77 2 -5.22374 -8.62952 -1.29953 22
78 2 -5.60935 -6.71013 -4.00174 23
79 2 -3.71666 -9.36782 -3.5956 21
80 2 -3.60701 -6.01455 -11.5523 13
81 2 -5.41259 -3.33739 -11.6742 16
82 2 -3.96122 -5.93549 -6.29844 22
83 2 -5.73615 -2.74528 -6.85252 20
84 2 -5.08827 -1.07266 -9.1721 21
85 2 -3.43955 -4.26547 -8.74567 23
86 2 -3.75633 -5.59927 -1.7148 25
87 2 -5.15363 -2.7928 -1.13322 22
88 2 -5.52155 -1.04173 -3.94762 22
89 2 -3.66196 -3.56426 -3.97068 21
90 2 -2.70102 -13.7021 -0.624615 9
91 2 -1.70364 -12.6762 -3.60493 13
92 2 1.26815 -12.298 -8.67192 7
93 2 -2.22148 -8.4927 -6.14335 22
94 2 -2.07306 -6.9353 -9.2579 20
95 2 -0.397439 -9.65135 -8.67791 13
96 2 -0.13002 -11.8227 -1.00171 16
97 2 -1.80889 -8.48577 -1.17854 21
98 2 -1.96227 -6.36696 -3.86095 21
99 2 -0.160841 -9.56404 -4.14502 22
100 2 -0.0671314 -5.95911 -12.1464 12
101 2 -2.12856 -3.25274 -11.5426 16
102 2 -0.534697 -5.8935 -6.66854 21
103 2 -2.0296 -2.85949 -6.48341 21
104 2 -2.00886 -1.07387 -9.10447 20
105 2 -0.164055 -4.38761 -9.19145 21
106 2 -0.0885552 -5.68919 -1.38516 22
107 2 -1.94106 -2.73333 -1.24826 23
108 2 -1.85527 -0.909339 -4.06133 21
109 2 -0.430633 -3.74783 -4.17981 23
110 1 -14.0117 -5.72509 -3.21937 5
111 1 -12.72 -4.70092 -0.0840351 11
112 1 -9.91028 -10.0465 -0.88129 11
113 1 -12.5551 -5.132 4.16644 10
114 1 -12.1528 -1.28172 -1.31164 19
115 1 -10.331 -3.65912 -1.28141 22
116 1 -10.3616 -5.43692 1.70231 19
117 1 -11.9889 -2.62974 1.47015 18
118 1 -12.155 -0.628183 3.9909 16
119 1 -10.0844 -3.54416 3.92556 23
120 1 -10.1473 -5.65434 6.40902 14
121 1 -11.8502 -3.06032 6.72945 10
122 1 -8.85258 -6.38061 -1.23224 17
123 1 -7.06431 -9.12579 -0.677836 21
124 1 -7.93917 -11.4348 1.32062 16
125 1 -9.11811 -8.90208 2.05083 15
126 1 -8.79043 -6.72546 4.11092 18
127 1 -6.79261 -9.90318 3.72115 17
128 1 -8.64035 -8.87174 5.63503 10
129 1 -8.71221 -0.927627 -1.05411 21
130 1 -6.86819 -3.66934 -0.939832 22
131 1 -7.23936 -5.80747 1.72117 24
132 1 -8.28702 -2.64681 1.58577 22
133 1 -8.72202 -0.945872 4.37618 21
134 1 -7.18067 -4.14281 4.43712 24
135 1 -7.24442 -6.03433 6.82551 19
136 1 -8.4465 -2.97813 7.30071 22
137 1 -8.78388 -0.923807 9.31353 15
138 1 -6.59606 -3.99702 9.5245 16
139 1 -5.115 -11.9492 -0.192804 18
140 1 -5.44665 -12.5363 2.95826 14
141 1 -5.42054 -6.52023 -0.954835 21
142 1 -3.56418 -9.53527 -0.805829 21
143 1 -2.88497 -14.1204 1.12742 8
144 1 -5.43631 -8.4618 1.57981 23
145 1 -5.45277 -6.83136 4.25737 24
146 1 -3.52498 -9.87135 3.32244 17
147 1 -4.07917 -11.2356 6.29809 13
148 1 -5.70111 -8.628 7.08662 17
149 1 -5.34092 -6.50956 9.3428 17
150 1 -3.77307 -9.54262 9.26561 11
151 1 -5.15702 -1.0094 -0.615035 25
152 1 -3.51875 -3.70392 -0.765767 24
153 1 -3.79969 -5.76684 1.71572 25
154 1 -5.19708 -2.96356 1.99731 25
155 1 -5.43517 -1.2275 4.39032 22
156 1 -3.63047 -3.9455 4.39375 24
157 1 -3.74899 -5.97465 6.69691 22
158 1 -5.18721 -3.01019 6.73456 23
159 1 -5.29591 -0.970784 9.54746 21
160 1 -3.48123 -4.09629 9.01423 19
161 1 -4.30209 -5.48058 12.4308 11
162 1 -5.18532 -3.05443 12.1198 13
163 1 -1.97367 -12.3991 -1.73491 15
164 1 -1.95593 -12.451 4.03839 15
165 1 -2.01339 -6.54109 -0.95396 21
166 1 -0.353641 -9.72625 -0.985569 20
167 1 -0.653318 -11.918 1.13895 16
168 1 -1.96605 -8.51801 1.19506 18
169 1 -2.15225 -6.78365 4.13401 21
170 1 -0.307254 -9.64988 3.2449 18
171 1 -0.618332 -11.7609 6.79899 12
172 1 -2.18089 -8.59766 6.88909 20
173 1 -2.27544 -6.7557 9.7889 20
174 1 -0.372094 -9.47317 9.136 13
175 1 -1.94574 -0.734351 -0.863993 24
176 1 -0.368933 -3.86516 -0.733536 24
177 1 -0.195111 -5.7593 1.68826 23
178 1 -1.8092 -2.7142 1.86429 24
179 1 -1.91577 -1.0127 4.4913 23
180 1 -0.204804 -3.93132 4.25762 22
181 1 -0.4224 -6.12238 7.10966 25
182 1 -1.75301 -2.98573 6.88305 23
183 1 -1.90635 -1.1436 9.76454 21
184 1 -0.224749 -4.06326 9.56346 21
185 1 -0.827311 -5.40137 12.077 12
186 1 -2.00173 -2.74162 12.6239 14
187 2 -13.8461 -5.6433 -1.43338 5
188 2 -12.295 -4.48935 2.42019 12
189 2 -9.56111 -10.4325 0.981409 12
190 2 -10.4677 -5.25917 4.55367 15
191 2 -12.7545 -4.74886 5.97456 8
192 2 -12.5057 -1.03287 2.15964 15
193 2 -10.0083 -3.54592 1.63129 21
194 2 -11.4101 -1.51781 5.64144 16
195 2 -10.1757 -3.74017 7.0227 17
196 2 -7.17896 -11.7586 2.95727 14
197 2 -8.33131 -8.6409 3.80131 16
198 2 -9.02817 -6.74455 2.00796 17
199 2 -6.99643 -9.59527 1.12808 20
200 2 -8.94073 -7.04292 6.20186 15
201 2 -6.80898 -9.5671 5.79541 15
202 2 -6.97629 -5.74269 3.6077 24
203 2 -8.21495 -2.82356 3.76919 23
204 2 -8.5766 -0.830867 0.864818 21
205 2 -6.77688 -3.7789 1.24424 23
206 2 -6.75771 -5.47378 8.40728 17
207 2 -7.93414 -2.62313 9.18228 16
208 2 -8.3352 -1.04614 6.47759 22
209 2 -6.80668 -4.01798 6.31719 22
210 2 -5.38281 -4.70529 11.0488 13
211 2 -4.69207 -13.1668 1.2626 12
212 2 -4.09452 -11.6496 4.15476 15
213 2 -5.11383 -8.58888 3.50482 22
214 2 -5.57635 -6.51854 1.24787 20
215 2 -3.62805 -9.63832 1.24909 23
216 2 -5.41341 -8.57322 8.99102 13
217 2 -5.43644 -6.90804 6.24533 24
218 2 -3.82215 -9.5582 7.30089 17
219 2 -3.70163 -5.75918 3.83298 21
220 2 -5.24963 -3.09106 3.98693 21
221 2 -5.19639 -0.971097 1.33574 23
222 2 -3.42836 -3.77993 1.27255 22
223 2 -3.6114 -5.87127 8.73077 25
224 2 -4.96287 -2.8326 8.81229 22
225 2 -5.43798 -0.768746 6.52425 22
226 2 -3.49191 -3.98348 6.44043 23
227 2 -5.88713 -1.38601 11.7997 15
228 2 -3.69789 -3.72415 13.0347 10
229 2 -1.90241 -12.998 2.22365 15
230 2 -2.27092 -12.2083 5.98228 12
231 2 -0.3322 -11.431 3.81583 17
232 2 -1.98072 -8.64544 3.52904 22
233 2 -2.19242 -6.58449 0.949765 24
234 2 -0.21987 -9.93536 1.25862 21
235 2 -2.11197 -8.71411 9.19429 14
236 2 -1.98979 -6.83029 6.16985 22
237 2 -0.474222 -9.81603 7.30678 17
238 2 -2.67126 -5.85519 11.6358 15
239 2 -0.201028 -5.83148 3.70013 22
240 2 -1.87662 -3.05266 3.78486 24
241 2 -2.0018 -0.823156 1.22701 24
242 2 -0.319693 -3.85294 1.43251 21
243 2 -0.494254 -5.96491 9.05037 24
244 2 -1.70223 -2.90076 8.9129 22
245 2 -2.02007 -1.06814 6.39143 24
246 2 -0.044391 -4.1175 6.68356 20
247 2 -2.14282 -0.833259 11.9291 19
248 2 -0.421639 -3.58669 11.7778 17
249 1 -14.1701 -0.650355 -3.78019 10
250 1 -9.74339 0.403728 -8.82256 14
251 1 -11.7199 4.7814 -5.19323 12
252 1 -10.2277 2.0007 -6.04136 19
253 1 -10.4516 -0.0741778 -3.3215 23
254 1 -13.6383 1.95932 -5.22629 11
255 1 -10.1547 7.96824 -5.564 12
256 1 -9.84061 6.29961 -2.9821 19
257 1 -7.25911 1.30645 -11.3033 15
258 1 -6.92703 -0.778526 -8.61661 21
259 1 -8.18863 3.03859 -8.68619 16
260 1 -8.78613 4.95394 -5.84906 19
261 1 -7.10347 2.04937 -5.92926 23
262 1 -7.17802 -0.2469 -3.44643 23
263 1 -8.71421 2.74516 -3.29365 23
264 1 -7.16026 5.83462 -8.69275 15
265 1 -6.9167 7.76128 -5.90212 21
266 1 -6.92188 5.4032 -3.45594 20
267 1 -8.13349 9.8559 -4.22775 15
268 1 -6.0065 12.2018 -3.17588 13
269 1 -6.15941 4.3749 -11.3238 12
270 1 -4.05122 1.49508 -11.4637 16
271 1 -3.56518 0.0718076 -8.8476 21
272 1 -4.91084 3.28358 -8.81623 20
273 1 -5.42464 4.69438 -5.99712 24
274 1 -3.89646 1.84518 -6.28872 22
275 1 -3.72866 -0.114386 -3.52115 24
276 1 -5.12238 2.77113 -3.34459 24
277 1 -4.88313 7.46019 -11.0236 10
278 1 -3.20921 6.32521 -8.30253 21
279 1 -5.59502 9.0645 -8.52078 12
280 1 -5.15711 10.7025 -5.74771 14
281 1 -4.01546 7.57266 -6.05248 22
282 1 -3.39565 5.82895 -3.49226 23
283 1 -5.27983 8.68737 -3.49308 21
284 1 -2.83683 11.8505 -4.08142 14
285 1 -0.91264 3.46024 -12.972 10
286 1 -2.9988 4.38627 -11.2241 16
287 1 -0.680221 1.47728 -11.1921 20
288 1 -0.198265 -0.343948 -8.67205 22
289 1 -2.1521 2.87677 -8.78746 24
290 1 -1.96836 4.76656 -6.1772 24
291 1 -0.661655 1.88403 -5.98975 25
292 1 -0.31752 -0.0159243 -3.43822 24
293 1 -2.29324 2.98163 -3.50816 24
294 1 -0.924985 6.69084 -11.6548 15
295 1 -0.585154 5.53155 -9.10634 24
296 1 -2.14308 8.7994 -9.09932 17
297 1 -1.86927 11.3668 -7.07218 13
298 1 -0.48735 7.3845 -6.3691 24
299 1 -0.443194 5.82367 -3.63902 24
300 1 -2.02462 8.53874 -3.50236 21
301 1 -0.28046 11.203 -10.1194 7
302 1 -0.0578087 11.1358 -4.11934 18
303 2 -13.2728 0.323959 -0.552695 17
304 2 -14.11 1.22519 -3.37967 10
305 2 -10.5829 0.350222 -7.1798 17
306 2 -11.9197 3.01958 -5.53094 13
307 2 -8.44038 1.60971 -9.74201 13
308 2 -10.4776 0.291736 -1.34218 21
309 2 -12.2981 3.22859 -0.727688 16
310 2 -11.6899 5.19204 -3.29147 15
311 2 -10.0379 1.70723 -4.2038 21
312 2 -10.5034 6.07142 -5.74677 12
313 2 -10.615 5.901 -1.01087 18
314 2 -9.84043 8.29033 -3.67753 14
315 2 -7.01479 -0.492152 -11.7329 12
316 2 -7.27158 0.0933388 -6.86525 21
317 2 -8.61166 3.06442 -6.70737 20
318 2 -6.74069 4.20637 -9.53287 14
319 2 -5.86673 2.54068 -11.5294 13
320 2 -6.82432 0.133724 -1.49806 23
321 2 -8.75083 2.96058 -1.26519 22
322 2 -8.69151 4.67781 -3.76401 21
323 2 -7.02873 1.83855 -3.91196 24
324 2 -7.22645 5.90738 -6.65652 20
325 2 -8.50326 9.01084 -6.01195 12
326 2 -6.05549 7.19397 -9.289 13
327 2 -7.00975 5.57762 -1.55482 22
328 2 -8.89263 8.67461 -0.562663 19
329 2 -8.63384 10.5071 -2.46831 13
330 2 -6.51375 7.22908 -4.17048 22
331 2 -6.51052 11.4624 -1.45085 16
332 2 -3.8155 -0.407826 -11.5014 16
333 2 -2.25443 2.37487 -12.0468 14
334 2 -3.76331 -0.101556 -6.67876 22
335 2 -5.44676 2.87079 -6.71851 22
336 2 -4.49248 5.53447 -10.8905 13
337 2 -3.76582 1.96258 -9.20544 18
338 2 -3.66856 -0.0136299 -1.56718 26
339 2 -5.38871 2.79958 -1.40702 23
340 2 -5.01321 4.80938 -4.11111 24
341 2 -3.80271 1.76057 -4.22285 23
342 2 -1.76644 5.16388 -12.5409 11
343 2 -4.03129 5.73208 -6.84456 23
344 2 -5.36862 8.82839 -6.64037 17
345 2 -3.79976 8.51366 -10.0127 12
346 2 -3.68593 5.77461 -1.60527 25
347 2 -5.11891 8.57177 -1.5982 21
348 2 -6.23873 10.567 -4.33451 16
349 2 -3.5497 7.70057 -4.11818 22
350 2 -3.41171 11.4557 -5.97691 13
351 2 -3.35698 11.5635 -0.514594 20
352 2 -4.25556 12.6534 -2.88587 13
353 2 -0.41069 -0.339888 -11.5711 15
354 2 0.621972 2.79228 -12.0845 14
355 2 -0.0935421 0.263844 -6.65814 21
356 2 -2.25933 3.00684 -6.81434 25
357 2 -2.30789 4.9229 -9.33642 21
358 2 -0.449801 1.88712 -9.30277 21
359 2 -0.128083 -0.00366487 -1.33495 22
360 2 -1.99562 2.98473 -1.53517 25
361 2 -1.97547 4.71916 -4.30943 26
362 2 -0.433081 1.90245 -3.79522 22
363 2 0.948433 6.16332 -11.8946 13
364 2 -0.436011 5.62076 -6.90988 24
365 2 -2.38558 7.80021 -7.42898 19
366 2 -1.70399 10.7913 -8.91553 12
367 2 -0.709251 7.59572 -9.96745 19
368 2 -0.538686 5.83689 -1.52183 26
369 2 -2.05445 8.4412 -1.33736 22
370 2 -1.66061 10.4004 -3.33327 19
371 2 -0.50849 7.61294 -4.49228 24
372 2 -0.274149 11.2631 -6.03941 16
373 2 -0.402728 11.0049 -0.677031 22
374 2 -1.50011 13.9943 -0.557043 13
375 2 -1.44903 12.966 -3.19441 14
376 1 -13.3841 1.89252 -1.69747 14
377 1 -13.644 0.394248 1.35896 13
378 1 -13.7752 2.60085 3.993 10
379 1 -12.202 4.76152 -1.52 12
380 1 -10.5612 2.18252 -0.926233 20
381 1 -10.3825 -0.0844165 1.36225 21
382 1 -12.0118 3.12308 1.19444 18
383 1 -11.7888 5.26144 4.06098 13
384 1 -10.3611 1.7989 4.0482 22
385 1 -10.4341 -0.285883 6.82879 18
386 1 -12.1987 2.46105 6.31423 13
387 1 -10.6747 2.05083 9.09091 12
388 1 -10.0007 9.27136 -2.01876 10
389 1 -10.4794 6.17286 0.947963 16
390 1 -10.3619 7.67848 4.21542 11
391 1 -11.1542 5.27082 6.92102 16
392 1 -8.7653 4.87989 -1.03747 21
393 1 -6.96874 1.95999 -0.86957 24
394 1 -6.58576 0.142959 1.80003 24
395 1 -8.78428 3.0928 1.69125 21
396 1 -8.51505 4.75071 4.47387 24
397 1 -7.04572 1.97805 4.27379 24
398 1 -7.03301 0.230927 7.1054 23
399 1 -8.67299 3.04865 6.71967 22
400 1 -8.88252 4.78855 9.3516 13
401 1 -7.26589 2.20723 9.71678 19
402 1 -6.98964 -0.0121919 11.6928 11
403 1 -8.2945 11.3065 -0.818493 12
404 1 -7.20219 7.5762 -0.922108 23
405 1 -7.10241 5.90543 1.61906 23
406 1 -8.65833 8.90407 1.53756 16
407 1 -6.69103 11.6718 2.01891 13
408 1 -7.11086 7.56857 4.36648 19
409 1 -6.67624 6.00388 7.10867 21
410 1 -9.00224 7.47937 7.07178 13
411 1 -7.27391 7.68676 9.49593 10
412 1 -4.05923 12.8591 3.64243 11
413 1 -5.18552 4.73167 -0.922567 25
414 1 -3.73334 1.95532 -0.890165 24
415 1 -3.54907 0.0392533 1.97447 25
416 1 -5.40306 3.02674 1.8586 24
417 1 -5.34416 4.66551 4.68393 23
418 1 -3.81971 1.75841 4.68645 23
419 1 -3.69163 -0.130974 7.14299 24
420 1 -5.307 2.80501 7.15688 23
421 1 -5.38773 4.69049 9.85714 21
422 1 -3.78201 1.8279 9.7708 23
423 1 -3.9321 -0.0623617 11.7345 16
424 1 -5.30757 2.7029 12.5681 12
425 1 -5.16377 10.3798 -0.680912 21
426 1 -3.75592 7.61924 -0.752301 24
427 1 -3.7794 5.73081 2.06915 26
428 1 -5.31713 8.76502 1.88512 23
429 1 -5.95396 10.4958 4.84813 14
430 1 -3.81207 7.62191 4.75025 23
431 1 -3.6645 5.84546 6.94834 20
432 1 -5.23708 8.76209 7.74384 17
433 1 -3.69739 7.46245 9.78048 15
434 1 -3.56112 5.76625 12.2493 12
435 1 -3.02822 13.2614 -1.50282 15
436 1 -3.305 11.5062 1.26747 20
437 1 -3.93369 11.4058 6.54194 11
438 1 -1.98971 4.77088 -0.653783 25
439 1 -0.423171 1.97836 -0.793944 23
440 1 -0.462319 -0.0375387 1.95899 24
441 1 -1.9882 2.80446 1.87532 23
442 1 -2.08795 4.98794 4.5358 22
443 1 -0.4029 2.02013 4.4997 23
444 1 -0.341925 -0.124736 7.00001 20
445 1 -1.93252 2.8391 7.13441 24
446 1 -2.0472 4.73015 9.58416 23
447 1 -0.384395 1.83503 9.88998 24
448 1 -0.359474 0.0923218 12.4593 16
449 1 -1.95809 2.74749 12.447 17
450 1 -1.92143 10.4606 -1.41999 19
451 1 -0.40046 7.77466 -0.888967 22
452 1 -0.369848 5.75277 1.93016 23
453 1 -1.99847 8.42774 2.0608 21
454 1 -1.95467 10.6407 4.02881 17
455 1 -0.591265 7.68341 4.50775 22
456 1 -0.275454 5.78028 6.91577 22
457 1 -1.92663 8.60958 7.0478 21
458 1 -0.412731 7.48366 9.80285 15
459 1 -0.575548 5.91473 12.4804 11
460 1 -0.162093 14.0729 -1.95281 9
461 1 -0.270387 11.1487 1.22654 20
462 1 -1.29804 13.7382 1.30132 12
463 1 -0.344701 11.6721 6.5831 12
464 2 -12.7323 1.05209 4.73495 12
465 2 -13.5544 2.1342 2.0348 14
466 2 -10.1069 0.108455 3.37963 21
467 2 -12.3703 3.61 4.79325 13
468 2 -11.5767 4.98192 2.21038 18
469 2 -10.4315 2.0128 1.1863 19
470 2 -10.081 0.330547 8.70014 15
471 2 -11.3995 3.43499 7.81236 13
472 2 -10.1434 1.59555 6.21298 22
473 2 -11.0956 6.48362 5.49717 12
474 2 -10.0757 7.52409 2.22083 16
475 2 -9.77393 6.02144 8.22524 13
476 2 -6.97241 -0.00165043 3.91147 23
477 2 -8.66437 3.02575 3.62927 22
478 2 -8.57272 4.9512 0.84949 23
479 2 -6.91255 2.04189 1.31231 21
480 2 -7.26572 0.105787 9.55031 20
481 2 -8.78292 2.96231 8.89496 19
482 2 -8.17568 5.03981 6.36649 22
483 2 -6.87595 2.04638 6.39285 21
484 2 -6.69093 1.86757 11.5969 13
485 2 -6.86751 5.68843 3.74977 22
486 2 -8.82234 7.97429 5.17322 15
487 2 -8.18664 10.6902 1.40643 12
488 2 -6.95197 7.84165 1.31664 21
489 2 -7.27826 5.7534 9.22884 17
490 2 -7.08603 8.01315 7.61208 14
491 2 -5.98204 12.1015 3.836 12
492 2 -3.69564 -0.0947757 3.99898 25
493 2 -5.48435 2.86972 4.01917 21
494 2 -5.31406 4.86529 1.0398 24
495 2 -3.65882 1.82897 1.22403 26
496 2 -3.56093 -0.0785193 9.43055 18
497 2 -5.38253 2.80117 9.23424 21
498 2 -5.18287 4.66175 6.67743 23
499 2 -3.65685 1.75592 6.75298 22
500 2 -4.84596 4.44551 11.6933 15
501 2 -3.64395 1.8195 12.1761 17
502 2 -3.67913 5.83075 4.10409 22
503 2 -5.54594 8.72009 3.93013 20
504 2 -5.14964 10.6158 1.49243 20
505 2 -3.71367 7.62929 1.39939 23
506 2 -3.67168 5.58384 9.04683 22
507 2 -5.48879 8.0837 9.8496 13
508 2 -5.39739 10.2315 6.6286 13
509 2 -3.81423 7.71474 6.78158 21
510 2 -3.2869 11.7362 4.86093 14
511 2 -3.05353 13.5435 2.06091 13
512 2 -0.316383 -0.0610749 4.0237 23
513 2 -2.16436 2.75034 3.92824 23
514 2 -2.14306 4.82644 1.45971 22
515 2 -0.611602 1.73203 1.15148 21
516 2 -0.331558 -0.0488043 9.15506 23
517 2 -2.03758 2.73297 9.23197 23
518 2 -2.04684 4.68434 6.64174 25
519 2 -0.22884 1.90588 6.78422 20
520 2 -1.96777 4.60599 12.7559 12
521 2 -0.174385 1.85828 11.8924 14
522 2 -0.636603 5.70765 3.82379 23
523 2 -2.3302 8.59072 3.89653 21
524 2 -1.85495 10.5124 2.09004 22
525 2 -0.296292 7.48892 1.3236 23
526 2 -0.386467 5.60729 8.88132 23
527 2 -1.96298 8.26006 8.91897 16
528 2 -2.05456 10.9502 7.01366 14
529 2 -0.281099 7.75493 6.45742 24
530 2 -2.06347 6.49258 11.1361 15
531 2 -0.133443 10.9224 4.88604 18
532 2 -0.0282241 12.7025 2.40309 13
533 1 3.03389 -11.7303 -8.50543 9
534 1 1.59362 -6.83279 -11.2121 15
535 1 1.4899 -9.15015 -8.81692 17
536 1 1.2542 -6.8396 -6.124 23
537 1 2.92733 -9.46827 -6.10746 20
538 1 3.50928 -12.4034 -4.75704 11
539 1 1.34151 -8.59483 -3.36059 22
540 1 1.35244 -4.96303 -13.1496 9
541 1 1.22615 -1.32479 -11.6573 16
542 1 3.0819 -3.56792 -11.2626 20
543 1 3.00347 -5.80794 -8.61189 23
544 1 1.5276 -3.08282 -8.81038 22
545 1 1.33214 -0.888434 -6.17172 24
546 1 3.05014 -3.84831 -6.25695 21
547 1 2.96126 -5.77118 -3.53597 21
548 1 1.21391 -2.9257 -3.41504 25
549 1 4.42865 -6.36052 -11.571 13
550 1 4.53986 -8.48433 -8.75117 15
551 1 4.62962 -6.56808 -5.92827 25
552 1 6.1658 -9.45348 -6.29345 15
553 1 6.58563 -11.3097 -3.52072 11
554 1 4.65768 -8.74878 -3.37474 22
555 1 4.50598 -0.562258 -11.4566 17
556 1 6.39278 -3.63049 -11.7324 12
557 1 6.30766 -5.58901 -8.96842 19
558 1 5.05542 -2.84798 -9.0216 24
559 1 4.47212 -1.16922 -6.35704 22
560 1 6.52379 -3.86881 -6.21393 23
561 1 6.4251 -5.75661 -3.62216 25
562 1 4.59162 -3.01612 -3.40906 24
563 1 8.22335 -6.65809 -7.01014 15
564 1 7.98167 -8.52983 -4.13108 18
565 1 7.79106 0.444837 -11.3478 13
566 1 9.38318 -5.29678 -9.99015 10
567 1 8.18663 -2.4403 -8.98768 18
568 1 8.04595 -0.753044 -6.36091 21
569 1 9.87255 -3.71354 -7.03967 16
570 1 9.41752 -5.64654 -4.19536 20
571 1 8.00194 -2.72845 -3.71469 22
572 1 11.3437 -8.43977 -4.20333 8
573 1 11.39 -0.78882 -6.33696 15
574 1 11.2261 -2.94424 -3.93134 18
575 2 3.00215 -11.7999 -0.770375 13
576 2 3.11418 -11.6659 -6.63135 13
577 2 3.41222 -9.8487 -9.10281 12
578 2 1.32277 -8.55684 -6.96139 25
579 2 1.49229 -6.88833 -9.25365 21
580 2 4.5314 -6.59565 -9.503 18
581 2 2.00861 -12.3277 -3.45925 14
582 2 1.27169 -8.8122 -1.20148 19
583 2 1.35767 -6.7341 -4.07063 24
584 2 2.96833 -9.01327 -4.21601 20
585 2 2.79741 -5.28277 -11.9096 14
586 2 1.29128 -3.18004 -12.105 16
587 2 2.80428 -5.66032 -6.80876 22
588 2 1.29856 -2.83964 -6.6999 23
589 2 1.39402 -1.28424 -9.27575 25
590 2 3.20556 -3.98651 -9.21995 20
591 2 3.18244 -5.71371 -1.51543 25
592 2 1.30584 -2.9905 -1.3554 24
593 2 1.34102 -0.941307 -4.0844 24
594 2 2.92404 -3.784 -4.2358 24
595 2 4.88091 -12.1572 -3.41521 11
596 2 4.59493 -8.34337 -6.78736 19
597 2 5.9383 -5.41335 -11.9516 11
598 2 6.46634 -11.1704 -1.56945 14
599 2 4.78615 -8.65896 -1.41644 23
600 2 4.80206 -6.87493 -3.98984 23
601 2 6.27081 -9.56251 -4.34465 18
602 2 4.85503 -2.55629 -11.2559 15
603 2 6.30023 -5.8885 -6.86088 21
604 2 4.77129 -3.17932 -6.88847 21
605 2 4.76839 -0.922238 -9.38369 23
606 2 6.76497 -3.66294 -9.63997 18
607 2 6.29419 -5.68651 -1.58696 22
608 2 4.81839 -2.83174 -1.45429 23
609 2 4.64168 -1.16418 -4.0337 24
610 2 6.6068 -3.88043 -4.29594 21
611 2 7.71043 -8.33289 -6.15911 14
612 2 8.13935 -6.10224 -8.97554 13
613 2 8.28253 -8.64359 -0.854756 18
614 2 7.91428 -6.87295 -3.23272 22
615 2 9.79979 -9.38195 -3.6974 13
616 2 9.34055 -5.26293 -6.07351 18
617 2 7.86356 -2.58275 -6.9717 20
618 2 8.09984 -0.40262 -9.52097 15
619 2 9.99913 -3.91261 -8.81515 9
620 2 9.50031 -5.96303 -0.665247 23
621 2 7.98509 -2.76013 -1.68154 22
622 2 8.31856 -0.799801 -4.39684 23
623 2 9.56962 -3.92784 -3.3813 19
624 2 11.2697 -8.40543 -0.691487 15
625 2 10.8534 -6.82813 -3.3284 15
626 2 11.0481 -2.49923 -5.79516 16
627 2 12.7805 -5.37184 -0.929635 13
628 2 11.1073 -3.03793 -0.908523 19
629 2 12.6121 0.089702 -5.23534 15
630 2 12.8809 -2.35471 -3.11725 11
631 1 1.46546 -12.5327 -1.64392 14
632 1 1.02265 -12.6348 4.22137 15
633 1 1.30008 -6.93611 -0.790555 23
634 1 2.94951 -9.58834 -0.736255 23
635 1 3.33307 -11.7097 1.61118 15
636 1 1.43825 -8.89102 1.70323 20
637 1 1.10097 -7.04408 4.53342 21
638 1 3.19733 -9.75035 4.47883 24
639 1 2.98027 -11.4454 6.55063 12
640 1 1.505 -8.86757 7.32757 20
641 1 1.28534 -6.67565 9.89121 19
642 1 3.15072 -8.89322 10.5674 12
643 1 1.54933 -1.00505 -0.811222 22
644 1 3.12793 -3.92997 -1.03383 22
645 1 3.11859 -5.93711 1.78707 22
646 1 1.55084 -2.74869 1.66223 20
647 1 1.41713 -0.988232 4.55155 22
648 1 3.21066 -3.91838 4.4995 23
649 1 2.9775 -5.87537 7.22085 24
650 1 1.46627 -3.07827 7.18308 23
651 1 1.3353 -0.976756 9.39042 22
652 1 3.11115 -3.94824 9.62521 22
653 1 2.74523 -5.61715 12.408 12
654 1 1.33684 -2.77678 11.8177 16
655 1 4.67656 -12.2472 -1.41639 13
656 1 4.49762 -13.0707 3.94655 10
657 1 4.76955 -6.60842 -0.769328 22
658 1 6.49331 -9.27248 -1.07575 19
659 1 6.60077 -11.2559 1.76801 15
660 1 4.74894 -8.66011 1.96544 23
661 1 4.49362 -6.94956 4.78074 22
662 1 6.18756 -10.1505 4.74113 18
663 1 4.81044 -8.9591 7.71962 18
664 1 4.6459 -6.58994 10.018 17
665 1 4.94429 -0.753993 -0.82204 22
666 1 6.3861 -3.61242 -0.719947 24
667 1 6.45494 -5.69453 1.91937 23
668 1 4.64108 -3.10342 1.81476 21
669 1 4.9789 -1.12286 4.54859 21
670 1 6.379 -3.9208 4.73717 21
671 1 6.41843 -5.72729 7.3985 22
672 1 4.89919 -2.83122 7.16706 22
673 1 4.59547 -1.00342 9.7842 24
674 1 6.52588 -3.60836 9.99731 19
675 1 4.67909 -2.65973 12.883 12
676 1 7.90444 -6.76631 -1.35654 24
677 1 9.81004 -9.13313 -1.73118 14
678 1 8.36657 -8.66985 1.3462 20
679 1 7.86385 -6.63804 4.13623 21
680 1 9.20932 -9.75992 4.01816 13
681 1 8.09468 -8.41072 6.75438 12
682 1 7.9035 -6.82975 9.54185 10
683 1 8.36421 -0.997231 -0.723911 22
684 1 9.44988 -4.10964 -1.42976 21
685 1 9.67576 -5.74061 1.28764 23
686 1 8.04071 -3.01203 1.93171 20
687 1 8.1868 -0.879617 4.64704 22
688 1 9.87989 -3.89989 4.04119 19
689 1 9.52659 -5.68264 6.91555 16
690 1 8.14705 -2.69286 7.24279 22
691 1 7.92223 -0.611933 9.7772 18
692 1 9.94596 -3.83031 9.43682 10
693 1 11.234 -6.50471 -1.53239 19
694 1 11.4913 -8.54598 1.14124 13
695 1 10.6095 -7.03373 3.72861 15
696 1 11.7355 -0.929782 -0.905821 16
697 1 12.8593 -3.66567 -1.7491 13
698 1 12.9855 -5.63129 1.08232 14
699 1 11.2536 -2.85052 1.09477 21
700 1 12.2116 0.100849 4.96064 16
701 1 13.1905 -3.26523 3.67659 11
702 1 11.2688 -2.63738 6.4329 16
703 2 2.51027 -12.8828 3.23653 11
704 2 1.10077 -12.1069 6.27271 13
705 2 4.34058 -11.3739 4.93072 15
706 2 1.30014 -8.96371 3.83954 20
707 2 1.50443 -6.96886 1.32563 22
708 2 3.13287 -9.78416 1.3516 19
709 2 1.46712 -8.64577 9.33434 17
710 2 1.45817 -6.87866 6.58748 20
711 2 3.21804 -9.5115 6.68584 19
712 2 0.895556 -5.92908 11.9502 16
713 2 2.99457 -5.98155 4.04397 22
714 2 1.39786 -2.83895 3.69199 23
715 2 1.28088 -0.859226 1.09339 23
716 2 3.0194 -3.92509 1.01657 25
717 2 2.84219 -5.77183 9.18542 23
718 2 1.35168 -3.0142 9.4574 22
719 2 1.4256 -1.04595 6.60788 21
720 2 3.19848 -3.75116 6.61576 23
721 2 1.43766 -0.873857 12.1145 18
722 2 3.21497 -3.6533 12.1388 17
723 2 4.95139 -12.3418 2.25594 13
724 2 7.65197 -10.7596 3.39286 13
725 2 4.71817 -8.6389 3.83142 22
726 2 4.83531 -6.7564 1.19546 23
727 2 6.56374 -9.36962 1.0933 19
728 2 4.58725 -8.42362 9.45509 15
729 2 4.83535 -6.6453 6.92158 21
730 2 6.35404 -9.19913 6.54253 16
731 2 3.34085 -7.02809 11.2884 11
732 2 6.09289 -5.85967 3.98254 20
733 2 4.83765 -2.78911 3.90367 24
734 2 4.83573 -1.02616 1.18408 24
735 2 6.25047 -3.89212 1.31893 22
736 2 6.28323 -5.53898 9.35047 17
737 2 4.57077 -2.75892 9.34517 21
738 2 4.96876 -0.911779 6.55175 21
739 2 6.60955 -3.83277 6.81194 20
740 2 4.70203 -0.749452 12.0894 18
741 2 6.21114 -3.03681 11.8146 12
742 2 8.27423 -8.3859 4.99266 15
743 2 8.33261 -6.68732 2.08693 21
744 2 10.1687 -8.65049 2.65727 14
745 2 8.02715 -6.81026 7.61037 15
746 2 9.64133 -5.75214 4.67773 18
747 2 8.22154 -2.88146 4.13126 21
748 2 8.18186 -0.846001 1.20612 22
749 2 9.89632 -3.82396 2.05587 20
750 2 9.36061 -5.65238 9.53201 10
751 2 8.36883 -2.44791 9.16549 17
752 2 8.30563 -0.663885 6.71028 21
753 2 9.89999 -3.75161 7.34096 15
754 2 8.2206 0.365568 11.5293 11
755 2 11.5771 -6.58548 1.97043 16
756 2 11.684 -3.52506 4.75248 14
757 2 11.5427 -0.826922 1.20547 18
758 2 13.1901 -3.76688 1.81605 13
759 2 11.276 -0.842571 6.32589 15
760 1 5.42521 2.27424 -12.8352 9
761 1 1.91516 4.48499 -12.0136 16
762 1 2.57752 7.47744 -11.5951 11
763 1 2.34301 1.8156 -11.4586 19
764 1 2.95826 0.0294276 -8.81219 23
765 1 1.17369 3.02985 -8.77325 22
766 1 1.14437 4.87448 -6.20185 24
767 1 2.7944 1.83685 -6.07539 23
768 1 2.97988 -0.0676472 -3.41539 24
769 1 1.1301 2.95515 -3.23978 23
770 1 4.25486 8.43261 -8.97344 15
771 1 2.90065 5.87494 -8.82163 23
772 1 0.81639 8.42488 -9.05382 20
773 1 1.22798 10.5258 -7.0872 15
774 1 2.46542 7.6363 -6.17346 23
775 1 2.94514 5.79857 -3.46725 23
776 1 1.15709 8.42489 -3.62057 24
777 1 3.0482 11.3532 -3.89982 18
778 1 4.91571 4.37439 -11.2346 17
779 1 8.27733 3.76796 -11.2781 12
780 1 6.1739 0.261001 -9.20137 22
781 1 4.42981 2.92296 -8.83179 20
782 1 4.6019 4.64929 -5.89199 24
783 1 6.23902 1.78214 -6.09095 22
784 1 6.33497 -0.0899212 -3.40984 23
785 1 4.43839 2.68777 -3.38926 22
786 1 6.47397 5.84259 -8.79044 20
787 1 7.44967 9.118 -8.29433 11
788 1 4.13095 10.3109 -6.3106 17
789 1 5.61931 7.6706 -6.27406 20
790 1 6.34554 5.80034 -3.4798 22
791 1 4.48434 8.48804 -3.77345 24
792 1 5.9154 11.9242 -4.07529 11
793 1 9.62834 0.817532 -8.99459 14
794 1 7.69554 3.21707 -8.73243 21
795 1 7.79972 4.82097 -6.15118 24
796 1 9.50854 2.06153 -6.19649 22
797 1 9.52358 0.225031 -3.4418 22
798 1 7.65359 2.98816 -3.46775 24
799 1 9.25457 6.08941 -8.95049 12
800 1 9.09869 7.71377 -6.36008 15
801 1 9.37915 6.09853 -3.58695 17
802 1 7.34573 9.07938 -4.35566 16
803 1 11.0436 4.8418 -6.20924 14
804 1 13.3113 1.87183 -5.54233 10
805 1 13.441 -0.635177 -3.59025 11
806 1 10.9788 2.9615 -3.69069 20
807 2 2.61355 -0.0758985 -11.7805 16
808 2 3.82096 3.04947 -12.1697 13
809 2 2.99439 -0.046749 -6.82749 23
810 2 0.982887 2.87367 -6.62836 22
811 2 1.38516 4.72985 -9.25131 22
812 2 2.86926 1.83953 -9.41372 23
813 2 3.18926 -0.171236 -1.49873 23
814 2 1.348 2.97574 -1.27384 21
815 2 1.12485 4.8623 -4.18984 26
816 2 2.72675 2.11085 -4.15124 23
817 2 3.57859 5.89406 -12.0018 10
818 2 3.0032 5.66664 -6.727 23
819 2 0.909187 8.51348 -6.98226 24
820 2 1.18848 10.6975 -8.87978 13
821 2 2.38435 7.42853 -9.77392 18
822 2 3.06699 5.68131 -1.51724 24
823 2 1.3272 7.96077 -1.75892 21
824 2 1.58883 10.2323 -3.3776 23
825 2 2.78497 7.54687 -4.28619 25
826 2 7.23457 8.83972 -6.30992 15
827 2 4.57044 12.5072 -2.77268 13
828 2 1.47555 13.1038 -1.89968 11
829 2 4.75881 10.3801 -4.48403 17
830 2 5.92999 0.67555 -11.8628 15
831 2 6.63977 3.66045 -12.1438 12
832 2 6.2428 -0.0879723 -6.73884 22
833 2 4.45801 2.77306 -6.5106 23
834 2 4.75997 4.8942 -9.10656 19
835 2 5.97092 2.06265 -8.87418 22
836 2 6.58458 -0.0463479 -1.41044 23
837 2 4.77041 2.73911 -1.22672 21
838 2 4.77703 4.57218 -3.88849 21
839 2 6.18299 1.89324 -4.06897 25
840 2 6.21393 5.82294 -6.64526 24
841 2 3.97116 8.47083 -7.03342 19
842 2 5.94365 7.79946 -9.21162 13
843 2 6.52352 5.98655 -1.38974 21
844 2 4.44269 8.63414 -1.52571 23
845 2 2.49647 10.816 -5.56581 16
846 2 6.0367 7.48916 -4.28416 23
847 2 6.36561 11.1624 -0.622948 17
848 2 9.81452 0.218852 -7.07129 17
849 2 7.92259 3.02255 -6.67312 22
850 2 7.94085 4.91086 -9.88858 15
851 2 8.7113 1.99023 -10.444 12
852 2 9.8598 0.363037 -1.45958 20
853 2 7.90334 3.10515 -1.2941 21
854 2 7.88026 4.80678 -4.04305 22
855 2 9.4686 1.9985 -4.31379 23
856 2 9.51704 5.60859 -7.15439 16
857 2 8.85167 7.94391 -8.67447 9
858 2 9.93481 5.79974 -1.51066 17
859 2 7.79168 8.73879 -0.975114 18
860 2 7.44326 10.7744 -3.54459 12
861 2 8.7524 7.71616 -4.37235 16
862 2 11.5243 2.89218 -6.21293 13
863 2 12.8504 0.308152 -2.14695 15