ITEM: TIMESTEP
19000
ITEM: NUMBER OF ATOMS
500
ITEM: BOX BOUNDS pp pp pp
-30.0 30.0
-30.0 30.0
-30.0 30.0
ITEM: ATOMS id type x y z Coordination
1 1 -0.910499 1.43072 3.72156 19
2 1 -9.03096 9.28829 5.24859 13
3 1 -13.9065 7.00604 1.33274 15
4 1 -9.72903 2.4912 -13.1906 14
5 1 -15.3974 2.89996 -4.96344 19
6 1 -6.89687 3.90042 -15.1597 9
7 1 -0.61831 -4.53575 -7.20402 12
8 1 -5.58894 7.59755 2.7817 22
9 1 -5.27285 7.71616 -10.4083 23
10 1 -5.23619 9.49166 4.89025 14
11 1 -15.1978 0.732313 -2.991 20
12 1 1.20556 1.37273 -7.81682 16
13 1 -4.58134 3.30819 6.2933 15
14 1 -15.0583 -3.0606 -5.41951 11
15 1 -8.17924 -3.37673 -11.7979 13
16 1 -0.229231 5.75419 -9.92798 21
17 1 -0.619342 -0.31158 1.37576 19
18 1 -8.86198 10.8891 -0.560808 20
19 1 -10.3624 11.4837 -5.49314 21
20 1 -5.33074 -1.20428 -12.2322 17
21 1 -8.46523 6.78737 3.14123 23
22 1 1.74352 1.69615 1.57325 14
23 1 -13.9878 10.835 1.70256 10
24 1 -4.55584 9.15733 -12.7917 14
25 1 0.131662 8.67285 -3.42895 17
26 1 -6.57299 10.9652 -10.2094 18
27 1 -13.1866 8.87501 -8.95618 18
28 1 -8.12019 12.427 -7.86091 15
29 1 -4.35726 10.9477 -5.2717 22
30 1 -15.0038 6.88087 -3.26213 16
31 1 -7.29813 10.1711 2.97731 21
32 1 -12.785 6.14636 -10.9475 14
33 1 -11.4648 -3.76931 0.746007 13
34 1 -1.09234 -2.30309 -4.76079 20
35 1 -15.1398 3.00279 0.650326 18
36 1 -13.2529 3.22645 -7.60303 21
37 1 -6.18273 -6.07722 -0.25705 13
38 1 -2.38363 6.54389 -14.5843 10
39 1 -11.3178 -3.39193 -10.4737 12
40 1 -6.67284 7.61898 -14.5271 10
41 1 -7.1983 11.6099 -5.33137 20
42 1 -18.0936 3.57483 0.119728 8
43 1 -4.67669 12.0032 2.72697 13
44 1 -2.27554 4.2504 3.79124 21
45 1 -3.98668 -4.61468 -7.56496 20
46 1 0.430719 7.56156 -12.6081 10
47 1 -8.99199 -6.43807 0.504358 9
48 1 -3.12114 0.794242 6.29365 12
49 1 -5.56422 -1.35138 3.48059 16
50 1 -0.627639 10.9924 -5.09018 16
51 1 -13.4471 -4.18881 -2.32612 11
52 1 -4.46077 -5.0532 -2.59366 18
53 1 -9.2747 4.28916 3.28553 22
54 1 -13.4823 2.80087 3.39648 13
55 1 -2.54863 -5.42104 -4.81503 16
56 1 -16.405 -0.0989985 -0.244173 9
57 1 -10.552 10.7105 2.17523 15
58 1 -14.4749 8.88516 -0.713336 15
59 1 -11.9894 8.55224 3.20407 16
60 1 -13.0659 -0.123595 -10.5858 12
61 1 -15.678 7.34178 -10.3065 11
62 1 -9.71208 -0.607335 -11.4726 16
63 1 -1.34769 3.72392 6.55203 11
64 1 -6.61559 0.570097 5.68139 16
65 1 -14.557 3.14083 -10.8294 13
66 1 -16.6457 -0.0858105 -5.76318 11
67 1 -7.99039 -5.69846 -2.95382 13
68 1 -11.6412 8.78351 0.0150407 20
69 1 -6.02027 -4.20646 -9.963 16
70 1 -7.71107 12.7787 1.22429 14
71 1 -16.9534 6.38047 -5.80512 10
72 1 -16.0955 10.4035 -9.58967 8
73 1 -5.94449 -6.73085 -8.41167 11
74 1 -1.75601 -3.2033 0.908111 13
75 1 -14.9776 9.51483 -6.40473 12
76 1 -11.3399 3.1333 5.88575 11
77 1 -16.3786 4.81824 3.12508 9
78 1 -2.35322 -2.84755 -12.2947 10
79 1 -8.08153 -2.38637 4.93349 12
80 1 -1.61298 -3.06233 -9.79208 16
81 1 4.08732 7.03697 -0.770271 10
82 1 -3.71103 3.27499 -12.965 18
83 1 -2.49214 -6.45565 -1.07794 8
84 1 -10.8348 -5.53479 -4.10907 12
85 1 -13.4291 -1.28994 -0.992627 19
86 1 -0.793354 6.33194 4.64926 13
87 1 3.14528 9.71768 -2.66912 10
88 1 -4.96003 5.92719 -12.9906 18
89 1 -7.75219 9.85256 -12.4378 12
90 1 -7.22376 14.7813 -1.68539 9
91 1 -1.09082 4.86468 -12.4661 14
92 1 -1.12028 -4.19887 -1.94494 13
93 1 -0.0871866 -1.3609 -1.80277 20
94 1 -5.10653 -2.88348 0.371508 21
95 1 -14.8234 6.18982 -7.72397 18
96 1 3.53196 4.01422 -2.57258 12
97 1 -10.5341 11.5818 -10.6195 8
98 1 -3.05248 -5.63404 -10.0573 10
99 1 -13.204 -0.0146623 1.47845 14
100 1 -5.79779 -6.0961 -5.18107 13
101 1 -3.2789 -0.346346 -9.47248 22
102 1 2.43559 -1.25898 -3.77393 12
103 1 -6.45641 -2.36588 -7.22397 16
104 1 -7.92552 3.6938 5.60772 19
105 1 -10.372 6.46578 5.62954 15
106 1 -1.72795 2.48768 -9.81266 24
107 1 -12.7171 12.509 -4.70042 11
108 1 -1.52278 14.1164 -5.77474 8
109 1 1.98605 8.64245 -9.58141 11
110 1 -8.37494 5.82899 -13.15 15
111 1 -16.8201 6.14191 -0.0828742 12
112 1 -4.58147 1.63263 3.48138 25
113 1 -16.5572 4.04554 -8.30852 13
114 1 1.67855 1.37398 -1.81224 17
115 1 -3.68887 6.64061 5.09548 14
116 1 -6.58341 -4.6569 2.86453 12
117 1 1.80311 7.25479 2.08721 14
118 1 -0.341661 9.92503 1.06636 12
119 1 -8.83017 -5.48734 -9.82277 12
120 1 -2.72885 9.21236 3.57801 12
121 1 -8.36424 7.77345 -10.6129 21
122 1 -11.4572 -5.20099 -7.54602 14
123 1 0.82171 6.92321 -1.20871 22
124 1 -13.5936 9.92383 -3.28053 15
125 1 -0.0316603 8.81526 -7.4676 19
126 1 -7.10268 6.54092 5.7747 17
127 1 -7.11204 1.28328 -12.0199 19
128 1 0.606788 -1.75243 -6.82819 14
129 1 -4.62394 13.8373 -0.1308 12
130 1 -11.1726 13.352 1.17911 10
131 1 -0.0617543 -0.278079 -10.2384 14
132 1 -2.265 -0.79888 3.66303 14
133 1 -13.2228 6.19843 4.40736 12
134 1 0.599071 4.06236 3.22273 16
135 1 -4.88701 12.4285 -7.67914 14
136 1 2.29896 8.36689 -5.91911 13
137 1 -9.56803 0.404719 5.5972 13
138 1 -7.53092 1.34252 3.17145 23
139 1 -10.3583 13.2352 -2.09986 14
140 1 -2.43644 13.0788 -3.00962 16
141 1 -16.1811 -2.30327 -2.84376 12
142 1 1.91915 4.3348 0.192362 17
143 1 -12.0133 -3.211 -5.16655 18
144 1 -2.98674 8.69905 0.734342 19
145 1 2.07901 3.77466 -5.64153 15
146 1 -4.93686 14.1638 -4.65511 13
147 1 -15.0911 1.016 -8.85443 14
148 1 -3.37998 11.1197 -10.7672 14
149 1 -12.0226 2.76497 -10.4968 19
150 1 -2.58391 0.215745 -12.429 14
151 1 -8.69249 -6.0204 -6.3146 13
152 1 -9.95468 -4.74935 3.04561 12
153 1 3.3871 1.50802 -4.66678 11
154 1 -17.0288 4.19911 -3.01289 12
155 1 -10.3185 8.09145 -12.3796 10
156 1 -13.308 -1.8073 -7.94347 17
157 1 -1.04512 6.11249 1.11285 20
158 1 -8.05404 -0.759213 -14.0257 12
159 1 -13.7167 12.515 -1.31409 10
160 1 -10.7418 1.37637 3.09668 20
161 1 -0.119554 11.6692 -1.98401 11
162 1 2.7627 6.44318 -4.08427 16
163 1 -10.7343 -1.91048 3.36426 14
164 1 -2.16403 7.7888 -11.2828 20
165 1 -0.190707 10.4312 -10.7094 12
166 1 -2.722 11.687 -0.123354 16
167 1 -1.72264 11.4731 -8.05676 14
168 1 1.9099 6.15146 -7.93583 14
169 1 1.67243 3.06343 -10.4153 9
170 1 -5.28232 12.3094 -2.53312 19
171 1 -9.05333 14.0053 -4.60031 12
172 1 -8.54576 -3.61489 -0.118116 19
173 1 2.42228 -1.07116 -0.125372 11
174 1 -13.6238 -0.335683 -4.89336 23
175 1 -12.8454 11.622 -8.11974 13
176 2 -16.6875 2.01468 0.0776791 12
177 2 0.575526 8.24148 1.00967 12
178 2 -16.5305 5.74767 -4.02626 13
179 2 -7.10571 -6.07889 1.42964 12
180 2 -6.23989 4.50535 6.26715 15
181 2 -13.0212 8.99719 1.65904 16
182 2 -0.326716 -2.77686 -8.04608 13
183 2 -13.2334 4.35376 -11.0359 14
184 2 -2.44802 -4.29477 -11.1086 10
185 2 -9.45162 12.3315 1.39709 13
186 2 2.31577 0.784692 0.00416698 13
187 2 -0.753764 12.2428 -3.72825 13
188 2 -6.40314 11.5566 1.91764 16
189 2 -2.9736 14.3924 -4.46152 11
190 2 -3.56313 9.15895 -11.0893 17
191 2 -0.433397 3.74447 -10.8246 15
192 2 -15.9615 5.54545 -9.47315 13
193 2 -8.15675 -4.05419 3.77746 12
194 2 -13.7346 3.09161 -0.500898 17
195 2 -2.20229 -4.91399 -8.44456 13
196 2 -4.0776 -5.80844 -5.8037 14
197 2 -4.7114 8.92894 1.69361 20
198 2 -4.84411 1.39149 5.58746 18
199 2 -9.84301 -4.83275 0.968194 14
200 2 -2.58107 -5.59636 -2.8343 12
201 2 -14.6867 -3.48288 -3.5388 12
202 2 -8.98786 -5.31603 -4.60345 16
203 2 -11.6619 -5.67683 -5.83935 11
204 2 -11.7387 13.5201 -0.697562 11
205 2 -1.87054 5.96963 -11.1063 22
206 2 0.254284 9.19179 -5.39368 18
207 2 -6.38045 9.31053 -13.5526 13
208 2 2.76467 6.09835 0.522837 13
209 2 -8.79697 14.4393 -2.58516 9
210 2 -13.413 11.9054 -3.05209 15
211 2 -5.71112 12.6124 -5.82968 16
212 2 -1.72524 11.4318 -10.057 11
213 2 -7.5059 8.26971 2.39399 22
214 2 -6.08778 2.74046 2.77454 23
215 2 -3.52136 -1.47986 -12.8371 13
216 2 -4.99185 -0.0635481 -10.4122 20
217 2 -6.52706 -2.6058 -11.7522 15
218 2 -13.4274 -2.20099 -5.90508 20
219 2 3.36507 3.4561 -4.30132 11
220 2 -3.4742 13.3399 -1.47897 14
221 2 -8.98184 0.87278 -12.8308 12
222 2 -6.27789 2.38423 -14.5863 12
223 2 -9.59891 -4.15813 -10.915 14
224 2 -1.11928 -1.52488 -11.4793 11
225 2 1.1195 7.10147 -10.5986 16
226 2 -12.7666 -3.29313 -0.671771 14
227 2 -6.34886 -0.271935 -13.7799 13
228 2 -7.06934 -5.8505 -9.7666 12
229 2 -8.68902 4.15642 -13.7874 13
230 2 -9.87339 9.68011 0.644033 19
231 2 -11.8414 -3.66497 -3.25063 17
232 2 -10.7952 13.016 -4.18428 12
233 2 -14.8447 -0.239203 0.765851 13
234 2 -15.2389 0.877577 -5.00514 16
235 2 -3.32858 -2.16305 -0.234966 21
236 2 1.84457 5.89717 -5.78757 17
237 2 -4.0201 9.75147 -0.610757 19
238 2 -11.1238 1.37296 5.07401 14
239 2 -15.2342 7.08953 0.00180585 13
240 2 -16.084 4.94569 -6.82745 12
241 2 2.77692 8.41079 -4.02716 14
242 2 -15.6463 2.75231 -3.01501 15
243 2 -9.15947 11.6375 -9.24507 14
244 2 -2.97748 4.88275 -13.698 13
245 2 -14.736 8.55283 -2.51056 11
246 2 0.12257 -0.18458 -7.62717 18
247 2 -4.6207 -2.92546 -6.52174 22
248 2 -12.3322 11.684 1.73785 12
249 2 -1.37056 -4.01094 -5.50509 16
250 2 -4.10527 10.5048 3.83375 14
251 2 -8.75013 12.7739 -6.16867 12
252 2 -11.6155 -0.700273 2.35921 16
253 2 -8.55409 7.85523 -13.3541 12
254 2 1.25064 3.72262 -8.70799 15
255 2 -4.02726 4.40527 4.68971 20
256 2 1.17306 10.2547 -2.61554 14
257 2 -1.91127 9.80409 2.01519 14
258 2 -16.3206 -1.77388 -4.7771 11
259 2 -7.30223 9.84301 4.89638 12
260 2 -2.8251 2.59063 6.89887 12
261 2 -6.32115 5.62563 -14.3694 13
262 2 -8.64917 7.30617 5.14311 17
263 2 -1.40029 -1.96607 2.33431 12
264 2 -12.992 5.21115 -7.91454 22
265 2 -11.7054 8.51753 -7.75139 20
266 2 -16.1025 9.14583 -10.9797 6
267 2 -7.13218 -0.339567 2.36552 21
268 2 -5.79931 14.422 -2.86497 14
269 2 -11.613 -1.43451 -10.734 13
270 2 2.05686 3.24523 -1.5951 16
271 2 -12.1269 11.616 -6.36637 16
272 2 2.081 0.625191 -3.60789 16
273 2 -9.94445 -2.24211 -0.0692067 21
274 2 -11.6813 -3.394 -8.36709 14
275 2 -6.49125 11.277 -8.00754 17
276 2 -14.388 10.6239 -0.119149 13
277 2 -6.59518 -1.23411 5.05049 13
278 2 -17.4893 4.95474 1.45078 9
279 2 -10.251 9.69199 3.84837 15
280 2 -13.5793 9.35705 -5.18546 18
281 2 -1.21152 12.4018 -6.41224 14
282 2 -11.8804 7.36623 4.69372 13
283 2 -8.15513 1.55233 5.04749 19
284 2 -13.2446 1.63116 -11.1315 12
285 2 -6.5798 8.8998 -10.5964 19
286 2 -6.95353 -2.8136 -8.93738 19
287 2 -2.768 2.45836 2.90083 23
288 2 3.55245 8.64365 -1.18684 10
289 2 -1.84598 -4.58789 -0.288 13
290 2 -0.201885 5.95094 -8.06161 19
291 2 -5.6049 7.54185 4.93748 19
292 2 -9.97155 4.45264 5.36229 17
293 2 -13.599 0.0615655 -8.72846 17
294 2 -6.43845 10.9976 -3.30499 19
295 2 -14.9367 3.54913 2.48407 13
296 2 -16.244 -0.650678 -1.99623 13
297 2 -6.16828 -5.46394 -3.38972 18
298 2 -2.02305 5.65582 5.88828 10
299 2 -9.37701 9.46143 -11.4637 14
300 2 -0.734646 8.8787 -11.56 13
301 2 -4.76183 -5.64859 -9.37279 12
302 2 0.366447 0.778488 2.44192 15
303 2 -2.16484 7.7219 4.6203 12
304 2 -5.03071 12.012 -10.2329 11
305 2 -8.96248 -2.11236 -13.1253 11
306 2 -6.75854 13.7052 -0.158727 13
307 2 -11.5753 10.9412 -9.20917 11
308 2 -15.7262 7.72601 -7.05571 15
309 2 -14.6677 6.08941 3.03199 13
310 2 -4.09742 7.58944 -13.5858 13
311 2 -2.07131 0.710387 -10.5162 20
312 2 -14.6284 10.1588 -8.31082 12
313 2 -10.9291 6.42953 -11.6026 15
314 2 -1.76121 0.345609 5.10077 13
315 2 -12.6509 4.2707 4.82812 12
316 2 -12.1669 2.07362 2.04157 17
317 2 -5.67333 -3.04527 2.2578 16
318 2 -17.5874 4.78116 -1.40276 10
319 2 -9.6738 -1.34333 4.86001 14
320 2 -4.41823 -6.38206 -0.820011 9
321 2 -0.592221 3.26345 4.60665 16
322 2 -3.12395 -2.19304 -8.90139 23
323 2 -9.86242 11.2566 -2.25916 19
324 2 -14.8244 2.8219 -8.77541 18
325 2 -9.72623 5.71709 2.08198 17
326 2 -3.92896 -0.365049 2.87656 22
327 2 -0.828998 6.75676 -13.4348 10
328 2 -1.00261 10.9676 -0.644231 15
329 2 1.91328 3.42537 1.97335 14
330 2 1.11522 1.26003 -9.84654 10
331 2 0.321615 -1.49179 0.0483545 16
332 2 0.691853 10.0018 -8.82762 12
333 2 -16.2159 0.364516 -7.47742 10
334 2 -13.4497 -0.308517 -2.74463 23
335 2 -1.4684 -2.57152 -2.85405 20
336 2 -3.61987 10.887 -7.34532 17
337 2 3.77837 6.01653 -2.4752 13
338 2 -1.99197 8.44435 -7.82584 21
339 2 1.7882 1.80225 -5.86972 17
340 2 2.03797 -1.72699 -1.97257 10
341 2 -6.85745 -6.48209 -6.74718 11
342 2 -3.71841 11.7753 -3.74849 21
343 2 -4.02395 12.491 0.975975 15
344 2 -8.18537 -5.52913 -0.992404 14
345 2 -11.5655 -3.61528 2.75133 10
346 2 0.598247 6.33809 3.29893 14
347 2 1.884 7.90164 -7.7407 12
348 2 -13.862 7.39059 -9.76199 14
349 2 -9.64614 -5.37926 -8.03415 14
350 2 0.798333 -1.43468 -5.00656 18
351 1 -10.2199 -2.24338 -7.60594 18
352 1 -11.8684 0.776533 -7.61288 24
353 1 -8.91331 1.86494 -9.84406 21
354 1 -5.16079 0.923445 -14.7158 10
355 1 -6.7112 -1.0347 -9.98976 19
356 1 -8.47853 0.425963 -7.45125 24
357 2 -10.3112 -2.17223 -5.69595 23
358 2 -11.9788 0.756659 -5.27406 22
359 2 -11.4852 2.56452 -8.41507 24
360 2 -10.2954 -0.425676 -7.56878 19
361 2 -8.28193 0.164597 -10.5201 22
362 2 -6.94067 -2.34095 -5.31664 20
363 2 -8.54548 0.615304 -5.08522 21
364 2 -8.74163 2.24198 -8.03043 20
365 2 -6.74532 -0.31935 -7.59838 22
366 1 -11.9095 2.58485 -4.85118 23
367 1 -10.2077 -0.317722 -4.79753 25
368 1 -10.4697 -2.55177 -2.10646 22
369 1 -11.65 0.876979 -2.10623 20
370 1 -11.9938 2.52257 0.249958 19
371 1 -10.5382 -0.541827 0.603096 22
372 1 -8.66811 -3.24617 -4.92454 21
373 1 -8.58441 2.59778 -4.78822 23
374 1 -7.032 -0.485746 -4.71018 25
375 1 -6.73709 -2.09881 -2.33974 23
376 1 -8.67729 0.640084 -2.20536 22
377 1 -8.89782 2.64415 0.534699 22
378 1 -7.37613 -0.368213 0.415269 20
379 2 -12.2784 0.445995 -0.35562 20
380 2 -12.0236 2.4105 -3.01129 24
381 2 -10.2527 -0.57235 -2.61038 21
382 2 -8.63395 -3.23594 -2.62196 20
383 2 -6.89377 -2.59511 -0.293814 20
384 2 -9.01047 0.642453 -0.136315 22
385 2 -8.56237 2.57152 -2.8624 26
386 2 -6.94792 -0.168999 -2.75921 23
387 2 -9.03012 2.53226 2.48636 23
388 1 -9.8179 5.14565 -10.5031 21
389 1 -10.1198 3.51763 -7.59692 23
390 1 -11.5731 6.48036 -7.81255 20
391 1 -9.95194 9.78029 -8.74699 21
392 1 -6.56566 4.69227 -10.3164 22
393 1 -6.9907 3.27924 -7.3941 24
394 1 -8.33994 6.4863 -7.80264 22
395 1 -6.77526 9.25148 -7.73291 22
396 2 -13.6486 3.53245 -5.43087 20
397 2 -10.1034 3.18339 -11.1437 20
398 2 -10.3451 3.32005 -5.59924 24
399 2 -11.6289 6.65655 -5.53482 19
400 2 -10.0466 5.47822 -8.48809 21
401 2 -10.0732 9.36958 -5.4684 19
402 2 -6.98929 2.68213 -10.7219 20
403 2 -7.85394 5.77543 -11.309 21
404 2 -6.90594 3.17858 -5.35428 23
405 2 -8.41913 6.30522 -5.77234 25
406 2 -8.31395 8.40854 -8.70995 20
407 2 -7.1229 4.91966 -8.26656 24
408 2 -7.05597 9.31501 -5.78955 22
409 1 -12.7404 5.28033 -5.22397 19
410 1 -13.6164 3.75565 -2.46975 19
411 1 -11.682 8.53819 -5.78631 18
412 1 -10.1624 5.55543 -4.85603 22
413 1 -10.3554 3.50029 -2.39709 22
414 1 -11.9956 6.86478 -2.40308 19
415 1 -10.4915 5.42372 0.223681 18
416 1 -10.2517 9.61231 -3.26049 20
417 1 -8.64848 8.26391 -5.36415 21
418 1 -6.93802 5.37119 -4.67327 21
419 1 -6.99624 3.50949 -2.18781 21
420 1 -8.69289 6.50808 -2.23867 24
421 1 -8.38656 8.33913 0.602469 20
422 1 -7.08048 5.53979 0.568153 21
423 1 -5.73594 4.4305 3.56113 22
424 1 -6.88337 9.47542 -2.45047 20
425 2 -13.4874 5.65484 -3.03999 20
426 2 -10.5023 3.67132 -0.332705 21
427 2 -11.852 6.69642 -0.330642 17
428 2 -11.7484 8.86623 -2.11149 21
429 2 -10.4917 5.519 -2.82505 20
430 2 -7.22571 3.43458 -0.118981 23
431 2 -8.41202 6.51301 -0.34783 21
432 2 -8.71192 8.29986 -3.10151 21
433 2 -7.2359 5.26952 -2.72725 23
434 2 -5.22554 5.75865 2.06191 19
435 2 -7.36896 9.4806 -0.527315 18
436 1 -5.07869 2.00272 -10.0369 23
437 1 -2.94798 -1.66138 -6.78725 21
438 1 -5.08638 0.505021 -7.20747 24
439 1 -1.58918 0.73911 -6.74118 26
440 2 -3.72932 1.33251 -13.61 13
441 2 -2.9672 -1.59184 -4.91144 18
442 2 -5.213 0.591968 -5.15278 26
443 2 -5.23217 2.3993 -8.0604 23
444 2 -3.28332 0.240009 -7.57719 20
445 2 -1.6506 0.954002 -4.75 20
446 2 -1.59203 2.67137 -7.67318 23
447 1 -4.89853 -2.37473 -4.79327 25
448 1 -5.51432 2.45346 -4.43581 23
449 1 -3.36379 0.26183 -4.35323 22
450 1 -3.33741 -1.82754 -2.23907 19
451 1 -5.61245 0.579457 -1.54708 26
452 1 -5.54225 2.59938 0.794595 24
453 1 -3.87222 -0.325351 0.703848 23
454 1 -1.6799 3.03514 -4.3405 20
455 1 0.314183 0.647225 -4.71663 19
456 1 -2.07059 1.37773 -1.52632 19
457 1 -1.98964 3.03276 1.36216 22
458 2 -4.9061 -2.82207 -2.781 19
459 2 -5.47516 0.445565 0.458381 22
460 2 -5.27038 2.55291 -2.25021 22
461 2 -3.89557 0.0682156 -2.36773 22
462 2 -7.58851 5.11742 4.0798 20
463 2 -2.20256 1.02954 0.37035 21
464 2 -1.7196 3.41379 -2.43658 20
465 2 -0.00181605 0.599057 -1.82583 21
466 1 -3.36085 4.8478 -10.4344 20
467 1 -3.63666 3.29713 -7.37896 22
468 1 -5.26523 5.81235 -7.51693 23
469 1 -3.91227 8.95701 -7.5206 21
470 1 -0.436978 4.27679 -7.20575 21
471 1 -2.20027 6.40526 -7.43735 21
472 2 -3.50565 3.02336 -11.0416 21
473 2 -5.16152 5.87171 -11.0561 22
474 2 -3.59689 3.40683 -5.25837 25
475 2 -5.42894 6.08807 -5.50062 25
476 2 -5.32036 7.78943 -8.35166 22
477 2 -3.40149 5.30539 -8.35416 23
478 2 -4.3056 8.91123 -5.37794 22
479 2 -0.202897 3.96465 -5.29887 21
480 2 -1.96226 6.62614 -5.62936 23
481 1 -5.80829 8.01445 -4.99552 21
482 1 -3.30871 5.47803 -4.71982 24
483 1 -3.75378 3.86485 -2.11671 21
484 1 -5.28708 6.12593 -2.42786 19
485 1 -5.5764 9.98075 0.278308 22
486 1 -3.85491 5.33067 0.556569 21
487 1 -3.71717 9.39838 -2.32627 20
488 1 -2.45951 8.27564 -4.82597 22
489 1 -0.0423488 5.80275 -4.8124 23
490 1 0.0210235 3.99737 -1.7784 18
491 1 -2.10485 6.90277 -1.92465 22
492 2 -3.67772 3.33363 0.201906 22
493 2 -5.37996 5.59788 -0.662105 18
494 2 -5.65664 8.00495 -2.97647 23
495 2 -3.39634 5.58989 -2.82233 22
496 2 -1.007 4.54043 2.10593 18
497 2 0.013952 5.29225 -0.445372 18
498 2 -2.51182 6.84144 -0.129297 21
499 2 -1.96124 8.54092 -2.87239 22
500 2 -0.0398688 6.50326 -3.03557 20
