ITEM: TIMESTEP
6000
ITEM: NUMBER OF ATOMS
500
ITEM: BOX BOUNDS pp pp pp
-30.0 30.0
-30.0 30.0
-30.0 30.0
ITEM: ATOMS id type x y z Coordination
1 1 7.11709 -1.35661 5.8303 20
2 1 -2.95081 5.64646 12.6599 10
3 1 9.73922 -0.748273 6.34013 13
4 1 -11.4605 -0.206931 3.24639 12
5 1 -2.94573 1.12418 -5.9748 17
6 1 2.69872 0.376592 9.0329 19
7 1 -8.02075 2.27119 1.13968 20
8 1 -0.56807 2.70894 -6.3421 16
9 1 5.24183 -5.78638 -1.33563 14
10 1 5.44209 1.54668 7.10063 21
11 1 -1.54792 7.57086 -4.32213 13
12 1 0.4785 5.18919 12.143 13
13 1 -7.9432 0.357507 3.99134 20
14 1 -9.77465 -1.15012 0.979613 17
15 1 6.63845 -1.46145 -4.90829 13
16 1 2.81342 -0.867279 12.0267 9
17 1 -7.26446 -5.80114 4.0387 16
18 1 -5.63437 -4.90478 -6.26675 13
19 1 3.48914 -0.911483 -3.99387 17
20 1 6.77859 -4.44364 4.79403 13
21 1 -7.52663 8.17227 5.35761 12
22 1 -0.590198 9.30172 2.5574 10
23 1 -1.36171 -3.87284 -3.85316 17
24 1 -4.3769 2.70509 10.748 15
25 1 7.55016 -2.58019 2.79801 18
26 1 -4.44638 7.25714 7.2278 15
27 1 2.52519 5.6416 -1.196 21
28 1 7.06262 8.62358 -0.161809 11
29 1 -2.34518 9.26699 -2.45916 12
30 1 -6.03752 5.16295 -3.83593 14
31 1 -4.88049 7.78053 1.38556 18
32 1 0.504017 9.67434 -0.378925 13
33 1 -10.1494 2.92843 3.17999 17
34 1 -0.558115 7.78156 10.8068 13
35 1 -4.58158 2.01685 -3.69362 23
36 1 -5.34505 -6.59501 7.01157 17
37 1 6.98919 -2.65204 -0.864835 18
38 1 -9.54625 1.20673 8.91 10
39 1 -7.62755 0.144775 -1.13735 15
40 1 -0.283463 -9.64446 7.12061 15
41 1 5.2307 4.43925 -3.3797 19
42 1 -7.80032 -1.9617 -7.13919 12
43 1 1.52534 5.23851 -7.71829 9
44 1 -2.54949 -8.7883 4.31566 20
45 1 -3.45477 10.2834 0.303983 9
46 1 -11.1387 2.86417 5.57554 9
47 1 2.44512 7.9874 10.751 9
48 1 5.20542 0.0488512 10.2797 13
49 1 0.360995 -11.0166 -1.31581 9
50 1 5.74579 1.91728 -4.30984 15
51 1 -5.89394 -7.04811 1.49325 21
52 1 -2.0877 -7.04773 6.72618 22
53 1 4.32766 -2.9356 9.37919 15
54 1 2.41289 -5.8966 9.00936 15
55 1 5.70439 8.7116 2.31169 13
56 1 -5.65555 -9.09249 4.40896 20
57 1 -3.55551 -11.3296 3.00609 11
58 1 -4.51886 -6.22573 -1.40129 21
59 1 -3.32006 -3.35873 11.6703 10
60 1 -9.55118 -0.050557 6.28784 16
61 1 1.93808 -10.2155 1.34627 10
62 1 -9.00981 -2.61695 3.91386 14
63 1 -5.6172 9.79995 3.11701 10
64 1 -3.95723 3.95486 7.13958 14
65 1 -3.71471 8.02127 10.6544 12
66 1 -8.21094 -3.49939 -4.70886 15
67 1 -7.80494 2.93036 -4.49842 14
68 1 -4.87852 -3.89785 -3.81464 22
69 1 9.47804 2.1436 6.13907 13
70 1 -1.17773 -5.41023 9.22635 16
71 1 -4.59749 -1.67885 -7.57547 13
72 1 -11.8905 -0.57065 -1.30103 10
73 1 -4.03096 -9.87043 0.277669 16
74 1 -5.80636 5.6373 11.2775 11
75 1 -5.78581 5.11395 1.49139 21
76 1 -2.47426 -11.2404 -2.72905 9
77 1 1.1608 9.5495 8.3101 10
78 1 -10.8116 -1.66859 -4.07762 9
79 1 -9.54327 5.0128 0.741273 14
80 1 -4.3987 -10.0517 -5.79339 6
81 1 5.46276 -8.81157 7.01906 9
82 1 -8.60071 3.86053 -1.83101 16
83 1 -5.70604 -3.02914 9.11028 15
84 1 -6.72359 1.8166 6.91566 21
85 1 0.933614 -8.05147 -3.38416 13
86 1 -1.89705 -2.50882 9.33268 20
87 1 1.04935 -8.19055 9.55679 12
88 1 1.85774 -5.80354 -1.05384 21
89 1 7.67644 4.587 1.08129 23
90 1 2.57828 -0.569176 -6.63301 12
91 1 5.65393 -5.60098 7.89886 15
92 1 -6.69931 -8.7331 -1.32411 12
93 1 -8.48617 -1.96785 8.94581 11
94 1 8.24959 1.00848 9.05099 13
95 1 10.6828 5.25839 0.741359 8
96 1 0.25861 4.6575 -3.85272 19
97 1 1.19236 7.97407 -5.73918 13
98 1 3.39467 8.90554 4.67587 11
99 1 4.04731 2.60839 -6.30818 11
100 1 -0.120753 -10.6262 4.51423 14
101 1 7.27041 0.09946 1.21276 18
102 1 -1.48047 -10.0328 1.45483 18
103 1 -9.03015 0.194325 -5.61647 13
104 1 9.24922 -0.52491 -1.11849 12
105 1 -4.07918 6.16334 -1.38498 20
106 1 3.07402 -8.70208 -1.21586 13
107 1 -7.68045 -4.16941 6.46661 15
108 1 -1.67516 -7.99822 -1.69959 19
109 1 0.535174 -6.10883 -5.4831 11
110 1 1.86087 7.4575 1.86637 17
111 1 2.36568 -8.25664 4.44365 15
112 1 -5.69477 -7.33864 -3.97653 12
113 1 -0.501682 -1.12009 11.9821 13
114 1 -1.36394 2.56584 11.3236 14
115 1 3.58464 -3.90996 -5.72493 11
116 1 -10.9019 1.75748 -2.90494 12
117 1 3.89318 9.28155 -0.771423 13
118 1 5.34633 -0.109448 -1.78642 20
119 1 -1.52216 5.52296 -6.46688 14
120 1 -7.81226 4.97358 6.35397 12
121 1 1.25574 -2.46117 9.49823 18
122 1 -6.21959 1.12997 -6.17792 12
123 1 9.88072 -3.2219 4.16065 10
124 1 5.35259 3.03017 9.53358 17
125 1 2.48147 -9.76308 6.61564 14
126 1 8.69636 5.18244 4.65995 14
127 1 7.45543 3.58267 7.40425 14
128 1 -3.21759 -6.74818 -4.27981 15
129 1 3.51852 5.56514 11.0552 11
130 1 -3.15745 4.70791 -3.564 21
131 1 -0.582403 0.369728 9.36682 23
132 1 -6.66035 -10.072 1.65566 12
133 1 4.65214 4.87914 6.31521 18
134 1 -6.76837 7.43492 8.76957 10
135 1 -4.5964 6.3772 3.93376 19
136 1 8.38868 6.14248 -2.08023 9
137 1 2.18333 2.49914 11.1527 15
138 1 -1.16079 -0.659563 -7.82816 12
139 1 0.258028 3.32297 9.19109 17
140 1 9.34867 -2.80184 -3.05628 11
141 1 6.35821 7.75302 5.4526 14
142 1 4.32974 -6.51063 5.14839 16
143 1 0.154617 8.11897 5.87357 19
144 1 3.58628 -6.33082 -3.88924 13
145 1 4.62217 -8.89898 9.41794 9
146 1 -6.39291 0.72237 9.74186 17
147 1 9.05869 -0.0134421 3.59098 16
148 1 1.05419 9.59093 -3.12851 10
149 1 7.47014 2.96095 -2.02119 18
150 1 -3.63049 -0.673737 10.6867 15
151 1 -4.12798 -5.65445 9.59652 14
152 1 -7.81433 7.57399 2.25444 16
153 1 8.45559 7.17657 2.70109 14
154 1 -7.74221 -7.83309 6.44839 11
155 1 10.4751 2.67648 2.824 13
156 1 -8.83243 -10.1695 4.19164 5
157 1 7.19974 2.4335 4.09444 23
158 1 5.0953 -4.00022 1.44856 19
159 1 3.3081 7.49178 7.66368 16
160 1 -9.75425 -3.42359 -1.55795 12
161 1 -1.64478 7.44509 0.44515 20
162 1 3.95731 5.54799 -6.12608 10
163 1 -6.36444 -0.844522 -4.50606 20
164 1 0.905586 -2.9289 -6.4356 14
165 1 -5.03625 -11.3558 -2.79386 8
166 1 0.911069 -6.69782 6.41729 21
167 1 9.31965 -3.54342 0.376473 9
168 1 -11.3061 1.81466 0.789906 14
169 1 -4.66418 4.2529 -6.51823 11
170 1 -7.45794 -5.8219 -1.06178 14
171 1 7.43421 -2.47241 8.54334 12
172 1 -2.76537 -3.11108 -6.13461 16
173 1 -9.86064 5.9843 3.97632 11
174 1 -7.26484 4.09009 9.3765 13
175 1 5.89556 5.444 3.16353 19
176 1 9.55068 2.03168 0.14003 14
177 1 -2.2854 -8.72932 9.31125 11
178 1 2.2055 2.22574 -4.10766 20
179 1 5.45316 6.35797 -0.895566 21
180 1 5.78253 6.67126 9.04086 12
181 1 3.54747 7.81041 -3.49252 13
182 1 9.3431 0.977215 -3.57631 9
183 1 6.4547 -4.3186 -3.86988 10
184 1 -2.3977 9.13939 8.19501 13
185 1 -2.88207 8.96339 4.6465 15
186 1 -4.47371 -9.54977 6.97192 12
187 1 3.73261 -7.02278 1.54645 17
188 1 -7.79998 -3.89608 1.1269 17
189 1 -7.00872 6.48259 -0.877569 15
190 2 -9.77892 -0.829957 4.1374 14
191 2 7.57786 4.19753 3.16279 18
192 2 -4.5632 0.46525 -4.61393 19
193 2 -11.0723 0.00184392 -3.20128 10
194 2 -3.62142 -9.40163 8.51865 10
195 2 1.18229 -1.71056 11.3114 14
196 2 7.12336 -0.396603 3.2581 20
197 2 -6.03127 3.82163 10.7234 10
198 2 5.89387 -3.93536 -1.85041 18
199 2 -5.52345 2.82406 -5.53327 15
200 2 -1.45829 -5.64062 -4.89835 17
201 2 -3.35855 9.01531 6.5907 14
202 2 8.43717 -1.71644 7.23359 11
203 2 7.53371 8.44588 1.76459 14
204 2 -2.05767 8.17769 9.87327 14
205 2 7.23014 6.67402 4.1977 15
206 2 4.19043 5.8933 -4.36662 14
207 2 3.43557 -2.01758 -5.55105 13
208 2 -7.60359 0.903999 -4.78865 17
209 2 1.37754 -8.42364 6.45195 20
210 2 -9.54333 -0.575231 8.20283 11
211 2 3.83316 -6.83731 -1.96234 15
212 2 -1.66668 -10.7321 3.21228 13
213 2 1.81597 6.59994 11.734 9
214 2 3.66557 -1.24459 10.0736 13
215 2 -5.81854 -8.41789 6.31425 15
216 2 -1.40061 -8.64467 5.75437 20
217 2 -8.65229 -9.29649 5.7703 6
218 2 -4.941 -10.5102 1.80191 13
219 2 -7.16162 -9.90979 3.48833 12
220 2 -4.78725 9.65272 1.37439 12
221 2 1.92512 0.278894 -4.97604 20
222 2 9.9352 5.98688 2.79574 10
223 2 2.90859 4.07645 -6.9762 11
224 2 -7.91317 2.13691 -0.994572 17
225 2 9.52808 1.76985 4.10661 15
226 2 -1.00013 8.43569 4.18622 16
227 2 -6.18959 7.66253 6.52571 12
228 2 0.610029 8.56185 1.14001 12
229 2 2.03589 8.31924 -4.19977 11
230 2 -0.181369 4.98686 8.26198 17
231 2 -0.41289 -3.52075 8.6304 20
232 2 1.6726 -4.4957 -5.79729 11
233 2 -3.72227 -10.7875 -1.36347 12
234 2 -1.00088 -9.84496 -1.91433 13
235 2 -7.35894 -5.89484 0.829532 14
236 2 7.23901 -3.41399 0.905866 15
237 2 5.95312 4.5804 8.13565 16
238 2 -1.47374 1.10876 -7.1382 12
239 2 0.58521 -1.26368 -7.15718 13
240 2 -3.24114 -2.91071 -4.08473 22
241 2 1.91752 -6.91559 -4.63746 11
242 2 5.42515 -0.404054 -3.83439 15
243 2 -3.81881 -6.08936 6.11398 21
244 2 -0.573309 -2.82924 -5.28585 15
245 2 -3.53981 -11.2883 -4.38731 7
246 2 -2.78014 2.77614 -4.63881 22
247 2 -3.62651 5.74437 7.9764 16
248 2 -5.7253 -6.84042 3.52328 21
249 2 -5.13475 7.72207 9.49737 11
250 2 -7.25438 -5.99932 6.06771 15
251 2 -11.1853 -0.0665438 1.36509 13
252 2 2.95388 -7.61272 9.85999 12
253 2 7.31129 2.68408 0.469514 20
254 2 -2.68717 -1.48086 -7.17379 15
255 2 2.93935 6.00525 6.47317 20
256 2 5.46778 7.12141 7.10051 11
257 2 -1.10803 0.625289 11.3863 17
258 2 -7.50574 3.09666 5.84404 19
259 2 -6.60386 -2.81266 -3.82548 19
260 2 10.5736 3.38134 1.06519 11
261 2 -9.18945 -2.94098 1.94056 15
262 2 -5.93256 6.28512 -2.41709 13
263 2 3.79097 1.04697 -6.84729 11
264 2 -5.81116 4.94184 3.58076 19
265 2 4.73222 -5.77249 0.40579 17
266 2 0.0379122 -10.641 0.758655 11
267 2 -7.29482 8.8779 3.61936 12
268 2 1.03264 -11.01 6.09383 11
269 2 1.44031 -9.78523 3.51953 15
270 2 3.80801 3.81086 10.8099 14
271 2 -2.66259 10.8082 -1.3568 8
272 2 -5.21429 -4.69233 8.30522 14
273 2 -2.76636 -7.05981 3.28154 22
274 2 -2.25676 -4.5475 10.4682 11
275 2 2.32874 6.83065 -6.56994 9
276 2 9.69884 -0.956169 -3.08356 10
277 2 4.47926 1.20577 8.90725 18
278 2 5.85016 5.56184 0.985354 21
279 2 2.07697 8.49362 6.56686 15
280 2 -7.70833 -3.92216 4.36368 15
281 2 -1.13461 6.12928 11.6735 14
282 2 6.94067 -0.441675 9.40038 14
283 2 -0.0756646 4.50493 -6.85008 13
284 2 0.444436 3.5123 11.1807 15
285 2 5.90146 -5.60386 5.86983 13
286 2 -9.67208 -3.09492 -3.46944 12
287 2 -8.40775 5.33877 -0.747008 16
288 2 -9.25124 -1.59429 -5.94012 11
289 2 -2.8406 -6.54341 8.74428 16
290 2 5.16436 8.67018 4.2842 13
291 2 -5.08641 -5.75652 -4.69045 16
292 2 9.15817 0.62253 1.56621 16
293 2 -9.19665 6.21926 2.21938 13
294 2 9.41608 -3.55386 2.27987 10
295 2 -8.02805 -3.60916 8.14082 11
296 2 -6.27248 -7.0204 -2.03515 16
297 2 3.64845 7.44589 -1.44891 19
298 2 -8.48833 6.38588 5.22909 11
299 2 0.435775 -6.50043 9.148 17
300 2 -10.6367 4.30848 4.37662 12
301 2 -6.61149 6.93557 0.969628 17
302 2 -3.04235 3.80507 11.6638 12
303 2 -9.60124 2.90348 -3.59517 10
304 2 5.34259 9.65536 0.469825 9
305 2 -4.51544 6.76509 12.1851 8
306 2 1.73502 2.08943 8.98174 20
307 2 -7.29077 -3.81483 -6.44931 12
308 2 -1.37253 5.70329 -3.6706 18
309 2 -2.85955 -6.48022 -2.34866 21
310 2 5.8216 -0.0908349 5.97459 19
311 2 9.24695 5.56736 -0.310985 15
312 2 4.01642 -9.93619 7.95068 9
313 2 5.60403 1.77867 -2.25111 20
314 2 3.74788 6.88754 9.67151 12
315 2 -5.10249 2.42703 7.91686 16
316 2 -7.71044 -3.85541 -1.07661 19
317 2 -2.46943 -8.62964 0.844928 19
318 2 -1.82995 9.37391 1.15143 13
319 2 -10.3304 1.7427 6.913 12
320 2 -7.5942 0.279818 6.01902 22
321 2 -6.46974 -10.3086 -2.25347 10
322 2 2.66099 0.893202 11.4238 14
323 2 -0.813544 7.25944 -5.92411 11
324 2 4.225 5.0175 -1.79212 18
325 2 1.44256 -9.48104 -2.18302 12
326 2 9.60187 0.726668 7.56655 13
327 2 6.98172 2.36525 9.06263 13
328 2 -0.583828 8.89277 -3.3287 12
329 2 -6.81777 3.73615 -2.72593 17
330 2 -4.50475 -3.5906 -7.11826 11
331 2 -0.631483 9.18363 7.38493 12
332 2 -2.54706 7.5795 -1.38139 18
333 2 -11.578 1.55947 -1.01715 11
334 2 -7.38654 5.71192 8.31071 13
335 2 0.292782 2.82992 -4.31381 18
336 2 4.79845 -4.89064 -4.52286 11
337 2 -9.82039 3.07358 1.3814 14
338 2 -2.97839 4.77352 -7.1344 12
339 2 6.00047 -3.61388 8.19548 14
340 2 -6.55908 -1.28829 8.86485 18
341 2 -7.64849 1.81199 9.00976 18
342 2 5.67157 -7.43543 8.40221 10
343 2 -11.4545 1.63317 3.93545 12
344 2 -4.81744 -2.74022 10.6736 12
345 2 -0.496028 -9.23197 8.83916 14
346 2 10.2355 -1.27196 4.67523 13
347 2 0.163517 -7.02811 -1.83486 17
348 2 -4.76748 8.19412 3.81821 17
349 2 -6.08378 -0.962801 -6.65961 17
350 2 -5.97732 -2.88448 5.89558 21
351 2 2.97256 -4.03239 8.77284 13
352 2 4.3282 3.01439 -4.48256 17
353 2 7.26887 2.27724 6.0789 21
354 2 8.07652 -2.86842 4.85676 14
355 2 7.60773 -2.94981 -4.13373 9
356 2 3.62491 -7.06874 3.36112 16
357 2 5.65163 -3.75065 3.29187 19
358 2 -4.4617 0.935927 10.2999 15
359 2 7.19254 4.7003 -2.57642 16
360 2 -10.4643 -1.64388 -0.862325 14
361 2 -8.45867 2.12795 3.38741 20
362 2 3.97288 -8.40147 5.72253 15
363 2 1.98612 9.90693 -1.38915 9
364 2 9.32538 1.40068 -1.54753 12
365 2 7.07499 7.22464 -1.36409 13
366 2 2.48502 -5.7162 6.0289 20
367 2 8.82823 -2.87728 -1.31916 11
368 2 3.09539 -8.61799 0.624184 13
369 2 -4.40681 -8.50967 -4.70949 10
370 2 2.70591 7.59078 3.51618 17
371 2 1.01787 8.92351 10.1475 11
372 2 -4.02199 -10.0424 4.45526 14
373 2 -2.11896 -1.79336 11.4159 13
374 2 8.93247 4.45216 6.45934 11
375 2 7.76529 1.96806 -3.93675 12
376 2 -4.50393 5.16131 -4.75983 15
377 2 -6.03689 -8.70034 0.50083 17
378 2 7.16371 -0.727332 -0.684004 25
379 1 -6.50761 -2.75666 -1.8065 18
380 1 -3.09338 -0.882947 -3.84151 20
381 1 -1.32211 -5.44945 -1.42548 21
382 1 -3.38179 -2.79023 -1.0123 23
383 2 -4.41547 -5.83024 0.879131 22
384 2 -6.02472 -3.17512 1.26818 20
385 2 -6.1758 -0.600741 -2.21415 20
386 2 -4.7917 -3.964 -1.75898 18
387 2 -1.2205 -5.74665 0.5599 22
388 2 -2.92695 -2.53804 0.89555 21
389 2 -2.82023 -0.906564 -2.02064 22
390 2 -0.725641 -3.80549 -2.02364 18
391 1 -6.27039 -1.15951 1.3885 21
392 1 -4.2988 -4.00923 1.60024 22
393 1 -4.05956 -5.89002 3.99648 21
394 1 -6.16858 -2.72542 3.892 20
395 1 -6.30436 -1.07096 6.81777 21
396 1 -4.42612 -4.06068 6.46297 20
397 1 -2.8376 -6.69524 1.3169 21
398 1 -3.05124 -0.602537 1.66464 23
399 1 -1.41087 -3.72266 1.07219 21
400 1 -0.791088 -5.55102 4.12018 23
401 1 -2.67176 -2.70495 3.99295 21
402 1 -2.38717 -1.1457 6.60237 21
403 1 -0.732191 -3.73084 6.56367 22
404 2 -5.99566 -0.817638 3.51653 22
405 2 -4.32584 -4.07119 3.69893 21
406 2 -0.571626 -5.76749 6.25766 19
407 2 -2.69252 -3.05493 6.13856 19
408 2 -3.05879 -0.856911 3.61859 21
409 2 -1.09032 -3.77859 3.26769 25
410 2 -2.40185 -0.941366 8.74805 21
411 1 -4.41974 0.105422 -1.39707 20
412 1 -5.97252 3.01379 -1.06573 23
413 1 -1.0964 1.84294 -3.53228 25
414 1 -1.15736 -0.103866 -1.00711 22
415 1 -2.91642 2.97011 -1.10211 22
416 1 -1.05144 5.71817 -1.61386 20
417 2 -7.86438 -0.46628 0.597186 17
418 2 -4.74643 0.01082 0.855228 22
419 2 -5.78559 3.23518 0.742598 20
420 2 -4.45795 2.00268 -1.65427 21
421 2 -4.10424 6.02136 0.533159 21
422 2 -1.59231 0.287564 -4.45095 21
423 2 -1.31584 -0.0289705 1.2035 19
424 2 -2.8637 2.84768 1.04077 22
425 2 -2.68877 4.62323 -1.83489 23
426 2 -0.891188 1.79097 -1.51027 22
427 2 -0.96647 5.7425 0.517821 22
428 1 -4.46981 1.99852 1.58594 22
429 1 -4.89706 0.165481 4.4245 20
430 1 -6.5945 3.08016 3.8594 17
431 1 -3.89177 0.716525 8.18734 20
432 1 -2.6687 4.8905 1.31563 23
433 1 -0.978235 2.10201 1.29525 21
434 1 -1.28873 0.0338846 3.97432 21
435 1 -2.79171 3.35041 3.89164 20
436 1 -1.66678 6.05726 7.9955 18
437 1 -1.12406 2.4287 6.83074 22
438 1 -1.1713 5.61946 4.32892 18
439 2 -4.36716 0.145493 6.31576 19
440 2 -4.8062 2.06928 3.5878 20
441 2 -1.06232 0.423957 5.98321 22
442 2 -2.82418 3.31883 5.88749 18
443 2 -2.91865 5.39506 3.30722 19
444 2 -1.12865 2.34987 3.20015 24
445 2 -1.58512 1.95764 8.74376 21
446 2 -0.597811 6.2691 5.99691 19
447 1 0.110401 -0.396553 -4.93182 19
448 1 0.590561 -2.73018 -1.19043 19
449 1 3.90334 -2.83198 -1.16231 19
450 2 1.68006 -5.63186 0.73681 21
451 2 0.339736 -2.86939 0.74798 21
452 2 0.538994 -0.870274 -1.56963 19
453 2 2.3344 -3.97444 -1.14375 18
454 2 4.06928 -2.53583 0.734363 22
455 2 3.65339 -1.04191 -1.8708 20
456 1 0.22098 -6.5539 1.37167 21
457 1 0.362909 -1.02566 1.45124 21
458 1 2.17064 -3.60733 1.01109 20
459 1 2.20009 -5.4157 3.28269 20
460 1 0.556531 -2.67265 3.79816 20
461 1 0.917473 -0.783057 6.55535 23
462 1 2.85456 -3.86388 6.43358 21
463 1 3.81477 -0.47603 1.35825 23
464 1 3.7508 -2.49637 3.72674 19
465 1 4.08135 -0.728565 6.46215 19
466 2 0.691654 -6.60101 3.54451 20
467 2 0.747657 -2.78203 5.67656 25
468 2 0.176065 -0.730395 3.56014 23
469 2 2.31979 -3.6959 3.06683 23
470 2 0.494375 -0.783199 8.47473 20
471 2 3.62388 -2.3445 5.71493 20
472 2 3.38914 -0.656547 3.40843 22
473 1 2.04757 0.311129 -1.14819 20
474 1 0.603097 3.14982 -1.21456 22
475 1 4.06114 2.8772 -1.50948 23
476 2 1.8732 0.543735 1.00745 21
477 2 0.80745 3.20533 0.744282 23
478 2 0.690927 4.89504 -1.90873 18
479 2 2.40541 2.14346 -1.93198 23
480 2 2.44146 5.93801 0.882309 19
481 2 5.39699 0.463175 1.30498 19
482 2 3.7356 3.12754 0.56365 23
483 1 0.637784 5.1008 1.32957 21
484 1 2.31007 2.28686 1.60022 24
485 1 1.81414 0.117604 4.16895 23
486 1 0.510273 3.12889 4.03751 22
487 1 1.114 5.21485 6.85379 18
488 1 2.04327 2.33755 6.65769 21
489 1 2.58896 5.93017 4.46157 22
490 1 4.03291 4.96125 1.53408 22
491 1 5.68553 2.39318 1.31646 22
492 1 5.31205 0.137464 3.72756 23
493 1 3.76136 2.90938 4.13475 22
494 2 2.49292 0.308024 6.42884 20
495 2 0.555709 3.1209 5.93573 23
496 2 0.629724 5.0678 3.33882 24
497 2 2.17683 1.86701 3.95427 21
498 2 3.86927 2.93309 6.00112 24
499 2 4.07495 4.9663 3.89517 21
500 2 5.57829 2.24995 3.38675 22
