ITEM: TIMESTEP
30000
ITEM: NUMBER OF ATOMS
1000
ITEM: BOX BOUNDS pp pp pp
-30.0 30.0
-30.0 30.0
-30.0 30.0
ITEM: ATOMS id type x y z Coordination
1 1 -5.80375 -7.25361 -0.152568 10
2 1 3.87446 -1.44059 14.3039 17
3 1 -11.4566 16.3791 5.4838 5
4 1 -6.86105 6.52342 2.14346 22
5 1 5.83576 -7.46848 12.1802 12
6 1 -3.27003 5.05794 -5.18363 16
7 1 -0.679572 -5.60619 11.8673 12
8 1 14.4168 -0.351244 8.64543 10
9 1 -1.92869 9.34884 13.0682 20
10 1 15.3774 4.13768 11.1992 6
11 1 -0.184388 11.4929 2.20261 18
12 1 -2.39736 6.43517 16.4017 16
13 1 -8.85063 7.53997 11.0298 20
14 1 0.202371 5.83499 -4.65432 17
15 1 5.50749 2.5234 8.07562 20
16 1 -3.67594 12.5902 13.0469 23
17 1 8.43505 -7.17321 11.35 18
18 1 -5.94085 2.76506 14.6848 17
19 1 -7.70871 6.54606 7.59902 17
20 1 -2.22304 15.5965 2.97094 20
21 1 3.84827 14.2688 -4.21875 11
22 1 2.78122 2.65207 -6.48271 14
23 1 -2.13983 3.48718 18.2415 12
24 1 -6.29397 9.44874 9.76352 24
25 1 1.25744 19.6304 2.06424 12
26 1 7.73182 -8.01946 5.90352 13
27 1 12.1668 -1.03081 -1.33407 11
28 1 8.19846 4.0157 9.31889 19
29 1 -3.14554 16.6037 -1.60317 14
30 1 4.25189 8.11969 6.71122 18
31 1 2.76824 9.67613 15.968 22
32 1 -5.27093 2.70798 2.03371 20
33 1 3.36318 3.22811 16.1754 16
34 1 -9.92583 -1.30284 5.04041 11
35 1 10.1628 2.91335 12.2994 17
36 1 8.52279 5.67513 2.16875 21
37 1 6.66504 3.56544 15.3592 15
38 1 -4.05781 -0.993396 5.99807 19
39 1 -1.20265 -1.82402 -3.68437 14
40 1 -8.26333 16.197 1.54064 9
41 1 1.52323 12.8804 -2.98085 18
42 1 9.06405 2.06833 -3.30982 15
43 1 8.86612 -0.93252 11.3106 18
44 1 10.983 -6.84266 13.6545 10
45 1 -2.14838 15.7556 14.8724 18
46 1 -3.30463 2.64698 15.4584 18
47 1 -11.2133 4.1413 14.5299 8
48 1 11.5735 -3.95157 7.95609 17
49 1 8.2623 6.57195 -6.42635 10
50 1 2.35481 9.82127 9.93472 17
51 1 -7.85347 13.7596 -3.7914 6
52 1 -4.13028 14.4981 6.18195 22
53 1 -2.56364 -3.9567 16.636 8
54 1 -3.96682 -1.97835 -4.177 13
55 1 5.92928 -2.94206 -3.64745 17
56 1 -7.90315 6.76167 18.2454 10
57 1 -6.78567 4.6103 -0.0609238 18
58 1 6.8727 -2.30112 12.4408 19
59 1 -2.99976 -1.48022 8.94743 19
60 1 12.4706 1.15139 11.3686 14
61 1 -9.33023 11.2439 11.5238 21
62 1 9.51565 9.44731 -0.297506 24
63 1 13.8107 1.24168 2.70898 14
64 1 -5.3882 7.51783 14.2162 20
65 1 9.74592 14.2141 7.00777 10
66 1 8.45362 11.4646 7.68227 17
67 1 -5.55927 20.9685 1.56342 7
68 1 3.90705 -0.186443 -5.06141 17
69 1 0.0744667 16.5556 -2.61234 11
70 1 11.5066 2.9253 -2.54546 12
71 1 11.0305 8.51242 -2.67933 13
72 1 11.0274 -3.26575 12.972 15
73 1 -0.489649 10.76 -3.6746 14
74 1 -3.55348 17.7005 6.09504 18
75 1 6.8666 17.7139 2.84313 13
76 1 -3.36527 21.3088 4.67198 9
77 1 0.833554 -0.344068 -5.43589 16
78 1 -8.59546 8.18443 4.82402 15
79 1 -4.99238 17.686 14.8505 10
80 1 -5.61288 15.9652 4.10461 18
81 1 0.424417 -3.15203 13.659 18
82 1 -6.90497 3.89478 18.096 10
83 1 5.41368 -5.76472 6.66333 20
84 1 4.00793 12.9462 5.25692 19
85 1 8.32109 8.69579 3.0704 21
86 1 11.1882 -9.02724 11.6425 8
87 1 -9.0639 10.7199 4.80657 14
88 1 -5.50372 12.6558 15.7243 19
89 1 1.30811 4.10728 -2.05966 20
90 1 -10.4039 1.70807 12.9252 8
91 1 -5.00471 -0.256017 14.684 12
92 1 5.05034 -9.48845 6.13132 12
93 1 -3.47276 15.491 12.1937 13
94 1 -12.1545 5.35825 5.44982 8
95 1 -6.72441 10.1439 6.20428 21
96 1 1.99469 -5.94752 8.21132 16
97 1 9.69511 8.80077 5.71617 22
98 1 4.30842 4.89246 18.3194 10
99 1 1.14122 8.69551 -4.8964 14
100 1 -6.80402 7.48965 -0.358037 17
101 1 -6.97477 18.5775 3.52763 11
102 1 5.45838 11.3338 17.4927 11
103 1 -3.48183 11.0227 1.69938 20
104 1 10.878 15.1818 0.0926513 12
105 1 -7.45504 15.3699 15.9461 11
106 1 -12.3694 13.47 12.4414 10
107 1 3.9256 -5.16452 -4.72883 11
108 1 12.5125 -1.93154 6.39079 11
109 1 2.12027 11.1282 4.1383 20
110 1 2.11754 15.7962 10.6139 17
111 1 -10.6608 6.23425 8.74957 20
112 1 -0.0288742 10.1561 20.7057 10
113 1 9.55836 3.41652 -0.0244161 21
114 1 2.29544 5.91809 10.9594 20
115 1 -6.00113 20.2743 6.14867 12
116 1 -7.4185 1.04427 4.31696 18
117 1 1.88828 1.96151 14.6474 17
118 1 -0.825731 -4.6191 8.44545 16
119 1 -4.78519 6.58686 -2.35952 17
120 1 10.8082 6.17324 -0.854424 17
121 1 -8.87829 4.3488 10.7885 19
122 1 -5.09309 -0.0516891 -5.9965 10
123 1 -7.12287 0.56292 11.7152 17
124 1 -4.49482 4.28685 12.519 24
125 1 -3.24456 2.4593 -5.02622 15
126 1 -7.55206 9.94152 0.437581 13
127 1 8.09134 8.68813 16.5291 15
128 1 4.74025 3.5468 10.4526 22
129 1 4.88414 0.111805 6.67453 20
130 1 7.40141 13.9409 5.63805 19
131 1 -5.70746 -3.3857 7.72812 18
132 1 2.54264 17.3971 8.12591 14
133 1 0.14302 1.52605 -0.159068 20
134 1 -4.74189 -5.09544 -2.89717 11
135 1 4.6995 -7.96997 9.36508 14
136 1 7.0701 8.80175 6.66852 20
137 1 8.04599 0.589283 1.28437 17
138 1 -8.91662 6.48591 15.0854 18
139 1 -3.48314 -5.11927 6.54417 11
140 1 7.77293 -6.02809 8.51337 17
141 1 3.7254 -8.0699 4.01998 15
142 1 -1.966 11.7803 -0.532443 20
143 1 10.0852 8.45582 14.2102 15
144 1 -4.2355 8.21866 0.799707 20
145 1 6.53442 14.4379 -2.07644 19
146 1 -1.10924 3.31416 12.1303 19
147 1 -0.60044 14.4584 17.3175 14
148 1 10.08 9.23458 9.11853 17
149 1 -9.50613 9.28086 7.70703 21
150 1 -0.82693 1.08134 17.7088 14
151 1 -8.0447 17.2991 9.91761 11
152 1 -1.99104 -1.58601 -6.88913 11
153 1 9.3538 -4.24833 10.6109 21
154 1 8.6655 5.05787 -3.14081 16
155 1 -7.17276 5.58807 13.0281 20
156 1 9.46403 -5.48577 2.80846 13
157 1 -3.35654 20.9161 8.88612 7
158 1 -9.29894 14.3501 10.9002 15
159 1 10.0993 -7.55766 8.95709 12
160 1 0.195769 17.7632 12.8589 11
161 1 -8.81733 2.56598 -1.56549 15
162 1 -3.00673 16.5451 8.95434 17
163 1 -1.89359 3.55789 1.79755 20
164 1 -11.275 5.70255 11.7516 12
165 1 -1.7672 0.243237 -2.05238 15
166 1 -2.72391 11.9311 7.28913 15
167 1 12.8262 2.78119 13.6827 11
168 1 7.73862 0.978193 13.9306 18
169 1 0.333475 -2.26019 17.4748 9
170 1 8.12357 -4.57883 5.25033 17
171 1 -6.65795 -1.76364 3.60574 22
172 1 -10.4412 0.463791 7.69286 9
173 1 0.101867 -5.41294 5.73241 15
174 1 14.1533 7.18903 2.12514 12
175 1 -7.22765 10.527 -2.59182 11
176 1 -5.22301 18.6276 11.7575 8
177 1 -6.27842 16.2861 7.53929 18
178 1 -10.7969 11.5674 14.3979 16
179 1 7.25684 0.0271216 -3.70444 18
180 1 10.7013 -0.0942606 -4.37107 11
181 1 -6.0484 12.6726 7.8004 20
182 1 -7.51326 -5.30104 2.46302 12
183 1 -4.51625 10.7797 5.1997 19
184 1 -11.3544 11.9911 9.2709 15
185 1 11.9118 -5.48225 10.5191 16
186 1 7.46511 1.46808 10.7572 17
187 1 -4.04629 4.98563 0.290956 19
188 1 -4.95068 -2.20311 11.881 15
189 1 -0.399436 18.0437 3.60608 17
190 1 -6.06822 12.3283 10.789 18
191 1 -6.74917 -2.05484 -3.98722 12
192 1 8.11071 -5.23786 13.7597 16
193 1 -8.0197 -4.218 6.03332 11
194 1 -4.67007 19.3394 -1.45247 7
195 1 7.31186 -9.32864 9.13418 13
196 1 -2.83074 6.12266 13.791 21
197 1 -3.71198 10.8186 10.4509 20
198 1 1.69043 -6.26694 2.13861 14
199 1 2.97674 7.70578 13.0524 19
200 1 -13.141 8.60636 8.42533 10
201 1 1.2314 3.68189 18.0198 12
202 1 -1.66583 7.09262 19.0543 10
203 1 4.56562 -7.78161 0.874983 12
204 1 12.0788 -5.11127 4.99067 9
205 1 0.442536 13.5329 -0.363924 17
206 1 -0.530594 0.496744 13.1728 16
207 1 10.8127 -0.252834 14.3215 14
208 1 12.9193 7.91729 5.72395 17
209 1 5.75614 7.77524 -5.78424 16
210 1 11.869 -1.78301 10.667 15
211 1 -8.55538 9.03374 13.6661 22
212 1 0.90016 16.2164 1.11572 20
213 1 5.30817 0.581383 16.1416 13
214 1 -2.65964 -4.36237 -0.585968 15
215 1 2.26305 10.5886 18.8469 14
216 1 -5.52651 10.4058 13.5618 24
217 1 -1.69011 -0.116073 6.76673 16
218 1 -9.02485 5.61742 -2.56355 7
219 1 -8.73889 18.449 6.71849 10
220 1 -7.64954 -4.36347 -1.446 11
221 1 -3.56895 0.799615 11.4004 19
222 1 9.11806 7.58047 11.5033 15
223 1 8.46209 5.24161 5.88766 20
224 1 2.43488 7.56332 1.58647 20
225 1 0.743813 8.51445 4.09009 16
226 1 -3.93265 9.93256 19.0823 12
227 1 -10.6185 1.73214 4.25219 14
228 1 8.22639 14.1609 1.90359 19
229 1 -4.84808 1.68379 -1.48954 21
230 1 -0.224822 1.41889 -8.26992 10
231 1 4.80534 17.4105 5.40891 11
232 1 0.865246 9.98747 13.9788 19
233 1 1.32548 11.896 -6.04853 9
234 1 5.75067 -5.38258 3.61955 20
235 1 2.11805 6.01079 -6.89772 11
236 1 6.8719 15.9147 8.09383 11
237 1 13.6045 1.98156 -0.620168 11
238 1 -1.82272 7.63354 -2.61084 18
239 1 3.98336 -3.62355 -0.786962 20
240 1 -0.545753 -2.56458 11.2027 17
241 1 -1.74812 3.06437 -1.68588 16
242 1 3.9226 11.267 -5.42947 14
243 1 -6.98386 -3.05634 10.4829 10
244 1 12.7629 3.57393 5.86495 19
245 1 -4.29125 17.8691 0.997214 18
246 1 11.1384 1.07241 1.38351 15
247 1 8.77416 12.9413 -0.826062 24
248 1 6.80979 -4.06732 -6.42448 5
249 1 -0.621535 0.918138 10.0327 21
250 1 1.60766 19.4126 5.53652 11
251 1 1.01784 10.4901 -0.199102 16
252 1 9.75162 11.4602 4.58388 18
253 1 -0.8968 -1.53134 1.79422 16
254 1 0.0335237 3.03422 -5.57324 18
255 1 15.404 5.4976 5.0383 12
256 1 15.7703 3.03214 4.80806 12
257 1 -11.5771 8.15405 5.96685 11
258 1 -4.42426 -1.64564 -1.47674 17
259 1 2.13447 -0.572559 11.96 15
260 1 8.25729 6.76015 -0.683224 21
261 1 -5.81528 12.3283 3.32385 20
262 1 2.4293 18.2443 -1.38582 11
263 1 1.60592 7.50487 18.2596 17
264 1 6.9235 -7.95917 2.90227 11
265 1 5.84719 4.53167 -4.35891 15
266 1 -4.41476 2.06325 6.43852 18
267 1 -7.86412 13.5568 0.673352 12
268 1 -8.83709 3.16623 15.9068 12
269 1 -1.02133 18.0898 0.619972 16
270 1 2.85732 -2.99417 -3.6839 17
271 1 6.60701 -2.83404 15.8102 9
272 1 6.45979 1.66196 -1.32935 19
273 1 -11.3718 9.45396 10.8165 16
274 1 9.12814 -2.52252 1.29659 15
275 1 1.66898 12.5018 15.3517 14
276 1 1.0979 6.87899 -1.21348 18
277 1 6.74168 9.93138 -1.2554 22
278 1 1.6501 0.138414 -2.76431 17
279 1 -9.18519 0.616546 2.06117 18
280 1 11.7433 11.1049 6.38258 13
281 1 0.542497 -3.68306 -5.5075 11
282 1 5.78734 -6.46159 -1.72383 11
283 1 6.4685 11.2038 4.90871 17
284 1 -8.45472 11.9193 8.71556 18
285 1 9.74476 14.8425 -2.8216 12
286 1 5.37696 -4.93021 13.8539 12
287 1 8.458 11.3867 15.1442 12
288 1 -6.62134 4.35117 5.17538 18
289 1 9.49142 15.6284 3.56726 10
290 1 6.77679 -4.69858 0.948741 18
291 1 5.3654 12.0618 14.8965 12
292 1 4.0397 10.1211 12.6891 18
293 1 -1.3638 21.1561 1.7402 8
294 1 -5.36818 -3.45672 0.924309 21
295 1 -4.72155 13.2596 -2.5511 15
296 1 -3.19368 8.25602 -5.22443 8
297 1 -10.017 5.47323 3.32484 13
298 1 10.8252 0.358384 4.21754 19
299 1 4.84115 -0.121187 10.2975 22
300 1 12.931 10.0763 3.47684 13
301 1 9.41253 2.287 6.65321 18
302 1 3.72436 16.6837 13.8731 8
303 1 5.61882 7.13434 -2.57208 22
304 1 -2.36873 12.2098 18.8517 17
305 1 -4.78483 0.836048 18.0089 10
306 1 -5.66479 4.05587 -3.0278 16
307 1 0.564117 -4.93701 16.5841 7
308 1 -5.38361 18.9678 8.79276 16
309 1 6.86076 13.326 9.21886 16
310 1 6.23603 6.20942 14.3129 17
311 1 -11.7029 7.89509 14.0679 13
312 1 8.73989 10.137 -5.79979 11
313 1 3.36172 -3.27188 2.02491 18
314 1 5.23078 15.7503 10.6427 14
315 1 0.754469 15.0264 14.7616 17
316 1 2.60087 -5.8311 13.7667 11
317 1 -7.29287 16.5394 13.0638 13
318 1 -8.74558 14.5603 7.56896 15
319 1 -1.30583 5.87097 0.353246 19
320 1 5.45015 14.8083 3.19968 19
321 1 -0.301234 7.69214 15.5126 22
322 1 2.57003 13.4968 1.93725 19
323 1 -5.86084 0.245844 9.00501 20
324 1 7.08376 9.35483 13.8501 18
325 1 -3.93898 7.43695 8.68255 18
326 1 -5.94804 9.16218 3.15053 22
327 1 5.52517 16.768 -0.349174 13
328 1 7.24665 6.71576 18.4116 10
329 1 6.9542 12.9941 12.5515 10
330 1 4.315 2.67785 -3.17361 21
331 1 -0.0159612 6.58545 12.9386 20
332 1 12.0626 3.62402 2.39282 18
333 1 4.42801 12.5223 10.7509 17
334 1 -11.5344 3.635 8.65468 10
335 1 0.391764 -3.63115 2.89561 18
336 1 10.6733 8.14915 2.01549 23
337 1 7.44497 0.624261 8.21997 19
338 1 -0.910262 12.5195 13.0161 18
339 1 5.34729 1.64079 -6.55833 12
340 1 7.86185 -0.512659 -6.48637 7
341 1 1.61414 12.7333 11.717 16
342 1 4.41283 1.61306 13.0496 23
343 1 -8.32394 -2.41063 0.952094 12
344 1 -6.22004 9.41637 16.5708 19
345 1 4.96188 9.60648 9.83118 17
346 1 -3.2766 14.3457 0.690168 17
347 1 9.73401 10.9612 -2.93774 19
348 1 11.0199 12.0199 1.89233 19
349 1 3.37317 9.76442 -2.55805 20
350 1 -5.2465 5.28703 16.1261 19
351 1 -3.25127 9.97269 16.0109 21
352 1 -1.30038 4.63197 -7.55085 11
353 1 -9.82279 13.8421 3.77177 10
354 1 -1.54082 12.4907 15.728 20
355 1 -3.88097 3.9861 8.89536 19
356 1 7.41855 13.1698 -4.26992 14
357 1 -9.82225 9.18811 16.486 13
358 1 -8.87706 1.21211 9.80874 15
359 1 10.7173 5.75897 4.33679 20
360 1 -4.98334 -3.98238 4.55463 17
361 1 14.4079 0.922995 6.07696 13
362 1 7.12529 -2.43033 8.84009 17
363 1 -1.07581 14.5742 11.3778 22
364 1 -10.0842 14.4743 14.2154 12
365 1 12.3756 7.31352 11.0184 9
366 1 11.1182 5.9658 7.43693 19
367 1 -1.35521 16.0283 5.65563 18
368 1 3.41696 18.3129 11.6766 8
369 1 1.91181 -8.49099 6.72736 10
370 1 -11.1008 3.37128 1.58942 10
371 1 3.01859 6.66337 15.8725 20
372 1 0.257226 15.7117 7.86902 19
373 1 10.1571 3.14312 15.3645 12
374 1 10.4463 -0.301099 8.4493 20
375 1 0.0756179 13.1711 20.4531 7
376 1 4.95356 10.9443 7.38435 20
377 1 -4.45823 -6.1338 2.374 9
378 1 -6.08821 15.7645 -1.23719 13
379 1 -5.70738 12.5727 18.2497 11
380 1 13.5594 8.8598 8.76744 9
381 1 4.63414 12.3683 -2.211 19
382 1 11.5901 12.2168 -1.45877 14
383 1 -3.42441 -4.25388 10.0293 14
384 1 -7.19821 1.04014 -4.09633 10
385 1 3.44113 5.12903 -0.747179 21
386 1 -3.1187 -2.34812 3.55307 20
387 1 -0.412591 9.83956 17.838 17
388 1 2.78838 -5.22983 5.39463 19
389 1 12.422 9.65078 0.185417 15
390 1 -3.65276 13.4804 9.86385 18
391 1 14.1609 5.32624 -1.13798 9
392 1 -8.09017 3.33806 2.09333 19
393 1 7.98859 11.0895 1.8532 21
394 1 4.98563 8.49165 18.348 13
395 1 -9.43139 3.96982 5.82548 17
396 1 -2.86141 13.1223 3.68361 22
397 1 15.7438 2.92752 8.03427 11
398 1 1.04305 -3.90481 -0.0944713 17
399 1 -1.50903 -2.55589 5.91435 20
400 1 11.2648 3.19447 8.70196 13
401 1 -14.6142 11.4232 11.1221 6
402 1 8.43902 17.1003 -0.665457 13
403 1 9.68985 -3.70446 15.6749 9
404 1 -0.216422 3.91316 15.1931 23
405 1 -2.76165 1.42892 -8.11046 10
406 1 -2.22072 -2.46319 13.9933 13
407 1 9.0923 5.78323 16.2914 12
408 1 -1.66162 -5.04305 1.97772 15
409 1 10.4133 -3.13531 -2.10076 9
410 1 -7.61534 13.0007 13.1796 18
411 1 -4.4683 8.12585 11.8052 21
412 1 -1.06418 -5.12179 -2.5974 10
413 1 3.68159 14.0131 8.40963 17
414 1 14.8103 4.14451 1.89215 13
415 1 1.84203 -4.57449 11.1003 14
416 1 3.89411 17.6111 2.5224 15
417 1 8.16098 8.32037 -3.61774 21
418 1 -5.3576 11.8325 -0.0619181 21
419 1 6.22109 10.4609 -4.00418 20
420 1 5.98992 6.80114 11.2543 21
421 1 3.41958 15.011 -0.944137 19
422 1 -4.08885 15.371 16.8901 13
423 1 9.19967 -0.668653 -1.27208 19
424 1 5.34251 -4.93339 10.7596 18
425 1 8.9812 10.9062 11.7237 12
426 1 7.14663 -3.08221 -1.03197 17
427 1 -4.06667 9.97946 -1.60549 16
428 1 -0.621721 11.3376 10.3338 16
429 1 -0.917779 6.38632 7.286 21
430 1 1.93972 2.18185 11.2326 24
431 1 14.06 -6.04749 7.53034 6
432 1 5.14927 5.02164 -7.62932 10
433 1 -7.98362 -1.47461 7.76302 16
434 1 0.468598 13.8642 4.58207 19
435 1 11.2916 5.8713 13.6934 11
436 1 -2.44824 -0.456444 16.8376 13
437 1 14.6 6.16251 8.43192 13
438 1 -1.58694 13.5886 -3.45668 14
439 2 -7.01787 15.254 0.218073 13
440 2 -4.29368 19.5755 5.30923 14
441 2 3.19001 4.62289 -7.73621 10
442 2 -7.99783 14.015 14.8317 15
443 2 -0.806491 7.0729 -1.03285 15
444 2 -2.2368 5.71226 18.1057 11
445 2 -9.53253 4.86791 15.7204 14
446 2 5.75616 13.2956 4.67418 17
447 2 -6.68271 -2.21133 1.82027 19
448 2 -8.24466 6.60917 3.54151 19
449 2 -6.5177 11.1924 9.17866 18
450 2 -4.10945 0.809273 16.0687 16
451 2 6.34067 1.55304 14.645 17
452 2 3.59475 0.740481 -6.87155 10
453 2 8.29097 -0.828906 9.18976 20
454 2 -4.77357 19.9493 0.24923 7
455 2 11.1089 7.15869 12.3987 11
456 2 -10.1521 2.28097 14.6683 7
457 2 0.571538 -5.58265 9.71118 14
458 2 10.4353 -2.08162 14.6412 9
459 2 -11.5102 13.3348 14.2683 11
460 2 -4.35848 19.7866 10.3767 9
461 2 -2.07392 14.5529 16.1863 16
462 2 9.70416 -0.0505361 0.655583 17
463 2 -2.329 11.249 -2.33624 16
464 2 2.3496 -1.23002 -4.14398 19
465 2 11.1248 1.59821 -3.5686 12
466 2 2.1025 15.439 8.48991 18
467 2 -4.90915 20.7221 7.67761 11
468 2 -8.33751 -0.739806 3.87784 16
469 2 6.61182 -5.52548 12.3818 17
470 2 6.46659 4.77231 5.46993 21
471 2 -9.83132 4.46191 1.47536 15
472 2 8.83891 15.3398 5.35416 13
473 2 5.74119 -6.32112 9.32946 18
474 2 -0.461804 16.4777 14.2877 13
475 2 8.09254 11.5631 13.2934 12
476 2 2.83724 13.0178 -5.5051 10
477 2 -8.7982 15.4252 12.5891 13
478 2 7.97072 5.8434 -4.73723 13
479 2 -1.97137 3.49826 -6.07424 15
480 2 -4.35351 4.14084 14.6556 20
481 2 -1.96575 3.97603 8.95469 21
482 2 3.62405 -4.13147 10.5566 16
483 2 -0.946157 -0.745519 17.5696 10
484 2 -0.246948 8.56172 13.7219 19
485 2 -7.78089 4.48044 6.78731 18
486 2 6.24375 -4.11166 5.26129 15
487 2 9.49622 3.51442 -2.37927 17
488 2 -4.9954 -1.97874 4.41349 20
489 2 2.79565 13.9451 10.8273 17
490 2 12.1551 0.761535 -0.424269 14
491 2 5.50424 1.72146 11.2879 20
492 2 -8.24986 -5.09957 4.27089 9
493 2 13.9813 7.10687 6.90891 13
494 2 -1.78295 1.17468 11.634 17
495 2 11.4949 2.86102 10.6628 15
496 2 -2.83343 2.25216 -3.0433 17
497 2 -2.18797 4.82856 12.466 19
498 2 -1.84876 -2.90401 9.67465 17
499 2 -6.21973 -4.28161 6.2423 15
500 2 -1.43627 17.9521 5.06652 16
501 2 7.64074 1.81485 3.1931 19
502 2 5.40996 18.3537 4.12447 9
503 2 9.70496 16.0369 -1.43832 10
504 2 -4.51953 9.7399 17.3591 16
505 2 -7.35219 19.0059 5.68866 13
506 2 -5.62932 6.49693 12.0414 25
507 2 -10.8382 12.7431 11.3559 18
508 2 -8.93756 14.2923 2.03242 11
509 2 12.7309 11.146 1.79013 11
510 2 15.5388 3.93945 6.43379 14
511 2 9.37683 4.34094 7.51097 18
512 2 0.862735 19.5062 3.82398 13
513 2 -6.19852 12.0158 13.7807 19
514 2 9.60552 7.10471 3.12844 15
515 2 -3.81812 16.1641 2.04754 16
516 2 0.866713 9.99206 2.79299 18
517 2 -2.60579 7.57027 12.036 21
518 2 2.69784 0.553658 10.3682 18
519 2 5.53332 9.86738 -5.67294 14
520 2 -8.79489 11.1054 14.0638 21
521 2 8.44269 10.991 -1.47036 23
522 2 -0.411264 2.82246 18.6828 10
523 2 -3.09563 -3.4942 5.11913 18
524 2 6.96487 -0.887094 2.06646 18
525 2 11.8486 -6.88658 12.063 13
526 2 11.0522 10.1924 -1.50909 15
527 2 -8.16419 11.7803 -3.54752 6
528 2 0.208885 15.8776 11.6922 18
529 2 -8.72554 -0.383453 0.5979 14
530 2 8.0373 11.3759 -4.40325 16
531 2 2.25922 18.072 1.61552 14
532 2 -1.277 13.9822 19.0917 11
533 2 13.164 -6.19901 5.92851 6
534 2 3.30671 8.09811 17.2148 17
535 2 12.2607 4.01104 7.43354 18
536 2 8.82682 7.75833 9.46502 20
537 2 1.77433 10.0992 -5.95399 11
538 2 5.58131 -1.24511 15.6309 11
539 2 -2.81831 1.66136 18.1659 10
540 2 9.41391 1.50001 15.0064 12
541 2 -0.80678 16.5601 2.40371 20
542 2 -7.70867 -2.35788 -1.82468 14
543 2 3.25818 -0.623398 2.19539 17
544 2 -3.98775 -2.90356 -0.268722 19
545 2 8.14257 14.2566 8.0256 12
546 2 -10.7852 1.69434 1.96814 11
547 2 -13.4944 10.0336 9.72076 9
548 2 10.5121 6.7491 15.1743 12
549 2 5.84408 -6.44656 1.88133 16
550 2 0.306579 3.43007 -0.617976 20
551 2 -2.02786 6.32167 -5.223 15
552 2 -9.04928 3.76995 -2.99793 9
553 2 -10.2362 10.944 16.1584 11
554 2 0.28655 4.88802 -6.34508 14
555 2 7.45189 -2.43607 -6.6659 7
556 2 0.471168 0.0284897 1.29185 16
557 2 -6.72473 -1.23667 11.1763 16
558 2 2.21419 -4.55528 -4.79905 12
559 2 -0.117345 -5.78316 2.31107 12
560 2 2.08337 14.9807 0.458392 20
561 2 6.84776 11.5518 16.2878 11
562 2 9.93606 15.3623 1.63429 12
563 2 -11.1647 7.43741 10.4576 18
564 2 6.46531 -8.64947 10.7706 13
565 2 1.53871 8.65212 -0.675712 14
566 2 -6.7628 11.5254 16.8674 18
567 2 -4.53667 0.795607 2.0071 18
568 2 -2.2296 11.2581 12.0246 23
569 2 -6.82523 6.00341 15.1339 22
570 2 -1.16758 -4.13529 12.8314 15
571 2 -10.0928 13.2215 8.5802 11
572 2 -3.8247 -0.249493 10.0803 17
573 2 -2.6045 -1.88304 7.14971 20
574 2 11.6712 1.25511 13.3267 13
575 2 4.78658 6.13312 -4.70506 20
576 2 7.54222 15.646 2.89282 15
577 2 9.97188 9.45984 -4.04703 12
578 2 -4.53943 17.1715 7.90187 16
579 2 -4.36732 10.0872 0.316209 20
580 2 -10.0146 0.56707 5.91368 13
581 2 -2.6528 -0.723289 2.58392 17
582 2 11.0553 -3.58766 10.7824 15
583 2 14.3984 3.24829 12.3649 7
584 2 -2.35963 21.4872 3.23017 8
585 2 9.96933 10.2091 6.72663 17
586 2 5.73649 4.57807 13.8139 20
587 2 -0.442603 -3.71579 -3.68777 15
588 2 -1.61351 16.5153 7.69289 15
589 2 -3.38213 12.0802 15.2394 21
590 2 2.8025 -2.14539 8.11627 17
591 2 -2.64201 6.93486 7.18549 18
592 2 4.42105 11.1471 -3.69415 19
593 2 -1.90116 1.48181 -0.594996 18
594 2 -8.26122 3.2324 0.108686 16
595 2 -4.03452 6.81933 15.4643 21
596 2 9.77506 9.97114 1.86258 21
597 2 8.48813 9.89392 4.69489 22
598 2 12.1399 0.702192 2.92343 14
599 2 -11.0045 4.65852 10.3447 14
600 2 -4.32193 10.7661 3.2694 22
601 2 -5.44765 11.4773 -2.18177 15
602 2 2.99535 3.22679 -1.51791 21
603 2 -7.05012 14.2717 6.94042 18
604 2 -8.59009 6.06457 12.0293 19
605 2 3.00981 -7.8549 2.07121 10
606 2 5.32239 -3.37435 2.01377 20
607 2 -7.38933 18.0734 8.25411 13
608 2 1.30689 -2.27018 11.8746 16
609 2 -7.89054 8.15859 6.60564 19
610 2 0.313727 -3.83492 6.82198 17
611 2 3.72346 11.5361 15.677 15
612 2 0.0337744 4.11302 -3.36152 17
613 2 1.0108 12.1301 0.808626 16
614 2 11.0776 13.3792 -2.81482 12
615 2 3.43289 12.6 7.12006 18
616 2 -6.48474 5.51575 17.6543 12
617 2 -1.54382 1.16518 8.09975 20
618 2 -1.76727 -5.39879 6.91609 12
619 2 -9.1178 -2.74155 5.79695 13
620 2 -0.548694 2.38571 14.0632 16
621 2 0.357726 17.4464 -0.536244 15
622 2 12.2954 4.13323 4.14898 20
623 2 4.17687 6.5731 14.0226 21
624 2 6.36149 0.366691 -5.44822 15
625 2 3.78931 16.9579 -1.13416 13
626 2 4.23958 10.5863 18.6014 10
627 2 -5.84772 -1.14871 7.3096 19
628 2 -2.69846 17.3503 -0.0772154 16
629 2 -1.68774 10.8854 17.0943 17
630 2 3.40463 -5.00963 7.32933 22
631 2 -6.25339 0.945727 13.4683 17
632 2 6.96808 7.52598 15.3394 18
633 2 5.46271 11.4451 -0.714021 20
634 2 2.9215 17.7309 5.77069 14
635 2 11.6685 -3.59575 6.01764 12
636 2 5.81151 -4.4904 -1.07632 18
637 2 0.0655036 12.6253 -4.28543 11
638 2 5.31501 3.76826 16.821 14
639 2 4.06904 3.61197 8.562 19
640 2 11.5715 -2.19722 8.36111 18
641 2 -5.27067 3.63563 -1.01429 18
642 2 12.13 -3.13035 -1.37961 5
643 2 -5.571 9.8859 11.4853 21
644 2 -1.63369 2.91807 -8.51786 10
645 2 -1.15711 11.7453 20.5222 12
646 2 -3.97138 14.8343 -1.01378 17
647 2 11.035 7.10489 5.55635 17
648 2 6.13513 16.81 6.59004 12
649 2 8.89149 12.6526 6.11036 18
650 2 6.76804 10.9632 6.74694 25
651 2 -11.3737 8.38486 7.94783 14
652 2 -5.87359 19.7596 2.8189 10
653 2 -2.28059 4.37046 -0.505453 21
654 2 10.7621 13.1751 0.128183 20
655 2 -11.2428 15.0431 4.29724 5
656 2 -4.19671 -5.01338 8.31681 13
657 2 0.818187 10.0159 15.9647 18
658 2 4.3643 -5.81866 -3.04632 12
659 2 -0.261655 -1.85779 -5.77167 12
660 2 6.82025 16.5631 -1.91917 11
661 2 3.88842 16.4697 11.8788 12
662 2 -3.80229 1.33784 -6.4397 12
663 2 -5.1493 -0.0324552 -0.597199 19
664 2 8.28887 3.44552 11.4799 14
665 2 4.28187 6.13899 2.94263 19
666 2 8.8546 -2.93181 12.2219 21
667 2 3.41769 1.27657 16.4471 12
668 2 0.170104 6.12491 10.9938 20
669 2 -6.01571 -6.43728 1.55505 10
670 2 1.49626 12.2183 19.5094 11
671 2 5.70734 8.19111 5.07741 22
672 2 -3.90518 5.62666 9.66975 20
673 2 1.22394 -5.64812 12.2984 11
674 2 0.279945 13.1296 6.40182 17
675 2 3.30893 -7.7024 7.97868 14
676 2 2.45052 5.29068 18.1139 11
677 2 8.97204 7.24686 17.4888 9
678 2 -9.73104 8.04454 14.978 16
679 2 -2.69011 12.0561 5.32527 18
680 2 1.33313 3.29208 16.1703 14
681 2 -5.47691 -3.46638 -3.89998 12
682 2 7.58213 8.47056 -0.391372 23
683 2 3.0246 1.18656 -4.00313 20
684 2 -4.04856 13.5643 7.80222 20
685 2 -4.12087 12.0373 19.0023 13
686 2 1.2133 6.76196 3.02284 19
687 2 14.4553 5.7949 0.874217 10
688 2 8.4191 7.20088 6.56397 20
689 2 -2.00971 8.64795 18.2861 16
690 2 -3.68841 9.21054 13.9316 20
691 2 -1.50837 13.3673 0.275274 19
692 2 -6.56117 2.57767 5.44488 14
693 2 -0.498829 4.84826 2.28465 18
694 2 -0.70684 12.4646 3.69744 20
695 2 -5.77163 2.28649 -3.69088 14
696 2 2.49313 -4.73518 0.99659 18
697 2 1.00902 -6.90293 6.314 14
698 2 9.87452 -8.38618 10.7296 12
699 2 7.04438 2.38568 9.10145 18
700 2 13.0681 3.67301 -1.83707 11
701 2 5.99619 -9.9993 7.58324 9
702 2 3.61921 9.56191 8.04455 22
703 2 -13.9695 12.9481 12.0438 7
704 2 -7.22003 4.29845 9.95738 22
705 2 16.0509 4.48833 3.35976 11
706 2 8.80285 -3.53012 8.90832 15
707 2 -4.79991 13.4644 11.5525 18
708 2 7.63881 2.8265 0.255541 19
709 2 0.48704 15.6387 5.10671 19
710 2 -8.71974 6.73734 9.26179 19
711 2 4.37983 13.2184 1.92977 18
712 2 4.45544 -2.93056 -2.73584 18
713 2 -4.10464 2.68132 11.184 21
714 2 0.892502 9.40864 19.1438 14
715 2 11.184 3.76216 13.8838 14
716 2 7.61983 8.45468 -5.50436 14
717 2 -7.11627 11.8274 0.683214 16
718 2 7.33026 -1.91362 -2.68054 17
719 2 -7.06573 16.8332 2.88513 12
720 2 4.39573 -1.67458 -0.152051 19
721 2 -11.4192 5.95273 13.7515 10
722 2 -2.84951 3.50339 6.3085 19
723 2 8.18127 -8.12224 7.99259 14
724 2 -5.03871 -4.31561 2.5938 18
725 2 -3.11037 -5.73069 0.944498 12
726 2 8.91813 0.0828795 -4.99069 11
727 2 -3.70748 7.80818 -3.28808 11
728 2 4.98213 11.4301 9.25223 18
729 2 -3.20485 -5.03975 -2.06957 13
730 2 2.81642 9.25076 13.9635 20
731 2 -6.85035 17.0933 15.3483 10
732 2 -6.51033 13.9573 -2.5116 12
733 2 -3.56119 -1.47513 -5.8748 12
734 2 -2.74393 -2.10301 15.6931 13
735 2 -9.76616 16.8925 6.0896 9
736 2 12.5924 8.50488 2.03807 14
737 2 0.243963 14.4563 -2.36963 15
738 2 6.51374 10.4967 2.88895 20
739 2 -0.1687 -0.0355573 -3.13257 16
740 2 4.42147 -7.09427 -0.840649 11
741 2 -6.95607 9.16901 -1.35447 14
742 2 9.09951 9.64904 15.2369 12
743 2 1.65618 6.95476 -5.34354 13
744 2 -11.5469 5.1759 7.41207 14
745 2 14.9956 1.20225 7.72842 11
746 2 6.65622 9.00723 17.8301 11
747 2 11.0143 8.16279 0.134229 16
748 2 5.40403 14.5934 -0.499105 20
749 2 -2.75682 14.8963 4.71801 20
750 2 15.1296 3.78634 9.50956 10
751 2 -7.6809 5.88106 -1.24218 15
752 2 2.21162 13.1758 4.05133 19
753 2 -2.26191 13.9929 13.1591 19
754 2 -2.86052 -1.18205 -2.79422 16
755 2 5.21927 6.49499 18.6537 10
756 2 -5.93959 14.2439 16.6848 13
757 2 13.5735 -0.564651 6.88035 12
758 2 2.19602 -4.3293 -1.9865 18
759 2 -3.68817 17.0084 15.937 8
760 2 3.94358 -0.338115 12.7655 18
761 2 -2.8136 15.0367 10.2723 15
762 2 1.10974 18.4725 7.33586 14
763 2 -2.39675 7.36182 1.26783 19
764 2 -5.24111 16.0161 6.0056 18
765 2 -4.86597 7.42627 2.90452 21
766 2 -1.25221 -0.0739436 -7.983 9
767 2 -7.8669 12.4839 11.1768 20
768 2 14.5123 1.54672 4.35962 14
769 2 -4.11246 13.0332 1.87683 20
770 2 -9.08397 9.23472 11.8102 18
771 2 -8.54477 0.815703 -2.32754 12
772 2 -0.170697 13.0517 11.1983 16
773 2 -0.723774 -4.64979 -0.776918 14
774 2 -4.84764 6.85991 -0.343358 23
775 2 5.2947 5.42973 0.317815 23
776 2 3.74629 7.91168 -2.87199 16
777 2 -1.91161 19.6158 8.3603 12
778 2 -10.0335 10.649 9.20522 17
779 2 2.28703 8.01759 5.40374 21
780 2 -8.96403 -0.14017 8.57325 15
781 2 12.601 6.32157 -1.56173 10
782 2 4.53522 3.10827 -5.55206 16
783 2 -4.92928 -3.66315 10.864 11
784 2 -8.38048 11.0028 6.94395 19
785 2 -6.03222 2.12609 18.3569 9
786 2 5.63769 13.354 -3.583 15
787 2 9.07904 -6.86373 13.1488 13
788 2 9.26294 11.2346 9.6622 12
789 2 10.4887 -0.0121219 10.7617 18
790 2 -0.923075 6.05691 14.8986 18
791 2 3.10261 13.9129 -2.57007 18
792 2 0.427179 13.5882 15.9475 16
793 2 -6.40677 3.75962 12.8118 18
794 2 -0.846412 -3.90141 17.2018 10
795 2 -4.7881 16.8312 12.8582 12
796 2 -5.1344 17.6182 -1.28539 9
797 2 -6.53838 4.52775 1.78316 21
798 2 2.70639 17.6443 9.95084 12
799 2 7.93374 -3.78284 15.1266 13
800 2 6.25099 13.8783 11.1476 13
801 2 -7.09906 -2.85084 8.81302 13
802 2 -10.8369 4.15027 4.40213 14
803 2 -12.6511 6.86548 4.84507 7
804 2 1.32616 7.44764 16.2336 19
805 2 1.42458 -5.45076 15.0724 9
806 2 3.0087 -9.42009 5.43693 9
807 2 8.91466 9.10762 12.7025 17
808 2 8.40098 -4.21184 1.80423 16
809 2 -6.63623 8.99734 14.5291 22
810 2 -6.13906 -0.350296 -4.5983 14
811 2 -5.19121 2.99206 7.8776 17
812 2 7.39012 -0.116156 12.5252 18
813 2 -1.8367 3.59663 16.3286 17
814 2 9.26389 -6.02509 10.0639 20
815 2 7.71137 12.7716 0.787885 21
816 2 5.48499 11.5839 13.1431 16
817 2 9.48506 7.36757 -2.29375 21
818 2 10.8064 1.4803 7.79972 19
819 2 8.84143 12.6111 3.10206 20
820 2 5.89939 3.42704 -2.40085 22
821 2 2.22962 17.8045 13.2606 10
822 2 13.9845 7.14889 9.82991 9
823 2 -0.971001 -1.28059 12.9567 16
824 2 4.3674 -6.69519 13.6151 8
825 2 -6.96632 3.39432 16.0795 17
826 2 7.53957 -6.1709 6.16568 14
827 2 12.9838 -5.59975 9.02412 10
828 2 11.1561 -1.18005 5.18305 16
829 2 5.47099 -3.05676 13.8084 16
830 2 13.7001 2.76656 1.29373 14
831 2 -8.36108 15.543 9.62646 12
832 2 0.37019 9.89549 9.90422 15
833 2 9.472 5.66607 0.570855 22
834 2 0.97848 1.49822 -6.35939 16
835 2 5.42575 -4.04933 -5.16973 9
836 2 6.36108 9.07578 -2.82179 22
837 2 -0.362178 8.67902 -3.71631 14
838 2 2.48876 15.7988 15.1761 9
839 2 -2.11437 2.18336 2.88022 16
840 2 11.5106 10.9828 4.47358 15
841 2 -7.07548 1.28224 2.35911 17
842 2 3.46681 -1.85811 5.32983 20
843 2 5.53985 18.1416 1.2221 12
844 2 14.6202 6.54835 3.72764 12
845 2 8.40053 13.7956 -2.4722 17
846 2 10.5868 -4.83166 14.054 12
847 2 -6.78575 1.39927 9.9793 18
848 2 8.74149 4.29409 15.752 16
849 2 13.1979 -0.301866 10.1054 12
850 2 5.53485 -2.74912 7.95416 19
851 2 5.45615 14.822 8.78534 16
852 2 -8.6753 8.1729 17.3891 13
853 2 -10.2799 9.10257 5.36971 12
854 2 11.6743 8.37463 9.39664 14
855 2 5.90499 -8.52524 4.49158 14
856 2 1.91882 0.536531 -0.877949 22
857 2 2.99918 11.3027 11.2531 18
858 2 10.1791 -4.50028 4.34327 13
859 2 -2.5536 11.9485 9.31723 16
860 2 -3.99569 -1.53537 13.5239 14
861 2 5.71971 -2.22934 10.8473 19
862 2 -6.92694 17.7091 11.4185 11
863 2 6.41835 6.35543 -6.86579 10
864 2 2.50961 6.01117 -2.10115 18
865 2 -11.8208 10.1466 12.972 16
866 2 0.876141 -2.76203 15.6711 13
867 2 -4.7401 5.46467 -3.99776 13
868 2 7.44092 6.46887 12.4591 16
869 2 12.7148 9.81758 7.1056 11
870 2 -3.34303 13.7555 -3.85304 9
871 2 3.82076 15.8672 3.60465 19
872 2 -6.35122 -5.77778 -1.49388 10
873 2 -0.221514 19.8972 0.853893 12
874 2 1.04161 12.2932 13.6904 20
875 2 8.36716 -6.8651 2.89641 11
876 2 9.22594 -2.78292 -0.649177 13
877 1 -8.21352 -0.667242 -1.34048 14
878 1 5.61784 7.0185 1.43959 18
879 1 1.10263 4.0965 1.36625 19
880 1 4.66569 -0.968851 -1.88616 22
881 1 2.92737 -6.24484 -1.65359 14
882 1 0.974275 0.806656 5.30048 17
883 1 -2.65312 7.96074 5.2358 18
884 1 -6.05122 -0.118017 1.38881 20
885 2 -6.81747 8.46809 1.33454 17
886 2 -3.84864 4.05741 2.05142 21