ITEM: TIMESTEP
36000
ITEM: NUMBER OF ATOMS
1000
ITEM: BOX BOUNDS pp pp pp
-30.0 30.0
-30.0 30.0
-30.0 30.0
ITEM: ATOMS id type x y z Coordination
1 1 -4.71441 -5.24697 -1.10327 11
2 1 5.34007 -0.477285 12.795 20
3 1 -8.99069 14.9046 6.45945 10
4 1 -8.87162 6.16929 0.342216 14
5 1 8.16362 -4.77276 11.1848 15
6 1 -4.29189 6.78464 -4.10027 14
7 1 -1.35644 -3.17595 12.4197 12
8 1 16.1178 3.66081 10.5105 8
9 1 0.23969 9.44637 12.7876 22
10 1 14.7492 5.13371 13.1603 11
11 1 -1.20359 12.6997 2.1381 17
12 1 -3.31578 8.90483 19.894 10
13 1 -7.53183 7.95608 13.8395 19
14 1 -0.0593944 3.33419 -5.1294 20
15 1 8.51852 4.49493 7.08494 15
16 1 -3.21221 14.3817 13.5628 17
17 1 7.19036 -7.17159 13.6558 11
18 1 -5.33938 3.49239 15.5473 16
19 1 -8.23579 7.36005 8.20698 19
20 1 0.435519 17.3281 3.7012 22
21 1 4.5322 13.8343 -3.17436 12
22 1 4.56467 3.96392 -8.36788 10
23 1 -2.7437 5.76808 18.8755 14
24 1 -6.63114 10.5776 8.70089 21
25 1 -2.59226 20.2612 0.520502 9
26 1 8.96491 -4.62396 5.1294 13
27 1 11.3084 6.76483 -2.71028 11
28 1 7.99167 6.47802 9.56159 19
29 1 -4.38199 15.3514 -2.98893 9
30 1 4.72687 10.1069 12.8663 19
31 1 -0.883726 8.18149 20.6212 10
32 1 -5.75185 4.7658 4.07575 16
33 1 4.62288 1.72297 18.0395 14
34 1 -7.41779 0.683701 7.45027 16
35 1 11.326 5.33688 13.7336 18
36 1 7.25433 6.34621 4.55132 16
37 1 7.76645 2.72842 18.1665 14
38 1 -4.77005 -0.887633 7.04977 23
39 1 -2.11832 -0.562091 -3.73067 17
40 1 -8.20465 16.5081 0.507233 10
41 1 0.479792 11.1742 -1.57152 14
42 1 14.0555 5.53494 -0.4484 8
43 1 10.4523 1.1789 13.5592 15
44 1 10.4973 -6.77653 12.2831 11
45 1 -1.2165 17.6145 13.2215 16
46 1 0.817894 0.745593 16.3439 18
47 1 -10.5634 7.70176 14.857 12
48 1 12.3296 -2.64517 8.40209 16
49 1 7.60841 9.40378 -5.09165 13
50 1 2.31862 12.436 10.8392 21
51 1 -9.83997 13.2396 -0.129501 6
52 1 -0.863104 15.0537 8.36691 19
53 1 -1.20591 -3.61756 15.8626 12
54 1 -4.65386 -2.52264 -2.56613 12
55 1 7.33459 -1.16803 -1.71521 13
56 1 -8.71762 7.85426 18.5107 7
57 1 -6.84624 3.92653 1.23272 21
58 1 7.1767 0.991159 15.0093 18
59 1 -0.323489 -4.02496 9.02147 13
60 1 13.481 0.10086 16.421 7
61 1 -8.08988 11.0935 12.0231 19
62 1 14.9073 13.3786 5.74086 9
63 1 14.54 -0.120523 5.63975 10
64 1 -4.48322 7.52805 16.3926 16
65 1 10.9064 13.584 11.7964 14
66 1 10.0169 15.0822 8.64108 12
67 1 -6.28283 19.4703 -0.236541 10
68 1 3.05053 1.26696 -4.56042 17
69 1 0.0844381 18.0233 -0.13286 12
70 1 11.6629 2.34278 0.0358862 13
71 1 9.76603 11.7197 -0.910002 17
72 1 12.1922 -2.01595 13.9267 9
73 1 -0.893754 11.4231 -4.29837 11
74 1 -0.277951 17.4712 7.33853 19
75 1 8.88151 18.6946 4.69704 9
76 1 -1.67975 19.5586 3.50298 12
77 1 -0.563611 -0.237572 -6.46753 13
78 1 -7.73309 8.58099 5.49826 14
79 1 -4.81102 16.1282 16.1305 15
80 1 -5.21496 17.2659 5.63422 16
81 1 2.34149 -1.22784 13.9215 17
82 1 -5.88793 5.43657 17.8825 12
83 1 5.48088 -4.40735 10.2141 20
84 1 4.55087 13.7794 5.51067 21
85 1 8.51973 11.8621 2.3498 20
86 1 10.3597 -9.31034 9.50379 5
87 1 -5.45964 11.9463 2.69575 15
88 1 -5.6724 13.0589 14.3486 17
89 1 1.2227 3.90301 -2.50933 21
90 1 -12.8716 5.31551 11.8573 8
91 1 -4.51275 0.587076 17.0274 13
92 1 5.62533 -5.92069 7.71174 12
93 1 -3.84598 16.7242 11.2522 15
94 1 -11.0967 7.09899 5.19799 12
95 1 -4.70412 11.4449 5.8991 17
96 1 2.19271 -5.68783 10.094 13
97 1 10.3481 9.44601 7.566 19
98 1 4.85507 2.78991 20.2304 8
99 1 0.804753 8.41344 -3.89289 16
100 1 -6.98848 7.65847 -2.14526 12
101 1 -7.23511 18.7196 2.73854 11
102 1 4.59328 8.67258 18.5232 16
103 1 -4.17912 9.15122 2.50717 19
104 1 11.402 19.2701 1.95342 4
105 1 -6.83161 17.3593 17.4449 11
106 1 -11.6292 15.318 14.6367 9
107 1 3.66005 -3.99932 -4.10858 9
108 1 12.8624 0.29599 8.04235 17
109 1 2.72782 11.1428 5.21647 21
110 1 3.18033 16.9686 12.7755 14
111 1 -11.2306 6.84726 8.91333 15
112 1 -0.66502 11.2954 19.1358 14
113 1 11.4323 5.96639 0.327182 18
114 1 2.97951 8.03651 13.8772 23
115 1 -2.05186 20.0009 6.97269 14
116 1 -5.61489 2.9831 7.20074 19
117 1 3.95031 1.50196 14.7658 18
118 1 0.635708 -1.3979 11.1857 16
119 1 -1.11914 5.13126 0.478359 16
120 1 11.5921 9.30685 3.73583 18
121 1 -8.83325 5.26159 10.1538 22
122 1 -5.21857 0.639685 -3.07548 11
123 1 -5.30793 1.07359 13.6276 19
124 1 -2.40331 1.64411 14.6462 20
125 1 -5.09874 3.57745 -4.95031 9
126 1 -7.17826 9.22422 1.24069 13
127 1 7.4958 10.4689 16.546 15
128 1 6.96567 6.18129 13.3209 19
129 1 4.42019 0.90646 6.52047 18
130 1 7.53378 15.5345 7.43091 15
131 1 -6.53375 -0.966949 9.69297 14
132 1 2.14578 16.7017 9.41347 19
133 1 -0.0878277 2.70314 0.852863 20
134 1 -2.15973 -4.80122 -3.1969 10
135 1 4.85321 -7.68071 10.6839 10
136 1 8.11732 11.6654 7.82235 21
137 1 10.7226 1.72347 5.51104 16
138 1 -8.73117 9.85877 16.4676 18
139 1 -5.15963 -4.25509 7.91267 12
140 1 9.24487 -0.91726 8.47725 20
141 1 3.46233 -4.88942 5.36062 14
142 1 -3.59469 14.2302 0.353657 17
143 1 10.4996 8.45068 17.3247 11
144 1 -4.50713 8.41148 -1.1822 14
145 1 6.77085 16.447 -1.06692 11
146 1 1.28028 4.84918 13.8983 21
147 1 1.39767 16.9436 18.441 8
148 1 9.64881 11.6776 13.5179 19
149 1 -7.49919 8.22363 10.9034 19
150 1 -1.45661 2.79797 17.297 15
151 1 -4.4907 21.2504 12.4263 5
152 1 1.94678 1.41045 -7.26928 12
153 1 10.7672 1.2898 10.3155 19
154 1 8.33325 7.706 -1.04941 19
155 1 -9.76446 4.89534 13.4503 13
156 1 9.28368 -2.04955 4.41965 19
157 1 -2.66129 22.1403 9.1086 9
158 1 -7.00084 18.0954 11.6726 10
159 1 8.56315 -6.34411 7.45596 12
160 1 1.18851 19.0178 11.268 16
161 1 -10.1105 2.4283 0.326585 13
162 1 -1.14768 18.2155 10.0176 20
163 1 -2.45617 3.62519 2.94495 20
164 1 -10.6957 7.86489 11.6933 17
165 1 -3.43453 0.13425 -0.418472 22
166 1 -3.36552 10.5974 9.04126 24
167 1 13.3659 2.5893 17.9007 8
168 1 7.20578 -0.620932 17.4859 12
169 1 0.938122 -1.86499 17.3087 13
170 1 6.83849 -0.426411 5.55949 19
171 1 -6.72047 -0.156744 4.59803 19
172 1 -8.869 2.38191 10.2114 12
173 1 0.418807 -6.26548 6.91351 10
174 1 15.1749 8.45737 5.44141 13
175 1 -7.76611 10.82 -1.50414 9
176 1 -1.03821 21.2241 11.5542 11
177 1 -3.56105 16.6801 7.8203 19
178 1 -8.48514 12.4386 14.0512 19
179 1 5.14349 0.744168 0.146771 22
180 1 10.8587 4.31081 -2.54412 11
181 1 -5.21637 13.5005 8.86085 19
182 1 -8.60012 -4.35904 4.00277 10
183 1 -2.7676 13.1172 7.13961 21
184 1 -9.71147 17.6744 12.7496 9
185 1 12.8601 -4.34089 10.7019 10
186 1 8.27169 3.69237 14.0998 17
187 1 -6.47163 4.86735 -2.09716 12
188 1 -4.10407 -2.31545 14.9318 14
189 1 0.72168 20.5326 5.0446 13
190 1 -6.55197 14.8727 11.7644 20
191 1 -8.22733 -0.605962 -1.28133 10
192 1 10.5884 -1.89429 11.7653 20
193 1 -8.25392 -2.65919 7.0464 12
194 1 -3.156 18.4434 -1.58024 9
195 1 7.93855 -7.63747 10.3722 13
196 1 -2.12462 6.52863 12.9411 20
197 1 -2.46016 11.3885 12.2952 21
198 1 -0.0578583 -5.46033 4.20626 16
199 1 2.43341 11.7229 14.4303 19
200 1 -9.30435 9.84696 8.5816 15
201 1 1.8866 0.849851 19.5338 7
202 1 0.20241 6.34684 18.2158 15
203 1 0.640937 -3.30467 1.16842 15
204 1 11.8605 -5.40462 6.5936 9
205 1 0.761007 15.0639 1.17395 16
206 1 0.731074 1.26083 12.6068 20
207 1 12.8004 2.99798 14.9866 18
208 1 13.6427 8.12624 12.034 11
209 1 3.09186 6.34318 -5.25941 14
210 1 13.5374 -0.579217 10.8063 14
211 1 -5.94633 9.87868 14.6178 18
212 1 2.55681 15.8939 5.40953 19
213 1 4.6996 -1.38256 16.1784 17
214 1 -2.34889 -4.07119 2.97486 15
215 1 1.34165 13.2814 21.446 7
216 1 -5.44629 11.4952 11.4852 23
217 1 -0.842861 -1.12549 7.43984 16
218 1 -9.02071 4.03347 3.14777 16
219 1 -6.85622 16.6008 7.59227 13
220 1 -9.93106 -2.10398 1.24744 12
221 1 -3.6914 4.27797 12.8249 19
222 1 13.0899 5.76565 16.3586 13
223 1 7.49697 8.91485 6.96123 21
224 1 1.99745 10.2688 2.3548 13
225 1 0.594015 8.85639 4.58841 16
226 1 -2.50734 10.5364 17.0281 13
227 1 -9.70118 1.6864 5.13518 16
228 1 9.97181 16.1738 5.46508 16
229 1 -4.0269 3.50048 0.287487 16
230 1 -0.728509 2.77981 -8.14484 11
231 1 6.80948 21.2497 4.42732 6
232 1 4.44841 10.9228 16.3114 16
233 1 2.0088 11.7011 -3.69804 11
234 1 7.06188 -3.22598 7.1764 21
235 1 1.10779 5.17153 -8.03927 12
236 1 7.00792 16.1511 10.387 12
237 1 13.4821 0.363482 2.71409 10
238 1 -1.52587 8.38264 -1.1605 18
239 1 2.71702 -1.37526 0.523505 15
240 1 -2.72324 0.535333 11.241 16
241 1 -0.673092 5.98462 -2.6257 17
242 1 4.42355 8.49357 -4.03244 15
243 1 -6.8619 -1.8003 13.3933 8
244 1 15.4606 2.74766 3.91392 11
245 1 -1.74677 16.5218 2.49519 20
246 1 8.9789 3.92618 0.998225 15
247 1 6.64422 13.8197 2.16582 21
248 1 5.64366 -1.34507 -4.2775 13
249 1 -0.819591 3.02419 11.4338 18
250 1 3.11782 22.1107 4.18798 8
251 1 -2.22476 11.3643 -0.285427 16
252 1 11.2781 13.2046 6.11355 17
253 1 -0.649951 -1.94937 3.66333 20
254 1 -1.28762 2.13215 -1.78328 20
255 1 13.6593 9.01223 8.48993 18
256 1 14.2643 6.0572 7.7485 16
257 1 -8.49414 11.5587 6.40347 12
258 1 -5.04745 -2.66549 0.576276 16
259 1 2.03533 3.61867 10.695 19
260 1 9.6823 9.59492 0.861891 18
261 1 -2.4477 11.3117 4.31218 21
262 1 3.99299 18.4276 -0.0277202 13
263 1 2.5234 7.47079 21.2373 11
264 1 11.0085 -3.20237 2.25558 9
265 1 8.69804 6.70155 -4.36666 13
266 1 -2.9406 3.17402 9.43775 20
267 1 -4.45117 14.0827 2.88734 16
268 1 -8.21793 6.13941 15.9152 14
269 1 1.57166 19.8543 2.01623 14
270 1 3.04072 -1.51165 -2.14181 18
271 1 6.07931 -4.05566 13.8208 17
272 1 7.53083 4.68133 -1.28894 18
273 1 -11.0515 12.8347 15.9513 12
274 1 10.3584 0.0136344 2.80302 17
275 1 4.07903 14.2446 15.5534 15
276 1 2.29116 5.27155 0.465456 19
277 1 6.59817 12.8181 -1.28626 19
278 1 0.566033 0.624157 -3.50467 19
279 1 -8.15762 1.13153 1.91126 18
280 1 12.0618 12.0198 9.40213 14
281 1 2.51026 -1.36727 -5.94017 14
282 1 5.79346 -3.68878 -1.73037 10
283 1 6.61156 11.6815 5.21392 20
284 1 -8.17921 13.0167 9.45587 17
285 1 12.3933 15.6419 0.421199 8
286 1 7.59253 -2.14813 11.2861 18
287 1 10.8273 11.9312 15.9449 7
288 1 -7.17795 5.33802 6.58606 18
289 1 5.26566 18.6314 4.47083 17
290 1 8.41134 -3.56741 0.718008 10
291 1 6.65902 12.6174 14.7788 19
292 1 5.74461 11.5756 9.9683 19
293 1 -5.03176 20.8719 2.14774 10
294 1 -7.30324 -3.53355 1.3817 14
295 1 -7.17056 14.19 -1.21407 12
296 1 -1.9487 8.36631 -4.5278 12
297 1 -11.7426 4.59757 4.28716 14
298 1 12.9217 3.69891 5.82467 18
299 1 5.46043 3.96383 9.60198 19
300 1 12.7768 10.9417 6.1756 17
301 1 10.7163 3.80145 3.15286 19
302 1 3.91487 17.8003 15.6962 10
303 1 6.65187 9.69447 0.179418 20
304 1 1.0153 13.8581 17.4927 15
305 1 -3.6401 2.8692 19.1236 10
306 1 -6.51315 1.9421 -0.933459 15
307 1 3.22617 -3.83723 15.4406 12
308 1 -4.54177 19.0622 8.77463 14
309 1 7.76024 13.1928 11.2817 20
310 1 5.49801 6.05018 20.3718 11
311 1 -11.0268 10.8371 13.6773 12
312 1 8.34854 12.7301 -3.71202 11
313 1 2.52843 -2.63025 3.32375 20
314 1 5.13049 18.1343 8.1725 10
315 1 0.762531 17.3697 14.8254 14
316 1 0.759423 -5.47838 13.9636 7
317 1 -6.78157 19.2872 14.7077 9
318 1 -9.44344 15.7945 9.9319 12
319 1 -2.49221 5.98895 4.04525 17
320 1 6.83317 16.187 4.10586 17
321 1 2.93735 7.0394 16.5067 20
322 1 3.58782 16.9148 2.54725 19
323 1 -3.17216 0.7931 7.98072 17
324 1 8.5364 14.5055 13.8624 10
325 1 -2.82145 6.7053 9.86164 20
326 1 -8.57468 6.83721 3.31923 15
327 1 6.23731 17.132 1.44718 17
328 1 8.67705 6.1398 18.9612 9
329 1 6.55342 15.7246 16.6597 9
330 1 6.1532 6.45614 -3.74311 18
331 1 3.2713 5.48693 19.0006 16
332 1 13.3339 4.36435 1.91152 17
333 1 5.84576 15.6885 13.3446 14
334 1 -12.1331 3.42765 9.66588 11
335 1 1.07536 -3.00885 5.87506 21
336 1 11.7125 6.86122 5.87403 18
337 1 8.52566 3.26865 9.87365 16
338 1 0.0513426 12.36 13.6205 15
339 1 4.29893 3.66751 -4.78698 14
340 1 5.98318 1.5891 -2.82535 14
341 1 1.59056 14.6647 13.8554 19
342 1 5.68251 3.14366 12.4471 16
343 1 -9.76791 -1.32189 4.77178 13
344 1 -5.02788 12.526 17.1314 12
345 1 8.86963 10.4027 10.2118 20
346 1 -4.47513 17.0923 2.8288 16
347 1 12.7025 10.1744 1.05255 12
348 1 12.9315 15.32 3.81732 12
349 1 2.92745 9.17173 -0.723777 18
350 1 -2.60272 4.90544 16.2082 20
351 1 -2.78099 9.03597 14.2338 18
352 1 -2.36795 5.3373 -6.63221 12
353 1 -7.458 16.1455 3.96629 14
354 1 -2.43653 14.0103 16.6745 16
355 1 -4.39666 8.3464 11.6861 20
356 1 8.94533 14.355 -0.495351 16
357 1 -7.892 11.6844 18.9015 7
358 1 -8.31098 1.15455 13.1768 9
359 1 9.33505 10.9325 5.20344 18
360 1 -5.5486 -3.38724 4.92121 19
361 1 16.4412 0.126389 8.72833 8
362 1 8.07042 0.573273 11.2106 18
363 1 -0.592658 14.5704 11.9659 18
364 1 -9.67493 15.3495 17.9133 9
365 1 9.30006 6.85306 12.0326 18
366 1 11.2057 6.6386 9.18002 16
367 1 4.75534 14.724 8.65941 19
368 1 0.803187 21.0159 9.2893 10
369 1 3.27218 -3.43529 8.31088 20
370 1 -12.5367 1.88906 5.75267 10
371 1 2.43929 10.7781 19.1693 13
372 1 1.58389 13.5435 7.77662 21
373 1 10.2712 0.579583 16.6783 15
374 1 11.23 3.84633 8.38982 20
375 1 -1.56737 14.8551 18.993 12
376 1 4.46057 11.6911 7.42623 17
377 1 -5.5164 -5.82138 2.48082 11
378 1 -6.23235 17.313 -2.11954 9
379 1 -3.90192 16.7959 19.6229 7
380 1 12.9116 11.5819 13.0414 12
381 1 3.96093 11.7666 -0.856478 17
382 1 13.6875 13.0877 2.34798 11
383 1 -5.41171 -2.86682 11.2754 8
384 1 -11.9822 -0.32502 -0.0292687 7
385 1 3.00793 5.89367 -2.10747 18
386 1 -3.87737 -1.70404 2.90986 18
387 1 0.638387 9.74738 16.3254 18
388 1 3.24223 0.404471 9.54799 14
389 1 14.5567 10.5696 3.11376 12
390 1 -3.2701 13.9236 10.6341 22
391 1 13.962 7.49844 2.51662 17
392 1 -13.3466 4.96015 6.51185 10
393 1 8.00226 14.0787 5.44472 20
394 1 1.81536 10.4435 22.5888 6
395 1 -10.3785 4.30818 7.33463 19
396 1 -2.37816 14.9907 4.95374 21
397 1 15.1208 2.96375 7.7815 16
398 1 -2.38732 -3.94736 -0.146433 16
399 1 -2.17501 -2.83228 6.21508 20
400 1 12.6523 2.95677 11.725 15
401 1 -10.9656 13.5356 12.327 12
402 1 9.55995 17.095 0.873156 11
403 1 8.55715 -1.2813 14.1985 18
404 1 1.95939 3.99628 16.7056 15
405 1 -2.92533 1.82374 -5.57126 12
406 1 -1.23654 -0.607017 14.038 18
407 1 10.3961 4.5783 17.0159 16
408 1 -3.04751 -5.67399 5.44553 11
409 1 8.48434 1.23514 0.106492 17
410 1 -8.75891 16.1178 14.9814 15
411 1 -5.04443 6.25013 13.7081 19
412 1 -0.287203 -3.15165 -5.35202 11
413 1 3.94111 14.4864 11.0521 18
414 1 15.0053 5.65093 4.4059 13
415 1 3.97011 -6.21244 13.3262 15
416 1 4.71871 21.0974 1.78583 10
417 1 9.33591 9.74307 -2.98069 14
418 1 -5.09102 11.3752 -0.00500245 17
419 1 5.32351 11.5233 -4.26985 13
420 1 7.57255 9.53254 12.8098 20
421 1 4.21562 15.1497 -0.0240411 15
422 1 -1.60761 16.8449 16.6612 12
423 1 8.14729 1.9756 3.48119 19
424 1 3.67961 -2.04995 10.6831 15
425 1 11.5948 8.36945 14.1852 19
426 1 7.39816 -0.808663 1.83874 18
427 1 -3.56755 9.99313 -2.90311 14
428 1 -0.33676 11.9793 9.91108 22
429 1 2.86686 6.46871 8.65538 20
430 1 4.65237 4.78449 15.134 20
431 1 10.1051 -4.39304 9.35101 19
432 1 6.07577 6.73672 -6.78424 13
433 1 -5.86984 1.67176 9.90729 20
434 1 2.38638 13.5075 2.7791 18
435 1 6.4232 6.18946 17.0643 20
436 1 -1.68913 -0.383322 17.164 15
437 1 13.4696 4.79955 10.0549 14
438 1 -1.39046 14.1932 -1.74454 10
439 2 -3.9258 16.2328 4.72267 17
440 2 -1.04022 20.255 5.23602 13
441 2 5.17046 5.87608 -8.25041 9
442 2 -8.38719 16.1848 16.9265 12
443 2 0.5319 4.77875 1.36887 16
444 2 -0.8856 5.8977 16.6802 22
445 2 -9.21006 8.06585 16.2808 12
446 2 8.39724 12.3909 5.98813 20
447 2 -6.50099 0.90488 2.97185 17
448 2 -6.68562 7.12416 6.10964 19
449 2 -6.84353 13.4815 10.4771 18
450 2 -1.07737 0.798278 15.6533 19
451 2 5.34031 -0.0322454 17.3615 14
452 2 2.73461 4.56504 -3.67269 18
453 2 9.06307 4.88571 12.7533 17
454 2 -3.09282 20.6475 2.32709 10
455 2 8.9519 6.94847 17.242 15
456 2 -11.7189 5.68278 13.3611 9
457 2 -0.378492 -3.28454 10.8085 11
458 2 7.53648 -0.852944 15.536 14
459 2 -10.7186 15.0142 16.3136 11
460 2 -3.18067 22.1456 11.0205 6
461 2 -1.06798 17.6627 14.9577 10
462 2 9.21275 0.845579 4.61105 16
463 2 -2.32171 10.2601 -4.43002 12
464 2 2.50114 -0.504302 -3.65458 17
465 2 13.3793 3.44764 0.0043135 11
466 2 3.23457 17.9444 8.56663 16
467 2 -3.30866 20.6834 8.12438 11
468 2 -8.51914 -0.271694 5.78488 16
469 2 6.53181 -3.7115 11.9655 19
470 2 9.38727 5.98915 8.2338 18
471 2 -13.2021 3.58036 5.03251 10
472 2 5.99716 16.3163 8.78205 15
473 2 8.74284 -5.80805 9.28911 18
474 2 0.23567 15.9337 13.105 17
475 2 4.97144 12.441 15.6197 16
476 2 3.83129 12.5419 -4.35935 9
477 2 -7.86022 18.2243 13.4986 10
478 2 9.94506 8.09745 -3.12505 12
479 2 -3.46572 3.63936 -5.78217 13
480 2 -5.01417 3.68417 17.8095 14
481 2 -0.321873 5.83154 13.0191 18
482 2 5.20494 -2.66779 9.35862 19
483 2 -2.83956 1.25546 17.9236 12
484 2 -3.14558 9.06225 15.9109 16
485 2 -4.74516 10.5989 7.78819 18
486 2 8.349 -0.100952 6.97936 17
487 2 8.42895 5.78347 0.248548 18
488 2 -5.49345 -1.62377 4.31966 19
489 2 2.58472 14.704 9.51238 16
490 2 12.0537 5.44364 -1.36302 14
491 2 6.97754 2.38676 11.1329 16
492 2 -9.09523 -3.24147 5.36004 11
493 2 10.7985 10.6069 9.40961 19
494 2 -2.66338 3.43918 11.4787 17
495 2 11.8574 2.52464 13.2296 16
496 2 -4.3115 1.6372 -0.14621 19
497 2 -3.06251 5.87876 14.7571 18
498 2 -6.63545 -1.11011 11.4978 12
499 2 -5.8627 -2.9254 6.85298 17
500 2 1.22573 17.6146 5.9584 19
501 2 2.05472 5.26156 4.21334 18
502 2 5.04927 21.6569 3.44777 8
503 2 11.3359 17.5805 0.983746 10
504 2 -4.13984 6.3893 18.1109 15
505 2 -5.88667 18.256 4.14998 13
506 2 -8.60837 6.38809 13.9286 20
507 2 -10.2953 14.3812 10.8053 12
508 2 -8.20408 17.001 2.47428 10
509 2 13.0627 13.9854 5.41731 12
510 2 15.0579 4.6278 8.8858 13
511 2 10.9766 7.81523 10.9799 21
512 2 -1.59852 18.8589 -0.539509 10
513 2 -3.51925 9.94125 12.3968 18
514 2 11.9609 8.04062 7.4108 19
515 2 -0.621619 15.7009 3.87209 21
516 2 2.65376 9.29703 4.45293 14
517 2 -1.59561 13.2865 13.5197 15
518 2 3.48557 4.46596 8.98353 19
519 2 5.68786 9.80542 -4.79924 11
520 2 -8.1516 14.2975 14.6984 19
521 2 7.09682 14.5448 -1.19186 18
522 2 1.43973 -0.195239 18.1477 12
523 2 -3.75839 -3.98684 6.73646 13
524 2 6.59763 -0.442817 3.48524 21
525 2 12.0182 -5.89881 11.252 9
526 2 13.8488 11.5309 1.34622 8
527 2 -9.12077 11.6791 -0.647206 7
528 2 2.03196 17.2971 11.3797 18
529 2 -10.3361 -0.993386 2.7373 15
530 2 9.57678 13.2441 -1.85238 12
531 2 2.58033 21.6066 2.30183 9
532 2 -0.663775 14.8369 17.1505 15
533 2 10.0175 -5.3149 6.42677 14
534 2 4.19995 7.42818 19.8219 15
535 2 12.6032 5.53661 8.60374 17
536 2 9.34797 10.4044 12.1617 21
537 2 0.64787 10.3989 -3.43108 14
538 2 5.05654 -2.7624 14.8884 16
539 2 -2.01311 4.1758 18.8564 12
540 2 11.9346 0.85561 17.6728 9
541 2 0.472124 19.2774 3.40982 17
542 2 -10.22 -0.701472 -0.96794 10
543 2 3.56942 -0.224617 5.11623 21
544 2 -3.53152 -3.20962 1.48021 19
545 2 9.14156 13.2313 12.4943 14
546 2 -9.4394 2.05343 3.39842 20
547 2 -10.3573 16.3145 13.6901 12
548 2 12.3503 4.03446 16.9953 11
549 2 10.2174 -2.6991 0.675384 11
550 2 0.992448 2.12146 -1.94685 18
551 2 -2.83873 6.79933 -5.38975 12
552 2 -8.74295 4.14971 1.1061 16
553 2 -9.21015 13.365 18.0925 11
554 2 -0.803212 4.89555 -7.61647 10
555 2 6.68923 -0.150353 -3.09718 12
556 2 -0.327663 -0.748471 1.50671 21
557 2 -5.0077 -2.24735 13.246 11
558 2 3.5848 -2.69445 -5.55069 9
559 2 -1.10208 -5.53075 5.78412 14
560 2 2.58148 15.6567 1.03985 17
561 2 6.9664 10.3396 14.6917 16
562 2 10.0186 18.9741 3.31051 8
563 2 -9.74157 12.1992 12.2096 14
564 2 6.47919 -8.07934 11.7404 11
565 2 0.285707 9.55318 2.74871 15
566 2 -3.21923 12.1189 17.1445 14
567 2 -5.42216 1.20206 5.91088 18
568 2 0.672895 10.8168 14.4094 19
569 2 -5.97036 7.77427 14.9535 20
570 2 0.648066 -1.38562 13.5308 18
571 2 -8.82897 17.0172 11.1832 10
572 2 -1.44552 1.40149 10.1486 18
573 2 2.10381 -0.751202 10.3037 17
574 2 13.8363 1.91623 16.2216 10
575 2 4.44276 8.36016 -1.96049 18
576 2 8.2466 17.0456 5.36941 15
577 2 10.8907 10.7578 0.283245 14
578 2 -3.18955 17.9504 9.80171 18
579 2 -3.88704 10.5835 -1.10815 19
580 2 -7.61575 1.94369 8.6567 16
581 2 -3.24217 0.509999 3.07936 19
582 2 12.605 -2.19443 11.4848 15
583 2 13.2415 4.95548 14.5236 15
584 2 -2.20651 18.0166 7.19763 17
585 2 10.6437 13.8203 9.69626 14
586 2 6.47676 4.14515 14.1467 18
587 2 -0.692407 -1.36718 -4.96641 14
588 2 0.0752747 14.1368 6.89295 21
589 2 -5.71087 14.2118 16.1985 19
590 2 4.69447 0.308654 8.27997 19
591 2 -1.46294 10.9113 8.56418 23
592 2 2.53272 11.1539 -1.91168 16
593 2 -1.3714 2.27966 2.08985 22
594 2 -11.5597 0.697572 4.73778 11
595 2 2.79109 4.72412 14.8437 18
596 2 12.6928 12.1728 7.45857 12
597 2 9.46998 14.7477 6.68303 16
598 2 12.8409 3.00657 7.52151 18
599 2 -11.9952 5.30154 7.66407 15
600 2 -1.80783 10.7766 1.80558 17
601 2 -6.69995 12.4402 -1.57367 11
602 2 4.92614 6.6862 -5.09162 19
603 2 -5.40544 17.5299 7.59296 13
604 2 -9.48083 7.15938 10.3678 16
605 2 1.43538 -5.08667 5.40338 14
606 2 2.90334 -0.846446 2.36471 22
607 2 -8.40313 15.5253 8.2955 13
608 2 3.7465 -1.60325 12.564 19
609 2 -8.20927 13.2985 5.54422 12
610 2 2.66407 -2.45872 6.8003 20
611 2 3.71037 10.2282 17.8765 14
612 2 -0.455597 4.49165 -3.77794 15
613 2 3.32774 11.6511 2.83249 13
614 2 12.8242 14.6852 1.95705 10
615 2 3.53744 13.9567 7.09509 18
616 2 -7.46414 6.64974 18.1494 11
617 2 2.40833 2.00502 9.18555 16
618 2 -0.450492 -2.99785 7.18456 19
619 2 -7.62926 -1.21042 8.11735 16
620 2 -3.49242 1.27581 13.1171 17
621 2 1.98938 18.8333 0.356587 13
622 2 14.4154 4.23259 3.43606 15
623 2 6.16778 10.2998 11.4961 18
624 2 4.75596 1.80556 -4.11769 10
625 2 4.9061 16.9494 -0.695959 14
626 2 1.90378 12.3523 23.0767 4
627 2 -2.75885 -1.30251 7.1351 15
628 2 -2.87615 18.1926 2.93827 17
629 2 -0.610962 10.5682 17.5102 15
630 2 5.87498 -1.78141 6.62702 21
631 2 -5.2078 1.50525 15.258 16
632 2 4.63362 6.59074 17.3363 19
633 2 3.06589 9.12532 1.02825 17
634 2 2.49259 14.1289 4.48165 20
635 2 12.3769 -3.52118 6.32468 13
636 2 7.4901 -3.16375 -0.972325 9
637 2 -0.729375 12.6606 -2.74369 12
638 2 3.73604 1.278 19.5658 8
639 2 4.27134 7.9734 12.3127 18
640 2 11.4538 3.09569 10.0848 15
641 2 -4.71388 3.85762 2.3151 20
642 2 12.3269 1.39051 1.6947 13
643 2 -3.4401 6.41673 11.8945 17
644 2 -1.23829 1.70318 -6.68805 16
645 2 -1.43944 13.052 19.5435 12
646 2 -6.23678 15.3547 -2.49842 9
647 2 8.50796 9.63846 8.41779 22
648 2 7.00258 19.3594 4.42344 11
649 2 8.38951 15.8579 9.0796 11
650 2 6.3645 11.399 7.50456 22
651 2 -11.738 6.39317 10.9525 13
652 2 -6.58088 20.3121 1.52038 8
653 2 -1.85105 3.6849 -0.406038 17
654 2 11.2136 15.6215 4.2898 14
655 2 -7.8193 16.3984 5.84423 12
656 2 -5.15355 -3.55323 9.57567 10
657 2 1.04457 11.7012 20.561 10
658 2 2.58827 -3.80682 -2.67127 12
659 2 1.30413 -0.529003 -6.90406 12
660 2 7.8943 16.947 0.307809 12
661 2 5.08724 16.1536 11.529 15
662 2 -4.48421 1.54275 -4.49192 10
663 2 -4.44085 -0.793899 1.13019 16
664 2 10.2999 4.91734 15.2342 18
665 2 5.01027 7.37749 3.62212 16
666 2 10.01 0.241519 11.7539 23
667 2 3.70359 3.07688 16.0235 17
668 2 2.27943 5.47165 11.5577 17
669 2 -5.77457 -4.86819 0.736908 12
670 2 -0.28246 16.4403 18.8333 10
671 2 5.35599 8.14419 6.51574 20
672 2 -3.34125 8.70905 9.92937 19
673 2 2.56712 -5.47892 14.4937 9
674 2 1.88194 11.6045 6.83429 20
675 2 3.16597 -6.41428 11.4885 11
676 2 4.2894 4.57259 20.4436 11
677 2 6.91547 6.36542 18.9819 14
678 2 -8.19916 9.93389 13.8572 20
679 2 -1.80384 11.7082 6.0709 17
680 2 0.632063 2.49758 17.1537 15
681 2 -8.09273 -2.04099 0.116769 12
682 2 8.42672 12.7145 0.661583 19
683 2 3.02772 4.88082 -9.41415 7
684 2 -4.23968 15.3421 9.54786 19
685 2 -3.09625 16.3972 17.9286 12
686 2 -0.459603 9.31098 6.16254 20
687 2 13.6914 5.79105 5.72909 18
688 2 11.0087 10.4197 5.87646 18
689 2 -1.79924 9.80604 20.2053 9
690 2 -5.43459 11.3367 15.4426 18
691 2 -0.651388 16.3531 0.89463 16
692 2 -6.3406 3.95856 5.75601 17
693 2 -4.46641 7.17344 3.48576 16
694 2 0.614914 13.4691 2.2311 16
695 2 -6.07594 3.83064 -0.550954 13
696 2 -0.179863 -3.86944 3.10696 17
697 2 0.737167 -5.70477 8.71465 11
698 2 9.97836 -8.59676 11.3072 9
699 2 7.77544 7.8944 11.7928 18
700 2 13.4797 6.3322 1.08965 15
701 2 5.65888 -6.06748 9.88552 19
702 2 4.70096 13.0643 9.98346 20
703 2 -11.7 13.3517 14.1347 11
704 2 -7.09092 4.62516 10.8011 21
705 2 15.1086 3.10011 5.9068 14
706 2 9.9565 2.94733 6.90445 18
707 2 -5.06968 13.8622 12.7032 20
708 2 11.2496 7.40668 4.17987 15
709 2 2.30382 16.4319 3.7117 18
710 2 -8.77003 5.79884 7.87285 17
711 2 5.45268 17.1423 3.25114 18
712 2 4.16154 -0.78288 -0.705118 18
713 2 -5.38738 4.13578 13.5901 18
714 2 0.759283 7.12129 19.9646 11
715 2 8.7637 4.30555 18.0261 11
716 2 8.50276 10.8052 -4.09489 12
717 2 -5.89762 10.1408 2.24191 12
718 2 7.48446 -0.27808 -0.10551 16
719 2 -7.13447 17.8889 -0.389128 11
720 2 1.5225 -0.454565 -0.957145 21
721 2 -10.9178 8.92994 13.2345 13
722 2 -1.91979 4.18917 7.72098 20
723 2 7.1015 -5.13785 6.69112 12
724 2 -6.5649 -4.69949 3.73893 10
725 2 -3.43962 -5.40987 3.54862 14
726 2 5.69526 2.34741 -0.788181 18
727 2 -3.33862 8.01874 -2.98295 15
728 2 7.63753 11.9968 9.89412 16
729 2 -3.66786 -3.19244 -4.09024 10
730 2 3.46582 10.3623 14.4574 19
731 2 -6.16446 17.7729 15.7131 10
732 2 -8.67399 14.6596 0.0307091 8
733 2 -3.56034 -0.749444 -2.44574 16
734 2 -0.90831 -2.22327 16.9907 13
735 2 -8.8831 11.8976 8.1203 12
736 2 13.9166 9.93457 5.03881 16
737 2 -1.73798 13.2783 0.303755 19
738 2 9.75165 10.6943 3.29764 18
739 2 -1.32463 1.24266 -3.8927 17
740 2 -0.337321 -3.50587 -0.489003 15
741 2 -6.9474 9.08603 -0.681914 14
742 2 9.72263 10.3753 16.7563 12
743 2 2.57104 6.52159 -7.22799 12
744 2 -10.2079 3.41715 9.60107 15
745 2 16.5918 2.19348 9.01304 8
746 2 6.1025 9.48079 17.3559 14
747 2 15.3221 7.67258 3.80414 10
748 2 6.65361 12.1899 3.31225 18
749 2 -2.43155 15.1191 7.27086 21
750 2 14.4455 3.7029 11.6304 13
751 2 -7.97646 5.9897 -1.59682 10
752 2 5.57961 15.1088 1.47768 19
753 2 1.26289 13.32 12.3136 17
754 2 -4.17869 -3.42199 -1.02968 14
755 2 5.9854 2.72868 18.7145 14
756 2 -5.60108 17.1124 18.659 7
757 2 12.2657 0.341231 9.88895 17
758 2 -1.56704 0.65896 -0.639101 18
759 2 -3.31466 15.3813 15.4907 17
760 2 5.53501 1.4241 13.6119 16
761 2 -2.44762 15.497 12.0245 16
762 2 2.48063 20.8944 5.45434 11
763 2 -0.97398 6.38738 -0.663443 14
764 2 0.13762 16.8573 8.94102 19
765 2 -4.04004 8.11448 0.623876 17
766 2 1.36507 3.02735 -8.06888 12
767 2 -6.55943 11.6555 12.9967 17
768 2 15.2046 0.120532 7.2752 12
769 2 -3.99626 15.6038 1.76306 14
770 2 -6.08757 8.10316 12.3925 20
771 2 -11.2661 1.19499 0.939067 11
772 2 1.56368 11.8723 9.38136 21
773 2 -0.422135 -4.10512 -3.55019 10
774 2 -5.25974 7.02765 -2.27404 13
775 2 5.52732 5.1224 -1.89554 19
776 2 2.42917 7.46164 -3.6868 15
777 2 -0.778337 21.6681 9.33257 11
778 2 -7.88781 10.0799 10.3131 19
779 2 3.81518 6.22274 7.05214 20
780 2 -7.51454 2.00202 11.5247 14
781 2 13.0908 9.14134 2.51126 17
782 2 4.13421 4.0026 -6.5546 16
783 2 -2.1565 -2.51834 14.1073 13
784 2 -7.84954 9.80046 7.18292 17
785 2 -2.29207 7.32285 19.8332 9
786 2 6.49271 12.8284 -3.28703 12
787 2 8.59149 -6.40931 12.3725 14
788 2 12.4798 12.0994 11.3142 13
789 2 12.7541 -0.833064 15.0468 10
790 2 2.05331 5.78411 17.6276 18
791 2 4.03393 13.8315 -1.2234 14
792 2 2.06271 13.6195 15.7692 15
793 2 -8.84448 3.29534 13.4895 13
794 2 2.36697 -2.05796 15.903 15
795 2 -0.837014 19.0488 11.8442 17
796 2 -4.19938 17.2938 -2.77711 9
797 2 -10.1576 5.72191 3.72688 13
798 2 -0.0665275 19.427 8.64522 20
799 2 9.52929 -3.15947 10.9862 20
800 2 6.89336 14.835 14.8928 11
801 2 -5.11291 0.105009 8.8329 18
802 2 -12.8047 6.16123 5.17148 7
803 2 -10.3236 8.34691 8.1691 16
804 2 2.17158 9.47396 21.1088 12
805 2 -0.149795 -4.59702 15.1401 10
806 2 4.36581 -4.69511 7.11921 16
807 2 11.6589 7.24644 16.0486 13
808 2 7.40533 -2.73962 2.01525 13
809 2 -6.56764 12.5112 17.9296 10
810 2 -6.7485 0.0716428 -2.21025 11
811 2 -4.77207 4.86768 8.20802 17
812 2 9.28023 1.51129 15.1903 17
813 2 -2.76066 3.3233 15.5133 18
814 2 12.1681 -4.66148 8.87379 11
815 2 8.36254 14.8408 3.22746 20
816 2 4.70823 15.8685 15.731 13
817 2 8.72625 9.93174 -1.14502 18
818 2 11.877 2.94053 4.3095 18
819 2 6.21365 14.8981 5.65419 21
820 2 7.61837 6.77122 -2.34523 19
821 2 1.56816 21.1132 11.1257 7
822 2 14.5491 7.08037 13.0552 10
823 2 -1.14414 -0.865639 12.2076 15
824 2 5.90334 -5.91776 13.6496 14
825 2 -6.54124 5.0603 16.0989 17
826 2 10.7052 -2.0814 8.67596 20
827 2 9.00149 -8.25513 8.75656 7
828 2 12.7104 -0.572502 6.37144 13
829 2 7.54538 -0.905074 9.74035 20
830 2 14.2613 1.37013 4.04447 12
831 2 -5.68402 16.9358 11.6378 13
832 2 -0.530766 11.1287 11.6627 19
833 2 10.2517 7.7647 0.923689 19
834 2 1.2576 1.86386 -5.46511 20
835 2 4.94116 -2.62351 -3.15129 12
836 2 5.85143 11.1556 -0.632742 19
837 2 -0.748264 7.76533 -3.04541 16
838 2 2.38441 17.2513 16.9467 10
839 2 -3.91734 5.27057 5.12303 21
840 2 14.6809 12.4167 3.85919 10
841 2 -8.23012 1.67335 -0.0221975 14
842 2 0.077213 0.563497 7.61403 19
843 2 4.86471 19.5316 1.04133 11
844 2 14.8915 8.18396 7.26269 13
845 2 10.4832 15.2577 0.684226 14
846 2 10.2937 -1.70434 13.6962 13
847 2 -4.4051 2.34205 8.59941 18
848 2 8.31097 0.883081 18.0048 11
849 2 15.2134 -0.796383 10.032 8
850 2 8.82588 1.36778 9.46174 16
851 2 7.38063 14.9693 12.0106 14
852 2 -8.5592 9.96997 18.4705 8
853 2 -9.2813 8.20319 4.75983 12
854 2 12.8433 9.53432 13.1291 13
855 2 9.70349 -4.01302 3.5741 13
856 2 1.53298 1.7332 1.07125 21
857 2 3.63389 14.8424 13.4851 18
858 2 8.60611 0.598738 2.07501 19
859 2 -1.29967 13.7968 9.81626 20
860 2 -3.99554 -1.03745 16.1935 15
861 2 7.13008 -1.05795 12.8161 17
862 2 -5.72004 20.3393 13.6179 6
863 2 7.69979 7.53681 -5.87728 13
864 2 3.3307 6.5536 -0.115502 15
865 2 -10.1584 11.4176 15.4042 17
866 2 2.09311 0.742944 14.1483 16
867 2 -6.14503 4.5953 -3.86074 10
868 2 11.5093 11.7407 13.9654 12
869 2 13.2411 9.22658 10.5312 13
870 2 -3.15916 14.6052 -1.51003 12
871 2 4.43686 17.9697 5.96555 15
872 2 -2.63004 -5.41968 -1.58853 11
873 2 -4.0386 19.7535 -0.69942 10
874 2 2.42628 18.1714 14.2335 12
875 2 8.45256 -2.86484 5.93117 18
876 2 9.62662 2.94402 -0.435673 17
877 1 -11.1021 0.866316 2.77411 12
878 1 4.15938 7.81327 1.82736 17
879 1 0.530189 5.58499 3.00982 19
880 1 2.38099 1.73602 -0.787379 22
881 1 0.791008 -4.04139 -2.05563 13
882 1 1.90591 2.81906 5.23784 18
883 1 0.240398 7.81857 7.95728 16
884 1 -4.76983 0.964138 1.99952 19
885 2 -7.96557 7.28015 1.53142 14
886 2 -7.23592 4.82552 3.1475 17
887 2 -2.62671 -2.84185 4.32346 19
888 2 -10.884 2.70495 6.40816 13
889 2 -4.39393 12.8212 1.35397 18