ITEM: TIMESTEP
22000
ITEM: NUMBER OF ATOMS
500
ITEM: BOX BOUNDS pp pp pp
-30.0 30.0
-30.0 30.0
-30.0 30.0
ITEM: ATOMS id type x y z Coordination
1 1 2.59244 -4.48559 13.9442 19
2 1 -5.77417 0.800492 15.272 14
3 1 -10.0905 -5.01977 9.3544 19
4 1 -2.2379 -1.83061 -4.7729 11
5 1 -13.1073 -1.1585 7.29086 11
6 1 0.680339 -2.39655 -3.43042 17
7 1 2.86237 -11.7739 0.135807 12
8 1 5.89007 -1.70585 10.3819 16
9 1 -2.72843 1.76714 13.7019 17
10 1 -11.7141 -7.06811 7.23087 11
11 1 5.31454 -0.816873 -0.864107 11
12 1 3.77183 -2.28128 15.5835 16
13 1 -7.80851 -7.03336 9.10828 21
14 1 -7.5155 -9.39686 0.74453 13
15 1 7.03599 -6.34211 0.778203 13
16 1 4.33987 -9.37986 7.82453 15
17 1 -2.75273 5.19186 11.1733 18
18 1 1.41249 5.88057 5.19531 13
19 1 1.42153 -7.13392 -2.77758 16
20 1 -4.65877 -2.17675 14.1527 20
21 1 6.15204 -7.83963 10.6794 11
22 1 -5.87148 3.39558 9.5087 19
23 1 0.729156 3.33098 0.265429 15
24 1 8.9094 0.80753 2.75808 10
25 1 -3.04754 3.8214 1.68157 17
26 1 -6.42519 -0.0451988 -1.40213 13
27 1 -1.1873 7.50139 5.6198 11
28 1 -10.7419 3.40015 10.5825 10
29 1 -0.286945 2.39061 15.4296 12
30 1 -4.5258 -3.44169 -2.23369 16
31 1 -7.33049 -10.394 13.9594 13
32 1 2.99338 -13.4312 3.09759 11
33 1 -11.0342 -5.35175 12.2943 10
34 1 -9.10027 -2.65796 2.94858 17
35 1 -1.19646 -12.521 8.0711 14
36 1 2.91691 -2.37453 -1.39789 18
37 1 -7.96738 -10.2294 3.9085 16
38 1 -1.63633 0.837284 -2.92002 16
39 1 -3.25131 6.70277 3.14145 10
40 1 -12.1001 -2.72759 9.94693 14
41 1 -0.0562652 6.58744 11.5198 13
42 1 0.00166246 -5.14256 15.4099 17
43 1 0.542266 -11.7832 1.9714 15
44 1 3.44029 -1.46133 -4.07238 8
45 1 3.46955 -5.47697 16.6928 9
46 1 -1.60343 -8.10386 17.5063 8
47 1 4.11616 4.36923 5.44642 14
48 1 -8.32714 -10.0495 10.7526 18
49 1 -7.59939 -12.7291 8.637 13
50 1 -7.03435 -4.23251 14.1369 20
51 1 -10.0188 -5.0966 15.2577 10
52 1 1.50563 -11.3588 7.68848 17
53 1 -10.9995 -7.91039 10.1774 12
54 1 -5.29142 6.48286 9.45163 12
55 1 -8.04857 0.927411 10.2432 19
56 1 -5.0833 3.78226 13.6753 11
57 1 -8.96043 -7.09667 2.65959 13
58 1 -10.2997 0.231146 2.39688 12
59 1 -8.03827 -7.54658 -0.943438 8
60 1 6.06272 -5.14707 15.3463 11
61 1 -4.95134 -8.95344 16.3525 12
62 1 -4.90602 -6.28497 -0.240689 19
63 1 -10.2623 -4.11806 6.13646 19
64 1 -4.55522 -11.2762 8.78226 15
65 1 -7.58867 2.03156 13.1438 16
66 1 0.0930785 -10.0571 -1.73988 10
67 1 -2.15981 7.48983 8.77058 12
68 1 -11.8614 -2.10682 4.25005 12
69 1 -10.5476 0.583298 5.67801 17
70 1 -2.71459 -8.96103 -3.96388 6
71 1 2.24013 -10.5578 13.6177 10
72 1 -5.07322 2.6147 -0.25717 13
73 1 -8.58539 -0.972392 14.682 12
74 1 -10.8591 0.379765 9.14381 18
75 1 1.97926 -8.9557 0.608153 19
76 1 -4.30343 -11.7988 14.4513 11
77 1 0.656348 -11.1526 4.77191 21
78 1 6.92332 0.777155 5.4658 22
79 1 3.62288 -4.76121 -3.31675 12
80 1 1.19521 -7.80764 15.2135 15
81 1 -5.1806 -11.3919 2.5078 10
82 1 -7.0801 -7.42796 12.4377 18
83 1 5.28801 0.244414 15.9671 8
84 1 9.63413 0.808505 6.47592 8
85 1 0.71423 -0.0927957 -0.739573 21
86 1 -2.13555 3.2662 -1.63419 14
87 1 5.85856 3.34556 10.8094 9
88 1 0.206495 0.285621 -5.3093 9
89 1 0.421963 -11.6365 11.0565 15
90 1 5.88659 -7.20943 7.63229 15
91 1 -6.3365 -12.2049 5.69408 13
92 1 -8.01968 1.26995 0.603769 11
93 1 8.61882 -1.6674 5.62261 19
94 1 -5.6272 3.12335 3.43471 16
95 1 3.64028 -8.66281 -2.92295 11
96 1 -7.67398 -7.18394 15.5402 13
97 1 0.619352 -14.1013 5.54365 10
98 1 3.64605 -6.51791 -0.703982 23
99 1 3.0254 -9.88186 10.2975 17
100 1 -4.43954 -8.59685 1.27509 18
101 1 -2.57112 -4.35802 17.1617 14
102 1 -4.277 -1.79547 17.1853 10
103 1 6.23333 -4.23052 -1.30748 12
104 1 -11.921 2.64768 7.46661 10
105 1 3.41752 4.29071 8.59739 16
106 1 7.28256 -4.40858 3.21999 13
107 1 -1.39961 -2.26042 -1.12008 16
108 1 -10.8867 0.23754 12.1133 13
109 1 -2.09748 -7.40388 15.1965 17
110 1 -8.79685 -1.5248 -0.134938 12
111 1 4.24913 -7.6903 14.0595 15
112 1 -2.305 -0.671779 15.113 16
113 1 -0.734427 -9.43038 12.7345 19
114 1 8.60401 -1.64889 8.85427 11
115 1 6.35285 -2.34416 13.5861 12
116 1 -2.00165 -7.84939 -0.913626 17
117 1 1.64596 0.111269 15.9343 14
118 1 -4.47851 1.53313 -4.1941 7
119 1 -4.664 -9.97555 5.28552 22
120 1 6.69909 3.55431 7.14867 12
121 1 -7.78337 6.1851 7.4637 11
122 1 6.48206 3.50325 3.72184 13
123 1 -0.704233 -2.04386 17.2777 11
124 1 -1.25591 -4.48105 -2.53526 14
125 1 3.08864 -9.71541 3.14448 20
126 1 3.10576 4.62996 11.9632 12
127 1 6.87476 -7.53143 -1.89857 10
128 1 1.8631 -7.31264 12.2124 21
129 1 -7.2116 -1.39142 12.136 18
130 1 6.48434 -4.42714 9.399 13
131 1 -0.76981 6.24998 2.20293 12
132 1 6.277 1.17378 1.93518 15
133 1 -4.73073 -5.70199 15.8225 15
134 1 -4.2952 -8.91219 13.47 18
135 1 -8.83487 3.34137 5.31668 13
136 1 2.9108 1.86526 13.8089 16
137 1 -9.97825 -8.27577 13.6737 12
138 1 7.05746 -3.99659 6.72282 16
139 1 -7.40337 -9.98631 7.49385 26
140 1 7.0898 1.18112 8.52538 14
141 1 5.41608 -9.42141 4.91156 12
142 1 1.02532 6.73044 8.37454 12
143 1 -10.5203 -9.96191 5.5027 10
144 1 1.2533 2.59322 -2.49885 12
145 1 -7.30907 -4.71882 0.7636 17
146 1 0.538598 -5.96606 -0.202357 17
147 1 -1.95791 -12.523 4.67886 12
148 1 -0.850731 -12.2812 13.8588 11
149 1 6.94923 -6.89055 4.40927 12
150 1 -13.183 -3.93938 6.54575 10
151 1 -5.77228 -1.72923 -3.8015 7
152 1 -9.53507 -12.7096 5.72687 10
153 1 5.80431 -5.42863 12.1748 14
154 1 -5.2535 -9.26046 -1.76433 11
155 1 -7.62812 4.68492 11.637 11
156 1 -9.63973 -2.60022 12.3409 17
157 1 5.84268 0.402773 12.7203 13
158 1 7.24507 -1.8399 1.06712 11
159 1 -2.67429 -13.6895 12.197 7
160 1 3.22816 -4.06226 0.914718 19
161 1 3.45674 1.58499 0.423053 17
162 1 0.460203 3.79811 13.0399 18
163 1 3.28908 4.49976 2.50045 13
164 1 5.70802 -1.78333 3.81551 22
165 1 4.97506 -9.11652 0.272336 13
166 1 -2.09962 4.99474 13.8416 9
167 1 -4.25181 6.64108 6.06605 15
168 1 -5.73247 -12.2052 11.4003 12
169 1 3.82153 -12.2879 5.6745 12
170 1 -10.2629 -10.6053 8.73922 12
171 1 -9.11103 3.71384 8.67081 18
172 2 -10.317 -4.05937 13.5347 13
173 2 9.38134 -0.774397 7.33625 11
174 2 -10.0387 -3.67546 8.06429 19
175 2 -0.955183 -13.1674 12.1067 10
176 2 -0.663801 -4.11057 17.1059 12
177 2 -3.6266 4.47189 12.8148 13
178 2 1.86062 -14.1604 4.35515 10
179 2 -7.4676 -2.79882 0.346743 14
180 2 3.36433 -6.82209 -3.23344 11
181 2 -6.20125 5.16653 10.4709 15
182 2 5.0747 -7.34739 12.4724 13
183 2 6.20203 2.7682 8.91973 14
184 2 -1.49797 6.21629 12.5189 11
185 2 2.24234 3.48074 13.3204 14
186 2 5.38488 0.696501 0.505191 16
187 2 4.0347 -4.61831 -1.31132 17
188 2 -8.39979 0.157765 -1.01247 10
189 2 0.145585 -10.6005 14.1409 12
190 2 -11.2623 -4.20719 10.6997 15
191 2 3.49727 -9.93175 1.19417 15
192 2 -7.77397 -12.7377 6.79683 12
193 2 1.25032 5.16923 11.5255 14
194 2 -2.72051 -5.66083 15.6874 17
195 2 -7.41029 -11.3715 12.1449 14
196 2 0.552584 -12.2022 9.07932 13
197 2 -7.93395 -8.55623 13.9017 16
198 2 -5.97762 -12.556 9.44393 13
199 2 -8.43491 -10.8436 8.88143 16
200 2 -4.83831 4.27101 7.92599 20
201 2 8.89334 0.168476 4.81198 12
202 2 2.04432 1.48905 -0.951017 14
203 2 5.58811 0.492461 6.90042 20
204 2 -2.46734 7.01972 6.83273 16
205 2 -6.86635 3.83434 12.9598 13
206 2 -1.5063 7.2861 3.69899 12
207 2 3.04614 5.22995 4.11608 11
208 2 -7.73549 0.771161 14.8002 10
209 2 -3.29273 -8.19503 17.0661 11
210 2 6.96086 -5.85442 -1.3932 9
211 2 1.08071 -10.7702 0.213091 11
212 2 -4.35973 -9.42174 -3.35408 6
213 2 -9.21611 -11.2121 4.72833 11
214 2 6.28222 -8.03223 5.75457 13
215 2 5.69707 1.41682 11.1183 13
216 2 -2.92293 -4.23229 -1.59331 14
217 2 -1.2192 -2.87796 -3.50133 15
218 2 -8.28769 -7.84338 1.0726 14
219 2 5.10809 -8.32164 -1.89746 14
220 2 4.10413 -1.02805 -2.26146 16
221 2 -7.36042 -8.35302 10.4096 18
222 2 0.0638265 -5.83958 -2.22229 17
223 2 -1.60868 -9.07915 -2.42276 10
224 2 0.728406 -2.3112 -1.22196 18
225 2 -10.1396 -9.46526 10.2597 12
226 2 -7.77995 2.31916 8.69723 22
227 2 -10.0514 -6.95373 15.0921 8
228 2 -13.1953 -2.13423 5.71464 10
229 2 2.23092 -8.61621 13.9101 15
230 2 5.71225 0.199052 4.03984 23
231 2 -0.334525 7.14126 9.61924 12
232 2 -4.42255 -3.65251 16.9031 11
233 2 -10.1356 1.73592 10.8772 16
234 2 -9.8497 -1.66575 1.40877 12
235 2 6.61978 -2.76893 2.51039 17
236 2 -10.1303 -6.85565 8.66804 18
237 2 -1.17302 -0.0626957 -1.11628 20
238 2 2.50371 -3.33793 -3.36935 12
239 2 -10.9395 3.3278 8.78468 10
240 2 4.67225 -7.26819 0.957886 17
241 2 -0.805982 -13.0235 6.31558 13
242 2 -6.13338 6.69292 6.93236 9
243 2 2.82804 -10.4303 8.47699 16
244 2 -1.56932 1.0474 15.1509 15
245 2 -3.47605 5.52527 4.71186 18
246 2 -6.81494 -5.55834 12.4371 18
247 2 -0.241342 3.44524 -1.58942 13
248 2 6.28199 -6.06759 2.69161 12
249 2 0.387339 -1.503 15.8986 15
250 2 8.07292 1.94172 6.88814 13
251 2 1.23112 1.48573 14.8417 13
252 2 -10.5471 -11.4823 6.91576 10
253 2 -1.04249 3.62168 14.1888 14
254 2 1.92385 -5.91512 15.3771 15
255 2 -1.56744 -0.108135 -4.5896 11
256 2 -2.47972 -1.30942 17.0224 11
257 2 2.61011 -7.92928 10.559 20
258 2 -9.9814 -2.41927 4.78751 18
259 2 -7.3162 2.76889 4.37942 14
260 2 -6.06953 0.954307 0.372875 17
261 2 -5.1501 -10.2003 14.8956 13
262 2 4.18782 4.00183 10.3564 12
263 2 -6.93601 -6.17146 -0.643549 16
264 2 7.92744 -3.45077 8.6151 12
265 2 -7.85276 4.23633 6.92905 13
266 2 6.49773 -6.01435 10.5394 11
267 2 -4.31816 -12.976 12.9269 10
268 2 -7.89943 -8.03931 4.12632 21
269 2 -2.56881 5.74168 1.7081 10
270 2 -9.18699 4.49454 10.789 12
271 2 -2.40436 -12.0653 14.7914 10
272 2 -11.6949 0.419891 7.51482 16
273 2 -4.60517 -0.892676 15.505 15
274 2 -11.4229 -0.31084 4.01124 13
275 2 4.02499 3.52008 7.08801 16
276 2 -4.62434 1.61049 13.8393 16
277 2 -4.06509 -8.14687 -0.618045 15
278 2 -3.19561 2.15368 -2.91061 11
279 2 -5.91772 -11.0496 4.31048 14
280 2 5.32101 -3.64221 10.6352 17
281 2 8.14885 -0.56579 1.90365 13
282 2 2.05811 -10.7592 11.6928 15
283 2 3.13092 -2.26421 0.532743 17
284 2 2.58087 0.664233 12.2271 18
285 2 -10.019 -0.705612 13.3472 12
286 2 -8.52371 -5.15698 2.50549 16
287 2 -11.5202 -1.01772 10.5585 15
288 2 -10.915 -7.14241 11.9972 12
289 2 -0.838731 -11.6124 3.36548 17
290 2 2.3436 -2.34804 14.0842 20
291 2 -5.53142 0.223322 -3.15059 11
292 2 -0.217559 4.23426 1.66054 17
293 2 1.86222 -9.35183 -2.48557 12
294 2 5.72634 -1.54529 15.1431 12
295 2 3.48601 -0.249887 16.4021 9
296 2 -2.9532 2.78653 -0.0885139 17
297 2 -6.75578 -9.15179 -0.968521 10
298 2 -3.37865 6.53752 9.92716 13
299 2 -5.00966 3.21104 1.7119 15
300 2 -8.4784 0.677241 2.27727 17
301 2 -7.55688 0.578242 11.932 19
302 2 2.74453 3.31869 1.10457 14
303 2 7.02125 -8.22081 0.121864 8
304 2 -10.2923 2.58495 6.29477 13
305 2 0.483474 1.55474 -3.81149 12
306 2 4.17308 -4.27004 15.4377 13
307 2 -7.81439 -2.45788 13.8349 17
308 2 -8.10994 -5.34176 15.1534 13
309 2 4.76305 -6.63248 15.4532 11
310 2 -12.8556 -2.82582 8.25642 13
311 2 -4.78541 -4.32634 14.1507 19
312 2 -0.753621 -10.1663 10.8968 18
313 2 6.8769 -0.889976 9.1161 19
314 2 2.01214 -12.7221 1.63215 12
315 2 -4.69929 2.94089 5.20519 20
316 2 -5.5625 -2.03057 -1.78039 13
317 2 -5.92037 -7.39491 16.0821 15
318 2 -0.40065 -7.05466 16.0624 12
319 2 1.6271 -0.958371 -4.54235 11
320 2 5.2205 -1.45726 12.1305 17
321 2 6.50262 -4.23002 13.5968 12
322 2 1.97375 -7.36634 -0.501854 20
323 2 4.89857 -10.7635 6.06418 12
324 2 7.66325 2.27239 3.02356 12
325 2 -10.705 -8.19357 6.17951 12
326 2 -11.8738 -5.32026 6.62201 13
327 2 5.55971 -8.6434 9.15915 13
328 2 4.58565 3.15746 3.40181 16
329 2 6.77438 -2.2365 5.71483 19
330 2 6.09381 4.38553 5.43266 11
331 2 7.37398 -5.10244 5.00664 12
332 2 1.8932 -12.2991 6.06372 15
333 2 -3.48039 -10.4008 1.95614 12
334 2 0.499785 7.05915 6.46735 11
335 2 1.55592 4.89458 8.2954 16
336 2 -4.5808 -10.2179 10.5295 17
337 2 -2.41276 -8.55752 13.3839 19
338 2 4.83274 1.32186 14.2346 14
339 2 6.46894 -2.38594 -0.884228 11
340 2 -4.2657 -2.5512 -4.63823 8
341 2 -6.4986 -10.1418 2.00557 14
342 2 3.54274 -11.6575 3.7894 14
343 1 -7.5188 -4.56843 4.19639 20
344 1 -8.66527 -7.20068 6.00871 21
345 1 -2.03942 -10.1423 3.45387 17
346 1 -2.82424 -4.56099 0.444466 20
347 1 -4.58716 -5.10732 2.57352 20
348 1 -1.80963 -6.76736 2.08827 20
349 1 -5.9676 -7.28309 3.80517 21
350 1 -1.86377 -4.28716 4.02265 22
351 1 -4.66608 -4.29591 5.71473 22
352 1 -2.87059 -7.29634 5.19235 23
353 2 -8.624 -5.21918 5.6722 25
354 2 -2.90149 -11.0057 5.09499 19
355 2 -5.13004 -4.54785 0.888109 18
356 2 -1.64729 -6.40395 0.186691 19
357 2 -4.89101 -6.9406 1.93999 21
358 2 -2.601 -4.87795 2.51006 20
359 2 -5.8186 -5.11989 4.19842 21
360 2 -1.89217 -8.02457 3.48933 21
361 2 -4.82549 -8.00169 5.50486 21
362 2 -2.74503 -5.23976 5.49397 23
363 1 -7.61028 -4.49081 7.35095 20
364 1 -7.29392 -4.25465 10.6891 20
365 1 -1.91061 -10.1104 6.71721 22
366 1 -2.51651 -9.70992 9.99303 18
367 1 -5.64876 -7.14086 7.01343 24
368 1 -2.00042 -4.32788 7.16928 21
369 1 -4.75774 -5.24388 8.84391 18
370 1 -2.78881 -7.20812 8.43565 21
371 1 -5.24465 -8.35857 10.4847 19
372 1 -2.06658 -4.20024 10.5857 23
373 1 -4.69488 -5.09943 12.3444 22
374 1 -2.04346 -6.93111 11.7535 21
375 1 -2.23034 -4.078 13.8361 21
376 2 -7.45236 -7.98047 7.2438 19
377 2 -8.02685 -5.14384 9.18392 21
378 2 -5.65254 -10.8517 7.12355 17
379 2 -2.58198 -11.0692 8.35542 16
380 2 -5.54545 -5.31277 6.92828 23
381 2 -1.9964 -8.12689 6.61184 21
382 2 -4.9326 -7.45206 8.85355 20
383 2 -2.78929 -5.1484 8.90552 22
384 2 -5.06951 -4.24192 10.7282 18
385 2 -2.17157 -7.88911 9.9438 22
386 2 -5.30372 -7.92977 12.264 17
387 2 -2.67244 -5.23591 12.3086 20
388 1 -7.41571 0.841532 3.84781 20
389 1 -8.1077 -1.54707 5.27535 23
390 1 -5.53553 -2.72992 0.190699 19
391 1 -1.95064 1.04754 0.303227 20
392 1 -4.96371 0.127854 1.76813 18
393 1 -2.72328 -1.56908 1.9024 20
394 1 -5.57203 -1.89206 3.78856 21
395 1 -1.87951 1.07149 3.62357 23
396 1 -4.80154 0.548291 5.43593 20
397 1 -2.86663 -1.57958 5.3391 21
398 1 -2.89201 3.56188 5.0825 21
399 2 -7.25848 -2.5977 3.75023 21
400 2 -8.47855 0.374758 5.62705 20
401 2 -1.81242 -2.53068 0.60538 21
402 2 -4.83424 -1.91446 1.87566 19
403 2 -2.97054 0.360137 1.77204 18
404 2 -5.37558 0.262069 3.67414 21
405 2 -1.75782 -2.1044 3.82246 20
406 2 -4.69663 -2.13789 5.6291 21
407 2 -2.65436 0.5241 5.3787 20
408 2 -2.14403 2.93755 3.42716 21
409 1 -7.75571 0.773196 7.33708 23
410 1 -9.03605 -2.19054 8.81242 21
411 1 -5.72369 -1.4682 7.39354 19
412 1 -1.66028 1.2566 6.9756 23
413 1 -4.48937 0.864094 8.69584 19
414 1 -2.13956 -1.21906 8.8845 21
415 1 -4.42846 -2.37838 10.7972 21
416 1 -1.85549 1.76417 10.5231 21
417 1 -4.72498 0.719963 12.0924 22
418 1 -2.00685 -1.33532 12.1386 24
419 1 -5.98766 3.84875 6.37531 19
420 1 -2.83653 4.23073 8.27398 21
421 2 -7.37941 -2.59382 7.35148 21
422 2 -8.71181 -0.233545 8.82445 20
423 2 -8.39351 -2.51458 10.9064 23
424 2 -5.80229 0.39291 6.92757 22
425 2 -1.9948 -2.17125 7.02533 20
426 2 -4.36427 -0.977797 9.1539 17
427 2 -2.3898 0.685172 8.85216 20
428 2 -5.22438 1.70662 10.2139 19
429 2 -2.43368 -2.3548 10.5357 20
430 2 -5.30348 -1.43204 12.4596 22
431 2 -2.54016 0.585116 12.2432 20
432 2 -2.48645 -2.22235 13.7046 23
433 2 -2.07344 3.29224 6.85876 21
434 2 -1.77311 3.8885 9.94335 19
435 1 1.15705 -5.10547 2.70056 20
436 1 4.22314 -6.70825 2.68575 21
437 1 0.242144 -8.20406 3.40796 19
438 1 4.03221 -4.43627 4.55268 23
439 1 0.883692 -5.24335 5.65732 21
440 1 2.78414 -7.27089 5.30461 21
441 2 1.1191 -10.0292 3.19399 20
442 2 1.20551 -4.35605 0.661619 20
443 2 0.341582 -6.82992 2.05784 18
444 2 3.3885 -4.94231 2.74545 19
445 2 0.1462 -4.14025 3.95118 20
446 2 3.96655 -8.33655 4.07082 19
447 2 0.751729 -7.19446 4.99684 20
448 2 2.81853 -5.27679 5.67594 18
449 1 0.00381553 -8.03676 6.66129 19
450 1 3.44052 -4.4484 7.31634 21
451 1 0.491301 -5.40166 8.93333 21
452 1 2.8604 -7.14982 8.79573 20
453 1 0.13381 -8.53883 10.034 20
454 1 3.29808 -4.07002 10.6571 22
455 1 0.532461 -5.13628 12.1124 19
456 2 0.153721 -9.99371 6.36574 21
457 2 -0.0010466 -4.50488 7.179 20
458 2 3.83068 -7.64882 7.01492 18
459 2 0.664391 -7.58495 8.43509 23
460 2 2.42121 -5.0265 8.91206 19
461 2 -0.107335 -4.32687 10.4655 22
462 2 -0.139433 -7.45227 11.8572 22
463 2 2.53108 -5.30842 12.1196 21
464 2 0.00496004 -4.1686 13.6286 22
465 2 5.38691 -5.02374 7.53677 20
466 1 0.377243 -2.47364 0.642349 20
467 1 1.01323 0.597401 2.44007 20
468 1 2.95019 -1.52051 2.38785 21
469 1 0.199316 -2.21138 3.78853 21
470 1 3.88834 1.25433 3.78479 22
471 1 1.12749 0.731274 5.64073 21
472 1 2.78767 -1.38724 5.57131 21
473 1 -0.345565 3.48357 3.38105 21
474 2 0.11823 1.20596 0.865458 21
475 2 0.910687 -1.28243 2.29442 22
476 2 2.89682 0.542475 2.29645 21
477 2 -0.0130874 1.45857 4.24565 21
478 2 3.85539 -2.27426 4.12168 20
479 2 0.693543 -1.29631 5.4909 22
480 2 3.13738 0.529278 5.48511 22
481 2 0.448383 4.35412 4.94376 18
482 1 -0.0249103 -2.34386 6.91577 20
483 1 3.94722 1.58392 7.13721 21
484 1 0.828971 0.858627 8.91631 20
485 1 3.16139 -1.47664 8.72497 21
486 1 0.403862 -2.3861 10.3663 20
487 1 3.57057 1.49679 10.6811 21
488 1 0.709526 0.720586 12.1605 24
489 1 3.03779 -1.40466 12.2644 22
490 1 0.490725 -2.26283 14.016 19
491 1 0.20443 3.63566 6.6518 18
492 1 0.263631 4.1512 9.98716 20
493 1 5.61616 -1.35492 6.9258 22
494 2 0.589927 1.87131 7.35042 18
495 2 3.79141 -2.25211 7.01618 20
496 2 0.182152 -1.2302 8.80478 20
497 2 2.94319 0.543328 8.87402 22
498 2 0.17014 2.13083 10.9391 19
499 2 2.50671 -2.10473 10.3851 20
500 2 -5.53892e-04 -1.0706 11.7736 19
