ITEM: TIMESTEP
177000
ITEM: NUMBER OF ATOMS
1000
ITEM: BOX BOUNDS pp pp pp
-30.0 30.0
-30.0 30.0
-30.0 30.0
ITEM: ATOMS id type x y z Coordination
1 1 -12.392 -6.57387 0.244707 11
2 1 -10.1191 1.71504 -8.72283 13
3 1 -11.6897 -1.77882 -5.85902 11
4 1 -11.9468 -1.37893 -2.80306 15
5 1 -11.2641 6.33175 -9.03932 8
6 1 -13.2772 -3.95133 -0.898213 11
7 1 -7.07536 -6.14125 -10.2541 14
8 1 -4.48854 -7.89923 -10.2906 15
9 1 -7.57952 0.791263 -10.8292 15
10 1 -12.0867 -6.92361 -2.83435 7
11 1 -4.89392 -6.55757 -6.81025 21
12 1 -7.19716 -9.52819 -5.49092 11
13 1 -8.79756 -2.72277 -11.1351 10
14 1 -8.79196 -6.48593 -3.38991 13
15 1 -6.21751 -7.22513 -3.13105 17
16 1 -9.04027 -6.72835 -0.632426 18
17 1 -5.34736 -12.0946 0.941025 10
18 1 0.626922 2.01506 -12.527 15
19 1 -5.77177 -3.32404 -11.7885 14
20 1 -3.81599 -2.79783 -13.6169 10
21 1 -8.83727 -7.45566 -7.3306 8
22 1 -5.99677 -1.1147 -9.3032 23
23 1 -8.79843 -1.64754 -8.05084 18
24 1 -6.38541 -4.07468 -7.76349 17
25 1 -10.3255 -4.17895 -5.36666 13
26 1 -6.29455 -1.30797 -6.02207 22
27 1 -8.85616 -0.968271 -4.59318 24
28 1 -6.84483 -4.14106 -4.70352 20
29 1 -9.05328 -3.56096 -2.60973 19
30 1 -5.983 -1.31723 -2.78882 25
31 1 -8.8628 -1.35058 -1.18797 24
32 1 -6.93423 -4.47856 -1.10785 20
33 1 -0.555651 -9.38752 -7.65503 18
34 1 -2.93818 -11.7551 -1.23332 14
35 1 0.0553235 -12.373 -2.82339 12
36 1 2.83878 -6.80631 -7.587 22
37 1 0.910626 -8.87113 -13.7978 5
38 1 0.0288444 -10.3865 -10.9722 10
39 1 -6.14559 -10.0771 -7.95213 11
40 1 1.67372 -3.74929 -12.9609 15
41 1 -2.21134 -7.08184 -8.56443 22
42 1 -9.89582 -5.12509 -9.10736 10
43 1 -5.3056 -11.0663 -4.39303 9
44 1 0.354549 -7.69439 -5.65555 20
45 1 -2.42615 -6.42324 -4.71691 22
46 1 -3.64895 -9.01445 -2.656 20
47 1 -7.0359 -9.72312 -1.41481 14
48 1 0.0732713 -6.30436 -2.65108 24
49 1 -2.7937 -6.63954 -1.05917 19
50 1 -0.69607 -9.18066 -0.955177 24
51 1 -4.70388 -6.26432 -12.6524 10
52 1 -0.940879 -4.7377 -10.6849 20
53 1 -3.01797 -2.08494 -10.3314 18
54 1 -3.22713 -10.5792 -9.64742 11
55 1 -3.81472 -4.7865 -8.98876 18
56 1 -0.317478 -1.65887 -8.8537 22
57 1 -3.57287 -1.06037 -7.42088 20
58 1 -0.653051 -4.62231 -7.40442 22
59 1 -3.72911 -3.58855 -6.00834 25
60 1 -0.635868 -1.12218 -5.73268 24
61 1 -3.54004 -1.15861 -4.28476 24
62 1 -1.03501 -3.57585 -4.22354 21
63 1 -3.98368 -4.70015 -2.82067 20
64 1 -0.180625 -1.1974 -2.84696 22
65 1 -3.12535 -1.45896 -0.989152 24
66 1 -0.87531 -3.80288 -0.757961 23
67 2 -7.67943 -9.03849 -7.25744 8
68 2 -9.30642 2.15819 -10.2612 14
69 2 -11.809 -3.36492 -4.452 13
70 2 -9.62887 3.01167 -7.15722 18
71 2 -13.1022 -5.97329 -1.5135 6
72 2 -12.7349 -2.00602 -1.15547 13
73 2 -7.29264 -4.28011 -10.807 16
74 2 -3.37787 -7.64695 -12.0883 11
75 2 -8.56414 -6.38236 -8.93936 10
76 2 -10.6423 -6.92657 -1.45842 14
77 2 -7.84325 -8.00249 -4.44091 13
78 2 -8.91787 -4.73194 -1.19073 18
79 2 -5.75298 -9.1526 -2.9554 14
80 2 -5.54731 -10.6631 -0.163217 16
81 2 -7.45372 -7.20708 -1.70466 15
82 2 -4.72746 -4.44359 -13.1055 9
83 2 -5.30141 -5.92434 -8.48086 16
84 2 -9.71316 -3.33625 -9.34474 11
85 2 -0.365983 -9.42864 -12.5614 9
86 2 -5.68485 -6.98925 -11.3559 11
87 2 -12.1968 -0.179148 -5.36378 12
88 2 -6.93971 -2.06353 -7.79859 21
89 2 -5.68342 -4.86168 -6.26967 19
90 2 -9.77773 -1.38063 -6.344 16
91 2 -7.29452 -2.22424 -4.30794 22
92 2 -9.92591 -1.64798 -3.00676 20
93 2 -5.84344 -5.05859 -3.22974 22
94 2 -10.5953 -6.88455 1.07101 15
95 2 -7.05408 -2.33916 -1.13914 22
96 2 0.890863 -9.62263 -9.2298 17
97 2 2.33691 -6.58561 -9.49628 19
98 2 -0.0936388 -9.81903 -5.74011 16
99 2 -1.14601 -12.197 -1.11114 9
100 2 2.05296 -7.29248 -13.4772 8
101 2 -1.65053 -10.589 -10.3687 13
102 2 -0.494988 -7.25735 -7.53857 19
103 2 -5.45047 -10.3207 -6.00554 12
104 2 -5.14676 -9.41093 -9.34777 14
105 2 -3.33153 -7.55949 -6.011 20
106 2 -0.915361 -6.79045 -10.4232 21
107 2 -3.68002 -10.2003 -3.97918 12
108 2 -0.691551 -7.28493 -4.17305 21
109 2 -3.09661 -6.97776 -2.8944 18
110 2 0.112596 -10.2545 -2.90583 21
111 2 -2.55943 -9.68839 -1.25266 19
112 2 -0.714131 -7.28856 -0.732942 23
113 2 -8.72088 -4.76576 -4.11648 17
114 2 -4.58951 -1.70727 -12.19 17
115 2 2.43329 -3.56808 -10.9184 21
116 2 -2.97267 -3.97845 -10.463 19
117 2 -1.14425 -1.34669 -10.988 20
118 2 -3.45554 -2.8257 -8.47312 19
119 2 0.0112423 -3.65505 -9.35829 21
120 2 -2.39058 -5.39112 -7.69468 18
121 2 -1.61161 -0.897344 -7.61644 23
122 2 -4.6159 -1.87521 -5.81996 20
123 2 -0.0779354 -3.87263 -5.90723 20
124 2 -2.77515 -4.47383 -4.48633 20
125 2 -1.66733 -1.88054 -4.1954 21
126 2 -4.17547 -1.72655 -2.66847 21
127 2 0.069716 -4.08273 -2.49975 20
128 2 -2.64016 -4.66424 -1.2788 23
129 2 -1.18316 -1.60525 -1.28277 20
130 1 -9.82897 -8.80491 0.735334 12
131 1 -12.5616 -6.55259 4.80999 10
132 1 -12.3641 -1.21599 0.414166 16
133 1 -11.4685 4.32472 -3.63781 18
134 1 -12.9913 -3.99191 2.40579 14
135 1 -11.7336 -1.2549 3.42525 18
136 1 -12.3147 -3.62818 5.98933 16
137 1 -12.9275 0.145432 6.20481 10
138 1 -3.57369 -9.46251 -6.39081 17
139 1 -5.73983 -11.362 4.66158 11
140 1 -7.27098 -9.44002 2.15346 17
141 1 -5.97268 -6.84764 0.758441 23
142 1 -9.40278 -6.94077 2.6824 20
143 1 -9.11862 -9.62553 4.3458 13
144 1 -9.51574 -8.94208 8.00717 11
145 1 -6.41469 -6.33168 3.89851 19
146 1 -11.4923 -6.40129 8.33997 11
147 1 -7.52205 -8.82861 6.08065 16
148 1 -3.86899 -9.15257 7.04121 19
149 1 -9.09968 -6.21859 10.1914 11
150 1 -10.0519 -6.72105 6.02605 17
151 1 -6.76777 -9.31687 9.77679 11
152 1 -10.0828 -3.96948 0.662363 22
153 1 -6.25551 -1.50971 0.50175 22
154 1 -8.93546 -1.51097 2.74976 19
155 1 -6.9446 -3.8897 2.07404 24
156 1 -10.1742 -4.43027 3.97753 20
157 1 -5.89651 -0.913447 3.88984 23
158 1 -9.10791 -1.82317 5.80922 19
159 1 -7.10363 -3.82107 5.75379 21
160 1 -9.55976 -4.3236 7.72772 16
161 1 -6.12544 -1.06658 7.21787 25
162 1 -8.4174 -1.24723 9.16022 13
163 1 -6.63624 -4.10511 9.07541 17
164 1 -5.55363 -0.49037 10.689 15
165 1 -3.87764 -3.62871 10.6566 16
166 1 0.381047 -11.5918 0.0324144 17
167 1 -3.02734 -11.6261 2.51382 15
168 1 3.61201 -11.6389 3.01958 14
169 1 -1.75045 -12.1616 5.63294 13
170 1 0.879604 -13.4206 4.3961 7
171 1 -4.1677 -9.28166 0.238637 20
172 1 0.150466 -6.45364 0.816568 23
173 1 -2.80919 -6.47197 2.09601 24
174 1 -1.32644 -9.12987 2.24042 23
175 1 -4.42839 -8.60089 3.3847 20
176 1 -0.00504458 -6.3999 4.00014 24
177 1 -2.97958 -6.43528 5.68248 26
178 1 -0.904354 -9.37189 5.31964 21
179 1 -2.96458 -7.19179 9.06636 16
180 1 0.179167 -6.33497 8.01152 16
181 1 -5.63372 -6.41288 7.13099 20
182 1 1.6841 -11.5742 7.25384 10
183 1 1.3749 -6.55319 12.4888 11
184 1 -3.61742 -9.34613 11.0566 8
185 1 -4.05844 -4.12471 0.614903 20
186 1 -0.289437 -1.05119 0.587495 23
187 1 -3.06698 -1.07763 2.14034 24
188 1 -1.15018 -3.79182 2.17607 22
189 1 -4.03742 -4.15818 3.92771 21
190 1 -0.513191 -1.11971 4.13698 22
191 1 -3.35689 -1.2473 5.54886 22
192 1 -1.11081 -4.01111 5.64613 21
193 1 -4.01569 -3.84991 7.16307 22
194 1 -0.582441 -0.896887 7.58145 21
195 1 -3.11116 -1.30258 8.61335 21
196 1 -1.05004 -3.66937 8.82812 18
197 1 -5.91682 -6.68146 10.8884 13
198 1 0.301177 -0.55755 10.3462 22
199 1 -2.54428 -0.716336 11.6412 17
200 1 -2.3367 -6.06335 12.2924 11
201 1 -0.180968 -0.987173 13.988 14
202 2 -12.1676 -4.49081 0.588314 15
203 2 -12.8901 -2.05162 2.21296 14
204 2 -12.547 3.36157 2.4674 17
205 2 -12.5432 -1.63009 5.66569 10
206 2 -11.3805 -4.65433 7.41635 15
207 2 -12.4101 -4.60203 4.04918 15
208 2 -9.30279 -9.11679 2.58901 11
209 2 -7.37449 -10.2148 4.30728 12
210 2 -8.22608 -9.34096 0.0227884 13
211 2 -6.44464 -7.70918 2.31609 22
212 2 -10.8155 -6.99067 4.17673 12
213 2 -4.74824 -9.5964 5.32736 19
214 2 -11.9442 -7.15042 6.67237 11
215 2 -6.21352 -7.28141 5.39527 19
216 2 -9.85134 -7.27361 8.88965 13
217 2 -9.37019 -8.57643 6.12662 13
218 2 -3.23489 -9.39982 9.13438 11
219 2 -9.74432 -2.09482 0.705091 21
220 2 -5.97345 -4.61943 0.594377 22
221 2 -9.14086 -4.97316 2.25561 21
222 2 -6.93532 -1.87828 2.249 20
223 2 -9.86531 -2.56964 4.0883 21
224 2 -6.09179 -4.39272 3.782 20
225 2 -8.98227 -4.6518 5.35072 19
226 2 -7.33607 -1.69892 5.03679 19
227 2 -8.96706 -2.61947 7.63487 16
228 2 -5.96223 -4.43531 7.14659 21
229 2 -8.52599 -4.61447 9.3667 14
230 2 -6.39199 -1.4745 9.0845 18
231 2 -8.59001 0.745305 9.17148 14
232 2 -7.42253 -7.48966 9.96897 11
233 2 -3.92162 -1.43841 10.4056 17
234 2 -3.40369 -12.0131 0.653362 13
235 2 -3.24321 -9.55997 2.13581 20
236 2 -2.08603 -10.1306 6.49555 14
237 2 6.03347 -9.87746 7.4744 9
238 2 -4.08414 -7.22104 0.485839 19
239 2 -0.151979 -9.95159 0.893615 21
240 2 -5.04804 -11.5405 2.8036 12
241 2 -1.0105 -6.94135 2.2707 23
242 2 -3.72083 -6.75873 3.86614 21
243 2 0.292662 -9.40029 3.62282 18
244 2 -1.51105 -11.9976 3.74795 14
245 2 -1.05722 -7.43309 5.09219 21
246 2 -4.01417 -7.18895 7.40363 18
247 2 0.298169 -12.5968 5.92561 11
248 2 -5.49241 -4.75515 10.6944 17
249 2 -0.918931 -7.73252 8.29358 17
250 2 -7.5446 -9.47968 8.14116 12
251 2 -2.98138 -7.3935 10.8838 14
252 2 -3.66498 -2.31268 0.653201 22
253 2 0.194928 -4.49027 0.710661 24
254 2 -2.95159 -4.74855 2.21839 24
255 2 -1.09917 -1.77328 2.36661 23
256 2 -4.22628 -1.62658 4.06939 21
257 2 -0.159017 -4.30476 3.94551 21
258 2 -3.04471 -4.56166 5.53297 22
259 2 -1.17524 -1.91398 5.94146 21
260 2 -4.38641 -1.70283 7.12212 21
261 2 -0.116136 -4.49291 7.39455 20
262 2 -2.75928 -4.34746 8.74942 22
263 2 -0.901699 -1.77208 9.19727 21
264 2 -0.519346 -0.898357 12.0108 19
265 2 -0.398253 -5.94075 12.5566 9
266 2 -2.36023 -4.07881 11.9406 13
267 2 -2.66624 1.213 12.0578 17
268 2 0.505531 8.22454 12.0934 12
269 2 -5.3382 -8.3783 10.7766 10
270 1 -5.59277 3.2712 -12.1693 13
271 1 -10.5225 6.70464 -6.33472 15
272 1 -12.6438 1.33022 -4.35761 13
273 1 -12.5836 3.91584 -6.82378 11
274 1 -12.4183 1.80171 -1.07833 18
275 1 -9.29326 9.4311 2.53186 16
276 1 -1.80615 -8.17885 -11.6483 14
277 1 -4.7116 0.279633 -12.1894 16
278 1 -9.03321 4.00501 -10.7588 12
279 1 -6.30412 4.41054 -9.38864 21
280 1 -8.79815 4.76015 -7.39275 21
281 1 -6.74401 1.54232 -7.70591 25
282 1 -9.92423 0.741004 -6.35767 15
283 1 -6.23831 4.15421 -6.1538 24
284 1 -9.26282 3.24423 -4.71137 18
285 1 -6.86061 1.29213 -4.22671 21
286 1 -10.3317 1.26681 -2.4727 23
287 1 -6.37974 3.97969 -2.68644 22
288 1 -9.30739 4.19715 -0.880205 25
289 1 -7.12553 1.29779 -0.989575 23
290 1 -7.48252 7.15395 -8.08332 17
291 1 -5.93026 6.74322 -11.5151 9
292 1 -10.1315 6.89058 -2.48687 19
293 1 -9.98312 9.12984 -4.43097 8
294 1 -7.81359 6.79655 -4.34352 25
295 1 -8.80252 9.77635 -1.01533 16
296 1 -6.92193 9.4354 -5.98495 14
297 1 -7.53624 11.8887 2.07096 12
298 1 -7.16894 6.97425 -1.34501 22
299 1 -6.2764 9.44065 -2.85425 17
300 1 -1.52108 0.460837 -10.8239 21
301 1 -4.76202 7.29071 -9.15645 19
302 1 0.0712042 5.30443 -12.3504 11
303 1 -3.18558 5.43526 -11.4301 15
304 1 1.31804 1.14038 -9.33727 20
305 1 -4.10017 1.77061 -9.46548 20
306 1 -0.511519 3.77916 -9.86262 18
307 1 -3.18251 4.17217 -7.82674 23
308 1 -1.14787 1.26847 -7.54548 22
309 1 -4.14697 1.29159 -5.97244 23
310 1 -0.572449 4.26998 -6.23106 25
311 1 -3.17619 4.02143 -4.66806 22
312 1 -1.36856 1.35109 -4.26723 23
313 1 -4.33886 1.54647 -2.7426 22
314 1 -0.132117 3.97813 -2.86087 21
315 1 -3.23859 4.38154 -1.30527 21
316 1 -1.61013 1.76657 -1.01011 23
317 1 5.22416 6.08414 -13.9903 7
318 1 -4.76701 10.1608 -7.5455 11
319 1 3.54401 10.0054 -8.42261 10
320 1 -2.1568 7.22396 -7.14294 18
321 1 2.7656 3.97532 -11.2238 19
322 1 -4.73378 6.8579 -6.03064 23
323 1 -1.92636 9.94735 -7.53117 13
324 1 -3.60256 9.35228 -4.31012 22
325 1 -1.59543 6.37025 -4.39562 19
326 1 -4.59012 6.44632 -3.13733 22
327 1 -0.704038 10.0342 -2.93978 17
328 1 -3.52864 9.07763 -1.31796 20
329 1 -1.28191 6.64624 -1.32536 19
330 1 -5.16512 12.2382 -4.56577 11
331 1 -1.61532 12.0382 -5.21488 15
332 1 -5.29745 12.2158 -0.975562 15
333 1 -2.5716 12.4777 -2.4 15
334 2 -7.6747 -1.13245 -10.2965 15
335 2 -11.7107 5.87879 -2.18859 13
336 2 -11.7774 0.598367 0.514928 19
337 2 -10.0106 5.30848 -9.82906 13
338 2 -11.8312 6.10727 0.651151 16
339 2 -11.963 5.7596 -7.26172 11
340 2 -9.84641 9.36514 0.578636 15
341 2 -1.01947 0.995636 -12.9199 13
342 2 -6.22912 1.31193 -12.1525 11
343 2 -6.50935 6.41764 -9.63103 17
344 2 -7.06305 3.83716 -11.0979 14
345 2 -5.99512 0.894721 -9.52321 20
346 2 -10.7311 -5.0189 -7.19987 10
347 2 -7.06727 3.54509 -7.76798 22
348 2 -8.80105 0.459078 -7.94343 17
349 2 -5.91134 0.678347 -5.91559 23
350 2 -8.85852 1.1937 -4.61148 22
351 2 -7.23022 3.27831 -4.72773 21
352 2 -10.0517 3.3381 -2.71005 20
353 2 -5.96575 0.590124 -2.51065 24
354 2 -8.7578 0.536411 -1.01237 23
355 2 -7.43289 3.43214 -1.15007 23
356 2 -1.19128 8.17033 -8.96292 15
357 2 -9.81986 4.92889 -5.56999 19
358 2 -7.21624 8.60062 -4.24763 19
359 2 -6.70773 6.07169 -6.17244 21
360 2 -6.10852 8.5382 -7.45412 14
361 2 -10.1505 7.33051 -4.54891 12
362 2 -9.67437 8.71833 -2.44873 13
363 2 -6.59827 6.15888 -3.05187 20
364 2 -9.12042 6.13929 -1.04232 24
365 2 -6.85523 8.94857 -1.13263 21
366 2 -5.75645 11.4846 -2.78849 17
367 2 -4.7611 5.25272 -12.3961 10
368 2 -2.31039 -1.68378 -13.6982 13
369 2 -3.42002 0.451178 -10.8475 18
370 2 1.06443 6.7461 -11.2326 13
371 2 -4.60607 3.64562 -9.33525 18
372 2 -0.737228 1.84791 -9.51402 21
373 2 -3.2082 1.08975 -7.71627 22
374 2 -1.17038 4.1155 -7.9772 22
375 2 -3.86935 3.35372 -6.30737 22
376 2 -0.400103 0.916617 -5.77429 22
377 2 -3.41355 0.830979 -4.32286 24
378 2 -1.23182 3.59975 -4.50388 25
379 2 -4.2291 3.67398 -2.94865 22
380 2 -0.42398 0.716258 -2.67448 23
381 2 -3.32968 1.09815 -1.06121 23
382 2 -1.48658 3.71255 -0.955986 20
383 2 -1.32965 5.31132 -11.1285 14
384 2 -3.64513 7.23697 -11.0616 11
385 2 5.14618 9.52478 -7.41159 12
386 2 -3.46707 12.7164 -4.37907 11
387 2 1.41188 4.1045 -12.7296 14
388 2 -3.75577 6.12708 -7.6788 23
389 2 -3.33488 10.0163 -8.76321 11
390 2 -9.56911 6.95907 -7.87535 12
391 2 -0.931146 6.5324 -6.08874 20
392 2 -3.41325 6.10727 -4.90271 21
393 2 -3.27198 8.61662 -6.20453 20
394 2 -4.69074 8.41385 -2.77021 20
395 2 -0.386363 5.77681 -2.89087 22
396 2 -3.59528 6.05952 -1.33389 22
397 2 -1.66039 8.49446 -1.84887 18
398 2 -0.776178 11.2252 -6.77217 11
399 2 -5.17735 10.4606 -5.56866 16
400 2 -2.14715 10.556 -3.84218 19
401 2 -3.4806 12.5763 -0.874423 13
402 1 -11.5408 4.42581 1.20916 20
403 1 -12.3976 1.57045 2.08165 16
404 1 -11.7897 3.86391 4.43289 17
405 1 -11.8836 3.35449 7.73272 11
406 1 -13.0203 5.98935 5.97993 9
407 1 -12.8451 5.50436 -0.759268 13
408 1 -9.97426 0.944685 0.604294 23
409 1 -6.45519 3.94787 0.685929 22
410 1 -9.02792 3.58598 2.07612 20
411 1 -7.12948 1.13953 2.12383 20
412 1 -9.98519 1.26607 4.41974 21
413 1 -6.11657 4.11798 3.88771 24
414 1 -9.05135 3.96476 5.8088 21
415 1 -7.16123 1.5136 5.50859 21
416 1 -9.9408 1.38034 7.91306 15
417 1 -6.16547 3.90407 7.61526 19
418 1 -8.61059 4.47122 9.00762 15
419 1 -6.85846 1.83086 8.94133 19
420 1 -2.94658 5.06977 12.6215 14
421 1 -4.51124 8.10217 11.7818 9
422 1 -5.8551 4.9899 10.9048 15
423 1 -10.0786 7.44 0.391464 20
424 1 -5.95458 9.66161 0.439812 22
425 1 -8.29613 11.0352 5.34274 11
426 1 -7.39309 6.71753 2.18217 22
427 1 -10.9363 8.44601 5.38518 11
428 1 -3.19432 9.41078 5.58043 19
429 1 -12.1722 6.90313 2.36256 14
430 1 -7.11462 6.46231 5.80499 20
431 1 -9.67322 6.67709 7.68797 14
432 1 -9.78317 6.27175 3.97152 21
433 1 -6.75748 6.8736 9.08201 17
434 1 -4.42965 1.50433 0.518439 22
435 1 -0.143089 4.30622 0.424614 21
436 1 -3.31476 4.0041 2.0705 22
437 1 -1.21278 1.53024 2.1328 21
438 1 -4.312 1.22042 3.69967 21
439 1 -0.226695 4.23525 3.81504 22
440 1 -2.9751 3.88853 5.57972 21
441 1 -1.06439 1.44309 5.63587 23
442 1 -4.07882 1.20326 7.24916 21
443 1 -0.22668 4.12327 7.39515 22
444 1 -3.32686 4.44131 8.83515 23
445 1 -1.35639 1.5131 9.08809 23
446 1 -0.839031 1.93539 12.5607 20
447 1 -0.72338 3.94017 10.9695 20
448 1 -0.914542 7.04116 12.7912 14
449 1 -0.295527 4.96938 14.5707 11
450 1 -4.12239 2.31985 11.1389 17
451 1 -2.48231 10.6043 9.81371 10
452 1 -4.21373 6.75919 0.430795 22
453 1 -0.0409197 9.35896 0.483029 19
454 1 -2.8952 9.27856 2.29861 20
455 1 -1.19947 6.89484 1.88018 20
456 1 -4.0435 6.79538 3.77399 22
457 1 -0.114179 9.46252 3.84664 19
458 1 -0.404614 9.95539 7.35058 21
459 1 -1.40543 6.63842 5.3648 20
460 1 -4.37349 6.44325 6.64296 20
461 1 1.45197 6.90645 6.65292 20
462 1 -6.29828 9.44787 6.93726 16
463 1 -0.986879 6.47828 8.87512 17
464 1 -3.42574 7.97771 8.97351 17
465 1 1.11866 12.1562 5.86576 11
466 1 1.89048 7.68905 13.4468 10
467 1 -6.28236 9.29326 3.79861 23
468 1 -1.89461 11.9032 0.270587 15
469 1 -2.17905 11.6744 3.88186 14
470 1 -5.41418 11.9711 5.55137 11
471 1 -4.45331 12.4016 1.66124 13
472 2 -12.6436 3.67322 -0.532861 15
473 2 -12.1112 3.03349 -5.07259 13
474 2 -12.0472 0.732693 -2.64095 16
475 2 -11.7545 0.615284 3.64777 17
476 2 -12.7265 4.01539 6.19635 11
477 2 -11.8565 1.19922 7.48728 10
478 2 -8.70975 11.3843 3.33599 11
479 2 -12.3531 5.72092 3.90096 14
480 2 -10.097 3.02086 0.645316 23
481 2 -6.00108 0.289894 0.647679 24
482 2 -9.03791 0.400388 2.22724 24
483 2 -7.19179 3.14654 2.52411 24
484 2 -9.85776 3.26174 4.2288 21
485 2 -6.25385 0.877557 4.03752 22
486 2 -9.13861 0.790695 6.21924 19
487 2 -7.21928 3.79514 6.26342 21
488 2 -11.372 6.64886 6.80767 14
489 2 -6.17086 0.761575 7.09388 24
490 2 -10.1426 3.42803 7.81273 17
491 2 -7.03202 3.8297 9.5026 17
492 2 -5.56871 1.3291 10.4715 15
493 2 0.527788 6.74364 14.1649 11
494 2 -7.03181 8.79541 2.01998 20
495 2 -6.40197 6.13625 0.463767 22
496 2 -9.18464 5.69598 2.16677 22
497 2 -10.8765 8.07601 3.29604 14
498 2 -6.67925 8.37302 5.5125 19
499 2 -6.11261 6.09216 3.85249 22
500 2 -8.88152 6.29485 5.75075 21
501 2 -9.45754 9.4111 5.55927 14
502 2 -6.11216 6.00292 7.58927 22
503 2 -8.56476 6.51478 9.14288 12
504 2 -4.68003 8.49746 7.28813 21
505 2 -5.65847 6.86875 10.5947 14
506 2 -6.26127 11.9009 0.796764 14
507 2 -6.12244 11.6835 3.90836 15
508 2 -4.56034 3.67022 0.586625 24
509 2 -0.278457 0.938182 0.466884 22
510 2 -3.11937 0.885876 2.00003 22
511 2 -1.25699 3.66745 2.16757 21
512 2 -4.19039 3.56431 3.69688 20
513 2 -0.324642 0.848258 4.05192 23
514 2 -3.52261 0.854801 5.44449 23
515 2 -0.908071 3.39865 5.69771 21
516 2 1.97546 8.77218 7.37494 19
517 2 -0.27612 0.912645 7.34632 21
518 2 -2.86906 0.488364 8.43915 24
519 2 -4.10772 3.44673 7.23559 21
520 2 -1.43699 3.67429 8.76207 21
521 2 -0.0394904 1.862 10.8318 22
522 2 -3.97394 4.09962 11.5109 14
523 2 -2.99744 6.35474 8.18387 18
524 2 -1.21789 4.34943 12.7077 16
525 2 -4.10766 8.95486 0.604581 22
526 2 -0.168584 6.31634 0.284803 22
527 2 -3.02414 6.7705 1.95492 19
528 2 -0.956898 9.15595 2.09516 20
529 2 -4.33697 9.17289 3.92292 22
530 2 -0.258372 6.17175 3.59626 22
531 2 -3.28779 5.76639 5.12418 22
532 2 -1.40162 8.50018 5.20671 21
533 2 -0.667488 11.4611 4.90442 12
534 2 -0.301822 6.16784 7.11692 22
535 2 -3.66327 11.4226 5.23764 14
536 2 -0.714971 5.6664 10.6216 23
537 2 1.62517 10.156 10.2116 11
538 2 -1.03856 11.5195 10.311 8
539 2 2.67419 11.673 1.75006 15
540 2 -0.101508 11.2294 0.394685 18
541 2 -2.74066 11.4874 1.86152 17
542 2 -6.7427 11.0739 6.49208 10
543 2 -1.54097 8.81219 8.87133 18
544 1 1.75704 -10.3915 -5.62678 13
545 1 4.89375 -11.2215 -3.14934 12
546 1 3.14492 -12.324 -0.679617 14
547 1 3.92491 -7.47057 -10.4884 15
548 1 2.77231 -9.8968 -8.89802 13
549 1 5.96373 -6.4177 -8.87186 17
550 1 0.654074 -7.42732 -9.57999 21
551 1 4.98239 -9.48131 -7.97099 11
552 1 -1.09764 -9.30793 -4.16527 19
553 1 5.62434 -6.14384 -5.9172 25
554 1 3.09028 -6.54372 -4.44939 19
555 1 4.48113 -9.0375 -5.0125 18
556 1 2.11941 -9.6676 -2.70568 26
557 1 5.67235 -6.09518 -2.64776 24
558 1 2.60526 -7.06988 -1.15132 21
559 1 4.71983 -8.9999 -0.922311 23
560 1 -0.832032 -2.47186 -12.6634 17
561 1 2.97116 -0.61962 -13.7185 13
562 1 1.42141 -1.83496 -10.8632 18
563 1 4.48746 -4.27549 -11.3164 18
564 1 1.99965 -4.63615 -9.49572 19
565 1 5.93321 -1.54773 -9.50994 20
566 1 2.75768 -0.968314 -7.46517 19
567 1 4.42928 -3.59683 -7.76547 23
568 1 2.04105 -3.79977 -5.82622 21
569 1 5.58237 -1.08296 -6.58153 20
570 1 2.84008 -0.790796 -4.51921 24
571 1 4.89283 -3.76689 -4.58788 22
572 1 1.85824 -3.78114 -2.83404 21
573 1 5.76747 -0.959264 -3.08712 21
574 1 2.81071 -1.04355 -1.21901 21
575 1 4.67143 -3.45421 -1.23926 23
576 1 8.80906 -6.15685 -7.16894 15
577 1 7.79419 -8.71227 -5.7726 14
578 1 12.8147 -5.63388 -4.76573 11
579 1 8.72495 -6.16915 -4.50392 22
580 1 7.72545 -8.53673 -2.68769 19
581 1 11.8194 -6.45499 -2.33662 20
582 1 8.59192 -6.36328 -0.955187 21
583 1 10.5544 -8.65013 -4.39452 12
584 1 3.50951 -6.11111 -13.4554 10
585 1 7.31811 -4.21023 -9.97212 14
586 1 8.64152 -1.40722 -8.07839 18
587 1 10.9275 -3.727 -7.50079 11
588 1 7.57831 -3.54837 -6.37042 24
589 1 11.5622 -0.614426 -5.84993 13
590 1 8.45396 -1.06476 -4.73396 21
591 1 10.3259 -3.4672 -4.28318 23
592 1 7.64163 -3.43664 -2.72015 23
593 1 11.1889 -0.7686 -2.96521 20
594 1 8.11252 -1.17983 -1.21773 20
595 1 11.0436 -3.90913 -0.98456 19
596 1 13.728 -9.04762 -1.77706 8
597 1 14.5585 -0.586546 -2.17481 11
598 2 -2.71644 -9.33612 -8.04281 17
599 2 1.58935 -12.1766 -1.58037 14
600 2 5.09446 -11.6623 -1.29819 11
601 2 -0.107034 -4.28502 -12.259 14
602 2 4.57505 -6.47249 -12.1079 11
603 2 3.99185 -9.20556 -9.9496 11
604 2 3.098 -9.96318 -7.00905 14
605 2 4.77412 -7.23929 -7.39695 21
606 2 2.10982 -7.4039 -5.87082 23
607 2 5.88943 -9.24629 -6.1757 13
608 2 3.24345 -10.5258 -4.03421 18
609 2 4.88607 -7.19258 -4.18058 23
610 2 1.84819 -6.92341 -3.0748 21
611 2 5.80683 -9.45082 -3.14737 17
612 2 2.65118 -9.30002 -1.0197 21
613 2 4.47164 -6.8801 -1.078 23
614 2 6.05249 0.281583 -9.87088 17
615 2 1.05273 -1.79279 -13.0301 15
616 2 5.98797 -3.08662 -11.4118 13
617 2 1.41322 -1.12674 -9.15632 18
618 2 5.13285 -4.73441 -9.50511 19
619 2 2.60237 -4.65772 -7.4555 21
620 2 4.45438 -1.71485 -8.02361 21
621 2 1.58439 -1.4746 -5.82598 21
622 2 5.757 -3.917 -6.32104 23
623 2 2.96173 -4.51417 -4.30192 22
624 2 4.74917 -1.63108 -4.81584 22
625 2 1.7427 -1.72457 -2.87368 22
626 2 5.96624 -3.9865 -2.91229 22
627 2 2.83923 -4.19762 -1.03309 23
628 2 4.99552 -1.56238 -1.28668 24
629 2 9.09718 -4.30066 -7.27294 15
630 2 7.47206 -6.79205 -5.801 19
631 2 11.3764 -6.86517 -4.41268 14
632 2 11.5557 -9.20399 -2.80555 11
633 2 7.53468 -6.37462 -2.63642 19
634 2 14.0203 -9.16745 0.0333759 7
635 2 14.7157 -5.12796 -4.43213 9
636 2 3.12432 -4.39455 -14.2551 11
637 2 7.6728 -5.79484 -8.61298 11
638 2 7.67657 -2.48536 -9.35451 19
639 2 10.4761 -1.7957 -7.26505 14
640 2 7.37851 -1.71432 -6.17345 22
641 2 11.5732 -4.0959 -5.57135 15
642 2 8.3106 -4.11181 -4.42606 20
643 2 10.3818 -1.19903 -4.5468 18
644 2 7.57863 -1.522 -3.0687 22
645 2 8.6753 -8.47741 -4.26899 14
646 2 9.15394 -4.45607 -1.02929 24
647 2 10.2339 -1.58136 -1.43973 21
648 2 14.8198 -3.25225 1.95223 11
649 2 13.0097 -1.70639 -3.11091 16
650 2 11.8759 -4.42519 -2.82968 21
651 1 5.58984 -11.6584 0.471729 11
652 1 5.51237 -10.2645 5.49035 12
653 1 4.17605 -10.2223 7.83887 10
654 1 0.255115 -11.3566 2.97924 15
655 1 2.33787 -9.14192 0.848728 25
656 1 5.38457 -6.18067 0.575292 21
657 1 2.95901 -6.60467 2.45839 20
658 1 5.24428 -9.13892 2.48522 19
659 1 1.97743 -8.87542 4.18859 18
660 1 5.75045 -6.52289 4.38354 22
661 1 2.95117 -6.41798 5.84169 19
662 1 7.31532 -8.60998 7.18143 13
663 1 3.66967 -8.64832 11.1547 8
664 1 5.67052 -6.14712 7.88036 17
665 1 2.49927 -7.71894 9.02446 15
666 1 6.59858 -6.27164 11.9329 9
667 1 3.89519 -5.54656 11.7753 15
668 1 -1.40434 -9.58768 8.33756 14
669 1 2.07933 -3.91926 0.588794 20
670 1 5.78077 -0.865161 0.388863 22
671 1 2.66471 -0.849697 1.85352 23
672 1 4.78071 -3.46949 2.01273 24
673 1 1.82497 -3.92723 3.53965 20
674 1 5.58297 -1.36959 3.76497 21
675 1 2.60219 -1.52206 5.30665 19
676 1 4.62798 -3.99273 5.79651 21
677 1 2.11785 -3.81493 7.66524 20
678 1 5.43725 -1.03222 7.25679 21
679 1 2.82454 -1.03208 9.05522 21
680 1 4.3635 -3.85126 9.1835 18
681 1 1.58436 -3.20415 11.2694 20
682 1 8.43646 -1.05611 12.1461 10
683 1 2.91391 -0.853147 12.6346 17
684 1 5.62596 -3.05031 12.3466 15
685 1 -0.759156 -3.94094 12.8409 12
686 1 7.47868 -8.83164 0.594574 16
687 1 14.0962 -3.58278 0.203843 14
688 1 8.12663 -6.01146 2.29222 21
689 1 10.4197 -9.08897 -1.2472 15
690 1 11.3062 -6.81036 3.37668 15
691 1 8.43766 -8.72745 3.99708 15
692 1 8.75964 -6.24439 5.87592 19
693 1 8.83502 -5.97171 9.24997 10
694 1 7.85255 -3.84345 0.573797 22
695 1 11.5083 -1.01997 0.243092 23
696 1 8.477 -1.11039 2.15436 22
697 1 11.1075 -3.74583 2.12556 19
698 1 7.73924 -3.66814 4.13469 21
699 1 13.5529 -3.41293 -2.91928 16
700 1 8.44076 -0.882449 5.46214 19
701 1 11.1397 -4.03249 5.1645 18
702 1 7.64241 -3.33949 7.3581 18
703 1 11.3154 -1.53257 7.23286 14
704 1 10.2765 -3.13998 9.83486 11
705 1 2.54381 -3.53293 14.1732 10
706 1 8.65088 -4.27226 12.2664 11
707 1 13.7549 -9.14696 1.8205 5
708 1 11.5019 -6.66851 0.704291 17
709 1 14.0286 -4.46244 3.69389 12
710 2 3.78865 -12.2593 1.10059 14
711 2 5.31231 -10.7596 3.59087 12
712 2 2.66137 -10.1168 6.527 16
713 2 0.310826 -10.6933 8.32901 12
714 2 2.158 -7.15652 0.816308 22
715 2 5.78379 -9.68552 0.723442 18
716 2 2.98223 -9.67913 2.49039 19
717 2 5.03098 -7.17064 2.63268 23
718 2 2.00399 -7.04711 4.09408 21
719 2 7.35474 -9.43467 5.35312 12
720 2 1.94637 -12.313 3.38767 13
721 2 4.97103 -6.7695 6.23589 19
722 2 2.38857 -6.57756 7.54297 16
723 2 3.42771 -9.71444 9.58677 10
724 2 5.13358 -7.48998 11.7616 10
725 2 5.2902 -4.29688 10.9129 17
726 2 2.10884 -7.2444 10.8226 12
727 2 1.67812 -1.80558 0.209787 25
728 2 5.69448 -4.12884 0.5005 22
729 2 2.92664 -4.68305 1.97949 22
730 2 5.106 -1.65926 1.98961 22
731 2 2.06592 -2.02089 3.32163 20
732 2 5.82528 -4.44083 4.28904 23
733 2 2.49449 -4.39671 5.78133 21
734 2 4.50691 -1.89413 5.41928 22
735 2 2.12625 -1.93198 7.51396 21
736 2 5.77099 -4.17993 7.12652 20
737 2 2.42912 -3.70822 9.65648 19
738 2 4.84696 -1.93566 8.92819 20
739 2 2.02071 -1.36109 10.8 19
740 2 6.41523 -1.26589 11.7495 12
741 2 0.704378 -2.62212 13.8661 12
742 2 6.41928 -4.68857 13.0471 10
743 2 0.0930299 0.827651 14.2406 10
744 2 8.50874 -9.22779 -1.12281 13
745 2 7.24132 -6.87381 0.768369 22
746 2 10.5735 -6.8876 -0.881407 20
747 2 12.2283 -4.07821 0.65972 21
748 2 9.88977 -7.17895 4.74204 13
749 2 7.68974 -6.74987 4.26801 18
750 2 7.75533 -6.82257 7.77676 15
751 2 8.29597 -5.76723 10.9898 10
752 2 3.75514 -2.6222 13.19 13
753 2 7.59452 -1.69592 0.611894 22
754 2 12.4899 -7.74087 1.96449 9
755 2 9.01308 -4.15595 2.04596 22
756 2 11.0387 -1.68459 2.03292 21
757 2 7.87317 -1.88215 3.73052 21
758 2 11.7502 -4.79407 3.4806 16
759 2 9.1998 -4.23096 5.62136 19
760 2 8.92295 -4.26896 8.46204 16
761 2 7.20039 -1.66683 6.48335 19
762 2 2.14573 -4.79902 12.6491 13
763 2 9.48688 -2.61173 11.8607 11
764 2 10.6836 -1.50704 9.20287 10
765 2 9.68818 1.73363 7.97656 14
766 2 14.9906 -4.25504 -1.6149 12
767 2 9.81386 -6.89346 1.89412 18
768 2 13.6524 -7.23245 -2.13606 14
769 1 -1.89813 0.0546405 -14.425 11
770 1 6.3699 7.78302 -7.21537 17
771 1 -2.40375 8.61284 -10.4771 10
772 1 4.6722 1.12573 -10.951 17
773 1 5.22536 7.181 -10.9703 13
774 1 6.027 3.84937 -12.4922 16
775 1 2.13354 4.65989 -8.10105 21
776 1 4.3159 1.73096 -8.05235 23
777 1 1.40226 1.88941 -6.38975 22
778 1 5.30388 4.60744 -6.20367 22
779 1 2.61518 4.30925 -4.69202 24
780 1 4.6669 1.72998 -4.75211 24
781 1 1.51199 1.50787 -3.02238 22
782 1 5.74136 4.09028 -3.2344 23
783 1 2.70851 4.02973 -1.57549 20
784 1 4.88029 1.83085 -1.49381 21
785 1 2.9662 3.03748 -13.7772 12
786 1 8.84185 7.34076 -9.34985 11
787 1 -0.124285 6.60857 -9.41027 17
788 1 5.62324 10.3057 -5.76671 11
789 1 3.99738 6.78175 -8.41205 17
790 1 0.845429 6.74937 -6.46796 17
791 1 7.71616 10.6865 -0.599128 15
792 1 2.23979 9.70638 -5.14732 17
793 1 3.9616 7.18746 -4.50393 23
794 1 1.57142 6.48269 -3.15639 21
795 1 5.32142 9.68642 -3.08307 17
796 1 2.51761 9.31248 -1.92924 19
797 1 4.78006 6.53197 -1.76469 20
798 1 1.22974 11.8512 -6.46005 9
799 1 8.72233 9.90567 -4.28073 10
800 1 1.05933 12.5102 -2.6755 14
801 1 4.05841 11.5365 -0.985156 12
802 1 5.7229 -1.56161 -12.4174 11
803 1 7.72248 1.22585 -10.156 14
804 1 2.65098 7.87529 -11.1621 12
805 1 5.8446 4.04116 -9.47608 17
806 1 6.96932 1.85419 -6.98435 21
807 1 4.49162 -3.71232 -15.1275 7
808 1 8.53556 4.03009 -4.67884 18
809 1 11.0973 2.41279 -4.45138 15
810 1 7.70841 1.56478 -2.97001 20
811 1 11.7841 8.98857 -3.5988 9
812 1 8.64249 4.43807 -1.28167 20
813 1 10.8278 1.78506 -1.1833 18
814 1 9.96756 7.35783 -5.88022 13
815 1 10.5035 5.11677 -7.31658 12
816 1 8.75551 4.17286 -9.76191 15
817 1 10.1235 1.83812 -7.78496 14
818 1 7.45855 7.02051 -3.57789 18
819 1 10.6263 9.63743 -0.369503 12
820 1 12.3507 7.05617 -1.35104 9
821 1 8.59719 5.59041 -12.7302 7
822 1 15.2526 -6.06619 -2.6473 9
823 1 12.0923 5.10142 -4.247 11
824 1 13.672 2.26837 -2.61898 10
825 2 4.76043 3.12121 -11.1896 17
826 2 2.43307 1.37893 -14.5255 9
827 2 2.01864 1.77978 -11.0611 19
828 2 3.81369 8.39466 -9.71266 13
829 2 1.30422 4.4493 -9.96841 20
830 2 5.28842 -2.58737 -13.8792 9
831 2 2.51405 1.33549 -7.78332 20
832 2 4.13629 3.75441 -8.07831 22
833 2 1.64687 3.79585 -6.19914 22
834 2 5.42263 0.797047 -6.57002 20
835 2 2.56391 0.973419 -4.80253 21
836 2 4.58268 3.58483 -4.63764 22
837 2 1.6139 3.49533 -3.21338 21
838 2 5.82321 1.16963 -3.26881 20
839 2 2.60359 1.00896 -1.13893 23
840 2 4.6362 4.02327 -1.50787 19
841 2 5.24099 5.87914 -9.56658 21
842 2 2.42135 10.4182 -6.8656 10
843 2 7.04259 7.99565 -9.04005 10
844 2 1.81891 6.57789 -8.05118 18
845 2 0.667952 12.5307 -4.57039 12
846 2 6.82507 9.62793 -4.35032 12
847 2 5.05819 6.54555 -6.41395 20
848 2 1.99321 6.26159 -4.95414 21
849 2 7.0385 8.74808 0.379113 22
850 2 1.24618 9.90598 -3.57001 18
851 2 5.38987 6.30229 -3.56183 19
852 2 2.89539 6.35786 -1.70432 20
853 2 4.30149 9.42082 -1.21214 19
854 2 4.02632 9.25959 -4.31012 15
855 2 -0.742228 12.1083 -2.52707 14
856 2 2.32974 12.2029 -1.25251 12
857 2 4.81101 4.05333 -14.0988 9
858 2 4.19461 6.90182 -12.4468 11
859 2 4.31627 -0.340866 -12.1072 13
860 2 7.4022 3.0204 -10.0187 18
861 2 6.92902 5.44204 -13.0704 11
862 2 7.11957 3.72769 -6.27359 21
863 2 10.6684 1.26386 -5.94597 14
864 2 8.32408 0.732245 -8.13043 17
865 2 12.7146 3.65444 -3.31063 11