ITEM: TIMESTEP
3000
ITEM: NUMBER OF ATOMS
2000
ITEM: BOX BOUNDS pp pp pp
-30.0 30.0
-30.0 30.0
-30.0 30.0
ITEM: ATOMS id type x y z Coordination
1 1 -8.81727 4.99662 -11.018 16
2 1 -1.39715 -9.50696 -11.2413 17
3 1 5.29435 12.7749 14.6585 13
4 1 9.21488 -7.33 12.0723 14
5 1 -11.1338 8.70825 -4.82394 17
6 1 10.4552 -9.35224 -3.93589 17
7 1 -12.9911 3.74173 -5.10484 16
8 1 4.73543 -4.54344 16.6514 8
9 1 -12.3187 2.30937 -14.1945 8
10 1 -12.2086 -9.78468 11.6098 10
11 1 12.6939 -1.1352 -8.05488 17
12 1 -0.402519 -12.4918 4.25097 20
13 1 -13.6475 -9.97497 3.26244 8
14 1 -2.16707 6.43661 17.7854 15
15 1 5.20629 -4.21278 5.75093 19
16 1 -0.67591 4.8558 16.1138 17
17 1 -4.29452 9.76328 -10.5334 17
18 1 0.111519 -4.91608 12.4267 20
19 1 -11.6111 -3.57507 -15.2873 10
20 1 -12.0074 -4.49631 13.5542 15
21 1 16.2168 4.57908 7.95719 12
22 1 0.327007 10.5694 -12.345 17
23 1 -0.673791 2.84889 -13.6161 18
24 1 13.1011 2.8641 11.4496 15
25 1 -9.37527 1.93099 1.09723 22
26 1 -11.8656 8.15035 -8.15992 16
27 1 -0.452377 2.29322 -8.06183 20
28 1 -7.84413 6.81113 4.15217 18
29 1 4.67059 -7.94002 7.07858 23
30 1 2.87352 -3.52119 14.2206 18
31 1 4.76671 -15.3923 -10.5911 8
32 1 9.21821 -6.71001 8.77847 20
33 1 -7.29757 -13.0926 -2.20632 13
34 1 -14.5001 -5.40076 7.66862 11
35 1 -1.41439 -5.81578 -11.0877 18
36 1 10.109 -7.78696 -12.3731 13
37 1 -6.03171 3.19087 -15.1617 11
38 1 2.00139 7.2865 14.4043 22
39 1 1.99675 -10.8799 11.2803 11
40 1 9.4635 -4.56977 13.3349 17
41 1 -10.841 -1.31262 5.03924 19
42 1 -17.63 0.30444 9.15678 8
43 1 -6.89634 1.92661 -4.09487 21
44 1 -3.1722 12.2398 -1.2173 21
45 1 1.64942 -15.7122 -8.4943 12
46 1 2.36705 4.16777 -7.71017 20
47 1 6.48209 -3.9387 -7.94428 21
48 1 -2.06299 -2.59884 12.5106 19
49 1 -11.0682 5.26964 4.25999 18
50 1 5.03798 14.6588 -9.5139 15
51 1 1.16464 8.35944 11.2631 17
52 1 -6.25781 10.1773 -5.21845 22
53 1 -1.56816 14.7338 0.788138 22
54 1 4.47603 -12.8469 2.46822 21
55 1 12.1542 -3.48301 -5.81336 21
56 1 7.14479 -7.71127 -17.8988 6
57 1 -8.837 8.39901 12.8013 17
58 1 -8.86367 -0.773649 -3.96349 19
59 1 7.23881 1.01338 4.34078 19
60 1 -3.08423 9.27404 -3.71808 20
61 1 -6.97362 -9.1701 5.50684 17
62 1 -0.53147 16.2491 10.8659 12
63 1 -8.01281 7.29384 -5.94612 22
64 1 -5.78896 10.9786 15.8242 10
65 1 2.36221 8.89332 -4.69865 15
66 1 0.0322707 -13.5453 7.13626 19
67 1 2.78133 3.0911 9.08964 21
68 1 8.84554 -11.3932 -2.35766 19
69 1 4.88566 10.4303 16.7167 12
70 1 -12.2606 5.23467 -8.42106 18
71 1 -10.02 10.3259 -8.96209 15
72 1 10.0387 4.18832 12.4531 20
73 1 17.6004 0.679748 -10.2034 7
74 1 5.04992 -10.1848 4.93739 22
75 1 -13.7915 -1.0178 3.99759 20
76 1 7.36023 13.4868 11.6344 16
77 1 -2.22825 -0.33907 15.93 13
78 1 -2.47696 -11.4246 6.93484 22
79 1 -8.27293 -0.959099 2.12688 22
80 1 14.0729 7.00164 9.2132 23
81 1 8.00446 -0.435162 -4.67625 22
82 1 -5.40137 10.2704 7.54661 15
83 1 5.05253 0.371342 9.79922 22
84 1 -6.37395 -3.98952 2.87612 19
85 1 -3.44339 -1.62926 -10.3265 21
86 1 -13.3093 7.41641 9.39693 13
87 1 -8.42177 10.154 -0.556797 22
88 1 -0.751574 8.03618 -6.75207 19
89 1 9.80126 1.26489 -9.32931 21
90 1 9.20239 12.6972 -7.49311 13
91 1 9.25361 -6.9366 1.68903 21
92 1 3.22932 -6.6021 12.3792 17
93 1 -6.20791 13.5099 -0.550322 20
94 1 -7.54425 12.7171 8.04521 15
95 1 -9.88825 -2.13979 15.2186 17
96 1 -2.41815 8.75805 6.69561 20
97 1 -5.28109 -4.9555 12.8451 20
98 1 14.175 -8.18332 -0.846641 12
99 1 -8.54237 4.45504 5.88331 21
100 1 -5.17593 -8.91102 0.265341 19
101 1 12.5457 -7.95537 -5.08732 13
102 1 5.47232 2.71747 -15.5801 13
103 1 -9.20322 -1.54395 -14.0361 15
104 1 0.745746 13.493 2.39652 18
105 1 -5.81471 4.6735 -5.60732 23
106 1 1.68696 6.25423 18.0778 13
107 1 0.71745 13.1332 -3.8074 18
108 1 -15.2354 7.17038 -1.02014 13
109 1 3.18587 11.5396 1.46923 17
110 1 -2.78726 -8.28796 8.77551 21
111 1 15.7043 2.03019 10.0142 11
112 1 1.74876 -4.66315 -9.89375 20
113 1 3.12547 -5.82497 -7.9456 21
114 1 -0.496192 2.72719 11.5328 19
115 1 4.90826 -1.48543 15.0908 16
116 1 -11.4176 -6.54673 -2.60796 18
117 1 7.66749 -4.75918 3.8501 20
118 1 -6.23127 -9.1738 -4.12321 21
119 1 12.5361 -7.02716 4.21324 12
120 1 -2.57785 9.08098 3.04428 17
121 1 2.30442 6.05858 -13.8199 15
122 1 4.86963 12.4065 -0.849779 17
123 1 -9.2866 -9.95048 13.1319 13
124 1 -5.8177 -13.2268 10.0705 10
125 1 7.59194 -10.9042 -13.0151 12
126 1 5.17469 3.09543 -5.8387 19
127 1 12.9911 -6.33578 1.28227 19
128 1 2.70864 -13.3907 8.48196 13
129 1 -5.0805 -11.3286 -1.41765 20
130 1 11.6935 9.06137 10.8075 21
131 1 13.4827 -3.85516 -8.22224 16
132 1 -16.9631 -3.29644 3.56087 12
133 1 13.1863 7.55273 4.39451 20
134 1 15.5105 9.87012 5.39075 14
135 1 -7.76138 1.51557 18.7207 10
136 1 7.97765 8.72636 -1.25563 18
137 1 -5.66118 11.5717 10.475 18
138 1 -7.36868 15.8554 -2.33546 11
139 1 0.0839242 -1.44616 -9.27521 21
140 1 11.5153 -8.19035 -9.41661 14
141 1 2.01855 15.6356 -10.4106 11
142 1 7.03821 -5.87966 14.3807 14
143 1 1.56014 -3.81948 -19.6656 9
144 1 -0.386138 10.68 -5.21696 17
145 1 12.8287 -0.654352 -4.44111 18
146 1 -8.81655 10.6226 -5.43221 21
147 1 -9.08136 12.9469 -0.469446 15
148 1 4.71125 6.17337 -15.5378 12
149 1 10.2585 -9.59205 9.18953 9
150 1 -3.57293 3.98538 -10.9927 20
151 1 -11.2479 9.78559 10.3931 12
152 1 10.4909 7.75253 -0.150692 18
153 1 11.6413 13.9754 -6.08522 10
154 1 -2.38369 17.4738 5.75576 11
155 1 8.65099 3.80548 2.87487 22
156 1 -2.39 9.26051 -1.01746 17
157 1 -0.303336 13.7102 -6.57014 19
158 1 5.89576 8.72913 -13.3973 16
159 1 -13.3587 -7.84266 5.34675 11
160 1 -14.524 4.14128 -2.70097 16
161 1 -8.74625 -1.06305 -10.8988 19
162 1 3.94799 -10.8127 -15.4388 11
163 1 11.9183 12.191 9.48153 13
164 1 0.339831 15.9111 7.45072 14
165 1 -9.38309 -6.81731 1.8244 18
166 1 -9.52652 7.8847 6.40463 20
167 1 19.3081 -2.04763 -4.37602 10
168 1 -13.9204 -0.20704 -11.2495 9
169 1 8.56425 -0.192483 16.6012 11
170 1 3.3875 14.7917 6.26801 16
171 1 -6.06739 8.39995 11.774 16
172 1 2.45046 -7.55003 -15.1484 13
173 1 -5.7821 14.502 10.5199 12
174 1 -2.12163 14.9473 -2.20787 19
175 1 3.07106 -4.28005 10.8708 19
176 1 -11.3199 -6.46043 10.9032 13
177 1 -0.877569 -12.5898 -12.348 13
178 1 -6.75517 10.1999 -8.13556 19
179 1 -3.80719 -9.97362 4.30856 18
180 1 2.4213 -10.6646 -3.37861 14
181 1 -3.49979 13.3272 -10.4188 11
182 1 -15.7889 5.29962 5.50882 12
183 1 2.56633 8.99989 -0.265595 18
184 1 10.0622 7.62929 -4.4424 16
185 1 -10.5622 3.47338 17.7736 11
186 1 3.39213 -7.89161 15.5328 10
187 1 -8.37745 5.1309 -0.685855 20
188 1 1.38422 16.2322 1.1388 18
189 1 3.37134 8.46234 9.41259 17
190 1 12.5185 5.89929 12.0507 20
191 1 -5.12845 13.8415 4.65593 20
192 1 15.2302 -1.56807 -8.83595 12
193 1 -7.39097 11.1463 13.1609 12
194 1 -6.24149 1.69932 -10.7056 20
195 1 13.2761 -2.45614 0.687006 20
196 1 -5.01142 -3.787 6.19115 18
197 1 -17.3847 1.92469 5.53085 11
198 1 -9.92417 -10.6661 6.3716 12
199 1 4.29505 8.08416 12.0549 20
200 1 -11.0599 -1.58209 2.21214 15
201 1 -3.78268 -13.7308 3.46085 17
202 1 11.2202 -8.53647 -1.12869 23
203 1 0.0611391 9.6693 4.88267 20
204 1 -6.23037 1.65303 6.03529 20
205 1 7.93911 12.4168 14.2479 19
206 1 -9.37875 2.14246 -2.11567 20
207 1 -5.74261 13.4729 -3.99887 19
208 1 -14.8032 -5.56796 -4.14354 14
209 1 -8.25938 2.31088 12.0188 21
210 1 2.07083 -10.2544 3.54908 18
211 1 8.13995 -12.4086 6.86297 13
212 1 -13.5211 9.71625 3.91641 12
213 1 17.9321 -0.196989 4.56291 7
214 1 7.322 1.31552 -7.09376 22
215 1 -6.09934 -6.83286 -14.3553 14
216 1 3.68136 -2.0197 12.1253 22
217 1 6.01084 -15.6793 1.04913 18
218 1 -0.962449 9.3558 -9.68058 19
219 1 4.64827 -13.0423 -13.344 12
220 1 7.97918 -1.75717 -13.6739 16
221 1 2.75993 8.09653 -11.8246 19
222 1 -7.27797 -4.07283 -7.44622 20
223 1 -4.24881 16.7722 -3.31597 14
224 1 -9.2704 -8.65854 10.0642 16
225 1 8.94983 14.0021 1.20377 12
226 1 -13.1518 3.60341 15.5232 14
227 1 -7.70116 14.5147 -6.01065 10
228 1 8.18677 0.813761 11.4626 22
229 1 -3.83299 -5.26125 -15.6039 16
230 1 -3.04328 12.4099 -4.51207 19
231 1 -0.346695 5.61342 -12.4442 19
232 1 -4.70624 -10.0074 7.39431 20
233 1 -6.26256 4.71888 10.4286 22
234 1 -3.02108 7.8351 13.2646 19
235 1 1.82766 -10.5887 -10.5742 17
236 1 -2.17615 -12.5847 -0.546201 20
237 1 13.1309 -11.3535 -0.138956 13
238 1 11.9041 7.02815 16.26 11
239 1 7.91377 13.8799 -11.8987 8
240 1 0.0884994 12.8192 -0.343657 20
241 1 -15.6255 1.52339 2.24638 16
242 1 -11.6487 12.3345 -0.83551 11
243 1 1.9961 3.0461 13.5713 20
244 1 6.03227 -18.4261 2.252 8
245 1 18.4308 -2.49601 -1.44603 10
246 1 2.66043 5.90193 3.9341 22
247 1 -7.28834 6.69362 7.7539 20
248 1 -11.8633 -9.66829 -0.0933541 14
249 1 7.37404 3.92366 -11.7017 19
250 1 3.51441 -2.10507 8.79794 22
251 1 13.4478 8.01156 -7.68448 10
252 1 -0.110857 -9.74014 -4.94693 17
253 1 -3.4356 1.50723 -9.0982 21
254 1 4.13467 -14.4915 4.90391 19
255 1 12.9693 1.34006 -7.74398 19
256 1 -9.56378 -4.6012 4.41296 19
257 1 3.14396 -14.5829 -6.13898 12
258 1 -6.6155 -7.39352 -8.47297 18
259 1 5.59468 9.59946 -3.09589 22
260 1 0.57783 -2.21517 -17.7186 16
261 1 6.90358 4.56487 16.5358 20
262 1 16.1352 5.24528 2.75653 10
263 1 -5.81986 -6.39734 1.29408 19
264 1 12.6041 -5.32937 -10.9347 13
265 1 -0.651523 -6.96162 3.86294 22
266 1 -11.2423 -1.09574 -9.21731 17
267 1 -8.80336 4.08535 -7.62644 22
268 1 -3.09401 -11.1479 10.5148 19
269 1 7.13828 -1.86688 9.99009 20
270 1 2.59083 -4.95294 7.26223 22
271 1 -3.76938 -4.46635 -12.2918 20
272 1 -0.310926 -6.91832 7.31949 22
273 1 4.96068 8.90266 -9.82673 18
274 1 8.01562 9.14705 2.09206 22
275 1 -6.67789 -5.97323 4.62016 19
276 1 2.75215 11.5142 4.61896 21
277 1 -9.94974 3.12521 14.5303 23
278 1 -11.6052 -7.42438 -8.76246 11
279 1 -6.86189 -3.72426 -10.6273 18
280 1 -2.476 8.02951 -12.857 14
281 1 -9.05959 -9.48577 -10.1039 11
282 1 -0.478166 -9.77977 2.45857 19
283 1 10.2201 -4.13172 -12.1506 19
284 1 16.9313 3.28168 -8.15972 7
285 1 13.2741 0.976954 4.88573 18
286 1 -10.1901 0.277544 13.7112 20
287 1 -2.64364 -10.3865 -3.45482 25
288 1 8.27731 2.70305 18.6911 11
289 1 -1.89483 -15.1147 5.62757 18
290 1 0.22989 -12.1609 1.32213 19
291 1 -1.24435 18.4514 -3.52769 9
292 1 5.08304 -0.43637 -15.7711 15
293 1 -7.0528 -4.07128 -15.0985 12
294 1 -11.2499 -7.16293 14.0015 13
295 1 3.01096 8.6917 17.2815 16
296 1 3.42634 -11.6588 -0.285557 14
297 1 -3.59182 -7.85249 -10.3506 21
298 1 -8.9277 6.73914 -8.56025 21
299 1 15.621 8.5659 2.52936 15
300 1 -10.6997 7.29207 -10.9901 14
301 1 -1.90063 12.1422 -8.0673 21
302 1 -2.76729 -5.26805 7.37469 23
303 1 7.71342 -10.7228 -4.89479 14
304 1 -6.9746 15.789 2.79452 12
305 1 2.4708 8.8667 3.10961 23
306 1 9.92487 3.3571 8.51028 16
307 1 -14.1078 2.5436 5.85743 19
308 1 -4.42184 -1.12298 13.5919 19
309 1 -5.38183 10.47 3.84475 20
310 1 4.14763 -4.24946 -11.6105 17
311 1 13.3064 12.9635 -3.39878 12
312 1 8.36158 -9.1079 3.76145 18
313 1 -2.99125 1.99261 13.9909 22
314 1 -16.6542 -2.44532 7.18095 11
315 1 1.37602 -17.3388 -5.60306 10
316 1 -8.6755 9.04429 16.0617 10
317 1 -11.4743 8.62447 13.6171 9
318 1 -14.2077 -1.98552 12.5428 12
319 1 -16.6773 -0.46464 4.06518 13
320 1 15.0691 -5.00844 -5.14627 10
321 1 -10.452 -11.3346 9.67444 12
322 1 8.30593 -1.48847 -8.04633 24
323 1 11.1852 -13.561 -0.96216 10
324 1 3.92918 17.2688 -1.84165 10
325 1 -11.1827 11.381 -6.4978 11
326 1 10.6364 5.90699 9.77879 24
327 1 -8.6574 1.17634 4.2428 21
328 1 8.35801 -7.55468 -4.71889 20
329 1 -2.93584 11.2152 5.40428 20
330 1 -3.67312 6.25998 4.61747 19
331 1 4.30156 -8.92251 10.0211 16
332 1 9.79339 -2.15778 8.69934 20
333 1 -3.82663 6.1194 7.78891 18
334 1 -6.7343 -4.04237 -4.06554 21
335 1 -2.07287 3.02383 17.2658 15
336 1 -0.0152259 13.1261 5.93292 20
337 1 6.51781 8.2136 16.5191 18
338 1 -8.12028 12.4593 -3.18806 19
339 1 -1.41155 -3.80349 -14.331 18
340 1 -5.94275 4.3815 -2.42122 20
341 1 4.59838 -8.79245 -12.7081 19
342 1 -15.2661 3.3272 13.8605 9
343 1 -14.1654 4.15281 2.97574 17
344 1 -6.17255 -0.665877 -8.97237 24
345 1 -5.54488 10.7023 0.519608 21
346 1 7.8244 0.600923 8.35268 22
347 1 -12.2867 -11.9317 5.61008 8
348 1 7.9926 -4.68963 10.7602 20
349 1 -8.87182 -7.69524 15.6951 11
350 1 -12.4982 6.40754 0.542001 15
351 1 -2.50767 -2.34405 9.15585 20
352 1 2.12735 -8.81534 -7.28149 18
353 1 -9.06992 1.65434 -8.97088 17
354 1 7.49328 -3.54987 -10.7728 20
355 1 1.71072 14.1308 8.63246 14
356 1 -12.3784 -3.72511 -3.17501 20
357 1 7.04729 -8.88828 -11.0659 19
358 1 12.0419 4.18703 -9.73133 17
359 1 -1.15936 -9.65381 -7.46014 20
360 1 -9.59498 -6.71199 -6.74225 19
361 1 -2.80359 -7.3016 -1.03526 20
362 1 6.85403 5.3146 19.8778 13
363 1 14.9347 1.2883 -3.20113 19
364 1 -11.562 2.6849 -7.42084 15
365 1 1.22065 17.7777 -1.32267 11
366 1 -14.9329 -1.97334 -4.80431 13
367 1 -5.85718 8.00925 5.50306 20
368 1 -7.9632 12.7052 2.15405 24
369 1 -5.79435 3.92814 7.54289 19
370 1 11.2457 11.1776 12.9663 19
371 1 10.413 -0.312147 -6.43321 21
372 1 7.62159 -0.88987 13.8703 18
373 1 7.61549 1.09095 -10.4292 21
374 1 -5.71299 -12.153 -4.9889 15
375 1 -1.81852 -4.13069 -8.83207 19
376 1 0.391684 8.97649 8.59766 19
377 1 -6.44474 2.18888 -7.47664 19
378 1 8.40129 -10.2188 1.03516 20
379 1 9.99346 -1.71491 11.7713 23
380 1 -11.2586 -0.229441 -2.23136 20
381 1 -2.5276 -9.80772 0.412586 20
382 1 -7.41958 -2.7985 12.2374 19
383 1 -3.13993 11.5239 1.5491 19
384 1 -10.1894 -10.924 1.91087 12
385 1 6.16158 9.38406 19.4983 8
386 1 -8.40225 8.17948 -2.8109 23
387 1 0.878459 12.2689 -9.57525 20
388 1 8.06588 10.9398 5.86144 18
389 1 -14.5436 -7.26994 -1.35784 12
390 1 -0.359007 -7.34083 -8.94612 18
391 1 -14.0563 -0.73193 6.76727 18
392 1 -10.8373 5.60696 -5.7275 20
393 1 1.96115 -7.72279 5.35534 20
394 1 -8.18915 -8.51982 -1.06962 19
395 1 9.69041 10.909 11.3238 18
396 1 9.60062 5.79708 -12.1965 15
397 1 -14.1348 8.06676 -10.183 5
398 1 -1.17262 15.3358 -9.09103 13
399 1 -8.58365 4.9958 -3.82553 20
400 1 2.15633 -12.2757 5.06336 21
401 1 13.9534 4.34911 5.56393 17
402 1 3.58676 10.7762 -14.1925 11
403 1 -3.1572 0.574937 7.78798 18
404 1 -15.4079 4.32244 0.0755712 15
405 1 -5.73187 4.42541 4.11175 22
406 1 -5.95731 -11.9927 5.10714 18
407 1 1.48043 -3.76669 -6.11153 18
408 1 9.50098 -10.7015 -9.84602 13
409 1 -12.1844 2.05828 2.99608 20
410 1 -10.2307 0.238454 10.3073 17
411 1 -7.72595 10.7553 5.13274 21
412 1 -0.507962 -8.3386 15.7573 8
413 1 -10.4006 1.2443 -15.5341 9
414 1 8.10856 -8.87891 -7.72854 21
415 1 1.0966 -9.4722 -13.1464 17
416 1 -5.00366 0.985878 16.3095 16
417 1 2.85944 -6.82305 -1.18867 17
418 1 -4.81119 0.0702493 -15.4626 13
419 1 10.486 -10.4354 5.84387 13
420 1 3.24848 11.1273 -2.64999 16
421 1 -12.7987 9.9856 7.34935 12
422 1 -7.68844 0.558979 15.2431 18
423 1 -14.9371 -4.87028 -7.10528 11
424 1 -10.2864 -2.91749 11.3217 20
425 1 10.4914 -2.32757 15.0381 11
426 1 10.3608 0.516774 6.7023 19
427 1 4.72115 2.04665 -8.50202 20
428 1 12.502 -6.37247 7.52827 9
429 1 15.3885 4.6371 -3.22451 15
430 1 -2.88736 3.49001 9.38818 20
431 1 2.21419 14.3407 -1.71355 19
432 1 7.27748 -8.47402 6.98352 19
433 1 -2.37591 -12.3847 -6.12108 18
434 1 -7.7325 4.32187 19.1199 11
435 1 -3.23446 15.9316 12.0922 9
436 1 -8.76922 -7.31802 -3.66683 20
437 1 6.38226 12.5625 1.85939 21
438 1 5.13835 6.21253 5.64412 17
439 1 -7.69087 -2.04866 9.60081 17
440 1 -7.28216 -8.59605 2.32667 15
441 1 -16.3861 2.80452 8.08391 14
442 1 -6.27492 -6.77008 -5.42805 20
443 1 -2.65713 11.1591 8.51386 18
444 1 -4.16215 -10.1229 -6.22144 17
445 1 -0.568507 -10.0724 -15.5166 9
446 1 -4.07862 -16.5583 3.17114 9
447 1 -5.28655 -1.28049 7.5887 21
448 1 10.5507 4.90293 6.13278 19
449 1 -6.0116 -2.52741 15.1832 13
450 1 -7.78685 10.4496 -11.0435 10
451 1 8.62674 3.18258 -0.634833 18
452 1 -4.14741 -13.8998 -2.84837 16
453 1 2.59724 6.16782 -5.98453 20
454 1 -0.594757 17.7685 2.37498 12
455 1 -0.206161 5.64001 -8.71973 22
456 1 -0.672695 8.42718 15.3279 19
457 1 -12.7814 0.336612 0.629908 18
458 1 -1.71665 17.96 -0.411559 13
459 1 4.5106 10.7462 -5.86814 18
460 1 -6.15456 -7.14697 -11.5098 24
461 1 4.24576 1.99923 15.6977 15
462 1 4.87824 -13.1135 -7.81679 10
463 1 -3.15021 -1.57425 -13.8011 18
464 1 7.31144 -12.387 4.35515 21
465 1 -13.6067 9.75473 -2.47153 14
466 1 -0.181804 9.65637 18.0185 9
467 1 11.6538 10.4942 -2.26936 19
468 1 5.30925 7.34162 -0.942699 21
469 1 -7.23945 7.71071 -10.7613 18
470 1 2.74997 7.19568 -8.58811 17
471 1 2.88985 -7.61829 2.24103 19
472 1 -14.0639 -2.17853 -1.21394 14
473 1 7.18151 14.2698 7.96654 13
474 1 -6.14611 5.10741 -12.7832 16
475 1 15.924 1.81654 2.75735 15
476 1 6.02663 13.8441 -6.51169 19
477 1 7.59011 -4.16569 0.333301 20
478 1 18.6928 0.478113 -1.78345 11
479 1 -0.721415 -0.419542 -15.0163 23
480 1 5.56355 -11.0111 7.51415 17
481 1 -0.368453 -9.90511 5.84864 21
482 1 1.15684 -8.41385 13.697 16
483 1 -6.02882 4.73402 -9.5626 21
484 1 -6.79634 -13.697 7.64024 10
485 1 -5.92978 -9.9732 -8.97803 14
486 1 10.5163 13.4228 6.08981 9
487 1 4.66226 2.46462 -11.3534 15
488 1 -0.217861 1.78417 15.1755 17
489 1 -15.3479 4.55959 10.704 11
490 1 2.19557 -15.4363 -2.90461 14
491 1 -12.0813 -4.11597 2.85749 17
492 1 13.9223 -5.83083 -2.26305 15
493 1 9.7501 -2.36514 -3.4519 20
494 1 -3.4636 6.30956 -2.263 23
495 1 0.132886 -6.56761 -5.96984 20
496 1 0.627116 9.2032 -14.5462 8
497 1 9.547 -5.74043 -6.94977 21
498 1 -5.47432 3.3922 18.0235 16
499 1 3.88961 14.1714 3.39689 19
500 1 -4.26903 -2.78622 -17.2335 12
501 1 3.81116 -2.28208 -17.8117 13
502 1 -5.66316 -4.75527 9.10362 21
503 1 -2.26366 13.4876 3.80942 18
504 1 -10.9881 -7.14359 -15.8887 6
505 1 -15.6715 -1.94018 0.900788 14
506 1 -0.838273 -6.76348 -14.8389 17
507 1 -6.75337 -8.01054 13.387 17
508 1 2.75161 13.3874 -6.3729 18
509 1 13.6791 1.78329 7.678 19
510 1 18.8072 1.8667 1.58685 8
511 1 -7.83554 -13.0064 1.07561 11
512 1 0.144376 -10.7469 -1.06077 18
513 1 -1.12494 -4.89778 -17.651 12
514 1 -9.97224 11.7273 7.73476 14
515 1 6.06669 -6.99541 -6.33492 21
516 1 12.4587 0.573702 -0.931221 20
517 1 3.80699 16.3487 -7.38584 13
518 1 5.70109 -7.68937 0.304313 19
519 1 14.1239 4.79482 -7.82715 17
520 1 4.63381 4.86341 14.3897 17
521 1 -10.8163 2.76834 6.33351 18
522 1 7.16373 7.78673 9.91023 17
523 1 9.57978 2.99273 16.0192 19
524 1 -2.67247 2.4057 -15.7236 15
525 1 -4.12936 -4.53819 -6.0359 22
526 1 0.655208 -1.96992 10.7052 23
527 1 7.02761 10.9395 9.03858 18
528 1 9.13578 9.55024 -11.8389 13
529 1 -5.65173 6.7939 -7.92144 21
530 1 -4.75301 16.0244 -0.269308 17
531 1 7.41646 -3.37804 16.2216 14
532 1 10.0094 3.04348 -12.0466 19
533 1 11.6195 -9.17319 1.84583 16
534 1 9.13629 9.56888 15.2578 17
535 1 -15.2203 -4.94659 1.06052 12
536 1 -4.99125 12.5353 -7.04933 18
537 1 -0.402118 1.73528 8.94709 19
538 1 -15.107 1.4129 11.3968 14
539 1 -3.4391 15.1286 -6.80357 15
540 1 6.21811 -11.0981 -0.909301 18
541 1 5.43399 -0.935909 -9.74265 19
542 1 -3.30986 16.6511 2.74866 17
543 1 -9.19559 -5.62438 -14.2065 13
544 1 5.2989 -17.3609 5.02162 9
545 1 -5.53517 -7.4633 -2.02013 19
546 1 2.67051 13.4307 -11.8192 14
547 1 -3.42991 3.8782 -7.49192 21
548 1 -2.60194 10.9 14.9869 16
549 1 -9.70984 -7.8926 4.81058 15
550 1 5.74533 4.18984 -2.3214 21
551 1 3.0454 -6.82665 -4.72914 20
552 1 5.94073 -8.47518 13.2675 9
553 1 9.20529 0.061984 -1.91065 17
554 1 -10.0801 8.01939 -0.0242683 15
555 1 5.16505 2.85394 18.6732 11
556 1 7.96975 14.9722 -4.95247 12
557 1 11.074 -5.59134 -4.22503 21
558 1 4.82328 5.53845 9.05035 18
559 1 1.19102 0.423158 -12.9512 16
560 1 -5.95915 -10.3888 11.9662 13
561 1 0.0215837 4.89177 -5.71653 21
562 1 8.45281 -5.87837 -14.8894 14
563 1 2.87105 11.0429 9.13826 17
564 1 8.77965 4.32745 -9.05436 20
565 1 -6.61735 -0.957301 -12.8894 16
566 1 -8.64729 -10.5047 -3.42655 17
567 1 -12.9018 -0.995241 -14.9472 9
568 1 10.3948 1.52148 0.693337 17
569 1 17.5077 3.00859 -1.7015 13
570 1 6.19197 -6.69528 -9.65371 19
571 1 13.5111 8.84567 13.4389 15
572 1 8.13266 -3.74515 -5.62359 23
573 1 2.59491 0.328812 -18.6916 8
574 1 5.23279 12.031 6.58142 20
575 1 -8.26243 3.87897 2.54792 20
576 1 10.4184 12.8338 15.8119 11
577 1 10.6053 6.3344 -7.03817 21
578 1 14.8681 -1.54457 3.75744 18
579 1 7.68018 4.79043 -14.621 13
580 1 9.64314 5.41937 18.3182 12
581 1 14.0914 6.07169 14.5034 11
582 1 -2.741 -5.23886 10.9124 20
583 1 14.0299 9.64962 -4.21715 10
584 1 -0.761277 0.0846799 13.2341 21
585 1 16.3681 -0.900783 -4.37856 17
586 1 12.5829 4.16486 9.10343 21
587 1 -8.78419 -1.35811 -7.20262 21
588 1 16.3358 6.14133 -0.42265 12
589 1 11.9934 -1.75383 3.71531 21
590 1 -9.54806 7.48355 10.2112 19
591 1 10.1932 16.1796 14.3813 5
592 1 9.17431 6.3137 15.1348 17
593 1 9.44949 8.94506 8.3512 18
594 1 -2.69491 13.528 9.87528 21
595 1 7.57424 3.59478 10.352 20
596 1 0.511921 -17.1574 0.50267 13
597 1 -6.07983 10.4264 -2.38331 20
598 1 6.88696 10.4099 -6.32739 21
599 1 13.0916 -2.14883 -11.2801 12
600 1 4.12285 15.4584 0.254916 15
601 1 1.44066 -12.0891 -7.55073 17
602 1 9.8999 -3.16416 -14.9181 11
603 1 -13.3159 4.79915 7.74678 19
604 1 -2.63444 6.73231 -9.38233 20
605 1 -1.89969 -15.025 2.22928 20
606 1 -8.15505 1.74498 -13.7185 12
607 1 -12.3773 2.7886 -1.18278 20
608 1 8.41813 -4.62094 7.09697 18
609 1 13.0192 10.4758 3.52615 18
610 1 1.95933 -7.31771 8.92268 20
611 1 -9.84435 1.24333 -5.53393 18
612 1 -0.232506 2.28991 -17.7531 13
613 1 -4.37432 5.75752 16.2015 19
614 1 9.40835 7.9957 -14.0755 9
615 1 14.2824 0.146999 12.5461 9
616 1 10.8189 2.87158 -7.09879 22
617 1 10.3285 8.86085 4.83837 19
618 1 4.62688 -9.35829 -8.82249 22
619 1 -12.5308 -2.31352 15.528 13
620 1 15.5794 -1.14186 7.81681 12
621 1 -0.926564 13.2823 13.0473 14
622 1 7.75562 15.1407 -8.64023 8
623 1 -13.8754 6.82831 -3.94713 13
624 1 7.76018 2.76719 6.09317 20
625 1 -5.16076 -14.4398 0.363088 13
626 1 16.9741 -3.20383 5.55323 10
627 1 5.65402 16.1783 5.49887 13
628 1 -3.53744 5.98298 11.1055 18
629 1 -7.8758 -1.74253 5.12916 19
630 1 -12.5814 -3.79489 -7.13913 17
631 1 7.24477 3.22008 13.8002 21
632 1 -2.05517 -6.20919 13.6368 18
633 1 7.34368 6.20544 12.4665 17
634 1 -4.54494 13.8956 1.75485 20
635 1 10.2573 1.18607 3.79527 20
636 1 5.61053 3.01045 7.51509 21
637 1 1.73032 -1.8988 -14.3464 19
638 1 -10.8609 -2.29102 8.30078 19
639 1 7.26673 1.78396 -13.6528 15
640 1 -4.54481 -4.46416 -9.39943 20
641 1 13.1784 -10.8936 -2.78536 10
642 1 7.70326 5.73762 7.67871 21
643 1 5.62853 3.83297 3.90268 22
644 1 -10.8631 0.39148 16.9487 14
645 1 11.7387 7.2653 7.0171 18
646 1 0.461217 -5.58514 15.5545 13
647 1 -0.519255 5.48192 13.214 18
648 1 1.17676 -5.20217 -12.7959 18
649 1 -8.44717 3.66759 8.90005 18
650 1 5.11845 0.724007 13.0807 21
651 1 -4.27785 -14.3401 6.56294 14
652 1 13.4038 7.38535 -1.87761 17
653 1 5.06434 -9.68622 -5.61858 17
654 1 -3.16212 6.731 -5.75897 23
655 1 5.16664 9.66032 0.741811 20
656 1 5.7463 8.38178 7.41611 20
657 1 2.23634 1.33168 -16.0283 15
658 1 8.35784 11.6588 -1.34143 17
659 1 12.4987 5.34963 0.774804 13
660 1 -4.95752 -11.318 1.81989 18
661 1 4.16026 -5.63945 -17.6779 10
662 1 -10.8823 11.3098 1.80124 18
663 1 9.04959 -6.2962 -10.0933 20
664 1 7.94871 6.08841 0.908682 20
665 1 13.3301 6.64089 -4.89553 17
666 1 11.9087 14.0545 -0.834221 10
667 1 -5.45219 7.63045 2.30408 18
668 1 7.95336 5.8768 -2.63265 19
669 1 12.4152 3.13145 14.3607 14
670 1 9.71069 1.09233 13.8947 17
671 1 -1.0095 -10.5582 12.4928 12
672 1 -5.05332 8.0569 -14.0896 10
673 1 5.15798 11.5229 11.7474 19
674 1 6.83193 -6.45979 -12.4455 17
675 1 2.56473 0.945801 11.0858 21
676 1 6.95053 14.9494 -1.04102 14
677 1 12.2744 10.3947 6.99491 16
678 1 12.0191 -3.26091 -1.99715 15
679 1 4.15506 7.7784 19.9833 10
680 1 -12.7131 -3.63805 9.83146 16
681 1 7.00292 -12.932 1.54041 17
682 1 2.18835 -1.85181 -11.5662 20
683 1 -10.5943 14.0838 2.69838 8
684 1 0.38362 4.40195 7.4876 16
685 1 7.97822 -4.65731 -2.54558 20
686 1 5.7525 9.59649 4.19091 22
687 1 -12.7207 -3.3985 5.56793 17
688 1 -5.80238 6.93274 18.5564 12
689 1 -9.42178 4.21961 -13.9098 10
690 1 -8.83093 7.62144 -13.5338 10
691 1 5.51911 -9.82388 2.30355 21
692 1 7.53692 7.48073 -10.236 18
693 1 5.68921 -7.32347 3.79043 17
694 1 -0.171168 7.01519 2.88647 21
695 1 -11.6918 2.37777 12.25 18
696 1 4.88974 -1.64094 -13.0599 15
697 1 2.1553 -10.3495 7.59395 20
698 1 3.05794 16.8896 3.45734 12
699 1 -6.05266 3.27504 14.0855 22
700 1 -8.19278 -8.74547 -13.6408 12
701 1 -5.21937 -9.94858 -11.8416 13
702 1 -7.62195 -9.32294 -6.58268 19
703 1 -1.58786 16.2726 -5.21152 14
704 1 2.64442 -2.16595 -7.94485 18
705 1 -0.777935 5.76193 9.73146 20
706 1 2.99972 -7.47565 -10.8384 16
707 1 9.59405 -14.8086 1.67706 14
708 1 -0.0915309 -4.37949 9.00892 21
709 1 16.0736 0.696956 -6.87798 15
710 1 5.29319 -12.2682 -3.3709 14
711 1 -15.9428 -3.15605 9.82295 10
712 1 -1.0359 -15.4089 -3.77299 13
713 1 -12.2767 -9.56299 -2.68411 14
714 1 -13.343 -0.710404 10.1171 16
715 1 -0.88872 -17.6725 3.52641 10
716 1 17.4778 1.8628 -4.79737 14
717 1 -2.15911 14.5809 6.83061 21
718 1 -8.83199 0.341209 7.4258 18
719 1 -12.8007 7.06297 6.23583 15
720 1 8.62397 -2.00959 3.05785 17
721 1 -13.2618 -4.75952 -10.4638 11
722 1 0.189281 9.83294 -2.47094 18
723 1 5.25536 6.14432 -12.1193 21
724 1 7.47757 11.603 17.494 12
725 1 7.63706 2.50382 -3.80856 19
726 1 -11.6447 -1.6836 -5.45599 20
727 1 -12.3595 -6.5747 -5.77067 20
728 1 3.51572 9.92587 13.9708 20
729 1 5.29945 12.0745 -11.6426 16
730 1 9.78869 11.4474 3.57183 15
731 1 -2.47657 0.0721116 10.6263 22
732 1 0.430763 -14.3811 -0.68105 20
733 1 -2.78226 -14.3111 8.97305 13
734 1 -0.706307 -8.16369 10.5351 19
735 1 13.5029 12.098 14.3826 7
736 1 5.35581 -5.28712 -15.1728 14
737 1 -6.12263 7.71645 -0.861431 20
738 1 11.7053 3.55514 3.09021 17
739 1 -8.11728 -6.5722 7.87411 17
740 1 7.2671 10.8753 -9.38677 19
741 1 -0.800873 -14.7742 -6.26201 15
742 1 3.84344 -17.2521 -0.361194 12
743 1 3.50972 -14.2938 -0.484642 20
744 1 5.54309 4.89662 -8.78108 20
745 1 6.37447 15.6962 2.4579 16
746 1 -2.09661 -0.236844 -17.6101 10
747 1 -2.9179 4.58964 13.5507 21
748 1 -0.390315 4.79248 -15.3941 14
749 1 -14.6009 2.47241 -8.5402 9
750 1 -8.73011 -5.39868 -1.98795 17
751 1 1.68387 15.9763 -4.87606 14
752 1 9.67533 -2.36806 -0.276319 20
753 1 -3.08634 -7.74316 -13.6096 18
754 1 -6.73595 -3.62523 -0.399559 20
755 1 9.23369 9.14952 -7.91528 17
756 1 10.3767 -4.02359 1.71813 18
757 1 -9.90234 4.84475 11.5348 19
758 1 7.03388 -8.53642 10.1011 14
759 1 14.8111 -4.42541 2.79824 16
760 1 14.719 -3.8868 7.72479 11
761 1 -1.89039 8.20563 10.1087 18
762 1 -13.0883 0.969188 14.8584 15
763 1 -7.75211 5.39191 16.2511 18
764 1 -0.472548 -12.8127 10.4997 13
765 1 9.73995 -7.17437 5.49674 19
766 1 9.64851 7.81936 12.6754 20
767 1 -10.1589 -2.59906 -0.568344 16
768 1 8.38833 -8.33716 -1.42371 19
769 1 -10.7918 10.4487 -2.75198 17
770 1 5.09665 7.01762 2.28738 23
771 1 6.90981 -15.0595 4.20015 19
772 1 1.68302 2.23566 17.0287 11
773 1 -0.309846 12.4819 9.68636 21
774 1 5.81892 -14.3162 7.3366 12
775 1 -8.30686 -0.772249 -0.718745 18
776 1 1.7359 0.116511 14.3844 17
777 1 -14.8141 -8.24072 -5.09233 11
778 1 2.27709 12.4308 12.3464 15
779 1 7.35069 13.6741 4.75385 18
780 1 -13.3965 -11.2228 8.86805 7
781 1 1.33777 -15.7554 4.80627 15
782 1 10.5699 -3.32463 5.42969 15
783 1 12.6318 -3.0452 12.9283 11
784 1 7.41823 7.192 4.16124 20
785 1 -1.26197 7.15079 -3.68401 21
786 1 -0.437359 -2.1472 -12.0013 22
787 1 1.88339 1.28053 -9.43445 19
788 1 -6.13285 0.52383 12.3752 19
789 1 -0.129867 15.8598 4.46532 17
790 1 15.7178 -0.0585665 -0.478031 13
791 1 7.79327 5.22946 -6.2156 22
792 1 -6.14908 7.4282 14.9842 20
793 1 6.86401 9.34707 13.0897 20
794 1 10.3035 0.374807 -14.1272 11
795 1 -2.68796 -15.7974 -0.903804 15
796 1 -6.0344 -1.20007 -6.02543 21
797 1 13.3808 -4.33711 4.91884 16
798 1 9.98073 -1.34394 -11.0861 21
799 1 0.323413 10.7919 14.18 15
800 1 10.9193 -9.73512 -6.70121 14
801 1 7.24259 10.875 -14.1933 10
802 1 -3.31365 -7.09857 -7.57962 21
803 1 12.1941 6.82821 -10.0356 10
804 1 13.2154 0.0484655 1.7412 19
805 1 0.356916 -2.25234 14.4253 15
806 1 -3.24931 -11.9386 -9.81291 11
807 1 10.7214 10.4134 1.00463 19
808 1 -2.85191 -7.12488 2.22057 18
809 1 -10.4292 5.58016 7.79679 19
810 1 13.4953 3.6361 -5.28425 19
811 1 15.821 6.34365 5.72927 15
812 1 7.47724 -8.91355 -14.7045 12
813 1 -8.02408 9.83027 9.40098 16
814 1 15.2229 7.62941 11.2558 14
815 1 10.8959 15.5571 -3.48352 8
816 1 2.01271 3.98266 -16.1512 13
817 1 10.5787 -5.54112 -0.665301 20
818 1 -11.1731 4.03737 1.03314 17
819 1 16.1253 11.88 2.54368 7
820 1 -13.0864 -7.52528 1.63502 15
821 1 -8.27868 12.6812 -8.0117 13
822 1 5.06219 3.59031 11.8101 20
823 1 -9.96131 -4.1651 -8.56684 21
824 1 -13.2869 1.75174 8.85597 17
825 1 -0.39396 3.09344 -10.6979 20
826 1 12.155 -6.26724 -7.4335 19
827 1 -11.1054 -8.88325 -5.31541 15
828 1 15.8473 -5.12298 -0.0402267 11
829 1 -15.4725 6.78639 2.25869 11
830 1 -9.57017 -4.17403 -5.03527 24
831 1 14.472 9.80552 8.47636 14
832 1 -5.77699 -8.08008 10.2075 21
833 1 12.4853 3.75207 17.149 9
834 1 12.5831 -1.29179 6.913 20
835 1 6.52282 -2.33999 7.41224 19
836 1 -13.5575 9.31678 0.534673 15
837 1 -3.03685 10.831 11.782 19
838 1 4.21559 11.7739 -8.59228 18
839 1 1.79613 -12.5803 -14.1285 12
840 1 -5.49566 14.8358 7.60748 10
841 1 -7.53485 -10.8626 8.46283 18
842 1 8.59561 9.74561 -3.79178 13
843 1 2.34347 5.14349 11.8876 19
844 1 17.1398 -4.27679 -3.14386 10
845 1 10.9226 -4.77285 10.2778 15
846 1 -0.843244 13.6759 -11.4078 16
847 1 2.0949 9.69371 -8.80517 16
848 1 -4.83876 -2.76783 10.5687 19
849 1 16.7442 8.24418 7.87065 11
850 1 -3.39101 -1.68133 -7.46064 19
851 1 13.8133 11.4501 -0.227371 12
852 1 -12.8788 1.08317 -3.97586 18
853 1 -3.68413 -8.19772 11.7508 18
854 1 4.15451 15.2126 -4.21156 16
855 1 5.61469 -4.85074 8.9681 18
856 1 -0.818861 -12.3947 -3.48822 18
857 1 -8.2235 13.8364 5.02375 15
858 1 -15.1945 1.31973 -0.947143 15
859 1 10.1436 -3.60885 -8.48395 28
860 1 2.32188 -14.503 -11.6593 10
861 1 -8.49576 9.33525 2.89423 18
862 1 11.3063 10.7026 -5.39855 16
863 1 -6.77361 0.818694 9.70009 18
864 1 6.83586 -2.60268 -16.0514 13
865 1 -9.89644 -6.91326 -11.2055 13
866 1 -3.1398 -7.6082 -4.46305 24
867 1 -4.44407 13.151 12.8449 16
868 1 11.3395 -12.4792 2.28817 11
869 1 -2.80774 11.1223 -12.7677 10
870 1 18.2978 -0.92391 -7.06845 12
871 1 14.6032 3.08589 0.431979 16
872 1 5.17049 -15.3139 -2.94574 10
873 1 1.77566 -4.79725 -16.8878 16
874 1 10.4194 4.75405 -4.37835 17