ITEM: TIMESTEP
38000
ITEM: NUMBER OF ATOMS
1000
ITEM: BOX BOUNDS pp pp pp
-30.0 30.0
-30.0 30.0
-30.0 30.0
ITEM: ATOMS id type x y z Coordination
1 1 -6.47718 -6.20765 -8.17785 12
2 1 9.1362 -10.1433 6.31949 10
3 1 -7.34263 13.6725 3.69355 9
4 1 -10.6154 4.08676 -1.707 11
5 1 2.21548 -4.24993 9.40834 20
6 1 -3.95222 -0.347703 -8.57563 13
7 1 -6.16901 -8.46313 2.04709 19
8 1 6.74099 -1.54892 8.90249 20
9 1 0.639793 9.7479 9.18936 13
10 1 7.5718 1.84654 9.30685 19
11 1 1.89286 9.3734 -7.3776 15
12 1 1.87081 -0.678133 14.6915 15
13 1 -8.23054 2.97604 2.06569 22
14 1 1.4477 -3.81177 -6.27137 18
15 1 4.8452 1.02524 9.41535 23
16 1 7.24371 -4.41189 -4.65454 19
17 1 0.124585 0.409896 11.7585 18
18 1 -5.81487 -9.41643 11.0089 11
19 1 -6.85835 -1.50768 5.07932 23
20 1 -6.72694 0.721479 7.09615 18
21 1 -0.696758 12.8627 -2.74596 10
22 1 -1.55968 -1.91859 -9.09443 20
23 1 6.25267 -2.89572 -7.0318 19
24 1 3.82366 -2.02603 13.3053 20
25 1 -8.35163 6.5792 3.47488 21
26 1 1.40238 14.0132 -0.849777 17
27 1 5.07501 -11.9358 2.33412 13
28 1 5.85672 -7.26123 -3.92953 20
29 1 8.62635 3.35001 4.70748 18
30 1 -5.75928 8.02406 -4.44528 13
31 1 1.7939 11.5191 -3.58807 20
32 1 2.34904 7.0788 8.60555 19
33 1 -5.25451 1.04335 4.37428 22
34 1 9.16479 0.0250406 10.9203 21
35 1 -10.3525 -2.12659 5.56815 15
36 1 13.0867 5.06767 12.0428 13
37 1 9.0858 -0.636106 0.360002 22
38 1 10.8819 4.71005 6.92499 21
39 1 -12.2531 -2.80339 2.69584 12
40 1 4.51815 -9.29569 -6.1217 13
41 1 -4.70797 12.4492 3.59762 20
42 1 -0.284485 9.4369 -2.96057 17
43 1 5.81396 -1.36822 -4.72824 20
44 1 13.3448 -3.01239 8.69456 12
45 1 4.92286 -8.15146 6.56228 17
46 1 -4.76371 9.29184 6.15753 21
47 1 -5.85897 -6.28949 11.5779 19
48 1 -8.75604 2.07198 8.84422 19
49 1 6.61079 -11.311 -0.383312 19
50 1 5.72799 -0.675639 -9.88161 15
51 1 1.19627 14.4737 4.9179 11
52 1 -2.11943 2.15523 -4.12802 23
53 1 1.51733 8.28799 0.0849891 21
54 1 -2.62787 -8.10864 12.2432 13
55 1 -1.39935 -6.22251 -3.26758 22
56 1 4.30191 -7.39894 -9.82171 12
57 1 -4.30006 -2.52312 15.9464 9
58 1 -10.7534 -5.46124 4.27776 16
59 1 8.46226 -2.43988 6.08077 20
60 1 -7.87568 -7.91163 -0.750131 19
61 1 9.40465 -7.96358 4.04256 19
62 1 -3.16809 9.60325 3.64977 20
63 1 4.40512 1.95102 -4.59772 24
64 1 9.62174 -10.7888 0.221503 15
65 1 -9.22158 -4.73963 -0.0179826 24
66 1 10.3235 10.4245 5.58406 13
67 1 7.44234 6.00196 -3.01307 21
68 1 -3.47688 11.5127 0.00119683 17
69 1 0.775171 -3.90873 -11.1328 13
70 1 0.0232129 11.164 -0.207902 21
71 1 14.1099 -0.441894 -2.9121 8
72 1 7.28113 1.48884 -4.56694 18
73 1 5.9016 -10.1096 8.32659 9
74 1 -4.10778 2.94727 -6.67997 16
75 1 10.4762 11.1516 -0.662389 11
76 1 13.0132 4.89363 -2.28163 12
77 1 1.7189 12.3184 1.9949 24
78 1 -3.38226 -2.79083 -11.2524 14
79 1 -10.4901 -5.38551 -3.16137 14
80 1 -4.65264 4.5761 10.7674 11
81 1 -0.771833 10.932 -5.74674 12
82 1 6.90678 -3.15313 11.7061 22
83 1 -9.19432 -6.58054 7.2593 13
84 1 -4.14986 -10.0726 8.13182 12
85 1 3.24502 11.1568 -0.784464 22
86 1 14.1406 4.58201 5.5138 11
87 1 0.978258 -10.5568 4.76055 13
88 1 -5.28165 2.76324 1.44018 23
89 1 0.986636 6.45372 11.5567 11
90 1 -4.0289 -0.458513 -3.44327 23
91 1 -7.63259 -5.42628 2.61142 21
92 1 -9.39084 -7.95863 2.1881 15
93 1 9.78953 -7.41262 1.47249 20
94 1 -1.53892 12.49 2.86151 21
95 1 -2.71617 0.358644 6.97 21
96 1 -7.64447 -2.0464 -0.688526 20
97 1 1.51409 -7.81419 7.69821 17
98 1 8.553 5.19036 -10.2245 10
99 1 8.81981 -0.78112 13.8606 14
100 1 1.62742 5.69974 -8.06108 19
101 1 -7.97391 -5.256 -5.31921 15
102 1 -2.26795 13.933 0.110101 14
103 1 8.14275 2.09747 13.9915 13
104 1 -1.16909 7.62408 -8.50408 12
105 1 4.74838 5.11203 -7.90612 20
106 1 -6.30939 1.56433 11.7045 12
107 1 -4.39634 7.02766 8.4888 17
108 1 0.207947 -6.3594 -6.20301 18
109 1 3.90823 -5.32039 -1.40664 23
110 1 7.52513 6.64283 -6.62111 14
111 1 3.31074 11.8161 4.77605 15
112 1 -8.25247 1.12815 4.79259 22
113 1 2.46782 3.41532 11.1736 18
114 1 10.8861 -3.46236 0.232101 18
115 1 3.75847 9.19595 7.86555 19
116 1 -6.38516 6.45912 5.50613 21
117 1 -11.1364 -5.58287 1.61929 15
118 1 6.12503 -0.332323 12.2622 24
119 1 3.8717 -9.32996 1.74936 22
120 1 0.62217 -0.0509808 -12.9206 11
121 1 9.26265 -6.93435 -4.39283 18
122 1 -9.494 -1.01006 8.91328 17
123 1 -9.38365 -2.44162 -5.09503 12
124 1 -2.09303 -4.60142 3.86222 20
125 1 -2.78991 -9.11259 2.09853 20
126 1 -5.65219 0.255564 -6.47887 14
127 1 -8.98468 2.63885 -3.46268 13
128 1 11.0136 7.03176 13.9725 7
129 1 6.40349 -3.51536 14.3958 15
130 1 -1.19057 -7.08766 8.88622 18
131 1 6.69324 9.33602 2.02087 20
132 1 -7.76597 -7.28159 4.69907 16
133 1 2.861 15.2587 1.62199 11
134 1 -7.22468 -2.84419 -7.57571 11
135 1 -0.180123 -9.04661 -2.94412 20
136 1 -3.99133 -6.1358 2.20592 20
137 1 11.0472 9.19517 11.5514 10
138 1 -2.82862 -4.79862 -0.383801 22
139 1 -4.65069 -3.65529 10.0971 18
140 1 -1.3321 -11.9329 2.59836 12
141 1 5.02163 -8.62193 -1.27381 21
142 1 2.12922 -11.9076 2.47406 12
143 1 -1.98416 0.32147 -6.26702 20
144 1 9.14583 7.59698 7.91321 21
145 1 -4.72093 -3.18796 -7.8454 17
146 1 3.29158 7.45535 -9.56065 11
147 1 0.305797 -1.56121 9.14075 22
148 1 5.94517 14.6377 6.57457 7
149 1 12.7901 5.56435 8.31088 13
150 1 -4.77215 -2.3102 7.29217 20
151 1 3.8605 -7.11784 9.56712 16
152 1 -7.96239 8.85999 6.55884 14
153 1 6.30675 -6.2922 -8.19123 14
154 1 8.80579 -12.4377 -2.79418 10
155 1 8.19807 -11.3294 -5.30421 9
156 1 -1.55667 -2.48783 6.54369 21
157 1 3.73559 -3.43484 16.159 11
158 1 -6.52963 3.94039 3.84875 21
159 1 10.7298 -6.11059 -2.08319 19
160 1 0.26145 9.65289 2.81299 20
161 1 -2.77632 4.68767 8.78917 19
162 1 2.52597 -7.94297 4.32142 21
163 1 -1.5032 -0.425685 14.8644 11
164 1 -5.75245 -3.11417 -4.78464 20
165 1 -2.84919 12.264 5.56822 19
166 1 -0.704779 3.42847 -6.67137 23
167 1 -11.1137 5.58884 9.30782 10
168 1 -2.79058 -3.32465 -3.14565 22
169 1 -5.17431 9.0643 0.841213 19
170 1 9.75768 -0.898814 8.45788 21
171 1 9.4975 -5.95814 11.0362 13
172 1 0.90257 -3.00574 11.8485 22
173 1 -1.34846 -4.80499 -8.53402 23
174 1 -1.75778 -3.07127 -6.24211 20
175 1 -11.1602 -1.78038 0.245847 16
176 1 -0.665567 -6.29632 1.76753 22
177 1 12.1626 3.96625 4.08603 18
178 1 -1.82694 4.37773 -8.98291 12
179 1 -7.75247 6.74396 9.44672 10
180 1 -7.1488 11.0924 1.4108 13
181 1 -3.07306 6.18721 5.76862 22
182 1 11.8412 -3.30174 -7.70445 12
183 1 12.342 -3.49749 -3.94041 13
184 1 -3.62662 5.48019 0.0464478 21
185 1 -1.42479 -12.1343 -4.7489 13
186 1 4.84491 11.1242 9.99137 9
187 1 -4.13227 5.04129 -4.0693 22
188 1 3.60993 -11.7091 -0.853887 16
189 1 13.3371 2.74812 7.526 17
190 1 -10.6969 -7.89894 -0.743397 12
191 1 -5.88303 -10.6901 -0.66395 14
192 1 -3.28682 9.37297 -2.19268 21
193 1 -10.2157 5.35715 0.946817 13
194 1 -1.62863 -8.0381 -8.64485 16
195 1 4.73184 -10.7291 4.90009 17
196 1 -4.11701 -11.2592 -6.27922 11
197 1 -6.69789 4.64993 -4.93478 10
198 1 -2.84101 -10.4036 5.02751 16
199 1 -7.81446 -2.57613 11.6681 15
200 1 -4.28267 2.96007 6.38647 21
201 1 0.463695 -3.74919 -3.5826 23
202 1 3.47649 -1.33738 9.51138 23
203 1 -11.3619 1.84341 9.82135 11
204 1 0.692926 -8.93374 10.7729 10
205 1 -1.12246 -5.28429 13.3398 18
206 1 1.92133 -8.34878 -0.868847 20
207 1 8.30702 -11.6369 3.18231 14
208 1 3.11165 13.8995 -4.02711 9
209 1 -5.90121 -5.70601 7.87622 21
210 1 13.9032 2.191 13.7725 10
211 1 9.45736 4.80592 -0.916803 23
212 1 3.62417 -0.530345 -7.08862 18
213 1 13.3158 -0.456329 10.9857 12
214 1 -6.59656 -3.94119 13.9749 11
215 1 4.93032 12.4126 1.66615 15
216 1 11.693 -5.55954 8.87844 13
217 1 -5.93903 -7.7967 -5.48848 15
218 1 0.423536 11.8959 5.40997 19
219 1 -4.82902 1.83665 9.20142 22
220 1 -4.34469 -8.39991 -0.284536 19
221 1 -8.64374 -10.9657 -2.41032 7
222 1 -6.51115 12.0534 6.09116 12
223 1 -4.83262 -8.79049 -8.19185 12
224 1 -2.77024 -5.04678 7.35802 21
225 1 8.91961 4.16583 11.7051 17
226 1 11.2892 7.74681 -0.581713 16
227 1 2.32043 4.88759 -5.02242 22
228 1 -0.813348 5.09396 -4.31041 22
229 1 -0.6233 7.29844 8.48059 18
230 1 -10.049 0.269103 2.66538 21
231 1 6.18313 10.4893 -5.78446 14
232 1 -9.5431 -7.98014 -3.89582 10
233 1 -1.04799 -2.7631 -13.2463 10
234 1 10.9452 5.96257 -3.59401 16
235 1 3.37356 9.75836 2.0904 19
236 1 2.78135 2.9617 -6.99774 21
237 1 6.61954 -5.30151 6.39723 19
238 1 -0.986274 1.36667 -9.0446 20
239 1 11.0776 9.21841 2.36914 14
240 1 7.32821 -3.67256 0.910156 20
241 1 6.65008 4.08648 -11.9233 9
242 1 4.4769 -4.94458 4.01585 24
243 1 6.71991 -6.96797 9.65586 17
244 1 -5.37136 2.16611 -4.04302 20
245 1 4.00008 1.46519 -11.9999 11
246 1 -11.1397 1.40385 -1.69486 11
247 1 11.0103 -0.977931 -2.46638 19
248 1 -2.29998 8.11506 -4.93534 20
249 1 1.12964 -7.17417 -10.2942 13
250 1 5.13596 2.23766 -9.43897 21
251 1 11.5759 -6.29291 -5.68441 12
252 1 -8.30327 -4.48636 9.29414 16
253 1 -0.0420259 14.9287 2.32163 12
254 1 5.23455 9.33274 -8.42749 12
255 1 11.6456 2.51234 -0.818731 17
256 1 -2.74993 -9.91897 -3.08861 18
257 1 2.86208 -4.57682 -9.16718 18
258 1 5.21738 8.48262 -0.588564 20
259 1 12.6946 -2.27575 2.74011 13
260 1 -0.322346 -11.5981 -1.31586 15
261 1 -9.50574 4.40289 11.2356 8
262 1 -4.66262 -6.24944 -3.34506 20
263 1 -1.8095 -3.97897 16.404 10
264 1 9.95078 8.70667 -5.42979 12
265 1 -5.90371 10.1459 -2.18246 11
266 1 5.06381 14.0664 -0.743621 12
267 1 -1.47923 -3.90963 10.1115 19
268 1 5.81422 -6.16373 0.961608 20
269 1 8.78023 -3.00097 -1.58722 18
270 1 -13.2159 -3.83799 -0.446526 7
271 1 -6.75668 -0.323391 2.07753 21
272 1 -6.1903 -0.7816 9.82352 21
273 1 7.18025 11.2926 -0.418907 20
274 1 8.66729 -8.53061 -1.33743 19
275 1 9.08616 -4.59048 13.5117 11
276 1 7.44967 -0.242132 -2.25678 22
277 1 -9.59456 6.32554 6.53659 13
278 1 10.7183 -9.4248 -4.00256 13
279 1 -2.52652 9.06274 8.84733 15
280 1 -1.58051 -6.07831 -11.5625 13
281 1 8.34648 1.82902 -9.87797 17
282 1 -3.84103 -6.50559 -10.4849 9
283 1 -2.58475 -8.6446 -5.57021 20
284 1 12.6013 -0.334848 0.0905959 14
285 1 8.93447 -8.42295 -6.97755 10
286 1 5.42029 -10.953 -3.93703 16
287 1 8.5083 11.6519 -3.61574 9
288 1 -6.984 5.74429 0.774108 20
289 1 11.9549 1.87342 -4.182 14
290 1 5.10432 -4.66574 9.09488 18
291 1 5.7685 3.09744 11.4624 18
292 1 -7.34223 -0.0186979 -3.07856 20
293 1 12.014 5.9677 1.43459 17
294 1 13.946 -5.89357 6.72544 8
295 1 -0.901709 11.6539 8.15655 13
296 1 3.13951 0.557004 12.2041 20
297 1 -5.66171 14.1399 0.725847 10
298 1 3.35703 -6.16604 -6.55889 18
299 1 -3.35569 6.07098 -6.92362 17
300 1 -2.09683 -0.106888 -11.5177 14
301 1 -6.85863 3.58894 -1.10662 21
302 1 12.782 -8.10317 4.14904 10
303 1 3.15224 -5.53265 6.60872 22
304 1 10.2206 1.8153 -6.69398 16
305 1 10.5181 2.61651 9.12297 21
306 1 8.88048 11.6107 2.78614 12
307 1 13.196 -0.0432612 7.47396 13
308 1 -1.20431 1.63465 9.35439 22
309 1 -8.25346 -4.66855 5.59309 20
310 1 -10.2255 -2.25759 -2.19985 14
311 1 10.8303 6.23967 10.5281 21
312 1 -3.55168 15.364 2.8191 12
313 1 10.9993 7.15154 5.05903 18
314 1 7.0818 5.45738 5.66321 17
315 1 -9.10849 0.680095 11.6575 12
316 1 9.01298 -4.94376 -7.62623 15
317 1 3.18756 -9.17464 -3.48691 20
318 1 6.37206 6.96922 8.60818 17
319 1 4.45695 5.90601 11.1424 12
320 1 3.3889 -4.89728 14.0345 16
321 1 -1.14722 3.7526 11.6975 13
322 1 -5.15009 -1.32316 12.6967 17
323 1 -1.83029 6.4862 -1.92716 22
324 1 9.81491 9.06475 -2.93722 15
325 1 1.73137 1.36713 9.19224 23
326 1 5.27753 12.033 -3.19044 15
327 1 -3.51198 -11.8184 -0.222656 14
328 1 8.80789 6.29809 1.96305 19
329 1 0.414798 4.25859 9.01604 24
330 1 -4.76851 6.9125 2.68896 21
331 1 5.44685 4.70897 -4.90562 24
332 1 0.887208 -3.58972 15.009 17
333 1 8.11087 13.4718 8.0904 11
334 1 5.4994 -3.89207 -10.1797 13
335 1 -1.25153 9.18258 5.88329 23
336 1 11.8069 -5.45548 3.4 17
337 1 10.7661 10.8151 8.94646 10
338 1 -10.3317 0.377698 6.67468 14
339 1 7.07435 -9.13261 1.25838 20
340 1 10.6443 6.03272 -7.44322 11
341 1 10.1141 -2.52555 3.24842 22
342 1 1.85034 8.73473 4.92121 20
343 1 2.73633 -1.67767 -11.7783 13
344 1 1.51094 -9.67281 -8.61237 10
345 1 -4.71867 11.2476 8.78172 9
346 1 8.53777 -4.23124 8.27519 20
347 1 2.6557 -1.11591 -4.54037 22
348 1 -5.30823 -11.6796 -3.54435 11
349 1 -2.97115 -1.18011 9.58686 22
350 1 11.2726 0.542013 2.41092 18
351 1 -3.737 9.76541 -7.0386 8
352 1 11.6386 3.73251 -9.0737 10
353 1 12.8062 4.64105 -5.86232 9
354 1 0.757205 7.7046 -5.39939 22
355 1 0.806992 -6.442 11.4973 18
356 1 -3.52331 -7.1812 5.34075 24
357 1 1.96545 -6.71128 -3.62525 20
358 1 -8.78842 8.19519 0.821899 12
359 1 8.01423 8.84029 4.46568 23
360 1 -5.3359 -4.43756 5.00378 22
361 1 3.97387 7.5535 -6.02378 23
362 1 -4.05937 -5.75223 14.408 11
363 1 -11.8375 1.21419 4.33298 13
364 1 9.24159 2.74093 -2.33498 17
365 1 -5.90416 -5.00384 -0.355084 20
366 1 10.7999 -4.43531 5.69879 17
367 1 5.76737 -7.4953 4.01681 18
368 1 2.61372 12.5838 8.12733 13
369 1 -3.16793 1.04246 12.0509 16
370 1 10.1057 3.11748 1.86562 22
371 1 11.948 -8.90824 -1.08093 12
372 1 3.66302 6.2215 6.00621 21
373 1 5.18827 9.17308 5.14653 20
374 1 -3.9505 -7.24456 9.24635 19
375 1 -8.89093 -2.83964 2.8637 24
376 1 5.42808 0.075503 14.9408 12
377 1 7.05766 11.6282 5.11275 14
378 1 11.0712 1.64551 12.5628 18
379 1 13.9149 2.29132 10.6683 13
380 1 6.79085 9.73042 7.88977 23
381 1 -1.71407 8.45616 0.651704 21
382 1 -1.4847 -11.0239 -7.598 11
383 1 0.892689 0.448157 -6.56242 21
384 1 -8.28172 -7.11218 10.312 13
385 1 12.4837 1.28078 4.5188 17
386 1 3.25288 11.8718 -6.78891 10
387 1 8.43562 -2.00501 -10.0885 13
388 1 -5.10714 -11.4266 2.82888 13
389 1 -5.23665 0.6562 -0.737287 23
390 1 9.06995 -1.89675 -5.26777 22
391 1 -1.41772 -8.00644 -0.625312 21
392 1 6.07606 -6.43187 12.5183 12
393 1 0.427842 -9.1381 1.67847 20
394 1 10.5774 -0.030047 -8.6811 12
395 1 -4.84197 14.6239 6.29827 9
396 1 12.9243 -6.23976 0.692434 11
397 1 -10.1011 3.73772 3.93856 19
398 1 12.1415 8.73948 8.08579 12
399 1 7.76051 5.04556 9.48645 18
400 1 -8.66071 0.903878 -0.173758 21
401 1 2.25201 1.41749 -9.47872 21
402 1 9.18125 -7.0894 7.62038 16
403 1 -7.71087 -4.44639 -2.53088 18
404 1 -0.647885 -8.09714 4.86263 19
405 1 9.98903 1.58104 6.58295 17
406 1 -11.9352 3.63972 6.94973 10
407 1 5.89209 7.39689 -10.8292 11
408 1 11.2181 -3.10554 10.8541 15
409 1 -9.3499 -5.27158 12.5386 10
410 1 -3.1312 -5.60231 -5.90427 22
411 1 -5.97514 -9.63787 5.48061 13
412 1 11.1793 4.10856 14.8247 9
413 1 2.04805 -12.4913 -3.79629 13
414 1 11.9875 -0.996053 -5.5843 13
415 1 -6.97947 9.55336 3.5236 19
416 1 -6.16755 4.66638 7.79196 19
417 1 1.66029 -11.1989 -6.1668 11
418 1 8.40005 7.98852 -0.843332 22
419 1 13.2476 2.90005 1.09824 14
420 1 -0.204709 -5.41879 5.94217 21
421 1 3.47946 9.2021 -3.19744 18
422 1 7.34241 0.23703 -7.27816 21
423 1 -12.029 2.85136 1.26303 11
424 1 4.4696 6.15118 -2.36538 22
425 1 5.72769 13.886 9.80851 9
426 1 6.36239 8.11701 -3.98827 20
427 1 0.864611 -6.05371 15.1623 10
428 1 6.85609 3.37575 -6.78319 16
429 1 6.46935 -12.1816 5.92984 10
430 1 -1.57993 -1.94223 12.5258 18
431 1 8.50781 7.99545 10.7608 15
432 1 7.46816 -5.82952 -1.73113 20
433 1 0.0995045 2.89139 -11.6982 11
434 1 0.557367 5.94948 6.0757 20
435 1 -1.60001 6.70009 3.38111 19
436 1 -1.03094 -9.38137 7.48251 16
437 1 11.5476 -10.272 2.3893 11
438 1 1.33099 -1.60391 -8.84512 20
439 1 -5.72874 -2.88613 2.2011 23
440 1 -4.98082 6.98923 -1.57957 19
441 1 8.22442 11.4112 10.6797 12
442 1 -7.16161 -8.96664 7.93761 14
443 1 11.6837 -1.22866 5.74694 17
444 1 3.40261 4.35908 -11.0171 14
445 2 -8.9762 2.40312 -1.48655 17
446 2 -5.0375 14.3762 2.40168 13
447 2 -0.238285 -3.0674 -9.43019 24
448 2 5.28576 -5.14714 14.0754 14
449 2 -5.88222 -4.73026 -3.68935 17
450 2 9.60924 0.479798 12.8203 14
451 2 -10.1698 0.307675 4.73761 18
452 2 11.6345 9.24505 9.70696 13
453 2 -1.22126 -2.72874 -4.2079 22
454 2 -8.99617 -6.14094 -3.93935 15
455 2 -4.88464 3.13181 4.15368 21
456 2 2.34184 -3.48153 13.1035 22
457 2 3.62898 -0.0884269 13.9434 14
458 2 11.004 -1.9575 -8.55039 11
459 2 8.5914 0.865079 5.45611 20
460 2 3.96518 14.5059 -2.50483 11
461 2 12.6486 5.6981 10.1334 17
462 2 -9.07382 -5.49965 10.7099 11
463 2 -4.48814 -10.2363 6.25644 15
464 2 13.6523 0.861479 12.2693 9
465 2 -8.55843 1.21441 6.92426 17
466 2 -6.44162 10.2019 -0.295922 15
467 2 -6.48759 10.3208 6.5055 15
468 2 8.23863 -6.79848 -7.77963 12
469 2 -3.13381 -4.19242 -7.01842 18
470 2 4.54614 -5.47993 -10.0811 13
471 2 10.9861 -4.79453 -6.9147 13
472 2 13.094 4.32367 2.4502 13
473 2 -3.02141 11.5084 3.53482 22
474 2 -1.5311 -11.643 -2.90079 16
475 2 3.02415 -7.60552 6.225 21
476 2 11.3269 0.343523 6.91176 16
477 2 -7.09505 3.48951 0.703405 19
478 2 8.18103 8.00895 2.6865 20
479 2 8.4335 -11.5562 5.22188 11
480 2 1.98741 6.83478 5.2246 22
481 2 6.7099 9.71133 6.05006 19
482 2 1.90449 12.1258 -0.0201734 22
483 2 -5.10564 2.67726 10.7472 15
484 2 -0.588222 3.09686 -4.77291 20
485 2 -5.74116 0.183317 -4.24857 17
486 2 -10.7632 5.14196 7.50347 12
487 2 -9.26853 -4.51979 1.97305 24
488 2 0.559723 -4.61111 10.4756 19
489 2 2.43469 -4.79616 15.5225 11
490 2 1.21992 5.64194 8.23319 21
491 2 -8.87828 6.49652 1.56067 14
492 2 5.21524 -9.15905 -4.4262 18
493 2 10.9774 -2.0125 -4.07451 17
494 2 -1.18371 -8.07664 1.42077 21
495 2 7.4268 -6.22209 -4.66731 18
496 2 -0.657451 9.23674 7.74409 19
497 2 8.17932 -11.7787 -1.11582 13
498 2 7.25285 -1.01606 10.8222 18
499 2 -4.25544 -7.97509 1.55201 23
500 2 12.3338 -0.761443 3.75045 15
501 2 2.41177 -8.37659 1.12687 20
502 2 11.9962 -4.60843 1.26089 14
503 2 -7.48474 -6.68318 -6.61778 13
504 2 -7.39721 -8.18109 6.15454 14
505 2 -0.363871 -5.49115 3.98547 21
506 2 -5.70489 -4.84002 1.53063 22
507 2 -0.262555 11.6749 1.75107 21
508 2 7.82067 -0.656822 -5.63262 19
509 2 12.9018 4.66403e-04 -4.27195 11
510 2 4.75748 7.96912 -2.79726 20
511 2 -6.07195 5.70179 9.36306 15
512 2 -11.7537 2.89376 5.28342 12
513 2 -5.72577 -5.69075 13.4833 12
514 2 -9.29912 5.76718 9.87215 11
515 2 -4.91468 2.14809 -1.89384 22
516 2 11.0673 2.17311 -2.60629 19
517 2 11.1302 -8.83734 3.51268 14
518 2 10.3967 5.1497 1.74926 21
519 2 1.70165 15.172 3.0917 10
520 2 -1.12779 6.93659 5.80161 22
521 2 11.1949 7.62795 1.45829 14
522 2 3.80457 9.4438 0.256471 22
523 2 3.02598 12.3988 -5.04159 15
524 2 -1.44984 1.92321 11.5881 18
525 2 -2.69872 -2.76145 10.7767 18
526 2 5.68068 -3.17895 -5.01582 20
527 2 -2.76296 -0.413153 13.2525 15
528 2 6.66686 5.35568 -7.94705 19
529 2 -3.77815 -6.72023 7.16623 19
530 2 -2.40902 -11.8691 -6.27469 12
531 2 0.245192 -8.1205 -9.07873 14
532 2 5.33877 -11.4696 -1.77544 15
533 2 13.0079 -0.248028 -1.65997 12
534 2 -0.911966 3.11525 -10.1631 14
535 2 2.0713 12.9365 5.89744 15
536 2 -7.33718 -2.01265 1.51015 23
537 2 4.81616 8.60218 -10.2427 7
538 2 4.3822 14.139 0.912073 13
539 2 0.537964 4.52227 11.0855 17
540 2 0.338713 -10.65 -7.48458 10
541 2 8.92751 9.76918 11.2285 12
542 2 9.40939 -8.23688 6.04494 12
543 2 9.02737 7.20725 5.31163 17
544 2 -1.84669 6.15569 -9.33829 9
545 2 8.29346 -2.74924 13.5194 16
546 2 -4.13146 -8.17186 10.8799 14
547 2 5.02739 -8.33886 8.55157 15
548 2 -4.02236 14.024 -0.169011 9
549 2 -4.4203 -11.6619 -1.75682 12
550 2 -2.06111 -1.54852 -7.31932 20
551 2 -2.54469 -9.24368 -7.45633 15
552 2 6.73026 14.8634 8.37125 7
553 2 -9.25228 -8.60737 0.512037 14
554 2 -8.01702 2.66778 3.77169 20
555 2 11.9832 2.54549 14.031 12
556 2 0.522149 -12.3224 -4.80437 11
557 2 4.09536 0.739557 -10.1611 18
558 2 -2.38652 -0.114294 -9.62157 15
559 2 -7.77704 -3.31708 -5.79486 14
560 2 -2.73239 -6.57949 13.3244 12
561 2 1.49261 -8.56963 -3.69799 17
562 2 2.20814 -3.16581 -4.36572 20
563 2 10.8839 0.0343769 -6.6245 16
564 2 -11.2936 -3.5241 4.23115 13
565 2 2.21679 -1.86006 -6.77491 18
566 2 4.61215 -7.22292 -7.56885 14
567 2 7.1691 6.08857 -10.9671 8
568 2 4.36003 12.8814 8.85157 11
569 2 11.1387 7.38997 11.9486 11
570 2 -10.7192 -1.4713 2.29051 17
571 2 -6.26382 -10.153 3.87786 11
572 2 -1.90873 0.277713 -4.34735 22
573 2 5.85788 5.55614 10.0249 17
574 2 -3.9165 -5.51022 4.17062 18
575 2 -3.43693 5.98106 3.65534 22
576 2 -9.2129 2.48464 11.174 11
577 2 -2.56913 -8.74066 8.36465 17
578 2 -8.6792 -2.86464 4.70535 20
579 2 -9.70902 -6.11616 5.54771 15
580 2 -7.64559 -7.51622 2.81955 17
581 2 11.6099 2.52242 10.6881 20
582 2 6.84338 6.34606 -4.89095 18
583 2 6.47704 8.49208 -5.90792 18
584 2 11.429 5.97425 -1.69583 19
585 2 1.11864 14.7757 0.779517 14
586 2 -10.951 -7.12479 -2.60988 11
587 2 -10.5926 -0.259823 -0.83202 16
588 2 -5.30099 -9.43404 -6.41438 12
589 2 9.85474 -6.393 3.29209 16
590 2 9.96101 -4.42309 9.77943 18
591 2 -4.32665 10.9779 -1.76 11
592 2 9.95938 2.84797 0.00608617 21
593 2 7.10372 0.39777 14.0128 15
594 2 0.791967 -1.96014 -12.7572 13
595 2 5.4839 6.58121 4.81884 22
596 2 7.70729 6.10924 7.33434 20
597 2 -0.741691 -3.3437 13.5579 21
598 2 -4.93984 7.16592 6.45171 22
599 2 8.15396 2.10297 -6.25343 15
600 2 -2.0923 -6.92623 -10.0753 13
601 2 -7.19314 0.15966 -1.17853 22
602 2 -7.46162 -0.24847 11.1334 17
603 2 9.20726 10.0653 -4.39021 12
604 2 8.55925 4.52857 -2.66267 19
605 2 13.3302 -6.88955 5.31743 9
606 2 -6.42403 5.95008 3.13724 21
607 2 0.347837 10.0965 4.73018 23
608 2 -2.75707 7.98567 -7.25074 13
609 2 4.77469 3.26185 -7.94234 20
610 2 -0.580101 1.42648 -7.22421 23
611 2 -6.8188 -5.28513 4.40871 22
612 2 7.25333 -3.99118 -2.68051 24
613 2 6.0783 -5.80785 3.08168 21
614 2 -5.27644 8.79232 3.08674 22
615 2 -1.921 -4.32457 5.8349 22
616 2 -6.26128 5.43278 -0.976517 16
617 2 5.27021 -8.18239 0.950205 20
618 2 2.78048 6.69412 10.5656 15
619 2 5.00014 3.25318 -11.1242 14
620 2 3.54973 8.12438 -7.82265 16
621 2 7.97902 3.39586 -10.794 11
622 2 -1.54082 12.3361 -0.708652 18
623 2 -5.94725 -2.98697 11.7484 16
624 2 2.08573 -7.49555 10.4819 13
625 2 -2.23725 -5.42662 9.18294 19
626 2 -11.7907 -2.83903 -1.16181 13
627 2 -7.93663 -5.3743 7.75941 16
628 2 1.1184 4.00985 -6.94482 21
629 2 9.12614 -0.932044 -1.86302 19
630 2 4.95759 -2.35954 8.75192 20
631 2 5.62165 -1.22858 -7.88593 18
632 2 8.34222 6.11852 0.0421174 23
633 2 6.51343 12.2191 10.483 10
634 2 4.31515 -0.106693 -5.43808 22
635 2 -5.23318 -2.57565 4.21841 23
636 2 -2.52025 11.0073 -6.6449 8
637 2 -2.7602 4.64125 10.9765 15
638 2 3.57309 -11.7334 1.42214 16
639 2 -5.68432 -9.39925 9.08075 16
640 2 2.00579 -2.53075 8.80986 23
641 2 10.2549 5.29286 -9.46749 10
642 2 7.03023 11.5953 2.10243 15
643 2 -1.00213 -10.205 5.70884 15
644 2 3.47533 -6.12448 -4.6373 21
645 2 2.21983 2.88112 -11.1461 13
646 2 0.0945376 -0.330065 13.6019 18
647 2 5.07659 1.06051 11.5249 20
648 2 10.6864 -5.44934 7.23344 16
649 2 2.6012 0.254882 -12.2456 11
650 2 10.3748 -8.06668 -5.51243 14
651 2 -6.99068 12.9396 1.77769 11
652 2 2.66208 -8.45864 -10.1295 8
653 2 2.27025 -2.37234 15.938 12
654 2 -5.62917 6.22717 -4.82677 14
655 2 11.7532 -9.84222 0.466859 12
656 2 4.98487 11.2057 5.0244 20
657 2 11.0424 8.97338 4.40307 14
658 2 11.2763 2.20617 3.31415 18
659 2 -6.81983 0.10078 3.8077 25
660 2 -3.66745 5.51651 -2.20858 21
661 2 -3.60824 3.28072 -4.46237 23
662 2 12.6705 5.15092 -4.06736 10
663 2 -10.5186 5.85426 -0.933535 9
664 2 3.28376 -5.60303 8.3379 20
665 2 3.10709 -1.36678 11.4942 21
666 2 7.07897 -12.0589 -3.95677 9
667 2 -0.689135 -4.59952 -12.3942 12
668 2 5.43642 12.26 -0.89771 15
669 2 8.70254 11.7391 -1.60491 12
670 2 -6.15463 -3.12164 -0.926275 21
671 2 -7.17755 -11.4688 -3.29427 6
672 2 11.7341 3.64384 8.00108 20
673 2 -7.87351 9.44702 1.69569 12
674 2 6.72499 -10.8403 1.97451 16
675 2 9.58994 -0.472612 2.67804 23
676 2 -1.18411 -2.76773 8.62502 22
677 2 -4.5895 -6.30413 -0.799529 18
678 2 -2.7018 10.8966 8.83068 13
679 2 3.38802 11.7169 2.75322 21
680 2 -9.54923 5.87062 4.60011 16
681 2 0.189639 -8.82362 8.93762 10
682 2 -0.17086 13.5276 3.80664 17
683 2 0.414077 -11.0831 2.89062 15
684 2 1.38266 -4.62668 6.15641 21
685 2 8.64684 3.37921 9.95668 19
686 2 -6.41115 11.5686 4.21469 18
687 2 -4.71434 7.26209 0.362129 18
688 2 -2.57069 -1.66923 15.712 11
689 2 -5.09234 -7.39595 -9.35313 11
690 2 11.987 1.41049 0.742631 16
691 2 5.55146 -6.6204 -2.02252 23
692 2 -3.33483 9.76412 0.0182387 19
693 2 -3.45009 -4.48629 15.5595 11
694 2 -8.70105 0.921554 1.78684 23
695 2 11.8579 -7.14736 -0.595782 14
696 2 7.19829 9.42631 -0.144942 18
697 2 -0.0406688 -1.4595 11.1515 23
698 2 1.68853 1.32034 11.1854 21
699 2 3.26917 5.53768 -9.64589 16
700 2 -11.4846 2.76999 -0.390569 13
701 2 0.445848 -5.55219 -4.29801 22
702 2 1.54878 8.81955 -2.23498 21
703 2 -2.41858 -1.72892 -12.476 12
704 2 2.84425 -4.51597 -7.34218 20
705 2 0.187159 -9.44397 -0.970606 19
706 2 10.474 -4.54473 12.269 10
707 2 6.3788 0.372758 8.77444 21
708 2 12.8902 -7.03017 2.38909 13
709 2 4.36894 -8.68683 3.63319 22
710 2 7.64632 8.28738 9.19987 15
711 2 0.911891 11.8124 8.72718 11
712 2 -12.4776 -3.94686 1.28155 12
713 2 10.6329 7.64328 -4.08348 13
714 2 8.32312 -4.54551 5.24019 21
715 2 -3.45029 14.5466 4.92217 12
716 2 7.56096 1.71241 -2.66982 19
717 2 5.25631 3.03353 8.96128 20
718 2 -4.47109 3.77648 8.24451 20
719 2 4.83315 10.6475 -7.16666 12
720 2 8.99618 -0.169053 -9.92778 12
721 2 -3.14573 0.84427 8.98642 21
722 2 -0.47306 -4.8719 15.6902 12
723 2 14.1215 3.38855 12.1513 10
724 2 6.78241 0.979171 -9.02764 17
725 2 -10.8972 -6.92741 2.91796 13
726 2 3.08244 -11.155 4.07069 13
727 2 11.6676 -5.18163 -3.97514 11
728 2 1.93459 8.47734 2.54937 19
729 2 1.47945 -5.40836 -10.259 15
730 2 -9.81442 0.554439 9.68793 14
731 2 -6.35605 -1.5171 6.82873 20
732 2 3.1753 -11.2598 -4.52215 13
733 2 3.38824 -9.67264 -1.42434 22
734 2 1.70354 -12.3555 -1.81219 12
735 2 11.8927 -1.74502 1.05054 15
736 2 0.817711 7.523 -7.47849 16
737 2 7.47916 13.2619 6.2823 10
738 2 -9.09983 -9.06492 -2.3399 12
739 2 7.60479 3.01366 12.1462 16
740 2 -4.88574 0.3331 11.8468 16
741 2 -1.7742 8.47133 -2.61978 21
742 2 -2.87152 4.21152 -7.39015 18
743 2 -1.59572 -6.83735 -6.65969 16
744 2 -1.59412 -11.5406 0.453838 14
745 2 -7.78802 8.14052 4.6931 17
746 2 9.50058 7.21677 -6.54038 11
747 2 0.948884 5.99169 -4.58516 22
748 2 2.96671 9.07716 -5.49257 21
749 2 -4.05271 -2.22303 -9.54878 16
750 2 2.23534 -6.52991 -1.46942 23
751 2 -9.80246 -3.71374 -3.83186 12
752 2 1.98748 8.90729 8.62134 17
753 2 2.53241 0.982715 -7.58905 20
754 2 -5.1365 -5.649 9.88174 19
755 2 9.24869 0.937831 8.56875 17
756 2 4.18083 3.93917 11.6703 14
757 2 11.5553 3.0693 -5.68991 13
758 2 1.13295 11.23 -6.45915 12
759 2 -0.25726 11.325 -3.60749 14
760 2 13.8495 1.26718 8.8597 14
761 2 -5.7132 3.33142 -5.90169 12
762 2 3.97913 5.63174 -5.87908 26
763 2 5.04734 -2.29611 15.4661 15
764 2 -3.00166 -5.20153 -3.65732 20
765 2 5.69736 -2.27374 12.9545 18
766 2 -1.42183 3.42838 8.64354 22
767 2 7.74586 -10.2915 7.88894 11
768 2 9.75088 -11.2972 -4.0481 8
769 2 -8.04623 6.88744 7.3814 16
770 2 6.04604 -12.0339 4.02125 10
771 2 3.92106 10.9979 -2.61288 19
772 2 5.23633 9.97006 8.59763 15
773 2 -10.9395 2.9968 -3.11142 8
774 2 1.52405 13.2475 -2.84472 14
775 2 -7.74809 -5.89677 -0.979799 21
776 2 2.34767 -2.81303 -10.1865 14
777 2 -6.30067 4.31891 5.80402 23
778 2 13.3282 -4.86585 8.27094 10
779 2 -0.481537 8.8841 -4.71549 20
780 2 -6.60677 1.09912 9.30937 19
781 2 -3.89428 -10.6959 -4.30672 15
782 2 -1.21944 12.5836 6.53735 16
783 2 -3.34337 -4.74397 -11.1885 13
784 2 -3.83279 0.74397 -6.90759 18
785 2 0.635083 0.184756 -9.65631 22
786 2 -0.611108 1.20414 -12.1786 12
787 2 -6.48088 13.9268 5.31825 10
788 2 -4.36432 9.11673 8.2659 14
789 2 6.61035 11.5977 -4.33112 12
790 2 -1.77685 -8.15556 -3.79264 19
791 2 10.214 1.99518 -8.81465 14
792 2 8.1783 -3.57444 -6.29675 17
793 2 -5.03428 -11.4507 0.814295 13
794 2 -5.11576 8.55214 -2.6711 17
795 2 -4.72435 -4.28016 7.04133 21
796 2 2.79359 2.83613 -5.05729 21
797 2 0.95147 -8.83559 4.09224 20
798 2 9.31516 12.0327 9.24523 10
799 2 8.49813 -2.25003 8.50102 18
800 2 -4.74831 -1.98169 9.21392 21
801 2 12.197 4.78204 -7.82399 9
802 2 0.120476 7.76587 10.5121 12
803 2 -1.6239 -6.18015 -1.10997 22
804 2 -10.6042 -6.14772 -0.114273 16
805 2 -8.52477 -7.75521 8.6107 12
806 2 -5.28225 1.24153 6.24994 23
807 2 -4.1758 8.87681 -5.1185 15
808 2 -6.30838 -8.79574 0.0784715 16
809 2 -4.76245 12.4577 7.18247 14
810 2 10.4488 -1.38947 10.8697 15
811 2 10.54 9.72074 7.39121 14
812 2 -3.30682 -10.8706 3.11768 16
813 2 -8.81553 -2.68876 9.80957 13
814 2 -10.0324 3.58281 2.02621 21
815 2 0.153497 0.510799 8.6193 22
816 2 6.74485 -4.81633 8.4017 22
817 2 2.50501 -5.89458 3.40298 20
818 2 10.4526 3.46681 5.72678 21
819 2 10.4977 -4.20736 -1.39585 18
820 2 -1.58643 8.6371 2.75969 19
821 2 -4.2945 -2.41685 -3.84053 19
822 2 -3.18987 -1.41914 6.59804 21
823 2 8.66997 -7.01956 9.64747 13
824 2 0.66779 -6.44829 13.3876 16
825 2 8.06208 -5.79355 12.3764 12
826 2 6.08876 2.91013 -4.95842 20
827 2 10.9661 6.98411 7.53571 18
828 2 6.27646 -4.29125 -8.36751 18
829 2 10.1895 -2.3454 5.44423 18
830 2 13.2436 3.54594 -0.748398 12
831 2 10.4266 -9.24623 -2.1487 15
832 2 4.34887 7.08054 7.73784 21
833 2 13.1587 2.87225 5.48173 16
834 2 -0.163856 -7.24937 7.05774 20
835 2 6.21091 -7.01773 5.71474 18
836 2 -6.85875 -7.80237 11.3874 12
837 2 8.96705 -8.95995 0.47796 21
838 2 12.7128 -1.85379 7.32214 13
839 2 13.155 -2.323 10.4411 12
840 2 5.14074 -6.13881 10.7308 14
841 2 7.93289 -3.11761 3.01772 20
842 2 -11.1629 3.78703 9.89446 10
843 2 -2.57065 6.89232 8.66119 19
844 2 5.77544 5.05011 -2.94015 19
845 2 7.73851 -9.85852 -6.30149 13
846 2 3.23437 -10.0112 -7.41202 11
847 2 6.56753 -2.17505 -10.5518 10
848 2 -5.67239 -1.60531 -6.99877 13
849 2 8.71372 10.842 4.72365 17
850 2 -8.89749 -3.30998 -1.27173 19
851 2 14.19 4.77742 7.39857 11
852 2 -5.21426 0.788857 1.21322 23
853 2 7.53033 -5.55406 0.0564187 25
854 2 0.0474416 9.24769 0.354829 20
855 2 12.3345 5.83513 4.96478 15
856 2 7.55064 7.9411 -2.42836 21
857 2 5.33276 -10.527 6.64922 13
858 2 -10.1229 -1.40343 7.31451 12
859 2 12.2717 5.56737 14.102 10
860 2 11.8302 -3.55962 3.91746 16
861 2 4.98432 -4.39113 6.20688 22
862 2 10.2565 10.8134 1.55827 14
863 2 -5.54265 -2.28164 14.3511 12
864 2 -12.0328 1.52641 2.54747 10
865 2 8.96466 -2.62486 0.425648 20
866 2 9.81659 -11.2319 2.28297 12
867 2 -4.23306 -7.18235 -5.31249 17
868 2 5.19958 8.4371 2.72792 20
869 2 6.81477 -9.31855 -0.891355 22
870 2 3.40824 9.25316 5.96027 19
871 2 -2.34975 -8.40353 4.16661 20
872 2 -1.03563 -7.84211 11.4221 14
873 2 -8.43066 -3.62514 12.9388 11
874 2 -6.24381 -4.34686 -8.05825 12