ITEM: TIMESTEP
528000
ITEM: NUMBER OF ATOMS
2000
ITEM: BOX BOUNDS pp pp pp
-30.0 30.0
-30.0 30.0
-30.0 30.0
ITEM: ATOMS id type x y z Coordination
1 1 -10.1202 5.48588 -11.5043 17
2 1 -4.24002 -10.496 -14.2311 12
3 1 0.705851 12.5301 13.5161 15
4 1 4.34702 -8.78518 4.69365 23
5 1 -10.856 8.07562 -1.74695 22
6 1 12.6002 -7.01134 -9.36296 16
7 1 -10.7071 0.914555 -5.4355 23
8 1 -2.28526 -9.68126 12.2352 14
9 1 -8.36323 7.39241 -9.1305 20
10 1 -9.34644 -6.49525 5.63239 25
11 1 13.1216 6.3929 -9.07511 14
12 1 -2.66961 2.24004 -5.5312 23
13 1 -9.06403 -16.4263 1.68539 12
14 1 -11.347 -8.6214 4.16827 19
15 1 0.407634 3.23904 17.3562 20
16 1 7.62049 -1.44209 8.1526 22
17 1 -1.60011 3.7041 10.0778 23
18 1 6.33681 -1.71998 3.27358 20
19 1 -1.05276 12.0801 -13.0176 14
20 1 0.770011 -1.00604 13.0747 23
21 1 -7.19905 -3.27794 -16.0918 13
22 1 -10.5336 -2.64298 9.35614 13
23 1 15.6113 1.16485 5.49358 13
24 1 -1.23531 3.47107 -14.3811 20
25 1 0.82112 2.40313 -9.3872 22
26 1 14.7281 0.458025 8.41087 15
27 1 -7.15926 0.468215 1.4639 23
28 1 -13.1741 5.15082 -10.7849 13
29 1 -1.60896 -4.23034 -4.73021 20
30 1 -11.6227 11.8009 6.93171 12
31 1 7.32493 -9.88416 5.91217 17
32 1 1.38386 -0.537431 10.0186 22
33 1 1.63747 -12.4094 -9.67501 17
34 1 9.42782 -10.9435 -1.71381 23
35 1 -7.88648 -12.7904 -6.0827 16
36 1 -11.2306 -5.18908 7.56619 15
37 1 3.28884 -3.15143 -4.19341 23
38 1 3.17801 -7.37744 -12.0674 22
39 1 11.5519 -8.76079 -11.8173 10
40 1 1.33149 2.55486 -12.5703 24
41 1 -0.152576 5.90054 11.7976 24
42 1 -0.623409 -11.4816 6.89762 23
43 1 3.85526 -5.07555 15.3087 13
44 1 -11.6034 -0.105841 0.718218 24
45 1 -14.6682 -0.105708 5.13082 12
46 1 -9.14888 -1.85735 -0.327429 22
47 1 -4.88466 12.1763 -5.69513 21
48 1 -3.48128 -14.8722 -7.87184 17
49 1 -1.69855 -1.30617 -8.48226 24
50 1 4.63692 -4.91949 -10.1588 22
51 1 -3.13174 -6.4106 11.9264 19
52 1 -13.2695 5.71206 -2.79423 22
53 1 1.5551 11.3103 -11.3118 17
54 1 -0.315659 9.17301 8.53629 23
55 1 -9.63387 6.34882 -3.68578 22
56 1 -1.27159 11.8152 0.541304 21
57 1 -1.43266 -15.3243 2.51051 20
58 1 8.12905 -8.70695 0.578239 22
59 1 8.37205 -4.20939 -13.8102 15
60 1 -6.32067 9.96293 10.0959 23
61 1 -11.9036 -1.43875 -9.68465 18
62 1 10.2853 -0.753795 7.31571 24
63 1 -6.33328 4.96054 -5.2344 23
64 1 -8.26007 -8.12436 3.42745 24
65 1 0.98945 14.38 10.4488 16
66 1 -14.1547 8.39262 -8.87378 11
67 1 -2.73958 9.13282 16.6738 10
68 1 -0.482827 4.28653 -6.97059 23
69 1 -0.584366 5.55181 4.21071 25
70 1 -2.00775 -16.6725 8.141 10
71 1 1.83756 4.1597 6.17754 24
72 1 6.85021 -13.8832 -2.48402 19
73 1 5.95536 12.0038 14.3428 14
74 1 -13.44 5.41282 -7.84168 16
75 1 -11.1234 7.4568 -9.64526 18
76 1 3.54862 3.11208 16.8187 19
77 1 10.9862 -1.98473 -7.20896 25
78 1 11.432 -11.3971 0.241176 14
79 1 -14.9606 -0.461091 1.73523 16
80 1 -8.99097 -1.36723 2.77705 22
81 1 7.88395 15.5094 5.32265 14
82 1 -0.891024 0.622814 18.701 12
83 1 -4.78673 -15.6285 6.3598 17
84 1 -14.4013 0.839669 -1.12697 20
85 1 13.4063 2.91575 3.04517 22
86 1 8.73885 -3.55505 -2.98467 23
87 1 -0.639929 9.38915 12.0502 23
88 1 4.67619 -0.0724647 9.08196 22
89 1 -5.62863 -5.9572 1.82693 23
90 1 -2.13074 -9.71534 -9.71638 22
91 1 -11.214 8.56504 7.47473 18
92 1 -8.67587 11.8931 -1.97476 23
93 1 -3.98433 8.75259 -5.96928 19
94 1 2.44728 0.237931 -4.61277 23
95 1 6.20544 -2.25173 -4.97367 23
96 1 8.09054 11.4253 -5.42433 22
97 1 2.71822 -7.09564 10.3318 23
98 1 7.06037 -6.23015 14.1527 15
99 1 -6.26004 17.3498 -4.42257 10
100 1 -11.1107 12.9551 4.19415 13
101 1 -7.3047 -2.2345 13.3764 13
102 1 -6.20331 6.31065 6.05674 22
103 1 -4.31634 -2.63684 12.1008 22
104 1 14.8187 -8.14731 -7.33104 12
105 1 -5.6076 3.0548 6.37902 23
106 1 -11.7219 -14.5379 2.25476 11
107 1 9.42435 -6.80823 -5.02935 21
108 1 3.67498 1.6131 -10.2618 22
109 1 -9.59231 1.78283 -14.2797 13
110 1 5.10095 -0.322923 5.96949 23
111 1 2.77313 15.134 2.04443 20
112 1 -10.0174 9.48334 -7.02992 22
113 1 0.939282 6.40008 16.3993 18
114 1 0.200584 18.6781 -3.38877 13
115 1 -14.2074 12.3627 -3.64761 8
116 1 -1.22338 8.79805 4.04309 23
117 1 -0.452285 1.30565 -3.19466 22
118 1 -4.91678 -8.79947 10.2069 21
119 1 13.0455 -2.49844 9.13399 16
120 1 -6.15985 -2.29979 -12.4759 21
121 1 3.48993 -6.12699 -3.90169 22
122 1 -1.19713 0.662291 10.613 22
123 1 6.14501 -2.77319 16.4756 10
124 1 -8.59881 -8.88496 -4.47548 22
125 1 5.50684 -3.37197 5.95045 23
126 1 -7.84334 -9.22789 -7.55153 27
127 1 10.94 -8.22833 0.0632886 20
128 1 -9.01856 7.17874 3.92466 21
129 1 7.98188 -1.2278 -14.0302 14
130 1 5.28586 16.2459 0.755081 13
131 1 -7.02569 -10.8255 8.80593 21
132 1 -8.317 -12.9281 6.33013 22
133 1 -7.81592 3.7308 0.877791 24
134 1 5.78462 -8.69219 -13.8054 16
135 1 2.57459 4.85031 -7.58052 23
136 1 10.2963 -10.1051 -4.35838 21
137 1 0.192984 -14.7258 6.44445 17
138 1 -9.70137 -10.1758 -1.32012 19
139 1 16.829 6.6954 7.3998 8
140 1 14.2132 -1.81392 -7.95465 12
141 1 -14.0994 -3.57845 1.92089 15
142 1 8.77363 8.76995 6.18105 23
143 1 15.2655 8.27254 1.56181 12
144 1 -6.82951 5.03297 13.1793 22
145 1 6.10245 4.80338 -0.842829 25
146 1 -4.66804 12.2229 11.7891 14
147 1 -7.22639 8.12879 -5.19525 21
148 1 -1.90982 -5.03255 -12.6264 22
149 1 9.81522 -10.7295 -9.49228 16
150 1 2.63462 7.57258 -14.1362 16
151 1 9.11177 -3.33087 14.2307 15
152 1 0.582553 -2.87472 -17.7015 16
153 1 -4.71449 11.9469 -8.79218 21
154 1 7.79333 2.82115 -6.49936 23
155 1 -10.6182 9.75478 -4.21927 21
156 1 2.48988 -2.93845 -0.896788 22
157 1 -9.80696 14.7609 -2.35911 15
158 1 6.35201 0.207388 -11.565 23
159 1 9.98377 -9.46841 5.93837 12
160 1 -5.2469 3.41153 -7.54585 21
161 1 -7.01792 13.2037 9.68198 11
162 1 12.4551 9.28167 -9.58185 12
163 1 -1.76029 3.20155 -0.589216 22
164 1 4.67802 11.1603 -1.6057 21
165 1 -2.51032 15.012 0.272891 21
166 1 7.42737 9.94378 0.806281 23
167 1 -5.7846 10.7762 -2.96318 21
168 1 3.38993 15.8046 -8.00289 9
169 1 0.921411 5.71676 -12.6018 24
170 1 -11.5439 -12.2459 -0.0365122 14
171 1 -13.3517 10.7376 -6.32415 17
172 1 -7.54221 -4.29923 -10.5646 20
173 1 -1.81041 -7.33355 -18.048 14
174 1 11.4804 7.72981 4.99616 22
175 1 -0.639747 13.9435 5.71473 21
176 1 -11.5413 -4.4647 -6.55421 22
177 1 -11.2524 12.7283 -4.08543 18
178 1 14.3505 -0.804022 -0.0405306 17
179 1 -9.9413 2.23094 -11.063 22
180 1 5.05087 0.700938 16.8347 16
181 1 2.43827 18.3653 2.72157 9
182 1 -4.41521 8.24388 7.89275 22
183 1 3.32433 -10.6473 -14.5668 13
184 1 -1.81464 11.9309 3.61278 22
185 1 -0.652415 13.5088 -2.05283 19
186 1 0.445831 -5.59162 15.9797 11
187 1 -9.90017 -3.39215 5.45647 22
188 1 -3.06499 -12.965 -14.2338 11
189 1 -5.2179 14.9442 -9.76389 13
190 1 -4.76296 -12.5511 2.38484 22
191 1 6.31402 -14.5474 -5.7222 15
192 1 -4.11635 13.4415 -11.6753 14
193 1 -15.1574 2.84708 6.70794 12
194 1 0.525495 7.00482 -1.6774 23
195 1 7.72171 11.3724 -2.30696 23
196 1 -8.20589 7.5203 14.5762 14
197 1 0.767427 -9.24399 8.6152 23
198 1 -9.68241 1.62999 -1.01783 23
199 1 1.25441 16.0382 4.67911 15
200 1 3.69187 6.50503 8.32845 21
201 1 13.6349 4.62423 12.514 13
202 1 -7.99886 12.6129 2.51086 20
203 1 12.4104 -3.76417 -9.59132 16
204 1 -6.27153 14.5926 4.77588 13
205 1 -4.38287 -0.0703942 -7.5008 23
206 1 12.7532 -6.13368 1.86511 16
207 1 -1.29854 -8.35261 6.34661 22
208 1 -16.4592 2.23231 3.56936 13
209 1 -7.14545 -14.7521 4.49873 20
210 1 4.96133 7.03181 12.8913 21
211 1 -14.2098 0.131392 -4.06909 23
212 1 -3.85263 0.852315 0.622139 24
213 1 -3.09489 -14.3268 -0.0594616 19
214 1 -1.60781 -0.00372512 2.65228 26
215 1 -5.3246 -1.4544 -4.39938 25
216 1 3.64519 -9.56124 -0.252438 23
217 1 -3.40084 9.97049 1.73661 22
218 1 -7.24665 0.559912 4.73447 25
219 1 6.31158 14.1643 11.4954 16
220 1 -8.0606 -0.215068 -3.34149 26
221 1 -2.17101 15.7691 -10.1371 12
222 1 -14.4835 -3.3334 -8.61714 13
223 1 -9.78263 0.399459 9.21975 20
224 1 -5.18808 -9.20083 2.31775 24
225 1 6.81024 -9.3618 8.78948 17
226 1 -12.3207 11.6359 2.04841 14
227 1 15.7907 5.11253 1.87179 13
228 1 5.31832 3.69069 -8.60534 22
229 1 -4.35677 -4.62716 -17.5604 11
230 1 3.2762 1.37715 11.9042 22
231 1 -2.6739 -5.77784 1.28874 22
232 1 3.88922 -12.6451 -0.312337 23
233 1 -4.17335 4.79561 -12.9604 21
234 1 3.86713 -10.6799 -11.6537 16
235 1 12.219 -0.431475 -9.83897 14
236 1 -1.98419 6.71759 -13.9087 23
237 1 -6.03125 -2.05836 -9.06578 23
238 1 -2.74998 14.3567 -7.35415 21
239 1 -9.60379 -8.87159 8.7224 18
240 1 7.03656 14.6265 -2.13102 16
241 1 -6.71566 4.84529 16.3159 12
242 1 -5.54952 15.2519 -6.2954 20
243 1 9.06272 1.01004 10.0064 22
244 1 -1.64471 -8.15043 -12.6503 19
245 1 -6.48066 9.71605 -10.9659 17
246 1 1.24665 -0.731421 -8.91072 22
247 1 -5.6305 -12.4821 6.14034 22
248 1 -2.30941 3.31844 2.78102 22
249 1 -11.913 6.80001 10.0894 15
250 1 -2.91136 10.4109 9.5932 24
251 1 -1.36971 -13.1966 -9.64515 17
252 1 -7.37244 -14.9099 -3.61839 15
253 1 12.3511 -9.22225 -2.25334 16
254 1 -3.09307 1.59067 5.47036 24
255 1 -3.38573 -2.1465 1.01742 22
256 1 3.53063 -6.10145 -0.802145 23
257 1 12.8208 7.55467 13.0965 14
258 1 4.32925 7.09964 -5.43387 21
259 1 0.0990677 10.3254 -2.0524 19
260 1 -9.62688 1.89183 2.48409 24
261 1 -10.4244 12.6659 -7.2077 16
262 1 5.91654 5.31342 10.4703 19
263 1 3.80011 -15.5921 0.278389 17
264 1 9.72583 2.00843 -1.2954 22
265 1 1.20406 7.52634 6.19223 24
266 1 -9.17381 10.4061 0.57059 21
267 1 -9.28098 -5.5613 -4.56152 22
268 1 3.9394 1.308 -13.6333 25
269 1 0.0250249 -2.04695 16.1714 17
270 1 10.3418 9.66612 -11.4312 10
271 1 1.57699 -8.4588 -2.60468 21
272 1 -3.55609 -3.44422 -10.1572 24
273 1 3.20611 -13.8544 5.67761 14
274 1 8.17321 2.4802 -9.59728 22
275 1 -6.95884 -2.60656 4.65541 26
276 1 4.8931 -16.292 -3.23 14
277 1 -6.95974 -3.77184 -5.97936 21
278 1 3.43155 14.7751 -1.28495 18
279 1 2.44396 -3.84302 -12.3224 25
280 1 2.12093 0.213819 17.4252 16
281 1 16.2833 1.86876 2.28482 12
282 1 -4.46672 -7.71044 -0.500415 24
283 1 9.48719 -4.25246 -9.08871 22
284 1 -1.838 -12.1127 2.14159 21
285 1 -5.05327 -0.769368 -15.1924 17
286 1 -13.2231 1.83832 -7.22806 22
287 1 -6.86575 -13.3475 9.56303 13
288 1 12.5366 1.1888 5.62295 23
289 1 6.15877 -6.53219 9.18261 22
290 1 -5.0164 -5.81534 -11.9351 24
291 1 4.68245 -5.30788 12.0313 21
292 1 4.68325 6.89037 -8.87156 22
293 1 4.75632 8.10304 2.31521 22
294 1 -3.06224 -10.4674 4.71794 24
295 1 0.988806 10.7734 2.44485 23
296 1 -6.13854 -2.30805 9.15265 20
297 1 -7.22421 -7.73652 -10.0651 22
298 1 -3.03316 -6.64693 -9.84305 24
299 1 -0.478899 8.0267 -16.3562 13
300 1 -3.32212 -11.1484 -3.6097 24
301 1 -1.88405 -8.61957 1.52825 22
302 1 -6.25459 -7.04149 -5.8503 23
303 1 7.18486 -3.07697 -11.3263 23
304 1 14.1158 1.46857 -8.9892 9
305 1 1.24636 -4.02974 5.20698 21
306 1 11.4878 4.07207 0.391036 22
307 1 -4.65219 -4.60496 -3.95023 22
308 1 -7.82762 -4.37504 7.58795 22
309 1 -5.64709 -12.9644 -2.18407 24
310 1 9.45804 4.45111 16.9839 10
311 1 -2.73657 -13.6912 4.85503 22
312 1 2.03637 3.53458 -4.65703 24
313 1 1.75702 -11.8558 -1.74822 22
314 1 -1.72714 17.5102 -1.1108 16
315 1 4.72271 -2.04427 -13.4048 23
316 1 -4.31972 -4.06502 -14.8853 22
317 1 2.05137 -4.72931 1.72 22
318 1 -6.89393 -7.47572 7.74835 22
319 1 2.35732 4.8734 13.4709 22
320 1 4.1184 -9.78411 -3.58863 22
321 1 -4.26942 -12.1291 -11.299 18
322 1 -12.1031 7.31757 -5.64801 21
323 1 9.80462 2.63971 7.01459 21
324 1 -7.91688 4.31548 -9.49095 20
325 1 -3.30052 8.49577 -9.19875 21
326 1 -5.63644 -9.38672 5.50641 21
327 1 8.03355 -12.9678 -7.61837 14
328 1 -4.82221 16.5043 -2.00767 15
329 1 0.603192 10.9135 5.87184 21
330 1 13.21 -1.51287 6.25487 18
331 1 -2.79248 -1.59905 8.7173 22
332 1 -1.73241 -8.22039 9.72277 19
333 1 -2.45943 10.3044 6.23407 23
334 1 7.01872 -6.55883 -15.9165 13
335 1 12.9325 9.49483 -0.89412 14
336 1 0.757996 -13.5145 0.890645 23
337 1 -2.3468 -1.28553 13.8076 20
338 1 -12.0737 -1.84203 3.41077 24
339 1 1.41357 -17.3653 -3.9432 19
340 1 -7.77067 8.66066 12.4425 18
341 1 -10.1912 5.41947 14.8023 14
342 1 -12.8281 -2.07084 6.75597 14
343 1 -11.8746 -5.0999 3.80807 20
344 1 15.0195 -4.21676 0.953253 11
345 1 -10.6145 -6.20324 10.2708 12
346 1 10.0164 1.86135 -4.35218 22
347 1 11.9728 -12.5958 -3.55957 12
348 1 1.17058 15.6253 -3.53233 20
349 1 -3.92157 -3.92141 3.73698 23
350 1 -9.15476 14.9682 -5.63061 15
351 1 -0.650688 0.473995 7.31768 22
352 1 9.77716 9.63995 10.6466 20
353 1 -6.82092 -6.8178 -2.6875 22
354 1 7.34584 -9.474 -3.94923 20
355 1 -0.951138 8.54046 0.705388 22
356 1 -5.87164 6.05398 2.47555 24
357 1 -0.148031 2.3402 4.46624 24
358 1 9.18803 -7.74662 8.13888 17
359 1 12.3243 -7.42529 4.5801 14
360 1 -2.15987 7.13478 6.89111 22
361 1 -7.37903 -0.299861 -6.61024 24
362 1 3.49876 -2.29071 3.41967 21
363 1 -3.1462 2.82166 17.9912 10
364 1 -0.913412 12.4869 8.32999 21
365 1 10.0439 7.12469 14.5825 15
366 1 -3.78184 17.4352 -7.32009 13
367 1 1.09022 -6.21118 -17.7403 14
368 1 -5.80848 1.61437 -4.69608 24
369 1 8.11074 -9.17045 -11.5244 16
370 1 -8.29862 3.09901 15.0514 15
371 1 -16.4502 4.55296 1.24306 14
372 1 1.21923 -5.66224 -5.85366 21
373 1 -5.25517 7.57209 0.207851 23
374 1 6.91918 -0.981197 11.1064 20
375 1 -9.00239 -13.7073 2.4034 20
376 1 11.8638 -7.65351 7.43355 13
377 1 -4.45029 4.16623 0.123438 23
378 1 -7.68359 -7.86361 11.0155 17
379 1 -13.2815 9.38256 -0.412309 16
380 1 2.04738 -4.0085 10.3288 23
381 1 2.87911 -11.9974 -5.66297 20
382 1 -3.98402 -3.00841 -6.81952 22
383 1 5.78678 -3.4661 -15.8967 15
384 1 2.73457 12.8648 4.42204 22
385 1 -9.46428 -2.15571 -4.7434 21
386 1 1.18004 -8.97709 -10.2538 24
387 1 6.83023 5.36739 -14.8792 11
388 1 -6.55476 -15.8297 -6.56867 14
389 1 -12.8662 -6.77432 -8.60059 16
390 1 -3.77944 -10.7232 -0.327428 22
391 1 12.0204 4.46002 15.0889 13
392 1 -2.7933 -2.47159 -2.3921 24
393 1 12.3946 3.59938 -5.79752 21
394 1 -5.65742 6.38761 -10.9627 20
395 1 3.35362 17.7036 -1.79576 12
396 1 -15.5062 -1.78163 -6.05974 16
397 1 2.89564 1.16743 3.22167 24
398 1 -7.05546 9.12688 5.8727 21
399 1 -6.2181 10.8392 0.2602 20
400 1 -5.47116 3.21429 10.7453 21
401 1 10.7147 6.04945 11.0357 22
402 1 13.0278 -7.29563 -4.93533 18
403 1 6.44041 -2.72219 13.5482 21
404 1 10.6268 1.29471 -7.64631 24
405 1 -2.07034 -18.293 -3.24995 12
406 1 2.65435 1.16154 6.65071 21
407 1 -8.36357 6.98122 0.575054 21
408 1 -3.84329 -7.83986 -3.93015 25
409 1 -5.31834 11.5129 7.56717 23
410 1 5.26065 3.89473 -5.41353 24
411 1 -8.69724 2.98373 -3.67094 25
412 1 6.30114 -10.8159 -1.24621 24
413 1 14.057 -4.89624 6.46582 10
414 1 -9.13029 -2.46922 -7.98216 21
415 1 -7.60007 -8.16764 0.215777 21
416 1 -8.82807 -5.78619 13.4016 10
417 1 -3.44857 9.77086 -1.26799 21
418 1 -10.8012 -7.84442 -6.35841 25
419 1 7.72648 9.64048 14.5835 15
420 1 -10.1395 4.8502 -1.1546 22
421 1 -0.320864 12.9131 -5.18069 22
422 1 2.90901 9.83166 7.76543 22
423 1 -12.3573 -6.18779 -4.08918 17
424 1 -2.47958 -9.64222 -6.31906 22
425 1 -13.6975 4.62417 2.61808 22
426 1 -13.8466 8.97642 -3.29201 16
427 1 6.28481 -6.66363 6.09539 22
428 1 -0.119428 -10.9186 -4.00711 23
429 1 12.0191 12.0754 8.06164 11
430 1 2.56279 2.83385 -18.7699 10
431 1 -11.223 3.98153 -8.36411 23
432 1 0.238373 14.3806 -8.08759 19
433 1 -11.5207 4.3226 -5.20359 21
434 1 0.239916 -13.3035 3.98749 22
435 1 13.1885 6.20465 2.48354 22
436 1 -3.16258 10.3528 -11.6728 19
437 1 -7.53275 4.62553 8.73717 22
438 1 -15.2699 3.91679 -1.14555 20
439 1 4.08536 2.58764 -2.52494 21
440 1 -9.15381 2.47059 6.44209 23
441 1 -3.25249 -13.4613 8.37151 23
442 1 -0.417321 -7.51633 -8.11446 23
443 1 5.40506 -8.03756 -9.92463 21
444 1 0.0991028 -2.7143 7.99664 20
445 1 -9.61776 5.76646 6.57162 21
446 1 -12.3732 1.6387 7.04053 21
447 1 -12.9661 9.69157 4.53272 14
448 1 0.530377 -9.24588 12.378 19
449 1 -7.49152 4.32134 -12.6633 20
450 1 7.48387 -9.27991 -7.25066 22
451 1 3.44348 -7.46617 -15.4498 22
452 1 -4.12393 0.110315 11.2822 20
453 1 5.71949 -7.70911 -1.40037 21
454 1 -3.43915 4.1833 -16.0703 19
455 1 5.65966 -10.2486 1.85245 20
456 1 0.80926 9.70092 -5.10771 21
457 1 -8.06535 7.80612 8.41776 20
458 1 -5.48634 -2.07731 15.5807 12
459 1 -7.66687 -8.02024 -12.8674 14
460 1 -8.91538 -9.78766 5.84677 23
461 1 10.0685 -6.10148 13.1978 12
462 1 6.2024 1.38816 2.76213 24
463 1 -5.34036 2.82561 3.21178 23
464 1 3.90837 -1.40252 -6.7939 22
465 1 8.16626 -4.49507 8.34726 23
466 1 -0.0902639 5.23018 1.14739 23
467 1 13.2454 9.07499 -4.69465 12
468 1 -5.9366 6.76213 10.5881 21
469 1 2.07278 12.3732 -0.244415 23
470 1 8.24351 -7.77249 11.3794 16
471 1 -1.99912 -13.0015 -6.20922 21
472 1 -2.62236 11.2824 14.1624 13
473 1 -3.37441 14.9013 3.48307 16
474 1 -9.3686 -11.9846 -9.06835 13
475 1 12.4188 15.1682 1.22093 7
476 1 5.60668 8.30853 6.58148 23
477 1 -3.41757 1.70819 8.60812 23
478 1 -6.29718 -9.86311 -2.17179 21
479 1 -8.54687 2.87222 11.4531 24
480 1 -8.72839 -5.76262 -7.67554 22
481 1 -4.83923 11.8691 4.28232 20
482 1 -5.04017 -13.2054 -5.39616 22
483 1 -1.27266 -4.89264 -16.2902 20
484 1 -7.53367 -11.408 3.62378 22
485 1 -6.53542 -2.7473 1.47896 21
486 1 8.47664 0.187269 1.74629 18
487 1 -5.79243 -5.04409 13.1943 15
488 1 -8.30413 7.55142 -12.5671 15
489 1 6.509 6.38406 -3.72285 22
490 1 -9.01511 -13.916 -0.691701 14
491 1 3.25083 1.66511 -7.45372 23
492 1 -4.94945 16.685 1.11061 9
493 1 0.574991 5.63375 -9.75286 23
494 1 2.93384 4.92954 10.9301 21
495 1 -13.7166 -2.87418 -3.75043 17
496 1 0.988106 19.0317 -0.526246 11
497 1 5.3993 12.6596 -4.37838 20
498 1 -5.49121 -5.41434 -8.51878 21
499 1 2.52262 1.6727 19.7939 9
500 1 0.762995 -14.2598 -7.47874 16
501 1 1.03803 -9.34845 -13.0142 22
502 1 8.66217 -11.9056 1.2223 16
503 1 -7.09603 9.06786 2.82064 21
504 1 -0.625785 4.18875 14.3554 23
505 1 6.24966 9.3991 -3.84158 21
506 1 2.39228 9.17055 -0.0215466 24
507 1 -7.57565 12.6888 -11.1207 12
508 1 5.68113 0.781719 -5.23881 24
509 1 -0.14134 -9.92662 3.90501 22
510 1 -16.5667 -1.54869 -2.56072 10
511 1 3.82871 2.32182 0.734357 22
512 1 5.23003 16.998 3.54859 11
513 1 -7.04265 0.965476 -12.3139 22
514 1 9.1203 5.35439 -1.41755 22
515 1 5.47754 12.7592 -7.43582 16
516 1 3.80249 -5.68366 4.28805 22
517 1 14.1954 2.3003 -0.212939 16
518 1 -0.401932 -2.87798 -11.052 22
519 1 0.607391 -10.0218 0.572165 23
520 1 1.95057 -12.5486 8.35843 17
521 1 3.30856 -10.157 13.019 11
522 1 -9.09023 6.13288 -6.65163 20
523 1 -10.9697 -11.9101 4.34609 18
524 1 2.21868 4.12226 3.1054 24
525 1 -3.48366 -15.1511 -11.2548 9
526 1 9.33059 13.0043 10.1888 15
527 1 2.60464 -1.04328 -15.8143 22
528 1 3.49922 -1.79993 15.038 19
529 1 -13.6107 3.91051 9.47583 12
530 1 0.337906 -18.7121 -1.49023 14
531 1 -10.9856 -3.50603 1.11719 23
532 1 14.5855 -4.9252 -7.21408 11
533 1 12.9885 0.390375 -5.89897 19
534 1 -1.06488 4.2849 -3.7272 23
535 1 -4.81553 7.48362 -3.32199 23
536 1 2.66364 -7.08311 -8.5574 23
537 1 6.17134 0.370231 -8.3996 23
538 1 11.5189 -5.47829 -7.03999 23
539 1 -3.01558 -0.273534 17.1253 13
540 1 4.61027 14.8087 6.17777 19
541 1 -5.91125 2.55263 -14.4435 15
542 1 -0.090256 -6.37919 3.26718 21
543 1 4.62111 2.86135 -16.163 12
544 1 -4.67854 -3.71658 6.93372 24
545 1 -3.16551 14.4035 -3.94548 21
546 1 -10.4146 -4.61464 -9.91724 16
547 1 -17.0524 1.43187 0.0923991 12
548 1 -4.47533 -8.08762 -17.5494 9
549 1 -7.67039 -10.4884 11.8135 11
550 1 3.70674 10.4915 -5.99259 24
551 1 14.28 3.37474 7.40218 16
552 1 11.8025 3.94767 -2.7875 23
553 1 -8.58458 -12.2169 -2.9128 18
554 1 -1.73441 -8.89644 -1.70533 22
555 1 -2.07761 -1.99971 -16.7725 19
556 1 -8.74058 10.9693 7.83133 21
557 1 4.2129 -4.82919 -6.41409 22
558 1 3.04711 5.97028 0.310135 24
559 1 12.2523 0.568709 -1.9948 19
560 1 1.90948 8.26107 -7.9607 21
561 1 2.70811 -11.1516 2.63786 23
562 1 4.94123 -0.948879 -2.55597 22
563 1 15.2016 7.9717 -7.50969 11
564 1 3.8539 10.0185 12.1442 20
565 1 -11.2596 3.7909 4.91738 22
566 1 -5.39265 -4.30651 -0.51402 19
567 1 7.48965 10.8319 8.44 20
568 1 7.9035 -0.600819 15.8966 14
569 1 0.91402 -0.0228439 -18.0614 14
570 1 -3.16219 -6.29005 -6.55451 22
571 1 1.32892 -3.8329 13.7354 23
572 1 5.11296 11.6503 6.56953 23
573 1 3.06424 13.0812 -9.08875 16
574 1 -6.927 9.75606 -7.65499 18
575 1 0.487099 15.8344 -0.185117 22
576 1 12.0642 -3.27477 12.6304 11
577 1 9.04925 4.03661 -12.4242 15
578 1 13.3676 -10.5794 -5.3589 14
579 1 13.1544 9.57861 10.4886 16
580 1 -12.672 -8.94337 0.0492677 13
581 1 -4.976 8.28379 -13.4638 18
582 1 -0.929337 -3.0231 11.4112 21
583 1 -11.0475 1.92864 14.1465 14
584 1 0.813008 14.2674 -11.1555 12
585 1 0.623046 -14.2365 -4.17345 24
586 1 6.28427 -2.98709 -8.2702 21
587 1 -2.81622 18.1212 -4.19244 13
588 1 -8.37843 -4.89472 -13.2278 13
589 1 5.23863 -11.5764 7.31376 17
590 1 -10.0568 -7.21499 -1.58046 20
591 1 -1.82344e-04 9.05158 -13.4327 19
592 1 -6.49473 2.09433 -1.40453 21
593 1 2.92468 8.53536 17.2921 13
594 1 -6.48997 -5.75824 5.0141 23
595 1 1.06971 6.50911 -5.03147 24
596 1 0.229495 -10.7829 -7.40705 19
597 1 5.1298 -8.0181 12.2937 16
598 1 8.03097 -0.338018 -3.11897 23
599 1 1.37141 -1.01092 1.50393 23
600 1 -12.7186 6.01734 -0.185602 22
601 1 6.29471 3.85133 17.9133 13
602 1 3.96814 15.7326 -4.39633 13
603 1 10.8486 -4.99758 -3.649 18
604 1 5.37145 8.45076 9.88005 23
605 1 -0.726761 2.82581 -17.887 17
606 1 -4.58271 -11.9368 10.5764 15
607 1 -2.44188 1.7991 -8.66852 21
608 1 7.32704 1.93078 -14.3843 14
609 1 2.08964 13.0957 7.69891 21
610 1 8.61122 7.26618 -13.1271 13
611 1 -4.59805 -8.81426 -11.6597 20
612 1 -1.16758 -12.377 -1.33858 22
613 1 -11.3426 0.186007 -12.9028 12
614 1 13.3274 6.62892 7.53277 18
615 1 14.056 5.80726 -4.84252 14
616 1 8.74024 -3.62339 -5.90096 21
617 1 14.3702 6.86145 10.1114 14
618 1 4.91466 -8.08423 -5.9638 23
619 1 1.57637 2.27404 -15.8021 20
620 1 8.80458 12.0281 2.88767 22
621 1 -7.7461 4.25936 4.13695 22
622 1 10.2311 9.80599 13.0522 19
623 1 10.9034 10.8789 -3.0538 17
624 1 11.6393 -4.3502 4.17889 19
625 1 11.0364 6.39104 -10.9703 17
626 1 5.19525 0.485638 13.665 23
627 1 14.5715 2.97604 10.3952 12
628 1 0.555489 -8.8582 15.1073 12
629 1 11.8295 12.6189 2.10303 15
630 1 8.26513 0.0327133 5.07367 21
631 1 -0.690484 0.830169 15.3631 21
632 1 14.9081 3.03423 -4.13087 11
633 1 6.32867 2.26304 11.2678 22
634 1 -10.4425 0.803511 -8.28739 22
635 1 14.0233 -0.0928961 3.41406 17
636 1 6.93734 -5.15156 3.48363 23
637 1 0.233915 -6.57038 -0.0676398 22
638 1 -9.9265 9.77228 10.1642 14
639 1 11.4882 12.3063 11.424 12
640 1 7.32635 2.44551 15.5177 20
641 1 4.0823 14.9581 9.65807 16
642 1 3.25933 13.3301 12.5799 15
643 1 4.32306 3.10263 8.36245 21
644 1 1.73248 -15.9935 3.58805 14
645 1 -8.15877 11.4401 -5.19031 23
646 1 10.9058 10.3986 -6.62187 17
647 1 10.4466 -2.44395 -11.8678 14
648 1 -0.527622 17.6549 2.06588 12
649 1 -4.8014 -11.7812 -7.70854 21
650 1 10.8566 -5.58129 -11.8579 15
651 1 -15.3869 5.71664 4.47409 13
652 1 -2.73217 5.05318 -8.89406 21
653 1 -2.7181 -17.8199 -0.291684 13
654 1 -7.02738 1.12682 -9.29867 24
655 1 -11.3633 -0.492422 -2.73515 24
656 1 9.33062 -5.95344 5.64402 24
657 1 12.0508 4.56041 5.40556 21
658 1 3.98535 -8.58513 7.48525 21
659 1 -15.1894 -0.649197 -8.75332 13
660 1 0.450784 1.89024 1.09886 23
661 1 3.68975 -2.48408 -18.0098 12
662 1 3.03227 -2.10427 7.56951 21
663 1 -4.98446 7.61071 14.565 20
664 1 5.40718 6.63657 -12.2592 23
665 1 12.156 -0.523096 11.2272 17
666 1 7.39755 5.95618 -7.2253 24
667 1 4.64739 -0.624099 0.566656 24
668 1 9.44599 8.77242 3.14154 23
669 1 3.98883 -13.3558 -8.14174 16
670 1 -10.0406 -0.344387 12.1091 14
671 1 10.7539 -1.08958 4.14469 24
672 1 0.352656 10.2226 15.4574 16
673 1 4.64094 10.3817 -9.81501 18
674 1 -12.1556 10.5191 -9.05561 12
675 1 10.5138 10.8699 0.345541 22
676 1 -4.56632 -15.9878 3.28273 16
677 1 10.7066 -4.86278 -0.156552 21
678 1 10.5016 14.3278 4.1849 14
679 1 -1.80273 7.19106 14.2454 22
680 1 -12.6585 -5.47866 -0.809321 17
681 1 -8.69864 -1.14983 -10.7207 22
682 1 8.67648 1.00589 13.1749 21
683 1 -5.62415 -7.96259 13.5623 13
684 1 8.22921 4.67514 13.0831 19
685 1 -6.62501 14.1781 -3.71947 22
686 1 8.3185 3.6021 1.25138 22
687 1 4.87802 -3.85914 0.992762 21
688 1 7.74654 3.49498 4.53206 23
689 1 0.790812 5.27799 -15.5691 18
690 1 -7.26104 1.34165 8.63415 23
691 1 9.00381 -0.915436 -9.6347 21
692 1 -0.789955 -7.56506 -4.39691 22
693 1 12.817 -10.3062 -8.9695 14
694 1 7.04132 1.7612 7.62451 20
695 1 4.46225 2.86228 5.00654 22
696 1 -12.1588 1.4841 10.5775 15
697 1 11.009 7.78394 8.26758 20
698 1 -1.65267 -4.27845 14.0856 19
699 1 -2.28012 6.83826 9.80724 22
700 1 -3.73895 -7.2294 -14.5506 20
701 1 -5.75859 2.04153 13.233 21
702 1 -4.24665 4.15651 -3.08655 21
703 1 5.33449 3.80298 13.8077 22
704 1 -8.03468 -15.8212 7.40216 10
705 1 11.2696 7.36529 -2.93613 20
706 1 5.83876 -11.2878 -5.94809 22
707 1 -3.15176 5.70494 -5.44939 21
708 1 5.43283 8.16081 -0.871593 23
709 1 8.22223 12.1645 5.79061 20
710 1 2.90487 -4.19452 -15.4902 25
711 1 -2.6077 -1.60256 5.35624 21
712 1 2.30572 12.1121 -3.50539 21
713 1 8.6803 8.63811 -1.67462 23
714 1 0.910041 -5.17001 -2.66696 22
715 1 -7.01155 -11.2409 0.499883 24
716 1 -2.99789 1.23257 -16.2227 15
717 1 -11.8696 12.5534 -0.825801 15
718 1 7.60928 -5.88082 -10.8504 21
719 1 5.38308 4.58786 2.23075 22
720 1 9.63344 7.99805 -8.41832 24
721 1 9.70278 13.7211 -0.432278 19
722 1 -3.88766 4.98362 5.13236 22
723 1 -10.5346 5.39073 2.09902 23
724 1 8.93708 8.25459 -4.82038 24
725 1 13.2592 1.6487 13.459 11
726 1 11.0035 -0.634967 14.2679 13
727 1 -1.20541 -11.4276 10.0391 21
728 1 -2.86478 9.64449 -14.8398 13
729 1 4.48952 11.823 9.85254 23
730 1 8.71083 -7.18849 -13.32 15
731 1 1.25882 2.57708 8.99878 22
732 1 7.19397 14.8373 -5.39996 11
733 1 6.43593 10.0925 4.04939 24
734 1 -5.88036 -0.985177 -1.4164 22
735 1 15.9783 -3.36494 -1.89541 10
736 1 7.15203 6.0911 15.6285 20
737 1 -12.3137 1.506 3.56931 20
738 1 2.25103 -15.074 -1.91205 21
739 1 2.28919 -3.71688 -8.92154 24
740 1 -10.1729 13.9141 0.817552 16
741 1 -1.41197 4.12876 6.95647 24
742 1 5.23695 -7.34461 1.77282 24
743 1 3.35225 9.91113 4.68751 22
744 1 -8.30214 -4.8622 -0.247291 22
745 1 -5.86305 1.18874 16.5132 15
746 1 -3.29682 1.502 -13.5331 23
747 1 -4.08851 7.10871 -16.2971 13
748 1 4.39235 -13.1281 -3.51604 24
749 1 6.40645 9.44446 -7.169 21
750 1 3.3612 -5.48387 7.58228 24
751 1 -2.70656 6.55777 2.25662 21
752 1 -10.5588 3.55392 9.08804 25
753 1 1.86105 -0.736416 -12.3573 19
754 1 1.50364 -12.6793 11.4757 11
755 1 5.76452 13.3406 3.73317 21
756 1 -5.30457 10.3164 14.6377 12
757 1 -0.440154 -3.54247 0.121353 21
758 1 -9.66249 -10.191 -11.6311 9
759 1 -6.5018 -6.27933 -15.6147 15
760 1 -6.47128 -13.7248 -9.02244 17
761 1 -0.847686 16.4495 -5.92545 15
762 1 5.77012 -4.02079 -2.20439 22
763 1 2.00918 0.526284 -1.3824 21
764 1 -3.90816 13.7236 6.94595 15
765 1 3.48151 -10.224 -8.25973 24
766 1 6.59864 -13.7402 1.01445 16
767 1 3.7107 -10.367 9.84238 17
768 1 15.4968 4.26384 -7.35982 9
769 1 2.88625 -15.6081 -5.86478 16
770 1 -8.31786 -1.18836 7.32896 22
771 1 0.217201 1.27566 -6.43693 22
772 1 -5.23229 -16.292 -1.3865 15
773 1 -5.93325 -10.1122 -5.18734 19
774 1 0.215136 -1.94964 -3.27572 23
775 1 -10.2177 0.132334 5.32897 25
776 1 -5.78375 -18.0135 -4.10266 9
777 1 11.6765 6.93515 -6.39387 21
778 1 -4.79756 13.234 1.65108 22
779 1 -4.2289 4.98149 8.34893 24
780 1 -14.5273 7.64302 2.08605 17
781 1 10.2422 -1.53625 -0.62376 21
782 1 -12.9193 1.44652 -10.4236 18
783 1 -2.39593 11.2625 -3.67201 20
784 1 7.71244 5.61148 -10.1402 24
785 1 8.84737 12.7324 13.7588 12
786 1 0.646011 -0.984658 5.08409 22
787 1 7.01486 3.17398 -3.26818 21
788 1 -16.3282 1.12866 -6.22512 14
789 1 -9.96233 -7.75838 -9.76688 18
790 1 -2.03732 5.42657 16.7032 12
791 1 2.65662 8.05277 -11.1018 23
792 1 10.5539 10.891 5.49817 17
793 1 -2.03532 -4.6919 9.17445 21
794 1 2.75156 -20.0845 -3.39313 7
795 1 -5.13884 -15.9029 9.59244 10
796 1 0.0653564 -6.05528 11.8163 19
797 1 13.5576 9.87602 7.14577 14
798 1 0.300609 -5.81727 -10.7171 25
799 1 -7.82379 8.74312 -2.22382 21
800 1 7.32989 6.43858 4.0555 23
801 1 -3.99819 -6.77616 7.2952 20
802 1 3.26882 4.67996 -10.6998 22
803 1 -3.86112 -17.4788 -5.8 11
804 1 1.2643 -16.7414 1.02155 17
805 1 -0.779462 -15.7771 -1.40019 21
806 1 6.05413 3.48164 -11.9861 26
807 1 7.95875 15.4508 2.28476 14
808 1 0.117358 -2.84077 -14.1402 23
809 1 2.46131 1.6283 14.7668 23
810 1 0.681848 5.60887 -18.7545 10
811 1 -12.5012 3.27958 -12.7817 12
812 1 -13.9136 -8.51704 -6.23014 10
813 1 2.45633 14.0255 -5.96078 21
814 1 7.26971 -2.04722 -0.123623 19
815 1 0.765543 -5.836 -13.9746 23
816 1 -10.0572 -10.3329 1.80444 22
817 1 9.33089 4.94656 -4.70219 20
818 1 8.70035 -7.34931 -1.97012 22
819 1 -9.23467 6.16546 11.1091 24
820 1 2.19136 -7.90625 2.27923 22
821 1 13.6295 -6.18406 -1.93525 14
822 1 9.83553 -2.39015 10.2957 21
823 1 2.0575 8.0538 10.5321 23
824 1 -11.6328 4.47153 12.0924 16
825 1 -3.94366 8.75169 11.9493 23
826 1 -0.418607 -14.3933 9.64457 12
827 1 8.53269 -3.06984 5.42794 24
828 1 7.81789 7.58348 12.6063 22
829 1 -13.4597 -2.14287 -0.773419 19
830 1 6.69493 -5.91029 -4.34986 21
831 1 1.30397 3.81927 -1.32907 22
832 1 -7.29232 13.0166 -7.713 19
833 1 1.43831 7.66287 2.94304 22
834 1 5.81975 -12.1793 4.03561 16
835 1 3.47278 -1.58208 11.9821 23
836 1 -0.980734 15.687 7.94322 12
837 1 2.18714 -10.9544 5.75415 21
838 1 -10.7392 -3.92435 -2.36467 21
839 1 0.482543 2.22056 12.351 22
840 1 -14.647 -5.0717 -6.36104 13
841 1 3.0763 12.1109 15.7551 11
842 1 4.35151 11.2395 1.71282 22
843 1 -13.0278 -11.0627 2.20964 13
844 1 -1.38376 -16.9568 4.68642 11
845 1 5.05339 -3.35078 9.36551 24
846 1 10.6638 -5.51148 10.1737 16
847 1 9.51315 5.71051 6.13814 24
848 1 -1.63693 7.9639 -3.56523 21
849 1 -0.923082 -11.4113 -12.0112 17
850 1 -4.29963 -0.244549 -11.0049 21
851 1 -2.61469 1.87437 13.2242 18
852 1 -0.209568 14.087 2.41497 19
853 1 10.3807 2.25331 3.52602 22
854 1 -2.03061 7.05476 -11.2828 21
855 1 -1.43332 12.5372 11.299 17
856 1 8.04319 7.54757 8.90105 21
857 1 4.29585 -1.63061 -10.3474 22
858 1 -2.62271 -13.9779 -3.45524 19
859 1 -8.38149 2.94477 -6.57215 20
860 1 9.19505 -3.07036 2.16438 24
861 1 5.46451 -5.24273 -13.7768 24
862 1 4.18243 5.7676 16.0671 21
863 1 11.168 -12.3396 -6.999 13
864 1 3.75389 4.53622 -14.1467 21
865 1 -4.71901 -8.6498 -8.46152 24
866 1 9.22483 10.8653 -8.71633 12
867 1 12.6702 -2.62912 1.61199 18
868 1 -1.88691 -7.68744 14.3964 13
869 1 -2.3813 -10.6567 -16.9452 11
870 1 -1.10447 -0.271088 -0.668801 24
871 1 6.67704 13.1132 0.368172 19