ITEM: TIMESTEP
164000
ITEM: NUMBER OF ATOMS
2000
ITEM: BOX BOUNDS pp pp pp
-3.0000000000000000e+01 3.0000000000000000e+01
-3.0000000000000000e+01 3.0000000000000000e+01
-3.0000000000000000e+01 3.0000000000000000e+01
ITEM: ATOMS id type x y z 
1 1 -9.15562 5.00177 -11.3142 
2 1 -3.31248 -9.50168 -10.4918 
3 1 2.85189 13.9394 12.9365 
4 1 7.8348 -8.24096 2.7388 
5 1 -9.73121 8.42137 -4.07969 
6 1 12.4247 -6.67587 -10.4744 
7 1 -9.6077 0.102342 -5.30392 
8 1 -3.20934 -8.94058 11.3854 
9 1 -6.68899 3.90265 -10.1794 
10 1 -12.0757 -9.18366 4.91848 
11 1 13.7835 5.08796 -9.41379 
12 1 -1.96556 3.28464 -6.01278 
13 1 -6.55818 -14.5092 3.22551 
14 1 -13.7603 -10.2507 1.99128 
15 1 0.324437 3.12003 18.7693 
16 1 7.29037 -1.28327 7.97835 
17 1 -1.26204 3.99182 9.82675 
18 1 7.12808 -0.86464 2.77496 
19 1 -3.14667 9.4418 -11.8981 
20 1 -1.09279 1.40894 11.3519 
21 1 -7.19621 -2.57288 -15.0098 
22 1 -12.8592 -2.23445 10.5464 
23 1 14.1789 1.34561 4.64307 
24 1 1.96808 6.54083 -12.3489 
25 1 3.41005 4.26674 -11.5605 
26 1 14.2066 1.06128 13.53 
27 1 -6.34643 -0.204906 1.60003 
28 1 -11.5881 4.40859 -9.08848 
29 1 -1.88013 -3.4168 -4.96336 
30 1 -11.283 10.9175 5.09953 
31 1 6.62122 -13.713 3.21958 
32 1 0.0366728 -0.555944 9.9455 
33 1 2.40259 -13.0723 -11.2318 
34 1 10.36 -11.3664 -0.616474 
35 1 -7.24334 -13.9557 -6.43499 
36 1 -11.6443 -4.97601 9.11649 
37 1 2.40378 -3.56895 -3.85032 
38 1 4.39758 -7.67493 -12.3116 
39 1 9.6178 -7.99791 -10.9603 
40 1 -3.56209 4.64838 -16.6341 
41 1 -2.47123 6.38887 12.2851 
42 1 -0.752947 -11.8956 8.01179 
43 1 6.79244 -5.57241 12.765 
44 1 -13.7084 0.530505 1.15108 
45 1 -14.0663 -0.711299 5.47709 
46 1 -10.8375 -1.91325 -0.534041 
47 1 -5.35639 13.2815 -4.81398 
48 1 -2.64437 -15.1106 -9.9393 
49 1 0.35547 -0.13003 -9.06315 
50 1 4.21575 -5.12374 -10.076 
51 1 -2.56102 -4.1609 14.0557 
52 1 -12.0212 5.72116 -4.12285 
53 1 2.23408 12.0149 -9.49995 
54 1 0.0734439 11.9855 8.54828 
55 1 -8.95852 5.20481 -4.42353 
56 1 -1.25556 11.5959 0.496486 
57 1 -1.15398 -13.6908 1.80678 
58 1 5.55901 -9.82821 -1.94216 
59 1 9.28269 -4.47644 -15.569 
60 1 -8.66174 11.6872 11.1467 
61 1 -13.0977 -3.45533 -9.83955 
62 1 10.5721 -1.16899 7.30936 
63 1 -6.1975 6.03511 -5.48526 
64 1 -8.57138 -8.39934 5.14526 
65 1 -1.62385 13.1071 10.8748 
66 1 -12.8829 6.86519 -7.9614 
67 1 -6.10491 8.20712 15.3676 
68 1 0.604022 3.71578 -6.19041 
69 1 -0.332825 5.67629 4.25097 
70 1 -3.10812 -17.0913 9.16965 
71 1 2.21973 4.32547 6.0486 
72 1 5.77212 -15.0504 -1.78807 
73 1 5.83774 12.8631 15.1773 
74 1 -14.7623 4.45341 -8.77944 
75 1 -10.626 7.50411 -10.0216 
76 1 6.27714 5.46558 13.5347 
77 1 12.2655 -0.168272 -10.7502 
78 1 9.27625 -11.05 3.11544 
79 1 -15.7028 -1.45808 2.41339 
80 1 -8.0934 -1.47784 -0.0287912 
81 1 7.48486 15.5629 8.76395 
82 1 1.10469 0.641945 16.9423 
83 1 -4.37951 -15.5989 6.17452 
84 1 -16.0855 -0.750452 -1.28526 
85 1 13.0986 3.27692 6.71029 
86 1 8.37192 -2.48045 -4.42413 
87 1 -2.28653 10.3083 9.47578 
88 1 3.56775 -1.38579 8.71956 
89 1 -6.30673 -5.61765 1.64814 
90 1 -3.46326 -7.83839 -7.93145 
91 1 -11.568 8.54311 7.60771 
92 1 -9.63084 10.3222 -1.34102 
93 1 -1.53385 9.23613 -6.41739 
94 1 3.21209 -0.649501 -4.62398 
95 1 5.52393 -2.78333 -5.33096 
96 1 8.67573 11.8593 -4.93083 
97 1 4.28744 -7.36214 8.33458 
98 1 6.88476 -10.1504 7.63605 
99 1 -7.7006 16.5185 -5.47663 
100 1 -11.661 13.532 3.01556 
101 1 -8.29766 -2.8368 14.7633 
102 1 -5.32964 7.71851 4.68482 
103 1 -5.8164 -3.61366 9.7927 
104 1 13.2246 -7.78145 -6.93569 
105 1 -7.59157 2.94687 7.47647 
106 1 -9.45298 -14.5556 1.66371 
107 1 9.75122 -7.76961 -5.56398 
108 1 3.45205 0.997862 -10.1438 
109 1 -6.19639 0.40881 -15.3303 
110 1 5.52262 0.0347141 5.49973 
111 1 3.4831 14.9281 1.23882 
112 1 -7.41643 6.98007 -8.54562 
113 1 1.92342 5.8525 17.735 
114 1 2.20064 15.1849 -4.74702 
115 1 -12.2771 10.2744 -2.5947 
116 1 0.761005 10.2511 3.28292 
117 1 -0.146229 1.82485 -3.72573 
118 1 -5.62389 -9.65972 9.10262 
119 1 12.9334 -2.5971 9.69789 
120 1 -5.70822 -4.37342 -12.7864 
121 1 3.93303 -5.86693 -4.89112 
122 1 -2.89085 1.46372 8.29872 
123 1 4.22992 -0.787499 16.6244 
124 1 -9.20035 -9.88249 -3.26722 
125 1 6.45463 -3.17896 5.05533 
126 1 -6.84665 -7.99263 -5.48105 
127 1 11.4545 -9.25676 2.14506 
128 1 -8.91566 6.88479 3.97489 
129 1 8.43362 -1.38555 -15.1224 
130 1 5.01013 16.6055 -0.641679 
131 1 -6.896 -12.5606 10.7356 
132 1 -9.07 -13.4826 8.09112 
133 1 -6.05702 5.34355 2.46424 
134 1 4.86799 -8.43764 -15.0757 
135 1 3.69498 4.61295 -6.88707 
136 1 11.2323 -9.06832 -1.60891 
137 1 -1.17638 -16.2101 6.77471 
138 1 -10.4761 -9.88439 -0.253598 
139 1 15.5471 5.43883 8.65504 
140 1 13.5545 -1.51086 -8.48152 
141 1 -15.4468 -4.67142 1.67366 
142 1 8.79545 9.59081 5.91904 
143 1 15.6432 8.92653 3.30358 
144 1 -7.02773 3.96888 10.9173 
145 1 6.90825 3.9514 -0.478952 
146 1 -5.85421 10.7887 12.8917 
147 1 -7.32908 8.6446 -5.20144 
148 1 0.119813 -4.97996 -13.1156 
149 1 7.96156 -10.2703 -9.35628 
150 1 5.02362 12.0532 -11.5915 
151 1 8.77782 -3.07919 13.3631 
152 1 0.471862 -2.05888 -17.8932 
153 1 -6.75294 12.5942 -7.18621 
154 1 8.07406 2.16444 -7.27212 
155 1 -8.71569 9.56371 -7.47862 
156 1 2.36843 -2.67005 -0.347774 
157 1 -8.22859 15.4854 -2.56136 
158 1 6.80726 0.219494 -12.718 
159 1 9.44879 -8.80943 5.1294 
160 1 -4.59711 4.15672 -7.84907 
161 1 -7.65886 13.6194 8.68971 
162 1 12.383 8.17357 -8.80536 
163 1 -1.33696 3.23013 -1.08545 
164 1 4.55674 10.9419 -0.922339 
165 1 -3.62072 14.5716 0.52567 
166 1 7.29813 10.5092 0.769273 
167 1 -4.48843 10.5829 -3.76455 
168 1 2.18138 13.6806 -7.62604 
169 1 3.93186 9.56111 -13.4488 
170 1 -12.2012 -13.1273 0.659867 
171 1 -12.6426 8.5965 -5.7359 
172 1 -4.82733 -6.917 -10.8356 
173 1 -0.655702 -8.39449 -18.2656 
174 1 12.3699 8.56376 4.08615 
175 1 -0.0788424 17.2374 5.7114 
176 1 -12.1342 -4.65263 -3.39913 
177 1 -10.4998 13.0491 -2.68177 
178 1 15.9111 -0.799232 -2.99614 
179 1 -7.91869 0.36501 -10.9152 
180 1 6.04346 1.89031 17.0737 
181 1 4.63439 17.3236 2.83494 
182 1 -5.83876 10.7659 6.82564 
183 1 1.66043 -9.28106 -15.4585 
184 1 -2.03994 11.3646 3.54792 
185 1 0.275224 13.5536 -2.88427 
186 1 0.601553 -5.59672 13.5462 
187 1 -10.3489 -3.69797 4.47709 
188 1 -2.1814 -12.4722 -14.8028 
189 1 -8.5099 13.7268 -11.1996 
190 1 -3.44201 -11.5245 6.29622 
191 1 4.16529 -14.4478 -5.16317 
192 1 -5.70395 12.6198 -12.4931 
193 1 -13.0276 2.28016 6.56281 
194 1 0.912041 7.14925 -1.74907 
195 1 8.3657 12.0318 -2.14986 
196 1 -8.07512 6.13701 14.7297 
197 1 1.15473 -8.86818 8.23332 
198 1 -10.2779 1.17133 -0.855083 
199 1 1.09952 16.3436 3.47575 
200 1 3.57289 6.72754 7.59931 
201 1 13.7342 4.23737 14.05 
202 1 -8.42987 14.3788 3.13052 
203 1 13.3765 -3.31778 -11.4582 
204 1 -6.10275 13.4579 5.90523 
205 1 -4.20142 0.97958 -7.14208 
206 1 12.8853 -5.34092 0.758983 
207 1 -4.36985 -5.17565 4.44941 
208 1 -15.5111 1.89528 3.83053 
209 1 -9.10995 -9.06496 2.23355 
210 1 5.43958 8.14539 14.9804 
211 1 -14.165 0.123444 -4.00649 
212 1 -3.43015 1.00611 0.293759 
213 1 -4.3506 -16.743 -1.88043 
214 1 -0.785208 0.252814 2.19497 
215 1 -5.75891 0.0872318 -4.18813 
216 1 3.24106 -7.26079 0.387392 
217 1 -4.11487 9.59115 2.33602 
218 1 -7.45412 1.40494 4.32349 
219 1 5.73907 13.9379 12.7442 
220 1 -8.64119 -1.15868 -2.86273 
221 1 -5.75351 14.9235 -10.4798 
222 1 -14.6413 -3.82511 -6.86847 
223 1 -10.2028 -1.42074 10.5766 
224 1 -3.79439 -10.7368 3.25024 
225 1 6.78603 -10.761 4.42175 
226 1 -12.8872 10.2745 2.87991 
227 1 14.9945 3.17013 2.09937 
228 1 5.27944 3.48686 -9.05165 
229 1 -5.49735 -7.82978 -16.2798 
230 1 2.01024 1.02422 10.9701 
231 1 -3.17356 -4.65219 2.32679 
232 1 4.58497 -13.5466 0.973583 
233 1 -1.45577 6.7565 -11.4547 
234 1 3.50964 -10.627 -13.2442 
235 1 9.9645 0.879602 -12.9486 
236 1 2.43551 6.87477 -15.4531 
237 1 -7.71281 -5.48043 -9.95037 
238 1 -3.8095 14.5612 -8.04507 
239 1 -9.99693 -10.7294 10.035 
240 1 8.43074 16.6689 -1.6376 
241 1 -6.91823 4.69786 16.7164 
242 1 -8.30534 15.7796 -8.4892 
243 1 5.78743 0.892747 10.6112 
244 1 -1.61521 -6.49495 -10.3507 
245 1 -5.78797 9.83247 -9.58351 
246 1 0.936646 1.86443 -11.4951 
247 1 -5.8357 -12.7173 8.09756 
248 1 -1.7825 3.23095 2.32216 
249 1 -11.0367 6.69483 12.8962 
250 1 -4.71276 8.25472 8.40114 
251 1 -2.17932 -11.9132 -8.94256 
252 1 -5.70491 -16.6898 -4.64346 
253 1 13.2735 -11.5502 -2.86608 
254 1 -2.07189 0.978944 5.05335 
255 1 -3.01309 -1.78387 1.82921 
256 1 3.72474 -4.91155 -1.30303 
257 1 11.9186 7.13975 13.3422 
258 1 5.18865 6.99976 -5.03814 
259 1 0.109878 10.4561 -1.61796 
260 1 -9.6466 0.233254 2.0541 
261 1 -10.4411 11.0884 -5.30461 
262 1 4.1175 6.34081 10.8462 
263 1 4.06159 -17.3782 -0.163434 
264 1 12.1298 1.49381 -2.18181 
265 1 1.45858 7.78352 5.42334 
266 1 -10.6438 8.50459 1.19913 
267 1 -10.0991 -7.07428 -4.60903 
268 1 3.9399 1.08415 -13.7048 
269 1 1.91875 -1.89232 11.6854 
270 1 7.52279 12.3148 -10.2823 
271 1 1.49067 -6.83035 -2.71208 
272 1 -3.27522 -0.982895 -9.0375 
273 1 1.43318 -15.4693 4.35585 
274 1 8.75981 2.3222 -10.5369 
275 1 -7.54931 -1.64257 4.31856 
276 1 2.90266 -16.2204 -3.11293 
277 1 -6.87673 -4.80079 -7.14069 
278 1 3.94502 14.301 -2.37591 
279 1 0.0525089 -2.7379 -14.3499 
280 1 3.33826 2.57655 15.0174 
281 1 14.8513 1.57341 -0.664775 
282 1 -4.63524 -7.84436 0.000762834 
283 1 9.91963 -5.03522 -10.5132 
284 1 -1.72545 -10.1135 1.32684 
285 1 -7.45341 -2.47016 -11.6756 
286 1 -14.6404 2.21814 -10.0954 
287 1 -5.60216 -15.0039 9.6761 
288 1 12.9336 -0.187274 7.45137 
289 1 3.78398 -4.51477 9.90741 
290 1 -3.19508 -6.74481 -13.085 
291 1 2.08609 -5.40522 7.6747 
292 1 5.13832 6.64461 -9.44747 
293 1 5.21044 8.29051 2.20975 
294 1 -6.34031 -8.54008 3.09661 
295 1 0.996443 13.152 2.6386 
296 1 -7.46198 -3.65905 12.1541 
297 1 -8.49981 -8.27582 -10.364 
298 1 -4.51536 -4.82118 -8.86748 
299 1 -2.41454 8.32167 -14.5586 
300 1 -3.19414 -11.6293 -3.92119 
301 1 -3.65262 -7.85333 2.72768 
302 1 -5.3381 -6.13845 -2.87797 
303 1 7.53176 -3.44291 -13.0606 
304 1 13.1879 2.00748 -8.08973 
305 1 1.3962 -4.13914 4.82175 
306 1 12.295 4.07821 0.312253 
307 1 -4.80037 -3.3571 -3.82955 
308 1 -8.44213 -3.98683 8.96909 
309 1 -4.94761 -13.6359 -2.93809 
310 1 8.28897 4.4245 16.3896 
311 1 -3.81579 -13.6179 3.39069 
312 1 2.9467 2.73393 -4.45176 
313 1 0.288329 -11.4392 -0.656051 
314 1 -2.31436 16.5267 -2.2242 
315 1 4.87294 -2.17191 -14.0259 
316 1 -5.39946 -4.58877 -16.5331 
317 1 2.82511 -4.88858 2.31001 
318 1 -10.0746 -7.20863 10.7986 
319 1 4.66129 7.46253 18.5973 
320 1 2.07506 -9.90752 -1.92506 
321 1 -3.59751 -12.2418 -11.7419 
322 1 -10.1619 6.81726 -6.81857 
323 1 10.05 1.96509 6.98758 
324 1 -5.06575 1.49516 -10.2791 
325 1 -2.68331 9.30999 -9.10279 
326 1 -3.89356 -4.20087 7.52218 
327 1 6.25524 -12.2768 -7.15666 
328 1 -5.12863 15.1289 -2.32671 
329 1 1.66253 10.8337 6.42236 
330 1 14.3679 -1.84018 4.85671 
331 1 -7.97504 -0.354685 7.17697 
332 1 -4.4319 -5.42322 11.724 
333 1 -1.25391 8.92054 6.77766 
334 1 5.43488 -5.46384 -14.3276 
335 1 13.0784 9.44407 -0.755411 
336 1 1.75305 -12.8639 2.73842 
337 1 -2.72656 0.59875 13.7406 
338 1 -14.419 -3.56148 4.31011 
339 1 -0.198683 -17.3253 -3.83555 
340 1 -8.64143 8.81304 12.6932 
341 1 -10.1693 3.32208 15.7542 
342 1 -13.7104 -3.07658 7.54953 
343 1 -12.4654 -5.79439 6.02459 
344 1 14.705 -3.80004 -2.02678 
345 1 -11.4838 -8.33613 8.0606 
346 1 9.52669 1.10779 -4.7317 
347 1 10.1959 -12.5823 -3.28391 
348 1 2.57712 17.5943 -2.56663 
349 1 -1.89662 -2.90285 4.98971 
350 1 -9.05439 13.8623 -5.50781 
351 1 -0.0426061 0.638136 7.45588 
352 1 10.6713 7.75329 10.6467 
353 1 -8.29247 -7.66943 -1.77582 
354 1 8.3583 -10.0816 -3.66782 
355 1 -0.861151 8.38143 1.29688 
356 1 -6.80853 4.35747 4.93924 
357 1 0.589947 2.07042 4.40513 
358 1 6.6656 -8.13521 10.1888 
359 1 13.8486 -5.22424 4.40185 
360 1 -3.09701 6.52281 6.70738 
361 1 -7.48965 -1.91668 -6.0088 
362 1 4.03865 -2.27275 3.31285 
363 1 -1.91486 1.34794 16.9049 
364 1 -0.0766584 13.1474 5.32946 
365 1 8.92952 7.26943 14.8529 
366 1 -5.47274 17.1415 -7.52045 
367 1 0.273383 -5.1444 -17.294 
368 1 -6.3201 3.05793 -4.77721 
369 1 6.74347 -9.68127 -12.4823 
370 1 -9.20873 0.607383 13.1058 
371 1 -14.3917 3.5993 1.569 
372 1 0.61343 -5.33508 -5.41696 
373 1 -6.55568 10.0315 -0.15418 
374 1 5.67079 -2.30157 10.9882 
375 1 -10.2743 -15.4114 -1.32008 
376 1 11.9629 -7.36582 6.53776 
377 1 -4.35218 3.94411 0.0860373 
378 1 -7.73724 -9.09657 11.7334 
379 1 -13.3983 8.90699 0.0219982 
380 1 -2.36152 -4.07623 9.94895 
381 1 2.10764 -12.3198 -5.11802 
382 1 -4.37553 -2.45686 -6.34621 
383 1 6.29549 -3.23762 -16.5188 
384 1 3.49342 12.3432 4.47504 
385 1 -10.1047 -3.54708 -5.035 
386 1 2.59431 -8.80515 -9.65248 
387 1 7.74697 5.09578 -15.0639 
388 1 -4.82872 -16.3382 -7.64095 
389 1 -13.4986 -7.20902 -5.24194 
390 1 -4.48898 -11.361 0.0217107 
391 1 10.5374 4.29231 14.5067 
392 1 -2.63246 -1.65752 -2.55038 
393 1 11.525 2.606 -4.9874 
394 1 -4.94958 7.19328 -11.1539 
395 1 2.27584 17.516 0.753474 
396 1 -16.6858 -1.49975 -5.50489 
397 1 3.61741 1.23156 2.98068 
398 1 -7.64715 8.31373 6.8155 
399 1 -8.75712 11.6762 1.62292 
400 1 -5.06417 4.35293 13.4387 
401 1 11.7575 4.33546 11.6047 
402 1 11.5381 -2.69839 -6.19398 
403 1 5.59756 -3.15446 14.7891 
404 1 10.2944 0.577087 -7.66414 
405 1 -3.24527 -18.2911 -4.91995 
406 1 2.85189 1.00624 6.42296 
407 1 -5.54755 6.71729 -0.264811 
408 1 -2.42067 -9.56984 -1.63971 
409 1 -2.64802 11.3635 6.24686 
410 1 6.36124 3.59845 -4.90545 
411 1 -8.61477 2.21304 -3.27507 
412 1 6.45828 -12.3795 -1.37875 
413 1 14.6674 0.427818 10.4262 
414 1 -10.2368 -3.88863 -8.18184 
415 1 -7.35509 -9.45108 0.343008 
416 1 -8.34727 -6.22489 13.5435 
417 1 -3.13946 9.10895 -0.799671 
418 1 -12.609 -10.3892 -4.49443 
419 1 7.8736 10.3053 15.428 
420 1 -10.28 4.37488 -1.4311 
421 1 -2.49099 13.7231 -4.94627 
422 1 2.6976 13.1372 7.62551 
423 1 -14.4707 -8.0545 -2.9433 
424 1 -1.90955 -9.74976 -6.4411 
425 1 -10.4486 -0.638027 5.25144 
426 1 -14.0958 7.6574 -3.02638 
427 1 7.14037 -7.34752 6.67488 
428 1 -0.481751 -11.404 -3.61523 
429 1 12.811 11.3375 8.70128 
430 1 6.1496 8.10821 -15.2415 
431 1 -10.6762 1.35255 -8.1373 
432 1 -0.187858 13.9707 -9.8835 
433 1 -10.5887 3.10491 -6.11576 
434 1 -1.00483 -13.634 5.25219 
435 1 13.3426 6.37706 1.75487 
436 1 0.53233 9.04741 -12.9776 
437 1 -6.74606 6.04224 7.93978 
438 1 -16.3449 2.84382 -1.24486 
439 1 5.48021 1.74748 -2.56982 
440 1 -8.74086 6.57934 9.96738 
441 1 -2.84291 -14.0968 7.78495 
442 1 -0.222885 -8.56452 -8.27315 
443 1 5.25235 -7.88098 -8.81204 
444 1 -0.365596 -3.21617 7.72256 
445 1 -12.6821 1.3173 3.88755 
446 1 -14.1636 -0.25494 8.75275 
447 1 -11.9031 7.72399 4.51098 
448 1 -0.540476 -6.41208 8.79029 
449 1 -7.42716 2.41685 -12.9817 
450 1 6.87779 -9.06356 -6.52517 
451 1 2.57453 -6.40036 -14.9662 
452 1 -4.79561 -2.24179 12.9948 
453 1 5.79257 -6.97883 -2.3682 
454 1 -6.42608 3.76194 -15.834 
455 1 6.60067 -11.1774 1.57285 
456 1 1.27599 9.13159 -4.32966 
457 1 -7.11297 9.59046 10.2473 
458 1 -5.63669 -1.13276 15.2079 
459 1 -8.7095 -5.65959 -12.3022 
460 1 -6.60616 -6.42033 6.9102 
461 1 9.79724 -6.51981 12.1413 
462 1 6.76852 1.89945 2.01275 
463 1 -4.54012 2.1869 3.05692 
464 1 4.45051 -1.13961 -7.65637 
465 1 8.83598 -4.15429 7.53974 
466 1 0.478343 5.27676 0.890238 
467 1 13.7897 9.16579 -4.39205 
468 1 -4.1321 5.77942 10.2878 
469 1 1.71183 12.5745 -0.252433 
470 1 9.35827 -7.51381 8.46496 
471 1 -1.09419 -13.1986 -6.00999 
472 1 -2.38001 8.71648 15.2662 
473 1 -3.06929 14.1475 5.54797 
474 1 -7.85005 -10.2891 -7.56873 
475 1 11.3144 12.6609 2.53058 
476 1 6.2772 7.78182 6.78291 
477 1 -5.89335 1.48898 9.62436 
478 1 -6.02655 -9.44282 -2.75507 
479 1 -10.6113 4.11156 8.67099 
480 1 -9.1599 -6.87278 -7.27969 
481 1 -5.97875 11.6228 3.49137 
482 1 -4.20537 -13.4174 -6.44339 
483 1 -3.01465 -6.36262 -17.2773 
484 1 -6.4159 -11.125 5.10237 
485 1 -5.96134 -3.07846 1.93105 
486 1 9.73259 2.08049 3.2439 
487 1 -5.91521 -4.55381 14.9334 
488 1 -8.94716 7.91794 -13.1003 
489 1 7.68731 6.00123 -3.14103 
490 1 -7.97724 -14.1829 -3.84828 
491 1 1.21465 2.80647 -9.06732 
492 1 -1.45231 17.8884 0.784356 
493 1 1.90985 5.78687 -9.57289 
494 1 0.845352 6.18284 11.2844 
495 1 -14.2266 -2.38703 -3.45045 
496 1 -0.0634106 17.2332 -4.10685 
497 1 5.91336 12.5778 -3.73691 
498 1 -6.10135 -7.73325 -8.2174 
499 1 3.17696 1.36939 19.0834 
500 1 0.261443 -14.1164 -8.81382 
501 1 0.888363 -8.15725 -12.7532 
502 1 9.77571 -13.84 2.15667 
503 1 -7.56873 8.67031 2.87057 
504 1 3.05447 5.75735 14.1949 
505 1 6.56841 9.40282 -3.48752 
506 1 2.41973 9.45665 0.699283 
507 1 -8.22754 11.3538 -13.6176 
508 1 5.24698 1.48704 -6.52515 
509 1 -1.4245 -8.84615 4.82946 
510 1 -16.964 -3.91265 -0.308039 
511 1 3.95985 2.98447 0.225853 
512 1 3.49604 15.1182 4.92314 
513 1 -4.76129 1.7513 -13.3883 
514 1 10.3268 5.67597 -1.24181 
515 1 8.12937 13.8101 -7.43196 
516 1 5.77979 -5.52006 2.75399 
517 1 15.7331 4.65084 -1.16304 
518 1 -1.09294 -1.87994 -11.5781 
519 1 1.6159 -9.30684 2.76053 
520 1 1.17474 -13.7952 7.32552 
521 1 0.130045 -9.77328 10.6623 
522 1 -7.87317 3.90812 -7.2532 
523 1 -8.69917 -13.1662 4.69766 
524 1 2.8987 4.23071 2.88319 
525 1 -0.792701 -13.8783 -12.2412 
526 1 9.01847 12.2671 8.28894 
527 1 -0.173089 6.0306 -14.572 
528 1 2.20667 -2.8327 15.5466 
529 1 -12.6465 2.56979 10.1613 
530 1 -1.34626 -19.7397 1.05067 
531 1 -12.1995 -4.6175 1.80716 
532 1 14.0256 -4.71797 -8.21229 
533 1 12.6231 -0.0653702 -5.57053 
534 1 -0.439246 5.20524 -3.46498 
535 1 -5.34304 7.59728 -2.86473 
536 1 2.90524 -6.83508 -6.95731 
537 1 6.50214 0.448769 -9.39156 
538 1 11.1803 -5.97761 -7.76002 
539 1 -5.51434 1.38448 16.9829 
540 1 5.68196 14.3323 7.01031 
541 1 -4.99399 -1.28301 -17.4021 
542 1 -0.669607 -6.27173 3.19362 
543 1 3.76753 2.07012 -16.47 
544 1 -6.8188 -3.31518 6.4133 
545 1 -2.1487 13.3603 -1.76852 
546 1 -10.005 -3.4425 -13.8733 
547 1 -17.1362 1.2232 1.03036 
548 1 -2.80291 -9.65387 -16.4462 
549 1 -5.00332 -11.4603 12.3752 
550 1 2.88277 7.67413 -7.2293 
551 1 15.387 2.01974 7.94299 
552 1 13.0148 4.75309 -3.37195 
553 1 -10.5775 -12.5812 -2.63413 
554 1 0.258655 -7.72388 -0.183268 
555 1 -2.25171 -3.01928 -17.0862 
556 1 -9.53562 11.0396 8.12266 
557 1 2.68585 -3.29201 -6.59764 
558 1 3.49222 6.01845 0.143882 
559 1 12.4206 -2.01945 -2.94781 
560 1 1.26266 10.0479 -7.50367 
561 1 3.03502 -10.7927 0.78849 
562 1 4.36871 -1.68088 -2.23206 
563 1 15.2865 7.54438 -7.18672 
564 1 5.3035 9.8315 12.1221 
565 1 -9.94803 2.40684 5.92431 
566 1 -4.30673 -4.0984 -0.724074 
567 1 7.97398 9.39769 8.69501 
568 1 7.42445 -0.538719 15.5796 
569 1 -2.43163 2.29295 -16.1704 
570 1 -4.05723 -5.97018 -5.84464 
571 1 -1.4829 -2.13073 12.2047 
572 1 5.59643 11.2386 6.97789 
573 1 8.22635 10.3648 -7.74557 
574 1 -3.5569 11.2599 -7.00553 
575 1 -0.337911 15.1197 0.267975 
576 1 11.6534 -3.70439 12.2874 
577 1 8.96035 4.01577 -12.6192 
578 1 12.2272 -10.5362 -5.53084 
579 1 13.0032 9.54939 11.6504 
580 1 -15.6791 -7.59577 0.454782 
581 1 -6.51239 9.16331 -13.2369 
582 1 -3.71273 -0.804999 10.7678 
583 1 -11.6597 0.857703 14.8262 
584 1 -3.2026 12.4532 -10.582 
585 1 0.61676 -14.591 -3.21864 
586 1 5.68131 -4.61696 -7.65414 
587 1 -3.72584 16.3069 -4.86048 
588 1 -8.2227 -6.11604 -15.4328 
589 1 3.17341 -11.5425 7.94233 
590 1 -11.4917 -7.24225 -2.13833 
591 1 1.40231 11.8177 -12.3555 
592 1 -6.39254 1.26888 -1.24427 
593 1 0.211751 10.2486 14.9976 
594 1 -9.87426 -5.85499 6.72512 
595 1 2.55965 5.91936 -4.39975 
596 1 1.18154 -11.4917 -8.38044 
597 1 1.98895 -6.83741 10.6266 
598 1 6.9105 0.023409 -4.21475 
599 1 1.61437 -1.05347 1.66582 
600 1 -11.4342 7.42586 -1.42526 
601 1 5.10407 4.89481 16.4478 
602 1 5.62409 16.388 -3.70222 
603 1 10.5093 -4.82891 -4.36487 
604 1 4.62339 9.02335 9.40273 
605 1 -1.45411 3.20625 -19.0258 
606 1 -3.70644 -14.3704 11.7808 
607 1 -1.86944 2.88801 -8.9512 
608 1 6.73643 2.45335 -15.0468 
609 1 2.01385 16.2077 7.27985 
610 1 9.10145 7.40108 -13.3836 
611 1 -2.87249 -3.93872 -11.3941 
612 1 -2.01442 -12.9174 -0.743846 
613 1 -10.7564 -2.78174 -11.4866 
614 1 10.3396 4.5613 5.85333 
615 1 14.9041 6.15143 -4.77757 
616 1 9.17282 -4.32185 -7.04419 
617 1 14.9198 6.57139 11.6636 
618 1 4.46951 -8.91687 -4.57197 
619 1 1.56372 4.19289 -17.1133 
620 1 8.15707 13.0313 2.52415 
621 1 -9.22452 3.58825 2.48905 
622 1 10.8324 10.1816 14.1664 
623 1 11.1611 10.696 -3.27078 
624 1 15.3573 -0.27674 2.0763 
625 1 10.8035 5.90799 -10.9704 
626 1 6.21833 2.23944 14.2256 
627 1 15.401 3.78137 11.2275 
628 1 0.505125 -4.09487 10.4021 
629 1 14.8994 11.5907 0.984405 
630 1 8.58982 0.246356 5.13006 
631 1 0.77451 3.90198 15.9582 
632 1 15.3731 0.356947 -6.24615 
633 1 6.76668 3.59618 11.0252 
634 1 -9.57523 -1.23266 -8.76722 
635 1 13.7105 7.09871 -1.31653 
636 1 9.03977 -4.01859 2.05586 
637 1 0.544207 -4.86878 0.851544 
638 1 -10.9002 9.5207 10.6245 
639 1 11.1637 11.9065 11.3869 
640 1 9.03293 2.08183 12.5721 
641 1 4.17361 15.0464 10.0044 
642 1 1.21904 14.1749 9.94655 
643 1 4.14385 3.48583 8.99624 
644 1 -1.04744 -17.9098 4.21761 
645 1 -7.70894 11.3587 -4.14307 
646 1 11.1251 9.99051 -6.34268 
647 1 10.5543 -2.3257 -12.8501 
648 1 0.0463041 18.7371 -1.33128 
649 1 -5.00439 -10.5945 -7.24365 
650 1 11.2285 -5.70708 -13.2952 
651 1 -14.3803 4.85161 4.83923 
652 1 -2.02334 5.85833 -8.59019 
653 1 -3.72471 -19.2585 3.17222 
654 1 -6.37863 -1.71025 -8.74651 
655 1 -11.704 -1.01801 -2.99049 
656 1 8.55918 -5.8077 4.82797 
657 1 13.3087 6.03392 5.95166 
658 1 4.14407 -9.33444 6.08774 
659 1 -15.0098 -1.20004 -8.73618 
660 1 1.13653 2.27446 0.995949 
661 1 0.776081 1.28215 -17.7806 
662 1 3.56198 -2.64768 6.47602 
663 1 0.152425 6.73268 14.6485 
664 1 7.44182 9.90467 -12.9418 
665 1 11.7495 -0.47983 11.6452 
666 1 7.27236 5.66447 -7.11818 
667 1 4.68387 0.0626582 0.385934 
668 1 9.49985 9.73882 3.15465 
669 1 3.61845 -13.5456 -8.52752 
670 1 -11.4734 -1.84481 13.7915 
671 1 11.5208 -0.145312 4.41516 
672 1 0.730089 11.6255 12.3408 
673 1 4.4186 10.4223 -8.28406 
674 1 -11.5662 9.9893 -8.37448 
675 1 10.5824 11.278 0.041308 
676 1 -5.82097 -17.3506 3.92491 
677 1 11.2181 -3.47824 -0.790187 
678 1 6.87641 15.6755 5.0147 
679 1 -3.83597 9.05759 11.3405 
680 1 -12.1701 -7.99383 1.35117 
681 1 -11.0968 -5.71631 -10.9192 
682 1 7.5201 -0.254831 12.4304 
683 1 -5.41908 -7.83072 13.4431 
684 1 9.04253 5.56414 12.2638 
685 1 -6.74138 12.5152 -1.74823 
686 1 8.85104 3.87738 1.46034 
687 1 5.68361 -2.97427 0.656062 
688 1 7.85821 3.45264 4.9032 
689 1 5.42054 3.94263 -17.4884 
690 1 -9.08267 1.67239 10.3623 
691 1 7.48613 -3.12239 -10.187 
692 1 -1.56151 -6.77546 -3.45651 
693 1 10.8643 -9.35766 -8.34344 
694 1 6.89445 1.86165 7.72193 
695 1 5.05778 3.39856 4.8268 
696 1 -13.5342 0.481919 12.0647 
697 1 11.2093 8.67486 7.32895 
698 1 -0.711502 -1.30127 15.1351 
699 1 -1.79058 7.42424 9.37293 
700 1 -2.87118 -4.1367 -14.6539 
701 1 -10.1642 3.83924 11.7131 
702 1 -3.77521 4.50153 -3.16022 
703 1 3.94424 3.05455 12.0399 
704 1 -8.77692 -15.7335 5.3296 
705 1 11.1121 7.17262 -3.48545 
706 1 5.04966 -11.7599 -4.25505 
707 1 -3.17232 6.23749 -5.44967 
708 1 5.83295 7.89289 -0.929595 
709 1 8.52552 12.8336 5.21846 
710 1 2.47454 -0.667039 -15.5315 
711 1 -2.50499 -1.27747 7.39661 
712 1 2.96779 12.1186 -4.33784 
713 1 9.04311 8.97384 -1.6784 
714 1 -0.0155022 -4.1232 -2.33171 
715 1 -7.8662 -11.869 -1.41844 
716 1 -2.0111 0.0533866 -18.3642 
717 1 -11.9909 12.079 0.203478 
718 1 6.97489 -6.4797 -11.3915 
719 1 6.0604 5.05514 2.21022 
720 1 9.62575 7.62443 -8.2369 
721 1 9.41415 14.134 -0.110228 
722 1 -3.54716 4.66387 4.66982 
723 1 -8.02586 2.57967 0.395208 
724 1 8.79349 8.41114 -5.03503 
725 1 12.2586 1.52746 15.5073 
726 1 11.3713 -1.09809 14.4629 
727 1 -1.5934 -12.0283 12.2633 
728 1 -4.86634 10.5173 -15.0047 
729 1 5.85413 11.931 9.78332 
730 1 7.7547 -6.97038 -14.2086 
731 1 1.34308 3.05621 8.84397 
732 1 8.04964 15.2295 -4.45004 
733 1 6.77924 10.9637 3.88492 
734 1 -5.50277 -1.24676 -1.86148 
735 1 13.3422 -5.29019 -5.01695 
736 1 7.1817 7.60077 17.0846 
737 1 -11.958 -1.58014 2.77447 
738 1 1.27572 -14.5693 -0.06642 
739 1 1.17901 -3.11031 -9.96344 
740 1 -9.83517 14.1572 0.287074 
741 1 -1.23739 3.60578 6.51481 
742 1 6.84933 -6.21044 0.368769 
743 1 4.03123 9.52169 4.78148 
744 1 -9.00956 -3.40704 1.64093 
745 1 -4.05791 3.67253 17.9844 
746 1 -1.95315 3.90029 -13.3306 
747 1 -6.54412 7.30427 -15.5791 
748 1 3.16262 -13.0572 -1.84833 
749 1 6.18459 8.31774 -6.8742 
750 1 4.28024 -5.99268 5.32401 
751 1 -2.86317 6.21466 2.05909 
752 1 -11.7376 5.93758 10.1138 
753 1 1.96384 -1.25314 -12.3822 
754 1 1.25561 -12.4833 10.544 
755 1 5.75613 14.0647 2.92894 
756 1 -1.99296 3.64508 13.9247 
757 1 -1.22012 -2.87832 0.0306835 
758 1 -6.51645 -7.65273 -13.2445 
759 1 -4.65024 -10.1811 -13.5386 
760 1 -5.23836 -12.9803 -9.18367 
761 1 -0.755686 15.4521 -6.65073 
762 1 5.85479 -4.36811 -2.76533 
763 1 2.46345 0.868694 -1.7984 
764 1 -4.07186 13.9762 8.60184 
765 1 4.10923 -10.5325 -7.16387 
766 1 7.09934 -15.9425 0.776303 
767 1 3.60999 -9.6994 10.6938 
768 1 15.4347 3.95033 -6.65699 
769 1 1.62395 -15.4153 -6.40342 
770 1 -10.4695 -2.34148 7.6986 
771 1 1.73835 0.736229 -6.73671 
772 1 -4.22301 -20.7807 -0.230235 
773 1 -6.56986 -11.4743 -4.57928 
774 1 0.611776 -1.39909 -3.3713 
775 1 -11.0145 0.704796 8.22327 
776 1 -6.10421 -17.8272 0.755499 
777 1 12.434 5.65353 -6.70263 
778 1 -5.16706 15.0709 3.20529 
779 1 -4.44955 4.13482 7.81523 
780 1 -12.507 5.79235 1.5387 
781 1 10.2652 -1.34372 1.83788 
782 1 -12.6441 -0.204062 -10.9107 
783 1 -1.77513 11.2006 -4.08425 
784 1 8.12762 5.89487 -10.6591 
785 1 8.9379 13.019 14.0004 
786 1 1.08864 -1.14527 5.23129 
787 1 9.28921 3.02418 -2.2187 
788 1 -15.832 1.53433 -6.7034 
789 1 -12.1478 -5.34655 -7.3675 
790 1 -1.25626 5.70572 17.3606 
791 1 2.73211 9.24658 -10.6258 
792 1 11.299 11.1327 5.62028 
793 1 -5.39586 -1.15018 7.96993 
794 1 -2.03666 -19.006 -2.0262 
795 1 -6.1583 -18.3185 6.72291 
796 1 -4.04261 -7.15711 8.96612 
797 1 15.1068 8.57915 9.41065 
798 1 1.23168 -5.87921 -9.95888 
799 1 -8.18562 7.04889 -1.64678 
800 1 7.73579 7.13528 4.17621 
801 1 -7.71483 -5.29396 4.18909 
802 1 5.0107 6.86521 -12.1196 
803 1 -2.5546 -15.4326 -4.17418 
804 1 1.38112 -18.038 2.094 
805 1 -1.44231 -15.9733 -1.09567 
806 1 5.91027 2.77007 -11.9096 
807 1 7.49557 16.3283 1.24222 
808 1 -4.42607 -1.78856 -13.3392 
809 1 1.04833 0.453454 13.9235 
810 1 -0.940888 6.34969 -17.1252 
811 1 -9.95538 1.81052 -11.2741 
812 1 -13.9437 -4.89512 -1.30197 
813 1 5.0884 13.8705 -6.22333 
814 1 7.06333 -1.14776 -1.12904 
815 1 -0.71777 -7.09467 -15.1803 
816 1 -9.39157 -6.35934 0.675411 
817 1 9.38556 4.85414 -5.23347 
818 1 10.1241 -6.66287 0.161457 
819 1 -7.54505 3.71074 13.7475 
820 1 4.32703 -8.29068 2.88236 
821 1 12.1032 -5.7158 -2.19969 
822 1 9.37999 -2.53882 10.0504 
823 1 1.39118 9.12831 8.91461 
824 1 -12.5576 3.55016 13.3649 
825 1 -6.35892 7.18124 12.3413 
826 1 -0.880201 -14.595 10.0373 
827 1 9.78262 -2.79173 4.58383 
828 1 8.25826 8.50407 12.346 
829 1 -13.8907 -2.4558 -0.0994918 
830 1 8.88158 -6.84086 -2.25917 
831 1 1.60183 3.91249 -1.76692 
832 1 -9.74858 12.7386 -8.47838 
833 1 1.97225 7.42886 2.75649 
834 1 4.02272 -13.909 5.32998 
835 1 4.48988 -0.415965 13.5579 
836 1 -5.17077 11.6191 10.0002 
837 1 1.12748 -10.8336 5.52118 
838 1 -10.009 -4.46409 -1.58949 
839 1 0.855551 3.22506 12.5816 
840 1 -15.4391 -5.04647 -4.54845 
841 1 3.34034 10.9984 14.4161 
842 1 4.13816 11.4269 1.83067 
843 1 -10.917 -11.3538 3.08981 
844 1 -3.54983 -18.8486 6.3649 
845 1 5.79546 -4.06191 7.80575 
846 1 11.0173 -5.63523 9.51985 
847 1 9.22078 6.66125 8.33562 
848 1 -1.88106 8.22725 -3.28373 
849 1 -0.136275 -10.8771 -11.1168 
850 1 -2.35379 1.17603 -11.4519 
851 1 -3.96218 2.63625 11.2996 
852 1 -2.32194 16.5566 3.27524 
853 1 12.5076 3.40295 3.66681 
854 1 0.127417 8.24306 -9.32734 
855 1 -2.40276 11.1658 13.1362 
856 1 7.14425 6.95281 10.4595 
857 1 4.84001 -2.22025 -10.7912 
858 1 -7.02818 -14.8587 -0.41553 
859 1 -7.35447 0.860537 -7.52319 
860 1 12.8016 -2.63307 2.3242 
861 1 2.85475 -4.12742 -12.5395 
862 1 2.23807 8.9036 16.5664 
863 1 9.14382 -11.3487 -6.4312 
864 1 4.49861 4.97364 -14.3618 
865 1 -4.09547 -8.61415 -4.48294 
866 1 10.1909 9.49932 -10.7812 
867 1 13.4896 -1.09016 -0.591703 
868 1 -1.59662 -6.6976 12.026 
869 1 -1.88773 -9.57725 -13.305 
870 1 -0.562241 0.0134823 -0.776416 
871 1 6.06746 13.8368 -0.0515208 
872 1 1.29251 -7.38207 5.47245 
873 1 -11.5487 4.57293 4.04353 
874 1 9.86309 4.27074 -7.99194 
875 1 16.6664 6.05347 3.13453 
876 1 2.6248 -7.474 -17.6072 
877 1 -8.28836 10.6899 5.18373 
878 1 16.6037 7.13947 6.28721 
879 1 10.4114 14.0149 -2.6375 
880 1 1.73364 3.61518 -14.0246 
881 1 8.28915 -4.14806 -0.98378 
882 1 -13.2915 1.66839 -1.48485 
883 1 10.3294 5.8707 3.00987 
884 1 -13.482 -9.99045 -1.2737 
885 1 -9.67096 10.3471 -11.0155 
886 1 6.38762 4.93716 7.5088 
887 1 -12.1784 -1.74627 -6.47446 
888 1 -10.0579 5.90614 6.89047 
889 1 -3.67392 4.21531 -10.922 
890 1 8.13443 -6.95724 -8.34831 
891 1 -11.2263 -8.72788 -7.11075 
892 1 13.6143 -8.07107 -3.862 
893 1 -13.5902 4.61634 -1.42849 
894 1 -7.83081 -5.09013 -4.09163 
895 1 9.40681 3.95029 9.65953 
896 1 -4.64136 -8.50912 5.57971 
897 1 9.48042 1.57301 16.1435 
898 1 12.2107 -3.74959 7.12412 
899 1 11.5831 -5.44654 3.26574 
900 1 -11.6275 3.0855 0.95503 
901 1 2.75644 11.4093 10.5604 
902 1 6.98272 9.22018 -10.0229 
903 1 -0.422047 -11.6614 -17.2612 
904 1 -4.49225 11.9068 0.886442 
905 1 -10.1986 -11.0767 6.52648 
906 1 3.99499 10.0632 -5.41759 
907 1 2.35369 8.43165 13.1568 
908 1 14.2217 -2.54959 -5.29552 
909 1 7.68921 -4.99573 10.2279 
910 1 -0.634049 10.9436 -10.6206 
911 1 -1.03025 12.1367 -7.62411 
912 1 -0.0124941 -2.88524 2.7755 
913 1 -7.07196 -0.527269 10.8475 
914 1 16.5112 3.85395 5.48718 
915 1 -1.58917 -4.73971 -7.86256 
916 1 11.1198 8.05909 1.02422 
917 1 -14.8928 3.22304 -4.06322 
918 1 -3.36927 -11.2986 9.7385 
919 1 5.12681 14.2708 -9.24543 
920 1 3.43486 -4.15107 13.1099 
921 1 -4.45224 -14.2777 0.159479 