ITEM: TIMESTEP
723000
ITEM: NUMBER OF ATOMS
2000
ITEM: BOX BOUNDS pp pp pp
-30.0 30.0
-30.0 30.0
-30.0 30.0
ITEM: ATOMS id type x y z Coordination
1 1 -11.8989 3.68832 -12.4104 15
2 1 -3.01963 -10.5239 -14.0571 14
3 1 0.219835 12.3184 13.2047 15
4 1 4.6661 -8.94349 4.6264 20
5 1 -10.9915 8.19871 -1.61946 20
6 1 13.1266 -7.05832 -8.97211 17
7 1 -10.5365 0.490832 -5.4467 21
8 1 -3.02803 -9.58845 12.0357 13
9 1 -7.93804 7.66602 -10.1235 18
10 1 -9.74498 -6.57516 5.77495 20
11 1 12.9187 5.32531 -8.53218 15
12 1 -2.50752 2.36291 -5.61791 23
13 1 -9.46704 -16.2779 0.00199844 12
14 1 -11.3568 -8.75668 3.75782 18
15 1 0.323093 3.09784 17.1393 21
16 1 7.29876 -1.25471 7.84794 23
17 1 -1.87076 4.03103 10.0501 23
18 1 6.47356 -1.93689 3.48815 23
19 1 -1.25991 12.3121 -12.6289 13
20 1 0.906065 -0.795668 12.927 22
21 1 -7.7251 -4.59645 -13.9916 14
22 1 -10.9011 -3.06991 9.44453 14
23 1 16.0452 1.68198 5.44189 14
24 1 -1.03127 3.55732 -14.8677 24
25 1 0.570621 2.60111 -9.51059 22
26 1 14.8324 0.325168 8.37637 11
27 1 -6.86943 0.652734 0.954392 25
28 1 -11.1623 7.00088 -11.5882 12
29 1 -1.50405 -4.12704 -4.86296 24
30 1 -11.3893 11.4977 5.32641 14
31 1 7.40152 -10.213 5.98169 16
32 1 1.23477 -0.773635 9.36516 20
33 1 1.84403 -12.5075 -10.1339 16
34 1 9.69195 -10.3286 -1.92826 21
35 1 -9.23519 -14.264 -5.82964 12
36 1 -12.3096 -4.86712 6.93041 13
37 1 2.92055 -3.28687 -4.34512 23
38 1 3.10145 -6.93117 -11.5838 24
39 1 11.4846 -9.36375 -11.1097 11
40 1 1.20775 2.7854 -12.7315 23
41 1 0.0360466 6.08105 11.7717 24
42 1 -1.0281 -11.4508 6.84163 23
43 1 4.37392 -4.88443 15.2864 15
44 1 -11.4596 -0.386127 0.897327 24
45 1 -14.6094 0.286232 5.19864 14
46 1 -8.57682 -1.8927 -0.444844 22
47 1 -4.87923 11.8312 -6.15818 20
48 1 -1.52184 -16.3457 -8.23867 9
49 1 -1.75615 -1.24499 -8.2748 22
50 1 4.93276 -4.71498 -10.1446 23
51 1 -3.42074 -6.29572 12.0938 20
52 1 -12.5963 5.54256 -3.10669 23
53 1 1.27013 11.551 -10.9243 15
54 1 -0.521985 9.34008 8.41996 22
55 1 -9.29995 6.29426 -4.06256 23
56 1 -1.09315 11.7459 0.182594 23
57 1 -1.22087 -15.5557 2.62737 21
58 1 8.36394 -8.81137 0.68339 22
59 1 8.9771 -4.45758 -14.2733 14
60 1 -6.50263 10.0718 9.78176 22
61 1 -11.5163 -1.55031 -10.6048 14
62 1 10.6254 -0.842743 7.22283 25
63 1 -6.56209 4.99385 -5.04116 22
64 1 -8.05406 -8.25144 3.36414 22
65 1 0.807758 14.1112 10.3146 17
66 1 -14.5291 8.06529 -8.15269 10
67 1 -2.92974 9.21483 16.867 11
68 1 -0.559676 4.50135 -7.02779 21
69 1 -0.623764 5.51756 4.1562 23
70 1 -1.87549 -16.9999 7.56536 10
71 1 1.84141 4.3125 6.11039 25
72 1 7.55129 -14.1518 -1.36394 15
73 1 5.44496 12.1809 14.0556 17
74 1 -13.5427 5.08414 -8.03363 17
75 1 -11.5916 7.09609 -8.60244 22
76 1 5.96651 4.50574 17.7747 13
77 1 11.4186 -2.05241 -7.55725 19
78 1 12.7498 -10.7839 -1.48807 11
79 1 -14.4334 -0.758057 1.72174 19
80 1 -9.04416 -1.23198 2.7575 24
81 1 7.65579 15.073 5.63145 16
82 1 -0.874123 0.360293 18.6408 12
83 1 -4.84336 -16.1094 6.09635 16
84 1 -14.0585 0.54237 -1.16656 21
85 1 13.5722 3.50068 3.11283 20
86 1 8.27511 -3.87104 -2.24117 23
87 1 -0.860586 8.80632 11.543 19
88 1 4.50653 -0.147988 8.96273 21
89 1 -5.87181 -5.90807 1.70619 21
90 1 -1.86091 -9.94852 -9.54634 23
91 1 -11.1411 9.04016 7.21522 16
92 1 -8.59822 11.7463 -2.11715 21
93 1 -3.79715 8.43352 -6.09131 22
94 1 2.5533 -0.199786 -4.4371 24
95 1 6.00264 -2.67856 -4.9964 23
96 1 8.10395 11.2496 -5.46413 19
97 1 2.83503 -7.25752 10.363 25
98 1 7.08776 -6.00686 13.6485 15
99 1 -5.4938 16.0243 -4.32383 15
100 1 -8.19269 15.8357 4.13052 11
101 1 -8.34377 -2.52282 13.5858 12
102 1 -6.77147 6.17072 5.82809 26
103 1 -3.69759 -3.0346 11.6095 21
104 1 14.1248 -7.60491 -6.26378 15
105 1 -5.71952 3.02061 6.13757 22
106 1 -11.9348 -14.0008 1.79517 12
107 1 9.2442 -6.93415 -5.14701 21
108 1 3.39964 1.56462 -10.1729 21
109 1 -9.02293 2.40649 -14.5173 13
110 1 5.07519 -0.115267 5.77168 22
111 1 3.43856 14.3548 2.25242 23
112 1 -9.85208 9.13824 -7.12564 22
113 1 0.764456 6.31383 16.4126 18
114 1 0.107586 17.7208 -2.93943 15
115 1 -10.0692 12.9162 0.243508 19
116 1 -1.17682 8.71607 3.77408 23
117 1 -0.681054 1.07007 -3.35798 22
118 1 -5.34479 -8.63397 10.362 20
119 1 13.1057 -1.98247 9.33011 14
120 1 -5.95244 -2.22867 -12.4654 21
121 1 3.79779 -6.49845 -3.93324 22
122 1 -1.17779 0.327349 10.0767 20
123 1 6.47973 -2.27005 16.1065 13
124 1 -8.28422 -8.80015 -4.40726 22
125 1 5.6909 -3.32744 6.11679 23
126 1 -8.28749 -8.75926 -7.34662 22
127 1 11.2792 -7.70283 -0.380224 20
128 1 -9.02313 7.04311 3.46692 22
129 1 7.65694 -1.24485 -13.8198 14
130 1 5.86718 16.8579 0.32233 13
131 1 -6.67694 -10.7813 8.24298 21
132 1 -8.80525 -12.4662 6.35288 20
133 1 -7.94412 3.87308 0.789199 23
134 1 6.01238 -8.3011 -12.8744 18
135 1 2.6641 4.72675 -7.58886 24
136 1 9.92286 -10.1517 -4.98737 23
137 1 -0.337511 -14.7824 6.39127 20
138 1 -9.35699 -10.5827 -1.98887 21
139 1 15.9487 8.62352 7.02284 11
140 1 14.3676 -1.41458 -7.7452 14
141 1 -14.3322 -3.9425 1.9271 15
142 1 9.02477 9.12658 5.73103 24
143 1 15.5107 8.47044 1.07431 14
144 1 -6.6299 5.2918 12.938 25
145 1 6.06391 4.53491 -0.805942 22
146 1 -5.0435 11.9678 11.9719 12
147 1 -6.88743 8.15395 -5.32482 21
148 1 -1.95863 -4.72874 -12.6309 22
149 1 9.92283 -10.8869 -9.07606 16
150 1 3.04839 7.82872 -14.2449 14
151 1 8.91594 -2.85986 13.4496 19
152 1 0.453654 -3.14925 -17.5149 18
153 1 -5.03925 11.8373 -9.39367 19
154 1 7.74864 2.56635 -6.56147 23
155 1 -10.6359 9.74615 -3.97543 21
156 1 2.64843 -2.97711 -0.890799 22
157 1 -8.46986 15.0806 1.23216 15
158 1 6.10305 0.287528 -11.4111 21
159 1 10.3389 -9.24449 5.11332 17
160 1 -4.95422 3.48085 -7.38665 22
161 1 -7.82271 12.6521 10.2323 8
162 1 12.204 8.41213 -9.23807 12
163 1 -1.67952 2.94408 -0.992495 24
164 1 4.624 10.9452 -1.24555 20
165 1 -2.12369 15.0164 0.57178 19
166 1 7.07409 9.91104 0.727171 23
167 1 -5.20579 10.2474 -3.92443 23
168 1 1.79585 16.5343 -6.20127 12
169 1 0.664638 5.84008 -12.9203 23
170 1 -12.3955 -12.0325 -0.68205 13
171 1 -13.7986 12.2065 -4.74782 10
172 1 -7.96212 -4.47895 -10.914 23
173 1 1.15428 -6.68441 -17.2756 17
174 1 11.817 7.94097 5.24089 21
175 1 -0.726221 14.0506 5.69862 18
176 1 -11.8504 -4.50663 -6.5933 22
177 1 -11.2525 12.9098 -4.28461 17
178 1 14.7556 -0.684304 0.411115 17
179 1 -9.234 2.20916 -11.4104 20
180 1 2.31261 1.87913 19.3752 12
181 1 3.2575 17.825 1.62123 15
182 1 -4.93092 8.05163 7.34887 24
183 1 4.47373 -10.6212 -14.6817 12
184 1 -2.05698 12.1951 3.44627 21
185 1 -0.576097 13.6763 -2.53881 20
186 1 0.932089 -5.51283 15.7184 10
187 1 -9.93205 -3.14184 5.56068 23
188 1 -0.188669 -11.5565 -15.35 15
189 1 -5.53637 16.1353 -9.49024 11
190 1 -4.87628 -12.6358 2.17273 22
191 1 6.24798 -14.5035 -5.29201 14
192 1 -4.34495 14.0647 -11.9763 10
193 1 -14.5673 3.65673 5.50887 17
194 1 1.00133 6.78321 -1.7183 22
195 1 7.95527 11.5088 -2.00542 22
196 1 -7.86836 6.86539 14.759 14
197 1 0.613853 -9.34592 8.82407 24
198 1 -9.48698 1.41442 -0.893859 24
199 1 2.05946 15.872 4.18301 16
200 1 3.44842 6.55553 7.90395 24
201 1 13.1295 4.97567 11.7476 15
202 1 -7.26635 11.9572 2.1039 21
203 1 12.5043 -3.80813 -9.73233 17
204 1 -5.88543 14.5616 3.82968 19
205 1 -4.48069 -0.0625336 -7.39202 23
206 1 13.32 -5.79256 1.97762 14
207 1 -1.57892 -8.2989 6.5109 24
208 1 -16.1574 2.34955 3.04876 14
209 1 -6.8665 -14.599 4.09972 21
210 1 4.16473 6.67554 12.6925 23
211 1 -13.5863 0.357529 -4.72377 20
212 1 -3.79017 1.09406 0.436212 23
213 1 -3.02782 -14.4321 0.176909 23
214 1 -1.46397 -0.115015 2.334 26
215 1 -5.20379 -1.71494 -4.48177 24
216 1 3.76858 -9.56672 0.0394857 22
217 1 -3.67354 9.71368 1.57451 22
218 1 -7.32122 0.886345 4.51493 22
219 1 6.79572 14.2402 11.6899 14
220 1 -8.10033 -0.0857794 -3.36496 23
221 1 -2.6578 16.1106 -10.0035 12
222 1 -14.8598 -3.64502 -8.23103 13
223 1 -10.2105 0.316185 9.00167 22
224 1 -5.47066 -9.21229 2.0833 23
225 1 6.60836 -9.92203 9.37064 14
226 1 -10.9825 13.7093 3.16527 13
227 1 15.8633 5.45981 2.10831 16
228 1 5.39017 3.77506 -8.63428 20
229 1 -6.5871 -2.70913 -16.5956 11
230 1 3.13323 1.49884 11.4847 22
231 1 -2.26836 -5.44591 1.21549 23
232 1 4.46644 -13.1693 0.359246 23
233 1 -3.80704 4.96047 -13.6994 23
234 1 3.79304 -10.01 -11.4433 18
235 1 11.7759 -0.721112 -9.85133 15
236 1 -1.3663 6.97791 -14.6685 22
237 1 -5.99619 -2.19279 -9.1594 25
238 1 -2.95263 14.3306 -7.4496 21
239 1 -9.57175 -10.241 8.98391 17
240 1 7.25561 14.7396 -2.08833 16
241 1 -5.65119 4.75505 16.2955 13
242 1 -5.9727 14.9619 -6.93754 19
243 1 8.86364 0.748861 9.6407 23
244 1 -1.24104 -8.76811 -12.6021 21
245 1 -7.2009 13.6959 -10.3667 11
246 1 1.34759 -0.624155 -9.00528 23
247 1 -5.18337 -12.3974 5.52679 21
248 1 -2.29716 3.20169 2.3602 24
249 1 -12.1502 6.91585 9.668 15
250 1 -3.26522 10.2614 9.42404 21
251 1 -1.4102 -13.1827 -9.13115 19
252 1 -7.32733 -15.441 -3.0202 15
253 1 11.9237 -8.38683 -3.4503 20
254 1 -3.23822 1.71272 4.88662 22
255 1 -3.24314 -2.12022 0.94181 24
256 1 3.15077 -6.24945 -0.308489 21
257 1 12.632 8.01678 13.3786 14
258 1 4.17063 6.9241 -5.73632 23
259 1 0.273677 10.0497 -2.07075 21
260 1 -9.92363 2.06882 2.29613 23
261 1 -13.053 10.1753 -6.48338 17
262 1 5.61537 5.34765 10.391 21
263 1 4.73869 -16.2416 0.463648 13
264 1 9.69114 1.72949 -1.06371 20
265 1 1.3026 7.71957 6.12151 22
266 1 -9.26616 10.0754 0.236937 21
267 1 -9.25917 -6.08303 -4.83279 22
268 1 3.5385 1.29105 -13.6025 23
269 1 -0.0117868 -1.86995 16.0786 16
270 1 9.40566 7.4778 -8.19808 23
271 1 1.65842 -8.60839 -2.20666 21
272 1 -3.30002 -3.39068 -10.3864 24
273 1 3.19727 -14.2743 5.76245 13
274 1 8.11447 2.46013 -9.86416 22
275 1 -6.84938 -2.76327 4.58806 22
276 1 4.7071 -16.3436 -2.76754 15
277 1 -7.18271 -3.67758 -6.13563 23
278 1 4.01062 14.5528 -0.99575 19
279 1 2.44273 -3.79733 -12.1699 22
280 1 1.9858 0.276138 17.1226 19
281 1 16.35 1.55789 2.17275 12
282 1 -4.57228 -7.81354 -0.81017 23
283 1 9.566 -4.25745 -9.42562 24
284 1 -1.61659 -12.2371 1.86224 22
285 1 -5.16675 -0.549585 -14.9346 18
286 1 -12.8978 2.0136 -7.92188 21
287 1 -8.26154 -13.1597 10.0464 12
288 1 12.7507 1.00015 6.05644 24
289 1 5.78191 -6.883 9.11799 23
290 1 -4.84429 -5.68408 -12.0229 23
291 1 4.70378 -5.01803 11.4856 22
292 1 4.77049 6.96722 -8.88098 24
293 1 4.84568 7.89918 2.15641 23
294 1 -2.75969 -10.2117 4.2186 22
295 1 1.03572 10.8208 2.43429 23
296 1 -6.11186 -2.22289 9.0573 21
297 1 -7.16076 -7.54533 -10.2507 22
298 1 -2.90609 -6.71686 -9.97289 21
299 1 0.615241 8.53515 -16.1189 12
300 1 -3.27679 -11.399 -3.60189 24
301 1 -1.81914 -8.78599 1.62413 22
302 1 -6.15213 -6.75501 -5.94808 23
303 1 7.06909 -3.06654 -11.4068 22
304 1 13.5378 1.89876 -8.78057 15
305 1 1.33262 -4.54723 5.60292 21
306 1 11.4803 4.06884 0.537364 22
307 1 -4.46922 -4.74392 -4.14758 24
308 1 -7.67566 -4.21333 7.51472 24
309 1 -5.30862 -13.3028 -1.93773 20
310 1 9.2599 4.77079 16.8374 11
311 1 -2.90525 -13.9401 4.46381 23
312 1 1.91059 3.24208 -4.88994 24
313 1 2.2415 -11.8218 -2.08627 22
314 1 -2.49349 17.9161 -0.796876 13
315 1 4.34203 -2.04551 -13.5471 23
316 1 -4.38281 -4.15548 -14.7749 22
317 1 1.65597 -4.97358 2.23474 22
318 1 -7.16757 -7.55003 7.72218 20
319 1 2.34408 4.47536 13.8656 21
320 1 4.32516 -9.77492 -3.10685 22
321 1 -3.70977 -11.9189 -11.1012 16
322 1 -12.0688 7.14642 -5.63655 21
323 1 9.86806 2.3925 6.78968 22
324 1 -7.59379 4.46553 -9.51277 22
325 1 -3.74575 8.61254 -9.30078 21
326 1 -5.76347 -9.28257 5.50616 22
327 1 8.32039 -12.7744 -6.83248 14
328 1 -4.87659 16.0761 -1.77708 17
329 1 0.502048 10.6207 5.84072 21
330 1 13.3446 -2.14564 6.26739 17
331 1 -2.97991 -1.76142 8.6481 22
332 1 -2.22072 -7.88885 9.67689 22
333 1 -2.69485 10.1421 6.01247 23
334 1 6.91195 -6.77727 -15.9603 13
335 1 13.1523 9.38278 -0.897391 18
336 1 0.753163 -13.5695 1.19621 22
337 1 -2.38095 -1.27174 13.8523 17
338 1 -12.1483 -1.92867 3.82999 20
339 1 1.59569 -17.1462 -3.71114 16
340 1 -7.57535 8.50946 12.3382 20
341 1 -10.4619 5.35015 15.3237 9
342 1 -11.8421 -1.30198 7.1605 18
343 1 -11.765 -5.2017 3.66666 20
344 1 15.0573 -3.87739 0.360383 12
345 1 -9.95776 -6.25885 8.9559 19
346 1 10.2832 1.58908 -4.5124 23
347 1 10.6486 -13.5134 -3.32441 13
348 1 1.85782 15.2822 -3.21272 18
349 1 -3.83013 -3.99112 3.49564 23
350 1 -8.92145 14.3676 -5.77459 13
351 1 -0.845163 0.292796 6.77325 20
352 1 9.37818 8.99034 11.4477 22
353 1 -6.83818 -6.74814 -2.84287 23
354 1 7.19406 -8.99785 -3.62999 24
355 1 -0.615012 8.55046 0.595162 25
356 1 -6.0203 6.04704 2.42639 23
357 1 -0.120815 1.99887 4.32672 24
358 1 9.01414 -7.74834 8.01672 18
359 1 13.1362 -7.60707 4.36468 12
360 1 -2.02429 7.03287 6.49767 24
361 1 -7.43557 -0.639512 -6.58631 23
362 1 3.32818 -2.59633 4.03554 23
363 1 -3.15414 2.39304 17.4255 15
364 1 -0.892315 12.2972 8.09973 20
365 1 9.23851 7.28967 14.6575 18
366 1 -3.8588 17.7884 -7.27095 11
367 1 1.45348 -4.90438 -19.1749 8
368 1 -5.8354 1.83847 -4.90048 24
369 1 8.25487 -9.07665 -10.6061 19
370 1 -8.13767 3.3637 15.0965 16
371 1 -16.581 5.41711 1.46262 12
372 1 1.4006 -5.435 -6.16807 24
373 1 -5.1837 7.34146 -0.218688 21
374 1 6.8229 -1.19312 11.1416 21
375 1 -9.16488 -13.977 1.89552 21
376 1 11.8643 -7.31959 7.72995 14
377 1 -4.44558 4.04643 0.172662 24
378 1 -10.2575 -8.53084 11.5985 11
379 1 -12.0983 11.1284 -1.68574 13
380 1 2.26809 -4.06967 9.89113 23
381 1 2.91364 -11.8627 -5.29245 23
382 1 -3.85679 -3.26361 -6.82434 24
383 1 6.16609 -3.30789 -15.9466 16
384 1 2.53651 12.6856 4.68418 18
385 1 -9.77177 -2.5702 -4.95268 22
386 1 0.962962 -9.0588 -10.214 22
387 1 6.67867 5.14199 -14.9099 13
388 1 -6.79797 -16.4911 -5.69074 11
389 1 -13.8372 -6.50926 -7.99823 13
390 1 -3.67127 -11.026 -0.557546 23
391 1 12.0469 4.88898 14.7491 11
392 1 -2.70976 -2.525 -2.16297 22
393 1 12.5293 3.44311 -6.04288 23
394 1 -5.58623 6.26434 -11.0262 20
395 1 3.099 17.7866 -1.56205 14
396 1 -15.5694 -1.69574 -6.37956 13
397 1 2.86768 0.991466 3.51557 21
398 1 -7.25841 9.19234 5.28012 23
399 1 -5.78377 10.6678 -0.769622 22
400 1 -4.9819 4.09967 10.5899 23
401 1 9.95374 6.25836 11.3998 22
402 1 13.7859 -4.57685 -4.57531 15
403 1 5.9905 -2.94896 13.6017 20
404 1 10.4718 1.12695 -7.74847 24
405 1 -1.77206 -17.7474 -2.588 17
406 1 2.00401 1.01429 6.65217 22
407 1 -8.6195 6.80997 0.366623 23
408 1 -3.77504 -7.94641 -3.84233 24
409 1 -5.32609 11.0718 7.174 20
410 1 5.05431 3.45424 -5.57624 21
411 1 -8.78502 2.7348 -3.95862 22
412 1 6.58011 -10.7906 -0.874434 23
413 1 13.9008 -5.38381 6.80252 11
414 1 -9.4235 -2.50838 -8.25863 22
415 1 -7.81235 -8.32281 0.175491 22
416 1 -10.344 -5.22689 12.3434 11
417 1 -3.08393 9.41244 -1.37521 22
418 1 -11.3293 -8.10424 -6.25159 19
419 1 7.33673 9.88705 14.6297 15
420 1 -10.1748 4.52745 -1.4185 25
421 1 -0.312621 13.3279 -5.74127 22
422 1 3.00482 9.57229 7.85618 24
423 1 -12.3182 -6.37814 -4.20524 19
424 1 -2.26884 -9.75937 -6.1517 22
425 1 -13.9851 4.03434 2.46378 21
426 1 -13.9833 8.93009 -3.29863 16
427 1 6.30723 -6.76904 6.39448 22
428 1 -0.0416259 -10.7732 -4.0792 24
429 1 10.8119 11.1808 7.9132 19
430 1 -0.377709 2.74167 -18.2161 15
431 1 -10.3975 4.19679 -9.091 23
432 1 0.165978 15.0118 -8.57447 17
433 1 -11.0559 4.04108 -5.82271 24
434 1 0.401278 -13.2876 4.37279 24
435 1 13.3782 6.433 2.40771 23
436 1 -3.52386 10.365 -11.4411 18
437 1 -7.585 4.47686 8.45665 23
438 1 -14.8963 3.81042 -1.70397 19
439 1 4.21663 1.99307 -2.9274 24
440 1 -9.17647 2.54941 6.72877 22
441 1 -3.18249 -13.8001 7.90832 20
442 1 -0.371702 -7.76594 -7.79107 22
443 1 5.55035 -8.0807 -9.80641 23
444 1 -0.469361 -3.0808 8.05264 22
445 1 -9.80849 5.75813 6.62364 24
446 1 -12.8901 1.67117 7.42352 18
447 1 -13.5744 9.72188 4.87363 12
448 1 0.222655 -8.96164 11.9964 19
449 1 -7.67229 4.52847 -12.3605 18
450 1 8.10541 -9.02875 -7.19347 22
451 1 3.49218 -7.68826 -14.9784 22
452 1 -4.27901 -0.261306 10.964 20
453 1 5.74187 -7.34623 -1.53888 22
454 1 -3.22845 3.24773 -18.6306 11
455 1 5.90468 -10.4748 2.15133 21
456 1 0.625759 9.71861 -5.19544 22
457 1 -8.15746 8.09007 8.30068 22
458 1 -5.36535 -0.920234 13.8304 19
459 1 -7.50395 -7.75755 -12.8665 15
460 1 -8.87321 -9.35562 6.06281 21
461 1 9.84777 -6.11283 13.107 12
462 1 6.25523 1.62769 2.68925 21
463 1 -5.49725 3.08926 2.94924 22
464 1 3.79669 -1.85017 -7.00527 23
465 1 7.84037 -4.7735 8.26578 24
466 1 -0.100697 5.11643 1.1433 22
467 1 15.9866 8.08674 -3.01415 10
468 1 -6.00914 7.07326 10.5103 22
469 1 2.13895 12.474 -0.292663 22
470 1 8.74163 -8.15179 11.0806 13
471 1 -1.82099 -13.2067 -5.69172 21
472 1 -3.07226 11.9121 14.5473 12
473 1 -3.0338 15.4073 3.64354 12
474 1 -9.11644 -12.4122 -8.80546 12
475 1 11.5147 15.278 1.22326 9
476 1 5.86426 8.07426 6.79568 23
477 1 -3.33765 1.57998 8.07569 23
478 1 -6.04594 -10.2038 -2.47806 24
479 1 -8.28926 2.72009 11.1881 24
480 1 -8.80362 -6.01238 -7.85775 23
481 1 -5.02807 11.4436 4.12828 22
482 1 -5.07476 -13.7655 -4.99769 23
483 1 -1.52723 -5.09042 -15.979 20
484 1 -7.31213 -11.3349 3.7089 24
485 1 -6.57209 -2.66984 1.52497 21
486 1 8.82675 -0.0120457 2.13737 23
487 1 -5.57482 -4.42395 13.5622 15
488 1 -8.4289 7.33282 -13.0525 9
489 1 6.8748 5.83649 -3.64166 22
490 1 -9.07874 -13.532 -1.36995 17
491 1 3.55259 1.5379 -7.28355 22
492 1 -5.58204 16.4053 1.23314 13
493 1 0.382891 6.29959 -9.66306 23
494 1 2.55569 4.80631 10.4396 23
495 1 -12.7249 -2.90265 -4.33116 20
496 1 0.380392 19.0024 -0.34615 11
497 1 5.33513 12.4027 -3.73264 22
498 1 -5.51756 -5.23209 -8.62292 25
499 1 3.95215 3.01859 16.533 21
500 1 1.00935 -14.1229 -7.33055 21
501 1 1.52106 -9.66578 -13.6744 25
502 1 8.47081 -11.421 3.26916 17
503 1 -6.73493 8.84859 2.16834 24
504 1 -0.790461 4.35047 14.2291 20
505 1 6.01789 9.10355 -3.99134 24
506 1 2.6506 9.23195 0.0646553 23
507 1 -7.83656 12.5633 -7.93809 19
508 1 5.67825 0.180756 -5.33071 22
509 1 0.283911 -10.0572 4.0416 22
510 1 -16.3962 -1.72987 -0.00830168 10
511 1 3.92563 2.77019 0.460513 21
512 1 5.45713 16.4657 3.51243 16
513 1 -6.52723 1.17461 -12.6828 23
514 1 9.49134 5.05371 -1.43307 23
515 1 5.65058 12.3525 -7.17045 15
516 1 4.1608 -5.60535 4.30356 22
517 1 14.737 2.4929 -0.54128 14
518 1 -0.406885 -2.82586 -10.7408 22
519 1 0.674481 -10.3043 0.188707 21
520 1 1.86638 -12.686 8.42567 16
521 1 3.36179 -9.99516 12.7818 14
522 1 -8.81985 5.86195 -7.24356 23
523 1 -10.5811 -11.8069 4.01659 20
524 1 2.34909 4.23791 2.70649 23
525 1 -3.81773 -15.3002 -7.7089 15
526 1 9.30274 14.3515 8.66072 10
527 1 1.87528 -0.930888 -15.6149 21
528 1 3.07001 -1.97564 14.9896 18
529 1 -14.0602 4.21146 8.98797 12
530 1 -0.633687 -19.2533 -0.30489 10
531 1 -10.7463 -3.61926 1.1308 24
532 1 14.6192 -4.60324 -7.3152 15
533 1 15.9302 0.697823 -6.22331 10
534 1 -0.883118 4.57125 -3.78589 23
535 1 -4.99543 7.10207 -3.36686 22
536 1 2.84718 -7.12883 -8.33485 22
537 1 5.97311 0.475525 -8.33741 21
538 1 11.2987 -5.05603 -6.93353 20
539 1 -3.49221 -0.785339 16.9385 11
540 1 4.29187 14.7362 6.29703 18
541 1 -5.51654 2.89172 -15.4787 18
542 1 -0.658594 -7.07747 3.85829 21
543 1 4.8338 2.85251 -16.7053 11
544 1 -4.47014 -3.64736 6.54399 22
545 1 -3.42853 13.6884 -4.53862 24
546 1 -12.1503 -4.70495 -9.5151 13
547 1 -16.0283 1.92869 0.396785 15
548 1 -3.27929 -6.17184 -17.4011 9
549 1 -7.485 -10.3775 11.504 14
550 1 3.80066 10.3544 -5.94475 23
551 1 15.4525 5.55069 5.40224 18
552 1 12.5158 3.6597 -2.37224 20
553 1 -7.54642 -12.2255 -4.30348 22
554 1 -1.50492 -8.84678 -1.85716 23
555 1 -2.29998 -1.82529 -16.2246 17
556 1 -8.97182 11.2391 7.63984 17
557 1 4.41852 -4.90342 -6.70872 23
558 1 3.21315 5.89434 0.165192 26
559 1 12.5289 0.661199 -1.87194 19
560 1 2.06501 8.24525 -8.04394 24
561 1 3.06543 -11.2287 2.83516 22
562 1 4.9353 -1.1159 -2.53092 21
563 1 14.0499 7.43277 -6.05417 14
564 1 3.7239 10.1475 12.4547 23
565 1 -11.3813 3.87768 4.77613 24
566 1 -5.10131 -4.36477 -0.939306 22
567 1 7.67238 10.2428 8.4967 24
568 1 8.14176 -0.125626 15.5009 15
569 1 2.22477 0.39296 -18.3523 13
570 1 -3.05147 -6.46663 -6.63295 25
571 1 1.96387 -4.13932 12.9508 19
572 1 5.2216 11.2919 6.39537 23
573 1 2.70471 13.611 -8.86413 13
574 1 -6.71287 9.74387 -7.95653 19
575 1 1.19788 15.8128 0.0205877 22
576 1 11.2894 -3.52823 11.7172 15
577 1 8.83502 4.28383 -12.5754 14
578 1 13.4018 -10.2292 -4.98454 12
579 1 11.9052 9.77827 10.9722 16
580 1 -12.7385 -8.9392 -0.612702 14
581 1 -5.10804 8.15261 -13.1898 15
582 1 -0.853396 -2.96054 11.1782 23
583 1 -10.767 2.35478 13.6779 14
584 1 0.775411 15.0476 -11.5329 8
585 1 0.977353 -13.9969 -4.02846 25
586 1 6.81425 -3.02911 -8.07124 22
587 1 -3.16646 18.4038 -4.11565 10
588 1 -10.8339 -4.53419 -12.0001 8
589 1 5.11434 -11.9972 7.54696 14
590 1 -10.0701 -7.14253 -1.90881 20
591 1 0.368909 9.16686 -12.9444 19
592 1 -6.37384 2.07271 -1.85941 23
593 1 2.06724 8.41581 17.3766 11
594 1 -6.20708 -6.0275 4.92057 24
595 1 1.12815 6.34515 -5.06235 23
596 1 0.588569 -10.852 -7.231 25
597 1 5.65201 -8.45978 11.7857 17
598 1 7.82492 -0.727828 -2.70201 21
599 1 1.42384 -1.49384 1.54184 23
600 1 -12.9899 6.15529 -0.203249 20
601 1 7.12835 2.86281 15.4336 20
602 1 4.54472 15.8272 -4.03681 13
603 1 11.1961 -5.16148 -3.24898 21
604 1 5.46997 8.39751 9.96991 25
605 1 -0.960801 0.0208923 -18.8033 11
606 1 -4.96316 -12.1997 10.313 17
607 1 -2.52259 2.08133 -8.66022 22
608 1 7.04372 2.00514 -14.2543 15
609 1 2.4207 12.5706 7.56545 23
610 1 8.34977 7.59728 -12.8396 12
611 1 -4.24106 -8.88093 -11.6154 19
612 1 -1.054 -12.3162 -1.42245 24
613 1 -11.2124 0.811217 -13.263 11
614 1 13.8203 6.52573 8.23525 18
615 1 14.2054 5.56652 -3.75639 17
616 1 8.84224 -4.08606 -5.41989 20
617 1 14.3914 8.09388 10.4951 13
618 1 5.37532 -8.09939 -6.33189 22
619 1 1.81584 2.40722 -16.0227 23
620 1 8.38404 11.9271 3.42254 20
621 1 -8.21956 3.99669 4.09986 25
622 1 10.6518 10.5114 13.6321 14
623 1 10.7913 10.0909 -2.96468 19
624 1 11.6215 -4.41213 4.54791 24
625 1 10.4419 5.82199 -10.91 13
626 1 5.28654 0.424044 13.4553 25
627 1 14.3556 3.21837 7.66176 15
628 1 4.91523 -7.96479 15.4291 8
629 1 13.0504 12.8382 2.46723 11
630 1 8.09204 0.333573 5.16832 22
631 1 -0.657267 1.05889 15.0963 24
632 1 14.8724 2.58599 -3.81969 16
633 1 6.18304 2.19356 10.6621 22
634 1 -9.68895 0.745952 -8.46046 24
635 1 14.2828 -0.690732 3.60096 16
636 1 7.40543 -5.02725 3.59982 21
637 1 0.416477 -6.85078 -0.0162479 21
638 1 -10.0211 9.28549 10.4253 14
639 1 9.71455 12.1092 10.6255 19
640 1 5.35946 0.641808 17.3852 13
641 1 4.26882 14.881 9.72619 14
642 1 3.11246 13.3168 12.2694 15
643 1 4.10152 3.48097 8.22701 22
644 1 1.03811 -16.7737 4.81355 12
645 1 -8.24122 11.2353 -5.29298 22
646 1 13.6199 9.51017 -4.25909 12
647 1 10.0834 -2.81448 -11.9532 14
648 1 -0.0841389 17.639 2.07533 11
649 1 -3.89814 -11.5894 -7.88896 21
650 1 11.0472 -6.15537 -11.8661 14
651 1 -15.651 6.82582 4.32969 12
652 1 -2.77335 5.56711 -9.05052 25
653 1 -3.29266 -17.4605 0.356511 15
654 1 -6.70079 1.2112 -9.14871 23
655 1 -11.2539 -0.978318 -2.55428 23
656 1 9.43983 -6.1673 5.83947 21
657 1 12.0009 4.51142 6.0511 21
658 1 3.86639 -8.76701 7.61614 23
659 1 -15.0213 -0.241241 -8.62786 12
660 1 0.799172 1.89746 1.21234 23
661 1 3.96509 -2.4438 -17.9601 14
662 1 2.4523 -1.97485 7.03634 23
663 1 -5.1366 7.43129 14.7174 19
664 1 5.36105 6.70494 -12.2585 24
665 1 12.0533 -0.129864 11.3509 16
666 1 7.0307 5.76277 -6.66162 22
667 1 4.51245 -0.581241 0.984707 23
668 1 9.5552 8.73392 2.76929 22
669 1 4.29808 -13.3258 -7.91203 14
670 1 -10.5068 -0.484533 11.8279 15
671 1 11.0136 -1.04226 4.19414 24
672 1 -0.421958 9.76244 15.489 15
673 1 4.37373 10.8801 -9.33911 18
674 1 -12.2679 10.0617 -9.6937 10
675 1 10.281 9.92535 -0.422182 22
676 1 -4.32479 -15.7015 2.86859 20
677 1 10.945 -4.5793 -0.103943 23
678 1 10.4358 14.4607 4.13228 14
679 1 -1.9316 7.73642 14.2557 22
680 1 -12.8969 -5.80976 -0.56124 17
681 1 -8.63371 -0.928393 -11.0747 20
682 1 8.38688 0.62068 12.5972 22
683 1 -7.39955 -7.12486 12.5051 13
684 1 7.81647 4.3165 12.8461 21
685 1 -6.45285 13.429 -3.75948 21
686 1 8.39125 3.34801 1.104 22
687 1 5.05765 -3.93796 1.30152 20
688 1 7.96044 3.68257 4.45463 23
689 1 0.878357 5.27936 -16.0828 17
690 1 -6.43195 1.36906 9.18504 20
691 1 8.75696 -1.12302 -9.55317 23
692 1 -0.489424 -7.32161 -4.34114 20
693 1 13.3754 -10.1141 -8.20868 13
694 1 6.71233 2.09169 7.64503 21
695 1 4.65368 2.92919 5.11993 21
696 1 -12.3302 1.99375 10.7331 14
697 1 10.9197 7.94225 8.84961 23
698 1 -1.9049 -4.59878 14.1397 17
699 1 -2.65947 7.17613 9.76279 26
700 1 -3.38954 -7.11023 -14.317 21
701 1 -5.89857 1.81768 12.8353 21
702 1 -3.88189 4.01263 -2.95353 24
703 1 4.87534 3.5942 13.3607 23
704 1 -8.15048 -15.2608 7.35324 12
705 1 11.5402 7.20524 -3.00211 24
706 1 5.80772 -11.047 -5.78455 21
707 1 -3.40968 5.55493 -5.95808 22
708 1 5.39951 7.76636 -1.24883 22
709 1 8.4426 12.253 5.9851 21
710 1 2.94546 -4.44095 -15.4159 24
711 1 -2.21898 -1.82442 5.06914 23
712 1 2.14199 12.2034 -3.70496 19
713 1 8.247 7.90618 -1.78617 21
714 1 1.00164 -5.14646 -2.90652 23
715 1 -7.21875 -11.4681 0.193785 22
716 1 -3.10669 1.49366 -16.4441 17
717 1 -9.07433 14.7622 -2.21667 15
718 1 7.84908 -6.14999 -11.491 23
719 1 5.39589 4.66601 2.71574 21
720 1 9.33055 10.6365 -8.75272 12
721 1 9.72463 13.6717 -0.335895 15
722 1 -3.67687 5.14902 4.65983 22
723 1 -11.0599 5.32898 1.75945 24
724 1 8.69282 8.09426 -4.72538 21
725 1 13.193 2.06102 13.1912 11
726 1 11.439 -0.75661 14.0496 11
727 1 -1.76142 -11.4251 9.94733 20
728 1 -2.4179 9.85555 -14.1579 16
729 1 4.71494 11.7016 9.77038 20
730 1 9.11994 -7.88182 -13.3078 12
731 1 0.788419 2.73705 9.00611 21
732 1 7.38336 14.3622 -5.02651 10
733 1 6.55402 9.77258 3.86676 24
734 1 -5.57237 -1.39238 -1.47882 21
735 1 15.2034 -3.52208 -2.31642 10
736 1 6.82895 6.02722 15.0326 19
737 1 -12.9795 1.42411 3.17608 23
738 1 2.32092 -15.1711 -1.16381 22
739 1 2.25289 -3.79622 -8.97517 25
740 1 -12.4344 11.4334 2.48751 10
741 1 -1.38044 3.75996 6.66632 24
742 1 5.51734 -7.24518 1.77893 22
743 1 3.54151 9.63892 4.42574 25
744 1 -8.37014 -5.03982 -0.0705832 20
745 1 -5.84559 1.43788 16.13 15
746 1 -3.53967 1.69852 -13.4012 22
747 1 -3.45647 5.11225 -16.5462 17
748 1 4.441 -13.084 -2.63723 22
749 1 6.65601 9.13801 -7.4061 23
750 1 3.60007 -5.50115 7.22515 21
751 1 -2.70411 6.38117 1.93257 25
752 1 -10.8218 3.86343 9.07927 21
753 1 1.78807 -0.652175 -12.0251 22
754 1 1.21539 -12.2463 11.6138 10
755 1 5.77697 13.1683 3.92041 24
756 1 -6.0662 10.1274 14.9642 11
757 1 -0.432928 -3.74014 -0.188614 22
758 1 -9.72635 -10.0544 -11.2145 12
759 1 -6.40045 -6.09552 -15.9597 11
760 1 -6.74404 -13.565 -7.50519 15
761 1 -1.26949 16.6457 -5.82681 16
762 1 5.18526 -4.3347 -1.78762 20
763 1 2.18356 0.135794 -1.12679 21
764 1 -3.90256 13.4739 6.24277 18
765 1 3.3203 -10.3276 -8.14731 21
766 1 6.98556 -13.676 1.4041 16
767 1 3.40655 -10.6375 9.8595 16
768 1 15.4761 3.96651 -6.67641 12
769 1 3.22587 -15.3265 -5.42327 15
770 1 -7.9537 -0.86077 7.16035 24
771 1 0.280377 1.1033 -6.63618 23
772 1 -6.54271 -18.2947 -0.165595 9
773 1 -5.67237 -10.2836 -5.66894 21
774 1 0.193006 -2.0369 -3.08424 22
775 1 -10.837 0.525419 5.19013 23
776 1 -4.68799 -16.1502 -2.14607 18
777 1 11.2417 6.63659 -6.43135 22
778 1 -4.2292 13.1703 1.33308 21
779 1 -4.39744 4.9736 8.0167 23
780 1 -14.7213 7.80163 2.01096 14
781 1 10.0971 -1.39543 -0.570494 21
782 1 -12.4043 1.32888 -10.5519 15
783 1 -1.91183 10.6237 -4.29427 22
784 1 7.35392 5.54586 -10.0563 26
785 1 8.38153 12.9296 13.6015 11
786 1 0.690227 -1.30808 4.38042 22
787 1 7.41279 2.7193 -3.51756 24
788 1 -16.6015 1.37852 -5.86582 11
789 1 -10.1975 -7.62139 -10.2115 16
790 1 -2.02567 5.33736 16.6022 14
791 1 2.61883 8.33327 -11.1904 23
792 1 11.3814 11.2772 4.91868 19
793 1 -2.65783 -5.04657 9.20611 22
794 1 0.483738 -19.7761 -3.42538 8
795 1 -5.91447 -15.1319 9.06989 10
796 1 -0.376004 -6.13753 11.3734 22
797 1 13.2172 9.49214 7.92604 16
798 1 0.426226 -5.84413 -10.5742 23
799 1 -7.65302 8.5187 -2.10935 20
800 1 7.14042 6.74898 4.08958 22
801 1 -4.42782 -7.18882 7.67996 22
802 1 3.05025 5.06307 -10.8477 21
803 1 -4.12838 -16.94 -5.10871 15
804 1 1.39438 -17.0684 1.43468 15
805 1 -0.490333 -15.6381 -0.946857 23
806 1 5.56692 3.31962 -11.8746 24
807 1 8.21395 14.9765 2.29995 18
808 1 0.0846337 -3.05875 -14.2056 23
809 1 2.34115 1.22601 14.6638 20
810 1 -1.49774 6.24733 -18.3926 13
811 1 -13.3722 5.91939 -10.7614 13
812 1 -14.2095 -8.60724 -5.93613 9
813 1 3.08612 13.6687 -6.26792 18
814 1 7.15346 -2.10606 -0.0710993 18
815 1 0.701519 -6.32672 -13.948 23
816 1 -9.59761 -10.5508 1.43421 21
817 1 9.61871 4.64685 -4.5003 23
818 1 8.99785 -7.03246 -1.89633 23
819 1 -8.89233 6.03409 10.8812 24
820 1 2.21235 -8.06628 2.3811 21
821 1 13.4902 -6.24012 -1.16237 16
822 1 9.25218 -2.29373 9.7441 24
823 1 2.30429 8.17585 10.6336 23
824 1 -11.2037 4.7489 11.7024 17
825 1 -4.24403 8.92245 12.1159 21
826 1 -0.540748 -13.992 9.21395 15
827 1 8.96173 -2.9007 5.58176 23
828 1 7.22683 7.48162 12.5512 22
829 1 -12.9588 -2.57973 -0.878343 20
830 1 6.71742 -5.72518 -3.98276 21
831 1 1.50552 3.54052 -1.70814 23
832 1 -10.8689 12.0785 -7.23704 17
833 1 1.65768 7.48335 2.62408 25
834 1 5.71375 -12.543 4.55108 16
835 1 3.61604 -1.58502 11.7015 22
836 1 -1.72331 15.1356 8.42146 10
837 1 2.23118 -11.2214 5.9477 23
838 1 -10.6244 -4.15918 -2.48525 24
839 1 0.196777 2.51858 12.0164 21
840 1 -14.9777 -5.15183 -5.42464 13
841 1 2.67585 11.0354 15.2449 15
842 1 4.22645 11.2894 1.73619 23
843 1 -13.577 -11.0739 2.2112 10
844 1 -2.03702 -17.5619 4.91194 12
845 1 4.97766 -3.36328 9.11637 24
846 1 10.8664 -5.80469 9.7408 17
847 1 9.48122 5.86467 6.60744 20
848 1 -1.70735 7.53666 -3.71717 20
849 1 -0.461453 -11.7403 -11.7659 19
850 1 -4.06907 -0.164997 -10.6945 24
851 1 -2.66868 1.90212 12.4977 20
852 1 0.056881 13.8425 2.48737 20
853 1 10.5267 2.20027 3.51139 20
854 1 -2.00572 7.10652 -11.6534 23
855 1 -1.98243 13.0055 11.2594 14
856 1 8.17479 7.17357 8.65416 22
857 1 4.34504 -1.53222 -10.1976 22
858 1 -2.53133 -14.8582 -3.11944 24
859 1 -8.22524 2.70482 -6.86918 23
860 1 9.41017 -3.02931 2.40846 24
861 1 5.04291 -5.36187 -13.0302 23
862 1 3.77267 6.12333 16.1857 20
863 1 11.6397 -12.4625 -6.46457 10
864 1 3.50694 4.63292 -14.4981 19
865 1 -4.92588 -8.85312 -8.25931 21
866 1 11.1615 9.68844 -6.4563 19
867 1 12.3614 -2.70949 1.94864 23
868 1 -1.14941 -7.60664 14.2771 14
869 1 1.73163 -9.96239 -17.0542 12
870 1 -1.20221 -0.436577 -0.523906 21
871 1 6.47789 13.2299 0.649713 22