ITEM: TIMESTEP
177000
ITEM: NUMBER OF ATOMS
2000
ITEM: BOX BOUNDS pp pp pp
-3.0000000000000000e+01 3.0000000000000000e+01
-3.0000000000000000e+01 3.0000000000000000e+01
-3.0000000000000000e+01 3.0000000000000000e+01
ITEM: ATOMS id type x y z 
1 1 -8.96033 5.10585 -11.1819 
2 1 -3.53139 -9.46853 -10.1956 
3 1 3.78912 13.1362 12.7959 
4 1 6.05276 -8.29069 3.93916 
5 1 -9.7376 8.51854 -5.02248 
6 1 13.1631 -6.70065 -10.1206 
7 1 -10.042 -0.0123453 -5.61183 
8 1 -2.67577 -8.72365 11.2063 
9 1 -6.1948 4.59716 -10.7926 
10 1 -12.5415 -9.41102 4.77215 
11 1 13.7354 5.12362 -9.41435 
12 1 -1.98706 2.79181 -5.94493 
13 1 -6.8152 -14.3943 3.12016 
14 1 -13.0975 -9.98723 1.88387 
15 1 0.751869 3.26405 19.0935 
16 1 7.37643 -1.22426 8.02412 
17 1 -1.17197 4.20141 10.6711 
18 1 6.95655 -1.81102 3.00725 
19 1 -3.80414 10.3103 -12.135 
20 1 -0.725404 0.975144 11.0256 
21 1 -7.21912 -2.45021 -16.2196 
22 1 -13.1719 -2.81506 10.4651 
23 1 14.0117 1.74611 4.42973 
24 1 2.16733 6.52427 -11.8836 
25 1 3.54454 4.25201 -11.5784 
26 1 14.2865 0.777899 11.9558 
27 1 -5.50522 0.320431 1.8334 
28 1 -11.5242 4.1834 -9.40889 
29 1 -1.79012 -3.68038 -5.21735 
30 1 -11.1117 10.5214 5.57293 
31 1 6.27955 -14.462 3.25598 
32 1 0.899628 -1.55476 9.28142 
33 1 1.95523 -12.8717 -11.0576 
34 1 10.9502 -11.4957 -0.0823513 
35 1 -7.60103 -14.407 -6.3749 
36 1 -12.4176 -5.68009 9.61565 
37 1 2.9026 -2.68041 -4.27961 
38 1 3.95222 -7.22062 -12.0634 
39 1 9.60598 -7.49639 -10.9749 
40 1 -3.38934 4.6682 -16.4944 
41 1 -1.63591 4.89005 13.8812 
42 1 -0.671725 -11.9134 7.82268 
43 1 6.2528 -5.60616 13.5322 
44 1 -13.5738 0.816862 1.04428 
45 1 -14.7555 -0.975183 5.98472 
46 1 -10.4564 -1.72055 -0.519531 
47 1 -5.39113 12.5258 -4.74084 
48 1 -3.29735 -15.2783 -9.77489 
49 1 -0.601166 -0.872586 -9.41347 
50 1 4.15171 -5.2681 -9.79379 
51 1 -2.15451 -4.08343 13.5988 
52 1 -11.4544 5.61643 -4.0849 
53 1 2.08304 12.4197 -9.7853 
54 1 0.255365 12.2981 8.81198 
55 1 -8.24056 4.6682 -4.81684 
56 1 -1.53597 11.9365 0.571336 
57 1 -1.16107 -14.5159 1.79158 
58 1 8.54329 -9.92038 -0.476096 
59 1 9.42497 -4.98573 -15.6719 
60 1 -8.97632 11.5655 11.6965 
61 1 -12.2504 -3.52592 -9.37626 
62 1 10.2281 -1.24371 7.24446 
63 1 -5.81362 6.09994 -5.90181 
64 1 -8.89157 -8.18748 5.27617 
65 1 -2.4589 13.0938 11.3104 
66 1 -13.0654 7.10935 -8.48509 
67 1 -5.18693 6.38748 17.4343 
68 1 1.03791 3.66417 -6.54809 
69 1 -0.411104 5.61857 4.42875 
70 1 -3.77898 -16.5629 8.97489 
71 1 1.98604 4.45838 6.62118 
72 1 5.37734 -15.1322 -2.27618 
73 1 6.39083 12.3406 14.6759 
74 1 -14.8052 4.10958 -8.33023 
75 1 -10.2544 7.41357 -10.0291 
76 1 6.1403 4.71388 13.4984 
77 1 12.0131 -0.115673 -10.7798 
78 1 9.82254 -10.5097 2.99192 
79 1 -15.7942 -1.20889 2.7444 
80 1 -7.65605 -1.08173 0.381841 
81 1 7.17659 14.5213 8.6081 
82 1 1.58651 0.681488 16.914 
83 1 -6.26103 -13.6372 5.81159 
84 1 -15.3442 0.882815 -2.07631 
85 1 13.6467 3.5789 7.00335 
86 1 9.03632 -2.48655 -3.43841 
87 1 -2.33291 10.5671 10.4395 
88 1 4.18048 -1.09994 8.83905 
89 1 -6.14691 -5.65112 1.41281 
90 1 -3.27261 -7.29586 -8.3627 
91 1 -12.4335 8.75124 8.33461 
92 1 -8.46553 10.3072 -1.60893 
93 1 -1.29594 9.149 -6.65673 
94 1 2.67629 0.240842 -4.95794 
95 1 5.90434 -2.00695 -5.30493 
96 1 8.33104 11.742 -5.06386 
97 1 3.50761 -7.34444 8.82203 
98 1 6.90594 -10.3392 8.04357 
99 1 -6.86795 16.4394 -5.43833 
100 1 -10.8058 12.5554 2.81753 
101 1 -8.72184 -3.2216 14.4468 
102 1 -5.47224 7.67086 5.07529 
103 1 -5.13813 -4.16162 9.67923 
104 1 12.9765 -7.43338 -6.84674 
105 1 -7.72705 3.06557 7.53262 
106 1 -9.68222 -14.6478 2.05565 
107 1 9.22557 -7.00297 -5.43596 
108 1 4.2662 0.885623 -10.5681 
109 1 -5.93963 0.219372 -15.595 
110 1 5.72094 -0.0362593 5.45274 
111 1 3.65334 14.7854 1.33517 
112 1 -7.11067 7.16089 -8.92428 
113 1 1.66345 5.90742 18.1374 
114 1 1.9201 14.8881 -5.03882 
115 1 -12.4926 10.4202 -3.21791 
116 1 -0.271475 9.03451 3.5876 
117 1 0.209547 1.93833 -3.88579 
118 1 -5.29143 -9.14382 8.85777 
119 1 12.4763 -1.35443 9.79578 
120 1 -5.50634 -4.17632 -14.3465 
121 1 3.64793 -5.53548 -4.08117 
122 1 -2.7376 1.63614 8.85392 
123 1 4.60882 -0.243661 17.2417 
124 1 -9.35342 -9.84176 -3.21803 
125 1 6.91782 -3.37591 5.14549 
126 1 -6.88851 -9.0011 -5.39567 
127 1 12.0189 -8.69444 1.25959 
128 1 -8.90716 7.5411 4.37876 
129 1 8.04569 -1.79756 -15.1878 
130 1 5.00698 16.7606 -0.100985 
131 1 -7.49828 -12.7951 10.8952 
132 1 -8.77505 -13.484 8.00967 
133 1 -6.32866 5.92424 2.62698 
134 1 5.07961 -8.18453 -14.7078 
135 1 3.80798 4.57719 -7.06019 
136 1 10.4845 -8.47678 -2.84297 
137 1 -1.61204 -16.2256 6.68023 
138 1 -10.4456 -9.61028 -0.40075 
139 1 15.4285 5.68174 8.1612 
140 1 15.0607 -1.14666 -9.2198 
141 1 -15.2566 -4.35447 1.53455 
142 1 9.23744 9.67865 6.04366 
143 1 15.8373 9.54623 3.09174 
144 1 -6.8466 4.08564 10.6737 
145 1 7.04783 4.48211 -0.231495 
146 1 -6.49044 10.7646 13.785 
147 1 -6.49172 8.86822 -5.63652 
148 1 0.0322508 -5.33352 -13.0833 
149 1 8.17693 -10.4081 -9.16359 
150 1 4.65239 11.531 -11.4664 
151 1 8.4083 -3.247 13.9949 
152 1 0.714072 -2.35601 -18.3696 
153 1 -6.64378 12.6563 -7.38028 
154 1 8.85197 2.34016 -7.19125 
155 1 -8.41983 9.85777 -7.70863 
156 1 2.30433 -2.49267 -0.999119 
157 1 -8.51575 15.4531 -2.66 
158 1 7.09997 0.0745373 -12.8492 
159 1 8.51932 -9.20317 5.90648 
160 1 -4.52834 4.1631 -8.08464 
161 1 -7.75552 13.3854 9.24413 
162 1 12.5041 8.4444 -9.26591 
163 1 -1.07335 3.47468 -1.01302 
164 1 4.63319 11.4061 -1.00265 
165 1 -3.61515 14.2445 0.672687 
166 1 7.58769 10.7232 0.607456 
167 1 -5.54911 10.4146 -3.05264 
168 1 1.66839 14.7474 -8.14254 
169 1 3.86849 9.73077 -13.8402 
170 1 -12.2131 -12.6393 0.748478 
171 1 -12.6043 8.41417 -5.53771 
172 1 -4.94382 -6.96062 -11.6415 
173 1 -0.216779 -9.04808 -18.207 
174 1 12.303 8.59076 4.15083 
175 1 -1.1151 17.1642 6.04779 
176 1 -12.2 -5.01219 -3.80079 
177 1 -10.935 13.1494 -3.11994 
178 1 15.7368 -0.537202 -3.49054 
179 1 -8.16222 -0.138131 -11.4149 
180 1 6.64282 1.89701 18.1681 
181 1 4.67184 17.8591 2.72901 
182 1 -6.16695 12.2592 7.04629 
183 1 2.08855 -9.56323 -15.3569 
184 1 -2.47178 11.9335 4.21288 
185 1 0.21965 13.4253 -2.29426 
186 1 0.911337 -5.36329 14.1971 
187 1 -10.5513 -3.42105 4.67396 
188 1 -2.25572 -12.3472 -14.4704 
189 1 -8.11217 13.5103 -11.0887 
190 1 -3.52479 -10.9989 6.35042 
191 1 4.52373 -14.4174 -5.12347 
192 1 -5.31988 12.6851 -13.2948 
193 1 -14.1807 2.20969 6.91496 
194 1 0.967341 7.11513 -1.88159 
195 1 8.55446 12.2726 -2.32404 
196 1 -8.36274 5.52223 14.2088 
197 1 1.53711 -9.81565 8.69667 
198 1 -8.96839 1.34842 -0.609502 
199 1 0.590183 16.0026 3.71784 
200 1 3.38286 6.68281 7.90604 
201 1 14.0332 3.80921 13.4326 
202 1 -8.26945 14.1192 3.07403 
203 1 13.7079 -3.50434 -11.5842 
204 1 -6.58017 14.7426 6.03374 
205 1 -4.13571 0.799903 -7.76038 
206 1 11.8616 -4.72027 1.1626 
207 1 -4.863 -5.27345 4.54387 
208 1 -16.114 1.68087 4.32533 
209 1 -9.77397 -10.1745 2.86673 
210 1 4.90217 8.25026 14.8596 
211 1 -12.6312 0.229446 -4.74996 
212 1 -3.30425 1.3933 0.0852155 
213 1 -5.35041 -16.9758 -1.62707 
214 1 -0.846274 0.150145 2.60043 
215 1 -5.17287 -0.296131 -4.66701 
216 1 3.41158 -7.97762 0.841735 
217 1 -3.70975 9.69795 2.43481 
218 1 -7.5173 1.27108 4.54133 
219 1 6.89653 14.5715 12.0853 
220 1 -8.32125 -0.835349 -2.78031 
221 1 -5.18208 15.1238 -10.615 
222 1 -13.7773 -4.36977 -6.81074 
223 1 -11.1411 -0.812909 11.3311 
224 1 -3.82567 -10.8021 3.25874 
225 1 7.68886 -12.2833 4.71542 
226 1 -13.0535 10.1935 2.87686 
227 1 15.2736 3.61752 1.68458 
228 1 6.01129 3.33036 -9.30629 
229 1 -5.58706 -7.81754 -16.1617 
230 1 2.19263 0.466916 11.0283 
231 1 -3.06654 -4.88312 1.59151 
232 1 4.12255 -13.2906 0.806842 
233 1 -1.13218 6.71769 -11.9034 
234 1 3.21959 -10.1058 -13.0582 
235 1 9.91904 0.822734 -12.923 
236 1 2.29909 7.39419 -15.5316 
237 1 -7.49822 -5.1383 -8.80847 
238 1 -3.39056 13.4806 -7.57507 
239 1 -9.79422 -10.9745 9.96625 
240 1 7.86426 16.2641 -1.82619 
241 1 -7.18635 4.02841 16.3735 
242 1 -7.6575 15.6357 -8.55031 
243 1 6.12197 0.603778 10.0699 
244 1 -1.50986 -6.2672 -10.8761 
245 1 -5.97201 10.0725 -9.4469 
246 1 1.03295 0.654693 -10.2202 
247 1 -5.67497 -12.4058 8.373 
248 1 -1.75661 3.25207 2.34834 
249 1 -11.3734 6.50873 13.07 
250 1 -5.51594 9.6288 8.28368 
251 1 -2.40519 -12.4895 -9.09752 
252 1 -5.59662 -16.148 -4.22448 
253 1 13.1527 -9.41954 -1.59706 
254 1 -2.42012 2.07534 5.35066 
255 1 -3.12446 -1.60856 1.12335 
256 1 3.55635 -5.25032 -1.20921 
257 1 12.0332 6.8796 13.2831 
258 1 5.54578 6.83385 -5.52776 
259 1 0.237879 10.1162 -1.56962 
260 1 -9.62272 0.463553 2.43247 
261 1 -10.9336 11.5484 -6.07754 
262 1 4.32712 6.01943 11.2 
263 1 3.70996 -17.195 -0.106181 
264 1 12.167 1.48922 -1.92415 
265 1 1.39291 7.92385 6.0866 
266 1 -10.3403 9.69027 2.1262 
267 1 -9.96843 -7.22786 -4.76192 
268 1 4.56055 1.35858 -14.1664 
269 1 2.67968 -2.51838 11.8701 
270 1 7.34165 12.2707 -10.9849 
271 1 1.56657 -7.58092 -2.86628 
272 1 -3.6061 -1.67124 -10.1587 
273 1 1.04769 -15.9177 4.87781 
274 1 8.67045 2.31559 -10.4228 
275 1 -7.84754 -2.01195 3.92109 
276 1 2.5304 -16.1282 -2.67824 
277 1 -7.09495 -5.89087 -5.68015 
278 1 3.02929 14.6003 -1.7869 
279 1 0.779933 -3.10842 -14.7808 
280 1 3.43226 2.73197 14.8909 
281 1 14.892 1.68775 -0.859459 
282 1 -5.03656 -6.94078 -0.448642 
283 1 10.3166 -4.83342 -10.1784 
284 1 -1.12172 -11.3655 2.1996 
285 1 -6.42934 -3.82627 -11.2774 
286 1 -12.6218 0.874294 -7.46667 
287 1 -6.22521 -15.0821 8.72875 
288 1 13.2634 0.0551289 7.06561 
289 1 4.65506 -5.01053 10.805 
290 1 -3.89756 -7.16999 -14.1309 
291 1 2.58744 -4.38636 8.37883 
292 1 5.10681 6.51032 -9.5616 
293 1 5.26298 8.45254 2.37882 
294 1 -6.3335 -8.35248 3.20568 
295 1 0.377373 12.6112 3.38323 
296 1 -7.34167 -3.57485 11.8802 
297 1 -8.51069 -8.26934 -10.615 
298 1 -4.49596 -4.71734 -9.37521 
299 1 -2.61111 7.91509 -14.4114 
300 1 -3.96995 -10.9197 -4.26203 
301 1 -2.34317 -8.40808 1.15088 
302 1 -5.70527 -6.60791 -3.15534 
303 1 8.0582 -3.13496 -12.7193 
304 1 13.9503 1.90612 -8.23663 
305 1 1.1972 -4.11646 5.10425 
306 1 13.1883 4.35091 -0.430646 
307 1 -5.20472 -3.51963 -4.16058 
308 1 -8.21199 -3.71441 8.72751 
309 1 -5.17502 -13.4981 -2.05211 
310 1 8.54259 4.49994 16.9037 
311 1 -3.65216 -14.3948 4.14208 
312 1 3.23843 3.11565 -4.40511 
313 1 0.468337 -12.44 -0.201896 
314 1 -1.74276 16.0193 -1.92588 
315 1 5.12097 -2.2418 -14.0323 
316 1 -5.04467 -4.78853 -17.4636 
317 1 2.68441 -5.17599 1.75521 
318 1 -9.94129 -7.45838 10.8595 
319 1 4.38668 7.58818 18.2714 
320 1 2.31685 -10.477 -2.69238 
321 1 -3.83735 -12.3852 -11.6155 
322 1 -10.1256 6.29321 -7.31453 
323 1 10.6108 1.84415 6.85514 
324 1 -5.52216 1.30663 -10.359 
325 1 -2.77245 10.1641 -9.56603 
326 1 -3.46861 -3.90257 7.11114 
327 1 6.24456 -11.931 -7.16024 
328 1 -5.22275 15.0729 -2.68249 
329 1 0.675072 11.1896 5.95789 
330 1 14.5201 -1.78922 4.90712 
331 1 -7.10093 -0.387143 6.86386 
332 1 -4.36754 -5.8583 12.3377 
333 1 -0.596929 9.13758 8.3781 
334 1 5.85553 -5.33274 -14.1542 
335 1 12.7428 9.53709 -1.49598 
336 1 1.57069 -13.1264 3.00533 
337 1 -2.75014 -1.09418 14.6578 
338 1 -14.2196 -3.66775 4.50485 
339 1 -0.365755 -17.5353 -3.82464 
340 1 -9.28405 8.69649 13.8214 
341 1 -10.7771 3.2768 14.8511 
342 1 -14.7069 -3.61245 7.65745 
343 1 -13.2193 -6.26474 6.37365 
344 1 14.5631 -4.00189 -2.4696 
345 1 -11.4349 -8.50211 8.13917 
346 1 10.1217 1.11774 -4.5914 
347 1 10.073 -11.4074 -3.02074 
348 1 2.69027 17.6962 -2.00526 
349 1 -1.96794 -3.40745 4.39888 
350 1 -8.83302 14.0645 -5.79152 
351 1 0.0271547 0.88156 7.59766 
352 1 9.98747 6.93801 10.552 
353 1 -8.07184 -7.09475 -1.53818 
354 1 7.69994 -9.59342 -3.60266 
355 1 -0.716184 8.65366 0.898418 
356 1 -6.8928 4.488 5.13835 
357 1 0.556957 2.29995 4.68451 
358 1 6.01785 -7.81421 10.5691 
359 1 12.5832 -4.72664 4.62081 
360 1 -3.57621 7.29357 7.53779 
361 1 -7.78308 -2.29211 -5.8069 
362 1 3.69322 -2.58436 3.38127 
363 1 -1.4333 1.04458 17.27 
364 1 -0.0757045 14.293 5.91639 
365 1 8.86281 6.93632 14.812 
366 1 -4.46968 16.6736 -7.95208 
367 1 0.543703 -5.5276 -17.5291 
368 1 -5.08362 2.92417 -5.21728 
369 1 6.82193 -9.28061 -11.9892 
370 1 -6.57581 -0.745977 11.6854 
371 1 -14.2622 3.79128 1.86375 
372 1 0.767622 -5.16087 -5.53266 
373 1 -5.13397 7.78164 0.282996 
374 1 6.15276 -2.36886 11.2263 
375 1 -10.2252 -15.1412 -0.895039 
376 1 11.2403 -6.63593 7.07935 
377 1 -3.97901 4.42721 -0.266997 
378 1 -7.5588 -9.18771 11.3979 
379 1 -13.6293 8.75434 0.0430952 
380 1 -2.27925 -4.4213 10.2416 
381 1 1.87253 -11.9802 -5.13033 
382 1 -4.12501 -2.37477 -6.95613 
383 1 6.15072 -3.70206 -16.6499 
384 1 2.97423 13.4425 4.3719 
385 1 -10.7238 -2.49962 -3.97118 
386 1 2.28276 -9.40618 -10.2708 
387 1 6.88737 4.90294 -15.4474 
388 1 -4.94498 -16.2034 -7.08911 
389 1 -13.7064 -7.27238 -5.61842 
390 1 -4.15544 -10.5458 -0.0177678 
391 1 10.7883 4.1056 14.9668 
392 1 -2.77238 -1.8805 -2.71498 
393 1 12.747 3.92983 -6.54431 
394 1 -4.28382 7.65732 -10.9512 
395 1 1.88926 17.8167 1.45884 
396 1 -15.3834 -1.7933 -4.99954 
397 1 3.04728 0.90895 3.91615 
398 1 -8.50659 8.83615 7.17209 
399 1 -8.25688 11.243 1.07865 
400 1 -5.10533 5.32785 13.4086 
401 1 11.5265 4.13648 11.9547 
402 1 11.0312 -1.70462 -5.60297 
403 1 5.22085 -2.91665 15.1128 
404 1 11.3139 0.516293 -7.83769 
405 1 -3.00314 -18.5566 -5.28803 
406 1 3.17748 1.39343 6.81042 
407 1 -7.73887 6.08968 0.228654 
408 1 -3.24206 -8.45692 -2.1449 
409 1 -2.6277 11.1659 7.31308 
410 1 6.75057 3.68424 -4.89639 
411 1 -7.43293 1.57695 -4.58351 
412 1 6.32914 -12.2966 -1.51556 
413 1 15.111 0.0603544 9.31796 
414 1 -10.0473 -4.64993 -7.00211 
415 1 -7.22076 -9.12346 0.76753 
416 1 -7.68684 -6.10099 13.1611 
417 1 -3.04618 9.73852 -1.11618 
418 1 -12.5594 -10.2708 -4.48947 
419 1 7.95862 10.2275 14.9457 
420 1 -9.78289 4.65515 -1.48714 
421 1 -1.23507 14.3076 -4.44465 
422 1 3.13726 10.1882 7.59327 
423 1 -15.0849 -8.33125 -2.97566 
424 1 -1.97322 -10.6259 -6.41306 
425 1 -10.3263 -0.570908 5.33406 
426 1 -14.0879 7.2775 -2.83982 
427 1 6.12012 -7.33108 7.5849 
428 1 -0.367212 -11.4566 -3.6817 
429 1 12.6799 11.3037 8.45823 
430 1 5.63635 7.46295 -15.468 
431 1 -9.7564 1.9124 -9.21383 
432 1 -0.834967 13.4411 -9.93178 
433 1 -10.0716 3.13659 -6.62392 
434 1 -1.18817 -13.1994 5.01681 
435 1 13.7288 6.79042 1.69486 
436 1 0.537707 9.09836 -13.3562 
437 1 -6.64887 6.12575 8.12271 
438 1 -15.6448 5.29856 -0.313845 
439 1 5.46702 2.13004 -2.02655 
440 1 -9.18033 6.66502 9.8233 
441 1 -3.38135 -14.075 7.61188 
442 1 -0.106103 -8.52741 -8.82916 
443 1 5.61907 -8.25489 -9.38718 
444 1 -0.438203 -3.10988 7.32107 
445 1 -12.4109 1.90939 3.6359 
446 1 -13.6946 -0.668749 8.49247 
447 1 -12.3292 7.59672 5.01195 
448 1 -0.162383 -7.08268 9.26355 
449 1 -7.39916 2.46307 -13.3227 
450 1 7.0037 -9.18958 -6.16798 
451 1 2.28055 -6.0429 -14.71 
452 1 -4.43712 -2.80416 12.505 
453 1 4.8641 -8.73265 -1.76928 
454 1 -5.91071 3.66474 -15.7149 
455 1 5.77283 -9.97633 1.22695 
456 1 1.16151 9.07134 -4.68068 
457 1 -7.41513 9.74116 10.3628 
458 1 -6.2864 -1.78603 14.8938 
459 1 -9.4841 -5.79292 -13.0184 
460 1 -6.36972 -6.15768 7.28719 
461 1 9.77391 -5.88135 12.7463 
462 1 7.05845 1.95769 2.18257 
463 1 -5.17862 3.04645 2.67857 
464 1 3.48848 -0.808879 -7.88822 
465 1 8.89266 -3.90831 7.71945 
466 1 0.328893 5.48599 0.869192 
467 1 13.6848 9.12857 -4.39946 
468 1 -4.06421 5.48789 10.4883 
469 1 1.74479 12.0456 0.445033 
470 1 8.74621 -7.21019 8.69797 
471 1 -1.1907 -12.9576 -5.87808 
472 1 -3.97727 9.77213 15.9902 
473 1 -3.32904 14.3189 5.92056 
474 1 -7.94126 -10.6401 -8.23072 
475 1 12.1025 13.3865 1.57419 
476 1 5.86483 8.92677 6.55022 
477 1 -5.5965 1.75649 9.58873 
478 1 -6.4419 -9.63383 -2.23154 
479 1 -10.8453 4.12103 9.07155 
480 1 -9.30349 -7.53799 -7.95724 
481 1 -4.95278 10.4455 5.15111 
482 1 -4.34864 -13.3941 -5.56329 
483 1 -2.47968 -6.4587 -17.8749 
484 1 -6.73722 -10.8201 5.45708 
485 1 -5.6213 -2.70261 1.61033 
486 1 10.278 2.7263 3.36599 
487 1 -5.43454 -5.13783 14.6945 
488 1 -9.07582 8.22879 -12.7349 
489 1 7.89097 6.2539 -3.15517 
490 1 -8.21728 -14.1774 -3.59852 
491 1 2.53381 2.94315 -9.14067 
492 1 -1.38192 17.1678 1.15743 
493 1 1.55593 6.0174 -9.22031 
494 1 1.29868 5.76321 12.4733 
495 1 -13.6109 -2.18408 -2.55891 
496 1 -0.0427379 17.222 -4.41456 
497 1 5.53115 12.7065 -3.91912 
498 1 -6.17645 -7.49327 -8.57273 
499 1 3.53446 1.56997 19.3502 
500 1 -0.131773 -14.5368 -8.85463 
501 1 0.757854 -8.42208 -12.9506 
502 1 7.83492 -12.1888 1.02309 
503 1 -6.99367 8.77694 2.7632 
504 1 2.77172 5.73761 14.8666 
505 1 6.2747 9.56331 -3.42051 
506 1 2.29586 9.04376 0.726719 
507 1 -7.95092 11.3574 -13.5135 
508 1 5.58983 1.49735 -6.46659 
509 1 -1.45412 -9.21987 4.36825 
510 1 -16.3302 -1.57824 -0.587087 
511 1 4.26019 3.00343 0.522448 
512 1 1.84786 18.9183 4.69715 
513 1 -4.62535 1.81107 -13.4351 
514 1 9.98196 5.71651 -1.22391 
515 1 7.66634 13.6969 -7.7011 
516 1 5.52105 -5.66855 2.78043 
517 1 16.2238 4.95805 -1.71202 
518 1 -0.60523 -2.11157 -12.028 
519 1 0.434782 -9.28167 2.04393 
520 1 1.16355 -14.1103 7.35572 
521 1 -0.088609 -9.61759 12.0837 
522 1 -7.67942 3.944 -7.94501 
523 1 -8.97347 -13.385 4.97099 
524 1 2.58227 4.26811 3.12733 
525 1 -1.11652 -14.1031 -12.0367 
526 1 10.6156 13.1655 7.41838 
527 1 0.16543 5.84844 -14.5426 
528 1 2.31297 -2.3178 15.6408 
529 1 -12.8079 2.36754 10.2566 
530 1 -1.3196 -20.2053 1.35014 
531 1 -11.6401 -4.30914 1.99126 
532 1 14.2465 -4.41348 -8.2393 
533 1 13.1287 1.26585 -5.01261 
534 1 -0.579038 5.01489 -3.79095 
535 1 -4.83446 7.01606 -2.59498 
536 1 2.83497 -7.04939 -7.69173 
537 1 6.68208 0.0484121 -9.07933 
538 1 11.1511 -4.84173 -6.85507 
539 1 -6.92433 0.81759 16.3143 
540 1 4.99899 14.851 6.50273 
541 1 -4.85311 -1.26646 -17.8503 
542 1 -0.19655 -6.10487 2.9108 
543 1 3.15927 2.5886 -16.1374 
544 1 -6.33654 -3.21044 6.3 
545 1 -3.52636 12.7088 -2.23656 
546 1 -8.30242 -3.28359 -13.6332 
547 1 -16.4692 1.85753 0.941619 
548 1 -2.789 -9.6137 -16.1132 
549 1 -4.8571 -11.0312 11.6669 
550 1 3.15306 7.98734 -7.39866 
551 1 16.0143 2.4054 7.05983 
552 1 12.3769 4.18749 -3.73494 
553 1 -10.5691 -12.563 -1.95954 
554 1 -0.804585 -9.90267 -0.90306 
555 1 -1.98636 -3.14028 -17.996 
556 1 -9.53105 11.0984 8.31942 
557 1 3.62003 -3.71496 -7.01759 
558 1 3.45586 6.04267 0.081761 
559 1 12.8076 -1.43827 -3.59117 
560 1 1.44006 10.1895 -7.67501 
561 1 2.61431 -11.0238 0.864698 
562 1 4.21064 -0.459339 -2.05857 
563 1 15.2685 7.28917 -7.30064 
564 1 5.1243 10.4916 12.6157 
565 1 -9.96183 2.62212 5.65533 
566 1 -4.04168 -4.33347 -1.16145 
567 1 8.21005 9.12526 8.95131 
568 1 7.65722 -0.60634 15.9578 
569 1 -2.36304 2.08917 -16.6386 
570 1 -4.1599 -5.40051 -6.59489 
571 1 -0.821948 -2.19208 12.2525 
572 1 5.42328 12.2325 6.24404 
573 1 8.18836 10.8306 -8.36293 
574 1 -3.83282 10.6277 -6.45185 
575 1 0.215089 14.6739 0.662411 
576 1 11.4136 -2.90372 12.9792 
577 1 9.23194 4.00291 -12.8675 
578 1 12.4538 -9.87194 -4.76394 
579 1 12.378 8.77798 10.7556 
580 1 -15.4709 -7.62933 0.46897 
581 1 -6.19737 9.01843 -13.452 
582 1 -2.30124 -1.67072 9.60387 
583 1 -11.4593 0.439697 14.6066 
584 1 -3.79824 12.5948 -10.3813 
585 1 0.0771768 -14.3362 -2.95396 
586 1 6.82599 -3.50181 -8.43203 
587 1 -3.57163 16.6187 -5.16525 
588 1 -7.95516 -5.76738 -15.7482 
589 1 3.34887 -11.6105 8.09436 
590 1 -11.3826 -7.5208 -2.43565 
591 1 1.51116 12.0302 -12.6994 
592 1 -5.43306 1.5238 -2.3135 
593 1 -0.187868 10.1041 15.1639 
594 1 -9.96874 -5.87224 7.21434 
595 1 2.22588 6.07277 -4.53966 
596 1 0.542227 -11.7762 -8.40387 
597 1 2.35357 -7.04071 11.7147 
598 1 7.174 0.215669 -3.45021 
599 1 1.8572 -0.860847 1.22051 
600 1 -10.661 7.85163 -1.81251 
601 1 5.22107 5.40133 16.6255 
602 1 5.03132 16.6772 -3.22935 
603 1 9.62363 -5.55845 -3.25011 
604 1 5.03439 8.66156 9.79102 
605 1 -1.56022 3.59245 -18.9191 
606 1 -4.36465 -14.3912 11.7306 
607 1 -1.77311 2.52034 -8.84863 
608 1 7.50672 2.02318 -15.1627 
609 1 2.61557 13.3051 7.71055 
610 1 9.2173 6.94777 -14.0751 
611 1 -3.20113 -3.80432 -12.5912 
612 1 -2.1176 -12.9705 -1.02744 
613 1 -10.7082 -2.54431 -11.9305 
614 1 10.3806 4.37713 5.60135 
615 1 15.1542 5.88326 -4.75595 
616 1 8.00322 -4.07018 -5.64343 
617 1 14.6509 6.07881 11.1258 
618 1 3.86815 -8.36287 -4.93797 
619 1 0.984674 4.47309 -17.7286 
620 1 9.06075 12.8222 2.65087 
621 1 -8.86145 3.7654 2.53967 
622 1 10.9742 9.55581 13.5701 
623 1 11.0755 10.9116 -3.76899 
624 1 15.0637 -0.0462575 2.15865 
625 1 11.0611 6.15705 -11.2741 
626 1 6.57363 1.99417 14.8583 
627 1 15.8111 3.31512 10.283 
628 1 0.836972 -4.4194 10.5098 
629 1 14.9087 11.5853 0.15865 
630 1 8.56152 0.784942 4.92575 
631 1 0.509786 3.33675 16.0783 
632 1 16.0394 0.571124 -6.66758 
633 1 6.71709 3.18452 11.0335 
634 1 -9.35564 -2.0815 -8.87737 
635 1 13.2429 6.65116 -1.63599 
636 1 8.3843 -4.93909 2.55846 
637 1 0.381792 -6.40019 0.18499 
638 1 -10.6012 9.08288 11.1228 
639 1 11.7094 12.0013 10.9635 
640 1 8.96343 1.95873 13.0783 
641 1 4.55115 14.971 9.97404 
642 1 1.19694 14.0909 10.5033 
643 1 4.14249 3.16655 9.01922 
644 1 -1.15478 -18.3971 4.00664 
645 1 -8.1119 11.322 -4.43922 
646 1 10.6026 9.56901 -6.53092 
647 1 11.0231 -2.38346 -13.4568 
648 1 0.0643666 18.5265 -1.40073 
649 1 -4.76866 -10.282 -7.4778 
650 1 11.6545 -5.5032 -12.9526 
651 1 -13.9477 4.3887 4.8448 
652 1 -2.0988 5.51701 -9.25803 
653 1 -4.09929 -19.3497 3.53686 
654 1 -6.59923 -1.7119 -9.07135 
655 1 -11.8606 -0.184247 -2.13443 
656 1 7.86689 -6.09518 5.42178 
657 1 13.3185 6.32133 5.87906 
658 1 4.1879 -9.27875 6.77581 
659 1 -14.4086 -1.37444 -8.59577 
660 1 1.33594 2.38603 1.172 
661 1 0.355803 1.05111 -17.2874 
662 1 3.82997 -2.22146 6.06114 
663 1 0.595723 7.18906 15.6882 
664 1 7.44097 9.62536 -13.2071 
665 1 11.255 -0.0827883 12.065 
666 1 7.36902 5.52218 -7.54334 
667 1 4.6162 -0.336355 1.08003 
668 1 9.80907 9.41097 2.96245 
669 1 3.0849 -13.3888 -7.89792 
670 1 -11.5954 -2.24265 13.8622 
671 1 11.819 0.0557104 4.45533 
672 1 0.515758 11.6938 12.365 
673 1 4.52151 10.9442 -8.57103 
674 1 -11.767 10.0917 -8.45063 
675 1 10.7498 11.1126 0.207031 
676 1 -5.58255 -16.8548 4.67973 
677 1 11.4483 -3.31767 -1.20792 
678 1 7.38296 16.0547 4.17748 
679 1 -4.18493 8.23002 11.1914 
680 1 -12.313 -7.32278 0.575474 
681 1 -9.75466 -4.92173 -10.3523 
682 1 7.80089 -0.644441 12.913 
683 1 -4.81301 -8.28079 13.1147 
684 1 8.97727 4.89393 12.4062 
685 1 -6.69749 12.8237 -1.6896 
686 1 9.04178 4.6429 1.78571 
687 1 5.48665 -3.47147 0.639259 
688 1 7.84362 4.04704 4.88697 
689 1 4.01064 5.54809 -17.3401 
690 1 -8.94738 1.83051 10.3886 
691 1 9.24513 -1.6636 -9.86797 
692 1 -1.18741 -7.2814 -5.17361 
693 1 10.8398 -8.6266 -8.17129 
694 1 6.98778 2.12093 7.71591 
695 1 5.11371 3.37799 5.06085 
696 1 -13.9132 0.0725161 11.8774 
697 1 12.0171 8.36363 7.92891 
698 1 -0.303012 -1.62853 15.8871 
699 1 -1.32181 7.58596 11.349 
700 1 -2.34474 -4.31003 -15.5422 
701 1 -10.4654 4.00552 11.8391 
702 1 -3.51133 4.35328 -3.35518 
703 1 3.73884 3.34125 12.0373 
704 1 -8.11715 -16.1018 5.42053 
705 1 10.9905 7.45178 -3.44414 
706 1 5.02461 -11.3116 -4.33729 
707 1 -2.80953 6.01005 -5.94277 
708 1 5.86774 8.31763 -0.869495 
709 1 8.10713 12.8617 6.09895 
710 1 2.36393 -0.946143 -15.4061 
711 1 -2.26631 -0.870047 6.62663 
712 1 2.59342 12.2492 -3.05621 
713 1 9.07367 8.96336 -2.02721 
714 1 0.671065 -4.5341 -2.81926 
715 1 -7.87762 -11.8097 -1.21162 
716 1 -1.71542 0.0429734 -18.6855 
717 1 -11.2182 10.8851 -0.218725 
718 1 6.78377 -5.45435 -10.8238 
719 1 5.88383 5.06917 2.38582 
720 1 8.95594 7.68391 -8.40162 
721 1 9.4507 14.2034 -0.0924207 
722 1 -3.31258 5.13288 4.5952 
723 1 -6.84725 3.14528 0.385769 
724 1 8.51355 8.03925 -5.07715 
725 1 12.8204 1.45763 14.9039 
726 1 10.7378 -1.0677 15.2264 
727 1 -1.76127 -12.0598 11.8702 
728 1 -4.77034 10.7168 -15.0554 
729 1 6.25073 11.5046 9.34853 
730 1 8.50832 -7.105 -13.8787 
731 1 1.41651 2.69638 9.28825 
732 1 7.58298 15.1064 -4.94169 
733 1 6.99412 10.4755 3.88294 
734 1 -5.25477 -1.38931 -1.43423 
735 1 12.7758 -4.85986 -4.69262 
736 1 7.17796 7.82838 17.1945 
737 1 -12.8989 -1.49589 3.57869 
738 1 1.38167 -15.112 0.304605 
739 1 1.50937 -3.10828 -9.64133 
740 1 -9.29014 13.7229 -0.270745 
741 1 -1.28714 4.02533 7.21752 
742 1 6.60153 -6.89503 0.0703288 
743 1 3.43402 10.1072 4.47909 
744 1 -8.96155 -3.57244 1.95181 
745 1 -4.52326 3.34161 17.5616 
746 1 -1.40611 3.12361 -13.7972 
747 1 -4.96106 7.00588 -15.9405 
748 1 3.05864 -13.1654 -2.13947 
749 1 6.18744 8.75824 -7.19715 
750 1 4.31882 -5.89198 5.89921 
751 1 -2.58719 6.74447 2.29227 
752 1 -12.6033 6.04564 10.4429 
753 1 2.20406 -1.02556 -12.5522 
754 1 1.22063 -12.625 10.6195 
755 1 6.29861 13.6668 3.35353 
756 1 -2.76198 2.8601 15.3245 
757 1 -0.723978 -3.3973 -0.429186 
758 1 -7.10797 -8.13389 -13.5045 
759 1 -4.9448 -10.1799 -13.6794 
760 1 -5.60294 -13.417 -8.65126 
761 1 -1.2222 15.5476 -7.00021 
762 1 5.58695 -2.95308 -2.43728 
763 1 2.14884 0.800716 -1.61303 
764 1 -4.57428 13.4764 8.84921 
765 1 3.60213 -10.156 -7.38823 
766 1 6.50619 -15.3267 0.527983 
767 1 3.14402 -9.95862 11.3217 
768 1 15.9469 3.51661 -7.05421 
769 1 1.25153 -15.4197 -5.70669 
770 1 -11.2942 -2.82888 7.82817 
771 1 0.636608 0.972308 -7.60534 
772 1 -4.5659 -21.0144 0.43464 
773 1 -6.95256 -11.8678 -5.14516 
774 1 0.204019 -1.25523 -3.64967 
775 1 -11.1168 1.21401 8.22215 
776 1 -6.35441 -18.2158 1.05502 
777 1 12.4144 6.82427 -6.66022 
778 1 -5.38856 13.2373 3.18735 
779 1 -4.47155 4.44407 7.59729 
780 1 -13.6681 6.73178 2.38266 
781 1 9.9279 -0.337632 1.56604 
782 1 -11.5628 -0.153209 -10.6094 
783 1 -1.87415 11.1087 -4.06194 
784 1 7.82789 5.83444 -10.7166 
785 1 9.15328 12.8683 13.5226 
786 1 0.681552 -1.20085 5.22934 
787 1 8.90953 3.10605 -2.74544 
788 1 -15.4287 1.05676 -6.59045 
789 1 -12.3327 -6.60317 -8.76122 
790 1 -1.6599 5.65527 17.9086 
791 1 2.62343 9.08146 -10.6101 
792 1 11.4656 11.4816 5.02651 
793 1 -5.47089 -1.58461 8.99013 
794 1 -2.40685 -19.1692 -1.62992 
795 1 -5.91043 -18.447 6.78001 
796 1 -3.59451 -6.97304 8.80124 
797 1 14.9084 8.53475 8.84904 
798 1 1.47713 -5.80123 -10.2854 
799 1 -7.51854 7.16457 -2.9319 
800 1 7.76217 7.13958 4.33627 
801 1 -7.82963 -5.35094 4.10122 
802 1 5.25188 7.13141 -12.5782 
803 1 -2.97023 -15.6408 -3.24333 
804 1 0.634796 -17.6984 1.85149 
805 1 -1.6573 -16.2397 -0.816639 
806 1 6.27419 3.7108 -12.6221 
807 1 7.46281 15.8658 1.59474 
808 1 -5.18942 -1.54158 -12.8017 
809 1 1.5547 0.285912 14.0419 
810 1 -1.28176 6.67149 -17.0867 
811 1 -10.1551 2.32167 -12.1933 
812 1 -13.843 -5.36932 -0.879288 
813 1 4.66567 14.3383 -6.4688 
814 1 7.00936 -1.00503 -0.199484 
815 1 -0.659087 -7.23598 -15.4381 
816 1 -9.11863 -6.96937 1.93126 
817 1 9.82222 4.74557 -5.33033 
818 1 9.98426 -6.56775 -0.0283132 
819 1 -8.35978 2.21681 13.7463 
820 1 3.08788 -8.2014 3.8776 
821 1 12.609 -6.43738 -1.45678 
822 1 9.28785 -2.26636 10.5077 
823 1 1.84503 8.09833 10.27 
824 1 -13.5903 2.90678 13.81 
825 1 -7.11971 6.95493 11.9431 
826 1 -1.28585 -14.4446 9.9526 
827 1 10.1605 -2.83534 3.93017 
828 1 7.19118 7.80815 12.2716 
829 1 -13.4346 -2.26388 0.73899 
830 1 6.45768 -6.36696 -3.45581 
831 1 2.05137 3.95877 -1.77743 
832 1 -9.42198 12.5824 -8.48186 
833 1 2.02269 7.24232 3.09248 
834 1 3.69532 -13.542 5.28478 
835 1 4.64212 -0.168283 13.2616 
836 1 -5.44873 11.6587 11.1244 
837 1 1.31151 -11.1615 5.36531 
838 1 -10.5001 -4.72033 -1.12506 
839 1 0.720205 2.92911 13.5051 
840 1 -15.2812 -4.93967 -3.97322 
841 1 2.97348 11.602 15.185 
842 1 4.67185 11.801 1.94522 
843 1 -11.9401 -12.6042 3.90642 
844 1 -3.16767 -19.0247 6.5985 
845 1 5.8443 -3.99396 8.17887 
846 1 11.0056 -5.04472 9.99361 
847 1 9.24504 6.62649 7.06751 
848 1 -1.62654 8.10783 -3.71806 
849 1 -0.680466 -10.9945 -10.9807 
850 1 -2.43274 0.830681 -11.6213 
851 1 -3.75477 2.56581 11.7184 
852 1 -3.39808 15.8815 3.48605 
853 1 12.6934 4.73902 3.4361 
854 1 0.0204784 8.11933 -9.48129 
855 1 -2.942 10.5849 13.2586 
856 1 6.94789 6.12179 9.9322 
857 1 5.06214 -2.16976 -10.8349 
858 1 -7.03322 -14.7738 -0.0738892 
859 1 -7.24334 0.545931 -7.5006 
860 1 12.3429 -2.21638 2.31956 
861 1 3.17337 -4.12832 -12.4892 
862 1 1.89088 9.52557 17.724 
863 1 9.50217 -10.8599 -6.07214 
864 1 3.67337 4.85119 -14.3268 
865 1 -3.8435 -8.1913 -4.79974 
866 1 9.6618 9.0319 -11.1901 
867 1 13.6248 -1.65761 -0.663422 
868 1 -1.38936 -6.58263 12.1225 
869 1 -2.30545 -9.50183 -13.3012 
870 1 -0.71524 -0.109861 -0.746927 
871 1 6.14222 13.5976 -0.481317 
872 1 1.43012 -7.07912 6.20337 
873 1 -10.8206 4.97445 3.97019 
874 1 10.3116 4.58375 -8.56009 
875 1 16.8936 6.70365 2.32233 
876 1 2.81251 -7.50785 -17.554 
877 1 -8.16458 10.9362 4.36816 
878 1 16.5545 7.47278 5.69883 
879 1 10.5531 14.5728 -3.26632 
880 1 2.0615 2.21517 -13.0855 
881 1 8.5436 -3.61834 -0.41161 
882 1 -12.9557 2.52751 -1.92049 
883 1 10.6695 6.48914 2.89713 
884 1 -13.7732 -9.6727 -0.946389 
885 1 -9.98747 10.6528 -10.9334 
886 1 6.14897 5.26816 7.22285 
887 1 -11.9058 -2.44238 -6.86074 
888 1 -9.37891 5.50016 6.85438 
889 1 -3.3165 3.95844 -11.4024 
890 1 8.50057 -6.66553 -8.37296 
891 1 -11.4531 -9.49821 -7.17526 
892 1 14.4679 -7.36473 -4.13348 
893 1 -12.6555 5.72128 -0.891788 
894 1 -8.71398 -4.55355 -3.67294 
895 1 9.0666 3.96637 8.76232 
896 1 -4.08151 -7.73943 5.76514 
897 1 9.684 1.60448 16.667 
898 1 12.0088 -3.41554 7.01266 
899 1 10.5712 -7.47366 4.1161 
900 1 -11.4596 3.26599 0.89904 
901 1 2.70596 11.1359 10.5397 
902 1 6.67544 9.01545 -10.5041 
903 1 -0.581867 -12.3663 -17.2198 
904 1 -4.8996 11.719 0.752073 
905 1 -9.88253 -10.882 6.23389 
906 1 4.14319 10.9103 -5.41854 
907 1 1.9462 9.38143 13.307 
908 1 14.0242 -1.88676 -6.2689 
909 1 8.03086 -4.72663 10.8328 
910 1 -0.353123 10.6801 -10.5576 
911 1 -0.975825 12.3535 -7.27909 
912 1 0.330813 -2.97056 2.4031 
913 1 -8.79226 -1.30078 9.66371 
914 1 16.1033 4.21352 4.77587 
915 1 -1.62464 -3.77873 -8.6101 
916 1 11.0584 8.07215 0.230417 
917 1 -15.0795 4.3503 -3.2844 
918 1 -2.93494 -11.0542 9.46179 
919 1 5.17795 14.2534 -9.56519 
920 1 3.72721 -5.8521 14.8175 
921 1 -4.40321 -13.2991 1.21909 