ITEM: TIMESTEP
701000
ITEM: NUMBER OF ATOMS
2000
ITEM: BOX BOUNDS pp pp pp
-30.0 30.0
-30.0 30.0
-30.0 30.0
ITEM: ATOMS id type x y z Coordination
1 1 -11.8412 4.1651 -12.8401 10
2 1 -4.36014 -10.7148 -13.8949 13
3 1 0.626716 12.3215 13.3957 14
4 1 4.49636 -8.90952 4.80888 21
5 1 -11.0941 8.158 -1.35912 20
6 1 13.3479 -7.0932 -8.64844 16
7 1 -10.2904 0.894207 -5.52852 21
8 1 -3.11724 -9.70703 12.0668 15
9 1 -8.58629 7.69217 -9.80732 19
10 1 -9.60861 -6.63377 5.59764 23
11 1 13.0864 5.49475 -8.8825 15
12 1 -2.72584 2.34259 -5.65644 23
13 1 -9.20488 -16.3267 0.118547 12
14 1 -10.9685 -8.52163 3.6874 21
15 1 0.416421 3.13231 17.373 18
16 1 7.05785 -1.41413 7.84356 24
17 1 -1.85033 3.94092 10.3214 24
18 1 6.24049 -2.12492 3.6629 24
19 1 -0.663569 12.2797 -13.0895 12
20 1 0.940374 -0.762414 13.2082 23
21 1 -7.83708 -4.58836 -13.934 17
22 1 -11.3947 -2.97857 9.56026 11
23 1 15.7429 1.56679 5.26427 14
24 1 -1.3031 3.40937 -14.9662 22
25 1 0.706766 2.71259 -9.65297 23
26 1 15.0531 0.275698 8.12514 12
27 1 -6.69431 0.579025 1.20519 23
28 1 -11.22 7.67513 -11.7856 11
29 1 -1.5104 -4.29728 -4.87354 21
30 1 -11.1756 11.6373 5.48217 11
31 1 7.23675 -10.0026 5.80933 18
32 1 1.49148 -0.771977 9.95532 22
33 1 2.12341 -12.8904 -9.63074 18
34 1 9.4589 -9.92311 -1.90482 24
35 1 -9.62519 -14.1036 -6.65333 11
36 1 -12.2891 -4.5089 6.73165 13
37 1 3.16187 -3.45307 -4.35911 23
38 1 3.39746 -7.27879 -11.7355 24
39 1 11.9221 -9.25556 -11.0401 11
40 1 1.03344 2.48103 -12.6579 24
41 1 -0.40964 6.01223 11.6828 23
42 1 -0.791004 -11.2651 6.5654 23
43 1 4.41822 -4.90673 15.1971 14
44 1 -11.6466 -0.677311 0.261905 24
45 1 -14.9143 0.606758 6.22663 11
46 1 -8.59842 -1.62398 -0.684014 25
47 1 -5.02231 12.2383 -5.68696 23
48 1 -1.88571 -16.5588 -8.28188 9
49 1 -1.48809 -1.16607 -8.44878 24
50 1 5.0591 -5.0014 -10.301 23
51 1 -3.41948 -6.23555 12.1782 20
52 1 -12.0537 5.47403 -3.28637 23
53 1 1.97429 11.3435 -11.8474 17
54 1 -0.53335 9.23527 8.59055 23
55 1 -9.14372 6.44465 -4.21706 23
56 1 -1.40397 11.9069 0.418572 22
57 1 -1.3562 -15.0553 2.3209 18
58 1 8.24468 -8.32886 0.621432 23
59 1 8.88101 -5.11029 -13.4431 17
60 1 -6.5553 9.8668 10.0144 22
61 1 -11.72 -1.50964 -10.414 18
62 1 10.3555 -0.754259 7.37582 24
63 1 -6.50853 5.10957 -5.23964 25
64 1 -7.84358 -7.91745 3.20055 24
65 1 1.00688 14.2984 10.6333 18
66 1 -14.2953 9.08453 -6.99029 12
67 1 -3.08201 9.07757 16.7313 12
68 1 -0.715 4.39309 -7.02809 22
69 1 -0.75424 5.54606 4.05849 24
70 1 -1.80288 -17.0565 7.36161 9
71 1 1.50252 4.16053 6.3405 21
72 1 8.70211 -14.6354 -0.618555 9
73 1 5.89296 12.6495 14.0199 14
74 1 -13.5846 5.37292 -7.64003 17
75 1 -11.8268 7.70262 -8.72686 19
76 1 4.96189 2.69227 18.8052 11
77 1 10.9206 -2.10796 -7.1919 23
78 1 12.5071 -11.0561 -0.716911 10
79 1 -15.6537 -1.14837 3.2539 10
80 1 -9.01839 -1.44906 2.60432 26
81 1 7.2984 15.355 5.45879 16
82 1 -0.779351 0.534995 18.9083 11
83 1 -4.66471 -17.1021 5.08105 14
84 1 -13.9604 0.735881 -1.77981 22
85 1 13.2754 3.14541 3.24575 23
86 1 8.18487 -3.54058 -2.26838 21
87 1 -1.20779 9.32112 11.6578 23
88 1 4.4982 0.00196734 8.93717 21
89 1 -5.73905 -6.01722 1.46187 24
90 1 -2.08911 -9.78707 -9.62162 21
91 1 -11.4494 8.66855 7.51092 15
92 1 -8.56327 11.6919 -2.08603 20
93 1 -4.37351 8.75193 -5.64055 21
94 1 2.34655 0.0266624 -4.37986 23
95 1 5.93395 -2.53374 -4.79554 20
96 1 8.16194 11.697 -5.56509 20
97 1 2.50848 -7.37327 10.5064 22
98 1 7.13036 -5.83713 13.8695 15
99 1 -6.71947 17.4091 -4.54246 11
100 1 -8.13821 15.3874 4.13889 13
101 1 -7.86157 -2.90288 13.5933 12
102 1 -6.66812 6.07134 5.81774 25
103 1 -4.40046 -3.02682 12.1528 22
104 1 14.0631 -7.97706 -5.74639 16
105 1 -5.83791 2.83032 6.3427 26
106 1 -11.5223 -14.1172 1.70219 12
107 1 9.10994 -7.28266 -5.51246 24
108 1 3.6832 1.28023 -10.5247 24
109 1 -8.39168 2.02187 -14.3553 14
110 1 4.89248 -0.331682 5.60038 21
111 1 3.02187 14.7301 2.03696 24
112 1 -9.8075 9.58516 -7.233 23
113 1 0.218353 6.94076 16.8024 17
114 1 0.073609 18.6216 -3.25122 14
115 1 -12.0914 13.7192 -0.00919886 11
116 1 -1.11519 8.63193 4.30587 21
117 1 -0.328862 1.35729 -3.31641 24
118 1 -4.76382 -8.41683 10.2697 20
119 1 13.1849 -1.88581 9.10173 16
120 1 -5.65063 -2.55911 -12.4016 22
121 1 3.93196 -6.68672 -3.97367 20
122 1 -0.85902 0.744417 10.7274 20
123 1 3.4288 -2.6758 17.8517 10
124 1 -8.5724 -8.98204 -4.42752 23
125 1 5.55685 -3.55275 6.35147 25
126 1 -8.17242 -9.67896 -7.93908 23
127 1 11.6949 -7.78889 -0.357779 17
128 1 -8.9125 7.04348 3.60581 24
129 1 8.35906 -1.65027 -14.4599 12
130 1 5.50816 16.4831 0.455336 14
131 1 -7.07102 -10.6167 8.90112 18
132 1 -8.43241 -12.7526 6.16142 19
133 1 -7.88095 3.67438 0.939346 22
134 1 6.16877 -8.81671 -13.028 20
135 1 2.54524 4.79896 -7.49722 22
136 1 9.23023 -10.7692 -4.90434 19
137 1 -0.024629 -14.5783 6.83265 17
138 1 -9.17808 -10.5872 -1.87498 18
139 1 16.2116 8.39724 6.81953 10
140 1 14.329 -1.39941 -7.56437 12
141 1 -13.9673 -3.88252 1.64683 14
142 1 8.71121 8.74392 6.11318 21
143 1 15.4199 8.53046 1.08216 10
144 1 -6.74345 5.01539 12.9116 24
145 1 5.69372 4.33631 -0.682223 23
146 1 -4.56851 12.1361 12.0851 13
147 1 -7.22163 8.58451 -5.4643 21
148 1 -1.85559 -5.24797 -12.7232 21
149 1 10.4753 -10.9585 -8.78954 15
150 1 2.61053 7.45288 -14.1674 16
151 1 9.69516 -3.22537 14.5665 11
152 1 0.844986 -3.03409 -17.5208 15
153 1 -4.82335 12.2144 -9.09841 21
154 1 7.88592 2.65067 -6.74142 22
155 1 -10.3892 9.88435 -3.81166 23
156 1 2.61585 -2.94887 -0.587341 20
157 1 -9.51531 15.6333 1.15969 12
158 1 6.13839 -0.0571361 -11.4808 20
159 1 10.981 -9.36799 5.18637 15
160 1 -5.05981 3.31937 -7.47644 21
161 1 -6.96775 13.0201 9.78067 12
162 1 12.3554 8.54103 -9.18842 11
163 1 -2.01059 3.15281 -0.856212 21
164 1 4.75888 11.0967 -1.41692 24
165 1 -2.44306 15.3375 0.548924 19
166 1 6.95157 9.89327 0.772829 24
167 1 -5.4828 10.4701 -3.26697 20
168 1 1.09086 16.6956 -6.21602 15
169 1 0.572165 5.57976 -12.6675 22
170 1 -11.9945 -11.966 -1.04868 12
171 1 -12.3606 10.5814 -5.6658 16
172 1 -7.80066 -4.28192 -10.5616 23
173 1 1.51148 -9.851 -16.7681 12
174 1 11.3119 7.66915 4.95407 21
175 1 -0.734021 14.4734 6.11015 17
176 1 -11.7179 -4.80983 -6.8377 21
177 1 -11.2347 12.8243 -3.78264 18
178 1 14.3796 -0.0120362 -0.339639 19
179 1 -9.04674 2.27602 -11.4618 21
180 1 3.04962 -0.0319925 19.9397 9
181 1 2.53461 17.8912 1.57344 14
182 1 -5.06038 8.62154 7.56322 25
183 1 3.96239 -11.4602 -14.5733 10
184 1 -1.72386 11.9653 4.10004 21
185 1 -0.547674 13.4054 -2.35158 21
186 1 -0.28296 -5.58996 15.9826 8
187 1 -9.74891 -3.15878 5.18946 23
188 1 -2.49185 -13.4396 -13.8889 10
189 1 -5.03888 15.2798 -9.32496 13
190 1 -4.54239 -12.3626 2.36647 22
191 1 6.09347 -14.6137 -4.66004 13
192 1 -5.45274 11.0406 -13.6542 11
193 1 -14.7727 3.41394 5.80991 16
194 1 0.757253 6.93349 -2.00232 26
195 1 7.76384 11.5386 -1.99004 22
196 1 -8.33748 7.0065 14.354 15
197 1 0.832632 -9.25163 8.69499 22
198 1 -9.4185 1.39724 -0.929637 23
199 1 1.54097 16.473 4.26336 16
200 1 3.58182 6.54148 8.40304 21
201 1 13.883 3.71509 10.8727 14
202 1 -7.37251 12.338 1.76626 21
203 1 12.7167 -3.75508 -9.34522 16
204 1 -5.85023 14.2583 4.07902 18
205 1 -4.36768 0.0401952 -7.09361 20
206 1 13.2043 -5.08025 1.33283 16
207 1 -1.56835 -8.28521 6.44934 24
208 1 -16.4651 2.11614 3.27925 12
209 1 -5.9859 -14.2079 4.56835 24
210 1 4.28875 6.95102 13.4319 20
211 1 -13.4191 0.100775 -4.84277 19
212 1 -3.55538 1.01158 0.593665 23
213 1 -3.44431 -14.0136 -0.198737 20
214 1 -1.55861 0.232694 2.55256 21
215 1 -5.15566 -1.45549 -4.628 25
216 1 3.66285 -9.47279 -0.0580145 18
217 1 -3.34881 9.94024 1.81735 24
218 1 -7.28613 0.599167 4.44559 26
219 1 7.83527 14.0908 11.2723 12
220 1 -8.1147 -0.169321 -3.39395 20
221 1 -1.53128 16.0666 -8.86269 14
222 1 -14.0166 -3.35081 -8.78671 14
223 1 -10.077 0.313941 9.30523 17
224 1 -5.05425 -9.36756 1.71233 24
225 1 6.69827 -10.113 8.96938 14
226 1 -10.1909 13.1929 2.67973 18
227 1 15.6979 4.83657 1.70508 17
228 1 5.46906 3.55248 -8.78788 23
229 1 -6.52739 -2.67462 -17.2402 9
230 1 2.85849 1.49084 11.5662 23
231 1 -2.70009 -5.47081 1.33363 22
232 1 4.22231 -12.8656 0.368282 22
233 1 -3.73336 5.10347 -13.2586 21
234 1 4.03379 -10.7434 -11.7152 19
235 1 12.279 -0.656805 -9.80908 15
236 1 -2.10702 6.87553 -14.4153 23
237 1 -5.90132 -1.9905 -8.80295 22
238 1 -3.0187 14.2447 -7.14759 24
239 1 -10.0826 -9.08627 8.82055 14
240 1 6.67576 14.6461 -2.23787 16
241 1 -7.11587 4.98533 16.788 10
242 1 -6.09954 15.26 -6.02346 20
243 1 9.05541 0.592501 10.0029 19
244 1 -1.15575 -8.50434 -12.25 20
245 1 -5.95362 9.7505 -10.6704 21
246 1 1.4385 -0.699269 -9.39589 24
247 1 -5.54446 -12.1901 6.56172 22
248 1 -2.3347 3.4686 2.41454 23
249 1 -12.4374 7.01312 10.068 13
250 1 -3.35925 10.4258 9.52476 21
251 1 -1.34446 -13.3541 -9.22919 21
252 1 -8.84319 -14.6639 -3.3177 12
253 1 11.6352 -7.60835 -3.52161 20
254 1 -3.30994 1.58598 5.1728 20
255 1 -3.05765 -2.29389 1.01177 23
256 1 2.81046 -6.20527 -0.219043 19
257 1 12.9201 6.90023 13.18 11
258 1 4.2135 7.31788 -5.7317 23
259 1 -0.109375 10.3814 -2.14645 23
260 1 -10.0863 1.32961 2.17706 24
261 1 -10.4853 12.7671 -7.06637 17
262 1 5.85128 5.33678 10.505 19
263 1 4.43426 -16.2531 0.865783 12
264 1 9.63184 2.00038 -1.1774 19
265 1 1.27803 7.60293 6.29628 23
266 1 -9.5662 10.2722 0.424109 20
267 1 -9.12451 -5.676 -4.69099 24
268 1 4.25199 1.18648 -13.8498 24
269 1 -0.062604 -2.14474 16.0236 17
270 1 9.51615 7.78602 -8.40694 21
271 1 1.69942 -8.72553 -2.34727 23
272 1 -3.58684 -3.38096 -10.2814 22
273 1 2.67187 -13.7781 6.07919 16
274 1 7.89524 2.24343 -9.99469 22
275 1 -6.87659 -2.71945 4.88053 21
276 1 4.48671 -17.0453 -2.6046 13
277 1 -7.09782 -3.92606 -6.17627 20
278 1 3.68942 14.4377 -1.31405 20
279 1 2.62722 -3.94619 -12.3654 23
280 1 1.29088 -0.0508398 17.5256 19
281 1 15.7951 1.59155 1.90016 16
282 1 -4.38211 -7.92708 -0.854933 21
283 1 9.61906 -4.34518 -9.15041 22
284 1 -1.8445 -11.9957 2.10292 22
285 1 -5.12341 -0.573693 -14.8545 20
286 1 -12.9356 2.11902 -7.35597 21
287 1 -6.36842 -13.3673 9.54462 14
288 1 12.4643 0.994949 5.94462 24
289 1 5.84128 -6.5981 9.57971 20
290 1 -5.33662 -5.77845 -12.2094 19
291 1 4.22847 -5.23781 12.1375 21
292 1 4.72679 6.94181 -9.10808 24
293 1 4.65023 7.94009 2.33425 22
294 1 -3.30161 -10.4041 4.47096 22
295 1 0.782697 10.8705 2.44604 24
296 1 -5.66355 -2.25018 9.47151 20
297 1 -7.25272 -7.7364 -10.4126 25
298 1 -2.59377 -6.57374 -10.2698 22
299 1 0.0704263 8.55602 -16.7049 13
300 1 -3.34995 -11.2156 -3.76427 23
301 1 -1.9061 -8.81608 1.39967 19
302 1 -6.51077 -7.36419 -6.02478 23
303 1 7.18978 -3.22729 -11.4186 25
304 1 13.3804 2.03035 -8.37219 14
305 1 0.712047 -4.5115 5.79809 22
306 1 10.9332 3.94857 1.02472 19
307 1 -4.58063 -4.70782 -4.28179 23
308 1 -7.72476 -4.26173 7.69552 20
309 1 -5.43834 -13.487 -2.37962 26
310 1 8.44499 4.41101 16.5728 14
311 1 -2.8598 -13.6328 4.98046 25
312 1 1.67293 3.36179 -4.70436 23
313 1 2.00047 -11.8072 -1.82193 21
314 1 -2.73073 18.0529 -1.17079 12
315 1 5.21137 -2.0099 -13.5079 22
316 1 -3.99837 -4.01916 -14.9176 22
317 1 1.29912 -4.66009 2.41487 21
318 1 -7.30582 -7.64761 8.03309 24
319 1 2.30857 4.92135 14.0415 18
320 1 4.36451 -9.94693 -3.11747 19
321 1 -4.61341 -12.4757 -11.1937 13
322 1 -12.0607 7.3556 -5.66865 23
323 1 9.68062 2.30033 7.09286 23
324 1 -7.35036 4.32766 -9.50107 21
325 1 -3.25007 8.77795 -9.22802 22
326 1 -5.48647 -9.38184 5.23334 20
327 1 8.07236 -13.0002 -8.78907 10
328 1 -5.10284 16.1749 -1.80961 15
329 1 0.523479 11.0153 5.80328 24
330 1 13.4877 -1.83278 6.3469 16
331 1 -2.79216 -1.49105 8.85914 22
332 1 -1.86485 -8.0482 9.53134 22
333 1 -2.97995 10.7675 6.41122 22
334 1 7.07862 -7.16253 -15.5846 12
335 1 12.8989 9.7305 -0.860995 16
336 1 1.00368 -13.2584 1.06888 22
337 1 -2.17083 -1.33027 14.013 18
338 1 -12.0268 -1.59998 3.26391 20
339 1 1.25481 -17.1848 -3.49001 17
340 1 -7.72949 8.42377 12.2051 18
341 1 -10.7147 5.4627 14.9163 10
342 1 -12.2692 -1.3449 6.69035 16
343 1 -11.5327 -5.2457 3.55053 18
344 1 15.4253 -2.11831 1.11541 11
345 1 -10.379 -6.09211 8.66169 17
346 1 9.57124 1.80546 -4.08666 20
347 1 10.8656 -12.7978 -2.59331 12
348 1 1.18689 15.5938 -3.18871 19
349 1 -4.11976 -3.88633 3.31246 20
350 1 -9.07778 14.8159 -5.33049 15
351 1 -0.719761 0.59613 7.40716 22
352 1 9.74023 9.56408 10.7624 20
353 1 -6.75717 -6.55844 -2.90029 24
354 1 7.12999 -9.26078 -3.87665 23
355 1 -0.722971 8.60077 0.817564 22
356 1 -5.91319 5.78875 2.55425 23
357 1 0.0343697 2.2133 4.6585 21
358 1 9.22334 -7.9662 7.78692 17
359 1 12.8966 -7.1361 3.76463 13
360 1 -2.0569 6.98726 6.61303 25
361 1 -7.4334 -0.51809 -6.70613 23
362 1 2.99028 -2.62947 4.44746 22
363 1 -2.93296 2.7067 17.7183 13
364 1 -1.03715 12.4209 8.11692 21
365 1 10.2761 7.02286 15.1254 13
366 1 -3.97487 17.4266 -7.28418 13
367 1 1.62682 -6.20462 -17.4568 15
368 1 -5.8024 1.82187 -4.84858 24
369 1 8.34337 -9.89519 -10.5459 17
370 1 -8.66329 3.56575 14.4167 20
371 1 -16.5569 5.37456 1.26286 13
372 1 1.64104 -5.51953 -5.96101 22
373 1 -5.24804 7.61453 0.0425457 22
374 1 6.82105 -1.08082 11.1471 22
375 1 -8.89989 -13.6056 2.13707 23
376 1 11.9436 -7.13809 7.39523 14
377 1 -4.50325 4.26367 0.376787 25
378 1 -8.37893 -8.14947 11.4726 14
379 1 -12.063 10.8947 -1.25404 16
380 1 1.91267 -4.05578 10.0529 24
381 1 2.8579 -11.8032 -5.81082 21
382 1 -3.6458 -3.1029 -6.97783 23
383 1 6.92269 -3.88607 -16.2075 14
384 1 2.81708 13.4111 4.40954 20
385 1 -9.94178 -2.53748 -5.11605 21
386 1 1.20573 -9.5795 -10.241 22
387 1 6.63543 4.91204 -14.5368 12
388 1 -7.06081 -16.3163 -5.79633 10
389 1 -13.2366 -6.7604 -8.9034 11
390 1 -3.75309 -11.0373 -0.640328 23
391 1 11.2517 4.44144 14.464 16
392 1 -2.63583 -2.3946 -2.65649 25
393 1 12.3369 3.74797 -5.85547 23
394 1 -5.37946 6.85467 -11.2432 21
395 1 2.92809 17.8635 -1.39643 14
396 1 -15.5738 -1.89658 -6.45355 13
397 1 3.05755 1.20367 3.40924 20
398 1 -7.08141 9.36898 5.41416 25
399 1 -5.75821 10.8994 -0.322524 21
400 1 -5.299 2.96126 10.6246 21
401 1 9.9504 5.99908 11.4021 20
402 1 14.3179 -5.31417 -4.40779 16
403 1 6.62183 -2.57502 13.5509 17
404 1 10.4002 1.22288 -7.9501 22
405 1 -2.17316 -18.0835 -3.32904 15
406 1 2.66246 1.4931 6.52602 20
407 1 -8.34896 6.92282 0.470859 23
408 1 -4.04375 -7.80212 -4.0897 24
409 1 -5.76397 11.5724 7.46936 23
410 1 5.0248 3.76092 -5.41765 22
411 1 -8.53596 3.2558 -3.67405 21
412 1 6.37682 -10.721 -0.790626 23
413 1 13.4333 -5.19216 6.69163 13
414 1 -9.29635 -2.61413 -8.26109 22
415 1 -7.44411 -8.06989 -0.166757 22
416 1 -8.53652 -5.80189 13.5991 10
417 1 -3.11479 9.46856 -1.44339 23
418 1 -10.6524 -7.90111 -6.39201 21
419 1 8.23094 9.76921 14.1033 17
420 1 -10.1362 4.78683 -1.30247 23
421 1 -0.0156739 13.3205 -5.56235 25
422 1 2.95412 9.65409 7.72477 24
423 1 -12.4276 -6.21184 -4.22402 17
424 1 -2.36093 -9.50991 -6.54306 24
425 1 -14.2162 4.14047 2.37588 23
426 1 -13.8986 8.66423 -3.43015 15
427 1 6.27062 -6.58375 6.37899 22
428 1 -0.137571 -10.6682 -4.37083 24
429 1 10.8842 10.9259 7.79496 19
430 1 -0.0506162 2.71769 -18.0716 14
431 1 -10.648 4.12459 -9.03802 23
432 1 0.647158 14.6021 -8.32625 18
433 1 -10.9484 4.25467 -5.83035 20
434 1 0.192374 -13.0111 4.21055 24
435 1 12.6159 6.08589 3.06558 20
436 1 -2.88938 10.6096 -11.7279 21
437 1 -7.68149 4.23404 8.49474 21
438 1 -14.7414 3.73446 -1.85521 22
439 1 3.91902 2.26049 -2.6913 22
440 1 -9.31849 2.19385 6.79563 21
441 1 -2.74862 -13.3668 7.98818 20
442 1 -0.299766 -7.72739 -7.88725 23
443 1 5.86547 -8.54186 -9.8554 23
444 1 -0.477376 -2.84831 8.10481 22
445 1 -9.95839 5.4921 6.3636 21
446 1 -12.6111 1.98703 6.98783 20
447 1 -13.2247 9.38133 4.82339 12
448 1 0.34964 -9.2668 11.6325 22
449 1 -7.6742 4.65556 -12.2797 16
450 1 8.08866 -9.48857 -7.43029 20
451 1 3.90743 -7.79156 -15.0456 21
452 1 -4.07405 0.171764 11.5883 22
453 1 5.79649 -7.51398 -1.30456 24
454 1 -3.01297 2.71676 -18.47 11
455 1 6.32877 -10.3219 2.20886 24
456 1 0.394602 9.93361 -5.41631 24
457 1 -8.22333 7.55356 8.01586 24
458 1 -5.47936 -1.10838 14.6307 19
459 1 -6.72655 -7.87414 -13.9478 18
460 1 -8.99096 -9.79981 5.93342 23
461 1 9.87197 -5.6634 12.9965 13
462 1 6.03865 1.50857 2.87315 21
463 1 -5.32409 2.59243 3.11306 24
464 1 3.8927 -1.47145 -7.10298 24
465 1 8.16649 -4.39652 8.3167 22
466 1 -0.130948 5.29821 0.651879 24
467 1 15.2132 8.64874 -2.92831 11
468 1 -5.87254 6.61585 10.0745 25
469 1 1.76402 12.5016 -0.216338 23
470 1 8.36374 -7.57425 10.9297 15
471 1 -1.82763 -12.8284 -5.97437 26
472 1 -2.31415 10.9943 14.248 17
473 1 -3.08525 14.6892 3.74911 18
474 1 -9.38591 -12.0848 -9.62841 14
475 1 11.5778 15.4522 1.65916 9
476 1 5.63453 8.59954 6.39604 22
477 1 -3.24739 1.69393 8.31143 24
478 1 -5.82641 -10.0384 -2.61101 23
479 1 -8.17867 2.44009 11.2447 21
480 1 -8.58416 -5.83575 -7.92557 24
481 1 -4.99185 11.5941 4.10777 22
482 1 -5.16877 -13.6871 -5.36503 20
483 1 -1.34787 -5.33497 -15.9857 16
484 1 -7.24194 -11.2456 3.93093 22
485 1 -6.37933 -2.84912 1.34114 25
486 1 8.52238 0.0462547 1.93928 21
487 1 -5.40138 -4.58493 14.6537 12
488 1 -7.77138 7.8378 -13.073 12
489 1 6.38471 6.35172 -3.52214 21
490 1 -8.71966 -13.8213 -0.756413 19
491 1 3.17444 1.55162 -7.3568 23
492 1 -5.41428 16.0898 1.42353 12
493 1 0.317541 6.01679 -9.63215 23
494 1 2.63341 4.80404 10.9245 22
495 1 -13.1712 -3.17425 -4.74648 18
496 1 0.4137 19.2203 -0.410904 11
497 1 5.42246 12.6065 -4.46359 22
498 1 -5.54033 -5.44367 -8.68802 24
499 1 1.95673 2.32315 19.974 12
500 1 0.913767 -14.2038 -7.19918 20
501 1 1.70152 -9.89577 -13.5324 20
502 1 9.04592 -11.7112 3.49207 14
503 1 -6.58081 8.82363 2.44941 22
504 1 -0.68884 4.3849 14.5536 20
505 1 6.04902 9.68953 -4.0377 25
506 1 2.28357 9.27049 0.0189814 23
507 1 -6.75188 12.9296 -11.2834 12
508 1 5.59843 0.733824 -5.10707 21
509 1 -0.00767772 -10.022 3.98107 23
510 1 -15.0514 -0.919905 0.467981 15
511 1 3.54527 2.65024 0.673604 24
512 1 5.4065 16.8425 3.33525 14
513 1 -6.45113 0.828996 -12.563 21
514 1 8.98464 5.16791 -1.44999 22
515 1 5.73584 12.2948 -7.72479 16
516 1 3.72136 -5.61356 4.55435 24
517 1 13.6006 2.93149 -0.12526 18
518 1 -0.0985062 -2.94669 -11.1916 24
519 1 0.526648 -10.3122 0.885728 21
520 1 1.71407 -12.1107 8.65965 20
521 1 3.11939 -10.0585 13.4566 11
522 1 -8.97459 6.53099 -7.17041 22
523 1 -11.0219 -11.8882 3.86393 17
524 1 1.91775 4.21367 3.13474 21
525 1 -4.08454 -15.0798 -7.58822 15
526 1 9.68029 14.442 8.22227 12
527 1 2.24318 -1.12775 -15.5856 22
528 1 3.21576 -1.87047 15.3129 19
529 1 -13.4154 3.74185 9.34541 12
530 1 -1.12625 -18.8164 -0.493793 11
531 1 -10.7096 -3.60368 0.839272 21
532 1 15.2571 -4.64528 -7.46757 11
533 1 12.6862 0.632828 -6.01545 20
534 1 -1.29528 4.54046 -3.59665 24
535 1 -4.86625 7.63799 -3.22049 23
536 1 2.93835 -7.16822 -8.6299 21
537 1 6.0952 0.166813 -8.36265 23
538 1 11.476 -5.20028 -6.26985 21
539 1 -3.16534 -0.486006 16.8735 14
540 1 4.16847 15.263 6.04948 18
541 1 -5.16896 2.60572 -15.2975 19
542 1 -0.577006 -7.05472 3.75924 21
543 1 5.2129 2.56242 -16.3601 12
544 1 -4.451 -3.71595 6.87524 21
545 1 -3.49542 14.4739 -4.3147 21
546 1 -10.8068 -4.64946 -9.88311 18
547 1 -16.0383 2.05033 0.129589 16
548 1 -4.64594 -8.91673 -16.6271 10
549 1 -6.33426 -10.7128 11.6424 13
550 1 3.57912 10.3942 -6.09846 22
551 1 15.0207 5.37864 4.95513 19
552 1 11.7934 3.90038 -2.55264 20
553 1 -7.91934 -12.1093 -4.6791 20
554 1 -1.42747 -9.07502 -1.82421 22
555 1 -1.99774 -1.95059 -16.3576 19
556 1 -8.89916 11.0603 7.81124 17
557 1 4.4901 -4.75855 -6.8378 20
558 1 3.09998 5.93599 0.201899 24
559 1 12.4538 0.492565 -2.67677 20
560 1 1.9836 8.31971 -7.61144 22
561 1 3.07318 -10.9626 2.75683 21
562 1 4.76816 -0.85526 -2.26347 21
563 1 14.5141 7.80395 -6.5826 11
564 1 3.63475 9.94452 12.1446 23
565 1 -11.5948 3.22354 4.45525 23
566 1 -5.01192 -4.54558 -1.30585 23
567 1 7.4191 10.8125 8.30174 23
568 1 8.09177 -0.830304 15.6364 14
569 1 2.90791 0.338107 -18.3971 11
570 1 -3.19279 -6.35898 -6.87286 23
571 1 1.52708 -3.76442 13.3334 23
572 1 4.81574 11.867 6.76803 21
573 1 3.58786 13.5158 -9.99563 13
574 1 -6.75949 9.94936 -7.66177 22
575 1 0.648478 15.8022 -0.209752 21
576 1 12.034 -3.69482 12.225 11
577 1 8.85438 3.91259 -12.5328 14
578 1 12.2754 -10.8248 -4.21041 16
579 1 12.9112 9.30202 10.6348 13
580 1 -12.7701 -8.8228 -0.906329 14
581 1 -4.35599 8.35469 -13.6831 20
582 1 -1.12782 -2.53129 11.215 20
583 1 -11.1267 1.7112 13.9589 11
584 1 0.465061 14.6374 -11.3032 12
585 1 0.678286 -13.9336 -3.79564 21
586 1 6.59196 -2.85039 -8.54649 24
587 1 -3.52708 18.4161 -4.14753 12
588 1 -10.3619 -3.61313 -12.7561 12
589 1 5.09825 -12.1339 7.54724 15
590 1 -9.94023 -7.13652 -2.06576 24
591 1 0.228586 8.80598 -13.3139 20
592 1 -6.03641 1.98755 -1.21639 21
593 1 3.05907 7.95189 16.2575 15
594 1 -6.81407 -5.99127 5.77823 18
595 1 0.89967 6.46277 -5.10638 21
596 1 0.543146 -10.8569 -7.70139 25
597 1 5.51126 -8.41532 11.8926 17
598 1 7.73588 -0.350936 -2.77273 20
599 1 0.995865 -1.35534 1.69834 19
600 1 -12.9973 5.6642 -0.24964 21
601 1 6.8905 2.29003 15.8813 18
602 1 4.18327 16.0158 -4.33603 13
603 1 10.9122 -4.46571 -3.61365 24
604 1 5.2217 8.98233 9.54667 22
605 1 -0.545521 0.0284575 -18.3227 12
606 1 -4.21343 -12.9422 10.871 13
607 1 -2.15725 1.84314 -8.7254 23
608 1 7.29998 1.48231 -14.0948 14
609 1 2.05659 13.0206 7.87549 23
610 1 8.0531 7.57547 -12.9271 11
611 1 -4.50593 -8.76549 -11.7347 20
612 1 -0.929751 -12.2278 -1.78893 23
613 1 -11.0837 0.980181 -13.0788 11
614 1 13.4447 6.2467 7.43039 21
615 1 13.8909 5.9248 -4.05988 16
616 1 8.39179 -3.94495 -5.80183 21
617 1 14.7096 6.86315 10.0467 11
618 1 5.43584 -8.26902 -6.6115 21
619 1 1.51606 2.19945 -15.5858 20
620 1 8.32224 12.1369 2.59143 21
621 1 -8.30568 3.78466 4.2394 25
622 1 11.3751 9.83185 13.7032 12
623 1 10.484 10.6621 -3.20859 20
624 1 11.8054 -3.83751 4.16822 20
625 1 10.2795 5.81092 -10.539 14
626 1 5.31595 0.405477 13.8901 23
627 1 14.3558 3.38984 7.56177 18
628 1 4.69201 -7.99329 15.5825 8
629 1 12.8876 13.1248 2.62198 12
630 1 7.80801 0.376584 5.10624 19
631 1 -0.216982 0.922656 15.5516 20
632 1 14.2329 2.50877 -3.16601 13
633 1 5.87058 2.04731 10.9466 22
634 1 -9.98805 0.730554 -8.79027 22
635 1 13.731 -0.00274922 3.30504 19
636 1 7.00068 -5.31707 3.72448 24
637 1 0.0571978 -7.08021 0.10352 21
638 1 -9.93123 9.56936 9.95152 14
639 1 10.0544 12.2811 10.3792 16
640 1 5.0878 0.0258061 17.0861 16
641 1 3.99373 14.8879 9.56468 13
642 1 3.18077 13.4584 12.6033 15
643 1 4.27441 3.3502 8.2784 21
644 1 1.15588 -16.3625 4.48822 13
645 1 -8.00354 11.7281 -5.17054 25
646 1 13.5214 10.3107 -4.22466 12
647 1 10.5542 -2.75858 -11.7355 13
648 1 -0.569748 17.6369 1.71642 11
649 1 -3.91011 -11.8939 -8.18525 21
650 1 10.6479 -6.12791 -11.0649 17
651 1 -15.3373 6.79316 4.31296 12
652 1 -3.23209 5.24347 -8.98339 22
653 1 -3.88228 -16.6432 -1.7194 17
654 1 -6.53069 1.32325 -9.38386 24
655 1 -11.4032 -0.735712 -3.17167 22
656 1 9.77607 -5.95771 5.32556 23
657 1 12.1212 4.18902 5.70893 24
658 1 4.12273 -8.81513 8.10048 23
659 1 -14.7167 -0.118187 -8.69452 16
660 1 0.635028 2.02288 1.26595 21
661 1 3.82635 -3.09043 -18.0516 12
662 1 2.71629 -2.23128 7.26359 21
663 1 -5.42974 7.393 14.7038 20
664 1 5.10702 6.47623 -12.3208 24
665 1 13.643 -0.40799 11.5619 12
666 1 6.84423 5.95752 -6.43638 19
667 1 4.44163 -0.683296 0.902456 22
668 1 9.26974 8.74087 2.79468 21
669 1 4.59946 -14.4752 -7.86569 14
670 1 -9.76847 -0.479293 12.1248 15
671 1 10.7415 -0.950778 4.24375 25
672 1 0.183142 9.9592 15.8815 15
673 1 3.84943 10.1597 -9.20323 21
674 1 -11.9593 10.7288 -9.51358 11
675 1 10.1774 10.6053 0.0453813 21
676 1 -4.09658 -15.7042 2.50721 19
677 1 10.8498 -4.41569 -0.366037 22
678 1 10.314 14.2602 4.36091 15
679 1 -2.22362 7.38034 14.5561 25
680 1 -12.7268 -5.72508 -0.819568 15
681 1 -8.16026 -0.911153 -10.9971 23
682 1 8.33151 1.43301 13.0974 20
683 1 -5.60352 -7.66938 13.4135 14
684 1 8.54987 4.23163 13.0291 23
685 1 -6.74185 14.0458 -3.51252 22
686 1 8.13878 3.64387 1.4776 20
687 1 4.34015 -4.30802 1.75827 22
688 1 7.67479 3.57263 4.51425 19
689 1 1.03847 5.36725 -16.0621 17
690 1 -6.38634 1.10761 8.66338 24
691 1 8.86632 -0.960477 -9.69358 21
692 1 -0.585567 -7.47065 -4.55411 25
693 1 13.523 -10.387 -7.98291 12
694 1 6.54584 1.98653 7.61199 22
695 1 4.50445 3.42969 4.91035 23
696 1 -12.1924 1.41168 10.747 13
697 1 10.9585 7.50897 8.44398 20
698 1 -1.42035 -4.3051 13.7411 17
699 1 -2.80617 7.43075 9.86493 25
700 1 -3.38101 -7.38115 -14.4289 20
701 1 -6.03603 2.01572 13.5557 20
702 1 -4.12755 4.3202 -3.08909 22
703 1 4.79018 3.65346 13.3327 19
704 1 -7.60819 -15.7293 6.88269 13
705 1 11.2806 7.75235 -3.0301 23
706 1 5.61377 -11.5912 -5.55185 20
707 1 -3.51374 5.79107 -5.95074 22
708 1 4.98966 7.93389 -1.18815 23
709 1 8.11717 12.244 5.95099 23
710 1 3.00281 -4.45632 -15.1175 23
711 1 -2.2691 -1.63436 5.45921 24
712 1 2.36307 12.306 -3.62526 24
713 1 8.26939 8.56569 -1.82416 22
714 1 1.09593 -5.58619 -2.68409 21
715 1 -6.66168 -11.5731 0.475512 23
716 1 -2.70611 1.29534 -16.3426 21
717 1 -9.80672 14.6939 -2.10441 15
718 1 7.65558 -6.49301 -11.1135 25
719 1 5.16389 4.8537 2.38764 25
720 1 9.43753 10.5773 -9.00063 12
721 1 9.20209 13.9282 -0.17806 19
722 1 -3.83498 4.74225 4.71271 23
723 1 -10.5549 4.70061 1.66826 25
724 1 9.02211 8.53103 -5.17766 22
725 1 13.4253 1.94483 13.9227 10
726 1 10.8967 -0.38061 13.5639 16
727 1 -1.57793 -11.3367 9.72468 23
728 1 -2.146 10.6778 -15.2691 12
729 1 4.32949 11.9669 9.80694 21
730 1 9.33656 -8.51335 -13.1069 12
731 1 1.15064 2.63265 9.16096 23
732 1 7.06565 14.8798 -5.46031 10
733 1 6.44709 10.2019 4.10956 25
734 1 -5.40323 -0.928989 -1.17699 21
735 1 15.6883 -2.77243 -2.01652 12
736 1 7.23598 6.80173 15.0259 13
737 1 -13.6956 0.985048 2.88 23
738 1 2.07092 -15.1757 -1.09805 24
739 1 2.34562 -4.05346 -9.01247 23
740 1 -12.5792 11.1015 2.27789 14
741 1 -1.29448 3.99432 6.91355 25
742 1 5.25589 -7.29898 2.01274 25
743 1 3.02422 9.80922 4.68129 22
744 1 -8.09355 -4.85164 -0.497479 23
745 1 -6.05211 1.65631 16.6643 14
746 1 -3.26661 1.74633 -13.1346 23
747 1 -3.57235 4.85825 -16.3972 15
748 1 4.58531 -13.3199 -2.36318 20
749 1 6.50878 9.10861 -7.2979 22
750 1 3.52576 -5.54337 7.76049 22
751 1 -2.77215 6.753 1.93005 22
752 1 -10.4489 3.46332 8.92789 21
753 1 2.01854 -0.823928 -12.5994 24
754 1 1.2244 -12.3718 11.6158 11
755 1 5.65134 13.5377 3.6744 23
756 1 -5.86544 10.0548 14.8568 11
757 1 -0.505255 -3.6401 -0.20766 20
758 1 -9.1548 -10.0034 -12.3985 11
759 1 -5.98247 -6.01084 -16.2341 10
760 1 -6.72929 -12.6859 -7.78285 20
761 1 -1.47032 16.6673 -4.86999 15
762 1 5.00387 -4.44637 -1.5925 21
763 1 1.94338 0.321103 -1.27418 22
764 1 -4.06807 13.7978 6.94384 15
765 1 3.51867 -10.1485 -8.4364 21
766 1 6.79802 -13.5886 1.62728 14
767 1 3.86227 -10.5616 10.337 18
768 1 14.996 4.34673 -6.46101 11
769 1 3.30063 -15.2338 -4.83668 17
770 1 -7.96097 -0.969242 7.31301 20
771 1 0.190097 1.09676 -6.68716 22
772 1 -6.61256 -16.314 -1.39827 16
773 1 -5.65867 -10.4002 -5.62361 21
774 1 0.417487 -2.33724 -3.1289 22
775 1 -10.0973 0.0696766 5.27236 20
776 1 -5.9213 -18.775 -3.38235 8
777 1 11.6336 6.802 -6.54014 22
778 1 -3.9991 12.8248 1.62072 24
779 1 -4.49777 5.12931 8.13794 25
780 1 -14.4537 7.7954 1.62958 16
781 1 9.6622 -1.21986 -0.383601 24
782 1 -12.7662 1.79857 -10.536 18
783 1 -2.3357 11.1789 -4.11584 22
784 1 7.25716 5.86875 -10.1721 23
785 1 9.0158 12.7267 13.6128 12
786 1 0.636612 -0.884469 4.88481 20
787 1 7.19733 3.12197 -3.28838 22
788 1 -16.2705 1.27263 -6.09434 12
789 1 -9.86303 -7.31842 -12.3642 12
790 1 -1.84742 5.59435 17.2958 12
791 1 2.2711 8.13652 -11.2736 23
792 1 10.5807 11.18 4.78336 19
793 1 -2.58875 -4.79241 9.43369 23
794 1 0.612174 -20.2424 -3.14474 8
795 1 -4.8788 -15.1189 7.72363 16
796 1 -0.180586 -5.85199 11.4504 23
797 1 13.3726 9.58131 7.21859 14
798 1 0.420813 -6.02793 -10.7273 21
799 1 -7.90332 8.56374 -1.82739 20
800 1 6.92792 6.96619 4.06498 23
801 1 -4.42518 -6.78536 7.70817 20
802 1 2.89445 4.64943 -10.6868 23
803 1 -4.17661 -16.7969 -5.35241 16
804 1 0.87398 -16.8422 1.52352 18
805 1 -0.829811 -15.6641 -1.12938 22
806 1 5.82164 3.3451 -11.9913 24
807 1 8.24516 15.1532 2.2377 17
808 1 0.115018 -2.98956 -14.3686 22
809 1 2.83835 1.67411 14.9663 20
810 1 -1.43092 5.97079 -18.495 11
811 1 -12.8134 5.18326 -10.4218 14
812 1 -13.0952 -7.99956 -6.48566 16
813 1 3.31246 13.9256 -6.70553 19
814 1 6.78645 -2.06371 0.480009 23
815 1 0.987397 -6.73055 -14.0373 22
816 1 -9.39647 -10.0727 1.39289 22
817 1 9.53298 5.19228 -4.57186 19
818 1 8.76887 -6.47421 -2.086 24
819 1 -9.19989 6.05409 11.0524 23
820 1 2.23696 -7.93222 2.45111 21
821 1 13.4881 -5.85602 -1.68454 15
822 1 9.72162 -2.31141 10.236 18
823 1 1.89567 8.11536 10.8129 21
824 1 -11.5261 4.35663 11.9834 18
825 1 -4.61073 8.83939 12.3964 21
826 1 -0.295486 -14.4336 9.8439 10
827 1 8.65966 -2.82827 5.55373 24
828 1 7.21524 7.52032 12.0644 19
829 1 -13.3625 -2.68571 -1.3932 16
830 1 6.61468 -5.81299 -4.18755 22
831 1 1.18864 3.56448 -1.66151 22
832 1 -7.54226 13.3642 -8.13434 19
833 1 1.67748 7.6314 2.60955 23
834 1 5.6022 -12.4316 4.25044 17
835 1 3.88671 -1.79189 11.984 23
836 1 -1.64664 15.4919 8.92372 12
837 1 2.33744 -11.0248 6.08689 22
838 1 -10.5343 -3.93457 -2.35905 23
839 1 0.369373 2.58861 12.7056 21
840 1 -14.9598 -5.23217 -6.49112 12
841 1 3.01489 11.1613 14.9953 14
842 1 3.99479 11.1987 1.75238 24
843 1 -13.2205 -10.923 1.94856 10
844 1 -1.56608 -16.6931 4.62888 15
845 1 5.01789 -3.1732 9.43347 23
846 1 10.8813 -5.86635 9.76978 14
847 1 9.38264 5.43528 6.71791 21
848 1 -1.68136 7.63251 -3.895 23
849 1 -1.16237 -11.9493 -11.3638 19
850 1 -4.01756 -0.526331 -10.5711 23
851 1 -2.80412 1.97782 13.6165 19
852 1 -0.0746659 14.0364 2.38864 23
853 1 10.292 2.16571 3.95149 22
854 1 -1.96754 7.08525 -11.5048 22
855 1 -1.52754 12.9023 11.1194 16
856 1 8.16014 7.13662 9.15557 19
857 1 4.07478 -1.96628 -10.1933 22
858 1 -2.59931 -14.5767 -3.37139 26
859 1 -8.58156 2.8612 -7.0008 21
860 1 9.05899 -3.34795 2.34877 22
861 1 5.64831 -5.4363 -13.4631 24
862 1 4.60555 4.8272 16.4296 17
863 1 11.3288 -12.5495 -6.63001 11
864 1 3.33031 4.1361 -13.7996 21
865 1 -4.95837 -8.74742 -8.71883 23
866 1 11.0738 10.3885 -6.58812 17
867 1 12.0588 -2.07035 1.27947 21
868 1 -1.09798 -7.7628 14.1254 13
869 1 -2.10365 -11.1491 -16.7381 9
870 1 -0.878778 -0.3763 -0.680986 25