ITEM: TIMESTEP
849000
ITEM: NUMBER OF ATOMS
2000
ITEM: BOX BOUNDS pp pp pp
-30.0 30.0
-30.0 30.0
-30.0 30.0
ITEM: ATOMS id type x y z Coordination
1 1 -11.3786 5.41959 -11.8084 15
2 1 -11.1465 -8.0351 -9.13905 14
3 1 1.32864 11.6863 12.2128 18
4 1 4.34907 -11.9447 9.64382 12
5 1 -11.0058 5.58672 -3.26402 23
6 1 5.97465 -8.66382 -11.5315 18
7 1 -11.7167 6.13559 -6.39536 17
8 1 0.708517 -1.50074 9.5862 21
9 1 -8.27665 0.783043 -9.89743 18
10 1 -12.5485 -10.5438 8.55871 12
11 1 13.9937 6.99593 -3.84386 15
12 1 -3.09478 1.5274 -4.45277 21
13 1 0.461507 -11.2245 0.481395 21
14 1 -16.0562 -10.5832 3.67478 10
15 1 -2.41258 4.32513 18.3879 13
16 1 8.7424 -4.68416 6.63058 19
17 1 1.45785 2.94353 8.53308 20
18 1 8.46716 -1.20688 1.53504 19
19 1 -0.35308 5.59931 -13.8638 19
20 1 2.78584 0.951966 10.5813 18
21 1 -8.17174 -1.284 -15.5262 10
22 1 -14.366 -2.95727 13.5093 12
23 1 13.4109 3.08709 6.73557 19
24 1 4.01425 7.22757 -17.4192 12
25 1 5.85754 6.15043 -10.2009 23
26 1 10.6723 1.793 6.67133 20
27 1 -6.20707 1.7892 2.04718 20
28 1 -12.6612 7.07395 -8.9156 13
29 1 -2.96409 -2.48055 -8.40496 20
30 1 -10.3023 5.10753 7.43659 23
31 1 6.99941 -12.717 6.0642 14
32 1 4.18741 -1.7513 9.27687 20
33 1 3.26779 -14.0817 -8.64413 16
34 1 7.7343 -8.82534 -1.30821 18
35 1 -7.19797 -13.7511 -6.26478 10
36 1 -11.0039 -4.45949 13.9521 14
37 1 3.87777 -3.5862 -5.44977 20
38 1 -2.18102 -7.45528 -14.0388 19
39 1 4.97993 -8.56245 -14.8363 20
40 1 0.458882 3.09823 -16.5724 16
41 1 -2.00149 7.04307 10.1881 20
42 1 0.897705 -11.5701 9.69911 16
43 1 4.59241 -4.24972 13.9286 15
44 1 -8.94566 -0.0639087 1.19707 20
45 1 -14.0475 -1.9606 8.11933 18
46 1 -7.70641 1.785 -1.15533 20
47 1 -2.88877 12.2487 -3.33561 20
48 1 -6.34574 -14.0962 -9.78587 9
49 1 1.23964 0.307931 -11.5061 22
50 1 4.39177 -4.95131 -10.9109 18
51 1 -1.32633 -6.48788 13.5618 17
52 1 -9.52349 5.33906 -0.00968575 18
53 1 -1.12683 13.2836 -10.5051 13
54 1 -0.327428 16.3828 8.32792 12
55 1 -5.5612 5.33694 -10.5029 21
56 1 -0.526258 11.3942 0.266924 19
57 1 0.975989 -15.3072 -3.38297 17
58 1 9.32688 -5.15237 -8.48672 22
59 1 2.49971 -10.7997 -15.574 14
60 1 -10.0196 10.752 12.5114 9
61 1 -13.3962 -5.86708 -10.3376 11
62 1 7.74753 5.40121 6.86189 22
63 1 -7.67509 9.84166 -3.89272 21
64 1 -9.30018 -10.5145 7.48802 22
65 1 -4.83878 12.3594 9.32441 14
66 1 -11.786 3.18462 -4.88004 20
67 1 -9.13968 7.949 13.8503 13
68 1 0.25399 6.31951 -5.4526 19
69 1 2.49164 6.13882 0.671232 23
70 1 -7.72849 -10.9807 5.11316 23
71 1 2.42304 0.306466 7.51964 22
72 1 5.57932 -15.5685 -7.19596 14
73 1 4.76606 13.0355 14.009 10
74 1 -9.90394 4.84011 -9.27356 22
75 1 -5.05969 8.35687 -12.5978 18
76 1 3.67655 6.37693 12.4499 24
77 1 11.4986 -10.0227 -6.64072 12
78 1 7.5301 -9.70127 4.61689 20
79 1 -14.8871 -2.38019 4.56365 14
80 1 -7.05063 -2.55454 1.72341 21
81 1 4.26263 15.9291 5.54079 16
82 1 4.65718 0.320014 12.7012 21
83 1 -5.00922 -13.7727 5.57673 22
84 1 -10.6162 -3.48429 -0.173432 21
85 1 17.2302 4.08849 9.40856 10
86 1 9.2011 -2.19616 -3.99154 24
87 1 -1.4267 14.3995 5.36541 18
88 1 5.28835 -4.31386 7.54294 21
89 1 -4.74766 -6.00438 4.53421 20
90 1 -3.04842 -6.39888 -8.71158 20
91 1 -5.97179 6.84444 11.2596 21
92 1 -11.3915 12.4766 -4.97135 13
93 1 -3.37049 8.14294 -10.1514 22
94 1 5.90788 -1.77372 -3.99054 21
95 1 5.29951 1.04479 -8.33479 19
96 1 9.80229 9.86211 -8.02541 20
97 1 8.00325 -5.45556 4.2177 19
98 1 6.47529 -9.94892 11.5745 12
99 1 -2.23346 12.3399 -6.49217 21
100 1 -15.5322 8.71617 2.71934 11
101 1 -9.2938 -2.76362 11.4032 21
102 1 -2.81201 9.55946 8.49042 23
103 1 -3.84266 -9.23463 8.77224 20
104 1 7.23119 -3.68854 -5.77222 21
105 1 -8.61135 7.23179 4.32966 20
106 1 -12.5534 -12.814 2.89848 12
107 1 10.2323 -8.45663 -9.24676 19
108 1 3.93748 -1.70519 -10.7835 25
109 1 -5.11386 -2.39735 -14.6668 19
110 1 5.77106 -0.056183 6.94843 21
111 1 -2.4121 9.4138 1.89117 22
112 1 -10.24 6.57232 -14.357 13
113 1 1.51803 11.4467 15.2831 13
114 1 1.04317 11.5054 -2.63197 18
115 1 -15.0037 11.4369 3.37338 8
116 1 3.0902 11.2624 -0.565519 19
117 1 -0.520055 -0.698487 -3.69619 20
118 1 -1.76643 -6.77032 10.3195 21
119 1 12.8459 0.00332857 8.62337 15
120 1 -0.49258 -4.61837 -7.72686 21
121 1 5.3614 -5.36026 -7.98302 21
122 1 -2.92514 -1.25443 6.03732 20
123 1 3.34341 -1.88601 15.6447 14
124 1 -10.3789 -10.0622 -0.89051 22
125 1 6.19086 -4.64971 1.33508 20
126 1 -8.49296 -8.1368 -3.15734 23
127 1 9.66603 -11.5856 0.121065 15
128 1 -5.17829 6.54653 4.93975 20
129 1 5.80092 8.88899 -15.4193 13
130 1 4.81718 18.4183 -2.10344 14
131 1 -8.43218 -9.99246 11.0975 18
132 1 -8.74697 -7.97758 5.57798 24
133 1 -1.3759 3.91396 2.09634 20
134 1 -0.818498 -11.0501 -16.3261 11
135 1 3.01464 3.39272 -4.73466 18
136 1 9.37291 -8.87821 -4.43482 21
137 1 -3.19164 -16.4642 7.86093 11
138 1 -10.8211 -7.33872 -0.694003 23
139 1 15.7603 6.62706 9.14903 9
140 1 7.69804 0.449485 -13.2706 18
141 1 -15.6413 -9.57848 1.19772 13
142 1 12.518 8.79265 4.1304 19
143 1 16.2233 8.44874 -1.58183 7
144 1 -5.41951 4.29838 16.544 17
145 1 5.73081 6.14458 0.276963 21
146 1 -1.47759 11.4695 10.0771 18
147 1 -5.63142 11.5397 -5.60994 21
148 1 -1.25398 -7.91962 -10.8528 22
149 1 6.05712 -12.9972 -12.1315 14
150 1 1.44808 7.70164 -12.7467 19
151 1 7.87005 -4.94081 13.6715 14
152 1 1.67269 -4.54681 -17.4092 12
153 1 -2.96551 7.27606 -5.32589 20
154 1 11.7676 1.07432 -3.22238 21
155 1 -4.97038 9.1764 -7.0137 18
156 1 4.97973 -2.32055 -0.666331 20
157 1 -11.8774 12.6406 -1.40709 13
158 1 5.95181 -1.97741 -12.9044 20
159 1 6.76848 -7.25727 6.17089 22
160 1 -4.62651 4.78912 -7.2756 18
161 1 -3.99872 12.209 6.20877 19
162 1 11.5627 6.65707 -8.48505 22
163 1 1.75758 1.40608 -2.37404 20
164 1 5.34739 13.3262 -13.1999 7
165 1 -6.25101 14.39 -0.584069 18
166 1 12.2829 9.78434 -0.743181 17
167 1 -7.95154 9.64723 -7.03681 21
168 1 -5.03307 13.8955 -7.20292 18
169 1 2.60366 9.00087 -15.1257 16
170 1 -14.4754 -12.3485 0.815521 9
171 1 -13.9241 8.80573 5.70023 13
172 1 -8.48959 -3.52218 -10.0686 21
173 1 -1.92849 -12.9993 -13.8969 14
174 1 8.87814 11.0782 8.24763 18
175 1 0.799994 17.2844 5.38304 17
176 1 -10.1293 -1.63301 -7.45484 21
177 1 -14.6033 10.0091 -0.0496589 14
178 1 16.358 -1.80092 -1.58977 12
179 1 -9.19097 0.777745 -12.8733 20
180 1 4.51842 3.40297 17.3921 16
181 1 6.12054 20.4115 2.3609 5
182 1 1.11837 5.89528 7.35186 21
183 1 0.502485 -8.13026 -17.0693 14
184 1 -7.75257 12.1245 7.95879 14
185 1 -3.52173 14.9421 -1.89694 19
186 1 1.12529 -3.89702 13.9462 17
187 1 -8.5016 -5.33348 0.349989 20
188 1 -5.25469 -12.2721 -12.805 12
189 1 -9.80078 8.61593 -8.94658 21
190 1 0.909686 -9.1936 5.59437 18
191 1 1.90078 -15.9585 -6.57707 12
192 1 -2.64261 15.6479 -8.34883 14
193 1 -11.8224 0.55528 9.49005 19
194 1 3.90769 8.5455 -1.68303 20
195 1 6.70536 10.671 -7.18911 19
196 1 -8.63041 5.42409 16.0406 11
197 1 -0.163884 -8.69105 11.4551 17
198 1 -6.36565 4.37184 0.151319 19
199 1 3.05679 18.8923 4.07624 11
200 1 4.60424 3.21524 7.69682 22
201 1 9.46261 6.07647 18.1972 11
202 1 -7.19969 14.8121 2.57608 14
203 1 11.8915 -8.14004 -4.0436 16
204 1 -7.82203 11.9667 10.9145 11
205 1 -4.53332 1.51189 -7.63034 22
206 1 9.44284 -7.40699 1.62278 19
207 1 -3.44654 -6.25638 7.37194 21
208 1 -14.8039 0.191075 2.03974 12
209 1 -10.6622 -12.8527 0.683525 16
210 1 2.65018 5.98729 15.5757 22
211 1 -16.0902 -3.4831 -1.99447 11
212 1 0.00294865 1.0677 1.18493 22
213 1 -4.96855 -16.3121 -1.87589 14
214 1 -1.49825 -1.28925 3.23184 21
215 1 -6.05263 -3.06794 -3.90596 21
216 1 6.51524 -7.78244 -3.87854 18
217 1 -3.07059 9.08015 5.33627 23
218 1 -7.94925 -0.560614 4.34437 21
219 1 7.60385 13.7151 9.87452 14
220 1 -8.85472 1.99721 -4.26192 20
221 1 -6.82027 8.45706 -9.89101 21
222 1 -13.0981 -2.3686 -6.40356 22
223 1 -5.07018 -6.34042 9.83319 21
224 1 -0.308054 -8.95017 2.54072 19
225 1 1.81673 -12.1114 4.21328 21
226 1 -13.6692 10.6952 -3.38077 11
227 1 17.0263 1.96941 6.97627 13
228 1 7.43447 7.27051 -2.44956 20
229 1 -7.90232 -6.88715 -13.6634 16
230 1 6.66342 -2.59226 4.5665 21
231 1 -3.52859 -3.54627 2.23203 23
232 1 3.8517 -12.7351 6.45807 19
233 1 -2.28062 8.83974 -16.2708 10
234 1 0.954354 -11.7935 -13.0156 18
235 1 7.82971 3.53153 -13.0827 17
236 1 1.62803 5.55482 -18.7708 12
237 1 -7.12569 -2.58371 -6.75686 23
238 1 3.29745 9.31452 -10.2741 21
239 1 -9.68557 -7.48939 13.1227 12
240 1 7.25895 17.7606 0.305054 14
241 1 -11.579 3.02302 13.2352 12
242 1 -6.25864 14.6545 -4.12719 14
243 1 6.15031 0.90096 9.96179 20
244 1 -6.57529 -4.22847 -12.5209 21
245 1 0.743486 11.3294 -5.90985 21
246 1 3.3414 3.32239 -10.2674 20
247 1 -12.281 -10.0808 1.24828 21
248 1 2.22447 3.27653 2.43133 23
249 1 -10.96 7.80252 5.84246 20
250 1 -5.72061 9.56423 6.24438 21
251 1 2.91598 -9.76687 -0.640776 20
252 1 -2.7845 -16.7199 0.837663 15
253 1 9.97167 -12.2636 -5.42281 15
254 1 -0.57955 3.97129 5.42949 20
255 1 -4.82164 -0.508688 3.05011 21
256 1 1.08491 -4.22196 -4.63331 20
257 1 8.00976 7.75409 15.7424 19
258 1 8.12985 7.68258 -7.63881 19
259 1 -0.960374 14.014 -1.39555 20
260 1 -8.8167 2.66617 5.21557 20
261 1 -9.04392 7.48242 -5.32875 22
262 1 1.70426 3.42686 12.1617 22
263 1 2.21365 -15.2561 2.55733 17
264 1 13.6021 -0.530951 -1.14322 21
265 1 3.34746 9.04807 7.3908 21
266 1 -9.87078 13.0499 3.82981 14
267 1 -11.5216 0.307714 -4.99271 21
268 1 2.68234 11.2196 -12.7005 18
269 1 -0.714743 -1.6442 11.8873 23
270 1 4.95726 12.2856 -10.0029 21
271 1 9.14401 -13.9237 -11.0336 11
272 1 -3.88857 -2.54466 -11.357 20
273 1 -1.57276 -14.5298 5.63027 23
274 1 7.61694 -0.200379 -5.89064 20
275 1 -6.75654 -5.53304 7.00529 22
276 1 4.19877 -14.9712 -4.3291 15
277 1 -11.232 -3.957 -9.02444 19
278 1 4.22374 15.7459 -0.823092 21
279 1 -1.34623 -1.85815 -12.5632 20
280 1 1.0905 3.72135 18.3483 14
281 1 15.4623 0.707258 1.02158 18
282 1 -1.09703 -6.20648 2.69226 20
283 1 12.0405 -5.91895 -9.7548 16
284 1 -0.366887 -3.61992 1.05967 19
285 1 -13.5293 -2.5094 -9.39224 17
286 1 -10.0166 2.18123 -7.44892 22
287 1 -7.56475 -13.3339 10.4054 10
288 1 9.77775 0.166406 9.35642 20
289 1 7.33492 -5.00166 9.87924 22
290 1 0.990042 -8.73086 -13.4403 20
291 1 2.00848 -3.70032 7.31173 19
292 1 -0.285569 7.48683 -10.3209 19
293 1 4.67847 8.8111 1.46438 21
294 1 -7.83212 -5.46625 3.82181 22
295 1 1.57762 14.0895 0.637469 23
296 1 -5.6516 -2.99939 14.8944 17
297 1 -9.77099 -7.73539 -6.2565 21
298 1 -5.69288 -7.31957 -7.45831 21
299 1 2.52072 5.20705 -15.2529 21
300 1 -6.88277 -11.217 -10.2856 14
301 1 -5.79365 -10.5705 1.08971 22
302 1 -2.61519 -5.7271 -0.00721403 22
303 1 7.55007 -7.72313 -17.0591 10
304 1 10.353 -4.33498 -12.0535 16
305 1 6.28694 -7.62461 3.09012 18
306 1 12.9395 2.50328 3.65894 18
307 1 -3.77174 -5.26332 -2.92441 20
308 1 -9.48194 -6.34582 7.88897 17
309 1 -5.13423 -13.6384 0.0582221 22
310 1 6.28993 5.64377 19.4306 11
311 1 -8.37265 -13.8568 6.95023 17
312 1 5.74298 -2.17673 -8.28135 21
313 1 -3.54349 -13.8131 2.91423 20
314 1 -1.53321 16.8877 0.118349 15
315 1 8.30391 -2.84303 -14.0973 17
316 1 -7.35692 -4.66299 -15.8486 12
317 1 5.20127 -6.64753 -1.34168 19
318 1 -11.3425 -5.37869 11.0893 19
319 1 2.31625 8.66084 17.0104 16
320 1 4.68769 -11.8971 -6.02355 20
321 1 0.652836 -12.4118 -8.0097 19
322 1 -11.1529 3.13328 -13.6253 13
323 1 6.41283 5.27611 9.87819 19
324 1 -7.07439 3.3413 -8.43676 19
325 1 -2.40825 5.57702 -11.7087 22
326 1 -1.97742 -3.98677 5.01418 17
327 1 6.1053 -15.2172 -9.97401 13
328 1 -8.46939 13.1126 -2.64401 18
329 1 2.23056 11.3609 5.59234 21
330 1 13.5535 -0.55286 3.46447 19
331 1 -9.9264 0.0923414 7.0292 22
332 1 -5.7099 -8.43217 6.12232 22
333 1 -6.1153 9.1655 3.35736 21
334 1 1.39239 -3.15462 -11.3894 20
335 1 13.4326 9.86894 -8.76245 14
336 1 0.967657 -10.8675 -3.08242 22
337 1 -3.80318 -1.62827 13.2702 23
338 1 -15.7899 -4.06246 1.58665 12
339 1 1.05381 -13.4976 -1.24584 26
340 1 -7.09439 4.89223 9.70037 20
341 1 -9.60184 2.52696 9.42335 21
342 1 -15.4126 -1.6071 10.9505 15
343 1 -15.0222 -7.74642 6.10064 13
344 1 13.8975 -4.02807 -1.4352 19
345 1 -10.5305 -8.49567 9.82472 20
346 1 10.9512 -3.44741 -6.35034 22
347 1 11.253 -6.69162 -6.85872 20
348 1 5.55344 18.3581 -4.9339 12
349 1 -0.335871 -6.10932 6.13091 18
350 1 -10.6557 11.6113 -7.85477 12
351 1 0.700627 0.942382 4.64237 22
352 1 10.5035 4.77674 10.4625 16
353 1 -8.884 -3.23358 5.99655 23
354 1 4.94568 -8.46391 -6.63895 22
355 1 -3.5668 12.048 -0.275304 21
356 1 -10.6273 4.82226 3.90688 22
357 1 2.55077 3.28271 5.63594 22
358 1 2.95252 -9.67711 8.07903 21
359 1 9.93463 -7.95972 5.8653 19
360 1 -1.92295 3.89946 8.604 20
361 1 -6.29268 -6.00052 -2.06973 23
362 1 5.01504 -1.6452 2.16848 19
363 1 -1.31748 1.57786 17.1554 17
364 1 -1.84789 13.6182 1.89439 23
365 1 9.68604 10.5938 14.0193 15
366 1 -7.58773 13.0363 -9.01384 13
367 1 -2.69058 -8.12409 -17.1295 11
368 1 -6.40093 -0.287318 -3.67906 23
369 1 5.87725 -11.115 -14.8008 10
370 1 -7.24093 1.91887 8.11179 18
371 1 -14.4288 5.58694 3.65104 15
372 1 -4.75087 -4.98566 -6.13618 22
373 1 -1.11566 9.83952 -4.18629 20
374 1 8.82569 -0.681371 6.38745 20
375 1 -13.6029 -8.9739 -1.36888 17
376 1 8.53755 -8.38159 8.93071 17
377 1 -3.36429 1.59042 0.878968 20
378 1 -8.31179 -6.04642 10.7183 21
379 1 -11.5538 10.5699 3.74379 16
380 1 0.414955 -4.56338 11.2821 22
381 1 6.45851 -12.3007 -8.44467 22
382 1 -6.19384 -1.33703 -9.07804 20
383 1 7.68216 -4.46451 -16.819 10
384 1 4.5552 13.2669 4.65172 19
385 1 -10.9655 2.71673 -1.57593 19
386 1 0.641985 -5.41044 -12.8659 24
387 1 8.01989 11.8708 -10.385 16
388 1 -3.59971 -15.899 -8.14584 11
389 1 -12.428 -9.74913 -6.28682 14
390 1 -4.57676 -8.34209 -0.915838 20
391 1 9.36404 5.1208 14.9867 18
392 1 -3.37613 -1.15109 -2.90004 21
393 1 13.3556 3.15282 -0.759049 23
394 1 -8.02717 3.94081 -11.8886 21
395 1 4.28457 18.3228 1.36419 14
396 1 -14.7549 -1.23297 -4.09514 15
397 1 5.54111 2.62529 1.82886 21
398 1 -8.37029 10.1539 -0.895847 18
399 1 -10.7718 9.29979 -2.85921 20
400 1 -5.71429 3.90807 13.2974 21
401 1 6.86557 2.6758 14.05 20
402 1 13.8642 -1.3403 -7.22158 15
403 1 6.67503 -1.65011 14.468 17
404 1 13.1393 1.56958 -6.33427 18
405 1 -4.70598 -16.2012 -4.82726 12
406 1 5.99664 3.55339 4.70447 21
407 1 -3.26922 4.49103 -0.834364 21
408 1 0.623478 -8.21725 -4.84271 21
409 1 -0.133382 8.40224 5.35779 19
410 1 4.69618 1.02612 -2.82655 22
411 1 -9.0431 4.5083 -5.65855 20
412 1 1.83613 -7.76867 -1.75081 22
413 1 13.2104 2.04928 12.153 13
414 1 -9.34307 -2.04342 -4.24221 21
415 1 -6.63083 -8.40496 2.97061 23
416 1 -7.86376 -4.9909 14.1201 15
417 1 -2.4627 9.36019 -1.37157 21
418 1 -11.8678 -7.35208 -3.92429 22
419 1 7.04865 5.43701 13.3081 19
420 1 -7.95575 7.34162 -2.33796 22
421 1 2.42588 13.9062 -6.06016 23
422 1 5.03054 13.2952 7.65739 19
423 1 -14.8978 -9.40625 -4.21503 11
424 1 -4.89653 -8.07582 -4.08676 23
425 1 -10.8778 0.4425 3.65525 20
426 1 -11.7639 7.79778 -0.641221 18
427 1 4.26958 -9.50093 5.30847 20
428 1 -1.98978 -10.8279 -8.86931 19
429 1 10.1659 8.42678 7.18874 20
430 1 8.56068 9.74474 -13.044 12
431 1 -8.44917 3.52242 -14.9804 13
432 1 0.160293 10.28 -10.7091 20
433 1 -5.75035 6.70772 -4.88198 21
434 1 -4.37531 -10.7113 4.15849 23
435 1 15.5108 7.41966 4.17269 14
436 1 0.657281 8.22391 -17.6288 11
437 1 -5.48923 -1.09841 10.2738 21
438 1 -12.4433 0.63806 0.637732 21
439 1 4.23602 0.15957 -5.71437 20
440 1 -7.07991 5.20536 6.39914 21
441 1 1.67227 -15.0319 5.51562 19
442 1 2.50601 -6.52546 -6.87328 22
443 1 3.36622 -8.17862 -9.34068 20
444 1 3.73718 -1.90609 5.38097 20
445 1 -15.3211 3.06574 5.7621 12
446 1 -15.4576 0.82592 8.71324 14
447 1 -8.8673 10.4354 2.42609 23
448 1 0.804104 -6.84694 0.442717 23
449 1 -6.54979 1.29365 -14.0375 17
450 1 8.67429 -14.9002 -7.54684 12
451 1 -0.231708 -13.1999 -10.8761 15
452 1 -4.62158 -3.51078 8.04221 19
453 1 3.75149 -6.35779 -4.09353 21
454 1 -3.91257 3.39322 -12.8832 21
455 1 9.21112 -12.5835 3.2959 15
456 1 2.16973 8.66957 -4.10629 21
457 1 -9.30522 7.61824 10.8628 21
458 1 -6.84106 0.0820633 16.1805 16
459 1 -12.0457 -3.50609 -12.0172 14
460 1 -2.41803 -8.16581 5.17396 23
461 1 10.9601 -4.69473 12.0707 10
462 1 6.83229 0.298469 3.93914 18
463 1 -2.59396 1.7619 4.34348 20
464 1 2.50755 -0.343214 -8.20589 20
465 1 9.53762 -10.9028 6.91192 11
466 1 -1.08155 6.45989 -2.71605 20
467 1 6.85011 14.5887 -10.1959 10
468 1 -0.747262 1.29501 10.427 21
469 1 2.10332 14.1383 -2.53312 19
470 1 4.66019 -5.06091 4.30925 22
471 1 -4.25051 -11.059 -4.87304 18
472 1 -2.96659 6.61138 16.5681 14
473 1 -4.45168 14.781 4.18336 16
474 1 -9.22126 -11.078 -6.67701 16
475 1 8.22335 14.2684 0.397636 17
476 1 3.33154 5.82466 9.15734 17
477 1 -6.04048 -1.33615 7.06805 19
478 1 -1.98001 -9.09274 -3.4735 20
479 1 -11.7143 2.45262 6.0835 21
480 1 -8.22247 -5.40495 -7.90466 22
481 1 -4.77111 6.96637 8.16649 24
482 1 -5.67454 -11.3757 -7.73903 19
483 1 -2.46436 -4.49992 -13.8243 22
484 1 -1.29825 -11.5781 4.38799 20
485 1 -5.5496 -3.22933 4.62998 19
486 1 14.7647 0.58701 6.08032 17
487 1 -4.38786 -5.49859 13.1743 19
488 1 -11.2098 8.61915 -11.9076 13
489 1 8.40061 4.07303 -3.43352 20
490 1 -5.81643 -13.4694 -3.37079 18
491 1 -0.177922 2.09809 -9.06404 20
492 1 0.9043 16.9433 2.31765 17
493 1 1.53659 8.66582 -7.47838 21
494 1 -3.31806 6.63647 13.3042 22
495 1 -14.1626 -4.70384 -4.53774 21
496 1 -1.06968 17.0504 -3.02851 14
497 1 3.68808 10.8864 -7.15913 18
498 1 -7.43435 -9.6654 -5.3054 22
499 1 2.03547 0.988878 16.8671 15
500 1 1.67798 -12.9484 -4.8402 20
501 1 -1.52142 -4.52859 -10.7232 20
502 1 7.79075 -14.9338 3.66546 11
503 1 -8.24357 12.5054 -5.86481 15
504 1 0.0582473 6.04577 13.7464 21
505 1 9.44955 9.24883 -0.620511 20
506 1 7.91537 8.12299 1.4085 21
507 1 -8.46131 6.54745 -11.8333 22
508 1 1.63391 4.45632 -7.70227 20
509 1 3.13645 -6.56491 6.75671 19
510 1 -15.8622 -6.644 -2.46957 12
511 1 6.70607 3.21083 -1.00309 20
512 1 2.66889 18.0598 7.41888 12
513 1 -3.60821 6.2362 -14.9823 16
514 1 12.5471 6.38414 -0.718581 20
515 1 -0.227273 17.0243 -6.31313 12
516 1 7.31981 -10.2005 1.73035 18
517 1 14.7725 3.20667 -4.11118 16
518 1 1.82372 -0.654547 -17.3842 12
519 1 -2.77266 -11.2846 1.57671 24
520 1 -1.13028 -14.0647 8.69631 15
521 1 3.08666 -9.56234 11.3472 16
522 1 -7.11182 6.41543 -7.68527 21
523 1 -9.79392 -13.4162 3.7342 18
524 1 5.21951 5.42518 -2.81531 21
525 1 -0.526294 -15.0877 -8.60832 13
526 1 7.77629 12.638 5.12325 18
527 1 4.35686 2.39072 -15.4573 18
528 1 -0.0722607 -1.06531 15.2132 19
529 1 -11.4832 5.23383 10.8634 12
530 1 0.37856 -16.2721 0.22533 15
531 1 -12.817 -2.48862 2.53357 22
532 1 14.029 -4.50609 -7.41005 12
533 1 12.7545 -5.2355 -4.29326 19
534 1 0.799136 1.33071 -5.88668 20
535 1 -3.51819 4.21428 -4.32308 22
536 1 2.08269 -10.1172 -6.91936 22
537 1 7.04662 2.94359 -10.5252 23
538 1 8.67243 -2.16253 -8.18703 19
539 1 -7.93507 2.40491 17.4145 12
540 1 5.15383 13.3915 1.45703 20
541 1 -4.02063 -4.87659 -16.4297 14
542 1 3.84493 -6.95382 1.1779 21
543 1 7.05165 -1.24925 -16.3912 13
544 1 -6.92196 -8.50897 8.49533 20
545 1 -6.57821 11.9743 1.23033 21
546 1 -9.2003 -3.31296 -13.4023 17
547 1 -15.1241 2.87722 -0.0712172 11
548 1 -4.66429 -9.24002 -9.56344 21
549 1 -2.67717 -11.7088 6.84549 21
550 1 2.80839 6.49775 -9.63906 22
551 1 12.368 4.651 14.0598 13
552 1 14.5846 7.2559 -7.55487 14
553 1 -7.98486 -12.2287 -0.262229 22
554 1 3.20711 -12.6813 1.25385 20
555 1 -2.57255 -1.76151 -15.7474 15
556 1 -6.40368 9.51947 9.54572 22
557 1 2.50342 -3.68857 -8.37536 24
558 1 0.246786 3.74322 -0.374127 22
559 1 13.3432 -3.82213 3.48206 15
560 1 3.4831 14.4063 -9.07483 13
561 1 8.34367 -14.5598 0.485978 13
562 1 8.07586 -2.60891 -0.82042 23
563 1 12.2505 4.68583 -11.3649 12
564 1 1.95845 8.80402 13.6303 21
565 1 -8.07569 7.60609 7.79148 21
566 1 -4.66188 -3.2455 -0.738166 21
567 1 12.7287 7.09396 9.13337 18
568 1 5.19786 0.76429 15.8433 16
569 1 -1.03997 0.672001 -17.816 13
570 1 -7.52814 -5.71606 -4.97302 22
571 1 -2.72132 -3.95408 11.0393 21
572 1 8.76626 7.56269 9.57489 20
573 1 5.37932 8.82855 -4.64942 23
574 1 -3.03625 10.8971 -11.7594 15
575 1 -0.589614 14.3532 -4.46553 23
576 1 9.77818 -2.2753 14.3108 13
577 1 6.23577 5.29107 -15.8431 16
578 1 2.40387 -7.27411 -15.1456 18
579 1 11.6263 10.0493 9.44839 16
580 1 -12.9546 -4.88149 -1.75255 21
581 1 -5.86211 11.1987 -11.4207 14
582 1 -1.13406 1.23862 7.24965 21
583 1 -14.6796 2.07162 11.5494 11
584 1 -1.56079 9.20336 -7.61558 21
585 1 6.21818 -14.2667 -2.08988 17
586 1 10.212 1.77938 -11.3669 16
587 1 -3.0991 15.3057 -5.06518 16
588 1 -7.16667 -6.8276 -10.8135 23
589 1 2.27615 -14.4061 8.63735 13
590 1 -11.9707 -2.63221 -3.19023 22
591 1 -0.00170287 10.3157 -14.9671 11
592 1 -4.89667 2.13049 -1.87813 20
593 1 -3.5736 9.55935 14.7254 13
594 1 -12.7928 -8.29248 3.37932 22
595 1 7.14705 10.6925 -2.70787 18
596 1 4.05387 -10.9895 -9.52088 20
597 1 5.33056 -6.97169 12.1212 17
598 1 8.14341 0.713982 -3.32691 22
599 1 1.5552 -1.10783 2.62222 20
600 1 -7.7224 4.75354 3.12006 20
601 1 3.35817 6.05799 18.9155 13
602 1 2.85477 17.5044 -7.12268 12
603 1 10.4931 -7.36637 -1.64552 20
604 1 2.90044 8.87373 10.2842 19
605 1 1.80951 2.11632 -19.124 12
606 1 -5.50789 -11.0589 11.7066 12
607 1 -2.58355 0.454002 -10.2524 21
608 1 4.84558 -5.66784 -16.8404 13
609 1 1.75746 13.9687 6.86901 20
610 1 9.16656 5.00622 -10.8196 19
611 1 -1.00244 2.13041 -12.4382 21
612 1 -3.24516 -11.4325 -1.84294 20
613 1 -12.558 0.562621 -8.10182 20
614 1 14.158 5.12472 1.8427 22
615 1 14.9028 -0.26282 -4.09454 15
616 1 6.43317 -5.49392 -13.0117 21
617 1 11.5353 7.28955 11.9268 16
618 1 3.83535 -9.58156 -3.86405 21
619 1 4.82626 0.592955 -18.4109 12
620 1 6.20062 10.6402 3.21081 19
621 1 -4.33005 3.75013 3.5116 20
622 1 4.25956 10.6782 12.3182 20
623 1 10.644 7.79701 -2.8017 20
624 1 17.2004 -0.290352 4.00244 9
625 1 6.7313 5.7235 -5.75843 20
626 1 5.97222 5.5528 16.3221 23
627 1 11.9295 2.4851 9.55527 19
628 1 3.88816 -4.85447 10.461 19
629 1 11.5117 11.6809 -6.14904 14
630 1 10.51 0.357871 3.68432 21
631 1 0.519383 3.30322 15.363 18
632 1 12.3624 -1.9126 -3.64169 21
633 1 10.7687 7.55466 15.0205 14
634 1 -7.75837 -0.0210164 -6.5057 20
635 1 15.9606 3.61491 4.31242 16
636 1 9.48327 -4.29148 1.38164 18
637 1 -1.22084 -9.06271 -0.676204 20
638 1 -12.1144 7.58362 8.82838 14
639 1 9.2495 8.10862 12.5375 21
640 1 10.2408 2.3885 13.0993 23
641 1 2.19414 11.7124 9.00463 23
642 1 0.17127 14.2494 10.3095 14
643 1 3.09176 8.40425 4.39256 20
644 1 -5.96055 -17.2085 1.56335 13
645 1 -4.59348 6.80659 -1.96418 21
646 1 11.8375 8.42426 -6.07704 21
647 1 11.7821 0.246099 -9.24881 16
648 1 1.55464 17.0826 -0.764438 18
649 1 -2.81866 -9.04602 -6.73226 23
650 1 8.35645 -8.4236 -13.9139 17
651 1 -14.2276 0.36331 5.43784 17
652 1 -9.17188 10.9553 -10.8651 14
653 1 -6.95298 -15.8401 4.45935 16
654 1 -5.8079 1.52635 -11.0325 22
655 1 -14.4798 1.44625 -5.76587 12
656 1 10.1602 -9.7869 3.10184 15
657 1 12.3901 11.0542 2.07761 15
658 1 5.18017 -7.28414 9.10656 22
659 1 -15.0888 -4.57674 -7.82182 12
660 1 4.2572 5.94 2.91015 21
661 1 4.92213 1.22581 -12.5808 22
662 1 3.85327 0.779648 4.32902 20
663 1 -1.72591 1.21213 13.9694 20
664 1 10.0263 13.1182 -8.98234 10
665 1 11.9329 0.595645 15.296 12
666 1 4.64036 3.92951 -7.76151 20
667 1 6.74037 0.405939 -0.37233 20
668 1 6.29239 10.9481 0.102492 17
669 1 0.929401 -9.78183 -10.2012 23
670 1 -11.9423 -1.75488 14.5866 15
671 1 11.7084 -5.13191 6.08678 14
672 1 -1.40548 11.7918 13.5768 10
673 1 5.76287 10.3933 -13.1392 17
674 1 -11.5846 8.99115 -6.17217 17
675 1 9.79091 10.0767 3.04395 24
676 1 -7.90434 -15.0131 -0.931035 13
677 1 12.3142 -6.01091 0.742866 18
678 1 6.94722 15.3416 3.13339 15
679 1 -1.63948 4.19821 11.8016 20
680 1 -13.6376 -7.30139 9.23029 12
681 1 -15.359 -0.604508 -7.81141 11
682 1 8.10747 0.169008 12.3752 22
683 1 -3.3881 -8.74346 12.223 17
684 1 5.08601 7.80638 14.2178 20
685 1 -4.314 11.4725 3.09448 21
686 1 11.0559 4.20219 1.55954 23
687 1 8.03319 -5.73767 -1.10957 20
688 1 9.39753 3.57366 4.59494 21
689 1 4.58372 4.29008 -12.7418 21
690 1 -11.908 -2.39638 5.68931 20
691 1 12.9831 4.81471 -6.39355 21
692 1 -1.70165 -6.26362 -5.40852 21
693 1 11.2478 -8.33463 -12.1367 11
694 1 9.65866 7.12988 4.3989 21
695 1 4.51386 6.08061 6.18911 21
696 1 -6.88281 2.19844 11.2846 20
697 1 8.38527 10.0004 5.58612 21
698 1 -3.59989 -0.613846 16.1002 16
699 1 -2.83098 4.02742 14.9018 21
700 1 -4.20115 -6.68177 -11.6637 21
701 1 -3.71416 1.32992 11.6863 21
702 1 -0.201153 3.42051 -3.63273 19
703 1 7.70178 2.25627 7.5128 19
704 1 -9.86671 -12.5054 9.46424 12
705 1 10.808 11.5822 -3.06296 16
706 1 3.72164 -12.2275 -2.43021 20
707 1 -1.32184 3.5787 -6.61159 22
708 1 5.34806 10.5182 6.19205 21
709 1 9.47856 12.9705 3.17758 14
710 1 4.49453 -2.52724 -17.4733 12
711 1 -1.38236 -3.76814 8.38445 21
712 1 4.58406 15.5747 -4.0867 22
713 1 14.1383 8.3048 1.48506 17
714 1 -0.886911 -3.53735 -2.20405 20
715 1 -7.44956 -8.32843 0.0959191 24
716 1 -0.944157 -5.28226 -16.0854 16
717 1 -4.5194 9.57755 -3.71813 19
718 1 9.46521 -6.04881 -14.6553 15
719 1 7.64233 5.0568 2.43083 19
720 1 14.3741 3.85878 -8.85526 9
721 1 9.71695 14.6782 -2.78387 11
722 1 -3.61594 4.13189 6.47847 22
723 1 -4.50436 6.86552 1.59188 19
724 1 10.1594 6.09981 -5.55755 21
725 1 10.4608 3.02688 16.5603 15
726 1 8.55335 0.675736 15.8046 15
727 1 -2.15793 -11.1422 10.0641 15
728 1 -8.15194 9.27451 -13.3507 14
729 1 3.87864 13.7832 10.7041 17
730 1 3.50129 -7.43463 -12.3419 20
731 1 2.68134 -2.13219 12.0778 21
732 1 5.65914 12.6803 -5.59199 21
733 1 5.40516 11.0445 9.42843 22
734 1 -5.33679 -0.454798 -0.273233 22
735 1 13.6511 -7.15846 -1.58146 12
736 1 6.95166 10.6968 13.9972 19
737 1 -13.8856 -5.10046 7.02469 17
738 1 5.3949 -15.1514 1.39127 17
739 1 -0.37094 -1.39614 -9.18231 22
740 1 -5.88701 11.9311 -2.25769 24
741 1 1.1324 5.76817 4.02216 21
742 1 6.40021 -4.20442 -3.16431 19
743 1 3.00721 11.5239 2.68888 18
744 1 -14.0448 -5.19507 4.21504 18
745 1 -4.79562 1.64181 18.127 12
746 1 -2.25402 3.10512 -15.0271 19
747 1 -5.53499 3.85776 -15.7182 13
748 1 6.2678 -11.9257 -0.177382 17
749 1 8.80484 9.75928 -4.97936 19
750 1 2.57772 -7.10155 3.55354 21
751 1 -2.26504 6.40886 3.68075 22
752 1 -12.4927 -2.18386 11.2617 24
753 1 3.16256 -0.808594 -14.1511 19
754 1 0.74156 -12.1443 6.92483 22
755 1 1.19801 13.777 3.66396 20
756 1 -4.94006 1.03132 14.5896 23
757 1 -2.00588 -1.62086 0.0142119 21
758 1 -6.04439 -9.39369 -12.6597 18
759 1 -8.89801 -9.2816 -11.1956 15
760 1 -2.85386 -12.8302 -6.58914 17
761 1 1.88166 11.6791 -9.27147 20
762 1 8.71055 -6.7559 -11.1607 21
763 1 3.55733 0.822918 0.265925 19
764 1 -12.61 12.7394 1.6144 13
765 1 8.12303 -7.11892 -7.05497 18
766 1 7.15768 -13.7282 -5.0204 19
767 1 2.097 -6.38438 12.5328 16
768 1 15.2349 5.19805 -1.4651 18
769 1 -1.51906 -13.3066 -3.63657 19
770 1 -11.0327 -2.3889 8.55951 19
771 1 -1.89217 0.19799 -6.77266 21
772 1 -9.05259 -10.6959 2.15662 24
773 1 -6.4318 -10.4165 -2.46109 22
774 1 2.79533 -1.42498 -3.44231 19
775 1 -13.6782 0.30704 13.3476 14
776 1 -9.19899 -15.3316 1.51136 12
777 1 13.3442 7.90611 -10.8759 12
778 1 -4.40547 16.2188 1.28878 14
779 1 -4.1615 1.18291 7.91025 20
780 1 -13.1771 5.52107 6.33404 16
781 1 11.7054 -2.08363 1.08857 21
782 1 -10.9606 -0.990933 -10.5806 20
783 1 0.609193 8.45399 -1.03967 22
784 1 6.23618 2.54429 -5.24276 20
785 1 7.74097 13.4662 13.1927 11
786 1 0.210273 -1.58669 6.23665 21
787 1 11.9056 4.62889 -3.42324 20
788 1 -12.8963 3.95135 -8.23531 15
789 1 -13.3944 -6.81998 -6.85523 15
790 1 -0.701696 8.82264 15.3155 18
791 1 4.2728 7.67911 -12.7341 21
792 1 11.1586 11.3718 5.32523 16
793 1 -2.70642 -1.04379 9.13276 20
794 1 3.69444 -10.1174 2.34988 19
795 1 -5.78668 -15.9915 7.376 12
796 1 -0.445549 -9.0485 8.03122 19
797 1 12.2926 10.1035 12.6696 11
798 1 1.32882 -6.13587 -9.9458 23
799 1 -7.48459 7.67663 1.08404 18
800 1 6.48554 7.53708 4.42108 22
801 1 -14.0948 -4.51823 10.4861 12
802 1 11.1106 10.4751 -11.0794 12
803 1 -1.58536 -15.6847 -5.78493 14
804 1 -0.0677798 -13.5498 2.23384 21
805 1 -1.85381 -14.002 -0.151625 21
806 1 5.0442 7.98481 -7.64353 19
807 1 3.66437 15.6992 2.65887 21
808 1 -3.88235 0.218326 -13.5653 22
809 1 1.29784 0.854227 13.0696 19
810 1 -1.71569 5.70128 -17.4233 14
811 1 -11.7928 -0.771226 -13.9011 9
812 1 -10.3197 -0.261695 -1.87994 18
813 1 2.4077 16.9769 -3.92825 20
814 1 10.2459 -0.678876 -1.2114 20
815 1 -4.82976 -7.27048 -14.773 17
816 1 -5.33493 -5.85922 1.04842 22
817 1 9.60847 2.93135 -5.50607 22
818 1 15.0007 -5.55047 1.49684 10
819 1 -8.69049 4.89143 12.6369 18
820 1 6.6497 -10.7078 -3.41667 20
821 1 11.9115 -9.09906 0.68766 14
822 1 11.5325 -0.55378 12.5179 15
823 1 -0.587648 11.5213 6.77072 20
824 1 -10.2053 0.153502 12.4204 22
825 1 -4.1042 4.1505 10.042 22
826 1 -4.39024 -13.3643 8.89841 15
827 1 8.76282 2.26737 1.79471 20
828 1 5.68332 8.30299 17.9611 12
829 1 -14.2505 -6.74431 0.854074 21
830 1 9.24587 -5.63993 -4.43218 22
831 1 1.86985 5.77487 -2.64582 23
832 1 -14.5867 6.65564 0.595196 12
833 1 1.13312 8.69387 2.3009 19
834 1 -0.120987 -16.6104 6.87253 11
835 1 3.79814 3.35616 14.507 21
836 1 -1.01889 11.1543 3.48952 21
837 1 5.32643 -11.9561 3.47731 22
838 1 -7.74841 -2.5358 -1.38837 20
839 1 7.41145 -2.12267 8.78942 20
840 1 -16.117 -6.95974 -5.61553 11
841 1 4.69465 10.9388 15.7595 14
842 1 6.51581 13.5459 -1.81778 18
843 1 -13.6979 -10.6417 5.33982 15
844 1 -3.64758 -16.5726 4.41497 15
845 1 10.4644 -5.94461 9.21262 15
846 1 12.3579 -7.18891 3.4173 14
847 1 8.45191 10.7142 10.8416 20
848 1 -1.16593 6.48269 0.572677 21
849 1 -0.154974 -8.03227 -7.86926 23
850 1 0.682258 4.1355 -11.0023 19
851 1 -7.07094 -0.537095 12.8334 20
852 1 -2.15639 16.9264 3.29787 13
853 1 11.9892 1.15005 0.884764 19
854 1 3.30324 6.25916 -5.53852 21
855 1 -5.96904 7.19975 14.6576 15
856 1 6.24279 8.23375 11.1085 22
857 1 7.04711 -0.463517 -10.5116 20
858 1 -6.84593 -13.0512 2.80954 20
859 1 -4.44237 -0.98812 -5.96551 21
860 1 11.9195 -1.84517 6.15571 17
861 1 -0.246664 0.660732 -14.6992 23
862 1 0.893004 6.09098 10.5127 20
863 1 8.78813 -10.9789 -12.7244 14
864 1 7.12829 6.80759 -13.2038 19
865 1 -0.652519 -6.33459 -2.43722 21
866 1 11.8878 -2.91749 -9.39984 16
867 1 15.1983 -1.99316 1.69575 14
868 1 -2.18453 -3.66202 14.7992 15
869 1 -7.98603 -8.94238 -8.48965 21
870 1 1.23167 -1.36167 -0.942305 21
871 1 7.15594 16.5136 -2.41842 18