ITEM: TIMESTEP
861000
ITEM: NUMBER OF ATOMS
2000
ITEM: BOX BOUNDS pp pp pp
-30.0 30.0
-30.0 30.0
-30.0 30.0
ITEM: ATOMS id type x y z Coordination
1 1 -11.72 5.32026 -11.2451 14
2 1 -11.2942 -7.95796 -9.3438 13
3 1 1.4885 11.4839 12.6974 17
4 1 4.58772 -12.2939 9.71068 11
5 1 -10.8703 5.78423 -2.85735 21
6 1 5.53018 -8.96609 -11.6542 21
7 1 -11.9744 6.11339 -5.63746 16
8 1 0.884723 -1.21838 9.6768 22
9 1 -8.34421 1.06324 -10.043 22
10 1 -12.1931 -11.1146 8.86209 11
11 1 13.5368 6.83432 -3.87449 16
12 1 -2.94415 1.68406 -4.58634 20
13 1 0.957399 -10.6247 0.56106 23
14 1 -15.096 -9.8851 2.83121 16
15 1 -2.59582 4.0459 18.3647 15
16 1 8.70389 -4.5586 6.97224 19
17 1 1.36216 2.99811 9.1345 21
18 1 8.50794 -0.920807 2.10958 20
19 1 -0.566025 5.45515 -14.5094 20
20 1 2.8779 0.797576 10.8437 23
21 1 -8.02084 -1.00953 -15.257 14
22 1 -14.367 -3.49733 13.2239 10
23 1 13.8452 3.60615 6.34612 22
24 1 4.51991 6.27035 -17.5751 12
25 1 6.39569 5.93597 -10.2322 20
26 1 11.192 2.25489 7.12421 19
27 1 -6.12758 1.433 2.02018 21
28 1 -12.508 7.17841 -8.47146 12
29 1 -3.31618 -3.02211 -8.39367 21
30 1 -10.1963 5.1292 7.19969 23
31 1 7.34503 -12.758 5.62634 15
32 1 3.95225 -1.79822 9.15253 22
33 1 4.03991 -14.168 -8.38677 16
34 1 7.97371 -9.30955 -0.562304 20
35 1 -6.66793 -12.9522 -6.0984 12
36 1 -10.8601 -5.34108 13.8305 10
37 1 3.88343 -3.82451 -5.9853 22
38 1 -2.5141 -7.29314 -14.349 17
39 1 4.39954 -7.19959 -13.8431 19
40 1 0.721955 3.16028 -16.3869 18
41 1 -3.25167 6.7954 10.3419 23
42 1 1.13316 -11.9014 9.98706 16
43 1 4.66984 -4.2622 14.0971 15
44 1 -8.8899 -0.183686 1.53255 21
45 1 -13.9037 -1.75454 8.03591 19
46 1 -7.31619 1.88354 -1.07391 23
47 1 -2.7395 12.2192 -3.37475 20
48 1 -5.44954 -13.992 -9.7673 11
49 1 1.02768 -0.0442257 -11.4028 23
50 1 4.00338 -5.31624 -11.359 25
51 1 -0.799667 -6.27819 13.1094 17
52 1 -9.12329 5.6336 0.0921539 18
53 1 -1.14858 13.1286 -9.83531 15
54 1 -0.245394 16.521 8.67477 13
55 1 -5.21951 5.37066 -10.5129 21
56 1 0.159205 11.3991 0.775016 19
57 1 0.788487 -15.8545 -3.50301 15
58 1 9.06464 -5.11655 -8.84502 22
59 1 1.38062 -11.1471 -16.49 10
60 1 -10.127 10.6519 12.6581 9
61 1 -14.1077 -5.739 -10.444 10
62 1 7.38011 5.25432 6.48302 18
63 1 -8.49336 10.8949 -4.15445 20
64 1 -8.99987 -11.0256 7.63192 20
65 1 -5.26872 12.3151 9.46467 14
66 1 -11.9114 2.94743 -4.80556 19
67 1 -9.65799 7.66742 13.5428 12
68 1 0.0588741 6.55717 -5.19858 20
69 1 2.07153 5.91347 0.879109 21
70 1 -7.52008 -10.7236 5.01758 23
71 1 2.61862 0.70192 7.63892 24
72 1 5.72223 -16.1272 -6.9413 12
73 1 3.68037 12.9802 14.2147 13
74 1 -9.83293 5.21977 -8.66283 23
75 1 -4.6815 8.46977 -12.2204 17
76 1 3.59812 6.41472 12.7264 20
77 1 11.0988 -9.7053 -6.66272 14
78 1 7.276 -9.79875 5.12533 20
79 1 -14.8913 -2.24775 4.80381 13
80 1 -6.68867 -2.67517 2.07837 21
81 1 3.73426 15.5328 5.66183 20
82 1 4.92533 0.874155 12.894 20
83 1 -4.82384 -13.6416 5.57028 20
84 1 -10.4538 -2.83702 -0.212286 23
85 1 15.9597 4.8652 8.24902 15
86 1 8.88092 -2.47708 -3.67925 22
87 1 -1.47141 14.2735 5.82947 20
88 1 5.37382 -4.18788 7.16283 21
89 1 -4.52021 -6.00719 4.54427 23
90 1 -3.51248 -6.08394 -8.54953 21
91 1 -6.1624 6.65156 11.4277 21
92 1 -11.0404 12.2453 -4.78069 14
93 1 -3.3495 7.92421 -9.52559 20
94 1 5.84034 -1.94206 -3.86213 20
95 1 5.27227 0.684281 -8.42263 19
96 1 10.2132 9.72791 -8.573 22
97 1 7.87801 -5.50067 4.28672 18
98 1 6.7304 -9.86588 11.2276 11
99 1 -2.20538 12.1908 -6.38114 21
100 1 -14.6412 8.46628 1.50834 14
101 1 -9.19251 -3.04149 11.9278 22
102 1 -3.64318 9.47202 8.44896 20
103 1 -3.48055 -8.89644 8.87504 22
104 1 6.75314 -4.1135 -5.95449 19
105 1 -8.51412 7.47236 4.48352 21
106 1 -12.3591 -12.5278 2.95837 14
107 1 9.52092 -8.34081 -9.23856 18
108 1 3.74918 -1.36067 -11.0348 21
109 1 -5.3368 -2.16376 -14.8866 17
110 1 5.53695 -0.121895 6.86236 18
111 1 -2.38124 9.6242 1.82889 19
112 1 -9.72732 6.42495 -13.6521 13
113 1 0.878133 11.4048 15.8811 13
114 1 0.867828 11.6414 -2.67449 21
115 1 -14.7072 11.3655 1.8388 10
116 1 3.12221 11.2933 -0.629812 22
117 1 -0.600044 -0.367032 -3.882 19
118 1 -1.49056 -6.61701 9.94751 19
119 1 12.6322 0.0982713 8.37958 17
120 1 -0.463584 -4.64224 -7.69096 23
121 1 5.12855 -5.2873 -8.45839 22
122 1 -2.85682 -0.89662 6.36046 19
123 1 3.51166 -1.31441 14.915 17
124 1 -9.84217 -10.0689 -1.20781 20
125 1 5.96943 -4.93306 1.26908 21
126 1 -8.49433 -8.04588 -3.15371 22
127 1 9.86177 -11.7304 0.403997 15
128 1 -5.35843 6.74079 4.75337 19
129 1 6.73704 8.56897 -16.2017 10
130 1 4.8123 18.4462 -1.6266 14
131 1 -8.2974 -10.7609 11.1907 14
132 1 -8.60319 -7.83634 6.06798 24
133 1 -1.08772 4.02612 2.14899 22
134 1 -1.59087 -11.1666 -16.6987 11
135 1 2.98738 3.73045 -4.82525 20
136 1 9.16949 -9.44566 -4.08206 19
137 1 -2.98844 -16.822 8.08404 10
138 1 -10.6287 -7.49431 -0.831731 21
139 1 16.1368 7.52298 8.50779 7
140 1 8.15725 -0.361885 -13.9306 17
141 1 -16.1121 -9.2772 -0.093622 10
142 1 12.1516 8.90195 4.11487 20
143 1 15.1676 8.59715 -1.90514 11
144 1 -5.50785 4.3606 16.0144 20
145 1 5.55976 6.51966 -0.29347 22
146 1 -2.09197 11.3217 10.4465 16
147 1 -5.25239 12.0465 -5.33226 22
148 1 -1.54327 -7.56194 -10.6981 23
149 1 5.80651 -12.6755 -12.0287 14
150 1 1.58974 7.7046 -12.7739 24
151 1 7.68453 -4.17038 13.1658 16
152 1 1.87221 -5.02764 -17.204 14
153 1 -3.15494 7.05136 -5.97905 21
154 1 11.92 1.28278 -3.33455 23
155 1 -4.69497 9.45903 -6.88794 20
156 1 4.5874 -2.41576 -0.656498 20
157 1 -11.8099 13.4228 -1.43742 11
158 1 6.01564 -2.3348 -13.814 22
159 1 6.75056 -7.31568 6.51284 20
160 1 -4.81982 4.87655 -7.24195 20
161 1 -4.00819 12.5828 6.49903 17
162 1 10.8141 6.33478 -8.69921 21
163 1 1.57644 1.53206 -2.48169 21
164 1 6.31438 12.6186 -12.5882 11
165 1 -6.31113 14.8996 -0.525401 18
166 1 11.8925 9.6509 -0.444809 18
167 1 -7.86285 10.1606 -7.43662 21
168 1 -5.63899 14.7513 -7.11481 14
169 1 3.49158 9.35697 -15.1201 15
170 1 -14.1143 -11.7928 0.694616 12
171 1 -13.7972 8.80512 4.72609 15
172 1 -8.76135 -2.7755 -9.93207 22
173 1 -1.78937 -12.268 -14.2878 14
174 1 8.65114 10.984 8.66702 17
175 1 -0.1176 16.6852 5.84349 14
176 1 -10.0964 -0.905558 -7.36486 23
177 1 -15.0506 9.42163 -0.974655 10
178 1 16.0653 -1.38952 -1.81172 13
179 1 -8.99958 0.952335 -13.034 19
180 1 4.02517 3.71281 17.4497 19
181 1 6.74678 19.5259 3.26045 6
182 1 1.21579 5.98613 7.47719 20
183 1 0.179239 -8.43449 -17.9814 10
184 1 -8.07104 11.8746 7.75906 16
185 1 -3.59517 15.8119 -1.85774 16
186 1 1.52469 -4.05979 14.3342 16
187 1 -8.5633 -5.27188 0.555755 22
188 1 -4.58198 -12.3352 -12.6988 13
189 1 -9.59966 8.53856 -8.62392 22
190 1 0.989697 -9.23442 5.62385 22
191 1 2.22579 -16.258 -6.50197 12
192 1 -2.48169 15.1504 -8.21794 15
193 1 -11.5735 0.142094 9.59022 20
194 1 3.87413 8.31718 -2.03193 20
195 1 7.18377 10.5358 -7.62226 19
196 1 -8.68231 5.12761 15.5046 13
197 1 0.243149 -8.77897 11.328 17
198 1 -6.11962 4.57581 0.5971 22
199 1 3.73494 18.7056 4.47082 11
200 1 4.38696 3.13855 8.1154 20
201 1 9.93497 5.86525 17.685 10
202 1 -7.38259 15.2124 2.68001 12
203 1 12.4607 -8.15458 -4.17018 14
204 1 -8.23881 12.2441 11.0626 11
205 1 -4.46588 1.8128 -7.44109 21
206 1 8.99885 -7.46742 1.8401 19
207 1 -3.50741 -5.86364 7.43911 20
208 1 -14.4284 0.426372 2.1655 13
209 1 -10.5606 -12.7679 0.411797 15
210 1 2.38958 5.91921 15.6741 22
211 1 -15.8813 -4.79369 -0.493064 11
212 1 0.107315 1.01649 1.53757 20
213 1 -4.6761 -16.2847 -1.82612 14
214 1 -1.2805 -1.20278 3.78115 20
215 1 -5.8037 -2.97331 -3.55045 19
216 1 6.78568 -7.82592 -3.4921 19
217 1 -3.47662 9.09425 5.19472 21
218 1 -7.35821 -0.831674 4.33169 20
219 1 6.77977 13.3552 9.63651 15
220 1 -8.77546 2.17707 -4.07022 21
221 1 -5.9633 8.95784 -9.79984 21
222 1 -12.9127 -2.5991 -6.39691 23
223 1 -4.88318 -6.09274 10.2597 21
224 1 -0.249922 -8.86048 2.75649 20
225 1 2.21716 -11.7451 4.17534 22
226 1 -13.229 10.9704 -3.67214 12
227 1 16.8578 1.97079 6.95639 13
228 1 7.20767 7.29443 -2.83277 21
229 1 -8.39464 -6.91659 -13.9865 13
230 1 6.71545 -2.18529 4.95453 22
231 1 -3.66858 -3.39584 2.7709 23
232 1 4.04464 -12.8124 6.68324 21
233 1 -2.06386 8.36554 -16.811 9
234 1 1.51328 -12.8446 -14.3156 12
235 1 7.39281 3.13399 -13.3599 15
236 1 2.43355 4.90962 -18.8513 9
237 1 -7.31442 -2.63845 -6.84544 20
238 1 3.05704 8.76064 -10.4495 23
239 1 -9.62963 -8.20601 12.4291 13
240 1 6.10868 16.9134 1.27145 17
241 1 -10.9871 2.93737 13.5575 15
242 1 -5.96939 14.7134 -3.90153 16
243 1 6.0928 0.79399 9.56129 23
244 1 -6.86062 -4.18672 -12.4283 21
245 1 0.683377 11.3677 -5.7069 21
246 1 2.68148 2.3944 -9.8688 22
247 1 -11.675 -9.95356 1.27383 22
248 1 2.21642 3.24434 2.36299 24
249 1 -10.9208 8.23214 5.91153 20
250 1 -5.98825 9.868 6.40826 23
251 1 3.40599 -10.1745 -0.91716 20
252 1 -2.71161 -16.6307 0.771283 15
253 1 9.76284 -12.716 -4.95804 14
254 1 -0.990977 4.45181 5.63251 20
255 1 -4.39547 -0.510211 3.20724 20
256 1 1.07953 -4.23672 -4.51766 19
257 1 7.9628 7.81544 16.4948 15
258 1 7.9764 7.6817 -7.8067 22
259 1 -0.718593 13.9508 -1.34056 20
260 1 -8.70186 2.50205 4.79743 21
261 1 -8.87472 7.81134 -5.13097 23
262 1 1.54952 3.75387 12.154 21
263 1 2.28961 -15.4628 2.44238 14
264 1 13.5265 -0.39751 -0.981789 23
265 1 3.4601 8.54594 7.99082 22
266 1 -9.6508 13.2866 3.28075 14
267 1 -11.3249 0.352256 -4.95012 23
268 1 3.11341 10.9903 -12.6715 18
269 1 -0.611985 -1.6963 12.3622 21
270 1 5.08781 11.2704 -9.97767 21
271 1 9.03511 -13.7684 -10.9458 9
272 1 -4.00759 -2.97693 -11.7828 21
273 1 -1.64279 -14.5408 5.37728 20
274 1 6.98142 -0.669235 -6.19787 19
275 1 -6.61282 -5.45012 7.30256 25
276 1 3.99801 -14.6992 -4.36695 16
277 1 -11.6239 -3.7982 -8.96394 24
278 1 4.55848 15.471 -0.640787 19
279 1 -1.48385 -1.57122 -12.4888 18
280 1 0.747887 3.52127 18.7805 13
281 1 15.4231 1.26185 1.40251 17
282 1 -1.7419 -6.03771 3.27871 20
283 1 12.1624 -6.87859 -9.9014 12
284 1 -0.603903 -3.3133 1.69193 21
285 1 -13.9113 -2.22312 -9.5571 16
286 1 -9.78029 2.44822 -7.53507 23
287 1 -6.78259 -13.7458 9.90975 13
288 1 9.68509 0.0571468 9.50105 19
289 1 7.12143 -5.00602 9.87706 21
290 1 -0.244487 -9.19791 -13.4834 18
291 1 1.78624 -3.8663 7.63618 20
292 1 0.280475 7.91771 -10.549 19
293 1 4.0243 8.59557 1.39172 22
294 1 -7.66345 -5.3739 3.79671 22
295 1 1.83314 13.8142 0.973398 18
296 1 -5.66505 -3.01884 15.2467 15
297 1 -10.0104 -7.33772 -6.38139 19
298 1 -6.07088 -7.11443 -7.56217 23
299 1 2.67032 5.31658 -14.8438 21
300 1 -6.78235 -11.2164 -10.9132 14
301 1 -5.13189 -10.942 0.759263 19
302 1 -2.60657 -5.46055 0.261122 22
303 1 6.51152 -8.60285 -16.9076 10
304 1 10.3507 -4.99861 -11.7857 16
305 1 5.91191 -7.43402 2.22936 18
306 1 12.5309 2.79474 3.74984 20
307 1 -3.7993 -5.20507 -3.05934 21
308 1 -9.91072 -5.68018 8.20348 23
309 1 -4.90448 -13.67 -0.0478401 23
310 1 6.49186 5.67626 18.7316 12
311 1 -7.77816 -13.8742 6.60696 18
312 1 5.53681 -2.13207 -8.59049 19
313 1 -3.62641 -13.91 2.89587 23
314 1 -1.23893 16.7715 0.448719 14
315 1 8.64916 -3.64427 -13.9107 17
316 1 -7.08965 -4.47729 -15.5932 15
317 1 4.75302 -6.71686 -1.21126 18
318 1 -11.4818 -6.0634 10.5975 16
319 1 1.67144 8.59684 17.6659 15
320 1 4.82802 -11.8522 -5.88129 21
321 1 0.870141 -12.5446 -8.11323 21
322 1 -11.8832 2.39476 -13.5439 9
323 1 6.47559 5.17052 9.46893 23
324 1 -7.06497 3.74332 -8.43577 23
325 1 -2.04672 5.81223 -12.1133 21
326 1 -1.57417 -3.84394 5.67165 22
327 1 6.15627 -15.1539 -10.2661 12
328 1 -8.66622 13.6793 -2.43295 16
329 1 1.63781 11.1657 5.7989 22
330 1 13.1363 -0.633026 3.45563 21
331 1 -9.82716 0.0320035 6.9658 21
332 1 -5.2688 -8.51764 6.30662 21
333 1 -6.18675 9.39497 3.07818 21
334 1 0.973827 -3.57321 -11.6511 22
335 1 13.1756 10.4127 -8.68986 11
336 1 -0.0261652 -10.846 -2.71882 23
337 1 -3.68218 -1.30518 13.2944 21
338 1 -14.2439 -4.38931 1.7715 18
339 1 1.12104 -13.3749 -1.36893 23
340 1 -7.81118 5.27895 9.30588 22
341 1 -9.93582 2.52478 9.66661 20
342 1 -15.2652 -1.13208 10.9555 15
343 1 -15.0071 -7.86412 5.60917 12
344 1 14.0254 -3.32354 -1.47813 19
345 1 -9.8546 -8.80572 9.35319 20
346 1 10.3073 -3.70592 -5.90906 22
347 1 11.1217 -6.51486 -6.73729 19
348 1 5.57026 18.1396 -4.66768 12
349 1 -0.142269 -6.58706 6.49788 21
350 1 -10.4857 12.0427 -8.22353 11
351 1 0.289075 1.53765 4.78011 21
352 1 9.57576 4.82315 8.94596 20
353 1 -8.75756 -3.03927 6.29532 23
354 1 4.99983 -8.25266 -6.32526 20
355 1 -3.39511 12.4691 -0.0751983 22
356 1 -10.403 4.84619 4.07424 21
357 1 2.31227 3.34755 5.75308 21
358 1 2.61607 -9.96444 8.52217 24
359 1 10.0423 -7.44548 6.63574 16
360 1 -2.00151 4.06786 8.71553 20
361 1 -6.46962 -5.71094 -1.86139 20
362 1 5.24683 -1.48917 2.21334 18
363 1 -1.17709 1.22998 17.3052 16
364 1 -1.63659 13.9225 2.01195 19
365 1 9.23796 10.4279 14.6734 12
366 1 -7.52831 13.2654 -9.19651 13
367 1 -2.96925 -8.3082 -17.4237 11
368 1 -6.44528 -0.176634 -3.25285 20
369 1 4.28362 -10.6297 -15.1075 14
370 1 -7.25652 2.00556 7.68853 20
371 1 -13.5927 5.62837 3.21763 20
372 1 -4.93629 -4.85445 -5.93494 23
373 1 -1.28306 9.6359 -4.44169 20
374 1 9.12671 -0.15632 6.62148 21
375 1 -13.2287 -9.21965 -1.29693 20
376 1 8.28152 -8.18173 8.89655 18
377 1 -3.25293 1.81436 1.03332 21
378 1 -7.99816 -5.94243 10.5225 26
379 1 -12.1797 10.9032 3.92524 15
380 1 0.702089 -4.33087 11.429 24
381 1 6.98799 -13.0411 -8.14451 20
382 1 -5.685 -0.893119 -9.34501 22
383 1 7.29773 -5.07694 -16.6646 14
384 1 4.43888 12.9763 4.47469 20
385 1 -10.5307 2.97824 -1.57663 21
386 1 0.0280545 -5.75206 -13.1787 22
387 1 8.34769 11.0756 -11.0707 19
388 1 -2.68056 -15.4529 -8.81809 11
389 1 -12.4101 -9.27995 -7.04082 14
390 1 -4.32329 -8.44441 -1.19418 22
391 1 9.16635 6.07269 14.3573 21
392 1 -3.40106 -1.1121 -2.83832 20
393 1 13.5909 2.93793 -1.20722 21
394 1 -7.93146 3.41472 -11.5776 22
395 1 3.96111 19.097 1.38714 14
396 1 -14.7211 -1.54969 -3.91265 13
397 1 5.30844 2.5217 2.044 19
398 1 -8.83553 10.731 -0.911044 21
399 1 -10.4275 9.44271 -2.86879 21
400 1 -5.64741 3.7441 13.3579 22
401 1 7.1686 3.05328 14.0991 19
402 1 13.5794 -1.46093 -7.11062 13
403 1 6.65496 -1.32496 14.5897 16
404 1 12.7182 1.37605 -6.14598 17
405 1 -4.6191 -15.6517 -5.26217 10
406 1 5.44081 3.49536 4.6516 21
407 1 -2.52276 4.72126 -0.752727 19
408 1 0.616971 -8.37576 -4.71617 21
409 1 0.0966361 8.44867 5.78055 21
410 1 4.97851 1.52877 -3.06797 22
411 1 -8.42802 5.09315 -5.79576 21
412 1 1.31994 -8.15372 -1.8252 26
413 1 13.8398 2.70395 12.3326 12
414 1 -8.94995 -1.97987 -4.09127 19
415 1 -6.52018 -8.14642 3.25358 22
416 1 -7.75621 -5.5693 13.8719 15
417 1 -1.98502 9.55258 -1.17983 19
418 1 -11.5193 -6.90157 -3.65463 20
419 1 7.26334 6.00879 12.3345 18
420 1 -7.10582 8.3849 -2.21396 18
421 1 2.72121 14.0803 -5.3868 20
422 1 4.71124 13.0183 7.53469 24
423 1 -14.5265 -9.57839 -4.60055 9
424 1 -5.26551 -7.84391 -3.9955 22
425 1 -11.0794 0.0138645 3.6241 23
426 1 -10.206 8.22971 -0.446923 21
427 1 4.02868 -9.54842 5.63318 24
428 1 -1.98275 -10.4658 -9.27034 18
429 1 10.2122 8.60098 7.02342 20
430 1 8.70662 9.75674 -13.7775 13
431 1 -8.45321 3.56348 -15.1231 11
432 1 0.48036 10.7664 -11.9985 16
433 1 -5.74057 6.73154 -4.73919 19
434 1 -4.60055 -10.7289 4.21557 23
435 1 15.4872 7.20045 3.62437 15
436 1 1.23179 7.1582 -16.7034 15
437 1 -5.33522 -0.725003 10.6744 20
438 1 -11.9304 0.732324 0.690806 21
439 1 3.69199 0.678674 -5.02806 19
440 1 -7.32877 5.20858 6.08479 25
441 1 1.84808 -14.8688 5.49681 18
442 1 2.08268 -6.23886 -6.71701 20
443 1 3.59216 -8.08715 -9.28799 24
444 1 3.44771 -1.79834 5.13864 19
445 1 -14.8768 3.5095 6.09626 12
446 1 -15.0193 1.4747 8.81825 12
447 1 -9.30277 10.1307 2.03975 21
448 1 0.581895 -6.28701 0.81309 23
449 1 -6.1294 1.25764 -14.375 20
450 1 8.56641 -14.972 -7.53691 12
451 1 0.0684515 -11.7404 -11.7586 17
452 1 -4.40246 -2.99991 8.66577 19
453 1 3.41758 -6.33733 -4.00821 21
454 1 -3.84289 3.60391 -13.0562 20
455 1 9.97574 -13.5636 3.25859 11
456 1 1.85845 8.80278 -4.15385 22
457 1 -9.66947 7.69484 10.6483 20
458 1 -6.54227 -0.359644 16.4374 15
459 1 -12.4659 -3.4032 -12.0146 15
460 1 -2.43621 -8.34734 5.28572 24
461 1 10.9598 -4.62264 11.9941 10
462 1 7.04625 0.542603 4.23772 21
463 1 -2.82849 2.10442 4.22018 21
464 1 2.48802 -0.18394 -8.37323 22
465 1 9.26563 -10.668 6.89512 11
466 1 -1.35299 6.79615 -2.66821 20
467 1 6.72694 14.0053 -9.60795 12
468 1 -0.555641 1.79797 10.4979 24
469 1 2.18876 14.1455 -2.26032 21
470 1 4.75066 -4.90995 4.47518 19
471 1 -4.03952 -11.106 -4.86671 23
472 1 -3.38034 6.70725 16.4277 16
473 1 -4.12935 15.0342 4.27393 13
474 1 -9.54989 -10.3718 -5.70947 14
475 1 8.74498 15.226 0.902464 11
476 1 3.29197 5.68189 9.60944 21
477 1 -6.49764 -0.836692 7.69167 20
478 1 -2.1077 -8.78595 -3.63794 20
479 1 -11.4724 2.14772 6.0014 18
480 1 -8.45401 -5.29282 -8.41545 19
481 1 -5.28618 6.87533 8.11245 22
482 1 -5.26289 -11.4601 -7.88216 17
483 1 -3.03927 -4.27648 -14.1129 20
484 1 -1.14017 -11.5628 4.40271 22
485 1 -5.46888 -2.97672 5.48011 20
486 1 14.7744 -0.53117 6.82351 13
487 1 -4.31585 -5.39666 13.4916 15
488 1 -11.3829 8.66091 -11.5461 11
489 1 8.12234 3.96913 -3.42762 23
490 1 -6.34739 -13.6891 -3.11132 16
491 1 -0.368282 1.71181 -9.1321 19
492 1 1.35759 16.8341 2.55112 17
493 1 1.71693 8.52812 -7.54775 23
494 1 -3.88374 6.81945 13.5979 23
495 1 -13.8566 -4.62365 -4.25617 19
496 1 -0.213521 16.2233 -2.8832 18
497 1 3.83021 11.262 -6.96231 20
498 1 -7.19362 -9.72182 -5.73639 20
499 1 2.30471 1.01184 16.9232 15
500 1 1.7598 -11.9365 -4.69403 22
501 1 -1.7285 -4.46559 -10.6547 20
502 1 7.76547 -15.3919 3.72754 11
503 1 -8.12222 13.5075 -5.99887 16
504 1 -0.547521 5.6903 14.0038 23
505 1 9.05009 8.9343 -0.642928 23
506 1 7.48285 7.85876 1.83332 21
507 1 -8.2908 6.08411 -10.5326 23
508 1 1.36743 4.3415 -7.44414 20
509 1 3.26702 -6.78938 6.90233 20
510 1 -15.7691 -7.02868 -2.61945 13
511 1 6.90807 3.27392 -0.998213 22
512 1 2.47778 17.8568 7.57052 11
513 1 -3.6742 6.39852 -14.6504 17
514 1 12.4262 6.27807 -0.656373 24
515 1 -0.664091 17.0866 -6.11517 13
516 1 7.86632 -10.508 2.50796 20
517 1 14.5272 3.432 -4.23885 15
518 1 1.75406 -1.49376 -16.9624 17
519 1 -2.36765 -11.1543 1.50937 22
520 1 -0.902754 -14.3099 8.7574 15
521 1 3.4255 -9.70729 11.5723 14
522 1 -6.91887 7.03259 -7.85127 21
523 1 -9.53851 -13.1891 3.94563 19
524 1 5.34611 4.62821 -3.1967 23
525 1 0.499002 -15.1789 -8.81128 15
526 1 7.51682 13.0942 6.40845 17
527 1 3.86211 2.25571 -15.7128 20
528 1 -0.0639327 -1.35144 15.4307 15
529 1 -10.8809 5.14109 10.2297 17
530 1 0.311748 -16.0891 -0.0717468 15
531 1 -12.5126 -2.27733 2.29634 20
532 1 13.7366 -4.71776 -7.34312 13
533 1 12.667 -5.04823 -3.9487 20
534 1 0.91568 1.52662 -6.1746 20
535 1 -3.59444 4.38892 -3.91568 21
536 1 2.32637 -9.92259 -6.92899 21
537 1 5.92291 3.12802 -10.175 18
538 1 8.54222 -1.99363 -8.41905 21
539 1 -7.74697 2.45546 17.6113 12
540 1 5.03552 13.3094 1.46176 21
541 1 -4.03476 -4.63053 -16.9884 14
542 1 3.19058 -7.65531 0.840762 19
543 1 7.36921 -1.7896 -16.8106 12
544 1 -6.59341 -8.44082 8.92717 22
545 1 -6.62102 12.2064 1.5461 22
546 1 -9.4517 -3.65913 -13.5345 16
547 1 -14.5971 3.13795 0.289096 11
548 1 -4.62754 -8.88498 -9.88433 23
549 1 -2.73547 -11.6298 7.01916 19
550 1 2.89595 5.96924 -9.74768 21
551 1 12.5 5.37025 14.3551 15
552 1 14.8341 5.48673 -12.4034 6
553 1 -7.858 -12.693 -0.355256 19
554 1 3.32968 -12.8679 1.04662 21
555 1 -2.47721 -1.88945 -16.1253 16
556 1 -6.74055 9.30678 9.83624 23
557 1 2.53103 -3.42532 -8.98808 22
558 1 0.478355 3.68978 -0.356188 21
559 1 13.368 -3.85662 3.58605 16
560 1 3.73744 14.0243 -8.37455 16
561 1 8.76481 -15.1047 0.473617 13
562 1 7.86096 -2.61184 -0.968773 21
563 1 12.2161 5.14539 -11.2347 12
564 1 1.55092 8.54731 14.2422 21
565 1 -8.44142 7.93691 7.47629 24
566 1 -4.59578 -3.4237 -0.362194 20
567 1 11.6832 7.2203 9.26362 19
568 1 5.65841 1.16651 15.9706 17
569 1 -0.785727 0.433592 -17.6665 14
570 1 -7.61416 -5.29773 -5.12612 19
571 1 -2.75114 -3.81707 11.1109 21
572 1 8.65604 7.97694 9.80899 18
573 1 5.39764 9.04663 -5.08637 21
574 1 -2.91358 11.1103 -11.4142 17
575 1 -0.411974 14.0958 -4.65667 21
576 1 10.011 -1.77548 13.5501 14
577 1 5.90819 5.20053 -15.4904 18
578 1 1.59279 -7.87118 -15.4556 19
579 1 11.0337 10.184 10.653 14
580 1 -12.9039 -4.81647 -1.42681 22
581 1 -6.06225 11.7357 -11.9211 11
582 1 -1.0178 1.56209 7.145 22
583 1 -14.1476 1.88095 11.6685 11
584 1 -1.47428 9.94195 -8.11095 23
585 1 6.23494 -14.6205 -1.76378 16
586 1 9.59859 1.44069 -11.4506 15
587 1 -3.08125 15.2124 -4.85485 18
588 1 -7.32658 -6.84517 -10.7816 21
589 1 2.09911 -14.7288 8.93541 12
590 1 -11.5468 -2.69358 -3.21864 21
591 1 0.550264 10.0515 -15.163 14
592 1 -4.84992 2.64547 -1.78669 20
593 1 -3.96416 9.69595 15.281 12
594 1 -12.8347 -7.61937 3.62134 25
595 1 7.03664 10.3945 -2.79778 22
596 1 3.8002 -11.0072 -9.65271 22
597 1 5.36924 -6.49016 11.9165 17
598 1 8.09052 0.614474 -2.94216 22
599 1 1.99907 -1.44725 2.3173 19
600 1 -7.50599 5.13152 2.80588 20
601 1 2.71844 5.92957 19.5549 11
602 1 2.63651 17.2233 -6.76224 13
603 1 10.64 -7.54154 -1.66021 21
604 1 1.77295 8.66604 10.9806 20
605 1 2.11366 1.58102 -18.7366 13
606 1 -4.95975 -10.9638 11.0126 16
607 1 -2.59772 0.318957 -10.094 22
608 1 4.42593 -6.5925 -16.8634 14
609 1 1.34358 13.8503 7.18324 22
610 1 9.10768 4.74165 -10.9423 19
611 1 -1.05871 2.52692 -12.1747 21
612 1 -3.40778 -11.2469 -1.93926 18
613 1 -12.4876 0.649495 -7.8547 22
614 1 14.2111 4.82694 1.37167 22
615 1 14.4677 -0.125163 -4.03968 17
616 1 7.07963 -5.782 -13.3237 22
617 1 12.9366 7.65469 12.4626 13
618 1 3.84187 -9.31891 -4.10258 20
619 1 4.3894 -0.0119642 -17.083 17
620 1 6.25721 10.6019 3.13469 19
621 1 -4.70945 4.04082 3.37576 21
622 1 4.28692 10.2833 12.4893 23
623 1 10.5727 7.50763 -3.03943 20
624 1 15.5197 0.747577 4.24327 15
625 1 6.41638 5.80547 -5.81166 20
626 1 5.87884 5.30244 15.5388 22
627 1 11.8386 3.11908 9.82907 19
628 1 3.82686 -4.49131 10.2136 21
629 1 11.4993 11.4041 -5.91188 12
630 1 10.563 0.619896 3.90059 21
631 1 0.595288 3.17724 15.6659 22
632 1 12.3612 -2.01222 -4.18926 23
633 1 11.0267 7.85702 15.5627 14
634 1 -7.68596 0.508865 -6.42602 21
635 1 15.8672 3.65307 4.16457 19
636 1 9.26417 -4.45397 1.38956 20
637 1 -1.42761 -8.60318 -0.365193 21
638 1 -12.1671 7.78371 8.6768 14
639 1 10.8734 5.59587 11.5173 20
640 1 10.6036 3.13707 13.1501 19
641 1 2.09562 11.2805 9.05415 23
642 1 0.335912 13.3438 10.0957 15
643 1 3.01624 8.43283 4.46509 19
644 1 -5.4563 -17.3861 1.31999 12
645 1 -4.70897 6.43722 -1.69414 17
646 1 11.6348 8.1048 -6.23173 20
647 1 10.9449 -0.238284 -8.76474 18
648 1 1.58148 17.7568 -0.800025 14
649 1 -3.70131 -9.09793 -6.7315 24
650 1 7.38865 -9.83 -14.2801 13
651 1 -14.1534 0.389881 5.48985 16
652 1 -9.16119 11.269 -10.8842 13
653 1 -6.60905 -15.7621 4.08524 15
654 1 -5.44309 1.73224 -11.0463 22
655 1 -14.5213 1.5542 -5.4213 12
656 1 10.554 -10.4939 3.39255 14
657 1 11.7457 11.9122 2.27318 12
658 1 5.11284 -7.41731 9.13033 21
659 1 -15.8538 -4.13319 -7.29237 12
660 1 4.4032 5.91663 2.91685 22
661 1 5.30136 0.935864 -13.1549 18
662 1 3.62824 0.808211 4.29725 21
663 1 -1.50974 1.37979 13.6844 19
664 1 10.1288 13.0197 -9.05872 11
665 1 12.1456 0.98733 14.2948 11
666 1 4.63687 4.11999 -7.86449 22
667 1 6.36319 0.063868 -0.215811 20
668 1 6.08618 10.1585 0.0911644 21
669 1 0.666141 -9.89661 -9.67252 22
670 1 -11.9039 -2.28944 14.5557 14
671 1 12.0499 -4.86895 6.1516 14
672 1 -1.80866 11.3081 13.7228 13
673 1 5.78373 9.94865 -13.0518 21
674 1 -11.0411 9.48025 -5.93682 18
675 1 9.37588 10.1518 2.31444 23
676 1 -7.56226 -15.5529 -0.448659 14
677 1 11.9353 -5.83588 0.649869 19
678 1 6.74736 15.2913 3.55436 15
679 1 -2.19788 4.36749 12.0112 22
680 1 -13.7165 -8.21034 9.02318 11
681 1 -15.3273 -0.676197 -7.09454 12
682 1 7.86433 0.0229493 12.1196 22
683 1 -3.03499 -8.08105 12.0558 16
684 1 6.19825 8.16019 14.3741 21
685 1 -4.17911 11.8096 3.57457 22
686 1 10.6656 4.06224 1.60453 20
687 1 8.09202 -5.85186 -1.06129 19
688 1 9.18491 3.47508 4.54393 22
689 1 4.24722 4.0892 -12.2508 22
690 1 -11.7396 -2.08467 5.54427 21
691 1 12.9779 4.75488 -6.34381 17
692 1 -2.08658 -6.66037 -5.17878 22
693 1 10.1825 -8.08831 -12.3271 13
694 1 9.635 7.10876 4.43599 19
695 1 4.30722 6.05188 6.45042 22
696 1 -7.21315 2.38808 10.9994 22
697 1 8.29261 10.4151 5.44634 21
698 1 -3.39101 -1.27816 16.5312 14
699 1 -2.71169 3.77579 15.3413 24
700 1 -4.29525 -6.1704 -11.8068 21
701 1 -3.45465 1.66126 11.5884 21
702 1 -0.227184 3.66426 -3.90078 21
703 1 7.66052 2.63807 7.83703 22
704 1 -9.43965 -13.4269 9.19794 11
705 1 10.1462 11.0317 -2.94885 17
706 1 3.99751 -12.5965 -2.49801 19
707 1 -1.5876 3.79729 -6.83575 20
708 1 5.05253 10.4577 6.32203 21
709 1 8.89108 13.0805 3.31746 16
710 1 4.53034 -3.26168 -16.8628 16
711 1 -0.952658 -3.70612 8.64529 19
712 1 4.88727 15.5056 -3.62102 21
713 1 13.5548 8.69873 1.40426 17
714 1 -1.07964 -3.10743 -1.99397 20
715 1 -7.44773 -8.08891 -0.161862 21
716 1 -1.12083 -5.32324 -16.7594 15
717 1 -4.05287 9.41174 -3.7003 20
718 1 8.96831 -7.26414 -14.8434 12
719 1 7.54612 5.14402 2.39258 21
720 1 14.3221 4.42583 -9.04325 10
721 1 9.2161 14.2038 -2.74028 13
722 1 -4.11392 4.04484 6.84137 24
723 1 -4.32514 6.81687 1.48195 21
724 1 9.92229 5.85416 -5.58251 19
725 1 11.0972 2.94055 17.0667 10
726 1 9.22348 0.923277 15.3898 15
727 1 -1.87 -11.1943 10.3031 16
728 1 -7.99689 9.05534 -12.1846 17
729 1 3.91689 12.8327 10.8775 18
730 1 2.20843 -8.23633 -12.0302 21
731 1 2.74202 -2.01357 12.3424 23
732 1 6.17565 12.9091 -5.21302 19
733 1 5.39318 10.4243 9.37207 19
734 1 -5.21412 -0.663877 -0.219576 20
735 1 13.6833 -6.69334 -1.30375 12
736 1 6.53409 11.0873 14.7588 15
737 1 -13.0732 -5.10258 7.65542 19
738 1 5.36876 -15.419 1.33363 16
739 1 -0.349631 -1.71662 -9.37561 22
740 1 -5.72918 12.1981 -2.04053 20
741 1 1.17659 5.75579 3.90309 19
742 1 5.35663 -4.4368 -2.92914 19
743 1 3.16985 11.1579 2.78814 21
744 1 -13.8595 -4.92065 4.70759 17
745 1 -4.55218 1.83379 17.6595 14
746 1 -1.81617 2.67632 -15.5963 18
747 1 -5.07956 3.8148 -16.2412 13
748 1 6.47129 -12.4162 0.159425 19
749 1 8.89841 9.31779 -5.00491 21
750 1 2.5955 -7.0123 3.75884 22
751 1 -2.12695 6.89556 3.98708 20
752 1 -12.5245 -2.4554 11.3345 21
753 1 3.14137 -0.923568 -14.2449 20
754 1 0.5424 -12.1699 6.8457 23
755 1 1.09441 13.5319 4.04633 22
756 1 -4.9148 1.14631 14.9015 22
757 1 -2.13835 -1.26046 0.49692 19
758 1 -6.29554 -9.0916 -12.8395 17
759 1 -9.59129 -9.1721 -11.7858 11
760 1 -2.42656 -13.0935 -7.35256 20
761 1 1.68831 11.5686 -9.25406 18
762 1 7.05477 -6.95243 -10.5864 22
763 1 3.24924 0.867576 0.477118 20
764 1 -12.4066 13.3832 1.68118 12
765 1 7.72433 -7.22505 -6.79165 21
766 1 7.15548 -13.7639 -4.7041 19
767 1 2.3035 -6.5244 12.6981 17
768 1 15.3502 4.99936 -2.16602 16
769 1 -1.33984 -13.3411 -3.99598 20
770 1 -10.688 -2.95171 8.69413 19
771 1 -1.72247 -0.670574 -6.94665 21
772 1 -8.35283 -10.7097 1.67862 21
773 1 -6.27005 -10.3972 -2.23956 22
774 1 2.86152 -1.59303 -3.30994 22
775 1 -13.3861 -0.136699 13.635 13
776 1 -9.54085 -15.1701 2.07327 12
777 1 13.8125 8.23047 -10.5244 13
778 1 -3.93417 14.8994 1.49426 19
779 1 -3.75036 1.45638 8.28828 22
780 1 -13.1682 5.93985 6.4622 15
781 1 11.2973 -2.29043 0.785631 23
782 1 -11.4072 -0.664868 -10.525 18
783 1 1.06661 8.59837 -0.925088 22
784 1 6.38401 2.25286 -5.5258 23
785 1 6.85747 14.1919 13.1424 10
786 1 0.467411 -1.21237 6.62211 19
787 1 11.5541 4.49978 -3.40424 21
788 1 -12.5592 3.73446 -8.12315 16
789 1 -12.791 -5.88337 -7.01887 21
790 1 -1.08178 8.74081 15.413 18
791 1 4.73332 7.51518 -13.1584 23
792 1 10.9757 11.6745 5.70946 13
793 1 -2.2695 -0.903649 9.62729 21
794 1 4.19259 -9.8798 2.33364 22
795 1 -6.03582 -15.841 7.73063 11
796 1 -0.310005 -9.3407 8.21481 18
797 1 11.8659 10.4812 13.5095 10
798 1 1.35507 -6.34717 -9.62087 21
799 1 -7.36223 7.94254 1.03415 21
800 1 6.16991 7.6351 4.90971 21
801 1 -14.6387 -4.75517 10.0143 12
802 1 11.3076 10.5075 -11.3168 12
803 1 -0.677778 -15.3915 -6.04741 15
804 1 0.0308561 -13.4523 1.68368 19
805 1 -1.92674 -13.5834 -0.598919 19
806 1 4.72313 8.10516 -7.87221 20
807 1 3.76483 15.5942 2.64959 20
808 1 -3.52571 0.612096 -13.5755 22
809 1 1.42867 0.823164 13.5521 21
810 1 -1.6395 5.605 -17.5188 11
811 1 -11.2773 -0.959373 -13.9133 12
812 1 -9.76878 -0.0926049 -1.85533 20
813 1 2.54134 17.277 -4.17251 16
814 1 9.91692 -0.622326 -0.810719 20
815 1 -5.04132 -6.58789 -15.0884 18
816 1 -5.47808 -5.8408 1.56338 22
817 1 9.62826 2.42999 -5.46473 19
818 1 15.0455 -5.27855 1.06458 10
819 1 -8.70362 4.72718 12.494 20
820 1 6.47469 -11.0788 -2.93416 19
821 1 11.5805 -9.04767 0.821188 14
822 1 11.551 0.187315 11.7634 15
823 1 -0.799936 11.2638 7.32788 21
824 1 -10.2972 0.0908891 12.4537 22
825 1 -4.54362 4.31152 10.1319 22
826 1 -3.95857 -13.6121 9.10522 16
827 1 8.54248 2.15708 1.62847 23
828 1 4.61699 7.64524 17.0908 19
829 1 -13.9487 -7.47619 0.656631 24
830 1 9.36591 -5.66371 -4.15445 22
831 1 1.93827 5.8354 -2.54984 22
832 1 -13.1444 6.48348 -0.259758 19
833 1 1.04421 8.7921 2.49331 22
834 1 0.166233 -16.7287 6.85329 11
835 1 3.69639 3.47405 14.0968 22
836 1 -1.00477 11.0491 3.93715 20
837 1 5.23459 -12.3759 3.65649 23
838 1 -7.88237 -2.51612 -1.07508 20
839 1 7.26676 -1.92853 8.69128 20
840 1 -15.5203 -7.39989 -6.25893 12
841 1 3.51553 10.1489 15.4736 19
842 1 6.45567 12.8159 -1.66003 19
843 1 -13.4756 -10.6241 5.40901 15
844 1 -3.67622 -16.7913 4.25596 15
845 1 10.1574 -5.54964 9.27459 17
846 1 11.2857 -6.62868 3.64239 16
847 1 7.54996 10.0584 11.5585 23
848 1 -0.964547 6.87613 0.528424 21
849 1 -0.83207 -7.94 -7.73744 23
850 1 1.00024 4.73872 -11.3736 21
851 1 -7.15852 -0.471386 12.8467 22
852 1 -2.06495 17.116 3.3992 12
853 1 11.9823 1.20074 0.86802 20
854 1 3.35826 6.40093 -5.49911 22
855 1 -6.30051 7.1948 14.8201 16
856 1 5.41314 7.71345 10.8389 21
857 1 7.16587 -0.653213 -10.9709 21
858 1 -6.82225 -13.1849 2.64645 19
859 1 -4.74752 -0.878648 -6.13023 20
860 1 12.3162 -1.85305 6.05125 16
861 1 -0.0879531 0.155855 -14.8282 22
862 1 -0.200557 5.9235 10.38 21
863 1 8.4575 -10.2475 -11.3701 18
864 1 7.95128 6.88066 -13.3194 17
865 1 -0.638084 -6.14804 -2.2046 22
866 1 11.4594 -3.23295 -9.1162 16
867 1 14.5833 -1.8804 1.44743 17
868 1 -2.04152 -3.6003 14.2325 18
869 1 -8.10325 -8.95464 -8.7899 20
870 1 1.26388 -1.72597 -0.7301 20
871 1 6.94115 16.2448 -1.85937 18
872 1 2.94823 -4.12158 1.62481 21