ITEM: TIMESTEP
373000
ITEM: NUMBER OF ATOMS
2000
ITEM: BOX BOUNDS pp pp pp
-30.0 30.0
-30.0 30.0
-30.0 30.0
ITEM: ATOMS id type x y z Coordination
1 1 -12.6715 4.61941 -11.6331 11
2 1 -11.4706 -8.35664 -9.33536 13
3 1 1.50826 10.8157 11.1821 22
4 1 4.64598 -12.1493 9.34543 12
5 1 -9.8641 6.04861 -3.44736 21
6 1 8.25741 -6.74737 -11.0246 21
7 1 -14.4064 4.96107 -5.71697 14
8 1 0.765132 -1.62325 9.29307 20
9 1 -9.90655 -0.469182 -9.51847 23
10 1 -12.7473 -10.3552 9.56654 12
11 1 11.4928 7.0166 -4.97288 22
12 1 -3.57349 0.876006 -4.26813 24
13 1 1.70298 -12.7233 0.987004 22
14 1 -15.669 -10.366 3.71608 13
15 1 -2.22519 4.16854 18.0095 14
16 1 8.63178 -4.76028 6.56694 19
17 1 1.9274 2.97622 8.80044 22
18 1 8.49435 -1.33929 1.90849 22
19 1 -0.317939 4.3133 -14.5163 20
20 1 3.18338 0.452135 10.3813 21
21 1 -8.46808 -2.10287 -14.8945 13
22 1 -12.2309 -2.26844 13.0606 11
23 1 13.0937 4.08817 7.18358 19
24 1 3.53142 9.54564 -12.7154 21
25 1 6.32482 6.28612 -10.3663 18
26 1 11.3905 2.03748 6.98017 22
27 1 -7.62443 0.331854 2.02858 20
28 1 -12.9208 4.19611 -8.33825 15
29 1 -2.82612 -2.67272 -8.53258 20
30 1 -10.1668 4.0105 7.26324 19
31 1 6.35272 -12.0721 3.99635 19
32 1 4.09315 -1.98326 9.03104 21
33 1 2.23842 -15.0988 -9.21831 15
34 1 7.85947 -10.7795 -2.41371 21
35 1 -7.08577 -12.8029 -4.81039 15
36 1 -9.92387 -4.93079 13.3687 14
37 1 3.96897 -3.36046 -5.42555 18
38 1 -1.64155 -6.8177 -14.7601 19
39 1 6.28207 -8.83818 -14.469 14
40 1 1.01392 3.99249 -17.0146 14
41 1 -2.44707 6.81164 9.56278 20
42 1 1.18268 -11.4058 9.3043 19
43 1 4.74338 -4.30182 13.3476 16
44 1 -11.1493 0.471632 3.92947 18
45 1 -14.9578 -2.2811 6.28201 16
46 1 -8.70049 0.35174 -0.97814 19
47 1 -5.44241 13.0547 -3.11235 21
48 1 -4.73255 -14.2579 -9.69344 13
49 1 0.328544 0.438927 -11.3002 24
50 1 4.31195 -4.43627 -10.7037 22
51 1 -0.756045 -6.37196 12.899 15
52 1 -9.05745 5.51688 -0.21094 22
53 1 3.94815 13.6918 -13.0636 15
54 1 1.23203 13.7476 9.79063 16
55 1 -6.67718 4.30638 -10.463 19
56 1 -0.4264 11.7816 0.175581 21
57 1 2.84569 -11.7795 -1.8284 19
58 1 9.56193 -5.29376 -8.32086 21
59 1 3.86082 -6.52661 -15.1298 18
60 1 -8.86347 9.44592 10.7626 18
61 1 -14.5642 -3.68247 -9.05535 15
62 1 9.76959 4.57719 7.88154 22
63 1 -7.49777 7.7774 -2.16721 20
64 1 -10.2393 -10.197 7.5624 23
65 1 -3.8095 12.332 10.6717 16
66 1 -11.8631 3.33394 -5.10107 23
67 1 -9.02023 8.72564 13.3549 9
68 1 0.294848 4.89705 -5.4882 22
69 1 1.90615 5.89099 0.479322 19
70 1 -7.58866 -11.0246 4.72591 22
71 1 2.50245 0.386014 7.35457 22
72 1 6.28555 -15.5889 -4.28944 14
73 1 2.3579 13.7356 12.7375 12
74 1 -12.6052 1.96461 -9.87058 17
75 1 -7.8535 6.93748 -11.0735 21
76 1 3.84874 6.30256 12.0647 22
77 1 13.0655 -7.60024 -7.9646 12
78 1 7.41158 -9.27282 3.16513 23
79 1 -16.6849 -0.6525 0.702961 10
80 1 -6.79425 -2.98836 1.71232 19
81 1 5.96267 16.5183 6.32356 15
82 1 5.19589 0.152559 12.6891 20
83 1 -5.5518 -13.2819 6.26159 21
84 1 -11.3181 -2.42005 0.234473 22
85 1 16.6876 3.50771 8.55756 13
86 1 9.29856 -2.20326 -3.88833 20
87 1 -0.530937 14.1251 5.10735 21
88 1 5.4047 -4.34426 6.76987 20
89 1 -4.55245 -5.95241 4.2439 22
90 1 -2.5851 -6.74425 -8.71089 21
91 1 -6.03769 6.93694 10.7217 19
92 1 -8.40726 13.6733 -4.63916 16
93 1 -4.97165 6.61379 -8.94739 20
94 1 5.86839 -1.59391 -3.46167 20
95 1 4.89137 0.800449 -8.28027 20
96 1 7.80986 11.6967 -9.65646 18
97 1 8.26379 -5.72251 4.09343 22
98 1 7.03771 -9.9289 10.2449 13
99 1 -4.33268 13.6743 -8.4068 14
100 1 -9.58023 13.5524 1.4234 14
101 1 -8.75598 -2.74187 11.8364 22
102 1 -3.15459 9.89969 7.9222 20
103 1 -3.76562 -8.68021 8.96575 23
104 1 8.53763 -6.96695 -6.10619 20
105 1 -7.74965 8.05112 3.23198 21
106 1 -12.9233 -12.5338 3.09803 14
107 1 10.4209 -8.90103 -7.96185 18
108 1 3.89042 -1.22429 -10.6146 23
109 1 -5.03212 -1.82352 -14.9172 19
110 1 5.70433 0.208471 6.70789 21
111 1 -2.4818 9.68505 1.42553 21
112 1 -6.1571 6.63512 -13.7437 15
113 1 2.1223 11.2353 15.3945 11
114 1 0.2213 10.684 -2.53496 22
115 1 -12.8311 8.79347 1.25327 11
116 1 2.13627 9.3669 -0.154857 19
117 1 -0.769299 -0.690415 -3.5184 23
118 1 -1.25574 -6.86944 10.0185 20
119 1 12.8572 -0.628939 8.90439 18
120 1 -0.0715727 -4.75388 -7.89644 19
121 1 5.37658 -7.74435 -6.38631 20
122 1 -2.85211 -1.08155 5.85253 24
123 1 3.30087 -1.63245 15.1616 15
124 1 -9.73925 -9.88141 -0.684605 20
125 1 6.71999 -4.05316 1.73045 24
126 1 -9.8218 -8.31809 -3.60461 22
127 1 10.2195 -10.5354 -0.085949 16
128 1 -5.56188 5.98826 4.59635 19
129 1 6.47067 8.95033 -14.7315 16
130 1 5.19643 17.875 -2.33081 12
131 1 -8.61517 -10.1425 10.4901 18
132 1 -8.51091 -7.78919 5.81644 21
133 1 -1.52853 3.80984 1.7163 18
134 1 -0.467456 -9.97727 -16.6449 14
135 1 3.73404 3.18015 -5.36466 25
136 1 10.3686 -11.9392 -6.67884 13
137 1 -3.17211 -15.0197 6.83052 15
138 1 -10.5948 -7.24807 -0.509141 18
139 1 16.0349 6.52293 9.68399 11
140 1 9.67658 1.58779 -14.416 10
141 1 -16.2445 -6.9345 3.99195 14
142 1 10.4753 8.6766 5.80937 20
143 1 14.8411 6.65068 0.346126 16
144 1 -5.221 3.95568 16.465 16
145 1 5.30855 6.62747 0.145281 23
146 1 -1.38932 11.5429 9.73481 22
147 1 -2.83749 11.9481 -4.33328 21
148 1 -1.2553 -7.99437 -11.4539 20
149 1 7.51939 -10.5431 -12.0111 17
150 1 1.27975 7.28734 -13.2987 23
151 1 8.09235 -4.89747 12.7547 16
152 1 1.1868 -1.45397 -17.4383 13
153 1 -2.81033 5.87848 -6.04724 21
154 1 11.0595 1.57548 -3.2818 22
155 1 -7.93619 8.76689 -4.9393 21
156 1 4.73527 -2.40208 -0.653632 22
157 1 -8.87947 13.4586 -1.79277 16
158 1 5.93971 -2.4049 -13.232 19
159 1 6.44704 -7.40715 5.63829 18
160 1 -5.54036 4.19192 -7.12706 24
161 1 -3.12008 12.2842 5.57087 22
162 1 13.1831 9.20641 -7.66049 17
163 1 0.389023 0.703136 -0.755887 20
164 1 9.51435 14.2907 -9.09637 11
165 1 -4.1075 14.6513 -0.852709 16
166 1 10.7998 9.62189 0.736848 19
167 1 -4.85452 11.8873 -6.22575 15
168 1 -0.97354 14.5249 -8.90655 15
169 1 5.06007 11.5666 -15.3953 11
170 1 -14.7601 -11.6871 0.44188 13
171 1 -13.2248 7.73932 4.3862 13
172 1 -8.7175 -3.6557 -9.97 22
173 1 -1.63718 -11.8496 -13.7584 13
174 1 9.7734 12.7974 8.38065 12
175 1 -0.599072 16.8636 6.03633 10
176 1 -10.4072 -2.48436 -7.17721 22
177 1 -13.2988 9.7301 -1.9811 13
178 1 14.6623 -2.65208 -1.34928 15
179 1 -9.51068 0.472671 -13.2885 15
180 1 4.08511 3.10541 17.0597 18
181 1 4.5294 17.7739 3.1713 14
182 1 0.731419 5.90711 7.30442 21
183 1 1.12461 -6.98023 -17.0896 15
184 1 -5.13356 13.7411 7.97812 12
185 1 -3.19725 15.4021 -3.87762 19
186 1 1.49296 -4.21264 14.6919 12
187 1 -9.39151 -4.5247 0.9447 20
188 1 -4.18527 -11.8811 -12.1135 13
189 1 -10.1998 8.10139 -7.53154 15
190 1 1.01466 -9.4363 5.53717 23
191 1 3.87746 -15.9522 -6.8738 12
192 1 -1.68775 12.4302 -13.2442 14
193 1 -15.4011 2.81433 8.11101 16
194 1 4.15048 7.88929 -2.42691 19
195 1 7.15492 11.3391 -6.88819 19
196 1 -8.11015 5.41722 14.9045 15
197 1 0.286349 -9.01035 11.1964 16
198 1 -7.15628 3.10261 0.559161 23
199 1 1.39701 17.0772 3.17261 15
200 1 4.72115 3.36636 7.57644 20
201 1 12.0936 6.01032 14.7593 13
202 1 -7.85292 15.2955 3.64964 12
203 1 11.544 -6.6769 -5.63676 20
204 1 -7.23926 12.4505 10.1541 13
205 1 -4.62943 1.07449 -7.5829 20
206 1 9.5649 -7.73302 1.95804 21
207 1 -3.69248 -6.20493 7.4288 21
208 1 -17.2535 0.287449 6.77764 12
209 1 -11.2323 -12.4544 0.658536 17
210 1 2.6555 5.38013 14.6858 20
211 1 -14.1648 -1.65242 -1.43986 18
212 1 -1.195 0.855022 1.79385 22
213 1 -5.46251 -16.4508 -0.726978 13
214 1 -1.05642 -1.77281 3.38434 20
215 1 -6.32973 -3.75278 -3.54236 22
216 1 6.79951 -7.68279 -3.20695 23
217 1 -2.39696 9.40558 4.7239 21
218 1 -8.03367 -0.42786 4.58825 19
219 1 5.65241 14.2829 12.1692 9
220 1 -9.56472 1.30308 -4.42057 20
221 1 -7.81455 6.58684 -7.78237 22
222 1 -13.3394 -3.47532 -6.50225 23
223 1 -4.93382 -6.15468 10.1626 19
224 1 -0.395949 -8.72993 2.71772 22
225 1 2.06376 -11.0507 3.36741 22
226 1 -10.6116 10.8717 -0.536084 18
227 1 17.9978 2.33474 6.39813 9
228 1 7.08201 7.26093 -2.87774 19
229 1 -7.985 -6.77126 -13.9303 13
230 1 6.97378 -2.6545 4.55048 21
231 1 -3.70702 -3.69082 2.36338 20
232 1 3.72449 -12.8828 5.94782 20
233 1 -5.15188 8.57994 -11.3892 18
234 1 1.62789 -12.0924 -14.364 13
235 1 9.36354 4.27083 -14.2613 11
236 1 3.14752 9.12812 -15.9285 16
237 1 -7.44853 -3.75641 -6.7836 23
238 1 1.86717 9.26665 -8.55506 21
239 1 -9.64886 -7.92732 12.7564 13
240 1 6.27888 16.6967 0.300025 15
241 1 -10.2403 2.53827 15.4736 11
242 1 -5.6282 15.5148 -5.73294 12
243 1 6.30071 0.861953 9.48108 19
244 1 -6.4879 -4.06883 -12.3996 22
245 1 -2.70411 8.25664 -9.14923 18
246 1 3.13941 1.76349 -10.4313 23
247 1 -12.4005 -9.59896 1.34216 21
248 1 1.83653 2.74739 2.43168 21
249 1 -10.4993 6.22099 5.17312 22
250 1 -5.35704 10.1888 5.69045 20
251 1 4.65303 -9.81034 -1.39908 19
252 1 -2.66566 -16.6839 0.967765 14
253 1 10.8545 -11.9786 -3.47668 14
254 1 -0.736067 3.91604 5.39445 21
255 1 -4.41778 -1.08265 2.76919 23
256 1 1.02033 -4.38128 -4.9629 24
257 1 10.0054 7.64327 14.514 14
258 1 7.6098 7.94579 -7.78769 20
259 1 -0.720528 13.5231 -2.89398 21
260 1 -8.73816 2.39643 4.81554 20
261 1 -12.4709 9.65846 -5.47842 13
262 1 1.98989 3.27557 12.0534 22
263 1 2.41703 -16.9574 5.06228 8
264 1 13.1026 0.388426 -0.87832 20
265 1 2.7573 8.43371 7.36879 18
266 1 -8.43857 12.0257 4.72717 15
267 1 -12.2988 -0.354601 -5.26408 21
268 1 2.78798 11.5774 -10.8233 19
269 1 -0.317732 -1.45169 11.8464 19
270 1 6.77527 13.9584 -11.1592 13
271 1 2.39928 -13.0394 -6.45931 18
272 1 -4.06598 -2.26395 -11.3723 21
273 1 -2.85944 -13.5782 3.7252 18
274 1 7.25346 -0.729535 -6.2545 19
275 1 -6.8609 -5.13068 7.10375 21
276 1 3.08643 -17.3613 -4.61446 11
277 1 -11.4756 -5.23744 -8.34868 23
278 1 4.57981 13.7451 -2.16447 15
279 1 -1.57882 -1.86899 -12.2688 21
280 1 0.883927 3.55113 18.6432 11
281 1 14.9118 1.96759 1.25986 19
282 1 -1.3471 -6.07573 3.41087 20
283 1 13.1491 -5.40157 -10.583 11
284 1 0.109767 -3.90034 1.02707 20
285 1 -13.3083 -0.63742 -8.53847 21
286 1 -10.3967 1.68263 -7.67585 21
287 1 -7.55694 -13.0531 10.7282 12
288 1 9.59843 -0.0738555 9.47188 19
289 1 7.39815 -5.13385 9.30402 20
290 1 0.564453 -9.23427 -13.6955 21
291 1 2.05923 -4.06701 7.20309 21
292 1 0.24405 7.56201 -10.2962 18
293 1 5.7156 10.0289 1.548 18
294 1 -7.76989 -4.96731 4.12344 23
295 1 1.98514 12.7436 -0.399087 20
296 1 -4.78788 -3.2046 15.5304 15
297 1 -11.0478 -8.2674 -6.31704 19
298 1 -5.51634 -7.40524 -7.86266 21
299 1 2.86377 6.00485 -15.701 17
300 1 -6.79334 -11.4023 -10.5922 14
301 1 -5.46362 -10.8195 0.744979 23
302 1 -2.70849 -5.75841 0.031552 25
303 1 8.79882 -6.16671 -14.3792 15
304 1 10.2696 -4.24811 -11.3491 20
305 1 6.05303 -7.01516 2.39668 22
306 1 12.2885 2.46402 4.15917 19
307 1 -3.43232 -5.12748 -3.1717 21
308 1 -9.37919 -5.845 8.36572 22
309 1 -3.68217 -13.6613 0.239613 21
310 1 6.16552 5.89587 18.3567 15
311 1 -8.76118 -12.6224 7.79861 17
312 1 3.77011 0.265884 -5.42082 22
313 1 -0.872048 -13.988 1.27399 20
314 1 -1.62271 17.2925 -2.48198 12
315 1 10.6838 -1.5436 -14.0653 10
316 1 -6.86446 -4.40562 -15.7988 13
317 1 4.43832 -6.60902 -0.829861 19
318 1 -11.614 -4.75563 10.8725 18
319 1 2.64409 8.94157 16.6992 15
320 1 0.315649 -14.3115 -4.28144 20
321 1 2.05658 -12.2819 -8.90165 20
322 1 -10.3007 6.81671 -13.543 11
323 1 6.63834 5.20379 8.86335 19
324 1 -7.85518 2.08107 -8.16228 23
325 1 -2.86741 5.86949 -11.229 19
326 1 -2.47786 -3.88595 5.3003 21
327 1 7.17904 -13.7522 -10.9062 10
328 1 -6.76596 15.8238 -2.90074 12
329 1 2.62213 11.9729 5.18117 17
330 1 13.5901 -0.407368 3.51633 15
331 1 -9.96222 -0.0842062 7.55454 20
332 1 -5.10614 -8.86223 6.33711 20
333 1 -4.93081 8.03909 2.747 22
334 1 1.38246 -3.25597 -11.3963 24
335 1 14.1353 11.5571 -5.7169 11
336 1 0.581835 -10.3554 0.300376 21
337 1 -3.47262 -1.25083 13.4203 21
338 1 -16.7786 -0.0642021 4.04188 10
339 1 0.362418 -17.5281 -3.05672 15
340 1 -7.08866 4.93226 9.42433 19
341 1 -9.16753 3.15343 12.628 16
342 1 -13.9556 -3.03341 9.77652 15
343 1 -15.6718 -5.43728 7.03466 12
344 1 12.6981 -5.37835 -3.42154 16
345 1 -11.2247 -7.50856 10.2195 16
346 1 10.937 -3.55453 -6.03334 21
347 1 12.5359 -9.66346 -5.50222 14
348 1 6.6346 17.3476 -5.382 11
349 1 -0.0230479 -6.39635 6.01852 22
350 1 -9.54646 11.0087 -5.98122 15
351 1 0.378401 0.874275 4.87157 22
352 1 9.31455 6.50125 10.6988 22
353 1 -9.06459 -2.82696 6.34419 23
354 1 4.80383 -11.1885 -7.38424 18
355 1 -4.97169 9.78566 -0.456745 22
356 1 -11.6731 3.4272 3.77707 21
357 1 2.58882 2.91115 5.67286 22
358 1 3.02552 -10.2117 7.85012 24
359 1 9.73493 -8.07751 5.54839 18
360 1 -1.43243 3.85413 8.47303 20
361 1 -7.39578 -6.5016 -1.85237 16
362 1 4.68909 -2.07484 2.20276 21
363 1 -0.921254 1.64349 16.5933 18
364 1 -1.21353 14.5938 0.111897 19
365 1 9.55758 9.57334 11.8311 17
366 1 -7.33909 12.8045 -7.53004 14
367 1 -2.31356 -7.66269 -17.5439 12
368 1 -6.60637 -0.519014 -3.34787 23
369 1 3.26015 -9.46629 -15.6662 14
370 1 -7.09104 1.87373 7.87986 19
371 1 -14.4084 5.31019 2.83941 12
372 1 -4.43883 -4.51795 -6.32265 22
373 1 -2.07676 8.89772 -4.8454 22
374 1 10.7899 -1.35123 7.05887 20
375 1 -16.3977 -8.77305 0.985989 12
376 1 10.2132 -9.55451 8.56481 11
377 1 -4.28163 1.9283 1.3627 22
378 1 -8.14113 -5.76396 11.0309 22
379 1 -10.0402 8.85075 5.33913 19
380 1 0.905992 -4.38725 10.6474 18
381 1 4.66347 -10.5751 -10.1233 20
382 1 -5.87098 -1.76486 -8.81723 21
383 1 8.72354 -3.40713 -13.9495 16
384 1 4.09504 14.1795 3.75519 21
385 1 -11.5764 3.56298 -1.76146 21
386 1 0.737801 -6.02174 -13.289 21
387 1 8.8197 10.6908 -13.2155 13
388 1 -2.26892 -15.7911 -4.91392 19
389 1 -13.1578 -8.87412 -4.53378 15
390 1 -4.71258 -7.94593 -1.32107 21
391 1 9.60663 5.77914 17.5078 11
392 1 -3.54243 -2.01699 -2.76454 22
393 1 12.8948 3.64548 -0.56883 21
394 1 -9.20287 2.04263 -10.7408 22
395 1 3.50695 18.8542 0.404901 10
396 1 -15.7653 -0.609462 -5.33678 14
397 1 5.37758 1.8149 2.13973 20
398 1 -7.30414 10.9972 2.29944 20
399 1 -11.2787 12.148 -3.56459 14
400 1 -5.41228 4.14772 12.7233 21
401 1 7.24789 2.60642 13.4435 22
402 1 13.5022 -1.00426 -6.96105 14
403 1 6.72067 -2.45673 14.9468 15
404 1 12.5887 2.24234 -6.69406 16
405 1 -4.35294 -14.0303 -3.21535 19
406 1 6.14468 2.86035 4.85256 20
407 1 -3.44058 3.90005 -1.14143 23
408 1 0.948963 -7.44782 -5.10094 20
409 1 0.215723 8.35525 5.09919 16
410 1 4.95816 1.83252 -2.54766 20
411 1 -8.83922 4.21692 -5.79543 22
412 1 1.59343 -8.94869 -1.85903 22
413 1 13.7659 0.759545 11.998 13
414 1 -9.34629 -2.1518 -4.34487 22
415 1 -6.42668 -8.17797 3.46531 23
416 1 -7.17343 -5.39898 13.9436 19
417 1 -2.08614 9.03335 -1.56339 23
418 1 -12.5975 -5.7367 -4.31079 21
419 1 6.85524 5.40284 12.2428 18
420 1 -6.17389 5.0709 -1.3697 22
421 1 1.32251 12.2259 -8.31314 18
422 1 5.67111 13.3456 6.72782 22
423 1 -15.1581 -9.32232 -1.96967 12
424 1 -4.59921 -7.29107 -4.60541 19
425 1 -13.4739 0.0335619 8.42625 21
426 1 -10.4102 9.11713 -2.7916 21
427 1 4.20263 -9.50793 4.80364 24
428 1 -2.79374 -12.579 -7.60361 18
429 1 11.9192 10.1373 8.29056 15
430 1 5.91826 10.9624 -11.7687 20
431 1 -10.7698 3.49389 -13.8361 11
432 1 0.2729 10.5107 -11.3731 21
433 1 -6.59836 6.18023 -4.65535 19
434 1 -4.51682 -10.8638 3.89403 23
435 1 15.5194 6.9947 3.73225 14
436 1 0.134403 10.1067 -14.987 14
437 1 -5.36666 -0.934596 10.2968 20
438 1 -12.7205 0.751213 0.290025 19
439 1 1.84831 1.31838 -2.94837 25
440 1 -8.03459 4.98341 5.85025 18
441 1 1.1041 -14.0959 3.93282 21
442 1 3.20865 -5.72301 -7.02715 21
443 1 4.60884 -7.38883 -9.61577 19
444 1 3.33659 -1.95432 5.03523 20
445 1 -16.2526 3.11751 5.13121 13
446 1 -15.8821 -0.39198 9.36228 13
447 1 -10.7718 10.8747 2.79312 13
448 1 0.515347 -6.74625 0.563387 23
449 1 -6.68224 1.14439 -13.8276 17
450 1 7.85865 -14.5899 -7.5607 11
451 1 0.9536 -12.6734 -11.533 17
452 1 -4.66719 -3.41043 8.22444 22
453 1 3.45023 -6.59034 -3.87194 19
454 1 -5.15894 3.97699 -12.953 20
455 1 9.3954 -13.0841 2.89999 10
456 1 0.464302 10.2464 -5.66774 20
457 1 -9.06461 7.20396 8.29806 22
458 1 -6.16883 -0.583302 16.7631 17
459 1 -12.6579 -5.49475 -11.2694 13
460 1 -2.35731 -8.35876 5.00965 24
461 1 11.0721 -4.8434 11.859 14
462 1 8.02517 0.376629 5.05607 19
463 1 -2.46956 1.58623 4.0632 20
464 1 1.509 0.37476 -8.05292 22
465 1 8.95564 -10.9757 5.55211 13
466 1 -1.47798 5.83546 -2.77447 23
467 1 11.4364 9.9385 -4.57844 18
468 1 -0.0199484 1.47092 10.2395 23
469 1 2.35718 12.7778 -3.93832 18
470 1 4.88121 -4.69811 4.13954 23
471 1 -4.51986 -10.897 -4.77497 21
472 1 -2.78008 6.46386 15.8589 18
473 1 -3.79178 15.5341 5.1765 16
474 1 -9.90366 -10.9151 -5.45068 14
475 1 9.18912 14.9927 0.236986 15
476 1 3.66948 5.98295 8.93303 20
477 1 -6.59265 -0.6407 7.5409 22
478 1 -2.02405 -9.20354 -4.09862 21
479 1 -12.1491 2.559 7.43036 16
480 1 -8.62293 -6.2737 -8.07376 22
481 1 -4.92198 6.80659 7.63597 17
482 1 -6.03085 -11.7958 -7.41891 15
483 1 -3.27805 -4.34291 -13.6874 21
484 1 -0.836556 -11.8099 3.91143 20
485 1 -5.78001 -3.00705 5.19462 24
486 1 14.5957 1.87604 6.73664 18
487 1 -4.01592 -5.78494 13.2615 14
488 1 -12.0128 6.78728 -10.1726 12
489 1 8.23731 4.08195 -3.3876 23
490 1 -6.56852 -13.1224 -1.33052 21
491 1 -0.64163 2.41018 -9.29718 19
492 1 -0.0135988 17.9735 0.226437 12
493 1 0.0348125 7.34296 -6.79046 21
494 1 -3.26442 6.86251 13.0424 24
495 1 -15.2651 -3.69296 -3.3484 17
496 1 0.304022 16.2561 -4.4285 16
497 1 4.95019 12.5312 -8.80326 18
498 1 -7.26871 -9.31311 -5.68616 21
499 1 2.20507 0.849971 17.0343 14
500 1 -0.434886 -14.2981 -7.79895 20
501 1 -1.31639 -4.78515 -11.0044 22
502 1 7.5131 -14.4399 1.11548 14
503 1 -7.80075 10.5865 -2.21467 23
504 1 -0.159716 6.07039 13.3337 22
505 1 7.89553 9.24191 -1.10727 22
506 1 5.08987 10.9727 -0.881068 22
507 1 -10.0117 9.02998 -10.6802 13
508 1 1.94345 3.60344 -8.24621 22
509 1 3.35647 -7.16906 6.31224 21
510 1 -16.5671 -6.07922 -1.29971 11
511 1 6.79359 3.52913 -0.314845 21
512 1 2.54504 17.2814 6.0764 13
513 1 -3.16004 5.74572 -14.2411 17
514 1 11.4522 6.44192 0.135056 20
515 1 1.25124 15.4418 -7.27463 16
516 1 7.58018 -8.35725 -0.118397 20
517 1 15.9383 4.33545 -1.37374 11
518 1 2.31826 1.24013 -15.8863 16
519 1 -1.99415 -11.2739 1.21683 22
520 1 -1.00413 -14.0173 9.02844 12
521 1 3.87091 -9.5613 11.5293 15
522 1 -9.76139 4.52024 -8.8739 21
523 1 -10.3339 -12.7429 5.24805 16
524 1 5.3171 4.87795 -2.92883 22
525 1 -2.45746 -16.027 -8.35337 13
526 1 8.16176 13.6378 5.94748 15
527 1 3.38075 3.34442 -15.0413 18
528 1 0.150175 -1.16595 15.0397 18
529 1 -11.1971 4.76428 10.2611 19
530 1 -2.52133 -17.0572 -1.83656 15
531 1 -14.8394 -3.52419 1.22287 17
532 1 13.699 -4.36679 -7.24835 12
533 1 11.2443 -7.11746 -1.06804 20
534 1 0.76593 1.95709 -5.78684 21
535 1 -4.10265 4.29748 -4.1429 20
536 1 2.57334 -9.50821 -7.75403 22
537 1 6.42178 2.69551 -10.6075 18
538 1 8.94859 -1.95911 -8.26947 21
539 1 -7.37712 1.96924 18.1615 11
540 1 5.6753 13.6289 0.95494 22
541 1 -3.89274 -4.73054 -16.8861 14
542 1 3.36181 -8.29553 1.32246 21
543 1 7.39533 -0.684054 -15.313 13
544 1 -6.97758 -8.0497 8.80271 20
545 1 -2.96893 11.9153 -1.31048 23
546 1 -9.69353 -4.01705 -13.2096 16
547 1 -15.7638 2.24755 -0.790119 14
548 1 -3.97774 -9.4189 -10.0009 20
549 1 -2.96814 -11.2508 6.67126 21
550 1 3.10833 6.23928 -10.2914 18
551 1 12.2866 3.42154 13.0414 15
552 1 15.2468 9.44085 -2.06071 8
553 1 -8.54408 -12.6437 0.727834 22
554 1 -0.333944 -11.3308 -2.62904 18
555 1 -2.17417 -1.82441 -16.1449 16
556 1 -5.70801 9.76728 9.01901 21
557 1 2.33499 -3.34643 -8.52838 23
558 1 0.442981 3.63655 -0.254026 20
559 1 13.5457 -3.35875 3.88537 16
560 1 2.65533 14.6473 -9.99423 16
561 1 7.39672 -11.6963 0.931466 20
562 1 7.61649 -3.02676 -0.93877 23
563 1 10.9979 7.29132 -8.91876 17
564 1 1.91468 8.75089 13.5575 21
565 1 -7.44617 8.00672 5.90276 18
566 1 -4.88932 -3.61574 -0.640832 19
567 1 11.6347 11.5515 11.324 11
568 1 5.40147 0.435227 15.6088 16
569 1 -0.659182 1.41567 -17.0829 15
570 1 -7.50377 -6.58995 -4.90477 20
571 1 -2.5065 -3.77924 11.0334 21
572 1 6.13591 10.8618 8.91673 17
573 1 4.97237 8.85872 -6.24 21
574 1 -5.49141 11.8468 -12.3474 10
575 1 -0.718357 13.878 -5.87103 21
576 1 10.0905 -2.75555 14.4318 12
577 1 8.13399 7.14431 -13.5221 14
578 1 6.43792 -5.59958 -8.36849 19
579 1 12.605 9.14635 13.4498 10
580 1 -13.4414 -4.83507 -1.02458 21
581 1 -8.30853 11.7326 -11.0202 8
582 1 -0.692598 1.12055 7.08125 22
583 1 -14.5767 2.4704 11.1698 12
584 1 -3.04454 11.1574 -11.0826 17
585 1 3.52376 -14.4085 -3.51733 19
586 1 9.14531 1.72631 -11.543 17
587 1 -2.12596 16.4876 -6.05972 13
588 1 -7.15789 -7.16322 -10.5842 21
589 1 2.27796 -14.5805 7.99896 12
590 1 -12.2811 -2.92362 -3.36127 23
591 1 1.738 11.9131 -14.2897 15
592 1 -5.36576 1.74594 -2.00286 23
593 1 -3.80366 9.64207 14.6919 12
594 1 -12.8516 -7.75189 3.86163 20
595 1 6.20535 10.9707 -3.85217 24
596 1 4.00825 -10.9253 -12.9367 18
597 1 6.0658 -7.16807 12.339 14
598 1 7.97365 0.75072 -3.36694 21
599 1 1.53925 -0.92851 2.18082 22
600 1 -8.37294 5.41555 2.53026 22
601 1 3.123 6.13037 18.7731 12
602 1 4.29274 16.4427 -7.80542 13
603 1 9.96174 -8.6986 -3.46761 22
604 1 3.38103 8.97368 10.2636 21
605 1 4.01668 5.65321 -17.9103 9
606 1 -5.13029 -10.8485 11.043 15
607 1 -2.83041 0.469795 -10.0729 24
608 1 5.94463 -3.89927 -15.7655 17
609 1 2.11138 14.0809 7.03305 19
610 1 10.052 6.32255 -11.4204 13
611 1 -1.9314 2.88636 -12.4708 20
612 1 -3.70102 -11.0768 -1.98559 22
613 1 -11.6268 -3.04286 -10.8452 20
614 1 13.5303 4.56181 2.61855 18
615 1 14.2005 1.043 -4.28607 17
616 1 6.05769 -5.5299 -13.3665 20
617 1 13.6325 6.17751 12.0213 13
618 1 3.83302 -9.43269 -4.51496 20
619 1 6.81122 2.48895 -14.0931 16
620 1 6.23507 12.4573 3.83731 20
621 1 -6.27873 2.8586 3.72213 20
622 1 4.01152 10.9196 12.8574 21
623 1 10.3222 7.68508 -2.37123 23
624 1 15.7975 1.23017 3.9601 13
625 1 6.15013 5.65887 -6.17013 20
626 1 5.95526 5.11163 15.2439 23
627 1 11.4058 4.04254 10.178 18
628 1 4.1625 -4.8905 9.72728 21
629 1 11.6723 13.303 -5.64958 15
630 1 10.4179 0.284012 4.30346 18
631 1 0.728698 3.44938 15.3444 22
632 1 12.8182 -1.78357 -3.84292 19
633 1 9.39219 4.84767 13.4514 22
634 1 -7.86556 -0.253858 -6.66023 21
635 1 16.8712 4.10974 3.70585 11
636 1 9.72587 -4.36049 1.46068 23
637 1 -1.6685 -8.7003 -0.865668 23
638 1 -11.5934 7.67107 10.6658 13
639 1 7.4827 7.54932 13.6152 20
640 1 10.3453 1.19627 12.1517 19
641 1 2.65369 11.1836 8.03041 22
642 1 -0.9053 14.0832 11.6648 11
643 1 3.61001 8.00963 2.60508 19
644 1 -7.62563 -15.8109 1.67875 13
645 1 -4.20629 7.21434 -3.44864 19
646 1 12.5208 12.4866 -8.59444 11
647 1 11.8119 0.491111 -9.31172 15
648 1 1.84357 18.3895 -2.34767 11
649 1 -2.63524 -9.49941 -6.80465 21
650 1 9.82008 -9.32509 -13.6364 11
651 1 -12.9847 -1.54461 2.76513 19
652 1 -7.50212 9.66788 -8.47096 18
653 1 -7.7081 -14.9257 4.58944 15
654 1 -5.76197 1.2605 -10.5768 22
655 1 -16.5967 2.33534 -4.26204 12
656 1 10.206 -10.0696 2.9845 16
657 1 12.6557 11.4563 2.6977 14
658 1 5.08213 -7.93426 8.88525 19
659 1 -16.4758 -4.38192 -6.75613 10
660 1 4.03389 4.78353 2.61481 21
661 1 4.89776 1.01036 -12.9905 21
662 1 3.83054 0.392783 4.26179 20
663 1 -1.37523 1.18374 13.3492 19
664 1 10.1808 12.9693 -11.6916 10
665 1 11.931 0.150542 14.7143 13
666 1 5.26826 4.03411 -8.43279 20
667 1 6.49149 0.0355986 -0.332388 21
668 1 11.9911 13.1521 0.204682 14
669 1 1.7949 -9.2436 -10.7564 19
670 1 -10.0027 -0.703427 13.8127 17
671 1 12.4842 -3.64992 6.53729 14
672 1 -1.62008 10.834 12.7734 16
673 1 4.92601 16.1796 -11.009 9
674 1 -11.3196 6.11128 -6.34099 20
675 1 8.92771 10.3928 3.58041 19
676 1 -8.97873 -15.5853 -0.619276 9
677 1 11.2344 -6.08098 3.98207 18
678 1 7.48863 15.6988 3.44073 14
679 1 -1.23191 4.23387 11.7502 21
680 1 -14.36 -6.66427 9.92439 12
681 1 -16.0143 -1.18736 -8.3129 10
682 1 8.35074 -0.882873 12.8093 20
683 1 -2.93269 -8.46864 11.8084 17
684 1 4.78927 8.26732 14.1875 21
685 1 -2.4771 13.4058 2.36377 23
686 1 10.4073 4.3709 2.08415 19
687 1 8.60417 -5.79692 -0.730277 18
688 1 9.3435 3.53573 4.95259 21
689 1 4.33419 4.38253 -12.2423 20
690 1 -11.9718 -1.83544 6.00929 21
691 1 13.9853 4.57201 -5.04421 15
692 1 -1.66565 -6.38627 -5.61871 21
693 1 11.6262 -8.16423 -10.9844 13
694 1 8.41257 6.78192 5.67658 18
695 1 3.69016 5.92408 5.58691 21
696 1 -6.53081 2.03066 11.0517 18
697 1 8.63227 8.62728 8.46763 21
698 1 -2.78793 -0.845135 16.6476 13
699 1 -2.72976 3.8277 14.4894 22
700 1 -4.33994 -6.51142 -11.7279 20
701 1 -3.43886 1.34381 11.5835 21
702 1 -1.12043 2.6357 -3.13271 23
703 1 8.1215 2.33146 7.62116 21
704 1 -10.7853 -12.9022 11.4015 7
705 1 10.482 11.3673 -1.86236 21
706 1 8.03937 -13.1126 -5.18098 16
707 1 -2.44272 2.90358 -6.51969 23
708 1 8.11234 11.7248 1.06219 20
709 1 10.4088 13.9668 3.38574 13
710 1 4.18104 -1.64644 -16.105 14
711 1 -1.42992 -4.02689 8.13152 20
712 1 5.38764 13.747 -5.6598 18
713 1 12.721 7.87201 2.53546 21
714 1 -0.764859 -3.7503 -2.2362 20
715 1 -6.90535 -8.53969 0.752839 21
716 1 -0.425472 -4.67605 -16.8211 15
717 1 -5.10581 9.74727 -3.6429 23
718 1 11.6266 -6.13932 -13.6126 9
719 1 7.30698 5.07538 2.504 20
720 1 13.6973 5.89053 -7.19009 13
721 1 10.5507 14.1703 -2.91016 15
722 1 -3.90041 3.76935 6.4393 19
723 1 -5.35645 5.21159 1.82182 21
724 1 8.64721 6.14324 -5.29117 19
725 1 10.3018 3.23361 15.7033 16
726 1 8.77859 0.501256 15.2316 16
727 1 -2.15949 -11.0154 9.69744 18
728 1 -7.88978 9.24901 -13.1983 12
729 1 4.09833 13.2989 9.85475 19
730 1 3.6743 -7.54942 -12.5766 22
731 1 3.1226 -2.36798 11.9637 22
732 1 7.40941 16.0823 -8.30068 12
733 1 7.30477 10.3723 6.15561 23
734 1 -5.54263 -0.505884 -0.506745 22
735 1 12.8502 -9.16378 -2.59966 13
736 1 7.34993 7.7907 16.7594 14
737 1 -12.6033 -4.56824 7.54454 20
738 1 4.88272 -16.4947 0.993843 13
739 1 -0.113248 -1.93705 -9.26062 21
740 1 -6.54044 12.424 -0.212028 20
741 1 0.688569 5.63771 3.72807 22
742 1 6.04699 -4.82848 -2.94465 19
743 1 3.27573 11.3458 2.34214 19
744 1 -13.4766 -4.68692 4.39663 20
745 1 -4.10737 1.69371 18.1645 13
746 1 -2.4563 3.87018 -16.6184 13
747 1 -5.5813 3.79043 -15.7199 14
748 1 4.51021 -13.3558 -0.167472 20
749 1 8.29168 9.13276 -4.81578 25
750 1 1.95811 -6.71854 3.50694 21
751 1 -2.09211 6.53302 3.22864 21
752 1 -11.4766 1.71746 9.95855 18
753 1 2.07916 -0.482077 -13.5049 19
754 1 0.57727 -12.2073 6.58618 22
755 1 0.919464 14.0038 2.33535 18
756 1 -4.80898 1.32039 14.4025 22
757 1 -2.06693 -1.92871 0.443015 22
758 1 -5.97939 -9.20659 -12.9317 15
759 1 -9.16008 -9.3464 -11.865 14
760 1 -4.99016 -14.797 -6.50096 13
761 1 -1.91744 10.9972 -7.79516 20
762 1 5.45486 -2.6673 -8.19252 22
763 1 3.65977 0.474298 0.115164 21
764 1 -4.72819 11.3694 2.77696 19
765 1 7.1593 -8.70459 -8.54404 21
766 1 6.77497 -16.9982 -1.24281 9
767 1 2.58646 -6.66965 12.2925 16
768 1 16.1797 6.27092 -4.32029 12
769 1 -2.13994 -12.4824 -4.87245 21
770 1 -10.6194 -2.22338 9.1614 19
771 1 -1.60114 -0.0661444 -6.76521 23
772 1 -9.41683 -9.97221 2.29091 20
773 1 -7.19164 -10.0735 -2.43691 20
774 1 2.56388 -1.45878 -3.21325 21
775 1 -13.6387 -0.151831 11.8806 11
776 1 -10.4215 -15.0128 2.53334 11
777 1 14.4995 8.28683 -5.21033 15
778 1 -4.77095 16.4256 2.586 12
779 1 -3.51412 1.13516 7.98736 18
780 1 -14.2698 5.2984 6.0938 16
781 1 11.7652 -1.94598 1.26167 21
782 1 -14.35 -1.07359 -11.3099 12
783 1 0.706482 7.55661 -3.56666 21
784 1 6.56334 2.41975 -5.63948 20
785 1 8.28381 12.6849 11.1176 13
786 1 0.283133 -1.94222 6.24373 20
787 1 11.2549 4.79661 -3.2196 19
788 1 -14.4572 1.70315 -6.5458 19
789 1 -13.7268 -6.66437 -6.93289 17
790 1 -0.609875 8.86644 15.0096 16
791 1 4.53523 6.62639 -13.6319 19
792 1 11.0321 11.6197 5.63437 16
793 1 -2.36532 -1.06484 9.46807 19
794 1 1.60448 -15.2708 -0.897841 23
795 1 -6.67136 -15.4047 7.98925 13
796 1 -0.589534 -8.99867 7.93084 21
797 1 13.5674 8.75637 10.8509 11
798 1 1.53326 -6.00283 -10.2933 23
799 1 -6.83922 7.97834 0.518304 22
800 1 5.96156 7.41217 4.17762 19
801 1 -11.9758 -7.69996 7.29759 21
802 1 11.2425 10.0088 -10.5209 16
803 1 0.492394 -17.1188 -6.46919 14
804 1 2.08864 -15.9424 1.68925 18
805 1 0.280887 -17.8228 0.152107 14
806 1 3.20407 6.37813 -7.69579 20
807 1 3.29622 15.7835 0.689213 19
808 1 -4.03671 0.963273 -12.957 22
809 1 1.89686 0.624768 13.5221 23
810 1 -0.702359 6.79311 -15.6622 13
811 1 -11.5595 -1.56878 -13.3035 13
812 1 -11.2613 -0.362319 -2.06935 21
813 1 3.53771 16.3299 -4.68966 16
814 1 9.69924 -0.49772 -1.04451 22
815 1 -4.78957 -7.13455 -15.0529 16
816 1 -5.89451 -5.7097 1.10742 21
817 1 9.57779 3.04928 -5.72962 19
818 1 13.1192 -4.82609 0.735426 16
819 1 -8.98365 6.41684 11.7735 17
820 1 5.63856 -11.949 -3.93109 20
821 1 12.7446 -8.29348 0.941744 10
822 1 11.8109 -1.62929 11.7414 17
823 1 -0.1666 11.0273 6.6058 22
824 1 -11.4981 1.58914 12.8536 12
825 1 -3.96622 3.79789 9.83884 19
826 1 -4.63152 -13.2081 9.0364 16
827 1 8.45957 1.84028 1.98483 21
828 1 5.51012 8.61522 18.8729 11
829 1 -14.7644 -6.44162 1.59455 17
830 1 9.29974 -5.54839 -3.5245 23
831 1 1.93819 4.78631 -2.54331 19
832 1 -11.9628 6.5539 -0.92217 20
833 1 0.784294 8.66015 1.9535 21
834 1 -0.138055 -16.0095 6.52356 11
835 1 3.88208 2.987 14.0157 20
836 1 -0.170996 11.4291 3.3001 23
837 1 4.51377 -10.8633 1.66453 21
838 1 -8.46076 -2.32185 -1.177 18
839 1 7.48944 -2.10856 7.59784 21
840 1 -15.5353 -6.48944 -4.06208 14
841 1 5.57904 10.6214 16.1867 12
842 1 7.64549 13.0022 -2.00846 17
843 1 -13.4081 -11.1152 5.98991 17
844 1 -4.67067 -15.835 3.56314 14
845 1 10.4409 -6.18893 8.90972 18
846 1 12.5028 -7.16446 7.05247 11
847 1 5.7783 8.03263 7.59831 20
848 1 -0.844248 6.61924 0.159965 19
849 1 -0.226382 -8.06857 -8.31141 21
850 1 0.909129 4.66802 -11.3693 20
851 1 -6.71282 -0.703804 13.1426 23
852 1 -1.18053 16.5053 3.0748 17
853 1 11.4725 1.18341 1.26414 24
854 1 3.31919 6.45022 -4.75985 21
855 1 -6.00209 7.15517 14.3683 15
856 1 6.67741 8.26905 10.9959 20
857 1 6.74718 -0.464447 -10.5066 20
858 1 -6.13185 -13.5257 2.32449 21
859 1 -4.93242 -1.84639 -5.64956 22
860 1 14.436 -1.08346 6.6445 14
861 1 -1.08569 0.450908 -14.2742 22
862 1 1.08441 6.25674 10.5113 23
863 1 10.0853 -10.8594 -10.257 12
864 1 8.26312 8.72597 -10.7326 19
865 1 -0.450454 -6.42337 -2.46845 20
866 1 11.6395 -2.84591 -9.01448 18
867 1 14.8351 -1.60831 1.2038 16
868 1 -1.85425 -3.33931 14.3599 16
869 1 -8.33927 -9.33167 -8.33348 17
870 1 1.25702 -2.19564 -0.834549 19
871 1 8.29002 16.6359 -2.61121 12