ITEM: TIMESTEP
168000
ITEM: NUMBER OF ATOMS
2000
ITEM: BOX BOUNDS pp pp pp
-3.0000000000000000e+01 3.0000000000000000e+01
-3.0000000000000000e+01 3.0000000000000000e+01
-3.0000000000000000e+01 3.0000000000000000e+01
ITEM: ATOMS id type x y z 
1 1 -8.41617 5.39417 -14.363 
2 1 -8.77296 -8.86586 -9.84202 
3 1 2.99122 10.5783 11.5166 
4 1 8.42596 -11.1763 7.16572 
5 1 -12.1529 5.49288 -4.03293 
6 1 7.4406 -7.49927 -11.1465 
7 1 -14.965 3.92494 -5.49193 
8 1 1.73827 -4.62796 5.84777 
9 1 -8.7981 1.10487 -11.025 
10 1 -14.013 -9.35046 6.25205 
11 1 11.2228 5.01441 -11.0603 
12 1 -4.27981 1.47499 -4.91825 
13 1 -3.54831 -13.8122 2.93033 
14 1 -13.2004 -8.49025 3.62924 
15 1 -0.934536 4.02899 17.3303 
16 1 7.99622 -3.62058 7.0119 
17 1 -0.190327 3.07323 7.92296 
18 1 8.00654 -1.03087 1.655 
19 1 -1.83263 8.34837 -12.2564 
20 1 2.79744 0.528889 9.66131 
21 1 -7.88537 -1.36482 -15.5289 
22 1 -12.7428 -4.34857 12.6424 
23 1 13.2106 4.53991 6.22957 
24 1 3.81656 10.2683 -11.0197 
25 1 3.71613 7.21229 -13.4479 
26 1 14.0534 0.61249 10.5295 
27 1 -8.19305 0.440614 1.54913 
28 1 -15.0774 3.79533 -8.89349 
29 1 -3.12126 -2.12531 -8.58476 
30 1 -10.5642 5.11297 7.74267 
31 1 8.43002 -13.4853 4.15608 
32 1 3.0777 -1.46994 7.36418 
33 1 1.22067 -14.2541 -10.8777 
34 1 9.95842 -12.6332 -1.12236 
35 1 -7.33791 -13.1645 -4.63376 
36 1 -10.0497 -5.73635 11.5582 
37 1 3.39546 -2.56081 -5.06304 
38 1 -0.830244 -9.24443 -13.1491 
39 1 6.57368 -8.49223 -14.5411 
40 1 1.06507 4.82134 -15.9907 
41 1 -0.357685 4.87009 10.4243 
42 1 -0.214123 -10.169 8.37082 
43 1 4.9665 -4.14047 12.2141 
44 1 -10.0363 -1.40042 3.04918 
45 1 -15.5699 -3.36472 7.86695 
46 1 -8.96884 1.26636 -1.93246 
47 1 -6.49758 12.5367 -0.0252091 
48 1 -4.82122 -13.3741 -11.1866 
49 1 0.515397 0.0916076 -11.2037 
50 1 4.12738 -4.64278 -9.97799 
51 1 -0.381948 -6.46666 13.4403 
52 1 -11.8915 4.23763 -0.923446 
53 1 7.02347 12.3784 -13.9304 
54 1 1.01259 12.2799 8.68377 
55 1 -6.57817 5.84066 -10.3027 
56 1 -0.594116 11.7549 -2.32793 
57 1 1.6174 -15.7067 4.24714 
58 1 8.08172 -8.12748 -7.88731 
59 1 3.89297 -7.86335 -15.0143 
60 1 -7.02017 9.67743 10.7657 
61 1 -13.3688 -3.66114 -9.28742 
62 1 9.83376 3.50495 6.57162 
63 1 -8.78046 8.10665 -3.45785 
64 1 -8.06235 -10.083 8.38758 
65 1 -2.66622 13.6896 12.5361 
66 1 -12.1151 1.48331 -6.81616 
67 1 -5.54891 8.3188 13.3355 
68 1 -0.241045 5.69397 -5.24515 
69 1 1.12472 7.73829 1.37556 
70 1 -8.70176 -12.5089 6.47991 
71 1 3.18026 2.23393 7.11619 
72 1 5.581 -15.381 -4.02682 
73 1 5.94685 11.2405 12.3261 
74 1 -12.9139 1.71689 -9.71001 
75 1 -11.4128 8.04424 -9.58899 
76 1 5.30456 5.30533 11.0612 
77 1 13.3136 -7.83287 -7.80929 
78 1 8.81999 -10.41 3.51066 
79 1 -15.7792 -1.4279 3.64397 
80 1 -7.62207 -2.39464 1.29371 
81 1 5.46213 15.7752 6.16016 
82 1 5.29712 -0.694068 11.9795 
83 1 -7.04558 -14.4783 4.07806 
84 1 -10.5823 -2.27036 0.515918 
85 1 15.1251 2.70322 7.64554 
86 1 8.87783 -2.23594 -3.86997 
87 1 -3.45705 11.8889 6.43258 
88 1 4.718 -3.98761 7.06455 
89 1 -6.31944 -6.25151 3.88662 
90 1 -3.43688 -6.78238 -8.65872 
91 1 -6.22584 6.80478 10.9576 
92 1 -8.325 13.2943 -3.69662 
93 1 -3.35832 6.98855 -9.42211 
94 1 4.23185 -0.320663 -2.92252 
95 1 4.50419 0.676295 -7.50517 
96 1 7.65002 11.6553 -9.89412 
97 1 8.40129 -6.92042 3.65071 
98 1 5.74414 -9.37521 8.80474 
99 1 -3.27547 15.1489 -9.18228 
100 1 -10.4072 12.7344 4.04479 
101 1 -8.23209 -2.80599 11.6364 
102 1 -5.30594 10.3094 8.7112 
103 1 -4.55615 -5.90241 9.49469 
104 1 13.2211 -9.68594 -5.41938 
105 1 -12.5756 3.50317 4.24222 
106 1 -11.5755 -14.2924 2.55945 
107 1 10.6467 -9.54716 -7.0061 
108 1 3.76744 -1.1408 -10.53 
109 1 -4.96009 -2.14807 -14.9853 
110 1 6.42777 0.720945 4.2048 
111 1 -1.47892 10.6622 1.26612 
112 1 -7.17921 8.35224 -13.9486 
113 1 2.02438 11.3714 14.6903 
114 1 0.128013 11.7368 -5.91015 
115 1 -12.4697 8.34742 1.57532 
116 1 1.38451 10.5613 0.515203 
117 1 -1.18809 0.279263 -3.82046 
118 1 -2.01021 -6.27279 10.7714 
119 1 14.0161 -2.03477 9.49865 
120 1 -0.962618 -4.60044 -7.81314 
121 1 4.5388 -4.68188 -7.14914 
122 1 -2.40162 -1.11912 6.9372 
123 1 4.01331 -1.87229 14.1903 
124 1 -9.60438 -8.57955 -1.30013 
125 1 6.86436 -3.81621 1.99574 
126 1 -10.2522 -8.2833 -4.42404 
127 1 11.277 -10.5816 1.78804 
128 1 -6.17733 5.13046 4.59489 
129 1 10.3561 5.41716 -15.5873 
130 1 4.38352 17.5543 -3.2609 
131 1 -8.4234 -11.6268 11.587 
132 1 -10.4296 -13.1248 9.3862 
133 1 -3.45981 5.11304 1.98619 
134 1 1.14994 -9.57405 -15.2776 
135 1 2.64661 4.14756 -4.78364 
136 1 10.4005 -10.9741 -4.07947 
137 1 -2.38265 -15.7207 6.70441 
138 1 -5.82449 -9.04978 2.30972 
139 1 16.382 5.68801 9.07388 
140 1 9.39523 0.359962 -11.823 
141 1 -15.2154 -5.44392 2.85491 
142 1 10.731 8.93468 5.06182 
143 1 14.2426 8.97974 1.46796 
144 1 -4.06811 4.61442 16.1973 
145 1 5.08925 7.40003 -0.154285 
146 1 -2.10724 10.5732 9.53628 
147 1 -3.22549 12.4801 -6.38007 
148 1 -1.06396 -6.74219 -11.4785 
149 1 6.15841 -10.1934 -11.6014 
150 1 1.32897 9.7503 -12.5227 
151 1 8.10704 -5.68924 13.1918 
152 1 1.82942 -1.6592 -17.1888 
153 1 -2.98484 7.20418 -6.11444 
154 1 10.2759 2.35281 -3.58456 
155 1 -8.63481 9.53124 -5.73124 
156 1 3.77248 -3.18752 -1.68677 
157 1 -8.17572 15.4725 -1.36711 
158 1 7.39435 0.0602536 -14.4369 
159 1 7.338 -8.73904 6.0638 
160 1 -5.51654 4.99724 -7.57574 
161 1 -7.4244 12.6869 9.67809 
162 1 11.6196 9.67152 -6.69119 
163 1 -0.187399 3.24578 -0.744546 
164 1 9.03714 14.9478 -8.47188 
165 1 -3.4153 15.6366 1.3152 
166 1 10.6739 10.1947 -0.635583 
167 1 -6.06761 11.2008 -5.98511 
168 1 1.13327 15.4977 -9.32447 
169 1 5.45031 9.7377 -14.8088 
170 1 -11.9414 -10.9434 1.01449 
171 1 -15.213 8.06957 2.44206 
172 1 -8.40115 -5.65401 -10.4022 
173 1 -2.8053 -12.1594 -14.2006 
174 1 10.2356 12.4712 8.50029 
175 1 -0.0680692 16.9448 7.10917 
176 1 -12.647 -1.83949 -6.69224 
177 1 -10.5291 13.2717 -1.4176 
178 1 15.4295 -2.05986 -2.04608 
179 1 -8.89759 1.64993 -14.1121 
180 1 5.87087 2.81936 16.9748 
181 1 4.43668 17.2817 3.14992 
182 1 0.643985 6.40039 7.72297 
183 1 1.87007 -6.67894 -17.2116 
184 1 -4.21346 13.2152 9.35491 
185 1 -4.75105 12.6085 -3.40566 
186 1 1.83407 -4.09131 13.6089 
187 1 -9.74489 -4.5665 2.89163 
188 1 -5.55831 -11.0833 -12.3357 
189 1 -11.5175 10.0879 -6.71824 
190 1 -2.72468 -10.8724 6.74369 
191 1 3.26129 -15.394 -5.69718 
192 1 0.401049 12.6727 -14.3576 
193 1 -16.009 -0.0535628 8.86702 
194 1 2.88879 8.63354 -1.38201 
195 1 6.51372 11.1855 -6.32743 
196 1 -5.79997 5.14163 13.2715 
197 1 0.401077 -8.98597 11.3629 
198 1 -8.82893 3.67766 0.0021573 
199 1 1.56379 16.6867 4.42816 
200 1 2.8681 5.30009 6.04006 
201 1 12.0632 4.55356 13.3282 
202 1 -8.22056 15.1054 4.35684 
203 1 11.7719 -4.10643 -4.47635 
204 1 -5.32312 11.5016 12.404 
205 1 -4.84181 1.6576 -8.11798 
206 1 10.8352 -7.29383 1.36496 
207 1 -4.44173 -5.70632 6.23743 
208 1 -14.861 -0.724446 6.12703 
209 1 -8.86844 -10.6214 0.182984 
210 1 4.27731 5.28354 14.3802 
211 1 -13.094 -2.47401 -1.29679 
212 1 -1.86017 2.59842 1.4575 
213 1 -3.21745 -14.9728 -0.592256 
214 1 -2.26345 -0.116179 3.37969 
215 1 -7.05536 -3.0699 -4.30506 
216 1 5.9938 -7.20794 -1.41884 
217 1 -2.85599 10.1993 4.17684 
218 1 -8.21835 -0.241751 4.61625 
219 1 5.74922 14.2558 11.8298 
220 1 -9.59222 0.76425 -5.37939 
221 1 -7.50404 7.82093 -7.89323 
222 1 -15.4157 -4.99416 -6.45156 
223 1 -4.83318 -4.54707 11.5056 
224 1 -0.251596 -8.32219 3.52485 
225 1 0.691215 -11.8777 6.22402 
226 1 -11.9366 12.2557 1.34732 
227 1 14.7293 2.36318 4.86905 
228 1 5.29109 6.47693 -3.87577 
229 1 -6.93329 -7.10116 -14.3434 
230 1 6.13071 -1.9598 4.88666 
231 1 -5.1077 -3.59877 2.13188 
232 1 5.38562 -15.5401 4.43338 
233 1 -4.17648 9.22578 -14.9081 
234 1 0.736333 -11.7728 -13.0884 
235 1 9.77934 3.1165 -13.0439 
236 1 6.88329 7.09355 -16.3249 
237 1 -8.10083 -3.85274 -7.39716 
238 1 1.14666 10.5577 -9.05555 
239 1 -11.7941 -10.5834 10.7071 
240 1 5.18835 16.2063 -0.00227493 
241 1 -9.67134 3.70571 15.3882 
242 1 -6.83039 14.8003 -4.65659 
243 1 6.98981 2.3634 6.87843 
244 1 -6.01883 -4.67128 -12.8979 
245 1 -1.92993 9.82226 -7.89731 
246 1 3.5146 1.77378 -10.6246 
247 1 -9.61102 -12.3209 3.41914 
248 1 0.446508 4.4971 2.33331 
249 1 -9.30846 4.76279 5.10366 
250 1 -7.57428 7.79016 5.13721 
251 1 0.61749 -10.1466 -7.04133 
252 1 -5.54303 -16.6623 4.35442 
253 1 15.0409 -8.64177 -2.68257 
254 1 -1.19466 2.70898 4.81225 
255 1 -5.18272 -0.427034 2.2156 
256 1 0.358778 -4.68285 -3.95759 
257 1 12.4917 6.93535 14.7555 
258 1 6.10714 6.25482 -9.1245 
259 1 -2.13322 14.1716 -3.52475 
260 1 -10.2416 2.39028 3.50343 
261 1 -10.6307 11.0233 -3.91255 
262 1 2.71675 4.14679 9.32378 
263 1 3.74748 -16.9747 2.30423 
264 1 12.8646 0.705145 -0.540846 
265 1 2.11766 8.22009 5.88873 
266 1 -8.41437 10.2001 3.87864 
267 1 -12.6394 -3.66551 -4.24399 
268 1 6.09122 7.73988 -12.0298 
269 1 -0.0149641 -1.51768 12.3289 
270 1 9.10152 13.7135 -11.9002 
271 1 2.23833 -11.0332 -4.37078 
272 1 -3.84973 -2.28087 -11.7364 
273 1 -0.729437 -17.4517 5.18713 
274 1 6.1445 -0.90505 -5.72558 
275 1 -7.0641 -4.88523 6.74984 
276 1 3.01959 -14.8378 -2.1457 
277 1 -10.8674 -4.31796 -7.92267 
278 1 3.70524 14.9999 -2.12648 
279 1 -1.27974 -1.67239 -12.3372 
280 1 2.54174 3.54699 17.3282 
281 1 14.383 2.95327 1.28481 
282 1 -2.27868 -5.66187 2.63077 
283 1 12.6027 -5.52736 -10.2054 
284 1 -1.96677 -2.76959 1.68356 
285 1 -8.68253 -2.70884 -10.3848 
286 1 -10.2348 2.55743 -8.90685 
287 1 -7.15922 -13.5324 9.25877 
288 1 9.14281 1.34359 9.30867 
289 1 6.63579 -6.30889 8.31681 
290 1 -3.78118 -7.57544 -13.1058 
291 1 3.9842 -7.02309 6.79088 
292 1 0.0949772 8.00202 -10.2532 
293 1 6.09525 9.82357 1.80317 
294 1 -9.44708 -6.79135 5.22232 
295 1 2.4371 13.6041 0.0715658 
296 1 -6.49492 -3.16544 13.7031 
297 1 -11.0458 -9.60805 -7.30442 
298 1 -6.64871 -6.93334 -8.09524 
299 1 0.903978 7.01155 -14.0069 
300 1 -8.43653 -12.1859 -10.9308 
301 1 -2.31843 -10.4528 2.10254 
302 1 -3.02114 -4.71534 -0.430679 
303 1 8.85724 -6.23381 -14.0968 
304 1 14.0795 -2.3723 -9.51073 
305 1 5.4512 -6.38153 1.54699 
306 1 12.0075 3.25762 3.60847 
307 1 -4.63926 -4.5575 -3.41116 
308 1 -9.5567 -4.13202 8.89812 
309 1 -4.02811 -12.0236 0.0543047 
310 1 7.79348 5.52264 16.256 
311 1 -7.39376 -17.7417 6.23764 
312 1 2.52751 0.547057 -5.12145 
313 1 -1.00446 -13.0779 0.545146 
314 1 -2.57802 16.5122 -1.78798 
315 1 9.21174 2.66239 -9.28874 
316 1 -6.71928 -4.74044 -16.495 
317 1 2.72948 -6.43727 -0.835054 
318 1 -12.4812 -7.51865 11.7962 
319 1 3.3379 8.96818 16.8924 
320 1 1.3027 -12.6415 -1.36957 
321 1 -0.142711 -12.3005 -8.90981 
322 1 -10.3309 7.14629 -12.6192 
323 1 8.51805 6.01826 7.2059 
324 1 -7.20638 2.83656 -9.54019 
325 1 -1.51112 5.38869 -11.9929 
326 1 -3.74556 -2.85926 4.42181 
327 1 5.72886 -11.6802 -8.89408 
328 1 -5.62196 15.0791 -1.27419 
329 1 2.34631 11.7297 5.80711 
330 1 11.7787 0.332692 5.75642 
331 1 -11.4688 2.53233 6.97621 
332 1 -6.38097 -8.32891 10.2729 
333 1 -5.03346 7.69453 2.88259 
334 1 1.20752 -3.46958 -11.3539 
335 1 13.9034 11.0174 -4.3006 
336 1 4.39048 -10.0585 1.3496 
337 1 -3.6066 -2.63515 13.1075 
338 1 -17.0969 -4.03429 5.36257 
339 1 0.263853 -16.1354 -4.46053 
340 1 -9.54621 7.35771 10.2116 
341 1 -10.9204 5.0233 12.8881 
342 1 -13.8812 -5.35105 9.66593 
343 1 -14.7418 -6.22548 6.72673 
344 1 14.2742 -5.25169 -2.23583 
345 1 -13.9189 -8.6141 9.54302 
346 1 9.8041 -3.19665 -7.61489 
347 1 12.6285 -10.179 -2.05452 
348 1 1.59966 18.2277 -3.41036 
349 1 -1.02675 -6.05402 5.68697 
350 1 -8.75996 12.5841 -6.75517 
351 1 0.76198 0.509998 7.02208 
352 1 11.4501 7.23386 11.146 
353 1 -9.33879 -3.32415 6.01395 
354 1 5.65865 -12.0621 -3.74885 
355 1 -4.80579 10.2112 1.67486 
356 1 -10.7914 5.19877 2.09744 
357 1 1.71212 2.72537 4.70706 
358 1 4.74006 -10.5667 6.65279 
359 1 13.1033 -6.83886 6.76325 
360 1 -2.6609 5.13623 7.96309 
361 1 -7.57654 -5.36305 -2.27062 
362 1 4.66407 -1.45738 1.46747 
363 1 0.282774 1.69239 15.859 
364 1 -0.717883 13.7817 0.493316 
365 1 10.1416 7.50427 17.142 
366 1 -5.44866 14.2383 -7.76385 
367 1 -1.64165 -6.79559 -18.2738 
368 1 -7.41931 0.215111 -4.17144 
369 1 3.96942 -10.8159 -13.5721 
370 1 -8.21626 4.45612 10.6526 
371 1 -16.8182 4.63123 1.99181 
372 1 -4.80761 -4.62803 -6.73232 
373 1 -3.21046 9.73014 -4.55755 
374 1 8.67691 -0.580739 6.53917 
375 1 -9.39098 -13.7289 0.547407 
376 1 9.87638 -8.56669 8.27364 
377 1 -5.45776 2.67731 0.718378 
378 1 -9.07333 -8.61693 11.2242 
379 1 -13.9019 8.07402 5.16456 
380 1 0.416906 -4.36227 10.2199 
381 1 5.51477 -10.2542 -6.49421 
382 1 -5.93203 -1.23687 -9.50785 
383 1 8.99792 -2.73714 -13.4816 
384 1 4.20537 14.3547 4.17405 
385 1 -11.6343 2.07166 -3.51326 
386 1 1.94582 -8.47048 -11.9762 
387 1 11.6509 8.40704 -14.6204 
388 1 -4.68745 -14.6347 -5.31715 
389 1 -12.8072 -10.0455 -4.38331 
390 1 -3.27917 -7.97271 0.675785 
391 1 11.2807 4.27975 16.7978 
392 1 -4.41219 -1.49531 -3.07 
393 1 11.5583 3.72109 -0.7569 
394 1 -9.34268 4.03996 -11.7011 
395 1 2.59854 18.0276 -0.323448 
396 1 -16.4926 -1.87944 -5.19815 
397 1 3.67613 1.81071 2.37822 
398 1 -7.16664 12.6553 3.09854 
399 1 -9.18415 11.0612 0.593733 
400 1 -5.21384 7.05932 7.49838 
401 1 7.6001 1.56513 12.0572 
402 1 12.2806 -1.34597 -6.73392 
403 1 7.27838 -2.39781 13.0204 
404 1 12.345 1.41495 -5.83997 
405 1 -5.5825 -15.7316 -2.27738 
406 1 5.03686 3.57944 4.36328 
407 1 -3.77115 4.56538 -1.31487 
408 1 0.813684 -7.70893 -4.33086 
409 1 0.653551 10.3601 3.52999 
410 1 4.91664 2.78626 -3.06228 
411 1 -10.2816 3.9604 -6.16104 
412 1 2.40402 -9.52887 -1.35269 
413 1 11.3279 -0.675829 8.56432 
414 1 -10.0056 -2.15352 -5.48431 
415 1 -4.24938 -11.0107 4.48108 
416 1 -6.62621 -6.50795 12.9322 
417 1 -3.31541 9.60811 -1.61767 
418 1 -11.0347 -6.05596 -2.1716 
419 1 9.33201 6.79566 14.0674 
420 1 -7.03446 6.18724 -1.86649 
421 1 1.69656 12.9367 -11.3257 
422 1 5.32096 12.7207 6.85909 
423 1 -13.6895 -9.59795 -1.5588 
424 1 -4.33379 -7.90811 -5.21363 
425 1 -12.7999 0.491527 8.76111 
426 1 -10.3985 7.19581 -6.39108 
427 1 5.59781 -8.61535 3.88393 
428 1 -5.30141 -12.7092 -2.38448 
429 1 12.4421 10.2102 7.33407 
430 1 8.57566 9.7643 -15.2461 
431 1 -11.9851 4.75762 -10.5821 
432 1 -1.35776 10.8679 -10.7861 
433 1 -7.50677 6.10054 -5.20757 
434 1 1.12298 -12.4667 3.20941 
435 1 13.7043 7.50533 4.32827 
436 1 2.33462 10.0582 -15.5911 
437 1 -4.80722 0.48765 8.51295 
438 1 -13.5242 1.04612 -1.44975 
439 1 1.69212 1.81037 -2.42239 
440 1 -6.49977 2.18853 6.18485 
441 1 -1.72643 -12.8642 4.85014 
442 1 1.75095 -5.36089 -6.53048 
443 1 5.09407 -8.0379 -9.07714 
444 1 3.09017 -2.93792 3.93561 
445 1 -11.6374 -0.964883 5.79978 
446 1 -14.6312 -2.10918 10.7989 
447 1 -13.3363 10.6706 3.28629 
448 1 0.727414 -4.93289 2.74394 
449 1 -5.57875 1.20722 -15.0897 
450 1 7.99968 -11.3418 -6.29681 
451 1 -0.119661 -9.71655 -10.1777 
452 1 -4.76551 -3.29358 7.57872 
453 1 3.75903 -5.76105 -3.73013 
454 1 -3.38916 3.74727 -13.9044 
455 1 7.80634 -11.98 0.841161 
456 1 3.10709 10.5233 -6.7965 
457 1 -11.637 7.82596 7.46463 
458 1 -4.95759 -0.801437 15.7194 
459 1 -11.2396 -6.46143 -9.69731 
460 1 -6.4395 -7.94783 6.43884 
461 1 10.693 -6.7948 11.1203 
462 1 7.17226 2.47802 2.03834 
463 1 -4.39867 2.56498 3.82176 
464 1 1.32535 0.362931 -8.02997 
465 1 10.8152 -8.87488 5.2791 
466 1 -2.58549 6.68711 -3.02484 
467 1 13.0712 7.79728 -4.68733 
468 1 0.427068 1.76115 10.4459 
469 1 1.32662 13.7399 -3.70549 
470 1 6.3562 -5.75101 5.16644 
471 1 -2.22501 -13.3624 -6.23715 
472 1 -2.53311 6.57144 17.3857 
473 1 -2.99972 15.3665 7.23784 
474 1 -9.77717 -12.7077 -7.70327 
475 1 7.94384 14.6621 -0.177749 
476 1 3.94174 7.04003 8.50725 
477 1 -8.672 2.08599 8.23016 
478 1 -5.03043 -6.83372 -2.04023 
479 1 -14.5799 2.37594 6.54086 
480 1 -9.39982 -6.90849 -7.11716 
481 1 -7.5158 5.2193 7.70239 
482 1 -5.04539 -11.4308 -6.10852 
483 1 -0.832313 -6.67088 -14.9101 
484 1 -4.22766 -13.8839 6.09574 
485 1 -6.84177 -2.56091 4.24003 
486 1 12.1401 1.89652 8.97845 
487 1 -3.36805 -6.31784 13.6243 
488 1 -8.3028 8.78682 -10.9356 
489 1 7.23224 4.38015 -4.01109 
490 1 -6.06896 -14.8466 1.01694 
491 1 -0.502558 2.50446 -9.2007 
492 1 -0.394632 16.521 0.887074 
493 1 0.612739 8.26918 -7.11389 
494 1 -1.08057 7.6975 11.1852 
495 1 -15.5683 -4.07302 -2.91053 
496 1 -1.01417 16.6836 -4.15313 
497 1 5.84187 13.9316 -7.89519 
498 1 -7.86048 -9.54915 -6.66397 
499 1 3.70435 1.4293 15.3351 
500 1 0.328473 -15.1228 -7.63111 
501 1 -1.95209 -4.47449 -10.726 
502 1 7.14313 -15.3836 1.7308 
503 1 -11.802 10.1238 -0.792916 
504 1 1.14835 6.47383 13.5392 
505 1 6.86571 9.46313 -1.36113 
506 1 4.47465 11.0413 -0.733132 
507 1 -10.4796 10.5006 -9.73125 
508 1 2.4566 2.95516 -8.15744 
509 1 1.12271 -8.29759 6.26193 
510 1 -15.7651 -6.5388 -0.99791 
511 1 6.02749 4.36829 -0.474626 
512 1 3.23294 18.1766 6.37992 
513 1 -4.62806 6.64299 -12.7289 
514 1 10.8924 6.87672 -0.552216 
515 1 3.92841 16.6766 -8.96956 
516 1 8.68202 -6.57473 -0.456583 
517 1 15.8371 2.75717 -1.46376 
518 1 0.770546 -0.229028 -14.4447 
519 1 0.770227 -10.6232 1.06489 
520 1 -1.02925 -13.4904 8.6996 
521 1 3.48959 -9.85707 11.4695 
522 1 -9.46314 5.50126 -9.06094 
523 1 -11.2762 -14.1393 6.01957 
524 1 3.43432 5.1221 -2.14073 
525 1 -1.93181 -14.7242 -9.76508 
526 1 8.03964 13.6002 5.8456 
527 1 4.4842 1.2798 -13.4217 
528 1 1.31117 -1.05504 15.773 
529 1 -15.0199 1.18333 11.7807 
530 1 -1.40753 -17.385 -0.284326 
531 1 -12.9496 -2.74803 2.58553 
532 1 13.3142 -4.46931 -7.00841 
533 1 12.2658 -2.47752 -1.85178 
534 1 0.048118 2.15703 -5.75169 
535 1 -4.78182 4.85107 -4.46306 
536 1 3.00879 -8.12836 -6.6301 
537 1 7.18093 2.17617 -12.0405 
538 1 9.75874 -5.80409 -6.42748 
539 1 -6.22638 2.64776 16.0361 
540 1 5.3353 13.75 0.77979 
541 1 -3.72165 -4.02376 -17.4016 
542 1 2.00245 -7.98807 1.86059 
543 1 7.66208 -0.747852 -17.1386 
544 1 -7.23355 -4.94946 9.92505 
545 1 -3.42024 12.7341 -0.625633 
546 1 -8.74929 -4.1796 -14.3123 
547 1 -15.6763 -0.136777 0.831415 
548 1 -3.30426 -9.30049 -10.8143 
549 1 -4.01268 -9.39269 9.55936 
550 1 3.21671 7.45733 -10.6971 
551 1 14.4016 2.80367 12.9335 
552 1 15.0725 5.82247 -3.26926 
553 1 -8.34628 -13.1268 -1.89878 
554 1 -1.28909 -10.2354 -1.32643 
555 1 -1.40176 -1.99739 -15.5604 
556 1 -9.09558 10.036 8.33159 
557 1 2.61441 -2.44093 -8.31875 
558 1 -1.39534 5.97615 -0.133164 
559 1 12.1981 -2.7239 3.78127 
560 1 5.36583 12.885 -11.1773 
561 1 7.52488 -8.54649 1.28677 
562 1 6.75428 -1.21506 -1.30803 
563 1 11.942 8.15812 -10.859 
564 1 3.79561 8.69461 13.7003 
565 1 -10.9881 7.34248 4.76625 
566 1 -5.88909 -3.12335 -0.741505 
567 1 8.84259 12.8515 11.4553 
568 1 6.57754 -0.128456 15.4977 
569 1 2.72743 1.83154 -16.5572 
570 1 -7.08625 -6.4988 -5.11289 
571 1 -2.91584 -2.94252 10.4049 
572 1 6.98459 11.1368 9.33449 
573 1 4.45232 8.13879 -6.6886 
574 1 -3.8907 11.7302 -10.1907 
575 1 -1.16481 15.1284 -6.8145 
576 1 10.4215 -3.37763 12.7375 
577 1 13.8122 6.35963 -12.7893 
578 1 10.515 -7.88215 -4.08022 
579 1 13.5505 9.06039 13.0387 
580 1 -14.3959 -8.61043 1.16216 
581 1 -6.80997 11.3402 -9.04459 
582 1 0.00229709 -1.3493 9.22421 
583 1 -12.9313 -0.767743 13.3322 
584 1 -2.82988 11.9692 -13.8446 
585 1 4.27024 -12.1936 -0.429583 
586 1 6.45105 -0.951936 -11.9314 
587 1 -3.79852 15.451 -5.52391 
588 1 -6.4437 -7.76857 -11.702 
589 1 3.42025 -13.2778 5.4213 
590 1 -13.1281 -5.0996 0.549727 
591 1 3.5853 12.2799 -14.0794 
592 1 -6.32856 2.61119 -2.42875 
593 1 -2.10809 8.35853 14.6483 
594 1 -11.9028 -6.74927 8.09806 
595 1 4.85067 9.92539 -3.92067 
596 1 3.00127 -10.3117 -9.1873 
597 1 5.39896 -7.73617 12.0443 
598 1 7.37491 0.923922 -3.33514 
599 1 0.501058 0.368419 2.77784 
600 1 -10.0777 7.07957 -0.471817 
601 1 5.00218 5.75038 18.1093 
602 1 3.80757 15.6247 -5.295 
603 1 11.558 -5.89492 -1.67713 
604 1 5.61175 8.3457 10.7251 
605 1 5.43563 4.12812 -17.5307 
606 1 -5.33003 -11.6817 11.0277 
607 1 -2.80774 0.363067 -10.2218 
608 1 7.08832 -3.24976 -15.4092 
609 1 2.67093 14.8385 7.09015 
610 1 8.1153 4.86041 -11.3542 
611 1 -1.48461 2.36887 -12.1655 
612 1 -4.25929 -10.3506 -3.33358 
613 1 -11.4208 -4.11179 -11.8568 
614 1 12.7769 5.63963 1.74407 
615 1 13.3207 3.12983 -3.0399 
616 1 7.22628 -4.9269 -12.0375 
617 1 14.6833 6.00361 12.091 
618 1 4.34368 -8.81958 -3.64157 
619 1 8.62129 2.46071 -15.7701 
620 1 7.00544 12.5464 3.56815 
621 1 -7.55621 2.84563 2.99063 
622 1 10.7036 11.2646 13.9191 
623 1 10.8658 8.08904 -2.96913 
624 1 14.8841 -0.840531 4.17304 
625 1 7.76345 5.64282 -6.88129 
626 1 6.78156 4.23608 13.8933 
627 1 13.6708 4.72819 9.87682 
628 1 3.84665 -5.6446 9.73715 
629 1 11.4023 12.4485 -3.58951 
630 1 9.30427 1.54381 4.30122 
631 1 1.6543 3.82498 14.555 
632 1 11.3513 -0.651534 -3.63334 
633 1 9.49807 4.29136 12.1626 
634 1 -8.16411 0.368818 -7.71388 
635 1 15.7273 5.98366 2.08329 
636 1 10.0516 -4.0199 1.89774 
637 1 -0.187209 -7.36089 0.339212 
638 1 -12.1737 6.21383 10.2692 
639 1 11.2671 10.1782 10.7209 
640 1 10.8645 1.39238 11.9905 
641 1 3.94512 10.4274 8.27909 
642 1 0.771139 12.7326 12.1635 
643 1 5.36784 4.51626 7.68444 
644 1 -2.72724 -17.8193 2.87642 
645 1 -5.31055 7.89643 -3.46709 
646 1 10.4149 10.9789 -9.89663 
647 1 10.6188 0.0104817 -8.67627 
648 1 0.625815 15.5283 -1.84013 
649 1 -3.05673 -10.2057 -7.69472 
650 1 9.66159 -5.1165 -10.9977 
651 1 -13.257 0.571683 3.29971 
652 1 -5.36525 8.85669 -10.7039 
653 1 -5.61207 -19.2387 3.16694 
654 1 -5.35827 0.864335 -11.6359 
655 1 -15.7516 1.4555 -3.86406 
656 1 12.7583 -9.53499 3.37728 
657 1 11.9978 11.4789 2.08473 
658 1 2.57441 -9.65943 8.57731 
659 1 -15.553 -2.29688 -8.56389 
660 1 3.21984 5.38986 2.70988 
661 1 5.90118 1.70143 -16.3278 
662 1 2.81177 -0.499581 4.47632 
663 1 -1.30502 2.50103 12.7237 
664 1 9.6659 10.2705 -12.4813 
665 1 12.9904 -0.815063 12.8547 
666 1 4.79556 4.74632 -6.58931 
667 1 5.68446 0.875416 -0.103343 
668 1 10.9466 13.4429 -0.461052 
669 1 3.26233 -13.8008 -8.27969 
670 1 -9.55438 -1.22756 14.2805 
671 1 10.8415 -3.22161 6.18369 
672 1 -0.917897 12.2449 14.987 
673 1 6.96593 15.0453 -10.7396 
674 1 -12.7619 5.46667 -7.46633 
675 1 9.41866 10.4604 2.68872 
676 1 -9.83262 -16.5595 0.730041 
677 1 11.8148 -5.80762 4.06785 
678 1 6.7342 15.2779 2.84179 
679 1 -2.71012 2.40307 9.67681 
680 1 -8.52479 -8.10625 2.34841 
681 1 -10.9639 -0.868427 -8.79026 
682 1 8.68634 -1.41387 10.8103 
683 1 -3.17531 -8.61263 12.0819 
684 1 6.55033 7.18232 13.1451 
685 1 -4.1211 13.1436 2.64923 
686 1 9.42546 5.07579 1.62989 
687 1 6.42811 -4.25435 -0.570268 
688 1 7.63418 4.45029 4.68536 
689 1 4.37497 -1.2402 -15.8143 
690 1 -10.1058 -0.813819 8.29456 
691 1 12.1094 3.53382 -8.65477 
692 1 -1.81217 -5.61408 -5.51558 
693 1 10.5678 -7.93361 -9.53362 
694 1 8.51908 6.88454 10.3169 
695 1 5.25814 6.91442 5.43608 
696 1 -10.2191 1.42124 13.4018 
697 1 9.66409 8.83396 8.24383 
698 1 -1.90174 -0.252966 14.367 
699 1 -1.51083 4.6092 14.4447 
700 1 -2.46422 -4.42632 -13.9475 
701 1 -5.78711 2.24684 10.9981 
702 1 -1.96747 3.30608 -3.94348 
703 1 7.69449 4.08263 9.5603 
704 1 -9.0471 -15.6505 7.47871 
705 1 13.477 8.7518 -1.9268 
706 1 8.59725 -13.8 -4.22205 
707 1 -2.425 3.73995 -6.98559 
708 1 7.95278 11.8088 0.496893 
709 1 9.78324 13.6522 2.52318 
710 1 4.89936 -3.06044 -18.3867 
711 1 -1.69323 -4.38271 7.9671 
712 1 4.31934 13.1187 -4.99559 
713 1 11.3936 8.23324 2.20233 
714 1 -1.57478 -2.50843 -2.33571 
715 1 -6.30834 -9.58819 -0.725132 
716 1 -0.618811 -4.33949 -17.0187 
717 1 -7.21573 10.6529 -2.70562 
718 1 11.5143 -2.48022 -10.8643 
719 1 6.49216 6.31828 2.5833 
720 1 9.87388 5.90943 -8.57248 
721 1 8.76409 13.6149 -3.32174 
722 1 -3.352 5.35471 4.99792 
723 1 -6.90768 5.30737 1.61234 
724 1 7.69754 8.10678 -4.53949 
725 1 11.9349 1.58382 15.2065 
726 1 9.6768 -0.660772 14.1584 
727 1 -2.16642 -11.4929 11.5482 
728 1 -6.06548 11.0009 -12.7247 
729 1 4.15765 13.1125 9.782 
730 1 4.67878 -6.93587 -11.8696 
731 1 2.72157 -2.20475 10.442 
732 1 6.33527 16.4986 -6.53818 
733 1 8.20748 10.3005 5.89721 
734 1 -6.28364 -0.117537 -0.693085 
735 1 13.5656 -6.44567 -4.79394 
736 1 6.93661 8.60725 17.9605 
737 1 -12.4865 -2.75958 8.43471 
738 1 1.66015 -14.6012 0.792246 
739 1 -0.530736 -1.83725 -9.36533 
740 1 -9.63837 14.954 1.4192 
741 1 -0.271954 5.70839 5.20286 
742 1 6.00206 -4.01765 -3.38596 
743 1 3.42872 11.7567 2.69978 
744 1 -14.0662 -3.43716 5.37111 
745 1 -3.06872 1.43492 17.1247 
746 1 -2.05647 6.51241 -14.6322 
747 1 -5.20326 6.24867 -15.4384 
748 1 4.30997 -14.0299 2.02138 
749 1 8.26446 10.6031 -3.99096 
750 1 3.02109 -6.78941 4.08619 
751 1 -1.75169 7.66679 2.82808 
752 1 -14.3139 4.67188 12.3335 
753 1 4.12045 -3.58602 -12.9036 
754 1 2.72231 -12.5355 8.87613 
755 1 0.754496 13.7935 3.27003 
756 1 -3.91039 2.75854 13.6366 
757 1 -3.48528 -1.21576 0.0743853 
758 1 -5.24947 -9.97192 -15.1517 
759 1 -8.33176 -9.97562 -13.0214 
760 1 -7.16562 -12.7178 -7.69717 
761 1 -1.30853 12.9936 -8.73102 
762 1 5.87839 -2.26861 -8.41478 
763 1 2.41269 0.0691433 -0.204844 
764 1 -5.52229 10.4185 5.02744 
765 1 5.86554 -6.81531 -6.13571 
766 1 5.02709 -16.1414 -0.434105 
767 1 2.43879 -6.84965 12.0569 
768 1 13.2248 4.39006 -5.83857 
769 1 0.516087 -12.9694 -4.67598 
770 1 -11.1636 -1.1418 11.1978 
771 1 -2.123 0.331866 -7.13503 
772 1 -4.86633 -17.5092 0.423117 
773 1 -7.53823 -10.3244 -3.2503 
774 1 1.25872 -1.69982 -2.68689 
775 1 -11.0245 2.40872 10.179 
776 1 -7.52574 -17.0113 2.31035 
777 1 12.6809 6.84018 -8.18698 
778 1 -4.88664 16.1791 4.52819 
779 1 -3.38169 2.03314 6.78996 
780 1 -15.1513 5.40722 4.29634 
781 1 10.9544 -1.55548 0.892343 
782 1 -13.322 -1.60489 -11.5671 
783 1 -0.433095 8.92313 -4.09385 
784 1 7.32382 2.17755 -6.04966 
785 1 7.52537 12.6339 14.3635 
786 1 -0.207908 -2.00693 5.4031 
787 1 10.1926 5.27422 -3.59581 
788 1 -15.3596 0.787601 -7.16689 
789 1 -12.306 -6.99927 -6.38195 
790 1 -0.153864 9.59024 16.3699 
791 1 4.80534 4.27759 -12.2302 
792 1 10.9302 12.483 5.26483 
793 1 -3.74644 0.126868 12.0914 
794 1 -2.74889 -16.4267 -3.62269 
795 1 -5.38536 -15.8967 7.63059 
796 1 -2.16837 -7.69845 8.0079 
797 1 14.1815 8.33451 9.90816 
798 1 1.38197 -6.28977 -9.98587 
799 1 -7.02593 8.9631 -0.402129 
800 1 7.9306 7.7924 4.50522 
801 1 -10.29 -9.47433 5.65535 
802 1 8.75707 8.10028 -10.1354 
803 1 -2.41444 -16.3794 -6.65458 
804 1 0.436059 -18.5424 2.01546 
805 1 -0.651715 -15.4161 -1.69924 
806 1 2.197 5.68008 -8.0864 
807 1 2.37946 15.8535 1.66523 
808 1 -2.83119 0.103207 -13.9626 
809 1 2.16127 0.37241 12.9256 
810 1 3.91573 6.83108 -16.8388 
811 1 -10.0592 -1.4492 -13.0885 
812 1 -11.1784 -0.908004 -3.00618 
813 1 1.47308 17.0889 -6.60571 
814 1 9.72044 -0.148239 -1.41098 
815 1 -4.26127 -6.86222 -16.2574 
816 1 -6.29859 -6.40064 0.481192 
817 1 10.4922 7.03058 -5.98809 
818 1 12.6228 -4.45037 1.01269 
819 1 -8.33793 6.53059 13.5582 
820 1 6.20717 -10.164 -1.39823 
821 1 13.7467 -7.86196 0.39859 
822 1 13.7555 -3.54937 12.2023 
823 1 -0.708265 10.3003 6.51499 
824 1 -12.9574 2.65999 14.2898 
825 1 -5.64359 3.8308 8.91215 
826 1 -3.52778 -14.0746 9.56916 
827 1 10.5549 1.90933 1.17731 
828 1 5.39531 7.49608 16.1041 
829 1 -15.2826 -3.23266 0.634522 
830 1 8.66359 -5.60517 -3.47771 
831 1 0.383263 5.31137 -2.72384 
832 1 -13.3469 7.07382 -1.22211 
833 1 3.76152 8.46527 2.73758 
834 1 0.995156 -14.9942 7.28473 
835 1 4.1608 2.48075 12.043 
836 1 -0.375433 13.7833 6.53614 
837 1 2.75354 -10.0782 4.08948 
838 1 -9.20395 -2.68209 -1.97068 
839 1 5.42157 -0.16847 7.36458 
840 1 -14.9652 -7.27101 -4.13523 
841 1 5.01081 10.7621 15.6446 
842 1 5.96174 12.8124 -2.26682 
843 1 -12.138 -11.6483 4.37131 
844 1 -3.80557 -18.6011 5.9027 
845 1 9.63548 -6.34444 6.43045 
846 1 10.6164 -4.05117 9.14341 
847 1 6.74073 8.21703 7.67807 
848 1 -0.393981 8.29278 -1.02521 
849 1 -0.674237 -7.63613 -7.11544 
850 1 1.42991 4.8179 -11.0481 
851 1 -6.76896 0.307568 13.6204 
852 1 -1.69881 15.8383 4.40001 
853 1 12.7777 0.861323 2.63315 
854 1 2.66032 7.74576 -4.60459 
855 1 -5.24064 7.34136 15.7789 
856 1 8.68446 9.627 12.1279 
857 1 8.44613 -2.29569 -10.5798 
858 1 -6.50645 -11.6514 1.86736 
859 1 -5.32724 -1.52011 -6.48616 
860 1 13.3885 -3.44736 7.0551 
861 1 0.742485 -3.49194 -14.4684 
862 1 2.29284 7.13594 10.9428 
863 1 8.63033 -10.469 -9.79203 
864 1 9.19246 7.04624 -13.2729 
865 1 -1.69475 -6.63637 -2.11031 
866 1 13.489 0.671332 -9.13757 
867 1 14.304 -1.60236 1.24346 
868 1 -0.940972 -3.34844 14.4452 
869 1 -5.59989 -9.40602 -8.93208 
870 1 -0.584722 0.214222 -0.539138 
871 1 6.6532 15.4908 -3.46023 
872 1 3.23192 -4.46943 1.31471 
873 1 -15.7953 1.75334 3.72211 
874 1 9.97499 3.44536 -6.14463 
875 1 15.5599 5.83924 5.71519 
876 1 1.93603 -5.80686 -13.4915 
877 1 -8.05298 12.1858 6.32075 
878 1 15.1183 8.3841 7.00527 
879 1 8.36001 13.9629 -5.97023 
880 1 1.5405 2.7302 -13.0416 
881 1 9.44396 -3.51507 -0.967817 
882 1 -11.0911 1.17842 0.893823 
883 1 10.687 5.70534 4.55509 
884 1 -11.1837 -7.5882 1.7981 
885 1 -12.6501 8.91198 -3.89841 
886 1 5.61936 2.11774 9.51936 
887 1 -13.7997 -0.736042 -4.49302 
888 1 -14.1739 5.94267 7.85008 
889 1 -3.6523 3.74254 -9.98021 
890 1 7.42761 -5.45138 -8.71122 
891 1 -9.91078 -11.511 -4.86654 
892 1 9.51936 -9.11785 -1.21399 
893 1 -15.7786 -1.1282 -2.00199 
894 1 -9.69663 -5.03781 -4.67724 
895 1 12.2724 7.15755 7.53306 
896 1 -7.70994 -10.0077 4.65074 
897 1 8.56768 2.1466 15.4326 
898 1 13.6015 -5.664 9.73857 
899 1 9.39825 -1.43072 3.83215 
900 1 -13.824 5.58541 1.12375 
901 1 1.18506 9.38006 8.82305 
902 1 6.00754 3.57849 -9.19225 
903 1 -2.29186 -9.38151 -16.1401 
904 1 -6.19185 14.808 6.90136 
905 1 -12.9926 -11.7379 7.80427 
906 1 1.67916 13.6031 -6.87033 
907 1 0.562257 9.35047 12.4159 
908 1 14.4465 -2.68152 -4.4156 
909 1 7.79518 -8.37742 10.9854 
910 1 -1.2536 13.6091 -11.6267 
911 1 5.83787 9.56891 -9.17951 
912 1 0.396365 -4.20404 -0.998526 
913 1 -5.80385 -1.586 10.4353 
914 1 16.3851 1.9463 10.1914 
915 1 -5.82317 -4.12224 -9.42861 
916 1 13.6266 11.4601 -0.935563 
917 1 -16.5162 2.54302 -0.977456 
918 1 -5.38395 -11.6585 7.95708 
919 1 3.8262 15.0389 -11.516 
920 1 5.74698 -2.69939 9.37195 
921 1 -2.04044 -12.5707 -2.61586 