ITEM: TIMESTEP
1050000
ITEM: NUMBER OF ATOMS
2000
ITEM: BOX BOUNDS pp pp pp
-30.0 30.0
-30.0 30.0
-30.0 30.0
ITEM: ATOMS id type x y z Coordination
1 1 -11.6012 5.02613 -10.8368 16
2 1 -10.9967 -7.37671 -9.06019 17
3 1 1.5521 11.8064 12.6573 15
4 1 4.55408 -12.2099 9.45901 11
5 1 -10.7908 6.10452 -2.85301 22
6 1 5.76095 -8.77626 -11.7555 21
7 1 -12.0624 6.06244 -5.59465 18
8 1 0.926542 -1.3796 9.47035 22
9 1 -8.17906 0.79076 -9.64931 23
10 1 -12.2947 -11.0491 8.69597 11
11 1 14.0427 6.4875 -3.87162 18
12 1 -2.71576 1.73979 -4.50642 20
13 1 0.816441 -11.0727 0.263361 21
14 1 -14.8396 -9.75984 3.16123 16
15 1 -2.33472 3.7595 18.5179 13
16 1 8.3634 -4.33833 7.00265 22
17 1 1.54145 3.3434 9.08319 19
18 1 8.41272 -1.16945 1.96431 20
19 1 -0.639644 5.01007 -13.2898 22
20 1 2.7841 0.769213 10.8209 21
21 1 -8.22537 -1.0063 -14.941 16
22 1 -12.7249 -6.14288 14.0407 8
23 1 14.3998 4.80729 6.18849 23
24 1 4.12195 6.63808 -17.2932 15
25 1 6.27712 5.51026 -10.4704 21
26 1 11.0797 2.22817 7.07039 22
27 1 -6.40321 1.95775 2.16707 23
28 1 -12.399 7.33246 -8.13156 12
29 1 -3.10003 -2.60104 -8.18838 20
30 1 -10.2773 5.20434 7.66208 20
31 1 6.99078 -12.6249 6.06203 15
32 1 4.08474 -1.76368 9.27774 21
33 1 3.08055 -14.691 -9.88553 15
34 1 8.45834 -9.65488 -1.30382 18
35 1 -6.8421 -13.3136 -5.50635 13
36 1 -10.3354 -4.98567 13.6525 18
37 1 3.96178 -3.31554 -5.58607 20
38 1 -2.23299 -7.31182 -15.145 21
39 1 3.56262 -4.30066 -14.2929 24
40 1 0.477729 3.35131 -15.7959 21
41 1 -2.82713 6.76342 10.2999 22
42 1 1.25028 -11.8289 9.81598 16
43 1 4.31438 -4.39571 14.1485 15
44 1 -9.27052 -0.119786 1.22992 21
45 1 -13.8195 -1.86517 8.19005 19
46 1 -7.50056 2.10319 -0.83963 20
47 1 -3.29837 12.0731 -3.15921 21
48 1 -4.70356 -12.4257 -9.58949 15
49 1 1.41397 -0.152136 -11.6577 21
50 1 4.33538 -5.28533 -10.9856 24
51 1 -0.854353 -6.6021 12.8431 15
52 1 -9.32031 5.7055 0.138 20
53 1 -1.42952 13.0036 -9.84167 15
54 1 -0.17172 16.6009 8.73869 13
55 1 -5.70237 5.39327 -10.3306 22
56 1 0.489105 11.6991 0.545736 20
57 1 1.2015 -15.6046 -3.42711 17
58 1 9.01961 -5.33511 -8.3425 21
59 1 1.27412 -12.1638 -14.5664 14
60 1 -9.8825 10.6839 12.544 9
61 1 -13.9228 -5.68458 -10.2837 12
62 1 7.93263 5.57408 6.96767 20
63 1 -8.34175 10.7083 -4.16235 22
64 1 -9.29348 -10.6166 7.52584 23
65 1 -4.86277 11.8747 9.89938 14
66 1 -11.666 3.51359 -4.51949 21
67 1 -9.06887 7.9964 14.4177 12
68 1 -0.0619294 6.33477 -5.15813 21
69 1 2.25709 6.21414 0.673645 21
70 1 -7.5368 -10.7079 4.85962 21
71 1 2.50096 0.574442 7.37983 21
72 1 5.46442 -15.645 -7.7433 11
73 1 4.27918 13.0716 14.59 12
74 1 -10.3618 4.6495 -8.44936 22
75 1 -4.73101 8.43687 -12.2269 19
76 1 3.43318 6.35119 12.7299 22
77 1 10.6473 -9.35873 -7.06667 16
78 1 7.734 -9.71916 4.60347 20
79 1 -14.9222 -2.13586 4.86499 13
80 1 -6.88324 -2.59482 1.88418 22
81 1 3.93309 16.2498 5.8244 15
82 1 4.71301 0.667969 13.0345 21
83 1 -4.89046 -13.8835 5.50317 22
84 1 -10.5353 -2.87774 -0.32756 21
85 1 15.7195 5.30734 9.41005 13
86 1 9.17894 -2.38117 -3.95936 20
87 1 -1.41703 14.1955 5.31889 21
88 1 5.03326 -4.06937 6.90412 21
89 1 -4.35163 -6.16497 4.56998 22
90 1 -2.67437 -5.72158 -8.41777 20
91 1 -6.02893 6.92008 11.5417 19
92 1 -11.3616 12.545 -4.47447 13
93 1 -4.38176 7.9563 -8.85452 20
94 1 6.06778 -1.78201 -3.56067 20
95 1 5.4813 0.574373 -8.45861 19
96 1 10.2839 9.35178 -8.40207 21
97 1 8.35938 -5.54606 4.16315 19
98 1 6.38828 -9.715 10.6743 12
99 1 -2.74429 12.2613 -6.35393 20
100 1 -14.6534 8.36649 2.15249 13
101 1 -8.9296 -2.79459 11.5571 20
102 1 -3.03754 9.63786 8.13708 21
103 1 -3.77907 -8.97843 8.46633 21
104 1 7.01525 -3.90775 -5.7657 21
105 1 -8.49043 7.53541 4.41504 21
106 1 -12.5745 -12.7549 3.06681 14
107 1 10.5476 -8.07319 -9.54981 21
108 1 4.1672 -1.71315 -10.9647 21
109 1 -5.14016 -1.90541 -14.6206 18
110 1 5.72044 0.131371 6.95918 19
111 1 -2.16002 9.55829 1.88046 21
112 1 -9.97081 6.29634 -13.4146 15
113 1 1.04988 11.5342 15.8135 13
114 1 0.72162 11.3155 -2.72646 21
115 1 -14.6143 11.1931 2.51142 11
116 1 3.24709 11.3621 -1.02897 20
117 1 -0.471967 -0.617676 -3.80796 21
118 1 -1.59634 -6.96945 9.81084 22
119 1 12.5809 0.215436 8.80454 14
120 1 -0.0113033 -4.22059 -7.55833 23
121 1 5.14416 -5.65321 -7.62561 21
122 1 -2.93401 -0.893768 5.99368 19
123 1 3.27929 -1.71087 15.4045 15
124 1 -10.3514 -10.2123 -1.55833 18
125 1 6.20357 -4.64894 0.865529 17
126 1 -8.82747 -8.0554 -3.34491 21
127 1 10.7112 -12.1691 0.572476 14
128 1 -5.05158 6.91236 4.8852 21
129 1 7.07515 8.02001 -16.0851 11
130 1 6.69406 18.9624 -0.582903 9
131 1 -8.39133 -10.488 10.7261 17
132 1 -8.65685 -7.65399 5.73906 22
133 1 -0.982473 4.03435 2.12793 20
134 1 -0.977982 -10.175 -15.5402 14
135 1 3.12068 3.57741 -4.55673 19
136 1 9.40374 -9.02961 -4.15978 20
137 1 -3.77074 -16.296 7.42771 13
138 1 -10.7107 -7.45581 -0.619719 24
139 1 14.3028 8.65509 9.99694 13
140 1 8.47634 -0.319065 -14.0163 15
141 1 -16.5418 -9.19116 0.27637 11
142 1 14.5138 9.07595 4.41821 15
143 1 15.4322 8.25021 -1.49886 12
144 1 -5.1938 4.41311 16.8979 17
145 1 5.47717 6.02373 -0.232244 20
146 1 -1.82157 11.3041 10.3194 17
147 1 -5.72328 11.889 -5.28932 23
148 1 -1.48253 -7.95225 -11.0616 19
149 1 7.34613 -11.7098 -11.8144 17
150 1 1.18445 7.57318 -12.9114 20
151 1 7.41758 -4.05047 12.997 18
152 1 2.06417 -4.58178 -17.2091 13
153 1 -3.55408 7.31316 -5.51826 20
154 1 11.6186 1.37347 -2.83833 21
155 1 -6.32691 8.94811 -6.0948 21
156 1 4.59586 -2.12973 -0.591872 21
157 1 -12.3717 13.5094 -1.39063 10
158 1 5.90368 -2.14011 -13.2851 25
159 1 6.64661 -7.20531 6.4044 21
160 1 -4.52245 4.50726 -7.12869 20
161 1 -3.81243 12.4434 6.64311 19
162 1 11.041 6.07595 -8.81568 21
163 1 1.72355 1.23874 -2.56806 21
164 1 7.36138 12.7292 -13.2692 10
165 1 -6.70559 14.6556 -0.64904 15
166 1 12.3986 9.24259 -0.979389 16
167 1 -8.16519 10.9368 -7.43993 24
168 1 -5.63158 13.9934 -6.92092 18
169 1 3.81046 9.12964 -15.1588 18
170 1 -14.2797 -11.6827 0.753484 14
171 1 -13.8972 8.80245 5.00693 13
172 1 -8.39992 -2.61811 -9.96869 20
173 1 -1.60522 -13.3008 -13.5725 11
174 1 8.00534 10.7635 8.4162 19
175 1 -2.01504 17.1327 6.47942 12
176 1 -10.2179 -1.67924 -7.42535 19
177 1 -15.0197 9.83785 -0.678966 10
178 1 15.8817 -1.86803 -1.15574 14
179 1 -9.49232 0.968184 -12.4675 19
180 1 4.19056 3.59583 17.4541 17
181 1 4.82759 18.7155 2.06042 12
182 1 1.4034 6.04154 7.13055 20
183 1 0.0354081 -7.75124 -18.0045 11
184 1 -7.87713 11.7079 7.86227 15
185 1 -3.6614 14.9353 -1.4015 22
186 1 1.05807 -4.09221 14.324 16
187 1 -8.86731 -5.13427 0.541381 22
188 1 -4.80765 -11.7564 -12.8929 12
189 1 -9.89588 8.76001 -8.52294 17
190 1 1.00735 -9.35154 5.36492 21
191 1 2.22516 -15.8853 -6.87071 15
192 1 -2.47324 15.4634 -7.77371 14
193 1 -11.9584 0.61281 9.49112 21
194 1 3.83798 8.53444 -2.32745 21
195 1 6.79835 10.2824 -7.82164 18
196 1 -8.39859 5.03205 15.7853 13
197 1 0.0750976 -9.32793 11.0736 17
198 1 -6.0588 4.74848 0.51333 20
199 1 0.776354 16.7596 5.27387 19
200 1 4.58329 3.26676 7.78095 21
201 1 9.28374 5.16312 18.3232 13
202 1 -7.2762 15.1184 2.68394 13
203 1 12.552 -8.44994 -4.17087 12
204 1 -8.05031 12.1817 10.9846 10
205 1 -4.12648 1.91088 -7.65184 22
206 1 9.21376 -7.80448 1.60149 20
207 1 -3.27883 -6.14433 7.58242 21
208 1 -14.6358 0.539626 2.4428 14
209 1 -10.5178 -12.7015 0.378983 15
210 1 2.67696 6.17259 15.9057 21
211 1 -15.146 -5.09295 -0.121643 14
212 1 0.0326341 1.20234 1.44882 21
213 1 -4.61848 -16.1022 -1.20922 16
214 1 -1.60195 -1.01453 3.28558 20
215 1 -5.91281 -2.98125 -3.84923 23
216 1 6.8515 -8.00011 -3.44122 19
217 1 -3.34973 9.56014 4.94021 20
218 1 -7.85266 -0.339111 4.43425 23
219 1 7.23061 13.5401 9.77396 15
220 1 -8.83749 2.25433 -3.86788 21
221 1 -6.94852 8.9327 -9.74714 22
222 1 -12.9834 -1.98221 -6.51441 20
223 1 -5.02409 -6.01464 9.90648 21
224 1 -0.313454 -8.85637 2.51319 22
225 1 1.69485 -11.4155 3.73769 24
226 1 -13.7196 11.1554 -3.69703 10
227 1 17.7245 1.69967 6.862 7
228 1 7.19321 7.87461 -2.63674 21
229 1 -8.43112 -6.63631 -13.9498 15
230 1 6.89673 -2.10515 4.69027 23
231 1 -3.85755 -3.61866 2.51379 22
232 1 3.89947 -12.4638 6.31043 18
233 1 -1.12826 9.3138 -16.4327 8
234 1 1.29251 -11.8209 -11.5511 21
235 1 7.5672 2.97797 -13.5556 17
236 1 1.12643 5.26233 -18.1094 14
237 1 -7.15806 -2.71684 -6.65801 21
238 1 3.00705 10.0299 -11.9655 15
239 1 -9.84243 -8.09906 12.7664 11
240 1 6.81522 15.9534 1.35553 17
241 1 -10.8799 2.15262 12.5059 18
242 1 -6.39529 14.5691 -3.76442 15
243 1 5.98911 0.746405 9.66066 21
244 1 -6.53265 -3.89468 -12.8124 23
245 1 0.275076 11.1513 -6.35719 17
246 1 3.3206 3.16116 -10.1646 18
247 1 -11.4345 -9.81117 0.962138 21
248 1 2.29122 3.19473 2.38737 22
249 1 -11.2441 8.00771 5.88039 20
250 1 -6.01934 9.73798 6.33273 21
251 1 3.79262 -10.2957 -1.44131 20
252 1 -3.25056 -16.2614 1.01467 17
253 1 10.1555 -11.8078 -5.13458 15
254 1 -0.879941 4.35989 5.62974 20
255 1 -4.75306 -0.5117 3.1439 21
256 1 0.811317 -4.25547 -4.49322 23
257 1 8.12819 7.85457 16.2654 14
258 1 8.12038 7.26019 -8.58294 21
259 1 -0.98567 14.089 -1.44357 20
260 1 -8.91935 2.65628 5.08727 20
261 1 -9.09194 7.75277 -5.34173 22
262 1 1.55916 3.52009 12.2592 20
263 1 2.18133 -14.6365 2.08802 19
264 1 12.6398 -0.42375 -0.803699 19
265 1 2.75336 8.88873 7.55464 21
266 1 -9.61004 13.8166 3.90132 15
267 1 -10.9973 0.402728 -4.86115 23
268 1 5.98039 10.099 -13.3387 21
269 1 -0.673166 -1.34813 12.1407 21
270 1 5.30325 11.6916 -10.4264 17
271 1 9.16869 -13.9564 -10.8017 12
272 1 -3.7562 -2.53047 -11.4362 19
273 1 -1.70256 -14.7324 5.56853 21
274 1 7.51725 -0.393716 -6.12017 22
275 1 -6.69753 -5.54717 6.81676 21
276 1 4.25727 -15.1669 -4.58213 14
277 1 -11.1755 -3.78042 -9.09751 23
278 1 4.35249 15.4184 -1.13105 18
279 1 -1.09438 -1.70723 -12.3374 22
280 1 1.18654 3.44954 18.6062 13
281 1 14.9307 1.07626 1.44759 18
282 1 -1.31273 -6.05556 3.2197 19
283 1 13.2174 -6.57608 -10.0629 9
284 1 -0.406318 -3.32394 1.60713 19
285 1 -13.9075 -2.07989 -9.57139 15
286 1 -9.84526 2.37038 -7.05614 22
287 1 -7.2228 -13.6277 10.2479 13
288 1 9.42325 0.551553 9.58622 21
289 1 6.93673 -4.87324 9.93835 23
290 1 0.759639 -8.8183 -13.7011 21
291 1 1.8424 -4.00044 7.28125 19
292 1 0.302959 8.39423 -10.4085 18
293 1 4.5208 8.81415 0.856214 21
294 1 -7.50717 -5.13804 3.63941 22
295 1 1.70655 14.1551 0.555697 21
296 1 -5.68602 -3.12354 14.9282 15
297 1 -10.1908 -7.8719 -6.20578 20
298 1 -5.9288 -7.16155 -7.58175 20
299 1 2.51886 5.46167 -14.8808 25
300 1 -6.86721 -11.0177 -10.6486 15
301 1 -5.23963 -10.7327 0.90121 21
302 1 -2.67839 -5.50046 0.210758 23
303 1 6.54553 -8.60569 -15.1633 16
304 1 10.217 -5.43072 -11.3226 20
305 1 6.22696 -7.75531 2.93852 20
306 1 12.3387 2.87425 3.80064 22
307 1 -3.91533 -5.31032 -2.92815 19
308 1 -9.35068 -5.57322 8.01728 20
309 1 -5.04036 -13.4274 0.162832 22
310 1 5.74093 5.4836 19.5452 11
311 1 -8.30394 -13.6138 6.40902 17
312 1 5.64564 -2.56164 -8.52458 21
313 1 -3.39773 -13.6406 3.14807 22
314 1 -1.55274 16.7421 0.337539 15
315 1 8.49609 -3.59896 -14.1761 16
316 1 -7.30521 -4.05063 -15.7118 14
317 1 4.84204 -6.7192 -1.60672 16
318 1 -11.1857 -5.0139 10.5552 20
319 1 1.5038 8.77785 17.5262 14
320 1 4.56623 -12.025 -6.77114 20
321 1 0.53659 -12.8609 -8.71624 17
322 1 -11.8648 3.07817 -13.3533 12
323 1 6.44614 5.17853 9.74078 20
324 1 -7.33177 3.39302 -7.96211 22
325 1 -2.44331 6.68562 -11.0642 21
326 1 -2.39768 -4.08919 5.50431 21
327 1 5.71127 -14.2182 -12.1281 13
328 1 -8.9891 13.115 -2.68584 18
329 1 2.02539 11.2509 5.73623 20
330 1 13.1409 -0.314927 3.53945 20
331 1 -9.88567 0.0491077 7.00813 21
332 1 -5.58804 -8.66607 6.23186 22
333 1 -6.2873 9.54322 3.05846 22
334 1 1.82962 -3.2354 -11.8911 21
335 1 13.7898 9.47438 -8.73982 13
336 1 0.925321 -11.0039 -3.32957 20
337 1 -3.57228 -1.4511 13.2774 22
338 1 -15.6872 -3.41483 1.86053 12
339 1 0.806418 -13.485 -1.50357 23
340 1 -7.67414 5.3584 9.5185 19
341 1 -9.84576 2.51842 9.14007 19
342 1 -15.2648 -1.38464 10.9518 12
343 1 -14.7826 -7.74148 5.94816 12
344 1 13.6257 -3.64992 -1.11448 19
345 1 -10.5095 -8.26971 9.85667 18
346 1 10.5399 -3.66111 -6.20539 21
347 1 11.7237 -6.79199 -6.7485 16
348 1 5.87952 18.1195 -3.8502 12
349 1 -0.286375 -6.37255 6.17425 20
350 1 -10.865 12.2662 -7.99792 12
351 1 0.796842 1.26288 4.82364 21
352 1 9.68591 4.62699 8.96549 22
353 1 -8.74373 -3.24391 6.29836 20
354 1 5.27312 -8.71406 -6.34208 21
355 1 -3.48334 11.9562 0.276089 21
356 1 -10.6507 4.87988 4.11307 23
357 1 2.5216 3.40718 5.68063 21
358 1 2.86567 -9.84894 7.99956 24
359 1 9.85193 -7.34317 6.25195 18
360 1 -1.93366 3.90941 8.73229 19
361 1 -6.49529 -5.95108 -2.10297 23
362 1 5.04861 -1.67182 2.35612 18
363 1 -1.29758 1.43721 17.1897 17
364 1 -1.65902 13.9842 1.83337 22
365 1 9.02471 8.46911 13.0538 20
366 1 -7.98299 13.3385 -9.40206 14
367 1 -3.3547 -6.80098 -18.2398 11
368 1 -6.52296 0.0318608 -3.25285 21
369 1 6.53986 -12.0382 -14.9435 11
370 1 -7.35604 2.08756 7.76683 17
371 1 -13.6417 5.75706 4.0903 15
372 1 -5.02136 -5.18933 -6.03273 20
373 1 -1.46103 9.62392 -4.70695 19
374 1 9.12332 -0.480171 6.76839 22
375 1 -13.8029 -9.52539 -1.36574 16
376 1 8.09114 -7.97028 9.22503 20
377 1 -3.43109 1.72915 0.914109 19
378 1 -8.25827 -6.08935 11.2516 21
379 1 -11.8257 10.9721 3.71922 19
380 1 0.484541 -4.4167 11.0847 19
381 1 6.62835 -12.9943 -8.90492 21
382 1 -5.60552 -1.02601 -8.93992 21
383 1 6.52868 -5.12947 -15.8045 18
384 1 4.29956 13.3904 4.16594 19
385 1 -10.7839 2.81763 -1.30193 21
386 1 0.300135 -5.49308 -13.1609 21
387 1 8.34184 11.1808 -10.6258 18
388 1 -3.47817 -15.9551 -8.57213 10
389 1 -12.8938 -9.71837 -7.29694 10
390 1 -4.26375 -8.39083 -1.13575 22
391 1 9.27995 5.34983 15.1736 20
392 1 -3.24429 -0.930364 -2.8151 21
393 1 13.5999 2.69691 -0.846832 19
394 1 -7.89297 3.81796 -11.4621 24
395 1 4.15991 19.6398 -1.47772 8
396 1 -14.9057 -1.33004 -4.11277 14
397 1 5.4087 2.64809 1.9892 19
398 1 -8.72528 10.3462 -0.375156 21
399 1 -10.5978 9.61603 -2.76473 24
400 1 -6.06173 4.11181 13.5026 21
401 1 6.82499 3.20423 14.1096 20
402 1 13.6704 -1.96737 -6.6433 15
403 1 6.56215 -1.80493 14.8639 15
404 1 13.1618 1.3672 -6.16885 16
405 1 -3.89571 -15.5685 -4.89871 13
406 1 5.85398 3.43945 4.84964 20
407 1 -3.06669 4.79283 -0.916672 21
408 1 0.266673 -8.09834 -4.8298 21
409 1 -0.0026697 8.59175 5.30482 22
410 1 5.00587 1.10905 -2.62154 21
411 1 -8.78825 5.04962 -5.28078 21
412 1 1.76314 -8.27673 -1.94065 24
413 1 13.5678 2.77958 12.5442 11
414 1 -8.96232 -2.34436 -4.28023 19
415 1 -6.31666 -8.32259 3.1731 23
416 1 -7.2398 -5.68785 14.4021 14
417 1 -2.44547 9.50724 -1.51859 20
418 1 -11.9664 -6.68231 -3.67762 22
419 1 7.19308 5.72515 12.7305 21
420 1 -7.99038 7.7835 -2.37666 23
421 1 2.44432 13.7655 -6.08136 23
422 1 4.46184 13.5817 7.91315 19
423 1 -14.4803 -9.44859 -4.8209 11
424 1 -5.23162 -8.10879 -4.43618 22
425 1 -10.9842 0.22411 3.69681 20
426 1 -10.7529 8.17501 -0.419712 17
427 1 4.48006 -9.70886 4.98006 24
428 1 -1.47298 -10.7938 -9.61809 18
429 1 10.0951 7.98866 7.26418 22
430 1 9.31593 9.5533 -13.6376 12
431 1 -8.94344 3.64083 -14.351 15
432 1 -0.0102646 11.0504 -12.1916 15
433 1 -5.96306 6.2976 -4.58642 19
434 1 -4.52055 -11.0997 3.80957 21
435 1 15.9866 6.34421 4.11125 15
436 1 1.4305 8.27385 -17.4358 14
437 1 -5.30592 -0.476018 10.4438 21
438 1 -12.4452 0.822822 0.590218 19
439 1 4.07278 0.188723 -5.37232 20
440 1 -7.10768 5.08924 6.40092 20
441 1 1.37659 -14.5878 5.15883 19
442 1 1.97564 -6.70556 -7.00471 22
443 1 3.81844 -7.92639 -9.32188 24
444 1 3.61405 -1.79272 4.92857 20
445 1 -15.2435 3.47239 6.43043 11
446 1 -15.1238 0.745405 8.6697 14
447 1 -9.20894 10.4624 2.70298 20
448 1 0.657742 -6.51809 0.801784 21
449 1 -6.71541 1.75361 -13.7112 19
450 1 8.89271 -14.6827 -7.3772 10
451 1 0.419842 -14.9305 -12.1956 12
452 1 -4.06894 -3.28818 7.9863 20
453 1 3.46411 -6.61478 -4.04586 20
454 1 -3.75508 4.14082 -12.799 20
455 1 8.46343 -12.7505 3.32827 18
456 1 1.76413 8.82142 -4.13928 21
457 1 -9.42846 7.94904 11.0811 19
458 1 -6.82211 -0.240641 15.949 16
459 1 -12.5105 -3.24823 -11.9101 15
460 1 -2.44968 -8.55331 5.46374 24
461 1 10.467 -4.65974 12.4271 10
462 1 7.25176 0.420768 4.03894 19
463 1 -2.67592 1.87676 4.27879 20
464 1 2.5739 -0.541052 -8.43474 21
465 1 9.6294 -10.2962 6.59692 10
466 1 -1.34066 6.88935 -2.68161 21
467 1 7.2482 14.0823 -9.97005 10
468 1 -0.322443 1.55656 10.6431 21
469 1 2.07134 13.9771 -2.76861 21
470 1 4.96644 -4.95516 4.3382 21
471 1 -3.90908 -11.1883 -5.13877 21
472 1 -3.1433 6.75214 16.6333 15
473 1 -4.3967 15.4019 4.76863 15
474 1 -10.1636 -11.7162 -6.52154 13
475 1 8.16119 13.4624 -0.0339061 16
476 1 3.35272 5.97155 9.30207 20
477 1 -6.4272 -0.82083 7.06945 20
478 1 -2.14709 -9.10873 -3.78402 19
479 1 -11.7366 2.48234 6.32593 20
480 1 -8.51319 -5.36179 -8.77097 21
481 1 -5.35954 7.11362 8.23505 20
482 1 -5.85366 -10.6197 -7.59683 17
483 1 -2.79852 -4.18965 -13.7823 22
484 1 -1.32099 -11.4517 4.19051 21
485 1 -5.51337 -3.27598 5.02884 21
486 1 14.2808 1.17232 6.22594 18
487 1 -4.35124 -6.06045 13.1439 17
488 1 -11.081 8.37241 -11.3336 13
489 1 8.70976 4.77526 -3.54678 19
490 1 -5.39113 -13.3865 -2.86213 18
491 1 0.340064 1.96362 -9.26138 21
492 1 1.29794 17.2344 2.20492 14
493 1 1.81778 8.34914 -7.5282 22
494 1 -3.51952 6.71762 13.4034 23
495 1 -13.6505 -4.5904 -4.75256 19
496 1 -1.37999 16.8182 -2.87292 14
497 1 3.82476 11.1574 -7.49579 20
498 1 -7.64949 -10.2419 -5.48068 20
499 1 2.2315 0.707872 17.0141 15
500 1 1.81636 -12.7138 -5.32384 20
501 1 -1.26104 -4.56742 -10.8437 21
502 1 7.90451 -15.3471 3.63601 10
503 1 -8.72802 13.6784 -6.05025 15
504 1 0.00261009 5.84186 13.6241 23
505 1 9.31231 9.80636 -0.845427 21
506 1 7.73093 8.18994 1.42671 18
507 1 -8.73458 6.91706 -10.9119 20
508 1 1.42125 4.24985 -7.33714 21
509 1 3.29921 -7.09545 6.46426 20
510 1 -15.2945 -6.9404 -2.50272 15
511 1 7.1108 3.21626 -1.15035 21
512 1 1.59409 18.5302 7.27324 9
513 1 -3.49434 6.33639 -14.5067 15
514 1 12.3865 6.07973 -0.643233 22
515 1 -0.24146 16.5714 -5.62245 15
516 1 7.8113 -10.6633 1.8464 17
517 1 14.865 3.31657 -4.21471 15
518 1 1.16826 -1.36137 -17.4291 15
519 1 -2.45 -11.1206 1.47964 23
520 1 -1.28531 -14.3319 9.00487 16
521 1 3.479 -9.77226 11.3959 13
522 1 -7.00989 6.70178 -7.85861 21
523 1 -9.74257 -13.5442 3.46098 16
524 1 5.19054 5.43716 -2.72934 18
525 1 0.154885 -16.3417 -9.26634 13
526 1 6.85533 13.3396 6.57504 16
527 1 3.45687 2.43686 -15.7644 21
528 1 -0.149555 -1.17766 15.3595 18
529 1 -11.1376 5.10092 10.6882 16
530 1 0.0197682 -15.9588 0.157113 16
531 1 -12.9491 -2.59097 2.31421 21
532 1 13.8062 -5.03829 -7.01705 12
533 1 12.7755 -5.04382 -4.03206 19
534 1 1.19676 1.23675 -6.0448 20
535 1 -3.13039 4.5724 -4.11161 20
536 1 2.25165 -10.1142 -7.45662 21
537 1 6.36401 2.76655 -10.1749 20
538 1 8.69086 -1.85948 -8.18616 21
539 1 -7.34776 2.44451 17.4794 13
540 1 5.15841 13.3607 0.956829 20
541 1 -4.26893 -3.95837 -16.8756 13
542 1 3.91654 -7.31308 0.66509 19
543 1 7.05202 -1.62321 -16.6831 12
544 1 -7.29497 -8.24517 8.91781 20
545 1 -6.8878 12.4908 1.49951 23
546 1 -9.34046 -3.57401 -13.0347 18
547 1 -14.6932 2.94797 0.0434565 11
548 1 -4.56172 -9.12163 -10.2038 22
549 1 -2.70024 -11.6708 6.62847 20
550 1 3.05341 6.23496 -9.74006 17
551 1 12.5093 5.30811 14.786 15
552 1 15.099 7.37391 -6.4576 12
553 1 -7.66141 -12.0685 -0.570209 22
554 1 3.28463 -12.8294 0.645541 22
555 1 -2.41991 -1.36764 -15.3831 18
556 1 -7.03424 9.37042 9.62282 19
557 1 2.73906 -3.78471 -8.78336 23
558 1 0.180173 3.6639 -0.515656 21
559 1 12.9242 -3.90549 3.73475 15
560 1 3.52362 14.0189 -9.28442 14
561 1 8.68625 -14.5543 0.234397 14
562 1 7.81708 -3.00782 -0.909704 19
563 1 12.7585 4.91088 -11.0272 9
564 1 1.54271 8.61918 14.1831 20
565 1 -8.74756 8.25798 7.64757 23
566 1 -4.8004 -3.21543 -0.520187 21
567 1 12.6036 6.65076 9.25984 23
568 1 5.31231 1.11082 15.9956 17
569 1 -1.46856 0.825913 -17.476 13
570 1 -7.72682 -5.77148 -5.27745 21
571 1 -2.75609 -3.92164 11.0005 20
572 1 9.41341 7.60967 10.0655 24
573 1 5.0129 8.66895 -5.41219 21
574 1 -3.07543 10.7686 -10.9404 17
575 1 -0.660224 13.799 -4.43615 21
576 1 9.727 -1.81748 13.8353 16
577 1 6.09985 5.02168 -15.6424 17
578 1 1.44455 -7.15596 -15.8491 21
579 1 11.8267 8.60765 11.8199 18
580 1 -12.6154 -5.04182 -1.45285 20
581 1 -6.31266 11.293 -11.3309 16
582 1 -0.60621 1.24997 6.98359 19
583 1 -13.9418 1.67525 11.5826 11
584 1 -1.9636 9.52813 -8.06283 19
585 1 6.21324 -14.5174 -2.49838 15
586 1 9.71539 1.36217 -11.3113 16
587 1 -3.37823 15.1223 -4.75901 17
588 1 -7.24237 -6.56986 -11.1533 21
589 1 2.18529 -14.5748 8.31138 12
590 1 -12.3645 -2.02755 -3.09361 21
591 1 0.802695 11.118 -15.2848 9
592 1 -4.89914 2.61753 -2.11556 20
593 1 -3.97654 9.62736 15.1769 13
594 1 -13.0296 -7.74759 3.66921 25
595 1 7.44313 10.5885 -3.84787 19
596 1 4.07587 -11.3404 -10.0175 22
597 1 5.40873 -6.8027 12.0615 15
598 1 8.23923 1.01062 -3.23409 20
599 1 1.82427 -0.929789 2.27604 19
600 1 -7.24952 4.74003 3.15542 20
601 1 2.80149 6.01962 19.1755 14
602 1 2.90135 16.3713 -6.25983 13
603 1 11.3337 -7.37321 -1.89058 19
604 1 2.6876 8.83492 10.9159 19
605 1 1.62218 1.69642 -18.5757 13
606 1 -5.19738 -10.9894 11.0449 15
607 1 -2.53438 0.0803847 -9.96142 23
608 1 4.46553 -6.72021 -16.197 18
609 1 1.40203 14.2099 7.08876 22
610 1 9.2058 4.48926 -11.1933 21
611 1 -1.02108 2.09381 -12.1278 23
612 1 -3.1462 -11.6275 -2.1405 19
613 1 -12.6352 0.926675 -7.84657 18
614 1 14.0942 4.5543 1.82088 21
615 1 14.7003 0.0115193 -3.68683 15
616 1 4.06663 -10.0116 -15.8908 12
617 1 12.4889 8.66247 14.4751 9
618 1 3.43053 -9.62627 -4.58791 25
619 1 4.10113 -3.71562e-04 -17.7287 15
620 1 6.34691 10.7138 3.13214 20
621 1 -4.28754 3.8608 3.27142 20
622 1 4.12404 10.5565 12.8001 20
623 1 10.6701 7.80767 -3.42651 22
624 1 15.9806 -0.417859 4.53871 11
625 1 7.02153 6.22054 -5.53526 21
626 1 6.00152 5.60713 16.1486 20
627 1 11.2024 2.5043 10.8142 20
628 1 3.64792 -4.53574 10.0987 20
629 1 12.1439 11.1785 -6.77785 13
630 1 10.5171 0.789174 4.41633 18
631 1 0.577474 3.11747 15.6533 21
632 1 12.3712 -1.71886 -3.60382 21
633 1 11.3065 6.69388 17.3812 10
634 1 -7.3629 0.413321 -6.44008 23
635 1 15.8311 3.39436 4.09961 18
636 1 9.68405 -4.61434 1.39542 18
637 1 -1.33392 -8.86797 -0.435444 19
638 1 -11.2021 8.06412 8.84726 15
639 1 10.689 5.61141 12.1067 21
640 1 10.4304 2.79226 14.0274 22
641 1 2.13837 11.599 8.87143 22
642 1 0.346321 13.8596 10.46 15
643 1 3.09401 8.50429 4.25261 21
644 1 -6.21127 -17.3958 1.67885 11
645 1 -4.70649 6.89294 -1.68022 20
646 1 12.4453 7.95055 -6.2678 20
647 1 11.5996 -0.362801 -8.9649 16
648 1 1.60581 17.2129 -1.01133 15
649 1 -3.19385 -8.50155 -7.02473 20
650 1 8.83122 -8.15476 -12.5162 18
651 1 -13.9552 0.563299 5.47653 16
652 1 -9.63404 11.0331 -10.8303 15
653 1 -7.0671 -15.7974 4.21768 15
654 1 -5.23542 2.03899 -10.3484 23
655 1 -14.6222 1.77071 -5.29399 14
656 1 10.8922 -9.99272 3.51895 14
657 1 13.0435 10.3567 1.67216 14
658 1 4.97055 -7.35125 9.20613 21
659 1 -15.4949 -4.12414 -7.4384 12
660 1 4.30276 5.77483 2.84563 20
661 1 4.71763 1.11126 -12.8357 19
662 1 3.89544 1.06127 4.33521 22
663 1 -1.72661 1.37229 13.5604 22
664 1 10.6076 12.7024 -9.20867 10
665 1 11.9854 0.0790776 15.718 9
666 1 4.59936 3.71271 -7.43904 21
667 1 6.66221 0.384111 -0.126816 21
668 1 6.39215 10.4991 -0.572531 20
669 1 1.54579 -8.9465 -10.646 21
670 1 -12.0805 -2.80977 15.1825 11
671 1 11.4961 -4.58513 6.67342 14
672 1 -1.50998 11.6996 13.5639 11
673 1 4.05304 12.4712 -15.0275 6
674 1 -11.7076 9.87494 -5.90348 17
675 1 9.88537 11.2332 2.15222 17
676 1 -7.68988 -15.3083 -1.01159 14
677 1 12.8763 -5.79747 0.740135 18
678 1 6.19034 15.988 4.17645 12
679 1 -1.5503 4.11893 11.8444 21
680 1 -13.4762 -7.5849 9.47696 13
681 1 -15.5893 -0.47422 -7.25088 11
682 1 7.72247 0.615481 12.4728 21
683 1 -3.1891 -8.71058 11.9309 16
684 1 5.87319 8.22094 14.4669 21
685 1 -4.1618 11.9582 3.40412 21
686 1 10.7449 4.45624 1.5823 19
687 1 8.34794 -6.25585 -1.12479 18
688 1 9.20147 3.94778 4.64803 20
689 1 4.58426 4.36773 -12.3507 17
690 1 -12.0081 -2.04637 5.62668 23
691 1 13.4293 4.65875 -6.72957 19
692 1 -1.87166 -5.93337 -5.23312 20
693 1 11.8039 -8.39316 -12.5121 10
694 1 9.45156 7.24985 4.31851 19
695 1 4.65226 6.02952 5.9496 19
696 1 -7.00912 2.53118 10.9452 21
697 1 8.27237 10.358 5.33602 16
698 1 -3.31975 -1.05319 16.2236 15
699 1 -2.76332 4.02821 15.2316 24
700 1 -4.1183 -5.81568 -11.9136 19
701 1 -3.7948 1.67277 11.7943 22
702 1 -0.140645 3.7212 -3.89034 22
703 1 7.8795 2.59144 7.43822 21
704 1 -9.69069 -13.3574 9.1179 13
705 1 10.8324 10.8469 -3.57908 20
706 1 3.69422 -12.9038 -2.85743 22
707 1 -1.38367 3.80522 -6.77661 23
708 1 5.16613 10.6496 6.14058 19
709 1 7.57545 13.2419 3.32139 17
710 1 4.13857 -2.94216 -16.5943 18
711 1 -1.03903 -3.78148 8.66259 22
712 1 4.73889 15.2959 -4.32467 21
713 1 14.5956 7.69261 1.25959 19
714 1 -1.0496 -3.59786 -1.85042 21
715 1 -7.37997 -8.33864 -0.232198 23
716 1 -1.14084 -4.9261 -16.7128 18
717 1 -4.9845 9.73817 -3.34361 20
718 1 9.5769 -6.97656 -14.8519 13
719 1 7.44266 5.48203 2.64584 19
720 1 15.4632 6.36986 -9.14447 9
721 1 9.74816 13.7038 -3.53859 14
722 1 -4.15127 4.36734 6.51598 20
723 1 -4.00933 7.09367 1.76629 21
724 1 10.2603 5.94455 -6.04783 19
725 1 10.8831 3.04782 17.0248 13
726 1 8.65346 0.80803 15.6992 17
727 1 -2.2651 -11.2628 9.75228 18
728 1 -8.17597 9.14072 -13.0793 14
729 1 3.44446 13.1713 10.9945 19
730 1 3.04356 -7.15252 -12.775 21
731 1 2.54272 -2.12012 12.394 22
732 1 6.24448 13.0535 -5.48938 17
733 1 5.02954 10.7121 9.44291 21
734 1 -5.45661 -0.269211 -0.108357 20
735 1 14.097 -7.18895 -1.33215 11
736 1 6.96296 10.8117 14.2345 16
737 1 -12.7517 -5.29662 7.41002 18
738 1 5.72683 -14.8122 1.04659 15
739 1 0.153101 -1.94712 -9.30944 22
740 1 -6.30472 12.1153 -1.74786 22
741 1 1.02358 5.88218 3.61173 19
742 1 5.55926 -4.46409 -2.6195 20
743 1 2.9436 11.4666 2.57568 20
744 1 -13.6846 -4.99072 4.13388 17
745 1 -4.51795 1.09886 18.2534 11
746 1 -2.68342 2.83824 -15.1735 18
747 1 -5.86531 3.97828 -15.8209 12
748 1 6.17559 -12.1831 -0.408556 19
749 1 8.74378 9.04551 -5.71305 20
750 1 2.85807 -7.26758 3.47065 20
751 1 -2.26699 6.6915 3.7359 20
752 1 -12.2501 -2.47651 11.5797 22
753 1 3.33641 -0.775673 -14.5023 22
754 1 0.521741 -12.2439 6.68469 21
755 1 0.995364 13.9795 3.8321 22
756 1 -4.93347 1.6174 14.8414 21
757 1 -2.20059 -1.34082 0.212522 20
758 1 -6.32683 -8.83611 -12.9781 17
759 1 -9.19932 -8.7311 -11.7255 15
760 1 -2.6364 -12.7428 -7.45586 16
761 1 1.49885 11.3227 -9.10874 16
762 1 7.27204 -6.70305 -10.1258 20
763 1 3.60259 0.674512 0.217641 18
764 1 -12.2047 13.7542 2.00238 11
765 1 8.12352 -7.55935 -6.80464 21
766 1 7.44414 -13.6675 -5.27297 18
767 1 2.17495 -6.75736 12.3592 16
768 1 15.4722 4.96611 -0.95652 19
769 1 -1.33115 -13.4554 -3.88995 22
770 1 -10.5589 -2.62028 8.78661 21
771 1 -1.45861 0.126609 -7.11029 21
772 1 -8.70588 -10.5737 2.12441 21
773 1 -6.29623 -10.4429 -2.4212 21
774 1 2.53646 -1.62305 -3.30236 21
775 1 -13.4944 -0.32534 13.5937 11
776 1 -8.85622 -15.2064 1.2165 13
777 1 13.5653 7.6622 -11.6303 10
778 1 -4.02534 15.383 1.69314 18
779 1 -4.12516 1.1213 8.18813 17
780 1 -13.3204 6.25867 7.22807 14
781 1 11.6029 -2.58157 1.25212 19
782 1 -11.0075 -0.748885 -10.5483 18
783 1 0.593517 8.80786 -1.20091 19
784 1 6.2203 2.86587 -4.88496 23
785 1 7.58308 13.5044 13.2533 10
786 1 0.302472 -1.99159 6.17647 19
787 1 11.808 4.38541 -3.47873 20
788 1 -12.9313 3.92639 -7.69537 15
789 1 -13.2534 -6.67466 -7.40845 20
790 1 -1.07726 8.9173 15.6068 17
791 1 4.89793 7.19571 -13.4533 22
792 1 11.1239 9.6174 4.5807 17
793 1 -2.33576 -0.723241 9.42852 19
794 1 3.60003 -9.71354 1.98767 17
795 1 -6.72927 -15.1202 7.71756 14
796 1 -0.587242 -9.44689 7.87195 21
797 1 10.36 11.0813 13.1283 12
798 1 1.15464 -6.21209 -10.1465 21
799 1 -7.57507 7.55895 1.11616 19
800 1 6.47255 7.93736 4.46266 19
801 1 -14.336 -4.36154 10.1701 12
802 1 11.7986 10.3656 -10.9706 13
803 1 -0.972949 -15.9975 -6.23296 14
804 1 -0.150593 -13.5685 2.05973 24
805 1 -2.23273 -13.6403 -0.140952 20
806 1 5.05 7.54947 -7.99506 19
807 1 3.72558 15.9014 2.25018 18
808 1 -3.71763 0.590686 -13.2282 21
809 1 1.70753 0.51086 13.7068 23
810 1 -0.453158 6.48473 -15.5864 17
811 1 -11.4739 -0.811509 -14.0345 11
812 1 -9.96618 0.0335776 -1.91119 22
813 1 1.81111 17.8342 -3.51157 14
814 1 9.83909 -0.879874 -1.07563 20
815 1 -5.15897 -6.60922 -15.2544 18
816 1 -5.978 -5.9018 1.24137 22
817 1 9.74463 2.50449 -5.40921 20
818 1 16.2805 -4.65706 -0.857643 10
819 1 -8.85701 4.94405 12.8517 18
820 1 6.37425 -10.9632 -3.54924 21
821 1 11.6226 -9.05604 0.796281 15
822 1 11.3181 0.0575965 12.4186 17
823 1 -0.724329 11.6011 7.12557 24
824 1 -10.1507 -0.830649 13.5722 19
825 1 -4.70781 4.28083 10.1445 19
826 1 -4.27991 -13.514 8.93274 17
827 1 8.86639 2.05135 1.64787 22
828 1 4.85475 8.34333 17.9167 13
829 1 -13.737 -7.73469 0.622968 21
830 1 8.79204 -5.57061 -3.93724 18
831 1 1.60024 5.75983 -2.5864 22
832 1 -15.1972 6.2853 -0.7636 11
833 1 1.40317 9.06804 2.04881 19
834 1 -0.0381571 -16.8154 7.01449 11
835 1 3.67298 3.59176 14.5848 19
836 1 -0.70098 11.3462 3.66043 22
837 1 5.30976 -12.2217 3.31118 21
838 1 -7.83891 -2.49515 -1.27274 22
839 1 7.24571 -2.15407 8.75029 20
840 1 -15.4069 -7.04984 -5.58695 12
841 1 4.03742 10.6114 16.0084 16
842 1 6.05871 13.2553 -2.1424 19
843 1 -13.4355 -10.5342 5.27178 15
844 1 -3.70338 -16.7905 4.14643 15
845 1 9.98476 -5.30595 9.50858 16
846 1 11.4166 -6.77961 3.62631 15
847 1 8.57435 10.7478 11.2072 18
848 1 -0.965888 6.99746 0.530931 23
849 1 -0.424143 -7.94031 -7.88084 20
850 1 0.587894 4.80733 -10.8138 22
851 1 -6.68478 -0.7584 12.8254 20
852 1 -1.85978 16.792 3.66955 16
853 1 11.5629 1.10649 1.31029 19
854 1 3.3977 6.19783 -5.27083 21
855 1 -5.87649 7.2173 14.8589 16
856 1 6.17905 8.23639 11.1052 19
857 1 7.27497 -0.43728 -10.8501 21
858 1 -6.69354 -13.1137 2.71642 20
859 1 -4.62978 -0.699908 -5.9322 20
860 1 12.307 -1.57188 5.9707 16
861 1 0.0734667 0.557635 -14.8019 20
862 1 0.777695 6.304 10.5885 19
863 1 9.76083 -11.3548 -13.0692 11
864 1 7.80478 6.57597 -13.3648 17
865 1 -0.833276 -6.30942 -2.20305 21
866 1 11.6361 -3.56561 -9.38475 16
867 1 14.9278 -1.95232 1.67111 14
868 1 -2.21741 -3.8874 14.1645 16
869 1 -8.4654 -9.21312 -8.49828 18
870 1 1.16163 -1.34772 -0.651013 20
871 1 7.48218 15.8825 -2.05572 16