ITEM: TIMESTEP
266000
ITEM: NUMBER OF ATOMS
2000
ITEM: BOX BOUNDS pp pp pp
-3.0000000000000000e+01 3.0000000000000000e+01
-3.0000000000000000e+01 3.0000000000000000e+01
-3.0000000000000000e+01 3.0000000000000000e+01
ITEM: ATOMS id type x y z 
1 1 -9.31117 4.42905 -14.8385 
2 1 -9.90728 -10.0731 -9.34759 
3 1 2.29387 10.7401 10.6634 
4 1 6.94517 -11.8071 6.41779 
5 1 -11.9159 4.98614 -3.79511 
6 1 7.50168 -7.45829 -11.2764 
7 1 -14.2094 3.44681 -5.47106 
8 1 1.08511 -1.43713 9.2494 
9 1 -8.68984 0.491579 -10.2355 
10 1 -14.4057 -8.66181 6.17601 
11 1 12.9224 7.10491 -10.3333 
12 1 -4.1201 0.750322 -4.74804 
13 1 -3.23018 -13.9389 3.35384 
14 1 -14.5908 -9.7003 3.20977 
15 1 -1.24689 4.17655 18.0174 
16 1 8.26861 -5.37467 6.22562 
17 1 0.807324 3.50636 9.24737 
18 1 7.7895 -1.24869 1.96187 
19 1 -2.37981 8.22663 -12.5599 
20 1 3.18003 1.02489 10.4136 
21 1 -8.40465 -1.73195 -15.3841 
22 1 -12.878 -3.72879 12.3407 
23 1 11.9027 4.19984 7.36923 
24 1 4.28181 9.97673 -13.2611 
25 1 5.38838 7.86857 -11.3827 
26 1 14.2451 0.680632 12.0178 
27 1 -7.70051 1.17981 1.81489 
28 1 -13.8303 2.84151 -8.43789 
29 1 -2.91605 -2.79229 -8.76418 
30 1 -8.96994 5.06645 8.50338 
31 1 7.10664 -13.1145 3.62221 
32 1 3.85407 -1.42922 7.97578 
33 1 3.18838 -14.2583 -8.79936 
34 1 9.82312 -11.9352 -1.72237 
35 1 -7.93977 -14.7872 -3.60923 
36 1 -9.6302 -4.00663 13.3539 
37 1 3.88533 -2.66229 -5.4817 
38 1 -1.99503 -9.20582 -13.0017 
39 1 6.42011 -8.6066 -14.1465 
40 1 0.302221 4.20539 -16.248 
41 1 -0.980842 6.68267 9.42608 
42 1 1.29172 -11.7077 10.0046 
43 1 4.49131 -4.50612 13.1845 
44 1 -11.1727 0.382781 2.70019 
45 1 -14.7319 -3.02041 7.00249 
46 1 -8.61316 0.0141087 -1.80895 
47 1 -5.88325 12.392 -1.30995 
48 1 -5.52549 -14.752 -9.67506 
49 1 1.39783 0.0461167 -11.5426 
50 1 4.32235 -4.21099 -10.6549 
51 1 -0.719801 -6.50109 13.7081 
52 1 -11.7503 3.93183 -0.856699 
53 1 4.46969 13.252 -12.9609 
54 1 1.50002 12.5561 8.18711 
55 1 -6.64778 4.68053 -10.8034 
56 1 0.358254 11.3115 -2.1599 
57 1 0.412921 -13.9941 2.13988 
58 1 7.83308 -7.803 -8.57466 
59 1 3.83587 -8.03541 -14.811 
60 1 -5.92246 9.31438 9.78373 
61 1 -14.4823 -5.0445 -9.77217 
62 1 10.5699 1.41757 6.58458 
63 1 -9.91426 7.09746 -3.31598 
64 1 -8.39075 -10.3281 4.60829 
65 1 -2.94256 13.7142 11.1801 
66 1 -12.9054 0.945645 -5.93287 
67 1 -5.36815 7.78175 12.2414 
68 1 -0.39755 5.28779 -5.29339 
69 1 1.82032 6.5606 0.493928 
70 1 -8.73559 -12.8174 3.29339 
71 1 4.47643 1.99895 7.70172 
72 1 5.71089 -15.2022 -3.77138 
73 1 4.96001 11.4911 12.081 
74 1 -14.6279 1.52366 -10.782 
75 1 -10.8699 7.64987 -9.47243 
76 1 4.23359 6.09202 11.878 
77 1 12.7975 -7.41231 -7.65985 
78 1 8.21398 -9.61958 2.68514 
79 1 -15.7342 -1.72964 0.777485 
80 1 -6.98386 -2.72654 1.57426 
81 1 6.58728 16.9864 5.90463 
82 1 5.59253 0.241815 12.9488 
83 1 -3.98197 -13.1796 6.46623 
84 1 -9.4553 -1.08594 0.72383 
85 1 14.1216 3.16422 9.08582 
86 1 9.18947 -2.07819 -3.79576 
87 1 -1.90769 12.592 3.56527 
88 1 5.13762 -4.40628 6.78675 
89 1 -4.62936 -6.04091 4.2107 
90 1 -2.48433 -6.64696 -8.9338 
91 1 -6.95487 5.75979 10.9008 
92 1 -8.14831 13.5335 -4.57763 
93 1 -3.8176 6.6888 -9.44357 
94 1 4.96186 -0.997001 -2.89852 
95 1 4.7281 0.794394 -7.98999 
96 1 6.41197 10.8847 -10.4292 
97 1 7.5307 -6.52623 3.64733 
98 1 6.20992 -9.98366 9.24944 
99 1 -4.46611 14.9583 -8.23343 
100 1 -8.52662 11.7267 3.63579 
101 1 -8.77219 -3.90289 9.42454 
102 1 -3.06979 8.84878 8.07098 
103 1 -4.61312 -8.1601 10.0126 
104 1 9.62069 -8.0704 -5.47658 
105 1 -10.9681 5.03753 5.35306 
106 1 -12.9519 -13.7781 3.70288 
107 1 11.2843 -10.6041 -7.96345 
108 1 4.25948 -0.961557 -10.9967 
109 1 -5.08983 -2.33053 -15.3176 
110 1 5.85292 0.198083 5.32667 
111 1 -2.17455 10.1743 1.43747 
112 1 -7.36856 6.99427 -13.7871 
113 1 1.74784 11.2461 14.2381 
114 1 0.175572 11.0946 -5.43704 
115 1 -11.8356 7.83955 0.868379 
116 1 1.36216 9.71107 0.498415 
117 1 -0.766908 0.0560949 -4.09368 
118 1 -1.75185 -6.45243 10.669 
119 1 12.5525 -2.62129 9.16763 
120 1 -0.121453 -4.59248 -8.16528 
121 1 5.48269 -4.63333 -6.59896 
122 1 -3.21838 -0.73889 5.68416 
123 1 4.00039 -1.84958 15.3322 
124 1 -11.2674 -10.6556 -1.27063 
125 1 6.20704 -3.84586 1.58422 
126 1 -9.17544 -8.28431 -3.27231 
127 1 10.3333 -10.0547 0.51219 
128 1 -5.63456 6.01476 4.48663 
129 1 8.7899 6.12459 -15.2184 
130 1 4.12686 17.6921 -2.66426 
131 1 -6.71884 -10.1282 9.25796 
132 1 -9.38173 -10.4393 7.91847 
133 1 -3.23627 4.58849 2.49196 
134 1 0.389969 -8.83273 -16.1448 
135 1 2.76376 3.47724 -4.62962 
136 1 10.6218 -11.4875 -4.98722 
137 1 -2.99993 -16.4626 7.70081 
138 1 -9.71203 -7.67317 -0.396645 
139 1 13.6748 6.26236 10.0201 
140 1 11.0003 0.837366 -12.9077 
141 1 -16.7727 -4.71653 1.85173 
142 1 10.2232 9.06511 5.72685 
143 1 15.1118 6.46739 1.02488 
144 1 -4.36719 4.88075 15.9574 
145 1 5.14911 7.13174 0.0908972 
146 1 -1.60454 11.832 8.27431 
147 1 -2.54284 12.1384 -4.01918 
148 1 -0.37633 -8.048 -10.7395 
149 1 5.74644 -10.0643 -11.4187 
150 1 1.22833 9.66881 -13.9564 
151 1 7.40913 -4.97939 12.2422 
152 1 1.49321 -1.35482 -16.3396 
153 1 -3.1971 6.33951 -6.40053 
154 1 10.4567 2.13919 -2.76655 
155 1 -8.23726 9.3205 -4.73285 
156 1 4.55023 -3.45085 -1.14806 
157 1 -7.09052 15.1125 -2.14779 
158 1 6.48736 -0.185655 -13.6006 
159 1 5.93975 -7.57826 6.26336 
160 1 -5.56611 4.50695 -7.59848 
161 1 -3.57675 12.269 6.05068 
162 1 11.3171 8.63905 -8.61279 
163 1 0.104566 2.23209 -0.74049 
164 1 10.1363 14.2083 -8.27534 
165 1 -2.27745 15.2769 0.998671 
166 1 10.8702 10.0692 -0.302743 
167 1 -5.05637 11.7228 -6.95696 
168 1 -1.26965 15.8231 -8.04511 
169 1 3.76916 11.9122 -15.3042 
170 1 -12.3127 -8.73594 1.10477 
171 1 -13.6554 7.84621 3.64007 
172 1 -8.38615 -4.79809 -10.3649 
173 1 -2.592 -12.4625 -14.3198 
174 1 9.58279 12.3514 8.41699 
175 1 0.292895 17.175 6.43276 
176 1 -11.8046 -1.79607 -6.64806 
177 1 -10.8929 9.74872 -2.06714 
178 1 15.1184 -2.90491 -0.210148 
179 1 -9.42248 1.06388 -14.1277 
180 1 5.17386 3.28335 17.1562 
181 1 4.80744 18.1901 3.06375 
182 1 1.02691 6.16568 7.11077 
183 1 1.30507 -6.23923 -16.6929 
184 1 -4.24779 14.6276 8.62503 
185 1 -5.12782 13.7894 -4.81856 
186 1 1.58808 -3.85923 13.8639 
187 1 -8.96159 -4.94105 0.552179 
188 1 -4.95408 -12.2687 -11.851 
189 1 -10.8235 9.5467 -7.35591 
190 1 0.154007 -9.12786 5.68952 
191 1 3.15787 -15.8352 -5.86503 
192 1 -1.47939 13.0029 -13.2991 
193 1 -15.4978 0.419995 9.20477 
194 1 2.90159 8.51707 -1.98647 
195 1 5.98082 11.5719 -7.13256 
196 1 -6.97233 5.37628 14.4626 
197 1 0.0835681 -8.86751 11.1207 
198 1 -7.9706 3.1875 -0.158595 
199 1 1.99525 17.6272 3.29419 
200 1 4.18845 5.40132 8.59951 
201 1 12.8338 4.45543 15.1707 
202 1 -7.17769 14.7377 3.93145 
203 1 11.8563 -6.10229 -4.40282 
204 1 -4.34351 11.9389 9.55598 
205 1 -5.09053 1.24818 -7.77615 
206 1 9.19799 -7.17359 1.19851 
207 1 -3.49946 -6.03191 7.64227 
208 1 -13.7606 -1.4383 3.74742 
209 1 -8.71631 -10.2098 1.67018 
210 1 3.47762 5.86453 15.3962 
211 1 -13.495 -3.08557 -1.09227 
212 1 -1.66288 1.52013 1.38243 
213 1 -4.68144 -16.2652 1.10976 
214 1 -1.49424 -1.77785 2.85376 
215 1 -6.43192 -4.15932 -4.27041 
216 1 6.67355 -7.61701 -2.6263 
217 1 -3.8047 9.20942 4.95293 
218 1 -8.28894 -0.339877 3.92578 
219 1 5.98032 14.6386 11.7685 
220 1 -9.86863 0.488124 -4.96039 
221 1 -7.37476 6.81719 -8.58693 
222 1 -13.9725 -4.91744 -6.43008 
223 1 -5.36917 -5.05607 10.1645 
224 1 -0.765036 -8.82201 2.56506 
225 1 1.10301 -11.3461 3.40763 
226 1 -9.63346 10.6456 0.878629 
227 1 13.7026 2.15261 6.21525 
228 1 6.33495 7.09173 -2.94933 
229 1 -7.32293 -7.36553 -14.1349 
230 1 6.24945 -2.62162 4.2287 
231 1 -3.98199 -3.71266 2.49137 
232 1 3.95171 -12.3968 5.15253 
233 1 -5.25059 9.15667 -14.6375 
234 1 0.799214 -12.4433 -14.002 
235 1 9.295 3.98201 -12.6556 
236 1 2.96237 9.28324 -16.6257 
237 1 -7.33802 -4.7274 -7.31309 
238 1 0.947839 10.4049 -8.69559 
239 1 -10.0404 -9.26127 10.1966 
240 1 5.42693 16.3933 0.655386 
241 1 -9.33978 3.73377 15.2702 
242 1 -6.62186 16.5218 -6.18634 
243 1 6.11907 0.451484 9.57942 
244 1 -6.18522 -4.38836 -13.1031 
245 1 -2.58514 9.40411 -8.08667 
246 1 3.28697 2.27135 -10.7146 
247 1 -11.5637 -10.5488 3.03341 
248 1 0.883095 3.12051 2.6356 
249 1 -8.66113 5.97932 3.81683 
250 1 -6.0654 10.2476 6.81191 
251 1 4.28927 -10.4871 -0.729777 
252 1 -6.06354 -20.6009 4.07121 
253 1 12.344 -10.301 -2.49694 
254 1 -1.03231 4.49162 4.9066 
255 1 -4.7034 -0.791282 2.61344 
256 1 1.07631 -4.12862 -5.07818 
257 1 10.814 7.17717 14.2551 
258 1 6.49839 7.05706 -8.29776 
259 1 -1.04432 14.3348 -1.83132 
260 1 -9.03451 2.41881 4.57195 
261 1 -10.7899 11.2636 -4.58053 
262 1 2.1306 3.75597 11.7847 
263 1 1.56866 -14.3329 4.89814 
264 1 12.3469 0.299515 -0.198759 
265 1 2.11541 8.90571 5.59135 
266 1 -7.08201 9.118 4.31003 
267 1 -12.6876 -3.96413 -4.31093 
268 1 2.0172 11.3855 -11.5664 
269 1 -0.0531745 -1.5958 12.3099 
270 1 6.80044 14.6415 -11.454 
271 1 3.43112 -12.7119 -6.3463 
272 1 -4.36089 -1.77002 -11.9299 
273 1 -4.48305 -16.337 4.85969 
274 1 6.64436 -0.843969 -5.50218 
275 1 -6.55178 -5.1503 6.88796 
276 1 3.23438 -18.1234 -3.81945 
277 1 -10.7725 -4.45468 -7.76108 
278 1 3.94583 14.9983 -1.64385 
279 1 -1.24288 -1.67477 -12.5343 
280 1 2.16374 3.553 18.2694 
281 1 15.1675 3.12255 1.08301 
282 1 -1.54974 -5.79529 3.00303 
283 1 12.8426 -5.41982 -10.2406 
284 1 -0.237637 -4.18665 0.614173 
285 1 -10.4713 -1.91862 -9.79761 
286 1 -10.6863 1.63017 -8.49566 
287 1 -6.37381 -13.0619 8.70574 
288 1 9.18779 0.0243335 9.54563 
289 1 7.45269 -5.35092 8.67701 
290 1 -3.67109 -6.85232 -12.1165 
291 1 1.51619 -3.86288 7.33935 
292 1 -0.73638 7.93801 -10.1008 
293 1 6.54443 9.67143 2.22088 
294 1 -7.92299 -4.90057 3.93796 
295 1 2.47323 12.6172 -0.201091 
296 1 -4.55856 -3.13159 15.5457 
297 1 -9.33967 -9.22392 -5.89435 
298 1 -5.75081 -7.43358 -7.9785 
299 1 0.267907 6.26072 -13.2089 
300 1 -7.61585 -13.0631 -9.75934 
301 1 -5.08395 -10.6352 0.576502 
302 1 -3.09554 -5.71619 -0.270909 
303 1 8.92637 -4.63626 -13.7291 
304 1 13.4129 -2.40777 -9.10758 
305 1 5.83903 -7.39823 1.49572 
306 1 11.4148 3.14796 4.22933 
307 1 -3.34533 -4.72768 -3.80694 
308 1 -10.3207 -6.31936 8.83149 
309 1 -3.53845 -12.6033 -1.37729 
310 1 6.95664 5.41627 18.5612 
311 1 -8.66459 -15.942 7.21694 
312 1 3.35514 0.391896 -5.28576 
313 1 -2.12395 -14.5016 0.123378 
314 1 -2.17586 17.6832 -1.53234 
315 1 9.01616 2.35338 -10.3721 
316 1 -6.9215 -4.70404 -16.3826 
317 1 4.23891 -7.2864 -0.960339 
318 1 -11.1234 -6.82605 11.7379 
319 1 2.74275 8.75944 16.489 
320 1 0.546204 -14.6654 -1.42641 
321 1 0.726229 -11.1878 -8.00651 
322 1 -10.0792 6.08781 -12.2333 
323 1 9.18812 5.40471 7.68469 
324 1 -7.88704 2.97244 -8.57286 
325 1 -1.72203 5.1851 -11.9915 
326 1 -2.78262 -3.85396 5.31252 
327 1 6.04632 -12.7912 -9.76912 
328 1 -3.78481 15.2625 -2.37083 
329 1 2.77217 12.5601 5.61414 
330 1 11.826 -0.38725 4.39401 
331 1 -10.1377 2.8735 7.5867 
332 1 -5.7638 -8.13143 6.5505 
333 1 -4.58248 8.13465 2.59609 
334 1 1.47714 -3.0429 -11.6565 
335 1 10.891 9.24026 -5.69616 
336 1 1.2614 -11.6109 0.000781549 
337 1 -3.17551 -0.679525 12.3891 
338 1 -16.3879 -3.84389 4.74969 
339 1 -0.15788 -17.6155 -4.03823 
340 1 -8.13026 9.03337 11.7455 
341 1 -8.83521 3.97098 11.9362 
342 1 -12.9053 -4.65933 9.45948 
343 1 -15.6549 -5.90595 7.42882 
344 1 14.1796 -6.0808 -1.32973 
345 1 -12.8355 -7.80566 9.11177 
346 1 11.937 -2.94267 -5.82251 
347 1 13.657 -10.2662 -5.43142 
348 1 5.60923 16.9546 -5.69399 
349 1 -0.608418 -5.72712 6.07106 
350 1 -8.56261 11.3491 -7.07213 
351 1 0.204029 0.927422 4.17933 
352 1 10.3381 7.25867 11.3522 
353 1 -8.70038 -2.71076 6.2487 
354 1 6.03463 -11.2179 -5.775 
355 1 -4.54773 9.07008 -0.668465 
356 1 -10.4261 3.53615 2.27255 
357 1 1.33592 3.10464 5.98767 
358 1 3.30493 -9.33612 4.3141 
359 1 8.99209 -8.39118 5.67395 
360 1 -1.54401 4.05319 8.08424 
361 1 -7.57193 -6.13277 -1.92994 
362 1 4.25427 -1.51354 1.59374 
363 1 -0.352534 1.60254 16.7525 
364 1 -0.424324 12.5169 0.882663 
365 1 11.816 9.9106 15.5652 
366 1 -7.66797 13.8176 -8.05836 
367 1 -1.70669 -6.5155 -17.4234 
368 1 -6.82443 -0.431758 -4.44626 
369 1 3.59761 -10.6508 -13.654 
370 1 -7.36522 2.09468 9.03521 
371 1 -14.3996 4.77262 4.26249 
372 1 -4.10287 -4.53901 -6.81782 
373 1 -2.71728 9.3324 -5.20287 
374 1 10.3776 -1.34845 7.30044 
375 1 -13.5108 -11.7928 0.886698 
376 1 8.85138 -10.7641 8.10842 
377 1 -4.63256 2.06382 0.939317 
378 1 -8.00776 -6.20658 11.9376 
379 1 -11.6382 7.79856 5.59512 
380 1 0.823552 -4.37281 10.6915 
381 1 5.36732 -10.2979 -8.28686 
382 1 -6.43768 -1.91062 -9.31165 
383 1 9.19342 -0.855403 -14.0934 
384 1 4.52521 15.0954 4.06167 
385 1 -11.7267 1.66068 -3.02492 
386 1 1.87779 -5.38614 -13.2362 
387 1 9.04298 9.01216 -13.3505 
388 1 -3.61029 -17.107 -5.09438 
389 1 -12.483 -9.81967 -4.40257 
390 1 -4.70989 -7.64898 -1.34535 
391 1 9.52736 4.73246 16.2754 
392 1 -3.57635 -1.99239 -3.25171 
393 1 11.8671 3.21434 0.199138 
394 1 -9.66008 3.10495 -11.3966 
395 1 3.00297 18.7839 0.297174 
396 1 -14.9842 -1.71364 -5.65774 
397 1 3.68265 1.26376 2.39076 
398 1 -6.55918 10.5785 1.2581 
399 1 -9.34736 12.5566 -1.97521 
400 1 -3.65298 6.17015 10.2578 
401 1 7.78028 2.49565 13.3835 
402 1 14.2767 -1.38708 -5.46135 
403 1 6.72046 -2.33734 14.3114 
404 1 12.5226 2.04677 -5.49073 
405 1 -4.68448 -15.2761 -2.23671 
406 1 4.47073 3.15657 4.93245 
407 1 -3.84034 4.09652 -1.29684 
408 1 1.59841 -7.36881 -4.51189 
409 1 0.849529 10.7678 3.37965 
410 1 4.94621 2.31986 -2.78817 
411 1 -10.3746 3.29896 -5.96316 
412 1 1.26193 -8.96259 -1.87868 
413 1 11.5437 -1.47574 11.6881 
414 1 -9.05574 -3.03546 -5.17946 
415 1 -6.5483 -8.56255 3.26839 
416 1 -6.98059 -5.50922 14.7541 
417 1 -2.22778 9.79245 -2.15308 
418 1 -11.6017 -7.30362 -2.9945 
419 1 7.67491 5.70674 12.2299 
420 1 -6.90096 5.48814 -1.92159 
421 1 0.799303 13.3005 -8.57635 
422 1 5.85293 13.9592 6.4479 
423 1 -14.0887 -9.01994 -1.40229 
424 1 -3.73449 -7.73936 -5.19564 
425 1 -12.4219 0.665757 8.40212 
426 1 -10.3356 6.80815 -6.55649 
427 1 6.11354 -10.2283 3.99754 
428 1 -4.56532 -12.6016 -7.96742 
429 1 12.9591 10.795 8.08927 
430 1 6.87267 11.0488 -13.2078 
431 1 -12.6931 4.8732 -10.4845 
432 1 -1.20586 10.8385 -10.6817 
433 1 -7.64502 5.94716 -5.28969 
434 1 -4.66474 -10.748 4.04447 
435 1 14.8614 7.57997 4.2533 
436 1 0.572172 11.7614 -15.8854 
437 1 -5.22088 -0.567379 10.3787 
438 1 -12.8716 0.241528 0.29683 
439 1 1.62212 1.12492 -2.96075 
440 1 -7.05202 4.33913 6.40491 
441 1 -1.48425 -14.6601 5.94785 
442 1 2.87747 -5.557 -6.8869 
443 1 4.95021 -7.18342 -8.86112 
444 1 3.50901 -2.37989 4.91016 
445 1 -14.4292 0.000542959 6.43108 
446 1 -13.2239 -1.75772 9.4508 
447 1 -11.7058 10.5832 3.38464 
448 1 0.13651 -6.97662 0.175466 
449 1 -6.35823 0.905479 -14.7592 
450 1 9.04821 -13.3861 -7.98503 
451 1 0.855506 -14.5345 -11.2566 
452 1 -4.32606 -2.88499 8.03935 
453 1 4.14445 -5.74726 -3.89328 
454 1 -4.30424 3.07356 -13.6046 
455 1 9.50366 -13.5874 1.50142 
456 1 2.51694 9.21665 -5.90728 
457 1 -11.6167 8.76896 8.33195 
458 1 -6.18918 -0.110398 16.576 
459 1 -11.7432 -7.14077 -9.57084 
460 1 -2.6235 -8.29804 5.31128 
461 1 9.74639 -6.49441 12.2646 
462 1 6.6863 2.07331 2.50047 
463 1 -2.99851 1.83807 3.95043 
464 1 1.40286 0.79942 -8.11138 
465 1 9.64639 -11.7401 4.6278 
466 1 -2.08873 6.57568 -2.95099 
467 1 11.3625 5.70928 -6.43499 
468 1 -0.0530519 0.896337 11.0865 
469 1 1.49096 13.9347 -3.79059 
470 1 4.54603 -5.5234 4.21503 
471 1 -1.68283 -12.4102 -5.875 
472 1 -1.93362 7.0404 16.3744 
473 1 -2.41807 16.5091 6.62317 
474 1 -7.41082 -12.103 -6.71158 
475 1 8.25735 14.9259 -0.158708 
476 1 3.99447 7.85097 8.08175 
477 1 -6.97366 -0.770971 7.71974 
478 1 -1.03984 -9.2295 -5.23939 
479 1 -13.3324 3.27361 7.32893 
480 1 -9.12872 -7.33488 -8.39748 
481 1 -5.6247 6.74365 7.63784 
482 1 -5.14644 -13.0473 -4.12954 
483 1 -1.08397 -6.65462 -14.4727 
484 1 -1.65307 -11.6647 4.86174 
485 1 -6.00141 -2.64106 4.69295 
486 1 12.5843 0.245446 9.1094 
487 1 -4.03121 -5.73662 13.5356 
488 1 -8.3696 8.75257 -11.2674 
489 1 7.65958 4.52082 -3.11199 
490 1 -7.5137 -15.3798 -0.609231 
491 1 -0.386242 2.49507 -9.54551 
492 1 0.0754418 17.6491 0.524259 
493 1 -0.147044 7.9012 -7.14041 
494 1 -2.15289 7.01431 13.1172 
495 1 -15.5385 -4.45115 -3.45172 
496 1 -0.263332 16.6516 -4.63435 
497 1 4.03182 13.099 -9.60795 
498 1 -4.52146 -10.3848 -6.15599 
499 1 2.89321 0.654309 16.9199 
500 1 -0.241715 -13.9331 -8.55983 
501 1 -0.925765 -4.61854 -11.4001 
502 1 6.31842 -15.48 1.27512 
503 1 -7.90711 9.63329 -1.6851 
504 1 0.931982 6.00215 13.5256 
505 1 7.45551 9.37102 -1.09592 
506 1 4.67052 10.3639 -0.403964 
507 1 -9.71566 11.232 -9.99784 
508 1 1.74338 4.91085 -7.41932 
509 1 2.63986 -7.04685 6.35899 
510 1 -17.0602 -7.11873 -1.65208 
511 1 6.04534 4.18321 -0.0328246 
512 1 3.76582 18.2215 6.15122 
513 1 -4.48148 6.05201 -12.5695 
514 1 11.5957 6.82789 -0.117766 
515 1 1.73366 17.4539 -9.07178 
516 1 7.47887 -9.46442 -0.562556 
517 1 16.5287 1.85906 -0.991262 
518 1 2.57209 1.35929 -16.5238 
519 1 -1.43638 -11.7431 1.15483 
520 1 -1.71737 -12.2162 8.34973 
521 1 3.05804 -9.1624 9.89775 
522 1 -9.99771 5.00781 -8.97553 
523 1 -11.2634 -13.7684 6.286 
524 1 3.93003 5.31063 -1.85401 
525 1 -2.60398 -15.3015 -7.56398 
526 1 9.00133 14.6102 5.92972 
527 1 3.21013 4.31953 -15.5276 
528 1 0.547795 -1.23845 15.3895 
529 1 -14.4863 1.90632 12.0955 
530 1 -2.89426 -18.8916 1.18552 
531 1 -11.3377 -5.06061 1.41441 
532 1 13.8708 -4.43519 -6.74329 
533 1 11.459 -5.20554 -0.578723 
534 1 0.289389 2.25132 -6.08295 
535 1 -4.45489 4.24093 -4.35742 
536 1 3.11176 -9.22845 -6.7849 
537 1 5.79549 2.98006 -13.0464 
538 1 10.5754 -3.22969 -8.84965 
539 1 -6.9117 3.04227 17.181 
540 1 5.33205 13.2922 0.836255 
541 1 -3.58 -3.81506 -17.3428 
542 1 2.69921 -8.78066 1.15555 
543 1 7.64599 -0.239104 -16.7976 
544 1 -7.30704 -7.12669 9.04674 
545 1 -2.89595 12.3929 -0.877404 
546 1 -9.07775 -4.43452 -13.6821 
547 1 -16.0518 1.3398 -0.435904 
548 1 -4.25201 -9.59265 -10.4706 
549 1 -3.87159 -10.0955 7.50769 
550 1 2.05873 8.12933 -11.1217 
551 1 14.5062 1.61033 14.8903 
552 1 12.4348 7.35875 -3.87424 
553 1 -9.00796 -12.3177 -1.32369 
554 1 -0.905673 -11.5022 -2.52396 
555 1 -1.62675 -1.49104 -15.7965 
556 1 -7.84993 11.6275 9.21284 
557 1 2.57625 -2.92799 -8.43516 
558 1 -0.616175 5.06162 0.971031 
559 1 13.333 -4.40536 4.98634 
560 1 3.38623 15.6228 -11.4073 
561 1 7.03572 -12.4258 0.736249 
562 1 7.59857 -2.71421 -0.96589 
563 1 11.5573 10.173 -11.3921 
564 1 3.06476 8.74823 13.1822 
565 1 -8.54847 7.90602 7.82495 
566 1 -5.49911 -4.01849 -0.978265 
567 1 9.348 13.9204 11.3978 
568 1 6.11969 0.893241 15.7237 
569 1 -0.517797 0.94222 -17.9393 
570 1 -6.99944 -7.38259 -5.30211 
571 1 -2.48828 -3.65735 10.9781 
572 1 6.96277 11.821 9.40384 
573 1 5.78713 8.65045 -5.98789 
574 1 -4.024 11.6975 -10.1959 
575 1 -1.37833 14.4148 -5.05046 
576 1 9.93593 -3.17397 13.7474 
577 1 11.3386 6.93094 -12.852 
578 1 10.3438 -5.60339 -7.49374 
579 1 12.8658 10.1421 13.0365 
580 1 -15.6818 -7.64109 0.67737 
581 1 -6.93236 10.148 -9.49951 
582 1 -0.675686 0.94305 7.57448 
583 1 -13.5617 -0.472818 12.0989 
584 1 -4.12214 11.569 -13.1158 
585 1 3.13263 -12.8323 -2.98254 
586 1 6.08346 1.05012 -10.2354 
587 1 -3.34468 16.6933 -4.89531 
588 1 -6.36815 -7.22086 -10.9635 
589 1 1.44447 -12.3938 6.81073 
590 1 -13.5456 -5.94373 -0.838007 
591 1 1.37858 14.1283 -13.2677 
592 1 -6.00072 2.1432 -2.29349 
593 1 -3.8287 9.25505 14.7043 
594 1 -12.4621 -5.97277 6.70345 
595 1 4.85915 10.3478 -3.52599 
596 1 1.2581 -8.7394 -13.1614 
597 1 5.6019 -7.26797 11.4023 
598 1 7.66644 1.08441 -3.061 
599 1 1.23004 -1.60803 2.37938 
600 1 -9.47304 5.6669 -0.0787087 
601 1 3.9839 5.93906 18.7168 
602 1 3.1613 15.1549 -7.08649 
603 1 10.2024 -7.73127 -2.0161 
604 1 5.22511 8.86746 10.6976 
605 1 2.49416 6.25311 -18.157 
606 1 -4.47587 -11.2817 11.3482 
607 1 -2.69617 0.452767 -10.2801 
608 1 6.24667 -2.7284 -15.7428 
609 1 2.67192 15.1029 7.09307 
610 1 6.85766 5.21678 -10.9052 
611 1 -0.953435 2.46341 -12.4692 
612 1 -4.44926 -9.87878 -3.04993 
613 1 -11.5311 -4.56122 -11.0642 
614 1 12.6446 5.59158 2.37787 
615 1 13.7997 2.32158 -2.50172 
616 1 6.45653 -3.109 -12.2822 
617 1 13.9107 7.43955 13.2822 
618 1 4.01173 -9.30366 -3.6735 
619 1 8.90036 2.76076 -15.5185 
620 1 7.05167 12.7782 3.72003 
621 1 -6.23405 3.35191 3.4816 
622 1 10.4972 12.3572 13.7291 
623 1 9.76868 8.18159 -2.51582 
624 1 15.3066 0.774381 4.59496 
625 1 5.11457 5.42318 -5.31881 
626 1 6.85848 4.68317 15.2522 
627 1 11.3648 4.58959 10.6029 
628 1 4.13365 -4.48525 9.65877 
629 1 11.6019 13.3389 -5.16099 
630 1 8.69882 0.0909121 4.69259 
631 1 1.44352 3.40435 15.3374 
632 1 12.4426 -0.562482 -3.62975 
633 1 10.2804 4.45035 13.4431 
634 1 -8.2448 -0.714535 -6.97177 
635 1 15.3979 4.29469 3.67918 
636 1 9.46996 -4.30233 1.48771 
637 1 -2.39549 -9.34981 -0.474995 
638 1 -10.2647 6.38776 10.662 
639 1 11.9477 12.0087 10.6551 
640 1 10.9179 1.5316 12.0499 
641 1 4.37828 11.1629 8.14159 
642 1 0.338646 12.7239 11.2478 
643 1 6.65331 5.83023 6.3746 
644 1 -6.68894 -18.3097 1.43386 
645 1 -5.1117 7.42617 -3.86328 
646 1 10.6452 11.7324 -8.36046 
647 1 10.8519 -0.538579 -8.76519 
648 1 1.19963 18.6471 -2.45169 
649 1 -2.09379 -9.93897 -7.90969 
650 1 9.84704 -5.41794 -11.2784 
651 1 -12.109 -2.48588 1.0212 
652 1 -5.67445 8.81145 -11.5913 
653 1 -7.68022 -18.0417 4.71907 
654 1 -5.98084 1.42198 -11.3888 
655 1 -15.1788 1.24217 -3.52209 
656 1 10.8954 -8.83234 3.59362 
657 1 12.3027 11.8547 2.36752 
658 1 4.72621 -7.28264 8.63757 
659 1 -15.8818 -2.74081 -8.83654 
660 1 3.64182 4.78151 1.85303 
661 1 5.68353 2.31734 -16.4623 
662 1 2.53908 0.410856 5.60808 
663 1 -1.33614 1.39974 13.8524 
664 1 8.89021 11.7134 -11.2799 
665 1 12.5555 -0.960972 14.4216 
666 1 4.93242 3.96775 -8.20022 
667 1 6.28469 0.692039 -0.217431 
668 1 11.369 13.453 -0.00716069 
669 1 2.55876 -9.13134 -9.85572 
670 1 -10.8624 -1.63739 11.5763 
671 1 10.6821 -4.80894 7.43343 
672 1 -1.51473 11.5987 13.4285 
673 1 5.3554 16.5128 -9.07288 
674 1 -12.6632 5.8379 -6.84253 
675 1 9.3236 10.5138 3.08338 
676 1 -11.2414 -13.5382 1.15428 
677 1 10.8773 -5.79998 4.06003 
678 1 7.25463 15.6353 2.81679 
679 1 -1.36728 4.29453 11.4966 
680 1 -10.5738 -5.32621 4.56305 
681 1 -13.5132 -0.286617 -8.57179 
682 1 8.74841 -0.594619 12.1545 
683 1 -2.77221 -9.10041 13.1484 
684 1 6.35828 7.67058 13.64 
685 1 -4.08276 13.1698 1.37864 
686 1 9.51755 4.63059 2.11682 
687 1 7.99444 -5.82058 -0.865676 
688 1 7.80327 3.34856 4.94309 
689 1 3.42146 1.03816 -13.7839 
690 1 -10.7278 -0.212687 5.74338 
691 1 13.6129 4.34064 -8.21967 
692 1 -1.22504 -6.17693 -5.96363 
693 1 11.0333 -8.42688 -10.4504 
694 1 7.09127 6.03861 9.71977 
695 1 3.61941 5.80459 5.46544 
696 1 -6.25007 2.64217 11.6901 
697 1 10.1257 9.67124 9.19883 
698 1 -2.52133 -0.395935 15.9853 
699 1 -1.80961 4.31542 14.9653 
700 1 -2.84775 -3.96092 -14.0192 
701 1 -3.2326 2.01418 11.0643 
702 1 -1.66488 2.82847 -3.48862 
703 1 7.51251 2.66743 7.56533 
704 1 -8.84329 -13.2595 7.76909 
705 1 9.65676 11.6989 -2.42359 
706 1 8.12543 -13.3693 -4.29025 
707 1 -2.69912 3.15824 -6.81512 
708 1 8.14985 12.6309 0.6252 
709 1 9.78457 13.7528 2.80558 
710 1 4.47937 -0.535456 -17.829 
711 1 -0.913884 -3.88456 8.60649 
712 1 4.98158 13.4184 -4.68153 
713 1 12.9581 9.00768 1.99618 
714 1 -1.14632 -3.77689 -2.29203 
715 1 -7.43349 -9.97833 -1.19061 
716 1 -0.232924 -3.80398 -17.8724 
717 1 -5.30015 10.7694 -3.62662 
718 1 11.3827 -2.5413 -11.8262 
719 1 6.25322 5.30877 3.06552 
720 1 10.3447 5.22919 -9.96671 
721 1 9.90224 14.4939 -2.78311 
722 1 -4.05701 3.69434 6.07449 
723 1 -5.87174 5.14077 1.06075 
724 1 8.43202 6.91982 -5.25045 
725 1 11.7745 1.94722 16.3152 
726 1 9.49124 0.238815 14.7452 
727 1 -1.52129 -11.7362 11.3588 
728 1 -7.54549 10.646 -13.0382 
729 1 4.00377 13.3997 9.84597 
730 1 4.32916 -6.78899 -11.9475 
731 1 3.23123 -1.7087 11.4832 
732 1 6.60641 14.4682 -7.73062 
733 1 7.95366 11.0166 6.35921 
734 1 -5.91696 -0.837125 -0.78154 
735 1 14.3358 -8.01532 -4.23657 
736 1 9.07137 7.7977 16.6959 
737 1 -11.4531 -3.23357 7.31458 
738 1 3.30812 -16.4408 0.338534 
739 1 -0.17689 -1.78486 -9.51991 
740 1 -7.99113 13.5043 0.804687 
741 1 1.41076 6.02798 3.75468 
742 1 6.54718 -3.79551 -3.66762 
743 1 4.00844 11.6186 2.7754 
744 1 -13.1578 -4.05483 4.03746 
745 1 -3.7792 2.22347 17.7437 
746 1 -2.30067 5.74194 -14.9265 
747 1 -5.51381 5.21999 -15.6851 
748 1 4.68301 -14.04 -1.05231 
749 1 7.96718 9.99606 -4.54851 
750 1 1.40042 -6.8289 3.38013 
751 1 -1.2892 7.68458 2.54256 
752 1 -11.7669 3.52078 10.367 
753 1 3.86007 -2.71868 -13.8438 
754 1 4.21454 -12.0573 8.82888 
755 1 1.66053 13.8101 3.156 
756 1 -4.56112 1.96187 14.4745 
757 1 -3.19602 -2.3633 -0.151652 
758 1 -4.95225 -9.63152 -13.7002 
759 1 -7.67773 -10.1931 -11.8744 
760 1 -5.60931 -14.5411 -6.5894 
761 1 -2.14912 12.4947 -7.53858 
762 1 6.25342 -2.3125 -8.74137 
763 1 2.85845 -0.576813 -0.733147 
764 1 -5.67633 11.7927 3.95095 
765 1 5.84977 -7.88354 -5.83541 
766 1 5.62739 -17.4405 -1.6767 
767 1 2.44193 -6.58077 12.0116 
768 1 14.2025 4.5872 -4.96232 
769 1 0.716527 -14.0705 -5.5558 
770 1 -9.7567 -1.2165 8.88619 
771 1 -1.70767 0.110406 -7.17556 
772 1 -7.79987 -15.4959 2.3738 
773 1 -7.12968 -10.4409 -4.26471 
774 1 1.61027 -2.33634 -2.89646 
775 1 -9.3975 0.986793 10.5317 
776 1 -6.28405 -13.3442 4.27687 
777 1 13.7026 7.40682 -7.11125 
778 1 -3.97676 15.1566 3.80017 
779 1 -4.10763 1.0645 8.06338 
780 1 -14.5219 6.53662 7.06406 
781 1 11.228 -2.22108 1.65766 
782 1 -13.6124 -2.04337 -11.2435 
783 1 0.3701 8.47088 -4.29229 
784 1 6.36488 2.72442 -5.61303 
785 1 7.13933 13.0168 13.957 
786 1 -0.0652411 -1.85406 6.13513 
787 1 11.5496 4.72355 -2.67834 
788 1 -15.7227 0.639424 -6.94095 
789 1 -11.7302 -7.0535 -6.1684 
790 1 -0.0977232 8.73232 14.9316 
791 1 3.90724 5.49077 -12.04 
792 1 11.1734 12.1169 5.50051 
793 1 -2.14837 -0.964195 9.24046 
794 1 -2.49926 -17.2117 -2.03637 
795 1 -5.92421 -15.9784 7.47507 
796 1 -1.83827 -8.32152 8.18633 
797 1 14.2858 9.51641 10.4842 
798 1 2.09145 -5.94783 -9.8094 
799 1 -7.37806 7.80249 0.854868 
800 1 7.86201 8.0592 4.38448 
801 1 -11.3765 -8.65742 6.47105 
802 1 8.92932 8.48808 -10.4796 
803 1 -0.256484 -16.8823 -6.5748 
804 1 1.69484 -17.1754 2.82117 
805 1 -0.440255 -17.0405 0.261097 
806 1 3.60629 6.89368 -8.03675 
807 1 2.23008 15.5239 1.06014 
808 1 -3.11646 0.20872 -13.8919 
809 1 2.55601 0.65325 13.7305 
810 1 0.127518 7.81107 -16.0594 
811 1 -10.5462 -1.41708 -12.8229 
812 1 -10.7611 -1.6312 -2.61207 
813 1 2.72193 17.7263 -5.45107 
814 1 9.29218 -0.374538 -0.903928 
815 1 -4.3748 -6.57467 -15.6832 
816 1 -5.99962 -5.61586 1.14671 
817 1 9.39047 3.70809 -5.39874 
818 1 12.9921 -4.70363 1.47255 
819 1 -9.58825 6.73852 13.7158 
820 1 6.20875 -12.1738 -2.39437 
821 1 12.3245 -8.03112 0.309686 
822 1 12.3913 -4.10788 12.5464 
823 1 -1.06282 10.2153 5.70745 
824 1 -11.1296 1.37165 13.3423 
825 1 -4.49998 3.59054 9.23155 
826 1 -3.78593 -14.1217 10.1593 
827 1 10.0027 1.1985 1.79637 
828 1 6.06915 8.7491 17.8276 
829 1 -16.909 -4.07244 -0.958746 
830 1 8.68932 -5.45655 -3.91645 
831 1 0.359412 5.13747 -2.2049 
832 1 -12.8169 7.13107 -1.80487 
833 1 3.42001 8.21918 2.71305 
834 1 0.315461 -14.7431 8.28555 
835 1 4.50231 3.15222 13.9194 
836 1 -0.355851 13.7692 5.84031 
837 1 3.99874 -12.3721 2.07496 
838 1 -8.09768 -2.86606 -2.12894 
839 1 7.10169 -2.06224 7.34337 
840 1 -14.8856 -7.39241 -4.35844 
841 1 4.60574 10.706 15.1723 
842 1 6.73364 12.5386 -2.30888 
843 1 -13.1918 -11.3708 5.80636 
844 1 -5.92137 -18.6866 6.9815 
845 1 9.95531 -7.71089 8.58095 
846 1 11.8891 -7.19085 6.45776 
847 1 7.33439 8.79083 7.89599 
848 1 -0.342173 8.03014 -0.803335 
849 1 0.218552 -7.70947 -7.71886 
850 1 1.6017 4.90849 -10.4186 
851 1 -5.74788 -0.63391 13.6506 
852 1 -0.912846 15.9726 3.67986 
853 1 13.3344 0.967701 2.5338 
854 1 2.33113 6.72246 -4.70071 
855 1 -6.39457 7.92231 15.6849 
856 1 7.79691 9.42606 11.7612 
857 1 8.88466 -0.751006 -11.0059 
858 1 -6.58382 -12.9849 0.800437 
859 1 -4.82322 -2.01285 -6.18839 
860 1 13.6107 -1.36286 6.51978 
861 1 0.373708 0.404083 -14.5187 
862 1 1.55111 7.03161 10.3306 
863 1 8.38094 -10.5416 -9.89656 
864 1 6.23288 8.55308 -15.2789 
865 1 -1.77803 -7.24513 -2.56688 
866 1 13.6192 0.86011 -7.83698 
867 1 14.2579 -2.12776 2.87715 
868 1 -1.82597 -3.23074 14.5119 
869 1 -7.11902 -9.82131 -8.88512 
870 1 -0.310313 -1.04754 -0.563625 
871 1 6.51729 15.4313 -2.86771 
872 1 3.24357 -5.45153 1.0727 
873 1 -15.7045 0.591383 3.01453 
874 1 10.6855 2.54757 -7.51868 
875 1 14.9761 5.20651 6.77485 
876 1 0.41361 -3.63589 -14.7278 
877 1 -7.03556 13.2983 6.47787 
878 1 14.4328 7.90814 7.2485 
879 1 8.1987 13.2139 -5.37044 
880 1 1.64924 3.16726 -13.3505 
881 1 11.1745 -2.49829 -1.43518 
882 1 -10.3187 1.78012 0.00716184 
883 1 10.9649 6.36816 4.87629 
884 1 -12.6173 -7.33649 3.63717 
885 1 -12.2834 8.33927 -4.76959 
886 1 5.50841 3.22121 10.7367 
887 1 -13.2251 -1.25944 -3.49729 
888 1 -11.6741 6.12464 8.17256 
889 1 -3.3856 3.10907 -10.1361 
890 1 7.45738 -4.84289 -9.38689 
891 1 -9.3139 -12.0937 -3.841 
892 1 8.16172 -9.71364 -4.10834 
893 1 -16.3137 -1.33066 -2.32709 
894 1 -9.15103 -5.62724 -4.98926 
895 1 11.6157 7.17934 8.12002 
896 1 -9.77325 -7.71214 2.92655 
897 1 8.23598 2.2952 17.1873 
898 1 11.7337 -6.38111 10.1399 
899 1 9.39493 -2.77402 4.58169 
900 1 -14.3214 5.99808 0.892404 
901 1 0.959964 9.38629 8.64959 
902 1 8.07222 4.69213 -7.86664 
903 1 -2.4509 -9.63966 -15.8625 
904 1 -5.96062 16.0529 6.3529 
905 1 -12.4857 -11.1378 8.45697 
906 1 2.77354 12.0965 -6.31606 
907 1 0.110255 9.18267 12.2401 
908 1 13.4984 -3.59638 -3.19934 
909 1 8.19187 -8.74167 11.162 
910 1 -2.4059 14.1487 -10.7973 
911 1 4.48589 9.65676 -8.95444 
912 1 1.81088 -5.02922 -1.86125 
913 1 -4.9695 -3.44802 12.799 
914 1 13.5914 4.01812 12.4192 
915 1 -5.12538 -4.50808 -9.72256 
916 1 12.5814 10.4788 -3.14708 
917 1 -13.6606 2.72663 1.75565 
918 1 -6.65123 -11.1318 6.41363 
919 1 0.134364 15.866 -11.2482 
920 1 6.39942 -2.30982 10.8863 