ITEM: TIMESTEP
1005000
ITEM: NUMBER OF ATOMS
2000
ITEM: BOX BOUNDS pp pp pp
-30.0 30.0
-30.0 30.0
-30.0 30.0
ITEM: ATOMS id type x y z Coordination
1 1 -11.8147 5.31089 -11.4155 15
2 1 -10.866 -7.81002 -9.50688 16
3 1 1.06017 10.9356 12.4451 20
4 1 4.38402 -12.206 9.74747 12
5 1 -10.5432 5.69066 -3.10584 20
6 1 5.32716 -8.72701 -11.4908 20
7 1 -12.4609 6.28131 -5.44115 17
8 1 0.830842 -1.54928 9.4235 22
9 1 -8.57561 0.867984 -9.77946 19
10 1 -12.0671 -11.2875 8.81055 11
11 1 13.6802 6.61806 -3.48806 18
12 1 -3.02589 1.79604 -4.14781 19
13 1 0.529037 -10.8184 0.140684 22
14 1 -14.6879 -10.5867 3.1377 16
15 1 -2.32882 4.20528 18.2735 15
16 1 8.67869 -4.6476 6.74905 19
17 1 1.43633 3.38932 9.25538 20
18 1 8.48761 -0.903343 2.43868 20
19 1 -0.574654 5.30469 -14.3654 24
20 1 2.6378 0.634648 11.0013 22
21 1 -8.69869 -0.775984 -15.4075 13
22 1 -14.5778 -3.54498 13.5352 10
23 1 14.4225 4.61201 6.29002 18
24 1 4.76812 6.6839 -17.8247 12
25 1 6.29459 5.90667 -10.6321 19
26 1 10.8292 2.26553 7.03717 22
27 1 -6.33722 1.53955 2.0276 20
28 1 -12.5692 7.1398 -8.94133 12
29 1 -3.20186 -2.60482 -8.52288 22
30 1 -10.0255 4.82895 7.51059 21
31 1 6.9725 -12.847 5.76397 14
32 1 4.05369 -1.71135 9.11511 20
33 1 2.34721 -15.0405 -9.54979 16
34 1 7.7896 -9.41532 -0.911333 21
35 1 -6.85584 -13.8106 -5.85588 11
36 1 -10.961 -5.03837 13.9223 14
37 1 3.46091 -3.61992 -5.5986 21
38 1 -2.64932 -7.33646 -14.1899 21
39 1 3.03953 -4.54557 -14.1008 20
40 1 0.915087 3.15791 -16.5239 19
41 1 -2.69028 6.92731 9.89177 20
42 1 1.03063 -11.8213 10.5379 15
43 1 4.56163 -4.55793 14.0283 15
44 1 -9.19543 -0.598055 1.07897 21
45 1 -14.0432 -2.13143 7.95165 17
46 1 -7.72279 1.79309 -1.16986 20
47 1 -3.00145 12.4428 -3.53805 18
48 1 -4.42052 -13.2124 -9.86422 15
49 1 1.40429 0.0590418 -11.4731 20
50 1 4.16383 -5.07764 -10.9629 22
51 1 -0.998692 -6.42883 13.4705 16
52 1 -9.02774 5.31794 0.0948527 21
53 1 -0.620846 13.3403 -10.8167 10
54 1 -0.46529 16.395 8.94684 14
55 1 -5.59097 5.40516 -10.5857 19
56 1 0.278347 11.836 0.534339 20
57 1 1.42537 -14.8578 -3.46426 20
58 1 9.70922 -5.58697 -8.67014 17
59 1 1.23529 -10.5041 -15.945 14
60 1 -9.8098 10.6576 12.2372 11
61 1 -13.1974 -5.55375 -10.401 12
62 1 7.53548 5.17144 6.64623 18
63 1 -8.29834 10.5063 -4.0795 16
64 1 -9.06928 -10.7739 7.89666 23
65 1 -5.07517 11.8707 9.52045 17
66 1 -12.0096 3.41137 -4.53998 18
67 1 -8.87775 8.11284 14.3402 12
68 1 0.0707883 6.74282 -5.5452 22
69 1 2.42863 6.56912 0.713273 22
70 1 -7.47577 -10.883 5.02292 22
71 1 2.49253 0.61967 7.58294 23
72 1 4.89992 -15.1631 -7.34761 16
73 1 4.55824 13.1515 14.6132 11
74 1 -10.3177 4.91872 -8.83988 19
75 1 -4.862 8.47499 -12.1822 16
76 1 3.68221 6.11518 12.5795 20
77 1 11.07 -10.467 -6.53458 12
78 1 7.56581 -9.83099 4.42564 22
79 1 -15.101 -2.06229 4.47276 12
80 1 -6.76396 -2.90582 2.15345 23
81 1 3.26249 15.8888 6.1757 14
82 1 4.67094 0.55412 12.9184 21
83 1 -4.71962 -13.454 5.91709 23
84 1 -10.7751 -2.52667 -0.110018 22
85 1 15.7049 5.49918 9.1221 12
86 1 8.76732 -2.1933 -3.98752 21
87 1 -1.40155 14.311 5.26729 21
88 1 5.17592 -4.1811 7.08654 20
89 1 -4.53302 -6.0131 4.191 23
90 1 -3.22918 -6.45958 -8.52893 20
91 1 -6.55477 6.97183 11.4232 22
92 1 -11.1816 13.1225 -5.22781 10
93 1 -3.71217 8.15674 -9.00927 19
94 1 5.65198 -1.60452 -3.0339 20
95 1 5.44907 0.569869 -8.22199 20
96 1 10.4719 9.96293 -8.48477 23
97 1 8.03758 -5.49223 3.98359 20
98 1 6.60821 -9.68606 10.7599 11
99 1 -2.75781 11.8404 -6.68042 19
100 1 -14.5495 8.44256 1.4583 16
101 1 -9.23704 -2.94109 12.1053 19
102 1 -3.18315 9.51803 8.20704 21
103 1 -3.73527 -9.01496 9.21459 21
104 1 6.59165 -3.94033 -5.6085 20
105 1 -8.35358 7.28679 3.93965 19
106 1 -12.2757 -13.3169 3.12162 13
107 1 9.71288 -8.5437 -9.25256 21
108 1 4.39281 -1.82887 -10.8668 22
109 1 -5.49877 -1.93858 -14.7462 19
110 1 5.59542 -0.07953 7.04336 20
111 1 -2.04326 9.79306 1.61013 20
112 1 -10.6652 6.40707 -14.1782 13
113 1 1.57421 11.1585 15.7148 13
114 1 1.17588 11.4402 -2.93198 20
115 1 -14.8164 11.1605 2.58089 10
116 1 3.4321 11.98 -0.830504 20
117 1 -0.527355 -0.763239 -3.77342 20
118 1 -1.65672 -6.84612 10.2927 18
119 1 12.3865 -0.0460909 8.70311 16
120 1 -0.767416 -4.67053 -7.89455 22
121 1 4.83361 -5.1015 -8.04408 19
122 1 -2.92927 -0.93162 6.00877 20
123 1 2.90929 -1.44901 14.9511 15
124 1 -10.1925 -9.91158 -1.27684 19
125 1 6.05812 -4.82856 1.43628 20
126 1 -8.48095 -8.22504 -3.17937 24
127 1 9.26269 -11.7792 0.540475 18
128 1 -4.7979 6.81975 4.79257 21
129 1 7.02488 8.16626 -16.0387 13
130 1 5.19246 18.4849 -0.782591 13
131 1 -8.40009 -10.6959 11.3526 14
132 1 -8.47337 -7.92996 5.88096 21
133 1 -0.92561 4.25238 2.22571 21
134 1 -1.08968 -10.0194 -17.4493 11
135 1 2.78826 3.59081 -4.53682 18
136 1 8.91837 -9.00745 -4.1642 21
137 1 -3.1706 -16.3614 7.71211 12
138 1 -10.4901 -7.11391 -0.605465 20
139 1 15.024 8.19907 10.4823 12
140 1 8.47092 -0.442677 -13.5637 16
141 1 -15.7807 -9.68399 -0.0848806 12
142 1 14.2041 9.55532 4.95775 12
143 1 15.634 8.25607 -1.61423 13
144 1 -5.27026 4.5574 16.7032 16
145 1 5.60466 6.33144 -0.402795 22
146 1 -2.26101 11.5916 10.2329 18
147 1 -5.98997 12.0679 -5.5491 21
148 1 -1.65993 -7.90393 -10.6727 23
149 1 5.88266 -11.6953 -12.2867 19
150 1 1.4849 7.57238 -13.1698 23
151 1 8.00692 -4.06027 12.5762 20
152 1 1.66304 -4.87717 -16.9508 14
153 1 -3.02158 7.56254 -5.77737 20
154 1 11.064 1.3925 -2.92234 23
155 1 -5.92092 9.16862 -6.29815 20
156 1 4.42611 -2.24927 -0.479041 20
157 1 -12.0167 12.97 -2.0438 13
158 1 6.06652 -2.44992 -13.5764 22
159 1 6.80989 -7.37261 6.55899 26
160 1 -4.17806 5.06788 -7.4837 22
161 1 -4.01843 12.4829 6.4334 17
162 1 10.6818 6.43136 -8.70015 20
163 1 1.33253 1.67019 -2.29939 21
164 1 6.54285 12.7315 -13.4088 10
165 1 -6.33289 14.5888 -0.74844 17
166 1 12.3123 9.14145 -0.890748 21
167 1 -8.47364 10.9895 -7.16469 22
168 1 -5.30959 15.1787 -7.12958 13
169 1 3.60385 8.69645 -15.2805 19
170 1 -13.7453 -12.0801 0.601548 12
171 1 -13.9554 8.37157 4.75108 13
172 1 -8.85095 -3.09159 -10.0835 18
173 1 -1.93511 -12.0467 -15.479 12
174 1 8.19164 10.6955 8.00842 17
175 1 -2.00826 16.872 6.65919 12
176 1 -9.82531 -1.15118 -7.70351 23
177 1 -14.5551 11.0944 -0.780574 12
178 1 16.1992 -1.82611 -1.72273 10
179 1 -9.55258 0.875541 -12.8979 20
180 1 4.40902 3.53741 18.0523 16
181 1 6.80307 18.8489 1.73947 6
182 1 1.21323 6.09304 7.4299 21
183 1 0.0745765 -7.73001 -18.1762 10
184 1 -8.08679 11.499 7.58775 16
185 1 -3.52799 15.1389 -1.5503 16
186 1 1.40082 -3.70847 14.0713 18
187 1 -8.30131 -5.20045 0.545109 23
188 1 -4.28786 -12.075 -12.9989 13
189 1 -9.86915 9.03847 -8.65502 17
190 1 0.766215 -9.13122 5.69624 23
191 1 2.07663 -16.2602 -6.32574 13
192 1 -2.28559 15.3156 -8.38112 13
193 1 -11.985 0.327323 9.38835 23
194 1 4.11648 8.81044 -2.22862 20
195 1 7.35172 10.9097 -7.7983 25
196 1 -8.01031 5.00397 15.4906 14
197 1 0.376282 -8.80311 11.4316 16
198 1 -6.09466 4.52394 0.231157 20
199 1 0.588523 16.892 5.51428 18
200 1 4.38957 3.46341 7.78691 22
201 1 9.82048 5.53801 18.1838 11
202 1 -7.22727 15.1751 2.41608 13
203 1 12.3027 -8.39167 -3.83476 12
204 1 -8.21261 12.2752 10.7471 11
205 1 -4.00644 1.8522 -7.53568 20
206 1 8.67093 -7.92162 1.69377 22
207 1 -3.49343 -6.26433 7.44496 20
208 1 -14.6646 0.1249 1.91382 12
209 1 -10.1341 -12.3529 0.751145 16
210 1 2.45992 5.80643 16.0099 21
211 1 -15.6709 -3.54156 -1.72432 11
212 1 -0.174802 1.12416 1.49512 20
213 1 -4.91941 -16.1685 -1.61221 13
214 1 -1.43815 -1.57554 3.68427 22
215 1 -5.85662 -2.94495 -3.77358 22
216 1 6.5438 -7.41711 -3.5691 20
217 1 -3.20075 9.40445 5.12842 20
218 1 -7.76925 -0.563444 4.03484 20
219 1 7.59292 13.7804 9.58518 14
220 1 -8.8039 2.12353 -4.28863 20
221 1 -7.05896 9.06599 -9.26371 23
222 1 -12.7186 -2.34429 -6.35489 23
223 1 -5.0205 -6.13695 10.0119 21
224 1 -0.602541 -8.86124 2.59829 23
225 1 1.85195 -11.9886 4.19717 22
226 1 -13.4197 11.0024 -3.92614 10
227 1 18.1716 1.51678 6.12564 6
228 1 7.37267 8.44069 -2.66058 21
229 1 -8.2438 -6.26051 -13.7874 16
230 1 6.90537 -2.33213 5.04665 20
231 1 -3.88072 -3.66584 2.45507 21
232 1 3.81592 -12.4228 6.68328 20
233 1 -1.69846 8.51228 -16.5967 10
234 1 0.528893 -12.5093 -13.3689 15
235 1 7.71768 3.20414 -12.9903 17
236 1 2.25779 4.61243 -18.6317 14
237 1 -7.33303 -2.76904 -6.83472 22
238 1 3.24958 9.32418 -11.3529 24
239 1 -9.67194 -8.23992 13.0949 12
240 1 6.53202 15.9378 1.07973 19
241 1 -11.1758 2.33537 13.1597 15
242 1 -5.78479 14.3897 -3.77276 17
243 1 5.87915 1.07435 9.48434 22
244 1 -6.86044 -3.99723 -12.4793 22
245 1 0.635305 11.2805 -6.50513 19
246 1 3.2426 2.55056 -10.1713 19
247 1 -12.0133 -9.74728 1.45564 23
248 1 2.3065 3.50831 2.7958 22
249 1 -10.8446 7.72265 5.47522 20
250 1 -6.0183 9.8398 6.29767 20
251 1 3.42065 -10.2843 -1.07945 20
252 1 -2.67561 -15.8169 1.13463 18
253 1 8.70825 -12.5673 -4.94981 14
254 1 -0.842982 4.26344 5.4308 20
255 1 -4.58058 -0.545594 3.20952 20
256 1 0.723514 -4.55609 -4.6159 20
257 1 8.17755 7.19745 16.0125 18
258 1 8.1453 7.9433 -7.86646 22
259 1 -0.752947 14.2436 -1.52697 22
260 1 -8.8391 2.06001 4.98228 22
261 1 -8.9073 7.75423 -5.57824 20
262 1 1.95002 3.61799 12.1806 19
263 1 2.64517 -14.9667 2.00453 18
264 1 13.1263 -0.361141 -0.798518 21
265 1 3.14112 9.15238 7.52244 19
266 1 -9.99131 12.9157 3.54576 13
267 1 -11.3439 0.339777 -5.23188 23
268 1 5.53121 10.1927 -13.6392 19
269 1 -0.380652 -1.4148 12.0477 22
270 1 5.422 11.5343 -10.2333 20
271 1 8.72516 -13.4466 -10.9786 11
272 1 -4.02302 -2.11239 -11.6765 23
273 1 -1.50189 -14.4629 6.11588 22
274 1 7.07742 -0.597973 -5.79355 21
275 1 -6.58626 -5.36601 6.91719 23
276 1 4.57792 -15.3154 -4.41843 15
277 1 -11.9221 -3.69569 -8.79032 21
278 1 4.21467 16.0448 -0.509472 20
279 1 -1.36168 -1.77515 -12.201 21
280 1 0.983914 3.5478 18.67 15
281 1 15.2144 1.37004 1.11001 17
282 1 -1.42062 -5.87437 3.33325 20
283 1 12.92 -6.41866 -9.68001 11
284 1 -0.410735 -3.39745 1.395 21
285 1 -13.969 -1.76997 -10.7492 11
286 1 -9.54024 2.45424 -7.40045 22
287 1 -6.73585 -13.4627 10.367 14
288 1 9.54781 0.383128 9.43271 22
289 1 7.41188 -5.1132 9.87327 20
290 1 -0.242401 -9.51649 -13.2751 17
291 1 1.91506 -4.00923 7.7226 20
292 1 0.0848822 7.72891 -10.7714 18
293 1 4.12767 9.0842 1.02453 20
294 1 -7.885 -5.18756 3.81218 24
295 1 1.89941 14.3207 0.673687 20
296 1 -5.4685 -3.31021 15.2826 15
297 1 -9.75931 -7.96316 -6.28675 22
298 1 -6.12862 -6.71168 -7.5135 21
299 1 2.75835 4.99865 -14.888 24
300 1 -7.11301 -11.2842 -11.3141 14
301 1 -5.65444 -10.5498 1.03124 22
302 1 -2.66176 -5.61224 0.15508 22
303 1 6.77896 -8.49717 -15.3153 13
304 1 10.8531 -5.12344 -11.7476 16
305 1 6.12289 -7.83787 3.56787 22
306 1 12.4346 3.00528 4.23768 20
307 1 -3.60859 -5.31569 -2.97737 20
308 1 -9.22233 -6.29133 7.92351 18
309 1 -4.87636 -13.7572 0.283976 21
310 1 6.69756 5.59245 19.1164 12
311 1 -7.80854 -13.7344 6.65868 19
312 1 5.14695 -2.16498 -8.05284 20
313 1 -3.25293 -13.7787 3.39389 22
314 1 -1.59086 16.7512 0.321412 14
315 1 8.53486 -3.53399 -13.7125 18
316 1 -7.43928 -3.6085 -16.2699 12
317 1 4.81273 -6.91889 -1.23395 19
318 1 -10.8173 -5.87924 11.3733 18
319 1 2.21169 8.73332 17.4857 15
320 1 4.62968 -11.9726 -6.12844 18
321 1 0.330274 -12.9161 -8.24317 19
322 1 -11.7038 3.20683 -14.1089 12
323 1 6.52553 5.17469 9.59662 20
324 1 -6.84958 3.57011 -8.44411 19
325 1 -2.56091 6.37231 -11.4197 20
326 1 -2.66309 -4.01875 5.5003 20
327 1 5.75067 -14.7128 -10.6554 16
328 1 -8.89198 13.57 -2.86326 16
329 1 1.87115 11.1798 5.51382 20
330 1 13.2908 -0.259255 3.18199 20
331 1 -9.90672 -0.0417188 6.93375 22
332 1 -5.54735 -8.22701 6.55547 23
333 1 -6.21852 9.34873 2.89665 22
334 1 1.73609 -2.93135 -11.5733 22
335 1 13.8888 9.86252 -8.23121 10
336 1 0.435657 -10.9961 -3.20075 20
337 1 -3.5463 -1.49875 13.2307 20
338 1 -15.2447 -4.28907 1.64012 14
339 1 1.63301 -13.2654 -1.15437 24
340 1 -7.53023 5.12338 9.43244 22
341 1 -9.73342 2.72298 10.4785 21
342 1 -15.0889 -1.70085 10.6778 15
343 1 -14.3315 -8.32054 5.70976 13
344 1 13.3944 -3.77951 -1.15842 22
345 1 -10.356 -8.68905 10.0556 18
346 1 10.1341 -3.72068 -5.84514 20
347 1 11.3112 -7.08744 -6.59695 18
348 1 6.00446 16.4912 -6.89946 13
349 1 -0.54533 -6.18503 6.31699 20
350 1 -10.0313 13.3051 -8.6125 10
351 1 0.294161 1.31323 4.35876 20
352 1 9.689 4.32677 8.84696 23
353 1 -8.81822 -3.10098 6.26827 24
354 1 5.00388 -7.47784 -6.42254 18
355 1 -3.68619 12.1544 0.170189 22
356 1 -10.3392 4.603 3.9271 19
357 1 2.25295 3.32819 5.76932 19
358 1 2.81609 -10.012 8.27292 22
359 1 9.79646 -7.7408 5.7674 18
360 1 -1.72217 4.25672 8.55203 21
361 1 -6.22631 -5.90835 -1.9468 20
362 1 5.17471 -1.59881 2.1957 21
363 1 -1.28095 1.60333 16.8847 16
364 1 -1.50601 14.1969 1.83696 21
365 1 9.35317 8.24183 13.4408 21
366 1 -6.81904 13.5762 -9.29747 15
367 1 -3.27629 -7.51249 -17.52 12
368 1 -6.52551 -0.360277 -3.3232 22
369 1 4.87608 -11.8667 -15.158 9
370 1 -7.29186 2.20768 8.16928 19
371 1 -14.2483 5.49236 3.47625 15
372 1 -4.58807 -4.6206 -6.19475 24
373 1 -1.11269 9.79069 -4.60106 22
374 1 9.10558 -0.315988 6.53327 20
375 1 -13.592 -9.46048 -1.65519 14
376 1 8.51771 -8.11912 9.0385 19
377 1 -3.4437 1.99061 1.12545 19
378 1 -7.88322 -5.93403 10.8296 23
379 1 -11.7721 10.3204 3.56841 18
380 1 0.862754 -4.45285 10.9296 21
381 1 6.36565 -12.3463 -9.28087 19
382 1 -5.60221 -0.707433 -8.96734 22
383 1 7.11862 -5.10298 -16.2343 15
384 1 4.35839 13.2292 4.46309 21
385 1 -10.7133 2.67108 -1.33615 23
386 1 -0.116617 -5.76592 -13.3617 21
387 1 8.68276 11.5379 -10.7521 20
388 1 -1.39679 -13.4791 -10.5945 18
389 1 -12.6965 -9.40895 -7.2137 11
390 1 -4.01326 -8.39618 -1.39645 21
391 1 9.32298 5.01929 14.7566 19
392 1 -3.27585 -1.46567 -2.82636 19
393 1 13.494 3.17556 -1.00072 23
394 1 -8.35993 3.53413 -11.289 19
395 1 3.22561 19.256 1.13458 10
396 1 -14.7722 -1.50785 -4.17943 14
397 1 5.55861 2.64803 1.8506 20
398 1 -8.92812 9.96957 -0.77729 19
399 1 -10.7056 8.92604 -3.08632 21
400 1 -5.7026 4.05303 13.1564 23
401 1 7.17667 2.66378 14.3944 19
402 1 13.7306 -1.25948 -6.83557 15
403 1 6.09277 -1.99511 14.5384 14
404 1 12.4094 1.56588 -5.95265 18
405 1 -4.49219 -15.5574 -4.81289 12
406 1 5.76272 3.58233 4.82575 20
407 1 -2.90393 4.76702 -0.417786 18
408 1 0.604222 -8.02666 -4.63996 21
409 1 -0.0598685 8.95207 5.52941 22
410 1 4.53729 1.37186 -2.5263 21
411 1 -8.88398 5.15312 -5.64482 22
412 1 1.77068 -8.10285 -1.4454 23
413 1 13.3014 2.4807 12.7279 12
414 1 -9.09144 -1.91135 -4.38959 19
415 1 -6.68039 -8.04667 3.63673 24
416 1 -7.72579 -5.27348 13.945 17
417 1 -1.89335 9.71306 -1.64314 22
418 1 -11.3291 -7.28434 -3.52735 24
419 1 7.17133 5.56198 12.9108 22
420 1 -8.08585 7.69347 -2.17359 19
421 1 3.04053 14.0366 -5.89338 21
422 1 4.54841 13.4897 8.08927 18
423 1 -13.8303 -8.06319 -4.76207 18
424 1 -5.44844 -7.75708 -4.11281 21
425 1 -11.241 0.04092 3.8402 24
426 1 -11.5008 7.51639 -0.704047 21
427 1 4.14563 -9.42298 5.28656 22
428 1 -2.24942 -10.7367 -9.11445 22
429 1 10.3929 8.68585 7.78194 18
430 1 8.99638 9.77205 -13.7245 13
431 1 -8.73113 4.17843 -14.4986 15
432 1 0.435911 10.7235 -12.2325 17
433 1 -5.9815 6.66087 -4.65668 20
434 1 -4.70154 -10.7707 4.22849 25
435 1 15.7742 6.43538 4.1824 16
436 1 1.47778 7.28191 -16.6626 18
437 1 -5.48495 -0.841878 10.3124 20
438 1 -11.9317 0.591708 0.863567 21
439 1 4.08185 0.656511 -5.21608 17
440 1 -6.80152 4.8424 5.81648 21
441 1 1.79397 -14.6931 5.58364 17
442 1 1.88905 -6.41388 -7.03727 21
443 1 3.35768 -8.02296 -9.4844 22
444 1 3.77676 -1.82912 5.18358 21
445 1 -14.9577 3.26133 5.79879 12
446 1 -15.1029 0.961656 8.56907 15
447 1 -9.18239 10.2654 2.32085 23
448 1 0.433991 -6.61405 0.929536 23
449 1 -6.53608 1.62167 -13.8623 20
450 1 8.06799 -14.5694 -7.78566 13
451 1 0.70286 -15.0541 -12.2616 11
452 1 -4.45704 -3.16208 8.19455 20
453 1 3.20407 -6.44774 -4.01209 22
454 1 -3.87553 3.62325 -12.9249 22
455 1 7.80738 -12.734 2.9815 21
456 1 2.14334 9.07722 -4.42548 18
457 1 -9.64824 7.70934 11.1839 16
458 1 -6.89804 -0.406151 16.5563 16
459 1 -12.3528 -3.22886 -12.6291 13
460 1 -2.43116 -8.47477 5.20009 22
461 1 11.0314 -4.4936 11.884 12
462 1 7.01644 0.701638 4.37654 21
463 1 -2.60702 1.8894 4.46768 20
464 1 2.33302 -0.143177 -8.48471 22
465 1 9.31907 -10.4687 6.73777 12
466 1 -1.05213 6.80816 -3.08088 19
467 1 7.44759 14.5406 -10.6534 10
468 1 -0.507412 1.50329 10.7034 23
469 1 2.43493 14.2883 -2.56328 21
470 1 4.96176 -5.11497 4.12464 22
471 1 -4.36818 -12.1132 -5.07827 22
472 1 -3.14488 7.01617 16.3729 16
473 1 -4.51494 15.0996 4.51421 14
474 1 -9.28877 -11.1157 -6.62119 16
475 1 8.21511 13.23 -8.9965e-05 17
476 1 3.635 6.39683 9.41552 20
477 1 -6.67506 -0.907224 7.26816 22
478 1 -2.16515 -9.04062 -3.86352 19
479 1 -11.7453 2.20822 5.92897 20
480 1 -8.83391 -5.54581 -8.10873 23
481 1 -5.04974 7.05059 7.9317 23
482 1 -5.44472 -11.5497 -7.93619 19
483 1 -3.00916 -4.24677 -13.9606 21
484 1 -1.26887 -11.5321 4.43171 20
485 1 -5.62874 -2.79353 5.1711 25
486 1 14.2714 1.29474 6.23801 17
487 1 -4.25685 -5.82886 13.3734 16
488 1 -11.0757 8.74303 -11.7943 13
489 1 8.39798 4.66617 -3.49095 21
490 1 -5.64532 -13.4815 -2.57342 17
491 1 0.411303 2.20005 -9.38101 19
492 1 1.26025 16.8689 2.15851 18
493 1 1.76647 8.65616 -7.73298 20
494 1 -3.74904 6.63827 13.0255 20
495 1 -13.8146 -4.79769 -4.50726 22
496 1 -1.20555 17.5533 -3.06025 12
497 1 3.73947 11.4195 -7.35302 19
498 1 -6.70886 -9.42979 -5.93252 21
499 1 2.00728 1.08314 17.049 15
500 1 2.05552 -12.8294 -5.53126 19
501 1 -1.98934 -4.64534 -10.9159 20
502 1 8.31641 -15.7434 3.47044 9
503 1 -8.17436 14.382 -6.11498 14
504 1 -0.385553 5.97491 13.8754 20
505 1 9.37958 10.2101 -0.608331 21
506 1 7.86661 8.42304 1.38243 21
507 1 -8.59806 6.42905 -11.1655 19
508 1 1.19314 4.22794 -7.58652 18
509 1 3.06182 -6.92442 6.8 20
510 1 -15.792 -6.81108 -2.47087 13
511 1 6.84605 3.52653 -0.938282 21
512 1 1.46891 18.3417 8.03285 9
513 1 -3.66898 6.23327 -14.6996 18
514 1 12.6503 6.27038 -0.485379 22
515 1 -0.427417 17.0541 -6.33511 12
516 1 6.43217 -10.3066 1.74041 19
517 1 14.2748 3.35667 -3.72396 17
518 1 1.66043 -1.43429 -16.7998 17
519 1 -2.30694 -11.3738 1.15669 21
520 1 -0.834168 -14.5349 9.77578 13
521 1 3.55939 -9.6205 11.1779 15
522 1 -7.44687 6.51825 -7.92731 18
523 1 -9.30144 -13.3045 3.88 18
524 1 5.12241 5.29893 -2.84176 19
525 1 -0.00771418 -16.0336 -8.5857 12
526 1 6.73212 13.5064 6.35007 15
527 1 3.35722 1.94412 -15.5266 21
528 1 -0.479171 -1.06964 15.452 18
529 1 -11.0911 5.21771 10.7337 13
530 1 0.473094 -15.979 -0.111032 14
531 1 -12.7595 -2.63289 2.41174 21
532 1 13.5984 -4.64462 -6.89024 13
533 1 12.8129 -4.95557 -3.82062 19
534 1 1.12707 1.46589 -5.98278 20
535 1 -3.38782 4.68217 -3.88124 19
536 1 1.79265 -9.96856 -7.15302 21
537 1 6.64038 2.60065 -10.2564 20
538 1 8.39223 -2.1511 -8.03408 20
539 1 -7.80955 2.52575 17.4921 13
540 1 5.19926 13.2975 1.32729 22
541 1 -4.28376 -4.29389 -17.2128 11
542 1 4.12946 -7.37388 1.05091 21
543 1 7.4092 -1.83491 -16.5075 14
544 1 -6.85695 -8.40323 8.8028 23
545 1 -6.83603 11.8122 0.997913 21
546 1 -9.29684 -3.13829 -13.6747 17
547 1 -14.1544 2.67707 -0.102281 14
548 1 -5.17406 -8.90988 -9.94257 22
549 1 -2.54064 -11.6761 7.353 20
550 1 3.00238 6.4846 -10.186 20
551 1 13.7986 4.96186 15.1581 9
552 1 14.5741 7.24991 -7.1088 13
553 1 -7.64689 -12.1456 -0.452297 22
554 1 3.14777 -12.1603 1.2427 18
555 1 -2.66994 -1.20783 -15.4451 16
556 1 -7.24575 9.51141 9.33949 19
557 1 2.21182 -3.33114 -8.58671 21
558 1 0.520312 3.99244 -0.174496 21
559 1 12.6499 -3.90036 2.95416 18
560 1 4.30691 14.3751 -8.99031 17
561 1 8.69599 -15.2956 0.530927 11
562 1 7.777 -2.39378 -0.61809 23
563 1 12.5761 5.06845 -10.6945 11
564 1 2.06559 8.25799 14.084 19
565 1 -8.0362 7.6912 7.28032 21
566 1 -4.73096 -3.45698 -0.518654 19
567 1 11.8501 6.50059 9.50451 22
568 1 5.41804 0.887048 16.2619 17
569 1 -0.938072 0.762283 -17.5939 13
570 1 -7.52562 -5.86116 -4.95541 22
571 1 -2.73519 -4.15864 11.3494 20
572 1 8.50309 7.73543 9.88391 19
573 1 5.33243 8.86119 -5.36495 21
574 1 -2.77305 10.602 -11.0767 17
575 1 -0.129491 13.515 -4.58861 21
576 1 9.66989 -1.82446 14.0564 15
577 1 6.25509 4.80207 -15.2841 18
578 1 1.19145 -7.72406 -15.5694 19
579 1 12.0765 9.58563 11.176 15
580 1 -12.5149 -4.86529 -1.50717 21
581 1 -6.16216 11.555 -11.5484 14
582 1 -0.936351 1.41963 7.28345 20
583 1 -14.2715 1.51075 11.4887 10
584 1 -0.984435 9.72976 -8.35939 16
585 1 6.49051 -15.3159 -1.79455 14
586 1 10.3831 1.47411 -11.3376 14
587 1 -2.71441 15.166 -4.93407 17
588 1 -7.09488 -6.94871 -10.7165 22
589 1 2.26145 -14.4801 8.81644 12
590 1 -11.6983 -2.66761 -3.49659 20
591 1 0.498543 10.1368 -15.7179 12
592 1 -4.94307 2.24022 -1.7409 18
593 1 -3.7437 9.75028 14.5756 14
594 1 -12.4447 -7.72506 3.89287 22
595 1 7.38751 10.9266 -3.48527 17
596 1 3.40549 -11.8382 -9.35702 20
597 1 5.82111 -6.91771 12.0699 16
598 1 7.87559 1.37582 -2.82266 21
599 1 1.83588 -1.22785 2.26975 21
600 1 -7.57429 4.78783 2.73238 19
601 1 3.26337 6.19739 19.3027 13
602 1 2.46362 16.7245 -7.67534 12
603 1 10.3196 -7.41376 -1.76361 22
604 1 2.57141 8.98774 11.0654 20
605 1 2.09063 1.16259 -18.5061 12
606 1 -5.25286 -10.9773 11.4472 14
607 1 -2.613 0.43932 -10.1693 22
608 1 4.30926 -6.65644 -15.9723 15
609 1 1.1801 14.1511 7.56151 23
610 1 9.25757 4.55323 -11.0033 18
611 1 -1.07295 2.40681 -12.23 21
612 1 -3.09464 -11.4775 -1.79405 20
613 1 -12.319 0.646946 -8.29738 20
614 1 14.3757 4.37611 1.91399 21
615 1 14.39 0.277596 -3.7677 16
616 1 3.90798 -9.35672 -14.5641 17
617 1 12.1697 7.61106 12.9026 15
618 1 3.79144 -9.40297 -4.21646 20
619 1 4.45406 -0.218825 -17.3014 17
620 1 6.15678 10.6689 2.99404 21
621 1 -4.5173 3.88236 3.5253 21
622 1 4.43928 10.8669 12.8532 22
623 1 10.4532 7.59018 -2.87151 22
624 1 15.6374 -0.355562 4.38446 13
625 1 6.58878 6.10354 -5.91376 19
626 1 5.93838 5.16399 16.0574 21
627 1 11.474 2.44965 10.8643 20
628 1 3.86604 -4.52354 10.0925 20
629 1 12.1162 11.6022 -6.1235 14
630 1 10.3701 0.684061 4.10697 19
631 1 0.241488 3.41027 15.3834 21
632 1 12.0845 -1.85176 -3.77568 19
633 1 11.752 6.56194 16.011 13
634 1 -7.6191 0.0658889 -6.53713 19
635 1 15.7917 2.65929 4.43529 17
636 1 9.38953 -4.21003 1.54532 23
637 1 -1.44641 -8.82521 -0.321478 22
638 1 -11.9286 7.72988 8.71828 13
639 1 10.3181 5.50173 11.4557 20
640 1 10.1924 1.63249 13.9807 20
641 1 1.98697 11.5434 9.15382 20
642 1 0.173962 13.861 10.867 16
643 1 2.97131 8.74405 4.13052 22
644 1 -5.5763 -16.1555 1.7291 17
645 1 -4.53823 6.74479 -1.92325 19
646 1 11.8524 8.27688 -6.11883 20
647 1 12.2329 -0.309694 -9.11829 12
648 1 1.53626 17.2176 -1.06545 16
649 1 -3.8621 -8.83999 -6.66036 20
650 1 8.42778 -7.23807 -12.3327 20
651 1 -14.2816 0.123026 5.55348 18
652 1 -9.05899 11.2593 -10.6357 16
653 1 -6.98204 -15.7751 4.64976 16
654 1 -5.92186 1.53366 -10.713 20
655 1 -14.3583 1.53796 -5.61035 13
656 1 10.1437 -10.0313 3.41193 15
657 1 13.037 10.2371 2.2968 14
658 1 5.14547 -7.45518 9.00696 21
659 1 -14.997 -4.38753 -7.80287 12
660 1 4.23144 5.72519 2.64583 19
661 1 5.37272 0.926884 -12.6342 18
662 1 3.59541 0.780772 4.30389 18
663 1 -1.95127 1.2718 13.5745 22
664 1 10.3079 13.2243 -8.67835 13
665 1 12.0052 -0.296591 15.54 8
666 1 4.62113 3.99473 -7.65363 20
667 1 6.63286 0.55393 -0.143168 21
668 1 5.97688 10.6881 -0.40596 19
669 1 0.705148 -10.3606 -10.1876 21
670 1 -11.9378 -2.20523 14.6948 15
671 1 11.7972 -5.23092 5.7115 15
672 1 -1.35703 11.7353 13.4741 14
673 1 3.10231 11.7331 -13.3896 14
674 1 -11.7191 9.15726 -6.15734 12
675 1 9.82725 11.2864 2.28874 17
676 1 -8.00855 -15.4237 -0.811061 10
677 1 11.7976 -5.70859 0.446511 21
678 1 6.40436 16.0615 4.58579 11
679 1 -1.68279 4.16892 11.959 19
680 1 -13.2038 -7.76962 9.31268 12
681 1 -14.7727 -0.76204 -7.70777 11
682 1 7.79665 0.0140793 12.1461 21
683 1 -3.24745 -8.69075 12.3801 17
684 1 5.07173 7.82722 14.6478 20
685 1 -3.91378 12.2054 3.22949 22
686 1 10.8274 4.55154 1.63424 20
687 1 8.08055 -6.0377 -0.96987 23
688 1 9.44047 3.79269 4.86564 22
689 1 4.68823 4.13781 -12.2814 20
690 1 -11.8949 -2.65412 5.80244 21
691 1 12.8313 5.16268 -6.20593 20
692 1 -2.1157 -6.59013 -5.35911 22
693 1 11.3268 -8.2137 -12.2505 11
694 1 9.33244 7.30717 4.39091 20
695 1 4.23013 6.04456 5.96954 20
696 1 -6.87187 2.35229 11.3238 21
697 1 8.16271 10.274 5.16833 18
698 1 -3.45895 -0.705924 15.9998 17
699 1 -2.77088 4.17687 15.0061 22
700 1 -4.40674 -6.31482 -11.8197 21
701 1 -3.81124 1.53167 11.8257 20
702 1 -0.361063 3.45299 -3.59575 19
703 1 7.76528 2.33075 7.33289 20
704 1 -9.37152 -13.562 9.46014 12
705 1 10.6943 10.9587 -3.50819 18
706 1 4.54275 -12.6929 -2.66882 19
707 1 -1.39581 3.51072 -6.63635 22
708 1 5.29765 10.6779 5.9881 21
709 1 7.68055 13.4555 3.23607 17
710 1 4.49119 -3.47741 -16.4126 16
711 1 -1.3118 -4.03688 8.57228 21
712 1 5.28505 16.1996 -3.71774 17
713 1 14.4128 7.77283 1.4168 18
714 1 -0.880642 -3.65867 -1.98672 19
715 1 -7.40276 -8.17592 -0.0509116 23
716 1 -1.38699 -5.16664 -16.3731 18
717 1 -4.35799 9.86012 -3.63688 20
718 1 9.51601 -6.4634 -14.8409 11
719 1 7.37482 5.68914 2.27453 19
720 1 14.7682 3.67953 -8.09134 9
721 1 10.1956 14.0234 -2.57616 12
722 1 -3.93702 4.29742 6.68689 22
723 1 -4.18068 6.87888 1.63493 19
724 1 9.78486 6.51547 -5.73333 20
725 1 11.1657 3.12396 16.6404 12
726 1 8.42499 0.0576864 16.1331 14
727 1 -2.10863 -11.0347 10.5663 17
728 1 -8.0024 8.9637 -12.8627 13
729 1 3.20961 13.0172 11.1505 18
730 1 2.57184 -7.34123 -12.4917 22
731 1 2.84029 -2.18391 12.2083 21
732 1 6.04714 13.2791 -5.68495 21
733 1 5.18164 10.924 9.48859 21
734 1 -5.20835 -0.693919 -0.211547 20
735 1 13.8785 -7.08843 -1.48193 10
736 1 7.31427 10.3334 14.0631 18
737 1 -13.0356 -5.45301 7.16243 16
738 1 5.91748 -15.6887 1.61668 15
739 1 -0.344822 -1.74578 -9.24054 18
740 1 -6.17445 11.8943 -1.98385 19
741 1 0.990461 6.21839 3.89295 20
742 1 5.6663 -4.57411 -2.61041 19
743 1 2.96377 11.5263 2.44502 21
744 1 -13.6002 -5.25116 4.14086 20
745 1 -4.70042 1.44972 18.1242 13
746 1 -2.10237 3.06392 -15.4951 20
747 1 -5.49207 3.69515 -15.5618 14
748 1 6.11529 -12.5728 -0.216284 24
749 1 8.84301 9.49387 -5.3681 21
750 1 2.3926 -7.10871 3.59205 19
751 1 -2.15144 6.94024 3.48056 21
752 1 -12.3289 -2.41783 11.4356 21
753 1 3.33041 -1.21933 -13.7755 20
754 1 0.687135 -12.3458 7.35655 21
755 1 1.22493 14.3291 3.84846 21
756 1 -5.02116 1.51996 14.821 21
757 1 -1.75945 -1.11349 0.188824 19
758 1 -6.22037 -8.78712 -13.2863 19
759 1 -9.47537 -8.63396 -11.8388 11
760 1 -2.67008 -13.8533 -7.23545 20
761 1 2.17318 11.9887 -9.66812 19
762 1 6.72641 -6.63132 -10.0869 22
763 1 3.40243 0.963711 0.257404 20
764 1 -12.637 13.162 1.3466 12
765 1 7.90183 -6.83147 -6.65807 21
766 1 7.6371 -15.4337 -4.93818 12
767 1 2.28779 -6.4737 12.4426 15
768 1 16.2553 4.92058 -1.87763 14
769 1 -1.19153 -13.3285 -4.1045 19
770 1 -10.5904 -2.58359 8.95898 19
771 1 -1.26836 0.321769 -7.15235 22
772 1 -8.70729 -10.1128 2.04112 23
773 1 -5.97744 -10.479 -2.45935 21
774 1 2.74908 -1.56524 -3.37424 19
775 1 -13.9486 -0.00857227 13.7093 11
776 1 -8.86282 -15.0481 1.76595 13
777 1 13.4939 7.79522 -10.4299 11
778 1 -4.12901 15.1096 1.38798 16
779 1 -4.09187 1.35141 8.16826 18
780 1 -12.627 5.39753 6.24915 17
781 1 11.3368 -2.34455 1.04713 23
782 1 -11.3709 -0.738718 -10.8338 20
783 1 0.780906 8.87375 -1.37123 20
784 1 6.21729 2.54025 -5.68909 21
785 1 7.72504 13.4723 13.1737 10
786 1 0.14243 -1.71287 6.67302 21
787 1 11.4383 4.88699 -3.16379 22
788 1 -13.2557 3.71408 -7.66728 14
789 1 -12.2976 -6.13463 -7.16371 22
790 1 -0.598643 8.73578 15.1135 18
791 1 4.7919 6.75256 -13.0631 24
792 1 11.377 9.2779 4.67399 16
793 1 -2.4612 -0.669834 9.45685 22
794 1 2.81875 -9.57125 2.61158 21
795 1 -6.38316 -15.8538 8.39697 11
796 1 -0.503099 -9.20299 8.08957 20
797 1 10.3669 11.0834 13.1856 13
798 1 0.931621 -5.69842 -10.0806 21
799 1 -7.187 7.76298 1.033 19
800 1 6.05128 7.74077 4.58532 19
801 1 -13.8669 -4.69079 10.4218 12
802 1 11.4312 10.6127 -11.1097 13
803 1 -1.10804 -15.9759 -5.47488 14
804 1 0.0583779 -13.4374 1.93653 20
805 1 -1.42813 -13.3921 -0.487829 19
806 1 4.72587 8.3361 -8.28163 21
807 1 3.94719 16.1427 2.88864 16
808 1 -3.44221 0.54272 -13.2424 24
809 1 1.39469 0.614467 13.992 20
810 1 -1.25288 5.65718 -17.5794 14
811 1 -11.7747 -0.557955 -13.9062 12
812 1 -10.3642 0.0853457 -2.06985 20
813 1 1.87809 17.036 -4.33207 15
814 1 9.77296 -0.327395 -0.931331 21
815 1 -5.39689 -6.34982 -15.4331 16
816 1 -5.54369 -6.17747 1.28245 23
817 1 9.33404 2.92768 -5.58251 20
818 1 14.5532 -5.73956 1.32295 10
819 1 -9.02135 4.95489 12.7002 19
820 1 6.648 -11.1261 -3.19539 21
821 1 11.6034 -9.01486 0.595109 15
822 1 11.4533 -0.313554 12.0874 17
823 1 -0.724124 11.7651 7.10677 21
824 1 -9.98547 -0.0206685 12.6275 21
825 1 -4.34122 4.23742 10.0651 20
826 1 -3.99326 -13.6385 9.46637 16
827 1 8.80956 2.4452 1.84455 20
828 1 5.28157 8.00357 17.8103 14
829 1 -13.8593 -7.06154 0.260842 19
830 1 9.18311 -5.84905 -4.0301 19
831 1 1.7447 6.01458 -2.52057 22
832 1 -14.5112 6.26873 0.289763 14
833 1 0.836798 8.85021 1.99219 20
834 1 0.298613 -16.6933 6.68689 9
835 1 3.55829 3.10819 14.5026 20
836 1 -0.803905 11.3756 3.68445 21
837 1 4.77031 -12.1097 3.47842 24
838 1 -7.85077 -2.10271 -1.11841 20
839 1 7.19959 -2.18565 8.9902 23
840 1 -15.8684 -7.10778 -6.14483 9
841 1 4.9522 10.6807 16.2108 13
842 1 6.27982 13.4891 -1.97549 25
843 1 -13.3217 -11.2721 5.47478 14
844 1 -3.78264 -16.9017 4.35621 15
845 1 10.6137 -5.50797 9.32564 13
846 1 11.3206 -6.93853 2.98571 17
847 1 7.98035 10.7569 11.0397 19
848 1 -0.959464 6.93421 0.0285732 21
849 1 -0.6274 -8.34211 -7.71573 22
850 1 0.708175 4.859 -11.0556 20
851 1 -6.97601 -0.586514 13.0633 21
852 1 -1.64438 17.0492 3.59808 16
853 1 11.8944 1.33433 0.947831 22
854 1 3.45955 6.35983 -5.65165 20
855 1 -6.06268 7.41222 14.8891 14
856 1 6.08538 8.30574 11.5897 23
857 1 7.48962 -0.547569 -10.904 20
858 1 -6.42083 -13.2035 2.69906 21
859 1 -4.42149 -0.905253 -5.87695 22
860 1 12.4044 -1.58303 5.74418 18
861 1 -0.280788 0.410295 -14.6449 20
862 1 0.62944 6.41511 10.8332 20
863 1 8.60728 -9.89357 -11.7166 16
864 1 8.20329 6.55394 -13.2115 16
865 1 -0.439792 -6.54072 -2.23177 22
866 1 12.007 -3.51263 -9.01002 14
867 1 14.9408 -1.97345 1.62037 13
868 1 -1.90862 -3.47995 14.4667 16
869 1 -8.02302 -9.27203 -8.99603 20
870 1 1.37507 -1.25007 -0.924425 19
871 1 7.44247 16.23 -1.80026 14