ITEM: TIMESTEP
478000
ITEM: NUMBER OF ATOMS
2000
ITEM: BOX BOUNDS pp pp pp
-30.0 30.0
-30.0 30.0
-30.0 30.0
ITEM: ATOMS id type x y z Coordination
1 1 -13.3583 3.52078 -11.6774 12
2 1 -11.4629 -9.24172 -9.01655 13
3 1 2.19183 11.6342 12.0065 18
4 1 4.37285 -12.253 8.70622 12
5 1 -9.57127 5.89014 -3.55986 22
6 1 6.5144 -8.4823 -11.3701 20
7 1 -13.9708 5.10129 -6.01911 13
8 1 0.736786 -1.72495 9.42889 22
9 1 -8.65067 -0.32135 -9.85778 23
10 1 -12.5512 -10.4645 8.77852 11
11 1 11.9767 7.86142 -3.92563 21
12 1 -3.54249 0.758951 -4.29005 22
13 1 1.42265 -11.7265 0.0282461 21
14 1 -13.1455 -12.2397 3.65133 15
15 1 -1.82793 4.18096 17.5264 17
16 1 8.47133 -4.9256 6.56701 18
17 1 1.15163 3.33951 8.83419 21
18 1 8.58108 -1.5622 2.04862 23
19 1 -0.307567 4.81802 -14.0988 22
20 1 2.85512 0.790601 10.4905 21
21 1 -8.18123 -1.41073 -15.4216 14
22 1 -12.0859 -2.55775 13.3316 15
23 1 13.1646 4.27942 7.41868 21
24 1 3.85704 7.84105 -16.1834 15
25 1 6.88024 6.31394 -10.5933 22
26 1 11.3186 2.10461 7.16078 19
27 1 -7.22295 0.516578 1.99275 19
28 1 -13.3026 6.19999 -9.46282 10
29 1 -2.99412 -2.48527 -8.42864 21
30 1 -10.5855 5.74637 8.09806 21
31 1 6.50249 -12.5824 3.97321 16
32 1 3.92422 -1.78694 8.69959 18
33 1 3.26597 -15.3683 -8.3153 14
34 1 6.68375 -10.4903 -2.60777 22
35 1 -7.54415 -13.5556 -5.79107 12
36 1 -10.7777 -4.89935 14.6867 13
37 1 4.75427 -3.11647 -5.92987 18
38 1 -1.81976 -7.239 -14.4481 18
39 1 6.01612 -10.0563 -15.3359 12
40 1 0.529987 3.01433 -16.55 18
41 1 -2.25081 7.20029 9.88962 22
42 1 1.13199 -11.8246 9.62817 16
43 1 4.39376 -4.4783 13.3273 17
44 1 -10.9209 0.526352 3.56735 22
45 1 -15.4285 -2.24612 7.50696 11
46 1 -8.45031 0.662064 -0.912698 22
47 1 -3.34251 11.7419 -3.30808 22
48 1 -5.83455 -14.5964 -9.07695 9
49 1 0.885661 0.240317 -11.0855 23
50 1 4.24487 -4.73433 -11.0176 19
51 1 -1.00843 -6.25288 13.4862 14
52 1 -9.05173 5.76703 -0.42041 21
53 1 -1.01519 13.0876 -11.8941 12
54 1 2.34315 16.1015 8.57399 12
55 1 -6.16032 4.92075 -10.2794 21
56 1 0.409973 11.5689 0.165163 26
57 1 1.38751 -15.1838 -0.561282 20
58 1 10.3952 -5.56995 -8.58315 21
59 1 4.25107 -7.63984 -16.6175 13
60 1 -8.83503 10.0525 10.9257 16
61 1 -14.8564 -3.98644 -9.47019 10
62 1 9.48725 4.36795 7.97606 22
63 1 -7.02653 8.05213 -2.62232 19
64 1 -9.30197 -10.2114 7.67796 24
65 1 -3.24447 12.9155 10.1401 12
66 1 -11.7964 3.19018 -5.02894 22
67 1 -8.89566 8.10119 13.4924 12
68 1 0.263034 4.64015 -5.30921 20
69 1 2.13161 5.9118 0.518878 20
70 1 -8.30768 -10.7204 5.05637 21
71 1 2.19586 0.0135611 7.21897 25
72 1 7.25718 -15.693 -4.51104 11
73 1 4.6339 13.0553 13.4428 13
74 1 -10.9589 1.90763 -10.5823 22
75 1 -5.15365 7.1379 -12.3394 19
76 1 3.88922 5.88965 12.5144 22
77 1 13.4562 -8.13888 -7.1396 12
78 1 6.71015 -9.84746 3.38126 19
79 1 -15.2244 -0.29595 1.35991 16
80 1 -6.82909 -2.71267 1.76526 20
81 1 7.14927 17.2757 6.45802 10
82 1 5.08818 0.335219 12.2694 21
83 1 -5.19917 -13.5151 5.50479 24
84 1 -10.8002 -2.46811 -0.274665 21
85 1 17.4973 3.4333 9.22179 10
86 1 9.36512 -2.22926 -3.99144 23
87 1 -0.855542 14.499 4.80425 22
88 1 4.90847 -4.25686 6.74506 22
89 1 -4.78252 -6.18863 4.48187 22
90 1 -3.00217 -6.50545 -8.86205 21
91 1 -5.83445 7.11592 11.4852 23
92 1 -9.02802 14.0508 -4.35777 14
93 1 -3.69026 6.40469 -9.07974 23
94 1 6.29152 -1.19361 -3.30897 20
95 1 5.49484 0.700071 -8.21726 19
96 1 7.11579 12.0278 -9.44943 21
97 1 7.65399 -5.70027 3.87511 24
98 1 6.58189 -9.83264 9.87121 12
99 1 -3.59546 11.2394 -6.35551 20
100 1 -10.566 13.2544 1.92527 9
101 1 -9.00052 -2.95684 12.1921 21
102 1 -2.80237 9.92341 8.41543 22
103 1 -3.88657 -8.84161 9.19501 19
104 1 8.6553 -6.81176 -6.16207 19
105 1 -7.77982 8.26632 4.45161 21
106 1 -12.3062 -14.8642 2.30826 9
107 1 10.8798 -8.77121 -8.25785 17
108 1 3.98679 -0.795433 -10.7921 21
109 1 -5.18322 -2.42124 -15.0655 18
110 1 5.30524 -0.366273 6.45728 22
111 1 -2.08652 9.61422 1.50824 21
112 1 -5.97999 6.02704 -14.7629 13
113 1 1.77117 11.6076 14.9296 13
114 1 0.416115 11.2724 -2.94412 20
115 1 -12.7372 8.74037 1.26745 12
116 1 3.00903 11.3545 -1.25048 23
117 1 -1.2673 -1.0299 -3.44648 21
118 1 -1.45156 -6.86122 10.3514 20
119 1 12.8076 -0.489912 8.6702 16
120 1 -0.418312 -4.84989 -7.85819 21
121 1 5.50871 -7.30536 -6.2867 22
122 1 -3.24598 -1.0369 6.0344 20
123 1 3.32337 -1.56352 14.9693 16
124 1 -10.9726 -10.8143 -0.968661 20
125 1 6.27021 -3.92647 1.81329 21
126 1 -9.40602 -8.7943 -2.96226 22
127 1 8.99318 -11.2414 -1.22963 16
128 1 -5.01836 6.85223 4.43727 19
129 1 6.46209 9.50651 -15.041 13
130 1 4.8757 17.6775 -2.62405 13
131 1 -8.81741 -10.2115 11.1199 15
132 1 -8.85664 -7.31421 5.89504 21
133 1 -1.28489 3.77917 2.29073 22
134 1 -0.440354 -9.99613 -15.4578 13
135 1 3.43775 3.72374 -4.87763 22
136 1 11.3411 -11.1572 -6.24509 12
137 1 -3.66737 -16.2728 7.78711 13
138 1 -10.8743 -7.3949 -0.575728 19
139 1 14.6272 5.08177 9.51661 16
140 1 9.10077 0.869244 -13.3058 14
141 1 -14.9107 -9.83798 2.36734 13
142 1 9.7595 8.61485 6.06536 18
143 1 14.7846 7.34148 0.913515 11
144 1 -4.63512 4.71352 16.5831 17
145 1 5.81332 6.29662 0.526787 22
146 1 -0.873354 11.4765 9.61166 21
147 1 -5.21484 13.3727 -5.35337 20
148 1 -1.17108 -7.87161 -11.1598 22
149 1 6.88389 -11.5096 -12.4096 16
150 1 1.54068 7.29473 -12.4212 18
151 1 7.87777 -4.75398 13.1106 14
152 1 0.868999 -2.48355 -18.1875 12
153 1 -2.75067 6.53866 -5.81581 20
154 1 11.6837 1.57247 -3.14451 20
155 1 -7.82604 8.69116 -5.03775 18
156 1 4.62292 -2.44695 -0.728061 21
157 1 -9.27651 13.6971 -1.29123 15
158 1 6.24007 -1.67292 -12.6527 19
159 1 5.83883 -7.27777 5.78875 24
160 1 -5.19093 4.33516 -7.04626 21
161 1 -3.46115 12.7017 6.408 20
162 1 11.873 9.0929 -9.34285 12
163 1 -0.0967128 0.631562 -0.810843 18
164 1 10.4217 14.4922 -8.28001 10
165 1 -4.56658 15.0867 0.359842 20
166 1 10.0563 10.146 0.990085 21
167 1 -6.64766 10.7827 -7.71968 21
168 1 -5.04424 14.8393 -8.29342 12
169 1 2.63393 9.97959 -14.4464 14
170 1 -13.7299 -12.4075 0.394416 13
171 1 -12.9284 8.07259 4.39365 12
172 1 -8.64613 -3.52502 -10.2822 19
173 1 -2.00731 -10.8899 -12.4447 15
174 1 9.8906 12.5321 9.1697 17
175 1 1.13888 16.3369 5.86135 18
176 1 -9.94042 -1.76139 -7.61502 20
177 1 -13.8689 9.44836 -2.1692 11
178 1 15.9512 -1.48611 -1.79666 13
179 1 -9.32445 0.662669 -12.9907 19
180 1 4.23325 3.82092 17.0811 18
181 1 5.54482 18.4583 3.36532 16
182 1 0.62542 5.88688 7.16552 19
183 1 1.04486 -7.83702 -17.4426 12
184 1 -5.72811 13.9943 8.00048 10
185 1 -3.70138 14.978 -2.9819 18
186 1 1.28137 -3.9835 14.1695 15
187 1 -8.46137 -5.02878 0.199539 22
188 1 -4.85841 -12.455 -11.8894 13
189 1 -10.1765 9.02817 -7.47726 16
190 1 0.662595 -9.29618 5.5447 24
191 1 5.62086 -14.3815 -6.38846 17
192 1 -2.53925 11.552 -9.27419 15
193 1 -12.6961 3.89116 8.58343 19
194 1 4.07229 7.93381 -2.1347 20
195 1 7.80281 10.7544 -7.13103 20
196 1 -7.25289 5.30661 15.174 15
197 1 0.30527 -9.15653 11.3003 16
198 1 -6.87736 3.38196 0.624424 22
199 1 2.17135 17.6517 3.51747 18
200 1 4.29724 2.66226 7.47826 19
201 1 9.86776 5.9021 17.4773 10
202 1 -6.49125 16.0386 2.82186 13
203 1 14.5541 -6.35908 -4.34584 13
204 1 -7.96104 12.515 9.9883 11
205 1 -4.57839 0.800207 -7.7835 21
206 1 9.11338 -7.8993 1.82531 19
207 1 -3.43292 -6.12683 7.52338 19
208 1 -16.3882 0.518985 5.38121 11
209 1 -10.9324 -13.9542 -0.7455 14
210 1 2.85993 5.95268 15.649 21
211 1 -13.7708 -1.5187 -1.19687 18
212 1 -0.894735 1.08141 1.82957 22
213 1 -5.07348 -16.4868 -1.28368 14
214 1 -1.15017 -1.84828 3.45535 19
215 1 -6.55947 -3.89921 -3.69805 22
216 1 6.75885 -7.64264 -2.78244 23
217 1 -2.37625 9.71509 5.00049 20
218 1 -7.89339 -0.780693 4.63194 21
219 1 7.83259 13.2441 15.453 8
220 1 -9.25494 1.19688 -4.37955 21
221 1 -7.60759 6.70552 -7.24033 22
222 1 -12.9623 -2.48959 -6.89873 23
223 1 -5.19603 -5.94235 9.88508 21
224 1 -0.765028 -9.26886 2.609 23
225 1 1.33025 -11.8755 3.26338 19
226 1 -11.4943 11.3179 -0.332962 16
227 1 17.5024 1.80628 6.93843 10
228 1 6.88755 6.99547 -2.38276 24
229 1 -8.39425 -6.76981 -13.4328 14
230 1 6.51523 -2.34353 4.19121 21
231 1 -3.97932 -3.45866 2.26422 20
232 1 3.39149 -12.7933 5.66924 20
233 1 -3.89702 9.15023 -14.9781 11
234 1 1.17521 -11.889 -12.2006 15
235 1 7.96293 4.01343 -13.0439 18
236 1 1.79642 6.06794 -17.906 13
237 1 -7.13609 -4.43262 -7.12716 22
238 1 2.31487 8.93076 -8.70364 22
239 1 -10.0031 -7.26359 13.0794 15
240 1 6.59804 17.5222 0.521293 15
241 1 -11.213 2.37583 12.2754 16
242 1 -6.15461 15.9579 -5.24445 11
243 1 6.24094 -0.0130881 9.87259 19
244 1 -6.60556 -4.24103 -12.6202 20
245 1 0.583209 10.4417 -6.30746 18
246 1 3.37422 2.37489 -10.3643 22
247 1 -12.2325 -9.38773 1.55511 20
248 1 2.02227 2.97155 2.20619 20
249 1 -10.3828 6.57871 5.14986 23
250 1 -5.54729 9.96049 5.84598 19
251 1 4.22946 -10.3976 -0.619709 19
252 1 -3.42848 -17.3079 1.20155 15
253 1 9.88013 -9.59238 -3.19008 17
254 1 -1.0141 4.36965 5.32771 18
255 1 -4.29893 -0.89707 2.79918 22
256 1 0.933592 -4.89434 -4.45937 18
257 1 8.64217 7.71801 15.5945 16
258 1 7.80234 7.68268 -7.29536 21
259 1 -1.39593 13.8952 -1.76402 21
260 1 -8.62861 1.88653 4.47649 21
261 1 -12.5157 9.85843 -5.47527 12
262 1 2.02302 3.47003 11.9897 22
263 1 2.43287 -17.9275 2.61568 12
264 1 13.3087 -0.326001 -0.669552 22
265 1 2.66321 8.32488 7.13759 20
266 1 -8.00031 11.4175 3.71989 20
267 1 -11.7679 -0.0374592 -5.26447 23
268 1 3.29664 10.5584 -11.3974 17
269 1 -0.783739 -1.4336 11.9675 21
270 1 4.35624 13.5937 -9.43421 16
271 1 3.02355 -11.9568 -6.19081 23
272 1 -3.80869 -2.32905 -11.6681 19
273 1 -2.18614 -14.4354 5.66757 21
274 1 7.31358 -0.920436 -6.3662 21
275 1 -6.96938 -5.39905 6.88916 23
276 1 3.48897 -16.4106 -5.21999 12
277 1 -11.5069 -4.46866 -9.10075 19
278 1 4.10848 14.5033 -1.13194 23
279 1 -1.13395 -1.61496 -12.3811 21
280 1 1.2245 3.5613 18.1709 16
281 1 14.3059 1.35411 2.30338 18
282 1 -1.89857 -6.1006 3.23517 22
283 1 13.2913 -6.77879 -9.89476 12
284 1 -0.266694 -4.24683 1.11546 24
285 1 -12.642 0.686307 -8.41155 17
286 1 -9.80318 1.62529 -7.52787 23
287 1 -7.30501 -13.4661 10.6417 12
288 1 9.76259 0.351102 9.60403 20
289 1 7.04196 -4.97431 9.14198 20
290 1 1.23355 -8.44132 -13.18 22
291 1 1.65552 -3.93219 7.37894 21
292 1 -0.0384895 7.40101 -10.0062 19
293 1 4.08856 8.67177 0.84656 24
294 1 -7.61205 -5.47207 3.41473 21
295 1 1.4441 14.3657 0.215909 19
296 1 -5.28285 -3.10322 15.2921 16
297 1 -10.5283 -8.41156 -6.16293 21
298 1 -5.71929 -7.42393 -7.70602 24
299 1 2.82573 4.73281 -15.3297 20
300 1 -7.09785 -11.4977 -10.6251 16
301 1 -5.59491 -10.7261 0.809054 23
302 1 -2.80907 -5.62555 0.0696897 21
303 1 7.32533 -6.90714 -15.8064 14
304 1 12.0837 -4.41221 -12.1994 12
305 1 4.8874 -7.28683 2.7185 20
306 1 12.1424 2.49044 4.13585 21
307 1 -4.16261 -5.77689 -3.08749 22
308 1 -10.1348 -5.05289 8.09677 22
309 1 -5.18297 -13.4057 -0.190075 21
310 1 6.90481 6.01233 18.3065 12
311 1 -8.11449 -13.3484 6.82711 18
312 1 3.86372 0.441401 -5.30993 19
313 1 -3.7467 -13.8206 2.76699 23
314 1 -1.67475 16.9366 -0.878035 15
315 1 10.05 -2.42868 -14.3603 12
316 1 -7.1825 -4.654 -15.7943 14
317 1 3.95677 -6.99941 -0.505108 19
318 1 -11.3949 -4.91641 10.8971 19
319 1 2.49559 9.08305 16.8787 15
320 1 1.55652 -14.0166 -3.97416 20
321 1 2.18963 -12.1751 -9.10464 21
322 1 -8.04936 6.92858 -13.0398 14
323 1 6.58178 4.82543 8.05569 21
324 1 -7.1459 2.65568 -8.51453 23
325 1 -2.12395 5.46701 -11.5938 21
326 1 -2.74295 -3.96395 5.23656 20
327 1 7.92874 -13.5541 -10.6275 10
328 1 -6.83489 15.8214 -2.28692 12
329 1 2.58229 11.3742 5.18481 21
330 1 12.7319 -0.656614 4.13389 20
331 1 -9.59489 0.155701 7.08485 23
332 1 -5.89066 -8.69036 6.44635 23
333 1 -5.18566 9.66697 2.8102 22
334 1 1.48968 -3.15431 -11.587 23
335 1 11.9265 11.1851 -6.1396 13
336 1 -0.758103 -13.0522 -1.84038 20
337 1 -3.81809 -0.80584 13.0498 23
338 1 -14.5047 -3.67392 1.13598 15
339 1 1.10307 -16.9578 -3.20251 11
340 1 -7.05569 5.06477 8.94846 21
341 1 -9.63842 3.31969 10.0603 20
342 1 -13.9015 -1.43805 10.0871 14
343 1 -14.8803 -5.84301 6.59744 13
344 1 14.3167 -4.01813 -1.82947 18
345 1 -10.2058 -8.13259 9.78093 21
346 1 11.3186 -3.49895 -6.20096 21
347 1 11.5041 -7.06308 -5.3594 21
348 1 5.83094 17.3634 -5.62704 12
349 1 -0.555514 -6.36972 6.12087 22
350 1 -9.45478 11.4638 -5.26645 14
351 1 0.332249 0.881929 4.80642 23
352 1 9.37956 6.6678 11.124 14
353 1 -8.56771 -3.09755 6.40247 20
354 1 5.72866 -11.1992 -6.28734 24
355 1 -3.20007 12.2059 -0.131913 21
356 1 -11.0523 3.6482 3.42984 20
357 1 2.29442 3.08856 5.50746 22
358 1 3.04393 -9.82995 7.80015 22
359 1 9.49161 -7.56241 5.2377 19
360 1 -2.10242 4.17461 8.54639 22
361 1 -6.98341 -7.23306 -1.97778 21
362 1 4.92866 -0.922009 2.30092 21
363 1 -0.709912 1.23439 16.8375 16
364 1 -1.30693 14.0901 1.51846 21
365 1 7.26753 12.3764 10.2624 16
366 1 -7.49136 13.4085 -7.27186 14
367 1 -2.4868 -8.18492 -17.0691 13
368 1 -6.55577 -0.628221 -3.32106 25
369 1 2.61082 -10.5013 -15.9422 11
370 1 -7.49222 2.53239 7.72772 20
371 1 -13.7943 4.90735 3.68494 15
372 1 -4.50204 -4.82892 -6.15269 20
373 1 -1.8194 9.2255 -4.51989 22
374 1 10.5147 -1.65091 7.19456 17
375 1 -14.0267 -9.36571 -0.855028 16
376 1 8.19568 -8.21315 7.69643 16
377 1 -4.12585 1.81386 1.45902 21
378 1 -8.29599 -5.9576 10.7997 20
379 1 -10.384 9.59882 5.65008 16
380 1 0.377769 -4.38432 10.7103 20
381 1 4.92218 -10.5254 -9.39066 24
382 1 -5.78327 -1.69656 -9.31979 21
383 1 7.20909 -3.45474 -14.6511 17
384 1 4.19867 15.1077 4.48601 22
385 1 -10.699 3.18571 -1.7644 22
386 1 0.290063 -5.74854 -13.3723 19
387 1 8.9106 10.823 -12.4194 13
388 1 -1.0494 -15.5248 -5.30396 16
389 1 -13.5714 -9.99848 -6.52445 11
390 1 -4.28999 -8.57925 -1.35119 22
391 1 9.59887 4.67983 14.0379 20
392 1 -3.89111 -1.92169 -2.81462 22
393 1 13.1602 3.4595 -0.535092 21
394 1 -8.46027 2.96119 -11.3845 22
395 1 3.50605 18.5147 0.318961 13
396 1 -14.814 -1.05878 -4.4951 15
397 1 5.32877 2.24132 1.71269 20
398 1 -6.99233 11.0745 0.303565 21
399 1 -11.4998 11.8466 -3.22477 14
400 1 -5.05276 4.33297 13.0996 24
401 1 7.08457 2.47048 13.2842 20
402 1 13.6441 -1.72926 -6.79458 16
403 1 6.58328 -1.93422 14.0808 17
404 1 12.7918 1.8844 -6.02922 16
405 1 -3.62231 -14.4946 -3.26566 19
406 1 5.71543 2.86652 4.8937 20
407 1 -3.01194 4.37048 -0.622211 22
408 1 1.3042 -7.90378 -5.07381 22
409 1 0.275569 8.42052 5.04953 21
410 1 5.13895 1.55505 -2.65982 21
411 1 -8.88072 4.15105 -6.0338 20
412 1 2.02419 -8.27947 -1.90223 23
413 1 13.3674 0.535942 12.1231 12
414 1 -9.12875 -2.57116 -4.3017 22
415 1 -6.68797 -8.76323 3.4594 21
416 1 -7.60857 -5.41091 14.0197 16
417 1 -1.62271 9.27501 -1.6307 20
418 1 -12.2574 -6.86456 -3.71389 18
419 1 7.08598 5.25941 12.6897 17
420 1 -5.88851 5.48043 -1.32256 22
421 1 2.5107 13.6828 -6.49504 23
422 1 5.21548 12.5055 6.70253 21
423 1 -15.4267 -9.60138 -3.53133 10
424 1 -4.4868 -8.08956 -4.69107 21
425 1 -12.6841 0.855187 5.57386 20
426 1 -10.4666 8.76017 -3.20236 23
427 1 3.62149 -9.60754 4.69061 23
428 1 -2.71477 -12.2608 -8.12917 20
429 1 11.9468 9.44111 8.47342 16
430 1 6.19397 10.8117 -12.189 16
431 1 -11.1049 5.37476 -11.9514 14
432 1 -0.0860543 10.3913 -10.8625 21
433 1 -6.68765 5.52167 -4.70347 22
434 1 -4.55499 -10.7513 3.92351 20
435 1 15.3112 6.72921 4.20368 12
436 1 0.909851 7.66406 -15.5907 16
437 1 -5.46737 -0.834981 10.4153 20
438 1 -12.1536 0.93428 0.452345 22
439 1 1.83771 0.719805 -2.87269 20
440 1 -7.27192 4.55838 5.6761 19
441 1 1.17452 -15.0233 4.79248 21
442 1 2.65493 -5.91637 -7.30403 20
443 1 4.26955 -7.3323 -9.32953 21
444 1 3.24446 -2.05345 4.6301 19
445 1 -14.849 3.24603 6.05471 14
446 1 -15.1012 1.12204 8.67111 15
447 1 -9.51431 9.3026 2.21302 19
448 1 0.371106 -6.77732 0.653146 23
449 1 -6.22177 1.07584 -14.243 17
450 1 8.7865 -14.028 -7.24705 12
451 1 0.600164 -14.7825 -10.1526 14
452 1 -4.76578 -3.12289 8.15238 22
453 1 3.94582 -6.05408 -4.04474 21
454 1 -4.57302 3.67358 -12.8556 24
455 1 9.40904 -12.3773 2.0251 13
456 1 2.68165 9.30806 -4.63096 21
457 1 -8.85088 7.2694 10.4682 20
458 1 -6.16751 -0.136191 16.2023 17
459 1 -12.8345 -3.74852 -12.314 10
460 1 -2.87395 -8.5852 5.39177 23
461 1 10.9775 -5.1965 11.9472 13
462 1 7.11712 0.410619 4.01409 21
463 1 -2.88959 1.67574 4.30763 18
464 1 2.34742 -0.0552767 -8.16256 23
465 1 9.09323 -10.7447 5.29455 12
466 1 -1.31911 6.21826 -2.92465 21
467 1 11.2357 11.0962 -2.91957 18
468 1 -0.290105 1.45738 10.8203 22
469 1 1.61448 14.1519 -3.20835 22
470 1 4.22923 -4.9831 4.1028 21
471 1 -4.54781 -11.4713 -5.08868 22
472 1 -2.93941 7.4623 16.4772 13
473 1 -3.82464 15.3799 4.80971 16
474 1 -10.158 -11.2807 -6.66358 12
475 1 8.98787 15.3067 0.482927 16
476 1 3.42499 5.74581 8.62259 21
477 1 -6.63624 -0.405792 7.66118 22
478 1 -1.81659 -9.33 -3.99012 23
479 1 -10.7194 3.1176 6.61523 21
480 1 -9.21725 -6.56734 -8.47556 21
481 1 -5.18575 7.66797 8.23786 22
482 1 -5.88353 -11.5313 -7.62973 18
483 1 -2.96605 -4.48696 -13.8327 20
484 1 -1.80338 -11.7148 4.43159 23
485 1 -5.8388 -3.0756 5.10206 21
486 1 14.4088 1.01249 6.7185 17
487 1 -4.55175 -5.63204 13.1313 17
488 1 -9.91998 7.75571 -10.5385 14
489 1 8.36205 4.29399 -3.38969 19
490 1 -6.1957 -13.3452 -2.86872 21
491 1 -0.0489638 2.20067 -9.02327 21
492 1 0.418678 17.1325 1.45331 17
493 1 0.531675 7.41633 -6.52042 20
494 1 -2.87317 7.04251 13.0656 21
495 1 -13.9264 -4.73333 -4.66024 20
496 1 -0.950547 16.0414 -4.06989 16
497 1 4.15836 11.2143 -7.03852 22
498 1 -7.36623 -9.14841 -5.69385 20
499 1 2.35138 1.08103 16.7232 17
500 1 0.19704 -13.4241 -7.40392 23
501 1 -1.40531 -4.46469 -10.7908 21
502 1 6.96867 -14.9228 1.64839 14
503 1 -8.41196 11.1579 -2.284 22
504 1 0.304076 6.06721 13.481 20
505 1 7.6876 8.61623 0.527371 24
506 1 5.55663 11.4045 -0.213381 23
507 1 -6.78513 7.86356 -9.95601 20
508 1 2.46974 3.75638 -7.85106 20
509 1 2.68473 -6.77395 6.48255 23
510 1 -14.9269 -6.64762 -2.45046 14
511 1 7.1519 3.25728 -0.528717 21
512 1 3.78082 18.3969 6.21059 12
513 1 -3.24021 5.72124 -14.5146 18
514 1 11.6517 6.68508 -0.0661537 20
515 1 0.505303 15.705 -7.42168 16
516 1 6.9223 -8.62412 0.217666 20
517 1 14.5847 3.85709 -3.58696 18
518 1 2.26833 0.0497933 -17.0395 16
519 1 -2.41648 -11.5203 1.01316 22
520 1 -1.47109 -13.6491 8.22747 19
521 1 3.35767 -9.55209 10.7678 17
522 1 -9.49984 5.34562 -8.86411 25
523 1 -9.69336 -13.2984 4.18608 18
524 1 5.02962 4.88089 -2.72771 18
525 1 -2.3579 -15.8103 -8.32404 14
526 1 8.77982 14.3292 6.52309 17
527 1 4.17082 1.92989 -18.0632 10
528 1 0.260877 -1.30549 15.1623 16
529 1 -12.0945 5.34519 11.9942 11
530 1 -0.275691 -17.5305 0.585512 13
531 1 -12.5199 -1.86587 2.5749 21
532 1 14.1482 -4.88025 -7.28074 16
533 1 12.0554 -4.91399 -3.22241 22
534 1 0.852573 1.89622 -5.88042 18
535 1 -4.02596 4.3488 -3.7849 21
536 1 3.01847 -9.03604 -7.18474 22
537 1 6.76859 2.67456 -10.4176 19
538 1 10.033 -1.76183 -8.95676 22
539 1 -7.27006 2.75193 17.5468 10
540 1 5.56934 13.8253 1.85149 19
541 1 -3.7273 -5.06409 -16.7897 15
542 1 2.47115 -8.95367 1.49832 20
543 1 7.15823 -0.417532 -15.399 13
544 1 -7.07952 -8.10734 8.92927 20
545 1 -5.37664 12.8463 1.91101 19
546 1 -9.74314 -3.84075 -13.6352 16
547 1 -14.7266 2.91564 -0.0248625 13
548 1 -3.72208 -9.62647 -10.1029 22
549 1 -2.88481 -11.3833 7.07289 19
550 1 3.79751 6.65314 -9.89161 20
551 1 12.5459 3.38546 13.7881 16
552 1 14.2179 10.0658 -3.47369 10
553 1 -8.33015 -12.1273 -0.704224 19
554 1 0.793482 -10.9291 -3.35302 23
555 1 -1.95282 -2.2091 -15.983 19
556 1 -6.55488 9.88228 9.48924 20
557 1 2.75821 -3.31529 -8.58739 22
558 1 0.0514041 3.68097 -0.207899 20
559 1 13.5679 -3.7621 3.59539 14
560 1 1.51311 15.0071 -10.2239 13
561 1 6.7582 -11.877 0.732143 20
562 1 8.13538 -2.58072 -0.848784 22
563 1 11.1237 6.82739 -7.84205 17
564 1 1.77045 8.72644 13.5931 17
565 1 -8.03594 8.09481 7.53142 19
566 1 -5.47215 -3.80553 -0.575234 22
567 1 14.2317 8.4444 10.178 9
568 1 5.49445 0.884939 15.6352 16
569 1 -1.16781 0.3438 -17.5246 14
570 1 -7.81279 -6.44586 -5.11224 22
571 1 -2.91883 -3.95531 11.451 20
572 1 6.14506 7.49147 7.7214 19
573 1 5.6968 8.80366 -5.03111 20
574 1 -2.87229 10.4697 -12.6894 16
575 1 -0.745953 13.0905 -5.34357 20
576 1 9.93697 -2.59864 14.2467 13
577 1 5.9824 6.06756 -15.1724 17
578 1 7.17324 -5.95257 -9.2447 20
579 1 11.0774 10.2957 10.9848 16
580 1 -12.6661 -4.86138 -1.2675 21
581 1 -4.50691 9.44276 -9.69166 18
582 1 -1.06242 1.38072 7.1732 20
583 1 -13.9595 3.0948 11.0341 12
584 1 -1.47023 9.32524 -8.26473 24
585 1 4.42305 -15.7367 -2.63545 17
586 1 9.8542 1.84549 -10.7187 16
587 1 -2.73815 15.0881 -6.03084 16
588 1 -6.73569 -7.5838 -10.4149 21
589 1 1.92053 -14.6552 8.28734 13
590 1 -12.0175 -2.85885 -3.64774 23
591 1 -0.429848 11.0255 -14.546 12
592 1 -5.21642 2.35093 -1.91949 25
593 1 -3.53238 10.2515 14.5195 12
594 1 -13.4504 -7.18176 4.05638 20
595 1 5.99438 10.1846 -2.39733 19
596 1 3.98899 -10.3617 -12.8384 20
597 1 5.63177 -6.84567 11.5561 17
598 1 8.27635 0.648187 -3.6168 22
599 1 1.41142 -1.42545 1.99573 22
600 1 -8.1218 5.44972 2.79986 19
601 1 3.5373 6.16063 18.4395 14
602 1 3.98593 15.9026 -7.71746 16
603 1 10.3345 -7.47408 -1.47255 19
604 1 3.13233 8.85359 10.3466 19
605 1 1.96066 3.3595 -19.017 9
606 1 -5.11321 -10.9891 11.9357 12
607 1 -2.45748 0.297639 -10.0544 24
608 1 5.16169 -4.71571 -16.6545 16
609 1 2.19624 13.9231 6.48018 23
610 1 9.6989 5.98885 -10.2434 16
611 1 -1.47191 2.52941 -12.0407 21
612 1 -3.15295 -11.5011 -2.08068 22
613 1 -11.789 -1.72773 -10.3639 19
614 1 13.2739 4.68025 2.25845 20
615 1 14.7131 0.23503 -3.96891 15
616 1 6.18453 -5.51683 -13.1383 19
617 1 13.7327 5.89096 12.378 13
618 1 4.08133 -9.35047 -4.2505 24
619 1 3.98246 -2.12445 -15.046 16
620 1 6.95873 13.3306 4.54069 19
621 1 -4.91107 4.32314 3.30861 18
622 1 5.16287 10.3603 11.7728 19
623 1 9.85158 8.30471 -1.87232 19
624 1 15.957 -0.27556 4.53429 11
625 1 6.55689 5.43113 -5.77203 21
626 1 6.1599 5.34057 15.2522 23
627 1 11.1037 3.90279 10.3691 17
628 1 3.6797 -4.47898 9.45848 22
629 1 9.72728 12.748 -5.84263 17
630 1 10.1944 0.387409 4.28098 20
631 1 0.84278 3.49829 15.1184 24
632 1 12.6637 -1.72989 -3.62925 22
633 1 11.7333 5.90955 15.1242 15
634 1 -7.46667 -0.188646 -6.87652 21
635 1 14.9732 3.16092 4.91592 18
636 1 9.26729 -4.52914 1.3842 22
637 1 -1.02555 -9.49843 -1.12276 21
638 1 -11.6658 8.81439 11.3096 12
639 1 9.57175 8.69209 13.0992 18
640 1 10.3704 1.85091 12.579 20
641 1 2.52025 11.478 8.77315 21
642 1 0.731363 13.8246 9.7917 13
643 1 3.29644 8.41307 3.62418 22
644 1 -6.34723 -16.9147 1.56736 13
645 1 -4.01144 7.26386 -2.53102 21
646 1 10.8485 11.4558 -8.78603 15
647 1 12.4133 0.273271 -8.91005 16
648 1 1.48872 17.343 -1.89093 16
649 1 -3.33294 -9.32639 -7.35756 23
650 1 8.27709 -8.91179 -13.5867 15
651 1 -14.6081 -1.37113 4.48271 17
652 1 -8.38077 10.5942 -9.89245 12
653 1 -6.92386 -15.4028 4.54014 15
654 1 -5.62373 1.33819 -10.972 22
655 1 -14.5575 1.45825 -6.05185 15
656 1 11.175 -10.0131 3.15532 9
657 1 11.9014 11.2797 3.21906 15
658 1 5.03112 -7.5349 8.78065 22
659 1 -16.3046 -3.45845 -6.50274 11
660 1 3.97305 5.23121 2.58012 24
661 1 5.96034 1.39586 -13.2041 21
662 1 3.38331 0.689541 3.69122 22
663 1 -1.42905 1.53954 13.7682 21
664 1 9.12755 13.4882 -11.5487 9
665 1 11.9451 -0.0314463 14.7125 11
666 1 5.54331 4.29566 -8.53971 18
667 1 6.51073 -0.160922 -0.284505 22
668 1 7.98729 12.374 1.57039 21
669 1 2.04599 -9.25191 -10.3175 21
670 1 -11.7155 -1.58267 16.0891 10
671 1 12.0413 -5.31253 6.17602 13
672 1 -1.12578 11.5023 12.8753 17
673 1 2.40738 12.9367 -12.1805 12
674 1 -11.2745 6.22594 -6.41742 21
675 1 8.25877 10.1832 3.759 22
676 1 -7.99186 -15.3432 -1.28934 13
677 1 12.1748 -5.678 0.773144 19
678 1 7.45365 16.0379 3.6341 17
679 1 -1.186 4.51057 11.6119 21
680 1 -13.317 -6.99337 9.35556 15
681 1 -15.841 -0.757195 -7.8744 9
682 1 8.3989 -0.405981 12.2696 22
683 1 -3.02526 -8.62275 12.4829 13
684 1 6.15581 8.36374 13.9577 19
685 1 -2.92809 12.4701 3.08203 23
686 1 10.4268 4.26605 1.88451 21
687 1 7.49769 -5.89427 -0.834132 18
688 1 9.22877 3.21362 4.87384 19
689 1 4.6178 4.56161 -12.4433 20
690 1 -11.3689 -2.23293 5.77086 21
691 1 12.9985 5.46558 -5.84502 21
692 1 -1.60645 -6.47716 -5.79258 21
693 1 9.78851 -6.84161 -11.0704 18
694 1 8.33331 6.45165 5.24876 18
695 1 4.7776 5.79855 5.54601 23
696 1 -6.6161 2.49432 11.1723 20
697 1 7.64608 10.8866 6.89177 22
698 1 -3.10116 -1.15218 16.1719 16
699 1 -2.30425 4.34893 14.7492 20
700 1 -4.29042 -6.61769 -11.5976 19
701 1 -3.24598 1.76925 11.4352 22
702 1 -1.15832 2.70113 -3.19195 23
703 1 7.28463 1.94304 7.40226 21
704 1 -9.43773 -12.7299 8.94815 14
705 1 8.70777 10.6798 -1.3486 22
706 1 8.46667 -12.6182 -4.48167 18
707 1 -2.4743 3.17275 -6.74688 22
708 1 5.39522 10.8709 3.2793 21
709 1 10.0489 13.9243 3.27967 16
710 1 4.23661 -1.88381 -18.5031 10
711 1 -1.50039 -3.87613 8.57323 22
712 1 4.5042 14.808 -4.12221 23
713 1 12.6846 7.97469 2.58514 20
714 1 -1.07126 -3.93057 -2.06969 21
715 1 -7.89027 -8.92964 -0.0730107 24
716 1 -0.580091 -5.16181 -16.5778 16
717 1 -5.4882 10.0965 -3.98232 19
718 1 9.8377 -5.8609 -14.4932 13
719 1 7.21818 4.63636 2.63822 23
720 1 14.8006 6.6528 -7.89127 8
721 1 10.221 14.3272 -2.9859 12
722 1 -4.30404 4.24951 6.35478 22
723 1 -3.88798 6.86655 1.13179 18
724 1 9.50058 6.5139 -5.19543 21
725 1 10.6495 2.67384 16.5205 12
726 1 8.74874 0.104755 15.6071 15
727 1 -2.16823 -11.2052 10.1876 16
728 1 -6.63879 9.94236 -12.6782 14
729 1 4.50102 13.4132 9.81564 18
730 1 3.76255 -7.09232 -12.3508 19
731 1 2.61249 -2.08345 12.0545 23
732 1 7.2053 15.301 -8.52106 13
733 1 5.71385 10.4426 9.09571 20
734 1 -5.49431 -0.469752 -0.610836 22
735 1 13.7348 -7.05326 -1.24529 11
736 1 7.52453 10.7529 13.7691 17
737 1 -13.0425 -4.32392 7.54362 17
738 1 6.1086 -17.3791 2.19629 11
739 1 0.0754194 -1.96725 -9.04169 22
740 1 -5.78493 12.7552 -1.90354 22
741 1 1.25899 5.74442 3.92864 23
742 1 6.80953 -3.96389 -3.51798 20
743 1 2.81298 11.4958 1.81913 19
744 1 -13.8401 -4.35177 4.3326 19
745 1 -3.98446 1.71763 17.5882 14
746 1 -2.42762 2.4964 -15.3017 20
747 1 -5.50903 3.23391 -16.4038 11
748 1 4.32145 -13.7888 -0.264251 20
749 1 8.88033 9.84575 -4.35656 21
750 1 1.45858 -6.83458 3.62029 23
751 1 -2.22496 6.67827 3.2707 20
752 1 -11.9392 1.00155 9.04824 20
753 1 2.9162 0.335225 -13.6435 17
754 1 0.311796 -12.0624 6.43744 22
755 1 1.35587 14.1332 2.94252 21
756 1 -4.59204 1.78318 14.6233 21
757 1 -2.06641 -1.84565 0.251643 25
758 1 -6.08498 -9.21114 -12.9182 16
759 1 -9.36637 -9.46065 -11.8086 12
760 1 -4.4685 -14.5062 -6.15995 16
761 1 1.17336 11.8441 -8.38372 22
762 1 5.54244 -2.80015 -8.96899 20
763 1 3.04753 0.475296 -0.097541 20
764 1 -9.30529 14.554 4.06383 10
765 1 7.46398 -8.97625 -8.38335 21
766 1 7.15022 -16.9712 -1.2099 11
767 1 2.28715 -6.68256 12.1284 16
768 1 15.7099 7.12768 -4.51793 13
769 1 -1.5109 -12.4954 -5.10784 21
770 1 -10.7116 -2.13472 8.86895 19
771 1 -1.14568 0.207211 -6.88764 22
772 1 -9.40198 -10.39 2.26169 18
773 1 -6.54192 -10.2939 -2.45765 21
774 1 3.24206 -2.47267 -3.58768 19
775 1 -13.3814 0.150494 13.0246 11
776 1 -9.24955 -15.3145 1.61162 12
777 1 12.7659 8.62129 -6.27378 16
778 1 -2.91824 16.7315 2.33165 15
779 1 -4.08285 1.43042 8.31039 21
780 1 -14.0763 6.1568 6.61988 13
781 1 11.4705 -2.31155 1.58297 19
782 1 -13.0088 0.00589552 -12.3097 13
783 1 1.62437 8.19156 -1.40948 20
784 1 6.74968 2.40055 -5.51098 21
785 1 9.93294 13.3864 11.9713 11
786 1 -0.00387319 -1.8164 6.35905 22
787 1 11.6348 4.84175 -2.81516 22
788 1 -12.6836 3.46596 -8.22814 18
789 1 -12.9837 -6.68856 -7.4374 17
790 1 -0.288813 8.99202 15.1913 18
791 1 4.99572 7.82506 -12.5382 21
792 1 10.682 11.5706 6.19919 17
793 1 -2.54298 -0.94224 9.50934 20
794 1 2.77305 -14.6132 2.14421 20
795 1 -6.86981 -15.4462 8.36873 11
796 1 -0.708266 -9.2052 8.24634 20
797 1 12.8831 8.76589 13.0199 12
798 1 1.28009 -6.15028 -10.3307 24
799 1 -7.19363 7.98134 0.623315 21
800 1 6.32576 7.64928 3.23554 24
801 1 -13.1716 -6.56358 12.9634 8
802 1 12.23 11.8891 -11.92 7
803 1 0.944145 -16.9446 -7.31461 12
804 1 -0.539034 -13.3022 1.86206 21
805 1 -2.44907 -14.9122 -0.015 25
806 1 3.92583 6.92469 -7.13415 20
807 1 4.02103 16.3056 1.77591 20
808 1 -3.90286 0.135241 -13.2984 23
809 1 1.60578 0.62314 13.5955 23
810 1 -1.20574 5.4048 -17.1183 11
811 1 -11.4465 -1.12419 -14.1768 13
812 1 -10.6756 -0.373324 -2.41933 20
813 1 2.45283 16.7468 -5.02176 16
814 1 9.84221 -0.305149 -0.957454 20
815 1 -5.10099 -7.16806 -14.7957 17
816 1 -5.74595 -6.68059 1.12727 20
817 1 10.0029 3.09338 -5.42981 22
818 1 14.8375 -5.31961 1.78742 8
819 1 -8.40092 4.73842 12.2087 19
820 1 4.45493 -12.4902 -3.62134 20
821 1 11.9607 -9.64008 -0.32118 10
822 1 11.4635 -2.12575 11.6674 15
823 1 0.0224323 11.0878 6.46831 24
824 1 -10.0001 -0.00339504 13.8234 19
825 1 -4.21819 4.45249 9.80878 21
826 1 -4.29121 -13.5343 9.40657 15
827 1 8.69528 1.80354 1.71467 22
828 1 5.26956 8.33507 17.1503 15
829 1 -14.6277 -6.66583 0.809966 17
830 1 9.1319 -5.58329 -3.52456 18
831 1 1.61797 4.12901 -2.47555 20
832 1 -12.4459 6.86512 -1.30585 16
833 1 0.725315 8.48504 1.62089 22
834 1 -0.396707 -16.3403 6.52593 12
835 1 3.79227 2.87206 14.1882 20
836 1 -0.113687 11.4057 3.24394 21
837 1 4.01103 -11.6825 2.37811 20
838 1 -8.09395 -2.26852 -1.14516 20
839 1 7.28398 -1.84526 7.30376 22
840 1 -15.3812 -7.14014 -5.70632 14
841 1 5.01214 10.9991 15.5223 15
842 1 7.08678 14.274 -1.4852 23
843 1 -14.3699 -10.162 5.79974 12
844 1 -4.20339 -16.7213 4.23449 14
845 1 10.2897 -6.45528 8.82206 16
846 1 10.9492 -5.97569 3.3507 16
847 1 9.25009 9.42232 9.25839 19
848 1 -1.01942 6.78877 -0.0192991 23
849 1 -0.0933199 -8.18899 -8.22877 24
850 1 1.36362 4.48258 -10.8817 21
851 1 -7.00063 -0.453857 13.42 20
852 1 -1.39771 17.6869 4.39482 10
853 1 11.935 0.991127 1.2711 20
854 1 2.26549 6.3545 -4.14282 18
855 1 -5.66796 7.8068 14.5471 16
856 1 5.42398 7.15586 10.5347 17
857 1 7.67336 -0.464303 -10.438 21
858 1 -6.98987 -12.9499 2.65476 20
859 1 -5.1055 -2.22358 -5.73258 22
860 1 13.8224 -2.34089 6.43417 14
861 1 -0.441935 0.549279 -14.1128 23
862 1 1.24962 6.37979 10.4578 22
863 1 9.37517 -10.2059 -10.7247 16
864 1 8.15337 7.60244 -13.1146 16
865 1 -0.488313 -6.82884 -2.59969 19
866 1 12.5478 -3.48023 -9.49416 16
867 1 15.0262 -1.6847 1.715 15
868 1 -1.96054 -3.21887 14.2573 17
869 1 -8.26597 -9.57167 -8.59239 18
870 1 1.07842 -2.00242 -1.30652 20