ITEM: TIMESTEP
268000
ITEM: NUMBER OF ATOMS
2000
ITEM: BOX BOUNDS pp pp pp
-3.0000000000000000e+01 3.0000000000000000e+01
-3.0000000000000000e+01 3.0000000000000000e+01
-3.0000000000000000e+01 3.0000000000000000e+01
ITEM: ATOMS id type x y z 
1 1 -8.78555 4.47748 -14.9963 
2 1 -9.93962 -10.0128 -9.66499 
3 1 2.56539 11.2026 10.5119 
4 1 7.20685 -11.9637 6.90831 
5 1 -12.0999 5.14149 -3.94679 
6 1 7.74518 -7.46478 -11.1493 
7 1 -14.6449 3.62393 -5.02642 
8 1 0.902551 -1.64404 9.31102 
9 1 -9.06534 0.547145 -10.5085 
10 1 -14.1596 -8.59404 6.9376 
11 1 13.481 6.96349 -10.5914 
12 1 -3.91686 0.778795 -4.63671 
13 1 -4.11688 -13.9435 2.47158 
14 1 -14.0565 -8.92193 3.6136 
15 1 -1.32199 4.50662 18.1153 
16 1 8.34651 -5.26699 5.75658 
17 1 1.68523 3.23147 8.15905 
18 1 7.92377 -1.4066 2.11065 
19 1 -2.53481 8.24723 -12.5647 
20 1 3.13473 0.721602 10.2094 
21 1 -8.21103 -1.79497 -14.9706 
22 1 -12.4908 -3.24745 12.6848 
23 1 11.9545 4.20514 7.39278 
24 1 3.87384 10.0505 -13.1718 
25 1 5.70997 8.04431 -11.4788 
26 1 14.1425 0.300227 12.7281 
27 1 -7.46905 0.441174 1.57501 
28 1 -13.6918 3.12905 -8.66071 
29 1 -2.4884 -2.62294 -8.90034 
30 1 -9.16477 4.85627 8.57442 
31 1 7.0499 -12.906 3.43516 
32 1 4.00367 -1.40509 7.84167 
33 1 2.69578 -14.6005 -9.41693 
34 1 9.90371 -13.1049 -1.89709 
35 1 -8.09479 -14.7928 -4.20188 
36 1 -9.82653 -4.44395 14.054 
37 1 3.8809 -2.75375 -5.56667 
38 1 -1.57357 -9.5731 -13.1425 
39 1 6.3282 -9.05298 -13.695 
40 1 -0.0182038 4.75255 -16.9691 
41 1 -1.30405 6.84676 9.50559 
42 1 1.7707 -9.59189 8.10113 
43 1 4.74503 -4.23135 12.6139 
44 1 -11.6329 0.151762 2.84762 
45 1 -15.2926 -1.93264 7.76804 
46 1 -8.64022 0.201557 -1.6641 
47 1 -6.10058 12.4582 -0.978526 
48 1 -6.08618 -14.4455 -9.42753 
49 1 1.25268 0.00553717 -11.4757 
50 1 4.31127 -4.46215 -11.4116 
51 1 -0.288891 -6.67567 13.2194 
52 1 -12.3011 3.70649 -0.855515 
53 1 4.43121 13.2417 -12.648 
54 1 0.895475 12.2961 7.96042 
55 1 -6.48016 4.62653 -10.5909 
56 1 0.019241 11.3952 -2.16345 
57 1 -0.398096 -13.7916 2.28017 
58 1 7.87078 -6.59897 -7.8111 
59 1 3.46932 -8.21831 -15.0351 
60 1 -6.33584 9.25027 10.255 
61 1 -14.7837 -4.87837 -9.60336 
62 1 10.4469 1.81103 7.14334 
63 1 -9.65549 7.26035 -2.76743 
64 1 -8.57901 -10.4382 4.7016 
65 1 -3.55313 14.2821 11.4163 
66 1 -12.6556 1.45237 -6.05677 
67 1 -5.55065 7.61789 12.4329 
68 1 0.0208596 4.769 -5.44665 
69 1 2.19627 6.30524 0.27768 
70 1 -8.20523 -12.1456 2.3221 
71 1 4.53114 2.77159 8.09671 
72 1 5.76138 -15.9029 -4.12221 
73 1 5.33603 11.3661 11.9581 
74 1 -14.8738 1.18448 -10.9516 
75 1 -9.92511 8.41979 -9.49442 
76 1 4.39908 6.03037 11.8419 
77 1 13.5426 -7.66614 -7.8876 
78 1 8.08194 -10.0566 2.39531 
79 1 -17.1634 -0.969724 1.1573 
80 1 -6.79608 -2.67789 1.37834 
81 1 6.21805 16.7853 5.75069 
82 1 5.38642 0.12328 12.7462 
83 1 -3.59204 -13.6213 5.62746 
84 1 -9.79529 -1.63289 0.656675 
85 1 14.2729 3.21652 9.70741 
86 1 9.09217 -1.79356 -3.79494 
87 1 -2.43505 12.476 3.74516 
88 1 5.45076 -4.50256 6.73177 
89 1 -4.85299 -5.86165 4.35969 
90 1 -2.57477 -6.42424 -8.82687 
91 1 -7.33498 5.6793 10.4879 
92 1 -9.19703 13.8744 -4.87202 
93 1 -3.56505 6.47 -9.73682 
94 1 5.2343 -1.27555 -2.92929 
95 1 4.93827 0.683999 -8.40336 
96 1 6.67524 10.8139 -10.4366 
97 1 7.63143 -6.70692 3.27706 
98 1 6.72634 -9.25765 9.15145 
99 1 -4.14399 14.9877 -7.79367 
100 1 -9.2394 12.09 4.10583 
101 1 -9.4891 -4.36784 9.21562 
102 1 -3.86549 9.11706 7.85988 
103 1 -4.59701 -8.45637 9.29188 
104 1 10.7852 -7.96373 -5.65018 
105 1 -11.3147 5.54893 5.60528 
106 1 -12.1107 -13.6019 3.65071 
107 1 11.4238 -10.5413 -8.27243 
108 1 4.13075 -1.4467 -11.2012 
109 1 -4.95568 -2.26548 -15.0536 
110 1 5.68651 0.711777 5.58978 
111 1 -2.33891 9.93651 1.55101 
112 1 -7.37991 6.81071 -13.4062 
113 1 1.55821 11.3831 13.6579 
114 1 0.294205 10.8211 -5.25481 
115 1 -12.3184 8.4559 0.911823 
116 1 0.804928 9.41762 0.587479 
117 1 -1.13803 -0.633988 -3.96369 
118 1 -1.62891 -6.67363 9.85711 
119 1 13.0153 -3.02192 9.24217 
120 1 0.0181295 -4.05857 -7.38205 
121 1 5.56411 -4.76566 -6.7093 
122 1 -3.384 -0.719276 5.71962 
123 1 3.92263 -1.86362 14.6135 
124 1 -10.9168 -10.5321 -1.58677 
125 1 6.07565 -4.24042 1.41308 
126 1 -9.33095 -8.11813 -3.68282 
127 1 10.5004 -10.3997 -0.0264345 
128 1 -5.68524 6.63445 5.19142 
129 1 9.30121 6.55686 -15.4716 
130 1 4.19857 17.8461 -2.76316 
131 1 -6.75209 -10.1012 9.32603 
132 1 -9.44924 -9.97903 7.63457 
133 1 -3.63291 4.63154 2.83503 
134 1 0.638361 -9.42034 -15.8221 
135 1 3.47771 3.49916 -4.87531 
136 1 10.4739 -11.4019 -5.4154 
137 1 -2.51702 -16.2145 6.73887 
138 1 -10.2336 -7.49315 -0.487586 
139 1 13.4481 6.22754 10.2317 
140 1 11.6201 0.82869 -12.956 
141 1 -16.81 -4.34826 2.77101 
142 1 10.6517 9.02163 5.70696 
143 1 14.6487 4.6023 0.481374 
144 1 -3.85567 4.79027 16.2297 
145 1 5.31907 7.16379 0.0122561 
146 1 -1.87946 11.7822 8.50911 
147 1 -2.22947 12.193 -4.2903 
148 1 -0.634428 -7.55584 -10.8409 
149 1 5.16696 -9.82598 -11.3216 
150 1 0.467009 8.91546 -13.0364 
151 1 7.92101 -4.94533 12.1074 
152 1 1.68505 -2.08571 -17.0139 
153 1 -3.12609 6.43317 -6.49149 
154 1 10.7231 2.02138 -2.4425 
155 1 -7.82336 8.91015 -4.67131 
156 1 4.16596 -3.50249 -1.23935 
157 1 -8.28978 15.0856 -1.89732 
158 1 6.35033 -0.499621 -13.1999 
159 1 5.88683 -7.79101 5.70593 
160 1 -5.16853 5.0428 -7.5879 
161 1 -3.99207 12.4712 6.17644 
162 1 11.2111 8.24057 -8.82925 
163 1 0.252009 2.02405 -0.89182 
164 1 9.7111 13.8377 -8.28922 
165 1 -3.28406 15.4615 0.747474 
166 1 10.8266 9.92766 0.055693 
167 1 -4.34361 11.4734 -6.44611 
168 1 -1.36788 15.9539 -8.17352 
169 1 4.15938 12.3966 -15.4802 
170 1 -12.916 -8.7778 0.591656 
171 1 -13.6067 7.4418 3.65249 
172 1 -8.41411 -4.35828 -10.0793 
173 1 -2.07505 -12.8085 -13.6094 
174 1 9.66744 12.378 8.57582 
175 1 0.169816 16.6107 6.07214 
176 1 -11.529 -1.8199 -6.75117 
177 1 -12.3281 10.344 -1.55244 
178 1 15.3454 -3.46768 -0.355161 
179 1 -9.23005 0.932878 -13.7362 
180 1 5.01868 3.57649 16.7979 
181 1 4.59282 18.2726 3.16672 
182 1 0.832474 6.29729 6.95165 
183 1 1.62128 -6.87746 -17.3649 
184 1 -4.66465 14.8874 8.50133 
185 1 -4.79809 13.4973 -4.1942 
186 1 1.89978 -4.46054 14.1868 
187 1 -9.35917 -4.61646 0.988898 
188 1 -5.50742 -12.6173 -12.5323 
189 1 -9.92345 10.1635 -6.80981 
190 1 0.194323 -9.25471 5.3027 
191 1 2.80861 -15.9183 -6.05853 
192 1 -1.65883 13.4312 -14.2834 
193 1 -15.0884 1.0993 9.6262 
194 1 2.88624 8.04831 -2.12221 
195 1 5.60313 11.4523 -6.71553 
196 1 -6.92091 4.91114 14.5155 
197 1 0.328803 -8.48286 10.8556 
198 1 -7.96216 3.13805 0.204719 
199 1 1.67775 16.989 3.18448 
200 1 3.82634 5.36058 8.359 
201 1 13.0121 4.25565 15.1464 
202 1 -7.99958 15.335 3.94169 
203 1 12.086 -5.71236 -4.1988 
204 1 -4.50907 11.9086 9.26776 
205 1 -4.92033 1.3769 -7.99508 
206 1 9.25519 -7.58368 0.864769 
207 1 -3.3064 -6.04963 7.29996 
208 1 -13.4053 -0.794506 4.92791 
209 1 -9.43634 -9.81324 1.12684 
210 1 3.70422 5.8661 14.8564 
211 1 -14.027 -2.45131 -1.16836 
212 1 -1.83796 1.75053 1.20994 
213 1 -2.63712 -17.0515 1.35915 
214 1 -1.43699 -0.996854 3.18212 
215 1 -6.22193 -4.02901 -4.18088 
216 1 6.78369 -7.6266 -3.88859 
217 1 -4.32162 9.53258 4.84517 
218 1 -8.19055 -0.942219 3.93527 
219 1 5.52755 14.7261 11.4883 
220 1 -9.71676 0.739363 -4.96494 
221 1 -7.72465 6.88515 -8.05527 
222 1 -13.9416 -5.03021 -6.50187 
223 1 -5.01142 -5.52392 9.7983 
224 1 -0.868399 -8.99155 2.39736 
225 1 0.942865 -11.9716 3.92049 
226 1 -10.1753 10.5108 0.769446 
227 1 13.5656 1.60857 5.64259 
228 1 6.3164 7.40838 -2.9315 
229 1 -7.30699 -7.68648 -14.1337 
230 1 6.16419 -2.40756 4.62381 
231 1 -3.90977 -3.54542 2.37378 
232 1 4.80152 -13.335 5.53609 
233 1 -5.28207 9.15545 -13.8368 
234 1 1.22333 -12.167 -13.6372 
235 1 9.77725 3.64595 -13.4519 
236 1 3.07755 9.0424 -16.4581 
237 1 -7.15431 -4.33138 -7.15898 
238 1 1.20953 9.84092 -8.43851 
239 1 -10.0052 -8.79541 10.5305 
240 1 5.06181 16.5729 0.490505 
241 1 -9.72831 3.28975 15.3289 
242 1 -7.00836 15.3253 -5.09911 
243 1 6.38834 0.672458 9.4324 
244 1 -6.29008 -4.27374 -12.8497 
245 1 -2.29081 8.95785 -8.13614 
246 1 3.34694 2.10291 -10.5769 
247 1 -11.2831 -10.2719 3.30034 
248 1 0.793748 3.78915 1.97239 
249 1 -8.34821 5.71358 4.14648 
250 1 -6.82084 10.0001 6.93782 
251 1 4.07408 -10.0171 -0.0355983 
252 1 -5.65715 -19.3942 2.66379 
253 1 11.8101 -10.3877 -2.97804 
254 1 -1.00654 4.65289 4.90058 
255 1 -4.41004 -0.492261 2.63029 
256 1 1.10898 -4.51895 -4.40489 
257 1 12.0117 7.44527 16.2436 
258 1 6.9764 7.03852 -8.95937 
259 1 -1.78338 14.5359 -3.02254 
260 1 -9.20157 2.12375 4.23101 
261 1 -9.70812 10.7951 -3.54951 
262 1 2.35144 3.59892 11.6892 
263 1 2.01189 -15.0256 4.33038 
264 1 13.3864 0.569364 -1.09607 
265 1 1.77287 9.14159 5.14403 
266 1 -7.84128 8.86864 4.19362 
267 1 -12.6034 -3.49386 -4.53495 
268 1 2.2246 11.008 -10.9592 
269 1 0.0752421 -1.32896 12.0531 
270 1 6.49209 14.01 -11.1731 
271 1 3.26058 -12.8806 -6.13153 
272 1 -4.47448 -1.76346 -11.4511 
273 1 -3.61225 -16.6119 4.23615 
274 1 6.56895 -0.904956 -5.87127 
275 1 -6.60511 -4.90566 7.07732 
276 1 3.19792 -16.2401 -2.80776 
277 1 -10.5285 -4.49582 -7.72626 
278 1 4.04613 14.6267 -1.4888 
279 1 -1.11067 -1.76719 -12.3358 
280 1 2.06835 3.61392 18.1761 
281 1 14.8496 1.66973 2.02627 
282 1 -2.09007 -6.03574 3.00029 
283 1 12.6317 -4.95919 -10.0805 
284 1 -0.11657 -3.80976 0.912077 
285 1 -10.6515 -2.23565 -9.60094 
286 1 -10.5683 1.92059 -8.51655 
287 1 -5.26394 -13.6673 8.30973 
288 1 9.20954 0.121511 9.45841 
289 1 7.56693 -5.23904 8.94453 
290 1 -3.37561 -6.52321 -12.4854 
291 1 1.91357 -3.97638 7.05734 
292 1 -0.403634 7.60577 -10.115 
293 1 6.36915 9.64979 1.7698 
294 1 -7.8154 -4.74673 3.79038 
295 1 2.05191 12.6796 -0.268524 
296 1 -4.44034 -2.93618 15.0844 
297 1 -9.21517 -9.78558 -6.1936 
298 1 -5.58347 -7.13432 -7.95925 
299 1 0.714244 6.03196 -13.2149 
300 1 -8.13722 -12.6114 -9.89214 
301 1 -6.02222 -10.6751 0.434332 
302 1 -2.76715 -5.65751 -0.395137 
303 1 8.69581 -4.79406 -13.4612 
304 1 13.0994 -1.9738 -9.3514 
305 1 5.58293 -7.58036 1.50592 
306 1 11.2145 2.86408 4.40037 
307 1 -3.4679 -5.706 -3.28105 
308 1 -10.8821 -6.68751 8.34966 
309 1 -3.45774 -12.3995 -1.45335 
310 1 7.18224 5.5084 18.3988 
311 1 -8.25576 -16.1922 7.74613 
312 1 3.45841 0.531047 -5.40314 
313 1 -1.71376 -14.16 0.0575417 
314 1 -2.70758 17.6785 -2.01396 
315 1 9.32493 2.5371 -10.4403 
316 1 -6.66903 -4.76004 -15.9762 
317 1 4.88405 -6.60981 -1.22199 
318 1 -11.2433 -6.09387 11.4629 
319 1 2.66381 8.81927 15.9399 
320 1 0.586823 -15.0432 -1.30811 
321 1 0.644309 -10.9942 -7.44549 
322 1 -9.78331 6.43952 -12.199 
323 1 9.39487 5.66127 7.59948 
324 1 -7.79072 3.54801 -8.24686 
325 1 -1.48353 5.02615 -11.9429 
326 1 -2.5839 -3.44345 5.3118 
327 1 5.94654 -13.2184 -9.85763 
328 1 -4.99214 15.5232 -1.85412 
329 1 2.50036 12.2759 5.35607 
330 1 11.6405 -0.453211 4.59412 
331 1 -9.69931 2.03338 7.67854 
332 1 -5.50806 -8.25348 6.23558 
333 1 -4.73536 7.80105 2.58754 
334 1 1.41403 -3.33957 -11.6417 
335 1 11.3073 8.80413 -5.18815 
336 1 0.706675 -11.0616 0.285606 
337 1 -3.05579 -1.35142 13.1181 
338 1 -16.0519 -3.23788 5.66234 
339 1 0.255821 -16.9406 -3.9195 
340 1 -8.86148 8.82928 11.5338 
341 1 -9.395 3.37009 12.3075 
342 1 -12.918 -4.48509 9.75364 
343 1 -16.036 -5.49866 8.19572 
344 1 14.105 -5.83635 -1.90705 
345 1 -13.565 -7.31872 9.70974 
346 1 11.8105 -2.86674 -6.12169 
347 1 13.8344 -10.8627 -5.80064 
348 1 5.41069 16.7086 -5.5168 
349 1 -0.49725 -6.10749 5.82995 
350 1 -7.2396 11.6362 -5.74427 
351 1 0.214752 1.34684 3.87242 
352 1 10.1001 7.20761 11.0154 
353 1 -9.09163 -2.89229 6.06673 
354 1 5.58116 -10.8578 -5.38527 
355 1 -5.13196 10.3144 0.329357 
356 1 -10.714 3.94478 2.5558 
357 1 2.21969 3.75536 4.9671 
358 1 3.08752 -9.61793 4.52273 
359 1 9.12697 -8.76934 5.51934 
360 1 -1.50852 4.04326 8.20914 
361 1 -7.70047 -6.00697 -2.03154 
362 1 4.59853 -1.75385 1.72967 
363 1 0.0542113 1.69517 16.5549 
364 1 -0.872176 12.3503 0.580959 
365 1 11.0018 10.6599 16.8585 
366 1 -7.2469 13.9166 -7.59609 
367 1 -1.86173 -7.60008 -17.7886 
368 1 -6.74338 -0.739563 -4.05135 
369 1 3.64499 -11.4346 -13.6909 
370 1 -7.44637 1.68816 9.49626 
371 1 -14.2003 4.30274 4.44291 
372 1 -4.12704 -4.60926 -6.77025 
373 1 -2.29935 9.02455 -4.86233 
374 1 10.6734 -1.5431 7.35827 
375 1 -13.8178 -11.8676 1.25958 
376 1 9.77445 -10.5396 7.81268 
377 1 -5.08322 2.11626 0.934458 
378 1 -8.11112 -5.77097 11.4628 
379 1 -13.0378 9.62581 6.42608 
380 1 0.816619 -4.42563 10.9853 
381 1 5.62758 -10.7876 -8.17296 
382 1 -6.06883 -2.08271 -9.21753 
383 1 9.6632 -0.352876 -14.417 
384 1 4.17208 15.0234 3.55655 
385 1 -11.6168 2.12169 -3.32931 
386 1 1.47766 -6.03003 -13.2242 
387 1 9.37943 9.21355 -14.0772 
388 1 -3.36943 -17.5694 -4.92731 
389 1 -12.0672 -10.1249 -4.41631 
390 1 -5.08667 -7.40427 -1.20046 
391 1 10.3997 5.25838 17.2742 
392 1 -3.94931 -2.0772 -3.05397 
393 1 11.9325 3.00775 0.555219 
394 1 -9.38177 3.10323 -11.7609 
395 1 2.78142 18.2447 0.225619 
396 1 -15.4462 -1.80384 -5.21145 
397 1 3.65676 1.51289 2.44121 
398 1 -7.71521 11.6281 1.76756 
399 1 -10.5957 13.0191 -1.73771 
400 1 -3.53844 6.20765 10.4799 
401 1 8.01346 2.19696 13.8061 
402 1 14.1742 -1.08287 -6.1136 
403 1 6.98427 -2.34237 14.4785 
404 1 12.581 2.16603 -5.54874 
405 1 -5.05651 -16.1254 -3.17869 
406 1 4.77302 3.42259 5.23594 
407 1 -3.90193 4.00783 -1.02274 
408 1 1.23592 -7.71496 -4.8404 
409 1 0.318922 10.8553 3.10226 
410 1 5.2388 2.14264 -2.69828 
411 1 -9.95469 3.68286 -5.89673 
412 1 1.09889 -9.19615 -1.64683 
413 1 11.4202 -1.66794 11.9838 
414 1 -8.65185 -2.47483 -5.18643 
415 1 -6.75145 -8.26246 3.15177 
416 1 -6.53701 -5.9745 14.7026 
417 1 -2.70439 9.49571 -1.86949 
418 1 -12.2804 -7.73288 -3.06238 
419 1 7.78989 5.23132 12.4031 
420 1 -6.67421 5.24072 -1.77557 
421 1 1.14731 13.3711 -9.27703 
422 1 5.60967 13.6356 6.47502 
423 1 -14.0631 -10.2843 -2.14857 
424 1 -3.81702 -7.86868 -4.94003 
425 1 -12.4936 1.07347 7.89949 
426 1 -10.1238 7.08209 -6.07288 
427 1 5.59786 -10.0063 3.23771 
428 1 -4.25068 -12.222 -7.63738 
429 1 12.1602 10.3702 8.1271 
430 1 6.89406 11.0574 -13.2327 
431 1 -12.1286 4.10917 -11.2158 
432 1 -0.977696 10.9031 -10.6005 
433 1 -7.31261 5.61632 -4.76109 
434 1 -4.91188 -10.6629 3.77422 
435 1 13.5221 6.90765 5.02007 
436 1 1.11201 11.1861 -14.733 
437 1 -5.22747 -0.204508 10.2717 
438 1 -12.7918 0.160011 -0.193939 
439 1 1.83583 1.23284 -3.27763 
440 1 -7.27022 4.17161 6.69743 
441 1 -0.637781 -14.566 5.68599 
442 1 2.9101 -6.02203 -6.62325 
443 1 4.82189 -7.11303 -9.0314 
444 1 3.06104 -2.21062 4.89729 
445 1 -15.1093 1.33406 6.41075 
446 1 -13.0665 -1.54936 10.2107 
447 1 -11.8963 10.0446 3.71428 
448 1 0.23208 -6.65276 0.211914 
449 1 -6.21849 0.724608 -14.3261 
450 1 8.56988 -12.7648 -7.7533 
451 1 0.122732 -13.8105 -11.3155 
452 1 -4.26651 -2.85116 8.16555 
453 1 4.06362 -5.8907 -3.78445 
454 1 -3.62566 2.98513 -13.1869 
455 1 9.26759 -13.2123 1.10799 
456 1 3.11523 9.53915 -5.57953 
457 1 -10.949 10.106 9.42801 
458 1 -5.66448 -0.729329 17.0638 
459 1 -11.9306 -7.19668 -9.21012 
460 1 -2.88462 -8.36751 4.87734 
461 1 10.76 -6.4306 12.8628 
462 1 6.85667 2.02045 2.68312 
463 1 -2.87268 2.02397 4.01306 
464 1 1.7195 0.464338 -8.3638 
465 1 10.0037 -11.8305 4.60251 
466 1 -1.94241 6.7788 -3.04089 
467 1 11.9197 5.53048 -6.18149 
468 1 0.0956831 1.65713 10.0267 
469 1 1.78708 14.0074 -3.7816 
470 1 4.43285 -5.09367 4.20147 
471 1 -1.67749 -12.35 -5.60694 
472 1 -1.53334 7.06164 16.0741 
473 1 -2.59858 16.4398 6.07891 
474 1 -7.32737 -12.3254 -6.69405 
475 1 8.28131 15.1343 0.138983 
476 1 3.60097 8.10415 7.63046 
477 1 -6.78206 -0.818999 7.58737 
478 1 -1.21914 -9.3607 -5.14434 
479 1 -13.7303 3.97172 7.38472 
480 1 -9.09082 -7.03394 -8.27525 
481 1 -5.69626 6.63392 8.21355 
482 1 -4.75168 -12.9935 -4.65116 
483 1 -1.3435 -6.78989 -15.095 
484 1 -2.17898 -11.5413 4.3356 
485 1 -5.7707 -2.59967 4.96526 
486 1 12.0946 0.638593 10.0705 
487 1 -3.51321 -5.96384 13.3562 
488 1 -8.57367 9.58782 -12.0792 
489 1 7.39709 4.37215 -2.96219 
490 1 -7.89911 -16.0836 -1.36658 
491 1 -0.512339 2.4463 -9.29075 
492 1 -0.562676 17.1105 0.0728847 
493 1 0.0870988 7.57068 -6.78508 
494 1 -2.13443 7.06186 12.8379 
495 1 -15.3065 -4.97542 -3.20942 
496 1 -0.959234 17.073 -4.88828 
497 1 4.15272 12.7312 -9.39944 
498 1 -4.75436 -10.5057 -5.89555 
499 1 3.12609 0.695328 16.9705 
500 1 -0.515176 -13.9434 -8.715 
501 1 -0.851175 -4.60799 -10.9746 
502 1 7.12364 -15.6314 1.30546 
503 1 -7.90218 10.0576 -1.42009 
504 1 1.10871 6.25673 13.2233 
505 1 7.44816 9.51811 -0.95924 
506 1 4.22574 10.2417 -0.476521 
507 1 -9.13373 11.8286 -9.4827 
508 1 1.84836 4.74019 -7.85547 
509 1 2.71806 -6.99877 6.15904 
510 1 -15.6698 -7.58957 -1.95191 
511 1 6.24604 3.98161 0.307926 
512 1 3.20722 18.0191 5.92836 
513 1 -4.42448 5.7671 -12.5221 
514 1 11.6235 6.33497 -0.168988 
515 1 1.59021 17.1473 -9.02529 
516 1 7.46286 -9.495 -0.732986 
517 1 16.3867 1.84527 -0.769755 
518 1 2.64616 0.920092 -15.9158 
519 1 -3.28812 -11.3478 1.60062 
520 1 -1.10587 -11.9102 7.10851 
521 1 3.48899 -9.70562 10.6854 
522 1 -10.2425 5.03673 -8.98201 
523 1 -11.072 -13.5077 7.3111 
524 1 3.95815 5.12606 -2.023 
525 1 -2.84102 -14.8784 -6.35339 
526 1 8.29191 14.138 5.74242 
527 1 3.64092 3.78151 -15.7181 
528 1 1.10023 -1.85817 16.0287 
529 1 -13.8651 2.50536 12.2475 
530 1 -4.00347 -19.1399 -0.633027 
531 1 -12.4798 -3.29129 1.15371 
532 1 14.3863 -4.19722 -6.79082 
533 1 11.0413 -5.03704 -1.00157 
534 1 0.735936 2.10438 -5.7608 
535 1 -4.28066 4.06741 -4.01034 
536 1 3.26871 -9.25496 -6.67385 
537 1 6.39297 2.84974 -13.3514 
538 1 10.4171 -3.09207 -9.03515 
539 1 -6.39965 2.33005 15.7902 
540 1 5.1443 13.3355 0.856978 
541 1 -3.40075 -4.44146 -16.8837 
542 1 2.64881 -8.54055 1.44817 
543 1 7.62266 -0.132191 -16.6367 
544 1 -7.68963 -7.215 8.86244 
545 1 -3.20129 12.4965 -1.01963 
546 1 -9.12422 -4.72933 -13.6184 
547 1 -15.9539 1.70511 -0.436694 
548 1 -3.84539 -9.0938 -10.3558 
549 1 -3.85606 -10.5156 7.06449 
550 1 2.80902 7.67959 -10.7792 
551 1 14.8448 1.62248 15.1901 
552 1 13.3902 6.86304 -3.45285 
553 1 -8.78949 -12.4851 -1.02814 
554 1 -1.35874 -11.405 -2.56999 
555 1 -1.53548 -1.57232 -16.0642 
556 1 -7.99193 11.5613 9.50767 
557 1 2.85838 -3.0229 -8.41238 
558 1 -1.40121 4.8551 0.164026 
559 1 12.8407 -4.67608 4.57858 
560 1 3.34471 16.1409 -11.9212 
561 1 6.32583 -12.4977 0.468214 
562 1 7.6283 -2.47818 -1.07076 
563 1 11.5826 9.41633 -11.5259 
564 1 2.91655 8.9027 13.0212 
565 1 -8.72705 7.24452 7.03915 
566 1 -5.48059 -4.04519 -1.12949 
567 1 7.97306 12.8499 11.2901 
568 1 6.07369 0.879682 15.4135 
569 1 -0.142453 1.22408 -17.7947 
570 1 -7.17452 -7.00136 -5.36327 
571 1 -2.08359 -3.69614 11.1243 
572 1 7.01867 11.763 9.0449 
573 1 6.17211 8.17108 -6.07518 
574 1 -4.14266 11.8459 -9.75283 
575 1 -0.489306 14.4197 -6.05019 
576 1 10.1313 -3.29453 14.0762 
577 1 11.7175 6.38253 -13.3524 
578 1 11.1315 -5.81216 -7.10738 
579 1 12.2917 9.51935 14.0407 
580 1 -15.8018 -7.14925 1.37354 
581 1 -6.85646 10.2041 -8.60753 
582 1 -0.811275 1.09798 7.24522 
583 1 -14.2171 -0.319818 12.6705 
584 1 -3.61446 11.3809 -12.8179 
585 1 2.84987 -12.8582 -2.91214 
586 1 6.21288 1.15433 -10.6937 
587 1 -3.4499 15.8067 -5.08684 
588 1 -6.53271 -7.06242 -11.0824 
589 1 1.88087 -12.3376 6.5883 
590 1 -13.518 -6.08131 -0.699565 
591 1 1.56962 14.3298 -13.9301 
592 1 -5.92365 2.00518 -2.2842 
593 1 -3.51882 9.50693 14.4362 
594 1 -13.3157 -5.75078 6.79767 
595 1 5.08457 10.2072 -3.32106 
596 1 1.72749 -9.23914 -12.5764 
597 1 5.51871 -7.65055 11.8119 
598 1 7.92537 1.30632 -3.09992 
599 1 1.36641 -1.08193 2.31027 
600 1 -9.62232 5.42895 -0.203545 
601 1 3.4579 6.37449 18.2293 
602 1 3.00049 15.233 -7.06091 
603 1 10.0247 -7.86714 -2.53656 
604 1 4.42346 8.51676 10.4279 
605 1 2.89442 6.19588 -17.3236 
606 1 -4.12092 -11.2388 10.9843 
607 1 -2.93066 0.276639 -10.1019 
608 1 6.79763 -3.48454 -16.3959 
609 1 2.64272 14.8653 6.71031 
610 1 7.34259 5.09014 -11.4308 
611 1 -0.735924 2.13742 -12.1697 
612 1 -4.7955 -9.87847 -2.66518 
613 1 -11.4153 -4.83068 -11.3406 
614 1 12.5416 5.32408 2.5682 
615 1 14.205 2.5881 -2.46334 
616 1 6.24461 -3.30076 -13.1359 
617 1 13.9292 6.9894 13.3151 
618 1 4.01836 -9.23887 -3.51523 
619 1 9.48344 2.76313 -16.1562 
620 1 6.63817 12.3135 3.43962 
621 1 -6.65857 2.75037 3.26415 
622 1 9.78042 11.8006 13.9929 
623 1 9.78479 8.21434 -2.359 
624 1 15.3764 0.0352598 4.61439 
625 1 5.69641 5.25798 -5.25572 
626 1 7.03995 4.90541 15.0617 
627 1 11.5571 4.41718 10.977 
628 1 4.03156 -4.62339 9.20219 
629 1 10.6618 11.2825 -5.81162 
630 1 8.55809 0.180296 4.88881 
631 1 2.09974 3.18804 15.0006 
632 1 12.3639 -0.578356 -4.10093 
633 1 10.2907 4.68593 13.9564 
634 1 -7.99666 -0.276906 -6.98314 
635 1 15.1713 3.74324 3.91152 
636 1 9.27964 -4.41437 1.34732 
637 1 -2.24849 -9.29255 -0.644902 
638 1 -10.6113 6.36754 10.7685 
639 1 11.1677 11.6521 11.3174 
640 1 11.0642 1.65384 12.5914 
641 1 4.3078 11.0242 7.65534 
642 1 0.219485 13.2611 11.2479 
643 1 6.41215 5.86107 6.88705 
644 1 -5.65102 -16.7674 1.73736 
645 1 -4.94894 7.12767 -4.00228 
646 1 10.9641 11.4625 -8.75667 
647 1 10.8248 0.435173 -9.44642 
648 1 0.769567 18.6469 -2.46487 
649 1 -2.34297 -9.68254 -7.94301 
650 1 9.73786 -5.36282 -11.3221 
651 1 -14.1114 -1.1531 2.33737 
652 1 -5.76577 8.84092 -10.6829 
653 1 -7.49896 -16.9633 4.51131 
654 1 -5.72451 1.04638 -11.4271 
655 1 -15.4964 1.48996 -4.08236 
656 1 11.2397 -9.38791 2.95819 
657 1 12.4003 11.6764 2.83716 
658 1 4.87592 -7.37702 8.73011 
659 1 -15.3643 -2.14817 -8.4468 
660 1 3.76149 4.92558 2.27669 
661 1 5.98684 2.24319 -16.7162 
662 1 2.42718 0.907848 5.78477 
663 1 -0.528049 1.39144 13.3772 
664 1 9.51238 11.9155 -11.5555 
665 1 12.5312 -1.23542 15.1195 
666 1 5.07559 3.95019 -8.61218 
667 1 6.16714 0.469876 -0.0249988 
668 1 11.0828 12.9775 0.0142062 
669 1 2.70522 -9.00205 -9.51409 
670 1 -9.94586 -2.29203 11.6663 
671 1 11.0896 -5.0984 7.64567 
672 1 -1.54703 11.8977 13.5373 
673 1 4.75525 15.9818 -9.1519 
674 1 -12.6508 5.55445 -7.32434 
675 1 9.20886 10.2178 3.01053 
676 1 -10.751 -12.9552 0.861866 
677 1 10.4326 -6.06049 3.69372 
678 1 6.80314 15.4051 2.9555 
679 1 -1.55441 4.09372 11.6334 
680 1 -11.0475 -5.05725 4.99649 
681 1 -13.0063 0.195245 -9.25561 
682 1 8.24658 -0.759476 12.0241 
683 1 -2.59699 -8.74163 12.0356 
684 1 5.91605 7.86024 13.3197 
685 1 -4.43812 13.1861 1.70614 
686 1 9.32456 4.52882 2.0322 
687 1 7.86903 -5.86522 -1.3371 
688 1 7.86906 3.40129 5.19302 
689 1 3.91331 1.03647 -13.4312 
690 1 -10.4883 -0.295998 5.81374 
691 1 14.2897 4.73051 -8.24174 
692 1 -1.21941 -6.01493 -5.58804 
693 1 10.6539 -7.68689 -9.19427 
694 1 7.01266 6.13468 9.91884 
695 1 4.3181 6.46318 5.01612 
696 1 -6.33304 2.63067 12.1149 
697 1 9.22858 9.36683 8.81406 
698 1 -2.42149 -1.38784 17.3255 
699 1 -1.24909 4.29636 14.8752 
700 1 -2.87383 -4.26446 -13.9708 
701 1 -2.91694 1.64125 11.6005 
702 1 -1.69521 2.66592 -3.45016 
703 1 7.32944 3.09854 7.90738 
704 1 -8.17337 -13.1254 8.06706 
705 1 9.78162 11.3666 -2.32623 
706 1 7.55556 -13.1067 -4.69754 
707 1 -2.68754 3.17332 -6.57065 
708 1 8.3906 12.0854 0.644322 
709 1 10.0484 14.2356 2.83856 
710 1 4.99528 -1.04388 -17.2695 
711 1 -1.04424 -3.8007 8.34995 
712 1 4.95306 13.5711 -4.59798 
713 1 12.3861 8.65898 2.18291 
714 1 -1.0011 -3.42181 -2.30198 
715 1 -8.01948 -9.38791 -1.39333 
716 1 0.0102126 -4.77554 -17.8525 
717 1 -5.24128 10.4372 -3.24358 
718 1 11.1756 -2.60001 -11.6484 
719 1 6.27691 5.6328 3.10925 
720 1 10.5643 5.47809 -10.5326 
721 1 10.0574 14.9761 -2.65404 
722 1 -4.08245 3.93828 6.17714 
723 1 -6.16747 5.54898 1.40004 
724 1 8.79748 6.83547 -5.30033 
725 1 11.5756 1.88304 16.1881 
726 1 9.25291 -0.112392 15.0474 
727 1 -1.1865 -10.8772 9.65945 
728 1 -6.54901 11.7137 -11.4983 
729 1 3.08512 13.8703 9.77815 
730 1 4.54275 -7.02392 -12.4131 
731 1 3.16343 -2.11645 11.1304 
732 1 6.58994 14.4763 -7.36987 
733 1 7.8386 10.9512 6.07158 
734 1 -5.70538 -0.732756 -0.842904 
735 1 13.9421 -7.90985 -4.89808 
736 1 9.05513 7.82643 17.5988 
737 1 -12.3495 -2.88042 7.23888 
738 1 4.21171 -17.5527 1.04361 
739 1 -0.0842409 -1.7185 -9.1652 
740 1 -9.57368 14.0998 1.06492 
741 1 1.23146 6.59086 3.82617 
742 1 6.64508 -3.78377 -3.53926 
743 1 3.36972 11.4251 2.37728 
744 1 -13.7049 -4.01207 4.25584 
745 1 -3.29572 1.81839 17.616 
746 1 -2.04701 5.61222 -14.7874 
747 1 -5.48657 6.04874 -15.7075 
748 1 3.83477 -14.252 -0.470631 
749 1 8.11649 10.0999 -4.36194 
750 1 1.56322 -6.68872 3.21295 
751 1 -1.58439 7.28332 2.22124 
752 1 -11.7022 3.82634 10.2247 
753 1 3.35301 -2.38241 -14.3781 
754 1 4.69026 -12.203 8.7207 
755 1 0.720832 13.5633 2.84146 
756 1 -3.9068 1.59633 14.3179 
757 1 -2.76407 -2.11299 0.148516 
758 1 -4.57118 -9.79274 -13.6299 
759 1 -7.75365 -10.2734 -11.9807 
760 1 -5.77168 -15.3278 -6.44347 
761 1 -1.82989 12.3477 -7.86965 
762 1 6.0045 -2.38661 -9.03731 
763 1 3.12183 -0.24821 -0.623663 
764 1 -6.05461 12.072 4.29081 
765 1 5.70698 -7.92009 -6.54781 
766 1 5.80483 -17.9776 -1.44924 
767 1 2.72859 -6.53679 11.7032 
768 1 15.0813 4.50831 -4.91441 
769 1 0.56735 -13.905 -5.60151 
770 1 -9.43456 -1.15577 8.47749 
771 1 -1.75124 0.222521 -7.22069 
772 1 -8.3922 -15.3075 1.94902 
773 1 -7.24763 -10.5444 -3.97202 
774 1 1.80066 -2.28674 -3.03138 
775 1 -11.483 0.947 10.5837 
776 1 -6.35769 -13.047 4.01446 
777 1 13.8108 7.52552 -6.90927 
778 1 -4.27502 15.1654 3.6678 
779 1 -4.26754 1.31581 8.22468 
780 1 -14.4514 6.71891 6.8848 
781 1 11.2446 -2.21938 1.35716 
782 1 -13.5799 -2.43489 -11.5467 
783 1 0.607301 7.96407 -3.93605 
784 1 6.74936 2.30013 -6.10019 
785 1 6.88467 13.267 14.359 
786 1 0.228788 -1.80843 5.86886 
787 1 10.6793 5.4136 -3.09387 
788 1 -15.7706 0.822818 -7.20151 
789 1 -11.7363 -7.61356 -6.1241 
790 1 -0.229743 9.00706 14.6086 
791 1 4.3023 5.02382 -11.7134 
792 1 10.7756 12.1461 5.33064 
793 1 -2.21951 -0.699478 9.12097 
794 1 -2.1348 -17.2347 -1.68556 
795 1 -5.72912 -15.6148 6.56126 
796 1 -1.30032 -8.56873 7.61278 
797 1 13.3024 9.35404 10.9479 
798 1 2.01664 -5.82306 -9.74215 
799 1 -7.46797 8.08291 1.20085 
800 1 7.51797 7.86858 4.91531 
801 1 -11.3954 -8.35848 5.58765 
802 1 8.72797 8.53688 -11.1499 
803 1 -0.804348 -16.5147 -6.69537 
804 1 1.34997 -15.908 1.06858 
805 1 -0.665414 -18.5226 0.872741 
806 1 3.83624 6.89244 -7.99712 
807 1 2.04698 15.3168 0.950193 
808 1 -3.0222 0.257024 -13.6925 
809 1 2.47973 0.233342 13.5848 
810 1 0.187861 7.59649 -15.54 
811 1 -10.6011 -1.8724 -12.95 
812 1 -10.9366 -1.1357 -2.96009 
813 1 2.14963 17.5138 -5.3089 
814 1 9.82015 -0.258281 -0.650654 
815 1 -4.41039 -7.14089 -15.7357 
816 1 -6.27524 -5.95189 1.10069 
817 1 9.55338 3.94682 -5.33825 
818 1 12.6402 -4.65046 1.04317 
819 1 -9.58284 6.45318 14.3446 
820 1 5.48909 -11.6935 -2.36497 
821 1 12.1299 -7.92599 -0.329568 
822 1 13.1274 -4.06931 12.6024 
823 1 -1.35741 9.86426 6.02617 
824 1 -11.177 1.01984 13.6167 
825 1 -4.80726 3.48458 9.8163 
826 1 -2.86912 -14.0238 9.08059 
827 1 9.8015 1.25519 2.11116 
828 1 5.63009 8.55117 17.5362 
829 1 -16.3854 -4.04698 -0.19734 
830 1 8.76198 -5.49041 -4.72467 
831 1 0.465992 4.99607 -2.14623 
832 1 -12.5641 6.87783 -1.45463 
833 1 3.34846 8.29567 2.26052 
834 1 0.161224 -14.4813 8.79302 
835 1 4.83991 3.04042 13.4816 
836 1 -0.587241 13.3796 6.09343 
837 1 3.04374 -11.7903 2.00802 
838 1 -8.18936 -3.15168 -1.95003 
839 1 7.42262 -1.78604 7.16217 
840 1 -14.6436 -7.92817 -5.11649 
841 1 4.40675 11.2214 15.3219 
842 1 6.57277 12.8587 -1.75477 
843 1 -13.1483 -11.3221 5.92578 
844 1 -5.7742 -18.5693 5.80529 
845 1 9.66427 -7.52463 8.201 
846 1 11.8116 -7.57745 6.03107 
847 1 6.6015 8.911 7.79159 
848 1 -0.556977 7.76676 -0.714689 
849 1 -0.0184324 -7.88783 -8.19399 
850 1 1.88845 4.99459 -10.5068 
851 1 -6.15 -0.511069 12.99 
852 1 -1.10632 15.8978 3.11416 
853 1 12.2651 0.0108843 1.92376 
854 1 3.09197 6.65466 -5.20613 
855 1 -6.37222 7.55078 15.4059 
856 1 8.21272 10.1229 11.8228 
857 1 8.82396 -0.953324 -11.1758 
858 1 -6.67337 -13.4967 0.261068 
859 1 -5.01955 -1.72261 -6.51576 
860 1 14.3766 -1.87754 6.16298 
861 1 0.726397 -0.132955 -14.3656 
862 1 1.48011 6.45589 10.1338 
863 1 8.33335 -10.5178 -9.97159 
864 1 6.30074 8.49861 -15.1083 
865 1 -0.750493 -6.89042 -2.69802 
866 1 13.6931 1.1201 -8.08976 
867 1 13.9495 -2.38318 2.99206 
868 1 -1.34274 -4.03612 14.4995 
869 1 -6.91667 -9.75123 -8.68716 
870 1 -0.222804 -0.921179 -0.496089 
871 1 6.69856 16.0048 -2.76518 
872 1 3.1606 -4.94725 1.37831 
873 1 -15.8189 1.44011 3.16039 
874 1 10.1937 2.75214 -7.66728 
875 1 15.0908 5.18347 7.33921 
876 1 0.310817 -3.80599 -14.3898 
877 1 -7.94171 13.4 6.85951 
878 1 14.4452 8.85983 7.73141 
879 1 8.15641 13.1454 -4.83911 
880 1 1.78785 2.9117 -13.4286 
881 1 11.4118 -2.41064 -1.91888 
882 1 -10.6619 1.87944 0.924021 
883 1 10.7068 6.20224 4.71633 
884 1 -12.0385 -6.57125 2.36798 
885 1 -12.2226 8.55046 -4.60925 
886 1 5.7702 3.42772 10.5799 
887 1 -13.1371 -0.354175 -3.97108 
888 1 -11.9067 7.21997 8.62547 
889 1 -3.27886 3.05992 -10.0978 
890 1 6.97492 -4.96341 -9.73051 
891 1 -9.4853 -12.0188 -4.11308 
892 1 8.44329 -10.3483 -3.60375 
893 1 -16.5075 -1.23263 -2.25903 
894 1 -9.8391 -5.34277 -4.67953 
895 1 11.9932 7.3927 8.17439 
896 1 -9.40568 -7.40134 2.51614 
897 1 8.48397 2.75651 17.1416 
898 1 12.1033 -6.98945 10.4882 
899 1 9.78025 -2.5763 4.14812 
900 1 -13.3717 5.45694 1.11695 
901 1 0.95494 9.17397 8.35269 
902 1 8.24398 4.6653 -8.20008 
903 1 -2.25171 -9.89402 -15.9847 
904 1 -5.81749 15.9716 6.11074 
905 1 -12.6224 -10.5579 8.801 
906 1 2.69011 12.1598 -6.28103 
907 1 -0.036281 9.52891 11.706 
908 1 13.7617 -3.31483 -3.59343 
909 1 8.6316 -8.07461 10.8745 
910 1 -2.63903 14.2443 -10.9438 
911 1 4.49909 9.74182 -8.88491 
912 1 1.94499 -5.54191 -1.50433 
913 1 -5.51854 -3.92956 12.5889 
914 1 14.2549 3.82453 12.7479 
915 1 -4.72629 -4.69139 -10.1754 
916 1 12.6019 9.89828 -2.85474 
917 1 -13.4723 2.46409 2.09647 
918 1 -6.38749 -10.9916 6.64892 
919 1 0.0414295 15.5293 -11.5013 
920 1 6.38605 -2.59656 9.97094 
921 1 -2.04885 -14.6698 -3.18425 