ITEM: TIMESTEP
19000
ITEM: NUMBER OF ATOMS
500
ITEM: BOX BOUNDS pp pp pp
-30.0 30.0
-30.0 30.0
-30.0 30.0
ITEM: ATOMS id type x y z Coordination
1 1 0.400337 5.84199 6.93549 10
2 1 -4.94045 10.2497 5.953 12
3 1 -9.1454 3.8261 -10.723 18
4 1 -15.8683 7.73598 -5.87454 12
5 1 -5.99205 8.17155 -12.9695 14
6 1 2.27738 -1.27473 -7.20895 7
7 1 -0.534515 5.21494 4.24347 18
8 1 -2.52864 12.1707 5.68313 12
9 1 -14.8926 4.94001 -0.749365 17
10 1 2.65335 4.6045 -4.25513 18
11 1 1.01311 8.09341 4.65333 15
12 1 -12.6748 -0.577808 -0.502381 17
13 1 -6.58184 0.924454 -10.4652 16
14 1 3.15786 4.05963 -6.75713 16
15 1 2.13317 -0.144968 -0.727148 14
16 1 -10.8262 14.9536 1.75138 13
17 1 -6.53859 14.9148 -2.94238 16
18 1 -6.28848 4.21165 -12.3313 14
19 1 -7.58456 10.9064 4.11562 17
20 1 -10.0269 12.798 0.183022 19
21 1 -3.255 8.91019 -11.1603 17
22 1 -10.0355 16.4813 -7.4675 9
23 1 -11.2091 11.4316 -8.58302 17
24 1 -10.4777 14.7122 -4.39461 18
25 1 -14.9058 10.2149 -4.16256 14
26 1 -5.34297 13.225 4.63305 11
27 1 -11.2447 11.3377 -11.7676 12
28 1 -11.6133 -1.42747 2.34652 13
29 1 -0.730783 -0.991606 -5.74921 17
30 1 -15.5359 4.82084 -7.56639 15
31 1 -7.04186 -3.01626 -0.41121 12
32 1 -0.685121 10.2494 -9.41677 13
33 1 -15.3301 3.43458 -9.81933 11
34 1 -5.0707 11.3305 -12.3328 14
35 1 -7.02112 16.6248 -5.87324 12
36 1 -15.3221 4.84057 2.34312 14
37 1 -4.86138 15.3896 2.41692 13
38 1 -2.90087 5.26466 6.5476 14
39 1 -4.13721 -1.9212 -6.34074 16
40 1 2.14039 4.9361 -10.4837 11
41 1 -1.15281 2.58673 6.22117 13
42 1 -4.02861 2.43399 4.36408 19
43 1 -1.77534 12.4204 -4.23421 24
44 1 -14.9259 -0.20812 2.13348 9
45 1 -9.10888 -3.91814 -3.30921 13
46 1 -10.2339 3.89625 5.18298 15
47 1 -15.7245 7.95238 0.783035 14
48 1 -0.443149 -0.510548 -2.42022 15
49 1 -13.7181 2.16098 1.88418 20
50 1 -11.0403 16.4977 -1.01335 13
51 1 -14.0103 13.4406 0.841747 14
52 1 -10.2679 12.6566 3.66541 12
53 1 -13.1424 2.82728 -7.62484 21
54 1 -11.8718 3.09496 -10.5165 14
55 1 -0.344837 9.54157 6.86627 9
56 1 -8.06542 2.11916 7.08962 9
57 1 -12.8286 5.92488 -10.7424 19
58 1 -14.7606 4.72123 -4.74657 22
59 1 -11.19 -2.20452 -5.60897 14
60 1 -13.4167 13.1843 3.86177 8
61 1 -6.44508 -2.00247 -8.82191 13
62 1 -7.44818 13.1838 2.09599 19
63 1 -15.6786 7.28854 -9.89306 12
64 1 -14.6345 15.6682 -4.87244 8
65 1 -9.10707 -0.392353 -10.5164 9
66 1 -0.299734 -0.332721 4.18482 12
67 1 -14.4952 9.94031 -7.74609 13
68 1 -11.7847 6.49361 5.84529 10
69 1 -14.4148 10.5292 2.59825 12
70 1 -7.56604 15.2297 -8.86353 13
71 1 -6.38032 0.259541 4.97929 12
72 1 -2.78537 -1.59138 -8.65826 9
73 1 -0.648725 3.83949 -12.4771 10
74 1 1.93516 1.36343 4.84169 9
75 1 -11.9685 -0.0697142 -8.2098 16
76 1 -11.9683 4.35274 3.30605 19
77 1 3.75138 7.40176 2.93419 10
78 1 1.40594 12.4932 -5.71791 13
79 1 -7.89559 10.4172 -13.5175 12
80 1 -7.78579 12.2851 -10.7558 18
81 1 -3.67626 15.1365 -4.63795 17
82 1 -1.10152 6.2485 -11.0173 16
83 1 -3.36573 -0.76927 -0.420277 16
84 1 2.16113 3.59741 -1.3004 19
85 1 -5.87481 -3.71139 -3.69915 11
86 1 -13.013 8.05797 -12.3768 10
87 1 4.18423 7.05422 -5.13837 12
88 1 -12.4715 14.2852 -7.42276 12
89 1 -1.15519 1.06561 -10.7383 11
90 1 -12.3558 1.08765 4.43934 13
91 1 -7.05347 -3.93659 -6.29225 10
92 1 -3.53616 3.2124 -10.2679 21
93 1 -0.883969 -0.62636 0.988583 15
94 1 -9.88159 1.38599 -8.84393 19
95 1 -6.07749 5.50254 7.24303 12
96 1 -7.29175 8.01763 5.79569 16
97 1 -0.189888 3.71375 -9.05586 18
98 1 -1.96536 12.2967 -7.30076 15
99 1 3.63653 6.93662 -8.319 12
100 1 -10.232 7.57401 -12.4856 19
101 1 -14.4986 10.9767 -1.03173 16
102 1 -4.69584 2.45932 7.03276 12
103 1 -12.1673 8.88531 -9.48892 23
104 1 1.70498 2.4704 1.39514 17
105 1 0.358514 11.9427 4.39281 12
106 1 -3.31299 -0.0389577 2.96619 14
107 1 1.25559 10.9779 -0.78109 15
108 1 0.393783 13.4528 1.50569 13
109 1 -2.40921 13.3479 2.62408 18
110 1 -10.3197 14.255 -9.95629 11
111 1 -13.9957 -0.964069 -5.97775 9
112 1 -15.8877 13.2303 -2.25441 10
113 1 0.0824365 14.8088 -5.31077 10
114 1 -1.85793 9.38753 4.25614 18
115 1 -7.71289 6.67075 -14.1418 11
116 1 -1.17757 15.3375 -2.57309 15
117 1 1.80299 1.82109 -8.79092 13
118 1 1.9691 -1.49024 2.65112 7
119 1 -11.2082 9.92393 4.5147 14
120 1 1.11808 7.93203 0.948537 19
121 1 -7.2824 11.6465 -7.92263 20
122 1 2.61322 10.0393 -7.66123 13
123 1 -8.88397 5.45036 7.36284 12
124 1 -9.56342 1.15008 3.9008 14
125 1 -12.7472 13.4801 -1.53471 19
126 1 -1.80864 12.5896 -1.08693 22
127 1 -16.2852 2.35418 0.0665212 12
128 1 3.15776 4.98131 0.906474 17
129 1 -9.08123 -0.662986 -1.16753 21
130 1 1.4291 10.1731 2.59524 14
131 1 2.39625 -1.4301 -4.02413 10
132 1 -4.19282 15.4528 -0.842908 17
133 1 -16.0654 1.86035 -6.54313 12
134 1 -4.9629 13.0862 -9.79197 16
135 1 -13.07 6.75019 -7.44689 22
136 1 -3.98498 5.75132 -12.3912 15
137 1 -9.36026 -1.63517 -7.53838 16
138 1 3.34263 1.76674 -3.52047 13
139 1 -15.9785 6.77869 -2.52582 14
140 1 -8.73427 9.5319 -10.5671 24
141 1 -11.7847 -1.61911 -2.99141 17
142 1 2.59582 4.72833 4.22544 12
143 1 -10.6381 4.90191 -13.3341 9
144 1 -14.0415 16.1178 -2.19508 12
145 1 -13.1324 7.25395 2.59385 19
146 1 1.343 12.9647 -2.6037 13
147 1 3.81354 7.44772 -0.834994 11
148 1 -8.53114 -1.75635 2.80227 10
149 1 1.07803 8.10224 -9.86878 14
150 1 -2.15567 12.2034 -12.14 7
151 1 -1.85382 16.2847 0.683701 8
152 1 -4.29594 14.8901 -7.39616 12
153 1 1.80699 9.77918 -4.24076 17
154 1 1.40754 1.6221 -5.59747 20
155 1 -7.84092 16.0363 0.577195 14
156 1 -8.40589 16.7166 -2.40822 10
157 1 -10.3861 -3.22135 -0.0855586 14
158 1 4.89192 4.78766 -2.15701 10
159 1 -16.4457 2.9319 -2.98579 12
160 1 -11.4984 17.4876 -4.4101 9
161 2 -15.1451 6.68941 2.15128 14
162 2 0.647942 9.87927 0.696386 18
163 2 -12.5894 10.0987 -7.95924 17
164 2 -10.2507 -2.50343 1.54421 12
165 2 -1.92834 10.5665 6.41337 11
166 2 -12.029 11.79 3.85049 13
167 2 1.91798 0.607637 -7.26416 13
168 2 -9.63623 7.62719 -10.7393 21
169 2 -4.55464 4.01343 -11.5626 14
170 2 -9.39033 13.3507 1.93223 18
171 2 1.2882 4.23317 0.592636 20
172 2 -0.960056 13.4102 -2.68476 20
173 2 -6.65075 15.1348 1.8183 14
174 2 -2.18371 16.0136 -1.13267 11
175 2 -3.98546 12.4555 -11.2756 12
176 2 0.223856 4.684 -10.8386 15
177 2 -14.4162 7.46887 -11.1592 10
178 2 -4.81252 0.344554 4.13099 15
179 2 -15.0219 7.0181 -0.637333 16
180 2 -0.0573584 1.70532 -9.20483 16
181 2 -10.1605 -2.64591 -4.03724 15
182 2 -1.26277 12.7824 4.23012 13
183 2 -0.978539 4.44982 6.29906 12
184 2 -13.2324 -1.01535 1.40025 12
185 2 -5.95745 -2.61012 -2.0373 15
186 2 -15.495 1.26347 1.20625 12
187 2 -7.5859 -4.21313 -4.39776 9
188 2 -12.265 -1.45008 -6.81764 14
189 2 -12.7174 15.5705 -1.06743 13
190 2 1.77623 10.6342 -6.05963 14
191 2 -3.05025 6.75819 -11.0304 19
192 2 -7.65369 15.4634 -1.23499 15
193 2 -12.6102 14.3018 2.31992 12
194 2 -7.52899 16.2189 -4.0334 13
195 2 -5.783 14.5023 -8.75591 14
196 2 -7.13075 12.8139 4.10505 14
197 2 -4.43971 4.25621 7.53711 11
198 2 -1.69166 2.63815 -11.3323 11
199 2 -4.74978 -1.59866 -8.10237 14
200 2 -14.5832 0.975975 -5.66524 13
201 2 3.62649 3.25418 -2.53047 11
202 2 0.565301 12.763 -0.534937 15
203 2 -7.5798 8.64455 -14.0442 12
204 2 -5.88796 6.0231 -13.118 12
205 2 -8.4736 1.61819 -10.2103 17
206 2 -5.06266 2.14919 -9.91501 17
207 2 2.40945 6.71296 -9.62051 13
208 2 -9.36182 6.08853 -13.9337 12
209 2 -7.36211 -1.04756 -10.2458 11
210 2 -7.12907 8.60022 -11.1944 22
211 2 -11.6833 -2.24666 -1.24536 13
212 2 -11.9217 12.5176 0.0110661 20
213 2 -13.9344 1.07222 3.41732 11
214 2 -14.9887 7.6465 -3.92795 16
215 2 2.0313 -0.829941 0.94914 10
216 2 -3.81746 15.979 1.04401 10
217 2 -7.74343 6.94186 7.11406 10
218 2 -14.8874 10.0093 0.68835 15
219 2 -15.6676 5.31035 -9.41099 12
220 2 1.23102 10.7846 -2.79255 19
221 2 -15.2722 2.33077 -1.61279 14
222 2 -9.81054 10.376 -9.2497 22
223 2 -1.67368 5.24515 -12.6655 8
224 2 -11.8835 13.2751 -3.1475 19
225 2 -2.23536 -0.726545 -7.08787 16
226 2 -5.37992 -3.32242 -5.59396 11
227 2 -13.4595 16.921 -3.97826 10
228 2 -1.18263 -0.00961671 -0.818868 17
229 2 -1.06687 14.6842 1.43727 14
230 2 -10.706 16.1318 -5.71355 12
231 2 -9.3806 2.14714 5.63368 15
232 2 -6.84185 11.6489 -12.4027 14
233 2 -4.57744 5.73558 5.63878 17
234 2 1.5369 13.7824 -4.22667 11
235 2 -2.4356 12.1194 1.20696 18
236 2 -12.3688 1.20422 0.258688 20
237 2 -4.5551 12.0988 5.74632 11
238 2 0.220933 7.6842 7.17861 11
239 2 -4.59998 9.48107 -12.4081 16
240 2 -4.08056 9.41233 4.48476 18
241 2 1.96139 2.90117 3.65539 14
242 2 -15.9315 5.62902 -5.91726 15
243 2 -11.8182 12.4944 -6.9841 17
244 2 -11.0022 12.4674 -10.2711 14
245 2 -7.97935 -0.0460685 3.53607 13
246 2 -1.60232 15.0954 -4.4636 12
247 2 -13.5538 4.12232 -10.583 15
248 2 1.77191 7.50724 -1.0184 20
249 2 -13.7572 14.1098 -5.61073 12
250 2 4.27078 5.39894 -0.653599 11
251 2 -11.1271 -0.0950608 3.59647 14
252 2 -11.8567 1.70842 -9.05304 18
253 2 -8.00575 16.4003 -7.34026 9
254 2 -15.5851 15.0257 -3.10402 10
255 2 -6.12279 1.47905 6.34892 11
256 2 -14.3566 12.874 -1.12127 16
257 2 -6.90827 9.96944 5.65162 13
258 2 -15.1911 7.97422 -8.08265 14
259 2 -5.15725 15.7933 -5.9816 14
260 2 -9.63436 10.6658 3.70399 16
261 2 -11.8305 6.39 -12.4331 14
262 2 -9.87498 -0.453236 -5.91368 20
263 2 -1.08721 7.26637 4.3457 20
264 2 2.60771 7.92979 -4.43117 18
265 2 -1.53096 -0.710689 2.67981 14
266 2 -10.6894 7.99457 5.14048 14
267 2 -15.0968 2.72896 -8.01234 13
268 2 -12.9703 9.23994 2.28818 18
269 2 -16.343 4.28897 0.391411 14
270 2 -7.67895 -2.61112 -7.47636 13
271 2 -8.24355 14.0427 -10.1951 11
272 2 -1.94625 10.4947 -10.9203 13
273 2 -2.57733 0.128928 -9.80344 11
274 2 1.40237 5.93415 5.17624 11
275 2 0.276618 9.85148 4.74639 14
276 2 -6.21108 11.375 -9.51833 18
277 2 -10.853 3.90192 -11.6954 14
278 2 -9.81835 16.0044 0.371913 11
279 2 -11.1472 14.9414 -8.4348 12
280 2 -15.7288 9.88867 -5.91013 9
281 2 -14.6092 12.4896 2.49798 11
282 2 2.01495 3.63583 -8.94284 15
283 2 -15.7725 11.2343 -2.80749 13
284 2 -9.35314 10.7041 -12.3522 12
285 2 -0.190753 1.47341 4.66719 16
286 2 -12.6198 6.10871 4.25914 14
287 2 -13.4008 4.06265 2.04314 20
288 2 1.55645 -0.335613 3.91673 11
289 2 -15.7463 4.84781 -2.73152 16
290 2 -10.5451 5.22393 6.55447 12
291 2 -7.03897 -2.11483 1.32049 11
292 2 3.94145 7.9023 1.05658 10
293 2 -1.40817 -0.099495 -4.12813 19
294 2 -10.4404 16.7795 -2.76364 12
295 2 -12.2087 9.67289 -11.6007 15
296 2 -11.6276 2.77454 4.15005 16
297 2 -2.87981 2.64304 5.92412 14
298 2 -0.56917 7.23592 -9.25613 19
299 2 1.22386 12.0783 2.62743 13
300 2 3.51131 5.5804 2.68712 12
301 2 3.14883 2.74282 -5.50097 15
302 2 2.32009 0.577418 -4.45549 16
303 2 1.10886 9.82543 -9.06399 12
304 2 -16.0524 2.86493 -4.89588 12
305 2 2.51949 1.78029 -0.479714 12
306 2 -3.41201 13.3269 -7.80165 14
307 2 3.87859 5.89783 -6.75398 12
308 2 -0.579771 12.7453 -5.85765 14
309 2 4.35286 5.74069 -3.70493 15
310 2 1.3984 -1.16849 -2.41331 12
311 2 -10.3532 -0.619316 -9.00943 12
312 2 -4.60962 15.478 -3.09195 14
313 2 -4.14772 13.9546 3.21112 14
314 2 -8.92991 -2.84882 -1.27529 16
315 2 -7.58925 4.0416 7.12761 12
316 2 1.87256 8.10341 2.74479 15
317 2 3.19227 8.45311 -7.48516 12
318 2 -12.0141 6.97898 -9.11711 20
319 2 -12.8439 -0.821345 -4.38834 16
320 2 1.16608 -1.59354 -5.76473 10
321 1 -12.0283 4.2543 -5.76997 21
322 1 -12.9422 1.38866 -4.6015 21
323 1 -6.5868 -0.333704 -5.7521 19
324 1 -9.11553 -0.655882 -4.0873 19
325 1 -6.25402 4.12952 -9.32826 21
326 1 -9.08959 4.1691 -7.18454 20
327 1 -7.22053 2.43854 -7.20858 21
328 1 -10.4452 1.57749 -5.60381 24
329 1 -6.07517 4.49868 -5.89134 21
330 1 -9.08048 4.53568 -4.22053 22
331 1 -7.25902 1.86517 -4.04903 23
332 2 -13.4091 4.76978 -7.37443 20
333 2 -12.2032 2.26641 -6.08975 23
334 2 -12.9415 5.18411 -4.28794 22
335 2 -7.31908 -0.105902 -4.02139 20
336 2 -7.45128 4.50493 -10.8997 19
337 2 -9.97051 4.54954 -9.08767 23
338 2 -6.06026 0.752023 -7.45526 20
339 2 -9.40152 2.21012 -7.26555 22
340 2 -7.14782 4.56589 -7.61267 23
341 2 -10.3441 5.3185 -5.82835 24
342 2 -6.22042 2.66347 -5.54448 23
343 2 -9.32716 2.45792 -4.14966 23
344 2 -7.03947 4.80687 -4.01462 23
345 1 -11.9166 4.16952 -2.90804 20
346 1 -13.4302 2.1287 -1.35294 18
347 1 -12.2993 4.80212 0.392462 20
348 1 -6.03331 -0.753205 -2.54722 18
349 1 -6.3434 -0.272796 1.01783 17
350 1 -10.2128 1.93205 -2.40565 22
351 1 -6.1927 4.38891 -2.22309 22
352 1 -9.21213 4.31896 -0.817592 22
353 1 -6.93786 2.26672 -0.642695 21
354 1 -10.4756 2.08388 1.05825 21
355 1 -6.25099 5.01677 0.889872 20
356 1 -9.06917 4.30997 2.23211 21
357 1 -6.94661 2.5337 2.88811 17
358 1 -6.02863 4.9528 4.05377 20
359 2 -12.0799 2.19702 -2.83668 19
360 2 -13.0672 4.05976 -1.25799 23
361 2 -10.4927 -0.071691 -2.34125 21
362 2 -7.08713 0.0879555 -0.89033 20
363 2 -10.0588 4.68336 -2.57434 22
364 2 -6.15071 2.26152 -2.57689 21
365 2 -9.30105 1.97793 -0.749477 18
366 2 -7.34097 4.40427 -0.745594 19
367 2 -10.4934 4.18988 0.944786 19
368 2 -6.15779 2.10776 1.29485 22
369 2 -8.96153 2.4786 2.47401 17
370 2 -7.14909 4.59423 2.53306 19
371 2 -9.82446 5.45153 3.73163 21
372 1 -11.973 9.47104 -5.95981 21
373 1 -12.903 12.6311 -4.78168 19
374 1 -12.9015 7.06054 -4.05047 22
375 1 -7.42949 6.63854 -10.7823 23
376 1 -10.0824 6.43336 -9.01002 23
377 1 -6.09792 9.29527 -9.47547 23
378 1 -9.24995 9.16551 -7.76623 22
379 1 -7.10398 7.0331 -7.35266 22
380 1 -10.1235 7.15509 -5.7737 20
381 1 -6.32013 9.59353 -5.87599 22
382 1 -9.27131 9.43457 -4.59189 23
383 1 -7.16481 6.90196 -4.20076 22
384 1 -9.93052 12.2324 -6.18451 22
385 1 -7.60375 12.2964 -4.5342 21
386 2 -12.0558 7.59489 -6.02486 23
387 2 -12.9453 10.511 -4.60837 22
388 2 -6.29332 7.15979 -9.09301 20
389 2 -9.0174 7.33919 -7.57105 25
390 2 -7.42898 9.73399 -7.52021 21
391 2 -9.98889 10.2786 -6.26394 21
392 2 -6.09231 7.70591 -5.78345 21
393 2 -8.99542 7.4531 -4.09113 23
394 2 -7.4976 10.2775 -4.39341 23
395 2 -6.45826 12.5453 -6.16661 19
396 2 -9.29793 13.1542 -4.64467 17
397 1 -12.2006 10.1572 -2.85428 22
398 1 -13.2414 7.75233 -1.02899 21
399 1 -12.0939 10.2795 0.796827 21
400 1 -9.9428 6.81725 -2.62196 20
401 1 -6.26075 9.64343 -2.79697 23
402 1 -9.3409 9.82356 -1.16503 22
403 1 -7.14715 7.51605 -0.932446 22
404 1 -10.3638 7.39398 0.758835 21
405 1 -6.27329 10.3195 0.578036 20
406 1 -9.08294 9.5921 2.06416 20
407 1 -7.02072 7.62629 2.31864 22
408 1 -9.37482 7.24025 4.1364 21
409 1 -9.96602 12.3508 -2.91395 19
410 1 -7.39669 13.025 -1.12715 19
411 2 -11.8758 7.79077 -2.63688 21
412 2 -12.672 9.67399 -1.01986 20
413 2 -12.2153 6.65035 0.759412 22
414 2 -10.1816 10.3338 -3.10361 21
415 2 -6.07044 7.4266 -2.65984 23
416 2 -9.14672 7.55515 -0.620488 19
417 2 -6.94959 9.50156 -0.861468 20
418 2 -10.2142 9.74875 0.517716 20
419 2 -6.11639 6.95538 0.767638 22
420 2 -8.91195 7.74418 2.36596 19
421 2 -7.11577 9.57067 2.49954 21
422 2 -6.57521 6.93958 4.11444 18
423 2 -6.50555 12.8069 -2.93733 19
424 2 -9.16296 12.2465 -1.31733 19
425 2 -6.35232 12.3477 0.43817 21
426 1 -3.20532 -0.684603 -3.83993 17
427 1 -4.31843 0.834485 -8.43069 21
428 1 -3.27273 4.06894 -7.31444 23
429 1 -1.2947 1.25096 -7.54974 19
430 1 -4.44102 1.7356 -5.42972 22
431 1 -0.266304 4.10107 -5.99374 22
432 1 -3.18916 4.38497 -4.03779 23
433 1 -1.22676 1.78999 -4.22552 21
434 2 -4.62403 -0.367408 -5.20986 20
435 2 -4.46252 4.5692 -8.86288 22
436 2 -3.4142 2.06682 -7.13108 22
437 2 -1.33929 4.54311 -7.5977 19
438 2 -4.22589 4.94369 -5.70915 22
439 2 -0.459812 2.11175 -5.99767 21
440 2 -3.15567 2.4121 -3.91833 22
441 2 -1.31645 4.76854 -4.46594 23
442 2 1.50649 5.09579 -5.93721 21
443 1 -4.24696 1.78061 -2.31614 24
444 1 -0.59008 4.22216 -2.60432 20
445 1 -3.23911 4.35994 -1.2073 21
446 1 -1.33863 1.93994 -0.620804 22
447 1 -4.13287 2.22467 1.19295 20
448 1 -0.568662 4.75454 0.428399 22
449 1 -3.34527 4.86861 2.32075 22
450 1 -0.879983 2.26693 2.8968 21
451 2 -3.71282 -0.268944 -2.02538 16
452 2 -4.28386 -0.248528 1.1716 14
453 2 -4.52738 5.14191 -2.75366 21
454 2 -0.454035 2.28983 -2.26132 24
455 2 -3.33163 2.28219 -0.592112 22
456 2 -1.55143 5.27171 -1.31682 21
457 2 -4.20277 4.71802 0.533991 22
458 2 -0.126434 2.00799 1.1661 20
459 2 -2.82772 2.04228 2.68817 20
460 2 -1.27563 4.57382 2.39497 19
461 2 -4.58282 4.03317 3.2779 18
462 2 1.2121 4.7221 -2.88665 21
463 1 -4.26883 6.7794 -9.29739 20
464 1 -2.84753 9.19392 -7.94645 19
465 1 -1.32167 6.55892 -7.58204 22
466 1 -4.17922 6.94696 -6.0365 24
467 1 -0.590083 9.75772 -6.10401 23
468 1 -3.4398 9.59402 -4.28812 23
469 1 -1.28889 7.04258 -4.40871 24
470 1 -4.65036 12.1718 -6.39202 22
471 1 1.71078 7.11535 -6.13868 22
472 2 -4.20777 8.91418 -9.44997 18
473 2 -3.157 7.33505 -7.60359 22
474 2 -1.54264 10.3392 -7.58119 19
475 2 -4.41 10.3307 -5.81517 24
476 2 -0.284397 7.8009 -6.34012 25
477 2 -3.15416 7.72388 -4.51566 24
478 2 -1.46707 10.5419 -4.29152 23
479 2 -3.66008 13.1246 -4.68751 21
480 1 -4.20234 7.02642 -2.65575 24
481 1 -0.741793 9.82962 -2.5937 23
482 1 -3.51264 9.69327 -1.06442 23
483 1 -1.44461 7.33525 -1.04233 21
484 1 -4.22378 7.52349 0.600488 22
485 1 -1.28842 10.7396 0.617305 23
486 1 -3.70856 10.0261 2.38342 16
487 1 -1.74983 7.53671 2.46375 22
488 1 -4.6314 7.28249 4.35318 20
489 1 -4.45369 12.4926 -2.94707 23
490 1 -4.35692 12.7434 0.59514 20
491 1 1.3699 7.17858 -2.77383 21
492 2 -4.36671 10.325 -2.73333 22
493 2 -0.521784 7.88088 -3.01489 22
494 2 -3.21702 7.83353 -1.15978 25
495 2 -1.68299 10.4405 -1.22408 22
496 2 -4.33229 9.83127 0.687615 21
497 2 -0.865792 7.03381 0.841308 19
498 2 -3.77576 7.58486 2.59754 22
499 2 -1.8253 9.64243 2.05971 23
500 2 -3.64825 13.2971 -1.29204 21
