ITEM: TIMESTEP
54000
ITEM: NUMBER OF ATOMS
500
ITEM: BOX BOUNDS pp pp pp
-30.0 30.0
-30.0 30.0
-30.0 30.0
ITEM: ATOMS id type x y z Coordination
1 1 -12.1241 18.2728 -0.755782 11
2 1 -16.1907 22.397 -0.945023 15
3 1 -21.3445 15.1251 -17.3033 19
4 1 -28.0278 19.369 -13.0308 14
5 1 -16.979 21.8527 -20.4966 11
6 1 -9.73858 11.2308 -13.6619 5
7 1 -14.5012 17.2783 -2.15672 20
8 1 -13.7849 24.1813 -1.50024 13
9 1 -27.533 16.6546 -7.84529 16
10 1 -9.79075 16.5933 -10.3588 23
11 1 -10.0432 20.3203 -2.47571 12
12 1 -24.9947 11.7472 -5.73376 14
13 1 -19.3513 12.5931 -17.2431 13
14 1 -9.75939 16.2557 -13.1894 19
15 1 -10.3443 11.2688 -6.37458 11
16 1 -21.6045 26.954 -3.71664 11
17 1 -18.1427 27.3612 -8.95176 16
18 1 -18.4809 16.3853 -18.9256 13
19 1 -19.0587 22.5587 -2.71753 22
20 1 -22.5032 24.9097 -6.22197 19
21 1 -16.361 20.6146 -17.646 21
22 1 -23.444 28.6614 -13.4932 12
23 1 -23.9045 23.1914 -15.1349 15
24 1 -21.8643 27.2929 -11.5524 18
25 1 -27.1197 21.8593 -11.6567 15
26 1 -17.3054 24.8322 -2.80185 16
27 1 -22.8428 23.1868 -18.2821 13
28 1 -24.4952 11.0479 -2.35345 11
29 1 -12.6803 11.3351 -11.9749 13
30 1 -27.6389 16.4677 -14.119 14
31 1 -19.5224 9.05613 -7.0917 11
32 1 -13.2352 21.6468 -16.105 17
33 1 -24.5645 15.5714 -16.0342 16
34 1 -18.5085 23.0556 -17.779 19
35 1 -19.1343 28.7148 -11.8228 11
36 1 -27.2333 17.2643 -4.14134 13
37 1 -18.009 27.7005 -4.44187 12
38 1 -14.3663 17.5153 1.02469 13
39 1 -15.4496 10.0276 -12.6728 15
40 1 -9.68696 16.8067 -16.4151 10
41 1 -13.7745 14.702 -0.185965 11
42 1 -16.63 13.8169 -1.82993 18
43 1 -15.6171 24.2199 -12.7802 18
44 1 -27.5394 12.0451 -3.71084 9
45 1 -21.5739 9.03459 -9.0542 16
46 1 -22.7314 15.4651 -0.232584 13
47 1 -26.4812 20.8913 -3.77765 13
48 1 -12.8976 11.1196 -8.50969 16
49 1 -25.713 14.3023 -4.10614 18
50 1 -23.6261 27.5344 -7.23367 15
51 1 -25.5041 24.0885 -4.20886 13
52 1 -20.7805 24.9875 -1.28662 12
53 1 -25.5372 13.8754 -13.8837 15
54 1 -23.5656 15.4233 -19.2689 8
55 1 -14.372 20.202 -0.408011 14
56 1 -20.0998 14.6891 -1.11819 16
57 1 -24.79 18.3348 -18.077 17
58 1 -27.5579 16.6643 -10.8747 18
59 1 -23.3021 10.4132 -11.6483 17
60 1 -23.374 24.9345 -1.36719 10
61 1 -18.2745 10.206 -14.8376 15
62 1 -19.4718 25.2709 -4.57071 21
63 1 -27.2958 19.5521 -16.6091 14
64 1 -26.8115 27.2599 -11.2222 11
65 1 -21.4484 11.0337 -16.9259 9
66 1 -13.5715 12.2465 -2.18101 14
67 1 -26.7571 22.189 -14.857 12
68 1 -22.8627 18.2983 -0.0495714 13
69 1 -24.3749 22.4575 -2.22709 14
70 1 -20.3799 27.9151 -14.7401 10
71 1 -18.6856 11.5226 -1.84249 13
72 1 -14.6369 10.9051 -15.2777 10
73 1 -12.6569 16.4451 -18.5552 9
74 1 -10.9703 13.7937 -2.48652 9
75 1 -23.5629 9.82345 -14.5499 10
76 1 -24.4916 16.7733 -2.29148 17
77 1 -8.07664 19.0374 -5.40483 11
78 1 -12.3643 24.4549 -12.0701 14
79 1 -20.6908 22.8715 -19.8081 11
80 1 -20.3307 25.0745 -16.6573 14
81 1 -15.2155 27.8412 -8.17257 15
82 1 -13.5715 19.5308 -17.5099 16
83 1 -15.7741 10.8547 -6.63276 14
84 1 -10.6942 14.2851 -8.58864 20
85 1 -17.7789 8.51389 -10.3995 11
86 1 -26.418 21.3554 -18.6177 9
87 1 -7.0816 17.2864 -11.4699 12
88 1 -25.0217 26.0968 -13.6925 12
89 1 -13.5465 13.6915 -16.7029 12
90 1 -25.7164 13.8986 -0.82644 10
91 1 -20.7539 8.56691 -12.1926 14
92 1 -15.2516 16.6402 -17.0226 18
93 1 -13.1838 11.5092 -5.38026 18
94 1 -22.4495 13.038 -15.2776 18
95 1 -17.2097 19.4654 0.946788 12
96 1 -19.9551 19.8328 -0.979996 19
97 1 -12.1534 16.0639 -15.1052 19
98 1 -13.6376 23.9194 -15.1485 14
99 1 -8.2513 18.9629 -14.3691 11
100 1 -23.6482 20.6767 -20.0347 12
101 1 -26.8184 22.1181 -6.95654 13
102 1 -17.041 16.127 0.0761036 15
103 1 -24.4219 20.6839 -16.3156 24
104 1 -11.1566 14.5097 -5.3252 17
105 1 -10.3228 23.888 -2.49006 10
106 1 -15.8205 10.5894 -3.40735 13
107 1 -10.356 22.1496 -7.393 18
108 1 -9.62337 25.0228 -5.43006 11
109 1 -12.1125 26.4058 -3.29984 11
110 1 -23.0211 26.2376 -16.0404 13
111 1 -26.3882 10.8323 -12.0839 9
112 1 -27.9637 24.6056 -9.16106 12
113 1 -12.9883 26.8666 -9.62438 11
114 1 -12.6855 22.1385 -2.78934 16
115 1 -18.8576 20.0087 -19.2307 19
116 1 -12.6375 26.9386 -6.11452 14
117 1 -10.6228 13.8548 -15.6864 13
118 1 -12.1078 9.96611 -3.3183 7
119 1 -21.8518 21.8148 -0.688933 12
120 1 -10.8731 19.6418 -6.03381 22
121 1 -19.1559 23.6984 -14.5361 21
122 1 -10.4578 21.8469 -13.8084 14
123 1 -19.8537 17.1602 1.01845 12
124 1 -22.504 12.0996 -0.463377 9
125 1 -25.5457 24.8688 -7.23324 18
126 1 -14.0467 24.6987 -7.80324 21
127 1 -28.4458 14.9715 -6.14297 10
128 1 -10.1307 16.7605 -7.03827 22
129 1 -21.244 11.6166 -6.65817 22
130 1 -9.65051 21.9639 -4.60759 14
131 1 -9.43577 11.2192 -9.01331 9
132 1 -14.5961 28.5652 -4.83785 9
133 1 -28.1616 13.7764 -12.8745 10
134 1 -16.7566 25.0328 -15.8465 13
135 1 -25.1881 18.5749 -14.3794 23
136 1 -15.9884 18.4644 -19.2492 13
137 1 -20.7901 10.8765 -13.6731 19
138 1 -7.9623 14.2258 -10.1508 11
139 1 -28.4801 19.6119 -9.46511 12
140 1 -21.5279 20.9517 -17.7606 22
141 1 -24.1072 11.3496 -8.59843 18
142 1 -10.3537 17.0519 -3.36613 15
143 1 -21.6618 18.0196 -19.2805 17
144 1 -26.7516 27.58 -8.44899 11
145 1 -26.0888 19.2514 -1.67208 10
146 1 -11.0 24.8472 -8.57636 14
147 1 -8.51289 19.4187 -9.0904 15
148 1 -21.4197 11.6883 -3.58775 14
149 1 -10.8104 20.0048 -15.7554 12
150 1 -15.1389 23.4348 -17.8795 12
151 1 -15.0467 25.6886 -4.23541 19
152 1 -16.0538 27.4322 -11.3043 13
153 1 -10.4709 22.0142 -10.5929 18
154 1 -10.4347 13.6727 -11.7381 20
155 1 -20.3994 28.0925 -6.0565 12
156 1 -21.1294 28.9141 -8.93355 12
157 1 -22.9824 9.48386 -6.139 11
158 1 -7.30591 16.6173 -8.24569 12
159 1 -28.7259 13.6055 -9.2587 8
160 1 -24.1911 28.825 -10.0669 12
161 2 -27.092 19.1758 -3.59094 10
162 2 -11.3863 21.5647 -5.74224 18
163 2 -25.1153 21.6286 -14.1956 18
164 2 -22.5979 10.92 -2.22576 10
165 2 -14.3556 22.1357 -0.738673 12
166 2 -22.1482 23.7872 -0.55441 11
167 2 -9.54744 12.3604 -14.9537 6
168 2 -21.5078 19.155 -17.3298 23
169 2 -16.8493 16.8513 -18.6388 16
170 2 -21.5624 24.2883 -4.57836 23
171 2 -11.9334 15.8877 -6.24852 20
172 2 -12.4764 25.8744 -7.88483 15
173 2 -19.8661 27.3147 -4.38208 14
174 2 -13.5881 27.1316 -4.09393 12
175 2 -15.1911 24.2057 -16.1451 14
176 2 -11.2761 16.5445 -17.2589 15
177 2 -26.5651 19.4397 -18.3786 11
178 2 -16.6067 11.6531 -2.12199 11
179 2 -27.547 20.5072 -8.03852 14
180 2 -12.5146 14.1209 -15.1304 19
181 2 -21.9532 9.1599 -10.8093 15
182 2 -12.1804 24.4922 -2.2919 12
183 2 -13.5447 16.528 -0.53388 15
184 2 -25.6548 11.2036 -3.8952 12
185 2 -18.8437 9.09261 -8.87257 16
186 2 -27.533 13.7961 -4.94179 13
187 2 -19.0599 9.20149 -11.6028 17
188 2 -24.803 10.236 -13.0473 11
189 2 -25.348 26.7561 -7.57307 15
190 2 -11.423 22.6564 -12.2602 16
191 2 -15.5267 18.8428 -17.0104 19
192 2 -19.7246 27.7562 -8.00587 15
193 2 -22.1385 26.1266 -2.1695 10
194 2 -20.6937 28.4887 -10.6699 14
195 2 -19.1249 27.3779 -13.186 14
196 2 -19.2887 24.7207 -2.52332 17
197 2 -16.2105 17.7432 0.957005 15
198 2 -13.7864 15.5526 -17.2672 16
199 2 -16.3222 10.2784 -14.8311 11
200 2 -26.636 12.549 -12.387 10
201 2 -6.62318 15.485 -10.6484 9
202 2 -10.0265 24.1336 -7.11657 11
203 2 -18.8714 22.2288 -20.2697 11
204 2 -17.0953 19.8905 -19.5753 15
205 2 -21.3175 12.9263 -17.0749 13
206 2 -18.4604 13.844 -15.5785 16
207 2 -9.33166 18.5892 -15.9089 11
208 2 -19.5103 18.1096 -18.8647 15
209 2 -19.4005 10.8286 -16.2039 11
210 2 -19.4202 21.2857 -17.6666 23
211 2 -24.1912 10.5958 -6.95741 13
212 2 -24.3406 24.6709 -5.58617 17
213 2 -26.9865 12.9949 -2.18499 8
214 2 -27.3694 19.7461 -11.0927 17
215 2 -11.2904 10.45 -5.02015 10
216 2 -16.4852 28.4676 -4.83196 10
217 2 -18.9933 19.0741 0.466748 15
218 2 -25.8916 22.3009 -4.95009 16
219 2 -27.2822 18.6567 -14.9268 15
220 2 -11.0819 22.9421 -9.15247 18
221 2 -28.3349 14.8274 -7.9068 10
222 2 -22.5627 21.8248 -16.3245 21
223 2 -13.9395 17.8552 -18.7646 12
224 2 -24.3484 24.5414 -9.26676 21
225 2 -13.8012 11.2667 -13.5 14
226 2 -16.0307 9.02421 -11.0955 12
227 2 -25.971 28.4825 -9.86673 9
228 2 -13.9984 11.4386 -6.99022 18
229 2 -11.1978 26.2597 -4.94516 13
230 2 -23.5702 28.4334 -11.6938 13
231 2 -21.6841 13.7439 -0.582893 13
232 2 -20.7147 23.8842 -18.1114 14
233 2 -16.4325 20.4259 -0.548546 16
234 2 -12.0635 25.4176 -10.4007 12
235 2 -14.6788 25.1226 -6.17307 18
236 2 -24.5858 13.6752 -5.5655 18
237 2 -15.4411 24.5335 -2.3583 15
238 2 -13.1452 19.095 0.611715 10
239 2 -16.7633 22.8056 -18.7755 13
240 2 -16.9947 22.7462 -2.77825 19
241 2 -10.7945 15.3084 -3.55881 13
242 2 -28.3438 17.2417 -12.5206 14
243 2 -23.4636 24.8477 -14.1781 17
244 2 -23.7185 24.3363 -16.9419 13
245 2 -19.5133 11.175 -3.43472 14
246 2 -14.6036 27.5531 -10.1804 12
247 2 -24.4932 16.1864 -17.8326 13
248 2 -10.0186 19.8298 -7.80977 18
249 2 -25.7356 26.0634 -12.0913 13
250 2 -8.8581 15.4585 -8.53512 17
251 2 -24.4777 12.3055 -0.584073 9
252 2 -24.1395 13.9046 -15.2723 15
253 2 -21.6078 28.7092 -13.502 10
254 2 -27.6274 26.2331 -9.66914 11
255 2 -18.7758 13.6443 -2.18218 17
256 2 -27.2042 24.0265 -7.5418 16
257 2 -20.0328 21.8071 -1.23991 16
258 2 -26.3787 21.4675 -16.5738 15
259 2 -17.6472 28.1664 -10.6182 14
260 2 -22.7356 21.4985 -2.54623 21
261 2 -23.4226 18.9136 -19.4419 15
262 2 -21.8349 11.6948 -12.2431 22
263 2 -14.3842 19.127 -2.09099 20
264 2 -10.0464 20.0501 -10.5645 16
265 2 -13.9406 10.7933 -3.49126 12
266 2 -21.6767 19.7602 -0.336297 13
267 2 -27.284 14.638 -14.2643 12
268 2 -25.7492 20.9696 -2.05146 10
269 2 -27.7729 16.7666 -5.88713 13
270 2 -21.9216 9.30691 -13.4711 12
271 2 -21.0316 26.6873 -15.9167 13
272 2 -14.4838 21.3848 -17.5025 17
273 2 -14.8422 13.1033 -15.6572 13
274 2 -10.8095 18.4763 -2.16843 13
275 2 -10.7834 22.0641 -2.8362 12
276 2 -18.5801 24.5147 -16.2483 16
277 2 -21.8913 16.0353 -19.0206 14
278 2 -21.9071 26.939 -5.779 16
279 2 -23.8227 27.2618 -14.5982 12
280 2 -27.7842 21.4439 -13.5378 12
281 2 -24.8083 24.3271 -2.31043 10
282 2 -10.1695 15.5486 -14.9341 16
283 2 -27.4668 23.4694 -10.7436 12
284 2 -21.9867 21.5717 -19.6349 13
285 2 -13.1089 13.9973 -1.81378 14
286 2 -24.3438 18.7151 -1.20595 16
287 2 -25.4 16.3947 -3.82339 18
288 2 -11.7594 11.9401 -2.42978 11
289 2 -28.0604 17.7154 -9.27114 15
290 2 -21.609 16.9667 0.423809 14
291 2 -22.3462 10.9818 -5.22556 19
292 2 -7.70826 17.9483 -7.05051 11
293 2 -13.5286 11.473 -10.2564 18
294 2 -22.9634 28.6396 -8.42452 13
295 2 -24.3687 21.5103 -18.2414 16
296 2 -24.6877 15.3109 -1.03448 13
297 2 -15.547 14.7699 -0.358849 15
298 2 -12.5699 19.7791 -16.1968 17
299 2 -9.26492 23.9326 -4.02226 11
300 2 -9.56992 17.5465 -5.25435 17
301 2 -9.12255 15.0929 -11.6623 16
302 2 -9.21618 12.844 -9.9018 12
303 2 -11.3619 21.9951 -15.4075 12
304 2 -28.2418 14.1543 -11.0062 13
305 2 -10.4454 13.1578 -6.97125 16
306 2 -17.189 24.625 -13.963 17
307 2 -8.08919 17.5908 -13.1373 13
308 2 -13.7922 24.4121 -13.2381 14
309 2 -8.01287 17.7873 -10.0485 18
310 2 -11.1238 10.8062 -8.14216 10
311 2 -22.3423 11.0399 -15.3868 13
312 2 -14.1788 28.0072 -6.65766 13
313 2 -17.205 25.4975 -4.52544 18
314 2 -21.4349 8.75746 -7.14755 11
315 2 -18.9592 16.066 -0.395863 17
316 2 -9.01531 20.1518 -4.3256 14
317 2 -9.91085 19.9465 -13.7163 16
318 2 -24.2438 18.9035 -16.1087 22
319 2 -24.8987 11.0934 -10.5694 14
320 2 -11.0327 11.9156 -12.4111 14
321 1 -24.4296 16.2529 -12.8889 20
322 1 -25.3542 13.3313 -10.9106 19
323 1 -18.3759 10.9352 -11.5761 21
324 1 -21.1606 11.6719 -10.2049 22
325 1 -18.6185 15.9089 -15.4415 22
326 1 -21.7335 16.1361 -13.9936 21
327 1 -19.2989 13.3049 -13.7624 21
328 1 -22.4692 13.6783 -12.0602 20
329 1 -18.4868 16.1793 -12.2696 22
330 1 -21.9186 16.3463 -10.5445 20
331 1 -19.2583 13.7891 -10.5169 22
332 2 -25.467 16.4889 -14.4823 18
333 2 -24.2078 14.2523 -12.069 21
334 2 -25.5288 16.698 -11.0102 21
335 2 -19.3036 11.9005 -10.1224 26
336 2 -19.4835 15.8911 -17.3181 16
337 2 -22.0634 16.1592 -15.9029 23
338 2 -18.8234 11.4435 -13.5111 20
339 2 -21.177 13.6546 -13.5657 21
340 2 -19.6921 16.6931 -14.1055 21
341 2 -22.6017 16.6774 -12.3383 21
342 2 -18.3841 14.2023 -12.1438 22
343 2 -21.4023 13.8597 -10.394 18
344 2 -19.2155 17.0206 -10.7372 20
345 1 -24.7383 16.6233 -9.00259 21
346 1 -24.9467 14.2334 -7.34283 19
347 1 -24.4834 16.8834 -5.62416 19
348 1 -18.2856 10.9506 -8.51932 21
349 1 -18.5117 11.851 -5.10206 21
350 1 -22.3336 14.1217 -8.77637 22
351 1 -18.6297 16.6994 -8.8753 20
352 1 -21.5785 16.8846 -7.34975 22
353 1 -19.6142 14.495 -7.13821 22
354 1 -22.4777 14.2864 -5.46042 21
355 1 -18.653 17.1135 -5.71122 19
356 1 -21.5917 17.0359 -3.83365 20
357 1 -19.2618 14.4007 -4.0526 20
358 1 -19.0596 17.2901 -2.09611 19
359 2 -24.1944 13.4238 -9.03085 17
360 2 -25.3884 16.2244 -7.17602 22
361 2 -22.0133 10.8945 -8.60075 21
362 2 -18.9643 10.9148 -6.70968 19
363 2 -22.6405 16.1145 -8.68383 19
364 2 -18.5345 14.347 -8.6003 21
365 2 -21.3675 13.7638 -7.06335 22
366 2 -19.6773 16.3998 -7.15306 22
367 2 -22.5781 16.5341 -5.49931 21
368 2 -18.4029 13.7305 -5.60291 18
369 2 -21.2666 13.4424 -4.13043 20
370 2 -19.5232 16.7635 -3.96871 22
371 2 -22.3527 16.362 -2.09543 19
372 1 -24.1762 21.292 -12.7016 21
373 1 -25.3641 24.3503 -11.0483 17
374 1 -25.4102 19.2138 -10.9958 21
375 1 -19.9434 17.9369 -16.8469 22
376 1 -22.4749 18.2304 -15.8578 25
377 1 -18.829 20.7707 -15.9817 22
378 1 -21.6128 21.2175 -14.5181 23
379 1 -19.7678 18.6189 -13.8746 23
380 1 -22.6912 18.8096 -12.4331 20
381 1 -18.658 21.7338 -12.6272 22
382 1 -21.7978 21.6611 -11.0849 22
383 1 -19.7149 19.2112 -10.9184 21
384 1 -22.0099 24.1886 -12.8888 18
385 1 -19.8942 24.391 -10.8782 21
386 2 -24.4487 19.398 -12.6791 24
387 2 -25.0552 22.0849 -11.1819 17
388 2 -18.6048 18.8423 -15.7442 23
389 2 -21.6319 19.0841 -14.1631 23
390 2 -19.8035 21.8567 -14.4794 23
391 2 -22.1213 22.2071 -12.9675 21
392 2 -18.7612 19.839 -12.4682 25
393 2 -21.8749 19.5655 -10.8014 19
394 2 -19.8712 22.1359 -10.8161 22
395 2 -19.9433 24.3153 -12.8969 21
396 2 -21.7462 25.1253 -10.9486 17
397 1 -24.374 22.3672 -9.23544 22
398 1 -25.4251 19.4728 -7.62649 21
399 1 -24.2011 22.5724 -6.03914 22
400 1 -22.7576 19.7304 -9.1535 24
401 1 -18.9026 21.7906 -9.22652 23
402 1 -21.6192 22.3723 -7.62972 23
403 1 -19.8084 19.6332 -7.37046 22
404 1 -22.7283 19.557 -5.85908 20
405 1 -18.8015 22.2274 -5.84322 24
406 1 -21.815 22.3305 -4.18985 22
407 1 -20.1259 19.5925 -4.21989 23
408 1 -23.1252 19.5918 -2.66096 19
409 1 -22.7305 25.1336 -9.26112 16
410 1 -19.9045 24.9183 -8.082 22
411 2 -24.6842 18.752 -9.32289 23
412 2 -24.9579 21.8268 -7.64241 18
413 2 -24.5352 18.7454 -6.09222 22
414 2 -22.2482 21.7405 -9.19116 23
415 2 -18.9572 19.568 -9.20811 23
416 2 -21.6423 19.3703 -7.28654 19
417 2 -19.6916 21.6731 -7.48025 23
418 2 -22.5226 21.5781 -5.8763 24
419 2 -19.0558 18.9264 -5.85112 21
420 2 -22.0038 18.9889 -4.09183 23
421 2 -19.8434 21.6328 -4.40407 24
422 2 -18.9124 19.1219 -2.3899 20
423 2 -18.6657 25.2501 -9.58846 19
424 2 -21.67 24.3229 -8.01558 22
425 2 -19.0833 24.2294 -6.22828 22
426 1 -15.5337 10.9621 -9.9402 19
427 1 -16.493 13.7918 -15.1765 18
428 1 -15.4931 16.3378 -13.7861 23
429 1 -13.7116 13.4261 -13.7264 21
430 1 -16.3147 13.5843 -11.8428 22
431 1 -12.6633 16.452 -12.0592 24
432 1 -15.8337 16.5515 -10.4925 23
433 1 -13.5405 14.3438 -10.5981 20
434 2 -16.2525 11.5734 -11.6726 22
435 2 -16.65 16.3198 -15.4779 20
436 2 -15.3243 14.3396 -13.2816 20
437 2 -13.3828 16.6745 -13.8838 21
438 2 -16.6682 17.1079 -12.1933 25
439 2 -12.1066 14.5356 -11.7629 22
440 2 -15.5326 14.4986 -10.3037 24
441 2 -13.7915 16.8476 -10.4213 22
442 2 -10.8726 17.2566 -12.1631 23
443 1 -16.4777 13.6416 -8.70861 24
444 1 -12.7154 16.602 -8.88373 22
445 1 -15.8028 16.4496 -7.40454 23
446 1 -13.5422 14.5977 -6.91199 20
447 1 -16.5118 13.6724 -5.63752 22
448 1 -13.4154 17.3408 -5.59447 21
449 1 -16.0798 16.7739 -3.98216 20
450 1 -13.8351 14.8311 -3.54943 22
451 2 -16.2811 11.6682 -8.37761 20
452 2 -16.4992 11.6177 -5.07787 17
453 2 -16.8279 17.0889 -8.96929 23
454 2 -12.6788 14.5641 -8.86551 24
455 2 -15.3889 14.4345 -7.12877 24
456 2 -14.0711 17.358 -7.46904 21
457 2 -16.573 17.3753 -5.73057 22
458 2 -13.0076 13.6797 -5.16387 21
459 2 -16.0544 14.5231 -3.77884 20
460 2 -14.0577 16.8325 -3.89466 21
461 2 -16.695 17.2209 -2.13056 22
462 2 -10.9723 17.3596 -8.89816 24
463 1 -16.5542 18.7078 -15.2852 20
464 1 -15.9623 21.2742 -14.2054 25
465 1 -13.6247 18.8613 -13.8673 22
466 1 -16.8703 19.008 -12.3607 21
467 1 -13.2678 21.665 -12.6212 21
468 1 -16.0294 21.6854 -10.7064 22
469 1 -14.0397 19.146 -10.6326 24
470 1 -18.1185 25.8516 -12.8426 16
471 1 -10.8893 19.1138 -12.2287 21
472 2 -17.0251 21.2423 -15.8477 23
473 2 -15.4596 19.3809 -14.0025 22
474 2 -14.1535 22.0819 -14.2551 21
475 2 -16.6359 22.1611 -12.514 22
476 2 -12.8109 19.6154 -12.2958 20
477 2 -16.2054 19.66 -10.6559 23
478 2 -14.072 22.3237 -11.0204 22
479 2 -16.4421 25.4522 -11.5093 18
480 1 -17.0845 19.0846 -8.98053 25
481 1 -13.2695 22.3031 -9.22196 20
482 1 -16.1454 22.0551 -7.56714 23
483 1 -14.2218 19.2582 -7.56851 23
484 1 -17.07 19.32 -5.73791 24
485 1 -13.1735 22.2044 -5.9695 21
486 1 -15.9566 22.1516 -4.2445 23
487 1 -14.0751 19.6991 -4.12166 20
488 1 -16.9053 19.4711 -2.3731 21
489 1 -16.764 24.7523 -9.58254 21
490 1 -17.1034 24.9826 -6.36676 21
491 1 -11.3929 19.4654 -9.21731 22
492 2 -16.9095 22.6547 -9.26551 24
493 2 -13.2984 20.1833 -8.90585 25
494 2 -16.0767 19.9855 -7.34036 25
495 2 -14.2532 22.7348 -7.63835 21
496 2 -16.5563 22.9285 -5.87726 21
497 2 -12.6065 18.97 -5.47102 19
498 2 -16.5217 20.1566 -4.09871 21
499 2 -13.9004 21.5871 -4.37168 19
500 2 -16.6024 26.265 -8.13262 19
