ITEM: TIMESTEP
22000
ITEM: NUMBER OF ATOMS
2000
ITEM: BOX BOUNDS pp pp pp
-30.0 30.0
-30.0 30.0
-30.0 30.0
ITEM: ATOMS id type x y z Coordination
1 1 -11.5059 5.46377 -15.4402 11
2 1 -3.93654 -5.33867 -10.2862 22
3 1 3.91625 13.8795 15.2391 11
4 1 5.61471 -7.00008 8.06719 18
5 1 -8.48937 11.9841 -3.05819 20
6 1 13.3792 -7.05797 -9.81747 12
7 1 -11.9052 9.95955 -7.51796 13
8 1 -0.292801 -6.78322 11.0805 21
9 1 -10.1965 0.509892 -10.8176 20
10 1 -14.0504 -6.02962 9.86662 11
11 1 12.9614 1.82238 -10.5004 16
12 1 -5.53864 -11.5904 1.77326 19
13 1 -12.4401 -4.59289 0.294773 19
14 1 -0.354654 6.36583 15.6979 15
15 1 6.5468 -3.30364 3.39204 20
16 1 -0.635648 4.64393 8.75294 20
17 1 -3.15849 12.5567 -13.7963 20
18 1 1.38119 2.37751 8.83088 18
19 1 -7.23614 4.53773 -19.5375 12
20 1 -9.77708 -2.13762 10.6463 14
21 1 14.2282 7.83977 3.79861 16
22 1 -0.479693 12.6058 -14.5765 18
23 1 1.94423 5.31155 -15.34 21
24 1 13.1497 2.93256 11.397 13
25 1 -9.28139 -0.76002 0.83881 21
26 1 -9.64599 10.7885 -9.83093 15
27 1 -3.93371 -1.8747 -9.15825 19
28 1 -9.71988 7.85381 6.62607 17
29 1 8.76548 -9.66355 6.66467 11
30 1 2.54082 -0.880632 7.57445 19
31 1 -2.0799 -10.1961 -11.1581 19
32 1 8.64648 -8.08298 -1.59858 14
33 1 -6.22125 -11.8033 -5.85728 16
34 1 -13.1113 -3.58901 11.5515 13
35 1 1.15268 -2.9235 -17.8554 14
36 1 10.6553 -5.41644 -14.4513 11
37 1 -4.52908 4.43962 -17.5389 19
38 1 -1.36467 2.91649 10.9329 20
39 1 -1.61996 -10.7056 8.75545 18
40 1 5.00564 -3.27214 11.0443 15
41 1 -16.0333 0.523139 5.94638 13
42 1 -13.3721 1.32238 7.79958 17
43 1 -6.88907 2.33415 -6.15218 20
44 1 -3.91774 15.4009 -2.64306 18
45 1 -2.32476 -9.94545 -14.2437 11
46 1 -1.39008 2.16353 -9.23077 22
47 1 3.51649 -2.69779 -13.8366 20
48 1 -1.47528 -3.97843 10.9741 20
49 1 -12.9275 3.99694 -1.06273 15
50 1 5.8024 10.6289 -14.5894 15
51 1 1.61975 17.4807 5.60221 15
52 1 -7.85398 10.9409 -6.45932 17
53 1 -0.0441563 16.537 -3.02402 19
54 1 5.8976 -10.7998 6.58226 15
55 1 6.50824 -5.4312 -6.41813 21
56 1 6.53896 -1.44557 -17.7635 16
57 1 -6.50306 9.84425 6.32819 20
58 1 -14.833 0.963556 -8.08953 12
59 1 7.11331 3.20037 5.44975 20
60 1 -8.40525 7.27424 -5.59228 20
61 1 -6.94595 -9.55373 3.80133 19
62 1 1.45227 16.611 10.1224 18
63 1 -13.1161 8.10225 -5.65549 20
64 1 -5.65306 13.9995 9.90798 9
65 1 -0.0959593 7.18303 -7.46063 20
66 1 -5.3714 -14.278 6.20783 13
67 1 0.835246 8.42274 5.8823 21
68 1 3.33055 -13.6895 -2.39413 17
69 1 3.58174 12.6607 12.8034 21
70 1 -12.9284 5.03587 -10.757 15
71 1 -11.1023 10.9789 -12.8623 11
72 1 3.3981 8.59257 10.9935 23
73 1 9.95543 -0.521888 -7.72925 21
74 1 6.75431 -12.1551 2.13023 16
75 1 -16.6215 1.36646 9.59703 7
76 1 0.58718 18.1966 2.16447 15
77 1 3.84803 -2.83625 13.8403 13
78 1 -9.27759 -9.17478 5.62663 21
79 1 -9.10366 -0.269587 -2.6142 19
80 1 10.6613 -1.06479 6.12908 17
81 1 6.1908 -3.58441 -3.95547 22
82 1 -1.54626 15.545 10.1279 17
83 1 6.85775 2.49332 10.4185 19
84 1 -6.78218 -3.24198 1.08269 20
85 1 -6.71225 -5.82548 -11.467 18
86 1 -12.8299 9.90184 5.90496 12
87 1 -7.17677 10.0333 -4.19045 22
88 1 -5.69377 10.3091 -8.70062 19
89 1 3.82127 -0.768277 -7.69848 22
90 1 7.71264 11.9567 -10.5153 16
91 1 10.3722 -6.97675 1.53436 12
92 1 3.69997 -6.42606 10.1388 16
93 1 -5.4568 13.2554 -6.67387 19
94 1 -10.5918 15.2291 3.0399 13
95 1 -6.84389 -5.63241 15.7134 7
96 1 -5.37452 7.87735 2.46493 18
97 1 -2.73496 -9.45052 12.1517 15
98 1 13.6458 -5.69894 -6.75897 13
99 1 -10.7843 7.96475 3.82678 19
100 1 -12.1586 -10.9452 0.651107 11
101 1 11.9149 -8.57634 -7.57281 15
102 1 4.46807 1.64134 -9.48206 20
103 1 -8.51042 2.38592 -16.0353 17
104 1 -0.493437 12.2476 0.534991 21
105 1 -5.26005 10.7048 -12.3478 18
106 1 3.86652 11.1273 15.8643 11
107 1 0.664606 14.2925 -9.0092 20
108 1 -12.3243 12.8232 -2.2827 16
109 1 1.45072 9.8143 0.783871 24
110 1 -6.12872 -10.6345 12.767 17
111 1 15.8798 2.50912 8.60995 12
112 1 -1.27051 -3.6834 -9.42607 23
113 1 3.74236 -6.1249 -7.68792 23
114 1 -0.786219 5.10026 5.55243 21
115 1 1.93145 2.16169 15.7925 15
116 1 -8.91184 -5.06749 -4.15244 21
117 1 5.04981 -6.85008 3.00466 18
118 1 -9.36916 -8.54708 -4.38615 19
119 1 10.7805 -9.36969 -4.39845 12
120 1 -1.88687 8.07155 4.44379 20
121 1 6.86765 9.28887 -12.2895 20
122 1 6.8363 19.7899 -7.27532 8
123 1 -8.49927 -13.0427 12.4921 12
124 1 -12.6931 -12.3589 7.89302 10
125 1 7.05939 -5.0357 -17.9325 13
126 1 3.99817 5.10191 -4.14677 22
127 1 13.3042 -7.00252 -3.39916 10
128 1 -1.40314 -16.8689 6.60834 10
129 1 -9.58986 -12.5186 -1.43679 15
130 1 16.2106 7.74429 8.55861 9
131 1 13.5055 -0.665289 -8.43475 15
132 1 -15.2485 -5.11058 3.52925 13
133 1 9.38824 11.9373 5.09022 18
134 1 11.3227 9.12175 5.39416 16
135 1 -5.9488 5.78917 15.3032 11
136 1 4.15708 10.6525 -4.13771 19
137 1 -3.33142 9.89163 7.44378 21
138 1 -3.9431 16.7988 -6.73149 16
139 1 0.982589 -4.3722 -14.825 19
140 1 9.20967 -8.22666 -13.578 13
141 1 -1.77733 15.6917 -14.4891 10
142 1 5.36507 -0.199871 9.53838 15
143 1 1.30328 3.63464 -18.1117 19
144 1 -2.31121 10.7304 -3.88651 18
145 1 9.54351 4.98006 -5.28711 22
146 1 -9.71889 9.48436 -1.73675 22
147 1 -6.04246 17.2308 -4.28581 15
148 1 3.7108 1.76948 -12.9633 22
149 1 7.65684 -6.50381 5.28609 18
150 1 -6.77922 5.31603 -7.66758 22
151 1 -6.59868 15.6896 6.83107 15
152 1 12.6195 8.46036 -9.37086 13
153 1 3.12942 14.983 -7.79482 21
154 1 -1.31674 18.2016 -0.787481 17
155 1 9.37031 12.7393 -2.46282 20
156 1 -4.44372 12.4235 -3.97862 21
157 1 2.88125 15.5596 -10.9049 18
158 1 5.22455 7.17814 -15.9677 16
159 1 -14.2845 -8.41262 4.24593 14
160 1 -11.3873 13.9288 -4.94301 12
161 1 -9.2468 3.37271 -13.2916 20
162 1 2.30719 -9.64185 -15.3098 9
163 1 7.25627 18.2833 8.21878 10
164 1 -1.34241 17.9137 4.83558 19
165 1 -12.2156 1.78964 -6.22314 22
166 1 -8.89344 15.569 -2.91997 16
167 1 13.5558 3.22223 -1.25261 15
168 1 -11.5577 2.49114 -16.0196 11
169 1 4.87218 3.00317 17.1741 10
170 1 3.43493 16.952 1.60855 15
171 1 -1.0262 10.2102 2.31619 18
172 1 4.43923 -4.52595 -16.0722 20
173 1 -7.86667 18.2772 4.91629 10
174 1 -2.23471 14.45 -8.29419 16
175 1 -1.08562 0.0668303 11.7078 20
176 1 -10.2178 -3.43722 2.42491 23
177 1 -7.43678 -6.5899 -17.124 7
178 1 -6.32979 15.1764 -10.4198 12
179 1 -2.56938 -13.0074 6.24688 21
180 1 1.41194 -13.0995 -4.15331 17
181 1 -5.73432 14.2833 -13.1513 12
182 1 -11.8848 -0.673267 9.71325 16
183 1 1.24737 9.9034 -2.43474 19
184 1 9.48679 10.8248 -7.38924 18
185 1 -1.28895 6.05252 12.3794 19
186 1 -0.085331 -10.1478 12.8527 9
187 1 -10.8195 5.99369 -1.31108 21
188 1 2.18463 18.5033 -0.497844 18
189 1 -0.647795 10.874 7.29587 21
190 1 11.6539 5.21517 13.3253 14
191 1 -6.18934 12.8089 1.17954 24
192 1 14.0862 -4.31305 -9.75806 11
193 1 -3.54883 16.4961 7.48106 14
194 1 -4.28027 4.19836 -9.4127 20
195 1 13.6025 -4.88661 -0.716313 10
196 1 -7.54731 -3.45697 3.96188 20
197 1 -13.144 0.883454 4.16441 18
198 1 -9.46918 -8.60733 2.21691 20
199 1 4.59377 5.70579 9.33326 19
200 1 -15.8618 -1.86582 -2.26832 12
201 1 -2.82273 -12.688 -0.550589 20
202 1 2.63336 -7.26202 -2.56236 20
203 1 -0.748894 15.2038 6.24828 19
204 1 -10.6447 1.94373 2.77989 21
205 1 5.49363 15.8575 12.8191 16
206 1 -13.6054 4.43177 -7.38478 17
207 1 -7.69825 14.655 -8.13676 14
208 1 -17.3304 -4.47535 -6.56627 7
209 1 -10.2845 -4.79045 9.08598 18
210 1 1.37852 -10.7128 1.86835 17
211 1 8.44663 -12.279 4.55533 9
212 1 -10.939 15.6723 -0.409883 10
213 1 15.911 4.82104 3.84486 14
214 1 6.57179 2.05836 -7.62344 21
215 1 -8.30681 -5.29137 -14.0934 11
216 1 3.90158 3.35653 10.7803 16
217 1 7.22262 -15.0436 1.66927 10
218 1 -3.38226 8.85951 -14.0277 20
219 1 5.03986 -7.24869 -15.7633 18
220 1 4.34422 2.88657 -18.2795 17
221 1 3.91537 9.26307 -17.4786 9
222 1 -9.70686 -2.62728 -9.46077 20
223 1 0.462626 17.5274 -8.68614 16
224 1 -8.51845 -9.83031 11.1707 19
225 1 7.2078 18.7996 -3.82957 9
226 1 -3.30579 7.8562 15.0785 15
227 1 -7.24612 14.5345 -5.10972 18
228 1 5.25133 0.448269 5.87767 20
229 1 -7.34917 -2.37255 -13.2927 15
230 1 -2.78249 11.4779 -7.0917 22
231 1 -0.57378 8.14442 -10.3898 15
232 1 -5.19193 -8.45451 10.4938 16
233 1 -12.1188 4.25345 6.63279 15
234 1 -9.05622 4.35356 7.71187 17
235 1 -1.60464 -7.17511 -10.7739 20
236 1 -2.14654 -8.9464 -1.569 21
237 1 6.57587 -10.799 -7.42676 15
238 1 9.57538 6.80687 12.0004 21
239 1 4.80819 10.0886 -9.71843 18
240 1 -1.28185 10.9175 -1.3844 19
241 1 -11.0433 1.29112 -0.612974 18
242 1 -9.80177 15.6803 -6.18717 12
243 1 3.83653 7.64088 7.16444 21
244 1 4.10244 -16.4924 2.64063 9
245 1 12.9348 -0.233015 -2.46625 15
246 1 1.14486 10.3593 4.0301 20
247 1 -7.40196 7.7157 4.53712 23
248 1 -12.1222 -0.645071 -4.21681 21
249 1 7.48589 6.34595 -10.2799 21
250 1 4.43687 3.22374 7.64103 17
251 1 10.0261 10.2887 -10.7828 13
252 1 0.28628 -7.04228 -0.46797 18
253 1 -2.08856 0.547133 -13.0376 20
254 1 1.04899 -15.1821 2.82029 14
255 1 8.95124 1.55853 -6.36739 19
256 1 -13.5503 -3.18406 4.59131 20
257 1 4.88335 -15.7675 -0.498751 11
258 1 -12.4755 -3.44301 -10.3466 14
259 1 1.96208 15.3793 -4.96997 17
260 1 0.826845 0.0577695 -13.9735 24
261 1 2.93878 5.72587 12.6704 19
262 1 13.6078 5.09661 1.64239 14
263 1 -6.72311 -6.49784 2.45608 22
264 1 9.58026 -1.57816 -10.8367 21
265 1 -1.26159 -9.18919 5.87436 15
266 1 -9.92455 0.158117 -13.7488 19
267 1 -9.66472 5.36779 -9.24867 22
268 1 -9.3107 -12.2381 7.28239 16
269 1 11.0707 -1.70173 8.59935 15
270 1 1.43454 -2.49663 10.6908 19
271 1 -5.92691 -7.4255 -14.985 16
272 1 1.72721 -3.46497 6.04044 21
273 1 0.496805 8.315 -14.3124 20
274 1 6.64693 8.17472 1.50895 21
275 1 -12.2885 -5.95651 2.89123 22
276 1 1.33643 12.6683 5.71399 17
277 1 -4.49317 -4.25876 13.0299 16
278 1 -9.39479 -8.1375 -8.66937 13
279 1 -5.45712 0.612369 -14.092 21
280 1 -7.43434 9.0111 -14.8171 20
281 1 -8.57189 -8.16271 -12.3154 11
282 1 -3.55507 -6.51804 0.229786 20
283 1 10.3153 -2.35367 -13.5758 16
284 1 14.2965 5.96682 -8.11382 13
285 1 6.82523 2.58573 2.72182 16
286 1 -7.5733 -6.35148 9.20975 18
287 1 -6.95191 -5.57672 -1.81351 20
288 1 6.22166 6.1102 12.8263 19
289 1 -7.07119 -16.3459 2.11215 13
290 1 -0.687586 -13.7783 -2.51986 20
291 1 -1.68157 14.0094 -4.93318 19
292 1 4.64101 3.90184 -14.7296 20
293 1 -5.75882 -3.41984 -18.2775 8
294 1 -12.6333 -7.00925 12.4241 8
295 1 3.86023 3.07069 13.9131 22
296 1 4.76487 -9.85641 2.86208 15
297 1 -4.98905 -7.84198 -11.1949 20
298 1 -11.0729 7.93758 -10.3832 19
299 1 8.75088 9.07539 6.90568 17
300 1 -9.94379 3.08795 -10.5564 22
301 1 -1.14771 10.0138 -13.1353 22
302 1 -4.61737 -4.003 5.8786 21
303 1 7.39836 -10.0681 -11.4615 10
304 1 -3.11039 18.0237 -3.80659 16
305 1 -1.37687 16.369 1.41547 20
306 1 9.62234 1.72677 5.03194 17
307 1 -9.49701 -0.426713 4.34106 24
308 1 -4.08886 -3.50228 9.5543 21
309 1 -4.35956 15.3905 1.1484 19
310 1 3.6093 -5.72192 -18.6894 10
311 1 11.4728 8.58036 -1.71996 20
312 1 6.95008 -7.96591 0.775685 16
313 1 -3.95565 1.14193 15.2773 13
314 1 -14.9374 -1.03205 8.58209 17
315 1 0.155004 -16.0766 -4.67517 13
316 1 -6.11414 12.3501 7.8848 19
317 1 -6.14667 9.1268 13.9538 12
318 1 -14.3868 -0.961294 11.4268 11
319 1 -15.7177 -3.57278 9.33313 14
320 1 6.92374 -0.998172 -5.97672 21
321 1 -7.23199 -3.6426 10.4509 16
322 1 6.86949 -0.517962 -9.52031 24
323 1 9.82942 -10.6116 -7.1732 11
324 1 3.86099 18.5683 -7.58515 14
325 1 -11.0149 10.6883 -4.65511 20
326 1 8.51384 3.94609 13.313 24
327 1 -12.3955 -0.644316 2.00936 19
328 1 6.06518 -8.39325 -8.4584 18
329 1 -4.08493 9.86927 0.914338 23
330 1 -7.09456 4.87232 2.65036 21
331 1 6.92518 -9.46117 9.24431 10
332 1 10.1701 -4.33362 6.76598 14
333 1 -1.83584 7.52163 7.49294 19
334 1 -11.8002 -3.889 -5.79371 19
335 1 -1.17689 1.14312 15.017 16
336 1 -1.3018 14.7125 -1.34917 20
337 1 6.05581 4.74164 15.2326 14
338 1 -6.88444 17.2395 -7.57206 9
339 1 2.49388 0.439361 -18.8677 17
340 1 -7.01038 5.04831 -10.8912 20
341 1 7.37336 -5.51214 -15.0464 17
342 1 -8.71268 3.47124 14.5292 13
343 1 -15.1686 4.97584 1.45157 10
344 1 -6.45315 -3.3552 -9.48925 19
345 1 -6.46852 14.425 -2.17908 19
346 1 8.08321 -1.86402 1.80211 19
347 1 -11.5899 -9.99502 3.29098 16
348 1 3.96711 -3.91517 8.46426 22
349 1 -11.6756 -12.1791 12.7117 7
350 1 -11.6257 4.92408 -4.1551 20
351 1 -3.38622 -1.4425 7.3378 24
352 1 3.12383 -9.75309 -7.92136 23
353 1 -7.19742 2.44794 -9.37858 23
354 1 7.10563 6.3782 -13.3684 21
355 1 0.300864 14.9171 3.40967 19
356 1 -12.0143 2.78439 -8.9141 21
357 1 3.72807 -5.25246 -12.9197 20
358 1 7.06038 3.02821 -10.6601 20
359 1 -5.05614 -13.6283 -3.40669 16
360 1 -15.3036 -6.87367 -5.84803 8
361 1 -2.18173 -6.27995 -2.62706 22
362 1 9.22055 6.12833 15.0526 11
363 1 13.1001 4.68284 -4.75575 17
364 1 -7.12616 5.95938 -16.5178 18
365 1 4.44358 17.3082 -4.27106 19
366 1 -15.1043 0.197649 -4.74413 18
367 1 -9.53643 10.2838 4.21795 20
368 1 -7.1505 10.3083 -0.557594 24
369 1 -4.37928 7.11976 5.84593 22
370 1 9.33439 2.98586 8.33779 18
371 1 5.95212 -3.16278 -7.83349 22
372 1 6.87866 -1.49799 13.6316 10
373 1 11.6252 2.55531 -7.52124 23
374 1 -3.05674 -17.0833 -3.89948 8
375 1 -1.13723 -6.35697 -8.09727 21
376 1 -2.8531 12.9156 2.64288 22
377 1 -13.4748 3.02908 -4.06086 17
378 1 1.68437 -9.78656 -1.49658 21
379 1 15.0967 2.21696 5.48647 16
380 1 -9.48438 1.90781 -4.69497 21
381 1 -6.30249 -7.36705 5.61126 22
382 1 -9.71866 -7.57314 13.9862 10
383 1 -3.84032 12.4814 -0.547624 19
384 1 -8.98961 -8.2614 -1.14029 18
385 1 7.42205 13.8052 11.2461 17
386 1 -10.4319 7.58906 -3.98847 21
387 1 -1.45495 12.153 -10.9827 19
388 1 8.36164 13.2223 7.72381 18
389 1 -15.6969 -4.72566 -0.925794 10
390 1 -1.1486 -9.41152 -7.47608 19
391 1 -12.1702 -0.849127 6.12164 18
392 1 -12.6929 8.28005 -2.42972 23
393 1 3.69873 -10.2079 9.02571 15
394 1 -8.21761 -14.0339 -4.31237 9
395 1 11.0598 11.1399 8.03894 21
396 1 8.37116 8.12884 -14.8189 13
397 1 -10.2362 8.63467 -14.4298 18
398 1 -2.95239 15.4144 -11.4661 13
399 1 -8.59796 8.3782 -7.97812 18
400 1 -2.43101 -11.219 3.50851 18
401 1 13.6989 11.7783 5.82906 14
402 1 -1.98242 8.4652 -16.6022 18
403 1 -4.10951 1.47521 5.95054 23
404 1 -16.0923 0.196234 0.40815 8
405 1 -9.47499 4.85141 4.59599 22
406 1 -11.9332 -12.8679 4.83853 14
407 1 1.15474 -4.89126 -6.62958 21
408 1 8.89593 -4.78535 -11.6305 20
409 1 -13.6739 2.69793 1.6265 17
410 1 -12.4239 1.98934 11.1479 15
411 1 -13.365 10.7231 -0.0408377 15
412 1 -1.90489 -4.59242 7.41473 20
413 1 -9.96269 4.85872 -18.1972 11
414 1 8.90595 -7.64982 -9.94035 18
415 1 1.47943 -5.29866 -10.3243 21
416 1 -3.25484 -6.15295 11.4967 17
417 1 3.73418 -6.15922 -4.88907 21
418 1 -8.82108 8.06681 -17.2831 11
419 1 3.8147 -12.377 4.01611 18
420 1 6.00081 10.2761 -6.31557 22
421 1 -13.9804 11.2107 3.14236 11
422 1 -5.97329 -2.1896 15.3991 11
423 1 -12.8108 -0.947304 -12.8414 13
424 1 -10.2402 -3.67904 5.68465 19
425 1 8.67624 -3.95802 9.34704 13
426 1 6.8897 4.36258 -2.79118 19
427 1 1.26192 3.29125 -13.1317 23
428 1 9.15838 -6.93662 9.16974 11
429 1 14.7167 12.0717 -4.68592 11
430 1 -4.35339 4.55006 11.1933 17
431 1 1.67085 12.4943 -3.93897 20
432 1 6.05377 -2.13748 7.22914 17
433 1 -7.0451 -9.45186 -6.58757 17
434 1 -3.9999 10.8525 13.1393 16
435 1 -4.72538 18.1345 5.2057 13
436 1 -7.58487 -9.98853 -9.65989 13
437 1 6.27018 16.2533 2.95199 17
438 1 2.62163 10.5412 8.24465 21
439 1 -6.64237 2.36765 11.1926 17
440 1 -4.74414 -8.53296 -3.36715 17
441 1 -6.16936 4.72984 9.15539 20
442 1 -9.48631 -6.05635 -6.51205 17
443 1 -8.3598 10.2578 8.71249 15
444 1 -3.88196 -8.4736 -8.68993 21
445 1 -0.387233 -7.40125 -14.2268 16
446 1 -8.83759 -11.838 3.67614 21
447 1 -6.37311 -1.33241 5.89906 23
448 1 11.2373 3.28427 2.28598 16
449 1 -6.84119 -7.05583 12.8285 16
450 1 -9.48286 11.1392 -16.1371 8
451 1 6.22042 7.12467 -1.09757 20
452 1 -8.13237 -13.4388 1.06649 16
453 1 -2.02008 5.09915 -7.73795 17
454 1 0.535698 19.5897 -2.83594 11
455 1 -0.132697 11.0612 -8.79857 19
456 1 -1.77719 9.01847 9.97694 19
457 1 -11.6651 -2.09511 -0.788044 18
458 1 1.49897 18.2941 -5.79867 15
459 1 5.39538 12.8714 -7.86751 22
460 1 -10.2326 -2.96929 -12.8635 14
461 1 0.495753 4.01687 14.1548 19
462 1 1.52977 -12.0993 -9.21478 13
463 1 6.31697 -2.43191 -14.8915 19
464 1 7.96564 -11.062 -1.0475 11
465 1 -11.9368 13.168 0.809984 13
466 1 0.139672 8.40829 12.3331 19
467 1 7.47704 11.1602 0.16542 17
468 1 2.72531 12.6226 -1.00585 21
469 1 -8.02053 11.5233 -13.4286 18
470 1 1.18743 4.27014 -9.63211 21
471 1 1.99382 -7.39626 2.88347 19
472 1 -14.1634 -2.65824 -5.07528 18
473 1 3.37096 19.3033 3.61672 9
474 1 -4.29448 6.64247 -15.1482 21
475 1 9.02858 8.99823 3.05194 22
476 1 6.28424 15.0489 -10.504 14
477 1 7.82612 -5.57866 2.06758 19
478 1 14.9965 11.1422 2.65481 10
479 1 -1.62496 -0.743507 -10.9972 21
480 1 -2.34105 -10.1095 0.849792 15
481 1 0.455892 -12.0957 4.94489 19
482 1 2.44178 -8.78745 11.5366 11
483 1 -10.3164 5.94375 -12.6152 21
484 1 -12.3944 -9.75873 6.66145 16
485 1 -2.03235 -12.0724 -8.77845 13
486 1 10.4579 13.576 10.329 17
487 1 1.41853 1.11846 -10.8528 21
488 1 1.43772 -0.698265 14.0051 17
489 1 -13.1947 4.71962 9.23473 9
490 1 -3.61438 -16.9843 1.02432 11
491 1 -13.1398 -3.65972 -2.66624 19
492 1 13.1916 -0.63338 -5.8534 14
493 1 7.62044 -1.31631 -2.27064 19
494 1 -7.58244 4.44745 -3.88881 23
495 1 1.25117 -8.04467 -6.18751 26
496 1 1.4035 6.13413 -12.2222 22
497 1 9.20138 -3.60797 -5.76082 21
498 1 -2.8719 -0.942844 10.1564 19
499 1 3.91141 13.7324 4.36801 21
500 1 -0.43057 -0.336166 -16.6708 18
501 1 7.67525 3.46017 -13.5706 20
502 1 -7.39086 -4.18274 7.51808 21
503 1 -5.39253 18.2894 1.86714 12
504 1 -8.07959 1.78591 -19.1716 10
505 1 -14.6394 3.6737 4.62834 14
506 1 -2.85585 -8.06449 -16.8547 11
507 1 -5.71654 -13.174 13.7724 8
508 1 0.822995 12.6284 -11.6959 21
509 1 17.8782 3.08683 4.97164 8
510 1 9.90711 10.1644 -4.17758 18
511 1 -10.0397 -11.3658 -5.07638 12
512 1 -0.782785 -10.1604 -4.10014 23
513 1 -4.31097 -4.47643 -13.5081 17
514 1 -10.0723 15.9314 6.21329 9
515 1 3.71876 -3.43494 -10.1302 22
516 1 9.90973 -0.40893 -4.43972 19
517 1 3.06632 11.4318 -6.93565 19
518 1 7.87644 -8.67312 3.47225 16
519 1 14.5582 9.34742 -6.99198 11
520 1 0.536774 13.7503 11.4415 21
521 1 -12.5083 5.15417 3.24811 20
522 1 8.20627 16.9822 10.7573 11
523 1 4.06006 0.189572 15.4234 12
524 1 -3.34041 1.42003 -16.8342 18
525 1 -7.36201 -3.72173 -6.52548 21
526 1 -0.560877 -1.98092 8.55951 22
527 1 5.10434 12.7425 7.22593 17
528 1 4.84192 7.24066 -11.0529 21
529 1 -9.04236 13.5493 -11.1051 10
530 1 -0.921385 16.3851 -6.28843 20
531 1 9.00562 -1.2761 11.1349 14
532 1 9.92854 3.54321 -12.0219 20
533 1 9.0969 -7.57009 -7.08233 20
534 1 11.8893 10.6754 11.1405 15
535 1 -12.4881 -6.57752 -4.63997 16
536 1 -4.4774 12.9003 -9.97235 19
537 1 -1.43108 1.43484 7.74581 19
538 1 -9.59473 1.50978 9.5484 18
539 1 -3.00343 9.25816 -10.3133 19
540 1 4.86123 -11.0753 -2.62107 18
541 1 3.70653 -0.79887 -11.7163 20
542 1 -1.21083 19.1754 -6.03395 11
543 1 -4.71176 -1.72845 -15.8589 15
544 1 3.19955 -9.82573 5.42737 17
545 1 -14.5983 -7.5235 -2.34764 10
546 1 2.38899 11.0662 -14.3013 19
547 1 -9.67226 3.35825 -2.08312 20
548 1 0.845603 7.93859 8.91681 22
549 1 -12.1714 -7.2207 5.68655 13
550 1 3.56913 7.15198 -2.16583 20
551 1 0.965027 -8.7788 -9.75027 20
552 1 2.02059 -5.05115 11.9371 16
553 1 6.43106 1.99238 -4.35294 22
554 1 -9.88633 10.5076 1.32116 19
555 1 2.84182 15.6913 12.8084 19
556 1 5.63527 18.0322 -9.82305 10
557 1 11.0792 -5.63115 -8.55872 22
558 1 1.41323 10.8944 10.7076 23
559 1 0.83154 7.51278 -17.3807 15
560 1 -4.13464 -11.3569 9.30311 17
561 1 -3.10645 6.18208 -11.8502 15
562 1 3.18168 -1.30031 -16.2184 20
563 1 6.11344 15.6289 7.64179 18
564 1 9.1447 4.39492 -8.53133 20
565 1 1.35791 -2.54075 -11.5179 21
566 1 -3.44186 -11.2326 -2.99826 17
567 1 -15.4641 -1.90352 -7.7567 15
568 1 9.9097 6.71358 0.37139 19
569 1 14.8056 10.9733 -1.47955 12
570 1 6.3905 -5.65048 -9.50015 20
571 1 14.4493 8.84982 11.2792 9
572 1 5.02775 -8.80913 -5.22645 21
573 1 2.94539 2.84425 -20.8341 9
574 1 2.07238 12.8143 2.2013 18
575 1 -9.95557 4.57458 1.19573 19
576 1 9.34791 11.8644 13.593 12
577 1 8.42058 7.81888 -6.18247 23
578 1 12.7737 -2.27151 0.325884 15
579 1 11.5462 5.32258 -9.84648 18
580 1 12.5202 6.90009 11.2598 16
581 1 15.2102 5.15397 10.1799 12
582 1 0.948355 -11.9057 10.1018 12
583 1 12.2676 12.6028 -2.62366 15
584 1 1.69096 1.39492 12.1318 16
585 1 14.4848 2.59135 -7.09868 11
586 1 10.1394 8.65413 10.1242 17
587 1 -9.55501 0.459418 -7.93217 19
588 1 12.2824 8.20169 1.40422 18
589 1 10.0762 -4.11682 3.6984 17
590 1 -5.34791 10.1356 9.70812 22
591 1 8.21703 11.054 10.2604 22
592 1 11.4612 0.464749 12.3027 12
593 1 3.03491 15.2356 7.34636 17
594 1 0.98997 13.6348 8.95175 20
595 1 4.76085 5.51228 5.37189 20
596 1 -3.80368 -13.9637 2.75051 20
597 1 -4.88207 9.71945 -5.71912 20
598 1 8.50018 13.521 -8.11261 13
599 1 10.6766 0.921938 -12.9337 19
600 1 3.70718 15.4055 -2.12157 20
601 1 0.47032 -11.3478 -6.50497 19
602 1 13.123 -1.39414 -11.8406 11
603 1 -13.8306 8.16661 3.54728 16
604 1 -7.1475 6.09766 -13.2929 18
605 1 -6.11976 -11.5519 -0.977029 17
606 1 -6.70013 2.44523 -12.6521 19
607 1 -16.6005 3.53295 -4.08457 7
608 1 11.6494 -7.98742 -1.3573 10
609 1 11.8019 12.5901 3.18461 15
610 1 -2.89911 -6.26018 5.10042 22
611 1 -14.3038 1.90144 -14.3157 7
612 1 -1.37343 4.9775 -18.0275 17
613 1 -2.97893 4.48569 14.11 19
614 1 8.37545 11.8388 -13.8576 10
615 1 10.2401 3.42026 10.9667 23
616 1 5.60084 7.32254 -7.63108 22
617 1 9.18629 14.3975 2.90113 17
618 1 3.28979 -10.5007 -11.0102 13
619 1 -6.44216 -1.73702 12.815 13
620 1 12.7135 0.959857 4.02764 16
621 1 -0.562258 15.9393 13.2227 12
622 1 5.07487 13.4342 -13.4059 11
623 1 -13.8519 11.2606 -4.64648 14
624 1 4.88256 10.0065 -0.538832 21
625 1 -11.2832 -13.6688 1.41056 12
626 1 10.5174 -4.60914 0.260349 20
627 1 8.36143 16.8513 5.53743 14
628 1 -3.28672 4.22639 7.0891 23
629 1 -12.0019 -9.9278 -2.41998 13
630 1 -7.46637 -0.309918 -10.8358 20
631 1 8.18778 0.1677 8.1491 21
632 1 -1.76605 -7.34474 8.55757 17
633 1 8.06581 5.30911 10.0778 18
634 1 -9.08634 12.8982 -0.221996 23
635 1 7.74381 4.7917 0.688944 17
636 1 10.9549 6.49936 3.36356 20
637 1 7.4896 1.79224 -18.2157 13
638 1 -9.06147 -1.4574 7.64495 22
639 1 6.8528 0.0870712 -12.4505 21
640 1 -4.64997 -5.04594 -7.29052 23
641 1 11.129 -9.45245 -10.6278 12
642 1 10.3703 4.3028 5.61327 20
643 1 4.94527 5.16131 2.32758 21
644 1 -6.0325 2.68457 14.3083 14
645 1 6.12238 8.04763 10.7015 20
646 1 0.189391 -3.07857 13.3879 15
647 1 -4.14593 7.16726 9.19397 20
648 1 -1.22165 -4.95681 -12.597 19
649 1 -9.57615 1.44631 12.7543 14
650 1 5.94936 1.22433 13.2973 17
651 1 -6.82238 -12.7406 10.0838 14
652 1 13.0225 11.3318 0.491869 15
653 1 4.50177 -12.9739 -8.40764 11
654 1 -3.98418 7.21417 -7.58521 20
655 1 5.89079 12.955 -2.2897 23
656 1 10.0752 16.1001 8.11997 14
657 1 5.2119 0.452653 -20.2708 10
658 1 0.201465 13.0997 -6.76694 21
659 1 7.07762 14.1801 4.9308 20
660 1 -9.02805 -5.82053 0.719558 24
661 1 -1.63955 2.26178 -19.3722 11
662 1 -8.59016 13.164 3.05571 19
663 1 6.33746 -3.05353 -11.7038 21
664 1 7.83576 5.79992 3.86358 19
665 1 10.5174 7.15723 -8.01957 21
666 1 9.9491 15.6668 -1.98656 12
667 1 -8.3099 7.567 1.14888 23
668 1 5.69467 7.77376 -4.19184 20
669 1 10.7221 2.5176 14.5598 12
670 1 8.80645 0.986431 12.4072 18
671 1 -3.04419 -12.3458 12.005 12
672 1 -5.60818 11.3608 -15.1401 15
673 1 4.10342 14.4337 10.1935 20
674 1 11.5871 -4.14275 -11.4052 17
675 1 2.36123 5.12589 7.14767 21
676 1 6.27628 16.1521 -7.33069 18
677 1 6.06237 8.68688 4.06002 18
678 1 13.4548 -4.1134 -4.2008 14
679 1 7.85416 9.23886 12.85 18
680 1 -16.4779 -2.55077 5.99105 14
681 1 0.845055 -13.4897 -0.219187 17
682 1 1.34245 -1.71999 -8.9975 21
683 1 -7.57544 15.5162 0.534789 17
684 1 0.562765 7.01117 2.52014 20
685 1 5.91498 -6.48333 -1.57237 18
686 1 4.41673 11.0054 2.17253 22
687 1 -15.1907 -0.498994 3.16145 15
688 1 -1.8143 13.0517 14.6856 13
689 1 -3.81128 4.92995 -20.6747 9
690 1 -2.91751 7.15421 -18.9111 8
691 1 3.86825 -11.8896 0.459321 16
692 1 7.73534 9.35797 -9.0119 22
693 1 3.22025 -4.87838 3.43448 18
694 1 -2.37656 7.37987 1.12418 18
695 1 -11.2736 4.02988 12.7853 11
696 1 5.89961 1.02724 -15.3639 19
697 1 2.77045 -12.767 6.92952 14
698 1 1.62882 14.9714 -0.143283 18
699 1 -3.73768 1.82651 12.703 21
700 1 -9.5706 -5.38313 -10.5167 16
701 1 -4.15975 -5.50452 -16.5408 16
702 1 -3.28649 -11.1678 -5.91178 20
703 1 0.0568425 16.4857 -11.7297 15
704 1 3.46978 -3.44481 -5.53428 21
705 1 -3.29286 15.5809 4.1613 24
706 1 6.6473 -7.25731 -12.2759 16
707 1 6.5904 -13.3904 -1.25973 12
708 1 1.47678 -8.13714 8.33956 18
709 1 15.8388 5.96101 -5.5756 10
710 1 4.13861 -11.9517 -5.32132 20
711 1 -13.0723 -3.17864 7.66644 20
712 1 -5.32123 -14.4874 -0.130765 19
713 1 -6.6492 -6.28902 -4.97346 21
714 1 -10.2336 1.88355 5.88486 20
715 1 -8.89562 -15.3542 -0.926263 12
716 1 14.6504 8.67214 -3.30132 13
717 1 -6.88449 15.7756 3.45072 20
718 1 -6.36497 4.30227 5.96851 23
719 1 -15.4386 11.1913 -1.47887 9
720 1 10.7786 3.42287 -0.3474 18
721 1 -14.2517 -1.21459 -10.4252 12
722 1 0.540193 9.99709 -5.69617 21
723 1 4.76434 4.88512 -8.66396 21
724 1 8.71342 15.3632 13.4353 8
725 1 6.79998 4.9075 -5.80025 19
726 1 -14.1171 7.1673 -8.47373 13
727 1 -14.9327 -5.05148 -8.89421 10
728 1 0.823102 11.4534 14.1171 18
729 1 3.37718 7.75115 -13.5912 18
730 1 10.9144 14.2561 6.28232 16
731 1 -3.82434 1.66548 9.27465 23
732 1 -2.37541 -14.02 -5.25557 14
733 1 -6.66388 -13.4782 4.15207 17
734 1 -4.94251 -6.19612 8.11355 18
735 1 11.0411 8.82848 13.2237 15
736 1 3.6677 -7.23593 -10.7741 18
737 1 -7.62635 7.43756 -2.34875 20
738 1 3.27452 8.13746 3.99892 20
739 1 -9.25294 -6.16137 4.41711 20
740 1 9.83452 7.52108 -11.5844 16
741 1 3.01629 -14.9449 -5.74297 13
742 1 -1.44554 -15.5785 0.702961 18
743 1 -0.531772 -17.5647 -1.8509 12
744 1 4.38134 4.652 -11.9514 24
745 1 5.59227 16.9252 -0.460184 17
746 1 -3.41698 3.20322 -13.9867 22
747 1 -1.75882 -1.57221 16.0751 9
748 1 -1.2945 5.67418 -14.2868 22
749 1 -12.9868 7.82895 -13.2276 9
750 1 -9.70771 -1.80583 -5.98986 19
751 1 2.55869 18.669 -10.3276 9
752 1 6.96931 -3.97521 -0.279936 18
753 1 -2.06122 -2.61266 -17.2988 12
754 1 -8.47287 -3.17453 -0.951089 20
755 1 12.6678 11.2802 -7.0606 10
756 1 8.77284 -4.78722 -2.45665 19
757 1 -7.1854 11.5904 11.5713 10
758 1 2.91064 -6.39079 6.55052 18
759 1 11.2798 -3.09447 -2.40234 19
760 1 10.7741 0.765101 9.01175 21
761 1 -0.526429 17.857 7.92868 15
762 1 -7.82466 6.00613 13.2241 12
763 1 -8.53858 4.78304 11.1719 18
764 1 -2.85132 -14.1984 8.76005 12
765 1 9.14336 1.31011 0.863303 18
766 1 5.03757 11.1754 10.5048 20
767 1 -14.6815 -2.93475 0.853898 17
768 1 8.19055 -7.13172 -4.52601 17
769 1 -10.7353 13.1983 -8.18645 10
770 1 3.5984 7.23398 1.14081 20
771 1 -0.0569121 -13.8989 8.31106 14
772 1 2.70888 5.45763 16.0476 14
773 1 0.900253 20.2734 6.30883 8
774 1 -0.875431 -9.13683 3.17894 16
775 1 -6.42133 -3.16447 -3.29007 19
776 1 1.37344 5.48003 10.6794 20
777 1 -12.2175 -1.65779 -7.55928 19
778 1 1.01111 14.3844 15.6218 10
779 1 4.16944 19.9288 -2.07855 9
780 1 -12.3957 -9.32549 10.1046 14
781 1 -4.06338 -16.2893 3.88019 13
782 1 7.45479 -4.29155 6.54559 19
783 1 14.1588 -0.141332 10.2499 10
784 1 5.66202 9.41617 8.0822 18
785 1 -2.37605 8.0168 -5.4898 20
786 1 2.25232 -6.61478 -15.6775 15
787 1 -4.04433 1.96624 -11.0149 21
788 1 -6.15413 -0.565375 9.52505 18
789 1 -2.5592 18.9645 2.40745 12
790 1 12.5828 0.698128 0.583012 18
791 1 2.78596 7.40272 -9.0802 20
792 1 -3.30156 14.136 12.0842 15
793 1 4.51703 9.03998 13.5881 18
794 1 9.20177 -2.65572 -16.6215 12
795 1 -6.10719 -8.30458 -0.394173 17
796 1 -6.68902 -0.749462 -7.66157 22
797 1 15.3914 2.35418 2.25577 12
798 1 -0.761552 2.50832 -15.7009 21
799 1 -0.783109 9.59366 15.7487 11
800 1 12.7287 -7.26095 -12.4291 10
801 1 6.69908 4.33224 -16.4277 16
802 1 -2.55323 -7.61862 -5.7715 20
803 1 10.8932 5.88005 -13.479 9
804 1 11.2757 5.32127 -2.61358 20
805 1 0.688112 -4.96533 9.0356 21
806 1 -3.48897 -7.41759 -13.7359 19
807 1 6.81645 15.2345 -2.95914 19
808 1 0.336262 -5.86125 5.23693 20
809 1 -15.879 8.52907 1.25206 10
810 1 11.4837 7.61991 -4.66659 16
811 1 16.2164 8.90658 5.44434 9
812 1 -1.22905 -2.33035 -13.8879 17
813 1 -8.33003 12.971 6.02069 17
814 1 13.13 5.486 5.78514 18
815 1 8.79167 15.8725 -5.29663 12
816 1 3.71703 5.55073 -17.8517 16
817 1 10.0765 -1.35373 -0.618522 20
818 1 -13.9576 0.233041 -2.14506 14
819 1 7.05581 11.4871 2.8516 19
820 1 -11.9201 -7.87507 -0.161545 17
821 1 -7.88395 8.63532 -11.6219 19
822 1 7.21197 6.29907 7.09404 19
823 1 -14.7147 1.78604 -11.3529 12
824 1 -13.085 6.68757 5.94969 13
825 1 -5.24391 7.55692 -10.6172 20
826 1 12.4197 -2.87114 -7.11325 19
827 1 -11.7671 -5.72291 -8.3333 14
828 1 11.0359 -5.38391 -5.23513 21
829 1 -14.3693 6.6166 -0.618236 14
830 1 -6.4433 -6.83481 -8.45039 21
831 1 13.8024 9.24482 7.64878 14
832 1 -6.88155 -10.9727 5.76415 18
833 1 7.66461 2.15871 15.8199 12
834 1 13.7616 0.170254 7.35877 16
835 1 10.4864 -0.937086 2.71166 16
836 1 -11.4278 8.23778 0.747566 17
837 1 -1.53278 11.3656 11.9822 20
838 1 2.14937 9.48825 -11.6478 19
839 1 -0.910987 -5.65089 -16.9972 12
840 1 -5.74539 13.4617 3.96193 19
841 1 -10.3689 -7.94201 8.52397 17
842 1 7.75284 12.9522 -5.02512 22
843 1 -3.83865 10.5242 4.03945 20
844 1 11.8412 2.12257 -4.05231 19
845 1 6.58386 -6.30911 11.0318 10
846 1 -2.76168 11.7542 -17.0492 11
847 1 3.61491 12.8244 -10.5925 19
848 1 -7.01883 1.48916 7.59055 22
849 1 16.6894 4.89309 6.96183 14
850 1 -4.59629 -1.56661 -12.3299 22
851 1 11.0913 13.8415 0.510644 15
852 1 -14.5197 6.17273 -3.72774 17
853 1 -6.89994 -9.46684 8.1924 22
854 1 1.65553 14.7825 -14.1594 12
855 1 4.23862 -2.73117 5.09147 19
856 1 -3.40973 -15.4421 -1.67976 16
857 1 -4.27945 17.3906 -0.90715 14
858 1 -15.7398 8.79231 -3.19164 12
859 1 9.94777 1.43052 -9.88899 21
860 1 0.965048 -10.3096 -12.5857 13
861 1 -7.128 10.2719 3.01315 20
862 1 11.0823 13.2126 -4.90646 15
863 1 -7.27469 2.20268 4.48807 22
864 1 8.3662 0.248109 -15.1009 17
865 1 -4.71501 -10.7388 -12.0685 12
866 1 2.52553 -9.76599 -4.20517 21
867 1 -2.49077 12.6119 9.07467 20
868 1 7.04127 -11.1442 -4.5854 13
869 1 0.524002 10.3507 -17.0093 14
870 1 14.6566 6.314 -2.31428 12
871 1 5.15591 13.621 0.95743 23
872 1 2.01896 -16.9282 0.0814078 13
873 1 4.31997 -2.97845 -19.2148 15