ITEM: TIMESTEP
29000
ITEM: NUMBER OF ATOMS
1500
ITEM: BOX BOUNDS pp pp pp
-30.0 30.0
-30.0 30.0
-30.0 30.0
ITEM: ATOMS id type x y z Coordination
1 1 1.36314 -11.0509 -4.02881 9
2 1 11.1914 -8.83002 6.29774 14
3 1 -11.5964 12.948 1.05734 15
4 1 -9.28885 5.15021 -5.79583 14
5 1 -2.99527 -8.77402 15.4997 15
6 1 -8.86937 1.64466 -3.05268 24
7 1 0.725607 -12.3256 7.46392 16
8 1 -6.77109 -4.18597 15.4988 20
9 1 -3.49957 -0.628651 17.9093 12
10 1 -2.1992 8.35823 12.1793 19
11 1 -1.07628 16.6662 -3.79598 12
12 1 2.82539 0.158062 18.2653 13
13 1 14.4937 3.42319 13.5281 10
14 1 -1.91007 13.5229 -4.95783 14
15 1 3.0852 7.49829 -6.71723 21
16 1 -3.77918 -1.10235 -3.22017 22
17 1 4.82911 -10.0742 15.0562 10
18 1 9.08351 -5.82665 6.65701 23
19 1 0.0297833 -13.7124 3.71837 12
20 1 -2.35466 -11.8204 -4.19493 10
21 1 0.691389 6.62379 17.4238 18
22 1 -5.66455 -12.4848 12.8847 9
23 1 6.12955 -7.09649 14.1101 13
24 1 -12.9353 -0.389531 7.40071 19
25 1 -10.1695 1.95189 4.82094 23
26 1 -10.1539 13.372 -1.82149 12
27 1 -0.227788 6.18504 -10.1336 11
28 1 -2.04396 -1.45204 -6.49689 17
29 1 -3.90415 1.51867 15.4314 21
30 1 -12.1675 8.5529 6.13989 19
31 1 4.97829 10.6535 14.7698 19
32 1 -13.5256 4.44111 -4.72215 10
33 1 -6.67178 13.3014 3.07179 21
34 1 1.40494 -9.32126 6.93007 21
35 1 7.67825 -11.1882 1.94467 16
36 1 -4.27788 8.70015 19.2399 10
37 1 -12.0844 1.5002 -3.89287 18
38 1 6.42163 1.66445 10.0085 21
39 1 -8.89067 9.94651 4.604 22
40 1 -5.48862 -7.53565 14.9322 16
41 1 -15.7144 4.85029 -1.20555 14
42 1 1.52542 8.50685 12.3584 20
43 1 6.76918 -12.4921 6.91999 9
44 1 5.14112 3.06106 18.0879 15
45 1 10.3317 -0.334874 -3.48109 15
46 1 5.83717 -6.22983 8.14085 19
47 1 4.19141 -5.64777 16.776 10
48 1 -8.48252 -10.7896 8.23091 16
49 1 -10.4447 -0.100893 7.71602 22
50 1 8.49262 -0.616849 15.0188 18
51 1 4.42248 -3.48419 2.14117 21
52 1 -0.85573 14.9284 17.6461 10
53 1 1.36203 -0.85529 15.3856 23
54 1 -0.684835 -8.18421 -5.7166 16
55 1 -8.70786 15.7214 2.84824 14
56 1 -2.11647 9.75732 -0.760775 20
57 1 0.975228 -3.8831 -3.70954 20
58 1 5.10366 -1.71028 10.408 22
59 1 1.5894 -8.8527 12.7797 18
60 1 -10.2643 10.658 0.824537 23
61 1 -8.02982 17.1827 9.06355 10
62 1 -5.19253 10.4419 9.64759 22
63 1 -8.57266 -7.2463 14.1861 14
64 1 8.98472 -11.6171 4.43443 10
65 1 -12.2747 4.52983 10.0478 22
66 1 9.35068 -3.8423 4.21417 16
67 1 3.71875 1.1475 -4.93953 19
68 1 -14.8643 -4.51578 -4.19444 10
69 1 -3.69832 13.213 3.49112 20
70 1 -13.7297 6.80266 -2.77068 15
71 1 1.05074 13.6999 -4.35517 14
72 1 -0.0638586 11.2845 6.91564 22
73 1 -5.33813 -1.19358 15.6278 23
74 1 -3.44871 -4.18852 -0.346422 20
75 1 1.04324 -6.32077 -7.1544 11
76 1 -2.32811 4.52614 15.0796 20
77 1 -13.571 -4.67248 4.05651 16
78 1 -9.4036 -11.3984 5.27499 14
79 1 6.41111 -8.81147 9.42706 14
80 1 -7.15625 11.4609 6.5181 20
81 1 3.78947 10.6489 -7.67493 14
82 1 4.38932 9.7526 -2.60892 17
83 1 6.08267 -4.29769 4.5508 19
84 1 -1.57965 -12.3173 16.1715 8
85 1 -11.9913 -7.71678 8.73402 18
86 1 -17.9976 -0.334747 10.7715 9
87 1 2.23602 14.5687 16.3087 11
88 1 -5.88053 11.0642 18.2771 11
89 1 -4.62379 18.9278 3.34281 14
90 1 -7.82462 -2.63746 -8.75015 13
91 1 11.8763 -0.578855 14.6747 14
92 1 2.48704 12.7824 -2.29526 19
93 1 11.8577 6.76318 -1.17128 13
94 1 -8.40819 13.8804 0.448774 19
95 1 -5.10576 16.6727 8.39317 17
96 1 7.72522 -2.49244 -1.70798 16
97 1 8.06904 -3.35046 6.71238 19
98 1 -7.02982 7.20226 -1.15623 21
99 1 1.3221 15.6418 4.81715 18
100 1 8.53053 10.2793 4.91923 20
101 1 -3.94165 17.4172 -1.43599 13
102 1 -9.821 -9.53262 -1.80639 14
103 1 0.0052422 17.4187 12.7201 11
104 1 -13.5076 -2.21518 2.9343 18
105 1 11.5012 -0.945836 4.47915 18
106 1 -3.82459 11.4542 11.9144 17
107 1 -5.17688 12.9353 0.0397732 18
108 1 4.55405 -2.41571 16.9267 13
109 1 -13.1873 -5.92808 11.0204 18
110 1 -5.21799 -7.265 9.60341 19
111 1 6.93138 -9.13977 4.52459 18
112 1 -5.41961 13.5946 -3.98179 10
113 1 10.3365 10.4857 2.1506 21
114 1 -2.3552 -6.01897 16.5974 13
115 1 -10.8289 7.21456 4.46494 21
116 1 -1.19228 18.5904 3.72433 13
117 1 -4.23063 14.1232 16.6805 14
118 1 -7.41767 15.1919 11.4849 11
119 1 -5.27433 3.7821 -6.1105 17
120 1 10.2894 -4.76638 9.95587 13
121 1 -10.1307 -0.390172 11.9121 17
122 1 -13.0692 9.75287 10.1008 11
123 1 -10.0927 -8.70425 7.1145 17
124 1 -15.5133 1.22207 -2.00793 15
125 1 -4.04109 -10.7703 4.36923 18
126 1 2.63396 -5.89528 2.09798 21
127 1 -1.61605 16.2121 15.3607 10
128 1 -10.2295 2.12899 -0.490757 22
129 1 -2.03622 19.559 0.846141 11
130 1 -13.5856 -0.306676 0.493829 20
131 1 -10.6759 1.19414 14.3561 19
132 1 -2.8803 -10.2248 9.97199 21
133 1 1.66401 -11.367 15.6632 11
134 1 14.1325 4.43343 10.55 14
135 1 4.53153 8.11584 1.8894 22
136 1 4.70985 5.11905 15.2218 23
137 1 -5.42324 7.79022 -4.06029 20
138 1 11.7424 2.14838 -4.50369 14
139 1 -8.80385 -3.17339 1.97737 19
140 1 -3.08334 14.5221 -2.11979 16
141 1 -6.43834 17.3545 5.96201 16
142 1 6.70327 5.68954 12.181 21
143 1 -5.77202 -6.41308 -6.70381 11
144 1 -0.502691 12.7311 -0.956018 18
145 1 2.4404 5.51336 -9.34694 13
146 1 -8.80781 8.6321 12.2882 21
147 1 -8.43393 6.58459 15.0559 23
148 1 -2.6709 -6.69504 -7.74937 12
149 1 -7.94074 -13.6079 7.85546 11
150 1 11.4037 -6.5359 2.03197 11
151 1 1.33389 8.17544 -3.4624 21
152 1 -3.52542 11.0153 1.49336 21
153 1 -15.5108 7.53673 1.31275 15
154 1 -1.93714 6.90429 15.27 19
155 1 11.9203 13.0054 4.4355 9
156 1 -0.204838 8.92185 14.9682 17
157 1 -13.7391 11.2289 7.08644 13
158 1 -8.66914 -7.85461 4.69771 21
159 1 7.21154 5.01296 -2.51685 18
160 1 3.19036 2.02571 15.4073 23
161 1 3.52999 8.26306 -10.6105 9
162 1 1.21911 -6.91965 -0.134699 19
163 1 -4.04739 0.832583 -5.76321 19
164 1 6.92867 1.01721 -0.889666 18
165 1 -16.3825 -0.520116 6.53231 15
166 1 3.52482 -10.7694 4.7854 18
167 1 -11.5717 -0.246525 -1.21419 22
168 1 0.586177 18.5371 -1.13831 10
169 1 -9.44381 0.326787 -8.48542 15
170 1 0.613677 5.73473 20.1701 11
171 1 14.673 2.68436 3.0291 10
172 1 6.68215 -0.934773 -3.49696 19
173 1 -6.51319 -10.2025 -0.762578 17
174 1 -13.339 2.5666 -1.56975 21
175 1 10.3404 -0.420506 11.6555 19
176 1 3.00716 0.0116494 12.4384 21
177 1 -7.35437 -2.62053 -5.28925 19
178 1 -1.10843 -8.39387 12.8042 16
179 1 -0.548288 11.3447 -3.52896 20
180 1 4.91728 8.57915 6.95248 20
181 1 -8.95636 -3.05174 7.42833 21
182 1 1.38215 14.367 7.50487 22
183 1 -12.3657 -4.01055 16.2894 13
184 1 -9.13901 -6.94646 -4.25476 17
185 1 -8.05938 -4.9509 -6.52734 13
186 1 -7.062 -10.4312 5.87891 18
187 1 -3.46186 -6.1005 7.32 22
188 1 13.4304 5.32238 7.40065 15
189 1 -13.606 -0.0571669 13.1245 20
190 1 -5.1508 -7.50013 4.13375 19
191 1 -3.26351 -12.2481 8.03983 13
192 1 0.269916 16.7883 1.70945 16
193 1 8.26276 2.08417 -3.84196 18
194 1 -7.15255 0.535937 -5.8843 22
195 1 -0.601955 -10.5357 4.79698 17
196 1 -5.64072 -8.32189 -4.1023 17
197 1 -8.64043 9.71672 -1.28056 20
198 1 8.30476 8.51799 11.8459 21
199 1 -5.40971 2.14086 -3.37116 22
200 1 -3.47046 5.23141 -3.71617 22
201 1 -1.65262 15.5502 3.84294 21
202 1 -1.94329 14.0403 6.38057 21
203 1 8.31249 -1.28763 9.46248 20
204 1 -10.484 8.65784 15.393 15
205 1 -6.19649 -2.88712 18.2457 9
206 1 -6.85194 13.426 9.03918 21
207 1 -3.42627 -6.41321 -3.83661 21
208 1 1.02394 -7.24186 4.71458 20
209 1 -12.0301 -6.46041 14.7593 14
210 1 -14.6288 -2.22836 15.0361 12
211 1 11.266 -2.22871 1.63394 13
212 1 3.12066 -1.829 -3.33864 20
213 1 11.9512 -5.91649 4.79507 19
214 1 -5.41898 14.3122 5.96195 20
215 1 9.92188 6.32977 17.0008 14
216 1 -12.202 -1.73846 9.80126 21
217 1 3.89556 -7.53483 -0.368515 19
218 1 -3.68405 13.4555 8.97031 17
219 1 -8.5115 10.3953 9.35265 19
220 1 3.45975 -12.4035 13.1137 11
221 1 9.77862 -7.62296 9.30989 15
222 1 -5.66494 8.76006 12.5046 22
223 1 -10.4597 -4.58609 3.82791 20
224 1 -8.49418 10.391 17.3926 11
225 1 -3.39203 17.3919 5.75271 20
226 1 -12.5042 2.40211 16.2087 11
227 1 -17.1251 4.95311 6.74219 13
228 1 -5.73985 -3.59583 -2.73059 20
229 1 -12.3159 10.782 3.80854 22
230 1 8.18067 2.55932 11.945 22
231 1 -10.2033 -5.99529 6.5815 23
232 1 9.60988 -3.61183 14.6198 11
233 1 -17.1763 7.29778 4.29564 13
234 1 -1.8849 -0.866517 14.8586 17
235 1 2.70425 -8.16913 -4.41678 15
236 1 -10.4337 -1.12074 -3.49531 21
237 1 7.11039 3.48715 -7.02136 10
238 1 4.3065 14.8876 6.03702 18
239 1 -12.1048 2.44546 1.667 21
240 1 3.56178 -4.08673 -6.19641 15
241 1 -2.59014 -14.0998 4.65326 12
242 1 -15.111 -3.46358 -0.0383647 15
243 1 -6.81045 -6.24691 7.01898 21
244 1 7.86128 8.58048 1.65362 20
245 1 -10.7548 4.38553 -3.28352 24
246 1 -9.70545 -6.32298 2.20256 16
247 1 -9.8587 12.7779 10.1727 14
248 1 -12.3861 13.6045 5.12489 13
249 1 -10.0973 7.19869 9.93184 20
250 1 4.67586 -1.79675 -0.736347 20
251 1 13.3335 -2.76956 0.0311778 7
252 1 -0.582557 -6.44632 2.48296 23
253 1 -1.44621 12.847 14.8123 18
254 1 -10.3755 5.35754 1.9046 22
255 1 -1.2262 -9.27814 2.67321 19
256 1 13.9908 0.93641 16.1214 6
257 1 -11.5959 -3.00789 0.632016 21
258 1 -4.81674 -9.38993 7.22652 19
259 1 -3.82693 11.1524 6.66157 22
260 1 -11.8967 -8.74593 0.746256 11
261 1 -13.6784 7.15152 4.222 22
262 1 0.552803 11.8802 -7.40736 12
263 1 2.56866 17.6904 7.03117 10
264 1 -15.7788 -2.40291 9.0269 14
265 1 -4.82296 -7.32975 -0.735313 19
266 1 -13.7913 5.03213 13.1002 11
267 1 -12.0069 8.09739 1.89775 22
268 1 0.00942198 -5.53328 13.9224 18
269 1 -6.22696 -11.6614 2.46752 17
270 1 9.62613 0.568594 -6.28911 11
271 1 -8.79701 7.50656 -4.05757 18
272 1 -4.98806 -9.1959 12.7827 21
273 1 7.6899 12.3418 15.1049 11
274 1 -10.6608 5.54935 12.3334 19
275 1 -14.0375 4.9721 1.6759 20
276 1 -11.5845 8.75394 12.2823 15
277 1 -8.66776 -12.2768 11.211 11
278 1 3.98452 -5.19138 -2.57639 17
279 1 -17.6732 5.01582 1.47058 10
280 1 -2.04611 -3.25616 12.5988 21
281 1 8.49915 -7.75743 1.06361 16
282 1 -4.59254 -11.7302 -3.6193 12
283 1 -6.80696 -6.05054 12.2705 19
284 1 -0.497765 -4.39316 -0.591269 23
285 1 -6.6191 10.237 -5.08019 13
286 1 10.7415 -9.6186 3.03502 13
287 1 -2.29834 13.6146 1.05833 19
288 1 -6.80143 1.43251 14.189 16
289 1 -10.5004 -6.92463 12.0869 18
290 1 8.14648 -2.56302 17.6357 11
291 1 1.3195 -2.33046 -6.50086 15
292 1 8.03431 -2.93033 11.8728 19
293 1 11.7741 8.11162 1.93105 16
294 1 -4.68495 2.70468 18.6699 9
295 1 0.229638 13.1006 4.38701 21
296 1 4.32978 -2.96941 12.7893 17
297 1 2.77115 -12.572 1.80308 15
298 1 -2.81626 19.1252 8.99165 10
299 1 -7.79838 -10.0069 -4.06953 12
300 1 3.07098 7.66407 15.1057 22
301 1 -8.91101 2.69796 12.4984 18
302 1 -6.84725 -4.64256 -0.0602506 19
303 1 -12.1301 5.864 15.7164 14
304 1 -11.166 -4.46013 -4.75514 16
305 1 -6.05445 12.2098 15.6317 13
306 1 -2.96887 -12.9748 1.86935 15
307 1 -9.70619 -1.54351 -5.88729 19
308 1 -4.93787 -14.2385 6.95238 11
309 1 -8.61005 -1.65477 9.9869 19
310 1 10.0794 2.53208 14.1704 19
311 1 -9.15624 -5.18601 15.4714 13
312 1 -13.4888 12.1019 -1.00403 12
313 1 6.12697 5.3293 6.89075 20
314 1 -7.09788 -13.544 4.95368 13
315 1 2.34375 16.405 10.0728 14
316 1 -0.575794 5.14922 -4.06589 19
317 1 -2.52139 11.5854 17.6304 15
318 1 -16.3883 -2.02413 3.077 14
319 1 2.6386 15.4712 -1.03794 13
320 1 -5.07287 -14.9016 1.86898 9
321 1 2.02055 -10.2327 -0.946718 15
322 1 -0.0451237 -0.826328 -4.09891 21
323 1 -15.7274 10.6651 4.41537 10
324 1 1.99107 3.06295 18.5665 17
325 1 7.85314 8.38965 6.73114 21
326 1 3.71013 12.9332 3.78294 19
327 1 -13.9773 13.1036 2.9028 9
328 1 2.83586 6.93018 -1.0987 21
329 1 0.931973 -7.1708 9.95815 21
330 1 -16.846 1.30832 3.14959 13
331 1 -0.79908 10.0998 -5.81315 18
332 1 11.4378 8.57907 6.89872 22
333 1 4.5384 -3.24011 7.43557 21
334 1 11.8419 6.49375 4.67436 17
335 1 -1.62259 8.977 -8.62527 13
336 1 -0.531374 -6.21788 7.57934 22
337 1 2.00754 -13.3771 10.2308 13
338 1 2.09204 -7.84459 15.4084 14
339 1 -8.67621 4.24549 -0.736451 24
340 1 -2.96224 -13.6675 -1.26591 9
341 1 4.78962 4.32725 -8.78955 11
342 1 10.0759 0.274138 17.3606 12
343 1 -13.6904 -6.41359 6.57535 12
344 1 9.99737 -3.91761 -1.86849 11
345 1 11.8564 1.37322 1.93972 21
346 1 -6.92416 15.6456 -2.3314 10
347 1 -3.9366 -9.60833 -6.6317 10
348 1 5.76056 7.2188 -8.46051 10
349 1 6.00433 -6.53445 2.14703 18
350 1 -9.33544 0.760225 17.9439 12
351 1 14.4444 7.98108 6.63734 11
352 1 -7.9307 3.41358 -7.92756 15
353 1 -10.5795 1.90852 9.72687 21
354 1 -5.5359 16.2595 3.50036 19
355 1 -13.0956 -2.19966 -5.00416 13
356 1 -15.3738 2.02125 6.19261 16
357 1 -14.881 -5.27502 14.181 10
358 1 -1.77404 8.15554 -3.52289 21
359 1 10.2597 5.57779 2.49815 18
360 1 -11.6803 -7.53956 3.98216 15
361 1 -2.17651 -7.37403 4.9071 22
362 1 -10.7623 15.9207 10.1032 9
363 1 -0.442171 -6.23688 -3.15626 20
364 1 9.60131 1.4905 4.73009 20
365 1 4.69658 12.6842 -4.97117 14
366 1 2.96947 -4.11971 10.1366 21
367 1 -13.984 7.90118 16.1415 9
368 1 6.71946 11.6323 11.9421 22
369 1 -3.48126 8.1085 -6.00157 18
370 1 -9.29843 -3.52978 -2.43544 20
371 1 0.0361982 2.02985 15.4193 23
372 1 8.14216 9.10418 16.9184 12
373 1 7.8724 14.4078 0.465706 11
374 1 -10.0058 12.8556 3.64967 18
375 1 7.65487 14.8497 6.6009 13
376 1 9.58682 -5.97235 12.5646 12
377 1 6.0732 5.62505 -5.58305 17
378 1 -15.0901 -2.29568 11.6057 17
379 1 -6.31961 4.32184 15.1829 21
380 1 -3.16699 17.1592 1.59022 18
381 1 4.2538 -7.16801 4.16716 21
382 1 5.40672 2.7233 -3.4789 19
383 1 -6.58699 16.8474 0.704969 13
384 1 -4.50304 -3.43802 -5.36401 19
385 1 8.41127 -8.87377 7.16771 15
386 1 -11.9058 -3.35105 7.12874 20
387 1 -12.4991 -3.78052 12.8969 20
388 1 5.28322 10.2991 4.13202 21
389 1 -2.17472 -3.37497 -3.48505 21
390 1 0.578899 -10.6439 10.2177 22
391 1 6.6176 5.41779 1.83821 19
392 1 -11.3677 15.3753 7.4783 9
393 1 6.53688 -0.559752 1.72285 20
394 1 0.989106 9.2435 19.9769 7
395 1 -1.93313 2.03745 -3.41843 21
396 1 3.36624 16.7971 13.56 8
397 1 6.33276 1.03103 -8.33098 8
398 1 -4.09721 -3.75056 -8.27355 13
399 1 -3.17025 -10.6027 -0.806994 16
400 1 -10.4015 2.0398 -5.9853 17
401 1 10.2199 7.87584 9.44477 18
402 1 13.0331 5.04857 1.12993 13
403 1 6.43801 -3.86057 -4.58625 16
404 1 5.98673 -13.5787 3.28745 10
405 1 5.20508 15.6219 8.95219 13
406 1 -10.3765 5.30493 7.31437 23
407 1 12.8916 9.58679 4.6817 15
408 1 12.2022 -0.536299 9.36782 17
409 1 10.2001 10.1672 -3.13342 8
410 1 11.9933 5.26252 14.8653 15
411 1 1.31283 -3.04114 12.4996 16
412 1 6.7643 0.470882 16.9222 16
413 1 9.88818 2.5271 -1.30959 21
414 1 6.51276 7.75963 14.9547 23
415 1 -10.4416 3.10613 -8.98213 8
416 1 9.36185 11.7468 12.4265 15
417 1 6.38376 -0.241625 12.4228 18
418 1 6.54361 2.29758 14.9226 22
419 1 -3.54777 9.90757 15.0154 21
420 1 5.08112 10.3391 9.79144 24
421 1 -7.17439 10.9876 1.43107 21
422 1 12.9919 11.1169 7.16048 12
423 1 8.67955 -2.52403 -5.15981 12
424 1 1.47685 13.69 1.72912 20
425 1 -4.19088 -9.20407 1.47023 20
426 1 -13.9069 7.03178 9.93505 17
427 1 -12.2534 9.33198 -2.36051 16
428 1 -1.63296 -9.05401 7.9099 21
429 1 -7.01269 -0.987944 -2.83857 22
430 1 -12.2035 4.40794 4.26048 21
431 1 7.71465 -4.75066 9.13809 20
432 1 7.74174 14.4456 13.0121 8
433 1 -1.77731 -6.73581 10.2976 22
434 1 -16.8148 -1.09223 0.528682 11
435 1 -4.67341 5.49521 17.8769 16
436 1 3.59097 4.5128 -3.88929 18
437 1 10.1195 7.4735 -5.84151 6
438 1 4.7279 -10.0176 2.47205 21
439 1 13.412 2.25505 9.04374 15
440 1 11.3523 10.57 9.77723 16
441 1 9.94662 -0.951595 6.99505 20
442 1 -5.30729 6.98309 15.0395 19
443 1 -18.1582 1.95058 8.20509 11
444 1 -10.927 -6.67627 -2.13947 19
445 1 6.40104 -4.08308 15.904 14
446 1 0.609955 -5.31911 17.183 12
447 1 3.31043 5.93527 17.7442 17
448 1 -7.26605 11.8589 12.1163 16
449 1 6.55578 7.38867 9.38402 22
450 1 6.24838 11.7193 6.921 23
451 1 -1.6303 3.68554 -6.58414 17
452 1 -12.3125 2.39577 12.4972 17
453 1 6.15291 -7.84823 -3.30666 13
454 1 9.49963 -7.6573 -1.83126 9
455 1 11.4669 2.89397 11.1234 21
456 1 -1.72889 10.666 9.61807 21
457 1 9.707 5.59421 12.0312 21
458 1 4.67754 -0.986225 14.6741 17
459 1 -2.87906 5.52231 19.7418 9
460 1 -3.84692 1.2857 -8.59476 11
461 1 -12.0609 -0.441634 15.7862 14
462 1 8.30685 5.02613 14.7429 22
463 1 12.0537 9.54949 12.2575 12
464 1 4.94109 -11.7675 10.403 12
465 1 6.66414 13.4881 9.21961 16
466 1 3.8555 12.3758 16.9499 10
467 1 -0.747948 15.9195 -0.536581 21
468 1 13.276 6.77262 13.0636 14
469 1 -8.90502 -12.5418 1.77183 7
470 1 -5.27987 -1.22814 -7.96397 17
471 1 -8.49173 14.6433 5.77632 16
472 1 4.44387 -6.67089 -6.09428 11
473 1 12.6231 10.2001 -0.565355 9
474 1 6.83504 11.5598 1.83495 18
475 1 -8.86156 8.17703 7.11895 21
476 1 8.73426 5.16515 -0.174942 16
477 1 -8.16716 -10.8258 15.0333 8
478 1 -9.79867 10.5445 -4.54386 11
479 1 1.86687 11.246 15.0279 18
480 1 3.27636 5.68281 12.4769 22
481 1 10.97 13.0516 1.25824 10
482 1 9.18678 13.5911 9.89852 15
483 1 14.7534 1.11482 5.87627 9
484 1 -14.2196 1.53867 10.0707 17
485 1 -1.32705 -14.3064 6.96454 12
486 1 1.16474 2.33984 -3.74301 18
487 1 -0.194526 13.532 9.77314 21
488 1 -15.1287 -3.4908 5.89342 14
489 1 4.90456 -8.58906 6.67501 19
490 1 7.07664 11.4471 -3.33331 10
491 1 2.3293 4.00336 -6.20842 17
492 1 0.154109 -12.7265 12.9191 13
493 1 -0.664084 17.023 6.90165 18
494 1 -9.2515 -2.71048 17.5006 12
495 1 -11.7764 -8.85986 -4.16719 7
496 1 2.80222 -4.19628 -0.586692 20
497 1 -4.40523 16.7248 11.576 11
498 1 6.88074 -9.63859 -0.612196 14
499 1 5.79891 -5.65612 11.474 19
500 1 4.60975 -12.4157 -0.0217024 13
501 1 -15.4915 4.22663 9.1691 15
502 1 -13.5756 -5.61731 0.847441 14
503 1 -16.8566 0.244917 14.0392 8
504 1 12.8125 0.537512 -1.67621 15
505 1 -7.02621 5.34419 11.8643 21
506 1 -15.3529 8.40977 7.10085 15
507 1 6.08633 -0.571644 7.48647 22
508 1 -0.158493 10.9397 1.5681 22
509 1 8.08129 2.76173 1.98232 19
510 1 6.37877 7.24356 4.33026 24
511 1 -16.007 4.66951 4.08899 18
512 1 -13.8647 -7.00935 -1.60082 11
513 1 5.58877 9.72894 -5.8162 14
514 1 -0.0768026 0.165774 18.4129 14
515 1 -3.93816 -3.89972 14.8064 18
516 1 3.24535 -0.139576 -7.3413 11
517 1 -8.45777 7.82469 2.07255 22
518 1 1.03703 10.5872 10.1093 21
519 1 -9.04098 -3.14196 12.7504 20
520 1 8.47435 7.25305 -3.73659 13
521 1 2.8529 -13.6505 5.24131 14
522 1 5.68662 7.11463 -0.744348 18
523 1 -6.25031 6.52094 -6.61989 15
524 1 -1.53525 3.26337 18.1259 16
525 1 1.53942 9.21731 -8.7834 16
526 1 -11.1934 -1.51216 4.72849 20
527 1 -9.27541 -9.65925 1.81297 16
528 1 13.5042 3.81853 -1.97321 13
529 1 13.4164 -8.19314 4.51903 9
530 1 -9.72449 3.70064 15.9315 15
531 1 2.53229 -5.9797 7.63111 21
532 1 14.2506 -0.612945 2.506 15
533 1 13.5084 0.6478 12.3956 14
534 1 -1.44059 14.621 12.3276 17
535 1 -10.1992 6.78665 17.6735 12
536 1 -5.00148 -11.1945 15.5257 12
537 1 8.09924 4.18118 9.29065 19
538 1 6.54281 5.98626 17.4109 16
539 1 -15.4027 1.95168 0.678157 18
540 1 13.4965 -3.21574 4.30243 11
541 1 3.17656 11.7174 7.14827 22
542 1 8.19219 3.26189 17.3165 16
543 1 -5.32979 19.6362 6.58117 9
544 1 3.3051 -8.3707 9.51772 23
545 1 -10.3753 -0.086959 2.00688 21
546 1 1.13652 4.57354 15.0294 18
547 1 3.02869 13.304 9.73704 19
548 1 -10.9985 -10.5104 10.1762 12
549 1 13.4929 -1.0019 6.96905 13
550 1 12.9052 -5.911 7.51087 13
551 1 10.1657 7.70968 14.4256 16
552 1 -8.89623 -1.03638 -0.866227 24
553 1 -7.05531 5.05229 -3.5436 24
554 1 -5.6487 -3.24044 12.5433 21
555 1 -1.72016 16.1998 9.93877 17
556 1 12.0999 3.11163 4.9825 16
557 1 4.62209 13.506 0.061889 17
558 1 -1.19209 9.23744 18.0281 16
559 1 4.77523 8.91821 17.467 12
560 1 5.04819 -1.59017 -6.3591 15
561 1 -6.07265 -10.3705 9.95749 17
562 1 11.3562 5.03966 8.89668 19
563 1 -1.17265 -4.66568 -6.10167 21
564 1 -3.70253 -6.06669 2.1333 21
565 1 7.59845 -4.33204 0.733644 12
566 1 1.30895 -2.94035 18.4142 11
567 1 -1.36816 -9.45045 -3.05233 16
568 1 4.48198 13.6324 13.9468 17
569 1 -14.813 8.10807 12.9216 12
570 1 9.68768 11.5192 -0.516655 12
571 1 0.993723 3.05798 -8.67624 9
572 1 -7.06961 9.76919 14.7748 22
573 1 2.51343 10.4697 -4.93268 21
574 1 7.92307 -1.19585 4.8353 22
575 1 -12.1636 2.51898 7.23785 22
576 1 9.47233 7.79675 4.11916 22
577 1 -13.7936 -4.69356 8.74326 17
578 1 5.06831 8.26877 12.3508 23
579 1 -12.9122 -3.89034 -2.39599 21
580 1 -13.6137 10.5211 14.1059 7
581 1 -3.03678 5.7897 -8.19487 12
582 1 9.03132 -5.98601 -3.79547 10
583 1 -14.9283 -1.48787 -2.22944 15
584 1 11.2826 -3.46335 7.19033 20
585 1 -13.6799 5.1189 6.96063 21
586 1 -7.05636 -4.28364 4.71328 18
587 1 -8.72709 -7.06366 9.82107 18
588 1 14.873 -1.92979 10.0611 5
589 1 10.2221 2.10286 8.565 21
590 1 -10.2293 11.47 6.83208 21
591 1 0.00219713 11.5035 12.5298 23
592 1 4.60194 7.47078 -3.7181 20
593 1 -4.75539 14.3929 13.1809 12
594 1 9.30311 13.2465 4.2825 15
595 1 0.678621 11.8459 17.776 13
596 1 2.79876 -6.13763 12.7036 19
597 1 5.53646 14.5557 -2.43065 10
598 1 -8.73405 -1.40569 15.292 20
599 1 -7.31602 -7.34518 -2.12979 18
600 1 -13.4121 0.947569 4.72909 18
601 1 -2.67035 -11.2463 13.4543 16
602 1 4.52459 2.97669 12.4878 23
603 1 -1.62041 -7.49807 -0.32441 21
604 1 -13.9813 10.4585 1.27223 19
605 1 10.2591 4.9097 -3.09329 17
606 1 -12.8481 13.0352 8.81795 12
607 1 -6.6887 -0.108374 12.2874 22
608 1 -0.393207 -11.7965 0.522013 14
609 1 1.76785 -9.23405 1.88617 21
610 1 3.53937 -11.5254 7.96685 19
611 1 -3.8775 10.9392 -3.27205 21
612 1 14.8668 2.29747 0.311392 11
613 1 6.59261 13.8562 3.39929 14
614 1 7.7604 1.63251 7.15199 20
615 1 -7.19008 12.2912 -2.53448 18
616 1 -3.3361 -6.24326 13.2812 23
617 1 3.63329 10.8431 1.57029 19
618 1 4.80053 3.99711 -0.679034 21
619 1 -12.0001 5.07071 -0.608553 19
620 1 -13.1021 -8.57934 12.3723 14
621 1 3.57127 11.303 12.251 20
622 1 -1.34412 -13.4232 10.0692 12
623 1 1.18278 10.0736 -0.900019 23
624 1 -7.41794 7.68684 18.0894 16
625 1 -17.2316 2.4204 11.1434 10
626 1 8.24096 4.2898 4.41131 19
627 1 -1.74516 -2.99567 16.6466 15
628 1 4.88743 -9.16941 12.3747 17
629 1 8.19668 10.359 9.24954 25
630 1 4.37846 -10.3162 -2.48842 13
631 1 -11.8169 7.3891 -4.83289 11
632 1 -5.45742 9.83035 -1.06849 21
633 1 -15.4128 9.49514 -1.34935 8
634 1 10.1538 11.6332 7.40354 18
635 1 1.64112 14.3857 12.3451 18
636 1 -6.51991 -6.94262 1.60884 17
637 1 11.5176 3.27234 17.0925 13
638 1 -7.19859 -4.4102 10.0073 20
639 1 9.73026 0.367305 0.460143 15
640 1 8.9635 -7.02842 4.05555 20
641 1 0.265775 1.01657 -6.33256 18
642 1 -7.27265 1.1421 -9.47132 12
643 1 -10.7297 -4.74733 9.61823 22
644 1 -10.4628 7.55882 -0.722183 18
645 1 -7.8332 4.15911 18.4192 12
646 1 8.39934 -8.60969 14.6932 5
647 1 -10.0246 -10.0719 13.1735 12
648 1 9.93984 5.1682 6.25703 20
649 1 -0.285014 7.02659 -6.57126 18
650 1 13.4641 7.66348 10.2327 17
651 2 -13.0012 -7.34844 0.135487 10
652 2 -6.96354 11.4478 3.61401 21
653 2 -3.16394 -0.203782 -7.39959 12
654 2 -3.26898 4.21009 18.3577 12
655 2 -14.5013 -5.57155 -2.74616 13
656 2 1.57181 2.82895 14.2945 22
657 2 -15.2294 1.53225 4.23931 16
658 2 -12.2759 8.34046 3.80098 19
659 2 -1.10016 12.8497 17.7499 15
660 2 -13.8205 -0.288725 9.16603 21
661 2 8.14578 10.5036 11.6821 20
662 2 -11.9241 -1.27415 1.44562 21
663 2 -10.4365 5.48474 3.90015 21
664 2 -3.4688 -6.31514 9.45793 21
665 2 -5.26869 8.92145 14.7087 20
666 2 9.33633 2.20029 0.449706 13
667 2 0.229599 -13.4321 11.0495 13
668 2 -10.2358 7.15794 1.415 19
669 2 -10.3833 6.42323 -4.58083 17
670 2 6.70746 7.45056 11.357 22
671 2 12.8911 -7.6677 6.40416 10
672 2 -8.89673 -7.06882 7.69983 20
673 2 -8.89842 -3.33486 15.0098 16
674 2 -2.6721 -12.0592 9.84504 16
675 2 10.3046 -6.6243 10.7863 10
676 2 1.0845 -9.18412 -4.95918 12
677 2 8.56569 -0.800211 17.1836 14
678 2 3.77882 6.8771 -9.33781 13
679 2 -9.60527 -11.0279 3.31417 14
680 2 -0.8831 7.72546 16.7952 15
681 2 -9.98631 16.626 8.52066 8
682 2 -6.07763 3.92247 18.1173 12
683 2 -5.45957 9.83771 0.880337 23
684 2 9.04107 -7.66028 5.88722 19
685 2 -5.6174 10.7659 11.4673 21
686 2 -0.551085 14.9486 -4.39515 12
687 2 2.64856 -4.1178 1.27115 23
688 2 -2.08736 -3.19572 -1.23121 22
689 2 9.14415 -1.93391 -2.69628 17
690 2 -11.0719 1.17682 16.5092 13
691 2 -1.60419 8.48778 -6.82255 17
692 2 -5.28237 9.15468 -5.49115 13
693 2 9.67649 7.78864 2.17871 19
694 2 -7.49356 -3.92341 17.3639 12
695 2 -11.5212 14.3528 9.36902 10
696 2 9.94807 1.42755 -4.66623 14
697 2 -2.31904 -8.46645 -6.80619 11
698 2 -13.7004 -4.58988 6.95612 19
699 2 9.08697 13.3399 13.8221 10
700 2 -1.51766 14.5921 14.3543 18
701 2 -3.29461 -12.0406 -2.27102 12
702 2 -1.49779 16.6932 11.842 16
703 2 -0.643696 -5.306 15.7159 16
704 2 6.4747 -0.371501 9.71415 19
705 2 -12.1291 2.22555 3.90647 20
706 2 7.64392 -10.9708 5.88833 12
707 2 7.63005 -12.5823 3.33243 11
708 2 3.09511 13.2153 11.6956 20
709 2 4.05553 -7.21811 7.59147 19
710 2 11.5199 -4.83818 8.43663 14
711 2 -13.1319 -4.82485 14.8447 13
712 2 11.5932 -9.04771 4.54568 14
713 2 -3.73161 11.4864 9.47992 20
714 2 9.37112 7.89596 16.1798 14
715 2 -8.51141 5.71969 17.9753 13
716 2 5.35197 10.1988 11.6285 20
717 2 14.0444 -1.53856 8.65106 11
718 2 3.5851 8.67 -5.09891 17
719 2 -13.253 -0.664758 -1.37515 23
720 2 -10.415 1.41503 12.3447 17
721 2 3.14812 4.95647 -1.4222 21
722 2 -9.671 0.258679 -2.02785 21
723 2 -17.0962 3.73269 8.30337 12
724 2 -9.13547 -3.56616 9.63977 20
725 2 9.86149 5.83854 4.40379 23
726 2 -0.319284 -4.00221 12.7827 17
727 2 3.55267 2.28424 17.813 14
728 2 4.8303 -0.698088 -4.34411 18
729 2 1.88721 5.14088 18.9351 13
730 2 -7.05392 11.4786 16.824 11
731 2 -11.9 4.34461 6.41616 22
732 2 4.80453 -12.7592 1.94628 14
733 2 6.7321 1.35568 1.34781 17
734 2 -13.9602 6.18532 14.7402 12
735 2 -0.65001 -12.9976 8.2557 15
736 2 8.49334 -3.82576 -0.809151 11
737 2 -1.89377 10.5014 11.8079 23
738 2 7.7918 -6.17243 0.93692 15
739 2 6.88973 0.278373 14.2964 18
740 2 -13.4946 -4.23774 2.20577 17
741 2 9.75038 8.70208 5.93922 20
742 2 -10.1359 -10.0075 8.56511 16
743 2 4.40575 8.02246 -1.82781 18
744 2 0.0527901 -10.5221 1.67181 20
745 2 4.25466 -3.28566 -2.16778 19
746 2 5.55144 -11.221 -1.18118 11
747 2 7.99043 -1.13786 7.11035 20
748 2 -5.35506 14.7901 9.20124 18
749 2 12.9293 5.26373 -0.766896 11
750 2 -7.50631 -10.8131 1.06134 14
751 2 -14.9862 -3.39559 13.6372 12
752 2 -7.14765 -3.84638 6.83483 19
753 2 -7.09491 -6.60378 5.02446 20
754 2 -8.59958 13.9938 3.60999 18
755 2 -14.9824 10.1097 6.1734 13
756 2 11.4622 10.1957 7.87769 20
757 2 1.41932 7.93793 -1.5299 20
758 2 -5.89875 6.5769 16.7791 17
759 2 -5.81342 2.10707 -5.28466 17
760 2 -16.9846 5.81924 3.06268 14
761 2 -10.3543 6.51893 15.6263 15
762 2 -14.5249 6.35947 12.2145 14
763 2 4.79675 14.0141 9.73132 19
764 2 7.70652 8.53224 3.98498 23
765 2 7.5753 -2.99985 4.58845 19
766 2 -17.5501 0.775006 12.3568 7
767 2 -0.0383484 13.4974 6.34265 21
768 2 -8.0129 15.8287 1.15009 13
769 2 -10.7023 7.42016 6.45664 21
770 2 10.3418 -8.87005 8.08254 11
771 2 -6.67928 -6.67243 -0.210724 17
772 2 6.16971 3.57096 -5.16461 17
773 2 11.9113 8.72988 10.5248 16
774 2 -13.3514 -2.07999 11.985 17
775 2 -1.90041 9.98901 1.53492 22
776 2 -7.05458 10.7505 -1.45951 21
777 2 -0.0272898 11.1202 3.58592 21
778 2 14.102 -0.729588 11.3715 9
779 2 -2.7873 11.5911 15.6402 18
780 2 13.1513 -2.0598 1.83594 12
781 2 -8.25964 2.80774 14.9089 18
782 2 2.8004 0.351964 14.1416 19
783 2 -16.296 0.488646 -0.405417 15
784 2 -6.2134 -4.74964 -5.64814 19
785 2 12.5778 -7.05958 3.34105 11
786 2 -0.122372 -0.961237 -6.22702 15
787 2 12.2318 4.70086 5.88699 14
788 2 -9.04593 2.90142 17.6006 11
789 2 6.03403 5.64801 -7.48851 12
790 2 -10.2837 -6.54287 14.247 18
791 2 -8.65553 2.39412 -9.32116 11
792 2 1.24114 -7.22669 1.97994 22
793 2 9.14597 -10.4141 2.75443 12
794 2 12.6121 11.479 5.26907 13
795 2 -13.2813 6.16342 -4.72935 10
796 2 -5.95186 15.858 11.9093 12
797 2 -10.6303 -6.67918 10.0901 22
798 2 -11.8406 3.39938 -4.28847 16
799 2 5.94342 12.9777 -3.42661 13
800 2 1.05836 14.9903 0.124892 18
801 2 -8.35646 -12.5881 6.16991 15
802 2 14.2606 2.26988 14.9231 10
803 2 -5.32703 2.52897 14.3958 19
804 2 -8.08421 -9.85798 -2.24102 13
805 2 7.54334 -7.84754 3.02397 19
806 2 0.832779 7.52653 19.296 11
807 2 0.910522 15.5459 17.4658 9
808 2 6.65372 -1.18139 -0.876445 16
809 2 6.62449 2.30799 17.1544 17
810 2 11.6075 9.1156 3.50548 17
811 2 -15.2151 -0.55141 14.0475 12
812 2 4.5129 -3.1416 4.2514 21
813 2 -3.56378 17.2364 9.84405 13
814 2 5.25271 8.57547 9.01363 22
815 2 -11.5626 12.6466 -0.859901 14
816 2 5.17102 -0.5578 16.5051 20
817 2 -13.1703 11.33 9.21663 13
818 2 -1.55627 -6.69187 12.907 21
819 2 6.26746 -3.90575 11.9427 20
820 2 -4.31291 -14.3817 -0.131639 6
821 2 -5.96763 13.8964 -2.08148 15
822 2 -13.2625 -4.18466 -5.21047 9
823 2 -3.11394 -13.928 6.88394 13
824 2 -0.261901 1.2933 -4.12699 18
825 2 -4.80632 -7.33818 -2.79261 15
826 2 3.4702 7.6352 17.0161 16
827 2 -11.9794 -3.28621 4.58139 20
828 2 -11.792 8.10959 10.0271 17
829 2 12.0202 -0.172315 12.7472 15
830 2 -12.2222 10.703 6.17035 21
831 2 -5.86736 -11.7569 4.42726 16
832 2 -4.18302 1.10842 17.5081 12
833 2 3.09522 -0.818779 -1.68776 20
834 2 -5.92285 -2.87917 -8.58815 13
835 2 5.29986 8.25615 -6.98261 15
836 2 11.0676 -2.76926 3.59026 18
837 2 -6.94005 -0.70105 -0.997901 22
838 2 -13.6326 6.85729 1.80141 18
839 2 -8.02014 13.1771 11.0209 14
840 2 -4.78899 -2.07486 17.4494 14
841 2 -7.44944 0.406162 -3.93976 23
842 2 4.7535 -1.62353 1.18696 19
843 2 5.08817 1.845 -1.06738 17
844 2 3.52704 11.7641 14.3181 20
845 2 -1.39207 -12.5744 13.9719 12
846 2 -1.84901 -1.60296 -3.86726 21
847 2 10.2929 5.31704 13.9144 21
848 2 9.89362 -1.0758 -5.636 12
849 2 -1.60086 -7.78635 1.56187 20
850 2 2.04191 10.594 -6.81127 16
851 2 2.70607 15.0207 13.9109 12
852 2 11.7847 1.42933 9.85982 20
853 2 -16.5575 -1.49998 11.0751 14
854 2 -15.5768 3.91931 5.97941 19
855 2 2.89701 -9.51081 15.5955 12
856 2 -1.98797 3.64806 -4.53425 21
857 2 -16.2135 -2.2912 6.89468 12
858 2 -13.4637 -6.48351 9.18772 13
859 2 -6.75946 -12.0773 14.552 9
860 2 -12.7106 13.5677 6.95828 11
861 2 -5.03399 -7.93528 -5.97246 14
862 2 -13.9823 5.13823 3.91054 21
863 2 2.21518 -6.03062 16.6161 12
864 2 -13.3351 -6.69712 4.63235 13
865 2 -10.3455 -0.270324 9.78564 20
866 2 4.78947 -7.08646 12.5872 19
867 2 3.29208 12.7679 1.53759 19
868 2 10.0221 11.9343 9.35927 17
869 2 8.14439 11.0852 6.91657 18
870 2 -0.401792 18.4537 0.630604 13
871 2 -8.47904 2.38084 -1.33585 22
872 2 4.54025 10.5932 16.5364 16
873 2 -11.7156 -5.18907 11.861 20
874 2 -10.1363 1.65455 6.93068 23
875 2 -5.68056 16.6958 -1.2162 12
876 2 1.69745 -13.2608 3.33142 14
877 2 8.25556 -1.02994 11.6569 18
878 2 8.64882 -3.06165 9.91887 19
879 2 -5.68151 18.9001 4.80127 12