ITEM: TIMESTEP
1000
ITEM: NUMBER OF ATOMS
1500
ITEM: BOX BOUNDS pp pp pp
-30.0 30.0
-30.0 30.0
-30.0 30.0
ITEM: ATOMS id type x y z Coordination
1 1 1.26779 -11.6834 -7.66621 17
2 1 9.81234 -9.56312 5.85299 14
3 1 -10.7607 7.23552 -2.14298 20
4 1 -8.7726 3.01185 -7.82742 15
5 1 -2.30797 -9.67504 10.2239 19
6 1 -7.78143 1.27562 -10.5248 14
7 1 -3.05427 -15.6201 4.89293 9
8 1 -7.65757 -7.32621 9.24413 15
9 1 0.823746 1.40174 15.4283 14
10 1 -0.1617 5.71484 7.53863 24
11 1 1.78319 10.7538 -11.4402 14
12 1 4.11397 -2.24319 14.698 10
13 1 13.8874 4.29655 8.39772 17
14 1 3.89357 8.48119 -12.0812 14
15 1 2.42752 3.51801 -15.963 8
16 1 -1.73194 -3.63463 -8.40176 21
17 1 6.92533 -11.2188 7.64701 15
18 1 12.7222 -10.5531 -0.0347715 11
19 1 -2.97412 -15.723 -4.40917 11
20 1 -1.04449 -8.60927 -13.6641 10
21 1 2.01976 3.7943 16.0277 11
22 1 2.05374 -13.7168 7.77602 11
23 1 7.54663 -6.21656 13.0861 14
24 1 -10.8511 -2.44365 1.26672 23
25 1 -8.50429 -0.864955 -0.119423 24
26 1 -7.87204 12.2802 -5.07247 14
27 1 2.00275 0.567686 -10.613 17
28 1 2.40275 -3.60433 -11.8547 14
29 1 -1.96925 -2.03022 11.9563 21
30 1 -9.77933 5.50906 0.917862 18
31 1 4.54582 10.4261 8.75806 12
32 1 -10.2583 11.2282 -7.14824 10
33 1 -2.88527 12.3027 -3.13793 20
34 1 3.02468 -11.6038 2.05525 16
35 1 8.49889 -8.36942 -4.25863 25
36 1 -6.85471 5.9856 12.0663 18
37 1 -12.2126 -2.72967 -7.41528 12
38 1 8.00872 -1.18929 4.97186 19
39 1 -5.95132 12.0099 -3.04078 20
40 1 -5.98582 -9.74481 9.78502 15
41 1 -10.6919 5.5543 -8.08689 14
42 1 2.96517 5.99325 7.20464 22
43 1 7.71152 -13.5487 -1.28073 16
44 1 6.56435 4.14216 15.0639 11
45 1 12.3011 -3.80394 -8.53524 14
46 1 10.3475 -10.4534 3.49305 8
47 1 4.62031 -6.26349 11.2772 15
48 1 -8.54744 -12.8297 5.61215 13
49 1 -8.23602 -2.78626 2.67774 23
50 1 14.3323 1.31199 7.71725 16
51 1 6.03378 -5.4589 -3.22108 21
52 1 -1.99076 9.73341 10.5927 12
53 1 2.76248 -3.81011 10.1382 18
54 1 1.39342 -8.39388 -7.87217 20
55 1 -8.50221 14.4751 -3.23794 14
56 1 -3.71994 7.53614 -5.41445 22
57 1 6.28159 -3.85583 -5.74744 21
58 1 6.42417 -3.99168 5.0833 23
59 1 3.21567 -10.7731 8.54481 15
60 1 -11.0382 12.5324 -4.1441 11
61 1 -8.68611 11.0548 4.20069 15
62 1 -3.32062 8.04316 4.52048 20
63 1 -7.95179 -11.996 13.5409 7
64 1 14.4615 -6.30124 -3.47307 12
65 1 -9.91763 2.52898 4.81084 19
66 1 10.8007 -8.9706 -1.8802 21
67 1 4.34928 1.10183 -15.2792 13
68 1 -7.71608 -3.38799 -9.60609 16
69 1 -1.45707 10.6115 -0.594692 24
70 1 -9.67312 8.41178 -7.31549 15
71 1 2.58227 11.2406 -8.06094 17
72 1 1.48838 8.57957 1.91093 22
73 1 -4.55947 -6.83006 11.2707 16
74 1 -1.42561 -7.31816 -6.22477 18
75 1 4.00884 -10.1972 -8.41107 14
76 1 -0.183999 3.35927 9.86347 21
77 1 -11.841 -5.88467 0.254637 19
78 1 -10.1999 -9.83579 0.18896 16
79 1 11.1264 -7.09432 4.28809 19
80 1 -4.62868 8.82802 1.81174 21
81 1 5.41064 4.50488 -15.0874 9
82 1 7.00539 7.66601 -6.25977 19
83 1 8.85628 -7.57078 -1.24526 19
84 1 -1.47835 -13.7668 8.00589 10
85 1 -10.2144 -8.06383 7.19961 16
86 1 -14.3645 -5.1307 5.12184 10
87 1 9.05757 10.5355 9.76791 11
88 1 -4.62086 7.59927 12.4389 14
89 1 -1.44789 13.4824 -0.401874 17
90 1 -1.62106 -4.71728 -12.3335 16
91 1 10.2015 -4.06581 12.5093 12
92 1 1.37813 9.04222 -5.98688 21
93 1 13.9167 1.29722 -5.24551 12
94 1 -11.1879 8.92626 -4.35024 19
95 1 -6.16035 12.9264 2.41846 19
96 1 9.72661 0.943298 -8.05612 18
97 1 9.45914 -5.40092 2.02398 19
98 1 -5.6272 4.13306 -5.47951 19
99 1 4.57972 12.8122 -1.66966 19
100 1 11.3056 7.31469 0.062777 18
101 1 0.465246 13.0749 -6.30821 14
102 1 -8.51259 -8.40197 -8.29416 21
103 1 1.06028 14.1405 7.77243 11
104 1 -11.5035 -2.16933 -2.37062 19
105 1 14.8441 -3.61323 -3.31105 10
106 1 -1.83451 8.69719 7.43666 19
107 1 -1.32594 10.4168 -5.85107 21
108 1 3.86359 -4.88485 13.1565 15
109 1 -11.4708 -5.40116 6.03061 16
110 1 -3.45561 -9.65617 5.32822 19
111 1 2.62498 -14.4795 -3.33453 17
112 1 -4.06575 10.1537 -10.5045 11
113 1 12.2073 10.0012 -0.805381 16
114 1 0.523264 -9.49691 9.66843 16
115 1 -8.1214 5.396 -1.13934 22
116 1 2.14989 14.0483 1.80696 17
117 1 -1.24629 6.52435 10.6379 19
118 1 -8.92522 13.692 2.14179 13
119 1 -4.48185 0.737174 -10.8382 21
120 1 12.5645 -3.83542 5.09679 21
121 1 -7.19784 -5.14346 7.39437 20
122 1 -11.6282 6.2799 5.90014 12
123 1 -7.27149 -11.1682 3.36115 21
124 1 -13.6575 2.5508 -4.34283 14
125 1 -2.55598 -12.9543 0.637738 16
126 1 5.45958 -8.91551 -3.31134 22
127 1 -1.58323 11.8393 8.00652 14
128 1 -8.45389 -0.817265 -6.18203 17
129 1 -0.848992 16.1728 -5.66739 9
130 1 -12.4271 -4.52035 -4.17735 19
131 1 -8.57353 -1.28266 8.90049 20
132 1 -0.123835 -11.8352 1.93778 21
133 1 5.839 -12.2461 10.2127 9
134 1 16.1233 0.687148 2.68111 9
135 1 6.81906 5.59119 -4.26159 22
136 1 5.47225 2.66008 11.5592 20
137 1 -3.66616 4.42041 -10.8537 20
138 1 10.0749 1.3786 -12.1338 11
139 1 -6.67569 -5.35288 -3.39925 23
140 1 -2.17357 13.322 -7.0489 10
141 1 -5.54142 15.2281 -2.82979 13
142 1 7.77045 3.21224 7.52823 20
143 1 -5.25569 -3.41421 -13.6543 14
144 1 -0.668316 10.1083 -8.66638 20
145 1 3.00278 5.75363 -9.98633 22
146 1 -6.11122 5.25968 8.37892 21
147 1 -6.48646 3.01477 14.7157 12
148 1 0.762287 -9.8832 -10.5814 13
149 1 -9.22395 -12.7873 2.25557 12
150 1 12.1773 -12.5433 -2.15908 12
151 1 5.85712 10.4118 -6.69872 17
152 1 -1.59639 8.95608 -3.09285 23
153 1 -13.7353 2.33773 -1.3346 14
154 1 1.62732 5.82082 10.5789 20
155 1 12.5166 4.37886 -0.298908 21
156 1 1.71508 8.88754 7.26276 16
157 1 -9.76239 7.6557 3.93283 17
158 1 -8.68488 -8.9281 -1.98264 19
159 1 7.52829 3.60493 -9.69818 21
160 1 4.66133 -0.675787 10.6333 17
161 1 7.87539 9.10043 -10.4348 12
162 1 3.23746 -9.35527 -5.592 23
163 1 -2.78104 -2.25786 -11.7701 16
164 1 8.06019 -1.16061 -5.9522 18
165 1 -9.02264 -3.06551 6.53287 20
166 1 4.37132 -14.3267 -0.502408 15
167 1 -9.55895 -7.19437 -11.1363 14
168 1 7.33077 14.5734 4.06236e-04 12
169 1 -2.92649 1.56464 -12.791 17
170 1 4.47275 1.35741 14.5414 14
171 1 15.7548 2.85524 -0.423771 16
172 1 11.886 -6.75425 -8.73213 10
173 1 -8.55322 -5.73127 -6.87443 19
174 1 -11.7273 0.188123 -7.06727 9
175 1 12.9278 -3.35403 10.7308 10
176 1 4.61878 -2.862 7.88617 23
177 1 -7.23985 -9.6465 -10.6562 13
178 1 1.81578 -8.79285 6.36927 23
179 1 1.45648 8.24341 -9.11424 22
180 1 6.84345 5.56423 2.44415 19
181 1 -7.01221 -5.87308 2.33415 21
182 1 3.85331 11.5782 1.15983 23
183 1 -7.18977 -3.99906 10.2785 16
184 1 -11.3638 -10.3098 -6.43095 11
185 1 -5.14202 -8.29249 -10.047 20
186 1 -7.72449 -9.66045 -5.11573 23
187 1 -2.24426 -8.60604 1.89448 23
188 1 15.3379 3.64923 5.53859 14
189 1 -10.4012 -3.47462 11.6823 8
190 1 -3.10611 -9.95624 -0.94125 19
191 1 -0.344754 -15.2181 4.07411 12
192 1 0.345945 16.2427 -2.41056 13
193 1 7.55003 0.798473 -10.2579 15
194 1 -7.62744 -2.81683 -14.7636 8
195 1 1.58315 -12.3742 -1.00909 21
196 1 -3.75457 -10.4489 -11.5455 13
197 1 -6.30123 8.0467 -6.03875 18
198 1 11.2411 5.65487 8.86416 20
199 1 -3.03706 0.0912864 -8.09931 19
200 1 -1.29487 7.14113 -7.34785 22
201 1 3.67295 18.3288 1.64913 5
202 1 0.384545 11.4231 1.74866 24
203 1 10.0804 -2.30419 4.8155 19
204 1 -8.39478 3.70856 7.02371 19
205 1 -2.38664 -4.04149 14.1172 9
206 1 -4.73689 11.0507 3.82074 17
207 1 0.607446 -6.85267 -11.4862 14
208 1 3.23835 -9.39188 -0.58784 19
209 1 -6.07666 -6.95771 14.4803 7
210 1 -11.3849 -7.14524 10.1529 8
211 1 10.9642 -2.69077 -3.38233 20
212 1 7.24448 -4.40293 -10.8047 13
213 1 13.8897 -9.49701 -2.83339 12
214 1 -4.11966 14.4548 0.237215 15
215 1 9.74748 5.03545 14.0023 14
216 1 -10.883 -2.51574 4.39689 22
217 1 11.4233 -10.838 -4.46377 15
218 1 -3.00818 11.8241 1.5795 21
219 1 -6.67853 8.36493 4.58469 21
220 1 8.69142 -11.5225 11.0497 9
221 1 14.7691 -5.53377 8.32267 11
222 1 -3.67414 5.76282 7.27257 21
223 1 -8.31907 -6.74616 -0.817315 20
224 1 -1.50023 2.82874 13.0006 19
225 1 -3.01187 13.5438 5.08521 15
226 1 -12.2672 2.76349 10.9415 11
227 1 -12.691 4.03027 3.62289 11
228 1 -3.45167 -6.09221 -8.18819 20
229 1 -8.36074 11.7415 -0.462516 20
230 1 9.09377 0.0507813 7.97657 18
231 1 -10.0636 -10.0062 4.77005 18
232 1 10.5675 -9.42191 9.61576 11
233 1 -13.6342 7.7465 -1.16016 13
234 1 -0.244421 -3.63589 9.92466 19
235 1 3.60264 -13.0785 -6.34305 13
236 1 -4.86544 -3.34432 -9.3356 19
237 1 9.19914 -1.17133 -11.0089 15
238 1 7.4063 13.6374 3.06402 15
239 1 -9.6098 0.551669 -3.18499 21
240 1 5.92064 -7.31433 -9.67813 12
241 1 -3.17494 -15.7641 -1.36385 12
242 1 -13.8725 -5.63982 -2.1549 14
243 1 -5.41293 -8.55389 3.11576 21
244 1 7.458 9.30336 -4.19948 26
245 1 -8.17112 4.94409 -10.7319 11
246 1 -10.133 -5.42199 -2.41549 21
247 1 -6.77136 8.35778 9.73809 17
248 1 -11.6659 10.4107 -1.59456 16
249 1 -8.27894 5.44341 4.36817 20
250 1 9.65688 -3.78997 -6.68775 21
251 1 15.7983 1.31424 -3.22359 12
252 1 1.4681 -9.20816 -2.90522 23
253 1 -1.49252 10.6582 4.52651 19
254 1 -8.06761 3.15235 -4.14343 21
255 1 4.08212 -11.8242 -3.06241 22
256 1 12.0323 -0.354069 9.75712 15
257 1 -6.71659 -3.76132 -5.55897 20
258 1 -3.68205 -11.4354 2.85594 22
259 1 -1.4695 8.65197 2.05625 23
260 1 -11.7534 -8.28908 -2.15685 17
261 1 -11.185 3.93661 -2.94782 21
262 1 5.42733 11.5779 -11.402 12
263 1 3.9347 13.3768 3.88178 18
264 1 -13.7283 -8.35895 0.161242 11
265 1 -3.28664 -9.9877 -4.96404 21
266 1 -13.6485 0.57748 8.48572 10
267 1 -7.97683 9.12855 -3.74625 17
268 1 5.28521 -8.64066 7.17745 16
269 1 -7.06425 -11.9868 -2.74291 16
270 1 6.61489 5.63117 -12.7656 12
271 1 -7.70317 5.75262 -7.59045 17
272 1 -1.84862 -12.5878 4.56809 20
273 1 11.8689 12.0178 8.22301 13
274 1 -5.31011 -1.2411 10.4139 21
275 1 -12.7862 -0.471905 -4.22881 14
276 1 -8.30805 6.74644 7.41852 17
277 1 -5.22954 -12.6216 5.61231 15
278 1 6.80189 -9.07669 -6.99016 18
279 1 -13.7491 5.12293 0.180112 11
280 1 -0.274576 -5.58923 7.83779 19
281 1 9.2262 -11.677 -6.28529 12
282 1 -2.11916 -7.60615 -10.1897 19
283 1 -4.8153 -7.8831 7.78154 21
284 1 1.28413 -7.25515 -5.24077 22
285 1 -4.16813 5.7418 -7.51502 20
286 1 10.7097 -14.5002 -0.329305 8
287 1 0.0623297 12.3952 -3.26473 22
288 1 -5.34322 -2.51838 13.3993 13
289 1 -10.943 -10.3433 11.9957 7
290 1 8.70982 -5.43239 9.39158 19
291 1 4.49127 -2.1118 -10.2738 16
292 1 9.97131 -5.61314 6.21492 19
293 1 14.1086 7.20948 -2.04036 18
294 1 -4.25071 0.963729 12.5024 18
295 1 1.68376 10.7868 -1.07721 21
296 1 5.71361 -5.41804 7.88884 19
297 1 0.322535 -17.2314 -4.47714 7
298 1 -0.618785 16.1751 5.38755 13
299 1 -8.64753 -13.0029 -5.05217 12
300 1 4.76777 5.36296 10.3509 21
301 1 -7.02371 0.433686 7.81042 22
302 1 -5.35131 -8.9046 -2.90936 17
303 1 -10.6969 5.31364 12.26 10
304 1 -9.91381 -10.8129 -9.94176 8
305 1 -4.54183 10.6721 10.2016 15
306 1 -5.63293 -12.6596 -5.54908 18
307 1 -1.71443 -5.70053 -15.5597 6
308 1 -6.27479 -14.1859 3.57805 14
309 1 -6.55055 -3.62221 4.79322 21
310 1 8.11157 1.34461 10.7487 20
311 1 -8.46587 -8.82957 12.8684 7
312 1 -12.5056 8.46636 -7.04272 9
313 1 8.77743 3.1158 1.88893 21
314 1 -6.17039 -14.898 -3.29798 10
315 1 2.72241 15.9161 4.88551 13
316 1 1.8151 3.13048 -8.65827 23
317 1 -2.21036 6.71401 14.9507 9
318 1 -15.1779 -2.86381 -2.61048 14
319 1 5.45511 12.492 -4.31432 15
320 1 -5.576 -9.60182 -7.09384 21
321 1 -1.91535 -12.4581 -5.81528 18
322 1 0.445222 -2.9932 -10.66 20
323 1 -10.0917 8.43383 0.513394 21
324 1 1.87117 2.52436 13.022 17
325 1 10.6729 5.72387 2.46202 18
326 1 6.19902 10.097 -1.11726 17
327 1 -13.8946 8.35611 -4.00165 13
328 1 4.75147 4.45773 -6.95027 24
329 1 4.0465 -10.0591 4.77506 18
330 1 -16.1337 -1.17202 0.176507 10
331 1 -2.17894 6.23871 -14.2066 13
332 1 14.7337 6.18901 3.35846 11
333 1 6.06864 -5.84511 2.48239 23
334 1 14.1153 3.66985 -2.74807 18
335 1 -1.01827 2.35984 -10.683 23
336 1 1.69235 -8.65575 2.54883 21
337 1 2.93169 -15.1429 4.89724 11
338 1 2.83492 -8.49153 11.1872 11
339 1 -6.66566 1.25945 -5.38234 20
340 1 -1.41425 -12.3705 -9.2756 10
341 1 2.02526 3.40942 -11.3157 18
342 1 7.09434 -3.06827 13.6976 13
343 1 -12.9712 -3.95405 3.14106 21
344 1 12.4008 -4.44147 -5.16524 20
345 1 9.64026 -0.145506 -2.98256 20
346 1 -5.1793 10.6444 -5.42502 19
347 1 -0.200195 -9.86758 -5.36689 24
348 1 5.13708 3.52878 -11.2785 17
349 1 9.40989 -5.41999 -3.74537 17
350 1 -7.4324 -0.340872 13.2165 15
351 1 9.27123 12.0208 1.00387 11
352 1 -5.91917 3.03655 -12.3637 14
353 1 -8.74317 -0.643807 5.09265 23
354 1 1.42556 13.475 -0.740904 22
355 1 -8.88861 -4.10489 -12.1997 16
356 1 -13.3569 -1.01598 1.88313 16
357 1 -6.73084 -14.4855 11.4049 6
358 1 1.52225 5.95524 -7.27047 23
359 1 11.2266 4.83069 -2.98428 21
360 1 -12.0231 -10.5523 2.15843 11
361 1 0.0985074 -9.33923 0.235821 23
362 1 -7.39561 11.433 7.91137 10
363 1 0.14845 -5.8692 -8.68876 20
364 1 11.2295 -1.26733 -0.617379 22
365 1 5.32239 12.7716 -8.86768 11
366 1 4.57021 -6.64818 5.0706 22
367 1 -9.02827 4.33597 9.81299 20
368 1 6.3883 8.54989 10.9074 16
369 1 -1.87757 3.55008 -15.9483 8
370 1 -5.74403 -7.33365 -6.07837 19
371 1 0.832653 -0.579671 10.7679 20
372 1 9.93644 6.70476 11.6959 14
373 1 7.95154 11.9499 -6.18181 14
374 1 -10.2719 13.48 -1.05383 12
375 1 10.4182 12.7737 -0.950746 10
376 1 11.7507 -6.37215 10.7462 11
377 1 10.4005 3.18161 -9.99188 13
378 1 -14.6531 -6.64584 2.43138 12
379 1 -2.2133 0.999511 10.3502 20
380 1 -2.58558 15.712 -2.58846 10
381 1 6.4563 -9.72695 -0.74392 19
382 1 6.82449 -1.74466 -8.6174 18
383 1 -5.21777 13.9711 -5.35619 13
384 1 -7.07854 -6.02485 -13.2849 13
385 1 9.69461 -11.3817 -0.0828288 19
386 1 -16.4159 -4.2635 -0.206931 11
387 1 -9.93903 -5.05162 8.92287 16
388 1 6.94824 7.14412 -1.88323 17
389 1 2.74265 -5.81897 -9.84205 15
390 1 6.32472 -9.1322 11.4627 14
391 1 8.55554 3.1819 -3.21119 21
392 1 -10.6234 11.2741 1.2715 13
393 1 8.04896 -2.68289 -2.85956 22
394 1 4.0268 8.03078 12.5203 14
395 1 -0.40371 -0.419152 -8.90264 18
396 1 3.24583 12.2307 6.53794 15
397 1 9.05559 3.55456 -13.3374 11
398 1 -3.95201 -7.35798 -13.269 14
399 1 -3.44282 -12.9464 -2.67431 20
400 1 -10.3606 -1.72734 -10.1093 12
401 1 11.899 4.32278 5.7839 20
402 1 15.8052 5.48742 0.233447 12
403 1 9.94234 -8.69292 -7.22295 14
404 1 8.05744 -10.8907 -2.62038 21
405 1 6.14763 14.4458 5.80052 14
406 1 -8.44902 3.49826 2.00001 19
407 1 14.5794 8.33404 0.944005 10
408 1 14.976 -0.38694 -1.49302 13
409 1 11.6882 4.40808 -6.84651 17
410 1 12.7363 2.17267 10.9776 13
411 1 2.97842 -5.85889 7.47016 17
412 1 6.29058 -0.548429 13.209 17
413 1 13.5013 -1.48183 -7.11058 13
414 1 8.20276 6.3709 8.89311 19
415 1 -6.4597 -0.395895 -8.54162 19
416 1 16.5183 13.0989 8.43326 4
417 1 8.01011 -2.95183 7.88236 21
418 1 8.32803 -2.23351 10.8805 20
419 1 3.16617 8.29164 9.72136 17
420 1 9.53219 6.7533 5.82881 17
421 1 -4.89837 9.09461 -2.96944 21
422 1 13.6121 9.69689 -4.65921 9
423 1 10.2245 -4.28631 -10.8386 11
424 1 2.79542 16.6225 -1.13616 10
425 1 -0.807594 -14.1707 -3.20303 20
426 1 -11.9786 3.31013 6.8405 16
427 1 -7.0056 10.071 -8.72969 11
428 1 -3.7701 -14.6185 2.3827 17
429 1 -7.46536 -1.32516 -11.5135 18
430 1 -9.84998 2.54204 -1.06462 20
431 1 7.46397 -6.85503 4.3316 17
432 1 14.59 14.8235 10.324 4
433 1 -0.359029 -9.79666 4.33865 21
434 1 -10.1965 -3.48402 -4.97016 19
435 1 -4.70369 4.68218 16.6885 10
436 1 6.25027 6.16578 -9.48357 20
437 1 8.19117 4.07788 -6.98188 22
438 1 5.87876 -13.8539 -3.61752 15
439 1 14.7024 -1.44696 6.17091 15
440 1 8.24822 9.76604 6.64319 20
441 1 11.4205 -2.63753 1.97994 18
442 1 -3.44702 4.1637 10.0004 20
443 1 -13.6148 -3.54778 0.0643241 22
444 1 -10.489 -4.90636 -9.56964 16
445 1 5.9516 -3.61502 11.0401 21
446 1 0.128993 -9.31761 12.8131 9
447 1 3.8509 4.9546 13.2739 19
448 1 -4.73107 11.1638 -0.717493 19
449 1 8.90039 4.08656 4.46491 19
450 1 10.2826 8.61068 3.30964 14
451 1 0.223997 1.03818 -13.2153 18
452 1 -10.5047 1.01548 7.56998 20
453 1 11.0199 -1.40864 -5.9958 18
454 1 11.573 -7.52175 -4.89666 19
455 1 11.1788 2.32257 8.37308 22
456 1 0.274094 7.62417 4.9617 23
457 1 13.8981 6.61265 9.86237 9
458 1 1.24997 -2.67043 13.0239 14
459 1 -3.83065 4.87922 12.8224 19
460 1 -0.582608 -2.58131 -13.9017 13
461 1 -8.29289 1.07971 10.6006 18
462 1 9.69841 3.63661 10.6886 22
463 1 13.7273 8.37489 4.47042 11
464 1 9.45901 -14.2536 -3.70578 11
465 1 6.93558 7.97321 4.25322 18
466 1 11.6503 15.1589 8.73316 5
467 1 2.65332 14.3844 -4.04876 13
468 1 14.3729 10.4228 7.04613 10
469 1 -6.43963 -9.69053 0.172761 19
470 1 -5.10701 -0.189253 -13.5746 15
471 1 -7.19309 14.9339 -0.294145 13
472 1 8.68815 -6.23945 -9.16027 14
473 1 12.83 7.82382 -7.50886 10
474 1 8.98868 9.66121 -1.57027 19
475 1 -6.36447 6.34592 2.03239 21
476 1 10.9539 8.33747 -3.2491 24
477 1 -4.04051 -12.8803 10.1233 11
478 1 -4.56189 8.2023 -12.7803 12
479 1 6.71319 12.1169 7.48289 14
480 1 4.85829 3.19392 7.70649 22
481 1 10.4229 11.1193 -4.16893 16
482 1 9.35704 12.7211 7.48248 14
483 1 13.3451 -4.13881 -0.351665 14
484 1 -12.2238 0.423671 5.20711 17
485 1 2.08787 -14.749 1.77771 15
486 1 5.24359 1.26032 -9.07699 18
487 1 2.93929 10.4796 3.79536 17
488 1 -16.4035 -3.85988 2.3556 10
489 1 7.01731 -11.6876 1.41747 16
490 1 9.88632 9.35647 -6.4592 19
491 1 5.39824 -1.38969 -13.7712 8
492 1 4.75937 -12.8509 7.00716 16
493 1 4.78854 14.7395 0.894463 15
494 1 -7.65898 -3.84728 14.8701 6
495 1 -7.65852 -11.8484 -7.71213 14
496 1 5.23161 -6.73292 -5.77195 21
497 1 -1.45785 14.9528 8.37665 9
498 1 6.09728 -10.9166 -5.14393 19
499 1 8.33324 -8.00642 7.949 17
500 1 1.10849 -16.3778 -1.25964 12
501 1 -12.636 -2.32558 7.01515 13
502 1 -9.80231 -7.16564 -4.68996 22
503 1 -11.3661 -1.04672 10.0302 15
504 1 14.0927 4.25225 -5.7536 10
505 1 -5.26929 2.95709 7.48805 22
506 1 -12.3905 7.18744 2.25977 13
507 1 7.90612 -2.75327 2.55521 23
508 1 1.3474 9.16801 -3.2488 21
509 1 9.73899 2.08609 -5.38202 18
510 1 8.9801 4.71161 -1.12295 19
511 1 -11.4967 2.9435 -6.01257 13
512 1 -11.2869 -7.65163 -7.72853 14
513 1 3.15752 5.5088 -13.1069 16
514 1 -1.00317 0.0308613 13.7802 17
515 1 -2.5161 -7.4762 13.2696 10
516 1 2.0645 -2.74798 -8.40446 23
517 1 -6.52334 7.71557 -0.626309 19
518 1 3.59259 7.75704 4.45986 23
519 1 -8.58853 -6.81478 5.02852 19
520 1 8.94209 6.67456 -8.32151 15
521 1 -1.12341 -16.2072 1.16499 10
522 1 4.69189 9.22493 -9.55473 21
523 1 -5.177 2.71723 -15.4951 9
524 1 0.733861 -1.88852 15.4265 8
525 1 0.934549 7.83592 -13.0477 15
526 1 -9.3258 -3.83188 -0.476605 20
527 1 -8.87493 -8.68002 2.23476 18
528 1 13.1893 6.72301 -4.68658 14
529 1 13.5799 -5.0559 2.25345 16
530 1 -9.2836 2.68005 12.5031 15
531 1 5.2423 -8.72614 2.14932 20
532 1 14.1569 -2.12069 3.07188 15
533 1 15.898 -3.14967 8.65567 9
534 1 0.297385 13.6847 4.56746 19
535 1 -6.00413 3.39402 11.2555 19
536 1 -3.8499 -10.9268 7.91696 20
537 1 10.0565 1.38065 5.09229 22
538 1 7.44247 4.89483 11.875 21
539 1 -15.2371 -0.225515 -3.08736 9
540 1 14.0319 -7.25822 -0.683186 11
541 1 5.04101 8.68395 1.94946 19
542 1 8.08402 1.88581 14.1208 14
543 1 1.86899 18.8623 4.74149 5
544 1 5.10852 -12.8788 3.46098 15
545 1 -8.04901 -2.3483 -2.71225 24
546 1 3.2879 2.49649 10.2763 17
547 1 5.80738 10.8981 4.73397 20
548 1 -10.4881 -11.3107 8.11595 10
549 1 10.9185 -3.18549 8.23337 19
550 1 13.7814 -6.69771 5.17851 13
551 1 11.2477 8.53263 8.21054 19
552 1 -4.63896 -5.30349 -11.1036 19
553 1 -5.49467 2.53928 -8.32566 24
554 1 -3.99842 -5.36204 8.09347 21
555 1 -0.961827 14.3775 2.31282 16
556 1 13.3009 0.446712 1.44695 19
557 1 2.93657 11.5314 -4.43898 19
558 1 -1.08911 3.82302 15.6819 13
559 1 7.31864 7.5579 13.3081 11
560 1 7.87569 0.376262 -13.9953 10
561 1 -6.31087 -12.4202 1.21885 12
562 1 13.2352 1.39281 4.68654 18
563 1 4.76284 -4.5288 -8.31974 20
564 1 -1.51049 -8.53759 -2.93306 24
565 1 13.0713 -0.809369 -3.78252 19
566 1 1.13116 -6.41999 11.4651 19
567 1 -2.21175 -9.42718 -8.05272 21
568 1 8.82338 11.7703 4.70103 16
569 1 -12.2059 5.34629 9.45876 10
570 1 9.79382 6.24122 -5.23553 21
571 1 1.95341 -0.107777 -15.6778 11
572 1 -5.02667 8.53365 7.09388 17
573 1 -0.0204444 4.04583 -13.7394 18
574 1 9.71679 -4.06725 -0.518022 19
575 1 -9.96903 0.358909 2.39039 21
576 1 14.6959 3.02287 2.51262 17
577 1 -12.2401 -7.69596 4.58143 15
578 1 6.84723 5.79442 6.52406 17
579 1 -13.606 -6.90501 -5.4118 10
580 1 -9.67548 7.49176 10.9039 12
581 1 -2.0098 3.16522 -8.45378 22
582 1 14.3738 -6.33961 -6.8539 9
583 1 -13.1958 -4.73991 -7.64253 10
584 1 11.3478 -7.40033 0.847517 15
585 1 -11.8294 2.28359 0.995263 16
586 1 -4.89846 -7.01181 -0.156674 21
587 1 -6.71596 -9.00241 6.31083 23
588 1 15.8201 -4.1042 5.30255 12
589 1 11.8431 -0.775497 6.28187 19
590 1 -7.85311 9.6815 2.13958 19
591 1 0.740229 8.62479 12.1741 12
592 1 10.6219 10.2365 -9.32189 7
593 1 -4.54411 13.2252 7.64924 11
594 1 7.9312 12.7749 -2.72478 15
595 1 0.630579 5.45048 13.4671 17
596 1 9.24243 -8.1546 11.5584 13
597 1 8.00844 12.4749 -9.35858 11
598 1 -3.91806 -3.59729 10.8986 19
599 1 -7.14878 -5.92831 -9.44453 24
600 1 -11.4131 0.202117 -1.03902 18
601 1 0.00719212 -11.2484 6.98991 19
602 1 6.26533 -0.145742 8.27594 22
603 1 -0.89266 -11.367 -1.80488 21
604 1 -14.4064 5.41383 -3.30822 14
605 1 13.1977 1.59552 -8.452 12
606 1 -7.08895 13.3389 5.74034 10
607 1 -5.51637 -2.50619 7.71473 23
608 1 -3.93992 -11.6426 -8.60806 14
609 1 1.07238 -11.8244 -4.19255 21
610 1 7.38838 -14.3956 1.60831 11
611 1 -2.36707 7.71014 -9.98329 19
612 1 12.581 1.43543 -1.88752 22
613 1 7.96546 8.10895 0.996033 17
614 1 9.45001 0.45486 2.18776 22
615 1 -1.26381 9.29546 -12.8314 11
616 1 -1.37226 -8.38238 7.12914 19
617 1 4.64564 8.87406 -4.4818 23
618 1 6.21822 1.77603 -5.54921 20
619 1 -9.49558 6.23732 -4.50564 24
620 1 -8.67686 -12.1806 10.8533 13
621 1 5.04683 8.10327 7.2018 20
622 1 1.72387 -12.1893 5.01302 21
623 1 3.67352 7.16897 -6.31343 20
624 1 -3.60426 7.52859 9.57571 19
625 1 -10.6468 -0.033702 12.7714 10
626 1 10.1634 1.77139 -0.948874 21
627 1 -2.05478 -5.89868 10.7232 18
628 1 7.62195 -12.1438 4.55983 11
629 1 12.7348 4.56425 12.0616 12
630 1 7.97274 -6.22725 -6.42746 18
631 1 -5.67388 6.49635 -10.2773 13
632 1 -4.02696 9.62661 -7.73903 18
633 1 -12.1645 5.81082 -5.07919 18
634 1 11.3997 10.6945 5.33526 14
635 1 0.646381 11.7841 10.3129 9
636 1 -10.4319 -11.1215 -3.01267 13
637 1 10.3024 -0.329704 12.4284 11
638 1 -5.40046 -6.43591 5.37249 22
639 1 12.4577 -1.2621 -10.4655 9
640 1 8.6172 -8.49203 2.0326 21
641 1 2.5073 -0.753637 -12.8909 15
642 1 -5.37829 5.68073 -13.6441 10
643 1 -9.85217 -5.27039 2.87133 22
644 1 -6.06513 6.15416 -3.2884 21
645 1 -3.77872 1.8859 15.3915 11
646 1 12.8863 -8.42602 7.26353 10
647 1 -7.14735 -11.7977 7.99015 16
648 1 11.4942 3.17268 2.31718 18
649 1 -0.211067 5.52547 -10.2176 19
650 1 15.1064 6.90523 6.5811 9
651 2 -9.59888 -7.38179 -6.78271 17
652 2 -2.97785 7.62779 -3.41382 19
653 2 1.05288 -2.35271 -12.7009 18
654 2 -2.74212 5.81395 8.99114 19
655 2 -10.4795 -6.87927 -9.42423 16
656 2 3.45481 0.423771 9.80996 17
657 2 -13.6159 -6.50923 4.17559 12
658 2 -11.1715 5.89105 -3.32527 20
659 2 -0.161783 10.2875 11.4078 10
660 2 -12.1031 -2.00145 2.80391 20
661 2 10.6119 5.25113 4.6608 20
662 2 -12.8695 -6.74687 -7.21419 13
663 2 -9.26488 3.8479 -0.0534929 17
664 2 -1.5085 -8.4868 4.97038 21
665 2 2.75503 6.48061 9.35655 21
666 2 8.2738 -0.423722 -8.88938 15
667 2 3.74708 -14.5154 3.148 15
668 2 -6.20652 8.40293 -4.06893 20
669 2 -10.7635 4.86123 -5.85308 21
670 2 8.08113 5.0527 7.59498 19
671 2 12.4207 -8.60531 -0.418418 16
672 2 -10.3319 -11.4708 1.33343 12
673 2 -7.88712 -5.49054 9.21915 15
674 2 -1.83009 -14.2372 5.5706 15
675 2 14.0766 -6.92039 6.80856 10
676 2 3.09208 -11.1309 -7.09671 17
677 2 6.69196 -2.05804 12.0794 17
678 2 6.27818 9.90738 -10.664 15
679 2 -10.7219 -9.72102 -1.75655 15
680 2 0.407531 2.98159 16.4234 12
681 2 -9.87191 12.1596 3.11688 13
682 2 -4.97108 2.91021 16.1699 8
683 2 -3.24536 9.416 -6.02424 19
684 2 11.3566 -12.1803 -0.555912 13
685 2 -3.33947 7.94826 6.47347 21
686 2 4.29833 10.9883 -8.59229 16
687 2 4.83195 -6.911 -3.71174 21
688 2 0.145533 -6.36064 -6.55949 21
689 2 9.7079 0.151525 -6.24026 17
690 2 -8.9005 0.447366 12.2727 15
691 2 1.78242 4.42675 -14.2575 16
692 2 -3.86395 6.84498 -9.17896 19
693 2 10.7451 8.87144 -1.15286 17
694 2 -3.93569 -5.34917 9.99042 19
695 2 -8.5273 8.97758 3.92966 17
696 2 12.9958 -0.338424 -8.69693 13
697 2 1.20733 -7.29986 -9.29661 16
698 2 -15.7158 -5.57522 0.947497 16
699 2 12.7636 11.4273 6.52122 12
700 2 -4.85156 8.97315 3.86181 21
701 2 -2.38665 -11.8907 -7.59358 17
702 2 -0.173166 13.186 8.90258 10
703 2 4.69012 -5.24237 9.45638 17
704 2 8.04746 -3.04247 4.40772 23
705 2 -9.28146 0.73669 -1.03539 23
706 2 9.79751 -10.5453 1.54765 17
707 2 13.3316 -11.1091 -1.96451 11
708 2 7.3143 10.9888 5.649 19
709 2 6.92305 -9.55326 1.37415 18
710 2 14.5717 -5.22242 3.90157 14
711 2 -5.98679 -5.0225 14.8865 8
712 2 12.9291 -6.22114 0.639384 13
713 2 -1.26728 8.65152 4.1931 20
714 2 11.278 5.58126 12.8524 10
715 2 -8.14709 3.23381 13.8958 14
716 2 6.71737 7.84983 6.30402 19
717 2 14.2614 -2.94961 5.20374 17
718 2 2.0249 7.83917 -7.42144 20
719 2 -9.49745 -3.31547 -10.5513 16
720 2 -6.64132 -0.109125 9.45566 19
721 2 5.13248 2.44855 -6.87841 21
722 2 -6.40773 -0.376395 -6.59 18
723 2 -12.5948 1.24042 7.00708 15
724 2 -7.10729 -5.51384 5.08222 21
725 2 13.011 2.05658 2.91339 21
726 2 1.32013 -6.89169 6.77965 22
727 2 -0.894871 -2.89425 14.4239 11
728 2 8.75273 -3.43159 -10.837 12
729 2 4.98039 -0.548985 14.7134 11
730 2 -1.64894 8.18577 9.64705 17
731 2 -9.97453 2.18021 2.21962 19
732 2 5.17687 -8.95195 -5.59123 22
733 2 7.77323 -0.843146 -3.62062 21
734 2 -7.86505 11.399 5.78295 13
735 2 -2.08064 -15.7658 3.12679 13
736 2 12.5614 -9.21492 -4.33993 15
737 2 0.0136329 7.81126 6.96366 20
738 2 10.177 -10.6737 -2.62876 21
739 2 7.9167 -3.66706 9.76629 21
740 2 -11.8129 -9.46367 3.92856 13
741 2 11.9461 4.92978 1.43478 19
742 2 -8.92109 -12.5022 7.46448 11
743 2 11.1386 8.73871 -8.20819 10
744 2 0.56999 -13.0294 -2.60073 21
745 2 10.4366 -4.75441 -5.27868 19
746 2 2.15826 -13.436 -5.01009 14
747 2 9.26913 -3.46474 1.39392 19
748 2 -4.92688 12.9811 5.58028 13
749 2 13.1435 5.10758 -3.50538 16
750 2 -4.16771 -8.99065 -8.26262 22
751 2 -6.76276 -8.90796 8.12778 19
752 2 -5.11968 -6.80711 1.85407 20
753 2 -4.87661 -8.90938 -0.818215 22
754 2 -6.98391 13.4594 -3.80579 15
755 2 -11.3814 9.23389 -0.165156 14
756 2 9.85283 7.4324 1.75051 16
757 2 3.16035 5.38234 -5.68269 22
758 2 -5.46131 7.27378 8.96321 21
759 2 -6.25403 0.434969 -11.5546 18
760 2 -14.124 4.36948 -1.43941 14
761 2 -5.12827 3.7685 9.26203 20
762 2 -13.2158 2.18669 9.43444 12
763 2 5.9041 12.8677 4.33523 18
764 2 11.9638 3.05775 -1.84006 18
765 2 10.1682 -7.54724 -3.1986 18
766 2 -11.092 -1.59573 11.9608 10
767 2 2.24702 10.6136 2.04329 22
768 2 -7.20306 15.8156 -2.23615 8
769 2 -8.24308 5.37817 2.05115 20
770 2 15.8735 -4.35852 7.13212 11
771 2 -8.26441 -11.5372 -5.96407 18
772 2 5.05362 6.0755 -13.8349 11
773 2 11.6981 8.87159 4.2964 13
774 2 -9.6102 -7.54236 8.9448 14
775 2 -0.0162478 7.86745 -3.79537 20
776 2 -6.07568 12.2953 -5.97376 13
777 2 1.67509 8.90053 -0.860127 23
778 2 12.4254 -2.19109 9.30826 14
779 2 -0.0105915 5.27866 9.7579 19
780 2 14.3608 -5.19217 -2.04236 11
781 2 -5.36922 -0.779236 12.4755 15
782 2 1.15654 -2.70658 11.0418 15
783 2 -14.6082 1.61844 -2.89257 13
784 2 -5.36226 -6.38188 -12.7078 15
785 2 10.7214 -13.9661 -2.34831 12
786 2 3.01292 -3.66422 -9.86798 18
787 2 15.9162 1.87577 1.187 13
788 2 -5.16839 1.68921 14.0804 14
789 2 6.31191 2.25741 -10.1695 14
790 2 -9.2231 -10.8939 12.7502 9
791 2 -6.07923 3.99703 -13.9572 11
792 2 2.98605 -11.2084 -1.43921 22
793 2 8.84201 -14.0546 0.212837 13
794 2 14.0876 8.26021 -3.509 11
795 2 -7.21054 5.87956 -9.33866 15
796 2 -3.28346 12.2099 3.50964 14
797 2 -11.3799 -4.64363 4.32236 21
798 2 -7.34347 1.59737 -8.6836 17
799 2 7.76458 7.40603 -9.59639 15
800 2 5.74385 14.376 -0.850583 14
801 2 -9.13197 -11.5306 3.99102 15
802 2 13.0112 1.62318 9.1296 16
803 2 -2.33356 2.87797 14.5857 18
804 2 -9.09178 -12.3917 -3.12465 13
805 2 7.18741 -9.64798 -4.13025 21
806 2 2.86352 2.42291 15.0215 12
807 2 4.95667 11.7286 7.44713 15
808 2 12.7518 -0.235067 -5.66861 16
809 2 6.27487 2.03343 14.6102 13
810 2 12.252 10.6829 -4.11185 12
811 2 -9.946 -4.58753 7.15024 21
812 2 6.16271 -5.68566 -1.34846 20
813 2 1.03725 17.2008 4.993 9
814 2 6.91741 5.43449 4.48123 21
815 2 -4.87142 6.23982 -11.9353 16
816 2 5.81245 -5.44349 12.6419 14
817 2 -7.54705 13.4821 3.67304 11
818 2 -2.12998 -6.26935 7.32288 20
819 2 9.82671 -9.1551 7.74968 16
820 2 -6.97059 -14.0153 -4.99951 10
821 2 -1.40182 11.6621 -7.74346 13
822 2 -7.16835 -8.63865 -6.74326 20
823 2 -5.38439 -12.9325 -3.25332 14
824 2 1.488 -1.06717 -9.78173 22
825 2 -1.84942 -7.18273 -8.1656 17
826 2 5.7938 7.97085 12.7054 14
827 2 -7.98463 -5.10931 -2.10575 20
828 2 -12.6447 6.03078 4.09213 11
829 2 14.5494 -4.05659 9.60921 9
830 2 -8.93841 10.0952 0.517872 19
831 2 -2.42887 -11.759 -0.792966 20
832 2 -3.66131 5.93682 15.851 10
833 2 5.23556 -0.625839 -9.01913 20
834 2 -3.37224 -0.354733 -12.1568 18
835 2 6.55968 4.80878 -11.0038 14
836 2 15.7055 -1.96073 -2.31729 10
837 2 -5.02201 -2.90408 -6.02194 19
838 2 -11.8026 2.79983 -1.06635 20
839 2 -10.359 13.8903 -2.91689 12
840 2 -3.40767 -3.09007 12.8531 12
841 2 -3.54206 -4.13232 -8.232 14
842 2 3.97354 -3.18586 -7.20771 21
843 2 6.63851 -2.31387 -6.71529 17
844 2 8.15933 9.01573 10.5981 13
845 2 4.95345 -11.7135 8.56274 14
846 2 0.560267 -4.06981 -8.77089 23
847 2 11.3829 3.23069 11.7302 19
848 2 9.36508 1.81296 -13.7943 8
849 2 -0.267364 -10.0343 -3.36422 25
850 2 3.81441 10.4281 -11.6025 13
851 2 7.82634 13.6753 6.38637 15
852 2 14.8557 2.84837 7.44469 14
853 2 -11.8501 -1.49939 5.47359 18
854 2 -12.7723 3.97924 1.73597 14
855 2 0.0642545 -9.48062 7.64301 18
856 2 0.664448 2.11887 -10.1634 19
857 2 -9.93873 -5.81401 -0.405547 20
858 2 -10.0902 -8.48302 11.8829 9
859 2 1.96503 -11.832 7.00423 17
860 2 -11.0796 11.9029 -0.470016 13
861 2 -2.84779 -8.79326 -12.5929 12
862 2 -14.4746 -1.92855 0.511078 19
863 2 7.55583 -7.9143 12.2912 12
864 2 -6.91588 -9.55737 2.1847 19
865 2 -8.75074 -2.8546 4.48821 20
866 2 12.6176 -8.3534 9.12434 8
867 2 4.87336 10.6539 -5.01685 22
868 2 9.84098 11.1955 6.22244 18
869 2 11.4469 5.69598 -1.17831 18
870 2 1.15949 13.119 -4.52825 14
871 2 -8.84245 -2.71377 -5.96401 16
872 2 10.7127 13.6131 8.32508 10
873 2 -10.4129 -7.0249 5.72838 17