ITEM: TIMESTEP
31000
ITEM: NUMBER OF ATOMS
2000
ITEM: BOX BOUNDS pp pp pp
-30.0 30.0
-30.0 30.0
-30.0 30.0
ITEM: ATOMS id type x y z Coordination
1 1 -9.11102 6.5359 -16.0284 15
2 1 -7.3526 -3.77118 -11.1651 18
3 1 1.67264 14.9168 13.0809 15
4 1 4.8777 -8.19281 5.67311 16
5 1 -15.1468 8.19354 -1.27775 17
6 1 10.0386 -6.53152 -6.88807 16
7 1 -19.0675 8.02554 -6.97058 10
8 1 -3.00876 -3.8487 16.572 11
9 1 -14.4678 1.01828 -12.5322 10
10 1 -11.466 -10.3518 9.74522 14
11 1 8.7227 7.17941 -12.8441 16
12 1 -9.56959 -8.81667 1.55701 22
13 1 -14.7811 -2.43766 2.18239 19
14 1 0.703827 3.31846 16.7119 12
15 1 4.58999 -3.15157 4.19473 17
16 1 -2.60319 6.34619 10.41 24
17 1 -1.74115 11.4927 -15.8863 13
18 1 -1.18436 4.01191 10.8398 17
19 1 -6.94502 2.17875 -15.671 18
20 1 -16.6082 0.85764 11.9635 13
21 1 13.9439 6.49884 3.67601 22
22 1 0.0567703 13.6739 -13.6243 13
23 1 2.36065 4.98212 -16.2639 15
24 1 11.5424 5.0433 11.031 15
25 1 -11.0256 0.3082 2.23989 22
26 1 -16.9645 8.29342 -9.04247 10
27 1 -5.21215 -0.646412 -7.0584 21
28 1 -9.4849 8.88671 8.77441 19
29 1 5.75811 -8.13948 2.31685 14
30 1 -0.107975 -0.0730708 9.05472 18
31 1 0.103848 -8.88407 -9.23354 18
32 1 5.36596 -6.99024 -1.46256 15
33 1 -5.86033 -11.3235 -6.16746 17
34 1 -15.4764 -2.17379 11.7251 17
35 1 0.342026 -2.81056 -16.9552 13
36 1 9.20316 -6.33587 -11.6576 8
37 1 -2.43311 7.35635 -12.6568 21
38 1 -3.69674 3.44518 12.0088 20
39 1 -1.9821 -10.0879 10.0291 13
40 1 4.56796 -3.26595 13.2615 11
41 1 -16.9674 0.900957 5.55883 19
42 1 -15.0771 3.59054 8.60466 19
43 1 -9.3126 3.13098 -4.68738 20
44 1 -3.24135 13.7497 -3.40906 20
45 1 -6.30846 -8.84674 -14.5935 9
46 1 -3.4378 2.19161 -8.00116 22
47 1 3.25866 -3.66311 -11.5461 19
48 1 -3.5158 -1.22938 12.5195 19
49 1 -15.1342 3.2974 1.85676 23
50 1 3.65034 10.8731 -11.1967 14
51 1 -0.950996 15.5599 10.8147 15
52 1 -14.0284 8.65833 -8.26695 19
53 1 -2.35359 15.8049 1.555 21
54 1 -1.23321 -4.86702 2.28154 20
55 1 3.41206 -5.78088 -5.9577 22
56 1 2.26597 -3.39529 -14.6174 18
57 1 -6.5632 8.907 8.80666 21
58 1 -17.5651 -0.175497 -4.66441 10
59 1 6.56924 3.08662 8.7812 20
60 1 -9.18044 8.78962 -4.67157 22
61 1 -9.00668 -8.61046 4.1234 18
62 1 -4.08774 13.7925 12.0619 20
63 1 -12.0591 9.13318 -5.39537 19
64 1 -7.09632 12.5819 16.9124 9
65 1 0.439579 4.61265 -8.1136 20
66 1 -7.15455 -11.7781 11.8388 9
67 1 0.237146 5.41983 8.22018 20
68 1 5.96909 -16.3335 -0.949048 7
69 1 4.03866 12.1903 14.3747 13
70 1 -17.3856 5.4913 -8.27312 11
71 1 -11.7048 10.6341 -8.80544 18
72 1 6.14496 5.64846 7.49915 18
73 1 12.5592 2.10961 -7.86973 8
74 1 6.86007 -9.29804 -0.4957 16
75 1 -16.567 -0.204357 8.59743 19
76 1 -2.93017 16.3186 6.23648 13
77 1 4.31773 -0.800282 15.4153 9
78 1 -6.99081 -7.82304 7.23931 19
79 1 -11.2685 0.0167626 -1.28318 21
80 1 8.42112 0.391062 3.0994 16
81 1 7.3565 -3.35863 2.79794 18
82 1 0.239576 13.8089 6.66613 18
83 1 4.16356 2.3754 11.0638 18
84 1 -9.3449 -2.4897 2.38476 20
85 1 -10.6521 -2.93392 -9.62478 17
86 1 -13.9712 11.6466 6.71548 13
87 1 -10.7804 10.7144 -3.02921 23
88 1 -11.4192 13.4044 -5.38204 20
89 1 2.3183 -2.88815 -5.21333 18
90 1 7.35945 15.9243 -8.48586 16
91 1 9.14274 -5.73294 -3.58167 19
92 1 1.60628 -5.83816 8.98453 14
93 1 -7.49812 18.9165 -6.51661 10
94 1 -12.0544 16.1128 3.07124 11
95 1 -9.9136 -2.59996 15.3944 13
96 1 -6.93341 8.50963 2.89736 18
97 1 -5.7331 -5.91871 16.2102 12
98 1 11.3324 -4.03642 -4.8699 15
99 1 -13.463 8.7217 5.06071 17
100 1 -11.9872 -7.52353 1.95267 16
101 1 12.1269 -4.70645 -1.73947 13
102 1 2.12984 2.39132 -8.49042 24
103 1 -7.78464 2.33205 -19.0125 8
104 1 2.25038 14.1184 1.38862 20
105 1 -5.83884 5.57521 -11.3308 17
106 1 -2.30222 8.35169 18.053 11
107 1 2.7324 13.5998 -9.31545 16
108 1 -15.195 13.3588 -1.58379 14
109 1 -1.91058 11.8347 1.59692 21
110 1 -7.24479 -8.42597 16.1235 9
111 1 11.8053 3.93054 8.17305 21
112 1 -3.44317 -3.44303 -7.93389 18
113 1 2.32241 -6.79273 -8.95466 22
114 1 -3.02354 6.2721 6.62988 19
115 1 3.74472 2.00327 15.2177 14
116 1 -8.48094 -5.10206 -2.15962 20
117 1 3.16168 -6.51787 3.02196 14
118 1 -13.8732 -10.1486 -5.5274 10
119 1 9.975 -8.07089 -1.70774 12
120 1 -3.9771 9.85327 3.69722 17
121 1 7.05748 10.3394 -11.6285 15
122 1 0.0950267 19.4552 -0.494962 8
123 1 -8.65955 -9.2051 10.4132 14
124 1 -6.68464 -10.3068 5.12464 17
125 1 4.59772 -5.44024 -14.11 13
126 1 3.12696 5.25687 -3.21078 21
127 1 7.98364 -4.52982 -0.333644 18
128 1 -2.4082 -13.2822 8.48145 12
129 1 -11.8968 -10.5349 0.204445 17
130 1 12.7957 14.7305 4.76997 15
131 1 12.1378 -1.35395 -9.82768 10
132 1 -16.3858 -5.57724 1.02415 13
133 1 7.01777 10.7764 4.95351 19
134 1 13.4319 8.76963 1.69457 19
135 1 -12.5539 6.2831 16.0449 12
136 1 3.59166 11.6299 -0.279327 18
137 1 -5.28919 11.385 10.8534 18
138 1 -6.67027 13.7641 -2.66667 19
139 1 2.6134 -0.460568 -13.7143 21
140 1 8.55985 -12.4074 -8.64557 10
141 1 -3.15379 13.4681 -11.8824 19
142 1 2.25081 0.139995 11.6782 17
143 1 -1.45062 3.5393 -18.0579 11
144 1 -3.74831 13.2894 -8.43295 18
145 1 14.1971 3.99815 -2.65177 14
146 1 -14.8095 9.98948 -5.47314 19
147 1 -12.3543 18.3485 -3.0949 10
148 1 3.65246 -0.959062 -9.70871 20
149 1 1.67271 -8.02326 6.36783 20
150 1 -6.45573 7.55446 -7.03447 21
151 1 -9.23699 13.7209 11.0562 13
152 1 11.0847 11.2033 -7.90224 12
153 1 0.59524 17.358 -4.03556 13
154 1 -4.27579 17.3782 -0.570673 16
155 1 9.16011 13.1519 0.192394 18
156 1 -5.5293 15.0464 -5.23313 19
157 1 0.93919 15.5929 -10.0929 15
158 1 5.36434 12.6946 -13.3254 12
159 1 -13.3636 -9.22703 7.20747 16
160 1 -14.9397 12.9857 -5.14076 16
161 1 -9.32117 -0.269612 -15.8192 15
162 1 0.156128 -5.62475 -14.6279 15
163 1 1.65573 16.7985 6.86034 18
164 1 -0.71584 19.1366 5.68739 12
165 1 -11.6312 -6.43005 -4.56364 13
166 1 -14.1801 15.9567 -3.65754 12
167 1 15.2355 7.35283 -1.27556 12
168 1 -11.3612 4.3565 -14.6307 17
169 1 5.14488 6.56521 18.5575 10
170 1 -3.35702 17.5542 3.80632 11
171 1 -7.70365 10.4388 0.859493 19
172 1 3.53128 -0.987614 -16.9337 17
173 1 -10.0276 14.7757 5.00444 16
174 1 -4.14254 17.9423 -6.85002 13
175 1 -1.08428 1.0891 12.5663 20
176 1 -12.6078 -3.96851 5.84519 19
177 1 -9.06715 -5.91184 -15.0514 11
178 1 -6.85408 16.3506 -8.35392 15
179 1 -6.17588 -12.8049 8.49119 13
180 1 2.96765 -10.0305 -4.69948 19
181 1 -5.18384 12.2615 -14.4826 14
182 1 -17.4936 4.14894 10.6995 14
183 1 -0.682973 13.6845 0.0524975 23
184 1 6.30636 10.8563 -1.04553 18
185 1 -5.7935 7.47653 14.3193 20
186 1 -4.05036 -4.96117 10.618 17
187 1 -14.4993 5.97825 0.0879134 21
188 1 -4.27731 19.7825 1.60678 7
189 1 -2.98247 9.11352 8.47168 20
190 1 9.06334 7.9143 11.1818 15
191 1 -10.6279 13.6048 1.87053 19
192 1 12.5374 -4.31383 -7.6019 8
193 1 -6.46991 15.8697 11.209 11
194 1 -5.43979 4.75279 -8.3067 19
195 1 13.2881 0.162576 2.24698 14
196 1 -9.35324 -2.6277 5.47239 21
197 1 -16.6839 7.43468 11.0437 10
198 1 -15.0888 -6.30104 6.99116 12
199 1 5.31969 8.62735 9.57964 19
200 1 -17.4854 2.69202 0.155302 15
201 1 -3.27291 -10.2217 6.89248 23
202 1 5.44423 -2.78544 -6.18239 19
203 1 -5.26413 12.3256 2.22665 19
204 1 -12.1915 3.70271 3.86447 21
205 1 4.4642 15.9028 12.9115 10
206 1 -11.3995 5.47372 -4.30457 23
207 1 -8.6907 13.9845 -5.94388 18
208 1 -16.7104 -2.35418 -3.42884 12
209 1 -12.5233 -2.31994 10.801 18
210 1 -0.519712 -8.098 3.79995 17
211 1 3.17409 -10.9467 6.23638 14
212 1 -14.3745 14.4706 1.74971 12
213 1 15.2148 7.31448 6.25284 14
214 1 2.95122 -0.375403 -6.46019 19
215 1 -8.05486 -3.30473 -14.888 18
216 1 1.34551 2.7412 13.3568 17
217 1 5.72706 -14.303 2.58715 9
218 1 -3.67339 8.03257 -8.25231 20
219 1 3.17419 -9.12329 -11.7087 12
220 1 2.87832 9.26812 -13.4455 20
221 1 4.25358 10.8248 -16.0945 12
222 1 -12.4292 3.52916 -6.20432 20
223 1 -1.65162 15.1077 -9.83439 15
224 1 -10.9997 -7.50034 8.37821 18
225 1 1.35556 16.704 0.72023 20
226 1 -9.6549 7.21534 16.5829 12
227 1 -10.5613 16.2299 -3.90331 21
228 1 4.12847 2.96406 7.48001 23
229 1 -12.4002 0.76144 -15.0933 11
230 1 -4.96035 12.1115 -5.27061 22
231 1 -0.380001 7.60323 -6.1209 22
232 1 -7.80724 -4.5623 14.2895 20
233 1 -12.5561 9.02918 8.07753 16
234 1 -8.45168 6.07068 9.942 24
235 1 -4.54066 -5.87507 -11.4635 19
236 1 -6.71826 -10.6701 -0.852898 20
237 1 8.4811 -11.1918 -2.94189 15
238 1 7.41088 10.4549 10.532 18
239 1 8.47524 7.35351 -10.0198 20
240 1 -1.76595 11.585 -1.70398 23
241 1 -12.4715 3.2592 0.371517 20
242 1 -12.5348 15.648 -6.12455 12
243 1 1.27599 10.9844 12.7815 18
244 1 0.850145 -13.2932 1.55314 17
245 1 7.91443 2.38993 -4.11733 20
246 1 0.915688 11.086 1.00937 21
247 1 -8.03819 9.742 5.8453 19
248 1 -16.5904 -5.10524 -1.89079 12
249 1 6.50436 4.66157 -11.8104 21
250 1 1.92624 2.06915 8.32085 20
251 1 8.83751 12.9213 -6.67227 19
252 1 -2.61015 -5.5716 -2.75428 22
253 1 -5.21802 -0.556786 -11.1436 16
254 1 -0.466908 -14.9577 3.39498 12
255 1 5.14538 2.08925 -6.38342 22
256 1 -13.9993 0.834982 7.00023 21
257 1 3.47337 -13.3729 -0.0882659 17
258 1 -9.59361 0.181582 -9.66412 18
259 1 8.28776 13.1931 -2.56314 18
260 1 -0.13401 3.30202 -15.3356 19
261 1 2.65186 7.65602 12.2699 21
262 1 16.0437 7.95305 2.57903 14
263 1 -7.99488 -5.47793 1.14197 20
264 1 9.27311 1.15747 -14.99 13
265 1 -4.20831 -11.6291 11.1902 11
266 1 -10.59 2.13117 -13.0999 21
267 1 -14.5689 5.99996 -9.80317 15
268 1 -4.79141 -12.3744 5.30392 16
269 1 5.56089 -1.05083 11.134 17
270 1 1.51924 -2.65626 9.55966 19
271 1 -10.4879 -4.39865 -12.6722 16
272 1 -0.279512 -1.93698 7.47674 20
273 1 -0.166363 5.8551 -14.2705 18
274 1 4.85735 8.14416 3.99911 21
275 1 -12.5168 -7.10574 5.13565 18
276 1 5.30563 14.2477 2.76402 21
277 1 -11.1169 0.338126 12.0782 21
278 1 -11.0533 -6.08373 -10.1134 13
279 1 -5.31204 -2.98307 -12.9015 19
280 1 -5.48327 6.7963 -13.7574 20
281 1 -9.25342 -7.57687 -12.5226 12
282 1 -4.9098 -4.41897 1.85439 20
283 1 9.15997 -3.22285 -11.3587 16
284 1 10.7829 6.57799 -5.64268 17
285 1 6.91871 3.12113 2.88937 15
286 1 -9.40726 -5.12146 11.4566 20
287 1 -4.49262 -8.72698 -1.90129 23
288 1 6.2547 4.74135 16.23 17
289 1 -8.34908 -14.5681 3.66863 12
290 1 -4.10332 -10.6632 0.787105 17
291 1 -1.18662 11.8535 -5.19478 23
292 1 3.23586 6.17699 -13.0892 18
293 1 -5.17769 0.47769 -17.9745 12
294 1 -14.0069 -5.67757 11.9281 13
295 1 3.12514 9.40644 14.3509 17
296 1 2.09198 -8.41282 -1.93042 21
297 1 -8.68898 -10.1609 -9.94745 13
298 1 -14.55 9.38995 -10.7789 11
299 1 5.30463 9.29374 6.74412 22
300 1 -11.8397 5.14045 -11.6593 21
301 1 -2.45385 10.6599 -10.4887 21
302 1 -6.61245 -1.66901 7.29556 19
303 1 5.75264 -13.6006 -6.76988 13
304 1 -8.95161 19.3395 -3.39117 9
305 1 -4.46486 13.6801 5.82305 16
306 1 7.56234 2.3129 6.09789 23
307 1 -11.5923 0.948437 5.87461 19
308 1 -7.08034 -1.22652 14.1381 18
309 1 -7.96562 11.7538 9.37593 19
310 1 2.09941 -6.49428 -12.6308 16
311 1 11.0325 11.8876 -2.68691 22
312 1 0.923927 -7.19042 0.861017 15
313 1 -4.40942 -0.262584 16.3727 14
314 1 -19.1584 -1.04527 6.74299 10
315 1 -0.21006 -13.4676 -4.35734 15
316 1 -9.50385 12.1226 14.1285 12
317 1 -15.1163 5.33685 13.614 14
318 1 -17.981 -1.9721 10.3798 11
319 1 -16.3508 -5.24189 9.92179 13
320 1 9.92766 -2.78476 -2.53229 17
321 1 -10.7947 -4.84953 9.22716 16
322 1 8.59757 2.37466 -7.3703 15
323 1 8.65054 -12.0866 -5.79333 14
324 1 -0.675304 17.4532 -7.28947 12
325 1 -12.1349 13.559 -1.7626 20
326 1 7.00417 6.21984 10.1166 21
327 1 -14.1122 0.792825 3.90435 22
328 1 5.99163 -10.6881 -5.93685 19
329 1 -7.96077 10.492 -2.24562 23
330 1 -8.31012 5.43749 3.40619 19
331 1 1.88502 -9.4592 3.70136 19
332 1 10.1301 -3.96842 6.42209 9
333 1 -0.324315 7.93318 9.89462 21
334 1 -14.5393 -5.53455 -6.12977 11
335 1 -5.69257 1.83477 14.6731 17
336 1 -3.97618 14.2322 3.04805 18
337 1 5.9052 7.04839 13.5621 17
338 1 -9.94116 16.5924 -7.67391 11
339 1 0.467155 -0.12473 -15.7942 20
340 1 -8.634 5.98318 -6.48657 20
341 1 4.94918 -7.37514 -10.7265 18
342 1 -11.2046 7.57392 11.5119 22
343 1 -14.1314 5.85726 3.25719 19
344 1 -9.78681 -2.24161 -7.03458 16
345 1 -3.29897 13.9573 -0.0715826 20
346 1 6.09969 -0.898182 5.0426 22
347 1 -12.3441 -9.73737 3.66823 15
348 1 7.01092 -5.88734 7.56139 10
349 1 -11.5369 -7.81735 11.6921 18
350 1 -17.3204 5.3918 -1.7073 15
351 1 -5.16346 0.0123691 9.1242 20
352 1 1.33995 -7.86933 -6.09673 19
353 1 -9.76228 3.14664 -7.66211 19
354 1 5.58227 7.38624 -12.2338 21
355 1 2.0467 18.1583 4.36952 20
356 1 -12.557 -2.68781 -6.29901 15
357 1 0.573018 -4.62293 -10.8212 19
358 1 9.68264 5.18364 -8.01225 15
359 1 -2.29361 -15.3435 -3.25493 10
360 1 -14.3998 -7.12056 -3.22104 16
361 1 -7.658 -8.24504 -1.24619 20
362 1 10.6791 5.95597 16.2999 10
363 1 13.4498 7.52921 -3.79958 18
364 1 -6.22686 -1.03471 -15.6263 15
365 1 -0.876587 18.8332 2.67839 16
366 1 -16.0392 3.75773 -5.6955 16
367 1 -8.3659 12.3509 6.29832 17
368 1 -10.591 11.2469 -0.0859551 21
369 1 -5.07378 9.61618 6.22739 16
370 1 8.69092 5.407 13.3673 19
371 1 7.29268 -2.7585 -8.43128 21
372 1 7.08428 -0.799029 13.8151 12
373 1 9.58051 -0.411489 -8.78857 19
374 1 -1.74731 -11.7062 0.349525 15
375 1 -6.03374 -5.08903 -8.17374 18
376 1 -2.44738 17.152 -4.6087 18
377 1 -15.0387 2.1875 -1.50874 18
378 1 -0.993276 -8.63625 -0.869632 20
379 1 15.0364 1.37315 4.66888 10
380 1 -11.2836 -0.147549 -4.33044 20
381 1 -5.22613 -4.60498 6.10314 18
382 1 -11.6914 -5.62843 14.3483 12
383 1 -6.73788 13.0727 0.0226771 19
384 1 -13.2998 -10.4303 -2.49141 10
385 1 6.90155 13.7946 13.3928 9
386 1 -12.4522 7.81476 -2.66427 24
387 1 0.026571 13.3787 -8.00033 20
388 1 7.94639 14.9091 5.18184 19
389 1 -13.382 -5.54612 -0.369129 18
390 1 -4.04213 -7.4108 -8.71469 20
391 1 -13.932 0.540675 10.1563 22
392 1 -17.3443 10.894 -6.48553 11
393 1 -1.79578 -12.8805 5.62443 17
394 1 -8.25081 -13.0198 -4.34024 14
395 1 8.1138 12.3402 7.11145 22
396 1 7.3272 6.1728 -16.5792 9
397 1 -11.784 8.13933 -10.6808 18
398 1 -4.59587 15.7834 -9.55014 15
399 1 -8.86083 9.58441 -10.8402 18
400 1 -4.35886 -8.09427 4.11888 17
401 1 8.34252 9.14045 7.99936 22
402 1 0.891287 10.8357 -15.6008 16
403 1 -6.20135 3.58879 6.90768 20
404 1 -18.0272 3.38447 3.32196 16
405 1 -11.1932 6.86556 4.6748 17
406 1 -10.0175 -9.63021 7.05119 17
407 1 -0.657018 -3.07973 -6.22823 20
408 1 5.00188 -7.47697 -7.44091 21
409 1 -15.3416 3.83532 5.27935 23
410 1 -12.9117 2.88891 14.1366 15
411 1 -12.9523 11.0685 3.32895 15
412 1 -3.33173 -2.12317 8.98099 20
413 1 -11.9194 6.83881 -16.9636 7
414 1 8.14848 -9.1863 -7.429 21
415 1 -1.83409 -6.48005 -10.3334 18
416 1 -9.20004 -2.29326 11.699 19
417 1 0.0457367 -6.15461 -4.36055 23
418 1 -8.2951 4.40769 -13.7516 18
419 1 4.79334 -11.1178 3.03875 14
420 1 6.43353 8.65186 -3.82171 19
421 1 -17.316 6.21152 8.30016 11
422 1 -11.1943 0.828103 15.456 11
423 1 -11.8825 7.68109e-04 -11.5548 14
424 1 -11.8403 -1.61133 7.79629 20
425 1 4.42744 -4.04257 9.99975 14
426 1 6.76346 4.66419 -1.99953 17
427 1 0.461256 -1.25471 -11.1691 22
428 1 7.90441 -6.88293 4.73136 10
429 1 13.7712 13.464 -3.87021 10
430 1 -5.29255 3.12123 17.2197 8
431 1 4.00659 10.613 -3.37262 20
432 1 4.95871 -2.76552 7.7046 23
433 1 -6.86176 -7.97216 -6.96014 22
434 1 -4.54497 10.3633 16.5042 17
435 1 -7.09028 14.0196 3.20597 17
436 1 -9.85338 -7.75376 -7.61592 19
437 1 10.3563 19.1359 7.08643 5
438 1 2.45801 11.4678 6.64578 21
439 1 -7.14507 4.77473 16.0002 13
440 1 -9.1841 -7.69106 -4.2675 19
441 1 -11.0909 8.58009 14.314 15
442 1 -13.6303 -4.20259 -8.89061 14
443 1 -11.4158 11.7431 9.20131 14
444 1 -7.34241 -7.02445 -9.97642 20
445 1 -0.784836 -8.46891 -12.7263 12
446 1 -6.4616 -10.0646 2.30233 19
447 1 -8.21264 1.423 7.12596 21
448 1 9.16851 4.52889 10.0965 20
449 1 -9.28899 -5.53557 16.5117 12
450 1 -9.76992 13.1379 -11.3006 7
451 1 4.85681 9.19652 1.31055 19
452 1 -10.2186 -13.0975 -1.16129 14
453 1 -2.60432 4.83376 -6.60035 22
454 1 0.229924 12.3334 3.9597 18
455 1 -6.19936 13.3982 -7.73913 19
456 1 -2.53911 9.05164 14.6098 20
457 1 -14.2312 -0.0345842 0.217232 18
458 1 -3.25262 19.3634 -1.85445 10
459 1 6.22916 12.9109 -8.68757 20
460 1 -9.26423 -1.54291 -12.3879 21
461 1 -1.51968 5.21835 18.9461 6
462 1 -0.138363 -13.8159 -7.80922 11
463 1 7.61575 -3.82101 -13.7337 13
464 1 4.1298 -9.91838 0.103799 19
465 1 -15.12 11.6684 0.717704 14
466 1 2.31879 7.74295 17.8834 11
467 1 9.27318 10.6519 -0.259648 20
468 1 1.73702 15.1944 -1.83766 19
469 1 -7.64819 12.0627 -12.888 12
470 1 -2.70562 7.02813 -4.80677 18
471 1 0.178685 -5.43507 5.78909 23
472 1 -17.4324 0.0886478 -1.33582 13
473 1 0.259773 15.5758 3.56348 22
474 1 -2.86913 4.78689 -12.8792 17
475 1 7.8892 7.64672 -0.968653 18
476 1 4.35322 16.4254 -9.24563 15
477 1 3.39428 -5.26126 0.041319 17
478 1 15.4574 11.386 2.34918 14
479 1 -3.0501 -0.479269 -9.56125 20
480 1 -5.51665 -7.67175 1.01918 21
481 1 -2.71671 -13.6267 2.47181 16
482 1 -1.92218 -4.43588 13.1382 17
483 1 -8.63868 5.93464 -9.50961 22
484 1 -13.753 -11.8003 4.9178 10
485 1 -2.4478 -11.0173 -7.4735 14
486 1 7.63783 17.6072 8.20572 11
487 1 2.0407 1.48309 -11.044 22
488 1 0.53732 0.410399 15.1097 16
489 1 -11.49 6.15632 8.24505 21
490 1 -6.0081 -12.8802 2.50233 15
491 1 -12.168 -1.95965 4.06594 20
492 1 11.6133 -1.01943 -6.58986 14
493 1 6.94911 1.30274 -1.29716 20
494 1 -8.44793 5.36272 -3.21451 23
495 1 -1.46101 -8.39494 -6.7515 19
496 1 2.73877 8.08694 -10.5771 18
497 1 8.2266 -2.71572 -5.23588 19
498 1 -5.92144 0.894825 12.0894 19
499 1 4.20588 18.7798 1.99463 13
500 1 -3.96384 -2.08775 -16.3951 16
501 1 5.35382 0.836108 -14.9576 21
502 1 -9.38988 -2.33692 8.86718 18
503 1 -7.89037 17.0821 -1.19481 16
504 1 -8.91734 5.68213 -18.7431 9
505 1 -17.7214 2.55362 7.18358 14
506 1 -5.866 -5.8887 -14.3531 16
507 1 -9.37898 -10.2958 13.6191 9
508 1 0.361772 12.1591 -11.1033 17
509 1 14.3645 3.94848 6.13006 19
510 1 11.6741 5.90209 1.90694 19
511 1 -11.1817 -11.9321 -4.43888 13
512 1 -6.02249 -5.57704 -1.37406 21
513 1 -6.345 -4.48556 -17.2257 9
514 1 -12.8226 14.9341 6.61167 8
515 1 2.35051 -3.18983 -8.1269 20
516 1 12.5326 -1.57313 -2.70895 16
517 1 6.07067 11.3322 -6.18628 18
518 1 5.08031 -3.61057 -3.62075 19
519 1 12.4827 10.9829 -4.91744 18
520 1 0.586317 12.8505 14.6869 16
521 1 -12.4723 3.74654 6.79383 22
522 1 3.73171 17.6618 8.09244 12
523 1 7.01733 1.17453 15.9058 11
524 1 -6.34031 1.57545 -9.51283 26
525 1 -9.55311 -2.92999 -4.4155 18
526 1 -2.67565 0.916592 10.1775 20
527 1 3.27309 14.3673 8.52033 20
528 1 2.53475 7.15722 -7.58913 23
529 1 -9.09826 11.2403 -7.74438 20
530 1 -2.80206 14.9391 -6.3423 23
531 1 6.38819 -0.165245 8.04036 21
532 1 10.2543 4.35947 -11.4823 12
533 1 5.39337 -10.116 -2.8499 21
534 1 8.1925 9.53296 13.7784 14
535 1 -17.3269 -2.68473 0.840057 11
536 1 -6.7602 14.6358 -11.5838 11
537 1 -3.66705 3.57511 8.49233 21
538 1 -14.9132 3.0306 11.8615 18
539 1 -6.05673 10.5752 -8.49292 17
540 1 3.08999 -5.61173 -2.97743 18
541 1 6.25408 0.296663 -8.73985 18
542 1 -5.82763 18.0267 -4.08295 14
543 1 -9.54318 3.3923 -16.5783 15
544 1 2.0089 -12.5104 3.91663 19
545 1 -13.942 -0.741056 -2.7571 18
546 1 2.70644 13.5183 -14.9581 9
547 1 -11.618 5.56137 -1.31443 19
548 1 -3.2281 6.74346 13.6643 19
549 1 -15.0917 -4.55698 4.03652 17
550 1 2.5586 8.92069 -1.26908 21
551 1 2.7626 -10.1311 -8.20618 17
552 1 1.15128 -3.19707 14.7107 12
553 1 5.05459 2.4937 -3.3721 20
554 1 -13.6243 11.0772 -2.84291 20
555 1 3.83551 10.0343 17.5297 8
556 1 2.22296 15.8861 -6.71567 18
557 1 8.30876 -8.68958 -4.54369 21
558 1 -2.25343 12.2406 14.3813 19
559 1 -0.00780315 6.08062 -17.85 12
560 1 -5.61043 -9.20376 13.3032 14
561 1 -2.41838 4.94918 -9.86775 19
562 1 5.68885 -3.52627 -16.7663 8
563 1 4.87943 16.6953 5.31337 19
564 1 10.8129 3.06087 -5.1615 18
565 1 -0.629249 1.98484 -9.9963 21
566 1 -6.94916 -10.0883 -3.85451 19
567 1 -15.6471 -2.41551 -6.77869 12
568 1 8.08384 -1.23421 0.753201 19
569 1 15.1395 12.5346 -1.17521 13
570 1 7.24073 -5.66324 -6.36294 21
571 1 10.861 7.0912 8.78362 17
572 1 5.97639 -6.94195 -4.13382 16
573 1 1.97111 8.24374 -17.8265 11
574 1 6.97129 17.7336 2.74345 12
575 1 -11.1665 5.41774 1.66726 21
576 1 9.34287 9.43451 17.0294 7
577 1 7.30889 7.09755 -7.03198 20
578 1 3.96478 -0.142804 -1.20888 19
579 1 13.1428 9.47518 -8.52102 8
580 1 6.52078 3.90182 12.4918 14
581 1 14.015 6.15549 8.92994 11
582 1 -2.16885 -7.05144 5.44382 23
583 1 10.3144 17.4666 -2.98697 8
584 1 -1.17794 4.83521 13.7069 18
585 1 13.4074 4.70087 -5.80915 14
586 1 11.9151 6.52387 6.15563 21
587 1 -12.3866 3.04465 -9.60541 16
588 1 8.14622 8.47892 2.0372 20
589 1 7.65344 -3.52043 5.96523 19
590 1 -11.9805 10.4733 12.4631 10
591 1 7.58478 14.9482 11.0873 14
592 1 11.2665 2.10507 11.0325 14
593 1 2.45252 14.3587 5.04016 23
594 1 0.0490211 10.7382 8.87836 18
595 1 2.9591 11.0785 10.2976 20
596 1 -4.60468 -15.8769 -1.57396 10
597 1 -8.48893 11.7336 -5.226 23
598 1 7.0036 14.3457 -5.20056 21
599 1 6.77745 2.83307 -16.3434 14
600 1 -1.31529 16.9404 -1.48822 20
601 1 0.12153 -11.2989 -6.79243 19
602 1 10.0797 0.751015 -11.927 12
603 1 -14.4931 6.76208 7.0014 16
604 1 -6.60013 8.37222 -10.3599 17
605 1 -8.36874 -12.0463 0.920323 21
606 1 -9.33856 3.06951 -10.7735 18
607 1 -17.8695 2.66808 -3.31601 16
608 1 8.54831 -7.49585 1.38067 10
609 1 11.2409 14.8097 1.67842 16
610 1 -2.1583 -4.55514 7.61305 20
611 1 -15.7996 3.13619 -10.4574 9
612 1 -0.692855 1.14244 -13.4509 20
613 1 0.365447 7.51715 15.4625 16
614 1 9.20314 13.959 -9.16354 10
615 1 9.06267 -0.557235 11.1852 11
616 1 4.84468 8.80676 -6.35531 19
617 1 10.2061 16.9064 4.49871 12
618 1 3.29724 -12.9169 -8.73121 8
619 1 -13.9331 0.182034 13.4916 15
620 1 10.2068 0.0130511 -0.0850641 21
621 1 -7.01308 13.5223 13.4183 15
622 1 6.34282 14.9016 -10.9943 12
623 1 -14.1772 11.8508 -8.00401 13
624 1 8.92608 5.61121 3.14251 19
625 1 -11.1513 -12.7607 2.29811 14
626 1 10.4261 -2.30943 3.25479 15
627 1 9.50559 11.1703 2.86757 21
628 1 -5.275 5.91748 8.39985 19
629 1 -15.93 -8.50962 -0.91068 10
630 1 -7.92568 1.32744 -12.5453 20
631 1 3.50651 4.53835 12.9666 17
632 1 -4.53874 -3.55192 13.4095 19
633 1 8.81094 4.96927 7.17514 20
634 1 -9.45653 13.5562 -2.71585 21
635 1 6.55865 6.00013 1.15591 23
636 1 9.42642 5.37042 -0.364527 16
637 1 6.9481 -0.150776 -17.359 10
638 1 -11.2023 1.34919 8.91016 22
639 1 4.78902 2.72887 -10.2558 20
640 1 -6.5812 -3.25126 -5.97775 21
641 1 10.9122 -10.215 -7.05852 8
642 1 8.01388 7.6507 5.23622 21
643 1 3.36504 5.28854 3.39474 22
644 1 -9.40598 3.30119 11.6945 20
645 1 10.6289 10.2892 5.83907 20
646 1 -1.76464 -1.72939 15.374 15
647 1 -2.90655 9.74229 11.397 21
648 1 -1.86222 -3.42315 -10.9248 17
649 1 -11.5148 5.36616 13.5173 20
650 1 3.62418 5.49351 9.58033 21
651 1 -12.2474 -12.4286 7.87609 10
652 1 12.4884 14.644 -1.24091 17
653 1 3.9477 -13.2612 -4.12973 18
654 1 -2.10723 10.1663 -7.40354 17
655 1 9.30871 10.1466 -5.33267 18
656 1 10.4381 13.2853 5.63189 19
657 1 3.82449 1.70977 -17.521 13
658 1 -0.606022 14.3967 -3.70328 19
659 1 10.8809 8.19644 3.87051 20
660 1 -9.91877 -5.51499 3.60307 17
661 1 -3.17695 5.99799 -16.8962 16
662 1 -9.47963 14.6876 -0.358022 17
663 1 5.93723 -3.52718 -11.2811 22
664 1 6.16045 4.91094 4.64537 22
665 1 6.05815 4.17906 -8.16152 21
666 1 6.78126 16.2541 -3.1706 16
667 1 -10.2092 8.92903 2.38689 16
668 1 4.9505 7.31868 -1.54137 20
669 1 11.3425 3.4717 14.2014 11
670 1 9.77197 0.774691 13.6755 11
671 1 -4.25272 -6.6542 13.9153 14
672 1 -4.98649 9.83443 -12.5672 19
673 1 1.07222 13.3882 9.97225 20
674 1 10.2735 -3.7101 -8.60513 18
675 1 2.94313 6.37663 6.50879 21
676 1 5.53506 16.663 -6.22173 16
677 1 2.81738 8.68662 8.4755 21
678 1 14.2641 0.51062 -1.02898 11
679 1 8.81875 6.33087 18.5766 9
680 1 -14.6189 -1.74261 5.4101 24
681 1 -2.82952 -10.4907 3.71203 19
682 1 0.241433 -0.26738 -8.27974 21
683 1 -13.6546 16.1263 -0.460679 13
684 1 -0.600038 9.13647 3.32692 19
685 1 7.53729 -1.37138 -2.0947 22
686 1 3.1284 11.5662 3.38748 22
687 1 -17.2946 -2.04642 4.19436 16
688 1 -2.76434 12.8084 16.7731 10
689 1 -3.97499 8.79225 -15.2029 18
690 1 -7.25556 8.99241 -14.4587 14
691 1 1.29298 -10.5079 0.789276 18
692 1 7.30677 10.2448 -8.45923 18
693 1 2.43966 -2.20899 6.29259 20
694 1 -4.20384 9.94001 0.432187 18
695 1 -14.242 5.85332 10.3402 23
696 1 4.65487 -2.69763 -13.8072 20
697 1 -1.4195 -7.77901 8.41453 18
698 1 3.54507 16.1482 2.71021 19
699 1 -6.14979 4.48317 13.443 20
700 1 -13.4293 -3.8567 -11.9253 11
701 1 -11.5608 -3.06258 -15.1162 12
702 1 -8.66217 -10.675 -6.76802 15
703 1 -5.36532 12.0725 -11.0299 21
704 1 -0.13892 -5.67193 -7.37478 19
705 1 -6.74003 14.4094 8.93106 15
706 1 4.48152 -4.47625 -9.26557 18
707 1 5.78326 -13.0881 -1.11776 17
708 1 -1.1466 -4.70163 10.2239 19
709 1 14.4465 7.01272 -7.02082 9
710 1 2.29822 -11.8754 -2.20836 22
711 1 -14.6291 -2.51791 8.63186 22
712 1 -4.92419 -13.7512 -4.26094 14
713 1 -8.44806 -5.4499 -6.515 18
714 1 -12.3031 4.15486 10.2575 19
715 1 -7.1813 -13.3867 -1.58376 17
716 1 10.8423 7.97688 0.00326597 20
717 1 -9.01034 16.5304 2.1325 13
718 1 -8.39933 6.03371 6.7888 19
719 1 -16.4424 10.8144 -2.69121 14
720 1 16.1304 4.8763 3.82187 13
721 1 -14.6026 -1.28447 -9.589 12
722 1 0.816741 11.7476 -2.49801 22
723 1 8.26409 2.46008 -10.0729 19
724 1 9.36378 12.2361 12.226 11
725 1 5.41347 5.56924 -4.93869 19
726 1 -14.3246 6.46567 -5.76372 15
727 1 -14.0851 -4.34022 -3.54702 19
728 1 0.0908885 10.0634 16.5962 15
729 1 5.36674 6.37432 -9.6778 19
730 1 10.4585 15.9225 7.15123 16
731 1 -6.67116 3.04267 10.1282 21
732 1 -3.24885 -10.7879 -2.45453 17
733 1 -11.0405 -13.7493 4.86439 11
734 1 -6.36123 -2.85939 10.4682 19
735 1 10.6048 10.8347 9.64487 16
736 1 -3.5613 -8.88507 -11.8391 15
737 1 -9.58574 8.01476 -1.68481 22
738 1 2.06943 9.0071 4.79741 20
739 1 -9.74147 -6.23252 5.99594 18
740 1 10.0102 9.61278 -10.793 11
741 1 2.11834 -14.2269 -5.97153 14
742 1 -1.49407 -15.8033 0.0357562 10
743 1 -0.044974 -10.7729 -3.40589 17
744 1 2.29137 4.82006 -10.1381 21
745 1 1.4882 20.7575 2.87731 8
746 1 -3.49606 1.31709 -15.9887 17
747 1 -2.35451 1.84207 15.0052 15
748 1 -0.085426 9.09811 -12.4142 19
749 1 -12.9305 7.42201 -13.3999 12
750 1 -11.6847 -3.17649 -2.29441 21
751 1 1.81562 12.8933 -4.99823 17
752 1 5.23665 0.298137 2.18311 19
753 1 -1.92941 -1.18096 -18.2886 12
754 1 -11.2565 -7.85963 -1.22385 20
755 1 10.1569 8.78809 -2.83187 18
756 1 10.6711 -4.7926 1.62144 10
757 1 -7.81528 10.103 15.4879 15
758 1 3.34358 -5.16119 6.05384 18
759 1 10.1809 2.47401 -1.63801 18
760 1 12.407 1.06888 6.8341 13
761 1 -2.00901 11.1786 6.04182 20
762 1 -9.76414 4.05951 15.5093 16
763 1 -8.06192 9.29366 11.6149 19
764 1 -0.508122 -10.2017 6.78449 19
765 1 4.34343 2.44122 4.0699 21
766 1 4.67936 9.58639 12.1209 17
767 1 -16.9459 0.0938774 2.1964 17
768 1 7.41685 -0.379058 -6.34759 21
769 1 -11.5461 13.7156 -8.11713 14
770 1 2.10595 8.1136 1.85248 19
771 1 1.16583 -13.4855 7.08863 10
772 1 -0.362614 8.08299 13.1443 21
773 1 -3.57324 15.2202 9.07116 14
774 1 -5.47639 -9.93745 8.69152 19
775 1 -8.9246 -2.49214 -1.2923 24
776 1 0.923608 5.50749 11.2727 19
777 1 -14.7651 1.70286 -4.34853 19
778 1 -1.7809 15.0875 14.0231 14
779 1 5.03322 15.1502 -0.181466 17
780 1 -14.383 -8.0729 9.93972 14
781 1 -7.95518 -15.0321 6.48179 8
782 1 7.67762 -3.17454 9.05259 15
783 1 9.31054 1.30655 8.26964 19
784 1 4.56083 13.3608 11.2292 20
785 1 -3.71982 9.46003 -5.1334 18
786 1 -0.09353 -2.37342 -13.6506 19
787 1 -3.66132 1.90503 -11.1779 18
788 1 -8.39885 0.624615 10.4632 21
789 1 -5.78927 15.7687 1.16717 18
790 1 13.2921 3.64093 2.94389 18
791 1 1.39997 10.1785 -6.37179 19
792 1 -4.90613 14.382 15.0933 12
793 1 9.41455 13.8364 9.33651 14
794 1 7.81549 -5.7893 -9.28138 21
795 1 -9.39357 -10.1062 -1.98855 22
796 1 -8.30731 0.520826 -6.3787 18
797 1 12.8722 -1.33612 4.80011 10
798 1 -0.0399497 3.90992 -12.3032 20
799 1 -4.53555 6.71964 17.2798 13
800 1 7.69312 -9.32058 -10.939 11
801 1 8.94139 4.52867 -14.4035 16
802 1 -4.10134 -8.77702 -5.35491 21
803 1 6.32934 8.49786 -14.6831 15
804 1 12.3522 3.17914 -0.455386 17
805 1 -0.565287 -1.48392 12.0115 21
806 1 -2.73636 -4.65298 -13.4323 20
807 1 6.1032 18.2337 -0.274803 11
808 1 -2.74405 -4.39137 4.49831 19
809 1 -17.2996 6.48253 5.03294 12
810 1 11.3982 5.48118 -2.83967 18
811 1 15.3241 10.0127 4.92232 13
812 1 -3.20522 -1.13942 -13.4103 19
813 1 -10.8731 10.3677 5.20615 18
814 1 15.1199 13.5248 5.41844 10
815 1 9.30847 16.2835 -6.3863 11
816 1 4.10867 7.24837 -16.0883 16
817 1 5.26286 -2.50162 -0.1505 20
818 1 -12.2825 2.54437 -2.96115 21
819 1 12.3927 11.9089 0.439634 22
820 1 -10.615 -4.94201 0.306842 20
821 1 -9.62845 8.31608 -7.86642 18
822 1 5.62013 11.7265 8.63279 20
823 1 -14.1019 1.08494 -7.44352 13
824 1 -14.3787 10.254 9.87709 11
825 1 -6.66585 9.99402 -5.43046 19
826 1 9.76141 0.470847 -4.01244 21
827 1 -13.069 -8.16252 -8.02704 9
828 1 12.2174 -1.82211 0.682071 13
829 1 -15.2312 8.7251 2.04296 13
830 1 -5.55672 -6.0868 -4.1475 21
831 1 6.27037 15.139 8.22729 20
832 1 -7.44625 -15.183 0.616215 10
833 1 9.12199 3.47629 16.2352 13
834 1 9.57928 -0.772389 5.99682 16
835 1 10.3884 2.29091 2.02562 19
836 1 -12.5438 8.71219 0.106705 18
837 1 -5.27212 10.537 13.279 20
838 1 -0.597514 8.43573 -9.34913 20
839 1 -2.79919 -4.53284 -16.8665 12
840 1 -9.80963 14.433 8.32041 11
841 1 -7.88302 -4.76865 7.65313 15
842 1 4.53452 14.107 -6.50354 18
843 1 -5.62316 12.1759 7.56135 19
844 1 12.8422 1.42068 -3.68719 16
845 1 1.69459 -3.87127 12.0086 15
846 1 -2.09522 11.0763 -13.2848 19
847 1 3.80756 9.9238 -8.13777 16
848 1 -9.3777 3.6719 8.50024 22
849 1 12.6967 9.38624 6.78523 18
850 1 -7.14176 -1.87077 -9.16262 20
851 1 9.93268 15.345 -1.16599 17
852 1 -17.7502 5.73537 1.51741 13
853 1 -4.2497 -7.95708 10.6941 18
854 1 3.21219 15.1668 -12.2324 12
855 1 4.17778 0.605851 5.95741 21
856 1 -2.89574 -13.5074 -6.16422 14
857 1 -10.7397 17.6448 -0.678803 12
858 1 -17.6169 8.78489 -3.84147 11
859 1 7.31418 2.11004 -13.1207 21
860 1 -3.01401 -7.31459 -14.7957 14
861 1 -8.92152 11.7714 3.50662 19
862 1 10.6516 14.1693 -4.70612 19
863 1 -9.36523 3.45401 5.35135 20
864 1 7.45736 -0.94016 -13.1201 15
865 1 -6.31792 -10.9468 -11.7508 8
866 1 -1.63147 -8.61704 -3.50472 17
867 1 -2.72635 12.6198 9.2071 20
868 1 7.37133 -14.2314 -3.51458 12
869 1 -1.52556 8.78296 -17.4779 10
870 1 15.2364 9.88464 -4.1135 11
871 1 6.38802 11.7186 2.41252 19
872 1 0.170461 -13.91 -1.23601 14
873 1 0.76698 0.473834 -18.5513 11
874 1 8.49737 5.56724 -4.92555 17