ITEM: TIMESTEP
13000
ITEM: NUMBER OF ATOMS
500
ITEM: BOX BOUNDS pp pp pp
-30.0 30.0
-30.0 30.0
-30.0 30.0
ITEM: ATOMS id type x y z Coordination
1 1 10.0816 -0.0265593 5.5048 11
2 1 0.879428 4.62958 7.3559 14
3 1 -4.70955 1.17103 2.75436 21
4 1 -0.787477 -1.02845 -11.9591 12
5 1 -6.94485 -1.19389 -2.58489 16
6 1 2.31617 0.963472 -13.1324 12
7 1 8.0762 -7.32288 -6.68974 16
8 1 2.44767 1.85254 6.86559 19
9 1 3.48826 4.26753 -8.11023 21
10 1 4.10978 4.74447 6.93158 15
11 1 -7.89592 -5.13005 -1.07585 12
12 1 10.7848 -5.08915 -7.12921 9
13 1 3.24503 -1.02668 7.79546 17
14 1 -6.33926 -7.37302 -2.96159 14
15 1 -0.533915 -7.26413 -8.03958 15
16 1 8.31297 0.528442 -7.81973 23
17 1 9.0816 -5.41911 2.34754 13
18 1 -1.79219 7.21415 1.67281 17
19 1 0.15089 7.62905 -1.02942 17
20 1 1.46027 -6.71176 -10.8486 11
21 1 -0.306891 2.78327 4.88357 19
22 1 9.35774 -2.01927 3.61516 14
23 1 -5.61484 5.5613 5.00784 10
24 1 4.73112 4.82954 -10.7686 13
25 1 10.661 6.32688 -4.8166 11
26 1 2.1797 6.92344 -7.58122 17
27 1 -3.13339 3.8973 -8.38983 20
28 1 0.368132 7.71384 -5.27541 15
29 1 2.74318 6.21814 -3.20811 21
30 1 -6.55887 1.64 -0.137968 17
31 1 2.93947 3.34323 4.06943 20
32 1 -2.96052 1.60492 -10.6606 16
33 1 -3.59141 -7.76175 2.26964 19
34 1 6.86058 -7.49997 -3.14545 21
35 1 -7.46048 -2.55213 3.58668 10
36 1 -4.80069 -0.928081 -5.16108 23
37 1 1.60527 -10.0003 1.83614 12
38 1 6.02933 1.76291 -12.5522 10
39 1 -4.25766 -8.47036 -5.78285 10
40 1 1.49052 4.30768 -12.097 13
41 1 1.48375 9.33856 -3.07842 11
42 1 -7.47554 0.415272 2.54058 13
43 1 2.32585 6.87598 5.4638 15
44 1 5.99919 2.14285 6.10738 20
45 1 5.17904 -10.248 -2.69075 20
46 1 8.49797 2.36592 -10.1358 13
47 1 -1.5028 -9.92365 0.559577 16
48 1 7.08744 -0.849062 5.93147 16
49 1 4.04657 -5.78505 5.48379 14
50 1 8.75957 6.57259 -2.73552 19
51 1 -4.34227 -9.49268 -0.720938 12
52 1 3.64587 -9.57676 -0.329904 18
53 1 0.543828 -0.0935272 5.59039 23
54 1 -5.90304 -0.704988 5.43474 13
55 1 6.66313 -12.8027 -1.61064 8
56 1 -7.19268 -6.11557 2.45299 9
57 1 -0.515811 5.86601 4.40753 16
58 1 -5.68347 3.70635 2.60045 15
59 1 -2.53798 4.35195 6.05397 14
60 1 -3.95481 -6.16333 -8.18003 12
61 1 -5.89045 2.97398 -9.05961 12
62 1 -1.9389 -4.26894 -7.42148 19
63 1 8.53545 0.861951 8.03653 9
64 1 2.07081 -4.78785 7.67785 14
65 1 -2.87925 -1.19119 -9.74197 17
66 1 -8.25324 -4.52439 -3.75732 11
67 1 1.10345 -11.637 -1.50009 11
68 1 -3.19951 4.47615 2.04676 24
69 1 3.60752 -9.23521 -10.3051 10
70 1 -0.257754 8.60216 3.24514 10
71 1 -6.60897 2.18451 -6.12312 14
72 1 -4.75093 6.36746 -9.15292 9
73 1 1.56516 -9.68837 -7.45056 12
74 1 6.63845 -7.22858 2.88709 16
75 1 -4.86044 4.89273 -6.26593 18
76 1 -2.65331 -1.42678 6.74447 13
77 1 -6.25192 2.08488 5.17119 11
78 1 5.96696 -7.26996 -9.67754 11
79 1 -0.377767 -7.32553 7.32773 8
80 1 7.63535 -10.0593 -5.04121 11
81 1 10.1118 2.35954 0.387745 17
82 1 4.7462 -0.773772 -11.9187 14
83 1 5.67983 -10.1538 1.23379 14
84 1 -1.56139 -10.4781 -2.61134 13
85 1 -4.67873 -4.90804 3.26397 16
86 1 9.71985 3.48735 6.22467 9
87 1 10.5503 3.88056 -2.97706 18
88 1 3.60206 2.12766 -10.6781 22
89 1 1.39762 6.38783 -10.2462 13
90 1 0.630977 10.1855 0.769169 9
91 1 8.25166 -0.183787 -10.8898 12
92 1 7.15875 -9.50182 -1.16373 18
93 1 8.42779 -6.44131 -0.176874 17
94 1 3.26823 -7.35746 2.75171 21
95 1 -4.40727 0.804421 -7.82612 20
96 1 10.2658 -1.62546 -2.4161 17
97 1 -0.965489 6.70318 -8.45451 16
98 1 6.4086 -9.68569 -7.83037 11
99 1 -6.57889 -4.05769 6.76165 6
100 1 3.61912 -12.7329 -3.63001 9
101 1 5.00144 -4.4914 -8.05701 20
102 1 9.54125 -10.9303 -0.948102 6
103 1 4.13243 -10.0422 -5.47943 17
104 1 -0.152403 -1.86767 8.0435 14
105 1 -0.709423 1.86449 7.65028 14
106 1 6.40021 -2.11755 -9.50239 16
107 1 -5.16934 6.24888 -3.45107 14
108 1 5.81561 7.53255 -2.67444 16
109 1 10.4733 3.82861 -7.483 14
110 1 0.184526 1.88231 -11.0173 18
111 1 -7.9994 -1.87418 0.617495 10
112 1 4.88076 -3.13496 6.05183 14
113 1 -6.5241 -0.761613 -8.73983 11
114 1 9.60437 -3.44535 0.498075 16
115 1 4.82159 1.39798 8.37743 13
116 1 0.971753 -6.66673 4.87268 19
117 1 9.75501 4.3144 3.12014 15
118 1 8.21077 7.2572 2.50072 13
119 1 3.04023 -7.29927 -7.55076 23
120 1 5.07647 6.43801 4.3078 17
121 1 0.212145 3.95154 -8.42218 22
122 1 -0.363909 -8.82187 -4.97913 16
123 1 8.2733 5.0861 -0.0292599 22
124 1 -5.04248 4.47066 -0.656549 21
125 1 8.41837 4.8484 -5.0277 22
126 1 1.93519 -0.0970141 10.1587 9
127 1 1.82836 -0.731936 -10.7875 20
128 1 9.74921 -7.14204 -4.15408 12
129 1 2.92231 8.84409 3.02709 12
130 1 -3.61098 7.43792 4.28879 11
131 1 8.16163 -4.3534 -7.63174 14
132 1 7.0762 -3.90521 4.40464 14
133 1 -2.79805 0.86848 5.53564 17
134 1 10.2973 0.656778 2.55192 14
135 1 4.34316 8.17987 -5.31896 13
136 1 10.3916 1.31116 -5.7252 17
137 1 -0.54686 -3.92068 5.55552 20
138 1 2.00523 -2.84609 5.20364 20
139 1 -3.64147 7.33578 -0.660829 16
140 1 8.32337 8.60121 -0.753546 9
141 1 -5.46813 -6.64715 0.26805 18
142 1 11.9361 -0.705219 -7.10058e-05 9
143 1 -3.1966 -7.83491 -3.21277 18
144 1 7.42902 5.14758 5.48944 14
145 1 12.2647 -1.35931 -6.57489 9
146 1 3.21165 8.53722 -0.544427 16
147 1 -7.70211 -2.87754 -5.87722 10
148 1 5.69985 6.57523 -8.10015 14
149 1 -4.77281 -2.80768 -7.59181 14
150 1 3.30894 -3.72419 -10.6948 14
151 1 1.74751 -10.0591 -3.84839 19
152 1 -1.06388 -9.35805 4.07331 12
153 1 11.1982 -4.10115 -4.37907 11
154 1 -6.62808 3.67826 -3.27979 14
155 1 -1.65289 4.63032 -11.0835 13
156 1 -5.79616 -5.61529 -5.92439 16
157 1 7.64222 2.36374 3.43733 19
158 1 0.0811125 -3.9777 -10.5696 12
159 1 -5.3136 6.89069 1.874 12
160 1 -3.38172 -4.87701 6.1798 11
161 1 11.0785 6.00181 -0.99562 10
162 1 12.0824 0.887517 -3.13683 9
163 1 -2.46741 -7.31369 5.34428 13
164 1 6.53241 3.80178 -8.12653 20
165 1 8.95041 5.83398 -7.81501 12
166 1 5.68191 7.74062 1.47379 16
167 1 7.82947 7.89473 -5.98817 13
168 1 11.4663 0.882785 -8.91642 11
169 1 10.3382 -2.07545 -8.98106 13
170 1 3.12167 6.20217 2.20284 19
171 1 -1.81966 6.71449 -3.32078 17
172 1 -0.119654 -7.42356 1.33523 21
173 1 8.85728 -9.12352 1.80113 10
174 1 -4.90898 -4.54897 -2.42747 22
175 1 -3.11839 7.64072 -6.12607 13
176 2 -6.69544 -4.39104 3.27872 13
177 2 9.34264 4.82842 5.10061 11
178 2 -7.03175 2.19716 -4.27978 12
179 2 -0.0671743 -9.26302 2.44951 16
180 2 1.5078 -1.43019 8.99496 9
181 2 -3.82007 5.57977 5.73847 11
182 2 7.87149 -5.60586 -5.88249 20
183 2 -2.30712 -0.232415 -11.196 12
184 2 3.0094 -7.70105 -11.0716 9
185 2 -1.74227 7.25232 3.66379 15
186 2 9.79809 -3.44091 2.34067 14
187 2 9.46583 6.92473 -0.851235 14
188 2 0.955271 7.39393 4.27629 14
189 2 7.55067 8.04834 -2.45998 11
190 2 5.20834 5.00078 -8.84219 18
191 2 8.52282 -0.770615 -9.13682 18
192 2 -6.06702 1.11226 -9.20805 12
193 2 -0.43637 -8.11125 5.3028 11
194 2 -4.31919 -0.491062 2.02151 21
195 2 6.91583 -7.73198 -8.08839 15
196 2 5.13242 -12.2858 -2.64814 12
197 2 3.92227 4.93388 3.62614 19
198 2 5.29238 -1.27619 7.03713 14
199 2 -3.11488 -9.08997 0.893072 14
200 2 5.42948 -10.1381 -0.709014 18
201 2 -5.21992 -7.86946 -1.32331 16
202 2 -0.807624 -10.9896 -0.731036 13
203 2 0.135121 -9.59926 -3.14861 18
204 2 -3.70279 7.45734 1.21991 14
205 2 6.84933 1.90962 -8.49572 18
206 2 8.6756 4.71389 -3.11215 20
207 2 2.99855 5.35871 -10.7887 14
208 2 8.71917 5.47069 1.98688 18
209 2 1.4222 9.37873 -0.924893 11
210 2 -5.04345 4.74377 1.21164 18
211 2 2.76341 8.20249 -4.16733 15
212 2 7.40591 7.053 -7.67672 13
213 2 0.198212 4.19186 3.70718 21
214 2 3.37916 -4.30293 6.40224 13
215 2 4.34635 -6.50461 -8.76386 19
216 2 3.52495 -7.55895 -5.3629 19
217 2 1.35196 -6.6097 -8.42312 19
218 2 -4.89891 -7.65667 -4.21884 13
219 2 11.5767 -2.97619 -5.94913 9
220 2 3.64118 7.9971 1.26791 16
221 2 0.410955 -2.25517 -11.0645 13
222 2 4.23632 0.767777 -12.6397 11
223 2 -2.39374 -8.30512 -5.27557 17
224 2 5.55987 -9.42162 -9.66473 9
225 2 9.88056 1.41213 -9.67445 13
226 2 -5.32512 -6.75431 2.21605 15
227 2 3.4574 -1.83087 -11.1789 15
228 2 3.15205 -9.14757 -8.54435 15
229 2 0.887474 0.286832 -12.3078 13
230 2 -1.72674 5.50626 0.939141 22
231 2 -2.93923 -9.48613 -1.94782 13
232 2 -5.16854 6.26489 -1.57067 14
233 2 -6.36919 -2.59999 5.22724 10
234 2 -7.46242 -2.67683 -3.6243 14
235 2 5.49615 -6.40713 1.55777 22
236 2 11.8575 -0.174477 -4.90651 12
237 2 5.08349 5.79537 1.26203 20
238 2 -2.15652 -3.03412 6.02692 14
239 2 -6.27251 1.95472 1.79428 18
240 2 -6.6059 -1.92903 -6.92696 14
241 2 10.5153 2.13319 -3.61194 17
242 2 -8.33767 -3.57713 -0.225425 11
243 2 0.444184 7.62807 -9.07048 12
244 2 6.54876 -1.37483 -11.2839 11
245 2 -6.44042 3.23189 -1.32838 15
246 2 8.64173 -8.46699 -5.17801 11
247 2 3.60355 -9.6106 -3.64922 22
248 2 -5.02655 6.59259 3.60243 11
249 2 8.38289 -12.2484 -0.908004 7
250 2 2.39454 5.49767 6.79045 14
251 2 -0.0523175 7.96188 -3.32672 13
252 2 -3.21058 -5.79975 4.32461 15
253 2 0.127185 5.19622 -11.1736 13
254 2 11.3416 -0.929921 -8.22701 11
255 2 3.57916 0.277718 9.24807 10
256 2 11.1369 5.75795 -3.10935 11
257 2 6.54992 6.90925 3.20654 14
258 2 -6.58504 -5.55386 -2.54146 14
259 2 1.54487 1.8241 4.88518 19
260 2 8.7282 -0.449659 6.94852 10
261 2 2.11447 2.50051 -11.9681 15
262 2 0.820108 2.76665 7.62687 14
263 2 7.55641 -5.72477 3.69586 12
264 2 -4.97946 1.17058 -6.15591 20
265 2 -3.08568 3.74843 -5.98073 22
266 2 -4.69459 4.39811 -9.56281 13
267 2 0.72976 -4.84519 4.26897 22
268 2 1.37949 9.74335 2.30869 10
269 2 -2.12245 -6.14532 -7.62322 16
270 2 10.045 -1.76614 -0.451145 17
271 2 -3.66593 6.91848 -4.37079 15
272 2 9.97222 -3.47339 -3.10005 16
273 2 -1.86435 -6.63007 1.82749 24
274 2 -4.88537 -7.09148 -6.94558 10
275 2 1.75603 6.47978 -5.68211 20
276 2 -5.92654 3.81601 4.48464 13
277 2 1.21042 -6.42744 7.4882 11
278 2 -7.85132 -1.41043 2.33421 12
279 2 -0.693713 5.13438 6.22486 13
280 2 -5.65233 4.75845 -4.50832 16
281 2 8.93883 6.993 -4.78548 15
282 2 -1.7752 2.54252 6.27609 16
283 2 0.736238 -3.18115 6.865 16
284 2 -3.78526 -4.15754 -8.59982 14
285 2 1.73086 5.19665 -8.40146 20
286 2 -0.0480541 -6.93869 -5.20551 24
287 2 7.18851 3.24528 5.23924 18
288 2 10.1246 3.92106 -0.838491 18
289 2 6.83189 -8.89124 2.03978 14
290 2 8.57282 0.955298 -5.62107 18
291 2 4.27652 2.83402 7.12562 16
292 2 -0.312223 0.00153197 7.49021 18
293 2 -4.98549 -3.95369 -5.89388 18
294 2 1.45706 6.46241 -1.88608 21
295 2 -6.93912 0.363379 4.26042 13
296 2 -7.38079 -6.00177 0.473321 10
297 2 1.98153 -12.0309 -3.1594 12
298 2 6.67328 1.22135 7.89425 12
299 2 -1.65452 4.95195 -8.66519 20
300 2 8.78876 3.98531 -8.73496 14
301 2 5.99256 -10.4526 -6.07414 14
302 2 10.7628 -0.826233 3.97131 9
303 2 5.56523 5.55058 6.0103 14
304 2 3.94106 7.35934 -7.35627 15
305 2 1.80629 -4.86169 -11.0332 11
306 2 -0.407443 8.45226 1.18535 13
307 2 -1.43255 7.05245 -6.32033 15
308 2 -5.78912 3.4584 -7.0038 16
309 2 -4.53204 1.68932 5.48739 14
310 2 5.08455 3.04889 -11.4873 17
311 2 6.8568 -3.93274 -8.7525 16
312 2 -4.27628 6.60536 -7.26831 14
313 2 -1.72308 2.78845 -11.2853 17
314 2 7.42328 -2.05104 4.48389 17
315 2 -4.10402 -0.673504 6.00516 12
316 2 -5.03109 -4.78456 7.25811 6
317 2 2.81777 -6.7581 4.43977 15
318 2 -6.98266 -0.568636 -0.694769 15
319 2 -1.84061 -6.18271 6.73098 13
320 2 3.50332 -9.20134 1.92422 15
321 2 9.75101 1.7015 5.93754 14
322 2 6.94599 -9.73689 -3.23397 19
323 2 -1.74605 6.81154 -1.28813 17
324 2 -4.3811 -1.04366 -8.64269 15
325 2 -1.01859 0.761285 4.60403 18
326 2 5.30391 -4.47571 4.51653 17
327 2 7.58239 1.54703 -11.5628 12
328 2 7.47085 8.23355 0.894291 12
329 2 11.3268 0.913707 0.896426 11
330 2 10.0287 -3.71376 -8.15593 11
331 2 8.81881 -7.13924 1.51715 13
332 2 9.93693 5.0872 -6.20235 16
333 2 -7.61513 -4.82233 -5.55325 9
334 2 -4.34654 -5.38162 -0.578526 20
335 2 6.79569 -7.41226 -0.952267 23
336 2 6.11244 7.51993 -5.09241 15
337 2 12.0013 -0.732044 -2.01972 9
338 2 7.05104 3.95871 -6.23312 23
339 2 10.921 -5.78391 -5.14134 11
340 2 8.85857 -9.39994 -0.127082 11
341 2 2.14654 -10.3888 -5.80072 13
342 2 4.30454 7.33919 -1.53653 17
343 2 3.83051 7.88691 4.52039 13
344 2 2.27614 -10.6748 -0.0492601 16
345 2 -2.72734 -8.52068 3.90444 13
346 2 9.35944 2.57001 2.25776 17
347 2 11.0297 2.21724 -7.17736 13
348 2 -3.3822 1.98324 -8.71506 20
349 2 -0.160738 -8.84159 -7.14156 13
350 2 8.59135 -6.2445 -3.05261 16
351 1 -1.85615 -6.47011 -5.23443 19
352 1 -3.39543 -3.44294 -5.01599 19
353 1 0.0429191 -1.67484 -8.12508 22
354 1 1.46192 -4.48322 -7.84942 22
355 1 1.76618 -6.48001 -5.0161 23
356 1 0.34601 -3.65389 -4.98296 22
357 2 -1.70225 -6.63246 -2.46157 21
358 2 -3.62918 -3.3652 -3.10014 20
359 2 -3.18272 -1.78325 -5.82777 22
360 2 -1.96581 -4.63212 -5.38256 20
361 2 -0.348471 -3.71242 -8.63725 18
362 2 1.63045 -6.26452 -2.95806 23
363 2 0.0671488 -3.6926 -3.04344 25
364 2 0.199872 -1.87812 -5.91701 22
365 2 1.84887 -4.53455 -5.81687 22
366 1 -3.23786 -1.55704 -2.58172 23
367 1 -1.59607 -4.60722 -3.03725 22
368 1 -2.20081 -6.35621 -0.109586 23
369 1 -3.50098 -3.61549 0.0387255 19
370 1 -3.10525 -1.92634 2.21853 13
371 1 -1.92081 -5.11362 2.85473 22
372 1 0.0169525 -7.52731 -2.4461 23
373 1 0.188009 -1.58748 -2.55118 23
374 1 1.92126 -4.25773 -2.83392 22
375 1 1.97029 -6.45819 -0.345538 19
376 1 0.0316353 -3.77946 -0.145217 24
377 1 -0.0517471 -1.80856 2.5033 20
378 1 1.39304 -4.51993 2.417 22
379 2 -3.4809 -3.98947 2.02763 17
380 2 -3.27408 -1.81308 -0.493286 19
381 2 -1.70866 -4.60523 -0.683608 21
382 2 0.381136 -7.4992 -0.540388 19
383 2 1.75812 -6.73683 1.7136 20
384 2 -0.368912 -3.95022 1.71196 22
385 2 0.0756052 -1.91204 -0.605578 22
386 2 1.74014 -4.23084 -0.857182 21
387 2 0.732266 -1.69432 4.47744 21
388 1 -1.34765 1.42506 -8.16222 23
389 1 -1.56001 -0.912572 -5.3109 23
390 1 -3.26187 1.89053 -5.58168 24
391 1 -1.39396 4.75579 -5.71882 22
392 1 2.11488 1.33403 -8.16228 23
393 1 1.89376 -0.912682 -5.26045 24
394 1 0.32248 1.66725 -5.36294 22
395 1 2.00233 4.59298 -5.5106 23
396 2 -5.18156 -0.628829 -3.227 17
397 2 -1.38309 -0.340963 -8.97446 21
398 2 -1.73305 -0.619914 -3.2663 22
399 2 -3.28901 1.94394 -3.44372 22
400 2 -1.4712 0.947347 -6.20234 22
401 2 -1.43233 4.9192 -3.73713 23
402 2 1.79033 -0.548037 -8.74729 21
403 2 0.247289 1.88845 -9.14742 24
404 2 1.7417 -0.485736 -3.1457 23
405 2 0.148091 2.02636 -3.46871 23
406 2 0.0624022 3.41648 -6.36176 22
407 2 1.99594 1.00952 -6.03359 22
408 2 2.05268 4.25278 -3.54524 18
409 1 -5.22415 1.3926 -2.88184 21
410 1 -4.87096 -0.558371 0.0226781 21
411 1 -3.21427 3.87182 -3.22058 23
412 1 -1.67547 1.21555 -2.57671 23
413 1 -1.36024 -0.903989 -0.0083717 22
414 1 -3.13749 2.20341 -0.0977111 24
415 1 -1.2219 1.16834 2.70194 23
416 1 -1.41619 5.01214 -0.874049 20
417 1 0.0868888 3.95922 -3.20204 22
418 1 2.03281 1.33327 -2.90435 23
419 1 1.75564 -0.805035 -0.198796 21
420 1 0.102416 1.95286 -0.0712276 22
421 1 0.084 4.39985 1.70626 18
422 1 1.64661 0.955789 2.66199 22
423 1 4.40948 -0.403452 5.46351 22
424 1 1.8223 4.58576 -0.650537 21
425 2 -4.84537 1.20845 -0.827819 21
426 2 -1.52511 -0.737537 2.16802 20
427 2 -3.34072 2.44917 2.06722 22
428 2 -3.20291 3.87378 -1.21866 23
429 2 -1.6694 0.878554 -0.617914 22
430 2 1.47047 -0.773146 1.75486 22
431 2 0.14507 2.24756 1.99933 21
432 2 0.148025 3.72901 -0.992838 22
433 2 1.83541 1.14102 -0.701591 23
434 2 2.70161 -0.0666019 6.47485 21
435 2 1.8067 5.02682 1.10225 19
436 1 3.33651 -1.77747 -8.05331 20
437 1 4.97242 -6.18124 -5.11994 21
438 1 3.65296 -3.66816 -5.45691 23
439 1 7.08573 -3.96886 -5.4314 18
440 2 3.34989 -3.67835 -8.64534 21
441 2 5.29428 -6.34389 -3.28902 23
442 2 3.44385 -3.26235 -3.71303 24
443 2 3.59329 -1.81461 -5.89166 22
444 2 5.36003 -4.77075 -6.1559 21
445 2 6.67498 -3.58732 -3.38548 23
446 2 7.08727 -2.07476 -5.79383 19
447 1 3.6413 -7.55682 -2.99552 20
448 1 3.46516 -1.6285 -3.10099 21
449 1 5.07156 -4.37222 -2.5941 25
450 1 5.27462 -6.40746 -0.283681 21
451 1 3.482 -3.55456 -0.166884 23
452 1 3.25896 -1.92991 2.44394 20
453 1 4.78528 -4.40687 2.59874 20
454 1 6.83404 -1.77021 -2.66428 24
455 1 8.37882 -4.26809 -2.42692 21
456 1 6.60463 -3.41529 0.117725 22
457 1 6.74913 -1.33631 2.54609 20
458 2 3.59746 -7.65103 -0.902553 22
459 2 2.98164 -3.71613 1.93936 24
460 2 3.63519 -1.67057 -0.799989 25
461 2 5.14981 -4.46272 -0.724744 23
462 2 3.66616 -1.94745 4.2156 24
463 2 6.11704 -3.1295 1.97553 23
464 2 6.84778 -1.59466 -0.518671 23
465 2 8.27065 -4.61747 -0.329578 19
466 1 5.2265 0.727879 -8.35684 21
467 1 5.50852 -0.969838 -5.45578 23
468 1 3.78715 1.9467 -5.79888 23
469 1 5.52682 5.00325 -5.48896 23
470 1 8.26047 -0.863804 -5.00418 17
471 1 6.82572 1.99319 -5.43916 22
472 2 4.76406 -1.16777 -8.96686 20
473 2 3.5804 2.33408 -8.69272 20
474 2 5.26744 -0.836882 -3.56786 24
475 2 3.9246 1.92404 -3.9272 25
476 2 3.87997 4.18424 -6.10649 23
477 2 5.41432 0.79069 -6.30532 22
478 2 5.36902 4.8111 -3.53467 23
479 2 8.48258 -0.750091 -3.05867 23
480 2 6.95876 2.16854 -3.42519 22
481 1 3.78362 3.60498 -2.92076 21
482 1 5.34616 1.06798 -2.89731 24
483 1 5.1263 -0.596979 -0.141669 21
484 1 3.45426 1.9281 -0.168113 22
485 1 6.32549 4.87176 2.44745 21
486 1 5.32172 1.2935 2.66921 19
487 1 4.98514 5.13186 -0.52598 21
488 1 6.88369 3.82256 -2.75207 22
489 1 8.63633 1.44949 -2.63402 21
490 1 8.55962 -0.288157 0.134446 21
491 1 6.6048 2.35078 0.0975675 22
492 2 4.95636 -0.380341 1.74248 23
493 2 3.45517 1.80758 2.81074 15
494 2 3.64402 3.65641 -0.874344 20
495 2 5.22627 1.28425 -0.767089 23
496 2 5.54816 0.950823 4.63068 19
497 2 8.55714 -0.503882 2.28663 20
498 2 6.70976 3.08167 2.00238 19
499 2 6.83975 4.09262 -0.65106 20
500 2 8.43254 1.39232 -0.692706 23
