ITEM: TIMESTEP
33000
ITEM: NUMBER OF ATOMS
2000
ITEM: BOX BOUNDS pp pp pp
-30.0 30.0
-30.0 30.0
-30.0 30.0
ITEM: ATOMS id type x y z Coordination
1 1 -22.7165 -3.3483 -8.08048 10
2 1 -17.8755 -15.2925 -4.76267 13
3 1 1.25183 8.85387 8.0238 13
4 1 -1.8216 -12.1058 17.767 12
5 1 -21.1191 1.89527 -0.761639 12
6 1 9.46879 -7.95673 -4.7664 15
7 1 -22.1974 -0.24748 -5.95761 15
8 1 -7.13668 -11.1117 11.4697 17
9 1 -13.0511 -8.06546 -10.1162 18
10 1 -22.7086 -9.04257 7.14231 13
11 1 7.76639 -2.24658 -3.91126 18
12 1 -11.5242 -17.2615 1.96724 20
13 1 -15.2105 -17.1135 5.91501 22
14 1 -6.80686 -4.44413 16.9378 17
15 1 -0.263171 -6.97015 2.39496 20
16 1 -8.45662 -3.97013 7.99606 23
17 1 7.73022 -14.2198 5.43518 15
18 1 -13.6329 0.248897 -11.9403 18
19 1 -3.25074 -7.7658 11.4364 16
20 1 -17.1765 -4.29354 -14.4244 13
21 1 -19.2537 -5.7935 14.0519 15
22 1 4.99644 -1.3741 10.1045 14
23 1 -10.0001 -8.93257 -11.0237 18
24 1 -7.6595 7.40211 -13.7716 15
25 1 4.32899 -6.12127 10.768 17
26 1 -19.9506 0.749334 -7.52508 20
27 1 -15.1061 -0.371645 -9.36176 24
28 1 -3.92065 -4.56888 -15.521 15
29 1 -11.0562 7.80968 0.109487 20
30 1 1.1821 -16.8653 10.6193 10
31 1 -5.67455 -9.00777 12.7893 17
32 1 -6.00068 -7.43717 -15.7606 17
33 1 3.91672 -16.7439 -0.524053 15
34 1 -10.6236 -18.4447 -1.29773 18
35 1 -14.0312 -12.8906 13.4011 16
36 1 -7.4222 -12.0217 -11.2964 23
37 1 3.15802 -13.8978 -6.96861 20
38 1 -16.2976 -1.47719 -12.9868 21
39 1 -8.96927 -2.08699 15.9606 22
40 1 -9.09298 -12.1539 15.1867 17
41 1 -6.38113 -8.26637 19.402 11
42 1 -14.4647 -3.68941 3.43005 14
43 1 -21.0803 -7.99792 9.07613 17
44 1 -15.0675 -4.94898 6.51732 13
45 1 -7.46558 6.98261 -6.55533 18
46 1 -7.25549 -18.0037 -12.3644 9
47 1 -9.90019 -0.615182 -12.2988 21
48 1 -1.34 -17.5194 -1.28062 17
49 1 -11.0213 1.2276 17.1116 12
50 1 -18.505 2.45746 6.2065 21
51 1 -9.04155 9.54649 -5.44902 14
52 1 -10.3975 9.48474 8.16729 17
53 1 -21.2517 1.88852 -4.34843 19
54 1 -6.10613 6.71398 1.44238 17
55 1 -7.09311 -17.1685 -3.67809 20
56 1 -4.6911 -13.521 -10.9107 18
57 1 -2.17256 -13.2446 -11.9072 20
58 1 -16.0633 -0.133918 10.1032 17
59 1 -21.5322 -6.87181 -0.722672 18
60 1 4.83782 -5.13734 2.23246 21
61 1 -15.6229 0.458378 -3.27166 14
62 1 -8.54772 -15.157 13.5629 15
63 1 -14.2439 6.84575 11.5666 12
64 1 -18.725 -0.331911 -4.87875 20
65 1 -8.32155 0.88656 17.3715 15
66 1 2.91747 -2.38135 -7.34033 22
67 1 -14.7448 -20.003 6.19899 13
68 1 -4.29834 -5.08894 11.8721 16
69 1 3.58178 -17.8113 -6.84543 12
70 1 -3.76275 6.7485 13.3101 16
71 1 -17.6064 -4.4914 -7.23817 17
72 1 -16.505 2.72048 -15.0478 12
73 1 -1.47549 4.48647 14.8079 20
74 1 10.401 -8.20925 -7.92474 12
75 1 1.70506 -11.0953 -3.12422 21
76 1 -20.5202 -14.4379 4.6615 16
77 1 -16.4962 -1.33276 0.688492 16
78 1 -1.06181 9.33231 5.32153 18
79 1 -1.6624 -8.00405 20.563 5
80 1 -16.4113 -18.4441 11.6916 7
81 1 -18.4534 -8.43304 5.6699 14
82 1 4.04779 -1.57861 12.67 12
83 1 1.73897 -5.46953 -6.27084 19
84 1 -5.97457 2.29048 7.78062 19
85 1 -6.36644 -7.95414 7.11847 16
86 1 -14.0456 -10.635 -0.620634 18
87 1 -15.8956 -12.1773 -8.6567 21
88 1 -15.4214 1.81945 7.66527 19
89 1 -10.3488 2.97832 -2.32692 21
90 1 -13.257 -0.406362 -6.56215 18
91 1 -3.68199 -5.55515 -6.88131 20
92 1 -0.0861627 6.85948 -2.82735 14
93 1 0.53762 -10.2618 0.205723 22
94 1 -3.05592 -15.1689 8.70896 17
95 1 -12.61 5.47059 -4.57185 19
96 1 -14.5191 7.873 6.06487 19
97 1 -15.7817 -10.9911 14.2117 13
98 1 -19.2971 5.79817 8.01409 10
99 1 -13.8211 -9.40539 13.9477 20
100 1 11.8719 -4.43742 -0.629696 8
101 1 -15.6415 -2.6076 5.63665 16
102 1 -19.5456 -17.3226 -0.75692 13
103 1 6.41752 -17.1965 -1.43671 12
104 1 -1.54354 0.40172 -17.0633 9
105 1 -20.3614 -2.91455 -9.96572 14
106 1 -10.748 7.50393 2.95062 21
107 1 -20.4617 4.75495 -4.46951 14
108 1 -2.48449 2.95681 17.3469 13
109 1 -5.90828 0.923245 -3.49096 17
110 1 -17.9328 4.5666 3.48634 18
111 1 4.37576 5.3716 4.65419 14
112 1 -8.7311 -3.98179 18.915 14
113 1 12.2207 -5.03382 6.94282 10
114 1 -7.33556 -8.94576 -9.36111 19
115 1 -6.43526 -14.7759 -13.3192 12
116 1 -3.88423 -3.91511 4.43713 20
117 1 0.618878 -6.51339 14.8838 16
118 1 -13.9031 -12.3841 7.77717 21
119 1 -1.62981 -13.4702 11.0081 20
120 1 -23.152 -15.3423 -3.28652 10
121 1 2.24406 -13.69 -1.02564 18
122 1 -14.3665 -1.70296 8.19474 17
123 1 -11.2229 2.36365 -11.2576 21
124 1 -4.30375 10.0207 -0.248466 17
125 1 -15.8995 -12.906 10.7874 21
126 1 -13.8344 -20.0119 9.64483 11
127 1 -1.50293 -8.75922 -12.9592 14
128 1 -2.98029 2.85878 -8.81904 19
129 1 8.9556 -12.5258 7.32204 13
130 1 -4.84822 -17.0301 10.6097 15
131 1 -18.1192 -16.6294 6.60668 22
132 1 0.545393 -6.91781 9.15011 17
133 1 12.0655 -5.60901 -4.11528 11
134 1 -22.2907 -12.8723 6.13255 14
135 1 -0.79861 7.28971 3.27825 19
136 1 1.81097 7.35194 5.50613 17
137 1 -16.376 -6.11425 15.9589 11
138 1 0.539318 9.82878 -0.497093 19
139 1 -7.1126 6.65468 10.1772 19
140 1 -10.1888 -0.673115 -3.8031 20
141 1 -3.91217 -16.9099 -3.19998 21
142 1 -0.462107 -21.059 -6.71407 11
143 1 -6.51842 -1.17335 -10.5367 19
144 1 6.73084 -3.92706 11.3611 13
145 1 -12.024 -8.00131 -15.7747 10
146 1 -7.63739 2.63637 -3.98175 19
147 1 8.03989 -5.88343 -8.21767 14
148 1 -16.0397 7.39399 -6.83719 11
149 1 -18.7189 9.08288 -0.462042 9
150 1 2.87177 -2.7895 -10.5235 18
151 1 -0.0647182 -14.5864 13.3706 13
152 1 -13.899 -3.00636 -14.137 15
153 1 -11.8827 7.39392 5.90441 22
154 1 1.89017 -0.777456 4.77652 18
155 1 -2.26675 -3.95443 -0.389106 23
156 1 -12.7404 9.49733 -1.7888 15
157 1 3.30078 3.81647 1.7604 17
158 1 -14.5972 3.59303 -4.66659 18
159 1 -2.64994 9.65246 -6.53076 11
160 1 -8.5414 3.28029 -18.101 7
161 1 -13.136 -14.3244 10.2156 19
162 1 -20.8111 3.85734 1.81665 15
163 1 -15.8502 -10.7162 -12.3572 13
164 1 -12.0218 -10.344 -13.0355 18
165 1 -0.618499 3.83799 7.77907 18
166 1 -9.57106 12.536 1.83665 15
167 1 -21.3716 -5.27124 -3.76966 20
168 1 -13.757 9.00209 2.67173 17
169 1 5.59663 -2.23096 1.29695 20
170 1 -19.9948 -7.38319 -6.06356 17
171 1 -3.3805 -3.62229 17.2963 21
172 1 -6.59611 11.4404 5.51466 14
173 1 -7.95968 3.56053 6.51406 19
174 1 0.102909 -14.4419 -10.7437 15
175 1 -10.2084 5.19895 12.1721 21
176 1 -9.9998 9.25314 -8.48498 12
177 1 -1.91343 -5.49829 15.7387 16
178 1 -11.0031 -11.3421 0.802192 19
179 1 -5.11981 -18.1658 -14.8515 5
180 1 -9.56995 2.50563 -8.32402 20
181 1 -11.176 -14.3507 12.3095 20
182 1 -7.25208 -16.1318 -9.40691 18
183 1 -12.7348 7.41972 -10.568 11
184 1 -20.0778 -4.76209 2.48598 17
185 1 -7.94814 -1.29411 2.38077 17
186 1 0.537493 -4.90423 -3.06933 19
187 1 -10.2927 6.37716 15.1809 10
188 1 -9.234 -9.68677 16.9379 17
189 1 -10.3438 0.856327 1.62921 16
190 1 -4.18757 8.90462 5.8955 14
191 1 -10.6649 4.45419 4.56839 20
192 1 0.859228 2.41089 16.0528 13
193 1 -10.2567 10.9665 -1.50644 15
194 1 4.21498 -10.8043 -1.34624 18
195 1 -13.6838 4.32284 6.37336 21
196 1 -13.574 -5.05719 -2.68885 19
197 1 9.30277 -6.68737 0.681 14
198 1 -15.7381 -7.00087 8.81799 19
199 1 -22.6981 -3.53521 4.71837 11
200 1 -22.8871 -9.33513 4.37883 11
201 1 -6.89767 2.32803 12.5757 17
202 1 -25.7102 -4.07802 0.148647 11
203 1 -9.09542 -19.7277 -3.38664 16
204 1 9.74983 -16.8438 -0.127523 9
205 1 -3.42977 7.73489 9.08163 20
206 1 -16.2174 -6.86877 3.65853 16
207 1 -2.27671 9.76407 11.5104 10
208 1 -12.8543 -7.63708 -1.3373 20
209 1 -18.5015 3.11355 -6.22544 19
210 1 -23.8931 -12.274 -3.30985 16
211 1 -9.8398 -12.2706 12.5751 20
212 1 -9.97401 -15.1429 5.28684 20
213 1 -5.08246 -17.2241 7.29391 15
214 1 -14.8561 0.0801687 4.32423 18
215 1 12.6887 -1.94787 4.80398 7
216 1 6.41421 -3.97303 -6.52281 20
217 1 -20.1897 -11.3368 -10.7295 8
218 1 -4.83586 -6.03753 14.8069 16
219 1 1.37861 -17.3961 -2.06808 17
220 1 -13.1733 3.12035 -15.0696 16
221 1 -2.16648 -15.9566 -10.2805 18
222 1 10.4754 -4.9591 -6.76437 13
223 1 -6.35208 3.97165 -14.6619 16
224 1 -18.6691 -8.88935 -0.809858 17
225 1 -10.7618 7.73434 -2.83018 18
226 1 -17.1493 -18.401 8.94897 16
227 1 -2.08322 4.62679 -0.962837 19
228 1 -17.4353 -2.9105 14.7535 15
229 1 -16.4399 -3.82641 -0.76807 15
230 1 2.59675 -3.93028 5.04352 17
231 1 -9.2452 -11.9331 -14.2458 11
232 1 -12.8532 2.89735 -6.98591 21
233 1 -12.0052 0.150201 -9.47347 24
234 1 -18.7555 -12.7204 5.89688 18
235 1 -11.728 -9.30495 7.6731 21
236 1 -17.8508 -0.49714 7.42189 20
237 1 -10.1327 -11.0502 -8.72998 21
238 1 -13.8583 -19.4495 -2.72684 12
239 1 7.64034 -15.6092 -4.10898 12
240 1 0.343285 -9.78342 -5.05151 18
241 1 2.92792 -1.71413 15.163 13
242 1 -3.06181 0.103769 -5.23702 21
243 1 -8.68282 9.6233 2.65579 22
244 1 -20.8617 -9.39623 1.20937 17
245 1 -19.3176 1.2494 1.68987 17
246 1 -8.87824 5.58268 2.06858 18
247 1 -4.79264 -18.2163 -9.66764 13
248 1 9.91207 0.105375 6.9154 9
249 1 4.40359 -0.0761117 6.15478 20
250 1 -16.8028 5.2431 6.0057 19
251 1 -24.9145 -11.6296 -0.962239 14
252 1 -5.45484 7.42735 -10.9976 16
253 1 -6.41131 -3.24543 11.0044 24
254 1 -0.401853 4.08395 -3.22552 21
255 1 -5.60295 -19.6821 -4.27803 18
256 1 -5.75918 -5.90293 -12.4329 21
257 1 -4.90795 -13.0211 6.61866 16
258 1 3.67155 -8.43156 -5.54622 20
259 1 -11.1643 -6.87275 5.06507 19
260 1 -6.13707 -10.7389 -4.55025 21
261 1 -23.9394 -14.4613 -0.356376 13
262 1 -3.26412 4.65572 -11.081 17
263 1 -6.5057 -10.7455 -16.0288 10
264 1 0.0972014 -2.18954 20.2261 8
265 1 8.33497 1.4332 4.69991 13
266 1 -16.5505 -15.9707 -1.99409 17
267 1 8.67106 -8.32966 -9.98566 12
268 1 -6.78991 -15.4614 5.47813 19
269 1 -23.2666 -12.8518 -6.49597 11
270 1 -18.1234 -1.28452 -8.22876 18
271 1 -10.2306 -19.1645 8.72448 10
272 1 -1.55406 -5.18923 12.4627 20
273 1 3.25767 -15.0266 8.95371 12
274 1 -18.621 -9.8247 -7.97234 17
275 1 -11.153 -12.3853 9.11345 22
276 1 -13.8722 -2.57565 -10.6736 19
277 1 0.0793895 -1.32483 1.21274 19
278 1 -9.09541 -10.6847 -3.8235 19
279 1 -6.21376 9.33775 2.43755 19
280 1 -14.1138 -16.3183 12.4098 13
281 1 -21.7384 -10.7721 -5.27736 19
282 1 -17.2387 -6.48683 -9.13745 17
283 1 -10.9158 1.87752 -16.7165 13
284 1 -7.27979 -16.0919 -6.81789 19
285 1 -12.7133 -13.8311 -4.40599 18
286 1 1.65973 -6.48992 -9.70807 21
287 1 8.1933 3.60574 1.66923 12
288 1 6.1358 -10.5866 9.3439 17
289 1 -8.09524 -7.26811 -5.89363 21
290 1 -16.254 -13.8226 5.57732 24
291 1 -10.4671 -9.93061 -1.54011 19
292 1 -0.980195 -4.90863 19.232 12
293 1 -13.6435 -18.7636 -0.116877 18
294 1 -8.45307 -16.3172 3.11545 21
295 1 -2.80256 6.70421 6.39992 19
296 1 -0.841078 4.96473 -12.5684 9
297 1 -18.5188 -14.2832 -10.2303 8
298 1 -22.2129 -8.20964 14.893 8
299 1 -5.86327 -2.64078 19.3254 14
300 1 -4.51969 -13.0784 -3.05971 19
301 1 -12.6987 -16.1574 -6.50642 18
302 1 -16.1613 1.7329 -12.3822 18
303 1 2.61349 -5.70424 8.06321 20
304 1 -11.0802 -7.79618 -7.00405 20
305 1 -9.05821 5.09257 -12.9799 21
306 1 -10.5762 -17.2094 14.0036 9
307 1 8.5653 -14.0694 -7.22355 11
308 1 -9.33643 5.31878 -4.85255 20
309 1 -5.61509 0.637084 0.572927 19
310 1 4.77425 -0.206807 3.41194 18
311 1 -15.1441 -15.6195 8.88499 23
312 1 -22.0326 -6.2046 12.3189 11
313 1 -13.3178 6.04586 8.68188 20
314 1 -4.70403 -10.6577 -9.91147 18
315 1 6.7508 -0.111325 -2.20221 20
316 1 2.38066 -13.8062 2.48088 18
317 1 -10.6687 -4.83554 17.1737 15
318 1 -20.9947 -3.02997 7.49617 11
319 1 -5.01879 -17.6739 -6.99683 21
320 1 -13.774 5.78849 15.3326 10
321 1 -15.547 3.56552 10.7746 22
322 1 -20.2385 -11.481 7.77736 17
323 1 -18.3764 -7.19864 10.4935 17
324 1 11.5766 -7.37111 -2.02281 10
325 1 -19.4836 -9.76852 14.6593 11
326 1 2.98677 -11.2404 -6.34572 21
327 1 6.29748 -13.8866 -9.8482 8
328 1 -7.28359 12.0844 -0.0759587 14
329 1 -17.4437 3.41831 -3.38624 16
330 1 0.516598 3.11094 12.3685 21
331 1 -13.0363 -8.89168 2.08386 18
332 1 -1.1736 -12.9749 0.306842 18
333 1 -15.8619 10.0908 -0.0149416 11
334 1 -11.3054 4.97382 0.398423 21
335 1 -3.28579 -14.8163 14.9683 14
336 1 5.28768 -12.6611 11.9633 11
337 1 -7.98884 3.74999 15.8059 16
338 1 -13.3937 -9.64862 -7.41658 20
339 1 -6.45558 5.16457 12.7768 20
340 1 -11.9197 10.178 4.28942 14
341 1 0.719067 -0.141701 13.8951 20
342 1 -14.2383 8.82558 -4.83276 9
343 1 -6.89137 -9.12165 -12.2496 18
344 1 -19.7146 -14.5247 -2.25381 13
345 1 5.71126 -14.8214 -5.98632 15
346 1 -6.82601 -5.49786 20.924 9
347 1 -24.9847 0.793827 -4.05609 11
348 1 -9.53245 -14.2071 -9.41803 20
349 1 -10.7125 -2.17338 1.52651 20
350 1 -4.89023 -9.5437 9.51482 17
351 1 -20.5351 -11.4982 3.73057 19
352 1 2.26419 -16.3165 4.53934 15
353 1 -19.5489 -17.1463 9.41465 12
354 1 -10.5864 4.30742 7.87182 23
355 1 -12.6786 -11.3315 11.3695 20
356 1 -2.58542 -10.0783 -4.92435 19
357 1 -23.113 -6.60839 -7.06299 16
358 1 -3.03831 -0.4129 -10.8768 22
359 1 -7.62055 13.368 3.28018 11
360 1 -18.8556 -11.3827 1.01233 20
361 1 1.07212 -11.3967 -8.95825 21
362 1 0.594559 -0.407657 -11.1106 18
363 1 -8.97023 -13.8934 -2.73809 17
364 1 -21.8927 -14.9614 2.45831 15
365 1 -6.54691 -15.1427 -1.62226 17
366 1 2.27187 -7.78408 12.6819 16
367 1 5.95751 -8.3771 0.963475 19
368 1 -18.361 -5.23491 -11.9782 15
369 1 -4.32304 12.0795 2.83007 12
370 1 -25.7271 -7.80381 -5.98919 9
371 1 -15.7542 2.7425 4.34361 17
372 1 -16.6049 8.51613 -3.07356 12
373 1 -12.9051 4.2794 12.0874 20
374 1 -0.0383339 -3.04602 15.9939 19
375 1 5.89523 -7.00516 -5.5478 20
376 1 0.288348 -11.4052 11.8898 20
377 1 10.0831 -2.92068 -4.98082 11
378 1 -12.0587 -17.0063 -3.04197 18
379 1 -10.4292 -0.96048 7.39843 21
380 1 -3.37205 -11.9947 0.424827 19
381 1 -9.08382 -2.46905 5.21489 23
382 1 -23.4397 3.71986 -3.29141 10
383 1 1.22791 -15.6031 0.843605 16
384 1 6.85522 -15.603 8.29289 10
385 1 -27.223 -9.86396 -2.01521 7
386 1 -17.0038 -13.2742 8.32874 19
387 1 -23.7577 -8.92282 10.916 8
388 1 -8.24221 2.293 -0.616737 17
389 1 -19.0217 -14.7697 0.72388 21
390 1 1.44111 5.88126 10.3217 14
391 1 -21.0088 -0.524723 4.29561 17
392 1 -9.26567 8.12505 -10.8327 15
393 1 -1.942 2.25172 10.2957 20
394 1 -22.3056 -11.8063 1.82279 17
395 1 -6.66168 -13.1316 -7.90229 18
396 1 -21.3142 -10.6546 12.7326 11
397 1 -19.308 6.03472 -1.66144 15
398 1 -9.12685 -17.4816 10.8361 17
399 1 -2.57527 -17.7812 1.87712 13
400 1 -3.09584 3.51068 7.16939 16
401 1 -10.0542 5.17155 -15.9813 14
402 1 -22.0713 3.6287 -6.77447 12
403 1 -5.34405 7.18753 -1.56973 20
404 1 -18.2581 -0.850125 -1.68569 12
405 1 -11.0227 -15.6235 -0.493093 17
406 1 6.30053 6.28916 1.52291 11
407 1 -15.733 -2.61217 -6.49389 16
408 1 -1.18607 -8.71595 14.2676 19
409 1 -24.696 1.17563 -1.21078 11
410 1 -12.5931 2.84506 9.18539 20
411 1 -13.3982 -15.117 6.41932 18
412 1 -0.0423572 -6.62123 -0.6169 19
413 1 0.026631 -8.52452 -10.8393 21
414 1 -9.46892 -2.94318 10.9235 19
415 1 -26.4887 -6.3912 -2.67389 11
416 1 -17.7018 -4.80815 11.4265 23
417 1 -20.2499 5.52227 4.97654 10
418 1 -11.4128 -9.138 10.6258 19
419 1 -17.84 2.43647 -9.31158 19
420 1 7.97622 -14.4621 -0.263776 17
421 1 -2.80045 -16.898 -12.9231 10
422 1 -15.9835 -9.8418 11.1551 22
423 1 8.30283 -12.6076 1.7252 16
424 1 -10.4036 1.97659 -14.0182 19
425 1 -0.677569 -17.3798 4.02665 10
426 1 -8.90862 -0.499531 -1.00693 17
427 1 -15.1437 4.60436 1.06837 19
428 1 -17.453 -8.19819 13.4519 16
429 1 -21.7008 -9.16305 -8.11818 13
430 1 -17.7891 -15.8398 3.65877 20
431 1 2.28951 -13.1648 11.5339 17
432 1 3.54963 -4.37978 -0.886947 19
433 1 -8.64235 -0.205315 -9.79833 21
434 1 -2.91732 -10.7408 12.3955 20
435 1 4.3513 5.69765 -1.3778 16
436 1 -6.12326 -8.12237 16.66 15
437 1 -3.91289 6.4511 -7.34526 14
438 1 3.50162 -12.0387 7.92004 18
439 1 -13.6446 -10.8919 -10.1471 19
440 1 -14.9711 3.31324 13.9735 13
441 1 -11.1939 8.11786 11.9924 13
442 1 -16.1121 -12.7858 -3.38055 15
443 1 3.88045 9.02692 4.43944 8
444 1 2.87858 -4.63281 14.3626 13
445 1 -14.3834 -4.91839 10.708 20
446 1 -8.71718 -13.0249 0.158992 15
447 1 -17.9405 2.51855 12.55 12
448 1 -11.572 -10.7615 -5.58439 22
449 1 -18.9903 6.519 1.70024 13
450 1 -14.7931 -16.4201 -4.46694 12
451 1 -0.509292 -14.7009 -13.6867 9
452 1 -12.1208 -20.5285 3.10057 11
453 1 -7.18338 -5.76736 12.9742 19
454 1 2.85549 -11.3322 14.3502 12
455 1 -16.0839 0.0831376 14.7188 15
456 1 -16.0539 0.89129 -6.26562 25
457 1 5.51126 1.80938 0.568037 15
458 1 -17.2446 -13.1432 3.23761 22
459 1 -7.83659 -3.68413 -10.852 23
460 1 -2.74414 10.2484 1.74317 16
461 1 -13.0027 -3.28596 -7.98049 19
462 1 -6.20615 3.91035 18.0559 9
463 1 -21.1865 -12.2709 -0.904147 17
464 1 -8.41422 9.04895 -0.475452 21
465 1 0.48473 1.58682 -8.1913 13
466 1 -17.1868 -8.02224 -6.50661 17
467 1 -2.11766 -0.824643 15.3887 20
468 1 0.762058 -18.4304 -5.45602 17
469 1 -10.8608 -12.1157 -11.1767 18
470 1 0.654695 -16.0144 7.18894 13
471 1 -16.691 7.236 3.02093 14
472 1 -3.29184 -2.776 10.2565 21
473 1 3.10192 0.301511 0.638643 20
474 1 -3.30697 2.65421 0.401158 21
475 1 -18.9414 5.40174 -7.99579 12
476 1 -0.877425 -6.58562 -5.00767 21
477 1 -3.02586 -15.0662 -0.656143 16
478 1 -14.1271 -15.0533 3.36782 19
479 1 -8.59841 11.9136 8.23251 11
480 1 -6.47819 5.71416 -16.6521 8
481 1 7.77157 -1.73688 5.21717 18
482 1 -6.00705 4.83346 -8.79546 18
483 1 3.52755 -11.2209 1.07953 15
484 1 9.58408 -1.6275 2.89894 14
485 1 -7.11842 -3.01393 -16.4191 11
486 1 -2.61752 -13.9048 -4.98412 18
487 1 -7.06277 -15.7387 8.29401 19
488 1 -9.15459 -7.28425 19.2806 11
489 1 -14.0452 -7.87092 -4.74767 21
490 1 -20.7618 -14.4616 8.17197 18
491 1 -12.6021 -12.7632 -7.87936 20
492 1 1.15244 11.6105 5.7025 11
493 1 -1.33023 -3.00299 -14.9876 15
494 1 -5.67893 -1.56729 16.143 22
495 1 -13.5635 -7.30862 11.7902 18
496 1 -4.26528 -16.857 3.93317 16
497 1 -22.6251 0.501502 1.95784 14
498 1 9.41569 -10.96 -5.28482 13
499 1 9.76962 -15.6128 2.5786 10
500 1 -6.49848 4.67515 -12.1956 20
501 1 -9.47705 -15.0748 -12.7433 11
502 1 0.926486 -3.57511 -12.6514 14
503 1 -1.08615 -5.93712 -8.57925 20
504 1 -17.9212 -12.7752 13.1824 13
505 1 -1.91433 12.2759 -1.282 13
506 1 -4.53981 -1.62775 -16.2456 14
507 1 -4.26271 1.28543 -15.7926 12
508 1 -11.7334 -2.0816 17.9711 14
509 1 -10.7592 2.63258 -5.24756 22
510 1 -16.7783 -7.69278 -12.8738 14
511 1 -25.7998 -2.20349 -2.59788 12
512 1 -12.381 -15.8578 -9.73354 14
513 1 -19.0827 -11.2007 10.911 18
514 1 -0.353362 -5.64358 -11.7044 17
515 1 9.32584 -3.9209 8.77942 14
516 1 6.45224 3.62468 4.29423 10
517 1 -11.752 -20.9706 0.130595 10
518 1 -0.928928 -8.64107 -2.03052 19
519 1 -14.2762 -13.0809 -11.2329 18
520 1 -21.1512 3.34324 8.41079 13
521 1 -3.48707 -0.381063 -14.0762 19
522 1 -5.81996 3.51687 1.95366 16
523 1 6.95458 -9.88661 -0.937108 15
524 1 2.05369 5.73817 -7.91705 6
525 1 -1.22715 -11.451 -2.38507 23
526 1 5.33736 0.1816 -7.61357 13
527 1 -4.33999 3.9687 9.98426 19
528 1 -17.0834 -3.5382 8.80142 21
529 1 -1.6275 9.81263 8.24231 12
530 1 -0.586382 -8.4284 10.9455 18
531 1 -10.5724 -3.92277 -11.6067 17
532 1 -20.7877 -13.225 -4.8111 16
533 1 -8.04123 -9.57684 13.955 15
534 1 -1.7586 3.89958 4.463 22
535 1 -4.27017 6.13072 -13.8908 11
536 1 -6.89239 10.8384 -2.58483 13
537 1 -5.99981 5.12279 -3.91026 18
538 1 0.117796 -10.9109 9.0544 19
539 1 3.99527 -5.50996 -8.03545 19
540 1 9.54943 -11.4216 -1.58902 15
541 1 0.790023 0.0994424 10.72 20
542 1 -24.4241 -8.98953 1.45972 12
543 1 -21.5134 8.3319 -3.0232 5
544 1 -3.95065 -9.62562 6.05052 18
545 1 -19.7758 -1.7494 10.0768 18
546 1 -12.6798 5.52542 -1.96057 18
547 1 0.430451 -14.1038 -3.19513 17
548 1 -2.17952 -2.76026 -11.9812 21
549 1 -14.0938 7.56881 0.00414364 19
550 1 -14.0356 -6.33441 -7.5135 19
551 1 -7.0398 -19.0313 9.05093 11
552 1 -24.4479 -9.80555 -7.04009 11
553 1 -12.3282 5.66137 -13.4986 11
554 1 -19.7453 -1.85145 2.03412 18
555 1 -3.30397 -0.577069 18.5908 16
556 1 -12.6155 -12.6614 4.79783 19
557 1 -1.83115 -1.23214 5.12827 19
558 1 3.04228 -13.7933 -10.9885 11
559 1 -4.5962 -10.3692 18.5136 12
560 1 5.88773 -11.4342 -6.39351 21
561 1 -21.2955 2.21437 4.85239 15
562 1 -0.851678 0.538975 17.7754 14
563 1 -0.973239 9.32964 -2.42169 14
564 1 0.110699 -8.35323 -7.18602 17
565 1 -5.86605 5.73647 7.36852 21
566 1 -11.842 -5.68926 -9.63647 22
567 1 -11.7808 -18.6434 11.8992 11
568 1 -10.1284 -0.498707 -6.85099 20
569 1 -8.54617 -5.35227 -13.942 16
570 1 -8.90454 6.56967 6.97718 20
571 1 -6.07929 1.83297 -9.33309 21
572 1 -4.95691 -2.94549 -12.7857 21
573 1 -6.39738 -19.0787 1.9058 13
574 1 -20.5534 -5.76979 -8.81443 14
575 1 11.4317 -2.04659 7.28415 12
576 1 9.81187 -1.2207 -0.749656 12
577 1 8.74622 -11.6246 -8.45435 14
578 1 3.40753 1.33417 12.625 12
579 1 6.94587 -17.81 1.6596 10
580 1 -11.843 -6.64916 -12.9863 18
581 1 2.61812 2.25372 3.73136 20
582 1 -19.3581 -2.41846 5.13373 18
583 1 0.161492 -3.80014 9.42859 19
584 1 4.77515 -1.50783 -4.86414 19
585 1 8.99589 -5.73403 6.4532 20
586 1 -1.5539 1.91106 -11.828 17
587 1 3.13356 -9.96113 9.94799 21
588 1 4.58356 -9.55305 12.2083 11
589 1 -4.4485 -13.0189 11.8686 16
590 1 0.588551 9.70376 2.82725 22
591 1 -9.41288 -6.46006 15.106 20
592 1 8.1435 4.81895 -1.02826 12
593 1 2.64384 -3.45587 17.8371 10
594 1 -18.644 -3.72726 -3.77927 21
595 1 3.88036 -4.99783 -4.84171 19
596 1 4.51809 -16.579 2.56802 14
597 1 -19.0599 5.07298 11.1388 10
598 1 1.31403 8.62397 11.6522 10
599 1 6.65376 -11.3898 5.9391 21
600 1 -6.66129 9.12676 7.97992 18
601 1 -0.7034 7.83065 13.4447 11
602 1 -1.4885 -0.545783 8.44139 17
603 1 -5.46823 -16.4681 1.10248 17
604 1 -12.8601 -0.903036 -1.39644 19
605 1 2.45315 4.10196 -4.49591 15
606 1 7.71364 -9.2522 -6.82907 19
607 1 0.395586 -1.40032 -7.47643 17
608 1 -9.87089 -17.0253 -7.70656 18
609 1 4.22595 -13.5813 -3.47927 21
610 1 -17.0956 -4.35711 2.56363 17
611 1 -13.0032 -3.01233 -5.03554 15
612 1 -8.80987 -17.8932 6.57942 18
613 1 -20.4684 -2.60701 -6.00362 20
614 1 -24.1073 -4.2164 -5.14504 12
615 1 -0.808946 -13.7563 7.73893 17
616 1 -3.45359 1.57827 3.28205 21
617 1 -11.9604 -11.5011 15.6645 15
618 1 -16.8417 -3.37208 -10.3156 19
619 1 -2.62965 -6.85792 -15.901 10
620 1 -10.3499 1.79267 12.4396 20
621 1 -6.15425 10.0689 -5.59368 15
622 1 10.6746 -7.49465 9.00697 8
623 1 3.1218 0.33318 -9.51397 16
624 1 3.14256 8.10848 0.475415 12
625 1 -4.32481 -11.7708 -6.81409 19
626 1 -14.0393 -0.430713 17.3403 10
627 1 5.62754 -13.3566 8.51127 17
628 1 -8.27447 7.91485 13.2272 13
629 1 -0.791968 4.98089 -6.57069 16
630 1 -15.8637 1.56921 1.18089 18
631 1 -0.141777 1.86207 5.01949 19
632 1 -16.2304 -16.7397 1.25844 19
633 1 3.84398 -14.0981 5.68584 20
634 1 -8.41286 10.1346 10.9831 13
635 1 -11.6982 -0.500745 10.2441 19
636 1 -9.64557 -16.4081 -4.7896 21
637 1 -20.0077 -3.99716 -0.904516 19
638 1 -4.14344 -5.54226 19.9872 14
639 1 -10.5122 -14.7645 16.3096 7
640 1 -1.70467 1.88217 13.8641 18
641 1 -11.9904 1.86219 -0.711001 21
642 1 4.83259 -3.01775 4.02008 20
643 1 -5.01867 -8.1733 0.97425 18
644 1 -7.08212 -0.173638 -14.3784 17
645 1 -12.9313 -6.93216 8.39758 20
646 1 2.83191 -6.55948 -12.6575 12
647 1 -7.19212 -13.3496 -4.74698 22
648 1 4.0049 -11.72 -10.1091 16
649 1 -3.40182 -6.43903 6.00319 18
650 1 -0.329902 -7.13056 6.32505 17
651 1 -19.1637 -0.615923 13.0704 13
652 1 4.09642 2.91553 6.80509 15
653 1 -9.93126 -6.81832 8.12127 23
654 1 -10.0531 7.05722 9.49931 20
655 1 -1.62225 -10.783 -10.3495 19
656 1 -10.3645 -1.14907 13.3264 19
657 1 1.40222 5.63232 14.122 11
658 1 -19.7862 -19.1174 6.23156 10
659 1 3.11071 11.592 1.44874 8
660 1 3.21804 -18.9538 -3.25468 13
661 1 -10.9898 -3.30886 -2.36729 16
662 1 -3.9301 6.93583 3.74289 19
663 1 1.8411 5.85358 2.86965 16
664 1 2.41081 -0.400959 -12.7997 11
665 1 -9.43312 1.47152 8.20809 18
666 1 -4.19306 8.69389 -3.93518 17
667 1 7.26571 4.56934 -3.28014 10
668 1 -22.0586 -16.2614 5.82227 8
669 1 -14.3427 -9.33496 -15.0714 9
670 1 -11.6769 8.3176 -5.81493 15
671 1 0.632409 -12.8806 -6.21772 18
672 1 2.8586 -7.30414 0.687734 21
673 1 -2.21471 11.568 -4.41684 13
674 1 -3.08241 12.4499 -7.30731 8
675 1 -6.87293 6.18539 4.43019 18
676 1 -10.9712 -5.84831 -0.26049 22
677 1 2.64148 -2.63747 1.77786 21
678 1 -0.821807 -11.7566 15.1085 19
679 1 6.94414 1.02942 8.14236 13
680 1 -12.0149 -8.13959 16.875 13
681 1 -15.8946 4.29697 -6.97885 17
682 1 -3.40785 3.37833 12.5964 21
683 1 2.82931 -8.7047 -10.1309 18
684 1 -7.62554 0.419421 14.6187 19
685 1 -3.49307 5.97864 -4.72735 15
686 1 -8.38516 5.81084 -1.08052 21
687 1 12.3797 -10.4927 -0.229788 9
688 1 -5.20309 0.217729 10.1736 17
689 1 -20.4098 -4.66925 10.0574 17
690 1 -2.81331 -19.939 -1.64825 14
691 1 -3.98225 -9.04863 -14.4777 15
692 1 -8.64344 9.02238 5.36373 21
693 1 -5.2318 -4.2368 8.06189 15
694 1 -3.25817 -7.81313 -10.3855 18
695 1 -7.88778 7.8222 -3.63048 21
696 1 -14.3837 -11.7783 2.21428 19
697 1 -3.96798 -3.04884 13.5788 22
698 1 -15.4472 5.18342 -13.1062 11
699 1 -16.4562 6.4373 -9.62953 11
700 1 4.47519 -16.8143 -3.66986 18
701 1 6.32551 -3.28803 -1.61894 17
702 1 1.20925 -12.2208 5.49077 19
703 1 -5.95808 4.10473 -0.988174 19
704 1 -20.7462 0.516517 8.31952 15
705 1 -2.74631 -11.9157 -15.0823 8
706 1 -5.39744 -16.8656 13.5372 10
707 1 -0.487143 12.7379 3.29822 9
708 1 -13.0677 -6.23524 14.7662 17
709 1 -20.1186 -8.59558 -12.9119 5
710 1 -16.549 -14.4678 -13.1704 7
711 1 -15.868 -15.3916 -10.196 11
712 1 -8.30163 4.61306 -9.84065 19
713 1 -2.55791 -9.33418 -7.69941 15
714 1 -9.7804 0.680999 5.03209 18
715 1 -2.21736 -19.0525 -4.7027 23
716 1 9.42889 -9.90178 1.35226 18
717 1 -7.51777 -12.7789 8.96688 13
718 1 7.94283 -3.51288 0.699122 19
719 1 0.224044 -21.0494 -3.22005 10
720 1 -14.7651 -9.43887 8.28212 18
721 1 -6.99219 -2.92101 -7.85786 22
722 1 -9.21243 -19.0406 1.1871 19
723 1 -13.749 -15.7034 0.0499445 18
724 1 -11.8591 -4.06371 6.07015 18
725 1 -17.5126 -18.7495 4.01201 13
726 1 2.78578 3.09427 -7.09459 15
727 1 -9.96235 12.7505 5.35832 12
728 1 -13.4933 0.900703 12.0423 18
729 1 -22.3004 -2.70767 1.20551 18
730 1 6.42185 -6.04139 -0.349306 19
731 1 -16.1527 -9.38431 -9.74617 17
732 1 -10.5427 5.94222 -7.49925 19
733 1 9.45288 -4.41436 -2.10537 18
734 1 -4.82788 3.87039 5.1979 19
735 1 1.57668 -2.33692 -4.1163 19
736 1 -18.8339 0.0229983 -14.9295 9
737 1 -24.0466 -6.82784 -3.31071 17
738 1 -4.53919 1.10076 16.7192 20
739 1 -5.8498 13.292 -5.14342 5
740 1 1.65968 2.38768 9.48095 18
741 1 -7.82561 -0.681205 12.2965 19
742 1 -16.9885 -19.6559 -0.858011 9
743 1 -12.1422 -17.9685 5.99136 17
744 1 -8.82623 -0.69756 19.6528 10
745 1 7.2691 -4.52456 3.83941 19
746 1 -1.73004 -16.4729 -7.33727 21
747 1 -12.3874 1.98798 5.66395 18
748 1 -1.71167 -3.46054 7.38425 18
749 1 -21.8211 -11.3948 9.94228 14
750 1 0.0411442 2.47791 -14.9152 8
751 1 -3.82863 -20.8849 -6.95003 12
752 1 -6.73699 -18.6354 -1.18147 18
753 1 -1.45548 -17.2193 8.74087 13
754 1 -0.726518 -0.303547 -13.5803 19
755 1 0.134898 12.7006 -2.80036 8
756 1 -12.0776 -0.593841 -14.8804 16
757 1 -13.0055 -1.87433 14.9844 16
758 1 -4.69516 2.01973 -12.6719 19
759 1 -19.4694 -2.47868 -12.6563 12
760 1 -19.1129 -6.62317 -3.05776 20
761 1 -4.87023 3.18963 -6.54308 18
762 1 -3.19064 -5.63751 2.01407 19
763 1 -9.08492 -8.7465 -14.1294 20
764 1 -13.0706 -10.6083 -3.06429 21
765 1 4.11119 -1.34881 -2.01244 16
766 1 10.4408 -9.09423 5.62219 17
767 1 -13.1385 -2.29135 11.7772 19
768 1 5.65259 -16.6826 5.42717 10
769 1 12.2023 -9.15752 2.71382 8
770 1 6.74452 -6.53873 9.08783 14
771 1 -13.089 8.8128 9.33591 15
772 1 -14.3992 2.52156 16.6613 11
773 1 -16.0604 -2.15865 12.3846 18
774 1 -7.91744 -21.3687 -0.300949 8
775 1 -5.22828 -7.28538 4.19534 20
776 1 -5.07919 3.86823 15.3327 17
777 1 -21.0561 -6.54328 5.55331 13
778 1 5.80053 -12.7656 2.97882 17
779 1 -14.1244 2.47087 -9.29621 18
780 1 -4.19699 0.0403182 6.70953 16
781 1 -6.09642 -14.2725 15.513 14
782 1 -3.39373 -2.82266 21.447 8
783 1 -13.3351 6.01819 3.35808 22
784 1 -1.26065 -14.5192 4.52553 17
785 1 -15.0582 -6.34951 0.422199 20
786 1 0.69088 -2.77066 12.9654 18
787 1 -23.5838 -5.89231 2.05363 13
788 1 -6.17525 6.75758 15.7944 11
789 1 -0.998023 0.836655 2.62583 19
790 1 -20.2962 -18.0926 2.58102 12
791 1 -9.87188 -18.3933 4.35315 16
792 1 -1.79751 -9.03642 17.3268 15
793 1 0.978458 -9.77206 3.38425 21
794 1 1.3628 -5.3929 11.7658 18
795 1 -15.4928 5.0882 -1.99239 18
796 1 -10.2386 -17.0823 -10.6929 11
797 1 -18.5121 0.143197 -10.9547 18
798 1 -11.0674 -8.50689 13.1678 23
799 1 -2.44047 7.81527 0.332434 19
800 1 8.05722 -9.56962 3.9231 19
801 1 -3.54959 2.21245 -2.41319 21
802 1 -11.0655 2.81786 15.1135 15
803 1 -2.96602 -11.7844 9.02151 20
804 1 -1.92734 -13.5075 -8.7583 20
805 1 -14.4023 -19.0488 3.28446 15
806 1 -16.0898 -8.97542 0.992122 18
807 1 5.87568 -4.33501 7.74145 19
808 1 -2.8781 -5.99963 -13.0708 17
809 1 -4.62014 0.10875 12.9678 19
810 1 -2.84539 -22.3641 -3.97286 10
811 1 -10.1468 -2.94978 -14.6352 13
812 1 -10.0638 -13.599 -5.72845 23
813 1 -8.05617 2.03394 -11.7416 21
814 1 7.78495 0.285727 1.5642 16
815 1 -6.23927 -10.946 16.5394 16
816 1 -7.99716 -10.7601 -6.67674 18
817 1 0.748505 6.3423 -0.203074 20
818 1 -10.421 -11.9872 6.31461 17
819 1 -17.6169 0.51225 3.66612 19
820 1 8.4634 -0.746933 -6.96075 11
821 1 5.22794 3.54096 -2.61825 17
822 1 0.693862 -3.65434 -8.71899 21
823 1 -7.42796 0.0510733 5.57432 19
824 1 7.75796 -1.74783 8.45136 15
825 1 0.34271 12.6307 0.655273 14
826 1 -4.22917 10.33 -9.83373 6
827 1 -0.612267 -12.2882 2.71391 19
828 1 -23.1134 -4.08822 -1.46954 23
829 1 4.43671 -5.80651 5.8116 22
830 1 -16.9243 -9.9152 3.52537 19
831 1 -13.2265 6.32424 -7.43195 16
832 1 -8.57354 -7.91385 10.8488 19
833 1 -21.9229 -9.33231 -2.47357 17
834 1 -18.2638 2.07536 9.88875 18
835 1 -18.8467 -9.87738 -4.05976 18
836 1 0.770909 -11.777 -12.2912 17
837 1 -20.3495 -12.7673 -8.04207 14
838 1 10.7968 -13.7684 -0.468916 11
839 1 -23.7407 -1.14227 -1.20076 15
840 1 -14.7536 -11.3857 -5.50012 17
841 1 10.6435 -3.66951 4.46012 14
842 1 -11.9663 -14.4508 2.15822 18
843 1 0.87191 -9.69076 16.6316 12
844 1 8.33787 -8.99214 7.51664 18
845 1 6.74407 -7.61103 5.5577 20
846 1 -18.9444 -5.57582 7.53034 15
847 1 -5.60763 8.61296 11.239 15
848 1 -0.809537 2.17178 -5.86077 14
849 1 -8.55235 -8.0795 -16.8814 8
850 1 -12.9814 11.3657 6.71352 8
851 1 -17.3234 -15.6802 11.2548 16
852 1 -0.558646 1.98312 -0.517915 21
853 1 3.20833 -3.02102 7.85766 16
854 1 5.37829 -9.49424 -3.82674 16
855 1 -3.67811 -11.8185 15.0296 17
856 1 -6.90734 8.67131 -8.27293 18
857 1 -0.999895 6.13347 -9.07756 11
858 1 -10.3105 -4.1152 14.0205 19
859 1 4.76142 -8.23554 7.9012 18
860 1 -8.72652 -6.67688 -11.4289 21
861 1 0.357735 3.5437 1.79754 23
862 1 -25.9458 -10.697 -4.62877 13