ITEM: TIMESTEP
2555000
ITEM: NUMBER OF ATOMS
500
ITEM: BOX BOUNDS pp pp pp
-30.0 30.0
-30.0 30.0
-30.0 30.0
ITEM: ATOMS id type x y z Coordination
1 1 -4.71194 2.25175 -4.71212 21
2 1 7.04295 -1.69021 4.83811 22
3 1 1.75968 3.65846 9.47811 15
4 1 7.67062 -2.32524 1.28674 24
5 1 -6.10269 -1.34257 0.173902 21
6 1 -3.31058 -1.43122 -7.60253 23
7 1 3.87936 0.0336051 5.72888 21
8 1 2.35762 -1.35047 -4.56949 22
9 1 -10.0991 -0.234648 -4.69738 12
10 1 -0.477436 0.409265 -8.7092 21
11 1 2.03231 -10.6833 -2.09736 13
12 1 6.4525 3.78617 2.78022 21
13 1 1.0244 8.13371 -6.27098 10
14 1 -2.1824 1.12068 5.36143 21
15 1 4.92886 4.31376 9.13046 13
16 1 -8.24564 -2.36622 2.65852 15
17 1 -10.6534 0.628437 3.1088 12
18 1 9.32337 -5.14937 -2.41326 12
19 1 5.79752 1.06352 8.16529 15
20 1 -8.38817 -5.42232 3.14326 9
21 1 -1.36395 -8.83058 -6.83994 10
22 1 4.04446 1.39844 -4.98867 24
23 1 7.92596 -2.77706 -3.72807 15
24 1 6.27768 -4.57008 2.62519 22
25 1 -4.32275 8.67126 4.8275 12
26 1 6.88968 1.8196 5.3657 20
27 1 1.94802 6.48491 0.823412 21
28 1 -2.04287 1.18732 -6.55303 23
29 1 0.121322 -5.8705 -7.18747 16
30 1 -0.361162 6.15817 8.43667 13
31 1 9.01236 -6.45048 2.85524 10
32 1 -7.7311 8.25705 4.24147 8
33 1 -6.49283 4.96379 1.13083 22
34 1 3.99208 6.57178 -5.51339 11
35 1 5.12538 8.28906 -1.30036 12
36 1 -4.35693 7.43743 -6.30797 11
37 1 3.68751 -4.12797 -3.53948 22
38 1 -3.23815 4.21598 -7.15142 20
39 1 1.21034 1.68146 -2.81965 20
40 1 -3.78277 8.40188 -3.01246 16
41 1 0.0205109 6.13105 -3.5684 21
42 1 -11.4648 1.49063 -0.0338117 13
43 1 2.78164 6.76482 8.7577 13
44 1 -3.72843 0.632866 -9.95082 14
45 1 -4.83008 -4.44802 7.99771 13
46 1 -3.75402 0.425357 2.43553 22
47 1 -3.97942 3.30915 5.47087 23
48 1 -5.9072 0.813211 -2.64177 21
49 1 4.57433 -8.88615 -3.88319 12
50 1 -5.92503 1.73712 0.219273 22
51 1 -8.28913 -2.63281 -6.86638 12
52 1 -1.05202 -5.71874 1.09924 20
53 1 5.77819 4.07616 -5.86443 17
54 1 -3.90044 -1.64984 6.22339 21
55 1 -5.47341 -4.48783 -8.57244 16
56 1 5.59736 2.14857 -8.09604 13
57 1 -0.808251 6.01896 1.98881 23
58 1 -1.13617 3.30496 7.68356 22
59 1 -5.75463 2.61669 3.241 22
60 1 -1.03378 -6.24119 -2.09635 21
61 1 -2.58899 10.3552 -0.948558 11
62 1 -9.11164 3.20911 1.43208 21
63 1 2.37475 10.0849 3.97969 12
64 1 3.56067 -1.35858 8.76528 20
65 1 4.39299 -8.84001 -0.514306 14
66 1 10.0974 -0.263948 -4.83125 11
67 1 -4.61112 -4.22989 0.915359 20
68 1 -3.06899 -4.46716 4.18247 23
69 1 8.23847 -4.81874 5.73764 15
70 1 5.47882 -7.40775 5.34162 12
71 1 6.19105 6.64956 1.33828 16
72 1 -6.02451 -7.22645 1.94975 12
73 1 -3.50646 -8.68223 0.698693 12
74 1 -2.09301 -3.50187 -1.16737 22
75 1 2.24466 -0.272207 2.51066 22
76 1 -5.31976 -3.06974 -5.62029 23
77 1 2.0839 1.44833 0.0528702 20
78 1 2.37025 -6.8309 -2.67816 21
79 1 -4.26453 -1.68286 9.67419 10
80 1 -8.7337 2.1336 4.85232 13
81 1 1.90252 -6.34062 0.422117 19
82 1 -1.28382 -3.40714 6.52124 22
83 1 1.10554 0.209138 10.5721 17
84 1 -10.712 -1.60881 1.4975 11
85 1 -6.35675 8.03755 1.58139 16
86 1 -5.53723 6.04391 6.09069 15
87 1 1.02328 3.72846 1.96763 24
88 1 0.425971 8.49101 6.69571 14
89 1 -7.53585 -5.46099 -6.03412 12
90 1 4.49001 -2.13107 3.10691 21
91 1 -7.64012 0.316031 2.3806 21
92 1 -2.71294 -5.83448 -9.63999 12
93 1 6.46619 -2.49258 7.8246 13
94 1 -2.97375 3.31391 1.68581 23
95 1 0.673836 -3.11359 9.01784 22
96 1 -3.4556 -2.78604 -10.5831 14
97 1 -10.0619 -3.38941 -4.50517 13
98 1 -0.558492 -9.86685 -0.513342 12
99 1 -3.00201 -0.300567 -0.794201 22
100 1 3.80756 2.0177 2.75736 22
101 1 -1.92968 6.34547 5.80905 24
102 1 1.76215 1.23102 7.79078 21
103 1 -3.79876 6.86088 -0.0462665 22
104 1 1.20686 -8.72037 -4.2643 16
105 1 0.397087 8.98879 1.50039 16
106 1 7.21798 1.43766 -3.74364 22
107 1 -7.96262 2.02522 -4.57222 18
108 1 -10.5744 2.35399 -3.07515 14
109 1 -3.51646 -9.90529 -5.54618 10
110 1 2.78192 -10.3427 1.26378 11
111 1 -6.69024 4.82606 -5.9356 11
112 1 -4.11672 1.22911 7.65361 19
113 1 1.0644 1.53599 4.99251 20
114 1 -5.97856 0.236865 5.21426 19
115 1 -0.566261 -1.9811 -6.02264 21
116 1 3.39187 -4.21448 8.10476 16
117 1 0.220543 -6.63333 8.61747 12
118 1 -1.00491 -10.7495 -3.53214 11
119 1 7.51754 -0.628668 -1.18438 22
120 1 -9.57421 6.49561 1.67961 13
121 1 8.60359 2.55324 -6.40611 13
122 1 -1.85163 5.1185 -0.613022 18
123 1 2.57797 -8.39891 4.09605 16
124 1 -5.59454 -7.83997 -4.38052 14
125 1 -1.47948 -1.46125 4.07545 22
126 1 9.30471 1.52645 7.03992 12
127 1 9.97676 1.27271 -1.86842 16
128 1 2.99071 3.63852 -7.41567 15
129 1 -0.15342 3.74038 -8.08363 18
130 1 3.91093 9.76667 1.37267 13
131 1 2.27086 1.6115 -9.41933 13
132 1 0.0424232 -6.08493 3.7582 20
133 1 6.21317 4.36169 -2.68095 17
134 1 4.58122 -5.81004 -0.397555 23
135 1 -0.0591336 -8.5438 2.30684 16
136 1 -5.16906 2.4239 -8.00628 14
137 1 4.03457 3.10537 5.62924 19
138 1 9.99322 -4.10067 0.62226 14
139 1 -0.493963 3.66162 -5.42126 20
140 1 -6.48218 7.45838 -3.92221 13
141 1 3.40418 -6.43844 -5.58953 17
142 1 0.834509 -3.10424 3.4145 22
143 1 -6.96383 -3.26976 5.65691 12
144 1 -3.3704 -8.71865 -2.3128 16
145 1 2.07696 -3.44527 -7.18689 18
146 1 4.12478 3.877 0.0601419 22
147 1 3.12965 -5.59399 3.30887 21
148 1 4.80957 -0.403898 0.349427 22
149 1 -4.91656 -2.55603 -2.29599 21
150 1 -4.65209 -7.10319 -7.13477 14
151 1 2.26242 -2.14484 11.2412 9
152 1 -2.53523 1.28431 9.9843 12
153 1 5.35275 -3.51406 -5.76719 16
154 1 -7.34027 3.60585 -2.08231 22
155 1 2.22324 9.049 -1.2783 15
156 1 11.0979 3.08577 -4.43459 9
157 1 -0.896683 1.94945 -0.254449 21
158 1 -1.35792 -0.0288878 -11.4445 10
159 1 -7.49885 5.1469 4.2208 18
160 1 5.98958 -5.97491 7.58122 10
161 1 6.78192 0.53781 2.12368 19
162 1 -6.10756 -1.18143 -8.95438 15
163 1 9.30348 -1.77609 6.61497 11
164 1 -1.33137 -6.86441 -4.6863 19
165 1 7.28657 4.06815 7.30297 15
166 1 0.0225401 -8.51861 5.88563 13
167 1 -0.441343 0.887529 2.38579 21
168 1 4.31801 -3.23591 5.63309 22
169 1 4.35365 1.54115 -2.14625 22
170 1 7.27581 2.6384 -0.498702 19
171 1 5.94039 -3.29832 -0.927873 20
172 1 7.30407 5.81466 4.402 15
173 1 0.868585 -4.22798 -1.77227 21
174 1 4.75004 5.93427 6.36296 16
175 1 -3.19533 5.40367 -3.80439 19
176 1 -1.44587 6.549 -8.56133 10
177 1 -1.07619 -0.131696 7.76613 24
178 1 -2.45502 -4.5417 -6.96247 22
179 1 -5.78894 -6.78734 -1.21261 15
180 1 3.72824 5.01387 3.17391 20
181 1 -4.15815 5.76562 3.16153 22
182 1 -10.4622 4.81865 -1.08946 13
183 1 9.06189 5.06057 -4.09852 10
184 1 3.86658 1.327 10.4673 12
185 1 -8.62486 0.758538 -1.00779 20
186 1 1.72905 -1.56498 -9.7311 12
187 1 -0.949732 3.99012 4.16217 20
188 1 0.946874 -4.7737 -4.71183 23
189 1 5.18158 8.26468 3.75654 15
190 1 2.85442 -3.35677 0.858566 21
191 1 -1.31244 8.97807 4.07237 16
192 1 -4.10658 3.51691 -1.52497 19
193 1 6.17961 -5.80474 -3.58037 16
194 1 0.191817 -1.96959 0.55259 20
195 1 2.86091 -7.39106 7.28151 12
196 1 2.90642 4.21014 -4.44856 20
197 1 -0.623281 -0.934212 -2.65672 23
198 1 -3.63208 4.5351 8.51265 12
199 1 9.98712 2.30481 1.59037 14
200 1 -1.54708 6.96315 -5.53426 15
201 1 1.06565 -1.85835 6.28439 23
202 1 10.5099 -2.25762 -2.26705 13
203 1 -1.40201 -1.50418 10.8659 13
204 1 -2.05651 -4.47155 9.63561 15
205 1 -5.87002 9.17719 -0.945717 13
206 1 8.09068 6.81231 -1.18505 10
207 1 -5.89003 -6.35486 5.42732 12
208 1 9.63654 -3.01332 3.6097 16
209 1 -4.02738 -5.53836 -3.6137 22
210 1 9.3952 3.70861 4.5691 13
211 1 7.11227 -7.93542 -1.74032 12
212 1 1.38203 4.44069 -0.99705 21
213 1 1.45176 4.31474 6.27879 22
214 1 -7.67995 -1.46856 -2.94088 22
215 1 -0.548688 9.62603 -3.33261 14
216 1 2.75317 9.14995 -3.85401 12
217 1 -6.10612 -0.27283 -5.79271 19
218 1 3.64813 -0.694528 -7.22679 17
219 1 -2.02511 -3.61717 -4.17315 22
220 1 2.33199 -1.26916 -1.65207 18
221 1 1.59504 -4.78198 6.14735 21
222 1 7.5294 -5.85134 0.528867 16
223 1 -10.9445 -1.4947 -1.86898 12
224 1 -2.09389 3.28203 -10.1422 13
225 1 -7.31106 -4.72442 -3.20604 18
226 1 9.05068 0.245534 4.00524 18
227 1 -2.61201 -2.68683 1.67355 19
228 1 -0.94102 -3.30997 -9.20251 17
229 1 -7.84758 6.5186 -1.13303 16
230 1 -5.26083 -1.90291 3.29255 20
231 1 -3.32518 -0.694057 -4.29898 21
232 1 9.97608 4.70693 -1.0666 12
233 1 9.62193 5.5388 2.02891 11
234 1 -2.35016 -6.0717 6.56288 17
235 1 6.57876 -0.323821 -5.94445 16
236 1 3.3765 6.24079 -2.29806 19
237 1 3.56089 9.01072 6.3806 11
238 1 -0.784673 7.74003 -0.974011 23
239 1 10.0305 -0.854624 0.886347 15
240 1 -7.27094 -4.20786 0.0566914 18
241 1 -6.82142 3.14401 7.04103 13
242 1 5.09359 -1.42007 -3.38503 21
243 1 0.901108 1.16877 -6.05464 22
244 1 1.02431 6.681 3.98757 20
245 1 -1.89934 2.1393 -3.34219 21
246 1 -2.72619 8.88733 1.50991 18
247 1 -2.81654 -7.28739 3.84246 16
248 1 5.26899 -7.7639 1.96205 16
249 1 -10.1285 -4.16053 -0.959853 10
250 1 -9.04599 5.30212 -3.94049 15
251 2 -9.27181 -0.698619 2.72402 13
252 2 10.1946 3.79736 2.75144 14
253 2 2.63267 -3.27522 6.5784 20
254 2 -2.72949 0.210509 -8.19423 21
255 2 -11.0264 0.614274 -1.72647 13
256 2 -0.832199 -7.874 4.36619 17
257 2 -0.246824 1.59353 7.50476 21
258 2 6.98374 -0.40082 0.579686 21
259 2 1.48042 -2.75156 -0.662161 20
260 2 -1.08543 8.21315 5.7721 13
261 2 -2.11593 7.08016 0.765551 22
262 2 3.41803 0.206422 -0.862157 21
263 2 3.0051 -7.95225 -4.26882 17
264 2 -3.15998 -0.941858 -11.0634 13
265 2 -0.26753 -7.56803 -6.07662 15
266 2 -2.93285 1.13037 -4.8703 21
267 2 -2.53665 -4.47315 0.463825 16
268 2 -6.0027 8.70136 3.70391 12
269 2 9.09166 -1.58917 4.76 15
270 2 7.02074 -2.67595 3.14319 20
271 2 -2.12061 1.46882 1.56964 19
272 2 6.17637 7.30808 -0.362155 14
273 2 1.65753 9.06205 5.43113 12
274 2 5.00458 8.14936 1.94585 14
275 2 2.67409 8.03577 -5.28191 13
276 2 6.51995 -2.10534 -5.14159 16
277 2 -5.54917 0.631882 -8.96117 12
278 2 -0.943394 -7.34491 7.24089 15
279 2 -10.6235 3.30762 0.194828 15
280 2 1.90787 -5.36158 -6.39381 17
281 2 -1.60299 -9.10374 0.970453 13
282 2 3.42093 -2.1182 -3.26487 22
283 2 -0.21451 5.4684 5.20555 22
284 2 5.36188 -4.11503 7.66258 15
285 2 -3.88758 -5.99291 5.30503 16
286 2 4.74119 -4.07327 3.88101 20
287 2 0.286838 -7.14935 -3.41145 21
288 2 -0.360946 -0.114199 -6.68717 21
289 2 2.12348 -5.03379 -3.09314 21
290 2 -6.70435 -6.2486 3.46695 12
291 2 -5.76116 -6.24418 -3.02105 18
292 2 -5.98408 -5.68924 0.579364 15
293 2 -2.14721 9.13679 -2.24132 18
294 2 3.78941 2.44152 -8.724 13
295 2 9.36812 6.1728 0.166767 10
296 2 3.78633 4.61469 -6.10112 14
297 2 -2.29074 3.35493 -0.107695 24
298 2 -7.96223 3.97842 -4.76081 14
299 2 6.71791 2.53916 1.4793 19
300 2 -5.08176 6.57394 1.31396 21
301 2 -5.29974 4.51644 4.17786 19
302 2 1.77525 5.54059 2.59752 20
303 2 -1.24802 9.94732 0.359746 14
304 2 -0.178805 8.05051 -4.49082 15
305 2 1.07856 7.39102 8.22587 14
306 2 -2.9483 0.0535625 6.78318 23
307 2 2.84387 -3.03531 9.53749 15
308 2 3.80401 -2.85439 -6.77445 18
309 2 -1.88869 -9.91679 -2.00201 15
310 2 -1.00823 -5.02304 -5.59239 20
311 2 -5.68949 2.32317 -1.63224 20
312 2 -2.29602 4.89645 2.89374 23
313 2 -10.5586 -3.53144 -2.65473 11
314 2 6.89593 -4.16777 0.570646 22
315 2 2.87205 5.20469 5.36591 15
316 2 -1.95356 -2.65185 -7.56675 22
317 2 2.69925 0.0382053 -5.78295 22
318 2 3.07562 2.39657 -3.52033 22
319 2 -4.24321 -5.89921 -8.67935 12
320 2 1.15293 -2.75667 -5.37026 23
321 2 8.3011 0.87157 -5.49843 15
322 2 -6.17923 -4.81412 6.53179 12
323 2 0.797779 -2.92981 -8.61564 17
324 2 -1.50493 -1.68102 -4.24175 23
325 2 4.64547 5.73184 -3.82815 16
326 2 -4.43938 -9.2911 -3.87136 14
327 2 0.107771 -0.46913 -10.3019 12
328 2 -0.207701 7.7838 2.93403 21
329 2 -4.67275 -8.0925 -0.871863 13
330 2 -7.75577 3.68352 5.57067 14
331 2 -7.10797 6.89989 5.3922 12
332 2 -5.68576 -1.63375 5.08429 19
333 2 2.08358 1.73288 9.73245 14
334 2 -9.51493 -0.961513 -3.06641 16
335 2 1.69058 -9.18809 2.51623 16
336 2 7.66637 1.2096 -1.74705 17
337 2 0.56333 2.08717 -8.61478 18
338 2 4.79259 3.58994 3.80252 20
339 2 4.1843 9.57201 4.62781 9
340 2 -0.825299 0.364226 10.1479 15
341 2 -8.02678 4.57074 2.45205 19
342 2 2.13281 -0.370675 6.91715 22
343 2 -6.58557 -2.70613 -4.06166 25
344 2 1.18653 -0.231537 -2.74055 23
345 2 5.31312 3.09693 -1.28419 19
346 2 -8.32546 -4.23622 1.56989 16
347 2 -5.97309 6.49046 -5.56289 13
348 2 2.64629 -0.28003 -8.80028 15
349 2 -7.88126 1.59329 0.815466 23
350 2 6.87291 -6.21543 5.78486 13
351 2 -0.649887 6.02595 -1.73929 20
352 2 3.71296 -9.59568 -2.32913 14
353 2 1.4063 -10.359 -0.243349 12
354 2 -7.14104 8.16001 -0.187497 14
355 2 1.53487 -5.05968 4.22225 22
356 2 0.799195 -6.72745 1.98199 16
357 2 4.1002 7.37331 7.41688 13
358 2 -3.40321 7.49829 -4.6095 15
359 2 -4.41717 -2.5849 7.94882 14
360 2 -4.3352 -3.46783 2.64557 20
361 2 0.158097 2.69393 3.38964 22
362 2 -0.437607 -1.99006 7.87243 23
363 2 1.2361 3.72172 -6.63645 16
364 2 2.29111 -2.2887 2.41679 19
365 2 9.6919 -1.80293 -3.88037 13
366 2 3.13523 -0.516258 10.4361 13
367 2 -6.98627 -0.588201 -1.49072 17
368 2 7.91992 5.50572 -2.59077 13
369 2 5.65523 6.66687 4.80736 18
370 2 6.52547 -1.94033 -2.24831 19
371 2 -5.54484 -3.05122 -0.565433 21
372 2 3.24138 5.00934 9.52446 13
373 2 -3.66068 3.32319 -3.55882 18
374 2 -6.27653 1.11315 -4.4912 20
375 2 7.56913 2.12534 7.54326 14
376 2 2.51979 0.8363 4.0226 21
377 2 5.18081 0.759264 -6.64963 18
378 2 4.8647 -1.56182 5.08016 21
379 2 0.492547 -1.85275 10.6679 13
380 2 9.2148 -4.71927 4.1167 14
381 2 -0.0276207 -2.36123 4.8844 19
382 2 -4.07181 1.64429 4.21949 23
383 2 -8.76802 -4.69601 -4.90771 13
384 2 -7.95814 6.621 -3.08285 14
385 2 -5.23396 3.27504 -6.21407 17
386 2 -6.70348 -1.30908 2.12077 20
387 2 -1.83167 -5.5135 2.94538 19
388 2 0.988117 7.89724 -0.0636254 19
389 2 -6.66666 -4.1034 -6.9908 16
390 2 9.16353 2.85244 -0.216955 16
391 2 -9.60417 6.20754 -0.197568 14
392 2 9.31627 -5.68177 1.25473 13
393 2 -3.13812 -5.3062 8.31374 13
394 2 -4.27331 -1.21184 -6.01516 22
395 2 1.7236 5.25354 -3.12428 20
396 2 -8.19925 7.46036 2.39535 12
397 2 0.333281 5.0295 0.515276 22
398 2 -0.0952007 -4.93988 9.52338 16
399 2 -9.61955 2.16521 3.22421 14
400 2 -6.90187 4.81905 -0.760666 20
401 2 0.404794 4.47367 8.08082 17
402 2 -9.48626 -1.81205 -5.70752 12
403 2 4.14149 9.74001 -0.641571 11
404 2 -2.31598 5.96 7.77822 15
405 2 2.19852 2.6733 6.35262 19
406 2 0.982403 2.53049 -0.925174 22
407 2 -1.67793 0.846662 -1.82522 19
408 2 -2.28149 -4.23007 -10.5735 11
409 2 -0.366262 7.36344 -7.14848 11
410 2 -2.63871 -6.77959 -2.99394 20
411 2 -1.68056 3.05778 -6.93389 23
412 2 5.32777 -0.877011 8.22951 18
413 2 5.0248 1.36291 6.18208 18
414 2 10.2372 -0.676415 -0.924275 16
415 2 1.92785 -5.94167 7.88316 15
416 2 5.47421 0.628848 -3.66824 19
417 2 5.56457 4.49548 7.32718 18
418 2 -4.59066 0.198157 0.537259 24
419 2 0.34746 2.37745 -4.48589 21
420 2 -8.59301 2.07408 -2.39916 22
421 2 -6.1807 -6.88721 -6.05614 14
422 2 -0.847254 -4.19014 -2.66084 20
423 2 -3.52706 5.683 -1.79808 18
424 2 -5.82323 1.23751 6.85658 16
425 2 -2.74166 -3.16778 5.39141 21
426 2 0.294429 -5.89616 -0.561876 17
427 2 5.16071 2.49616 9.70734 12
428 2 -1.42662 5.08459 -4.57713 19
429 2 -1.39002 4.78823 -9.1665 11
430 2 3.59186 8.08837 -2.45455 13
431 2 0.8577 -10.3544 -3.39639 11
432 2 9.70761 -0.223587 7.25006 10
433 2 8.88256 1.94579 5.06994 15
434 2 -2.83997 6.19606 -6.95956 15
435 2 -4.99178 -2.91621 -9.41739 16
436 2 -1.25143 -5.19263 -8.41884 15
437 2 -4.31776 -0.550199 -2.45836 24
438 2 -3.14025 9.02683 3.27133 15
439 2 -5.54594 8.72337 -2.76357 14
440 2 -9.89881 1.64498 -4.63893 12
441 2 -3.8854 6.78786 5.10029 16
442 2 0.747255 0.167829 1.19514 24
443 2 6.7849 3.41201 -4.23463 21
444 2 7.84194 -4.67944 -3.39138 15
445 2 -1.25066 -1.82021 -0.825489 19
446 2 -10.3132 4.21884 -2.79203 13
447 2 -2.14015 1.61188 -11.0103 10
448 2 4.55298 -2.43875 0.616061 21
449 2 4.63697 -7.12984 7.05778 11
450 2 -7.22297 1.19991 4.04456 22
451 2 -3.66772 -4.57426 -5.32107 24
452 2 -8.07368 -3.58168 3.98699 12
453 2 2.68711 2.87309 1.21541 24
454 2 3.48027 -5.38552 1.33192 22
455 2 -11.3711 0.217958 1.33017 13
456 2 -2.92194 2.82132 8.73201 16
457 2 1.93446 -8.16195 5.89249 16
458 2 9.52702 0.560081 2.02288 18
459 2 3.2033 -7.17893 -0.929817 21
460 2 -4.08235 9.37457 -0.0578347 14
461 2 -6.95745 -1.26115 -7.22766 13
462 2 -4.02618 0.184527 9.41244 12
463 2 4.2458 -7.53511 3.78313 16
464 2 10.4114 4.29249 -2.88309 11
465 2 6.83407 2.94494 -7.07092 13
466 2 7.71657 5.48988 2.61405 15
467 2 -5.13483 3.11842 1.41923 21
468 2 7.95837 -3.14789 6.78722 15
469 2 4.82801 -5.30829 -5.03564 17
470 2 -3.27665 -3.56435 -2.62706 20
471 2 -3.29203 -1.32475 3.00768 22
472 2 10.2572 -3.84922 -1.28126 14
473 2 5.90781 -7.47997 -0.239474 15
474 2 4.52969 0.383538 2.0322 19
475 2 8.26432 -6.37756 -1.16183 15
476 2 -1.97217 3.10495 5.79424 22
477 2 9.65012 3.85094 -5.40735 11
478 2 -10.6806 -2.5828 -0.0135211 12
479 2 7.03277 0.199575 4.16784 21
480 2 -8.26454 -4.56469 -1.44948 15
481 2 4.30657 -9.17243 1.32543 14
482 2 1.22294 9.79632 -2.79467 12
483 2 9.62244 -2.49976 1.70402 14
484 2 3.08644 5.54933 -0.477835 21
485 2 -0.610815 -5.10015 6.00763 25
486 2 -0.650457 -2.33868 2.34733 22
487 2 6.91364 -6.55218 2.57086 19
488 2 5.9026 -7.79041 -3.18544 15
489 2 -1.45565 -10.0827 -5.37125 12
490 2 5.09504 4.92001 1.66611 19
491 2 2.21535 9.69432 2.06291 14
492 2 -4.09287 -7.88176 2.63464 12
493 2 -2.72686 -2.76367 10.296 12
494 2 -5.07534 4.20857 7.0366 16
495 2 8.32624 4.91635 5.89703 13
496 2 10.6557 1.35144 -3.68304 12
497 2 -0.63852 0.411611 4.57095 22
498 2 -3.59636 3.13766 -8.71655 13
499 2 -3.25621 -8.20522 -6.67253 14
500 2 5.08375 -4.64336 -2.10758 23
