ITEM: TIMESTEP
9652000
ITEM: NUMBER OF ATOMS
500
ITEM: BOX BOUNDS pp pp pp
-30.0 30.0
-30.0 30.0
-30.0 30.0
ITEM: ATOMS id type x y z Coordination
1 1 -1.62226 3.98095 -1.9776 22
2 1 7.02792 -0.64418 4.08044 21
3 1 2.29694 2.83662 10.6684 13
4 1 6.80857 -2.33099 1.36817 25
5 1 -7.54626 -1.5166 0.577158 22
6 1 -1.74018 -3.00702 -8.56834 21
7 1 4.34942 -0.390544 6.58436 21
8 1 2.10521 -0.942266 -5.32204 21
9 1 -9.86639 -0.669453 -6.59929 11
10 1 -1.0468 1.98685 -11.2531 11
11 1 1.93772 -10.6172 -3.52122 11
12 1 4.8148 4.3815 0.702292 19
13 1 0.0521083 4.31169 -5.32745 23
14 1 -1.55932 -0.846719 3.40587 20
15 1 4.7687 1.84338 9.23708 16
16 1 -9.96321 -3.79034 1.6363 14
17 1 -9.23542 -1.96784 3.6042 14
18 1 8.8565 -4.82493 -3.27131 12
19 1 7.02457 0.745775 7.61794 19
20 1 -8.87736 -6.06814 3.33546 10
21 1 -2.04935 -8.02814 -6.921 14
22 1 3.26506 2.05265 -4.64374 23
23 1 7.14594 -2.20639 -4.41545 17
24 1 5.51149 -5.13484 1.34074 21
25 1 -3.36892 6.73756 5.96069 17
26 1 6.64958 2.08903 5.06617 20
27 1 2.3302 5.73233 5.43652 21
28 1 -2.93731 -0.158081 -10.3548 17
29 1 -3.14253 -3.65516 -5.79503 22
30 1 -0.534114 2.80739 9.12884 16
31 1 8.19814 -5.34649 2.8613 15
32 1 -6.5063 6.13439 4.58417 16
33 1 -4.27691 4.15439 -0.0840298 22
34 1 4.45186 7.4862 -6.99224 8
35 1 5.7058 9.51515 -1.19205 12
36 1 -4.37848 6.61018 -5.3977 11
37 1 2.81081 -3.24794 -2.85886 21
38 1 -5.7468 4.10012 -7.86782 12
39 1 0.6336 2.12238 -3.12964 21
40 1 -2.78459 8.87284 -3.12209 14
41 1 0.676029 9.61406 -3.55994 12
42 1 -5.99168 1.39673 0.751262 23
43 1 4.3936 5.19719 9.10027 13
44 1 -0.645369 -1.87775 -10.9677 9
45 1 -5.0186 -4.00919 7.29502 15
46 1 -4.79875 -1.11912 2.28254 23
47 1 -2.15763 3.18686 3.96052 18
48 1 -6.7419 -1.29756 -6.0476 22
49 1 4.00935 -7.82822 -4.35096 14
50 1 -3.49352 3.1913 7.09631 21
51 1 -9.02224 -3.71197 -8.20132 10
52 1 -0.739851 -4.14783 1.68245 21
53 1 5.35947 4.52502 -5.78455 21
54 1 -5.08567 -0.570662 7.64487 19
55 1 -5.77664 -4.03325 -7.55688 18
56 1 5.03337 2.93412 -8.44054 11
57 1 1.91945 4.37444 2.59075 23
58 1 -4.08162 0.763858 4.91574 21
59 1 -7.93793 -0.267686 6.43713 15
60 1 -1.36674 -6.10284 -1.08756 22
61 1 -4.7124 8.84585 3.26718 11
62 1 -8.08571 3.77479 2.50475 16
63 1 2.07817 9.07696 4.79775 17
64 1 5.89637 -2.9867 7.46081 18
65 1 4.46611 -10.3845 -2.13227 9
66 1 9.45478 0.259613 -5.30119 12
67 1 -6.63468 -4.06173 2.11893 23
68 1 -3.25854 -3.8711 3.46956 21
69 1 8.54744 -4.12818 6.10388 12
70 1 5.16396 -7.0704 3.67312 14
71 1 6.06898 7.19824 1.10002 14
72 1 -5.98174 -6.58017 1.33058 16
73 1 -3.26045 -8.19033 -0.153067 17
74 1 -2.6098 -3.59483 -2.47626 20
75 1 1.48186 -0.683542 4.72205 23
76 1 -5.67373 -3.64712 -4.23282 19
77 1 3.4088 6.88103 2.18965 21
78 1 1.23651 -6.08475 -2.98319 23
79 1 -2.2662 -3.07417 12.0027 10
80 1 -7.14916 0.816289 3.76584 20
81 1 1.92015 -5.89294 0.396282 21
82 1 -2.73056 -1.76004 5.78251 19
83 1 3.28974 -0.118726 11.892 11
84 1 -10.9975 -1.17334 -0.0144762 14
85 1 -6.10229 6.17842 1.63124 17
86 1 -5.53071 5.28306 7.72781 10
87 1 2.7722 1.41409 0.925044 25
88 1 0.0935755 7.6525 6.66032 16
89 1 -7.95735 -6.20334 -6.52046 11
90 1 4.10136 -1.35032 2.80319 20
91 1 -9.97748 0.685811 1.99826 13
92 1 -3.2259 -5.59915 -8.76906 13
93 1 8.89851 -1.75306 8.41787 10
94 1 -2.90284 1.51963 1.53001 23
95 1 0.460071 -4.0881 10.4493 12
96 1 -4.05274 -3.19177 -10.7698 12
97 1 -9.19119 -3.15889 -4.85033 16
98 1 -0.717019 -8.95761 -2.19375 17
99 1 -5.2136 -1.24323 -0.914367 22
100 1 3.79564 1.47354 3.7962 23
101 1 -2.01037 5.91188 8.89565 11
102 1 1.88103 0.679764 7.94162 22
103 1 -2.17164 8.11853 1.56528 20
104 1 1.09956 -8.2945 -5.58664 15
105 1 0.536438 6.54141 0.269751 22
106 1 7.00528 2.08977 -4.05948 25
107 1 -8.42962 0.970788 -4.72977 19
108 1 -6.13418 1.47591 -2.39243 23
109 1 -4.52404 -10.0272 -6.25417 11
110 1 1.94538 -8.55343 -0.861155 17
111 1 -7.23242 3.69523 -5.09663 14
112 1 -2.94129 -0.0665673 11.0893 11
113 1 -0.946599 1.0294 6.07622 23
114 1 -7.56437 3.5647 5.76784 13
115 1 -1.33123 -0.867272 -5.96672 23
116 1 3.31452 -4.95196 8.42363 13
117 1 0.64013 -5.32944 7.41165 16
118 1 -1.32976 -10.2953 -4.9474 14
119 1 7.29169 -0.140055 -1.83194 19
120 1 -11.8597 1.40086 -0.732184 9
121 1 7.88557 2.86873 -6.90248 13
122 1 0.738105 6.27461 -2.80519 20
123 1 2.64982 -7.98834 2.73622 15
124 1 -6.75913 -8.66836 -4.42959 12
125 1 0.151995 1.95978 2.74289 23
126 1 9.69961 1.66193 6.82626 10
127 1 9.99233 1.62059 -2.28618 16
128 1 2.39347 4.48432 -7.34902 18
129 1 -0.606661 3.92224 -8.74819 17
130 1 4.08997 9.92856 1.87832 14
131 1 2.04365 2.39907 -9.64355 13
132 1 -0.272595 -3.54314 5.22005 22
133 1 5.6185 7.26293 -3.97633 16
134 1 4.27129 -5.7904 -1.6574 23
135 1 -0.277814 -7.57655 1.24646 18
136 1 -5.22594 1.32746 -10.0655 14
137 1 4.00184 2.97695 6.89828 19
138 1 8.99024 -3.95509 -0.0583762 15
139 1 -2.29658 6.44886 -1.12121 24
140 1 -5.85489 6.6855 -2.15689 15
141 1 2.5682 -5.04297 -5.57816 18
142 1 0.795815 -1.04611 1.58346 20
143 1 -8.02387 -3.73065 5.74188 15
144 1 -3.80781 -8.94137 -3.32481 17
145 1 0.974007 -2.37931 -7.38331 20
146 1 5.86666 4.82105 -2.35348 20
147 1 2.46858 -4.06289 2.96361 24
148 1 4.89942 -0.265023 0.096758 20
149 1 -6.7943 -4.44459 -1.11664 21
150 1 -4.60835 -6.63315 -5.62157 20
151 1 3.00696 -1.8886 9.3246 20
152 1 -4.95616 -2.12116 10.0301 13
153 1 4.47121 -2.56596 -6.39503 14
154 1 -7.01694 4.03615 -0.655871 19
155 1 0.987864 9.46868 2.05886 16
156 1 10.633 3.33534 -4.70764 11
157 1 -1.30147 4.41058 1.41517 24
158 1 -2.61569 1.63096 -7.48485 22
159 1 -0.0245042 6.95199 3.37805 23
160 1 5.80778 -6.0847 6.70533 12
161 1 6.13044 1.39606 1.72766 22
162 1 -6.25532 -1.35804 -9.58981 14
163 1 9.64354 -1.03408 5.7616 14
164 1 -1.64018 -6.42387 -4.21657 22
165 1 7.11033 3.81822 7.45954 14
166 1 0.0938091 -6.15248 3.96506 18
167 1 -0.191704 1.40317 -0.533634 20
168 1 5.63235 -3.89405 4.23692 20
169 1 4.18616 2.20368 -1.88655 22
170 1 7.31247 2.82933 -0.571925 19
171 1 6.1742 -3.31778 -1.71413 22
172 1 7.5504 6.27578 5.31078 10
173 1 0.172305 -3.30281 -0.7881 22
174 1 6.4888 7.20196 7.94455 9
175 1 -5.22466 1.63527 -5.51599 24
176 1 -3.1772 4.35976 -6.60487 21
177 1 0.531424 0.019961 10.3974 17
178 1 -4.45381 -1.21947 -7.42013 23
179 1 -6.38967 -8.61976 -1.30464 13
180 1 4.95425 4.15583 3.96194 21
181 1 -5.37165 3.21432 2.99614 20
182 1 -9.40479 3.36587 -2.56344 12
183 1 8.28286 4.8816 -4.31969 16
184 1 5.99906 -1.24322 10.1564 12
185 1 -8.71475 1.03372 -0.993327 22
186 1 -0.0332985 0.147 -8.96948 20
187 1 -0.983257 4.94559 6.14073 22
188 1 -0.15358 -3.41561 -4.26494 21
189 1 4.91637 7.64986 4.77483 16
190 1 3.29698 -3.09511 0.261853 21
191 1 -1.54315 9.30037 4.63036 14
192 1 -3.39795 1.38058 -1.56978 23
193 1 5.56679 -4.79328 -4.28467 16
194 1 1.61074 4.01657 -0.526379 23
195 1 2.92019 -5.7492 5.09206 21
196 1 3.16226 4.56766 -3.97271 22
197 1 -0.932703 -0.837039 -2.76137 23
198 1 -2.38071 -0.049873 8.27085 20
199 1 10.2944 2.7301 1.10376 12
200 1 -1.44377 6.91914 -4.85738 15
201 1 -0.0260656 -2.3709 7.59767 22
202 1 9.82979 -1.6831 -2.56186 13
203 1 -0.0197985 -1.57819 12.8085 9
204 1 -2.2892 -3.7759 9.11273 16
205 1 -4.99926 8.82972 -0.25126 11
206 1 8.12883 7.10281 -1.33216 12
207 1 -5.61668 -5.48091 4.49163 17
208 1 9.62537 -2.60092 3.01767 16
209 1 -3.76887 -4.30178 0.203208 23
210 1 7.39245 4.30701 2.57634 14
211 1 6.7508 -7.50658 -2.98835 13
212 1 3.33373 6.71964 -1.26224 22
213 1 1.40769 5.11724 8.27401 19
214 1 -7.88856 -1.30378 -2.61028 18
215 1 -0.715263 9.472 -0.675658 14
216 1 1.9153 7.19771 -5.69532 15
217 1 -7.50322 1.47683 -8.0647 13
218 1 3.10069 0.314623 -7.67896 16
219 1 -4.39976 -6.16724 -2.52399 22
220 1 2.20216 -0.653772 -1.78888 20
221 1 3.0148 -3.02391 6.12564 22
222 1 7.63011 -6.08337 -0.37642 15
223 1 -11.2172 -0.941005 -3.37685 13
224 1 -3.46894 3.58874 -9.98208 13
225 1 -7.84823 -6.04503 -3.36225 17
226 1 9.5698 0.610004 3.28275 14
227 1 -2.08255 -1.30784 0.195616 22
228 1 -0.301601 -5.63205 -6.93815 16
229 1 -8.55336 6.3859 0.00965831 8
230 1 -5.88774 -2.04722 4.7759 21
231 1 -3.87186 -0.845499 -3.8563 23
232 1 10.3743 4.78583 -1.53896 13
233 1 9.40056 6.07215 1.36243 9
234 1 -2.44199 -5.75957 6.11541 14
235 1 6.15232 0.295446 -6.57757 16
236 1 2.65896 10.2331 -0.780228 12
237 1 3.23017 7.83452 7.71527 12
238 1 3.74822 9.64484 -4.26253 11
239 1 9.81696 -0.763583 0.450208 15
240 1 -8.81382 -6.4044 -0.194084 15
241 1 -6.37744 1.97857 7.62908 11
242 1 4.94226 -0.488278 -3.75552 21
243 1 0.583338 1.75788 -6.64794 22
244 1 1.31314 2.68367 5.50063 22
245 1 -2.08042 1.94321 -4.51503 23
246 1 -3.27071 5.63108 3.23566 21
247 1 -2.83147 -6.80758 2.78467 14
248 1 4.88291 -8.08107 0.394811 16
249 1 -9.80686 -3.65114 -1.61615 18
250 1 -4.63005 4.13015 -3.2198 21
251 2 -11.6554 0.508359 1.04903 9
252 2 9.18975 4.08975 1.69475 13
253 2 4.05124 -2.05177 7.54169 19
254 2 -2.57287 -2.23053 -6.85934 23
255 2 -10.0295 -0.399189 -4.66529 14
256 2 -1.12848 -7.05304 2.8674 17
257 2 -1.94401 1.81906 7.75808 19
258 2 6.44943 0.830449 -0.150129 17
259 2 2.04525 -2.46264 -1.052 19
260 2 -1.58626 6.65834 7.07098 15
261 2 -1.2625 7.72769 -0.0654268 21
262 2 3.46418 0.627647 -0.954663 23
263 2 2.18013 -6.98003 -4.55351 18
264 2 -4.71952 -1.17676 -10.6729 11
265 2 -0.575919 -7.23442 -6.00508 17
266 2 -3.29412 2.42143 -5.77792 21
267 2 -2.90709 -5.18797 -1.5336 21
268 2 -5.68766 7.29755 3.2313 15
269 2 8.9289 -1.18091 4.08635 16
270 2 6.02769 -2.12598 3.26215 22
271 2 -1.49286 2.70643 2.135 22
272 2 6.80246 8.17331 -0.416157 15
273 2 1.38782 7.12956 7.78711 16
274 2 6.4292 7.51988 6.07263 9
275 2 2.85757 6.40807 -7.18805 12
276 2 5.69806 -1.25038 -5.49005 18
277 2 -3.58103 0.19845 -8.43165 23
278 2 -0.37586 -5.46703 5.76621 15
279 2 -6.95805 2.16536 2.31016 20
280 2 1.26033 -4.33074 -6.95993 16
281 2 -1.3867 -7.95533 -0.510502 16
282 2 3.06852 -1.27231 -3.54777 19
283 2 0.285384 6.28901 5.26869 21
284 2 4.94916 -4.80448 7.78146 14
285 2 -3.68521 -5.53398 4.45017 16
286 2 8.57552 -5.60048 1.12604 13
287 2 -0.533009 -7.13378 -2.77584 22
288 2 -0.941731 0.618301 -7.32531 24
289 2 1.44632 -4.29734 -3.86892 20
290 2 -6.97967 -5.83959 3.15717 16
291 2 -7.47909 -7.77455 -2.93147 15
292 2 -7.11498 -7.21718 -0.287939 16
293 2 -3.95467 7.96006 -1.69694 16
294 2 3.28162 3.39751 -8.87158 15
295 2 9.56613 6.10147 -0.509323 11
296 2 3.48317 3.71087 -5.8265 21
297 2 -1.57329 5.21548 -5.71388 18
298 2 -8.95516 2.96736 -4.36956 12
299 2 5.66614 3.18141 2.37763 20
300 2 1.58526 5.85776 -1.24579 18
301 2 -3.00067 4.89024 4.94551 21
302 2 1.31281 7.25604 2.10041 23
303 2 -0.774054 9.03583 2.49301 15
304 2 2.47165 10.0718 -2.78153 12
305 2 2.81102 4.34713 9.72162 14
306 2 -6.95465 0.118744 7.9338 12
307 2 2.25015 -3.68741 9.53303 14
308 2 2.94551 -1.62786 -7.07215 16
309 2 -2.06005 -9.5864 -3.48488 16
310 2 -1.622 -4.42677 -5.18447 23
311 2 -5.91116 -0.594809 0.9164 22
312 2 0.185245 -0.0730633 3.37309 22
313 2 -10.0559 -2.3871 -3.02293 15
314 2 6.83856 -3.93235 4.29502e-05 20
315 2 2.42532 4.15612 6.56083 22
316 2 -3.87898 -2.90055 -3.87679 23
317 2 2.53109 0.931207 -5.88726 22
318 2 2.64053 2.84998 -3.00997 21
319 2 -4.97213 -4.67878 -5.78645 21
320 2 0.310017 -1.80408 -5.46924 22
321 2 7.68653 1.30161 -5.81166 18
322 2 -6.21526 -4.43206 5.86203 14
323 2 -0.181636 -1.7464 -8.89907 16
324 2 -2.18041 0.0199067 -4.28044 21
325 2 5.56559 6.44007 -5.7579 16
326 2 -5.07763 -9.55227 -4.66982 12
327 2 -0.805404 0.080271 -10.7597 13
328 2 0.206011 9.12772 5.2665 13
329 2 -4.63036 -8.0759 -1.64288 16
330 2 -7.36303 1.61868 5.64193 16
331 2 -6.70046 3.81308 7.55376 11
332 2 -4.53146 -2.10105 6.22645 24
333 2 1.45556 -0.383626 12.1747 12
334 2 -8.09257 0.304684 -6.63651 16
335 2 1.55707 -7.7252 1.00825 16
336 2 7.83842 1.77219 -2.23277 21
337 2 0.0543273 3.04383 -10.2 14
338 2 4.71225 2.60105 5.15982 22
339 2 3.15659 7.56942 5.65027 17
340 2 -1.73751 -1.15633 12.0863 10
341 2 -4.46598 1.4391 7.05247 19
342 2 1.08431 1.7616 9.54561 16
343 2 -6.00103 -5.0259 -2.82457 21
344 2 0.573391 0.460806 -2.2268 19
345 2 5.47549 3.4003 -0.928874 22
346 2 -9.58901 -5.97111 1.47287 12
347 2 -4.98948 6.05308 -3.69589 16
348 2 1.55998 1.02621 -8.50464 19
349 2 -3.68803 2.17621 3.49394 23
350 2 6.28083 0.273954 5.75887 19
351 2 -3.06915 2.88702 -2.90158 23
352 2 3.61142 -9.5669 -3.79632 13
353 2 1.09823 -9.78523 -2.04502 16
354 2 -6.02648 7.07179 -0.170665 15
355 2 3.49151 -3.88792 4.45089 24
356 2 2.38631 -2.16891 1.92677 20
357 2 4.64558 6.84141 8.37766 13
358 2 -1.0599 9.49034 -2.66821 13
359 2 -3.28503 -3.04828 10.4087 14
360 2 -5.34055 -2.90373 2.97227 21
361 2 0.571121 4.70015 1.19718 21
362 2 3.55144 1.44032 10.7715 14
363 2 1.49984 5.38562 -4.43247 19
364 2 3.43823 -0.188518 4.49443 22
365 2 9.09055 -1.28316 -4.24894 15
366 2 4.23951 -1.28495 10.7525 13
367 2 -7.69843 0.588457 -2.88132 22
368 2 7.32459 6.10117 -2.91983 14
369 2 3.34354 5.45278 3.65963 20
370 2 6.25239 -1.53668 -2.72217 22
371 2 -5.79599 -4.69882 0.603766 21
372 2 5.29086 3.52574 8.52144 17
373 2 -2.28588 4.82139 -0.249262 22
374 2 -6.85161 0.397464 -9.462 11
375 2 8.01594 2.41345 6.69876 14
376 2 3.02766 3.38594 0.634363 24
377 2 4.98635 1.19797 -7.67874 16
378 2 9.02486 -6.02954e-07 7.58645 11
379 2 1.12192 -1.14973 8.68964 20
380 2 8.88501 -4.18012 4.1466 14
381 2 -1.91504 -2.7207 4.2295 22
382 2 -5.55851 -0.215293 3.91375 21
383 2 -8.8557 -5.20753 -4.99097 15
384 2 -8.65299 4.82433 -1.42476 11
385 2 -6.61021 2.72964 -6.72578 15
386 2 -8.13748 -2.83121 1.86708 23
387 2 0.387313 -4.43638 3.28094 20
388 2 4.3755 9.90546 0.0917281 14
389 2 -7.71424 -4.83947 -7.71029 10
390 2 10.3177 2.73787 -0.9425 13
391 2 -7.85131 4.93125 1.09802 15
392 2 6.21489 -5.44983 3.13286 19
393 2 -3.17705 -4.74822 7.50202 16
394 2 -5.87847 2.79896 -3.93773 20
395 2 3.34586 8.64457 -5.896 10
396 2 -7.04449 4.37356 3.9819 13
397 2 -0.0131885 3.16012 -1.43179 21
398 2 -0.344489 -4.13725 8.72531 17
399 2 -8.76272 -0.0404842 3.19034 16
400 2 -4.83673 4.61774 1.7613 23
401 2 -1.43066 0.629067 9.98596 14
402 2 -9.67833 -2.54722 -6.82031 11
403 2 5.00541 7.94625 2.87272 17
404 2 -0.52605 4.49435 8.27361 16
405 2 -0.684317 3.03169 5.18669 19
406 2 -1.32081 5.94005 -2.74319 20
407 2 -8.9089 -0.32982 0.397825 22
408 2 -2.4703 -2.3431 -10.5805 14
409 2 -5.38793 4.79576 -1.45902 21
410 2 -3.53796 -7.04298 -4.09972 23
411 2 0.581625 3.62318 -7.24385 19
412 2 7.1761 -2.18379 9.02367 12
413 2 3.75471 1.07435 7.80106 22
414 2 9.18934 -0.695914 -1.21988 15
415 2 2.44321 -4.89443 6.81582 20
416 2 5.13014 1.43581 -4.01488 22
417 2 7.58053 5.66732 7.14836 9
418 2 -6.8438 -2.40829 -1.26299 22
419 2 -0.292215 2.36712 -4.82852 21
420 2 -6.99775 2.13453 -0.699946 22
421 2 -6.68776 -7.32441 -5.68259 14
422 2 -0.846932 -2.78417 -2.37362 22
423 2 -4.14486 1.96803 0.19745 24
424 2 -2.27341 -0.0583969 5.15215 22
425 2 -1.98623 -1.72589 7.59783 21
426 2 0.0523217 -5.21166 0.0274422 23
427 2 6.40846 0.535447 9.51004 15
428 2 0.250154 7.79094 -4.36307 15
429 2 -2.38622 3.4369 -8.25258 18
430 2 5.15494 9.02767 -3.19436 12
431 2 0.70032 -10.1104 -4.91313 12
432 2 6.66001 -4.08581 5.90017 16
433 2 10.2605 0.726339 5.0999 12
434 2 -4.91507 5.25237 -6.70362 15
435 2 -4.66671 -4.15251 -9.09885 15
436 2 -1.49491 -4.80919 -8.32775 15
437 2 -4.81033 -0.0044784 -2.33207 22
438 2 -3.15776 8.2449 4.62778 16
439 2 -3.01542 7.7599 -4.67926 13
440 2 -7.31536 -2.31336 -4.42631 24
441 2 -5.37175 6.13555 6.11742 14
442 2 0.890693 0.949739 1.12157 24
443 2 6.60286 3.98656 -4.27065 21
444 2 7.45534 -4.13555 -4.17352 14
445 2 -2.55868 -4.586 1.72766 21
446 2 -10.3787 1.97939 -1.58125 15
447 2 -2.94372 2.09066 -10.9145 12
448 2 4.78954 -2.07165 0.601805 20
449 2 4.60658 -6.54461 5.3291 14
450 2 -8.03675 -1.75086 5.30455 15
451 2 -4.9543 -0.418768 -5.50438 23
452 2 -9.34891 -4.10489 4.0408 10
453 2 4.17371 0.500604 1.96565 20
454 2 3.46477 -4.90828 1.33547 24
455 2 -12.0593 -0.320982 -1.76855 10
456 2 -4.13691 -0.466353 9.65479 16
457 2 1.89162 -6.93528 3.98034 17
458 2 10.2024 0.760544 1.51065 12
459 2 2.3153 -6.57009 -1.50269 23
460 2 -3.91806 8.68285 1.51739 15
461 2 -6.27872 -2.08638 -7.77514 19
462 2 -6.06068 -2.98609 8.60103 13
463 2 4.50232 -8.08592 2.26384 13
464 2 9.97655 4.55875 -3.43736 13
465 2 6.29188 3.54984 -7.13695 14
466 2 7.51842 6.27656 1.78169 14
467 2 -1.66141 6.2115 2.75624 21
468 2 9.46684 -2.57973 6.71635 11
469 2 4.33676 -4.27505 -5.48098 15
470 2 -3.49361 -2.40312 -0.384337 23
471 2 -2.80396 -0.513572 1.91539 22
472 2 9.37418 -3.50512 -1.89341 16
473 2 5.92712 -9.13656 -2.01282 11
474 2 1.76781 2.82806 3.53502 21
475 2 8.05126 -6.27701 -2.23794 14
476 2 -1.89228 0.163889 -1.19524 21
477 2 9.33261 3.69569 -5.97564 10
478 2 -10.5534 -2.92485 0.0759601 14
479 2 7.38697 1.14665 3.25287 21
480 2 -8.75327 -5.17249 -1.59675 15
481 2 3.61164 -9.47763 -0.565792 13
482 2 1.04605 9.84386 -0.0553455 14
483 2 8.78963 -2.34024 1.28159 15
484 2 4.2929 5.85235 -2.80621 20
485 2 1.18127 -2.39786 5.94589 24
486 2 -0.461462 -2.37223 0.888798 21
487 2 5.6093 -6.4372 -0.115685 19
488 2 5.11762 -6.56064 -3.58769 16
489 2 -2.64587 -9.77072 -6.39539 11
490 2 4.30257 6.25869 0.48468 21
491 2 2.6548 9.94951 3.10186 13
492 2 -4.14714 -7.31943 1.42474 17
493 2 -0.252066 -3.43937 12.0039 10
494 2 -3.49514 4.77151 8.34053 13
495 2 6.86553 4.82962 4.32016 16
496 2 10.3679 1.4155 -4.18604 13
497 2 1.10505 0.633791 6.15979 20
498 2 -5.16901 2.96334 -9.21919 14
499 2 -3.3263 -6.67258 -7.21384 16
500 2 4.42649 -4.04567 -2.53915 20
