ITEM: TIMESTEP
2035000
ITEM: NUMBER OF ATOMS
500
ITEM: BOX BOUNDS pp pp pp
-30.0 30.0
-30.0 30.0
-30.0 30.0
ITEM: ATOMS id type x y z Coordination
1 1 -4.47457 2.1608 -4.33124 22
2 1 7.54619 -1.50448 4.44565 23
3 1 1.43086 3.92592 10.3031 15
4 1 7.50853 -2.16035 1.48323 21
5 1 -5.5143 -0.864103 2.20437 21
6 1 -3.69655 -1.56324 -7.05687 25
7 1 5.155 -0.433644 6.32065 20
8 1 2.46185 -1.67841 -4.75641 21
9 1 -9.90596 -0.430655 -4.95384 14
10 1 0.975374 0.0527785 -7.44743 22
11 1 1.59225 -11.354 -3.48407 9
12 1 6.76172 4.04859 2.11591 19
13 1 1.70478 6.00719 -7.10336 17
14 1 2.38619 0.340151 5.21423 19
15 1 4.55603 4.19731 8.93172 16
16 1 -9.84707 -4.06369 2.51596 11
17 1 -11.0886 -0.331856 3.04811 11
18 1 9.27738 -5.41129 -2.19331 11
19 1 6.46294 1.67052 8.51551 15
20 1 -7.57451 -5.08935 0.677266 16
21 1 -1.39315 -7.95854 -7.70952 11
22 1 3.96458 1.47525 -5.13847 20
23 1 7.74337 -3.07922 -3.7776 15
24 1 6.04775 -4.28215 2.38369 21
25 1 -4.86009 8.61515 4.48258 11
26 1 6.90368 2.10858 4.83174 21
27 1 3.23772 6.76113 1.57707 20
28 1 -1.95029 1.33391 -6.11108 21
29 1 0.25792 -5.86635 -7.30956 18
30 1 -0.737961 4.84171 8.3331 19
31 1 8.92253 -5.74274 3.40581 13
32 1 -6.6834 6.1209 3.24229 16
33 1 -4.84473 5.17881 1.03351 19
34 1 3.76177 6.91474 -4.60703 13
35 1 5.36986 8.00208 -1.44805 15
36 1 -4.55469 7.12313 -6.29883 10
37 1 3.6294 -4.20585 -3.01405 21
38 1 -3.44935 4.106 -7.14808 19
39 1 1.30864 3.40726 -2.53836 20
40 1 -3.2544 8.22952 -3.30218 17
41 1 0.741464 6.74125 -3.78563 23
42 1 -11.7414 1.17007 -0.0538217 15
43 1 2.53592 6.56937 9.01294 12
44 1 -3.05363 0.301573 -9.28853 15
45 1 -4.11263 -6.32365 5.24072 16
46 1 -3.09107 1.45803 1.90686 22
47 1 -4.10066 0.878751 4.88659 20
48 1 -6.09547 0.140471 -2.26107 20
49 1 4.20356 -8.96018 -3.66724 12
50 1 -5.48547 1.64172 0.124605 19
51 1 -8.3202 -2.59303 -6.72054 15
52 1 -1.93465 -6.32749 1.00816 20
53 1 5.86617 4.09783 -5.90948 14
54 1 -4.3177 -2.50263 4.27125 19
55 1 -5.54426 -4.18817 -8.3611 15
56 1 5.50013 1.71883 -8.21458 12
57 1 -1.74689 6.22468 1.50646 21
58 1 -1.24686 2.62492 5.71928 23
59 1 -6.29695 2.74978 2.94722 22
60 1 -0.78447 -6.24111 -2.01156 20
61 1 -2.0872 9.83196 -0.819933 14
62 1 -10.5563 2.75058 2.17884 16
63 1 1.4566 10.3177 4.78742 8
64 1 4.64263 -1.54692 9.15565 14
65 1 2.32806 -9.23607 -1.22168 18
66 1 9.72398 -0.363912 -4.1907 16
67 1 -5.01673 -4.0177 1.25871 23
68 1 -2.14404 -4.88931 3.56176 22
69 1 9.04115 -4.60096 6.22587 12
70 1 6.06223 -5.93925 5.01365 14
71 1 6.66739 7.008 1.56149 15
72 1 -4.52385 -6.42117 2.2232 16
73 1 -3.43192 -9.27822 0.713823 12
74 1 -2.32093 -3.75606 -0.368436 25
75 1 1.128 -2.14906 3.65184 24
76 1 -5.52236 -3.71729 -5.09802 23
77 1 2.44348 1.61598 0.0404025 18
78 1 1.90173 -6.80713 -2.99178 20
79 1 -3.16875 -2.16167 9.02664 12
80 1 -8.72077 1.22567 4.48917 14
81 1 1.49942 -6.27754 0.0757964 20
82 1 -2.14372 -3.60923 6.35554 21
83 1 0.699401 1.17239 11.5265 11
84 1 -10.9897 -2.07855 0.647528 17
85 1 -7.15511 8.67401 1.80668 10
86 1 -6.28366 6.31332 6.47262 10
87 1 1.74715 3.2582 3.99194 20
88 1 0.0216668 7.71168 6.94816 16
89 1 -7.87129 -5.54139 -5.6693 15
90 1 4.61294 -1.4383 3.10956 23
91 1 -8.62082 0.412313 1.37734 22
92 1 -2.64071 -5.64669 -9.47711 11
93 1 7.96475 -1.54571 7.7409 15
94 1 -2.74229 3.65082 -0.59786 20
95 1 -0.421339 -3.57456 9.46158 15
96 1 -3.26245 -2.39551 -10.4698 12
97 1 -10.4714 -3.77304 -4.36594 13
98 1 -0.877519 -10.59 -1.16009 13
99 1 -3.2509 -0.464352 -0.774802 22
100 1 4.19686 1.90069 2.82114 21
101 1 -3.13414 7.42552 7.25995 12
102 1 0.979965 1.65741 8.12411 18
103 1 -4.12163 7.29135 -1.01482 19
104 1 1.20386 -8.5632 -5.45313 14
105 1 0.0452217 9.0921 1.98145 14
106 1 7.04447 1.61032 -3.65013 21
107 1 -7.56656 2.11229 -3.40442 20
108 1 -10.8811 1.93383 -2.93458 14
109 1 -4.14058 -9.20726 -5.50123 11
110 1 2.95566 -8.95234 2.35607 14
111 1 -6.22518 4.47712 -5.10908 14
112 1 -4.57955 1.03943 8.38735 11
113 1 0.244437 0.906719 3.0618 19
114 1 -6.44648 -0.260974 5.84814 14
115 1 -0.630001 -1.9451 -5.62479 21
116 1 2.89799 -4.02838 8.60444 16
117 1 0.843309 -6.23311 8.28037 12
118 1 -1.26289 -10.7017 -4.28474 12
119 1 7.74078 -0.644546 -1.15166 20
120 1 -9.45319 5.69284 1.55502 11
121 1 8.1706 2.27979 -6.10308 13
122 1 -1.04083 6.25925 -1.42597 20
123 1 4.21414 -8.90614 4.63217 9
124 1 -6.45446 -7.83921 -3.76378 11
125 1 -1.58006 -0.935533 4.70508 20
126 1 9.30941 1.60065 7.1469 14
127 1 9.91753 1.17088 -1.65644 17
128 1 2.73291 3.03901 -7.61022 16
129 1 -0.240053 3.48072 -7.93817 17
130 1 3.89531 9.63097 1.18785 12
131 1 2.08585 1.45054 -9.64582 12
132 1 0.732573 -6.80143 3.22035 22
133 1 5.82626 4.75284 -3.14594 19
134 1 4.2406 -6.01685 -0.124685 22
135 1 0.0249167 -8.5499 0.877903 17
136 1 -4.96717 1.72641 -7.54245 18
137 1 3.9818 2.42246 6.39422 20
138 1 10.3084 -4.40942 0.734117 13
139 1 -0.268985 4.15125 -5.14608 20
140 1 -6.68227 7.19365 -3.52294 16
141 1 3.31342 -5.87138 -5.8195 16
142 1 0.0352505 -4.06594 1.49503 22
143 1 -5.44684 -3.64755 6.97454 13
144 1 -3.39919 -8.69331 -2.50424 17
145 1 1.99142 -3.45902 -7.36037 17
146 1 4.4615 4.08601 0.0717424 19
147 1 3.4845 -4.7535 3.40939 21
148 1 4.8487 -0.748365 0.229985 21
149 1 -5.24769 -2.90544 -1.99839 19
150 1 -4.49092 -6.33125 -6.21942 18
151 1 1.79308 -2.13503 10.9136 10
152 1 -2.09473 2.73921 10.1363 14
153 1 5.13771 -3.26998 -5.73296 16
154 1 -8.12252 2.90622 -0.387685 23
155 1 3.31258 9.47472 -2.59673 12
156 1 11.2789 2.79227 -4.10604 10
157 1 -0.425085 1.76861 -0.247118 21
158 1 -0.748321 0.558344 -10.3467 14
159 1 -8.60668 4.32765 4.48685 14
160 1 5.7962 -3.66269 6.59913 19
161 1 6.81637 0.851192 2.0583 21
162 1 -6.11715 -1.06237 -8.57455 13
163 1 10.6046 -1.56658 6.35464 11
164 1 -1.4459 -7.14328 -4.91203 22
165 1 7.81228 4.51059 7.41549 12
166 1 1.11593 -8.86426 5.56555 12
167 1 -0.786363 3.71477 2.33161 23
168 1 3.30663 -2.62195 5.87722 21
169 1 4.22343 1.95906 -2.22306 20
170 1 7.32052 2.86948 -0.708589 21
171 1 5.64147 -3.21635 -0.885416 20
172 1 7.34326 6.24712 4.78543 14
173 1 0.794348 -3.77449 -1.45337 22
174 1 4.70862 6.04764 6.59585 17
175 1 -2.74322 5.03044 -3.67128 23
176 1 -1.49301 6.31628 -8.28017 13
177 1 -1.9666 0.0561512 7.43067 20
178 1 -2.56278 -4.2832 -6.31102 22
179 1 -5.73929 -7.189 -0.726753 17
180 1 4.26432 4.70101 4.10763 22
181 1 -3.72469 4.13469 3.74535 19
182 1 -10.8192 4.38773 -0.683087 12
183 1 8.72523 4.77575 -4.14513 11
184 1 3.55679 1.24037 9.92617 14
185 1 -9.23269 -0.190995 -1.59733 21
186 1 1.63709 -1.51535 -10.4714 10
187 1 -1.48307 5.65891 5.10055 22
188 1 0.632549 -4.52454 -5.08062 23
189 1 4.25816 7.99847 3.92662 15
190 1 2.84061 -3.26899 0.857144 20
191 1 -1.48437 8.29904 4.2066 16
192 1 -5.55116 4.17357 -1.96844 22
193 1 5.88272 -5.84982 -3.30714 17
194 1 -0.179569 -1.08077 0.457449 21
195 1 3.25883 -5.86474 5.98826 18
196 1 3.00382 3.91416 -4.75623 22
197 1 -0.574428 -0.943262 -2.53778 21
198 1 -3.62562 4.26243 7.44384 16
199 1 9.80678 2.39399 1.33139 17
200 1 -1.32367 7.54891 -5.56053 17
201 1 0.52214 -1.51236 6.63301 19
202 1 10.1208 -2.25204 -1.65119 13
203 1 -1.33225 -0.633917 11.1448 11
204 1 -2.80388 -5.7093 8.35746 13
205 1 -5.78438 9.67536 -1.30073 11
206 1 8.09541 6.53546 -1.35684 13
207 1 -6.42846 -4.47087 4.04578 15
208 1 10.4827 -2.82084 3.51979 14
209 1 -4.24642 -5.82877 -2.86697 21
210 1 9.50647 3.97645 4.47458 15
211 1 6.94493 -7.90826 -1.49673 11
212 1 1.22325 4.60355 0.497798 21
213 1 1.46167 4.60777 6.56307 23
214 1 -8.04644 -2.67519 -3.53578 23
215 1 -0.0431535 10.1822 -3.51042 12
216 1 1.16235 8.44304 -6.62156 9
217 1 -6.47753 -0.528115 -5.38907 22
218 1 3.92896 -0.888801 -7.41454 17
219 1 -2.26627 -3.72142 -3.26523 23
220 1 2.54363 -1.28588 -1.61473 21
221 1 0.912421 -4.73543 5.47152 22
222 1 7.54791 -5.46951 0.209918 20
223 1 -11.9339 -1.48525 -2.49764 14
224 1 -2.87115 3.52767 -10.0766 11
225 1 -7.6684 -5.38563 -2.44882 18
226 1 9.50901 0.646099 4.19501 16
227 1 -2.42128 -1.91097 2.04861 20
228 1 -0.996126 -2.60912 -8.8538 21
229 1 -7.40656 6.60575 -0.632603 17
230 1 -8.07044 -1.7433 3.06527 18
231 1 -3.41218 -0.900965 -3.98834 23
232 1 10.6025 4.50438 -1.30218 11
233 1 9.42904 5.61427 1.65478 14
234 1 -0.973978 -7.02606 5.83831 18
235 1 6.88467 -0.460676 -5.85135 16
236 1 2.5821 6.07853 -1.91356 24
237 1 3.14014 9.06394 6.80136 10
238 1 0.964416 8.71487 -0.664341 17
239 1 10.2786 -0.823964 1.1168 15
240 1 -7.46699 -2.02711 -0.153254 22
241 1 -6.43265 3.00324 6.31419 17
242 1 5.47757 -1.23005 -3.18174 24
243 1 0.988619 0.788267 -4.57488 21
244 1 1.20275 6.27414 3.40421 19
245 1 -1.56059 1.93955 -3.01373 21
246 1 -3.75353 8.57669 1.48252 16
247 1 -2.03163 -8.2444 3.37021 16
248 1 6.00933 -7.38081 2.05391 16
249 1 -10.023 -4.16195 -0.914835 14
250 1 -9.0449 4.85419 -3.02466 13
251 2 -10.3171 -2.115 2.60237 13
252 2 9.30259 3.87704 2.57825 17
253 2 1.3976 -2.86183 5.51987 22
254 2 -3.34485 0.305384 -7.29334 21
255 2 -11.7112 0.442214 -2.34633 14
256 2 -0.514367 -8.08718 4.41788 16
257 2 -0.01679 0.146181 7.67329 18
258 2 6.78275 -0.611697 0.535162 21
259 2 0.552216 -1.94925 -1.14128 21
260 2 -1.71566 7.59872 5.96265 16
261 2 -0.757336 5.13673 -0.0106623 18
262 2 3.54424 0.390067 -0.814425 19
263 2 3.02863 -7.70609 -4.77694 17
264 2 -1.89515 -0.990319 -10.1618 13
265 2 0.148292 -7.64319 -6.70539 13
266 2 -2.88888 1.07119 -4.19696 23
267 2 -3.32468 -5.08109 0.998385 19
268 2 -5.75045 8.01061 2.93092 13
269 2 10.2995 -1.19462 4.54171 14
270 2 6.35758 -2.59767 3.31343 24
271 2 -1.72932 2.36561 0.975796 23
272 2 6.81815 7.44199 -0.301849 12
273 2 1.14184 9.22744 6.9188 10
274 2 4.71138 8.04882 2.07952 15
275 2 2.29348 7.34833 -5.89345 13
276 2 6.45597 -2.11579 -4.89152 17
277 2 -6.03152 0.178399 -7.29571 15
278 2 0.726461 -7.47137 6.90599 13
279 2 -11.4397 2.9801 0.524582 14
280 2 1.93752 -5.27348 -6.79863 15
281 2 -2.84873 -9.75722 -0.959129 14
282 2 3.72585 -2.17315 -3.27384 21
283 2 0.449373 5.35499 4.9547 20
284 2 4.41017 -2.91467 7.82545 16
285 2 -3.27632 -6.73819 3.65291 18
286 2 2.98053 -2.91588 2.82183 20
287 2 0.116733 -7.39935 -3.6373 19
288 2 -0.545127 0.0261448 -5.77669 19
289 2 1.58202 -4.64947 -3.34077 23
290 2 -6.22567 -5.2618 2.16091 17
291 2 -4.97429 -7.61563 -2.45004 16
292 2 -7.49046 -6.31425 -0.801754 15
293 2 -1.63605 9.13659 -2.6644 17
294 2 3.74917 2.0036 -8.933 14
295 2 9.52561 5.69383 -0.279948 13
296 2 4.11525 3.05014 -6.18861 17
297 2 -2.19585 3.71651 -2.38729 20
298 2 -7.34706 3.96918 -3.48286 18
299 2 7.52313 2.47696 1.26709 22
300 2 -3.42311 6.6083 0.786529 19
301 2 -5.55824 4.50577 2.86345 17
302 2 3.01099 5.76931 3.28387 22
303 2 -0.694319 9.19116 0.243813 16
304 2 0.139508 8.92617 -5.11642 13
305 2 0.655655 6.1667 7.99386 16
306 2 -2.31283 0.835882 5.63061 20
307 2 1.48622 -3.42491 9.59049 12
308 2 3.53844 -2.53293 -6.48518 18
309 2 -0.168926 -11.3346 -2.73364 9
310 2 -1.00741 -5.09782 -5.68955 22
311 2 -6.60743 2.04472 -1.6398 21
312 2 -2.14201 5.01092 3.11948 21
313 2 -9.4804 -4.46346 -2.72645 16
314 2 6.77025 -3.84111 0.668891 23
315 2 3.58228 4.35395 6.17974 20
316 2 -1.84681 -2.48875 -7.05736 24
317 2 2.51254 0.344741 -6.06961 23
318 2 2.83801 2.50337 -3.35023 19
319 2 -3.76449 -4.97552 -7.74079 18
320 2 1.05007 -2.67374 -5.86722 23
321 2 8.11001 0.688784 -5.22426 15
322 2 -4.87502 -4.40986 5.19229 19
323 2 0.875222 -2.63157 -9.01874 16
324 2 -1.66874 -1.97448 -3.76858 26
325 2 4.43546 5.09723 -4.59629 16
326 2 -2.97888 -7.85661 -6.34726 17
327 2 1.03593 0.251464 -10.6643 11
328 2 -0.47447 7.07912 2.77314 20
329 2 -4.55535 -7.70351 0.807323 15
330 2 -7.62626 2.74931 4.80037 17
331 2 -7.37381 5.66901 5.11071 13
332 2 -6.46227 -2.14852 6.54601 11
333 2 1.85761 1.94811 10.2133 14
334 2 -10.8738 -1.84712 -4.21882 14
335 2 2.32558 -8.82165 4.15019 11
336 2 7.82939 1.44252 -1.8704 18
337 2 0.940398 1.98327 -8.0131 18
338 2 5.8599 3.3697 3.6821 21
339 2 3.00353 9.13061 4.86934 14
340 2 -1.17267 1.1475 10.9322 13
341 2 -9.72172 4.43213 2.99876 14
342 2 2.52644 1.18665 7.03272 17
343 2 -6.45618 -3.85056 -3.37971 20
344 2 1.15046 -0.721176 -3.31909 18
345 2 5.64981 3.55795 -1.47216 19
346 2 -9.65224 -4.86747 0.72354 14
347 2 -5.8942 6.40166 -5.08124 14
348 2 2.23181 -0.583617 -8.74315 16
349 2 -9.55985 1.34177 -0.340521 22
350 2 7.30666 -4.79726 5.95546 15
351 2 0.679681 7.02566 -1.75355 19
352 2 3.06398 -10.2133 -2.8201 11
353 2 0.828596 -9.93818 -0.445278 13
354 2 -6.79306 8.92432 0.0701421 12
355 2 -0.58964 -5.41424 2.58035 23
356 2 1.51058 -7.62032 1.56568 20
357 2 3.58905 7.31369 7.64336 14
358 2 -3.26085 8.03293 -5.37737 14
359 2 -3.75639 -4.19814 7.86559 15
360 2 -4.5 -2.5431 2.17495 21
361 2 -0.117967 2.42365 4.0377 20
362 2 -1.49525 -1.79512 6.81327 17
363 2 1.18795 4.21679 -6.88898 16
364 2 3.83594 -0.93648 4.92285 22
365 2 9.36054 -2.04692 -3.5024 15
366 2 3.41582 -0.895686 10.5166 11
367 2 -7.55966 -1.26542 -2.2021 20
368 2 7.54591 5.74228 -2.96483 14
369 2 5.30413 6.58589 4.66324 18
370 2 6.83309 -2.03854 -2.01615 21
371 2 -6.16603 -3.66194 -0.335222 22
372 2 2.8818 4.75273 9.60262 15
373 2 -4.76986 3.96421 -3.76394 19
374 2 -5.90751 1.003 -4.13532 19
375 2 7.93438 2.69234 7.77212 13
376 2 3.06485 2.01197 4.31942 21
377 2 5.42951 0.152384 -7.14378 16
378 2 6.55373 -1.74746 6.06614 18
379 2 0.440001 -0.861681 11.4964 10
380 2 9.75443 -4.35121 4.4326 13
381 2 -0.104152 -2.2345 2.13281 19
382 2 -4.13097 2.26071 3.51879 22
383 2 -8.92889 -3.77765 -5.3801 14
384 2 -8.44571 6.57637 -2.39124 12
385 2 -5.15734 3.01027 -6.16376 17
386 2 -7.20276 -1.07128 1.38628 21
387 2 -2.36421 -2.98907 4.34789 22
388 2 2.12055 8.66864 1.08409 18
389 2 -6.08809 -4.96887 -6.5539 14
390 2 10.4319 2.92489 -0.479643 14
391 2 -9.01917 4.49995 0.0135344 16
392 2 9.11586 -5.57097 1.52371 15
393 2 -2.86024 -6.61275 6.77395 14
394 2 -4.67049 -1.78657 -5.34497 25
395 2 1.83381 5.14031 -3.64299 18
396 2 -7.95598 6.80038 1.6058 13
397 2 0.969401 4.37179 2.35216 23
398 2 -0.895154 -5.22706 8.62827 16
399 2 -9.63635 1.03137 2.91098 17
400 2 -5.76772 5.73079 -0.663121 20
401 2 -0.554341 3.91417 10.0537 12
402 2 -8.2227 -1.10944 -5.59092 17
403 2 4.25767 9.3133 -0.762372 11
404 2 -2.371 5.77433 8.11651 14
405 2 0.0751987 3.31234 7.03296 22
406 2 1.18037 2.81779 -0.668215 21
407 2 -1.55852 0.432189 -1.5549 21
408 2 -2.2239 -3.79243 -9.90106 12
409 2 -0.0971714 6.97584 -7.08686 14
410 2 -2.53321 -6.816 -2.9743 18
411 2 -1.70732 3.22931 -6.31393 23
412 2 6.0846 -0.46939 8.49326 13
413 2 5.70579 1.54722 6.30208 21
414 2 9.83605 -0.627384 -0.731788 16
415 2 2.16993 -5.14909 7.26814 17
416 2 5.15689 0.837813 -3.61855 22
417 2 5.99121 4.90171 7.68695 15
418 2 -4.56026 0.336879 0.93123 20
419 2 0.0497485 2.465 -3.9986 21
420 2 -7.21146 2.01831 1.24306 19
421 2 -7.53896 -6.40725 -4.18087 16
422 2 -1.01479 -4.19891 -1.73656 21
423 2 -2.79987 6.64102 -2.2468 21
424 2 -5.35266 1.36625 6.63069 16
425 2 -4.96605 -0.81098 4.62177 20
426 2 -0.443507 -6.76697 -0.293093 22
427 2 4.86147 2.33287 9.12515 16
428 2 -0.950753 5.80388 -4.2211 21
429 2 -1.49543 4.41684 -9.00907 11
430 2 3.9546 7.43528 -2.76801 16
431 2 0.705935 -10.272 -4.61453 13
432 2 9.41212 -0.323554 7.16378 13
433 2 9.4808 2.06753 5.21261 15
434 2 -3.07267 6.10251 -7.24 15
435 2 -4.30341 -1.4917 -9.20965 15
436 2 -1.08031 -6.41592 -8.68655 12
437 2 -4.64055 -0.982016 -2.05844 22
438 2 -3.21169 8.60158 3.27116 15
439 2 -5.38602 8.30863 -2.49869 13
440 2 -9.14959 0.848884 -3.51568 18
441 2 -4.89475 7.6702 6.28908 11
442 2 0.974327 0.724539 1.12261 22
443 2 6.93087 3.5806 -4.12125 19
444 2 7.74182 -4.94889 -3.55965 15
445 2 -2.07564 -1.88164 0.105001 22
446 2 -10.24 3.68325 -2.42866 13
447 2 -2.07664 1.8272 -9.95049 14
448 2 3.95124 -2.45089 -0.495316 20
449 2 4.48604 -4.26419 5.23371 21
450 2 -7.82406 -0.385165 4.5488 16
451 2 -3.76043 -4.7468 -4.6992 21
452 2 -8.16954 -3.91045 3.37813 11
453 2 3.7626 2.63866 1.13273 22
454 2 4.23897 -5.07233 1.53741 22
455 2 -11.7219 -0.304348 1.22039 14
456 2 -3.44766 2.65593 8.68184 16
457 2 1.98902 -5.90955 4.45798 23
458 2 10.1119 0.758953 2.25441 17
459 2 2.62967 -7.3384 -1.16509 21
460 2 -3.99525 9.7258 -0.344716 13
461 2 -6.63331 -2.69094 -7.68763 14
462 2 -3.63232 -0.448239 8.48647 17
463 2 4.69328 -7.27178 5.4131 15
464 2 10.3836 4.28825 -3.14704 11
465 2 6.67738 2.80335 -7.16112 13
466 2 8.09314 6.6498 2.99095 12
467 2 -4.58421 3.40704 -9.10244e-04 18
468 2 9.21177 -2.91007 6.87853 11
469 2 4.666 -4.87169 -4.54388 17
470 2 -3.69165 -3.90143 -1.86962 19
471 2 -1.81792 3.09209e-04 2.86312 25
472 2 10.0762 -4.10328 -1.10977 14
473 2 5.79842 -7.15502 0.0244741 15
474 2 4.76379 0.0663925 2.13028 20
475 2 8.08382 -6.44344 -1.36138 12
476 2 -2.71003 4.29759 5.67677 19
477 2 9.69989 3.09303 -5.23561 10
478 2 -11.6455 -2.76754 -1.18765 11
479 2 7.38566 0.400216 3.85687 21
480 2 -9.42545 -1.76678 -0.390767 21
481 2 4.70818 -8.66002 2.76155 11
482 2 1.54366 9.83132 -2.39876 13
483 2 9.4841 -2.83792 1.77614 18
484 2 2.97817 5.38521 -0.219299 20
485 2 -0.995039 -5.04222 5.37658 23
486 2 1.49815 -4.37032 0.402087 25
487 2 6.91229 -5.97446 3.25032 17
488 2 5.51961 -7.82116 -2.89768 14
489 2 -5.50286 -7.8954 -5.5206 12
490 2 5.7787 5.19711 0.980264 20
491 2 -0.174082 10.0086 3.74051 12
492 2 -1.83276 -8.53192 1.56407 16
493 2 -1.68895 -2.22863 9.93995 15
494 2 -5.53887 4.67226 6.95797 13
495 2 8.16716 4.99666 5.78462 13
496 2 10.8549 0.92606 -3.51329 13
497 2 0.692772 -0.537122 4.69831 21
498 2 -4.27444 3.22474 -8.89348 11
499 2 -2.92354 -9.79961 -4.16217 13
500 2 4.83304 -4.76856 -1.59808 22
