ITEM: TIMESTEP
985000
ITEM: NUMBER OF ATOMS
500
ITEM: BOX BOUNDS pp pp pp
-30.0 30.0
-30.0 30.0
-30.0 30.0
ITEM: ATOMS id type x y z Coordination
1 1 -4.52472 2.21705 -4.50659 20
2 1 7.09817 -4.08436 5.02559 13
3 1 0.889105 3.51036 8.7496 17
4 1 7.33316 -0.188833 2.0665 19
5 1 -8.59079 2.92875 1.94028 21
6 1 -3.06318 -1.42737 -6.5163 20
7 1 4.51303 -1.14305 7.58239 21
8 1 2.59347 -2.71236 -5.24382 20
9 1 -9.47594 -0.655782 -4.45568 13
10 1 1.3397 -0.104768 -7.23119 19
11 1 1.48691 -10.0411 -4.15314 16
12 1 7.69954 2.00392 4.27557 22
13 1 1.62153 5.80673 -6.98902 15
14 1 2.83701 -0.0617781 4.57975 21
15 1 4.04333 4.41246 7.56685 17
16 1 -9.27803 -3.97082 2.32435 12
17 1 -11.3453 1.52053 3.12927 10
18 1 8.18786 -1.9195 -1.86426 19
19 1 5.56668 1.49764 8.04084 17
20 1 -7.78755 -6.24228 0.688887 14
21 1 -1.5987 -7.43486 -7.24214 14
22 1 3.5386 0.115519 -4.44642 19
23 1 6.78073 -1.08289 -5.36549 17
24 1 5.45367 -5.12146 2.36315 19
25 1 -5.3512 8.31255 4.16765 12
26 1 5.90843 -0.875737 4.79103 22
27 1 1.6091 6.17901 1.62618 20
28 1 -1.80799 0.916366 -5.93375 20
29 1 0.481063 -5.8551 -9.09073 13
30 1 -1.54121 5.9156 8.98664 13
31 1 7.94552 -3.45522 1.62371 13
32 1 -7.96372 6.3244 3.32792 15
33 1 -4.92143 5.13172 1.3185 22
34 1 4.31583 6.76174 -4.18744 15
35 1 6.15005 7.1242 -1.8931 14
36 1 -3.68186 6.40807 -5.63795 15
37 1 3.51406 -4.63257 -3.08024 20
38 1 -3.25306 3.7069 -6.91014 18
39 1 0.0457903 3.64715 -1.91381 26
40 1 -3.49499 9.42147 -4.08529 14
41 1 1.38961 6.28765 -4.11858 19
42 1 -11.7254 1.90847 -0.00643695 13
43 1 1.61246 6.76531 7.68365 15
44 1 -3.24395 0.366286 -9.31804 14
45 1 -4.29044 -7.15725 5.31774 13
46 1 -2.91251 1.46288 2.23697 22
47 1 -3.92303 0.85542 5.34398 24
48 1 -5.95272 -0.150993 -2.10642 21
49 1 4.55005 -9.21697 -2.31123 12
50 1 -5.77083 1.62213 0.615996 20
51 1 -8.12195 -2.44302 -6.08464 15
52 1 -2.53237 -6.79944 1.46039 20
53 1 4.79838 4.7146 -6.75716 11
54 1 -3.57891 -2.33438 5.10475 22
55 1 -6.13444 -3.92169 -8.05276 13
56 1 5.83721 2.81725 -9.29106 10
57 1 -1.838 6.32089 2.25725 23
58 1 -0.77675 2.34853 5.97402 23
59 1 -5.73213 2.5086 3.41897 21
60 1 -1.40887 -6.69757 -1.76344 20
61 1 -1.40344 9.60707 -1.27964 15
62 1 -10.9489 4.68065 2.1321 13
63 1 3.21431 8.79786 2.78131 16
64 1 5.53514 -1.53555 10.3594 13
65 1 1.87235 -9.86332 -1.1032 14
66 1 9.65252 -0.050298 -5.59361 11
67 1 -4.59576 -3.76002 1.61587 19
68 1 -2.15093 -4.83828 3.65996 19
69 1 5.44779 -4.06818 8.24223 17
70 1 4.17189 -7.03456 8.43689 10
71 1 4.85778 8.96116 0.401567 13
72 1 -5.38982 -7.26339 2.17905 17
73 1 -3.40753 -9.15728 -0.156895 17
74 1 -2.02878 -3.47475 -0.349793 23
75 1 1.32709 -2.29873 3.33655 18
76 1 -5.23462 -3.70233 -4.82584 21
77 1 2.88674 3.41068 -3.12464 21
78 1 1.38281 -7.16906 -2.55498 22
79 1 -3.21504 -2.69862 8.67032 15
80 1 -8.13586 0.422027 4.24462 17
81 1 1.905 -7.71138 0.949308 19
82 1 -1.19556 -3.77507 6.97409 19
83 1 0.635029 0.359716 9.21316 15
84 1 -10.0702 -0.611641 1.37404 12
85 1 -6.69565 7.97032 0.945214 16
86 1 -5.8597 5.31627 5.1341 17
87 1 1.89636 2.85676 3.5363 21
88 1 -0.683708 8.55122 7.10484 13
89 1 -7.72236 -5.39644 -5.44974 15
90 1 4.15607 -1.84586 2.13378 22
91 1 -8.12801 2.55384 -1.34552 21
92 1 -3.02528 -5.14062 -9.36262 12
93 1 7.41881 -1.53868 7.51684 15
94 1 -2.8042 3.93892 0.425593 24
95 1 -0.518185 -3.84298 9.81515 13
96 1 -3.75329 -2.48485 -10.2614 12
97 1 -10.2636 -3.8393 -3.73079 12
98 1 -0.977869 -9.93696 -2.38439 18
99 1 -3.23743 -0.612099 -0.23013 23
100 1 4.77666 1.61296 2.19689 24
101 1 -3.83297 7.55731 7.00359 11
102 1 2.39847 1.67334 6.96561 23
103 1 -3.47941 7.12058 -0.482007 20
104 1 1.69188 -8.20011 -7.14482 11
105 1 -0.0616687 8.78534 1.78819 16
106 1 6.01998 1.51697 -3.16478 17
107 1 -7.55537 2.05649 -4.6875 18
108 1 -10.5304 2.01736 -3.21612 12
109 1 -3.82847 -9.1839 -6.13255 11
110 1 2.07329 -9.50267 3.13588 13
111 1 -6.33366 4.82919 -5.8394 12
112 1 -4.33848 0.670126 8.69818 13
113 1 1.74547 1.00911 -1.34924 21
114 1 -6.05125 -1.08802 6.41709 16
115 1 -0.325588 -1.70797 -5.3871 21
116 1 2.15608 -4.10687 7.84614 19
117 1 0.453525 -6.63093 8.38541 17
118 1 -1.71094 -10.9073 -5.25554 10
119 1 8.05646 1.03496 -0.873953 23
120 1 -8.2709 5.68719 0.612312 20
121 1 7.01468 2.33885 -6.15868 15
122 1 -0.479536 6.30997 -0.787746 20
123 1 5.64717 -6.64676 5.48006 11
124 1 -6.00809 -7.78803 -4.3219 12
125 1 -0.773284 0.218576 4.12512 24
126 1 8.59606 1.78166 7.32248 13
127 1 10.8131 3.13886 -0.590116 15
128 1 2.84046 2.7255 -8.6148 12
129 1 -0.767641 2.28418 -8.05634 19
130 1 1.81806 10.0992 -0.134848 12
131 1 4.86695 0.185107 -10.0571 9
132 1 0.318464 -7.34289 3.19162 22
133 1 5.16416 2.64012 -0.657963 23
134 1 5.52484 -6.59687 -0.85349 16
135 1 -0.698434 -9.9495 1.03708 14
136 1 -5.59204 2.44846 -7.6765 13
137 1 4.44987 2.71363 4.87463 22
138 1 9.94273 -0.893413 0.584566 14
139 1 -1.01493 4.32344 -5.28654 23
140 1 -6.00412 7.48629 -3.82828 14
141 1 3.29907 -6.89927 -4.8004 16
142 1 0.124775 -4.95701 1.4283 20
143 1 -5.30256 -4.47715 6.75946 13
144 1 -4.18078 -10.3246 -3.11407 11
145 1 2.61551 -4.67632 -7.40417 18
146 1 5.01945 5.5691 0.687491 18
147 1 2.8644 -5.86141 3.44092 22
148 1 2.3164 -1.61849 -1.89817 19
149 1 -5.04991 -2.84152 -1.43184 19
150 1 -4.26747 -5.74773 -6.24963 17
151 1 2.09524 -2.10569 10.8858 11
152 1 -1.74551 2.55361 9.63753 14
153 1 5.35486 -3.92181 -5.94356 15
154 1 -6.13745 6.15326 -1.62839 22
155 1 3.53287 9.53913 -2.80906 13
156 1 8.91744 2.46206 -3.37628 16
157 1 2.4729 0.528313 1.23349 22
158 1 -0.751118 -0.500126 -10.1085 12
159 1 -8.82153 3.47185 4.9487 15
160 1 3.21052 -4.5199 10.8016 11
161 1 9.25672 2.45462 1.93937 24
162 1 -6.24174 -0.730573 -8.80833 12
163 1 8.85142 -0.955624 5.03597 15
164 1 -0.324279 -7.88104 -4.8544 20
165 1 6.98855 4.36267 7.08629 13
166 1 0.24727 -9.37278 5.7773 11
167 1 -0.645649 3.61471 2.62371 22
168 1 3.8982 -3.27863 5.15919 23
169 1 5.10788 -0.260506 -0.470846 22
170 1 6.554 4.20334 2.46845 20
171 1 5.73664 -3.59613 -0.416785 21
172 1 8.03826 6.93701 5.08861 12
173 1 0.555134 -4.20939 -1.61853 21
174 1 5.28386 7.33939 6.69663 12
175 1 -2.90157 4.8494 -2.76613 20
176 1 -1.80339 5.83983 -8.54348 13
177 1 -1.91722 -0.618144 7.29843 21
178 1 -1.78111 -4.63497 -6.49041 21
179 1 -5.96678 -8.53288 -1.15746 13
180 1 3.88322 5.83468 3.9278 23
181 1 -3.4062 4.07283 4.30346 21
182 1 -10.1217 4.57517 -0.879579 15
183 1 6.25944 4.32553 -3.63 16
184 1 3.46477 1.09454 10.1793 13
185 1 -7.1823 -1.89592 0.747897 15
186 1 2.46165 -2.55615 -9.1708 13
187 1 -1.21241 5.37 5.68154 23
188 1 0.752464 -4.90013 -4.5235 21
189 1 5.51606 9.52285 4.31927 10
190 1 3.09599 -4.61967 0.155713 18
191 1 -2.35066 8.74246 4.36932 15
192 1 -5.28715 3.3191 -1.58244 19
193 1 8.3668 -3.28192 -4.63694 11
194 1 0.861987 -1.98535 0.514464 22
195 1 2.55213 -7.91977 5.86018 17
196 1 2.06743 3.13192 -6.0053 18
197 1 -0.872235 -1.15733 -2.19403 22
198 1 -3.51272 3.94684 7.52221 18
199 1 12.3257 3.27587 2.83935 12
200 1 -1.13545 8.0243 -6.30009 16
201 1 1.2378 -1.3695 6.25686 20
202 1 10.6801 0.562321 -2.35415 13
203 1 -2.10887 -0.793245 10.7224 10
204 1 -2.96008 -5.97381 8.53558 12
205 1 -5.66245 9.59996 -1.39933 11
206 1 6.39217 7.43159 2.69055 16
207 1 -7.15785 -5.83315 4.21302 11
208 1 11.862 -0.339522 3.1227 11
209 1 -4.4603 -5.7425 -0.691958 19
210 1 9.41347 4.19355 4.9059 15
211 1 6.25366 -6.7797 -4.15641 11
212 1 2.23362 3.67798 0.267916 21
213 1 1.81369 4.57424 5.88434 21
214 1 -7.69107 -2.49975 -2.87933 20
215 1 -1.18469 7.25628 -3.23837 20
216 1 1.86902 9.00736 -5.69996 10
217 1 -6.11978 -0.479865 -5.485 19
218 1 4.45073 -1.31114 -7.2666 16
219 1 -2.34413 -4.173 -3.52815 23
220 1 -0.863274 1.20491 0.311003 24
221 1 0.931007 -4.88354 5.37382 21
222 1 8.32529 -5.20215 -1.7299 10
223 1 -10.9552 -1.05906 -1.46965 14
224 1 -2.50228 2.94234 -10.1917 10
225 1 -7.11955 -5.48413 -2.43641 19
226 1 10.5443 1.13268 5.10736 14
227 1 -1.67856 -1.97223 2.2485 21
228 1 -0.535264 -2.87791 -8.53426 16
229 1 -8.74362 7.95698 -1.71609 11
230 1 -6.70485 -2.74576 3.8851 18
231 1 -3.40541 -1.21656 -3.61394 22
232 1 8.01718 4.44272 -0.68263 18
233 1 9.58917 5.51761 2.30703 14
234 1 -1.16785 -7.04407 5.84043 18
235 1 7.83222 -0.0250541 -8.31055 11
236 1 2.68583 6.5395 -1.48947 21
237 1 2.58528 9.30413 6.14244 10
238 1 0.170728 10.0344 -3.36583 13
239 1 12.6854 1.00554 0.427147 9
240 1 -4.80014 -0.860074 2.63427 22
241 1 -6.46529 2.28234 6.7834 14
242 1 5.42503 -2.06427 -3.12726 21
243 1 0.546536 1.27971 -4.13024 23
244 1 0.875878 7.30311 4.46455 22
245 1 -2.29562 1.73285 -2.80746 22
246 1 -3.5304 9.59106 1.50164 15
247 1 -2.52179 -8.92129 3.49326 15
248 1 4.96498 -8.25526 1.2486 12
249 1 -10.1222 -4.32247 -0.848446 11
250 1 -8.27037 4.8358 -2.94919 17
251 2 -9.86319 0.460958 3.3338 11
252 2 10.7753 4.35171 3.47723 13
253 2 3.65942 -3.05627 7.22778 21
254 2 -2.95266 0.37755 -7.38974 23
255 2 -11.3253 0.88288 -1.86144 12
256 2 -1.02904 -8.61602 4.58575 18
257 2 0.0850675 -0.554006 7.55543 19
258 2 8.45075 1.12356 1.03251 23
259 2 -0.485748 -2.49456 -0.854194 19
260 2 -2.30063 8.27689 6.05437 14
261 2 -0.269979 6.80539 1.09595 21
262 2 3.18581 -0.0712003 -0.637251 22
263 2 4.77174 -7.91014 -3.74801 15
264 2 -1.98558 -1.95754 -9.8009 13
265 2 0.106098 -7.63108 -8.3167 13
266 2 -3.17338 0.759185 -4.47496 22
267 2 -4.28902 -5.71387 1.37516 20
268 2 -6.66187 7.68041 2.91195 14
269 2 10.535 -0.618691 4.49247 12
270 2 4.61107 -3.58082 1.34522 21
271 2 -1.71199 2.62503 1.30082 20
272 2 5.36035 7.20101 -0.25358 14
273 2 0.95881 8.40876 6.20019 14
274 2 5.3824 9.15748 2.32936 14
275 2 2.63542 7.09585 -5.46665 16
276 2 6.57919 -0.967852 -7.31856 15
277 2 -6.36898 0.690867 -7.30741 15
278 2 0.263745 -8.00045 7.1787 12
279 2 -11.3514 3.7342 0.536122 14
280 2 2.48123 -6.41862 -6.76778 15
281 2 -2.8167 -10.1412 -1.71622 15
282 2 3.38646 -2.41024 -3.46405 20
283 2 0.492192 5.8821 5.63548 22
284 2 3.93675 -2.72885 10.8237 13
285 2 -3.79798 -7.70624 3.48158 16
286 2 2.39516 -4.29236 4.34525 23
287 2 -0.263879 -7.97928 -2.76026 19
288 2 0.0696992 0.189095 -5.56377 23
289 2 2.13042 -5.69566 -3.64027 20
290 2 -7.01635 -6.4726 2.51598 14
291 2 -5.52249 -9.01359 -2.94865 13
292 2 -6.49566 -6.32528 -0.844826 17
293 2 -1.76318 9.73877 -3.27663 11
294 2 4.06354 1.94703 -9.92147 8
295 2 9.58947 4.2732 0.573996 14
296 2 2.30402 1.84346 -4.38493 19
297 2 -1.3273 4.54455 -1.23788 21
298 2 -7.43674 3.87031 -4.74239 16
299 2 8.39986 3.56838 3.14587 19
300 2 -1.71876 9.74936 0.867871 14
301 2 -5.17766 4.49156 3.47479 20
302 2 2.66235 6.99713 3.16415 21
303 2 0.662734 9.95777 -1.52323 16
304 2 0.0197922 7.97578 -4.806 18
305 2 -0.304692 7.11665 8.42227 13
306 2 -2.00036 0.839969 6.02797 22
307 2 1.52484 -3.73287 9.95021 13
308 2 3.85516 -3.24166 -6.90868 15
309 2 -0.273904 -10.6776 -4.1382 12
310 2 -0.610444 -5.98294 -5.61854 22
311 2 -6.26018 1.51508 -1.21277 16
312 2 -3.18386 5.75679 1.00753 21
313 2 -8.72238 -4.25735 -2.1776 16
314 2 8.59989 -3.61257 -2.78587 11
315 2 3.17601 4.12269 4.67576 20
316 2 -1.74194 -2.6798 -6.85051 21
317 2 2.7531 -0.827548 -6.09346 16
318 2 4.65886 2.84673 -2.79302 19
319 2 -3.01829 -6.04112 -7.65767 16
320 2 0.839982 -3.26001 -5.36309 22
321 2 8.27598 0.976502 -6.7739 12
322 2 -5.60131 -5.89095 5.54432 12
323 2 1.64544 -4.27704 -9.01862 11
324 2 -1.59099 -2.03951 -3.89156 24
325 2 2.99332 5.55329 -3.24313 18
326 2 -1.78871 -9.12917 -6.05644 16
327 2 0.527006 -1.32307 -8.67382 16
328 2 -1.57692 4.86423 3.77313 19
329 2 -5.25289 -8.50929 0.70791 15
330 2 -7.65552 2.06077 5.17706 17
331 2 -7.88698 5.14167 4.86048 13
332 2 -5.33055 -2.81678 6.03747 17
333 2 2.0131 1.93884 9.03877 16
334 2 -10.0796 -1.65916 -3.14936 14
335 2 1.96421 -9.58975 5.04523 10
336 2 6.23854 1.02326 -1.15966 21
337 2 1.23816 2.01004 -7.72721 18
338 2 5.90662 2.641 3.62039 20
339 2 3.66096 9.43744 4.62027 13
340 2 -1.10025 0.719885 10.1189 13
341 2 -9.43109 5.88487 2.19463 14
342 2 2.86488 -0.15172 6.56908 22
343 2 -6.05907 -3.76542 -2.86729 20
344 2 0.80384 -0.169534 -2.52619 21
345 2 6.44716 3.97636 0.343663 20
346 2 -9.19345 -4.97737 0.657188 11
347 2 -5.60216 6.31902 -5.20297 16
348 2 3.90142 -1.12524 -9.12291 11
349 2 -7.06759 4.14728 -1.79963 19
350 2 4.54936 -5.42945 9.3898 11
351 2 0.840378 6.57155 -2.23703 22
352 2 2.88366 -10.1648 -2.80766 13
353 2 0.116565 -10.224 -0.824127 15
354 2 -7.23812 8.7537 -0.904656 11
355 2 -1.00252 -6.08561 2.59537 20
356 2 0.599966 -8.78239 1.92668 19
357 2 3.35574 7.78284 7.16854 15
358 2 -2.87266 8.10254 -5.52412 13
359 2 -4.20664 -4.3924 8.39535 13
360 2 -3.32547 -3.25703 3.27705 17
361 2 -0.00599553 2.08889 3.75705 23
362 2 0.726875 -3.30267 6.73763 19
363 2 3.02031 4.29279 -7.35422 13
364 2 2.20567 -1.2645 1.92145 21
365 2 8.60619 -1.39292 -4.89632 14
366 2 4.78195 0.14885 9.33424 16
367 2 -6.77973 -1.61406 -1.0372 15
368 2 7.01928 5.39688 -2.34551 14
369 2 6.25935 7.92077 5.00229 13
370 2 6.23793 -1.8456 -1.26409 23
371 2 -5.88959 -2.35772 2.09505 17
372 2 2.20333 4.79526 8.03226 14
373 2 -3.6959 2.99341 -2.79121 19
374 2 -6.09693 1.00018 -4.14845 19
375 2 8.80863 0.0107641 6.83302 13
376 2 3.38341 1.61755 3.66783 21
377 2 6.30983 0.99374 -9.07887 11
378 2 4.1307 -1.67736 4.16541 21
379 2 2.13538 -0.307784 10.4647 12
380 2 6.94551 -4.0151 3.16462 17
381 2 -0.238243 -3.094 2.20564 20
382 2 -3.99228 2.11616 3.77146 27
383 2 -9.02116 -3.904 -5.26916 14
384 2 -7.56326 6.78162 -2.84665 17
385 2 -4.90536 3.4847 -6.1336 16
386 2 -8.99239 -2.27283 1.61186 15
387 2 -2.35918 -2.37541 6.53463 21
388 2 1.7791 9.28307 1.62313 14
389 2 -6.09724 -4.78223 -6.23853 16
390 2 12.0758 2.70372 1.01433 12
391 2 -9.63327 6.4026 -0.818174 15
392 2 8.53906 -1.72718 1.39146 17
393 2 -3.11142 -6.8041 6.7616 15
394 2 -4.52051 -1.91797 -5.22444 24
395 2 0.923328 4.69233 -5.40975 20
396 2 -6.36023 6.07443 0.414173 20
397 2 1.24871 3.94127 2.00555 20
398 2 -1.05268 -5.35877 8.62908 17
399 2 -9.94258 3.34032 3.30919 15
400 2 -4.42442 5.48821 -1.75615 20
401 2 -0.839727 4.19237 9.12887 15
402 2 -7.68426 -1.35019 -4.61523 18
403 2 3.55241 9.74303 -0.74112 12
404 2 -3.3731 6.0812 8.03903 13
405 2 0.976538 2.81963 6.31862 23
406 2 1.84456 2.91654 -1.52308 21
407 2 -1.8706 0.491594 -1.45377 21
408 2 -4.53606 -3.92545 -9.14701 14
409 2 -0.186092 6.58698 -7.68095 13
410 2 -0.669913 -4.95529 -3.08551 20
411 2 -1.67909 2.79111 -6.48145 22
412 2 6.21637 -2.3501 8.76934 12
413 2 5.92234 -0.105467 6.6916 21
414 2 11.7946 1.35092 -1.17531 11
415 2 2.3858 -6.02066 7.87048 16
416 2 5.36656 -0.220017 -4.08455 19
417 2 5.42743 5.53574 7.20327 14
418 2 -4.32249 0.3457 1.00015 22
419 2 -0.662162 2.89269 -3.59895 20
420 2 -6.95833 2.14284 2.056 17
421 2 -7.12497 -6.43731 -4.10654 13
422 2 -0.833564 -5.47068 -0.36397 22
423 2 -1.99476 7.69739 -1.40563 22
424 2 -5.36527 0.717467 6.88242 18
425 2 -4.48109 -0.734589 4.49189 21
426 2 -3.20097 -7.25107 -0.683656 17
427 2 4.27442 2.62904 7.26772 20
428 2 -2.0662 5.69349 -4.23659 22
429 2 -1.30457 3.95272 -9.0494 11
430 2 4.80764 8.07518 -2.83725 12
431 2 1.43786 -8.6073 -5.31305 17
432 2 9.28273 2.38209 5.63269 16
433 2 7.16764 2.62999 7.91057 12
434 2 -3.09844 5.55795 -7.07044 14
435 2 -4.78555 -0.925082 -10.0069 12
436 2 -1.04556 -4.85489 -8.66074 15
437 2 -4.27448 -1.04243 -1.92843 20
438 2 -3.84258 8.93115 3.214 12
439 2 -4.93509 8.90959 -3.04739 14
440 2 -9.3387 1.18575 -4.32115 12
441 2 -4.94871 6.94962 5.57444 14
442 2 1.04479 1.39223 0.603666 19
443 2 5.45971 5.26305 -5.14236 14
444 2 6.31809 -2.96811 -4.75389 17
445 2 -3.20158 -2.48506 0.702006 20
446 2 -9.84297 3.61569 -2.47025 14
447 2 -1.66909 1.10933 -10.0094 12
448 2 1.96902 -3.35289 -0.816979 21
449 2 5.90964 -4.89654 6.31994 14
450 2 -7.29838 -1.13441 4.81836 14
451 2 -3.49142 -4.57585 -4.83776 16
452 2 -7.8736 -4.1535 3.84634 14
453 2 3.92014 2.65302 0.683528 20
454 2 4.75712 -6.26687 3.7008 16
455 2 -11.2614 0.804002 1.29259 12
456 2 -3.58488 2.44213 8.7105 15
457 2 1.48516 -7.04618 4.56881 21
458 2 11.8113 1.44652 3.61216 11
459 2 2.00579 -7.92031 -0.890268 22
460 2 -4.67437 8.69489 0.288711 17
461 2 -7.10685 -2.32347 -7.85241 13
462 2 -3.42761 -0.912762 8.89841 15
463 2 4.32787 -7.37112 6.4519 11
464 2 8.83438 2.8176 -1.44946 18
465 2 6.08694 3.30667 -7.54567 11
466 2 8.403 6.73761 3.19191 12
467 2 -4.56073 3.17532 0.333094 21
468 2 7.60972 -2.24285 5.74392 15
469 2 4.61992 -5.35766 -5.13859 16
470 2 -3.65271 -4.03841 -1.694 21
471 2 -1.69063 -0.163273 2.27628 22
472 2 9.20836 -0.369826 -1.41101 17
473 2 5.36746 -6.44096 1.10668 16
474 2 5.29128 -0.16682 1.58578 22
475 2 7.1628 -6.29571 -2.66595 12
476 2 -2.23668 3.79108 6.18835 18
477 2 7.24745 2.69872 -4.20562 16
478 2 -11.0425 -2.60688 -0.466227 11
479 2 7.23105 0.0879228 4.01201 21
480 2 -8.62483 3.68972 0.223834 19
481 2 3.30042 -8.85083 1.75748 14
482 2 2.06221 9.82574 -3.92647 13
483 2 11.5218 -0.32943 1.13879 13
484 2 2.58474 5.50472 0.259408 18
485 2 -1.06137 -5.02695 5.31641 20
486 2 2.01571 -5.88605 1.61964 22
487 2 7.72366 -4.18467 -0.1533 14
488 2 5.17235 -8.75541 -0.56352 11
489 2 -4.74244 -7.62922 -5.699 13
490 2 5.30389 5.89926 2.61181 20
491 2 -0.794805 8.00384 3.60133 17
492 2 -2.37344 -8.8933 1.43123 16
493 2 -1.80644 -2.47503 10.2199 14
494 2 -5.3317 3.70404 6.0672 16
495 2 7.78686 5.15383 5.65077 18
496 2 10.2563 1.0536 -4.11414 10
497 2 0.802735 -0.835615 4.31527 21
498 2 -4.08341 2.85522 -8.95339 14
499 2 -3.82631 -10.4435 -4.83373 10
500 2 4.27695 -4.94185 -1.38122 22
