ITEM: TIMESTEP
4093000
ITEM: NUMBER OF ATOMS
500
ITEM: BOX BOUNDS pp pp pp
-30.0 30.0
-30.0 30.0
-30.0 30.0
ITEM: ATOMS id type x y z Coordination
1 1 -4.83179 2.14713 -5.55542 22
2 1 6.01647 -0.347356 3.87014 22
3 1 1.4729 3.09725 9.54197 14
4 1 6.75979 -2.19243 0.851762 23
5 1 -6.66017 -1.48742 0.285612 21
6 1 -0.481737 -0.632934 -8.72801 21
7 1 4.08202 -1.36233 6.11073 20
8 1 1.81444 -0.61804 -4.71192 20
9 1 -9.41849 -0.131889 -4.91875 16
10 1 -0.395844 2.05777 -10.1603 16
11 1 1.58453 -10.0346 -2.72928 15
12 1 6.77474 4.03122 1.6169 22
13 1 -0.0649706 4.23303 -4.92765 23
14 1 -3.15467 1.4549 5.64091 21
15 1 4.90896 3.29452 8.32247 16
16 1 -9.16694 -2.61972 2.77225 13
17 1 -10.9836 0.237654 3.15388 9
18 1 8.54875 -5.59513 -3.06989 13
19 1 5.91403 0.319077 7.26205 19
20 1 -7.79228 -5.01779 3.12276 14
21 1 -2.03624 -8.7087 -7.02379 10
22 1 3.68315 1.96021 -5.47105 20
23 1 7.56434 -2.73145 -4.73015 16
24 1 6.60181 -4.87785 1.71647 20
25 1 -2.18116 7.60025 6.28826 18
26 1 6.90825 2.12175 4.07811 23
27 1 4.14791 5.8286 2.20162 22
28 1 -3.35777 1.4067 -10.3577 16
29 1 -0.140315 -5.68761 -7.33092 13
30 1 0.0837093 5.86131 8.20033 18
31 1 7.999 -7.61288 2.51896 10
32 1 -5.35033 8.05953 6.04732 10
33 1 -6.60586 4.95565 2.19639 23
34 1 4.83402 7.51748 -2.94961 10
35 1 6.25229 7.21899 0.435937 17
36 1 -4.39168 7.42727 -4.90226 14
37 1 3.3231 -3.35468 -3.32547 19
38 1 -5.12371 5.38415 -7.19033 14
39 1 1.2061 1.98707 -2.92817 22
40 1 -3.734 8.0229 -1.794 16
41 1 1.4825 9.15883 -2.81277 8
42 1 -12.2352 1.54152 0.100534 10
43 1 3.10244 5.97431 8.56148 16
44 1 -1.45741 -0.833803 -11.7429 10
45 1 -4.1356 -4.62337 6.89008 14
46 1 -3.96554 -0.483568 2.54474 22
47 1 -2.7854 4.35178 6.108 21
48 1 -6.7874 0.351417 -2.8533 24
49 1 3.67426 -8.17634 -4.43981 15
50 1 -6.37998 2.56612 0.334366 21
51 1 -8.55056 -2.35294 -8.08847 12
52 1 -1.12172 -3.86105 1.07166 19
53 1 6.12818 3.99767 -5.99395 16
54 1 -3.78087 -1.94579 6.07767 23
55 1 -5.53419 -3.67653 -8.45903 14
56 1 5.31181 2.35922 -8.30192 14
57 1 -1.03118 4.17517 1.99668 21
58 1 -0.833003 2.56 7.76306 20
59 1 -4.90511 2.51359 3.44271 19
60 1 -0.902168 -6.74502 -1.25543 18
61 1 -2.545 9.43671 0.800283 12
62 1 -9.37808 3.26464 1.21437 21
63 1 1.01924 8.84987 4.7512 18
64 1 4.21827 -2.82053 8.44522 15
65 1 4.01614 -9.04988 -1.18232 13
66 1 9.60552 -0.371168 -5.12895 14
67 1 -4.32863 -3.15995 0.808113 20
68 1 -3.05795 -3.83355 3.42841 21
69 1 8.02533 -5.45195 5.23426 14
70 1 5.26349 -6.83703 4.05131 17
71 1 8.86007 6.72658 1.91446 11
72 1 -5.73816 -7.25124 1.73647 11
73 1 -3.2359 -7.43742 -0.0267588 15
74 1 -2.41052 -3.83039 -1.7423 21
75 1 2.07237 0.381353 4.0514 23
76 1 -6.56545 -1.9409 -5.23563 26
77 1 1.95573 1.75331 0.0054046 22
78 1 1.52832 -6.08791 -3.33785 21
79 1 -3.6056 -2.27986 9.55526 13
80 1 -8.04761 2.77441 4.27993 15
81 1 1.45529 -6.08987 0.195013 19
82 1 -1.14305 -3.42402 5.92196 21
83 1 0.376642 0.095357 10.1248 17
84 1 -11.9361 -1.52599 1.17521 9
85 1 -7.61858 8.13458 3.30864 11
86 1 -4.95526 6.23224 8.13377 11
87 1 1.70611 3.50454 2.8301 20
88 1 0.719103 8.88986 8.22974 10
89 1 -7.44126 -5.33512 -6.46519 14
90 1 3.94958 -1.63151 2.6428 18
91 1 -7.95974 0.623118 2.51504 18
92 1 -2.22019 -3.68801 -7.30991 24
93 1 7.3724 -2.66849 7.15345 15
94 1 -3.56991 2.95656 0.679126 23
95 1 -0.00600869 -3.38615 9.4206 15
96 1 -3.73905 -2.17749 -10.5298 13
97 1 -9.81752 -3.10152 -4.9303 14
98 1 -0.972108 -10.133 -0.632794 12
99 1 -4.10537 0.186411 -0.671511 22
100 1 4.24717 2.19167 2.09544 22
101 1 -2.75522 7.91324 9.11932 8
102 1 1.80683 0.780816 7.65913 21
103 1 -2.12102 6.16358 0.44281 20
104 1 0.392487 -7.8681 -4.87266 16
105 1 1.50866 6.34399 2.76171 22
106 1 7.25541 1.6651 -4.42417 23
107 1 -8.19435 3.08464 -5.46087 16
108 1 -9.92282 2.15488 -2.69616 16
109 1 -4.11295 -9.60511 -5.58159 11
110 1 1.87534 -10.31 0.693037 10
111 1 -6.12441 4.81787 -4.0979 18
112 1 -4.42929 1.18137 8.38869 15
113 1 -0.11374 2.36241 5.0425 21
114 1 -5.85562 0.232566 5.01256 18
115 1 -1.27319 -0.671931 -5.85329 23
116 1 2.62127 -5.3471 8.73078 14
117 1 0.0231262 -6.08811 7.27564 17
118 1 -1.64029 -10.2878 -3.78428 13
119 1 7.48208 -0.81643 -1.66091 19
120 1 -9.32204 5.69887 2.91074 12
121 1 8.68999 2.50279 -7.0786 12
122 1 -1.77081 4.60131 -1.93594 21
123 1 2.08852 -8.01331 2.86427 16
124 1 -6.2506 -7.63194 -4.41348 14
125 1 -1.19599 -0.792995 4.16029 21
126 1 9.25114 0.300363 6.70113 14
127 1 9.80438 0.695477 -2.14638 19
128 1 3.71905 4.89144 -7.73048 13
129 1 0.504366 4.58314 -8.55048 17
130 1 3.81858 8.94402 2.65913 14
131 1 2.90084 2.64277 -10.2587 9
132 1 0.087501 -5.63541 3.69575 21
133 1 6.11324 4.39121 -2.97286 18
134 1 3.92949 -6.04131 -1.29191 20
135 1 -0.266577 -7.86216 1.78364 17
136 1 -5.70457 2.67929 -8.3264 15
137 1 3.84439 1.53497 5.42294 20
138 1 8.76088 -4.62331 0.104077 16
139 1 -2.97146 4.65723 -5.31979 22
140 1 -6.96578 7.44277 -2.46839 15
141 1 2.64728 -5.19323 -5.92683 16
142 1 0.903017 -2.61519 3.07331 19
143 1 -6.84331 -3.11537 5.93619 12
144 1 -4.00292 -9.49301 -2.25683 13
145 1 1.4006 -2.59085 -7.48261 20
146 1 4.02168 4.09763 -0.515251 21
147 1 3.32137 -4.96684 2.29393 18
148 1 4.94971 -0.0819903 0.359205 21
149 1 -5.3316 -2.68327 -2.32147 22
150 1 -4.48325 -6.32555 -6.47026 17
151 1 2.35413 -2.6117 10.8443 11
152 1 -2.79292 1.08817 10.6029 12
153 1 4.71039 -2.81733 -6.6182 15
154 1 -7.75734 3.7467 -1.77932 23
155 1 1.21853 9.04985 1.33129 12
156 1 11.2915 2.44712 -4.77463 10
157 1 -1.04777 1.72141 -0.761397 23
158 1 -1.69396 2.4495 -7.3068 22
159 1 -7.26027 5.63112 5.4552 14
160 1 5.388 -5.31641 7.05875 15
161 1 7.7883 0.914881 1.2157 23
162 1 -5.81068 -0.395808 -9.33413 12
163 1 10.2524 -2.77742 5.95773 10
164 1 -1.71036 -5.84775 -4.40356 20
165 1 7.52445 3.11462 6.94286 16
166 1 -0.23488 -8.50472 5.15411 15
167 1 -0.798389 0.989531 1.87449 21
168 1 6.09568 -3.43968 4.35269 21
169 1 4.39154 1.85323 -2.48843 18
170 1 7.3388 2.7149 -1.4268 22
171 1 6.35617 -3.89901 -1.95691 20
172 1 7.64094 5.23627 4.45403 15
173 1 0.75336 -3.60499 -1.37373 22
174 1 5.80913 6.29975 7.20061 14
175 1 -5.47759 5.44316 -0.702475 22
176 1 -1.60588 6.97227 -7.32272 14
177 1 -1.40529 -0.722406 7.71773 25
178 1 -4.01594 -0.976371 -7.04044 20
179 1 -6.54567 -7.60108 -1.36186 11
180 1 4.56842 4.23007 4.49428 23
181 1 -3.76854 5.52091 3.28852 19
182 1 -10.9031 4.8451 -0.296762 12
183 1 8.95645 4.61403 -3.83952 14
184 1 3.81337 0.366855 9.96948 12
185 1 -8.9035 0.644248 -0.666771 20
186 1 1.54293 -0.850858 -10.5052 12
187 1 0.0151185 5.44693 4.90256 21
188 1 -0.0268112 -3.39591 -4.39166 20
189 1 6.00452 7.62038 4.31554 15
190 1 3.63151 -3.27786 -0.210377 23
191 1 -1.40649 7.90525 3.15808 18
192 1 -4.25035 2.6186 -2.47814 25
193 1 5.43275 -5.13845 -4.39187 18
194 1 1.41819 -0.976776 0.887768 21
195 1 3.08154 -7.32507 6.19101 13
196 1 3.36395 4.51649 -4.4901 19
197 1 -1.06943 -0.862834 -2.61106 23
198 1 -2.52476 4.44162 9.04466 14
199 1 11.0018 1.48417 1.05578 13
200 1 -1.3569 7.04348 -3.77455 18
201 1 1.08879 -1.9847 6.34127 20
202 1 9.98692 -2.70228 -2.60693 15
203 1 -1.1467 -1.5769 11.6155 10
204 1 -2.59091 -5.43445 9.47759 10
205 1 -5.54657 7.89491 0.925498 18
206 1 9.12446 5.82158 -1.0267 14
207 1 -5.50248 -6.29959 4.86925 15
208 1 9.16175 -3.19725 3.04078 16
209 1 -4.32555 -5.81363 -2.85667 21
210 1 10.1801 2.85992 4.43089 12
211 1 6.159 -7.89379 -3.0461 12
212 1 0.78699 4.46273 -0.363092 19
213 1 2.23973 3.87293 6.6303 22
214 1 -8.41373 -2.25916 -2.44551 21
215 1 -0.271057 7.72155 -1.05848 19
216 1 1.19795 6.66755 -6.31437 14
217 1 -6.97301 0.484776 -6.70642 19
218 1 3.17097 0.0143563 -7.74644 17
219 1 -3.63273 -3.53368 -4.9112 20
220 1 2.29953 -0.725791 -1.86499 21
221 1 2.21749 -4.54337 5.72311 21
222 1 6.73517 -7.42883 -0.167496 15
223 1 -10.9131 -1.165 -1.88219 14
224 1 -2.67684 4.27919 -9.20362 16
225 1 -7.84954 -4.824 -3.101 17
226 1 9.75702 -0.0162572 3.63288 16
227 1 -1.66382 -1.30019 0.346602 20
228 1 -0.484931 -3.56317 -9.7657 13
229 1 -8.21152 6.57414 0.150291 19
230 1 -6.21227 -2.45281 3.24016 21
231 1 -4.04306 -0.353029 -3.99015 21
232 1 11.0631 3.62547 -1.51554 13
233 1 9.65544 3.75994 1.25364 16
234 1 -3.02268 -7.52723 6.80304 10
235 1 6.36946 -0.137311 -6.45389 15
236 1 3.03088 7.39344 -0.352432 20
237 1 3.74298 9.00723 6.6266 12
238 1 1.84259 6.25881 -2.89026 22
239 1 10.1109 -1.48499 0.385237 16
240 1 -6.99217 -4.5093 -0.0614407 20
241 1 -5.48624 3.21399 6.34334 17
242 1 5.25181 -0.996992 -3.96545 20
243 1 0.871547 1.95589 -6.34481 22
244 1 3.11062 6.60666 5.5931 22
245 1 -2.02721 2.05645 -3.78313 22
246 1 -4.3407 8.80701 3.4976 14
247 1 -2.74318 -7.28534 3.51236 15
248 1 4.85962 -9.21765 2.03631 11
249 1 -9.70322 -3.41089 0.0140622 14
250 1 -9.31765 5.53944 -3.27418 12
251 2 -10.7126 -1.70587 2.60633 11
252 2 10.568 2.7363 2.4947 13
253 2 2.8917 -2.85569 6.67487 20
254 2 -4.96356 0.885425 -6.96458 20
255 2 -10.7912 0.895654 -1.40024 16
256 2 -0.963756 -7.71735 3.51477 15
257 2 -0.304124 0.718865 8.31386 20
258 2 7.07273 -0.511407 0.163066 19
259 2 2.15418 -2.40003 -0.916384 20
260 2 -0.967925 7.80846 7.87714 15
261 2 -2.00215 5.88723 2.33653 22
262 2 3.32193 0.980592 -0.989308 19
263 2 2.11103 -6.99552 -4.98176 16
264 2 -3.09122 -0.34453 -10.9685 12
265 2 -0.969455 -7.28719 -6.33966 17
266 2 -2.76337 2.61182 -5.6827 23
267 2 -2.87478 -5.90598 -1.29035 19
268 2 -6.06599 8.41162 4.36134 13
269 2 10.2403 -1.88145 4.27516 12
270 2 7.07719 -2.99016 2.60595 21
271 2 -1.81698 2.5521 1.05859 24
272 2 8.0599 6.80852 0.217658 13
273 2 1.84299 9.03218 6.69585 13
274 2 7.79619 7.16915 3.442 9
275 2 1.9042 5.61867 -7.63545 13
276 2 6.03909 -1.87766 -5.63051 17
277 2 -5.08957 1.33356 -9.59211 14
278 2 -1.00931 -7.67479 6.66005 13
279 2 -11.3344 3.13877 0.297286 10
280 2 1.20963 -4.5238 -6.89343 18
281 2 -1.08519 -8.34245 0.178551 18
282 2 3.35533 -1.34532 -3.43759 20
283 2 1.65065 5.53919 6.18675 23
284 2 4.44002 -4.80332 8.53962 14
285 2 -3.78009 -7.17134 5.01117 15
286 2 5.06224 -5.00157 3.07754 21
287 2 -0.449913 -6.71638 -3.30566 21
288 2 -0.632917 0.898167 -7.53324 21
289 2 1.57762 -4.08301 -3.37333 22
290 2 -6.5549 -6.36582 3.17846 13
291 2 -6.49399 -6.353 -2.93356 17
292 2 -6.46655 -6.37462 0.0751284 16
293 2 -2.26055 7.82707 -0.450353 17
294 2 4.0963 3.661 -9.29291 11
295 2 10.5211 4.81063 -0.228705 14
296 2 4.03779 3.74979 -6.20183 17
297 2 -2.29839 2.80126 -2.03589 23
298 2 -8.15927 4.4017 -4.18211 14
299 2 8.00614 2.86277 0.454709 22
300 2 -5.03323 6.43967 2.16314 19
301 2 -4.04977 4.04634 4.48758 19
302 2 3.1432 5.29783 3.85196 23
303 2 -0.846357 9.12558 1.67442 16
304 2 0.32345 7.59598 -2.99992 17
305 2 1.55491 6.99326 8.58527 12
306 2 -2.32742 -0.698664 5.85397 22
307 2 1.73514 -4.11235 9.86486 13
308 2 3.28511 -2.1082 -7.60738 15
309 2 -2.30329 -9.99337 -2.01637 13
310 2 -1.54886 -4.13998 -5.31426 21
311 2 -4.78122 2.03281 -0.587408 20
312 2 -1.53728 5.81828 5.63288 20
313 2 -10.1035 -1.54628 -3.70331 17
314 2 6.6905 -3.8813 -0.0744899 20
315 2 4.3698 3.29225 6.25594 22
316 2 -2.04045 -1.51506 -7.39783 21
317 2 2.46062 0.697255 -6.22069 21
318 2 3.05044 2.72852 -3.54899 23
319 2 -4.21467 -4.37373 -7.26208 17
320 2 0.477485 -1.57537 -5.59774 22
321 2 8.03836 0.608202 -6.00422 18
322 2 -5.59188 -4.60091 5.70229 15
323 2 0.721663 -2.19506 -9.17862 16
324 2 -2.15623 0.0131653 -4.17672 22
325 2 4.92375 5.7559 -3.87487 15
326 2 -5.09759 -9.1889 -3.87223 14
327 2 -0.268791 0.0661748 -10.6294 13
328 2 0.305628 7.25682 3.98527 20
329 2 -4.64268 -8.16049 -1.14035 13
330 2 -7.17134 3.5001 5.56981 14
331 2 -6.28138 6.56833 6.7734 9
332 2 -5.73435 -1.7636 5.13064 17
333 2 2.0632 1.15923 9.67847 16
334 2 -9.48118 1.85793 -4.62355 14
335 2 1.17741 -9.37094 1.94894 14
336 2 7.88119 1.14652 -2.49381 22
337 2 1.06747 3.15743 -9.86098 15
338 2 5.71621 3.21889 3.03044 21
339 2 3.98211 8.31754 4.62425 17
340 2 -1.12899 0.323999 11.3032 11
341 2 -8.25587 4.01111 2.90979 18
342 2 2.32333 -0.14117 5.98128 20
343 2 -6.84891 -2.85737 -3.5039 22
344 2 0.920322 -0.1275 -2.96037 24
345 2 5.53311 3.06181 -1.57537 20
346 2 -8.43183 -4.15794 1.29587 15
347 2 -6.03465 6.92614 -4.00112 14
348 2 2.59755 0.788709 -9.73076 15
349 2 -8.06675 1.86198 0.916147 20
350 2 6.58588 -4.155 6.08284 18
351 2 -0.620524 5.74382 -0.766107 19
352 2 3.44501 -9.28913 -2.89209 14
353 2 1.03236 -10.6388 -1.05986 12
354 2 -7.57828 7.54965 1.54033 16
355 2 1.96424 -4.18897 3.6242 19
356 2 1.11069 -6.46334 1.99585 18
357 2 4.09448 7.32448 7.22331 14
358 2 -3.18677 7.62468 -3.53136 14
359 2 -4.09988 -2.98491 7.86724 15
360 2 -4.65457 -3.47239 2.60403 21
361 2 0.0232527 3.76393 3.67077 20
362 2 -0.421345 -2.29955 7.69167 24
363 2 1.63104 5.50361 -4.71189 19
364 2 2.0593 -1.25008 2.72403 22
365 2 9.31627 -2.09589 -4.29356 14
366 2 3.59285 -1.57119 9.65932 14
367 2 -7.91219 -1.07379 -1.103 22
368 2 7.9024 4.7257 -2.17648 16
369 2 5.86114 5.8935 5.25108 17
370 2 6.2031 -1.77823 -2.52176 21
371 2 -5.62532 -3.07176 -0.46382 21
372 2 2.82009 4.0848 8.56181 17
373 2 -5.76043 4.02187 -2.20905 21
374 2 -7.08185 2.81461 -6.9206 15
375 2 7.62916 1.17391 7.12612 15
376 2 2.97895 3.02633 0.883289 20
377 2 5.02731 0.68434 -7.4843 17
378 2 4.92612 -1.80664 4.39358 20
379 2 0.6401 -1.7582 10.8269 14
380 2 7.26374 -6.56157 3.87289 15
381 2 -0.0557549 -2.06043 4.84447 22
382 2 -3.95417 0.703304 4.05483 18
383 2 -8.70275 -4.63605 -4.90325 14
384 2 -8.67244 6.51949 -1.92148 15
385 2 -4.91253 4.31386 -5.46465 18
386 2 -7.74751 -1.27163 2.0493 22
387 2 -1.42804 -4.67969 3.08807 20
388 2 2.46677 7.61622 1.48041 19
389 2 -7.37121 -3.86672 -7.59267 12
390 2 10.5694 1.92725 -0.876937 16
391 2 -9.69723 5.48987 0.971733 14
392 2 7.92335 -6.22231 1.14038 15
393 2 -3.34139 -6.08693 7.91063 12
394 2 -5.08473 1.31491 -3.80807 22
395 2 3.03809 7.99661 -3.09206 13
396 2 -8.24725 6.39041 4.09019 14
397 2 0.844904 4.86107 1.54364 20
398 2 -0.720364 -5.14362 9.32608 13
399 2 -9.36475 1.29611 3.86922 12
400 2 -7.10232 4.65619 0.181184 24
401 2 -0.369935 4.03543 8.82943 18
402 2 -8.89731 -1.83167 -6.16321 13
403 2 5.21896 7.4601 2.19659 18
404 2 -3.01621 6.09601 9.60899 11
405 2 0.998952 2.23958 6.65922 20
406 2 0.656071 2.90187 -1.3193 22
407 2 -2.15079 0.0528232 -1.15175 21
408 2 -1.68284 -2.56195 -10.9779 12
409 2 -0.572865 7.26184 -5.8 16
410 2 -3.64334 -5.76656 -4.68225 18
411 2 -0.146365 3.57603 -6.76873 21
412 2 5.77317 -1.59053 7.37777 18
413 2 5.75524 1.10832 5.39669 22
414 2 9.37791 -1.24317 -1.43494 17
415 2 2.07033 -6.18301 7.17446 14
416 2 5.31187 1.05876 -4.26462 23
417 2 6.29642 4.43368 7.85648 13
418 2 -4.84885 -0.903831 0.871318 20
419 2 0.0919871 2.14523 -4.49446 22
420 2 -7.96264 1.79355 -2.0008 21
421 2 -6.40622 -6.73962 -6.12966 14
422 2 -0.842736 -2.9138 -2.66581 23
423 2 -3.53502 4.81616 -0.46606 23
424 2 -4.99948 1.34393 6.4473 17
425 2 -2.92331 -3.6284 5.35942 19
426 2 -0.158074 -5.02934 -0.465818 20
427 2 4.88802 1.36169 8.63769 17
428 2 -1.64666 5.02485 -3.89925 21
429 2 -1.39867 5.53924 -8.52205 15
430 2 5.01193 7.7207 -1.02953 14
431 2 0.0474375 -9.61192 -3.85046 15
432 2 8.93353 -1.63549 6.85245 11
433 2 10.1758 1.13333 5.26039 12
434 2 -3.44297 6.51118 -6.56357 13
435 2 -4.67968 -1.95413 -8.8685 17
436 2 -1.12743 -4.66049 -8.43777 11
437 2 -4.95745 -0.733545 -2.16703 22
438 2 -2.76335 8.4323 4.49752 16
439 2 -5.67383 7.44681 -1.1331 17
440 2 -7.29431 -0.0559878 -4.7902 21
441 2 -3.95073 7.84773 7.46103 12
442 2 0.441494 0.49839 0.430624 20
443 2 7.39957 3.67669 -4.56561 16
444 2 7.3247 -4.52545 -4.2463 15
445 2 -2.46522 -2.99121 0.107877 21
446 2 -9.73504 4.10499 -1.96904 17
447 2 -2.03843 2.54055 -9.32687 16
448 2 4.59358 -2.09502 0.9335 22
449 2 4.76486 -6.67863 5.84498 14
450 2 -6.49713 1.56681 3.36105 20
451 2 -4.58983 -1.78462 -5.44019 21
452 2 -7.93987 -3.43611 4.20503 12
453 2 4.8046 0.194883 2.22841 22
454 2 3.31446 -5.14462 0.345413 17
455 2 -12.1203 0.280632 1.41774 10
456 2 -3.21939 2.51294 9.18531 16
457 2 1.70251 -8.05854 4.93696 16
458 2 9.73109 0.0466282 1.39302 17
459 2 2.22195 -6.92573 -1.59883 19
460 2 -4.06774 8.97026 1.59387 15
461 2 -7.44078 -0.807375 -8.24502 15
462 2 -3.34477 -0.352131 8.89586 16
463 2 3.97307 -7.78566 3.01277 14
464 2 10.8277 3.82041 -3.43531 11
465 2 6.92584 3.27585 -7.39882 13
466 2 8.31584 4.8737 2.29108 17
467 2 -5.23635 3.55545 1.86861 17
468 2 9.10778 -3.90632 4.90653 11
469 2 4.04344 -4.1504 -5.30789 17
470 2 -3.89536 -3.87682 -2.98325 18
471 2 -1.89632 -0.706707 2.21518 22
472 2 9.2107 -4.54096 -1.79241 13
473 2 5.26703 -7.7147 -1.39665 16
474 2 3.01587 2.27619 3.78397 21
475 2 7.66814 -7.11602 -2.21339 14
476 2 -1.77796 2.75612 5.95444 21
477 2 10.2379 2.71252 -6.15597 10
478 2 -11.1428 -2.31714 -0.507422 13
479 2 7.76089 0.439264 3.08483 22
480 2 -8.66278 -4.07929 -1.55224 17
481 2 3.84576 -9.9412 0.533604 12
482 2 1.43345 8.84323 -0.705385 13
483 2 9.74785 -3.11687 1.24263 16
484 2 2.56366 5.30433 -1.10653 23
485 2 0.25205 -4.94779 5.73445 20
486 2 0.185268 -2.43441 0.964671 20
487 2 6.7071 -8.58564 1.59978 11
488 2 5.3026 -7.21305 -4.58869 13
489 2 -2.26976 -10.118 -5.56421 10
490 2 5.16061 5.06248 0.781193 20
491 2 1.95172 9.42051 3.23259 13
492 2 -3.88077 -7.38111 1.95008 14
493 2 -1.8903 -2.69381 10.226 14
494 2 -4.17884 4.43798 7.4186 18
495 2 8.35263 3.53357 5.05239 16
496 2 10.5895 0.854256 -4.0586 14
497 2 0.211641 0.831352 3.72509 21
498 2 -4.52618 4.32484 -8.55495 15
499 2 -3.77537 -8.00885 -6.82976 11
500 2 4.63301 -4.77051 -2.64365 21
