ITEM: TIMESTEP
10048000
ITEM: NUMBER OF ATOMS
500
ITEM: BOX BOUNDS pp pp pp
-30.0 30.0
-30.0 30.0
-30.0 30.0
ITEM: ATOMS id type x y z Coordination
1 1 -0.934702 3.9684 -1.8683 21
2 1 6.77592 -0.734578 4.33253 20
3 1 2.26919 2.77909 10.7417 13
4 1 6.14334 -2.4153 1.46236 22
5 1 -7.57399 -1.80205 0.564957 21
6 1 -2.03902 -2.88847 -8.5271 21
7 1 4.29991 -0.253236 6.32834 19
8 1 2.06672 -1.03562 -5.1466 20
9 1 -9.78898 -0.757093 -6.58858 11
10 1 -0.706389 1.76735 -11.1313 12
11 1 1.95835 -10.5205 -3.17586 11
12 1 4.80315 4.3155 0.805471 21
13 1 0.449173 4.31938 -5.43572 23
14 1 -1.76736 -0.904504 3.80304 23
15 1 4.53718 1.64548 9.0812 18
16 1 -9.90323 -3.96572 1.66514 13
17 1 -8.95929 -2.45185 3.98744 16
18 1 8.39982 -4.97291 -3.043 13
19 1 7.19715 0.687042 7.18392 20
20 1 -8.82092 -5.84899 3.78455 13
21 1 -2.11589 -8.57261 -6.84641 15
22 1 3.49726 2.20003 -5.00729 23
23 1 7.73666 -2.38715 -4.96554 14
24 1 4.96459 -5.23175 0.882628 21
25 1 -3.66775 7.16488 5.79317 14
26 1 6.6751 2.70679 4.93358 19
27 1 1.99731 5.4317 5.26961 19
28 1 -2.74956 -0.290195 -10.7243 14
29 1 -2.84106 -3.91785 -5.96517 23
30 1 -0.66306 2.7222 9.17648 18
31 1 7.88671 -5.75478 2.40021 14
32 1 -6.79111 5.7317 4.46293 13
33 1 -3.98567 3.98877 -0.106502 22
34 1 4.17729 8.10099 -6.98878 8
35 1 5.38276 9.53304 -1.2457 13
36 1 -4.44628 6.43954 -5.3677 12
37 1 2.69506 -3.3479 -2.93287 21
38 1 -5.43531 4.50917 -7.91608 13
39 1 1.32413 2.22942 -2.93372 19
40 1 -3.45913 8.71536 -3.12264 14
41 1 -0.274797 9.99096 -4.03829 12
42 1 -5.95056 1.23126 0.219004 23
43 1 4.33619 5.29018 8.9676 13
44 1 -0.442838 -1.95166 -10.5701 10
45 1 -4.85236 -4.33535 7.53974 15
46 1 -4.55982 -1.44219 2.17503 24
47 1 -2.4156 2.80206 4.20294 21
48 1 -6.80087 -0.695782 -5.35645 21
49 1 3.66156 -8.08133 -4.45388 17
50 1 -3.76904 2.436 8.31999 17
51 1 -9.11524 -3.71364 -8.25468 7
52 1 -0.812799 -4.03695 1.57059 19
53 1 5.9284 5.18398 -5.89793 18
54 1 -5.24303 -1.53991 8.52843 14
55 1 -5.80865 -3.56498 -7.51221 19
56 1 5.32595 2.95046 -7.99222 12
57 1 1.76755 4.15566 2.61848 24
58 1 -4.6445 0.901683 5.11995 21
59 1 -8.02803 -0.076839 5.56777 13
60 1 -1.23214 -6.03538 -1.24548 21
61 1 -4.84117 7.85641 3.03792 16
62 1 -8.42639 3.36992 2.36238 15
63 1 1.84747 9.82979 4.71311 14
64 1 6.02856 -2.94667 7.29679 18
65 1 4.71664 -10.4522 -2.05051 10
66 1 9.6083 0.757712 -4.81896 13
67 1 -6.33982 -3.96542 2.32443 22
68 1 -3.58304 -4.09073 3.95922 23
69 1 8.85683 -4.14132 5.35333 12
70 1 5.42577 -7.06293 3.70905 14
71 1 6.10468 7.55602 1.52085 17
72 1 -6.04061 -6.59745 1.60557 18
73 1 -3.40838 -8.46925 -0.108662 13
74 1 -2.44933 -3.74595 -2.89729 20
75 1 1.15051 -0.498647 5.35761 22
76 1 -5.50189 -3.75434 -3.96537 22
77 1 3.16031 7.07538 2.26434 22
78 1 1.402 -6.55425 -3.08072 22
79 1 -1.06738 -2.43121 11.7275 14
80 1 -7.06981 0.231188 2.79858 23
81 1 1.72351 -5.74282 0.247027 18
82 1 -2.83464 -1.89751 6.43994 18
83 1 3.817 -0.220551 11.7494 12
84 1 -10.3733 -1.37932 -0.225418 14
85 1 -6.13302 5.79919 1.31797 18
86 1 -4.62838 4.35847 6.47921 19
87 1 2.82241 1.4112 0.702031 22
88 1 -0.154535 7.56238 6.38188 16
89 1 -8.01651 -5.86259 -6.10275 14
90 1 4.09068 -1.03196 3.1995 21
91 1 -9.98867 0.699399 2.55613 12
92 1 -3.52177 -5.63854 -8.48593 12
93 1 8.945 -1.83794 7.61037 13
94 1 -3.14754 1.5522 1.71669 22
95 1 0.797919 -4.84474 10.2128 12
96 1 -3.92762 -3.11027 -10.8449 11
97 1 -8.93506 -3.13468 -4.67325 16
98 1 -0.861199 -8.88985 -2.15053 16
99 1 -4.6303 -1.73143 -1.35663 22
100 1 3.32326 1.78458 3.86317 22
101 1 -1.82281 5.53427 8.26101 12
102 1 1.71356 0.600915 8.26742 23
103 1 -2.44002 7.83435 1.36346 19
104 1 0.78792 -8.38564 -5.51812 16
105 1 0.348396 6.95235 0.238092 22
106 1 7.05701 2.45344 -3.89764 22
107 1 -8.77251 1.35297 -4.55387 17
108 1 -5.94735 1.2664 -2.88458 22
109 1 -4.28075 -10.4377 -6.20123 10
110 1 2.07139 -8.68472 -0.671312 16
111 1 -6.6706 3.7812 -4.92969 16
112 1 -5.61323 0.350825 10.5696 8
113 1 -1.62273 1.15191 6.61985 21
114 1 -8.55868 2.90563 5.16782 14
115 1 -1.2398 -0.872251 -5.96278 23
116 1 3.45654 -5.12507 8.68341 14
117 1 0.557893 -5.31964 7.26315 16
118 1 -1.1666 -10.8841 -4.45861 11
119 1 7.766 -0.133363 -2.41321 20
120 1 -11.6011 1.32172 -0.692296 9
121 1 8.57509 3.43392 -6.62547 12
122 1 0.812119 6.39325 -2.95182 20
123 1 2.46131 -7.95006 2.92101 13
124 1 -6.76314 -8.88245 -4.48384 11
125 1 0.0444636 1.3701 2.85323 21
126 1 9.43466 1.76529 6.54996 11
127 1 10.1304 1.91884 -1.62478 16
128 1 2.92946 4.8251 -7.19187 16
129 1 0.191234 4.23294 -8.80953 13
130 1 3.27466 9.66406 1.53006 15
131 1 2.26051 2.4764 -9.6859 12
132 1 -0.268351 -3.26863 4.81398 20
133 1 5.75855 7.37465 -3.99062 16
134 1 4.27682 -6.22947 -1.80162 22
135 1 -0.592991 -8.1585 1.31368 15
136 1 -4.80199 1.76602 -9.72932 14
137 1 3.93482 3.16079 6.56381 22
138 1 8.22135 -3.50518 -0.0695185 19
139 1 -2.23323 6.44551 -1.3971 23
140 1 -5.75432 6.31247 -2.28344 16
141 1 2.40472 -5.24873 -5.5194 16
142 1 0.751335 -1.20809 1.91061 21
143 1 -7.84979 -4.10838 6.39542 11
144 1 -3.92806 -8.86825 -3.51035 17
145 1 1.47718 -2.78099 -7.34864 17
146 1 6.06247 5.26896 -2.41889 22
147 1 2.51331 -3.81545 2.91812 20
148 1 5.44179 -0.0800113 -0.394007 21
149 1 -6.95259 -4.5365 -0.992526 22
150 1 -5.00818 -6.70614 -5.9931 18
151 1 3.59042 -2.00288 9.12287 21
152 1 -4.432 -2.90488 10.8631 12
153 1 4.54165 -2.57499 -6.08494 16
154 1 -7.24083 3.7328 -0.698574 21
155 1 0.522268 9.71896 1.68579 16
156 1 10.5638 3.83575 -3.98772 13
157 1 -1.41836 4.51359 1.40579 22
158 1 -2.19764 1.40334 -7.75546 23
159 1 -0.257848 6.82735 2.94646 21
160 1 6.07762 -5.71614 6.92945 11
161 1 5.98975 1.61556 2.30215 21
162 1 -6.03196 -0.815158 -9.76784 11
163 1 10.3815 -0.909356 5.3977 11
164 1 -1.57035 -6.52567 -4.19254 22
165 1 7.11069 4.12759 7.7521 13
166 1 0.364062 -6.04576 3.77118 18
167 1 -0.104804 1.20158 -0.512087 21
168 1 5.75658 -3.91326 4.19125 20
169 1 4.27737 2.50238 -1.93258 22
170 1 7.20559 2.83136 -0.475106 20
171 1 5.43944 -2.96517 -1.73872 21
172 1 7.57002 6.41119 4.27942 12
173 1 0.134758 -3.09538 -0.971054 20
174 1 6.02467 7.18527 6.8755 11
175 1 -4.72209 2.01236 -5.76359 23
176 1 -2.50068 4.33236 -6.8127 16
177 1 0.887993 -0.332488 10.5526 15
178 1 -4.31146 -0.949057 -7.46811 22
179 1 -6.71346 -8.31236 -1.13283 14
180 1 4.84391 4.59054 3.8414 21
181 1 -5.60547 3.04711 2.8749 24
182 1 -9.65337 3.88628 -2.82497 10
183 1 8.81805 6.23321 -4.23521 13
184 1 6.48351 -1.007 9.75036 13
185 1 -8.70983 1.08612 -1.50361 20
186 1 0.596105 -0.208106 -8.79654 18
187 1 -1.31842 4.83628 5.55988 21
188 1 -0.0161726 -3.51986 -4.37786 22
189 1 4.96853 9.02501 4.53894 11
190 1 2.99251 -2.76415 0.480364 21
191 1 -1.72991 9.31877 4.30905 13
192 1 -3.13947 1.22055 -1.68252 21
193 1 5.52453 -4.99098 -4.18289 16
194 1 1.57352 4.25237 -0.142081 20
195 1 3.34946 -5.84304 5.43704 18
196 1 3.61432 5.0941 -4.05228 21
197 1 -0.606618 -0.686416 -2.7399 23
198 1 -2.43946 -0.53368 9.36982 18
199 1 10.4528 3.06121 1.63009 11
200 1 -1.29853 6.81249 -4.48587 17
201 1 -0.0049076 -2.18238 8.05054 22
202 1 9.74079 -1.81986 -2.38319 13
203 1 2.59465 -3.01207 11.6642 11
204 1 -2.25519 -3.94388 9.12854 19
205 1 -5.24935 8.33939 -0.360419 10
206 1 7.67934 7.55966 -1.43352 14
207 1 -5.71227 -6.32851 5.03148 13
208 1 9.24599 -2.73467 2.58975 14
209 1 -3.82614 -4.33863 0.426733 21
210 1 7.41154 4.62788 2.09428 19
211 1 6.63475 -7.7265 -3.16767 12
212 1 3.43974 6.72717 -1.00933 20
213 1 1.39878 4.60498 8.25304 18
214 1 -7.83105 -1.76529 -2.64093 22
215 1 -1.23234 9.65254 -0.974224 14
216 1 1.53802 7.59718 -5.58054 16
217 1 -7.22576 1.68792 -7.85003 16
218 1 3.36795 0.136107 -7.56043 16
219 1 -4.37532 -6.44681 -2.38472 22
220 1 2.48777 -0.520631 -1.90762 21
221 1 2.70059 -2.93608 6.02635 22
222 1 7.49635 -6.61084 -0.480459 15
223 1 -10.9995 -1.00398 -3.34757 14
224 1 -2.87961 3.83669 -10.0467 12
225 1 -8.04217 -6.08151 -2.97496 16
226 1 9.39425 0.783282 3.33445 15
227 1 -2.13912 -1.31534 0.443947 20
228 1 -0.678428 -5.61981 -6.80336 16
229 1 -8.63372 6.20823 -0.277615 8
230 1 -5.84636 -2.00924 5.13184 21
231 1 -3.5878 -0.880106 -4.394 21
232 1 10.485 5.38529 -1.29846 11
233 1 9.36856 6.55433 1.29016 11
234 1 -2.23666 -6.14123 6.18107 14
235 1 6.69223 0.266303 -6.81355 14
236 1 1.7259 10.452 -1.11601 13
237 1 3.08191 7.71449 7.04617 13
238 1 3.35136 9.65795 -3.84636 13
239 1 8.35924 -0.0668312 0.57191 19
240 1 -9.29236 -6.60807 0.310366 12
241 1 -6.68886 1.33921 7.85382 12
242 1 5.01099 -0.388125 -3.79652 20
243 1 0.918057 1.99481 -6.60769 21
244 1 0.8692 2.50109 5.76404 22
245 1 -1.37493 1.81647 -4.50354 20
246 1 -3.88968 5.20746 2.83726 24
247 1 -2.82195 -6.64129 2.82443 15
248 1 4.74208 -8.47434 0.600041 13
249 1 -10.0429 -3.95145 -1.78354 15
250 1 -4.08641 3.9217 -3.06287 23
251 2 -10.6782 0.36096 0.723984 11
252 2 9.27203 4.6025 1.57584 12
253 2 4.04311 -1.97834 7.17463 21
254 2 -2.62807 -1.98538 -6.8534 21
255 2 -10.1888 -0.130552 -4.8414 13
256 2 -1.03319 -7.1911 3.09051 15
257 2 -2.12856 1.53738 8.69442 16
258 2 6.80755 1.08744 0.354665 22
259 2 2.0706 -2.56681 -1.15254 20
260 2 -1.97632 6.66082 6.75804 14
261 2 -1.41663 7.81656 -0.20368 21
262 2 3.70471 0.700588 -1.05063 21
263 2 2.22057 -7.19053 -4.94931 17
264 2 -4.62629 -1.3431 -10.9613 12
265 2 -0.936625 -7.4106 -5.94375 17
266 2 -2.71522 2.29188 -6.1143 23
267 2 -3.10694 -5.15968 -1.5266 23
268 2 -5.91363 6.30148 3.01683 16
269 2 9.54916 -1.32168 3.81543 15
270 2 5.92355 -2.08679 3.30569 21
271 2 -1.51837 2.59009 2.32315 22
272 2 6.32291 8.363 -0.223121 16
273 2 1.48505 6.8015 6.98702 17
274 2 6.069 7.52612 5.07962 13
275 2 2.89848 6.813 -7.08984 12
276 2 5.91139 -1.33775 -5.6123 17
277 2 -3.59422 0.479084 -8.65203 21
278 2 -0.57341 -5.12592 5.60594 18
279 2 -7.1068 1.9773 1.71198 22
280 2 0.70241 -4.37854 -6.49695 17
281 2 -1.61127 -8.03766 -0.345551 16
282 2 3.33621 -1.50164 -3.57233 21
283 2 0.160873 6.1123 4.69212 20
284 2 5.13951 -4.48317 7.95459 15
285 2 -3.74246 -5.96313 4.69911 15
286 2 8.37716 -5.4766 0.568521 14
287 2 -0.46397 -7.10709 -2.83574 22
288 2 -0.638896 0.567338 -7.30223 21
289 2 1.55378 -4.85877 -3.72743 23
290 2 -6.70107 -5.68403 3.31318 16
291 2 -7.44792 -8.04758 -2.85805 14
292 2 -7.54628 -7.57663 0.47521 13
293 2 -3.9874 7.44564 -1.7921 19
294 2 3.46125 3.42099 -8.71892 14
295 2 9.19185 6.63861 -0.640614 13
296 2 4.1694 4.01597 -5.80251 20
297 2 -1.24104 5.31697 -5.81922 17
298 2 -8.46069 3.2564 -4.25955 15
299 2 5.9192 3.46315 2.12821 19
300 2 1.63672 5.94606 -1.02322 18
301 2 -2.85193 4.75218 4.39499 21
302 2 1.64193 7.96081 1.45721 19
303 2 -1.06196 8.74266 2.58098 17
304 2 1.54582 10.1007 -2.90191 12
305 2 2.7892 4.12644 9.50748 15
306 2 -6.49277 -0.274904 9.02465 11
307 2 2.63334 -4.00706 10.0485 14
308 2 2.99538 -1.81207 -7.01189 15
309 2 -2.12818 -9.68222 -3.18818 17
310 2 -1.62403 -4.60004 -4.45509 21
311 2 -6.01166 -0.556982 1.30012 20
312 2 0.00762902 -0.431806 3.70364 20
313 2 -9.67035 -2.54067 -3.05148 18
314 2 6.23301 -4.00028 0.0141735 20
315 2 2.06353 3.9077 6.54779 23
316 2 -3.92931 -2.56381 -3.55961 20
317 2 2.25223 0.836668 -5.88788 22
318 2 3.04033 3.27837 -3.11397 19
319 2 -4.83831 -4.62342 -6.09469 19
320 2 0.34913 -1.81048 -5.38813 20
321 2 7.97833 1.45502 -5.66167 18
322 2 -6.32526 -5.13688 6.50865 14
323 2 0.648087 -1.99703 -8.87713 15
324 2 -1.85997 -0.00616222 -4.2463 20
325 2 5.39172 6.98307 -5.88538 17
326 2 -5.07668 -9.69425 -4.60315 13
327 2 -0.683583 -0.094928 -10.6297 13
328 2 0.0164076 9.04878 5.18041 13
329 2 -4.6893 -8.43404 -1.5731 16
330 2 -7.8776 1.6609 6.41144 12
331 2 -7.2558 3.67211 3.97655 19
332 2 -4.80896 -2.33394 6.6915 19
333 2 2.00961 -1.19719 11.9793 12
334 2 -8.14256 0.599645 -6.22061 15
335 2 1.38599 -7.58937 1.22092 17
336 2 8.12577 1.99428 -2.03819 21
337 2 0.262706 2.75133 -9.93591 14
338 2 4.69836 2.68734 4.82766 22
339 2 3.36466 8.93379 5.65907 14
340 2 -4.14676 -0.979383 10.1659 15
341 2 -4.9926 2.42418 6.42895 18
342 2 0.908864 1.64863 9.86389 16
343 2 -6.02254 -5.27295 -2.65774 21
344 2 0.804421 0.391691 -2.20811 21
345 2 5.45037 3.97659 -1.03069 20
346 2 -9.53849 -5.79433 2.05276 12
347 2 -5.61352 5.71866 -4.15175 13
348 2 2.33166 0.616411 -9.35342 14
349 2 -4.09045 1.94622 3.46292 22
350 2 6.17026 -0.172014 5.94961 20
351 2 -2.42865 2.78638 -2.84663 22
352 2 3.7169 -9.78866 -3.58301 13
353 2 0.874945 -9.90089 -1.66794 15
354 2 -6.64072 6.98957 -0.361659 13
355 2 3.8486 -3.92268 4.73517 20
356 2 2.55931 -2.00726 2.33859 20
357 2 4.4549 6.83906 7.91051 13
358 2 -1.74461 9.66981 -2.88604 12
359 2 -2.59966 -3.28652 11.0539 12
360 2 -5.08117 -3.0011 3.59656 23
361 2 0.376358 5.11694 1.54124 20
362 2 3.64231 1.43434 10.7485 15
363 2 1.74551 5.67088 -4.60659 19
364 2 3.0157 -0.0507156 4.94415 23
365 2 8.78887 -1.01602 -4.01378 15
366 2 4.75177 -1.36352 10.3399 15
367 2 -7.50133 -0.00476137 -3.53876 20
368 2 7.42309 6.65142 -3.00873 16
369 2 3.1149 5.52912 3.69365 22
370 2 6.14236 -1.16795 -2.25899 23
371 2 -5.70288 -4.85751 0.658197 20
372 2 5.10684 3.70284 8.12356 18
373 2 -2.15641 4.65831 -0.429869 22
374 2 -6.52911 0.917927 -9.34313 10
375 2 7.65733 2.64998 6.62343 14
376 2 2.84663 3.42204 0.930045 23
377 2 5.2352 0.988412 -7.64956 15
378 2 9.2535 -0.1148 7.13743 14
379 2 1.68917 -1.22183 8.99436 23
380 2 8.52336 -4.52072 3.66428 13
381 2 -2.28943 -2.63851 4.7298 20
382 2 -6.26812 -0.124106 4.49898 20
383 2 -8.50736 -4.9852 -4.48678 15
384 2 -8.8591 4.90547 -1.50951 11
385 2 -6.44423 3.1271 -6.88072 15
386 2 -8.20673 -2.97935 2.18905 21
387 2 0.463084 -4.22078 2.99845 21
388 2 3.42805 9.94934 -0.561722 13
389 2 -7.59253 -4.61543 -7.42879 12
390 2 10.6807 3.50579 -0.500892 12
391 2 -7.76544 4.63898 0.938427 16
392 2 6.02055 -5.30295 2.71256 19
393 2 -2.95549 -5.05838 7.68286 15
394 2 -5.30261 2.67922 -4.1017 19
395 2 2.86934 8.94148 -5.46742 11
396 2 -9.64971 2.24177 3.72397 10
397 2 0.517591 3.00739 -1.21767 21
398 2 -0.257842 -4.06999 8.62783 18
399 2 -8.75525 -0.470278 3.66569 16
400 2 -4.90072 4.21008 1.54619 24
401 2 -1.00141 -0.973406 10.4897 17
402 2 -9.1564 -2.64832 -6.64689 13
403 2 4.38073 8.61001 2.72971 14
404 2 -0.427395 4.33843 8.39062 17
405 2 -1.03828 2.89008 5.69929 22
406 2 -1.03625 5.70537 -2.90263 19
407 2 -8.5515 -0.645205 -0.65269 22
408 2 -2.18087 -2.56731 -10.4928 12
409 2 -5.1712 4.50483 -1.50838 21
410 2 -3.79997 -6.98954 -4.20612 21
411 2 1.18449 3.99183 -7.22 18
412 2 7.39354 -2.04566 8.33082 14
413 2 3.55555 0.953228 7.49526 23
414 2 8.97511 -0.678947 -1.03761 14
415 2 2.42517 -5.40646 7.05115 16
416 2 5.22241 1.70939 -3.74285 23
417 2 7.17265 5.93853 7.61765 9
418 2 -6.56819 -2.38989 -0.998689 23
419 2 0.405041 2.58034 -4.64242 19
420 2 -6.87888 1.9269 -1.26418 21
421 2 -6.79085 -7.35175 -5.92386 13
422 2 -0.745671 -2.71089 -2.57228 21
423 2 -4.1615 2.02514 0.120095 22
424 2 -2.7912 -0.0406979 5.41664 21
425 2 -2.11935 -2.06735 8.26645 21
426 2 -0.0289885 -5.01772 -0.0481895 22
427 2 6.39629 0.742276 8.9556 16
428 2 0.192341 8.15234 -4.21745 14
429 2 -1.71302 4.38475 -8.73505 14
430 2 5.17149 8.8801 -3.11351 13
431 2 0.633036 -10.0681 -4.73985 14
432 2 6.89229 -4.19197 5.79477 18
433 2 10.3742 1.19392 4.92592 11
434 2 -4.17201 5.19747 -6.69724 16
435 2 -4.30245 -4.16923 -9.36962 15
436 2 -2.10704 -4.68085 -7.87134 15
437 2 -4.45891 -0.0615886 -2.40559 22
438 2 -3.48579 8.47803 4.40214 15
439 2 -3.06095 7.48815 -4.49109 15
440 2 -6.81387 -2.48004 -4.45652 21
441 2 -5.22034 5.93454 5.6761 12
442 2 0.968911 0.734333 1.12808 21
443 2 6.81221 4.29826 -4.28739 21
444 2 7.08943 -3.8911 -3.95218 15
445 2 -2.55188 -4.81025 2.05821 23
446 2 -10.1494 2.37568 -1.68166 12
447 2 -2.79487 1.8037 -10.7075 11
448 2 4.68531 -1.71961 0.157961 21
449 2 5.2358 -6.68416 5.46508 13
450 2 -7.8259 -2.31107 5.57278 13
451 2 -4.89062 0.0871995 -5.73334 20
452 2 -9.1011 -4.23483 4.73563 13
453 2 4.021 0.881027 2.34473 21
454 2 3.0962 -4.65017 0.795918 21
455 2 -11.5496 -0.401178 -1.63747 11
456 2 -5.18162 1.79207 9.28816 12
457 2 2.10161 -6.61015 4.21877 14
458 2 9.55273 1.3164 1.53408 16
459 2 2.59107 -6.93147 -1.29592 21
460 2 -4.39752 8.27276 1.2624 13
461 2 -5.95056 -1.85706 -8.12902 18
462 2 -5.30005 -3.68145 9.35751 12
463 2 4.33436 -8.06388 2.5966 11
464 2 10.3634 5.52221 -3.14403 11
465 2 6.86663 4.03574 -7.25068 12
466 2 7.61793 6.48901 2.12613 15
467 2 -2.1909 6.00797 2.19084 22
468 2 9.9528 -2.62482 6.13727 9
469 2 3.97816 -4.27563 -5.46298 16
470 2 -3.71762 -2.45162 0.31984 20
471 2 -2.68519 -0.230502 2.08752 21
472 2 8.89633 -3.54245 -1.95013 15
473 2 6.17512 -9.3497 -2.6278 11
474 2 1.61189 2.62415 3.81306 22
475 2 7.75401 -6.64644 -2.29942 13
476 2 -1.82449 0.152102 -0.88867 18
477 2 9.41051 4.69775 -5.41131 12
478 2 -10.2288 -3.36249 -0.0514443 15
479 2 7.28333 1.12749 3.82347 21
480 2 -8.65653 -5.48609 -1.10449 16
481 2 3.80564 -9.48727 -0.750595 14
482 2 0.225467 10.3469 -0.0606649 13
483 2 8.22682 -1.8047 1.29929 19
484 2 4.46502 6.40663 -2.64353 21
485 2 0.768028 -2.26655 6.07558 21
486 2 -0.374363 -2.3222 0.667529 20
487 2 5.69315 -6.90868 0.102553 18
488 2 4.9084 -6.80603 -3.4652 20
489 2 -2.42767 -10.2045 -5.92324 11
490 2 4.31431 6.29771 0.828733 21
491 2 1.97148 10.3026 2.73179 13
492 2 -3.98269 -7.40857 1.44025 16
493 2 0.491262 -3.5301 11.5319 12
494 2 -3.10835 4.20816 7.80932 16
495 2 6.83113 4.56821 4.21448 18
496 2 10.2723 2.09006 -3.67669 12
497 2 0.316173 0.819441 6.60574 19
498 2 -4.47126 3.58977 -9.25827 14
499 2 -3.36424 -7.22804 -7.21972 15
500 2 4.27089 -4.33243 -2.59009 21
