ITEM: TIMESTEP
8113000
ITEM: NUMBER OF ATOMS
500
ITEM: BOX BOUNDS pp pp pp
-30.0 30.0
-30.0 30.0
-30.0 30.0
ITEM: ATOMS id type x y z Coordination
1 1 -0.928905 3.85561 -2.77319 22
2 1 7.04148 -0.81836 4.61365 20
3 1 2.15619 3.28113 10.4444 13
4 1 6.35051 -2.5488 1.56586 21
5 1 -7.62308 -1.45999 0.15349 20
6 1 -1.9222 -3.04611 -8.52762 19
7 1 4.38317 -0.192815 6.58607 21
8 1 1.67946 -0.96011 -4.68175 23
9 1 -10.1118 -0.172966 -6.64641 11
10 1 -0.827695 1.3427 -11.3857 12
11 1 1.21607 -10.2223 -3.56801 14
12 1 4.55873 3.88446 0.845537 19
13 1 0.358403 4.23846 -5.65148 23
14 1 -2.48762 0.057822 4.16048 21
15 1 4.98742 1.80962 9.0228 16
16 1 -9.51261 -3.05748 1.74826 13
17 1 -7.90879 -1.24567 3.83549 17
18 1 8.65168 -5.29387 -3.01247 14
19 1 7.63177 0.729961 7.48215 17
20 1 -8.39423 -5.84788 3.09784 11
21 1 -2.09161 -8.38224 -7.72064 10
22 1 4.00558 1.5153 -5.59563 24
23 1 7.25101 -2.66624 -4.66255 17
24 1 4.92472 -5.57448 1.19439 20
25 1 -2.80867 8.4923 6.4995 11
26 1 7.33901 2.70855 4.49068 22
27 1 2.66554 6.27226 5.27147 22
28 1 -3.22131 -0.474987 -10.7675 15
29 1 -3.16097 -3.80039 -5.92204 21
30 1 -0.946295 3.36965 8.80313 20
31 1 7.80038 -5.62333 2.70987 16
32 1 -5.97943 4.2013 5.30873 16
33 1 -4.64154 3.76735 -0.64298 23
34 1 4.31339 7.14782 -6.57337 12
35 1 5.56828 9.25587 -1.30768 12
36 1 -4.59566 6.39072 -5.37216 12
37 1 3.45787 -3.82118 -3.0468 22
38 1 -5.66389 4.63123 -8.3363 12
39 1 1.37199 1.74991 -3.65276 22
40 1 -3.55163 8.92532 -3.12941 13
41 1 -0.0543217 9.7227 -3.92971 12
42 1 -6.39802 1.27201 0.358184 19
43 1 4.06603 5.19585 9.17374 13
44 1 -0.463345 -2.50891 -10.9306 9
45 1 -4.85006 -4.3646 7.495 12
46 1 -5.07826 -0.288299 2.39351 19
47 1 -1.41262 3.27462 3.72642 23
48 1 -6.86468 -0.840369 -5.87703 21
49 1 3.78699 -8.11512 -4.40477 15
50 1 -3.46867 3.30756 6.98735 22
51 1 -8.59857 -2.43564 -8.34957 10
52 1 -0.625788 -4.22886 1.38831 20
53 1 5.72182 4.25702 -5.59567 20
54 1 -4.59418 -1.61073 8.66968 17
55 1 -5.95789 -3.65491 -7.831 17
56 1 5.26029 2.31967 -8.38862 12
57 1 0.773848 3.8065 1.81523 25
58 1 -2.70487 0.731607 7.75181 22
59 1 -7.5993 -0.370972 6.94937 15
60 1 -1.18458 -6.41405 -1.31365 22
61 1 -3.01729 8.68551 2.77902 13
62 1 -8.19774 4.3179 2.59537 13
63 1 2.34866 9.75945 4.59153 13
64 1 4.6564 -4.05256 9.87029 10
65 1 4.43649 -10.3531 -2.19241 10
66 1 9.47277 -0.172164 -4.76474 13
67 1 -5.98448 -3.43081 2.19826 22
68 1 -2.76796 -2.71844 3.39549 19
69 1 8.26542 -4.66244 5.98079 10
70 1 5.06491 -7.27607 3.97728 15
71 1 5.61924 6.68929 1.00749 19
72 1 -6.19527 -6.17386 1.15737 16
73 1 -3.89448 -7.95508 -0.272135 15
74 1 -2.88412 -3.31793 -2.56536 22
75 1 2.17097 0.205759 4.71121 22
76 1 -5.9417 -3.59539 -4.40155 21
77 1 2.65707 5.83798 2.0249 22
78 1 1.43763 -6.48457 -3.09204 23
79 1 -1.96168 -1.94312 9.7878 17
80 1 -5.23094 0.753779 5.64986 20
81 1 1.71333 -5.99614 0.0167315 23
82 1 -2.62731 -1.52619 6.42509 21
83 1 3.24372 0.52348 11.5779 11
84 1 -10.7167 -0.59471 0.230819 13
85 1 -5.35888 6.1724 2.32594 16
86 1 -4.85947 6.25508 7.54649 13
87 1 2.63191 1.56221 1.53593 21
88 1 0.451914 8.02242 6.64229 16
89 1 -8.38892 -5.55447 -6.69332 12
90 1 4.17655 -1.87749 3.29992 21
91 1 -9.35792 1.48379 1.99195 15
92 1 -3.49082 -6.05286 -8.71783 14
93 1 6.1813 -2.71133 7.27305 19
94 1 -2.96186 1.4909 1.45923 21
95 1 0.686658 -3.19854 9.65235 17
96 1 -4.29933 -3.23864 -10.4118 14
97 1 -9.20276 -3.00408 -5.17941 17
98 1 -1.28877 -8.96473 -1.90997 15
99 1 -4.89022 -1.32154 -1.19444 19
100 1 4.97343 1.32214 3.58905 22
101 1 -2.0169 6.73126 8.91879 12
102 1 1.88645 1.91744 7.57638 18
103 1 -2.81408 5.4654 1.59205 23
104 1 0.933771 -8.25191 -6.26809 15
105 1 0.13141 6.71078 0.0939849 23
106 1 6.86688 1.53931 -3.73396 25
107 1 -8.83467 1.44389 -4.66849 18
108 1 -6.00809 1.34896 -2.68756 23
109 1 -4.54511 -9.08729 -6.53681 12
110 1 1.82841 -8.97177 -0.555883 17
111 1 -6.96752 4.08823 -4.80596 17
112 1 -5.77652 0.964136 9.70968 12
113 1 -0.322701 1.87872 5.90906 22
114 1 -8.48403 1.99944 4.85666 13
115 1 -1.31517 -1.21847 -6.13403 24
116 1 2.55221 -5.39829 8.65777 13
117 1 0.0725606 -4.42449 6.80633 19
118 1 -1.45291 -10.3158 -4.92946 13
119 1 7.30674 -0.673915 -1.2306 21
120 1 -10.8614 3.18842 0.308549 11
121 1 8.17803 2.39715 -6.43329 13
122 1 0.688191 6.4501 -3.2456 22
123 1 2.19556 -8.02494 2.86229 14
124 1 -7.32163 -8.42066 -4.60502 13
125 1 -0.0716468 0.956492 2.85584 25
126 1 10.0296 2.15003 6.97918 9
127 1 9.61678 1.03773 -1.85169 18
128 1 2.99234 4.33295 -7.30629 17
129 1 -0.0914156 4.14993 -9.02762 15
130 1 3.95265 9.31836 1.55191 13
131 1 2.06682 2.32515 -9.35671 12
132 1 0.0812003 -2.50415 4.2799 21
133 1 5.48927 6.80865 -3.61037 16
134 1 4.38093 -6.58197 -1.74518 24
135 1 -0.764989 -7.93848 1.25758 15
136 1 -4.78844 1.78891 -9.79094 16
137 1 4.61601 3.38395 6.37304 21
138 1 9.40214 -4.08394 0.135052 14
139 1 -2.66293 6.06649 -1.45679 23
140 1 -5.98348 6.13469 -2.37315 18
141 1 2.17679 -5.26741 -5.37449 18
142 1 1.42957 -1.44324 1.35716 22
143 1 -7.92806 -3.8082 5.97429 11
144 1 -4.43609 -9.01626 -3.20644 16
145 1 1.39605 -3.36901 -7.70783 16
146 1 5.71162 4.4984 -2.05945 22
147 1 2.3542 -4.60021 3.02547 24
148 1 4.48604 -0.294211 0.490619 22
149 1 -6.92661 -4.37811 -1.22697 20
150 1 -5.29222 -6.46927 -5.64873 17
151 1 2.93154 -1.778 9.16643 19
152 1 -2.71656 1.11218 10.5105 14
153 1 4.38326 -3.02258 -5.92974 17
154 1 -7.76597 3.75452 -0.333968 18
155 1 0.496429 8.80506 1.94233 16
156 1 10.5334 2.82447 -3.96159 12
157 1 -1.40518 3.37329 0.231001 24
158 1 -2.42577 1.36497 -8.03392 24
159 1 -0.136633 6.53642 3.61081 22
160 1 5.42284 -6.01098 7.02872 13
161 1 7.64985 0.659303 1.82069 22
162 1 -6.48997 -0.682029 -9.72315 12
163 1 9.35362 -1.52991 6.24323 12
164 1 -1.90792 -6.43768 -4.16017 20
165 1 7.20782 3.97989 7.96101 15
166 1 0.0423537 -6.03814 4.13528 18
167 1 0.179739 1.34729 -0.41798 22
168 1 5.4105 -3.94437 4.40232 20
169 1 4.22465 1.94546 -2.35151 21
170 1 7.16996 2.28146 -0.617682 21
171 1 6.21171 -3.73134 -1.62884 22
172 1 7.83069 6.06433 4.89906 12
173 1 0.380402 -3.38337 -1.06747 22
174 1 5.63084 6.179 6.74013 16
175 1 -4.9373 1.90279 -6.02508 25
176 1 -2.77764 4.17823 -6.76342 19
177 1 0.505086 0.697732 10.0295 22
178 1 -4.26786 -0.850016 -7.5374 23
179 1 -6.93788 -8.24662 -1.58391 13
180 1 5.17786 4.61874 3.78175 22
181 1 -4.60588 3.4223 2.45739 21
182 1 -9.1861 4.48465 -2.59501 13
183 1 8.04201 4.79462 -3.93347 14
184 1 5.77952 -1.08938 9.90532 13
185 1 -9.13821 1.11968 -1.65568 22
186 1 0.170466 -0.428491 -8.87128 21
187 1 -0.420704 4.66503 6.37913 23
188 1 -0.0441415 -3.71511 -4.19044 19
189 1 4.92982 8.11633 4.1606 16
190 1 3.55336 -3.15207 0.422878 20
191 1 -1.2319 10.109 4.27452 10
192 1 -2.89838 1.4107 -1.94918 20
193 1 5.53243 -5.24583 -4.41026 18
194 1 1.65632 4.07193 -0.997803 24
195 1 2.62496 -6.71846 5.69997 15
196 1 3.10111 4.52037 -4.122 23
197 1 -0.734218 -0.775353 -2.75361 22
198 1 -4.11268 4.08944 9.81496 13
199 1 10.9845 2.04704 1.20069 12
200 1 -1.71145 7.02082 -4.99469 16
201 1 0.437711 -1.1636 7.4234 21
202 1 9.62807 -2.33756 -2.46541 15
203 1 -0.0509472 -1.02314 12.0762 9
204 1 -2.69116 -4.60326 9.40507 11
205 1 -4.55819 8.09488 0.0034338 15
206 1 7.55725 6.45629 -0.996214 14
207 1 -5.50492 -5.49024 4.53331 15
208 1 9.20223 -2.82799 3.30027 15
209 1 -3.57582 -4.07197 0.157904 22
210 1 10.2995 3.82605 3.90724 9
211 1 6.95074 -8.31318 -3.45532 11
212 1 3.44292 6.5689 -1.34833 23
213 1 1.23619 6.18961 8.76552 16
214 1 -7.83575 -1.5246 -2.87222 22
215 1 -1.42659 8.98252 -0.931468 15
216 1 1.61069 7.16647 -6.0224 15
217 1 -7.36128 1.70158 -7.81558 14
218 1 3.25302 -0.48276 -7.85733 14
219 1 -4.5843 -5.89984 -2.46979 23
220 1 2.29125 -0.605726 -1.42794 21
221 1 2.81066 -3.31214 6.13542 23
222 1 7.25482 -6.83639 -0.133206 15
223 1 -11.3144 -0.817625 -3.43785 12
224 1 -2.82522 4.01275 -10.3598 11
225 1 -8.4589 -5.65291 -3.32716 17
226 1 10.5791 0.50634 3.90222 15
227 1 -1.93815 -1.23609 0.292087 23
228 1 -0.693112 -5.58953 -6.78216 18
229 1 -7.69786 6.94286 0.0461592 11
230 1 -5.48576 -2.05321 5.08044 22
231 1 -3.79614 -0.793875 -4.2007 24
232 1 9.87632 4.21295 -0.758024 13
233 1 7.90201 4.23824 1.76067 18
234 1 -2.67831 -6.20075 6.15878 12
235 1 6.522 -0.322807 -6.54431 15
236 1 1.77743 9.42851 -1.17223 16
237 1 3.72005 8.18466 7.52304 12
238 1 3.38765 9.32563 -4.18515 12
239 1 10.033 -1.16566 0.774689 15
240 1 -9.05744 -6.03194 -0.118367 13
241 1 -6.6294 3.06026 7.82057 14
242 1 5.04647 -1.05925 -3.61762 20
243 1 0.846616 1.58099 -6.64416 22
244 1 2.26103 3.36741 4.28634 26
245 1 -1.91773 1.68605 -4.91723 21
246 1 -3.24851 5.54336 4.5239 21
247 1 -2.9819 -6.12478 2.61947 18
248 1 4.62907 -8.73161 0.785888 13
249 1 -10.1474 -3.21418 -1.67121 16
250 1 -4.08545 4.06295 -3.63553 23
251 2 -11.032 1.23026 0.976802 10
252 2 10.5617 3.48574 2.08259 11
253 2 3.65753 -1.9217 7.34519 24
254 2 -2.8151 -2.09667 -6.97883 21
255 2 -10.4545 0.245344 -4.77366 13
256 2 -1.0384 -6.93529 2.69966 16
257 2 -1.70141 2.36978 7.4112 21
258 2 6.85559 -0.760232 0.581752 19
259 2 2.31596 -2.77972 -0.97546 19
260 2 -1.27633 8.11184 7.60217 13
261 2 -1.87478 6.03169 3.06826 24
262 2 3.94458 0.296929 -1.41498 22
263 2 2.14663 -7.24312 -5.22736 15
264 2 -5.06654 -1.38291 -10.6759 12
265 2 -0.555151 -7.4778 -7.09224 15
266 2 -3.06704 2.10818 -6.39243 22
267 2 -2.93704 -5.11984 -1.69982 21
268 2 -5.01492 4.92532 3.79233 20
269 2 9.36224 -1.08623 4.33223 15
270 2 6.03091 -2.23549 3.54664 21
271 2 -0.239567 2.12496 1.405 22
272 2 6.51976 7.93087 -0.320482 14
273 2 2.01171 7.49503 7.65291 16
274 2 6.07607 6.69579 4.69116 17
275 2 2.7487 6.23395 -7.22044 14
276 2 5.67802 -1.69685 -5.36031 18
277 2 -3.73423 0.2219 -8.91927 22
278 2 -0.789372 -5.87211 5.85341 14
279 2 -9.07706 3.27374 1.18844 16
280 2 1.20922 -4.96202 -6.90646 15
281 2 -1.95581 -8.11768 -0.285876 16
282 2 3.39004 -2.05406 -4.01796 22
283 2 0.597344 6.38114 5.629 19
284 2 4.43582 -5.39485 8.52005 13
285 2 -3.65764 -6.14461 4.46683 13
286 2 5.85108 -5.6721 2.97569 19
287 2 -0.504233 -7.01864 -3.1448 24
288 2 -0.848619 0.326385 -7.44729 21
289 2 1.7477 -4.76639 -3.55774 22
290 2 -6.76468 -5.09583 3.12617 17
291 2 -8.06951 -7.57474 -3.0045 15
292 2 -7.52819 -7.00857 -0.144525 16
293 2 -3.14381 8.04052 -1.19925 15
294 2 3.68254 3.44917 -8.83292 13
295 2 8.57333 5.21636 0.0265612 13
296 2 3.75557 3.42393 -5.63279 22
297 2 -1.42539 5.31497 -5.6896 20
298 2 -8.48558 3.4127 -4.04896 15
299 2 7.64734 2.34999 1.15905 21
300 2 1.50897 6.32213 -1.27051 21
301 2 -2.38344 4.20772 5.703 22
302 2 0.804359 6.75881 1.95868 18
303 2 -1.21067 9.41409 2.34927 13
304 2 1.61169 9.53747 -3.04896 14
305 2 2.27623 5.19945 10.0014 11
306 2 -6.5502 -0.396911 8.55101 11
307 2 2.62866 -3.73261 9.77619 14
308 2 2.94876 -2.28939 -7.1637 15
309 2 -2.51279 -9.39859 -3.33559 16
310 2 -1.74418 -4.66604 -4.82566 20
311 2 -5.79002 -0.78478 0.579718 21
312 2 -1.12342 1.39371 4.34153 23
313 2 -10.0819 -2.3554 -3.38324 16
314 2 5.58327 -3.87564 0.192443 22
315 2 4.02035 5.20286 6.45577 22
316 2 -4.07774 -2.72342 -4.14842 22
317 2 2.14848 0.780363 -5.44979 20
318 2 2.32762 3.16073 -2.55869 24
319 2 -5.08593 -4.53951 -6.15578 19
320 2 0.245574 -2.14362 -5.34624 23
321 2 7.76469 0.578698 -5.50759 17
322 2 -6.01495 -4.58186 6.12565 12
323 2 -0.124927 -2.58673 -8.93999 15
324 2 -1.92633 -0.180187 -4.45794 24
325 2 5.62505 6.244 -5.61674 15
326 2 -5.45525 -9.21053 -4.91948 12
327 2 -0.592429 -0.632639 -10.7519 13
328 2 0.518545 9.68403 5.23306 13
329 2 -5.10066 -8.02051 -1.63717 16
330 2 -7.55938 1.72721 6.58409 14
331 2 -5.98817 4.74488 7.16069 14
332 2 -4.4245 -2.40329 6.83861 22
333 2 1.4293 0.173058 11.689 11
334 2 -8.39821 0.843819 -6.49797 16
335 2 1.18852 -8.15492 1.19458 16
336 2 7.67131 1.08384 -2.07518 24
337 2 0.0236826 2.73582 -10.2279 14
338 2 5.42274 2.97634 4.64551 20
339 2 3.45157 8.12666 5.32845 16
340 2 -1.38638 -0.0605943 10.6503 16
341 2 -5.08122 2.51836 6.22624 20
342 2 0.882737 2.50081 9.11965 19
343 2 -6.32586 -5.07507 -2.97288 22
344 2 1.09263 0.0320706 -2.76908 19
345 2 5.3682 2.92084 -0.804744 21
346 2 -9.25064 -5.10103 1.53756 14
347 2 -5.74288 5.37099 -4.25687 13
348 2 1.94807 0.450044 -8.87176 15
349 2 -5.00276 1.54328 1.71848 15
350 2 6.25062 -0.573882 6.41237 22
351 2 -2.60334 2.9042 -3.46837 23
352 2 3.1773 -9.83512 -3.52354 14
353 2 0.49576 -9.72683 -1.70906 15
354 2 -6.10592 7.56691 -0.775501 12
355 2 3.56193 -3.6342 4.21292 23
356 2 1.11359 -0.851781 3.4046 21
357 2 4.62528 6.76115 8.33119 14
358 2 -1.66534 9.30154 -2.99427 13
359 2 -3.79296 -3.04889 9.77088 12
360 2 -4.65013 -2.31152 3.28109 22
361 2 0.541349 4.40818 3.61634 20
362 2 3.46988 2.08847 10.379 14
363 2 1.63465 5.42193 -4.70526 22
364 2 4.06082 -0.195997 4.3907 22
365 2 9.08854 -2.08317 -4.13368 14
366 2 3.94533 -0.620188 10.2908 14
367 2 -7.71366 0.443572 -3.14298 22
368 2 6.92986 5.9887 -2.59225 17
369 2 3.21101 5.01609 3.58629 23
370 2 6.37156 -1.91571 -2.52484 21
371 2 -5.68792 -4.41437 0.497175 21
372 2 5.38468 3.74414 8.47187 16
373 2 -1.63258 5.5979 0.17184 24
374 2 -6.50871 1.16568 -9.36734 14
375 2 8.21007 2.53223 7.6443 12
376 2 2.44864 3.6833 0.826111 22
377 2 4.83143 0.614256 -7.33561 16
378 2 9.35257 0.240555 6.81124 13
379 2 1.04242 -1.16372 9.38737 19
380 2 8.60498 -4.4187 4.01279 15
381 2 -1.69459 -1.87469 4.65317 18
382 2 -5.9454 -0.462944 4.25065 20
383 2 -9.00989 -4.96665 -5.01253 14
384 2 -7.77342 5.51597 -1.38479 14
385 2 -6.32898 3.17173 -7.18994 16
386 2 -7.72589 -2.25115 2.20638 20
387 2 0.304519 -4.27394 3.09088 20
388 2 3.74363 8.93744 -0.340211 15
389 2 -7.79863 -4.17537 -7.91813 11
390 2 10.2512 2.29498 -0.473833 16
391 2 -7.17149 5.6645 1.49767 15
392 2 8.29581 -5.3783 0.781592 15
393 2 -3.12605 -5.14074 7.60065 13
394 2 -5.34822 2.59512 -4.28355 20
395 2 3.1427 8.37227 -5.69624 12
396 2 -7.80843 3.64725 4.24249 13
397 2 -0.122025 3.27854 -1.18354 22
398 2 -0.658747 -4.28753 8.75524 16
399 2 -8.8973 0.438996 3.59731 13
400 2 -4.72372 4.66313 1.06583 25
401 2 -2.46549 3.05139 10.0021 15
402 2 -9.75775 -2.00126 -6.87069 13
403 2 5.05075 7.96644 2.31429 15
404 2 -0.42027 5.3015 8.50217 17
405 2 1.11443 3.24017 5.9095 22
406 2 -1.19638 5.80817 -2.76357 22
407 2 -8.26518 0.827631 0.127452 21
408 2 -2.42907 -2.66116 -10.5135 14
409 2 -4.3196 5.17124 -2.01544 22
410 2 -3.87965 -6.65663 -4.2529 22
411 2 1.2523 3.54566 -7.64142 18
412 2 5.71936 -2.79442 9.10842 14
413 2 4.03314 1.70688 6.96567 19
414 2 9.49177 -0.85011 -1.15006 17
415 2 2.0015 -5.14163 6.98852 16
416 2 4.95178 1.00407 -3.9839 23
417 2 7.40285 5.25882 6.62931 13
418 2 -6.75228 -2.43845 -1.34072 21
419 2 -0.163473 2.3504 -4.90464 22
420 2 -6.27615 2.70285 -1.03413 24
421 2 -7.28996 -6.94255 -5.94552 14
422 2 -0.880183 -2.7877 -2.60169 21
423 2 -3.38165 2.38953 -0.223989 25
424 2 -3.4271 0.337352 5.96394 19
425 2 -1.60224 -1.05341 7.89824 23
426 2 -0.0284392 -5.39119 -0.0664242 21
427 2 6.49318 0.517218 9.15142 14
428 2 0.0622722 7.80969 -4.95504 14
429 2 -2.09546 3.97351 -8.60146 14
430 2 4.98564 8.76775 -3.17382 13
431 2 0.197277 -9.7349 -5.06401 14
432 2 6.21716 -4.5352 6.03629 17
433 2 10.4714 2.25343 4.9411 12
434 2 -4.21123 5.42637 -7.24038 15
435 2 -4.71856 -4.49685 -9.14035 13
436 2 -2.1029 -4.9451 -8.0478 16
437 2 -4.43222 0.227392 -2.59859 23
438 2 -2.59529 9.05448 4.72007 12
439 2 -3.55703 7.64194 -4.58571 14
440 2 -7.21943 -2.19634 -4.5833 20
441 2 -3.94334 6.88089 6.03219 14
442 2 1.57393 0.291633 0.325728 22
443 2 6.43658 3.75999 -3.95652 21
444 2 7.39943 -4.46707 -4.19936 15
445 2 -2.51854 -3.9962 2.00409 20
446 2 -9.69175 3.07379 -1.4679 14
447 2 -2.57164 1.56582 -10.5747 14
448 2 3.5768 -1.60488 1.46302 22
449 2 4.40571 -6.71267 5.60989 15
450 2 -7.50377 -1.90978 5.63899 14
451 2 -5.08091 -0.157703 -5.95024 23
452 2 -8.2989 -5.01239 4.72388 11
453 2 4.54152 1.62987 1.70403 21
454 2 2.89581 -5.02452 1.10649 22
455 2 -10.6215 -0.148033 -1.68293 15
456 2 -5.20374 2.62792 9.34454 13
457 2 1.99909 -6.38179 3.83958 16
458 2 10.6952 0.345956 1.93082 13
459 2 2.45753 -6.94297 -1.46242 21
460 2 -4.41509 7.8601 1.77264 15
461 2 -6.81813 -1.74336 -8.01759 19
462 2 -3.96129 0.129538 9.57175 16
463 2 4.11864 -8.11526 2.51518 14
464 2 9.4839 4.29577 -2.61959 15
465 2 6.3839 3.0929 -7.00684 16
466 2 5.98148 5.04717 2.15429 20
467 2 -2.62498 3.4001 2.29789 22
468 2 8.30754 -3.00132 6.97352 13
469 2 3.98516 -4.658 -5.16613 18
470 2 -3.42968 -2.39275 -0.710589 19
471 2 -2.89647 -0.248741 2.33271 20
472 2 9.31945 -4.07757 -1.72297 15
473 2 6.04536 -9.84123 -2.79682 9
474 2 1.79594 1.80597 3.28379 20
475 2 7.68054 -7.12089 -2.18661 13
476 2 -1.36583 0.0373374 -1.14985 23
477 2 8.95889 2.99072 -4.96029 13
478 2 -9.89548 -2.20841 0.114227 16
479 2 6.97623 0.824345 3.69915 18
480 2 -9.22003 -4.79223 -1.64766 15
481 2 3.73859 -9.62156 -0.601842 12
482 2 0.331011 8.94455 -0.108476 14
483 2 9.57642 -2.75858 1.55006 13
484 2 4.22377 5.48381 -2.88446 19
485 2 0.853784 -2.77732 6.01068 21
486 2 -0.29571 -2.20236 0.715381 23
487 2 5.47371 -7.11483 0.00552013 20
488 2 5.34271 -7.18233 -3.85364 16
489 2 -2.79522 -9.54409 -6.28902 12
490 2 3.88479 5.74377 0.368681 21
491 2 2.55058 9.53655 2.74238 13
492 2 -4.2895 -6.74692 1.25198 17
493 2 -0.620658 -2.35663 10.9399 13
494 2 -3.58091 5.83309 8.78681 13
495 2 8.25481 4.41057 4.06973 13
496 2 10.4755 0.854111 -3.56765 13
497 2 1.13631 0.431083 6.46579 22
498 2 -4.40674 3.55803 -9.40896 14
499 2 -4.03359 -7.378 -7.34709 15
500 2 4.76387 -4.80457 -2.27274 23
