ITEM: TIMESTEP
22000
ITEM: NUMBER OF ATOMS
2000
ITEM: BOX BOUNDS pp pp pp
-30.0 30.0
-30.0 30.0
-30.0 30.0
ITEM: ATOMS id type x y z Coordination
1 1 -3.55583 3.50204 -14.073 12
2 1 5.05617 -14.4466 -3.19902 20
3 1 10.3762 3.18818 16.4309 18
4 1 10.2717 -18.8977 7.589 7
5 1 -3.40328 6.3159 3.52316 20
6 1 13.7114 -12.6972 -6.7899 21
7 1 -5.83371 -0.563944 -5.23051 19
8 1 4.74694 -11.0357 11.4964 16
9 1 -3.16881 -1.23334 -9.80791 20
10 1 -10.116 -8.20483 11.9292 11
11 1 12.9901 0.416557 -12.5415 15
12 1 4.685 -14.2685 2.64643 19
13 1 -8.577 -8.40969 9.17392 21
14 1 5.63988 -1.13425 19.7639 10
15 1 5.03057 -0.44612 10.9868 19
16 1 0.922078 5.05661 -4.88681 22
17 1 7.48305 -6.60251 17.5802 11
18 1 -4.74098 -6.95635 -12.5382 10
19 1 -7.6073 -3.19907 15.1909 11
20 1 16.8673 4.10437 14.1839 14
21 1 5.73773 5.99414 -8.13116 19
22 1 9.1094 -3.09839 -15.8727 19
23 1 21.6139 -2.18278 7.74891 11
24 1 -5.64404 2.36547 -8.3242 14
25 1 2.59858 -5.7914 -7.42142 25
26 1 -5.42323 7.02842 9.26675 17
27 1 5.05982 -14.2035 8.34353 19
28 1 10.9535 -15.1488 -11.1507 13
29 1 10.3064 -14.5949 2.83524 17
30 1 6.16713 -10.7399 -11.4446 22
31 1 -7.70148 -7.09157 12.6867 17
32 1 6.44943 -14.7188 -12.9489 9
33 1 10.1407 -10.9976 -7.97568 19
34 1 5.7718 1.371 -15.6187 14
35 1 7.06276 -3.31302 11.4222 21
36 1 2.54634 -15.3491 13.9244 7
37 1 11.1323 -7.22782 13.1052 12
38 1 -12.2524 -1.72355 5.49341 11
39 1 -9.45617 -4.60348 12.3575 16
40 1 -7.32634 -6.00272 3.43541 19
41 1 0.937699 8.85064 -2.39859 22
42 1 0.713738 -16.7221 -8.40479 11
43 1 11.9499 -8.50073 -11.0491 20
44 1 6.32646 -7.77563 -9.82211 20
45 1 2.31643 -5.4432 17.243 13
46 1 -5.37143 3.65319 3.39258 21
47 1 6.65029 4.34306 -11.1064 25
48 1 4.72502 8.31517 8.27718 19
49 1 -2.86515 3.10455 -8.1404 20
50 1 0.724042 10.5682 0.293089 21
51 1 12.794 -18.0034 1.41848 8
52 1 11.023 -8.01851 -2.67816 20
53 1 8.91686 -8.64956 -16.0564 18
54 1 -4.60147 10.0639 10.2311 15
55 1 -8.4825 -8.62837 -1.52621 19
56 1 12.706 -5.60075 2.82704 20
57 1 -7.40207 7.19367 2.14269 19
58 1 -5.12038 -11.7124 5.96819 19
59 1 3.08394 8.30226 10.8921 18
60 1 -6.3623 7.41505 -6.97728 18
61 1 -1.58259 11.7124 10.7532 15
62 1 -3.43324 -15.2232 6.3152 19
63 1 8.64619 3.32899 8.38854 22
64 1 7.1578 -18.7399 -4.66649 16
65 1 3.89848 4.22203 14.6529 24
66 1 -9.25252 -0.733246 -4.42513 14
67 1 -0.0288768 4.92897 -10.2562 20
68 1 13.3744 4.75983 14.1894 20
69 1 16.4791 -5.67759 -8.53223 15
70 1 15.7841 -14.2282 0.804617 12
71 1 -12.7354 -6.04184 0.867161 10
72 1 8.36304 8.50866 8.22742 19
73 1 10.995 -1.67363 17.6087 10
74 1 -6.87743 -14.8093 6.72109 13
75 1 -9.10932 -2.72873 -2.19582 20
76 1 15.5401 -4.04254 12.941 15
77 1 12.6733 -5.09168 -3.52765 20
78 1 -1.95017 8.97336 12.7369 16
79 1 11.9736 -2.37006 7.98714 20
80 1 1.07073 -8.61901 -7.57748 23
81 1 -5.05399 4.43406 11.5296 19
82 1 -8.53876 12.2344 -0.324848 8
83 1 -1.19058 5.28685 -7.07263 20
84 1 12.4724 -3.77041 -6.30897 23
85 1 12.5339 7.89581 -5.68394 12
86 1 11.3925 -8.53003 2.59091 23
87 1 9.53689 -12.4623 10.8098 14
88 1 -2.07125 8.21234 -1.52237 22
89 1 -6.33036 10.456 1.21754 17
90 1 -6.87379 -6.14808 9.68552 20
91 1 1.29351 5.17333 5.94686 21
92 1 -1.78986 -9.4228 15.2009 13
93 1 15.6493 -14.7821 -6.04562 12
94 1 -5.70228 -3.20525 9.4104 20
95 1 -6.69059 -11.4546 3.17724 18
96 1 15.7103 -14.5087 -2.63041 12
97 1 15.7135 -3.29913 -6.6031 20
98 1 1.20732 -6.32567 -15.4597 14
99 1 0.475939 11.5166 5.39606 19
100 1 -3.36553 4.41682 -11.3866 16
101 1 7.29608 3.98297 16.482 23
102 1 3.63888 9.03793 -2.18749 17
103 1 -7.36506 5.34347 4.22617 18
104 1 4.8924 8.75831 3.29811 20
105 1 0.754417 -11.7455 14.8056 11
106 1 20.0179 -1.21613 13.7699 12
107 1 2.49609 -9.23678 -4.90265 23
108 1 11.1858 -12.7405 -5.24332 16
109 1 1.22608 0.551828 11.4835 17
110 1 12.1444 1.15355 19.6118 13
111 1 -3.40443 -9.36512 0.444656 21
112 1 -4.31796 -9.8462 -5.62924 23
113 1 16.9442 -11.2698 1.34749 14
114 1 3.08952 6.2078 3.07873 22
115 1 9.44501 -1.69012 -12.6779 15
116 1 6.76543 15.7294 2.70929 14
117 1 -5.13139 -15.2151 -2.04527 14
118 1 -3.75486 -15.7553 0.716672 17
119 1 7.57535 -11.5176 -14.408 16
120 1 7.04442 2.96339 -7.90796 22
121 1 14.2161 -12.0956 -0.285652 19
122 1 4.24081 -17.0303 7.88067 15
123 1 -3.49154 -11.2326 2.82817 22
124 1 18.6583 5.26082 11.391 10
125 1 18.3617 -8.9615 -11.7239 10
126 1 -11.9364 -9.14347 2.26018 9
127 1 11.3062 5.06724 5.82318 23
128 1 18.945 2.14159 5.51334 16
129 1 -3.78222 2.45586 17.0275 13
130 1 -0.305507 5.94033 14.2037 18
131 1 5.20556 10.7612 -7.05513 15
132 1 4.16509 -8.74244 -7.62506 21
133 1 14.3123 -12.7115 -10.5939 15
134 1 9.44631 6.23064 -12.8988 13
135 1 10.6193 -7.24959 16.539 10
136 1 2.96621 -4.96402 -16.8399 11
137 1 -2.88418 5.15023 -4.59948 20
138 1 12.1183 2.09343 -4.98718 24
139 1 -4.7165 7.62748 -4.67914 18
140 1 -5.45718 13.3953 1.82573 10
141 1 10.3834 -2.81128 -7.99905 20
142 1 13.2869 -15.1117 3.19161 13
143 1 -7.35116 2.14541 -5.3758 17
144 1 -3.43092 7.81573 6.21148 21
145 1 16.6772 3.64274 -9.12011 16
146 1 10.4775 9.06416 -2.42092 17
147 1 0.355359 15.5832 1.44913 10
148 1 12.3145 8.07992 -0.284597 21
149 1 2.7009 5.61591 -2.70447 22
150 1 3.34098 10.5148 -4.49171 20
151 1 8.46299 5.90541 -7.24516 19
152 1 -6.81874 -9.53052 7.11101 20
153 1 -8.09594 4.28198 -6.91385 11
154 1 3.33879 -9.55443 -10.3199 22
155 1 11.8904 -18.1814 -9.91268 9
156 1 15.2745 8.07022 8.87123 17
157 1 3.81113 5.99468 12.1357 21
158 1 -10.3438 2.72834 -4.4023 8
159 1 -3.9027 7.91429 1.14999 19
160 1 19.1734 -3.41659 -1.59637 18
161 1 -4.32467 1.14531 -11.9318 13
162 1 15.4123 0.461858 17.2039 18
163 1 15.8309 11.12 4.86376 9
164 1 3.62043 2.75062 11.6041 19
165 1 8.44095 -17.3143 -10.7959 12
166 1 0.577492 11.0215 8.55571 21
167 1 3.32951 7.81218 -4.99912 21
168 1 9.90183 -6.44895 19.7995 8
169 1 -4.97604 -8.13868 8.46516 18
170 1 5.77327 -15.3844 -10.2452 17
171 1 -3.90127 6.02405 -8.05576 17
172 1 1.62077 -11.8826 5.73454 20
173 1 7.53477 -17.194 -2.09257 17
174 1 3.45074 9.45974 -13.0483 8
175 1 -9.97641 -2.16921 7.54323 15
176 1 17.973 4.40374 -3.68657 10
177 1 -5.02132 9.24932 14.2035 8
178 1 1.85685 -8.76036 14.6195 17
179 1 -2.51092 3.1402 -2.00837 19
180 1 10.681 13.0297 5.66966 11
181 1 5.52478 2.72552 8.81644 19
182 1 17.3041 0.547702 13.3885 14
183 1 -3.5002 12.0185 4.62043 12
184 1 14.4128 -6.97581 -10.0466 19
185 1 -3.42199 12.6789 8.696 11
186 1 -4.1127 2.19514 -5.1766 19
187 1 18.0309 -8.55686 1.2843 14
188 1 -4.06064 -10.9034 8.58793 22
189 1 -10.1395 -8.14919 5.96237 15
190 1 -6.51127 -10.2615 0.0258882 23
191 1 12.573 4.57751 19.3261 15
192 1 -9.24656 -0.363745 0.733248 18
193 1 1.43918 -17.7223 5.425 18
194 1 9.45432 -11.6152 -2.41151 21
195 1 3.10336 8.06542 5.90105 23
196 1 8.64803 5.03 11.1329 20
197 1 -4.24846 -3.41466 -4.88957 22
198 1 -1.83581 8.07984 -10.2514 14
199 1 -7.44729 -5.58631 -2.11194 22
200 1 -6.42311 -3.92211 11.9806 19
201 1 3.38143 -15.0612 5.16548 20
202 1 3.43515 -14.1651 11.2318 15
203 1 -6.86438 11.1246 4.33244 14
204 1 21.2132 -0.652884 -0.714204 12
205 1 12.4422 0.282778 -2.44854 24
206 1 0.456672 -10.6465 -9.70875 15
207 1 9.86215 -4.13858 12.8048 16
208 1 4.27505 -21.0039 2.65369 13
209 1 2.34822 7.63253 -10.0028 19
210 1 11.4997 -11.9475 -11.2073 21
211 1 12.6562 -3.55702 -12.1762 17
212 1 6.15011 -1.20289 -17.4996 12
213 1 -2.3874 -6.28185 -4.82146 22
214 1 5.71004 13.3848 -5.24972 13
215 1 -4.80589 -14.0927 9.60598 16
216 1 12.5588 12.2937 3.15951 12
217 1 -5.72829 -0.701465 16.9872 11
218 1 -0.601416 7.56352 -4.79965 20
219 1 17.0045 -5.68367 6.78473 22
220 1 0.307678 -6.97979 -10.125 20
221 1 0.107637 10.8912 -8.19872 11
222 1 7.16349 -0.829375 -10.3544 24
223 1 -1.7557 -12.3073 5.57611 18
224 1 -12.0438 4.76599 2.7373 8
225 1 -1.77582 4.45118 11.526 22
226 1 7.88847 -13.0111 -9.471 17
227 1 -1.78509 -13.9281 2.70237 20
228 1 10.5911 -19.9632 1.21654 9
229 1 14.5946 6.70997 18.5103 12
230 1 9.75373 4.93424 -10.163 20
231 1 2.33371 7.71945 0.667426 21
232 1 -8.07001 -8.76158 2.08488 23
233 1 -11.4363 8.2781 1.75151 8
234 1 7.47971 1.80604 11.2484 21
235 1 3.92398 -22.0088 -0.703909 11
236 1 17.6016 -0.882683 -0.0332462 19
237 1 8.32985 4.96203 5.54893 22
238 1 -4.91649 -1.34871 11.8313 19
239 1 -9.20395 -6.78343 -4.36108 17
240 1 8.78091 0.27664 -14.909 17
241 1 13.186 -5.81539 18.3603 11
242 1 15.7186 5.80406 -11.6306 12
243 1 7.70613 -14.8795 -3.78449 18
244 1 -1.77175 -1.95018 -12.5365 20
245 1 5.71391 -16.567 5.55201 18
246 1 21.8567 -0.81604 -3.88742 12
247 1 -3.46333 -5.14828 8.52763 20
248 1 5.69351 -19.6015 -2.39611 14
249 1 -5.59657 -6.60209 -4.69521 20
250 1 7.69768 10.7765 -0.274037 22
251 1 10.7165 -8.03629 -18.0778 10
252 1 10.2118 -0.960709 13.0953 17
253 1 17.2332 -2.05287 -3.71536 20
254 1 14.1706 -6.91137 -6.44477 22
255 1 -4.47616 -5.11312 -7.22235 19
256 1 -5.91529 -2.19273 -8.8903 16
257 1 -2.83046 -17.3198 3.66698 15
258 1 14.2506 -3.84706 9.86305 18
259 1 13.494 -5.47129 7.13966 22
260 1 0.286376 -14.3841 -10.3975 12
261 1 6.53886 -11.5855 8.54131 20
262 1 3.60089 0.980406 -12.9524 21
263 1 7.75865 8.93737 2.87992 22
264 1 -1.76965 -8.23541 3.30011 21
265 1 2.40058 14.6479 7.08752 9
266 1 -1.81629 -3.65542 14.5496 20
267 1 -6.94856 -9.40688 -4.34637 17
268 1 -2.22742 -12.4327 -10.3683 12
269 1 2.30002 6.37189 -13.6727 16
270 1 0.794943 -12.3119 -5.33064 21
271 1 1.22378 -12.7272 10.2365 17
272 1 13.3908 -10.3723 -13.1029 16
273 1 18.5388 3.40183 -11.2441 8
274 1 17.6459 -0.769735 3.98326 20
275 1 -4.62105 -6.65776 11.1114 22
276 1 3.03104 -11.1036 3.10006 23
277 1 14.9659 0.236853 20.8705 9
278 1 -0.819125 -20.0036 2.90132 10
279 1 6.49789 -14.8124 -0.483514 17
280 1 -5.49788 9.22686 -2.37419 19
281 1 11.1282 -1.22939 -16.6231 13
282 1 1.36489 -11.776 -12.1924 15
283 1 -5.11796 -8.62036 14.3777 12
284 1 5.1887 6.43428 17.0047 14
285 1 7.19816 -13.5486 3.63484 20
286 1 2.6996 -11.7499 -7.53428 16
287 1 -6.61727 4.91606 -4.32109 18
288 1 17.2025 -0.263561 7.20382 20
289 1 -4.10975 -0.102112 -7.20013 19
290 1 1.64362 1.7413 -10.701 21
291 1 10.5699 -18.1357 -4.55479 17
292 1 -4.65153 11.8826 -0.788589 11
293 1 3.7415 10.5706 7.96899 16
294 1 18.6237 -0.963493 10.7643 20
295 1 -4.0719 -3.36885 6.01987 20
296 1 8.14608 -7.84611 13.76 14
297 1 -2.28282 3.30142 3.01724 21
298 1 13.6076 -10.4113 -9.24841 21
299 1 16.8098 7.35277 -9.14946 10
300 1 6.06418 -11.0485 3.25143 22
301 1 5.30045 -0.564402 16.3974 19
302 1 -11.0518 -4.66573 5.61119 18
303 1 1.7433 -17.9105 -0.09951 19
304 1 -4.36115 1.94927 13.3899 19
305 1 -7.01028 7.84113 11.9019 10
306 1 -11.4535 -2.52662 10.7595 12
307 1 -11.3538 -7.30014 9.20866 17
308 1 20.6154 -7.80221 -5.091 10
309 1 -6.64874 -9.42421 11.157 18
310 1 12.0092 -3.99712 -14.9381 16
311 1 16.1726 -10.6986 -12.7822 10
312 1 3.75808 15.2027 1.13245 15
313 1 -8.93655 8.67151 -0.957179 11
314 1 12.3473 -0.44426 10.5672 22
315 1 -5.3469 -6.50708 5.70571 20
316 1 13.3181 -15.2742 -0.251445 18
317 1 -0.158249 6.25989 3.38221 25
318 1 -0.409373 7.82271 6.4174 22
319 1 8.77391 -13.8913 7.70774 17
320 1 16.5922 -11.6156 6.80564 10
321 1 1.39371 2.80058 8.07038 19
322 1 -2.24598 -8.26194 -2.64992 22
323 1 4.18899 1.57173 17.4098 19
324 1 -2.35004 10.5991 7.36785 19
325 1 12.2391 6.33529 16.5782 21
326 1 0.753299 10.7428 -5.06965 18
327 1 8.19926 -6.00401 -16.9295 18
328 1 10.8281 -12.9376 -14.2065 12
329 1 -1.96397 2.32394 14.5284 21
330 1 -5.60203 -0.849168 5.58103 20
331 1 -0.904446 -5.42039 -7.5359 26
332 1 -0.616941 8.07005 0.935493 20
333 1 12.1043 -8.57425 7.55506 20
334 1 -5.17508 -14.4708 3.89172 18
335 1 13.3512 -9.71584 4.49577 19
336 1 -3.09388 -14.9899 12.1698 15
337 1 -9.58582 5.70203 1.65264 18
338 1 4.83266 -7.74203 12.9102 19
339 1 13.8931 -17.014 -3.80546 12
340 1 -0.80481 0.453137 -8.18919 22
341 1 15.3425 -4.39304 -13.5396 14
342 1 9.69672 11.6927 3.28154 21
343 1 -5.93641 -2.34052 -2.41848 20
344 1 7.41118 -8.31836 -13.1416 22
345 1 12.355 0.428715 -8.06908 19
346 1 -2.22008 -17.5201 -2.49179 17
347 1 -8.68112 -13.3934 -4.61339 10
348 1 -1.73504 -12.3614 0.251368 20
349 1 15.1823 2.92561 19.5406 14
350 1 15.58 0.516562 -4.07333 20
351 1 -6.08868 4.92393 -9.26912 14
352 1 4.80737 11.212 5.27575 17
353 1 -11.0377 -5.14633 -2.31351 16
354 1 -3.13496 5.66526 8.83734 21
355 1 -1.47752 9.54458 3.38902 22
356 1 -0.0175787 5.68181 9.11559 21
357 1 14.796 4.00531 17.065 20
358 1 20.57 -5.47006 -7.60605 12
359 1 11.0097 -3.91844 20.122 10
360 1 19.3798 -2.82964 -9.58097 9
361 1 -6.15271 -14.9056 -5.09719 14
362 1 5.77994 -11.3092 -2.6119 21
363 1 6.85839 7.90295 5.75288 21
364 1 -2.29145 -0.651608 -4.84405 22
365 1 11.1126 -12.6785 -0.0616852 20
366 1 19.0432 -8.46708 6.88044 11
367 1 -3.72774 -5.58014 -2.10809 21
368 1 -0.196384 -10.9417 3.41828 21
369 1 -3.48014 -9.37455 12.1545 20
370 1 1.73611 9.13998 3.19543 19
371 1 -10.1762 -10.1227 -3.86273 13
372 1 11.9858 2.16862 13.5572 22
373 1 -4.06121 2.12698 0.534492 22
374 1 7.9725 10.8866 -5.6943 13
375 1 5.63707 13.1943 7.06228 10
376 1 -4.92662 -12.5023 -0.152082 20
377 1 6.1156 -9.29017 -5.18364 21
378 1 -8.77274 -6.01637 6.78453 17
379 1 -5.64919 3.47627 -1.69211 19
380 1 11.2897 -12.8034 5.52667 20
381 1 3.34306 -17.1596 2.82775 20
382 1 13.7625 6.92661 11.3143 22
383 1 7.76355 4.01537 -14.6971 14
384 1 -8.68036 -3.32965 -8.1995 10
385 1 5.1099 10.0376 -10.1193 11
386 1 -9.09859 3.38716 -1.41597 14
387 1 -2.0506 -12.3374 11.0157 20
388 1 18.0347 -2.8216 1.53841 23
389 1 -1.28179 5.53084 -14.8087 10
390 1 1.25514 -6.90706 11.8201 19
391 1 -9.14591 -6.06697 0.324015 22
392 1 -2.00912 3.05013 8.47032 22
393 1 -6.77591 -13.9959 1.08319 15
394 1 13.9317 -7.85094 -3.42731 22
395 1 -7.5663 -3.5883 5.58072 15
396 1 -11.1339 -0.828436 3.27505 15
397 1 -9.6498 2.46291 3.796 17
398 1 5.14202 -7.9541 8.71876 21
399 1 -1.66899 1.85855 -10.606 19
400 1 11.026 -14.9505 -2.51705 20
401 1 5.07138 -13.8827 -7.30104 21
402 1 3.14938 -5.15608 13.9009 21
403 1 -0.38795 -3.11072 -15.6782 11
404 1 11.6024 -14.41 8.39369 9
405 1 6.09414 8.22198 -6.03798 21
406 1 -7.36676 7.85541 6.66858 15
407 1 -1.31433 -5.75756 17.0577 12
408 1 -2.69928 -9.48622 -12.13 12
409 1 -1.79177 -8.23447 8.17401 22
410 1 10.8829 -8.93926 9.99619 15
411 1 7.39639 -2.95784 -7.79937 25
412 1 13.44 -11.3383 7.1241 15
413 1 15.7212 2.65716 -5.41846 21
414 1 4.64464 -2.56595 13.6459 16
415 1 4.07083 10.7169 0.623 21
416 1 15.0275 -6.57384 4.53102 21
417 1 3.27768 -15.3155 -0.0877982 24
418 1 -1.12717 4.49863 16.8591 15
419 1 -0.00706942 13.9388 9.68292 11
420 1 -1.50171 -11.5705 -7.52494 20
421 1 13.633 12.7452 6.68748 11
422 1 12.069 2.92964 8.27718 23
423 1 -0.823177 -1.74175 11.5243 18
424 1 -0.323699 -11.2149 -1.95277 23
425 1 -5.20021 2.68186 9.23641 16
426 1 -5.34416 -8.29802 -2.5864 21
427 1 0.219068 7.25058 11.273 21
428 1 2.07988 -15.3191 -5.37088 21
429 1 3.97689 -10.4407 -13.2643 17
430 1 0.270852 -18.8459 -2.73954 18
431 1 0.0172989 -9.28514 6.08402 22
432 1 13.0401 -3.44217 4.73442 23
433 1 0.052808 -6.2947 14.7794 18
434 1 -3.62178 6.98081 -12.9006 10
435 1 12.8938 0.177378 2.54047 22
436 1 -4.24794 -13.5063 -7.31274 15
437 1 -1.55459 13.5883 -0.201575 15
438 1 3.74096 3.08246 -7.74115 20
439 1 2.13668 4.90841 16.397 15
440 1 -7.23293 0.52883 3.2167 17
441 1 -0.762245 11.4201 -1.81663 16
442 1 9.22661 14.0503 0.527569 13
443 1 -2.30371 -8.66051 -7.57211 18
444 1 7.49247 1.87362 18.4451 16
445 1 9.41462 -18.0213 -7.40564 15
446 1 7.39221 -4.46635 -13.1483 17
447 1 9.17232 -19.964 -1.79549 13
448 1 -8.78467 2.49508 9.38798 13
449 1 7.71637 6.09011 18.2317 13
450 1 14.4255 5.7037 -0.358498 23
451 1 5.93274 7.73246 0.221444 20
452 1 -1.1802 2.18763 -16.0724 9
453 1 5.65979 0.02327 -7.915 24
454 1 8.20454 -11.466 5.78787 18
455 1 -11.3768 -2.82371 0.178666 16
456 1 10.8601 7.45874 12.1751 19
457 1 3.65945 -1.42333 -15.4749 18
458 1 12.9849 2.57413 -0.0400045 23
459 1 7.76452 12.9061 -2.82627 13
460 1 12.6127 -9.33905 -0.426834 20
461 1 22.4192 -3.31366 -1.7472 10
462 1 2.14396 -4.17573 -10.4062 21
463 1 4.88041 -12.3488 5.86322 23
464 1 -0.427444 -17.6317 12.3914 13
465 1 3.8479 -10.5823 13.9715 12
466 1 -2.43222 -2.76223 -7.88291 21
467 1 -9.18833 -12.6476 6.49179 12
468 1 3.52388 -15.6554 -8.87361 20
469 1 12.7111 11.5687 10.1704 12
470 1 3.65786 -4.18289 -13.5609 19
471 1 7.65461 -4.09365 19.1455 12
472 1 -8.64194 -1.63578 12.1104 17
473 1 1.34017 -21.7155 -2.62928 11
474 1 -7.34815 -3.15649 0.225464 18
475 1 18.8247 -9.97696 -5.70876 11
476 1 19.276 -5.66326 1.10288 16
477 1 -4.03431 6.19293 -2.08166 22
478 1 9.69308 -9.32985 -5.15111 22
479 1 6.76619 1.59938 -13.0989 19
480 1 12.8928 -9.81724 -5.52427 20
481 1 -2.45955 -0.127729 16.9287 18
482 1 8.25442 11.0552 5.60791 18
483 1 1.64846 -10.4367 -15.4283 10
484 1 9.51188 -3.77763 -10.9537 21
485 1 -0.434485 -9.70602 11.5557 23
486 1 -1.52997 13.5184 6.21993 14
487 1 -1.71025 -7.53251 -13.8504 11
488 1 -12.1823 -3.55343 3.05939 14
489 1 8.68983 -13.1175 -12.5279 16
490 1 -2.43713 -16.8063 9.67766 14
491 1 7.9357 8.97759 -8.47194 13
492 1 20.162 0.694786 7.5234 14
493 1 14.1301 3.41898 -2.83083 21
494 1 -8.4834 -11.4063 -2.22017 18
495 1 7.81422 -11.8595 0.0609316 20
496 1 6.74625 -8.4327 -18.1562 10
497 1 -9.28885 10.6916 6.53039 8
498 1 9.02212 -5.29767 -8.30655 22
499 1 16.5075 -3.56316 4.55197 23
500 1 5.14183 11.8921 -2.20104 20
501 1 10.0873 -9.2123 5.39169 20
502 1 13.443 -0.753894 -5.84229 21
503 1 8.64637 9.04277 13.3236 15
504 1 -7.03235 -0.16346 8.43045 19
505 1 16.0694 4.74391 10.3574 18
506 1 13.7869 -2.58352 18.9316 12
507 1 3.57413 -6.47689 -10.3144 22
508 1 -0.962205 -9.48271 -4.86094 19
509 1 7.05639 -5.07942 13.5353 21
510 1 15.2603 6.43976 15.7102 17
511 1 10.3944 3.10322 -7.72884 23
512 1 -5.82416 5.2191 0.99409 22
513 1 6.77083 9.21831 -2.93438 21
514 1 15.9191 -3.97221 16.9397 11
515 1 15.077 -1.52613 -11.5202 18
516 1 16.4111 -11.301 -2.00509 13
517 1 16.6195 7.02591 12.5766 13
518 1 -9.62956 -12.1059 1.17798 15
519 1 -3.05769 8.97852 -7.06526 17
520 1 2.41618 -1.59114 11.972 19
521 1 -9.99475 -0.237439 9.47209 13
522 1 3.25729 4.30625 -11.1663 20
523 1 10.4188 -16.094 5.68133 14
524 1 10.6862 -0.972436 -10.3778 19
525 1 2.85253 12.5668 -6.70541 13
526 1 0.828619 -8.76405 -12.9505 19
527 1 7.62778 -16.8945 8.66214 11
528 1 -10.0927 -10.1095 -0.283895 16
529 1 5.5783 6.57393 -13.7951 15
530 1 0.862319 3.46287 13.9324 22
531 1 -12.6744 -5.65048 11.0881 9
532 1 11.1109 5.0964 -0.0447892 21
533 1 6.07106 -10.9305 -8.15302 25
534 1 10.0986 -5.38756 7.89087 18
535 1 14.1578 -2.52395 -3.41562 22
536 1 -5.43064 5.00414 7.09067 17
537 1 9.51875 3.86598 19.5265 11
538 1 4.7355 14.9602 -2.23975 11
539 1 20.0457 -8.76257 -8.53841 12
540 1 11.9623 10.0072 12.3817 16
541 1 5.58547 -1.94841 -13.0882 19
542 1 -1.42762 -17.9541 6.6686 13
543 1 4.2997 -2.87274 -7.63145 24
544 1 12.2427 -7.48931 -15.4042 17
545 1 4.35123 10.677 11.3667 12
546 1 13.7552 -2.53422 -8.65705 21
547 1 5.33801 -7.16226 -15.7586 18
548 1 1.44724 -12.2623 0.717081 21
549 1 -5.791 -7.96124 -7.6262 15
550 1 16.0573 -3.55277 -1.20871 23
551 1 17.84 3.46188 2.5861 14
552 1 12.2998 -5.28622 -8.97584 23
553 1 17.3873 4.69523 18.186 9
554 1 11.6925 -15.7396 -6.16843 17
555 1 9.27097 0.833722 -17.6286 10
556 1 12.7073 7.72766 5.94546 19
557 1 -3.9459 0.360368 3.26514 22
558 1 13.926 8.30761 14.1099 16
559 1 12.8165 6.01199 2.54335 21
560 1 17.2049 -9.73697 4.4281 15
561 1 12.1215 2.22565 -10.5123 18
562 1 15.443 -1.70449 11.1243 17
563 1 19.0363 1.86882 10.1266 14
564 1 8.15787 -6.41903 10.3952 17
565 1 15.7504 6.47499 -3.04384 18
566 1 5.26195 -4.32079 16.6283 18
567 1 21.5344 -2.05988 -7.38851 11
568 1 13.8502 0.44799 8.02358 22
569 1 0.969831 -2.81467 -7.52295 24
570 1 16.0512 2.48285 -1.09005 18
571 1 18.6537 -6.04659 4.14922 17
572 1 -3.79412 7.21533 11.9492 22
573 1 10.629 6.9305 18.735 12
574 1 17.3906 -3.85438 9.52155 19
575 1 6.85675 5.6801 7.87627 17
576 1 6.87958 6.07896 14.1964 20
577 1 15.4762 -2.86822 6.90877 19
578 1 1.28124 -21.6291 0.743401 11
579 1 2.22977 5.99453 -7.80778 19
580 1 14.2644 8.41233 -9.60244 10
581 1 19.7942 -6.1195 -10.257 11
582 1 1.78526 13.627 -0.273771 17
583 1 4.72151 -20.1735 -6.32747 8
584 1 18.4205 -11.3618 -9.80337 8
585 1 -12.7202 -3.80729 8.27006 11
586 1 0.770642 2.97772 -7.68168 22
587 1 -1.68342 -18.1304 0.588917 16
588 1 -0.974913 -3.90393 -10.5618 18
589 1 -4.01845 0.153171 -1.9762 21
590 1 15.3537 -12.9595 3.6849 13
591 1 17.6359 4.92752 5.57831 17
592 1 3.40702 -11.0374 8.77431 25
593 1 -10.0669 -3.90055 -5.33738 12
594 1 10.8073 -4.9054 -17.461 15
595 1 1.5893 3.08819 19.093 12
596 1 10.7271 2.89686 -13.1562 17
597 1 19.0588 -3.95289 11.9606 14
598 1 8.89797 2.23787 -5.08667 24
599 1 14.5781 5.2635 4.86612 19
600 1 2.65193 -18.1502 -6.56577 17
601 1 -3.41717 -6.02694 13.7584 20
602 1 18.6845 -3.30733 6.53642 19
603 1 3.06606 7.33898 14.5407 13
604 1 11.8051 6.12174 -8.63135 14
605 1 -7.53711 7.608 -4.05375 13
606 1 12.1644 8.58043 9.21968 23
607 1 -1.65711 -14.2628 -1.70114 18
608 1 14.3079 -8.36221 1.97846 20
609 1 14.4355 9.27479 2.46992 13
610 1 -2.64031 1.02399 11.0538 18
611 1 -5.27071 -8.49782 3.22091 16
612 1 -8.03741 -5.74543 -8.03961 12
613 1 12.8141 -4.71888 15.1398 13
614 1 -0.0357098 -14.5423 13.2966 16
615 1 18.1787 -1.27349 16.2511 11
616 1 -2.40172 10.9247 0.526128 16
617 1 14.6607 3.20462 2.08478 20
618 1 13.2398 2.55439 4.97981 21
619 1 14.168 -1.43403 -14.9852 12
620 1 -2.20204 -2.50919 8.47334 21
621 1 16.7967 -6.72997 -12.0679 13
622 1 16.2356 -12.4947 -8.22267 14
623 1 10.2885 1.93356 11.2229 21
624 1 6.34367 5.91955 2.54178 24
625 1 -4.60267 -3.68104 15.9549 14
626 1 15.9603 0.387099 2.31946 20
627 1 4.69259 -7.06907 15.5453 17
628 1 6.32635 1.57362 14.692 19
629 1 4.28748 -7.66993 -13.0941 20
630 1 -0.868817 0.0766585 19.9903 7
631 1 7.18089 -1.59879 14.419 19
632 1 -0.0775388 -17.4453 3.08495 21
633 1 16.8192 5.47061 -6.34535 15
634 1 8.52518 -15.2712 -7.68791 19
635 1 9.05459 7.98206 0.546953 22
636 1 16.1212 7.76282 5.51191 17
637 1 8.41201 -2.68889 -18.4934 13
638 1 6.14621 13.5033 0.0887887 20
639 1 11.1389 8.91083 2.99652 21
640 1 -7.24317 -14.0717 -7.97872 7
641 1 10.0228 -9.5886 -13.0635 22
642 1 -9.27521 9.96891 1.6635 14
643 1 12.7397 -11.5712 -2.92766 18
644 1 15.8922 2.00764 -11.113 16
645 1 13.4904 9.45967 -3.24453 11
646 1 -3.80361 2.28959 5.84793 24
647 1 10.678 3.10818 -2.3829 22
648 1 17.9306 1.47071 18.8088 10
649 1 18.2708 -3.78196 14.8574 10
650 1 0.892377 -18.4138 8.94679 11
651 1 0.0635829 7.51752 -12.1572 14
652 1 6.43016 8.19403 10.9787 19
653 1 14.9573 -7.95805 -13.437 14
654 1 12.7528 1.15818 16.3745 17
655 1 9.55531 15.184 3.09645 9
656 1 13.659 5.74543 7.92086 19
657 1 15.6255 -9.20292 -6.60452 20
658 1 15.9515 0.995423 10.2551 18
659 1 -9.17679 -4.59085 9.29931 18
660 1 8.62785 -17.0399 3.18441 12
661 1 5.98214 -5.99483 -7.71332 22
662 1 -2.99992 16.0854 1.46197 5
663 1 11.0484 9.90318 7.36027 17
664 1 -10.4534 -6.67662 3.3513 19
665 1 2.77051 1.23377 14.3563 18
666 1 4.87826 3.63143 -13.984 18
667 1 0.0998858 0.065199 -14.5215 14
668 1 10.9876 -19.3699 4.48318 9
669 1 10.2413 4.82826 -4.99484 22
670 1 -10.3722 0.786912 12.1114 8
671 1 9.09517 -6.71321 -10.5638 21
672 1 7.37969 -11.1837 13.2095 11
673 1 2.70574 12.3305 2.86496 22
674 1 0.460085 -0.252266 17.9566 15
675 1 -3.04611 -6.97012 -9.73485 15
676 1 2.51865 -15.0671 -11.7132 10
677 1 -3.12204 -16.0975 -4.56544 15
678 1 0.125343 8.30119 -8.00741 16
679 1 11.3292 -6.64474 -5.6393 22
680 1 1.03723 3.95597 11.1492 16
681 1 7.86636 -12.0962 -5.47514 19
682 1 7.15023 -20.8468 0.936364 13
683 1 8.3125 -8.33707 7.85598 20
684 1 19.0111 0.709619 -2.65143 15
685 1 5.4875 -16.1872 -5.78399 18
686 1 -6.98594 2.12346 5.9726 23
687 1 -1.13779 -20.8197 -1.42535 8
688 1 -4.43083 -10.7879 -9.16646 15
689 1 -2.53815 -2.37384 18.3439 12
690 1 -0.169897 -14.9874 5.38745 22
691 1 18.5698 2.92901 -7.46458 12
692 1 1.19973 14.6522 4.8052 12
693 1 -0.715938 0.0710095 8.74107 21
694 1 -9.44966 8.09137 4.54782 15
695 1 14.5647 -2.93291 2.39446 23
696 1 -6.82274 -4.19276 -11.1058 12
697 1 4.22607 4.8437 -5.69443 20
698 1 15.2926 0.46109 -8.50391 18
699 1 9.27971 3.87912 13.6548 22
700 1 16.0099 5.95226 2.37754 19
701 1 -7.70271 0.00281538 -7.86796 12
702 1 -3.66139 -11.217 -2.11353 18
703 1 3.07907 -2.11927 17.7827 15
704 1 12.08 1.35407 -15.5694 11
705 1 15.2898 9.51279 11.488 13
706 1 4.30985 -5.08296 11.1573 20
707 1 -0.916371 -18.0392 -6.02325 13
708 1 1.55378 -20.2277 3.69252 14
709 1 1.27718 -7.72085 8.73405 20
710 1 15.303 2.93837 7.84933 21
711 1 11.1985 -8.49186 -8.33952 22
712 1 -2.3112 5.24459 0.726265 23
713 1 9.6287 5.94233 2.81804 23
714 1 -1.93037 -6.44068 5.65677 21
715 1 12.8971 6.31348 -11.8856 10
716 1 1.35372 -20.557 -5.42595 10
717 1 4.71958 -18.5875 -0.0524113 16
718 1 9.46537 -15.033 -0.264614 17
719 1 8.75163 0.236156 -7.88139 24
720 1 7.96299 14.8042 5.99432 10
721 1 -3.38499 -4.36535 -14.2987 11
722 1 7.93242 -1.34117 18.0149 16
723 1 2.30406 1.84563 -15.4996 11
724 1 -3.85861 -3.9914 -10.1755 19
725 1 -5.36107 -6.79753 0.31545 21
726 1 1.8405 13.3459 -3.06922 14
727 1 3.01319 -8.47484 -17.6073 9
728 1 -2.2084 -12.4841 -4.80696 21
729 1 13.7652 3.45262 -12.9835 12
730 1 15.9782 -8.97905 -0.759202 18
731 1 -2.67283 7.60063 15.6646 11
732 1 9.5505 -11.2985 3.04141 24
733 1 21.6721 -4.78089 -4.92963 10
734 1 15.6141 -6.99055 9.57879 13
735 1 3.21071 5.34733 8.78716 22
736 1 -7.18894 -0.277754 14.3165 12
737 1 -6.28394 2.92042 15.17 11
738 1 2.20427 -13.9067 7.7835 21
739 1 14.548 -0.742696 5.23748 24
740 1 14.8012 1.84131 14.1607 17
741 1 -11.0873 0.661819 -2.29967 11
742 1 14.3192 -6.04814 -0.68214 22
743 1 -2.5987 10.3311 -4.23935 15
744 1 6.41955 12.3777 2.48379 20
745 1 7.15231 -19.196 7.59064 9
746 1 8.63128 -3.74881 16.212 16
747 1 1.83448 8.00002 8.19794 18
748 1 2.2837 -16.4501 10.6031 16
749 1 -3.75772 -3.60754 0.440044 19
750 1 8.70499 -0.435912 10.0379 17
751 1 -11.3449 -7.61624 -2.03454 13
752 1 5.603 8.87129 14.0991 13
753 1 9.07273 6.16873 -2.23171 21
754 1 -9.59806 -10.5991 3.74811 13
755 1 1.91056 -14.0016 -1.92623 21
756 1 12.6672 -2.84841 12.182 17
757 1 19.4117 -6.47655 9.59004 12
758 1 11.7694 4.5534 11.6983 19
759 1 4.17689 -12.2944 -4.91351 22
760 1 0.570536 -1.11972 -10.3626 23
761 1 -2.84693 -0.952506 14.0861 17
762 1 4.55125 15.027 4.76212 16
763 1 21.3781 -2.51746 1.62105 13
764 1 7.0628 5.07824 -4.98414 20
765 1 -6.06879 6.08396 13.7311 12
766 1 10.2122 6.39503 8.33465 22
767 1 17.6802 -6.62463 -5.93314 16
768 1 -0.328038 -15.3131 -3.72061 18
769 1 20.4327 -3.53196 9.742 14
770 1 8.87801 -10.1431 -10.461 22
771 1 0.91226 2.55405 16.5168 20
772 1 12.8163 -17.9861 -7.03971 11
773 1 5.03528 1.92082 -10.7001 20
774 1 2.57277 -11.1217 -2.37577 23
775 1 17.597 -0.22074 -10.5418 11
776 1 16.3386 -5.57669 1.92318 23
777 1 8.42265 -9.79013 10.9301 18
778 1 3.4353 -17.3484 -3.03247 18
779 1 10.3496 10.8442 0.650821 15
780 1 -7.16304 1.17449 11.7281 19
781 1 13.4066 5.32713 -5.66007 18
782 1 19.7379 0.635234 2.1163 16
783 1 12.7621 -5.94334 -12.7028 19
784 1 -5.94116 10.682 7.61687 15
785 1 21.4756 -0.368624 10.5198 12
786 1 15.4159 9.1391 -6.22763 7
787 1 5.664 -4.14031 -10.3687 25
788 1 17.5323 -6.10696 -1.14429 18
789 1 -5.4023 -1.07038 0.621118 19
790 1 16.2283 1.99547 4.87694 22
791 1 -8.32574 -13.8113 4.07709 13
792 1 -5.72786 10.0637 -5.56889 11
793 1 10.3676 0.429363 8.11457 23
794 1 -7.36189 -4.00183 -4.97424 23
795 1 -3.99061 -0.0755332 8.53257 20
796 1 2.70271 0.103528 -7.73636 21
797 1 15.7717 -11.4259 -4.8494 17
798 1 -6.80099 -11.216 -7.13045 16
799 1 17.2597 -8.40306 -3.73092 17
800 1 -5.77984 -2.7007 2.79681 19
801 1 -9.15847 -3.33878 2.71245 19
802 1 19.8706 4.08725 8.22966 11
803 1 -2.20213 -13.6005 8.10185 16
804 1 16.8322 -1.07998 19.0159 10
805 1 20.9455 -5.78857 6.46657 11
806 1 11.5319 -6.58021 5.21127 20
807 1 -9.75466 3.87689 6.15189 9
808 1 6.14593 3.67946 12.5901 16
809 1 8.8799 1.84433 -10.5006 20
810 1 5.08619 -10.0821 -15.5687 15
811 1 -5.22451 8.99254 4.11563 19
812 1 -7.25675 -11.9244 8.91179 16
813 1 12.3023 6.11414 -2.88551 21
814 1 9.03653 1.01259 15.3943 20
815 1 19.9046 -2.25875 -5.18791 16
816 1 11.1145 -11.5024 8.77584 17
817 1 4.07018 6.86855 -11.7559 17
818 1 7.08964 7.27953 -10.9415 15
819 1 -1.76993 -6.61588 10.9065 18
820 1 20.782 -0.386114 4.57159 12
821 1 1.04048 -6.0247 -12.7245 16
822 1 15.0636 11.4949 8.67172 10
823 1 -10.5998 1.81302 1.17763 12
824 1 -0.136266 -15.4464 10.3143 22
825 1 2.85575 9.34856 -7.71154 19
826 1 12.7123 -6.27757 10.7331 14
827 1 1.34609 -14.0715 2.90703 20
828 1 -0.603866 12.7996 3.04068 18
829 1 -7.69756 3.02514 1.14764 23
830 1 17.3447 -0.0925582 -6.25235 18
831 1 6.17464 -17.6365 -8.25294 15
832 1 -2.0937 5.13894 6.15042 22
833 1 13.6922 3.61373 -7.89557 20
834 1 -0.405151 -4.90334 8.93342 19
835 1 12.4434 -10.4742 -15.9573 9
836 1 4.25648 -12.7487 -10.1128 19
837 1 4.644 -12.4221 0.270531 20
838 1 -3.38495 4.47313 14.3105 19
839 1 10.8538 -17.6388 -1.27243 17
840 1 0.222904 4.0467 -12.9354 19
841 1 20.2444 0.542411 -5.74902 11
842 1 11.4887 3.14803 2.56924 24
843 1 4.14824 -21.8391 -4.03307 10
844 1 9.60163 -6.24612 -14.0368 19
845 1 15.2972 -8.67053 6.96871 21
846 1 1.5168 -1.81811 -13.2749 17
847 1 2.76895 -9.63559 10.6486 19
848 1 9.16215 7.88849 -4.97447 19
849 1 10.3395 -0.515608 -5.38698 23
850 1 -7.28556 6.13762 -1.43516 17
851 1 -9.2236 0.3365 6.10415 17
852 1 5.1402 3.94334 18.6893 13
853 1 -5.26689 -12.2109 11.7127 14
854 1 9.59279 8.38793 5.06855 21
855 1 4.89059 -20.4241 5.40793 10
856 1 5.45786 6.12285 -2.80898 20
857 1 0.0502743 -0.735423 14.8173 20
858 1 -3.09379 -3.6315 11.7049 19
859 1 -1.83612 8.41507 9.44623 24
860 1 14.58 -0.532963 -0.0568805 21
861 1 -2.17432 -12.1905 13.7645 15
862 1 7.20197 -14.3201 11.2445 12
863 1 13.8814 2.85282 10.8216 21
864 1 15.9633 -5.13972 -3.48187 21
865 1 11.5211 -13.4952 -8.85165 19
866 1 -3.79383 -0.346794 -15.1606 8
867 1 5.94208 -3.84879 -16.1074 18
868 1 11.1263 9.01644 15.7313 12
869 1 -5.84691 -6.23145 16.1068 8
870 1 -0.788619 2.40177 -4.60903 20
871 1 -7.49683 0.326128 -1.43998 18
872 1 15.9666 8.86898 -0.902759 9
873 1 -0.109343 -15.3949 0.441394 19
874 1 4.5763 5.27287 5.53034 21