ITEM: TIMESTEP
16000
ITEM: NUMBER OF ATOMS
2000
ITEM: BOX BOUNDS pp pp pp
-30.0 30.0
-30.0 30.0
-30.0 30.0
ITEM: ATOMS id type x y z Coordination
1 1 -8.61504 3.80377 -13.9532 15
2 1 -7.05523 -10.612 -5.97639 19
3 1 6.29304 12.6306 12.6246 14
4 1 7.64142 -12.0911 7.97355 10
5 1 -9.88116 6.68228 -0.866097 21
6 1 11.1261 -8.61064 -12.1863 14
7 1 -12.7483 4.88865 -9.08689 12
8 1 2.70011 -6.60783 9.34387 21
9 1 -7.65608 3.3061 -10.7244 20
10 1 -12.5352 -10.5249 4.58416 14
11 1 14.4132 2.51601 -11.6066 10
12 1 -2.7863 -11.7568 0.88276 20
13 1 -9.64379 -9.40796 -1.00002 20
14 1 3.02761 4.35395 14.4156 19
15 1 -2.99781 12.224 -9.99147 14
16 1 3.59748 -1.35412 13.1287 14
17 1 -7.42101 -4.11054 -16.2159 9
18 1 -11.5301 -2.02253 10.5798 12
19 1 13.5203 5.57988 6.33433 23
20 1 1.02115 10.4121 -11.532 16
21 1 5.52731 5.13084 -11.7593 20
22 1 15.4126 3.08916 9.3083 15
23 1 -11.1505 4.57044 -12.3993 13
24 1 -9.24269 8.96901 7.16064 23
25 1 6.31599 -15.1934 7.61352 8
26 1 2.1496 -16.8984 -8.47301 10
27 1 8.86029 -12.4565 -2.05353 16
28 1 -5.10412 -12.7324 -6.63281 20
29 1 -12.6778 -4.8789 8.96625 12
30 1 -3.94421 -10.3305 -12.3268 15
31 1 7.98037 -8.74591 -13.2356 18
32 1 -1.82896 6.34414 -15.9983 10
33 1 3.26729 6.19876 11.4214 19
34 1 -2.17896 -12.7576 4.45108 19
35 1 7.01909 -9.47486 10.0435 13
36 1 -11.2391 2.91854 0.811532 20
37 1 -16.8927 -2.37152 3.98701 10
38 1 -4.34459 13.5007 -0.323388 15
39 1 -0.586924 -16.448 -9.64415 13
40 1 3.47136 -5.74107 -8.85827 21
41 1 -0.368875 -7.23697 9.88309 16
42 1 -14.2236 3.48753 0.939733 17
43 1 2.96467 11.3066 -9.09643 22
44 1 -0.116452 11.5165 6.18766 20
45 1 -10.2408 9.234 -5.77723 20
46 1 0.219163 13.4081 -1.55358 18
47 1 0.813086 -11.8897 1.68155 19
48 1 7.15655 -9.81354 -6.79279 22
49 1 6.81987 -7.16254 -15.3739 11
50 1 -8.97955 7.0877 10.0417 19
51 1 -9.45814 -3.85715 -7.45491 17
52 1 -8.55543 9.96946 -3.11134 23
53 1 -10.1328 -8.82753 7.50269 17
54 1 -4.73244 13.3186 11.2902 14
55 1 -10.2379 4.19967 -3.97686 21
56 1 -6.04491 10.6309 12.0511 16
57 1 -4.12151 -15.1129 7.23499 12
58 1 5.56812 -15.0159 -3.70746 22
59 1 5.25923 10.4305 15.0024 17
60 1 -12.5897 2.01968 -10.0048 8
61 1 -8.40476 6.25228 -12.6879 15
62 1 5.1401 3.90867 12.11 20
63 1 15.2117 -2.30213 -11.7298 10
64 1 10.9927 -12.0695 0.47496 14
65 1 -17.0833 1.16629 4.61171 6
66 1 6.35441 14.3964 7.86156 11
67 1 7.13262 -5.80778 12.7067 14
68 1 -6.20116 -13.3279 5.10458 18
69 1 11.7248 5.07039 3.99647 22
70 1 -1.957 14.4816 6.1848 19
71 1 0.711791 -10.3274 -6.98456 18
72 1 -12.7435 10.2049 6.43813 12
73 1 -7.3924 12.295 -0.274778 18
74 1 -1.85057 8.90696 -8.48046 19
75 1 10.8134 12.8949 -7.83491 17
76 1 9.09354 -6.42744 10.466 13
77 1 -4.52651 16.7707 -3.39419 7
78 1 -6.36736 9.60463 5.4381 20
79 1 -6.59865 -2.26492 12.1132 20
80 1 -5.62008 -3.94884 9.47619 20
81 1 12.739 -6.08222 -6.76762 18
82 1 -8.14381 4.26281 4.13907 19
83 1 -10.7097 -15.6315 1.90784 10
84 1 8.61675 -8.45299 -3.97508 19
85 1 7.2175 -0.192271 -14.1458 21
86 1 -3.51955 -6.27939 -13.5755 19
87 1 0.227462 11.7137 1.63885 23
88 1 -10.7756 8.11763 -11.2242 13
89 1 3.25349 8.15611 17.6238 13
90 1 0.849807 13.8249 -5.76358 18
91 1 -14.4096 11.6435 0.0821742 7
92 1 -6.08519 -5.76836 6.83387 21
93 1 16.0278 -0.422038 9.07271 12
94 1 5.06903 -9.62155 -9.26515 20
95 1 6.20151 -3.42274 15.3993 11
96 1 -12.5667 -10.9913 -1.01799 18
97 1 -7.0783 -7.94036 -0.733943 19
98 1 8.87467 -6.87409 4.11043 21
99 1 8.5951 4.15409 -14.5055 10
100 1 8.56407 17.3724 -0.497505 9
101 1 -7.27843 -11.8418 10.3393 11
102 1 -9.61322 -12.0875 8.1654 15
103 1 6.71586 -12.2109 -14.1476 10
104 1 9.39222 -8.93072 1.29722 24
105 1 0.890303 -13.8057 7.62784 14
106 1 -8.82961 -12.2554 0.0452969 19
107 1 16.4446 9.75957 4.57806 9
108 1 17.1324 -2.74443 -8.70205 11
109 1 -14.5125 -5.79014 0.542818 17
110 1 10.0764 7.59093 3.28138 22
111 1 15.0734 9.28527 0.60827 17
112 1 -4.18901 5.19262 15.4485 12
113 1 -5.95033 12.3467 7.76313 20
114 1 -6.34533 12.3724 -3.94089 24
115 1 2.64131 -7.35704 -11.2644 20
116 1 8.67111 -11.1961 -11.8081 15
117 1 2.30518 13.6354 -10.6979 15
118 1 10.389 -4.71057 8.82671 17
119 1 -2.85862 -1.98947 -18.1212 8
120 1 -4.64824 12.5693 -7.35911 16
121 1 13.6012 0.0513854 -4.05959 21
122 1 -12.395 10.6162 -10.2546 8
123 1 -6.66199 15.7999 -2.0768 13
124 1 6.80123 0.0244413 -8.92022 20
125 1 11.535 -9.53211 3.37179 15
126 1 -8.69009 14.4312 6.61695 13
127 1 15.1525 8.48955 -7.41347 16
128 1 7.65116 12.0044 -3.04443 19
129 1 -4.89868 17.5657 3.21641 12
130 1 11.0044 11.9768 -4.59748 23
131 1 -2.88595 12.1015 -4.03127 17
132 1 1.39988 16.5069 -6.92446 12
133 1 7.37802 11.7735 -12.2567 16
134 1 -14.032 -10.9734 2.15353 11
135 1 -15.2287 9.60068 -2.79809 9
136 1 -2.58262 -5.24756 -10.6133 19
137 1 3.12352 -7.68392 -13.8982 17
138 1 11.5358 12.0636 8.38631 10
139 1 -1.72064 16.6371 8.74936 12
140 1 -12.0241 -1.80581 -4.41679 18
141 1 -10.0694 10.518 -0.533945 17
142 1 14.9976 -3.86755 -5.22789 17
143 1 -6.94709 2.41727 -15.8944 11
144 1 7.54386 0.0390821 15.5359 16
145 1 3.72738 16.4395 4.64762 11
146 1 1.15608 10.8421 8.99531 18
147 1 2.01781 -7.46809 -16.7538 14
148 1 -3.57941 14.0679 8.88688 19
149 1 -2.52159 10.7855 -6.85968 20
150 1 4.42106 -5.24638 12.8181 10
151 1 -12.3785 -7.39152 3.48461 15
152 1 -3.17969 -15.8856 -11.0357 11
153 1 -9.5282 11.5913 -9.84324 13
154 1 -2.42598 -9.61368 4.44993 18
155 1 8.18009 -14.5102 -7.98918 10
156 1 -2.03578 11.2384 -13.1902 10
157 1 -13.7738 4.35073 6.35265 16
158 1 11.7224 10.2422 -6.808 21
159 1 -6.18581 8.10003 14.4605 11
160 1 1.22143 -9.53663 10.2711 15
161 1 0.992887 15.2955 5.87776 18
162 1 2.03799 8.47896 10.4882 17
163 1 14.2598 4.66268 12.4602 10
164 1 -7.26192 12.7804 4.83439 22
165 1 15.2288 -4.80509 -8.44175 12
166 1 -8.17751 9.92662 9.8539 15
167 1 12.067 -6.14058 4.22446 12
168 1 -14.7882 -0.150463 3.34076 17
169 1 -10.6375 -9.84112 2.27623 20
170 1 6.01994 4.32132 14.8147 22
171 1 -16.1319 -0.423177 -2.56493 11
172 1 -2.65191 -16.4683 -2.04388 19
173 1 -1.44559 9.61675 4.53496 22
174 1 9.72368 12.8836 13.5693 9
175 1 -7.60387 12.8816 -7.55666 16
176 1 -13.0078 -4.2084 -5.31034 14
177 1 -8.28892 -1.61163 9.9182 20
178 1 0.908573 -10.0853 4.13882 19
179 1 4.49028 -15.2557 4.55895 17
180 1 -11.9609 7.99774 4.73028 20
181 1 16.9925 0.161401 5.42851 10
182 1 -1.56583 -11.5383 -14.9959 13
183 1 5.98524 -1.05033 9.71271 19
184 1 5.40818 -15.678 1.61635 17
185 1 -0.271602 7.15424 -11.0895 19
186 1 1.26885 -12.6801 -14.0297 15
187 1 10.2965 0.934377 -14.4934 12
188 1 7.94506 7.24807 -13.1804 16
189 1 -10.4838 -4.7374 -4.45214 16
190 1 -2.36823 15.4199 -5.88621 13
191 1 -10.8028 -10.6863 10.2328 12
192 1 10.8907 13.18 -1.56479 14
193 1 -6.9362 3.01031 14.7502 10
194 1 -6.96841 15.3737 -5.51481 9
195 1 9.19891 3.11362 6.50899 22
196 1 -0.296598 -6.9973 -11.8853 20
197 1 -5.37047 8.51577 -8.00021 18
198 1 3.33059 5.38593 -9.05963 22
199 1 -8.99114 -10.9576 4.91027 21
200 1 -6.40886 6.39571 6.01385 21
201 1 -6.56485 7.63346 9.0185 18
202 1 5.65582 -12.8481 -6.22413 22
203 1 -7.09836 -16.5156 -3.1128 11
204 1 9.55065 -12.4081 -5.52139 14
205 1 13.4404 8.27922 12.8557 12
206 1 6.1209 8.55561 -11.2629 22
207 1 -11.465 11.2245 -3.11082 15
208 1 2.92987 4.74127 9.01665 21
209 1 4.77118 -18.9678 -0.286574 14
210 1 12.1761 2.73003 -3.99216 22
211 1 -8.91557 9.82251 3.77673 20
212 1 -11.7694 -7.38289 -1.73106 20
213 1 10.066 5.73095 -12.073 13
214 1 7.37603 -3.75493 9.9512 22
215 1 8.92927 13.9822 -10.2538 12
216 1 -1.47287 -1.57356 -12.7131 18
217 1 3.21919 -19.4288 3.49532 10
218 1 10.8661 -0.615301 -8.57122 21
219 1 -11.7618 -1.44599 3.89909 19
220 1 4.11599 -16.1801 -1.02728 21
221 1 -8.70906 -6.4602 -9.66987 15
222 1 2.20786 14.4688 -2.92276 22
223 1 -0.699493 -8.14268 -15.0874 18
224 1 4.91089 1.82388 14.477 19
225 1 15.3741 3.37171 1.14742 16
226 1 13.0139 -6.98786 -14.8566 5
227 1 -6.38296 -6.34177 -14.6271 13
228 1 -8.84311 4.40443 -7.27211 18
229 1 -6.76898 -14.187 8.25865 13
230 1 11.5396 -1.76908 8.91979 23
231 1 -7.02857 -7.51441 -11.8754 12
232 1 0.444328 8.65292 -17.4004 6
233 1 3.1564 11.478 1.33959 21
234 1 -4.75131 -0.783635 9.67899 21
235 1 -8.9232 -9.432 -8.18051 15
236 1 -2.62104 -7.97553 -8.95315 20
237 1 -0.394817 9.14564 -14.3357 14
238 1 -4.71804 -9.26014 -3.82964 21
239 1 11.3837 -3.85217 -15.9572 8
240 1 16.6475 0.488942 -10.5863 11
241 1 10.1233 1.94597 4.04555 23
242 1 -8.65895 -4.16707 9.96793 18
243 1 -0.697107 -13.0625 -1.86734 20
244 1 9.80356 2.00513 15.1476 17
245 1 -4.52733 -14.6964 2.55308 20
246 1 -1.89177 -14.221 1.64792 19
247 1 0.256999 16.8733 -0.145124 15
248 1 3.37843 -0.113486 -19.509 8
249 1 -3.49527 -8.48363 -15.5487 12
250 1 -10.729 -7.44394 11.1533 10
251 1 5.51771 6.11906 17.26 17
252 1 2.4936 -13.258 -1.51786 18
253 1 -2.38654 -13.0122 -11.218 17
254 1 -9.51668 8.65569 -8.40343 18
255 1 10.663 5.95469 6.28511 23
256 1 -6.67012 5.84462 -8.62333 18
257 1 3.03156 7.6865 -11.1613 21
258 1 4.08627 -15.8482 -11.0148 9
259 1 -5.22757 16.6932 0.785695 13
260 1 1.71003 8.17673 6.95347 22
261 1 15.4575 4.86558 3.72022 19
262 1 -9.22479 1.11926 3.55915 15
263 1 -4.28633 -9.76507 11.1389 11
264 1 -3.07016 7.54632 3.89971 19
265 1 5.76485 -7.13362 -11.1565 17
266 1 15.5989 10.7173 -2.31236 14
267 1 4.10414 -11.9428 1.00379 18
268 1 -2.27173 -1.70411 13.2117 15
269 1 -17.4172 -4.48494 1.82301 7
270 1 -2.39363 -19.3097 -1.36208 11
271 1 -8.91551 9.03078 12.7259 10
272 1 -8.76098 6.03067 12.6399 14
273 1 -12.7012 -6.2205 6.38068 15
274 1 -14.205 -4.95672 3.42615 17
275 1 11.776 -2.91906 -4.48388 23
276 1 -12.4887 -7.97578 8.72445 12
277 1 8.73181 -2.80705 -8.80685 20
278 1 9.27176 -15.3299 -3.33222 12
279 1 5.90828 18.5536 0.121955 9
280 1 -8.82972 13.2704 -2.59096 14
281 1 11.2131 7.27853 8.4107 21
282 1 6.66533 -11.4856 -3.88416 18
283 1 -2.92276 11.5539 1.94992 20
284 1 5.62041 -12.4478 10.6347 9
285 1 15.0062 -3.95275 0.950456 10
286 1 2.0101 0.0656795 15.1169 14
287 1 -4.25785 13.8189 2.87775 20
288 1 10.3191 7.12003 14.7805 15
289 1 -11.1998 11.7663 -7.39343 12
290 1 3.20281 -4.44707 -16.4114 15
291 1 6.23331 -13.0677 -11.2372 15
292 1 -11.1275 4.70572 10.3163 17
293 1 -12.3263 1.85016 3.18106 16
294 1 -4.81395 10.4342 -1.80419 20
295 1 10.6466 0.0179785 6.711 25
296 1 -12.4379 -13.8199 -0.980589 8
297 1 6.12261 -8.4743 6.67401 19
298 1 -8.13556 -9.01271 11.0935 11
299 1 -17.3602 7.45844 -0.625139 7
300 1 3.98268 -17.8062 -3.93733 15
301 1 -4.98801 -3.19917 -14.7606 20
302 1 9.26404 -2.88124 -13.8281 15
303 1 5.32469 14.1046 1.54757 16
304 1 -9.59419 -0.470207 -3.76008 18
305 1 11.2258 -4.37172 -12.1096 13
306 1 11.0463 1.65837 -11.3955 10
307 1 -5.84276 -14.7837 -9.17475 12
308 1 -12.7087 -7.58526 -5.32902 15
309 1 9.04678 4.24729 13.0554 18
310 1 12.0531 4.74194 -1.20156 19
311 1 -9.97598 1.62682 -11.1761 17
312 1 4.1651 16.3602 -1.75402 17
313 1 -15.5934 -5.05097 -4.23035 10
314 1 -6.23785 7.63981 3.12053 19
315 1 -5.92804 10.6942 2.59123 21
316 1 11.2958 2.7223 11.651 23
317 1 10.4616 -3.82231 -6.82895 24
318 1 9.02009 -5.36771 16.1734 7
319 1 13.3547 1.32476 -6.97003 18
320 1 -4.6755 -14.7953 -3.9617 17
321 1 7.76116 -11.606 0.834824 20
322 1 10.7615 -3.5245 3.88351 21
323 1 -11.5056 -1.91718 -7.11345 13
324 1 -7.65096 -9.50498 1.88088 22
325 1 -6.12018 -6.68185 11.7942 14
326 1 -1.80155 14.4372 0.776686 19
327 1 -12.4323 -10.3872 -5.8717 9
328 1 6.86635 7.80983 14.8929 21
329 1 -14.7653 6.66765 -2.89747 13
330 1 -0.283441 11.8215 -8.89312 18
331 1 3.31453 10.7191 7.06106 17
332 1 -14.8767 -8.84595 -3.80306 11
333 1 -2.95611 -14.8069 -7.85308 17
334 1 -12.4806 0.393416 5.96437 15
335 1 -12.6863 8.15076 -8.41573 15
336 1 4.28742 -9.7741 3.9364 19
337 1 -5.68999 -12.4139 -2.93106 22
338 1 12.2552 8.86344 5.35813 19
339 1 9.44758 9.1967 -13.7274 13
340 1 -10.576 2.6537 -15.8222 7
341 1 1.35441 16.3773 -10.0186 9
342 1 -10.0341 7.23836 -3.99559 21
343 1 -0.733001 -15.5596 6.08479 15
344 1 14.04 7.56533 3.66533 19
345 1 5.67807 9.53382 -14.4005 13
346 1 -15.7202 4.35203 -0.920293 16
347 1 -5.93201 -12.3305 1.61538 19
348 1 10.3658 -6.18531 -9.30122 21
349 1 -13.3459 5.29315 3.05715 20
350 1 -12.9285 1.81061 8.6621 12
351 1 -13.0127 11.4655 2.98527 8
352 1 -5.46148 3.79094 -12.8992 16
353 1 7.63009 -8.58265 -9.49255 23
354 1 2.70038 -12.6096 -8.37932 19
355 1 -2.71284 -2.63214 9.82043 21
356 1 -1.51468 1.3204 -13.6779 16
357 1 9.7946 -12.2257 3.01726 16
358 1 5.65019 14.4726 -4.35998 19
359 1 -10.6975 11.745 5.26349 17
360 1 -4.25249 -1.31841 15.0361 10
361 1 -6.2313 -4.37408 -11.8141 21
362 1 -6.96517 -7.81928 4.43053 18
363 1 9.74287 -7.83406 7.21774 15
364 1 10.3426 -10.9824 6.03361 13
365 1 13.2928 7.67072 -4.90088 22
366 1 -1.99755 3.24949 9.89506 19
367 1 1.94691 10.5027 -1.15227 21
368 1 1.79664 -15.1828 -3.76607 19
369 1 -1.46311 4.71367 15.0057 15
370 1 -4.04613 17.6142 7.02463 11
371 1 -8.18406 -12.4564 -8.16389 11
372 1 7.15872 14.7536 -1.28299 19
373 1 3.93 7.47904 14.406 16
374 1 -6.92806 3.45177 6.94867 20
375 1 -14.3692 7.14143 5.88992 10
376 1 -6.65902 -7.50513 -5.75216 19
377 1 -3.83991 8.31055 6.90944 17
378 1 -5.29402 -9.54894 -8.00306 21
379 1 1.05277 -9.81496 -12.9955 15
380 1 -3.8243 -13.7301 -1.09097 20
381 1 12.2797 2.46793 5.72115 21
382 1 -3.93657 -4.35593 12.2798 14
383 1 -9.57659 5.0353 -10.2464 16
384 1 10.2508 7.73451 -1.92775 18
385 1 -7.96223 -13.8841 -4.80093 15
386 1 0.93634 17.0781 3.44959 14
387 1 -1.05353 8.7759 11.9062 14
388 1 -13.3479 0.31656 -0.0873619 19
389 1 1.14696 17.4815 -3.42965 9
390 1 8.27559 10.9578 -6.30324 17
391 1 -2.65529 -9.90209 -6.10073 22
392 1 3.7502 3.31464 17.5318 14
393 1 1.12082 -15.9752 -12.8988 10
394 1 0.211871 -4.12616 -11.638 21
395 1 8.74466 -14.6112 0.656568 16
396 1 -7.64148 8.82922 0.487359 23
397 1 8.40732 9.03887 12.225 20
398 1 8.36454 8.93198 -4.2912 20
399 1 -7.55187 8.91971 -10.7046 14
400 1 -13.0327 -4.0832 -1.63326 17
401 1 3.07794 13.2712 3.77074 18
402 1 -1.77787 4.71479 -11.2519 20
403 1 10.5462 5.87154 1.58535 22
404 1 6.71814 13.8255 -7.58447 16
405 1 17.467 4.9477 -4.07313 10
406 1 1.76447 -0.654315 -11.6042 22
407 1 3.15067 -14.9975 8.05216 12
408 1 4.00552 -9.88275 9.466 17
409 1 -10.193 1.63286 -6.7672 19
410 1 -9.3742 -14.3712 5.31435 16
411 1 0.587109 -18.9515 -7.1007 9
412 1 8.48307 11.415 7.32371 17
413 1 3.67008 2.62791 -11.7834 22
414 1 4.6922 -0.307861 16.1828 12
415 1 -14.0786 4.81396 9.23167 8
416 1 1.94322 -18.5049 0.965635 12
417 1 -12.9074 -2.48123 1.07841 16
418 1 13.9737 -6.07514 -3.78967 14
419 1 12.0987 -0.621774 -1.46045 21
420 1 3.80905 -10.2114 -6.78862 17
421 1 5.55089 2.95816 -13.8621 21
422 1 12.6485 -3.62705 -9.49917 20
423 1 -3.73819 2.412 14.2625 17
424 1 4.0208 13.5617 -0.942579 20
425 1 -1.82113 -4.35815 -16.6946 15
426 1 7.87616 1.75729 -16.1586 16
427 1 -7.57029 -3.48457 7.01138 22
428 1 -1.76908 17.5357 2.15977 10
429 1 -1.56968 -4.59553 -13.836 18
430 1 -16.3079 4.54608 3.77445 10
431 1 -1.40415 -14.904 -13.958 9
432 1 -7.32086 -9.36416 6.89617 18
433 1 1.24808 8.22207 -8.89272 19
434 1 15.138 2.85644 6.50443 19
435 1 15.4039 4.79408 -1.21001 19
436 1 -10.5048 -12.1359 -2.91319 13
437 1 0.260757 -2.02631 -18.7697 10
438 1 -10.3225 11.8289 8.36539 12
439 1 16.7985 -0.768426 -3.82529 13
440 1 4.15413 15.5107 -8.16819 14
441 1 15.7505 5.78315 -9.7407 10
442 1 6.36779 9.36359 18.063 10
443 1 -9.20586 7.11463 4.53511 22
444 1 5.28725 11.4737 9.21677 19
445 1 10.2956 -1.64088 16.0711 10
446 1 1.95153 1.94981 -14.0185 19
447 1 4.13383 -3.73047 9.04117 19
448 1 5.582 12.0728 5.72012 17
449 1 8.13767 4.70687 -5.92076 21
450 1 -6.96978 10.0644 -6.15057 18
451 1 -1.47731 10.6461 -1.29015 22
452 1 12.3578 -4.16494 10.7707 12
453 1 7.90744 2.56187 -8.63641 19
454 1 10.7924 -8.8824 -5.82273 14
455 1 12.7276 11.5078 11.4721 10
456 1 -14.787 -9.32234 -0.635069 15
457 1 -4.89484 15.1639 -8.47594 10
458 1 -11.7742 1.35205 11.4359 10
459 1 -6.40026 12.359 -10.2524 11
460 1 7.22207 -16.9813 -5.54065 11
461 1 4.82054 -0.130052 -12.3478 23
462 1 -1.65137 15.3959 -2.98102 13
463 1 -4.61554 -7.9368 -10.7498 18
464 1 7.56728 -14.0537 4.96701 13
465 1 -11.4414 -4.86952 1.09601 20
466 1 4.52483 10.7975 -11.6923 18
467 1 1.84024 9.83251 15.6033 13
468 1 -9.18913 -5.87008 6.99394 17
469 1 0.689408 -13.7015 -10.4539 16
470 1 4.59675 -8.24471 11.7234 14
471 1 -12.0072 4.75069 -1.52837 22
472 1 6.85362 2.86786 17.5342 11
473 1 6.78954 17.4775 -3.08667 11
474 1 10.6301 -5.63176 -3.95896 24
475 1 5.46917 8.95834 11.7781 18
476 1 -0.317089 3.1347 -16.2562 9
477 1 -4.10001 -12.7304 10.008 10
478 1 8.59167 -1.62241 -16.3226 15
479 1 1.58177 10.1748 4.48432 21
480 1 9.92048 4.92473 -8.45435 19
481 1 -4.35372 -5.57798 -16.6978 11
482 1 -1.61537 -14.6229 -4.60228 16
483 1 -7.90311 1.02804 -12.6043 18
484 1 11.8583 2.60043 1.84899 25
485 1 16.527 8.51999 -4.53891 13
486 1 7.02951 -5.32759 -9.24822 21
487 1 14.4352 6.52367 9.94259 16
488 1 3.69431 -12.2685 -4.73544 20
489 1 3.0534 4.24878 -15.1464 16
490 1 6.28023 14.8835 4.49061 13
491 1 11.4624 5.95929 11.9122 17
492 1 9.98371 7.57745 -6.58621 20
493 1 13.7073 -0.922332 1.10611 20
494 1 12.2023 4.50865 -6.3109 20
495 1 9.07507 0.322276 12.7549 19
496 1 16.7211 5.61559 6.98116 14
497 1 13.9495 13.4357 -3.05631 13
498 1 3.20312 1.34018 12.1571 19
499 1 16.2235 -0.147835 -7.1391 15
500 1 9.99989 1.55469 9.70917 19
501 1 -6.81024 -0.402948 -9.90754 21
502 1 17.3687 3.00175 3.98712 12
503 1 -11.8623 7.77043 11.0187 11
504 1 11.1416 10.062 13.1361 13
505 1 11.4732 -0.772282 13.0404 17
506 1 3.42784 12.4328 10.7809 17
507 1 1.5913 14.5207 11.7159 12
508 1 0.189121 -17.1671 2.61186 14
509 1 -5.05871 9.02587 -4.09313 21
510 1 9.66266 15.5491 -7.21813 8
511 1 12.2016 -1.36095 -11.8911 16
512 1 3.0908 17.7557 1.73386 11
513 1 0.175641 -15.9531 -6.69724 15
514 1 9.82362 -6.25606 -14.5091 16
515 1 -9.77851 2.69167 7.53266 17
516 1 -3.15012 6.08647 -9.31069 18
517 1 -3.1553 -17.3521 1.59891 14
518 1 -4.64433 -0.773286 -12.4986 18
519 1 -13.9824 0.623686 -3.80499 17
520 1 12.4044 -7.79531 6.95157 7
521 1 12.7522 9.79423 2.80964 17
522 1 1.71561 -8.84408 7.29151 19
523 1 -10.0974 -0.453848 -9.08411 16
524 1 2.46082 -1.11405 -17.0012 16
525 1 0.866573 3.71507 12.0336 20
526 1 9.80931 10.5601 -10.8781 15
527 1 14.0238 -1.23026 11.4695 15
528 1 10.4432 5.69943 -4.3141 19
529 1 10.6601 11.5787 1.23427 17
530 1 5.44339 -14.9945 -8.85495 14
531 1 -9.30237 -2.41064 12.6949 13
532 1 11.6608 -0.523327 3.68553 24
533 1 -1.21073 13.31 11.4831 14
534 1 7.60223 11.2399 -9.3101 24
535 1 -12.2729 8.55396 -2.099 18
536 1 8.17676 10.9013 3.81412 18
537 1 -6.94013 -14.5316 -0.526312 20
538 1 15.8694 -0.621196 -1.20429 15
539 1 8.59081 13.8361 1.64114 14
540 1 -5.3576 4.83494 10.0235 18
541 1 -9.74438 -7.06387 1.12223 18
542 1 -6.43275 -2.97367 -8.23962 19
543 1 10.4891 -2.90759 12.0462 18
544 1 -4.70148 -8.38374 8.14866 20
545 1 7.3551 5.96218 11.6212 16
546 1 -7.39794 15.4662 3.37679 14
547 1 5.06737 -6.54444 -17.3992 10
548 1 -10.3206 0.155907 8.71819 20
549 1 9.11692 -0.220055 -10.8405 16
550 1 10.3546 -9.92512 -8.84389 17
551 1 9.41625 4.84233 9.45905 22
552 1 -8.42027 0.798651 12.3191 16
553 1 8.89541 8.41377 6.43804 21
554 1 1.49921 -3.22725 13.4756 11
555 1 1.06026 6.79564 13.9324 17
556 1 1.41676 -5.1091 -14.1209 22
557 1 -6.27169 5.91204 12.9547 19
558 1 6.8394 1.76931 12.2715 17
559 1 -6.29914 -16.2568 5.25474 14
560 1 14.1267 7.40769 -1.30003 21
561 1 7.16566 -15.4122 -1.46865 19
562 1 5.19451 10.3378 -0.776121 23
563 1 7.42104 11.6663 0.341465 16
564 1 6.90978 -0.693872 -19.0242 9
565 1 0.175003 11.8238 -4.18707 19
566 1 11.8408 8.60172 0.388656 21
567 1 -5.58141 -10.4119 -0.669898 21
568 1 0.951994 -2.23572 -14.6502 17
569 1 -9.20287 12.3517 -5.12149 18
570 1 6.47757 -3.21241 -11.6446 19
571 1 13.0628 10.6717 -9.47281 12
572 1 11.4643 14.9119 -5.01588 11
573 1 14.9274 1.63761 11.9776 13
574 1 11.7744 -3.52809 14.8037 8
575 1 -1.2748 -11.7029 9.79241 12
576 1 -5.58965 6.41444 -11.4777 16
577 1 1.82011 16.4847 9.28274 11
578 1 8.3537 -5.78558 -11.6821 19
579 1 8.95786 15.04 -3.62629 16
580 1 7.05966 7.71509 4.09859 21
581 1 13.5617 -3.60387 -1.83007 21
582 1 11.8467 3.9432 16.1411 7
583 1 -14.0815 -3.37753 5.76309 12
584 1 2.37765 -15.1971 1.33383 20
585 1 -8.83777 11.9257 2.01904 16
586 1 3.40758 7.59706 4.25289 22
587 1 -15.9323 -2.19024 0.577114 14
588 1 1.15817 2.81874 16.0765 13
589 1 -2.59797 7.88673 -12.9819 13
590 1 -5.31104 9.36185 -12.8666 8
591 1 6.38174 -12.5696 2.91969 22
592 1 6.65798 7.67753 -6.40584 20
593 1 -13.4861 9.51383 13.8703 2
594 1 4.39481 -2.68511 -14.359 19
595 1 2.16984 -12.281 10.1515 13
596 1 1.76438 14.3024 0.912269 21
597 1 -1.29423 0.742257 15.5376 12
598 1 -5.52201 -5.76772 -8.81454 20
599 1 -0.843002 -12.7262 -7.9617 17
600 1 -5.7686 -13.5122 -11.225 10
601 1 -0.903567 15.1554 -8.24239 13
602 1 -2.40598 11.4403 7.22115 20
603 1 3.03424 -11.0685 -11.0526 18
604 1 7.62637 -17.5341 1.21472 12
605 1 6.13324 -6.91814 9.5975 19
606 1 15.2396 2.69212 -8.74658 17
607 1 3.77542 -15.3593 -6.21336 18
608 1 -11.4625 -2.62616 7.1767 18
609 1 -5.58966 -18.0054 -0.968682 12
610 1 -7.8671 -10.5735 -2.70111 20
611 1 -9.65867 5.47174 7.19711 18
612 1 -9.51217 -15.7785 -0.846691 12
613 1 15.5193 6.00393 -6.67222 17
614 1 -5.29869 15.35 5.78758 21
615 1 -14.683 9.06842 2.00658 10
616 1 11.7512 -3.04677 1.04832 22
617 1 -9.15506 -3.06952 -10.1663 12
618 1 10.124 1.85717 -6.42895 21
619 1 8.43561 10.3135 15.2585 12
620 1 -13.433 2.29572 -6.4079 12
621 1 -9.51884 -7.20741 -6.47588 16
622 1 0.856746 6.83181 17.0263 10
623 1 6.67814 5.67174 -8.91358 20
624 1 10.7271 11.5276 5.10452 14
625 1 -1.27422 -5.01464 12.3103 12
626 1 -4.03495 -18.0731 -4.16798 11
627 1 -3.5626 -17.3049 5.1538 10
628 1 13.6218 9.48174 9.99894 13
629 1 5.40444 -9.69871 -12.1961 19
630 1 -10.4151 -4.22327 4.07548 17
631 1 10.9247 7.96601 -10.6624 15
632 1 -0.553716 -20.0671 -3.97907 9
633 1 6.43058 -20.434 2.28337 6
634 1 -0.40883 -15.9752 -0.169145 16
635 1 6.85136 1.62899 -11.2255 18
636 1 7.39329 16.7867 2.76625 10
637 1 -0.307934 0.496263 -16.8519 11
638 1 0.675677 -0.0326926 12.3499 20
639 1 4.47714 7.02113 -14.2311 15
640 1 -8.27851 -3.05695 -13.2561 13
641 1 -9.99734 -5.08025 -1.25011 16
642 1 3.21023 16.6171 -4.78735 14
643 1 -0.277893 -5.13656 -19.6613 6
644 1 12.4805 6.79438 -8.78388 19
645 1 10.4828 -5.69817 1.2915 21
646 1 -4.42056 7.57555 11.066 17
647 1 7.91812 -9.29136 4.14018 22
648 1 11.913 -6.35947 -1.17989 19
649 1 13.9935 -2.87576 8.10772 14
650 1 -1.16867 8.05533 7.43425 18
651 1 -9.07623 3.14891 12.8521 14
652 1 -8.09208 4.41805 10.3787 21
653 1 -1.28013 -11.7786 6.75937 17
654 1 9.6306 9.45694 9.61593 16
655 1 -16.3137 1.30415 -0.623574 12
656 1 12.3856 -9.29955 0.12155 11
657 1 -12.9162 9.54977 -5.29583 14
658 1 2.07215 -16.4228 5.09423 17
659 1 7.69745 -2.16486 12.8117 15
660 1 -0.96576 13.0994 3.8862 19
661 1 3.34811 -11.8248 7.07593 16
662 1 7.07404 1.6872 9.27483 19
663 1 -14.2714 -6.71741 -2.20557 16
664 1 2.85386 12.4821 13.9335 12
665 1 5.2136 10.2301 3.37625 18
666 1 -11.1921 -12.6566 3.37607 16
667 1 0.788521 -13.9446 4.44421 20
668 1 9.14836 -2.84326 6.75196 22
669 1 13.8428 -2.14898 4.2108 18
670 1 7.41076 5.71261 7.03647 23
671 1 2.22551 -8.6129 -8.70775 19
672 1 0.18247 2.40428 -11.6083 22
673 1 -2.93595 0.959528 11.7928 18
674 1 -2.32287 17.5151 5.08534 13
675 1 16.427 -1.60629 2.25169 10
676 1 2.17684 10.4095 -6.0932 21
677 1 -2.80221 7.8762 13.7991 14
678 1 7.57115 7.54615 9.30208 20
679 1 5.25736 -5.00977 -13.2919 18
680 1 -8.0655 -14.112 3.01103 19
681 1 14.1609 1.46883 3.14449 20
682 1 3.16774 -3.38175 -11.6394 21
683 1 3.73361 11.5738 17.612 10
684 1 7.9715 -12.2593 -8.47106 17
685 1 5.91623 4.98913 -16.1352 11
686 1 12.4874 4.42639 -10.1912 15
687 1 16.3391 -4.44836 -2.67399 10
688 1 0.496383 -3.52005 9.77584 18
689 1 -3.48534 -11.311 -9.46815 21
690 1 8.96478 10.2498 -1.64516 20
691 1 -11.4745 4.58884 4.66692 19
692 1 14.2747 4.71585 -4.01646 21
693 1 16.713 6.85598 1.33384 16
694 1 5.11077 -9.56928 -15.1286 14
695 1 -4.10691 12.2788 5.22904 18
696 1 16.0607 10.7576 7.81129 7
697 1 13.1837 13.4223 -6.77263 12
698 1 5.15819 1.79651 -17.8202 12
699 1 12.2684 -8.38617 -3.38187 14
700 1 -11.1386 -1.45239 -1.86531 18
701 1 13.8147 5.8741 1.51845 22
702 1 -15.7712 -11.8016 -2.42247 6
703 1 -11.0388 6.1344 -7.01675 17
704 1 5.76841 5.14872 9.22113 21
705 1 -14.8956 -1.65393 -5.60213 11
706 1 -12.7577 6.48052 0.576578 18
707 1 13.076 -7.52978 -9.08499 10
708 1 -8.72599 -6.63633 -3.12477 19
709 1 10.0029 -9.65909 -1.78682 20
710 1 -16.4583 6.22274 1.55744 14
711 1 14.0943 7.67311 7.66493 14
712 1 -5.36306 -10.6422 4.35247 20
713 1 13.1868 1.59458 14.2296 11
714 1 13.8095 -0.192689 6.57667 22
715 1 -10.0534 5.13057 1.69535 19
716 1 3.13595 13.715 7.94883 21
717 1 4.71412 8.82738 -8.6414 20
718 1 -1.01483 -8.06281 -17.8372 10
719 1 -6.5847 15.4794 9.07577 10
720 1 -11.9595 -12.5188 7.29309 11
721 1 8.82683 8.08117 -9.18649 20
722 1 0.488643 11.3901 12.2104 14
723 1 17.743 -3.25558 -5.78067 9
724 1 7.60856 -5.59039 6.87502 21
725 1 -0.940223 14.2065 -11.4385 10
726 1 3.50773 13.2874 -6.24285 22
727 1 -4.81462 2.33513 10.65 19
728 1 17.6918 6.87826 4.35866 11
729 1 -0.903687 -9.85888 -10.2946 18
730 1 12.5963 11.0323 -0.895559 19
731 1 -15.6822 2.5056 -3.21086 13
732 1 -4.21852 -11.1466 7.19197 19
733 1 5.54773 13.473 -10.6385 14
734 1 8.88805 -1.21458 9.28819 22
735 1 0.714382 -12.1349 -4.17667 17
736 1 -7.56681 14.7168 0.555954 15
737 1 -13.9886 4.16964 -3.96779 14
738 1 12.7661 -1.45377 -6.57725 17
739 1 1.71294 -10.5264 -16.5225 10
740 1 -10.7877 8.67405 1.78609 20
741 1 14.2402 11.0329 -5.01363 17
742 1 7.17606 -4.02516 -16.2746 15
743 1 -6.61182 -11.1723 -10.516 15
744 1 -3.06112 -11.8813 -3.81839 21
745 1 -2.98576 10.7119 12.5418 13
746 1 5.70271 -13.1008 -1.20657 19
747 1 2.57379 9.62863 -14.3362 13
748 1 15.2126 2.37221 -5.36582 18
749 1 8.49648 8.50902 1.16598 21
750 1 2.15452 -18.559 -1.78032 16
751 1 5.54816 -1.49205 -17.0325 18
752 1 13.774 2.05979 -1.11639 21
753 1 -0.357677 4.13616 -13.7946 15
754 1 -1.16644 -8.9888 7.31626 20
755 1 5.34013 10.894 -6.58181 18
756 1 -11.48 2.12182 -3.98989 19
757 1 -11.932 6.52319 7.4101 18
758 1 1.83336 5.16924 19.0543 7
759 1 -7.64766 -6.82142 9.156 19
760 1 5.33385 8.66531 6.28017 20
761 1 3.09351 -12.9127 3.71588 17
762 1 3.66998 11.7127 -3.28044 22
763 1 -4.09416 10.2055 9.30239 17
764 1 -7.39642 1.57869 9.52048 20
765 1 -7.5996 13.0497 9.73793 12
766 1 -3.60454 -6.15119 9.63895 17
767 1 6.09055 -11.5802 5.67378 15
768 1 12.1682 3.9434 8.28727 23
769 1 8.66941 -6.78676 -7.19299 21
770 1 3.68798 -13.7001 -12.6883 14
771 1 -3.95191 0.331909 -15.1367 13
772 1 -6.65589 -0.766374 -15.1635 14
773 1 8.31534 12.7827 10.0008 13
774 1 -6.44303 -4.31459 14.4702 8
775 1 -7.30512 7.58817 -6.28154 20
776 1 -14.4206 6.35481 -6.38276 11
777 1 11.735 9.39476 -3.07442 18
778 1 -7.07565 -16.3195 1.63691 14
779 1 14.0661 11.6782 4.41337 7
780 1 -10.2353 -9.77271 -4.59807 17
781 1 4.57258 15.5749 10.8318 9
782 1 -6.03638 0.236677 13.1425 15
783 1 0.365504 -17.7159 -3.48963 18
784 1 13.2967 1.18887 9.27707 22
785 1 5.25042 -18.1254 4.78069 8
786 1 9.01009 5.47701 16.6134 14
787 1 14.3051 -0.615983 -9.69096 20
788 1 7.2356 -9.56008 -1.20854 20
789 1 4.36865 0.597496 -15.5051 19
790 1 -10.7505 -0.51519 -13.9785 7
791 1 -3.21173 2.05736 -11.6266 18
792 1 -2.7915 4.6737 12.1306 19
793 1 12.3724 -4.30786 6.31254 15
794 1 -14.4531 -10.5521 7.23695 6
795 1 16.9459 2.57005 -2.44144 13
796 1 1.96478 4.94419 -11.8324 22
797 1 17.076 7.56657 -1.84673 14
798 1 -0.1702 14.3195 8.89208 19
799 1 -12.3481 -8.06576 0.818372 19
800 1 6.832 -18.2614 -2.36738 14
801 2 -8.44084 -1.25875 -10.0883 20
802 2 -5.95659 14.4484 -6.88319 14
803 2 1.24797 -5.92669 -11.8669 20
804 2 0.508639 7.22891 11.9683 15
805 2 1.9192 -12.0885 -12.0863 16
806 2 -8.97018 -4.79077 -9.23349 14
807 2 3.73325 0.129736 14.431 17
808 2 9.32932 0.124044 15.6332 14
809 2 -14.1427 -12.2273 -1.55348 10
810 2 -12.9135 6.19986 -7.62564 11
811 2 -0.282277 14.3513 5.14027 18
812 2 -10.6074 -0.223633 4.89606 15
813 2 2.9017 15.2842 -9.47545 12
814 2 10.0795 5.60338 3.61826 21
815 2 -1.26778 13.5306 -9.30264 16
816 2 9.8441 15.6826 -5.25102 11
817 2 -7.98794 -3.98627 -11.4547 14
818 2 -9.38534 -7.72514 -8.45591 11
819 2 5.7673 3.2182 8.79499 20
820 2 11.4183 -4.74513 -10.3015 16
821 2 2.6875 -14.6057 4.63242 20
822 2 -10.3781 9.12309 -3.86571 22
823 2 -9.60408 1.64562 -3.697 20
824 2 13.2531 5.61127 3.4342 22
825 2 8.88346 -10.8145 -9.68048 15
826 2 -11.2878 -12.3373 -0.997655 14
827 2 -12.9234 -9.4525 2.98939 14
828 2 -1.05518 -12.5392 1.36586 20
829 2 11.1226 -9.15591 6.72644 9
830 2 0.00422629 -19.1153 -5.48768 9
831 2 5.83563 -1.85188 16.2663 10
832 2 1.19155 11.693 -10.0131 17
833 2 5.3192 -19.6298 3.51387 9
834 2 -11.3615 -11.3537 -4.27187 13
835 2 4.69046 8.86863 13.5695 18
836 2 -8.79384 8.31274 -1.14513 21
837 2 0.374884 1.14063 15.578 10
838 2 -7.08552 5.30169 -6.73349 19
839 2 8.91575 -14.5326 -1.20591 15
840 2 -2.02222 10.8066 -8.65786 14
841 2 15.0468 9.57504 3.48397 16
842 2 7.69961 14.8728 3.04915 10
843 2 8.48919 -2.98476 -6.61503 23
844 2 -5.53954 8.43075 12.6081 16
845 2 3.92423 2.35186 -14.4554 18
846 2 -7.20807 7.32661 -11.6816 15
847 2 13.2871 13.9339 -4.98549 13
848 2 -5.57258 -2.05945 13.8927 15
849 2 -13.8443 10.6108 1.61451 10
850 2 12.2619 2.94919 -11.1095 12
851 2 -8.59026 -7.16175 11.0802 12
852 2 -2.10905 -10.9633 -11.5645 16
853 2 -0.746625 -6.90048 -19.225 7
854 2 -13.5525 -10.3955 0.538608 14
855 2 12.3485 10.6171 -4.33797 20
856 2 -2.69525 10.5716 5.58383 22
857 2 -4.21357 -11.2251 -7.59946 21
858 2 -3.67469 12.0248 8.79266 19
859 2 7.2835 -4.73258 16.5903 5
860 2 5.27684 -8.60912 10.1015 16
861 2 16.164 1.78247 5.18275 15
862 2 5.18359 16.1172 -5.05097 14
863 2 -12.0511 3.54266 -2.92616 20
864 2 17.714 4.87245 3.94723 11
865 2 8.69325 -8.67359 -8.0385 21
866 2 9.53174 -13.4892 -3.80832 11
867 2 -4.5021 11.5785 12.075 13
868 2 5.75204 -13.9014 4.32962 16
869 2 11.6425 -2.40609 2.91433 23
870 2 14.4987 10.2338 -0.949827 16
871 2 -2.39021 -3.4613 12.8753 12
872 2 12.2655 -6.41278 -3.15147 18
873 2 1.37623 10.5389 6.71707 19
874 2 10.8274 5.33732 8.32151 17