ITEM: TIMESTEP
65000
ITEM: NUMBER OF ATOMS
2880
ITEM: BOX BOUNDS pp pp pp
-0.7943505709 33.5943505709
-0.8268026978 34.9668026978
-0.7701325656 32.5701325659
ITEM: ATOMS id type x y z Coordination
184 2 1.06666 2.02984 3.16859 17
219 2 2.35373 4.73306 1.71808 18
3 1 0.964257 0.0690336 2.35764 17
6 1 0.814966 1.74433 5.11098 21
181 2 0.969509 -0.59802 4.39142 18
1 1 -0.0501301 5.11478 0.184052 17
218 2 3.59274 3.69741 3.82877 18
183 2 -0.54073 4.41412 2.94455 18
182 2 -0.769543 2.56309 5.36284 18
40 1 2.49686 3.02331 2.53454 18
549 2 1.08546 0.324162 0.313788 21
927 2 -0.613393 -0.707605 1.95165 22
550 2 -0.319431 3.14186 0.0430932 19
217 2 4.11151 0.508741 5.17942 19
37 1 2.61881 4.61203 -0.255788 17
42 1 4.52356 2.69798 5.60613 20
5 1 -0.0539978 4.41408 4.90998 21
4 1 -0.619941 2.62126 1.87135 20
745 1 -0.642593 -0.514749 -0.494775 22
41 1 3.13965 5.16405 4.86542 17
781 1 2.92479 -0.361162 0.0916448 19
7 1 1.23701 0.49292 8.37511 19
8 1 -0.666687 2.73854 8.59337 19
185 2 0.941311 0.513029 11.1762 19
10 1 0.584016 2.56457 11.0521 20
753 1 -0.687666 -0.962296 11.5653 20
44 1 2.16247 3.27489 7.41707 18
188 2 1.22204 2.35937 9.09867 19
187 2 0.0545668 4.61555 7.90442 19
43 1 3.59984 0.49724 7.35238 18
222 2 4.39031 2.74219 8.53017 20
224 2 1.61993 1.56405 6.68065 18
221 2 4.18742 -0.143594 10.0386 20
46 1 3.81209 1.91307 10.1407 23
228 2 3.90269 2.24337 12.1499 23
223 2 3.27635 4.48684 6.6655 20
45 1 2.57578 5.07306 10.959 23
789 1 2.41266 -0.88379 10.6651 22
1323 2 2.38443 -0.741231 17.8812 20
398 1 4.47195 2.11404 16.522 21
362 1 1.07031 2.80455 16.2139 21
971 2 2.96265 -0.774796 12.8028 19
189 2 1.25918 0.446393 15.1448 22
363 1 0.974682 0.297304 18.7626 21
400 1 2.56569 3.14817 18.888 19
579 2 3.58653 4.48097 18.1234 22
47 1 4.34918 0.932412 13.7044 21
226 2 2.81927 3.10856 15.5724 22
1105 1 -0.719391 0.632849 15.2435 19
11 1 1.44231 0.844412 12.8341 19
48 1 2.80484 3.29803 13.5416 23
225 2 4.31456 0.577715 15.467 19
543 2 -0.115465 4.99383 17.5124 19
544 2 1.08155 2.20609 18.2816 20
364 1 -0.760623 3.05485 18.7568 20
192 2 0.811185 2.50269 13.0562 22
1141 1 2.85583 -0.611424 15.6194 20
580 2 4.72049 1.91405 18.6078 21
397 1 3.08691 5.10683 15.6027 21
399 1 4.17604 -0.478617 18.7712 20
577 2 3.70347 0.576138 20.7682 21
366 1 1.14826 2.01926 21.6363 23
367 1 0.520762 0.590551 23.9836 19
583 2 3.00571 5.04529 24.1883 20
578 2 2.91534 3.7239 21.3947 21
403 1 3.86822 0.46676 24.0563 20
541 2 0.691876 0.289644 21.8699 20
404 1 2.81714 3.38394 23.3817 17
1145 1 2.31543 -0.698756 21.2231 21
548 2 1.14727 2.78131 23.7305 16
402 1 4.28508 2.64643 20.8344 21
1327 2 2.24589 -0.426731 23.7095 18
584 2 4.48552 2.18734 23.8241 20
1287 2 -0.381439 -0.678281 19.4439 18
368 1 -0.493386 3.43225 23.7353 19
582 2 2.12308 3.09617 27.3711 15
370 1 0.428916 2.17879 27.8359 16
371 1 0.944665 -0.63252 29.5619 19
552 2 0.964884 2.39189 30.2781 19
406 1 4.05663 2.37625 27.2569 19
407 1 4.7835 -0.0455568 30.035 21
586 2 3.04616 2.71238 32.4242 18
408 1 2.75729 2.15868 30.2593 19
545 2 -0.397573 0.294499 28.4709 17
2 1 0.628408 1.32131 32.1108 22
588 2 4.51025 2.0234 29.3356 20
585 2 4.33261 -0.162705 32.1734 19
1331 2 2.85109 -0.740793 29.6344 20
581 2 3.60258 0.0971333 26.2779 17
372 1 -0.27883 3.937 30.7153 19
1295 2 -0.335021 -0.0949648 30.9576 17
51 1 4.47621 5.55838 2.24793 18
229 2 4.59409 6.34151 4.26479 21
15 1 0.89131 6.35029 2.83177 21
193 2 1.43128 6.0279 4.60162 18
54 1 4.86585 8.12029 4.81286 19
17 1 -0.59578 10.4977 4.38338 18
230 2 2.97345 9.26235 4.05691 20
18 1 1.36214 8.12108 4.85498 19
598 2 2.39574 8.88148 0.0596675 15
52 1 2.64723 9.09088 2.19615 21
196 2 0.93893 8.30578 2.80593 16
232 2 4.68289 7.63649 1.78169 18
562 2 -0.495382 8.56718 -0.00550633 18
16 1 -0.565008 8.827 1.91997 17
53 1 2.88749 11.1453 4.8986 20
194 2 -0.580567 8.78779 5.17572 17
19 1 1.17985 6.18441 7.62263 19
234 2 2.82992 9.08627 10.8281 18
236 2 4.37565 7.78114 8.19022 20
22 1 1.04668 7.88193 10.7202 20
55 1 4.45221 5.37033 7.94768 18
56 1 3.02043 9.31485 8.01227 19
58 1 4.2426 7.47749 10.567 24
275 2 4.62767 10.8937 12.0266 18
197 2 0.994053 5.81502 11.1689 18
200 2 0.812124 7.48056 8.80742 15
245 2 3.74595 10.8735 9.11654 19
233 2 4.0753 5.46494 10.2414 20
235 2 2.13743 10.8478 7.11368 21
57 1 2.74011 10.866 10.5989 22
556 2 1.33511 7.8005 17.9068 19
592 2 4.79799 8.03549 18.9801 23
201 2 1.67683 6.2158 15.7457 19
409 1 2.96112 10.5268 16.4468 22
60 1 2.83535 9.38213 13.2059 19
203 2 -0.577822 10.7157 12.7191 22
59 1 4.75321 5.74681 12.8766 17
374 1 1.62791 8.45188 15.9345 17
204 2 1.31938 8.06333 12.7701 21
238 2 2.96277 9.51071 15.1768 20
23 1 1.18995 5.99765 13.4594 20
591 2 2.89044 10.4241 18.4042 18
237 2 4.72875 6.01166 15.1594 20
375 1 1.00306 5.88912 18.7163 23
202 2 -0.334525 9.28492 15.7023 20
411 1 4.64567 5.91447 18.7535 22
24 1 -0.37788 8.77959 13.5647 22
410 1 4.5254 8.11771 15.2511 18
376 1 -0.730965 8.95053 17.6622 17
412 1 2.9508 8.61983 19.2058 18
227 2 2.89264 5.21754 13.248 18
361 1 -0.330846 5.92817 15.618 20
590 2 2.62695 8.71365 21.4751 18
378 1 0.918432 7.74515 21.767 19
379 1 1.05646 5.7783 24.3399 18
589 2 4.22303 6.36745 20.7715 19
596 2 4.43652 8.55358 24.4292 19
414 1 4.8837 8.11856 21.6112 19
595 2 2.6775 10.6658 23.8216 17
416 1 2.67169 8.67153 24.2453 18
553 2 0.573895 6.06326 21.019 21
560 2 0.848488 7.60841 23.7816 18
401 1 2.60698 5.69285 21.2624 22
377 1 -0.484151 10.5412 21.3476 17
413 1 3.23229 10.85 21.9672 20
415 1 4.3343 5.63054 25.078 18
380 1 -0.829328 8.57041 23.9393 18
600 2 3.922 8.09181 30.3637 19
382 1 0.975839 7.64737 27.4028 19
593 2 4.59522 6.29879 26.8347 18
383 1 1.17501 6.63271 30.4088 19
419 1 4.69143 6.47377 29.9121 18
587 2 2.35135 6.47081 28.9219 16
381 1 -0.633638 10.5835 26.7887 17
420 1 2.53631 8.89171 29.1884 17
557 2 0.809371 5.89261 26.4533 20
564 2 0.742994 8.5122 30.3671 19
594 2 1.94719 9.3649 27.5083 18
418 1 4.30986 8.14899 27.0923 19
551 2 -0.332729 5.5888 29.4614 19
597 2 4.01282 6.00719 32.5111 18
14 1 1.14682 8.65804 32.2892 20
563 2 -0.795345 10.8922 30.5683 19
405 1 2.72428 5.0202 27.6385 19
369 1 -0.614837 5.21572 27.4013 20
561 2 1.12639 5.2622 31.8673 16
50 1 4.23668 8.21641 32.4734 18
63 1 4.49706 12.2471 1.67544 19
49 1 2.03161 11.7349 0.0321407 17
27 1 1.0263 12.5179 2.66684 17
205 2 1.40014 11.939 4.5681 22
208 2 0.652713 14.3716 1.85849 21
30 1 1.51833 13.7747 5.59307 19
244 2 4.31557 14.5466 1.59074 21
242 2 2.80043 15.2629 4.48204 22
66 1 4.27959 14.1773 4.66848 22
64 1 2.45389 15.3339 2.06459 20
65 1 2.6626 17.0175 5.4241 19
241 2 4.51767 12.2191 5.02634 21
231 2 2.77588 12.2648 1.70225 19
609 2 4.18421 12.1003 -0.277191 17
29 1 -0.36353 16.3423 5.01538 16
61 1 1.94147 16.8967 -0.512591 22
31 1 0.585071 11.7161 7.9111 21
210 2 0.623991 12.2553 9.80199 20
69 1 3.29429 16.7039 10.2186 16
70 1 4.20339 13.8118 9.99805 21
212 2 1.65114 13.5759 7.45326 21
68 1 2.98782 14.8586 7.49718 20
247 2 2.58412 16.9366 7.87404 21
1617 1 1.0531 13.9813 9.38125 20
209 2 2.6487 14.794 10.3132 17
67 1 4.07196 11.9056 7.00398 20
248 2 4.40669 13.7754 7.62564 20
215 2 -0.309561 15.2709 9.94582 20
731 1 2.4429 14.9208 12.3418 18
211 2 -0.762243 16.5637 7.3666 20
21 1 -0.780031 11.1729 10.7363 21
36 1 -0.167108 16.4716 14.3048 14
423 1 4.65562 11.9567 19.1619 21
249 2 4.45378 11.3737 15.9928 20
387 1 1.37712 11.7704 18.8691 20
213 2 0.509593 12.4712 15.1711 16
424 1 3.5222 14.9598 18.4889 20
216 2 1.54966 14.9513 14.0076 17
568 2 2.12584 13.5436 18.2951 19
35 1 0.71907 12.3378 13.3806 16
250 2 3.71996 14.9148 15.7039 19
239 2 2.40661 11.367 12.8221 21
386 1 1.39377 14.0289 15.5906 18
252 2 4.89162 13.9723 13.3644 21
422 1 4.55925 13.2947 16.0172 17
567 2 -0.181354 14.9296 16.4649 16
71 1 4.16318 11.9905 13.3167 20
388 1 -0.0465202 14.5725 18.4243 20
555 2 -0.442655 11.522 19.7813 17
390 1 2.51148 13.6702 21.0327 18
391 1 1.07342 11.7423 24.349 18
572 2 2.97872 13.4599 22.8876 15
427 1 3.88387 12.3527 24.407 20
601 2 4.78844 11.4376 20.924 21
566 2 0.46105 16.1038 19.3424 17
428 1 2.54259 14.8595 24.3543 20
565 2 0.813432 13.1711 20.8402 15
602 2 3.19339 15.2526 20.4018 22
608 2 4.60772 14.4313 24.5727 16
607 2 2.06197 16.6452 23.7289 19
605 2 3.9769 12.3786 26.701 19
394 1 0.165909 13.7677 27.2322 20
395 1 1.04443 11.916 30.3324 18
430 1 4.30869 14.1531 26.9979 20
576 2 0.981595 14.2712 29.9865 20
573 2 0.589581 12.4398 32.4253 18
26 1 0.893886 14.5117 32.1421 17
432 1 2.72198 15.3509 29.7636 21
612 2 4.49679 13.9895 29.8668 20
569 2 1.12542 11.8638 26.3173 16
431 1 4.19243 12.2393 29.6011 19
606 2 2.13763 14.7106 26.545 19
610 2 2.93501 15.1983 32.3885 21
611 2 2.34666 16.9163 29.1807 20
396 1 -0.668957 15.3965 29.9359 21
599 2 2.57778 11.6176 29.3318 18
570 2 -0.507673 15.2133 26.3052 19
417 1 2.67187 11.1681 27.2822 19
429 1 2.36336 16.9358 26.8704 21
62 1 4.45543 14.0224 32.3853 18
904 2 0.927601 20.2627 2.36873 18
1270 2 -0.724316 19.0753 -0.0643645 18
723 1 0.652777 18.4127 1.19127 18
940 2 4.14218 19.6115 1.69528 21
1317 2 4.31424 22.4891 -0.739359 17
724 1 -0.738276 21.4197 2.40305 19
938 2 2.68006 20.9931 4.99458 19
939 2 3.08613 22.6005 3.13029 15
726 1 1.02885 19.696 4.75313 19
760 1 2.92774 20.7964 2.40113 22
901 2 0.76941 17.9662 4.91106 17
759 1 3.8757 17.9253 2.72377 23
243 2 2.31675 17.293 1.24894 22
937 2 3.67365 18.3225 4.4943 20
762 1 4.90705 19.404 5.33833 21
758 1 4.02391 20.1589 -0.27268 16
905 2 0.459525 18.4933 10.2354 18
766 1 1.61145 19.7158 10.0228 19
908 2 1.57797 19.721 6.79952 17
251 2 3.16904 17.072 12.082 19
727 1 1.07734 17.8591 7.52396 17
764 1 3.05533 20.9567 7.00081 21
763 1 5.01627 17.9301 7.89589 18
943 2 2.88454 22.2607 8.31095 20
941 2 1.18611 21.4474 10.8964 18
765 1 2.60218 22.6443 10.211 19
983 2 3.99479 22.6249 11.5739 18
728 1 -0.700222 21.1812 8.0124 22
246 2 4.8151 17.581 9.73418 17
768 1 0.851951 22.249 12.5498 19
947 2 2.90028 22.1925 14.237 16
767 1 4.73727 17.7733 13.4739 20
1264 2 0.619085 19.7839 19.2752 15
1117 1 2.03163 22.865 16.2188 19
603 2 2.89599 18.3195 18.0679 20
909 2 0.99013 18.1368 14.9653 14
1118 1 3.61135 20.6435 15.3521 18
1120 1 2.15154 20.6448 18.0616 15
1082 1 -0.111643 19.1879 16.4236 18
946 2 1.62692 20.2012 15.9653 16
945 2 4.59206 17.3091 15.2652 17
730 1 0.404992 19.127 13.4039 18
421 1 2.69166 17.2525 15.76 21
1119 1 4.52642 18.6491 18.776 19
1300 2 4.00313 20.417 17.8165 17
942 2 -0.359877 17.7593 12.8192 18
1298 2 2.19573 21.2606 22.1387 15
1086 1 1.33635 19.778 21.1361 15
1087 1 0.794836 18.1285 24.284 20
1268 2 0.762379 20.3521 24.2419 18
1297 2 4.61641 18.6088 21.0594 21
1123 1 4.28494 17.5986 24.263 22
1083 1 1.72385 17.2996 19.2734 17
1124 1 2.37259 20.9399 24.4116 22
1261 2 0.759285 18.1726 21.2832 16
1304 2 3.84349 19.6719 24.7698 22
425 1 2.71172 17.0977 21.8001 20
1122 1 4.09376 20.094 21.8681 17
1272 2 0.331274 20.1928 29.25 18
1090 1 0.365974 20.2591 27.2638 20
1091 1 0.697686 18.094 29.132 18
1125 1 1.99833 22.7982 26.1201 20
1308 2 4.09728 19.5537 28.5562 20
1302 2 2.00674 21.0174 27.5274 20
1269 2 0.690048 17.6458 31.248 22
1128 1 2.87393 21.1653 29.3682 20
1265 2 0.662352 18.1601 26.5733 21
1092 1 -0.569577 21.3668 30.1764 21
757 1 2.39435 22.5483 32.2561 15
1305 2 4.01129 18.1984 32.2566 18
722 1 0.508722 20.37 32.1557 17
1301 2 4.52261 17.1976 26.2447 20
1306 2 2.21554 20.7975 31.842 19
1126 1 4.05534 19.8876 26.7636 20
1127 1 3.93242 18.5303 30.1514 19
1266 2 -0.770466 21.3809 26.1945 21
925 2 0.144046 27.9202 2.87062 16
737 1 -0.307139 28.9504 4.36785 20
735 1 1.27269 24.2689 2.36495 18
808 1 4.74852 26.6321 0.561583 17
952 2 4.90262 24.9229 1.29962 19
1281 2 1.56645 23.9306 0.408062 16
913 2 0.520947 24.2663 4.58828 18
774 1 4.3493 26.1862 5.00114 17
950 2 2.54206 27.3553 5.24711 17
772 1 2.19963 27.3697 2.4945 18
916 2 1.64324 26.1408 1.28913 16
721 1 -0.65487 23.1186 -0.107071 18
761 1 2.2566 22.9001 4.87551 19
734 1 1.71533 25.8352 -0.68499 18
738 1 1.07094 26.0853 5.20895 18
951 2 2.54078 28.8971 1.32911 18
949 2 3.61827 24.164 5.73389 18
771 1 4.78866 23.2204 2.22197 16
769 1 2.85278 28.9933 -0.558675 19
775 1 4.30122 23.685 7.98394 19
739 1 1.575 23.8255 7.92185 20
954 2 2.35584 26.836 10.1087 19
742 1 -0.0770146 27.0714 8.35961 19
953 2 4.83504 24.6531 9.58383 21
776 1 2.82245 27.1179 8.20685 22
920 2 1.01031 26.3339 7.11233 19
911 2 -0.473235 23.9861 11.9619 20
917 2 1.30157 24.1455 9.76561 20
929 2 2.87299 25.346 12.3105 21
956 2 4.65204 26.5314 7.24749 20
778 1 4.35763 25.6837 10.9621 21
743 1 1.46862 25.1813 11.2212 21
777 1 2.7443 28.6032 10.4746 20
2327 1 -0.515041 23.8232 13.7815 20
1131 1 4.08148 24.2254 19.161 18
1275 2 -0.540462 28.8681 18.0906 22
1263 2 -0.342178 25.2014 18.1379 21
924 2 0.909795 27.2812 12.7517 18
957 2 3.69521 26.2048 14.8012 18
921 2 0.697212 23.6336 15.372 18
780 1 2.41251 27.292 13.9825 21
1130 1 3.86641 26.5097 16.8029 16
958 2 2.22639 27.2593 17.0291 18
1094 1 0.613465 26.2013 16.6748 23
1312 2 4.09003 26.1132 18.646 21
779 1 3.58117 23.5588 13.2498 18
1132 1 2.64362 27.4925 19.1172 24
1299 2 2.52314 23.3098 18.0601 20
744 1 -0.802868 26.7232 13.0541 18
1310 2 3.60629 27.4731 21.8682 19
1098 1 2.05467 25.9853 21.8706 22
1099 1 0.628284 24.3582 24.2799 20
1134 1 4.59393 25.7924 21.7017 21
1280 2 1.07654 26.2299 23.7695 19
1309 2 4.44731 23.8944 21.3332 18
1135 1 4.14766 24.0006 24.2242 20
1136 1 2.8327 27.023 24.2021 20
1273 2 1.43067 24.2318 20.9751 19
1316 2 4.49984 25.9019 23.643 21
1276 2 1.01686 26.8395 20.2652 23
1100 1 0.017638 27.8082 23.6882 15
1095 1 0.689801 24.0657 19.1253 21
1096 1 -0.461035 27.0213 19.1687 20
1315 2 1.86923 28.744 23.4154 19
1303 2 2.36548 23.6904 24.3119 21
1121 1 2.5195 23.1917 22.0116 19
1313 2 3.18726 23.8484 26.7619 20
1102 1 1.35274 25.8706 27.0671 20
1103 1 0.829747 24.3222 29.8241 18
1314 2 2.66466 27.248 26.0756 21
1307 2 2.3815 23.2064 29.7753 17
1277 2 0.582787 24.2958 26.3556 16
770 1 3.30856 27.3614 30.4138 19
1140 1 0.951858 27.7882 29.8036 17
1139 1 4.01551 24.095 28.9951 18
1278 2 0.434046 27.28 28.0742 15
1284 2 1.85519 26.0789 30.2213 14
1282 2 -0.724978 28.1237 30.8892 18
1138 1 4.29197 26.1586 27.3069 19
1318 2 3.28777 27.2966 32.2469 19
1320 2 4.45975 25.825 29.1262 20
783 1 4.33405 29.993 1.97143 17
962 2 2.6574 32.7833 5.36668 17
2509 2 1.47976 30.353 5.37091 17
786 1 4.42077 31.5665 5.6616 18
747 1 0.716093 29.9373 1.59579 19
750 1 0.925531 32.0409 5.09004 17
748 1 -0.606724 33.2639 2.53918 21
782 1 4.2974 32.035 -0.518693 19
964 2 3.97849 31.8314 1.37963 20
784 1 2.52168 32.8169 2.05512 20
928 2 0.650724 31.8947 1.98957 21
961 2 4.46502 29.8547 4.74974 18
746 1 0.801307 32.2509 -0.369944 23
749 1 -0.800572 34.5749 5.07787 17
785 1 2.9271 34.5699 5.25952 19
1329 2 4.50063 30.0353 -0.453722 17
963 2 3.44188 34.4682 1.72446 18
773 1 2.90223 29.056 5.36512 22
751 1 1.15182 30.0473 8.09078 19
787 1 4.35249 29.9997 8.68631 22
966 2 2.39877 33.0185 10.5401 18
754 1 0.699858 31.8491 10.7791 18
965 2 4.50643 30.6262 10.6763 20
788 1 3.0587 32.9207 8.15375 22
932 2 1.06863 31.9612 8.84333 18
2513 2 1.10188 30.1217 10.2936 19
968 2 4.62384 31.6431 7.757 20
967 2 3.16165 34.5411 7.37177 20
790 1 4.62782 32.5607 10.9716 20
752 1 -0.586327 33.1281 8.69045 17
931 2 -0.411561 34.9455 8.33454 15
955 2 2.72903 29.0411 8.3808 20
969 2 4.21209 29.5789 16.2339 20
972 2 4.30782 32.4344 12.9197 17
791 1 3.86571 30.2291 13.1727 18
959 2 2.46439 29.1298 13.2803 17
933 2 0.836837 30.3629 15.6028 19
755 1 0.584713 29.5435 13.3417 19
1142 1 4.35553 32.0419 15.0854 21
1288 2 0.91763 32.4288 18.2869 19
1106 1 0.837537 32.2164 16.0436 18
970 2 2.71039 33.0442 15.4877 20
1311 2 2.27797 29.899 18.544 18
1129 1 2.6003 29.2864 16.3926 21
1143 1 4.07119 30.5661 18.231 20
1144 1 2.84574 33.0707 18.0806 19
792 1 2.57715 33.2378 13.4019 16
1107 1 0.509337 30.3941 18.6364 21
1324 2 4.1817 32.0912 19.2946 19
1093 1 -0.635304 29.042 15.9384 21
1108 1 -0.866276 33.3791 19.2777 20
1322 2 3.08722 33.4145 21.1584 19
1110 1 0.764643 32.0814 21.4045 18
1111 1 0.609151 30.3781 24.0644 16
1279 2 -0.704393 29.1275 25.0946 18
1146 1 4.91383 32.3643 21.0386 21
1147 1 4.66223 30.3995 24.0767 22
1328 2 4.27605 32.1001 24.8809 19
1148 1 2.40277 33.4231 23.9503 21
1285 2 0.827694 30.2294 21.3286 20
1292 2 0.980074 32.3286 23.626 19
1321 2 4.35634 30.5264 21.5303 21
1133 1 2.74006 29.4416 21.8465 19
1293 2 1.35029 30.4817 32.2732 20
1114 1 0.873223 32.1525 27.549 17
1115 1 1.39785 30.7399 30.2681 17
1296 2 0.152282 32.1683 29.2567 19
1150 1 3.93532 31.9733 26.8348 20
1325 2 4.35654 29.5532 27.2142 17
1326 2 2.23608 33.2119 27.1246 17
1152 1 3.27447 33.3725 30.6337 18
1149 1 2.01316 34.9093 26.5202 18
1330 2 2.55434 33.0545 32.5751 19
1332 2 3.80792 31.8516 29.3459 19
733 1 -0.646829 29.6452 32.44 19
1151 1 4.33435 30.0223 29.0158 18
1294 2 -0.841627 33.3947 32.4423 22
1290 2 -0.710129 33.3273 26.5151 19
1319 2 2.36552 29.0699 29.1735 21
1137 1 2.29918 29.2686 26.8004 22
1289 2 1.64946 30.6795 26.0902 18
220 2 6.03433 1.13549 2.67905 17
255 2 8.09044 3.89524 1.1106 16
39 1 5.08417 -0.323657 2.47124 16
76 1 6.91343 2.67521 3.30909 15
290 2 8.82494 2.47994 4.10259 21
38 1 5.07972 1.44314 -0.43169 16
254 2 6.1352 2.98873 4.80264 19
112 1 9.52558 3.38527 2.18327 17
853 1 8.78074 -0.652767 -0.275714 16
75 1 7.68324 -0.230764 3.23401 23
1035 2 9.51902 -0.842027 1.65521 17
109 1 9.41522 4.96185 -0.732928 20
253 2 7.8846 0.025019 5.41015 18
74 1 8.13186 2.44575 0.209126 19
624 2 6.98305 0.350411 -0.214783 17
821 1 5.79574 -0.754386 5.6307 21
77 1 6.83587 4.64693 5.383 18
825 1 5.99738 -0.518923 9.27165 19
80 1 6.35562 2.56647 8.08214 20
260 2 8.08443 3.24984 7.38752 20
82 1 8.28145 1.52796 10.5471 18
116 1 8.74283 4.33423 9.21154 15
294 2 9.65881 3.23228 10.2571 18
257 2 8.5373 -0.207178 9.7834 18
258 2 6.58807 2.75563 9.98395 20
295 2 9.93928 5.0025 6.77508 20
78 1 7.9884 1.91735 5.89285 17
1003 2 5.94053 0.152607 7.46762 21
259 2 6.57168 5.06286 8.21359 18
84 1 6.23491 2.72298 12.3508 15
81 1 6.06656 4.8447 10.161 22
263 2 5.8877 4.37756 12.3409 19
264 2 7.55345 1.46395 12.5069 18
616 2 8.27612 2.06053 18.2866 21
436 1 6.37775 3.13112 18.7889 20
83 1 8.19898 0.347158 13.6979 19
261 2 7.57709 -0.128742 15.7553 21
262 2 6.0119 3.18252 15.5781 23
472 1 9.53142 3.25023 19.0307 19
120 1 9.96066 2.90493 13.2161 23
298 2 9.51231 2.96778 15.9367 20
1007 2 5.47759 -0.742186 13.7438 19
433 1 6.25594 5.08114 15.7739 21
434 1 7.71818 1.97573 16.1219 19
469 1 9.60094 4.79711 15.9389 21
1213 1 9.18336 -0.858922 16.0468 20
1177 1 5.96203 -0.783112 16.2329 21
299 2 10.3112 4.74752 12.8732 16
297 2 10.6635 0.201886 15.327 20
650 2 9.45558 3.22888 20.9787 23
438 1 7.88876 2.3682 21.7044 19
439 1 7.71043 0.200966 24.1459 18
440 1 6.24412 3.16655 23.9133 19
620 2 7.64564 2.08199 23.3997 15
476 1 10.0428 3.58914 24.8458 19
613 2 6.07265 0.43689 20.5687 16
1181 1 5.60048 -0.544274 22.0527 19
614 2 6.02298 3.66011 20.9592 23
1363 2 5.68064 -0.311672 24.1449 17
656 2 10.437 1.8998 24.2554 16
435 1 7.42302 0.341291 19.3614 21
660 2 7.2567 2.54753 29.4272 18
442 1 7.24231 2.49323 27.6457 16
443 1 7.74545 0.253286 29.2163 18
444 1 5.86698 3.10686 30.4446 19
1221 1 8.89722 -0.881196 27.0932 18
480 1 9.46239 3.0806 29.7236 17
618 2 5.42375 3.73298 26.6782 18
256 2 9.67433 2.82433 32.4663 22
659 2 9.5941 4.84309 30.3244 17
479 1 10.688 -0.100394 30.0433 18
617 2 6.91449 0.241541 27.6926 18
654 2 8.89312 3.33549 26.6891 19
653 2 10.5926 -0.196287 26.7977 22
622 2 5.95861 3.13887 32.2302 18
73 1 5.79074 4.99321 32.3442 19
265 2 7.86602 6.37443 5.46886 17
90 1 8.16842 7.84214 4.11394 19
87 1 8.11842 5.86581 1.20052 19
88 1 6.17732 9.03821 1.88821 21
268 2 7.31869 7.54313 2.15815 18
266 2 6.67569 8.95085 4.95609 21
267 2 5.67683 10.904 2.09092 20
124 1 9.91507 8.93807 1.98777 22
634 2 5.98279 9.25739 -0.275934 16
302 2 9.67138 9.20435 4.04125 18
86 1 7.58666 7.81549 -0.567177 18
670 2 9.23122 9.10703 -0.407401 18
113 1 10.6383 5.57053 4.98951 19
125 1 9.49393 11.0575 4.85697 19
89 1 5.86138 10.8939 4.60815 20
291 2 9.90356 5.17882 2.61372 21
121 1 9.93013 10.8757 -0.399015 17
91 1 7.76982 6.31048 7.20054 19
92 1 6.08149 8.74276 7.90528 21
272 2 7.70345 8.08705 7.7181 16
94 1 7.85081 7.62233 10.1482 21
128 1 9.4937 8.71645 7.68391 22
306 2 9.49643 8.8271 9.68696 20
269 2 8.50891 5.84038 10.4667 16
270 2 5.9834 8.77903 10.0443 21
93 1 5.66393 10.6425 10.0669 21
276 2 7.27945 10.2203 12.3241 17
307 2 9.42133 10.8595 7.03434 22
311 2 10.0322 10.0797 12.1855 19
129 1 8.87987 10.8404 10.6407 20
117 1 10.5659 5.9636 11.4019 17
271 2 6.01523 10.8186 6.98451 21
240 2 5.18373 7.74546 13.1202 21
445 1 6.21849 10.915 15.9933 19
615 2 6.20021 5.28298 18.1035 21
628 2 7.92988 8.03177 18.6366 20
274 2 6.03487 8.84359 16.2192 17
95 1 8.12028 5.59799 13.3011 19
273 2 8.16943 5.90199 15.0364 18
673 2 9.85068 10.9287 18.1639 23
446 1 7.74952 8.15462 16.1522 20
627 2 6.50599 11.0253 19.0169 20
447 1 7.86553 6.08895 18.9571 21
663 2 9.75843 8.976 15.6792 16
484 1 9.56195 9.01539 19.0781 20
448 1 6.3126 9.26605 18.2301 23
132 1 9.63788 9.49969 13.8435 14
651 2 9.4445 5.27946 18.3159 23
96 1 5.63863 9.66847 13.1034 17
632 2 7.55029 8.76928 24.9067 17
450 1 7.79558 8.08918 21.4762 23
451 1 7.22654 6.64177 24.5087 19
452 1 6.09848 9.53091 24.1833 20
662 2 9.19407 9.11404 21.2235 20
488 1 9.1843 9.06757 23.5946 19
625 2 7.69495 6.48085 20.6788 23
626 2 6.33191 9.4201 21.9749 23
437 1 5.67745 5.4231 21.5871 22
473 1 8.8436 5.3193 21.7545 21
619 2 5.89993 5.31986 23.4876 22
655 2 8.57035 6.13624 23.5645 19
485 1 10.0536 10.7775 21.6374 22
666 2 8.95355 9.02843 27.6155 16
454 1 7.38247 8.91358 26.8259 19
455 1 7.88265 5.8553 30.4773 18
456 1 5.53922 9.1206 29.8402 18
636 2 7.27882 8.37809 31.0165 19
492 1 8.66818 8.59949 29.8653 19
629 2 7.60013 6.38948 26.2767 19
630 2 5.60704 9.27053 27.7596 24
672 2 10.4967 7.987 29.75 17
671 2 8.68353 10.8133 29.4685 18
441 1 6.09936 5.60011 27.5369 18
633 2 7.50636 5.59347 32.4227 18
477 1 9.02981 5.79926 27.15 19
623 2 6.47189 5.67235 29.4397 20
277 2 7.8911 12.1486 4.15591 18
278 2 6.15215 14.7025 4.81983 18
315 2 9.59855 17.0338 1.92447 16
100 1 5.88705 15.0937 1.37442 18
314 2 9.72395 13.9158 5.64977 15
99 1 7.60369 12.0661 2.08521 16
137 1 10.084 16.1344 4.98887 17
136 1 9.03222 15.2521 1.12416 15
280 2 7.09413 13.8853 2.36365 16
102 1 7.91437 13.7586 5.0682 19
303 2 9.26206 11.2616 1.29272 17
101 1 5.85064 16.4801 3.7733 18
103 1 7.61426 11.6379 7.72743 24
104 1 5.79044 14.8933 6.81204 18
284 2 7.43941 14.3044 6.91578 19
106 1 7.69047 13.3557 10.0272 19
140 1 9.43756 14.5926 7.74877 18
318 2 9.09244 14.6871 9.60013 19
281 2 7.52626 11.5554 9.98152 20
282 2 5.75511 14.3876 10.6187 18
105 1 6.1105 16.3486 10.5962 19
317 2 10.5262 12.0482 9.51296 21
288 2 7.88631 13.5597 12.2049 17
319 2 9.91079 16.8191 7.00568 21
141 1 9.38961 16.8136 9.23267 17
640 2 8.67538 13.6976 18.1664 18
460 1 6.58489 14.8386 18.8692 20
459 1 8.27392 11.86 18.7865 22
108 1 7.62664 16.6515 14.8791 16
286 2 7.10571 15.4294 16.2308 21
639 2 5.46018 16.6851 18.6688 18
287 2 6.38462 16.6022 13.3684 18
322 2 9.86422 13.5377 15.0794 18
604 2 5.03292 13.4663 17.9032 19
107 1 8.35483 12.0249 13.2215 19
458 1 8.3412 13.9812 16.2098 17
285 2 7.89146 11.3524 14.9837 19
144 1 9.53539 14.3472 13.3849 18
675 2 9.71921 17.0921 18.458 19
496 1 9.64343 15.3252 18.5477 18
72 1 4.96725 15.4323 14.4082 15
481 1 9.62012 11.165 16.0026 18
34 1 6.37972 14.7821 12.6126 17
674 2 9.83357 15.3632 22.0859 20
462 1 7.94126 13.8414 21.941 18
463 1 7.86814 12.116 23.9166 16
464 1 6.30221 15.3182 25.3333 21
644 2 8.07847 14.4401 24.4561 21
500 1 9.76198 15.1357 24.9448 17
631 2 5.91555 12.135 24.8227 20
638 2 6.34939 14.2303 20.8372 19
497 1 10.2631 16.8405 21.0021 17
637 2 8.37681 12.075 21.5732 19
643 2 5.71006 16.7596 22.8482 21
426 1 5.17354 15.0362 22.4644 19
677 2 9.17987 11.1271 23.3516 18
449 1 6.84596 11.3509 21.0225 18
635 2 5.74392 11.3625 30.561 17
466 1 7.82774 14.0374 27.9982 19
504 1 9.5563 15.5708 29.846 16
468 1 5.70417 15.3286 30.2504 22
648 2 7.80131 15.0517 29.8055 19
467 1 7.39693 11.8827 30.1043 18
641 2 7.88246 12.158 27.5322 17
682 2 9.72916 14.8092 31.7192 16
678 2 9.49038 14.685 26.7983 19
642 2 6.17521 14.5618 27.3024 18
501 1 9.46837 17.0407 27.1347 19
465 1 5.74566 17.0241 27.447 20
453 1 5.98705 11.9791 26.9605 20
98 1 7.82169 15.1953 31.9724 17
489 1 9.62896 11.3932 27.9409 18
646 2 6.04231 15.4779 32.4893 18
85 1 5.47477 11.1981 32.3034 17
974 2 6.12307 20.835 4.52835 20
97 1 5.40118 17.8358 -0.0788785 23
795 1 7.73224 17.854 2.09684 18
796 1 6.17855 20.5238 1.5627 18
833 1 9.9212 23.0255 3.88855 16
798 1 7.9208 20.1572 4.71584 17
976 2 8.01105 19.5948 1.64023 19
832 1 9.45992 20.9243 1.49962 19
973 2 7.83412 17.3848 4.35498 18
1010 2 9.82044 20.2293 5.3442 17
1378 2 9.44541 21.0148 -0.649153 22
975 2 6.33369 22.2941 2.02619 18
133 1 9.32468 18.1373 -0.123271 19
1011 2 9.47246 22.8883 1.6992 16
1342 2 6.079 19.5983 -0.488793 18
279 2 5.85044 17.289 2.28765 21
797 1 5.67865 22.661 5.26297 18
834 1 10.652 19.1421 3.89017 18
799 1 7.88242 17.8791 6.30144 23
800 1 6.22116 21.0263 7.8857 19
980 2 8.09141 19.8555 7.31835 20
802 1 7.72581 19.9102 9.95577 20
836 1 9.44361 21.3207 7.04174 18
1014 2 9.80485 21.2164 10.741 18
977 2 8.3927 18.0485 10.1192 14
978 2 5.44825 20.7353 9.66394 18
984 2 7.7831 20.2152 12.0991 15
803 1 8.18341 18.3347 12.7549 17
283 2 6.23688 17.0474 6.93467 20
979 2 5.73213 23.0061 7.30233 18
837 1 9.21853 22.8896 9.85863 19
804 1 5.31476 20.7289 11.7998 15
944 2 5.02207 19.6901 7.27829 19
801 1 5.80229 22.501 10.4442 16
840 1 9.6214 20.9949 12.6105 17
457 1 5.94328 17.2094 16.5429 19
1336 2 7.30311 19.689 18.59 18
1156 1 5.81755 21.1169 18.4527 16
1192 1 9.36742 21.2908 18.4792 17
982 2 6.16678 21.7932 16.3251 16
1154 1 6.52521 21.0516 14.583 19
493 1 9.24413 18.9471 16.5888 17
1018 2 9.41541 21.1349 16.6745 19
323 2 9.4331 17.2782 14.3087 15
981 2 7.49059 18.2278 16.1742 19
948 2 5.1019 19.8824 14.0577 17
1190 1 10.407 21.1022 15.1551 18
1155 1 8.00887 17.5965 18.5022 20
1019 2 9.2722 22.4832 13.8049 17
1159 1 7.82199 17.5075 24.7713 18
1158 1 6.95857 19.4138 22.9517 14
1339 2 5.42277 22.7873 24.9459 18
1160 1 5.82407 20.9811 24.8514 17
1340 2 7.27933 19.4181 24.728 17
1196 1 10.024 21.4117 23.7983 21
1333 2 7.66478 17.622 20.5819 16
1334 2 5.54245 20.1793 22.9707 14
1370 2 10.4753 21.7826 21.8031 19
1194 1 10.24 19.8408 20.6386 18
679 2 9.72804 17.0985 24.5558 20
461 1 5.7803 17.2466 20.8261 17
1344 2 7.77607 19.9635 29.349 19
1343 2 5.71807 22.8941 29.1463 18
1163 1 7.51091 18.1307 30.079 22
1164 1 5.97037 21.0644 28.8224 18
794 1 7.64511 20.3022 31.7086 18
1200 1 9.21259 21.2328 29.7572 21
647 2 5.41446 17.2177 29.6262 19
1353 2 7.43632 22.1573 31.1104 16
1374 2 9.56717 20.9043 25.8975 19
1197 1 9.67497 22.8559 26.4581 18
1338 2 6.26733 21.1421 26.9181 14
1341 2 8.54832 17.6537 31.5618 22
1161 1 5.15876 22.8853 26.8049 21
683 2 9.48257 17.3615 29.1312 21
829 1 9.10204 22.9975 31.9199 18
1337 2 7.5959 17.285 26.5918 19
1162 1 7.81436 19.9284 26.6876 21
1199 1 10.6156 18.564 30.2141 20
988 2 8.00294 25.6283 1.82538 20
810 1 7.33378 25.698 4.22491 14
807 1 7.80946 23.6792 1.26696 18
986 2 5.86872 26.6665 4.42617 14
1022 2 9.18743 26.9704 4.2278 15
985 2 8.48943 24.2767 4.8028 18
806 1 7.91287 25.9897 -0.109525 17
844 1 9.29193 27.0596 2.09957 18
809 1 6.18702 28.7685 4.45543 20
793 1 5.6082 24.1621 -0.655061 17
846 1 10.4475 25.8564 4.65313 15
1023 2 9.37186 28.9101 2.14034 18
811 1 7.67227 24.0951 7.21607 16
812 1 6.09762 27.4441 8.27612 17
1026 2 9.06232 26.4674 11.0169 16
814 1 7.41091 26.3796 10.875 16
848 1 9.37458 27.1421 8.31709 16
992 2 7.97551 25.9748 7.91674 18
989 2 7.43793 22.9722 10.8118 20
990 2 5.60914 27.5127 10.4211 19
1027 2 9.5692 28.9177 7.50376 19
1015 2 9.29731 23.1228 7.93347 17
996 2 7.37109 25.5982 12.9261 17
1167 1 7.52892 24.107 18.6987 21
960 2 5.21622 24.1473 14.1776 16
816 1 5.38465 26.0201 13.8355 16
994 2 6.04153 27.2576 15.6573 19
1168 1 5.87438 27.056 19.0242 18
852 1 8.45493 27.232 13.4416 16
1030 2 9.30602 27.2858 15.1065 19
1166 1 7.87647 26.9846 16.6119 18
1153 1 5.43667 23.5625 16.0028 20
815 1 8.01216 23.6345 12.7279 17
1420 2 10.2851 26.144 17.7571 16
1348 2 7.62963 26.8982 18.3542 16
993 2 7.71484 24.5925 16.6994 19
1189 1 8.91122 23.5296 15.7512 20
1382 2 9.50962 27.4064 21.3868 19
1170 1 7.71171 26.4176 21.8964 20
1157 1 6.32399 23.3632 20.8795 14
1172 1 5.92289 26.7365 24.224 20
1352 2 7.73574 26.6677 23.7291 22
1208 1 9.43132 26.8848 24.5593 24
1171 1 7.92424 23.8032 23.7824 19
1346 2 5.86752 26.6929 20.8943 21
1345 2 7.73021 23.759 22.0767 16
1371 2 9.57486 23.3902 19.1837 20
1335 2 5.79723 23.1455 19.1645 17
1193 1 9.51153 23.2524 21.1383 18
1375 2 9.82279 23.2418 24.0509 19
1204 1 9.78257 27.0666 19.2981 19
1356 2 8.1185 25.6769 30.0269 18
1386 2 9.21576 26.9434 26.3608 21
1175 1 7.33156 23.8745 29.763 18
1176 1 6.30401 26.8416 29.989 18
1354 2 6.33144 25.9519 32.4616 16
1212 1 10.2346 26.6544 30.3757 18
1349 2 7.97904 23.7695 26.2102 21
1390 2 9.42441 26.8271 32.4937 17
1174 1 7.51928 25.6863 26.8779 18
1350 2 5.85524 26.3952 26.2729 20
1391 2 9.47445 28.7302 29.51 21
1209 1 8.87363 29.0439 26.2708 22
1173 1 5.78789 28.5062 26.2909 20
1379 2 9.08092 23.4201 29.1875 17
1355 2 6.06074 28.7656 29.9437 19
1034 2 9.51699 32.5352 4.88381 20
822 1 7.65468 31.9115 4.43608 20
819 1 7.57256 29.8508 0.891062 18
820 1 5.88225 32.8154 2.48557 19
997 2 7.91618 30.0672 5.10745 20
857 1 9.3374 34.7501 5.1929 21
1000 2 7.66014 31.8329 2.46692 19
856 1 9.3892 33.0694 2.25038 20
1365 2 7.72919 29.5294 -0.738725 17
817 1 5.83764 34.559 -0.640213 18
999 2 6.63572 34.1829 3.39649 16
998 2 6.18148 32.5711 5.63063 20
621 2 7.70537 33.5931 -0.117574 16
845 1 9.51928 29.1613 4.25337 17
987 2 6.11159 29.2079 2.05422 17
823 1 7.73688 29.6585 7.04307 21
824 1 6.58597 32.5902 7.60768 19
1004 2 8.53137 32.6988 7.91515 19
826 1 7.87027 32.0654 9.94639 21
860 1 10.3293 32.27 7.04582 20
1038 2 9.59754 33.1664 10.4222 20
1001 2 7.62256 30.4814 10.928 18
1002 2 6.17067 33.2934 9.55604 21
991 2 5.94068 29.1525 7.84863 19
79 1 8.80911 34.3633 8.52795 16
813 1 6.11877 29.5204 10.6855 18
849 1 9.20008 29.2796 10.7404 19
861 1 9.98927 34.9909 11.2161 18