ITEM: TIMESTEP
23000
ITEM: NUMBER OF ATOMS
5760
ITEM: BOX BOUNDS pp pp pp
-0.169195666 32.969195666
-0.134598784 34.274598784
0.4082817755 63.1917182246
ITEM: ATOMS id type x y z Coordination
1 1 -0.231532 5.84869 0.887091 21
2 1 1.30943 2.3011 0.800858 23
3 1 1.46455 0.545129 3.60178 22
4 1 32.1924 9.27541 3.55202 22
5 1 7.0602 9.50822 3.856 21
6 1 1.67166 7.39824 7.44222 22
7 1 10.8613 33.0309 9.77712 18
8 1 0.345307 33.7645 6.07174 22
9 1 27.32 6.13633 15.0417 21
10 1 1.38067 2.81615 7.96793 21
11 1 8.70703 5.12654 13.1838 18
12 1 31.4012 2.51235 14.0465 23
13 1 32.9088 11.1217 0.832374 23
14 1 1.34577 8.5158 0.987197 22
15 1 3.05806 3.6073 2.61798 24
16 1 28.9621 9.60174 3.28526 21
17 1 28.1763 30.7832 12.6663 21
18 1 1.21453 12.9019 12.3222 20
19 1 32.1687 8.04067 6.70014 21
20 1 27.1314 6.28144 6.26358 18
21 1 30.2681 13.6045 10.1305 21
22 1 32.7156 13.188 14.462 22
23 1 28.9632 13.6165 19.2854 21
24 1 32.0355 10.514 14.8272 18
25 1 0.0267373 17.0907 0.696875 23
26 1 1.98023 14.2559 0.681171 22
27 1 32.1203 16.1025 9.45463 18
28 1 0.339494 13.367 9.64956 21
29 1 29.8803 17.9724 11.1543 23
30 1 4.25247 14.5812 6.49833 20
31 1 31.8176 7.47577 9.96221 21
32 1 -0.365822 13.2491 5.83168 21
33 1 27.5924 19.8623 13.0991 22
34 1 27.9954 13.5189 12.7726 16
35 1 4.66017 13.2761 12.8267 21
36 1 21.838 25.0978 6.45932 23
37 1 2.93698 6.00655 0.88986 23
38 1 4.39889 2.51106 0.743099 21
39 1 6.05589 32.5952 2.78441 23
40 1 1.89957 2.78163 5.24476 21
41 1 2.91216 5.23707 6.03336 21
42 1 7.60982 1.77541 6.3424 21
43 1 7.01602 0.649823 10.239 19
44 1 4.5125 31.3654 5.9556 23
45 1 1.70538 6.7489 3.68488 22
46 1 12.7997 3.65726 8.67279 23
47 1 6.84715 0.449327 17.0607 19
48 1 30.5321 5.57276 14.1828 22
49 1 3.00071 11.3619 1.21466 23
50 1 4.61005 8.52642 0.750202 20
51 1 4.58738 6.01671 8.11127 20
52 1 27.4501 5.78801 3.63224 23
53 1 0.840989 9.69405 9.71284 20
54 1 8.29083 12.4654 2.91542 18
55 1 2.80871 5.52831 13.3256 21
56 1 32.2658 2.26982 6.51744 21
57 1 30.9361 12.311 17.2799 21
58 1 -0.123971 6.2019 19.1104 25
59 1 9.96006 4.84287 20.8238 21
60 1 7.60833 11.0449 17.863 20
61 1 3.04977 17.1849 1.05002 25
62 1 4.93703 14.3583 1.25687 25
63 1 3.32375 15.258 3.93814 22
64 1 7.45744 7.62109 6.37588 19
65 1 26.7762 18.3118 7.08295 21
66 1 1.26996 15.6824 6.638 20
67 1 5.29683 13.1192 8.41875 22
68 1 0.162941 21.0249 3.32569 23
69 1 1.8934 18.3482 3.17295 22
70 1 8.91767 12.4576 8.39285 23
71 1 30.3152 20.6613 12.8442 23
72 1 31.4592 11.9136 12.1921 20
73 1 6.0207 5.49833 0.799879 23
74 1 8.08916 2.7693 0.664499 25
75 1 11.7692 0.524175 3.43115 24
76 1 3.79181 11.0673 11.5149 20
77 1 30.2878 1.82632 8.69113 22
78 1 11.0078 2.60642 11.0412 18
79 1 10.3849 0.050712 6.20689 22
80 1 4.26092 8.77285 3.28468 22
81 1 2.4292 34.1318 18.1464 23
82 1 9.76973 34.2418 18.9861 21
83 1 11.535 33.5115 13.2115 16
84 1 4.28966 9.16305 22.1064 22
85 1 6.34512 11.4574 1.15715 21
86 1 7.83067 8.24082 0.602881 21
87 1 3.72489 10.4576 8.85359 21
88 1 9.64033 9.45075 3.11523 19
89 1 5.73135 4.6688 14.2921 19
90 1 9.91432 3.61578 3.488 22
91 1 4.19728 9.00325 6.53726 21
92 1 10.5768 6.82644 11.2432 19
93 1 3.21549 8.17897 15.0742 20
94 1 4.8078 0.479878 8.65653 23
95 1 7.32571 6.48936 21.0408 21
96 1 12.6701 9.20732 14.3801 24
97 1 6.31268 17.2116 63.2774 21
98 1 8.26107 14.8177 0.851115 19
99 1 11.4714 11.8249 3.40551 19
100 1 6.59774 15.2774 3.68557 21
101 1 4.96778 18.398 3.28793 22
102 1 9.36289 10.6513 5.66264 20
103 1 8.29167 15.0686 9.31346 22
104 1 2.36834 15.6071 14.0108 23
105 1 15.8014 15.8366 6.09466 23
106 1 4.76142 12.1715 3.64704 21
107 1 30.3437 9.65412 10.7679 16
108 1 31.7503 15.2832 12.1634 20
109 1 9.44371 5.54901 0.985631 23
110 1 11.4348 2.1993 0.856815 24
111 1 13.2206 3.25339 3.07925 22
112 1 7.48924 6.57749 3.14524 20
113 1 4.59249 6.22364 3.92753 21
114 1 13.1643 0.649866 11.054 16
115 1 16.7211 0.725836 6.30389 22
116 1 7.44849 12.8258 15.2388 21
117 1 11.9641 6.45636 13.6736 23
118 1 15.0189 0.654828 8.4236 20
119 1 18.5238 30.9923 19.0136 22
120 1 12.4709 33.708 21.5125 24
121 1 9.05429 10.8463 63.083 18
122 1 11.1705 8.04656 0.640915 20
123 1 9.50138 5.85016 4.91126 19
124 1 6.87027 11.8532 5.93687 19
125 1 16.6042 6.05327 5.59032 21
126 1 9.59955 8.90611 8.19559 19
127 1 16.8799 6.29553 12.0645 22
128 1 6.09725 4.67905 17.025 16
129 1 8.01815 33.2105 8.20488 24
130 1 15.5594 8.09092 9.28143 20
131 1 7.92939 16.9619 15.7423 22
132 1 10.5076 19.7246 8.86987 21
133 1 9.75825 16.8478 0.844342 21
134 1 11.5467 13.9877 0.823701 22
135 1 14.7567 12.1068 2.96053 21
136 1 11.5742 17.3594 3.51456 21
137 1 12.2203 23.0671 8.80564 20
138 1 14.4677 5.89945 7.35352 21
139 1 22.894 13.0576 5.76513 20
140 1 6.39858 9.62066 8.03174 21
141 1 5.84704 10.4938 15.4978 20
142 1 11.9248 18.2787 11.2082 24
143 1 19.0532 15.6398 19.1702 20
144 1 9.61243 11.4951 14.2383 22
145 1 13.2221 5.16411 0.457831 21
146 1 15.0303 2.50082 63.1804 20
147 1 22.9753 5.49723 5.75692 18
148 1 11.6172 5.79861 2.70052 20
149 1 14.7817 6.21531 3.39994 24
150 1 13.2979 3.42975 13.0621 18
151 1 21.1416 31.3953 11.2057 23
152 1 11.547 2.82622 6.03797 21
153 1 9.76202 31.6469 13.978 24
154 1 17.5275 -0.0265052 19.386 21
155 1 15.8193 28.6806 20.161 19
156 1 9.90132 6.35083 16.1941 23
157 1 13.0921 10.9143 0.483651 21
158 1 14.4107 8.17165 0.814237 21
159 1 11.4358 8.20597 5.5994 21
160 1 7.35722 6.8159 9.10923 22
161 1 8.38804 9.27775 10.9894 20
162 1 18.7843 16.3897 7.98351 20
163 1 11.4348 3.26952 17.4712 23
164 1 10.9608 6.14602 7.7818 21
165 1 9.34471 16.7831 6.19313 23
166 1 22.9327 11.1411 8.85835 21
167 1 13.563 31.992 18.6034 20
168 1 17.7188 9.33221 10.2944 24
169 1 12.9337 16.5909 1.0342 23
170 1 14.7087 14.0243 0.715757 21
171 1 15.9074 10.6694 13.1529 24
172 1 13.1561 14.6472 3.7739 24
173 1 19.5579 7.1707 10.8284 21
174 1 20.6723 10.7623 6.4872 19
175 1 15.0092 2.92098 5.67001 24
176 1 5.13343 15.2489 15.6111 20
177 1 14.6455 13.4671 10.8986 18
178 1 19.5133 13.6699 13.2356 17
179 1 15.8922 3.60682 9.60802 20
180 1 21.8213 26.6931 11.7317 22
181 2 8.42589 2.56144 2.70534 21
182 2 5.85386 29.9315 5.74094 24
183 2 0.455883 1.54908 5.2374 19
184 2 3.42277 1.25758 5.19831 24
185 2 4.32277 3.46399 18.2147 21
186 2 24.8315 1.86999 11.5673 26
187 2 1.77006 12.4535 63.0641 22
188 2 3.76489 4.25458 7.35247 23
189 2 8.43094 13.1947 10.1558 19
190 2 6.61857 11.5072 14.0806 22
191 2 0.825059 4.46571 19.6912 23
192 2 0.402424 8.72756 8.00791 19
193 2 4.54667 0.826666 62.5815 20
194 2 2.55986 6.30016 14.9919 22
195 2 29.3715 11.4896 2.92616 21
196 2 31.3144 6.93609 5.15995 22
197 2 4.9994 4.70725 9.61544 21
198 2 -0.215973 12.3203 7.74557 24
199 2 6.24616 6.50788 18.0369 21
200 2 31.8737 7.17136 11.706 19
201 2 11.9064 10.2454 9.96379 21
202 2 26.2969 11.5203 18.1212 20
203 2 32.3983 14.3237 16.2659 18
204 2 28.1401 32.9555 14.4923 21
205 2 1.09893 4.65317 16.7085 25
206 2 0.389364 14.944 5.04896 19
207 2 25.8351 9.49648 6.07837 19
208 2 31.3192 14.3853 2.48537 23
209 2 28.9086 27.6033 19.3361 20
210 2 30.9632 17.6178 8.11916 20
211 2 32.4854 20.6239 17.6228 22
212 2 2.4665 10.5638 7.61536 21
213 2 25.136 5.58996 19.0484 21
214 2 25.9126 12.7078 26.1006 22
215 2 29.1605 7.13397 15.4207 20
216 2 32.353 4.44119 11.3743 21
217 2 11.7984 28.2117 8.24425 22
218 2 5.8222 5.18975 2.79781 22
219 2 3.25377 34.1975 2.70178 24
220 2 9.9347 2.96338 12.6036 20
221 2 2.4412 9.71586 10.853 20
222 2 28.9297 2.83443 7.73635 24
223 2 8.64083 5.79944 10.8818 21
224 2 12.9674 32.3424 5.4294 22
225 2 9.9622 33.0206 12.5002 18
226 2 8.00635 11.4674 21.0846 21
227 2 2.64257 1.61742 11.6663 20
228 2 12.0098 1.93438 9.39634 19
229 2 0.784641 8.67955 2.87207 22
230 2 24.2157 12.424 13.6761 18
231 2 5.32198 9.81181 1.76043 21
232 2 8.56958 14.5677 2.80295 20
233 2 0.091757 33.8553 7.88104 25
234 2 10.2308 6.31984 14.2901 19
235 2 26.9697 12.4411 5.13957 19
236 2 31.0148 12.4848 4.95703 24
237 2 3.0827 9.73084 23.8901 21
238 2 3.07526 11.8586 3.25491 22
239 2 27.3949 24.3528 12.985 22
240 2 27.7646 9.46368 17.3097 21
241 2 -0.0997008 14.836 8.37085 19
242 2 1.84162 14.3808 2.67229 22
243 2 6.59347 16.8459 2.6904 23
244 2 4.74636 11.7944 5.49901 19
245 2 31.7573 22.1566 11.6067 21
246 2 7.13807 9.78215 6.0431 22
247 2 23.4661 21.3398 5.81771 21
248 2 3.04423 9.53175 4.84487 19
249 2 5.77326 14.6944 9.43843 22
250 2 5.60871 10.2787 11.5235 23
251 2 12.0161 18.8799 22.2411 23
252 2 0.864965 15.8781 17.5803 22
253 2 12.1181 0.638916 5.40198 22
254 2 0.816627 4.0216 6.50592 21
255 2 3.4551 7.17223 2.42097 20
256 2 7.47613 4.58884 7.81282 25
257 2 15.3042 33.7118 7.31454 20
258 2 8.45901 13.0049 6.59216 22
259 2 13.0349 3.54745 5.17493 22
260 2 8.10147 0.917019 7.89637 18
261 2 31.9172 28.9953 13.2783 24
262 2 11.9816 6.51546 19.3757 22
263 2 4.22691 30.6653 10.9498 23
264 2 4.10921 6.50947 26.9417 20
265 2 16.1799 4.21308 6.34315 24
266 2 27.4168 3.36417 10.7944 23
267 2 9.88328 8.99661 4.90885 19
268 2 3.73519 17.0925 3.10735 20
269 2 16.6089 9.55402 12.0311 21
270 2 9.81186 20.7841 6.44688 24
271 2 5.02266 14.2589 3.37549 21
272 2 3.4132 11.8914 13.3268 24
273 2 3.49836 12.8577 19.7046 20
274 2 8.07862 2.7379 9.97591 21
275 2 8.9523 18.6179 16.5384 20
276 2 8.03606 8.55686 8.9339 19
277 2 3.04644 16.1458 9.45188 24
278 2 7.63842 16.5363 5.33174 21
279 2 1.48045 19.9917 2.35444 24
280 2 14.7427 14.0995 2.69623 22
281 2 9.37143 7.15547 6.91914 22
282 2 27.8893 17.3773 4.89725 22
283 2 29.5816 17.0132 2.35869 25
284 2 4.32771 12.0974 9.85272 18
285 2 6.00942 10.0319 23.3473 18
286 2 10.9837 15.4797 13.7877 21
287 2 13.6579 11.8645 8.91664 19
288 2 8.65872 6.46062 19.6767 19
289 2 10.0863 3.9307 5.4238 23
290 2 17.2043 4.61001 8.62659 21
291 2 3.26299 4.83645 4.15202 20
292 2 11.3033 2.41904 3.00969 22
293 2 14.6499 31.3635 17.0155 21
294 2 9.37006 31.3652 15.7927 25
295 2 8.52407 8.06125 2.31388 22
296 2 11.3002 28.747 5.5378 21
297 2 27.2527 1.71008 14.243 20
298 2 -0.0519183 11.4843 13.2129 18
299 2 15.4014 1.07648 4.7841 22
300 2 14.4415 32.5475 20.8683 21
301 2 23.5264 3.85536 5.05761 22
302 2 11.4784 6.58026 4.69055 20
303 2 9.5687 11.0641 3.72822 22
304 2 13.3701 5.18406 2.9583 21
305 2 9.04091 33.8282 9.73986 22
306 2 3.01907 13.6278 7.78447 22
307 2 15.6088 16.5284 9.53843 22
308 2 10.9615 7.54833 9.10811 20
309 2 4.50286 4.5718 12.7084 19
310 2 22.43 6.16168 17.7668 18
311 2 30.8457 13.633 19.0119 22
312 2 8.83734 10.8146 12.5182 19
313 2 5.71173 15.5309 6.85967 21
314 2 14.3478 11.7867 17.7684 24
315 2 12.1785 18.4482 9.08887 23
316 2 18.299 24.3661 11.7386 25
317 2 1.83781 18.8636 17.7466 22
318 2 11.565 8.44181 2.27506 22
319 2 8.66255 10.7144 9.74596 20
320 2 4.97745 18.8547 5.03855 23
321 2 19.345 5.03157 19.6271 21
322 2 12.0961 13.3968 23.4517 18
323 2 9.32128 20.773 12.8534 22
324 2 11.6588 11.5253 17.8682 19
325 2 16.527 5.20968 3.12882 24
326 2 14.4316 8.19717 17.4218 20
327 2 16.4191 11.3433 2.91974 21
328 2 16.4692 9.20096 5.45792 19
329 2 13.9776 2.02082 7.36373 20
330 2 12.6838 2.26588 11.7663 19
331 2 10.7316 13.1718 9.05517 20
332 2 15.7055 7.46551 7.3865 20
333 2 16.6564 1.67767 13.8318 20
334 2 12.1357 25.1267 8.88332 20
335 2 17.7282 33.9338 17.3841 20
336 2 9.99892 1.83312 23.7332 22
337 2 22.1631 6.67536 7.50191 19
338 2 7.48237 6.29397 4.99365 20
339 2 12.3572 15.3224 8.16493 21
340 2 24.6737 8.08028 2.90047 22
341 2 10.8793 4.29643 8.69469 21
342 2 15.2338 7.10863 11.7475 23
343 2 19.5983 5.52973 2.81824 23
344 2 17.7317 4.17444 12.0629 20
345 2 11.2056 10.4649 14.8609 21
346 2 17.6055 9.79897 17.6588 21
347 2 16.6714 13.4824 15.6647 23
348 2 8.9212 8.18087 24.6285 17
349 2 13.965 13.0174 14.8798 22
350 2 11.6418 13.785 3.41032 22
351 2 10.0042 18.374 10.8602 19
352 2 9.36357 16.7536 2.66906 24
353 2 12.8848 6.64247 7.83909 19
354 2 9.93596 15.6059 10.4295 22
355 2 19.6084 16.7661 4.0996 22
356 2 4.91879 8.39614 16.0279 20
357 2 11.1835 18.8856 18.6574 20
358 2 7.08662 4.393 12.5118 20
359 2 10.53 16.1489 24.0211 22
360 2 1.3208 13.7095 14.0381 23
361 1 25.6206 5.78858 9.22948 22
362 1 2.99999 12.8809 15.0753 20
363 1 6.60368 2.11421 22.6381 21
364 1 22.2787 2.42292 26.4547 22
365 1 28.5174 4.03896 21.2923 21
366 1 32.4737 8.95212 17.8557 19
367 1 6.28277 32.0955 29.6163 25
368 1 24.1604 7.84135 23.8783 24
369 1 30.3475 6.93503 24.204 20
370 1 1.72378 14.0955 26.9376 21
371 1 29.1632 3.5015 29.6542 22
372 1 31.1673 8.45813 31.9004 24
373 1 2.71531 21.0917 13.382 19
374 1 10.203 14.0089 24.4676 22
375 1 31.9954 13.8583 20.3747 22
376 1 6.80633 10.925 26.6853 18
377 1 32.9992 8.80208 29.8136 23
378 1 31.9069 32.8271 21.4466 22
379 1 4.30635 6.38845 29.5426 21
380 1 30.1079 7.13117 16.8575 24
381 1 31.7562 8.29038 26.6978 22
382 1 3.15408 10.8575 19.8334 24
383 1 2.95223 15.0179 29.5115 22
384 1 32.4557 13.344 24.5623 20
385 1 16.5238 18.6166 15.5734 19
386 1 4.80021 21.6352 11.4439 21
387 1 30.971 11.9259 22.0202 20
388 1 26.3357 27.9923 23.3006 23
389 1 4.13815 26.8386 20.0634 22
390 1 10.24 9.75431 16.6253 19
391 1 3.45535 12.3231 29.7707 21
392 1 5.75322 12.4864 20.195 19
393 1 26.2139 26.5392 16.043 21
394 1 31.108 6.17701 29.2641 23
395 1 7.6422 6.14551 29.6729 23
396 1 4.70366 8.04471 32.5153 22
397 1 8.05783 11.1016 23.0459 22
398 1 9.47894 1.5681 9.13262 24
399 1 9.28533 1.55898 21.7215 20
400 1 2.07371 8.10589 18.0619 23
401 1 31.0993 1.66291 21.5386 21
402 1 1.62026 32.2293 14.7371 22
403 1 6.00895 7.039 26.3683 24
404 1 2.87514 8.70931 30.3598 22
405 1 8.96293 7.18469 27.264 18
406 1 -0.0820598 3.02041 23.9506 20
407 1 -0.231744 33.8915 32.7692 23
408 1 29.4748 5.59691 31.7158 22
409 1 3.54382 18.0731 13.294 21
410 1 7.38596 14.549 17.4556 22
411 1 2.04174 7.59968 27.0775 22
412 1 1.45001 10.5969 16.8687 21
413 1 6.78273 16.4374 25.3652 22
414 1 7.56106 31.3594 19.0225 22
415 1 3.53094 0.786574 23.9459 18
416 1 2.91161 5.02542 31.8112 23
417 1 7.8364 16.4154 28.1223 20
418 1 9.71191 9.15344 29.591 26
419 1 18.0652 10.6572 26.9056 20
420 1 6.09067 3.38983 30.0942 23
421 1 3.3044 14.1397 9.75851 19
422 1 5.37949 18.7613 20.1439 21
423 1 0.894154 13.427 17.5817 22
424 1 0.724394 22.7194 14.8324 22
425 1 1.99802 13.9554 20.5115 21
426 1 8.11939 13.5373 26.5032 21
427 1 0.16955 5.59723 24.9928 24
428 1 6.72613 8.83619 29.0747 19
429 1 9.89899 24.3339 18.7139 22
430 1 32.8532 15.0767 29.5851 21
431 1 20.6084 18.0803 24.7457 21
432 1 3.65023 17.1999 24.9181 21
433 1 5.91093 21.7362 21.7578 19
434 1 4.87563 6.20638 22.8305 19
435 1 29.1405 23.5058 17.8083 22
436 1 7.0743 9.8369 20.4385 23
437 1 10.146 7.22553 18.7811 19
438 1 4.52921 7.55489 19.5064 22
439 1 3.38499 5.37997 25.2146 19
440 1 7.40482 1.8989 27.3209 21
441 1 10.1715 6.63902 24.026 20
442 1 30.5487 0.583276 24.017 23
443 1 4.66038 9.38868 24.8273 17
444 1 5.24135 4.42525 27.5203 22
445 1 4.07854 13.1967 17.7268 20
446 1 16.0452 8.83458 16.1513 22
447 1 8.80339 0.37468 24.6125 21
448 1 11.4821 15.0179 27.4143 22
449 1 3.18213 19.6351 16.7302 22
450 1 2.15812 14.76 23.7309 19
451 1 12.3342 7.99748 27.1144 19
452 1 1.43395 3.32852 11.5649 23
453 1 15.8729 16.5177 25.0422 22
454 1 8.03292 18.0272 30.1723 24
455 1 11.3566 6.55173 29.5635 25
456 1 1.11279 6.21554 29.5305 22
457 1 8.45406 16.1246 23.0555 22
458 1 7.59523 8.1362 18.4375 20
459 1 14.6542 10.246 26.665 22
460 1 8.65957 19.541 21.9076 20
461 1 32.3959 23.6769 17.709 23
462 1 13.2053 29.2213 20.7863 25
463 1 9.30744 10.184 25.5298 21
464 1 13.0706 18.7273 28.0253 19
465 1 6.09589 20.8116 29.48 23
466 1 17.9382 13.8261 21.7232 21
467 1 4.91599 13.3952 26.7483 17
468 1 4.8317 17.84 29.2066 20
469 1 27.4409 3.60393 8.90095 22
470 1 11.7661 2.01265 20.8701 21
471 1 12.8662 4.20963 22.5697 24
472 1 8.27666 33.8772 13.1241 20
473 1 0.905724 8.77347 21.0626 21
474 1 17.0135 28.2449 26.6138 22
475 1 10.1252 0.199948 27.3466 22
476 1 8.05107 0.326331 29.6539 20
477 1 11.3347 31.7011 26.8712 20
478 1 2.66556 11.6624 25.4984 19
479 1 4.89306 0.575387 29.3685 22
480 1 12.9038 9.20456 24.4307 20
481 1 10.0101 12.0372 11.0582 24
482 1 13.3049 16.2965 20.0766 25
483 1 13.3114 9.74421 21.4725 20
484 1 10.6532 4.27573 14.4105 20
485 1 14.3664 21.7512 27.7697 23
486 1 4.70056 4.46403 20.4521 22
487 1 9.88828 16.842 25.8625 19
488 1 15.2844 14.3342 22.791 22
489 1 15.0901 2.97685 18.7093 21
490 1 12.6071 7.34597 21.0231 18
491 1 10.7204 11.4811 27.1199 21
492 1 11.1335 12.0115 30.0344 20
493 1 8.69295 20.2493 11.0014 23
494 1 15.2707 11.6769 15.4515 19
495 1 7.14698 8.06776 23.5753 21
496 1 12.4413 21.4337 22.005 19
497 1 10.8606 18.9564 16.6853 18
498 1 14.7365 12.5131 29.7201 24
499 1 20.3574 12.6351 18.2955 22
500 1 11.1924 20.9501 26.9356 23
501 1 14.9731 24.1221 18.7184 23
502 1 9.07989 21.0863 29.3116 21
503 1 9.69562 14.9625 29.2861 24
504 1 13.2376 12.734 27.5614 22
505 1 15.9193 31.3455 20.4168 22
506 1 17.6859 4.15417 18.528 22
507 1 21.6068 24.454 16.0174 21
508 1 16.2409 0.956125 11.6847 21
509 1 12.1185 5.59767 25.49 19
510 1 15.8724 12.588 24.9716 19
511 1 10.9649 2.63694 26.9572 21
512 1 13.1104 9.89277 29.2382 24
513 1 9.66925 3.86563 29.9437 23
514 1 11.1976 0.99948 29.9188 24
515 1 16.8579 32.8478 22.695 20
516 1 8.48215 4.62944 27.1185 20
517 1 15.4271 4.48263 21.4681 22
518 1 17.5092 6.51757 8.37851 21
519 1 8.60781 5.07478 18.3436 19
520 1 6.27168 14.8624 29.3191 20
521 1 21.157 6.8555 21.5239 22
522 1 10.0532 10.4163 19.5271 21
523 1 14.7629 1.49049 22.0607 19
524 1 17.8034 6.44506 28.696 21
525 1 15.6128 7.39908 27.2807 18
526 1 8.21391 11.6752 29.2192 20
527 1 13.9537 4.61598 27.4481 21
528 1 14.0602 7.05637 29.6257 24
529 1 12.2962 13.8823 9.24658 20
530 1 18.2655 22.8325 13.3615 22
531 1 16.0513 1.78095 27.3658 19
532 1 18.877 8.88885 22.6479 20
533 1 19.0909 23.4481 23.4029 18
534 1 16.2655 22.9111 21.8085 23
535 1 13.8115 18.4818 22.7444 23
536 1 20.7111 16.2707 16.6749 19
537 1 6.85581 18.9306 24.6147 21
538 1 22.455 18.1505 21.6984 22
539 1 14.5553 15.5066 27.6632 22
540 1 16.6451 21.2985 29.5456 23
541 2 13.7971 7.1158 26.3036 21
542 2 3.52541 9.09477 18.7836 23
543 2 30.5874 34.2438 14.2755 21
544 2 27.8826 4.45199 15.8242 20
545 2 4.6543 1.91009 22.7583 18
546 2 24.0654 5.68354 23.2337 23
547 2 2.85442 3.82957 20.7113 22
548 2 29.3562 30.0066 13.9228 22
549 2 2.7978 32.0113 30.8589 21
550 2 0.198026 3.48345 31.619 22
551 2 29.6982 8.86192 26.6231 20
552 2 3.20616 2.61769 31.5022 21
553 2 1.79932 6.42911 25.6997 17
554 2 8.43542 11.2505 16.0222 24
555 2 28.8802 21.5875 24.2793 19
556 2 -0.0816242 16.5445 11.3497 24
557 2 -0.109828 31.3669 22.7215 19
558 2 31.5848 5.72065 20.087 22
559 2 8.5277 11.6217 26.8199 18
560 2 5.73837 2.82127 20.6837 18
561 2 1.1542 2.78594 28.8364 22
562 2 3.23092 10.4005 29.255 19
563 2 1.76149 1.9938 23.7369 19
564 2 2.83346 8.91164 32.3082 21
565 2 28.4882 16.7244 18.8419 20
566 2 1.05378 19.5295 28.9966 22
567 2 32.7707 20.094 10.51 21
568 2 32.1964 15.7524 21.0304 21
569 2 6.63641 10.5073 28.4844 22
570 2 30.8494 19.6354 28.3276 19
571 2 31.2996 22.4892 26.7988 21
572 2 1.36003 11.9627 27.1356 18
573 2 5.12031 12.5324 31.2335 21
574 2 -0.15071 14.6231 31.525 21
575 2 8.14154 17.8062 26.1959 22
576 2 0.308786 20.3879 25.5061 20
577 2 2.08395 1.84965 16.132 20
578 2 5.51338 25.8026 21.3489 24
579 2 1.07086 0.227189 31.1461 21
580 2 29.6694 2.31872 12.7346 22
581 2 -0.0741183 33.7777 28.4727 22
582 2 1.48783 0.389218 26.6285 21
583 2 7.75595 3.61559 17.8766 19
584 2 1.67173 7.82885 28.9029 21
585 2 5.13385 -0.0817277 31.1103 24
586 2 2.73765 5.32678 29.9229 22
587 2 27.9727 6.55419 26.2775 19
588 2 1.12921 6.44256 31.6574 21
589 2 7.18936 0.832447 19.0492 22
590 2 5.22193 33.3505 22.2108 19
591 2 6.57809 9.56049 18.8164 24
592 2 5.47435 14.9677 17.672 21
593 2 4.55572 11.6171 26.4165 19
594 2 31.1151 11.9299 26.5058 21
595 2 3.22931 14.2316 25.4641 20
596 2 31.4122 4.38108 24.1718 18
597 2 4.57406 6.24154 31.5923 21
598 2 1.1145 8.37302 34.8413 25
599 2 3.27123 15.1288 31.3453 24
600 2 4.47145 8.30304 28.7384 19
601 2 2.9477 13.0171 22.8544 18
602 2 1.09479 18.4823 20.4201 23
603 2 3.4893 8.12397 13.1261 20
604 2 9.30369 13.4018 13.4218 21
605 2 8.85235 12.8886 23.4501 19
606 2 29.5893 9.20547 31.1136 24
607 2 2.75234 9.9237 15.7373 19
608 2 4.18031 21.638 22.2655 19
609 2 7.93801 13.9157 28.5518 23
610 2 4.73928 18.1521 31.5518 22
611 2 10.7114 18.1883 32.2535 20
612 2 13.0782 14.919 31.3982 23
613 2 11.5895 5.07945 23.6979 21
614 2 1.62289 27.3547 14.3714 21
615 2 32.3266 17.8482 26.3199 22
616 2 11.3884 14.1811 29.4712 21
617 2 13.605 2.1751 23.285 21
618 2 16.2647 31.2576 22.3149 22
619 2 11.2459 8.43664 28.812 21
620 2 14.4334 6.27498 21.181 19
621 2 7.87036 0.230225 31.7411 24
622 2 6.40547 3.5396 32.0462 21
623 2 1.31107 14.87 28.5511 20
624 2 9.78136 14.2277 18.6556 21
625 2 25.0452 4.58423 10.3864 22
626 2 19.3906 8.06643 20.9056 21
627 2 5.24885 11.9641 16.6574 23
628 2 6.55051 34.1547 28.4902 23
629 2 17.2015 17.0283 19.7808 21
630 2 8.12371 7.88601 28.709 21
631 2 5.87731 8.97852 26.3103 19
632 2 10.9171 6.96175 25.9482 20
633 2 8.00801 6.19399 31.5216 25
634 2 -0.1493 17.1508 28.9435 24
635 2 5.74142 15.1133 25.9107 19
636 2 5.99275 5.22221 29.2491 23
637 2 12.0692 9.96772 26.336 20
638 2 9.65334 10.2622 23.7008 22
639 2 31.2614 21.1021 23.9257 23
640 2 0.346075 8.49182 16.5355 24
641 2 16.9004 11.0154 23.8636 20
642 2 30.8247 22.6411 18.0118 24
643 2 2.87446 17.1354 29.1761 21
644 2 5.77059 16.6627 20.6917 21
645 2 8.32482 11.9321 31.125 22
646 2 6.5078 15.0772 31.3327 25
647 2 14.9494 12.0556 32.0487 22
648 2 6.50233 16.7492 29.1966 21
649 2 10.6893 2.66652 15.6923 18
650 2 15.3408 4.74136 19.5789 20
651 2 6.90391 8.24825 21.4332 20
652 2 9.99229 34.0477 16.9278 20
653 2 3.23021 4.22356 26.6487 23
654 2 2.74908 5.24727 23.1491 21
655 2 16.9128 8.28087 22.8318 21
656 2 9.75394 5.52449 29.1394 21
657 2 11.2862 0.77615 32.0052 19
658 2 9.94152 3.36385 31.8468 21
659 2 16.3686 6.61717 25.7692 18
660 2 13.33 8.00243 23.0182 21
661 2 17.9717 8.38918 29.1515 19
662 2 12.4165 3.95414 26.298 20
663 2 11.0696 17.0215 27.153 22
664 2 14.0568 16.7629 18.4456 19
665 2 8.9638 14.9853 25.8989 19
666 2 18.3187 4.05372 25.0614 18
667 2 8.66158 19.2409 23.9111 21
668 2 17.6092 12.413 26.2427 19
669 2 7.57075 2.34305 29.3521 23
670 2 9.41826 9.52748 31.2775 24
671 2 8.75836 17.8249 20.7274 21
672 2 13.0909 11.7995 29.3481 22
673 2 2.35308 12.4846 16.8584 19
674 2 15.85 5.94017 28.4144 20
675 2 7.42931 22.4209 17.6304 22
676 2 7.14499 19.9861 14.3781 18
677 2 7.75362 5.96132 25.9579 21
678 2 11.445 13.0465 25.9263 22
679 2 10.9435 20.1699 28.6699 23
680 2 5.23913 18.259 23.8329 23
681 2 9.61489 15.1795 31.754 22
682 2 12.986 20.8703 31.9004 21
683 2 18.0711 13.908 29.0011 21
684 2 13.0006 10.8391 22.9541 21
685 2 16.0325 -0.160451 21.6437 21
686 2 10.8173 6.92586 21.84 19
687 2 14.4354 13.2265 24.0868 22
688 2 17.3619 2.30866 10.5278 20
689 2 13.3454 26.8243 31.4412 22
690 2 21.7372 14.3769 29.1688 22
691 2 11.6271 3.92907 21.1184 20
692 2 12.4784 33.7482 19.1442 22
693 2 14.6305 0.838006 31.688 23
694 2 11.2702 6.44761 31.6326 23
695 2 14.5974 3.31764 28.8053 20
696 2 6.57613 8.97046 31.353 24
697 2 4.07802 34.0735 11.2878 22
698 2 9.40017 9.0058 18.9136 21
699 2 9.941 8.29063 12.1638 22
700 2 12.4549 14.4761 19.435 21
701 2 21.0635 5.81326 26.2858 21
702 2 17.5985 10.8202 20.1515 23
703 2 19.4876 14.6471 26.6632 21
704 2 4.70628 13.7479 28.7659 21
705 2 14.6313 6.64701 31.3028 24
706 2 12.8485 9.10935 31.2778 22
707 2 15.0237 -0.0934622 26.7292 20
708 2 10.0662 11.0645 28.899 24
709 2 17.9878 19.8983 20.6344 19
710 2 8.94543 26.7979 20.2669 20
711 2 10.0514 22.4189 18.768 17
712 2 14.8555 19.8496 28.7674 24
713 2 13.0089 5.66357 28.8674 23
714 2 1.83755 23.2008 27.0058 23
715 2 11.5906 19.4581 25.5513 23
716 2 18.4295 13.7129 23.4962 22
717 2 14.6708 14.5144 29.2319 23
718 2 11.1676 11.9155 32.0728 21
719 2 9.40048 23.4352 28.7255 24
720 2 9.19521 21.2805 26.6387 21
721 1 -0.0475091 22.8275 0.232728 23
722 1 1.50234 19.7896 63.211 22
723 1 3.19684 17.7893 5.17518 23
724 1 31.1463 18.2821 3.14645 25
725 1 27.3406 23.8672 9.30904 27
726 1 31.2492 23.4018 3.00383 20
727 1 1.07747 18.9797 14.4925 23
728 1 23.7281 18.6218 8.54287 21
729 1 29.5342 13.1778 15.3259 20
730 1 5.79635 18.6087 14.4294 20
731 1 24.6641 21.2988 10.7583 19
732 1 2.37949 24.6991 8.57385 20
733 1 0.103671 28.5407 1.00673 22
734 1 1.7832 25.6174 0.751682 23
735 1 1.91441 21.7081 9.3125 23
736 1 5.80149 29.7131 11.0819 21
737 1 31.7715 27.6917 9.96915 23
738 1 2.29273 28.8803 13.8269 23
739 1 13.6384 18.3589 13.6534 20
740 1 -0.0298857 28.3868 5.35777 24
741 1 10.3129 0.94735 15.5578 17
742 1 21.9022 20.8612 9.54537 19
743 1 32.1134 15.672 17.2712 22
744 1 30.8395 26.0539 16.2714 24
745 1 -0.271017 34.1259 0.833628 22
746 1 1.3148 31.4607 0.19281 23
747 1 1.51041 29.8012 3.46624 22
748 1 29.4198 32.4462 3.32692 24
749 1 3.30895 34.1497 6.32777 22
750 1 30.8863 27.8468 6.20094 24
751 1 5.26683 27.5703 8.68046 21
752 1 25.382 4.43792 5.73355 21
753 1 30.6497 30.039 8.10828 18
754 1 32.1621 21.6619 9.58306 21
755 1 27.0676 7.89272 10.0956 17
756 1 10.252 26.4988 13.0844 22
757 1 3.27972 22.4468 0.771886 21
758 1 4.93205 20.1107 0.710707 22
759 1 -0.0841077 15.2121 3.10548 20
760 1 3.14953 21.1234 3.76153 24
761 1 4.45263 19.2794 8.63725 21
762 1 7.60835 14.6946 6.56528 20
763 1 -0.0668202 18.365 11.8373 22
764 1 32.7005 18.4429 6.0359 20
765 1 31.9161 20.7643 15.6607 23
766 1 14.5132 18.7101 19.3069 20
767 1 2.6578 16.796 17.2354 24
768 1 2.56931 23.1427 5.96128 20
769 1 2.94467 28.8844 0.6512 22
770 1 4.80779 25.5474 0.82217 23
771 1 4.62842 23.8793 3.5315 22
772 1 1.47051 23.9884 2.85723 20
773 1 11.302 29.7965 9.49136 20
774 1 1.30881 26.1199 5.86292 24
775 1 4.90662 25.8492 6.0963 22
776 1 6.37853 33.5393 5.95166 21
777 1 1.34044 28.0396 7.82623 21
778 1 2.23691 17.7111 8.49542 21
779 1 7.63068 21.7101 13.7879 24
780 1 2.93984 23.4845 11.2757 22
781 1 3.31885 33.8175 0.697962 22
782 1 4.70423 31.194 1.08397 23
783 1 4.51866 29.401 3.68474 25
784 1 3.12513 32.4017 3.87902 22
785 1 1.38607 31.2087 5.84327 23
786 1 9.72807 32.4117 3.45755 22
787 1 30.0962 25.6656 9.29806 21
788 1 4.7515 2.87995 6.15693 23
789 1 3.15155 31.9541 11.7509 21
790 1 0.492513 31.9418 11.1978 24
791 1 4.69021 27.7398 12.9055 19
792 1 6.57151 3.3965 8.98249 25
793 1 6.39759 22.8411 0.896433 23
794 1 8.24996 19.6382 0.940916 21
795 1 9.68464 20.7903 3.20116 21
796 1 7.99799 17.6406 3.58563 23
797 1 10.7534 13.6398 6.4056 22
798 1 10.1942 15.1231 3.68222 22
799 1 7.66755 23.5418 10.6454 23
800 1 6.76483 12.0217 10.4974 21
801 1 2.62976 19.1909 10.5674 20
802 1 8.33551 18.3011 9.43532 20
803 1 5.88936 15.4832 11.5547 21
804 1 7.00138 20.9275 9.1124 22
805 1 6.4221 28.5573 0.833618 24
806 1 8.07362 25.5249 0.905645 23
807 1 8.15056 23.5294 3.54719 22
808 1 3.1481 26.5316 3.71939 22
809 1 13.0742 32.4784 7.39138 20
810 1 3.49154 28.8024 6.74705 22
811 1 -0.00816646 30.4264 8.89464 23
812 1 6.41193 3.26561 3.21062 21
813 1 7.15151 29.8189 8.21566 19
814 1 27.9891 19.2344 5.00771 24
815 1 4.65587 20.1081 6.38692 22
816 1 9.38957 29.3954 11.5136 25
817 1 6.27844 -0.198069 0.52364 22
818 1 8.01765 31.5871 0.7668 22
819 1 7.54278 30.8121 5.66679 23
820 1 8.40941 0.271003 3.54377 21
821 1 8.16116 2.77753 11.9596 20
822 1 3.62437 3.40088 8.89206 20
823 1 6.87628 22.7689 6.30322 21
824 1 6.87346 4.9785 6.18987 23
825 1 1.04629 0.731306 12.4955 24
826 1 5.22659 25.1585 10.7364 23
827 1 15.8067 32.0948 13.605 18
828 1 1.84495 32.9433 8.11892 20
829 1 9.60157 22.5142 0.654842 19
830 1 11.5754 19.5503 1.3708 24
831 1 14.6243 23.3421 3.32939 20
832 1 6.57382 20.6024 3.54245 21
833 1 14.0105 16.7174 8.64938 21
834 1 13.1231 20.5433 4.26509 24
835 1 5.84037 16.9165 17.7825 22
836 1 32.3092 22.9021 5.5481 21
837 1 10.0318 16.6266 18.1365 23
838 1 5.27699 16.5116 8.67294 22
839 1 10.9902 18.3838 20.4963 21
840 1 10.1024 12.6729 17.5222 23
841 1 9.66002 28.7403 0.849946 23
842 1 11.7826 25.6457 1.19594 21
843 1 8.36629 25.6113 5.60749 20
844 1 11.4031 23.6571 3.15199 22
845 1 9.1429 27.996 6.19165 21
846 1 6.37807 26.5841 3.16607 20
847 1 11.0708 24.332 11.3282 23
848 1 9.32707 27.0011 10.3887 22
849 1 16.2874 30.7832 16.1199 24
850 1 12.7301 21.6372 11.333 21
851 1 6.98779 23.7503 16.1078 22
852 1 15.2222 32.4931 11.0672 19
853 1 9.61502 34.1964 0.629763 20
854 1 11.21 31.4429 63.1743 24
855 1 7.59592 29.4458 3.40569 20
856 1 12.9313 32.3106 3.39366 21
857 1 16.8954 32.2392 3.71557 23
858 1 18.6224 30.7569 6.19635 21
859 1 5.1521 23.546 8.33609 21
860 1 14.5849 28.9156 14.5208 25
861 1 15.0427 23.5599 15.5258 22
862 1 13.322 21.855 16.2483 20
863 1 13.9731 29.0942 17.5065 21
864 1 1.7843 8.5267 12.1717 23
865 1 13.2475 22.3517 0.981079 20
866 1 14.5341 19.9729 0.637396 21
867 1 14.8257 17.1163 3.56729 21
868 1 15.8493 22.3662 5.91326 20
869 1 8.23336 19.6342 6.59557 23
870 1 12.5163 16.0754 6.47396 23
871 1 11.3539 9.69036 11.7099 23
872 1 10.3144 22.5854 5.84334 21
873 1 8.40395 14.1355 11.9857 24
874 1 11.3168 20.6848 14.1225 20
875 1 11.5756 15.075 11.9666 24
876 1 10.4786 23.8172 14.9538 23
877 1 12.7014 28.3442 0.935244 23
878 1 15.0472 25.3843 0.835408 19
879 1 17.8858 23.2956 3.46554 21
880 1 11.8631 26.8597 4.32769 18
881 1 14.1156 34.2068 5.32438 23
882 1 12.7513 29.46 6.48103 20
883 1 9.53542 26.6078 3.2387 21
884 1 6.26154 28.1401 5.91169 24
885 1 11.0425 29.4379 13.9955 21
886 1 11.5614 26.6678 9.62787 18
887 1 12.2916 26.5566 23.6726 19
888 1 9.8607 22.1346 21.452 22
889 1 13.0725 34.0207 63.131 20
890 1 14.9238 31.1517 0.90936 22
891 1 11.3094 29.5413 3.66482 23
892 1 14.9756 31.1109 5.57676 20
893 1 18.2643 0.811324 9.09337 23
894 1 14.8187 0.792025 2.86184 21
895 1 17.9529 30.6041 10.8127 22
896 1 7.79174 24.951 13.3117 24
897 1 13.6641 27.4522 7.90646 22
898 1 20.1868 33.7993 14.225 20
899 1 12.9982 22.5307 6.31872 22
900 1 18.6117 30.931 14.0043 23
901 2 8.29085 19.4973 3.61522 21
902 2 30.3887 21.2845 9.22112 23
903 2 5.96181 22.6649 2.70683 21
904 2 1.32984 25.7467 3.66326 20
905 2 7.33783 12.6142 18.7493 23
906 2 21.2916 25.7212 10.0315 21
907 2 26.6362 22.7395 4.33305 21
908 2 3.43103 18.4667 7.20977 20
909 2 6.10631 22.5264 14.7349 24
910 2 3.70374 15.2377 12.3784 21