ITEM: TIMESTEP
7000
ITEM: NUMBER OF ATOMS
1000
ITEM: BOX BOUNDS pp pp pp
-30.0 30.0
-30.0 30.0
-30.0 30.0
ITEM: ATOMS id type x y z Coordination
1 1 -3.38049 -9.75289 -13.8601 11
2 1 8.48927 -11.5125 2.83165 11
3 1 -8.66637 9.31427 0.149503 10
4 1 -7.83246 4.04155 -6.60886 16
5 1 -0.595646 -4.46702 8.52295 20
6 1 -5.71241 -0.954375 -13.9112 12
7 1 -3.9453 -10.3248 -0.37391 22
8 1 4.61474 -0.45568 5.26509 23
9 1 -1.1668 6.19312 6.73661 21
10 1 7.90563 1.21213 2.10945 23
11 1 1.42064 8.81955 -9.70812 15
12 1 1.38111 -0.371659 10.0713 19
13 1 -9.7896 0.193093 -2.34029 18
14 1 -0.97064 -5.16663 -10.5562 23
15 1 6.24371 2.21184 5.28543 20
16 1 4.84633 -5.34109 -7.82293 24
17 1 1.58279 3.23901 10.4036 15
18 1 -2.70517 -10.0826 4.68706 14
19 1 -8.60552 -2.4311 0.569672 18
20 1 -6.96407 -2.09624 -2.34987 21
21 1 -1.59935 12.9265 -3.98172 10
22 1 -1.18955 -3.73772 -13.2567 20
23 1 6.13388 -7.8105 -12.6453 15
24 1 1.02709 -7.40459 10.0752 11
25 1 -10.4778 5.84032 -0.367261 12
26 1 -2.02298 12.9665 -0.44044 13
27 1 2.50544 -12.6571 8.70664e-04 12
28 1 6.71382 -8.11551 -7.16878 17
29 1 9.10172 2.45594 4.87614 21
30 1 -5.77533 6.11837 -7.79572 15
31 1 -0.759768 9.89178 -7.56849 16
32 1 1.57304 7.62151 6.30157 19
33 1 -5.21039 -1.47581 0.132968 20
34 1 7.60444 -2.82668 11.0798 12
35 1 -9.73114 -4.93334 1.4026 17
36 1 12.9601 1.49899 5.06148 10
37 1 10.0686 -2.01772 -3.12403 21
38 1 8.24242 -0.763708 4.97031 22
39 1 -7.92216 -8.30203 -2.88684 16
40 1 -1.92732 -8.15309 -9.77031 20
41 1 -6.40063 12.6475 0.552823 9
42 1 -0.562559 6.64152 -7.5416 20
43 1 5.79378 -2.74939 -9.40678 23
44 1 9.42396 -8.02014 2.1776 16
45 1 8.22569 -11.3978 7.23556 7
46 1 -5.5755 5.8847 2.11321 19
47 1 -4.0839 -8.66592 7.3982 12
48 1 -10.2947 1.63588 3.96588 18
49 1 9.45922 -11.274 -8.44573 10
50 1 6.18959 0.804652 -14.4504 11
51 1 -0.262613 11.2407 4.19736 15
52 1 -5.00617 2.60472 -11.9099 12
53 1 1.37418 6.86789 -3.81463 18
54 1 1.10335 -8.81391 4.49755 18
55 1 0.709353 -7.93234 -10.6526 20
56 1 7.35388 -12.7094 -9.71632 10
57 1 -0.79282 0.917344 8.11928 21
58 1 -9.78396 -11.2114 -1.57104 11
59 1 8.07616 -4.77707 2.58123 19
60 1 -8.68178 -7.8399 -5.64537 14
61 1 10.1703 -9.15826 -1.19169 14
62 1 -5.595 9.07728 1.6916 18
63 1 4.3277 0.240761 -8.2349 24
64 1 7.79995 -11.2479 -2.39503 16
65 1 -6.12672 -10.3537 -2.08473 18
66 1 9.23141 9.72565 1.24831 12
67 1 7.22334 4.93623 -6.26896 18
68 1 -3.59686 8.92438 -3.39508 22
69 1 2.65634 -9.19018 -12.5698 15
70 1 -0.375712 8.67744 -4.54198 21
71 1 13.843 4.3474 -7.13818 9
72 1 5.56905 0.837149 -11.1105 25
73 1 8.27352 -9.18921 4.72171 17
74 1 -3.77105 3.37778 -8.66495 21
75 1 10.3502 8.55397 -4.52461 14
76 1 13.2334 1.58691 -1.1188 16
77 1 -0.412864 10.2534 -1.56648 20
78 1 -4.2896 -4.38087 -12.5309 22
79 1 -10.8068 -5.80554 -4.12001 10
80 1 -5.45186 3.61131 4.97108 19
81 1 -2.89473 11.133 -6.13652 13
82 1 5.16924 -4.41869 9.99564 14
83 1 -10.2597 -5.20587 4.26921 10
84 1 -2.86617 -12.8274 2.87061 12
85 1 3.23927 8.96218 -5.00661 19
86 1 13.5677 1.6881 1.5142 12
87 1 2.00497 -12.1762 7.81754 7
88 1 -4.88555 0.362942 -2.9815 22
89 1 3.00117 6.04941 8.87029 17
90 1 -4.12709 -1.69548 -7.78604 20
91 1 -5.3617 -7.37101 -0.329043 20
92 1 -9.23176 -13.9456 0.592562 7
93 1 8.19538 -8.16788 -4.14494 16
94 1 -2.37732 6.56784 1.11197 19
95 1 -3.47634 -1.63352 2.42959 23
96 1 -7.21191 -1.33026 -8.32594 18
97 1 5.0922 -9.03129 4.41173 21
98 1 6.25419 2.70714 -9.0013 21
99 1 3.97187 -2.05717 10.9034 17
100 1 0.180804 6.76655 -13.0159 11
101 1 -4.32972 -5.65429 -9.80495 18
102 1 -4.43269 12.1223 -2.43271 11
103 1 5.84033 -0.0874662 10.6776 16
104 1 -1.48087 8.01699 -10.9177 14
105 1 4.2039 3.91135 -11.8018 15
106 1 -7.74118 1.38656 3.7721 19
107 1 -8.2119 5.08285 5.52104 15
108 1 0.839488 -12.8759 -10.8272 10
109 1 5.49513 -6.5103 -5.09872 23
110 1 7.49942 8.0985 -9.32007 16
111 1 -1.66647 10.0901 1.702 19
112 1 -9.57905 3.20774 -1.493 19
113 1 1.29253 3.51754 7.22427 24
114 1 11.1767 -3.07765 -5.46091 22
115 1 6.60268 5.799 8.36862 12
116 1 -7.94772 3.35163 1.41617 21
117 1 -7.3834 -5.24445 -4.34362 18
118 1 -0.831267 -2.31624 11.259 16
119 1 3.58577 -9.94186 -0.503129 20
120 1 -0.786509 -2.05531 -17.4822 6
121 1 8.79997 -2.94143 -7.87998 19
122 1 -9.14434 -1.71375 3.92693 20
123 1 -7.50246 -6.32963 -11.6066 12
124 1 -1.74652 -7.31519 -0.0729331 23
125 1 -0.305393 -9.79354 -0.338228 22
126 1 -7.21308 -3.99623 -12.6195 10
127 1 -9.54759 0.669123 -7.96952 12
128 1 4.49518 3.19603 8.59962 19
129 1 9.34822 -7.30543 8.73968 13
130 1 -2.20296 -6.43728 5.29987 19
131 1 5.52859 7.75692 -0.590632 17
132 1 -7.39101 -9.01218 0.409567 19
133 1 1.1626 11.8645 1.01297 14
134 1 -5.09386 -7.40189 -13.4098 12
135 1 -4.42232 -11.07 -8.56721 13
136 1 -3.10875 -8.7734 -2.45432 19
137 1 13.915 4.90112 0.365827 7
138 1 -1.98726 -7.91304 -4.98958 17
139 1 -5.60499 -6.84675 5.68264 15
140 1 -1.73609 -11.8929 -2.57288 19
141 1 1.29109 -11.4928 -2.0967 21
142 1 2.34839 -14.5978 -3.42538 11
143 1 -7.73102 1.89918 -10.251 11
144 1 9.20077 8.69643 3.65942 9
145 1 0.660724 -2.25147 -11.1981 22
146 1 1.82125 9.49244 -12.5276 9
147 1 1.2061 -4.40587 6.25517 15
148 1 3.8218 11.5029 3.48878 11
149 1 11.3011 4.41402 6.02884 10
150 1 -6.34537 -1.7518 2.99677 21
151 1 2.86507 -8.74036 7.74989 14
152 1 -9.25969 8.16993 5.18525 9
153 1 4.09061 -5.93863 -13.649 15
154 1 6.03304 -8.4347 -1.95457 21
155 1 8.73829 -6.63951 -12.1418 16
156 1 -2.10277 -4.91021 2.17332 19
157 1 -1.01209 1.26041 11.3266 13
158 1 -6.84366 1.32268 -1.18815 21
159 1 8.43966 -12.9842 -6.14762 10
160 1 -0.49109 7.34045 -1.53275 18
161 1 -3.81814 3.86379 2.02159 20
162 1 2.6609 -11.5907 4.78986 14
163 1 -3.46141 5.36304 8.61962 12
164 1 -6.78336 -5.34088 -7.248 18
165 1 -3.53988 11.2862 6.55042 8
166 1 -1.65357 -0.296935 -7.86786 21
167 1 -9.68542 0.869702 0.712278 20
168 1 -2.16621 -5.82392 -7.45536 20
169 1 -4.49692 6.60013 -0.832836 21
170 1 9.37012 -3.49352 5.3863 18
171 1 5.77172 -7.52874 7.23911 21
172 1 0.232204 -1.69051 7.2878 19
173 1 0.923254 -12.4864 -7.54199 20
174 1 -2.55188 -2.64605 -10.1253 19
175 1 -9.46042 -0.83092 -5.64692 16
176 1 -0.0570622 -8.13988 -2.7616 21
177 1 13.3331 -1.53977 -3.40083 18
178 1 -1.58194 4.08801 -11.6838 15
179 1 -11.0004 5.46219 4.2501 9
180 1 -7.50442 10.9379 2.95228 11
181 1 -0.108052 2.07345 5.17741 22
182 1 10.5974 -4.84957 -9.93458 12
183 1 11.0085 -1.18564 -8.49074 14
184 1 -3.66399 3.2318 -3.48595 23
185 1 -1.44415 -10.9672 -9.443 19
186 1 4.56388 8.51214 7.41783 14
187 1 -5.97462 1.05489 -7.67196 20
188 1 6.77723 -14.1664 -3.38162 8
189 1 11.6053 -1.63375 5.19697 16
190 1 -9.97227 -5.85468 -7.66764 10
191 1 -7.11635 -12.5416 -1.0992 14
192 1 -3.73283 9.92028 -0.248178 20
193 1 -5.55273 6.54755 -4.28448 22
194 1 -0.667399 -8.77096 -15.4762 10
195 1 4.90997 -11.2766 2.33116 16
196 1 -4.20953 -13.5328 -2.79361 14
197 1 -6.71895 4.9206 -10.1569 9
198 1 -0.0974327 -14.3705 0.939862 9
199 1 -4.75174 -2.34047 5.61404 21
200 1 -5.43075 1.13649 1.84898 21
201 1 0.982965 -5.70636 -7.89709 19
202 1 3.24464 -3.33571 5.18134 18
203 1 -10.7728 -0.00672364 5.93495 10
204 1 -0.776458 -8.12487 6.97262 13
205 1 -2.40776 -6.70935 9.8951 12
206 1 3.58537 -8.88427 -7.42021 20
207 1 6.07772 -12.4956 0.024302 13
208 1 0.780163 11.023 -5.41973 15
209 1 -7.11753 -9.67042 5.26038 10
210 1 11.0763 -4.49615 7.06025 13
211 1 9.12455 3.91584 -3.07541 22
212 1 2.52695 -4.98797 -10.5849 24
213 1 10.7733 -6.90562 4.73552 13
214 1 -6.37829 -1.84085 9.09342 12
215 1 2.76522 9.85222 -1.93261 19
216 1 7.80732 -6.3889 5.56262 18
217 1 -5.44318 -14.2473 -7.92265 11
218 1 2.29019 11.0443 6.4242 13
219 1 -4.63702 0.671374 4.56892 19
220 1 -1.55329 -10.5012 -6.72537 19
221 1 -8.05035 -10.6579 -4.58053 14
222 1 -6.01533 6.45292 7.10164 12
223 1 -7.52808 -11.0886 -7.57243 11
224 1 -4.21364 -4.42901 3.706 19
225 1 9.04224 3.92784 8.30218 11
226 1 12.4326 4.00598 -3.69449 15
227 1 2.46122 3.23121 -8.80367 21
228 1 -0.798168 3.41731 -8.55518 25
229 1 0.402602 6.65812 8.87575 14
230 1 -11.6852 -2.43452 -3.80434 13
231 1 5.70848 10.9213 -7.58926 10
232 1 -5.07704 -8.85273 -10.7177 19
233 1 -0.839172 -5.45757 -16.4118 10
234 1 12.1323 7.25263 -6.74052 11
235 1 2.21593 7.3987 -0.619025 18
236 1 3.78259 -1.83085 -11.4957 20
237 1 6.06425 -7.64095 2.5309 22
238 1 -2.35073 1.90846 -13.2449 12
239 1 11.3942 6.55634 -2.89774 16
240 1 7.51421 -5.61741 -2.83919 19
241 1 3.22941 -0.767751 -15.1651 11
242 1 2.81153 -7.3819 2.2379 20
243 1 5.14053 -10.2798 7.86232 16
244 1 -4.3553 0.216222 -10.4369 22
245 1 -0.206275 -0.7059 -13.8603 19
246 1 -12.3811 -3.4638 1.84169 10
247 1 11.299 -0.520261 -5.54084 19
248 1 -3.20301 7.55973 -5.98171 20
249 1 5.15137 -10.1057 -9.89533 20
250 1 2.96325 1.16717 -13.2449 14
251 1 11.5237 -6.08715 -7.17939 13
252 1 -7.55137 -7.57658 2.98114 17
253 1 -3.00403 9.10908 4.58329 18
254 1 4.44602 9.15528 -10.0841 17
255 1 13.7636 1.7277 -4.98271 16
256 1 0.232721 -13.1615 -5.01635 18
257 1 3.90883 -7.65764 -10.731 20
258 1 4.7217 6.76666 -3.04459 19
259 1 13.6597 -4.83372 -4.74493 13
260 1 5.43323 -9.43638 -4.59123 19
261 1 -9.45917 2.85014 6.95847 12
262 1 -4.35879 -7.67022 -7.57365 18
263 1 -0.742815 -5.2836 12.6731 9
264 1 10.3632 7.33508 -9.20303 14
265 1 -5.54242 9.23297 -6.2974 14
266 1 1.13152 12.431 -1.95524 14
267 1 -2.55104 -1.96331 8.55626 22
268 1 3.71632 -12.9788 -5.71186 13
269 1 5.89717 -4.77274 -11.6268 20
270 1 -11.8177 -5.24986 -1.06138 12
271 1 -7.06688 0.701085 -5.06458 25
272 1 -7.33467 -4.39772 3.11642 19
273 1 5.63771 9.76761 -2.927 19
274 1 4.16193 -12.409 -9.20564 13
275 1 7.42102 -6.12929 11.4139 11
276 1 8.1238 -1.07352 -5.5579 23
277 1 -8.68641 6.51548 2.33349 16
278 1 9.54397 -7.9493 -9.0321 16
279 1 1.8585 9.27859 8.94156 11
280 1 -3.14897 -3.41153 -15.3521 15
281 1 7.55166 3.61714 -11.4737 15
282 1 -3.21477 -7.10222 -15.8092 11
283 1 -2.79635 -12.9787 -5.79873 17
284 1 14.0192 -1.39946 -6.74 12
285 1 8.08731 -10.0669 -11.6042 11
286 1 6.13374 -11.6309 -6.98203 18
287 1 7.56507 10.813 -4.65204 13
288 1 -7.007 3.2949 -2.84772 22
289 1 10.1532 5.53479 -5.89413 22
290 1 3.29138 -2.54805 8.08813 18
291 1 6.86813 2.74502 10.4 13
292 1 -5.7978 -2.71281 -10.5767 18
293 1 11.1011 4.75361 -0.512659 18
294 1 11.8447 -4.13467 1.29544 17
295 1 -0.713512 9.72027 6.94643 16
296 1 3.00249 2.04758 5.37748 20
297 1 -6.10062 9.14897 -1.39418 18
298 1 -2.01599 -13.6034 -8.1762 15
299 1 -2.84511 6.1544 -9.02177 19
300 1 -3.14717 -1.21902 -12.6192 22
301 1 -9.83661 2.49624 -4.95282 14
302 1 13.2602 -7.25259 2.93041 7
303 1 3.6903 -6.18924 5.23602 18
304 1 12.8755 1.19336 -7.75665 13
305 1 12.5964 -1.20221 2.68101 16
306 1 7.56127 11.4312 -0.907703 11
307 1 11.9575 -4.10294 -2.36913 18
308 1 -4.76525 0.304942 7.66398 20
309 1 -10.04 -8.11167 0.36972 12
310 1 -9.1632 -3.36371 -10.1125 11
311 1 9.64836 0.202295 10.2626 10
312 1 -4.39197 11.6986 2.86727 13
313 1 9.27316 4.39236 2.68404 19
314 1 6.36377 3.82623 2.59931 23
315 1 -7.74136 -0.348474 6.28627 20
316 1 10.2103 -3.50756 -13.0768 11
317 1 0.310727 -8.83674 -7.42919 20
318 1 8.06718 5.35876 5.04546 18
319 1 4.17269 5.18714 5.76828 22
320 1 1.44834 -3.81059 10.3418 16
321 1 -1.35329 3.57681 8.72932 17
322 1 -7.40057 1.449 9.14481 11
323 1 -2.40651 4.28214 -5.89676 22
324 1 8.90896 8.53498 -6.77694 16
325 1 1.5884 -1.03586 4.95172 24
326 1 4.35684 11.8431 -4.86097 12
327 1 -4.85721 -11.2471 -4.25584 18
328 1 7.67576 5.1817 -0.518316 22
329 1 1.19848 5.03655 4.48399 20
330 1 -5.56063 3.90224 -0.576684 23
331 1 8.99572 4.76364 -8.64213 20
332 1 3.10808 0.601543 8.25243 25
333 1 6.53751 10.7908 2.26531 13
334 1 0.392673 -6.65622 -13.3962 20
335 1 -3.27811 6.15617 4.61869 21
336 1 10.444 -5.70161 -4.12031 19
337 1 7.69006 6.92326 1.6606 19
338 1 -12.3584 -0.0963885 2.63451 13
339 1 4.42957 -12.0926 -3.3154 19
340 1 9.80086 5.9255 -11.6481 11
341 1 7.70004 -6.5085 0.092536 21
342 1 0.824217 6.39963 1.8567 17
343 1 5.59042 -3.48019 -14.7876 13
344 1 6.69816 -6.55688 -9.76653 17
345 1 -3.488 8.31111 7.09096 16
346 1 6.54528 -3.39903 5.11723 19
347 1 2.38887 0.84203 -10.8246 21
348 1 -6.91195 -13.5901 -4.86444 13
349 1 -2.02781 -0.497494 5.55212 25
350 1 11.2565 -0.835439 0.00809791 22
351 1 -3.78957 9.12372 -8.75434 14
352 1 9.10083 1.31957 -9.89288 16
353 1 11.848 4.66913 -9.08707 13
354 1 0.497562 5.92286 -9.96006 19
355 1 -3.16396 -4.10307 10.9411 13
356 1 -4.37591 -7.12394 2.32519 20
357 1 1.64553 -10.2404 -9.52153 20
358 1 -7.93358 8.8743 -3.48596 11
359 1 8.76928 8.16736 -1.40683 17
360 1 -6.83088 -4.76333 -0.154697 17
361 1 4.20126 5.98602 -9.9467 20
362 1 -3.88442 -0.882206 10.9313 12
363 1 -11.5957 -1.56822 0.0277764 17
364 1 9.79033 2.0108 -6.03444 23
365 1 -5.40042 -7.93601 -4.5799 19
366 1 9.46981 -3.99561 -0.504079 19
367 1 6.99762 -9.5363 0.940409 20
368 1 -0.734954 7.92053 3.89928 19
369 1 -2.34351 2.88605 5.5348 18
370 1 9.43691 2.19538 -0.23319 21
371 1 11.0633 -10.3302 -6.47075 8
372 1 4.20146 6.56275 2.6987 19
373 1 1.81864 9.42944 2.9791 18
374 1 -0.33043 -12.1149 4.81652 11
375 1 -9.26935 -3.46001 -2.08586 21
376 1 3.81955 1.64056 11.6651 12
377 1 4.05117 11.1381 0.150429 13
378 1 7.32874 -4.62475 8.29964 20
379 1 13.0379 -4.31679 4.24535 13
380 1 6.41021 8.0057 4.999 16
381 1 -2.49284 5.96858 -3.38888 22
382 1 -0.468594 -10.0468 -12.6596 16
383 1 -3.22644 -0.567337 -15.2936 11
384 1 -3.64481 -4.87494 7.35955 17
385 1 10.9053 1.29815 2.34033 18
386 1 2.63599 11.0766 -8.4239 8
387 1 7.86282 -2.03838 -15.9012 9
388 1 -2.83324 -13.4703 0.220797 13
389 1 -5.89296 -2.3687 -5.66245 22
390 1 7.38883 -5.27307 -15.1172 11
391 1 1.62399 -10.3086 -5.03499 21
392 1 4.35766 -7.58754 9.87442 14
393 1 0.677232 -11.093 1.74119 18
394 1 9.16345 -2.07048 -10.4177 15
395 1 -6.56466 8.0579 4.68396 17
396 1 12.2208 -8.23991 -3.81565 12
397 1 -12.1894 0.976481 -2.22233 11
398 1 11.4828 7.35961 0.954446 10
399 1 6.90206 1.43334 7.75313 21
400 1 -10.5118 -2.66095 -7.33203 12
401 1 -0.877342 0.605755 -10.7134 22
402 1 10.893 -11.3145 -3.99251 9
403 1 -7.03668 -8.00219 -8.37825 14
404 1 -5.66532 -10.1906 2.1583 20
405 1 9.40367 -1.96483 2.18987 23
406 1 -11.7566 3.36976 1.63291 12
407 1 6.41556 6.59708 -11.6116 15
408 1 7.10387 -9.36116 10.0176 12
409 1 -8.14843 -3.18263 6.20572 14
410 1 -2.57095 -7.32516 -12.2985 23
411 1 -6.21254 -14.473 1.90681 7
412 1 6.36894 -1.6601 7.93319 21
413 1 -1.3046 -14.9724 -2.6634 13
414 1 7.22005 -1.78444 -11.6903 19
415 1 -7.86058 6.08092 -1.20418 22
416 1 -5.5633 3.14881 7.76727 17
417 1 -3.94378 -15.5021 -5.5791 11
418 1 7.71304 6.7767 -3.99316 20
419 1 11.2117 1.2903 -3.12913 21
420 1 -0.692166 -7.80194 2.5147 20
421 1 2.87006 6.70584 -7.70647 19
422 1 8.71679 0.0292421 -13.1066 12
423 1 -9.30326 5.6061 -3.9657 12
424 1 4.47106 4.36332 -7.00142 17
425 1 5.45325 11.0311 5.76128 9
426 1 6.24337 7.35806 -7.08636 19
427 1 -3.86523 2.13462 10.1787 14
428 1 6.95073 -0.602704 -8.05455 21
429 1 6.25158 -11.9615 5.09709 13
430 1 -1.56912 -3.28029 5.1269 23
431 1 10.5646 0.811722 7.01591 16
432 1 8.28131 -5.90292 -6.59022 20
433 1 0.894223 3.54931 -11.3241 18
434 1 -0.543318 3.803 2.46094 23
435 1 -2.14595 4.07601 -0.730457 22
436 1 -2.38342 -10.3009 2.03109 20
437 1 11.2541 -6.75839 -0.532774 16
438 1 1.91841 -3.66603 -13.386 18
439 1 -5.38106 -4.57665 -2.58086 18
440 1 -5.30256 3.79941 -5.77474 21
441 1 10.229 -1.93891 8.44949 14
442 1 -8.87391 -10.6815 2.69886 11
443 1 13.7464 -1.77719 -0.559222 13
444 1 3.83277 7.51433 -13.2614 10
445 2 -9.19102 -1.23145 -7.91246 12
446 2 -5.02066 12.3932 -0.634637 12
447 2 3.78202 -2.79543 -14.9172 14
448 2 -3.13951 3.64243 9.59505 14
449 2 -5.409 -6.10766 -8.28886 16
450 2 3.0808 -1.18761 9.35541 21
451 2 -11.2745 0.779819 -0.677318 16
452 2 12.1091 5.55347 0.856306 11
453 2 -0.652008 -4.77643 -8.28781 19
454 2 -5.34861 -9.38418 -7.90406 16
455 2 -5.0957 -0.0264501 -1.16572 20
456 2 -2.52552 -4.77954 4.44915 21
457 2 4.98531 2.78128 10.6651 15
458 2 9.00456 -4.47426 -14.4835 9
459 2 7.59574 -0.939867 1.46703 20
460 2 -0.0996282 12.8358 -0.517051 11
461 2 12.0082 0.0709935 5.5599 17
462 2 -8.46861 -5.86573 2.42323 16
463 2 -1.44004 -13.5966 1.78163 11
464 2 11.714 -5.2403 5.44814 13
465 2 -7.92444 9.15392 -1.60587 11
466 2 -6.9711 9.41909 -5.0901 10
467 2 -1.17463 7.02111 2.32714 17
468 2 7.96682 -4.08624 -6.58481 21
469 2 -4.2016 -6.93989 -11.5355 19
470 2 2.41863 -8.92812 -10.6222 20
471 2 9.9825 -5.12372 -11.6095 11
472 2 13.0631 1.57135 -3.09287 15
473 2 -5.56025 7.51578 3.20383 17
474 2 -2.9785 -11.8566 -7.39139 17
475 2 5.96168 -11.3938 6.99427 14
476 2 10.7745 -0.485694 1.99541 23
477 2 -6.50971 1.30114 -3.25415 23
478 2 7.5394 7.24262 -0.228405 18
479 2 6.99432 -12.0696 1.78398 12
480 2 -2.28722 4.79015 1.28816 23
481 2 5.67529 7.22747 1.52668 18
482 2 -1.23857 8.29048 -6.53219 20
483 2 -7.95782 2.82044 7.89067 12
484 2 2.50486 1.23744 -8.98208 21
485 2 -5.26207 -1.26332 -9.44884 17
486 2 -11.9004 1.65717 2.12742 12
487 2 -9.88344 -9.33023 -0.9264 10
488 2 3.39271 -8.07816 4.1505 21
489 2 0.630536 -5.50851 9.77815 15
490 2 1.03535 5.57328 6.60525 22
491 2 -7.45148 4.19958 -1.30074 22
492 2 5.5313 -9.82756 -7.01773 18
493 2 12.7584 -0.570511 -7.968 13
494 2 -1.8509 -10.3412 -1.42531 20
495 2 6.21406 -4.63124 -9.34373 20
496 2 3.53005 6.80392 6.84248 20
497 2 9.96429 -11.7361 -5.87916 10
498 2 4.57066 -1.37661 7.08574 19
499 2 -6.06012 -10.6142 0.0131589 18
500 2 11.8064 -4.71047 -0.536302 15
501 2 1.62011 -10.5552 -0.260861 19
502 2 12.2259 -4.40124 -6.22998 13
503 2 -4.56098 -9.55019 -12.4963 10
504 2 -9.10846 -12.5364 2.1322 9
505 2 0.06969 -7.91472 -0.633357 22
506 2 -5.24624 -5.79741 -4.18973 21
507 2 -4.4306 10.2758 -2.04931 16
508 2 4.53412 -1.82763 -8.35418 22
509 2 12.7106 3.11422 -8.44969 11
510 2 4.07309 4.1569 -9.67134 22
511 2 -4.36062 2.18771 6.66471 19
512 2 -11.9601 4.5738 3.1468 9
513 2 -3.0037 -3.10128 6.88631 21
514 2 -9.11826 1.9039 2.48811 20
515 2 -4.85362 -0.201557 -6.6742 21
516 2 9.95515 -0.331064 -9.85812 15
517 2 11.3476 -7.9938 -1.97076 13
518 2 9.38617 3.97643 -1.16684 22
519 2 0.485028 10.7105 2.30592 14
520 2 -4.37582 4.89552 3.67566 17
521 2 12.808 4.4505 -1.66183 15
522 2 3.21892 7.80011 -3.43192 17
523 2 2.85073 11.5026 -6.1958 11
524 2 -0.743971 2.44913 7.03297 20
525 2 -0.556273 -2.84093 9.47392 19
526 2 5.10089 -7.20964 -7.70277 21
527 2 -2.76954 0.570961 11.3128 12
528 2 6.46891 -0.0992682 -12.6448 15
529 2 -5.43648 -9.57226 6.10082 11
530 2 -0.0825539 -12.3284 -3.40071 17
531 2 -0.0742396 -7.72559 -8.8234 18
532 2 6.21735 -12.8242 -1.94073 12
533 2 14.4059 0.548466 -6.38017 12
534 2 -3.372 3.54926 -12.4326 12
535 2 0.627215 10.5832 5.7237 15
536 2 -7.34792 -4.06053 -2.78531 17
537 2 5.91354 2.76024 -10.8904 18
538 2 2.08017 11.3318 -0.943361 14
539 2 1.64928 4.57143 9.00796 16
540 2 1.9363 -12.3236 -5.74658 18
541 2 5.5041 2.47084 7.05756 20
542 2 11.9354 -10.0071 -4.77741 8
543 2 7.93381 4.96626 1.61059 19
544 2 0.0198966 5.48152 -11.7351 15
545 2 8.09917 -7.69796 10.1858 12
546 2 -0.942147 -7.78383 4.60949 16
547 2 8.55641 -9.6715 2.64003 17
548 2 -4.27572 10.1751 -5.32344 14
549 2 -5.7461 -14.4376 -5.94931 11
550 2 0.183066 -2.48443 -13.424 18
551 2 -1.52824 -9.94665 -14.2976 12
552 2 5.52468 10.7592 3.90936 9
553 2 -8.68928 -6.57826 -4.16259 16
554 2 -10.7826 4.05561 -0.199312 16
555 2 10.6699 -2.56147 6.54057 16
556 2 -3.24002 -14.7365 -3.97576 15
557 2 2.3385 -3.03626 -11.2754 20
558 2 -2.92608 -3.07574 -13.2452 21
559 2 -5.90223 -5.72159 -12.8037 15
560 2 -2.45613 -4.8436 8.98035 14
561 2 -3.04297 -6.96788 -8.9427 18
562 2 2.90679 -4.93942 -8.60816 19
563 2 5.37498 -2.71757 -11.4519 18
564 2 -8.61278 -8.7749 1.88569 14
565 2 1.99045 -5.48345 -13.6921 17
566 2 0.199204 -10.6041 -7.99013 24
567 2 4.45554 5.82028 -11.921 14
568 2 3.39772 11.7653 5.1431 10
569 2 12.1459 2.9513 5.3642 9
570 2 -9.95766 -1.06717 0.949554 20
571 2 -3.95627 -9.56279 3.18882 20
572 2 -1.00219 -3.2197 -11.0703 22
573 2 5.05948 6.72645 4.4756 15
574 2 -3.85901 -8.31008 -0.829825 22
575 2 -3.80977 3.0317 -1.05151 27
576 2 -9.54568 -1.40006 6.18097 11
577 2 -1.99405 -11.5978 4.35036 14
578 2 -12.7815 -1.69816 1.66496 9
579 2 -6.58878 -8.36705 -1.5451 19
580 2 -5.92761 -8.04072 1.79139 18
581 2 10.1975 -5.57753 8.08634 14
582 2 4.58241 6.23336 -7.05327 16
583 2 7.36038 9.31722 -7.81186 15
584 2 11.3267 1.09421 -6.56946 20
585 2 -1.56351 10.7176 -0.0947331 20
586 2 -8.28135 -6.72119 -7.70004 14
587 2 -11.3705 -0.859694 -2.86666 12
588 2 -3.38102 -14.5968 -7.15397 11
589 2 7.23634 -6.47985 7.6532 19
590 2 11.2983 -7.681 3.1157 12
591 2 -4.90806 7.92536 -7.58715 15
592 2 9.2689 1.83336 -3.58376 23
593 2 7.09966 -4.47057 10.2828 15
594 2 1.09028 -6.09409 -10.4484 20
595 2 4.53064 4.63285 1.93245 20
596 2 7.25022 3.60057 4.35073 20
597 2 -2.77888 -2.45858 11.7007 12
598 2 -6.40795 2.45783 0.698499 21
599 2 7.74854 6.22797 -8.4761 23
600 2 -6.64741 -7.55108 -10.3294 15
601 2 -7.49907 -2.84758 -9.58204 14
602 2 -5.45677 -0.223824 6.03194 21
603 2 9.11108 9.81125 -5.29701 12
604 2 10.6585 4.68899 -4.09331 19
605 2 12.483 -6.44133 -4.25818 13
606 2 -8.67163 1.43948 -0.857903 18
607 2 -4.58211 8.25886 0.129735 18
608 2 -3.00809 8.62515 -10.3454 9
609 2 3.6071 -0.0950789 -12.1301 19
610 2 -5.44512 3.73877 -3.97882 23
611 2 -8.66682 -4.25843 -0.165548 19
612 2 9.11751 -6.84439 -3.06663 20
613 2 5.54949 -9.55084 2.60362 21
614 2 -4.78129 5.28155 0.48716 19
615 2 1.01189 -6.8741 2.20104 19
616 2 -8.36931 3.93664 -4.5177 19
617 2 2.96702 -8.088 0.348701 18
618 2 4.75586 5.14259 8.69653 14
619 2 1.45882 0.141156 -14.2874 15
620 2 3.69041 8.96027 -11.8521 12
621 2 8.45171 1.7267 -11.7492 14
622 2 1.35965 9.38887 -4.79036 18
623 2 -6.53663 -2.69467 6.95205 14
624 2 -1.00833 -7.64729 8.88107 12
625 2 -2.32716 -6.99431 1.95109 21
626 2 -10.7564 -4.6579 -2.60925 14
627 2 -5.69184 -3.33502 3.88651 18
628 2 0.787465 3.9656 -9.38772 23
629 2 9.9418 -1.79555 -5.83245 20
630 2 4.98728 -4.7179 4.79601 19
631 2 5.72987 -5.40827 -14.2062 14
632 2 7.57661 4.62331 -4.24862 21
633 2 5.93592 9.32164 6.18411 9
634 2 4.12789 -5.83553 -11.1458 22
635 2 -5.02682 -5.46563 -0.755289 18
636 2 -2.34618 12.918 -2.27327 13
637 2 -1.26307 5.58639 8.61784 16
638 2 2.09995 -13.398 -2.05794 15
639 2 -4.4262 -13.8004 2.24125 8
640 2 6.08633 0.150077 8.8611 21
641 2 7.85868 5.41615 -12.0115 14
642 2 4.50978 9.4737 -1.11264 17
643 2 4.64748 -11.4009 4.46499 14
644 2 4.61905 -13.0514 -7.44731 14
645 2 2.57842 2.58768 -11.9088 17
646 2 2.19779 1.42206 10.4116 18
647 2 2.82662 2.44155 7.80719 22
648 2 7.75526 -6.75853 2.07528 21
649 2 -1.61288 -1.02821 -16.2359 11
650 2 10.5443 -6.20633 -8.68622 13
651 2 -6.24086 12.2403 2.34391 9
652 2 5.78437 -11.9521 -10.117 11
653 2 -0.405324 2.20534 9.74722 16
654 2 -6.92622 2.31133 -6.16294 19
655 2 9.85047 -10.6111 -2.56208 11
656 2 2.96986 11.8299 1.9338 11
657 2 10.8709 7.16053 -0.919342 15
658 2 11.1415 1.00001 -0.907961 21
659 2 -7.25919 -1.13417 -5.54838 20
660 2 -3.81404 3.09391 -6.85834 22
661 2 -4.89545 1.84543 -9.40757 20
662 2 12.478 5.78614 -7.70647 11
663 2 -7.55209 6.84925 -3.8279 17
664 2 -0.433763 -3.44841 6.73272 20
665 2 0.21786 -3.74906 11.9471 11
666 2 1.95514 -12.5429 -9.09721 14
667 2 -1.39413 -3.81548 -16.7861 10
668 2 3.91345 10.476 -3.79884 17
669 2 7.02702 11.4034 -2.74307 12
670 2 -6.66962 -4.19705 -5.65859 15
671 2 -5.69395 -12.4631 -2.77313 17
672 2 8.94079 0.918677 3.57256 21
673 2 -7.20348 10.2758 1.0125 15
674 2 4.22316 -11.9475 0.451701 16
675 2 10.5346 -2.35595 -1.01306 19
676 2 -4.65117 -6.28736 4.01472 17
677 2 -3.95354 -7.94104 -5.7058 17
678 2 0.156787 8.26208 7.80706 17
679 2 1.1532 8.76979 -1.70898 19
680 2 -9.70684 6.87161 3.85601 11
681 2 1.19198 -8.55244 6.55678 16
682 2 -1.52131 9.75241 3.56675 18
683 2 0.174737 -14.9752 -3.67701 11
684 2 2.00626 -4.98723 4.68535 20
685 2 8.24405 1.38787 10.2917 11
686 2 -7.34851 5.16483 1.9909 18
687 2 -5.92533 7.23516 -2.06469 19
688 2 -0.312372 -0.57617 11.1597 15
689 2 -3.02617 -9.97359 -9.32969 16
690 2 11.4603 -0.538666 -3.52571 23
691 2 7.95875 -12.4476 -7.92629 11
692 2 -3.72266 7.28117 -4.11272 21
693 2 -7.34854 -0.220071 8.31807 14
694 2 -9.85204 1.02419 -6.26556 13
695 2 10.0011 -9.51126 -8.0105 11
696 2 6.33054 8.15614 -3.28505 20
697 2 -1.62216 -0.750439 7.2914 18
698 2 0.826429 0.0482718 8.15579 23
699 2 1.90281 7.76376 -13.6311 7
700 2 -10.705 -2.22585 -5.40279 13
701 2 -3.96984 -3.81303 -10.6108 21
702 2 1.23687 6.01916 -6.79146 21
703 2 -2.57424 -0.691886 -10.7326 21
704 2 5.79939 -8.839 -10.9232 18
705 2 1.25151 -9.83544 -2.98845 20
706 2 5.70825 -8.56233 8.86053 16
707 2 6.23121 -1.36663 4.49313 25
708 2 10.1164 -5.84871 -5.99168 17
709 2 1.09672 -13.0366 1.11534 11
710 2 8.03478 9.83088 2.675 13
711 2 1.19335 8.34496 4.49866 19
712 2 -10.6957 -6.32638 0.203705 12
713 2 10.4309 7.57664 -7.33293 17
714 2 6.62615 -8.12852 5.23743 21
715 2 -7.90416 9.60656 4.26062 11
716 2 7.59154 0.572258 -6.59504 21
717 2 3.19633 3.89497 4.82932 21
718 2 -7.66866 -0.35844 3.91657 23
719 2 4.2064 10.3239 -8.34925 14
720 2 7.56865 -0.601067 -14.9049 9
721 2 -2.41043 1.21971 4.74831 22
722 2 -4.40758 -1.32284 9.16754 15
723 2 12.9501 -2.47243 3.80767 13
724 2 8.97692 -1.95153 -12.593 14
725 2 -7.23133 -8.93044 -4.73954 19
726 2 4.47865 -9.6535 -2.30497 20
727 2 10.5351 -3.0506 -9.54322 14
728 2 0.713825 6.48345 -0.0975301 19
729 2 1.08143 -8.72266 -13.3996 14
730 2 -9.42134 1.46994 5.73681 15
731 2 -6.52896 -2.79492 -0.233997 20
732 2 5.18762 -11.4761 -5.04512 18
733 2 -0.979602 -13.0165 -9.79513 12
734 2 -0.633059 -13.5478 -6.66929 17
735 2 13.0463 -2.18669 -5.14169 16
736 2 0.196937 8.41682 -11.6197 12
737 2 6.05786 11.5956 0.464205 12
738 2 -6.06706 -12.4511 -7.87921 11
739 2 4.6273 1.437 4.34985 20
740 2 -2.45049 5.02152 6.1552 21
741 2 -2.34908 5.84916 -6.91979 22
742 2 -2.17765 4.37029 -9.80103 21
743 2 0.372969 -11.1096 -11.2254 14
744 2 -7.00232 -13.7813 0.352549 8
745 2 -8.69156 7.05682 0.547707 16
746 2 9.07786 8.24405 -10.2932 12
747 2 -0.951271 7.09572 -9.32792 20
748 2 2.07642 6.97397 -9.5739 21
749 2 -3.35451 -7.73168 -14.1218 17
750 2 1.8666 -8.85282 -6.41844 20
751 2 -10.1673 -4.05043 -8.5471 10
752 2 7.9655 7.01082 4.09273 15
753 2 -2.3317 0.171236 -13.8492 17
754 2 -11.2135 -4.61082 2.71866 13
755 2 7.83418 -2.96148 7.33662 20
756 2 7.28036 4.20055 9.24958 11
757 2 8.29687 3.10329 -9.5232 19
758 2 1.04301 9.97244 -8.21807 16
759 2 -1.30122 11.5064 -5.60432 12
760 2 12.8907 -2.22845 1.09253 15
761 2 -2.30772 -2.06456 -8.3754 19
762 2 5.48402 7.55993 -10.0526 17
763 2 4.32556 -0.373323 11.8239 11
764 2 -1.26616 -8.59132 -11.4549 22
765 2 5.98901 -1.99576 10.8012 13
766 2 1.14384 4.62036 2.48896 17
767 2 7.78085 -10.6906 -0.643678 15
768 2 8.39019 -8.56341 -12.545 9
769 2 -4.60693 8.28257 5.47404 17
770 2 7.98481 -10.2029 8.58357 10
771 2 -1.92365 8.98985 -2.13204 17
772 2 7.97451 5.41148 7.18276 13
773 2 -7.34672 4.71187 -8.25465 14
774 2 -0.0307625 11.5929 -3.49391 17
775 2 -8.44454 -9.56875 -7.28906 9
776 2 -0.942863 -5.57016 -12.3334 21
777 2 -6.15477 4.68319 6.34942 16
778 2 13.1698 -2.77374 -2.01027 15
779 2 -2.53799 10.5197 -7.95777 11
780 2 -8.07906 -2.73037 2.38385 18
781 2 -7.85222 -12.1543 -5.6356 11
782 2 -1.93981 7.54993 5.31771 19
783 2 -0.578816 -6.95853 -15.2628 13
784 2 -6.94469 3.25291 -11.081 10
785 2 0.929658 -0.287184 -11.2352 19
786 2 -4.54941 -1.85772 -15.0651 11
787 2 -7.86905 7.01562 6.10185 12
788 2 -4.2532 7.02236 7.95112 12
789 2 5.95723 11.062 -5.67025 13
790 2 -2.49403 -13.7133 -1.49044 14
791 2 6.02314 0.578492 -9.1391 20
792 2 6.83894 -6.47695 -11.5988 16
793 2 -9.14817 -12.9509 -1.08235 8
794 2 -5.41367 5.74401 -6.05098 21
795 2 -7.06815 -7.79497 4.92706 15
796 2 -0.776041 2.30542 -11.8761 17
797 2 1.27437 -12.3354 6.13603 9
798 2 9.59064 2.61034 7.0533 17
799 2 8.02727 -4.55937 4.61205 23
800 2 -3.50688 -1.22093 4.39233 21
801 2 10.4005 5.34502 -9.97175 12
802 2 2.02199 7.51939 9.50972 12
803 2 -0.871452 -9.06782 -5.91393 17
804 2 -7.99378 -11.0181 -2.61871 16
805 2 -7.20196 -10.5094 3.50015 12
806 2 -5.24875 -0.667406 1.95976 20
807 2 -4.78209 5.39591 -9.27547 17
808 2 -10.7927 -5.78493 -6.01218 10
809 2 -3.86084 11.2004 4.70868 11
810 2 9.28061 -7.59784 5.35485 16
811 2 10.2458 8.25155 2.05677 11
812 2 -3.11475 -11.6466 0.816303 17
813 2 -9.0599 -3.81205 4.70311 13
814 2 -10.7118 1.8244 -3.45443 12
815 2 -0.249911 -1.91967 4.38252 25
816 2 3.34683 -3.65078 9.80931 14
817 2 1.29936 -10.7959 3.63383 16
818 2 9.52934 2.68394 1.73746 20
819 2 7.24743 -7.34568 -5.51659 20
820 2 -2.35365 6.26688 -1.49374 20
821 2 -6.60295 -2.24093 -12.5424 15
822 2 -3.54316 -3.55161 1.99825 22
823 2 3.91245 -7.06558 7.2001 16
824 2 2.54057 -8.03694 9.44192 12
825 2 5.3878 -6.28996 11.0286 11
826 2 6.26621 3.43125 -6.98287 21
827 2 10.0064 4.59167 4.4688 12
828 2 6.98745 -3.83945 -16.1986 7
829 2 9.22135 -2.17512 4.16122 20
830 2 13.1883 3.58684 -5.44229 15
831 2 7.97943 -7.03097 -8.25156 18
832 2 3.26301 9.83465 7.67846 12
833 2 12.8035 1.35789 3.26666 13
834 2 -2.46423 -9.04607 6.25566 13
835 2 1.88319 -2.80132 6.69883 19
836 2 -4.40371 -6.62112 6.95655 14
837 2 4.25645 -13.9008 -4.10746 10
838 2 9.5063 -4.10207 1.36644 21
839 2 12.9494 -5.43593 2.6773 11
840 2 3.17239 -10.7149 7.96407 12
841 2 7.73912 -4.77586 -0.683325 19
842 2 -9.87225 4.52996 5.78931 11
843 2 -0.356058 3.6941 4.40349 21
844 2 9.19668 3.84646 -6.33956 16
845 2 4.12111 -7.84437 -12.8784 15
846 2 8.56024 -10.9802 -10.0781 11
847 2 4.2873 0.921756 -14.7969 10
848 2 -5.05932 0.63831 -12.7088 15
849 2 8.94498 10.0564 -0.766676 12
850 2 -8.82747 -1.4263 -2.57818 22
851 2 13.8679 2.93258 0.355875 11
852 2 -5.40897 -1.50054 -3.27428 22
853 2 6.04625 -7.9655 0.148317 20
854 2 -0.592959 7.07107 -3.54453 20
855 2 13.6248 0.1335 0.0999122 14
856 2 8.04515 6.90914 -6.10146 19
857 2 8.15195 -11.148 5.08867 13
858 2 -11.7782 -3.49163 -0.146889 14
859 2 10.3599 0.0307461 8.65576 10
860 2 9.64581 -7.47656 0.0670269 16
861 2 4.53474 -6.38431 2.18922 22
862 2 9.3975 7.55248 -3.49922 18
863 2 -5.83918 2.23376 3.67797 18
864 2 -10.1551 5.86717 -2.19929 10
865 2 10.5321 -3.92392 -3.46563 19
866 2 7.02176 -9.33176 -3.19369 19
867 2 -3.02202 -11.9035 -4.18526 18
868 2 3.90198 6.71089 -1.05549 21