ITEM: TIMESTEP
3000
ITEM: NUMBER OF ATOMS
1000
ITEM: BOX BOUNDS pp pp pp
-30.0 30.0
-30.0 30.0
-30.0 30.0
ITEM: ATOMS id type x y z Coordination
1 1 -3.50709 -9.56549 -9.8118 13
2 1 5.18558 -8.07546 7.46511 16
3 1 -10.1025 5.79307 -1.99003 20
4 1 -13.4673 3.28142 -7.46949 9
5 1 -2.40062 -7.75851 10.6156 13
6 1 -8.25816 1.2331 -11.5869 14
7 1 -4.24358 -13.5471 2.25072 16
8 1 7.0522 -3.98906 4.77024 19
9 1 1.19024 0.0126312 10.5462 19
10 1 9.33353 -4.88457 2.7236 16
11 1 -4.06766 11.8182 -6.66996 13
12 1 0.0468692 -1.10179 14.5979 10
13 1 -6.85685 1.46389 -1.24103 22
14 1 -1.88126 -1.33729 -9.37186 18
15 1 2.88221 -1.73074 8.59607 18
16 1 4.61145 -4.00765 -4.51937 21
17 1 -1.37314 2.16236 14.5776 11
18 1 -0.817468 -11.852 7.52212 14
19 1 -13.6205 -1.9347 2.83832 9
20 1 -10.2243 2.1973 -1.9028 20
21 1 -4.05857 13.5311 -4.10949 9
22 1 0.838814 0.155203 -10.9092 19
23 1 7.02493 -5.67644 -9.94793 11
24 1 -1.17761 -1.60628 11.8236 17
25 1 -12.7781 7.47088 -3.15105 10
26 1 -0.618732 10.1544 -2.09859 22
27 1 -1.23635 -15.2898 2.53982 9
28 1 6.33682 -10.8197 -8.18813 10
29 1 4.71096 1.2233 5.44582 21
30 1 -9.98235 7.19548 -4.63342 20
31 1 -0.350951 5.49417 -9.11164 15
32 1 3.2067 6.13993 6.79407 18
33 1 2.51131 5.54347 9.47513 16
34 1 -9.61131 1.0895 0.51705 17
35 1 4.51348 -3.45517 10.5023 16
36 1 -9.14098 -1.22222 -1.26503 16
37 1 11.2822 3.4711 6.37048 10
38 1 7.38261 -3.63874 -2.97991 18
39 1 2.2763 1.16205 7.37082 19
40 1 -6.74315 -3.9954 1.71206 15
41 1 -3.35018 -4.72091 -9.18535 20
42 1 -9.29795 9.67178 -0.389201 15
43 1 -6.12719 7.85816 -10.6816 12
44 1 7.77716 -2.00235 -9.10483 18
45 1 7.95125 -9.00002 -0.490804 19
46 1 4.28402 -9.89758 9.0564 10
47 1 -5.20235 7.81607 5.36424 24
48 1 -7.42836 -8.08606 8.88545 13
49 1 -11.6298 3.34273 5.09785 15
50 1 8.43635 -9.67358 -6.04118 11
51 1 6.58335 -1.13547 -12.6452 12
52 1 -1.68259 12.8408 0.406594 12
53 1 -10.0477 6.94547 -9.53005 10
54 1 2.97154 10.3901 3.20375 23
55 1 -5.19636 -9.78431 9.99278 11
56 1 -0.788206 -3.71071 -8.02468 15
57 1 4.84631 -8.35032 -9.86512 10
58 1 -0.799731 4.39838 7.3246 17
59 1 -10.6154 -7.02236 -0.572204 14
60 1 5.99785 -6.73533 1.0291 19
61 1 -8.58219 -8.11747 -2.81462 15
62 1 9.57683 -12.282 0.332615 12
63 1 -4.68265 6.14835 2.70811 20
64 1 3.56816 5.45569 -6.57863 17
65 1 8.62577 -11.373 -2.6539 16
66 1 -9.31368 -9.22348 1.03087 11
67 1 11.0725 6.93803 5.6149 11
68 1 6.88167 6.47465 -0.808772 20
69 1 -7.58818 12.4003 -5.86572 9
70 1 -1.33844 -7.49214 -9.80058 16
71 1 -1.80847 7.32861 -3.97004 22
72 1 9.41714 -1.22732 -3.10091 14
73 1 5.26204 2.31182 -12.6835 12
74 1 8.09746 -10.2276 3.31833 12
75 1 -5.82967 4.68943 -8.14683 16
76 1 4.55147 11.5694 -3.41821 14
77 1 9.60757 10.1064 -4.07035 7
78 1 -3.80217 8.32019 -3.00841 19
79 1 -5.11614 -2.78913 -13.4737 13
80 1 -14.4975 0.832516 -5.18549 6
81 1 -4.08466 10.1055 7.977 14
82 1 -2.5294 10.6961 -4.89873 19
83 1 2.49779 -4.88177 11.506 14
84 1 -11.6431 -3.60638 3.95709 15
85 1 -4.48748 -10.2917 1.30166 19
86 1 1.50603 6.4538 -2.40151 21
87 1 9.5377 6.68327 -2.55328 17
88 1 0.181099 -9.31487 9.40737 14
89 1 -11.6419 3.51932 0.366194 18
90 1 -0.316858 6.41104 10.8497 15
91 1 -5.40938 2.05949 -9.88216 18
92 1 -6.73226 -6.19956 4.02635 15
93 1 -9.56996 -9.16027 4.78377 10
94 1 -6.74345 -0.418348 -6.20354 19
95 1 6.04352 -6.54941 -2.20128 19
96 1 -3.19959 9.43455 2.7423 18
97 1 -6.40893 1.41675 2.28945 18
98 1 -8.57808 1.70261 -4.7646 22
99 1 -0.379179 -12.0247 4.53803 17
100 1 6.76122 0.953576 -7.38126 17
101 1 4.27469 -0.215286 11.5438 19
102 1 -2.93971 6.88169 -9.66323 18
103 1 -6.46281 -4.55586 -10.5536 17
104 1 -5.71424 9.86078 -4.70405 19
105 1 5.36679 3.82055 7.20607 19
106 1 -6.84255 10.9125 -8.55428 10
107 1 2.67125 5.55044 -9.99153 17
108 1 -6.94913 4.01188 8.3607 16
109 1 -6.20621 7.28025 8.48733 13
110 1 1.16309 -11.2821 -7.21629 10
111 1 2.54047 -7.21853 -1.71573 22
112 1 4.32422 7.66239 -10.0316 13
113 1 -1.91264 7.4403 -0.847635 20
114 1 -9.49923 1.08517 3.53342 14
115 1 1.72975 4.49945 13.1065 10
116 1 15.389 0.666822 -2.20099 7
117 1 1.67564 9.18155 5.93847 23
118 1 -11.3108 6.77653 5.24354 10
119 1 -11.2788 -6.55328 -4.01099 10
120 1 5.92315 -1.81547 6.68915 20
121 1 2.1802 -10.7869 -2.46251 19
122 1 -2.546 -0.61064 -14.2274 14
123 1 11.1255 -1.56836 -8.88219 11
124 1 -13.0625 -5.23976 8.22953 5
125 1 -8.53162 -6.7181 -9.18693 10
126 1 -4.69544 -7.03974 2.15481 19
127 1 -2.05936 -8.82382 2.82179 18
128 1 -8.07063 -1.87543 -12.1995 10
129 1 -11.917 1.321 -8.24689 9
130 1 8.67562 0.727662 9.98264 15
131 1 2.83373 -5.47174 8.99931 18
132 1 0.0625077 -8.57951 6.15788 15
133 1 4.38293 8.39517 1.47688 22
134 1 -8.81615 -6.55754 2.49876 17
135 1 1.91664 13.3142 1.35451 11
136 1 -3.25772 -5.27631 -11.9785 15
137 1 -5.87292 -8.13482 -4.29622 22
138 1 -6.8818 -11.467 0.957293 17
139 1 11.1221 5.22847 2.67216 14
140 1 -3.96367 -7.90799 -7.20578 19
141 1 -5.91542 -4.52823 9.41157 17
142 1 -3.45776 -11.8349 -0.555133 19
143 1 -1.44236 -11.8758 1.22519 19
144 1 1.10382 -13.6025 0.859485 13
145 1 -11.2691 4.47298 -9.70636 10
146 1 11.0759 6.20179 8.34735 10
147 1 -6.88364 3.59629 -13.5998 12
148 1 -4.08088 9.34344 -8.13202 15
149 1 -4.52749 -4.27276 6.28594 18
150 1 2.10842 12.2331 5.2831 13
151 1 7.94572 2.38601 5.14427 16
152 1 -11.2199 -0.170417 8.56852 12
153 1 -5.70162 -6.74873 11.1694 12
154 1 -6.31709 9.19032 3.15643 20
155 1 2.79018 -4.9245 -12.1901 13
156 1 2.68682 -7.78108 1.07648 19
157 1 9.6613 -4.60212 -8.19022 14
158 1 -3.59101 -5.10106 3.29051 21
159 1 -0.0858886 1.50177 8.87004 17
160 1 -10.5847 -1.37129 6.16632 15
161 1 6.72782 -11.7776 -4.64437 12
162 1 -1.34219 10.1201 0.576291 21
163 1 -7.77954 6.06995 3.47926 19
164 1 5.54785 -10.7729 5.69454 13
165 1 -2.9744 6.23422 7.75569 19
166 1 -8.085 -3.3832 -7.34034 21
167 1 -4.6826 12.1683 2.33245 10
168 1 -6.12999 2.12598 -4.73774 19
169 1 -13.4482 1.75019 2.61741 12
170 1 -4.80061 -2.21043 -7.33014 19
171 1 -5.90016 10.4549 0.138719 19
172 1 7.30733 1.0941 7.32824 20
173 1 6.2275 -7.56756 4.63256 20
174 1 -2.38956 -3.35293 8.70594 22
175 1 3.52932 -11.4964 -4.95141 13
176 1 -4.3674 -2.27502 -10.6727 15
177 1 -11.3786 0.151647 -4.42533 16
178 1 -3.05059 -7.90945 -0.750176 21
179 1 13.0907 2.21754 -4.42042 11
180 1 -9.40384 4.69834 -12.7703 9
181 1 -8.32589 6.9363 6.34981 15
182 1 -11.8429 8.71568 2.37626 9
183 1 -5.99194 4.8554 5.75266 20
184 1 11.6831 -1.58162 -5.09925 15
185 1 15.044 -0.742258 -4.74761 9
186 1 -5.60295 4.53962 0.352026 18
187 1 1.74718 -8.12458 -4.71814 15
188 1 -0.175371 8.75202 3.16492 20
189 1 -13.0109 1.49576 -1.03272 17
190 1 7.50971 -13.9451 -1.67977 9
191 1 9.85388 1.12837 7.35268 16
192 1 -10.4246 -2.95933 -5.75778 11
193 1 -7.0359 -9.3912 3.43631 16
194 1 -3.65109 11.0253 -1.74437 20
195 1 -7.65588 4.15427 -2.63406 22
196 1 -0.88168 -8.25665 -6.60346 16
197 1 2.89917 -10.5487 6.45504 14
198 1 -6.00526 -12.8389 -2.05602 11
199 1 -11.3848 6.65275 -6.77632 14
200 1 -2.80378 -14.1264 4.85922 11
201 1 -5.43698 1.36713 9.15144 20
202 1 -9.02803 3.70578 5.94564 17
203 1 1.90551 -4.4329 -6.39902 18
204 1 -0.401673 -1.35173 7.18287 18
205 1 -12.4389 0.322037 5.31502 14
206 1 -0.476601 -5.72289 8.79216 17
207 1 -3.50359 -4.41627 11.5084 15
208 1 4.64928 -8.96144 -3.66359 17
209 1 6.87967 -11.2491 0.632371 17
210 1 1.46488 11.9462 -7.64985 8
211 1 -4.51381 -8.04549 4.72913 20
212 1 8.52653 -6.92235 7.04487 11
213 1 7.41222 0.943207 0.905239 15
214 1 2.85023 0.766589 -9.13452 16
215 1 9.93188 -7.68469 4.26851 12
216 1 -4.35925 3.45397 12.7329 9
217 1 1.76327 12.3982 -1.91255 15
218 1 4.31295 -4.13916 5.61228 19
219 1 -2.44232 -10.9543 -7.11954 13
220 1 4.17567 8.50109 8.17304 19
221 1 -8.3134 0.319898 8.14613 19
222 1 -5.98126 -9.6542 -1.80027 20
223 1 -8.2852 -7.41199 -5.59889 15
224 1 -7.08327 9.92799 6.43655 10
225 1 -6.68385 -8.78198 -7.55371 15
226 1 -5.91487 -1.46187 3.89144 14
227 1 9.09962 3.86759 9.03845 14
228 1 8.02775 4.41611 -3.27407 16
229 1 -0.0684083 4.74868 -5.75594 17
230 1 -2.54087 3.76186 -7.8974 18
231 1 -0.993109 9.14701 8.79265 17
232 1 -13.3131 -1.7704 -2.93392 11
233 1 4.26555 10.8639 -6.461 13
234 1 -5.15843 -7.46746 -10.2939 16
235 1 0.0148123 -4.80211 -11.1881 18
236 1 8.06397 6.91937 -4.84687 14
237 1 1.53954 9.58668 0.110515 23
238 1 1.97266 3.64698 -7.90722 19
239 1 0.751497 -9.93697 1.85718 18
240 1 -5.18779 5.87663 -12.5297 11
241 1 9.97747 6.8587 0.365232 20
242 1 7.51465 -4.90581 -0.134442 15
243 1 -0.544251 1.55066 -13.5261 14
244 1 -0.784942 -9.67235 -1.37376 18
245 1 1.6806 -12.8549 8.90471 9
246 1 -6.95666 2.1971 -7.22902 16
247 1 2.35909 3.19317 -12.0889 17
248 1 -11.2498 -3.38098 0.804025 15
249 1 12.0643 -3.61437 -2.64112 15
250 1 -6.47464 6.90244 -4.83368 17
251 1 2.54073 -7.42832 -7.49594 14
252 1 5.00908 2.88096 -9.16256 20
253 1 12.6147 -4.66489 -5.7779 10
254 1 -8.92342 -5.65775 9.02613 11
255 1 -4.93306 13.3653 -0.584588 10
256 1 -1.40423 8.95417 -7.29078 15
257 1 12.2655 4.55917 -1.57653 14
258 1 -0.608953 -12.5348 -1.73214 16
259 1 2.52456 -4.43601 -9.3343 18
260 1 2.04888 6.69983 3.80983 17
261 1 13.4138 -5.18538 -0.390614 8
262 1 -0.17864 -6.82118 0.335185 20
263 1 -10.5759 3.47587 8.80695 9
264 1 -6.2053 -6.13815 -7.2956 22
265 1 3.73405 -1.89742 13.7048 12
266 1 6.91503 7.14152 -10.4927 10
267 1 -9.7555 9.6749 -6.80875 12
268 1 -0.757319 12.6338 -4.94541 13
269 1 0.142388 3.43648 10.8391 17
270 1 2.75719 -13.7477 -2.10631 10
271 1 5.49133 -3.31015 -10.646 16
272 1 -12.9665 -5.26256 -1.20492 11
273 1 -10.9448 3.75075 -4.66799 19
274 1 -10.8449 -8.00292 7.66181 8
275 1 4.20898 7.67079 -1.8663 20
276 1 3.37406 -10.4001 -8.64243 12
277 1 6.83409 -1.34712 9.8037 19
278 1 8.88376 -0.895255 -6.58841 20
279 1 -11.1921 6.9361 0.428951 15
280 1 9.86839 -5.50556 -5.06939 15
281 1 2.13613 9.06913 10.9632 8
282 1 -2.61175 0.732916 -11.3236 19
283 1 9.87402 5.08831 -8.93766 6
284 1 0.808543 -1.75041 -13.6434 12
285 1 -3.70426 -11.2131 -3.64841 17
286 1 12.5677 2.18804 0.447886 13
287 1 8.17382 -8.1929 -8.7732 10
288 1 5.23411 -11.5589 -1.82634 20
289 1 7.26872 11.1345 1.63726 12
290 1 -8.87156 3.30213 2.71064 15
291 1 11.2278 4.40816 -5.05576 11
292 1 0.815956 -3.38519 10.26 20
293 1 5.9943 3.18441 10.5435 14
294 1 -7.04438 -0.787762 -9.19982 19
295 1 14.2332 4.99736 1.49117 6
296 1 10.9853 -4.28727 0.33273 17
297 1 -0.496664 -7.04036 -3.06706 20
298 1 2.61678 11.042 8.62677 10
299 1 2.50605 3.5123 5.15757 17
300 1 -9.01751 10.2353 -3.80049 13
301 1 -2.53366 -12.3701 -10.1126 5
302 1 -7.68868 5.02023 -10.5761 17
303 1 -6.00311 0.0703201 -14.6484 10
304 1 -13.478 4.97289 -1.98754 12
305 1 9.39518 -7.38932 1.53662 16
306 1 -2.86255 -8.98114 7.7261 17
307 1 5.78543 -5.55475 7.73921 21
308 1 5.9851 4.10694 -6.27609 18
309 1 11.6242 -2.09477 5.47675 11
310 1 8.88699 8.57914 7.77785 10
311 1 12.1907 -5.20523 3.10972 15
312 1 -2.95863 3.06547 9.40039 18
313 1 -11.927 -6.41279 2.10566 12
314 1 -10.2852 -1.69985 -9.57239 8
315 1 6.84046 0.137905 13.1059 8
316 1 -8.04102 11.9642 -2.13371 10
317 1 9.44887 3.77674 -0.0892333 21
318 1 7.96087 4.43813 1.98651 16
319 1 -8.47273 -2.72402 8.6282 14
320 1 6.23278 0.432356 -10.0785 16
321 1 -3.06022 -5.30211 -6.01153 19
322 1 6.62113 5.19184 4.79306 13
323 1 4.86 5.31219 1.12224 17
324 1 0.908655 -3.54734 13.6095 11
325 1 -1.97736 5.33266 12.9857 10
326 1 -6.53388 0.577325 11.824 10
327 1 -3.55821 6.53245 -6.19014 19
328 1 8.20348 9.54593 -1.16623 13
329 1 -3.00652 0.428171 7.21655 22
330 1 2.34273 13.4463 -5.15238 8
331 1 -9.33246 -10.6893 -1.36929 11
332 1 7.18625 7.39038 2.91924 21
333 1 -2.3105 5.44417 4.88893 22
334 1 -8.52164 4.42925 0.063389 18
335 1 5.5287 5.53583 -3.68137 19
336 1 3.18495 2.41722 10.3195 18
337 1 5.34594 11.6984 9.68531 5
338 1 1.69737 -1.71616 -7.93165 18
339 1 -0.0961463 6.99799 7.56958 19
340 1 7.18384 -6.62283 -5.21138 17
341 1 5.11997 11.7773 3.28865 13
342 1 -13.5475 -1.9953 6.5343 10
343 1 3.58445 -11.7605 0.665433 16
344 1 5.75739 7.87366 -7.24107 15
345 1 3.92282 -6.36612 3.11897 18
346 1 -1.44837 6.78559 1.90318 22
347 1 4.07521 -2.83642 -14.6511 9
348 1 4.78651 -4.55818 -7.51638 17
349 1 -4.01451 11.4718 5.58941 12
350 1 3.02923 -7.21109 6.04765 19
351 1 -0.654273 1.28355 -8.09388 22
352 1 -7.54495 -11.0151 -4.93868 9
353 1 -3.89175 2.95739 6.27684 19
354 1 11.2925 -1.51871 2.23395 15
355 1 0.437319 9.07299 -4.82886 16
356 1 9.54749 1.3977 -9.1064 14
357 1 9.73525 1.85135 -5.57972 18
358 1 4.94052 5.06464 -12.2814 12
359 1 -3.48995 -1.24969 10.0359 19
360 1 -3.976 -6.30865 8.76303 20
361 1 1.74536 -7.66849 -10.8232 12
362 1 -7.47497 7.97334 -2.23809 23
363 1 7.95796 9.9353 4.31997 15
364 1 -9.15365 -4.80592 5.82462 14
365 1 7.50584 3.69248 -10.308 13
366 1 -2.15411 1.10549 10.9707 22
367 1 -10.7017 -4.05615 -2.54592 17
368 1 10.1539 0.734974 -0.420957 15
369 1 -5.94215 -6.18407 -1.31689 17
370 1 11.5866 -6.83875 -2.64816 11
371 1 4.35303 -9.34376 2.78868 20
372 1 -0.748231 10.9703 6.07498 15
373 1 -8.87792 2.03922 10.4388 10
374 1 6.50449 3.32554 -0.500079 18
375 1 9.93081 -8.71618 -4.02784 11
376 1 4.55159 7.92745 4.58121 21
377 1 0.0585349 11.9406 2.94157 14
378 1 0.612757 -14.3295 5.87624 10
379 1 -8.70516 -1.9123 -4.30853 21
380 1 1.58997 0.771751 13.5606 15
381 1 4.4181 10.7749 -0.303145 19
382 1 7.47713 -4.08313 8.47649 14
383 1 10.3884 -4.95053 5.35955 13
384 1 6.76538 7.3143 6.48019 15
385 1 -4.59728 5.99155 -2.79544 21
386 1 0.141084 -10.1921 -10.4613 12
387 1 -4.09931 2.27088 -13.3677 13
388 1 -4.21711 -0.216823 13.0147 10
389 1 10.6506 1.13235 3.8307 12
390 1 2.30254 8.37713 -7.88694 16
391 1 5.64434 -4.54763 -13.0643 11
392 1 -7.02916 -14.7684 0.968178 6
393 1 -3.42136 0.638962 -6.49792 18
394 1 2.3278 -1.93976 -11.3446 19
395 1 -2.98686 -8.00521 -3.96874 16
396 1 0.739351 -7.01165 11.8274 11
397 1 0.109406 -6.85357 3.4075 19
398 1 12.1114 0.508206 -7.10278 13
399 1 -9.29266 8.96712 3.51433 15
400 1 8.81252 -2.02122 -0.286399 15
401 1 -12.1445 -0.807472 -0.0672275 14
402 1 12.4292 7.62942 2.3781 9
403 1 5.95988 6.13547 8.8438 17
404 1 -9.49774 -0.363083 -7.20978 19
405 1 -3.66504 4.00449 -11.1588 15
406 1 11.1691 -9.50142 -0.681396 9
407 1 -6.96154 -4.34293 -4.45273 18
408 1 -6.5927 -10.0741 6.36385 12
409 1 8.8633 -1.02053 4.80506 16
410 1 -13.0754 5.32621 2.85084 11
411 1 0.410383 8.10746 -9.98448 10
412 1 5.86327 -6.65385 10.5965 12
413 1 -6.50675 -2.32842 11.1397 12
414 1 -1.99325 -3.50499 -13.7908 10
415 1 -6.01379 -12.2706 3.62513 14
416 1 4.98548 0.506633 8.82027 21
417 1 -1.76395 -13.1476 -5.20755 8
418 1 15.0196 -3.11284 -2.77235 8
419 1 -7.63904 7.34011 0.658371 20
420 1 -6.58146 1.43774 5.86622 18
421 1 -0.361562 -10.4942 -4.4727 19
422 1 9.55851 9.37522 1.56662 12
423 1 10.4384 2.25761 -2.78896 18
424 1 -3.58 -11.0591 5.20172 15
425 1 6.61694 9.48979 -4.21012 15
426 1 5.51098 -1.35704 -6.07343 18
427 1 -13.4594 5.69071 -5.23226 12
428 1 3.9402 8.24164 -4.89261 19
429 1 4.65066 10.8851 6.25898 17
430 1 2.68567 9.09428 -2.5309 19
431 1 -3.16777 7.67371 10.5213 10
432 1 7.26572 0.460503 -3.81992 18
433 1 2.70203 -12.3067 3.77467 14
434 1 -5.26935 -1.44161 7.47917 18
435 1 8.06669 6.35681 10.3265 10
436 1 7.22096 -3.61364 -6.11638 19
437 1 -7.72774 7.69709 -8.05527 15
438 1 -1.72339 8.44154 5.89945 20
439 1 -4.43835 8.01153 0.205346 22
440 1 -2.24377 -6.40509 5.32039 19
441 1 4.76334 -9.05854 -0.16575 19
442 1 2.39391 0.386467 -13.9033 12
443 1 -7.41183 -3.72617 -1.5627 15
444 1 -8.18198 4.53246 -5.7746 19
445 1 9.93676 -2.13324 8.42457 11
446 1 -11.2131 -5.99869 5.50381 15
447 1 13.5014 -1.17559 0.0436697 10
448 1 -0.391806 3.24114 -10.6955 20
449 2 -10.4762 0.169845 -8.71978 12
450 2 -8.05991 11.8152 -4.12742 11
451 2 0.747214 0.261268 -13.0017 18
452 2 -1.75067 6.9275 11.9414 11
453 2 -7.34059 -6.76459 -10.5856 9
454 2 1.93927 -1.31999 14.1892 13
455 2 -10.4892 0.138174 4.74959 15
456 2 9.71091 5.12225 1.31212 20
457 2 -3.83986 -1.25042 -6.03834 18
458 2 -8.11873 -7.31298 -7.4693 12
459 2 -11.4312 1.11382 -0.127785 15
460 2 -3.21817 -7.50593 6.45488 18
461 2 2.3558 -0.0692642 12.0828 18
462 2 6.64743 -1.68413 -10.8415 12
463 2 8.84826 -4.20156 4.4369 19
464 2 -9.23633 10.4518 -1.95355 12
465 2 11.6514 5.41781 6.58175 10
466 2 -12.3685 -6.68317 7.28811 8
467 2 -2.81618 -14.7026 3.09149 10
468 2 9.61541 -6.83174 5.67751 13
469 2 -9.50597 6.39158 -0.17946 19
470 2 -6.46632 8.66928 -3.60922 20
471 2 -3.51281 7.69765 6.43429 23
472 2 5.93149 -7.46556 -4.15421 14
473 2 -3.26651 -0.680122 -10.674 14
474 2 3.09145 -5.49533 -7.45937 13
475 2 9.63503 -2.74349 -9.10088 13
476 2 9.64281 8.44033 -3.43607 11
477 2 -4.68717 8.14138 3.13006 19
478 2 -3.25258 -7.89104 -10.5018 14
479 2 2.88299 -11.3735 8.41322 12
480 2 10.7895 -3.38726 2.0834 14
481 2 -12.7665 3.32817 -1.36809 14
482 2 8.10415 9.06661 2.74501 16
483 2 5.18738 -10.5108 1.29995 20
484 2 0.060475 6.77615 3.24127 21
485 2 4.7213 9.64408 3.35857 20
486 2 3.87218 7.30224 -6.73532 19
487 2 -7.21628 0.929306 10.0943 15
488 2 4.97902 1.03477 -8.41857 17
489 2 -6.99074 1.01073 -10.1232 13
490 2 -12.5607 1.82069 4.25881 13
491 2 -10.2635 -7.09156 1.2336 11
492 2 -0.931566 -8.98398 7.97648 15
493 2 -0.633593 -2.41363 13.4427 12
494 2 -0.187128 9.17687 6.83584 18
495 2 -8.44505 1.48015 1.9517 15
496 2 2.83142 -9.33051 -4.13467 17
497 2 10.7293 -2.55607 -3.86199 18
498 2 -3.40976 -11.8895 1.28566 17
499 2 7.23983 -1.84069 -6.76209 19
500 2 1.36633 5.84957 7.84165 17
501 2 5.22595 -11.0682 -3.94674 17
502 2 2.73507 -5.30483 5.38205 18
503 2 -5.98464 -7.795 3.28746 18
504 2 14.2068 0.333038 -0.646675 7
505 2 -0.391603 -11.0531 2.87056 17
506 2 12.5631 -5.1238 1.29674 12
507 2 -4.66509 -5.32639 -10.5916 17
508 2 -8.53495 -5.77697 4.40723 16
509 2 -3.05798 -8.69789 1.11626 19
510 2 -6.66113 -7.39196 -2.61438 20
511 2 -4.51116 9.34189 -1.25552 21
512 2 1.79419 4.62235 -6.05004 17
513 2 8.19418 3.87822 -1.53601 21
514 2 3.27286 4.6699 -11.4365 15
515 2 -8.45174 1.09676 12.052 8
516 2 -12.381 6.96609 2.20674 12
517 2 -3.19005 3.37124 11.3156 16
518 2 -11.9311 5.24777 4.55485 11
519 2 -10.103 5.19741 -5.89814 18
520 2 13.3171 -0.545253 -5.91105 12
521 2 10.7245 -8.50684 -2.38204 11
522 2 7.7689 2.7983 0.997298 17
523 2 0.124802 9.85031 1.58511 23
524 2 -6.12547 6.33954 4.34678 19
525 2 8.03807 7.69928 -0.399008 17
526 2 2.43957 7.92998 -0.859693 19
527 2 0.285882 8.53525 -8.01663 14
528 2 -1.34481 6.34174 6.38626 18
529 2 2.53973 -3.60616 9.07759 16
530 2 3.51876 -3.3933 -10.5401 19
531 2 -2.8212 3.68261 13.9424 9
532 2 6.08789 3.62315 -11.4538 15
533 2 -6.38015 -8.72182 10.9603 8
534 2 1.41884 -6.72369 -3.36494 17
535 2 -1.13014 -4.88952 -6.41824 18
536 2 7.81708 -13.0534 -0.0384701 11
537 2 10.1083 5.69835 -4.3018 13
538 2 -7.26715 5.55894 -12.7041 11
539 2 -3.79709 11.0645 3.57857 13
540 2 -7.07985 -4.91703 -0.151074 14
541 2 5.17506 6.96107 -11.6936 9
542 2 1.33001 10.27 -1.8036 20
543 2 -0.096095 4.52961 12.4654 13
544 2 2.53268 -12.5383 -3.52464 14
545 2 2.14683 4.19259 10.8266 16
546 2 7.93549 -3.34959 -1.13011 19
547 2 6.51357 5.88547 1.84685 18
548 2 -4.54233 6.79161 -11.0275 15
549 2 8.01398 -2.49394 8.80715 14
550 2 -1.87894 -11.4114 6.0555 15
551 2 6.55614 -9.51634 4.41892 14
552 2 -8.26711 11.1081 -7.38242 12
553 2 -6.41103 -11.7385 -3.60033 13
554 2 -0.0260008 3.08022 -12.5415 14
555 2 -0.955289 -11.7646 -10.9326 6
556 2 7.45757 7.51737 8.77092 13
557 2 -11.3753 -5.98743 -2.08798 12
558 2 -13.2084 3.59333 1.78914 12
559 2 8.40066 -5.18588 7.4643 13
560 2 -4.16491 -12.5502 -2.13388 14
561 2 2.0283 -0.855641 -9.66902 19
562 2 -4.28991 -1.20674 -14.2003 14
563 2 -6.13702 -2.75454 -11.5789 14
564 2 -5.34112 -0.976594 11.744 15
565 2 -4.32006 -5.96116 -7.7972 19
566 2 5.68125 -5.06483 -5.77875 16
567 2 10.8655 -1.69386 -6.91716 16
568 2 -5.51334 -4.99957 2.65946 19
569 2 1.44793 -3.62597 -8.11275 17
570 2 -1.02974 -8.64705 -4.58164 20
571 2 2.36232 7.3131 -9.53262 15
572 2 4.43473 11.6892 8.14757 9
573 2 10.6616 1.99871 5.59248 12
574 2 -13.3175 -3.64035 7.18771 9
575 2 -4.3381 -12.6663 4.19551 12
576 2 -1.0949 0.364623 -10.0044 17
577 2 -2.83938 5.45182 2.90591 20
578 2 -4.31317 -6.75094 -0.0661506 20
579 2 -8.05673 7.97238 2.22322 20
580 2 -9.38865 -7.58434 8.63045 11
581 2 0.280151 -13.4265 7.49474 9
582 2 -13.3583 -1.70842 4.65743 12
583 2 -8.63151 -10.8486 0.565445 12
584 2 -5.49098 -5.77767 5.47569 16
585 2 5.97602 -4.56112 9.63906 16
586 2 3.15508 10.1772 -7.81735 12
587 2 8.613 10.5623 0.480092 11
588 2 11.6517 2.19769 -5.59575 13
589 2 -0.681099 11.0238 -3.9949 17
590 2 -9.84187 -2.22723 -7.79785 14
591 2 -13.1907 -0.229247 -1.61718 12
592 2 -3.12859 -11.7856 -5.58074 11
593 2 4.10765 -7.71253 4.5851 21
594 2 9.07126 -8.63024 3.01217 12
595 2 -9.47311 8.91185 -4.87081 18
596 2 7.42524 -1.05003 0.651489 14
597 2 7.46997 -0.471944 11.29 12
598 2 -0.881223 -1.66309 -7.74337 19
599 2 2.82289 7.38142 5.32741 21
600 2 4.01425 12.2581 4.78962 12
601 2 0.539978 -1.69591 10.6583 22
602 2 -7.78097 4.77296 2.14385 16
603 2 6.89263 8.38059 -5.58258 15
604 2 -5.28003 -8.42873 -8.80956 15
605 2 -6.69105 -1.85531 -7.69927 18
606 2 -8.94015 -4.43611 7.76664 12
607 2 4.27132 9.99624 -1.96124 20
608 2 10.6778 2.49405 -0.794733 16
609 2 9.68455 -8.93558 0.38357 13
610 2 -10.8824 -2.14781 -0.596434 15
611 2 -1.55729 11.4216 -0.992352 18
612 2 -6.88524 6.68374 -6.81872 17
613 2 1.61985 1.63971 -7.81747 19
614 2 -9.8536 3.1158 -0.0576638 18
615 2 -10.254 -3.27942 5.43359 15
616 2 7.55792 -12.6931 -3.08237 12
617 2 -1.58782 -11.2096 -0.596823 18
618 2 -6.2995 10.8036 2.18207 13
619 2 -0.247534 -8.2062 1.89202 18
620 2 -12.4485 4.23333 -6.10736 13
621 2 -1.04441 -7.73341 -1.05602 18
622 2 3.88756 6.58585 8.82454 18
623 2 3.4284 2.11709 -13.401 11
624 2 -4.94255 10.9984 -8.62227 9
625 2 9.4014 3.34183 -9.39354 9
626 2 -1.7075 8.63089 -2.34384 22
627 2 -6.80871 -2.66131 9.29376 16
628 2 -4.26922 -4.44867 8.33842 20
629 2 -3.04517 -7.11884 3.65447 19
630 2 -13.1008 -0.327082 -4.36612 9
631 2 -3.22304 -1.54928 7.75663 18
632 2 -2.40598 1.86258 -7.62471 19
633 2 7.28039 -1.60637 -3.29521 20
634 2 5.20218 -0.0169053 6.93624 21
635 2 -6.90422 -1.26292 -4.56576 23
636 2 3.02674 -1.58129 -13.2663 16
637 2 5.13131 7.12344 -0.295391 18
638 2 5.00417 8.63076 6.48628 18
639 2 5.33653 -4.79088 -2.84416 22
640 2 -6.80989 -1.91925 -1.07954 18
641 2 -5.79766 11.6406 -5.80416 14
642 2 -0.657152 3.43664 9.18126 20
643 2 2.33759 -12.5579 1.83837 16
644 2 -4.7648 -9.90953 5.37912 15
645 2 7.07821 0.177125 8.88236 19
646 2 7.4067 5.10681 -5.11392 15
647 2 2.5545 12.6051 -0.257014 12
648 2 4.03409 -11.4419 4.82765 13
649 2 7.01387 -11.7328 -6.61471 10
650 2 1.13536 4.2511 -9.6807 18
651 2 1.87812 2.68951 13.5143 10
652 2 2.04306 1.31726 9.20723 19
653 2 5.2332 -5.02331 3.90199 21
654 2 -2.43607 1.05339 -13.5168 15
655 2 13.5134 -3.75309 -4.41026 11
656 2 -10.5611 8.92363 0.771032 12
657 2 2.96695 -7.97336 -9.19897 13
658 2 -0.26909 0.738414 14.5375 11
659 2 -11.5581 6.08066 -8.68604 12
660 2 8.92636 -7.42151 -5.35541 14
661 2 2.09741 12.0599 2.9026 16
662 2 12.7919 5.48012 2.33103 11
663 2 11.5697 1.8162 2.28497 13
664 2 -10.0952 -1.04852 -5.35382 16
665 2 -6.55139 5.4727 -3.61095 16
666 2 -7.51352 3.93914 -7.40957 16
667 2 11.1416 6.05169 -1.29748 13
668 2 -8.78763 7.00905 -3.05636 19
669 2 -2.07773 -6.32926 9.06336 17
670 2 4.97145 1.63016 10.8842 17
671 2 0.375135 -10.4056 -2.74099 17
672 2 0.757829 -3.35604 -12.117 16
673 2 2.90799 12.7261 -3.43112 13
674 2 5.50865 11.5442 1.1836 14
675 2 -7.45323 -4.791 -8.58588 16
676 2 -7.92669 -10.0758 -2.66837 15
677 2 11.621 -0.640778 0.397054 13
678 2 -7.33264 8.84328 -0.314175 17
679 2 1.42065 -12.7234 5.19493 13
680 2 8.88529 -5.44412 0.991856 18
681 2 -3.04124 -4.17415 5.09705 21
682 2 -6.88807 -5.96988 -5.57554 18
683 2 1.27852 7.34788 10.6597 14
684 2 1.9789 8.31872 -4.33463 18
685 2 -9.25649 6.11633 4.92845 19
686 2 -3.81898 -8.69666 9.49164 14
687 2 -4.17329 13.1142 -2.31128 11
688 2 -0.710591 -13.6934 1.52362 15
689 2 -1.01381 -3.83099 7.57437 16
690 2 7.77703 2.41921 9.97542 19
691 2 -9.82286 2.82183 4.38541 15
692 2 -3.70631 7.09629 -1.24157 19
693 2 -0.403212 1.23643 10.8259 21
694 2 -2.17856 -8.26177 -8.02813 20
695 2 11.3652 -5.43602 -1.39456 11
696 2 7.71729 -9.6887 -7.61983 12
697 2 -3.93214 10.4171 -3.65899 19
698 2 -4.96198 1.62469 12.3736 14
699 2 -7.66449 3.25175 -4.35029 18
700 2 11.7692 -5.89503 -4.32725 12
701 2 3.28046 9.76638 1.05248 20
702 2 -2.83663 4.21778 7.62049 20
703 2 2.01882 -0.956806 6.9405 19
704 2 -3.10185 7.64072 -7.87766 16
705 2 -10.3816 1.7714 -3.96359 17
706 2 -4.50861 -3.04785 -8.91276 19
707 2 -1.06279 4.87364 -7.28934 19
708 2 -7.06371 -0.577164 -13.2955 10
709 2 6.70537 -7.73614 -10.073 10
710 2 -2.76381 -6.59741 -2.59537 22
711 2 -0.589808 -8.3195 11.0299 11
712 2 -4.04289 4.88348 -7.15419 16
713 2 4.57855 -2.19984 5.35211 18
714 2 10.7977 -4.91173 -6.68924 13
715 2 -0.710662 -14.3214 4.47945 12
716 2 10.6757 7.85418 7.44557 8
717 2 -5.41221 10.7914 6.64451 11
718 2 -12.194 -5.15367 0.591063 12
719 2 8.87944 2.85302 -3.9326 16
720 2 2.5711 -9.3112 2.28684 18
721 2 -11.0775 8.47999 3.93025 12
722 2 5.35612 0.876603 -5.85176 16
723 2 3.84956 4.47665 6.22449 19
724 2 -12.2159 -0.87983 7.11347 11
725 2 -0.957557 6.82345 -10.3825 14
726 2 5.71024 -2.4645 -13.7349 10
727 2 -5.45096 2.77561 7.75259 17
728 2 -2.66225 -0.487954 11.8345 14
729 2 10.2944 3.35529 7.95411 12
730 2 6.26969 0.655561 -12.144 11
731 2 -8.31912 -3.51384 -5.51381 18
732 2 1.73821 -6.49886 -0.307108 20
733 2 15.0704 -1.31559 -2.93863 10
734 2 -2.25929 8.37133 0.925332 19
735 2 0.078144 -8.36001 -10.6297 12
736 2 -10.7627 3.12578 6.95974 14
737 2 -6.47463 -2.10997 1.97555 13
738 2 4.35029 -13.163 -1.1358 16
739 2 -0.586905 -11.0476 -6.54907 14
740 2 -1.31019 -12.4667 -3.56184 14
741 2 13.862 -3.74724 -1.34327 9
742 2 -6.46324 9.03361 -9.11828 11
743 2 8.018 8.85148 6.03379 14
744 2 -3.03455 -11.1495 -8.85909 11
745 2 4.66136 2.92903 8.71027 20
746 2 -2.95031 9.2272 9.1785 14
747 2 -4.38177 7.10625 -4.52405 19
748 2 -9.79266 7.84047 -7.62973 13
749 2 1.48488 -10.7379 -9.14847 12
750 2 -7.82328 -9.71248 5.3075 13
751 2 -12.0192 6.58673 -1.73732 15
752 2 6.01758 7.72065 -9.06338 11
753 2 -2.08994 4.08437 -9.8936 19
754 2 4.45813 4.29095 -5.00344 17
755 2 -3.77561 -3.9587 -13.1594 11
756 2 1.07772 -8.01663 -6.53989 18
757 2 -13.414 1.23848 -6.88817 8
758 2 6.27618 7.05944 4.613 16
759 2 -5.67527 1.85419 -14.1408 11
760 2 -11.7661 -5.49836 3.73133 13
761 2 6.4334 2.32469 6.37711 16
762 2 6.47677 5.34602 6.82498 19
763 2 11.3542 0.504758 -8.9353 12
764 2 -1.35005 8.24132 -5.55792 18
765 2 -2.8028 12.6293 -5.03626 11
766 2 10.0966 -2.12309 6.4994 15
767 2 -8.40267 0.931888 -6.48559 20
768 2 4.76643 10.0464 -4.78473 16
769 2 3.44909 -3.45458 12.4792 15
770 2 -1.48123 -4.83802 -9.55778 19
771 2 5.2372 -0.735061 12.9829 12
772 2 -1.82948 9.04718 4.06524 23
773 2 9.77177 -11.1108 -1.21985 14
774 2 8.53686 -6.19422 -8.75002 13
775 2 -2.53557 10.6835 6.73052 12
776 2 5.19209 -8.03259 9.52229 10
777 2 -0.0341144 6.37964 -3.2755 18
778 2 2.66251 10.8158 6.65723 16
779 2 -12.0957 7.13358 -4.94629 16
780 2 0.632675 12.863 -6.17851 7
781 2 -9.51411 -7.26077 -4.3984 15
782 2 3.71554 -4.50131 -13.7664 11
783 2 -7.20875 3.10649 5.96054 19
784 2 12.0212 -4.1292 4.71066 12
785 2 -2.8085 10.3215 -6.86773 15
786 2 -10.7494 1.59588 9.34655 10
787 2 -6.68449 -9.36563 -5.74248 16
788 2 3.36146 9.48651 9.53764 11
789 2 -1.50902 -4.85566 -12.239 12
790 2 -9.68616 4.53574 -10.8316 11
791 2 3.71266 4.16765 -8.59731 20
792 2 -4.56866 4.13999 -12.987 13
793 2 -7.85816 9.53871 4.73615 14
794 2 -6.76986 8.12249 6.91421 14
795 2 3.00082 12.3739 -6.49739 8
796 2 -6.98134 -13.2977 -0.292321 11
797 2 8.12286 0.0902746 -9.32891 16
798 2 6.03073 -4.38412 -8.93544 16
799 2 -9.067 -8.98535 2.8996 14
800 2 -9.78003 4.06492 -2.68476 21
801 2 -10.22 -7.85642 5.97245 12
802 2 -4.1447 1.92374 -11.244 13
803 2 1.90721 -8.86444 6.41752 14
804 2 6.74352 5.08601 10.403 12
805 2 5.78318 -3.82053 6.70925 18
806 2 -6.43301 0.0566295 7.6048 15
807 2 8.57271 6.1576 -10.1177 8
808 2 -1.27632 7.32285 9.16347 17
809 2 -4.1078 -7.1984 -5.59359 19
810 2 -9.76194 -8.67454 -1.36076 12
811 2 -6.25803 -9.49391 8.01867 13
812 2 -5.83745 0.720677 3.92223 16
813 2 -7.9765 6.78601 -9.82946 16
814 2 -11.1587 -4.48969 -4.51162 12
815 2 -3.55508 12.4826 0.775074 14
816 2 6.69734 -7.38052 6.86629 16
817 2 11.5016 6.90776 3.9551 10
818 2 -6.16321 -13.4388 2.00842 12
819 2 -12.0647 -2.6548 2.21525 11
820 2 -13.6555 -0.0461159 2.20504 11
821 2 -3.26538 1.08896 9.10974 20
822 2 0.74202 -5.47172 12.9915 8
823 2 -0.718635 -7.38513 4.99589 17
824 2 8.53786 0.541372 5.65092 17
825 2 4.34979 -7.97268 -1.93214 19
826 2 -5.72754 6.65596 0.757437 22
827 2 -5.55051 1.3543 -6.20471 21
828 2 -5.30313 -2.48327 5.84493 13
829 2 4.07759 -6.54544 7.7111 19
830 2 -3.78388 -6.23301 10.8107 16
831 2 4.11038 -5.69658 10.8197 12
832 2 6.73798 4.00583 -8.61278 16
833 2 9.75695 5.47373 9.4045 12
834 2 6.22698 -4.86098 -11.4233 13
835 2 -7.02214 3.51077 -0.809462 22
836 2 7.16113 -1.85805 4.30272 17
837 2 -5.81362 -4.63416 -2.81399 18
838 2 12.1025 3.15052 -2.97379 14
839 2 8.03568 -4.82057 -4.57073 17
840 2 0.0627778 12.1503 5.10609 14
841 2 10.7226 -0.926748 4.02105 13
842 2 -5.26114 -3.69191 11.2575 13
843 2 1.02266 -5.56775 9.98335 14
844 2 -6.86319 -6.27611 9.49229 16
845 2 1.18125 -13.3582 -1.14995 14
846 2 6.57229 -10.1127 -0.982142 22
847 2 10.5546 -6.19115 3.26558 13
848 2 0.316696 -11.2916 9.20996 9
849 2 5.59948 -4.7093 0.632556 18
850 2 -7.23967 5.79073 7.63274 13
851 2 -0.879496 0.569809 7.51569 20
852 2 8.74401 1.33972 -7.10411 19
853 2 1.71763 -5.67336 -10.7017 16
854 2 5.08998 -10.0836 -9.47192 10
855 2 2.14032 1.56281 -10.8125 21
856 2 -8.27741 2.91592 -12.5683 11
857 2 7.11872 11.5174 3.63558 11
858 2 -8.81746 -2.90625 -2.61066 16
859 2 13.3267 3.96031 0.334318 12
860 2 -9.21347 0.59215 -1.50114 20
861 2 4.55268 -7.66403 1.53929 18
862 2 4.33004 6.97461 -3.59727 21
863 2 14.6583 1.32672 -3.8494 8
864 2 7.30418 6.31139 -2.92763 18
865 2 4.64793 -9.75126 7.01442 14
866 2 -12.8212 -3.45645 -2.20144 12
867 2 9.92125 -0.23614 8.86124 12
868 2 8.48846 -11.2057 1.78163 12
869 2 2.12157 -6.71279 2.58301 21