ITEM: TIMESTEP
58000
ITEM: NUMBER OF ATOMS
1500
ITEM: BOX BOUNDS pp pp pp
-30.0 30.0
-30.0 30.0
-30.0 30.0
ITEM: ATOMS id type x y z Coordination
1 1 -3.2003 -7.1067 -8.45996 20
2 1 6.66557 -9.74661 7.02914 14
3 1 -11.8706 9.18147 -1.57008 17
4 1 -13.2373 2.10973 -6.76175 13
5 1 -1.63001 -9.25325 10.5914 14
6 1 -7.56346 0.25031 -10.1216 21
7 1 -2.21424 1.83083 -5.93302 24
8 1 -3.03705 -13.6891 1.76345 20
9 1 -9.85515 -8.66174 1.3957 20
10 1 1.07152 2.06202 15.9476 14
11 1 5.95955 -4.61626 4.87117 25
12 1 2.04083 4.41952 11.6753 16
13 1 5.39659 -0.637136 1.64705 19
14 1 -2.0106 9.70926 -8.85302 18
15 1 3.61599 0.246186 11.4725 14
16 1 12.4919 4.12615 9.24944 15
17 1 1.11484 12.6123 -10.7785 10
18 1 4.01063 4.77347 -13.6904 15
19 1 -6.25285 1.2767 -0.578131 24
20 1 -2.28903 -0.781548 -7.30435 16
21 1 5.84789 -12.696 6.05611 12
22 1 1.14292 -0.694297 10.2697 19
23 1 7.20609 -9.71569 2.1459 17
24 1 -6.79923 -14.6012 -5.37122 13
25 1 3.05395 -3.03027 -5.85073 21
26 1 2.46679 -10.5157 -11.8896 12
27 1 -2.79964 3.21816 12.4559 19
28 1 -0.65025 -14.4811 7.8672 12
29 1 5.74531 -5.12561 11.9324 15
30 1 -9.84235 0.319507 0.651907 22
31 1 -10.8391 0.809501 -2.7655 22
32 1 -3.88588 10.9302 -2.6244 18
33 1 2.5213 2.96024 -7.96213 21
34 1 4.86007 -6.94763 -9.41752 21
35 1 -2.34955 -4.24237 12.6152 14
36 1 -11.9987 6.21483 0.36876 20
37 1 -0.493616 11.9808 4.51059 20
38 1 -9.65412 8.21059 -7.04249 16
39 1 -0.450153 14.7098 -1.97825 16
40 1 3.55306 -14.2203 0.801458 18
41 1 6.01347 -6.80228 -5.82595 21
42 1 -11.1821 6.0075 11.6622 9
43 1 -13.0651 -4.81013 -9.04674 12
44 1 6.97395 -1.16075 4.14623 22
45 1 -10.0119 5.77447 -5.34894 18
46 1 -8.84885 -8.26369 4.29747 20
47 1 -12.1539 5.58438 -7.50883 12
48 1 -2.00491 7.02079 -4.78001 22
49 1 1.96898 3.62077 2.49028 20
50 1 2.73881 4.42382 8.11814 16
51 1 5.75543 -14.0186 -2.04794 15
52 1 3.38658 7.17651 11.8291 17
53 1 12.471 -3.3252 -8.18185 14
54 1 8.26076 -10.9771 4.60385 14
55 1 -8.25898 -3.00844 1.61819 20
56 1 7.79972 -2.66178 12.1286 16
57 1 -6.77133 -11.5665 6.70836 15
58 1 -13.2532 -2.07384 2.09186 18
59 1 13.5056 1.90875 7.35669 12
60 1 8.50676 -2.89649 -3.2345 20
61 1 0.183797 11.2393 10.5236 17
62 1 4.91907 1.02411 5.63136 19
63 1 -7.11802 -5.68305 1.76931 20
64 1 -2.4259 -3.83569 -8.87051 21
65 1 -9.2057 11.5069 -2.41733 16
66 1 -2.90147 8.90104 -11.7392 20
67 1 1.02821 -0.815908 -4.36484 21
68 1 5.5055 -1.45299 -7.11752 20
69 1 8.31805 -6.31459 2.83211 22
70 1 4.44963 -10.8787 10.1083 11
71 1 -5.30113 10.8275 -8.8469 18
72 1 -11.779 11.7524 2.25341 12
73 1 -5.34174 8.05315 4.97802 21
74 1 -7.72023 -3.16143 11.9454 18
75 1 12.6911 -6.41235 -6.70573 15
76 1 -10.9871 4.65934 5.92841 19
77 1 9.07213 -11.1608 -5.56297 17
78 1 4.7103 -0.469633 -13.6529 16
79 1 -5.31425 0.032297 -12.1742 19
80 1 2.03022 -0.493341 5.8362 23
81 1 -1.60985 11.6714 -0.496719 19
82 1 -8.584 7.33395 -9.84303 13
83 1 2.36 12.8252 -7.17913 13
84 1 -0.69521 9.40298 2.17151 21
85 1 -0.641882 1.15711 -2.62467 22
86 1 -5.8444 -7.35218 9.80874 19
87 1 -0.15268 -1.44012 -9.88685 22
88 1 6.52747 -9.06875 -7.71125 18
89 1 -2.84148 3.20759 9.19655 19
90 1 -10.6259 -8.92571 -1.35067 19
91 1 6.47851 -3.73426 2.20132 21
92 1 -8.81535 -10.6194 -3.45903 21
93 1 10.3447 -9.26539 2.62115 15
94 1 -6.04076 8.26528 1.19235 22
95 1 7.05164 4.80886 -12.5422 19
96 1 -4.4751 5.63653 0.929651 25
97 1 6.07623 6.27889 -6.01591 24
98 1 11.0823 -11.2882 -3.08782 13
99 1 1.06858 -16.6648 5.25031 10
100 1 -7.82164 -11.2302 0.998601 18
101 1 -14.1904 -4.91036 2.66095 14
102 1 8.63326 8.5416 4.39253 20
103 1 5.43595 3.88585 -0.655483 22
104 1 -7.20565 12.269 8.64135 12
105 1 -4.80176 12.58 -5.15484 18
106 1 0.11241 -4.31329 -10.4089 20
107 1 5.88433 -2.65561 9.83762 20
108 1 -3.58381 8.11115 -7.14684 24
109 1 10.8906 2.27536 -4.56586 18
110 1 -10.6436 9.87642 -4.36625 13
111 1 2.96029 -3.46873 -2.2791 22
112 1 -8.33269 14.2278 -1.68901 15
113 1 7.25703 5.13158 -9.48046 20
114 1 9.27784 -8.27562 5.63065 15
115 1 -7.00297 5.21622 -6.28314 18
116 1 -3.09357 3.16508 -0.193887 20
117 1 7.46852 8.94109 -0.905742 17
118 1 12.0253 11.2138 0.614898 12
119 1 -5.05068 8.74823 -4.48755 22
120 1 -5.01658 -2.94005 -13.0041 12
121 1 1.13499 14.9282 5.18727 15
122 1 -9.6845 -7.2141 -3.67297 22
123 1 15.5316 -1.32703 -3.90418 13
124 1 -4.2413 10.2876 7.51545 21
125 1 -2.76923 10.6371 -5.36532 20
126 1 2.9286 -5.05137 11.0423 20
127 1 -11.7847 -7.17322 3.561 16
128 1 -1.45137 -14.2338 4.84584 18
129 1 3.9053 -15.1549 -4.67069 11
130 1 -3.55232 11.0866 -13.7576 11
131 1 0.498846 6.10617 -2.6984 19
132 1 11.2845 8.13057 -3.71431 17
133 1 -1.57772 -7.89679 7.83068 20
134 1 -9.11414 2.79946 -1.44835 22
135 1 2.29114 16.3232 2.38103 13
136 1 -0.95108 5.10668 11.0943 18
137 1 -6.5265 15.4831 0.573008 13
138 1 -5.20398 1.95511 -8.35602 21
139 1 12.6654 -7.4055 1.74925 14
140 1 -6.04232 -6.40691 4.27905 24
141 1 -14.2177 -0.954835 7.54821 13
142 1 -9.44837 -10.1212 6.40974 13
143 1 -14.4268 2.94095 1.44238 17
144 1 -2.48158 1.53924 2.23568 19
145 1 -2.48338 -14.9757 -0.812882 18
146 1 -0.352534 -4.14561 4.51764 20
147 1 -6.94941 -2.01246 -4.21741 21
148 1 4.86201 -7.6272 -2.91448 22
149 1 -4.27444 14.5084 3.2929 19
150 1 -7.24585 0.0506785 2.77497 21
151 1 -9.4114 -0.640973 -4.97733 21
152 1 -3.26117 13.3267 -7.65562 13
153 1 -14.3284 -6.86857 -5.58327 10
154 1 -11.8686 0.119837 9.55481 14
155 1 0.129046 -12.5962 2.79043 17
156 1 2.91947 -14.4654 7.51935 14
157 1 14.3483 2.35437 4.30777 14
158 1 5.13787 3.01643 -5.8539 19
159 1 6.77015 0.441558 10.7912 21
160 1 -4.9117 -3.59168 1.84522 19
161 1 -1.05249 8.14689 -13.8134 12
162 1 8.2996 -0.991408 -11.9066 17
163 1 -8.82321 -5.10832 -8.48924 20
164 1 -0.262137 13.9481 -8.43835 11
165 1 -6.72853 15.4009 -4.79501 6
166 1 7.34207 2.35909 8.30275 21
167 1 -4.04345 -5.47746 -11.5139 16
168 1 -5.51441 11.2261 -11.7141 13
169 1 0.989925 5.266 -9.98948 20
170 1 -0.802165 4.43369 3.99092 19
171 1 -8.62952 3.41937 7.13232 19
172 1 -6.13889 10.0696 9.80202 15
173 1 0.506175 -10.0666 -5.73366 22
174 1 -5.6402 -15.765 0.898424 15
175 1 9.06519 -14.0919 -1.14961 11
176 1 -3.02069 2.83463 5.92956 20
177 1 -4.61286 -0.708514 1.20067 22
178 1 2.12124 -6.47593 -2.12381 20
179 1 8.0881 12.2346 -8.05526 11
180 1 1.13921 11.31 -0.101382 21
181 1 -9.44942 1.06588 5.00078 19
182 1 0.290612 7.92168 11.6697 19
183 1 12.3057 1.70804 -1.78465 18
184 1 1.79522 9.60528 4.40762 21
185 1 -11.1349 9.67179 4.66882 13
186 1 -11.0372 -1.89678 -0.649971 21
187 1 8.3367 1.89275 -12.6373 15
188 1 2.82196 -2.49592 9.10234 22
189 1 10.0755 10.618 -9.81787 9
190 1 1.92816 -9.28393 -3.51426 23
191 1 -2.52901 0.662051 -11.5504 21
192 1 9.88083 -1.44764 -5.97717 19
193 1 -9.32089 -2.60215 5.80013 22
194 1 0.8194 -14.7127 0.217672 18
195 1 -11.1502 -6.88649 -10.352 13
196 1 5.35846 13.9242 -1.64482 14
197 1 3.29556 -5.25846 -16.5372 10
198 1 4.37998 2.03731 16.004 11
199 1 14.299 2.46621 1.0334 16
200 1 -4.11899 -7.86996 2.09282 19
201 1 7.92205 -6.13688 -8.42786 19
202 1 -0.161522 -7.30431 0.218488 18
203 1 -6.87102 -2.61462 -10.4576 19
204 1 -10.262 0.185018 -7.9818 18
205 1 9.41242 0.306147 8.4449 19
206 1 4.37319 -5.13945 8.31637 25
207 1 -5.80619 -8.58007 -12.0376 11
208 1 0.176171 -6.35994 5.6528 18
209 1 2.3561 7.75984 -13.197 13
210 1 2.89556 8.65468 1.05136 21
211 1 -6.95597 -8.18127 1.80908 18
212 1 3.42236 11.0296 2.57071 16
213 1 -6.85419 -0.245985 13.3712 15
214 1 -10.0974 -10.0961 -9.06443 14
215 1 -5.69249 -5.04521 -8.64441 20
216 1 -4.73514 -9.6326 -6.71371 20
217 1 -2.37625 -10.7015 2.15309 22
218 1 -5.12323 -6.77017 -0.657648 20
219 1 1.63052 -4.89643 2.84224 23
220 1 10.879 2.82861 4.0253 19
221 1 -4.06275 -7.89799 -3.01168 21
222 1 -9.70064 -1.13887 11.4623 17
223 1 -3.12056 -11.3041 -2.70502 20
224 1 1.09141 2.3677 -4.92738 21
225 1 -1.4214 -11.9521 -0.263275 21
226 1 0.730459 15.0395 -5.012 12
227 1 5.91433 2.40521 -14.4829 16
228 1 -1.91282 -3.65453 -15.007 12
229 1 5.75551 -6.02892 -0.594879 22
230 1 1.89013 -11.6564 -1.23764 22
231 1 -3.90559 -10.273 -9.71584 17
232 1 -10.024 3.12116 -8.04775 19
233 1 8.79853 5.75126 5.87361 21
234 1 -7.55283 4.79404 -9.22869 24
235 1 0.650412 8.59381 -10.8838 22
236 1 -4.3371 -3.24007 6.6002 20
237 1 -5.16952 14.2253 -2.45551 15
238 1 1.36732 13.1278 2.36956 18
239 1 9.70252 -0.629729 4.91104 20
240 1 -6.6785 -0.803237 6.49275 25
241 1 -4.00215 -7.36139 12.6825 12
242 1 -6.51998 11.3015 5.74561 19
243 1 4.04142 -5.11791 -13.3919 19
244 1 5.6649 -11.5905 0.28428 22
245 1 -0.203199 -1.00111 15.5937 10
246 1 -9.87671 -6.22999 6.49841 21
247 1 13.6265 -3.53005 -2.50852 19
248 1 7.75149 -2.88748 -9.11788 20
249 1 7.98265 -11.5978 -2.46146 22
250 1 -3.03628 -5.30491 4.18823 22
251 1 -7.41691 10.5291 -5.64148 21
252 1 -0.312362 1.57855 7.52148 18
253 1 10.1186 5.87245 11.0097 13
254 1 -11.6372 -0.652059 5.55757 24
255 1 7.17481 -9.08989 -4.20344 23
256 1 -4.4066 10.9983 2.37837 18
257 1 -6.9172 5.66 2.76679 21
258 1 -0.271997 1.31466 4.22278 20
259 1 3.62958 -11.598 7.51229 19
260 1 14.3412 -5.02394 3.14834 14
261 1 -2.55362 6.50812 5.86872 21
262 1 -7.91025 -4.80436 -5.74196 25
263 1 3.82387 -2.80763 3.62912 23
264 1 -0.393212 4.02621 13.9618 14
265 1 -1.75192 12.6418 1.97755 20
266 1 -5.3077 3.01226 -5.23453 23
267 1 -11.8733 2.89434 11.3069 11
268 1 -15.204 4.66769 4.00391 12
269 1 -4.82348 -2.92856 -6.53454 20
270 1 -7.81494 11.0021 1.13076 19
271 1 7.0375 -0.854477 7.23814 20
272 1 -8.98232 -14.1473 0.710745 12
273 1 6.6074 -6.70649 7.3645 17
274 1 -5.63801 3.08747 1.58033 22
275 1 -13.4696 8.83544 0.704372 13
276 1 -2.86486 -6.159 10.1248 20
277 1 3.19388 -12.2866 -4.6657 19
278 1 -4.23116 -1.18931 -9.51295 19
279 1 7.67457 -0.358461 -14.907 9
280 1 7.2442 14.1012 3.71704 14
281 1 -9.13535 -3.35379 -2.82312 19
282 1 4.72779 -8.06623 -12.3255 14
283 1 -3.49127 -15.1416 -6.78052 9
284 1 -13.074 -8.09912 -3.80866 14
285 1 -2.86865 -9.07953 -0.544446 23
286 1 -3.53625 -4.09184 -3.50053 18
287 1 11.8578 4.81134 -1.34713 19
288 1 -10.7672 4.49607 -10.7006 10
289 1 -13.5642 -3.50371 -6.32025 11
290 1 2.71763 0.779596 3.19596 23
291 1 -8.5926 9.25222 7.4839 17
292 1 -9.79175 13.444 0.689497 14
293 1 -8.23582 6.54602 5.52709 21
294 1 12.3588 -0.830506 -3.36681 21
295 1 11.1955 1.80728 -11.0878 14
296 1 2.57873 2.83167 5.43883 18
297 1 -3.01332 8.78603 0.156827 22
298 1 -0.0804311 -6.93913 -3.98842 19
299 1 -1.69045 9.42625 5.51368 22
300 1 4.34384 2.26625 -3.04447 21
301 1 -10.0357 2.65486 -4.92274 20
302 1 9.66273 -10.7139 -0.108938 19
303 1 12.8102 -1.29074 8.62556 16
304 1 -11.2724 -6.41442 -6.53676 21
305 1 -5.19684 -11.011 1.2676 20
306 1 -5.02308 12.7312 -0.0152521 20
307 1 -11.8403 -11.198 -3.35173 13
308 1 -10.1378 6.18055 -2.22102 21
309 1 1.57594 10.505 -8.56189 19
310 1 4.5478 12.878 7.57318 13
311 1 -11.4839 -5.61499 -2.14878 16
312 1 -1.44814 -9.64252 -8.00305 19
313 1 -11.7804 -2.80422 7.58338 21
314 1 -12.5877 7.21453 -4.92996 15
315 1 5.91878 -7.99167 4.68497 21
316 1 -4.54787 -15.9413 -3.61008 11
317 1 5.57102 7.74412 -12.3872 17
318 1 -12.0331 4.29485 -2.87483 20
319 1 -1.05481 -16.5182 2.35924 14
320 1 12.7898 4.55529 5.68878 14
321 1 -3.72963 -0.257361 7.4681 20
322 1 -15.5037 0.738218 -0.537913 10
323 1 2.65507 -0.167596 -1.56066 23
324 1 -5.55448 1.85584 7.64378 20
325 1 -3.58964 -13.0428 7.07921 15
326 1 -0.389985 -6.65856 -7.31457 21
327 1 7.18104 -8.98792 -10.5218 14
328 1 -0.392465 -1.58299 7.83278 19
329 1 -14.0206 1.65173 5.08534 15
330 1 -1.4035 -4.46195 7.57988 25
331 1 7.39151 -11.4747 -8.17733 13
332 1 0.03208 -9.10216 -13.564 13
333 1 -5.76128 -4.32522 9.51439 23
334 1 2.678 -6.36288 -5.73498 21
335 1 -6.01994 4.72188 -14.4467 10
336 1 3.09423 -11.3417 1.96067 19
337 1 -0.341297 9.76701 -6.12966 18
338 1 -3.92196 -0.544192 14.5954 15
339 1 -7.02767 -7.98198 6.91496 23
340 1 9.84553 -5.33629 7.27258 17
341 1 8.842 2.71237 -1.06554 19
342 1 -6.48653 2.23882 4.72899 21
343 1 3.27168 0.300799 -6.40113 21
344 1 10.6747 -2.18608 6.83138 21
345 1 -1.50963 5.98136 1.41178 17
346 1 13.6067 6.54982 -3.63969 11
347 1 -2.06346 0.293686 10.4762 18
348 1 3.53975 13.251 -3.52298 15
349 1 11.0046 -5.01826 1.58976 22
350 1 0.858427 -16.235 -3.84326 9
351 1 -2.50142 15.2385 5.94888 13
352 1 -7.82808 -10.9725 -6.38655 21
353 1 8.52409 8.4188 9.72608 17
354 1 -9.23479 1.8098 9.95708 17
355 1 -6.52843 -8.16715 -4.1246 21
356 1 -12.4575 5.33684 9.08543 12
357 1 -8.53941 -8.25694 -6.97499 21
358 1 -4.5158 13.1585 8.02419 16
359 1 -4.88714 -12.4555 -7.40939 18
360 1 0.567412 -6.19346 -15.9007 11
361 1 -6.74789 -13.3863 3.27961 17
362 1 -6.71331 -2.73617 4.06558 22
363 1 7.95016 2.56297 4.94001 20
364 1 -5.69042 -3.36524 14.1 10
365 1 -7.24901 5.73006 -11.786 18
366 1 8.14824 5.72635 -0.962181 22
367 1 -7.48514 -15.1641 -2.06213 13
368 1 -0.266008 4.46659 -6.98758 24
369 1 -0.119219 16.5204 0.118815 11
370 1 0.68995 7.60288 -7.99159 22
371 1 -3.17692 10.8724 10.0908 15
372 1 -12.405 1.05385 2.77227 18
373 1 2.8942 10.9877 -4.95538 17
374 1 -6.06292 -8.10365 -8.26496 21
375 1 -1.59549 -14.5346 -4.44628 15
376 1 0.413272 -0.514349 -12.836 20
377 1 -10.41 9.22748 1.72549 20
378 1 2.95903 4.82065 14.7511 11
379 1 10.6763 7.42082 -0.842482 18
380 1 1.15015 6.75452 2.72874 19
381 1 -8.30838 10.5016 -9.19577 14
382 1 3.42126 5.80374 -7.76045 22
383 1 2.43509 -8.0032 2.27928 18
384 1 -14.5639 -2.29039 -1.79763 11
385 1 3.38553 2.10956 0.528097 22
386 1 -1.64458 3.91187 -11.635 21
387 1 9.88543 9.26007 1.5177 21
388 1 7.8784 -6.16843 -3.05734 23
389 1 15.58 1.15992 -1.93647 13
390 1 0.387804 2.14048 -10.9942 23
391 1 0.682137 -9.99595 0.762749 18
392 1 1.27197 -12.4428 5.74367 21
393 1 1.55453 -9.47608 9.92666 18
394 1 -7.58465 1.66065 -6.94797 21
395 1 4.39646 5.73381 2.02114 20
396 1 -1.06961 -10.7847 -10.9645 14
397 1 1.43131 4.36668 -12.8305 16
398 1 4.30231 -2.75332 12.5299 17
399 1 -11.4959 -4.7226 1.3345 19
400 1 14.9129 -3.81426 -5.60431 12
401 1 11.2882 -3.982 -4.71257 24
402 1 -1.78599 4.13924 -4.12491 21
403 1 -7.985 7.80382 -4.35026 22
404 1 2.31428 -8.74966 -7.64201 16
405 1 5.60752 2.23844 -11.4688 20
406 1 10.2833 -0.428991 -8.55621 19
407 1 -8.59187 4.51274 10.9113 15
408 1 5.09422 15.1263 1.38492 13
409 1 -1.96758 -0.526982 -15.2036 13
410 1 3.61455 -5.14435 0.793304 19
411 1 -7.16252 -4.71241 6.72006 23
412 1 -3.35058 14.9379 0.494792 14
413 1 -8.51802 -1.27558 -12.7687 13
414 1 -14.3218 -1.92908 4.80366 15
415 1 -7.46032 -9.64823 9.11587 13
416 1 3.69533 8.85911 -6.93808 22
417 1 14.5636 3.88127 -3.01357 11
418 1 -10.4314 -13.9644 -2.23672 11
419 1 -0.627659 -9.51352 -2.18298 23
420 1 -6.14603 14.1498 5.81191 14
421 1 2.29602 -5.47784 -8.34631 20
422 1 -0.153309 3.81818 0.0278633 17
423 1 10.8207 -2.11019 -1.33158 22
424 1 5.59955 12.2029 -5.64124 15
425 1 3.6622 -8.96646 -0.463496 20
426 1 4.26218 -1.19642 -3.86766 19
427 1 -9.46874 -0.595355 7.80234 21
428 1 -5.5738 -3.33433 -0.647654 19
429 1 3.47592 12.2705 10.7645 9
430 1 2.19378 0.558648 -18.3349 5
431 1 -4.73754 -6.43359 -5.76508 21
432 1 -0.00831004 -3.72315 10.4034 20
433 1 9.72669 9.06393 7.01009 17
434 1 5.73617 7.79866 -8.96368 20
435 1 -6.63603 13.2971 -7.42681 10
436 1 0.247019 11.4952 -3.12717 17
437 1 11.6565 -1.73452 11.7916 11
438 1 8.47168 2.42765 -9.76044 23
439 1 -12.7947 -7.19478 0.526581 11
440 1 0.530146 1.72887 12.4838 20
441 1 -2.3961 12.1105 -10.7112 16
442 1 4.90181 -10.6687 -2.7765 23
443 1 2.7176 0.32525 -10.4976 21
444 1 -2.03225 13.1271 -4.20487 16
445 1 -7.28358 -5.0939 -11.4144 15
446 1 5.84283 -13.0072 2.89058 16
447 1 -15.2723 -5.13179 -3.87916 7
448 1 -7.22687 1.29546 -3.92868 23
449 1 -10.2742 -4.83951 11.1101 14
450 1 5.15005 7.32146 -1.06965 20
451 1 1.58455 -12.0428 -9.07838 13
452 1 3.52872 -7.98216 12.1285 12
453 1 6.75284 -0.0472501 -3.81807 17
454 1 -2.0318 -1.92385 1.87209 20
455 1 -9.86068 5.62239 2.6994 18
456 1 9.7318 -6.95776 -5.58022 23
457 1 2.67737 10.3241 12.344 11
458 1 -2.26732 2.46809 -8.94387 19
459 1 4.32981 14.9451 4.65573 14
460 1 9.88115 4.82683 -11.4744 14
461 1 -0.822893 -5.82885 -13.1146 17
462 1 -2.70242 -11.8823 -5.64837 21
463 1 -10.0621 -4.48702 -11.6246 12
464 1 10.9629 2.62895 1.00681 20
465 1 13.6344 1.57199 -4.72318 16
466 1 9.60599 -8.57331 -7.87722 16
467 1 4.28707 -9.22271 -5.5472 21
468 1 8.36662 14.4305 0.339211 11
469 1 -8.53871 2.7724 2.04717 19
470 1 8.94777 5.5426 -4.15908 18
471 1 15.9962 -1.75172 3.16196 11
472 1 12.3081 4.1082 -9.29125 11
473 1 7.79835 3.36214 11.9899 17
474 1 1.70825 -6.27213 8.53841 22
475 1 5.41664 2.51023 2.844 19
476 1 2.8733 -0.308998 14.2187 15
477 1 13.0037 -1.19305 -6.22896 17
478 1 7.6387 5.3667 9.00943 21
479 1 -7.22193 -1.80996 -7.5536 21
480 1 12.5988 4.9404 2.47872 18
481 1 8.9472 -4.39483 -0.165816 22
482 1 -1.89249 -5.89443 -1.86534 23
483 1 10.1086 2.53455 10.4328 17
484 1 1.37924 6.83266 9.26112 20
485 1 5.53089 4.14737 6.68095 20
486 1 -8.69804 8.48948 -0.78417 18
487 1 10.7616 9.77105 -6.72617 14
488 1 8.94177 -3.40207 -13.8185 12
489 1 2.8059 16.4061 -2.51805 10
490 1 -1.3012 -13.0088 -8.25207 13
491 1 -14.2147 4.56789 6.91575 11
492 1 -5.4052 7.95595 -9.93686 25
493 1 -4.04435 -15.0038 3.86918 12
494 1 -5.345 3.00386 -11.7613 20
495 1 -12.6129 -0.341058 -5.87511 13
496 1 11.8457 -6.10482 4.58801 16
497 1 11.5747 10.3669 4.01125 13
498 1 1.0747 -9.14995 6.7498 20
499 1 -10.6834 -3.04957 -6.65751 17
500 1 0.660347 0.889031 0.516418 21
501 1 2.24851 -3.81117 6.30689 22
502 1 -2.49313 6.80784 13.7803 10
503 1 7.06161 10.7879 -11.3519 11
504 1 8.80462 7.69388 -7.27669 21
505 1 5.66401 0.771904 -1.13684 22
506 1 4.39608 -13.0377 -7.69192 13
507 1 12.3037 -2.42746 3.69286 22
508 1 9.64667 12.3575 2.80821 14
509 1 12.6123 -3.21411 0.318595 20
510 1 -6.21676 4.2043 9.37757 18
511 1 -10.0796 -1.43161 2.79575 22
512 1 -10.2166 1.20124 -10.6945 14
513 1 9.33284 0.0563088 12.2526 13
514 1 -4.38612 -10.5143 10.6545 11
515 1 6.69631 6.47593 12.128 16
516 1 -6.7718 10.604 -2.23833 20
517 1 8.05386 3.69826 1.48006 22
518 1 5.67457 -2.59788 -0.883301 21
519 1 6.91506 5.46604 3.74007 22
520 1 2.01053 -0.477464 -15.0507 19
521 1 -8.48712 -2.87409 9.24787 20
522 1 6.63998 -0.334293 -9.72992 18
523 1 -2.33125 -5.13107 -5.86854 19
524 1 12.0951 -9.311 -5.52078 13
525 1 2.43038 9.44733 9.78989 22
526 1 3.37463 6.35397 4.71098 19
527 1 11.5162 7.2002 4.89575 17
528 1 0.98291 -3.02564 13.4845 14
529 1 -3.50438 6.67744 9.13747 17
530 1 1.53564 -3.99481 -14.2458 21
531 1 -5.00788 1.95162 11.1744 18
532 1 -5.80148 3.96465 -1.5545 24
533 1 6.22927 3.53316 14.3308 8
534 1 13.2413 9.10552 -1.04111 13
535 1 6.1953 -12.3444 -5.0067 19
536 1 -4.53782 5.69749 -4.11722 22
537 1 11.8746 10.7127 -3.01516 11
538 1 8.96776 12.0856 6.01664 11
539 1 -1.72933 -1.68421 5.08988 18
540 1 6.49109 11.2095 -2.50047 18
541 1 12.7012 8.0561 1.92323 16
542 1 0.162695 -3.87544 -4.02217 25
543 1 -6.114 -10.4265 -1.81123 19
544 1 0.854877 -2.45698 -16.5304 13
545 1 -11.6941 12.4508 -1.13578 10
546 1 7.02834 -6.05489 -12.3034 15
547 1 2.79389 5.79238 -1.02174 18
548 1 11.1736 7.47807 -9.60646 13
549 1 9.36449 10.5376 -4.58961 16
550 1 -3.86861 4.22604 3.91331 18
551 1 -7.79906 5.58735 -0.074419 21
552 1 5.55205 5.31538 -3.15872 21
553 1 -1.32672 -11.1708 8.46017 20
554 1 -5.87785 8.17627 -13.0134 11
555 1 1.36904 13.3452 8.34774 13
556 1 2.9076 0.577509 8.32788 19
557 1 9.14493 13.3363 -3.07927 8
558 1 5.68335 11.7361 5.03365 18
559 1 -4.65659 -0.885067 -2.20436 23
560 1 13.1368 -6.40888 -3.84477 18
561 1 -12.2833 -5.62276 8.98359 11
562 1 3.10271 -15.3338 -1.495 14
563 1 2.77833 -2.38595 -12.2789 21
564 1 -0.924732 4.84387 7.70562 19
565 1 5.5953 -4.25526 -3.53356 18
566 1 2.50075 12.1676 5.47136 21
567 1 -14.4577 -4.43467 6.3221 10
568 1 6.5214 -15.3729 0.372051 14
569 1 7.69271 8.0583 -4.30078 19
570 1 2.95926 -6.17418 5.03044 22
571 1 -3.62735 7.58896 3.06881 18
572 1 5.83685 -3.205 -14.5245 14
573 1 1.30143 -12.3894 9.5276 12
574 1 2.47035 14.4854 -0.379399 18
575 1 -1.99162 1.2662 15.1606 13
576 1 -2.66945 -2.79914 -0.99746 24
577 1 -8.44891 -7.84377 -10.3365 16
578 1 5.12696 -4.21345 -7.961 19
579 1 2.93182 -1.79236 0.908285 22
580 1 -1.77634 12.113 7.69717 21
581 1 4.33852 -10.2839 -9.38382 17
582 1 3.95236 -8.42775 7.58288 23
583 1 0.94632 -13.7301 -6.10674 17
584 1 -12.4918 -2.53095 10.6027 12
585 1 0.403775 0.929227 -7.65316 20
586 1 -5.92556 -11.8877 -4.39614 19
587 1 0.21099 -1.59011 -1.41841 22
588 1 -11.4617 2.24645 7.414 18
589 1 12.8341 4.46953 -6.09988 12
590 1 -5.6045 4.79054 6.50957 20
591 1 -12.2942 7.18055 3.94696 19
592 1 9.56786 -2.30804 2.3263 22
593 1 -1.19659 9.1567 -2.73966 20
594 1 7.81673 0.863763 -6.68102 21
595 1 1.17765 -1.65914 2.91975 18
596 1 7.72836 2.90955 -3.54838 21
597 1 -14.6482 1.4906 -3.62619 13
598 1 -12.657 -8.25462 -7.90664 12
599 1 3.32076 7.83369 -10.1041 22
600 1 -2.86964 -2.41223 9.54305 20
601 1 -4.45752 -6.34891 7.25368 21
602 1 2.13089 -6.22557 -11.4685 19
603 1 -5.21175 7.24212 -1.63761 22
604 1 4.03681 9.40781 6.98225 18
605 1 -11.8511 -3.94776 4.4923 22
606 1 8.37415 7.66171 -10.8035 18
607 1 -0.257012 -17.3481 -0.500935 10
608 1 4.0899 4.77565 -10.4115 22
609 1 -3.71727 2.24928 -14.218 14
610 1 -1.4187 -1.37435 12.7445 17
611 1 -0.128125 2.42618 -14.5736 18
612 1 -11.6421 -2.13851 -3.67003 17
613 1 8.13039 -0.939566 -0.0545787 21
614 1 -7.80694 -7.85568 -1.26182 19
615 1 11.9984 6.92676 -6.80801 13
616 1 9.13609 -7.35116 0.0485484 22
617 1 -7.69116 7.23242 10.6334 17
618 1 5.13255 -6.7479 2.14287 18
619 1 13.8646 -5.78989 -0.247253 14
620 1 9.51108 -2.31354 9.81987 24
621 1 0.712351 10.1945 7.26271 23
622 1 -9.28815 6.11649 8.29423 20
623 1 -4.40123 -9.82723 7.27246 22
624 1 8.42463 0.730941 2.3037 20
625 1 5.75387 9.47022 11.2801 15
626 1 -15.961 -2.72253 0.629842 7
627 1 10.0665 -8.52221 -2.8367 23
628 1 1.84516 2.83793 -1.82741 19
629 1 5.05641 8.45993 3.89128 20
630 1 6.30541 -0.161786 14.0282 14
631 1 -3.54009 12.586 5.40736 21
632 1 3.07047 -9.66476 5.00467 15
633 1 -8.08737 -1.01919 -1.58976 23
634 1 4.62988 2.93003 9.71965 17
635 1 4.75633 10.4164 -0.741154 16
636 1 -9.89902 -11.191 3.13369 14
637 1 7.57961 -3.91948 7.55314 18
638 1 11.8356 -4.28373 9.50588 13
639 1 6.2844 7.18203 6.7217 23
640 1 -2.10714 6.16984 -1.5393 20
641 1 -0.577348 -7.61418 -10.6849 19
642 1 -4.2021 5.16267 -9.55247 18
643 1 -5.29494 2.54077 14.3582 11
644 1 -0.92624 15.3166 3.20412 15
645 1 13.6591 -0.0298163 2.32027 17
646 1 1.5027 7.3797 -5.23678 22
647 1 -5.32598 8.63674 12.5186 12
648 1 10.9895 6.50707 8.10347 16
649 1 5.35038 -2.91686 -11.2786 16
650 1 -5.38512 -13.2134 -0.938751 19
651 1 -4.96871 0.10987 -5.50278 22
652 1 13.511 -0.648137 5.74463 14
653 1 2.65892 -2.64746 -9.03195 20
654 1 -2.17152 -8.87152 -5.07271 20
655 1 15.1216 -1.71656 -0.351757 15
656 1 0.215714 -7.07441 10.9217 17
657 1 -2.85113 -8.5405 -12.8078 11
658 1 -2.7024 0.511873 -0.352651 21
659 1 9.16122 11.2538 -0.502405 18
660 1 -0.869136 -7.81574 3.1616 21
661 1 -14.3272 7.32508 6.03955 8
662 1 8.40262 4.06458 -6.47633 17
663 1 2.60298 -8.24424 -14.7851 12
664 1 -9.10928 11.9995 4.04223 16
665 1 2.80942 2.99802 -15.9668 12
666 1 10.7813 -5.60926 -2.33053 23
667 1 -12.6894 0.256365 -0.479021 20
668 1 9.87938 6.04976 2.30389 23
669 1 -11.1426 -11.7696 0.140918 13
670 1 4.83104 7.07747 9.4602 21
671 1 -10.5263 -2.04261 -10.1012 16
672 1 -11.4215 8.25541 7.31439 14
673 1 -3.56741 4.77483 -7.06455 22
674 1 10.0717 -4.39117 -8.07322 17
675 1 -11.163 -9.82571 -5.7325 18
676 1 11.7469 -8.60185 -0.762927 16
677 1 -15.2612 6.13131 1.17547 14
678 1 -6.57446 -5.35695 -3.06735 20
679 1 -6.89908 -10.279 4.33136 23
680 1 13.3956 -4.10806 6.21962 16
681 1 9.09036 -3.90236 4.36397 21
682 1 -12.3673 4.325 3.22992 19
683 1 -1.05419 8.62285 8.52716 23
684 1 3.55307 10.4139 -11.5589 14
685 1 -6.85457 13.337 2.97928 17
686 1 6.9528 9.55375 -6.40694 22
687 1 -2.30463 9.8913 12.6437 9
688 1 5.8406 -7.59145 10.4334 14
689 1 4.99515 11.1202 -8.77082 19
690 1 0.582289 -4.34784 -0.641163 21
691 1 -4.60169 -1.77274 11.6914 18
692 1 -2.3103 -2.13565 -11.8068 17
693 1 -15.1034 3.94528 -1.49807 15
694 1 -4.34482 -11.9659 4.5059 23
695 1 4.55977 -2.26482 6.53003 23
696 1 -3.69904 -17.6733 -0.822569 7
697 1 -13.8446 6.54818 -2.05506 17
698 1 11.1689 -1.74858 -11.279 10
699 1 -8.25266 8.75825 3.79511 19
700 1 -6.89412 -0.742363 9.78107 21
701 1 -2.39528 -0.860257 -3.84419 20
702 1 -7.0985 -11.1161 -9.43919 13
703 1 0.00848071 -12.436 -3.59405 20
704 1 8.60278 -12.9417 2.00516 10
705 1 -0.30532 10.7536 -12.8695 11
706 1 11.1717 1.84117 -7.6656 19
707 1 7.13739 7.43949 1.68252 20
708 1 11.3724 -0.362287 0.455168 18
709 1 -2.48981 5.04458 -14.7054 10
710 1 -1.46106 -10.629 5.32328 20
711 1 4.96966 8.74423 -4.20421 18
712 1 5.37406 1.9862 -8.6443 21
713 1 -11.5636 3.18107 0.429856 20
714 1 2.47217 4.41841 -4.99816 17
715 1 -8.63537 -6.49731 9.38237 18
716 1 6.80956 10.4181 8.15647 17
717 1 2.05649 -16.9057 2.39902 10
718 1 2.55093 9.02059 -2.6754 23
719 1 -6.01354 7.28179 7.95927 18
720 1 -8.93085 1.69457 12.8755 10
721 1 9.61838 0.22162 -3.19223 20
722 1 -1.63497 -4.99211 1.35159 19
723 1 -7.295 -6.25805 12.6339 10
724 1 3.10338 -14.1949 4.35214 15
725 1 -4.34742 -0.455197 4.0393 19
726 1 10.1392 3.66267 7.25759 18
727 1 7.66226 -4.06077 -6.09437 21
728 1 -8.17971 2.61314 -12.2819 16
729 1 0.0447648 -3.0561 -7.08049 19
730 1 -7.08754 8.17991 -7.32298 21
731 1 -14.4171 4.73768 -4.89473 12
732 1 6.6806 10.633 1.91238 20
733 1 0.641748 6.74204 6.17816 19
734 1 -9.03368 -13.2353 -4.64535 13
735 1 -3.92733 1.53833 -3.18098 22
736 1 0.218996 8.25678 -0.491489 21
737 1 12.7135 0.724824 10.6634 12
738 1 -3.29163 -8.57919 4.79823 19
739 1 9.44203 -4.37648 -11.2902 13
740 1 6.99375 -8.92748 -1.02393 24
741 1 2.86608 1.85297 -12.9443 21
742 1 -3.55475 6.19684 -12.3743 20
743 1 -8.79121 -4.96281 -0.41412 18
744 1 -7.59857 4.81475 -3.45285 22
745 1 -5.47065 5.0713 12.3823 15
746 1 8.42005 -5.66424 10.1153 15
747 1 -9.39998 -5.1166 3.5659 23
748 1 16.5067 0.734059 1.58691 10
749 1 -1.77323 6.62727 -9.54207 21
750 1 14.2388 5.88418 -0.087406 14
751 2 -6.24303 -1.13539 -9.36774 19
752 2 -4.53655 10.7217 -4.52865 20
753 2 1.43065 0.924599 -11.9985 22
754 2 -5.13595 5.69253 8.49177 19
755 2 -8.33083 -7.00131 -8.36533 24
756 2 3.03462 -0.62328 9.84326 17
757 2 -11.6032 -8.52893 0.0998227 13
758 2 -13.5515 4.24714 -6.64326 13
759 2 2.8889 15.7383 4.10822 14
760 2 -13.6914 -0.210597 5.94701 15
761 2 10.803 4.18337 2.02028 20
762 2 1.38259 -4.80652 4.81559 20
763 2 -3.00135 -0.140425 -5.59151 20
764 2 -11.2203 -9.51007 -7.71455 15
765 2 -11.6066 4.73033 1.56283 19
766 2 -0.669998 -9.61265 7.08121 22
767 2 4.16762 -3.83233 9.68842 21
768 2 7.16143 -2.16822 -10.8734 18
769 2 3.02759 -15.3377 2.23168 16
770 2 6.46326 0.5052 2.8605 22
771 2 -5.51807 9.06877 -2.66379 21
772 2 -13.8858 1.02911 -5.34132 11
773 2 12.4995 6.66491 3.30691 16
774 2 8.63485 -10.3694 -7.31455 16
775 2 0.0174316 -6.78231 -1.89999 21
776 2 -7.87979 -12.8987 1.93816 17
777 2 -10.2925 -5.87617 8.48781 17
778 2 -2.16531 -14.9276 3.00033 17
779 2 9.29058 -3.68867 6.26573 21
780 2 0.204067 -14.8776 -4.78811 13
781 2 4.53153 -1.23287 13.7322 15
782 2 1.40134 12.5217 -8.83989 12
783 2 -11.3305 -10.8464 -1.38439 13
784 2 1.28989 3.75669 14.8504 14
785 2 -10.8439 8.34406 3.35773 19
786 2 -0.44608 0.727886 16.1167 12
787 2 -8.95609 7.70195 -2.61694 24
788 2 7.41825 -11.5242 3.03026 17
789 2 -5.29373 9.04949 8.6291 21
790 2 -3.03068 5.73248 2.71319 24
791 2 0.462013 14.226 -6.67589 12
792 2 5.04647 0.314791 -2.8232 17
793 2 7.57012 -7.06971 -1.24288 20
794 2 -0.741228 2.24553 -7.33465 22
795 2 0.939526 -3.82756 -8.67683 20
796 2 -1.69476 -4.91264 -3.75476 20
797 2 9.03383 -5.50478 -6.7119 21
798 2 -6.861 8.81519 11.2222 11
799 2 -1.95947 -6.98968 1.67954 21
800 2 2.53713 5.96755 -13.0497 16
801 2 -4.88882 9.67317 -13.109 13
802 2 11.2388 9.95116 -4.71304 13
803 2 -5.70545 -1.33543 14.4565 13
804 2 -10.7615 11.3738 3.95522 14
805 2 8.67351 0.071702 -13.3965 15
806 2 0.854335 -11.0749 -11.0084 14
807 2 -10.4804 -8.23195 3.14178 18
808 2 11.9437 9.80441 2.16809 15
809 2 -1.60724 7.93298 1.24386 19
810 2 -3.94706 -8.93032 -8.3715 20
811 2 -4.36474 14.4785 5.24089 15
812 2 4.60269 -9.13355 10.8524 12
813 2 10.7352 -3.48318 -0.105557 23
814 2 -12.9366 1.8007 0.827867 18
815 2 3.74497 -2.49307 -0.866507 23
816 2 -1.38375 1.72828 0.541418 21
817 2 9.78526 -12.6217 -2.50701 12
818 2 7.6548 -11.1006 -4.24179 20
819 2 5.73855 6.81206 3.02894 18
820 2 5.28154 -13.4476 4.56109 15
821 2 13.2697 -4.86664 4.55101 14
822 2 -4.77016 3.3563 12.4632 15
823 2 12.8498 -5.54826 -2.06616 17
824 2 -0.242139 8.58966 6.67284 20
825 2 11.6584 5.8303 9.79221 12
826 2 -9.36384 6.42902 11.3845 11
827 2 4.54402 7.79901 5.78927 19
828 2 13.3752 -7.6093 -0.162084 12
829 2 1.74068 5.82049 -4.1073 21
830 2 -8.90877 -0.0400867 -11.4624 15
831 2 -5.62821 0.0572901 11.1393 18
832 2 3.46648 -1.85976 -7.33226 21
833 2 -8.47364 1.26537 -8.60848 20
834 2 -15.2061 3.2866 5.14428 10
835 2 -8.38945 -8.19814 0.424096 20
836 2 15.6122 -0.97264 1.38152 15
837 2 1.71106 -7.69731 5.39665 21
838 2 1.40138 -1.64303 14.5666 14
839 2 7.39972 -2.28022 -14.8131 13
840 2 5.99031 1.64011 14.7719 10
841 2 -1.38957 7.95849 12.696 11
842 2 -8.06866 2.00467 3.69538 17
843 2 6.22348 -8.81406 -5.86555 23
844 2 8.41462 -0.298794 -5.04539 22
845 2 -11.6467 12.8432 0.688445 10
846 2 -3.01569 -10.9034 -0.874108 22
847 2 11.0516 -8.02217 -6.67595 15
848 2 5.14893 -0.617587 -5.42643 18
849 2 3.13566 6.33655 9.9652 17
850 2 8.65757 -7.85189 -4.21323 23
851 2 6.12532 -2.48936 7.81533 19
852 2 -4.36862 -7.29128 4.029 21
853 2 12.3669 1.14039 1.27299 20
854 2 2.80807 -1.13775 4.09446 21
855 2 -10.0753 -10.8703 1.36018 14
856 2 9.92026 8.7475 -10.6371 12
857 2 -0.532073 -11.5258 1.42381 20
858 2 13.8709 -2.77956 -7.00138 12
859 2 2.54193 -15.6193 -3.29822 12
860 2 9.26691 -5.76589 1.44021 21
861 2 -0.588274 -0.853474 -3.25188 19
862 2 -5.74569 14.9169 2.24574 14
863 2 11.8507 2.32951 -9.42496 13
864 2 1.44348 -5.62915 -4.33507 21
865 2 -3.62778 -5.37797 -9.59628 18
866 2 -7.8152 -6.98634 3.20874 22
867 2 -3.74179 -9.50462 1.21281 21
868 2 -5.91721 -7.84004 -2.13755 17
869 2 -7.52798 13.0105 4.8547 15
870 2 -12.3033 10.0875 1.5426 14