ITEM: TIMESTEP
6000
ITEM: NUMBER OF ATOMS
1500
ITEM: BOX BOUNDS pp pp pp
-30.0 30.0
-30.0 30.0
-30.0 30.0
ITEM: ATOMS id type x y z Coordination
1 1 -1.51985 -8.54817 -10.5426 18
2 1 9.69646 -10.6909 6.96477 12
3 1 -9.9846 9.14203 2.07888 20
4 1 -11.5657 3.08187 -8.74293 14
5 1 -1.1303 -7.28825 8.89766 20
6 1 -7.38537 0.0563398 -7.50588 22
7 1 -3.60126 5.56636 -4.38081 20
8 1 -1.52579 -15.3853 2.60408 12
9 1 -12.4871 -8.19039 5.78781 12
10 1 -1.77651 0.435501 13.6759 15
11 1 6.73852 -7.48703 6.2724 22
12 1 -0.139316 3.95562 10.1883 22
13 1 6.23146 -0.35996 2.31511 20
14 1 -3.19039 9.28596 -9.19984 17
15 1 1.44113 -0.996798 9.59113 22
16 1 13.8531 5.94017 7.22526 10
17 1 2.79451 9.08843 -11.5569 17
18 1 2.06797 6.88958 -9.42146 20
19 1 -8.63315 1.92341 1.84234 18
20 1 -1.74951 -3.51384 -8.61447 21
21 1 7.5103 -12.5218 5.0093 15
22 1 0.629609 0.658414 7.04784 21
23 1 9.95587 -13.1064 0.743324 17
24 1 -7.33627 -12.504 -3.81955 15
25 1 4.74503 -2.73464 -3.42086 18
26 1 3.99907 -8.31765 -12.8237 16
27 1 0.33668 3.10365 13.3027 17
28 1 -0.464824 -12.5323 7.79321 14
29 1 5.65326 -3.15297 12.7058 12
30 1 -11.3533 -1.51761 5.29646 18
31 1 -7.18188 -0.655832 -3.57452 20
32 1 -6.85418 10.8199 -1.37754 19
33 1 0.0594322 3.76321 -8.58841 17
34 1 7.05826 -9.52996 -11.1196 8
35 1 -1.2735 -5.28907 12.2074 14
36 1 -12.3944 0.895528 -1.61626 20
37 1 1.42604 13.0021 10.7953 9
38 1 -8.34728 9.1401 -3.90963 18
39 1 -2.43478 14.9345 -4.38138 13
40 1 1.6621 -14.0656 3.0746 20
41 1 5.87256 -6.87517 -4.82428 18
42 1 -9.85074 3.32494 11.6044 11
43 1 -12.974 -3.63066 -9.53219 14
44 1 6.58694 2.21484 4.05676 20
45 1 -9.87001 9.31088 -1.5006 18
46 1 -11.7712 -8.67776 9.37596 8
47 1 -11.0908 7.28004 -6.70483 12
48 1 0.999223 7.3171 -5.34865 15
49 1 1.7621 4.61228 3.88164 20
50 1 3.09814 6.70272 7.73667 22
51 1 7.0053 -16.3857 -4.32498 8
52 1 3.90391 6.59783 11.4621 16
53 1 11.7011 -7.25256 -12.5999 6
54 1 9.80534 -13.7376 4.01927 10
55 1 -9.91147 -3.41558 2.28827 20
56 1 7.08924 -0.415091 11.6519 17
57 1 -7.84306 -12.1468 6.10114 9
58 1 -9.64991 0.196834 0.434708 18
59 1 12.6425 -1.16461 3.66066 20
60 1 7.26775 -3.95149 -4.60372 18
61 1 -1.927 12.5457 10.0907 9
62 1 5.22127 -4.46845 6.71807 18
63 1 -8.45246 -5.31214 0.701521 15
64 1 -2.62045 -5.72888 -10.579 18
65 1 -8.84577 11.5562 0.967472 18
66 1 -2.39179 4.16209 -6.5921 16
67 1 6.37537 -0.420609 -3.2737 23
68 1 4.54173 -1.13458 -6.28039 21
69 1 8.67155 -9.74137 1.5212 22
70 1 6.0478 -9.06067 11.9637 12
71 1 -6.68922 13.7869 -1.5699 13
72 1 -12.7089 11.6681 5.13474 9
73 1 -1.14179 7.30496 3.86726 19
74 1 -6.12179 -3.5495 9.14617 21
75 1 12.1964 -11.2817 -8.89252 5
76 1 -11.5109 4.72141 4.00298 20
77 1 9.08088 -6.43367 -4.06051 18
78 1 5.56571 0.421807 -12.4889 17
79 1 -4.23755 -2.12549 -16.506 9
80 1 4.59329 -0.891975 4.83621 22
81 1 -3.17829 14.7886 1.75037 20
82 1 -6.6527 6.32752 -4.44885 17
83 1 -2.02049 15.0528 -7.71438 9
84 1 0.117709 12.7022 1.43627 19
85 1 -4.76177 -8.26636 7.99397 19
86 1 0.592326 -4.53958 -10.7073 20
87 1 4.42722 -5.81176 -7.03795 18
88 1 -0.179282 5.75983 7.90581 19
89 1 -11.1255 -5.94995 -4.50756 18
90 1 7.20238 -4.73307 1.74303 17
91 1 -8.49896 -9.32598 -4.29042 18
92 1 10.12 -10.6675 3.78436 21
93 1 -5.04537 4.93934 -1.46566 21
94 1 10.9023 1.98618 -10.7129 16
95 1 -3.47041 5.83767 1.43203 20
96 1 4.0699 9.35132 -7.89878 17
97 1 11.2734 -11.4733 -1.43798 13
98 1 4.86647 -14.2991 3.92795 18
99 1 -8.69443 -9.77458 1.17136 17
100 1 -15.7059 -6.26526 1.95999 11
101 1 11.9517 7.30782 4.13529 11
102 1 4.91032 5.06873 -0.419138 17
103 1 -7.05619 10.7573 8.73312 11
104 1 -7.32962 13.4001 -7.39137 11
105 1 1.98255 -5.78941 -13.1005 17
106 1 8.54339 -3.4741 11.1299 16
107 1 -5.1814 8.31706 -5.11215 18
108 1 8.10912 -1.28111 -5.129 20
109 1 -11.055 9.47311 -4.33605 12
110 1 -5.70482 15.6092 1.03 12
111 1 8.21121 2.50996 -8.88117 21
112 1 9.72877 -7.99106 4.80505 19
113 1 -5.44687 4.46933 -9.9771 17
114 1 3.86786 11.6961 -2.77039 19
115 1 10.1677 10.3705 -0.535386 14
116 1 -3.54254 11.2376 -5.24147 20
117 1 -4.62442 -4.43882 -11.8814 17
118 1 -1.69505 16.2754 4.18176 10
119 1 -10.2241 -4.36293 -6.85935 20
120 1 15.0826 -0.951231 -2.33197 12
121 1 -1.80215 8.12413 7.26715 19
122 1 -1.90488 12.3645 -9.1093 17
123 1 4.72136 -5.90036 11.02 16
124 1 -12.5562 -5.45472 4.15793 15
125 1 -3.06173 -9.81456 4.03276 19
126 1 4.05881 -15.3177 -4.69849 13
127 1 -3.42581 10.0533 -11.9569 13
128 1 3.12719 9.3053 -1.42629 17
129 1 13.1551 8.14645 -8.62113 7
130 1 1.18224 -8.92893 8.37205 21
131 1 -9.35219 1.87759 -1.79674 18
132 1 0.980437 15.7888 2.22275 17
133 1 -2.63868 6.74328 9.92246 21
134 1 -7.06305 13.2679 3.14995 12
135 1 -3.76023 -0.597779 -8.5664 21
136 1 12.2936 -11.9373 2.23019 9
137 1 -5.37492 -7.14726 4.86246 19
138 1 -15.1602 -4.21288 4.68491 10
139 1 -8.87794 -9.617 4.64907 15
140 1 -15.5665 -3.25725 -4.2536 16
141 1 -1.30545 -15.5543 -1.76565 15
142 1 -6.13459 -4.92407 -0.717404 20
143 1 0.718433 -8.5013 -3.13413 20
144 1 -2.22313 9.95834 4.65789 19
145 1 -6.64794 0.245776 2.02533 20
146 1 -9.0325 -1.51987 -5.41909 19
147 1 -5.83092 10.2171 -7.26898 17
148 1 -16.1833 -3.36715 -7.24984 10
149 1 -10.2531 -1.99712 10.5602 15
150 1 -0.470267 -11.1893 2.46961 22
151 1 5.06387 -13.3374 7.47067 13
152 1 13.4531 0.334256 5.73448 15
153 1 7.65092 2.27427 -4.36395 20
154 1 4.89556 1.75875 10.43 20
155 1 -0.189194 5.64608 -11.0294 18
156 1 9.42838 -0.423233 -12.382 16
157 1 -5.63588 -5.42791 -5.82026 21
158 1 -4.70964 13.2646 -6.80587 14
159 1 -6.43167 13.7591 -4.20637 15
160 1 8.4739 -3.16479 7.41405 20
161 1 -1.33152 -5.26824 -13.6178 20
162 1 -5.2791 12.1103 -9.71277 9
163 1 3.54045 8.51248 -5.00257 20
164 1 -7.86788 5.51198 9.78454 17
165 1 -8.39062 8.03461 7.9531 14
166 1 1.54991 -9.70275 -8.95194 18
167 1 -5.09549 -13.3354 0.633561 14
168 1 8.45503 -11.6724 -0.982058 19
169 1 -2.01508 -10.5209 -4.34525 20
170 1 6.83618 8.55509 -5.94842 19
171 1 0.15955 11.4375 -0.937793 18
172 1 -9.71827 2.06418 4.74758 21
173 1 -0.124307 6.47121 11.7441 16
174 1 13.3488 -1.45944 -4.09149 19
175 1 4.45184 6.96021 5.09354 19
176 1 -13.1432 7.84616 4.17863 9
177 1 -14.3363 -7.77064 -6.16058 11
178 1 7.95008 6.37882 -7.64228 20
179 1 5.62675 -1.19797 8.3897 19
180 1 7.59912 10.0237 -12.2635 8
181 1 2.87048 -13.3366 -2.30862 20
182 1 -2.87609 0.543329 -11.5502 21
183 1 7.63248 -1.00347 -10.173 20
184 1 -8.94298 -2.83023 7.40951 18
185 1 4.50225 -16.232 -1.63564 16
186 1 -7.86655 -5.95037 -9.04227 19
187 1 3.89886 14.7959 -2.9124 15
188 1 0.55466 -2.98868 -13.5032 22
189 1 6.29415 4.17526 12.3351 17
190 1 14.8582 1.16521 0.273141 13
191 1 -4.59225 -8.18449 -1.06324 19
192 1 13.1851 -8.10541 -9.5405 9
193 1 -1.30476 -8.47635 1.35149 22
194 1 -7.4075 -3.45913 -11.0495 17
195 1 -9.78145 1.27823 -6.18052 20
196 1 11.8676 -0.676324 8.6066 14
197 1 3.44358 -4.14732 9.37165 17
198 1 -4.61916 -8.40741 -10.9467 15
199 1 1.48314 -5.83203 5.0549 12
200 1 4.14774 6.22947 -13.1724 14
201 1 6.79936 8.31033 3.42578 16
202 1 -6.5346 -5.17323 2.98773 19
203 1 1.75078 13.2841 4.88395 15
204 1 -9.34621 -6.7801 12.1202 11
205 1 -9.73299 -8.49361 -10.322 13
206 1 -4.5065 -3.77918 -8.93375 24
207 1 -1.00378 -9.75676 -7.70864 21
208 1 -4.01703 -10.3632 1.45348 23
209 1 10.9395 1.41928 3.90755 17
210 1 -3.32246 -7.23419 -4.19479 19
211 1 -11.8122 -4.7845 10.4665 11
212 1 -4.1742 -14.9373 -3.20882 10
213 1 -1.94466 -13.1782 0.151308 21
214 1 -1.56943 16.8436 0.669975 12
215 1 7.80437 1.91103 -12.058 15
216 1 -4.37259 -5.55336 -16.3368 6
217 1 3.53195 -5.78676 1.52832 19
218 1 1.10386 -13.5588 -0.0581226 18
219 1 -3.42853 -11.5031 -8.90203 16
220 1 -8.35166 2.54669 -8.89147 18
221 1 10.0128 1.82823 7.30933 15
222 1 -5.73581 2.09186 -10.5433 20
223 1 -1.08384 6.75406 -8.22555 18
224 1 -4.08994 -2.23132 7.47886 17
225 1 -4.27226 15.6115 -1.61714 13
226 1 3.74127 10.2149 5.50556 21
227 1 10.0505 -0.485149 1.7057 18
228 1 -5.17391 2.8337 6.50179 23
229 1 -3.51189 -7.975 11.4553 16
230 1 -4.63316 9.96345 2.85 17
231 1 3.1682 -6.97651 -15.6725 11
232 1 3.19713 -11.5858 1.40269 23
233 1 -2.36928 -2.77425 14.5062 9
234 1 -10.813 -6.54505 7.63428 14
235 1 8.4808 -5.51434 -1.28232 18
236 1 6.64453 -4.21661 -10.6554 18
237 1 10.0393 -10.8085 -5.92232 9
238 1 -3.75805 -5.96953 1.33995 21
239 1 -9.1789 13.3727 -1.39996 13
240 1 -1.66479 1.17094 10.4494 21
241 1 7.88457 3.09055 9.66213 18
242 1 -8.62919 -1.08345 4.47917 19
243 1 7.19438 -8.49899 -2.11738 20
244 1 -4.465 7.31904 4.69422 18
245 1 -6.53533 6.08451 1.28208 17
246 1 4.51768 -10.9619 10.0152 15
247 1 15.427 -8.36422 4.99749 8
248 1 -3.5884 9.7416 11.8598 10
249 1 -5.58227 -3.61019 -2.99894 21
250 1 1.99669 1.90862 15.0398 11
251 1 -5.37051 15.2198 4.19375 11
252 1 -9.69544 4.80552 -6.57513 18
253 1 -9.38694 0.839858 7.49372 17
254 1 -11.2138 -0.194829 2.95696 18
255 1 -3.26679 -4.13766 -5.96346 19
256 1 -4.13952 8.35624 -0.344545 18
257 1 8.26845 -5.32296 5.63147 17
258 1 -7.95064 -13.1688 -0.30254 12
259 1 7.94665 -9.22221 9.47813 17
260 1 -12.7039 6.03797 1.48205 14
261 1 -2.25163 -4.77827 9.66496 20
262 1 3.73832 -12.0261 -5.40747 17
263 1 -4.93003 -1.56746 -5.70575 19
264 1 6.99376 -2.46181 -13.901 14
265 1 5.05835 13.7733 5.32777 13
266 1 -12.3926 -3.04432 -3.55998 19
267 1 5.35698 -11.773 -8.80064 13
268 1 -6.29495 -10.8708 -6.25258 18
269 1 -16.5814 -5.65212 -4.28787 8
270 1 -1.77579 -7.09461 -1.4319 20
271 1 10.89 3.43175 -4.43124 23
272 1 -8.19686 3.62453 -11.9931 11
273 1 -15.7187 -0.573832 -5.58974 11
274 1 -10.1042 10.0694 5.59285 14
275 1 -10.2491 12.4458 3.4465 13
276 1 -4.20598 5.44797 7.33523 20
277 1 11.6735 -5.65197 -7.64284 15
278 1 12.6098 -2.04606 -8.1163 14
279 1 1.57158 3.68452 7.05447 22
280 1 -1.4918 7.27548 -1.86137 18
281 1 0.396763 -6.51138 -8.15959 22
282 1 0.842151 10.4274 4.04742 15
283 1 -11.5481 -0.142808 -4.25169 20
284 1 3.63519 -8.88714 -0.579853 22
285 1 12.2064 -3.10387 6.25461 18
286 1 -11.2734 -1.48677 -7.17401 20
287 1 -6.26809 -8.29557 2.3827 22
288 1 -2.27422 9.8466 -2.75381 19
289 1 -12.0862 -9.04754 -4.27492 15
290 1 -10.4941 6.09354 -3.80459 20
291 1 0.540035 13.9284 -10.1145 9
292 1 6.13417 12.0054 7.94117 16
293 1 -12.0443 -8.05014 -1.49045 18
294 1 -2.65202 -6.48509 -7.2164 24
295 1 -13.2282 0.278291 7.60991 12
296 1 -12.2449 7.3265 -1.5004 13
297 1 7.36596 -9.90098 4.72369 22
298 1 -3.90051 -12.1151 -1.98526 18
299 1 5.11683 7.6065 -10.126 18
300 1 -5.99556 4.01773 -7.06522 21
301 1 -0.788929 -13.6926 5.01911 13
302 1 12.9104 3.91879 4.5639 13
303 1 -3.64443 0.924802 7.7938 21
304 1 -14.5781 0.122046 0.812147 13
305 1 -7.26396 5.84088 6.03022 20
306 1 -4.01491 -12.9616 3.91652 15
307 1 1.71069 -3.93729 -8.12511 18
308 1 8.01125 -9.83131 -8.32015 16
309 1 2.65075 -1.7294 7.34883 21
310 1 -11.9071 2.89201 6.8109 16
311 1 0.609423 -3.82722 8.54212 15
312 1 7.74064 -9.18711 -5.14962 16
313 1 -1.72779 -10.8242 -13.8949 8
314 1 -4.85936 -5.44107 12.1023 18
315 1 2.86004 -5.59247 -4.66277 19
316 1 -3.58465 1.98724 -14.7526 14
317 1 7.16683 -15.0367 2.36514 16
318 1 0.692229 13.3323 -6.98758 16
319 1 -7.24951 -5.84814 14.9026 8
320 1 -6.94048 -10.2995 7.64515 15
321 1 11.9514 -6.18757 11.5636 7
322 1 6.46723 2.0528 -0.855358 21
323 1 -5.59782 4.76769 4.00005 21
324 1 3.80536 1.55708 -5.94074 21
325 1 11.3021 -8.68386 9.42407 12
326 1 15.0232 7.103 -5.70053 9
327 1 -4.29917 1.64977 11.7617 20
328 1 2.32404 13.573 -0.710775 21
329 1 7.5132 -7.69696 2.88033 21
330 1 -1.35678 -15.5891 -5.03387 13
331 1 -4.16471 12.2662 4.37726 20
332 1 -9.28154 -10.4664 -8.15988 10
333 1 5.96642 6.28082 9.50678 18
334 1 -6.50004 2.3101 9.30287 20
335 1 -9.01125 -7.70296 -0.986348 16
336 1 -12.5863 3.89899 9.71058 7
337 1 -11.6724 -6.48935 -8.75942 13
338 1 -4.2203 8.85529 8.50286 17
339 1 -4.00551 -13.3266 -6.16353 12
340 1 1.83039 -10.3407 -15.2085 8
341 1 -7.05484 -11.8583 2.5882 16
342 1 -3.7653 -3.51913 4.23659 18
343 1 8.32935 0.145113 5.08699 21
344 1 -6.60641 -8.18391 12.5932 11
345 1 -9.89589 5.66442 -9.71182 8
346 1 13.6885 6.85997 -2.78434 17
347 1 -10.3026 -13.3966 -2.6429 8
348 1 3.06989 5.00355 -5.43092 21
349 1 1.35527 16.8289 -1.34254 11
350 1 -1.7054 8.1543 -5.09012 19
351 1 -0.693248 9.08242 13.5687 12
352 1 -14.518 -4.48372 -0.84325 14
353 1 5.40029 10.6276 -10.191 15
354 1 -4.92502 -6.74257 -8.85185 21
355 1 2.19683 -12.7603 -8.58655 13
356 1 -0.0271819 -0.562522 -11.7903 20
357 1 -12.3305 10.5475 2.67871 12
358 1 3.55686 4.9161 14.224 15
359 1 11.4929 9.57349 -3.58378 10
360 1 3.20448 11.3817 0.952038 21
361 1 -7.39617 7.54458 -7.03006 16
362 1 2.87264 3.85986 -8.22305 17
363 1 1.6412 -8.58483 1.93109 21
364 1 -15.0103 -8.7709 -0.123405 8
365 1 -3.14857 5.33337 -15.5073 11
366 1 11.0849 7.02773 0.0478296 18
367 1 6.19581 -6.91188 0.484957 21
368 1 12.9834 1.56623 -2.65673 20
369 1 -0.231185 1.13228 -14.0591 19
370 1 0.861576 -10.6977 -0.639229 22
371 1 1.96424 -14.7208 6.31008 11
372 1 4.7897 -7.8329 8.75296 22
373 1 -2.33621 3.65315 -11.3319 21
374 1 -0.311572 -11.4777 -10.7178 14
375 1 0.915395 2.88328 -11.9776 17
376 1 3.68104 -0.0959127 12.1218 18
377 1 -13.194 -4.64978 1.92366 19
378 1 13.1276 -3.6997 -1.71667 17
379 1 8.26742 -0.650765 -0.639982 21
380 1 -7.2511 7.33023 -1.47443 20
381 1 2.15242 -8.44489 -6.05055 21
382 1 3.28016 4.33703 -11.3789 20
383 1 10.7533 -8.40024 -7.47814 16
384 1 -5.96819 -2.78109 15.2687 10
385 1 7.18247 14.7808 1.27508 11
386 1 -1.71094 -3.12455 -15.7442 16
387 1 -9.16373 -4.71464 9.37229 16
388 1 -1.03179 14.6568 -1.38739 18
389 1 -5.25965 -1.13732 -12.912 16
390 1 -15.8515 -2.84995 2.12145 11
391 1 -9.94779 -9.63945 7.09475 15
392 1 -0.672454 9.74046 -7.13032 17
393 1 15.7969 4.03068 2.07949 9
394 1 -10.0118 -10.6795 -1.69923 19
395 1 1.0174 -11.0408 -5.11457 16
396 1 -9.52172 12.6116 7.10534 7
397 1 3.76633 -4.73224 -10.2078 18
398 1 2.95284 5.76541 1.63888 18
399 1 12.9478 -5.99223 0.613024 15
400 1 3.63158 13.4736 -8.39793 11
401 1 4.69793 -9.27535 2.97771 21
402 1 -8.55477 3.94679 7.28263 17
403 1 1.83254 10.7685 13.4723 11
404 1 1.31514 1.69808 -16.6644 12
405 1 -3.67701 -9.41941 -6.49815 21
406 1 -0.417087 -1.96252 11.5333 16
407 1 9.38974 11.6262 7.65993 10
408 1 8.92647 5.47992 -5.52556 20
409 1 -9.03918 12.5387 -4.50059 12
410 1 -0.81429 11.6413 -4.8244 16
411 1 10.8812 -4.01488 8.8654 14
412 1 12.1803 -1.15488 -11.0585 11
413 1 -14.0634 -8.59301 2.6978 13
414 1 1.60163 1.6476 10.0125 22
415 1 0.0117169 10.8938 -12.2543 12
416 1 5.73369 -13.2177 -0.508419 19
417 1 4.2258 -1.46342 -9.50011 22
418 1 -3.75823 12.8384 -2.12314 19
419 1 -3.92543 -8.05175 -13.8982 12
420 1 3.78438 -14.615 1.1237 21
421 1 -11.2141 -4.65497 -1.01878 21
422 1 -6.80645 1.86965 -0.757234 20
423 1 -7.27778 -6.02769 7.07284 19
424 1 8.15626 7.49188 -0.921045 15
425 1 3.08683 -10.8609 -11.0488 15
426 1 7.38311 -6.30647 13.2379 9
427 1 7.21873 0.185895 -7.13532 21
428 1 -11.5512 4.23383 -0.931839 21
429 1 10.3409 -3.30328 -3.06016 22
430 1 4.58505 8.31169 13.8861 8
431 1 -0.851625 -0.0716616 -8.8257 22
432 1 3.14285 13.7044 7.87863 11
433 1 13.0749 4.60739 -10.117 10
434 1 -2.46175 -1.13714 -14.0941 19
435 1 -2.06335 -10.2062 -1.12298 19
436 1 -10.0163 -5.16416 -11.0992 14
437 1 13.3379 -1.31981 0.86684 17
438 1 14.0889 4.32845 -4.05502 15
439 1 4.93891 -7.81491 -9.7635 19
440 1 4.05477 -8.83114 -3.86811 18
441 1 10.0901 12.9563 1.49505 9
442 1 -8.4872 4.80779 3.37424 21
443 1 10.1777 6.6028 -3.13964 21
444 1 14.2893 -3.82843 1.0707 14
445 1 13.0507 1.5078 -8.80089 16
446 1 11.2547 4.30164 12.2518 10
447 1 2.68409 -8.83889 10.5904 17
448 1 7.61498 4.98959 -2.12507 18
449 1 2.97989 2.77277 12.1905 21
450 1 13.6968 -3.703 -5.77775 10
451 1 8.44707 -0.384915 9.36976 18
452 1 -6.90588 -2.99618 -7.41436 19
453 1 14.6705 1.7614 3.15568 14
454 1 11.6188 -5.77339 4.80966 17
455 1 1.35973 -7.01844 -0.937637 20
456 1 12.7743 1.56138 10.6583 11
457 1 7.20262 9.36921 9.77625 11
458 1 4.8931 3.85712 6.2789 20
459 1 -9.26698 10.405 -6.39014 12
460 1 8.01132 7.73392 -10.6141 14
461 1 8.62744 -5.74398 -12.5694 10
462 1 1.03318 13.204 -3.50002 20
463 1 -1.18464 -13.6602 -8.07745 12
464 1 -13.1949 1.65689 4.25679 18
465 1 -4.69157 7.96416 -14.373 8
466 1 -3.36237 -16.3277 0.0553721 9
467 1 -6.02644 -0.960383 -10.2856 18
468 1 -14.9521 -0.864162 -2.78115 14
469 1 12.4203 -8.94585 4.34202 16
470 1 10.075 8.83624 6.61524 16
471 1 3.82938 -8.95676 6.28834 19
472 1 -11.3965 -0.340558 -10.0081 13
473 1 2.96309 -3.48863 4.94517 18
474 1 -5.04306 3.62105 14.3437 11
475 1 4.8371 11.7713 -13.1484 6
476 1 11.1619 4.02441 -7.95895 21
477 1 6.37571 -13.4518 -3.72001 14
478 1 15.8556 -4.78761 3.47276 11
479 1 10.0203 10.3328 4.17451 12
480 1 14.9295 -7.32754 2.50369 13
481 1 -3.96721 3.44722 9.82419 22
482 1 -11.5421 -6.46791 1.44991 20
483 1 -8.95855 -1.92352 -9.36976 19
484 1 10.4876 -0.561642 11.0563 13
485 1 -0.346233 -8.55072 11.3984 15
486 1 11.4371 7.07399 12.2297 10
487 1 -5.72222 11.9178 0.730239 21
488 1 11.1889 2.08916 0.816922 20
489 1 6.77074 -3.55791 -1.35109 20
490 1 8.09266 3.25302 5.87393 20
491 1 2.75293 0.83842 -11.5259 22
492 1 -6.55263 -0.579542 7.28685 21
493 1 5.18644 1.4738 -9.32572 24
494 1 0.0151957 -5.71459 -3.42882 18
495 1 7.3827 -6.58743 -7.54856 18
496 1 9.10285 5.641 7.68465 14
497 1 7.05466 6.74115 5.77983 21
498 1 11.8076 7.18792 8.97219 14
499 1 2.5065 -3.08284 12.0693 15
500 1 -2.48717 4.08415 12.6191 20
501 1 0.585949 -5.03651 -15.8659 14
502 1 -5.96792 0.0980188 13.7507 16
503 1 -5.15411 2.90537 -3.37204 21
504 1 9.21369 2.02028 12.0774 13
505 1 15.4852 8.97311 -2.41205 6
506 1 8.9825 -14.2123 -2.89567 11
507 1 -0.346046 5.37515 -3.63861 20
508 1 6.25553 9.59715 0.103978 18
509 1 8.85644 13.3053 -1.40365 11
510 1 -1.29441 -1.2268 8.77177 19
511 1 4.07987 14.7341 -5.77305 10
512 1 9.01004 7.99633 1.99248 17
513 1 -5.34232 -9.37619 -3.65153 19
514 1 1.25483 -1.78137 -16.8742 13
515 1 -11.7238 10.9656 -0.289676 11
516 1 9.71855 -7.16775 -10.1385 13
517 1 6.45538 5.07939 2.51472 20
518 1 9.72363 10.1549 -9.06043 8
519 1 7.98324 10.8478 -3.14653 14
520 1 -2.24818 4.87549 5.04836 25
521 1 -9.6961 5.96066 0.690001 18
522 1 5.90625 5.86016 -4.65387 21
523 1 1.06219 -11.5659 10.6421 11
524 1 -3.45977 6.78661 -11.1363 21
525 1 3.1581 10.887 8.42619 14
526 1 3.92728 1.26598 7.55685 22
527 1 7.19177 14.4043 -7.83557 6
528 1 8.81828 13.0913 4.20533 11
529 1 14.121 -7.02943 -2.00874 7
530 1 -12.5788 -3.62976 7.12458 14
531 1 2.88408 -17.5349 0.255566 12
532 1 1.32891 -1.98766 -10.2047 24
533 1 1.0545 9.42824 7.15511 17
534 1 4.75947 -6.61397 -1.86054 22
535 1 5.1034 11.3176 2.8721 16
536 1 -14.8266 -0.76208 3.79895 12
537 1 5.06622 -17.3064 2.21176 10
538 1 9.79224 8.89973 -6.15885 18
539 1 4.48902 -6.70703 4.25265 17
540 1 -1.41749 9.44046 0.943854 18
541 1 2.85062 -0.245184 -14.3676 18
542 1 2.7398 -11.9431 7.58021 19
543 1 4.05886 16.4181 0.0974116 12
544 1 -4.00132 -0.623109 16.1061 8
545 1 -7.20642 -6.93853 -12.2833 14
546 1 6.64907 -3.09526 -7.65161 18
547 1 -2.81543 11.6931 7.48617 15
548 1 5.07606 -9.33962 -6.75912 19
549 1 6.20077 -10.5951 7.62432 20
550 1 1.18002 -16.4251 -2.85232 13
551 1 -13.5601 -1.52514 9.66903 9
552 1 2.04794 0.562412 -8.76084 21
553 1 -6.66092 -8.22231 -7.07121 20
554 1 -11.8883 1.02044 11.0205 11
555 1 14.0672 3.77299 -6.74935 15
556 1 -1.58366 3.10915 7.51477 22
557 1 -14.8983 3.54818 2.65461 10
558 1 12.0105 -3.93582 2.61341 18
559 1 1.00359 9.55268 -2.98285 22
560 1 10.3895 0.0331774 -8.81862 20
561 1 11.5005 6.55178 -6.09962 23
562 1 -13.1759 1.15992 -6.6313 18
563 1 -13.5002 -4.36323 -6.62555 18
564 1 4.75372 6.41452 -7.06327 22
565 1 -4.7021 -1.83213 10.7615 16
566 1 -3.96737 -5.62665 7.19921 19
567 1 2.02135 -7.48831 -10.3263 20
568 1 -6.99409 8.73675 0.931066 22
569 1 9.15602 5.19027 3.79825 16
570 1 -6.60225 -3.79054 5.3648 20
571 1 9.17283 4.51102 -11.2167 13
572 1 0.285649 -16.6737 0.895098 15
573 1 5.87274 3.58184 -6.70733 22
574 1 -1.42601 0.218436 -16.7827 12
575 1 0.981971 -0.0786631 12.5954 19
576 1 3.07924 4.89045 -16.0689 8
577 1 -14.0403 -6.27903 -3.11982 16
578 1 9.44352 2.39041 -1.97046 21
579 1 -6.81125 -6.59053 -2.93655 17
580 1 10.551 7.034 -9.15656 19
581 1 10.1483 -6.86211 1.81971 20
582 1 -7.83509 6.03722 12.6501 8
583 1 6.52214 -12.0651 1.84298 23
584 1 12.2497 -9.32153 0.981201 16
585 1 12.8726 -6.58444 8.12071 13
586 1 1.71146 8.7724 10.5868 15
587 1 -7.07676 3.3352 12.1256 19
588 1 -3.57365 -11.3921 7.02162 13
589 1 8.02171 2.05751 1.52135 19
590 1 8.44345 6.43523 10.8798 17
591 1 -12.5138 -1.93979 -0.0397311 21
592 1 10.1866 -8.47089 -1.12218 18
593 1 3.7986 8.91555 2.15153 17
594 1 5.33869 1.95902 13.8297 13
595 1 -0.584491 14.1294 6.99144 9
596 1 1.51314 -10.9603 4.38058 18
597 1 -8.85031 -4.17072 -3.44944 19
598 1 3.60262 3.88452 9.59857 21
599 1 3.9281 14.8425 2.55453 14
600 1 -11.4916 -9.22332 3.5665 15
601 1 9.67936 -6.70326 8.19579 20
602 1 12.87 -9.9465 7.03503 10
603 1 5.27271 8.87702 7.35268 17
604 1 0.967984 8.32846 0.51578 21
605 1 0.99573 -9.90082 -12.7 15
606 1 -0.830727 4.86915 -13.7985 18
607 1 -7.19523 -3.03062 12.7054 18
608 1 -1.23949 13.2171 3.80457 17
609 1 15.684 -0.938158 2.63134 15
610 1 2.35105 11.086 -9.46765 18
611 1 -2.49268 6.80749 13.7165 11
612 1 10.0255 9.34101 10.2249 12
613 1 5.52311 -5.30778 -13.5569 17
614 1 -6.47946 -10.7032 -0.590983 21
615 1 -7.65984 2.193 -4.46181 20
616 1 15.3103 -1.92642 5.69455 10
617 1 4.37707 -2.466 -12.3653 20
618 1 -0.935078 -7.81618 -5.13046 20
619 1 10.051 -0.0183889 -3.73973 20
620 1 1.08552 -6.02209 10.7604 18
621 1 -1.3899 -7.83558 -15.4575 9
622 1 5.44131 12.9932 -0.451543 19
623 1 -0.012167 -8.27456 5.03189 15
624 1 -13.5899 5.19186 5.96942 11
625 1 12.5132 1.00284 -5.66775 21
626 1 3.8482 -3.42083 -15.3659 15
627 1 -5.68121 9.80668 5.88974 20
628 1 5.968 4.61816 -10.1829 24
629 1 10.0169 -3.83121 0.548265 19
630 1 -9.80118 -1.75517 -1.84086 19
631 1 12.9189 4.99877 2.03513 15
632 1 -12.0215 -10.1287 0.651719 15
633 1 6.44053 1.38639 7.70441 19
634 1 -14.6117 -1.37227 -8.61352 11
635 1 -10.41 7.0155 5.34984 17
636 1 -4.70527 1.60634 -5.76233 17
637 1 12.3027 -5.81698 -4.61334 13
638 1 -12.2543 -9.78921 -7.50425 11
639 1 11.5571 -8.82426 -3.87282 12
640 1 -14.3017 2.92745 0.094384 12
641 1 -8.48348 -6.25271 -5.88243 15
642 1 -5.75487 -10.4668 5.03539 21
643 1 14.7819 -5.45238 6.02823 12
644 1 6.68304 -2.74359 4.58716 17
645 1 -11.4816 2.90626 1.64358 24
646 1 0.0837071 13.307 13.13 6
647 1 -1.70539 8.12696 -13.5193 17
648 1 -6.13279 12.8542 6.47252 11
649 1 8.36361 11.4899 -6.0244 11
650 1 1.70326 7.52525 13.6507 14
651 1 9.22148 -6.78064 10.8427 15
652 1 -0.638964 8.79646 -10.2562 20
653 1 -7.00003 -0.449075 10.3777 20
654 1 -2.23077 -2.7104 -11.5522 23
655 1 -14.1196 1.944 -4.14693 15
656 1 -2.26513 -10.3247 9.64374 16
657 1 7.01692 -5.55015 8.55287 19
658 1 -0.740485 -12.6908 -2.79276 22
659 1 -13.4446 5.10368 -3.00247 14
660 1 9.82703 -3.22109 -9.2427 15
661 1 -7.74951 7.9303 3.65255 18
662 1 -5.10706 -0.408481 4.9149 23
663 1 -6.76224 -9.56731 -9.79954 16
664 1 1.25851 -14.3166 -5.47744 16
665 1 8.07683 -15.6442 -0.736775 14
666 1 1.35351 6.64667 -13.2923 18
667 1 15.3668 1.08482 -5.2335 10
668 1 8.826 4.755 0.574975 22
669 1 12.0534 4.29872 -1.19184 18
670 1 0.487483 4.6382 -16.2579 9
671 1 -1.95402 -9.15868 6.41552 17
672 1 5.9709 9.14567 -3.22413 13
673 1 4.69428 3.01868 -3.24331 26
674 1 -11.1894 3.17541 -3.99661 26
675 1 3.02351 6.34727 -2.93119 20
676 1 -8.56388 -9.23755 10.0845 13
677 1 7.15996 10.7738 5.32552 18
678 1 2.30309 -18.5012 3.55218 5
679 1 2.4521 11.5159 -5.95451 18
680 1 -6.14541 8.1685 10.1732 14
681 1 -8.8953 0.286469 12.6872 11
682 1 9.92152 1.3663 -6.65844 19
683 1 -7.04694 -6.82772 9.53882 18
684 1 4.35073 -11.7834 4.57375 21
685 1 -6.99217 2.09308 4.40936 20
686 1 13.743 4.73864 10.5628 10
687 1 9.88138 -3.29428 -6.28953 22
688 1 -8.52006 0.478499 -11.7087 11
689 1 -0.270314 -3.69551 -6.02972 21
690 1 -4.02758 6.97505 -8.25242 16
691 1 -12.9454 4.31727 -6.25871 13
692 1 7.0724 13.3549 -4.58298 11
693 1 1.15021 6.69671 5.46277 19
694 1 -9.98329 -11.4409 -5.4787 14
695 1 -3.06407 11.7858 1.28431 19
696 1 12.9414 2.86584 7.75432 13
697 1 -2.54189 -6.38155 3.98605 17
698 1 10.4559 -3.19028 -13.4945 7
699 1 6.12597 -9.7844 0.048987 18
700 1 4.49832 3.01679 -13.4208 17
701 1 -4.65576 4.58628 -13.2317 16
702 1 -7.56989 -2.38034 0.00464302 18
703 1 -8.18753 4.32226 -2.2086 18
704 1 -4.84287 6.00649 11.9947 17
705 1 9.70938 -2.43775 4.04707 19
706 1 -8.55917 -6.167 4.09494 17
707 1 11.4821 -0.939102 -1.30033 20
708 1 -3.34864 2.13715 -8.663 18
709 1 14.4112 6.08854 -0.271379 12
710 2 -11.7306 1.44896 -9.51364 14
711 2 -8.44516 12.3656 -6.31492 12
712 2 1.38782 -1.90398 -12.1706 20
713 2 -3.6016 4.9305 11.1513 23
714 2 -9.71902 -6.00058 -7.77614 19
715 2 4.52818 3.41485 11.25 23
716 2 -13.763 -9.77262 1.09424 12
717 2 -11.6619 5.87656 -5.69164 15
718 2 1.48315 13.7123 6.7365 12
719 2 -7.9249 -1.92521 6.01881 17
720 2 9.91595 1.70099 2.13545 18
721 2 0.0145801 2.33473 6.48749 21
722 2 -1.77526 -2.66332 -6.89436 24
723 2 -11.2735 -8.28029 -9.07317 12
724 2 -10.4959 0.26543 -1.53805 19
725 2 -2.55974 -8.11013 4.95793 21
726 2 5.16533 3.04536 8.25014 20
727 2 4.73065 -5.9096 -8.92545 17
728 2 5.58042 -15.9684 3.29455 11
729 2 6.64874 -0.77175 4.47595 20
730 2 -7.52066 12.4971 -0.322899 19
731 2 -12.8371 2.78117 -7.11414 15
732 2 12.678 0.800175 7.40582 14
733 2 10.6037 -5.09327 -4.36567 20
734 2 -8.79267 -9.37679 -0.741774 17
735 2 -11.5775 -6.0022 5.79287 15
736 2 -2.23601 -14.0619 3.89574 12
737 2 13.0285 -8.49575 8.47901 10
738 2 -0.73977 -14.4969 -6.43106 10
739 2 3.42929 1.26632 13.7037 17
740 2 0.449775 12.4913 -11.4809 8
741 2 -10.4048 -9.97002 -4.15134 18
742 2 2.20141 3.6087 13.9216 13
743 2 -8.7031 1.9411 -0.0279253 19
744 2 -2.56695 2.20623 12.8531 19
745 2 -9.28669 10.6686 -4.32816 15
746 2 10.7918 -13.3451 2.32666 10
747 2 -0.744191 9.18168 4.02138 17
748 2 -0.633617 13.9808 -8.51675 10
749 2 0.929622 -6.97324 -4.59712 22
750 2 -2.08025 1.02529 -9.64175 19
751 2 1.96237 -5.48072 -9.74419 20
752 2 8.44199 0.241901 -8.69805 22
753 2 -6.72595 6.49102 11.2111 14
754 2 4.91713 5.66486 -11.3441 17
755 2 -4.23167 9.19023 -13.1225 7
756 2 9.83941 10.4714 -3.11364 14
757 2 -8.76655 -6.37486 13.9094 8
758 2 -13.0207 7.36895 2.57211 11
759 2 10.7545 -1.77226 -12.3399 11
760 2 5.34696 -8.7852 -11.7867 13
761 2 -13.3663 -8.80408 4.35354 12
762 2 8.38596 9.47391 3.33016 19
763 2 -4.07706 9.3312 4.72724 20
764 2 -1.76755 -10.5347 -9.38234 18
765 2 -4.45936 12.0314 6.42779 16
766 2 2.66872 -10.791 11.1274 14
767 2 8.41568 -6.11306 1.51699 19
768 2 -12.0832 1.52941 -3.47497 21
769 2 10.3173 -8.54402 0.877174 19
770 2 7.3952 -5.93611 -4.66742 20
771 2 6.98432 6.37097 3.78484 16
772 2 7.80655 -13.6681 3.45114 15
773 2 13.9755 -9.01596 5.89614 12
774 2 -4.14341 -2.95501 14.797 11
775 2 11.2018 -9.80777 -2.30909 14
776 2 -0.148297 7.75507 6.7001 20
777 2 13.3276 5.94151 9.05582 10
778 2 -9.02057 5.04916 11.3585 10
779 2 5.28876 9.2089 3.30481 19
780 2 11.5421 -11.0539 0.412561 16
781 2 5.38395 8.17541 -7.21268 18
782 2 -9.11617 -3.54758 -10.441 16
783 2 -7.57929 -1.10788 12.8466 13
784 2 3.73854 0.408012 -9.87559 21
785 2 -8.44059 0.490482 -4.57072 20
786 2 -12.4024 0.960239 6.08901 17
787 2 -10.5406 -9.63528 1.66017 18
788 2 13.1981 -2.51209 2.29175 22
789 2 1.74791 -7.52807 5.78286 16
790 2 -1.15851 -3.2022 12.9952 14
791 2 6.93956 -5.10937 -12.2797 13
792 2 7.76485 2.97946 11.5966 18
793 2 -2.6271 8.52639 12.8151 12
794 2 -8.24665 2.99307 3.46633 21
795 2 4.04976 -7.72267 -6.42237 19
796 2 9.88216 -1.98036 -4.61923 21
797 2 -10.9328 11.7917 5.99772 10
798 2 0.296283 -15.2453 2.17083 16
799 2 8.17459 -3.97124 -2.89917 20
800 2 2.95349 -0.202862 -6.89556 19
801 2 3.65247 8.4028 6.45694 19
802 2 6.04618 -8.88376 -4.38142 17
803 2 4.70017 -3.00043 8.12321 15
804 2 -3.93909 -5.57421 5.09556 19
805 2 12.3665 3.52736 0.887497 22
806 2 -7.89108 -8.0727 3.7203 18
807 2 8.5787 9.61857 -10.5391 11
808 2 0.412107 -9.49836 3.50154 19
809 2 13.0058 -7.28342 -3.43248 11
810 2 2.33727 -15.3094 -3.95162 15
811 2 11.1352 -7.30787 3.40895 22
812 2 -5.88521 13.5844 4.80952 11
813 2 12.1678 0.477263 -10.1393 13
814 2 -6.99474 -6.2808 -7.23984 17
815 2 -8.83371 -5.65108 2.47897 15
816 2 -2.71987 -8.58461 -0.161541 19
817 2 -5.12316 -7.50804 -3.09273 19
818 2 -3.21923 9.69061 1.56705 20
819 2 -12.4216 12.1789 3.34513 10
820 2 6.55043 2.13167 -7.86211 18
821 2 10.8319 8.17535 -4.69967 14
822 2 3.75444 3.51627 -6.41931 20
823 2 -6.43295 4.69853 13.198 13
824 2 -2.21873 -1.41862 -16.0953 13
825 2 -12.192 2.35883 -0.275358 18
826 2 -3.96113 1.42069 9.7155 22
827 2 -8.86429 6.00491 5.11535 17
828 2 -5.39104 5.10293 -3.52945 20
829 2 8.7575 13.97 2.34809 9
830 2 14.3544 1.5592 -6.72706 11
831 2 6.23819 -8.5065 1.50275 24
832 2 -13.1515 0.341757 9.58029 11
833 2 11.657 -0.0790091 0.361654 21
834 2 0.606288 12.593 3.39157 16
835 2 -4.19684 10.6514 -10.4589 13
836 2 -3.37141 6.92088 8.2631 18
837 2 11.4145 -6.27248 9.53647 14
838 2 -9.05296 -6.97777 -11.2059 16
839 2 3.23408 8.40002 -9.61932 19
840 2 9.81597 8.38331 0.259678 16
841 2 -11.8136 -4.65106 8.4506 15
842 2 1.7461 12.0562 0.146169 18
843 2 -6.23224 14.2131 -6.07812 10
844 2 2.59052 13.7311 -6.48514 17
845 2 12.6702 -0.270968 10.1587 10
846 2 1.57838 5.60656 7.08652 21
847 2 11.1294 -10.5173 -7.48742 10
848 2 -2.49445 -0.714982 15.0551 11
849 2 2.01499 -2.80363 9.00852 19
850 2 -13.9876 -0.267436 -0.952521 15
851 2 -2.46821 -8.95385 -14.549 10
852 2 7.72184 -14.3189 -4.47436 10
853 2 2.96 -2.92353 -9.45921 20
854 2 14.2623 0.183494 1.98783 18
855 2 -5.06856 1.95089 13.5525 15
856 2 4.56751 3.56211 -9.20652 19
857 2 -7.06463 -8.68968 9.06432 15
858 2 -1.39247 -3.02372 -13.8977 18
859 2 0.0780613 -8.37563 -9.11942 20
860 2 1.26552 -2.6432 -6.58288 20
861 2 4.15234 -14.1413 -1.03537 19
862 2 13.3193 7.25243 -6.75877 14
863 2 -3.08594 7.14593 -14.7728 12
864 2 -5.67793 9.72636 7.79989 16
865 2 -6.70816 -4.09117 1.06437 20
866 2 -6.72785 -0.12912 -11.97 14
867 2 6.07451 8.89806 -11.0148 17
868 2 2.1821 11.3065 -3.70839 22
869 2 -6.20658 -12.9801 -0.895437 14
870 2 15.7067 -0.624608 4.43012 11
871 2 -0.556937 4.46879 11.9861 18
872 2 -9.36918 -12.9037 -4.24413 10