ITEM: TIMESTEP
367000
ITEM: NUMBER OF ATOMS
2000
ITEM: BOX BOUNDS pp pp pp
-30.0 30.0
-30.0 30.0
-30.0 30.0
ITEM: ATOMS id type x y z Coordination
1 1 -2.48367 -9.60175 -10.1811 18
2 1 -17.0283 -4.40984 -1.55519 14
3 1 -4.00796 -2.15808 17.3994 14
4 2 -13.1894 -5.61177 -8.38635 10
5 2 5.45021 11.116 -6.07431 18
6 2 0.0978954 14.0199 12.3352 13
7 1 -11.4203 -10.1099 -1.84224 19
8 1 -5.87129 -8.13248 10.0449 17
9 1 14.6324 -15.1427 -1.00763 12
10 2 -7.04301 -13.1084 1.09142 19
11 2 5.76993 -17.2656 -0.15623 14
12 2 -2.62104 -14.4596 0.135055 15
13 2 14.351 -1.3849 -13.2084 12
14 1 -3.16125 -4.06488 -16.0642 6
15 1 -16.0292 4.26873 0.019858 14
16 2 0.268326 -14.4486 -14.4236 13
17 1 2.75574 -13.503 8.13839 19
18 1 6.38431 7.73658 -14.6543 11
19 1 -2.55939 -15.8383 -1.54024 16
20 1 -0.294268 -7.9366 1.70778 18
21 1 -16.6626 -6.58229 0.160798 13
22 1 -2.28254 -13.8409 -10.4285 15
23 1 -8.84435 -12.3198 -3.84043 22
24 1 -15.266 -11.3116 1.65285 9
25 1 5.01767 -8.04215 -3.93988 18
26 1 -6.62064 -9.551 6.97732 20
27 1 -5.10098 -12.8585 -2.96091 22
28 1 -6.37714 0.146574 -3.54016 21
29 1 -12.1451 5.25404 -7.49143 13
30 1 -10.0508 -11.2524 9.04589 14
31 1 2.78185 -11.9809 -7.36119 23
32 1 -14.0497 -1.30574 -2.89605 21
33 1 -10.6169 -9.48761 -8.43471 12
34 1 -15.8986 -4.61954 -4.03259 16
35 1 -7.85152 -11.6875 -9.07349 11
36 1 -17.9439 -3.01657 4.39603 12
37 1 -11.3638 3.02627 -5.57204 17
38 1 -10.8005 -15.4035 -5.61962 9
39 1 -15.2206 -8.51368 1.05371 16
40 1 -1.87906 -16.7465 -4.63466 10
41 1 -4.21525 -12.3827 -14.3302 11
42 1 -5.23318 -16.2005 -2.90515 12
43 1 3.21048 -14.486 -11.5936 18
44 1 2.48985 -9.52258 -16.53 9
45 1 -13.7131 -11.7149 -0.818928 18
46 1 1.45063 -13.885 -9.43161 17
47 1 -17.8393 -5.32914 2.90441 14
48 1 -7.35001 -12.7688 -0.698776 18
49 1 2.18557 -14.8082 -14.7332 13
50 1 -6.15667 -12.5204 -6.1854 18
51 1 -14.8504 -4.05334 4.49895 22
52 1 -1.19559 -13.5877 -4.07354 16
53 1 -4.25715 -9.08818 2.22493 16
54 1 -2.60906 -9.65313 -7.44371 19
55 1 -13.7858 1.38759 -0.486167 17
56 1 -18.1146 -2.87712 0.845529 14
57 1 -9.94076 -0.488537 3.53847 21
58 1 -0.847709 -0.737768 -15.3829 10
59 1 3.24999 -0.314476 -5.71782 22
60 1 -7.73657 -5.17988 9.99774 14
61 1 -6.88424 -6.23825 -3.52524 14
62 1 -7.54327 -2.62218 -12.0419 13
63 1 -7.81941 13.6756 -9.28155 11
64 1 -3.213 -16.2337 -13.5758 9
65 1 -7.77357 4.27112 0.249732 19
66 1 -12.3185 -1.55883 -0.638732 18
67 1 -6.98149 -1.17921 -8.73904 19
68 1 -5.55736 -8.34366 -9.04301 16
69 1 2.80285 2.6788 -12.1689 17
70 1 -1.38869 13.459 9.09464 21
71 1 -6.03797 -6.38211 -7.09067 21
72 1 -13.4663 -3.78486 -2.60307 19
73 1 -13.7717 -7.04968 -1.62204 19
74 1 -12.0458 -4.83795 0.145265 20
75 1 -9.33572 -0.182076 -11.7059 14
76 1 -7.73941 -14.714 4.28595 11
77 1 2.68714 -5.47745 -4.58958 19
78 1 -7.58311 1.07796 0.780653 20
79 1 -7.66983 -15.0039 1.10833 15
80 1 -17.2997 1.50492 -0.459311 15
81 1 8.52139 -5.14756 -5.21912 21
82 1 -8.52334 -10.0882 -11.285 7
83 1 1.32461 -6.41196 -13.2968 16
84 1 7.4756 -12.2142 -14.3857 6
85 1 -13.1056 -13.988 0.413591 10
86 1 5.34639 -11.4283 -12.4375 17
87 1 0.0672541 -8.34669 -6.24804 20
88 1 -10.0384 -3.75259 -10.9093 10
89 1 -4.16792 -6.58883 -10.3143 18
90 1 10.1627 -10.2352 -7.3378 22
91 1 6.34241 -10.6902 -7.41693 20
92 1 -11.8917 -12.7713 -3.3923 15
93 1 11.561 -12.8145 -3.29452 16
94 1 -5.42853 -0.428498 -6.7699 18
95 1 1.0083 -2.10249 -6.69624 20
96 1 -1.22136 -11.8336 -12.403 14
97 1 -8.15439 -3.54205 -7.34408 17
98 1 -0.846909 -13.1213 -15.4978 10
99 1 4.63755 -17.4101 -5.6855 13
100 1 -4.72953 -9.08884 -15.2849 6
101 1 -13.6871 -10.7025 -6.98949 8
102 1 -2.00927 -2.82569 -9.85008 17
103 1 -6.49406 -5.12759 -12.7826 10
104 1 4.60532 -9.10521 -9.55942 20
105 1 -5.0337 0.14275 -1.30515 21
106 1 -3.1184 -6.10688 -6.74316 22
107 1 2.24343 -17.3182 -12.0886 12
108 1 3.90849 -6.84271 -1.4782 20
109 1 3.44909 -3.16671 -10.4068 17
110 1 8.15649 -5.00204 -11.5407 18
111 1 -10.6674 4.58089 -0.0149612 18
112 1 5.00624 -12.8218 -9.69569 23
113 1 -3.46301 1.05942 -14.3676 10
114 1 15.7835 -1.48904 -11.9396 16
115 1 -5.7296 -8.40979 -12.0979 16
116 1 -1.47925 -6.72577 -14.4401 11
117 1 5.41954 5.16573 -8.3285 21
118 1 7.66721 -5.7493 -14.0865 11
119 1 0.579471 -5.3494 -6.50507 19
120 1 -8.77858 -1.1303 -5.31307 20
121 1 0.581114 -9.16545 -11.8766 17
122 1 -7.8372 11.4329 -0.25053 11
123 1 -7.14711 -1.78132 -0.993244 16
124 1 11.9476 -3.78338 -5.9517 18
125 1 0.216839 5.43221 -5.58636 19
126 1 -8.50453 -4.19828 -1.07921 14
127 1 -1.12828 -5.83134 -0.114307 18
128 1 -6.71774 4.80818 -7.4399 19
129 1 -7.54792 2.30207 -1.69396 19
130 1 -2.10794 -2.79463 1.56495 17
131 1 -7.46452 9.64 -2.48502 12
132 1 -10.5997 -7.14521 -0.80204 18
133 2 -1.52397 -9.92728 -11.9101 14
134 2 -7.69591 -4.82395 -3.13651 16
135 2 0.843132 -15.4812 -8.06275 15
136 2 -3.19842 -6.72698 -4.83394 20
137 2 -4.97776 -4.28329 0.212696 16
138 2 -0.660116 -8.44048 9.41215 20
139 2 -8.7977 -15.391 2.92103 9
140 2 -13.5832 -10.5598 -2.42709 15
141 2 -11.4453 0.680272 4.36197 19
142 2 -14.5791 -9.89437 2.4606 13
143 2 -10.2645 -7.36102 5.91075 14
144 2 -16.1076 -2.09336 0.621441 18
145 2 -3.72836 -0.70692 -11.4067 15
146 2 -8.95005 -10.2441 3.96341 18
147 2 -16.6176 -9.0141 -3.66934 11
148 2 -4.88913 1.49309 -6.40207 20
149 2 -14.0197 -4.00049 2.63627 20
150 2 -10.1763 -10.9634 0.0526794 20
151 2 -5.86482 3.28901 13.5723 14
152 2 -13.6075 -12.2799 0.965097 13
153 2 -2.71936 -0.542993 2.26257 16
154 2 -1.52228 -13.502 -1.96804 18
155 2 -16.7092 -7.56921 2.10504 12
156 2 0.650856 2.16362 -8.7209 15
157 2 -11.357 5.15427 -5.73383 15
158 2 -5.68216 -8.80823 -7.25717 18
159 2 -2.65849 -13.1952 -15.0552 9
160 2 1.52964 -13.316 -0.0674145 16
161 2 -14.4268 -3.5711 -7.31654 12
162 2 -14.1976 -8.88905 -6.28003 11
163 2 -7.82313 -12.393 -7.36775 14
164 2 -9.20668 -5.35469 -7.19605 15
165 2 5.57016 -14.6084 -8.48977 19
166 2 -3.53066 -4.20911 -6.84402 21
167 2 4.67288 -9.14207 12.7032 15
168 2 -15.6176 -10.701 -0.188702 10
169 2 -1.83669 -5.03511 -15.245 8
170 2 5.43662 -17.6224 -3.90986 14
171 2 -3.69673 -16.7493 -11.8534 9
172 2 -8.14247 -13.4667 -4.92062 16
173 2 -10.5673 -0.834342 -4.29086 18
174 2 -11.8228 -10.6095 -7.66645 10
175 2 -10.356 -12.1438 -2.63882 19
176 2 -4.7878 1.98608 -10.1753 17
177 2 -9.75334 -13.9957 4.79421 10
178 2 -0.293546 13.666 -9.04449 12
179 2 -11.7687 -5.39964 3.90491 16
180 2 -9.59792 1.3737 -10.1489 14
181 2 -6.3191 9.59983 -4.16921 16
182 2 -2.11419 -6.387 -10.167 15
183 2 2.86108 13.1426 1.48413 15
184 2 -15.9539 -1.10185 -3.73731 15
185 2 -4.50845 4.94469 -11.3174 17
186 2 -5.82262 -6.1873 -5.18352 17
187 2 -11.7105 -15.4655 -0.7141 9
188 2 -3.74294 1.125 0.0223139 18
189 2 -9.04933 10.1961 -4.66426 17
190 2 -6.97685 -11.4038 9.4588 16
191 2 -11.3384 8.15831 -4.87184 18
192 2 -13.1163 13.7763 -1.54929 10
193 2 -0.579677 -4.34858 -5.43493 18
194 2 4.17363 -14.2092 -0.259174 20
195 2 -6.68869 2.63609 0.931658 18
196 2 -10.8036 -8.13929 14.2405 9
197 2 -1.46417 -15.0402 -5.57521 14
198 2 9.1487 -10.2131 -5.44891 18
199 2 -4.71556 -10.0134 -2.96241 18
200 2 -3.38399 -12.8655 -4.16391 16
201 2 -8.84679 -14.1326 -0.986428 13
202 2 15.337 -4.17758 -11.8205 13
203 2 -10.0429 -11.3284 6.87644 15
204 2 1.55701 -15.8334 -11.1408 17
205 2 3.01589 -16.7644 -1.67783 17
206 2 -6.54635 -3.28895 -7.91818 16
207 2 -5.55021 -1.37204 0.0599741 17
208 2 9.44365 -16.6088 0.0190109 12
209 2 9.1217 -12.8036 -13.2385 7
210 2 7.0945 -12.1423 -6.60181 17
211 2 -9.23153 9.89731 -9.95536 14
212 2 -14.1596 -6.73391 0.546815 20
213 2 -4.05189 -13.383 -9.77045 11
214 2 -7.10274 -6.98254 -8.90391 18
215 2 -5.3937 -14.4402 -4.13299 15
216 2 -4.24757 0.59816 -3.20462 19
217 2 -7.3317 -11.4053 -2.30276 19
218 2 2.19484 -7.80728 -12.1299 19
219 2 -7.04658 0.57685 -8.35088 19
220 2 -5.40436 3.59902 -8.17307 17
221 2 -0.797156 -5.53566 -7.74599 19
222 2 -8.97376 -1.53056 -7.95838 21
223 2 -18.7156 -2.91685 2.79108 10
224 2 -8.88471 16.7343 7.13424 8
225 2 -3.84847 -1.13394 -5.72911 18
226 2 -4.53609 -13.138 -6.78335 13
227 2 -11.5692 1.24246 -8.0527 16
228 2 5.65351 1.38165 -12.6708 22
229 2 -5.03664 -10.8907 -15.0624 10
230 2 -13.5388 4.04882 -6.45627 16
231 2 3.30904 -1.75214 -15.3522 11
232 2 6.54301 8.35882 -8.91183 22
233 2 -2.81581 -8.37647 -14.6757 10
234 2 1.59575 -3.93065 -7.42251 19
235 2 -0.958053 -5.84248 -2.133 18
236 2 -3.6897 -3.63652 -10.0435 17
237 2 14.0361 -16.8053 -10.7531 5
238 2 5.14625 -4.69688 -7.87562 19
239 2 15.9373 4.53288 -7.74887 11
240 2 -12.4313 -2.59339 5.48809 19
241 2 -11.2904 5.98929 -2.15048 19
242 2 2.40824 1.62504 -2.62849 19
243 2 14.6526 3.61477 -14.0783 12
244 2 -7.71634 -2.70229 6.21929 16
245 2 11.8498 -17.0485 -6.10063 16
246 2 -3.96766 6.46752 -9.25406 17
247 2 10.2815 -3.95471 6.59881 16
248 1 -12.9973 -0.643564 4.50805 19
249 1 -6.47688 -3.36455 18.5857 11
250 1 -8.9116 -8.77197 -3.76827 15
251 1 -12.4353 -15.319 -2.45622 9
252 1 -10.5978 -6.72985 12.7603 10
253 1 -9.1753 -1.23851 6.44721 21
254 1 -6.37974 -12.6697 5.5236 17
255 1 -13.1922 -7.53693 -7.48018 12
256 1 -13.0641 -6.06566 2.55256 20
257 1 -7.19913 -8.82326 14.8125 14
258 1 -5.07045 4.32472 -2.52682 19
259 1 -17.0639 -5.36687 6.10118 12
260 1 -9.85689 2.13724 2.37876 22
261 1 -10.8932 5.92621 5.96463 15
262 1 -11.2028 -5.6768 -8.197 13
263 1 -12.2986 -9.11429 7.83703 13
264 1 -0.401322 -0.100107 6.73732 20
265 1 -6.67655 -0.491226 12.0439 16
266 1 -14.6787 -7.35662 6.97343 12
267 1 -7.04622 7.06992 11.7101 18
268 1 -6.00524 6.58222 1.89998 14
269 1 -10.5776 -13.277 -0.583445 21
270 1 -11.3496 -0.984099 9.3706 13
271 1 -6.92799 -5.4337 15.3614 15
272 1 8.46035 -11.5624 7.54006 16
273 1 -6.29326 3.12206 3.26025 20
274 1 -9.80026 -9.56888 2.16912 16
275 1 -20.1531 0.964559 -0.132082 6
276 1 1.32109 -9.61971 12.8356 17
277 1 -7.26979 -15.0561 -4.52563 14
278 1 -5.07801 -14.1851 3.03546 17
279 1 -2.66032 -6.95394 -2.39826 16
280 1 -3.44608 5.67433 4.02564 21
281 1 -5.47375 -10.5437 12.3747 14
282 1 -4.72818 2.51347 0.609128 17
283 1 -4.98671 -17.0802 0.648669 12
284 1 -4.74688 -8.17095 -5.40196 21
285 1 -17.7406 -7.63479 -2.49849 9
286 1 6.43307 -13.4014 2.92742 13
287 1 -4.23103 -11.0598 4.95564 20
288 1 -8.81101 -15.9012 -1.56348 10
289 1 -3.51612 -16.757 3.82631 12
290 1 0.00390223 -9.14358 -1.02238 17
291 1 -12.5476 -2.64013 2.27689 21
292 1 -3.73198 0.776018 7.75746 20
293 1 -12.9968 -1.96517 7.23239 16
294 1 -7.20684 -13.1208 8.63023 13
295 1 -13.2822 15.091 1.15677 15
296 1 -11.1525 -3.66649 4.34693 17
297 1 -11.0413 -9.43978 10.8757 14
298 1 11.5382 -6.93675 3.28179 17
299 1 -6.03858 -7.15702 17.8615 12
300 1 -3.2039 4.1981 -5.9261 20
301 1 -12.1865 -6.99132 5.29593 13
302 1 -9.44811 4.25232 15.3996 6
303 1 -8.27583 6.36164 -1.97055 17
304 1 -14.7995 -5.24158 -6.35086 12
305 1 -15.1335 -3.99337 1.11268 20
306 1 -3.67891 -5.69195 16.9111 14
307 1 -3.53397 -6.81077 11.5952 16
308 1 -10.0711 -9.86596 14.6348 7
309 1 0.477522 -3.36935 6.82441 19
310 1 -7.70588 -4.18854 13.1625 14
311 1 -0.757727 -13.1674 8.98328 19
312 1 -9.87994 -7.70759 7.81368 21
313 1 -4.35787 3.17629 14.438 13
314 1 -9.07255 -2.56152 15.7558 11
315 1 -2.63342 6.11268 14.0495 16
316 1 5.16084 3.06706 6.17527 19
317 1 1.27876 1.10917 15.6471 13
318 1 -4.99613 3.51201 6.24215 18
319 1 -6.28213 -11.5551 1.66914 19
320 1 1.88757 -16.8051 -6.69097 12
321 1 1.98472 -13.8254 -4.95002 18
322 1 -1.18666 -4.54442 -3.67021 22
323 1 -6.04012 -2.93054 0.913524 16
324 1 8.09335 -13.4969 -8.11235 21
325 1 1.19587 -2.8182 -2.15957 16
326 1 -2.81312 -12.7243 -0.742633 16
327 1 4.74327 -17.3278 -1.87276 16
328 1 -12.5277 2.43829 9.9779 12
329 1 -3.59522 -13.211 7.98672 15
330 1 0.921511 -15.6146 9.57235 12
331 1 -1.58625 -15.5493 1.30021 21
332 1 -4.27528 -4.90432 19.7099 8
333 1 -9.91682 -1.76259 13.0127 11
334 1 1.43596 -16.151 6.17443 9
335 1 5.68686 -10.6777 3.03285 20
336 1 0.994255 -6.4778 -2.02228 18
337 1 -2.33576 -13.6386 4.4823 19
338 1 -1.45626 -10.5755 1.36993 13
339 1 2.61233 -15.4554 0.0719905 19
340 1 -1.95672 -1.42173 -1.97694 16
341 1 8.68488 -0.176071 -11.4306 17
342 1 8.04829 -8.02794 -9.09581 20
343 1 -6.9661 -7.74596 1.07609 14
344 1 -8.96229 -13.9246 -6.82944 11
345 1 -9.75584 -6.73594 1.91818 13
346 1 0.68979 -7.47215 8.3314 19
347 1 9.60877 -5.90224 7.32625 14
348 1 -15.0178 -4.12344 8.85399 13
349 1 1.03351 -6.94459 4.65638 22
350 1 -12.0665 13.9637 5.27859 14
351 1 -8.11967 -9.91852 9.99325 19
352 1 -7.05949 -9.68293 4.05086 20
353 1 -10.0825 11.8583 8.12448 19
354 1 0.409982 -13.1623 3.06977 15
355 1 -7.4092 -3.18787 -3.81818 19
356 1 -4.20667 10.2785 -8.99483 19
357 1 -8.09578 -2.98259 4.45744 17
358 1 6.55335 1.14384 -8.37141 21
359 1 -4.38834 -4.97389 -4.84599 19
360 1 -6.77526 -0.739954 16.2299 13
361 1 -3.24208 -9.5512 -1.22106 16
362 1 -15.6978 -1.40256 11.3087 6
363 1 -2.41629 -8.40286 4.38215 21
364 1 -8.20493 -6.65236 4.8737 18
365 1 -7.86126 1.10045 4.29961 19
366 1 -5.65392 -10.6693 -1.14264 17
367 1 -16.941 -2.65017 7.85538 10
368 1 5.17217 15.2712 13.1059 9
369 1 -1.26668 3.42209 12.6333 17
370 1 5.27097 8.28945 -2.12075 17
371 1 -4.6482 -9.42673 15.5721 11
372 1 -8.38341 3.89877 6.06826 18
373 1 9.64086 6.3687 13.8809 12
374 1 -6.93165 -11.6375 14.7576 9
375 2 -4.75288 -15.7498 -1.06879 16
376 2 -16.5374 -5.31211 4.31152 17
377 2 -15.3374 5.91622 -0.341096 13
378 2 -8.95202 -8.83145 8.69231 20
379 2 -12.4777 -7.50026 8.55463 12
380 2 -11.1639 -9.8768 9.03549 13
381 2 -3.62784 -3.1991 7.84994 15
382 2 -11.6873 -13.2867 1.80552 11
383 2 -2.3261 -9.1325 2.5549 17
384 2 -2.83595 -3.67395 3.1317 17
385 2 -14.4832 1.12253 -7.55562 11
386 2 1.26835 -1.01622 -0.865006 17
387 2 -12.666 -5.39061 -2.15754 17
388 2 -14.7723 10.5237 3.57861 10
389 2 -10.4689 -1.62889 7.87778 14
390 2 -8.83003 -4.61672 5.46842 17
391 2 4.21029 5.72156 10.036 11
392 2 -8.52332 -0.658393 4.68842 18
393 2 -3.3183 12.7247 12.4331 12
394 2 -10.565 -2.23805 2.93287 19
395 2 -0.877051 8.08519 16.8259 11
396 2 -14.8637 9.06043 10.6642 12
397 2 -6.984 -1.30329 10.2337 15
398 2 3.53038 1.86313 6.0211 19
399 2 -7.29687 -16.29 -2.90965 8
400 2 4.82383 -10.694 -10.763 16
401 2 3.0155 -6.70764 14.62 13
402 2 -9.04124 0.532703 1.73424 19
403 2 -1.00829 -14.5955 3.01604 16
404 2 2.50156 -16.6055 -4.92654 15
405 2 -6.3349 -13.7076 4.17771 16
406 2 -4.05051 -1.72014 4.92646 14
407 2 0.0651404 -16.367 8.23496 11
408 2 -8.36963 -3.03208 -5.53682 15
409 2 3.41206 -6.75523 0.648938 21
410 2 -11.6453 -14.6763 -3.96891 15
411 2 -6.27827 -8.41908 16.5915 11
412 2 10.6806 -2.80053 0.875775 18
413 2 -15.226 -4.02315 -2.22108 19
414 2 -0.607938 -16.9083 -3.13662 12
415 2 -0.594951 -18.7029 0.684875 8
416 2 -5.94322 -4.52987 13.9232 13
417 2 -15.7627 -7.85081 -1.50531 17
418 2 -7.58246 -6.62361 13.5993 15
419 2 -15.5278 -4.47686 6.97496 16
420 2 -11.3338 -6.61307 1.25917 18
421 2 -2.22694 -6.34579 4.43479 18
422 2 -5.93075 -4.85271 7.80502 13
423 2 -11.3954 4.10842 10.0197 14
424 2 4.23599 5.77314 13.1169 12
425 2 -6.46605 -10.8643 5.3236 16
426 2 4.18022 -13.2613 12.0302 10
427 2 -3.6211 -14.9286 4.06484 13
428 2 -12.3508 -2.06489 -2.73213 22
429 2 2.59825 1.45734 -6.39629 20
430 2 -17.6763 -3.38994 6.35829 14
431 2 1.50475 -11.5822 -8.94585 17
432 2 0.745539 6.12145 -2.10457 20
433 2 -10.2429 -4.89287 -0.652484 17
434 2 -16.2467 -7.0772 6.04506 11
435 2 -7.1159 -6.89589 10.5382 16
436 2 -7.69129 0.934126 11.8988 12
437 2 -8.691 4.78736 12.946 12
438 2 -7.86285 -6.54551 2.96722 17
439 2 -15.5773 2.38798 -0.991543 15
440 2 -6.06319 10.0634 9.80818 18
441 2 -6.14178 11.8467 12.8854 13
442 2 -6.85774 -10.1114 0.142426 18
443 2 -4.23042 4.42042 10.4671 18
444 2 -5.64326 -9.68716 13.9854 13
445 2 -0.668014 -4.17835 5.46024 16
446 2 -8.02184 -13.4551 7.00853 11
447 2 -5.36727 -9.12958 8.20251 19
448 2 5.91632 -14.3278 10.0986 12
449 2 -5.2952 -7.09271 1.80573 14
450 2 4.55409 -13.3164 7.41341 16
451 2 1.31976 -9.22938 4.43316 18
452 2 12.6645 -15.162 -7.96811 12
453 2 4.88809 -6.53145 3.30024 20
454 2 4.95328 -4.97232 6.98864 18
455 2 2.20854 -2.84771 6.56805 19
456 2 -3.36908 -16.3781 -3.71322 12
457 2 -16.2302 -2.5439 9.73605 10
458 2 -6.23138 -4.82683 19.9619 5
459 2 -3.57871 1.42813 14.8723 16
460 2 -7.0404 -12.3282 13.1641 10
461 2 -3.36538 -12.42 6.22224 17
462 2 -6.64555 -9.45667 11.1939 17
463 2 -6.26357 -10.779 -5.23598 19
464 2 -0.588269 -1.83944 7.37942 18
465 2 -5.05417 -0.649218 7.78759 18
466 2 10.5126 7.01132 9.52054 16
467 2 -2.41124 6.07411 -6.69388 15
468 2 -9.14845 -11.4726 10.7032 12
469 2 -1.73692 5.76691 15.6479 14
470 2 -5.0923 -12.58 -0.9048 19
471 2 3.63628 1.94964 9.75816 19
472 2 4.42575 -10.3962 -7.84613 18
473 2 -1.83901 -8.6673 -2.56296 16
474 2 -3.27351 -2.36645 14.043 18
475 2 3.08119 -14.6069 9.74049 12
476 2 11.0207 -7.11267 6.91558 14
477 2 -9.96821 -1.08188 15.0153 9
478 2 -8.12548 -4.04389 11.3 14
479 2 -12.0236 -5.5635 11.9719 8
480 2 -6.72888 8.35391 5.73593 17
481 2 -2.8909 -6.60206 18.323 9
482 2 1.81132 -0.605592 -7.79982 22
483 2 2.11684 1.89451 3.35193 19
484 2 -12.4746 13.2311 2.49535 19
485 2 -2.02116 -6.59473 1.72215 16
486 2 -2.26004 0.832252 4.53627 18
487 2 1.78429 -10.6745 -11.8883 17
488 2 -2.56351 -7.94439 12.789 19
489 2 8.43146 8.26554 -14.5658 11
490 2 -18.7409 1.53501 1.03864 10
491 2 -5.01135 6.02099 3.3093 21
492 2 -10.7083 0.868152 9.00205 15
493 2 1.61649 6.20384 7.47073 19
494 2 -7.52204 -2.1572 17.1306 13
495 2 -2.97451 -8.62918 16.1794 13
496 2 -1.48873 15.6208 1.81318 19
497 2 6.36832 -9.25614 5.1051 19
498 2 1.7998 -0.442973 14.5036 18
499 2 7.93547 7.61826 12.0701 13
500 2 -3.42939 4.16854 5.26681 18
501 2 -9.09973 2.71184 4.22322 17
502 1 -5.80005 2.88367 -11.7938 19
503 1 8.14804 -2.04111 -14.318 14
504 1 -18.0198 2.35486 2.62207 8
505 1 -8.64331 2.68953 -11.0735 18
506 1 -16.0158 -7.97591 -5.35258 12
507 1 -14.475 0.507194 -5.7331 16
508 1 -12.5088 4.86969 -2.75683 18
509 1 -3.14165 7.0824 -11.1997 19
510 1 -9.2788 -5.1231 -5.22156 15
511 1 -4.42132 11.0243 11.8579 14
512 1 -13.086 0.0410542 -8.65335 15
513 1 -15.9277 -1.62789 -1.14326 19
514 1 -10.0158 10.8757 -8.39758 17
515 1 -7.77873 3.49316 -4.3847 20
516 1 -5.45883 6.78688 5.74564 19
517 1 -15.9058 -1.15329 5.50054 16
518 1 -13.863 13.9403 3.54892 14
519 1 -12.6961 4.52739 2.65139 17
520 1 -3.73457 -0.357923 15.436 17
521 1 -12.8992 -2.62142 -5.80905 20
522 1 -9.89447 0.0628309 -8.58167 17
523 1 -7.2883 1.61838 -6.54776 18
524 1 3.77281 10.2985 -6.28831 13
525 1 -2.86415 2.13107 -2.05574 18
526 1 -11.4617 7.42874 2.1127 17
527 1 -4.44955 9.26971 -4.1253 15
528 1 -9.53681 -2.66298 1.40389 18
529 1 -7.38309 10.0319 -5.56026 18
530 1 7.07932 1.80418 -17.0885 6
531 1 12.3504 -4.21763 3.07404 16
532 1 -11.5617 -0.00733397 -5.67245 20
533 1 -3.89393 -5.79075 0.973165 17
534 1 -10.3706 13.8188 -7.56094 10
535 1 -18.9159 -1.37312 -1.68295 12
536 1 -11.4212 14.7348 -1.88551 11
537 1 -12.7904 -8.36927 0.861609 22
538 1 -14.8837 14.1025 -0.980591 8
539 1 -9.95219 -9.93214 5.56429 19
540 1 -11.0122 2.41782 5.23032 18
541 1 -0.262252 10.1226 -9.31506 16
542 1 5.54103 -0.269893 -11.4276 19
543 1 -2.85418 13.1722 -4.42115 15
544 1 -10.4145 6.30209 -4.63817 19
545 1 -0.970173 7.39754 -13.3031 12
546 1 2.0998 14.5036 3.57919 14
547 1 -13.5192 12.2162 -11.3646 4
548 1 -10.6392 0.511417 0.0614667 18
549 1 -3.66843 14.8628 -1.47945 16
550 1 -18.8188 8.64968 8.84046 7
551 1 -13.4784 5.7437 -5.32159 17
552 1 -1.53462 12.4567 -10.2891 12
553 1 -10.7066 -2.45595 -3.28029 22
554 1 -11.5471 6.56642 -10.0061 10
555 1 -4.13217 14.4618 11.8293 10
556 1 -16.5812 8.53557 11.0622 10
557 1 -9.42801 4.91592 3.28988 21
558 1 -7.78978 17.4198 5.91891 9
559 1 2.34502 8.48766 -12.7957 17
560 1 -9.76168 11.6934 -11.1447 9
561 1 -1.44874 7.70561 5.35921 20
562 1 -16.1668 15.5493 2.18588 7
563 1 2.0205 8.087 -4.7658 17
564 1 4.5354 13.6712 15.5901 10
565 1 -10.2449 10.1411 0.0595145 15
566 1 -0.784101 9.97007 -12.6364 14
567 1 -4.08941 4.57677 -9.20521 21
568 1 -16.4947 6.62612 6.14126 13
569 1 1.00215 0.409463 -9.44305 18
570 1 -10.7983 2.88415 -9.3729 12
571 1 0.351277 18.0105 -1.58942 19
572 1 -14.496 3.06302 -7.48248 10
573 1 1.82797 11.5488 -13.824 9
574 1 -7.31461 -5.69087 -10.2439 17
575 1 -8.45463 3.45382 -13.7085 9
576 1 7.64395 6.92233 -10.1599 21
577 1 -0.9614 3.1666 -9.10311 17
578 1 3.12363 -2.52809 -4.18275 17
579 1 9.30489 1.04196 -7.6384 17
580 1 5.16631 1.77453 -3.78268 21
581 1 -8.61304 -10.2298 -0.671283 21
582 1 -3.70466 -3.91847 -1.35548 17
583 1 0.93226 2.24442 4.60052 23
584 1 -2.02481 10.4554 -3.17513 15
585 1 2.32396 3.08209 -9.13979 21
586 1 -10.7235 5.22129 -11.9065 9
587 1 -0.575774 12.5023 -1.72426 18
588 1 2.87019 -0.364175 -11.4419 18
589 1 7.78597 2.09328 -5.60479 21
590 1 -6.25524 5.61635 -12.2549 17
591 1 -6.69492 6.36979 -4.75809 18
592 1 -8.50718 8.17999 -10.4106 16
593 1 -15.9586 11.4019 2.6532 6
594 1 -5.35184 9.60393 -11.5453 13
595 1 -12.0527 12.0199 -6.01123 14
596 1 2.37735 6.11448 2.60062 19
597 1 -14.0531 -3.26948 -9.00352 10
598 1 2.46931 6.60932 -8.62756 17
599 1 2.6678 -0.302446 -1.93353 20
600 1 6.28966 -0.0753723 -6.06434 19
601 1 -0.0422257 -1.11651 -4.58672 21
602 1 2.27985 16.7319 -4.2401 18
603 1 -2.89524 17.2851 -0.912538 19
604 1 -4.26549 7.06833 -6.36127 15
605 1 -2.01914 11.0019 -6.17464 15
606 1 11.3067 14.6962 -5.58261 6
607 1 -2.72856 16.4366 8.66024 16
608 1 -6.86805 24.3649 1.70272 5
609 1 4.59261 10.6084 -14.4055 10
610 1 3.44755 18.5051 -1.4784 13
611 1 1.78059 7.48762 5.18186 20
612 1 -15.8557 4.69495 2.94071 14
613 1 -3.1474 16.7063 -6.71678 10
614 1 -5.02053 12.0873 -6.52255 20
615 1 -6.49063 17.5973 -1.39984 11
616 1 8.6237 8.10733 -3.6915 22
617 2 -6.39844 -1.6797 -10.5861 18
618 2 1.2629 -6.87354 -5.44502 21
619 2 -5.92157 -6.49352 -11.551 13
620 2 0.824686 3.32337 -12.7711 17
621 2 16.685 -0.140912 -11.1232 12
622 2 -12.6001 0.611608 0.928647 18
623 2 -7.63234 -12.0138 -10.8816 9
624 2 -11.764 -9.26339 2.17527 19
625 2 -10.836 -4.19343 -4.49672 17
626 2 -17.74 -5.90611 -1.71414 10
627 2 -13.8193 7.52213 -4.87869 14
628 2 -12.3262 -8.43473 -1.05465 19
629 2 -10.9995 -13.7743 -6.80099 11
630 2 -0.164224 2.01813 0.974252 18
631 2 -7.26589 3.50022 -6.39867 16
632 2 -7.24707 1.37563 -11.8552 16
633 2 -17.0631 9.86457 8.99835 10
634 2 -10.2286 -1.73942 -10.6738 14
635 2 -14.2904 3.70255 3.29067 13
636 2 1.39157 4.16899 -4.5317 19
637 2 -15.9747 -0.930929 7.45482 13
638 2 -3.24089 3.63056 1.36522 18
639 2 -8.38458 14.4142 -7.4497 11
640 2 -6.18863 11.6519 2.09511 18
641 2 -1.6287 5.74116 -12.6005 16
642 2 -12.4411 1.57462 -5.41064 20
643 2 -5.01036 0.213803 -13.7717 14
644 2 -16.6116 1.88978 3.70977 9
645 2 -3.64489 13.6338 -10.1022 9
646 2 -7.1836 7.08244 -11.6935 14
647 2 7.10226 -1.16888 -12.0122 14
648 2 -9.30695 4.06278 -12.3291 14
649 2 -1.0885 10.0391 -7.56933 16
650 2 -8.90091 8.29264 -2.73532 18
651 2 -1.58101 6.17074 3.87432 22
652 2 -4.63343 7.93211 -12.3469 14
653 2 -3.80386 10.8065 -11.0171 14
654 2 -16.309 -6.18592 -5.45995 10
655 2 -14.3836 5.106 -3.09568 13
656 2 -19.8746 -1.19831 -0.214256 9
657 2 -11.651 2.93113 2.51894 19
658 2 -7.75823 9.37913 -7.1593 18
659 2 -13.8693 -1.49005 2.86611 18
660 2 -10.2272 12.7847 -5.5987 15
661 2 -3.78502 7.34662 -4.19704 18
662 2 -6.99416 5.12446 -2.86474 16
663 2 -6.21549 -1.79107 -3.38565 19
664 2 -4.37028 10.4172 -7.05441 17
665 2 1.24075 9.97708 -12.8844 16
666 2 -15.448 6.62637 2.51169 13
667 2 -12.6708 2.93332 -2.73577 19
668 2 -7.30366 4.97449 2.44291 18
669 2 -13.7939 -7.60958 3.55089 18
670 2 -13.0834 -3.2745 0.418529 22
671 2 -12.7334 10.9349 -3.86137 15
672 2 6.23949 17.2472 2.52267 10
673 2 -14.9796 15.1894 0.633275 11
674 2 -1.83361 -7.73315 -7.16876 20
675 2 -8.86036 10.3505 4.80299 19
676 2 -8.24105 6.23403 -0.217941 16
677 2 -4.21995 21.6281 5.51714 7
678 2 1.24603 4.53589 2.00023 19
679 2 -8.38769 6.31154 -5.83617 16
680 2 0.488261 20.9155 3.79835 11
681 2 5.16147 -7.60527 -10.5519 17
682 2 -12.145 -1.43349 -7.16689 17
683 2 -6.54073 12.215 -5.13182 19
684 2 -4.17354 -8.73867 -10.5468 16
685 2 -11.3 10.0375 -7.28364 16
686 2 3.97447 4.37844 -11.9169 19
687 2 -12.3831 13.4593 -7.35566 8
688 2 12.4932 -2.74584 -7.56308 19
689 2 6.46216 -1.9475 -14.7433 12
690 2 -13.3014 -0.863135 -4.85138 19
691 2 -9.99358 2.57934 -4.01009 18
692 2 2.07943 9.87206 -5.76176 12
693 2 -7.00377 -8.07548 -3.45396 14
694 2 6.44646 -5.34791 -4.80477 19
695 2 -0.22941 -1.53777 2.51479 17
696 2 10.551 4.61455 -12.1086 17
697 2 -0.976831 0.570383 -6.16672 17
698 2 -1.36536 0.660157 -1.75091 16
699 2 6.89406 1.77733 1.19214 18
700 2 0.502587 16.7163 -2.97138 16
701 2 -12.8926 -13.4476 -1.56836 13
702 2 -1.76883 14.6904 -1.63438 18
703 2 -6.87885 4.00239 -13.1865 11
704 2 -5.51269 5.62739 -6.37121 17
705 2 16.1171 2.4555 -8.94004 13
706 2 -10.6997 8.28794 0.356206 19
707 2 -5.37301 13.6295 -7.67782 17
708 2 -8.11597 -1.05009 -13.001 11
709 2 3.27127 3.01213 -15.2101 11
710 2 -10.9056 -4.06425 -9.1645 13
711 2 0.663722 18.8868 5.63061 15
712 2 -13.0424 -0.44421 8.25679 11
713 2 -0.612237 3.07746 -2.31419 16
714 2 -10.4433 13.5401 -2.75068 15
715 2 -8.76617 10.5408 1.5961 19
716 2 1.65859 8.6982 -2.79379 17
717 2 -3.17981 8.73006 -1.97142 15
718 2 9.20022 3.17428 0.60239 17
719 2 10.9835 10.6539 -6.40115 15
720 2 -9.90509 12.7503 -9.37942 12
721 2 -9.74545 7.55544 3.14034 20
722 2 -1.55415 16.016 -7.21755 10
723 2 -14.656 -0.116814 -1.48695 18
724 2 -4.70005 16.6316 -1.6549 14
725 2 -2.47549 9.58452 -4.82729 20
726 2 0.438296 15.4346 -0.113676 17
727 2 -1.27662 18.4424 3.58007 20
728 2 -7.92381 6.85566 -8.79576 15
729 2 -3.76853 13.6029 0.00192484 17
730 2 0.0632499 7.6291 -5.35148 19
731 2 -12.1761 16.7955 1.75295 11
732 2 -1.60278 15.9163 6.18976 23
733 1 -12.3074 -6.18605 10.0097 12
734 1 -10.4261 -14.0453 3.00834 10
735 1 -12.7565 1.26777 2.65938 17
736 1 -16.0358 -7.2472 3.87119 16
737 1 -13.1876 9.53628 10.2864 13
738 1 -12.6573 12.0789 -2.48197 13
739 1 -12.6156 1.27137 -3.34825 20
740 1 -13.548 4.68951 5.51464 13
741 1 -15.9694 9.1412 7.15686 13
742 1 -9.79136 4.47231 11.4216 15
743 1 -12.9477 10.4039 6.75109 15
744 1 -6.29412 0.802512 7.49203 21
745 1 6.04608 6.27244 13.9727 11
746 1 -12.7376 12.7735 8.88254 14
747 1 -15.4265 -9.72572 -2.1349 12
748 1 1.10621 12.8989 0.563777 19
749 1 -2.32182 11.3023 5.33486 17
750 1 -14.5032 0.595187 8.02613 12
751 1 -11.7549 7.4829 -1.16597 19
752 1 -7.37883 10.2079 -8.99316 18
753 1 -9.06029 14.3836 0.563599 15
754 1 -6.29286 14.9277 -6.83927 13
755 1 2.95001 7.12456 13.4969 16
756 1 -9.48179 0.591313 15.5823 10
757 1 -6.68588 4.69023 12.9301 13
758 1 -15.3243 8.36682 3.5692 10
759 1 -8.10412 12.0187 2.63681 20
760 1 7.55757 -11.3571 -5.10795 14
761 1 -10.3276 14.2282 11.0694 11
762 1 -1.3651 -0.59067 3.90281 21
763 1 3.34476 8.83506 7.16376 19
764 1 -9.15669 0.849227 8.04296 18
765 1 -11.4631 5.79251 9.30986 13
766 1 -13.6622 -4.19307 11.65 7
767 1 -7.12979 3.29692 10.6538 16
768 1 -8.10546 13.0115 6.19414 20
769 1 -9.71898 3.70263 8.64148 18
770 1 -7.01865 1.83073 13.8527 15
771 1 2.28982 4.40647 16.8836 9
772 1 7.1949 3.17084 11.6523 17
773 1 -9.52252 -12.9047 6.28986 12
774 1 -4.29536 5.89289 11.5412 22
775 1 -0.362749 -7.76837 11.7142 18
776 1 -0.249222 5.88071 14.4374 19
777 1 -12.0858 8.47163 -6.80929 15
778 1 0.198718 19.3418 2.57395 13
779 1 0.187139 6.97597 11.8025 17
780 1 -3.0939 5.35071 0.517506 16
781 1 -13.2936 -9.45012 3.81108 13
782 1 -14.5614 6.71192 -1.90378 13
783 1 -6.64795 20.9578 1.84437 12
784 1 -13.7794 13.8998 -8.46919 5
785 1 -6.06515 11.6686 8.13047 18
786 1 -10.9861 7.99701 11.1072 9
787 1 -5.6291 9.98371 5.69264 19
788 1 -14.9167 3.93154 8.342 10
789 1 -14.2505 7.07886 1.10224 14
790 1 -13.1636 7.48263 7.77168 14
791 1 -0.0148732 16.1154 7.516 15
792 1 2.50863 11.0628 15.8529 12
793 1 -0.0225142 5.70335 7.87635 17
794 1 -8.58714 7.10656 7.94307 14
795 1 -9.72831 9.62396 3.20147 18
796 1 -3.1457 9.34724 2.96336 20
797 1 2.08089 19.2676 -4.73973 12
798 1 -6.01496 13.7284 -4.14823 13
799 1 -3.6819 22.4509 0.886571 10
800 1 -9.90423 15.4303 7.9957 13
801 1 -17.687 6.00449 9.55874 8
802 1 -6.93874 10.1084 13.2105 11
803 1 -3.10453 10.967 8.18035 18
804 1 -1.1406 14.4095 0.280871 13
805 1 -0.682768 15.1455 10.9515 14
806 1 -3.61056 8.60474 -0.069555 14
807 1 -2.80764 12.2411 0.939624 19
808 1 -8.53827 7.60949 -7.23473 19
809 1 7.26242 3.35622 -2.56235 19
810 1 -1.67704 -11.4916 6.18466 17
811 1 -13.0593 9.05386 -4.02854 13
812 1 -6.7473 9.92915 2.42307 20
813 1 -3.17455 16.556 1.88183 17
814 1 -3.32237 -8.95769 7.28835 21
815 1 9.34642 12.2475 3.33795 11
816 1 -8.04188 -7.4514 11.9496 15
817 1 -1.90102 8.9596 12.827 18
818 1 0.719945 8.09246 8.35539 18
819 1 -1.56678 1.68586 14.4879 14
820 1 8.496 5.98823 11.4052 18
821 1 -7.76793 10.1846 10.4002 17
822 1 1.0197 12.5421 11.5185 19
823 1 -0.98598 -0.463874 17.2095 11
824 1 -5.55207 5.67688 8.96613 18
825 1 -1.79988 -7.66889 17.123 10
826 1 -14.9329 3.15354 -2.96999 17
827 1 1.75146 13.1296 -9.05609 12
828 1 2.73827 8.55257 -0.798584 19
829 1 -10.2644 11.6765 5.07688 20
830 1 -4.3635 0.290958 4.73907 17
831 1 7.37601 13.7284 -0.107823 16
832 1 -2.29847 2.50528 5.23863 20
833 1 1.9814 13.4546 13.9996 12
834 1 -4.62662 8.99683 10.5454 20
835 1 -7.31965 17.1349 1.38585 12
836 1 0.873142 5.90196 0.486516 20
837 1 0.0209017 15.0629 -7.73444 10
838 1 -3.20784 5.67982 6.47965 20
839 1 3.26099 6.60531 8.83855 15
840 1 -10.7109 17.0011 0.789251 10
841 1 -4.6867 11.8417 3.33333 17
842 1 -15.6926 10.8002 9.95233 10
843 1 -6.48576 14.0317 3.87513 17
844 1 -6.82769 13.6376 11.7605 13
845 1 -7.93969 13.3346 8.95347 19
846 1 -8.00409 16.7671 -4.41118 9
847 1 -4.92125 2.02281 -4.37015 18
848 1 -8.40495 6.94586 1.52883 19
849 1 -5.75186 13.5675 1.20761 18
850 1 -11.5935 12.712 0.966568 17
851 1 -10.0994 9.09401 -3.98402 20
852 1 -11.4741 11.4199 11.8474 10
853 1 8.15529 -1.33811 4.22914 14
854 1 -1.30067 7.0378 2.22885 20
855 1 -4.82766 16.7963 -3.61683 15
856 1 1.04748 -0.974007 9.48888 20
857 1 -12.9348 9.934 3.09953 15
858 1 4.17153 14.1856 1.14219 17
859 1 3.96098 13.0228 11.6956 19
860 2 -8.44393 -2.66496 13.9595 15
861 2 -9.23131 10.6819 -1.89893 14
862 2 -14.9191 1.83609 -4.17196 16
863 2 -13.042 8.25592 -2.10535 15
864 2 -11.3754 10.0981 4.18325 14