ITEM: TIMESTEP
326000
ITEM: NUMBER OF ATOMS
2000
ITEM: BOX BOUNDS pp pp pp
-30.0 30.0
-30.0 30.0
-30.0 30.0
ITEM: ATOMS id type x y z Coordination
1 1 -13.6891 -8.69498 -9.76929 9
2 1 -16.8053 -0.0511239 9.59161 11
3 1 -7.41156 10.6465 16.043 11
4 2 -13.2292 -4.85291 -4.39587 14
5 2 -6.0273 -3.45136 -5.96355 20
6 2 -7.48601 14.0446 9.23614 12
7 1 -11.0242 -8.65897 -4.56656 17
8 1 -3.89134 -8.06118 12.8588 13
9 1 11.5708 -9.06458 3.19368 20
10 2 -4.91531 -10.4814 3.0056 20
11 2 -1.33144 -15.6411 9.20358 10
12 2 1.69939 -13.0662 -4.89337 18
13 2 12.3767 -2.04277 -14.0622 9
14 1 -0.48742 -6.54928 -12.0696 18
15 1 -5.0295 2.30072 -18.9718 8
16 2 -7.05947 -9.48826 -14.4227 10
17 1 3.97561 -16.5431 4.71059 15
18 1 2.35224 2.37745 -13.5983 18
19 1 0.66926 -17.1639 4.90042 11
20 1 -8.48495 -11.8886 -0.396338 20
21 1 -14.7395 -7.30803 -7.51594 12
22 1 -4.15705 -16.2456 -8.37596 13
23 1 -5.65517 -11.1644 -1.5367 22
24 1 -10.8485 -13.3122 4.06631 5
25 1 -5.21865 -16.2436 3.55587 9
26 1 -6.03868 -13.699 2.11817 20
27 1 -12.0047 -14.3411 -3.8462 12
28 1 -10.2335 -9.26219 -7.44368 22
29 1 -8.54988 1.21948 -3.86536 19
30 1 -2.59138 -7.39053 7.4918 19
31 1 -12.3948 -11.9026 -10.6867 10
32 1 -11.877 2.41609 -2.43688 18
33 1 -8.14443 -10.1487 -2.77374 18
34 1 -16.499 -0.137125 -0.951099 9
35 1 -12.9566 -13.7376 -6.44613 13
36 1 -14.7638 -11.152 -7.75766 11
37 1 -6.98978 0.994094 -7.49555 19
38 1 -7.03368 -14.4522 -0.856446 14
39 1 -10.4806 -8.9542 -1.94574 15
40 1 -1.67261 -19.114 -4.14064 12
41 1 -8.60535 -9.55601 -13.3608 11
42 1 -3.78815 -16.6467 -5.2618 16
43 1 -5.86891 -14.6066 -6.53267 19
44 1 3.91744 -10.6146 -14.5903 13
45 1 -6.54294 -16.1504 -3.83035 12
46 1 -0.496771 -15.0709 2.40066 20
47 1 -14.1989 -4.37336 -6.29679 15
48 1 -10.3976 -11.6193 -4.88107 22
49 1 -2.7551 -13.2655 -9.76959 16
50 1 -9.09225 -15.6532 -5.41669 14
51 1 -11.2716 -11.3994 -8.01415 20
52 1 -3.09942 -5.42558 -7.29331 17
53 1 -9.19663 -14.2394 -2.86065 16
54 1 -3.33941 -15.4127 0.566682 15
55 1 -11.7378 -4.50629 -1.5887 15
56 1 -13.4349 -9.94376 -5.87895 17
57 1 -6.46098 -7.45557 -2.63077 20
58 1 -2.10234 -8.2337 -9.03919 17
59 1 -4.73788 -8.57995 -4.96524 15
60 1 -6.2593 -13.4165 9.48941 13
61 1 -5.37619 -11.5889 -7.99274 18
62 1 -6.4232 -8.12761 -15.5928 9
63 1 -8.26025 7.86039 -10.4348 13
64 1 -6.4622 -10.8563 -11.1994 14
65 1 -9.13073 -6.17071 -3.81134 17
66 1 -15.5297 1.8593 -7.3628 10
67 1 -4.82088 -1.49531 -12.5014 19
68 1 -5.87289 -4.47533 -11.921 18
69 1 -11.9342 0.910469 -14.9357 7
70 1 -6.08672 4.34255 0.218597 20
71 1 -7.76664 1.90602 -10.5288 18
72 1 -11.4775 -2.14124 -9.3772 16
73 1 -9.91926 -4.13443 -11.6379 12
74 1 -8.31221 -8.3465 -5.19796 22
75 1 -13.1663 3.86007 -7.8512 11
76 1 -8.40062 -7.67778 -8.45563 16
77 1 0.765768 -2.66235 -2.10209 22
78 1 -9.47839 0.118812 2.23357 20
79 1 -3.16503 -10.5368 3.89321 18
80 1 -9.96398 -3.38376 1.14373 19
81 1 3.51563 -13.2824 -12.9868 11
82 1 -10.2994 -8.91857 -10.9597 15
83 1 4.94729 -11.5453 -8.18124 18
84 1 2.41597 -13.2526 -9.15847 17
85 1 -7.37229 -16.5885 -7.77581 9
86 1 0.612799 -14.8555 -12.0543 11
87 1 -0.0702029 -6.35802 -7.0269 14
88 1 -8.88244 -11.3733 -9.99085 16
89 1 2.65444 -11.8688 -6.17601 18
90 1 5.74174 -17.3456 1.83899 14
91 1 3.86371 -9.16957 -4.76798 20
92 1 -7.25971 -12.8608 -4.26037 18
93 1 5.16116 -11.7012 -4.43117 18
94 1 -5.07609 -3.35772 -8.06311 17
95 1 -1.69777 -10.0817 -12.3511 17
96 1 -4.02397 -10.7752 -10.2835 16
97 1 -0.863823 -11.5271 -7.55367 19
98 1 -0.239194 -6.78417 -15.4414 13
99 1 -6.92041 -13.566 -9.59834 14
100 1 -7.90381 -6.51758 -11.3791 13
101 1 -9.01783 -6.35044 -15.9319 5
102 1 0.649996 -12.11 -13.973 15
103 1 -2.52237 -0.724828 -15.5057 19
104 1 -5.14651 -9.47404 -13.727 14
105 1 -3.97502 -2.67819 -5.52117 20
106 1 -3.6799 -9.49312 -0.610477 20
107 1 -2.36489 -18.5764 -8.0253 10
108 1 -4.31825 -11.7553 -4.17014 16
109 1 1.15066 -9.51507 -6.75542 18
110 1 6.15664 -4.2287 -4.08917 19
111 1 -5.63938 -4.5811 -2.79735 19
112 1 0.650867 -9.84072 -4.03221 18
113 1 -1.87229 -4.70673 -16.5107 11
114 1 4.85694 -6.40827 -18.1184 14
115 1 -6.15108 3.92843 -9.80887 21
116 1 -4.22934 -5.72725 -14.6166 16
117 1 8.40908 8.10181 -9.86947 16
118 1 3.41351 -4.28696 -19.7777 9
119 1 -11.9232 -0.0452271 -11.7562 11
120 1 -5.13662 -2.69118 -15.1299 12
121 1 -7.63606 -2.51006 -6.12513 17
122 1 -6.00174 1.33087 -1.86265 23
123 1 -11.286 -2.57768 -6.63096 18
124 1 0.398576 -6.0769 -3.87564 20
125 1 -5.81336 -1.73074 -9.73249 20
126 1 -2.41334 -2.92155 -8.55483 17
127 1 -6.49149 -5.79792 -0.236858 15
128 1 -4.54292 2.58401 -7.07947 18
129 1 -2.96946 0.1006 -3.57142 18
130 1 -5.37628 1.00426 2.31559 18
131 1 -4.56646 -1.48904 -0.605902 19
132 1 -4.67555 -7.74763 -11.6068 17
133 2 -5.19441 -9.79041 0.292531 17
134 2 -13.2688 -11.4621 -8.68708 13
135 2 -1.21277 -15.123 -4.71176 15
136 2 -4.49168 -7.87443 7.23633 19
137 2 -10.3511 -4.57495 -3.1869 16
138 2 -4.42194 -14.0401 9.38001 14
139 2 -7.57799 -10.503 4.77485 15
140 2 -14.1489 -7.45192 3.84174 13
141 2 -9.33725 -0.915756 -3.07535 18
142 2 -5.98225 -12.5195 -0.360917 18
143 2 -12.6945 -7.91232 1.55194 15
144 2 -12.9283 -7.67502 -4.90354 18
145 2 -12.0145 -4.58033 -6.97135 19
146 2 -13.5706 -14.377 -4.71666 7
147 2 -16.696 -2.38524 2.95366 11
148 2 -11.4437 -10.2483 -5.5766 23
149 2 -13.5583 -11.9197 -2.75668 12
150 2 -12.2893 -9.41159 -1.9517 15
151 2 -9.81635 -4.13722 13.1574 19
152 2 -7.49444 -7.01696 1.16514 16
153 2 -3.80569 -10.6544 -2.49379 14
154 2 6.45786 -13.2908 -4.23742 19
155 2 -9.82371 -10.8966 -1.74037 16
156 2 -4.30005 -6.96773 -4.41382 18
157 2 -10.6346 -4.05353 -9.79369 16
158 2 -3.03012 -16.7925 -1.07836 11
159 2 -1.64403 -4.96296 -12.4202 17
160 2 -4.6006 -14.941 2.26772 14
161 2 -6.46287 5.17389 -13.1802 15
162 2 -7.29278 -5.23928 -3.09603 17
163 2 -9.8101 -15.6964 -3.66391 10
164 2 -3.76623 -4.38924 -8.79791 18
165 2 3.07487 -12.9349 -11.1584 16
166 2 -1.52384 -6.64584 -8.05074 17
167 2 -0.233783 -11.4277 6.12392 17
168 2 -7.91583 -7.55651 -16.319 6
169 2 -10.247 -7.56233 -6.05517 17
170 2 -2.86119 -18.1468 -6.1254 11
171 2 -8.55318 -11.1957 -4.68058 17
172 2 -14.4681 -10.0547 -4.23306 14
173 2 -7.36272 -3.04318 -1.30061 19
174 2 -7.81105 -4.69591 -11.3887 17
175 2 -7.21218 -15.042 1.35749 12
176 2 -2.10145 -18.8422 -2.20226 10
177 2 -4.51155 -6.87127 3.36205 19
178 2 -3.4554 4.00319 -10.3178 18
179 2 -8.54791 -13.5802 -0.88721 18
180 2 -10.1552 0.730671 -15.5775 8
181 2 -8.85144 10.9948 -6.58906 13
182 2 -8.33012 -10.5797 -11.6533 13
183 2 4.56352 11.5541 -10.1994 18
184 2 -9.62838 -2.55067 -12.7955 13
185 2 -7.03077 -0.41325 -15.1337 15
186 2 -8.36743 -9.33828 -6.85561 21
187 2 -6.83478 -7.23069 4.47696 16
188 2 -4.34351 7.85561 -6.64221 18
189 2 -12.461 6.62174 -4.55503 15
190 2 -10.2985 -3.72787 -0.617593 18
191 2 -8.63029 5.36057 -7.65816 20
192 2 -11.1649 5.00608 0.594836 17
193 2 -4.96406 -6.18749 -1.63994 17
194 2 0.661316 -10.1884 -1.93569 17
195 2 -6.77366 -8.53515 -4.28752 19
196 2 -12.1043 3.47688 12.7962 13
197 2 -14.1397 -11.9738 -6.20071 14
198 2 6.08395 -7.90679 -11.3422 17
199 2 -4.70989 -17.2974 -3.76488 10
200 2 -6.53529 -14.9218 -8.35783 14
201 2 -6.62651 -11.5437 -3.1038 19
202 2 10.6936 -7.98361 -9.05077 15
203 2 -9.44311 -3.18171 -6.95168 17
204 2 -4.47097 -15.7106 -6.69241 16
205 2 1.1165 -13.8939 -2.3526 17
206 2 0.831584 -5.06543 -10.9183 15
207 2 -9.5267 -7.91775 -3.51315 20
208 2 7.40388 -10.5557 -3.03222 23
209 2 5.63641 -9.81205 -15.0677 12
210 2 -0.0557946 -10.2828 -13.1296 18
211 2 -3.69451 3.71998 -13.7578 20
212 2 -14.3483 -9.16312 -7.75721 13
213 2 -1.78537 -14.7451 -7.62715 21
214 2 -8.71035 -4.87242 -15.1525 7
215 2 -6.18313 -12.5963 -6.3835 17
216 2 -4.8628 -6.62539 -7.10839 17
217 2 -10.7457 -12.2385 -10.0255 12
218 2 2.45343 -7.92257 -10.952 16
219 2 -3.10774 2.86879 -18.7149 11
220 2 -3.49253 -2.06356 -13.7714 19
221 2 4.22142 -11.1355 -12.5711 17
222 2 -7.67409 -0.718287 -7.02197 15
223 2 -11.4246 -13.3376 -7.38538 15
224 2 -8.52737 4.45969 4.14352 20
225 2 1.26849 -7.57192 -7.18289 18
226 2 -9.03163 -15.4514 -7.20363 10
227 2 -7.89101 -5.82765 -5.52101 20
228 2 -0.583475 0.988438 -10.8993 16
229 2 -5.88075 -12.0015 -9.90017 15
230 2 -9.96526 -1.0405 -10.1563 17
231 2 3.52445 -1.50165 -11.9293 18
232 2 5.87875 15.8328 -13.3734 7
233 2 -0.310019 -1.74025 -12.9239 18
234 2 -5.15995 -9.688 -11.6229 16
235 2 -6.05632 2.51591 -11.3889 19
236 2 -4.09084 -1.82909 -8.46837 19
237 2 3.89131 -8.14789 -17.812 11
238 2 -5.01538 -3.37389 -10.7426 17
239 2 -1.56373 -1.56337 -6.94182 16
240 2 -12.4465 -2.67347 -2.27718 17
241 2 -7.38041 7.08982 5.28465 17
242 2 0.237125 -2.3169 -0.346011 18
243 2 3.12433 2.69363 -9.25094 21
244 2 -2.10565 -4.87377 2.71958 19
245 2 7.40314 -10.2975 -5.7306 17
246 2 -2.6212 -3.98077 -6.4372 19
247 2 8.55173 -1.24667 -1.59154 19
248 1 -7.22384 -10.1188 9.57001 18
249 1 -8.7619 -7.89227 15.2046 11
250 1 -8.38531 -11.5061 3.20933 15
251 1 -11.6698 -6.3538 -5.74595 21
252 1 -13.1464 -8.75602 2.95707 11
253 1 -10.619 -2.26295 -3.12797 17
254 1 -8.28159 -9.97065 6.52495 17
255 1 -4.03721 -18.0814 -1.99431 10
256 1 -16.1975 -5.55675 8.83211 11
257 1 -13.9017 -8.29922 5.85286 12
258 1 -9.30896 5.46734 0.645268 23
259 1 -17.417 -0.539375 7.01989 9
260 1 -13.5957 -1.891 -1.1471 16
261 1 -14.1447 0.489998 10.3028 16
262 1 -15.6207 -3.35193 1.42561 14
263 1 -12.459 -10.166 8.88692 11
264 1 -7.23459 -0.0396659 4.7264 19
265 1 -13.1419 -4.55031 9.83417 15
266 1 -15.0901 -5.94298 3.13852 16
267 1 -10.7466 -6.30859 14.2588 12
268 1 -9.76743 -4.6543 6.21869 17
269 1 -6.36396 -9.21065 3.93104 19
270 1 -9.38807 6.59555 5.59935 17
271 1 -11.2562 -12.4463 11.298 8
272 1 -1.18592 -16.5506 -0.552528 16
273 1 -6.33956 4.60786 9.72719 18
274 1 -7.82879 -11.2843 -6.43167 18
275 1 -12.3452 -1.40594 1.49723 17
276 1 -3.17748 -13.27 13.0155 9
277 1 -0.517539 -18.874 -1.27825 11
278 1 -2.4049 -16.2864 5.92583 11
279 1 -2.66015 -12.2663 1.13446 22
280 1 -17.854 -3.38246 7.33997 10
281 1 -8.72733 -14.7264 11.0773 8
282 1 -7.26549 4.40581 6.17918 19
283 1 -3.10829 -14.9373 10.3234 9
284 1 -6.47128 -6.1133 2.75872 18
285 1 -11.8529 -11.5881 -1.80096 13
286 1 1.92623 -11.7988 -1.95486 16
287 1 -5.67426 -11.4204 1.35218 20
288 1 0.452831 -9.85698 9.36729 15
289 1 0.354361 -7.405 7.72334 20
290 1 -2.97109 -7.63803 2.29373 19
291 1 -15.3779 -5.21991 5.95669 16
292 1 -6.73976 -4.04751 7.65881 17
293 1 -10.9598 -5.20311 3.76873 17
294 1 -4.71373 -9.74834 7.28611 22
295 1 -10.4799 8.82765 7.80821 19
296 1 -11.1927 -6.55681 8.95074 18
297 1 -9.46901 -12.6052 8.5395 13
298 1 5.0554 -8.86535 12.2836 17
299 1 -9.91131 -1.38347 15.9125 10
300 1 -7.33298 -1.35019 0.0425378 18
301 1 -15.4447 -6.47267 -0.452804 9
302 1 -11.1207 -1.52217 4.39513 22
303 1 -7.87842 2.85804 3.00055 23
304 1 -17.6327 -3.39453 4.15819 10
305 1 -16.3764 -0.614481 1.63437 9
306 1 -4.04416 -10.7797 9.95446 15
307 1 -9.58247 -3.17474 9.42557 19
308 1 -12.9181 -4.53815 7.11987 21
309 1 -4.54418 2.52828 5.00254 21
310 1 -4.89161 -7.84254 15.2244 8
311 1 -7.78236 -7.33926 10.3989 16
312 1 -9.84389 -9.15148 9.32567 15
313 1 -10.3045 2.76284 13.2314 14
314 1 -13.887 -7.51546 8.65137 13
315 1 -12.0973 -1.47883 9.8145 14
316 1 -3.69093 5.07878 13.4328 15
317 1 -0.809885 0.180921 15.6147 17
318 1 -6.53299 5.42608 19.7816 9
319 1 -7.10685 -8.80451 0.471664 18
320 1 2.41815 -16.896 -2.39426 18
321 1 -0.943408 -15.3856 -2.90586 19
322 1 -2.71573 -12.6816 -1.58062 15
323 1 -8.92307 -4.16174 -1.64081 17
324 1 -1.37656 -18.0935 2.39469 8
325 1 1.99004 -7.56226 4.69971 23
326 1 -0.0456248 -16.6363 8.2774 9
327 1 0.793294 -14.3884 -0.51451 18
328 1 -12.2548 0.227216 7.22798 17
329 1 -0.153491 -13.3709 6.33805 16
330 1 6.16016 -14.8183 7.18759 13
331 1 2.65249 -14.8979 6.83633 16
332 1 -6.71753 -14.747 13.3509 5
333 1 -6.22257 -6.33875 13.5898 16
334 1 1.07982 -12.2462 12.9733 10
335 1 -0.447749 -9.86819 -0.409246 19
336 1 0.289819 -0.930297 -7.23606 19
337 1 -1.08036 -9.66034 5.62591 18
338 1 -1.001 -6.70239 -0.466952 21
339 1 -4.89349 -6.78646 5.48766 21
340 1 -3.80056 -5.96198 0.0182818 18
341 1 1.58009 -5.18267 -0.697492 21
342 1 -0.187953 -5.69963 2.53686 20
343 1 -6.33456 -12.2265 5.46046 14
344 1 -3.4499 -13.9023 4.422 18
345 1 -4.14298 -5.48388 9.83084 19
346 1 4.37755 -5.16124 9.7623 19
347 1 -2.44487 -0.641744 13.5095 19
348 1 -2.89292 -5.42044 15.6121 12
349 1 3.13853 -2.51576 7.54664 17
350 1 -9.14739 5.6902 13.7827 18
351 1 -4.50815 -13.4858 7.42082 14
352 1 -5.8084 -12.0076 12.0768 12
353 1 -10.8064 8.11152 13.9742 14
354 1 4.63071 -14.2853 9.66061 14
355 1 -2.89205 -2.81893 -2.57036 15
356 1 -5.24534 0.312555 -5.14545 19
357 1 -7.92058 -2.8214 3.34315 18
358 1 -1.21984 -1.00047 -4.67577 21
359 1 -2.87489 -0.839412 1.48613 18
360 1 -9.50598 -5.73658 11.8364 16
361 1 -10.9073 -10.5494 5.52951 14
362 1 -6.61492 -4.35481 10.8344 19
363 1 -0.515073 -8.78131 2.36545 19
364 1 -8.20385 -7.21583 5.76623 17
365 1 -7.74707 1.72782 10.9026 20
366 1 -10.8926 -7.49621 5.35304 18
367 1 -14.2583 -2.34437 12.2235 8
368 1 -2.53913 7.9445 3.58895 17
369 1 -9.6493 4.02042 16.382 11
370 1 -1.72308 1.85908 2.87991 22
371 1 -9.38387 -11.8098 14.5954 4
372 1 -4.30793 0.456807 10.8004 17
373 1 -2.85568 3.7908 10.4365 18
374 1 -1.00461 -3.2784 14.8897 17
375 2 -6.60981 -14.4769 -2.81444 14
376 2 -10.4127 -7.77864 -0.45253 15
377 2 -15.7511 0.801981 0.746861 10
378 2 -10.2142 -13.9109 2.39574 8
379 2 -11.0567 -11.2118 9.69591 12
380 2 -12.243 -8.80232 5.00964 11
381 2 -4.02676 -11.3293 7.98106 16
382 2 -10.5796 -13.1379 -3.72297 16
383 2 -4.67763 -13.0054 5.59807 17
384 2 -1.6886 -0.376707 3.15621 21
385 2 -12.6775 -1.71083 -7.91341 15
386 2 -4.92787 -4.8296 1.04253 16
387 2 -16.4689 -2.02192 8.16715 14
388 2 -9.27146 3.39216 1.07691 20
389 2 -10.711 -0.066412 6.11054 19
390 2 -10.1419 -11.5551 4.17551 11
391 2 -9.36437 0.776084 12.4739 14
392 2 -7.96726 2.67931 6.8877 20
393 2 -3.93611 14.2452 8.56815 15
394 2 -11.9045 -8.26033 9.07206 16
395 2 -9.4091 4.8891 12.0885 19
396 2 -16.8762 1.08058 8.01631 12
397 2 -14.1908 -6.50261 10.2024 9
398 2 -8.15375 0.477306 9.57528 17
399 2 -8.64799 -12.3732 -8.30305 20
400 2 2.7271 -7.85474 2.99152 18
401 2 6.1083 -10.4487 11.8855 17
402 2 -13.7578 -2.56323 1.8355 17
403 2 -0.705203 -17.1667 6.43453 10
404 2 -0.111304 -16.9698 -2.13049 15
405 2 -6.55912 -12.9563 3.74796 15
406 2 -4.96325 -14.1851 13.5057 7
407 2 6.50017 -14.7343 9.25374 11
408 2 -15.3837 -7.78563 -1.90957 9
409 2 -1.64551 -1.76966 0.51845 19
410 2 -3.89692 -15.9738 4.7414 10
411 2 -7.92192 -10.8525 1.26449 18
412 2 -2.1053 -10.8258 -0.0717438 18
413 2 -14.7139 -5.65846 1.27832 14
414 2 2.31541 -16.257 4.76723 14
415 2 -1.21595 -18.4116 0.595013 11
416 2 -10.3789 -13.8845 10.5188 7
417 2 -12.8262 -5.12034 3.48463 18
418 2 -9.5228 -8.61049 6.20936 19
419 2 -12.8358 -1.80256 4.73802 15
420 2 -7.20969 -8.70656 -1.3816 20
421 2 -9.73552 -6.94557 10.207 14
422 2 -10.1575 -1.58273 10.5806 15
423 2 -9.78071 -7.51478 13.364 13
424 2 -3.83844 1.06541 19.1523 11
425 2 -9.76586 -6.12593 4.78204 14
426 2 -4.31565 -6.48744 16.5906 10
427 2 -6.0095 -11.1272 10.5651 14
428 2 -8.187 1.97903 -2.01943 22
429 2 0.344878 0.623993 -8.37214 20
430 2 -17.6892 -2.41662 5.85624 10
431 2 0.54984 -5.04728 -5.5124 15
432 2 -6.16199 -0.538513 -1.29211 17
433 2 -7.90028 -5.94228 7.01683 19
434 2 -14.3413 -6.4995 7.19245 16
435 2 -5.33423 -4.56375 6.50351 20
436 2 -11.2601 -5.59036 7.20701 19
437 2 -7.05084 -1.91654 4.69968 16
438 2 -12.2464 -10.6771 7.04779 13
439 2 -8.45933 -2.02952 1.59566 21
440 2 -10.6552 11.1098 10.1193 15
441 2 0.394738 6.87872 12.1914 20
442 2 -1.75003 -14.1776 5.7206 18
443 2 -3.06298 7.91232 7.96182 20
444 2 -10.3017 -12.0609 13.0588 8
445 2 -2.53766 4.588 6.73777 20
446 2 -2.42527 -13.0359 2.95528 19
447 2 0.176482 -7.61127 13.1944 11
448 2 -1.61396 -14.1652 12.1236 10
449 2 -1.69414 -11.9849 -5.84579 17
450 2 4.90814 -17.2332 0.0699197 14
451 2 -3.09162 -13.7435 -0.0794571 18
452 2 4.19119 -16.9841 2.86906 9
453 2 8.79953 -8.25082 7.2586 15
454 2 7.31543 -8.43448 10.4657 16
455 2 7.81518 -13.2002 10.892 10
456 2 0.149102 -13.331 2.88184 19
457 2 -7.49124 -6.07325 12.0233 18
458 2 -14.8029 -4.29022 8.63736 16
459 2 -6.67939 0.735068 17.9195 12
460 2 -6.93204 -13.9515 11.6627 9
461 2 -3.10143 -10.1385 6.06234 17
462 2 -5.81795 -5.32818 8.9697 17
463 2 4.91857 -10.8261 -0.049164 20
464 2 0.142462 -3.43951 3.40358 19
465 2 0.309457 -7.98213 5.87453 20
466 2 10.4805 -1.28928 3.37196 20
467 2 -2.77365 -7.45942 0.527039 19
468 2 -8.21796 -13.6505 9.52578 12
469 2 -4.37597 -1.08251 12.8224 19
470 2 -4.26148 -9.12275 10.9769 17
471 2 -2.0133 -2.75567 10.1815 17
472 2 -0.61582 -15.2188 0.524027 19
473 2 1.24639 -15.5586 7.86529 11
474 2 -3.20284 -3.69337 15.2745 16
475 2 5.21743 -14.3183 11.5857 9
476 2 5.90449 -12.6492 6.37715 21
477 2 -9.18068 -9.92339 14.5813 9
478 2 -9.65029 -3.15879 16.062 11
479 2 -8.08871 -0.0887687 6.29989 15
480 2 -5.371 10.8868 15.9822 12
481 2 -1.68764 -2.33579 13.3057 19
482 2 0.982077 -7.92443 -3.50856 23
483 2 -1.47447 -7.01789 -2.33919 20
484 2 -10.4694 2.64351 9.06936 19
485 2 -1.15769 -7.24561 3.15471 20
486 2 -5.08619 1.47281 7.00632 18
487 2 3.40056 -8.0683 -0.619816 20
488 2 -4.18527 -4.18962 11.3671 19
489 2 -2.88962 -1.85019 -4.27222 17
490 2 -14.0142 -3.62365 6.0208 17
491 2 -5.57019 8.34395 1.62826 18
492 2 -10.6077 3.0574 6.17068 20
493 2 -8.14502 -1.34506 13.7984 17
494 2 -8.81095 -9.22655 10.9673 15
495 2 -4.1139 -6.55635 14.1158 13
496 2 2.82548 6.31461 9.82627 23
497 2 2.75371 -3.75019 15.6657 13
498 2 -5.53123 -1.3723 16.0718 13
499 2 -2.43398 4.37643 12.1147 13
500 2 -7.15747 -3.92834 17.3096 9
501 2 -11.1282 -4.4334 9.74993 16
502 1 -2.1334 13.4763 -11.2217 12
503 1 1.55612 10.1764 -14.2862 10
504 1 -17.0663 1.53715 -4.07584 9
505 1 -13.1678 4.88135 -4.54983 15
506 1 -12.3004 -7.87294 -0.363714 13
507 1 -14.2516 2.08595 -4.63407 16
508 1 -11.6805 0.21984 -4.91064 16
509 1 -8.50154 3.2477 -7.35125 18
510 1 -11.6754 -5.97858 -8.53439 16
511 1 -9.07835 12.9817 8.00068 17
512 1 -13.7934 -0.907253 -6.673 15
513 1 -14.5146 -6.37851 -4.20117 12
514 1 -6.51746 2.75742 -15.941 12
515 1 -13.6463 6.98944 -8.78382 6
516 1 -13.5393 4.27857 3.12665 20
517 1 -12.3981 1.74023 3.78544 20
518 1 -14.9589 2.4235 4.96515 13
519 1 -5.63656 12.5432 -1.05409 14
520 1 -9.15685 -9.10655 12.7784 14
521 1 -15.2883 -1.00827 -4.54145 16
522 1 -9.03868 -0.323072 -14.9226 12
523 1 -0.710325 1.79022 -15.4522 18
524 1 -1.098 10.1761 -11.0854 16
525 1 -8.37123 -3.10606 -14.1206 11
526 1 -8.18989 10.7659 -8.5932 12
527 1 -10.5217 7.86256 -9.41249 13
528 1 -8.50531 -4.18615 -9.32768 20
529 1 -6.08978 9.47051 -9.31775 17
530 1 -3.34704 7.99678 -15.1555 14
531 1 -4.32562 6.08541 -6.06339 19
532 1 -5.70468 5.85532 -3.01606 17
533 1 -5.35342 -3.2361 2.06145 19
534 1 -12.0518 10.7589 -3.55497 10
535 1 -10.4604 6.62718 -3.76826 20
536 1 -8.40836 4.22033 -2.24393 20
537 1 -9.49548 -6.79868 0.881451 17
538 1 -9.4731 9.22543 -5.86839 19
539 1 -10.3895 -0.266965 -0.858294 21
540 1 -7.32596 -1.2179 -2.94056 18
541 1 -1.70816 10.2651 -14.9746 13
542 1 4.01683 0.988451 -2.9522 21
543 1 -4.1292 9.43094 -12.0015 16
544 1 -5.12733 4.80407 -14.5447 14
545 1 1.92916 7.3899 -11.4569 20
546 1 4.24456 15.2178 -14.0679 6
547 1 -4.09956 11.931 -13.2576 9
548 1 -11.1496 5.48862 -7.50193 17
549 1 -6.97723 16.3691 -0.769295 14
550 1 -11.8602 6.26937 1.9617 21
551 1 -11.5474 5.30566 -1.20066 21
552 1 -0.605274 15.7972 -9.64037 12
553 1 -6.59119 3.51343 -5.08676 23
554 1 -6.94246 6.49926 -8.34455 20
555 1 -4.04084 11.4097 5.16416 17
556 1 -10.5384 8.85383 -0.291459 21
557 1 -10.522 4.23961 4.212 23
558 1 -6.71691 17.5424 -5.00175 7
559 1 -1.5608 16.7222 -1.66679 18
560 1 -2.17407 5.13681 -14.9866 19
561 1 -1.41206 16.3371 -5.93849 13
562 1 -15.6783 5.96115 0.351263 8
563 1 4.78845 8.56935 -9.07032 19
564 1 -3.84488 12.7149 1.57285 19
565 1 -8.92478 12.3906 -5.3108 9
566 1 1.52868 14.7136 -11.5566 12
567 1 -0.609474 12.7069 -13.7294 13
568 1 -9.17239 9.99933 -2.84277 20
569 1 2.44867 -2.81391 -8.73938 17
570 1 -7.30438 3.66784 -12.6014 16
571 1 -4.85539 12.1939 -9.92893 13
572 1 -6.05684 8.26134 -6.4094 18
573 1 4.30217 11.1337 -13.1422 10
574 1 -6.98377 0.692097 -13.3607 19
575 1 -8.75358 -0.926089 -8.83382 16
576 1 0.0848826 5.06462 -10.2896 19
577 1 -1.19443 1.66325 -9.03739 19
578 1 1.48907 0.228362 -4.73416 21
579 1 -3.85082 4.46556 -12.1041 18
580 1 2.08893 0.271404 -1.52452 21
581 1 -8.94875 -5.18089 -7.02167 18
582 1 -3.73867 4.40695 2.95865 21
583 1 -2.97779 -0.171309 -7.70025 20
584 1 -4.02335 3.54868 -2.88531 19
585 1 -1.63836 1.81583 -5.46842 22
586 1 -0.158909 11.0806 -8.68263 16
587 1 -4.48156 14.6909 -6.5633 11
588 1 5.92111 2.51356 -13.0874 18
589 1 11.2787 4.61077 -12.8858 10
590 1 4.9986 2.67031 -18.6413 12
591 1 -2.1609 13.3795 -8.06503 19
592 1 -9.88836 4.76257 -10.5312 14
593 1 -8.35751 6.91643 -1.73225 21
594 1 -4.56824 6.95488 -9.96786 19
595 1 -8.85908 18.4028 -2.0552 6
596 1 -4.36189 9.91672 1.28427 19
597 1 -8.18683 5.86974 -5.4558 22
598 1 5.70647 11.5389 -8.67006 18
599 1 1.04037 11.5529 -1.91132 15
600 1 4.25803 3.6204 -8.13252 18
601 1 -1.53605 10.3544 0.563375 17
602 1 4.31139 16.5149 3.06973 15
603 1 -1.94858 13.5758 -4.80364 19
604 1 -0.014461 7.70522 -6.66966 19
605 1 2.21755 16.195 -6.2069 16
606 1 2.56309 10.4243 -7.65154 18
607 1 8.97026 16.1633 -4.44332 14
608 1 0.757721 19.7984 -1.07473 10
609 1 6.65836 11.02 -11.36 17
610 1 3.39796 11.6585 -4.64628 19
611 1 6.81611 14.8791 -1.91278 16
612 1 -8.83102 11.6414 0.678531 19
613 1 -7.16461 10.1277 -1.22605 19
614 1 -2.24774 20.0854 -1.24015 10
615 1 -5.26084 18.7161 1.43639 9
616 1 4.43312 14.6717 -3.91779 22
617 2 -6.33996 -3.03626 -13.5479 17
618 2 -12.3078 -9.92505 -10.6967 12
619 2 -6.23916 -0.558154 -11.466 20
620 2 -11.5967 1.07857 -13.1541 9
621 2 2.84639 4.52698 -3.64088 17
622 2 -10.8924 4.63194 -5.96269 17
623 2 -9.35504 -7.83847 -12.1014 12
624 2 -15.065 -6.25948 -6.09172 10
625 2 -14.8531 0.352873 -8.23181 10
626 2 -8.57244 0.987446 -8.94332 15
627 2 -6.94041 0.376156 -4.00212 14
628 2 -14.6307 -2.61722 -5.46036 14
629 2 -9.58765 -9.54152 -9.33351 17
630 2 -4.23274 12.8934 -4.95686 17
631 2 -11.4144 4.41343 -9.18126 12
632 2 -1.46711 8.21945 -14.9999 14
633 2 -14.0472 8.42886 5.15966 10
634 2 -13.3852 -0.0691638 -15.4491 5
635 2 -14.2122 2.05859 2.85827 11
636 2 -7.09118 -3.03146 -8.70016 18
637 2 -13.8303 6.07453 2.58281 14
638 2 -3.66311 1.03554 1.36609 18
639 2 -14.0968 5.25071 -8.49683 7
640 2 -2.61026 14.8283 -6.3723 17
641 2 0.0630585 11.2954 -14.5386 10
642 2 -6.26325 6.25317 -6.09409 18
643 2 -3.79925 0.234639 -11.9397 16
644 2 -13.4586 3.45159 -3.21644 15
645 2 -3.94727 6.54503 -12.2164 19
646 2 -1.34182 3.63406 -16.1057 20
647 2 1.08706 6.125 -17.0371 16
648 2 -9.83993 6.59641 -10.4162 12
649 2 -3.95717 6.3675 -15.4862 16
650 2 -5.72324 1.87082 -5.79558 20
651 2 -4.29515 7.09721 -2.54497 18
652 2 -6.32631 5.8859 -10.0226 22
653 2 1.86396 11.6528 -9.09443 19
654 2 -10.8906 -0.94557 2.57781 16
655 2 -8.92089 0.00261555 0.4613 21
656 2 -12.7908 -5.78757 -0.491387 14
657 2 -5.27497 4.27831 4.46055 20
658 2 3.44617 15.6625 -7.60568 16
659 2 -16.8614 1.83018 -5.95655 9
660 2 -9.30235 10.2812 -0.833742 18
661 2 -1.29424 11.9399 -10.2622 15
662 2 -13.2675 9.09407 -2.91087 10
663 2 -5.13676 4.06402 -16.2721 14
664 2 4.12801 6.67225 -5.8591 18
665 2 3.19025 15.0315 -12.5564 10
666 2 -11.3014 11.4144 -1.94624 12
667 2 -11.3573 1.94086 -0.481143 16
668 2 -7.67442 8.25498 -2.72802 21
669 2 -15.648 -1.80425 0.0366448 10
670 2 -8.1832 9.46815 2.97834 19
671 2 -6.65384 2.39229 1.56164 20
672 2 2.37288 13.9431 -0.17244 16
673 2 -11.0863 9.80861 -4.73399 12
674 2 -4.29314 8.8617 -9.6838 20
675 2 -8.35611 17.7424 -3.74042 6
676 2 -11.362 7.23631 -1.13503 16
677 2 -1.19222 13.9049 3.1504 18
678 2 -7.1428 5.21028 -0.897477 18
679 2 -0.893678 12.4345 -6.90935 18
680 2 0.897295 19.542 -2.95098 10
681 2 7.69322 -9.72481 -13.21 13
682 2 -8.54689 0.917474 -11.8385 17
683 2 0.4437 14.1447 -12.8002 11
684 2 -5.00086 -6.05843 -12.7296 18
685 2 -4.00914 9.4774 -14.171 12
686 2 -2.1852 5.28183 -17.6993 13
687 2 -1.54971 14.3763 -9.52218 14
688 2 -0.272277 -2.16155 -17.568 14
689 2 -3.02612 6.38272 -8.66126 18
690 2 -8.85143 3.73111 -11.5879 14
691 2 -3.69503 1.43579 -8.86431 20
692 2 -0.428399 13.5457 -3.36362 19
693 2 -4.77664 -1.66559 1.35305 17
694 2 5.14789 -0.848082 -6.69891 19
695 2 -4.37649 1.26826 -3.22152 19
696 2 2.60723 0.727919 -6.26624 19
697 2 2.78775 6.80942 4.49236 16
698 2 -3.50189 1.13218 -6.16408 18
699 2 5.62705 2.52187 -7.2287 22
700 2 2.86106 8.63803 -10.071 16
701 2 -9.96875 5.34351 -2.34508 19
702 2 -4.43878 12.9335 -7.7413 14
703 2 -6.52287 11.3913 -9.19554 12
704 2 -5.74116 15.3067 -5.18897 11
705 2 8.23944 2.22838 -16.986 10
706 2 -7.1948 2.3925 -14.358 18
707 2 4.52365 13.3711 -5.07909 16
708 2 -11.7828 7.29968 -8.25353 14
709 2 4.11333 6.38517 -15.9527 13
710 2 -13.1839 -0.572371 -10.5726 8
711 2 2.53646 15.9362 -3.86636 18
712 2 -2.94029 8.85873 -0.251112 17
713 2 -0.118878 0.801102 -5.47687 20
714 2 -3.93704 12.8214 -11.5615 13
715 2 -5.08718 5.09939 1.653 15
716 2 3.56904 2.05479 -0.975004 22
717 2 -2.61716 10.0278 -6.34143 20
718 2 -2.24555 4.20961 -2.53405 19
719 2 -2.15653 9.33525 -12.2729 19
720 2 1.22386 15.3383 -9.90638 11
721 2 -2.93965 9.92139 -3.39018 21
722 2 -14.5553 6.58822 -1.05157 9
723 2 -7.28666 4.78958 -3.88182 20
724 2 -7.80283 15.4087 0.977133 12
725 2 1.93256 12.5728 -5.88375 20
726 2 2.13915 20.8684 3.25637 5
727 2 6.93448 11.6175 0.204784 22
728 2 -4.90524 4.31646 -4.09853 18
729 2 -5.68068 10.0763 -5.52723 21
730 2 4.03829 9.78462 -4.42537 16
731 2 -8.04162 10.9947 -4.09892 15
732 2 3.16449 16.4699 0.0353372 15
733 1 -14.4015 -1.32993 5.48717 16
734 1 -9.12906 -14.758 1.44536 9
735 1 -14.898 2.27099 1.03237 14
736 1 -14.3559 -9.83777 -2.443 10
737 1 -13.8784 4.06447 10.979 16
738 1 -14.9054 5.47318 6.40586 13
739 1 -14.4254 -1.13436 -9.31529 7
740 1 -15.4664 2.77109 8.27098 19
741 1 -12.4089 6.88682 11.5217 15
742 1 -17.0795 3.01004 10.7349 9
743 1 -8.88118 6.69032 10.2444 19
744 1 -14.835 -2.50236 8.95108 17
745 1 -4.30297 4.40045 17.5328 12
746 1 -8.62918 7.20182 16.5287 13
747 1 -13.1463 -2.99044 -4.02817 16
748 1 -5.78792 15.699 2.10562 16
749 1 -6.66495 10.895 6.99499 19
750 1 -11.1566 3.06446 0.980941 19
751 1 -14.6039 0.02689 -16.9657 2
752 1 -11.253 11.8611 -0.212068 12
753 1 -9.68893 15.238 -0.082593 9
754 1 -9.30425 9.82276 4.8259 16
755 1 -4.45743 10.6236 14.3464 14
756 1 -9.06559 -4.82283 16.9342 10
757 1 -12.506 3.96076 6.10468 21
758 1 -12.3763 9.54517 2.10444 13
759 1 -12.3416 11.8643 8.08372 9
760 1 -1.12455 -3.38106 1.40364 16
761 1 -12.3396 9.56842 5.77392 11
762 1 -7.13519 5.7121 3.67086 21
763 1 -0.0972371 11.9835 6.72002 17
764 1 -9.42852 3.69655 7.56607 18
765 1 -5.73818 -3.4464 5.10017 19
766 1 -5.70101 0.688645 16.3377 18
767 1 -5.22267 7.13062 10.6524 19
768 1 -8.84384 10.8758 9.66409 18
769 1 -7.187 0.965325 7.55829 20
770 1 -11.1165 -2.87326 13.7921 11
771 1 -7.07793 8.5771 18.7045 9
772 1 1.39458 -2.31151 14.8141 17
773 1 -12.4577 -5.77091 1.46624 19
774 1 -8.6551 -1.15449 11.9179 16
775 1 2.99848 -3.04039 17.52 11
776 1 -4.18259 10.8455 17.5185 9
777 1 -12.8265 8.45908 -4.98922 10
778 1 -4.60009 18.6096 -1.54128 11
779 1 -9.60652 8.05284 2.86346 19
780 1 -6.86209 13.0544 1.39115 20
781 1 -14.8211 -12.1003 -4.12346 10
782 1 -7.22355 7.69915 1.07093 20
783 1 -12.3424 6.2043 8.35439 18
784 1 -4.16651 11.4437 -3.46295 19
785 1 -7.46806 13.4172 10.9162 11
786 1 -9.28859 11.2467 12.7299 13
787 1 -5.83323 13.4903 4.42604 20
788 1 -15.2503 5.97466 9.82529 12
789 1 -12.594 7.12166 5.00621 20
790 1 -7.17209 4.90928 12.6967 20
791 1 -0.496382 13.7802 8.83785 21
792 1 0.390349 6.00436 14.056 17
793 1 -7.69583 7.94082 7.13917 16
794 1 -12.1334 5.11653 13.9652 11
795 1 -4.88053 14.6985 -3.71908 15
796 1 0.705058 13.662 -6.76536 20
797 1 -3.2529 18.0905 -4.25412 13
798 1 -7.47812 15.5241 5.3865 10
799 1 -8.93359 12.4317 4.27887 15
800 1 -6.11461 14.2503 8.10029 16
801 1 -6.67912 10.4809 2.9459 21
802 1 -10.8291 12.8291 10.4999 12
803 1 -10.7604 9.34759 10.5268 15
804 1 -2.70954 15.6206 9.64416 11
805 1 0.329821 11.4003 10.5685 17
806 1 -2.4413 6.43038 -2.85114 20
807 1 -1.58062 9.45862 -1.98673 20
808 1 -2.76552 4.45026 -8.50304 17
809 1 -0.9304 5.4193 2.46968 20
810 1 -1.04611 -6.49551 5.2872 23
811 1 -3.3757 8.84649 -4.7286 20
812 1 -5.17752 8.24395 5.1749 20
813 1 3.94112 10.008 3.15533 20
814 1 -3.63186 -4.85016 3.74836 20
815 1 3.10806 9.31125 8.26865 20
816 1 -10.1472 0.732205 9.94716 18
817 1 -4.17952 9.72976 8.55263 16
818 1 -7.95162 8.52274 13.1424 20
819 1 -7.08007 3.48225 16.4627 17
820 1 -2.10783 2.75585 13.0956 19
821 1 -1.88917 7.71123 9.28987 19
822 1 1.9858 7.22133 11.3341 19
823 1 -6.12585 -0.944674 14.0861 16
824 1 0.946098 11.7645 16.1002 8
825 1 -8.52203 1.2316 18.2416 10
826 1 -14.8279 3.44242 -1.74161 13
827 1 -0.899755 10.8096 -5.49524 19
828 1 3.65442 9.39811 -2.51026 18
829 1 -4.35954 6.83877 1.70127 16
830 1 -4.33462 5.01056 6.09808 19
831 1 9.4863 4.87126 10.2262 19
832 1 -1.37742 9.59095 5.58494 18
833 1 -1.46821 13.0968 -1.69755 18
834 1 -5.53934 7.58778 13.9284 16
835 1 0.707885 13.3135 3.46208 18
836 1 -4.75932 7.08129 8.31526 17
837 1 -14.7411 7.87488 3.38057 11
838 1 -2.52719 6.74753 6.20411 19
839 1 1.37489 2.8154 10.9902 18
840 1 -3.61782 12.4327 10.018 15
841 1 -2.86193 13.2433 7.20315 20
842 1 -12.5293 2.86241 8.87406 18
843 1 -3.01129 17.2443 3.74986 16
844 1 -2.98158 9.87523 11.2139 19
845 1 3.94397 12.325 9.52256 15
846 1 -4.49044 11.3506 -6.34168 20
847 1 2.63393 5.47594 -5.24561 21
848 1 -6.82677 9.54169 -4.13916 20
849 1 3.71204 12.5016 -1.86978 19
850 1 -2.17931 12.3064 3.47838 20
851 1 -3.38822 8.78414 -7.86635 16
852 1 -4.8802 15.5386 5.57741 16
853 1 -1.88894 4.07751 -0.586687 15
854 1 -4.66319 8.4598 -1.43475 18
855 1 -3.983 14.6896 -1.03297 13
856 1 0.846081 7.48258 6.89906 20
857 1 -8.05927 1.71968 0.0852647 19
858 1 6.86108 13.8916 8.13744 13
859 1 -0.837143 13.3614 12.0387 12
860 2 -12.3521 -0.477759 -0.261353 16
861 2 -6.7319 8.73368 -11.5915 16