ITEM: TIMESTEP
47000
ITEM: NUMBER OF ATOMS
2000
ITEM: BOX BOUNDS pp pp pp
-30.0 30.0
-30.0 30.0
-30.0 30.0
ITEM: ATOMS id type x y z Coordination
1 1 -8.54459 7.0621 -9.3655 18
2 1 -3.23055 -8.59427 -6.341 18
3 1 3.9363 15.4988 14.0401 13
4 1 6.83271 -5.81173 11.7458 14
5 1 -12.1711 13.7855 0.522204 17
6 1 11.7108 -5.30199 -6.34115 19
7 1 -13.9185 5.5993 -4.6028 16
8 1 0.594663 -2.0031 17.2584 12
9 1 -9.85228 3.27072 -6.32392 19
10 1 -13.2948 -6.08388 6.61891 15
11 1 11.4428 6.33282 -6.21391 22
12 1 -3.39298 -8.10815 3.68541 17
13 1 -15.8476 -4.85957 7.8687 10
14 1 1.19223 6.00474 14.9051 20
15 1 -3.95488 5.75997 12.1828 19
16 1 -1.51535 11.4279 -6.71199 23
17 1 3.15501 3.40854 15.1791 22
18 1 -11.9119 5.55845 -6.73577 22
19 1 -13.4898 1.03187 15.5424 12
20 1 16.5409 7.36761 7.42304 9
21 1 1.76857 11.5804 -6.41897 23
22 1 6.30518 12.2899 -9.00779 18
23 1 16.8792 4.98081 11.8487 15
24 1 -11.9392 7.64457 -3.64998 21
25 1 -11.8057 13.1987 13.6255 15
26 1 5.40368 -10.79 9.30441 13
27 1 6.66605 -8.38717 -6.171 21
28 1 8.68268 -9.52508 1.66018 15
29 1 -10.243 -12.0234 1.55756 11
30 1 -10.1593 -4.81422 15.1114 11
31 1 1.7336 0.351755 -12.2651 22
32 1 14.3657 -5.45706 -6.97481 9
33 1 -3.89486 8.54772 -11.9553 22
34 1 -0.746138 9.00204 14.7639 21
35 1 -1.53729 -8.87317 7.4622 21
36 1 9.53155 -1.81306 14.911 10
37 1 -10.5132 3.23106 4.52283 25
38 1 -14.3582 3.30339 13.2958 12
39 1 -3.49108 14.7602 -1.52079 24
40 1 -1.48309 -11.3326 -7.29982 10
41 1 -0.0794594 4.85104 -9.22599 25
42 1 5.50068 -3.30129 -8.99892 24
43 1 -3.69349 -0.243412 12.2751 20
44 1 -12.0477 11.7511 3.14934 21
45 1 10.1309 14.7351 -6.71505 14
46 1 4.75916 17.6866 8.79804 17
47 1 -6.57982 10.5701 -3.85312 22
48 1 3.10358 14.7686 -1.86687 19
49 1 3.11559 -8.11044 4.61062 24
50 1 5.24001 -3.62337 -3.50356 22
51 1 7.5342 -3.22551 -13.4926 10
52 1 -9.92337 12.9376 16.5773 11
53 1 -11.8821 -0.229394 -6.47402 20
54 1 -8.5141 11.6834 -1.75064 21
55 1 -4.96595 -4.89945 9.78763 21
56 1 -6.34758 13.4095 16.2722 14
57 1 -13.4046 10.8231 -5.03905 14
58 1 -7.52511 13.6886 14.0084 17
59 1 -2.74979 -12.43 11.9377 12
60 1 4.63357 -11.1303 4.38034 21
61 1 1.13675 14.3971 15.8287 13
62 1 -12.526 2.91384 -7.84375 16
63 1 -11.6026 10.8149 -7.42249 14
64 1 4.27075 8.19478 12.3688 24
65 1 13.3235 -2.07185 -7.15691 18
66 1 7.44973 -8.1622 9.93425 15
67 1 -16.4478 1.14002 7.4576 10
68 1 6.44659 17.088 6.45518 22
69 1 3.01312 -2.72639 14.9044 17
70 1 -7.04705 -11.9002 7.16012 17
71 1 11.5365 2.75692 12.4549 19
72 1 4.39105 14.0087 12.0658 19
73 1 -2.97322 -2.84752 -6.00536 21
74 1 -12.4016 14.1765 10.8936 13
75 1 -8.39123 13.9247 0.786606 18
76 1 -0.0234311 8.75969 -6.55781 24
77 1 8.20097 14.1385 -4.18317 18
78 1 8.31442 -3.01013 6.92333 21
79 1 8.37838 -2.676 12.4103 18
80 1 -4.82103 17.3057 -2.29584 13
81 1 -10.7577 11.2268 5.9513 20
82 1 -8.18603 -1.96211 15.3024 20
83 1 -5.55809 12.102 9.01947 19
84 1 -1.90727 -3.44833 12.3467 21
85 1 14.4821 -3.82565 0.878266 9
86 1 -8.87208 6.61514 9.74974 24
87 1 -11.7326 -9.29376 6.97528 18
88 1 8.35195 -5.32229 -0.861987 21
89 1 5.14227 2.52157 -8.89204 25
90 1 -3.22085 -2.71143 -11.5974 18
91 1 -0.447743 14.9698 4.41525 22
92 1 -7.1233 8.65665 -6.69026 22
93 1 -3.27447 14.0252 16.2016 13
94 1 -0.108581 14.7349 -1.31608 24
95 1 -12.7447 14.1224 4.78527 12
96 1 -3.86533 -6.41398 12.4309 22
97 1 16.3359 1.57149 13.1068 11
98 1 8.48508 -5.15594 -5.83893 20
99 1 4.61064 0.580736 14.9836 21
100 1 -8.72774 -3.31519 1.57226 22
101 1 -8.28595 -5.02723 -0.858274 22
102 1 9.77453 -8.46549 4.75396 13
103 1 8.56807 2.32827 -9.16618 24
104 1 3.39301 22.2709 1.68077 12
105 1 -11.5892 -10.9681 9.96281 13
106 1 -8.29978 -9.21352 6.79642 23
107 1 5.60089 -4.61555 -11.6648 18
108 1 9.79017 -6.44615 1.88434 17
109 1 -0.41842 -6.04331 12.0792 22
110 1 -8.55751 -5.44787 4.44322 22
111 1 15.9065 10.5755 12.4367 14
112 1 14.7793 2.62826 -8.81467 11
113 1 -15.6824 -2.29746 5.83007 17
114 1 9.86371 11.2219 7.19008 21
115 1 11.3136 11.8961 10.1776 20
116 1 -5.35929 2.63077 17.0562 16
117 1 -1.92076 13.9601 11.8716 21
118 1 -6.14043 16.4055 -5.24049 12
119 1 -0.063065 -2.67681 -6.42173 21
120 1 10.3161 -7.93122 -6.97636 17
121 1 1.67984 16.4937 -7.98157 14
122 1 13.2922 2.54401 14.6618 15
123 1 -0.950262 3.96561 -15.4324 16
124 1 -1.87228 13.7345 -4.3839 21
125 1 11.6838 2.43162 -3.7231 23
126 1 -10.0594 14.6584 -1.2799 19
127 1 -7.19703 16.6022 0.377909 17
128 1 6.99318 5.44795 -9.03853 23
129 1 9.65617 -6.30349 7.15018 13
130 1 -5.22352 5.85164 -6.36411 23
131 1 -6.80378 16.201 11.9117 13
132 1 14.9889 6.22265 -5.72057 14
133 1 6.3928 15.1302 -1.95393 19
134 1 -2.17415 17.9201 3.70591 18
135 1 11.3095 14.1977 1.30098 20
136 1 -3.66871 16.8852 0.629547 20
137 1 2.8294 21.1305 -1.17462 15
138 1 4.63682 13.0953 -11.6681 13
139 1 -13.1495 -8.19539 3.69598 15
140 1 -15.5609 14.0379 -0.00507148 8
141 1 -3.36655 -0.788042 -8.78969 23
142 1 4.29328 -4.0778 -14.2526 12
143 1 9.04281 15.8215 11.9733 14
144 1 -0.392386 14.8899 9.28293 20
145 1 -12.0026 0.603003 -1.35703 22
146 1 -10.9114 16.6386 5.92228 11
147 1 13.1525 3.30343 -0.926671 20
148 1 -11.6238 8.13473 -9.27383 13
149 1 8.44159 3.55117 17.4532 15
150 1 4.80916 17.9055 3.67014 24
151 1 -2.1407 12.0696 9.16182 24
152 1 5.41871 -0.921131 -13.6912 16
153 1 -3.69464 17.0116 11.6961 16
154 1 -7.24124 12.4157 -9.67367 14
155 1 3.03957 -0.264405 12.5211 22
156 1 -12.2862 -3.17388 6.618 21
157 1 -2.90437 -5.71461 -10.489 14
158 1 -6.34483 14.2949 -7.01317 20
159 1 -3.33703 -5.95283 6.84622 22
160 1 6.77143 -12.0668 1.64234 12
161 1 -3.00767 14.261 -7.07098 22
162 1 -14.4354 8.18727 13.5827 14
163 1 11.5417 12.3829 -0.70401 21
164 1 -7.11022 5.31799 17.6355 15
165 1 0.102867 -4.31122 14.8931 17
166 1 2.93756 17.0461 6.22119 24
167 1 -0.634383 10.9733 11.8551 21
168 1 12.6268 8.63192 15.5451 19
169 1 -5.73358 17.3507 3.25369 16
170 1 15.3679 0.418993 -6.25657 11
171 1 -7.69847 10.6792 16.9406 16
172 1 11.5227 -5.36269 4.72535 11
173 1 -13.9189 3.0926 9.39286 17
174 1 -8.90928 -3.42376 6.93011 20
175 1 9.07144 8.91444 14.8983 21
176 1 -15.1226 2.68571 1.66688 14
177 1 -1.4281 -9.12178 2.08415 21
178 1 -2.10493 14.1606 6.70329 22
179 1 5.93234 16.9767 11.817 15
180 1 -4.46449 16.6464 -8.28433 11
181 1 -14.7212 0.792121 -6.25157 13
182 1 -9.99843 -0.37989 12.4343 22
183 1 -0.157877 -6.24744 6.8966 21
184 1 1.29906 -8.18944 13.1823 16
185 1 -13.7407 11.4871 6.18871 14
186 1 14.9855 9.98089 6.42022 15
187 1 -4.69984 -3.82249 -8.7006 21
188 1 4.3742 2.6418 12.3354 23
189 1 5.40567 -12.9401 6.98483 9
190 1 -1.50682 16.4942 -8.97996 14
191 1 8.50949 -8.49675 -9.41461 11
192 1 12.9587 -0.280645 -9.84164 12
193 1 5.81628 9.95182 -11.4415 19
194 1 -5.21482 0.00872721 -6.30629 23
195 1 -3.33384 16.5152 -5.448 18
196 1 -12.2454 -7.86048 11.9315 12
197 1 3.56536 23.6596 5.05367 9
198 1 -8.65385 2.51144 17.6925 15
199 1 -11.1435 13.8377 -4.15719 13
200 1 8.18619 2.58609 12.1815 21
201 1 1.70477 -3.70672 -9.0786 25
202 1 -5.1582 13.6072 -4.30566 24
203 1 2.95612 8.94042 -11.7829 23
204 1 -6.21781 -8.45995 14.1602 10
205 1 -10.4843 9.50287 8.58585 19
206 1 -8.947 8.62772 12.2723 22
207 1 1.96856 -9.02272 -3.49271 20
208 1 -6.99884 -11.5797 1.39041 14
209 1 11.6475 -3.16004 -3.66945 19
210 1 9.06344 11.6746 18.5284 13
211 1 6.73472 9.01391 -6.12934 19
212 1 -1.79003 13.9315 1.32149 21
213 1 -10.5522 5.44517 6.55896 20
214 1 -13.6319 14.6311 -2.21694 11
215 1 1.19569 8.11464 12.0697 22
216 1 1.88212 -15.4108 2.66778 9
217 1 11.4931 2.44365 1.84293 25
218 1 -8.75893 8.29092 6.77289 22
219 1 -11.9501 -3.39426 -3.57555 18
220 1 10.1994 5.30936 -10.671 17
221 1 1.21063 2.88798 12.4182 22
222 1 8.1498 12.1104 -6.21426 17
223 1 5.10728 -5.65551 -0.829877 22
224 1 -1.48621 2.20214 -8.90394 23
225 1 -3.45155 -12.0325 7.20951 17
226 1 8.38306 2.64012 -3.25197 21
227 1 -11.7278 0.545188 9.65888 23
228 1 4.92689 -11.1615 -0.864484 18
229 1 -11.9834 -5.4636 -6.15261 13
230 1 4.35042 17.7395 -1.44619 19
231 1 -1.71783 0.204014 -11.5626 24
232 1 7.74602 6.3002 15.3647 24
233 1 13.1835 4.01353 4.41029 16
234 1 10.7182 1.98959 -11.5496 12
235 1 -7.88351 1.73605 -8.72051 24
236 1 -15.4456 2.44292 -3.89779 11
237 1 -8.05764 -10.8034 9.97987 20
238 1 10.0514 0.291629 12.7372 21
239 1 -4.89457 -7.53513 -9.02461 12
240 1 0.232877 10.4821 -9.47281 21
241 1 -5.16604 -5.20892 4.62478 23
242 1 1.52119 13.749 1.82736 18
243 1 -10.334 1.02461 15.3027 19
244 1 -8.27733 -3.55468 -3.50825 23
245 1 -6.78768 -0.730919 -9.14602 23
246 1 0.941476 10.3456 -14.5013 11
247 1 -9.86949 -8.0746 -6.28102 12
248 1 8.34883 -2.09476 -10.703 17
249 1 13.0054 5.64127 -8.75026 17
250 1 9.99738 5.48442 7.13526 25
251 1 -12.0731 -5.28168 9.26638 18
252 1 -3.37135 -6.16304 1.30221 18
253 1 9.39842 6.60483 18.0483 14
254 1 -11.8937 -9.71848 0.836723 12
255 1 0.0550618 -8.07053 4.51947 23
256 1 -0.73707 20.8358 3.96063 15
257 1 3.32189 3.32966 -11.6507 21
258 1 -1.57805 -3.58652 -9.17855 22
259 1 -10.5562 -5.60604 11.83 18
260 1 -2.23628 8.75375 17.9112 14
261 1 3.49564 -6.49909 1.74554 22
262 1 -8.27427 -8.93243 -3.8298 16
263 1 -10.6433 10.636 -4.46903 19
264 1 11.3089 6.24423 10.003 23
265 1 -6.35724 4.50361 -9.41798 23
266 1 3.44523 9.14217 -6.3867 24
267 1 6.57232 -12.0658 -3.77332 14
268 1 -1.79145 17.691 -2.17524 19
269 1 3.11132 15.086 8.85969 21
270 1 9.97604 3.60446 9.77431 23
271 1 -10.3637 3.75863 9.32976 22
272 1 -1.71682 -1.3866 14.8849 21
273 1 -9.22638 12.0226 8.89349 22
274 1 3.43186 -1.98541 -11.3643 22
275 1 14.9453 13.9045 -2.46642 10
276 1 6.52136 -8.12529 4.7547 23
277 1 -0.00646791 0.60123 17.4204 16
278 1 -15.3067 0.587656 10.0407 15
279 1 3.37955 -12.4541 1.48687 16
280 1 -9.28428 10.4503 14.3865 25
281 1 -13.2041 12.2703 15.823 9
282 1 -14.9119 -1.89385 12.1717 10
283 1 -13.6494 -2.68109 9.64859 19
284 1 12.099 0.675895 -0.956993 22
285 1 -11.7488 -2.86275 12.2355 18
286 1 6.67591 -2.26659 -6.1471 22
287 1 11.4594 -9.6112 -3.89051 10
288 1 4.36681 19.8288 1.37836 21
289 1 -9.63049 13.8706 -7.39676 12
290 1 2.2597 11.4008 17.095 16
291 1 -12.4891 2.72259 6.99705 20
292 1 6.7109 -6.37487 1.88948 21
293 1 -5.09221 14.3713 6.50643 22
294 1 4.84904 -8.58256 12.0355 13
295 1 13.9836 -2.23577 4.19744 12
296 1 -2.47123 8.64694 12.3139 22
297 1 0.908272 6.20699 20.0596 10
298 1 -3.90152 17.2532 5.89706 17
299 1 6.11175 9.37175 14.9212 22
300 1 -6.74913 14.9664 -1.70506 18
301 1 -0.027603 0.586779 -14.5182 17
302 1 2.07719 -5.06936 -11.6863 17
303 1 -7.74418 7.63226 18.9763 9
304 1 -14.0482 5.33815 6.97671 15
305 1 -5.2976 12.1124 4.13427 24
306 1 8.29731 0.73705 9.83586 20
307 1 -10.1817 -8.15716 4.77486 21
308 1 6.44714 -2.20704 9.88047 23
309 1 -6.83132 -6.18349 12.1488 20
310 1 -15.5957 11.8932 3.02961 9
311 1 -2.08691 2.76606 12.1025 21
312 1 3.37623 -8.36097 -6.13654 23
313 1 -4.95892 1.86174 -9.39741 22
314 1 7.61696 1.98501 -13.9322 12
315 1 3.16906 15.0175 3.72183 21
316 1 -10.2203 3.31529 -1.18203 22
317 1 3.87217 -6.12882 -9.08926 22
318 1 10.0416 6.939 -8.1918 20
319 1 -4.90984 -9.46013 -3.75128 18
320 1 -9.32214 -2.52094 -5.94425 20
321 1 10.878 11.3989 15.7113 21
322 1 13.135 9.03598 -0.645575 22
323 1 -5.10018 7.41015 -9.12576 21
324 1 6.30333 20.8364 4.11951 14
325 1 -15.1132 0.521664 -1.0552 13
326 1 -7.24334 9.3843 9.48021 23
327 1 -7.11698 14.8846 3.88487 22
328 1 -5.80051 8.26957 12.2559 25
329 1 11.4707 7.99522 12.7976 21
330 1 10.0892 -0.376001 -3.24668 23
331 1 3.44179 -0.901798 17.1442 14
332 1 13.3067 5.09285 -3.37693 21
333 1 -3.05368 -11.9604 -4.36593 13
334 1 1.65572 14.1276 6.61361 21
335 1 -10.0997 4.97219 -3.77998 23
336 1 8.3132 -10.9817 -1.10411 15
337 1 13.4429 3.61306 8.62092 16
338 1 -8.40543 2.03659 -3.75708 22
339 1 -6.85422 -6.08968 7.44989 24
340 1 -8.44543 -3.49874 12.7333 22
341 1 -3.63183 15.1514 3.87741 21
342 1 -13.5422 -2.48831 -0.969885 17
343 1 5.5799 11.7006 17.0484 16
344 1 -10.1261 11.0633 0.818587 22
345 1 0.0738879 14.6018 -6.64484 25
346 1 4.87975 14.0765 6.21758 22
347 1 -15.3925 -3.36796 2.26301 12
348 1 0.235789 -6.48712 -3.14403 19
349 1 -11.7891 2.7629 11.5894 17
350 1 -15.0769 11.5022 -2.31297 14
351 1 3.09843 -6.12817 6.95199 21
352 1 -8.60679 -11.072 -1.20315 12
353 1 12.9955 14.3529 15.3999 11
354 1 8.9026 10.8305 -10.3143 12
355 1 -13.7155 8.25916 -6.64548 15
356 1 -0.0905927 16.3213 -3.7085 20
357 1 -8.49287 7.703 -4.02472 24
358 1 -5.14851 -8.91271 7.43084 23
359 1 12.9542 11.4068 7.56414 22
360 1 4.37578 10.7891 -14.2701 11
361 1 -11.7797 6.1849 4.2125 22
362 1 -2.02448 -10.791 4.88146 19
363 1 8.7158 -3.34798 -8.25972 21
364 1 -14.1228 5.70121 11.1138 13
365 1 -13.0057 0.413691 12.7581 18
366 1 -12.6088 11.9354 9.00326 16
367 1 -10.3093 4.83745 -9.269 18
368 1 7.03256 -6.22871 -8.46051 25
369 1 -1.61096 -5.77269 -7.22659 23
370 1 -6.88659 -0.549827 12.4788 22
371 1 -4.73079 5.4842 -12.174 22
372 1 8.10477 -9.47345 7.2689 14
373 1 2.40322 18.474 -5.29615 14
374 1 -13.3132 14.8857 7.78131 10
375 1 3.54336 3.83676 20.01 10
376 1 -13.8651 -2.76864 -6.26745 11
377 1 -8.52005 -5.40356 9.71399 23
378 1 11.7105 -4.53879 9.54221 12
379 1 12.0394 -2.89437 6.71143 17
380 1 15.9472 11.0951 0.605258 14
381 1 -5.58393 4.7311 14.8736 22
382 1 4.77452 13.6276 -3.65883 19
383 1 -1.75609 -11.2648 -1.25575 16
384 1 -5.21699 8.70297 17.4338 15
385 1 0.928352 17.7663 9.03435 15
386 1 -10.6267 -4.53212 -8.43248 9
387 1 7.95713 17.9447 3.98609 18
388 1 6.3862 9.10632 9.97075 23
389 1 -8.67962 2.47644 12.3338 21
390 1 -4.93832 -5.57938 -0.978679 21
391 1 -15.4687 5.76301 14.638 9
392 1 -10.1929 -0.64066 -3.61721 24
393 1 -6.97026 14.3376 9.35459 21
394 1 -3.29515 -6.64968 -3.96495 23
395 1 0.358832 -2.56103 -11.7848 21
396 1 -6.64171 -7.82027 4.7756 23
397 1 8.16483 6.37391 9.5718 22
398 1 -4.97036 -1.34496 14.9305 20
399 1 -10.0935 8.20357 -6.53749 22
400 1 9.75165 9.36166 4.80424 25
401 1 -8.57473 -9.03801 1.85884 23
402 1 3.19062 22.7392 7.34743 10
403 1 0.86981 14.0713 12.567 22
404 1 -11.916 2.66994 1.21681 22
405 1 0.214047 23.4727 5.39101 10
406 1 12.6458 14.2106 -7.9174 9
407 1 -6.4262 -2.95646 -6.34641 21
408 1 2.81515 5.3241 17.789 20
409 1 2.10193 -11.216 -7.16211 12
410 1 0.132162 2.92058 -11.9475 21
411 1 7.65057 -11.041 4.68461 14
412 1 -8.66961 13.9901 6.60009 21
413 1 4.65312 6.43594 15.0888 22
414 1 9.59856 11.1789 1.79766 22
415 1 4.58517 13.6328 1.49139 20
416 1 -8.42653 11.2069 -6.49278 22
417 1 -10.3649 -0.549345 1.56044 23
418 1 1.26709 17.6809 3.51278 22
419 1 -8.00914 5.14729 -12.3273 15
420 1 11.1966 12.2779 4.09993 20
421 1 5.1693 19.7517 -3.782 11
422 1 13.31 5.45497 1.47311 16
423 1 -1.60885 5.5749 -11.8783 23
424 1 -0.0662473 -7.86437 9.77955 22
425 1 -0.454961 -10.8527 13.4378 11
426 1 -8.3474 5.49666 -6.66754 23
427 1 -3.47413 -7.82115 9.41576 19
428 1 5.44292 -11.1788 -6.63802 14
429 1 8.03822 13.8754 7.13161 20
430 1 -0.699244 8.87696 -12.4421 22
431 1 5.17795 2.29733 17.6775 16
432 1 -12.2879 4.97444 15.5022 15
433 1 -0.199372 -12.0929 7.21738 19
434 1 -12.1719 0.678422 4.30521 23
435 1 13.5564 -2.45968 -1.68184 16
436 1 9.86655 3.39531 -0.798209 25
437 1 3.31102 -6.16085 -3.64142 21
438 1 3.46542 5.29277 -9.07812 23
439 1 14.3757 -3.93221 -4.77703 12
440 1 -3.11575 -0.0411605 17.2828 12
441 1 6.68798 16.762 -4.63693 14
442 1 -3.20813 2.82478 -11.9751 23
443 1 8.20851 5.31779 -13.5185 13
444 1 -7.14328 -2.34167 9.79088 23
445 1 -0.475251 16.9705 0.512925 20
446 1 -8.37619 0.312329 -11.3668 15
447 1 -13.8599 3.80153 3.81224 16
448 1 0.365505 -6.28503 -9.56071 21
449 1 -4.21136 -9.76584 12.18 14
450 1 6.44977 11.1551 -3.68627 20
451 1 12.8689 5.37612 12.7576 23
452 1 14.8552 9.24343 2.54753 15
453 1 -10.4254 -6.28977 1.58768 21
454 1 -3.80395 0.1846 -14.1573 15
455 1 -9.08676 13.9516 11.5221 18
456 1 10.0963 -0.479028 2.12155 22
457 1 -0.890229 19.231 -4.49568 12
458 1 15.5685 9.88745 -5.97301 7
459 1 -0.859887 11.3897 16.7034 16
460 1 -10.7289 5.44114 12.572 22
461 1 4.50969 12.2362 14.5686 21
462 1 10.8002 1.43825 15.9538 11
463 1 3.40341 7.63509 -14.3369 17
464 1 -4.98448 -3.55078 -3.7345 22
465 1 -0.606382 5.59422 12.3003 24
466 1 9.5391 10.8588 12.643 17
467 1 8.01137 6.03551 -6.05119 21
468 1 -5.0303 12.0476 -1.49137 24
469 1 1.41889 17.7288 -1.84097 20
470 1 13.5647 -1.95483 9.70524 14
471 1 9.94101 -0.407194 -8.82316 21
472 1 8.48983 -9.43095 -3.8338 20
473 1 10.7529 9.37547 17.852 17
474 1 -13.4092 -6.37142 1.59155 16
475 1 -3.94257 13.6087 -9.56196 17
476 1 -11.6626 2.75305 17.8343 11
477 1 -0.821994 18.2347 -6.89483 12
478 1 5.2868 -9.30918 1.88093 22
479 1 4.90405 0.343013 -6.2493 22
480 1 0.930892 19.7174 0.848901 23
481 1 -8.21534 -3.52535 -9.24729 12
482 1 4.895 -8.66087 7.81015 21
483 1 -13.6219 -2.1593 4.2516 21
484 1 1.51536 11.8643 -12.2657 18
485 1 -5.79813 10.7182 14.5292 25
486 1 -10.0782 -2.42203 9.83873 24
487 1 1.88547 -8.33623 -9.06216 15
488 1 1.28905 -3.1182 12.4418 21
489 1 -10.0574 9.09901 3.8227 22
490 1 5.89394 5.46013 18.1337 16
491 1 5.76014 21.2656 -1.39483 11
492 1 11.7326 -5.05116 -1.14629 15
493 1 2.70488 9.25023 14.8696 23
494 1 -2.80569 6.63261 -14.4034 17
495 1 -10.3302 -8.38344 9.55095 22
496 1 3.76309 1.3794 -14.6489 17
497 1 4.15372 19.7338 6.52918 18
498 1 12.9286 8.9691 -7.2507 16
499 1 -4.91921 -0.394771 -11.7577 18
500 1 -3.4923 -8.47546 -0.757419 18
501 1 -10.0099 -1.06163 -8.95199 18
502 1 11.4665 6.12422 4.39664 20
503 1 16.7424 8.38357 -0.471871 11
504 1 5.06686 -5.42626 -6.18117 23
505 1 11.0425 14.1943 18.3088 9
506 1 6.69024 -6.60719 -3.52676 21
507 1 5.32867 6.40872 -11.5454 25
508 1 6.21839 16.7845 1.13144 23
509 1 7.65682 14.2541 17.1089 12
510 1 12.8187 11.1792 1.5432 21
511 1 11.9033 0.702691 9.71659 20
512 1 13.5309 11.1494 -2.76072 17
513 1 7.65237 1.00289 15.1603 19
514 1 14.3199 11.7051 15.1546 11
515 1 -0.141921 0.526847 12.4228 22
516 1 12.8805 15.3904 -1.38781 11
517 1 2.31654 2.0197 17.59 21
518 1 14.5426 2.27729 -3.96996 17
519 1 9.46566 5.34268 12.5055 24
520 1 -6.5326 3.0069 -6.55649 23
521 1 12.7802 9.80281 4.71889 19
522 1 -14.2055 11.6278 11.7493 10
523 1 6.90847 14.9546 14.1491 16
524 1 14.6693 7.79455 11.926 20
525 1 4.55674 12.2607 9.89834 21
526 1 2.80171 17.0488 11.7021 14
527 1 -2.78824 -13.4561 3.86843 14
528 1 -6.84353 11.104 1.28254 24
529 1 8.07292 12.0283 -1.02965 22
530 1 6.90296 3.67867 -11.661 21
531 1 2.43916 20.8985 3.93269 21
532 1 -1.54695 -8.92275 -3.31745 21
533 1 11.6275 -3.13758 -9.54294 15
534 1 -11.916 8.14384 11.918 19
535 1 -3.38963 10.563 -9.25394 23
536 1 -11.7509 -10.8548 4.32088 14
537 1 -6.32885 2.50261 -11.7886 21
538 1 -11.7397 6.13591 -1.31776 23
539 1 9.70416 -2.10313 4.617 21
540 1 11.3626 14.3658 6.50491 17
541 1 1.15275 -4.89559 9.74047 24
542 1 -11.5527 2.00084 -4.04345 21
543 1 6.5843 8.17413 -13.6871 14
544 1 -2.30892 2.81453 17.6948 16
545 1 3.41179 10.962 -9.23775 24
546 1 16.3929 4.58272 14.2835 13
547 1 10.1014 5.33764 -3.66296 22
548 1 12.9367 14.8215 9.40131 14
549 1 3.33996 -11.8826 -3.93126 13
550 1 -9.92353 -2.26511 17.7631 11
551 1 15.3814 0.902778 4.52497 12
552 1 -1.40198 16.1984 14.5455 11
553 1 9.40033 13.9386 -9.60735 12
554 1 -13.8097 11.3605 0.67808 16
555 1 9.51747 14.9507 3.76723 20
556 1 -11.8171 -5.25939 -0.844373 17
557 1 11.3701 2.71974 7.02446 21
558 1 6.97945 23.341 6.83507 6
559 1 -7.36929 5.20174 12.0954 19
560 1 -11.6412 -5.09181 4.35322 22
561 1 -8.2092 0.266404 -6.1841 23
562 1 13.6869 0.0261678 12.3867 15
563 1 -8.8223 -8.82836 11.9585 15
564 1 10.9138 6.42294 15.3689 24
565 1 -5.10259 14.0927 1.32557 22
566 1 2.26143 4.34859 -14.5533 17
567 1 -8.76539 0.715911 9.6555 24
568 1 8.42009 0.608774 -6.09518 23
569 1 13.215 -6.72281 -3.72886 11
570 1 6.42074 10.8471 12.2123 21
571 1 -12.8729 -0.42657 18.084 8
572 1 13.0407 9.10912 10.0093 20
573 1 -0.262996 3.2427 15.2391 22
574 1 -4.18001 11.1425 11.5356 21
575 1 -1.74357 -2.07627 -14.2424 15
576 1 -9.05272 4.39016 14.7038 21
577 1 9.67333 3.55509 14.6582 21
578 1 -5.17529 -11.2299 9.42227 19
579 1 14.7974 12.1194 3.82083 15
580 1 6.79515 -8.42673 -0.566942 21
581 1 9.54945 16.9314 0.997248 13
582 1 9.48464 14.5337 9.4451 18
583 1 5.3735 4.86489 -14.0535 16
584 1 6.74042 14.9425 -7.13408 16
585 1 11.6965 8.30654 7.12907 19
586 1 -6.8575 -6.15069 1.96738 24
587 1 0.0748273 7.12008 -14.528 18
588 1 -10.3541 14.8181 2.60902 15
589 1 8.34872 0.286032 -11.8263 17
590 1 9.73182 9.33223 -6.05852 18
591 1 14.6791 14.1061 1.21642 14
592 1 9.90863 9.05344 -0.491354 24
593 1 14.5928 8.93544 17.5955 8
594 1 14.4053 6.08693 15.3611 17
595 1 0.0729296 -12.2851 10.5208 12
596 1 -1.77382 11.1136 -11.7098 17
597 1 6.19696 14.9516 9.31255 22
598 1 8.99444 -5.2552 -11.0145 16
599 1 9.64604 14.9339 -1.75938 19
600 1 6.26303 15.0074 3.86656 23
601 1 14.9298 9.49595e-04 -0.765511 13
602 1 7.48551 9.45896 17.8526 16
603 1 -13.9488 -0.234497 7.17911 22
604 1 2.69865 -12.2236 7.69736 17
605 1 -8.91861 17.0666 3.26809 12
606 1 4.82412 12.0644 4.22179 22
607 1 -15.1672 0.613423 4.1576 16
608 1 -0.841167 5.45461 17.8966 18
609 1 -5.33888 11.3502 -12.1424 14
610 1 -5.15275 11.4382 -6.75964 23
611 1 1.76794 -9.25257 1.6758 21
612 1 8.08485 8.06042 -3.45596 23
613 1 -13.8966 8.66935 16.4898 10
614 1 5.04223 0.865621 -11.2879 21
615 1 3.29947 -7.40023 10.0078 20
616 1 2.9206 16.9209 1.12843 22
617 1 0.0455625 2.66726 19.9509 11
618 1 -8.43691 -5.58701 -5.98961 23
619 1 -1.68876 -8.84905 -9.37697 14
620 1 -6.63939 -6.48845 -3.42776 22
621 1 0.125899 20.6575 -1.70113 11
622 1 3.17569 -2.67813 -6.1556 25
623 1 -3.76714 14.6591 9.63748 21
624 1 10.0064 -6.25667 -3.94982 22
625 1 3.48383 -13.7834 4.22132 15
626 1 4.46238 -3.0277 12.1592 19
627 1 13.1975 3.49024 -6.4787 19
628 1 1.50441 -11.2307 -1.16318 17
629 1 -11.5005 -1.8798 14.9274 17
630 1 -8.31993 -10.9619 4.13083 17
631 1 -6.77448 -7.94436 -0.975943 23
632 1 -10.0015 5.90978 17.36 15
633 1 -3.61315 -12.204 1.36988 14
634 1 16.5054 10.9326 -2.91161 11
635 1 -0.378082 17.1463 6.18211 18
636 1 -12.0556 11.596 -2.24581 20
637 1 13.3188 5.82807 6.92143 17
638 1 -13.7451 -0.256869 -9.01099 9
639 1 1.28914 13.6858 -3.89102 21
640 1 9.89221 3.3908 -6.56103 23
641 1 4.12268 14.1946 16.9158 12
642 1 11.5889 6.14769 -0.728643 23
643 1 -15.0427 6.07636 -1.02452 11
644 1 -13.8317 -0.882503 -3.65672 18
645 1 -4.45453 11.6585 17.4307 12
646 1 5.23525 8.05588 -9.00555 23
647 1 14.5763 13.8855 12.313 14
648 1 -3.52861 1.85494 14.7259 22
649 1 -0.416671 -12.9218 1.17625 12
650 1 -8.06135 -13.6416 9.5933 9
651 1 -3.04678 -4.48552 14.704 16
652 1 14.8044 12.1816 9.95138 17
653 1 1.79745 -5.51352 -6.41784 21
654 1 -8.65852 11.9245 3.7001 22
655 1 6.02811 10.9411 7.3321 22
656 1 -10.5144 -0.345008 6.9588 23
657 1 12.0922 11.4396 -9.58277 12
658 1 -5.086 -11.3247 -1.38828 15
659 1 0.132896 -13.5143 4.03108 18
660 1 -3.04169 -14.2581 9.70684 9
661 1 4.92307 6.11512 -6.56461 21
662 1 7.56754 19.788 1.20451 13
663 1 -4.04923 3.38283 -14.7576 14
664 1 -4.14301 5.89024 17.3545 15
665 1 -3.11101 9.47892 -14.2225 13
666 1 -11.1709 1.6015 -10.0486 12
667 1 -10.4665 -2.44448 4.02146 21
668 1 0.141689 22.6528 0.984421 12
669 1 -1.33564 -4.62738 -13.2875 10
670 1 11.618 8.2092 -3.33751 21
671 1 13.5076 -0.66445 1.65441 18
672 1 -7.56442 11.2897 11.8021 23
673 1 6.80753 -6.29031 7.78416 22
674 1 11.6858 0.630356 4.42869 19
675 1 13.7509 -0.203155 7.04328 17
676 1 1.2742 12.076 9.62571 22
677 1 -12.5273 10.3041 13.9522 20
678 1 -7.48041 7.53886 14.7029 24
679 1 -5.86576 -12.971 12.0428 9
680 1 2.79856 11.3201 12.104 20
681 1 -13.1748 5.51641 1.2727 19
682 1 10.0948 -2.33314 -0.483522 23
683 1 -8.16927 13.395 -4.36272 20
684 1 2.10655 -10.3145 10.5097 16
685 1 6.39636 3.57598 14.7496 23
686 1 -2.41489 18.1124 8.59452 13
687 1 1.67325 -9.12907 7.5516 23
688 1 2.89996 5.5322 12.3012 24
689 1 -13.3887 -0.435734 1.45761 21
690 1 3.87443 8.5301 17.5201 16
691 1 7.47118 18.0527 -1.55856 15
692 1 -15.335 -5.55288 4.21556 12
693 1 -5.14702 -10.855 4.15708 18
694 1 6.52667 -0.292523 12.5133 22
695 1 10.167 -1.95067 9.36954 22
696 1 9.94014 9.34894 9.40766 22
697 1 -4.87502 -5.549 -6.24943 21
698 1 -3.28815 4.64579 -9.40737 23
699 1 1.48891 0.30077 14.9566 22
700 1 0.843433 19.9084 6.26624 16
701 1 17.0281 3.3027 9.05055 11
702 1 3.13802 10.7016 -3.60962 26
703 1 -10.4801 9.51466 17.7646 12
704 1 7.84743 12.0026 15.0472 22
705 1 6.76828 -0.197591 -8.88932 25
706 1 -5.35433 -9.11627 1.51663 21
707 1 18.8748 6.1224 10.179 8
708 1 3.42299 -0.504462 -9.07039 22
709 1 -2.82341 11.2161 14.351 21
710 1 8.94455 -10.7165 -6.41005 12
711 1 8.46284 7.48839 -11.0539 18
712 1 11.3752 8.42519 -10.277 12
713 1 14.5868 2.61324 1.6189 15
714 1 3.03395 -5.82869 12.6848 18
715 1 -0.00837226 -8.5459 -6.29567 21
716 1 11.9985 14.0736 -4.20151 16
717 1 -12.1378 6.42438 9.22546 19
718 1 14.7991 8.10156 -3.23365 18
719 1 11.5304 13.8016 12.4688 17
720 1 1.06701 -4.01727 -14.9461 11
721 1 -7.42278 16.5508 6.44849 18
722 1 16.5455 9.11672 9.3571 15
723 1 10.0996 11.2185 -3.49441 20
724 1 1.77959 6.04535 -11.9574 21
725 1 8.25257 -3.26219 1.84559 22
726 1 -9.84031 5.02316 1.70514 24
727 1 7.81521 8.10633 7.24532 23
728 1 -11.9839 -3.46739 1.58047 20
729 1 -9.99341 10.9727 -9.67861 11
730 1 6.19371 5.27901 12.2563 26
731 1 -13.3939 3.26637 -1.30099 18
732 1 -10.742 7.49089 14.9333 20
733 1 -3.85778 8.76527 -6.43179 23
734 1 9.98627 -2.10706 -5.62587 20
735 1 -10.3779 -6.4645 -3.39097 18
736 1 11.6113 -3.21136 2.76288 20
737 1 -13.5891 9.27736 3.8379 17
738 1 -10.0237 -2.4682 -1.1261 22
739 1 17.3238 7.41547 13.4727 10
740 1 -1.69 -9.15326 11.1686 20
741 1 12.5874 6.67795 18.0837 12
742 1 15.3936 0.829135 9.69267 15
743 1 10.1029 -0.187213 7.07561 23
744 1 -12.1034 8.24358 6.24623 16
745 1 10.1955 14.9276 15.1363 15
746 1 5.05817 12.1086 -6.09031 25
747 1 -2.37351 1.14834 -16.3569 11
748 1 -5.52568 17.1188 8.77739 13
749 1 -13.5574 -8.07165 9.43078 12
750 1 8.09069 14.1694 0.867581 22
751 1 0.722241 11.6875 14.1899 22
752 1 13.5736 -0.54563 -3.80212 18
753 1 8.90552 -4.52479 9.92167 17
754 1 1.39607 14.5452 -10.4973 13
755 1 3.1738 14.8152 -6.08147 22
756 1 -5.24256 2.62812 12.2036 23
757 1 14.5578 6.47559 9.4302 19
758 1 0.192853 -1.01041 -8.98061 23
759 1 13.1566 14.9503 4.04158 13
760 1 -11.3293 8.05235 1.49634 21
761 1 -1.18698 -7.35872 14.7234 13
762 1 4.46638 17.733 -6.61502 12
763 1 6.24609 -2.45031 15.5663 13
764 1 0.0957092 -8.17631 -0.853974 22
765 1 -1.92602 19.829 0.803756 15
766 1 -13.6104 8.60178 -0.800451 19
767 1 11.7419 0.470906 -6.24732 26
768 1 5.43049 -9.04391 -8.95546 14
769 1 -7.20193 11.2826 6.56252 22
770 1 11.5756 11.8168 -6.04488 18
771 1 1.21922 1.8945 -16.7779 10
772 1 -6.6324 -8.31461 -6.47732 14
773 1 3.47326 -8.37271 -0.798858 23
774 1 -4.82342 16.0612 14.5733 14
775 1 10.1994 -8.15436 -1.26123 15
776 1 -0.71533 13.3124 -9.38606 19
777 1 15.1273 5.63283 -2.01158 15
778 1 8.07698 12.0349 4.50563 21
779 1 1.39965 -10.9545 4.68228 18
780 1 2.37931 -1.28247 -15.6758 14
781 1 11.5527 8.2948 2.0172 25
782 1 -1.84253 7.78379 -9.39194 24
783 1 -1.88975 -5.17417 9.81876 24
784 1 4.61071 11.7726 -1.03275 21
785 1 6.70054 3.38375 -6.30455 24
786 1 -10.0708 8.97952 -1.5895 23
787 1 -11.1856 11.1927 11.547 20
788 1 -2.4422 4.91116 14.9749 22
789 1 -6.59806 -7.94657 9.97903 24
790 1 7.82197 12.0082 9.9294 18
791 1 -1.18394 -14.9714 6.9083 10
792 1 3.54848 13.7961 -8.42933 18
793 1 -5.00932 13.5277 12.7632 21
794 1 -7.10367 1.41947 14.7596 23
795 1 -10.3019 15.1191 8.32937 15
796 1 -5.14939 -3.25834 12.6084 22
797 1 4.9477 -5.20011 9.4999 19
798 1 7.68387 7.88292 12.3556 21
799 1 8.46269 -3.36175 -3.25569 21
800 1 11.4599 -6.24767 -9.31407 11
801 1 -9.50791 2.47347 -13.2699 7
802 1 -6.10643 8.06654 -13.7193 13
803 1 8.01768 17.7029 9.4556 13
804 1 -6.28783 -4.60333 14.8881 16
805 1 -3.41331 10.8724 -4.31906 21
806 1 -15.3767 8.51213 -3.86865 12
807 1 9.41511 16.8933 6.7466 15
808 1 -10.0516 -11.8293 7.1658 16
809 1 12.8133 10.79 12.5831 22
810 1 -9.91545 -7.95631 -0.928054 19
811 1 7.93986 19.8002 6.74588 13
812 1 -6.67384 -0.565236 17.594 11
813 1 0.0150289 -11.4487 -4.60257 15
814 1 14.6144 3.66314 11.5112 22
815 1 2.17966 -14.9316 6.49222 10
816 1 0.962564 8.26615 17.3935 16
817 1 11.5753 2.58192 -8.95218 19
818 1 7.96158 -5.11064 4.84209 24
819 1 1.65209 1.9047 -9.14589 22
820 1 -15.1213 3.61457 -6.98929 9
821 1 -7.13539 9.38071 -11.0628 12
822 1 -4.16786 7.76601 15.0056 23
823 1 11.6728 -2.44227 12.2511 13
824 1 -9.89301 -6.41111 7.1746 21
825 1 17.3201 0.269013 7.29202 6
826 1 1.86342 7.79895 -9.18193 24
827 1 14.7154 13.6198 6.7766 12
828 1 -0.766816 17.1805 11.2771 14
829 1 -16.7153 -2.19184 9.16887 13
830 1 5.19728 -9.16839 -3.52032 23
831 2 -14.8541 2.00599 -2.31315 14
832 2 -3.60442 14.4254 -5.21787 25
833 2 -1.89308 0.33995 -9.57611 23
834 2 -4.17701 8.99681 11.3553 23
835 2 10.8729 -4.70098 -10.3218 11
836 2 -6.68859 -2.59019 -4.34697 23
837 2 -0.451313 5.10526 14.3406 20
838 2 4.04472 0.897354 16.9954 16
839 2 -13.2169 -6.27002 4.28148 16
840 2 -14.7338 13.297 -1.9564 13
841 2 1.18914 13.8984 8.76997 21
842 2 -10.5947 3.58822 6.84629 21
843 2 1.66253 19.4805 -1.15691 18
844 2 9.97149 9.27865 6.78787 20
845 2 2.71791 16.8629 -6.38954 17
846 2 8.9797 16.5112 -0.804786 14
847 2 -14.3459 2.02185 -7.50847 13
848 2 -10.0857 -2.86321 -4.15734 20
849 2 6.31969 3.2297 11.6074 22
850 2 6.66694 -0.464473 -6.7758 24
851 2 3.04028 -11.9956 3.82113 19
852 2 -8.32585 11.7345 0.282548 22
853 2 -13.3697 5.20507 -1.61545 19
854 2 9.7079 5.37697 9.137 22
855 2 13.6779 -2.73378 -3.5328 17
856 2 -8.60618 -5.16491 1.07333 24
857 2 -11.9901 -3.64762 10.1505 18
858 2 -6.73312 -7.79016 6.85851 22
859 2 13.5327 -1.90584 5.95309 16
860 2 1.70151 -11.152 -3.49535 15
861 2 3.1154 -0.653586 14.7431 22
862 2 2.0768 13.492 -6.93639 22
863 2 -2.61456 -14.0211 7.81836 12
864 2 -10.2055 -6.15603 -1.38228 19
865 2 3.04379 5.42681 14.3214 24
866 2 -9.14058 12.3386 5.76849 20
867 2 -2.11537 4.49498 16.8927 16
868 2 -6.66411 10.9111 -1.85029 21
869 2 2.92461 -7.65001 12.2402 17
870 2 -3.79923 11.1186 8.81311 23
871 2 -1.64764 11.801 -4.70404 23
872 2 13.2046 14.2788 13.5752 13
873 2 3.47922 -0.741158 -6.73192 22
874 2 7.8178 19.6516 4.86799 14
875 2 11.4397 -3.41735 -6.10542 23
876 2 -5.73923 14.2227 14.4228 15
877 2 5.01349 4.31595 -11.896 23
878 2 -2.27333 12.3814 -9.95616 18