ITEM: TIMESTEP
6000
ITEM: NUMBER OF ATOMS
2000
ITEM: BOX BOUNDS pp pp pp
-30.0 30.0
-30.0 30.0
-30.0 30.0
ITEM: ATOMS id type x y z Coordination
1 1 -9.30189 3.94631 -14.4989 10
2 1 -4.33474 -11.2764 -8.49115 18
3 1 3.60989 11.7884 13.6961 21
4 1 6.82313 -10.0333 6.73517 17
5 1 -9.8273 8.61486 -0.306543 19
6 1 12.0661 -10.1493 -10.0983 8
7 1 -10.7323 2.61859 -5.84724 20
8 1 0.20586 -7.07381 10.6458 20
9 1 -8.80486 -0.343523 -11.2112 23
10 1 -12.506 -8.83835 6.48946 13
11 1 14.4951 3.68967 -9.77033 15
12 1 -3.06154 -11.2597 2.45438 18
13 1 -11.5232 -5.97552 5.201 19
14 1 2.52478 3.58898 15.9925 18
15 1 1.50787 4.42449 9.99569 23
16 1 -0.762929 10.073 -8.73609 22
17 1 2.55411 -0.792299 11.6695 20
18 1 -8.3248 -1.53393 -16.2062 12
19 1 -12.8354 -2.67048 12.9438 13
20 1 14.6412 4.43085 8.32963 17
21 1 2.16607 10.592 -10.3394 22
22 1 4.6567 5.06795 -12.6155 22
23 1 15.3018 2.56583 13.0058 13
24 1 -12.6533 3.69983 -8.50036 16
25 1 -1.16282 -2.3611 -7.90852 22
26 1 -10.5539 10.5415 10.4476 9
27 1 7.84331 -12.9865 5.94804 9
28 1 3.13351 -12.578 -11.4003 17
29 1 9.22498 -11.4784 0.41254 16
30 1 -7.52842 -14.0633 -5.21958 12
31 1 -11.6265 -5.13825 10.8001 19
32 1 2.65727 -8.51672 -13.3585 22
33 1 11.3716 -10.4998 -12.7977 8
34 1 -1.68964 4.55507 -16.6309 12
35 1 1.46298 4.37618 13.1868 19
36 1 -1.29016 -10.9416 7.33895 21
37 1 6.64604 -4.72724 13.0963 12
38 1 -12.0994 0.113495 1.25704 20
39 1 -15.9466 -0.873218 8.59708 12
40 1 -8.37912 -0.228445 0.18105 21
41 1 -2.35609 12.5458 -2.99142 21
42 1 0.0875165 -13.3206 -11.4441 13
43 1 2.12859 2.24893 -8.68331 23
44 1 6.44815 -4.55122 -10.6438 21
45 1 -2.27261 -2.64439 13.7424 17
46 1 -10.8236 5.41935 0.0636394 20
47 1 4.1868 10.9619 -12.7739 14
48 1 1.56992 13.9142 8.87178 19
49 1 -8.91558 7.43706 -6.81121 21
50 1 -0.0483436 13.3345 -0.719167 22
51 1 1.73887 -11.5931 1.32017 18
52 1 5.82739 -6.83899 -5.44243 19
53 1 7.2042 -5.47772 -15.6712 13
54 1 -8.80056 8.23949 12.1892 20
55 1 -13.0343 -4.02867 -7.97357 15
56 1 7.3026 0.311422 5.82778 19
57 1 -8.51247 7.82254 -3.32492 17
58 1 -8.06137 -9.1581 8.40392 23
59 1 -1.4251 14.7097 13.5266 13
60 1 -11.6597 5.86887 -6.88486 17
61 1 -5.29154 10.3051 13.4366 15
62 1 -5.67471 -14.8137 7.80501 19
63 1 3.09232 6.47833 7.45262 21
64 1 6.65994 -16.2592 -3.12559 12
65 1 5.37494 12.0115 15.6728 13
66 1 -13.7432 1.5819 -10.049 11
67 1 -12.5075 6.70042 -10.1124 10
68 1 6.80498 5.25493 12.4682 25
69 1 14.2583 -2.52555 -9.69453 12
70 1 8.05899 -10.8108 3.49395 18
71 1 -15.5876 -2.89024 5.63628 13
72 1 6.35034 15.8699 7.09257 18
73 1 5.77051 -1.72476 12.758 18
74 1 -4.84998 -11.0844 7.59763 21
75 1 -10.3681 -1.85485 -0.797071 19
76 1 11.9715 3.74598 6.71879 21
77 1 8.45734 -2.41567 -3.33557 22
78 1 -0.379777 12.7429 11.3998 19
79 1 5.49714 -3.1858 7.31165 22
80 1 -1.71005 -5.65337 -7.7986 22
81 1 -11.2621 7.37891 9.86281 16
82 1 -7.23837 11.0302 -0.165894 21
83 1 -2.4709 7.181 -8.76538 25
84 1 8.60533 -1.0091 -5.97887 22
85 1 9.75292 13.6175 -6.97953 11
86 1 7.05226 -5.72646 1.9871 19
87 1 6.84683 -9.25996 10.1163 11
88 1 -4.65056 14.382 -4.67292 12
89 1 -9.77156 12.556 4.88497 17
90 1 -8.11614 -3.58834 15.6005 13
91 1 -2.93002 7.79827 5.3544 21
92 1 -6.28463 -5.99175 12.1181 20
93 1 13.9819 -7.51862 -4.95701 12
94 1 -9.31516 2.29144 6.50503 21
95 1 -8.90679 -13.0088 4.13838 18
96 1 8.85304 -7.5525 -4.59355 17
97 1 7.06864 -0.497516 -11.1662 20
98 1 -5.26599 -1.00345 -15.6683 15
99 1 0.707788 11.0536 3.81874 21
100 1 -7.27279 5.7289 -9.64025 19
101 1 1.59249 9.46867 19.4312 9
102 1 -0.49544 14.2148 -4.47051 19
103 1 -13.3088 10.758 2.18753 13
104 1 1.86984 8.77448 1.98895 22
105 1 -3.3033 -7.32814 10.6788 22
106 1 15.6123 0.108268 10.3518 12
107 1 1.12133 -4.71125 -8.36813 21
108 1 6.20156 -7.02572 -8.2172 18
109 1 -1.36043 3.54663 11.0428 19
110 1 6.57702 -1.48478 16.9297 10
111 1 -10.1943 -7.48981 -1.41365 18
112 1 -7.92194 -8.61289 -3.91792 24
113 1 10.6052 -8.83193 2.1217 14
114 1 -5.14051 8.91239 2.37862 22
115 1 9.40677 3.32353 -14.3815 16
116 1 6.65176 18.0216 -1.43385 13
117 1 -7.78145 -13.2289 12.0732 14
118 1 -10.4213 -13.7563 9.99674 10
119 1 6.65868 -8.85787 -15.6233 14
120 1 3.45221 6.89068 -6.10888 20
121 1 9.7173 -9.3777 -1.12895 17
122 1 -1.65691 -16.3029 6.62927 11
123 1 -8.35638 -10.6419 2.38676 19
124 1 17.299 7.38965 10.9369 14
125 1 14.3963 -2.06784 -6.72129 17
126 1 -13.6868 -4.90067 3.31187 19
127 1 11.1918 9.51954 6.28608 21
128 1 15.3058 9.48807 4.21005 14
129 1 -5.55097 3.70399 18.0134 9
130 1 -3.6781 10.9567 10.726 21
131 1 -4.6847 11.3065 -4.93143 19
132 1 -0.254667 -7.18064 -10.7777 15
133 1 9.29852 -11.4413 -10.5557 13
134 1 1.87662 13.4418 -11.916 13
135 1 9.08157 -3.38352 11.8699 16
136 1 2.20367 -1.30291 -17.9226 10
137 1 -3.358 7.45955 -5.8033 22
138 1 12.4175 1.14788 -4.55699 20
139 1 -10.7657 9.09774 -5.21955 15
140 1 -6.92167 13.7474 -0.00608517 15
141 1 8.39159 2.51083 -10.7475 16
142 1 9.16296 -8.03975 5.11807 15
143 1 -5.24091 5.15285 -6.82531 21
144 1 -5.4503 12.5187 8.95996 16
145 1 14.2627 9.15001 -6.79015 13
146 1 4.87039 10.6897 -1.79263 20
147 1 -2.11655 15.1771 1.65075 16
148 1 11.1113 10.8932 0.293585 21
149 1 -1.84378 9.00932 -2.89716 24
150 1 2.68927 15.7157 -9.32769 11
151 1 3.11077 9.98959 -15.8117 7
152 1 -11.115 -9.59234 3.5179 14
153 1 -13.8592 9.61684 -1.26343 9
154 1 -4.00897 -3.36369 -13.3206 22
155 1 3.25466 -9.98925 -16.3028 13
156 1 10.4834 13.4927 10.1131 12
157 1 0.474277 16.3836 6.84195 15
158 1 -12.7026 -4.63013 -4.88321 21
159 1 -11.2102 13.5338 2.25035 11
160 1 16.0303 0.115471 -2.02725 16
161 1 -9.13872 0.51854 -14.2997 18
162 1 7.86002 2.08858 17.0408 16
163 1 5.80831 16.7599 3.99855 16
164 1 -1.84502 8.77649 9.22205 22
165 1 4.1707 -6.69499 -15.5225 19
166 1 -3.25721 14.3363 10.2769 17
167 1 -1.1494 11.3031 -5.32473 22
168 1 3.33263 -4.15506 13.4478 13
169 1 -9.6995 -5.31558 3.19111 19
170 1 -1.63584 -11.2956 -12.9991 15
171 1 -8.57404 11.1899 -8.81711 9
172 1 -3.26013 -9.00101 5.0401 20
173 1 4.00608 -15.4954 -5.38073 13
174 1 -3.27986 10.6293 -10.5651 18
175 1 -14.6425 2.06498 9.28674 12
176 1 11.4755 10.2764 -3.62041 22
177 1 -7.31101 5.50537 16.5303 16
178 1 -0.0506493 -10.0411 10.0004 17
179 1 -8.38656 3.50131 1.60597 21
180 1 2.97061 16.4231 4.1642 14
181 1 1.28758 7.65194 10.0248 21
182 1 14.7362 5.16638 14.8063 13
183 1 -5.93204 17.2852 4.73788 9
184 1 13.902 -5.07268 -7.44801 13
185 1 -4.5886 13.4637 12.6665 11
186 1 -3.87214 -0.126889 -8.82081 25
187 1 12.1079 -6.27783 3.59475 12
188 1 -6.38422 -5.31947 7.09854 17
189 1 -14.5072 0.798058 6.18119 16
190 1 -6.37799 -9.0542 5.11683 20
191 1 6.72277 6.06797 15.6042 19
192 1 -13.8692 -0.134374 -1.94869 15
193 1 -2.21096 -14.5905 -0.971318 19
194 1 5.84734 -8.00707 -2.78527 18
195 1 -1.1848 9.67139 6.15871 25
196 1 5.57086 14.3982 13.1561 11
197 1 -8.77441 -0.438424 -5.43215 23
198 1 -5.84537 11.4811 -8.16178 17
199 1 -15.6452 -4.50496 -5.42195 10
200 1 -9.36722 -1.28127 12.6386 18
201 1 0.152961 -9.2805 4.9202 18
202 1 4.07814 -13.8465 6.51649 16
203 1 -12.7614 13.2408 4.87936 8
204 1 15.3273 4.7975 5.91258 17
205 1 6.17457 6.04207 -4.01173 19
206 1 -5.25294 -6.70961 -15.3212 11
207 1 5.489 0.184741 10.6242 21
208 1 6.3811 -14.7305 3.692 16
209 1 -1.70602 6.35878 -11.4159 17
210 1 4.73469 -10.2083 -13.3366 17
211 1 11.1574 1.01312 -13.3719 12
212 1 3.96613 7.14285 -15.0239 16
213 1 -6.9659 -2.87884 -5.72883 22
214 1 -1.82974 14.5703 -6.99557 15
215 1 -9.67764 -10.5845 11.2539 17
216 1 8.03424 15.3684 -2.68587 14
217 1 -9.12367 2.83096 17.3848 11
218 1 -5.57614 12.8062 -2.76945 17
219 1 7.2181 1.7591 8.98549 22
220 1 -3.38197 -6.10898 -13.078 20
221 1 -3.63491 10.141 -7.45008 19
222 1 2.82397 5.36526 -9.03584 22
223 1 -6.55362 -11.7564 10.1214 22
224 1 -7.90699 6.14603 10.1812 18
225 1 -5.8981 8.22836 10.938 19
226 1 3.37576 -11.1911 -8.71278 18
227 1 -3.9555 -12.8395 0.500718 18
228 1 10.6507 -12.621 -2.30154 13
229 1 12.2728 7.78674 14.8367 16
230 1 6.05561 9.83533 -7.42313 20
231 1 1.86047 10.8063 0.259291 19
232 1 -9.36247 1.1547 2.99394 18
233 1 -11.0996 11.5415 -0.678363 15
234 1 3.57291 5.96722 11.2949 20
235 1 3.60766 -16.0478 1.87488 15
236 1 13.2695 1.67992 -1.4985 20
237 1 2.6354 9.33131 5.6594 22
238 1 -9.13805 7.77122 5.36626 17
239 1 -9.70855 -6.30197 -3.83056 20
240 1 7.85142 5.0741 -11.6663 21
241 1 3.98568 -2.19256 9.79469 21
242 1 9.12612 10.827 -8.95511 16
243 1 3.88874 -10.5181 -3.8847 21
244 1 -1.69936 -1.53918 -10.6906 20
245 1 0.635468 -15.965 4.60373 16
246 1 10.4134 1.96897 -6.42534 20
247 1 -10.0257 -2.62893 4.95739 20
248 1 3.90752 -15.7752 -1.90725 16
249 1 -7.51102 -4.69159 -8.3212 23
250 1 5.46303 14.5587 -1.99677 21
251 1 2.42112 -2.13706 -13.7551 20
252 1 5.77241 3.14466 14.8367 20
253 1 15.0787 3.90483 2.1597 14
254 1 11.5559 -4.71512 -9.88022 15
255 1 -6.61078 -2.51244 -10.1885 21
256 1 -10.2694 1.19935 -8.6152 22
257 1 -7.85987 -15.6029 9.94053 10
258 1 10.3891 1.68387 9.38942 21
259 1 3.5222 -5.73531 7.34934 23
260 1 -6.25738 -8.31338 -12.7247 17
261 1 5.80691 -5.28115 9.65013 20
262 1 3.24615 7.82471 -11.6808 21
263 1 7.08957 5.28498 0.769782 19
264 1 -7.66552 -6.56675 4.91208 18
265 1 2.87823 12.2122 2.72353 23
266 1 -6.56001 -2.96718 13.1143 18
267 1 -9.15053 -8.33833 -8.27095 16
268 1 -4.54459 -5.28499 -10.2044 19
269 1 -1.78363 6.67811 -14.4046 15
270 1 -5.62971 -9.19858 -6.14139 19
271 1 -1.3993 -8.29384 2.37528 22
272 1 10.2737 -4.61078 -13.6497 16
273 1 15.2606 0.41624 -8.54331 14
274 1 10.4147 2.1349 3.84537 21
275 1 -9.08488 -4.36955 11.4376 19
276 1 -2.96352 -9.74596 -0.324186 22
277 1 8.81764 5.13718 17.2895 17
278 1 -6.05861 -14.447 4.66768 17
279 1 -0.659917 -12.3194 0.377704 19
280 1 -0.823369 15.608 -1.73537 16
281 1 6.02158 -0.815266 -14.0705 21
282 1 -5.2528 -3.77237 -16.1064 12
283 1 -9.16923 -7.35234 12.0669 19
284 1 3.86233 7.74505 18.5104 14
285 1 3.76408 -9.42814 -0.665629 22
286 1 -4.77063 -10.9612 -11.1403 13
287 1 -9.872 4.48378 -8.68808 19
288 1 9.92319 6.17328 6.62204 22
289 1 -5.18604 2.02327 -10.7415 20
290 1 0.691116 7.46515 -10.2547 19
291 1 7.76801 -14.0868 -8.98373 10
292 1 -3.99069 14.8771 -0.94565 16
293 1 3.50162 12.0204 6.2407 21
294 1 11.0779 0.860529 6.51026 22
295 1 -8.33133 0.0627224 5.54873 19
296 1 -1.83283 -6.11712 13.5594 14
297 1 -4.35334 10.7343 4.61973 21
298 1 3.34951 -5.87627 -10.4585 20
299 1 15.8096 11.6015 -1.76103 8
300 1 4.62637 -10.0265 2.28396 21
301 1 -2.01246 -0.536143 15.6427 11
302 1 -16.2594 -4.31972 7.94996 11
303 1 1.08448 -16.4395 -3.43175 12
304 1 -8.6975 8.8275 15.1723 10
305 1 -9.9176 6.26351 14.3875 18
306 1 -13.7019 -3.10616 9.38944 17
307 1 -13.1904 -5.99256 7.88046 15
308 1 13.3657 -3.58385 -1.4145 19
309 1 -11.0403 -8.28441 9.41915 17
310 1 9.80009 -3.29806 -7.26223 19
311 1 11.0189 -13.1036 -4.93689 11
312 1 3.93924 18.0419 -2.85064 14
313 1 -8.7125 12.4617 -2.8187 12
314 1 11.6652 7.69834 11.8352 19
315 1 -8.27425 -2.3317 2.13334 21
316 1 10.0141 -10.384 -4.42655 19
317 1 -2.32132 9.04851 2.67775 22
318 1 -6.08392 7.60015 6.65952 16
319 1 4.51571 -10.7987 7.8829 19
320 1 13.9361 -4.20509 5.65973 13
321 1 -1.48741 5.72579 8.83997 20
322 1 -6.30408 -5.21527 -4.42847 19
323 1 -0.461817 3.18241 15.0204 15
324 1 -2.21513 12.6339 5.42372 24
325 1 10.4107 8.03024 17.0904 13
326 1 -7.77827 13.0289 -5.74875 12
327 1 3.18166 -4.31105 -16.4753 14
328 1 7.99229 -9.72008 -12.7993 16
329 1 -8.40484 3.00309 14.1715 22
330 1 -14.2672 2.98898 3.97184 14
331 1 -4.65818 -6.03453 -7.21871 22
332 1 -3.78945 12.0437 1.27909 20
333 1 8.83498 -0.655401 7.85608 21
334 1 -11.3727 -12.7085 2.50759 9
335 1 7.87437 -7.01874 8.10016 18
336 1 -7.52753 -9.91095 13.2257 16
337 1 -12.6639 8.00698 1.02582 18
338 1 -1.08704 -4.58221 10.5929 20
339 1 5.0471 -12.5155 -6.13924 18
340 1 -4.5312 -2.87019 -8.13328 20
341 1 9.57157 -1.64073 -13.3773 18
342 1 5.38344 13.5602 4.63455 20
343 1 -11.7001 -2.11093 -3.64687 22
344 1 5.68792 -7.17592 -12.2102 20
345 1 10.434 6.03927 -13.105 12
346 1 -2.48277 -15.8459 -5.93989 13
347 1 -13.727 -7.41078 -4.78651 10
348 1 -4.46663 -7.10096 -0.307333 21
349 1 12.2297 5.17051 16.8101 13
350 1 11.8029 4.75713 -1.90008 18
351 1 -7.95049 2.78981 -10.9411 20
352 1 4.61147 17.9457 0.621235 12
353 1 -14.1345 -1.67167 -5.17638 16
354 1 -7.18021 10.2136 5.27219 21
355 1 -6.69868 11.8847 3.08764 22
356 1 -4.43427 7.15479 8.89794 20
357 1 12.0907 4.66316 13.475 18
358 1 11.4112 -2.49395 -5.27064 19
359 1 9.0358 -3.144 15.0912 13
360 1 13.6643 2.41789 -6.86425 21
361 1 -5.42422 -16.0844 -4.18883 10
362 1 0.91658 -6.9989 -6.02126 20
363 1 0.302435 7.8757 4.47524 20
364 1 -7.34985 2.11757 -5.75022 19
365 1 6.58624 -10.9633 -1.9094 21
366 1 12.6277 -0.874192 8.10679 19
367 1 -9.90818 -3.66395 -6.05902 21
368 1 -4.78841 -8.20325 2.19094 21
369 1 -7.71388 -6.79731 14.6542 13
370 1 -1.40961 10.525 -0.177013 20
371 1 -11.1027 -9.90786 -2.70605 14
372 1 7.52809 9.5961 16.5808 16
373 1 -8.36352 5.566 -1.08509 21
374 1 0.0333517 12.5952 -7.92365 19
375 1 6.52741 12.9633 8.04705 19
376 1 -13.4844 -8.04135 -1.26494 12
377 1 -2.24278 -8.76461 -7.45756 21
378 1 -12.1017 -0.586378 7.24679 14
379 1 -10.4346 5.54664 -4.06912 20
380 1 6.32171 -6.44103 5.75437 22
381 1 -3.84693 -11.969 -2.50856 20
382 1 12.4285 11.0961 9.53266 18
383 1 6.09197 7.89246 -12.7678 16
384 1 -12.1403 4.17709 -12.1955 11
385 1 -0.363182 14.8474 -9.85006 13
386 1 -8.13607 4.58775 -5.84481 22
387 1 -0.335741 -12.3563 4.22192 20
388 1 13.0608 6.96175 6.4507 24
389 1 0.761654 7.94749 -15.6473 12
390 1 -3.84588 1.4628 10.6382 25
391 1 -14.5483 1.64341 0.73968 15
392 1 -6.79922 4.50407 7.55044 22
393 1 -3.31353 -12.7999 5.47212 18
394 1 7.04029 -9.06714 -10.2227 18
395 1 -11.5622 0.660544 4.63983 19
396 1 -14.4356 -0.229067 11.463 12
397 1 -12.2115 7.53901 6.70406 12
398 1 0.308218 -5.32811 7.6784 22
399 1 -7.40699 1.79936 -16.6133 11
400 1 8.88841 -8.75487 -7.28193 20
401 1 0.973477 -10.3601 -11.1852 22
402 1 -4.39919 -4.04027 10.5902 18
403 1 1.7918 -8.74081 -2.91314 20
404 1 -4.04937 2.24502 -15.3152 18
405 1 6.24831 -11.9555 1.39751 21
406 1 2.29603 12.513 -5.15137 19
407 1 -10.8229 10.6432 6.87563 13
408 1 -5.31882 -1.85085 15.8338 14
409 1 -9.96683 -5.37464 -9.06261 17
410 1 -7.73908 -6.69415 9.2037 21
411 1 10.4097 -5.38054 9.61118 13
412 1 4.70104 0.338518 -8.88525 19
413 1 11.4965 -5.93108 6.55703 13
414 1 14.7592 8.89082 -3.60515 16
415 1 -2.59118 2.20753 13.251 19
416 1 3.47007 13.1457 -0.717794 18
417 1 6.61546 -3.94717 4.38674 20
418 1 -0.939274 -13.8272 -3.65455 18
419 1 -3.5213 6.11643 17.5871 15
420 1 -1.75898 14.9741 7.35724 17
421 1 -8.39646 -11.2576 -6.35818 15
422 1 10.2356 15.9395 2.1848 14
423 1 5.67762 7.06188 9.38397 20
424 1 -6.76022 2.79047 10.5954 24
425 1 -4.88024 -8.71624 -2.62834 24
426 1 -10.3788 4.87441 12.109 21
427 1 -7.81912 -6.71487 -6.47215 22
428 1 -4.42041 10.2989 7.32555 21
429 1 -4.09208 -13.5068 -5.66362 18
430 1 -0.646591 -8.02646 -13.4577 19
431 1 -5.87515 -11.7621 3.43729 19
432 1 -6.55457 -3.11501 4.81428 20
433 1 8.80555 3.06001 6.59406 23
434 1 -4.66884 -5.02079 14.1176 14
435 1 -9.39028 5.83337 -11.5124 16
436 1 8.41251 4.14807 -1.80812 19
437 1 -7.33098 -14.008 -1.88437 14
438 1 1.28057 15.8295 1.66431 13
439 1 0.03564 6.65759 -7.69051 21
440 1 -0.874771 9.38551 12.2673 21
441 1 -14.5426 -2.85994 -2.25666 15
442 1 0.86976 17.5483 -3.92064 14
443 1 5.19175 12.5376 -4.7216 22
444 1 -6.28915 -7.97491 -9.29041 22
445 1 4.42814 1.57793 16.9545 14
446 1 0.896019 -13.0977 -8.58994 19
447 1 1.13191 -2.92565 -10.8156 18
448 1 8.73057 -14.0043 2.63856 10
449 1 -11.0492 9.49364 3.84105 18
450 1 4.14648 6.15531 13.9583 19
451 1 9.05549 9.83764 -1.61034 20
452 1 5.5141 8.65236 0.76897 18
453 1 -8.25001 8.506 -9.75768 13
454 1 5.30523 4.44861 -6.92982 22
455 1 3.69637 -8.75751 5.60736 24
456 1 -14.8398 -5.27264 0.296356 11
457 1 3.86791 17.7766 6.85418 11
458 1 -3.32105 3.61558 -12.8265 19
459 1 12.1073 6.31691 1.16968 18
460 1 7.55565 14.3388 -5.43708 17
461 1 8.85426 -6.25467 -0.249583 22
462 1 16.4906 3.43734 -0.988782 13
463 1 1.31743 -0.20396 -11.2073 21
464 1 2.07278 -8.55592 2.31886 21
465 1 0.0208898 -13.6099 6.86555 18
466 1 2.87847 -9.71382 10.2588 15
467 1 -5.84078 2.99471 -8.03862 19
468 1 -7.73773 -12.8889 7.37059 22
469 1 -1.60574 -10.996 -9.69486 19
470 1 9.39545 14.6799 7.20021 15
471 1 2.18461 3.4858 -11.811 17
472 1 4.26058 -1.14883 14.896 16
473 1 -12.6696 2.91564 11.5645 15
474 1 -2.3095 -17.6862 0.412503 14
475 1 -11.4952 -3.34425 1.58887 20
476 1 13.6028 -4.45296 -4.52026 19
477 1 11.4205 -0.946384 -2.30246 23
478 1 -4.95482 8.87601 -3.08575 21
479 1 3.29446 -9.1354 -6.34376 21
480 1 4.99857 3.52108 -10.0074 22
481 1 11.7841 -0.428586 -7.86683 21
482 1 -6.40186 1.83674 16.492 18
483 1 7.08874 15.9651 0.810856 19
484 1 -2.13363 -2.45558 -15.6386 15
485 1 7.65325 3.02909 -17.6637 10
486 1 -4.67051 -2.00952 7.60752 20
487 1 -0.770751 12.4417 1.99924 18
488 1 -7.09893 -1.90646 -13.2707 23
489 1 -15.5304 -0.0572948 3.25456 13
490 1 -0.175827 -10.0098 -15.5981 13
491 1 -4.40972 -11.5737 12.63 15
492 1 1.79523 10.1411 -6.92366 21
493 1 17.2831 3.96233 10.6198 10
494 1 14.244 5.81278 -0.434879 16
495 1 -9.49845 -12.2038 -0.426975 14
496 1 0.432707 -9.53425 -0.542013 22
497 1 0.141439 -3.45445 -17.4867 10
498 1 -7.10436 10.7593 10.9455 13
499 1 4.38144 -3.35253 -8.34496 22
500 1 12.991 -0.932271 0.174505 25
501 1 4.58511 14.6392 -6.79081 19
502 1 4.57838 -6.9467 3.50946 18
503 1 15.794 6.35872 -8.52948 11
504 1 4.74503 9.08609 15.0555 23
505 1 -9.77672 3.22202 9.46487 18
506 1 6.72452 10.3214 9.93049 19
507 1 9.16535 -0.575299 17.5889 11
508 1 1.62763 1.52994 -14.0328 20
509 1 -3.30503 -6.91308 -4.96383 21
510 1 0.444716 -1.6699 10.1995 21
511 1 9.56882 11.3853 8.10658 20
512 1 6.73229 7.29301 -6.9891 19
513 1 -6.88798 9.56119 -5.47978 20
514 1 0.854338 11.5918 -2.90233 22
515 1 11.419 -2.11373 12.7856 16
516 1 12.2348 3.73428 -12.1501 15
517 1 12.6533 -9.74716 -3.56458 13
518 1 13.052 10.3219 12.6831 12
519 1 -14.3105 -7.97824 2.04791 12
520 1 -6.0453 10.8916 -11.0346 9
521 1 -0.211653 1.50617 10.3673 22
522 1 -12.9639 0.365836 14.0268 10
523 1 -3.37619 12.9846 -8.90506 15
524 1 4.68959 -13.535 -3.27756 23
525 1 6.72095 -2.05002 -8.35865 22
526 1 -1.92729 16.5425 -5.25669 11
527 1 -6.77215 -4.89939 -12.9126 16
528 1 3.42369 -13.247 3.19615 21
529 1 -11.3756 -7.04122 1.90325 21
530 1 1.41621 9.916 -13.1793 17
531 1 -1.098 10.4166 16.836 11
532 1 -9.84726 -5.10758 8.23065 20
533 1 7.26857 7.3146 -1.25191 19
534 1 3.94846 -8.89238 -10.2167 25
535 1 3.65177 -6.98398 11.1918 15
536 1 7.64879 3.56312 -5.08996 23
537 1 -9.90903 6.45241 2.52284 19
538 1 5.42777 4.58189 18.3072 13
539 1 6.31029 17.2976 -5.12052 11
540 1 10.8491 -4.635 -3.28577 23
541 1 4.78308 9.33341 11.9022 21
542 1 2.0964 3.87297 -16.7081 12
543 1 -4.74089 -14.3833 10.9374 11
544 1 -0.521338 0.790034 -8.54318 21
545 1 9.10269 0.758268 -15.7995 16
546 1 3.67252 14.7485 7.38156 20
547 1 10.1138 5.88189 -9.64335 19
548 1 -0.750696 -3.05538 -13.3074 19
549 1 -3.26414 -10.2831 -5.18026 22
550 1 -9.32716 -3.63878 -11.4406 17
551 1 12.0993 2.71026 1.32441 21
552 1 16.2653 5.96154 -2.82332 10
553 1 8.55369 -5.85136 -8.15499 20
554 1 14.7616 7.82128 12.6875 15
555 1 7.17706 -10.6417 -4.63846 21
556 1 4.5862 4.20192 -16.2251 14
557 1 7.96406 13.69 2.77115 21
558 1 -8.20202 5.05643 4.87397 21
559 1 10.0979 10.3924 14.5348 13
560 1 11.2147 7.8793 -1.62163 19
561 1 15.3838 -2.17086 3.00458 14
562 1 12.8866 5.61543 -7.72235 20
563 1 8.8216 3.66799 14.2471 22
564 1 17.4116 5.3957 13.2587 8
565 1 2.46303 -4.71213 10.206 21
566 1 14.1163 13.9734 -1.64565 9
567 1 2.61801 1.51648 13.6619 17
568 1 16.4971 0.138107 -5.48549 13
569 1 9.62383 3.77324 11.2281 18
570 1 -6.90724 0.37055 -8.67202 20
571 1 14.1018 6.19158 3.03348 18
572 1 8.30773 -3.07505 1.77482 20
573 1 -11.7394 8.80498 12.9851 12
574 1 9.78142 10.1896 11.066 20
575 1 11.049 1.62122 12.8133 19
576 1 3.63855 9.21294 8.75 19
577 1 2.26815 14.0674 12.3274 16
578 1 5.78533 3.35164 6.47356 21
579 1 -2.28512 -17.3218 3.68602 13
580 1 -4.4629 10.7788 -1.04122 21
581 1 11.9004 11.0513 -6.87601 14
582 1 11.8007 -1.83802 -11.4265 15
583 1 2.26533 16.2582 -1.14713 16
584 1 -1.16434 -12.3274 -6.33682 22
585 1 11.6313 -7.26216 -11.8871 13
586 1 -12.3383 2.99908 6.72931 19
587 1 -4.13337 5.02698 -9.88983 19
588 1 -4.60427 -15.8486 1.99786 18
589 1 -4.36066 -0.646531 -12.1013 20
590 1 -11.7297 0.94988 -3.89654 22
591 1 9.51738 -4.67682 4.4872 19
592 1 13.4818 12.1199 4.26792 16
593 1 1.52397 -8.69187 7.44824 24
594 1 -14.4504 -1.24203 -8.58244 12
595 1 4.21551 1.58257 -18.5432 10
596 1 -1.05228 6.54425 14.8762 21
597 1 6.12308 9.73098 -10.4819 17
598 1 13.8691 -0.25952 13.1402 14
599 1 9.31303 5.47834 -6.41974 20
600 1 13.6087 14.8956 3.45454 9
601 1 4.13415 -14.1621 -8.86953 11
602 1 -10.9048 -2.11716 15.4877 14
603 1 14.0407 -1.22498 5.59511 14
604 1 0.237839 11.6289 14.178 19
605 1 6.62696 12.4054 -8.02766 16
606 1 -11.7229 8.63127 -2.6484 17
607 1 10.3676 10.818 3.4663 19
608 1 -7.75289 -14.5254 1.51673 16
609 1 12.1201 -3.35918 2.5015 22
610 1 8.83202 16.6547 4.56492 13
611 1 -4.18862 4.96089 10.9189 23
612 1 -8.52942 -7.68551 1.42811 21
613 1 -9.20694 -1.91181 -8.24468 22
614 1 8.68825 -0.442476 11.7603 23
615 1 -2.059 -9.36796 12.4191 16
616 1 9.54445 6.64091 14.2163 20
617 1 -4.61872 13.8331 4.10472 21
618 1 9.72812 4.97445 2.32403 15
619 1 8.41208 4.94943 4.57276 19
620 1 3.90274 0.145696 -15.5749 17
621 1 -8.52251 -0.00208555 9.38292 15
622 1 9.03154 0.0273729 -8.88947 18
623 1 11.9834 -9.97523 -6.66344 15
624 1 8.00462 4.89324 8.92964 24
625 1 6.46665 6.34492 6.64232 20
626 1 -9.92539 0.884057 15.2179 18
627 1 11.1893 8.32985 8.92181 22
628 1 1.0267 -1.6008 14.0877 13
629 1 -0.750168 6.43734 12.1585 18
630 1 1.32614 -5.522 -13.9346 19
631 1 -5.2124 2.6309 13.2589 20
632 1 7.21417 2.23927 11.6995 20
633 1 -10.2095 -14.5447 6.39012 11
634 1 14.002 9.27546 -0.819219 16
635 1 7.90638 -13.617 -4.34905 20
636 1 7.86986 10.3722 1.76781 18
637 1 10.8307 14.0221 4.43141 20
638 1 6.73587 -0.311282 -17.4502 12
639 1 2.82839 14.5999 -3.54661 20
640 1 12.9316 9.33568 2.78616 21
641 1 -7.88529 -9.47782 -1.23327 23
642 1 0.402673 -0.672031 -15.3846 18
643 1 -9.2994 11.6262 1.59876 18
644 1 8.77467 -6.33336 -11.5496 21
645 1 11.3298 8.54484 -8.70977 14
646 1 10.8325 13.413 -1.67846 16
647 1 -6.87007 5.92687 1.95369 20
648 1 9.14946 6.61595 -3.52904 22
649 1 12.6386 2.27246 15.1428 13
650 1 10.9515 -0.406021 15.0208 16
651 1 -1.5945 -12.6266 11.0844 11
652 1 -4.18082 7.88275 -12.0066 15
653 1 4.08166 12.8014 10.2377 20
654 1 9.42187 -7.77693 -14.4332 12
655 1 2.95001 1.13151 9.63389 23
656 1 7.42495 12.343 -2.27498 21
657 1 8.26296 11.8863 5.4144 19
658 1 13.6508 -6.32817 -1.69995 13
659 1 7.33402 7.5155 18.5955 14
660 1 -12.8285 -3.50743 6.6723 21
661 1 1.49259 -14.5193 0.288012 21
662 1 2.07889 -1.18591 -8.19782 24
663 1 -8.00932 14.7626 3.14342 15
664 1 5.29927 10.7673 3.68967 20
665 1 -13.0931 -2.0387 4.08646 22
666 1 -0.387917 4.78064 17.7257 14
667 1 -4.76351 5.53678 -15.2424 12
668 1 -6.9977 6.96955 -13.1153 10
669 1 4.29385 -13.2576 -0.0557939 23
670 1 9.62105 8.9119 -6.191 21
671 1 -13.163 5.58075 12.998 11
672 1 7.12259 -3.36606 -13.2773 23
673 1 2.35126 -12.7646 9.25886 14
674 1 4.33025 14.918 1.93623 20
675 1 -2.89394 2.59158 16.2535 15
676 1 -8.67672 -7.07931 -11.3431 12
677 1 -3.66733 -9.57281 -14.1633 13
678 1 -6.34998 -13.3951 -8.23654 9
679 1 0.782373 17.0042 -7.53719 10
680 1 6.94249 -4.04468 -5.96121 20
681 1 -1.89041 12.0702 8.55574 23
682 1 6.11078 -10.1448 -7.63926 21
683 1 6.55268 -16.2289 0.288209 10
684 1 4.65419 -7.80287 8.64495 22
685 1 16.5738 2.92224 -7.43828 13
686 1 2.05006 -12.8786 -5.00012 20
687 1 -11.0741 -2.09629 9.90943 17
688 1 -4.87609 -16.4569 -0.824181 13
689 1 -6.32244 -11.3087 -3.80958 22
690 1 -9.61963 1.18323 11.6654 17
691 1 -7.19653 -17.229 1.92787 8
692 1 15.5367 6.43176 -5.69587 12
693 1 -2.58254 15.8988 4.9114 17
694 1 -3.81345 3.45128 8.33058 24
695 1 -14.0105 7.6855 3.68689 10
696 1 12.8132 0.22766 3.09324 22
697 1 -11.6375 -1.25641 -9.88677 19
698 1 -0.501419 8.46946 -5.58958 22
699 1 11.4598 2.89643 -9.42502 21
700 1 7.09535 10.9854 13.2871 18
701 1 10.6109 3.77353 -4.0848 19
702 1 -13.9485 1.42457 -6.62694 15
703 1 -10.9545 -6.62626 -6.57171 15
704 1 -0.408932 7.4732 18.191 13
705 1 5.73277 6.39576 -9.77005 20
706 1 12.4782 13.7115 6.99881 13
707 1 -2.71845 -1.46711 10.3335 23
708 1 -2.36296 -17.0345 -3.11455 13
709 1 -7.84967 -16.7016 6.378 13
710 1 -3.15519 -5.03182 8.06959 21
711 1 15.2025 10.008 10.0256 14
712 1 3.57206 -6.6216 -7.89964 18
713 1 -6.70593 7.87259 -0.40011 19
714 1 8.28069 8.46378 4.49918 20
715 1 -7.60318 -2.97498 7.79886 17
716 1 9.2059 8.36675 -11.4077 13
717 1 0.669352 -15.1342 -6.26184 16
718 1 0.595646 -17.067 2.28747 14
719 1 1.85534 -12.2039 -1.94198 21
720 1 7.80117 4.34643 -8.5166 20
721 1 8.01569 18.4666 1.69318 10
722 1 -1.48492 0.250888 -13.4667 21
723 1 -1.10433 -0.249362 12.8222 20
724 1 1.59274 5.48818 -14.0863 19
725 1 -10.5874 -1.66319 -13.3145 12
726 1 -11.3212 -4.18875 -2.16707 18
727 1 3.24887 17.4531 -6.06051 13
728 1 -1.59922 -5.62573 -15.3722 16
729 1 -6.49191 -5.2792 1.85898 25
730 1 12.0183 6.76309 -4.55097 21
731 1 11.4516 -5.88294 0.46986 18
732 1 -5.96687 7.74461 14.0554 18
733 1 7.4968 -8.39355 2.77575 19
734 1 14.3649 -5.00479 1.49848 14
735 1 13.9936 -2.69379 10.9302 12
736 1 0.994074 9.75314 8.00923 21
737 1 -11.7998 3.48468 14.8446 13
738 1 -6.91867 5.35657 12.908 20
739 1 -2.60121 -13.2026 8.68465 18
740 1 10.4016 -0.675584 1.69669 18
741 1 7.40539 8.62883 13.748 19
742 1 -14.1869 -2.2525 0.85153 16
743 1 6.93813 -5.31712 -2.99378 22
744 1 -11.0 12.0614 -4.26714 10
745 1 4.15816 7.72731 3.34575 15
746 1 1.59327 -15.7472 7.74313 12
747 1 7.5393 0.466159 14.2545 21
748 1 0.600676 12.6204 6.23948 21
749 1 2.19158 -11.5519 5.99176 20
750 1 -8.1134 -2.28092 -2.64741 22
751 1 4.07997 2.88464 11.5304 19
752 1 -14.8367 -5.78498 -2.63074 13
753 1 2.26069 9.96082 16.1172 20
754 1 5.99221 12.3935 1.14257 22
755 1 -8.62813 -10.5505 5.39952 17
756 1 -4.91118 -16.9944 5.32297 10
757 1 8.66729 -4.05784 7.08118 20
758 1 12.9753 -4.22464 9.04169 12
759 1 8.27016 8.47236 8.01363 21
760 1 0.724914 -8.76502 -8.47116 18
761 1 -2.13395 1.65338 -11.1774 21
762 1 -4.16348 -0.335944 13.2595 24
763 1 0.08946 14.5689 4.0852 19
764 1 13.682 2.71802 4.46682 18
765 1 3.74109 9.64547 -4.52482 17
766 1 -2.97586 8.42472 15.2241 15
767 1 8.79555 7.06742 10.6876 24
768 1 8.9888 -3.33676 -10.5342 22
769 1 -5.76803 -10.7416 0.317535 20
770 1 14.6239 1.21692 7.18791 16
771 1 4.41192 -1.91177 -11.1222 22
772 1 1.81306 6.93302 15.7133 22
773 1 8.64807 -12.0946 -6.86708 20
774 1 7.16773 5.54934 -15.1994 16
775 1 -1.60339 -8.59901 -2.60164 21
776 1 13.3672 6.46848 -10.7155 13
777 1 16.4728 -2.10583 0.655393 10
778 1 1.16694 -5.18633 13.1084 12
779 1 -3.20565 -8.20971 -10.6217 22
780 1 9.23205 13.36 0.165381 21
781 1 -11.7834 5.36495 4.32529 18
782 1 13.9147 4.45874 -4.61208 17
783 1 16.8715 6.99769 4.41163 11
784 1 4.15938 -4.35386 -13.2335 20
785 1 -6.82136 12.9123 6.05243 18
786 1 16.6039 8.44696 7.40456 15
787 1 11.4627 14.1543 -4.6565 12
788 1 6.41556 2.42554 -13.5702 21
789 1 10.0957 -3.09352 -0.448044 21
790 1 -10.116 2.10178 -0.504532 20
791 1 10.9921 7.57015 3.98073 20
792 1 -11.3093 -9.87255 0.664354 19
793 1 -11.1445 9.0016 -8.27304 11
794 1 5.0632 3.88288 9.31167 25
795 1 -11.6355 -0.883915 -6.55721 22
796 1 -10.1177 5.2964 7.58112 17
797 1 -2.52823 3.23097 -8.17739 22
798 1 11.1564 -7.24223 -8.56414 15
799 1 -10.6715 -9.19625 -5.59754 16
800 1 11.4665 -7.32058 -2.56006 18
801 1 -13.6261 4.90123 1.49399 16
802 1 -7.17148 -6.17617 -1.69112 21
803 1 14.3613 7.22637 9.13136 20
804 1 -4.8549 -8.19138 7.77093 22
805 1 10.6148 2.15936 17.4182 13
806 1 15.4582 -2.56301 8.08017 12
807 1 10.1955 -1.44855 5.23958 19
808 1 -11.6444 3.2063 2.53724 20
809 1 1.77819 10.8545 11.055 19
810 1 3.58506 8.43434 -8.38684 20
811 1 1.19381 -7.3018 -16.8219 13
812 1 -4.62649 15.2523 7.21835 13
813 1 -10.4699 -11.4451 8.05766 14
814 1 9.39239 11.8814 -4.30157 21
815 1 2.21782 8.40783 13.0907 24
816 1 16.2713 -2.76338 -2.85861 10
817 1 8.31481 -6.62949 11.3601 11
818 1 -0.51581 12.1193 -11.5414 16
819 1 3.65559 12.095 -7.81833 20
820 1 -5.9238 -1.02834 10.3799 21
821 1 17.5011 5.69003 7.93193 13
822 1 -1.82048 -4.55562 -10.3516 22
823 1 14.7687 11.752 1.47658 15
824 1 -12.6973 3.11439 -1.5548 15
825 1 -3.22473 -10.015 9.57509 24
826 1 4.70548 13.5726 -10.4553 12
827 1 7.2228 -2.17644 9.7008 21
828 1 -0.832059 -11.3647 -2.84703 23
829 1 -5.07036 15.9253 2.07669 14
830 1 -13.309 5.97926 -1.8214 14
831 1 13.8886 -1.2868 -3.90348 21
832 1 1.85827 -11.7151 -14.0654 15
833 1 -8.15052 8.8303 2.30773 21
834 1 14.121 12.0417 -4.5762 12
835 1 -6.02575 1.02427 7.98047 21
836 1 8.72901 -2.64537 -16.1523 14
837 1 -7.79716 -10.4375 -9.83352 12
838 1 -0.0127116 -9.4367 -5.01231 17
839 1 -3.07984 11.6657 15.1261 11
840 1 7.49831 -13.6288 -1.23797 20
841 1 -1.67295 9.51918 -13.3616 14
842 1 16.088 2.5333 -3.97696 16
843 1 9.05715 8.02603 0.833575 18
844 1 1.12867 -17.6268 -0.528375 11
845 1 5.5283 -3.05897 -15.8925 17
846 1 10.2647 1.69467 -0.694955 21
847 1 -0.717161 3.22235 -13.4626 21
848 1 -1.40885 -7.81064 7.73693 22
849 1 6.81618 9.29882 -4.26024 21
850 1 6.94644 1.52122 -7.22128 21
851 1 -8.91643 3.11487 -3.03872 19
852 1 -13.0205 4.96442 9.10432 15
853 1 2.05699 5.37124 18.7903 12
854 1 -6.01727 -9.09415 10.6672 24
855 1 5.36931 9.00669 6.31731 18
856 1 -1.16922 -14.16 2.37119 18
857 1 1.5925 8.49213 -3.40934 20
858 1 -3.22956 7.80405 12.2796 20
859 1 -7.17798 0.0229728 14.0235 21
860 1 -8.37851 11.1514 8.12463 15
861 1 8.97959 1.07896 -3.32384 22
862 1 -4.68875 -8.35873 13.6407 15
863 1 5.4049 -11.8678 4.80673 21
864 1 11.6395 5.2562 9.34284 22
865 1 11.0496 -6.1455 -5.98886 21
866 1 6.15797 -12.0589 -10.7704 16
867 1 -6.34067 0.83999 -13.6472 19
868 1 -1.0414 1.91444 -16.4076 13
869 1 7.65271 15.4884 10.4031 10
870 1 -10.4555 -5.01188 13.9826 14
871 1 -5.71487 7.87621 -7.80902 20
872 1 -13.1997 3.87193 -4.55834 12
873 1 12.1934 13.1616 1.73847 18
874 1 -9.99828 -16.0421 3.77021 11