ITEM: TIMESTEP
831000
ITEM: NUMBER OF ATOMS
2000
ITEM: BOX BOUNDS pp pp pp
-30.0 30.0
-30.0 30.0
-30.0 30.0
ITEM: ATOMS id type x y z Coordination
1 1 -9.10812 1.9807 -15.671 10
2 1 -3.46276 -8.86159 -9.76712 23
3 1 0.075874 14.0542 12.62 10
4 1 5.2339 -8.9044 11.844 18
5 1 -12.6522 10.6775 1.6017 12
6 1 13.16 -10.1879 -7.92303 10
7 1 -8.37479 4.20645 -5.94833 24
8 1 -1.44556 -12.2454 12.0979 11
9 1 -7.53798 5.57344 -11.8493 23
10 1 -16.4636 -8.8487 3.4895 10
11 1 13.3565 1.00211 -9.97038 11
12 1 -3.04543 2.68914 -5.16178 24
13 1 -2.31697 -15.1334 1.55441 22
14 1 -10.8485 -9.53393 2.13265 23
15 1 1.90806 2.00458 15.8603 13
16 1 8.28957 -2.28867 6.45218 23
17 1 1.77695 5.1588 8.64988 25
18 1 6.72621 -2.82586 2.16081 24
19 1 -0.562367 9.83342 -9.20614 22
20 1 4.70496 0.540504 13.782 21
21 1 -5.43371 0.775176 -17.9496 13
22 1 -4.33983 -4.59443 16.7142 12
23 1 11.9458 4.71779 10.3106 23
24 1 -0.365708 9.71729 -12.8895 20
25 1 8.23937 3.41574 -13.3649 15
26 1 14.0873 -0.0875133 12.106 14
27 1 -9.4845 2.91787 6.72122 23
28 1 -13.3392 6.93011 -6.25588 17
29 1 -2.30159 -0.497446 -8.17637 25
30 1 -10.1263 9.49392 6.36127 17
31 1 7.67504 -12.7482 3.03721 19
32 1 2.54136 -7.95465 13.373 13
33 1 -0.86415 -12.0671 -10.1569 17
34 1 8.38176 -15.64 7.11121 10
35 1 -9.6031 -14.3662 -2.98845 15
36 1 -7.31062 -3.83663 14.853 18
37 1 2.55809 -3.14771 -4.41042 25
38 1 6.77806 -4.66348 -11.1004 22
39 1 10.299 -8.16547 -11.4907 13
40 1 -1.69771 11.0152 -15.0369 14
41 1 -5.42869 1.59363 16.3878 15
42 1 5.79392 -12.2296 11.2426 15
43 1 7.9408 -7.19291 12.8027 16
44 1 -9.04031 -0.677449 0.140588 24
45 1 -12.3862 -1.00408 7.49447 21
46 1 -9.63276 2.35939 3.44391 22
47 1 2.83331 15.5215 0.10516 21
48 1 0.53559 -13.2571 -12.5146 7
49 1 0.773442 3.13997 -9.30688 23
50 1 3.46793 -4.82894 -7.06458 24
51 1 0.743647 -9.9546 10.7199 22
52 1 -11.8337 3.79734 -1.6 23
53 1 -1.38285 11.3095 -6.81251 21
54 1 -1.36525 13.5163 6.73698 25
55 1 -7.51487 9.15235 -12.1964 19
56 1 -4.52651 11.2128 -2.6527 24
57 1 7.73538 -16.2473 3.64081 12
58 1 5.5816 -6.19272 -5.29062 24
59 1 4.78052 -6.79614 -12.8944 19
60 1 -7.54368 7.10337 7.61516 20
61 1 -11.6126 -1.57331 -11.8987 15
62 1 11.6125 -2.16533 5.17746 23
63 1 -5.54172 7.7023 -6.8093 23
64 1 -8.44712 -7.41467 0.487671 25
65 1 -3.40436 11.5742 8.51424 22
66 1 -10.7487 5.5935 -7.63336 24
67 1 -5.61309 9.85783 9.89721 17
68 1 1.48245 6.4829 -5.01066 25
69 1 3.12097 3.76296 6.20758 25
70 1 3.37824 -13.9768 10.4019 14
71 1 4.99966 5.73872 7.91121 23
72 1 -5.29067 -17.5471 -3.58982 10
73 1 2.76091 13.0703 13.6363 12
74 1 -9.42638 0.673736 -10.2485 23
75 1 -12.2084 5.31642 -11.7675 13
76 1 4.13256 3.80924 10.5104 26
77 1 13.3902 -5.52394 -6.12013 12
78 1 11.6389 -8.67658 2.457 15
79 1 -13.3544 -1.41472 -0.0939588 22
80 1 -9.56617 -5.69498 9.52919 23
81 1 4.21 15.5987 4.70057 18
82 1 7.92578 -2.6156 9.67975 21
83 1 -3.83859 -10.22 7.39041 22
84 1 -9.15334 -0.598798 3.48165 25
85 1 13.0823 3.10445 7.32937 20
86 1 5.5754 -2.87878 -5.13177 21
87 1 -3.5309 11.8003 5.05407 24
88 1 11.7832 -7.52776 8.64396 14
89 1 -7.64318 -5.92881 -2.46885 24
90 1 -4.34251 -5.38534 -6.56703 21
91 1 -12.9251 5.6132 7.10782 13
92 1 -9.71401 14.4931 -5.68824 14
93 1 -4.29189 9.16008 -12.7349 25
94 1 2.0319 0.0896126 -4.40486 22
95 1 3.09611 -1.50018 -7.17051 22
96 1 11.5186 14.5523 -6.48677 7
97 1 7.50763 -9.189 2.42701 22
98 1 3.07454 -4.36491 9.26014 25
99 1 -5.46236 17.3257 -0.874922 11
100 1 -8.06652 14.3968 1.65296 13
101 1 3.0101 -1.01518 16.0973 12
102 1 -10.1067 14.1266 -2.23591 12
103 1 -4.84177 -8.52816 13.1419 19
104 1 10.8578 -9.87378 -5.04359 18
105 1 -13.8282 2.15247 3.44516 25
106 1 -14.0026 -10.9388 4.22959 14
107 1 10.4524 -6.18501 -5.39241 24
108 1 0.632196 -0.0694951 -9.32212 23
109 1 -2.36026 0.493997 -19.0602 11
110 1 5.89691 -1.17038 4.75792 23
111 1 -2.2238 9.98788 2.54184 25
112 1 -2.18132 7.66722 -14.6362 21
113 1 5.10008 9.32529 17.4873 12
114 1 2.76642 15.4509 -3.10369 21
115 1 -10.0955 12.4907 0.0964458 14
116 1 0.136198 8.34445 1.13194 25
117 1 -0.394505 1.85188 -3.35215 24
118 1 -8.46237 -7.26818 3.74545 23
119 1 15.8966 -1.22113 9.20814 11
120 1 -2.09592 -3.7356 -4.44575 22
121 1 2.52242 -6.47762 -4.29738 22
122 1 -2.58944 1.61558 8.70722 24
123 1 6.62553 -0.632101 16.4054 11
124 1 -6.59041 -4.09874 -8.60811 21
125 1 7.27857 -6.20038 2.49884 22
126 1 -9.82185 -7.84005 -4.08517 22
127 1 10.0984 -14.4979 4.36814 10
128 1 -4.9119 3.01962 3.45792 25
129 1 3.93368 3.61192 -16.7807 12
130 1 5.55483 17.0049 -1.46444 14
131 1 -8.96413 -10.6607 6.79265 17
132 1 -8.96615 -13.7828 7.04282 11
133 1 -1.77451 6.4841 2.44376 25
134 1 -2.96638 -2.51994 -18.0105 12
135 1 4.39547 7.14596 -9.28076 23
136 1 9.60643 -14.0073 1.52762 12
137 1 8.89034 -13.3963 9.93104 12
138 1 -9.93152 -4.46883 -4.14763 22
139 1 14.8475 8.40315 9.06772 11
140 1 14.137 1.24756 -2.05205 15
141 1 -15.8547 -6.13301 1.30058 13
142 1 8.30276 5.81415 3.66935 22
143 1 14.8439 8.21538 3.58863 10
144 1 -3.64075 9.09703 14.6478 11
145 1 6.78825 0.888393 -1.23173 24
146 1 -5.32357 9.61337 3.49101 25
147 1 -2.27178 17.9657 -6.49957 12
148 1 -4.13083 -5.83309 -9.82234 20
149 1 8.30836 -14.6786 -6.96235 11
150 1 -0.56668 16.4615 -9.66107 15
151 1 5.1232 -5.88183 14.2153 13
152 1 2.10716 -1.89613 -15.1411 20
153 1 -7.77781 16.3414 -3.51015 11
154 1 7.72143 -1.08405 -3.70293 24
155 1 -13.588 10.1677 -6.59665 11
156 1 -0.912732 -3.53045 -0.169321 22
157 1 -5.94775 16.6478 2.84819 11
158 1 8.22104 3.80137 -9.73792 20
159 1 8.72376 -9.09712 7.4351 21
160 1 -6.12902 11.1763 -6.72394 21
161 1 -7.87104 10.8964 4.65627 22
162 1 10.4504 5.57838 -8.05992 18
163 1 -1.21932 3.41089 -0.423074 22
164 1 3.32703 8.898 -3.18447 23
165 1 -0.335372 14.9909 1.13078 20
166 1 8.94446 10.5441 -2.66011 25
167 1 -0.90282 8.17196 -3.3835 23
168 1 3.03844 16.6831 -9.33719 12
169 1 5.79069 9.08573 -14.8663 12
170 1 -10.6528 -12.0551 -0.123518 16
171 1 -14.1849 5.18726 -0.361876 16
172 1 -3.37971 -0.688292 -12.5401 21
173 1 3.69103 -12.2446 -12.9452 8
174 1 9.19039 12.612 8.05628 20
175 1 -1.55378 16.8117 6.98264 12
176 1 -12.7155 0.534698 -6.18906 21
177 1 -12.4649 7.24191 1.71229 19
178 1 14.6254 -2.15419 -1.37977 18
179 1 -3.85779 -0.762052 -15.4259 19
180 1 10.9498 3.01848 16.1959 10
181 1 1.36792 17.4396 6.60169 11
182 1 1.18003 8.71873 8.74742 22
183 1 2.9055 -8.85066 -14.6188 14
184 1 -0.511771 15.2939 4.22865 19
185 1 -3.51551 9.39 -5.18184 22
186 1 5.52582 -6.14278 11.0932 20
187 1 -11.0677 -5.80507 5.03852 20
188 1 -2.71911 -8.41554 -15.0739 17
189 1 -10.7051 11.0189 -9.87756 11
190 1 -1.57419 -8.21959 5.92326 24
191 1 0.767654 -14.7536 -5.32936 14
192 1 -3.10075 14.2729 -14.4178 10
193 1 -12.6424 2.2073 7.35898 21
194 1 1.13899 7.07836 -1.66296 22
195 1 11.7027 9.49959 -4.17466 22
196 1 -10.353 0.890438 12.8537 17
197 1 3.00362 -11.0631 12.4997 14
198 1 -10.5542 2.23161 -7.65265 21
199 1 1.96785 16.6513 2.84914 15
200 1 -0.386928 3.24351 10.0804 25
201 1 15.3977 1.65743 9.46809 17
202 1 -4.35766 11.2579 0.576069 25
203 1 13.4586 -9.09841 -4.8294 9
204 1 -6.70761 12.4388 8.82559 13
205 1 -5.22569 4.19607 -6.55566 23
206 1 10.7091 -13.085 -1.61831 12
207 1 -6.07438 -8.56652 5.44271 24
208 1 -14.9631 0.342524 5.86241 14
209 1 -5.84681 -11.8872 2.35798 22
210 1 6.98292 2.27603 12.3177 23
211 1 -16.0243 -2.56279 -4.32662 11
212 1 -1.2146 0.0242328 3.03845 23
213 1 -3.78395 -13.4095 6.8481 20
214 1 0.0755148 0.37846 7.52329 24
215 1 -8.22307 0.678912 -2.56846 22
216 1 -0.575802 -6.77679 -0.0114368 23
217 1 -3.2176 8.10054 4.987 24
218 1 -9.22258 -0.838534 6.80725 24
219 1 3.51561 13.3922 10.4709 18
220 1 -4.86836 0.961683 -6.84701 26
221 1 -8.08433 12.7514 -11.8053 13
222 1 -11.5914 -4.80433 -11.8332 13
223 1 -3.89442 -10.7769 14.0069 9
224 1 -0.0699358 -9.85607 3.37812 23
225 1 8.23167 -9.96089 10.8605 16
226 1 -10.368 12.5506 3.35675 14
227 1 13.4325 -0.0966352 4.39061 18
228 1 4.83544 3.71582 -5.3667 21
229 1 -7.19489 -4.30524 -11.525 22
230 1 3.65659 -2.9402 6.45251 23
231 1 -4.03433 -6.81321 7.42265 23
232 1 6.14118 -7.60226 8.39373 22
233 1 -3.41445 9.40269 -8.45627 21
234 1 1.80387 -10.1113 -11.4506 22
235 1 8.30788 0.451229 -12.8922 16
236 1 0.542078 8.05164 -15.1971 17
237 1 -2.59015 -0.257177 -4.65557 22
238 1 -1.47867 14.7552 -7.01193 24
239 1 -9.04863 -8.99569 9.84436 17
240 1 10.932 12.5927 -4.22365 16
241 1 -6.84848 -6.74616 14.7814 13
242 1 -7.13162 12.9929 -4.31239 22
243 1 7.74944 1.05581 6.65617 20
244 1 -4.35519 -2.54452 -9.89144 21
245 1 -3.40297 12.5938 -8.70371 22
246 1 -1.80818 4.77045 -10.8875 24
247 1 -8.44922 -7.32402 6.92507 23
248 1 -1.48419 3.29886 2.59534 25
249 1 -7.32386 4.38664 8.12932 23
250 1 -5.21289 6.13006 6.59913 23
251 1 0.711946 -11.8841 -6.09264 20
252 1 -9.07603 -15.969 0.539454 9
253 1 6.50133 -12.9463 -5.4221 21
254 1 -2.49842 1.61902 5.33917 24
255 1 -2.13374 -1.58725 5.69766 23
256 1 -1.75199 -6.91391 -8.13798 24
257 1 10.2855 9.66988 16.3442 12
258 1 4.17379 10.1864 -9.57052 24
259 1 3.00099 11.9369 -0.0992974 23
260 1 -11.7986 4.03762 4.8347 21
261 1 -12.0119 12.2989 -4.30332 12
262 1 1.0447 8.71993 12.9259 16
263 1 4.12973 -16.5273 3.16867 17
264 1 9.15746 -4.1685 0.496058 23
265 1 2.4839 6.95778 6.01288 21
266 1 -9.72036 5.96536 3.11301 24
267 1 -15.0312 -1.39031 -7.14537 15
268 1 10.53 2.19301 -7.84212 21
269 1 3.73921 -6.30043 6.47514 23
270 1 7.36072 10.3102 -10.2063 16
271 1 -1.69767 -10.0106 -4.383 22
272 1 -3.29955 3.70427 -18.7597 13
273 1 9.42764 -12.2801 6.91869 16
274 1 10.9029 -1.08759 -8.04746 21
275 1 -14.6678 -3.20463 5.76122 15
276 1 0.809259 -15.0536 -2.44693 21
277 1 -8.47451 -1.39338 -15.4359 11
278 1 3.10404 11.9417 -3.15814 22
279 1 1.18741 -3.63672 -12.3326 23
280 1 -5.38625 6.30601 10.2234 22
281 1 13.8726 -3.42547 3.88406 14
282 1 -8.52151 -4.00281 0.343876 26
283 1 12.369 -7.16131 -8.69011 15
284 1 0.983005 -9.77607 7.78396 23
285 1 -6.66148 4.09244 -14.6302 22
286 1 -12.9428 6.88359 -9.22112 14
287 1 -6.33654 -12.2617 5.52965 20
288 1 10.0956 -0.888108 8.42118 21
289 1 8.73948 -5.61477 6.697 22
290 1 -6.25832 -7.77511 -11.533 18
291 1 6.16445 -14.6822 9.02734 13
292 1 -2.12115 7.68148 -10.995 23
293 1 5.6941 7.3088 1.68435 23
294 1 -11.0713 -6.09029 2.14244 21
295 1 2.27882 10.2477 2.81259 25
296 1 -6.51286 -5.3338 8.80162 22
297 1 -11.7254 -6.80566 -9.78253 12
298 1 -6.55207 -7.45103 -8.39692 23
299 1 -5.08787 12.6241 -12.9481 17
300 1 -4.97125 -7.35747 -3.91505 25
301 1 -5.97592 -8.80387 2.33421 23
302 1 -3.14398 -5.3987 1.43096 19
303 1 8.60437 -2.8276 -12.6318 13
304 1 8.02667 -6.54342 -13.2071 14
305 1 6.16348 -4.58583 4.89993 25
306 1 10.9967 4.44834 2.07866 23
307 1 -5.34302 -4.03834 -4.11014 23
308 1 -14.3533 -8.40208 6.17399 15
309 1 -6.89488 -15.7747 -1.82462 17
310 1 7.30578 7.65467 14.5063 19
311 1 1.98446 -17.6858 5.83385 13
312 1 4.1105 2.0272 -2.76905 22
313 1 -0.0947927 -10.2347 -0.173776 24
314 1 -2.51434 13.1095 -0.835728 22
315 1 4.19121 0.0731151 -16.4574 12
316 1 -8.0389 -4.74928 -15.2442 14
317 1 2.49612 -6.58583 -0.795554 21
318 1 -11.6152 -7.95136 8.1068 15
319 1 -0.577804 8.24445 16.1743 11
320 1 -1.7217 -16.6506 -3.57401 13
321 1 -5.21289 -9.43469 -13.859 14
322 1 -12.7006 3.44607 -9.60503 21
323 1 12.4577 6.53714 7.8273 17
324 1 -5.13925 4.30966 -9.94276 23
325 1 2.11701 8.47108 -7.38083 22
326 1 -1.88444 -4.98417 5.79143 26
327 1 2.90785 -16.6 -3.2848 12
328 1 -2.60266 18.3378 -3.06816 12
329 1 2.13255 10.1391 6.11821 24
330 1 10.9982 1.22458 5.835 21
331 1 -13.7031 -1.09829 3.2793 23
332 1 -8.24502 2.89248 14.5117 13
333 1 -7.14449 12.4776 -1.08005 20
334 1 7.03061 -8.38654 -10.8266 18
335 1 13.8034 7.37213 -3.12043 14
336 1 2.80276 -10.0376 -0.919181 23
337 1 -3.39695 -1.02237 17.8298 10
338 1 -16.427 -3.3087 2.42957 11
339 1 -2.68236 -15.4729 -1.23711 20
340 1 -5.74168 1.04794 13.1275 23
341 1 -6.08471 4.57884 13.0324 21
342 1 -12.1433 -4.32527 10.6815 14
343 1 -8.75535 -4.10304 6.89059 24
344 1 8.00512 -1.54687 -6.96924 22
345 1 -13.6599 -7.76633 3.19779 22
346 1 8.9487 -3.06368 -9.46085 19
347 1 12.7443 -7.47527 -0.163706 18
348 1 5.12006 17.0513 1.71738 14
349 1 0.614051 -6.28896 7.37678 25
350 1 -5.14629 14.5261 -2.4693 20
351 1 5.56947 -1.07589 8.01182 25
352 1 11.1331 7.89625 10.7078 24
353 1 -13.49 -4.62869 3.14381 21
354 1 5.44934 -11.4643 0.773194 24
355 1 -4.88143 6.00551 3.40501 24
356 1 -7.29969 4.4941 4.91555 24
357 1 0.744495 2.00498 4.32436 23
358 1 0.722513 -6.53991 10.7555 21
359 1 12.6724 -10.9818 0.942478 9
360 1 -2.80765 5.14968 8.52811 22
361 1 -7.04214 -1.03809 -8.34688 25
362 1 3.82211 -2.81649 3.13555 23
363 1 2.02018 1.948 12.3882 23
364 1 -5.00926 14.3304 0.43161 22
365 1 7.58007 10.7801 17.9015 9
366 1 -6.54585 14.7762 -6.66006 15
367 1 -0.309314 -3.84109 -16.4489 18
368 1 -6.21468 2.64375 -4.1613 25
369 1 7.36847 -12.2365 -9.03971 15
370 1 -11.5406 0.623628 5.04695 24
371 1 -11.6023 0.414914 1.41238 24
372 1 -4.21484 -2.26935 -6.4678 23
373 1 -6.70744 9.38406 -1.15701 25
374 1 10.2881 -4.0823 8.89628 21
375 1 -11.1185 -11.9521 3.19338 17
376 1 13.3993 -3.43643 7.76117 14
377 1 -3.65639 1.41983 1.20145 20
378 1 -2.0819 -14.5192 9.69068 12
379 1 -10.5704 2.15812 -4.52073 26
380 1 2.52853 -4.68609 12.3794 18
381 1 0.996726 -11.6995 -2.74049 23
382 1 -6.15857 0.750626 -14.7126 21
383 1 6.34784 -1.64278 -14.6667 14
384 1 4.39744 12.1343 4.32239 23
385 1 -11.0164 0.568346 -1.73504 24
386 1 3.79634 -4.82355 -10.444 22
387 1 5.71827 5.23709 -15.1023 14
388 1 -6.58673 -10.6897 -8.06632 21
389 1 -12.5555 -6.04589 -5.42985 15
390 1 -2.62772 -8.6532 1.32929 22
391 1 10.9798 6.1494 16.3525 13
392 1 -3.39177 -1.94812 1.05526 22
393 1 9.75796 1.02665 -2.06259 24
394 1 -9.65243 3.89832 -10.0622 23
395 1 7.77466 15.4624 0.309033 18
396 1 -7.76625 -2.58115 -2.49498 24
397 1 3.46336 0.695794 3.00562 23
398 1 -7.29361 4.40038 1.73529 22
399 1 -1.82591 15.2037 -3.52775 21
400 1 -1.12739 10.0621 6.88002 23
401 1 8.94573 6.43188 12.0485 19
402 1 11.032 -4.63494 -7.68953 16
403 1 9.78299 -4.68159 12.2313 18
404 1 9.79243 0.853334 -5.36989 25
405 1 -4.85572 -13.964 -3.131 18
406 1 3.16069 0.409632 6.36551 23
407 1 -4.07726 4.69988 0.736249 24
408 1 0.287008 -8.40287 -6.05057 21
409 1 0.0300521 8.43688 4.38722 24
410 1 5.15846 0.0450892 -5.55371 22
411 1 -5.55114 -0.312309 -0.971873 24
412 1 5.48109 -11.561 -2.43149 21
413 1 11.7313 -5.49532 2.20839 22
414 1 -12.9687 3.88697 -6.37938 22
415 1 -4.83155 -10.3899 -0.543124 22
416 1 -4.15474 -10.4969 10.9779 16
417 1 -1.93354 9.6219 -0.898165 22
418 1 -11.9233 -9.71467 -4.64179 15
419 1 4.84309 12.5973 15.9827 11
420 1 -11.8577 7.21246 -1.72514 19
421 1 0.68964 13.2829 -4.80491 25
422 1 9.80125 10.9651 5.75639 23
423 1 -13.1077 -7.45927 -2.74998 17
424 1 -3.9866 -8.86088 -6.67538 24
425 1 -7.52536 -3.87334 11.6687 23
426 1 -16.3762 3.26831 1.29766 14
427 1 7.16359 -3.95881 12.4831 21
428 1 -2.65365 -11.8327 1.37157 23
429 1 11.1072 11.0076 10.4953 18
430 1 5.57735 8.40881 -11.8916 20
431 1 -16.1622 3.52976 -5.09758 11
432 1 0.863649 18.3215 -7.45397 12
433 1 -10.7662 5.7282 -4.33847 24
434 1 0.870238 -15.6481 8.38939 14
435 1 13.203 6.3334 3.84267 18
436 1 -0.414506 13.2251 -12.8851 17
437 1 -7.92925 -0.407522 11.5986 18
438 1 -15.9056 -3.50911 -0.833834 13
439 1 1.72394 0.303527 -1.62595 23
440 1 -4.94993 -0.445108 7.06053 22
441 1 2.15922 -14.5466 5.32971 22
442 1 -1.11649 -5.31612 -10.7081 22
443 1 3.84233 -8.17106 -10.0474 23
444 1 3.22998 -7.49528 9.24854 21
445 1 -16.9581 2.87337 4.1561 12
446 1 -12.4166 -0.906359 10.5112 14
447 1 -9.8703 6.05516 6.18499 22
448 1 -1.91801 -5.01197 9.13842 21
449 1 -4.33142 5.91989 -12.8787 22
450 1 3.43881 -8.20727 -6.92991 21
451 1 -3.00462 -7.54488 -12.5141 23
452 1 0.0630445 -3.09725 13.7565 16
453 1 3.94784 -11.6856 -6.63104 22
454 1 -6.37086 4.27316 -18.3592 10
455 1 3.17132 -13.3383 -0.695337 23
456 1 0.193757 6.45642 -9.19056 22
457 1 -12.6732 10.5594 4.70574 13
458 1 -0.0864091 -0.5195 16.8599 9
459 1 -9.44239 -2.9421 -9.95347 21
460 1 -3.6587 -7.21989 3.81462 23
461 1 10.1913 -0.402657 16.6836 8
462 1 8.67042 2.68073 0.960936 21
463 1 -7.02889 1.38162 5.26519 21
464 1 0.820519 -0.153793 -12.7692 23
465 1 3.9889 -9.60954 6.76559 21
466 1 0.682803 4.95861 0.90227 25
467 1 13.8668 7.27739 0.480053 18
468 1 -3.03991 -3.21514 14.7525 21
469 1 0.640344 13.8941 -1.60305 24
470 1 6.64578 -7.57554 5.22686 24
471 1 -6.22837 -13.7965 -8.16392 13
472 1 -3.6413 3.35536 14.7747 16
473 1 -3.64224 14.993 4.83543 16
474 1 -7.47931 -12.148 -4.96338 23
475 1 10.2712 14.4303 2.29182 12
476 1 6.36706 10.787 9.88963 24
477 1 -10.3017 1.02528 9.40627 22
478 1 -10.0859 -7.67471 -6.77281 19
479 1 -7.91481 2.67086 11.2242 24
480 1 -12.9543 -3.15253 -9.22822 14
481 1 -7.51704 10.9117 1.26486 24
482 1 -4.18661 -11.8332 -8.92136 18
483 1 4.25381 -3.39667 -13.0234 21
484 1 -9.03098 -14.4257 4.34801 14
485 1 -6.91554 -2.08585 5.44561 21
486 1 10.901 4.82226 5.55377 22
487 1 -1.27554 -11.6482 9.07555 20
488 1 -9.78098 6.91773 -13.8377 13
489 1 9.14044 7.38429 -2.70644 25
490 1 -7.21885 -15.4287 -5.20171 13
491 1 -0.299094 1.36826 -6.62375 23
492 1 0.464806 16.9236 -1.65967 13
493 1 -0.90229 7.89454 -6.56881 21
494 1 -5.55912 9.63118 6.51497 24
495 1 -16.4905 0.345992 -4.78055 12
496 1 3.81362 16.8983 -6.05526 16
497 1 -1.30463 11.5157 -3.47323 24
498 1 -9.06206 -12.7652 -9.40676 11
499 1 5.66571 5.70548 16.3501 12
500 1 -1.61038 -10.3894 -7.81837 20
501 1 -1.0754 -2.12409 -10.8762 24
502 1 5.6291 -14.7648 1.5275 18
503 1 -12.5913 7.81488 5.3504 16
504 1 3.52733 6.92527 13.8261 21
505 1 9.05608 10.9267 -5.98468 22
506 1 3.39648 8.76233 -0.0263532 25
507 1 -8.62908 12.5962 -8.33928 19
508 1 2.8321 1.60431 -7.42592 22
509 1 1.82856 -8.41014 1.59677 23
510 1 -13.1892 -3.89961 -2.85642 20
511 1 4.13877 2.1231 0.262677 23
512 1 2.07717 13.6472 5.84913 25
513 1 -9.89214 7.431 -10.6756 20
514 1 9.43216 3.96956 -5.36722 22
515 1 3.89891 13.402 -9.32435 16
516 1 7.38931 -9.62133 -0.999901 21
517 1 12.3673 -0.525456 -3.67417 21
518 1 -1.06741 -1.99329 -14.1094 23
519 1 0.599771 -8.13914 -2.69572 24
520 1 -6.07618 -5.4863 1.8875 26
521 1 4.3914 -12.6086 7.14895 19
522 1 -6.36887 5.98378 -4.00271 22
523 1 -3.82739 -10.5239 4.37239 23
524 1 3.15905 3.62599 2.91551 23
525 1 -0.142099 -9.18494 -13.7857 18
526 1 6.76728 14.0089 6.26154 20
527 1 2.62013 5.09875 -7.6415 25
528 1 4.61387 -2.81017 14.3542 18
529 1 -9.89921 -2.36142 9.47232 23
530 1 -0.0326065 -17.1343 -0.635324 17
531 1 -10.5784 -5.83234 -1.28757 23
532 1 15.1178 -5.27821 -1.41636 13
533 1 7.99063 -8.08408 -3.60203 22
534 1 1.71975 3.50239 -4.72093 23
535 1 -6.53495 6.07332 -0.947079 24
536 1 8.69038 -10.812 -6.93302 22
537 1 4.97201 3.75527 -8.92194 22
538 1 9.17491 -6.58317 -9.40926 21
539 1 -3.14954 0.147811 15.0344 21
540 1 5.02752 13.8482 1.71587 23
541 1 -0.51862 -0.550597 -16.588 18
542 1 1.27083 -4.58896 4.81336 23
543 1 1.6875 1.48017 -15.2622 21
544 1 -2.04544 -5.2105 12.263 18
545 1 -4.45777 8.18244 0.741077 24
546 1 -15.3862 4.54919 -8.61913 13
547 1 -15.9552 0.0931576 1.64156 14
548 1 -0.861741 -5.55845 -14.3629 24
549 1 0.879919 -13.6572 11.1186 14
550 1 -3.2935 6.42038 -5.00384 21
551 1 15.0849 4.87431 8.93696 14
552 1 11.9483 2.69974 -3.69548 19
553 1 -9.91188 -11.1402 -3.15042 19
554 1 -2.48159 -8.39049 -2.00058 23
555 1 -1.45436 1.22775 -14.3507 22
556 1 -8.64873 9.66031 9.6063 12
557 1 -1.97457 -3.59713 -8.02689 23
558 1 3.70211 5.52504 0.225466 24
559 1 10.021 -5.71995 -2.22755 20
560 1 5.90388 15.1227 -4.23158 20
561 1 4.55471 -4.59142 0.444951 22
562 1 2.30282 -2.9068 -0.958962 23
563 1 13.0726 4.59347 -6.13893 15
564 1 5.02592 9.21993 12.8798 18
565 1 -12.1119 -3.92585 7.52021 19
566 1 -5.39072 -3.8475 -0.640339 24
567 1 3.1485 10.484 10.7647 21
568 1 9.86573 -0.477896 11.4253 22
569 1 -1.96068 1.14527 -10.7598 20
570 1 -10.3472 -4.31236 -7.04495 21
571 1 4.99188 -2.64575 10.8012 25
572 1 6.38702 13.4893 9.40372 18
573 1 4.67941 7.04756 -5.9934 25
574 1 -7.77008 9.24858 -8.85661 23
575 1 0.93199 10.3425 -1.51227 23
576 1 12.0648 2.10042 13.3785 15
577 1 5.69188 1.87458 -14.6863 16
578 1 12.8277 -7.12657 -3.15744 16
579 1 10.5122 9.89449 13.1291 19
580 1 -15.3661 -10.3361 1.07857 9
581 1 -5.84991 13.7291 -9.49351 20
582 1 2.06407 1.95328 8.94601 26
583 1 -10.6635 -2.13376 12.6621 15
584 1 -4.10748 16.1646 -8.3432 13
585 1 -1.73006 -13.8596 -7.47981 14
586 1 5.59873 -3.01365 -8.7724 24
587 1 0.333869 16.7618 -4.91202 19
588 1 -7.27596 -1.19419 -11.3625 20
589 1 6.7846 -11.1233 8.63187 22
590 1 -12.787 -2.69713 -5.8406 20
591 1 2.67818 10.0687 -14.9947 13
592 1 -6.33918 2.62214 -0.776302 22
593 1 -1.01322 6.84909 13.6182 21
594 1 -13.1392 -4.88305 -0.0814306 20
595 1 6.17053 7.40311 -1.68066 24
596 1 1.38023 -9.99345 -8.28193 21
597 1 7.05238 -0.804686 12.6709 21
598 1 7.19098 2.15906 -4.0666 21
599 1 1.31217 -1.49457 1.45675 23
600 1 -8.71551 7.47924 -2.72213 23
601 1 8.78656 4.35352 14.2212 21
602 1 5.87937 15.2168 -7.42876 13
603 1 10.9161 -9.18862 -2.19618 21
604 1 4.55378 8.81095 7.74157 23
605 1 -1.2222 5.7118 -17.3765 12
606 1 -1.04514 -14.3864 6.5826 22
607 1 -5.09307 0.814455 -10.0673 20
608 1 5.72067 -5.0632 -15.3773 13
609 1 2.22804 13.5769 2.78114 24
610 1 7.07723 5.50319 -7.35177 25
611 1 -5.9452 -2.60859 -14.1731 18
612 1 -4.75841 -10.7349 -3.8081 18
613 1 -9.42612 0.261778 -13.2883 17
614 1 10.8203 1.07032 2.66871 22
615 1 13.5758 4.63157 -1.24149 17
616 1 8.21591 -8.08594 -6.57072 19
617 1 13.0429 8.47036 14.3506 11
618 1 6.06826 -9.74334 -8.33102 22
619 1 3.455 3.14562 -13.4391 21
620 1 7.16977 12.1095 4.01076 20
621 1 -9.70847 5.58879 0.0182109 25
622 1 7.85734 11.0807 14.6023 16
623 1 9.05016 4.1594 -1.94671 20
624 1 12.1862 -3.77909 -0.346246 24
625 1 12.8523 4.46053 -9.3944 11
626 1 4.23616 3.70652 13.8947 21
627 1 14.0335 6.33808 11.9434 15
628 1 -2.79204 -7.0536 15.023 11
629 1 10.8089 12.2332 -0.646219 18
630 1 6.63068 0.579993 2.26549 22
631 1 1.51881 5.21492 12.2513 21
632 1 7.77285 -4.46748 -3.73974 23
633 1 7.72559 4.00756 6.7704 22
634 1 -10.0546 -0.94622 -8.02286 22
635 1 14.7691 4.72657 1.6787 13
636 1 11.926 -5.3223 5.68701 18
637 1 -1.68724 -6.82579 -4.57041 23
638 1 -8.21681 6.0341 10.6445 18
639 1 8.79395 12.5884 11.6581 13
640 1 9.60379 6.29409 8.20832 24
641 1 1.1579 11.8711 8.63238 21
642 1 -1.77359 16.1306 10.5419 10
643 1 8.57835 2.89566 4.15055 21
644 1 1.45875 -18.0967 2.42233 12
645 1 -5.68197 11.1365 -10.3994 23
646 1 12.2088 10.8561 -7.01689 13
647 1 11.2402 -0.821579 -11.4499 12
648 1 4.20379 13.5652 -6.01676 24
649 1 -4.10791 -12.368 -5.84016 17
650 1 12.6836 -10.5248 -10.4829 8
651 1 -15.4745 3.57367 6.64911 11
652 1 -10.839 8.98298 -7.74221 20
653 1 -0.371239 -16.446 4.50284 19
654 1 -6.93816 2.20474 -11.8311 22
655 1 -10.3364 -1.20771 -4.60977 24
656 1 10.2584 -11.0193 3.53028 16
657 1 12.2715 9.72688 4.42909 18
658 1 4.54963 -9.63459 3.57897 23
659 1 -15.2381 2.71475 -10.9937 9
660 1 0.939105 1.73742 1.31646 24
661 1 0.360352 3.05605 -12.4946 23
662 1 0.354484 -3.0439 7.4557 26
663 1 -0.168259 0.177057 13.9051 19
664 1 3.26564 6.93088 -13.7608 21
665 1 14.3509 3.30587 11.8529 17
666 1 6.54952 8.90427 -7.60719 22
667 1 4.36324 -1.01344 0.362329 25
668 1 12.382 12.6365 3.96674 15
669 1 1.41184 -13.6575 -8.57631 13
670 1 -10.2467 4.13188 12.5648 11
671 1 9.66818 -10.7341 0.702858 21
672 1 -1.43936 13.3812 9.9484 19
673 1 4.8726 11.1788 -12.6035 13
674 1 -8.91023 10.6182 -5.8527 23
675 1 11.3526 9.0673 -0.755557 20
676 1 -8.27635 -13.2049 1.65445 19
677 1 14.1284 -1.69417 1.87217 19
678 1 7.22358 15.4888 3.46645 16
679 1 1.15946 5.22881 15.4825 15
680 1 -8.72625 -3.90041 3.53278 25
681 1 -9.41199 -3.16648 -13.2301 18
682 1 9.89024 3.05708 8.11595 24
683 1 -1.45371 -8.4841 9.25845 24
684 1 6.30896 5.7696 12.2973 22
685 1 -4.11372 7.91843 -2.37143 23
686 1 11.4458 5.84264 -3.60427 20
687 1 4.53863 -1.08518 -2.6116 25
688 1 5.51629 2.3188 4.54778 23
689 1 3.30282 -1.63646 -10.5654 21
690 1 -6.96671 -2.07272 8.75351 22
691 1 8.09088 0.428863 -9.38244 21
692 1 -7.49478 -5.9542 -5.90152 20
693 1 9.82825 -13.1379 -5.26806 15
694 1 7.10417 7.27224 6.18892 22
695 1 5.1461 5.50688 4.45621 24
696 1 -7.48664 -6.94027 11.7124 20
697 1 9.02087 9.49294 8.52836 22
698 1 6.68459 2.55105 15.5851 14
699 1 -2.77495 5.00523 11.9195 25
700 1 -3.44835 -4.22401 -12.8387 22
701 1 -9.42467 -2.35852 15.1203 10
702 1 -3.79604 4.6784 -2.39188 25
703 1 7.74663 0.888207 9.96848 22
704 1 -6.82543 -11.5076 8.44102 16
705 1 13.3144 11.2607 -2.14904 9
706 1 8.06177 -14.6093 -3.20003 12
707 1 -5.39427 7.64143 -10.4395 22
708 1 5.63568 10.8382 -1.51324 21
709 1 9.71516 14.2218 5.43776 15
710 1 3.47296 -3.36115 -17.2561 11
711 1 2.41768 -1.11558 9.2325 24
712 1 1.00923 10.0005 -4.78013 24
713 1 10.7776 7.99007 2.16255 22
714 1 -2.99942 -5.38371 -1.88044 22
715 1 -7.30895 -9.03047 -2.54065 25
716 1 -0.638611 2.61112 -17.0758 16
717 1 -9.30831 11.0391 -2.82292 20
718 1 5.83968 -6.40783 -8.48001 23
719 1 6.12945 3.99177 1.82138 22
720 1 10.2621 5.71274 -11.7671 12
721 1 6.35531 11.9663 -4.17091 22
722 1 -2.79361 4.74278 5.37409 23
723 1 -7.52644 7.92883 1.35222 25
724 1 6.74551 8.79694 -4.18692 22
725 1 11.6773 5.372 13.5442 19
726 1 9.24553 1.24633 13.8872 21
727 1 -1.83492 -8.66752 12.0282 19
728 1 -7.32697 10.7094 -14.5466 11
729 1 0.751224 15.4649 8.83866 15
730 1 5.30078 -10.0828 -12.3983 15
731 1 5.14106 2.3249 7.78426 24
732 1 8.41115 13.9568 -5.62624 16
733 1 8.27806 9.23136 0.0915074 25
734 1 -4.49178 -0.670933 3.79789 24
735 1 16.7774 -3.22959 1.00814 9
736 1 8.20738 7.69303 17.7107 11
737 1 -15.9147 -6.01197 4.90107 15
738 1 6.71449 -11.017 5.24788 20
739 1 -2.58255 2.79702 -8.31313 25
740 1 -4.74435 16.2175 -4.72081 16
741 1 -0.236592 3.24219 7.03322 26
742 1 4.74547 -4.52033 -2.6539 24
743 1 5.4818 10.5388 1.39566 23
744 1 -11.2193 -2.60329 5.05034 24
745 1 -0.563136 6.7914 10.4261 21
746 1 -4.42469 5.84508 -16.1736 17
747 1 -9.03068 5.20367 -16.5047 11
748 1 2.27854 -11.6708 1.94239 22
749 1 2.06341 8.2054 -11.03 21
750 1 3.95034 -6.38909 3.12533 21
751 1 0.39187 5.24453 4.21202 24
752 1 -10.8452 4.32543 9.33149 19
753 1 3.95129 -0.197423 -13.2125 24
754 1 10.7953 -10.612 9.17694 13
755 1 -0.185405 11.6554 0.880697 24
756 1 -2.57934 1.46167 12.1257 22
757 1 -6.42008 -2.10725 2.04208 27
758 1 -5.66828 -6.13691 -13.8319 19
759 1 -5.69679 -6.87055 -16.6388 11
760 1 -6.5143 -10.7408 -10.9762 13
761 1 1.1016 15.0338 -6.78728 23
762 1 0.291454 -5.21483 -6.11028 24
763 1 -1.25311 -3.3447 3.11137 21
764 1 -9.74103 8.96809 3.08083 24
765 1 3.27716 -13.5022 -4.0103 19
766 1 3.08452 -16.5134 -0.143151 16
767 1 10.699 -7.93991 11.4804 13
768 1 13.0553 -2.30117 -6.22882 12
769 1 -1.72777 -13.4032 -3.90217 20
770 1 -11.3892 -9.37094 5.6637 18
771 1 -0.0193261 -1.69199 -6.22029 25
772 1 -5.03 -13.6872 0.163437 20
773 1 -9.23625 -14.46 -6.6591 13
774 1 -0.365696 -1.92988 -2.78462 21
775 1 -5.26909 -1.83377 12.9531 25
776 1 -6.34469 -15.431 5.51534 11
777 1 12.694 7.28631 -6.46164 13
778 1 -3.38187 16.6929 1.97525 16
779 1 -4.84717 2.87387 6.90177 22
780 1 -14.988 8.30904 2.85669 10
781 1 11.26 -2.06764 2.15218 23
782 1 -12.0971 1.69649 -12.24 14
783 1 1.85596 11.7325 -7.51639 22
784 1 13.1579 0.987188 -6.34015 15
785 1 5.52642 12.3168 12.5669 17
786 1 1.21452 -1.54967 4.57872 22
787 1 6.93986 5.60025 -4.20075 24
788 1 -15.3643 1.7382 -7.45371 17
789 1 -9.2269 -6.17437 -9.79592 20
790 1 2.58009 7.42515 16.7948 12
791 1 2.52711 4.96395 -10.8829 22
792 1 12.2655 12.5301 7.22686 16
793 1 -2.22907 -1.55588 12.153 22
794 1 -6.75091 -15.7482 2.0217 13
795 1 -0.974692 -17.5973 7.76381 10
796 1 -1.06137 -11.4595 5.96098 23
797 1 13.8496 9.81465 12.0371 12
798 1 2.6077 -9.92243 -4.11625 20
799 1 -6.6332 9.21705 -4.39612 23
800 1 7.96656 8.91858 3.15106 21
801 1 -6.38327 -5.11029 5.34412 24
802 1 8.05814 7.08847 -9.94654 21
803 1 -3.11286 -18.4335 -1.36479 12
804 1 -1.85379 -17.8605 1.72493 15
805 1 1.93455 -14.9172 2.07935 21
806 1 5.78671 5.35674 -11.2768 22
807 1 8.36417 13.7408 -2.50412 20
808 1 -4.1185 2.54721 -16.0757 20
809 1 -0.245584 0.0857921 10.5331 24
810 1 -0.130099 6.25014 -12.4818 22
811 1 -12.9805 0.229081 -9.13655 19
812 1 -7.7485 -2.44851 -5.83349 22
813 1 8.1355 16.9726 -3.01152 10
814 1 9.64284 -7.50435 4.19339 19
815 1 -2.5014 -5.84184 -17.3557 14
816 1 -5.20952 -7.08666 -0.563213 23
817 1 9.38154 7.51189 -5.81781 23
818 1 9.64608 -7.33055 0.837286 23
819 1 -4.88978 -0.0151972 10.2632 24
820 1 4.79893 -8.0493 -2.58896 22
821 1 14.7099 -5.17134 1.51623 13
822 1 12.3984 -2.89693 13.6146 9
823 1 3.77886 7.14777 10.0966 23
824 1 -12.6618 2.25064 10.6375 11
825 1 -7.21083 1.19635 8.58998 21
826 1 -0.294904 -13.1808 3.55871 22
827 1 8.9089 -0.76109 3.98609 23
828 1 8.16841 9.5069 12.0624 23
829 1 -10.9753 -2.60613 -1.35849 24
830 1 5.71373 -9.77615 -4.81138 20
831 1 1.70001 3.86439 -1.52007 23
832 1 -11.6559 12.6736 -7.32259 11
833 1 2.59011 7.23107 2.8165 22
834 1 3.94769 -10.6837 9.57751 22
835 1 2.42635 -1.24606 12.4043 25
836 1 -0.116592 11.7818 4.38936 23
837 1 2.23792 -11.2918 4.99219 23
838 1 -6.85148 1.06666 1.96348 25
839 1 4.62113 0.771461 10.4905 24
840 1 -13.268 -0.718552 -3.46939 21
841 1 -3.02426 11.8368 12.1524 13
842 1 5.50547 13.9248 -1.35421 22
843 1 -10.2754 -9.34967 -1.07533 24
844 1 1.31455 -12.9389 8.17252 22
845 1 8.44166 -6.21975 9.78417 24
846 1 11.6323 -8.64539 6.12642 12
847 1 6.48226 10.5221 6.54245 21
848 1 -1.11346 4.89721 -3.24702 23
849 1 1.39047 -6.55775 -8.62439 23
850 1 -2.99326 6.35004 -8.44553 22
851 1 -8.01647 -0.14357 14.7904 20
852 1 -2.59474 13.2838 2.38904 23
853 1 15.6552 1.32227 6.23961 11
854 1 -0.294056 13.0797 -9.59068 21
855 1 -4.09095 6.68372 14.3593 17
856 1 7.0747 7.7506 9.41766 21
857 1 6.45597 -1.45485 -11.3459 22
858 1 -7.67225 -12.4474 -1.49345 20
859 1 -5.62201 -0.571136 -4.06107 26
860 1 13.9563 1.78497 1.14903 18
861 1 1.09745 -3.19217 -8.89704 22
862 1 -3.10559 8.16452 8.41957 23
863 1 10.8667 -12.6333 -8.04098 13
864 1 3.50475 6.99662 -16.6268 11
865 1 -7.13518 -9.06003 -5.65699 21
866 1 10.4591 2.18138 -11.01 15
867 1 12.1585 -0.355985 -0.375729 24
868 1 0.243152 -3.30048 10.4492 23
869 1 1.63625 -6.85629 -12.1545 23
870 1 -1.12049 0.0371014 -0.483901 24
871 1 8.03963 12.2992 0.315503 21