ITEM: TIMESTEP
38000
ITEM: NUMBER OF ATOMS
2000
ITEM: BOX BOUNDS pp pp pp
-3.0000000000000000e+01 3.0000000000000000e+01
-3.0000000000000000e+01 3.0000000000000000e+01
-3.0000000000000000e+01 3.0000000000000000e+01
ITEM: ATOMS id type x y z 
1 1 -9.00785 4.34972 -16.08 
2 1 -3.23987 -9.43529 -9.49303 
3 1 1.39844 13.9522 12.7986 
4 1 8.89332 -9.79767 5.98615 
5 1 -10.1174 9.25304 -0.502782 
6 1 11.566 -10.1068 -10.0921 
7 1 -11.4437 3.34425 -5.54185 
8 1 -0.672865 -7.34045 10.0821 
9 1 -9.73071 1.51608 -10.1774 
10 1 -12.5222 -9.6239 6.22599 
11 1 13.6721 1.95019 -10.0946 
12 1 -3.25716 1.79743 -5.85908 
13 1 -2.80637 -14.6484 -0.214421 
14 1 -10.9108 -8.85964 2.66191 
15 1 0.706129 2.5847 17.9564 
16 1 6.90363 -3.25265 4.60405 
17 1 2.48729 3.96216 8.21982 
18 1 7.08566 -0.707646 2.40178 
19 1 -1.01212 10.1869 -10.9394 
20 1 2.63258 0.264106 12.6128 
21 1 -6.85259 -0.568336 -16.6809 
22 1 -12.9307 -3.437 12.8461 
23 1 13.8005 4.89898 7.98098 
24 1 2.11654 8.85698 -12.5692 
25 1 4.31809 4.63115 -14.1581 
26 1 13.9071 -0.350919 12.6282 
27 1 -6.43485 2.84516 1.69387 
28 1 -13.5843 3.47217 -8.23934 
29 1 -1.96764 -2.3627 -7.97656 
30 1 -11.6564 9.78897 8.44978 
31 1 8.47033 -12.9494 5.26654 
32 1 -0.90604 -4.31831 8.89937 
33 1 1.80148 -13.6005 -11.2584 
34 1 9.99505 -13.1645 -0.934522 
35 1 -8.81652 -14.4917 -3.08301 
36 1 -12.2317 -6.2794 10.7774 
37 1 2.79256 -2.57631 -4.8698 
38 1 5.45204 -5.15498 -13.143 
39 1 9.58022 -9.48253 -11.3892 
40 1 -1.07497 2.71759 -15.6381 
41 1 -0.527308 2.84065 12.1686 
42 1 -0.310025 -11.0146 7.05649 
43 1 6.51886 -4.5967 12.9991 
44 1 -11.8926 -0.566283 1.68373 
45 1 -16.2054 -2.08343 7.87653 
46 1 -9.10001 2.48253 0.547562 
47 1 -4.35234 13.2592 -2.76636 
48 1 -1.33692 -13.9771 -11.4838 
49 1 0.538838 2.32465 -10.1956 
50 1 4.72939 -5.2956 -10.2183 
51 1 -2.28123 -3.06592 14.3868 
52 1 -12.9304 3.94272 -2.03028 
53 1 3.80002 11.9282 -12.2665 
54 1 0.168031 13.8025 7.08723 
55 1 -7.58421 7.85284 -8.0916 
56 1 -2.51121 15.0516 -0.281713 
57 1 3.12182 -12.2151 1.90385 
58 1 6.65791 -6.87595 -4.72882 
59 1 6.47333 -9.34004 -17.2615 
60 1 -8.73181 9.13542 11.2722 
61 1 -13.4517 -4.48952 -10.4964 
62 1 6.4583 0.302105 5.26185 
63 1 -7.21948 8.44613 -4.95588 
64 1 -7.9475 -9.78295 6.50818 
65 1 -2.89866 11.4833 10.3828 
66 1 -13.1657 6.10551 -7.12546 
67 1 -6.17765 8.7143 13.8393 
68 1 3.01944 6.70739 -4.60669 
69 1 2.04062 6.40762 5.59733 
70 1 -5.39848 -14.6651 7.40287 
71 1 4.92789 6.35379 7.28587 
72 1 4.6318 -14.5678 -2.7066 
73 1 4.32889 13.0715 14.6055 
74 1 -14.3035 -1.01761 -11.2967 
75 1 -11.8113 5.58239 -10.5317 
76 1 2.93307 5.69414 12.4265 
77 1 13.6334 -2.30162 -9.37646 
78 1 8.93613 -12.0837 2.16041 
79 1 -16.7469 -2.87836 1.43685 
80 1 -6.29954 -1.56815 2.08483 
81 1 5.89202 16.6606 6.47079 
82 1 5.2606 -1.87173 11.597 
83 1 -7.85692 -12.8121 5.67859 
84 1 -8.69523 -0.821407 0.323139 
85 1 11.9826 2.791 6.73265 
86 1 7.51336 -2.12723 -3.67219 
87 1 0.0112286 10.8972 6.67135 
88 1 5.42434 -2.14036 7.36836 
89 1 -6.52631 -5.12821 1.87864 
90 1 -3.96026 -6.58338 -8.42613 
91 1 -12.8594 6.67413 9.10945 
92 1 -8.51035 10.6897 -3.3333 
93 1 -3.63477 8.13528 -10.8561 
94 1 2.35896 0.762199 -5.0304 
95 1 5.27618 -1.06585 -5.94502 
96 1 8.38939 12.4287 -7.71815 
97 1 8.35915 -9.20384 2.87899 
98 1 3.65567 -6.65907 8.70959 
99 1 -6.07289 14.83 -5.26142 
100 1 -10.8217 12.4846 4.0338 
101 1 -8.38925 -4.18749 15.0363 
102 1 -7.98735 9.73782 3.81062 
103 1 -6.04719 -6.73977 10.7414 
104 1 12.5763 -7.86427 -7.50179 
105 1 -9.53397 1.92756 6.3049 
106 1 -10.6039 -11.2159 4.71853 
107 1 9.70195 -6.58084 -5.80547 
108 1 5.14989 -0.581533 -11.3366 
109 1 -4.02871 -1.61001 -17.7361 
110 1 3.6484 0.688835 4.99921 
111 1 -0.291232 13.104 1.02358 
112 1 -8.03343 5.57062 -9.78318 
113 1 1.9795 8.05491 18.5759 
114 1 0.651516 14.2282 -5.50696 
115 1 -13.7908 9.8109 0.83561 
116 1 0.367964 9.8492 1.17495 
117 1 -0.333269 1.92314 -4.0407 
118 1 -7.61158 -9.50763 9.60601 
119 1 13.4016 -1.92282 10.0868 
120 1 -1.50243 -4.9647 -7.65207 
121 1 4.65512 -6.92253 -7.10079 
122 1 -1.78017 2.64293 8.56788 
123 1 6.27988 -0.865691 16.2911 
124 1 -9.38868 -5.1086 -3.32083 
125 1 6.75977 -4.01365 1.9636 
126 1 -9.74822 -8.21626 -3.11813 
127 1 11.7075 -10.6682 0.661142 
128 1 -4.99213 10.1564 3.47892 
129 1 6.84743 2.10428 -14.8631 
130 1 5.92938 18.0195 -1.62764 
131 1 -8.63878 -13.4139 11.94 
132 1 -10.4343 -13.8532 9.20843 
133 1 -3.21311 6.81031 2.53629 
134 1 5.65967 -8.6266 -14.8352 
135 1 2.58198 5.93192 -7.83911 
136 1 10.3326 -10.2725 -2.21078 
137 1 -0.72103 -16.4507 5.72301 
138 1 -9.42307 -7.16571 -0.16923 
139 1 16.6949 7.11831 8.35594 
140 1 15.6753 -3.46376 -7.69787 
141 1 -14.9569 -5.21119 2.90751 
142 1 10.4013 8.23708 4.99382 
143 1 15.3538 9.29343 3.79795 
144 1 -6.2956 3.42913 16.6624 
145 1 7.08018 3.18424 -2.74794 
146 1 -4.42728 7.82938 10.9055 
147 1 -5.93034 12.8511 -7.53662 
148 1 -1.27668 -7.07164 -10.6164 
149 1 8.31659 -12.0686 -9.78102 
150 1 0.852035 13.5659 -11.339 
151 1 9.18282 -4.93222 11.7417 
152 1 1.68354 -1.72987 -17.1261 
153 1 -3.53049 9.46791 -5.61408 
154 1 10.3701 -1.06647 -5.00427 
155 1 -10.4958 8.36535 -6.11447 
156 1 1.79485 -4.16204 -2.13637 
157 1 -7.21902 13.6247 -1.54453 
158 1 6.65345 2.00656 -11.4031 
159 1 11.2432 -10.8806 4.262 
160 1 -6.12555 5.8866 -6.78931 
161 1 -8.54921 11.6555 9.06136 
162 1 13.1993 7.55859 -7.56216 
163 1 -1.32218 3.8028 -1.43625 
164 1 6.66381 11.3823 -2.72031 
165 1 -4.1222 17.8332 1.00632 
166 1 9.92269 11.0739 -2.52298 
167 1 -2.45072 10.85 -3.05429 
168 1 1.03566 15.4664 -8.7089 
169 1 5.6767 10.2792 -14.6596 
170 1 -13.5509 -9.88939 3.22389 
171 1 -14.7812 9.05139 -2.18671 
172 1 -5.40998 -2.82407 -12.9224 
173 1 1.39556 -10.9369 -15.6995 
174 1 9.92969 13.1482 8.19922 
175 1 0.0316704 16.4325 8.62066 
176 1 -13.2175 -1.605 -6.98579 
177 1 -12.1953 12.4712 0.92392 
178 1 12.9678 -1.72639 -3.16568 
179 1 -11.5834 2.62374 -15.6137 
180 1 8.32224 1.238 16.7387 
181 1 5.23713 16.6086 3.32228 
182 1 -3.03808 9.46092 8.11616 
183 1 2.84551 -8.23932 -17.2508 
184 1 -5.32516 12.2945 8.09135 
185 1 -2.97548 13.0558 -5.49071 
186 1 3.08298 -3.89142 12.3256 
187 1 -12.3778 -5.94292 4.67464 
188 1 -1.6554 -12.8545 -14.9298 
189 1 -10.409 11.7756 -9.89287 
190 1 -5.28989 -11.2473 4.4544 
191 1 3.94145 -16.4251 -6.6387 
192 1 -2.30801 10.0703 -13.7636 
193 1 -14.5089 0.654451 8.42061 
194 1 1.97132 8.0893 -1.13695 
195 1 9.29859 7.68744 -5.50184 
196 1 -8.27398 5.13006 13.9858 
197 1 0.0367512 -10.6816 10.0737 
198 1 -9.6691 3.45334 -2.76709 
199 1 0.54968 17.2601 3.95307 
200 1 0.136728 5.25817 10.2855 
201 1 15.6102 2.47165 12.2988 
202 1 -8.68161 14.8653 4.25208 
203 1 12.6345 -4.74457 -10.2939 
204 1 -6.04735 11.037 11.4473 
205 1 -7.66763 0.487705 -8.32404 
206 1 13.9513 -8.10206 0.718545 
207 1 -4.73719 -5.09412 4.95492 
208 1 -14.897 0.0341218 5.19092 
209 1 -9.36059 -10.1188 0.21686 
210 1 5.20261 6.37545 15.1894 
211 1 -13.5845 -0.654973 -2.99086 
212 1 -1.99906 1.93413 1.88613 
213 1 -1.24409 -15.8411 2.65285 
214 1 -1.44718 -0.58845 4.05843 
215 1 -5.24758 -0.940819 -3.88629 
216 1 2.71331 -6.69847 -0.82134 
217 1 -3.09668 11.8405 5.89283 
218 1 -7.02113 1.34588 4.27813 
219 1 4.65407 14.4869 11.8472 
220 1 -7.85915 0.00740909 -5.33857 
221 1 -7.72347 12.2394 -9.69279 
222 1 -13.4235 -4.78206 -6.30013 
223 1 -9.5753 -1.77813 11.4638 
224 1 0.344831 -11.2914 2.69276 
225 1 4.91072 -13.4425 6.25173 
226 1 -14.1694 11.2199 3.32909 
227 1 15.7391 3.10327 3.55489 
228 1 6.69168 2.82704 -6.17096 
229 1 -3.77215 -7.25207 -12.5201 
230 1 5.75553 0.490234 10.7973 
231 1 -3.53712 -3.38585 3.48652 
232 1 4.88474 -14.4021 3.08209 
233 1 -0.727182 6.30463 -9.21442 
234 1 3.54951 -11.006 -13.0635 
235 1 11.6314 0.943775 -13.1097 
236 1 4.11989 7.55614 -16.3606 
237 1 -6.91002 -5.40203 -7.89665 
238 1 -3.29634 14.756 -7.64325 
239 1 -10.1843 -10.7343 10.9784 
240 1 8.36416 16.9608 -2.35832 
241 1 -9.28422 2.51832 15.732 
242 1 -8.39189 12.9822 -4.71971 
243 1 6.00598 1.05258 7.77168 
244 1 -3.07619 -4.45104 -10.7349 
245 1 -2.42431 11.6077 -8.05235 
246 1 1.40058 5.32858 -11.0841 
247 1 -7.74835 -12.3634 9.07567 
248 1 -1.39223 4.23545 1.93474 
249 1 -7.548 4.34749 6.09791 
250 1 -8.85563 6.78375 8.33576 
251 1 1.04838 -11.2608 -7.0891 
252 1 -7.15965 -17.0637 -1.8737 
253 1 9.22292 -12.7055 -4.17105 
254 1 -1.98236 2.54554 5.29848 
255 1 -4.20906 0.13255 3.90163 
256 1 0.270369 -7.03471 -3.01857 
257 1 10.4391 7.98125 13.7289 
258 1 4.60104 7.89362 -8.18897 
259 1 0.837895 11.0381 -1.67598 
260 1 -9.44065 0.462533 2.69856 
261 1 -13.4052 12.2282 -2.16172 
262 1 2.75144 7.00402 9.32597 
263 1 3.58526 -18.2292 -0.509222 
264 1 10.086 -1.98978 -1.59214 
265 1 2.29333 8.83904 6.62307 
266 1 -9.50698 6.86875 4.16996 
267 1 -10.036 -1.90546 -4.68252 
268 1 6.66959 4.65064 -12.084 
269 1 3.62077 -3.11329 8.99254 
270 1 8.5508 10.2462 -10.3863 
271 1 2.51872 -9.22459 -2.87978 
272 1 -3.26522 -1.04855 -14.3299 
273 1 1.61491 -18.4059 4.87513 
274 1 8.01589 -1.59037 -6.98275 
275 1 -11.152 -3.02865 6.04176 
276 1 3.20898 -18.9988 -4.19034 
277 1 -9.01671 -4.18301 -10.2461 
278 1 5.74619 14.5627 -2.05478 
279 1 2.29388 -5.32559 -12.56 
280 1 2.57347 4.05693 15.4008 
281 1 13.9152 1.22509 1.35569 
282 1 -3.97008 -6.62223 2.36068 
283 1 10.2844 -3.61181 -10.8784 
284 1 -1.01736 -8.1453 2.84821 
285 1 -8.3564 -1.23974 -11.5322 
286 1 -12.4863 0.713456 -9.68595 
287 1 -7.24572 -15.0891 9.75859 
288 1 8.83788 1.9091 8.52329 
289 1 5.67373 -5.13906 7.04559 
290 1 -5.63846 -10.7097 -12.324 
291 1 1.85228 -5.20662 6.88231 
292 1 -0.68556 7.61817 -12.4115 
293 1 5.82952 8.58863 2.10199 
294 1 -7.0763 -7.19843 5.39089 
295 1 2.88209 12.1759 2.45928 
296 1 -6.70219 -2.16779 10.9037 
297 1 -9.62805 -7.34827 -9.1181 
298 1 -5.81947 -5.66576 -10.8843 
299 1 -1.36504 5.87963 -15.6353 
300 1 -6.84951 -9.32688 -5.08463 
301 1 -2.35307 -10.6759 0.792177 
302 1 -2.78695 -4.24378 0.305047 
303 1 8.54726 -5.02906 -13.5591 
304 1 16.2629 -0.0190165 -8.8244 
305 1 0.896485 -5.43481 4.11863 
306 1 10.1721 4.28784 3.77582 
307 1 -4.62437 -4.06798 -3.09643 
308 1 -8.8786 -2.63816 8.72965 
309 1 -4.52412 -12.3293 0.452435 
310 1 9.73098 5.13332 17.3268 
311 1 -6.53489 -17.334 4.72137 
312 1 2.02398 3.98887 -5.02904 
313 1 0.926664 -11.3162 -0.675264 
314 1 -2.49677 17.8095 -1.85583 
315 1 6.77272 -0.799855 -13.7392 
316 1 -6.22671 -3.28534 -15.8222 
317 1 5.76164 -7.23448 1.62473 
318 1 -9.50405 -7.75051 11.8113 
319 1 4.66012 6.35541 19.7217 
320 1 1.44682 -13.5317 -2.74718 
321 1 -4.31024 -13.398 -13.0678 
322 1 -10.9318 4.05567 -8.57338 
323 1 10.4837 6.19093 7.25579 
324 1 -6.69136 3 -11.0904 
325 1 -0.117913 7.59592 -6.44586 
326 1 -3.23617 -3.32604 7.33141 
327 1 6.31588 -14.4536 -8.2926 
328 1 -5.22355 16.0935 -2.01303 
329 1 2.70548 12.0588 5.61978 
330 1 10.7259 0.691919 5.75988 
331 1 -11.7475 -0.350419 4.82997 
332 1 -3.22674 -6.52326 12.68 
333 1 -6.67821 13.0728 3.01723 
334 1 6.65787 -6.11126 -15.785 
335 1 13.338 9.72946 -2.61266 
336 1 3.40133 -9.15053 0.103441 
337 1 -3.30425 -0.381231 15.2938 
338 1 -16.1879 -2.66527 4.64827 
339 1 -1.37707 -15.6713 -2.92554 
340 1 -9.34935 7.98927 13.9137 
341 1 -10.873 3.973 13.9798 
342 1 -14.7554 -4.55932 9.90464 
343 1 -13.7999 -7.36685 8.29271 
344 1 11.6452 -4.32463 -4.42345 
345 1 -10.8698 -8.64405 8.8115 
346 1 7.58756 -4.19965 -9.1502 
347 1 8.58989 -8.81756 -3.76121 
348 1 2.6755 17.6908 -2.9126 
349 1 -1.86458 -5.85251 5.16008 
350 1 -11.0984 13.2967 -4.9538 
351 1 1.94315 -1.3615 7.42578 
352 1 9.3123 7.56915 10.6236 
353 1 -9.10099 -2.5598 3.109 
354 1 7.07514 -10.9732 -1.51045 
355 1 -2.05502 9.64379 2.99299 
356 1 -5.95898 6.4552 3.94601 
357 1 0.80792 2.18734 3.32542 
358 1 6.15665 -10.9384 6.62179 
359 1 12.8403 -5.79576 3.36618 
360 1 -2.42328 6.16777 8.20454 
361 1 -5.07017 -0.970999 -6.76359 
362 1 4.18739 -1.678 2.56745 
363 1 -1.0596 -0.456079 16.7763 
364 1 -3.26023 12.9732 2.84243 
365 1 10.0056 8.20692 16.6665 
366 1 -9.29949 13.7526 -7.37607 
367 1 1.93916 -5.0374 -17.8055 
368 1 -5.71855 2.47489 -4.88564 
369 1 6.54004 -10.1128 -12.3123 
370 1 -9.97812 2.84868 11.3852 
371 1 -13.8427 1.97712 0.423838 
372 1 -4.38118 -4.2215 -6.83648 
373 1 -3.99966 8.57584 0.487798 
374 1 8.30851 -1.04842 7.26514 
375 1 -10.4649 -12.4307 2.05185 
376 1 10.5515 -6.10501 8.51061 
377 1 -4.26905 3.47038 -0.30709 
378 1 -8.22409 -10.5243 13.5895 
379 1 -12.0213 7.3954 -0.66642 
380 1 -1.478 -3.03411 11.6317 
381 1 2.91638 -12.3751 -4.88641 
382 1 -5.65655 -2.66613 -9.75997 
383 1 9.6029 -1.99335 -13.8097 
384 1 5.38879 13.3145 4.08975 
385 1 -10.8917 0.465743 -3.58496 
386 1 4.26458 -7.98817 -12.3211 
387 1 9.42747 5.88431 -13.5588 
388 1 -5.36411 -14.5372 -7.01527 
389 1 -12.3124 -6.96177 -4.4873 
390 1 -4.79424 -9.03191 -0.511963 
391 1 12.224 5.88639 15.106 
392 1 -0.375002 -2.32991 -0.518743 
393 1 9.29653 1.4744 -1.9662 
394 1 -9.73661 3.77946 -11.8058 
395 1 3.46225 16.8906 -0.166122 
396 1 -12.2245 -3.79378 -3.99008 
397 1 3.23244 1.40785 1.48732 
398 1 -7.35204 7.81932 5.90335 
399 1 -7.0756 10.6535 0.693677 
400 1 -3.7944 8.65042 5.34353 
401 1 11.9102 6.22215 9.64958 
402 1 10.743 -3.47795 -7.47471 
403 1 7.97598 -2.51294 14.0807 
404 1 13.3644 0.556946 -7.53987 
405 1 -6.57096 -15.9899 -4.90652 
406 1 0.954196 1.6607 6.4024 
407 1 -4.02535 6.20572 -1.55798 
408 1 -0.41754 -8.29701 -5.32266 
409 1 1.10167 9.60748 4.03498 
410 1 4.52174 2.28216 -3.63687 
411 1 -7.95902 0.79871 -2.61997 
412 1 4.25897 -11.5542 -1.70888 
413 1 13.9035 -0.323952 7.03979 
414 1 -10.2695 -4.31644 -7.18173 
415 1 -4.71403 -9.41781 2.67583 
416 1 -8.00512 -7.64565 14.8676 
417 1 -2.13221 11.579 -0.310446 
418 1 -12.1438 -9.91369 -3.26364 
419 1 7.00844 9.10886 15.5375 
420 1 -9.78613 7.80144 -3.1561 
421 1 0.722409 12.3619 -8.46463 
422 1 6.726 11.7294 6.9144 
423 1 -14.0444 -8.0344 -1.55514 
424 1 -3.4908 -9.22657 -5.9869 
425 1 -11.2942 -1.02281 8.02107 
426 1 -15.0418 5.91297 -2.21874 
427 1 4.74852 -8.07985 5.83769 
428 1 -4.28735 -13.7326 -2.55496 
429 1 12.7351 11.351 9.27425 
430 1 6.36758 6.93416 -13.8605 
431 1 -12.1626 4.81689 -14.0504 
432 1 -1.72316 15.1958 -10.1323 
433 1 -8.86479 5.59602 -6.03455 
434 1 -2.14933 -10.8909 4.22086 
435 1 12.4077 5.83461 5.03518 
436 1 0.924905 8.07847 -15.5216 
437 1 -5.4251 1.52982 9.9154 
438 1 -15.9085 -0.781077 -0.845052 
439 1 2.38218 1.17605 -1.65682 
440 1 -6.75125 0.987967 6.97016 
441 1 -5.49265 -14.3179 3.61949 
442 1 1.07331 -5.37714 -6.39452 
443 1 5.37208 -8.95067 -9.71784 
444 1 -0.179599 -3.48705 6.01155 
445 1 -13.2106 2.24 3.25943 
446 1 -15.0007 -1.58805 10.8247 
447 1 -13.4904 5.80736 6.22331 
448 1 -0.269004 -7.24813 7.35529 
449 1 -6.32021 2.59206 -14.9412 
450 1 6.96222 -9.70825 -6.69472 
451 1 1.09201 -8.67038 -11.9302 
452 1 -4.37981 -4.18207 10.7311 
453 1 3.73755 -6.28005 -4.23247 
454 1 -3.4622 4.08142 -14.7624 
455 1 5.82999 -13.6999 -0.0671921 
456 1 -0.453056 10.8556 -5.92892 
457 1 -11.124 7.15723 6.43822 
458 1 -5.72463 -2.26525 14.1314 
459 1 -11.5235 -6.37483 -11.3915 
460 1 -8.39456 -6.74104 8.54207 
461 1 10.1855 -3.06332 9.3431 
462 1 7.79207 3.34012 0.328587 
463 1 -4.41092 3.68986 3.33642 
464 1 2.68369 0.00485618 -8.42473 
465 1 10.5126 -7.28048 5.05313 
466 1 0.552965 6.3558 0.279177 
467 1 14.1929 7.02094 -4.30216 
468 1 -4.12178 2.09751 12.6481 
469 1 2.57556 13.4739 -3.51732 
470 1 7.41051 -6.5508 4.6532 
471 1 -3.01324 -12.1795 -4.98888 
472 1 -3.40185 4.90868 17.0783 
473 1 -1.97563 15.5764 5.71486 
474 1 -8.3451 -11.6486 -7.1778 
475 1 10.4573 15.7048 1.98113 
476 1 5.13815 9.0612 7.79714 
477 1 -8.62456 0.539958 9.37327 
478 1 -6.79273 -6.05881 -1.1621 
479 1 -10.5063 5.64167 10.7976 
480 1 -8.90038 -6.89887 -6.19299 
481 1 -7.65512 12.6002 6.05244 
482 1 -5.25554 -11.3885 -7.56346 
483 1 -2.80534 -7.38073 -15.7195 
484 1 -8.98381 -14.8294 3.51445 
485 1 -5.6951 -1.87038 5.62803 
486 1 8.8302 3.37695 6.11523 
487 1 -5.75465 -5.45382 13.6809 
488 1 -9.27073 8.17923 -11.1936 
489 1 9.95915 4.8188 -2.27553 
490 1 -6.81449 -11.9244 -1.62058 
491 1 -0.00546605 4.00941 -7.15599 
492 1 0.238675 16.8568 0.40175 
493 1 -2.94573 5.93175 -6.79999 
494 1 -1.66486 8.45795 11.5937 
495 1 -15.2118 -3.3341 -3.04714 
496 1 -0.694304 18.5747 -4.29404 
497 1 2.65506 12.1162 -6.30536 
498 1 -6.46672 -8.06422 -8.46083 
499 1 3.64005 3.55401 18.3829 
500 1 -0.117141 -13.8156 -8.99567 
501 1 0.410344 -3.78109 -10.1655 
502 1 8.21034 -14.6551 2.01436 
503 1 -10.6377 9.81708 2.10123 
504 1 1.39149 7.38821 15.7853 
505 1 8.42468 8.71732 -2.87816 
506 1 3.77937 10.326 -0.00899498 
507 1 -8.46233 10.6025 -12.7951 
508 1 3.32386 2.84552 -7.26395 
509 1 3.87677 -9.33214 3.50312 
510 1 -15.7995 -5.43843 -0.677964 
511 1 4.34823 3.53657 -0.280546 
512 1 2.78376 17.8065 6.84372 
513 1 -4.6216 4.84957 -11.5603 
514 1 11.1824 9.32148 -0.365686 
515 1 6.35442 14.8477 -7.81047 
516 1 8.49079 -8.19178 -0.12661 
517 1 14.5377 1.56342 -2.02338 
518 1 -1.01032 -3.05958 -12.9753 
519 1 0.0427378 -9.00149 0.0474391 
520 1 0.24723 -13.5287 5.27403 
521 1 2.27381 -9.0989 10.222 
522 1 -7.84371 3.36256 -7.97496 
523 1 -11.4793 -14.3228 5.77331 
524 1 2.76924 4.8338 2.48781 
525 1 -0.327911 -10.7694 -10.2496 
526 1 7.64801 13.995 6.25806 
527 1 1.50102 3.01535 -13.3964 
528 1 4.24032 -2.4533 14.5651 
529 1 -14.0587 1.86899 11.6111 
530 1 -1.26731 -17.4705 -0.138748 
531 1 -11.5398 -4.19281 1.25742 
532 1 13.4836 -5.32647 -7.4738 
533 1 8.36113 -4.69631 -3.85585 
534 1 -0.748808 5.06724 -4.11808 
535 1 -4.67168 8.63391 -2.67407 
536 1 2.04559 -8.74337 -5.9569 
537 1 3.75363 2.42472 -10.757 
538 1 10.2777 -6.34629 -9.03433 
539 1 -6.79577 0.163874 17.1451 
540 1 5.8972 14.6263 1.1933 
541 1 -0.910882 -3.3537 -18.0116 
542 1 2.04271 -3.39558 2.13254 
543 1 7.07554 2.25042 -17.8295 
544 1 -6.22765 -4.8184 8.14098 
545 1 -5.21612 13.5101 0.29235 
546 1 -8.639 -1.61312 -14.4168 
547 1 -15.2305 -0.106962 2.33564 
548 1 -1.17521 -9.79073 -16.4368 
549 1 -5.90216 -11.9159 11.6715 
550 1 -2.18768 8.73197 -7.87414 
551 1 16.3138 4.04926 9.82888 
552 1 12.7611 4.19506 -1.62975 
553 1 -10.2999 -12.3636 -1.24032 
554 1 -1.81703 -9.06976 -2.96206 
555 1 1.22887 -3.37972 -15.1548 
556 1 -6.59872 9.15645 9.44941 
557 1 1.06356 -2.203 -6.93956 
558 1 4.2791 6.51494 0.155771 
559 1 11.6466 -4.15197 -1.46655 
560 1 3.63627 15.1938 -6.40556 
561 1 4.04562 -4.52108 0.485201 
562 1 4.54787 -0.74931 -3.04613 
563 1 12.5988 5.40887 -9.84919 
564 1 4.07597 8.75519 13.4749 
565 1 -11.9652 2.25302 9.58229 
566 1 -5.56217 -2.82155 -0.601317 
567 1 7.06574 9.7507 10.2243 
568 1 6.13924 0.797512 13.4761 
569 1 1.36696 0.423011 -15.2967 
570 1 -6.64515 -6.36972 -4.72666 
571 1 0.742411 -1.6141 10.7273 
572 1 5.34592 12.2179 9.84805 
573 1 5.78484 5.69838 -6.45559 
574 1 -8.43047 10.7461 -6.91195 
575 1 -0.755533 13.6564 -2.54384 
576 1 10.7407 -1.9686 12.3935 
577 1 9.34581 3.10239 -13.3447 
578 1 9.91173 -6.79655 -2.16298 
579 1 10.5238 10.2429 11.2074 
580 1 -12.7991 -6.90293 1.82702 
581 1 -4.73705 10.9371 -12.2603 
582 1 0.94593 1.19336 9.6339 
583 1 -14.1969 -0.538115 13.6203 
584 1 -4.98163 14.0494 -10.7153 
585 1 1.36897 -16.1877 -5.24149 
586 1 5.29975 -2.03325 -9.09167 
587 1 -2.75711 15.85 -4.54711 
588 1 -8.16617 -4.66477 -13.3412 
589 1 4.39268 -16.5784 5.38355 
590 1 -12.0607 -5.61206 -1.05173 
591 1 2.97166 10.5404 -15.3912 
592 1 -6.71599 3.36706 -1.78459 
593 1 -0.794549 9.46736 14.826 
594 1 -10.6135 -5.41456 7.58027 
595 1 5.60785 8.71788 -1.53304 
596 1 2.6122 -10.6107 -10.0526 
597 1 3.64172 -7.05959 12.2817 
598 1 7.48653 0.571391 -4.77021 
599 1 0.771232 0.0533898 1.18636 
600 1 -8.96149 5.71033 -0.847171 
601 1 6.71708 3.86676 18.5892 
602 1 5.66117 16.2352 -4.66625 
603 1 12.598 -8.64731 -1.80331 
604 1 4.41469 8.71468 10.7387 
605 1 1.83601 3.96422 -16.4988 
606 1 -3.17305 -12.2872 9.02768 
607 1 -3.11995 0.127396 -8.42312 
608 1 9.44512 0.339435 -15.5543 
609 1 2.56111 15.5894 5.37049 
610 1 9.17278 4.74794 -10.3621 
611 1 -3.56483 -4.5003 -13.9599 
612 1 -4.3127 -10.6245 -3.23839 
613 1 -10.9351 -2.80591 -12.5261 
614 1 12.3464 2.40473 3.90366 
615 1 14.8394 3.56958 -4.2352 
616 1 7.27079 -7.00421 -8.00375 
617 1 12.7659 7.76532 11.9544 
618 1 4.85431 -9.54511 -4.65081 
619 1 4.66949 3.04161 -16.6747 
620 1 8.46443 13.8676 3.07313 
621 1 -9.34825 3.3896 3.56438 
622 1 9.38516 11.0075 14.3786 
623 1 11.3784 7.40953 -2.88915 
624 1 12.9452 -2.2467 1.17202 
625 1 11.0342 3.02156 -7.88139 
626 1 5.27043 4.03465 13.0914 
627 1 16.0564 6.22814 11.4439 
628 1 1.57934 -4.79715 10.2387 
629 1 12.6327 11.8145 -4.68323 
630 1 5.67173 2.06353 2.81104 
631 1 0.773643 2.25763 14.6621 
632 1 13.3255 -1.81783 -6.29205 
633 1 8.53418 4.82118 8.98225 
634 1 -9.14835 -1.67612 -8.03045 
635 1 12.4733 5.00435 1.8417 
636 1 9.663 -4.62441 4.18776 
637 1 -2.35697 -7.72327 -0.317018 
638 1 -12.0826 8.22611 11.4594 
639 1 8.61111 12.2857 11.2182 
640 1 10.6483 4.98481 12.3044 
641 1 2.8761 11.3551 8.6379 
642 1 -0.143753 12.874 9.8763 
643 1 5.80001 3.53252 6.38706 
644 1 -1.449 -18.7922 3.49625 
645 1 -5.77405 11.2846 -4.35437 
646 1 11.0024 10.5288 -7.61337 
647 1 11.7706 -0.970288 -11.3159 
648 1 0.461593 16.4243 -2.5833 
649 1 -2.24334 -12.1614 -7.93942 
650 1 11.0414 -7.17319 -12.3741 
651 1 -12.8709 2.56685 6.26311 
652 1 -6.30143 8.43488 -11.2203 
653 1 -4.02723 -16.9014 2.32899 
654 1 -5.63239 0.110077 -10.4592 
655 1 -13.6812 1.3091 -5.68976 
656 1 11.3801 -8.18086 2.41253 
657 1 12.3564 10.4283 5.32479 
658 1 2.43525 -9.37936 6.67652 
659 1 -15.0931 -2.35632 -8.66559 
660 1 1.13221 3.06677 0.362549 
661 1 3.25754 1.11639 -18.1918 
662 1 3.46319 -3.2655 5.30787 
663 1 -2.18224 2.63531 14.7085 
664 1 5.62569 9.4576 -11.5282 
665 1 11.7748 1.16974 12.188 
666 1 8.68484 4.89866 -7.75913 
667 1 5.99416 0.979389 -0.738654 
668 1 12.3093 13.3524 3.35397 
669 1 2.80671 -14.139 -7.9828 
670 1 -11.2701 -2.42469 14.9403 
671 1 12.3999 -2.86415 4.05037 
672 1 -0.351872 11.2413 12.7222 
673 1 6.29526 12.4114 -10.1641 
674 1 -11.9512 10.3935 -3.58657 
675 1 10.4126 10.5355 2.70953 
676 1 -8.6373 -15.0004 0.312688 
677 1 12.9043 -5.21053 0.623245 
678 1 8.059 16.7918 3.91561 
679 1 -4.88904 5.00455 9.76702 
680 1 -9.69189 -5.84635 2.99232 
681 1 -11.7496 -2.0382 -9.65875 
682 1 8.66421 2.66786 11.9151 
683 1 -4.01378 -9.32716 10.6563 
684 1 8.24715 5.25134 14.0871 
685 1 -4.92661 10.8183 -1.13483 
686 1 10.0662 6.73992 1.24895 
687 1 5.56354 -2.11913 -0.277234 
688 1 3.12138 3.74452 5.24111 
689 1 4.5763 -3.73485 -17.4549 
690 1 -8.82354 -1.25996 5.79556 
691 1 8.35644 -0.87952 -9.99407 
692 1 -2.44917 -6.2319 -5.11497 
693 1 10.85 -9.98329 -6.15881 
694 1 7.52829 6.3735 6.24943 
695 1 4.81946 6.68216 4.17145 
696 1 -10.9583 0.207138 13.6684 
697 1 9.28814 10.3972 8.2639 
698 1 0.797094 -2.40567 14.1965 
699 1 -2.48136 5.54784 12.1095 
700 1 -0.795393 -6.12438 -13.3943 
701 1 -6.70488 3.29873 12.161 
702 1 -3.80986 4.21345 -3.59229 
703 1 5.77102 3.04566 15.7767 
704 1 -8.56999 -15.6924 7.00683 
705 1 13.0162 6.80709 -0.811022 
706 1 5.87187 -12.2925 -4.16164 
707 1 -4.52941 6.51181 -9.09664 
708 1 8.06486 9.55124 0.514779 
709 1 10.4415 15.2366 5.33384 
710 1 5.19598 -0.492636 -16.5152 
711 1 -1.0209 -1.05669 8.25078 
712 1 3.06982 9.88827 -3.46666 
713 1 12.6328 8.28315 2.23085 
714 1 -1.81541 -5.14966 -1.94331 
715 1 -7.27502 -9.17314 -1.73217 
716 1 -1.43208 0.0540742 -17.3564 
717 1 -10.3497 12.8465 -1.86955 
718 1 7.46173 -6.80824 -10.9617 
719 1 6.43166 5.13596 2.12216 
720 1 10.4441 7.50874 -8.92283 
721 1 10.7914 14.1588 -2.57825 
722 1 -2.68817 5.63975 5.03354 
723 1 -6.09821 5.74471 0.99534 
724 1 7.83405 5.6027 -4.07466 
725 1 13.3778 4.31638 12.2926 
726 1 9.16224 0.403644 14.1551 
727 1 -5.24752 -11.3479 7.27642 
728 1 -5.62583 9.50917 -14.3891 
729 1 2.57135 14.6016 9.53486 
730 1 8.80008 -8.23163 -14.5104 
731 1 3.42707 0.676955 9.04053 
732 1 7.31393 13.6585 -4.9535 
733 1 9.91027 11.7141 5.42502 
734 1 -6.12421 0.627793 -0.359964 
735 1 15.074 -7.40588 -5.06981 
736 1 7.41019 7.24933 18.2486 
737 1 -14.3384 -4.33813 6.50773 
738 1 1.47301 -15.0854 3.10431 
739 1 -0.0302723 -0.86766 -9.9659 
740 1 -9.53772 13.923 1.17563 
741 1 -0.172459 4.56916 6.95052 
742 1 5.17592 -4.04602 -2.91975 
743 1 5.88636 12.017 0.629405 
744 1 -13.5861 -2.57935 3.29724 
745 1 -0.559954 5.15465 15.8721 
746 1 -5.25497 6.23504 -15.5098 
747 1 -7.97197 7.63267 -14.5511 
748 1 2.85715 -14.9375 -0.00423593 
749 1 7.5536 9.37855 -7.76177 
750 1 4.29825 -5.79088 3.86568 
751 1 0.162663 6.99605 3.12649 
752 1 -13.4938 4.68969 11.8033 
753 1 3.98469 -2.56031 -13.9204 
754 1 2.49015 -12.0591 7.81423 
755 1 2.17944 15.1452 2.10088 
756 1 -3.85914 1.58285 17.687 
757 1 -3.16562 -1.37102 0.943345 
758 1 -7.88764 -7.69635 -11.4693 
759 1 -3.7961 -10.7388 -15.1261 
760 1 -6.27743 -13.0683 -9.80294 
761 1 -1.6197 17.1345 -7.48434 
762 1 3.86902 -4.22005 -7.44937 
763 1 2.84647 -1.61102 -0.819156 
764 1 -6.0374 10.0613 6.7944 
765 1 4.58485 -11.3694 -7.76458 
766 1 6.00837 -16.5549 0.415489 
767 1 7.24009 -7.61708 7.96596 
768 1 16.3083 2.5925 -7.57545 
769 1 -0.267811 -13.7926 -5.70922 
770 1 -11.6244 -3.36254 9.818 
771 1 -0.290142 0.684106 -7.22385 
772 1 -4.74735 -17.9749 -0.196806 
773 1 -6.66576 -12.5263 -4.59604 
774 1 0.497668 -1.22459 -3.39244 
775 1 -12.3037 -0.486356 10.8328 
776 1 -7.38019 -17.4517 1.65516 
777 1 13.7386 4.32777 -6.7197 
778 1 -4.65127 15.7207 3.11958 
779 1 -4.54587 3.13579 6.6379 
780 1 -12.1876 7.45229 2.68131 
781 1 11.0968 0.0545041 2.00958 
782 1 -8.99214 1.44662 -13.8126 
783 1 0.514203 8.57122 -3.88817 
784 1 8.69675 0.958156 -7.44699 
785 1 6.11337 11.3729 12.8842 
786 1 1.39347 -1.05922 4.41885 
787 1 10.2086 2.65875 -4.85425 
788 1 -15.5556 0.885875 -8.59107 
789 1 -12.5345 -6.82466 -8.1119 
790 1 -1.22039 7.6182 17.7579 
791 1 4.05135 6.83472 -11.1261 
792 1 12.7766 13.1623 6.53234 
793 1 -1.93569 0.506956 10.497 
794 1 -3.7091 -17.6869 -2.6221 
795 1 -6.36261 -17.6803 7.49715 
796 1 -3.33593 -6.432 8.4111 
797 1 14.5586 8.10924 9.43919 
798 1 1.88253 -6.39658 -9.48217 
799 1 -7.0572 8.14956 -1.25349 
800 1 7.36384 11.3194 3.41297 
801 1 -8.03706 -4.19853 5.72299 
802 1 7.35127 6.93359 -10.3357 
803 1 -2.89292 -15.6947 -5.4101 
804 1 1.11271 -17.8528 1.42564 
805 1 0.0147271 -14.5024 0.0167469 
806 1 5.58729 4.49474 -8.84152 
807 1 7.79651 17.4806 1.20771 
808 1 -4.18643 1.4329 -16.6021 
809 1 -0.717009 -0.385789 13.2695 
810 1 1.58336 6.10039 -13.8865 
811 1 -10.6882 -0.850758 -15.5593 
812 1 -11.1376 -2.04276 -1.38099 
813 1 1.6098 17.3917 -5.73667 
814 1 9.8489 -2.74248 1.50956 
815 1 -3.6916 -4.87106 -17.6351 
816 1 -7.1529 -8.17509 1.36719 
817 1 10.9526 5.39771 -5.71101 
818 1 9.61699 -5.99727 1.40379 
819 1 -7.49069 6.71993 11.96 
820 1 5.85065 -10.4662 1.38424 
821 1 14.2754 -6.08895 -2.22832 
822 1 11.2113 0.205266 8.94938 
823 1 0.0775557 9.34777 9.3098 
824 1 -13.1045 2.49462 14.7495 
825 1 -7.23489 3.654 8.8623 
826 1 -2.927 -13.3483 5.90799 
827 1 8.66431 1.83762 2.83914 
828 1 7.11986 7.72152 12.6093 
829 1 -13.823 -2.84194 -0.298361 
830 1 6.00002 -6.73331 -1.19096 
831 1 1.87366 4.79173 -2.04316 
832 1 -11.5162 11.0098 -7.09942 
833 1 2.95258 8.26187 2.08466 
834 1 2.3568 -15.7171 6.70856 
835 1 3.71495 1.29241 15.1028 
836 1 -0.13562 12.7137 4.5545 
837 1 2.712 -11.9345 4.82888 
838 1 -7.83579 -2.1798 -2.31898 
839 1 2.56279 3.14043 11.6823 
840 1 -15.3428 -6.08755 -4.1122 
841 1 2.23828 11.2352 14.9191 
842 1 2.89309 13.6873 -0.238172 
843 1 -8.34138 -9.78152 3.47717 
844 1 -3.69458 -16.818 5.42485 
845 1 8.3339 -4.7453 7.27133 
846 1 12.5987 -5.17305 6.69663 
847 1 7.55336 9.3648 6.18141 
848 1 -2.50634 7.15582 -4.3218 
849 1 0.0515771 -8.68949 -8.30245 
850 1 -3.39636 1.66167 -12.0304 
851 1 -5.57606 1.15081 14.9303 
852 1 -1.43793 15.4163 2.64671 
853 1 13.6151 -0.288242 4.38069 
854 1 2.60981 9.2557 -6.73194 
855 1 -2.98376 7.51254 14.8089 
856 1 6.06557 6.51306 10.1096 
857 1 7.04789 -3.07337 -12.0801 
858 1 -5.93237 -14.8632 0.623552 
859 1 -2.29191 -0.708545 -5.02756 
860 1 15.8539 2.32131 7.12041 
861 1 2.94482 -2.50819 -10.4736 
862 1 -0.185665 6.30267 13.1406 
863 1 8.00502 -12.003 -6.7421 
864 1 6.97372 5.80859 -16.4661 
865 1 -4.46627 -7.37929 -3.14686 
866 1 11.929 3.45329 -12.0132 
867 1 14.9818 -3.02866 -1.26205 
868 1 0.147558 -5.36891 12.8295 
869 1 -2.43287 -9.89993 -12.4912 
870 1 -1.03639 0.839381 -1.06635 
871 1 8.84302 14.4075 -0.429492 
872 1 0.83549 -8.96247 4.57401 
873 1 -12.085 4.64833 4.20584 
874 1 12.4541 1.07897 -4.12412 
875 1 14.9675 6.34328 3.16611 
876 1 0.953392 -7.41775 -15.1331 
877 1 -12.2174 9.87324 4.72982 
878 1 17.8861 7.5556 4.91066 
879 1 11.1495 13.6653 -5.99448 
880 1 4.07407 1.32528 -13.9785 
881 1 8.30378 -4.64425 -0.874753 
882 1 -11.1285 1.12031 -0.828278 
883 1 8.22446 7.22178 3.33762 
884 1 -12.3702 -10.0785 0.0721499 
885 1 -11.6185 8.53387 -8.95555 
886 1 5.24951 3.61617 9.84583 
887 1 -10.9421 0.674596 -7.17512 
888 1 -10.1101 4.32513 8.25366 
889 1 -4.99978 3.39843 -8.24941 
890 1 9.48008 -8.79392 -8.42514 
891 1 -10.9337 -9.28879 -6.24075 
892 1 11.8986 -7.47027 -4.12175 
893 1 -14.196 5.45874 1.19052 
894 1 -7.57061 -3.18125 -5.4405 
895 1 13.6664 7.53545 6.5434 
896 1 -5.45642 -8.23011 8.20635 
897 1 10.3506 3.18419 14.7855 
898 1 11.5841 -2.07537 6.96646 
899 1 9.78492 -1.21867 4.16943 
900 1 -11.5718 4.30536 0.855778 
901 1 2.82905 11.6555 11.833 
902 1 1.25456 8.37005 -9.76856 
903 1 -0.843049 -6.87955 -18.3896 
904 1 -5.37234 14.7643 6.07934 
905 1 -10.3202 -11.7798 7.65552 
906 1 8.91372 11.0079 -5.38858 
907 1 1.25873 8.80497 12.5311 
908 1 15.2942 -3.81798 -4.60263 
909 1 5.95175 -5.36662 10.2454 
910 1 -2.23216 13.1028 -12.4334 
911 1 3.20971 10.5388 -9.71929 
912 1 0.446016 -5.21809 0.448002 
913 1 -4.03422 -1.17231 12.0956 
914 1 16.1692 5.10164 6.15098 
915 1 -2.91117 -1.48938 -11.3519 
916 1 13.3426 10.9953 1.00753 
917 1 -15.3092 1.94315 -2.70278 
918 1 -7.37857 -12.0608 1.86579 
919 1 3.34207 13.4682 -9.17169 
920 1 7.16941 -2.99621 9.65999 
921 1 -1.5121 -11.7906 -1.79716 
922 1 -7.09586 15.7213 0.912602 