ITEM: TIMESTEP
482000
ITEM: NUMBER OF ATOMS
2000
ITEM: BOX BOUNDS pp pp pp
-30.0 30.0
-30.0 30.0
-30.0 30.0
ITEM: ATOMS id type x y z Coordination
1 1 -9.51778 7.82872 -14.0337 15
2 1 -3.74823 -9.19522 -9.10318 20
3 1 0.19538 15.2128 12.1382 12
4 1 4.62444 -8.5312 12.2763 18
5 1 -13.073 9.92347 2.91833 18
6 1 10.264 -9.61838 -8.35246 19
7 1 -7.92133 3.70477 -6.02691 22
8 1 2.25931 -10.0971 13.5728 8
9 1 -7.62762 5.80835 -11.9114 19
10 1 -15.0488 -8.44441 4.24545 9
11 1 12.6579 2.19434 -9.98515 17
12 1 -3.03717 2.97243 -4.81341 22
13 1 -1.05219 -15.6927 2.11863 21
14 1 -9.78875 -9.35508 -0.336743 20
15 1 1.53703 3.39034 15.1913 12
16 1 7.74574 -2.5155 7.04713 23
17 1 1.73561 5.8378 8.92443 24
18 1 6.72589 -2.75992 2.43718 22
19 1 -0.505438 9.93057 -9.40315 21
20 1 4.49165 1.10429 14.4388 19
21 1 -6.11949 1.07566 -17.2776 14
22 1 -5.26261 -5.43333 15.1285 13
23 1 11.5149 5.14954 10.4519 22
24 1 -0.441568 9.27069 -12.5146 20
25 1 8.30918 3.33103 -12.9939 17
26 1 13.7964 -0.0136275 11.9964 15
27 1 -9.27485 3.01386 6.95683 22
28 1 -13.2445 5.91833 -6.87099 14
29 1 -2.38021 -0.74186 -8.06111 20
30 1 -10.8289 9.36559 6.22807 19
31 1 7.86177 -12.6829 3.20362 19
32 1 1.89529 -7.13726 14.1141 14
33 1 0.360199 -12.2781 -10.9514 12
34 1 7.72325 -15.7517 2.28652 11
35 1 -9.31675 -14.5933 -3.88289 13
36 1 -11.0592 -2.55916 17.4498 7
37 1 2.60589 -3.27477 -4.71854 23
38 1 4.2725 -4.38053 -11.7014 26
39 1 9.07419 -10.8035 -10.4805 14
40 1 -0.903171 7.17334 -17.6956 11
41 1 -0.802008 3.99611 13.613 20
42 1 2.22742 -13.5976 10.6238 12
43 1 7.401 -6.74064 13.1345 15
44 1 -8.93201 -0.959005 0.593594 26
45 1 -14.6195 -2.69501 7.21636 14
46 1 -9.41225 2.52723 3.38612 24
47 1 2.81398 15.0736 -0.289676 20
48 1 -2.78029 -10.97 -14.326 11
49 1 0.396937 2.89483 -9.10855 23
50 1 3.71198 -4.9415 -7.23587 21
51 1 -3.86753 -8.96795 9.64253 19
52 1 -11.3507 3.23151 -1.77201 20
53 1 -1.21047 11.3458 -6.84849 24
54 1 -1.33502 13.6157 6.81002 25
55 1 -8.57272 9.15204 -11.3548 21
56 1 -4.41488 11.0074 -2.50495 22
57 1 5.53536 -14.8888 0.79266 16
58 1 6.601 -6.29412 -4.10882 20
59 1 3.98588 -7.60651 -12.7032 21
60 1 -8.02733 7.827 8.51293 20
61 1 -14.3262 -2.22559 -10.6756 8
62 1 10.8224 -2.03905 6.03798 24
63 1 -5.6666 7.56349 -6.92926 23
64 1 -8.19018 -7.36285 1.39795 22
65 1 -3.58701 11.8879 8.37817 20
66 1 -10.6438 5.04174 -7.87259 22
67 1 -5.72452 10.0877 9.66864 16
68 1 1.36184 6.60586 -4.78575 22
69 1 2.54161 4.07084 6.3612 20
70 1 1.4978 -15.5034 7.88776 19
71 1 4.90634 5.99559 8.04433 24
72 1 2.5786 -17.899 -2.4898 8
73 1 2.52339 14.077 14.0522 13
74 1 -9.70345 0.170908 -9.8216 20
75 1 -12.2856 8.56301 -12.2131 15
76 1 4.03366 4.24325 10.5483 24
77 1 12.2454 -3.40152 -7.89023 16
78 1 12.6336 -11.1666 0.438528 13
79 1 -13.2929 -1.85788 0.5397 20
80 1 -10.4612 -6.33369 9.9229 23
81 1 4.50276 16.0705 4.59561 15
82 1 7.93636 -2.17219 10.0346 22
83 1 -3.4596 -11.8057 9.93707 20
84 1 -9.13038 -0.79719 3.91218 25
85 1 13.1626 3.41517 7.3642 20
86 1 5.91557 -2.54637 -5.75894 20
87 1 -3.32987 11.632 5.19392 27
88 1 11.0874 -6.91329 8.64116 17
89 1 -7.28016 -6.26389 -1.98301 23
90 1 -3.89315 -6.00026 -6.58262 20
91 1 -13.264 5.36392 7.21144 15
92 1 -9.84674 13.0097 -4.32954 14
93 1 -5.20774 9.55687 -13.6396 20
94 1 1.88637 -0.0633566 -4.51624 21
95 1 3.3351 -1.52711 -7.46595 22
96 1 6.7544 11.6972 -11.2037 16
97 1 7.13276 -9.38229 2.55228 20
98 1 2.51688 -4.26544 9.06498 23
99 1 -5.08147 16.9583 -1.11868 14
100 1 -8.90872 14.9084 0.931272 12
101 1 -0.408157 -2.10908 14.2269 14
102 1 -10.9657 12.3498 1.97248 16
103 1 -8.44713 -5.16767 12.6676 23
104 1 11.848 -8.28924 -5.53991 18
105 1 -13.9405 2.57997 3.63251 21
106 1 -10.7905 -11.7719 6.19296 14
107 1 10.4347 -5.39458 -6.63036 22
108 1 0.767488 -0.251768 -9.0873 24
109 1 -2.51156 0.718049 -18.2868 13
110 1 5.51754 -0.801573 5.2187 22
111 1 -2.18731 10.2239 2.52784 23
112 1 -2.58557 7.55231 -14.0878 19
113 1 2.11794 12.4216 16.7406 11
114 1 3.03473 15.2386 -3.39161 19
115 1 -13.5024 11.4599 0.138505 11
116 1 0.371906 8.38 1.04705 23
117 1 -0.413847 1.67944 -3.10072 22
118 1 -7.75355 -7.32695 5.22569 24
119 1 15.6084 -0.949732 9.08554 11
120 1 -1.87097 -3.79905 -4.64283 22
121 1 3.02699 -6.34783 -4.38985 20
122 1 -2.44688 1.92388 8.77406 22
123 1 6.52186 -0.704771 16.387 12
124 1 -6.23298 -4.5656 -8.15404 23
125 1 6.91276 -6.19152 3.08392 22
126 1 -9.19747 -8.22602 -3.30114 22
127 1 10.0644 -14.3221 4.6948 8
128 1 -4.82761 3.11346 3.53514 25
129 1 6.50507 2.2455 -16.043 15
130 1 8.55639 16.7244 -3.43713 9
131 1 -7.93046 -13.366 7.63531 14
132 1 -6.46388 -15.1212 5.3542 16
133 1 -1.90032 6.7677 2.77155 24
134 1 -3.10505 -2.6771 -18.2392 10
135 1 4.91044 6.64689 -9.23887 22
136 1 11.315 -12.824 -2.31778 13
137 1 7.78859 -13.7052 8.25385 12
138 1 -9.40117 -4.73335 -3.64823 19
139 1 15.3012 8.61903 9.44336 12
140 1 14.165 0.923794 -4.98516 17
141 1 -15.319 -5.92368 2.50011 14
142 1 8.49948 6.10499 3.76004 23
143 1 15.0778 8.43197 3.22268 10
144 1 -3.29278 3.49883 14.4623 16
145 1 6.81645 0.915829 -0.988755 25
146 1 -5.69732 9.70158 3.54689 23
147 1 -2.38804 17.8541 -6.78716 10
148 1 -3.94086 -5.90252 -10.0087 20
149 1 6.81674 -12.9035 -9.12942 17
150 1 1.8557 14.8086 -11.4153 15
151 1 4.55367 -5.55447 14.3776 14
152 1 2.01382 -1.27002 -15.8836 16
153 1 -7.73849 15.4758 -2.43948 12
154 1 7.71779 -0.821454 -3.82295 23
155 1 -12.4569 11.4001 -3.16244 12
156 1 -0.831203 -3.46934 -0.36367 22
157 1 -6.29394 16.6371 2.47945 12
158 1 8.48282 3.56402 -10.0506 23
159 1 8.35441 -8.79493 7.66406 22
160 1 -5.98303 10.7797 -6.70543 22
161 1 -7.81235 11.4139 4.87433 21
162 1 11.9545 6.58998 -7.00931 18
163 1 -1.6513 3.6127 -0.412545 23
164 1 3.91098 8.3131 -3.00837 20
165 1 -0.0585652 15.1556 0.954023 20
166 1 9.26758 10.6217 -2.89817 21
167 1 -0.862181 8.05271 -3.53165 22
168 1 3.88288 16.392 -8.99665 14
169 1 5.07772 7.98158 -15.5447 12
170 1 -11.3225 -12.1491 0.967013 13
171 1 -14.9912 8.52387 0.208974 14
172 1 -3.70417 -1.0796 -12.762 20
173 1 -0.0101704 -10.8468 -13.4988 13
174 1 9.00573 12.5645 7.90549 18
175 1 -1.48247 16.6267 7.02872 13
176 1 -15.5519 0.439186 -7.56279 9
177 1 -12.0401 7.299 1.52234 18
178 1 13.7481 -2.22617 -5.16278 17
179 1 -3.95374 -0.975769 -15.4997 20
180 1 10.7997 2.95571 16.226 11
181 1 1.90115 16.8739 5.6783 14
182 1 1.25867 9.01024 9.12861 24
183 1 2.39196 -8.65017 -15.2068 14
184 1 -0.264832 15.1904 4.1426 20
185 1 -3.50282 9.3547 -5.39818 24
186 1 4.86221 -5.46185 11.2111 22
187 1 -9.86113 -6.03744 6.72417 23
188 1 -1.18355 -8.28725 -15.8663 14
189 1 -11.6161 11.3555 -10.1471 12
190 1 -2.28769 -8.24509 6.72172 21
191 1 4.16293 -16.1302 -4.71916 10
192 1 -2.48117 12.2091 -14.1661 15
193 1 -14.1245 0.450562 8.53646 16
194 1 1.4611 6.81277 -1.64325 23
195 1 11.6638 9.18264 -4.75268 17
196 1 -8.79416 2.94574 15.202 14
197 1 -1.00833 -11.5395 10.928 18
198 1 -10.6503 1.77378 -7.24609 21
199 1 2.43563 16.9566 2.44552 14
200 1 -0.804401 3.75142 10.2637 22
201 1 15.2263 1.92934 9.73426 14
202 1 -4.8399 11.4556 0.811787 21
203 1 12.072 -6.9443 -8.5568 13
204 1 -5.96668 13.0412 6.33752 17
205 1 -5.11217 4.50392 -7.08329 23
206 1 13.0832 -10.1515 -2.98182 14
207 1 -4.89897 -9.26904 6.21227 23
208 1 -15.2996 0.230777 5.41404 16
209 1 -5.72223 -12.5155 3.55389 23
210 1 6.52589 3.053 12.7168 24
211 1 -15.3641 -0.230295 -1.18536 14
212 1 -1.50666 0.272506 3.05154 22
213 1 -3.56913 -16.6125 6.22497 16
214 1 0.22189 0.705407 7.31263 23
215 1 -8.1595 0.6442 -2.62134 24
216 1 -0.354867 -6.77863 -0.216385 19
217 1 -3.01269 8.46245 5.21494 24
218 1 -8.99365 -0.531581 7.36557 21
219 1 3.06914 13.993 10.6792 17
220 1 -4.92302 1.04905 -6.82093 21
221 1 -8.99968 12.3496 -7.90832 16
222 1 -11.4817 -4.69061 -10.8805 13
223 1 -3.80307 -8.0765 13.7651 13
224 1 -0.52133 -9.72048 4.33228 19
225 1 8.11556 -9.14776 11.3493 15
226 1 -11.2343 11.9965 5.20224 16
227 1 13.0824 -0.41823 4.36723 18
228 1 5.34028 3.68416 -5.78943 23
229 1 -6.81907 -4.56225 -11.2304 19
230 1 3.34683 -2.7065 6.50631 25
231 1 -4.57588 -6.49696 8.57894 21
232 1 5.61218 -7.90594 9.66179 19
233 1 -3.68082 9.62069 -8.71213 22
234 1 2.81877 -10.9881 -12.656 13
235 1 10.3948 1.08969 -12.3026 19
236 1 1.78076 7.51907 -16.0714 16
237 1 -2.32798 -0.21946 -4.84291 22
238 1 -1.56816 14.8411 -6.85212 20
239 1 -11.1246 -10.65 12.1023 10
240 1 8.74788 14.5592 -6.26459 12
241 1 -7.13979 -7.56167 14.2465 14
242 1 -6.88882 12.4156 -4.6588 21
243 1 7.58792 1.11024 6.78159 22
244 1 -4.11508 -2.51957 -10.1099 22
245 1 -3.93301 12.5033 -8.84978 20
246 1 -1.81586 4.1432 -11.1521 25
247 1 -9.52838 -8.98981 6.79876 19
248 1 -1.46646 3.55578 2.74841 22
249 1 -7.43546 4.61987 8.36607 24
250 1 -5.13523 6.54267 6.80143 25
251 1 1.32098 -12.0232 -5.49076 19
252 1 -6.61499 -15.6135 -1.94012 16
253 1 9.11266 -13.9272 -4.52908 14
254 1 -2.72083 1.91058 5.66136 24
255 1 -2.18356 -1.38554 5.7961 26
256 1 -1.68623 -7.17423 -7.49707 21
257 1 9.88111 9.81526 15.9526 11
258 1 4.59436 10.0743 -9.24066 22
259 1 3.06482 12.044 -0.0626679 23
260 1 -11.799 4.28777 4.68824 22
261 1 -10.4879 12.1625 -1.13351 16
262 1 1.13507 8.71801 12.6681 22
263 1 4.97277 -16.3214 4.02112 17
264 1 8.93393 -4.01061 1.27406 20
265 1 2.62376 7.53588 6.33363 22
266 1 -9.67707 5.75762 2.94209 24
267 1 -13.7036 -1.83987 -5.85773 17
268 1 10.5497 4.71029 -8.70776 18
269 1 3.79223 -6.05048 6.67616 22
270 1 6.71263 8.70728 -10.2664 22
271 1 -1.10114 -10.7293 -2.92021 20
272 1 -1.67296 3.84779 -17.765 12
273 1 6.99781 -14.0836 5.24645 17
274 1 10.5194 0.86963 -8.33207 25
275 1 -12.5814 -4.00401 5.0803 21
276 1 3.06779 -14.5865 -2.71349 16
277 1 -8.59712 -1.42443 -15.8221 13
278 1 3.59734 12.2319 -3.18203 21
279 1 1.32746 -3.21891 -12.7514 20
280 1 -5.39918 6.91821 10.2635 21
281 1 13.6309 -3.53242 4.70251 14
282 1 -8.17525 -4.37077 0.221271 23
283 1 10.7821 -4.62297 -10.7266 16
284 1 0.689092 -9.70053 7.49048 20
285 1 -8.45936 2.16208 -15.9379 14
286 1 -13.3767 6.219 -9.96473 13
287 1 -4.96813 -12.5328 6.85215 22
288 1 10.0161 -0.310693 8.70576 21
289 1 8.22892 -5.67335 6.72518 23
290 1 -6.3661 -8.03275 -11.3469 15
291 1 5.27183 -15.9797 7.34583 11
292 1 -2.17173 7.55707 -11.1421 23
293 1 6.01248 7.84025 2.13353 22
294 1 -10.4472 -5.94557 3.38689 20
295 1 2.52266 10.468 2.69241 23
296 1 -7.61119 -7.78583 8.40741 23
297 1 -11.2229 -7.02665 -8.73898 15
298 1 -6.25624 -7.82312 -8.1677 19
299 1 -3.42746 9.34764 -16.5796 12
300 1 -5.18845 -7.7719 -3.16759 19
301 1 -6.33907 -8.8386 3.1553 22
302 1 -2.88882 -5.02052 1.53504 21
303 1 9.56228 -5.71748 -13.6233 11
304 1 13.1184 -0.140835 -7.45668 18
305 1 5.91678 -4.01821 5.21896 22
306 1 10.8388 4.5938 2.43311 26
307 1 -5.44705 -4.26595 -3.40688 20
308 1 -12.8841 -7.57138 7.30254 17
309 1 -4.11063 -18.0595 -2.47101 11
310 1 7.58182 7.85487 15.1402 20
311 1 1.84108 -17.9832 5.50033 13
312 1 4.30559 2.17429 -2.97627 24
313 1 0.133081 -10.3184 0.0623125 23
314 1 -2.57668 12.8582 -0.643878 20
315 1 5.48716 -0.971222 -15.6715 16
316 1 -6.03708 -2.54718 -17.1608 14
317 1 2.46408 -6.33983 -0.248362 20
318 1 -12.5572 -8.06097 10.7893 15
319 1 0.705994 9.09173 16.6018 12
320 1 -2.57209 -16.3815 -4.97188 10
321 1 -6.2809 -9.38325 -14.0075 11
322 1 -12.3425 5.90434 -13.7212 11
323 1 12.4357 6.45598 7.73469 21
324 1 -5.10293 4.04853 -10.187 21
325 1 2.23006 8.56527 -8.00615 23
326 1 -1.76854 -4.73484 5.8706 23
327 1 4.97769 -15.4698 -8.58327 9
328 1 -2.29692 17.8439 -3.77813 12
329 1 2.147 10.5194 6.16772 21
330 1 10.7799 1.44947 5.87628 23
331 1 -12.8937 -0.988086 3.74915 21
332 1 -3.3075 0.100005 14.6322 15
333 1 -7.22147 12.4126 -0.993921 20
334 1 6.09437 -5.72885 -14.1171 19
335 1 13.6673 10.2947 -2.13833 11
336 1 3.27072 -9.75176 0.306729 21
337 1 -5.45688 -2.03942 15.6232 14
338 1 -15.7714 -2.90968 4.06023 15
339 1 -2.09106 -15.416 -0.867183 21
340 1 -6.13243 3.37263 12.5975 20
341 1 -7.17957 5.97839 14.072 10
342 1 -13.0119 -4.83914 12.0185 14
343 1 -9.6824 -3.22249 8.60856 21
344 1 8.27877 -1.01569 -7.06387 20
345 1 -11.9016 -8.62801 4.90884 18
346 1 7.49516 -4.4209 -11.5614 22
347 1 13.6475 -8.05836 -0.0713825 14
348 1 5.22251 17.0113 1.47681 14
349 1 0.40291 -6.33342 7.45416 22
350 1 -5.1611 14.146 -2.82072 22
351 1 5.1941 -0.72968 8.3755 23
352 1 11.3562 8.26548 10.7691 21
353 1 -11.8602 -7.24607 1.52996 21
354 1 6.13428 -11.3314 0.977456 20
355 1 -5.31141 6.49718 3.50153 24
356 1 -7.45748 4.63888 5.1711 22
357 1 0.535891 2.0008 4.5901 24
358 1 0.542221 -6.05819 11.0362 24
359 1 10.694 -11.1354 3.32831 14
360 1 -3.04281 5.16583 8.38601 25
361 1 -6.50476 -1.38516 -8.46928 21
362 1 3.54933 -2.74231 3.20392 23
363 1 1.67794 2.46536 12.4812 24
364 1 -5.4271 14.7466 0.451529 21
365 1 7.79553 11.9017 17.537 8
366 1 -6.28313 13.8428 -7.80939 13
367 1 1.51371 -4.90869 -17.9122 11
368 1 -6.1087 2.44771 -4.02037 22
369 1 5.61259 -10.3991 -11.3564 17
370 1 -11.3939 0.976603 5.33467 22
371 1 -11.397 0.610559 1.7718 22
372 1 -4.38187 -2.41946 -6.20932 19
373 1 -6.19379 9.30162 -0.829144 21
374 1 10.3967 -4.12032 8.41259 22
375 1 -11.9325 -12.3464 4.0144 11
376 1 13.028 -3.40867 7.9685 15
377 1 -3.7193 1.65796 0.977098 23
378 1 -6.39274 -13.0683 10.7761 13
379 1 -11.7435 0.919276 -4.01244 21
380 1 2.12142 -4.16833 12.6758 22
381 1 2.12393 -11.578 -2.26925 21
382 1 -6.47354 0.647161 -14.152 23
383 1 9.58856 -2.14576 -12.3198 19
384 1 4.29286 12.3829 5.09142 20
385 1 -11.2606 0.260202 -1.22184 21
386 1 2.32076 -6.59382 -10.1149 21
387 1 6.68567 4.64723 -14.7588 16
388 1 -6.57287 -13.4096 -9.40187 13
389 1 -12.0299 -7.30698 -5.77483 16
390 1 -2.18425 -8.49028 1.64973 19
391 1 10.3029 6.4376 16.3805 10
392 1 -3.55269 -1.61697 1.17131 21
393 1 9.98346 1.00809 -1.84202 21
394 1 -9.77824 3.3783 -10.2499 18
395 1 8.05611 16.9928 -0.0869169 10
396 1 -7.898 -2.68325 -2.15059 21
397 1 2.991 0.671605 2.91521 23
398 1 -7.36796 4.4836 1.87352 24
399 1 -1.92112 14.5063 -3.72188 23
400 1 -0.966944 10.4306 7.11479 25
401 1 8.98641 6.60737 12.1062 20
402 1 9.3742 -2.6845 -8.9088 21
403 1 9.42166 -4.56901 12.2851 16
404 1 10.2174 1.02483 -5.19129 21
405 1 -4.05128 -13.636 -3.36977 21
406 1 2.93186 0.695786 6.65091 24
407 1 -4.11458 4.78425 0.873781 24
408 1 -0.287064 -9.04242 -5.79446 20
409 1 0.278 8.89698 4.28212 22
410 1 5.29092 0.356228 -5.72465 24
411 1 -5.88297 -0.557077 -0.667471 21
412 1 5.15471 -10.9233 -1.94402 22
413 1 11.8502 -5.37681 2.21083 21
414 1 -13.4797 2.85489 -5.67107 20
415 1 -4.23855 -10.7667 1.1215 20
416 1 -5.5369 -9.87657 11.8197 18
417 1 -1.94555 10.0696 -0.840527 22
418 1 -11.9696 -10.1318 -4.47648 14
419 1 5.12986 12.1759 15.5665 16
420 1 -12.6528 8.4953 -1.7029 18
421 1 0.881775 13.1019 -5.01804 20
422 1 9.60334 10.7123 5.74264 22
423 1 -13.4193 -7.4917 -2.80561 14
424 1 -3.64346 -9.20665 -5.85791 21
425 1 -11.0537 -4.0583 14.7301 16
426 1 -13.8154 5.51455 -0.446909 17
427 1 6.62121 -3.636 13.464 16
428 1 -0.968293 -12.1003 2.32245 21
429 1 11.4928 11.5378 10.221 16
430 1 4.84185 9.8467 -12.7354 18
431 1 -13.143 3.0605 -8.82648 19
432 1 -1.25856 16.2938 -9.81023 13
433 1 -10.6107 3.6866 -5.04183 20
434 1 -0.348061 -15.8688 5.46098 22
435 1 13.2151 6.64438 4.55328 17
436 1 -0.256624 10.1858 -15.5374 14
437 1 -8.70558 -0.75651 10.6255 21
438 1 -15.9628 -2.87749 0.86835 11
439 1 1.97461 0.367457 -1.42827 20
440 1 -4.60783 -0.261156 7.24707 22
441 1 -0.325087 -18.4132 7.24317 10
442 1 -1.01408 -5.68658 -10.395 19
443 1 3.60018 -9.28365 -9.71556 23
444 1 2.40438 -7.66037 9.79148 19
445 1 -16.6445 2.85774 3.88769 12
446 1 -12.3734 -1.97479 9.91431 20
447 1 -10.0314 6.218 6.70721 22
448 1 -1.76895 -5.05139 8.95951 23
449 1 -4.53282 5.6231 -12.6752 22
450 1 5.0117 -7.84776 -6.87149 22
451 1 -1.88294 -7.40173 -12.68 15
452 1 -0.582425 -5.57876 13.7576 14
453 1 4.88419 -11.0512 -7.5048 22
454 1 -7.17193 4.68628 -17.24 9
455 1 3.66524 -12.8146 0.126506 20
456 1 0.00730632 6.34598 -9.35351 21
457 1 -13.9299 10.2667 6.17442 11
458 1 -2.99292 -3.70443 14.2021 13
459 1 -9.22021 -3.21273 -9.18735 23
460 1 -4.45794 -6.23786 5.17095 18
461 1 10.4115 -0.827141 16.3472 10
462 1 8.64358 2.57783 0.750038 22
463 1 -7.0438 1.32857 5.42702 22
464 1 1.20792 -0.213324 -12.3067 21
465 1 4.26643 -9.67402 7.41056 20
466 1 0.845037 5.35451 1.12554 24
467 1 14.3349 7.35613 -4.15397 10
468 1 -6.01479 1.73465 15.0075 16
469 1 0.607957 13.4839 -1.71808 22
470 1 6.32845 -7.70139 5.23272 20
471 1 -7.01305 -12.4674 -3.04288 22
472 1 -5.99387 4.64761 16.5632 9
473 1 -3.61828 15.0974 4.75776 18
474 1 -9.71148 -12.5402 -9.20273 12
475 1 9.77921 14.2708 1.55936 14
476 1 5.99121 10.8648 10.2967 20
477 1 -11.084 1.21585 8.70694 22
478 1 -9.29735 -8.32802 -6.7372 22
479 1 -8.94831 2.50016 10.5301 22
480 1 -12.4133 -4.25429 -7.87998 14
481 1 -8.00935 11.235 1.50792 23
482 1 -3.58941 -12.434 -8.50655 18
483 1 3.85353 -2.77289 -13.9789 22
484 1 -8.68125 -13.3808 4.16539 16
485 1 -6.73868 -2.12034 5.34837 25
486 1 10.6568 4.65202 5.76298 24
487 1 -3.42048 -14.392 11.6101 11
488 1 -10.1473 11.341 -12.2731 11
489 1 9.37496 7.74605 -2.41149 24
490 1 -5.94265 -16.0812 -4.62391 13
491 1 -0.377281 1.49883 -6.35963 22
492 1 0.684547 16.5232 -2.29514 14
493 1 -0.914873 8.05352 -6.84675 25
494 1 -5.85228 9.54621 6.75088 22
495 1 -15.5412 0.0910156 -4.15774 12
496 1 5.22677 16.9841 -1.74954 14
497 1 -1.44457 11.3705 -3.61991 22
498 1 -6.30618 -10.6105 -7.35282 19
499 1 5.16989 5.80057 16.2084 13
500 1 -1.50299 -11.0191 -8.14137 19
501 1 -1.30203 -2.36144 -10.9346 24
502 1 8.61447 -14.151 -0.864514 12
503 1 -12.4409 7.39016 4.75351 20
504 1 4.23278 8.12008 14.4332 19
505 1 9.24056 11.0885 -6.01483 19
506 1 3.8024 8.68827 0.337706 21
507 1 -8.26656 13.1626 -10.7272 9
508 1 2.72257 2.02791 -7.31599 22
509 1 1.43784 -8.05725 2.53055 22
510 1 -13.9623 -4.51744 -1.4998 17
511 1 3.95513 2.223 0.365482 23
512 1 1.56952 13.7615 6.49894 21
513 1 -10.3372 7.15137 -10.788 22
514 1 9.63045 4.34717 -5.36766 22
515 1 6.85945 14.1307 -8.92781 16
516 1 7.22636 -8.98481 -1.52483 19
517 1 12.2989 -0.757444 -3.13037 21
518 1 -0.929338 -2.13551 -14.299 21
519 1 1.2795 -8.3994 -2.46828 19
520 1 -5.76332 -5.59986 2.17988 21
521 1 4.00123 -13.3164 7.89878 19
522 1 -6.6169 5.7277 -4.24752 25
523 1 -3.37508 -10.7077 4.14565 20
524 1 2.91853 3.85075 3.0378 23
525 1 -2.06481 -10.5065 -11.326 16
526 1 6.60169 14.0527 6.48927 20
527 1 2.55142 4.9154 -7.26831 20
528 1 4.65831 -2.14389 14.1015 16
529 1 -10.2046 -3.20571 11.6061 22
530 1 -1.59898 -18.7661 0.371005 13
531 1 -10.4705 -6.26677 -0.922762 22
532 1 12.9927 -5.59132 -5.5413 18
533 1 9.84793 -6.37405 -3.64333 21
534 1 1.64858 3.37687 -4.74314 23
535 1 -6.89001 6.0965 -0.911376 21
536 1 7.7359 -11.3025 -6.66307 22
537 1 5.06501 3.51278 -8.98877 22
538 1 8.58088 -6.45855 -9.3546 22
539 1 -8.16405 -4.04503 16.4927 13
540 1 4.90154 13.9356 2.49313 19
541 1 0.0627279 -1.71769 -17.8105 10
542 1 1.31246 -4.58622 4.95875 22
543 1 3.29749 2.3317 -15.9255 17
544 1 -2.32372 -6.85324 11.4941 18
545 1 -4.16967 8.18985 1.0001 23
546 1 -12.942 0.68904 -11.7528 13
547 1 -15.3107 0.103761 2.2206 18
548 1 -0.254718 -5.3477 -15.2407 18
549 1 -0.341578 -15.2337 10.0368 14
550 1 -3.11208 6.49159 -5.2175 23
551 1 14.7825 5.12511 9.75484 12
552 1 11.9616 2.81784 -3.17011 19
553 1 -9.82009 -11.3511 -2.41649 18
554 1 -2.68323 -8.89659 -1.28513 20
555 1 -1.49516 1.00575 -13.8708 18
556 1 -8.27254 10.7863 7.69515 15
557 1 -2.18979 -3.87753 -8.20581 23
558 1 3.82082 5.29278 0.141721 24
559 1 11.2061 -5.7859 -0.556448 21
560 1 3.86797 16.5827 -6.11141 13
561 1 5.01746 -4.31296 0.685387 20
562 1 2.23886 -3.0047 -1.16648 21
563 1 13.9324 4.7014 -8.82694 13
564 1 5.66483 9.70907 13.0522 23
565 1 -11.7434 -1.54637 7.09134 20
566 1 -5.26051 -3.76972 -0.49522 22
567 1 2.6109 10.7392 11.256 20
568 1 9.67716 -0.422406 11.6756 21
569 1 -1.68557 0.759165 -10.9668 23
570 1 -9.85984 -4.9389 -6.6843 19
571 1 4.58257 -2.25089 10.7728 23
572 1 6.34915 14.2401 9.57045 14
573 1 4.61149 6.96105 -5.9478 23
574 1 -8.06939 8.89338 -8.65937 20
575 1 1.33741 9.87391 -1.8599 23
576 1 11.73 1.39196 14.102 14
577 1 9.94777 2.60323 -15.1522 13
578 1 13.5584 -6.94866 -2.76927 19
579 1 11.2441 11.4396 13.278 13
580 1 -14.4748 -7.55069 0.0805837 13
581 1 -3.4121 13.7754 -11.4954 16
582 1 1.84904 2.47941 9.30103 24
583 1 -13.1171 -2.07235 13.3753 11
584 1 -3.80965 15.7742 -9.44478 11
585 1 -0.722936 -14.0821 -6.65748 13
586 1 5.95684 -3.03476 -9.24499 22
587 1 0.728377 17.1351 -5.28026 12
588 1 -7.1181 -1.04141 -11.4879 22
589 1 6.74335 -10.8791 8.6642 18
590 1 -13.6574 -4.77433 -4.86516 11
591 1 2.5942 9.91915 -14.1668 18
592 1 -6.40486 2.67875 -0.834685 21
593 1 -1.7609 9.36332 14.2624 13
594 1 -13.0806 -4.72219 1.15148 17
595 1 6.32728 6.97799 -1.16516 22
596 1 1.58769 -11.5274 -8.24183 19
597 1 6.63957 -0.352445 12.5467 24
598 1 7.60335 2.51916 -3.88421 24
599 1 1.23372 -1.40906 1.37605 23
600 1 -9.76319 7.11275 -2.96665 19
601 1 8.79062 4.78654 14.3014 20
602 1 6.67957 16.8262 -8.37703 8
603 1 10.7064 -9.01849 -1.42498 22
604 1 4.52734 9.2912 7.98442 23
605 1 1.63628 4.78257 -17.8735 12
606 1 -2.17749 -14.0619 7.63452 22
607 1 -4.82894 0.511622 -10.1343 22
608 1 8.44293 -0.211357 -15.0376 13
609 1 2.02961 13.5954 2.58001 20
610 1 7.31005 5.27927 -7.41548 23
611 1 -6.11559 -2.72384 -13.8489 20
612 1 -4.42522 -10.8722 -3.50383 20
613 1 -9.63589 0.435698 -13.1796 19
614 1 11.0832 1.08153 2.58082 22
615 1 14.5644 4.57301 -1.74652 12
616 1 8.42164 -7.83101 -6.64052 20
617 1 11.5269 8.34036 13.77 16
618 1 6.71336 -9.16535 -9.20698 23
619 1 4.37348 3.31865 -13.7677 21
620 1 7.35018 12.0108 3.93495 20
621 1 -10.3612 5.68323 -0.0227913 23
622 1 8.25158 11.6882 14.2188 17
623 1 9.55175 4.45707 -2.1252 24
624 1 12.9292 -3.02641 -0.772804 21
625 1 11.8878 6.7419 -10.6228 13
626 1 4.21942 4.05432 14.2224 20
627 1 13.7495 6.84076 11.7577 17
628 1 -0.633649 -8.85456 12.8341 17
629 1 11.4043 12.3056 -3.32449 11
630 1 6.22095 0.428281 2.34281 23
631 1 1.31274 5.65059 12.172 25
632 1 8.15912 -3.78407 -3.95968 22
633 1 7.25849 4.40548 6.73736 23
634 1 -10.5018 -1.1999 -6.82854 19
635 1 13.8877 4.94551 1.53496 16
636 1 11.562 -5.50822 5.5614 18
637 1 -2.06679 -7.28865 -4.09194 21
638 1 -8.42274 5.66138 11.2486 14
639 1 8.70864 12.6926 11.1781 16
640 1 9.34777 6.44967 8.56568 23
641 1 0.540678 12.4664 9.47889 19
642 1 -2.25337 16.7462 10.1861 9
643 1 8.54831 2.94112 4.08895 21
644 1 0.974026 -17.6648 2.57006 16
645 1 -6.10148 10.7253 -10.393 21
646 1 9.75801 9.25647 -11.2682 14
647 1 11.702 -1.25767 -10.4237 16
648 1 4.28983 13.5393 -6.18879 23
649 1 -2.35383 -11.6691 -5.35219 21
650 1 10.6302 -7.95284 -11.2979 13
651 1 -15.1906 3.00808 6.86222 14
652 1 -11.1235 8.27842 -8.57055 20
653 1 -1.60449 -18.5266 4.37858 13
654 1 -7.54785 2.06578 -11.4787 20
655 1 -10.3238 -1.67497 -4.02146 21
656 1 9.22393 -11.4246 6.43243 18
657 1 12.7503 9.52573 4.37881 19
658 1 4.2019 -9.4561 3.39488 21
659 1 -13.2641 3.46284 -11.6942 12
660 1 0.907326 2.05323 1.07773 24
661 1 0.887992 2.79023 -12.5657 21
662 1 0.439632 -2.96301 7.62912 24
663 1 -0.703875 0.928558 13.9525 19
664 1 3.08409 6.64434 -13.2533 20
665 1 13.4993 3.23185 12.4046 16
666 1 7.03639 8.43535 -7.49068 22
667 1 4.46573 -0.987187 0.306101 23
668 1 10.3835 11.16 3.02268 21
669 1 3.154 -14.1393 -6.97006 17
670 1 -11.0625 -0.599597 14.7357 14
671 1 12.1146 -8.58121 2.61701 13
672 1 -2.82648 13.7121 10.6999 11
673 1 4.25264 12.9418 -12.9 11
674 1 -9.06223 10.1351 -6.04514 20
675 1 10.7714 9.62566 0.15554 20
676 1 -8.87636 -13.9143 -0.480804 15
677 1 14.1919 -1.92037 1.60933 12
678 1 7.55546 15.5337 2.92277 15
679 1 1.88864 6.71649 15.5474 16
680 1 -8.05151 -4.33953 3.43022 22
681 1 -9.10678 -3.1864 -13.0224 15
682 1 9.56871 3.16335 8.67403 19
683 1 -0.634191 -8.92113 9.57462 19
684 1 6.12002 6.228 12.5416 23
685 1 -4.27754 7.75151 -2.25584 22
686 1 11.5967 6.22941 -4.28228 20
687 1 4.66964 -1.03937 -2.72274 21
688 1 5.25263 2.35113 4.92558 22
689 1 3.37094 -1.58296 -10.8206 23
690 1 -6.47687 -2.30813 8.98246 18
691 1 8.29082 0.373177 -10.2778 20
692 1 -7.23089 -6.15646 -5.59256 21
693 1 11.2354 -11.6649 -5.43061 14
694 1 7.32308 7.8525 6.49183 25
695 1 5.03424 5.81003 4.91582 22
696 1 -8.85977 -8.45211 11.9467 19
697 1 8.88164 9.73826 8.78969 22
698 1 6.47038 2.50963 15.8095 14
699 1 -2.76446 4.9547 11.693 22
700 1 -2.93848 -4.41534 -12.8025 20
701 1 -9.00681 1.09517 12.9507 20
702 1 -4.08065 4.60787 -2.38977 23
703 1 7.22181 1.28231 9.7724 22
704 1 -5.19931 -14.99 8.69946 16
705 1 13.8584 7.56293 0.421708 14
706 1 8.06619 -11.7808 -2.19681 18
707 1 -5.41412 7.5458 -10.4068 24
708 1 5.77009 10.3901 -1.65429 24
709 1 9.66122 13.997 4.85937 15
710 1 5.06345 -3.97899 -16.8714 12
711 1 2.13962 -0.874009 9.3561 23
712 1 1.36785 10.0103 -4.86842 22
713 1 10.8509 7.78525 2.36521 23
714 1 -2.8945 -5.61477 -1.8521 21
715 1 -6.84214 -9.93853 -1.13805 22
716 1 0.507316 1.60089 -16.6481 15
717 1 -9.01961 9.90554 -2.97466 20
718 1 5.195 -6.4355 -9.64617 24
719 1 6.25208 4.09089 2.19934 24
720 1 9.58726 5.91694 -13.2416 13
721 1 6.97333 12.1447 -4.21349 23
722 1 -2.66539 5.10584 5.1038 25
723 1 -7.82056 7.84993 1.70398 22
724 1 6.90035 9.06346 -4.01249 21
725 1 11.6606 4.95346 13.7691 17
726 1 9.03112 1.23494 14.1028 23
727 1 -3.01598 -11.3211 13.294 11
728 1 -5.65609 12.6985 -13.259 11
729 1 1.12194 15.8146 8.85218 17
730 1 7.47611 -7.64288 -12.1052 17
731 1 5.14131 2.6959 8.19079 23
732 1 5.54098 15.1108 -11.587 11
733 1 8.10184 9.33827 0.0137088 22
734 1 -4.58218 -0.221888 3.8853 26
735 1 15.107 -3.99747 -2.79646 14
736 1 5.14314 9.57993 16.8008 17
737 1 -15.131 -5.64613 5.73129 12
738 1 6.1909 -11.2175 5.62716 22
739 1 -2.50814 2.6413 -8.35805 24
740 1 -4.98349 16.4393 -4.54598 12
741 1 -0.436287 3.82692 7.0801 25
742 1 4.6548 -4.53961 -2.3342 19
743 1 5.31474 11.2043 1.66097 20
744 1 -9.57817 -3.44481 5.49235 21
745 1 -1.04187 7.35473 10.4527 22
746 1 -3.83694 5.83678 -16.5279 17
747 1 -7.89268 10.1293 -14.8773 11
748 1 1.7607 -11.6761 2.47084 20
749 1 2.47279 8.18237 -11.0151 24
750 1 3.84286 -5.94285 3.29583 22
751 1 0.473931 5.5571 4.54466 23
752 1 -11.034 3.45077 12.3469 12
753 1 4.14603 0.350429 -13.787 22
754 1 9.80335 -10.9145 9.44734 11
755 1 0.0710212 11.8456 0.7243 25
756 1 -3.25032 1.87126 11.9235 22
757 1 -6.19112 -2.27828 2.27316 24
758 1 -5.63695 -6.07463 -14.0073 12
759 1 -4.32694 -8.46167 -16.2412 9
760 1 -7.70284 -11.247 -11.7298 10
761 1 1.50599 15.0797 -7.91226 20
762 1 0.687158 -5.37797 -6.28392 21
763 1 -1.34872 -2.99758 3.01662 21
764 1 -10.3071 9.32447 3.29296 20
765 1 4.60297 -12.454 -4.72302 21
766 1 3.97787 -17.2933 0.854564 10
767 1 10.571 -7.76858 11.417 12
768 1 15.6323 2.45776 -7.86966 10
769 1 -0.446678 -13.8473 -3.32144 18
770 1 -12.2935 -10.4809 8.85501 10
771 1 0.204275 -1.90591 -6.42142 23
772 1 -3.57468 -14.0539 1.54159 19
773 1 -7.98341 -14.528 -6.99394 13
774 1 -0.0232689 -1.88755 -3.34052 23
775 1 -7.44727 -4.96012 9.94785 20
776 1 -6.67991 -15.2636 1.72143 16
777 1 14.1397 4.55801 -5.12157 17
778 1 -3.19025 16.4747 2.05593 15
779 1 -5.07684 3.07075 6.84951 22
780 1 -15.463 8.55813 3.19661 11
781 1 11.4892 -2.37785 2.59868 20
782 1 -12.1201 2.55249 -14.7588 9
783 1 1.94288 11.5634 -7.49827 20
784 1 12.644 2.76546 -7.03424 21
785 1 5.47623 12.663 12.4239 17
786 1 1.13312 -1.25918 4.70287 25
787 1 6.98736 5.78141 -4.04992 21
788 1 -12.8476 0.443928 -8.63472 18
789 1 -8.61102 -6.41746 -9.72208 21
790 1 3.08551 8.09217 18.7625 8
791 1 2.42784 4.96205 -10.8436 20
792 1 12.1496 12.2501 5.84847 12
793 1 -2.85773 -1.36274 12.1155 19
794 1 -4.54883 -17.1306 0.187702 13
795 1 -2.92686 -16.9031 9.62445 12
796 1 -2.36101 -10.7032 7.50988 22
797 1 14.0636 10.3002 11.8614 11
798 1 2.98433 -9.72405 -5.10689 20
799 1 -6.58638 9.09389 -4.30522 22
800 1 8.12589 9.13318 3.29669 21
801 1 -7.24359 -4.85188 6.91895 24
802 1 8.57217 6.68722 -10.095 21
803 1 -5.42796 -13.3862 -6.11379 17
804 1 0.850169 -16.9497 -0.210026 17
805 1 1.65006 -14.8509 2.3739 21
806 1 5.81874 5.14182 -11.8011 22
807 1 8.61724 13.9131 -1.81718 18
808 1 -4.03075 2.5162 -15.8328 18
809 1 -0.405134 0.712446 10.7219 24
810 1 0.176742 6.09702 -12.7668 20
811 1 -11.4694 -1.84865 -11.786 13
812 1 -7.45601 -2.78522 -5.69893 23
813 1 6.56022 15.2875 -4.51579 19
814 1 9.52343 -7.17565 4.49901 19
815 1 -1.90276 -6.06781 -17.8675 10
816 1 -5.14879 -7.51731 0.203618 20
817 1 9.1407 7.73248 -5.36372 22
818 1 9.67465 -7.3601 1.51551 19
819 1 -6.03542 -0.166484 12.8016 19
820 1 4.47236 -7.84015 -2.26035 20
821 1 14.4298 -5.30537 0.130804 12
822 1 11.8979 -2.95268 13.8323 11
823 1 3.75217 7.59306 11.0105 22
824 1 -11.659 0.655994 11.54 18
825 1 -7.14674 1.27498 8.88264 18
826 1 -0.3223 -12.7439 5.42944 24
827 1 8.66071 -0.885225 4.18078 23
828 1 8.80405 9.84389 11.9725 21
829 1 -10.8253 -3.16672 -0.789429 24
830 1 6.24664 -9.4067 -4.9307 22
831 1 1.32749 3.47315 -1.75967 24
832 1 -11.503 11.4229 -6.24309 12
833 1 2.79218 7.38257 2.75913 23
834 1 3.43621 -10.6787 10.2366 15
835 1 1.95824 -0.742078 12.8114 19
836 1 -0.173366 11.8125 4.4049 22
837 1 2.87918 -11.5106 5.82749 21
838 1 -6.72717 1.1576 2.04308 23
839 1 4.24007 1.09006 11.2023 23
840 1 -13.0185 -1.93446 -3.03042 20
841 1 0.218032 11.7807 13.3881 15
842 1 5.40066 13.7967 -1.70895 21
843 1 -8.13321 -11.1311 1.57982 20
844 1 0.513022 -12.6329 8.23459 22
845 1 8.23743 -5.84845 10.284 23
846 1 11.5019 -9.14527 6.22948 13
847 1 6.33458 11.0852 6.90798 20
848 1 -0.88451 4.91271 -3.11017 22
849 1 1.69461 -8.13135 -7.5732 21
850 1 -3.12171 6.1452 -8.60533 23
851 1 -8.36483 -0.454464 16.095 15
852 1 -2.53777 13.3438 2.32698 24
853 1 15.2752 0.952927 6.11291 12
854 1 -0.643225 12.9097 -9.49136 21
855 1 -3.8781 6.5249 13.9844 16
856 1 6.71565 7.67917 9.81924 22
857 1 6.66779 -1.3826 -12.2858 26
858 1 -5.6563 -13.0116 -0.243574 19
859 1 -5.44592 -0.590947 -3.98527 23
860 1 13.8428 1.49131 2.01205 13
861 1 1.34473 -3.65742 -9.40012 22
862 1 -3.31234 8.66923 8.43647 25
863 1 9.91462 -13.0398 -8.06472 12
864 1 4.48352 5.20486 -16.4736 16
865 1 -7.01362 -9.93749 -4.62481 19
866 1 11.4913 4.01357 -12.6318 12
867 1 12.0079 -0.139726 0.178401 19
868 1 -0.166183 -2.70336 10.7328 24
869 1 0.823178 -6.90803 -12.9862 19
870 1 -1.15531 0.0228435 -0.50843 25
871 1 7.78025 12.0418 0.997123 22
872 1 1.96179 -8.04113 5.21989 19