ITEM: TIMESTEP
1065000
ITEM: NUMBER OF ATOMS
2000
ITEM: BOX BOUNDS pp pp pp
-30.0 30.0
-30.0 30.0
-30.0 30.0
ITEM: ATOMS id type x y z Coordination
1 1 -8.3852 1.93051 -16.9183 12
2 1 -3.70096 -8.83994 -9.6823 24
3 1 -0.218403 14.454 11.6252 11
4 1 4.96599 -8.83101 11.7109 17
5 1 -12.8194 10.4911 1.52403 12
6 1 9.39709 -8.63096 -10.3019 14
7 1 -8.46769 4.06961 -6.1777 25
8 1 -0.31689 -12.3262 11.8044 12
9 1 -7.62367 5.89294 -12.1313 23
10 1 -15.7546 -8.67233 3.17351 10
11 1 12.9177 0.864863 -9.71599 11
12 1 -3.04977 2.58576 -5.34666 22
13 1 -2.88542 -15.3118 2.21034 21
14 1 -10.6882 -9.23401 2.31557 20
15 1 2.03209 1.83308 15.5128 12
16 1 8.12737 -2.42726 6.47746 22
17 1 2.05177 5.35918 8.76895 25
18 1 6.85022 -2.18155 2.34585 23
19 1 -0.228503 9.69978 -9.10832 23
20 1 4.63717 0.253152 13.929 21
21 1 -3.9278 2.91306 -15.9532 19
22 1 -5.1069 -4.99907 16.4736 13
23 1 11.7925 4.52321 10.3146 21
24 1 -0.222382 9.74768 -12.3264 21
25 1 8.34022 3.64441 -13.4528 17
26 1 14.551 0.0964985 12.8303 11
27 1 -9.78094 2.89006 6.47655 20
28 1 -13.4262 6.53229 -6.5331 15
29 1 -2.45289 -0.412862 -8.3503 23
30 1 -10.4796 8.97973 6.37902 16
31 1 7.99031 -12.5487 2.30596 22
32 1 1.73311 -7.97861 13.1555 12
33 1 -1.15436 -12.5198 -12.8696 10
34 1 7.29331 -13.7127 5.87686 18
35 1 -9.18334 -14.1629 -3.79512 13
36 1 -7.42037 -4.17134 14.4008 19
37 1 2.57499 -3.33777 -4.73802 24
38 1 6.4808 -4.58698 -11.3477 22
39 1 7.8065 -11.3414 -11.1709 12
40 1 1.13812 11.9588 -13.775 15
41 1 -6.00526 1.19553 16.1738 12
42 1 5.81054 -11.7033 11.643 14
43 1 7.95101 -7.25821 13.4623 11
44 1 -8.95354 -0.920161 0.0238203 23
45 1 -12.8508 -0.878931 7.64347 20
46 1 -9.59819 2.52151 3.18106 22
47 1 3.09795 15.2711 -0.0459493 20
48 1 -0.675263 -12.1822 -10.2688 20
49 1 0.410362 2.92741 -9.15813 21
50 1 3.56235 -5.27838 -7.40157 22
51 1 0.989004 -9.5398 10.471 22
52 1 -11.6861 3.89146 -1.90035 25
53 1 -1.19398 11.6103 -6.55069 22
54 1 -0.984503 13.0199 6.82816 22
55 1 -8.21139 8.97298 -11.718 19
56 1 -4.23621 10.736 -2.51743 23
57 1 7.83913 -16.0138 3.34587 9
58 1 5.94888 -6.53087 -5.69986 25
59 1 4.62464 -6.90642 -13.2291 19
60 1 -7.88028 7.97436 7.92031 22
61 1 -11.7432 -1.48924 -11.6766 15
62 1 11.3854 -1.9272 5.48781 22
63 1 -5.71006 7.35678 -6.78025 20
64 1 -8.32532 -7.52015 0.612589 24
65 1 -3.0407 11.3221 8.49974 21
66 1 -10.6598 5.17094 -7.85515 22
67 1 -5.36409 10.1329 10.0087 18
68 1 1.54833 6.67023 -4.92568 25
69 1 3.29697 3.69249 6.2135 24
70 1 3.96144 -14.1553 9.58318 13
71 1 5.18965 5.62856 7.85844 25
72 1 -4.54888 -17.337 -3.00425 14
73 1 2.66125 13.8491 13.7357 12
74 1 -9.74411 0.428349 -10.0843 23
75 1 -12.7417 5.40899 -12.443 11
76 1 4.29656 3.96242 10.848 24
77 1 13.4312 -5.57391 -5.43843 13
78 1 12.5781 -8.45746 2.86925 14
79 1 -13.6779 -1.51517 -0.274391 22
80 1 -9.76249 -5.73955 9.57947 21
81 1 4.24362 15.5646 4.48164 18
82 1 8.07348 -2.42893 9.83659 23
83 1 -3.62235 -9.90405 7.41202 24
84 1 -9.36712 -0.817769 2.96756 23
85 1 13.2252 2.91303 8.06918 21
86 1 5.68151 -3.08151 -5.62667 24
87 1 -3.20962 11.1749 5.29106 21
88 1 11.3371 -6.63881 8.52821 17
89 1 -7.62444 -6.0268 -2.51161 23
90 1 -4.18576 -5.77179 -6.61026 23
91 1 -13.3201 3.60425 9.85096 15
92 1 -9.8325 13.9606 -5.16092 14
93 1 -5.03334 9.46041 -12.969 19
94 1 2.1879 0.163723 -4.7294 25
95 1 3.2831 -1.65496 -7.48667 25
96 1 11.517 14.4695 -6.04736 7
97 1 7.62153 -9.30749 2.45797 21
98 1 2.7402 -4.4287 9.01292 25
99 1 -5.5661 17.684 -1.36912 11
100 1 -8.37383 14.2224 1.46807 17
101 1 2.32845 -1.50632 15.4991 12
102 1 -10.1819 13.894 -1.51251 13
103 1 -4.62062 -8.41097 13.0162 19
104 1 10.7112 -8.78701 -4.73518 21
105 1 -14.5049 2.1774 3.09988 21
106 1 -13.4875 -10.703 4.23497 14
107 1 10.5106 -5.79021 -4.89585 24
108 1 0.697443 -0.481788 -9.18992 23
109 1 -3.53745 1.16728 -18.2953 10
110 1 5.80481 -0.892182 4.89558 23
111 1 -2.14236 9.36736 2.3808 23
112 1 -2.07445 7.87963 -14.4431 21
113 1 4.23325 9.9694 18.0662 10
114 1 3.0866 15.3541 -3.07546 19
115 1 -10.1805 11.5782 0.55248 16
116 1 0.378188 8.14604 0.928421 24
117 1 -0.454351 1.40578 -3.28984 24
118 1 -8.45908 -7.35643 3.45307 21
119 1 15.403 1.45568 9.98076 14
120 1 -1.95819 -3.71858 -4.88111 25
121 1 2.90931 -6.53979 -4.48112 24
122 1 -2.47707 1.68102 8.86844 24
123 1 6.85261 -1.18902 15.725 11
124 1 -6.78909 -4.3186 -8.16722 24
125 1 7.23247 -5.79979 2.16413 23
126 1 -10.1282 -7.68153 -3.91589 22
127 1 9.55265 -10.9639 5.5178 19
128 1 -4.80084 3.13218 3.63448 24
129 1 3.78932 3.11852 -16.7976 12
130 1 5.88407 16.6004 -1.73094 14
131 1 -8.70383 -10.7746 7.16725 17
132 1 -8.11011 -13.8528 6.56065 12
133 1 -1.65269 6.253 2.70317 22
134 1 -2.71015 -2.073 -17.8794 13
135 1 4.58441 6.87325 -9.2036 23
136 1 10.0398 -13.7283 4.45592 13
137 1 8.91743 -12.0667 10.695 10
138 1 -9.79052 -4.63151 -4.43988 22
139 1 14.8899 8.18682 9.31104 16
140 1 14.5079 1.63049 -1.49049 13
141 1 -16.1819 -6.34394 0.366651 11
142 1 8.55633 5.91379 4.24737 24
143 1 15.2319 8.42608 2.94011 12
144 1 -3.08344 9.93622 13.9293 13
145 1 6.4999 0.600379 -1.13213 26
146 1 -5.07407 9.69991 3.5039 23
147 1 -2.55869 18.1451 -6.64563 11
148 1 -4.12099 -5.44622 -9.87406 23
149 1 11.3447 -11.8076 -5.2266 14
150 1 0.375251 17.0682 -11.3105 9
151 1 4.71582 -6.68892 14.0382 12
152 1 1.79544 -2.03508 -15.3584 20
153 1 -7.8236 15.7424 -3.08048 14
154 1 7.59275 -0.920043 -3.92496 23
155 1 -13.4753 10.1822 -6.21215 10
156 1 -0.860387 -3.36354 -0.63363 26
157 1 -6.27901 16.2609 2.03651 11
158 1 8.01496 4.0582 -9.98173 22
159 1 8.70854 -8.53549 7.29743 20
160 1 -5.83537 10.7829 -6.76858 23
161 1 -7.80933 11.0092 4.75098 20
162 1 10.2466 5.72525 -8.26159 20
163 1 -1.31752 2.90396 -0.581911 23
164 1 3.65947 8.55201 -3.23165 24
165 1 -0.0221616 14.8561 0.684307 20
166 1 9.01307 10.843 -2.4443 23
167 1 -0.899165 8.01002 -3.35774 22
168 1 3.48566 16.5442 -9.33185 13
169 1 4.93512 8.13031 -15.2733 11
170 1 -11.1611 -12.2906 0.108236 17
171 1 -14.3637 4.83223 -0.33571 15
172 1 -4.02765 -0.718514 -12.3811 21
173 1 1.83795 -14.2445 -11.8936 8
174 1 9.07925 12.8055 8.33171 17
175 1 -1.65713 15.9541 6.30812 14
176 1 -13.2627 0.136468 -6.31687 21
177 1 -12.3278 7.21363 1.3674 19
178 1 15.0535 -1.84057 -1.2298 15
179 1 -4.10336 -0.368495 -15.4175 19
180 1 9.82789 2.79226 16.5061 11
181 1 1.63135 17.1947 5.97806 11
182 1 1.43045 8.46299 8.90658 24
183 1 2.39139 -9.06146 -15.0224 11
184 1 -0.299369 14.7011 3.97987 22
185 1 -3.5654 9.4284 -5.25605 23
186 1 4.91834 -5.95169 10.597 20
187 1 -10.7476 -5.99686 5.11362 24
188 1 -2.83631 -7.07235 -15.6384 17
189 1 -10.6024 10.6124 -9.84206 13
190 1 -1.57713 -8.09057 5.58789 25
191 1 1.11351 -15.0059 -5.70746 17
192 1 -3.45845 14.2188 -11.0593 15
193 1 -12.6284 2.28989 7.37144 22
194 1 1.44451 6.76411 -1.7841 23
195 1 11.3533 9.29421 -4.25759 22
196 1 -11.4154 0.823584 13.8652 13
197 1 2.65525 -11.0257 12.338 13
198 1 -10.3393 1.93444 -7.58792 22
199 1 1.84846 16.7471 2.64667 15
200 1 -0.431235 3.44215 10.2478 24
201 1 15.2935 4.90378 6.39401 13
202 1 -4.26058 10.9407 0.800515 22
203 1 15.057 -8.7032 -0.581833 9
204 1 -7.76754 11.6193 8.15905 13
205 1 -5.43119 4.15582 -7.09233 23
206 1 10.2553 -12.1443 -0.544989 14
207 1 -5.89681 -8.94254 5.52462 23
208 1 -14.7636 0.221925 5.52042 19
209 1 -5.56995 -12.4387 2.2338 24
210 1 6.48157 2.29952 12.4356 25
211 1 -16.0141 -2.99092 -4.68824 12
212 1 -1.42473 -0.181253 2.67345 24
213 1 -3.55722 -13.2562 7.54763 15
214 1 0.099632 0.144838 7.34122 25
215 1 -8.45781 0.755889 -2.63948 22
216 1 -0.379812 -7.07999 -0.542533 22
217 1 -2.82498 7.90678 5.2625 27
218 1 -9.64167 -0.920397 6.39567 23
219 1 2.8947 13.8638 10.5652 17
220 1 -5.17669 1.08505 -6.9103 22
221 1 -8.7388 12.5216 -11.9522 11
222 1 -11.3711 -4.5802 -11.6348 15
223 1 -3.09755 -10.7614 13.64 9
224 1 -0.728856 -9.94709 2.89666 21
225 1 7.89284 -8.82432 10.8127 17
226 1 -9.97006 12.8134 3.58157 13
227 1 14.0998 0.282201 4.09746 18
228 1 5.21974 3.69249 -5.55453 21
229 1 -7.2168 -4.07964 -11.4515 22
230 1 3.53029 -2.79552 6.41933 26
231 1 -4.36897 -6.59628 7.13201 20
232 1 5.90169 -7.99411 8.16936 20
233 1 -3.21916 9.58008 -8.42485 22
234 1 1.84711 -11.0264 -12.2482 20
235 1 8.3943 0.378552 -12.8442 17
236 1 0.997507 8.44034 -15.157 16
237 1 -2.7909 -0.316368 -5.10361 22
238 1 -1.57457 14.741 -6.54379 21
239 1 -9.28059 -8.98029 9.93589 14
240 1 11.3404 12.4937 -3.77135 14
241 1 -7.17521 -7.45231 14.8819 9
242 1 -7.26606 12.1621 -3.95918 21
243 1 8.0705 0.660177 6.40969 22
244 1 -4.68387 -2.59019 -10.0535 22
245 1 -3.9136 12.7713 -8.49805 24
246 1 -1.82792 4.54153 -11.1752 26
247 1 -8.6966 -7.46238 7.01685 22
248 1 -1.5458 3.30695 2.70838 20
249 1 -7.34819 4.70294 8.47469 23
250 1 -5.20643 6.38844 6.92498 24
251 1 0.866833 -11.9574 -6.04691 20
252 1 -9.94837 -16.1537 -0.889208 6
253 1 6.62778 -12.9358 -5.17085 22
254 1 -2.15796 1.53983 5.61939 26
255 1 -2.03554 -1.46637 5.37056 24
256 1 -1.81688 -6.88233 -8.18259 24
257 1 9.4431 9.57037 16.0822 13
258 1 4.31015 10.0962 -9.22852 23
259 1 3.52845 12.0596 0.0287966 22
260 1 -12.1119 3.97497 4.70756 21
261 1 -12.1303 12.0144 -3.91706 11
262 1 1.56572 8.51532 12.5594 25
263 1 4.3165 -16.2973 3.29596 16
264 1 9.21001 -4.03949 0.884796 20
265 1 2.82327 7.17265 6.09199 25
266 1 -9.68001 5.86878 3.07352 22
267 1 -15.1765 -1.92091 -7.86963 13
268 1 10.5027 2.3446 -7.87535 21
269 1 3.75962 -5.9527 6.2578 22
270 1 7.35422 10.2156 -10.2038 13
271 1 -1.59486 -10.4409 -4.55857 22
272 1 -3.39405 4.31669 -18.9501 11
273 1 9.97331 -12.9939 8.03881 13
274 1 10.8075 -1.15295 -8.09123 20
275 1 -15.2465 -2.77545 4.86408 14
276 1 -1.32842 -13.9388 -4.34894 18
277 1 -8.06336 -1.28393 -16.3779 10
278 1 3.58665 11.9751 -3.11394 25
279 1 1.10289 -3.85918 -12.5544 22
280 1 -5.49985 6.50072 9.85757 23
281 1 14.0178 -3.25286 4.2631 14
282 1 -8.32931 -4.29918 0.148447 25
283 1 11.3257 -7.56676 -7.37273 14
284 1 0.627906 -9.47331 7.38945 24
285 1 -6.77948 4.07159 -14.6645 20
286 1 -13.6007 6.91717 -9.37962 10
287 1 -5.69672 -11.8279 5.71844 21
288 1 10.5603 -0.625679 8.53812 20
289 1 8.77292 -5.51042 6.71604 21
290 1 -6.4165 -6.92747 -11.1569 20
291 1 6.85566 -14.034 9.07057 15
292 1 -2.40419 7.78673 -11.1857 23
293 1 6.10438 7.3005 1.90644 24
294 1 -10.9086 -6.16037 1.8902 23
295 1 2.80841 10.1903 3.06635 21
296 1 -6.70658 -5.35131 8.423 24
297 1 -11.5398 -6.94653 -9.78289 11
298 1 -6.34611 -7.64167 -8.23948 21
299 1 -5.21658 12.9914 -12.9121 15
300 1 -5.27099 -7.2811 -3.87492 23
301 1 -5.50803 -8.95157 1.95727 24
302 1 -3.13348 -5.30667 0.900216 22
303 1 8.51683 -2.83329 -13.1222 14
304 1 8.54639 -6.63337 -13.3247 11
305 1 6.12455 -4.24397 4.96878 24
306 1 10.8444 4.48489 2.535 21
307 1 -5.52702 -4.00226 -4.14082 23
308 1 -14.1805 -5.82256 5.77998 15
309 1 -7.09471 -15.649 -1.36009 16
310 1 7.58484 7.79052 14.3652 21
311 1 2.31943 -17.6135 5.73329 13
312 1 4.26892 1.75647 -3.1198 23
313 1 -0.345411 -10.2219 -0.505937 23
314 1 -2.32682 12.995 -0.726362 21
315 1 4.25322 -0.416008 -16.3641 13
316 1 -8.14734 -4.44965 -15.8736 12
317 1 2.68643 -6.58793 -1.48255 23
318 1 -11.5853 -7.08351 7.76559 15
319 1 -0.163992 8.96393 15.339 16
320 1 -1.35733 -17.1223 -3.96625 12
321 1 -5.50949 -8.91416 -13.7624 14
322 1 -12.8713 3.19779 -9.45173 20
323 1 12.9539 6.35555 7.78084 22
324 1 -5.18985 4.59579 -10.3262 21
325 1 2.30628 8.19229 -7.53541 25
326 1 -2.03831 -4.94404 5.60539 24
327 1 1.41366 -15.5798 -2.90605 15
328 1 -2.53441 17.9442 -3.24385 14
329 1 2.30073 10.379 6.22602 22
330 1 11.2114 1.07108 5.60536 24
331 1 -13.7781 -1.29965 2.82216 23
332 1 -8.57787 2.55843 14.4181 12
333 1 -6.92858 12.0933 -0.859243 22
334 1 6.80789 -8.03179 -11.3802 18
335 1 13.6888 7.69396 -2.60429 14
336 1 3.21247 -9.76942 -1.07478 22
337 1 -3.8108 -1.618 17.4744 10
338 1 -16.2748 -3.32166 1.77521 16
339 1 -2.3812 -15.1849 -1.04506 22
340 1 -5.94925 1.49777 13.0353 22
341 1 -6.47116 4.86594 12.9041 17
342 1 -12.6276 -3.49833 10.258 13
343 1 -8.86444 -3.90826 6.70846 24
344 1 7.95058 -0.980536 -7.0229 21
345 1 -12.9726 -7.5684 3.81803 21
346 1 8.96825 -2.80866 -9.75203 21
347 1 12.5487 -6.94443 0.330218 22
348 1 5.37993 17.0116 1.48241 13
349 1 0.682999 -6.14243 7.24212 25
350 1 -4.72195 14.5039 -2.48795 21
351 1 5.54257 -0.851792 8.18908 21
352 1 11.5683 7.86698 10.2403 25
353 1 -13.493 -4.58711 3.02877 24
354 1 5.26289 -11.2336 0.867415 20
355 1 -4.90863 6.35036 3.53446 24
356 1 -7.36934 4.41295 4.86296 24
357 1 0.886544 1.61557 4.76626 23
358 1 0.550878 -6.51553 10.444 21
359 1 13.1223 -10.741 0.719242 12
360 1 -2.75857 4.84408 8.72877 25
361 1 -6.76916 -0.937008 -8.43099 21
362 1 3.72523 -2.83508 2.98382 24
363 1 1.88385 2.15734 12.3357 23
364 1 -4.76927 14.5821 0.665799 22
365 1 6.73695 10.5954 17.9034 10
366 1 -6.77108 14.2719 -6.36056 18
367 1 0.139333 -3.70683 -16.8586 16
368 1 -6.16197 2.76017 -4.43194 24
369 1 6.80979 -13.2609 -8.59473 14
370 1 -11.8707 0.753151 4.66649 20
371 1 -11.7854 0.437074 1.42753 23
372 1 -4.59311 -2.30889 -6.65826 21
373 1 -6.66197 8.92327 -1.19317 22
374 1 10.4081 -3.96131 8.83289 18
375 1 -12.0257 -13.1879 2.60072 11
376 1 13.0749 -3.59201 7.57849 14
377 1 -3.57619 1.17151 0.977969 25
378 1 -1.60017 -14.7655 10.1026 12
379 1 -10.6782 2.59701 -4.30076 22
380 1 2.61609 -4.64047 12.5073 18
381 1 1.08579 -11.9234 -2.83221 22
382 1 -6.64632 0.710501 -14.3433 19
383 1 6.96773 -1.63457 -14.9645 15
384 1 4.44398 12.305 5.12453 21
385 1 -11.6332 0.543418 -1.71209 22
386 1 3.53826 -5.07482 -10.6141 23
387 1 5.88939 4.85073 -14.7118 16
388 1 -5.7159 -10.6906 -7.89644 21
389 1 -12.8184 -6.18557 -5.38209 15
390 1 -2.77625 -8.74479 0.985371 22
391 1 7.72898 3.95561 18.0406 10
392 1 -3.47528 -2.02414 0.693777 23
393 1 9.4743 0.877178 -2.07497 23
394 1 -9.89434 3.89534 -10.8479 22
395 1 8.49653 15.532 -0.223464 15
396 1 -7.91851 -2.5364 -2.53112 24
397 1 3.30062 0.138608 2.84072 24
398 1 -7.12748 4.09253 1.52612 24
399 1 -1.76023 14.9444 -3.49496 22
400 1 -0.902136 9.83666 7.06382 23
401 1 9.29256 5.89274 11.6056 23
402 1 11.3695 -4.45725 -7.91841 15
403 1 9.79186 -4.22302 12.065 17
404 1 9.94866 0.800155 -5.0658 21
405 1 -5.16014 -13.9441 -2.68009 20
406 1 3.28082 0.519522 6.16542 25
407 1 -3.78228 4.48916 1.0122 23
408 1 0.596603 -8.56378 -6.03699 23
409 1 0.373307 8.47321 4.14719 22
410 1 5.40008 0.391944 -5.54708 24
411 1 -5.89548 -0.539089 -0.787131 23
412 1 5.49697 -11.3135 -2.68585 25
413 1 11.7469 -5.19039 2.49671 22
414 1 -13.004 3.3825 -6.47453 20
415 1 -5.20517 -10.4798 -0.432032 23
416 1 -3.73846 -9.84597 10.4584 22
417 1 -1.81213 9.52322 -0.760569 23
418 1 -12.3434 -9.2482 -4.83351 14
419 1 4.75428 12.4084 15.8625 12
420 1 -12.1659 7.27962 -1.52468 18
421 1 0.8425 13.4422 -4.68747 24
422 1 9.60338 11.1289 5.90471 21
423 1 -13.5727 -7.51181 -2.43142 16
424 1 -4.05761 -8.8472 -6.09293 22
425 1 -7.92461 -3.6082 11.0503 23
426 1 -16.6286 3.2818 1.23928 10
427 1 7.21093 -4.80703 15.0032 11
428 1 -2.53314 -12.0205 1.2148 24
429 1 11.1247 11.2252 10.397 18
430 1 5.48468 8.42097 -11.8966 20
431 1 -16.7834 3.32299 -4.70832 9
432 1 0.728278 17.7861 -7.74184 13
433 1 -11.3244 5.49553 -4.72409 23
434 1 1.28138 -16.0779 8.67817 14
435 1 13.148 6.57784 4.61223 18
436 1 -0.573628 14.1676 -12.1603 17
437 1 -7.99884 -0.325314 11.1577 23
438 1 -16.3577 -3.02768 -1.19097 13
439 1 1.96207 0.091242 -1.30239 24
440 1 -4.75274 -0.25911 6.89326 23
441 1 1.97381 -14.4674 5.57281 19
442 1 -0.842691 -5.71609 -10.8436 24
443 1 3.62088 -8.71091 -10.3744 22
444 1 2.98235 -7.94819 8.79574 21
445 1 -15.2266 3.73428 6.03315 13
446 1 -12.7413 -0.664006 11.2105 16
447 1 -9.94492 6.00818 6.42283 23
448 1 -2.10004 -4.73723 8.53286 23
449 1 -4.4458 5.92015 -13.0622 24
450 1 3.67545 -8.17865 -7.39668 21
451 1 -3.18939 -7.41047 -12.2403 21
452 1 0.120679 -3.49674 13.846 18
453 1 4.0615 -11.5502 -7.16864 21
454 1 -6.95675 4.08732 -19.6224 7
455 1 3.40915 -13.3024 -0.970386 22
456 1 -0.0173477 6.48282 -9.30414 22
457 1 -12.4809 10.4649 4.48278 13
458 1 -0.385053 -1.2614 16.6254 9
459 1 -9.29217 -2.61434 -9.50253 25
460 1 -3.74023 -6.78965 3.71427 24
461 1 12.0286 0.812916 14.2509 13
462 1 8.78936 2.41858 0.813887 23
463 1 -7.23818 0.987901 5.0713 23
464 1 0.719139 -0.683848 -12.5323 21
465 1 4.13696 -9.36558 6.24418 21
466 1 0.639545 5.0724 1.00878 25
467 1 15.4945 7.73208 0.0702687 11
468 1 -2.59443 -3.31689 15.0161 19
469 1 0.66721 13.283 -1.55653 21
470 1 6.53569 -7.69001 4.77913 24
471 1 -5.70364 -14.1786 -7.55543 14
472 1 -3.96024 3.13127 14.7388 15
473 1 -4.03663 14.5888 4.41942 17
474 1 -7.29568 -12.2985 -5.01794 20
475 1 10.3127 14.1843 2.24224 16
476 1 6.1052 10.5282 10.3885 22
477 1 -10.5643 1.20346 9.29732 21
478 1 -10.2838 -7.64328 -7.01878 18
479 1 -8.33832 2.83661 10.9505 22
480 1 -12.8505 -3.31528 -8.96995 16
481 1 -7.51556 10.5355 1.45291 24
482 1 -3.45943 -11.9216 -9.72126 19
483 1 4.21305 -3.59119 -13.401 21
484 1 -9.6779 -15.5405 3.94993 11
485 1 -6.78791 -1.91454 5.10776 25
486 1 10.9557 4.41973 5.86312 23
487 1 -1.20222 -11.5001 8.86979 20
488 1 -10.0454 7.3319 -14.2142 13
489 1 9.12879 7.41177 -2.33976 24
490 1 -6.66558 -15.8423 -4.90984 14
491 1 -0.216202 1.63653 -6.62275 22
492 1 0.733006 16.7547 -1.91787 15
493 1 -0.876169 8.13829 -6.4457 23
494 1 -5.62042 9.5403 6.46268 23
495 1 -16.0864 0.13882 -5.37366 17
496 1 3.56269 16.8362 -5.86469 15
497 1 -1.45308 11.5652 -3.55567 21
498 1 -8.7027 -12.2548 -9.35468 11
499 1 4.9905 5.43331 16.7171 13
500 1 -1.55737 -10.0601 -7.79353 24
501 1 -1.39552 -2.37543 -10.8651 22
502 1 5.50505 -14.3301 1.33031 19
503 1 -12.2183 6.93504 4.58998 21
504 1 4.08652 6.70119 14.103 20
505 1 8.78336 10.687 -5.66309 23
506 1 3.58826 9.03344 0.322439 21
507 1 -8.82233 12.5292 -8.04802 17
508 1 2.72741 1.40924 -7.33612 22
509 1 1.76656 -8.10034 1.63724 20
510 1 -13.4668 -4.40049 -2.86587 18
511 1 4.0544 1.98521 0.195794 24
512 1 1.98677 13.8269 6.0209 23
513 1 -10.4888 7.08762 -10.2491 18
514 1 9.48189 4.14921 -5.52003 23
515 1 3.89542 13.4038 -9.05122 18
516 1 7.30782 -9.38237 -0.522713 20
517 1 12.5045 -0.768563 -3.44785 20
518 1 -1.36367 -2.13816 -14.2054 23
519 1 0.703597 -8.42421 -3.14482 24
520 1 -6.41886 -5.48687 1.81514 23
521 1 4.34364 -12.3152 6.77017 22
522 1 -6.19536 6.01648 -4.08113 22
523 1 -3.48616 -10.275 3.72342 24
524 1 3.08544 3.63082 3.02492 23
525 1 -0.685358 -9.13785 -14.0483 17
526 1 6.77334 14.291 6.3541 18
527 1 2.60382 5.11135 -7.40571 22
528 1 4.82672 -3.0682 13.8988 18
529 1 -10.1069 -1.81481 9.56956 21
530 1 0.161869 -16.842 -0.79034 17
531 1 -10.6576 -5.97715 -1.37545 25
532 1 15.1455 -5.16935 -0.925143 13
533 1 8.20142 -7.77572 -3.59326 22
534 1 1.83851 3.24889 -4.63896 22
535 1 -6.51742 5.6455 -1.04591 23
536 1 8.98422 -10.974 -6.82678 20
537 1 4.94322 3.43553 -8.88387 21
538 1 9.12457 -6.06315 -9.50932 18
539 1 -3.35675 -0.340191 14.7042 20
540 1 5.26581 13.964 2.40189 19
541 1 -0.510763 -0.464999 -17.1576 17
542 1 1.23037 -4.56401 4.5684 22
543 1 1.62949 1.30789 -15.3353 20
544 1 -2.05508 -4.92489 11.9731 23
545 1 -4.25587 7.97454 0.572984 22
546 1 -15.6041 4.45707 -7.80338 13
547 1 -16.4326 0.00581679 1.50913 12
548 1 -0.623671 -5.86565 -14.1451 23
549 1 1.61054 -14.4738 11.6325 10
550 1 -3.04523 6.02429 -5.03629 24
551 1 15.7247 4.80241 9.87558 13
552 1 12.2481 2.69344 -3.2522 19
553 1 -10.2997 -10.7841 -3.16617 18
554 1 -2.56069 -8.93851 -2.1967 24
555 1 -1.66833 1.01583 -13.6619 22
556 1 -8.73925 9.54681 10.9259 12
557 1 -2.06056 -3.84582 -7.94219 21
558 1 3.48792 5.51057 0.266395 22
559 1 10.3188 -5.77149 -1.69098 23
560 1 6.017 15.6006 -4.57664 17
561 1 4.78373 -4.3463 0.41648 23
562 1 2.24929 -3.18457 -1.46187 23
563 1 12.6442 4.02946 -6.49384 15
564 1 5.05032 9.23509 13.4391 19
565 1 -12.0759 -4.06952 7.54315 21
566 1 -5.3324 -3.94928 -1.34616 23
567 1 2.62795 10.3645 10.9906 21
568 1 10.318 -0.740325 11.9749 21
569 1 -1.81082 1.40077 -10.8861 24
570 1 -10.2605 -4.44441 -7.28637 22
571 1 4.74861 -2.81912 10.6046 23
572 1 6.40019 14.3857 9.6857 15
573 1 4.44987 7.024 -5.73367 24
574 1 -8.14638 9.02561 -8.59954 22
575 1 1.22926 10.3334 -1.56812 21
576 1 9.91499 6.32797 15.993 15
577 1 6.456 1.84328 -15.1453 16
578 1 12.877 -7.13707 -2.5726 22
579 1 10.7091 11.1432 13.3948 14
580 1 -13.9672 -10.943 1.17237 14
581 1 -6.87623 14.2746 -9.6275 13
582 1 2.41468 2.19981 9.08963 25
583 1 -10.6543 -2.45024 12.429 17
584 1 -4.39516 15.7358 -7.88423 16
585 1 -1.53445 -13.5898 -7.45385 15
586 1 5.74323 -3.1948 -8.96976 25
587 1 0.529975 16.8155 -5.11666 17
588 1 -7.40931 -1.0047 -11.63 22
589 1 6.91387 -10.978 8.61195 22
590 1 -12.8547 -3.06114 -5.62334 20
591 1 2.97862 9.68018 -13.6166 17
592 1 -6.00117 2.3827 -1.14132 24
593 1 -0.907754 7.16443 13.4092 19
594 1 -13.4277 -4.84243 0.0979666 21
595 1 6.24142 7.22559 -1.38387 24
596 1 1.57288 -10.3532 -8.91666 23
597 1 6.79749 -0.945189 12.5209 23
598 1 7.29737 2.48425 -3.8385 22
599 1 1.13252 -1.72662 1.38346 22
600 1 -8.9865 7.21041 -2.57616 24
601 1 7.82711 4.33002 14.7913 24
602 1 6.22728 15.3015 -7.67944 13
603 1 10.5294 -9.08446 -1.32307 22
604 1 4.82988 8.97699 8.0681 22
605 1 -1.33701 6.42411 -16.9645 12
606 1 -1.08192 -14.739 7.0472 19
607 1 -5.14014 0.880052 -10.11 21
608 1 6.51298 -5.23654 -14.5631 12
609 1 2.13264 13.3489 2.90851 23
610 1 7.21682 5.43931 -7.26186 25
611 1 -6.00612 -2.35806 -14.1843 21
612 1 -4.85914 -10.8845 -3.50137 20
613 1 -9.8148 0.274558 -13.7359 17
614 1 11.3148 1.29255 2.4771 24
615 1 13.8672 5.06068 -1.71452 14
616 1 8.59321 -7.85769 -6.84907 21
617 1 11.0961 8.12826 13.6033 18
618 1 6.65397 -9.85597 -8.73507 22
619 1 3.75257 3.20106 -13.4794 24
620 1 7.66571 12.6707 4.11977 22
621 1 -9.6284 5.57247 0.0102949 27
622 1 7.38849 10.8503 14.4865 17
623 1 9.35669 3.84511 -2.12801 22
624 1 12.4037 -3.51825 -0.183253 21
625 1 12.7632 3.86754 -9.82853 10
626 1 4.312 3.64663 13.9173 22
627 1 13.9068 6.65997 11.831 17
628 1 -2.89304 -6.79519 14.604 13
629 1 11.4285 12.3505 -0.0735443 15
630 1 6.41956 1.19935 2.07304 22
631 1 1.6234 5.55082 11.9228 23
632 1 7.92752 -4.46631 -3.77268 24
633 1 7.68194 4.22661 6.7145 20
634 1 -10.7782 -1.55988 -7.16453 21
635 1 14.0528 5.08156 1.69442 16
636 1 11.7294 -5.35262 5.2903 18
637 1 -1.71091 -6.9809 -4.81169 23
638 1 -8.95592 6.32323 11.3936 16
639 1 8.28035 12.3114 11.5144 16
640 1 9.70857 5.95886 8.28621 23
641 1 0.816747 11.8352 9.17993 20
642 1 -2.28879 14.9057 9.18485 15
643 1 8.66712 2.77337 4.03845 22
644 1 1.13123 -17.4567 2.60903 12
645 1 -6.16736 10.6699 -10.1485 21
646 1 12.0695 11.1939 -6.9203 12
647 1 10.6813 -0.92127 -11.2724 13
648 1 4.30919 13.4111 -5.60374 22
649 1 -3.60287 -11.9912 -5.94969 20
650 1 10.0608 -12.1278 -9.49404 10
651 1 -15.2796 1.91804 8.5437 12
652 1 -11.2847 8.64966 -7.529 18
653 1 -0.566975 -16.4167 4.64192 19
654 1 -7.54894 2.5578 -12.2951 20
655 1 -10.5584 -1.19695 -4.39781 21
656 1 12.5202 -11.0057 4.42821 10
657 1 12.4052 9.76883 4.50073 18
658 1 4.4576 -9.57893 3.22075 22
659 1 -15.1177 1.24394 -8.88435 16
660 1 0.907128 1.56335 1.32955 24
661 1 0.445386 3.08999 -12.502 21
662 1 0.578434 -2.87914 7.19188 25
663 1 -0.24973 0.425361 13.7275 22
664 1 3.26659 6.49623 -13.5904 24
665 1 13.9157 3.40141 12.0957 15
666 1 6.68846 8.42237 -7.66606 24
667 1 4.33855 -1.3632 0.135966 22
668 1 12.4929 12.759 3.88582 13
669 1 1.85224 -13.4979 -8.78803 16
670 1 -10.9687 3.4222 12.438 15
671 1 9.93266 -10.6395 2.3093 21
672 1 -5.01092 13.4905 9.8106 12
673 1 4.37882 11.6723 -11.7807 14
674 1 -8.70413 10.4133 -5.89799 22
675 1 11.2354 9.07927 -0.968319 21
676 1 -8.88708 -13.8121 1.46811 18
677 1 14.3711 -1.73166 1.83561 22
678 1 7.94295 16.0283 3.31573 14
679 1 1.63871 5.85169 15.313 16
680 1 -8.96999 -4.02202 3.30341 23
681 1 -9.10293 -2.75047 -13.3472 19
682 1 10.1447 2.63268 8.24657 23
683 1 -1.60473 -7.76454 9.11542 21
684 1 6.18411 5.78542 12.3001 22
685 1 -3.89508 7.25629 -2.53679 21
686 1 11.4465 5.95431 -3.96229 21
687 1 4.47256 -1.36346 -2.93915 24
688 1 5.47202 2.26347 4.94479 21
689 1 3.31891 -1.94624 -11.1159 24
690 1 -7.24941 -1.9311 8.52346 23
691 1 8.53506 0.564402 -9.62339 22
692 1 -7.65792 -5.70359 -5.69322 23
693 1 12.8424 -11.0548 -2.28485 13
694 1 7.31618 7.64095 6.32802 21
695 1 5.2743 5.37419 4.62725 23
696 1 -7.24776 -7.1299 11.6535 20
697 1 8.88814 9.38657 8.67735 21
698 1 6.58255 2.12252 15.6723 19
699 1 -3.23036 4.50123 12.099 20
700 1 -3.06735 -3.82879 -12.6725 21
701 1 -9.69096 -2.75713 15.16 9
702 1 -3.80443 4.14023 -2.45255 22
703 1 8.05573 0.589661 10.1106 23
704 1 -6.20392 -11.9445 8.58542 15
705 1 13.7807 10.3552 -1.53545 13
706 1 9.27073 -13.9395 -3.51874 13
707 1 -5.35857 7.71324 -9.93357 22
708 1 6.12845 10.4359 -1.40113 22
709 1 10.1128 14.6593 5.57975 13
710 1 4.83246 -3.6017 -16.1644 12
711 1 2.29743 -1.02804 9.02409 24
712 1 1.22497 9.90518 -4.75419 25
713 1 10.641 7.66738 2.31323 22
714 1 -2.84664 -5.50613 -2.31115 23
715 1 -7.29718 -9.06348 -2.18658 23
716 1 -0.847559 3.0789 -17.1741 16
717 1 -9.26649 10.6274 -2.45929 19
718 1 6.00579 -6.4633 -8.72091 22
719 1 5.8886 4.07542 1.84549 22
720 1 10.5174 5.56015 -11.6121 13
721 1 6.51311 11.959 -4.38919 23
722 1 -2.41515 4.87813 5.52982 25
723 1 -7.20394 7.34257 1.59919 24
724 1 6.80272 8.89075 -4.22618 24
725 1 11.5117 5.00617 13.581 16
726 1 9.0088 0.992809 14.2672 20
727 1 -1.57426 -8.26586 12.5256 19
728 1 -7.40883 10.7464 -14.3214 12
729 1 0.759729 15.369 8.63897 17
730 1 4.82405 -10.2758 -13.0163 14
731 1 5.62776 2.2708 8.16349 23
732 1 8.60272 13.9074 -5.93766 19
733 1 8.2889 9.03428 0.402568 23
734 1 -4.51283 -0.202586 3.60982 23
735 1 16.8238 -3.10644 1.47883 10
736 1 6.91939 7.32388 17.659 14
737 1 -16.2368 -5.95259 3.74276 13
738 1 6.69088 -10.8194 5.25504 20
739 1 -2.9273 2.81948 -8.41408 21
740 1 -4.75587 16.2771 -4.66913 17
741 1 -0.0563643 3.45154 7.21427 24
742 1 4.71784 -4.7462 -2.93154 24
743 1 5.73475 10.326 2.03105 24
744 1 -11.6148 -2.75475 4.96028 24
745 1 -0.835221 6.48437 10.6521 22
746 1 -5.99055 6.31898 -18.1333 13
747 1 -8.9542 5.28287 -17.0093 12
748 1 2.08333 -11.5362 1.67203 21
749 1 2.20036 8.21078 -10.7485 24
750 1 3.83652 -6.11081 3.13397 24
751 1 0.684669 5.1342 4.45305 23
752 1 -10.3791 4.40285 9.1781 23
753 1 3.58104 -0.284726 -13.2351 20
754 1 11.0466 -9.82067 8.76505 14
755 1 0.396557 11.5949 1.14805 22
756 1 -2.57147 1.47503 12.282 23
757 1 -6.32673 -2.085 1.71295 25
758 1 -5.96718 -5.78758 -13.7161 22
759 1 -5.44799 -6.33183 -16.5682 12
760 1 -6.33575 -10.945 -11.2634 11
761 1 1.46966 14.7445 -7.58618 24
762 1 0.595435 -5.37461 -6.63752 24
763 1 -0.987632 -3.28807 2.75481 21
764 1 -9.95442 9.12111 2.96886 24
765 1 3.59045 -13.3141 -4.22914 20
766 1 3.0825 -16.4422 0.142955 15
767 1 10.9716 -6.97621 11.5265 13
768 1 13.566 -2.41316 -5.89437 12
769 1 -3.62088 -15.6937 -5.84145 14
770 1 -10.6464 -9.51105 5.61599 17
771 1 0.0952622 -1.97958 -6.30157 23
772 1 -5.23395 -14.0223 0.45125 22
773 1 -8.6743 -14.3663 -7.19515 11
774 1 0.155226 -1.61402 -3.19012 24
775 1 -5.55716 -1.88984 12.7982 24
776 1 -6.18079 -14.7524 4.14849 16
777 1 12.2809 7.51151 -6.61036 12
778 1 -2.9359 16.2811 2.43523 15
779 1 -4.83287 2.9507 6.83536 24
780 1 -14.7537 8.7925 3.09658 9
781 1 11.2822 -1.93733 2.30796 22
782 1 -11.9868 1.90628 -12.1603 13
783 1 1.80506 11.507 -7.45164 25
784 1 12.9587 1.02873 -6.17588 13
785 1 5.18588 12.1791 12.4907 18
786 1 1.13421 -1.48694 4.59194 24
787 1 7.02353 5.42009 -3.83095 23
788 1 -18.0808 2.20513 -7.27441 8
789 1 -8.77016 -6.13623 -9.62046 21
790 1 2.84093 8.67741 15.5783 14
791 1 2.56218 4.86237 -10.7454 23
792 1 12.166 12.7448 7.32419 13
793 1 -2.37283 -2.06287 11.9031 22
794 1 -7.26978 -16.026 1.56421 15
795 1 -1.00993 -17.6881 7.67673 11
796 1 -1.393 -11.548 5.61671 24
797 1 13.5759 9.73916 12.0451 14
798 1 3.29801 -9.90543 -4.37369 24
799 1 -6.75785 8.9895 -4.22672 21
800 1 8.16006 9.24231 3.80245 22
801 1 -6.51795 -5.29823 4.85639 24
802 1 8.06989 7.04453 -10.0806 20
803 1 -2.16878 -18.8492 -1.14514 10
804 1 -1.7259 -17.991 1.85855 14
805 1 2.58504 -14.4927 2.15356 19
806 1 5.43899 5.17511 -11.6695 23
807 1 9.38961 14.2446 -2.28316 15
808 1 -4.40889 6.12029 -15.9472 18
809 1 -0.181573 0.11471 10.7824 23
810 1 0.28018 6.45445 -12.5637 23
811 1 -12.6455 0.12927 -9.25144 21
812 1 -7.93616 -2.41119 -5.57872 19
813 1 8.72737 17.5883 -3.13558 8
814 1 9.51377 -6.96674 3.77992 22
815 1 -2.58985 -5.23956 -18.1317 10
816 1 -5.34338 -7.24295 -0.719155 22
817 1 9.02591 7.57513 -5.91406 25
818 1 9.60195 -7.51554 1.19651 18
819 1 -4.63595 -0.154453 10.3914 21
820 1 5.23724 -8.172 -2.9839 26
821 1 14.6993 -5.12445 2.11737 15
822 1 12.1834 -2.45392 13.4276 13
823 1 4.0914 7.34878 10.8588 24
824 1 -14.18 2.08693 12.347 8
825 1 -7.39095 1.37199 8.42683 20
826 1 -0.30269 -13.3762 3.17432 21
827 1 8.90902 -0.514392 3.85603 22
828 1 8.49456 9.28049 12.0755 22
829 1 -10.9145 -2.67387 -1.59136 24
830 1 6.35356 -9.92144 -5.37009 22
831 1 1.6585 3.42764 -1.64063 24
832 1 -11.6234 12.4354 -7.16542 13
833 1 2.88532 7.01583 2.81819 21
834 1 3.92955 -11.0503 9.51936 19
835 1 2.41304 -1.20518 12.3256 25
836 1 0.0147011 11.2507 4.32886 22
837 1 1.78594 -11.2408 4.65604 23
838 1 -6.81369 0.957758 1.84033 25
839 1 4.367 0.755923 10.6638 24
840 1 -13.8879 -1.25521 -3.39445 20
841 1 -2.60317 12.7367 11.5199 12
842 1 6.09858 13.6856 -1.83284 21
843 1 -10.4882 -9.29751 -0.981891 24
844 1 1.41151 -12.5253 7.49435 21
845 1 8.24809 -5.8909 9.93522 21
846 1 12.0713 -8.59645 6.42332 11
847 1 6.55117 10.9984 6.9524 21
848 1 -0.603887 4.42494 -3.4591 24
849 1 1.38377 -7.13043 -9.33366 24
850 1 -2.97077 6.00877 -8.34504 23
851 1 -8.3648 -0.377026 14.2406 17
852 1 -2.1547 12.7987 2.28919 25
853 1 15.3392 1.37293 6.60558 12
854 1 -0.829525 12.917 -9.49433 21
855 1 -4.41589 6.55944 14.4297 14
856 1 7.37182 7.13212 9.59314 23
857 1 6.33906 -1.45837 -11.5826 22
858 1 -7.82246 -12.2979 -1.30612 22
859 1 -5.77721 -0.43339 -4.25497 24
860 1 14.1831 1.78647 1.26085 18
861 1 1.14487 -3.62834 -9.16533 24
862 1 -3.20054 8.24318 8.88226 23
863 1 13.5558 -8.99671 -4.63338 12
864 1 3.28653 6.4737 -16.5626 10
865 1 -7.25822 -9.01828 -5.52331 19
866 1 10.5875 2.48933 -11.9827 15
867 1 12.1565 -0.308066 -0.646579 25
868 1 0.479892 -2.97099 10.5716 25
869 1 1.72884 -7.29329 -12.5592 24
870 1 -1.15362 -0.306066 -0.521221 26
871 1 7.84354 12.4175 0.605006 21