ITEM: TIMESTEP
733000
ITEM: NUMBER OF ATOMS
2000
ITEM: BOX BOUNDS pp pp pp
-30.0 30.0
-30.0 30.0
-30.0 30.0
ITEM: ATOMS id type x y z Coordination
1 1 -9.09578 1.99956 -16.3479 11
2 1 -3.6726 -8.99678 -9.48497 23
3 1 0.563573 14.4695 12.5269 10
4 1 4.81832 -9.06091 12.3929 17
5 1 -12.6013 10.4336 1.72456 14
6 1 11.7218 -10.6753 -7.44321 12
7 1 -8.5083 4.25321 -6.07841 23
8 1 -1.33957 -12.7944 12.53 10
9 1 -7.27529 5.639 -11.7081 23
10 1 -15.7777 -9.17442 3.11577 11
11 1 13.2969 1.35117 -9.66827 13
12 1 -2.87323 3.00051 -5.09879 23
13 1 -2.76196 -15.4532 2.10536 18
14 1 -10.5676 -9.1715 2.19319 23
15 1 1.60048 2.31867 15.6321 16
16 1 8.32121 -2.72475 6.65688 22
17 1 1.66384 5.09459 9.04736 20
18 1 6.92066 -2.80488 2.37232 25
19 1 -0.103217 9.67715 -9.53388 23
20 1 4.51681 0.330588 14.2629 21
21 1 -5.16009 1.24794 -18.3742 11
22 1 -4.8416 -4.46593 16.592 11
23 1 12.0278 4.73333 10.4989 23
24 1 -0.264326 9.7406 -12.9844 19
25 1 8.93033 3.64078 -13.2496 16
26 1 14.6636 0.315125 12.4032 13
27 1 -9.55046 2.69625 6.62645 22
28 1 -12.997 7.0783 -6.49125 19
29 1 -2.5295 -0.288791 -8.20465 21
30 1 -9.6056 9.52624 6.45627 19
31 1 7.43143 -13.0024 2.70559 23
32 1 2.04938 -7.81275 13.3773 13
33 1 -1.09774 -11.6911 -9.9363 21
34 1 6.95994 -14.1559 5.25452 19
35 1 -10.6048 -14.8927 0.432231 10
36 1 -7.75748 -3.6467 14.2634 20
37 1 2.36239 -3.43323 -4.40353 24
38 1 6.62551 -4.5091 -11.3162 25
39 1 9.39101 -9.15168 -9.51155 13
40 1 -4.8961 12.3128 -16.4799 8
41 1 -5.8327 0.959667 16.4391 13
42 1 6.0827 -12.0462 11.7923 13
43 1 7.56684 -6.82939 12.9509 14
44 1 -9.23572 -0.76063 0.371921 23
45 1 -12.6142 -1.13526 7.30008 21
46 1 -9.22671 2.09283 3.41339 22
47 1 2.73981 15.3931 -0.0992065 20
48 1 -0.205444 -12.7085 -12.2573 9
49 1 0.269481 3.22166 -9.44402 24
50 1 3.25236 -5.03172 -6.90777 22
51 1 0.349189 -9.83387 11.2615 20
52 1 -11.6309 3.7451 -1.808 25
53 1 -1.05511 11.3899 -6.83953 25
54 1 -1.08317 13.3204 6.83529 25
55 1 -7.4635 9.19274 -12.2281 19
56 1 -4.64821 11.195 -2.70595 21
57 1 8.53042 -15.9038 2.60722 11
58 1 5.89847 -6.38312 -5.28805 21
59 1 4.63666 -6.69691 -12.9732 22
60 1 -7.59855 7.67617 8.31623 20
61 1 -11.604 -1.6313 -12.2406 13
62 1 11.4925 -2.08065 6.13156 24
63 1 -5.49776 7.62434 -7.12055 25
64 1 -8.35306 -7.24598 0.50746 24
65 1 -3.2162 11.3523 8.32196 21
66 1 -10.545 5.67329 -8.05181 26
67 1 -5.62648 9.52114 9.55899 16
68 1 1.37181 6.71687 -4.73364 22
69 1 2.88194 3.6259 6.37783 23
70 1 3.44813 -14.407 9.65056 13
71 1 5.2519 5.84808 7.92837 23
72 1 0.660498 -18.2954 -2.73007 16
73 1 2.65943 13.3016 14.4507 13
74 1 -9.98582 0.376078 -10.1328 21
75 1 -12.1466 5.37166 -12.4127 13
76 1 4.41556 3.65396 10.6086 23
77 1 13.6606 -2.38269 -5.7916 15
78 1 11.3776 -8.98394 2.64835 15
79 1 -13.8022 -1.92554 -0.359104 19
80 1 -9.71236 -5.10111 9.40656 22
81 1 4.41664 15.2662 4.35903 20
82 1 8.06095 -2.44523 9.92068 20
83 1 -3.93035 -10.3897 7.25865 24
84 1 -9.08445 -0.988565 3.36063 22
85 1 13.1269 3.64601 7.57089 22
86 1 5.22251 -3.25229 -5.52103 22
87 1 -3.17815 11.4812 5.22545 27
88 1 11.5181 -6.49447 8.24766 15
89 1 -7.71797 -5.6137 -2.26776 23
90 1 -4.41401 -5.53511 -6.64722 24
91 1 -13.0012 5.17361 7.16122 15
92 1 -9.77466 14.3335 -5.80806 15
93 1 -4.33829 9.16668 -13.2873 24
94 1 2.13471 -0.0105701 -4.78109 23
95 1 3.05412 -1.57101 -7.28203 22
96 1 11.3173 14.1408 -6.08344 7
97 1 7.1057 -9.36807 2.41245 21
98 1 2.65874 -4.69963 9.10066 23
99 1 -5.36696 17.9576 -2.76558 8
100 1 -7.9925 14.2219 2.31842 14
101 1 1.86837 -0.76961 15.5281 15
102 1 -9.2599 14.0772 -2.702 14
103 1 -5.10896 -8.28738 13.2203 18
104 1 10.907 -8.83656 -4.94245 17
105 1 -14.3573 2.21064 3.07707 20
106 1 -13.101 -11.4303 4.04506 15
107 1 10.3409 -5.84273 -4.86791 21
108 1 0.77069 -0.374952 -9.47677 23
109 1 -2.58667 0.216904 -19.4868 11
110 1 5.87552 -1.26153 4.88267 23
111 1 -2.2365 9.79508 2.28812 24
112 1 -2.11499 7.46766 -14.2704 21
113 1 5.48009 10.2306 18.9196 9
114 1 2.83014 15.4849 -3.51098 20
115 1 -10.259 12.3201 0.252568 15
116 1 0.507549 8.56211 0.921983 23
117 1 -0.276809 1.34493 -3.39195 24
118 1 -8.56274 -7.00143 3.72472 22
119 1 15.9093 -0.192883 9.20763 12
120 1 -2.47503 -3.5776 -4.69695 24
121 1 2.70585 -6.6542 -4.49325 25
122 1 -2.42268 1.36284 8.52629 24
123 1 6.4863 -1.2479 16.1251 15
124 1 -7.05341 -4.38539 -8.12553 22
125 1 7.06718 -5.95144 2.21004 22
126 1 -9.95311 -7.65262 -4.0209 21
127 1 10.0825 -14.1028 4.46556 11
128 1 -4.74734 2.89981 3.48233 24
129 1 3.67892 3.69111 -16.6728 12
130 1 5.43035 16.819 -1.67287 15
131 1 -8.2025 -10.0855 7.44311 20
132 1 -9.10131 -13.1641 7.90494 11
133 1 -1.65115 6.37637 2.84214 23
134 1 -2.97768 -2.59686 -18.0508 14
135 1 4.48258 6.88437 -9.18934 24
136 1 10.8599 -13.2311 1.32546 12
137 1 8.57011 -13.0311 10.3311 10
138 1 -9.81163 -4.05117 -4.36549 23
139 1 14.9108 8.33606 9.26754 12
140 1 14.5287 1.47067 -1.50848 12
141 1 -15.6171 -6.49023 0.922764 14
142 1 8.39151 5.94614 3.78762 24
143 1 15.2003 8.89425 3.06631 12
144 1 -2.85895 9.75646 13.9183 12
145 1 6.60582 0.480459 -0.960482 23
146 1 -5.17644 9.31288 3.42536 24
147 1 -1.95272 18.1236 -6.95842 13
148 1 -4.04855 -5.36608 -9.75872 22
149 1 7.96778 -14.7143 -6.95723 10
150 1 -0.801515 16.7859 -9.75863 13
151 1 4.46755 -5.89119 14.5359 12
152 1 1.98934 -1.88743 -15.3032 20
153 1 -7.54944 16.4164 -4.34527 11
154 1 7.72942 -1.19521 -3.75123 24
155 1 -13.4005 10.2792 -6.29496 12
156 1 -0.960265 -3.55741 -0.33393 23
157 1 -5.74534 16.0287 3.35839 13
158 1 8.30965 3.83592 -10.0581 25
159 1 8.30096 -9.13761 7.41573 18
160 1 -5.95766 11.1089 -7.03111 22
161 1 -7.55413 11.0419 4.57608 21
162 1 10.0075 5.58906 -8.2609 20
163 1 -1.56045 3.24543 -0.558857 22
164 1 3.54496 8.51687 -3.20844 25
165 1 -0.422031 15.4512 0.857939 19
166 1 9.02654 10.7498 -2.4952 24
167 1 -0.854997 8.15394 -3.31531 24
168 1 3.91316 16.7201 -9.83183 10
169 1 5.41209 9.41819 -14.8259 11
170 1 -10.8693 -12.4281 -0.628171 18
171 1 -14.2617 4.97658 -0.672762 16
172 1 -3.98892 -0.81747 -12.8423 27
173 1 1.05823 -10.858 -14.9927 8
174 1 8.79186 12.7884 8.31429 18
175 1 -1.10216 16.2638 6.97106 15
176 1 -13.2434 0.312889 -6.07722 22
177 1 -12.1936 7.02919 1.2253 21
178 1 15.4905 -0.7148 -4.0291 11
179 1 -3.87516 -0.864284 -16.0052 20
180 1 10.8858 2.49884 16.3573 11
181 1 1.73089 17.1661 6.09548 11
182 1 1.67812 8.58825 8.80793 24
183 1 3.19489 -8.4964 -14.9141 13
184 1 -0.360741 14.9445 4.24504 19
185 1 -3.71076 9.47566 -5.27288 21
186 1 4.58643 -6.39734 11.078 22
187 1 -11.3707 -5.7295 4.9687 21
188 1 -2.78359 -7.7778 -15.8867 14
189 1 -10.9174 10.4158 -10.393 11
190 1 -1.48371 -8.47823 5.6457 25
191 1 0.887737 -15.3341 -5.96475 15
192 1 -2.4514 14.3183 -14.545 8
193 1 -12.5053 2.01932 7.26084 18
194 1 1.33962 6.59733 -1.49976 22
195 1 11.4001 9.13409 -4.03617 22
196 1 -10.6147 0.846384 12.5893 18
197 1 2.70467 -11.506 13.003 11
198 1 -10.4069 1.91819 -7.74488 20
199 1 1.92378 16.8434 2.73761 15
200 1 -0.425219 3.18927 10.6974 22
201 1 15.474 2.41899 9.42991 15
202 1 -4.46777 11.2297 0.706445 25
203 1 11.7047 -7.13032 -7.61098 12
204 1 -6.06085 12.711 6.93553 18
205 1 -5.03719 4.233 -6.80369 23
206 1 10.5882 -12.3247 -1.43687 14
207 1 -6.33453 -8.54166 5.58754 23
208 1 -14.7878 0.967646 5.50452 14
209 1 -5.72627 -12.0345 2.43996 22
210 1 6.62757 2.30616 12.508 22
211 1 -16.0923 -3.42198 -4.7741 12
212 1 -1.31913 -0.24281 2.61158 23
213 1 -3.94534 -13.8342 7.40154 15
214 1 0.405149 0.22177 7.35018 23
215 1 -8.15342 1.01191 -2.43153 24
216 1 -0.529936 -6.95349 -0.142794 22
217 1 -2.99156 8.09805 5.15508 25
218 1 -9.35389 -0.770882 6.49981 25
219 1 3.40142 13.5411 11.0373 17
220 1 -4.78758 1.01381 -6.91256 26
221 1 -8.51868 11.9758 -11.9231 14
222 1 -11.6962 -5.1428 -11.4612 15
223 1 -3.77259 -10.7652 14.0203 9
224 1 -0.389648 -10.3425 3.13601 23
225 1 8.30314 -9.51655 11.2483 16
226 1 -10.1529 11.9531 3.6139 16
227 1 13.3014 -0.146758 4.43663 19
228 1 4.54309 3.54151 -5.6062 19
229 1 -7.27981 -3.98752 -11.1281 20
230 1 3.69046 -3.0438 6.45209 23
231 1 -3.86154 -7.03755 7.10941 22
232 1 5.64876 -7.90876 8.87276 18
233 1 -3.42194 9.64557 -8.35268 22
234 1 1.61691 -9.8762 -11.9826 23
235 1 8.42169 0.700072 -12.8685 16
236 1 1.05308 7.70475 -15.4091 15
237 1 -2.68025 -0.434704 -4.97997 23
238 1 -1.30935 14.9846 -7.13434 23
239 1 -9.25053 -8.67278 10.2983 14
240 1 11.288 12.4706 -3.65135 16
241 1 -6.49682 -6.12168 14.9998 12
242 1 -6.65075 13.0002 -4.37906 24
243 1 7.961 0.907917 6.68907 22
244 1 -4.46026 -2.64317 -10.1485 22
245 1 -3.66216 13.0659 -8.35709 24
246 1 -1.87766 4.64049 -10.9096 23
247 1 -8.87298 -7.16548 7.20244 21
248 1 -1.62964 3.18002 2.51466 22
249 1 -7.38777 4.60896 8.48819 23
250 1 -4.99067 6.39748 6.91556 24
251 1 0.984715 -11.9823 -5.89965 23
252 1 -9.18722 -16.1028 3.41133 13
253 1 6.46864 -12.6062 -4.92847 21
254 1 -2.56633 1.42241 5.622 21
255 1 -2.02462 -1.84671 5.39869 25
256 1 -2.00726 -6.93706 -7.64958 22
257 1 10.3301 9.4141 16.2611 14
258 1 4.28447 10.0661 -9.31134 24
259 1 2.97049 12.0961 -0.178596 23
260 1 -12.0715 3.57617 4.68297 22
261 1 -11.6871 12.2252 -3.88096 12
262 1 1.41433 8.63481 12.156 20
263 1 5.48314 -15.9139 3.34422 15
264 1 9.26169 -4.00737 0.844355 24
265 1 2.91548 7.03721 6.29524 23
266 1 -9.56579 5.52563 3.4071 22
267 1 -15.3273 -1.72015 -7.51205 14
268 1 10.6626 2.31055 -8.30437 24
269 1 3.7311 -6.4394 6.47733 25
270 1 7.35335 10.2942 -10.179 15
271 1 -1.83626 -10.2404 -4.69591 20
272 1 -3.3362 3.70296 -18.9556 13
273 1 8.80976 -12.4336 7.15222 16
274 1 10.7784 -0.681484 -7.81107 22
275 1 -14.6365 -3.51011 5.86926 14
276 1 0.966593 -14.945 -2.61691 22
277 1 -9.10811 -1.59405 -15.4215 12
278 1 3.02927 11.9014 -3.26322 23
279 1 0.756775 -3.57392 -12.1471 22
280 1 -5.19646 6.56782 9.94339 23
281 1 13.5989 -3.48506 4.44387 16
282 1 -9.00844 -3.93869 0.120885 25
283 1 11.1109 -3.78615 -10.863 12
284 1 0.917988 -9.50515 8.00152 22
285 1 -6.53322 4.0941 -14.557 20
286 1 -12.7776 7.01863 -9.74503 16
287 1 -6.2085 -12.2424 5.45823 22
288 1 10.0503 -0.584221 8.50829 20
289 1 8.57204 -5.76751 6.9262 20
290 1 -6.0428 -7.38357 -11.0534 21
291 1 6.60377 -14.4196 8.80033 14
292 1 -2.19304 7.98153 -11.1293 24
293 1 6.05266 7.00346 1.99635 21
294 1 -11.2169 -6.2091 1.66884 21
295 1 2.37113 10.3603 2.45716 21
296 1 -6.24791 -5.33434 8.40178 23
297 1 -11.6724 -6.81927 -9.09087 13
298 1 -6.31588 -7.68446 -8.28067 24
299 1 -5.12686 12.4931 -12.9872 19
300 1 -5.21795 -7.40467 -3.87123 22
301 1 -5.94858 -8.8369 2.30354 26
302 1 -3.03748 -5.44983 1.23525 22
303 1 8.51252 -2.91957 -12.7162 15
304 1 13.0015 -1.83032 -8.8794 14
305 1 5.95855 -4.72996 5.06368 23
306 1 11.233 4.44169 2.26033 24
307 1 -5.56844 -3.83891 -3.92359 22
308 1 -13.9879 -8.93537 6.38916 13
309 1 -8.28039 -13.398 1.70454 21
310 1 7.62323 7.22228 15.0293 22
311 1 1.77153 -17.7476 5.73862 11
312 1 4.05998 1.71538 -3.1994 23
313 1 -0.268433 -10.161 -0.0603335 22
314 1 -2.5652 13.3349 -0.840139 22
315 1 3.95323 0.220931 -16.6011 12
316 1 -8.56275 -5.01013 -15.8209 10
317 1 2.43652 -6.58005 -1.01727 21
318 1 -12.5535 -7.36914 9.16629 11
319 1 -0.104499 8.79446 16.2001 9
320 1 0.331241 -18.8808 -5.95272 8
321 1 -5.6614 -9.24593 -13.8863 11
322 1 -12.9575 3.45365 -9.62629 15
323 1 12.6878 6.74268 8.03636 17
324 1 -5.13474 4.3879 -10.09 22
325 1 2.1407 8.5419 -7.64325 24
326 1 -1.91415 -5.18951 5.56296 23
327 1 2.89444 -17.0146 -4.21835 12
328 1 -1.96755 18.3723 -3.34244 11
329 1 2.43493 10.1517 5.78175 22
330 1 11.0718 1.47745 5.75372 22
331 1 -14.0517 -1.36661 3.15321 20
332 1 -8.38516 3.02928 14.7597 12
333 1 -6.96444 12.7521 -0.853439 22
334 1 6.66638 -7.84703 -11.0867 18
335 1 13.8494 7.3662 -3.08667 14
336 1 2.85708 -10.0857 -1.05746 24
337 1 -3.97786 -1.13798 17.3115 11
338 1 -16.4612 -3.82105 2.14382 11
339 1 -2.52214 -15.5111 -1.4754 16
340 1 -5.88807 1.71818 13.186 22
341 1 -6.24577 4.75712 12.6919 19
342 1 -12.7632 -3.76083 10.2666 13
343 1 -9.06318 -3.92801 6.68562 25
344 1 7.63808 -1.05745 -6.81944 22
345 1 -13.4005 -7.89787 3.44938 21
346 1 8.6537 -2.76721 -9.35505 20
347 1 12.6177 -7.38811 0.0772233 18
348 1 5.03785 16.9394 1.32826 15
349 1 0.37359 -6.77569 7.43645 23
350 1 -4.66343 14.6505 -2.84115 22
351 1 5.88196 -1.18825 8.21274 22
352 1 11.3614 8.27509 10.7458 22
353 1 -13.4071 -4.64545 3.11535 22
354 1 5.34359 -11.4253 0.698109 22
355 1 -5.14165 6.11812 3.49399 24
356 1 -7.22506 4.37349 5.15718 24
357 1 0.880476 1.69396 4.5107 24
358 1 0.0737823 -6.45258 10.8897 20
359 1 12.6439 -10.4017 0.361663 10
360 1 -2.45389 4.79638 8.70289 23
361 1 -7.25347 -0.751404 -8.44183 22
362 1 3.42785 -3.18083 3.37711 20
363 1 2.14773 1.98574 12.4674 24
364 1 -4.98874 14.813 0.680634 20
365 1 7.67196 11.3769 17.9041 9
366 1 -6.71311 14.5544 -7.00817 18
367 1 -0.257439 -4.20428 -16.6956 18
368 1 -5.95847 2.67598 -4.08263 25
369 1 6.68652 -12.7751 -8.47962 16
370 1 -11.7612 0.606569 4.76263 22
371 1 -11.9724 0.411517 1.64919 21
372 1 -4.81411 -2.20268 -6.6503 21
373 1 -6.77741 9.58529 -0.914599 23
374 1 10.5853 -3.74502 9.05655 21
375 1 -11.0116 -12.6782 2.78948 22
376 1 13.8738 -3.25855 8.12189 11
377 1 -3.96342 1.22747 0.965821 24
378 1 -2.25881 -14.6427 9.81886 13
379 1 -10.7524 2.31246 -4.65631 22
380 1 2.2559 -4.86398 12.2981 18
381 1 0.970771 -11.8111 -3.01511 22
382 1 -6.83004 0.40601 -14.4484 20
383 1 6.15743 -1.68889 -14.5881 15
384 1 4.34949 11.9237 4.63482 19
385 1 -11.2977 0.546817 -1.99591 22
386 1 3.5618 -4.9517 -10.2463 24
387 1 6.31671 4.9605 -15.1697 14
388 1 -6.72938 -10.9138 -7.63291 20
389 1 -12.6326 -6.4823 -5.54073 15
390 1 -2.63407 -8.68326 1.24161 24
391 1 10.1345 6.25204 15.9981 15
392 1 -3.65314 -2.22002 1.04665 21
393 1 9.66602 0.956424 -1.94497 22
394 1 -9.57873 3.8719 -10.3749 22
395 1 7.67186 15.3937 -0.00483991 18
396 1 -7.77461 -2.29653 -2.2876 23
397 1 3.41364 0.284968 3.10372 23
398 1 -7.12802 4.4399 1.64054 25
399 1 -1.73517 14.8309 -3.95113 23
400 1 -0.632854 10.028 7.24661 24
401 1 9.25437 6.03624 12.1398 23
402 1 10.892 -3.86906 -7.45814 18
403 1 10.0022 -4.54632 12.1231 17
404 1 9.91497 0.763505 -5.29722 24
405 1 -5.07849 -14.0451 -2.95193 15
406 1 3.42257 0.365728 6.41264 24
407 1 -4.04057 4.66213 0.892849 21
408 1 0.612144 -8.4586 -5.94915 24
409 1 0.434088 8.4088 4.28258 25
410 1 5.32705 0.359516 -5.61192 25
411 1 -5.72883 -0.73177 -1.0596 25
412 1 5.40044 -11.465 -2.60608 24
413 1 11.8268 -5.47208 2.55669 22
414 1 -12.7134 3.70993 -6.56198 21
415 1 -4.9183 -10.599 -0.434298 21
416 1 -4.34555 -10.1225 10.7776 19
417 1 -2.13774 9.67634 -0.764184 22
418 1 -12.222 -9.77789 -5.55082 11
419 1 5.04479 12.2252 16.1357 14
420 1 -11.5714 6.65234 -1.91343 19
421 1 1.00358 13.427 -5.11087 23
422 1 9.65782 11.0838 5.76956 21
423 1 -13.8167 -7.84452 -2.64646 15
424 1 -4.44848 -9.05693 -6.31453 20
425 1 -7.66794 -3.455 11.031 24
426 1 -16.605 2.6092 0.68806 11
427 1 6.96945 -4.0519 13.9881 15
428 1 -2.61383 -11.8726 1.40638 23
429 1 11.4665 11.4288 10.0243 18
430 1 5.53316 8.52656 -12.0337 22
431 1 -15.8187 3.25226 -5.51467 13
432 1 1.31795 18.6019 -8.16028 11
433 1 -10.7758 5.76323 -4.3757 22
434 1 0.755576 -15.8435 8.53305 14
435 1 13.2242 6.49291 4.26048 19
436 1 -2.78429 10.9111 -14.6339 16
437 1 -7.85649 -0.366025 11.2062 21
438 1 -16.5409 -4.18287 -1.1149 11
439 1 1.49165 -0.031837 -1.49691 23
440 1 -4.81489 -0.345628 6.87395 22
441 1 1.70048 -14.5221 5.8204 21
442 1 -1.29235 -5.61066 -10.5879 22
443 1 3.49237 -8.17788 -10.372 22
444 1 2.77444 -8.16071 9.26465 20
445 1 -17.3737 2.21059 3.48734 8
446 1 -12.881 -0.579202 10.6643 13
447 1 -9.78834 5.91517 6.39443 22
448 1 -1.91254 -4.83301 8.74542 25
449 1 -4.23018 5.98883 -12.9235 23
450 1 3.47395 -8.44823 -7.03659 21
451 1 -3.09676 -7.47725 -12.4133 22
452 1 0.0676782 -2.97893 13.9411 18
453 1 4.06676 -11.6293 -6.96153 21
454 1 -6.45911 4.11023 -18.3547 11
455 1 3.39066 -13.4594 -0.896461 24
456 1 0.213603 6.43428 -9.22579 22
457 1 -12.7496 9.94296 4.86383 13
458 1 -0.746146 0.319707 16.5366 11
459 1 -9.6067 -2.89503 -9.75596 23
460 1 -3.90608 -6.96801 3.85987 27
461 1 9.40107 -0.333585 17.848 6
462 1 8.6369 2.46844 0.95256 20
463 1 -6.65412 0.942222 5.14764 24
464 1 0.751477 -0.226212 -12.505 20
465 1 4.13135 -9.4188 6.38077 22
466 1 0.671133 5.1557 1.08039 22
467 1 13.9339 7.4561 0.638739 18
468 1 -2.89723 -2.52643 15.0685 16
469 1 0.787379 13.7008 -2.11953 24
470 1 6.55477 -8.06336 4.94195 20
471 1 -7.65204 -12.3463 -4.76403 19
472 1 -3.69025 3.19871 14.7004 14
473 1 -3.39981 14.7958 5.23315 20
474 1 -8.20754 -13.001 -8.93173 13
475 1 9.87461 14.3642 1.99305 13
476 1 6.36306 10.6152 10.2683 21
477 1 -10.2717 0.786115 9.43292 21
478 1 -9.11388 -7.97539 -7.36526 19
479 1 -8.17292 2.80684 11.3088 22
480 1 -12.8533 -3.51828 -9.05433 16
481 1 -7.64141 11.0785 1.59093 24
482 1 -3.99643 -12.1761 -9.12247 15
483 1 4.34017 -3.35259 -13.4591 24
484 1 -11.7279 -14.5608 5.37505 10
485 1 -6.73807 -2.21133 5.24414 22
486 1 10.7149 4.67152 5.80412 23
487 1 -1.67891 -11.5363 9.18235 21
488 1 -9.32054 7.0515 -14.0115 16
489 1 8.95598 7.1349 -2.37593 22
490 1 -9.63246 -13.9495 -2.86863 11
491 1 -0.372004 1.34518 -6.80314 23
492 1 0.131332 16.6353 -2.00636 17
493 1 -1.05391 8.22876 -6.59494 24
494 1 -5.3161 9.59671 6.67127 23
495 1 -16.432 0.0197249 -4.907 12
496 1 3.40404 16.4915 -6.49223 17
497 1 -1.37794 11.6936 -3.06752 21
498 1 -6.75482 -14.857 -11.2996 4
499 1 4.7752 5.27934 16.8803 11
500 1 -1.53008 -10.4658 -7.41405 22
501 1 -1.56697 -1.89999 -11.0346 21
502 1 5.26495 -14.5105 1.2106 17
503 1 -11.963 7.29579 4.64865 22
504 1 4.11718 6.90728 14.2227 21
505 1 8.93928 10.7643 -5.58033 22
506 1 3.40063 8.58473 -0.00271395 22
507 1 -8.72862 12.3256 -8.53796 17
508 1 2.6897 1.50252 -7.7255 22
509 1 1.88862 -8.23006 1.49691 23
510 1 -14.061 -4.6556 -2.89555 19
511 1 3.92727 1.75007 0.228425 23
512 1 2.10263 13.6202 6.07739 22
513 1 -10.0354 7.30579 -10.4928 19
514 1 9.77931 3.89869 -5.54748 24
515 1 4.13142 13.3727 -8.98443 18
516 1 7.40378 -9.73906 -1.38757 22
517 1 12.4414 -0.590045 -3.25316 21
518 1 -1.28766 -2.34561 -14.0684 22
519 1 0.492186 -8.57039 -2.94862 25
520 1 -6.29416 -5.79901 1.8912 24
521 1 4.00808 -12.8917 7.12012 22
522 1 -6.49933 5.91846 -4.23682 21
523 1 -3.46857 -9.9739 4.08114 24
524 1 3.07616 3.87174 2.8643 23
525 1 -0.948647 -9.02693 -13.1028 18
526 1 6.60957 14.0002 6.42317 17
527 1 2.31783 4.94869 -7.37968 23
528 1 4.3622 -2.71341 14.0942 20
529 1 -10.027 -2.12554 9.11617 26
530 1 -0.050515 -16.2042 0.613089 20
531 1 -10.827 -5.8439 -1.87408 23
532 1 14.7434 -5.44404 -0.581136 12
533 1 8.24972 -7.73012 -3.45354 22
534 1 1.57396 3.33961 -4.82833 22
535 1 -6.47182 6.10387 -0.73122 23
536 1 8.93854 -11.0831 -6.98782 23
537 1 5.25731 3.59622 -8.91675 26
538 1 9.0506 -6.10286 -9.62186 19
539 1 -3.4867 0.219556 14.4126 20
540 1 5.1055 13.6826 1.65633 23
541 1 -0.698684 -1.00118 -16.7358 15
542 1 1.34267 -4.94999 4.9677 23
543 1 1.67841 1.31448 -15.3607 21
544 1 -1.92104 -5.05468 12.5147 20
545 1 -4.43306 7.9069 0.970861 22
546 1 -15.0511 5.2862 -8.21808 12
547 1 -16.3041 -0.552214 1.1136 12
548 1 -0.898225 -5.56302 -14.1217 22
549 1 0.711936 -14.083 11.4077 12
550 1 -3.09836 6.40153 -4.97033 22
551 1 15.8851 5.08791 9.43382 12
552 1 12.1892 2.82151 -3.3312 19
553 1 -9.87653 -10.7697 -3.57917 21
554 1 -2.66562 -8.70418 -2.00835 23
555 1 -1.54185 0.631557 -14.3204 21
556 1 -9.3612 9.65206 9.55912 11
557 1 -1.93874 -3.63013 -8.31917 23
558 1 3.87008 4.91353 0.149409 22
559 1 10.4194 -5.68897 -1.73105 24
560 1 6.04436 15.5819 -4.26622 16
561 1 4.76818 -4.42469 0.492664 23
562 1 2.20408 -3.23235 -1.16267 22
563 1 13.3931 4.62944 -5.83932 12
564 1 5.44272 8.88029 12.9937 20
565 1 -12.074 -4.50071 7.63507 19
566 1 -5.75113 -3.88013 -0.605134 22
567 1 3.19308 10.4186 11.4525 20
568 1 10.1321 -0.207019 11.9289 19
569 1 -1.88477 1.06368 -11.0947 24
570 1 -10.1796 -4.9047 -7.12165 21
571 1 5.00243 -2.9964 10.9452 19
572 1 6.20865 13.6502 9.92553 16
573 1 4.37984 6.9058 -5.73236 22
574 1 -8.00737 9.2005 -9.05565 22
575 1 1.08025 10.2175 -1.7561 21
576 1 12.045 1.43831 13.6446 17
577 1 6.00101 1.81324 -14.5396 16
578 1 13.1536 -6.68498 -3.43743 13
579 1 11.2116 11.1345 13.5163 14
580 1 -13.6351 -8.32083 0.645255 18
581 1 -6.42484 14.0082 -10.2552 14
582 1 2.2302 1.87845 8.95953 25
583 1 -10.3146 -2.09901 12.3587 20
584 1 -3.87285 16.0674 -8.60521 15
585 1 -1.71976 -13.7875 -7.1881 14
586 1 5.62981 -3.2231 -8.62958 24
587 1 0.284386 17.0168 -5.58511 18
588 1 -7.46693 -1.0241 -11.5186 21
589 1 5.87755 -11.0881 9.02812 23
590 1 -12.6164 -3.25693 -6.07553 19
591 1 2.95575 9.47503 -14.2382 16
592 1 -6.1556 2.80642 -0.806747 26
593 1 -0.85152 7.03261 13.6153 19
594 1 -13.3874 -5.09829 -0.407829 22
595 1 6.01696 7.11827 -1.2575 23
596 1 1.46302 -10.0556 -8.55078 21
597 1 6.66115 -1.03678 12.8337 23
598 1 7.49501 1.92267 -3.8168 23
599 1 1.36037 -1.6305 1.45082 23
600 1 -8.85857 7.5142 -2.42801 22
601 1 7.77739 4.21045 15.2404 19
602 1 6.02465 15.2785 -8.09364 12
603 1 10.9049 -9.03852 -1.91266 23
604 1 4.89983 8.89672 7.96764 23
605 1 -1.41833 5.77679 -16.7353 12
606 1 -1.19215 -14.56 6.48029 21
607 1 -4.82435 0.724582 -10.335 22
608 1 7.28286 -4.47021 -15.1763 13
609 1 1.87692 13.5229 2.54778 21
610 1 7.0197 5.4653 -7.01806 24
611 1 -6.29089 -2.64065 -14.2385 22
612 1 -5.03691 -10.7249 -3.58252 22
613 1 -9.65501 0.445758 -13.3525 17
614 1 10.9439 1.21171 2.23513 21
615 1 14.2866 4.67659 -0.721383 14
616 1 8.66703 -7.88698 -6.77215 23
617 1 11.4303 7.9235 13.6358 18
618 1 6.13038 -9.67873 -8.4843 19
619 1 3.82025 3.51008 -13.4427 23
620 1 7.34053 12.4676 4.00718 21
621 1 -9.63834 5.74595 0.199135 24
622 1 7.77107 10.9662 14.6869 17
623 1 9.40714 3.90723 -2.20817 21
624 1 12.4005 -3.80983 0.273471 23
625 1 12.4556 4.3744 -8.84679 14
626 1 4.139 3.79051 13.9511 24
627 1 14.0411 6.93203 11.9102 16
628 1 -3.12332 -7.14476 15.0159 12
629 1 10.8988 12.265 -0.463937 16
630 1 6.64252 0.477072 2.48722 22
631 1 1.75663 5.17866 12.4613 25
632 1 7.90704 -4.34104 -3.52608 24
633 1 7.68288 4.32451 6.5681 24
634 1 -10.386 -1.40324 -7.1878 23
635 1 14.9141 5.0561 2.57782 12
636 1 11.6802 -5.13252 6.09481 18
637 1 -1.95075 -6.87319 -4.65981 23
638 1 -8.68857 6.4471 10.9246 17
639 1 9.07375 12.2549 11.6477 14
640 1 9.94213 6.11989 8.4824 21
641 1 1.0835 11.9622 8.91651 21
642 1 -1.65128 16.5167 10.4294 10
643 1 8.72432 2.58924 3.95323 22
644 1 2.10867 -18.1791 2.05902 11
645 1 -5.76635 11.0696 -10.0734 21
646 1 12.0849 10.9033 -6.56893 12
647 1 10.9662 -0.888042 -11.0459 16
648 1 4.13949 13.6787 -5.83156 22
649 1 -4.3469 -12.5899 -5.84404 16
650 1 8.96258 -5.83907 -12.5885 13
651 1 -15.1222 3.7231 5.66384 16
652 1 -10.863 8.91394 -7.53012 21
653 1 -0.339723 -16.7257 3.98491 19
654 1 -7.20467 2.23316 -12.0007 22
655 1 -10.2779 -0.918204 -4.43443 22
656 1 9.39738 -10.8443 4.48549 17
657 1 12.4287 9.71208 3.90703 19
658 1 3.90059 -9.85968 3.01078 22
659 1 -15.3914 1.97154 -11.271 6
660 1 0.921639 1.66152 1.47138 22
661 1 0.500766 2.97655 -12.6493 23
662 1 0.392717 -3.41939 7.33383 24
663 1 -0.320494 0.118376 13.4028 24
664 1 3.29233 6.51128 -13.4578 22
665 1 14.3986 3.67867 12.3162 16
666 1 6.47911 8.63226 -7.31091 20
667 1 4.3699 -1.46315 0.399392 23
668 1 12.6497 12.7551 3.76869 14
669 1 1.80858 -13.1279 -8.85963 16
670 1 -10.4667 4.19648 12.3468 13
671 1 9.27479 -10.5952 1.23402 22
672 1 -1.61889 13.6003 10.4406 17
673 1 4.71946 11.9604 -12.3585 12
674 1 -8.76632 11.041 -5.83462 23
675 1 11.6063 9.14526 -0.779571 22
676 1 -9.17816 -13.5469 4.99163 19
677 1 14.7758 -1.96975 1.54145 19
678 1 7.19092 15.7967 3.60777 14
679 1 1.85756 6.02768 15.5729 15
680 1 -8.95512 -4.17879 3.2901 22
681 1 -9.34142 -3.41422 -13.2933 17
682 1 10.305 2.92668 8.66859 21
683 1 -2.0963 -8.3772 9.30848 20
684 1 6.39714 5.493 12.2504 24
685 1 -4.22122 7.89224 -2.31977 26
686 1 11.684 5.94089 -3.43792 21
687 1 4.24422 -1.49989 -3.16938 22
688 1 5.45185 2.37109 4.78752 21
689 1 3.45668 -1.85091 -10.4958 21
690 1 -6.95548 -1.97681 8.5245 23
691 1 8.00556 0.935634 -9.64352 21
692 1 -7.38412 -5.74898 -5.4892 23
693 1 11.5428 -12.2188 -4.70554 12
694 1 7.62658 7.52188 6.31832 22
695 1 5.33156 5.47781 4.83868 21
696 1 -7.44155 -6.49214 11.8791 22
697 1 9.08479 9.40402 8.70621 21
698 1 6.19622 2.19765 15.8066 15
699 1 -2.81085 4.93131 12.0748 23
700 1 -3.64454 -4.30323 -12.8014 21
701 1 -10.4655 -2.13148 15.1453 10
702 1 -3.96944 4.63199 -2.47208 21
703 1 7.93982 0.927521 10.0513 21
704 1 -6.10379 -12.1456 9.15272 14
705 1 13.397 10.7189 -1.8505 11
706 1 8.53855 -13.8141 -3.50423 15
707 1 -5.19614 7.7696 -10.2335 26
708 1 5.69052 10.7744 -1.70524 24
709 1 9.72901 14.2639 5.08268 14
710 1 4.27067 -3.38563 -16.5769 10
711 1 2.53695 -1.55734 9.14858 25
712 1 1.32756 10.357 -5.12939 25
713 1 10.7181 7.5019 2.20186 23
714 1 -2.87013 -5.28512 -1.96777 23
715 1 -7.38 -8.63132 -2.01659 23
716 1 -1.27762 2.37083 -16.6229 16
717 1 -9.14452 10.961 -2.58029 20
718 1 5.98178 -6.26626 -8.55253 22
719 1 6.31866 3.88054 1.99883 24
720 1 10.4556 6.05035 -11.4593 12
721 1 6.52656 12.0603 -4.2212 22
722 1 -2.67067 5.04059 5.25654 24
723 1 -7.65117 7.63577 1.88152 23
724 1 6.66807 8.72762 -4.0305 22
725 1 12.042 4.67434 13.7662 16
726 1 8.75377 0.85997 14.5622 22
727 1 -2.12307 -8.28819 12.662 18
728 1 -7.36424 10.8682 -15.0674 10
729 1 1.2838 15.1837 8.87521 19
730 1 4.6424 -9.81897 -12.7541 14
731 1 5.53458 1.8022 8.00191 20
732 1 8.41463 14.1102 -5.89019 16
733 1 8.28749 9.04105 0.0752041 24
734 1 -4.52686 -0.45478 3.8054 23
735 1 16.9118 -3.61711 0.968475 8
736 1 7.91325 8.08679 17.9935 10
737 1 -15.1728 -5.92431 4.97574 15
738 1 6.21234 -10.9493 5.38006 23
739 1 -2.72843 2.72305 -8.23695 23
740 1 -4.31891 15.8635 -5.79775 19
741 1 -0.182341 3.28038 7.15473 25
742 1 4.66549 -4.89044 -2.60406 24
743 1 5.68024 10.4173 1.82109 21
744 1 -11.5285 -2.79968 4.91568 24
745 1 -0.622644 6.65253 10.3454 24
746 1 -4.1694 5.48878 -16.1659 19
747 1 -8.21355 5.18982 -16.5614 12
748 1 2.01127 -11.6357 1.54417 23
749 1 2.37348 8.22021 -11.073 25
750 1 3.994 -6.38689 3.19836 26
751 1 0.731235 5.05727 4.45648 24
752 1 -10.5396 4.27996 9.22585 23
753 1 4.10518 -0.0879961 -13.2989 21
754 1 10.234 -10.1663 9.19687 13
755 1 -0.296173 11.9438 0.671063 24
756 1 -2.85101 1.6623 11.7326 24
757 1 -6.62079 -2.12 2.01824 25
758 1 -6.16552 -6.17716 -13.8615 19
759 1 -5.5301 -6.78875 -16.423 11
760 1 -6.18554 -11.5944 -10.9682 14
761 1 1.71 14.7255 -8.35075 23
762 1 0.331561 -4.87118 -6.15816 21
763 1 -0.987585 -3.56901 2.9545 21
764 1 -9.98104 8.8892 3.16152 24
765 1 3.44635 -13.5113 -4.27951 19
766 1 2.90504 -16.5009 -0.669828 18
767 1 10.4924 -7.2604 11.3224 14
768 1 15.2247 -0.201388 -7.54638 9
769 1 -1.75772 -13.9874 -4.1296 18
770 1 -11.0584 -8.93399 5.20002 19
771 1 -0.237788 -1.88432 -6.3093 21
772 1 -5.01926 -13.9886 0.406213 16
773 1 -9.63932 -14.5758 -6.3518 6
774 1 -0.184123 -1.93335 -3.0171 24
775 1 -5.54614 -1.44929 12.5881 20
776 1 -6.59827 -15.2451 5.78689 13
777 1 12.1865 7.28322 -6.57292 17
778 1 -2.84578 16.608 2.3684 14
779 1 -4.99315 3.36873 7.03646 21
780 1 -14.9058 8.5275 2.78917 9
781 1 11.753 -2.08786 2.57282 24
782 1 -11.9316 1.97507 -12.2042 12
783 1 1.87861 11.6936 -7.7048 22
784 1 12.9278 1.23403 -6.29393 20
785 1 5.61457 12.26 12.8487 14
786 1 1.29228 -1.74532 4.76733 21
787 1 6.91296 5.26607 -3.97594 21
788 1 -15.7664 1.15153 -7.90037 13
789 1 -8.88507 -6.53388 -9.91414 21
790 1 4.51306 8.46279 16.6415 17
791 1 2.63014 4.96848 -10.7457 24
792 1 11.7562 12.926 7.1318 16
793 1 -2.26576 -1.76294 11.9855 25
794 1 -5.84201 -15.6131 2.81812 14
795 1 -1.24935 -17.2749 6.99633 11
796 1 -1.67076 -11.4987 5.92171 25
797 1 13.7347 10.3405 11.8618 13
798 1 3.16757 -9.96375 -4.28231 25
799 1 -6.61281 9.18716 -4.06559 23
800 1 7.93853 9.24564 3.3292 20
801 1 -6.43774 -5.47304 5.27346 23
802 1 7.55032 7.12551 -9.96981 21
803 1 -1.6373 -16.9204 -4.52319 15
804 1 -0.18232 -19.9514 -0.0192913 6
805 1 1.98816 -15.0385 2.38371 23
806 1 5.86364 5.57378 -11.8278 22
807 1 8.68875 14.0322 -2.89582 18
808 1 -4.36497 2.22023 -15.4833 21
809 1 -0.079988 0.0267528 10.3559 23
810 1 0.146145 6.15465 -12.316 24
811 1 -12.6119 -0.571024 -8.9647 19
812 1 -7.77579 -2.51438 -5.76947 23
813 1 8.25207 17.4125 -2.39766 7
814 1 9.28189 -6.76921 3.99225 20
815 1 -2.57616 -5.95397 -18.38 9
816 1 -5.09107 -7.07487 -0.559795 23
817 1 9.07549 7.19262 -5.40453 22
818 1 9.486 -7.62945 0.688059 22
819 1 -4.8147 -0.0464732 10.1265 24
820 1 5.12878 -8.23241 -2.57077 23
821 1 14.8718 -5.54812 2.40379 11
822 1 12.5695 -2.61776 13.2397 11
823 1 3.91923 6.99737 10.606 22
824 1 -12.698 2.69094 10.3638 14
825 1 -7.29187 1.34285 8.49195 20
826 1 -0.15389 -13.3545 3.15044 24
827 1 9.23597 -0.776033 4.33596 22
828 1 8.33554 8.80337 12.3098 21
829 1 -10.8701 -2.64819 -1.85852 24
830 1 6.32574 -9.79615 -5.46723 23
831 1 1.6044 3.2725 -1.57129 22
832 1 -11.6633 12.0778 -7.08698 15
833 1 2.99773 7.20022 2.87422 23
834 1 3.19379 -11.2666 10.3697 19
835 1 2.30738 -1.24714 12.5002 23
836 1 -0.0703904 11.7131 4.14536 22
837 1 1.75797 -11.328 4.95289 24
838 1 -6.78493 1.07246 2.04788 25
839 1 4.57876 0.477211 10.7324 22
840 1 -13.2919 -1.40881 -3.81495 20
841 1 -0.0606396 11.1419 13.3314 14
842 1 5.15708 13.6553 -1.56176 23
843 1 -10.4051 -8.78498 -1.32531 23
844 1 0.925359 -12.4309 8.36275 21
845 1 8.28688 -5.7897 9.97384 20
846 1 11.5049 -8.93882 5.99335 11
847 1 6.77398 10.9348 6.9601 19
848 1 -0.750683 4.65844 -3.13528 22
849 1 0.802999 -6.85999 -8.73761 20
850 1 -2.98431 6.31604 -8.49296 23
851 1 -8.55174 0.0112391 14.4554 18
852 1 -2.44775 13.17 2.54485 22
853 1 15.6204 1.63636 5.91925 13
854 1 -0.485461 13.0565 -9.80745 23
855 1 -4.25197 6.49335 14.0167 15
856 1 7.36251 7.4864 9.53655 22
857 1 6.19399 -1.19467 -11.4897 23
858 1 -7.63859 -12.2979 -1.18347 22
859 1 -5.68253 -0.575234 -4.25045 25
860 1 14.157 1.42105 2.31182 15
861 1 1.02419 -3.65555 -9.07441 22
862 1 -2.85512 7.99484 8.39213 25
863 1 10.5451 -13.0729 -8.46723 9
864 1 3.97238 6.77717 -16.5827 12
865 1 -7.39356 -9.22745 -5.10391 23
866 1 10.8252 2.49587 -11.446 17
867 1 12.5809 -0.349785 -0.10821 23
868 1 0.232392 -2.99258 10.7162 23
869 1 1.26885 -6.84311 -11.953 23
870 1 -1.25152 -0.292479 -0.289264 22
871 1 7.89645 12.3396 0.0540944 23
872 1 1.71247 -8.18732 4.80822 25