ITEM: TIMESTEP
1035000
ITEM: NUMBER OF ATOMS
2000
ITEM: BOX BOUNDS pp pp pp
-30.0 30.0
-30.0 30.0
-30.0 30.0
ITEM: ATOMS id type x y z Coordination
1 1 -8.50386 2.33174 -16.3442 14
2 1 -4.02752 -8.97031 -9.47359 24
3 1 -0.838889 14.4711 11.8539 11
4 1 5.1369 -9.28688 11.6665 18
5 1 -12.2545 10.4387 1.82973 14
6 1 9.74544 -9.74212 -9.43355 13
7 1 -8.72835 4.21921 -5.91144 22
8 1 -1.42868 -12.4051 11.6709 11
9 1 -7.5338 5.90667 -12.0817 21
10 1 -16.1762 -8.63856 3.0977 9
11 1 12.8545 0.903582 -9.42302 10
12 1 -2.97597 2.77194 -4.77703 18
13 1 -1.85497 -15.1639 1.61581 21
14 1 -10.5497 -9.15466 1.5234 25
15 1 2.02224 1.52846 15.7478 12
16 1 8.31696 -2.54907 6.5828 22
17 1 1.87031 5.38082 9.07294 24
18 1 6.71931 -2.8597 2.16571 23
19 1 -0.179259 9.59705 -9.33049 24
20 1 4.58754 0.137736 14.4629 20
21 1 -5.43392 2.44317 -16.7986 17
22 1 -5.16577 -4.61812 16.2804 13
23 1 11.7295 4.44925 10.1193 21
24 1 -0.11411 9.99604 -12.633 20
25 1 7.50347 3.23547 -12.9261 18
26 1 14.7013 0.162927 12.5554 11
27 1 -9.66396 2.84226 6.5073 23
28 1 -13.8131 6.88846 -6.45187 18
29 1 -2.54945 -0.390177 -8.10429 21
30 1 -10.1344 9.55585 6.97729 18
31 1 7.89618 -12.5165 2.93207 18
32 1 2.33059 -8.41573 12.97 14
33 1 -1.37674 -12.2148 -13.0403 9
34 1 7.44352 -13.9897 5.9712 19
35 1 -8.583 -14.6908 -3.88162 14
36 1 -7.61907 -4.20269 14.0127 20
37 1 2.26269 -3.55527 -4.58463 20
38 1 6.50206 -5.01857 -11.8667 21
39 1 7.65845 -11.3656 -11.2945 14
40 1 -2.81984 11.014 -13.9916 16
41 1 -5.89534 1.31526 16.1491 14
42 1 6.32913 -12.2025 11.0535 15
43 1 7.91259 -7.04042 12.7025 13
44 1 -8.92489 -0.508799 0.103941 24
45 1 -12.3249 -0.992489 7.60012 19
46 1 -9.23289 2.46941 3.28919 23
47 1 2.95109 15.1251 -0.260006 22
48 1 -0.758285 -12.1215 -10.3367 19
49 1 0.470566 3.22984 -9.14797 24
50 1 3.63484 -5.09594 -7.19517 22
51 1 0.626583 -9.9156 10.486 19
52 1 -11.6198 3.8713 -1.91977 26
53 1 -1.30513 11.5271 -6.73683 24
54 1 -1.7568 13.4853 6.27127 19
55 1 -8.09287 9.0374 -11.7851 19
56 1 -4.65621 11.3984 -2.4229 24
57 1 7.64969 -15.574 3.21384 13
58 1 6.0783 -6.28202 -5.63692 23
59 1 4.48842 -6.81894 -12.8839 20
60 1 -7.62671 8.00106 8.42585 25
61 1 -11.9794 -1.36256 -11.5517 15
62 1 11.2849 -2.14728 5.62333 21
63 1 -5.81925 7.45224 -6.97639 21
64 1 -8.15056 -7.22243 -0.00454937 23
65 1 -2.97868 11.2524 8.65907 21
66 1 -10.8527 5.38337 -7.88718 24
67 1 -5.31205 10.1505 10.1226 19
68 1 1.30711 6.8517 -4.89995 22
69 1 2.93188 3.77993 6.4347 23
70 1 3.67218 -14.0929 10.2053 13
71 1 5.00058 5.41495 7.87579 23
72 1 -3.99935 -17.0112 -3.50516 15
73 1 2.01745 13.5702 14.1499 11
74 1 -9.96737 0.536678 -9.59136 21
75 1 -11.8634 5.47616 -12.1609 15
76 1 4.04853 3.78492 10.667 25
77 1 13.2013 -5.75328 -5.36 14
78 1 11.927 -8.67962 2.63974 17
79 1 -13.3837 -1.43956 0.0162299 21
80 1 -9.58944 -5.78187 9.32113 21
81 1 4.1545 15.464 4.38156 20
82 1 7.73401 -2.62537 9.94446 21
83 1 -3.69508 -10.2531 7.05605 24
84 1 -8.91893 -0.282495 3.3308 23
85 1 13.1994 3.31971 7.55174 22
86 1 5.41935 -2.93902 -5.54566 21
87 1 -3.525 11.4478 5.2716 23
88 1 11.7555 -6.04387 8.56254 17
89 1 -7.52162 -5.64985 -2.5511 23
90 1 -4.20617 -5.86014 -6.3744 23
91 1 -13.3058 5.08301 10.4325 12
92 1 -9.57727 13.9062 -5.59939 15
93 1 -4.84402 9.47594 -12.8212 21
94 1 2.14372 -0.176461 -4.81125 24
95 1 3.11619 -1.74025 -7.12625 21
96 1 11.2399 14.4941 -5.54444 6
97 1 7.6099 -9.30661 2.23457 24
98 1 2.76303 -4.47778 9.16223 25
99 1 -5.12364 17.1772 -1.15966 13
100 1 -8.08856 14.3796 1.42447 17
101 1 2.03952 -1.76315 15.6346 13
102 1 -10.0227 13.9437 -2.4966 12
103 1 -5.00611 -8.16309 12.8217 18
104 1 10.6807 -9.55187 -4.95951 19
105 1 -13.9622 2.04044 2.95834 25
106 1 -13.3582 -10.3753 3.97513 14
107 1 10.2956 -5.97349 -5.22724 23
108 1 0.872148 -0.0683532 -9.09603 21
109 1 -3.30093 1.10026 -18.3753 12
110 1 5.83241 -0.975353 4.97984 23
111 1 -2.24311 9.98036 2.45521 24
112 1 -2.10045 7.97862 -14.4037 23
113 1 4.42758 10.1377 18.4187 8
114 1 2.96378 15.2791 -3.54746 22
115 1 -10.2066 12.3009 0.169348 16
116 1 0.32182 8.61409 0.938308 22
117 1 -0.479543 1.42552 -3.34375 23
118 1 -8.42025 -7.61224 3.79313 21
119 1 15.0922 1.73907 9.91835 15
120 1 -2.08171 -3.87975 -4.72938 23
121 1 2.6375 -6.54702 -4.81699 23
122 1 -2.69757 1.48014 8.90262 20
123 1 6.82529 -1.39588 15.6547 14
124 1 -6.58313 -4.00813 -8.1059 22
125 1 7.2818 -6.00019 2.17253 24
126 1 -9.5982 -7.47299 -3.99465 22
127 1 10.2113 -11.7866 7.05118 17
128 1 -4.61466 3.28119 3.49305 24
129 1 3.51197 3.43752 -16.4515 11
130 1 5.15085 17.265 -2.05752 14
131 1 -8.25501 -10.9944 6.98351 19
132 1 -8.09251 -13.8677 7.05051 12
133 1 -1.83901 6.61933 2.44117 24
134 1 -2.96511 -2.47697 -18.3782 11
135 1 4.73156 6.64759 -9.1338 23
136 1 10.2791 -14.3015 4.80141 9
137 1 9.56889 -13.0391 10.0681 12
138 1 -9.94574 -4.33533 -4.16193 20
139 1 14.4622 8.26773 9.72582 15
140 1 14.1519 1.27879 -1.2537 15
141 1 -16.0362 -5.98229 0.466134 13
142 1 8.37022 6.20882 3.91945 24
143 1 15.5422 10.0097 3.33997 8
144 1 -3.12955 9.46771 14.0767 15
145 1 6.54253 0.724402 -1.19866 21
146 1 -5.29876 9.53554 3.32494 25
147 1 -2.29196 18.4545 -6.61803 12
148 1 -4.21883 -5.85479 -9.86633 24
149 1 10.795 -12.8551 -5.37381 15
150 1 0.30643 15.729 -10.4477 17
151 1 4.65924 -6.66534 14.3401 13
152 1 1.54387 -2.02235 -15.0259 21
153 1 -7.30956 15.572 -3.45362 14
154 1 7.5917 -0.885674 -3.99558 25
155 1 -13.822 10.2361 -6.11419 10
156 1 -0.682819 -3.40802 -0.582474 24
157 1 -5.84372 16.1691 2.37173 12
158 1 8.04053 3.85512 -9.94539 22
159 1 9.18961 -8.87758 7.35636 20
160 1 -5.76587 11.1823 -7.08258 20
161 1 -7.52739 10.9119 4.86677 23
162 1 10.4515 5.9153 -8.15118 20
163 1 -1.3005 3.06044 -0.571309 23
164 1 3.6593 8.71133 -3.06194 20
165 1 -0.242209 15.1385 0.836641 18
166 1 8.83729 10.5452 -2.37207 21
167 1 -0.961066 8.4013 -3.526 23
168 1 3.67057 17.1588 -9.49333 10
169 1 6.21183 8.64829 -14.7875 13
170 1 -10.1723 -11.9622 -0.255798 16
171 1 -14.0129 5.43934 -0.0733761 16
172 1 -4.02997 -0.640977 -12.833 23
173 1 1.61506 -13.6929 -11.3258 10
174 1 8.74698 12.7354 8.66098 17
175 1 -2.04626 16.2339 6.49218 14
176 1 -13.1206 0.574806 -5.7939 23
177 1 -12.0193 7.16926 1.63366 21
178 1 14.8355 -2.20218 -1.79864 16
179 1 -4.28282 -0.798346 -15.7259 17
180 1 10.2447 3.06165 16.5626 12
181 1 1.57791 16.786 5.98534 14
182 1 1.44251 8.68321 8.91688 24
183 1 2.49607 -8.8308 -14.6617 12
184 1 -0.334219 15.0013 4.0717 21
185 1 -3.54416 9.56024 -5.47962 23
186 1 4.95538 -6.39116 11.4931 23
187 1 -10.8431 -6.11296 5.01153 22
188 1 -3.24097 -7.6029 -15.7739 15
189 1 -10.6354 10.6425 -9.99421 14
190 1 -1.39206 -8.59228 5.66249 23
191 1 1.24004 -15.2097 -5.54724 14
192 1 -2.86668 14.5841 -10.5282 19
193 1 -12.6277 2.64556 7.85695 21
194 1 1.56693 6.66683 -1.49474 23
195 1 11.4236 9.29053 -3.8638 18
196 1 -10.3964 1.0118 12.6944 20
197 1 2.92289 -11.6893 12.2107 13
198 1 -10.4803 2.44244 -7.67954 22
199 1 2.24523 16.8046 2.43825 14
200 1 -0.615724 3.21904 10.4422 20
201 1 15.1157 5.18436 6.62309 12
202 1 -4.82895 11.4016 0.75928 23
203 1 14.8467 -8.05053 -2.76413 10
204 1 -7.72137 11.3918 8.00601 16
205 1 -5.38974 4.49225 -6.66949 22
206 1 11.2376 -12.6828 -2.10697 13
207 1 -5.84423 -9.1963 5.12705 24
208 1 -14.3465 0.965 6.08712 13
209 1 -5.66999 -12.0367 2.16955 23
210 1 6.51899 2.17639 12.7525 26
211 1 -15.8446 -2.9447 -4.24194 13
212 1 -1.11996 -0.209139 3.17187 21
213 1 -3.01019 -13.6172 7.19969 15
214 1 0.00616099 0.316875 7.38879 23
215 1 -7.6702 1.04656 -2.65536 25
216 1 -0.366956 -7.04149 -0.270212 21
217 1 -2.91302 8.12154 5.22351 25
218 1 -9.1258 -0.47146 6.65843 24
219 1 2.37956 14.0755 10.6755 15
220 1 -4.95559 1.07298 -6.82629 24
221 1 -8.25671 12.1066 -11.5859 15
222 1 -11.8176 -4.45084 -11.1506 14
223 1 -3.80149 -10.7127 13.734 9
224 1 -0.0571421 -10.0642 2.86646 23
225 1 8.74446 -9.36109 10.677 16
226 1 -9.80227 12.2735 3.34164 16
227 1 13.3688 0.368227 4.2005 20
228 1 4.8718 3.49484 -6.02116 24
229 1 -7.19858 -3.97695 -11.0248 22
230 1 3.40995 -2.88503 6.50474 21
231 1 -3.98366 -6.91357 7.25282 21
232 1 6.11025 -7.83757 8.68724 19
233 1 -3.49028 9.3883 -8.73723 22
234 1 1.45887 -10.4761 -12.0294 19
235 1 8.33901 -0.0291155 -13.2456 16
236 1 0.981192 8.36771 -15.3932 16
237 1 -2.38864 -0.276458 -4.86155 21
238 1 -1.17139 15.0273 -6.93757 28
239 1 -9.15272 -9.0758 9.85676 12
240 1 10.6533 12.4032 -3.84306 15
241 1 -7.73351 -7.05091 14.6572 10
242 1 -6.86645 12.5069 -4.48606 20
243 1 7.94175 0.939333 6.79286 24
244 1 -4.43139 -2.27871 -9.83497 23
245 1 -3.58554 12.926 -8.39558 24
246 1 -2.04009 4.73642 -10.5807 20
247 1 -8.35049 -7.67004 6.79149 24
248 1 -1.48277 3.25836 2.60931 26
249 1 -7.39159 4.51357 8.60502 24
250 1 -5.2048 6.16776 6.84061 23
251 1 0.960408 -11.79 -5.90604 21
252 1 -9.75091 -15.5976 -1.00337 12
253 1 6.36298 -13.0552 -5.12079 22
254 1 -2.67045 1.66176 5.00612 21
255 1 -1.90645 -1.84831 5.46588 24
256 1 -1.86942 -7.18482 -8.08099 22
257 1 9.36475 9.1604 16.6816 13
258 1 4.6302 10.1306 -9.04382 23
259 1 3.15406 11.9844 -0.205325 25
260 1 -11.9533 3.96986 4.86191 24
261 1 -12.1762 12.2889 -4.07183 11
262 1 1.40075 8.48962 12.5422 25
263 1 4.89674 -16.0281 3.7859 13
264 1 9.28433 -4.16082 0.672895 22
265 1 2.54324 7.14059 6.35505 23
266 1 -9.64302 5.90018 3.45911 23
267 1 -15.5435 -1.17544 -7.20856 14
268 1 10.6853 2.74546 -8.09636 21
269 1 3.94404 -6.14102 6.56594 24
270 1 7.82249 9.95141 -10.4866 16
271 1 -1.6281 -10.7247 -4.83718 25
272 1 -3.2022 4.20905 -18.7835 11
273 1 8.89223 -15.8752 7.72193 9
274 1 11.2429 -0.96332 -7.86902 19
275 1 -14.3059 -3.05024 5.78289 15
276 1 -1.59534 -14.0733 -4.244 19
277 1 -8.80601 -1.02001 -15.3925 12
278 1 3.45001 11.8669 -3.43445 24
279 1 0.833553 -3.71116 -12.3268 21
280 1 -5.2428 6.4699 9.97416 24
281 1 13.6902 -3.26633 4.19912 15
282 1 -8.60716 -3.90111 0.227097 23
283 1 11.3272 -7.67178 -7.56262 13
284 1 1.10961 -10.0582 7.38629 23
285 1 -6.53027 4.0239 -14.5778 20
286 1 -13.5128 6.62394 -9.39777 13
287 1 -5.63948 -12.2211 5.42911 23
288 1 10.3034 -0.439853 8.3613 21
289 1 8.84816 -5.56515 6.69812 21
290 1 -6.53232 -7.47204 -11.0514 20
291 1 6.84324 -15.3096 9.54852 10
292 1 -2.46591 7.84169 -10.9097 22
293 1 5.96357 7.2051 1.79183 26
294 1 -11.1319 -5.7184 2.02121 20
295 1 2.23928 10.5897 2.83277 21
296 1 -6.45146 -5.71237 8.19406 24
297 1 -12.046 -6.16756 -9.01769 10
298 1 -6.56139 -7.52236 -8.21487 20
299 1 -5.23771 12.8591 -12.5523 15
300 1 -5.01001 -7.36669 -3.90613 24
301 1 -6.00903 -9.07866 2.28996 25
302 1 -3.11217 -5.13988 1.26634 22
303 1 8.64461 -3.28711 -12.9923 13
304 1 8.09127 -6.71628 -14.0055 9
305 1 6.32956 -4.33102 5.09577 21
306 1 10.6619 4.5909 2.13419 24
307 1 -5.08986 -4.2266 -3.84429 23
308 1 -13.734 -7.27546 5.55883 16
309 1 -6.72724 -15.9401 -1.85999 18
310 1 7.64091 7.43607 13.8837 21
311 1 2.41725 -17.8228 5.7403 12
312 1 4.47321 1.79685 -3.01964 23
313 1 0.0717872 -10.306 -0.175455 21
314 1 -2.305 13.1557 -0.910956 23
315 1 3.84524 -0.151074 -16.5385 13
316 1 -8.27412 -4.27173 -15.3184 13
317 1 2.77225 -6.70952 -1.42229 22
318 1 -11.483 -7.51711 7.68175 14
319 1 -0.257964 9.00126 15.8208 13
320 1 -0.654856 -17.0184 -3.74957 15
321 1 -5.61148 -8.94827 -14.1081 13
322 1 -12.6472 3.7114 -9.25191 23
323 1 12.5634 6.67766 7.52581 21
324 1 -5.02982 4.29879 -10.0344 22
325 1 2.53226 8.10895 -7.54257 24
326 1 -1.67761 -5.35894 5.57984 25
327 1 1.99625 -15.1684 -2.83274 18
328 1 -2.14515 18.3334 -3.21185 11
329 1 2.13067 10.2945 6.13969 21
330 1 10.7553 1.26004 5.85458 21
331 1 -13.4392 -1.04606 3.14884 23
332 1 -8.41789 2.95472 14.3147 14
333 1 -7.29107 12.4894 -1.43526 22
334 1 7.10052 -8.47568 -11.3265 18
335 1 13.5074 7.99494 -1.92797 14
336 1 3.10716 -9.89312 -0.975641 22
337 1 -3.67696 -1.3182 17.6582 10
338 1 -16.0675 -3.17226 2.30923 14
339 1 -2.21964 -15.3133 -1.31941 20
340 1 -5.70174 1.5125 12.8042 25
341 1 -6.04922 4.80441 12.6753 19
342 1 -12.5109 -3.78676 10.4467 13
343 1 -8.84766 -4.17451 6.67499 23
344 1 7.80249 -1.26092 -7.14902 23
345 1 -13.3519 -7.86793 2.7251 18
346 1 8.77219 -2.90738 -9.88979 20
347 1 12.8186 -7.17634 0.0848164 18
348 1 5.14228 17.0762 1.3452 14
349 1 0.723822 -6.50467 7.34979 26
350 1 -4.58106 14.4594 -2.8776 22
351 1 5.775 -0.83513 8.16721 24
352 1 11.3781 8.07118 10.6099 21
353 1 -13.2226 -4.36278 3.18201 22
354 1 5.45826 -11.0932 0.569346 23
355 1 -5.07711 6.31056 3.38513 25
356 1 -7.33553 4.56902 5.4255 21
357 1 0.813839 2.05357 4.60947 22
358 1 0.41438 -6.44445 10.9308 21
359 1 12.7535 -10.7858 0.932244 11
360 1 -2.791 4.73225 8.60298 23
361 1 -7.00373 -0.856325 -8.35684 20
362 1 3.7352 -3.14713 3.11105 23
363 1 1.99492 1.85772 12.557 23
364 1 -5.01849 14.5097 0.248937 22
365 1 7.16182 10.9639 18.3597 9
366 1 -6.72231 14.4282 -6.821 17
367 1 -0.454459 -4.13218 -16.9552 16
368 1 -5.81399 2.8301 -4.20106 22
369 1 6.56032 -13.3257 -8.6441 17
370 1 -11.663 0.681182 4.82401 24
371 1 -11.5287 0.778642 1.56538 23
372 1 -4.46702 -2.33232 -6.65877 24
373 1 -6.96687 9.52912 -1.26835 23
374 1 10.3741 -3.50029 9.04134 22
375 1 -11.0061 -12.1949 2.71967 16
376 1 13.5802 -3.17386 7.62149 15
377 1 -3.30406 1.4 0.95186 23
378 1 -2.01336 -14.8882 9.73721 10
379 1 -10.5206 2.21895 -4.37218 25
380 1 2.65516 -4.95826 12.6141 19
381 1 0.772753 -11.9611 -2.89715 22
382 1 -6.53325 0.7619 -14.197 20
383 1 6.47307 -1.77233 -15.2012 15
384 1 4.11025 12.2333 5.02517 20
385 1 -11.2589 0.617594 -1.76774 26
386 1 3.34002 -5.18317 -10.3159 22
387 1 6.02875 5.0053 -15.0854 16
388 1 -6.37197 -10.8241 -7.85781 22
389 1 -12.3458 -5.96492 -4.7036 18
390 1 -2.8526 -8.73436 1.40332 22
391 1 8.20816 4.35271 18.0837 11
392 1 -3.09364 -2.05044 1.08326 25
393 1 9.59327 0.912324 -2.0723 22
394 1 -9.60423 4.31469 -10.4457 22
395 1 7.85304 15.8175 0.126249 17
396 1 -7.7887 -2.36126 -2.47064 24
397 1 3.51328 0.462324 3.02448 23
398 1 -7.10958 4.55324 1.82491 25
399 1 -1.47934 14.9106 -3.71054 25
400 1 -0.684034 10.1246 6.95883 21
401 1 9.22102 5.93854 11.8241 22
402 1 11.0711 -4.26774 -7.70266 16
403 1 9.86076 -4.4195 12.2817 17
404 1 9.91346 1.00047 -5.26614 22
405 1 -4.90252 -14.0836 -3.10963 23
406 1 3.14206 0.229044 6.23624 22
407 1 -3.8326 4.90274 0.799376 25
408 1 0.787069 -8.66705 -6.2011 26
409 1 0.282303 8.44674 4.37978 23
410 1 5.293 0.258968 -5.69986 24
411 1 -5.69671 -0.814898 -0.791014 21
412 1 5.41527 -11.3302 -2.47103 22
413 1 11.5999 -5.50372 2.35974 21
414 1 -13.4911 3.7849 -6.03596 23
415 1 -4.85579 -10.7159 -0.418243 22
416 1 -3.58343 -10.0127 10.4116 22
417 1 -2.18448 9.81234 -0.877263 22
418 1 -11.9516 -9.4544 -4.77986 17
419 1 4.88388 12.5592 16.092 11
420 1 -11.9255 7.08246 -1.85565 19
421 1 0.804125 13.3969 -5.34936 23
422 1 9.39641 11.0759 5.97119 21
423 1 -13.6293 -7.82648 -2.56012 14
424 1 -4.01829 -9.24105 -6.38068 23
425 1 -7.5044 -4.10492 10.8751 25
426 1 -16.3911 3.48607 1.76456 10
427 1 6.90916 -5.00863 14.568 12
428 1 -2.28516 -12.0481 1.22012 24
429 1 10.6491 11.4052 10.846 16
430 1 5.4671 8.40482 -11.7054 22
431 1 -16.1495 3.44275 -5.3416 13
432 1 1.05084 17.8864 -7.90382 15
433 1 -11.3686 5.68736 -4.56012 21
434 1 0.954434 -16.0448 8.43523 13
435 1 13.0556 6.79168 4.39322 19
436 1 -0.345035 13.2105 -12.6183 14
437 1 -7.65504 -0.437524 11.0092 25
438 1 -16.506 -3.2778 -0.915494 10
439 1 2.19795 0.0403095 -1.48655 24
440 1 -4.67593 -0.295775 6.80618 22
441 1 2.53419 -14.7923 5.2866 18
442 1 -1.1479 -5.43961 -10.6699 24
443 1 3.86154 -8.95463 -10.5392 21
444 1 3.0002 -7.81739 9.06977 22
445 1 -15.2879 3.98042 5.19508 16
446 1 -12.431 -0.608305 10.6146 13
447 1 -9.9624 6.10488 6.81348 23
448 1 -1.78189 -4.99497 8.84808 22
449 1 -4.44088 5.77132 -12.8905 22
450 1 3.80089 -8.48954 -7.22018 24
451 1 -3.11179 -7.25117 -12.4332 23
452 1 -0.159452 -3.23379 14.05 17
453 1 3.87951 -11.8575 -7.18155 23
454 1 -6.80412 4.02116 -19.1237 9
455 1 3.18821 -13.0982 -1.18071 22
456 1 0.394435 6.49264 -9.31957 25
457 1 -12.3923 10.7236 4.91025 11
458 1 -0.461981 -0.310583 16.2866 11
459 1 -9.44956 -2.52242 -9.74126 20
460 1 -3.94856 -6.8976 3.83875 26
461 1 12.0904 0.865682 13.7693 13
462 1 8.75285 2.59344 0.60984 22
463 1 -6.98927 1.19481 4.87718 22
464 1 0.692292 -0.199993 -12.7028 24
465 1 4.40434 -9.73204 6.33728 22
466 1 0.717055 4.92396 1.12671 23
467 1 16.3939 7.18191 -0.524861 8
468 1 -3.54267 -3.54538 14.5447 21
469 1 0.66961 13.5909 -1.87167 25
470 1 6.80977 -7.39321 4.9914 23
471 1 -5.28643 -14.0624 -7.98903 15
472 1 -3.6532 2.99072 14.3688 16
473 1 -3.87432 14.8248 4.74036 21
474 1 -7.30877 -12.3583 -4.8831 21
475 1 9.84904 14.464 2.25966 12
476 1 5.98646 10.7116 10.3338 22
477 1 -10.1408 0.989177 9.45173 22
478 1 -10.3291 -7.96006 -6.76927 18
479 1 -8.15858 2.78747 11.0777 25
480 1 -13.4775 -2.89268 -8.77337 14
481 1 -8.03345 10.9491 1.55339 24
482 1 -3.65691 -12.2246 -9.604 15
483 1 3.9832 -3.38596 -13.2385 25
484 1 -8.64869 -14.4049 4.20064 15
485 1 -6.68232 -2.14513 5.05515 23
486 1 10.6686 4.73285 5.51609 23
487 1 -1.63974 -11.4432 8.77045 21
488 1 -9.43028 6.85402 -14.353 12
489 1 9.25331 7.22677 -2.50181 23
490 1 -6.45784 -15.803 -5.44885 14
491 1 -0.534081 1.67715 -6.2914 21
492 1 0.552881 16.6496 -2.18236 16
493 1 -1.06917 8.13477 -6.80046 23
494 1 -5.35277 9.48925 6.90602 22
495 1 -16.1058 0.304038 -4.74606 13
496 1 3.89833 16.6269 -6.41801 17
497 1 -1.53134 11.5226 -3.44534 24
498 1 -8.28709 -12.7541 -9.5534 11
499 1 5.44264 5.79449 16.2062 15
500 1 -1.58283 -10.4567 -7.72379 21
501 1 -1.57279 -2.3068 -10.9614 22
502 1 5.65305 -14.1732 0.636316 19
503 1 -12.2822 7.48603 5.02367 19
504 1 3.78404 7.08136 13.7388 21
505 1 8.7903 10.6235 -5.76744 25
506 1 3.41022 8.75139 0.151012 21
507 1 -8.68546 12.6947 -8.53273 17
508 1 2.91703 1.72876 -7.54689 22
509 1 2.28638 -8.19266 1.62288 24
510 1 -13.9231 -4.30742 -2.63166 18
511 1 4.06125 2.07442 0.379618 22
512 1 1.83198 13.6521 5.7459 23
513 1 -10.0305 7.20286 -10.2662 21
514 1 9.64094 3.90187 -5.44146 25
515 1 4.09582 13.1295 -9.6899 17
516 1 7.75813 -9.31551 -0.820003 21
517 1 12.3092 -0.59074 -3.2928 19
518 1 -1.85858 -2.01659 -14.185 20
519 1 0.523908 -8.8681 -3.01849 22
520 1 -6.40864 -5.56034 1.86092 23
521 1 4.82356 -12.9296 6.6356 18
522 1 -6.57029 6.08065 -4.07002 21
523 1 -3.52014 -10.5135 3.95426 26
524 1 2.97628 3.80631 3.4001 20
525 1 -0.915745 -8.74784 -13.8813 19
526 1 6.60655 14.2446 6.44549 14
527 1 2.57408 4.77125 -7.58205 23
528 1 4.81091 -3.1293 13.7992 20
529 1 -9.99929 -2.4802 9.20288 22
530 1 0.24445 -17.1501 -0.390202 19
531 1 -10.7757 -5.84805 -1.43482 25
532 1 14.7725 -5.35738 -1.59662 14
533 1 8.52142 -7.892 -3.63443 24
534 1 1.83036 3.30945 -4.84435 25
535 1 -6.4806 6.20539 -0.938857 21
536 1 8.57803 -11.4865 -6.55283 21
537 1 4.89907 3.36614 -8.92978 22
538 1 8.87938 -6.17553 -9.71983 16
539 1 -3.25797 -0.33564 14.7828 22
540 1 5.1666 14.156 1.75261 21
541 1 -0.757798 -0.556335 -16.9898 17
542 1 1.53233 -4.90532 4.54706 23
543 1 1.48931 1.37331 -15.1114 19
544 1 -1.9884 -5.07734 12.1719 23
545 1 -4.33992 7.97675 0.691873 23
546 1 -15.7085 4.80906 -8.41512 13
547 1 -15.9052 -0.0608627 1.53283 12
548 1 -0.944154 -5.41434 -13.9321 23
549 1 0.988739 -14.2475 11.0615 12
550 1 -3.09635 6.32684 -4.90963 22
551 1 15.7999 5.03483 10.2465 10
552 1 12.0842 2.7235 -3.56866 21
553 1 -9.52131 -11.0318 -3.36197 19
554 1 -2.41963 -8.98315 -1.71039 23
555 1 -1.68671 1.24082 -14.6285 20
556 1 -9.18337 9.99948 10.1642 10
557 1 -2.25021 -4.05245 -7.89215 22
558 1 3.64927 5.2672 0.351485 20
559 1 10.0254 -5.62313 -1.90108 21
560 1 6.04888 15.4983 -4.59985 18
561 1 4.76609 -4.68307 0.310682 25
562 1 2.41459 -3.28562 -1.38766 22
563 1 12.4418 4.27487 -6.48779 14
564 1 5.29461 9.21477 12.548 20
565 1 -11.9274 -4.42277 7.47446 22
566 1 -5.08315 -3.85092 -0.648603 23
567 1 2.2328 10.5949 11.0796 20
568 1 9.93119 -0.750625 11.6032 23
569 1 -1.8078 1.22474 -10.963 22
570 1 -10.23 -4.28227 -7.14988 20
571 1 4.72806 -3.01767 10.803 21
572 1 5.86769 14.0689 9.86446 14
573 1 4.61593 6.89064 -5.7477 22
574 1 -7.90366 9.31172 -8.86529 22
575 1 1.10823 9.92888 -2.10744 22
576 1 10.1686 6.55306 16.7649 13
577 1 5.9562 1.53024 -14.8782 14
578 1 11.8452 -7.05833 -2.73871 24
579 1 10.3783 11.0877 13.9184 15
580 1 -15.1758 -9.52694 0.763632 11
581 1 -6.21019 14.3701 -9.90493 15
582 1 2.2745 1.85994 8.9735 23
583 1 -10.2358 -2.05994 12.1402 19
584 1 -4.19755 16.2965 -8.17182 15
585 1 -1.20908 -13.6577 -7.46269 17
586 1 5.56921 -3.09378 -8.99838 23
587 1 0.534674 16.7097 -5.41061 18
588 1 -7.23909 -0.789588 -11.0811 23
589 1 7.39092 -10.7138 8.4906 19
590 1 -12.8347 -2.69899 -5.63404 20
591 1 3.25748 9.64373 -13.8941 17
592 1 -5.95892 2.86409 -0.638708 20
593 1 -0.832257 6.90844 13.876 18
594 1 -13.4333 -4.41403 0.109 20
595 1 6.14603 7.21212 -1.3308 22
596 1 1.63594 -10.246 -8.74935 23
597 1 6.92636 -0.961849 12.4763 25
598 1 7.20004 2.55137 -3.83652 21
599 1 1.28341 -1.70322 1.39189 22
600 1 -9.14576 7.39585 -2.94763 22
601 1 8.66051 4.10772 14.4075 22
602 1 5.87564 15.3031 -7.91861 14
603 1 10.7251 -9.3355 -1.31634 21
604 1 4.53019 8.96314 8.0533 21
605 1 -1.53934 6.30314 -17.0895 14
606 1 -0.451838 -14.7556 5.98114 20
607 1 -4.87915 1.01497 -10.2182 20
608 1 5.32554 -5.18712 -15.4201 14
609 1 2.18195 13.7146 2.42856 26
610 1 7.36541 5.34637 -7.12849 23
611 1 -6.5059 -2.54398 -13.7486 21
612 1 -4.48457 -10.2924 -3.57405 21
613 1 -9.85275 0.502783 -12.8957 18
614 1 11.4594 1.23939 2.46155 25
615 1 14.0171 4.45629 -1.10171 17
616 1 8.41272 -8.08916 -6.9522 22
617 1 10.8664 8.02357 13.85 17
618 1 6.36658 -10.0073 -8.40932 22
619 1 3.43473 3.10942 -13.3561 21
620 1 7.193 12.5482 4.14756 23
621 1 -9.55014 5.99697 -0.0462757 24
622 1 7.37956 10.8111 14.793 15
623 1 9.625 4.19695 -2.19678 23
624 1 12.5886 -3.63265 -0.11775 24
625 1 12.6993 4.2688 -10.5188 9
626 1 4.15878 3.76914 14.0621 22
627 1 13.4527 6.82428 12.3893 15
628 1 -2.92329 -6.8301 14.7251 13
629 1 10.4008 12.5564 -0.357969 12
630 1 6.73452 0.550915 2.08549 24
631 1 1.55017 5.00456 12.3575 22
632 1 7.99612 -4.57363 -3.95503 24
633 1 7.6278 4.15421 6.52747 23
634 1 -10.5598 -0.907117 -7.12043 22
635 1 14.5745 5.11733 1.82086 15
636 1 12.2578 -5.40434 5.43044 18
637 1 -1.80475 -7.32925 -4.81287 26
638 1 -8.56976 6.4472 11.1402 17
639 1 7.99062 12.8433 11.8622 14
640 1 9.45466 6.29435 8.22589 23
641 1 0.0683648 11.8176 9.51703 20
642 1 -2.5227 15.01 9.4778 15
643 1 8.82471 2.49248 3.92047 23
644 1 1.84737 -18.3034 2.26365 11
645 1 -5.64931 10.9796 -10.4562 21
646 1 11.9566 11.0136 -6.59068 13
647 1 10.7546 -0.951233 -11.4126 11
648 1 3.88455 13.416 -6.32737 25
649 1 -4.18809 -12.4818 -5.93001 21
650 1 10.1521 -12.8789 -8.94536 10
651 1 -15.3959 3.74514 8.14432 10
652 1 -11.8308 8.95178 -7.41395 18
653 1 -0.100299 -16.8115 3.92454 17
654 1 -7.11493 2.41188 -12.1616 22
655 1 -10.1318 -0.893771 -4.16971 23
656 1 10.5469 -10.7277 4.16768 20
657 1 12.3921 10.1124 4.67259 19
658 1 4.54914 -9.49072 3.26063 24
659 1 -15.0534 3.12795 -10.8307 9
660 1 1.11076 1.78154 1.26248 23
661 1 0.322994 3.36397 -12.5887 21
662 1 0.421885 -3.06974 7.28773 25
663 1 -0.0642111 -0.186432 13.5719 24
664 1 3.06344 6.61442 -13.4284 21
665 1 13.6899 3.41144 12.3673 15
666 1 6.98126 8.62397 -7.28637 25
667 1 4.35241 -1.31674 0.594503 21
668 1 11.9504 12.9431 4.08732 14
669 1 1.86812 -13.8482 -8.48411 16
670 1 -10.5057 4.52848 13.0294 11
671 1 9.59424 -10.9835 1.43377 16
672 1 -5.46856 13.7106 9.94209 11
673 1 5.25366 11.4267 -12.407 13
674 1 -8.87601 10.8298 -6.3015 22
675 1 11.154 9.38867 -0.264421 21
676 1 -8.4768 -14.0654 1.62896 20
677 1 14.3045 -1.40024 1.8811 20
678 1 7.21075 15.4771 3.4456 16
679 1 1.68421 5.823 15.2077 16
680 1 -8.54007 -4.14258 3.54769 22
681 1 -9.32995 -2.9696 -13.0627 19
682 1 10.2264 2.74298 8.41276 20
683 1 -1.43837 -8.0177 8.77525 25
684 1 6.02435 5.48563 12.3569 26
685 1 -4.18076 8.01294 -2.66404 20
686 1 12.0369 5.74797 -3.39817 19
687 1 4.59557 -1.3846 -3.02606 24
688 1 5.38851 2.28372 4.88538 23
689 1 3.02083 -1.78637 -10.5327 22
690 1 -6.83375 -2.10994 8.3641 23
691 1 8.37219 0.445036 -9.83926 21
692 1 -7.57276 -5.71602 -5.61734 20
693 1 12.8824 -10.7307 -2.90084 14
694 1 6.91034 7.51102 6.50272 21
695 1 5.25386 5.73185 4.58309 23
696 1 -7.36318 -7.31281 11.3022 22
697 1 8.45043 9.42321 9.02846 20
698 1 6.48533 2.37106 16.0231 17
699 1 -2.86764 4.64352 11.9107 25
700 1 -3.64249 -4.18862 -12.6189 21
701 1 -9.82829 -2.4941 14.8819 9
702 1 -3.94034 4.7156 -2.33669 22
703 1 7.52029 0.927834 9.75203 23
704 1 -5.86904 -12.2538 8.51691 16
705 1 13.9552 8.26481 1.18441 19
706 1 8.75316 -14.7279 -3.29455 12
707 1 -5.46278 7.68161 -10.2452 22
708 1 5.66079 10.54 -1.45289 23
709 1 9.73638 14.5111 5.50816 14
710 1 3.60691 -3.46924 -16.9911 10
711 1 2.40346 -1.28388 9.16835 24
712 1 1.46743 10.1206 -5.0924 24
713 1 10.6869 7.92771 2.16692 24
714 1 -2.69715 -5.68778 -1.97409 22
715 1 -7.22816 -9.11679 -2.24748 22
716 1 -0.963834 3.02657 -16.7601 14
717 1 -9.28908 10.9058 -2.63742 21
718 1 6.0913 -6.69143 -8.85419 22
719 1 6.35101 3.82122 2.11711 24
720 1 10.248 5.16262 -11.5501 14
721 1 6.55279 12.0537 -4.55022 25
722 1 -2.4785 5.13193 5.20212 24
723 1 -7.60764 7.87287 1.43044 23
724 1 6.73826 9.03699 -4.18267 22
725 1 11.3512 4.91655 13.7661 16
726 1 8.92987 0.918112 14.4546 19
727 1 -2.17762 -7.95224 12.1042 20
728 1 -7.3631 10.8755 -14.6284 11
729 1 0.393596 14.9494 8.87795 16
730 1 4.73255 -10.365 -12.8276 12
731 1 5.05522 2.34649 8.0333 22
732 1 8.48267 13.9748 -6.11124 17
733 1 7.9894 9.07506 0.529917 20
734 1 -4.64168 -0.179719 3.36076 23
735 1 16.3887 -3.46535 1.03664 12
736 1 7.03469 7.49243 18.6557 10
737 1 -16.1545 -5.51098 4.78156 10
738 1 7.14119 -10.6661 5.14247 21
739 1 -2.75912 2.8742 -8.22644 22
740 1 -4.27791 16.455 -4.88592 17
741 1 -0.035276 3.30691 7.25267 25
742 1 4.86738 -4.58757 -2.94522 23
743 1 5.39839 10.8665 1.92636 21
744 1 -10.9918 -2.58186 5.13696 22
745 1 -0.483542 6.6171 10.4672 20
746 1 -7.13625 7.5616 -17.6906 9
747 1 -8.86231 5.24067 -16.8346 13
748 1 2.59958 -11.4386 1.78851 22
749 1 2.31327 8.59976 -10.7618 21
750 1 4.1645 -6.13132 3.30376 25
751 1 0.569214 5.37774 4.33457 24
752 1 -10.3192 4.45264 9.58294 22
753 1 3.89177 -0.0420361 -13.2772 22
754 1 11.5581 -10.3883 9.13947 10
755 1 -0.0450435 11.8869 0.882989 23
756 1 -2.7757 1.24568 12.0255 20
757 1 -6.49121 -2.13616 1.80587 23
758 1 -6.00073 -5.98094 -13.6103 19
759 1 -5.86078 -6.61351 -16.6988 10
760 1 -6.30784 -10.9312 -11.2038 16
761 1 2.06697 14.9164 -8.01139 23
762 1 0.215061 -5.39096 -6.58996 25
763 1 -0.745476 -3.6435 2.9045 22
764 1 -9.8383 8.93913 3.28044 24
765 1 3.64518 -13.135 -4.4827 24
766 1 3.5114 -16.5516 -0.437381 12
767 1 11.1818 -7.65643 11.3255 11
768 1 13.24 -2.36187 -5.91323 13
769 1 -3.31024 -15.8457 -6.2443 13
770 1 -10.5565 -9.292 5.25536 21
771 1 -0.124163 -2.03092 -6.54887 22
772 1 -5.35913 -14.3314 0.497646 20
773 1 -8.81709 -14.4799 -7.5089 9
774 1 0.118025 -1.93861 -3.47312 24
775 1 -5.82846 -2.04448 12.761 24
776 1 -6.06536 -14.9146 3.83712 16
777 1 11.996 7.47486 -6.05713 12
778 1 -2.74258 16.2495 2.51282 14
779 1 -4.7603 3.14006 6.6845 25
780 1 -14.4695 8.76393 2.7051 10
781 1 11.2621 -2.01909 2.48923 21
782 1 -12.0772 2.06852 -11.749 15
783 1 1.79485 11.4878 -7.763 23
784 1 12.7962 0.943524 -6.23789 15
785 1 4.59562 12.1195 12.764 17
786 1 1.1482 -1.46621 4.69225 22
787 1 7.0869 5.72552 -4.15583 23
788 1 -15.5209 1.97801 -7.68575 16
789 1 -9.03012 -6.06267 -9.40852 19
790 1 2.899 8.26408 16.056 13
791 1 3.05177 4.9283 -10.981 23
792 1 11.5308 12.7914 7.50195 14
793 1 -2.59218 -1.86487 12.1859 23
794 1 -7.72348 -16.803 1.37749 11
795 1 -0.889018 -17.5849 7.10589 11
796 1 -0.860149 -11.9848 5.64914 26
797 1 13.1096 10.0041 12.2061 12
798 1 3.09306 -10.1535 -4.33877 20
799 1 -6.72893 9.34355 -4.28632 21
800 1 8.04905 9.23442 3.55006 22
801 1 -6.41002 -5.72679 5.16544 23
802 1 7.91602 7.09569 -9.88833 20
803 1 -2.30935 -18.9843 -1.56486 11
804 1 -1.8162 -18.9628 1.62848 11
805 1 2.77595 -14.778 1.57531 21
806 1 5.95338 5.50883 -11.9504 22
807 1 8.55934 14.0093 -2.36833 19
808 1 -4.2894 5.81274 -16.2339 18
809 1 -0.154275 0.0155425 10.617 24
810 1 0.196227 6.51853 -12.3847 23
811 1 -13.1237 0.556092 -8.97427 20
812 1 -7.82618 -2.25198 -5.78867 21
813 1 8.18288 17.0964 -2.94539 9
814 1 9.58117 -7.44915 4.02332 21
815 1 -2.8114 -5.85093 -18.2605 10
816 1 -5.07133 -7.57404 -0.595425 22
817 1 9.28954 7.16894 -5.3879 23
818 1 9.66046 -7.4815 0.815831 24
819 1 -4.98386 -0.284136 10.2411 22
820 1 5.28984 -8.11733 -2.65366 22
821 1 14.6142 -5.22613 2.09868 12
822 1 12.5352 -2.59477 12.9281 13
823 1 3.70125 7.1037 10.6561 24
824 1 -12.7673 2.43789 10.9447 14
825 1 -6.92174 1.22362 8.17967 25
826 1 0.107579 -13.2881 3.04715 24
827 1 8.8214 -0.755494 3.86384 23
828 1 8.34999 9.38776 12.1924 23
829 1 -10.8851 -2.60975 -1.585 24
830 1 6.15934 -9.65377 -4.96094 21
831 1 1.94313 3.55866 -1.66762 24
832 1 -11.7863 12.1394 -7.48125 13
833 1 2.93635 7.34157 2.87667 22
834 1 4.0392 -10.7959 9.20484 22
835 1 2.39678 -1.36889 12.6178 21
836 1 -0.657054 11.8414 4.07959 23
837 1 2.03951 -11.3277 4.8663 24
838 1 -6.55077 1.49235 1.58106 22
839 1 4.61061 0.571339 11.0769 24
840 1 -13.2105 -1.03713 -3.36076 22
841 1 -3.08177 12.0333 11.6096 15
842 1 5.3858 14.0258 -1.65718 24
843 1 -10.2339 -8.92025 -1.5018 24
844 1 1.71918 -13.0506 7.71313 21
845 1 8.364 -5.66965 9.8922 22
846 1 12.3464 -8.68215 6.32914 11
847 1 6.32744 10.8841 7.01699 20
848 1 -0.671275 4.5629 -3.29947 23
849 1 1.34544 -7.04272 -9.0793 22
850 1 -2.96445 6.28141 -8.23295 24
851 1 -7.96705 -0.308057 14.3686 22
852 1 -2.70296 13.013 2.28445 25
853 1 15.7738 1.98305 6.10857 10
854 1 -0.248758 13.2129 -9.36648 22
855 1 -4.41391 6.33327 14.4561 13
856 1 6.70476 7.31335 9.91364 22
857 1 6.23145 -1.38099 -11.5465 24
858 1 -7.48564 -12.7978 -1.43631 21
859 1 -5.52923 -0.416167 -4.07222 24
860 1 14.3947 1.87002 1.31357 19
861 1 1.08085 -3.67103 -9.24649 21
862 1 -2.98433 8.21172 8.85368 21
863 1 13.5073 -8.9199 -5.21983 12
864 1 3.73653 6.95382 -16.6697 11
865 1 -7.40752 -9.03643 -5.41812 21
866 1 10.3724 2.15609 -11.3791 17
867 1 11.7388 -0.503225 -0.340493 24
868 1 0.298892 -3.16203 10.6666 24
869 1 1.27812 -7.00288 -12.4567 25
870 1 -0.965243 -0.230191 -0.490161 26
871 1 7.38812 12.7175 0.819007 22
872 1 1.8843 -8.14136 4.60961 24