ITEM: TIMESTEP
321000
ITEM: NUMBER OF ATOMS
2000
ITEM: BOX BOUNDS pp pp pp
-30.0 30.0
-30.0 30.0
-30.0 30.0
ITEM: ATOMS id type x y z Coordination
1 1 -9.31512 8.32316 -15.4296 12
2 1 -4.85829 -8.46633 -9.42073 20
3 1 1.17804 13.1907 11.9382 17
4 1 4.98723 -9.48094 9.46293 22
5 1 -13.2018 10.7374 1.37206 17
6 1 11.1496 -9.83411 -8.88122 11
7 1 -9.06066 4.27343 -4.88935 21
8 1 0.788509 -12.0113 12.3122 14
9 1 -7.37792 5.06164 -11.5787 20
10 1 -16.1279 -6.53797 6.92689 13
11 1 12.7771 2.76076 -10.3262 15
12 1 -2.69057 3.12753 -4.70558 23
13 1 -0.804228 -15.0094 2.35468 20
14 1 -9.53937 -7.86433 -1.05134 18
15 1 2.17181 1.83472 14.9205 20
16 1 7.86319 -2.15186 7.04765 22
17 1 1.37722 5.3275 8.9353 22
18 1 6.70332 -2.25882 2.55163 23
19 1 0.307818 9.43513 -9.40821 22
20 1 4.29955 -0.489971 13.7291 18
21 1 -5.69039 -0.394598 -17.0089 12
22 1 -6.10445 -5.27122 14.1786 15
23 1 11.3872 5.14486 10.6167 20
24 1 -0.435311 9.35807 -12.4036 24
25 1 7.59776 2.11766 -13.3944 22
26 1 12.8557 -1.24343 10.2898 15
27 1 -10.0474 3.21455 5.96145 22
28 1 -13.6013 6.20992 -7.94824 13
29 1 -2.32887 -0.560248 -7.98058 19
30 1 -11.1992 8.7712 8.01087 16
31 1 9.90078 -11.9713 4.49736 11
32 1 2.49036 -9.61028 11.5371 17
33 1 1.61774 -12.7241 -12.0538 13
34 1 11.1428 -13.2695 -1.12929 14
35 1 -8.45486 -14.0194 -2.32728 14
36 1 -10.6438 -2.36235 15.1174 14
37 1 2.93659 -2.9907 -4.56952 22
38 1 4.61616 -3.85585 -11.6185 21
39 1 9.72873 -10.4419 -11.1577 10
40 1 -0.916648 6.47057 -17.6245 14
41 1 -0.747694 1.65255 13.4871 21
42 1 2.28929 -14.5742 11.0005 14
43 1 5.55481 -9.58988 12.3175 15
44 1 -8.97548 -0.861757 0.22633 19
45 1 -15.6516 -1.46344 6.85284 17
46 1 -9.97191 2.98251 2.97794 18
47 1 2.92732 15.7667 -0.109113 20
48 1 -1.65622 -12.5627 -12.7081 11
49 1 0.658855 3.35514 -8.94135 21
50 1 4.36421 -4.1 -7.58604 23
51 1 -5.01592 -5.94764 11.6745 23
52 1 -13.1434 5.0202 -1.17029 21
53 1 -0.930596 11.269 -6.74767 23
54 1 -0.901746 13.0952 8.07027 20
55 1 -7.9481 8.44679 -11.5934 18
56 1 -4.52732 11.332 -2.33506 23
57 1 5.12161 -13.6097 4.36274 17
58 1 7.1579 -6.32742 -4.44698 23
59 1 4.73305 -7.67814 -11.9477 21
60 1 -9.28353 8.36857 10.4137 16
61 1 -13.0377 -2.11012 -8.91423 15
62 1 10.8218 -1.85086 6.29149 20
63 1 -5.3515 7.66711 -6.70783 24
64 1 -7.52895 -7.80428 3.43029 21
65 1 -3.67227 12.353 9.69154 18
66 1 -10.5852 6.01806 -7.46428 18
67 1 -6.22249 10.0765 10.1578 16
68 1 1.56937 6.66771 -4.67281 25
69 1 2.84393 3.65906 6.61174 23
70 1 -0.0245618 -16.3562 9.4244 14
71 1 4.59087 5.72273 8.03802 20
72 1 -0.983626 -16.7691 -5.11732 12
73 1 3.95649 11.9513 13.6196 17
74 1 -9.69466 0.0528263 -8.74802 21
75 1 -10.3791 7.42841 -12.6754 18
76 1 4.06916 4.45324 10.8418 22
77 1 12.5371 -2.89788 -8.23559 17
78 1 12.0446 -11.6906 1.59169 15
79 1 -12.3982 -1.81371 0.649746 19
80 1 -10.6449 -2.27306 7.30952 21
81 1 4.88833 15.7562 4.11083 16
82 1 7.61737 -2.33954 10.6566 18
83 1 -4.124 -10.2157 8.21248 17
84 1 -7.97036 -1.28582 3.68775 22
85 1 12.5311 3.69856 7.82626 25
86 1 5.70378 -3.39047 -4.6921 22
87 1 -3.04441 11.8851 5.34511 18
88 1 8.22977 -8.44584 10.859 15
89 1 -6.32834 -6.97426 -1.72659 19
90 1 -4.4746 -5.4044 -6.21662 24
91 1 -13.4524 6.3872 7.69936 18
92 1 -8.64455 10.715 -5.8738 22
93 1 -4.36926 9.26625 -12.4782 20
94 1 2.41193 0.169522 -4.4185 22
95 1 3.48449 -1.39658 -7.10557 20
96 1 7.35345 12.9444 -12.1438 10
97 1 7.59468 -8.40309 1.58516 24
98 1 3.44867 -4.77729 9.322 19
99 1 -6.13835 15.7654 -5.73677 15
100 1 -10.181 13.9089 -0.371734 16
101 1 -0.788682 -5.56002 12.9144 15
102 1 -10.8021 11.9264 2.66428 17
103 1 -9.91471 -5.17651 11.8161 17
104 1 11.7943 -8.40115 -5.49015 13
105 1 -12.4751 2.13945 4.10061 19
106 1 -11.3421 -11.1861 4.62937 17
107 1 10.9793 -4.02263 -6.43336 22
108 1 0.946421 -0.0238605 -9.07823 21
109 1 -2.08914 -0.618259 -16.2017 17
110 1 5.60831 -0.661827 5.26285 22
111 1 -2.27631 10.2493 2.48141 22
112 1 -2.26048 7.66467 -14.1568 23
113 1 0.0808433 6.99499 13.0065 20
114 1 2.91473 15.6866 -3.35591 19
115 1 -12.8504 11.5098 -1.78618 13
116 1 0.206314 8.4381 1.06295 23
117 1 -0.579413 1.6296 -2.67424 20
118 1 -11.0722 -8.19231 5.3442 21
119 1 15.1438 -1.2243 5.12498 12
120 1 -1.57006 -3.57741 -4.65769 22
121 1 3.97919 -6.26168 -5.06569 22
122 1 -2.49783 2.32044 8.69596 22
123 1 6.46483 -1.7614 15.4572 13
124 1 -9.45344 -5.37215 -7.61491 20
125 1 7.24223 -5.77898 2.50639 23
126 1 -10.4369 -7.15775 -4.38601 20
127 1 14.8325 -8.38773 2.45077 11
128 1 -4.58318 2.98325 3.6987 22
129 1 6.82574 3.11824 -16.8846 12
130 1 7.86418 17.3776 -3.86444 10
131 1 -9.14734 -13.0759 6.77395 14
132 1 -6.67835 -14.7334 5.0553 18
133 1 -2.00627 6.6928 3.05211 20
134 1 -2.31297 -3.68043 -16.963 16
135 1 4.89483 6.70222 -8.78434 17
136 1 9.24546 -10.5145 -0.430038 23
137 1 2.89429 -18.8633 5.58226 8
138 1 -10.0234 -4.91235 -1.83989 20
139 1 15.9973 7.7541 8.4888 12
140 1 14.3629 0.0410916 -6.47262 15
141 1 -16.7744 -4.74443 1.7667 11
142 1 8.22017 5.82871 4.00533 21
143 1 13.4186 6.59811 1.51303 17
144 1 -3.65349 3.07408 14.8349 14
145 1 7.02054 0.935621 -0.777119 24
146 1 -5.25119 9.87056 3.50663 23
147 1 -3.24634 16.4626 -4.93774 16
148 1 -3.36033 -6.05353 -8.97768 22
149 1 7.77164 -11.6399 -8.86361 17
150 1 -0.141309 14.5696 -11.8157 13
151 1 4.28308 -6.48925 13.0661 16
152 1 3.36112 -0.919639 -16.6936 14
153 1 -6.75593 13.2868 -4.93881 19
154 1 8.28748 -0.491752 -3.42159 22
155 1 -12.8839 11.3096 -4.75662 11
156 1 -0.450371 -3.52047 -0.358836 23
157 1 -5.55604 15.0922 -2.32011 18
158 1 8.22311 3.27836 -10.8321 20
159 1 10.8567 -7.85676 7.46084 15
160 1 -5.55548 11.0082 -7.1522 23
161 1 -7.9986 11.9805 4.86091 17
162 1 13.046 7.52508 -7.69983 11
163 1 -1.60471 2.957 -0.565093 23
164 1 3.56193 8.52137 -3.09365 24
165 1 -0.265596 15.06 0.952305 19
166 1 8.793 10.7337 -2.41218 22
167 1 -1.04494 8.22548 -3.18365 23
168 1 -0.0205894 16.2675 -8.55167 12
169 1 4.98295 8.2664 -15.6356 11
170 1 -12.9138 -8.71584 2.56021 19
171 1 -15.2361 9.33822 -0.329511 13
172 1 -3.34428 -0.550393 -12.3631 22
173 1 0.254932 -10.0345 -11.5704 22
174 1 10.2175 13.3744 7.44543 16
175 1 -1.07337 16.1469 7.47343 12
176 1 -12.4444 0.539188 -6.95869 18
177 1 -12.039 7.8413 0.123375 22
178 1 14.8394 -2.53644 -5.74323 14
179 1 -4.46568 -2.01114 -14.6247 17
180 1 10.4329 3.19083 16.3764 10
181 1 2.04326 16.2915 6.05167 15
182 1 0.710628 8.12827 9.51585 25
183 1 2.48608 -9.43302 -13.825 13
184 1 -0.186564 15.6417 4.13915 13
185 1 -3.12105 9.82813 -5.03036 23
186 1 5.00257 -6.70071 10.3916 21
187 1 -10.6283 -5.11128 6.31717 21
188 1 -1.50088 -8.87227 -13.7096 13
189 1 -10.8076 10.7862 -10.9624 11
190 1 -2.80104 -7.89231 6.65894 19
191 1 3.73163 -14.4423 -5.49429 13
192 1 -2.77207 10.7265 -14.5112 18
193 1 -15.1453 1.28817 8.16515 17
194 1 1.20904 7.04445 -1.67288 24
195 1 11.4255 9.62543 -6.15142 18
196 1 -8.34159 2.47334 13.6006 17
197 1 -1.86945 -11.467 10.0255 17
198 1 -10.9255 2.42157 -6.26678 22
199 1 2.24997 16.8084 2.71161 15
200 1 -0.603024 3.57289 10.4798 24
201 1 15.105 2.34976 9.4773 12
202 1 -4.50387 11.6391 1.08774 22
203 1 11.9574 -6.24826 -8.19482 15
204 1 -5.3142 11.1649 6.9312 20
205 1 -5.61382 4.46072 -5.72338 24
206 1 12.923 -10.5696 -0.692405 13
207 1 -5.59968 -9.03405 5.88746 21
208 1 -14.9234 0.810875 4.69182 17
209 1 -6.21542 -13.316 2.56773 21
210 1 7.32142 0.347754 13.1417 23
211 1 -16.1813 0.732689 -1.70411 12
212 1 -1.42269 -0.178498 2.90683 22
213 1 -4.4334 -16.1924 7.0231 18
214 1 -0.19099 0.247203 7.05236 25
215 1 -8.47169 0.882729 -2.15756 20
216 1 0.311728 -6.92414 -0.551235 23
217 1 -3.14864 8.85317 5.40556 22
218 1 -9.971 0.287511 5.34339 20
219 1 4.2474 13.7492 10.5695 15
220 1 -4.92035 1.04574 -6.22836 21
221 1 -8.46041 12.2762 -8.55525 17
222 1 -11.7626 -4.85342 -10.4398 14
223 1 -3.25038 -8.06131 13.6221 13
224 1 -2.05243 -8.62187 3.39578 20
225 1 5.81273 -11.8214 7.14214 17
226 1 -14.1683 11.8998 4.16453 11
227 1 13.0875 0.267104 4.45612 19
228 1 4.99079 3.66391 -5.45509 24
229 1 -5.81326 -5.32621 -11.1981 21
230 1 3.7214 -2.75473 6.89931 20
231 1 -5.64276 -5.90078 5.12335 19
232 1 6.74559 -11.2425 4.1224 19
233 1 -2.9513 9.36041 -8.24441 24
234 1 3.4891 -11.079 -11.2184 20
235 1 10.8415 1.73647 -13.285 15
236 1 2.01098 7.18381 -16.5706 14
237 1 -2.37908 -0.284811 -4.56017 21
238 1 -1.44495 14.5138 -6.89749 20
239 1 -12.2149 -9.38238 10.3773 9
240 1 8.05239 14.6807 -5.87303 16
241 1 -9.61795 -5.64589 14.6931 13
242 1 -7.99812 11.3741 -2.73336 17
243 1 7.70708 0.940629 6.82475 22
244 1 -4.68747 -3.20723 -8.83448 22
245 1 -3.2886 12.5555 -8.48277 21
246 1 -2.39208 4.32524 -10.384 20
247 1 -10.7635 -10.0695 7.62844 18
248 1 -1.68129 3.40064 2.7492 23
249 1 -6.55994 4.67029 8.83183 19
250 1 -7.25562 7.69977 8.06227 21
251 1 1.71012 -11.771 -5.03719 22
252 1 -6.75212 -15.9466 -0.430128 14
253 1 9.91027 -14.6726 -3.80977 9
254 1 -2.32456 1.24638 5.35695 25
255 1 -1.72505 -2.17126 5.48367 22
256 1 -1.57834 -6.31379 -5.87328 22
257 1 10.7871 8.70939 13.6098 15
258 1 4.78239 10.1722 -9.3828 20
259 1 3.21022 12.355 0.230981 20
260 1 -12.2663 4.98454 5.02326 22
261 1 -12.1718 13.7304 1.53371 9
262 1 -2.03384 7.90891 11.2973 19
263 1 3.50565 -15.8769 1.50737 16
264 1 9.94029 -3.41712 1.45988 21
265 1 2.47916 7.12068 6.33942 23
266 1 -9.12631 5.52925 4.0105 20
267 1 -14.1664 -2.06331 -5.79581 12
268 1 9.66478 4.48507 -8.88474 16
269 1 5.32647 -6.59887 6.74435 21
270 1 7.85109 11.2047 -9.6397 20
271 1 3.39795 -11.2607 -2.23515 21
272 1 -1.21845 2.91371 -16.4957 16
273 1 1.48036 -14.8839 7.30942 18
274 1 9.98944 1.25047 -8.72116 21
275 1 -13.7282 -3.77907 6.77111 21
276 1 4.46775 -15.612 -1.64632 12
277 1 -7.68955 -2.65638 -15.1636 13
278 1 3.36456 12.3166 -3.15672 21
279 1 1.04468 -3.55974 -11.6317 22
280 1 -5.14217 7.20966 10.3685 21
281 1 14.7407 -4.52495 5.3528 13
282 1 -7.83965 -5.6408 0.868746 21
283 1 11.3829 -3.86638 -10.9653 15
284 1 -0.032317 -9.52365 6.04343 21
285 1 -8.74992 0.944135 -16.1154 16
286 1 -12.9487 5.52895 -11.1336 11
287 1 -5.79948 -11.8678 5.90174 23
288 1 10.2992 -0.175279 8.2429 21
289 1 8.50971 -5.95529 6.90022 22
290 1 -6.93045 -8.93558 -11.988 15
291 1 2.55234 -11.703 8.7219 22
292 1 -2.50033 7.735 -11.0072 21
293 1 6.10511 7.23602 2.0207 20
294 1 -10.4685 -5.97811 3.23024 20
295 1 2.08175 10.5193 3.39441 20
296 1 -7.90802 -5.3194 9.89663 19
297 1 -11.5715 -7.63436 -8.76322 12
298 1 -6.51509 -5.77366 -8.50946 19
299 1 -3.52311 8.46555 -16.6418 13
300 1 -5.17516 -9.88819 -2.3752 19
301 1 -5.27532 -9.87402 2.81956 21
302 1 -4.52668 -4.1705 -0.459368 21
303 1 9.8538 -5.0236 -13.6697 14
304 1 12.9658 -0.0313812 -8.49176 18
305 1 6.14069 -4.23548 5.13697 24
306 1 11.0581 4.81521 2.36308 19
307 1 -5.50351 -4.25884 -2.93091 20
308 1 -12.932 -6.80178 7.89303 19
309 1 -3.30594 -14.5144 0.351143 23
310 1 8.20112 6.31658 16.181 14
311 1 0.268531 -18.2865 6.8482 13
312 1 4.46751 1.95101 -2.50167 24
313 1 -1.11299 -9.64516 0.606723 18
314 1 -3.01242 13.168 -0.200119 22
315 1 6.20639 0.104034 -15.6137 17
316 1 -3.45005 -5.13068 -14.4319 16
317 1 2.96851 -6.32173 -1.05305 19
318 1 -14.6086 -5.95039 10.5376 12
319 1 3.13453 7.35164 16.8169 14
320 1 -2.36751 -16.3705 -2.83973 18
321 1 -3.78453 -10.5507 -11.825 16
322 1 -12.1081 5.99836 -14.7111 10
323 1 11.9987 6.93135 8.04055 19
324 1 -5.41151 3.67853 -9.37447 20
325 1 2.44058 8.28911 -7.30731 23
326 1 -2.7312 -4.65876 7.01714 23
327 1 5.98072 -13.6574 -7.64458 14
328 1 -2.47255 17.9009 -2.73811 10
329 1 1.96938 10.339 6.86301 21
330 1 10.9284 1.76869 5.84898 24
331 1 -13.3412 -0.32777 2.80578 18
332 1 -3.58618 -0.357694 14.3551 13
333 1 -6.89815 12.9866 -0.420993 23
334 1 6.2815 -5.47285 -14.1594 15
335 1 11.9715 9.79046 -2.93934 17
336 1 2.06832 -9.56191 -0.00605683 23
337 1 -6.3526 -1.83584 15.0652 17
338 1 -16.6427 -1.696 3.54983 15
339 1 -0.795095 -14.4224 -1.31308 19
340 1 -6.70819 7.99977 12.4721 13
341 1 -8.838 5.38662 12.1783 16
342 1 -15.0196 -3.76828 12.1277 12
343 1 -13.1597 -1.13725 8.70688 19
344 1 7.55207 -1.42228 -6.00652 19
345 1 -14.0887 -9.24306 5.91449 14
346 1 8.25569 -3.35546 -11.6195 22
347 1 12.0469 -8.64853 1.23374 19
348 1 5.35328 17.543 1.39848 13
349 1 -0.671113 -6.19894 4.92528 20
350 1 -8.46404 15.0988 -2.93268 16
351 1 5.36323 -0.885317 8.6244 20
352 1 10.338 8.28238 10.7616 21
353 1 -13.3375 -6.50089 5.15512 23
354 1 7.46747 -12.0236 0.932232 20
355 1 -4.93321 6.33897 4.01817 21
356 1 -6.78502 4.41195 5.87696 20
357 1 0.671428 1.88248 4.52926 23
358 1 1.36151 -6.77247 11.0013 21
359 1 13.3952 -7.03138 4.81198 15
360 1 -1.69058 5.86861 9.11099 20
361 1 -6.52896 -0.851604 -7.91339 21
362 1 3.82017 -2.76606 3.63369 21
363 1 1.71484 -0.372854 12.5062 24
364 1 -7.03653 16.0926 0.139925 12
365 1 9.2713 9.41211 16.012 12
366 1 -9.23233 13.8515 -6.17613 14
367 1 2.51275 -4.13404 -16.3876 16
368 1 -5.87314 2.56878 -3.75061 24
369 1 6.51879 -10.3678 -11.0868 15
370 1 -12.1222 2.79457 7.70474 20
371 1 -13.3264 2.32246 0.714289 17
372 1 -3.85395 -2.54267 -6.40708 20
373 1 -6.52227 9.68423 -0.962293 23
374 1 9.78328 -4.00961 8.86471 18
375 1 -12.2321 -12.4808 1.91973 10
376 1 13.7053 -3.07547 7.67491 16
377 1 -3.55414 1.35168 0.974714 24
378 1 -7.13539 -13.3936 10.8131 9
379 1 -11.9633 3.36949 -3.21403 17
380 1 1.86962 -4.05261 13.6264 16
381 1 2.6614 -13.9073 -2.98612 18
382 1 -6.3799 0.580351 -13.8484 24
383 1 10.2345 -1.64409 -13.5386 17
384 1 4.65917 12.4357 4.77832 21
385 1 -11.9139 0.860371 -0.839328 19
386 1 2.89882 -6.39811 -9.14676 21
387 1 6.26423 5.40209 -14.8585 15
388 1 -4.62144 -12.8376 -7.10384 17
389 1 -12.8832 -7.31273 -5.36244 13
390 1 -3.54092 -7.788 -0.157831 20
391 1 11.4719 6.41298 15.9575 10
392 1 -3.22969 -1.89606 0.795643 21
393 1 10.0608 1.35794 -1.59428 20
394 1 -9.40543 3.01094 -9.62231 22
395 1 7.85011 16.7339 -0.524004 16
396 1 -8.42293 -1.9755 -3.55011 18
397 1 3.22805 0.887911 3.19409 22
398 1 -6.82476 4.30289 2.3547 21
399 1 -2.53628 14.7526 -2.86409 19
400 1 -1.25954 10.4209 7.8442 21
401 1 9.10079 6.07112 12.5412 20
402 1 9.52884 -1.95707 -8.63813 21
403 1 7.31217 -4.97738 16.2547 7
404 1 10.2563 1.62149 -5.52176 20
405 1 -5.7265 -16.0706 -3.46952 14
406 1 2.95521 0.396325 6.59996 21
407 1 -4.05616 4.81018 1.21296 23
408 1 0.0339507 -9.30486 -5.80856 19
409 1 -0.0258956 8.615 4.43847 20
410 1 5.36079 0.444289 -5.19929 22
411 1 -5.74468 -0.693639 -0.839574 22
412 1 5.90622 -12.5798 -1.4202 21
413 1 12.4781 -3.07095 4.19114 21
414 1 -14.0186 3.20088 -6.36106 14
415 1 -3.05626 -11.9752 2.15366 22
416 1 -5.42938 -10.7404 12.0565 14
417 1 -2.40207 9.82309 -0.697391 21
418 1 -10.9939 -9.83657 -3.17123 17
419 1 6.76465 11.4477 15.1052 14
420 1 -12.9729 8.55105 -3.0111 19
421 1 0.471063 13.489 -4.40435 18
422 1 10.4195 10.8407 4.52331 20
423 1 -12.579 -7.17476 -2.12161 18
424 1 -3.01977 -8.33363 -7.14557 21
425 1 -12.2681 -4.27062 13.0396 16
426 1 -15.6172 7.02467 -1.9827 13
427 1 7.59618 -5.24319 11.4186 21
428 1 0.00209858 -12.6452 0.845345 24
429 1 12.7726 11.5762 8.71446 14
430 1 5.64442 8.79203 -12.347 18
431 1 -12.892 3.17245 -9.19993 14
432 1 -3.43877 14.0673 -10.9891 16
433 1 -11.322 6.17038 -3.52777 18
434 1 -1.26039 -15.7102 6.04934 22
435 1 12.5893 6.95928 4.89601 21
436 1 -0.410039 9.60715 -16.037 16
437 1 -5.34266 0.531545 9.25724 21
438 1 -15.5091 -1.92244 0.216007 18
439 1 2.11011 0.227718 -1.50131 22
440 1 -3.6915 -0.966079 7.11268 21
441 1 -3.04584 -18.9568 7.33765 9
442 1 -0.357767 -5.32442 -9.87064 23
443 1 4.21732 -8.88919 -9.54377 18
444 1 2.47706 -8.26058 8.60046 21
445 1 -15.7075 3.78964 2.96047 15
446 1 -15.8132 -1.25652 10.3523 11
447 1 -10.0963 7.8962 5.74031 21
448 1 -0.193077 -6.66579 7.98848 20
449 1 -4.5574 5.82526 -12.7425 19
450 1 5.49242 -7.30201 -6.89961 22
451 1 -1.87767 -7.97215 -11.0429 21
452 1 -1.93026 -5.09335 10.0284 22
453 1 4.68393 -11.0626 -8.13014 21
454 1 -6.39017 2.96059 -16.5846 14
455 1 4.36308 -12.0246 1.63953 22
456 1 -0.0304624 6.43339 -9.30579 21
457 1 -14.4482 9.10138 6.23307 13
458 1 -3.43072 -3.46393 13.0017 16
459 1 -11.6767 -2.07238 -11.809 12
460 1 -8.02887 -7.14707 6.87188 21
461 1 8.90545 -2.77662 13.8296 17
462 1 8.85306 2.91617 0.707569 23
463 1 -6.2132 0.915355 5.34723 23
464 1 0.941312 -0.128299 -12.2399 19
465 1 4.15342 -9.79982 5.80597 19
466 1 0.575628 5.09332 1.12707 23
467 1 13.8547 7.66769 -4.39233 11
468 1 -5.98549 1.59991 15.4977 13
469 1 0.80373 13.7263 -1.50878 20
470 1 7.51914 -8.72003 4.77775 15
471 1 -3.52272 -14.6274 -5.11974 17
472 1 -5.82629 4.69213 13.7004 13
473 1 -3.1936 16.0763 4.99438 11
474 1 -8.19386 -11.2194 -6.66628 17
475 1 10.3482 14.8118 0.678513 14
476 1 7.6045 9.83522 8.88623 18
477 1 -10.5666 0.440046 8.72244 22
478 1 -7.15662 -6.38583 -4.96013 19
479 1 -9.6068 3.49504 9.60297 22
480 1 -12.3924 -4.67382 -7.10771 17
481 1 -7.77713 11.0245 2.01301 22
482 1 -5.31138 -10.1585 -5.6289 21
483 1 0.830194 -1.53607 -14.9456 22
484 1 -9.50026 -13.513 3.60372 16
485 1 -5.33585 -2.61004 5.35546 21
486 1 10.1451 4.98327 6.30832 20
487 1 -4.14508 -13.2841 10.31 15
488 1 -8.93077 10.9438 -13.4316 11
489 1 9.15103 7.59436 -3.87785 21
490 1 -4.04868 -13.3845 -2.25351 20
491 1 -0.281794 1.61319 -6.27381 25
492 1 0.141775 16.9094 -1.76081 14
493 1 -0.606571 8.12631 -6.45201 25
494 1 -3.71099 8.83608 8.6241 20
495 1 -14.058 0.995427 -4.13324 18
496 1 5.23933 17.6703 -1.85149 12
497 1 -1.43537 11.6864 -3.2939 22
498 1 -7.00376 -8.66801 -7.13544 18
499 1 5.39618 4.73493 16.3102 16
500 1 -0.553172 -13.3334 -9.79409 17
501 1 -1.12725 -2.0019 -10.5051 20
502 1 9.82395 -14.2744 1.909 11
503 1 -12.824 8.41688 3.73543 23
504 1 2.4062 4.75363 14.138 24
505 1 8.65783 10.5843 -5.17894 17
506 1 3.55594 9.11766 -0.106256 21
507 1 -7.98218 12.8873 -11.0541 10
508 1 2.77336 1.69513 -7.13227 21
509 1 1.26839 -7.80161 2.55661 20
510 1 -14.1268 -4.20269 -0.746525 15
511 1 4.1227 2.21957 0.648636 24
512 1 1.92151 13.2816 6.36645 21
513 1 -10.1014 5.53964 -10.8492 19
514 1 10.0046 4.58589 -5.67478 18
515 1 5.73083 16.0189 -10.3198 10
516 1 8.19804 -7.81486 -1.90029 22
517 1 12.7701 0.0307397 -3.71535 20
518 1 -1.52753 -2.73786 -13.78 19
519 1 1.84048 -8.77688 -3.15704 23
520 1 -4.90153 -6.51269 2.0735 18
521 1 4.27793 -12.0838 11.6222 14
522 1 -6.68392 5.91526 -3.38664 20
523 1 -2.91218 -10.9464 5.17012 20
524 1 3.12204 3.92255 3.0703 24
525 1 -1.66612 -9.97368 -8.68112 20
526 1 7.37028 14.1602 5.56029 17
527 1 2.64956 5.0311 -7.22341 24
528 1 4.0376 -4.17461 15.864 10
529 1 -10.8993 -1.76731 11.0941 19
530 1 -2.10816 -17.654 0.743582 16
531 1 -11.7867 -6.33608 0.941223 19
532 1 13.5753 -5.17113 -5.94539 12
533 1 10.3264 -6.10675 -3.74712 21
534 1 1.77524 3.31787 -4.57585 25
535 1 -6.45448 6.19133 -0.329271 23
536 1 6.65452 -9.41105 -5.89493 23
537 1 5.16247 3.59369 -8.71569 21
538 1 9.19291 -5.15569 -9.37088 20
539 1 -8.03202 -3.6004 16.6062 10
540 1 5.54073 14.3705 1.73106 22
541 1 0.231425 -2.65586 -17.9842 13
542 1 2.60697 -4.98474 5.34051 19
543 1 3.54765 2.32238 -16.0323 17
544 1 -6.51469 -8.27721 10.0198 18
545 1 -4.4345 8.20557 0.870962 23
546 1 -12.8528 3.37106 -12.9719 12
547 1 -15.7919 0.924058 1.48975 15
548 1 0.544633 -8.8304 -16.1334 10
549 1 -1.2135 -14.3058 11.6305 12
550 1 -2.92245 6.41467 -4.83396 22
551 1 16.9646 4.30775 8.88896 9
552 1 12.4479 3.28463 -3.97854 19
553 1 -11.0022 -12.5816 -1.33863 14
554 1 0.302397 -11.2477 -2.0665 23
555 1 -1.5176 0.93134 -13.8461 22
556 1 -8.63175 10.3692 7.77966 16
557 1 -1.53464 -3.58519 -7.6804 22
558 1 3.45067 5.5465 0.248553 20
559 1 11.8007 -5.1581 -0.978168 19
560 1 3.36475 17.1943 -8.25027 11
561 1 4.62267 -4.3458 0.522884 20
562 1 2.60841 -3.07211 -1.33395 19
563 1 13.9277 5.50935 -10.3116 10
564 1 4.1502 8.25654 13.8125 19
565 1 -12.6061 -0.419269 6.23627 22
566 1 -7.18686 -3.3786 -0.852017 21
567 1 4.676 10.3081 11.1134 23
568 1 10.071 0.0495439 11.6699 20
569 1 -1.50859 1.2421 -10.6483 21
570 1 -10.0015 -4.00219 -5.16332 15
571 1 4.27801 -2.20945 11.0997 20
572 1 7.14355 13.0595 8.74886 17
573 1 4.65446 7.11624 -5.52281 21
574 1 -8.05751 9.01087 -8.57104 18
575 1 1.17545 10.3263 -1.6081 21
576 1 12.2369 1.87552 14.3473 14
577 1 9.43012 3.9463 -15.0681 14
578 1 14.2226 -7.08275 -0.519725 15
579 1 12.5144 10.6785 12.1123 12
580 1 -14.8332 -7.21789 0.502833 15
581 1 -6.08333 14.0602 -8.14764 18
582 1 2.18057 2.03701 9.16709 24
583 1 -13.4509 -1.33804 13.3442 13
584 1 -3.64848 16.3902 -8.35475 11
585 1 0.711279 -14.6736 -6.48254 14
586 1 6.62631 -1.98957 -9.60193 21
587 1 -0.068572 16.6137 -4.75192 19
588 1 -8.19769 -2.87227 -9.78502 19
589 1 7.74188 -14.1275 4.98636 13
590 1 -13.4148 -4.54464 -3.88687 15
591 1 2.21626 9.33407 -14.2054 18
592 1 -6.03558 2.73819 -0.414418 21
593 1 -1.68504 10.0077 13.6566 18
594 1 -13.6558 -3.87937 2.94339 21
595 1 6.18161 7.44365 -1.36459 25
596 1 1.23148 -10.8449 -8.73503 20
597 1 5.72789 -3.84923 13.23 17
598 1 7.25662 2.5223 -3.75173 21
599 1 1.26956 -1.30736 1.41069 22
600 1 -9.4386 7.87106 -1.35116 19
601 1 7.51976 3.61367 14.7777 17
602 1 6.73405 17.3578 -7.47106 13
603 1 11.3076 -8.28436 -1.77622 18
604 1 3.33562 8.66981 9.0329 20
605 1 1.76729 4.00251 -18.1888 11
606 1 -3.12415 -13.348 7.50778 19
607 1 -4.69188 0.545936 -9.60388 21
608 1 8.80787 0.417063 -15.7802 13
609 1 1.98891 13.6931 3.03706 21
610 1 7.27554 5.23479 -7.00758 20
611 1 -6.0224 -2.09025 -11.5798 23
612 1 -2.43226 -10.4758 -4.64324 19
613 1 -8.67735 -0.685062 -12.8547 21
614 1 11.5014 1.75484 2.14386 22
615 1 15.032 2.49657 -5.05523 13
616 1 9.10689 -7.4096 -6.6426 20
617 1 13.26 7.31716 12.7348 14
618 1 7.6864 -8.43691 -8.95845 19
619 1 3.85417 3.27304 -13.3816 23
620 1 7.97918 12.4448 3.20586 16
621 1 -9.53667 5.86401 1.18048 22
622 1 9.82074 11.7912 13.4351 12
623 1 9.61291 4.68967 -2.29971 21
624 1 13.3911 -2.02172 -1.32893 19
625 1 11.671 7.01983 -11.0661 14
626 1 4.7224 2.72553 13.1383 21
627 1 14.3247 5.84967 10.1092 16
628 1 -0.51636 -8.91429 12.4588 16
629 1 10.5575 12.5539 -4.44428 15
630 1 6.53547 0.760302 2.4323 23
631 1 1.62558 2.91008 11.7317 22
632 1 8.81271 -3.65093 -3.53281 24
633 1 7.1913 4.41143 6.4029 22
634 1 -9.73419 -1.87098 -6.91091 20
635 1 16.1722 5.44205 0.671327 9
636 1 11.5149 -5.22709 6.33074 20
637 1 -1.27074 -8.11208 -2.79752 22
638 1 -11.3863 6.13647 10.0239 16
639 1 9.97669 11.8422 10.1836 16
640 1 8.72385 5.93207 8.8675 19
641 1 1.78504 11.6845 9.64885 24
642 1 -1.62015 14.7495 10.2193 14
643 1 8.54687 2.55694 3.84836 23
644 1 0.55511 -17.4582 3.45354 16
645 1 -5.59999 10.9969 -9.90218 23
646 1 9.17014 9.68153 -11.8916 11
647 1 12.2106 -0.727227 -11.5353 13
648 1 4.30931 13.5596 -5.96999 17
649 1 -1.33041 -12.0663 -6.87462 21
650 1 11.0211 -7.04732 -11.2539 14
651 1 -14.752 3.61931 6.35273 16
652 1 -11.6481 8.33119 -9.3749 15
653 1 -2.23324 -18.0909 4.34842 15
654 1 -7.30049 1.06881 -10.7151 21
655 1 -11.3985 -0.0116027 -4.05753 21
656 1 12.131 -9.44931 4.4558 14
657 1 12.8183 9.55998 3.28617 15
658 1 4.33459 -9.18242 2.63737 21
659 1 -9.73897 2.30936 -12.4746 20
660 1 0.974449 1.84045 1.35016 23
661 1 0.727872 3.12191 -12.6249 20
662 1 0.481694 -3.63388 7.29099 21
663 1 -0.864775 -2.26196 12.6675 16
664 1 3.37255 6.66693 -13.5143 21
665 1 13.7028 3.59408 11.5108 16
666 1 7.32911 8.56789 -7.07925 21
667 1 4.39814 -1.11483 0.809654 21
668 1 12.1699 12.4306 2.08317 12
669 1 2.63842 -13.744 -8.6585 14
670 1 -11.2068 0.772717 14.0775 14
671 1 13.6571 -5.17619 1.83668 15
672 1 -1.99116 13.0929 13.1439 11
673 1 4.89175 12.9134 -10.705 19
674 1 -10.3114 9.21928 -3.22904 18
675 1 10.5243 7.92409 -1.28108 20
676 1 -9.52693 -14.1184 0.795095 15
677 1 14.2855 -2.12394 1.78327 12
678 1 7.97903 15.8394 2.51199 14
679 1 -0.588028 2.90808 16.6711 12
680 1 -8.36919 -4.32924 3.93547 20
681 1 -8.86623 -3.90765 -12.5318 17
682 1 9.47782 2.90557 8.85513 22
683 1 -0.403897 -9.23066 9.44624 20
684 1 5.87858 5.90919 13.5519 20
685 1 -4.18243 7.8185 -2.31583 22
686 1 15.2035 4.87085 -2.81548 14
687 1 5.16269 -1.01625 -2.78005 24
688 1 5.45834 2.25354 4.94338 22
689 1 3.77421 -1.30049 -10.6183 23
690 1 -7.46769 -0.752564 7.27908 21
691 1 9.28859 -4.4055e-04 -11.624 22
692 1 -4.35145 -7.49388 -3.95972 22
693 1 11.513 -11.9161 -3.84258 12
694 1 7.07379 7.78541 6.42134 20
695 1 5.0742 5.88301 4.86014 21
696 1 -9.93193 -7.69924 9.3518 20
697 1 10.6063 9.97665 7.90983 20
698 1 4.87128 1.87306 15.9164 14
699 1 -3.51702 5.02326 11.0721 19
700 1 -2.78138 -4.25655 -11.8327 22
701 1 -8.44514 0.815127 10.5851 23
702 1 -3.86441 4.81761 -2.25304 25
703 1 7.59674 1.10037 9.88406 20
704 1 -6.72089 -14.7878 7.80005 14
705 1 14.3385 8.04145 -1.24332 12
706 1 7.11693 -10.7662 -2.88896 18
707 1 -5.44474 7.30137 -9.95141 21
708 1 5.6044 10.9303 -1.18359 24
709 1 10.4962 14.3931 4.12931 14
710 1 4.49541 -2.48457 -14.1414 21
711 1 2.07147 -1.16813 9.1125 24
712 1 1.19237 10.0576 -4.76929 22
713 1 10.2851 8.17578 2.27277 22
714 1 -2.18532 -5.28757 -2.03649 21
715 1 -8.35414 -11.0047 -1.35373 20
716 1 1.00359 0.85162 -16.3942 16
717 1 -9.89707 10.9033 -0.42804 22
718 1 6.05147 -5.6307 -10.1949 21
719 1 6.18523 4.3341 2.24049 24
720 1 8.90943 5.70994 -12.7137 18
721 1 6.43845 12.7715 -3.84356 21
722 1 -2.76397 4.88 5.45996 22
723 1 -7.15749 7.72402 2.30739 22
724 1 6.60677 9.1789 -4.14256 21
725 1 11.9217 4.69349 13.5252 15
726 1 9.85597 0.250518 14.4637 13
727 1 -2.48234 -11.1635 12.7691 12
728 1 -5.50319 12.0931 -13.0926 17
729 1 1.64797 15.0833 9.31522 15
730 1 8.04142 -7.4461 -11.9821 16
731 1 5.28099 2.48981 8.44461 22
732 1 7.69534 14.4863 -9.10525 16
733 1 8.00527 9.35139 0.552646 21
734 1 -4.39079 -0.424015 3.52443 25
735 1 14.7642 -4.35183 -3.09718 15
736 1 6.01559 8.33935 15.6812 18
737 1 -16.0077 -4.26677 5.05851 17
738 1 4.64299 -15.8968 6.17465 13
739 1 -2.71498 2.84352 -7.90157 24
740 1 -11.5094 14.4828 -3.62439 8
741 1 -0.336984 3.6524 6.99973 25
742 1 5.25186 -4.71626 -2.19449 22
743 1 5.09098 10.3952 2.36366 22
744 1 -10.9329 -2.50892 4.01419 19
745 1 0.431562 5.70666 16.2041 13
746 1 -3.75145 5.40358 -15.9046 17
747 1 -6.40396 9.8505 -15.2237 12
748 1 1.18788 -10.678 2.7494 21
749 1 2.65357 8.3225 -10.9173 19
750 1 4.15703 -6.38964 3.07042 22
751 1 0.58998 5.12226 4.35474 25
752 1 -11.1777 2.93272 11.6083 17
753 1 3.84509 0.0420394 -13.5474 20
754 1 7.00139 -11.8488 9.73413 12
755 1 0.0643929 11.9216 1.07449 23
756 1 -3.23463 2.10143 11.8208 22
757 1 -6.09008 -2.96477 1.96727 25
758 1 -7.03614 -5.86773 -13.7939 12
759 1 -4.50591 -7.333 -13.5192 18
760 1 -6.42712 -11.18 -9.55481 14
761 1 2.11962 15.1592 -6.41622 19
762 1 1.32826 -5.28288 -6.58959 24
763 1 -0.929605 -3.10616 2.6493 20
764 1 -7.62568 8.79197 4.83213 20
765 1 5.10088 -11.8574 -5.01384 22
766 1 6.27522 -15.0596 0.92655 17
767 1 7.48304 -8.5368 8.19579 15
768 1 15.4053 3.02448 -8.32277 11
769 1 -1.2648 -13.4074 -4.09305 20
770 1 -11.3665 -4.62204 9.16015 19
771 1 0.411883 -1.78469 -6.18709 24
772 1 -4.90182 -18.0074 1.69489 11
773 1 -6.71862 -12.527 -4.06272 20
774 1 0.269298 -1.65137 -2.87347 20
775 1 -8.08108 -1.67938 9.59204 24
776 1 -7.80182 -16.4017 2.22192 13
777 1 14.7533 5.25415 -5.6035 13
778 1 -5.18528 14.9663 2.30657 16
779 1 -4.71754 2.98172 6.91294 21
780 1 -15.7092 8.88039 3.05805 14
781 1 11.833 -1.13413 2.01535 19
782 1 -10.3603 3.03709 -15.8561 10
783 1 2.45444 11.6744 -7.85049 21
784 1 12.3817 2.9792 -7.459 20
785 1 6.83042 12.4208 11.91 13
786 1 1.41323 -1.42656 4.69707 22
787 1 6.90535 5.86982 -3.46995 18
788 1 -12.214 0.730593 -10.6974 16
789 1 -9.34139 -6.61958 -11.2127 15
790 1 0.901914 9.09956 15.2178 16
791 1 2.38981 5.1418 -10.364 20
792 1 12.7046 12.6308 5.48775 12
793 1 -3.16607 -0.76614 11.0112 21
794 1 -4.53611 -17.8663 -1.31632 14
795 1 -3.18919 -16.0245 9.59159 12
796 1 -3.05775 -8.11619 10.1677 20
797 1 13.0458 8.82319 9.9751 18
798 1 2.96304 -8.90372 -6.36439 22
799 1 -6.1953 9.27307 -4.07624 23
800 1 7.32803 9.24321 3.94198 21
801 1 -7.62219 -4.01179 7.17807 18
802 1 8.10402 7.17407 -10.4431 18
803 1 -2.37834 -15.7669 -8.07309 10
804 1 0.956922 -16.3921 0.540837 17
805 1 1.91986 -14.1361 3.156 19
806 1 5.87137 5.27903 -11.6499 19
807 1 8.70014 14.4831 -2.37243 18
808 1 -3.72662 1.84799 -15.2105 21
809 1 -0.273442 0.303432 10.4943 22
810 1 0.244065 6.10425 -12.3897 18
811 1 -11.6531 0.51016 -14.3443 11
812 1 -6.8136 -3.19831 -5.81387 25
813 1 5.15559 16.5975 -5.3604 14
814 1 10.0768 -6.80144 3.86219 21
815 1 -2.23627 -7.2309 -16.5507 10
816 1 -6.55915 -8.79379 0.289827 21
817 1 9.92086 7.38025 -7.28719 17
818 1 9.84053 -6.40517 0.98525 17
819 1 -6.07113 -0.142442 12.5769 22
820 1 5.38444 -9.70492 -0.549925 23
821 1 15.6866 -4.1094 -0.516428 12
822 1 11.7279 -2.31526 13.0193 12
823 1 2.85525 6.95493 11.5852 20
824 1 -13.8341 0.988201 11.4508 14
825 1 -7.83985 1.85661 7.90471 25
826 1 -0.339662 -12.856 4.40493 22
827 1 9.06107 -0.315887 4.16458 22
828 1 7.53271 9.1876 12.6322 21
829 1 -10.5761 -1.7772 -1.86677 18
830 1 4.7902 -8.28783 -3.12218 21
831 1 1.84458 3.55427 -1.34036 24
832 1 -11.5947 11.3042 -7.6586 12
833 1 2.7705 7.45316 2.80108 23
834 1 4.67769 -14.3127 8.85876 14
835 1 1.53276 -1.20144 15.3268 10
836 1 -0.518497 11.7045 4.8961 19
837 1 2.51395 -12.0162 5.56574 18
838 1 -6.84775 1.09803 2.04098 20
839 1 4.20881 0.865522 11.1727 24
840 1 -13.7055 -1.38701 -2.30995 17
841 1 0.70916 12.202 14.9552 13
842 1 5.15316 14.4703 -1.77542 21
843 1 -8.25844 -10.9736 1.76485 21
844 1 2.89861 -17.1786 8.61564 12
845 1 10.4311 -6.80991 9.88918 15
846 1 13.4907 -6.16957 8.15755 13
847 1 7.58188 11.0999 6.16708 20
848 1 -0.772384 4.95276 -3.13433 25
849 1 0.0700221 -7.67935 -8.4861 24
850 1 -3.16529 5.95069 -7.8974 21
851 1 -8.59889 0.103686 16.2935 13
852 1 -2.25745 13.588 2.79326 17
853 1 14.9286 2.21311 6.42348 17
854 1 0.157626 12.6961 -9.68445 20
855 1 -3.76753 7.00385 13.634 16
856 1 6.42774 7.35732 10.3083 21
857 1 6.50345 -1.13718 -12.613 23
858 1 -5.58567 -11.9939 -0.0507244 19
859 1 -5.45275 -0.752395 -3.97577 21
860 1 12.6451 3.73603 4.58807 21
861 1 1.97868 -3.12262 -9.15329 22
862 1 -1.53007 4.40043 13.7806 17
863 1 8.75239 -12.6178 -5.57741 15
864 1 4.23554 5.24307 -16.7676 17
865 1 -7.57494 -9.2771 -3.63993 21
866 1 12.0622 4.54914 -13.2172 9
867 1 13.1736 0.863748 -0.752034 15
868 1 0.792556 -3.70191 10.6545 21
869 1 0.308069 -4.78399 -14.4333 18
870 1 -1.19735 -0.321535 -0.324861 22