ITEM: TIMESTEP
179000
ITEM: NUMBER OF ATOMS
2000
ITEM: BOX BOUNDS pp pp pp
-3.0000000000000000e+01 3.0000000000000000e+01
-3.0000000000000000e+01 3.0000000000000000e+01
-3.0000000000000000e+01 3.0000000000000000e+01
ITEM: ATOMS id type x y z 
1 1 -9.81318 7.76308 -14.797 
2 1 -3.71745 -9.36634 -8.81011 
3 1 1.4974 13.26 12.2091 
4 1 7.1714 -9.28781 7.48521 
5 1 -11.2907 10.5088 0.187239 
6 1 11.5772 -9.90023 -10.104 
7 1 -9.91748 3.61889 -5.46565 
8 1 -1.55995 -9.22642 13.861 
9 1 -8.74852 2.24082 -11.5941 
10 1 -12.6663 -10.0394 5.50747 
11 1 13.3957 2.24913 -10.8922 
12 1 -4.05211 2.6536 -5.27458 
13 1 -4.29446 -15.2518 0.723581 
14 1 -9.23957 -6.89902 1.48405 
15 1 1.65052 1.33747 16.5727 
16 1 6.9917 -1.71358 7.62773 
17 1 0.878398 5.80549 8.60217 
18 1 5.8524 -2.28769 2.73228 
19 1 1.74076 8.99502 -9.37355 
20 1 4.29778 -0.573046 13.3073 
21 1 -5.80971 0.159254 -17.1442 
22 1 -15.045 -3.60334 12.1442 
23 1 11.8059 5.85997 10.409 
24 1 2.63024 8.66949 -13.9294 
25 1 4.40267 0.448855 -12.6375 
26 1 14.112 -1.26555 12.2967 
27 1 -9.16106 4.1358 4.00966 
28 1 -11.6931 2.34854 -8.3063 
29 1 -3.38046 -0.0332204 -8.32833 
30 1 -12.1436 8.72944 7.33058 
31 1 8.90298 -11.9282 5.94746 
32 1 -0.574607 -3.0543 12.3886 
33 1 1.96597 -13.2093 -11.1378 
34 1 10.0328 -11.7618 -0.482104 
35 1 -9.00107 -14.4029 -2.92942 
36 1 -15.0918 -6.24672 12.5645 
37 1 2.14062 -1.22849 -5.5195 
38 1 5.031 -4.21865 -11.8227 
39 1 9.59261 -9.25673 -11.6598 
40 1 -0.842627 6.56869 -16.1536 
41 1 -1.94497 1.95561 12.9517 
42 1 0.764425 -13.9032 10.5542 
43 1 6.36768 -8.26365 10.5718 
44 1 -10.0077 -0.872263 2.17559 
45 1 -15.7232 -1.8059 7.76056 
46 1 -7.84842 2.29555 1.77055 
47 1 -3.06961 13.3664 -3.16187 
48 1 -1.12623 -13.1402 -12.6168 
49 1 1.55051 3.10266 -7.35741 
50 1 3.72069 -4.37969 -9.25796 
51 1 -3.0334 -4.13293 12.7758 
52 1 -11.7804 3.42492 -2.07801 
53 1 0.912402 11.8052 -9.73937 
54 1 -0.758945 12.5499 8.84679 
55 1 -7.84728 6.79018 -12.2817 
56 1 -2.26194 14.3761 0.0508582 
57 1 4.05896 -11.811 2.71006 
58 1 5.95001 -6.6723 -4.12722 
59 1 5.49202 -8.47546 -14.1797 
60 1 -10.2277 9.14885 9.5634 
61 1 -12.84 -3.81783 -8.63103 
62 1 7.88647 -0.163274 4.36752 
63 1 -7.98738 8.98816 -3.67588 
64 1 -7.41822 -9.98421 8.44897 
65 1 -2.78766 12.8835 11.1076 
66 1 -11.1659 5.35635 -7.43563 
67 1 -6.16519 11.5868 11.7977 
68 1 1.81188 7.55871 -5.18185 
69 1 1.97707 3.97193 6.26632 
70 1 -1.71052 -15.0065 7.98916 
71 1 4.42509 5.75204 8.26018 
72 1 4.13547 -18.414 -0.469751 
73 1 4.64897 12.3359 13.9179 
74 1 -10.2737 0.429256 -9.75527 
75 1 -11.2296 7.59164 -11.6853 
76 1 2.88167 4.27306 10.3534 
77 1 14.0118 -3.59132 -9.90537 
78 1 10.5384 -11.1179 2.68312 
79 1 -16.3002 -3.52788 1.0396 
80 1 -10.007 -2.75012 4.76605 
81 1 5.34795 16.0434 4.95623 
82 1 5.9291 0.0112816 10.46 
83 1 -7.16528 -14.2951 10.5732 
84 1 -7.51182 -0.881217 3.88189 
85 1 12.7253 4.10311 7.84166 
86 1 4.76681 -2.76355 -4.9625 
87 1 -2.39866 12.4764 5.7365 
88 1 7.52992 -6.55425 8.07039 
89 1 -6.9788 -5.80989 -0.108324 
90 1 -3.39951 -5.29065 -5.83106 
91 1 -14.196 6.37007 6.74217 
92 1 -8.85634 11.4427 -4.84957 
93 1 -1.52304 8.4415 -9.35355 
94 1 1.89119 1.82989 -4.77695 
95 1 4.07385 -1.0938 -7.42752 
96 1 7.14069 12.6826 -8.52464 
97 1 7.24269 -8.35678 2.23605 
98 1 4.62824 -6.19836 9.32633 
99 1 -6.70755 14.0665 -6.82202 
100 1 -10.7714 12.6153 2.86211 
101 1 -5.90547 -5.29635 10.9953 
102 1 -8.99541 9.99153 2.45994 
103 1 -8.57932 -6.59519 12.1059 
104 1 11.7349 -7.66249 -7.58444 
105 1 -12.0082 2.36335 5.914 
106 1 -11.1121 -12.4275 3.93147 
107 1 12.526 -4.1268 -7.13634 
108 1 4.47806 1.07984 -9.78343 
109 1 -2.09474 -0.000574728 -16.6882 
110 1 5.16232 -0.157295 5.42652 
111 1 -1.54904 10.9284 2.54 
112 1 -5.49108 9.18508 -13.0818 
113 1 1.05266 8.03518 14.922 
114 1 -0.564761 15.9612 -3.07676 
115 1 -13.8409 11.4141 -2.59953 
116 1 0.548679 9.4426 1.36099 
117 1 -0.804163 2.46906 -2.8203 
118 1 -10.4062 -8.81495 8.1568 
119 1 14.7161 -2.46572 7.03501 
120 1 -1.62506 -3.86714 -4.22616 
121 1 3.67006 -5.43347 -6.10947 
122 1 -2.45564 1.59097 8.6289 
123 1 6.64264 -1.02445 14.9734 
124 1 -8.12077 -2.87566 -2.63008 
125 1 7.17561 -5.14848 1.33171 
126 1 -8.56437 -7.99179 -4.04561 
127 1 11.9817 -9.41705 0.665978 
128 1 -6.04913 4.65839 3.40209 
129 1 7.25515 2.78806 -16.756 
130 1 4.34222 16.619 -3.17539 
131 1 -9.66895 -12.2575 8.78168 
132 1 -8.59236 -13.2534 5.59771 
133 1 -1.87013 7.75465 2.06103 
134 1 -1.34193 -2.79735 -15.7556 
135 1 4.60709 6.98309 -8.41397 
136 1 10.8301 -8.69434 -2.27961 
137 1 -1.03457 -16.3607 5.37629 
138 1 -9.79172 -4.96148 -1.48915 
139 1 15.7056 6.91824 8.82905 
140 1 15.4599 -2.66839 -6.82117 
141 1 -15.2336 -5.43685 2.69693 
142 1 8.15205 6.44289 4.58139 
143 1 14.436 7.81616 2.88632 
144 1 -6.77297 3.06432 14.1155 
145 1 6.49206 1.54067 -1.3162 
146 1 -3.86521 10.3557 10.1276 
147 1 -3.74967 13.8913 -6.76138 
148 1 -1.85108 -6.36326 -9.11549 
149 1 8.3586 -11.8557 -9.86262 
150 1 0.0377422 15.5452 -12.5388 
151 1 7.78408 -5.67771 10.8684 
152 1 3.51146 -1.03416 -16.959 
153 1 -5.71078 10.1572 -4.79651 
154 1 10.1532 -1.0486 -4.52409 
155 1 -12.9642 9.31924 -5.56568 
156 1 0.332922 -3.62184 -0.317809 
157 1 -5.43411 13.4621 -3.80205 
158 1 9.83781 2.15942 -12.1942 
159 1 12.6981 -9.15468 4.20657 
160 1 -6.44662 7.64312 -6.80111 
161 1 -8.45625 12.854 7.19045 
162 1 12.3298 6.06296 -6.05084 
163 1 -1.6295 4.14899 -0.850805 
164 1 5.7107 11.077 -1.88696 
165 1 -5.4575 14.7059 1.23397 
166 1 8.95554 9.73841 -1.45493 
167 1 0.0843734 9.49157 -3.42385 
168 1 0.194686 16.7954 -9.71182 
169 1 5.26582 8.35057 -15.2577 
170 1 -13.6134 -10.8009 2.82926 
171 1 -14.6926 8.13801 -3.00648 
172 1 -4.59793 -2.3987 -15.9789 
173 1 -0.0572961 -10.4847 -13.3962 
174 1 10.5844 14.4087 8.65777 
175 1 -0.538585 17.242 8.14878 
176 1 -13.3965 -0.625193 -9.00227 
177 1 -13.1482 12.9408 0.404435 
178 1 15.025 -1.65903 -3.37187 
179 1 -8.45121 -0.871729 -12.4022 
180 1 10.9449 2.57382 15.3003 
181 1 2.29974 16.8418 6.09803 
182 1 0.139471 8.99522 9.30736 
183 1 2.17367 -8.69426 -13.3435 
184 1 -0.61 14.8726 6.92286 
185 1 -1.83009 10.6415 -5.61336 
186 1 1.53501 -7.54047 13.7187 
187 1 -9.89964 -5.51871 6.67217 
188 1 -2.33849 -11.3061 -15.3964 
189 1 -10.5818 11.9177 -10.5982 
190 1 -2.78356 -10.1425 4.72891 
191 1 4.97084 -15.7752 -5.84376 
192 1 -2.88029 11.1254 -14.4378 
193 1 -16.1269 1.37304 8.31328 
194 1 1.8412 7.77056 -1.51758 
195 1 10.4649 7.58894 -4.15284 
196 1 -9.77153 3.97704 14.4251 
197 1 -0.955252 -12.0074 11.6957 
198 1 -8.89442 0.757365 -3.50581 
199 1 0.230347 15.9696 4.40074 
200 1 -0.358559 3.5307 10.5474 
201 1 15.0505 2.06926 11.8573 
202 1 -7.4484 12.7237 3.89034 
203 1 13.2622 -6.7114 -10.2596 
204 1 -5.50555 13.232 8.90143 
205 1 -6.59023 4.07499 -7.1467 
206 1 16.8422 -6.86041 -0.296713 
207 1 -5.08014 -8.85882 7.11984 
208 1 -16.3532 0.640994 5.04495 
209 1 -9.55039 -11.996 0.705118 
210 1 5.59618 4.00108 15.4855 
211 1 -12.9081 0.342411 0.972534 
212 1 -1.77647 1.15459 2.35313 
213 1 -5.89335 -13.9759 4.02104 
214 1 -0.500024 0.401377 6.59935 
215 1 -5.89368 0.151341 -3.81692 
216 1 1.43756 -6.56163 -0.914063 
217 1 -4.8961 11.1667 5.80969 
218 1 -9.69785 0.897996 5.67055 
219 1 4.51441 13.7116 11.2961 
220 1 -7.41799 2.64015 -4.82389 
221 1 -7.48676 12.3316 -10.0633 
222 1 -13.3386 -4.35232 -5.61935 
223 1 -11.8616 -4.03982 11.9572 
224 1 0.801228 -9.74542 3.10392 
225 1 5.91607 -11.9242 7.41345 
226 1 -13.5662 11.3533 3.27508 
227 1 13.1781 1.05938 2.87859 
228 1 6.2761 3.33325 -4.95456 
229 1 -4.59267 -6.70217 -11.9939 
230 1 3.40005 -2.54568 5.8405 
231 1 -5.06527 -5.85851 4.66926 
232 1 6.76846 -13.4751 4.3697 
233 1 -3.46912 5.82545 -7.72378 
234 1 3.48908 -11.4254 -13.4659 
235 1 12.1202 1.50603 -13.7398 
236 1 2.56266 8.08621 -17.0502 
237 1 -5.16349 -3.18032 -8.05609 
238 1 -3.22079 16.5446 -8.18495 
239 1 -11.6369 -11.8582 10.6679 
240 1 6.20871 14.4658 -3.39265 
241 1 -10.4569 -2.07387 13.9449 
242 1 -8.86701 14.5506 -4.15724 
243 1 7.42978 1.55479 7.23121 
244 1 -3.16409 -3.45063 -10.2129 
245 1 -2.59275 11.8225 -8.68468 
246 1 -0.394111 3.56845 -11.6952 
247 1 -8.96077 -10.6735 5.80771 
248 1 -2.55745 4.54695 2.58566 
249 1 -5.63475 6.16392 9.99993 
250 1 -7.95781 7.5781 7.75225 
251 1 1.75064 -11.4643 -6.87963 
252 1 -7.32653 -16.7031 -1.35781 
253 1 10.0527 -12.604 -3.57929 
254 1 -3.44146 3.03659 4.75319 
255 1 -2.1129 -1.58582 4.83223 
256 1 1.88342 -7.32568 -4.1627 
257 1 12.0791 8.88832 14.8415 
258 1 5.14833 7.91204 -5.95885 
259 1 3.96351 12.6391 0.575444 
260 1 -11.1396 2.3378 2.75439 
261 1 -10.8157 12.9334 -2.09975 
262 1 0.310941 6.76795 11.6193 
263 1 3.65156 -14.5863 0.0262473 
264 1 9.4319 -2.94809 -1.56089 
265 1 2.49636 7.2916 6.34833 
266 1 -9.46278 7.39496 4.69658 
267 1 -15.3502 -2.40964 -7.12033 
268 1 8.94798 4.55793 -9.55363 
269 1 5.02527 -6.92822 6.33933 
270 1 6.40553 10.6705 -10.7702 
271 1 2.11305 -11.0742 -3.70409 
272 1 -1.3304 3.61318 -17.1151 
273 1 1.88468 -13.8244 4.80927 
274 1 7.83848 -1.83654 -6.19306 
275 1 -12.9456 -3.28053 6.44539 
276 1 5.37104 -14.7897 -2.57277 
277 1 -8.62401 -4.20266 -9.07642 
278 1 3.54858 12.3666 -4.20213 
279 1 1.99621 -4.73814 -11.994 
280 1 -3.61682 4.02598 14.6095 
281 1 14.4768 -3.4454 3.87375 
282 1 -5.31777 -5.82415 2.04716 
283 1 11.4076 -4.06004 -11.0458 
284 1 -0.228896 -9.20837 5.62707 
285 1 -7.71771 -1.31857 -9.28556 
286 1 -12.841 5.41049 -9.66429 
287 1 -5.49389 -16.7971 12.7078 
288 1 11.4924 1.36325 7.59102 
289 1 9.23996 -4.04019 7.34324 
290 1 -6.14439 -9.60808 -12.1447 
291 1 1.09124 -10.5686 9.32429 
292 1 -0.406438 7.12857 -12.7496 
293 1 5.36381 7.77731 3.24655 
294 1 -7.79923 -8.1654 3.71295 
295 1 2.89769 10.6665 3.70947 
296 1 -7.52792 -3.48293 9.07797 
297 1 -8.42841 -6.92272 -8.06179 
298 1 -5.16543 -6.55485 -8.8827 
299 1 -3.40285 8.16059 -15.7363 
300 1 -6.1314 -10.1489 -2.42432 
301 1 -4.20392 -9.82648 0.74648 
302 1 -3.04846 -3.90793 0.306969 
303 1 9.95335 -4.84538 -13.8996 
304 1 14.6376 -0.867462 -9.17146 
305 1 5.8638 -4.16774 6.45305 
306 1 10.2364 4.38042 2.79009 
307 1 -4.16162 -4.83713 -2.57883 
308 1 -10.7208 -5.8548 9.73752 
309 1 -3.55708 -12.1828 2.65344 
310 1 8.83506 4.88099 14.9398 
311 1 -4.02279 -16.659 6.27674 
312 1 4.28879 3.20169 -2.83464 
313 1 -1.1154 -11.3074 0.775854 
314 1 -2.18499 17.9139 -1.51737 
315 1 6.60507 -0.502077 -16.9128 
316 1 -6.03877 -5.12422 -14.453 
317 1 4.45295 -7.03937 0.487179 
318 1 -13.0947 -9.01296 11.4166 
319 1 3.54078 6.7864 16.8049 
320 1 2.51869 -15.3419 -3.66261 
321 1 -4.35532 -12.0556 -13.0678 
322 1 -9.05215 7.26092 -9.13804 
323 1 9.91991 7.18161 8.47939 
324 1 -6.3633 4.02524 -10.7322 
325 1 1.31934 6.68818 -7.60919 
326 1 -2.72507 -4.39462 6.41275 
327 1 6.62294 -14.1611 -7.99798 
328 1 -4.40413 15.7204 -1.81022 
329 1 1.31093 10.1463 7.159 
330 1 10.6787 1.97745 4.98459 
331 1 -12.2176 -0.483791 4.14808 
332 1 -0.630803 -6.18698 14.2806 
333 1 -7.95726 12.4227 0.898771 
334 1 6.9281 -5.61718 -14.3152 
335 1 11.5675 9.95603 -2.52547 
336 1 2.32626 -10.3047 0.115141 
337 1 -4.23969 -2.4965 15.5217 
338 1 -15.7591 -2.6579 4.51541 
339 1 -0.979399 -16.0479 -3.64761 
340 1 -6.99343 8.30497 10.472 
341 1 -9.62079 6.49762 11.9722 
342 1 -16.8534 -4.46121 9.71289 
343 1 -16.3613 -7.54503 7.97568 
344 1 7.68993 -3.82966 -4.21343 
345 1 -13.5935 -9.69199 8.41881 
346 1 8.09351 -3.66344 -11.3772 
347 1 7.51986 -9.49056 -3.05018 
348 1 3.31403 15.9766 1.48817 
349 1 -0.30784 -6.07247 4.71779 
350 1 -7.44334 14.061 -1.39667 
351 1 4.26995 -1.48153 8.36186 
352 1 10.9816 8.72915 11.4551 
353 1 -12.8086 -6.78764 7.12174 
354 1 7.07036 -12.1234 -2.25425 
355 1 -2.81789 9.22036 4.72125 
356 1 -6.97022 5.25821 6.52695 
357 1 0.224758 3.06924 4.0373 
358 1 1.49527 -7.75449 8.18267 
359 1 16.2972 -5.34228 2.0766 
360 1 -2.2659 5.32354 9.33984 
361 1 -5.75686 0.185925 -6.60467 
362 1 3.11411 -2.13589 2.89298 
363 1 0.969407 -0.440159 13.5049 
364 1 -4.58364 12.445 3.00308 
365 1 9.4504 8.02945 14.726 
366 1 -9.43896 13.0585 -7.39472 
367 1 2.44729 -4.38991 -17.3755 
368 1 -5.08472 4.50652 -2.38759 
369 1 6.89004 -10.8087 -12.9331 
370 1 -11.1405 2.07856 8.71242 
371 1 -15.3096 2.76448 0.250965 
372 1 -4.85029 -3.01759 -4.81576 
373 1 -6.79259 9.00957 -0.167856 
374 1 9.80315 -1.01732 6.69627 
375 1 -12.1933 -13.642 1.29415 
376 1 12.512 -4.27515 6.3422 
377 1 -4.64119 2.90377 0.910152 
378 1 -8.34018 -11.1166 11.245 
379 1 -12.1265 6.90458 -0.714199 
380 1 2.75045 -5.07955 15.1864 
381 1 3.746 -13.2481 -5.15739 
382 1 -5.13346 -1.2861 -10.7503 
383 1 10.2683 -1.35489 -13.0999 
384 1 5.58456 12.7357 5.48524 
385 1 -12.5133 0.212608 -2.66167 
386 1 3.98236 -7.38482 -11.6602 
387 1 6.63909 5.08649 -14.2786 
388 1 -4.59332 -13.4904 -7.3465 
389 1 -11.0715 -6.83876 -4.31271 
390 1 -4.08079 -7.19398 -1.24291 
391 1 11.8943 5.87512 15.7735 
392 1 -1.90645 -1.42476 1.3119 
393 1 9.50834 0.746283 -1.60808 
394 1 -8.66489 3.78874 -8.2866 
395 1 7.10011 16.8648 1.61421 
396 1 -11.1082 -2.38272 -4.20086 
397 1 3.12011 1.11419 3.12178 
398 1 -4.72868 6.81853 2.85547 
399 1 -3.96607 11.9557 0.0792375 
400 1 -2.20916 10.1254 7.7798 
401 1 10.0655 5.96692 12.6493 
402 1 9.1361 -3.6489 -8.24233 
403 1 8.45487 -3.61807 13.3473 
404 1 11.3333 1.60105 -5.87724 
405 1 -4.04532 -15.6788 -4.86229 
406 1 2.70441 0.750118 6.01038 
407 1 -3.61206 6.24626 0.0184015 
408 1 -0.251247 -9.42109 -5.20007 
409 1 0.493413 9.08998 4.60739 
410 1 5.12483 0.413403 -4.40358 
411 1 -4.22991 0.177616 0.225497 
412 1 4.07973 -12.4474 -1.95637 
413 1 17.1299 -3.58659 4.81307 
414 1 -11.2228 0.612964 -5.59015 
415 1 -5.2972 -9.64014 3.68524 
416 1 -10.4042 -9.63149 13.0986 
417 1 -1.1026 11.3293 -1.01447 
418 1 -11.5048 -9.95493 -3.60736 
419 1 6.90918 10.3371 15.0441 
420 1 -11.1455 9.47459 -2.9691 
421 1 0.360395 12.8404 -7.16518 
422 1 9.75958 9.60753 5.23459 
423 1 -11.2538 -7.34858 -0.866743 
424 1 -2.81817 -8.46144 -6.66531 
425 1 -10.1535 -2.96764 8.2509 
426 1 -14.1325 5.2711 -2.97002 
427 1 9.2326 -8.57013 10.1159 
428 1 -5.93384 -14.1191 -2.34394 
429 1 13.0383 11.8402 9.48543 
430 1 7.37687 8.30715 -12.9861 
431 1 -9.74646 4.85445 -10.6755 
432 1 -2.28304 14.6312 -10.0533 
433 1 -10.8075 6.15859 -3.40786 
434 1 -0.388259 -12.153 6.74922 
435 1 12.9896 4.28797 3.6079 
436 1 -0.256266 9.53457 -15.4031 
437 1 -5.60551 0.514174 9.20802 
438 1 -15.4167 -0.475706 -0.847015 
439 1 2.17324 0.796715 -1.70736 
440 1 -4.10825 0.2658 6.51573 
441 1 -3.03235 -13.7391 5.49145 
442 1 -0.0187973 -5.86512 -6.29613 
443 1 6.06932 -9.56376 -10.3107 
444 1 2.32113 -4.16275 8.96537 
445 1 -14.2397 2.10751 3.36466 
446 1 -15.5762 -1.28744 10.7683 
447 1 -12.2166 8.56137 4.42858 
448 1 -0.238429 -5.69401 7.67481 
449 1 -5.26978 5.08594 -13.7107 
450 1 5.273 -7.06311 -8.76682 
451 1 0.484283 -7.9296 -11.0085 
452 1 -2.57611 -4.18585 9.78145 
453 1 2.94547 -8.96713 -6.40641 
454 1 -6.53429 3.5338 -16.0125 
455 1 6.21077 -13.0946 0.915464 
456 1 -0.631777 5.8049 -9.66148 
457 1 -14.2976 9.86514 5.92616 
458 1 -6.53854 -4.63411 14.2498 
459 1 -10.9039 -5.57202 -10.6666 
460 1 -7.80162 -7.52671 6.26156 
461 1 10.5221 -5.31152 11.5941 
462 1 8.64736 3.25608 0.390656 
463 1 -6.70266 2.11993 5.20314 
464 1 1.77019 1.29829 -9.95919 
465 1 8.79213 -9.16159 4.84798 
466 1 0.493686 6.11995 0.933418 
467 1 13.0568 8.90842 -5.45703 
468 1 -6.19112 -0.138187 14.7131 
469 1 2.50048 14.6849 -1.69721 
470 1 7.85023 -6.26018 4.84972 
471 1 -3.00614 -13.0739 -4.03864 
472 1 -5.12834 6.51428 15.084 
473 1 -3.05067 16.1536 5.63105 
474 1 -7.79445 -11.7529 -7.46752 
475 1 9.6044 14.9137 1.68728 
476 1 8.25591 10.9733 10.4374 
477 1 -9.23141 -0.267822 9.70501 
478 1 -7.4097 -5.41642 -3.32661 
479 1 -8.75471 4.83413 9.53527 
480 1 -9.7922 -4.73263 -5.6764 
481 1 -5.73124 9.88669 2.74528 
482 1 -4.77859 -10.6292 -5.64438 
483 1 0.430468 -5.8658 -14.9883 
484 1 -8.90354 -14.4823 2.4725 
485 1 -5.08351 -2.47641 4.84366 
486 1 10.749 4.74006 6.17681 
487 1 -3.78256 -6.97311 13.0529 
488 1 -10.7904 10.4587 -13.7827 
489 1 8.53133 3.80944 -3.04568 
490 1 -8.7183 -11.4075 -2.95334 
491 1 -0.719859 1.5063 -5.52803 
492 1 0.732361 15.4713 0.929187 
493 1 -0.84462 7.57467 -6.23604 
494 1 -2.53801 8.16773 10.7614 
495 1 -16.8043 -0.648091 -4.33743 
496 1 1.48399 17.4971 -1.27142 
497 1 0.31844 12.5036 -3.74407 
498 1 -6.34992 -8.53411 -6.53714 
499 1 4.01115 3.46528 18.264 
500 1 0.22544 -13.8106 -8.28289 
501 1 0.162831 -4.40855 -9.7602 
502 1 9.22835 -14.0286 1.59099 
503 1 -11.592 7.47235 1.79275 
504 1 1.99799 5.52727 13.1811 
505 1 7.57987 9.40647 -4.13288 
506 1 3.76082 9.33631 0.665332 
507 1 -8.52552 9.92252 -12.5861 
508 1 4.05153 2.09236 -6.7991 
509 1 4.15484 -8.8324 2.7398 
510 1 -13.653 -5.6566 -0.214631 
511 1 3.88436 2.93949 0.546213 
512 1 2.61809 13.4702 6.89341 
513 1 -3.51592 7.17021 -11.5203 
514 1 8.74429 6.9003 -2.05517 
515 1 5.56274 15.2997 -9.39509 
516 1 8.70659 -9.52262 0.0843172 
517 1 15.8969 1.45633 -2.20236 
518 1 -0.524626 -2.81238 -12.5888 
519 1 0.614058 -8.97306 -2.13306 
520 1 -2.65995 -7.6479 3.3002 
521 1 2.95755 -8.5493 11.161 
522 1 -7.3143 5.8249 -3.93295 
523 1 -5.71566 -11.821 6.15547 
524 1 2.76308 4.58182 3.10057 
525 1 -0.260878 -11.3624 -10.303 
526 1 7.95623 15.6211 7.08497 
527 1 3.31706 4.16289 -8.81684 
528 1 4.67508 -3.35361 14.3789 
529 1 -13.7349 1.22585 10.9888 
530 1 -1.42129 -17.2011 0.147019 
531 1 -11.0746 -4.86594 1.58827 
532 1 14.7756 -6.2664 -7.29368 
533 1 9.28887 -6.49193 -3.17557 
534 1 0.99811 4.71152 -4.25136 
535 1 -5.59971 7.47676 -2.53115 
536 1 6.76961 -8.86572 -6.58973 
537 1 7.22325 2.20494 -10.8834 
538 1 9.43086 -6.41006 -9.28038 
539 1 -7.58889 -2.33634 16.0518 
540 1 5.83736 14.3689 2.57686 
541 1 0.435263 -2.0159 -18.1866 
542 1 2.70882 -5.46302 6.14684 
543 1 4.37441 2.11225 -18.2671 
544 1 -5.339 -5.68159 7.84273 
545 1 -3.77803 9.37944 0.527671 
546 1 -7.58622 -2.21707 -15.2923 
547 1 -15.3384 -0.640923 2.09178 
548 1 -2.59473 -8.29296 -17.2739 
549 1 -2.40795 -15.3431 11.6327 
550 1 -2.91951 8.52676 -4.51791 
551 1 15.8626 3.40311 8.95977 
552 1 14.3544 4.33654 -1.58011 
553 1 -10.8328 -12.6622 -1.73095 
554 1 -0.820019 -11.4816 -2.07933 
555 1 1.02964 -0.813227 -15.5805 
556 1 -6.6771 10.3266 8.46204 
557 1 -1.5053 -3.08507 -7.41142 
558 1 3.89995 6.27892 0.222051 
559 1 12.5666 -2.41089 -2.27999 
560 1 2.89708 16.386 -7.75604 
561 1 4.51296 -3.93515 0.365872 
562 1 2.98241 -1.7233 -2.35767 
563 1 13.5393 5.48211 -9.73825 
564 1 4.53518 6.97529 11.5447 
565 1 -12.1171 -0.759152 7.59971 
566 1 -5.88421 -2.87899 -0.676401 
567 1 5.01672 10.3683 11.8273 
568 1 8.75057 -0.673184 12.2736 
569 1 -2.99234 -0.566335 -13.5636 
570 1 -6.60767 -5.21181 -6.78326 
571 1 2.73591 -2.54546 11.5259 
572 1 7.56453 13.7815 9.85036 
573 1 3.74116 4.96737 -6.15946 
574 1 -9.50751 10.5183 -8.18306 
575 1 2.23418 10.985 -1.56199 
576 1 11.0798 -2.45617 13.6859 
577 1 9.8377 3.64535 -15.0201 
578 1 13.2001 -6.58182 0.636594 
579 1 12.4728 10.8285 12.3628 
580 1 -12.5864 -7.46284 2.2186 
581 1 -3.82566 10.6071 -10.9424 
582 1 1.07924 2.31097 8.53123 
583 1 -13.5153 -1.06443 13.2174 
584 1 -5.09846 13.7036 -9.65855 
585 1 1.49993 -15.7683 -6.17688 
586 1 6.18091 -2.12831 -9.29283 
587 1 -3.03209 16.3121 -4.8393 
588 1 -5.9585 -4.28683 -11.3264 
589 1 4.45299 -14.9061 6.46404 
590 1 -12.1909 -4.14442 -2.56322 
591 1 2.53848 10.8708 -15.8012 
592 1 -6.90738 2.18165 -1.3551 
593 1 -1.38848 10.0405 15.4773 
594 1 -12.7413 -5.67872 4.53485 
595 1 5.95226 7.94632 -1.62248 
596 1 3.01726 -9.41512 -9.72853 
597 1 4.65383 -6.00983 12.1183 
598 1 7.72966 1.26831 -4.36092 
599 1 1.15617 -0.639691 0.709262 
600 1 -9.0144 7.58034 -1.26874 
601 1 7.74063 2.09758 16.7504 
602 1 4.9207 17.0609 -5.90768 
603 1 14.2564 -7.47878 -2.82773 
604 1 6.16239 8.61496 9.36493 
605 1 2.14736 4.83401 -17.0205 
606 1 -3.24336 -12.7068 8.80684 
607 1 -1.07164 2.35122 -9.06584 
608 1 8.76832 0.663352 -14.8841 
609 1 2.8371 14.244 3.70964 
610 1 6.5574 4.2659 -8.14164 
611 1 -3.56796 -3.52034 -13.1329 
612 1 -3.32445 -10.035 -2.52841 
613 1 -9.28873 -4.36692 -13.4208 
614 1 12.1524 2.25826 0.456171 
615 1 14.0211 3.07111 -4.88459 
616 1 8.8626 -6.6062 -6.3783 
617 1 13.3109 7.02666 13.2256 
618 1 8.94664 -9.25617 -8.54321 
619 1 4.25726 5.88854 -14.0564 
620 1 8.40863 12.5467 3.77568 
621 1 -9.98297 4.85121 0.737999 
622 1 9.89891 11.5832 14.3776 
623 1 11.6365 3.81142 -3.38716 
624 1 16.672 -3.00784 0.97702 
625 1 10.6417 7.18034 -9.80745 
626 1 3.99342 3.35008 13.0274 
627 1 14.9105 5.59705 11.3422 
628 1 -0.34083 -8.30521 11.076 
629 1 11.3627 11.5488 -5.04145 
630 1 6.23196 1.5122 2.49983 
631 1 1.21721 2.95136 13.0814 
632 1 10.7933 -3.88282 -4.47082 
633 1 7.71624 4.94795 7.38517 
634 1 -10.5522 -1.81167 -7.30568 
635 1 13.3022 5.37957 1.18384 
636 1 10.2617 -7.58712 2.71287 
637 1 -1.27258 -8.52178 -0.150621 
638 1 -12.1227 6.19022 9.58023 
639 1 10.5004 13.0218 11.2255 
640 1 9.72276 3.68872 9.05429 
641 1 2.18921 11.8031 9.9842 
642 1 -0.98825 15.3464 11.0676 
643 1 8.09167 3.34413 4.64827 
644 1 -1.03592 -18.2 3.29329 
645 1 -6.69908 11.0788 -7.65616 
646 1 9.36857 9.86329 -10.2061 
647 1 12.3188 -0.659612 -10.7181 
648 1 2.60341 14.6841 -5.12029 
649 1 -1.70223 -11.6487 -7.04035 
650 1 11.7141 -7.25032 -12.8041 
651 1 -15.4122 3.86275 5.91493 
652 1 -11.9379 8.53869 -8.92492 
653 1 -4.39225 -16.4057 3.2474 
654 1 -6.63923 1.7436 -9.0875 
655 1 -14.2843 0.887568 -6.52434 
656 1 15.1658 -8.65478 2.18805 
657 1 12.9287 9.68848 4.61921 
658 1 5.34374 -9.3749 5.04917 
659 1 -11.0735 2.8708 -13.6941 
660 1 1.16286 2.63518 1.09105 
661 1 2.57952 2.22963 -15.4754 
662 1 0.489132 -2.9692 6.26147 
663 1 -2.22553 -0.992431 13.6152 
664 1 5.06492 10.9224 -13.9322 
665 1 12.1649 0.606776 13.0406 
666 1 7.07917 9.96242 -7.67438 
667 1 4.1745 -0.485161 0.489221 
668 1 11.3455 12.3951 2.94368 
669 1 3.24263 -14.2163 -8.25438 
670 1 -13.0112 -4.20375 14.8209 
671 1 11.8312 -4.79127 2.96864 
672 1 -1.03259 12.9696 13.8681 
673 1 5.55355 13.5315 -11.9835 
674 1 -11.5507 12.0566 -4.99224 
675 1 11.0948 8.03931 -0.525271 
676 1 -10.0399 -15.6248 -0.205634 
677 1 13.4098 -3.19587 0.482107 
678 1 8.42177 17.0772 4.16457 
679 1 -3.99926 3.64697 11.069 
680 1 -7.65969 -4.92192 3.54861 
681 1 -10.8215 -2.5759 -10.6059 
682 1 8.79177 0.789034 9.58357 
683 1 -3.42855 -9.82161 11.2199 
684 1 6.76996 5.17145 12.8923 
685 1 -3.48604 10.4612 -2.21261 
686 1 14.2832 5.98706 -3.6907 
687 1 5.9523 -1.65718 -1.95824 
688 1 4.91516 2.96611 4.90172 
689 1 1.89341 -2.74921 -14.2333 
690 1 -7.41616 -0.806845 6.86547 
691 1 8.71736 -0.760742 -9.65351 
692 1 -1.8764 -7.51763 -3.56797 
693 1 12.0271 -9.70061 -4.47261 
694 1 6.99019 7.80654 7.07355 
695 1 4.94566 5.87543 5.34865 
696 1 -8.55754 -3.43008 12.2953 
697 1 10.5422 10.0732 8.52208 
698 1 4.702 1.27781 16.096 
699 1 -4.98864 8.23708 12.7295 
700 1 -1.22696 -5.65167 -12.1644 
701 1 -7.06606 2.54752 10.8162 
702 1 -4.10508 5.87526 -5.07275 
703 1 6.89823 1.71408 13.3236 
704 1 -6.10697 -14.2305 7.29788 
705 1 13.968 7.64495 -0.741915 
706 1 5.41847 -10.4901 -4.48441 
707 1 -6.69481 8.86368 -10.1249 
708 1 6.78089 8.99647 0.662956 
709 1 10.3635 14.6471 5.0265 
710 1 5.42895 -3.65881 -16.8158 
711 1 1.52132 -0.75199 8.37708 
712 1 3.94514 9.27758 -3.72897 
713 1 10.9739 7.41887 2.97771 
714 1 -1.23347 -5.457 -1.6511 
715 1 -9.25712 -9.41059 -1.2501 
716 1 0.980592 1.35093 -17.4477 
717 1 -8.725 10.7535 -1.19801 
718 1 7.31137 -6.96343 -11.6407 
719 1 6.13961 4.88801 2.46104 
720 1 9.02217 5.53127 -12.2382 
721 1 8.74554 12.6872 -3.07952 
722 1 -3.62595 6.00268 5.78904 
723 1 -6.94097 5.42302 0.309297 
724 1 6.62074 6.38617 -4.1567 
725 1 12.8422 3.71334 13.125 
726 1 9.50368 -0.368572 14.9584 
727 1 -5.57537 -11.6267 9.69649 
728 1 -6.1565 12.2245 -12.9584 
729 1 1.75539 15.0293 9.26725 
730 1 8.92037 -7.98893 -14.6666 
731 1 4.29874 2.03266 8.5415 
732 1 6.35733 14.742 -6.12916 
733 1 9.36597 10.0588 1.86102 
734 1 -5.01841 0.608937 3.24567 
735 1 11.9361 -6.35879 -5.04771 
736 1 6.27817 7.18416 15.1598 
737 1 -15.7323 -5.12878 6.65891 
738 1 2.12509 -17.1465 4.59451 
739 1 -0.887342 0.010263 -10.7202 
740 1 -10.0842 14.6772 0.753541 
741 1 -1.06678 3.81896 6.99213 
742 1 4.06134 -5.20185 -2.39794 
743 1 5.33636 11.22 2.6609 
744 1 -13.3177 -2.96141 3.3157 
745 1 -1.02657 3.45749 15.6843 
746 1 -3.9965 5.38667 -16.7077 
747 1 -7.85114 10.5534 -15.4416 
748 1 1.5232 -13.8811 2.07196 
749 1 4.16994 8.18432 -11.3687 
750 1 5.17177 -6.02628 3.51961 
751 1 -0.021131 5.98278 4.34105 
752 1 -11.4501 3.47505 11.1122 
753 1 4.77771 -2.23752 -14.2599 
754 1 4.13672 -9.50856 8.37806 
755 1 0.759733 12.9264 1.43139 
756 1 -3.80649 1.17735 15.9608 
757 1 -5.11189 -2.56453 1.88102 
758 1 -7.54201 -6.50514 -11.5852 
759 1 -4.20165 -9.02502 -14.5341 
760 1 -6.07225 -12.2305 -10.1057 
761 1 -0.173606 16.0296 -6.6045 
762 1 1.77723 -3.57012 -7.40305 
763 1 0.136705 -3.18175 3.09269 
764 1 -5.84001 8.1738 5.44925 
765 1 4.66808 -11.044 -7.5694 
766 1 6.44301 -15.8328 0.734168 
767 1 10.5792 -9.14029 7.13951 
768 1 14.0435 1.72897 -8.18621 
769 1 0.0730607 -13.3323 -4.65106 
770 1 -13.6313 -3.71167 9.30073 
771 1 -0.285693 -0.576166 -7.56265 
772 1 -4.84441 -18.513 0.073711 
773 1 -6.63471 -12.7408 -4.71676 
774 1 -0.0452351 -1.61774 -2.82108 
775 1 -11.4383 -1.2805 11.0812 
776 1 -6.97156 -16.549 1.77052 
777 1 12.0367 3.52795 -7.69269 
778 1 -4.73826 17.059 2.95048 
779 1 -4.63291 3.56879 7.90293 
780 1 -14.776 7.8889 3.02434 
781 1 11.6662 -1.76565 3.2993 
782 1 -8.72253 1.06803 -15.0426 
783 1 1.76575 10.4818 -6.21212 
784 1 11.027 -1.21334 -7.83752 
785 1 7.66373 12.8662 13.1079 
786 1 0.369331 -0.310957 3.77878 
787 1 9.43034 4.10795 -6.25114 
788 1 -12.9008 2.27741 -10.6636 
789 1 -11.6552 -6.53948 -7.79516 
790 1 -1.81069 6.71344 15.3663 
791 1 2.08583 5.88851 -10.8359 
792 1 12.2028 12.422 6.6028 
793 1 -3.11396 -0.947647 10.8339 
794 1 -4.09874 -17.535 -2.38393 
795 1 -4.76634 -15.2358 9.71191 
796 1 -3.02861 -6.9718 9.55964 
797 1 14.4439 8.86504 11.0022 
798 1 1.54026 -6.73222 -9.17905 
799 1 -5.96827 11.2494 -1.94314 
800 1 6.83848 9.86015 4.34109 
801 1 -7.19641 -3.85616 6.09148 
802 1 7.76911 7.47121 -10.0636 
803 1 -1.79488 -14.7249 -6.38197 
804 1 1.40115 -17.038 1.11223 
805 1 -0.738501 -14.8344 -0.224364 
806 1 5.77939 5.03743 -11.1439 
807 1 8.66465 15.0955 -0.980511 
808 1 -3.67314 2.3436 -15.05 
809 1 -0.532255 0.426328 10.7213 
810 1 1.07997 4.86644 -13.8109 
811 1 -11.4401 -0.0428255 -12.7835 
812 1 -10.0007 -1.51191 -1.12483 
813 1 1.933 17.3205 -4.54226 
814 1 8.97968 -3.11607 1.44481 
815 1 -3.17903 -5.97556 -15.2233 
816 1 -7.34439 -8.99779 0.864021 
817 1 8.11372 6.83848 -6.84895 
818 1 10.1115 -6.34127 0.300615 
819 1 -4.94897 1.1514 12.6568 
820 1 5.64613 -10.1682 -0.00140192 
821 1 14.6317 -4.6961 -1.91418 
822 1 11.5945 -0.812402 10.2203 
823 1 2.8786 8.45159 9.38204 
824 1 -10.9483 1.12954 13.1483 
825 1 -7.95556 2.33708 7.89596 
826 1 -0.529425 -12.4251 3.94446 
827 1 9.76502 1.30308 2.28553 
828 1 7.57877 8.52868 12.3882 
829 1 -12.5547 -2.24225 -0.0621167 
830 1 3.94027 -8.79771 -2.1429 
831 1 1.38171 4.50123 -1.30573 
832 1 -12.418 11.3148 -7.85879 
833 1 2.50785 7.65817 3.22189 
834 1 2.6732 -12.8423 7.99998 
835 1 2.94748 -1.39517 15.7386 
836 1 0.52611 12.4421 4.62543 
837 1 2.14863 -10.72 6.2416 
838 1 -7.25751 -0.658144 0.399358 
839 1 2.67171 0.719671 10.9644 
840 1 -14.1671 -2.05745 -3.74677 
841 1 1.75464 11.4025 14.729 
842 1 5.542 14.4173 -0.444887 
843 1 -10.4637 -9.57962 2.19874 
844 1 1.50088 -15.6499 7.59335 
845 1 11.2252 -6.6372 5.55882 
846 1 14.5934 -6.51507 4.91372 
847 1 7.78511 11.0806 6.90465 
848 1 -1.30937 5.93883 -3.16488 
849 1 0.0967166 -9.02465 -8.19939 
850 1 -3.3613 4.3634 -10.5987 
851 1 -8.80756 0.685275 16.0205 
852 1 -1.95252 13.9648 2.89375 
853 1 13.136 -0.477617 5.83791 
854 1 3.24979 10.9972 -11.3519 
855 1 -5.17915 10.0402 15.3299 
856 1 8.19013 6.374 10.4605 
857 1 7.36332 -0.543009 -12.5909 
858 1 -6.2181 -12.9688 1.02573 
859 1 -2.82611 -0.60908 -5.06725 
860 1 15.0059 2.41071 5.60983 
861 1 2.94008 -1.87299 -11.2054 
862 1 -1.516 5.15391 12.884 
863 1 7.836 -11.9725 -6.17206 
864 1 4.97304 5.28559 -17.1898 
865 1 -4.79385 -7.68579 -4.08324 
866 1 11.666 4.42093 -11.6325 
867 1 14.3644 -0.424792 0.0834616 
868 1 2.03066 -5.6161 11.8055 
869 1 -2.36597 -9.04095 -11.461 
870 1 -0.989344 0.756496 -0.7045 
871 1 7.29588 12.2732 0.223641 
872 1 2.34086 -8.04792 5.1393 
873 1 -12.7104 5.12804 4.2075 
874 1 12.5407 0.766597 -2.47942 
875 1 15.5795 5.44053 3.41359 
876 1 0.932855 -7.91502 -16.713 
877 1 -11.6847 11.8423 5.66343 
878 1 15.624 8.29599 5.82678 
879 1 8.72505 11.8061 -6.10613 
880 1 4.276 3.09847 -12.3767 
881 1 7.17294 -4.71658 -1.42626 
882 1 -9.96504 1.41718 -0.370487 
883 1 8.67958 6.7247 0.965013 
884 1 -12.3738 -10.2431 -0.0264869 
885 1 -9.58832 7.92538 -5.95093 
886 1 6.5246 3.51754 10.2807 
887 1 -8.9089 0.920403 -7.14737 
888 1 -10.5615 4.95054 6.84175 
889 1 -5.83827 6.19325 -9.33411 
890 1 9.57185 -9.56952 -4.9925 
891 1 -9.7668 -9.24576 -6.45172 
892 1 11.7563 -5.29889 -2.01453 
893 1 -15.4394 6.24976 0.0521605 
894 1 -7.75947 -2.23746 -5.56203 
895 1 11.8986 7.51689 6.27813 
896 1 -7.97279 -6.51463 8.99772 
897 1 9.68553 2.66435 12.3782 
898 1 13.0644 -3.51871 9.7395 
899 1 8.61861 -3.29343 4.19276 
900 1 -13.2098 4.60825 1.17055 
901 1 2.03524 9.28249 12.3448 
902 1 0.376347 10.5226 -12.7223 
903 1 -0.827055 -5.43617 -17.941 
904 1 -5.51103 14.4027 5.61456 
905 1 -12.0321 -12.9441 7.26777 
906 1 4.23077 9.99022 -8.31695 
907 1 -0.899361 10.7792 11.2106 
908 1 13.9182 -4.34767 -4.80019 
909 1 10.5674 -6.07685 8.89374 
910 1 -2.23208 12.5821 -11.8838 
911 1 2.77233 13.7433 -13.7865 
912 1 -0.650028 -5.77218 1.31439 
913 1 -5.91712 -1.84055 11.4943 
914 1 14.3931 5.22666 6.23435 
915 1 -3.98779 1.22313 -10.977 
916 1 12.5626 10.0588 1.09552 
917 1 -14.7759 1.13729 -3.14856 
918 1 -7.5149 -11.3832 2.88183 
919 1 2.63494 14.5285 -10.8232 
920 1 6.01877 -2.81488 11.2992 
921 1 -2.96238 -12.961 -0.5161 
922 1 -7.38785 16.6085 0.139626 