ITEM: TIMESTEP
308000
ITEM: NUMBER OF ATOMS
1000
ITEM: BOX BOUNDS pp pp pp
-30.0 30.0
-30.0 30.0
-30.0 30.0
ITEM: ATOMS id type x y z Coordination
1 1 -12.2406 -1.20649 -5.72023 13
2 1 -10.8204 -3.89133 -6.54807 16
3 1 -10.0987 -5.44359 -3.80823 17
4 1 -12.5092 -3.44361 -3.60035 16
5 1 -9.31287 -6.98959 -6.93318 12
6 1 -7.36156 -9.69285 -6.62356 13
7 1 -6.92748 -11.3046 -4.02459 14
8 1 -8.45642 -8.20984 -3.99908 17
9 1 -9.06422 -0.614575 -11.3841 10
10 1 -7.42039 -3.45611 -12.0297 11
11 1 -6.92147 -5.38899 -9.01937 17
12 1 -8.89545 -3.53771 -9.31333 14
13 1 -9.22239 -0.772604 -6.14177 21
14 1 -7.38781 -3.67257 -6.09007 21
15 1 -7.19041 -5.63935 -3.32043 23
16 1 -9.05628 -2.89106 -3.5403 20
17 1 -6.01818 -6.42928 -11.5397 10
18 1 -5.208 -8.5634 -8.72351 14
19 1 -5.74444 -6.51867 -6.23995 24
20 1 -3.84862 -9.38898 -6.26226 22
21 1 -3.39545 -11.3338 -3.72655 22
22 1 -5.45294 -8.54104 -3.37518 25
23 1 -5.86074 -0.953037 -11.6853 16
24 1 -3.78887 -3.92781 -11.6108 15
25 1 -3.66378 -5.83126 -8.72288 21
26 1 -5.59505 -2.72966 -8.44548 21
27 1 -5.55548 -0.755959 -5.71102 23
28 1 -3.95483 -3.90976 -5.97438 21
29 1 -3.97111 -5.56739 -3.49582 24
30 1 -5.63669 -2.55501 -3.43029 21
31 1 -1.52826 -12.9611 -6.08504 9
32 1 -2.39068 -6.34468 -11.1753 14
33 1 -5.2715 -12.9612 -6.06864 9
34 1 -2.5366 -11.6022 -8.24318 12
35 1 -2.05778 -6.86468 -6.01555 23
36 1 -0.823997 -10.0135 -5.73695 22
37 1 0.0726118 -11.5861 -3.6975 15
38 1 -1.97198 -8.66993 -3.21565 25
39 1 -2.34444 -0.892275 -11.5526 15
40 1 -0.679997 -3.85132 -10.9762 16
41 1 -0.432677 -5.65353 -8.47137 24
42 1 -2.03515 -2.74816 -8.73109 20
43 1 -1.9594 -0.975784 -5.89736 25
44 1 -0.201276 -4.00216 -5.88137 22
45 1 -0.594031 -5.84962 -3.7142 20
46 1 -1.97839 -3.02121 -3.53345 23
47 2 -12.5115 -0.779396 -3.91016 16
48 2 -10.7115 -3.85759 -2.96097 19
49 2 -6.63362 -11.13 -0.889954 15
50 2 -10.1839 -5.61606 -5.72425 16
51 2 -12.2686 -3.07846 -5.47412 15
52 2 -10.4828 -3.24132 -8.24493 13
53 2 -10.7674 -5.86927 -0.164943 16
54 2 -13.7904 -5.35853 0.180667 9
55 2 -13.9099 -0.169718 -1.21964 13
56 2 -14.0247 -2.90817 -2.40855 11
57 2 -8.51011 -8.37755 -5.81145 15
58 2 -7.34112 -5.11766 -10.9974 12
59 2 -5.07293 -11.8374 1.9546 19
60 2 -7.20622 -9.44818 -3.5058 17
61 2 -8.99384 -6.57396 -2.97314 17
62 2 -6.40588 -11.3214 -6.03839 13
63 2 -7.16699 -5.99503 -7.30916 17
64 2 -9.30742 -2.8057 -5.82183 19
65 2 -8.56133 -2.47012 -10.852 15
66 2 -7.2502 -3.69617 -8.30558 17
67 2 -6.85531 -5.7128 -1.41067 22
68 2 -8.81914 -3.19429 -0.665979 20
69 2 -9.07957 -1.04851 -3.35039 19
70 2 -7.34156 -3.67576 -4.00105 23
71 2 -5.27267 -12.0081 -3.6155 16
72 2 -3.41934 -12.6527 -6.84838 11
73 2 -5.68678 -8.62204 -6.6713 18
74 2 -5.23307 -6.77662 -9.17329 16
75 2 -3.62843 -9.80731 -8.37305 14
76 2 -3.33771 -11.6572 -1.54834 16
77 2 -5.22905 -8.66327 -1.51176 23
78 2 -5.56987 -6.6562 -4.117 22
79 2 -3.68836 -9.39119 -3.9733 21
80 2 -4.17043 -5.79555 -11.8718 12
81 2 -5.43258 -2.96314 -11.8969 14
82 2 -3.7557 -5.89038 -6.71061 22
83 2 -5.35165 -2.62494 -6.14152 19
84 2 -5.62517 -0.795711 -9.05517 20
85 2 -3.91407 -3.80693 -8.51964 22
86 2 -3.85031 -5.81364 -1.3694 23
87 2 -5.64947 -2.67803 -1.41649 22
88 2 -5.44988 -0.644614 -3.55681 20
89 2 -3.91419 -3.52805 -3.72338 21
90 2 -2.00516 -12.5572 1.16408 15
91 2 -1.615 -11.6585 -4.50374 17
92 2 -0.419933 -9.6717 -9.26857 13
93 2 -1.96604 -8.92688 -6.48099 21
94 2 -2.08684 -6.89806 -9.46531 20
95 2 -0.555087 -5.6771 -11.595 14
96 2 -0.00685554 -12.1147 -1.76903 13
97 2 -2.11071 -8.58737 -1.42117 21
98 2 -2.36719 -6.3923 -4.19761 25
99 2 -0.298021 -9.6673 -3.246 19
100 2 0.768759 -6.61306 -9.43513 21
101 2 -2.36052 -2.82739 -11.2633 16
102 2 -0.258786 -5.7441 -6.50265 19
103 2 -2.02153 -3.38582 -6.37282 22
104 2 -2.02646 -0.863842 -8.49736 20
105 2 -0.416064 -3.58491 -8.84679 21
106 2 -0.660068 -5.5945 -1.71859 23
107 2 -2.10092 -2.9237 -1.3545 21
108 2 -2.23867 -0.929363 -3.81144 20
109 2 -0.00784743 -4.02988 -4.21201 23
110 1 -13.9731 -3.52436 -0.534561 11
111 1 -12.3663 -6.53374 0.435357 11
112 1 -6.87474 -9.2479 -1.21273 20
113 1 -12.1604 -5.97251 4.11911 10
114 1 -12.2994 -0.969555 -0.583281 20
115 1 -10.5231 -3.93536 -1.04856 22
116 1 -10.1139 -5.43108 1.68351 20
117 1 -12.2133 -2.86344 1.81004 19
118 1 -11.8164 -1.17921 4.3592 14
119 1 -9.82459 -3.6655 4.53186 21
120 1 -10.0439 -5.63337 6.68206 13
121 1 -11.4602 -2.68121 7.40179 10
122 1 -8.81382 -6.62677 -1.05521 18
123 1 -6.71052 -11.1914 1.0571 15
124 1 -3.19045 -11.1567 1.76607 20
125 1 -8.17879 -8.28651 1.70001 15
126 1 -8.72456 -6.909 4.04392 20
127 1 -6.96354 -9.88985 3.8931 15
128 1 -7.74521 -8.39734 6.89047 12
129 1 -8.79442 -0.793193 -0.638883 22
130 1 -6.95553 -3.95334 -0.474512 22
131 1 -6.82594 -5.71315 2.02165 24
132 1 -8.77269 -2.75808 1.90058 22
133 1 -8.35011 -0.61521 4.5232 21
134 1 -6.75341 -3.6066 4.32069 23
135 1 -6.61303 -5.7059 7.1989 21
136 1 -8.2667 -2.85183 7.4486 22
137 1 -8.46166 -3.07367 11.6715 8
138 1 -6.27726 -3.82129 9.80713 19
139 1 -5.44732 -12.3399 -1.756 12
140 1 -4.8816 -12.0964 3.85904 17
141 1 -5.57605 -6.67727 -0.519341 23
142 1 -3.77698 -9.55039 -1.03068 22
143 1 -2.35554 -14.2263 1.92777 11
144 1 -5.23048 -8.65442 1.65741 22
145 1 -5.14574 -6.72637 4.26873 22
146 1 -3.49282 -9.40758 4.62395 24
147 1 -6.08647 -11.9076 6.55434 10
148 1 -4.58484 -8.93195 7.54985 18
149 1 -5.11918 -6.78976 9.79436 12
150 1 -2.41324 -11.7759 7.30202 14
151 1 -5.65844 -0.561051 -1.14011 19
152 1 -3.99744 -3.81114 -0.96164 22
153 1 -3.5157 -5.60437 1.58107 21
154 1 -5.46059 -2.68222 1.54481 22
155 1 -4.96506 -0.771731 4.55656 26
156 1 -3.71913 -3.81024 4.31516 20
157 1 -3.51286 -5.62497 6.96213 24
158 1 -4.87687 -2.79171 7.05746 23
159 1 -5.1323 -0.866197 9.76247 23
160 1 -3.25477 -3.88695 9.74036 21
161 1 -2.82943 -9.80177 10.1423 11
162 1 -5.17513 -2.9368 12.6476 12
163 1 -1.63169 -12.0723 -0.701236 18
164 1 -1.66087 -12.2752 4.14079 17
165 1 -2.04655 -6.61414 -0.814907 24
166 1 -0.274809 -9.0095 -0.669385 21
167 1 0.0594348 -11.4961 1.81794 19
168 1 -1.9566 -8.60341 1.81547 23
169 1 -1.92239 -6.55208 4.40825 26
170 1 -0.272276 -9.46649 4.26945 21
171 1 -3.40281 -14.288 5.49968 9
172 1 -1.61881 -8.56743 7.32898 22
173 1 -1.74108 -6.61544 9.95064 18
174 1 0.489293 -10.5427 8.80973 14
175 1 -1.9298 -0.864075 -0.833578 21
176 1 -0.317406 -3.71658 -0.994878 24
177 1 -0.0684438 -5.81308 1.97082 23
178 1 -2.04034 -3.04402 1.8708 22
179 1 -1.89994 -0.812475 4.32761 22
180 1 -0.374266 -3.64991 4.25422 23
181 1 -0.132862 -5.85039 7.18205 23
182 1 -1.83597 -2.83562 7.16369 24
183 1 -1.96989 -1.25149 9.98779 22
184 1 0.0493135 -3.75887 9.75147 21
185 1 0.379028 -8.46144 11.4438 11
186 1 -1.56148 -2.84659 12.6315 12
187 2 -12.1094 -2.9516 -0.170407 20
188 2 -11.8523 -6.55948 2.30144 10
189 2 -8.3197 -8.26208 -0.174476 18
190 2 -10.2494 -5.62707 4.65828 14
191 2 -11.8832 -2.48349 5.64334 13
192 2 -12.2852 -0.887644 1.98129 16
193 2 -10.6852 -3.79385 2.64207 22
194 2 -10.5485 -1.37923 8.31135 10
195 2 -9.80609 -3.73246 6.7782 15
196 2 -3.05333 -11.0918 3.64162 22
197 2 -7.79648 -8.22015 4.91971 17
198 2 -8.55045 -6.34706 2.1188 21
199 2 -7.39414 -9.87454 2.05465 16
200 2 -8.58145 -6.71003 7.00564 12
201 2 -6.18017 -9.92356 7.17653 11
202 2 -6.57113 -5.35942 4.15159 20
203 2 -8.28039 -2.4308 3.70969 22
204 2 -8.80942 -0.791689 1.2048 24
205 2 -7.0315 -3.78093 1.63487 22
206 2 -6.01644 -5.49282 8.85862 17
207 2 -6.42729 -3.45642 11.5332 14
208 2 -8.37606 -0.888879 6.42397 23
209 2 -6.66572 -3.75386 6.46187 23
210 2 -4.64718 -2.74239 8.96089 23
211 2 -2.53413 -14.2299 3.70564 11
212 2 -6.68593 -11.5074 4.89061 13
213 2 -5.10841 -8.52302 3.88185 25
214 2 -5.42229 -6.68576 1.32342 24
215 2 -3.84438 -9.46077 0.809276 25
216 2 -4.0315 -8.51782 9.42171 14
217 2 -5.09132 -6.91591 6.69236 22
218 2 -3.1296 -9.37658 6.62648 19
219 2 -3.42007 -5.59056 3.72712 24
220 2 -5.0442 -2.71207 3.57208 23
221 2 -5.5264 -0.909218 0.918656 23
222 2 -3.74418 -3.59087 0.987692 24
223 2 -3.4685 -5.80475 10.0258 14
224 2 -7.65882 -2.73045 9.19136 18
225 2 -5.11141 -0.669925 6.50488 24
226 2 -3.40831 -3.75472 6.28076 25
227 2 -5.18177 -1.11139 12.1333 17
228 2 -3.39365 -3.41051 11.839 14
229 2 0.150527 -11.8314 3.70566 19
230 2 -4.74346 -13.1789 5.30082 10
231 2 2.03121 -11.5071 6.57835 14
232 2 -1.88353 -8.58106 3.81835 23
233 2 -1.69829 -6.70032 1.0914 22
234 2 -0.119032 -9.28257 1.30897 21
235 2 -1.54381 -10.5256 8.58466 13
236 2 -2.14985 -6.55618 6.61742 22
237 2 -0.194639 -9.55752 6.20173 22
238 2 -1.34564 -8.44534 10.5737 12
239 2 -0.227458 -5.80073 3.87703 21
240 2 -1.86299 -2.69592 3.82334 21
241 2 -2.10612 -1.04443 1.34206 20
242 2 -0.189186 -3.84058 1.1712 24
243 2 -0.49178 -5.81546 9.02211 21
244 2 -1.52472 -2.92225 9.22874 23
245 2 -1.57057 -1.06839 6.33507 23
246 2 -0.254301 -3.89332 6.43972 21
247 2 -1.59553 -0.866069 12.1875 15
248 2 -0.0791256 -3.92455 12.1213 15
249 1 -14.0477 -1.06898 -2.96808 11
250 1 -10.9999 -1.43558 -8.56554 12
251 1 -12.1824 4.64792 -6.62484 11
252 1 -10.5724 1.58139 -6.3766 16
253 1 -10.7206 0.0171647 -3.00025 21
254 1 -12.01 2.89072 -3.8126 14
255 1 -8.33688 9.25264 -8.35811 10
256 1 -10.9428 7.51937 -6.22466 10
257 1 -7.41108 1.94892 -11.3443 15
258 1 -7.13585 0.0962341 -8.56006 19
259 1 -8.84165 3.42138 -8.75136 15
260 1 -9.03138 4.94142 -6.26363 21
261 1 -7.53582 1.99047 -5.62219 22
262 1 -7.23964 0.26218 -3.48478 22
263 1 -9.08074 3.04758 -3.35538 22
264 1 -6.65465 5.83134 -8.44905 21
265 1 -7.26396 7.84149 -6.0723 21
266 1 -7.29113 5.68127 -3.42589 23
267 1 -9.00821 8.36562 -3.65367 15
268 1 -6.57428 11.9168 -3.35471 11
269 1 -5.80644 4.84642 -11.2673 16
270 1 -8.17297 6.33281 -10.9458 10
271 1 -3.78906 -0.0734506 -8.65115 21
272 1 -5.54545 2.81915 -8.76141 22
273 1 -5.52653 4.59972 -5.9392 24
274 1 -4.08706 1.90735 -6.04778 24
275 1 -3.65418 0.104999 -3.30343 24
276 1 -5.52404 3.11979 -3.27076 24
277 1 -3.6453 10.5496 -10.5181 9
278 1 -3.73393 5.78893 -8.77317 23
279 1 -4.49457 7.6454 -11.7545 14
280 1 -6.02158 11.0503 -6.29801 11
281 1 -3.82472 7.43636 -6.28598 21
282 1 -3.98371 5.95591 -3.46745 22
283 1 -5.6999 8.55621 -3.62537 22
284 1 -3.5674 11.8061 -4.41438 14
285 1 -4.30117 2.01777 -11.0489 18
286 1 -1.18748 7.61492 -11.1053 16
287 1 -0.978692 2.10498 -11.5678 16
288 1 -0.435693 -0.0312837 -8.95272 22
289 1 -2.27923 2.77771 -8.90956 21
290 1 -2.39701 4.85965 -5.99183 25
291 1 -0.897081 2.16997 -6.22952 23
292 1 -0.214187 0.113677 -3.85498 18
293 1 -2.31518 2.94322 -3.57995 22
294 1 -1.59992 9.2466 -8.19909 18
295 1 -0.652099 5.86788 -8.46496 22
296 1 -5.63342 8.56489 -9.0066 15
297 1 -2.60535 11.9467 -7.28532 12
298 1 -0.380649 7.70597 -6.03585 21
299 1 -0.423285 5.76021 -3.39895 22
300 1 -2.25223 8.58343 -3.37934 22
301 1 -0.984212 11.0453 -10.4106 11
302 1 -0.59043 11.3408 -4.38692 17
303 2 -13.6548 2.48595 1.34573 11
304 2 -12.3522 4.58104 -3.24165 11
305 2 -11.2345 -0.381777 -6.96958 12
306 2 -11.8249 2.85068 -5.78224 11
307 2 -10.1484 -0.479425 -9.92447 11
308 2 -10.6279 -0.152018 -0.601994 20
309 2 -10.2486 7.64407 1.30173 15
310 2 -10.5101 7.29512 -4.34047 15
311 2 -10.5423 1.84034 -3.49092 19
312 2 -10.7627 5.86353 -6.84841 12
313 2 -10.8495 5.80374 -0.970192 15
314 2 -7.38571 7.63042 -9.25463 15
315 2 -7.44577 0.10412 -11.7986 13
316 2 -7.3291 0.0500387 -6.35867 20
317 2 -9.07487 3.0697 -6.62482 18
318 2 -8.27657 4.95835 -9.469 15
319 2 -7.58354 1.92544 -9.30114 18
320 2 -7.33716 0.290406 -1.2482 23
321 2 -9.1415 2.93576 -1.13431 21
322 2 -9.13583 4.82261 -4.17012 23
323 2 -7.15175 2.29363 -3.86238 21
324 2 -7.30793 5.82432 -6.57634 22
325 2 -6.35367 6.56657 -11.6613 12
326 2 -2.0068 9.52842 -10.9007 12
327 2 -7.54478 5.93608 -1.52229 23
328 2 -9.05818 8.18702 -6.93251 12
329 2 -6.27445 10.4201 -4.48386 14
330 2 -7.40089 7.78246 -4.12953 18
331 2 -7.0209 11.3567 -1.41277 13
332 2 -4.23754 0.053327 -11.4654 15
333 2 -5.78847 2.97062 -11.4692 13
334 2 -3.77681 -0.140007 -6.24735 20
335 2 -5.98561 2.81243 -6.63853 22
336 2 -5.30808 4.71776 -9.44229 26
337 2 -3.85123 1.93013 -9.0248 21
338 2 -3.67163 0.222919 -1.26925 20
339 2 -5.44345 2.9762 -1.36335 24
340 2 -5.49552 4.96504 -3.96357 24
341 2 -3.86366 1.86179 -3.99938 23
342 2 -3.21548 6.28272 -11.5122 13
343 2 -3.92923 5.46842 -6.85926 21
344 2 -6.77268 9.6509 -7.3197 15
345 2 -4.78405 7.38026 -7.80035 17
346 2 -3.97151 5.90826 -1.45692 23
347 2 -5.53428 8.38684 -1.62066 21
348 2 -4.21905 11.9302 -6.22556 10
349 2 -4.16642 7.73352 -4.0589 21
350 2 -5.07798 9.04722 -10.7211 10
351 2 -4.67326 12.8194 -3.34216 12
352 2 -3.67004 11.4401 -1.0677 21
353 2 -0.645851 0.108055 -11.5212 15
354 2 -2.67734 3.14729 -11.5895 15
355 2 -0.414046 0.127249 -6.38342 20
356 2 -2.52335 2.8213 -6.81645 23
357 2 -2.08822 4.69059 -9.25737 22
358 2 -0.58034 1.89227 -9.35148 22
359 2 -0.177761 -0.0696033 -1.71823 24
360 2 -2.24548 3.14766 -1.43068 24
361 2 -2.46426 4.87816 -4.11455 23
362 2 -0.709209 2.27277 -4.09018 22
363 2 0.361092 6.55165 -11.223 15
364 2 -0.598959 5.8172 -6.44332 22
365 2 -2.15544 8.35558 -6.57109 18
366 2 -2.46533 11.0356 -8.86311 12
367 2 -0.607606 7.80775 -8.96998 20
368 2 -0.425648 5.98346 -1.44851 22
369 2 -1.99381 8.89165 -1.38934 19
370 2 -2.10358 10.5426 -3.71825 18
371 2 -0.511606 7.50532 -4.07989 24
372 2 -0.82092 11.5758 -6.56685 15
373 2 -0.0785909 11.7067 -1.18791 20
374 2 -1.83202 14.3372 -1.72376 10
375 2 4.41458 13.24 -3.7126 9
376 1 -13.7691 1.46664 -0.302144 12
377 1 -13.0806 0.875124 2.50109 13
378 1 -12.1836 3.59734 1.8533 15
379 1 -10.9864 5.9702 -3.06811 17
380 1 -10.438 1.77113 -0.431319 22
381 1 -10.4537 -0.0698009 1.99515 22
382 1 -12.1503 4.39565 -1.25747 15
383 1 -12.1231 5.4209 4.73533 10
384 1 -10.5448 1.71764 4.99384 17
385 1 -10.1168 -0.127478 6.99301 16
386 1 -11.1877 3.33435 7.76948 11
387 1 -8.66419 -0.939215 9.53143 16
388 1 -10.5453 7.56996 -0.561582 14
389 1 -10.4176 5.96759 2.15877 16
390 1 -9.46417 7.56366 5.04474 16
391 1 -10.4501 5.91421 7.40646 15
392 1 -8.97731 4.75301 -0.308419 21
393 1 -7.20529 2.05019 -0.556395 21
394 1 -7.06685 0.0374768 1.68701 24
395 1 -9.04283 2.81123 2.07677 23
396 1 -8.81859 4.87315 4.55554 24
397 1 -6.95941 1.97302 4.4437 23
398 1 -6.84382 0.189168 7.16707 22
399 1 -8.52724 2.98968 7.46832 20
400 1 -8.69362 4.53067 10.1777 11
401 1 -6.64274 1.91357 9.95567 19
402 1 -6.94776 -0.216265 12.2105 13
403 1 -8.8067 10.6862 -1.07116 12
404 1 -7.28729 7.77584 -0.884871 23
405 1 -7.42775 6.00864 1.6111 22
406 1 -9.18672 9.07788 2.0112 14
407 1 -7.15751 11.7242 0.654811 11
408 1 -6.81343 7.87436 4.34409 18
409 1 -6.91654 5.9661 6.79612 22
410 1 -8.79474 8.72423 7.20489 11
411 1 -7.20238 7.70273 10.1601 10
412 1 -3.63324 13.423 -2.01289 12
413 1 -5.72411 5.00994 -0.913091 20
414 1 -3.81639 2.12282 -0.89978 20
415 1 -3.8246 0.0696696 1.64991 21
416 1 -5.56616 2.99548 1.86141 21
417 1 -5.56165 5.09123 4.32262 22
418 1 -4.01676 2.18945 4.6139 22
419 1 -3.30941 0.122654 7.15937 23
420 1 -5.01369 3.04029 7.22919 22
421 1 -5.10112 4.8342 10.233 20
422 1 -3.39149 2.03424 10.0101 21
423 1 -3.40435 -0.122752 12.1431 16
424 1 -4.94195 2.62832 12.6408 13
425 1 -5.28421 10.4093 -1.0436 20
426 1 -3.6416 7.97878 -0.97633 20
427 1 -3.77058 5.97896 1.48896 21
428 1 -5.51773 9.08439 1.79238 21
429 1 -5.64995 10.8711 4.81789 13
430 1 -3.82817 8.0728 4.6736 22
431 1 -3.55573 5.89616 7.30028 23
432 1 -5.59955 8.52278 7.31577 18
433 1 -3.73 7.87923 10.2259 13
434 1 -3.59203 5.89391 12.1608 11
435 1 -2.36162 14.4132 0.261224 12
436 1 -3.65138 11.6455 1.42781 16
437 1 -3.67733 11.5353 6.71251 10
438 1 -2.13428 5.16222 -0.89882 20
439 1 -0.662438 1.83125 -0.916592 20
440 1 -0.311549 -0.162132 1.91802 23
441 1 -1.89263 3.17578 1.72124 21
442 1 -2.17168 5.15673 4.60188 23
443 1 -0.177686 2.11423 4.58523 26
444 1 -0.438168 0.0835877 7.13953 23
445 1 -1.99789 3.15688 6.98041 20
446 1 -1.88593 4.85085 9.58886 22
447 1 -0.132547 1.78758 9.41491 19
448 1 0.162661 -0.0202894 12.8373 15
449 1 -1.81687 2.99792 13.1074 15
450 1 -1.87074 10.8536 -1.42565 24
451 1 -0.278766 8.0181 -1.04691 23
452 1 -0.412207 6.02215 2.00391 23
453 1 -2.14655 8.85734 1.99063 23
454 1 -2.25635 11.0681 3.55886 16
455 1 -0.339015 8.04526 4.46187 23
456 1 -0.371814 5.86881 6.61451 20
457 1 -2.23203 8.68058 7.27754 19
458 1 -0.260349 7.41524 9.47649 14
459 1 -0.163577 5.42046 12.8131 12
460 1 0.0164147 13.8193 -1.6044 13
461 1 -0.244972 11.6879 1.04838 19
462 1 1.34093 14.7745 1.20707 8
463 1 -0.276124 11.2608 6.55247 12
464 2 -12.1218 1.42746 4.12721 14
465 2 -12.6473 2.65187 -1.13683 15
466 2 -10.0879 -0.313179 4.18775 22
467 2 -10.2577 1.91034 6.78702 17
468 2 -12.1188 5.24698 2.85601 10
469 2 -10.9657 2.01971 1.32293 22
470 2 -8.42845 -1.18516 11.3532 13
471 2 -11.6148 4.5756 6.27744 14
472 2 -10.12 4.72395 8.74367 11
473 2 -10.3038 5.89626 4.24865 17
474 2 -9.1206 8.81742 -1.71326 16
475 2 -10.1634 7.56214 6.65876 13
476 2 -6.47344 0.249911 3.56974 24
477 2 -8.73828 2.2556 3.71976 22
478 2 -8.93321 4.70118 1.59272 22
479 2 -7.3836 2.04728 1.3687 22
480 2 -6.81829 -0.124178 9.3079 19
481 2 -8.35092 2.70926 9.434 15
482 2 -8.23241 4.75477 6.46977 21
483 2 -6.76146 2.08474 6.68583 22
484 2 -6.44619 1.84549 11.8906 15
485 2 -7.24408 5.93154 4.09677 20
486 2 -8.61297 8.47956 3.64457 17
487 2 -8.58177 10.7706 1.03686 12
488 2 -7.00829 8.0927 1.25038 22
489 2 -7.14322 5.74252 10.4059 14
490 2 -8.31362 8.57018 8.94523 9
491 2 -7.29644 7.82279 6.22933 21
492 2 -3.43877 0.273151 3.98078 21
493 2 -5.52486 2.91942 3.73279 22
494 2 -5.92 5.23563 1.06709 21
495 2 -3.80463 2.11447 1.54969 20
496 2 -3.45345 0.0612753 9.26367 25
497 2 -5.03979 3.06834 9.37434 22
498 2 -5.2763 4.95668 7.00804 23
499 2 -3.51241 1.96179 6.5853 24
500 2 -4.85216 4.42542 12.2251 13
501 2 -3.29788 1.85962 12.3341 14
502 2 -3.9576 6.10571 3.49187 24
503 2 -5.32096 8.98497 3.87168 20
504 2 -5.4659 10.9207 1.02884 15
505 2 -3.75655 8.11441 0.916461 23
506 2 -3.47094 5.78398 9.88978 19
507 2 -5.54812 8.15267 9.30234 16
508 2 -5.16742 10.4426 6.9829 11
509 2 -4.06581 7.61758 6.48756 23
510 2 -3.91011 11.3303 4.76784 11
511 2 -3.57479 13.3566 1.13165 12
512 2 -0.267354 0.120408 3.91089 20
513 2 -1.83134 3.35443 3.59996 22
514 2 -2.07749 5.19882 1.08693 21
515 2 -0.237693 2.01386 1.22318 21
516 2 -0.396988 -0.135518 9.29822 21
517 2 -1.81851 2.84211 9.25906 21
518 2 -2.26826 4.86065 6.37929 23
519 2 -0.1035 2.06832 6.60738 21
520 2 -1.92534 4.88841 12.5427 13
521 2 -0.0976597 1.84229 12.7741 13
522 2 -0.455856 5.818 3.98864 20
523 2 -1.99998 8.85394 3.85591 20
524 2 -1.91481 10.8874 1.61747 20
525 2 -0.461805 7.93029 1.48757 21
526 2 -0.095291 5.35409 8.37815 21
527 2 -2.07325 8.16972 9.15365 15
528 2 -1.82469 10.8108 7.27367 13
529 2 -0.486771 7.77175 6.37232 23
530 2 -0.173225 6.30452 11.0266 16
531 2 -0.804744 11.1889 4.68155 16
532 2 -0.29576 13.7472 0.409488 13
533 1 1.12231 -8.4055 -9.45645 17
534 1 0.759258 -11.1075 -8.62184 11
535 1 -1.88453 -8.66217 -8.70521 18
536 1 1.15479 -7.15569 -5.83274 23
537 1 2.57809 -10.2816 -6.17401 15
538 1 4.36407 -11.4111 -3.36609 14
539 1 1.72614 -8.70417 -3.40987 21
540 1 4.01528 -7.37981 -11.2136 12
541 1 2.63954 -4.05718 -11.0413 19
542 1 0.938861 -0.982737 -11.4544 17
543 1 2.72911 -6.27487 -8.54898 22
544 1 1.24292 -2.65216 -8.7178 23
545 1 1.22679 -0.953897 -6.15448 21
546 1 2.74316 -3.98911 -6.06082 22
547 1 3.2046 -5.85123 -3.36504 22
548 1 1.48016 -2.9687 -3.49695 22
549 1 8.18536 -9.26736 -8.01491 10
550 1 4.27551 -9.52469 -8.55625 15
551 1 4.45945 -7.05982 -5.77789 23
552 1 5.62586 -10.3295 -5.99801 14
553 1 7.54674 -11.2546 -3.05409 11
554 1 5.28844 -8.69805 -3.403 22
555 1 1.07221 -6.78062 -11.665 14
556 1 5.48034 -4.31674 -11.3785 13
557 1 6.14059 -6.73596 -8.36492 22
558 1 4.36439 -3.30677 -8.84225 21
559 1 4.68766 -1.17116 -6.23132 23
560 1 6.42615 -4.08174 -6.00063 23
561 1 6.48743 -5.91217 -3.49852 22
562 1 4.84805 -2.89971 -3.56713 22
563 1 8.0899 -6.73762 -6.1188 19
564 1 8.28813 -9.0171 -4.51005 16
565 1 7.00648 -1.60554 -11.8233 11
566 1 9.6004 -6.18993 -8.62634 10
567 1 7.73007 -3.2559 -9.21487 17
568 1 7.95004 -1.14287 -6.70057 20
569 1 9.50244 -3.99859 -6.7295 16
570 1 9.93636 -5.86297 -4.34295 19
571 1 8.09207 -2.64829 -3.56909 24
572 1 13.5419 -5.30708 -3.51207 8
573 1 11.2906 -0.911448 -6.56406 11
574 1 11.1694 -2.87417 -4.55915 18
575 2 3.69107 -11.652 -1.471 16
576 2 -0.632839 -11.7229 -7.31585 14
577 2 2.24742 -9.90571 -8.13267 15
578 2 0.876216 -9.47816 -5.70426 21
579 2 2.26989 -8.14712 -11.0722 11
580 2 6.3191 -9.9372 -7.59112 13
581 2 4.08067 -11.2632 -5.26356 13
582 2 1.48429 -8.73861 -1.37491 22
583 2 1.29723 -7.00981 -3.86287 21
584 2 3.64735 -9.37811 -3.07 21
585 2 3.81923 -5.50244 -11.4355 13
586 2 0.983758 -3.19316 -11.2247 16
587 2 2.79669 -6.19958 -6.63044 22
588 2 1.16553 -2.88974 -6.83855 24
589 2 1.31184 -0.71645 -9.02536 19
590 2 2.97262 -4.54772 -9.13665 20
591 2 2.99433 -5.83027 -1.43562 23
592 2 1.44131 -3.04303 -1.48595 23
593 2 1.38281 -1.18179 -3.78577 21
594 2 3.15804 -4.03341 -4.07475 22
595 2 6.444 -11.3801 -1.44754 16
596 2 4.31331 -8.73853 -6.55718 18
597 2 4.7457 -7.63971 -9.38352 17
598 2 5.22665 -12.2804 1.72336 12
599 2 5.13452 -8.45989 -1.00133 21
600 2 4.59534 -6.9727 -3.72417 18
601 2 6.3464 -10.204 -4.11053 16
602 2 5.56766 -2.73241 -12.3704 12
603 2 6.28073 -6.01085 -6.36849 19
604 2 4.54148 -3.50998 -6.82744 22
605 2 4.322 -1.28626 -9.33511 22
606 2 6.05815 -3.91533 -9.5488 19
607 2 6.86463 -5.82392 -1.67331 20
608 2 5.14958 -2.85195 -1.40719 22
609 2 4.59235 -1.16533 -4.38337 25
610 2 6.52586 -4.11095 -4.03092 21
611 2 8.53825 -8.79587 -6.21682 14
612 2 7.89181 -7.33412 -8.28885 10
613 2 8.27132 -8.78541 -0.623765 16
614 2 8.2951 -6.9888 -3.91255 21
615 2 8.88215 -10.0223 -2.96576 12
616 2 9.7674 -5.94457 -6.4679 17
617 2 7.87147 -3.07618 -6.84407 20
618 2 7.73271 -1.38675 -9.68893 17
619 2 9.05058 -4.41963 -8.67456 14
620 2 9.80557 -5.75655 -0.870807 23
621 2 7.83179 -2.77407 -1.3755 21
622 2 7.8552 -1.12192 -4.45347 23
623 2 9.5983 -3.88068 -4.02669 21
624 2 11.2548 -8.38031 -0.739716 13
625 2 11.6073 -6.03395 -3.50172 14
626 2 10.975 -2.78582 -6.43972 13
627 2 13.2173 -5.21532 -1.53461 14
628 2 11.0329 -2.80416 -1.0893 21
629 2 13.2484 -0.911941 -2.04159 13
630 2 12.8634 -3.46628 -3.66995 14
631 1 1.81659 -12.2593 -0.910818 12
632 1 1.73098 -12.0562 4.90137 15
633 1 1.18153 -6.39647 -0.919334 23
634 1 3.24028 -9.68342 -0.987393 20
635 1 3.45098 -11.4587 2.17172 18
636 1 1.60793 -8.48732 1.40815 20
637 1 1.4857 -6.61082 4.37765 22
638 1 3.00067 -9.50073 4.25798 20
639 1 3.40902 -11.7132 8.02432 12
640 1 1.55121 -8.82533 7.00406 20
641 1 1.9063 -6.99459 9.36913 20
642 1 3.21678 -9.53397 9.79071 14
643 1 1.36177 -1.05999 -0.99124 22
644 1 3.38542 -3.83131 -1.03048 22
645 1 2.97726 -5.60087 1.81683 23
646 1 1.4795 -2.90575 1.61642 21
647 1 1.40699 -0.730835 4.60978 24
648 1 3.18324 -3.43318 4.26013 20
649 1 2.96414 -5.40716 6.8632 20
650 1 1.42973 -2.59576 6.7928 22
651 1 1.43792 -0.781991 9.80866 21
652 1 3.03506 -3.66807 9.32069 20
653 1 4.90316 -5.46761 12.1056 10
654 1 1.30724 -5.02486 11.9533 13
655 1 5.19211 -12.2223 -0.216903 14
656 1 5.07552 -11.9694 5.25125 13
657 1 4.60418 -6.54509 -0.773448 23
658 1 6.75121 -9.72716 -0.453769 19
659 1 6.62803 -11.2569 2.37467 14
660 1 5.01997 -8.01015 2.08091 24
661 1 4.67806 -6.44859 4.39391 22
662 1 6.7307 -9.12809 4.66981 20
663 1 6.04074 -9.75058 7.61939 13
664 1 4.86551 -6.99502 8.93218 17
665 1 4.74032 -1.09475 -1.11213 24
666 1 6.50572 -4.01717 -0.841368 22
667 1 6.42869 -5.33125 1.67604 20
668 1 4.72395 -2.77562 1.57793 25
669 1 4.81524 -0.440469 4.47847 24
670 1 6.23516 -3.61244 4.30621 24
671 1 6.70442 -5.73404 6.55345 21
672 1 4.80472 -2.63025 7.01842 24
673 1 4.81019 -0.855737 9.34695 22
674 1 7.99957 -3.60258 11.7466 11
675 1 4.96728 -2.98083 10.9631 20
676 1 8.44237 -6.96097 -1.57288 20
677 1 9.80149 -9.38117 -1.43106 14
678 1 8.51058 -8.38935 1.20116 18
679 1 8.17021 -6.57247 3.71306 22
680 1 10.4023 -8.53435 3.63599 12
681 1 8.24159 -7.82083 7.99008 11
682 1 7.0549 -5.54215 9.97633 14
683 1 8.04618 -0.968809 -1.07278 22
684 1 9.53944 -3.87885 -1.97513 24
685 1 9.67538 -5.42007 1.25993 22
686 1 8.09916 -2.47404 1.68734 22
687 1 8.21805 -0.728354 4.36385 21
688 1 9.9206 -3.65435 3.80683 20
689 1 10.3134 -5.937 6.02648 15
690 1 8.23701 -3.06652 6.35379 18
691 1 8.22878 -1.4771 9.58557 19
692 1 9.85489 -4.83323 8.64157 13
693 1 11.5088 -6.59795 -1.71045 16
694 1 12.2516 -7.99868 0.820175 13
695 1 12.1764 -5.594 3.4943 16
696 1 11.192 -0.894902 -1.01609 19
697 1 13.1471 -2.85487 -1.72514 15
698 1 13.6402 -4.96011 0.341825 11
699 1 11.1732 -2.87217 0.942534 21
700 1 11.5723 0.0255075 4.5314 17
701 1 13.1716 -2.73157 3.10287 14
702 1 11.6785 -3.02668 6.14451 13
703 2 1.8336 -12.1125 0.987824 16
704 2 -2.08629 -13.0699 6.11362 11
705 2 3.55917 -11.5385 4.38439 16
706 2 1.33555 -8.44745 3.7818 23
707 2 1.47069 -6.55586 1.14961 23
708 2 3.31584 -9.38713 1.48767 23
709 2 1.48691 -8.90357 8.99715 19
710 2 1.3318 -6.85171 6.33709 21
711 2 4.97722 -11.3323 7.11471 13
712 2 1.20883 -6.81641 11.3449 12
713 2 2.99674 -5.34651 3.89351 23
714 2 1.37901 -2.71324 3.69721 25
715 2 1.39121 -0.94679 1.05814 23
716 2 3.23882 -3.70609 0.944948 24
717 2 3.12152 -5.61164 8.6978 24
718 2 1.45638 -2.78134 8.87262 25
719 2 1.47644 -0.642427 6.57173 21
720 2 3.08049 -3.4306 6.21351 23
721 2 1.6582 -0.953431 11.7533 19
722 2 4.93108 -1.25143 11.6849 19
723 2 6.56283 -10.8843 4.32269 14
724 2 10.3602 -8.60157 1.71118 15
725 2 4.67981 -8.34751 4.37842 20
726 2 4.67017 -6.23583 1.25263 21
727 2 6.61484 -9.44967 1.76285 19
728 2 2.11836 -11.3926 9.43029 10
729 2 4.90953 -6.17675 6.46264 19
730 2 7.20607 -8.56369 6.48637 15
731 2 4.44976 -8.9316 8.7261 14
732 2 6.27052 -5.52022 3.62398 21
733 2 4.91649 -2.4929 3.90934 24
734 2 4.47012 -1.00281 1.17869 23
735 2 6.47868 -3.51605 1.12462 22
736 2 5.54739 -6.60637 10.8633 13
737 2 4.88388 -2.8423 9.00452 18
738 2 5.01818 -0.614415 6.51075 21
739 2 6.44614 -3.87228 6.60634 19
740 2 6.20755 -4.29093 11.5309 15
741 2 3.11697 -4.40602 11.4636 15
742 2 8.42653 -8.43981 4.04566 17
743 2 8.10391 -6.44771 1.65251 21
744 2 11.1124 -6.89134 4.40531 13
745 2 6.88086 -6.48969 8.26761 15
746 2 8.87483 -5.02369 4.91028 20
747 2 8.09426 -2.60203 3.73893 22
748 2 7.93393 -0.70667 1.04795 23
749 2 9.6344 -3.7238 1.93417 20
750 2 8.64244 -4.22696 10.0401 12
751 2 10.0523 -3.80282 6.94232 16
752 2 8.07942 -1.12827 6.36664 19
753 2 9.65262 -6.76097 7.63023 11
754 2 7.84826 -1.56056 11.5339 12
755 2 12.7965 -6.30026 1.69032 15
756 2 11.9145 -3.36353 4.19938 16
757 2 11.1579 -0.573691 0.714742 21
758 2 13.3401 -3.21409 1.04772 15
759 2 11.3301 -1.09283 6.091 15
760 1 4.3881 -1.00575 -11.4218 18
761 1 -2.08188 4.82565 -11.3777 17
762 1 2.30461 7.09796 -11.7979 11
763 1 2.44841 1.81185 -12.1003 14
764 1 3.01445 0.0611823 -8.63461 22
765 1 1.19269 2.77927 -8.8656 21
766 1 1.32304 4.75895 -6.11056 22
767 1 2.73314 1.91424 -6.09648 22
768 1 2.88287 -0.0706855 -3.59064 21
769 1 1.11312 2.96648 -3.34448 22
770 1 4.13907 4.37659 -11.7002 15
771 1 2.8694 5.69662 -8.84725 23
772 1 1.30616 8.74472 -9.25218 18
773 1 0.864831 11.0746 -7.39734 16
774 1 2.45251 7.52787 -6.48433 23
775 1 2.8738 5.70396 -3.54659 24
776 1 1.36621 8.61073 -4.0226 18
777 1 2.91592 12.0941 -4.75831 14
778 1 1.00614 4.56797 -11.2552 20
779 1 5.78453 1.73132 -11.8068 12
780 1 5.99977 -0.181507 -9.06857 21
781 1 4.57958 2.8187 -8.81025 20
782 1 4.61929 4.44656 -6.20915 22
783 1 6.28387 1.88349 -6.31331 22
784 1 6.26298 -0.0814203 -3.7953 21
785 1 4.64941 2.65271 -3.50654 22
786 1 6.18153 5.80364 -9.01803 20
787 1 4.59221 8.19998 -9.19239 15
788 1 4.26447 10.4124 -6.83862 12
789 1 6.26827 7.40268 -6.30603 21
790 1 6.25554 5.77875 -3.99696 22
791 1 4.39954 8.76903 -3.66089 22
792 1 5.70833 12.0356 -3.87019 11
793 1 9.21652 -0.131237 -9.35732 12
794 1 7.69623 3.14 -9.92864 13
795 1 7.99319 4.91708 -6.848 23
796 1 9.5907 2.2528 -7.26421 17
797 1 9.4967 -0.108738 -4.07795 22
798 1 8.04621 2.8094 -4.41541 19
799 1 9.67895 5.91904 -8.8637 12
800 1 7.92501 8.59239 -9.03098 10
801 1 9.3991 7.93322 -6.55718 11
802 1 7.53324 8.66719 -3.60158 17
803 1 11.4027 5.35401 -6.01526 10
804 1 11.2169 2.83242 -4.65662 17
805 1 12.866 -0.146227 -3.83691 13
806 1 13.089 2.3525 -2.16843 12
807 2 2.63801 -0.6365 -11.8289 16
808 2 0.668545 2.66035 -11.8119 16
809 2 2.8138 -0.225485 -6.62565 19
810 2 1.11691 2.96276 -6.81058 24
811 2 1.17308 4.80312 -9.10755 23
812 2 2.84078 2.06512 -9.19634 23
813 2 3.04339 -0.0571837 -1.28098 21
814 2 1.31644 2.78627 -1.24395 19
815 2 1.03053 4.74086 -4.03271 24
816 2 2.87981 1.91395 -4.15573 23
817 2 2.58878 5.32937 -11.9416 11
818 2 3.00737 5.70206 -6.78869 22
819 2 0.8778 8.99981 -6.79446 20
820 2 0.436408 10.3936 -9.37223 11
821 2 3.01118 7.32987 -9.88554 16
822 2 2.73384 5.68621 -1.52918 22
823 2 1.312 8.6544 -1.9274 23
824 2 1.23841 10.696 -4.14047 18
825 2 2.94061 7.48868 -4.17264 22
826 2 2.70491 11.4899 -6.60049 12
827 2 3.06967 11.4899 -1.35986 20
828 2 1.79147 14.1311 -1.60452 12
829 2 4.69956 10.8378 -4.92574 15
830 2 5.99485 -0.0519485 -11.774 10
831 2 4.15734 2.62077 -12.033 13
832 2 6.29276 -0.15842 -6.99387 21
833 2 4.54747 2.46972 -6.89878 21
834 2 4.57332 4.93276 -9.67878 20
835 2 6.10606 2.00107 -9.75554 21
836 2 6.22794 -0.0940761 -1.79929 22
837 2 4.76721 2.74421 -1.18367 20
838 2 4.31453 4.39052 -4.11518 21
839 2 6.2782 1.75459 -4.10215 21
840 2 6.15648 5.57381 -6.87596 21
841 2 4.13289 8.67529 -7.33139 18
842 2 6.29051 7.65498 -9.20068 14
843 2 5.98776 5.36696 -1.82839 21
844 2 4.72931 8.67151 -1.82001 22
845 2 7.55645 8.55743 -6.91126 16
846 2 5.96484 7.62844 -4.29099 19
847 2 7.39733 10.5857 0.382848 14
848 2 9.66133 -0.170938 -7.32116 16
849 2 7.78022 2.96352 -6.36503 20
850 2 8.24161 4.87552 -9.28698 15
851 2 8.87828 1.78024 -9.11518 14
852 2 9.66311 -0.0541642 -1.6607 19
853 2 8.04343 2.63588 -1.16148 19
854 2 7.92925 4.72929 -3.94117 24
855 2 9.5259 1.76213 -4.16362 20
856 2 9.76781 5.98561 -6.84712 17
857 2 9.46205 7.79583 -9.01985 9
858 2 9.73309 5.87247 -1.71811 16
859 2 7.50204 8.40478 -1.44996 20
860 2 6.53334 11.3016 -2.17499 14
861 2 8.9687 7.78377 -4.63758 14
862 2 10.7416 3.50369 -6.48487 16