ITEM: TIMESTEP
23000
ITEM: NUMBER OF ATOMS
1000
ITEM: BOX BOUNDS pp pp pp
-30.0 30.0
-30.0 30.0
-30.0 30.0
ITEM: ATOMS id type x y z Coordination
1 1 -11.2256 -7.65354 -2.60526 12
2 1 -11.5117 -1.98389 -5.65035 15
3 1 -12.6324 -4.76355 -4.26297 12
4 1 -13.2686 -1.78875 -2.88197 13
5 1 -12.2093 0.767927 -1.31719 18
6 1 -13.2946 -5.2813 -1.54096 11
7 1 -5.7643 -11.5203 -3.49749 14
8 1 -6.06929 -6.43538 -9.21648 14
9 1 -8.7568 -7.41754 -7.5164 11
10 1 -4.38328 -9.2725 -8.71591 13
11 1 -5.72211 -6.65155 -5.96341 19
12 1 -8.73503 -6.24082 -4.47127 19
13 1 -6.78055 -9.42321 -5.76737 15
14 1 -8.70762 -9.8361 -3.14314 14
15 1 -5.71054 -6.31811 -2.84989 22
16 1 -8.63235 -6.37211 -1.30992 23
17 1 -6.98383 -9.19741 -0.839141 19
18 1 -5.87949 -1.1485 -12.6487 12
19 1 -8.92505 -1.89013 -10.9534 12
20 1 -7.00701 -4.07969 -11.0431 14
21 1 -9.54505 -5.14164 -9.52621 12
22 1 -6.07786 -1.01168 -9.70312 22
23 1 -9.91995 -2.14727 -8.07193 15
24 1 -7.05588 -3.55348 -7.65627 22
25 1 -9.78917 -4.35254 -6.30235 17
26 1 -5.99556 -0.949085 -6.3815 24
27 1 -8.77908 -1.37886 -4.80883 22
28 1 -6.83024 -3.85563 -4.64819 22
29 1 -9.6316 -3.53892 -2.98185 22
30 1 -5.835 -1.14415 -3.07544 23
31 1 -9.02193 -0.959013 -1.33963 22
32 1 -6.73092 -3.79365 -1.33658 26
33 1 -0.526475 -11.4692 -6.09455 13
34 1 -2.70205 -11.4545 -3.88695 19
35 1 0.158568 -12.1802 -2.46744 17
36 1 -2.48959 -13.3835 -0.766106 9
37 1 0.0212834 -7.19843 -13.2371 9
38 1 -2.96931 -6.47631 -8.34182 19
39 1 -1.23036 -9.38858 -10.5562 10
40 1 0.0496039 -6.40071 -9.61415 24
41 1 -3.20373 -9.19421 -5.96313 21
42 1 -1.10167 -9.14518 -7.7706 19
43 1 -4.13501 -11.8052 -6.61737 11
44 1 -0.283732 -6.47795 -6.32366 22
45 1 -2.85255 -6.39455 -4.27497 20
46 1 -0.755183 -9.08158 -4.3531 21
47 1 -4.06806 -8.87038 -2.63908 22
48 1 0.0982419 -6.55898 -2.82851 21
49 1 -3.09421 -6.46797 -0.9719 21
50 1 -1.25357 -8.83764 -1.15473 23
51 1 -3.32506 -1.46733 -14.5081 11
52 1 -0.871644 -3.83995 -14.2473 10
53 1 -2.8417 -1.6434 -11.0942 18
54 1 -1.55275 -4.40495 -11.4123 20
55 1 -4.21704 -3.56851 -9.27211 20
56 1 -0.182048 -1.07805 -9.7078 24
57 1 -2.89702 -1.10223 -7.58644 22
58 1 -1.12265 -3.78991 -7.91905 24
59 1 -3.90221 -3.91038 -6.05038 23
60 1 -0.13061 -1.23741 -6.12997 20
61 1 -2.97003 -1.11487 -4.56767 24
62 1 -0.833799 -3.67933 -4.45557 24
63 1 -3.82526 -3.67941 -3.07506 23
64 1 -0.442734 -1.30617 -2.91865 21
65 1 -3.09309 -1.32745 -0.936955 22
66 1 -1.01914 -3.65418 -1.21451 21
67 2 -11.5233 -8.38151 -0.757289 14
68 2 -9.06772 -3.83434 -8.12552 18
69 2 -11.5268 -3.82045 -5.33914 16
70 2 -13.0537 -3.69443 -2.93122 11
71 2 -12.4961 -6.31969 -2.87843 10
72 2 -12.8577 -1.05672 -1.13791 13
73 2 -6.92326 -7.82355 -6.95663 14
74 2 -9.61571 -6.43323 -6.24063 13
75 2 -5.05457 -10.0109 -6.69635 15
76 2 -7.3553 -10.564 -4.38612 9
77 2 -6.87882 -6.54961 -4.29078 18
78 2 -9.26064 -7.29771 -2.86484 17
79 2 -5.69684 -10.0339 -2.04371 18
80 2 -8.71314 -10.1775 -1.28628 14
81 2 -6.70813 -7.13944 -1.21532 24
82 2 -9.17099 -3.70029 -10.8633 10
83 2 -7.11693 -1.86728 -11.3437 14
84 2 -9.93172 -1.0555 -9.71072 12
85 2 -5.83872 -4.52259 -9.71521 17
86 2 -8.14104 -6.37927 -9.20784 12
87 2 -6.67191 -1.71127 -8.00663 23
88 2 -9.96447 -1.17813 -6.45122 19
89 2 -5.84062 -4.53734 -6.29914 23
90 2 -8.74047 -4.22307 -4.53569 21
91 2 -6.83167 -1.72325 -4.66097 23
92 2 -9.44324 -1.6527 -2.9689 23
93 2 -5.68784 -3.95982 -2.94544 21
94 2 -8.59329 -4.47595 -1.78139 20
95 2 -6.83767 -1.74666 -1.51398 25
96 2 -4.55407 -11.8449 -4.86783 12
97 2 -0.517822 -12.1023 -4.34107 13
98 2 -3.0634 -12.3125 -2.26457 13
99 2 -0.777467 -12.7274 -0.830747 14
100 2 -0.802017 -7.93798 -11.6553 11
101 2 -4.51252 -7.44711 -8.82685 15
102 2 0.206991 -9.63223 -9.29742 13
103 2 -2.66958 -9.22615 -9.06038 14
104 2 -1.06648 -6.80492 -8.10707 21
105 2 -3.82952 -6.86837 -5.84125 21
106 2 -2.14217 -10.8051 -6.41291 14
107 2 -2.73035 -9.49964 -4.08838 21
108 2 -1.04204 -6.90141 -4.48593 20
109 2 -3.96173 -6.63165 -2.76712 21
110 2 -0.0734031 -9.05971 -2.71006 20
111 2 -3.17141 -9.2923 -0.945157 20
112 2 -1.11441 -6.93994 -0.801392 23
113 2 -1.53065 -2.11292 -14.2562 13
114 2 -3.80924 -1.51236 -12.5855 17
115 2 -0.854783 -5.35822 -13.113 11
116 2 -3.08172 -3.64213 -10.92 15
117 2 -1.07628 -0.748393 -11.4291 21
118 2 -3.97074 -1.46586 -9.14628 20
119 2 -0.0563491 -4.28606 -9.69926 19
120 2 -2.88882 -4.38443 -8.01152 21
121 2 -0.913207 -1.65788 -7.87681 23
122 2 -4.11223 -1.79559 -6.20159 23
123 2 -0.139467 -4.13413 -6.18342 19
124 2 -2.66355 -4.3593 -4.63592 21
125 2 -1.18279 -1.8517 -4.62926 23
126 2 -3.82986 -1.6096 -2.91097 24
127 2 -0.0213674 -4.58505 -2.64943 22
128 2 -2.94678 -4.21874 -1.27768 24
129 2 -0.839976 -1.68294 -1.1251 22
130 1 -11.8593 -6.99513 0.376576 14
131 1 -11.9793 -6.93314 3.84289 10
132 1 -11.7009 -2.31292 -0.374203 16
133 1 -13.6914 -0.846476 0.856969 11
134 1 -12.8291 -4.10267 2.1036 13
135 1 -11.7057 -1.29103 2.91242 19
136 1 -13.0375 -3.90131 5.34768 9
137 1 -11.4423 -1.52878 6.0912 14
138 1 -4.43614 -11.1009 -0.653325 15
139 1 -5.16612 -11.1527 2.27295 13
140 1 -10.1473 -9.82758 -0.0639491 14
141 1 -5.81795 -6.42302 0.305818 21
142 1 -8.91579 -6.73626 1.75732 22
143 1 -7.43108 -9.21472 1.80681 16
144 1 -10.0966 -9.59455 3.29242 10
145 1 -5.93654 -6.7622 3.51767 23
146 1 -9.113 -7.48729 5.65343 17
147 1 -6.85312 -9.05911 4.93765 18
148 1 -6.12292 -6.75473 7.19614 24
149 1 -8.91371 -6.65761 9.11425 10
150 1 -7.58336 -9.19663 7.90534 13
151 1 -5.03363 -8.77665 10.0033 13
152 1 -9.28689 -3.99814 0.189011 20
153 1 -6.04681 -1.17189 0.109632 24
154 1 -8.98545 -1.25599 1.79563 20
155 1 -6.80279 -3.64847 2.28023 23
156 1 -9.74222 -4.66811 3.54449 22
157 1 -5.79336 -1.08954 3.46471 21
158 1 -8.65329 -1.91431 5.03409 22
159 1 -6.81879 -4.76387 5.20534 22
160 1 -9.71946 -4.03465 6.90209 18
161 1 -5.74264 -1.77122 6.94167 19
162 1 -8.71202 -1.62351 8.73358 16
163 1 -6.83873 -3.8832 8.71096 18
164 1 -5.73229 -1.31284 10.172 19
165 1 -5.84889 -6.03112 10.6009 14
166 1 0.211883 -11.5857 0.604547 17
167 1 -2.56613 -11.5036 1.98181 20
168 1 -0.103873 -11.4822 4.02292 17
169 1 -3.17945 -11.7691 5.15711 14
170 1 -1.20073 -11.7304 7.33264 12
171 1 -4.23268 -8.70976 0.597055 25
172 1 -0.12784 -6.20602 0.735788 23
173 1 -3.0184 -6.40803 2.42694 22
174 1 -1.1873 -8.7387 2.0718 22
175 1 -3.94486 -8.94659 3.88965 24
176 1 -0.116775 -6.45222 4.32247 23
177 1 -3.09646 -6.31556 5.53289 23
178 1 -1.27441 -9.11966 5.70267 25
179 1 -4.13068 -9.15418 7.00672 20
180 1 -0.325438 -6.38738 7.56815 22
181 1 -3.23219 -6.54614 8.91044 22
182 1 -1.8873 -9.44541 9.44448 15
183 1 0.248118 -7.14418 10.2505 18
184 1 -2.52431 -6.8058 12.0797 12
185 1 -4.02395 -3.72991 0.467035 23
186 1 -0.214222 -0.687661 0.377005 22
187 1 -2.9827 -1.10442 2.16758 23
188 1 -1.03453 -3.67759 2.03281 23
189 1 -3.70636 -3.5827 3.94065 23
190 1 -0.164696 -1.2019 3.60625 22
191 1 -3.00377 -1.24033 5.71432 21
192 1 -1.02484 -3.64475 5.24704 24
193 1 -4.0453 -3.93991 7.21264 22
194 1 -0.251088 -1.1652 6.98479 23
195 1 -3.0247 -1.15106 9.07701 22
196 1 -1.3564 -3.79526 8.67465 20
197 1 -3.66524 -4.02328 10.6766 18
198 1 0.0384746 -1.25226 10.3818 21
199 1 -3.10511 -1.71507 12.4705 13
200 1 -0.63992 -3.89874 11.7993 18
201 1 0.278442 -0.949729 13.5293 16
202 2 -11.7897 -7.82003 2.24676 13
203 2 -12.9259 -5.14425 0.310397 12
204 2 -12.4099 -2.43312 1.29461 13
205 2 -12.1013 -4.94701 3.97946 13
206 2 -12.7247 -2.23827 4.30267 12
207 2 -11.3051 -3.30753 6.34603 13
208 2 -10.0037 -6.39857 0.319498 18
209 2 -5.93918 -9.9773 0.601804 20
210 2 -9.43004 -9.23708 1.59063 15
211 2 -6.90031 -7.30129 1.80111 23
212 2 -10.0064 -6.7658 4.14419 18
213 2 -5.98016 -9.28911 3.29097 17
214 2 -8.66184 -9.1457 4.5651 14
215 2 -7.17111 -6.82777 5.10029 20
216 2 -8.90118 -7.65092 7.66534 13
217 2 -6.04788 -8.92692 6.67753 18
218 2 -6.87202 -9.08861 9.52785 11
219 2 -9.8379 -2.06509 0.0820075 19
220 2 -5.93279 -4.42998 0.397162 22
221 2 -8.58486 -4.24511 1.99735 21
222 2 -6.96716 -1.67093 1.90125 22
223 2 -9.69992 -1.16741 3.45252 22
224 2 -5.57944 -4.22454 3.71476 21
225 2 -8.67663 -4.0742 5.07528 18
226 2 -6.79384 -1.29597 5.25649 20
227 2 -8.97382 -2.05608 6.96264 19
228 2 -5.90021 -3.87385 6.66851 22
229 2 -8.82626 -4.6025 8.46431 15
230 2 -6.78095 -1.87307 8.76013 17
231 2 -8.98369 0.559005 8.8586 16
232 2 -6.96434 -6.04812 8.87918 19
233 2 -5.53825 -4.22742 10.3922 15
234 2 -3.64547 -12.3367 0.582507 13
235 2 -0.784218 -11.9588 2.29816 17
236 2 -4.02579 -11.6428 3.555 12
237 2 -1.18339 -11.9683 5.52083 13
238 2 -4.02549 -6.82592 0.84648 23
239 2 -0.226491 -9.59411 0.546564 24
240 2 -3.22392 -9.52159 2.10883 21
241 2 -1.08919 -6.90293 2.41034 24
242 2 -4.18845 -7.15133 4.09726 25
243 2 -0.318836 -9.40371 3.7235 21
244 2 -3.34183 -9.83977 5.45187 21
245 2 -1.24692 -7.03781 5.7819 23
246 2 -4.09891 -7.00946 7.27101 23
247 2 -1.00569 -9.68161 7.7494 15
248 2 -3.73022 -9.46553 8.82358 15
249 2 -1.33252 -7.35843 9.05588 20
250 2 -4.09532 -6.88698 10.9543 15
251 2 -0.905776 -7.7373 11.6493 9
252 2 -4.11966 -1.75579 0.663057 22
253 2 0.0634601 -4.28898 0.52505 19
254 2 -2.8474 -4.35555 2.49243 21
255 2 -1.10238 -1.58552 1.99818 23
256 2 -3.90512 -1.51633 4.00647 22
257 2 -0.123268 -4.21882 3.70892 23
258 2 -2.8057 -4.27337 5.47977 22
259 2 -1.16589 -1.55587 5.32327 22
260 2 -3.81236 -2.09494 7.60181 24
261 2 -0.215007 -4.36 7.17304 23
262 2 -3.18452 -4.66876 8.795 22
263 2 -1.13202 -1.19557 8.85987 19
264 2 -4.01066 -1.91072 10.9452 16
265 2 -0.214968 -3.42748 9.98462 20
266 2 -2.15703 -4.95327 11.9109 16
267 2 -1.05991 -2.01581 12.505 18
268 2 -5.69802 1.32257 13.1652 10
269 2 1.17436 -4.1466 12.4601 15
270 1 -9.14152 3.67172 -8.26116 18
271 1 -11.6226 4.07085 -6.15229 11
272 1 -12.8611 1.12549 -4.94983 12
273 1 -12.7517 5.90406 -3.236 9
274 1 -11.7148 3.25052 -2.71813 17
275 1 -11.848 7.7952 -1.03197 12
276 1 -9.02539 3.82011 -11.8613 8
277 1 -6.88466 1.73529 -11.6129 16
278 1 -9.96164 1.01761 -9.86992 12
279 1 -6.31296 4.42708 -9.65672 19
280 1 -10.1545 6.07535 -9.29042 8
281 1 -6.62186 1.723 -7.90326 22
282 1 -9.569 0.854164 -6.45838 19
283 1 -5.97868 4.45483 -6.59938 24
284 1 -8.98737 3.71279 -4.83284 19
285 1 -6.79943 1.64422 -4.62193 24
286 1 -9.64844 1.4102 -2.99346 22
287 1 -5.95153 4.6472 -3.36188 22
288 1 -8.51516 4.6556 -1.55438 22
289 1 -6.87606 1.70289 -1.45473 26
290 1 -6.87066 7.15647 -8.32969 12
291 1 -8.82831 6.21396 -6.4288 14
292 1 -5.33054 10.5871 -5.72705 13
293 1 -8.07444 10.6135 -4.04446 12
294 1 -6.98043 7.46216 -4.61792 20
295 1 -9.59702 7.74792 -3.01552 17
296 1 -5.53027 9.94117 -2.5038 21
297 1 -8.73395 10.0779 -1.01821 16
298 1 -6.77134 7.05798 -1.25261 22
299 1 -6.55707 12.5349 -1.40273 10
300 1 -1.10103 1.02227 -14.5748 12
301 1 -4.36787 1.26466 -13.2386 13
302 1 -0.181801 3.91149 -12.9203 14
303 1 -2.84945 3.78387 -11.0911 16
304 1 -1.29492 1.22826 -11.4376 21
305 1 -4.03019 1.5204 -9.72929 22
306 1 0.114735 4.26244 -9.26141 22
307 1 -2.89518 4.43221 -8.09494 23
308 1 -1.23712 1.44086 -7.94593 22
309 1 -3.91633 1.71876 -6.17337 24
310 1 -0.373409 4.42403 -6.35098 25
311 1 -3.05656 4.32255 -4.72407 24
312 1 -1.22303 1.29177 -4.63443 23
313 1 -3.96026 1.44968 -2.82964 23
314 1 -0.329416 4.12786 -3.28551 22
315 1 -3.39239 4.01023 -1.37674 21
316 1 -1.27609 1.66287 -1.37682 24
317 1 -1.05375 6.57569 -11.7674 17
318 1 -3.86338 6.42249 -10.0243 13
319 1 -0.318144 9.08146 -10.0663 12
320 1 -2.84735 9.80089 -7.8 12
321 1 -1.18905 6.99114 -7.892 22
322 1 -4.07311 7.20359 -6.46818 20
323 1 -0.1735 9.95367 -6.90329 19
324 1 -2.92086 9.86503 -4.41364 20
325 1 -1.13946 7.11251 -4.5939 24
326 1 -4.15222 7.05505 -2.90299 21
327 1 0.0569093 9.33239 -2.70341 20
328 1 -2.59848 9.68002 -1.24731 22
329 1 -1.28223 6.77434 -1.60544 22
330 1 -1.44455 12.7568 -6.05481 11
331 1 -0.473059 14.3604 -4.10614 8
332 1 -3.20451 12.3309 -3.08619 17
333 1 -0.588611 12.3386 -0.868062 17
334 2 -9.79697 4.5089 -6.72752 16
335 2 -12.0883 4.51334 -4.41208 12
336 2 -12.6638 -0.919575 -4.68488 14
337 2 -11.9777 1.24965 -3.19868 15
338 2 -12.3176 4.72493 -1.62258 15
339 2 -9.27362 7.08955 -4.87502 14
340 2 -11.5177 7.31083 -2.8676 10
341 2 -5.83744 0.683347 -12.4 13
342 2 -9.32253 1.88985 -11.4462 11
343 2 -7.09659 3.60958 -11.3469 12
344 2 -9.38869 4.29995 -10.0996 12
345 2 -6.03222 1.02484 -9.64852 21
346 2 -8.67108 1.38484 -8.11822 20
347 2 -7.20997 3.8368 -7.88116 21
348 2 -11.4336 2.11992 -5.95598 15
349 2 -6.00346 1.05592 -6.28903 23
350 2 -8.69214 1.24456 -4.65782 20
351 2 -6.92036 3.6584 -4.85703 23
352 2 -9.63272 3.49622 -3.01913 22
353 2 -5.81403 0.940104 -2.93407 23
354 2 -8.94457 0.947584 -1.18414 22
355 2 -6.86348 3.78059 -1.71204 23
356 2 -5.59498 6.20186 -9.38189 13
357 2 -8.70845 6.79837 -8.37035 11
358 2 -3.75227 9.13331 -6.31238 16
359 2 -6.36802 6.5472 -6.38255 18
360 2 -9.15329 9.66229 -2.72601 15
361 2 -6.67536 9.50278 -4.84313 16
362 2 -7.0359 11.2673 -2.65567 13
363 2 -6.06694 6.54265 -3.00889 20
364 2 -8.81844 6.74186 -1.38311 21
365 2 -6.45714 8.94655 -1.15344 25
366 2 -4.33536 11.2874 -4.36781 16
367 2 -3.00348 0.495387 -14.4904 12
368 2 -0.321739 1.75285 -12.9084 15
369 2 -3.17852 1.98432 -11.7614 19
370 2 -0.722567 4.39508 -10.9555 21
371 2 -3.92975 3.46496 -9.32486 20
372 2 -0.27479 1.15074 -9.63863 21
373 2 -3.13432 0.884819 -8.00403 24
374 2 -1.21431 3.37718 -7.86005 24
375 2 -4.11183 3.69377 -6.55708 24
376 2 -0.264098 0.696585 -6.31433 24
377 2 -3.22545 0.856912 -4.67538 24
378 2 -1.37968 3.2675 -4.90141 23
379 2 -4.31654 3.58647 -3.11104 23
380 2 -0.453389 0.707269 -2.77973 23
381 2 -3.37261 0.662303 -1.15242 24
382 2 -1.30809 3.51915 -1.71369 23
383 2 0.162836 5.79899 -13.3091 9
384 2 -2.75676 5.868 -11.3382 15
385 2 -0.202753 8.40825 -11.9033 11
386 2 -2.2554 11.309 -6.84315 12
387 2 0.10753 6.32075 -9.09074 20
388 2 -3.06965 6.62627 -7.96584 21
389 2 -1.55305 8.98805 -8.63033 15
390 2 -1.91529 12.9967 -4.25884 12
391 2 -0.156905 6.37468 -6.20764 24
392 2 -3.26124 6.36324 -4.55475 25
393 2 -1.22467 9.10275 -4.29133 24
394 2 -3.84979 9.00342 -2.44047 25
395 2 -0.16327 6.18631 -2.98951 24
396 2 -3.11105 5.98133 -1.23665 25
397 2 -0.868809 8.75363 -0.971864 23
398 2 0.447992 10.9716 -2.17283 18
399 2 0.461636 13.2379 -5.58635 11
400 2 0.27956 12.2195 0.854865 16
401 2 0.0688804 13.6849 -2.39858 12
402 1 -11.2778 4.09375 -0.0738938 19
403 1 -11.9094 2.17235 1.96846 16
404 1 -11.5073 4.46251 4.03351 15
405 1 -12.7139 1.9096 5.18078 11
406 1 -11.7784 3.67933 7.36035 11
407 1 -12.4205 6.17624 2.03886 11
408 1 -9.69326 1.93819 0.244109 21
409 1 -5.95135 4.15664 0.335019 24
410 1 -8.65408 4.24244 2.00486 23
411 1 -6.9345 1.29895 1.66223 20
412 1 -9.64995 1.12703 3.48271 21
413 1 -5.79227 4.15745 3.584 22
414 1 -8.67519 3.49769 5.03487 20
415 1 -6.79673 0.602989 5.45913 20
416 1 -9.79438 1.19994 7.19536 21
417 1 -6.38918 3.19811 7.01034 17
418 1 -8.7127 4.46137 8.55506 16
419 1 -7.23246 1.26083 8.75195 21
420 1 -10.0558 1.69605 10.3505 10
421 1 -5.74699 4.0856 9.97533 16
422 1 -7.12194 1.14929 12.1515 10
423 1 -9.35528 7.3178 0.468186 22
424 1 -5.63418 9.70285 0.461759 21
425 1 -8.29123 9.6293 2.03589 13
426 1 -6.84935 6.86133 1.94588 22
427 1 -9.8524 7.1182 3.60577 17
428 1 -5.78476 10.0826 3.65844 18
429 1 -8.41669 9.4025 5.27473 11
430 1 -6.83917 6.87366 5.16149 22
431 1 -9.95052 6.84146 6.87261 11
432 1 -5.48642 8.97707 7.00098 13
433 1 -6.94304 6.70856 8.50688 14
434 1 -3.90208 1.57692 0.417863 24
435 1 -0.681219 4.29925 0.0147714 22
436 1 -3.40116 4.13205 2.10672 23
437 1 -0.911897 1.56213 2.10733 22
438 1 -4.05126 1.6552 3.44736 23
439 1 -0.688873 4.23515 3.68358 21
440 1 -3.24747 4.0951 5.54291 22
441 1 -1.16641 1.35632 5.64279 22
442 1 -4.10342 1.60927 7.2089 23
443 1 -0.555053 4.2936 7.06484 24
444 1 -3.22805 3.77446 8.92577 22
445 1 -1.14016 0.953799 8.7728 18
446 1 -4.20738 1.18529 10.6424 21
447 1 -0.130847 3.8751 10.261 22
448 1 -3.17224 3.97902 12.6982 15
449 1 -1.5147 0.97506 12.3858 19
450 1 -4.16627 1.2922 13.8069 9
451 1 -0.126618 2.87974 13.8437 15
452 1 -4.106 6.95141 0.202505 24
453 1 -0.0407678 9.02373 0.766121 19
454 1 -2.7598 9.59047 2.203 23
455 1 -1.29711 6.56868 2.01947 22
456 1 -4.17961 7.0962 3.61131 23
457 1 -0.213944 9.42854 3.96025 22
458 1 -3.15172 10.2086 5.37678 19
459 1 -1.21305 6.88633 5.49017 22
460 1 -4.00617 6.4422 7.07966 17
461 1 -0.434459 9.36382 7.15595 23
462 1 -2.87656 9.83022 8.89975 11
463 1 -1.40945 6.59207 8.8466 22
464 1 -3.81753 6.75603 10.571 16
465 1 -0.747345 8.90164 10.8273 14
466 1 -1.07926 5.99476 11.9701 14
467 1 -3.52007 12.1104 0.525763 14
468 1 -0.667372 12.324 2.46692 14
469 1 -3.63908 12.7544 3.94622 10
470 1 -0.821879 12.3422 5.69706 14
471 1 0.323583 11.5646 9.22661 11
472 2 -11.5956 1.70976 0.131892 18
473 2 -13.5604 0.753802 1.59479 10
474 2 -12.0845 4.18732 1.84683 16
475 2 -11.4963 1.37136 3.82542 18
476 2 -12.5912 3.84358 5.62454 11
477 2 -11.6911 0.450313 6.27908 15
478 2 -11.3412 6.68159 0.469874 14
479 2 -11.5342 6.3682 3.9174 12
480 2 -9.36268 3.74614 0.00563878 23
481 2 -5.75368 0.914145 0.123447 23
482 2 -8.70969 0.703651 1.78415 23
483 2 -6.80965 3.43268 2.0991 24
484 2 -9.81852 3.80385 3.52023 21
485 2 -5.86093 0.95704 3.39453 21
486 2 -8.69617 1.45851 5.36494 19
487 2 -6.82 4.00787 5.34092 20
488 2 -10.1132 4.93366 6.92055 16
489 2 -6.08333 1.19111 7.26443 20
490 2 -10.4447 2.90954 8.55913 14
491 2 -7.09826 3.55528 8.84966 20
492 2 -5.95266 0.717694 10.127 18
493 2 -8.67059 1.55171 11.4973 8
494 2 -9.11252 9.12406 0.585997 16
495 2 -5.96347 6.30623 0.343011 25
496 2 -8.80737 6.20315 2.09187 26
497 2 -6.58652 8.85193 2.03639 23
498 2 -9.35149 8.99055 3.70894 14
499 2 -5.94162 6.1425 3.52134 22
500 2 -8.69067 7.35691 5.49206 16
501 2 -6.50783 9.21999 5.30073 15
502 2 -5.92759 7.02942 7.03535 17
503 2 -8.64463 6.393 8.33851 10
504 2 -3.71947 9.31939 7.55486 16
505 2 -5.50863 5.98962 9.84748 14
506 2 -5.2516 11.7066 -0.0361205 16
507 2 -5.16353 11.7802 3.56138 12
508 2 -4.15817 3.55702 0.365843 24
509 2 -0.0990547 1.44441 0.251858 19
510 2 -2.76411 0.979089 2.20197 23
511 2 -1.55671 3.84552 1.96432 22
512 2 -3.96174 3.53984 3.74827 22
513 2 -0.247088 0.983934 3.75689 24
514 2 -3.10773 1.07091 5.6755 20
515 2 -1.31424 3.4945 5.45275 24
516 2 -4.48778 3.59327 7.09805 22
517 2 -0.108517 0.862544 7.20448 22
518 2 -3.19656 0.762885 9.01898 21
519 2 -1.38537 3.25018 9.05087 21
520 2 -4.01902 3.41412 10.7047 21
521 2 -0.0591308 0.830652 10.7032 24
522 2 -2.44381 2.29897 13.3871 12
523 2 -3.2925 0.0349832 12.5836 17
524 2 0.0559095 0.895896 13.8431 13
525 2 -3.69291 9.0333 0.42009 24
526 2 -0.288722 6.41628 0.214859 21
527 2 -3.2235 6.39301 2.02202 22
528 2 -1.08783 8.61484 2.41397 20
529 2 -4.01247 9.16269 3.707 21
530 2 -0.26128 6.06533 3.87223 21
531 2 -3.08332 6.38875 5.20594 24
532 2 -1.34909 9.68381 5.39604 19
533 2 -0.94385 9.94066 9.14096 13
534 2 -0.433185 6.40628 7.25554 23
535 2 -2.99188 5.56135 8.57176 21
536 2 -2.37562 7.9999 9.79208 15
537 2 -0.235896 5.77171 10.2819 21
538 2 -2.97636 5.99222 12.1874 13
539 2 -2.57314 11.7789 -1.21832 17
540 2 -2.61119 12.0808 2.29038 18
541 2 0.371954 12.7138 3.98662 13
542 2 -2.48977 11.9941 5.24341 14
543 2 1.92778 10.5513 8.57961 12
544 1 3.1902 -11.6259 -4.42876 12
545 1 5.9786 -11.6536 -2.4206 11
546 1 2.89019 -11.4886 -1.0319 20
547 1 2.99319 -6.40688 -11.2715 16
548 1 1.88741 -9.03448 -9.38168 16
549 1 5.47475 -6.4285 -9.6885 18
550 1 2.76688 -6.51057 -7.77906 21
551 1 4.68471 -9.28559 -7.99902 15
552 1 1.8672 -9.18377 -6.15303 19
553 1 5.97154 -6.5831 -6.14717 21
554 1 3.04701 -6.55091 -4.76441 21
555 1 4.93655 -9.02475 -4.49181 17
556 1 1.88458 -9.37165 -2.83612 21
557 1 5.61171 -6.23955 -2.86098 20
558 1 3.08349 -6.51207 -1.24782 22
559 1 4.86773 -9.08167 -1.11022 23
560 1 1.41887 -4.61375 -12.6437 15
561 1 -0.0779406 -1.28214 -12.8256 18
562 1 2.63741 -1.12815 -11.4147 18
563 1 4.66901 -3.40395 -11.5598 13
564 1 1.6531 -3.51953 -9.49422 23
565 1 5.54223 -1.87284 -9.6326 18
566 1 2.79384 -1.09682 -8.16409 22
567 1 4.73504 -3.85287 -7.82747 21
568 1 1.78002 -3.69669 -6.34066 23
569 1 5.62836 -1.13083 -6.26091 23
570 1 3.03563 -1.07331 -4.68868 23
571 1 4.80344 -3.88467 -4.49494 20
572 1 1.91797 -3.99646 -2.74577 20
573 1 5.65555 -1.70549 -2.81621 20
574 1 2.64378 -1.1823 -1.22187 20
575 1 4.74892 -3.94379 -1.17846 22
576 1 8.61037 -6.85502 -8.11919 13
577 1 7.29131 -9.07303 -5.64691 11
578 1 11.0286 -6.12905 -6.11235 12
579 1 8.57979 -6.70873 -4.34551 19
580 1 8.46769 -9.36952 -2.44775 14
581 1 11.1801 -6.51386 -2.29541 18
582 1 8.3189 -6.29384 -0.946823 19
583 1 9.99545 -8.40838 0.568901 14
584 1 7.70642 -4.33818 -9.71555 14
585 1 5.7262 -8.95331 -11.3901 6
586 1 8.74681 -1.32967 -7.86369 15
587 1 10.6988 -4.20715 -8.1198 10
588 1 7.64872 -3.51992 -6.25047 22
589 1 11.9444 -2.4289 -5.76657 13
590 1 8.77604 -1.35344 -4.65595 21
591 1 10.3746 -4.21526 -3.78472 19
592 1 7.84091 -4.07813 -2.74609 18
593 1 11.6692 -1.53713 -2.58019 19
594 1 8.45284 -1.33068 -1.03692 21
595 1 10.1753 -3.7916 -0.818101 19
596 1 13.6406 -4.33527 -2.94419 12
597 1 14.2417 -1.14227 -0.920471 13
598 2 0.0790542 -9.63292 -6.26659 19
599 2 1.82613 -11.516 -3.12885 15
600 2 4.76514 -11.9244 -1.07534 13
601 2 1.78691 -6.45591 -12.8731 11
602 2 5.58098 -9.5096 -9.72066 9
603 2 1.81848 -7.04136 -9.60756 21
604 2 2.87259 -9.10565 -7.77664 15
605 2 4.82119 -6.67268 -7.91675 20
606 2 1.65483 -7.00274 -6.12757 22
607 2 5.56555 -9.3911 -6.35938 14
608 2 3.07225 -9.60045 -4.46275 19
609 2 4.89832 -7.06369 -4.4692 22
610 2 2.05398 -6.57346 -2.75934 19
611 2 5.46873 -10.0161 -3.05417 20
612 2 2.67718 -9.43376 -1.019 22
613 2 4.93694 -7.18376 -1.28472 21
614 2 0.417819 -3.01062 -13.0353 15
615 2 2.87329 -4.42063 -11.4085 16
616 2 4.54388 -1.15613 -11.2678 13
617 2 1.65638 -1.66599 -9.87258 21
618 2 4.51711 -7.53027 -11.2319 11
619 2 2.69397 -4.45451 -8.03741 23
620 2 4.64888 -1.80321 -7.89582 23
621 2 1.84071 -1.64894 -6.41874 23
622 2 5.8597 -4.49022 -6.29837 22
623 2 3.00141 -4.47416 -4.55374 25
624 2 4.85379 -1.96204 -4.6077 22
625 2 2.16503 -1.97474 -2.96566 23
626 2 5.87408 -4.18862 -2.73787 23
627 2 2.98882 -4.49876 -0.921906 22
628 2 4.647 -1.21701 -1.16669 21
629 2 7.44179 -6.39843 -9.58229 12
630 2 7.79922 -6.67885 -6.38879 16
631 2 8.56964 -8.78496 -4.16201 13
632 2 10.5964 -6.53991 -4.44086 13
633 2 7.53198 -6.37393 -2.67095 21
634 2 8.60852 -8.10069 -0.802749 19
635 2 11.2512 -7.75511 -0.650083 12
636 2 5.42657 -3.93916 -9.58617 16
637 2 7.22174 -1.1576 -9.02018 18
638 2 10.3689 -6.13276 -7.88148 9
639 2 8.92861 -3.27623 -8.40083 14
640 2 7.68512 -1.44379 -6.29005 18
641 2 11.4805 -4.15584 -6.14883 13
642 2 8.71699 -3.68804 -4.86678 22
643 2 12.0881 -3.29579 -3.58224 18
644 2 7.59674 -1.12638 -2.95132 21
645 2 9.90096 -5.23033 -2.08661 18
646 2 8.31 -3.23967 -0.738919 21
647 2 10.4485 -1.476 -0.678742 19
648 2 12.7666 -0.948225 -6.75455 6
649 2 14.1111 -3.10783 -1.56991 10
650 2 13.0511 -5.85726 -2.03196 13
651 1 5.11188 -11.9219 0.810589 14
652 1 2.43759 -11.3815 2.42942 17
653 1 5.07473 -11.8423 4.4013 12
654 1 2.35179 -11.968 6.11026 13
655 1 1.62381 -8.6697 0.345422 24
656 1 5.86744 -6.70952 0.666168 22
657 1 2.72516 -6.61242 2.5399 21
658 1 4.71206 -9.15637 2.42112 17
659 1 1.67424 -9.32555 3.82273 20
660 1 5.61307 -6.3332 4.12021 19
661 1 2.51361 -6.51897 5.87109 20
662 1 7.24533 -10.0197 6.22984 9
663 1 1.18191 -9.41945 7.6878 19
664 1 5.9141 -7.01698 7.45959 19
665 1 2.92854 -6.97757 8.62668 18
666 1 4.27075 -10.0299 7.646 12
667 1 6.00852 -6.15317 10.1721 12
668 1 2.76855 -5.68189 12.05 12
669 1 1.94021 -4.31679 0.861635 19
670 1 5.59001 -1.90813 0.393858 21
671 1 2.62093 -1.24338 2.22157 21
672 1 4.78265 -4.0142 2.29838 21
673 1 1.76531 -3.62295 4.01161 22
674 1 5.43194 -1.55552 4.04698 21
675 1 2.59097 -0.916717 5.71115 22
676 1 4.66606 -4.36365 5.76169 21
677 1 1.72584 -3.86532 7.11833 21
678 1 5.83029 -1.46789 7.08384 21
679 1 2.77923 -0.78193 8.66696 23
680 1 4.71566 -4.04593 8.69812 23
681 1 1.77398 -3.46219 10.1231 23
682 1 6.12943 -1.04284 10.1072 17
683 1 3.24081 -0.96714 11.9691 20
684 1 5.66515 -3.46592 12.3282 11
685 1 2.4989 -3.21524 13.6424 12
686 1 7.6592 -9.97212 0.127673 15
687 1 13.1238 -7.08207 -0.595314 9
688 1 8.89377 -6.30696 2.56731 23
689 1 10.9178 -8.14224 4.17414 11
690 1 8.05922 -9.77683 3.35911 14
691 1 11.9213 -5.54684 2.08967 15
692 1 8.56289 -6.95821 5.54487 17
693 1 9.09245 -6.10841 8.88208 11
694 1 7.56975 -3.99162 0.742261 20
695 1 11.6355 -0.800987 0.746235 22
696 1 8.28683 -1.00602 2.47247 22
697 1 10.3864 -2.90988 2.35114 21
698 1 7.57379 -3.62753 3.85702 21
699 1 11.2291 -0.466604 4.06655 20
700 1 8.55265 -1.49871 5.7658 22
701 1 10.4071 -4.66016 5.19174 19
702 1 7.73705 -4.13721 6.92323 22
703 1 11.4167 -0.69424 7.07975 14
704 1 8.99862 -0.704668 8.74164 15
705 1 10.9137 -3.58165 8.16328 14
706 1 7.8676 -3.7524 10.0905 16
707 1 13.5382 -4.04453 -0.0251049 12
708 1 14.2823 -0.963404 2.57298 10
709 1 12.4484 -2.87994 5.05482 12
710 2 2.08447 -11.7532 0.611472 15
711 2 4.26109 -11.7845 2.63985 14
712 2 1.797 -11.3002 4.34365 15
713 2 0.906767 -11.3895 7.30388 11
714 2 1.88948 -6.58483 0.499375 19
715 2 5.72567 -9.72746 0.809165 19
716 2 2.64077 -9.20208 2.20432 20
717 2 4.71093 -7.01887 2.1807 19
718 2 2.02248 -7.48998 4.35573 21
719 2 6.62873 -10.6731 4.43026 10
720 2 4.14889 -11.3081 6.0464 12
721 2 4.45895 -6.53642 5.99016 19
722 2 1.48282 -7.23984 7.59732 19
723 2 5.87523 -9.04781 7.10442 13
724 2 2.94447 -9.26046 8.60975 13
725 2 4.71233 -6.14805 8.74023 17
726 2 1.91961 -6.23751 10.4051 16
727 2 1.75481 -1.23534 0.446756 18
728 2 5.54026 -3.80536 0.543573 20
729 2 2.92764 -4.55589 2.73174 20
730 2 4.32537 -2.03547 2.58248 20
731 2 1.69589 -1.5555 3.98663 22
732 2 5.74048 -4.35209 3.99657 20
733 2 2.73515 -4.44085 5.42462 22
734 2 4.59584 -0.732137 5.5201 21
735 2 1.64038 -1.47956 7.10453 23
736 2 5.74898 -3.53191 6.98407 23
737 2 2.85495 -3.52513 8.56186 18
738 2 4.7778 -1.05083 8.56313 19
739 2 2.0327 -1.42737 10.5969 20
740 2 6.07666 -4.29625 10.5266 16
741 2 4.07599 -4.48287 12.9228 11
742 2 5.03748 -1.89725 11.6279 17
743 2 1.9143 -1.44162 13.4422 14
744 2 7.50927 -11.1619 -1.52837 11
745 2 7.85038 -6.04442 0.967857 20
746 2 8.7804 -9.71289 1.58293 13
747 2 10.2597 -7.75039 2.4325 15
748 2 7.5924 -6.48804 3.87697 20
749 2 8.81827 -8.95673 5.11032 12
750 2 10.4308 -6.78167 5.20233 13
751 2 7.49441 -6.0126 7.14765 21
752 2 7.77522 -6.51833 10.1712 8
753 2 7.25085 -0.934343 0.58322 21
754 2 11.6425 -3.78444 0.639973 17
755 2 8.73105 -3.70242 2.41518 20
756 2 10.1925 -0.901921 2.43791 22
757 2 7.44304 -1.40607 4.07601 21
758 2 11.5691 -4.16631 3.62276 16
759 2 8.7239 -3.48901 5.38897 23
760 2 10.5637 -1.24007 5.55117 20
761 2 7.63203 -0.587541 7.23923 22
762 2 11.692 -3.69729 6.64178 13
763 2 9.09423 -4.14773 8.59844 15
764 2 10.9153 -1.70089 8.68314 12
765 2 7.9016 -1.9595 9.81016 17
766 2 13.4831 -1.12712 0.860491 16
767 2 13.4225 -6.05236 0.921097 10
768 2 13.0473 -1.60559 3.73143 13
769 1 1.85656 1.61484 -12.913 14
770 1 4.64437 6.62745 -11.3213 13
771 1 3.14419 3.6383 -10.9751 20
772 1 5.04828 0.793715 -11.5043 13
773 1 1.62224 1.48122 -9.59992 25
774 1 5.81692 3.86407 -9.6514 19
775 1 2.81525 4.41119 -7.80581 22
776 1 4.69061 1.56853 -8.12239 23
777 1 1.62949 1.62597 -6.27253 23
778 1 5.6798 4.31699 -6.38421 21
779 1 2.70204 4.14762 -4.77782 22
780 1 4.70174 1.71276 -4.78802 21
781 1 1.65585 1.50453 -2.82448 21
782 1 5.63102 3.82214 -2.97031 19
783 1 2.5154 4.10765 -1.34032 22
784 1 4.69983 1.02928 -1.29876 21
785 1 2.05406 5.42517 -12.9621 14
786 1 1.86797 8.53019 -11.7367 11
787 1 1.84225 6.74201 -9.66465 22
788 1 2.49021 9.97652 -8.64984 14
789 1 4.72884 7.62398 -7.63104 19
790 1 1.63353 7.24628 -6.20878 24
791 1 5.08498 9.79014 -6.16466 14
792 1 2.26077 9.73666 -4.88954 21
793 1 4.58406 6.4691 -4.61348 22
794 1 1.56964 6.85351 -2.83589 24
795 1 5.29483 9.3785 -2.75139 22
796 1 2.63745 8.8133 -1.2964 19
797 1 4.48942 6.28044 -1.35468 22
798 1 2.01789 12.3942 -6.11541 12
799 1 4.38147 11.6376 -3.68133 16
800 1 1.72849 12.4445 -2.57185 17
801 1 4.62125 13.6119 -1.02041 9
802 1 8.83824 3.88639 -10.5971 8
803 1 7.68663 0.749129 -9.3643 15
804 1 8.63276 4.79915 -7.30171 16
805 1 10.0933 2.02999 -8.42498 12
806 1 7.66388 1.51084 -6.0637 20
807 1 11.2736 3.6182 -6.14662 13
808 1 8.78588 3.48654 -4.54926 20
809 1 10.7457 1.26548 -4.51878 19
810 1 7.46924 0.965883 -2.78442 21
811 1 11.7928 4.51194 -2.66089 16
812 1 8.43736 3.64681 -1.57867 22
813 1 10.2986 1.05758 -1.52829 22
814 1 7.31111 6.53145 -9.40868 12
815 1 7.30369 7.50754 -6.04891 17
816 1 7.76688 9.57154 -4.19565 14
817 1 10.1423 6.72851 -4.91578 12
818 1 7.59681 6.32644 -2.79561 22
819 1 8.42297 9.45739 -0.924881 15
820 1 10.4468 6.76845 -1.51373 15
821 1 6.67109 11.8278 -0.984381 13
822 1 12.7104 0.865338 -7.32581 7
823 1 13.0236 1.96201 -2.30735 14
824 1 14.335 4.80743 -0.110574 10
825 2 1.84364 3.52902 -12.4058 14
826 2 1.63994 -0.325966 -12.9452 16
827 2 3.00104 1.25675 -11.0859 17
828 2 4.4565 4.82767 -10.6995 16
829 2 1.93148 3.76553 -9.44596 21
830 2 5.81473 1.39458 -9.64753 17
831 2 2.77244 0.845037 -8.18607 22
832 2 4.67628 3.58309 -7.93382 19
833 2 1.42694 3.50339 -6.34741 22
834 2 5.65091 0.86705 -6.45216 21
835 2 2.71548 1.10204 -4.81467 21
836 2 4.57278 3.90486 -4.74267 19
837 2 1.61415 3.45642 -3.26752 22
838 2 5.57208 1.50973 -3.1398 21
839 2 2.76455 1.19093 -1.41903 20
840 2 4.51987 4.09775 -1.53824 20
841 2 2.81924 7.04449 -11.9464 12
842 2 1.70033 8.68667 -9.8908 18
843 2 5.68625 7.40058 -9.3722 13
844 2 2.88737 6.46653 -7.87367 22
845 2 3.94849 9.43499 -7.74271 15
846 2 1.58108 11.165 -7.38533 13
847 2 5.6153 6.90667 -6.16941 22
848 2 1.16277 8.83602 -6.08083 20
849 2 4.26339 9.61348 -4.23117 19
850 2 2.00042 8.79725 -3.16143 22
851 2 2.43578 6.24677 -4.73857 23
852 2 2.46603 6.15215 -1.20536 22
853 2 4.40991 8.76339 -1.34477 21
854 2 2.51228 11.7105 -4.36682 16
855 2 5.51645 12.6495 -2.35552 11
856 2 3.02573 12.7185 -1.12568 15
857 2 8.94532 1.87862 -10.2632 9
858 2 7.29527 4.88932 -10.1969 13
859 2 11.4071 1.81879 -6.48016 13
860 2 8.84403 0.685617 -7.64124 17
861 2 9.69243 3.74231 -8.74784 14
862 2 7.40151 3.56162 -6.4783 22
863 2 10.6263 -1.30836 -4.26757 17