ITEM: TIMESTEP
5000
ITEM: NUMBER OF ATOMS
500
ITEM: BOX BOUNDS pp pp pp
-30.0 30.0
-30.0 30.0
-30.0 30.0
ITEM: ATOMS id type x y z Coordination
1 1 4.47625 1.90023 8.91123 13
2 1 0.909126 5.77337 9.61273 13
3 1 -3.31801 0.798196 -7.43236 22
4 1 -10.1914 2.71217 -2.7557 13
5 1 1.55876 4.00908 -9.16526 13
6 1 6.23898 -5.55835 -3.79171 10
7 1 4.76271 -0.713435 7.92471 16
8 1 3.43597 7.7733 9.26154 10
9 1 -9.63049 0.494094 2.68618 17
10 1 7.1912 0.460504 -0.775737 25
11 1 5.43971 5.19549 6.9207 17
12 1 -6.53262 -5.39647 4.12424 15
13 1 -1.82324 -2.25632 -7.75769 16
14 1 8.31296 -0.126021 -3.56939 16
15 1 7.08242 -5.37666 2.84783 12
16 1 -4.60444 10.5314 6.24493 11
17 1 -1.45308 11.4649 0.5374 13
18 1 -0.997236 -0.164276 -9.64078 13
19 1 -0.938781 5.83165 7.62242 19
20 1 -4.79284 7.70791 4.78124 18
21 1 1.21396 6.05569 -6.87805 19
22 1 -5.29307 9.72032 -4.31831 13
23 1 -7.07786 5.69898 -5.67567 19
24 1 -3.62341 10.9796 -1.66145 14
25 1 -9.66555 5.40792 -1.14796 16
26 1 0.406213 8.5405 7.97797 14
27 1 -6.59414 5.82653 -8.90212 13
28 1 -6.72404 -6.29328 6.98064 9
29 1 4.01847 -5.96715 -2.02249 14
30 1 -9.61721 0.786743 -4.2942 16
31 1 -0.420603 -7.50164 3.78592 13
32 1 4.39894 5.21397 -5.69233 15
33 1 -10.3573 -2.02818 -5.97938 7
34 1 -0.321974 8.24253 -8.75629 13
35 1 -0.437156 11.2537 -2.40538 14
36 1 -10.3885 1.19518 5.44541 11
37 1 0.619087 11.1684 5.75637 12
38 1 1.89234 0.324404 9.41847 18
39 1 0.196994 -7.10286 -2.55667 11
40 1 7.81633 0.837878 -6.5475 11
41 1 3.73161 -2.51535 9.89448 10
42 1 1.34905 -2.78497 7.64358 19
43 1 3.68423 7.99297 -0.400198 21
44 1 -9.29972 -4.41859 5.26644 10
45 1 -3.06042 -8.02248 3.05784 13
46 1 -5.86544 -1.31124 10.5581 10
47 1 -10.4116 3.71805 4.29777 15
48 1 4.38137 -5.33067 1.28052 17
49 1 -9.44379 -1.67873 6.08291 14
50 1 -6.07154 12.4678 0.585464 9
51 1 -6.0049 12.0583 4.24305 10
52 1 -3.22591 7.63799 8.07464 12
53 1 -7.28837 -1.97324 -4.58763 19
54 1 -5.01147 -1.64154 -8.48329 12
55 1 4.69057 5.12666 9.65221 11
56 1 -3.07009 -2.12436 11.4206 9
57 1 -6.81524 2.47227 -8.96602 13
58 1 -9.48533 0.150027 -0.809335 16
59 1 -6.25177 -7.44921 1.27944 12
60 1 -7.61107 9.19872 5.73107 9
61 1 -0.650319 -6.29698 -5.24155 11
62 1 -1.37127 9.00315 6.08772 15
63 1 -11.4758 1.54204 -6.63113 7
64 1 -10.5622 8.5936 -1.67681 8
65 1 -3.72769 -5.20396 -7.4703 9
66 1 4.70797 -4.91077 7.97864 14
67 1 -9.57395 6.14824 -4.84861 12
68 1 -6.81233 1.77495 10.4215 11
69 1 -9.02757 6.17491 6.73975 10
70 1 -2.97795 9.00407 -6.98356 14
71 1 -1.0842 -5.3459 7.99724 8
72 1 2.69767 -5.94872 -5.29933 11
73 1 5.00874 0.793713 -8.94887 10
74 1 7.14865 -3.11271 7.62289 10
75 1 -6.1798 -5.22993 -3.99702 14
76 1 -7.54619 0.13288 7.6832 16
77 1 7.08055 2.47116 7.75233 9
78 1 7.36856 6.70663 -0.910645 15
79 1 -1.05006 5.63588 -9.71338 14
80 1 -3.4938 7.72698 -10.3358 10
81 1 1.99663 10.3984 -0.447578 17
82 1 3.49317 2.45671 -7.66931 16
83 1 1.57702 -5.83089 2.96044 19
84 1 6.73839 -3.29523 0.989043 18
85 1 -0.164515 -8.55408 1.01495 13
86 1 -9.63887 4.54899 -8.09501 10
87 1 10.5939 1.12955 -1.43682 14
88 1 -8.13393 8.73069 -3.9161 13
89 1 3.73244 -3.02531 -7.08926 12
90 1 -7.31337 -3.55996 8.29078 12
91 1 -3.02171 -7.85179 -0.00904919 14
92 1 2.07765 -0.488655 -8.07561 17
93 1 4.45299 -4.86348 4.6832 17
94 1 -4.81197 -2.8198 -6.21658 19
95 1 -0.730893 0.182492 11.4828 10
96 1 -1.40523 3.07121 9.40872 15
97 1 4.4863 -0.486961 -6.0787 19
98 1 3.49669 7.97747 -3.64608 16
99 1 9.26759 2.64412 -4.20021 14
100 1 -3.85737 3.90245 -9.2263 17
101 1 -9.42657 6.12656 3.076 12
102 1 0.556423 -2.73431 10.7858 11
103 1 -8.65486 2.78505 -6.34 17
104 1 6.9201 -2.41909 4.55445 17
105 1 5.95114 8.11501 7.22397 10
106 1 1.55507 -5.20349 6.24162 15
107 1 7.50053 5.20134 1.85918 14
108 1 5.59914 10.1727 4.55131 13
109 1 3.08354 9.05259 6.22455 17
110 1 -6.24626 8.82614 -7.06265 11
111 1 -7.69959 -5.68675 -1.07849 14
112 1 -10.3597 8.31776 1.11398 8
113 1 5.31749 9.93779 -1.31603 12
114 1 2.22885 3.75977 10.8028 11
115 1 -0.952802 2.59483 -10.6757 12
116 1 4.05174 11.1768 1.53807 17
117 1 6.9377 -2.41098 -5.58077 11
118 1 6.99623 -6.54115 5.90245 7
119 1 -5.37273 5.00883 9.1232 9
120 1 6.91085 3.31822 4.19923 19
121 1 -1.97232 8.98442 -3.7446 19
122 1 7.29022 5.07532 -4.01442 13
123 1 -3.75251 1.27967 10.6287 11
124 1 -4.8119 -2.63634 7.99535 14
125 1 -7.61141 8.8773 2.54354 17
126 1 3.24578 8.4927 2.93205 22
127 1 -11.3194 -2.03562 3.23359 9
128 1 7.30349 -0.210394 2.12814 18
129 1 -4.14455 -5.24947 2.48434 21
130 1 7.18509 7.08928 4.57345 11
131 1 6.94151 -5.73197 -0.452775 11
132 1 0.67271 11.1759 2.52842 16
133 1 -8.65938 -3.34218 -2.85164 12
134 1 -0.0943764 9.1582 -6.08803 12
135 1 -6.47261 0.28714 -6.39122 17
136 1 2.16801 1.33032 -10.3785 11
137 1 -3.21918 -5.75231 -4.37143 15
138 1 8.98549 -2.21039 -0.771539 11
139 1 -10.67 2.95297 0.669638 12
140 1 -3.83277 6.65153 -7.96076 19
141 1 -6.94851 -3.95077 1.52348 19
142 1 7.06371 0.209818 5.97975 14
143 1 -3.96312 0.995751 -10.4315 12
144 1 -9.17851 11.0079 -1.37912 9
145 1 -9.3529 2.80508 7.68254 11
146 1 5.81463 8.52117 1.57169 16
147 1 9.52476 2.64627 1.40933 14
148 1 -4.48529 -4.84142 6.21693 17
149 1 6.53052 3.19255 -6.37053 12
150 1 2.78508 8.20728 -6.90484 11
151 1 3.171 12.6272 3.99382 8
152 1 1.76243 10.3219 -4.00376 11
153 1 8.69241 4.12157 -1.02336 16
154 1 6.48777 -2.79976 -2.23824 20
155 1 -2.41648 11.7939 4.10186 13
156 1 -4.4775 10.138 2.23845 18
157 1 -2.88491 -7.14023 6.19552 11
158 1 9.84656 -0.906934 1.67733 10
159 1 -9.51702 -3.07351 0.134539 12
160 1 -6.59232 9.6413 -0.589874 19
161 2 -10.6442 2.94486 5.98027 10
162 2 6.89956 6.99437 2.77392 17
163 2 -7.54765 6.85124 -4.14144 19
164 2 -4.74161 -7.0684 6.77105 9
165 2 2.79059 5.6846 10.2779 9
166 2 -5.613 5.0269 6.86445 16
167 2 6.79294 -3.82306 -4.30524 11
168 2 -3.34969 2.95774 -7.60114 19
169 2 0.910519 0.0419076 -9.6062 11
170 2 -3.52478 8.65193 6.27511 16
171 2 6.76231 -0.362896 3.97697 16
172 2 4.12531 7.47616 1.28163 22
173 2 -1.10498 10.7267 5.21194 16
174 2 3.38875 12.9707 2.15877 9
175 2 1.159 8.3603 -7.57438 10
176 2 6.54951 1.01326 -7.98727 10
177 2 -10.5503 3.05964 -7.46032 8
178 2 0.579482 -4.58272 7.80521 13
179 2 -9.34475 2.43681 3.34876 18
180 2 5.07056 -2.25277 -5.88009 15
181 2 -4.15134 -7.27273 1.57477 15
182 2 4.09941 8.73228 7.75742 12
183 2 3.51671 -0.830646 9.38718 14
184 2 -7.894 -5.35583 5.81917 13
185 2 0.915306 -7.6133 2.30715 12
186 2 -9.93435 -2.70581 4.43097 12
187 2 -1.85709 -8.37614 1.32626 11
188 2 -7.83885 -5.14328 -2.92278 13
189 2 -6.20751 11.6295 2.2203 12
190 2 6.53675 5.52382 -2.32535 13
191 2 1.76479 3.03688 -7.43189 22
192 2 -2.51348 10.8266 2.38487 15
193 2 -6.547 10.8539 5.67316 10
194 2 -1.80664 11.0072 -1.18447 14
195 2 -0.399971 10.1321 -4.22391 12
196 2 -1.2707 7.75892 7.63643 14
197 2 0.729704 -0.679758 10.5692 12
198 2 3.72755 0.251094 -7.62993 15
199 2 1.16855 -6.5965 -4.36326 11
200 2 -8.20899 -4.4723 0.196829 15
201 2 8.49543 -2.03527 1.1029 14
202 2 4.77394 9.88824 2.62024 16
203 2 -1.53585 3.75835 -9.39545 19
204 2 0.846314 2.93576 -10.7675 11
205 2 -3.686 -2.77628 -7.95003 13
206 2 2.10459 -2.1396 -7.04048 15
207 2 7.97022 2.38719 -5.48546 13
208 2 -1.99196 0.979467 -10.856 11
209 2 -2.40486 -5.84655 -6.15885 10
210 2 -2.36033 5.82372 -7.17024 21
211 2 -4.75618 -4.82245 4.1985 21
212 2 -6.51903 8.65405 4.17888 16
213 2 -8.71887 -3.27666 6.85899 11
214 2 -9.93448 3.56237 -1.11641 14
215 2 6.12123 -6.11079 4.49068 12
216 2 1.53812 11.6465 4.22045 13
217 2 -1.93999 1.76957 10.6286 10
218 2 -9.54423 5.37565 4.77167 12
219 2 -10.4463 -0.225536 -6.00518 11
220 2 8.02458 5.3279 0.141151 14
221 2 -10.3686 -2.44954 1.59079 14
222 2 -6.45493 6.84703 -7.19441 14
223 2 3.76219 2.25011 -9.69485 11
224 2 -6.24812 8.85989 1.17565 16
225 2 4.24704 -5.47836 -3.97851 14
226 2 0.486948 -7.45113 -0.641278 14
227 2 -7.51493 11.4856 -0.541666 9
228 2 3.17505 -4.97918 3.13661 22
229 2 4.00612 11.1622 4.74887 14
230 2 -3.60002 9.43614 -2.89201 16
231 2 -4.23043 -2.48465 9.92459 11
232 2 -1.55373 7.49032 -9.97887 12
233 2 2.41648 1.84216 8.37116 20
234 2 6.46788 8.61654 -0.298559 12
235 2 3.50884 7.87048 4.65635 21
236 2 -6.99648 -3.38196 3.35378 17
237 2 1.59882 7.44611 8.97597 14
238 2 4.0099 3.20365 10.2788 10
239 2 0.68098 5.92046 -8.93524 14
240 2 0.642155 4.97065 7.70608 19
241 2 7.23119 -1.57878 6.54113 13
242 2 -10.1014 0.784221 -2.458 13
243 2 -6.44666 8.50624 -1.94484 19
244 2 -8.88442 5.09256 -6.5104 14
245 2 -2.51796 -5.33599 6.55153 15
246 2 4.07523 10.3794 -0.0513085 14
247 2 -7.55797 1.51615 -7.49724 15
248 2 10.1469 2.55455 -0.326189 13
249 2 -9.20751 9.53566 -2.59477 11
250 2 9.5985 0.775062 2.15199 13
251 2 -5.6786 -4.51868 7.46475 14
252 2 -6.17611 -1.47254 -6.71714 14
253 2 -4.37902 9.32516 -5.74489 10
254 2 -10.2801 9.85313 -0.168792 9
255 2 -1.24544 -2.66969 11.4084 7
256 2 -9.27499 8.06717 2.57915 11
257 2 0.304138 4.03392 10.1121 12
258 2 -9.37449 2.68225 -4.52363 18
259 2 1.42444 10.088 -2.13045 16
260 2 -3.78045 5.95567 8.52843 11
261 2 -4.93289 2.53066 -10.0476 12
262 2 -4.5371 -4.96596 -2.72177 16
263 2 5.8225 3.76521 8.48478 11
264 2 7.40025 2.42173 -0.449938 21
265 2 3.44144 -5.05659 6.55323 15
266 2 -5.03359 3.07322 9.43664 12
267 2 -9.21102 -2.83393 -4.5582 11
268 2 -8.39494 4.38129 6.9366 13
269 2 -11.1176 -0.0366485 3.71407 13
270 2 -1.4487 -5.99427 -3.49476 14
271 2 -4.24416 8.52692 -8.44246 12
272 2 3.20541 6.45077 -6.6731 14
273 2 2.74844 -4.19253 -5.95623 10
274 2 5.80289 0.944463 7.64462 14
275 2 5.16855 6.56369 8.30212 12
276 2 -1.66761 8.11066 -6.12485 16
277 2 -4.15758 -0.155887 -8.94447 15
278 2 -4.18589 11.5747 4.70845 12
279 2 -6.88379 9.51412 -5.34334 9
280 2 -9.50199 5.33634 -3.17041 15
281 2 -8.43839 7.8428 6.62274 8
282 2 7.89694 -0.873415 -5.22032 13
283 2 -10.4018 7.06231 -0.395552 12
284 2 -4.66956 5.72762 -9.69545 14
285 2 4.56736 -2.98758 8.13985 15
286 2 -8.08719 1.67144 9.06948 10
287 2 -8.81023 0.548633 6.23805 17
288 2 6.6202 -5.13057 7.22668 10
289 2 -10.0109 1.09309 0.82972 15
290 2 -5.36898 0.420435 10.6506 13
291 2 -1.99386 -8.12474 4.69832 11
292 2 7.69321 3.34166 2.43157 16
293 2 3.36929 -5.30222 -0.217788 17
294 2 -4.93885 11.4112 -0.437308 15
295 2 -7.75499 4.24083 -8.7635 12
296 2 -6.88697 -1.47965 8.35823 15
297 2 2.01476 -3.23026 9.42785 15
298 2 4.56121 2.9818 -6.09785 19
299 2 6.34974 8.47043 5.42816 15
300 2 7.58847 2.25737 5.7393 12
301 2 7.9191 -1.43929 -2.10482 16
302 2 7.08237 -3.84615 -0.785778 17
303 2 6.41046 4.94361 -5.62707 12
304 2 -8.9957 -1.93254 -1.3696 17
305 2 6.85512 -3.57909 2.9052 16
306 2 2.81244 9.22325 -4.8903 11
307 2 9.85885 1.14961 -3.13302 15
308 2 4.00494 8.7474 -2.16624 15
309 2 9.98584 -0.493511 -0.448837 13
310 2 6.39812 -5.68499 1.21057 11
311 2 -4.94268 -4.892 -5.82608 12
312 2 0.280686 11.3416 0.74459 16
313 2 1.24563 9.68398 6.88964 14
314 2 -6.57703 -5.75965 2.22849 16
315 2 -3.01859 -0.204318 12.0675 8
316 2 6.36043 5.24272 4.7908 16
317 2 8.40457 3.72934 -3.02031 18
318 2 -5.8094 4.21152 -4.80798 17
319 2 -6.18371 -6.58279 -0.563784 14
320 2 5.94005 -6.19063 -1.90649 11
321 1 -7.05848 0.85005 -2.79781 22
322 1 -7.1275 -1.87674 -1.07568 20
323 1 -1.45801 -4.93364 -1.64765 21
324 1 -4.51404 -5.57096 -0.979619 21
325 1 -1.03095 0.792924 -5.97726 19
326 1 -4.19897 -0.123274 -4.28892 21
327 1 -2.09609 -2.22303 -4.51463 20
328 1 -4.72082 -2.87712 -2.74695 22
329 1 -1.19977 0.510878 -2.71304 20
330 1 -4.18712 -0.0665431 -1.07457 21
331 1 -2.00519 -1.89538 -1.31997 20
332 2 -7.62208 0.18746 -4.50616 19
333 2 -6.63754 -3.04994 -2.98789 20
334 2 -7.4828 0.0358842 -0.85442 17
335 2 -2.3693 -6.25912 -0.584074 19
336 2 -1.57364 -0.306921 -7.53569 19
337 2 -4.59364 0.773204 -5.97034 20
338 2 -0.998271 -2.72402 -5.97419 17
339 2 -4.05889 -1.95756 -4.83782 22
340 2 -2.0634 -0.141681 -4.50518 21
341 2 -4.88498 0.802496 -2.82195 21
342 2 -1.25385 -3.04675 -2.61522 20
343 2 -4.05603 -2.14274 -1.24289 21
344 2 -2.08848 0.0893026 -1.13487 19
345 1 -6.97008 0.191991 1.0997 21
346 1 -8.47745 -2.20569 2.9038 17
347 1 -7.19997 0.841654 4.85287 17
348 1 -1.39773 -6.05736 1.07599 22
349 1 -1.59613 -4.9023 4.62204 22
350 1 -4.57911 -2.72257 0.670619 19
351 1 -1.41297 -0.21175 0.763116 21
352 1 -4.01369 -0.092801 2.47225 18
353 1 -1.79716 -2.45231 2.38887 23
354 1 -4.98884 -2.91482 4.27268 22
355 1 -1.20238 0.501645 4.2495 26
356 1 -4.35705 -0.177019 6.0288 17
357 1 -2.4549 -1.88892 5.66247 19
358 1 -1.04794 0.0918069 7.69891 18
359 2 -6.53028 -2.19409 0.735321 22
360 2 -7.96564 -0.39034 3.24085 19
361 2 -4.12315 -4.56363 0.771862 23
362 2 -1.94239 -6.10498 3.0957 21
363 2 -4.88886 0.174129 0.676982 19
364 2 -0.994559 -2.21747 0.60788 22
365 2 -3.89389 -2.18875 2.45323 19
366 2 -1.71715 -0.340289 2.5993 22
367 2 -4.74102 0.0958961 4.21453 19
368 2 -1.39442 -3.0685 4.42549 21
369 2 -4.24798 -2.12992 6.07461 15
370 2 -2.14201 -0.187895 6.09362 18
371 2 -5.77727 0.885543 6.97713 18
372 1 -7.65246 3.87665 -3.84155 22
373 1 -7.00454 6.67159 -2.39379 22
374 1 -6.79098 3.38112 -0.609953 21
375 1 -1.56523 3.64309 -7.45495 20
376 1 -4.61757 2.8064 -5.98786 19
377 1 -1.51868 6.14457 -5.53954 16
378 1 -4.34139 5.5551 -4.28909 18
379 1 -1.85041 3.4504 -3.87545 20
380 1 -5.0469 2.84109 -2.68238 19
381 1 -1.16842 5.91043 -2.2275 20
382 1 -4.0106 5.0788 -0.754963 21
383 1 -1.80393 2.60943 -0.734275 21
384 1 -4.5851 7.87219 -1.86787 22
385 1 -2.16784 8.60151 -0.172685 23
386 2 -6.99362 2.80066 -2.41846 22
387 2 -7.68068 5.47534 -1.10251 17
388 2 -1.1723 2.79974 -5.68245 22
389 2 -3.70463 3.16679 -3.93049 19
390 2 -2.36721 5.69086 -3.76235 18
391 2 -5.08665 5.91473 -2.47972 22
392 2 -0.821423 2.70489 -2.44655 20
393 2 -4.41562 2.77888 -0.835333 19
394 2 -2.17669 5.39156 -0.506617 22
395 2 -1.31331 8.2482 -1.81201 20
396 2 -3.92486 8.1865 -0.0594363 21
397 1 -7.08532 5.78489 0.772172 17
398 1 -7.66461 3.25729 2.68377 20
399 1 -6.99123 4.2845 5.57289 21
400 1 -4.75591 2.32195 0.975489 18
401 1 -1.20466 5.78973 1.11947 23
402 1 -3.75525 4.94053 3.00774 19
403 1 -1.69685 2.93338 2.46659 20
404 1 -4.77967 2.16146 4.44747 21
405 1 -1.11384 5.7311 4.46264 21
406 1 -4.00094 4.99374 5.94243 18
407 1 -1.72926 2.83685 6.23351 18
408 1 -5.06249 2.64394 7.53902 19
409 1 -4.97423 7.46862 1.3711 20
410 1 -2.13479 8.36606 3.12014 21
411 2 -6.82658 2.21007 0.791035 24
412 2 -8.04 5.06172 2.19162 17
413 2 -6.62995 2.59173 4.5514 19
414 2 -5.24416 5.31954 0.802443 21
415 2 -1.12351 2.35559 0.873086 20
416 2 -3.98424 2.90488 2.78688 20
417 2 -1.85394 4.95913 2.5582 19
418 2 -4.42404 6.07178 4.24019 18
419 2 -0.925996 2.47433 4.17003 21
420 2 -3.86544 2.82195 6.00255 19
421 2 -1.88167 4.76513 6.10499 20
422 2 -0.75247 1.95479 7.6872 19
423 2 -1.16299 7.88431 1.53051 20
424 2 -3.90769 8.16534 2.79714 19
425 2 -1.01429 7.63742 4.48568 20
426 1 1.6366 -5.72671 -0.0415288 17
427 1 0.940732 -2.98619 -5.77801 16
428 1 1.84518 -0.44819 -4.16464 22
429 1 3.85044 -3.31372 -4.12366 21
430 1 0.92675 -3.18687 -2.58417 22
431 1 4.63534 -0.33603 -2.60216 23
432 1 1.6336 -0.474509 -0.829177 24
433 1 3.7443 -3.23329 -0.697016 21
434 2 0.579324 -5.02896 -1.71034 19
435 2 0.766531 0.448903 -5.57128 21
436 2 2.00848 -2.51304 -4.06064 22
437 2 3.77906 0.184418 -4.35321 18
438 2 0.878846 0.378558 -2.34598 22
439 2 4.61908 -2.22994 -2.2054 23
440 2 1.80861 -2.43941 -0.913869 23
441 2 3.49112 0.485808 -1.02311 22
442 2 6.46797 0.602626 -2.57481 19
443 1 0.81471 -2.96637 0.911755 22
444 1 4.15545 -0.414388 0.569856 20
445 1 1.41549 -0.48402 2.51799 22
446 1 3.24201 -2.60369 3.02615 20
447 1 0.40712 -2.47086 4.56392 23
448 1 4.63921 0.0948756 4.08367 22
449 1 1.80838 -0.261539 6.24209 22
450 1 3.65609 -2.59554 6.2168 23
451 2 0.315879 -4.9646 1.39994 21
452 2 0.413327 -6.17484 5.06356 17
453 2 0.726572 0.0734146 0.830526 23
454 2 4.10137 -2.56469 1.06252 19
455 2 1.02887 -2.65565 2.80254 18
456 2 3.14825 -0.130762 2.83681 22
457 2 0.687578 -0.14238 4.4426 22
458 2 5.1344 -3.11921 4.94941 20
459 2 2.05188 -3.16629 5.62187 21
460 2 3.86834 -0.471047 5.70527 21
461 2 0.143667 -1.23813 7.18374 18
462 2 5.89538 0.334209 0.990455 20
463 1 0.880294 2.52332 -5.83089 18
464 1 1.6891 5.47521 -3.93656 18
465 1 3.86608 2.41621 -4.15349 22
466 1 1.16156 2.34119 -2.47498 21
467 1 4.6925 4.98716 -2.48018 20
468 1 1.85651 5.14291 -0.981987 23
469 1 3.80911 2.44844 -0.663954 23
470 1 0.815857 7.97702 -2.03533 20
471 1 6.83151 2.63268 -2.22795 19
472 2 0.106349 5.58916 -5.46902 18
473 2 1.86382 3.42779 -4.269 23
474 2 3.8447 5.82421 -3.96201 19
475 2 0.57644 6.05076 -2.33389 20
476 2 4.8657 2.75259 -2.30452 21
477 2 1.84183 3.10835 -0.727494 23
478 2 3.48843 5.85001 -0.674535 21
479 2 1.59043 8.52689 -0.421596 20
480 1 0.805635 2.41383 0.840037 24
481 1 4.33978 5.51163 1.10405 20
482 1 1.53786 4.7504 2.64985 22
483 1 3.64092 2.63834 2.69624 21
484 1 0.988263 1.99076 4.15311 22
485 1 4.25246 5.79537 4.22151 20
486 1 1.91767 5.0104 6.14546 19
487 1 3.75705 2.76527 5.8105 22
488 1 0.909931 2.90618 8.03224 20
489 1 0.744126 7.93659 1.21186 20
490 1 1.0439 7.61262 4.07002 19
491 1 6.3454 2.51153 1.09835 20
492 2 0.678625 5.99169 1.15719 24
493 2 4.54689 3.08731 1.07185 21
494 2 1.71189 2.76272 2.55697 20
495 2 3.48269 4.81228 2.57248 20
496 2 0.868464 5.47222 4.37392 18
497 2 4.7195 2.35887 4.1966 22
498 2 1.84821 1.86333 5.83954 22
499 2 3.72825 4.73748 6.08033 18
500 2 1.23435 9.14399 2.71931 20
