ITEM: TIMESTEP
71000
ITEM: NUMBER OF ATOMS
500
ITEM: BOX BOUNDS pp pp pp
-30.0 30.0
-30.0 30.0
-30.0 30.0
ITEM: ATOMS id type x y z Coordination
1 1 -10.517 27.1343 8.49168 11
2 1 -12.3883 29.6869 10.2201 14
3 1 -21.8451 28.424 -5.2099 22
4 1 -28.691 -29.4987 -0.59276 15
5 1 -15.4617 -27.7728 -7.74811 11
6 1 -13.7564 21.8763 -2.48264 12
7 1 -14.3473 27.4655 10.2745 19
8 1 -12.2974 -24.0565 10.0012 9
9 1 -28.9571 27.3339 4.49638 17
10 1 -11.4517 27.2054 2.58417 21
11 1 -11.2978 -27.1523 8.88179 14
12 1 -23.197 22.4882 4.95808 24
13 1 -20.1956 25.7291 -4.8321 17
14 1 -10.4221 26.7837 -0.221451 19
15 1 -12.4043 24.6766 4.37458 22
16 1 -24.0273 -24.2878 10.1199 12
17 1 -22.5793 -21.6434 4.93245 14
18 1 -19.0916 27.8549 -6.60217 17
19 1 -19.8722 -27.0855 9.74684 23
20 1 -26.5937 -24.2632 7.8705 16
21 1 -16.1305 -27.6667 -5.10897 22
22 1 -24.8548 -22.0287 -0.980198 9
23 1 -24.9107 -26.5719 -3.98883 16
24 1 -21.1398 -20.9722 2.29637 13
25 1 -27.6872 -26.9905 -2.51904 12
26 1 -18.4056 -23.9201 9.62353 15
27 1 -22.8875 -24.5036 -5.58544 12
28 1 -23.5242 22.68 8.30853 16
29 1 -13.9748 22.037 0.860646 15
30 1 -28.0965 27.181 -1.87631 14
31 1 -20.9263 19.8374 4.44214 14
32 1 -13.4141 -28.0258 -2.96428 18
33 1 -28.4051 24.424 -0.480306 12
34 1 -16.7513 -24.5512 -6.45987 12
35 1 -18.4732 -21.3456 0.933941 11
36 1 -28.6466 27.6082 7.48965 15
37 1 -17.6311 -24.6804 6.89173 21
38 1 -15.2954 -29.8274 11.9868 14
39 1 -17.0954 21.6234 -1.09109 15
40 1 -11.1989 29.8212 -2.66854 12
41 1 -15.3806 24.5009 11.7243 12
42 1 -18.4447 24.7604 10.2885 22
43 1 -14.8771 -25.079 1.52853 19
44 1 -26.0369 22.0832 6.49096 13
45 1 -21.8043 18.8741 1.28183 12
46 1 -22.877 27.8218 11.1659 14
47 1 -29.4791 -29.5828 6.00282 13
48 1 -14.3471 21.4276 4.1369 14
49 1 -27.3182 25.0631 8.28135 14
50 1 -25.903 -22.9938 4.79158 18
51 1 -23.5805 -22.1699 7.88807 12
52 1 -21.1014 -24.1376 8.10822 22
53 1 -25.5481 25.7975 -5.69158 11
54 1 -22.789 26.1455 -7.00061 12
55 1 -13.7923 -27.5308 10.3974 19
56 1 -19.6922 28.5719 12.9675 13
57 1 -25.0138 28.3779 -7.04783 15
58 1 -28.2512 27.38 1.11909 17
59 1 -23.8434 18.8097 4.18671 9
60 1 -25.8272 -26.5099 5.88115 24
61 1 -19.679 22.419 -3.26234 13
62 1 -19.8784 -21.6022 7.60869 14
63 1 -28.3686 28.1804 -5.27376 10
64 1 -29.8573 -24.3601 2.27204 9
65 1 -25.385 22.6051 -0.447802 14
66 1 -18.5622 22.5848 12.4366 10
67 1 -29.3125 -29.8674 -3.48396 11
68 1 -21.2407 -29.7042 11.3506 16
69 1 -28.6599 -26.6942 7.64434 13
70 1 -22.5972 -22.6387 -3.24137 10
71 1 -18.7866 24.9677 13.4888 11
72 1 -16.3821 22.5657 -4.56861 11
73 1 -14.4441 28.8038 -4.63093 15
74 1 -13.0224 24.437 8.78381 12
75 1 -24.7517 20.3867 1.6815 12
76 1 -25.8803 27.5911 9.60855 14
77 1 -12.1909 -29.7937 7.38411 21
78 1 -11.488 -25.443 -0.00952959 18
79 1 -18.7803 -26.753 -6.80912 16
80 1 -19.6008 -24.0693 -4.57894 15
81 1 -15.445 -21.8397 1.77534 15
82 1 -13.3435 -25.7339 -5.64164 13
83 1 -17.4308 21.335 6.08527 12
84 1 -8.5227 21.8942 1.6629 8
85 1 -16.9299 22.5929 2.27705 22
86 1 -26.5605 -29.0144 -5.27258 16
87 1 -9.70564 29.5851 3.67368 18
88 1 -28.09 -23.8943 -0.946247 10
89 1 -14.1905 24.675 -4.08996 13
90 1 -24.1909 24.7808 10.0166 13
91 1 -18.6569 20.3561 2.14241 13
92 1 -16.4842 26.6289 -4.93489 14
93 1 -12.8447 22.8316 6.3829 13
94 1 -22.8593 25.5227 -3.66502 16
95 1 -19.92 -27.6548 13.1181 13
96 1 -17.9861 -24.5581 12.9171 9
97 1 -13.1024 26.9753 -2.43221 18
98 1 -12.0688 -23.9802 -2.74262 9
99 1 -8.75516 29.9118 0.569803 13
100 1 -21.5834 -26.9039 -8.40404 10
101 1 -29.0345 -27.0247 4.26342 16
102 1 -17.157 27.3331 12.0028 16
103 1 -24.4106 -28.0197 -7.22082 14
104 1 -10.8767 27.5276 5.4467 20
105 1 -12.1999 -24.8156 6.75164 17
106 1 -18.057 22.0141 9.24271 12
107 1 -9.65854 -24.7183 2.4687 12
108 1 -13.239 -21.871 6.53905 12
109 1 -14.8836 -25.0246 8.4886 20
110 1 -25.6604 -23.5561 -3.34807 9
111 1 -28.1406 21.7514 1.3183 12
112 1 -28.7412 -26.9256 0.870268 17
113 1 -12.2207 -22.8286 1.58839 14
114 1 -16.7128 -26.9639 11.7174 17
115 1 -18.608 -28.9606 -8.62352 11
116 1 -13.2459 -20.3033 3.46711 10
117 1 -11.2957 24.0469 -2.31224 14
118 1 -11.6314 22.0828 3.10943 16
119 1 -22.8824 -26.712 10.9825 16
120 1 -10.6431 -28.1821 5.37797 15
121 1 -19.9411 -23.944 -1.46172 14
122 1 -10.0553 -27.7833 -0.616858 15
123 1 -20.7868 -24.9132 11.6137 12
124 1 -21.8236 24.4378 11.6904 13
125 1 -28.8402 -24.0203 5.50905 14
126 1 -14.8086 -24.487 5.28848 17
127 1 -29.5317 24.8516 6.01895 13
128 1 -8.24681 27.0063 5.60422 10
129 1 -22.786 22.5793 1.74528 24
130 1 -8.70273 -25.3903 4.80261 8
131 1 -10.9163 21.5955 -0.426004 12
132 1 -15.6357 -19.839 4.92319 9
133 1 -25.5721 25.4876 -2.2781 18
134 1 -16.999 -25.0867 -2.95684 18
135 1 -25.3458 28.0051 -3.84133 21
136 1 -16.5627 29.4438 -6.79092 13
137 1 -22.2259 20.9139 -1.36092 11
138 1 -8.11027 26.747 2.00527 14
139 1 -29.2068 -30.0027 2.7721 16
140 1 -21.7166 -27.3251 -5.48559 22
141 1 -28.9562 21.786 4.66517 12
142 1 -10.0785 25.1543 6.65339 13
143 1 -22.4033 29.7491 -7.64883 16
144 1 -27.7293 -22.7797 2.47224 10
145 1 -26.7805 -29.7519 7.85952 18
146 1 -10.8753 -22.3029 4.52607 11
147 1 -10.9011 -27.6137 2.57265 22
148 1 -21.0583 22.2782 10.0043 15
149 1 -10.9042 -26.741 -3.55288 9
150 1 -14.6585 -23.1085 -4.55215 9
151 1 -16.5203 -22.0295 6.96352 16
152 1 -14.4574 -23.6197 -0.813334 16
153 1 -7.7842 -27.7804 2.16047 11
154 1 -8.6887 24.0886 0.074129 14
155 1 -18.9053 -20.8814 4.33383 12
156 1 -23.7284 -24.2797 5.98587 19
157 1 -22.7958 20.1486 7.21076 11
158 1 -9.22406 24.1974 3.53586 16
159 1 -28.9446 24.4813 2.79963 17
160 1 -24.5293 -21.3721 2.40295 14
161 2 -29.4949 28.579 5.83168 16
162 2 -9.40648 -23.8408 4.15122 10
163 2 -25.8144 -27.1372 -2.25946 19
164 2 -21.5246 21.6461 8.02814 16
165 2 -13.5979 -25.5084 10.5224 15
166 2 -24.6327 -26.0561 9.57768 15
167 2 -11.9496 22.2432 -1.82232 13
168 2 -21.6852 -29.7135 -5.55435 20
169 2 -17.1307 27.6075 -6.46998 14
170 2 -22.7423 -24.7961 7.50809 22
171 2 -14.4353 24.3835 10.1769 10
172 2 -14.1986 -25.0352 3.5305 20
173 2 -20.0956 -21.9566 5.54678 16
174 2 -17.3059 -20.6021 5.39204 10
175 2 -16.3394 -23.7454 -4.29577 13
176 2 -11.9452 -25.9206 -4.74659 10
177 2 -24.4381 -29.8603 -7.34813 13
178 2 -18.9606 21.9791 10.7569 11
179 2 -28.7166 -29.073 4.13626 16
180 2 -12.747 25.2541 -2.90408 14
181 2 -23.37 18.9827 2.37202 11
182 2 -13.8651 -23.4467 9.2083 12
183 2 -15.5922 26.3597 11.4923 14
184 2 -25.9062 25.554 9.52248 13
185 2 -20.1026 19.3656 2.70397 12
186 2 -29.4656 23.1407 5.9359 11
187 2 -20.79 20.2008 -0.154607 12
188 2 -27.1563 22.9542 -0.0188539 15
189 2 -24.1154 -22.3935 6.02311 15
190 2 -11.334 -27.2693 0.615225 19
191 2 -14.5475 -24.4304 -6.27404 10
192 2 -19.1955 -20.6787 2.41143 9
193 2 -21.7793 -22.0638 8.24874 14
194 2 -20.8859 -22.4128 1.33943 17
195 2 -13.3835 -25.4315 -7.80874e-04 19
196 2 -19.8202 -25.2762 9.08647 21
197 2 -18.2261 -26.9361 12.8835 12
198 2 -14.2458 -29.8 -3.27969 17
199 2 -17.6413 22.2381 -3.00029 13
200 2 -29.0375 22.5764 3.0543 13
201 2 -8.28253 24.451 1.8902 13
202 2 -13.8448 -20.439 5.45621 10
203 2 -19.7534 -27.4216 -8.41138 13
204 2 -16.8001 -29.2097 -8.08595 12
205 2 -21.8213 25.2684 -5.56641 13
206 2 -14.2732 27.0269 -3.97049 14
207 2 -11.5242 -28.3274 -2.66219 15
208 2 -18.918 29.7368 -7.15854 16
209 2 -21.1659 22.2753 -1.87065 12
210 2 -19.6391 -27.5546 -5.10799 23
211 2 -23.9978 21.7817 6.68457 17
212 2 -26.8976 -23.621 6.09115 15
213 2 -23.1737 26.0474 11.2892 15
214 2 -28.1704 -28.8497 1.13739 19
215 2 -14.2186 23.8566 7.40835 15
216 2 -18.0913 -22.7147 7.98066 16
217 2 -19.1231 -23.9303 11.4624 13
218 2 -28.5012 -28.798 7.31105 15
219 2 -26.385 27.6898 -5.65187 13
220 2 -9.20347 -26.521 2.64873 14
221 2 -28.6744 25.4733 4.44429 17
222 2 -24.5911 -24.3503 -4.65584 11
223 2 -14.3405 -27.411 -6.08434 13
224 2 -24.9406 -25.2299 4.40995 18
225 2 -14.533 22.803 -3.9691 12
226 2 -15.2876 21.7534 2.40594 17
227 2 -26.1547 -22.1924 3.18515 12
228 2 -15.8738 21.9707 5.4542 13
229 2 -14.922 -22.8855 6.35068 16
230 2 -24.1932 -22.0446 0.732387 12
231 2 -21.1304 28.3871 11.3865 15
232 2 -18.7364 -24.8421 -6.00819 14
233 2 -14.2697 29.3277 10.4673 17
234 2 -12.0434 -21.9647 3.08554 13
235 2 -14.0391 -25.4514 6.68695 22
236 2 -26.3763 24.1652 6.4788 20
237 2 -16.4594 -25.0581 11.8866 12
238 2 -9.70177 27.166 6.85719 13
239 2 -16.7176 -26.4393 -6.60805 16
240 2 -17.667 -27.8875 9.97829 20
241 2 -11.7233 25.6112 8.11374 14
242 2 -28.5021 28.6218 -0.510192 16
243 2 -26.2751 -23.3968 -1.47344 10
244 2 -28.3594 -29.8949 -5.20212 10
245 2 -20.2811 24.1037 9.96434 23
246 2 -14.1493 -22.6976 0.779646 16
247 2 -25.3658 -29.9127 -4.07274 22
248 2 -8.42934 -29.5813 2.47219 13
249 2 -28.1686 -23.9244 1.04836 10
250 2 -11.3464 23.9625 5.71037 16
251 2 -23.1785 23.045 10.2671 12
252 2 -24.5722 26.4822 -7.23404 12
253 2 -21.6982 -23.0491 -1.53363 13
254 2 -28.991 -23.341 3.72068 10
255 2 -16.8561 29.4168 11.4063 19
256 2 -29.5951 -26.2965 2.56324 14
257 2 -15.0244 -28.0284 11.7218 16
258 2 -28.7594 28.246 -3.29191 12
259 2 -16.9234 -22.3013 0.664471 12
260 2 -22.6958 -24.7031 11.3154 12
261 2 -22.3585 27.9794 -7.08163 15
262 2 -23.7652 21.5702 0.128587 15
263 2 -11.3171 -25.25 8.57851 13
264 2 -11.1264 29.0585 2.28852 22
265 2 -12.5943 21.7075 4.8468 12
266 2 -20.7856 -26.857 11.4906 15
267 2 -27.4585 24.8919 -2.10629 11
268 2 -26.7577 -26.3518 7.65102 17
269 2 -28.904 25.7481 7.68221 11
270 2 -18.1366 21.3961 0.673013 16
271 2 -21.4246 -23.5056 -4.474 11
272 2 -14.1317 -24.0339 -2.75902 13
273 2 -16.0537 24.6875 -4.61449 14
274 2 -11.6731 -28.0006 7.14518 18
275 2 -11.8394 -28.4127 10.0806 13
276 2 -18.8904 -24.8844 -2.8067 16
277 2 -22.5421 -28.2468 -7.6562 14
278 2 -25.0283 -23.591 8.57957 15
279 2 -24.3972 -22.0831 -2.97579 10
280 2 -28.278 -28.7439 -2.24657 15
281 2 -29.06 -25.8452 6.00589 13
282 2 -11.9629 28.4418 -1.89559 17
283 2 -28.5938 -25.9449 -1.01954 13
284 2 -21.7033 -25.9166 -6.4644 14
285 2 -11.3932 28.5235 9.41382 10
286 2 -25.7214 -28.8255 9.27297 17
287 2 -26.9368 28.3461 7.78853 16
288 2 -11.0087 29.7625 5.53392 18
289 2 -29.1644 28.1694 2.59349 14
290 2 -22.9191 -28.6181 10.7145 19
291 2 -22.524 19.2074 5.56313 11
292 2 -9.41394 27.5026 3.89417 17
293 2 -13.9437 24.527 0.715415 19
294 2 -22.8254 -20.9749 3.2678 13
295 2 -25.2535 -27.6052 -5.46017 15
296 2 -24.1892 28.3463 9.56399 18
297 2 -17.2338 24.0152 12.7699 11
298 2 -16.1882 -29.9316 -5.06689 20
299 2 -11.9197 -23.0298 5.92287 13
300 2 -12.0283 -28.2507 4.08319 20
301 2 -10.2973 24.9084 -0.895047 14
302 2 -9.32743 22.3777 0.115966 12
303 2 -11.1091 -25.585 -1.98925 12
304 2 -28.6446 25.4223 1.19348 15
305 2 -11.2779 25.0754 2.87058 22
306 2 -15.896 -24.9727 -0.968768 18
307 2 -8.8405 27.5513 0.41758 15
308 2 -10.9506 -23.9175 1.1743 12
309 2 -8.56035 25.1146 5.30373 12
310 2 -9.85705 22.4342 2.85718 14
311 2 -24.8124 25.6114 -4.02844 14
312 2 -15.1777 -20.5561 3.00382 11
313 2 -16.7084 -25.0796 8.5276 23
314 2 -27.0236 21.9595 4.83587 15
315 2 -20.1984 -29.667 13.085 11
316 2 -9.42694 -26.8392 5.68049 13
317 2 -8.63176 -28.1449 0.453405 9
318 2 -22.8054 -27.3697 -4.03215 20
319 2 -26.4561 21.3295 2.0944 14
320 2 -11.9505 22.4421 1.16011 18
321 1 -25.3812 28.1991 -0.166475 20
322 1 -26.1405 25.0296 1.23534 24
323 1 -20.048 22.092 0.45747 20
324 1 -25.6456 22.5652 3.54418 19
325 1 -19.2251 28.1707 -3.13666 20
326 1 -22.5348 28.4721 -1.74132 21
327 1 -20.4781 24.112 -1.73084 16
328 1 -23.2357 25.537 -0.391256 22
329 1 -19.3847 28.0033 -0.0179828 22
330 1 -22.496 28.1399 1.47337 22
331 1 -20.8124 25.3003 1.68637 23
332 2 -26.1451 27.4156 -1.90289 20
333 2 -24.9575 24.5553 -0.494158 19
334 2 -26.1574 27.0566 1.11696 22
335 2 -21.0909 22.2819 2.10508 22
336 2 -19.9091 27.8091 -4.87177 19
337 2 -23.3349 27.9799 -3.83021 23
338 2 -19.639 24.5674 -3.50922 16
339 2 -22.2158 25.1088 -1.87716 18
340 2 -20.6608 28.2425 -1.53156 20
341 2 -23.5289 27.658 -0.266376 20
342 2 -19.8931 24.1965 0.231128 23
343 2 -22.8571 24.63 1.34837 21
344 2 -20.564 27.5337 1.52564 23
345 1 -25.3581 27.6844 3.07779 22
346 1 -26.7386 24.9655 4.75258 21
347 1 -25.8252 28.0205 6.13225 22
348 1 -19.9011 22.8843 3.4811 22
349 1 -20.2578 22.29 6.39972 21
350 1 -23.5763 25.1828 2.99523 22
351 1 -19.8655 27.8911 3.53646 23
352 1 -22.6911 28.2086 4.71911 24
353 1 -21.079 25.1372 5.17372 22
354 1 -24.0448 25.3683 6.28277 22
355 1 -19.9513 27.6646 6.74691 23
356 1 -22.8376 28.1649 7.91701 21
357 1 -21.3807 24.8193 8.38308 20
358 1 -19.9864 27.6869 10.0048 21
359 2 -25.6074 24.4763 3.24556 23
360 2 -26.3865 26.8745 4.73882 22
361 2 -24.0349 21.7579 3.28901 19
362 2 -21.0482 21.8605 4.9346 20
363 2 -23.3933 27.1023 3.19542 24
364 2 -19.8329 24.841 3.4305 22
365 2 -22.9493 24.3909 4.83411 26
366 2 -20.8317 27.4722 5.04903 20
367 2 -23.857 27.6579 6.29509 20
368 2 -20.2864 24.4618 6.67392 20
369 2 -19.1268 26.8079 13.0716 13
370 2 -20.8752 26.8824 8.3087 23
371 2 -23.3673 24.7274 7.90185 20
372 1 -25.8434 -29.1239 -2.39358 23
373 1 -25.4936 -26.6584 -0.541492 18
374 1 -26.2064 -29.3304 1.42246 23
375 1 -19.6142 -29.5118 -5.49883 23
376 1 -23.3803 -29.5051 -4.23347 23
377 1 -18.8892 -27.3909 -3.34508 20
378 1 -22.2078 -27.5352 -2.10746 17
379 1 -20.3126 -29.5337 -2.08634 22
380 1 -23.618 -29.1195 -0.206623 20
381 1 -19.2582 -27.0725 -0.159818 21
382 1 -22.4613 -26.871 1.53151 19
383 1 -20.5526 -29.4096 1.63673 23
384 1 -22.3942 -23.1046 0.325692 15
385 1 -20.5069 -24.4023 1.6845 19
386 2 -25.5828 -29.7958 -0.571736 21
387 2 -25.7995 -27.257 1.18473 17
388 2 -18.8983 -29.6712 -3.49015 21
389 2 -22.4717 -29.3556 -2.17998 20
390 2 -20.269 -27.3893 -2.06906 17
391 2 -23.3595 -27.226 -0.36571 18
392 2 -19.5968 -29.5888 -0.0892253 21
393 2 -22.5829 -29.9873 1.17409 24
394 2 -20.3376 -27.3314 1.42655 21
395 2 -19.1021 -24.8093 0.20726 20
396 2 -22.5697 -24.7498 1.54854 17
397 1 -25.7173 -26.296 2.82534 20
398 1 -26.5938 -29.1525 4.37708 23
399 1 -26.2611 -27.0515 9.28336 15
400 1 -23.3651 -29.0831 2.75673 22
401 1 -19.8148 -27.0916 3.30882 23
402 1 -22.8373 -26.7658 4.8116 22
403 1 -20.8455 -29.519 4.91783 22
404 1 -23.9641 -29.1827 6.13455 22
405 1 -19.82 -26.9664 6.38874 22
406 1 -23.1678 -26.5444 8.06722 24
407 1 -21.1284 -29.5976 8.27831 22
408 1 -24.0167 -29.4736 9.53226 18
409 1 -23.4753 -24.5104 3.2965 19
410 1 -20.2074 -23.8057 4.81364 22
411 2 -25.256 29.879 2.85597 24
412 2 -26.9343 -27.0099 4.06005 21
413 2 -25.928 -29.8402 6.08285 22
414 2 -23.4496 -27.1355 3.13219 25
415 2 -19.9896 29.8875 3.43397 23
416 2 -22.7361 -29.8117 4.37516 22
417 2 -20.9842 -27.3522 4.86834 24
418 2 -23.9317 -27.2347 6.43281 20
419 2 -20.0267 30.0056 6.59688 22
420 2 -23.1595 29.933 7.64794 20
421 2 -21.369 -27.4668 8.42019 22
422 2 -19.9498 29.8276 9.8702 23
423 2 -19.2982 -24.9729 3.2884 20
424 2 -22.2595 -23.643 4.6315 23
425 2 -19.8358 -24.8849 6.4164 24
426 1 -14.9182 24.9673 2.43252 24
427 1 -17.7249 24.8714 -2.89275 20
428 1 -16.7387 27.0922 -1.50305 19
429 1 -14.744 24.7984 -0.96237 24
430 1 -17.9785 24.9342 0.150091 22
431 1 -14.0076 27.1311 0.595535 22
432 1 -16.715 27.8869 1.91213 24
433 1 -11.9993 24.5294 1.21441 23
434 2 -15.0886 21.5224 -1.01967 14
435 2 -17.6306 27.0495 -3.21988 22
436 2 -16.724 24.2597 -1.21716 21
437 2 -14.9211 26.6687 -1.15426 21
438 2 -17.738 27.0028 0.292413 24
439 2 -12.2344 27.0524 0.64685 19
440 2 -16.8872 24.5893 1.90546 21
441 2 -14.9902 27.136 2.2789 20
442 2 -10.3625 -29.6985 -0.356884 16
443 1 -17.8371 25.3816 3.39455 22
444 1 -14.3845 27.7652 4.00168 22
445 1 -17.2203 27.5626 5.47177 22
446 1 -15.6851 23.8962 5.13533 20
447 1 -18.3117 25.0523 6.97469 23
448 1 -14.1735 27.328 6.99552 19
449 1 -17.2448 27.7381 8.86585 22
450 1 -15.5127 24.7614 8.56698 20
451 2 -18.2714 21.7718 3.47994 20
452 2 -18.7002 21.7251 7.41082 14
453 2 -17.9521 27.2114 3.38892 23
454 2 -14.1741 24.2573 4.09719 23
455 2 -17.2784 24.8265 5.38113 22
456 2 -15.3643 27.2668 5.56816 21
457 2 -18.1598 27.0598 7.20036 20
458 2 -15.3286 27.274 8.70425 18
459 2 -20.1786 23.8708 12.6134 11
460 2 -17.197 23.7347 8.61469 17
461 2 -18.1914 26.7848 10.3841 23
462 2 -12.3849 27.2205 4.1166 22
463 1 -17.1063 -29.5849 -3.29127 20
464 1 -15.9823 -27.0741 -1.36735 24
465 1 -14.4306 29.9311 -1.22369 20
466 1 -17.6541 -29.786 0.0606496 22
467 1 -13.3901 -27.3932 0.516046 23
468 1 -16.5393 -27.3087 2.1424 23
469 1 -14.6772 -29.7765 2.06174 24
470 1 -17.1716 -24.22 0.137973 20
471 1 -11.8932 29.1991 0.36589 20
472 2 -16.8098 -27.4949 -3.18683 20
473 2 -16.5086 29.4612 -1.33323 23
474 2 -14.2765 -27.9928 -1.21324 17
475 2 -17.2641 -27.7644 -0.0659995 24
476 2 -13.9128 29.1776 0.555633 22
477 2 -17.019 29.8792 2.02882 22
478 2 -14.5653 -27.642 2.11285 21
479 2 -16.7305 -25.3859 1.77152 22
480 1 -18.0275 -29.7184 3.6046 22
481 1 -13.6897 -27.2413 3.82343 19
482 1 -17.0695 -27.2896 5.20751 24
483 1 -15.1596 -29.8162 5.55434 23
484 1 -18.0237 -29.7281 6.7785 23
485 1 -13.8862 -27.3276 7.02259 22
486 1 -16.8313 -27.1457 8.36721 22
487 1 -15.0981 -29.937 8.78211 22
488 1 -18.2086 -29.7089 10.2713 22
489 1 -17.3803 -24.7445 3.4869 18
490 1 -14.7445 -24.2174 11.4753 10
491 1 -12.2735 29.8611 4.17119 21
492 2 -17.8197 -27.7836 3.47881 25
493 2 -14.1267 29.7049 3.93672 22
494 2 -17.2057 29.5724 5.1479 22
495 2 -14.8166 -27.766 5.4587 24
496 2 -18.0006 -27.6527 6.82512 24
497 2 -13.9168 29.3942 7.01446 22
498 2 -17.2856 29.6024 8.60275 24
499 2 -15.0252 -27.8689 8.50975 25
500 2 -16.9742 -25.2122 5.22898 22
