ITEM: TIMESTEP
278000
ITEM: NUMBER OF ATOMS
1000
ITEM: BOX BOUNDS pp pp pp
-30.0 30.0
-30.0 30.0
-30.0 30.0
ITEM: ATOMS id type x y z Coordination
1 1 -12.3558 -1.27076 -5.72996 12
2 1 -10.9471 -3.93062 -6.62107 15
3 1 -10.5014 -5.66058 -3.91242 15
4 1 -11.907 -3.11685 -3.36799 16
5 1 -8.93663 -6.97323 -6.55759 11
6 1 -7.02557 -9.70266 -7.01469 14
7 1 -7.49537 -11.7733 -4.07933 12
8 1 -8.50692 -8.59414 -4.15391 16
9 1 -8.84236 -0.664893 -11.2061 13
10 1 -7.04997 -3.58346 -11.8975 13
11 1 -7.18822 -5.93788 -9.30968 15
12 1 -9.2046 -2.84752 -9.38423 14
13 1 -8.70757 -0.920168 -5.88937 20
14 1 -7.47212 -3.93322 -6.92078 18
15 1 -7.11294 -6.24971 -3.00196 21
16 1 -8.64966 -3.11645 -3.51981 22
17 1 -5.23653 -6.64057 -11.6326 14
18 1 -4.64335 -8.92756 -9.16458 13
19 1 -5.90914 -6.49488 -6.24494 21
20 1 -3.79812 -9.83982 -6.21223 20
21 1 -3.57417 -11.7374 -3.47133 19
22 1 -5.49081 -9.0541 -3.53415 22
23 1 -5.34771 -0.771115 -12.2298 14
24 1 -4.02195 -3.80349 -12.4971 13
25 1 -4.06014 -5.81572 -8.86909 22
26 1 -5.60323 -2.84189 -8.97249 24
27 1 -5.50943 -1.0425 -5.98147 23
28 1 -4.15627 -4.00549 -6.29772 22
29 1 -3.86874 -5.77253 -3.53472 22
30 1 -5.56035 -2.98894 -3.40452 20
31 1 -1.8516 -12.6181 -6.0562 11
32 1 -2.61148 -6.9157 -13.5262 7
33 1 -5.6168 -12.3156 -6.5964 10
34 1 -1.43436 -9.76192 -8.33009 15
35 1 -2.46477 -6.62947 -6.47576 22
36 1 -0.480911 -9.5647 -5.93616 21
37 1 -0.0734833 -12.074 -2.98147 16
38 1 -1.99162 -8.82138 -3.62506 21
39 1 -2.30793 -0.820442 -11.3857 15
40 1 -2.01915 -4.86642 -10.8472 16
41 1 -0.596142 -5.82271 -8.49123 24
42 1 -2.34646 -2.71178 -8.68659 22
43 1 -2.34483 -1.02868 -5.92901 22
44 1 -0.437332 -3.60637 -6.13909 22
45 1 -0.403538 -5.91919 -3.58396 22
46 1 -2.41646 -2.90494 -3.51075 21
47 2 -12.0014 -1.13036 -3.7353 18
48 2 -10.2354 -3.88272 -3.061 20
49 2 -6.44566 -11.5124 -0.480167 15
50 2 -10.2352 -5.75342 -5.7798 14
51 2 -11.9613 -3.2479 -5.30601 13
52 2 -10.8188 -2.64581 -8.03114 12
53 2 -10.7048 -6.59121 -0.348712 15
54 2 -13.5484 -5.4536 -0.277641 10
55 2 -13.597 1.29908 -2.88268 11
56 2 -13.505 -2.45847 -1.76216 16
57 2 -7.73978 -8.32276 -6.03339 14
58 2 -6.59514 -5.30489 -11.1505 14
59 2 -5.22886 -12.3216 2.2907 15
60 2 -7.17827 -9.84861 -3.50789 15
61 2 -9.03777 -7.09612 -3.17585 16
62 2 -7.10532 -11.2985 -6.09508 11
63 2 -7.43723 -5.82924 -7.34369 17
64 2 -8.77885 -2.86495 -5.86058 20
65 2 -8.47236 -2.49431 -11.6006 10
66 2 -7.34154 -3.72523 -9.12996 17
67 2 -6.99066 -6.07946 -1.03278 21
68 2 -8.4027 -3.07414 -1.04956 20
69 2 -8.75807 -0.480166 -3.83366 21
70 2 -7.08651 -4.29169 -3.62004 20
71 2 -5.74339 -12.3593 -3.31195 14
72 2 -3.90489 -12.2936 -6.08564 10
73 2 -5.1906 -9.48367 -7.35109 15
74 2 -5.59498 -7.28624 -9.76599 15
75 2 -2.99489 -9.71742 -9.57132 11
76 2 -3.8547 -11.7634 -1.40559 17
77 2 -5.29848 -8.71358 -1.69709 21
78 2 -5.6438 -6.86931 -4.26753 21
79 2 -3.63417 -9.71532 -4.3161 22
80 2 -3.50599 -5.69264 -12.2688 14
81 2 -5.59735 -2.64997 -12.3833 15
82 2 -4.24362 -5.87704 -6.99351 22
83 2 -5.93617 -2.78973 -6.55761 20
84 2 -5.63885 -0.840324 -8.93354 20
85 2 -3.98753 -3.92872 -9.37033 23
86 2 -3.75169 -5.99744 -1.31366 20
87 2 -5.2114 -2.80506 -1.51356 22
88 2 -5.60682 -1.04638 -3.89472 22
89 2 -3.89495 -4.07977 -4.19009 23
90 2 -2.04679 -12.7878 1.2854 15
91 2 -1.81707 -12.377 -3.97091 16
92 2 -0.205277 -8.79488 -9.52387 14
93 2 -2.45059 -8.60768 -6.95094 21
94 2 -2.14573 -6.37488 -9.58854 22
95 2 -1.36187 -7.28129 -12.1545 11
96 2 -0.69917 -11.9388 -1.13893 18
97 2 -1.83139 -8.9396 -1.42002 23
98 2 -2.32712 -6.98607 -3.84458 21
99 2 -0.380286 -9.93609 -3.94148 21
100 2 0.384735 -4.82485 -11.8331 15
101 2 -2.44589 -3.10329 -11.5799 16
102 2 -0.722465 -5.67822 -6.43858 18
103 2 -2.38889 -3.11166 -6.72718 23
104 2 -2.1712 -0.744768 -9.24651 21
105 2 -0.705683 -3.86802 -8.99623 19
106 2 -0.413281 -6.00769 -1.64435 22
107 2 -1.93909 -2.93509 -1.60008 23
108 2 -2.34104 -0.952892 -4.05189 22
109 2 -0.117506 -3.89456 -3.9262 20
110 1 -13.951 -3.73763 -0.486146 12
111 1 -12.4554 -6.73482 0.468584 10
112 1 -7.02241 -9.84977 -1.18974 20
113 1 -12.1203 -6.17971 4.17411 13
114 1 -11.6867 -1.53042 -0.205818 22
115 1 -10.1117 -4.11807 -1.08802 23
116 1 -10.1448 -5.8045 1.35881 19
117 1 -12.3175 -3.80322 2.03263 17
118 1 -11.8962 -0.956316 3.93605 14
119 1 -10.0515 -4.21255 4.44094 21
120 1 -9.88493 -5.70809 7.13485 11
121 1 -11.8933 -3.01301 6.19654 11
122 1 -9.00442 -7.07328 -1.07277 16
123 1 -6.78543 -11.7926 1.344 12
124 1 -3.46188 -11.5642 1.79186 19
125 1 -8.7029 -8.73522 1.56395 13
126 1 -8.54608 -6.87078 4.58605 18
127 1 -6.85813 -10.0923 4.10828 15
128 1 -8.04544 -8.81377 6.67295 13
129 1 -8.35595 -1.24005 -0.488195 21
130 1 -6.77873 -4.04226 -0.531849 20
131 1 -6.95029 -5.86993 2.31795 22
132 1 -8.46668 -2.77705 1.91568 21
133 1 -8.34422 -1.05588 4.68252 21
134 1 -6.46991 -3.9047 4.8519 22
135 1 -6.93725 -5.68158 7.52674 20
136 1 -8.7898 -2.87975 7.6702 19
137 1 -8.42731 -0.802986 10.1201 15
138 1 -7.31232 -3.73841 10.2064 16
139 1 -5.42406 -12.8404 -1.43611 12
140 1 -5.00423 -12.6734 4.14319 12
141 1 -5.31705 -7.08306 -0.613415 20
142 1 -3.5249 -9.93397 -1.20364 21
143 1 -0.991742 -14.2616 1.9521 10
144 1 -5.35008 -8.84916 1.58887 23
145 1 -5.10716 -6.96317 4.36821 21
146 1 -3.31641 -9.75416 4.76126 21
147 1 -6.47546 -11.5664 7.1307 10
148 1 -5.04859 -8.45214 7.36952 20
149 1 -5.06789 -6.3789 10.3694 15
150 1 -3.24912 -11.1031 8.3272 15
151 1 -4.9525 -0.925781 -0.609739 25
152 1 -3.78656 -3.9904 -0.679449 22
153 1 -3.46801 -5.71237 1.70614 22
154 1 -5.09531 -2.61664 1.71073 23
155 1 -5.24906 -1.10022 4.69752 22
156 1 -3.50496 -4.05623 4.71851 24
157 1 -3.67316 -6.06321 7.11646 21
158 1 -5.27507 -2.88263 7.36335 25
159 1 -5.2422 -0.893443 10.2895 25
160 1 -3.53942 -3.74094 9.59066 19
161 1 -3.16802 -9.00422 10.6035 12
162 1 -5.18988 -2.86734 12.6749 11
163 1 -2.33087 -12.7861 -0.667502 14
164 1 -1.48371 -12.0324 3.93798 17
165 1 -2.02528 -6.93275 -1.06806 21
166 1 -0.210832 -9.90998 -1.42809 21
167 1 -0.0889782 -11.5782 0.939241 20
168 1 -1.96714 -9.04097 1.0489 20
169 1 -1.9003 -6.74297 4.67546 22
170 1 -0.194289 -9.4699 3.80862 20
171 1 -3.35324 -13.2513 6.65263 11
172 1 -1.60361 -8.66492 6.90886 20
173 1 -1.79567 -6.15724 9.87348 20
174 1 -0.342127 -10.9178 9.44705 11
175 1 -1.59348 -0.980843 -1.01919 20
176 1 -0.199446 -4.09329 -0.970978 21
177 1 -0.0520129 -5.87997 1.82988 23
178 1 -1.6589 -3.03855 1.64861 21
179 1 -1.84495 -1.13938 4.40513 23
180 1 -0.015561 -3.807 4.57779 24
181 1 -0.26712 -5.59955 7.21503 22
182 1 -1.72019 -3.07729 7.35327 26
183 1 -1.71944 -0.882343 9.73249 22
184 1 -0.0947352 -3.57273 10.1628 21
185 1 -0.0480245 -8.48871 11.5862 11
186 1 -1.83378 -2.8609 12.5461 13
187 2 -11.6103 -3.6291 0.0666961 20
188 2 -12.0747 -6.14033 2.29177 13
189 2 -8.47819 -8.77439 -0.312639 17
190 2 -10.4279 -5.97137 5.19837 16
191 2 -11.9703 -3.11242 4.18018 14
192 2 -14.0432 -2.87226 1.32125 12
193 2 -10.1138 -3.84197 2.24098 20
194 2 -11.8808 -1.0725 5.93682 12
195 2 -10.0788 -3.92162 6.75517 17
196 2 -1.83085 -10.3761 2.5985 19
197 2 -7.48045 -8.48201 4.78282 18
198 2 -8.86265 -6.83015 2.25522 17
199 2 -7.2081 -9.9628 2.02099 14
200 2 -8.38306 -6.95743 7.34441 13
201 2 -6.57573 -9.7164 7.37669 12
202 2 -6.89133 -5.87722 4.312 20
203 2 -8.12928 -2.90833 4.20917 21
204 2 -8.34873 -0.87042 1.43958 21
205 2 -6.67603 -3.48729 1.26882 21
206 2 -6.5591 -5.42086 9.70472 15
207 2 -6.91058 -3.2606 11.9142 12
208 2 -8.59962 -0.938234 6.91595 19
209 2 -6.86156 -3.75005 6.73203 24
210 2 -5.12238 -2.63973 9.31077 24
211 2 -3.29072 -12.5657 4.58662 16
212 2 -6.32668 -11.6515 5.32709 14
213 2 -4.96051 -8.74262 3.59059 23
214 2 -5.19771 -6.75975 1.51251 20
215 2 -3.96045 -9.96347 0.707038 20
216 2 -4.45976 -8.21708 9.68018 13
217 2 -5.49069 -6.55886 6.76655 23
218 2 -3.69964 -9.48522 6.79962 23
219 2 -3.45561 -6.0198 3.99649 20
220 2 -4.86198 -2.93926 3.96032 22
221 2 -5.21562 -0.841176 1.47034 21
222 2 -3.49523 -3.87793 1.21501 21
223 2 -3.57518 -5.63602 9.15802 20
224 2 -8.50602 -2.48539 9.48587 14
225 2 -5.07118 -1.02813 6.96779 22
226 2 -3.41951 -3.90166 6.63911 24
227 2 -5.14501 -1.10646 12.171 17
228 2 -3.53662 -3.38216 11.6687 17
229 2 -0.12302 -13.3348 3.3013 11
230 2 -4.86057 -12.2772 7.62446 11
231 2 0.296715 -10.9353 4.85706 19
232 2 -1.67817 -8.86143 4.896 20
233 2 -1.95334 -7.02437 1.11139 20
234 2 0.0956953 -9.63845 0.722295 20
235 2 -2.31731 -10.445 9.85342 13
236 2 -1.90989 -6.53017 6.72015 21
237 2 0.0656582 -9.65832 7.67628 16
238 2 -1.63725 -7.85656 10.6906 15
239 2 -0.116329 -5.93131 3.95823 21
240 2 -1.94038 -3.12784 3.83077 24
241 2 -1.88606 -1.02991 0.912579 24
242 2 -0.18094 -4.1887 1.0651 21
243 2 -0.0792408 -5.48201 9.53551 23
244 2 -1.78306 -2.81693 9.22826 24
245 2 -1.84567 -1.05119 6.50462 24
246 2 -0.173441 -3.84054 6.44974 22
247 2 -1.98191 -0.902372 12.7251 14
248 2 -0.110403 -3.81992 12.1537 13
249 1 -13.8155 -0.979887 -2.83141 12
250 1 -10.688 -0.74231 -8.43094 11
251 1 -11.3032 3.97611 -6.56159 12
252 1 -10.0864 1.40746 -5.37091 20
253 1 -10.5702 -0.386783 -2.85283 23
254 1 -12.4701 2.63526 -3.68701 16
255 1 -9.21892 6.89909 -8.43122 12
256 1 -10.8082 7.29969 -5.71738 9
257 1 -7.1698 2.1328 -11.3837 13
258 1 -7.31939 0.260211 -8.54221 21
259 1 -8.86792 3.16784 -8.59233 16
260 1 -8.36542 4.81717 -5.9585 23
261 1 -7.10819 2.14004 -5.96133 22
262 1 -7.11129 0.222195 -3.426 22
263 1 -8.60165 2.90699 -3.27436 24
264 1 -6.94625 5.61848 -8.77275 21
265 1 -6.82298 7.35393 -6.08737 19
266 1 -7.20569 5.66574 -3.45184 23
267 1 -8.6012 8.64498 -3.32709 18
268 1 -7.17728 11.8309 -3.11016 13
269 1 -4.10238 7.52844 -12.6205 11
270 1 -5.26679 5.12622 -11.5703 15
271 1 -3.8935 0.107374 -8.89934 19
272 1 -5.70017 2.76715 -8.78322 22
273 1 -4.9341 4.68142 -5.8902 21
274 1 -3.55716 1.84819 -6.57572 22
275 1 -3.81089 0.0107532 -3.20802 22
276 1 -5.10457 2.77656 -3.55012 23
277 1 -3.53716 10.111 -10.9504 12
278 1 -3.58352 5.94259 -8.54482 24
279 1 -6.84889 8.41095 -10.8817 11
280 1 -5.76183 10.5359 -5.83766 12
281 1 -3.7697 7.80088 -5.92133 25
282 1 -3.41714 5.98663 -2.99984 24
283 1 -5.51993 8.73504 -3.38696 22
284 1 -3.6635 11.2772 -3.92617 17
285 1 -4.04268 2.24542 -11.4064 16
286 1 -1.14514 7.70161 -11.7627 13
287 1 -0.7533 2.05531 -12.0876 14
288 1 -0.670496 0.277767 -8.86298 20
289 1 -1.93054 3.11157 -8.92036 19
290 1 -1.87085 4.76466 -5.89526 22
291 1 -0.297473 1.87682 -6.26831 21
292 1 -0.675173 0.254885 -3.57817 22
293 1 -2.26306 2.97216 -3.44018 23
294 1 -2.24415 8.80269 -8.96948 21
295 1 -0.565972 6.01787 -8.45728 25
296 1 -5.6616 8.34996 -8.5506 17
297 1 -2.51464 11.0094 -6.47053 15
298 1 -0.708287 8.04168 -5.76751 22
299 1 -0.347657 6.00504 -3.35558 23
300 1 -2.20052 8.98267 -3.2327 22
301 1 -0.494843 11.8322 -8.79518 8
302 1 -0.408403 11.7974 -3.55767 17
303 2 -13.3461 -0.134617 -0.288008 16
304 2 -11.7361 4.22838 -3.01922 16
305 2 -10.6608 -0.17088 -6.43907 17
306 2 -11.4236 2.66255 -5.33462 13
307 2 -8.90854 -0.682327 -9.29137 16
308 2 -10.2613 -0.553105 -0.825233 21
309 2 -9.89434 8.34005 1.13748 12
310 2 -9.95012 7.25073 -3.97598 15
311 2 -10.3071 1.69312 -2.94136 19
312 2 -11.6125 5.66878 -6.08736 13
313 2 -10.1752 5.62265 -0.947911 20
314 2 -7.51335 7.49628 -9.25792 13
315 2 -7.01911 0.345856 -12.0405 13
316 2 -7.1828 0.383086 -6.4367 21
317 2 -8.81079 3.0657 -6.75011 20
318 2 -9.17098 5.11608 -8.89818 12
319 2 -7.42879 2.16491 -9.42152 18
320 2 -6.79985 0.0828496 -1.20594 22
321 2 -8.5308 2.99019 -1.28827 22
322 2 -8.78354 4.78677 -4.06788 24
323 2 -6.83504 2.248 -4.04387 22
324 2 -6.47315 5.62398 -6.90845 24
325 2 -5.71378 7.08411 -11.6857 14
326 2 -2.74495 8.90467 -12.2577 11
327 2 -6.79487 5.68458 -1.57463 25
328 2 -8.93211 6.9063 -6.48673 17
329 2 -5.75629 10.7142 -4.10887 15
330 2 -6.98792 7.78974 -4.23753 20
331 2 -8.35086 10.5547 -2.68847 13
332 2 -3.93284 0.16746 -11.6481 15
333 2 -5.7484 3.26748 -11.7302 13
334 2 -3.97319 -0.0609781 -6.86705 24
335 2 -5.46257 2.90699 -6.83296 23
336 2 -5.28085 5.33122 -9.52088 22
337 2 -3.87357 2.26387 -9.23976 22
338 2 -3.10103 0.195322 -1.39424 23
339 2 -5.05133 2.69678 -1.53643 23
340 2 -4.76994 4.75839 -3.80551 20
341 2 -3.73724 1.84185 -4.23901 25
342 2 -2.95049 6.40874 -11.7094 15
343 2 -3.41832 6.04131 -6.49968 22
344 2 -5.64888 8.80364 -6.54492 17
345 2 -3.82773 7.8035 -8.74936 22
346 2 -3.72011 6.14237 -1.02625 22
347 2 -5.47936 8.83231 -1.40317 24
348 2 -4.21096 11.6117 -6.02836 9
349 2 -3.75543 8.04036 -3.76296 23
350 2 -5.31287 9.62016 -10.321 11
351 2 -3.7338 11.4482 -1.85676 21
352 2 -6.85817 11.8798 -0.935092 12
353 2 -0.690504 -0.123831 -12.1616 15
354 2 -2.31367 3.03357 -11.7236 15
355 2 -0.509848 -0.150033 -6.8612 23
356 2 -1.89617 2.98623 -6.81737 23
357 2 -2.12974 5.03888 -9.23704 22
358 2 -0.144988 2.06314 -8.95895 20
359 2 -0.129707 0.124448 -1.27166 21
360 2 -1.97129 3.16379 -1.48208 24
361 2 -1.94465 5.03982 -3.91125 22
362 2 -0.453341 1.95874 -4.40454 22
363 2 0.0645232 6.25933 -11.9743 14
364 2 -0.262202 6.34691 -6.55729 23
365 2 -2.11728 9.01123 -6.77879 24
366 2 -2.08944 10.8124 -9.66601 13
367 2 -0.686128 7.89252 -9.68919 22
368 2 -0.340795 5.84304 -1.4401 21
369 2 -2.1311 9.00314 -1.25904 21
370 2 -1.75077 10.8165 -4.20215 17
371 2 -0.5846 8.13028 -3.73825 21
372 2 -0.788245 12.0648 -6.85219 12
373 2 -0.257659 11.8692 -1.60073 21
374 2 -2.1379 14.0605 -0.90504 12
375 2 4.2487 13.5454 -3.22897 10
376 1 -13.2904 1.58649 -0.925355 16
377 1 -14.1275 -0.958926 1.263 10
378 1 -11.7746 3.11523 1.61222 13
379 1 -10.4731 5.71675 -2.96308 18
380 1 -10.018 1.83244 -1.07719 23
381 1 -9.97334 0.153784 1.31101 17
382 1 -11.78 4.55758 -0.886401 13
383 1 -11.7567 4.93012 4.28047 13
384 1 -10.8136 2.01 4.47868 19
385 1 -10.4281 0.023028 6.44334 14
386 1 -11.5239 3.40601 7.36663 10
387 1 -7.87071 1.60403 11.8736 11
388 1 -9.99436 7.44785 -0.535125 15
389 1 -9.51074 6.47696 2.47174 17
390 1 -9.72954 8.11351 5.19477 13
391 1 -10.2452 5.93846 7.43817 15
392 1 -8.39493 4.75003 -0.634839 22
393 1 -6.77315 2.04785 -0.730948 22
394 1 -6.93674 0.159338 2.22989 24
395 1 -8.45978 3.09567 1.95473 20
396 1 -8.50759 4.90078 4.57346 24
397 1 -6.89818 1.92977 4.7558 24
398 1 -6.96588 -0.0838894 7.34342 21
399 1 -8.63454 3.11045 7.26636 20
400 1 -8.3979 4.59805 9.86521 12
401 1 -6.6679 1.86885 9.57322 17
402 1 -6.87597 -0.436634 13.3971 10
403 1 -8.62518 10.6049 -0.767462 14
404 1 -6.88612 7.52926 -0.769314 22
405 1 -6.69846 5.76035 1.96769 23
406 1 -8.89706 9.43556 2.19525 15
407 1 -6.81397 12.275 0.837929 11
408 1 -6.88102 7.67291 4.54136 22
409 1 -6.53338 6.05749 7.41822 23
410 1 -8.11904 8.47838 7.70541 11
411 1 -6.55657 7.37209 10.5051 12
412 1 -3.77213 13.1504 -1.09282 14
413 1 -5.17654 4.81945 -0.994551 21
414 1 -3.33325 2.00356 -0.631817 22
415 1 -3.33432 -0.27232 1.89181 22
416 1 -5.22599 2.57881 2.04717 23
417 1 -5.12621 4.8252 4.59162 22
418 1 -3.19106 1.71542 4.82559 23
419 1 -3.51138 -0.0240316 7.11504 23
420 1 -5.09811 2.88145 7.29858 23
421 1 -5.10098 4.66353 10.1373 21
422 1 -3.5545 1.91541 9.91591 20
423 1 -3.63879 0.0228927 12.5841 15
424 1 -4.9855 2.83116 13.281 11
425 1 -5.24946 10.643 -0.858029 24
426 1 -3.69955 8.01472 -0.521287 23
427 1 -3.64306 6.05386 1.97447 24
428 1 -5.42313 9.03915 1.75077 23
429 1 -5.03351 10.5489 4.95642 14
430 1 -3.65703 7.79517 4.7085 24
431 1 -3.65364 6.23573 7.2175 21
432 1 -5.20805 8.9996 7.47826 18
433 1 -3.10141 7.80316 10.3265 17
434 1 -3.87258 6.00156 12.6996 11
435 1 -2.11179 14.3735 0.893194 12
436 1 -3.93332 11.8416 2.0393 17
437 1 -2.65078 10.6361 8.24305 9
438 1 -1.80023 4.99316 -0.744375 22
439 1 -0.346086 2.17346 -1.09201 22
440 1 -0.38745 0.0613118 1.71169 22
441 1 -2.03966 2.98416 1.95726 24
442 1 -1.91722 4.9562 4.66121 22
443 1 -0.219113 1.95432 4.32286 24
444 1 -0.197679 -0.13166 6.89853 23
445 1 -1.94914 2.85427 7.15258 23
446 1 -1.98235 4.79806 9.20461 20
447 1 -0.0788649 1.79077 9.58293 21
448 1 -0.617714 0.191007 12.4404 15
449 1 -1.9669 2.98457 12.6749 16
450 1 -1.97411 10.8367 -0.788591 24
451 1 -0.465905 7.79213 -0.943363 22
452 1 -0.260714 5.79404 1.41787 23
453 1 -2.10176 9.00888 1.87689 23
454 1 -1.97541 10.7856 4.44517 18
455 1 -0.381627 7.79589 4.13585 23
456 1 -0.00175374 5.8341 7.14777 21
457 1 -1.82707 8.55017 7.02066 21
458 1 -0.195896 7.75568 9.88195 16
459 1 -0.604577 5.92044 12.7038 13
460 1 -0.127624 13.8925 -0.958161 13
461 1 -0.517525 11.8609 1.94667 22
462 1 1.27784 14.5871 1.34371 11
463 1 -0.121852 11.7335 6.18497 10
464 2 -11.7482 -0.679405 1.84799 18
465 2 -12.4702 2.99736 -0.188719 12
466 2 -10.2212 0.128996 4.33107 18
467 2 -10.3484 2.07124 6.57064 17
468 2 -11.7241 3.20203 3.42681 13
469 2 -10.2174 2.19953 1.07034 20
470 2 -8.23221 -0.366657 11.9201 12
471 2 -11.393 4.71601 5.96999 14
472 2 -9.85194 4.20691 8.63598 12
473 2 -10.0835 6.2706 4.31201 16
474 2 -8.499 8.5572 -1.35111 21
475 2 -9.79733 7.77419 7.14019 12
476 2 -6.66999 0.0324759 4.2183 21
477 2 -8.32155 3.11554 3.99122 24
478 2 -8.55243 5.16002 1.40031 20
479 2 -7.0547 1.94209 1.15187 23
480 2 -6.7369 0.0177921 9.41361 21
481 2 -8.06072 2.92826 10.6429 14
482 2 -8.43718 5.06339 6.42261 23
483 2 -7.08211 2.12438 6.91306 20
484 2 -6.4248 1.55244 13.2019 11
485 2 -6.52737 5.85 3.88914 23
486 2 -8.45288 8.34047 3.65692 16
487 2 -8.44772 11.1563 1.11712 12
488 2 -6.74059 7.56129 1.17687 25
489 2 -6.93087 5.66241 9.46306 19
490 2 -6.64634 8.51162 9.0144 12
491 2 -6.62732 7.7088 6.43616 20
492 2 -3.49468 -0.00400412 4.16469 24
493 2 -5.16939 2.97622 4.23135 22
494 2 -5.15569 4.4056 1.34033 23
495 2 -3.40193 1.72778 1.7413 21
496 2 -3.3289 0.0893391 9.69961 22
497 2 -5.10634 2.81467 9.17388 22
498 2 -5.09781 4.8109 6.8479 23
499 2 -3.48177 1.84711 6.76084 19
500 2 -4.79651 4.33751 12.1718 14
501 2 -3.48878 1.87668 12.4652 16
502 2 -3.54402 6.05647 3.83599 23
503 2 -5.42746 8.83494 3.82107 21
504 2 -5.46298 10.9332 1.21306 20
505 2 -3.66181 7.88781 1.40197 22
506 2 -3.72503 5.82869 9.16601 23
507 2 -4.77705 7.34884 11.1706 11
508 2 -4.4265 10.6214 6.95124 13
509 2 -3.85521 7.91845 6.76495 22
510 2 -3.78149 11.2951 3.70854 15
511 2 -3.83384 13.5694 1.15733 13
512 2 -0.467066 0.0951269 3.73019 24
513 2 -1.96017 3.04065 3.9664 21
514 2 -2.02736 4.96587 1.20831 23
515 2 -0.527719 1.98878 0.951561 25
516 2 -0.0586014 -0.086272 9.02999 23
517 2 -1.72631 2.84741 9.2858 20
518 2 -1.71467 4.73792 6.74899 22
519 2 -0.045287 1.75796 6.14694 24
520 2 -2.27794 4.84902 12.8981 12
521 2 -0.10712 2.04661 12.4754 15
522 2 -0.242279 5.81888 3.71117 24
523 2 -2.23729 8.97908 3.85225 22
524 2 -2.12244 10.9918 1.10116 24
525 2 -0.370797 7.71638 1.03993 24
526 2 -0.381391 5.91824 9.21934 21
527 2 -2.03702 9.05303 9.15022 16
528 2 -1.60131 10.508 6.73116 18
529 2 -0.579527 7.33663 6.15207 22
530 2 -1.33769 7.28948 11.4396 13
531 2 -0.235139 11.5972 4.02637 16
532 2 -0.383949 13.6059 1.07171 15
533 1 0.292535 -6.81757 -12.2914 13
534 1 1.49897 -8.82183 -9.73886 13
535 1 -1.83796 -8.26324 -10.3639 17
536 1 0.875683 -6.75006 -6.0928 21
537 1 2.55295 -9.5279 -6.41915 18
538 1 3.1912 -11.6199 -3.34046 14
539 1 1.40195 -8.62101 -3.66592 20
540 1 3.44694 -6.89058 -11.1636 13
541 1 1.31086 -0.489693 -11.572 17
542 1 -0.328285 -3.09281 -11.6983 16
543 1 2.90327 -5.54952 -8.5658 20
544 1 0.757334 -2.61416 -8.79056 23
545 1 1.23405 -0.826747 -6.11567 23
546 1 3.00838 -4.05241 -6.30838 21
547 1 2.99789 -5.48335 -3.41903 23
548 1 1.21508 -2.71978 -3.3602 23
549 1 7.60536 -9.27699 -8.20738 10
550 1 4.41321 -8.76523 -8.45037 15
551 1 4.50059 -6.98877 -6.02806 23
552 1 5.89857 -10.0788 -6.03285 14
553 1 7.34556 -11.1023 -3.08094 12
554 1 4.66614 -8.8637 -3.64373 20
555 1 2.05413 -4.05493 -11.2628 16
556 1 5.64876 -4.23151 -11.4542 13
557 1 6.02448 -6.01128 -8.74382 20
558 1 4.21996 -3.11193 -8.85757 24
559 1 4.6114 -1.18384 -6.03355 24
560 1 6.40382 -3.91751 -6.00296 21
561 1 6.26459 -5.81736 -3.42262 22
562 1 4.45018 -2.99384 -3.45244 23
563 1 7.80136 -6.54215 -6.16169 18
564 1 8.5873 -8.73804 -4.58902 16
565 1 7.41796 -1.4673 -11.4076 13
566 1 9.82757 -6.25408 -7.88935 10
567 1 7.63971 -3.284 -8.67978 18
568 1 7.7748 -0.972826 -6.23333 25
569 1 9.63277 -3.72144 -6.62169 17
570 1 9.61744 -5.91004 -4.16767 19
571 1 7.87112 -2.74283 -3.37502 23
572 1 13.1283 -5.99066 -2.87729 8
573 1 11.2063 -0.86882 -6.73501 12
574 1 11.5334 -3.06638 -4.30119 18
575 2 3.71247 -11.6581 -1.27822 16
576 2 -1.05322 -11.1343 -6.85987 13
577 2 2.46051 -9.53322 -8.34347 15
578 2 0.951429 -8.6448 -6.34361 19
579 2 1.73682 -7.38495 -11.1756 13
580 2 5.87501 -10.2667 -8.23968 9
581 2 1.68254 -12.6789 -2.94147 9
582 2 1.29507 -8.58694 -1.49242 21
583 2 1.42552 -6.59039 -4.11757 23
584 2 2.88295 -9.86152 -3.80131 20
585 2 3.91768 -5.16352 -11.5739 13
586 2 1.41152 -2.34249 -11.2972 16
587 2 2.74057 -6.00994 -6.77397 22
588 2 1.13404 -2.88573 -6.71841 22
589 2 1.05817 -0.710169 -9.05304 22
590 2 2.35556 -3.90972 -9.16191 19
591 2 3.19922 -5.67333 -1.47969 22
592 2 1.21827 -2.80579 -1.31873 23
593 2 0.81846 -0.767573 -4.3266 23
594 2 2.72251 -3.75855 -4.33931 23
595 2 6.62631 -11.4022 -1.32569 14
596 2 4.53722 -8.87192 -6.65472 18
597 2 4.12779 -7.00863 -9.29843 18
598 2 5.4158 -12.2645 1.44071 13
599 2 4.80459 -8.60755 -1.47411 23
600 2 4.59368 -6.85217 -3.94489 21
601 2 5.83527 -10.5362 -4.00226 15
602 2 6.24799 -2.68687 -12.2247 10
603 2 5.91128 -5.82692 -6.58622 22
604 2 4.60578 -2.7834 -6.97671 23
605 2 4.36377 -1.32965 -9.70864 25
606 2 5.91777 -4.21622 -9.34455 18
607 2 6.36587 -5.82703 -1.45615 23
608 2 4.67006 -2.86108 -1.53794 24
609 2 4.50558 -0.939156 -4.06055 23
610 2 6.3082 -3.81873 -4.04293 22
611 2 7.75165 -9.41497 -6.17148 12
612 2 7.70808 -7.26432 -8.03918 17
613 2 8.38952 -8.57959 -0.996317 20
614 2 7.64635 -6.92656 -4.38232 20
615 2 9.25344 -10.2784 -3.35196 11
616 2 9.80219 -6.00611 -5.97507 16
617 2 7.83821 -2.89963 -6.62862 21
618 2 8.3239 -1.88324 -9.79618 15
619 2 8.69453 -4.70555 -8.12504 13
620 2 9.60908 -5.62038 -0.890451 20
621 2 7.80411 -2.89081 -1.54146 22
622 2 7.84213 -0.966278 -4.21428 19
623 2 9.594 -4.02721 -3.53048 19
624 2 11.2925 -8.81212 -0.362682 14
625 2 11.0488 -6.62204 -3.02238 16
626 2 11.1737 -2.95541 -6.16766 13
627 2 13.5478 -5.3592 -1.16644 11
628 2 11.2029 -2.65446 -1.27794 18
629 2 13.1335 -0.856584 -2.29675 12
630 2 12.7991 -4.1178 -3.4315 11
631 1 2.04941 -12.7141 -0.853743 12
632 1 1.60829 -12.6641 4.1886 12
633 1 1.48661 -6.70149 -0.978051 22
634 1 3.10816 -9.36595 -0.960359 22
635 1 3.54076 -11.4372 1.81117 19
636 1 1.69627 -8.77613 1.48278 19
637 1 1.50541 -6.87893 4.32912 20
638 1 3.09931 -9.70538 4.45443 21
639 1 -0.203284 -11.4065 6.84601 16
640 1 1.55729 -8.43707 7.39955 19
641 1 1.5442 -6.39198 9.69447 21
642 1 3.63968 -9.09347 10.8228 10
643 1 1.46043 -0.990003 -0.759286 23
644 1 3.30258 -3.8597 -0.650728 24
645 1 3.33321 -5.87298 1.99618 25
646 1 1.39041 -3.06023 1.77403 22
647 1 1.49171 -0.907223 4.18317 23
648 1 3.29724 -3.74207 4.32744 22
649 1 2.86279 -5.89867 6.89826 21
650 1 1.51397 -2.80592 7.06284 25
651 1 1.5593 -0.847279 9.60405 21
652 1 3.11967 -4.05372 9.24082 20
653 1 4.48735 -5.83996 11.9452 13
654 1 0.764108 -5.43386 12.6677 11
655 1 5.15519 -12.4357 -0.562584 14
656 1 5.33489 -12.6551 3.66771 10
657 1 4.70829 -6.88365 -0.899905 20
658 1 6.50114 -9.53713 -0.785353 22
659 1 7.51821 -11.3523 2.04071 13
660 1 4.98497 -8.73955 1.91827 25
661 1 4.72795 -6.93437 4.52901 22
662 1 6.68558 -9.52686 4.57248 18
663 1 4.57981 -9.3256 7.37232 15
664 1 4.83028 -6.97445 8.89008 18
665 1 4.62642 -0.923371 -0.786278 24
666 1 6.45347 -4.06475 -0.705156 23
667 1 6.37173 -5.75335 2.15992 22
668 1 4.62473 -2.74245 1.66757 22
669 1 4.79479 -0.773995 4.52958 23
670 1 6.61108 -3.60682 4.39207 24
671 1 6.34451 -5.33126 7.23409 18
672 1 4.82781 -2.82577 7.19484 21
673 1 4.80348 -0.727175 9.30878 20
674 1 8.0128 -3.41687 12.2634 9
675 1 4.61638 -2.8564 11.3034 13
676 1 8.32724 -6.81953 -1.69704 22
677 1 10.081 -9.85213 -1.70378 13
678 1 8.27879 -8.48286 1.1568 21
679 1 8.27928 -6.62204 3.94939 18
680 1 9.74388 -9.70025 4.16186 13
681 1 7.67967 -8.13048 6.55994 14
682 1 7.15949 -5.02363 10.3369 14
683 1 8.14064 -0.901091 -0.938156 22
684 1 9.7502 -3.81313 -1.63148 21
685 1 9.85696 -5.65915 1.09749 20
686 1 8.13242 -3.02897 1.77644 21
687 1 8.21614 -0.830771 4.01735 22
688 1 10.2744 -3.42812 3.62233 24
689 1 10.0167 -5.37998 6.21556 15
690 1 8.07131 -2.61727 6.84933 21
691 1 8.09218 -0.98424 10.0189 19
692 1 9.70337 -3.95173 9.40147 11
693 1 10.8196 -7.19914 -1.19642 15
694 1 11.0966 -9.43678 1.3561 11
695 1 11.7411 -6.77328 3.48983 12
696 1 11.3717 -0.676104 -1.23263 19
697 1 13.2328 -3.1774 -1.63133 12
698 1 13.2833 -5.73313 0.651357 12
699 1 11.3834 -2.84927 0.634798 21
700 1 11.84 -0.212966 4.62366 19
701 1 13.4744 -2.89993 3.18552 11
702 1 11.6038 -2.8991 6.1865 14
703 2 1.74752 -11.7264 1.6208 21
704 2 -1.91391 -12.148 7.10989 14
705 2 3.46895 -11.7067 3.72286 15
706 2 1.46895 -8.5411 3.23314 22
707 2 1.64704 -6.74109 1.11673 23
708 2 3.56052 -9.46326 0.920911 22
709 2 0.596438 -10.0099 10.8807 10
710 2 1.33065 -6.78415 6.38049 22
711 2 2.88316 -9.34305 6.38083 18
712 2 1.09127 -6.95218 11.3986 14
713 2 3.31284 -5.70115 3.90321 24
714 2 1.43213 -2.81265 3.5956 24
715 2 1.26843 -0.980928 1.07088 23
716 2 3.11404 -3.89466 1.39507 22
717 2 2.8665 -6.10522 8.56015 23
718 2 1.46044 -2.72485 9.23197 25
719 2 1.18061 -1.10292 6.19406 23
720 2 3.06665 -3.58688 6.21056 23
721 2 0.967164 -0.340311 11.432 17
722 2 4.45723 -0.82462 12.0794 17
723 2 6.62017 -11.3714 4.01774 14
724 2 9.19279 -10.1033 1.90464 14
725 2 4.68914 -8.88867 3.95461 23
726 2 5.22945 -6.87735 1.08375 22
727 2 6.70938 -9.55011 1.57299 21
728 2 4.34577 -9.29805 9.1505 10
729 2 4.79598 -6.34547 6.57772 23
730 2 6.16791 -9.37638 6.40127 13
731 2 4.34774 -7.28258 10.7921 13
732 2 6.54152 -5.77085 4.09995 23
733 2 4.85672 -2.73935 3.80077 23
734 2 4.67045 -0.664399 1.13201 22
735 2 6.25071 -3.68033 1.20537 22
736 2 6.19531 -5.83447 9.06817 20
737 2 4.61782 -2.65943 9.3266 22
738 2 4.57266 -1.0324 6.5855 24
739 2 6.35578 -3.44742 6.31126 19
740 2 6.18405 -3.89395 11.6735 14
741 2 3.21174 -4.53778 11.361 17
742 2 8.44515 -8.51207 4.70065 17
743 2 8.08824 -6.67983 1.71253 20
744 2 11.2488 -8.69215 3.54517 10
745 2 8.27491 -6.07063 6.72953 17
746 2 10.1097 -5.77256 4.20821 17
747 2 8.35656 -2.82586 3.86786 22
748 2 8.22451 -1.16753 1.06 22
749 2 9.95738 -3.53602 1.62859 20
750 2 8.73681 -4.52663 10.9816 9
751 2 8.43479 -2.61482 8.61286 20
752 2 8.32353 -0.757503 6.23232 24
753 2 10.255 -3.82402 7.42015 13
754 2 7.60226 -1.4352 11.7551 13
755 2 11.6763 -6.3312 1.37133 15
756 2 12.011 -3.45144 4.48665 14
757 2 11.6617 -0.824544 0.824271 20
758 2 13.2394 -3.7688 1.29147 14
759 2 11.5994 -0.909474 6.41206 14
760 1 4.46074 -1.0957 -11.7508 16
761 1 -2.15756 4.81834 -11.1217 19
762 1 1.57413 7.23412 -11.1007 12
763 1 2.59492 1.62323 -11.7057 20
764 1 2.60884 0.267505 -8.83631 24
765 1 1.19813 3.12179 -9.32517 23
766 1 1.31151 5.01014 -6.29992 22
767 1 2.93301 1.83877 -6.30239 22
768 1 2.77503 -0.23217 -3.38346 23
769 1 1.35424 3.01607 -3.97941 21
770 1 3.96184 4.70517 -11.6623 15
771 1 2.58371 5.85089 -9.05783 22
772 1 0.967764 8.74873 -8.50692 18
773 1 1.07532 10.8665 -6.40495 16
774 1 2.33429 7.47826 -5.93828 21
775 1 2.99278 6.02605 -3.46955 23
776 1 1.15266 9.01871 -3.39583 23
777 1 2.86786 11.8128 -4.30058 15
778 1 0.828944 4.6566 -11.8648 16
779 1 5.71968 1.94144 -11.82 14
780 1 5.60594 0.152856 -8.94551 21
781 1 4.38982 2.98477 -9.06845 21
782 1 4.19366 4.81199 -6.43647 21
783 1 6.20164 1.87788 -6.55343 23
784 1 6.15241 0.174002 -3.66527 23
785 1 4.47029 3.02686 -3.63396 23
786 1 6.05836 5.84544 -9.13134 20
787 1 4.21045 8.52567 -8.8521 14
788 1 4.44955 10.6834 -6.36617 13
789 1 6.18757 7.87758 -6.43918 20
790 1 6.03976 5.95692 -3.38501 23
791 1 4.60167 8.82314 -3.7802 21
792 1 5.69547 12.2829 -3.66617 11
793 1 9.12879 -0.205542 -9.19254 13
794 1 7.40814 2.84606 -9.60619 16
795 1 7.69508 4.83209 -6.9272 21
796 1 9.63206 1.90756 -7.30833 18
797 1 9.34871 -0.0221612 -3.60282 20
798 1 7.78245 3.16246 -4.57164 20
799 1 9.17132 5.52 -9.41565 11
800 1 7.76524 8.60532 -9.31209 10
801 1 9.45897 7.72619 -6.78759 12
802 1 7.9786 8.75085 -3.8968 15
803 1 11.2314 4.96617 -6.60671 11
804 1 10.8113 2.77698 -4.56655 18
805 1 12.8222 0.08449 -4.11695 9
806 1 12.575 2.81972 -2.05513 14
807 2 3.01483 -0.255129 -12.4348 13
808 2 1.04794 2.77269 -11.6334 16
809 2 2.87468 -0.00933802 -6.71316 21
810 2 1.42727 3.04148 -6.28844 20
811 2 0.930778 4.95062 -9.07896 22
812 2 2.95993 1.84221 -9.79287 22
813 2 3.18937 0.0940143 -1.50294 22
814 2 1.24471 3.06812 -1.73461 25
815 2 1.43192 5.25871 -4.13713 23
816 2 3.05876 1.94662 -4.39414 23
817 2 2.53702 5.54824 -11.0695 14
818 2 2.87233 6.10239 -7.024 22
819 2 1.06495 8.8715 -6.36046 20
820 2 0.985311 10.5894 -8.73226 12
821 2 2.4085 8.03104 -9.66721 15
822 2 2.8853 6.12238 -1.32324 21
823 2 1.06805 9.0127 -1.45379 22
824 2 1.37631 10.9373 -3.88166 18
825 2 2.91388 7.8771 -4.06961 22
826 2 2.80233 11.6521 -6.20659 11
827 2 3.14709 12.302 -0.910943 19
828 2 1.5802 14.6564 -0.613196 12
829 2 4.62895 10.6899 -4.49969 15
830 2 6.18124 -0.0364293 -11.7835 14
831 2 4.1264 2.91968 -12.1479 12
832 2 5.93036 0.0776799 -6.70141 19
833 2 4.42796 2.99084 -7.02843 26
834 2 4.91253 4.64348 -10.0539 16
835 2 5.86905 1.82394 -9.8559 20
836 2 6.08378 0.144659 -1.56884 22
837 2 4.50525 2.99304 -1.52426 24
838 2 4.39469 5.15954 -4.15749 23
839 2 6.00652 2.03719 -4.45783 21
840 2 5.94907 5.73004 -6.76215 22
841 2 4.74563 8.87236 -6.95071 17
842 2 5.96419 7.88982 -9.28542 13
843 2 5.99815 6.24598 -1.38926 22
844 2 4.63398 8.83653 -1.61286 22
845 2 7.94477 8.13044 -7.42507 15
846 2 6.03721 7.7909 -4.0453 18
847 2 7.77972 10.5075 0.679655 14
848 2 9.46141 -0.180611 -7.3833 17
849 2 7.99378 2.8113 -6.58883 20
850 2 7.36947 4.6274 -9.09347 17
851 2 8.47139 1.47031 -9.19579 16
852 2 9.54287 0.17345 -1.61763 21
853 2 7.6656 2.98089 -1.09724 21
854 2 7.56555 4.68191 -3.52597 20
855 2 9.21175 2.05483 -3.8458 20
856 2 9.62447 5.76132 -7.3274 16
857 2 8.69736 7.22024 -10.1535 8
858 2 9.62659 5.85496 -1.87837 19
859 2 8.22059 8.91486 -1.88966 17
860 2 6.35419 11.34 -2.15986 14
861 2 8.96195 7.45279 -4.86703 16