ITEM: TIMESTEP
467000
ITEM: NUMBER OF ATOMS
1000
ITEM: BOX BOUNDS pp pp pp
-30.0 30.0
-30.0 30.0
-30.0 30.0
ITEM: ATOMS id type x y z Coordination
1 1 -9.21845 2.59846 -8.6548 18
2 1 -10.0337 -0.197241 -9.63187 17
3 1 -10.6584 -6.11949 -4.2494 13
4 1 -6.61508 -6.06732 -7.97753 19
5 1 -8.7105 -8.53482 -9.51955 10
6 1 -10.1732 -10.1036 -6.50252 8
7 1 -8.30093 -7.96715 -4.45967 16
8 1 -9.49302 -6.7814 -6.95276 16
9 1 -12.536 1.88944 -8.88899 15
10 1 -8.62996 -4.95045 -10.1783 10
11 1 -7.97581 -2.65696 -8.67563 19
12 1 -12.5904 -1.53528 -8.12329 11
13 1 -8.66422 -1.37818 -6.16777 21
14 1 -7.33216 -4.10736 -5.80268 24
15 1 -6.89505 -5.75318 -3.23287 22
16 1 -8.85451 -3.23109 -3.33583 20
17 1 2.44475 -14.0046 -3.55695 9
18 1 -5.79639 -9.36034 -7.18621 17
19 1 -5.37721 -7.11838 -5.81983 18
20 1 -7.52399 -11.3564 -3.88233 11
21 1 -3.55974 -12.1357 -3.06596 14
22 1 -5.21861 -9.08593 -3.04263 21
23 1 -4.65162 1.18126 -11.3279 15
24 1 -3.15335 -9.74595 -5.29741 19
25 1 -3.71743 -6.76169 -8.75635 17
26 1 -5.88275 -1.8214 -11.941 14
27 1 -5.63198 -1.54611 -6.26306 25
28 1 -3.95878 -4.28842 -6.11145 21
29 1 -3.5894 -5.91141 -3.56802 20
30 1 -5.52221 -2.72836 -3.69222 21
31 1 -0.567378 -13.2293 -4.89202 11
32 1 -4.95478 -3.65398 -8.94206 21
33 1 -7.93565 -11.1331 -7.29655 10
34 1 1.25027 -8.69974 -9.30862 13
35 1 -1.96532 -7.29667 -6.53659 20
36 1 -4.15096 -11.8345 -7.69827 8
37 1 -1.37955 -14.2511 -2.39408 10
38 1 -1.93574 -9.34839 -2.94053 20
39 1 -0.497542 -3.58767 -12.02 13
40 1 1.42788 -1.45932 -11.6272 15
41 1 -1.24563 -6.17456 -9.44716 20
42 1 -2.1016 -3.24115 -9.14654 21
43 1 -2.39988 -1.1024 -6.36516 21
44 1 -0.519245 -4.21243 -6.65251 21
45 1 -0.50156 -6.08359 -3.76899 24
46 1 -2.09183 -2.9899 -3.82489 20
47 2 -14.2427 -0.964914 -4.80525 9
48 2 -10.8504 -4.63236 -3.16327 13
49 2 -7.04016 -9.56693 -3.82558 18
50 2 -12.742 -3.2609 -6.87016 12
51 2 -12.0982 0.590888 -11.763 7
52 2 -8.77761 -1.46907 -10.0175 15
53 2 -9.35292 -5.8158 -0.112348 17
54 2 -12.1067 -3.72054 -0.991669 13
55 2 -13.977 -0.771722 -1.53469 10
56 2 -13.9539 -3.28236 -3.43241 9
57 2 -9.81848 -5.13059 -8.60902 13
58 2 -3.11729 -4.8007 -9.25906 20
59 2 -5.67071 -8.67157 -0.9888 21
60 2 -9.80131 -8.32302 -5.57452 11
61 2 -7.48974 -6.43891 -5.98332 20
62 2 -3.80948 -10.4981 -3.72378 18
63 2 -5.31597 -6.95371 -3.83202 20
64 2 -8.84735 -3.23163 -6.74072 20
65 2 -9.227 2.18893 -12.5358 11
66 2 -2.06752 -7.72023 -8.80156 16
67 2 -6.64791 -5.68294 -1.43188 20
68 2 -8.92651 -6.646 -3.18307 17
69 2 -8.69106 -1.3576 -4.0773 19
70 2 -7.04089 -3.88406 -3.673 21
71 2 -8.92385 -11.3283 -5.52013 9
72 2 -3.92635 -11.9502 -1.0437 18
73 2 -9.14516 -9.90749 -8.35059 9
74 2 -11.5692 -1.31667 -9.50585 12
75 2 0.163356 -11.8944 -6.13171 13
76 2 -1.48469 -11.7768 1.31394 17
77 2 -8.72393 -9.28862 -0.15077 10
78 2 -4.52856 -8.9844 -5.96431 18
79 2 -6.8956 -12.2557 -2.48721 10
80 2 -6.76422 -4.32582 -9.33147 18
81 2 -8.00233 -6.90131 -9.18276 10
82 2 -5.4486 -7.66 -8.06257 14
83 2 -5.67646 -3.81627 -6.90812 22
84 2 -12.4038 2.24367 -4.97906 17
85 2 -5.58689 -1.3957 -9.7581 21
86 2 -3.76465 -6.0564 -1.59785 23
87 2 -5.00319 -2.70787 -1.51229 21
88 2 -5.6938 -1.02948 -4.16947 24
89 2 -3.89769 -3.70471 -4.32919 20
90 2 1.1615 -12.6046 1.91482 12
91 2 -2.21986 -13.1307 -3.85464 12
92 2 5.42654 -8.61398 -6.7522 13
93 2 -1.44866 -9.11149 -6.07837 17
94 2 -2.58349 -11.0703 -7.71391 11
95 2 -3.50683 -6.20152 -6.37909 23
96 2 -1.16951 -14.0775 -0.434887 11
97 2 -2.31053 -9.59168 -0.80353 19
98 2 -2.01206 -7.40091 -3.12203 20
99 2 -0.287975 -9.92643 -2.85244 20
100 2 3.34631 -9.61422 -3.12629 16
101 2 -2.32335 -3.35776 -11.6776 13
102 2 -0.307819 -6.13153 -5.59845 18
103 2 -2.10603 -3.1342 -6.3229 20
104 2 -2.37658 -1.40256 -9.21618 19
105 2 -0.507281 -4.35493 -8.93881 20
106 2 -0.760913 -5.79132 -0.502656 19
107 2 -2.32879 -2.50564 -0.622737 20
108 2 -2.23417 -1.0585 -4.2658 23
109 2 -0.568146 -4.25556 -3.10933 22
110 1 -12.7426 -4.4317 -2.89379 9
111 1 -13.5667 -0.212166 2.35481 13
112 1 -9.2445 -7.50287 -1.27799 16
113 1 -14.5637 -1.59812 -3.05011 9
114 1 -10.6633 -4.09088 -7.11008 14
115 1 -10.3691 -4.38851 -1.23362 15
116 1 -9.65877 -7.51569 4.47216 12
117 1 -12.5892 -3.26966 2.57081 13
118 1 -11.8969 -0.86953 4.9359 16
119 1 -10.1885 -4.0129 4.7729 15
120 1 -9.66173 -5.53813 7.2432 17
121 1 -12.3961 -2.974 6.82926 10
122 1 -10.3537 -5.72348 1.68834 14
123 1 -5.85472 -12.5735 -1.0768 11
124 1 2.22222 -12.6683 3.5137 13
125 1 -9.12844 -8.93681 1.76603 13
126 1 -5.23567 -6.6691 5.00129 21
127 1 -6.99288 -10.0415 -0.39083 18
128 1 -8.34132 -9.04047 7.43469 10
129 1 -8.84588 -1.07851 -0.582398 20
130 1 -7.23396 -3.8979 -0.743337 21
131 1 -7.10007 -6.09023 1.61991 20
132 1 -8.65781 -3.12667 2.43608 20
133 1 -9.18083 0.317065 4.57891 18
134 1 -6.62985 -4.18922 4.91542 18
135 1 -6.42075 -6.44203 7.86149 20
136 1 -8.34734 -1.90862 6.44271 22
137 1 -9.04889 -0.699536 9.51979 15
138 1 -8.54128 -6.34683 10.2252 10
139 1 -6.64104 -11.4117 2.51394 12
140 1 -4.12775 -12.6987 4.44975 6
141 1 -5.25458 -6.67633 -0.73849 19
142 1 -4.09217 -10.001 -0.27745 21
143 1 -4.75393 -9.26804 6.94316 15
144 1 -5.46253 -8.66281 1.95615 22
145 1 -3.07369 -6.1234 7.33682 21
146 1 -3.83776 -9.83386 3.66247 18
147 1 -1.41441 -5.78872 11.2514 14
148 1 -7.31318 -9.34745 4.64477 15
149 1 -5.21314 -6.3974 10.7902 13
150 1 -5.98729 -9.46599 9.49688 11
151 1 -5.17648 -0.667862 -0.48568 23
152 1 -4.09118 -4.0141 -0.62844 21
153 1 -3.7971 -5.85721 1.77455 23
154 1 -5.64966 -2.93353 1.88312 22
155 1 -5.48613 -1.14706 4.36577 20
156 1 -3.77841 -4.09532 4.22949 21
157 1 -3.70631 -4.12523 9.71456 19
158 1 -4.90013 -3.34474 7.07728 22
159 1 -9.51017 2.16641 10.8778 11
160 1 -0.112407 -3.53162 9.35273 19
161 1 -0.206225 -9.03018 11.1196 12
162 1 1.30585 -3.14295 12.2316 13
163 1 -2.81764 -13.0615 0.282789 13
164 1 -1.96147 -10.5878 8.56641 12
165 1 -2.19129 -7.2176 -0.957945 21
166 1 -0.747926 -10.6997 -0.209229 21
167 1 -0.0639779 -11.3664 2.51022 18
168 1 -1.87342 -8.97029 1.85301 18
169 1 -1.94986 -7.09248 4.10441 20
170 1 0.235355 -9.67971 4.7961 19
171 1 -0.865765 -12.5457 5.98633 11
172 1 0.148318 -7.94261 8.13287 20
173 1 -3.12744 -8.48427 10.0794 15
174 1 2.43995 -8.45597 6.32383 20
175 1 -1.98814 -0.581578 -0.538915 21
176 1 -0.933143 -3.86029 -1.1667 21
177 1 -0.485316 -5.93895 1.66077 21
178 1 -2.35933 -2.92687 1.7399 21
179 1 -2.00958 -0.871487 4.63776 20
180 1 -0.106531 -3.84832 3.88285 22
181 1 -0.0508235 -5.85945 6.46871 18
182 1 -1.62627 -3.01607 7.26275 22
183 1 -3.29008 1.7288 9.97168 19
184 1 3.05781 -2.99436 9.18608 20
185 1 1.77066 -5.95753 10.0632 17
186 1 -6.88525 0.472902 11.0832 14
187 2 -10.8974 -4.24376 2.58509 15
188 2 -13.4977 1.31047 1.09766 15
189 2 -10.6748 -5.53182 -5.89979 14
190 2 -9.9223 -5.85856 5.37293 13
191 2 -12.0421 -2.85065 4.89344 13
192 2 -12.9117 -1.72747 1.32895 14
193 2 -9.70096 -7.19541 2.54664 14
194 2 -12.8703 -0.447513 7.05998 13
195 2 -10.8657 -3.85751 7.434 13
196 2 -2.4946 -12.5692 5.09844 10
197 2 -7.47093 -9.42964 2.80743 17
198 2 -8.84966 -8.90224 5.70559 10
199 2 -6.62315 -11.8173 0.504275 12
200 2 -8.45937 -3.07196 4.60361 20
201 2 -8.34548 -7.17133 8.27558 13
202 2 -6.52906 -5.914 3.71926 20
203 2 -8.88324 -1.2478 1.61714 17
204 2 -9.1143 -2.95048 -0.997017 17
205 2 -7.27592 -3.97981 1.4134 23
206 2 -6.46476 -9.18128 7.78382 12
207 2 -7.41417 0.278962 9.31418 19
208 2 -9.34674 -0.313659 6.61094 20
209 2 -6.23836 -4.82058 6.66213 20
210 2 -7.58824 -1.86174 8.19893 16
211 2 4.09812 -12.3708 3.73404 13
212 2 -5.2169 -11.6577 3.54329 10
213 2 -4.71434 -8.57003 4.89457 16
214 2 -5.41058 -6.93759 1.12793 19
215 2 -3.82273 -9.74147 1.83275 22
216 2 -5.07536 -8.2642 10.7571 12
217 2 -3.46625 -5.53101 11.0007 12
218 2 -1.66669 -9.22778 3.93369 18
219 2 -3.76245 -6.0824 3.91609 22
220 2 -5.40577 -3.02083 4.0085 23
221 2 -5.51101 -1.0425 1.38132 24
222 2 -3.91412 -3.8835 1.39132 23
223 2 -0.0134939 -5.20134 10.1227 20
224 2 -9.00292 -4.52461 9.60439 12
225 2 -4.9982 -1.15167 6.76255 23
226 2 -3.20026 -4.24302 7.02325 20
227 2 -10.2674 0.835435 9.52057 13
228 2 -3.49255 -0.200236 9.15866 22
229 2 0.618919 -11.8325 4.58102 15
230 2 -4.65252 -7.123 7.50544 19
231 2 6.64 -12.3496 4.01073 11
232 2 2.11923 -8.45056 4.32566 21
233 2 -2.14112 -7.00873 1.41483 22
234 2 0.230485 -9.49198 1.69428 20
235 2 -3.58628 -9.66683 8.74098 12
236 2 -1.67584 -7.1966 7.10242 20
237 2 -0.678453 -11.3259 7.355 11
238 2 -1.28997 -10.544 10.3815 9
239 2 -0.249219 -5.93994 4.20627 20
240 2 -1.99562 -3.13066 4.03143 21
241 2 -1.89467 -0.953272 1.57764 21
242 2 -0.290545 -3.76066 1.85007 21
243 2 -1.48085 -7.55585 10.4817 15
244 2 -0.294493 0.0725603 9.20463 17
245 2 -1.65428 -1.05789 6.54858 20
246 2 0.433869 -4.1907 7.48366 21
247 2 -6.49645 -5.5334 9.5584 15
248 2 -5.37555 -3.46727 9.16501 17
249 1 -13.9543 -2.82765 -5.48098 8
250 1 -11.9832 -1.11105 -11.1883 9
251 1 -10.5407 1.62045 -5.2374 18
252 1 -12.959 0.130932 -5.70714 13
253 1 -10.4208 -0.538446 -3.58423 15
254 1 -13.0214 3.23144 -2.99097 12
255 1 -11.5401 5.18521 -8.88378 12
256 1 -12.4118 7.12648 -6.33621 9
257 1 -7.5843 1.30854 -11.5447 17
258 1 -7.00748 -0.16572 -8.93263 19
259 1 -11.0285 1.98599 -11.6786 10
260 1 -12.831 3.87388 -5.90277 13
261 1 -7.46532 1.3198 -5.82867 23
262 1 -7.1302 -0.022637 -3.10872 23
263 1 -9.09864 2.92581 -3.15692 21
264 1 -8.90448 4.35098 -6.09142 23
265 1 -9.61586 7.5637 -7.73617 12
266 1 -7.51374 5.91111 -3.66829 19
267 1 -8.92704 8.56126 -4.14342 16
268 1 -7.27188 11.3835 -3.89212 12
269 1 -6.45244 4.60189 -11.0861 13
270 1 -9.16257 3.90633 -13.3631 5
271 1 -3.94799 -0.517378 -8.74584 21
272 1 -5.75503 2.33681 -8.86042 23
273 1 -5.65796 4.48831 -6.12079 21
274 1 -4.28992 1.60614 -6.22059 21
275 1 -3.66489 -0.297823 -3.59869 23
276 1 -5.82953 2.77359 -3.79199 22
277 1 -5.13615 10.3773 -6.49863 15
278 1 -4.22043 5.23599 -8.98352 22
279 1 -7.91942 5.32609 -8.4762 16
280 1 -3.79319 11.8044 -3.9271 14
281 1 -3.78651 7.73643 -5.72835 21
282 1 -4.18619 5.88645 -3.26129 22
283 1 -5.75255 8.92965 -3.45053 22
284 1 -2.16383 10.4803 -6.36436 11
285 1 -4.2512 7.33374 -11.7074 9
286 1 -5.91545 7.96202 -8.80401 15
287 1 -0.949822 2.01968 -11.7044 15
288 1 -0.277047 -0.370741 -9.07246 21
289 1 -2.36676 2.21257 -9.02207 22
290 1 -2.64286 4.6363 -6.60794 22
291 1 -1.15588 1.74616 -6.35799 22
292 1 -0.455274 0.0809431 -3.18504 22
293 1 -2.63535 2.68802 -3.46192 23
294 1 -2.69699 8.04966 -8.61723 17
295 1 -0.704642 5.08729 -9.10527 20
296 1 -6.70447 7.44304 -6.28819 19
297 1 -0.308986 11.4703 -3.39377 12
298 1 -0.52367 7.58554 -6.73356 18
299 1 -0.573398 5.77635 -3.97575 20
300 1 -2.31211 8.75038 -3.59483 21
301 1 -0.66702 7.86845 -11.0524 11
302 1 2.81447 13.0883 0.175838 12
303 2 -11.5806 3.43309 1.17916 17
304 2 -11.5861 7.2037 -7.97609 8
305 2 -10.2973 -0.390501 -5.58706 15
306 2 -12.1373 5.50163 -5.35712 14
307 2 -10.4977 2.15926 -9.9586 15
308 2 -10.1584 0.405199 -0.193504 20
309 2 -10.7305 5.94714 -0.185893 16
310 2 -10.2016 7.36881 -3.19622 17
311 2 -10.2836 1.29602 -3.22933 20
312 2 -12.8115 0.248385 -7.78641 13
313 2 -11.3056 4.51094 -2.54964 17
314 2 -7.85259 1.33031 -8.8062 19
315 2 -6.20506 0.0378164 -11.9066 14
316 2 -7.13654 -1.26196 -7.45102 19
317 2 -9.79288 4.67208 -8.21025 16
318 2 -12.6875 3.92677 -7.83878 11
319 2 -2.1984 8.77889 -6.90293 16
320 2 -7.137 -0.109288 -0.918316 19
321 2 -8.88246 2.7394 -1.26753 22
322 2 -8.9848 4.71651 -4.12518 21
323 2 -7.34225 1.69586 -3.69864 20
324 2 -8.94695 2.21208 -6.32719 17
325 2 -9.80965 8.19549 -5.9058 15
326 2 -3.56536 11.1422 -5.74318 12
327 2 -7.28151 5.66809 -1.38638 22
328 2 -6.44972 10.8782 -5.42112 11
329 2 1.28443 8.18058 -7.19825 17
330 2 -7.1435 7.69569 -4.50331 21
331 2 -8.70216 10.2203 -2.988 15
332 2 -4.92982 -3.35628 -11.5651 11
333 2 -5.54026 2.91465 -11.3886 14
334 2 -4.12121 -0.450712 -6.81036 24
335 2 -5.85624 2.3933 -6.44677 19
336 2 -6.12393 4.25507 -8.84016 19
337 2 -4.12244 1.4131 -9.42757 22
338 2 -3.62157 -0.102112 -1.5025 22
339 2 -5.38712 2.8358 -1.48672 22
340 2 -5.70075 5.0566 -4.08292 23
341 2 -4.36631 1.59585 -3.92985 20
342 2 -7.80726 4.44649 -12.1668 8
343 2 -3.92342 5.87426 -6.94817 22
344 2 -7.24034 5.53429 -6.44458 19
345 2 -4.9436 8.35185 -7.05127 17
346 2 -3.80931 5.87116 -1.48484 21
347 2 -6.12431 8.91196 -1.15337 21
348 2 -4.55008 7.99805 -9.91709 11
349 2 -3.98828 7.86184 -3.74116 21
350 2 -7.80579 7.24129 -8.11907 13
351 2 -2.08656 10.6025 -3.57074 17
352 2 -0.0659098 11.3805 -1.5954 16
353 2 -0.32728 -1.56038 -11.4565 16
354 2 -2.70993 1.92284 -11.6098 14
355 2 -0.735408 -0.0377143 -7.15454 19
356 2 -2.92384 2.84147 -6.30765 22
357 2 -2.57542 4.22998 -8.7409 20
358 2 -0.750095 1.37527 -9.73721 20
359 2 -0.389226 -0.356032 -1.33112 20
360 2 -2.33752 2.8849 -1.58839 22
361 2 -2.36011 4.65953 -3.48054 18
362 2 -1.32536 1.45133 -4.45191 20
363 2 1.09892 8.52926 -10.5647 11
364 2 -0.585876 5.63788 -6.05766 21
365 2 -5.44895 11.2467 -3.02249 14
366 2 -4.52838 5.42573 -11.0197 14
367 2 -1.22921 7.02522 -8.84509 18
368 2 -0.400172 5.91803 -0.691384 18
369 2 -2.34713 8.48761 -1.47343 21
370 2 1.45799 11.3372 -3.86586 12
371 2 -0.457738 7.83406 -3.75102 21
372 2 -1.94311 10.6724 1.39557 18
373 2 1.69773 11.5323 1.19523 16
374 2 4.66526 13.9439 -0.00930704 7
375 2 3.28449 12.0499 -1.49802 14
376 1 -13.9388 0.859415 -0.779812 11
377 1 -12.8799 2.74975 2.22366 12
378 1 -13.0554 -2.17735 -0.466129 13
379 1 -10.8964 5.7643 -3.95931 16
380 1 -10.7837 1.69236 -1.31463 17
381 1 -10.3916 -0.360808 1.65845 17
382 1 -11.7868 4.25486 -0.634397 15
383 1 -13.712 4.39793 5.24392 11
384 1 -10.7296 3.04807 4.62829 17
385 1 -12.0326 0.0643031 8.70416 14
386 1 -9.32354 1.70463 7.53562 17
387 1 -14.0373 0.714969 5.96769 8
388 1 -10.6726 7.53177 -1.47214 14
389 1 -10.4623 5.23035 1.62272 15
390 1 -11.0734 6.49298 4.95098 11
391 1 -10.9607 5.44131 9.68696 9
392 1 -9.00259 4.6404 -0.614305 22
393 1 -7.34773 1.75296 -0.721686 22
394 1 -7.21641 -0.129472 1.47896 20
395 1 -8.87265 3.00971 2.27529 21
396 1 -7.72081 7.77903 4.52088 21
397 1 -7.07574 2.05138 4.7265 21
398 1 -6.52554 0.073912 7.53875 20
399 1 -10.3856 -3.36153 9.18167 11
400 1 -12.0627 3.1602 7.63175 15
401 1 -6.00916 3.55696 10.7922 11
402 1 -7.30969 -3.47454 9.22556 17
403 1 -9.05576 10.1012 -1.45588 13
404 1 -7.68321 7.54383 -0.492293 22
405 1 -7.19302 5.60492 2.18066 20
406 1 -9.01315 8.61664 1.51627 19
407 1 -7.92728 11.6881 1.39703 13
408 1 -9.62879 11.1445 3.99385 11
409 1 -12.5845 6.59816 7.48273 8
410 1 -10.1344 9.19648 6.27222 11
411 1 -8.39467 7.72482 8.14064 14
412 1 1.6558 10.6958 -0.682641 20
413 1 -5.74871 4.75199 -1.03078 21
414 1 -3.88005 2.04649 -0.825451 21
415 1 -3.71452 -0.403669 2.05057 22
416 1 -5.24485 2.59031 2.00463 22
417 1 -5.39799 4.32113 4.2838 18
418 1 -3.58747 1.81103 4.63973 22
419 1 -3.10485 -0.139056 7.22328 21
420 1 -6.94524 5.21872 6.29799 17
421 1 -4.83658 6.33981 9.80125 11
422 1 -5.33575 2.5294 7.5541 19
423 1 -2.03226 2.91154 12.8476 10
424 1 -3.43984 -0.210069 12.3703 10
425 1 -5.76195 10.7982 -0.974072 17
426 1 -3.94876 7.81272 -0.735017 19
427 1 -3.87937 6.12808 1.7709 21
428 1 -5.91614 8.63051 1.91654 23
429 1 -8.13517 13.893 4.64896 5
430 1 -4.04074 7.74323 4.39189 22
431 1 -3.92856 5.51595 6.79188 20
432 1 -7.78849 10.5986 6.4164 14
433 1 -1.85521 6.69522 12.5904 7
434 1 -8.28035 5.16082 10.4749 9
435 1 -4.08168 11.5069 6.11845 10
436 1 -4.04345 11.3611 1.89183 14
437 1 -5.75854 8.51106 7.0359 16
438 1 -2.07869 4.99954 -1.36799 20
439 1 -0.49363 1.88333 -0.68117 21
440 1 -0.391708 0.0894669 2.28754 22
441 1 -2.03793 2.94911 1.95177 21
442 1 -2.32573 4.8721 4.33173 21
443 1 -0.468027 2.2504 4.56065 20
444 1 0.00374462 0.168701 6.96577 21
445 1 -1.77128 3.14693 6.94091 19
446 1 -1.86714 4.88403 10.1288 18
447 1 1.54752 -0.73695 9.42728 18
448 1 -2.21023 -3.37053 13.0035 9
449 1 -5.01017 -1.31598 9.77954 17
450 1 -2.49227 10.6749 -0.778264 16
451 1 -0.621499 7.8798 -1.06505 21
452 1 -0.425867 6.03359 1.33204 18
453 1 -2.35093 8.95315 1.93636 21
454 1 -5.76368 10.6049 4.07923 17
455 1 -0.391453 8.32716 4.11538 21
456 1 -0.352323 5.97473 6.34062 19
457 1 -3.08968 8.17272 7.88641 16
458 1 -2.3591 9.66879 10.9302 7
459 1 -0.312407 8.14715 8.82594 15
460 1 7.20708 10.2385 6.17805 12
461 1 -1.90464 10.6127 4.46652 17
462 1 4.91324 12.5143 4.4949 11
463 1 -0.757458 10.5439 7.63776 14
464 2 -13.6915 -0.300311 4.16952 12
465 2 -13.2853 2.42676 -1.33878 12
466 2 -10.4056 2.52849 6.42115 18
467 2 -11.3993 -1.5807 9.41468 9
468 2 -12.3708 5.5674 5.80937 11
469 2 -12.4472 3.72531 3.86529 14
470 2 -8.98355 6.20832 9.2802 10
471 2 -13.5324 2.53446 6.30879 11
472 2 -10.1736 3.71744 10.1224 10
473 2 -12.3918 4.96164 8.47452 10
474 2 -9.50266 8.53756 -0.413562 15
475 2 -8.92894 12.3589 5.67389 9
476 2 -7.17801 -0.168968 4.11716 21
477 2 -10.9748 0.04648 3.31812 17
478 2 -8.54983 4.87975 1.12202 19
479 2 -7.16305 2.02173 1.45904 22
480 2 -7.38933 1.88646 6.79464 16
481 2 -7.56462 2.43053 11.025 12
482 2 -8.97043 2.09789 3.86935 18
483 2 -7.19466 7.20828 6.58322 17
484 2 -5.15807 -0.33496 11.4497 12
485 2 -7.30782 5.27809 4.25309 16
486 2 -10.4281 6.13974 3.21948 14
487 2 -7.79654 10.948 -0.240157 16
488 2 -7.51035 7.39992 1.53539 21
489 2 -6.40787 5.40218 10.2162 9
490 2 -11.2499 7.8036 7.0619 10
491 2 -3.75333 7.61772 6.12203 22
492 2 -3.68793 -0.190607 3.98448 22
493 2 -5.3645 2.38735 3.97632 23
494 2 -5.37765 4.91102 1.21605 22
495 2 -3.50516 1.75816 1.32776 21
496 2 -5.10907 2.68682 9.51288 17
497 2 -5.27278 4.1766 6.43025 17
498 2 -8.91494 9.63865 7.72012 11
499 2 -3.28246 2.07705 6.72649 24
500 2 -0.313174 2.74267 12.5546 12
501 2 1.1856 -2.68104 10.4084 16
502 2 -4.1352 5.75011 3.93003 21
503 2 -8.94632 9.55681 4.8301 16
504 2 -5.84873 10.4996 2.18662 19
505 2 -3.89838 8.14534 1.23989 21
506 2 -5.12221 7.81303 8.64578 12
507 2 -5.7878 10.5098 6.06048 16
508 2 -8.53703 12.725 3.05263 9
509 2 -0.904652 7.90762 6.92444 18
510 2 -9.27288 10.4787 2.12183 12
511 2 -2.20111 10.8282 6.46343 13
512 2 -0.228961 0.0899674 4.22414 20
513 2 -2.12833 3.07457 3.95453 21
514 2 -1.96619 4.86072 1.58774 18
515 2 -0.294169 1.92652 1.43401 19
516 2 5.48377 3.19701 12.3789 11
517 2 -1.88033 2.57706 8.95939 20
518 2 -2.2838 4.863 6.2012 21
519 2 0.108661 2.07201 6.55263 22
520 2 -3.07569 1.48803 11.9637 12
521 2 2.48266 -2.21708 13.3326 8
522 2 -0.337482 5.98274 4.44941 18
523 2 -2.22824 8.54016 3.92027 20
524 2 -4.14235 11.3665 -0.263667 15
525 2 -0.426753 8.05596 1.47161 20
526 2 -2.61029 6.58925 9.28742 16
527 2 1.4835 8.92072 9.13981 13
528 2 -5.82685 8.36072 4.0032 19
529 2 -2.30571 4.86459 12.2013 12
530 2 -2.32342 8.40181 12.2935 5
531 2 1.5818 8.70115 3.66853 21
532 2 -3.86455 10.8335 4.24946 15
533 1 9.45273 -3.65242 -7.03707 15
534 1 1.16764 -7.00966 -6.39656 20
535 1 3.57214 -11.2449 -4.23891 16
536 1 -0.74391 -10.5163 -6.85405 13
537 1 0.528545 -11.7309 -2.65772 19
538 1 4.99631 -13.1294 -1.12197 10
539 1 1.41478 -8.8484 -2.81041 17
540 1 7.88714 -1.01535 -11.5468 10
541 1 -3.64378 -4.69821 -11.4282 11
542 1 2.96717 1.91429 -11.3789 15
543 1 2.08887 -12.1191 -6.38569 9
544 1 -2.13604 -1.44287 -11.2785 17
545 1 0.789056 -1.34435 -6.36713 21
546 1 3.24241 -4.02594 -6.57184 22
547 1 2.81574 -6.05504 -3.76985 23
548 1 1.22238 -3.40836 -4.03963 22
549 1 7.83743 -6.84624 -6.10672 17
550 1 1.85436 -6.02113 -11.2348 11
551 1 3.90089 -9.3443 -7.28579 13
552 1 9.65199 -8.6523 -4.90587 15
553 1 10.1424 -11.5245 0.727395 12
554 1 4.21328 -8.31272 -4.2105 20
555 1 -1.8707 -9.79283 -9.02211 12
556 1 5.09839 -6.78727 -6.66697 18
557 1 9.71815 1.29847 -10.8604 9
558 1 4.36373 -3.04785 -10.191 15
559 1 4.38852 -1.45969 -6.81156 24
560 1 6.28039 -4.12555 -5.6666 17
561 1 6.17697 -5.6809 -3.3843 19
562 1 4.37932 -2.45369 -3.40672 23
563 1 14.4414 -5.3619 -2.88539 8
564 1 11.282 -6.36415 -6.92146 14
565 1 6.62532 2.21573 -12.2773 11
566 1 10.2409 -0.969684 -8.8705 13
567 1 6.80735 -10.0096 -6.10854 10
568 1 8.15572 -1.23967 -6.37004 19
569 1 8.17088 1.70435 -8.00822 18
570 1 12.4901 -3.63414 -8.83703 8
571 1 8.17658 -3.16253 -3.35638 22
572 1 10.3497 -5.85716 -4.61434 19
573 1 11.9506 1.76168 -6.78817 14
574 1 11.9345 -1.68916 -6.7012 17
575 2 0.321138 -13.7005 -3.06215 12
576 2 -5.94983 -11.2161 -7.46155 10
577 2 0.677423 -7.07259 -9.97185 13
578 2 2.7356 -10.3802 -6.29896 14
579 2 9.58455 -0.681778 -10.476 11
580 2 12.7076 -5.2312 -7.44753 11
581 2 2.1795 -13.1757 -5.0152 9
582 2 1.96871 -8.84419 -0.894597 20
583 2 1.09785 -6.86418 -2.81307 23
584 2 4.61757 -6.90671 -3.16558 19
585 2 9.5563 -5.61925 -6.5287 14
586 2 2.57569 -2.66174 -10.7513 15
587 2 4.65105 -5.24512 -7.56081 14
588 2 1.11347 -3.36967 -5.92377 21
589 2 1.209 -1.52333 -8.74552 23
590 2 0.391522 -5.0954 -11.9692 11
591 2 2.71102 -5.71595 -0.31129 19
592 2 0.8914 -2.81537 -1.18558 22
593 2 1.39054 -1.24153 -3.50749 22
594 2 2.75616 -4.19469 -3.11983 21
595 2 9.20278 -11.5502 -0.912152 14
596 2 -0.127628 -9.73821 -8.57456 14
597 2 4.66601 -1.52774 -8.80761 18
598 2 3.8286 -12.8072 -2.8331 13
599 2 5.38918 -8.77213 -1.2574 19
600 2 10.2204 -10.0062 -3.86504 12
601 2 5.61864 -9.66462 -4.26119 17
602 2 2.79207 -5.18095 -9.88866 12
603 2 13.3854 -2.92198 -7.17467 8
604 2 4.26121 -3.18965 -5.3842 22
605 2 8.29645 1.38865 -12.0702 9
606 2 6.16304 -1.87034 -11.3799 10
607 2 6.85891 -5.66944 -1.34853 20
608 2 4.39513 -2.69842 -1.08116 18
609 2 4.45928 -0.411607 -3.47967 21
610 2 6.39507 -3.31042 -3.36216 20
611 2 13.2315 -7.06153 -3.00726 9
612 2 2.72521 -5.97081 -5.67274 20
613 2 11.4813 -7.42535 -5.08985 16
614 2 8.42125 -8.6735 -1.98442 22
615 2 13.4133 -4.09312 -4.17722 13
616 2 10.6347 3.096 -6.51469 17
617 2 8.45854 -8.99957 -6.37754 11
618 2 7.8919 -3.17513 -6.21985 17
619 2 12.852 5.87158 -1.44587 15
620 2 8.59219 -6.91583 -4.22473 19
621 2 8.60719 -2.77562 -1.37604 20
622 2 8.38244 -0.504013 -4.40898 18
623 2 10.6139 -2.82543 -8.53819 13
624 2 10.242 -6.03821 -0.979354 18
625 2 7.94088 -6.97392 1.29608 20
626 2 2.77342 -7.95106 -7.96202 13
627 2 10.0011 -4.06622 -4.13147 20
628 2 11.3663 -2.62427 -1.63484 17
629 2 12.4108 1.63099 -4.93636 14
630 2 6.158 -5.94796 -5.39294 20
631 1 0.402096 -13.4904 0.454551 12
632 1 2.44877 -11.352 0.509416 17
633 1 1.05181 -6.24899 -1.26002 20
634 1 3.70779 -9.48283 -1.04913 19
635 1 5.7838 -13.3375 2.69482 9
636 1 1.41212 -8.20695 0.641821 22
637 1 1.41573 -6.65261 3.86115 21
638 1 7.02887 -11.3478 0.593768 18
639 1 0.910431 -10.7373 8.16149 14
640 1 3.1318 -9.38845 3.26735 21
641 1 -1.86111 -0.865007 10.004 20
642 1 8.16116 -8.64265 5.25798 13
643 1 1.63037 -0.870772 -1.50176 21
644 1 2.65201 -3.83528 -1.27869 19
645 1 2.97563 -6.00542 1.68185 22
646 1 0.900594 -2.39243 1.15094 20
647 1 1.46575 -0.693288 4.05224 21
648 1 2.62615 -3.72561 3.71572 21
649 1 2.85987 -8.99852 9.42613 15
650 1 1.50682 -2.75642 6.5977 20
651 1 -0.187664 2.16521 9.11327 20
652 1 4.20418 -5.35852 11.0972 10
653 1 3.29689 -5.31374 6.75079 18
654 1 1.01238 4.02894 11.7168 13
655 1 8.07867 -12.4284 -2.20575 10
656 1 5.38913 -8.204 10.8049 8
657 1 4.79664 -6.73368 -0.886254 23
658 1 12.7872 -8.50564 -3.99136 10
659 1 9.05915 -8.51569 2.25423 18
660 1 5.36078 -8.75438 1.6192 17
661 1 7.64803 -8.54136 -0.273927 20
662 1 5.22665 -12.615 5.16054 10
663 1 3.96763 -11.3995 7.37707 11
664 1 8.20508 -11.6159 3.38887 12
665 1 4.49812 -0.667128 -1.64681 22
666 1 6.71344 -3.63672 -1.07458 18
667 1 6.48624 -5.59285 1.76094 21
668 1 4.31769 -2.76475 0.839069 21
669 1 4.718 -0.731521 3.85855 22
670 1 6.16914 -3.68425 3.77552 18
671 1 5.60912 -9.35316 4.82392 21
672 1 5.02719 -2.25256 6.79034 15
673 1 6.11384 -1.76023 9.21959 16
674 1 7.04911 -2.0528 12.2575 9
675 1 2.95458 -0.68082 14.4031 7
676 1 13.7277 -4.31094 -5.94761 11
677 1 11.6208 -6.85669 -1.89085 18
678 1 10.0523 -3.89715 -0.948773 16
679 1 10.3852 -10.0053 -2.11401 13
680 1 8.25205 -5.74629 4.1175 19
681 1 6.17135 -9.90839 7.74139 13
682 1 6.10137 -6.94303 7.83066 17
683 1 8.13003 -0.74535 -1.88148 21
684 1 11.9485 -0.885672 -1.02062 17
685 1 8.28944 -6.59867 -2.31217 24
686 1 8.3249 -3.22462 1.79213 20
687 1 7.9206 -0.131791 3.83025 18
688 1 9.87905 -3.58656 4.79194 17
689 1 4.76533 -6.53848 4.3217 19
690 1 9.51549 -5.96775 7.13865 10
691 1 9.70386 -2.61426 10.7852 7
692 1 7.53297 -5.35694 10.2735 12
693 1 11.441 -8.93467 0.417501 13
694 1 13.9007 -4.21841 0.5934 6
695 1 6.60743 -9.74111 -2.5677 21
696 1 13.0338 0.180697 -4.07654 14
697 1 11.4963 -2.97831 -3.62772 15
698 1 11.676 -6.10762 3.01027 11
699 1 11.1891 -2.46667 1.85513 19
700 1 10.3892 1.13312 7.62006 11
701 1 9.73592 -5.99291 0.961675 20
702 1 9.93846 -1.91194 7.31477 13
703 2 0.503418 -11.9688 -0.829082 18
704 2 0.617063 -9.15639 6.76502 17
705 2 5.08902 -12.8718 0.906587 12
706 2 4.9586 -10.6876 5.99121 14
707 2 1.19791 -6.61165 1.92738 22
708 2 3.11353 -9.91818 1.4807 19
709 2 5.6892 -11.5439 8.27157 8
710 2 1.65316 -6.79583 7.34684 20
711 2 11.5087 -8.62728 -1.39517 16
712 2 3.42809 -7.48591 10.6344 12
713 2 3.1349 -5.57542 4.44418 23
714 2 1.48536 -2.60949 4.68206 23
715 2 1.22359 -0.752559 2.07389 23
716 2 2.77247 -3.37551 1.84133 21
717 2 2.88948 -9.94327 7.79038 15
718 2 5.89001 -6.09153 11.0259 9
719 2 1.55297 -0.878995 7.21104 22
720 2 3.39635 -3.35859 7.05628 18
721 2 -2.47336 -1.72443 12.0847 10
722 2 4.23748 0.40506 13.4799 11
723 2 6.54124 -12.0993 -1.44788 14
724 2 11.1917 -7.23111 1.51541 12
725 2 4.75211 -6.54917 6.43715 16
726 2 4.74413 -6.96538 1.14598 21
727 2 8.57322 -12.6073 1.3988 12
728 2 4.83577 -8.24501 3.50113 18
729 2 6.79842 -8.94971 6.40708 13
730 2 7.61556 -3.67923 11.6051 10
731 2 1.05109 -8.27895 9.83427 14
732 2 7.0315 -9.65807 1.32875 21
733 2 5.08609 -2.33198 4.62931 20
734 2 4.59974 -0.831804 1.63184 20
735 2 6.4318 -3.67273 1.28255 19
736 2 7.75106 -5.61254 8.42722 11
737 2 -2.11497 -2.73158 9.33046 19
738 2 6.23952 2.16347 6.78574 16
739 2 6.3996 -5.6146 3.74046 19
740 2 5.59244 -1.61592 11.012 14
741 2 -0.448806 -3.68397 12.873 8
742 2 8.67419 -9.91243 3.98603 11
743 2 9.97571 -9.86499 1.39706 16
744 2 7.98512 -3.35499 3.99821 16
745 2 2.97134 -4.63009 10.0843 13
746 2 9.30337 -3.86308 6.76626 13
747 2 6.32608 -3.13733 7.81523 14
748 2 9.76524 0.234754 -1.1459 18
749 2 9.9406 -3.84704 1.25059 22
750 2 5.15631 -0.594225 7.7924 18
751 2 9.89591 -1.58605 9.18901 10
752 2 9.65695 0.8531 4.44662 17
753 2 8.72594 -7.0199 5.6216 14
754 2 3.21211 0.0122729 10.067 17
755 2 14.1831 -5.31301 -0.893846 7
756 2 10.8489 -2.15552 3.76311 18
757 2 12.9798 0.319507 -2.12065 15
758 2 9.86414 -5.25366 3.51953 18
759 2 10.9702 -0.451629 6.90995 12
760 1 1.17141 -3.41019 -9.43548 20
761 1 -3.17447 3.83373 -11.6047 16
762 1 4.43182 10.6111 -9.44556 10
763 1 3.60917 -6.39179 -8.69195 14
764 1 2.80829 -0.718517 -9.29697 19
765 1 1.07203 2.22583 -9.48306 22
766 1 0.740281 4.40266 -6.54386 21
767 1 2.49272 1.61399 -6.63713 21
768 1 2.8512 -0.144489 -4.33185 21
769 1 1.23865 2.6006 -3.79778 21
770 1 2.58925 7.64325 -11.1829 11
771 1 2.22 5.30792 -9.77645 18
772 1 1.35715 9.45542 -8.9365 11
773 1 3.25093 11.8737 -3.42045 13
774 1 2.40255 7.42423 -5.95641 18
775 1 2.42585 5.69636 -3.8638 21
776 1 0.955174 9.00329 -3.4616 20
777 1 7.97557 10.6553 -0.965563 11
778 1 0.0896485 4.99207 -12.5379 10
779 1 4.7561 -0.523239 -11.8097 13
780 1 6.17916 -0.281427 -9.00436 19
781 1 4.25985 2.32101 -8.95269 19
782 1 4.00605 4.25398 -5.76972 21
783 1 5.48468 1.22749 -5.97043 22
784 1 6.64073 -0.229458 -4.15884 21
785 1 4.55455 2.70297 -3.31349 20
786 1 4.75517 4.74772 -11.1813 13
787 1 5.37467 7.99369 -9.97679 11
788 1 6.79235 11.333 -4.04503 12
789 1 6.08082 5.94157 -4.56371 22
790 1 7.9098 4.78402 -1.75062 22
791 1 4.21854 8.32401 -3.69741 22
792 1 3.59757 10.4087 -6.19762 14
793 1 9.40264 4.25565 -7.09322 17
794 1 8.33414 3.89097 -10.5538 11
795 1 8.47293 6.57849 -8.48895 12
796 1 11.1747 3.56689 -4.82884 19
797 1 10.6124 0.350561 -4.40225 18
798 1 8.14243 2.85526 -4.35375 22
799 1 6.45569 4.30697 -7.63556 21
800 1 5.16411 7.46927 -7.20372 22
801 1 10.7011 8.84415 -3.99938 12
802 1 10.5938 7.69406 -7.30506 10
803 1 9.38195 6.21594 -4.45311 21
804 1 12.1589 6.24101 -5.06233 15
805 1 14.7402 4.85219 -1.5153 10
806 1 14.7636 3.12535 1.58931 10
807 2 2.99569 -0.149846 -11.228 18
808 2 0.806039 2.47414 -11.5027 16
809 2 2.6063 -0.351261 -6.2762 20
810 2 0.632211 2.4148 -6.0073 20
811 2 0.62168 3.75824 -8.63158 22
812 2 2.66218 1.14389 -8.93738 22
813 2 3.19528 0.289073 -0.858423 22
814 2 1.32625 2.72108 -1.75978 21
815 2 0.988408 4.36053 -3.38439 23
816 2 3.62101 1.85318 -4.60111 21
817 2 1.19469 5.92733 -11.2056 14
818 2 2.36677 5.14779 -5.80009 22
819 2 4.04567 8.50981 -5.94575 17
820 2 -1.30968 4.12764 -11.7115 15
821 2 -2.31751 7.63353 -12.0252 11
822 2 3.0437 5.73403 -1.05348 21
823 2 1.0996 8.87523 -1.60477 21
824 2 6.36273 10.6626 -2.28656 17
825 2 2.58141 7.76061 -3.90268 19
826 2 5.95702 10.1859 -8.26571 12
827 2 5.03764 12.7026 2.67673 12
828 2 6.15359 11.1846 5.0264 12
829 2 8.75968 8.3705 -7.34578 14
830 2 6.35692 3.83364 -11.1501 13
831 2 3.87702 6.38018 -10.7067 11
832 2 5.95411 -0.927686 -5.81493 20
833 2 3.74851 2.84755 -7.26262 19
834 2 3.50134 3.64558 -10.2711 16
835 2 6.09113 1.47815 -8.14633 17
836 2 6.42882 -0.184616 -0.86593 21
837 2 4.80135 2.87215 -1.42926 21
838 2 4.64738 4.67928 -3.96082 21
839 2 6.33477 1.94688 -4.17722 18
840 2 6.68279 7.69445 -8.56748 15
841 2 2.98981 10.4418 -8.02473 11
842 2 7.62461 10.8445 -5.68088 9
843 2 6.18836 5.81146 -1.16118 21
844 2 4.60683 8.45263 -1.55593 18
845 2 3.76777 8.99832 -10.5375 10
846 2 5.63667 5.69912 -6.60625 16
847 2 4.7164 11.4106 -4.54866 12
848 2 8.98464 2.17189 -9.60054 17
849 2 7.54753 3.08655 -6.4996 18
850 2 4.79451 1.50335 -12.1004 12
851 2 8.12542 4.95934 -9.00502 13
852 2 11.7346 -1.34093 -4.67161 16
853 2 8.37807 3.01174 -1.01682 23
854 2 7.80743 5.12477 -4.07442 22
855 2 9.76337 2.12603 -3.71824 21
856 2 11.4573 7.84412 -5.67888 10
857 2 9.98065 5.92788 -7.29839 16
858 2 9.64481 5.60472 -1.02943 23
859 2 10.9566 5.2887 -3.96848 21
860 2 11.3053 8.8137 -2.1229 14
861 2 8.85344 7.9322 -3.68145 20
862 2 14.4004 4.27453 0.297416 13
863 2 11.1047 0.0842663 -6.87546 16
864 2 9.84196 7.21081 1.82831 19
865 2 13.1371 4.44901 -5.34785 11