ITEM: TIMESTEP
32000
ITEM: NUMBER OF ATOMS
2000
ITEM: BOX BOUNDS pp pp pp
-30.0 30.0
-30.0 30.0
-30.0 30.0
ITEM: ATOMS id type x y z Coordination
1 1 -12.0475 10.569 -13.2956 9
2 1 -5.0127 -6.68359 -7.17714 19
3 1 0.593587 10.7594 12.1824 20
4 1 5.87041 -12.9422 5.07318 8
5 1 -13.9558 10.0976 -0.354144 16
6 1 8.31355 -8.22036 -11.6553 15
7 1 -17.4127 0.767004 -6.14671 16
8 1 -1.11832 -1.71202 8.82938 19
9 1 -11.6357 -4.89802 -13.1715 17
10 1 -16.8853 -8.34393 5.71852 13
11 1 12.8478 5.3311 -10.5958 12
12 1 -6.57864 -12.3997 1.64055 21
13 1 -20.1886 -6.33265 0.339226 8
14 1 -2.07884 5.68933 15.1566 14
15 1 -1.53288 6.33477 5.46211 21
16 1 -5.64446 10.3148 -9.09056 22
17 1 0.773026 11.6228 16.0091 13
18 1 -10.1402 -2.19457 -14.4479 14
19 1 -15.9285 -0.367594 9.40229 13
20 1 12.1692 -2.76314 6.15002 10
21 1 -3.54118 13.1801 -13.0953 9
22 1 1.6498 11.7873 -10.8923 18
23 1 12.3788 -2.74678 12.6128 7
24 1 -16.0442 5.73773 -5.91279 18
25 1 -5.22934 -3.90482 -7.73433 22
26 1 -15.1748 10.7616 7.37796 14
27 1 5.97123 -10.2886 2.46876 15
28 1 2.6147 -12.0198 -13.1565 11
29 1 7.39836 -11.9556 -3.14753 12
30 1 -8.76297 -14.386 -8.75445 10
31 1 -15.4898 -2.93553 7.54008 16
32 1 -6.2522 -6.36446 -12.9649 20
33 1 5.27946 -10.4127 -11.8061 14
34 1 -1.28166 7.91331 -14.1946 15
35 1 4.62193 10.7721 16.3161 11
36 1 -9.16011 -8.38261 5.34816 13
37 1 4.51326 -5.63559 4.14114 19
38 1 -18.9811 0.323516 -0.923931 12
39 1 -15.0872 3.3867 3.62636 18
40 1 -13.3514 2.11948 -1.96511 19
41 1 -6.97851 17.6069 -1.41082 15
42 1 -2.32923 -16.1304 -12.169 11
43 1 -0.793966 0.874183 -13.2522 20
44 1 3.87627 -2.04461 -10.694 18
45 1 1.05448 -4.52373 15.0949 10
46 1 -13.0584 12.3533 1.86086 20
47 1 0.843093 12.919 -5.82643 16
48 1 -2.72248 17.7688 5.4835 11
49 1 -12.0526 10.456 -2.68449 16
50 1 -3.53954 18.7954 -1.95374 11
51 1 -0.823886 -10.2014 -0.26238 21
52 1 4.55393 -4.76272 -6.2104 22
53 1 1.05226 -5.54159 -16.7567 11
54 1 -9.00896 9.78147 7.34012 19
55 1 -12.9924 -5.63808 -9.53415 23
56 1 6.41792 -3.06958 4.7758 21
57 1 -16.2281 2.84073 -2.17133 23
58 1 -11.5448 -5.49775 5.88567 15
59 1 -9.7691 12.7874 6.52664 20
60 1 -11.6949 11.95 -7.83686 17
61 1 -9.19802 9.53843 12.3738 12
62 1 -11.7756 -8.64553 5.7607 19
63 1 3.60377 5.74986 2.30384 23
64 1 8.12695 -10.9018 -6.28466 14
65 1 6.30629 12.1759 9.43625 16
66 1 -14.9962 8.56778 -6.9278 13
67 1 -13.8185 9.91132 -8.91067 14
68 1 -0.559658 13.76 10.7621 17
69 1 10.6956 0.462099 -12.2838 19
70 1 8.13051 -11.1314 -0.0530642 13
71 1 -17.5082 2.05242 7.60507 13
72 1 0.377712 17.2727 6.22029 14
73 1 3.20063 -4.76822 11.481 15
74 1 -14.182 -9.92541 5.60576 16
75 1 -16.3924 -1.5934 -1.17705 18
76 1 10.2559 -0.778687 7.87691 18
77 1 -9.632 11.9392 9.64075 16
78 1 4.03182 -0.413172 6.85436 18
79 1 -5.59867 -5.542 -10.2913 23
80 1 -12.8199 5.58011 13.1585 11
81 1 -9.10246 15.1888 -2.90176 20
82 1 -2.53213 6.83347 -11.3505 23
83 1 8.40544 0.170329 -6.83468 20
84 1 6.8018 14.6379 -9.29053 18
85 1 7.38601 -4.75877 2.10209 17
86 1 -2.53229 -4.91315 14.6822 11
87 1 -12.2268 17.3831 -4.54202 8
88 1 -14.4206 14.2363 -0.0347248 15
89 1 -8.64557 1.32033 12.8722 17
90 1 -4.89338 8.06369 3.25891 17
91 1 -8.66587 -2.66016 6.25088 15
92 1 11.3914 -5.00572 -8.45066 17
93 1 -10.3922 4.48836 5.29898 18
94 1 -15.161 -13.4221 3.53269 11
95 1 7.44115 -7.27768 -6.14217 21
96 1 3.09645 -1.1956 -15.6449 20
97 1 -8.23128 -5.07662 -17.6267 9
98 1 -1.59487 12.0669 -0.540505 20
99 1 -8.87431 11.0048 -7.7765 17
100 1 0.187743 7.39714 13.6264 21
101 1 -1.67801 12.1477 -6.79755 18
102 1 -18.2921 6.4942 -0.0198718 18
103 1 0.0883942 11.6968 -3.20771 21
104 1 -8.03172 -4.35285 1.10206 20
105 1 10.8171 -5.23995 11.8184 9
106 1 0.431648 -10.1343 -12.3615 14
107 1 -0.414115 -2.83135 -10.2452 21
108 1 -5.06947 5.98732 5.44745 21
109 1 2.68449 2.25527 10.7549 22
110 1 -12.6994 -7.73983 -2.55146 18
111 1 -9.87503 -5.63651 -10.0855 19
112 1 6.21383 -6.15692 -3.4368 19
113 1 -3.61867 9.35924 -0.88581 19
114 1 11.4493 1.58414 -16.8673 7
115 1 1.38388 18.0868 -2.54146 12
116 1 -11.547 -7.94306 9.9445 13
117 1 -12.0341 -10.6775 7.87954 13
118 1 0.0276429 -8.27499 -14.4103 16
119 1 4.33855 2.87315 -8.65563 24
120 1 11.1341 -9.57589 -0.228234 10
121 1 -8.81072 -13.4383 8.00972 11
122 1 -14.1199 -10.9594 -2.33653 13
123 1 12.868 8.19884 3.84208 14
124 1 10.4868 -2.52841 -10.4003 19
125 1 -19.1137 -6.49316 3.46374 9
126 1 9.50026 11.5742 7.43953 13
127 1 14.6681 8.80311 1.87136 10
128 1 -3.4941 -0.156885 11.2455 14
129 1 -7.77758 14.4274 4.43405 16
130 1 -8.0264 13.7299 -5.40458 18
131 1 -6.69822 -8.90222 -11.0261 18
132 1 7.47639 -10.8217 -9.32517 12
133 1 -8.0185 16.3084 -8.83723 10
134 1 2.98931 -3.50905 13.492 14
135 1 -0.170096 4.74457 -15.8701 16
136 1 -4.09263 9.44278 -6.14716 22
137 1 11.7537 7.39981 -8.14427 17
138 1 -19.0471 4.1825 -5.82159 15
139 1 -11.7891 16.312 -1.54628 18
140 1 13.0332 0.432529 -14.2147 12
141 1 3.54207 -7.51709 1.4545 20
142 1 -8.41228 3.27986 -9.05825 22
143 1 -13.1629 10.929 10.1352 10
144 1 10.7952 14.9125 -6.33794 16
145 1 5.15427 12.1143 -6.70269 20
146 1 -5.65026 13.4559 2.32387 22
147 1 10.4925 10.8374 2.01639 23
148 1 -6.05072 14.3413 -3.444 24
149 1 -4.66376 15.3118 -8.81575 13
150 1 0.968352 10.7825 -13.7587 12
151 1 -12.9424 -4.36009 -4.38597 21
152 1 -21.8898 3.74116 2.28752 5
153 1 -7.85519 -1.58268 -18.2863 6
154 1 0.259997 -4.59198 -12.9809 16
155 1 5.31406 13.9939 6.75828 14
156 1 -2.97874 17.5211 1.27848 13
157 1 -17.7822 -4.21768 -8.67729 13
158 1 -17.6701 9.92379 -1.27522 13
159 1 12.4265 2.72876 -4.22705 18
160 1 -12.3276 5.16679 -10.9542 14
161 1 5.36256 -0.212 14.9776 10
162 1 -0.283331 15.8424 3.1929 21
163 1 -1.88313 13.31 4.51405 20
164 1 1.4169 -2.74587 -18.1378 11
165 1 -2.59169 9.54535 4.86976 20
166 1 -2.00864 14.7769 -7.20775 18
167 1 3.61742 -3.89958 8.93103 17
168 1 -11.2715 -7.42481 0.911929 18
169 1 -2.37415 -14.0632 -14.6289 8
170 1 -15.1595 12.265 -2.73857 12
171 1 -6.47421 -4.6356 4.03345 17
172 1 7.32992 -16.0583 -4.66624 4
173 1 -10.1955 6.08624 -8.11557 23
174 1 -16.1989 4.96449 8.64684 15
175 1 5.43461 13.7532 -4.29715 25
176 1 -8.19343 7.32228 11.2237 20
177 1 -4.4151 -1.54198 15.3271 13
178 1 -16.8569 3.35414 -4.62791 18
179 1 -6.08391 17.1669 4.95806 13
180 1 1.00393 8.92555 6.35367 19
181 1 13.5641 6.08649 9.7143 9
182 1 -14.3091 10.4154 4.26855 19
183 1 9.40556 -7.83104 -8.76088 14
184 1 -6.53331 12.3113 10.8837 14
185 1 -11.2328 1.97184 -11.4604 16
186 1 11.8557 -2.71099 2.20201 15
187 1 -10.9566 -4.56649 0.824321 19
188 1 -16.4707 1.06777 3.99527 15
189 1 -15.1957 -5.07958 2.15008 19
190 1 2.97969 7.9164 11.6297 21
191 1 -19.6084 1.33189 -4.10814 13
192 1 -3.65094 -14.0993 1.58629 17
193 1 2.0491 -6.29147 -8.52172 17
194 1 -3.73148 11.0338 1.87275 20
195 1 2.35007 14.2159 11.7995 16
196 1 -10.42 0.0993976 -2.66804 21
197 1 -13.5077 14.0316 -6.34514 8
198 1 -17.2049 -7.32713 -7.1373 11
199 1 -9.26357 -3.79237 3.87795 19
200 1 -0.635971 -9.29322 8.09918 14
201 1 3.22924 -11.5886 5.52206 9
202 1 -15.4471 7.58903 2.39301 19
203 1 14.1349 8.28012 -1.38141 12
204 1 9.45467 -1.72814 -4.12561 19
205 1 -4.30952 -13.5752 -12.1129 16
206 1 0.456073 -4.03379 9.77327 18
207 1 1.04414 -14.45 2.0171 13
208 1 -8.94198 11.6487 -13.7509 13
209 1 -4.53902 -4.95502 -15.7303 14
210 1 5.94001 3.02692 -10.9752 18
211 1 -1.21494 11.9252 -12.8603 15
212 1 -9.82007 -2.26219 -8.54985 18
213 1 -9.40595 13.8199 -8.7577 14
214 1 -14.8709 -8.02667 8.10326 12
215 1 5.38316 17.7333 -5.36481 15
216 1 -4.39648 5.32024 12.8198 16
217 1 -10.0947 18.4241 -2.86164 13
218 1 9.08245 -2.49791 13.5765 12
219 1 -1.33608 -1.83562 -13.0033 21
220 1 -7.32811 8.48215 -6.9117 20
221 1 -0.990679 5.01128 -13.006 18
222 1 -13.8411 -8.17253 3.19684 20
223 1 -7.38987 9.91501 10.0276 22
224 1 -11.85 13.1889 4.7032 15
225 1 1.50573 -10.5537 -6.98366 21
226 1 -13.0391 -13.3782 0.861767 16
227 1 6.04728 -13.307 -6.84252 12
228 1 10.8866 8.08333 9.37752 12
229 1 9.70231 16.5407 -8.51843 12
230 1 -6.67253 10.7046 -4.04386 19
231 1 -10.4781 6.93833 2.685 20
232 1 -16.8225 10.2715 -6.56871 9
233 1 0.336385 6.04993 7.66228 21
234 1 2.78976 -17.756 -10.9819 5
235 1 8.16783 1.97505 -3.19526 19
236 1 1.6507 8.11948 2.59956 23
237 1 -12.0464 10.8607 7.09324 19
238 1 -15.5469 -4.11949 -2.52271 19
239 1 4.18396 12.9416 -10.2705 16
240 1 3.36259 -3.45252 5.49876 21
241 1 12.2467 13.8571 -9.50882 10
242 1 -0.898883 -9.52983 -3.36762 19
243 1 -7.31112 -3.4907 -15.3789 17
244 1 -6.50486 -8.50694 7.963 14
245 1 10.0022 -2.89208 -6.85146 24
246 1 -9.53555 0.715145 4.27638 19
247 1 4.63696 -13.0068 -2.17687 16
248 1 -13.2468 -8.36747 -10.8666 11
249 1 3.30127 13.7161 -1.86314 20
250 1 -1.73029 -4.00571 -17.6798 10
251 1 1.61257 4.44809 13.4449 18
252 1 13.8657 0.21194 1.69532 14
253 1 8.67933 -0.513166 -14.436 11
254 1 -11.6908 -8.31033 -13.0482 13
255 1 -14.2554 -2.53956 -9.21246 19
256 1 -8.28859 -8.07217 11.145 16
257 1 6.47496 1.80196 11.5922 18
258 1 1.82774 -6.36417 3.88545 22
259 1 -2.60495 -15.0064 -9.4115 19
260 1 -2.63678 -5.41752 11.3306 18
261 1 -3.6335 12.4007 -9.12985 19
262 1 2.74665 9.30677 -0.527918 20
263 1 -8.35619 -7.04853 2.65266 16
264 1 -3.87124 15.8484 3.5392 19
265 1 -7.765 -0.83872 8.78324 18
266 1 -16.0635 -6.78123 -10.1063 15
267 1 -8.83223 -3.9046 -12.1318 18
268 1 -6.71415 9.73259 -15.2626 9
269 1 -5.97117 -9.20431 0.0189123 18
270 1 -3.15309 -7.91953 0.495232 21
271 1 4.99076 -2.48058 -13.3162 19
272 1 16.0143 -1.7725 -8.97088 8
273 1 12.665 2.53165 9.88192 15
274 1 -13.2994 -5.42277 9.33058 13
275 1 -10.9467 -12.2092 -2.49903 15
276 1 7.7066 8.96752 16.5827 6
277 1 -12.5933 -15.173 3.88436 10
278 1 -3.42229 -11.2628 0.494442 22
279 1 -8.58694 19.0146 3.43761 5
280 1 8.02636 2.8848 -16.785 6
281 1 -5.05891 -7.78342 -18.5372 7
282 1 -12.0586 -3.80113 12.7124 11
283 1 -2.17599 11.9267 15.2215 9
284 1 0.0649572 -12.391 -5.28817 21
285 1 -4.42493 -11.3822 -9.96375 16
286 1 -16.8332 3.85728 -8.40318 12
287 1 8.50545 10.8894 5.08861 21
288 1 -12.5697 6.20159 -5.42169 23
289 1 -4.17227 9.83244 -12.4247 17
290 1 4.3848 -11.9143 -8.48579 15
291 1 -10.3594 15.5425 -6.09285 14
292 1 1.48102 12.1553 0.0956982 20
293 1 11.9548 0.583187 5.25664 17
294 1 -16.5606 0.728695 1.10189 18
295 1 -8.90052 -4.5328 12.9751 15
296 1 -10.7044 10.5371 3.73451 21
297 1 -6.21708 0.321272 -16.2888 13
298 1 12.31 13.8353 -3.38388 13
299 1 2.59913 -11.3835 0.246346 14
300 1 -1.17847 -2.28098 15.9877 11
301 1 -19.842 -4.05763 3.41355 9
302 1 -3.31426 -16.0635 -3.51817 12
303 1 -1.33065 9.06749 15.8451 13
304 1 -12.012 2.05963 12.0544 18
305 1 -12.9192 -0.388278 8.38851 18
306 1 -17.007 -4.55382 5.52741 15
307 1 7.30853 -3.35945 -2.38839 20
308 1 -12.6832 -5.09545 2.92208 21
309 1 7.86051 -4.99848 -8.06024 23
310 1 6.09324 -9.26048 -3.5191 20
311 1 3.62965 17.6036 -7.96876 11
312 1 -11.3721 13.1966 -0.713604 22
313 1 8.09715 7.1282 11.4073 11
314 1 -13.7589 2.77308 0.599046 17
315 1 5.5395 -9.60464 -0.722013 18
316 1 -5.36145 12.079 -0.823945 22
317 1 -8.03604 8.29198 4.31804 20
318 1 3.95261 -8.85111 4.2827 18
319 1 10.3411 -4.60299 3.68185 15
320 1 1.83596 5.86925 4.91686 20
321 1 -8.66742 -5.04281 -4.83415 17
322 1 -5.70933 1.01952 15.216 12
323 1 -9.63143 15.9087 -0.16566 18
324 1 10.5501 5.23474 11.4939 13
325 1 -14.2778 14.9852 -2.95593 12
326 1 1.27986 -1.34563 -12.9574 18
327 1 3.64377 -6.78584 -15.0005 11
328 1 -9.43607 2.2222 10.1139 19
329 1 -15.7357 4.52928 0.374549 21
330 1 -9.3363 1.51047 -14.6178 12
331 1 -7.32132 9.58999 -0.800411 19
332 1 6.64463 -4.94949 7.19531 20
333 1 -16.9535 -5.55514 -0.161606 16
334 1 7.61086 -9.62246 4.8088 12
335 1 -10.3029 -7.33148 13.3698 11
336 1 -21.2309 7.30069 1.60589 5
337 1 0.563077 -4.36139 6.66914 18
338 1 2.58244 -13.8899 -7.94999 15
339 1 -7.87008 0.557942 -11.0707 18
340 1 11.5534 -2.51853 -13.1546 14
341 1 -0.652469 20.2848 -0.329651 9
342 1 -13.1927 -1.83115 -2.5244 23
343 1 4.13175 -4.19153 -16.5661 12
344 1 7.82686 5.826 -12.225 14
345 1 -7.86401 -15.207 -4.21906 12
346 1 -18.6784 -4.19024 -5.73633 14
347 1 -7.46634 -9.60592 -2.60464 15
348 1 6.67684 2.64801 15.6552 10
349 1 7.0032 8.63684 -6.08955 22
350 1 -12.6191 -0.230793 -9.68619 20
351 1 5.06031 12.359 0.801094 21
352 1 -19.8348 -1.5976 -6.33855 11
353 1 -10.6496 7.62616 6.1094 17
354 1 -7.84577 13.4969 -0.185314 23
355 1 -7.52395 3.25747 5.08662 18
356 1 4.70662 4.07472 13.0964 17
357 1 8.47233 0.584182 -10.7321 20
358 1 5.95396 -2.64985 12.5195 15
359 1 8.86783 3.04438 -12.2022 14
360 1 -8.20018 -13.0608 -3.01847 17
361 1 -3.04163 -10.7414 -5.39459 18
362 1 -0.136137 9.30468 -0.710225 24
363 1 -14.4932 0.436072 -6.95205 21
364 1 3.56173 -12.5143 -5.25568 22
365 1 11.1853 -2.40046 9.81241 13
366 1 -12.7687 -2.07442 -6.53272 19
367 1 -6.51368 -7.91273 4.44039 15
368 1 -14.1302 -5.80387 5.79082 20
369 1 -3.24201 11.5551 -3.35786 21
370 1 -9.81475 -12.3966 -5.85913 11
371 1 5.07009 10.1662 13.0617 16
372 1 -14.3432 2.7178 -5.38333 22
373 1 -1.50006 14.7328 -11.1456 13
374 1 3.34701 9.23883 5.19069 19
375 1 -14.2066 -6.30742 -0.324212 21
376 1 -5.89967 -13.3672 -8.60028 19
377 1 -18.0636 5.8422 2.56558 16
378 1 -19.3826 3.35462 -2.13065 15
379 1 1.12313 -9.50096 3.258 16
380 1 -5.3028 -13.8194 -4.83501 19
381 1 10.7194 12.4066 4.59261 16
382 1 4.11571 15.9585 -10.0769 16
383 1 -11.008 8.10367 -11.7093 13
384 1 -6.50039 13.246 -7.91188 19
385 1 -9.70545 3.53557 -6.16037 21
386 1 -5.1418 -9.89489 2.68292 21
387 1 6.86798 7.41894 2.1493 20
388 1 -6.67565 12.2142 -11.2368 21
389 1 -2.08025 1.5273 8.05676 18
390 1 -18.4661 3.25477 1.03458 16
391 1 -6.59698 1.57103 9.24247 20
392 1 -3.81474 -7.08368 8.74388 21
393 1 2.54507 -4.73716 -11.4006 19
394 1 -13.0185 5.49644 3.45587 19
395 1 -11.6396 -2.23212 3.04728 22
396 1 -16.6821 8.62745 4.80968 15
397 1 -1.37097 -4.56153 4.23473 21
398 1 -8.98426 6.43083 -11.2643 21
399 1 7.3314 -2.35121 -9.2637 23
400 1 -4.0793 -8.06372 -10.8297 19
401 1 -4.54212 -3.95241 9.82705 17
402 1 -4.53165 7.77726 -14.0349 14
403 1 4.21606 -14.6772 1.99226 9
404 1 -0.732633 11.0796 -9.35559 17
405 1 -17.3893 11.5473 4.5483 9
406 1 -10.5731 -0.805025 11.2307 16
407 1 -14.8443 -6.43729 -12.9856 12
408 1 -12.6847 -3.29678 7.01469 17
409 1 6.1467 -8.13201 7.87082 15
410 1 -0.73156 3.42716 -10.8267 24
411 1 9.25711 -9.07865 2.16491 13
412 1 13.1446 12.3882 -6.15487 11
413 1 -2.9545 3.20248 15.2166 11
414 1 -3.07275 14.0479 -2.41842 17
415 1 3.99598 -3.90014 1.77188 19
416 1 -0.496447 -14.7432 -2.68334 16
417 1 -5.4839 4.85543 10.4175 20
418 1 -6.66614 14.8744 7.28571 11
419 1 -8.58152 -11.1893 -7.98975 12
420 1 5.58531 15.1823 2.71686 15
421 1 2.05682 5.32344 11.1254 20
422 1 -8.20392 5.99297 6.8371 18
423 1 -2.85074 -12.0868 -2.67751 22
424 1 -12.9946 5.29999 7.02022 15
425 1 -10.5433 -4.51606 -7.26297 17
426 1 -6.7493 11.3452 4.34439 18
427 1 -0.430897 -14.0603 -7.93511 19
428 1 -2.57622 -9.79867 -16.0322 11
429 1 -8.40994 -10.4214 2.60251 18
430 1 -8.707 -0.987701 2.46975 21
431 1 8.01478 -0.179724 5.46846 18
432 1 -6.00499 -0.0719234 12.1596 18
433 1 -13.3636 6.28003 -7.93253 16
434 1 6.83344 5.09807 -3.01698 21
435 1 -9.22222 -15.8725 -1.77325 8
436 1 1.41547 17.6422 0.37214 16
437 1 -3.10459 2.94294 -11.9425 20
438 1 -3.16517 7.39902 7.77914 20
439 1 -21.0716 -4.06779 -3.9105 7
440 1 -1.42911 17.0926 -1.58418 21
441 1 4.09372 14.5595 -7.2819 24
442 1 -8.55361 -7.44408 -13.0698 21
443 1 3.28263 2.15414 14.5549 16
444 1 2.04588 -14.552 -11.4009 14
445 1 -3.66431 -2.73178 -10.0953 20
446 1 2.00374 -14.469 -0.763101 17
447 1 -11.8481 15.0083 1.74775 14
448 1 2.16958 9.96911 14.3627 20
449 1 8.95632 8.41819 -8.24625 18
450 1 3.28439 11.3488 -4.1311 19
451 1 -11.0573 8.92511 -5.96838 17
452 1 2.19724 3.32098 -10.5105 20
453 1 -0.767748 -6.82409 -1.1882 21
454 1 -14.7629 0.309587 -3.04002 19
455 1 1.20927 19.4668 3.23731 9
456 1 -6.38422 3.64991 -11.3628 21
457 1 10.0448 5.02854 -4.32795 19
458 1 6.77998 16.2655 -3.07583 18
459 1 6.72073 -7.39262 1.74704 17
460 1 10.6778 8.40005 -5.34917 20
461 1 -4.7701 -3.79245 -13.188 22
462 1 -1.06221 -12.1107 2.83762 18
463 1 -3.82905 -8.94456 5.71732 23
464 1 -2.27169 -3.81031 8.49168 17
465 1 -10.0711 0.992198 -8.5458 17
466 1 -13.7121 -13.2417 6.65025 9
467 1 -1.45497 -11.6262 -8.46416 17
468 1 3.76175 16.5624 6.38307 11
469 1 -6.01522 6.58209 -11.1727 21
470 1 -1.64577 -2.50264 11.5451 15
471 1 -15.8554 6.08408 11.2548 9
472 1 -0.828695 -13.9141 4.89183 11
473 1 -19.0807 -4.20397 -1.69353 13
474 1 9.08348 -4.6343 -5.32947 23
475 1 11.2657 -0.477041 -5.72445 22
476 1 -12.8412 8.38708 -2.96861 18
477 1 -0.229045 -7.45318 -6.94047 17
478 1 2.7432 5.63585 -8.35715 22
479 1 11.6944 -5.93336 -4.97143 18
480 1 -5.62235 2.94386 12.9352 17
481 1 8.9838 11.8044 -5.69464 20
482 1 -7.29462 -1.02019 -13.7171 20
483 1 3.91451 9.99427 -12.1892 13
484 1 -7.34306 0.182995 6.08165 23
485 1 -10.8977 18.5683 0.571121 9
486 1 -7.40623 -9.89031 -16.7388 11
487 1 -14.9716 -4.91632 -6.78789 22
488 1 -5.08207 -12.0018 -14.5957 12
489 1 -5.74849 -13.0234 9.22347 9
490 1 -2.58961 8.52825 -8.94925 19
491 1 14.5755 2.20216 4.43857 10
492 1 11.4558 7.97081 -2.30296 18
493 1 -13.8148 -14.0031 -1.93271 7
494 1 -3.94176 -9.18727 -2.32101 20
495 1 -3.61374 -0.822756 -14.451 19
496 1 -10.0374 6.98661 14.0552 12
497 1 -2.10928 0.194421 -10.6807 21
498 1 7.10927 1.05141 1.9204 22
499 1 1.27177 14.2297 -8.16921 21
500 1 2.47591 -6.40352 -3.22501 18
501 1 12.8007 10.8502 -8.99771 11
502 1 5.82194 13.241 12.5446 11
503 1 -10.9782 -0.934276 5.67575 20
504 1 6.39757 8.73826 4.5453 22
505 1 1.71748 -1.07584 14.4839 15
506 1 3.92684 5.89163 -11.0436 20
507 1 -7.67662 -8.23437 -5.42283 18
508 1 1.14197 0.23046 7.98173 19
509 1 5.47107 8.64873 10.0624 18
510 1 5.09072 8.18127 -8.08975 17
511 1 -4.66025 12.5192 -6.14685 21
512 1 3.79797 15.5139 0.41643 20
513 1 7.2392 -2.22953 8.29954 19
514 1 10.8636 5.31966 -13.686 11
515 1 14.2823 -5.01123 -7.74588 8
516 1 11.7942 10.3104 7.10551 13
517 1 -13.638 -3.38031 -0.237394 21
518 1 -12.8098 12.7375 -10.653 8
519 1 -2.80799 4.79286 8.08366 23
520 1 -15.0319 8.71874 10.1706 10
521 1 -7.1124 9.62412 -12.2423 20
522 1 1.74505 -15.5499 -5.29527 11
523 1 5.66336 -0.0954609 -9.92443 17
524 1 -5.71977 15.7452 -6.4548 15
525 1 -8.54963 -10.2644 -14.0865 11
526 1 -3.72749 -5.2694 6.03399 20
527 1 -17.419 -5.70896 -3.74888 15
528 1 1.58329 14.22 -12.3992 15
529 1 -5.17309 8.93813 11.8863 16
530 1 -17.3923 -0.590341 6.42856 11
531 1 4.43899 8.23157 -3.21445 22
532 1 0.868866 -11.9874 -9.9883 17
533 1 3.53676 -6.23075 6.70053 19
534 1 -11.1898 7.99209 -0.269534 22
535 1 -1.49096 3.56146 12.8862 18
536 1 3.60448 16.5943 -2.67741 18
537 1 8.81704 -7.63598 -3.23182 21
538 1 1.16421 13.9762 5.34447 20
539 1 -1.86751 3.67784 -18.4039 9
540 1 -9.17836 -10.2963 8.87111 13
541 1 -5.09747 0.204083 -10.8878 19
542 1 10.722 5.40279 -16.8684 6
543 1 -1.57729 14.667 7.36169 19
544 1 8.64653 9.95871 -13.5038 9
545 1 -5.04105 -2.24191 -17.0779 13
546 1 -6.03558 -16.0564 -7.48874 11
547 1 -10.1399 -7.48285 -15.8295 12
548 1 8.14489 7.68852 -3.22492 22
549 1 8.3171 5.83759 -6.45911 22
550 1 8.23778 -2.42036 -12.0509 24
551 1 11.9476 7.1564 5.99704 14
552 1 3.53986 -10.584 -2.27529 15
553 1 3.10371 4.77156 -15.754 12
554 1 5.61546 12.1422 4.08829 21
555 1 -10.3142 4.27285 -0.717234 25
556 1 8.82023 9.9393 9.28767 14
557 1 10.2738 10.8775 -10.5222 19
558 1 12.2228 -1.35592 -0.421585 18
559 1 7.31151 14.9441 -6.5683 23
560 1 -0.250038 4.88866 10.6302 20
561 1 12.676 0.353479 8.06104 16
562 1 3.2444 -9.25077 8.03868 14
563 1 10.449 14.11 -0.438014 17
564 1 -0.142462 1.69732 15.1765 13
565 1 12.3416 -1.37199 -8.35529 18
566 1 9.93975 2.39688 6.99373 19
567 1 -2.25877 -4.6565 -12.0343 17
568 1 12.9233 6.03896 -5.14974 13
569 1 10.5628 0.748596 -2.82043 19
570 1 -10.5192 3.93033 14.5543 12
571 1 3.51768 11.3944 10.8448 21
572 1 8.38076 -1.36457 10.9068 20
573 1 4.52274 9.06994 2.00669 21
574 1 -1.05926 11.0183 6.28813 16
575 1 6.93618 2.3161 5.06704 19
576 1 -6.11558 -14.5872 6.47578 14
577 1 -4.33675 16.9269 -3.47403 15
578 1 11.7801 11.0206 -1.29138 20
579 1 5.97191 4.20509 -13.9494 17
580 1 -7.94358 17.4968 -4.71985 14
581 1 -0.859666 -13.1565 -11.7567 20
582 1 5.46021 -7.27736 -11.7564 18
583 1 -13.7726 8.06602 5.53345 18
584 1 -8.3945 8.75597 -9.78622 19
585 1 -9.18747 -15.5464 5.46404 12
586 1 -11.5408 0.100392 -13.4565 11
587 1 -11.6936 0.391906 -5.28537 24
588 1 9.26814 -1.1402 2.76646 20
589 1 13.4663 5.28974 3.08159 14
590 1 -5.41699 -4.60778 13.4408 18
591 1 -16.8505 -1.7311 -7.58547 17
592 1 4.6451 2.04732 -15.3905 15
593 1 1.17452 4.90101 16.2411 11
594 1 6.86883 11.8995 -11.3502 14
595 1 3.82167 -0.082748 12.5594 16
596 1 6.87749 8.96217 -10.9903 17
597 1 12.3639 13.1445 1.37346 12
598 1 3.94996 -8.95608 -9.31476 18
599 1 -14.4881 0.241815 12.2036 10
600 1 8.15246 -0.497519 -1.41206 19
601 1 -3.69693 12.3366 12.2524 15
602 1 6.46891 17.6179 -8.09789 14
603 1 -14.4776 5.25462 -2.77126 23
604 1 8.37351 11.7805 -0.4388 21
605 1 -16.1019 -10.7044 3.25897 15
606 1 15.0749 -2.6642 -0.472195 8
607 1 4.76657 18.1069 2.9619 9
608 1 -2.99692 6.32639 11.0901 19
609 1 -15.4643 -2.42839 -4.86827 21
610 1 -6.77372 -2.65555 -10.718 21
611 1 8.82411 3.88263 13.6355 12
612 1 -7.7498 -2.38499 11.4208 16
613 1 4.10775 7.5859 6.94654 18
614 1 -8.50304 11.9235 -2.45746 19
615 1 6.38206 10.2725 7.24536 21
616 1 4.52344 4.88896 5.61355 17
617 1 5.03103 7.41389 -13.7197 13
618 1 -11.823 2.31057 5.2968 19
619 1 14.2648 1.5186 -9.37514 12
620 1 9.58433 -5.08673 -10.8261 19
621 1 9.62014 8.10347 4.14129 21
622 1 7.67224 10.2397 2.17941 24
623 1 -10.7236 4.70145 10.751 19
624 1 8.73935 7.48458 7.04878 17
625 1 -3.32521 2.45044 10.0989 18
626 1 -0.571119 7.80003 9.45627 17
627 1 -1.83979 -7.39989 -16.987 12
628 1 -7.90661 4.64148 9.32348 23
629 1 3.1375 5.07635 8.31134 18
630 1 -10.1745 -11.6466 5.42726 18
631 1 10.3965 4.70497 1.18044 17
632 1 -2.94557 -10.0791 -12.3553 18
633 1 0.136957 14.4788 -3.24123 17
634 1 8.02435 14.0263 4.99894 14
635 1 3.33058 0.283569 -17.9628 10
636 1 0.356069 15.0362 -0.363298 20
637 1 13.717 10.8571 -3.53349 16
638 1 -15.8067 -11.9682 0.326575 13
639 1 -0.316541 -1.63272 -15.8459 15
640 1 -9.74201 10.5281 0.329359 20
641 1 6.56683 0.899685 -13.2869 19
642 1 7.49778 10.7323 -8.45825 17
643 1 9.54654 16.3735 -1.92213 11
644 1 -8.62676 6.63808 0.0652416 18
645 1 4.86897 6.19872 -5.68007 23
646 1 8.80595 2.82063 10.0253 18
647 1 4.57014 -7.1633 9.72062 14
648 1 -4.9943 -7.16118 11.66 15
649 1 -10.087 11.6782 -10.6923 22
650 1 1.55693 15.595 8.86138 16
651 1 6.82045 -5.81323 -15.954 8
652 1 5.07553 2.1798 9.42828 18
653 1 8.76661 17.5355 -5.25208 12
654 1 5.29622 18.2314 -1.32199 10
655 1 13.7297 -4.57993 -2.71592 13
656 1 6.71789 5.9187 15.177 12
657 1 -13.0662 0.683067 3.50612 19
658 1 0.86709 -12.0647 -2.17813 21
659 1 1.38319 3.02778 -13.3546 20
660 1 -9.49688 13.1026 2.76336 21
661 1 2.94678 11.3182 3.02226 19
662 1 -18.9736 -2.2212 0.204902 16
663 1 -2.96556 8.70451 13.3222 13
664 1 -2.96792 6.27117 -16.3782 10
665 1 -11.1282 8.51306 -8.65182 18
666 1 -9.92157 -9.08129 -2.11683 16
667 1 11.9229 5.17054 -1.39478 15
668 1 -10.1207 7.64969 9.1404 17
669 1 1.49841 3.55214 -18.5006 9
670 1 -1.50606 -8.38733 10.6785 12
671 1 2.22554 14.7147 2.62877 17
672 1 -7.57924 -1.88992 14.5642 13
673 1 -10.0502 -8.89245 -10.2621 14
674 1 -5.38369 -9.17477 -14.1885 22
675 1 -2.6062 -17.2445 -7.03172 9
676 1 2.74333 15.7136 -5.07637 17
677 1 4.86359 -4.43979 -9.26075 22
678 1 -6.78467 11.8925 7.5752 18
679 1 6.11299 -4.9084 -11.4456 20
680 1 4.18473 -16.1263 -2.90282 7
681 1 -1.08249 -7.21144 6.28574 16
682 1 13.8973 0.814409 -6.33956 16
683 1 4.73009 -15.272 -12.8462 5
684 1 -17.4587 -2.02854 3.23743 15
685 1 -6.79286 -15.479 2.11072 13
686 1 -5.76552 -11.4027 -4.32285 22
687 1 -12.7498 3.06302 8.84815 17
688 1 -9.83373 -13.3136 2.88313 17
689 1 13.4465 9.51599 -6.69582 11
690 1 -6.98903 16.2898 1.99153 18
691 1 -17.0957 12.5958 1.07687 11
692 1 7.46624 3.17113 -0.801329 20
693 1 -15.4006 -3.90464 -11.1844 14
694 1 -1.47825 17.0604 -4.5705 13
695 1 13.5221 -0.531437 -11.1792 14
696 1 4.72696 14.9052 9.79881 13
697 1 11.1094 2.26587 -9.53167 17
698 1 -16.1541 1.13091 -9.50537 12
699 1 -10.8202 -7.1457 -7.20641 20
700 1 1.60169 7.93515 16.5012 15
701 1 1.90537 7.65817 -13.6168 17
702 1 13.3515 11.3915 4.38586 10
703 1 -4.48528 -0.774059 8.09534 22
704 1 -3.47819 -16.1812 -0.433423 13
705 1 -6.80159 -12.893 4.37044 19
706 1 -5.81991 -2.97157 6.68627 19
707 1 12.4314 3.83319 5.73343 19
708 1 4.3786 -7.10735 -6.48407 20
709 1 -9.26312 8.81732 -3.60638 18
710 1 6.68199 13.7388 -1.22952 23
711 1 -10.2192 -1.86234 -0.599808 23
712 1 10.1407 7.6021 -11.2588 19
713 1 -5.26281 -13.7165 -1.57765 19
714 1 -4.04194 -12.0783 4.20266 24
715 1 -3.95357 -14.7275 3.99785 14
716 1 3.22421 0.683468 -12.6562 19
717 1 9.98328 15.2478 2.74721 10
718 1 -9.54369 4.16773 -13.2908 14
719 1 0.496281 2.84472 8.41034 17
720 1 -5.72104 4.76882 -13.8986 15
721 1 -13.6113 -3.36134 -13.6353 13
722 1 -8.11323 -8.29755 -8.10085 18
723 1 -1.18479 17.5413 -7.78743 7
724 1 -7.16272 -6.8677 -15.7364 16
725 1 -10.7492 -6.54201 -4.14698 21
726 1 9.55938 13.4381 -8.74073 17
727 1 10.1285 -4.72063 -2.43514 21
728 1 -5.51401 3.63682 7.04633 19
729 1 1.65867 -8.45961 -1.24511 20
730 1 12.2345 -4.90554 0.321714 18
731 1 7.89233 -4.55793 10.7007 14
732 1 -0.420964 10.923 2.33682 19
733 1 -15.3004 2.66044 10.0259 15
734 1 -12.4244 7.90092 11.8955 13
735 1 -6.02274 -9.47314 10.622 14
736 1 8.33323 5.96855 -0.623379 22
737 1 -1.00353 13.9095 13.7679 10
738 1 -20.9047 -1.27418 -2.14568 9
739 1 7.53202 -6.83794 -0.930778 20
740 1 -14.0712 11.8488 -5.09716 15
741 1 -3.13554 -12.3906 6.55186 14
742 1 1.82722 -1.30301 10.8305 17
743 1 -4.50795 12.3724 5.30667 20
744 1 -3.96177 -10.2498 8.93276 16
745 1 -10.1218 -2.19017 -4.97511 22
746 1 7.06457 4.41487 2.30255 23
747 1 -14.7214 -6.875 -4.652 16
748 1 5.32381 7.39245 17.6888 9
749 1 6.87561 16.2649 0.56312 17
750 1 -16.5022 -7.81379 2.34877 14
751 1 -6.79024 -16.8437 -0.897568 9
752 1 7.90287 -7.72955 10.6827 7
753 1 8.85086 -6.4647 6.29259 9
754 1 4.69289 11.2208 -1.53736 20
755 1 -5.43483 -9.95701 -7.75175 21
756 1 -5.90639 1.44787 -13.2468 18
757 1 -11.3869 -0.618454 14.0786 8
758 1 -2.18595 14.0639 1.11384 19
759 1 9.71693 2.61236 3.63345 21
760 1 1.26636 8.54217 -8.42363 17
761 1 -5.76112 7.07456 8.78511 23
762 1 0.983771 12.6786 8.70028 20
763 1 12.8217 3.33815 -14.8452 10
764 1 -9.45825 -13.5633 0.030322 13
765 1 10.1722 0.835188 0.944275 18
766 1 1.05648 0.320235 -10.6577 22
767 1 2.0632 9.42971 9.15969 16
768 1 6.63932 -7.84033 -9.12604 21
769 1 5.91378 5.33281 -8.52633 18
770 1 -4.42431 -7.92041 -5.11868 20
771 1 12.0519 9.39047 -12.679 6
772 1 11.9155 -2.75067 -4.17656 20
773 1 0.369405 -6.01271 12.6281 14
774 1 -3.05671 -8.68788 -8.36343 19
775 1 7.20267 10.6251 -3.98069 22
776 1 -17.4704 9.02019 1.62686 16
777 1 13.4136 3.66902 -7.52866 15
778 1 12.3048 2.42648 2.48492 18
779 1 0.429739 -8.88689 -9.66924 20
780 1 -15.3305 13.9179 3.41338 10
781 1 14.6703 3.29572 7.59453 9
782 1 10.3693 10.7746 -3.31313 18
783 1 0.834634 6.44805 -11.1617 20
784 1 9.81805 -6.08373 0.932462 15
785 1 -12.7491 5.56508 0.158338 21
786 1 11.7173 7.2247 1.07719 18
787 1 -15.9362 -8.97073 -1.90916 10
788 1 -16.1494 9.22173 -3.7035 17
789 1 3.41366 2.56427 6.77967 20
790 1 -11.6649 -2.80564 -10.9204 22
791 1 -15.5421 7.40203 -1.15207 21
792 1 -7.14823 5.74384 -8.38529 22
793 1 9.30772 -5.10899 -13.5963 12
794 1 -13.9496 -8.18204 -7.58315 13
795 1 11.6334 -7.5627 -2.5794 14
796 1 -18.8089 7.63872 -5.31631 9
797 1 -13.9197 -9.69393 0.941337 20
798 1 8.12231 5.65073 4.22493 14
799 1 -11.2093 -11.033 0.378115 17
800 1 8.22574 0.768371 13.8465 13
801 1 9.46589 -3.06219 5.73259 17
802 1 9.30326 -3.25228 0.582442 20
803 1 -17.0714 5.2223 5.82988 15
804 1 -1.26319 10.756 9.57088 15
805 1 3.06503 10.9065 -8.15453 19
806 1 -0.821887 -7.59153 -12.1442 18
807 1 -7.68875 11.0816 2.07104 18
808 1 -14.2719 -3.08675 4.40551 19
809 1 3.06758 9.1509 -5.97336 19
810 1 -4.22606 10.0876 9.29646 17
811 1 16.7869 -0.374137 -5.24899 5
812 1 1.2241 -7.41808 10.355 12
813 1 -7.54668 14.7523 -12.314 9
814 1 -0.958875 9.08444 -11.5005 19
815 1 -1.69535 -0.175192 13.8565 15
816 1 12.9735 1.70196 -0.681326 17
817 1 -2.10676 -6.04708 -9.10066 20
818 1 14.7577 11.4103 -0.46205 9
819 1 -17.625 6.20479 -2.76426 19
820 1 -10.5755 -5.46825 10.9363 16
821 1 0.750871 16.9618 -10.6733 9
822 1 4.70432 -0.573057 9.42664 21
823 1 -1.43477 -13.478 -0.276512 21
824 1 -5.1218 15.3492 -0.539098 19
825 1 -18.5946 3.01808 4.08478 13
826 1 14.1251 -2.13499 -5.60923 17
827 1 -2.76176 -6.95426 -13.9575 22
828 1 -12.7036 8.91646 1.9093 18
829 1 9.30855 8.94614 -0.34971 20
830 1 -11.1642 1.49894 1.82145 18
831 1 9.25484 -2.98993 -15.536 12
832 1 -5.77641 -15.536 -10.416 11
833 1 -3.12019 -13.5823 -6.49529 20
834 1 -3.56376 13.1752 9.31837 16
835 1 11.102 -9.20955 -5.79441 10
836 1 -6.70204 13.2047 -14.8631 8
837 1 10.2915 4.67879 -8.32172 17
838 1 4.66291 5.67596 -0.613045 23
839 1 -1.03185 -16.1857 -0.173713 10
840 1 6.04859 -1.23958 -16.0226 13
841 1 9.66071 2.61743 -5.97562 19
842 1 0.723408 0.9069 -16.4626 19
843 1 -6.80513 -5.33503 9.80159 14
844 1 9.14339 13.8583 -3.01352 20
845 1 7.90829 2.48012 -8.18404 22
846 1 -11.9224 3.71675 -4.30329 21
847 1 -16.9882 8.14281 7.97088 9
848 1 3.513 6.94757 14.6642 18
849 1 -11.5356 -10.1793 3.08356 19
850 1 6.24392 8.67435 -0.394162 20
851 1 -0.64817 -10.4891 5.55265 15
852 1 -0.497194 9.51819 -5.85127 22
853 1 -5.85233 9.21944 6.56736 22
854 1 -9.8515 1.998 7.40086 20
855 1 -12.504 13.1477 8.4464 10
856 1 6.2492 3.37579 -5.80279 22
857 1 -6.9571 -7.21825 14.1802 9
858 1 -2.19342 -8.91376 3.28089 20
859 1 10.6743 5.38232 8.57101 16
860 1 6.34475 -2.88277 -6.44396 22
861 1 2.66816 -8.29441 -12.4029 16
862 1 -14.3191 -0.443812 -12.1784 12
863 1 -3.22415 2.91346 -15.123 19
864 1 3.6321 11.4965 6.80696 16
865 1 -13.0509 -2.51858 9.98379 17
866 1 -9.13452 6.19893 -5.33564 24
867 1 -11.7586 3.43145 -7.88049 22
868 1 8.09683 13.4898 1.56589 20
869 1 -11.7491 -15.5109 7.31919 8
870 1 -1.95535 8.31296 2.0411 21
871 1 5.54173 5.65378 10.8815 14