ITEM: TIMESTEP
5000
ITEM: NUMBER OF ATOMS
5760
ITEM: BOX BOUNDS pp pp pp
-0.0845516823 32.8845516823
-0.1003187424 34.2403187424
0.0279209231 63.5720790769
ITEM: ATOMS id type x y z Coordination
1 1 0.109287 4.8811 0.231608 20
2 1 3.82194 5.68696 0.507648 24
3 1 3.94622 0.540883 2.29278 22
4 1 29.733 4.52847 3.12192 22
5 1 32.5196 12.7559 3.41848 21
6 1 32.6585 2.51294 3.46071 19
7 1 1.54444 31.344 5.89714 22
8 1 30.3049 32.5648 8.60945 23
9 1 31.3735 7.62496 15.076 19
10 1 31.6625 6.60326 9.19496 18
11 1 3.20553 3.34506 15.9752 19
12 1 5.47629 7.60348 19.3251 19
13 1 0.057176 10.8304 0.284987 23
14 1 1.45814 8.56194 0.638476 22
15 1 6.11876 3.76985 2.2651 23
16 1 27.8526 10.3357 3.08782 22
17 1 2.78602 11.8612 8.383 23
18 1 32.3433 11.2915 5.4378 20
19 1 0.78288 5.8352 12.8969 18
20 1 28.0509 3.01081 5.82787 19
21 1 0.429924 11.4378 10.8021 19
22 1 29.4494 12.0952 16.7682 21
23 1 28.8782 10.9397 18.9979 23
24 1 3.24151 10.8936 14.7004 17
25 1 32.9308 17.0224 0.474539 22
26 1 1.40376 13.6928 0.42597 20
27 1 2.21428 12.0704 2.8929 20
28 1 31.5085 15.8388 2.65482 23
29 1 30.8647 20.1455 5.02339 19
30 1 0.167668 13.9093 7.98528 20
31 1 3.43096 9.0288 17.1374 18
32 1 1.67579 15.6073 3.03664 22
33 1 28.5922 24.4366 8.71488 21
34 1 3.30425 16.5206 11.8159 20
35 1 30.3969 13.0525 12.8782 20
36 1 25.2473 16.913 13.251 19
37 1 4.32765 5.98906 3.67755 17
38 1 4.54527 2.48365 63.4065 18
39 1 7.89472 1.01701 3.86956 20
40 1 2.77092 3.59416 2.87676 21
41 1 7.07266 8.32649 8.49883 19
42 1 4.3602 6.44416 8.8168 18
43 1 3.8762 3.63553 9.86037 22
44 1 4.61917 1.85379 5.16363 21
45 1 1.34511 8.72138 9.14399 21
46 1 1.03978 4.63814 8.63723 16
47 1 7.7795 31.8729 12.2531 19
48 1 2.53465 1.11872 10.9394 22
49 1 3.38973 11.0655 63.1058 19
50 1 4.77603 8.0424 0.0377397 20
51 1 3.16566 10.6288 11.4809 24
52 1 6.35043 11.3361 9.18234 23
53 1 2.28059 13.9283 5.74481 21
54 1 2.63439 9.89567 5.79273 21
55 1 3.68799 4.75524 13.1035 19
56 1 28.9044 10.6437 11.5421 19
57 1 2.86223 14.7266 19.2715 21
58 1 31.9535 6.48912 19.9071 18
59 1 6.74032 4.54429 8.20975 22
60 1 3.18182 5.49656 19.7425 16
61 1 3.18677 17.2776 0.588154 21
62 1 4.40858 14.4105 0.465075 20
63 1 5.74674 12.1801 3.91718 19
64 1 6.8901 14.696 5.81711 22
65 1 32.3992 18.8668 3.30241 19
66 1 4.47329 15.3256 3.55592 19
67 1 5.83247 13.2735 13.6364 20
68 1 5.92488 20.4645 6.205 20
69 1 3.08404 22.361 10.7931 22
70 1 7.89656 12.1898 11.8274 21
71 1 3.90055 16.5721 21.002 22
72 1 32.4478 18.1364 13.7543 19
73 1 7.09553 6.53291 0.817581 19
74 1 6.97804 1.26297 1.29225 21
75 1 10.313 0.699818 2.71188 17
76 1 9.32787 1.48188 6.88527 21
77 1 3.6526 7.56348 11.3541 19
78 1 6.36662 9.77786 12.3767 23
79 1 10.786 6.46037 8.42169 17
80 1 7.73756 32.7032 8.81891 18
81 1 8.17684 6.24305 17.0777 21
82 1 9.77954 8.48218 6.48733 23
83 1 11.2825 1.6584 9.6401 21
84 1 4.54 5.88743 17.2675 20
85 1 6.15955 12.5124 0.0630448 21
86 1 7.48279 9.96614 0.823087 20
87 1 5.7751 8.7544 5.01081 23
88 1 4.99575 10.3865 1.72383 17
89 1 4.74755 12.3759 6.54947 20
90 1 9.46503 3.2782 3.75672 19
91 1 8.53052 4.17792 1.21076 17
92 1 3.77166 8.86408 7.78904 19
93 1 4.41871 1.28375 13.5244 21
94 1 6.75574 3.25419 11.7102 21
95 1 10.0024 9.29328 12.7771 22
96 1 7.44437 10.7915 15.1571 19
97 1 6.05745 16.6479 0.993998 22
98 1 8.15577 14.4754 0.135247 19
99 1 11.5288 10.2917 3.04448 20
100 1 6.81075 16.8859 7.59118 19
101 1 4.2111 21.9683 5.10513 21
102 1 7.39871 13.4422 8.66625 23
103 1 5.10666 13.0333 10.5276 23
104 1 2.20516 17.1761 8.90596 20
105 1 12.5964 14.2161 9.88212 21
106 1 3.43193 8.52283 3.09094 20
107 1 9.96081 13.0245 8.32073 21
108 1 6.28484 16.964 14.7289 21
109 1 10.8481 5.1304 63.6021 18
110 1 11.2384 1.73919 63.5622 19
111 1 10.7364 33.1695 4.85323 24
112 1 7.83162 5.88021 3.62038 22
113 1 9.73409 7.92563 0.116564 20
114 1 6.83159 3.16597 5.3644 20
115 1 10.0761 33.4185 10.6375 23
116 1 7.89862 11.8459 6.55396 24
117 1 9.49464 4.68026 6.34986 20
118 1 15.9337 33.8114 16.9729 21
119 1 7.89685 25.4445 8.1008 21
120 1 7.5244 34.0715 14.2726 21
121 1 10.0218 11.7421 0.453509 22
122 1 11.9311 9.82747 63.5033 21
123 1 10.2377 6.52036 3.03384 24
124 1 7.60035 14.7604 3.00199 20
125 1 9.74073 14.7878 5.89878 21
126 1 8.43926 9.46788 4.04194 21
127 1 12.0064 9.67087 8.23091 17
128 1 4.84279 8.33932 14.4702 19
129 1 9.11527 12.094 3.70061 20
130 1 15.4431 8.90422 8.26648 21
131 1 9.40821 10.3677 9.24176 22
132 1 17.9173 10.9022 15.034 21
133 1 9.85618 16.8172 0.371283 18
134 1 11.3834 14.2516 0.212788 21
135 1 13.2333 8.37866 3.45811 20
136 1 10.0978 16.2585 3.43827 17
137 1 16.5088 18.7861 10.8694 22
138 1 21.3673 11.6823 5.34882 23
139 1 14.0998 11.9036 8.26792 22
140 1 0.46831 16.8628 5.59413 20
141 1 12.1763 16.3881 8.33092 20
142 1 11.6926 19.2453 7.15949 22
143 1 15.6145 13.4987 14.248 20
144 1 14.9779 16.7098 7.19756 19
145 1 12.9573 6.64568 0.754955 22
146 1 14.1145 2.86746 0.890824 20
147 1 16.6778 30.3124 5.24011 21
148 1 12.4235 4.36413 2.86107 18
149 1 12.4136 2.15062 4.15438 19
150 1 13.2144 32.9245 10.6402 22
151 1 19.3642 0.12374 10.8388 18
152 1 10.5686 32.7835 13.8579 19
153 1 8.89545 7.68548 10.2884 20
154 1 14.9076 28.4226 13.525 23
155 1 15.5971 33.9414 7.63221 20
156 1 14.8052 7.42222 11.4659 19
157 1 13.7919 11.9032 63.1394 23
158 1 14.6763 9.16344 0.178948 21
159 1 14.9084 6.13699 3.5099 21
160 1 13.3196 8.19145 6.12124 21
161 1 14.129 11.7029 2.51974 22
162 1 14.203 5.23372 6.14014 21
163 1 11.0891 11.0973 6.07665 23
164 1 14.6984 12.0446 11.4418 19
165 1 8.22992 18.9515 6.45261 19
166 1 13.6172 5.23598 9.43837 18
167 1 21.4498 4.59254 12.6897 22
168 1 12.6608 9.56739 10.9529 20
169 1 12.8864 17.5544 0.426832 23
170 1 14.3548 15.6294 63.187 21
171 1 17.0615 11.402 3.58739 23
172 1 13.2932 15.5762 2.26755 21
173 1 11.6347 13.6045 3.50036 20
174 1 20.8835 8.9095 5.16404 23
175 1 11.3469 6.66777 11.9414 21
176 1 13.0439 16.8399 4.98741 21
177 1 11.7345 14.5739 13.8426 18
178 1 18.6134 15.2253 7.42251 19
179 1 17.8502 8.05634 16.5405 21
180 1 14.5817 22.4937 10.1512 23
181 2 6.03608 7.05374 7.74493 22
182 2 7.83824 2.87083 3.02179 22
183 2 32.3409 2.06571 62.8435 23
184 2 4.28613 4.13821 1.71431 20
185 2 7.65112 9.1122 10.6394 19
186 2 32.21 6.78523 12.7742 21
187 2 31.1079 10.6119 7.10391 15
188 2 2.68041 5.69798 4.88458 19
189 2 26.9487 30.8978 20.5982 18
190 2 3.05779 13.3513 20.6822 23
191 2 0.155735 4.92849 23.7663 19
192 2 -0.120568 1.26722 8.5565 23
193 2 1.38294 8.50742 2.67641 21
194 2 1.2193 8.47107 7.23494 20
195 2 1.09703 10.8311 5.24105 20
196 2 5.45848 10.3088 3.96055 19
197 2 2.85258 5.54685 8.00697 19
198 2 29.6433 7.67432 14.5059 24
199 2 5.38283 8.26631 11.5541 17
200 2 1.86303 4.75856 14.0967 20
201 2 5.45953 9.96707 15.2097 18
202 2 4.58842 15.075 13.5807 19
203 2 31.1341 11.1572 20.7624 19
204 2 31.3212 4.49073 15.1716 22
205 2 31.2925 8.3695 8.54429 21
206 2 27.614 17.5182 3.54497 18
207 2 27.7594 12.0488 63.2392 24
208 2 5.74996 16.2743 5.5049 19
209 2 0.394398 13.0786 10.014 22
210 2 2.1674 12.5763 15.2015 22
211 2 2.05012 19.0425 9.30157 23
212 2 2.82191 20.1352 12.4456 21
213 2 32.7926 12.7775 16.6927 20
214 2 30.3862 18.176 9.2858 18
215 2 1.37626 16.0102 18.6903 21
216 2 3.65039 11.841 10.3318 22
217 2 30.7794 29.3047 8.59674 22
218 2 5.80788 0.823381 3.05623 22
219 2 0.845498 3.61242 1.81801 21
220 2 6.50089 3.0999 0.580393 18
221 2 1.15297 4.08414 10.3365 20
222 2 29.4119 4.50524 13.1639 24
223 2 1.97134 7.8546 12.4973 21
224 2 5.74692 32.3616 9.21451 19
225 2 4.67829 31.5237 16.9865 21
226 2 4.7186 6.28588 13.8875 20
227 2 2.17533 8.6979 18.5779 19
228 2 17.3529 -0.0185628 15.664 14
229 2 6.12905 8.53358 1.33756 22
230 2 31.5503 12.9129 5.08267 20
231 2 3.63268 8.47522 5.01157 18
232 2 6.38756 11.9971 5.51473 22
233 2 3.68499 1.59034 9.46946 18
234 2 0.871069 15.854 9.11263 19
235 2 32.4882 14.5088 13.5013 24
236 2 1.27641 10.5632 12.6947 20
237 2 9.59229 2.82195 14.0958 18
238 2 3.90877 11.9202 13.2983 18
239 2 5.1541 14.2086 16.2068 22
240 2 1.91049 1.62557 12.4222 21
241 2 4.19361 14.7245 11.1574 20
242 2 3.72884 12.924 4.70166 20
243 2 4.66701 18.1386 4.28185 21
244 2 5.66974 19.1454 2.12757 21
245 2 7.80543 12.6435 14.4433 18
246 2 6.21225 11.4854 11.5009 20
247 2 26.6785 21.1947 7.79428 23
248 2 11.5519 15.4201 4.19518 19
249 2 31.6029 20.5783 6.94906 18
250 2 1.80093 14.2463 12.2133 21
251 2 2.57423 13.3875 17.7842 19
252 2 2.20847 15.8968 14.9702 21
253 2 7.49617 2.86798 7.56836 21
254 2 5.52511 9.61836 8.8173 22
255 2 8.0026 8.00194 62.9719 17
256 2 9.65761 31.6795 63.0792 25
257 2 7.0799 4.84043 9.98429 20
258 2 3.76215 10.5594 7.11343 20
259 2 3.05613 6.74954 2.18123 20
260 2 12.4463 5.63223 7.23306 20
261 2 9.2825 31.3005 13.556 20
262 2 3.88459 1.58308 20.449 17
263 2 7.95824 0.918355 15.6412 20
264 2 5.27544 5.58063 19.2388 19
265 2 8.73344 7.71323 3.38912 20
266 2 2.70355 9.15762 15.4509 20
267 2 4.43859 12.7931 62.6974 19
268 2 8.23396 13.8486 4.60996 18
269 2 8.9052 12.5673 10.0184 22
270 2 3.04679 7.99606 9.0909 20
271 2 7.68021 8.42697 5.33238 18
272 2 32.5312 6.00917 4.48856 18
273 2 7.85849 11.5295 17.637 21
274 2 2.75998 4.90534 17.8396 17
275 2 6.60102 6.9752 15.3723 17
276 2 5.6725 13.1221 8.40616 20
277 2 8.4477 13.6868 7.14228 23
278 2 11.2543 17.7578 4.61004 20
279 2 32.7568 17.9144 7.079 20
280 2 16.7757 9.06112 0.554893 24
281 2 11.3899 13.7785 12.1405 21
282 2 1.96576 19.6379 2.46327 23
283 2 30.924 19.9947 2.81918 20
284 2 6.73572 15.5368 9.31457 18
285 2 10.3927 6.47726 17.5768 20
286 2 7.13341 16.1678 17.6132 21
287 2 7.50154 14.439 12.2532 20
288 2 12.9058 11.3622 11.8547 22
289 2 10.2457 3.52474 2.15507 19
290 2 9.01712 6.38085 6.95135 21
291 2 7.91784 4.85754 5.30149 23
292 2 14.2399 33.7751 8.93986 23
293 2 9.75973 3.37928 11.6492 21
294 2 7.52723 4.25126 13.036 19
295 2 11.0273 11.3715 8.1212 23
296 2 4.89123 4.04517 16.2417 21
297 2 2.69221 1.37775 15.2561 21
298 2 4.906 1.48807 17.3306 18
299 2 11.3925 5.54961 10.1499 18
300 2 14.0552 3.07699 23.4835 20
301 2 13.4663 6.79435 4.90379 17
302 2 5.30999 4.24483 4.8498 21
303 2 9.13198 15.3617 1.80989 21
304 2 11.0322 4.70816 4.47694 21
305 2 14.6644 0.857949 17.3005 21
306 2 10.9253 10.0884 10.7329 21
307 2 9.55647 10.8117 5.05447 21
308 2 12.7354 7.85607 11.7677 20
309 2 14.6539 8.93148 12.9811 20
310 2 9.89784 8.24866 8.77699 17
311 2 5.21088 20.8477 14.1648 19
312 2 16.3222 12.458 15.6225 20
313 2 11.1393 13.1867 6.01072 20
314 2 13.5063 14.0365 8.125 18
315 2 12.48 21.0351 6.09369 21
316 2 16.5874 21.9332 8.66542 21
317 2 6.5972 14.0606 18.3399 19
318 2 16.9182 16.7018 6.62421 19
319 2 10.9032 15.1866 9.71227 18
320 2 13.2858 13.4593 2.93347 21
321 2 8.67957 8.01051 16.2494 17
322 2 13.4733 9.89548 15.3035 23
323 2 13.6065 13.7593 14.6875 22
324 2 10.7331 15.4891 7.35175 19
325 2 13.9237 3.02788 2.7353 21
326 2 9.84246 3.61694 8.16924 19
327 2 13.6011 10.0328 9.25697 19
328 2 16.0407 6.10162 4.98229 21
329 2 12.8077 30.0405 5.04239 21
330 2 13.8168 24.29 10.7505 20
331 2 6.11295 5.98638 2.88567 23
332 2 9.30519 1.18606 10.0476 20
333 2 15.7502 30.5795 16.8089 17
334 2 10.7732 0.134762 12.1311 19
335 2 12.3431 29.5941 15.994 20
336 2 15.7294 1.49434 21.0321 21
337 2 16.9307 3.43866 4.73438 22
338 2 11.8746 9.83052 4.84274 21
339 2 10.4834 12.3689 2.29309 24
340 2 18.7463 6.01767 2.03212 22
341 2 14.4838 5.33456 11.423 19
342 2 13.7763 3.36008 9.62367 20
343 2 8.49273 12.7503 62.8965 22
344 2 19.182 18.8433 5.209 20
345 2 13.8738 6.15839 15.0126 22
346 2 12.4541 16.2214 14.3971 18
347 2 17.2704 9.42796 10.9841 19
348 2 10.7579 3.36344 18.6208 22
349 2 15.1145 8.94674 3.72911 24
350 2 13.3002 14.043 62.7537 21
351 2 18.7062 22.2522 7.3458 18
352 2 9.5467 18.1547 2.30791 20
353 2 18.5975 33.6567 6.90072 20
354 2 15.9477 11.9644 2.42952 23
355 2 15.4282 15.0689 1.39402 21
356 2 18.1843 13.0296 8.77488 17
357 2 16.4618 10.0423 15.4866 19
358 2 10.8597 9.66475 17.5654 16
359 2 16.6336 20.7918 14.9167 22
360 2 15.1886 13.4308 20.0037 22
361 1 26.8352 12.1963 17.1355 25
362 1 1.62933 5.23413 15.9634 16
363 1 6.29406 3.91844 20.0525 20
364 1 29.5769 9.14289 16.6778 20
365 1 32.5816 4.16929 29.6717 21
366 1 0.460789 6.70524 24.7873 23
367 1 3.47817 1.3628 24.4375 19
368 1 30.5644 9.57543 21.2218 21
369 1 28.8253 7.86145 29.3157 23
370 1 3.40345 8.22817 30.2348 23
371 1 31.599 0.956226 29.5427 19
372 1 29.4711 4.1701 29.5009 21
373 1 3.82669 19.4679 10.7836 21
374 1 1.62256 11.6948 17.777 21
375 1 1.33763 5.62406 22.0023 21
376 1 30.6901 11.4474 24.7539 18
377 1 30.5276 12.7927 27.2912 21
378 1 3.7784 11.8486 26.0265 19
379 1 5.3021 2.70874 26.8543 25
380 1 31.7857 4.82491 26.7521 22
381 1 0.397214 9.11333 29.5005 23
382 1 30.7962 10.263 28.8771 23
383 1 9.77806 13.4104 26.3521 20
384 1 1.33863 7.13889 27.5419 23
385 1 32.3797 15.973 18.4558 23
386 1 31.1719 15.8085 12.4415 21
387 1 3.10753 11.9794 22.0799 24
388 1 1.28214 17.1721 15.9522 16
389 1 26.2269 15.8313 25.4265 20
390 1 0.840988 14.0723 21.1513 25
391 1 -0.172083 9.16531 23.0083 24
392 1 3.35487 20.4309 29.0565 24
393 1 4.91235 15.7237 24.8505 21
394 1 26.1997 14.1947 27.8406 21
395 1 9.23789 15.6425 28.8418 21
396 1 5.46473 10.8311 28.7703 20
397 1 6.33019 8.29347 16.5265 21
398 1 3.4781 32.7917 18.8568 21
399 1 1.09042 0.550247 16.3388 18
400 1 1.97039 3.81345 27.3073 21
401 1 4.60882 5.844 27.6142 26
402 1 1.94265 1.32605 20.0661 20
403 1 3.71924 33.7892 21.8057 22
404 1 3.09585 5.56224 25.2866 24
405 1 10.2049 6.27267 26.9181 20
406 1 3.36516 0.112578 27.5529 22
407 1 2.49418 2.14102 29.5884 23
408 1 2.12598 5.64996 30.465 23
409 1 4.12254 15.1015 8.27572 21
410 1 0.600903 10.9026 20.6153 22
411 1 2.57021 8.60162 23.0003 20
412 1 1.10309 12.0844 24.0118 22
413 1 5.27851 7.63031 24.9414 21
414 1 5.19228 3.46809 23.0979 18
415 1 7.93268 4.25807 22.1418 21
416 1 2.93092 9.04935 27.5342 22
417 1 3.78993 13.7783 29.1108 22
418 1 6.66975 13.4429 29.7294 23
419 1 7.66033 6.72679 27.6001 21
420 1 8.53807 10.4705 29.7585 21
421 1 1.30701 19.0982 11.4737 22
422 1 13.9426 15.9504 15.5423 17
423 1 7.85414 12.0891 19.2373 19
424 1 8.63687 14.2792 13.858 18
425 1 31.601 15.8451 23.8437 20
426 1 1.15695 14.7048 23.4761 23
427 1 4.66849 4.11224 29.8564 21
428 1 5.60279 13.1588 24.8913 21
429 1 3.67084 14.2771 22.3489 23
430 1 7.28663 11.6712 27.0539 20
431 1 12.8757 12.901 27.4216 21
432 1 32.3848 15.0778 26.3569 22
433 1 9.8805 12.368 14.36 20
434 1 5.51647 32.4625 15.5727 21
435 1 0.458553 26.7925 20.1131 22
436 1 14.0899 5.79349 19.5012 21
437 1 9.47413 5.9506 19.8773 17
438 1 5.27744 0.83622 19.49 22
439 1 13.5168 2.94651 18.3467 20
440 1 5.00303 32.6657 29.9052 19
441 1 13.4119 5.48463 24.6103 20
442 1 6.99273 5.12059 25.5398 23
443 1 10.4225 3.58859 28.6161 21
444 1 5.58544 0.943309 29.5682 22
445 1 4.74259 10.2089 19.4641 20
446 1 9.52079 7.96811 18.2302 18
447 1 5.97215 3.36018 17.389 18
448 1 11.0121 4.00951 24.3811 20
449 1 6.44467 9.88127 24.3956 23
450 1 9.1738 9.3914 27.1951 20
451 1 11.7719 6.3086 15.5544 22
452 1 8.72088 3.28555 26.0201 22
453 1 10.6067 13.4315 29.931 20
454 1 6.50212 8.8807 27.0429 21
455 1 6.03348 7.92376 29.84 21
456 1 8.5555 6.42257 29.7873 22
457 1 8.06591 15.0928 18.9475 24
458 1 9.21135 16.9829 13.5858 23
459 1 6.10132 15.1373 27.1569 20
460 1 6.95483 13.5715 21.9823 21
461 1 6.3836 11.0261 21.536 20
462 1 12.0541 16.4053 19.8008 20
463 1 10.1473 11.0157 24.8986 21
464 1 11.5884 16.5564 22.425 20
465 1 6.20082 19.6627 28.2059 20
466 1 15.4223 13.6051 25.9055 19
467 1 8.38524 15.2702 25.0371 22
468 1 2.59345 14.8621 26.7424 25
469 1 0.998418 2.40014 14.1765 20
470 1 8.21794 2.92717 15.4775 16
471 1 10.9709 2.43211 15.2189 19
472 1 4.13323 0.218327 15.9542 22
473 1 8.51022 3.4384 18.7871 20
474 1 13.2094 32.7747 24.9329 23
475 1 9.89578 1.81841 22.8354 21
476 1 13.0107 3.42526 26.6387 23
477 1 14.8211 0.842794 29.9737 23
478 1 7.22264 3.86062 29.2397 24
479 1 8.85489 1.12158 28.6607 22
480 1 11.9412 5.86977 28.961 20
481 1 11.0708 12.0607 11.3722 20
482 1 13.0516 12.2849 13.8484 21
483 1 10.0372 10.9649 18.6322 17
484 1 5.77297 12.6269 17.2212 17
485 1 6.33428 8.05621 22.285 16
486 1 11.5505 4.86699 17.9461 21
487 1 10.3246 3.81134 20.9108 21
488 1 15.2398 8.93809 19.4277 20
489 1 14.6987 10.2808 26.9673 18
490 1 8.89973 9.22171 21.413 21
491 1 12.1283 8.9429 26.694 20
492 1 10.6494 8.95896 29.431 19
493 1 9.87153 14.7992 11.2646 19
494 1 10.6406 13.9436 17.6415 17
495 1 1.97656 8.8808 20.3594 22
496 1 13.4627 14.0026 20.5671 24
497 1 6.99388 18.1526 24.4048 23
498 1 8.80628 7.64003 23.9793 22
499 1 8.55253 11.9823 22.7452 21
500 1 7.50241 17.4681 26.7356 18
501 1 9.68514 23.3937 26.9392 19
502 1 7.6563 16.3937 31.9752 23
503 1 15.9501 11.4552 29.3367 23
504 1 4.42235 16.6435 29.1337 26
505 1 13.912 5.00253 13.3549 19
506 1 17.0545 1.85325 16.5167 19
507 1 7.99808 30.8139 15.9585 21
508 1 16.0591 -0.191982 20.0125 20
509 1 12.8769 4.25283 21.8824 22
510 1 14.3088 6.93392 16.8597 21
511 1 11.4669 0.0811363 29.6342 20
512 1 15.4343 8.48716 24.6656 19
513 1 14.9367 6.1327 27.4021 18
514 1 17.8815 1.93994 30.235 23
515 1 15.2621 32.0607 26.9778 23
516 1 14.6619 4.79389 29.8706 21
517 1 12.2539 8.90244 19.4761 19
518 1 8.66012 7.25532 14.3193 20
519 1 9.23784 4.62786 13.4595 17
520 1 11.529 11.072 21.9476 23
521 1 14.9591 10.0128 16.6703 22
522 1 17.7955 5.14503 24.3618 19
523 1 17.0521 5.29481 21.5794 19
524 1 18.1813 8.91654 25.1162 21
525 1 11.0849 16.0993 26.8603 23
526 1 11.9101 8.56357 23.6241 18
527 1 17.795 4.86345 30.4688 19
528 1 14.0338 8.26571 29.1635 22
529 1 17.6582 12.7943 12.532 22
530 1 15.8115 18.8958 13.9884 24
531 1 10.9078 6.50574 22.0167 21
532 1 8.5174 15.3555 16.1954 20
533 1 9.01049 16.1647 21.879 21
534 1 19.7345 23.0861 28.1932 21
535 1 17.0045 17.431 24.9841 18
536 1 15.6288 15.0239 19.0205 20
537 1 9.0164 19.9454 27.1611 20
538 1 17.1309 19.0967 22.0589 18
539 1 17.6686 13.0114 27.1685 20
540 1 12.3244 17.6089 29.3874 21
541 2 1.68132 30.6369 25.2788 19
542 2 4.56348 8.05 23.126 20
543 2 0.366784 3.24633 26.2023 22
544 2 1.04206 10.7132 9.20089 23
545 2 1.02263 2.96866 28.7158 21
546 2 5.81534 2.48696 24.8143 18
547 2 30.9813 6.59466 26.7726 21
548 2 2.19172 1.02253 26.3967 22
549 2 31.4757 0.758373 31.4144 19
550 2 31.0118 3.68417 28.4189 21
551 2 27.6472 1.28856 23.4604 20
552 2 32.7214 3.71831 31.4082 24
553 2 0.970112 12.6094 22.362 20
554 2 0.588876 10.2496 18.7668 20
555 2 29.4198 11.4574 13.5829 22
556 2 4.0334 11.0149 17.7312 20
557 2 32.7913 5.40147 21.0676 20
558 2 29.5263 9.04919 27.9558 23
559 2 1.90542 11.0197 25.7552 22
560 2 4.47945 13.933 26.6209 21
561 2 1.87348 6.63701 32.2541 23
562 2 32.8668 9.81038 31.3227 23
563 2 0.166858 8.43321 27.6862 21
564 2 4.02475 6.01136 29.6511 24
565 2 28.3281 25.314 20.4303 17
566 2 0.363473 19.2436 26.2679 23
567 2 0.486723 19.1744 15.2586 21
568 2 32.2337 17.1255 16.3441 23
569 2 0.702422 13.847 25.1958 23
570 2 3.30418 15.2506 23.7432 25
571 2 4.03157 22.0248 18.6901 21
572 2 6.61657 12.1445 23.1575 22
573 2 0.837766 12.3286 30.8189 20
574 2 31.5728 14.1201 34.5861 21
575 2 32.7623 11.1372 28.2356 22
576 2 2.19156 13.6788 28.1092 21
577 2 2.2727 7.36176 21.3989 19
578 2 4.0284 3.75004 27.7297 24
579 2 0.525821 8.42023 25.2105 21
580 2 0.682422 1.26727 18.1351 20
581 2 5.72028 31.2698 25.3473 20
582 2 8.78769 1.4234 26.541 22
583 2 11.7351 2.17391 25.6164 24
584 2 5.28129 0.827223 27.5516 22
585 2 3.72262 31.8815 31.0186 20
586 2 1.98469 1.45337 31.4516 19
587 2 6.11138 7.07743 26.6163 23
588 2 4.94912 31.1532 28.6505 19
589 2 7.5503 7.69507 18.7182 20
590 2 7.24908 3.7173 27.0131 22
591 2 1.46927 9.63437 22.0768 21
592 2 1.78979 18.7705 17.1637 20
593 2 4.47001 8.62751 28.6449 21
594 2 2.36837 6.67867 23.9031 19
595 2 2.22369 15.6153 20.7917 25
596 2 1.89503 8.03264 29.5199 25
597 2 6.08246 3.71536 30.9772 21
598 2 2.70858 9.80011 31.1739 23
599 2 3.51815 13.665 31.4479 24
600 2 5.22885 7.17534 31.3064 24
601 2 12.2405 17.6695 26.0559 21
602 2 32.0793 17.4763 20.0277 22
603 2 29.4873 14.8029 12.7613 20
604 2 11.5636 7.92939 14.4622 22
605 2 8.02977 19.3117 28.7392 20
606 2 1.44341 19.978 29.4018 17
607 2 3.57157 10.718 20.7393 22
608 2 3.58094 17.0297 25.4472 22
609 2 4.18536 11.1841 33.0032 18
610 2 5.27802 16.6294 31.2161 20
611 2 4.91912 19.5718 30.124 21
612 2 5.31019 14.7339 29.2565 20
613 2 13.4646 0.160763 23.1777 22
614 2 30.7509 4.82748 25.1915 17
615 2 27.9857 10.6839 16.7707 18
616 2 9.05884 0.324105 23.814 18
617 2 3.70406 -0.0677049 29.1603 21
618 2 9.71246 33.3206 28.8937 21
619 2 8.54602 6.37879 26.0283 21
620 2 13.6337 5.2903 17.5975 18
621 2 7.53829 0.272086 32.5304 21
622 2 4.71813 1.11047 31.3777 23
623 2 6.28585 5.84785 28.9309 23
624 2 6.23243 5.5904 23.9879 23
625 2 9.21965 3.71205 23.7961 24
626 2 11.1552 9.27585 25.1958 18
627 2 10.8152 15.8164 18.4608 23
628 2 8.04527 4.78378 20.1127 22
629 2 10.2731 13.3827 22.3928 24
630 2 6.93863 11.745 30.3541 20
631 2 5.14933 10.167 25.7211 21
632 2 11.1272 5.00853 26.0879 17
633 2 8.03978 6.83708 31.7838 20
634 2 6.2065 9.54267 30.844 21
635 2 12.5047 13.1448 29.4952 21
636 2 8.61581 8.13813 28.8791 20
637 2 15.1744 14.2362 17.5412 17
638 2 8.02966 8.86263 25.3015 21
639 2 29.2687 13.7707 21.2799 20
640 2 3.80283 12.3804 24.0063 21
641 2 7.33252 13.3895 26.2564 21
642 2 7.05376 20.0586 23.3464 20
643 2 1.08331 15.9708 27.1558 22
644 2 4.5381 16.2607 18.9852 21
645 2 9.88733 11.7083 30.4513 16
646 2 7.08306 14.3899 31.5082 21
647 2 11.3386 12.9481 25.5367 21
648 2 5.92914 17.5504 28.1466 20
649 2 11.0891 32.9428 8.80293 20
650 2 3.48905 11.411 28.5503 25
651 2 13.5252 8.64589 17.7593 20
652 2 7.88157 4.24445 17.0802 22
653 2 7.63703 1.95878 29.6409 21
654 2 11.0305 10.5736 28.4048 23
655 2 11.0906 5.27957 13.228 17
656 2 9.20683 11.2942 26.3635 17
657 2 11.2694 0.832035 31.7478 22
658 2 9.0718 3.49899 31.6818 22
659 2 11.3334 7.5529 28.0904 22
660 2 11.1721 33.8448 26.272 20
661 2 17.5805 10.968 21.081 22
662 2 14.6035 4.83987 25.9962 20
663 2 5.97777 8.97775 20.6249 16
664 2 12.6752 3.23938 16.2633 19
665 2 8.32048 11.6036 21.0283 19
666 2 13.3728 7.28395 24.0611 19
667 2 6.38904 16.4818 25.7794 19
668 2 15.9134 7.67401 23.1498 19
669 2 11.3276 6.23258 31.3318 23
670 2 9.91258 9.2356 31.2734 23
671 2 9.20395 13.9081 28.173 23
672 2 18.6453 14.3301 28.1624 17
673 2 5.39293 14.4784 21.5106 25
674 2 10.0419 15.9185 23.5797 22
675 2 7.77652 17.3542 22.659 23
676 2 5.84028 11.8356 19.9251 20
677 2 16.7911 4.94275 19.6808 21
678 2 13.7215 14.195 24.9252 19
679 2 8.59084 18.8253 25.3456 21
680 2 12.7856 15.1711 22.5848 22
681 2 12.2859 12.077 32.0457 22
682 2 10.4215 14.488 31.6123 21
683 2 11.1311 15.9531 28.9567 20
684 2 14.2845 10.3228 28.9093 20
685 2 15.5806 4.08947 17.7201 20
686 2 12.1251 5.24255 23.3016 19
687 2 12.774 0.597676 10.5051 20
688 2 17.0484 31.737 20.5848 19
689 2 13.1183 28.7765 27.2545 24
690 2 16.6052 5.44916 28.3464 20
691 2 9.70215 7.78677 20.1351 18
692 2 16.1957 4.804 23.1535 22
693 2 14.838 0.820899 31.9546 22
694 2 13.0956 3.31759 31.4588 22
695 2 14.6953 31.0683 28.6161 24
696 2 9.29166 4.88893 28.6971 22
697 2 9.12507 7.02366 12.3381 21
698 2 13.4953 7.49932 20.2147 23
699 2 12.8394 10.3689 23.613 19
700 2 17.4918 7.86652 14.6565 20
701 2 15.2178 2.80112 29.5028 23
702 2 13.7361 6.3067 28.8167 17
703 2 18.5431 10.8673 24.401 23
704 2 14.437 8.44144 26.7858 17
705 2 14.9805 6.40581 31.1355 24
706 2 13.2368 8.84541 32.1266 21
707 2 12.4462 3.91267 28.3048 21
708 2 7.41004 10.3815 28.2271 23
709 2 13.0279 12.3728 21.7166 21
710 2 10.5711 16.5458 20.7391 21
711 2 9.59208 12.6734 18.8434 19
712 2 13.9663 11.5813 17.009 21
713 2 10.7372 10.0354 20.1936 23
714 2 12.4986 18.6901 20.2244 21
715 2 8.86409 19.8622 20.3541 23
716 2 16.3232 14.2076 27.4833 19
717 2 15.4038 11.6784 31.8211 20
718 2 13.3477 15.1182 31.7238 20
719 2 13.0695 20.6662 27.7146 19
720 2 14.2971 12.1087 26.3877 22
721 1 0.332504 22.2367 0.646134 23
722 1 1.80993 19.4307 0.522541 21
723 1 3.67577 16.7866 5.64991 22
724 1 2.83197 18.4592 3.59201 20
725 1 0.952431 23.0445 5.75158 21
726 1 30.7353 22.5296 7.38415 17
727 1 32.3773 16.8763 9.85583 19
728 1 27.2565 19.3712 7.09994 17
729 1 26.1909 23.3017 7.55898 20
730 1 3.59381 17.8553 18.2918 22
731 1 3.0902 21.2972 14.232 19
732 1 29.8857 23.9113 11.6649 21
733 1 31.8245 28.4443 63.4531 21
734 1 1.25925 25.5275 0.0991175 21
735 1 2.04757 23.4558 2.84364 19
736 1 1.57804 25.5469 4.68646 21
737 1 0.159946 27.6304 1.87874 19
738 1 29.1229 26.9461 9.52048 23
739 1 7.16208 20.2 13.4645 20
740 1 26.4844 29.161 7.75305 22
741 1 31.2838 28.2245 17.5755 23
742 1 25.4179 25.9472 9.19806 21
743 1 27.1866 24.0194 14.3887 21
744 1 28.5633 28.9473 17.3821 17
745 1 32.1492 -0.0603457 1.47193 23
746 1 0.587573 30.731 0.0186939 21
747 1 2.49342 29.808 2.80075 20
748 1 32.6601 31.6688 2.76761 23
749 1 32.2712 33.1585 5.31332 18
750 1 0.452511 28.2592 4.78266 24
751 1 1.51168 27.0996 7.79665 22
752 1 2.09898 29.8449 10.2349 20
753 1 1.40092 0.00869988 13.5684 21
754 1 30.2903 27.2915 6.02339 20
755 1 27.5297 31.1879 10.9912 23
756 1 1.70689 32.4429 10.6553 21
757 1 3.82362 21.756 1.54681 20
758 1 4.89762 19.3731 0.282796 22
759 1 6.47523 20.7638 2.944 21
760 1 1.18402 20.9344 4.10964 21
761 1 1.26045 24.8517 9.73926 20
762 1 5.93083 20.8096 9.61806 22
763 1 4.42 22.3556 16.8571 21
764 1 -0.203933 21.964 8.54855 19
765 1 31.676 25.1038 9.55691 22
766 1 4.25994 18.7207 13.4768 20
767 1 6.28172 17.4246 19.0081 22
768 1 32.7939 22.0273 10.9408 21
769 1 2.43577 28.4712 0.233778 21
770 1 4.51619 25.3323 0.354545 22
771 1 2.93482 24.4164 7.61077 21
772 1 3.24853 26.6876 2.5121 19
773 1 3.79662 28.3727 5.33161 20
774 1 0.889541 19.3459 6.60731 21
775 1 9.18823 22.6589 2.33544 23
776 1 4.40563 27.727 11.3615 24
777 1 6.56759 30.7048 8.63438 21
778 1 4.11292 33.2222 8.65012 23
779 1 6.57807 24.1025 18.0022 19
780 1 3.12255 29.9752 12.778 21
781 1 2.10075 33.212 0.357621 24
782 1 4.14273 30.8347 0.447274 21
783 1 5.49416 29.8514 2.89713 21
784 1 3.22358 32.0814 3.63904 20
785 1 31.8791 28.071 7.97384 24
786 1 8.3069 29.0416 1.99099 21
787 1 32.737 30.5665 8.97533 22
788 1 1.93486 1.21777 8.12105 20
789 1 6.18602 0.150272 11.4446 21
790 1 7.47916 1.3419 9.18162 23
791 1 0.964553 27.1954 10.7312 22
792 1 31.1883 1.28773 13.1392 23
793 1 6.34188 22.3666 0.383417 22
794 1 8.23156 20.4734 0.290472 21
795 1 12.0416 21.3156 3.68072 18
796 1 10.234 19.472 3.69092 18
797 1 2.54561 21.0425 8.09755 19
798 1 7.74356 18.62 2.14856 20
799 1 7.03621 18.6824 11.1926 19
800 1 5.26435 24.8671 9.67274 20
801 1 3.76096 24.8953 11.833 20
802 1 9.27007 15.7486 8.65298 17
803 1 3.83617 18.934 7.30177 21
804 1 0.583301 20.705 13.525 19
805 1 6.63376 27.8594 0.0516467 22
806 1 7.69588 25.1974 0.612942 20
807 1 9.46551 25.6511 2.9049 20
808 1 6.69228 27.0545 3.2 21
809 1 3.3728 29.4621 7.75663 21
810 1 6.06836 23.2006 6.81012 20
811 1 10.6707 17.921 11.1361 21
812 1 6.78388 33.4121 6.13221 23
813 1 5.02958 30.8475 5.90744 22
814 1 5.10649 27.7076 9.22019 18
815 1 6.47067 17.8879 4.40513 19
816 1 0.566564 24.2549 12.5605 24
817 1 5.97277 33.0893 0.346807 18
818 1 7.89376 31.2422 63.4759 21
819 1 9.68253 28.0831 7.99779 17
820 1 6.35209 32.6706 2.95406 23
821 1 8.78355 3.9124 10.0719 21
822 1 8.4684 30.2532 5.4497 21
823 1 5.51215 25.7361 5.95496 21
824 1 7.24209 6.48775 6.03579 18
825 1 31.2572 2.89177 8.294 20
826 1 1.77342 27.337 13.5956 22
827 1 9.4727 33.9371 16.4831 17
828 1 -0.19061 32.0426 13.6762 20
829 1 9.99872 22.8769 62.8066 19
830 1 11.0694 19.8011 0.805061 22
831 1 16.3677 27.753 3.93102 24
832 1 5.99975 23.6441 3.34998 24
833 1 8.23667 22.5395 4.80473 22
834 1 18.8009 16.9007 5.46941 23
835 1 6.0045 21.831 12.2833 22
836 1 10.7553 21.7767 6.476 18
837 1 8.06971 21.1145 16.9088 23
838 1 14.983 14.364 9.65101 17
839 1 11.5464 16.2705 16.5195 22
840 1 5.25113 15.1063 17.8309 19
841 1 10.0211 28.5765 63.1948 21
842 1 11.4975 25.6492 0.519109 21
843 1 15.1976 22.4688 4.13313 21
844 1 11.067 28.2114 2.65992 25
845 1 11.7556 26.5474 5.42919 22
846 1 8.7568 27.6608 5.48392 22
847 1 8.84832 24.781 5.65094 23
848 1 13.7124 28.8154 5.95061 21
849 1 6.56403 28.7198 13.6072 20
850 1 11.3078 25.1714 14.4922 22
851 1 4.00256 15.8034 15.4495 19
852 1 6.26505 25.6446 12.736 21
853 1 9.51536 34.139 63.3962 20
854 1 11.3758 31.4251 0.316045 23
855 1 11.2823 31.052 2.91249 20
856 1 9.0171 32.3684 3.16027 19
857 1 11.206 29.7834 6.08918 21
858 1 11.5682 30.9707 8.83016 18
859 1 9.46184 21.1709 11.2073 23
860 1 7.90819 27.3194 10.9144 20
861 1 8.95358 23.0604 14.1314 23
862 1 9.2033 26.3542 13.8327 20
863 1 8.78699 24.0592 16.6311 24
864 1 4.89319 1.78542 7.97536 22
865 1 13.2614 22.0443 1.42504 18
866 1 14.9267 20.0819 0.26632 23
867 1 14.3287 18.9208 3.03909 21
868 1 13.6188 26.9258 2.47251 18
869 1 12.0797 24.6378 3.41057 21
870 1 18.2282 14.0127 4.63251 22
871 1 9.26746 18.7743 8.8068 20
872 1 10.4283 23.7244 8.62716 17
873 1 7.49507 25.6613 21.2213 21
874 1 11.9693 21.0219 9.44806 24
875 1 16.0458 25.2457 13.8168 26
876 1 16.2018 21.3282 17.0406 21
877 1 12.8626 28.7405 0.23515 22
878 1 14.6243 25.1109 0.473628 18
879 1 17.5383 24.3418 3.99985 18
880 1 14.2838 30.204 2.77027 23
881 1 13.678 31.6908 5.37711 20
882 1 14.7401 25.7339 5.90667 20
883 1 13.7272 22.0736 7.00765 18
884 1 12.0731 22.4395 12.416 23
885 1 12.3541 27.8201 14.4422 25
886 1 10.9487 25.0623 11.274 18
887 1 9.62344 26.5264 19.1931 21
888 1 10.8038 30.3112 14.9799 17
889 1 13.2492 33.9175 63.3881 17
890 1 15.0321 30.6576 63.2826 19
891 1 14.2919 30.2958 8.07934 23
892 1 12.9002 33.6061 2.60638 19
893 1 19.1652 6.63586 4.59371 25
894 1 12.3481 -0.159386 7.66971 21
895 1 7.67913 23.7209 10.8123 21
896 1 9.4449 30.3092 10.0161 17
897 1 10.8494 27.9589 11.4075 19
898 1 13.9395 27.8829 10.9718 23
899 1 18.5138 26.7165 8.55358 20
900 1 12.0192 30.4946 12.1859 22
901 2 3.44451 16.1066 1.9478 23
902 2 30.0011 16.8797 2.06575 21
903 2 2.97442 22.0725 3.74373 18
904 2 1.14906 21.6105 9.51708 20
905 2 1.65619 17.2776 11.8013 21
906 2 25.9829 21.0028 11.5042 20
907 2 32.4586 19.941 11.9779 23
908 2 31.1752 17.1513 4.41088 20
909 2 2.30368 27.1087 15.4166 21
910 2 8.06405 21.6423 12.4446 22
911 2 30.1666 22.2476 12.0354 19