ITEM: TIMESTEP
0
ITEM: NUMBER OF ATOMS
500
ITEM: BOX BOUNDS pp pp pp
-30.0 30.0
-30.0 30.0
-30.0 30.0
ITEM: ATOMS id type x y z Coordination
1 1 -3.5164 1.88411 -6.77664 11
2 1 7.41647 -2.93224 5.83643 13
3 1 0.216792 4.62379 11.5726 6
4 1 7.88512 -1.43561 2.6469 13
5 1 -9.31471 1.52842 0.891533 14
6 1 -3.11166 -1.15127 -9.6526 11
7 1 1.82255 -1.17152 8.9918 8
8 1 4.25007 -3.31875 -6.11807 10
9 1 -10.3203 0.535806 -2.25175 15
10 1 1.33228 2.21401 -12.0254 11
11 1 7.40789 -8.57233 -6.53271 4
12 1 8.29119 0.573423 6.01869 13
13 1 1.06126 7.55447 -5.57957 13
14 1 1.14892 6.54853 4.60353 12
15 1 3.38871 5.5243 9.0304 9
16 1 -8.47437 -2.08121 1.40242 12
17 1 -11.662 -1.78483 -0.345309 12
18 1 8.99859 -2.82626 -3.56015 11
19 1 5.6035 -0.907524 9.04878 10
20 1 -7.818 -5.61162 2.20901 10
21 1 -3.68382 -7.61556 -9.71455 7
22 1 4.69733 0.917667 -6.31606 11
23 1 7.42047 -2.21774 -7.16372 12
24 1 8.34143 -8.0728 3.49604 8
25 1 -4.953 9.66201 6.33837 6
26 1 4.9973 0.209968 5.85608 11
27 1 0.682668 10.8744 1.04033 10
28 1 -0.218626 -5.51882 -10.1223 8
29 1 -2.12466 3.80064 9.92758 11
30 1 7.63025 -4.81667 3.20564 13
31 1 -5.85361 8.84492 2.51821 12
32 1 -4.79862 5.68198 1.72523 9
33 1 4.24633 6.77859 -8.30447 9
34 1 7.58385 6.11022 -1.43035 13
35 1 -2.75165 9.95201 -7.77721 7
36 1 -6.8795 4.87228 -8.75159 8
37 1 -3.05484 11.5629 -4.02485 7
38 1 1.76148 9.01402 -2.23098 14
39 1 -10.7083 4.80884 -0.506193 8
40 1 0.232194 8.05164 9.9917 9
41 1 -5.43017 1.14575 -10.4391 7
42 1 -6.9639 -6.08589 5.78215 12
43 1 -6.63425 -1.81212 -4.10532 14
44 1 6.20697 -8.9135 -2.55849 9
45 1 -8.55893 0.201264 4.26735 13
46 1 -9.31881 -0.453018 -5.45069 13
47 1 -0.266915 -11.9585 3.94276 6
48 1 7.05325 4.5819 -6.82276 8
49 1 -8.6215 -4.54055 -9.08495 4
50 1 2.29165 6.09519 -11.9172 6
51 1 2.42284 -8.28281 -1.70359 10
52 1 -0.0970006 12.4253 -1.80368 7
53 1 -11.7937 1.56571 3.44612 9
54 1 2.48723 9.02961 7.13689 12
55 1 3.80763 -1.95314 11.8823 9
56 1 3.1423 -11.1942 -3.82307 6
57 1 10.6321 -0.305364 -8.4564 5
58 1 -4.83183 -7.82108 1.21384 13
59 1 -1.95015 -8.44447 2.01208 13
60 1 4.70655 -4.30832 9.01119 8
61 1 2.69058 -7.30451 6.72051 15
62 1 6.16689 9.91323 1.46041 12
63 1 -8.03226 -8.59255 3.27013 9
64 1 -3.25502 -11.2271 1.89575 9
65 1 -4.98094 -5.74521 -3.99709 11
66 1 2.8429 4.07215 -5.6022 12
67 1 5.10983 -5.83013 -0.0146639 12
68 1 -4.68502 -3.48583 8.13777 7
69 1 -11.6748 0.354763 6.55371 5
70 1 4.35783 -12.5062 1.61733 4
71 1 -3.62298 -5.50048 4.83472 11
72 1 0.524598 2.0851 7.85051 12
73 1 -11.3572 -2.74911 3.69791 5
74 1 -4.11375 11.7754 2.4455 6
75 1 -7.70193 6.60751 4.97935 10
76 1 -3.07063 7.15549 9.78082 7
77 1 -7.791 -4.2492 -5.96888 11
78 1 -7.31782 2.60357 -6.00342 14
79 1 -4.53689 -3.87215 -8.53293 10
80 1 10.0631 -1.2785 8.18289 7
81 1 -2.47998 -4.60122 11.0039 10
82 1 -6.32302 -2.13151 -11.3857 8
83 1 -12.6637 -1.49687 -3.8853 7
84 1 -4.06997 -10.0128 -1.76313 13
85 1 -6.19818 7.07435 8.37039 8
86 1 3.08457 3.19657 6.19821 14
87 1 -4.50239 6.98659 -2.24329 9
88 1 0.654986 -9.41819 -6.36534 7
89 1 0.276588 11.272 4.43665 7
90 1 5.98142 2.65107 -3.61287 10
91 1 -10.904 1.94506 -5.8801 9
92 1 -10.9585 7.12389 -3.41966 5
93 1 -2.96548 -10.7704 -7.66097 4
94 1 5.17547 -10.0531 5.94294 8
95 1 -10.0976 5.26874 -6.86043 8
96 1 -5.50687 1.21201 10.1865 5
97 1 -8.70404 3.08831 6.67447 10
98 1 1.91798 -6.0138 -7.64713 12
99 1 -0.632138 -3.65437 7.54692 10
100 1 -0.960871 -6.66389 8.12813 12
101 1 4.21749 -7.52303 -5.15026 11
102 1 9.01711 3.46003 -0.450394 12
103 1 -5.81594 3.19716 4.24532 14
104 1 3.6407 0.363205 -10.1895 11
105 1 6.12128 -6.58819 6.7118 13
106 1 -6.27594 -8.97439 -4.51571 10
107 1 -7.85707 -3.29787 5.63484 9
108 1 10.9024 2.40715 7.40677 7
109 1 11.4036 5.45294 -1.48927 8
110 1 0.849928 4.4246 -8.85511 11
111 1 -0.320052 7.29188 -8.66097 9
112 1 3.7966 11.2745 -0.205042 12
113 1 4.14034 3.49083 -9.35965 10
114 1 1.837 -9.63846 3.92281 13
115 1 8.79798 -6.70072 0.0952855 12
116 1 0.882459 -10.3686 1.07447 11
117 1 -9.57103 2.17388 -9.02503 8
118 1 12.941 -1.90902 -2.58049 4
119 1 -0.979789 4.26461 -5.55379 14
120 1 -5.54502 8.54225 -5.45463 9
121 1 3.47691 -10.0378 -8.09995 4
122 1 1.75261 -6.67309 1.58909 15
123 1 -8.69653 -4.37749 8.7522 6
124 1 -0.375838 -11.2232 -2.59012 9
125 1 2.73426 -4.00465 -10.3553 10
126 1 3.55938 7.52185 0.251773 11
127 1 5.22431 -9.27982 1.50941 12
128 1 6.22136 -1.09106 -3.63366 12
129 1 -5.94298 -3.65588 -0.804239 13
130 1 -6.22652 -6.81464 -7.5753 9
131 1 -0.117549 -2.35368 12.4999 8
132 1 -1.01947 0.810408 11.1494 10
133 1 6.47843 -2.40323 -10.8459 6
134 1 -8.69284 3.16061 -2.5108 11
135 1 5.83982 9.23178 -2.71789 8
136 1 8.42049 0.785832 -5.69691 13
137 1 -1.53673 1.55318 -10.3162 11
138 1 -9.74544 4.35482 3.15835 11
139 1 1.97067 -5.45701 10.5242 5
140 1 6.73191 2.63517 2.91369 9
141 1 -9.25188 -1.18986 -8.92033 8
142 1 10.8444 -4.31656 1.39104 9
143 1 -0.950155 -7.77037 -1.39722 10
144 1 6.48548 3.32823 7.74577 10
145 1 0.413064 -10.164 8.0809 9
146 1 3.62872 -3.62739 6.26038 11
147 1 10.3254 5.16199 1.71361 10
148 1 6.99254 -3.21487 -0.243388 14
149 1 8.83459 4.80919 5.14664 9
150 1 -1.93711 -6.332 -6.9753 10
151 1 5.31664 6.62014 5.83097 11
152 1 -4.67846 4.2597 -4.0958 12
153 1 -3.57086 6.11891 -7.04761 14
154 1 -2.42347 -0.467695 8.12084 11
155 1 -7.30498 -10.9711 -2.06144 5
156 1 6.9854 6.31003 1.84854 12
157 1 -3.26501 6.07993 5.16445 10
158 1 -7.89049 6.63939 0.59178 10
159 1 8.07512 7.22236 -5.05871 8
160 1 3.47036 1.9058 10.0209 8
161 1 -6.9873 -0.1084 -1.01891 12
162 1 0.191643 -1.23702 -10.4655 13
163 1 -0.0739763 5.24069 7.55632 13
164 1 6.75608 -5.24046 -4.10243 9
165 1 5.02687 12.1241 3.44971 8
166 1 4.26734 -6.88249 3.80538 13
167 1 -1.87964 8.50365 3.39803 10
168 1 6.00834 -5.42998 -8.83065 7
169 1 3.91489 -8.8203 9.31273 6
170 1 1.20939 1.10937 -8.14198 11
171 1 -5.37543 3.73418 7.77874 10
172 1 13.144 -1.06911 2.18748 4
173 1 0.0489776 11.0048 -5.72052 9
174 1 10.4197 4.14935 -5.21029 7
175 1 -3.38802 -0.977512 12.2609 6
176 1 -4.68529 -6.61842 9.09162 7
177 1 -8.23624 9.16041 -1.84951 5
178 1 7.51203 9.14678 4.28313 9
179 1 -10.5678 -6.3872 5.4011 4
180 1 9.91981 -0.838361 -0.818105 10
181 1 -7.40129 -7.24608 -1.31132 12
182 1 10.174 1.51899 2.79455 13
183 1 10.1375 -8.50869 -2.4201 6
184 1 3.01545 8.97769 3.52755 12
185 1 -9.55254 -3.17414 -2.79457 14
186 1 -1.76193 8.0164 -4.05538 10
187 1 3.673 10.4172 -7.1756 8
188 1 -6.21356 -0.632764 -7.73382 16
189 1 3.29677 -1.75325 -12.8634 8
190 1 -2.82385 -8.87514 -4.62691 12
191 1 -0.662983 -8.06323 5.35654 13
192 1 11.7879 -4.92931 -1.78933 7
193 1 -13.3167 1.70722 -1.00532 5
194 1 -3.70018 4.76361 -10.5207 6
195 1 -9.18883 -6.64558 -4.16621 7
196 1 10.9797 -2.35707 4.60091 8
197 1 -3.38567 -4.58547 -12.1748 7
198 1 -9.40916 9.04611 2.58856 7
199 1 -8.56759 -0.669916 8.10298 9
200 1 9.53094 8.44899 0.752916 7
201 1 12.5612 1.89296 -0.377142 11
202 1 -3.19718 -10.1043 7.84574 5
203 1 7.40167 1.17379 -9.19153 10
204 1 4.23023 7.50733 -4.79162 12
205 1 5.42344 10.4878 6.18277 8
206 1 3.55468 11.8637 -3.93217 7
207 1 10.4528 1.49141 -3.05712 10
208 1 -5.56919 -0.0545934 6.15125 9
209 1 9.69396 -5.96658 -5.81404 5
210 1 0.257077 -2.99962 -6.99839 10
211 1 -1.12785 8.84973 6.84453 14
212 1 -2.37145 9.67251 -0.0479223 8
213 1 -4.53042 -8.89087 4.65873 12
214 1 8.05273 -10.6508 -0.221429 7
215 1 -10.3459 -5.44823 0.175534 9
216 1 -8.08765 6.20894 -3.8051 12
217 2 -12.591 -0.843928 4.25453 6
218 2 10.8008 4.98897 4.12486 8
219 2 1.46555 -2.71218 7.23187 10
220 2 -3.54559 -1.91478 -7.56527 10
221 2 -10.6857 2.54426 -1.1549 12
222 2 -2.62251 -8.91193 6.10862 11
223 2 4.06744 2.90272 12.1656 5
224 2 8.12435 0.492262 3.67601 11
225 2 -3.49696 8.52116 8.12021 8
226 2 -2.96169 6.36086 2.97391 12
227 2 6.52389 -7.67799 -4.47531 11
228 2 -3.50298 0.971366 -9.15742 11
229 2 1.89241 -6.17776 -10.2246 6
230 2 -2.34299 -7.01398 0.339744 12
231 2 -4.87417 11.1263 4.61426 6
232 2 9.4813 -3.2065 2.81219 11
233 2 7.73693 8.61305 2.11316 8
234 2 0.316101 9.7072 8.38797 7
235 2 5.48105 9.93749 3.88913 12
236 2 3.12606 8.21965 -6.90905 10
237 2 5.91023 -0.501859 -10.4598 9
238 2 -10.0689 0.341054 -7.51992 10
239 2 0.670937 -7.91879 7.28778 15
240 2 -9.63168 1.81228 3.08672 11
241 2 5.3593 -8.79945 -7.50237 6
242 2 -2.68738 -13.3401 0.922768 4
243 2 5.71311 -1.28981 -5.86806 11
244 2 2.59322 6.73305 7.29242 15
245 2 5.51791 -3.41289 10.8358 7
246 2 -6.93826 -8.40579 5.26735 9
247 2 -1.01134 -10.3464 2.81388 12
248 2 -9.66229 -6.80695 3.30822 10
249 2 -4.01254 -9.86436 0.502836 12
250 2 -6.15138 -8.85404 -2.13638 11
251 2 -5.34837 12.4269 0.571288 4
252 2 3.72726 1.48045 -8.15951 12
253 2 11.0254 7.72426 -2.20286 5
254 2 4.36024 5.62774 -10.7694 7
255 2 -6.82803 4.15519 -4.14295 11
256 2 8.95389 3.32036 1.87956 11
257 2 0.583284 12.6448 2.43078 3
258 2 -6.27007 7.68014 6.1585 9
259 2 1.58232 10.9395 -1.07001 9
260 2 2.31232 12.0598 -6.01925 6
261 2 -0.877885 5.82162 9.61247 11
262 2 2.03249 -3.29834 12.4168 7
263 2 4.6179 -3.45328 -12.0657 5
264 2 0.841465 -10.8636 -4.53412 8
265 2 -0.0911943 -5.04807 -7.68312 10
266 2 -9.56015 -6.75059 -1.67645 7
267 2 10.5568 -6.78492 -1.4478 6
268 2 7.24139 6.39843 4.12687 11
269 2 -1.64343 -0.00794573 -11.919 8
270 2 2.61221 -1.08014 -11.0383 10
271 2 -3.89937 -6.18543 -7.96762 10
272 2 3.91511 -4.5744 -8.12275 9
273 2 8.73384 -0.343735 -7.67537 9
274 2 -6.77039 -4.88783 4.04068 13
275 2 0.284366 -3.52889 -11.0615 10
276 2 2.29232 6.07932 -4.68284 12
277 2 -1.72661 -8.83382 -6.63856 9
278 2 0.416527 2.55354 -9.80609 14
279 2 -1.2123 6.8065 5.84544 10
280 2 -7.38138 -7.56314 1.31446 11
281 2 -6.38182 0.882697 4.18949 11
282 2 -6.60024 6.88124 3.02613 14
283 2 -8.72699 -5.21567 6.84643 9
284 2 -12.5839 -0.138925 -1.90018 9
285 2 5.5702 -8.3447 7.93416 7
286 2 9.01628 1.27504 -1.07419 9
287 2 -0.587862 -1.09396 -8.34644 10
288 2 3.38342 6.79089 4.32945 10
289 2 3.34488 11.071 7.28432 5
290 2 0.662604 -0.348393 13.2531 5
291 2 -7.90597 4.09752 4.58104 11
292 2 -7.52698 -1.90558 -6.23821 12
293 2 2.17673 -2.66376 -6.09491 12
294 2 11.8947 4.03245 0.40263 10
295 2 -12.8419 -2.41381 1.5811 5
296 2 -5.74987 6.83904 -6.94216 10
297 2 3.42196 2.46471 -11.5733 9
298 2 -9.33691 5.14124 1.21249 10
299 2 2.74356 -5.36865 5.11474 14
300 2 1.90383 6.9111 -0.892815 8
301 2 6.54398 -11.1822 -3.36469 6
302 2 0.577325 -11.9612 -0.616379 6
303 2 -7.43882 10.3449 2.94324 9
304 2 0.565517 -7.62241 3.48826 14
305 2 2.95788 -10.6952 2.0733 11
306 2 4.66361 6.33288 10.7892 4
307 2 -2.3369 11.7229 -1.61223 6
308 2 -5.00538 -4.71243 10.1442 7
309 2 -3.74569 -7.1526 3.26253 11
310 2 -2.6347 -2.75638 7.90192 10
311 2 1.05542 6.34418 -10.1196 10
312 2 8.56495 -0.675926 -3.56629 10
313 2 3.50672 -0.392399 10.4041 10
314 2 -7.51565 -2.80451 -1.85388 12
315 2 8.96768 6.37913 0.255453 11
316 2 5.87594 8.5979 7.39811 7
317 2 7.0706 -3.40195 -2.67049 11
318 2 -9.22329 -4.0773 1.35723 14
319 2 1.65012 6.65104 11.1356 7
320 2 6.85301 -0.0552691 11.1543 6
321 2 0.896947 4.50624 -12.863 6
322 2 6.35954 -3.0528 3.75926 12
323 2 2.1876 3.36663 9.03258 14
324 2 6.58639 -6.62112 4.23385 12
325 2 -10.4756 -1.21594 -3.75933 14
326 2 -6.73983 8.0541 -3.17688 8
327 2 -8.48739 3.96537 -7.65042 9
328 2 -2.66088 -7.96208 9.33425 8
329 2 5.81952 12.0791 1.12782 6
330 2 -6.63571 -4.40382 -8.00654 10
331 2 11.33 0.0365233 1.11803 6
332 2 -8.18251 8.73803 0.469707 8
333 2 9.97713 -6.46143 2.53442 8
334 2 -4.84966 -5.59286 6.86795 12
335 2 -6.79923 -6.56748 -5.30385 10
336 2 0.0325726 9.62355 -3.85735 13
337 2 -9.80757 7.89499 4.98294 7
338 2 4.89444 5.75141 1.49732 9
339 2 -0.251356 -4.95534 9.71741 13
340 2 -11.9513 5.16206 4.03571 4
341 2 -2.69526 8.29955 -1.83808 10
342 2 -0.57644 2.75 11.6782 9
343 2 -8.8392 1.46426 -4.22379 12
344 2 5.21601 9.05469 -0.658015 13
345 2 -3.90022 4.91382 9.92942 7
346 2 -0.235191 -0.165283 9.03441 11
347 2 -4.18899 -2.96993 -10.7297 7
348 2 -0.465975 6.01646 -6.82191 13
349 2 -2.07462 -9.49469 -2.66153 10
350 2 -3.53361 4.13627 -6.09029 11
351 2 6.54824 -1.04623 7.21372 9
352 2 0.792215 4.04849 5.77332 12
353 2 10.0999 3.72047 -2.71808 11
354 2 3.56237 -8.80738 5.09372 15
355 2 6.73088 2.26229 -5.92188 11
356 2 4.83312 4.63107 6.66662 10
357 2 -7.36093 2.09708 -0.781095 10
358 2 -5.65526 1.55397 7.81247 13
359 2 -10.0737 -4.62524 -5.00025 8
360 2 0.852593 -8.35099 -0.00806198 13
361 2 -0.670886 8.91644 1.2903 9
362 2 -10.4891 4.06922 7.74408 2
363 2 -9.02232 -1.99338 3.78836 10
364 2 -1.89916 -12.7933 -3.49661 7
365 2 4.79511 1.41367 8.07473 12
366 2 -3.36062 6.31276 -4.18746 13
367 2 -2.6383 6.49554 -9.25255 8
368 2 5.95269 6.4248 -5.86559 9
369 2 2.28953 -7.80699 -6.54968 9
370 2 9.83895 1.00686 8.91249 8
371 2 7.24519 3.78849 9.96568 7
372 2 -0.0297972 9.61494 -7.52714 10
373 2 -5.75274 1.07728 -6.39318 13
374 2 -2.06356 -6.49628 -11.2209 5
375 2 -5.02931 -3.41 -3.63163 14
376 2 -1.45588 10.3619 5.24653 9
377 2 -3.36684 9.6028 -5.55083 11
378 2 -9.21172 7.0793 -5.58513 8
379 2 -7.29233 4.75553 7.82523 10
380 2 2.91032 4.51804 -7.80011 12
381 2 7.36003 -3.50022 -9.06198 7
382 2 -10.0795 5.26179 -2.98331 8
383 2 -2.13634 3.73279 -11.5247 9
384 2 3.35959 -6.22183 -1.39581 11
385 2 5.91163 -4.39711 7.10622 11
386 2 -7.77248 0.425095 10.2179 4
387 2 -2.81781 -6.38826 -4.56408 10
388 2 -9.38399 0.398991 6.35748 10
389 2 8.29088 -6.48326 7.79713 4
390 2 -13.1372 1.64221 1.6046 7
391 2 -3.41256 0.466284 10.4755 9
392 2 1.19903 -11.3473 5.63415 7
393 2 10.8528 1.27592 5.1916 9
394 2 3.57718 -8.97936 -3.44341 9
395 2 -3.82118 9.79258 1.77631 9
396 2 -7.18638 -0.513656 -9.85714 8
397 2 -6.64118 -1.97324 7.30098 9
398 2 3.37483 -6.40768 8.88821 11
399 2 6.27702 4.18256 -1.95357 6
400 2 6.83162 3.32953 -8.98752 6
401 2 9.58613 5.56671 7.67511 6
402 2 -5.56207 5.81736 -0.509029 6
403 2 9.52627 -1.90278 6.20206 10
404 2 4.37935 -5.04775 -4.46654 10
405 2 -5.49431 -5.75749 -1.46538 11
406 2 8.23625 -4.29623 -5.53422 8
407 2 9.00475 -9.36406 1.50882 8
408 2 7.89735 -1.39203 0.416655 13
409 2 7.02693 -5.25622 1.0805 13
410 2 -1.69106 2.97696 7.93162 14
411 2 9.07933 5.46881 -6.31649 5
412 2 -11.194 -3.78858 -1.49902 12
413 2 -9.60847 -0.581916 -0.189963 13
414 2 6.3725 -9.67184 3.40633 11
415 2 3.54167 9.57277 -3.44593 13
416 2 13.022 1.83491 -2.53456 6
417 2 7.64634 7.67808 -2.98736 9
418 2 -1.15214 -5.22221 5.90213 14
419 2 4.08413 -7.21456 1.54198 13
420 2 10.6892 -2.81008 -1.81958 9
421 2 6.05761 -11.1538 0.357977 9
422 2 -4.34173 -10.5327 -5.6491 8
423 2 3.08734 9.8943 1.43667 14
424 2 1.59839 9.62004 5.19485 10
425 2 -5.07391 -11.3726 3.57675 4
426 2 -2.40064 -2.97435 12.3214 5
427 2 -4.34387 4.07341 5.68567 9
428 2 8.46038 2.68384 6.48714 10
429 2 10.4836 1.6312 -5.44339 9
430 2 -5.79228 3.5124 -10.0216 6
431 2 -5.24116 -12.3332 -2.28814 6
432 2 7.4618 -7.85709 -1.1667 12
433 1 -1.88 -2.83171 -3.37645 15
434 2 -1.88 -2.83137 -1.36755 19
435 2 -1.88 -0.93461 -4.0176 13
436 2 -0.24 -3.7797 -4.01759 12
437 1 -5.16 -0.934401 -0.726407 17
438 1 -3.52 -3.77954 -0.726424 15
439 1 -1.88 -0.934401 -0.726407 25
440 1 -0.24 -3.77954 -0.726424 18
441 1 -0.24 -5.67683 1.92362 15
442 1 -1.88 -2.83171 1.92355 19
443 1 -1.88 -0.934401 4.57359 14
444 1 -0.24 -3.77954 4.57358 14
445 2 -5.16 -0.93461 1.2824 15
446 2 -3.52 -3.7797 1.28241 17
447 2 -1.88 -2.83137 3.93245 17
448 2 -1.88 -0.93461 1.2824 25
449 2 -0.24 -3.7797 1.28241 20
450 1 -3.52 0.0131684 -3.37638 17
451 1 -0.24 0.0131684 -3.37638 22
452 1 -1.88 2.85829 -3.37645 18
453 2 -3.52 0.0135641 -1.36761 19
454 2 -3.52 1.9103 -4.01759 14
455 2 -0.24 0.0135641 -1.36761 26
456 2 -1.88 2.85863 -1.36755 18
457 2 -0.24 1.9103 -4.01759 14
458 1 -3.52 1.91046 -0.726424 18
459 1 -3.52 0.0131684 1.92362 18
460 1 -1.88 4.7556 -0.726407 15
461 1 -0.24 1.91046 -0.726424 25
462 1 -0.24 0.0131684 1.92362 26
463 1 -1.88 2.85829 1.92355 18
464 1 -0.24 1.91046 4.57358 16
465 2 -3.52 0.0135641 3.93239 15
466 2 -3.52 1.9103 1.28241 17
467 2 -0.24 0.0135641 3.93239 21
468 2 -1.88 2.85863 3.93245 17
469 2 -1.88 4.75539 1.2824 13
470 2 -0.24 1.9103 1.28241 25
471 1 1.4 -2.83171 -3.37645 18
472 2 1.4 -2.83137 -1.36755 20
473 2 1.4 -0.93461 -4.0176 15
474 2 4.68 -2.83137 -1.36755 17
475 1 1.4 -0.934401 -0.726407 26
476 1 3.04 -3.77954 -0.726424 16
477 1 1.4 -2.83171 1.92355 21
478 1 1.4 -0.934401 4.57359 16
479 1 4.68 -0.934401 -0.726407 18
480 1 4.68 -2.83171 1.92355 17
481 2 1.4 -2.83137 3.93245 18
482 2 1.4 -0.93461 1.2824 26
483 2 3.04 -3.7797 1.28241 18
484 2 4.68 -0.93461 1.2824 18
485 1 3.04 0.0131684 -3.37638 20
486 1 1.4 2.85829 -3.37645 17
487 2 3.04 0.0135641 -1.36761 20
488 2 1.4 2.85863 -1.36755 19
489 2 3.04 1.9103 -4.01759 12
490 2 4.68 2.85863 -1.36755 12
491 1 1.4 4.7556 -0.726407 14
492 1 3.04 1.91046 -0.726424 19
493 1 3.04 0.0131684 1.92362 20
494 1 1.4 2.85829 1.92355 19
495 1 3.04 1.91046 4.57358 14
496 1 4.68 2.85829 1.92355 12
497 2 3.04 0.0135641 3.93239 17
498 2 1.4 2.85863 3.93245 17
499 2 1.4 4.75539 1.2824 16
500 2 3.04 1.9103 1.28241 19
