ITEM: TIMESTEP
4000
ITEM: NUMBER OF ATOMS
500
ITEM: BOX BOUNDS pp pp pp
-30.0 30.0
-30.0 30.0
-30.0 30.0
ITEM: ATOMS id type x y z Coordination
1 1 6.12451 -3.11231 3.50747 22
2 1 -0.0667481 3.74605 10.407 12
3 1 -1.0128 -0.305871 -8.87111 17
4 1 -11.2885 2.3452 -0.0206695 16
5 1 3.78128 2.36291 -10.1079 11
6 1 5.37301 -7.74512 -4.31448 11
7 1 5.83258 2.52399 3.67094 20
8 1 2.87021 5.8827 6.69989 14
9 1 -9.2159 -2.25179 2.17257 20
10 1 10.3324 -0.786804 -6.33335 10
11 1 5.81262 0.829196 8.03164 14
12 1 -7.22632 -2.78818 5.30804 20
13 1 -4.29346 -5.73499 -8.78422 11
14 1 7.39261 0.543896 -5.79348 19
15 1 8.24731 -5.5061 3.45717 11
16 1 -7.48382 7.78313 3.26069 10
17 1 -1.32315 7.51826 5.06764 19
18 1 -1.28501 -4.14593 -10.5571 7
19 1 -3.22285 5.34084 10.4546 11
20 1 -5.60244 5.11718 3.71863 20
21 1 3.27335 7.52722 -7.22169 11
22 1 7.39532 5.64846 -1.42164 18
23 1 -4.63218 6.08643 -8.19855 9
24 1 -6.79836 3.36884 -7.86968 13
25 1 -3.88168 7.86936 -1.5644 17
26 1 -9.11565 3.19035 1.83577 20
27 1 -0.956817 6.90837 10.2142 9
28 1 -5.44359 0.375599 -8.79875 14
29 1 -5.94823 -6.12034 5.00304 17
30 1 5.04608 -4.45102 -5.33983 18
31 1 -10.2269 -0.50009 -5.40851 11
32 1 -1.32259 -9.1025 4.51634 11
33 1 7.78051 8.58262 -2.7755 10
34 1 -7.40839 -4.63099 -8.74347 9
35 1 1.43064 4.71363 -11.0066 7
36 1 0.983819 9.10129 1.74375 16
37 1 -10.9739 0.0624792 2.20307 13
38 1 -0.583846 10.0649 4.37424 9
39 1 4.23823 -1.22597 9.8055 11
40 1 4.33999 -6.52666 -1.20579 22
41 1 7.05238 3.42496 -3.92354 22
42 1 7.25233 0.994543 10.462 6
43 1 0.689166 -6.13507 4.81518 20
44 1 7.78151 7.81157 0.471116 12
45 1 -6.63162 -7.79838 2.26942 13
46 1 -2.23744 -9.71911 -1.13832 14
47 1 -4.04375 0.416652 7.04398 21
48 1 -7.61607 2.31016 7.53579 10
49 1 2.28998 -9.47966 -0.386121 13
50 1 -10.5566 -2.4145 4.82109 11
51 1 -6.15741 8.83179 0.989237 12
52 1 -8.59948 4.87136 5.10473 12
53 1 -0.585714 5.82041 7.45021 21
54 1 -7.90633 -3.28614 -5.69034 16
55 1 -9.89187 1.84862 -3.03304 19
56 1 -4.1011 -3.47043 -6.20057 23
57 1 7.90053 -2.86967 5.9429 10
58 1 -2.44044 -2.59842 6.88962 21
59 1 -5.94369 -2.62696 -10.1597 9
60 1 -9.60256 -2.57732 -3.17228 13
61 1 -5.86808 -6.7108 -1.14587 18
62 1 -3.416 6.26531 7.66967 15
63 1 0.404705 -7.55808 -6.19557 13
64 1 -4.2058 8.10263 3.86689 15
65 1 -11.6639 -0.401621 -2.29865 9
66 1 -11.7131 4.56937 -3.03334 10
67 1 -2.48411 -8.71815 -4.40277 13
68 1 4.73083 -7.20268 4.21821 15
69 1 -9.81566 4.07037 -5.51807 14
70 1 -5.05204 -2.23118 7.78564 16
71 1 -4.76408 3.60736 7.44251 16
72 1 0.729206 -5.85081 -8.3658 14
73 1 -0.38661 -4.74287 7.82645 14
74 1 3.51828 -6.39918 -6.97461 15
75 1 10.0469 1.20865 1.38248 10
76 1 3.04761 -0.242406 -8.56074 21
77 1 6.14165 -5.26327 5.68929 14
78 1 -5.65636 -8.4045 -3.64959 13
79 1 -8.78729 0.0913849 4.78579 19
80 1 8.01218 2.61986 7.26709 10
81 1 8.95403 2.29049 -1.54785 14
82 1 0.468977 2.30707 -8.83799 20
83 1 -1.24357 4.89626 -9.14178 14
84 1 2.26924 8.19542 -0.997046 17
85 1 3.64167 4.76909 -8.94518 14
86 1 1.7428 -8.97932 3.08457 12
87 1 7.76282 -6.4768 -0.290959 13
88 1 -0.107553 -8.36661 0.968677 18
89 1 -8.09547 1.49159 -6.2453 19
90 1 7.66575 -0.266339 -0.615973 19
91 1 -6.502 5.46001 -5.86684 13
92 1 6.09198 -9.14208 -0.917169 11
93 1 -7.39476 -4.86747 7.25001 10
94 1 0.386441 -8.76696 -3.13417 14
95 1 5.2385 -3.49258 -8.12752 12
96 1 4.68443 -8.66687 1.65052 15
97 1 -6.003 -6.03719 -6.18184 16
98 1 0.865799 0.292615 10.0895 11
99 1 -2.02172 2.99573 7.75106 21
100 1 7.99296 -2.55494 -7.5765 11
101 1 5.49186 9.47532 -1.6599 12
102 1 4.97115 5.09678 -6.11397 17
103 1 1.02043 0.238312 -11.1626 10
104 1 -6.72755 2.21467 4.8414 23
105 1 2.16042 -2.78941 9.61211 11
106 1 -8.35258 -1.4509 -8.11141 13
107 1 5.52849 -5.32933 1.75513 22
108 1 2.81418 2.48505 9.26217 12
109 1 2.5138 -5.70771 6.67416 13
110 1 7.64363 3.58091 1.13375 18
111 1 4.29341 3.0099 6.80077 19
112 1 -2.17138 -6.58313 -6.44619 17
113 1 4.3031 5.31498 4.29522 20
114 1 -8.03956 4.60982 -2.93496 21
115 1 -5.59173 -9.8213 -0.50395 11
116 1 -7.5489 6.05101 0.228202 18
117 1 5.20973 6.71492 -3.77721 20
118 1 6.17863 -0.0568735 5.23727 18
119 1 0.888507 -2.65376 -9.13222 18
120 1 4.12787 8.76103 1.29943 15
121 1 7.70821 -5.13088 -5.85441 12
122 1 4.38655 -2.69058 6.73979 18
123 1 -4.63831 2.01874 9.61286 10
124 1 9.21863 2.64637 3.91425 12
125 1 -2.80026 8.28293 -5.33865 10
126 1 8.54292 5.7573 -4.62173 9
127 1 -2.49029 -0.869535 9.77755 10
128 1 -3.99879 -5.13339 7.67523 16
129 1 -6.59628 7.63398 -2.25901 14
130 1 5.90129 7.87954 3.52486 12
131 1 -8.69264 -5.1736 3.8294 15
132 1 7.32134 -2.64087 0.582325 16
133 1 -2.90474 -8.14167 1.43041 17
134 1 7.52827 4.89121 4.48612 13
135 1 7.47752 -5.60055 -2.99905 14
136 1 2.36333 7.96229 4.46268 18
137 1 -9.0988 -0.204869 -0.614806 20
138 1 -0.358039 7.26483 -6.65634 13
139 1 -5.86297 -0.785328 -5.96539 22
140 1 6.25156 0.155475 -8.92989 11
141 1 -3.93304 -11.4398 -3.16893 9
142 1 -2.68958 -6.38744 4.30199 21
143 1 6.97489 -2.26192 -3.42677 21
144 1 -11.1539 2.4961 3.90248 8
145 1 -3.92541 3.17867 -8.62949 12
146 1 -7.59745 -5.45149 -3.02429 15
147 1 8.13899 -0.663734 3.15964 13
148 1 -3.06742 -2.59784 -8.98443 16
149 1 -9.67205 7.37992 -3.77805 9
150 1 -7.6235 -0.99548 7.11867 14
151 1 6.11457 5.86234 1.45894 21
152 1 9.55361 -0.351152 -3.08109 13
153 1 -1.2281 -7.2129 7.05836 11
154 1 5.68155 2.18381 -7.40906 14
155 1 4.2464 9.1405 -4.44169 11
156 1 1.02243 8.2648 7.70059 9
157 1 0.455059 8.77194 -3.58806 15
158 1 9.86814 2.47487 -4.94351 10
159 1 10.0146 -3.12021 -4.67611 10
160 1 -6.37844 6.84823 6.1769 11
161 1 -2.75861 8.86269 1.47609 15
162 1 -4.13186 -8.60446 4.63808 9
163 1 7.71938 -8.10755 2.08574 11
164 1 -7.60117 -5.3635 1.15073 13
165 1 -10.3027 5.25425 -1.02694 13
166 2 -11.5571 -1.56431 3.30878 9
167 2 7.6143 3.37932 3.05797 17
168 2 -10.9541 0.839702 -1.20578 15
169 2 -2.39369 -7.9456 5.70154 13
170 2 7.56861 -1.39829 4.81309 14
171 2 -2.11497 6.07636 6.3708 19
172 2 6.76036 -6.30989 -4.68203 11
173 2 -4.59824 -1.29325 -9.40117 16
174 2 0.541778 -4.56674 -9.69554 11
175 2 -7.19307 7.4246 1.52607 14
176 2 7.3584 -2.28142 -1.37785 17
177 2 7.85027 5.6607 0.754449 15
178 2 -2.39539 9.09408 3.78159 14
179 2 6.28706 8.26779 1.65552 11
180 2 4.45737 8.44357 -6.18469 11
181 2 5.85751 0.285297 -6.94633 17
182 2 -7.15615 0.0493517 -7.42411 18
183 2 0.491839 -6.35869 6.82967 14
184 2 -11.364 2.09871 1.88986 12
185 2 5.39618 -8.3092 -2.50251 13
186 2 -3.74961 -9.44381 0.248123 15
187 2 0.0901752 7.15693 8.70997 14
188 2 5.90097 -0.181604 9.89094 8
189 2 -5.72236 -7.69736 3.99682 14
190 2 -1.5408 -8.19371 -0.172301 16
191 2 -8.0828 -6.60207 2.64975 11
192 2 -1.51433 -9.52872 -2.79607 14
193 2 -5.98558 -8.52093 -1.83507 14
194 2 -2.39221 8.63356 -0.698738 13
195 2 8.13994 6.5819 -3.04757 13
196 2 4.32593 6.04299 -7.54246 11
197 2 9.12972 2.51264 0.597517 13
198 2 -4.5205 8.01954 1.64669 17
199 2 -7.32648 6.10803 4.42897 13
200 2 0.527695 8.32758 -1.7923 15
201 2 -0.840475 7.79931 -4.92105 17
202 2 -2.73814 6.80652 9.36894 10
203 2 2.3549 -0.969869 10.182 13
204 2 6.68933 -1.70033 -8.73431 11
205 2 0.756772 -6.89686 -4.29463 19
206 2 -7.41651 -5.38449 -0.879617 16
207 2 5.57129 -3.4336 -3.64518 19
208 2 6.14476 5.78415 3.28087 18
209 2 1.72995 -1.1149 -9.72739 14
210 2 3.94327 -1.89945 -7.45511 18
211 2 -3.8629 -5.58265 -6.84222 17
212 2 3.81169 -4.68446 -7.5012 13
213 2 9.27816 0.858932 -5.86577 11
214 2 -1.15061 -2.26895 -9.7229 14
215 2 -0.391107 -5.59701 -6.9301 18
216 2 2.19542 1.28868 -9.85224 16
217 2 -5.95865 -6.54877 0.9372 18
218 2 -7.03878 6.00788 -1.83733 21
219 2 -7.6793 -4.91495 5.38193 14
220 2 -10.929 -1.37225 -3.75948 10
221 2 4.33853 -6.12923 6.19435 13
222 2 -0.525094 8.9623 5.97786 11
223 2 -0.550705 -0.820714 9.46101 13
224 2 -7.65021 3.51491 5.97211 15
225 2 -8.99613 -1.82813 -6.26966 13
226 2 9.50383 0.304195 -1.20837 12
227 2 -9.27795 -0.258637 1.45945 19
228 2 -8.03077 4.97922 -4.92176 16
229 2 5.24098 1.63652 -9.12268 13
230 2 -8.21879 2.79441 -2.43158 23
231 2 8.5608 -4.4718 -4.29704 13
232 2 1.31387 -8.36408 -1.6387 15
233 2 -8.30148 8.17681 -3.07344 8
234 2 1.60067 -9.15167 1.33141 13
235 2 2.18696 7.80921 6.30677 13
236 2 -3.40573 7.97485 -3.60858 13
237 2 -3.95564 -3.56568 6.5747 21
238 2 0.10979 3.96314 -10.0247 11
239 2 3.703 -2.5195 8.46044 15
240 2 7.50823 3.54571 -1.3001 19
241 2 3.93626 8.23939 3.24187 14
242 2 -8.11162 -3.47246 1.29916 18
243 2 -1.19056 5.11247 10.8016 10
244 2 7.31907 1.87811 8.88281 8
245 2 3.22571 4.16069 -10.7406 9
246 2 1.1 2.31573 10.043 11
247 2 5.82052 -5.23202 3.71447 19
248 2 -8.98998 0.874849 -4.58827 19
249 2 -5.51391 5.15515 -4.28884 19
250 2 -8.40933 3.27357 -6.91217 13
251 2 -2.24659 -5.79914 7.96555 11
252 2 3.93818 9.02279 -0.712268 14
253 2 -7.25869 -4.75984 -6.80281 14
254 2 7.54358 -0.787581 1.38368 16
255 2 -10.0971 5.62139 -2.88431 13
256 2 7.58171 -6.12412 1.73536 15
257 2 -5.74807 -5.81171 7.04986 12
258 2 -6.02773 -6.51201 -4.0582 14
259 2 -3.49594 6.93105 -6.89827 15
260 2 -8.92018 4.68786 0.30406 17
261 2 0.827516 -3.48666 8.65149 13
262 2 -9.90973 3.9549 4.09589 9
263 2 -0.669049 4.049 8.53215 17
264 2 -6.48978 2.21168 -5.28194 22
265 2 7.16745 8.64477 -1.00267 13
266 2 -3.50709 3.69568 9.11115 16
267 2 -5.60227 -4.56439 -9.54172 11
268 2 -2.60695 -6.69067 -4.44106 22
269 2 4.38255 -0.875901 5.86027 22
270 2 9.41451 1.71477 -3.41551 13
271 2 3.48571 -8.44094 3.61779 13
272 2 0.983075 5.01608 6.25116 23
273 2 -8.5128 0.686883 6.99544 10
274 2 -5.92585 -2.75293 -5.6672 20
275 2 -5.93246 2.25361 8.22188 13
276 2 -9.57622 -3.57542 3.66427 14
277 2 -1.29012 -8.2074 -5.95203 13
278 2 3.94904 0.885472 8.50485 17
279 2 -3.0712 4.87831 -9.33732 10
280 2 5.935 8.87934 -3.42481 11
281 2 1.92063 -7.53324 -7.29911 9
282 2 9.18531 0.927333 2.98208 13
283 2 6.80905 1.22928 6.49154 15
284 2 -0.59105 5.43416 -7.25556 16
285 2 -2.73234 -4.53388 -9.42967 15
286 2 -5.90256 7.92335 4.67742 11
287 2 -5.97793 5.03358 -7.72203 14
288 2 -10.7686 3.175 -3.88912 14
289 2 -5.21934 5.51303 7.04737 16
290 2 1.55805 6.83406 -6.64829 14
291 2 6.56191 -3.98431 -6.59827 14
292 2 -11.649 3.84611 -1.18867 11
293 2 -0.370614 0.991944 -10.1554 11
294 2 6.00254 -3.47567 6.28065 13
295 2 -6.99253 -3.0071 7.28368 14
296 2 -8.80519 -1.57182 5.40736 16
297 2 4.55164 -6.8398 0.75564 23
298 2 -10.3272 0.780806 4.06302 15
299 2 -3.4687 0.662839 8.95294 16
300 2 0.179593 -8.05672 3.89427 17
301 2 8.49606 3.6916 5.74395 10
302 2 3.97997 -6.45232 -5.06781 16
303 2 -5.59622 8.46358 -0.887178 16
304 2 -7.63353 -2.74861 -9.13065 11
305 2 -5.55062 -1.13063 6.13377 22
306 2 2.41269 -3.86625 6.06041 21
307 2 4.12861 3.29283 -7.46438 18
308 2 5.13388 4.14994 5.51944 15
309 2 7.93371 -4.76912 5.08406 8
310 2 9.3309 -2.4604 -6.48797 12
311 2 7.14586 -8.30987 0.281622 12
312 2 6.5804 5.62357 -5.23567 14
313 2 -8.09405 -3.90164 -3.69759 14
314 2 -8.99383 -1.97455 -1.37558 15
315 2 5.99783 -8.01629 3.09887 13
316 2 2.50334 8.34486 -3.99994 16
317 2 10.5743 -1.43114 -4.38613 10
318 2 5.49594 6.01838 -2.02919 22
319 2 7.19209 -0.364193 -4.25889 22
320 2 4.27029 -9.26922 -0.195028 11
321 2 -4.17766 -9.71517 -4.10951 11
322 2 2.23781 7.88825 1.35773 18
323 2 1.02727 9.45952 3.69678 13
324 2 -2.78006 -8.37661 3.32671 15
325 2 -3.71595 -2.191 9.3388 11
326 2 2.98637 4.00453 7.77964 12
327 2 8.76353 3.95687 -4.53925 12
328 2 -5.35177 2.14199 -8.28849 14
329 2 -4.54721 -11.3706 -1.39248 8
330 2 6.4486 -5.57395 -1.27775 20
331 1 -4.23129 -5.7351 -3.64294 23
332 1 -5.60466 -2.44134 -3.46972 20
333 1 -2.71439 -0.611693 -6.38172 22
334 1 -0.898181 -3.74482 -6.50911 22
335 1 -0.942014 -5.77229 -3.91629 21
336 1 -2.44165 -2.6844 -3.82674 22
337 2 -4.26239 -5.85799 -1.58235 19
338 2 -5.97587 -2.83728 -1.55313 21
339 2 -5.76866 -0.475845 -4.00525 23
340 2 -4.03417 -3.99572 -4.35495 20
341 2 -2.63242 -2.39517 -6.80656 20
342 2 -0.729438 -5.66345 -1.76682 23
343 2 -2.49731 -2.8353 -1.78366 25
344 2 -2.6376 -0.75581 -4.13984 24
345 2 -0.916474 -3.78443 -4.55492 22
346 1 -7.58961 -3.3429 -0.866371 18
347 1 -5.86658 -0.86971 -0.701588 23
348 1 -4.32365 -3.60716 -0.923535 24
349 1 -4.50633 -5.3842 1.80207 24
350 1 -6.19777 -2.85116 1.90285 22
351 1 -5.60711 -0.627255 4.29327 22
352 1 -4.28089 -3.59234 4.57094 23
353 1 -2.3143 -6.38 -0.97022 21
354 1 -2.37984 -1.02875 -0.88299 22
355 1 -0.722783 -3.53006 -1.13819 23
356 1 -0.733735 -5.58728 1.6619 22
357 1 -2.59016 -2.81036 1.76549 24
358 1 -2.58109 -0.727862 4.47516 23
359 1 -0.809797 -3.52028 4.17079 22
360 2 -4.25312 -5.33387 3.94347 22
361 2 -5.99282 -2.69225 3.80474 24
362 2 -5.91118 -0.840765 1.36977 23
363 2 -4.33188 -3.49096 1.05121 22
364 2 -2.7955 -5.97078 1.04094 21
365 2 -1.12689 -5.35377 3.81977 22
366 2 -2.55245 -2.57339 3.86539 23
367 2 -2.64837 -0.93838 1.2202 21
368 2 -0.984508 -3.65537 0.884432 24
369 2 -2.48944 -0.574848 6.49295 23
370 2 -0.743799 -3.38004 6.30222 22
371 1 -7.36932 0.592614 -3.44109 19
372 1 -4.75648 2.03467 -6.27669 22
373 1 -4.04904 0.224146 -3.46455 24
374 1 -5.80244 3.15119 -3.90836 23
375 1 -4.02491 6.03777 -3.58829 20
376 1 -2.43674 4.99626 -6.27607 23
377 1 -1.25603 2.21636 -6.33186 23
378 1 -0.960464 0.241853 -3.56463 24
379 1 -2.39281 2.98194 -3.82716 22
380 1 -0.981601 6.02579 -3.32499 24
381 2 -7.14376 0.460724 -1.38365 22
382 2 -4.23323 0.291095 -6.84085 21
383 2 -4.10051 -0.0446399 -1.1384 22
384 2 -5.55286 2.89807 -2.00587 24
385 2 -3.99601 2.06155 -4.35177 22
386 2 -3.82722 5.70961 -1.55129 21
387 2 -1.04008 0.319202 -7.04099 17
388 2 -2.82925 3.1949 -6.83279 20
389 2 -0.685417 0.0011516 -1.605 24
390 2 -2.49004 2.97676 -1.59149 23
391 2 -2.45547 4.9035 -4.28203 22
392 2 -0.806155 1.94591 -4.32042 24
393 2 -0.595113 5.97822 -1.52253 23
394 1 -7.26032 2.21585 -0.808569 24
395 1 -7.45058 0.368706 1.88306 22
396 1 -5.45844 4.8736 -1.18189 21
397 1 -4.04579 2.00535 -1.19496 20
398 1 -4.26695 0.359507 1.54098 22
399 1 -5.82999 3.24909 1.59302 20
400 1 -3.98863 2.33087 4.25179 21
401 1 -4.18877 5.89014 1.59673 22
402 1 -2.171 4.92812 -0.840672 22
403 1 -0.893446 2.17224 -0.804826 25
404 1 -1.04073 0.0442827 1.7435 24
405 1 -2.39453 3.11301 1.71013 23
406 1 -2.25433 5.13279 4.69226 21
407 1 -0.8652 2.01161 4.52054 22
408 1 -0.857082 0.212871 7.20289 18
409 1 -0.781031 7.75 -0.51718 18
410 1 -0.608986 6.02703 1.95 23
411 2 -7.19734 0.568821 3.90046 23
412 2 -7.48057 2.20757 1.08596 21
413 2 -4.02396 0.322379 3.74241 23
414 2 -5.63474 3.22789 3.5297 21
415 2 -5.91251 5.00391 0.79799 20
416 2 -4.05714 2.42085 1.10752 23
417 2 -4.66547 2.14506 6.04303 22
418 2 -3.98061 5.84297 3.82553 22
419 2 -0.844963 0.183316 3.87912 23
420 2 -2.21325 3.28376 3.72736 22
421 2 -2.20872 5.15735 1.19789 23
422 2 -0.857848 1.97051 1.25228 21
423 2 -0.894175 2.13502 6.49292 22
424 2 -0.573979 6.39696 3.73648 23
425 2 -0.54062 8.07451 1.49371 18
426 1 0.595094 -0.584151 -6.37248 25
427 1 2.49498 -3.50064 -6.63242 22
428 1 2.32906 -5.84612 -3.91781 21
429 1 0.4753 -2.72617 -3.89662 21
430 1 4.29292 -0.514537 -6.02926 23
431 1 3.92974 -2.51541 -3.71209 21
432 2 0.7438 -2.51348 -7.14804 20
433 2 2.82643 -5.55258 -1.91949 20
434 2 0.888948 -2.84304 -1.89544 25
435 2 0.957013 -0.724648 -4.32062 23
436 2 2.5665 -3.83769 -4.66339 21
437 2 3.96043 -2.57455 -1.59718 22
438 2 4.08384 -0.681224 -3.94668 20
439 1 0.987685 -6.47605 -1.16188 20
440 1 0.849335 -1.05402 -0.851883 22
441 1 2.42831 -3.81904 -1.15071 20
442 1 2.32319 -5.62687 1.62718 25
443 1 0.598455 -2.69465 1.59878 24
444 1 0.844236 -0.660537 4.49991 25
445 1 2.49544 -3.54928 4.16942 21
446 1 1.08572 -2.59891 6.78908 20
447 1 4.18431 -0.801186 -0.923929 23
448 1 5.65088 -3.66083 -1.55081 17
449 1 3.76775 -2.64685 1.67388 22
450 1 4.02564 -0.743322 3.87792 20
451 2 0.936758 -6.51819 0.81069 23
452 2 2.10989 -5.50994 3.47487 23
453 2 1.08198 -2.48007 3.68387 23
454 2 0.752039 -0.784207 0.998496 24
455 2 2.20352 -3.75682 1.01365 22
456 2 0.899813 -0.617522 6.63435 23
457 2 4.20514 -2.7367 3.62594 21
458 2 4.04878 -0.63173 1.33435 21
459 2 5.56614 -3.32664 1.33539 19
460 1 1.13022 4.76808 -6.10805 23
461 1 2.53177 2.13099 -6.30823 24
462 1 2.3882 0.430916 -3.6309 24
463 1 0.721427 2.90908 -3.67034 25
464 1 2.42294 6.39833 -3.57426 22
465 1 5.50466 0.51128 -3.26529 21
466 1 3.71018 3.49512 -3.51433 22
467 2 2.29414 0.297965 -6.84112 22
468 2 0.720645 2.89509 -6.86327 19
469 2 2.37178 0.194931 -1.51573 22
470 2 0.975541 3.13983 -1.4833 22
471 2 0.529535 4.8868 -4.14532 23
472 2 2.3779 2.25703 -4.24946 22
473 2 2.62633 6.30925 -1.61942 21
474 2 5.8568 0.410426 -1.37648 21
475 2 4.09064 3.25196 -1.55068 22
476 2 3.72584 5.36862 -4.5953 23
477 2 5.36867 2.35559 -3.81982 22
478 1 0.949823 5.14053 -0.852432 23
479 1 2.63918 2.16051 -0.925049 23
480 1 2.33303 0.363743 1.71465 23
481 1 0.768352 3.18808 1.68902 22
482 1 0.736373 5.07784 4.34323 22
483 1 2.40273 2.2945 4.24472 24
484 1 2.97757 0.128638 6.67073 20
485 1 0.834449 3.10806 6.70081 19
486 1 2.73284 6.12759 1.84395 24
487 1 4.0076 5.08529 -0.986414 22
488 1 5.79255 2.55496 -0.831069 21
489 1 5.74422 0.373558 1.43127 21
490 1 4.03361 3.50778 1.53735 23
491 2 2.33513 0.273467 3.57465 23
492 2 0.851883 3.17807 3.881 23
493 2 0.934791 5.07076 1.04649 25
494 2 2.43187 2.2771 1.17954 23
495 2 2.75984 2.04083 6.32526 19
496 2 2.51304 5.86605 3.8483 22
497 2 5.84446 0.577552 3.46854 21
498 2 4.03467 3.36291 3.51292 22
499 2 4.36512 5.37823 1.10888 24
500 2 5.77608 2.2771 0.996543 22
