ITEM: TIMESTEP
2000
ITEM: NUMBER OF ATOMS
500
ITEM: BOX BOUNDS pp pp pp
-30.0 30.0
-30.0 30.0
-30.0 30.0
ITEM: ATOMS id type x y z Coordination
1 1 -2.59741 1.81778 -5.75913 18
2 1 4.24731 -3.26813 5.85533 17
3 1 -2.47942 4.30226 9.80752 10
4 1 9.11188 -0.979263 3.36643 20
5 1 -8.98475 -0.592182 3.12437 17
6 1 -1.93157 -0.574363 -8.0079 15
7 1 1.806 -0.165805 7.98854 22
8 1 2.59201 -2.95677 -4.7877 12
9 1 -7.77947 -0.834465 0.27167 22
10 1 0.827566 2.82846 -12.3919 7
11 1 4.18504 -5.61275 -4.78742 13
12 1 7.10523 0.150154 6.15484 16
13 1 0.571418 6.0158 -4.47411 19
14 1 1.3189 6.38339 5.50728 20
15 1 3.09398 5.18496 10.0421 9
16 1 -7.88339 -3.10741 3.32306 19
17 1 -10.2635 -1.96948 1.15597 14
18 1 6.77105 -2.23852 -2.17204 15
19 1 5.23066 0.27788 8.22004 16
20 1 -7.79776 -6.27673 3.84581 16
21 1 -2.41844 -3.94078 -7.23713 19
22 1 4.04308 -0.298013 -6.09489 16
23 1 6.55593 -1.82057 -5.57006 16
24 1 4.8841 -8.0749 3.14955 17
25 1 -4.2437 6.54278 4.74574 11
26 1 3.75436 -0.0277777 5.15591 19
27 1 1.62299 9.62413 0.924841 13
28 1 -0.218191 -3.68815 -9.95496 10
29 1 -3.64173 0.965879 9.16552 15
30 1 6.71699 -3.52881 3.35314 19
31 1 -3.96442 9.16426 1.61805 12
32 1 -5.23672 1.92382 2.88188 15
33 1 2.05172 6.14705 -7.13483 13
34 1 7.15962 5.86689 -0.659022 16
35 1 -1.96025 10.7433 -2.87325 10
36 1 2.21699 -4.53251 -1.9437 13
37 1 -6.51353 2.8675 -8.95922 11
38 1 -1.61447 3.68113 -3.40454 21
39 1 -3.8708 8.50175 -1.66681 15
40 1 1.51445 7.74467 -1.68011 17
41 1 -8.56436 2.24451 2.65941 16
42 1 0.203068 6.31974 8.47031 12
43 1 -3.6761 1.82916 -9.98529 12
44 1 -6.62729 -4.36973 6.19365 17
45 1 -1.88703 -1.25648 4.43217 17
46 1 -4.97065 -1.02521 -1.05516 18
47 1 5.72735 -8.7167 -1.58941 13
48 1 -9.94189 -2.65196 6.34716 10
49 1 -8.55294 -1.78224 -4.49244 13
50 1 0.367984 -10.08 3.94925 12
51 1 7.3309 3.6224 -5.61051 18
52 1 -5.14833 -3.47669 1.35137 19
53 1 -6.33319 -4.16261 -10.0792 8
54 1 0.6783 5.97273 -10.6312 10
55 1 0.0789864 5.32293 3.0439 18
56 1 -4.39009 0.0588505 5.48718 15
57 1 -7.53443 -1.03854 6.1026 18
58 1 1.94097 -7.07017 -0.599274 18
59 1 -1.26425 9.36605 0.373727 16
60 1 -12.914 1.28011 4.9118 6
61 1 2.25791 8.65658 7.17561 11
62 1 3.34247 -1.15348 10.5788 12
63 1 2.4352 -9.67754 -1.99145 12
64 1 8.69686 0.875353 -5.56223 10
65 1 -4.67704 -6.78864 3.55352 20
66 1 -1.71719 -7.60313 4.18708 18
67 1 5.73073 -2.40919 8.89015 13
68 1 3.26374 -7.90552 8.95724 11
69 1 7.52625 9.03501 0.163207 11
70 1 -7.18099 -8.99859 3.97239 10
71 1 -2.94643 -8.80969 2.1279 16
72 1 -3.68084 -3.91295 -0.886451 24
73 1 0.851704 -5.83306 8.16872 16
74 1 -5.14186 -3.42232 -3.71077 18
75 1 3.9698 2.69912 -5.27651 16
76 1 4.27043 -4.18353 0.470278 16
77 1 -3.54847 -2.74884 6.59874 15
78 1 -9.71401 0.829923 5.88101 17
79 1 3.20561 -10.0495 1.18301 17
80 1 -2.15309 -4.55564 3.90439 20
81 1 1.64844 3.76169 7.60236 20
82 1 -11.7562 0.994371 1.88121 10
83 1 -1.80518 7.53056 3.47399 17
84 1 -7.45897 5.53518 5.16612 15
85 1 -2.80786 5.97956 7.28974 14
86 1 -8.5629 -3.18895 -7.35644 10
87 1 3.61842 -2.69373 3.49609 19
88 1 -5.3723 3.2212 -3.8528 19
89 1 -5.86293 -3.85182 -6.79012 16
90 1 10.4963 0.441491 5.75176 8
91 1 -3.67411 3.07419 -0.109003 16
92 1 0.577574 -2.65247 9.99407 16
93 1 -4.62099 -1.28743 -8.80197 17
94 1 -10.4503 -1.69513 -1.3451 11
95 1 -3.3637 -6.90357 -0.0838097 20
96 1 -1.97258 -3.13839 -3.38774 19
97 1 -5.66963 4.83129 8.23386 14
98 1 3.73461 2.4212 6.02488 18
99 1 -3.6824 5.53966 -1.86785 18
100 1 1.71121 -6.88535 -5.20861 13
101 1 1.02424 8.76338 4.177 17
102 1 5.22918 3.84178 -2.4553 22
103 1 -7.83305 1.54927 -4.99892 16
104 1 -8.54453 3.98514 -4.18022 12
105 1 -3.91164 -9.22684 -4.41039 10
106 1 4.93914 -7.83252 6.13242 14
107 1 -6.2338 4.31053 -6.2666 17
108 1 -5.86069 -0.911821 10.233 7
109 1 -8.7272 3.88826 8.04018 11
110 1 -0.270967 -6.08299 -8.04431 12
111 1 -0.997416 -3.78842 6.77476 21
112 1 -0.0657483 -7.74031 10.117 9
113 1 4.40486 -7.02674 0.201203 23
114 1 7.93819 2.75327 0.578359 17
115 1 -7.09901 2.40932 5.24653 20
116 1 4.06564 1.09258 -9.95455 12
117 1 0.301439 5.9923 0.22438 16
118 1 6.7773 -5.17834 5.52918 14
119 1 -2.46538 -9.34644 -1.91949 15
120 1 -4.86948 -3.96092 4.11131 19
121 1 8.32936 4.04571 6.20463 7
122 1 10.5225 6.74256 -1.15546 11
123 1 2.11288 3.96766 -9.77221 14
124 1 -1.45974 6.43959 -7.5099 15
125 1 4.51172 8.50208 -0.236509 13
126 1 4.37364 4.09911 -7.80898 15
127 1 2.27532 -7.82001 5.4336 19
128 1 4.91262 2.88937 1.34488 18
129 1 8.18093 -6.64879 2.44223 13
130 1 -0.422579 -9.09344 0.288127 18
131 1 -9.07269 2.9853 -7.52572 10
132 1 3.11441 5.16709 3.71425 16
133 1 10.7988 -2.26203 1.67225 12
134 1 0.0510032 3.8187 -6.32582 16
135 1 -3.14358 8.78859 -5.16902 9
136 1 3.52427 -9.21799 -4.62915 8
137 1 1.68877 -7.4701 2.39426 22
138 1 -8.86134 -5.11144 8.33603 7
139 1 -0.0376551 -9.65816 -4.18562 11
140 1 1.80475 -4.39972 -7.30979 14
141 1 3.01365 4.81287 0.552352 18
142 1 3.92076 -10.2806 3.74522 13
143 1 4.06706 -0.354348 -2.78224 14
144 1 -5.89849 -5.33814 -1.40767 18
145 1 -3.90115 -6.42067 -6.57656 12
146 1 0.382424 0.39749 11.0616 14
147 1 -0.628879 1.92857 9.11291 14
148 1 5.63869 -1.51201 -8.94162 11
149 1 -6.71695 2.55277 -1.4889 12
150 1 3.98745 6.11781 -1.44651 17
151 1 6.17725 0.866604 -4.18956 21
152 1 -0.377925 2.33408 -9.652 19
153 1 -9.93991 3.60749 5.1811 12
154 1 3.26012 -4.52917 9.70603 11
155 1 5.98957 2.79564e-05 2.84687 19
156 1 -7.79451 0.00145918 -7.676 14
157 1 9.23789 -3.84092 4.63541 10
158 1 -0.657414 -5.71093 1.15627 22
159 1 5.17319 4.25835 7.92963 16
160 1 0.773343 -9.09967 7.60623 11
161 1 1.27583 -1.82143 5.54315 19
162 1 6.54489 0.40692 -0.829622 17
163 1 10.709 4.33259 0.891819 11
164 1 7.58208 -2.42032 1.09779 16
165 1 7.93667 4.94232 2.69359 17
166 1 -1.67615 -6.4446 -4.96545 17
167 1 6.01963 4.60968 4.63962 17
168 1 -3.18985 5.46404 -5.32061 21
169 1 -3.1566 3.92016 -7.6071 19
170 1 -1.23435 -0.570156 7.62629 22
171 1 -0.840203 -6.26435 -2.22751 23
172 1 -5.16788 -9.05252 -0.657736 13
173 1 5.74232 5.92947 1.66338 22
174 1 -4.34656 3.76795 6.0419 17
175 1 -7.31663 4.89617 2.6298 11
176 1 7.08409 6.42006 -3.8669 13
177 1 2.91228 2.02133 9.77315 15
178 1 -3.65466 1.44071 -2.57548 14
179 1 1.31067 -0.405879 -11.2313 10
180 1 -0.843294 4.22879 5.44106 16
181 1 5.66331 -5.24951 -2.13028 16
182 1 4.81916 10.1941 2.13615 9
183 1 3.63278 -5.4085 3.46031 20
184 1 -1.23763 10.562 3.21039 10
185 1 5.0992 -4.09546 -7.82264 9
186 1 5.22334 -5.52371 8.2165 12
187 1 1.46171 1.23106 -7.82187 16
188 1 -5.79174 3.19376 10.4177 10
189 1 10.8232 1.2847 2.31193 11
190 1 1.07408 9.39283 -4.38382 11
191 1 0.373911 1.13031 5.31288 17
192 1 9.78683 5.00633 -4.31471 10
193 1 -2.25214 -1.52439 10.4431 11
194 1 -2.19721 -4.69933 9.29351 12
195 1 -6.08067 6.62705 -0.389923 12
196 1 6.75364 8.3434 3.34458 11
197 1 -7.24676 -7.43456 6.35634 13
198 1 9.20247 0.230346 -0.0232173 15
199 1 -6.3688 -6.69109 1.00056 14
200 1 8.19323 2.01437 4.44982 18
201 1 8.02145 -7.56758 -0.572806 11
202 1 1.80485 4.1344 -2.68475 19
203 1 4.19156 8.08467 5.11208 14
204 1 -8.1361 -3.07217 -1.75166 18
205 1 -1.65734 7.40283 -2.64349 22
206 1 3.79543 9.20681 -6.36352 7
207 1 -5.11405 1.24936 -6.82638 21
208 1 2.52385 -2.54448 -9.8574 11
209 1 -3.46131 -6.3699 -3.07458 20
210 1 -3.68974 -6.14372 6.64731 21
211 1 8.78963 -4.60357 -0.556864 13
212 1 -9.34292 1.43923 -0.456648 11
213 1 -2.8302 4.83455 -10.1932 9
214 1 -7.72746 -4.76762 -4.47271 11
215 1 8.39092 -1.93279 7.1409 10
216 1 -3.71386 -4.89081 -9.36967 13
217 1 -5.89134 7.11921 2.44199 10
218 1 -9.13717 -1.32494 8.90571 9
219 1 -3.17798 -1.49573 -5.78896 17
220 1 9.70563 7.45874 1.48861 11
221 1 11.7295 4.48773 -2.5612 7
222 1 -2.44648 -9.20109 8.05083 8
223 1 6.45126 1.36622 -7.57673 17
224 1 4.20945 6.02415 -5.11744 20
225 1 5.35142 7.57623 8.29248 6
226 1 3.9084 8.42744 -3.69795 13
227 1 8.86218 2.48633 -2.76587 15
228 1 0.71581 -4.73366 4.50312 18
229 1 -7.03097 1.86838 8.00047 20
230 1 7.77503 -4.50127 -3.7985 8
231 1 -0.0794769 -1.92325 -6.03552 13
232 1 -1.07876 8.26591 6.19476 15
233 1 -2.66067 6.30454 0.960964 18
234 1 -4.32917 -9.14422 5.51893 12
235 1 6.69704 -9.82368 1.74947 10
236 1 -8.22839 -4.20387 0.817236 16
237 1 -6.85435 6.39899 -3.50736 9
238 2 -13.2096 1.27042 3.00873 5
239 2 9.61048 5.56203 1.9104 14
240 2 0.304092 -1.77346 7.36548 19
241 2 -4.8814 -2.95645 -9.58343 11
242 2 -7.40425 1.07956 -0.418377 12
243 2 -3.38881 -7.94814 6.87316 12
244 2 0.994772 1.92083 10.1113 15
245 2 7.34797 -1.72541 2.92285 21
246 2 -2.36512 7.11076 5.39309 17
247 2 -4.95535 2.14689 4.79018 13
248 2 6.03993 -0.478384 -2.53241 13
249 2 6.06 -6.87578 -1.07279 13
250 2 -3.39408 0.0611158 -9.39234 13
251 2 0.955842 -4.75752 -9.03765 12
252 2 -0.95381 -1.52083 -4.20191 14
253 2 -2.03318 -5.26577 -0.450808 20
254 2 -1.03312 9.44518 4.73932 12
255 2 9.96457 -2.87546 3.21576 11
256 2 3.27929 -4.08055 2.04027 18
257 2 8.19195 8.66536 2.1155 11
258 2 0.640776 7.56501 7.09836 16
259 2 5.08124 9.0541 3.76068 11
260 2 3.42527 7.38977 -6.60839 12
261 2 5.26831 0.343776 -8.65223 15
262 2 -7.93982 1.75712 -8.51684 12
263 2 1.43771 -7.6908 8.75667 13
264 2 -8.19139 0.881491 4.15401 17
265 2 3.47026 -7.36567 -4.95036 11
266 2 -3.25304 -9.36072 0.00602579 11
267 2 3.65588 -1.24325 -4.46512 14
268 2 1.54936 5.10543 9.08913 14
269 2 4.24081 -2.76845 10.0144 12
270 2 -6.09333 -8.72841 5.68046 12
271 2 1.89931 -0.0530367 5.5401 18
272 2 -0.862879 -8.97997 2.93097 13
273 2 0.906513 3.10352 -8.0698 17
274 2 0.60496 -5.63463 -1.27545 17
275 2 -8.53985 -7.59685 4.96378 9
276 2 -4.34783 -6.79132 1.70366 21
277 2 -5.47202 -7.25446 -0.646097 16
278 2 -3.95567 7.54139 2.98703 12
279 2 3.12969 1.26667 -6.66805 16
280 2 8.75588 7.28493 -0.488849 14
281 2 1.67944 5.67321 -9.01947 14
282 2 -2.66039 2.14739 -3.89123 16
283 2 -4.87017 4.61439 -4.94024 21
284 2 9.90785 2.67086 1.4342 14
285 2 0.466724 9.96056 2.22715 11
286 2 -4.61621 5.77894 6.61648 11
287 2 1.24899 4.7828 1.30311 17
288 2 0.394496 8.79718 -0.479425 15
289 2 2.86312 9.77639 -4.78592 9
290 2 -2.52002 4.22537 6.26614 16
291 2 -3.48593 -0.396561 3.76781 18
292 2 1.36006 -4.43747 9.87163 15
293 2 4.15066 -3.04455 -9.09735 9
294 2 1.85781 -9.96833 -3.95068 9
295 2 -1.85786 -6.11718 -6.86113 13
296 2 -6.35118 -4.42481 0.266316 21
297 2 8.79311 -6.27682 0.618095 10
298 2 4.27582 4.05008 5.0367 15
299 2 -0.268604 0.282287 -7.98093 15
300 2 3.06207 -0.583558 -10.2282 10
301 2 5.19127 2.45702 -3.79843 21
302 2 -4.22262 -4.70683 -7.22223 18
303 2 3.68126 -4.67587 -6.49475 14
304 2 7.97671 2.13121 -6.80032 9
305 2 -5.95849 -5.57189 4.56454 22
306 2 0.58545 -2.23957 -10.7909 8
307 2 3.6499 4.80604 -3.40778 19
308 2 -0.163136 -7.65897 -4.37786 17
309 2 0.595117 1.46969 -11.1456 13
310 2 -0.813169 3.51639 3.62455 14
311 2 -6.69892 -7.59712 2.70991 15
312 2 -6.3562 0.403281 6.27368 17
313 2 -6.74531 3.00408 2.26646 15
314 2 -7.47867 -5.78238 7.1724 11
315 2 -3.34149 -3.62981 2.49068 22
316 2 -9.9108 -0.450702 0.00564277 14
317 2 6.36152 -6.4699 7.11533 10
318 2 8.20618 1.64664 -1.12601 14
319 2 -1.67267 -2.21199 -6.90339 16
320 2 3.09592 6.77861 4.47069 18
321 2 3.93261 7.97513 7.22303 10
322 2 -1.18428 -0.0315667 9.68487 15
323 2 -8.8027 5.07903 6.45541 11
324 2 2.48498 1.59324 7.63926 18
325 2 -8.50831 -0.594767 -6.08952 13
326 2 1.39769 -2.90964 -6.0847 12
327 2 11.5152 5.17226 -0.49195 9
328 2 -10.8044 -0.707371 2.57557 16
329 2 -2.32308 7.21754 -6.00577 13
330 2 3.6257 2.99688 -9.57379 15
331 2 -8.62085 3.90413 3.62546 15
332 2 1.73136 -3.11058 4.18002 21
333 2 1.92689 6.0629 -0.686721 18
334 2 4.30878 -9.37334 -2.66649 11
335 2 0.793625 -9.02863 -1.2535 15
336 2 -5.01965 7.96214 0.550147 13
337 2 -3.15202 -5.91265 4.61619 19
338 2 1.9608 -9.45475 2.55436 16
339 2 4.69948 5.83517 9.05339 8
340 2 -2.18087 10.1464 -1.08944 11
341 2 -2.87245 -4.4395 7.68881 13
342 2 -0.823639 -5.78699 3.3715 19
343 2 -1.81271 -3.00666 5.19331 21
344 2 -1.2512 5.78571 -10.4351 10
345 2 7.43559 -2.61083 -4.06455 11
346 2 1.5532 -1.03248 10.7726 13
347 2 -7.46258 -4.89592 -2.59237 14
348 2 7.0484 4.49329 1.01997 19
349 2 6.49713 6.38243 3.41905 17
350 2 7.35396 -4.28029 -1.83615 15
351 2 -8.0994 -4.95293 2.53246 16
352 2 -1.555 5.7528 8.7212 15
353 2 -3.54606 0.252681 -6.41484 17
354 2 -6.58365 -1.77355 -1.2627 20
355 2 3.36274 -1.74348 6.10161 17
356 2 1.46453 4.41704 -11.6123 9
357 2 5.26435 -3.37902 4.41732 17
358 2 3.70549 -0.0181813 9.05993 17
359 2 5.02209 -6.51415 4.64934 18
360 2 1.86344 -6.51268 4.10365 21
361 2 -3.52683 2.13162 1.67984 15
362 2 -9.30501 -1.9491 -2.85131 12
363 2 -5.51297 6.12132 -2.32441 16
364 2 -7.4065 3.97963 -7.74645 13
365 2 -6.07547 -2.98227 2.98656 18
366 2 -0.808791 -9.18378 8.81544 8
367 2 5.86738 9.94252 0.490145 9
368 2 -7.206 -3.68515 -8.38578 12
369 2 9.91791 -0.310713 1.55219 13
370 2 -7.1849 6.01147 1.01692 9
371 2 8.00788 -5.36825 3.88885 13
372 2 -5.19643 -3.18724 5.80522 19
373 2 -6.38728 -3.53357 -5.07536 15
374 2 0.739266 7.60755 -3.51956 15
375 2 -6.04599 5.96708 3.99653 13
376 2 4.22572 4.55895 2.26762 16
377 2 -0.825011 -6.23151 9.32551 15
378 2 -11.1417 1.75412 5.19034 13
379 2 -2.46975 7.51574 -0.634506 19
380 2 -2.45965 2.43842 9.35995 14
381 2 -7.51892 2.64927 -3.29446 13
382 2 5.34153 6.66388 -0.0994325 17
383 2 -4.39142 4.29932 9.63893 14
384 2 -0.213032 1.21552 7.27158 19
385 2 -4.94962 -5.42318 -10.7281 6
386 2 0.148576 5.62848 -6.3677 17
387 2 -2.41548 -7.45258 -1.84251 22
388 2 -1.88619 3.66987 -6.21018 19
389 2 6.57347 -0.975007 7.84545 13
390 2 0.736126 4.90455 6.46175 22
391 2 10.605 6.23224 -3.02158 8
392 2 3.39327 -7.78759 7.12123 13
393 2 5.98802 0.174433 -5.98497 19
394 2 3.64561 3.44815 8.50132 15
395 2 -4.90303 2.7724 -1.99353 16
396 2 0.157496 4.43103 -3.56801 16
397 2 -5.607 1.40407 9.44936 12
398 2 -9.02334 -3.4773 -5.47012 10
399 2 0.486286 -7.2211 0.840847 21
400 2 -0.975927 6.23195 1.64504 15
401 2 -8.64165 2.4138 6.81444 15
402 2 -8.27392 -3.15148 5.39176 16
403 2 -1.98937 -10.1171 -3.8801 10
404 2 5.08012 0.964223 6.48741 18
405 2 -2.34191 5.73178 -3.40517 20
406 2 -3.16245 5.6721 -8.48056 10
407 2 5.4891 7.40139 -4.33136 11
408 2 1.33974 -6.60691 -6.9356 11
409 2 9.62068 2.37543 5.96001 10
410 2 6.58672 4.10128 6.54825 13
411 2 -0.399317 10.3189 -4.14958 8
412 2 -6.26007 2.20242 -5.75668 19
413 2 -1.90093 -4.29154 -9.08056 13
414 2 -3.51837 -2.54336 -4.19121 18
415 2 0.0346063 7.05789 4.30224 20
416 2 -3.12339 8.86054 -3.42383 12
417 2 -9.08157 2.87107 -5.65411 11
418 2 -7.20681 3.70929 9.16842 9
419 2 3.2616 4.67926 -6.25308 17
420 2 6.00801 -2.48087 -7.17363 12
421 2 -4.40561 -2.34299 0.0318274 18
422 2 -7.26336 5.20624 -4.7283 11
423 2 -2.27752 3.08555 -9.5025 15
424 2 3.81948 -5.46306 -0.744663 15
425 2 5.03148 -3.65389 7.62668 14
426 2 -7.56774 -0.772865 9.68762 9
427 2 -2.05182 -5.03183 -3.53481 19
428 2 -9.53028 -0.862193 6.51391 13
429 2 6.30732 1.4765 1.29194 18
430 2 8.17222 -3.27697 6.05871 16
431 2 -10.1212 1.94465 1.52472 14
432 2 -3.92145 -1.09341 10.2529 10
433 2 0.707137 -9.16284 5.65713 14
434 2 9.85711 0.861625 3.86165 15
435 2 3.22944 -8.6329 -0.22928 17
436 2 -2.19388 9.3475 2.06367 16
437 2 -5.98472 -0.429617 -7.82878 17
438 2 -9.19413 -3.18764 8.18602 9
439 2 4.15944 -6.2731 9.61335 11
440 2 4.06851 3.8046 -0.743461 21
441 2 5.50656 3.22999 -6.26792 18
442 2 8.06073 4.03424 4.29067 15
443 2 -3.54022 4.98231 -0.107302 17
444 2 9.02444 -0.261306 6.6496 10
445 2 3.06285 -4.24286 -3.61357 14
446 2 -4.52721 -4.73659 -2.47671 21
447 2 6.01471 -5.0929 -4.15314 13
448 2 6.97034 -8.14399 2.76059 14
449 2 7.6555 -1.01673 -0.2368 17
450 2 6.05 -3.67559 1.37867 20
451 2 -3.05267 -0.88989 7.17438 17
452 2 8.02798 5.06574 -4.75175 14
453 2 -9.50006 -3.09885 -0.26967 14
454 2 4.12812 -0.640643 3.20369 19
455 2 -8.28106 -2.05154 1.81143 18
456 2 4.21967 -9.01647 4.87071 15
457 2 3.68467 8.1006 -1.84368 17
458 2 10.3122 3.42518 -3.32495 11
459 2 6.4881 5.41462 -2.33911 17
460 2 0.30696 -5.18859 6.40003 18
461 2 3.51161 -7.13836 2.09784 19
462 2 9.69475 -3.29098 0.440042 12
463 2 4.85087 -10.1111 2.04882 12
464 2 -3.46348 -7.29507 -4.77707 14
465 2 3.48748 8.98199 1.31978 16
466 2 2.4544 9.19568 5.35068 12
467 2 -3.50187 -8.7404 3.91419 13
468 2 -1.3445 -3.04212 10.0106 14
469 2 -6.12479 3.393 6.7538 18
470 2 6.70294 0.833007 4.44632 17
471 2 7.96097 1.58769 -4.06269 17
472 2 -4.76458 2.58611 -8.23609 18
473 2 -4.47545 -9.43288 -2.43415 10
474 2 6.9452 -9.3791 -0.101821 11
475 2 -1.88 -2.83137 -1.36755 21
476 1 -1.88 -0.934401 -0.726407 22
477 1 -0.24 -3.77954 -0.726424 20
478 1 -1.88 -2.83171 1.92355 22
479 2 -1.88 -0.93461 1.2824 22
480 2 -0.24 -3.7797 1.28241 20
481 1 -0.24 0.0131684 -3.37638 17
482 2 -3.52 0.0135641 -1.36761 18
483 2 -0.24 0.0135641 -1.36761 18
484 2 -1.88 2.85863 -1.36755 18
485 1 -3.52 0.0131684 1.92362 19
486 1 -0.24 1.91046 -0.726424 23
487 1 -0.24 0.0131684 1.92362 21
488 1 -1.88 2.85829 1.92355 18
489 2 -0.24 0.0135641 3.93239 21
490 2 -0.24 1.9103 1.28241 21
491 2 1.4 -2.83137 -1.36755 19
492 1 1.4 -0.934401 -0.726407 20
493 1 1.4 -2.83171 1.92355 20
494 2 1.4 -0.93461 1.2824 22
495 2 3.04 0.0135641 -1.36761 15
496 2 1.4 2.85863 -1.36755 19
497 1 3.04 1.91046 -0.726424 21
498 1 3.04 0.0131684 1.92362 17
499 1 1.4 2.85829 1.92355 20
500 2 3.04 1.9103 1.28241 18
