ITEM: TIMESTEP
3000
ITEM: NUMBER OF ATOMS
2000
ITEM: BOX BOUNDS pp pp pp
-30.0 30.0
-30.0 30.0
-30.0 30.0
ITEM: ATOMS id type x y z Coordination
1 1 -10.1996 3.58071 -14.7491 12
2 1 -4.04279 -10.9662 -9.09779 17
3 1 2.30289 14.2858 13.1245 11
4 1 6.45103 -12.0707 7.67324 15
5 1 -10.6112 8.37433 -2.1781 21
6 1 11.2518 -7.84401 -11.5067 11
7 1 -11.7094 4.32841 -6.53248 19
8 1 -0.79366 -6.94712 14.1526 11
9 1 -8.16132 -1.42765 -10.8988 17
10 1 -13.5912 -7.58923 6.16414 16
11 1 13.1833 2.73286 -10.756 13
12 1 -4.16027 -14.0876 2.48744 20
13 1 -13.9896 -7.98101 2.87763 15
14 1 0.98521 3.18451 19.4133 10
15 1 0.388069 3.37993 12.5668 19
16 1 1.74191 6.76759 -9.39502 20
17 1 1.34221 0.548301 13.72 17
18 1 -8.47547 -1.13573 -18.9382 6
19 1 -13.903 -3.04345 12.8864 12
20 1 10.6501 5.5652 8.98071 20
21 1 0.131303 11.4436 -11.7933 22
22 1 3.36243 6.30546 -13.3426 19
23 1 15.8538 2.20022 16.0212 4
24 1 -13.8182 4.02636 -9.2165 13
25 1 -3.07821 -1.50657 -10.8502 20
26 1 -9.37363 8.70579 8.84075 20
27 1 5.63039 -15.1803 7.52436 9
28 1 4.06604 -15.0241 -10.0454 9
29 1 8.82339 -12.1752 1.99869 13
30 1 -7.60577 -12.5791 -4.69402 14
31 1 -13.8996 -5.59362 11.4933 14
32 1 0.787352 -8.06185 -12.6567 22
33 1 8.85159 -9.94347 -12.7486 13
34 1 -0.850717 5.45409 -16.0558 17
35 1 -0.109167 6.75225 14.5752 22
36 1 0.20295 -11.8428 7.99207 17
37 1 7.78605 -5.23013 14.1242 10
38 1 -11.9839 -0.129341 1.77277 17
39 1 -16.918 -0.677202 8.88268 10
40 1 -8.88132 1.05407 0.463695 17
41 1 -3.95828 12.1795 -1.71753 23
42 1 2.27406 -13.173 -11.0795 13
43 1 2.87263 0.596863 -8.95921 23
44 1 4.63592 -4.43387 -10.7179 19
45 1 -4.48746 -4.65442 14.5789 12
46 1 -13.2221 4.34387 -1.68625 19
47 1 3.48394 13.9465 -12.543 10
48 1 1.33456 12.1616 9.21679 16
49 1 -6.56693 8.88537 -9.13495 22
50 1 -1.19173 13.8816 -0.329112 16
51 1 1.61415 -9.25786 6.2017 18
52 1 8.67272 -6.33359 -4.3511 22
53 1 4.95371 -5.8517 -15.7707 16
54 1 -7.13414 7.83471 11.8964 19
55 1 -14.4648 -4.30536 -8.17779 11
56 1 5.01629 -1.22182 7.64256 20
57 1 -7.04035 7.54812 -6.06368 23
58 1 -11.1354 -7.68816 8.4553 21
59 1 -3.09811 12.9687 12.1498 13
60 1 -13.2267 6.91603 -6.81817 13
61 1 -6.12648 9.54429 14.5622 17
62 1 -5.98279 -16.2342 8.96554 9
63 1 3.45751 4.74389 8.24727 20
64 1 8.08389 -15.0801 -2.44283 11
65 1 4.19597 13.8181 15.6832 7
66 1 -13.2095 1.71119 -10.7303 14
67 1 -11.6233 5.84007 -9.06303 15
68 1 6.40981 6.30237 11.1303 20
69 1 9.67193 -1.1978 -10.1041 18
70 1 9.26911 -11.4837 4.98037 11
71 1 -16.5398 -1.55358 6.24047 15
72 1 6.10153 16.2657 6.54558 15
73 1 6.9508 -1.71389 13.6228 16
74 1 -7.15014 -11.598 5.05332 18
75 1 -10.0025 -3.25141 1.79907 19
76 1 13.9769 1.0409 7.90782 12
77 1 7.43117 -3.83393 -2.56236 21
78 1 -2.17714 10.1224 10.7042 16
79 1 3.96484 0.791215 9.14876 21
80 1 -0.120368 -6.17539 -8.62921 18
81 1 -11.7932 6.72369 9.33508 18
82 1 -8.2159 10.2681 -1.18437 22
83 1 -3.70584 8.4492 -8.76562 19
84 1 7.5981 -3.66357 -5.36808 20
85 1 8.22493 12.8342 -7.76563 14
86 1 6.37851 -7.77999 3.88436 16
87 1 4.34311 -8.08518 10.3589 16
88 1 -4.53294 14.8351 -3.10602 13
89 1 -7.94498 12.837 3.93096 18
90 1 -8.94789 -4.31124 13.745 17
91 1 -3.9945 6.23325 7.14688 21
92 1 -6.93901 -5.49945 9.51606 22
93 1 13.7363 -7.98565 -3.82958 15
94 1 -8.28252 4.42344 5.58378 19
95 1 -11.1213 -12.904 2.36247 15
96 1 10.414 -8.40521 -5.56189 18
97 1 5.79354 -1.82691 -11.8985 17
98 1 -5.85351 0.336996 -15.011 14
99 1 -0.927759 10.6163 0.373349 21
100 1 -9.38337 7.29639 -10.1579 16
101 1 0.0706314 8.76025 17.2268 17
102 1 -0.628981 13.4784 -6.93215 23
103 1 -11.7618 10.5431 0.373624 18
104 1 1.28576 9.65413 1.97821 22
105 1 -5.93249 -11.4151 8.07569 20
106 1 14.5146 0.0121017 10.8952 11
107 1 -1.00229 -3.75476 -6.71544 22
108 1 5.07493 -7.38255 -9.29907 21
109 1 -1.02746 1.53786 9.51926 20
110 1 6.48442 0.147314 18.6417 11
111 1 -10.1368 -8.31731 -0.726409 18
112 1 -6.9206 -9.16133 -4.8025 20
113 1 11.6162 -8.69728 5.96797 7
114 1 -4.09104 9.52679 2.12655 21
115 1 6.87624 2.98249 -15.1476 17
116 1 5.78811 18.2073 -1.65833 11
117 1 -7.52353 -11.578 10.7488 16
118 1 -9.98904 -13.3932 9.27996 11
119 1 3.64932 -8.64902 -14.9451 14
120 1 4.32581 7.51997 -8.1144 18
121 1 9.99853 -8.98434 3.40224 16
122 1 -2.73663 -15.1996 4.96997 18
123 1 -7.42599 -8.90925 0.926878 19
124 1 14.2435 6.38618 10.4859 16
125 1 13.3668 -2.65231 -6.65179 17
126 1 -17.8019 -3.6401 3.83814 12
127 1 9.55403 7.95482 6.95809 19
128 1 16.5544 8.81532 4.54221 8
129 1 -6.22125 3.58391 16.3521 17
130 1 -5.09299 9.96322 11.1833 17
131 1 -4.57033 12.8615 -5.30581 18
132 1 -1.17308 -4.02625 -10.5304 18
133 1 6.39638 -10.6022 -10.4219 19
134 1 0.763641 16.0151 -12.7244 10
135 1 4.94443 -2.75834 10.5047 18
136 1 0.962423 -1.6521 -17.9734 11
137 1 -3.5808 6.5708 -5.82014 16
138 1 10.9695 -1.41255 -6.65481 18
139 1 -8.70839 10.571 -6.98595 18
140 1 -8.49214 15.536 -0.754067 10
141 1 6.86998 2.94188 -11.9967 22
142 1 5.10807 -9.1787 6.40027 18
143 1 -5.52459 4.62946 -5.47743 21
144 1 -6.96083 14.6332 8.7504 10
145 1 13.1287 8.12289 -7.18346 16
146 1 4.90026 12.3916 -2.69407 22
147 1 -2.64162 16.7279 0.84296 13
148 1 12.4818 8.4741 -0.623961 21
149 1 -3.33772 9.46502 -4.24959 20
150 1 2.39399 16.0642 -9.70029 15
151 1 3.4888 11.0522 -13.7438 15
152 1 -12.2644 -9.82778 4.19145 13
153 1 -13.1564 8.08189 -0.78097 17
154 1 -6.46808 -6.95997 -11.6976 19
155 1 0.376952 -10.2102 -15.411 13
156 1 9.76977 13.706 9.84073 15
157 1 -2.08175 16.4003 6.64093 13
158 1 -13.4019 -2.76007 -3.70913 20
159 1 -10.4178 13.8908 5.31751 11
160 1 14.1183 -0.851309 -3.10219 18
161 1 -10.853 0.0825902 -15.9898 12
162 1 7.128 2.83064 17.7455 18
163 1 4.42166 17.2801 3.59386 11
164 1 -3.20035 8.84166 7.74251 19
165 1 1.80431 -6.772 -15.6069 17
166 1 -5.14207 12.1057 8.96144 19
167 1 -0.284897 10.1723 -5.99058 19
168 1 2.81117 -2.04596 12.2905 17
169 1 -12.7771 -4.99201 1.82066 19
170 1 -3.47607 -12.2985 -11.8957 13
171 1 -8.8629 10.5399 -10.0967 14
172 1 -1.88063 -9.72136 4.98842 17
173 1 5.35592 -15.8683 -4.11983 14
174 1 -4.88895 8.78877 -13.8009 14
175 1 -13.6988 0.422304 9.26917 18
176 1 8.59912 9.79753 -3.73727 18
177 1 -8.60157 5.33329 16.8635 11
178 1 0.0212518 -9.5593 12.0737 14
179 1 -9.3608 4.40487 -0.477308 20
180 1 0.419047 15.6158 5.66716 19
181 1 -0.994299 7.32486 9.23191 25
182 1 14.0475 5.41134 15.7552 13
183 1 -7.47375 15.9867 5.00003 11
184 1 13.3814 -4.92912 -9.17955 12
185 1 -6.77659 12.5572 13.7406 6
186 1 -2.84407 0.953051 -9.21672 22
187 1 11.9403 -5.92738 3.66329 16
188 1 -3.67539 -6.97576 6.15842 19
189 1 -15.484 1.85509 6.93317 12
190 1 -7.77537 -8.02572 4.21886 20
191 1 7.65753 6.02208 15.6945 21
192 1 -14.6734 -0.717416 -1.37187 16
193 1 -0.0778629 -17.7009 -3.39825 13
194 1 5.65717 -6.71626 -2.45313 22
195 1 -1.70538 9.86501 4.06059 21
196 1 7.246 13.9193 11.4633 13
197 1 -8.92506 -0.770511 -4.26158 21
198 1 -5.81763 11.9258 -8.53543 17
199 1 -15.9448 -2.90334 -4.81011 10
200 1 -9.44466 -2.34636 11.8619 17
201 1 0.666377 -9.52893 3.07807 21
202 1 2.51345 -15.7784 7.34608 11
203 1 -11.8148 10.9572 3.96374 16
204 1 13.7208 3.04591 5.16075 15
205 1 5.55663 4.62881 -5.51491 18
206 1 -7.80372 -7.78391 -13.9597 14
207 1 1.305 3.19744 9.84351 18
208 1 5.96193 -16.847 3.19846 10
209 1 -1.55156 6.64401 -10.5545 20
210 1 4.01286 -8.85296 -11.308 18
211 1 8.78608 1.02947 -14.3062 15
212 1 4.14608 8.34135 -16.1334 12
213 1 -6.82892 -4.04646 -6.99829 21
214 1 -3.02671 14.4811 -8.12793 14
215 1 -11.0818 -10.1981 10.0721 14
216 1 6.70023 15.2223 -2.25922 17
217 1 -8.8517 1.70515 16.1428 14
218 1 -6.77426 13.1871 -2.70663 18
219 1 6.25566 1.9146 7.88305 21
220 1 -4.2719 -7.551 -10.0967 19
221 1 -3.04374 9.68422 -11.4167 20
222 1 2.91762 3.53573 -7.53527 23
223 1 -9.57291 -11.0868 7.58793 16
224 1 -8.9264 4.7598 8.57951 19
225 1 -5.52506 4.35609 10.9768 21
226 1 1.29133 -10.1717 -6.34587 20
227 1 -6.42808 -16.724 -1.6971 12
228 1 7.72731 -11.9139 -1.06775 18
229 1 12.9585 8.18706 16.1752 11
230 1 7.27787 10.0029 -7.1727 17
231 1 -0.29252 10.2447 -2.94333 21
232 1 -10.0329 1.76112 3.66019 19
233 1 -11.063 11.5036 -2.44607 16
234 1 1.62916 6.21841 10.8273 18
235 1 3.06111 -18.8934 -0.787125 8
236 1 13.1857 2.08585 -2.34779 17
237 1 1.83415 7.41925 7.26177 23
238 1 -9.87784 8.53595 3.8173 19
239 1 -8.37831 -6.95335 -3.53606 17
240 1 7.15877 6.11916 -12.9708 18
241 1 1.93705 -2.14014 9.23806 22
242 1 8.59009 10.3468 -9.88303 17
243 1 1.95236 -10.1995 -2.68206 19
244 1 -3.75424 -1.75555 -14.2419 19
245 1 -0.242446 -19.8306 3.7747 9
246 1 8.01839 -0.759449 -7.25189 21
247 1 -10.1749 -3.57884 6.49289 20
248 1 3.37444 -15.5315 -1.54464 18
249 1 -8.94776 -5.43911 -5.91765 18
250 1 3.48914 15.8616 -3.08492 21
251 1 1.74266 -2.25341 -13.6169 19
252 1 5.25773 3.66461 15.5209 17
253 1 15.0295 2.24092 2.43154 13
254 1 10.6205 -4.06437 -11.4484 17
255 1 -7.84263 -3.6985 -9.55096 18
256 1 -10.5983 -0.301995 -9.28165 16
257 1 -6.99683 -14.4317 10.7879 9
258 1 8.99915 0.784145 9.26292 19
259 1 4.10155 -4.97825 8.43365 22
260 1 -8.71553 -9.80737 -11.1766 14
261 1 1.03313 -4.95794 7.65979 21
262 1 0.851885 8.70525 -12.0641 19
263 1 4.43629 7.34359 -0.558837 19
264 1 -6.62989 -5.57301 5.97147 19
265 1 2.86962 11.9602 3.68993 23
266 1 -6.41539 -3.79279 12.6517 22
267 1 -8.52417 -7.85874 -7.24026 18
268 1 -6.52323 -6.31244 -8.7126 21
269 1 -1.80738 7.67094 -13.9057 18
270 1 -4.19302 -9.56195 -6.14347 21
271 1 -2.85288 -10.6292 2.05452 22
272 1 8.26211 -4.45578 -15.8255 10
273 1 13.0511 -0.142608 -9.35364 13
274 1 11.234 4.25433 2.64006 19
275 1 -10.3333 -4.9913 9.91532 23
276 1 -3.04563 -12.5904 -0.990743 22
277 1 8.37418 5.68112 18.6811 12
278 1 -5.74557 -14.1898 6.18732 16
279 1 -0.335561 -12.0499 1.69903 21
280 1 -2.36046 17.1114 -2.21381 10
281 1 4.90494 0.578202 -13.7578 18
282 1 -6.4564 -5.27926 -15.6942 11
283 1 -10.975 -7.88563 11.2969 17
284 1 2.81376 7.36024 16.8693 18
285 1 2.09034 -13.1137 -0.332811 21
286 1 -6.41203 -12.4802 -10.227 12
287 1 -10.2033 2.78419 -8.80018 21
288 1 11.6871 5.4385 5.9203 21
289 1 -7.24683 1.56153 -10.2248 19
290 1 1.74368 6.38174 -6.09904 18
291 1 7.40197 -13.74 -9.29387 10
292 1 -5.28176 14.8186 0.147414 16
293 1 4.11523 10.4683 6.92193 21
294 1 7.77258 -0.396784 6.21375 22
295 1 -8.66878 -0.908873 6.64446 19
296 1 -4.10869 -8.09635 14.774 11
297 1 -6.75472 9.99858 4.13391 18
298 1 2.29896 -6.17501 -10.7878 20
299 1 14.5886 10.616 -2.24411 10
300 1 4.59763 -9.56772 2.4751 20
301 1 -3.06184 -2.26043 15.4945 11
302 1 -17.604 -4.04524 7.38659 11
303 1 2.59939 -16.2687 -4.66772 16
304 1 -8.75585 7.83776 14.6219 14
305 1 -10.8417 5.5349 14.4286 14
306 1 -15.16 -2.94358 9.5122 18
307 1 -15.4491 -5.82328 8.30973 13
308 1 14.0948 -4.49999 -3.33648 18
309 1 -13.9475 -7.97226 9.36692 12
310 1 7.59491 -3.26945 -9.8272 20
311 1 9.50076 -12.1068 -3.27311 14
312 1 5.18696 14.1676 -4.98202 19
313 1 -10.0265 14.3155 -3.53541 11
314 1 11.339 7.95795 11.0816 19
315 1 -11.5213 -1.67049 4.38799 22
316 1 8.38729 -9.33619 -2.84639 24
317 1 -6.2099 11.5339 1.16319 21
318 1 -6.434 6.2074 8.90641 19
319 1 4.19366 -13.6877 9.60811 10
320 1 9.76821 -4.67104 6.56187 16
321 1 -2.79455 4.20032 9.26458 21
322 1 -7.04427 -3.72585 -3.81618 22
323 1 -1.54321 1.60519 17.8796 13
324 1 -1.73882 13.0667 5.00419 20
325 1 9.9207 8.42123 17.4224 14
326 1 -7.44693 13.6885 -5.92458 11
327 1 -0.0573928 -4.13207 -16.1949 17
328 1 5.85741 -10.2897 -14.0199 13
329 1 -9.99515 2.62827 13.4168 22
330 1 -15.5055 3.08216 3.89576 11
331 1 -4.35927 -4.01813 -8.52836 22
332 1 -6.13867 8.02788 -0.299403 21
333 1 9.89535 -2.27601 8.45774 18
334 1 -8.9943 -11.7391 0.509503 21
335 1 7.36617 -8.33149 9.14794 11
336 1 -8.64858 -9.06039 12.7973 15
337 1 -14.5743 9.81173 1.86401 11
338 1 1.16364 -4.73601 15.8995 6
339 1 3.44161 -11.9792 -5.5107 18
340 1 -5.91638 -0.960842 -8.87808 24
341 1 7.44473 -1.8353 -15.0278 18
342 1 3.79399 14.9231 4.98588 17
343 1 -9.53979 1.60909 -2.32867 21
344 1 5.30303 -7.07332 -13.0769 17
345 1 9.25391 4.689 -13.9637 13
346 1 -3.17684 -15.4374 -5.98075 15
347 1 -13.0518 -6.36761 -3.11185 15
348 1 -4.7675 -9.88298 -0.0919112 21
349 1 10.6703 5.25143 16.7559 15
350 1 12.6703 5.18557 -0.330591 19
351 1 -9.83535 1.85149 -11.6115 17
352 1 2.98917 17.2399 0.361047 13
353 1 -14.6751 0.48608 -4.32202 16
354 1 -7.6066 7.28884 6.48248 22
355 1 -8.99516 10.4449 1.83998 21
356 1 -6.18974 9.45608 8.12193 21
357 1 11.2175 5.79506 14.0594 20
358 1 11.5296 -5.58361 -5.79937 22
359 1 6.50458 -2.30553 16.0615 12
360 1 11.5696 2.47043 -6.53394 18
361 1 -3.94372 -17.7833 -3.75712 11
362 1 -0.0396731 -7.17295 -5.38446 21
363 1 1.07891 9.53181 5.1454 20
364 1 -10.1015 1.72805 -5.85754 19
365 1 5.07773 -10.4729 -1.05529 19
366 1 11.5324 0.217728 10.4358 19
367 1 -10.3348 -4.10873 -3.45311 19
368 1 -6.55786 -11.7404 2.00647 18
369 1 -8.62905 -6.29569 11.7029 20
370 1 -3.36285 9.35948 -0.655116 19
371 1 -12.5348 -9.66045 -2.57391 11
372 1 7.1692 11.0188 17.6318 9
373 1 -10.1923 7.29278 -5.21822 22
374 1 -0.892423 10.5372 -9.06567 23
375 1 5.74482 13.8763 8.70688 17
376 1 -13.423 -7.2665 -0.0444043 16
377 1 -1.6654 -8.96352 -7.67179 20
378 1 -11.543 0.113297 6.88351 17
379 1 -11.8747 9.87675 -5.03495 15
380 1 3.1988 -10.5595 8.57596 16
381 1 -2.00449 -16.109 -2.45792 20
382 1 12.5544 12.5441 10.3063 12
383 1 6.04379 8.25343 -13.426 18
384 1 -12.4725 4.06258 -12.1367 12
385 1 -0.766787 14.1973 -10.0021 18
386 1 -8.90215 5.45548 -7.66558 20
387 1 -1.50449 -12.5637 4.8958 20
388 1 13.3262 7.84923 4.8906 21
389 1 1.22213 9.76405 -15.0151 16
390 1 -4.52787 0.933099 10.5276 20
391 1 -15.2685 3.66417 0.800881 16
392 1 -6.81685 1.82754 5.76469 20
393 1 -4.29661 -11.7345 5.01461 23
394 1 9.36618 -9.5668 -9.26841 14
395 1 -13.1734 2.83806 2.26439 19
396 1 -14.5749 -0.587491 11.8898 13
397 1 -13.9967 6.55755 6.92202 12
398 1 -0.220071 -3.50552 10.3002 16
399 1 -8.51301 1.45326 -16.8989 9
400 1 7.59167 -8.59667 -6.56446 17
401 1 -0.143865 -11.6944 -12.7 16
402 1 -3.93634 -5.68734 11.3586 16
403 1 2.96769 -7.2921 -3.92985 20
404 1 -3.64253 2.68892 -14.9254 16
405 1 7.58841 -14.7755 0.940048 13
406 1 1.84464 12.2427 -5.16595 22
407 1 -11.9648 9.00401 6.80548 14
408 1 -6.72339 -2.78124 15.7021 14
409 1 -11.4189 -6.00609 -8.33532 13
410 1 -8.77741 -6.05676 7.51414 20
411 1 10.5685 -5.42998 12.0173 12
412 1 4.24646 1.73169 -11.1231 20
413 1 9.66582 -5.98021 8.98063 17
414 1 13.8051 7.74332 -3.92586 17
415 1 -3.08605 2.88175 12.6512 19
416 1 1.50997 12.7351 0.440268 18
417 1 6.69426 -6.50277 6.92008 19
418 1 -0.288623 -14.6755 -6.13195 15
419 1 -4.33937 5.82412 18.6654 11
420 1 -4.67311 14.7647 6.63328 17
421 1 -6.35739 -9.4157 -8.46634 22
422 1 8.60944 13.9838 0.869525 14
423 1 4.40957 7.75147 8.90932 19
424 1 -7.49255 2.53697 10.4604 21
425 1 -4.73938 -11.2304 -3.45939 19
426 1 -10.5185 3.65359 10.8628 19
427 1 -5.92502 -6.3789 -5.44353 22
428 1 -4.65493 8.39654 5.54022 19
429 1 -5.85661 -12.0838 -6.74532 17
430 1 -2.51236 -6.90968 -12.6012 18
431 1 -7.29204 -14.4175 2.3822 20
432 1 -8.37683 -0.917689 2.88481 20
433 1 8.95064 2.95671 6.74383 22
434 1 -7.24276 -6.47119 14.2015 13
435 1 -9.59541 5.52631 -13.2982 12
436 1 7.68219 4.6473 -0.269091 19
437 1 -8.36622 -14.1822 -1.62341 15
438 1 0.377752 16.8378 2.81041 11
439 1 -0.216319 4.34548 -9.10638 19
440 1 -3.27882 7.98494 13.4984 20
441 1 -11.2632 -0.888734 -2.63609 19
442 1 0.483141 15.7584 -4.67084 19
443 1 4.01269 12.0212 -6.96311 18
444 1 -3.22442 -6.34916 -7.16073 19
445 1 4.07931 2.50904 17.6615 14
446 1 3.15041 -14.9272 -7.30775 15
447 1 -0.818208 -1.87102 -12.4935 20
448 1 6.8887 -14.2442 4.42978 14
449 1 -9.15943 10.3455 6.07313 20
450 1 4.52687 6.92529 14.2229 19
451 1 7.42453 6.94465 -1.88154 18
452 1 4.2953 10.2607 1.16611 19
453 1 -7.43722 7.96823 -12.1354 18
454 1 4.91349 1.82452 -7.26114 23
455 1 3.11969 -6.82112 6.51048 18
456 1 -17.2651 -2.40401 0.372061 9
457 1 0.571235 16.5821 8.76779 11
458 1 -5.12147 3.43446 -12.5604 19
459 1 10.0037 6.66375 0.871656 19
460 1 5.25701 15.3258 -7.5567 13
461 1 7.279 -4.25144 1.2996 20
462 1 12.6246 2.24545 0.737427 18
463 1 -2.2349 0.829107 -13.1542 23
464 1 2.17852 -9.85973 0.751919 20
465 1 0.684765 -14.2301 5.34742 18
466 1 -0.0547694 -6.74224 11.4609 18
467 1 -7.88867 4.9638 -10.8028 24
468 1 -9.78184 -13.1035 5.72885 14
469 1 -0.765329 -12.683 -9.58545 14
470 1 8.80508 14.8981 7.16515 14
471 1 0.67626 5.62227 -12.8839 20
472 1 4.11246 0.00488284 16.0118 17
473 1 -12.7182 2.02601 12.1538 17
474 1 -1.20233 -19.639 0.329034 10
475 1 -15.0942 -2.13903 2.85485 18
476 1 14.5746 -5.63268 -6.29852 13
477 1 11.1519 -0.905149 -1.97501 20
478 1 -3.26134 11.1934 -6.87637 17
479 1 5.49214 -6.32032 -5.87504 23
480 1 2.13214 3.83418 -10.8152 19
481 1 13.0776 -8.27516 -7.22128 12
482 1 -6.61545 -0.0687337 17.4253 11
483 1 6.1652 13.1155 2.6704 20
484 1 -5.55878 -2.72585 -17.8443 12
485 1 5.18566 2.7419 -17.7964 12
486 1 -6.0245 -3.04091 7.4755 18
487 1 -2.45842 12.3861 1.7885 18
488 1 -8.29556 -2.60399 -15.8778 14
489 1 -13.6017 0.623671 4.17397 17
490 1 -2.56812 -9.82938 -14.2296 13
491 1 -5.64536 -11.2239 12.9051 9
492 1 -0.936217 7.3305 -7.39623 21
493 1 14.694 3.10787 10.3511 13
494 1 15.7258 5.06061 0.17832 11
495 1 -11.3301 -12.8055 -0.907028 13
496 1 -1.06092 -9.92564 -0.221729 21
497 1 -2.24699 -2.51144 -17.8716 13
498 1 -7.78849 10.529 11.2069 13
499 1 2.10792 -4.47177 -8.71006 20
500 1 13.1126 -3.5719 -1.12388 22
501 1 2.47703 14.7723 -6.87148 19
502 1 5.75068 -6.77855 0.976479 21
503 1 14.5401 5.6178 -9.30224 9
504 1 6.28861 8.66999 13.0035 14
505 1 -9.15538 1.75241 7.87197 17
506 1 6.45311 11.0089 11.2385 16
507 1 9.12193 -0.176946 16.8472 15
508 1 1.95205 3.40583 -15.4673 21
509 1 -3.97189 -4.14924 -5.34415 21
510 1 -0.0704106 -3.55006 12.9122 16
511 1 6.81404 9.57131 8.25983 17
512 1 6.55599 7.77389 -9.7966 24
513 1 -5.92048 9.92888 -6.16764 18
514 1 -1.59902 13.3344 -3.71699 19
515 1 9.59595 -3.36255 14.7128 12
516 1 9.7639 3.0255 -12.1885 14
517 1 13.6161 -8.79218 -0.709725 12
518 1 12.1331 10.4371 13.189 12
519 1 -15.743 -5.19884 1.53019 15
520 1 -5.85346 11.0238 -11.6085 12
521 1 -1.19736 -0.658704 12.2577 18
522 1 -14.066 -0.224703 14.8412 11
523 1 -2.71034 12.9094 -11.3557 14
524 1 4.10969 -13.2325 -2.90091 20
525 1 5.23336 -1.18128 -9.01739 22
526 1 -2.39823 15.6498 -5.12386 15
527 1 -8.07783 -4.2291 -13.0618 16
528 1 4.11141 -14.569 4.6009 19
529 1 -12.2819 -3.37974 -1.18478 16
530 1 1.28648 13.105 -14.8753 13
531 1 -1.17133 10.1667 14.3776 20
532 1 -12.6313 -5.01783 7.88562 20
533 1 5.55113 9.28864 -2.1302 20
534 1 3.71501 -11.1209 -8.94632 18
535 1 4.53937 -5.63981 13.0622 11
536 1 8.38304 -1.13717 -4.067 20
537 1 -11.9551 7.85192 2.14247 23
538 1 4.94941 5.65668 18.6985 12
539 1 4.12828 18.9439 -3.79191 7
540 1 11.5356 -6.2915 -2.72019 21
541 1 3.69598 8.78413 11.6091 23
542 1 0.772004 6.39772 -18.8751 7
543 1 -4.07122 -13.3766 10.5102 11
544 1 -0.0375945 1.56187 -10.9802 21
545 1 6.89194 0.300042 -17.1903 14
546 1 2.85645 14.6564 7.80336 17
547 1 8.69991 5.62427 -10.4378 22
548 1 -3.53608 -4.86024 -15.6977 18
549 1 -2.1653 -13.2863 -3.72746 21
550 1 -11.2707 -3.33303 -9.46736 12
551 1 9.92634 0.996126 0.532932 19
552 1 14.9537 5.49523 -3.01682 14
553 1 7.0731 -5.51653 -7.95609 16
554 1 14.1017 7.65033 13.1038 15
555 1 6.0655 -8.63148 -4.03535 17
556 1 3.36539 5.36868 -16.677 17
557 1 7.00557 11.4933 -0.050526 18
558 1 -9.83251 5.22455 3.01647 19
559 1 9.47293 10.8413 15.5558 11
560 1 10.782 7.33882 -2.62204 19
561 1 16.6559 0.125701 0.902029 6
562 1 11.73 4.66512 -8.24052 22
563 1 8.6961 3.05403 15.327 23
564 1 14.9814 4.26676 13.1252 13
565 1 2.3015 -5.05031 11.0288 21
566 1 11.3151 10.9868 -2.47592 13
567 1 1.63245 1.37323 16.2899 16
568 1 13.3984 0.122773 -5.99878 15
569 1 9.54213 4.92506 11.9728 19
570 1 -7.34397 2.38472 -7.45671 23
571 1 14.1907 4.87582 2.53519 17
572 1 7.3329 -3.36567 5.17006 22
573 1 -10.2726 6.27527 11.7283 16
574 1 9.93913 11.7422 12.0255 16
575 1 9.46104 2.26174 12.7184 20
576 1 1.7626 9.00663 9.33777 20
577 1 -1.08543 14.9733 11.3076 10
578 1 5.79626 4.37656 6.83656 22
579 1 -2.24766 -16.9353 1.92022 21
580 1 -5.96588 9.55692 -3.38479 19
581 1 10.4434 10.0875 -6.94136 19
582 1 9.71573 -1.99849 -13.1993 13
583 1 0.413847 16.2599 -0.906944 16
584 1 -1.78497 -12.0873 -6.65133 18
585 1 10.8287 -6.96653 -13.755 9
586 1 -12.0729 3.28796 7.17897 17
587 1 -4.90019 3.46093 -9.30059 20
588 1 -5.19173 -16.9139 3.1965 14
589 1 -6.24036 -2.16614 -12.4464 18
590 1 -12.0294 2.52788 -4.17849 19
591 1 8.42851 -8.99113 6.70464 15
592 1 11.3455 10.1113 5.2761 21
593 1 -1.36011 -7.74453 8.75309 16
594 1 -14.3875 -1.43565 -6.93398 14
595 1 1.72965 2.76917 -18.6463 12
596 1 -0.365079 3.79384 15.5759 16
597 1 6.3824 10.764 -11.8868 14
598 1 13.2944 0.718326 13.201 14
599 1 8.43111 4.55468 -6.7518 20
600 1 13.8162 12.3694 4.12518 11
601 1 5.95851 -15.9398 -7.37474 10
602 1 -11.6471 -2.9308 14.8321 14
603 1 10.9007 -1.74279 1.21443 22
604 1 -0.782706 13.5547 14.12 13
605 1 6.17228 13.2345 -10.0551 12
606 1 -8.79593 10.1626 -4.19024 22
607 1 8.83237 9.37874 1.93172 17
608 1 -9.68774 -15.8233 0.250821 11
609 1 12.9779 -3.22677 2.48176 14
610 1 7.35414 15.0179 3.85277 15
611 1 -1.45656 5.76256 12.0144 19
612 1 -10.5246 -7.7359 2.56806 24
613 1 -8.21553 -0.914176 -7.4944 20
614 1 6.2177 0.429001 11.1402 19
615 1 -2.89728 -8.74422 12.3975 16
616 1 8.93277 7.4298 13.8289 15
617 1 -5.01111 14.2939 2.8076 18
618 1 8.04956 4.40446 2.99577 21
619 1 8.51029 5.43202 5.49052 18
620 1 2.35717 0.13261 -16.2634 17
621 1 -8.37523 -2.93171 9.15054 20
622 1 6.63936 0.42879 -10.2374 18
623 1 11.9075 -10.1213 -3.52014 15
624 1 8.06276 3.25703 10.0372 21
625 1 5.61424 7.46993 6.46087 22
626 1 -10.9826 -0.238 14.746 18
627 1 10.4697 10.4539 8.92373 22
628 1 0.600871 -1.64915 15.3929 14
629 1 -3.04477 5.49825 14.9839 20
630 1 -0.422359 -5.29067 -13.5016 20
631 1 -6.32651 2.20624 13.6001 20
632 1 6.65335 3.40694 12.7972 19
633 1 -8.40141 -15.6283 7.36806 12
634 1 15.7989 8.38688 -1.02812 13
635 1 6.84987 -11.6393 -4.04835 21
636 1 9.29003 9.26438 -0.788402 22
637 1 9.38097 12.0764 3.64945 19
638 1 4.11991 0.00796547 -18.5363 12
639 1 1.9264 13.5033 -2.61931 19
640 1 11.9256 9.7343 2.12823 20
641 1 -7.41472 -10.6862 -1.84459 18
642 1 -0.54426 -1.51244 -15.5573 17
643 1 -9.30684 12.8531 -0.231034 16
644 1 8.07261 -7.29822 -10.9728 20
645 1 10.1579 8.02088 -8.75817 18
646 1 8.05718 14.9517 -5.10857 13
647 1 -9.46631 7.73159 0.508068 25
648 1 4.37243 7.10703 -3.96832 18
649 1 11.6811 2.23284 15.4858 18
650 1 10.0762 -0.367188 14.2703 18
651 1 -1.42128 -10.8192 9.98661 14
652 1 -4.43894 6.22353 -10.8684 17
653 1 3.94041 12.4666 10.743 16
654 1 7.83988 -7.40808 -14.6159 14
655 1 1.45456 0.534394 10.9059 20
656 1 6.39248 17.2984 -5.04493 14
657 1 8.39848 12.1934 6.73045 18
658 1 12.5188 -8.29175 1.78488 12
659 1 6.28307 8.23209 16.9903 14
660 1 -13.7697 -1.65403 6.69889 21
661 1 3.20883 -15.3768 1.99354 20
662 1 -0.345334 -1.28549 -9.08226 20
663 1 -8.53134 15.5845 2.408 12
664 1 5.96505 12.8221 5.75825 18
665 1 -13.6985 -3.90994 4.8597 20
666 1 -1.32217 4.5185 20.1691 9
667 1 -3.89924 5.63696 -15.4526 12
668 1 -6.42596 5.64593 -14.3871 12
669 1 2.38805 -12.5289 2.83934 20
670 1 7.73471 7.38857 -6.11523 20
671 1 -13.2994 5.20605 12.0034 13
672 1 4.3529 -2.55588 -15.1341 16
673 1 2.03584 -11.4187 11.0018 11
674 1 2.69421 14.9405 2.29544 19
675 1 -4.25052 1.42574 15.6525 16
676 1 -9.08266 -5.86823 -10.9375 16
677 1 -5.9293 -10.4056 -12.8738 13
678 1 -8.8706 -11.754 -8.17191 11
679 1 -0.341669 16.3635 -7.73765 15
680 1 4.7673 -3.82715 -7.28928 19
681 1 -1.26232 13.776 8.22522 18
682 1 6.33801 -11.5163 -7.15898 16
683 1 6.01809 -17.1673 -0.715445 10
684 1 1.36637 -7.69096 9.02722 20
685 1 14.7217 2.10997 -7.92163 13
686 1 1.48624 -12.7528 -4.3422 21
687 1 -11.3356 -1.96631 8.49004 18
688 1 -4.05914 -17.6109 0.0803514 14
689 1 -4.88419 -14.3287 -3.6719 17
690 1 -10.9076 -0.0649986 11.2856 16
691 1 -7.4048 -17.1985 1.0621 10
692 1 14.1872 5.21469 -6.14274 18
693 1 -2.05102 15.66 3.59842 14
694 1 -5.14245 3.14963 7.87009 19
695 1 -14.1445 8.95704 4.5257 11
696 1 9.73094 -3.85106 3.45804 16
697 1 -13.3771 -1.49258 -10.609 11
698 1 -1.0642 7.32809 -4.23278 20
699 1 8.82547 2.50399 -8.87827 18
700 1 7.2094 12.5928 14.3111 13
701 1 8.93715 4.60861 -3.71548 20
702 1 -13.6264 1.53397 -7.17504 16
703 1 -12.3055 -4.49621 -5.7821 16
704 1 -1.67776 6.19647 17.6668 16
705 1 4.51072 5.6462 -11.0578 20
706 1 11.2884 12.4322 6.86909 16
707 1 -3.37841 -2.89215 11.1894 13
708 1 0.7657 -14.7544 -2.21856 19
709 1 -6.80088 -16.6513 5.13636 13
710 1 -3.44282 -4.98648 8.14029 18
711 1 14.2461 9.62211 10.4033 15
712 1 2.74498 -7.29109 -7.18498 18
713 1 -7.77951 6.99302 -2.63048 23
714 1 6.69007 7.5706 3.84114 17
715 1 -7.8579 -3.36386 4.24758 19
716 1 8.82666 8.51029 -11.996 13
717 1 0.111774 -17.1942 -6.24779 10
718 1 1.17054 -18.7878 1.98764 17
719 1 -1.41611 -14.4978 0.217463 18
720 1 6.14036 4.47754 -8.98 22
721 1 5.59678 15.906 0.878595 19
722 1 -3.31317 -0.0591973 -17.4351 12
723 1 -1.33441 1.05261 14.868 21
724 1 0.841998 7.52585 -15.5806 17
725 1 -11.5917 -2.23637 -13.9334 8
726 1 -9.95608 -5.60877 -0.592893 21
727 1 3.25998 17.3526 -6.98118 14
728 1 -4.56483 -7.47581 -14.2115 16
729 1 -5.43457 -6.66229 1.10017 21
730 1 11.0461 6.89747 -5.84224 20
731 1 11.4384 -6.19053 0.274691 21
732 1 -5.83397 6.73715 15.8508 14
733 1 7.72704 -9.12977 1.12656 22
734 1 14.4423 -5.88283 1.22664 11
735 1 12.1408 -2.34425 12.4396 14
736 1 -0.852681 10.5738 7.41636 19
737 1 -12.8124 2.94987 14.7639 10
738 1 -7.93165 4.85258 13.4676 21
739 1 -2.30652 -13.5965 7.67445 17
740 1 9.55576 2.04301 3.88241 21
741 1 4.41155 10.8603 14.2757 19
742 1 -15.3555 0.634857 1.18389 16
743 1 8.80694 -6.78644 2.13663 18
744 1 -10.6302 12.5462 -5.9657 11
745 1 3.63321 8.90733 4.2863 19
746 1 -0.391905 -17.4163 5.25018 16
747 1 6.42113 1.02989 14.7915 23
748 1 1.07896 12.7375 5.69212 21
749 1 3.14021 -12.2444 6.31834 20
750 1 -8.59714 -2.08792 -0.734839 22
751 1 2.38363 4.87374 14.931 14
752 1 -15.5947 -5.1021 -1.80209 12
753 1 1.81461 12.0193 15.3681 16
754 1 4.2456 13.0527 0.252723 22
755 1 -9.45611 -10.6316 3.34455 20
756 1 -3.51055 -18.6797 4.97354 9
757 1 7.11253 -3.76353 8.35776 21
758 1 12.2424 -4.55538 9.57597 9
759 1 7.65017 6.30761 8.48833 22
760 1 1.36303 -8.82557 -9.26962 17
761 1 -4.85776 0.74184 -11.7463 23
762 1 -4.39909 -0.460632 13.2775 19
763 1 0.0529774 13.5172 2.78435 20
764 1 12.119 0.885711 3.02296 19
765 1 1.70228 9.29331 -7.91377 18
766 1 -3.58146 8.55385 16.424 16
767 1 8.64953 8.69629 10.5477 17
768 1 7.1951 -4.72806 -13.1077 19
769 1 -5.72229 -13.2521 -0.519018 19
770 1 10.942 0.54416 6.42438 17
771 1 2.45051 -1.93343 -10.5973 17
772 1 1.67642 8.90062 14.6843 20
773 1 9.50374 -11.2342 -6.12953 15
774 1 6.48679 5.93646 -16.3081 14
775 1 -3.20356 -7.47518 -4.04206 18
776 1 11.4002 5.59094 -10.9282 13
777 1 15.7173 -2.88625 -0.970834 11
778 1 2.38882 -8.28082 12.8412 13
779 1 -1.84448 -9.81144 -11.2111 17
780 1 7.85453 12.3928 -2.80695 18
781 1 -12.6189 5.2676 4.21664 18
782 1 12.1644 4.59513 -4.05554 21
783 1 15.1302 5.97983 5.15671 14
784 1 2.82582 -5.03208 -13.2031 17
785 1 -4.5416 11.3526 5.5744 16
786 1 15.8629 7.57382 8.02904 12
787 1 10.4216 12.8085 -5.35744 13
788 1 4.20043 3.39433 -13.2877 19
789 1 9.90321 -3.78614 -1.30582 21
790 1 -12.0695 2.31206 -0.781228 22
791 1 10.7552 7.23611 3.32494 18
792 1 -11.8177 -10.0264 1.35076 17
793 1 -10.8557 9.04517 -8.11287 13
794 1 4.71234 3.59221 10.2742 20
795 1 -11.5374 -1.1994 -6.07172 18
796 1 -10.8559 6.32097 6.05479 21
797 1 -2.6826 3.89285 -7.38672 20
798 1 10.3459 -6.54714 -8.76158 19
799 1 -10.8481 -8.41564 -5.0977 14
800 1 10.1912 -9.36093 -0.794591 19
801 1 -14.6783 6.34746 2.27066 16
802 1 -5.70302 -7.83221 -2.28177 19
803 1 12.8567 7.82166 8.14474 22
804 1 -5.88112 -8.89274 6.69618 20
805 1 9.74003 2.34272 17.812 11
806 1 10.5297 -1.36794 4.80837 18
807 1 7.98174 -1.08551 2.56541 24
808 1 -11.7697 5.12301 0.538032 22
809 1 1.53782 10.8644 12.1164 19
810 1 3.2512 9.63859 -11.108 18
811 1 -1.42892 -7.36273 -15.6657 15
812 1 -6.94297 12.8143 6.57712 21
813 1 -10.0331 -8.21006 6.00855 18
814 1 5.37841 10.3616 -5.38092 19
815 1 -0.0833459 8.46602 12.2044 23
816 1 16.02 -2.86515 -5.20596 8
817 1 6.82904 -5.48904 10.8757 18
818 1 -1.15216 14.1625 -13.2193 12
819 1 5.00787 10.772 -9.11417 20
820 1 -6.32688 -1.11243 11.3105 16
821 1 14.0266 4.46983 7.78716 19
822 1 -3.88233 -4.50692 -12.0027 19
823 1 14.7695 10.6399 1.52494 12
824 1 -15.2428 2.40356 -2.05916 12
825 1 -3.10886 -10.9068 7.76018 18
826 1 1.59417 12.3104 -9.01648 20
827 1 4.05474 1.59858 12.614 21
828 1 0.011697 -11.905 -1.67032 20
829 1 -6.0297 17.0017 1.73954 10
830 1 -15.4124 6.06562 -1.13584 11
831 1 10.3966 -4.07028 -8.30363 17
832 1 2.91101 -12.1301 -14.0673 13
833 1 -7.46896 6.91367 2.71856 21
834 1 13.08 10.9999 -5.19368 12
835 1 -6.2745 -0.047129 8.13935 18
836 1 6.18229 -2.73937 -18.0093 9
837 1 -10.1419 -8.74441 -8.94876 12
838 1 -1.46699 -10.0038 -4.00363 19
839 1 -3.71436 12.0669 15.3252 10
840 1 5.33578 -12.7677 0.940952 19
841 1 -1.25736 10.9191 -14.1073 15
842 1 15.284 2.34026 -4.56144 12
843 1 6.92323 7.041 1.23468 20
844 1 0.490172 -16.9124 -0.111594 21
845 1 3.03929 -4.12326 -17.2812 13
846 1 10.5127 2.93363 -1.45677 19
847 1 -0.911653 3.04336 -14.1645 16
848 1 -4.22743 -8.38111 9.07816 18
849 1 2.74611 9.90681 -4.32748 19
850 1 7.37558 1.56741 -5.5945 19
851 1 -10.1247 4.97451 -2.88066 21
852 1 -13.6107 3.92633 9.07551 13
853 1 1.36802 6.98487 19.4488 10
854 1 -8.50795 -8.90376 9.37339 23
855 1 6.82238 10.6176 4.3949 21
856 1 0.276112 -15.3091 2.80372 21
857 1 2.24667 10.4656 -1.11327 20
858 1 -3.99653 7.14953 10.3115 21
859 1 -8.46681 -0.362057 13.5257 21
860 1 -9.94829 12.1111 8.22788 9
861 1 10.8413 0.907973 -4.02394 18
862 1 -5.94539 -8.44143 11.6683 18
863 1 5.71867 -11.6198 4.62807 17
864 1 11.6673 2.89055 8.60801 19
865 1 10.6457 -3.22638 -4.24682 21
866 1 5.34108 -13.0464 -12.1174 11
867 1 -8.49262 -0.222587 -13.7012 20
868 1 -1.12399 2.21095 -17.2722 11
869 1 7.47278 16.163 9.66918 12
870 1 -11.588 -5.47632 13.1627 14
871 1 -6.26709 6.02599 -8.25778 20
872 1 -12.5442 6.87965 -3.50103 16