ITEM: TIMESTEP
1000
ITEM: NUMBER OF ATOMS
2000
ITEM: BOX BOUNDS pp pp pp
-30.0 30.0
-30.0 30.0
-30.0 30.0
ITEM: ATOMS id type x y z Coordination
1 1 -7.56515 4.59457 -15.1184 13
2 1 -0.31629 -11.3432 -3.94122 17
3 1 6.91374 5.95471 13.4613 17
4 1 8.35574 -12.9211 5.78874 7
5 1 -8.48047 9.39145 1.44326 19
6 1 11.5254 -9.70211 -9.4551 13
7 1 -10.0538 2.97658 -6.44426 23
8 1 2.7806 -7.01927 8.58273 22
9 1 -6.93518 2.35577 -12.358 23
10 1 -12.5587 -7.01913 8.08866 13
11 1 12.0697 3.5299 -10.2196 21
12 1 -1.26193 -12.3548 3.44108 23
13 1 -11.6824 -5.73132 5.51942 20
14 1 4.14075 1.73523 17.4568 13
15 1 0.219992 4.27477 10.0548 21
16 1 -2.3265 9.96979 -8.2296 16
17 1 0.799773 -2.32644 15.1677 16
18 1 -7.61464 -3.58997 -15.0192 14
19 1 -13.9976 -1.31395 12.8811 15
20 1 12.4489 7.23779 9.31599 20
21 1 1.6418 12.3291 -10.7882 21
22 1 2.35028 -0.580551 -15.9204 18
23 1 15.731 0.851237 3.62947 17
24 1 -10.9186 4.67528 -9.1457 19
25 1 -1.90814 -2.46365 -8.72346 24
26 1 -12.8934 11.6181 9.5447 10
27 1 6.21384 -14.3438 5.56237 13
28 1 3.14282 -11.4491 -9.25045 18
29 1 4.87533 -12.263 -2.16462 21
30 1 -6.45443 -10.3255 -9.60717 14
31 1 -14.3456 -4.44424 12.2265 10
32 1 1.82467 -7.87444 -14.0952 18
33 1 8.72721 -8.48381 -9.63481 21
34 1 -1.12402 5.45471 -16.4998 12
35 1 2.42712 3.56351 12.4363 19
36 1 0.909276 -9.38195 8.61696 18
37 1 4.41793 -5.70679 12.1701 14
38 1 -16.8534 2.97728 2.73091 8
39 1 -14.1679 -2.3465 8.58284 15
40 1 -10.5455 -0.585014 1.92664 20
41 1 -3.13552 13.2734 -2.42956 16
42 1 0.104225 -15.5924 -11.0673 11
43 1 3.07235 -3.5313 -11.8143 21
44 1 3.60347 -6.59949 -11.8811 22
45 1 -1.69525 -1.53382 15.7646 10
46 1 -10.8971 6.32917 1.81613 16
47 1 2.7672 12.6842 -13.2864 14
48 1 -0.320734 12.3635 6.7669 21
49 1 -5.3611 7.06563 -10.593 19
50 1 -3.99885 13.9069 0.242973 19
51 1 6.98644 -11.2012 0.677154 19
52 1 6.14739 -5.88561 -3.89725 21
53 1 3.71351 -5.99762 -15.5662 22
54 1 -10.5495 10.4455 11.2468 13
55 1 -12.13 -4.12788 -6.78816 21
56 1 7.925 -2.36586 1.70912 23
57 1 -8.66027 11.6598 -1.26763 20
58 1 -9.75166 -11.0276 5.69281 18
59 1 -1.67519 10.8453 10.4491 22
60 1 -12.6831 7.38072 -8.8753 12
61 1 -7.54348 9.93311 12.1186 17
62 1 -7.90124 -13.7068 5.36105 18
63 1 3.40165 6.11144 6.35159 21
64 1 2.98151 -15.5375 -8.62085 12
65 1 3.78962 12.3922 13.0173 15
66 1 -13.6089 0.827908 -9.13618 12
67 1 -10.9972 6.03434 -11.7156 11
68 1 7.29735 8.19861 15.1491 19
69 1 12.5011 -1.00899 -12.13 15
70 1 9.47194 -11.2171 2.6705 12
71 1 -18.0782 -3.31314 0.169499 6
72 1 8.01109 16.4385 6.63283 10
73 1 7.21639 0.516438 17.8555 9
74 1 -11.2054 -14.5526 6.2462 11
75 1 -14.3324 1.00727 -4.17467 12
76 1 12.7842 1.00354 8.19492 16
77 1 7.48361 -3.21286 -3.77453 19
78 1 -4.98671 10.7612 10.3664 18
79 1 6.67908 0.426367 7.40345 22
80 1 -3.51527 -4.8939 -8.85059 22
81 1 -15.057 8.99854 8.77679 11
82 1 -11.9361 15.7713 -2.60596 7
83 1 -5.2669 9.30065 -8.04511 17
84 1 7.85964 -0.92868 -6.10078 20
85 1 7.90412 13.0522 -5.79427 13
86 1 6.55753 -5.13346 1.0764 22
87 1 6.7936 -8.0732 6.54293 16
88 1 -6.02453 12.6875 -3.6922 21
89 1 -10.8561 15.8405 1.21839 12
90 1 -11.5791 -3.09284 6.99891 18
91 1 -3.67512 8.12006 4.54292 20
92 1 -3.90902 -6.71243 9.45336 20
93 1 14.6975 -10.0193 -4.22997 13
94 1 -10.1882 0.573727 6.89053 18
95 1 -10.3491 -11.5931 2.71272 15
96 1 9.09685 -10.3006 -7.50113 22
97 1 4.22373 1.04367 -11.1113 18
98 1 -6.95261 -3.99809 -18.2498 7
99 1 0.119253 14.0992 4.03572 22
100 1 -7.70024 7.35827 -13.1087 15
101 1 5.18403 7.30343 17.6746 8
102 1 -0.0553791 12.8647 -4.2727 18
103 1 -13.3634 10.833 0.21412 9
104 1 0.12724 12.01 2.1127 22
105 1 -2.61343 -6.46313 12.3882 12
106 1 16.195 3.11108 5.60516 13
107 1 -2.33929 -6.24991 -6.45457 22
108 1 7.18712 -6.46507 -7.9852 20
109 1 -2.95386 4.43267 10.1242 19
110 1 9.28783 2.06931 14.916 20
111 1 -9.15476 -5.7353 -0.325026 20
112 1 -8.46676 -6.11084 -6.2573 17
113 1 12.3308 -9.20588 1.45846 12
114 1 -1.98267 9.3011 2.45877 22
115 1 2.24805 2.02215 -13.6781 17
116 1 1.73182 16.5927 -1.1275 16
117 1 -8.77729 -15.9402 6.86116 14
118 1 -10.3197 -16.6994 4.07195 10
119 1 3.70498 -8.63083 -17.0707 10
120 1 2.80248 6.33486 -9.16384 18
121 1 11.17 -10.3472 -0.475515 16
122 1 -1.8175 -16.9204 5.09278 15
123 1 -8.05449 -8.00824 1.35644 21
124 1 15.3068 7.05129 10.4603 14
125 1 14.6774 -5.7506 -8.59284 10
126 1 -15.8587 -5.43895 3.08709 11
127 1 6.42124 8.12434 4.52053 20
128 1 13.2406 6.38208 1.24175 14
129 1 -7.74707 7.11342 17.0516 10
130 1 -4.03172 8.8844 12.5565 15
131 1 -3.23525 15.2089 -8.97206 11
132 1 0.131681 -5.58534 -9.01171 18
133 1 7.88976 -9.51955 -12.5984 12
134 1 3.44201 15.3955 -11.699 10
135 1 7.83192 -5.24639 12.0105 13
136 1 -2.53733 -2.02849 -16.3871 22
137 1 -5.38864 7.33705 -5.30382 17
138 1 7.70511 5.15565 -6.05198 21
139 1 -8.82071 11.4346 -6.04977 17
140 1 -8.22055 15.017 -2.94381 15
141 1 6.5534 0.482824 -8.87799 20
142 1 9.08981 -9.65467 4.86313 14
143 1 -11.3117 6.39817 -6.45761 20
144 1 -9.08313 15.1177 7.31146 10
145 1 12.7314 5.39167 -7.26182 17
146 1 6.01732 12.1056 -3.75409 21
147 1 -3.90294 17.215 0.678914 19
148 1 7.90623 11.7657 -1.25983 18
149 1 -2.24906 8.98837 -3.44199 19
150 1 1.63735 19.5203 -8.1852 5
151 1 3.15686 9.05673 -10.4973 18
152 1 -10.1923 -8.59883 3.58459 19
153 1 -12.9468 8.07337 -3.33366 12
154 1 -5.22375 -2.61118 -14.0272 21
155 1 5.84617 -11.7765 -10.4955 19
156 1 12.7587 13.1173 10.8444 6
157 1 0.138397 12.8077 11.7859 17
158 1 -12.0723 0.964843 -6.63509 18
159 1 -9.30966 12.6518 1.88958 19
160 1 16.1315 -1.56801 -4.13823 16
161 1 -8.39414 2.24831 -14.9018 11
162 1 6.24518 1.83312 15.1576 18
163 1 11.2794 15.2591 -0.568747 7
164 1 -3.12349 7.9964 10.1325 21
165 1 3.93362 -12.0774 -13.7994 12
166 1 -6.8871 16.2601 4.84962 13
167 1 0.189481 12.6005 -7.93526 22
168 1 2.91266 -2.6245 12.5024 18
169 1 -9.13369 -4.93805 8.05703 15
170 1 0.610721 -13.4672 -13.8062 11
171 1 -7.29547 10.2022 -9.84429 16
172 1 -2.97147 -9.68372 3.99732 20
173 1 2.27198 -14.631 -4.87482 18
174 1 -2.69008 13.8187 -12.4047 12
175 1 -16.0758 3.22956 10.6257 12
176 1 12.596 9.80855 -3.7397 12
177 1 -9.58272 8.83054 15.1244 11
178 1 0.870215 -6.25887 11.9348 13
179 1 -7.52291 6.26991 -3.32261 19
180 1 3.39281 15.9977 4.24672 15
181 1 0.259979 6.25742 7.26559 23
182 1 16.0196 3.0308 11.7478 11
183 1 -8.47677 17.8644 2.46609 8
184 1 10.2126 -7.22466 -7.27311 18
185 1 -8.19928 12.0309 9.83963 11
186 1 -8.20929 5.34998 -6.22751 20
187 1 14.7211 -7.18963 1.81597 10
188 1 -7.81773 -8.18129 6.32355 19
189 1 -16.517 -3.0088 6.07483 8
190 1 -11.9719 -8.78071 0.806228 19
191 1 11.7291 4.29561 16.5889 14
192 1 -13.3638 2.29962 -1.59633 16
193 1 -0.0372525 -14.1712 1.14456 20
194 1 4.75227 -8.52677 -3.66205 20
195 1 -1.77397 10.9945 4.60145 22
196 1 4.51533 11.1108 9.73118 20
197 1 -8.64476 -0.239573 -6.06305 25
198 1 -1.40894 12.3287 -10.4206 19
199 1 -11.5659 -2.3673 -4.06608 21
200 1 -8.94062 -2.68787 11.1122 17
201 1 0.111017 -14.3056 5.11414 19
202 1 3.6447 -13.6149 6.16665 17
203 1 -12.3896 12.8487 2.28724 11
204 1 17.473 3.41895 -0.797281 12
205 1 8.06313 3.29334 -3.19099 23
206 1 -6.11933 -8.08367 -14.2349 6
207 1 3.68186 -1.73386 9.67361 19
208 1 6.17602 -17.9979 2.50671 8
209 1 -1.99449 8.4572 -10.8843 20
210 1 6.3911 -10.1067 -8.35462 22
211 1 11.3169 -1.335 -15.2381 11
212 1 2.31339 4.90564 -16.3591 13
213 1 -6.53421 -3.12263 -6.21916 22
214 1 -1.47425 14.8837 -6.71329 18
215 1 -9.01267 -13.0377 8.10359 15
216 1 8.00564 16.1234 -0.160996 10
217 1 -9.75024 5.82733 14.985 14
218 1 -5.09228 10.4819 -5.22762 17
219 1 9.95337 0.066421 6.5513 17
220 1 -2.51422 -6.29707 -11.361 20
221 1 -4.24873 12.2016 -9.77963 17
222 1 3.17549 3.60383 -11.2756 20
223 1 -6.6605 -9.31558 3.72392 18
224 1 -12.9692 6.86626 6.75883 19
225 1 -8.03073 9.2256 7.01285 23
226 1 2.57673 -10.1992 -11.6984 22
227 1 -6.04029 -11.0731 1.10011 20
228 1 8.56096 -11.9861 -2.42308 17
229 1 12.7748 6.4227 15.0255 14
230 1 5.49933 8.87644 -9.03281 19
231 1 -2.14556 10.9927 -0.43463 22
232 1 -12.9526 -2.9396 3.68961 21
233 1 -12.0496 10.8474 -2.39136 14
234 1 2.25246 6.33502 10.15 19
235 1 5.34419 -16.8698 0.0663426 14
236 1 11.3704 -1.09975 -1.13833 17
237 1 3.1702 8.39207 4.31652 21
238 1 -8.64665 5.32486 9.40425 19
239 1 -13.6547 -4.8952 -4.15929 16
240 1 7.17575 2.64136 -16.6682 9
241 1 5.19879 -1.1445 13.3411 15
242 1 8.48081 9.2068 -10.1089 13
243 1 2.79116 -11.3243 -4.39016 21
244 1 -4.01022 0.884787 -14.6558 22
245 1 1.44328 -16.9648 5.7685 11
246 1 16.2341 0.933163 -6.66554 16
247 1 -8.36739 -2.34672 7.41182 20
248 1 7.27804 -17.069 -3.82084 5
249 1 -9.29094 -3.63992 -5.93082 20
250 1 3.29416 13.5351 -0.204554 21
251 1 3.53726 -2.97613 -15.4718 23
252 1 6.52179 2.94342 12.4652 16
253 1 11.5576 3.12622 -3.36364 17
254 1 11.3293 -1.44677 -8.13593 16
255 1 -8.55167 -2.45003 -8.65861 21
256 1 -10.8096 1.51115 -8.7684 20
257 1 -7.97126 -18.309 5.08918 10
258 1 11.157 -1.11614 10.5626 18
259 1 5.35749 -2.82658 7.24883 21
260 1 -1.98409 -8.16327 -8.73954 19
261 1 2.51207 -8.94693 5.67567 19
262 1 1.18053 4.85297 -13.8277 18
263 1 3.31499 10.9911 2.18949 20
264 1 -6.6192 -5.25207 1.80603 23
265 1 -1.28257 15.3898 6.33755 18
266 1 -6.84245 -1.58894 13.1103 13
267 1 -13.4573 -5.45953 -9.41892 12
268 1 -7.83096 -8.2946 -11.6132 13
269 1 -2.09182 12.9588 -15.3774 10
270 1 -4.15449 -9.30009 -6.43812 18
271 1 -4.63755 -12.4553 3.75785 19
272 1 7.35266 -7.0626 -14.8554 19
273 1 13.5906 0.680216 -10.506 20
274 1 13.107 2.89338 3.06798 19
275 1 -8.28104 -6.8632 9.92917 16
276 1 -1.60778 -8.24365 0.654805 22
277 1 12.4568 1.35727 15.8857 14
278 1 -5.18976 -16.8297 0.416029 10
279 1 2.14786 -16.4989 -0.220775 16
280 1 -5.54435 15.8413 -2.99959 13
281 1 7.34981 1.8104 -12.634 20
282 1 -4.07306 -5.02384 -16.1654 18
283 1 -8.83504 -5.10787 13.227 8
284 1 7.54049 5.18019 19.0804 8
285 1 1.75816 -12.9241 3.36907 21
286 1 -2.75778 -10.5129 -10.2308 16
287 1 -9.54638 7.44724 -9.0279 19
288 1 10.6314 4.25286 8.61582 18
289 1 -8.31862 3.74357 -8.95025 21
290 1 0.249963 5.8002 -10.8691 20
291 1 4.12083 -16.3011 -6.15719 11
292 1 -7.92631 14.4106 -5.88056 11
293 1 0.333229 14.1845 9.20089 14
294 1 12.7211 3.70019 6.05991 20
295 1 -8.43062 -0.432694 4.33743 20
296 1 -0.274775 -3.55856 12.614 17
297 1 -6.93215 6.39786 1.68088 23
298 1 4.92423 -8.09199 -9.86358 22
299 1 12.5645 8.91984 -7.3267 12
300 1 1.45324 -7.97583 0.945497 18
301 1 -0.288625 1.46696 15.2275 19
302 1 -17.7031 -0.0509005 0.679849 13
303 1 -0.181764 -15.6661 -2.06009 21
304 1 -9.91587 7.93425 9.61357 19
305 1 -11.4087 7.22906 12.482 14
306 1 -16.5022 -2.59873 10.7751 10
307 1 -14.9986 -5.41811 9.55847 9
308 1 15.547 -4.63816 -5.36305 17
309 1 -10.4956 -8.81527 8.39932 13
310 1 6.87881 -1.1795 -11.2863 19
311 1 8.72916 -11.9305 -10.3286 15
312 1 -0.709137 18.4676 0.458632 11
313 1 -10.513 13.0085 -3.79286 16
314 1 7.5315 6.25796 10.906 22
315 1 -9.84698 -3.60397 4.40903 19
316 1 10.9383 -7.59522 -1.50613 17
317 1 -5.25614 9.12435 1.63874 19
318 1 -5.15298 10.8016 4.9747 23
319 1 4.53222 -9.23538 8.4489 18
320 1 13.1316 -6.39758 6.80933 11
321 1 -3.08728 6.14321 6.98361 22
322 1 -7.64206 -5.31423 -3.31344 22
323 1 -3.24919 1.41568 15.3673 15
324 1 -3.78743 13.9343 5.02798 20
325 1 9.90975 7.04189 17.1494 12
326 1 -6.47759 12.4557 -8.44051 13
327 1 0.822196 -2.78841 -16.8531 17
328 1 4.45294 -8.55351 -13.6887 17
329 1 -8.3479 7.22375 12.7608 22
330 1 -10.0397 2.50991 4.58988 18
331 1 -5.47052 -2.36459 -9.19107 20
332 1 -5.42878 11.2345 -0.600639 23
333 1 8.45974 -2.61931 7.31779 20
334 1 -8.92299 -10.7446 0.00733216 19
335 1 8.09927 -6.69856 3.82691 20
336 1 -6.08713 -12.0878 10.1878 11
337 1 -15.2416 7.94963 -0.88906 6
338 1 -1.47178 -4.24612 9.94678 22
339 1 7.81684 -12.7213 -7.66148 19
340 1 -5.53699 4.06033 -10.2558 19
341 1 8.38907 -1.92321 -13.7742 21
342 1 5.52399 16.1952 1.74934 19
343 1 -10.3766 0.674155 -3.89675 21
344 1 6.46277 -4.04154 -16.3395 20
345 1 6.21404 4.8014 -11.43 17
346 1 -3.67359 -14.2523 -6.81048 17
347 1 -12.6843 -8.11517 -3.71974 13
348 1 -6.81942 -9.01923 -0.836682 16
349 1 14.3532 3.46531 14.6446 14
350 1 9.77549 1.67376 -5.64981 16
351 1 -8.06568 4.91549 -11.8233 18
352 1 1.17528 17.5379 4.91528 12
353 1 -15.998 -2.90478 -4.20783 9
354 1 -8.76264 11.2699 4.88095 19
355 1 -6.4378 12.2754 2.42401 21
356 1 -6.88265 6.11855 6.71184 22
357 1 10.962 4.07456 13.7631 20
358 1 13.7224 -2.99653 -6.51836 16
359 1 7.69535 -2.83139 13.3205 17
360 1 16.7454 0.134368 -9.66905 9
361 1 -5.8828 -12.2004 -6.8259 17
362 1 1.24906 -8.35223 -4.13986 22
363 1 1.51127 11.012 4.65523 23
364 1 -7.08017 2.51611 -6.1719 22
365 1 6.36607 -9.3249 -1.47259 22
366 1 12.1775 -2.13404 6.35958 20
367 1 -8.50071 -1.90741 -3.23468 22
368 1 -4.59343 -7.96239 1.41405 20
369 1 -5.99127 -5.80048 11.6581 16
370 1 -3.14384 11.8992 2.37804 23
371 1 -12.1667 -6.25956 -1.3997 20
372 1 10.2268 6.93938 14.3213 19
373 1 -9.013 5.17837 -0.742024 23
374 1 3.19427 15.3874 -8.83923 15
375 1 1.74248 14.8013 6.36665 18
376 1 -13.6073 -9.84378 -1.53154 10
377 1 1.01639 -6.38149 -6.3982 19
378 1 -14.2616 -1.19495 5.4596 16
379 1 -10.7662 8.24615 -0.680067 21
380 1 6.69511 -9.66 3.25812 18
381 1 -2.67162 -15.1573 -0.656872 22
382 1 8.01035 11.8245 10.0824 17
383 1 1.51653 9.57059 -13.8381 16
384 1 -10.5884 2.54744 -11.7147 16
385 1 -0.237022 15.0301 -10.1987 18
386 1 -11.2496 6.36972 -3.51215 15
387 1 -2.57686 -11.9118 6.48711 22
388 1 13.7642 0.337466 1.13473 18
389 1 -4.44877 8.30086 -13.3978 15
390 1 -3.66574 1.73576 9.72434 22
391 1 -14.2788 -0.192294 1.77832 19
392 1 -8.53133 3.09801 7.46613 22
393 1 -7.7964 -12.4513 2.95046 19
394 1 11.3212 -9.00966 -4.79737 21
395 1 -12.1705 0.861862 4.4819 19
396 1 -16.7824 -0.980971 13.8091 6
397 1 -15.2703 4.4399 5.35497 13
398 1 0.448857 -5.41083 6.81462 20
399 1 -5.33719 3.1903 -16.7317 11
400 1 9.72349 -11.7948 -5.14292 18
401 1 0.162458 -10.574 -9.61266 20
402 1 -2.82304 -1.46608 9.66829 24
403 1 -3.60025 0.659769 -18.3541 11
404 1 4.75281 -12.6561 3.01396 19
405 1 1.17891 10.7786 -6.06109 22
406 1 -12.506 9.85241 5.99751 11
407 1 -4.2259 -0.10259 12.972 18
408 1 -10.4691 -6.06516 -8.34423 21
409 1 -6.2242 -5.23 7.98427 21
410 1 9.3977 -6.45035 8.92993 12
411 1 2.90258 0.372088 -8.76293 22
412 1 10.4083 -6.49759 6.26646 18
413 1 12.8434 6.18928 -4.42202 16
414 1 1.49188 4.33618 15.0598 19
415 1 0.218748 13.6179 -0.803434 21
416 1 9.96766 -5.35918 1.8205 20
417 1 -1.49459 -12.6519 -1.05315 19
418 1 -5.86735 6.41318 15.1944 17
419 1 -3.05055 15.3853 8.25975 12
420 1 -5.17531 -7.84774 -9.10482 20
421 1 8.79825 16.3568 2.9258 10
422 1 5.78528 5.96185 7.96415 17
423 1 -6.73522 2.42608 10.0951 19
424 1 -5.24419 -7.78425 -3.42694 19
425 1 -11.2763 1.8672 9.72804 15
426 1 -10.4878 -5.40281 -3.76303 19
427 1 -6.62154 12.277 7.48428 18
428 1 -4.81677 -10.9158 -3.94131 21
429 1 -1.46791 -9.83755 -12.6507 14
430 1 -5.18498 -13.0287 -1.05526 15
431 1 -5.05785 -6.35079 4.97616 21
432 1 7.93886 -0.770299 4.75779 21
433 1 -3.45351 -2.84792 12.1764 16
434 1 -9.54992 9.11275 -11.5531 12
435 1 8.18397 3.51544 1.01888 19
436 1 -8.99386 -12.13 -5.20752 14
437 1 -3.72778 18.3961 -1.81848 9
438 1 -2.82731 6.41475 -8.27545 15
439 1 -0.148795 7.8659 9.90969 21
440 1 -11.7853 2.2729 1.5062 15
441 1 -2.79099 17.1675 -4.44744 11
442 1 6.48796 15.7971 -3.57848 13
443 1 -7.31471 -5.36739 -9.38447 23
444 1 4.26795 -1.1428 16.1475 15
445 1 5.09189 -14.9256 -11.4247 11
446 1 -0.835746 -3.7902 -11.1957 22
447 1 7.06248 -13.9649 -0.572436 17
448 1 -9.95638 6.05849 6.76118 18
449 1 4.8866 4.49306 14.8394 17
450 1 9.52631 8.65244 -1.52928 22
451 1 1.42306 11.0246 -0.67655 22
452 1 -5.56502 5.15177 -13.3333 21
453 1 1.00241 3.28216 -8.91607 20
454 1 3.55031 -9.535 2.84547 20
455 1 -17.8081 -0.532517 -1.90159 8
456 1 4.82103 14.4776 7.89575 12
457 1 -2.30977 2.29623 -16.3606 17
458 1 7.9508 5.45739 -0.94988 21
459 1 5.46505 14.0534 -5.95165 17
460 1 7.6768 -6.53415 -1.4643 20
461 1 19.3162 0.676249 -1.96272 7
462 1 -1.82935 -0.64067 -12.0182 22
463 1 0.211588 -9.34274 3.61462 19
464 1 -0.695167 -12.2868 9.59483 13
465 1 2.94653 -8.62272 11.1424 13
466 1 -7.39956 0.581914 -9.42921 22
467 1 -11.4824 -14.7904 2.81277 14
468 1 -2.74394 -15.4194 -10.6886 11
469 1 11.2271 14.843 7.51714 10
470 1 -0.385097 0.893181 -14.0843 17
471 1 2.64682 -2.46317 18.4024 7
472 1 -14.3209 4.28341 8.40266 19
473 1 -2.272 -16.8046 -4.09127 13
474 1 -11.6293 -0.760532 -1.28213 19
475 1 14.7703 -8.16987 -5.9937 12
476 1 18.1397 -1.91673 -1.04939 9
477 1 -8.12566 8.36776 -6.15604 21
478 1 4.12281 -6.64713 -6.47773 23
479 1 4.43101 3.05683 -14.2253 17
480 1 9.71935 -4.04313 -6.26418 17
481 1 -8.06797 4.0089 14.8447 18
482 1 3.62099 13.411 3.52729 23
483 1 -4.14011 -2.99542 -19.1599 10
484 1 9.11152 1.29755 -15.2827 12
485 1 -6.01297 -3.43896 10.1393 20
486 1 -4.96146 18.0997 3.86893 10
487 1 -10.0294 -6.28302 -11.5862 12
488 1 -16.5799 3.0919 -0.644276 9
489 1 0.991749 -10.8171 -14.3476 13
490 1 -5.62938 -14.5321 8.36622 14
491 1 0.454764 8.64871 -8.82641 19
492 1 16.2589 5.03878 8.62754 12
493 1 9.40661 6.36905 -3.65705 20
494 1 -11.0246 -11.1804 -2.59688 15
495 1 2.91772 -9.0476 -1.64458 21
496 1 1.26298 -6.02523 -17.0396 17
497 1 -12.0452 13.7442 5.90705 8
498 1 4.844 -2.00375 -8.71605 22
499 1 11.6021 -2.36917 1.43335 20
500 1 2.04103 14.4466 -6.35893 20
501 1 5.34063 -6.33764 3.73419 21
502 1 9.94584 4.21047 -7.41699 17
503 1 5.1367 9.121 12.7537 19
504 1 -11.4519 0.181947 12.8855 15
505 1 10.7219 9.65044 9.25237 21
506 1 7.53006 -2.44588 16.3442 12
507 1 -0.156777 -2.68132 -13.9677 21
508 1 -5.38644 -5.99738 -6.20406 22
509 1 1.93795 1.69864 9.53481 22
510 1 13.2704 8.85378 12.1048 14
511 1 8.17107 6.37186 -8.96485 17
512 1 -8.59818 10.0728 -3.41447 21
513 1 2.81995 11.4975 -3.35494 20
514 1 10.1358 -3.61287 13.8775 12
515 1 13.8156 2.54957 -12.8576 10
516 1 12.0685 -12.02 -2.93404 10
517 1 13.7023 10.0471 9.11581 12
518 1 -14.6085 -6.81335 0.350884 11
519 1 -7.08358 12.2474 -11.9287 8
520 1 -1.17703 1.3027 10.1055 21
521 1 -14.7316 1.81086 13.5617 11
522 1 0.270728 10.5352 -11.7698 18
523 1 3.8737 -11.1169 0.269271 21
524 1 11.0814 1.21584 -12.7966 19
525 1 -4.82089 13.6896 -6.32595 14
526 1 -5.49746 -5.64879 -13.081 16
527 1 4.13442 -14.1439 0.186141 19
528 1 -13.8043 -3.56337 -1.57407 19
529 1 0.655876 11.7852 -15.5309 12
530 1 -1.25465 8.87859 13.0233 20
531 1 -11.2066 -5.85463 10.8629 14
532 1 6.50292 8.28408 -1.69865 20
533 1 3.32717 -9.67242 -6.62059 25
534 1 5.19695 -4.22448 9.93818 23
535 1 9.20525 -1.13515 -2.9021 18
536 1 -9.80107 8.50954 4.73246 16
537 1 8.17926 4.73862 15.843 20
538 1 3.7928 17.0101 -4.7656 10
539 1 13.5115 -7.02087 -2.89738 21
540 1 10.03 14.2669 10.9212 12
541 1 0.904713 2.89149 -17.9864 11
542 1 -5.12889 -17.0327 6.98818 11
543 1 -0.0447456 0.157186 -8.74282 23
544 1 9.19376 -5.56908 -16.4401 10
545 1 3.11922 14.9468 10.8718 10
546 1 7.32441 2.73867 -8.87039 19
547 1 -2.37103 -4.39332 -13.782 18
548 1 -3.38914 -9.46313 -1.24495 22
549 1 -10.7737 -4.02759 -10.6402 15
550 1 14.801 -1.32273 -1.02698 16
551 1 14.3196 4.21101 -2.3085 17
552 1 8.31251 -2.76104 -8.83477 15
553 1 13.3774 5.8652 12.4142 19
554 1 6.25942 -11.1512 -4.72473 20
555 1 4.1971 2.36486 -17.2899 13
556 1 8.13483 11.257 3.28352 20
557 1 -8.44376 3.59448 1.87236 18
558 1 10.3267 11.2969 12.7563 13
559 1 8.0254 9.29929 1.05542 20
560 1 15.7299 -5.06429 4.51787 13
561 1 12.1197 5.37054 -12.7807 11
562 1 13.8164 1.36564 11.3884 19
563 1 14.8495 2.83018 8.32286 13
564 1 2.00826 -4.55218 9.50774 23
565 1 11.7537 11.1561 -1.52379 14
566 1 0.275409 -0.12274 18.0475 10
567 1 14.3682 0.970658 -4.1241 16
568 1 6.32069 2.21912 9.49308 17
569 1 -5.63596 1.68815 -8.57401 21
570 1 12.123 3.31886 0.032577 16
571 1 9.35232 -3.76248 4.80916 19
572 1 -12.522 8.57072 9.38633 17
573 1 9.36234 10.3052 15.7223 9
574 1 12.9357 4.08405 9.84415 18
575 1 1.67968 9.1006 7.1015 21
576 1 1.57375 10.9179 8.85531 21
577 1 7.69518 3.93771 7.67633 18
578 1 -0.836675 -17.0881 1.3183 17
579 1 -1.94559 11.8303 -6.24882 15
580 1 8.93333 10.2117 -7.27097 16
581 1 13.7768 -3.56048 -10.2331 12
582 1 -1.78642 16.1678 -1.60227 19
583 1 -2.98694 -13.8911 -3.52111 20
584 1 11.8821 -6.3763 -10.795 12
585 1 -15.2583 0.361402 10.4103 14
586 1 -3.22443 5.68736 -11.8099 20
587 1 -2.80466 -15.3169 2.66674 20
588 1 -5.20737 -0.168619 -11.5721 23
589 1 -8.51892 3.53839 -3.60808 21
590 1 11.687 -7.66869 3.8641 17
591 1 13.3107 11.5949 1.91288 11
592 1 -1.3469 -8.24038 6.2511 20
593 1 -13.7636 -1.5217 -6.41701 15
594 1 3.04662 -1.2062 -18.3038 11
595 1 -0.434949 6.36269 16.6154 9
596 1 5.31788 11.4187 -11.4098 13
597 1 16.7399 -2.26109 9.40124 6
598 1 4.36497 5.1889 -7.0405 18
599 1 10.9487 10.4684 4.01328 19
600 1 -1.27778 -15.7515 -5.96494 12
601 1 -9.3941 -0.403249 14.7733 11
602 1 13.8677 0.264595 5.76693 21
603 1 -2.17902 11.8288 13.3954 11
604 1 6.60292 11.8517 -8.96035 13
605 1 -13.4269 11.883 -8.78094 4
606 1 7.65686 11.4826 6.11439 19
607 1 -11.0366 -13.9692 -2.80394 7
608 1 12.5926 -4.41976 4.06845 21
609 1 11.7468 14.0306 2.74807 13
610 1 -5.58003 5.07907 8.8807 19
611 1 -10.6244 -5.76783 1.90579 20
612 1 -13.4017 -1.95631 -10.0171 15
613 1 8.1835 -0.130015 12.2811 17
614 1 -2.25722 -9.795 9.15432 15
615 1 11.428 0.71587 13.0987 19
616 1 -7.27569 14.0456 -0.295759 17
617 1 10.0935 6.31379 0.901298 18
618 1 8.41631 5.36009 3.23245 15
619 1 5.86234 -0.559957 -16.5093 18
620 1 -6.68441 0.374681 7.04063 19
621 1 10.3969 -3.39107 -12.5123 13
622 1 12.4418 -10.6711 -6.78582 13
623 1 4.61479 7.98106 9.88631 21
624 1 1.47844 8.79469 1.69306 23
625 1 -11.0872 2.64936 14.3544 12
626 1 9.57305 4.70587 5.64309 15
627 1 -1.46662 -0.65249 13.1641 21
628 1 -0.0840821 5.80702 12.6185 22
629 1 0.267301 -8.35441 -11.4137 21
630 1 -6.58492 5.34655 12.083 17
631 1 3.91238 0.853144 11.2433 19
632 1 -8.11449 -15.4846 2.34895 16
633 1 13.4355 8.33788 -1.84827 11
634 1 4.43665 -12.966 -6.50181 21
635 1 4.40905 10.7527 -0.895195 23
636 1 13.2709 12.4697 5.03866 12
637 1 8.67903 -2.04877 -17.5845 9
638 1 3.22617 14.2999 -3.29035 24
639 1 5.9213 12.6142 1.19443 20
640 1 -7.08797 -9.63761 -6.17198 20
641 1 1.41222 -4.82192 -13.6625 22
642 1 -11.1171 13.5179 -0.505775 16
643 1 8.32627 -8.81346 -4.09271 22
644 1 9.99446 7.14788 -12.4772 10
645 1 9.60755 12.4882 -3.48782 12
646 1 -8.58023 5.30138 4.07295 18
647 1 6.26654 6.1023 -3.89006 19
648 1 15.5863 0.392794 14.2477 9
649 1 13.0734 -1.9231 14.7867 11
650 1 -1.71859 -15.0679 7.45486 13
651 1 -4.83559 11.8718 -14.5082 11
652 1 3.42182 12.0289 6.68628 18
653 1 9.20326 -6.38157 -12.6937 14
654 1 2.9109 1.35321 14.8714 19
655 1 4.61939 16.6845 -1.00223 17
656 1 9.57636 8.97351 5.77361 17
657 1 16.2905 -7.02681 -3.32685 11
658 1 9.01452 3.23098 11.248 17
659 1 -11.4486 -1.38895 9.87891 13
660 1 4.18516 -15.0832 -2.75946 19
661 1 1.31048 -2.85676 -9.00559 22
662 1 -6.85411 17.4664 -0.772054 11
663 1 6.75019 14.142 3.93967 18
664 1 -15.0747 -2.73954 1.04542 14
665 1 -2.29285 4.23422 15.8803 14
666 1 0.597401 8.5376 -16.5287 10
667 1 -3.93261 5.81507 -15.6014 14
668 1 6.8238 -14.9724 2.25749 14
669 1 6.24537 8.30961 -6.3753 18
670 1 -14.6209 6.40106 10.4687 15
671 1 4.73434 -0.954642 -13.325 19
672 1 2.71734 -11.3987 8.65922 15
673 1 -1.55991 14.9533 1.16093 19
674 1 -5.53541 3.72415 17.0301 9
675 1 -7.65915 -3.13634 -12.0109 19
676 1 -2.07522 -13.0522 -11.878 15
677 1 -4.9073 -13.1448 -10.0955 12
678 1 -0.16667 16.69 -7.88306 15
679 1 6.34533 -3.88411 -6.22225 19
680 1 -5.05426 9.20788 7.29249 22
681 1 6.43448 -8.23794 -5.80846 18
682 1 8.06174 -17.3877 -0.152776 9
683 1 4.32958 -5.58207 6.95634 23
684 1 15.0752 2.95294 -8.87782 13
685 1 1.20694 -11.9833 -6.82969 18
686 1 -14.2491 2.04981 6.60359 15
687 1 -2.72613 -18.9047 -0.90225 9
688 1 -8.85526 -8.51048 -9.07306 17
689 1 -8.85306 1.92955 12.2608 16
690 1 -5.28445 -14.4244 1.97955 19
691 1 15.3044 4.00438 -5.50415 12
692 1 -2.1871 18.0674 6.04678 9
693 1 -4.7933 3.0527 7.33625 22
694 1 -12.0246 9.30046 2.95969 10
695 1 9.7001 0.628126 1.57925 18
696 1 -12.5157 0.128089 -12.0159 11
697 1 -0.228906 7.95829 -5.68452 19
698 1 10.2711 1.37874 -8.98576 21
699 1 7.23358 11.5787 13.6375 15
700 1 11.1425 9.33306 1.53422 18
701 1 -13.2088 3.92313 -7.08015 14
702 1 -13.5324 -7.11147 -6.60651 14
703 1 1.15562 3.45218 18.0251 12
704 1 9.46521 4.07804 -14.1981 12
705 1 10.5143 11.4027 6.88682 19
706 1 0.240917 -1.33165 9.88994 25
707 1 -6.12604 -13.8132 -4.09353 13
708 1 -5.0301 -17.4118 3.75548 15
709 1 -2.8731 -5.49174 6.91484 20
710 1 9.10656 7.13874 8.34659 17
711 1 6.74807 -6.56473 -11.4736 19
712 1 -7.29799 8.06976 -0.853692 22
713 1 5.22159 9.20594 1.40039 22
714 1 -6.393 -3.24491 4.82234 22
715 1 6.25748 7.93057 -12.1853 13
716 1 -3.56939 -17.7127 -7.97508 5
717 1 -0.197359 -18.6424 -1.75807 11
718 1 1.52276 -12.9789 -1.71063 20
719 1 4.28915 3.32111 -8.78172 23
720 1 2.3695 17.95 1.60962 11
721 1 -5.51971 -1.56676 -16.816 17
722 1 1.0442 0.957239 12.9803 18
723 1 -1.77877 4.01198 -13.556 23
724 1 -10.192 -0.961483 -10.6299 18
725 1 -10.2571 -3.60366 -1.54855 22
726 1 0.548272 16.6133 -4.42537 16
727 1 -1.64598 -5.1705 -17.1953 14
728 1 -9.31593 -8.1101 -2.05261 20
729 1 9.31839 3.71252 -11.3554 18
730 1 12.3109 -4.73821 -0.449909 15
731 1 -6.26277 7.93105 9.9747 22
732 1 4.88007 -8.50127 0.603622 20
733 1 15.2763 -4.36563 -1.98896 16
734 1 14.2719 -2.25947 12.0532 12
735 1 -1.54443 9.35142 7.17758 22
736 1 -13.2307 4.26793 12.7425 10
737 1 -11.8431 5.16288 8.99347 19
738 1 -3.72077 -14.0486 5.51081 19
739 1 10.1623 2.38274 4.19923 19
740 1 7.81342 9.34079 11.7565 21
741 1 -15.2053 -0.11883 -1.24865 16
742 1 9.61811 -6.18885 -3.84394 17
743 1 -13.8638 11.0693 -5.29262 8
744 1 1.84009 14.9066 2.09148 19
745 1 4.42372 -16.7184 7.54295 7
746 1 4.70919 -3.95027 15.3143 9
747 1 -3.47981 12.0019 7.22305 18
748 1 0.238519 -11.6891 6.28243 22
749 1 -8.62653 -0.431457 -0.510077 23
750 1 4.4148 4.10087 9.97364 22
751 1 -15.0943 -4.03051 -7.18082 13
752 1 0.867799 11.0736 14.8371 11
753 1 4.15443 8.94222 -3.74047 20
754 1 -13.2564 -6.94692 3.37646 14
755 1 -3.23319 -11.4346 0.983766 21
756 1 7.03102 -1.57116 9.92036 19
757 1 13.2674 -2.20584 8.89875 14
758 1 6.9732 9.46095 9.16002 20
759 1 -0.22414 -9.27134 -6.81664 23
760 1 -3.16699 0.382569 -9.62903 21
761 1 -5.19005 2.70063 12.6056 20
762 1 -2.25302 16.5949 3.48689 19
763 1 17.1286 -0.129833 0.741492 13
764 1 2.87777 8.22187 -6.55166 21
765 1 -6.22943 9.05573 14.9926 13
766 1 4.73653 9.1547 6.79569 19
767 1 9.96968 -0.644931 -10.4846 19
768 1 -7.79358 -11.2115 -2.68723 16
769 1 16.683 -2.06772 5.58155 9
770 1 2.27016 -7.90822 -9.34605 20
771 1 1.12755 7.93791 14.8251 14
772 1 8.73007 -14.7691 -10.5398 9
773 1 -0.503663 7.16739 -13.836 18
774 1 -2.12076 -8.61932 -4.45324 22
775 1 12.7234 1.79318 -6.86874 22
776 1 14.853 -3.92963 1.54323 14
777 1 5.99635 -6.6823 9.71443 18
778 1 -2.18398 -11.8495 -6.29528 21
779 1 6.04298 14.2551 -1.10491 17
780 1 -17.1118 2.69958 8.33101 11
781 1 10.2725 7.38016 -6.95295 17
782 1 15.3332 3.85175 1.11861 16
783 1 5.96851 -4.19581 -13.1817 19
784 1 -10.0892 14.8965 4.17194 15
785 1 15.7387 5.27983 3.68365 11
786 1 11.6692 11.6595 -5.98091 8
787 1 1.47445 -1.43166 -11.7274 20
788 1 9.18205 -3.8153 -1.23854 21
789 1 -10.1628 2.71325 -1.00023 19
790 1 11.8032 6.78971 4.10886 17
791 1 -12.3374 -12.7312 0.354207 14
792 1 -10.4994 10.2478 -8.63958 16
793 1 5.19514 3.11219 6.50062 19
794 1 -11.0514 -1.45634 -7.06582 21
795 1 -11.938 3.67302 6.57807 20
796 1 -2.23701 3.13545 -8.9027 23
797 1 12.5378 -5.62439 -5.67579 18
798 1 -12.2065 -8.2447 -9.76357 10
799 1 14.7269 -9.64495 -1.26438 11
800 1 -16.5956 0.233024 3.98369 12
801 1 -11.981 -3.54866 1.04098 19
802 1 14.7782 6.94193 6.74642 13
803 1 -5.9155 -11.1065 6.47362 21
804 1 9.8469 -0.897959 15.8994 15
805 1 14.8893 -3.89961 6.7374 18
806 1 6.54556 -3.50072 4.33566 22
807 1 -12.9741 4.12749 3.62603 15
808 1 2.1071 9.52822 11.8708 20
809 1 3.28828 6.9203 -12.5785 16
810 1 -1.22661 -7.06482 -14.7268 16
811 1 -6.81921 13.9591 4.97831 19
812 1 -12.1194 -9.3037 5.50437 10
813 1 7.7855 9.77457 -4.17118 20
814 1 4.19339 6.30707 12.3035 17
815 1 16.1604 -2.68925 -7.69874 12
816 1 7.359 -5.61698 6.97874 21
817 1 0.389643 14.1037 -13.3665 15
818 1 3.58312 12.3012 -8.47839 18
819 1 -5.59288 -0.654577 10.1706 18
820 1 17.6152 2.98159 2.59674 10
821 1 -3.7717 -2.97793 -11.6613 22
822 1 9.63797 13.9322 5.5553 18
823 1 -14.9365 5.30788 1.52069 11
824 1 -3.25072 -12.9561 9.27143 13
825 1 4.12624 18.295 -10.1303 5
826 1 9.82775 -3.58203 10.5878 15
827 1 0.405865 -11.023 0.934435 23
828 1 -4.65161 15.0012 2.58396 19
829 1 -12.7277 5.08114 -0.493568 17
830 1 11.7449 -0.672067 -5.41386 15
831 1 2.64975 -13.7903 -11.4259 15
832 1 -6.8609 8.25671 4.40004 20
833 1 11.6942 7.01491 -9.82187 15
834 1 -4.77393 -2.43779 7.465 23
835 1 6.3212 -6.88792 -18.0012 11
836 1 -5.12743 -11.0263 -12.654 11
837 1 -0.306003 -9.29083 -1.68663 20
838 1 -2.69468 7.55881 15.1372 15
839 1 6.70589 -13.9358 -4.37992 17
840 1 -1.96753 9.65343 -14.173 18
841 1 17.0454 1.60409 -3.61 13
842 1 6.49201 6.36839 1.72401 23
843 1 1.20857 -17.7183 -3.97021 11
844 1 3.82746 -4.6091 -18.4876 12
845 1 12.0056 -0.233882 3.7192 20
846 1 -3.64131 2.53873 -11.8026 22
847 1 -0.754475 -6.88097 9.44551 19
848 1 4.7682 11.1557 -6.25837 20
849 1 6.6363 2.35486 -6.12433 20
850 1 -11.373 8.92622 -5.92235 18
851 1 -16.6195 6.11576 7.93628 12
852 1 4.08101 4.62543 18.1096 10
853 1 -7.51891 -9.90464 8.67579 16
854 1 5.13505 11.0467 4.42225 20
855 1 0.610696 -15.6999 3.19064 17
856 1 1.01082 8.84013 -3.06998 21
857 1 -2.7736 5.39644 12.5536 20
858 1 -8.57414 0.11466 9.60567 17
859 1 -10.1278 11.7932 7.82835 15
860 1 9.67111 2.10354 -1.23469 18
861 1 -5.62039 -8.88821 10.9456 14
862 1 5.23063 -10.9943 6.35267 16
863 1 10.5998 7.2666 11.4616 17
864 1 13.133 -2.91884 -3.34815 19
865 1 6.23513 -15.5224 -8.95907 12
866 1 -6.96344 -0.542782 -13.8876 17
867 1 -0.297181 -0.0694795 -17.1846 14
868 1 6.07851 14.0851 10.8845 14
869 1 -11.6157 -3.41799 13.6936 13
870 1 -5.07065 4.90555 -7.53127 19
871 1 -12.0217 3.8672 -4.05197 19
872 1 10.6188 11.8899 0.534731 19
873 1 -9.883 -14.0279 0.478026 12
874 1 -0.0796795 7.75487 4.48157 23