ITEM: TIMESTEP
4000
ITEM: NUMBER OF ATOMS
2000
ITEM: BOX BOUNDS pp pp pp
-30.0 30.0
-30.0 30.0
-30.0 30.0
ITEM: ATOMS id type x y z Coordination
1 1 -6.63093 5.71517 -16.0816 11
2 1 -3.03799 -11.3338 -9.08853 22
3 1 0.0863665 10.5437 13.7933 15
4 1 8.06208 -10.5626 3.40314 15
5 1 -12.2436 8.06771 -1.49829 21
6 1 11.1903 -9.68282 -8.72901 14
7 1 -10.8866 5.19519 -7.13334 19
8 1 -0.342568 -6.85455 9.907 21
9 1 -6.67942 -0.102683 -15.7844 11
10 1 -16.2496 -9.99145 3.2886 7
11 1 10.1469 3.89939 -10.8554 16
12 1 -3.02075 -12.1417 2.23311 17
13 1 -12.9778 -9.93952 2.76653 16
14 1 -0.0608168 4.70513 17.6174 15
15 1 -0.321324 10.9881 -9.52809 19
16 1 1.66815 -3.9254 10.275 19
17 1 -5.35916 2.70073 -14.5991 17
18 1 -11.3258 -3.87024 12.9947 15
19 1 13.1654 4.59182 9.23855 18
20 1 -0.235988 8.16164 -11.3944 20
21 1 4.7417 4.91974 -13.5112 20
22 1 10.4264 2.32008 16.2346 13
23 1 -11.6428 2.54786 -8.49417 22
24 1 -7.49216 11.1618 10.4627 14
25 1 7.80453 -9.58208 6.82515 14
26 1 1.75103 -15.4244 -11.8832 11
27 1 10.6459 -8.6266 -3.48012 22
28 1 -6.33942 -12.383 -3.3312 19
29 1 -11.467 -6.66908 13.0309 12
30 1 -0.688509 -7.58549 -13.3818 18
31 1 10.2848 -12.7017 -10.2965 11
32 1 -1.45635 6.11178 -16.9696 13
33 1 -0.156032 4.34884 10.5836 21
34 1 -1.00038 -11.3331 7.2282 19
35 1 2.57431 -2.09449 15.2685 13
36 1 -11.6139 -1.08948 -0.0476681 21
37 1 -14.3806 -2.73508 7.94972 16
38 1 -7.70089 12.0309 -0.367604 18
39 1 -1.67616 -15.78 -11.4581 9
40 1 4.60965 -7.21312 -10.2805 18
41 1 1.1012 -0.0991469 17.4672 10
42 1 -9.80988 6.57429 -0.345706 19
43 1 3.46256 12.9867 -13.003 14
44 1 -2.3499 12.4529 10.7347 21
45 1 -10.0954 3.34588 -10.9073 19
46 1 -0.0177407 15.9285 0.384562 19
47 1 2.13673 -10.3036 3.27507 20
48 1 7.76977 -6.94209 -5.38026 20
49 1 4.47692 -8.74606 -16.1945 12
50 1 -11.1075 10.532 10.6789 11
51 1 -15.7278 -1.66539 -8.31093 9
52 1 -6.48456 8.02138 -4.54633 18
53 1 -8.37689 -10.2368 7.29004 20
54 1 -3.96926 13.859 13.5479 12
55 1 -15.3405 6.35303 -6.59547 9
56 1 -5.11427 11.1219 11.4357 19
57 1 -4.60013 -15.3659 7.29368 14
58 1 4.37906 -16.251 -0.736739 13
59 1 6.69697 14.8548 13.1356 8
60 1 -12.3285 2.31757 -11.8721 18
61 1 -13.191 5.67947 -9.58243 14
62 1 5.80908 9.5352 11.0054 17
63 1 9.93291 -4.63779 -12.703 12
64 1 8.3801 -7.25267 8.06954 18
65 1 -16.0062 -5.09461 2.61833 10
66 1 7.87066 14.992 4.70138 12
67 1 5.35699 -1.63092 13.548 14
68 1 -9.16252 -12.7093 4.9882 20
69 1 11.1865 4.57588 7.19637 18
70 1 -0.443662 13.8296 13.8018 11
71 1 -2.75192 -8.59213 -7.09811 20
72 1 -13.4031 6.29858 6.03989 17
73 1 -8.92971 9.2738 -0.630021 20
74 1 -2.44275 7.00336 -13.1008 20
75 1 11.2509 15.6586 -5.34545 10
76 1 8.07574 -9.02561 10.5038 11
77 1 -5.17243 16.2108 -5.47379 11
78 1 -11.5645 11.0137 3.0132 17
79 1 -5.94563 -1.37122 13.7477 20
80 1 -6.18009 -7.07416 6.85742 24
81 1 10.3479 -6.95561 -6.61396 20
82 1 -8.5516 3.14166 5.08886 23
83 1 -11.6753 -12.7079 2.06279 18
84 1 13.9171 -9.34809 -3.28334 12
85 1 4.70986 1.7297 -11.6113 21
86 1 -3.00119 -2.08781 -14.6782 18
87 1 -0.72505 12.5974 2.13723 18
88 1 -9.78293 5.92817 -9.46446 20
89 1 1.11508 9.93926 19.7305 10
90 1 0.869432 13.8113 -3.75759 20
91 1 -14.873 9.42827 1.84688 11
92 1 -6.11033 -9.61942 9.01289 21
93 1 13.7237 -1.14541 9.04524 11
94 1 4.70391 -11.3431 -8.76076 16
95 1 3.88761 0.432971 15.8589 12
96 1 -11.8545 -6.99477 -0.0227829 14
97 1 -8.10492 -7.34535 -5.05223 20
98 1 12.502 -8.60174 0.103532 9
99 1 4.19765 1.99446 -15.1148 16
100 1 3.60522 16.8309 -0.619046 16
101 1 -3.47762 -7.32844 11.2564 18
102 1 -12.76 -11.6858 8.93543 11
103 1 6.40965 -11.2652 -13.7268 14
104 1 8.50657 -7.81893 -1.82104 20
105 1 0.340963 -14.0949 9.7728 9
106 1 -8.72089 -7.97037 1.01581 20
107 1 15.5766 7.09798 11.0503 8
108 1 13.7324 -1.32083 -8.74067 12
109 1 -14.1481 -5.35336 -0.368727 16
110 1 13.6266 7.14346 1.85105 17
111 1 11.9696 10.895 -1.19334 15
112 1 -4.17533 3.16159 18.0447 13
113 1 -4.81 11.8887 6.42783 15
114 1 -5.54359 10.4383 -6.63949 20
115 1 -0.539379 -7.14249 -9.56459 23
116 1 7.36706 -13.5601 -11.2701 12
117 1 1.3504 14.304 -11.4323 14
118 1 8.46793 -0.818368 14.8189 12
119 1 -0.454029 -2.1685 -17.1433 17
120 1 -3.61887 9.72073 -8.39068 22
121 1 10.2824 1.49051 -4.74418 21
122 1 -11.4053 10.7461 -6.93576 13
123 1 -8.95619 11.8237 2.11543 21
124 1 5.19171 -1.29391 -9.95359 22
125 1 11.198 -6.67493 6.23867 15
126 1 -5.67127 14.978 6.49237 9
127 1 13.9204 6.56992 -6.47353 11
128 1 4.39641 13.8635 -4.11583 22
129 1 -2.12279 17.2867 1.57256 11
130 1 12.7209 13.3308 -2.87656 14
131 1 -3.1221 12.2984 -3.01086 19
132 1 -1.01005 13.7303 -9.61028 16
133 1 2.59294 10.0615 -14.7072 15
134 1 -11.0925 -10.154 5.74204 19
135 1 -14.136 9.4482 -1.7722 14
136 1 -6.35304 -0.749283 -12.9264 21
137 1 0.60628 -11.337 -13.2696 15
138 1 7.97875 12.5402 7.08565 16
139 1 2.12569 14.0094 5.24194 20
140 1 -11.3285 -0.669342 -6.50405 20
141 1 -10.5835 13.4728 4.87688 13
142 1 14.1636 -0.865049 -5.14911 16
143 1 -8.4102 2.86847 -16.253 10
144 1 7.36845 5.32093 14.006 19
145 1 6.92997 14.7104 1.57307 18
146 1 -4.25241 9.2287 8.99146 17
147 1 -1.18205 -8.15241 -17.7961 9
148 1 -5.4154 14.5855 11.1863 12
149 1 -2.42257 12.5755 -6.36684 19
150 1 0.243603 -2.70183 16.3205 12
151 1 -14.4323 -7.79298 1.30508 15
152 1 -3.75606 -13.4577 -11.9713 13
153 1 -9.35938 9.15386 -8.2678 18
154 1 -3.82988 -9.84708 3.59537 19
155 1 4.97741 -15.3921 -3.7175 12
156 1 -4.42072 12.17 -9.06474 18
157 1 -14.3499 3.43242 8.67184 11
158 1 11.0546 7.68041 -6.87543 19
159 1 -6.30293 5.36156 19.0892 8
160 1 -0.156372 -11.0403 10.6644 15
161 1 2.66957 17.058 5.16973 15
162 1 -0.312867 7.18536 9.03637 21
163 1 11.1351 4.82187 14.5963 19
164 1 -7.15515 13.2482 4.70405 19
165 1 13.4855 -4.75314 -7.59192 11
166 1 -6.76709 13.6273 9.03659 12
167 1 13.9968 -6.60552 -1.98413 12
168 1 -14.7358 -2.41782 4.4687 14
169 1 -9.61408 -10.3549 3.25572 21
170 1 5.06223 6.76175 15.5357 22
171 1 -13.7255 0.818361 -3.43304 18
172 1 -4.32381 -16.1612 1.30543 13
173 1 -3.2482 9.31016 5.39475 20
174 1 2.31194 11.6824 15.05 10
175 1 -8.09909 12.1372 -7.62053 11
176 1 -14.4144 -4.62756 -7.05486 12
177 1 -9.01541 -1.71418 12.1884 17
178 1 -0.866669 -9.24653 4.93148 19
179 1 6.12834 -12.2785 5.29312 14
180 1 -13.8711 9.16867 4.88081 13
181 1 14.3432 4.16429 2.11344 14
182 1 -5.60192 -8.34696 -13.3393 20
183 1 5.51906 1.32681 12.4578 18
184 1 3.57562 -17.7327 2.61945 14
185 1 -5.58262 8.10485 -11.2897 21
186 1 3.64811 -15.1266 -14.7622 7
187 1 4.65294 -0.973338 -13.1875 19
188 1 4.76387 8.62088 -16.633 9
189 1 -6.47089 -3.99617 -8.01169 22
190 1 -2.35042 15.0273 -4.73879 21
191 1 -9.70558 -11.5694 9.92188 14
192 1 6.32966 16.1538 -1.09425 11
193 1 -7.68409 -0.829129 16.5598 10
194 1 -9.96302 11.9064 -2.57509 12
195 1 7.62118 0.48237 10.1192 20
196 1 -2.87887 -10.7028 -13.0538 21
197 1 -5.57925 11.308 -12.6685 11
198 1 1.95568 4.00638 -12.1212 21
199 1 -7.7198 -11.5068 11.9627 13
200 1 -9.18349 9.50938 8.72322 17
201 1 -8.4744 6.68784 10.9222 19
202 1 -1.58005 -13.0012 -6.92472 18
203 1 -6.22286 -15.7425 -1.55761 11
204 1 10.0065 -13.5709 -2.19204 13
205 1 11.739 8.76849 16.222 8
206 1 4.78554 11.2536 -9.57006 17
207 1 -11.1325 14.2306 1.11473 10
208 1 2.23209 6.87084 10.9251 20
209 1 0.737883 -18.0427 4.04844 12
210 1 10.9871 -1.58735 -3.58487 22
211 1 -8.38475 6.04085 3.66548 20
212 1 -9.37599 -4.96575 -3.41611 19
213 1 9.7519 2.32033 -13.6288 11
214 1 4.85393 -4.26198 12.352 16
215 1 8.09202 15.2061 -9.83968 14
216 1 -3.14431 -2.28059 -11.7898 20
217 1 0.453019 -14.1905 6.16514 18
218 1 8.04037 -1.87511 -8.08773 21
219 1 -11.3613 -1.36034 3.44922 21
220 1 1.34099 -15.9899 -2.17351 15
221 1 -11.81 -3.50877 -8.5279 19
222 1 2.51893 14.55 -1.33243 21
223 1 7.12015 -7.18588 -17.505 8
224 1 4.37992 4.12543 13.855 20
225 1 14.2983 4.68751 -1.28119 18
226 1 6.7638 -7.78324 -12.0392 16
227 1 -8.51125 -7.51578 -13.5993 12
228 1 -11.1908 -0.384818 -9.80336 18
229 1 -5.50518 -13.5366 10.097 12
230 1 10.577 -1.06814 10.1968 18
231 1 -3.27167 -8.43989 -10.5982 23
232 1 1.64161 7.2153 -13.2457 19
233 1 1.4389 11.9919 0.444688 19
234 1 -6.02162 -1.3434 10.0746 23
235 1 -10.9143 -6.56466 -7.48643 19
236 1 -4.01055 -4.80291 -9.65027 20
237 1 -3.82417 7.7803 -16.3522 9
238 1 -5.36229 -6.9607 -6.76357 22
239 1 10.8738 -7.79785 -13.9763 12
240 1 10.7033 -1.5833 -10.2946 15
241 1 10.8307 4.46265 3.74547 21
242 1 -7.40906 -3.86775 11.9527 20
243 1 -3.74035 -9.88064 0.0212468 23
244 1 6.08739 6.29442 18.3692 12
245 1 -7.90251 -15.2006 5.75294 11
246 1 0.390257 -12.4941 -0.106389 14
247 1 0.74999 19.133 -3.10958 12
248 1 5.44673 5.48419 -15.9607 10
249 1 -7.99863 -4.39848 -14.0483 14
250 1 -11.1257 -10.0543 11.7753 10
251 1 1.57783 8.61695 15.7481 20
252 1 3.92536 -12.6813 3.22599 19
253 1 -5.41849 -11.1543 -11.5546 15
254 1 -8.64008 4.01959 -8.30827 21
255 1 10.0961 7.33692 5.38098 17
256 1 -6.6946 5.2204 -9.86629 19
257 1 2.61774 7.07988 -9.85314 19
258 1 5.37023 -15.0969 -9.87999 12
259 1 -5.2227 15.2856 2.26578 11
260 1 2.85431 9.48472 5.12288 20
261 1 10.5657 1.71162 5.30522 22
262 1 -9.36568 0.929232 6.60254 20
263 1 -4.76064 -4.80168 13.4235 18
264 1 -5.78467 7.11794 5.38086 19
265 1 1.58698 -9.7743 -15.5812 16
266 1 17.6179 10.0911 -1.31119 9
267 1 4.6104 -11.8729 -1.06602 15
268 1 -3.18776 0.593391 13.633 18
269 1 -15.5561 -4.89186 6.0267 10
270 1 -1.67849 -18.0499 2.08158 12
271 1 -10.6138 5.53887 12.6132 16
272 1 -8.47111 3.17604 14.2604 13
273 1 -13.6784 -4.10241 10.8727 13
274 1 -13.9512 -6.14629 8.51123 14
275 1 16.9754 -0.849886 -4.06361 6
276 1 -11.9561 -7.04612 9.99922 18
277 1 7.02502 -4.91862 -9.87187 19
278 1 9.30995 -12.9297 -5.95672 15
279 1 -0.604659 19.1583 -0.500861 12
280 1 -11.0499 8.43559 -5.06613 20
281 1 8.89721 7.84227 14.6979 17
282 1 8.52359 -10.5587 -2.72712 19
283 1 -6.24604 10.2849 3.90233 21
284 1 5.11508 -9.74465 8.89811 15
285 1 10.4943 -3.78656 4.8584 18
286 1 0.993639 0.1365 14.3438 18
287 1 -1.07371 13.3311 5.83837 17
288 1 6.66995 9.29105 17.1043 16
289 1 -7.00031 14.021 -3.07077 11
290 1 -3.23634 -3.87134 -17.1837 19
291 1 4.53894 -9.65732 -12.9239 20
292 1 -9.04022 3.05711 11.2702 18
293 1 -11.9481 1.88279 2.04416 19
294 1 -6.46219 9.74445 0.339685 22
295 1 8.31541 -2.33367 8.43145 20
296 1 -8.9439 -11.1502 -0.144773 21
297 1 5.7049 -6.86212 6.77652 22
298 1 -6.12704 -8.41567 12.6224 16
299 1 -14.8188 6.5254 -0.00906333 16
300 1 2.04503 -10.574 -6.95788 18
301 1 -5.61534 -1.0867 -10.0006 20
302 1 8.52532 -6.23567 -14.8784 13
303 1 3.02775 11.7362 7.06936 20
304 1 -10.9619 -1.86458 -3.51313 20
305 1 3.34894 -11.6265 -15.7832 11
306 1 8.30678 0.162262 -16.0278 11
307 1 -5.07581 -14.5948 -6.32615 14
308 1 -12.3148 -10.6132 -3.2478 11
309 1 9.16629 7.87 18.1347 12
310 1 11.1229 3.76689 -2.9501 24
311 1 -9.0009 1.26611 -13.4041 19
312 1 4.94485 17.2273 2.34981 12
313 1 -14.303 -1.82176 -5.53747 14
314 1 -9.7243 6.30092 6.82986 20
315 1 -12.2691 11.0096 0.0587125 17
316 1 5.89537 3.28565 16.0452 15
317 1 11.1783 -1.03042 -6.87092 19
318 1 8.35116 2.3069 14.6241 18
319 1 11.828 4.23995 -6.01261 22
320 1 -8.2816 -13.8798 -1.24079 17
321 1 5.18572 -9.36671 -1.83506 23
322 1 10.7599 -0.969525 7.08799 21
323 1 -9.20007 -4.57101 -6.86938 19
324 1 -6.87661 -10.0546 2.0545 21
325 1 -10.0999 -4.9969 10.4671 23
326 1 -3.29051 14.6666 8.4109 13
327 1 -9.0843 -11.0128 -3.40569 15
328 1 5.68279 12.7317 16.0613 9
329 1 -9.05178 7.32891 -2.87092 22
330 1 2.26918 13.2397 -9.21822 21
331 1 12.0472 9.30145 3.18533 21
332 1 -10.7235 -9.4784 -5.67936 14
333 1 -4.3025 -10.8945 -5.87218 21
334 1 -11.4996 -1.10144 6.68703 19
335 1 -14.4138 9.20377 -5.25185 13
336 1 8.32019 -7.51426 4.60506 17
337 1 -2.96284 -13.1956 -0.92265 19
338 1 11.2874 12.4366 8.03283 14
339 1 7.1073 7.84055 -14.0573 11
340 1 -11.309 3.5868 -14.3869 8
341 1 -2.64189 15.1195 -7.64601 13
342 1 -8.56736 6.5954 -6.37925 19
343 1 -0.199039 -12.2214 3.96023 19
344 1 14.0399 4.41942 5.60096 13
345 1 0.0230846 10.1081 -13.1256 19
346 1 -14.8164 0.815997 -0.129206 14
347 1 -5.90112 -12.4736 3.56117 16
348 1 8.2081 -7.17249 -8.48987 19
349 1 -12.473 1.09736 4.7435 16
350 1 -14.1004 -0.698484 11.2706 10
351 1 -11.977 6.85269 9.90081 17
352 1 -3.04688 3.0807 -18.5336 13
353 1 7.04366 -11.7822 -7.10157 19
354 1 -6.48319 -8.75165 -16.0631 10
355 1 -4.40686 -4.70312 9.71479 22
356 1 -3.08859 0.422405 -15.8333 19
357 1 4.95758 -9.71529 4.97694 21
358 1 3.07017 11.7441 -2.63625 21
359 1 -11.9357 11.4504 7.18237 10
360 1 -3.23128 -2.19062 15.001 15
361 1 -10.719 -4.92886 -12.5512 12
362 1 -9.35168 -4.84303 6.72556 23
363 1 10.6256 -3.54143 15.2539 6
364 1 7.49686 -5.18777 6.39415 20
365 1 13.7455 8.9571 -5.64083 14
366 1 -3.13685 3.5061 11.8644 20
367 1 -1.23379 13.2692 -1.1036 20
368 1 -3.55447 -13.8363 -4.3289 19
369 1 -3.50957 6.52401 17.8772 18
370 1 0.388612 15.9383 7.37927 12
371 1 -8.45615 -7.62719 -8.36426 21
372 1 14.5252 15.0717 -0.0935111 9
373 1 4.60335 7.37783 8.78931 21
374 1 -8.87995 4.03061 8.48695 22
375 1 -8.98224 0.813369 9.89399 22
376 1 -9.0947 -4.53167 -10.1664 21
377 1 -6.66141 7.12411 8.68386 20
378 1 -5.99706 -9.7585 -8.21962 21
379 1 -5.27349 -12.0361 -14.9727 10
380 1 -8.75782 -13.2673 1.91783 20
381 1 10.6157 1.55564 8.95291 22
382 1 -6.58476 -3.69795 15.5066 11
383 1 -11.0036 6.24175 -11.9374 11
384 1 8.29147 9.10299 -4.67272 20
385 1 -12.7249 -15.1827 0.7332 10
386 1 0.979997 18.8667 2.57427 13
387 1 -1.21041 6.5292 12.5879 18
388 1 -13.7093 -1.99044 -1.63807 15
389 1 0.315441 17.0636 -5.73096 16
390 1 3.58504 15.9602 -8.05686 16
391 1 -6.19518 -3.7454 -11.6457 22
392 1 -1.29632 1.65741 16.283 16
393 1 3.08769 -14.026 -8.82949 16
394 1 1.41268 -5.39084 -13.4513 18
395 1 7.28695 -13.4792 2.33857 15
396 1 -14.5785 6.62932 2.91669 14
397 1 1.90108 6.15069 13.8994 21
398 1 8.08802 9.4589 -1.36488 19
399 1 -7.99351 8.37868 -12.8169 9
400 1 -14.4876 -4.88614 -3.61168 14
401 1 9.17328 17.2058 2.25371 9
402 1 -3.31521 3.82992 -11.6998 20
403 1 11.3664 4.5638 0.26279 20
404 1 6.08499 16.4322 -7.43403 12
405 1 14.1533 3.44226 -4.25911 15
406 1 -0.661022 -0.968852 -13.5736 20
407 1 2.68071 -11.9391 9.45323 11
408 1 -0.0375054 -8.72853 8.0381 17
409 1 -8.44861 0.684751 -9.83086 20
410 1 -14.6359 -11.3382 5.73882 11
411 1 -0.113402 -12.9209 -10.2281 21
412 1 5.14192 13.1404 5.50265 20
413 1 -0.757135 2.23816 -11.4638 19
414 1 2.60516 -1.16567 12.3851 19
415 1 -14.2404 1.91543 13.5588 7
416 1 1.65968 -15.2599 3.64492 21
417 1 -12.7489 -4.08154 2.15094 19
418 1 13.0178 -8.33197 -6.3944 13
419 1 11.1702 -1.00914 -0.179788 20
420 1 2.62961 -8.09624 -8.96522 20
421 1 4.26395 4.38201 -10.242 21
422 1 9.90109 -4.10566 -8.55142 18
423 1 -4.52666 0.65863 16.3313 15
424 1 8.17177 15.5577 -4.72678 13
425 1 -6.55787 -5.21785 -17.223 12
426 1 0.128275 3.52162 -18.0099 14
427 1 -6.66298 -4.2104 8.31536 20
428 1 -2.5358 14.2478 2.41112 18
429 1 -4.30303 -3.41541 -19.5912 11
430 1 -14.9004 0.759871 3.36406 12
431 1 -2.09246 -13.4444 -14.8868 10
432 1 -8.44265 -13.7462 9.13867 13
433 1 0.323624 10.6722 -6.42065 17
434 1 13.143 2.10245 14.0416 16
435 1 10.0406 6.82472 -1.5947 21
436 1 -11.1782 -13.289 -1.14206 17
437 1 -5.75572 -2.20763 -16.0784 17
438 1 -8.21431 8.677 5.7679 17
439 1 12.9666 1.91737 0.168749 20
440 1 2.95031 12.5062 -6.03411 20
441 1 9.24263 5.38699 -7.99048 21
442 1 5.28136 6.68778 12.2149 18
443 1 -11.2767 3.98391 6.83511 18
444 1 8.50362 12.4667 10.628 15
445 1 9.98677 0.882841 12.2952 20
446 1 1.54614 0.533143 -16.6903 16
447 1 -1.25976 -4.87159 11.6567 18
448 1 6.10886 12.1778 12.6958 15
449 1 5.20275 7.88276 -11.8057 16
450 1 -8.87666 10.2248 -4.68096 17
451 1 -3.86039 15.1284 -1.90063 15
452 1 11.2443 -0.395418 14.8542 13
453 1 7.13717 0.875464 -10.3377 17
454 1 11.7384 -11.357 -4.46729 16
455 1 11.7541 8.88737 7.09087 19
456 1 -13.952 -8.5166 -2.1338 11
457 1 -6.65505 10.4319 -10.1522 17
458 1 -12.3882 -0.89741 13.6158 14
459 1 -5.5136 13.1103 -5.55602 18
460 1 2.12556 -10.6595 -3.18005 21
461 1 5.75747 -3.62222 -14.4419 18
462 1 -2.64554 18.5117 -4.07479 9
463 1 -6.01224 -6.62945 -10.1709 20
464 1 5.01087 -15.3982 5.00405 13
465 1 -11.3666 -4.05301 -1.78316 19
466 1 -0.0861043 13.5194 -13.639 9
467 1 -5.72033 10.3071 14.0129 13
468 1 -11.294 -7.29409 6.70183 20
469 1 4.07386 -13.2961 -11.6865 17
470 1 1.77476 -4.37242 13.3454 14
471 1 -12.0893 7.95875 1.45697 20
472 1 2.98406 5.87049 16.9081 17
473 1 2.39563 16.636 -3.36437 19
474 1 14.2044 -5.96823 -4.92612 13
475 1 2.70595 11.9132 10.7544 16
476 1 2.23065 6.25623 -17.3095 10
477 1 -4.28974 -10.6895 12.0543 12
478 1 7.03179 -3.0242 -18.4841 6
479 1 0.607621 12.7232 8.85985 19
480 1 6.75721 6.66294 -9.86109 20
481 1 -3.24896 -6.12398 -12.3002 20
482 1 -3.5991 -10.4868 -3.14276 20
483 1 -12.973 -2.89788 -11.1392 12
484 1 15.1162 0.803986 1.31883 12
485 1 11.8307 6.65644 -9.99336 9
486 1 7.11956 -4.21266 -6.61123 21
487 1 13.3321 8.44318 12.8187 12
488 1 5.53268 -9.44567 -4.78889 20
489 1 1.70194 3.93274 -15.3245 19
490 1 9.15218 12.3186 -2.79248 19
491 1 9.94736 6.82326 11.8345 17
492 1 13.3198 6.36945 -3.59872 20
493 1 10.7818 -6.55584 -0.400306 18
494 1 8.89873 8.38204 -9.34135 14
495 1 7.85125 3.24599 11.8376 19
496 1 13.5628 5.34259 13.1561 14
497 1 7.42764 12.0434 0.323185 21
498 1 -0.326971 3.82943 14.0042 22
499 1 12.9023 1.49118 -6.72245 16
500 1 12.6558 7.48004 9.90581 16
501 1 -8.5245 -1.87861 -8.18932 23
502 1 12.6772 7.79632 -0.465621 22
503 1 -12.3415 7.9816 12.9521 9
504 1 11.4264 10.3652 10.3446 15
505 1 11.1379 3.9547 11.2509 16
506 1 2.90888 9.23006 8.81156 20
507 1 4.54637 15.4916 10.1687 8
508 1 -1.45894 -15.6421 8.58551 9
509 1 -6.19419 10.7675 -3.01322 21
510 1 12.2133 12.0703 -5.41954 13
511 1 9.13168 -3.26156 -15.8206 11
512 1 -0.668755 16.1246 -2.11695 22
513 1 -4.80664 -13.8515 -9.52041 11
514 1 9.31981 -10.719 -13.7565 10
515 1 -14.7845 6.28618 9.24935 9
516 1 -3.21346 6.85427 -10.3372 23
517 1 -5.25681 -16.7763 3.97179 10
518 1 -6.56526 2.51572 -11.7048 19
519 1 -11.75 2.49931 -4.9623 19
520 1 10.7437 -6.66087 2.82132 17
521 1 15.3499 12.9819 -1.84987 11
522 1 -3.36813 -7.42548 8.20692 22
523 1 -15.1546 1.22549 -6.23853 11
524 1 -1.71785 -2.69753 -20.084 10
525 1 -4.89947 8.52522 17.4233 13
526 1 6.91704 13.3481 -12.876 9
527 1 13.2049 -0.868562 12.4133 10
528 1 7.37042 6.40845 -6.4086 22
529 1 17.0941 12.7258 1.07187 7
530 1 2.84483 -16.2616 -5.81299 12
531 1 -8.17402 -6.18063 13.1147 17
532 1 13.2996 -4.84368 3.88933 13
533 1 -2.63613 11.0127 13.2225 19
534 1 5.34882 14.2679 -10.5044 16
535 1 -12.4149 11.0872 -3.81546 12
536 1 13.1416 12.2941 2.4352 15
537 1 -10.1288 -16.6807 -0.447364 9
538 1 13.5715 -3.91499 0.034861 14
539 1 12.8564 15.5327 2.60445 10
540 1 -6.35831 4.24779 10.2765 19
541 1 -11.2027 -7.60876 3.18596 19
542 1 -9.00662 -1.77079 -11.8352 19
543 1 7.68506 -2.55559 12.0771 16
544 1 -1.06393 -8.75523 12.1449 12
545 1 6.9826 9.67419 20.4276 6
546 1 -3.87471 12.0276 0.161886 22
547 1 4.91316 -4.42342 -17.3163 9
548 1 -8.81222 -2.19557 8.57254 23
549 1 7.82661 -1.62624 -11.8708 15
550 1 9.67638 -9.65847 -6.03206 18
551 1 7.30615 3.12908 8.35571 19
552 1 -7.035 2.3603 16.9187 14
553 1 11.4406 11.6127 5.05267 18
554 1 -0.455664 -2.81964 13.4959 17
555 1 -4.25201 6.26282 10.4201 17
556 1 -3.98669 -7.36093 -16.7511 15
557 1 -5.40584 2.61274 13.6 18
558 1 7.16235 5.91778 9.79965 17
559 1 -10.3812 -13.4628 7.16292 16
560 1 16.0566 7.4022 -3.07874 12
561 1 6.91018 -12.8207 -3.93165 19
562 1 4.48117 9.93124 0.596999 18
563 1 9.80703 14.32 2.69549 20
564 1 4.56875 -1.155 -16.1331 15
565 1 4.91736 10.6785 -6.13713 20
566 1 10.5053 10.9234 1.27051 20
567 1 -9.10564 -8.08419 -1.86037 16
568 1 -1.1923 -4.52822 -14.7314 17
569 1 -8.0603 15.0479 2.86807 14
570 1 2.50085 -7.72809 -12.0924 20
571 1 9.7992 10.8595 -7.10383 13
572 1 9.22647 16.7239 -7.42716 10
573 1 14.6822 3.88655 16.4803 7
574 1 11.9482 5.33831 17.3375 10
575 1 -2.73978 -10.0275 9.5952 19
576 1 -2.59747 10.6934 -14.8276 12
577 1 5.28328 11.55 8.99299 15
578 1 11.4656 -9.70782 -11.4358 10
579 1 5.16716 16.8242 -4.72588 13
580 1 8.69005 9.71515 5.63019 19
581 1 12.2369 -11.265 -0.984961 12
582 1 3.43383 8.27319 18.4477 16
583 1 -11.6894 -4.36008 8.03759 21
584 1 5.50847 -15.5896 1.63439 14
585 1 -5.80354 12.365 2.1603 21
586 1 5.56509 10.6218 3.56236 20
587 1 -11.4262 -4.15318 5.07564 19
588 1 -2.04246 8.26681 19.8116 9
589 1 -6.62688 4.0492 -18.8963 6
590 1 -5.40817 5.53267 -13.1786 20
591 1 2.61342 -14.3735 0.667607 15
592 1 6.89424 12.2382 -4.68517 18
593 1 -11.0641 1.99494 12.7732 17
594 1 5.22479 -6.56375 -13.6828 16
595 1 2.13618 -10.3438 6.21363 18
596 1 1.98935 16.2122 2.13746 18
597 1 -3.048 4.28487 15.3225 21
598 1 -10.2447 -7.71674 -10.7821 14
599 1 -7.94827 -9.41888 -11.1775 17
600 1 -6.70563 -12.6857 -6.80789 12
601 1 0.532184 14.0566 -6.90874 20
602 1 3.19813 17.4787 8.68598 9
603 1 6.08527 -14.9117 -6.52452 16
604 1 1.40807 -13.7746 -4.66938 16
605 1 2.69653 -7.92241 8.32367 18
606 1 11.719 0.854966 -11.7016 10
607 1 -2.63127 -15.6852 -8.85001 13
608 1 -11.7878 -1.74725 9.99385 21
609 1 -3.85827 -16.7034 -5.84468 11
610 1 -7.14552 -9.66461 -5.16687 19
611 1 -11.3853 1.6544 9.26082 16
612 1 -6.66265 -17.8291 -4.20816 5
613 1 12.7403 3.67472 -9.49519 11
614 1 -3.13183 11.9517 3.93605 18
615 1 -12.4062 8.71822 7.69683 16
616 1 10.6748 -0.969449 3.54586 21
617 1 -14.745 2.44758 -9.7982 12
618 1 7.31387 3.5983 -8.94185 22
619 1 9.05473 10.1988 12.4846 12
620 1 -13.4774 4.06596 -7.23768 17
621 1 -12.9609 -5.87115 -10.1039 13
622 1 -2.29912 9.17956 16.3115 16
623 1 4.66382 8.08295 -7.78903 20
624 1 11.7248 14.7334 5.0628 11
625 1 -2.98279 -2.42164 11.4899 20
626 1 -3.65428 -16.9483 -2.69874 11
627 1 -7.77519 -17.2658 1.96744 6
628 1 14.2636 10.709 6.9431 10
629 1 1.88211 -10.6479 -10.4782 18
630 1 -9.39351 -5.16575 3.12948 21
631 1 7.55237 10.1065 -11.431 14
632 1 0.584022 -15.4023 -8.19623 12
633 1 -1.7465 -16.4602 5.18695 15
634 1 -1.53117 -16.8973 -0.481588 14
635 1 7.82423 12.2082 -9.61739 19
636 1 2.3006 19.7706 -0.451107 9
637 1 -0.903494 1.88933 -15.4946 20
638 1 -0.535416 1.36469 11.9672 17
639 1 0.0404971 8.19588 -15.6155 15
640 1 -11.8128 -0.368307 -13.0378 11
641 1 -11.871 -3.67133 -5.44953 20
642 1 2.55165 18.3519 -6.30798 10
643 1 -4.90515 -4.99816 -14.6602 18
644 1 10.6001 13.702 -8.18167 12
645 1 10.54 -3.86545 -1.56577 18
646 1 -7.80373 7.66353 14.3454 12
647 1 7.41668 -11.5647 -0.39441 20
648 1 13.2541 -3.95428 -3.45456 17
649 1 10.4149 -4.49905 11.7247 12
650 1 0.351369 10.3968 6.64458 19
651 1 -10.0038 0.505927 15.9665 12
652 1 -5.9157 8.21104 12.1224 22
653 1 -2.78773 -14.0862 4.4781 16
654 1 5.96127 9.4577 13.8442 16
655 1 -14.618 -2.0223 1.60122 15
656 1 10.9431 -5.53052 -3.61217 20
657 1 -8.12914 15.1611 -0.0437856 9
658 1 3.18192 -12.9769 6.20752 17
659 1 2.17894 3.08683 15.7514 19
660 1 2.13791 11.9698 3.78457 19
661 1 4.81003 -10.4372 11.7013 8
662 1 2.59793 3.20401 11.9539 21
663 1 -13.1041 -7.78959 -5.11666 11
664 1 3.72802 9.21469 21.6676 6
665 1 4.75863 13.757 2.29942 19
666 1 -13.6323 -14.1441 4.87754 7
667 1 -3.1366 -13.0809 8.94679 16
668 1 10.6695 -7.14013 10.5341 10
669 1 10.3035 -4.23591 8.46988 19
670 1 7.30258 6.76798 7.02532 19
671 1 -0.263958 -10.0937 -8.60194 21
672 1 -3.37975 0.977599 -12.9946 19
673 1 -3.69607 0.792983 10.44 20
674 1 -0.382365 16.1387 4.31082 17
675 1 13.2815 -1.95311 1.92741 15
676 1 2.45311 9.78647 -8.29988 19
677 1 -5.66315 5.34993 15.5918 19
678 1 9.29801 10.5377 8.44922 15
679 1 3.93437 -4.08887 -11.6147 20
680 1 -5.74395 -12.8079 0.0588338 20
681 1 13.9671 -0.782245 4.66907 14
682 1 2.20306 -1.87697 -11.9016 21
683 1 -1.15571 6.84533 15.7535 21
684 1 11.4413 -12.3662 -7.91518 11
685 1 6.71016 1.48631 -13.6427 17
686 1 7.40543 4.32341 -11.9435 16
687 1 14.3266 -1.04306 -1.56537 16
688 1 2.02325 -8.48016 11.3775 13
689 1 -0.836632 -9.8337 -11.4892 22
690 1 5.86059 13.7414 -6.99156 24
691 1 -14.1709 3.7248 5.18377 14
692 1 9.64723 6.36436 -4.58277 23
693 1 15.9699 6.91611 -0.118282 13
694 1 1.80796 -6.09072 -16.9136 12
695 1 -8.46589 11.9161 7.12933 15
696 1 14.4281 7.95938 5.18475 12
697 1 12.1906 13.4844 -0.0582542 18
698 1 1.90235 1.0391 -13.1164 22
699 1 10.5659 -3.85616 1.68679 23
700 1 -11.1086 1.90939 -1.38252 19
701 1 9.79965 7.0752 1.64844 20
702 1 -13.7821 -11.6504 -0.149169 11
703 1 -12.6692 8.05772 -7.3252 13
704 1 5.41157 4.23165 10.8306 21
705 1 -8.93603 0.973259 -6.55746 19
706 1 -11.3469 4.73742 3.38224 21
707 1 9.91296 -6.84121 -10.9537 14
708 1 -12.0883 -9.08888 -8.33444 12
709 1 9.87748 -11.7469 0.867981 12
710 1 -14.4265 3.59298 1.67803 16
711 1 14.6131 6.60413 7.62062 12
712 1 -6.59063 -9.99416 5.03375 18
713 1 8.85693 4.99982 16.9408 16
714 1 13.1259 -3.40769 6.46754 12
715 1 -12.2417 4.82507 0.213926 22
716 1 -0.0288865 10.006 10.744 19
717 1 5.47899 10.9541 -14.4232 13
718 1 -3.61715 -10.336 -16.0658 13
719 1 -1.78119 10.9067 8.32407 16
720 1 -13.5389 -9.19094 7.36473 14
721 1 7.16879 10.7859 -7.6502 19
722 1 2.80772 8.85973 12.5989 17
723 1 15.0541 -2.83453 -6.50525 11
724 1 4.83173 -7.49074 10.6128 18
725 1 -1.64327 12.1129 -11.8388 16
726 1 2.57205 10.2675 -11.319 21
727 1 -7.09974 1.83282 8.44257 20
728 1 13.0665 1.90134 3.38384 17
729 1 -0.810164 -4.25556 -11.3975 21
730 1 9.67473 14.4148 -1.11942 13
731 1 -13.6181 3.62246 -1.46391 19
732 1 -6.40621 -12.8542 6.86507 21
733 1 0.615847 16.405 -8.82363 15
734 1 5.09994 -1.18499 10.4654 20
735 1 -0.612093 -12.7306 -2.92976 19
736 1 -1.9412 15.139 11.6302 12
737 1 -14.4352 6.52766 -3.43911 14
738 1 9.88715 2.41157 -7.77638 20
739 1 1.3779 -13.3931 -14.6912 10
740 1 -8.93292 8.91978 2.33314 23
741 1 14.1825 10.19 -3.2692 16
742 1 7.85129 -9.06033 -15.9883 11
743 1 -9.42215 -11.0312 -8.67221 10
744 1 4.30316 -12.5154 -5.83198 19
745 1 -9.54213 9.18635 12.7804 12
746 1 6.67937 -14.5219 -1.06905 14
747 1 -3.2717 9.90394 -11.5539 21
748 1 12.6352 0.98773 -3.27237 22
749 1 8.31113 9.77007 2.5354 20
750 1 1.365 -17.4898 0.60859 16
751 1 -1.15893 -5.49173 -18.3797 13
752 1 13.2706 1.51392 7.07296 17
753 1 -2.96848 4.42519 -14.874 17
754 1 -4.0891 -10.2424 7.16542 16
755 1 5.56629 10.5667 -2.70407 23
756 1 -11.0221 5.16469 -3.0022 20
757 1 -13.4716 4.67358 11.7318 13
758 1 0.216866 7.58621 18.3525 17
759 1 -8.79578 -7.23549 8.33542 21
760 1 6.14561 10.2999 6.66189 19
761 1 -0.93812 -14.6877 2.17352 22
762 1 5.35272 13.439 -1.46629 19
763 1 -2.76766 8.74581 11.7593 21
764 1 -6.48566 0.87991 11.6248 17
765 1 -10.6563 7.94869 4.40472 20
766 1 -6.2404 -6.63149 10.3998 22
767 1 4.93704 -9.7513 1.43371 21
768 1 10.0368 7.02566 8.60975 16
769 1 10.2351 -3.66397 -5.97971 20
770 1 7.10066 -10.489 -10.4894 15
771 1 -3.71464 -0.0977469 -18.7568 10
772 1 -0.840087 0.584319 -18.985 12
773 1 8.43763 12.2616 3.87135 20
774 1 -9.01553 -8.19231 11.3388 19
775 1 -6.2888 7.66328 -8.38746 18
776 1 -15.001 4.03051 -4.62664 13
777 1 11.3419 9.02107 -3.61774 19
778 1 -11.0047 -15.4646 3.95828 12
779 1 14.8577 10.0362 3.44087 12
780 1 -6.47579 -10.029 -1.90461 22
781 1 5.27426 15.1646 6.97907 12
782 1 -9.5979 -2.51051 15.2573 13
783 1 -1.22899 -15.7838 -3.88957 14
784 1 13.9677 1.6224 10.6285 12
785 1 3.0299 -16.5819 6.17796 11
786 1 3.84078 11.2066 17.4916 11
787 1 10.3118 -1.12567 -13.7845 13
788 1 8.27706 -8.63114 0.955763 19
789 1 2.26167 -2.5134 -14.9185 17
790 1 -14.7842 -0.593561 -11.4971 9
791 1 -8.16473 5.61663 -12.6255 17
792 1 -4.31867 7.71687 14.5343 21
793 1 7.56255 -5.52375 10.2832 18
794 1 -8.44269 -8.15358 5.09284 19
795 1 16.0391 1.47915 -2.27613 11
796 1 -0.526101 4.99646 -13.5492 22
797 1 15.5858 9.6927 0.547156 16
798 1 1.18275 15.1825 10.5026 13
799 1 -14.6305 -7.56754 5.00913 17
800 1 8.58044 -14.5646 -8.60039 14
801 2 -8.57211 2.20329 -11.534 21
802 2 -8.91487 10.7031 -6.4613 13
803 2 1.21586 -0.911003 -13.3754 19
804 2 -3.87305 4.23645 10.2568 19
805 2 3.51535 -12.2185 -10.2377 18
806 2 -3.10034 -4.18519 -11.5546 20
807 2 2.45584 4.08402 14.2691 20
808 2 9.71854 3.03424 12.4743 21
809 2 -12.3283 -11.312 1.60083 17
810 2 -14.6206 7.27789 -5.10425 13
811 2 1.65903 12.3756 5.94129 19
812 2 -11.366 0.889689 6.21215 19
813 2 2.43124 13.0242 -3.79638 22
814 2 10.4407 3.68314 2.02404 21
815 2 -0.294752 15.1675 -5.49296 21
816 2 9.03367 10.6652 -9.0216 14
817 2 -15.6571 -1.34045 -10.117 7
818 2 -11.0134 -3.53893 -10.3974 18
819 2 1.10859 2.48498 11.3948 18
820 2 4.73164 -7.81694 -12.1819 18
821 2 -1.53696 -12.9424 2.72771 18
822 2 -6.08185 9.25678 -1.64775 22
823 2 -11.7963 3.95639 -6.11205 19
824 2 10.1706 3.69279 5.68266 20
825 2 6.52877 -11.2945 -8.96897 15
826 2 -13.8052 -10.3242 -1.49349 11
827 2 -11.1765 -5.37577 6.52662 20
828 2 -4.02798 -12.826 3.80571 16
829 2 10.3643 -7.46797 8.08922 13
830 2 -1.17865 -14.6771 -7.92094 14
831 2 2.40137 1.1428 16.3991 13
832 2 0.412018 12.6022 -9.55619 20
833 2 2.32546 -14.6932 5.60691 16
834 2 -11.2755 -11.8844 -2.35508 13
835 2 -0.106069 5.98673 14.2537 18
836 2 -8.42015 7.27216 1.79588 23
837 2 -0.0905972 1.65132 14.843 19
838 2 -3.58539 10.9773 -6.71476 18
839 2 9.28809 -12.2582 -0.664823 15
840 2 -0.399702 12.5831 -6.11628 22
841 2 12.0509 13.6163 6.5224 9
842 2 9.56561 11.5391 2.57801 19
843 2 9.84581 -1.97181 -11.9741 13
844 2 -5.44528 6.82719 18.2656 12
845 2 1.33872 4.51425 -16.9624 14
846 2 -5.41014 11.8979 -10.7735 14
847 2 10.7642 15.6744 -7.53589 10
848 2 -7.53593 -2.20278 15.066 14
849 2 -14.1156 7.53624 1.33485 17
850 2 7.94619 1.35586 -8.53153 17
851 2 -7.38117 -7.26445 11.6889 19
852 2 1.08977 -7.49921 -13.3023 16
853 2 -7.90481 -4.99153 -15.7732 11
854 2 -11.3293 -4.6906 3.36323 16
855 2 13.6665 8.39535 3.38745 13
856 2 -2.0472 10.5282 2.85706 20
857 2 -4.09505 -9.87181 -7.9474 18
858 2 0.24912 14.427 12.1425 12
859 2 4.42958 -0.348335 12.1083 20
860 2 0.224945 -5.10542 10.0015 19
861 2 14.0684 0.771018 8.71792 12
862 2 5.28912 15.062 -8.43829 15
863 2 -9.22043 5.22214 -2.89317 19
864 2 13.3877 3.32655 10.7676 13
865 2 11.4555 -12.0911 -2.71166 15
866 2 7.70636 -13.8634 -6.90678 16
867 2 -8.14903 11.9528 8.99116 14
868 2 5.84273 -10.6928 0.137557 22
869 2 11.9556 -4.92599 5.93048 13
870 2 17.0071 8.48399 0.307248 10
871 2 -0.733258 0.432525 17.4788 10
872 2 9.29897 -9.79186 -4.08551 22
873 2 -0.616018 9.05318 9.39908 22