ITEM: TIMESTEP
6000
ITEM: NUMBER OF ATOMS
2000
ITEM: BOX BOUNDS pp pp pp
-30.0 30.0
-30.0 30.0
-30.0 30.0
ITEM: ATOMS id type x y z Coordination
1 1 -10.6144 4.57202 -14.0037 9
2 1 -3.67987 -9.57467 -8.65562 19
3 1 1.24624 14.5048 13.5946 13
4 1 9.22592 -10.6647 5.11456 12
5 1 -11.2624 7.24282 -1.98881 19
6 1 9.68915 -10.7724 -9.53108 15
7 1 -9.67034 2.00347 -8.91898 21
8 1 1.61064 -8.66298 8.64048 19
9 1 -6.92798 -1.34231 -12.1721 19
10 1 -11.9987 -11.2901 4.39946 8
11 1 15.4486 1.40425 -11.0039 11
12 1 -2.27412 -10.4072 2.98104 20
13 1 -10.2552 -9.85791 1.61303 15
14 1 3.48858 2.1711 16.3901 13
15 1 1.85398 4.07366 9.62112 16
16 1 -2.93203 9.26912 -11.8929 20
17 1 4.12491 -1.4093 11.3942 20
18 1 -6.76565 1.80835 -13.5022 22
19 1 -12.1727 -7.66513 7.76548 11
20 1 15.8333 3.61621 8.12949 15
21 1 2.66433 9.69683 -12.0698 21
22 1 7.27803 4.25823 -13.5649 22
23 1 15.1162 5.49526 11.0864 20
24 1 -12.2174 3.95972 -9.18138 15
25 1 -9.47933 9.45353 6.84818 16
26 1 7.412 -11.7797 3.18142 16
27 1 6.98603 -8.80349 -15.0917 11
28 1 11.4361 -11.3568 -1.61758 15
29 1 -7.43049 -14.4406 -8.707 6
30 1 -9.80922 -6.55278 10.1378 18
31 1 1.85468 -6.93287 -13.371 20
32 1 11.2493 -8.17029 -10.3081 16
33 1 2.24005 3.85552 -15.8457 17
34 1 0.520592 5.69054 13.0454 15
35 1 1.08003 -11.631 7.42328 16
36 1 4.17977 -4.97232 12.4634 13
37 1 -11.1228 -0.825457 -0.217156 19
38 1 -9.67344 -2.89404 9.22861 18
39 1 -1.08579 11.4017 -4.29876 20
40 1 1.447 -10.5301 -13.6408 15
41 1 9.54795 -3.58914 -10.4285 18
42 1 -2.14138 -3.80182 13.4817 16
43 1 -10.2097 7.76855 1.30547 24
44 1 3.83365 12.2367 -10.8129 17
45 1 1.28397 10.72 13.1653 21
46 1 -4.12818 7.44667 -8.73225 21
47 1 0.316624 13.4007 -1.85978 19
48 1 3.48893 -10.3424 3.21454 17
49 1 6.32921 -8.71438 -5.10542 22
50 1 4.61688 -3.98631 -17.6412 19
51 1 -7.98803 8.13656 9.3773 23
52 1 -10.1302 -3.55298 -8.81388 20
53 1 -4.89184 7.73218 -5.38992 22
54 1 -6.91703 -6.70157 4.75636 22
55 1 -1.20667 15.0344 12.0626 13
56 1 -9.82185 4.75861 -6.99528 26
57 1 -6.34214 9.57122 12.3362 14
58 1 -1.55231 -15.7489 8.80457 12
59 1 6.5193 -14.328 -7.10797 11
60 1 4.10107 13.3234 13.724 14
61 1 -12.2575 1.18939 -10.8868 16
62 1 -12.8676 6.16712 -7.31799 15
63 1 6.4236 7.03714 11.3878 25
64 1 14.1481 -3.71213 -11.2185 12
65 1 9.92245 -11.0877 1.96376 16
66 1 -12.079 -4.14122 6.67334 14
67 1 5.8759 16.188 2.99716 12
68 1 6.36676 -2.31626 13.5024 11
69 1 -6.48675 -10.2764 6.23362 17
70 1 14.6011 2.05406 6.38225 19
71 1 -0.845925 16.3388 8.95464 12
72 1 -1.30818 -7.13739 -8.57039 19
73 1 -11.3453 9.92027 9.32908 11
74 1 -7.62705 12.1384 -0.810813 24
75 1 0.626783 7.84199 -8.65565 20
76 1 14.8309 9.30558 -5.97696 23
77 1 6.40837 -9.25595 8.6277 12
78 1 -2.33235 15.798 -2.10231 16
79 1 -10.4555 11.8832 4.75297 14
80 1 -5.79319 -4.84878 13.7289 21
81 1 -1.15272 9.77261 4.511 20
82 1 -3.96061 -7.45518 9.91511 20
83 1 14.2843 -8.77107 -5.47657 11
84 1 -7.40002 4.09767 5.12038 18
85 1 -7.53723 -13.4686 3.47289 10
86 1 10.6863 -8.92409 -7.50365 19
87 1 10.8722 -1.07352 -15.0039 16
88 1 -5.6957 1.45142 -15.7408 18
89 1 0.749588 13.1382 1.31397 19
90 1 -7.25779 4.36282 -8.57901 22
91 1 3.24342 9.63887 17.4178 12
92 1 1.60959 13.2943 -9.33436 18
93 1 -12.6835 11.9953 -0.401691 11
94 1 -4.18861 -6.52487 6.15832 21
95 1 13.8459 -2.44327 10.661 11
96 1 6.3631 -3.94752 -12.3612 18
97 1 6.5462 -0.278516 16.2412 10
98 1 -7.19989 -7.12864 -2.11846 21
99 1 -7.0559 -6.77517 -5.26082 20
100 1 12.058 -9.18836 1.0191 15
101 1 11.3242 4.44182 -14.6328 13
102 1 11.6385 16.9124 -4.37288 9
103 1 -6.29583 -12.0925 12.0539 12
104 1 -9.48588 -12.8218 9.25708 9
105 1 8.10879 -5.01237 -18.4928 11
106 1 12.0422 -8.85658 -2.34738 16
107 1 0.453898 -15.9702 6.88541 12
108 1 -7.45402 -9.72297 -0.19518 21
109 1 16.8827 9.14156 10.9717 8
110 1 17.8527 -3.76626 -6.29228 8
111 1 -12.1512 -7.24165 4.90426 16
112 1 12.3285 7.33855 3.89988 18
113 1 15.7063 12.3274 0.475657 12
114 1 -6.00293 4.4216 14.8075 12
115 1 -4.48671 9.67206 9.87711 20
116 1 -3.66415 13.4256 -4.74265 19
117 1 1.92104 -7.81297 -10.2727 22
118 1 8.13585 -11.903 -12.662 7
119 1 1.0666 13.7027 -11.9811 16
120 1 9.95541 -5.07092 9.26331 19
121 1 0.525079 0.528076 -17.3922 15
122 1 -2.50276 9.87801 -8.70456 17
123 1 11.8821 1.67816 -5.33276 19
124 1 -7.59359 9.51022 -5.23449 20
125 1 -4.53935 13.2438 -1.75874 18
126 1 10.1652 2.03665 -10.8037 18
127 1 9.81643 -7.16655 5.01771 18
128 1 -3.57321 16.1221 6.36364 14
129 1 16.5179 7.91699 -10.3896 11
130 1 6.98614 13.5524 -2.21139 21
131 1 -4.39879 16.4745 0.839198 12
132 1 13.864 6.19305 -4.82696 18
133 1 -2.46872 9.10807 -6.03633 19
134 1 1.50434 16.7793 -9.87798 7
135 1 5.96291 9.82846 -13.5154 17
136 1 -8.36955 -12.6135 0.656388 13
137 1 -13.2479 9.04425 0.562708 15
138 1 -4.63708 -0.887082 -13.6455 21
139 1 1.00663 -8.42382 -16.3149 12
140 1 13.1061 13.8744 4.60918 11
141 1 2.9421 15.4687 1.38068 16
142 1 -10.4014 -3.84944 -5.46602 21
143 1 -10.0008 14.1214 -0.751225 12
144 1 15.8721 -1.45558 -1.98154 15
145 1 -9.20601 2.81973 -15.484 10
146 1 8.3439 5.25808 15.5615 21
147 1 1.18292 17.3375 0.213884 11
148 1 -1.18265 10.4535 8.12088 20
149 1 -1.22318 -4.77797 -20.1541 12
150 1 0.799492 12.962 7.64097 20
151 1 -0.915079 12.7914 -7.22586 18
152 1 4.54229 -4.20408 9.63754 23
153 1 -9.78735 -6.80531 -0.15075 22
154 1 4.28188 -6.80732 -15.1467 19
155 1 -8.12423 10.0264 -8.71859 16
156 1 -1.41291 -13.0867 6.15605 18
157 1 4.06691 -13.0334 -5.33511 20
158 1 -1.58549 9.93192 -15.8857 13
159 1 -11.947 1.64336 7.45806 13
160 1 11.6689 8.02988 -5.60644 19
161 1 -5.21541 7.25965 14.3171 10
162 1 0.80373 -11.4254 10.5444 12
163 1 3.28914 18.615 -3.57407 11
164 1 0.707598 7.96155 8.03577 19
165 1 14.2261 7.47099 13.0815 10
166 1 -8.03162 12.7715 2.71112 17
167 1 14.7611 -4.03431 -7.73389 16
168 1 -4.0199 15.6615 9.75471 10
169 1 13.1334 -6.51732 3.1584 16
170 1 -13.5662 1.24097 2.7078 11
171 1 -3.43092 -13.1187 3.47996 16
172 1 5.87723 7.23848 14.5498 18
173 1 -13.8015 1.17852 -3.86494 13
174 1 -1.93228 -13.3882 -2.06036 19
175 1 1.82391 10.2696 2.58586 21
176 1 4.48404 15.4548 11.8041 9
177 1 -6.71032 13.0352 -10.3868 7
178 1 -13.9929 -3.2616 -6.99422 9
179 1 -6.76847 -6.78828 11.67 18
180 1 -0.131864 -10.8687 3.9979 17
181 1 6.29813 -15.2522 7.79205 9
182 1 -10.9103 12.1427 1.76915 17
183 1 16.3135 3.79289 3.70802 12
184 1 -4.03669 -3.93963 -18.5792 13
185 1 6.6341 1.73889 11.2079 18
186 1 8.86038 -16.2146 1.09614 5
187 1 1.40609 4.69242 -13.441 23
188 1 3.42043 -3.79972 -13.8389 21
189 1 12.1056 1.17761 -15.5819 11
190 1 6.41034 7.13488 -15.6329 15
191 1 -4.74633 -3.65612 -8.47623 21
192 1 -2.74065 15.257 -7.53627 13
193 1 -9.36703 -11.0998 12.1935 12
194 1 8.58908 17.5129 -5.62454 11
195 1 -7.25467 1.30652 13.9054 20
196 1 -6.67639 12.5363 -3.84923 19
197 1 9.00203 2.04069 9.64125 22
198 1 2.03874 -5.91253 -18.6803 11
199 1 -5.33932 10.7251 -7.4019 17
200 1 3.21899 6.64487 -10.6111 23
201 1 -4.77121 -8.72495 7.89109 21
202 1 -7.0702 5.15856 8.26488 21
203 1 -5.49609 7.42865 7.93777 21
204 1 0.97264 -8.97383 -5.10292 20
205 1 -4.12926 -14.9896 -1.80619 16
206 1 12.511 -12.9778 -4.67496 8
207 1 11.9118 6.13093 11.1642 23
208 1 9.86699 10.1061 -5.67547 20
209 1 0.647759 16.697 -3.45396 20
210 1 -10.6889 2.11265 1.17545 20
211 1 -11.9932 9.98667 -2.91781 14
212 1 3.71309 6.86638 9.63966 19
213 1 4.67661 -16.5944 -1.26733 12
214 1 11.7558 -3.71477 -2.2419 19
215 1 -8.1662 6.92888 6.07191 19
216 1 -10.138 -6.22603 -6.7254 16
217 1 9.35069 5.56362 -12.0162 20
218 1 7.28073 -3.50959 7.93743 20
219 1 12.7227 9.71938 -7.67466 19
220 1 1.55577 -1.33755 -13.667 17
221 1 2.16914 -16.274 4.25305 12
222 1 10.5011 -0.69369 -8.97738 19
223 1 -9.54595 -6.9938 6.78008 18
224 1 4.91551 -15.4087 -4.01906 13
225 1 -7.35066 -4.7024 -10.6621 20
226 1 6.76383 15.795 -7.25945 16
227 1 1.54715 -2.30085 -16.7087 21
228 1 2.9806 7.91328 13.1893 19
229 1 16.3238 3.75379 0.500268 12
230 1 11.6784 -5.90704 -11.6893 17
231 1 -5.0218 -3.69199 -12.0101 19
232 1 -9.81044 -0.706119 -10.3386 23
233 1 -5.80827 -11.0033 9.28237 17
234 1 11.7808 0.422276 10.9705 21
235 1 -6.25146 -5.92194 -16.2666 13
236 1 3.56126 7.49255 -14.14 20
237 1 3.28744 12.3679 -0.315051 20
238 1 -3.56006 -4.89266 11.2778 20
239 1 -10.0442 -3.97441 -11.9462 15
240 1 -3.7325 -6.37331 -10.3577 20
241 1 0.677298 7.541 -15.6222 15
242 1 -5.48671 -8.33904 -10.0343 14
243 1 9.19656 -1.91114 -19.7095 8
244 1 18.3324 -0.153646 -6.37215 9
245 1 13.2961 4.84414 2.60725 20
246 1 -6.84152 -6.1667 8.09393 21
247 1 -2.1112 -10.5095 -0.064545 22
248 1 9.06561 8.25467 16.7649 14
249 1 -3.17066 -15.4154 6.09496 16
250 1 0.6888 -12.4376 -0.378725 19
251 1 -3.199 20.3448 -4.10636 5
252 1 6.37273 1.35468 -15.4182 19
253 1 -8.95326 -1.02947 -13.8533 18
254 1 -8.9175 -6.57387 13.7292 14
255 1 6.30447 7.4429 17.9243 13
256 1 0.639207 -12.0015 -3.27039 20
257 1 -6.59625 -8.60811 -14.2707 11
258 1 -8.00488 7.07648 -10.1693 13
259 1 13.147 5.00764 5.92322 22
260 1 -4.15254 4.41256 -10.3308 20
261 1 0.50893 7.50279 -12.4177 19
262 1 3.69346 -10.3463 -15.5557 11
263 1 -4.86343 17.744 -2.33299 10
264 1 4.55912 10.2314 4.37608 20
265 1 12.3246 2.55086 4.50385 19
266 1 -10.0359 -0.656055 2.89421 19
267 1 -4.39852 -10.277 14.2887 9
268 1 -4.55317 10.4259 3.19845 21
269 1 4.52069 -1.48024 -15.7141 18
270 1 15.317 10.4623 -3.69583 18
271 1 6.41828 -9.29244 -1.72527 22
272 1 -2.27423 -0.801288 15.0067 13
273 1 -13.5117 -9.99575 6.61751 8
274 1 1.30179 -15.1437 -4.79269 13
275 1 -9.02001 9.10181 14.6321 6
276 1 -8.52312 5.98237 14.0343 13
277 1 -12.4859 -1.53642 8.52888 12
278 1 -10.8661 -9.78046 9.45187 12
279 1 14.0256 -3.5772 -4.33662 18
280 1 -10.3341 -8.75645 12.4186 12
281 1 12.5558 -3.87348 -8.9521 19
282 1 8.52598 -12.0773 -6.47277 22
283 1 1.24341 19.6395 -5.40134 10
284 1 -9.40906 12.2048 -3.5908 18
285 1 9.8187 9.19956 11.4212 18
286 1 9.26896 -9.65751 -3.90059 21
287 1 -2.56816 12.3444 3.25129 23
288 1 6.51851 -12.0633 6.61019 16
289 1 12.0154 -3.36135 4.40742 21
290 1 -0.933172 5.44248 10.488 21
291 1 0.804902 3.0696 14.7036 14
292 1 -0.70592 15.5391 2.21506 17
293 1 10.2523 9.97394 14.8709 13
294 1 -7.95537 12.4534 -6.64201 14
295 1 0.78952 -2.0067 -19.6178 15
296 1 4.62153 -6.27175 -11.8651 19
297 1 -9.39661 2.77245 12.4197 15
298 1 -12.2016 5.49501 1.30444 19
299 1 -4.2445 10.3368 -0.401776 20
300 1 9.99847 -1.0871 8.39725 21
301 1 -6.81867 -14.5937 -1.774 11
302 1 9.72484 -7.87435 7.99019 15
303 1 -7.19973 -9.2822 13.8892 15
304 1 -13.4042 10.9051 2.90905 12
305 1 4.06372 -10.2327 -6.76704 22
306 1 -2.16173 -1.69739 -11.9951 18
307 1 10.9337 -3.69447 -17.2165 10
308 1 3.55789 12.7584 2.95824 21
309 1 -9.98387 -1.13512 -3.62244 20
310 1 6.53081 -5.00455 -15.4284 18
311 1 12.5204 1.49849 -12.7243 16
312 1 -4.83164 -11.3932 -13.2948 13
313 1 -12.2668 -8.33319 -4.83042 13
314 1 11.3321 6.87023 15.2452 13
315 1 13.9638 3.50984 -3.91332 15
316 1 -7.21058 1.34327 -10.5062 21
317 1 9.76712 16.8027 -2.34709 14
318 1 -10.8704 1.8287 -5.24143 24
319 1 -5.16942 7.38846 4.64169 18
320 1 -10.2979 10.1811 -0.518036 24
321 1 -2.07082 7.84882 9.91787 17
322 1 9.99718 3.77383 11.088 21
323 1 12.6493 -1.88579 -6.82457 23
324 1 7.48907 -4.09803 11.7327 17
325 1 15.0172 1.24355 -7.35745 16
326 1 -4.68799 -14.7827 -4.81504 11
327 1 -7.85334 1.05494 -7.05218 20
328 1 3.59182 -10.4883 -3.17428 22
329 1 13.005 -0.575596 6.19296 19
330 1 -7.65632 -4.76717 -7.19543 20
331 1 -5.29682 -9.21554 4.52044 17
332 1 -5.72112 -6.92096 15.4989 11
333 1 -2.15623 12.5664 0.04298 19
334 1 -10.7341 -11.2788 -4.84739 11
335 1 7.28462 12.8995 15.0172 12
336 1 -8.00208 6.91988 -0.719407 20
337 1 0.15142 10.4871 -10.606 19
338 1 7.11476 12.7526 4.58165 19
339 1 -13.0597 -7.60569 -1.77878 11
340 1 -2.15986 -8.9059 -6.42314 21
341 1 -9.64417 -0.159192 6.03159 19
342 1 -10.9905 7.39457 -5.21528 19
343 1 6.3072 -9.11406 5.22167 17
344 1 -4.6534 -12.0534 -3.62242 21
345 1 9.93412 12.1222 6.36939 16
346 1 9.74735 7.37847 -14.5386 13
347 1 -11.8188 6.53083 -10.9203 10
348 1 -1.68418 14.2282 -13.806 8
349 1 -7.08211 6.77559 -6.98134 21
350 1 -1.15823 -12.7425 1.30183 18
351 1 18.1136 5.54463 6.54235 10
352 1 2.73489 10.1508 -15.6177 13
353 1 -13.41 0.716375 -0.755949 14
354 1 -4.10062 -12.0468 6.63624 20
355 1 7.10835 -12.976 -10.0669 14
356 1 -10.9514 1.83584 4.35571 19
357 1 -11.7664 -3.17441 10.7858 10
358 1 -11.7414 7.61172 7.21449 15
359 1 -5.45558 6.90697 -14.8511 13
360 1 6.52719 -10.7156 -8.13465 20
361 1 -1.12093 -7.07041 -11.8604 20
362 1 -1.23771 -4.54294 10.0016 20
363 1 -2.72209 2.23516 -16.6527 18
364 1 8.87645 -12.5334 -2.80487 18
365 1 3.14271 12.0231 -6.91365 20
366 1 -9.52539 9.46739 3.12423 20
367 1 -4.42136 -3.24605 15.9261 14
368 1 -12.5606 -3.24291 -10.2997 14
369 1 -7.90544 -4.19199 6.42831 19
370 1 9.87575 -4.56211 6.26981 20
371 1 11.5923 -9.13874 4.43552 13
372 1 17.2283 7.50925 -7.45947 16
373 1 -2.22996 0.994472 12.521 18
374 1 4.29543 12.237 -3.51049 21
375 1 -4.04926 -12.0381 -7.00263 17
376 1 -2.58236 4.24125 14.4669 14
377 1 0.522995 12.5039 4.66314 17
378 1 -7.3069 -10.4037 -9.3923 15
379 1 9.36108 14.1118 -6.94447 16
380 1 6.58585 7.32623 8.10107 19
381 1 -4.83185 2.55638 8.215 23
382 1 -7.92827 2.2184 9.85687 19
383 1 -8.47906 -7.54736 -8.49104 18
384 1 -4.24998 10.154 6.31328 21
385 1 -5.54436 -14.1217 -12.1336 8
386 1 1.30137 -4.92087 -15.4354 19
387 1 -4.61415 -8.95187 1.29591 21
388 1 9.76673 -1.359 11.8351 15
389 1 -3.85094 -7.42288 13.2217 20
390 1 -6.54667 4.53977 -11.8346 20
391 1 11.5393 7.42053 0.567416 22
392 1 -7.30462 -11.8775 -5.91583 13
393 1 0.230931 19.5555 -2.28151 9
394 1 -1.53642 10.7905 11.2487 20
395 1 -12.4551 -1.21221 -4.98103 15
396 1 -1.59463 18.4529 -6.69319 9
397 1 6.70427 10.2957 -7.25761 20
398 1 -4.14969 -6.78772 -6.99526 22
399 1 4.88723 4.91843 14.3538 17
400 1 -1.70452 -10.5204 -13.7609 14
401 1 3.5879 -4.18604 -10.0889 22
402 1 6.53211 -14.1512 1.11004 19
403 1 -6.94956 10.5804 4.61002 20
404 1 0.981885 8.56549 11.169 22
405 1 10.2276 9.99286 -1.95638 19
406 1 -5.73353 10.3428 -10.449 15
407 1 -13.2576 -4.58962 -0.102432 15
408 1 2.05926 16.3567 7.34458 12
409 1 -3.9366 4.02365 -13.9876 24
410 1 17.053 7.89054 -3.74638 14
411 1 7.42345 12.0259 -11.3893 12
412 1 14.4777 1.16701 0.320429 18
413 1 0.71859 1.86355 -12.0732 20
414 1 3.21585 -16.2251 7.85958 12
415 1 1.44596 -8.83304 12.242 10
416 1 -9.79707 4.71358 -10.7681 17
417 1 -9.02677 -12.3285 6.31201 12
418 1 -3.47269 -8.28092 -13.0344 19
419 1 11.0717 15.9083 2.15361 11
420 1 3.96675 3.85152 -12.1027 24
421 1 3.85513 -0.79814 14.8809 10
422 1 -11.3867 3.13575 9.79974 14
423 1 -0.582312 -15.2898 -0.52146 21
424 1 -10.4233 -3.43952 -1.90409 20
425 1 16.2818 -6.12606 -5.43315 11
426 1 12.7756 -1.12688 -0.470574 19
427 1 7.20716 -6.18535 -6.74192 19
428 1 6.49162 1.44143 -11.8454 21
429 1 10.4007 -5.83239 -7.88919 18
430 1 -5.51878 -0.541957 16.1979 16
431 1 8.40217 16.7703 0.316219 13
432 1 -4.27194 -0.435773 -18.6757 12
433 1 7.36336 2.51395 -18.0361 15
434 1 -4.71664 -4.17452 7.88364 22
435 1 -2.16067 17.7781 3.0811 9
436 1 -6.35952 -1.22678 -16.1922 13
437 1 -13.4555 -1.57727 1.37277 14
438 1 -3.33703 -6.30521 -17.4651 12
439 1 -3.76654 -10.6795 11.3796 15
440 1 3.35291 9.17552 -8.82023 21
441 1 16.4988 3.24538 12.2651 10
442 1 17.2398 6.57917 -0.676152 10
443 1 -9.84901 -11.7982 -1.59417 12
444 1 -2.03887 1.48009 -19.878 8
445 1 -6.92412 10.9505 8.19243 15
446 1 15.455 -5.48147 5.01988 9
447 1 3.64739 14.8735 -7.49531 18
448 1 16.1686 4.8294 -9.50048 15
449 1 4.15712 10.3024 14.534 21
450 1 -7.72262 1.32271 6.68085 17
451 1 7.24866 10.0137 9.5051 21
452 1 9.19941 2.32472 16.4689 13
453 1 0.660035 1.6251 -15.2202 19
454 1 1.00087 -0.456983 12.9467 15
455 1 10.1856 12.7617 3.11404 17
456 1 11.1677 7.5951 -9.63824 20
457 1 -4.19409 16.3136 -4.81601 15
458 1 1.68881 14.0239 -4.47928 18
459 1 10.8444 -4.01394 11.8728 11
460 1 13.0481 4.01443 -10.5435 16
461 1 11.8718 -10.116 -4.98595 19
462 1 15.1178 11.9912 10.0068 9
463 1 -12.6927 -7.42272 1.47077 14
464 1 -4.46341 9.75053 -14.8726 10
465 1 -10.0476 -0.813448 13.0369 16
466 1 -4.2054 13.0825 -12.4675 7
467 1 5.07181 -12.5594 -1.67288 20
468 1 7.20082 -1.61243 -10.3664 21
469 1 -1.13067 15.02 -5.1785 22
470 1 -7.51676 -3.7714 -14.2209 15
471 1 7.66892 -14.7486 4.38393 14
472 1 -10.1386 -6.3423 -3.36295 20
473 1 3.99749 12.3955 -14.3369 9
474 1 -1.3833 12.5455 14.6101 12
475 1 -6.49864 -3.82906 10.1139 23
476 1 4.63282 -7.31289 -8.6361 21
477 1 3.91122 -7.77665 10.8049 13
478 1 -10.9408 7.0278 4.71002 22
479 1 8.77498 5.16304 18.5562 9
480 1 4.72611 18.008 -6.34183 11
481 1 11.7833 -4.55028 -5.6339 21
482 1 4.72593 9.84081 11.3623 19
483 1 3.7806 4.26816 -18.7473 14
484 1 -1.60735 -13.0214 10.2224 15
485 1 9.29473 0.166764 -17.181 15
486 1 5.3452 14.338 0.469601 15
487 1 12.3178 7.12304 -12.8585 12
488 1 1.13695 -3.87842 -11.8342 19
489 1 -5.06253 -9.37702 -5.19358 17
490 1 -11.756 -1.76417 -12.8623 15
491 1 14.6844 6.72296 1.4757 17
492 1 17.3343 1.62817 -2.00912 9
493 1 8.06537 -7.86391 -9.15717 17
494 1 14.0 9.04529 10.0216 18
495 1 3.51629 -12.9546 -8.72674 15
496 1 6.70296 5.46646 -18.7223 12
497 1 12.0687 13.3146 1.08679 18
498 1 9.3375 12.2938 12.6131 12
499 1 11.5411 6.0446 -2.38704 18
500 1 15.2733 -2.02566 1.17638 14
501 1 13.8842 6.63367 -8.03715 20
502 1 9.02214 6.63885 13.1099 23
503 1 18.214 5.84549 9.88906 9
504 1 17.3978 12.3891 -2.58976 7
505 1 3.11723 1.83347 12.8771 21
506 1 15.9279 -0.953759 -4.85412 15
507 1 11.832 0.974068 8.07975 19
508 1 -4.43171 -0.957154 -9.97179 22
509 1 15.7956 6.45411 4.59622 16
510 1 -9.80087 8.5337 11.9755 13
511 1 9.95907 11.6283 9.62951 15
512 1 12.8245 3.74016 9.06519 21
513 1 4.51688 9.75694 7.91191 19
514 1 1.77239 15.5013 10.3724 15
515 1 0.340078 -15.1068 2.2338 14
516 1 -4.26654 10.501 -4.12558 19
517 1 16.1937 10.4977 -8.80444 12
518 1 12.7418 -3.79034 -14.2187 14
519 1 4.80576 15.2473 -4.7002 19
520 1 -2.39546 -13.1716 -11.6733 9
521 1 12.2028 -7.57944 -13.7531 9
522 1 -12.6009 4.39161 4.53218 15
523 1 -4.99106 6.58454 -11.8893 17
524 1 -2.99142 -15.9489 1.46898 16
525 1 -4.20958 1.62311 -11.6728 23
526 1 -9.8688 4.52113 -3.62545 18
527 1 9.8711 -7.20081 1.61088 20
528 1 12.5026 11.0302 5.04243 18
529 1 1.6418 -8.70345 4.90078 19
530 1 -12.3437 -0.589751 -8.24398 19
531 1 5.48262 2.19762 -20.0917 11
532 1 -3.17454 3.5782 11.0243 22
533 1 8.26174 8.69362 -11.6769 20
534 1 14.9799 0.0523476 12.1884 10
535 1 9.9861 4.5916 -8.76765 19
536 1 13.0691 13.7798 -5.23584 10
537 1 1.57281 -11.4987 -10.6017 15
538 1 -8.91478 -4.07279 12.1058 20
539 1 15.109 -1.92544 5.06714 12
540 1 0.328163 12.8234 10.5315 18
541 1 12.0927 12.7195 -8.24271 12
542 1 -10.6216 10.8321 -5.89001 12
543 1 12.8335 11.3511 -1.46289 20
544 1 -7.50319 -10.5933 -3.02953 17
545 1 12.1826 -3.68047 1.44089 18
546 1 7.97851 13.9362 1.8089 13
547 1 -4.03346 5.36351 9.20191 22
548 1 -6.83 -6.98561 1.42356 20
549 1 -7.11898 -1.86268 -8.63355 21
550 1 8.62535 1.02916 13.9933 15
551 1 1.305 -3.45251 11.676 19
552 1 13.699 4.98976 14.143 13
553 1 -5.38397 12.9869 1.31704 20
554 1 3.77257 1.45447 -17.1716 22
555 1 -6.94881 -1.52265 7.79147 19
556 1 9.25753 -0.648992 -12.2882 19
557 1 12.8765 -11.0189 -7.95059 12
558 1 10.0945 3.94191 7.73893 23
559 1 -7.46709 -2.16347 14.2667 22
560 1 10.6615 9.47442 8.20922 19
561 1 -1.16478 -1.79021 11.6672 20
562 1 -3.87549 10.4379 13.2233 14
563 1 -0.914625 -3.69851 -17.5572 18
564 1 -5.1595 0.551565 10.9959 19
565 1 7.36415 3.90345 12.7211 21
566 1 -6.75786 -14.1884 7.35646 12
567 1 17.9176 4.99909 -3.49343 9
568 1 9.21725 -14.5961 -4.96403 12
569 1 9.45419 12.9454 -0.914524 18
570 1 12.0678 17.1137 -0.234576 8
571 1 8.92967 1.06581 -20.5013 7
572 1 6.85858 12.5392 -5.74536 22
573 1 13.2421 8.10944 -2.48577 17
574 1 -4.67461 -9.23584 -2.05129 22
575 1 -1.80084 -1.27892 -15.1023 17
576 1 -7.35386 9.64664 1.02318 23
577 1 8.60881 -6.5087 -12.5714 20
578 1 13.6181 9.09361 -10.68 14
579 1 12.362 11.0157 -4.28385 22
580 1 13.3856 2.4339 12.4653 19
581 1 11.3785 0.599388 14.1282 11
582 1 -1.56124 -9.79034 12.176 13
583 1 -2.34659 7.38839 -13.9615 21
584 1 3.53403 12.5291 6.13327 18
585 1 9.59608 -6.52087 -16.0261 12
586 1 8.82736 14.1948 -9.70805 11
587 1 10.1935 9.70174 4.73488 22
588 1 15.5538 -6.71444 -1.60119 11
589 1 6.59485 9.92881 16.108 17
590 1 -12.4858 -1.61409 5.09436 15
591 1 4.76546 -13.7332 3.48097 16
592 1 -7.4593 15.4589 0.473751 10
593 1 7.70452 10.4872 2.75031 21
594 1 -10.8769 -3.77875 1.68853 21
595 1 1.87603 4.11252 17.5368 9
596 1 -2.16433 5.82668 -17.4761 11
597 1 -4.12569 8.9398 -17.9493 8
598 1 8.1265 -12.2568 -0.202703 18
599 1 8.91564 7.74254 -7.63335 18
600 1 -11.3617 6.62614 10.7848 13
601 1 7.30483 -1.58291 -13.8929 19
602 1 3.81765 -13.092 8.16216 11
603 1 3.60048 15.4132 -2.06533 20
604 1 -4.19933 1.73336 14.8421 13
605 1 -8.47056 -7.69741 -11.8665 14
606 1 -1.15726 -7.69871 -14.8408 16
607 1 -8.02613 -12.5265 -12.0939 8
608 1 -1.76704 13.4052 -10.4841 14
609 1 -2.50917 12.3033 6.38626 18
610 1 4.15202 -9.99645 -10.0383 20
611 1 7.19893 -14.8385 -1.72399 13
612 1 4.19771 -6.52532 8.17543 22
613 1 18.6278 3.26682 -7.52478 8
614 1 1.29679 -12.1064 -6.61726 16
615 1 -10.2549 -3.38802 4.85114 19
616 1 -0.89025 -18.1366 0.153692 10
617 1 -10.1572 -10.3018 -10.3856 12
618 1 -9.88618 -3.35854 15.5849 10
619 1 -5.23476 -14.3717 1.43955 15
620 1 17.3383 2.35306 -5.20109 16
621 1 -3.39883 15.1668 3.2848 16
622 1 -12.7675 9.74626 5.97131 14
623 1 13.0472 -0.838343 2.85677 20
624 1 -14.1892 -0.726467 -11.705 8
625 1 0.754478 10.39 -7.29436 17
626 1 12.0847 1.31707 -8.69084 18
627 1 6.50061 12.5789 11.4398 15
628 1 -13.7625 2.30651 -7.20863 12
629 1 -10.754 -6.53587 -10.2405 16
630 1 -0.0961116 6.18664 16.0776 12
631 1 6.11822 6.62971 -12.4465 20
632 1 14.0507 15.2643 1.77591 9
633 1 -2.14248 0.966114 9.66417 22
634 1 -1.31379 -15.7054 -3.41765 14
635 1 -4.80275 -13.7865 9.54429 15
636 1 12.8467 11.4664 8.29825 15
637 1 4.60363 -9.02674 -13.2041 16
638 1 -7.49033 9.43509 -2.28292 20
639 1 9.17945 7.08529 2.67635 20
640 1 -7.88472 -4.3406 3.15457 19
641 1 10.7301 9.73735 -12.1038 14
642 1 -0.928945 -11.9157 -8.35453 17
643 1 1.95725 -17.1107 -0.167159 12
644 1 2.72091 -14.1392 -2.11429 23
645 1 6.856 4.28016 -10.3167 19
646 1 6.11609 16.8879 -2.45937 15
647 1 -2.4442 1.44656 -13.9579 21
648 1 0.320481 2.50597 11.4517 23
649 1 3.71306 6.79407 -17.2726 14
650 1 -11.8158 0.854279 -14.0635 12
651 1 -8.03786 -4.36003 -3.80104 20
652 1 0.810055 16.7328 -6.88918 14
653 1 -2.54893 -1.84942 -20.5847 10
654 1 15.9917 5.17927 -6.24754 17
655 1 12.7752 -6.32795 -0.0784631 19
656 1 -8.83409 5.27699 11.0936 16
657 1 6.31907 -9.685 1.7534 18
658 1 15.8438 -5.82126 1.50235 12
659 1 12.177 -2.85003 8.16259 18
660 1 1.69875 10.158 6.10918 20
661 1 -9.2754 0.178066 15.2948 11
662 1 -6.24395 4.01145 11.5399 22
663 1 1.40324 -14.6443 9.78435 11
664 1 7.39118 9.73711 13.0988 21
665 1 -13.409 -2.04417 -2.16133 15
666 1 9.51915 -7.30983 -5.42247 21
667 1 -6.23204 14.7923 -6.80186 9
668 1 5.47236 -17.0842 5.617 10
669 1 6.17101 2.24632 15.3024 17
670 1 2.41479 16.1782 4.52715 11
671 1 3.64561 -10.2965 6.5685 18
672 1 4.93318 4.47323 10.7681 19
673 1 -13.2365 -5.10075 -3.6258 15
674 1 1.29629 12.3095 15.9185 13
675 1 7.15641 10.246 -0.738286 21
676 1 -7.14211 -10.3742 3.07043 15
677 1 -4.81554 -16.7693 7.5706 9
678 1 6.98019 -6.08078 6.86297 22
679 1 12.392 -6.45233 6.33091 16
680 1 9.60522 6.74664 6.59581 20
681 1 0.830779 -9.63907 -8.32903 19
682 1 -1.47754 3.88156 -11.9687 21
683 1 -4.76501 -1.60876 13.2858 25
684 1 -1.63259 17.9232 -0.335243 13
685 1 15.1701 1.23077 3.29803 16
686 1 5.956 6.94436 -8.97991 21
687 1 -1.22607 8.25084 13.241 17
688 1 9.26604 6.91955 9.48917 21
689 1 9.28948 -3.91476 -13.8123 20
690 1 -4.49584 -11.8735 -0.184018 19
691 1 15.9451 -0.489581 8.27748 10
692 1 3.96422 -1.58731 -11.7715 23
693 1 3.36194 6.93487 16.1119 19
694 1 4.5103 -11.6436 -12.0105 15
695 1 8.52903 4.91817 -15.9093 16
696 1 15.1477 5.44974 -12.2922 7
697 1 17.6318 -4.03523 -0.24421 9
698 1 1.32617 -6.16489 10.2905 21
699 1 -1.92974 -4.43373 -13.2786 18
700 1 8.52965 15.0714 -4.01884 23
701 1 -9.78873 4.55771 2.94742 23
702 1 13.0308 3.8519 -6.99789 17
703 1 17.2697 9.01153 5.37694 10
704 1 2.59344 -4.14998 -20.6003 9
705 1 -5.40938 13.5304 7.97128 14
706 1 15.4437 11.3311 6.78471 11
707 1 15.1451 12.275 -6.70848 14
708 1 9.18813 2.29536 -14.1023 20
709 1 9.88724 -6.96376 -1.90108 24
710 1 -10.8305 1.69398 -2.31965 21
711 1 13.6071 10.5324 1.50021 18
712 1 -9.66926 -8.73719 -2.65477 17
713 1 -9.94568 7.69189 -7.98327 17
714 1 7.1788 4.64972 9.14415 23
715 1 -10.0367 -1.005 -6.93078 19
716 1 -10.0397 3.91928 6.55951 20
717 1 13.097 -7.27218 -7.72572 16
718 1 -10.9864 -9.21253 -7.59102 13
719 1 12.5734 -6.62372 -4.00224 21
720 1 -13.2733 7.495 3.54615 14
721 1 13.784 8.4037 6.31951 20
722 1 -2.48139 -9.66189 6.27244 19
723 1 10.6745 3.67989 13.6588 21
724 1 14.3062 -3.7755 6.85333 15
725 1 -9.504 4.65806 -0.377057 23
726 1 2.10036 10.7808 9.60105 20
727 1 5.75557 9.49677 -10.4256 22
728 1 -3.87379 -3.57496 -15.4419 16
729 1 -1.07685 15.2028 5.35828 17
730 1 -9.83188 -9.39162 4.47583 15
731 1 9.71905 12.4609 -4.05873 21
732 1 0.481696 9.09598 15.5847 14
733 1 16.881 -4.10684 -2.97653 12
734 1 6.99814 -6.58009 10.0052 17
735 1 -0.617912 10.8138 -13.4032 19
736 1 9.47757 10.7279 -9.01477 18
737 1 -3.95158 -1.7549 10.0589 22
738 1 15.9972 6.84438 8.15486 19
739 1 -1.93049 -4.14113 -10.3283 19
740 1 15.6922 9.60032 -1.06703 18
741 1 -12.6255 3.79768 -2.26743 18
742 1 -1.82323 -10.4704 8.72578 19
743 1 5.62466 13.1124 -8.97339 16
744 1 7.21475 -0.77361 9.8918 17
745 1 -1.98476 -10.0305 -3.74103 22
746 1 -7.27183 15.1366 -2.7487 15
747 1 -13.7238 6.90922 -3.95924 10
748 1 14.0195 -1.04244 -9.66868 16
749 1 -3.75443 -8.79922 -15.9562 12
750 1 -7.61156 6.5412 2.67122 21
751 1 17.7528 10.3275 -5.46476 13
752 1 6.94496 -2.47704 -17.2867 17
753 1 -9.01447 -6.30065 -14.4442 10
754 1 -1.71414 -13.1029 -5.33366 17
755 1 -3.36086 12.9069 11.7922 16
756 1 6.45096 -11.3702 -4.19347 20
757 1 0.714812 12.8593 -15.1006 11
758 1 12.5765 -0.802112 -3.66914 21
759 1 10.465 9.98154 1.31596 21
760 1 1.43518 -17.7609 -2.79115 10
761 1 4.18622 -1.19737 -19.0466 14
762 1 13.3668 5.1079 -0.623228 17
763 1 -1.08017 4.35559 -15.4346 18
764 1 -1.41747 -6.86494 8.25816 19
765 1 7.08424 10.19 -3.74992 23
766 1 -8.08164 6.76775 -4.05371 21
767 1 -12.5704 5.041 7.55518 13
768 1 5.36517 4.81799 18.3247 10
769 1 -8.15775 -9.05621 9.34116 18
770 1 7.2813 10.1496 5.81828 20
771 1 2.9511 -13.3965 1.00375 19
772 1 4.06176 9.33472 -5.11254 21
773 1 -5.76305 12.8525 10.9041 12
774 1 -10.2985 -0.077306 9.78167 19
775 1 -4.92107 13.2809 4.77707 16
776 1 -0.741254 -6.3679 12.9305 14
777 1 1.67807 -12.902 4.39599 17
778 1 12.3551 6.71129 8.20127 20
779 1 9.04117 -3.2416 -7.15196 21
780 1 7.23157 -9.05126 -11.7423 16
781 1 -7.25891 4.68486 -15.0354 14
782 1 1.13607 2.43997 -19.9241 7
783 1 6.76814 13.1113 7.93497 16
784 1 -7.62819 -1.15365 10.9831 22
785 1 -1.78291 6.63542 -10.4423 21
786 1 -12.9381 4.0699 -5.08749 18
787 1 11.602 13.9705 -2.58773 15
788 1 -5.43791 -16.4128 3.77304 9
789 1 15.7876 11.86 4.05956 13
790 1 -9.25721 -11.976 -7.36963 11
791 1 5.1749 14.5479 6.15129 13
792 1 -6.94737 -3.29474 17.7237 9
793 1 -0.851745 -10.074 -10.9528 19
794 1 14.7465 1.47094 9.79154 17
795 1 4.45072 -16.3423 2.27977 14
796 1 4.32426 12.4414 16.7758 11
797 1 13.4134 -1.05923 -12.9917 12
798 1 9.25802 -9.47128 -0.578088 22
799 1 3.48903 1.4166 -14.0078 21
800 1 -9.24993 1.92726 -12.3638 22
801 1 -4.5557 5.29243 -17.3634 11
802 1 -5.04785 6.92386 11.3221 20
803 1 12.7522 -5.89359 9.65636 13
804 1 -9.88274 -6.44197 3.02015 21
805 1 11.8754 2.00837 1.30513 22
806 1 4.83484 4.33351 -15.5503 23
807 1 16.6475 9.11712 1.94149 13
808 1 3.85057 13.5745 9.45041 17
809 1 -13.2226 -4.75732 3.14993 15
810 1 10.9039 -13.2951 -6.92561 13
811 2 -10.1844 -1.57139 -8.68116 21
812 2 -4.58993 12.3834 -3.56879 19
813 2 2.11531 -2.22258 -12.0318 15
814 2 -1.18478 6.86518 11.6684 18
815 2 3.48771 -12.0038 -10.3901 14
816 2 -4.13558 -7.69377 -8.75144 16
817 2 1.21718 7.3491 12.7791 18
818 2 8.9151 3.632 17.4549 11
819 2 -10.9835 -7.47203 -1.65673 20
820 2 -10.7021 6.46546 -7.0231 18
821 2 4.86456 12.6904 4.66728 19
822 2 -10.004 1.40252 2.93188 21
823 2 2.10398 16.1511 -8.08607 13
824 2 12.2956 4.52036 4.28009 20
825 2 -1.71479 13.9246 -8.5668 13
826 2 13.6997 7.54443 -6.31953 19
827 2 -12.7123 0.292905 -12.5787 12
828 2 -7.1422 -3.27152 -12.2472 18
829 2 3.74238 2.76519 11.1703 17
830 2 9.4691 -1.58474 -10.4901 17
831 2 4.48027 -14.3622 1.70524 16
832 2 -5.151 9.79051 -2.03754 23
833 2 -12.8727 2.02499 -5.46012 17
834 2 14.4229 3.99818 6.86376 20
835 2 7.92025 -9.79295 -9.16269 19
836 2 -6.14451 -11.0527 -1.20749 19
837 2 -10.4702 -7.45485 4.7691 19
838 2 -1.32294 -12.2127 3.23615 20
839 2 11.5847 -7.11918 8.67467 12
840 2 -1.54756 -12.7426 -9.80979 12
841 2 5.58829 -1.5382 14.9788 10
842 2 0.721052 9.93343 -12.4104 22
843 2 4.23567 -16.3111 4.11588 13
844 2 -9.12125 -11.8902 -5.44827 11
845 2 -1.13233 7.79256 15.4782 12
846 2 -7.11409 7.75386 1.39658 22
847 2 1.72664 2.44443 16.335 11
848 2 -4.4211 9.72047 -5.8999 19
849 2 9.67115 -12.1302 -1.1385 16
850 2 -2.41259 4.42842 9.64171 20
851 2 1.10945 12.5805 -7.27964 20
852 2 10.9904 12.3784 4.70385 18
853 2 11.4712 16.3127 -2.04877 13
854 2 16.1767 0.748055 -5.93513 14
855 2 -5.02511 8.22684 12.8405 14
856 2 5.05906 2.60528 -16.4241 20
857 2 -3.34137 10.0375 -16.4486 10
858 2 12.0978 7.05414 -3.925 18
859 2 -5.1238 -5.02455 15.6246 14
860 2 -11.9043 9.63192 7.54832 13
861 2 14.055 0.189919 -11.6664 13
862 2 -7.04424 -7.17678 13.7694 16
863 2 0.843971 -7.43493 -11.7914 20
864 2 -0.217761 1.35436 -19.2012 11
865 2 -13.0059 -6.608 2.99173 14
866 2 12.1319 9.66371 -2.37126 21
867 2 -2.67439 10.3191 3.03281 22
868 2 -3.76136 -9.97818 -6.68823 19
869 2 -1.80245 16.4715 7.36609 11
870 2 7.88783 0.984137 16.1149 11
871 2 2.04302 -8.17316 10.5071 15
872 2 17.1006 5.12084 8.41006 13
873 2 7.33355 14.7888 -8.75265 14
874 2 -7.84032 4.73697 -3.55464 20
875 2 17.1702 7.40646 9.95271 12
876 2 11.2775 -11.6 -3.66765 17