ITEM: TIMESTEP
4000
ITEM: NUMBER OF ATOMS
2000
ITEM: BOX BOUNDS pp pp pp
-30.0 30.0
-30.0 30.0
-30.0 30.0
ITEM: ATOMS id type x y z Coordination
1 1 -9.78146 4.61626 -10.5725 15
2 1 -0.885211 -9.46573 -11.2305 19
3 1 3.92345 10.7293 16.1937 11
4 1 8.97755 -8.55239 12.3165 11
5 1 -12.422 11.2993 -5.72353 9
6 1 7.96815 -8.14873 -5.15286 19
7 1 -12.2685 2.63896 -5.62824 18
8 1 4.50968 -3.49719 16.362 13
9 1 -10.3291 0.736055 -14.7529 10
10 1 -12.4608 -10.6697 11.8761 5
11 1 12.3196 -2.42056 -8.92431 16
12 1 -1.69409 -13.8699 5.3372 20
13 1 -11.8329 -9.62141 2.83104 13
14 1 -1.83353 5.81191 17.125 16
15 1 5.05816 -5.11763 6.00542 22
16 1 -0.803597 3.29316 14.2658 18
17 1 -4.62482 9.97665 -12.7386 13
18 1 -0.530329 -3.63753 12.5849 19
19 1 -11.9839 -4.77011 -14.9283 11
20 1 -11.8793 -4.71763 12.2536 14
21 1 15.6066 4.65851 10.3529 11
22 1 -0.786723 10.97 -11.2815 18
23 1 -0.388987 2.26833 -13.1841 19
24 1 13.6569 1.72439 11.1282 19
25 1 -9.21168 0.648886 1.00698 19
26 1 -10.4146 10.6618 -8.63691 13
27 1 -1.26233 1.21748 -7.80551 22
28 1 -10.3712 7.31057 4.65782 19
29 1 5.44154 -11.6254 6.4257 14
30 1 3.37825 -5.73811 12.0794 17
31 1 4.24393 -13.0286 -10.9519 13
32 1 9.48211 -8.45073 6.1343 14
33 1 -7.43625 -13.3068 -2.97028 14
34 1 -12.9616 -5.6074 7.15155 15
35 1 -0.275886 -7.04123 -12.3267 19
36 1 11.0176 -9.65531 -11.4882 13
37 1 -5.93998 4.20668 -15.4344 10
38 1 1.46937 6.70846 14.2069 17
39 1 0.907482 -10.254 9.84535 13
40 1 10.3658 -5.48985 12.6059 13
41 1 -11.2016 -2.26665 5.23831 19
42 1 -15.773 -0.412366 7.38974 14
43 1 -7.08341 1.38305 -3.98524 21
44 1 -4.18421 11.9599 -1.81205 19
45 1 1.42111 -14.1949 -10.8056 12
46 1 0.954643 3.54962 -8.72292 17
47 1 6.93653 -5.15836 -8.99781 18
48 1 -2.83322 -1.82404 12.4743 19
49 1 -11.4525 4.12394 5.37872 18
50 1 4.62772 14.1651 -10.855 12
51 1 1.56102 7.76367 11.3913 18
52 1 -6.10265 10.2754 -5.19328 20
53 1 -0.66088 15.9284 -0.155811 19
54 1 4.5863 -13.2666 3.88588 21
55 1 12.9336 -5.17649 -7.45394 23
56 1 4.92353 -9.03679 -16.9775 13
57 1 -7.07624 9.59432 12.8349 15
58 1 -8.93359 -2.15463 -4.16189 21
59 1 7.0826 1.47968 4.2902 19
60 1 -3.58399 8.72373 -4.02992 22
61 1 -8.72978 -10.2451 5.26297 18
62 1 0.588757 16.2043 13.0754 7
63 1 -9.80565 6.29801 -5.91845 17
64 1 -5.00201 10.7519 14.4804 16
65 1 2.26965 9.67969 -5.3261 19
66 1 0.362219 -15.3014 6.98463 12
67 1 2.84361 4.90964 8.21124 21
68 1 8.42841 -11.1301 -3.51125 20
69 1 6.46408 9.5765 14.0876 19
70 1 -11.8457 8.02243 -6.00417 17
71 1 -9.45 10.0399 -11.2615 9
72 1 10.3736 2.65778 11.5076 21
73 1 16.4322 -0.213375 -7.09096 14
74 1 7.97817 -10.9497 4.64866 16
75 1 -15.8299 0.336962 3.43108 16
76 1 11.2131 14.2575 8.03788 10
77 1 -0.255864 -2.60317 15.5492 13
78 1 -3.00841 -10.8996 6.92665 20
79 1 -8.04987 -1.69652 2.19546 20
80 1 12.1002 4.59144 12.2337 17
81 1 9.71577 0.394606 -5.04634 20
82 1 -6.23863 11.4543 7.4591 17
83 1 5.03365 1.19332 9.1729 18
84 1 -6.4911 -4.50889 2.80708 19
85 1 -4.34777 -2.2753 -10.9305 21
86 1 -14.9375 7.67125 8.61213 14
87 1 -8.52202 9.04957 -0.493487 19
88 1 -1.59345 7.3543 -7.97655 20
89 1 10.4946 -0.897889 -8.0668 20
90 1 9.45647 11.1189 -7.9025 13
91 1 11.3812 -8.38918 0.57766 15
92 1 5.65189 -8.11791 11.3903 16
93 1 -6.63141 10.8807 0.304242 19
94 1 -7.60725 13.1552 5.64098 13
95 1 -9.86604 -3.33073 14.0113 15
96 1 -3.43994 9.08789 6.44268 21
97 1 -5.22056 -7.24651 12.391 20
98 1 15.241 -9.04315 -2.25222 8
99 1 -8.38485 4.2994 5.90022 20
100 1 -6.22657 -10.4399 2.26466 26
101 1 11.2631 -9.62577 -5.20094 15
102 1 4.82205 1.79459 -17.5454 8
103 1 -10.0748 -2.41565 -14.1413 18
104 1 -0.835527 14.5395 5.15242 20
105 1 -5.75387 4.16982 -6.15738 18
106 1 1.37433 6.73217 16.6983 17
107 1 -0.943934 13.1438 -5.74226 19
108 1 -13.4988 6.565 -3.42964 12
109 1 2.50241 11.9896 1.37324 20
110 1 -2.35754 -7.16845 9.294 17
111 1 16.3608 0.878865 10.8356 9
112 1 1.13413 -4.94095 -9.12336 21
113 1 3.93474 -5.0484 -8.11035 17
114 1 -0.321307 2.12883 12.0639 21
115 1 5.41694 -1.09904 14.2304 18
116 1 -10.5995 -7.25609 0.261519 20
117 1 8.17134 -4.87571 3.89194 20
118 1 -5.49459 -9.88588 -4.29028 21
119 1 11.105 -6.33965 4.00283 17
120 1 -2.82028 9.51456 2.99414 19
121 1 3.13975 4.49477 -15.6662 19
122 1 3.76344 11.7672 -1.28148 17
123 1 -7.00051 -9.52505 13.5859 13
124 1 -5.44273 -12.0617 8.3944 17
125 1 7.20373 -10.6307 -15.2224 16
126 1 3.53885 3.03197 -6.54611 14
127 1 13.713 -7.24347 2.01211 12
128 1 0.0193545 -12.4368 7.29788 18
129 1 -5.83488 -11.7962 -1.01184 18
130 1 10.6776 8.57302 8.84628 19
131 1 14.7396 -6.11759 -9.87217 12
132 1 -17.0498 -4.80179 3.46832 9
133 1 13.2313 6.23397 2.9045 18
134 1 16.7732 9.79702 6.27277 8
135 1 -9.05052 2.59675 16.5881 15
136 1 7.02619 9.28276 -1.33294 21
137 1 -5.02571 15.2046 6.77363 13
138 1 -6.78835 14.916 -2.13978 13
139 1 0.124008 -1.33883 -8.90778 22
140 1 12.9842 -8.57616 -8.59236 15
141 1 1.54038 15.7281 -10.6156 11
142 1 6.72747 -6.39053 17.0875 6
143 1 -1.16582 -2.88813 -19.5096 5
144 1 -0.657911 10.1678 -5.49022 23
145 1 13.8638 -1.70221 -6.18384 23
146 1 -8.01222 8.94885 -6.98582 19
147 1 -9.50948 13.6172 0.061072 15
148 1 5.5961 4.70124 -16.7584 9
149 1 11.6833 -9.49414 10.6489 7
150 1 -3.66809 2.62362 -11.3907 20
151 1 -11.7128 9.36444 9.44871 15
152 1 9.11538 6.75477 -0.863196 17
153 1 7.30402 13.7465 -5.22056 15
154 1 -0.658076 17.7658 6.63535 11
155 1 9.87058 3.89204 -0.0362657 20
156 1 -3.10263 8.95844 -0.169333 24
157 1 0.571272 15.2052 -7.14254 15
158 1 4.93654 7.53069 -15.1909 14
159 1 -8.17807 -7.91888 3.31993 16
160 1 -15.0375 4.70811 -0.953017 14
161 1 -10.5252 0.308667 -12.1324 16
162 1 3.97998 -11.2387 -15.1567 12
163 1 10.7126 11.4201 7.65869 20
164 1 0.730486 15.868 9.42849 14
165 1 -13.9548 -6.42099 1.65273 15
166 1 -12.0364 7.78523 7.23533 18
167 1 18.3071 -1.06371 -2.31411 9
168 1 -14.4526 0.110198 -7.58918 13
169 1 8.29803 -0.00653808 15.8651 13
170 1 4.45051 15.2574 8.68425 14
171 1 -5.28239 11.0771 10.6307 19
172 1 1.28957 -8.71025 -17.1655 13
173 1 -5.65826 14.4994 9.86181 14
174 1 -1.61859 13.8863 -2.8041 20
175 1 2.06163 -3.31628 10.5989 21
176 1 -11.214 -6.2653 9.80958 14
177 1 0.272828 -11.7337 -12.9961 18
178 1 -5.91435 10.266 -9.14951 17
179 1 -3.07618 -10.879 3.89554 21
180 1 1.92351 -11.0122 -2.29204 23
181 1 -3.73706 12.545 -10.1937 15
182 1 -15.7953 5.34964 5.97993 11
183 1 2.71319 9.36134 -2.10071 18
184 1 8.69835 5.21032 -5.88892 19
185 1 -11.319 4.89979 16.2115 13
186 1 4.5032 -6.68022 14.406 15
187 1 -10.0425 3.16517 -0.878545 19
188 1 1.84067 16.4032 2.85654 17
189 1 3.8754 8.17703 8.98673 19
190 1 12.5339 7.02382 10.4878 21
191 1 -6.09936 15.6706 3.28107 13
192 1 15.7005 -3.03099 -8.76528 14
193 1 -8.04346 12.5615 11.2248 11
194 1 -6.22049 0.999254 -10.8717 21
195 1 12.8523 -3.82126 1.79507 19
196 1 -6.35859 -4.30399 6.09137 22
197 1 -17.8715 2.92064 4.3363 12
198 1 -9.36076 -11.357 2.7785 18
199 1 3.93798 6.08385 11.061 19
200 1 -13.2362 -0.939946 2.56279 17
201 1 -3.46299 -14.0922 -0.523682 18
202 1 12.6267 -7.2912 -2.45348 15
203 1 -0.57112 12.0307 3.51775 21
204 1 -6.81031 1.73978 6.15612 21
205 1 5.27019 13.0591 14.9061 8
206 1 -9.87413 0.57376 -2.32075 19
207 1 -5.19545 15.2576 -4.92148 12
208 1 -15.5039 -5.54719 -5.69404 12
209 1 -10.1453 4.36439 12.3838 15
210 1 2.24162 -10.6368 4.02813 16
211 1 7.89676 -14.0976 6.19984 10
212 1 -12.8727 9.86823 3.73505 13
213 1 17.3374 -1.1802 3.74653 11
214 1 7.30738 0.558511 -7.27493 18
215 1 -6.21195 -6.88088 -15.9901 12
216 1 3.41095 -0.18732 11.9863 19
217 1 4.77474 -13.7629 0.63468 20
218 1 -3.14344 8.94361 -10.0424 23
219 1 5.96222 -12.2296 -12.8772 14
220 1 7.00113 -2.81927 -16.3739 14
221 1 2.07854 7.09047 -16.3139 8
222 1 -6.99229 -4.18522 -7.04578 21
223 1 -4.23103 16.1793 -2.35814 13
224 1 -9.28334 -10.2452 11.8161 13
225 1 8.33333 14.8077 0.314637 12
226 1 -14.5568 3.79429 14.6655 11
227 1 -8.00344 13.6836 -5.00041 15
228 1 8.73912 0.0819425 10.5029 20
229 1 -2.99586 -8.03048 -17.0438 11
230 1 -3.25314 12.1411 -5.13619 19
231 1 -1.67084 5.10375 -12.3667 19
232 1 -4.18429 -8.60201 7.90326 16
233 1 -7.39576 6.49619 11.8439 14
234 1 -3.77853 8.94427 12.682 20
235 1 1.54312 -10.9465 -10.1258 18
236 1 -0.662347 -13.0919 -2.92201 23
237 1 13.2892 -11.1937 -1.08723 11
238 1 8.93775 8.0841 15.6343 17
239 1 7.62781 11.6847 -11.3008 11
240 1 0.931443 14.056 1.79815 19
241 1 -18.5262 0.0289106 1.81774 10
242 1 -10.8362 13.0012 -3.31565 12
243 1 2.17867 2.39571 14.8957 19
244 1 5.17451 -16.9602 0.417546 9
245 1 14.8687 -1.46531 -1.31038 16
246 1 2.15531 6.62126 5.29006 20
247 1 -5.45318 8.14401 8.76011 18
248 1 -11.5994 -8.06112 -2.82962 16
249 1 7.72137 3.48683 -11.1772 18
250 1 2.63008 -0.561322 9.14879 19
251 1 11.9436 6.31037 -6.89877 17
252 1 -0.507442 -10.1053 -4.60445 21
253 1 -3.33649 -0.146845 -9.58461 22
254 1 2.64035 -17.3699 5.38604 12
255 1 16.5086 2.635 -6.67995 14
256 1 -9.38548 -4.3919 4.26323 17
257 1 2.35633 -12.3861 -4.6948 19
258 1 -6.34154 -7.31558 -9.20886 19
259 1 5.07737 10.574 -3.96519 19
260 1 0.533683 -3.85044 -17.1096 15
261 1 6.60582 4.13426 14.9242 21
262 1 15.4914 4.91975 4.19125 15
263 1 -5.24966 -7.1881 1.16136 18
264 1 11.7031 -6.47873 -10.7015 17
265 1 0.0421656 -7.01599 4.12552 22
266 1 -12.0331 -0.960911 -9.53572 14
267 1 -8.4425 3.43095 -7.59558 19
268 1 -3.71975 -10.5143 10.7484 16
269 1 6.10396 -1.88684 10.8464 18
270 1 2.33037 -4.1636 7.40178 18
271 1 -4.27685 -5.29856 -12.0913 17
272 1 0.102039 -6.92006 7.25321 19
273 1 3.59118 8.1494 -11.1304 17
274 1 6.97074 9.1395 3.05039 19
275 1 -4.9538 -8.11863 4.02821 19
276 1 1.74386 12.921 4.84629 18
277 1 -8.03672 1.03984 13.0252 17
278 1 -11.8372 -7.36428 -10.0197 12
279 1 -6.99785 -3.91453 -10.5096 20
280 1 -1.33523 7.88452 -12.2792 14
281 1 -7.87107 -9.63535 -10.2655 14
282 1 -0.621474 -9.6495 2.17886 21
283 1 10.3066 -5.22346 -13.6341 11
284 1 18.21 0.618271 -4.72586 10
285 1 13.3065 -0.428702 4.57529 17
286 1 -8.26416 -1.56349 11.8167 18
287 1 -3.34475 -10.6467 -2.66259 17
288 1 7.40717 2.90042 17.3704 15
289 1 -2.97832 -16.6204 5.68729 9
290 1 -0.385132 -12.4741 -0.187638 21
291 1 -1.33587 18.1945 -2.64388 10
292 1 4.23282 -0.848023 -15.771 15
293 1 -6.82342 -4.23843 -13.8332 17
294 1 -10.4961 -8.28057 13.7429 9
295 1 2.2085 9.03948 18.5556 10
296 1 2.55489 -11.1306 1.1386 22
297 1 -3.10655 -11.1638 -12.8187 12
298 1 -7.53743 5.83419 -9.03008 21
299 1 15.847 8.31945 4.3471 13
300 1 -12.546 9.24371 -10.8647 7
301 1 -1.14025 10.965 -7.97288 22
302 1 -3.31043 -4.39611 7.64951 21
303 1 7.99067 -10.6335 -6.75828 19
304 1 -6.66643 14.1802 0.985942 15
305 1 1.85809 8.98348 2.62978 18
306 1 9.77551 2.69708 7.2555 20
307 1 -13.0076 0.553826 5.65607 21
308 1 -3.21564 -2.52935 16.0841 14
309 1 -5.23545 10.0317 4.03589 16
310 1 3.53574 -4.85104 -11.249 19
311 1 12.6606 11.7708 -2.82035 10
312 1 8.65022 -8.71301 2.62199 19
313 1 -3.0998 1.06594 14.2513 24
314 1 -17.189 -3.27635 6.81113 10
315 1 1.43279 -14.8978 -4.00552 17
316 1 -10.4338 8.50762 15.8204 8
317 1 -13.8015 9.08029 12.1612 10
318 1 -16.1039 -2.79847 10.0194 10
319 1 -17.9255 -0.458834 5.21925 13
320 1 16.1793 -4.90043 -6.65811 12
321 1 -9.74763 -10.0796 8.11381 13
322 1 8.61412 -6.17675 -10.5078 20
323 1 10.7126 -13.7473 -3.03642 11
324 1 3.42998 17.5058 -2.06898 11
325 1 -10.7152 13.4444 -6.60523 9
326 1 9.52155 5.15223 8.92508 20
327 1 -9.2686 1.07284 4.19001 20
328 1 8.96861 -5.12366 -3.38193 22
329 1 -3.42331 12.3011 5.41918 19
330 1 -2.98409 6.66811 4.39326 19
331 1 4.53708 -10.0248 9.41749 10
332 1 8.80079 -2.11199 8.63244 23
333 1 -2.46444 6.14493 8.56199 16
334 1 -6.63936 -4.16948 -3.77557 18
335 1 -3.86098 3.20145 16.5114 15
336 1 -0.474831 10.6511 6.96337 18
337 1 6.70315 7.29931 16.1271 18
338 1 -7.61471 11.448 -2.70466 18
339 1 -1.15955 -4.15126 -13.7031 17
340 1 -6.74638 4.14398 -2.55574 18
341 1 5.25862 -9.57195 -12.3633 18
342 1 -16.2432 2.51845 12.6387 10
343 1 -14.2391 3.32034 3.57771 22
344 1 -6.38562 -1.30525 -9.02567 18
345 1 -5.70443 7.97374 1.41188 23
346 1 8.32377 0.689238 6.94169 19
347 1 -11.4155 -11.0934 6.07663 11
348 1 7.60045 -5.4853 10.3893 22
349 1 -7.37147 -6.49169 14.9775 14
350 1 -10.9571 6.61497 -1.08355 18
351 1 -2.63519 -1.82568 8.9984 22
352 1 1.74071 -8.01742 -7.87564 19
353 1 -9.39162 0.376291 -9.02782 19
354 1 6.69821 -3.57749 -11.5266 20
355 1 2.34552 13.2906 8.34368 20
356 1 -12.7681 -5.62866 -3.75664 18
357 1 9.23839 -11.8006 -12.6458 12
358 1 11.0122 2.90978 -10.7136 14
359 1 -1.26128 -9.97905 -8.06991 20
360 1 -8.86921 -7.84059 -7.06978 19
361 1 -2.59015 -6.89533 -1.05526 18
362 1 6.15914 5.01198 18.5341 13
363 1 14.133 1.17736 -5.45287 20
364 1 -12.2509 2.21909 -9.90739 12
365 1 1.0291 18.6606 0.28609 12
366 1 -17.2935 1.01589 -6.94895 4
367 1 -5.86089 7.42126 5.24686 18
368 1 -8.19756 11.8804 2.26971 21
369 1 -5.88981 5.17348 7.57486 18
370 1 11.7735 9.95812 10.8641 23
371 1 11.2846 -1.56879 -4.93238 19
372 1 8.46241 -2.90234 12.1328 21
373 1 8.20706 0.76654 -10.1297 18
374 1 -5.78259 -12.9193 -6.03384 12
375 1 -1.31461 -4.21685 -7.07152 22
376 1 0.87723 7.81936 8.52813 18
377 1 -6.87192 1.24819 -7.32537 18
378 1 10.0018 -11.326 -0.747576 19
379 1 11.5785 -2.98313 12.1877 17
380 1 -11.8471 -2.62075 -2.69099 19
381 1 -2.67069 -10.727 0.56344 22
382 1 -6.58067 -4.25827 12.3128 18
383 1 -1.88004 12.462 0.08446 20
384 1 -10.5348 -10.0132 -0.117641 15
385 1 6.5632 8.96916 18.9709 7
386 1 -8.48493 6.75757 -2.66976 20
387 1 1.43679 12.9821 -9.78956 20
388 1 7.6499 11.2818 5.56387 20
389 1 -15.257 -6.10531 -2.3923 11
390 1 -1.4926 -6.86483 -9.19875 20
391 1 -11.3425 -1.05364 8.32122 20
392 1 -11.2468 4.38435 -7.4771 20
393 1 2.96195 -7.65172 5.81739 19
394 1 -7.45984 -8.75546 0.658434 17
395 1 8.63741 9.00558 11.7385 20
396 1 9.26237 5.75289 -11.3024 15
397 1 -10.5304 7.43179 -8.85637 19
398 1 -1.26356 14.0079 -8.90638 17
399 1 -10.1525 3.44649 -4.0262 20
400 1 -0.594668 -12.2504 2.94392 21
401 1 12.9538 4.10393 5.49338 16
402 1 3.3931 9.64452 -13.9213 12
403 1 -3.7413 1.13089 7.61897 22
404 1 -16.7114 3.0419 1.0076 14
405 1 -5.44137 4.18208 4.44069 21
406 1 -5.64868 -10.8474 5.4986 19
407 1 1.25802 -5.07559 -5.66844 19
408 1 10.2831 -11.3838 -9.10108 13
409 1 -11.6929 1.28342 3.2328 19
410 1 -9.83334 1.30378 10.3607 22
411 1 -7.75817 9.55846 5.01273 20
412 1 1.57165 -8.59349 14.7846 9
413 1 -8.45906 0.216505 -17.5451 6
414 1 6.93654 -7.72122 -8.05301 18
415 1 1.95684 -8.92937 -13.5323 21
416 1 -4.69254 0.448767 16.6916 14
417 1 2.97917 -8.14594 -0.641277 20
418 1 -4.87739 0.89009 -17.3621 10
419 1 9.02759 -10.8163 7.79881 10
420 1 0.743119 12.2336 -2.58338 19
421 1 -12.7488 10.388 6.80775 12
422 1 -8.67602 -0.272175 15.799 14
423 1 -15.2287 -2.38149 -7.57518 9
424 1 -9.48543 -4.16191 10.7894 20
425 1 9.7363 -2.68193 14.7257 14
426 1 11.2148 -0.800453 6.56061 20
427 1 3.20552 0.50668 -8.67469 19
428 1 12.0063 -6.99041 7.50434 11
429 1 15.3318 5.81456 -1.96841 15
430 1 -3.36441 3.70406 9.28166 19
431 1 2.32346 14.665 -0.925487 17
432 1 5.94543 -7.74729 7.85283 18
433 1 -2.74633 -13.8923 -7.63976 13
434 1 -8.75308 4.47905 18.8301 8
435 1 -1.2785 14.0861 13.4308 17
436 1 -8.37138 -7.76141 -3.13936 18
437 1 6.33278 11.4328 0.69149 22
438 1 5.3472 5.84834 6.39928 22
439 1 -8.52607 -1.58671 9.05492 24
440 1 -8.63572 -4.33466 1.39479 20
441 1 -16.1927 2.4868 6.82431 16
442 1 -6.48423 -7.01893 -5.42793 20
443 1 -3.40997 11.8933 8.64302 19
444 1 -3.25893 -10.7643 -5.8575 22
445 1 -1.17899 -9.54074 -14.7819 17
446 1 -4.16609 -15.8041 2.65113 11
447 1 -5.5489 -1.12365 7.28483 25
448 1 10.3066 5.76532 5.15469 20
449 1 -6.19035 -1.80717 18.4584 9
450 1 -6.55865 7.82874 -11.4099 17
451 1 6.97463 3.96906 -1.31769 21
452 1 -4.47301 -14.5149 -4.69559 12
453 1 1.12652 7.32277 -6.82108 16
454 1 -0.881107 17.9833 3.03089 12
455 1 0.95325 6.43779 -10.168 17
456 1 -2.08909 8.10194 15.1671 22
457 1 -14.2031 -1.07183 -0.506979 18
458 1 -2.75372 17.9481 0.164922 12
459 1 4.77151 11.871 -6.68482 18
460 1 -6.24632 -8.22823 -12.2365 18
461 1 5.15029 1.62381 15.4726 14
462 1 2.07529 -12.4323 -7.88208 17
463 1 -3.59611 -3.24013 -14.4636 16
464 1 7.02139 -12.0513 1.70893 21
465 1 -12.5475 9.1592 -3.04941 12
466 1 -1.36269 9.34183 17.918 13
467 1 10.343 9.40134 -2.45051 21
468 1 4.60715 6.27653 -1.63323 22
469 1 -4.03805 7.13624 -12.7056 17
470 1 3.8244 5.33683 -9.403 19
471 1 3.0266 -7.86751 2.72195 21
472 1 -14.555 -2.92888 -3.05734 15
473 1 7.78292 14.0661 8.7845 14
474 1 -6.44609 4.50211 -11.8968 18
475 1 15.6923 1.37638 3.96622 12
476 1 4.81149 15.0456 -6.73867 15
477 1 8.08662 -5.8431 1.20423 16
478 1 16.5808 0.661311 1.06527 15
479 1 -0.451813 -1.36694 -14.0703 19
480 1 2.23936 -13.8501 5.08469 19
481 1 -0.162212 -9.88833 5.65288 21
482 1 1.5844 -8.45677 12.0176 15
483 1 -5.84413 3.92261 -9.5058 20
484 1 -8.29577 -12.8829 6.4823 10
485 1 -4.0365 -10.8797 -9.52617 15
486 1 9.16162 13.9266 5.58522 12
487 1 4.71753 2.61571 -13.1796 21
488 1 -1.04205 0.7984 16.6967 13
489 1 -15.311 2.82351 9.77512 17
490 1 4.99986 -13.2901 -3.2598 16
491 1 -11.7516 -4.38755 2.24423 17
492 1 14.1196 -4.71464 -4.34767 17
493 1 9.2734 -2.07849 -3.0232 19
494 1 -3.13998 5.92281 -2.11895 17
495 1 -0.963403 -7.63096 -5.88955 21
496 1 1.42922 6.04462 -13.2458 16
497 1 10.435 -8.20856 -8.04422 23
498 1 -7.10327 1.68705 18.2008 14
499 1 4.34406 14.5052 2.23135 19
500 1 -6.48067 -1.89909 -15.2942 14
501 1 3.79924 -3.33156 -17.3846 13
502 1 -6.71245 -3.45013 9.23283 21
503 1 -2.80972 16.3568 5.38944 15
504 1 -11.8883 -7.81746 -13.1955 9
505 1 -16.6096 -2.3128 2.07346 14
506 1 -0.355955 -7.19232 -15.4588 20
507 1 -4.24676 -7.61197 15.3203 13
508 1 1.4632 12.0029 -6.60245 18
509 1 13.4417 1.19079 7.40429 17
510 1 17.585 2.87832 2.36982 13
511 1 -8.29161 -12.6916 0.23407 13
512 1 -0.259222 -9.4801 -1.08641 20
513 1 -0.61262 -5.95127 -18.5684 10
514 1 -10.0385 11.6934 7.8926 10
515 1 6.43327 -5.98217 -5.80237 16
516 1 11.3716 -1.39346 -0.707407 20
517 1 4.57487 16.9585 -9.31835 6
518 1 5.82581 -6.97325 0.432299 20
519 1 14.7016 5.58293 -7.87635 8
520 1 4.10993 7.5378 17.3086 16
521 1 -12.4329 2.37794 8.67937 18
522 1 7.23922 7.08281 9.90553 21
523 1 9.76211 2.5084 15.6814 16
524 1 -3.00039 2.30988 -15.0567 17
525 1 -4.09057 -4.84712 -5.90236 18
526 1 0.048894 -0.907195 10.6024 20
527 1 8.00376 10.6659 9.13093 21
528 1 9.08614 8.79869 -11.0992 15
529 1 -5.26826 7.46759 -7.27301 20
530 1 -4.00398 14.5799 0.355064 18
531 1 7.36474 -3.4105 15.8742 13
532 1 9.55976 1.39676 -12.8259 14
533 1 10.9537 -10.1395 2.31259 11
534 1 10.8081 10.999 15.9804 10
535 1 -16.1783 -4.01097 0.0413597 11
536 1 -5.02669 12.7446 -7.18452 18
537 1 -1.16218 1.15517 8.94805 19
538 1 -17.2153 0.517664 9.65159 11
539 1 -3.44891 15.4793 -8.07889 9
540 1 7.58972 -9.51402 -0.0764664 19
541 1 5.87675 -2.00615 -8.31434 17
542 1 -3.32532 15.9625 2.56536 13
543 1 -9.56308 -6.12778 -14.7279 12
544 1 4.38088 -16.1965 3.12511 18
545 1 -5.42977 -8.49683 -2.0729 18
546 1 2.18887 12.6148 -12.6715 14
547 1 -3.22147 3.40981 -8.38572 21
548 1 -2.5583 11.1576 15.489 16
549 1 -7.46781 -7.11136 6.64882 17
550 1 4.70392 4.09564 -3.54334 20
551 1 3.80276 -7.27498 -2.95796 15
552 1 6.72367 -8.46659 14.4908 9
553 1 9.22706 3.08125 -4.04086 15
554 1 -8.92746 5.81826 0.929696 20
555 1 3.96438 2.68043 17.7457 10
556 1 5.71928 16.2313 -3.69738 13
557 1 11.1189 -4.82889 -4.76219 20
558 1 5.21039 4.59424 9.09344 18
559 1 1.4888 1.10455 -14.4334 21
560 1 -7.01357 -12.0038 11.3777 10
561 1 -0.569149 4.41544 -6.53184 20
562 1 5.81298 -5.72406 -17.146 14
563 1 2.31663 10.5249 10.2364 19
564 1 6.69601 4.0522 -8.60682 17
565 1 -7.43909 -1.27124 -12.5174 19
566 1 -8.21408 -11.0511 -5.5776 14
567 1 -12.1067 -1.63651 -16.1762 9
568 1 10.1921 1.381 -1.67881 19
569 1 18.933 4.90473 -0.606545 9
570 1 6.12157 -6.55887 -11.5536 21
571 1 13.6528 11.029 13.5715 11
572 1 7.81438 -2.72612 -6.08668 20
573 1 0.443408 0.255642 -20.2415 5
574 1 5.08548 12.4442 6.39324 21
575 1 -9.01108 3.47851 2.91947 21
576 1 9.22927 13.3921 14.3142 9
577 1 12.4192 3.55418 -8.05437 17
578 1 13.9019 -1.03828 1.62536 16
579 1 8.25761 3.86078 -14.2323 11
580 1 9.2279 5.42663 18.0461 11
581 1 11.4342 8.48755 13.9409 17
582 1 -3.32022 -4.73337 11.1036 22
583 1 11.5427 10.0096 -4.68995 14
584 1 0.274207 -0.558903 13.5904 22
585 1 16.8399 -2.20195 -5.40862 15
586 1 12.629 3.52466 9.07025 17
587 1 -9.31084 -2.06233 -7.41022 18
588 1 16.4886 6.05904 1.899 13
589 1 10.8093 -2.9994 4.19939 22
590 1 -9.47694 7.41304 10.3866 16
591 1 10.402 13.3743 10.7264 15
592 1 9.55216 5.2557 14.4992 21
593 1 8.37808 7.91428 6.32881 23
594 1 -2.65559 14.8605 10.5359 19
595 1 7.76098 2.83803 9.50303 22
596 1 -0.583067 -18.7566 -0.41831 7
597 1 -5.79307 9.11938 -1.97587 19
598 1 9.87855 8.4398 -5.60615 20
599 1 13.3396 -4.29379 -11.479 12
600 1 4.07685 18.1458 0.868528 11
601 1 2.15385 -8.92249 -4.9079 16
602 1 7.95719 -4.72697 -14.3278 16
603 1 -13.7224 5.15379 8.15346 18
604 1 -4.47708 6.28138 -9.8139 20
605 1 -0.93998 -14.9995 2.00897 19
606 1 -6.10381 1.01949 -14.6364 16
607 1 -13.8152 1.48058 0.368449 24
608 1 7.55284 -4.68032 7.429 18
609 1 13.3772 10.577 5.25226 11
610 1 2.50176 -6.5641 9.20716 18
611 1 -9.55612 0.705849 -5.65758 21
612 1 -0.485903 1.49907 -17.242 12
613 1 -4.72416 6.0347 14.0532 18
614 1 7.51739 6.37736 -13.4635 16
615 1 13.9424 -0.826241 13.1783 12
616 1 13.1021 1.12482 -8.43768 14
617 1 10.2232 8.93907 4.38212 19
618 1 4.36677 -8.98232 -9.37174 16
619 1 -13.6382 -3.16055 14.3199 7
620 1 17.2584 -0.51424 7.65739 7
621 1 1.17998 13.9057 11.4588 14
622 1 7.20281 13.1355 -8.26635 15
623 1 -13.718 5.34001 -6.34365 13
624 1 9.3579 3.36809 3.01561 20
625 1 -6.54683 -15.3759 -0.714063 7
626 1 16.4181 -2.75054 5.41983 10
627 1 6.49826 15.7573 6.28743 12
628 1 -3.58584 6.28553 11.389 19
629 1 -8.46649 -2.07289 6.29549 22
630 1 -13.1515 -3.68596 -5.96487 16
631 1 7.34308 1.76462 13.0625 20
632 1 -3.30636 -5.29741 13.797 19
633 1 8.09396 4.59888 11.8282 22
634 1 -3.96568 11.9452 1.90301 18
635 1 10.1687 0.876964 4.24065 19
636 1 5.81749 2.59305 6.43082 21
637 1 2.55336 -2.15058 -13.2705 19
638 1 -10.2502 -4.13413 7.65101 23
639 1 7.19512 0.618646 -15.2551 13
640 1 -4.48486 -4.94759 -8.93536 22
641 1 13.1146 -11.6519 -3.5974 9
642 1 8.00667 4.32408 6.27761 23
643 1 6.00575 3.91308 3.36314 20
644 1 -10.8129 1.54505 14.0947 16
645 1 14.3665 5.68444 7.92715 17
646 1 1.45449 -5.20127 15.0063 15
647 1 -0.857684 7.08608 12.6837 18
648 1 0.52833 -3.39753 -11.8225 22
649 1 -9.01113 4.36948 9.33392 17
650 1 5.03494 3.02598 12.0478 21
651 1 -4.73807 -13.6451 5.04781 19
652 1 12.9931 8.63373 -1.51662 13
653 1 4.56476 -10.323 -6.83861 15
654 1 -3.19447 6.2203 -6.29509 19
655 1 4.33156 9.04669 1.10641 21
656 1 5.50793 9.37746 6.5738 17
657 1 1.57713 -1.0742 -16.2433 17
658 1 6.35685 12.6804 -2.6183 17
659 1 12.535 3.18285 -1.24035 22
660 1 -4.1381 -12.8169 2.33446 17
661 1 2.68363 -6.47161 -17.0414 18
662 1 -11.5678 10.7427 -0.424233 13
663 1 7.7561 -9.02364 -10.1625 22
664 1 6.70379 7.15378 0.864576 20
665 1 12.6733 7.09295 -3.85459 16
666 1 8.80432 11.9765 -1.50084 17
667 1 -7.66719 6.79915 3.18216 19
668 1 7.82468 6.8326 -3.10792 18
669 1 13.0106 2.02283 14.3086 11
670 1 10.4546 -0.0630099 13.2929 22
671 1 -0.751982 -10.6237 12.5263 11
672 1 -5.45335 7.94884 -15.5854 7
673 1 5.6499 9.2801 11.0684 21
674 1 9.18644 -8.1271 -13.181 18
675 1 2.21377 2.6398 10.2687 21
676 1 6.4624 17.2042 -0.699881 12
677 1 12.1263 8.42977 6.40265 15
678 1 12.456 -3.13747 -2.77939 18
679 1 2.90275 4.82119 19.1912 10
680 1 -12.9469 -3.10447 10.2879 15
681 1 6.97401 -12.8807 -1.61854 19
682 1 3.25015 -2.09491 -9.84783 21
683 1 -11.572 12.958 2.66245 10
684 1 0.0587982 5.11011 6.78063 18
685 1 7.65644 -3.92546 -0.679387 21
686 1 4.61221 11.0593 3.77987 20
687 1 -14.0917 -3.57213 4.28002 16
688 1 -5.32856 5.86226 17.4527 14
689 1 -8.53832 3.16697 -13.2277 13
690 1 -9.74016 6.97062 -12.2684 10
691 1 5.32985 -9.67006 2.35983 19
692 1 6.55825 7.05524 -9.7882 22
693 1 6.27289 -7.19089 3.98659 16
694 1 -0.638378 7.00299 2.03347 21
695 1 -11.1348 -0.703806 11.967 21
696 1 5.36218 -0.501324 -11.2827 14
697 1 2.69518 -10.999 6.83053 18
698 1 4.23838 15.957 5.02213 15
699 1 -5.97471 3.00813 14.681 20
700 1 -8.54856 -9.15332 -13.7392 14
701 1 -5.62377 -9.53478 -15.4249 13
702 1 -6.05684 -10.0122 -7.26856 20
703 1 -1.96365 16.3468 -5.38697 14
704 1 2.57234 -2.2979 -6.90421 20
705 1 -0.269402 5.05194 9.7386 20
706 1 2.63345 -7.49488 -10.5845 19
707 1 9.18751 -14.2123 -0.152957 14
708 1 -0.621678 -4.03493 9.1108 21
709 1 14.8072 5.00655 -4.88578 15
710 1 5.38312 -10.2651 -4.05671 21
711 1 -13.5736 -2.75673 7.38178 17
712 1 -1.14227 -15.8206 -4.90523 15
713 1 -10.7345 -8.94239 -5.21439 15
714 1 -14.0257 -0.322097 10.2699 21
715 1 1.96662 -17.5099 2.0294 15
716 1 17.7742 3.56003 -3.57011 12
717 1 -1.32735 14.2759 8.00293 18
718 1 -10.3945 1.04965 6.74096 21
719 1 -13.7669 6.88913 5.05749 16
720 1 8.28006 -1.62238 2.78716 20
721 1 -12.8721 -4.75506 -11.8938 14
722 1 -1.34294 10.1816 -2.53832 19
723 1 4.35817 5.49345 -12.1197 20
724 1 8.00862 11.273 16.798 11
725 1 9.46355 2.17755 -7.29918 21
726 1 -11.6686 -0.831143 -6.6252 17
727 1 -14.3956 -5.39099 -8.87112 12
728 1 3.52045 9.00437 12.9933 20
729 1 4.50995 11.2556 -10.3158 19
730 1 9.58579 11.5355 2.89251 17
731 1 -2.92306 0.794192 11.0397 19
732 1 -0.576237 -15.5427 -1.2494 19
733 1 -3.08878 -13.9668 8.02866 16
734 1 0.262029 -6.01616 11.0625 21
735 1 10.8824 11.6421 12.8726 17
736 1 4.35702 -7.59537 -14.4046 20
737 1 -6.38718 6.41209 -0.761535 15
738 1 12.1509 3.51108 2.31347 18
739 1 -8.64184 -5.64768 8.4648 19
740 1 6.57671 9.80867 -9.2908 22
741 1 0.834082 -15.027 -7.61192 11
742 1 2.31326 -14.0272 -1.16723 24
743 1 4.63735 -10.8353 -1.12766 19
744 1 5.50141 2.42063 -10.1419 19
745 1 6.73664 16.8588 2.84876 11
746 1 -2.38052 -0.527769 -15.7685 13
747 1 -3.28458 3.91621 12.6156 19
748 1 0.134049 3.97448 -15.0153 19
749 1 -14.6486 3.1901 -7.84776 13
750 1 -9.72847 -5.05222 -2.17784 20
751 1 0.758644 15.6902 -4.0624 16
752 1 8.6244 -0.993567 -0.298751 19
753 1 -3.68004 -6.97596 -14.3327 19
754 1 -6.85933 -5.64364 -0.867451 18
755 1 8.97393 7.52938 -8.49688 19
756 1 10.3013 -3.35078 1.30582 17
757 1 -11.4993 5.87561 10.0885 16
758 1 8.36367 -8.10867 9.39692 15
759 1 15.699 -4.13691 2.61724 12
760 1 13.4333 -2.70939 7.00012 17
761 1 -1.7762 8.95346 10.2455 20
762 1 -13.9014 0.483566 13.679 12
763 1 -8.0525 5.39888 16.1788 15
764 1 -1.56806 -12.5087 9.88992 12
765 1 10.4718 -4.13087 6.8804 20
766 1 9.99096 6.69629 11.9714 19
767 1 -11.2204 -1.47753 0.664573 21
768 1 9.38625 -8.41919 -2.42178 17
769 1 -9.18271 8.95108 -4.122 19
770 1 4.15606 6.18855 3.01157 20
771 1 7.17818 -15.0139 2.82608 15
772 1 0.419538 3.48959 17.3659 11
773 1 -0.990156 12.3171 10.1039 17
774 1 5.36385 -15.4486 6.10401 13
775 1 -8.71844 -2.36346 -0.957635 23
776 1 2.21856 -0.633005 15.7792 15
777 1 -13.9537 -8.59044 -7.06625 8
778 1 1.11609 12.7716 15.1021 9
779 1 7.02558 13.5736 3.04977 16
780 1 -12.9862 -9.03707 8.40828 10
781 1 -0.15061 -17.1041 4.29016 11
782 1 8.03642 -2.63312 5.52113 21
783 1 12.6839 -3.81159 14.8092 7
784 1 7.48205 6.49383 4.20542 20
785 1 -0.686094 6.88509 -4.27473 19
786 1 -1.68673 -4.02479 -10.5839 23
787 1 2.21772 0.633918 -11.532 20
788 1 -5.90168 -0.533195 13.3816 20
789 1 1.6992 15.5269 6.69977 17
790 1 13.7842 1.21234 0.0894034 19
791 1 5.33764 5.3655 -6.36692 16
792 1 -6.86129 8.31839 16.0065 13
793 1 6.3591 6.45601 12.995 24
794 1 9.27947 -1.95 -14.0836 11
795 1 -3.19371 -16.9003 -1.93463 12
796 1 -6.74815 -1.55505 -6.09083 18
797 1 13.5441 -4.57696 4.95718 15
798 1 8.75934 -2.68741 -9.61907 17
799 1 -0.0825021 10.0138 13.2829 19
800 1 10.0486 -12.4592 -5.76016 12
801 1 6.23581 9.00667 -12.5744 15
802 1 -3.32718 -8.07224 -7.27514 18
803 1 11.3013 6.11842 -9.77481 14
804 1 11.1537 0.103124 1.87471 22
805 1 3.49086 -2.75317 13.6741 18
806 1 -6.28516 -11.0432 -12.5152 11
807 1 9.35549 9.24664 0.951159 21
808 1 -2.4965 -7.4695 2.51864 22
809 1 -8.13577 7.09245 7.34129 18
810 1 11.9326 3.52933 -4.9785 21
811 1 16.7462 7.36908 7.22702 11
812 1 7.83562 -7.50016 -15.4166 13
813 1 -8.04675 9.6881 9.90495 19
814 1 14.1394 7.79817 12.6508 12
815 1 8.50856 16.0895 -3.1287 9
816 1 2.13828 1.78945 -17.4784 15
817 1 10.7271 -5.37307 -1.07328 18
818 1 -11.9028 4.07046 1.16201 19
819 1 12.5501 9.14269 2.01719 16
820 1 -13.8843 -8.26171 -0.863528 11
821 1 -8.36378 12.7006 -8.30944 10
822 1 3.85529 5.63412 14.2412 20
823 1 -9.6232 -5.24115 -8.73703 19
824 1 -12.6597 2.59115 11.473 21
825 1 -0.980256 2.49375 -10.4116 21
826 1 13.0458 -7.61173 -5.04958 13
827 1 -11.7712 -7.00295 -7.27922 16
828 1 15.1523 -5.83645 -0.910385 9
829 1 -15.2019 5.91862 2.54296 12
830 1 -9.90386 -5.06028 -5.38137 23
831 1 13.6099 9.37145 8.38395 19
832 1 -2.6422 -7.8944 12.0466 18
833 1 11.9695 4.2768 16.883 6
834 1 12.9708 -3.95419 9.44406 12
835 1 5.73039 -1.16725 7.6782 20
836 1 -11.9082 7.16176 1.9637 17
837 1 -2.90852 11.6109 12.2559 20
838 1 4.20541 8.65951 -7.70221 21
839 1 -0.0241227 -11.7843 -15.6836 7
840 1 -3.74789 17.3994 8.82196 9
841 1 -7.10897 -9.22194 9.43642 17
842 1 8.19729 11.0717 -4.76691 19
843 1 1.65264 4.61441 12.5296 19
844 1 16.8331 -3.78933 -2.90173 10
845 1 10.2873 -5.59878 9.83394 18
846 1 -1.17763 13.871 -12.2371 13
847 1 1.47213 9.97174 -8.86106 21
848 1 -5.34099 -1.04396 10.4384 22
849 1 15.8435 8.83747 9.79938 12
850 1 -3.18863 -2.09678 -7.64966 21
851 1 10.8359 11.8211 0.438513 12
852 1 -13.1246 0.675992 -2.98841 16
853 1 -0.975517 -7.76582 14.2623 13
854 1 3.33198 16.837 -5.48576 11
855 1 5.07329 -3.68183 9.06996 20
856 1 -0.965418 -12.7708 -5.58203 20
857 1 -8.77596 14.2654 3.52702 11
858 1 -16.6967 1.13881 -1.19383 9
859 1 10.0623 -4.81002 -8.20794 17
860 1 2.89436 -13.7332 -13.8968 10
861 1 -9.43857 9.25239 2.26467 19
862 1 10.14 13.0395 -4.86291 12
863 1 -7.57771 0.899166 8.71152 19
864 1 4.79238 -4.49842 -14.3342 21
865 1 -8.91962 -6.61573 -11.6118 21
866 1 -3.28533 -7.8504 -4.16981 21
867 1 -5.09923 13.5572 12.9507 13
868 1 12.2601 -12.7047 0.736884 9
869 1 0.128396 10.8407 -13.7276 9
870 1 19.5182 2.0259 -0.896405 10
871 1 14.9598 4.01646 0.553411 20
872 1 4.41986 -15.9924 -3.29638 10
873 1 1.91304 -5.57771 -13.8748 21
874 1 10.1202 5.3637 -2.66608 20