ITEM: TIMESTEP
8000
ITEM: NUMBER OF ATOMS
2000
ITEM: BOX BOUNDS pp pp pp
-30.0 30.0
-30.0 30.0
-30.0 30.0
ITEM: ATOMS id type x y z Coordination
1 1 -8.92415 5.18288 -13.7616 15
2 1 -1.77887 -10.8727 -2.84717 20
3 1 6.45488 4.17704 16.9967 16
4 1 7.5974 -10.1798 9.18446 11
5 1 -11.3375 7.31927 2.06468 18
6 1 10.5432 -8.41719 -8.48268 10
7 1 -12.35 0.891292 -3.52961 17
8 1 1.90475 -5.01216 7.47648 18
9 1 -7.31498 2.12713 -12.2854 17
10 1 -13.3061 -4.29964 9.92014 18
11 1 11.4442 6.22087 -9.16888 13
12 1 -3.77136 -13.4044 2.68733 19
13 1 -13.819 -2.30003 7.84893 17
14 1 4.27909 -0.0326819 20.033 10
15 1 -0.0437277 5.83781 10.6206 21
16 1 -3.02362 11.6856 -6.82505 21
17 1 1.6563 -2.8058 14.8905 16
18 1 -8.99415 -1.90568 -15.4882 10
19 1 -14.0504 0.406854 14.0745 13
20 1 8.99582 6.85697 12.6291 19
21 1 1.12915 13.5837 -10.4094 22
22 1 -1.15096 0.614262 -17.6371 13
23 1 12.439 3.67101 3.71102 22
24 1 -13.5163 6.99656 -10.1848 8
25 1 -3.59721 -2.81741 -7.45083 16
26 1 -12.7623 9.46883 8.31592 14
27 1 6.93388 -13.3467 10.7122 4
28 1 0.813924 -11.8873 -6.85777 21
29 1 5.54861 -12.5155 -1.6534 17
30 1 -5.97818 -7.43626 -9.99553 23
31 1 -11.2896 -3.68671 12.6583 18
32 1 1.95606 -5.89235 -13.1262 22
33 1 5.12364 -5.57578 -8.48946 19
34 1 -1.41162 3.80781 -15.449 16
35 1 1.34623 3.57371 12.9306 21
36 1 -0.0890021 -7.69091 10.5705 17
37 1 8.52148 -6.34624 13.497 10
38 1 -16.5497 3.97151 3.83301 11
39 1 -14.9512 0.654136 8.81977 18
40 1 -11.5266 2.61203 -0.513861 21
41 1 -3.51833 14.254 -2.20461 20
42 1 -1.24596 -14.5564 -6.40852 21
43 1 2.38939 -0.148016 -10.8186 18
44 1 -0.390991 -6.71901 -10.9946 20
45 1 -3.54041 -2.11236 15.1777 13
46 1 -14.5732 9.94039 3.3945 14
47 1 2.48461 13.4408 -13.4113 14
48 1 -0.974489 12.395 7.71147 18
49 1 -1.58952 9.36918 -10.1835 18
50 1 -3.80221 15.4889 0.178875 18
51 1 5.64375 -11.0181 0.595679 20
52 1 4.77663 -5.1913 -3.3675 22
53 1 9.21425 -3.76654 -15.6113 7
54 1 -13.4209 9.5644 13.0433 9
55 1 -17.1229 -3.40678 -8.11121 10
56 1 7.22707 -2.05241 1.99636 21
57 1 -10.222 11.6922 -0.417589 18
58 1 -10.459 -9.91762 7.89612 16
59 1 -1.12922 8.71719 10.1759 20
60 1 -11.393 9.5215 -11.2574 13
61 1 -10.6232 9.69553 14.1373 10
62 1 -8.4284 -12.2086 6.179 18
63 1 1.98788 6.67832 7.72781 20
64 1 2.25693 -15.3257 -5.69095 15
65 1 1.84299 14.4697 11.5172 11
66 1 -14.7293 2.39309 -9.17419 10
67 1 -11.9122 6.83179 -12.784 9
68 1 4.31496 10.2511 15.1862 15
69 1 11.5477 1.35783 -13.4843 11
70 1 7.65311 -11.1005 3.67186 15
71 1 -16.2864 -0.726277 1.79876 21
72 1 6.40853 17.7303 8.92489 11
73 1 6.57233 1.95876 19.5284 13
74 1 -11.1391 -12.7488 7.27675 11
75 1 -15.729 1.63339 -3.41685 20
76 1 11.716 0.342075 7.74504 22
77 1 6.79157 -2.31894 -3.40358 22
78 1 -7.0413 11.1522 9.91483 13
79 1 5.65262 1.06542 7.5845 19
80 1 -5.10309 -4.83629 -9.10461 19
81 1 -14.7795 8.62151 9.88321 14
82 1 -11.7338 16.2243 -3.3534 8
83 1 -6.22795 5.96551 -8.73373 20
84 1 6.89265 -0.365585 -6.07166 22
85 1 7.29147 14.5354 -5.06549 13
86 1 5.73892 -4.90101 2.09151 19
87 1 8.2103 -4.90379 7.13384 18
88 1 -5.46408 12.757 -3.94387 18
89 1 -8.60758 18.3833 2.99952 10
90 1 -10.2636 1.08537 8.41274 20
91 1 -3.9407 8.77061 5.03853 23
92 1 -3.32353 -5.71893 11.0811 18
93 1 14.297 -7.00006 -5.39118 12
94 1 -12.0832 3.68469 7.48152 19
95 1 -8.62363 -9.74209 4.83698 19
96 1 9.74448 -10.065 -3.4563 18
97 1 4.01514 3.00336 -10.7958 18
98 1 -4.77151 -6.5772 -15.4461 14
99 1 -0.94677 14.5571 5.60002 20
100 1 -10.0991 8.28565 -14.4012 9
101 1 2.85928 7.04686 16.3563 13
102 1 0.024766 12.7527 -4.15185 18
103 1 -14.9147 11.4271 0.273162 9
104 1 -0.917536 13.0216 2.74577 21
105 1 0.617882 -5.39443 12.9681 16
106 1 16.428 3.85926 10.604 7
107 1 -3.45899 -5.41957 -6.01253 21
108 1 6.41324 -3.06342 -8.92412 21
109 1 -2.86963 6.30316 9.49169 18
110 1 8.78972 0.241177 17.0579 12
111 1 -10.1319 -5.15812 -1.453 18
112 1 -13.0564 -4.47279 -4.3174 21
113 1 11.1864 -6.91658 2.6853 18
114 1 -2.72597 9.9868 2.05611 22
115 1 4.01787 0.975107 -12.8775 16
116 1 0.920519 18.9257 -2.59665 11
117 1 -7.20517 -12.5235 12.3965 8
118 1 -10.4727 -14.6346 5.12559 11
119 1 3.84001 -7.82421 -14.4817 13
120 1 1.35883 8.50127 -7.62234 19
121 1 10.0268 -12.4465 1.12527 11
122 1 -3.07122 -15.3606 4.64772 15
123 1 -11.5165 -9.82236 0.999287 20
124 1 7.63991 7.39818 9.90192 17
125 1 11.844 -1.97883 -6.28582 22
126 1 -18.9015 -2.51381 0.925137 10
127 1 6.10346 8.08035 5.27198 18
128 1 12.8042 7.28701 0.788558 15
129 1 -8.05524 4.44889 18.7213 8
130 1 -4.80071 9.73703 13.6673 11
131 1 -3.86383 14.4473 -8.13 15
132 1 -1.51892 -4.72557 -8.81265 23
133 1 7.39701 -8.72783 -9.12945 20
134 1 0.212796 15.6654 -12.878 12
135 1 8.77224 -7.28953 10.4217 14
136 1 -6.30236 -2.87296 -14.6328 18
137 1 -4.58176 8.46083 -7.93075 22
138 1 7.22036 5.35921 -5.36159 23
139 1 -11.6596 12.2028 -6.44237 11
140 1 -9.57425 16.92 -0.198062 14
141 1 5.73593 1.34559 -8.50618 18
142 1 9.47456 -7.87651 4.53375 16
143 1 -10.4954 8.44679 -7.94403 17
144 1 -9.35862 15.0178 8.16133 10
145 1 10.493 5.89251 -6.19042 18
146 1 5.94142 13.636 -1.66937 14
147 1 -3.8362 20.1024 -0.17734 6
148 1 8.0679 10.9146 1.9153 17
149 1 -3.00771 10.2818 -3.06046 19
150 1 1.29658 17.2221 -8.15302 16
151 1 2.48015 10.7755 -12.9004 15
152 1 -13.3823 -5.0747 4.09653 17
153 1 -12.2335 9.45283 -5.04216 13
154 1 -8.84803 -3.60004 -13.1872 16
155 1 5.95209 -12.081 -9.37257 15
156 1 8.44805 12.7162 9.82718 16
157 1 -0.30199 12.9783 12.4355 12
158 1 -14.5053 1.82614 -5.85104 13
159 1 -10.5464 13.7966 2.1989 16
160 1 14.6434 -0.785217 -5.49474 19
161 1 -11.1584 2.05292 -12.8654 18
162 1 5.16974 1.52182 16.9773 18
163 1 9.79516 16.0865 1.13688 14
164 1 -4.64503 8.82898 10.5293 17
165 1 2.93023 -12.4481 -11.2581 12
166 1 -6.08951 15.7277 6.7757 11
167 1 -0.770864 14.6868 -7.31797 21
168 1 4.12087 -1.24578 14.2897 22
169 1 -11.9091 -5.53531 7.04488 16
170 1 -2.52324 -13.8783 -10.0799 14
171 1 -7.53184 10.0588 -7.83238 20
172 1 -4.34282 -10.1104 3.71702 22
173 1 0.68256 -18.1516 -6.116 9
174 1 -0.805018 11.889 -12.5439 19
175 1 -17.5343 4.39657 13.4703 7
176 1 11.2523 10.7651 -2.47815 14
177 1 -9.49084 6.93188 16.6027 13
178 1 2.61533 -8.09076 12.3658 11
179 1 -9.29076 7.36083 -2.86658 19
180 1 4.9322 17.5361 5.35915 13
181 1 -0.662848 6.91464 7.61612 20
182 1 14.5355 6.18454 13.0339 9
183 1 -9.07034 16.9715 5.71355 12
184 1 8.26223 -8.20597 -5.5492 18
185 1 -10.1757 11.7656 9.98999 11
186 1 -11.5094 6.02815 -5.287 17
187 1 16.2273 -3.04701 -0.735954 8
188 1 -7.51034 -10.1217 8.1199 19
189 1 -13.3556 0.454009 6.32394 18
190 1 -14.0124 -7.7197 2.57746 13
191 1 10.2054 3.53526 17.5892 12
192 1 -18.4669 2.79965 -1.57915 12
193 1 -2.90281 -12.6535 -0.0104063 18
194 1 3.38771 -7.52805 -3.08615 19
195 1 -2.54854 11.7584 4.78567 20
196 1 3.74662 10.6955 12.0138 20
197 1 -8.91416 -0.288355 -7.61005 21
198 1 -2.11477 12.3261 -9.75847 18
199 1 -13.496 -0.0740622 -1.23869 21
200 1 -6.21701 -5.03244 13.9259 11
201 1 -2.44082 -12.6553 8.92609 12
202 1 0.410928 -15.9099 4.16144 13
203 1 -13.6837 13.712 1.36146 10
204 1 16.5742 -0.313137 -2.93088 14
205 1 6.86004 3.42769 -3.172 20
206 1 -5.08256 -8.70488 -13.3018 16
207 1 3.34629 -2.4624 11.2216 15
208 1 5.80042 -15.3203 7.74378 5
209 1 0.426498 7.08409 -10.196 21
210 1 3.84796 -11.8686 -5.56175 18
211 1 10.2651 4.41675 -15.236 9
212 1 1.99875 3.40191 -17.193 12
213 1 -8.47247 -3.61787 -6.45061 18
214 1 -1.23484 16.784 -4.27617 17
215 1 -8.18452 -12.9375 9.03307 16
216 1 9.42707 15.868 -2.54942 14
217 1 -11.3397 4.4359 15.3137 16
218 1 -5.0645 9.88988 -5.47814 16
219 1 11.2029 0.715789 4.20304 21
220 1 -3.23787 -5.78782 -11.6445 21
221 1 -5.31153 11.5544 -9.15654 18
222 1 1.583 1.66446 -14.469 17
223 1 -9.8612 -7.00064 2.36378 22
224 1 -14.7111 8.31111 6.21034 15
225 1 -9.81641 10.208 7.45647 21
226 1 2.06618 -10.4982 -9.70398 20
227 1 -8.43189 -10.0065 1.48324 20
228 1 8.03017 -11.0958 -1.08891 21
229 1 10.9097 6.97035 15.4026 13
230 1 3.12654 11.0839 -8.07732 19
231 1 -1.77518 12.1456 -0.264263 22
232 1 -15.2503 -1.73334 5.04424 19
233 1 -14.4148 13.3368 -2.20018 6
234 1 1.84758 8.61881 10.4552 19
235 1 4.32869 -14.038 1.40627 15
236 1 10.3846 0.0567144 -1.27839 21
237 1 2.24722 8.51432 5.25442 21
238 1 -12.3258 5.13313 12.3412 20
239 1 -15.1183 -2.056 -3.42847 19
240 1 3.92119 -0.371415 -15.3666 15
241 1 5.75925 0.286953 10.6437 20
242 1 6.67845 10.5605 -8.58686 11
243 1 1.65097 -10.6999 -3.27088 20
244 1 -4.35553 -0.596165 -13.3926 20
245 1 -0.354302 -13.9686 6.60556 15
246 1 13.6626 3.77841 -6.99612 17
247 1 -10.7817 -2.37551 7.2358 21
248 1 7.12226 -13.6736 1.45102 15
249 1 -10.3721 -0.463353 -4.82315 18
250 1 1.14197 14.2661 0.314492 20
251 1 3.56395 -3.99973 -10.5744 20
252 1 6.01754 2.39026 13.8395 17
253 1 10.0631 3.64327 -3.71514 24
254 1 9.3541 -1.83488 -9.08911 18
255 1 -12.3808 -0.342642 -8.69166 18
256 1 -11.5047 2.1009 -6.7039 15
257 1 -8.3689 -15.3463 6.97635 13
258 1 11.7735 -2.71651 9.72685 15
259 1 3.90876 -1.97854 6.95009 14
260 1 -3.03502 -7.72048 -9.04244 22
261 1 0.792942 -8.12776 6.77844 18
262 1 1.82017 4.72951 -12.8879 17
263 1 2.57435 12.6976 2.22115 18
264 1 -7.56946 -4.71144 3.24662 23
265 1 -2.93224 17.7498 5.1202 16
266 1 -8.60592 -4.17125 15.8079 9
267 1 -12.3062 -4.34924 -10.8311 9
268 1 -6.53172 -10.5418 -7.48588 15
269 1 -0.79313 8.87474 -13.4887 18
270 1 -6.24923 -7.87555 -2.44964 20
271 1 -4.20737 -12.1699 5.70238 15
272 1 4.95197 -5.17308 -13.7697 17
273 1 8.78553 0.991811 -8.8103 18
274 1 9.23164 3.00555 4.29583 21
275 1 -8.77488 -6.16453 12.5599 16
276 1 -3.52898 -7.50744 2.42122 21
277 1 12.0594 1.02573 16.6969 9
278 1 -5.90923 -16.2692 -2.30084 11
279 1 0.367765 -13.7265 -3.94187 21
280 1 -8.75707 15.7645 -2.5781 15
281 1 6.68886 -0.529262 -11.4026 18
282 1 -3.57072 -3.2958 -13.9662 22
283 1 -8.07894 -2.56482 12.1372 22
284 1 4.85049 6.57658 18.8159 11
285 1 1.11614 -12.8334 3.93515 19
286 1 -1.29435 -10.9548 -9.34194 20
287 1 -8.61748 6.68885 -9.5811 18
288 1 10.2756 2.41124 9.59292 16
289 1 -9.64122 4.99978 -7.4816 16
290 1 1.25279 2.85291 -10.5847 18
291 1 6.94847 -15.7568 -3.57432 9
292 1 -9.04324 14.0971 -5.56332 13
293 1 -1.9965 14.1391 9.66142 12
294 1 14.0434 5.44775 6.99451 14
295 1 -10.4628 0.123859 5.49415 18
296 1 2.32206 -6.37305 15.5736 10
297 1 -7.93717 6.99631 2.26364 21
298 1 3.63234 -9.55316 -8.08147 21
299 1 9.60876 10.0572 -4.89449 18
300 1 -0.0858965 -7.79491 2.06757 18
301 1 -4.41676 0.179062 16.3229 14
302 1 -17.8559 2.20174 1.77233 12
303 1 -4.19015 -10.0673 -4.64678 21
304 1 -8.01958 8.34847 10.0036 18
305 1 -14.123 3.55765 14.4438 14
306 1 -16.0948 -1.62664 13.7671 10
307 1 -14.6041 -4.93686 13.4586 8
308 1 14.7194 -1.69791 -8.49347 16
309 1 -11.0167 -7.06014 9.17136 16
310 1 7.28946 -3.93048 -11.9177 18
311 1 9.23951 -11.5522 -8.38721 12
312 1 -2.34369 17.7785 -1.11424 17
313 1 -8.45196 12.4153 -2.10483 22
314 1 6.25689 6.19859 12.9404 18
315 1 -12.1877 -2.04209 4.38226 22
316 1 8.42062 -9.24396 1.57679 17
317 1 -5.83988 9.65869 2.23211 23
318 1 -5.72919 11.6638 4.7298 20
319 1 5.88951 -7.94314 11.2571 14
320 1 13.9601 -4.30319 6.35559 12
321 1 -4.58825 7.0783 7.23808 19
322 1 -7.43529 -4.77625 -2.21935 17
323 1 -6.27476 -2.44785 17.1207 10
324 1 -3.7845 14.2576 3.61179 18
325 1 8.28147 6.25957 17.8569 12
326 1 -8.50664 12.9132 -8.90333 11
327 1 -0.116488 -3.71951 -15.6645 16
328 1 4.72016 -10.013 -11.4686 18
329 1 -11.4365 8.39015 10.6618 21
330 1 -11.1901 2.92093 4.64341 15
331 1 -6.58716 -2.28455 -8.31295 19
332 1 -6.01286 11.4045 -1.13305 21
333 1 7.1203 -1.92735 7.66147 19
334 1 -9.6915 -12.0771 -0.280172 15
335 1 9.28542 -10.2305 6.22934 9
336 1 -6.28957 -10.1655 10.8361 18
337 1 -15.3907 8.26786 0.401983 11
338 1 -0.126339 -4.04552 10.2627 18
339 1 10.2386 -12.0662 -5.65671 13
340 1 -2.93675 4.8424 -7.41635 23
341 1 8.80918 2.12382 -17.0591 9
342 1 4.63235 15.2332 1.85796 20
343 1 -10.0046 -0.104221 -1.19608 17
344 1 7.24876 -6.59623 -14.1408 13
345 1 6.13505 6.32299 -10.486 18
346 1 -6.92035 -15.6636 -5.13288 8
347 1 -15.4338 -5.11685 -2.87288 14
348 1 -9.06536 -8.24836 -0.561244 20
349 1 11.6856 4.81188 12.0307 18
350 1 7.84745 2.65672 -6.6311 20
351 1 -9.4631 3.42199 -10.6314 17
352 1 0.255609 19.0971 3.42695 9
353 1 -18.7453 1.1773 -4.28855 12
354 1 -9.19099 11.7451 4.83463 21
355 1 -7.93257 12.5478 1.12141 20
356 1 -7.58026 6.85244 7.77835 22
357 1 11.0837 -0.377616 14.6548 11
358 1 11.9378 0.818567 -4.96646 16
359 1 6.35288 -2.59304 12.0415 19
360 1 11.8012 0.572525 -8.23812 20
361 1 -9.72523 -9.85803 -6.37808 13
362 1 -0.0631716 -7.81866 -2.97014 21
363 1 0.823908 11.7235 4.75117 19
364 1 -8.43479 2.69718 -5.74723 21
365 1 5.34443 -8.11332 -0.517662 16
366 1 9.02512 -2.48968 4.61043 20
367 1 -9.66662 -3.5638 -3.69311 20
368 1 -6.68973 -7.87587 2.95919 23
369 1 -9.08898 -7.55147 5.86485 25
370 1 -4.5186 12.7685 1.07355 19
371 1 -11.81 -6.8137 0.311522 20
372 1 9.04629 5.07246 15.0562 19
373 1 -9.86105 6.16845 -0.451447 19
374 1 3.08255 15.9897 -11.0638 11
375 1 2.49074 14.5583 6.38194 16
376 1 -14.7544 -8.0411 -1.13808 11
377 1 0.00513947 -5.7387 -5.6586 21
378 1 -17.2859 -0.330628 7.16925 12
379 1 -11.2159 8.68031 -0.155446 16
380 1 6.23147 -10.3846 6.78713 12
381 1 -6.89379 -17.2664 0.568844 9
382 1 6.62072 9.74742 12.5274 19
383 1 1.99312 11.4891 -16.7147 10
384 1 -12.7093 3.87141 -10.8756 15
385 1 -1.08447 15.6651 -9.76103 15
386 1 -12.425 6.66194 -1.89986 18
387 1 -3.36459 -9.60919 7.20814 16
388 1 12.5935 3.12472 -1.97021 21
389 1 -3.89714 7.77074 -14.0591 14
390 1 -4.41468 3.04975 10.9786 17
391 1 -13.7058 -2.9133 2.11646 20
392 1 -9.31791 3.91063 7.60245 20
393 1 -6.65409 -14.3969 0.333291 15
394 1 12.7056 -8.40031 -2.11431 11
395 1 -13.4358 0.567586 3.03048 16
396 1 -14.1623 -1.9642 11.8853 17
397 1 -14.872 5.18996 6.52886 16
398 1 -0.875694 -4.50591 7.02999 18
399 1 -6.93523 4.53034 -15.7089 12
400 1 12.9275 -10.0983 -4.31151 11
401 1 -0.276635 -11.657 -12.1728 15
402 1 -2.77722 -2.10607 11.0353 16
403 1 -6.55652 0.430441 -15.0815 16
404 1 4.29599 -10.8086 4.16997 19
405 1 -0.18972 10.5609 -7.32033 19
406 1 -13.3156 11.4233 5.68227 14
407 1 -5.14649 -2.50669 12.8269 15
408 1 -13.8331 -3.50541 -8.33872 20
409 1 -8.48742 -4.45424 6.99897 19
410 1 10.64 -6.54043 8.24889 14
411 1 1.46187 0.814301 -8.15321 17
412 1 11.2837 -5.14588 4.96909 21
413 1 12.5438 8.02843 -4.41251 12
414 1 0.782433 4.23672 16.6064 13
415 1 -0.578138 15.2259 -1.73874 22
416 1 9.81798 -4.20066 1.33765 20
417 1 -2.90024 -14.0795 -3.10603 19
418 1 -7.64441 4.95416 15.0149 21
419 1 -2.64537 16.0737 7.8851 9
420 1 -5.252 -8.21695 -6.56662 19
421 1 6.96852 16.9105 3.43357 16
422 1 5.2909 5.91857 8.16233 18
423 1 -8.64643 0.814441 11.2136 18
424 1 -10.3231 -6.20775 -5.84883 22
425 1 -10.2483 5.57131 10.1472 21
426 1 -11.9704 -6.88691 -3.05401 21
427 1 -7.19136 12.9002 6.87978 15
428 1 -4.5391 -10.5845 -1.93237 21
429 1 -3.13315 -11.3269 -12.1068 14
430 1 -8.54576 -14.4855 -2.16358 11
431 1 -5.98154 -5.65426 5.70581 22
432 1 7.24304 -0.0850261 4.3154 20
433 1 -0.933876 -2.65992 13.4581 15
434 1 -8.19447 10.2659 -10.674 14
435 1 6.97628 3.43672 1.83997 20
436 1 -12.169 -8.50279 -6.14839 14
437 1 -6.18013 17.6015 -2.36447 11
438 1 -1.49023 3.39597 -10.3165 20
439 1 -2.65112 7.6179 12.5867 18
440 1 -13.0991 4.69872 1.43324 14
441 1 -5.35525 15.8859 -4.73646 13
442 1 6.72241 17.3912 -3.05697 14
443 1 -11.6309 -3.4872 -6.71109 19
444 1 6.54911 -1.60038 17.8175 14
445 1 3.52795 -13.2424 -8.24269 17
446 1 -3.28145 -2.58642 -10.3296 20
447 1 9.38847 -14.406 -1.30661 11
448 1 -10.2979 6.90897 7.34248 21
449 1 3.36353 4.07899 18.5115 16
450 1 9.11537 8.3047 -0.148946 20
451 1 0.804766 11.8958 -0.867743 19
452 1 -6.46858 4.78451 -11.745 20
453 1 0.16535 4.20535 -7.96148 19
454 1 3.62206 -7.92967 6.40354 19
455 1 -17.4295 4.13573 -4.38271 8
456 1 4.4976 15.5622 7.62912 17
457 1 -4.22032 2.21931 -16.5745 14
458 1 7.30585 5.8001 -1.19379 19
459 1 4.28452 18.9257 -5.85796 6
460 1 6.97809 -5.23075 -0.54222 19
461 1 16.7701 2.59312 -5.30847 12
462 1 -4.08078 0.389057 -11.0031 18
463 1 1.50164 -9.30604 3.88029 18
464 1 -0.394659 -10.4147 8.52566 14
465 1 2.3173 -9.32175 9.13565 12
466 1 -10.4253 0.726172 -10.1101 17
467 1 -13.3788 -13.1086 4.78059 6
468 1 -5.13068 -12.8642 -3.88139 17
469 1 8.77239 16.034 10.3559 10
470 1 -0.975542 -1.29715 -14.0182 17
471 1 3.2685 -0.614745 17.1916 16
472 1 -17.0397 3.367 10.715 15
473 1 -0.760855 -16.7635 -3.89983 17
474 1 -15.05 1.95396 0.268776 18
475 1 15.1993 -3.81056 -6.22531 15
476 1 17.049 -0.722661 -6.33756 12
477 1 -9.01746 7.90358 -5.37302 20
478 1 3.19894 -6.02164 -6.0689 19
479 1 4.51018 3.39651 -14.8122 20
480 1 7.96172 -5.09989 -4.64641 18
481 1 -10.6493 1.89347 18.0625 10
482 1 1.52506 15.0542 3.53443 20
483 1 -8.0921 -5.51913 -15.9135 11
484 1 4.66906 1.77025 -17.6245 12
485 1 -6.35088 -4.43767 10.4107 20
486 1 -6.02018 17.1993 4.01459 15
487 1 -8.78128 -6.32013 -10.9544 15
488 1 -17.1581 5.54815 0.768508 11
489 1 1.31077 -9.13409 -12.2944 17
490 1 -8.94121 -9.40387 11.0023 13
491 1 1.31366 10.3126 -10.6355 21
492 1 15.4724 6.85771 9.50231 11
493 1 9.55624 7.13691 -3.37968 21
494 1 -14.7651 -8.4126 -3.90437 11
495 1 1.71647 -8.80368 -0.896676 18
496 1 -0.946866 -6.67617 -14.3579 20
497 1 -11.4316 14.6996 5.38238 13
498 1 3.38557 -1.97782 -8.40418 20
499 1 11.6989 -2.9026 -0.704908 18
500 1 1.10295 15.3333 -5.1965 18
501 1 3.4432 -5.81775 4.50284 20
502 1 8.76859 4.76083 -8.5613 22
503 1 5.97103 7.09146 15.5673 18
504 1 -9.07139 -1.27165 14.5006 15
505 1 7.02218 11.7974 14.7243 12
506 1 6.52218 -4.26831 15.4517 13
507 1 1.86149 -2.52 -13.5557 18
508 1 -7.47442 -6.72266 -4.65657 18
509 1 0.991913 2.72936 9.91508 22
510 1 12.2469 11.6065 11.0908 7
511 1 6.88696 6.82779 -7.41944 16
512 1 -10.2969 10.1075 -3.25706 20
513 1 2.79271 13.251 -2.61897 20
514 1 9.31494 -2.81069 13.2057 16
515 1 6.9547 5.03397 -13.6505 14
516 1 11.0829 -9.49463 0.236813 12
517 1 12.7988 8.58664 10.3237 13
518 1 -18.1541 -3.04369 -2.09897 12
519 1 -6.02511 8.15914 -11.0611 18
520 1 -1.40983 1.21358 11.3056 18
521 1 -16.8823 1.55364 13.6589 11
522 1 -1.66612 5.55336 -12.5246 19
523 1 2.09676 -10.9448 1.54405 20
524 1 9.98611 0.609783 -11.1319 16
525 1 -5.9599 13.3422 -6.42742 19
526 1 -6.10203 -5.57677 -12.6183 21
527 1 2.7228 -13.105 -0.865832 19
528 1 -20.1397 -1.08358 -2.2295 10
529 1 -1.33303 10.2753 -16.0124 10
530 1 0.070359 6.52426 13.6006 21
531 1 -11.7651 -6.75002 12.0783 12
532 1 5.42644 8.58687 0.33897 19
533 1 1.85866 -8.74483 -5.99687 20
534 1 6.01805 -4.89463 10.6753 18
535 1 8.59655 -2.88099 -6.67259 18
536 1 -11.052 8.92129 4.47001 19
537 1 3.86362 5.39109 22.0697 5
538 1 4.16731 19.0794 -3.09161 11
539 1 15.6007 -6.2168 -3.16198 8
540 1 9.60883 13.2436 12.4596 10
541 1 -1.27291 3.43828 -18.1005 10
542 1 -6.19203 -15.8465 9.77066 8
543 1 -2.52507 1.70568 -8.19097 20
544 1 9.90987 -2.9202 -12.384 14
545 1 6.21993 13.2643 11.9565 19
546 1 5.65484 4.23063 -8.01681 20
547 1 -3.71596 -1.10461 -16.3384 14
548 1 -5.3644 -8.76769 0.432541 19
549 1 -15.4914 -2.88522 -11.5669 8
550 1 14.1148 0.58992 -0.722729 21
551 1 13.7569 6.19879 -2.08243 17
552 1 8.28228 -5.92569 -7.91257 17
553 1 11.6079 8.21647 12.6706 14
554 1 5.92566 -10.1458 -3.25166 21
555 1 1.55751 1.12076 -19.3188 9
556 1 7.82457 10.8121 4.43792 19
557 1 -9.74228 4.03899 1.86735 18
558 1 5.62591 14.4872 14.5563 11
559 1 7.52177 7.7702 2.92495 22
560 1 13.7315 -1.71317 1.08651 19
561 1 9.1158 6.41618 -11.1995 11
562 1 13.9899 -1.63184 8.19573 14
563 1 13.1745 2.80815 10.1872 16
564 1 3.96494 -4.05307 13.4467 18
565 1 11.6106 13.9608 -0.945183 14
566 1 -0.455216 -0.876267 16.6737 11
567 1 15.3224 4.63929 -4.33306 11
568 1 4.44638 3.01476 10.8421 21
569 1 -7.64647 3.64536 -8.5779 18
570 1 11.888 1.4833 0.966514 18
571 1 8.23842 -5.98089 2.66874 15
572 1 -13.0241 6.89463 15.1415 11
573 1 4.06742 13.2042 16.1959 9
574 1 11.0459 5.28855 9.54272 17
575 1 0.807902 9.48115 7.11316 21
576 1 0.629094 11.4377 9.78218 17
577 1 6.66164 3.53373 9.02883 18
578 1 -2.26877 -17.2448 2.36557 12
579 1 -2.75688 13.7527 -4.75195 19
580 1 8.52287 12.0784 -6.43214 11
581 1 8.01636 -5.90724 -10.5229 16
582 1 -3.72676 18.8531 -3.8467 9
583 1 -7.0949 -10.2977 -4.57903 18
584 1 11.0359 -4.59675 -6.3348 17
585 1 -16.8337 0.465985 10.5814 14
586 1 -1.32192 6.89123 -7.80204 22
587 1 -5.40755 -17.1831 3.42454 11
588 1 -6.94235 -0.289735 -10.5285 18
589 1 -10.1134 4.17889 -2.94229 17
590 1 12.3324 -8.13273 6.07011 9
591 1 10.2226 12.186 2.30913 17
592 1 -1.57077 -8.95056 4.76732 17
593 1 -16.7588 -0.781623 -5.85757 15
594 1 3.10187 -4.55544 -16.124 14
595 1 -2.47521 5.44865 15.5542 16
596 1 4.61735 12.1536 -10.7331 14
597 1 15.2241 1.41184 8.02848 12
598 1 4.16498 6.14884 -6.16439 22
599 1 10.9406 9.02837 2.15948 17
600 1 -2.048 -18.0225 -6.77908 9
601 1 -11.0137 -0.425598 12.7634 17
602 1 12.8206 2.86997 6.90074 21
603 1 -1.86368 11.7149 15.3336 6
604 1 5.12307 12.4968 -6.09379 13
605 1 -12.7917 9.86248 -8.47383 11
606 1 7.14781 12.8887 6.64878 19
607 1 -12.5446 -10.2775 -1.21666 15
608 1 12.9487 -4.34104 2.63624 16
609 1 12.2471 14.288 2.44813 9
610 1 -7.2928 5.64247 11.7498 16
611 1 -10.5497 -3.90738 1.69404 21
612 1 -15.9662 -0.691399 -9.69035 12
613 1 8.53701 -0.136175 12.1772 17
614 1 -3.39682 -8.58891 11.6455 12
615 1 13.5286 0.00903151 11.2355 11
616 1 -6.45836 14.3654 -0.790663 21
617 1 10.2402 5.88661 2.56358 20
618 1 7.64573 5.37493 4.06731 19
619 1 0.746078 -1.59888 -16.7977 13
620 1 -7.26503 0.984316 8.18151 19
621 1 10.9326 -3.73906 -10.0426 13
622 1 13.349 -3.83888 -8.71456 13
623 1 4.78689 7.91244 10.9594 20
624 1 0.841354 9.46825 1.96954 22
625 1 -11.1558 1.34627 15.4508 11
626 1 10.8106 5.27585 5.76244 21
627 1 -3.51609 0.22212 12.6199 14
628 1 -1.92717 4.18576 12.194 16
629 1 -1.33604 -8.96838 -11.9714 19
630 1 -10.1632 6.68284 13.4271 20
631 1 2.95171 0.687202 11.0992 19
632 1 -8.1316 -13.1106 3.08784 14
633 1 11.8125 8.39615 -1.33583 18
634 1 4.4591 -14.4545 -4.01377 15
635 1 3.97266 11.634 0.125638 17
636 1 10.2218 13.6842 5.52072 9
637 1 7.16128 -0.421104 -16.8784 10
638 1 3.66076 16.1999 -1.07884 20
639 1 5.32993 12.2845 3.41044 18
640 1 -9.38669 -8.37907 -8.97779 14
641 1 -0.760387 -3.56941 -12.1344 17
642 1 -11.5137 14.6101 -1.15982 17
643 1 8.01965 -7.75735 -2.32445 17
644 1 6.67695 9.03697 -11.9741 9
645 1 8.7785 13.6172 -0.528057 21
646 1 -9.20466 5.23404 5.04489 22
647 1 5.18088 6.65953 -3.34625 20
648 1 12.5725 4.16343 15.0905 11
649 1 13.2421 1.67365 13.4089 12
650 1 -3.15127 -15.754 7.86853 11
651 1 -4.022 9.87413 -12.0119 17
652 1 4.19608 12.3884 9.11898 19
653 1 5.5507 -7.20442 -11.3755 21
654 1 3.11622 1.63242 14.3112 16
655 1 5.7485 18.6057 0.218786 12
656 1 9.68901 8.16572 5.56788 21
657 1 16.6345 -3.46043 -3.56205 10
658 1 7.92762 3.39105 11.979 15
659 1 -11.9261 1.72323 10.7765 16
660 1 4.73084 -15.8245 -0.778475 13
661 1 -0.0214954 -1.6629 -8.07642 18
662 1 -5.91342 17.671 0.620876 19
663 1 5.34989 14.8399 5.02359 20
664 1 -17.7797 -2.11894 3.99476 11
665 1 -4.57281 5.30445 18.2321 8
666 1 1.41929 8.40914 -16.9467 6
667 1 -6.59872 6.92369 -14.6531 15
668 1 1.60232 -15.6897 1.39622 15
669 1 3.44417 8.72517 -5.40101 17
670 1 -15.5715 6.48341 11.749 14
671 1 7.27766 1.65676 -14.3737 18
672 1 6.71259 -7.30214 8.00548 17
673 1 -1.53736 16.2153 2.81505 19
674 1 -7.3744 0.717539 17.5625 13
675 1 -9.30162 -3.67182 -9.49819 18
676 1 -5.42869 -13.4113 -9.549 10
677 1 -5.05455 -12.9608 -6.83706 14
678 1 -2.18261 17.5093 -7.69252 10
679 1 5.15184 -3.32321 -5.92908 20
680 1 -6.09315 9.68923 7.60143 22
681 1 5.32877 -8.2962 -5.43641 17
682 1 5.30326 -13.1595 4.83654 12
683 1 2.8462 -5.95437 9.9157 18
684 1 9.9843 3.58463 -11.3842 16
685 1 -2.02991 -12.2476 -5.19816 16
686 1 -11.8885 -1.30312 10.1026 22
687 1 -3.77364 -16.1445 0.022864 17
688 1 -7.50453 -6.21218 -7.78943 20
689 1 -9.72479 3.93557 12.5163 16
690 1 -8.17512 -17.1289 3.97409 9
691 1 12.5454 5.025 -4.19258 19
692 1 0.171123 17.2225 6.33245 12
693 1 -5.87687 4.32978 8.0408 21
694 1 -9.30664 9.98701 1.90352 21
695 1 8.94203 0.980217 2.44292 21
696 1 -14.2797 0.502094 -11.6016 14
697 1 -1.74607 8.78201 -5.37265 18
698 1 13.5229 2.60248 -10.4539 9
699 1 2.53735 15.575 14.2435 10
700 1 12.6157 11.4122 0.39832 11
701 1 -13.9299 5.00239 -7.33758 11
702 1 -16.3096 -3.95319 -5.61645 15
703 1 1.14409 1.32215 18.5385 10
704 1 6.86381 3.81499 -16.9158 12
705 1 9.45723 11.2718 7.18783 13
706 1 -0.231018 -0.581226 9.89124 20
707 1 -10.2485 -12.2723 -3.8316 9
708 1 -5.61327 -16.9776 6.60665 10
709 1 -4.41653 -4.59106 8.43436 19
710 1 8.61521 5.32893 7.00483 17
711 1 2.75489 -7.04294 -10.4332 22
712 1 -8.28108 9.36953 -0.500147 22
713 1 4.4013 9.44816 2.87277 20
714 1 -8.17801 -2.44534 5.3663 21
715 1 3.38602 8.0933 -10.5472 18
716 1 -3.78138 -15.4033 -7.26954 11
717 1 -0.753991 -15.4571 -0.6256 19
718 1 -0.0248524 -12.7077 -1.01524 21
719 1 3.09884 5.64969 -9.59679 22
720 1 3.41818 17.4655 2.2799 15
721 1 -8.59926 -8.74986 -14.3681 6
722 1 0.527496 -0.283831 13.3878 17
723 1 -3.29698 6.54968 -10.4844 21
724 1 -9.6799 2.12884 -16.0058 8
725 1 -15.5204 -2.85507 -0.657573 14
726 1 1.35311 19.1003 -5.40996 11
727 1 -1.68966 -6.62418 -16.9836 7
728 1 -10.0599 -9.13893 -3.58511 20
729 1 7.23113 2.39703 -11.4386 17
730 1 9.99183 -4.96666 -2.00115 17
731 1 -5.3377 4.61963 13.3136 15
732 1 4.28736 -7.9909 2.19434 16
733 1 12.7421 -1.34818 -2.6428 18
734 1 12.5451 -2.05466 12.6943 10
735 1 -2.7161 9.93393 7.35032 22
736 1 -14.0868 3.5069 9.65443 18
737 1 -13.5614 6.35917 9.14023 20
738 1 -5.4218 -12.9417 9.56694 15
739 1 8.7162 1.788 6.68037 19
740 1 8.66034 8.55918 15.0013 15
741 1 -17.0872 -0.107492 -1.16644 22
742 1 10.6667 -7.25844 -4.4496 19
743 1 -11.2755 13.0753 -3.48988 17
744 1 0.455689 17.222 0.53671 17
745 1 3.08598 -14.3062 6.20973 11
746 1 4.14025 -3.9438 16.7125 12
747 1 -4.30625 12.4156 8.22152 18
748 1 -1.70334 -12.1043 4.79046 20
749 1 -11.4253 -0.554594 1.05431 17
750 1 3.07437 5.25417 10.4048 20
751 1 -19.1795 -2.17672 -5.40097 10
752 1 0.518488 9.6895 12.7225 18
753 1 4.29385 10.0586 -2.51598 16
754 1 -16.1033 -4.77686 2.88517 9
755 1 -5.64256 -11.6643 1.53066 16
756 1 8.73377 -3.30908 10.0742 20
757 1 10.5602 -3.10282 7.32652 18
758 1 6.39542 10.8259 9.55386 19
759 1 -1.79397 -8.49909 -6.00659 19
760 1 -5.86766 0.859808 -7.79375 17
761 1 -7.1593 1.69495 14.2007 14
762 1 -3.1273 18.3434 2.38434 13
763 1 16.6247 2.68807 2.01616 12
764 1 2.60043 11.7206 -5.20436 18
765 1 -7.51575 8.00002 13.5841 13
766 1 4.46552 8.86252 7.39915 16
767 1 9.13618 -0.55828 -14.0428 13
768 1 -8.02307 -11.0031 -2.08997 16
769 1 14.8622 0.607983 5.50241 15
770 1 0.215638 -7.9974 -8.42405 22
771 1 -1.93351 8.91207 14.8057 14
772 1 6.71743 -13.5882 -6.55051 16
773 1 -1.69159 7.40623 -15.8895 13
774 1 -2.89305 -7.67385 -3.6926 19
775 1 11.0612 3.36627 -6.79571 19
776 1 17.4043 -0.534634 1.12899 11
777 1 5.44156 -6.74602 13.7655 13
778 1 -4.56548 -10.2131 -10.047 15
779 1 7.38159 16.599 0.264554 17
780 1 -16.6306 2.58415 7.39484 17
781 1 6.59794 8.63713 -4.74559 18
782 1 15.3904 5.76766 2.79711 12
783 1 4.23065 -2.09175 -12.6591 15
784 1 -11.0698 16.6526 2.86168 11
785 1 12.7837 7.25929 4.34319 15
786 1 9.94017 13.3237 -3.82904 14
787 1 -0.890214 0.0788541 -10.6876 18
788 1 8.2135 -2.56754 -0.850458 23
789 1 -13.4655 3.56059 -1.89631 19
790 1 14.0321 4.02745 0.948249 19
791 1 -13.6069 -10.2856 2.87019 11
792 1 -11.3181 11.952 -9.4974 11
793 1 3.14337 3.83071 7.48631 21
794 1 -13.5123 -1.21353 -5.95426 18
795 1 -12.4301 6.14753 5.27452 16
796 1 -4.28973 3.44387 -10.0113 19
797 1 12.6222 -4.32877 -4.16276 20
798 1 -10.7254 -5.64911 -8.7461 17
799 1 12.6035 -6.21424 -0.164271 13
800 1 -17.5539 0.948981 4.44248 15
801 1 -12.1144 -3.01684 -0.754881 20
802 1 12.9533 7.90213 7.0555 14
803 1 -6.09005 -8.68955 5.99955 18
804 1 6.98867 -0.393966 14.5149 19
805 1 12.8485 -1.97703 4.8875 20
806 1 5.66956 -3.12776 4.63606 21
807 1 -11.7948 11.035 2.34216 18
808 1 2.95907 7.43075 13.2477 20
809 1 4.41858 6.52748 -12.8628 12
810 1 -1.93486 -9.7169 -14.8056 10
811 1 -7.19358 13.9969 4.07021 17
812 1 -11.7147 -8.13625 4.98748 16
813 1 7.77495 10.7643 -2.19728 14
814 1 3.66026 4.92912 13.7771 20
815 1 15.301 1.00379 -8.93655 12
816 1 5.33323 -4.53626 7.89133 19
817 1 -0.0616788 13.1203 -15.1728 10
818 1 2.85173 14.1373 -8.13441 17
819 1 -5.84488 -0.574517 10.153 19
820 1 15.2925 3.89432 4.88022 12
821 1 -5.64916 -3.00083 -11.0543 22
822 1 6.41982 14.8583 9.76348 18
823 1 -15.4316 6.80571 3.41112 15
824 1 -3.70369 -11.9881 12.0588 9
825 1 0.448903 18.4032 -10.5409 8
826 1 11.0864 -5.47846 11.7933 12
827 1 -1.37984 -10.516 1.7137 22
828 1 -7.40736 15.4349 1.30909 17
829 1 -15.4956 5.6036 -1.72801 13
830 1 8.61102 0.994089 -3.67298 17
831 1 0.579759 -13.6628 -9.83549 14
832 1 -7.68354 8.7195 4.90866 23
833 1 9.20573 8.66932 -7.57484 14
834 1 -6.01513 -2.02219 6.89226 19
835 1 7.71894 -9.46662 -12.7604 7
836 1 -7.40156 -9.44466 -11.0696 12
837 1 -1.50524 -9.03481 -0.520251 18
838 1 -5.13958 6.97959 15.8917 15
839 1 8.06414 -13.2357 -3.75492 17
840 1 -4.25187 5.26379 -16.195 14
841 1 16.0553 3.05668 -1.55889 14
842 1 5.79239 6.11367 2.36868 21
843 1 1.66952 -16.0571 -2.26979 19
844 1 6.37991 -4.00531 -16.3537 9
845 1 10.5932 -1.58309 2.13228 23
846 1 -3.89486 3.10712 -12.9364 19
847 1 -2.24731 -7.28613 8.57721 18
848 1 4.32484 15.8097 -4.16879 17
849 1 4.77546 2.77065 -5.39398 24
850 1 -7.91241 11.2409 -4.87429 18
851 1 -17.0309 6.10702 8.49054 13
852 1 5.14218 2.83831 22.2918 7
853 1 -8.24863 -6.78336 8.86101 19
854 1 3.93542 11.7933 6.33009 15
855 1 -0.76556 -13.5695 2.28681 21
856 1 0.846074 10.1136 -2.96198 17
857 1 -5.25888 3.00409 15.9915 17
858 1 -8.4265 -1.51436 8.99514 20
859 1 -11.5941 12.5294 7.7181 14
860 1 8.97226 3.12509 -0.446852 19
861 1 -5.89775 -7.94282 13.2038 10
862 1 1.58108 -11.2775 6.11843 18
863 1 9.46577 10.1257 11.0312 20
864 1 9.83678 -2.05306 -3.39958 22
865 1 6.5808 -10.7732 -6.40103 19
866 1 -9.22765 0.0227432 -12.7014 19
867 1 -5.13987 -4.15075 -17.2569 9
868 1 4.34911 16.346 11.7643 11
869 1 -10.2298 -4.09802 9.92789 23
870 1 -6.85914 6.00233 -6.06709 19
871 1 -14.2368 5.88847 -4.3175 11
872 1 7.57547 14.2492 1.96944 16
873 1 -10.8404 -12.168 3.22212 17