ITEM: TIMESTEP
6000
ITEM: NUMBER OF ATOMS
2000
ITEM: BOX BOUNDS pp pp pp
-30.0 30.0
-30.0 30.0
-30.0 30.0
ITEM: ATOMS id type x y z Coordination
1 1 -9.85926 4.67956 -13.4336 11
2 1 -2.16872 -9.52799 -10.1923 18
3 1 3.27406 13.9544 12.7854 15
4 1 10.4341 -9.99727 5.83796 13
5 1 -12.1312 6.70993 -3.17303 19
6 1 10.8254 -11.8656 -10.3825 9
7 1 -10.7305 1.9941 -8.64936 18
8 1 2.04782 -9.14225 8.06887 19
9 1 -7.42407 -1.46929 -12.5944 15
10 1 -10.0344 -11.8259 2.81889 12
11 1 16.4953 0.340475 -9.74699 12
12 1 -1.3273 -10.0271 2.76873 20
13 1 -10.1469 -8.01955 2.9968 18
14 1 2.66574 2.15443 15.665 16
15 1 1.60815 3.9801 9.2091 21
16 1 1.5711 6.7879 -12.5525 19
17 1 4.59795 -1.05103 11.3949 17
18 1 -6.70633 0.580287 -15.13 10
19 1 -12.142 -8.58526 7.15841 12
20 1 16.0559 3.39394 8.76902 16
21 1 3.83348 8.68695 -13.0363 20
22 1 8.89616 2.29266 -14.6392 18
23 1 13.2387 4.47338 9.51192 19
24 1 -13.2075 4.40961 -9.02629 12
25 1 -9.37518 11.9453 7.96831 8
26 1 8.73793 -11.1657 2.66736 14
27 1 3.03778 -11.2816 -13.0576 16
28 1 11.2937 -10.6725 0.657815 14
29 1 -8.08492 -13.2179 -7.3452 11
30 1 -10.8303 -2.90021 8.55528 17
31 1 1.15743 -7.54353 -13.7653 21
32 1 11.038 -8.86904 -11.174 17
33 1 0.192273 4.43382 -17.4813 19
34 1 1.92406 3.60484 12.423 20
35 1 2.4218 -11.8564 6.27131 20
36 1 5.55781 -4.28814 12.4061 12
37 1 -9.48903 -1.27587 -0.0700846 19
38 1 -10.4525 -5.18449 7.93226 15
39 1 -1.88729 13.2927 -3.65339 18
40 1 0.981822 -12.5635 -13.949 10
41 1 8.6098 -3.95167 -11.4948 20
42 1 -0.180952 -2.92846 14.8154 12
43 1 -10.8868 7.14167 1.14592 19
44 1 2.76928 13.1817 -9.10971 16
45 1 0.61788 11.9583 11.9903 18
46 1 -4.61265 8.00714 -8.93681 20
47 1 1.22671 13.9624 -1.64051 16
48 1 5.00629 -9.62032 3.05331 20
49 1 7.49068 -8.72397 -5.80092 19
50 1 6.16172 -3.66508 -16.0349 20
51 1 -8.14274 9.7845 8.97933 14
52 1 -12.96 -4.22776 -6.57359 16
53 1 -5.12374 6.48459 -5.555 20
54 1 -7.1529 -7.12281 4.48436 15
55 1 0.830336 15.5577 13.4396 10
56 1 -9.95955 4.66557 -7.21546 21
57 1 -6.7976 9.60896 12.0793 16
58 1 -0.626521 -16.1242 6.22765 15
59 1 6.90361 -11.3674 -8.38112 18
60 1 6.12339 14.1356 13.6157 11
61 1 -12.9636 0.224037 -10.2096 14
62 1 -13.3693 7.73238 -9.12792 9
63 1 6.79284 8.11223 11.2265 23
64 1 14.2337 -4.37553 -9.83635 14
65 1 11.9641 -9.64754 3.36853 12
66 1 -13.1875 -2.92513 6.9355 13
67 1 5.82563 16.8955 2.87328 9
68 1 6.54422 -1.39436 13.6454 13
69 1 -5.81166 -11.199 6.22734 17
70 1 13.6479 2.73863 7.13017 19
71 1 -1.2985 15.1361 8.19843 17
72 1 -1.30749 -6.62163 -8.66484 19
73 1 -11.0913 8.66894 7.67811 15
74 1 -4.49993 13.7673 -2.00896 16
75 1 1.22363 7.71758 -8.89752 22
76 1 13.3225 10.0725 -7.17443 22
77 1 7.96474 -9.28421 8.25417 9
78 1 -1.18033 15.6976 -2.21985 15
79 1 -8.62858 12.3495 4.93967 13
80 1 -6.02451 -3.43278 13.5469 18
81 1 -0.755973 10.2038 4.47755 22
82 1 -3.55577 -6.13496 9.63079 18
83 1 12.9556 -10.2097 -5.63211 13
84 1 -6.69593 4.09805 4.87 22
85 1 -8.06183 -14.8607 3.16313 11
86 1 8.9342 -8.86468 -8.68234 20
87 1 10.874 -2.60886 -13.0753 17
88 1 -3.04513 1.34603 -16.0289 15
89 1 0.882522 12.9035 1.74133 20
90 1 -6.93912 4.29395 -8.41544 21
91 1 2.62755 10.6304 16.857 10
92 1 0.826048 15.6308 -7.86911 22
93 1 -11.8903 9.27931 -0.449109 13
94 1 -4.82323 -6.12922 6.12728 18
95 1 15.002 0.827812 9.71183 13
96 1 4.80727 -5.95855 -12.1984 20
97 1 8.55145 0.774646 15.7859 13
98 1 -6.80313 -6.68602 -1.96925 18
99 1 -6.89148 -7.46315 -5.10941 16
100 1 13.0181 -6.61781 3.51544 17
101 1 11.8178 5.5988 -13.7227 12
102 1 11.1567 17.5211 -2.85727 12
103 1 -7.71397 -10.8717 11.7648 10
104 1 -8.08021 -12.7577 9.3194 10
105 1 8.36011 -5.24403 -18.028 11
106 1 11.9031 -10.0235 -2.78273 18
107 1 -0.398335 -18.7656 4.19093 8
108 1 -8.15979 -9.44103 0.712622 16
109 1 15.9807 9.17904 11.9371 8
110 1 16.8562 -5.39826 -7.21737 12
111 1 -13.3817 -6.82723 4.57219 11
112 1 12.7117 8.45382 3.72998 18
113 1 15.6377 10.9996 1.0562 13
114 1 -5.30753 4.61006 13.9247 15
115 1 -4.17656 9.77893 9.56619 21
116 1 -1.97283 14.4107 -6.02286 21
117 1 1.38278 -6.22623 -10.3086 23
118 1 6.49746 -12.2882 -14.1365 9
119 1 0.56871 13.6702 -11.1964 14
120 1 9.60552 -4.46432 9.28899 20
121 1 0.785335 1.93125 -18.4219 19
122 1 -0.956415 10.0192 -9.09689 19
123 1 12.4084 0.706843 -4.52968 19
124 1 -6.68998 9.67028 -5.43653 18
125 1 -4.82547 12.778 -5.273 19
126 1 9.23792 0.921164 -11.7587 17
127 1 10.572 -7.10568 4.18871 19
128 1 -3.56813 15.8359 5.58996 12
129 1 15.3725 5.6497 -8.25823 17
130 1 6.37776 13.6596 -0.988924 20
131 1 -3.79937 17.567 0.387741 10
132 1 14.5229 5.19532 -4.25877 19
133 1 -0.730085 10.5171 -5.98668 19
134 1 0.21755 16.7489 -10.5373 11
135 1 5.98284 9.91711 -14.5338 13
136 1 -8.29357 -13.1319 0.227641 13
137 1 -13.8669 6.74123 -1.04403 14
138 1 -4.48416 -1.12082 -13.8942 18
139 1 1.90528 -7.48822 -16.8252 16
140 1 11.7567 13.4554 4.18573 15
141 1 3.50184 15.7102 0.726595 18
142 1 -10.1413 -3.67627 -5.22324 21
143 1 -10.4021 12.6188 -1.11285 12
144 1 15.0735 -1.19776 -2.31578 17
145 1 -8.26479 2.10574 -13.2517 16
146 1 10.0396 5.75496 17.1517 11
147 1 5.87227 16.5946 -0.887721 16
148 1 -1.33266 10.1555 7.68568 21
149 1 3.12833 -2.02316 -19.0936 14
150 1 0.845885 12.5516 8.41869 19
151 1 -0.901107 12.8206 -8.00198 19
152 1 4.66077 -4.02108 9.51458 18
153 1 -9.48346 -6.31025 -0.304917 20
154 1 5.2965 -8.22656 -18.0139 9
155 1 -6.42805 10.2236 -8.98407 16
156 1 -0.511151 -13.029 4.98963 19
157 1 3.86324 -13.0021 -5.41484 17
158 1 -1.90863 10.6681 -16.0 9
159 1 -12.981 2.20466 6.44357 14
160 1 12.2236 6.81159 -5.74863 20
161 1 -4.27283 7.66375 12.0648 20
162 1 0.97544 -10.7951 10.9196 10
163 1 4.75481 18.6153 -3.30103 12
164 1 0.895905 7.39483 7.62417 21
165 1 13.3376 7.87284 14.6438 11
166 1 -7.81161 13.1631 1.78608 15
167 1 13.8279 -5.3057 -6.59796 17
168 1 -2.26796 13.3257 12.6508 12
169 1 12.7482 -4.95378 1.08026 20
170 1 -12.1384 1.93392 3.08142 18
171 1 -3.61364 -11.4954 3.8803 18
172 1 6.88904 6.88338 14.9422 21
173 1 -13.5652 1.13098 -3.71343 17
174 1 -1.66572 -12.6574 -2.2645 18
175 1 2.0256 9.74252 2.82331 21
176 1 5.40301 14.7736 10.2009 14
177 1 -7.28596 12.7294 -9.91346 10
178 1 -14.8092 -1.96374 -5.24994 11
179 1 -7.70016 -5.35099 11.5119 16
180 1 2.75862 -11.7861 3.01922 20
181 1 6.24499 -15.5045 5.20974 10
182 1 -10.6767 11.6117 2.02848 13
183 1 16.2324 4.14896 4.9664 14
184 1 -7.06502 -5.17999 -17.9266 9
185 1 6.90157 1.75057 11.3979 20
186 1 7.23556 -18.1121 -1.29379 6
187 1 1.56941 4.14064 -13.9526 19
188 1 3.48637 -6.03324 -15.2127 21
189 1 12.8711 -0.740575 -14.6832 9
190 1 6.01681 7.34185 -15.9598 15
191 1 -5.02247 -3.50912 -8.91541 21
192 1 -4.64531 14.372 -8.32457 15
193 1 -10.2552 -10.3708 10.7234 8
194 1 7.86846 18.314 -3.63246 17
195 1 -6.1091 1.11922 12.7557 18
196 1 -8.7389 12.3665 -4.2031 14
197 1 9.73252 1.2883 9.48952 17
198 1 4.65931 -5.28952 -18.2237 13
199 1 -3.45382 11.4341 -7.89877 18
200 1 3.84808 6.75939 -10.6955 21
201 1 -3.99739 -9.1667 7.73496 19
202 1 -7.21581 4.58222 8.23181 22
203 1 -4.92 7.68697 7.59606 21
204 1 1.09647 -9.17323 -5.31386 19
205 1 -5.33471 -13.7462 -1.62308 17
206 1 9.49148 -15.1497 -2.84852 9
207 1 11.1334 10.9006 14.3368 13
208 1 10.0069 9.45276 -5.49414 20
209 1 0.906759 18.2136 -1.66989 12
210 1 -10.1946 2.79949 1.2228 18
211 1 -11.9011 9.78857 -3.22371 12
212 1 3.72555 6.84083 9.45105 22
213 1 3.91793 -18.8507 -1.84069 9
214 1 12.6068 -4.74977 -1.81086 21
215 1 -7.72534 7.24196 6.20532 20
216 1 -10.1061 -6.19712 -6.99514 20
217 1 10.7906 7.31169 -11.3061 19
218 1 7.08622 -3.7097 7.84958 22
219 1 10.937 12.6403 -6.5963 19
220 1 1.4891 -1.32997 -13.9677 20
221 1 2.85385 -18.0945 4.46493 10
222 1 10.2938 -1.34517 -9.04618 20
223 1 -10.6337 -7.06706 5.57423 19
224 1 3.75562 -15.6647 -2.9475 14
225 1 -9.60086 -3.70567 -8.6896 18
226 1 7.75961 16.3905 -6.40812 14
227 1 1.1455 -0.694429 -16.6753 18
228 1 4.4151 4.23447 14.2189 20
229 1 16.5172 4.39803 1.64021 12
230 1 11.4262 -6.10903 -11.4334 16
231 1 -5.41259 -3.90365 -12.2009 16
232 1 -11.8198 -3.17922 -9.7368 19
233 1 -5.14734 -10.6162 9.94025 14
234 1 12.7097 -0.646079 11.8447 15
235 1 -6.43648 -7.96837 -15.6351 12
236 1 4.51014 5.73394 -14.0584 21
237 1 3.60455 12.9713 -0.406934 17
238 1 -1.84318 -3.85518 12.5487 17
239 1 -9.60475 -6.04461 -10.7364 19
240 1 -4.39067 -6.12655 -10.5089 16
241 1 0.249741 8.14818 -17.1767 14
242 1 -4.80856 -9.03913 -8.78397 17
243 1 9.73565 -2.32493 -19.7204 7
244 1 16.3365 -2.43984 -7.55083 16
245 1 13.5084 4.77932 3.18045 18
246 1 -6.51697 -6.87116 7.91507 16
247 1 -1.6237 -9.90368 -0.383799 19
248 1 8.72429 8.27777 18.1048 13
249 1 -4.45821 -15.5569 6.46101 9
250 1 2.39432 -12.1383 -0.163807 20
251 1 -2.72028 17.2928 -4.70565 15
252 1 6.77314 1.05873 -16.0107 22
253 1 -9.41463 -3.55776 -12.3964 14
254 1 -10.3633 -5.38913 11.4884 10
255 1 4.99018 6.99412 19.6319 7
256 1 0.837538 -11.5987 -3.452 23
257 1 -4.74229 -9.99775 -12.2039 17
258 1 -7.17327 6.8786 -10.3835 17
259 1 12.3184 5.87535 5.2499 20
260 1 -4.01077 5.35992 -10.4201 20
261 1 1.87139 6.13371 -15.6592 19
262 1 2.01343 -9.97963 -15.9537 12
263 1 -4.78528 17.8932 -3.08179 7
264 1 4.89784 9.86049 4.58488 21
265 1 12.3149 2.12519 4.41019 15
266 1 -9.3632 -1.41406 3.30724 21
267 1 -4.55758 -9.47184 13.2536 10
268 1 -3.83202 10.204 2.52925 22
269 1 5.1611 -1.19175 -15.1445 21
270 1 15.9154 11.6521 -5.822 11
271 1 6.67562 -9.01383 -2.63032 22
272 1 -2.12184 -0.603668 14.9729 17
273 1 -12.3992 -9.50526 4.45155 13
274 1 1.23083 -14.6445 -5.43632 12
275 1 -9.95987 9.25734 14.3698 6
276 1 -7.0927 7.51325 14.0922 14
277 1 -12.0225 0.137102 8.10698 17
278 1 -10.1249 -11.1493 7.14699 15
279 1 14.9537 -3.60351 -4.16037 20
280 1 -9.4915 -7.71837 8.86881 16
281 1 11.6735 -3.38751 -10.1525 18
282 1 8.46529 -13.2814 -5.85933 11
283 1 1.95048 20.0819 -5.2129 8
284 1 -9.26586 9.21725 -4.24227 19
285 1 12.3847 13.07 12.2074 11
286 1 9.65233 -9.49238 -4.10841 22
287 1 -1.99004 12.3458 2.68892 19
288 1 5.93141 -12.3911 4.09682 15
289 1 14.2793 -3.90922 3.84726 19
290 1 -1.12595 4.24923 11.2072 19
291 1 -1.07262 2.49541 15.2645 15
292 1 -1.92304 15.0156 1.65056 16
293 1 8.73285 10.9856 16.3209 12
294 1 -8.93314 11.2964 -6.8976 14
295 1 0.989737 -0.344082 -20.786 7
296 1 4.56544 -8.63653 -14.2661 18
297 1 -11.3 1.16966 10.7065 12
298 1 -13.0341 4.43882 1.37998 17
299 1 -3.79143 10.1754 -0.954871 20
300 1 9.94819 -1.56787 7.91985 21
301 1 -7.28154 -10.9529 -1.73878 17
302 1 10.2647 -7.07602 7.3219 17
303 1 -7.43979 -8.27859 12.7037 9
304 1 -13.2241 9.52345 2.52861 13
305 1 3.69209 -9.81678 -7.36732 22
306 1 -1.0472 -1.2267 -11.7533 20
307 1 8.9054 -4.2807 -15.0374 16
308 1 3.62518 12.8554 2.53434 17
309 1 -9.61998 -0.812669 -4.03101 21
310 1 7.00349 -6.4462 -14.3708 20
311 1 14.2308 1.68056 -12.232 12
312 1 -2.958 -12.999 -13.2516 12
313 1 -13.3185 -8.06787 -6.60349 11
314 1 10.255 8.25055 15.132 19
315 1 13.0746 3.10933 -3.05617 19
316 1 -7.88237 1.39491 -10.2035 20
317 1 9.12777 16.0286 -1.54916 18
318 1 -10.5587 2.13227 -5.27832 23
319 1 -4.94957 7.41597 4.04372 21
320 1 -8.87807 9.37191 -1.36843 17
321 1 -1.70492 7.29921 9.68937 21
322 1 10.6135 4.00715 10.9259 18
323 1 12.8253 -2.52663 -6.4139 20
324 1 8.60191 -4.78877 12.565 7
325 1 14.5697 0.472628 -7.59821 19
326 1 -4.52438 -14.4655 -4.98886 12
327 1 -8.00671 1.48771 -6.98354 20
328 1 3.97325 -9.70881 -4.13648 19
329 1 12.0418 -0.298545 6.34297 15
330 1 -6.73598 -4.41899 -7.02068 21
331 1 -3.45297 -8.53746 4.64951 19
332 1 -4.46036 -5.91456 13.0673 16
333 1 -1.51223 12.5635 -0.560209 20
334 1 -12.5203 -10.6123 -3.77605 9
335 1 5.67118 12.2996 16.5325 11
336 1 -7.81497 6.89879 -0.254903 19
337 1 2.2788 10.5351 -10.8846 15
338 1 6.12927 12.7045 5.09423 18
339 1 -12.1888 -6.43106 -1.74047 14
340 1 -1.89703 -9.70937 -6.89253 22
341 1 -9.67277 -0.255789 6.47318 19
342 1 -11.9394 7.18696 -6.27441 19
343 1 7.60355 -8.95391 4.4627 17
344 1 -4.26263 -11.6634 -3.66174 19
345 1 9.12584 12.7045 6.42043 16
346 1 9.6466 8.22445 -14.7575 11
347 1 -11.6462 6.55001 -11.0208 10
348 1 -2.41466 14.4364 -11.3846 11
349 1 -8.27837 7.02772 -7.02221 18
350 1 -0.119119 -12.1748 1.29402 19
351 1 15.0979 5.71753 7.36977 18
352 1 3.55217 9.10368 -17.2051 11
353 1 -12.8672 1.35236 -0.270661 15
354 1 -3.18902 -12.0524 7.2078 17
355 1 9.75562 -11.1074 -13.4672 12
356 1 -10.4128 3.06096 5.00315 19
357 1 -9.85786 -2.16065 12.2512 17
358 1 -13.2647 6.04248 7.43696 14
359 1 -6.59549 7.19229 -13.6454 13
360 1 6.01975 -8.44776 -9.16637 18
361 1 -1.61326 -5.91592 -12.2867 15
362 1 -1.03414 -4.27438 8.81931 19
363 1 -2.45513 3.15907 -18.1935 14
364 1 9.78221 -12.5566 -2.01823 18
365 1 4.53353 12.4716 -7.0269 17
366 1 -11.5579 10.9558 5.19399 12
367 1 -3.44874 -3.49284 15.838 13
368 1 -13.1496 -5.4783 -9.23114 14
369 1 -7.93555 -4.36077 6.50459 18
370 1 9.33534 -4.388 5.85496 17
371 1 13.5333 -8.3745 6.14305 12
372 1 17.3562 6.71713 -6.48748 14
373 1 -2.51992 1.87932 12.8614 22
374 1 4.00262 12.4062 -3.76223 18
375 1 -4.73183 -11.7905 -7.09892 18
376 1 -2.40304 4.83248 14.043 13
377 1 0.967392 12.4009 4.89765 18
378 1 -9.11329 -12.7946 -10.7539 8
379 1 10.9315 18.0814 -5.87117 11
380 1 6.66132 7.16093 8.31251 18
381 1 -4.69546 2.31378 7.91265 21
382 1 -10.1172 3.07369 8.30938 21
383 1 -7.17803 -7.26626 -8.44193 18
384 1 -3.9381 10.2498 5.63675 20
385 1 -5.83825 -14.5793 -11.3269 6
386 1 3.1947 -3.19397 -15.3194 18
387 1 -4.27061 -8.81713 1.20455 21
388 1 10.1201 -1.87421 11.4965 16
389 1 -2.02792 -8.56949 14.0202 9
390 1 -7.18368 4.58817 -11.6062 23
391 1 12.1966 6.69052 1.30635 20
392 1 -7.04108 -13.1101 -4.33655 14
393 1 2.25812 18.7802 1.12735 8
394 1 -2.09692 12.842 9.63283 18
395 1 -12.375 -1.00426 -5.52592 19
396 1 -1.14073 19.5854 -3.0512 11
397 1 7.19796 10.3721 -7.76671 15
398 1 -4.22473 -6.4107 -7.11685 20
399 1 7.33189 3.70382 17.2048 12
400 1 -1.46738 -9.7986 -13.4948 19
401 1 3.23875 -3.80546 -10.5758 18
402 1 4.76014 -14.777 -0.397882 18
403 1 -6.68672 10.1946 3.91513 20
404 1 3.88278 6.63196 12.7887 21
405 1 11.0338 10.5175 -1.47642 19
406 1 -6.42239 9.84906 -12.2898 13
407 1 -13.3782 -3.98586 0.0946758 14
408 1 1.88709 16.0697 3.42691 12
409 1 -4.011 5.0162 -13.4057 17
410 1 17.049 6.67907 -3.04192 17
411 1 5.9867 13.7759 -10.0986 10
412 1 15.0532 1.71836 -0.249383 15
413 1 0.788323 1.57637 -12.1911 22
414 1 3.28521 -16.194 6.55441 12
415 1 -0.369798 -7.53782 11.2438 15
416 1 -9.7246 4.26718 -10.4824 20
417 1 -8.03888 -12.6738 5.68512 14
418 1 -4.01419 -10.0419 -14.8431 10
419 1 11.2477 14.2457 0.723533 17
420 1 5.96874 4.12062 -11.4316 18
421 1 4.95258 0.391556 15.1244 16
422 1 -13.001 3.30696 9.14982 12
423 1 -1.52219 -15.3438 -0.0496738 18
424 1 -10.5132 -3.19598 -1.76527 23
425 1 15.9927 -7.9354 -5.25032 10
426 1 12.8896 0.391098 -1.14882 17
427 1 7.30515 -5.77673 -7.41602 23
428 1 6.3305 1.11244 -12.7033 20
429 1 10.6265 -5.85813 -8.76058 18
430 1 -5.17385 -1.10237 16.7872 12
431 1 8.12347 15.9146 1.0533 13
432 1 -4.75732 -2.24489 -16.5503 14
433 1 8.97862 2.72101 -17.2076 14
434 1 -3.39462 -3.01706 7.74755 17
435 1 -1.19223 17.9712 2.71454 11
436 1 -6.58 -4.01888 -15.195 18
437 1 -12.4114 -1.37008 1.67284 16
438 1 -4.15425 -5.45093 -16.4947 15
439 1 -1.86313 -9.18424 9.60646 19
440 1 4.69902 9.05791 -8.54931 19
441 1 13.9221 4.60253 13.185 14
442 1 17.3282 4.95561 -0.840069 10
443 1 -9.75844 -11.7518 -2.64883 14
444 1 -1.60977 -0.396794 -18.3757 13
445 1 -5.94601 12.1714 7.14291 14
446 1 17.31 -3.97399 4.8204 9
447 1 3.061 18.1084 -8.64679 9
448 1 16.9693 3.01127 -7.30086 14
449 1 4.6042 9.99565 14.7025 17
450 1 -7.63122 1.66083 6.63643 21
451 1 8.25125 9.83754 9.32794 19
452 1 10.6733 3.05188 16.2018 11
453 1 0.650914 1.81498 -15.4997 20
454 1 3.09119 -1.47134 15.1147 12
455 1 8.93377 12.7343 2.96492 19
456 1 10.3346 9.9662 -9.11568 18
457 1 -5.46382 16.4461 -6.44636 13
458 1 1.20733 13.1746 -5.83247 19
459 1 12.3076 -4.37772 11.0819 8
460 1 11.3242 3.54182 -11.4263 17
461 1 11.4964 -12.9996 -4.61568 12
462 1 14.0054 11.5468 9.13667 15
463 1 -12.2759 -6.8768 1.54029 15
464 1 -3.92653 9.83193 -13.9533 12
465 1 -10.0688 -0.186248 13.849 9
466 1 -4.16559 11.4065 -10.7068 18
467 1 4.37723 -12.5408 -2.21468 20
468 1 7.20808 -1.16222 -10.7814 18
469 1 0.351425 16.7893 -4.41526 18
470 1 -9.24324 -5.73826 -14.6918 12
471 1 7.17184 -15.4436 1.78673 12
472 1 -9.90928 -5.98953 -3.7846 19
473 1 3.24919 11.4841 -14.8726 8
474 1 -0.953356 9.31849 11.3806 18
475 1 -4.52554 -3.71678 10.7742 20
476 1 4.20152 -6.81662 -9.03167 22
477 1 3.3906 -7.15943 11.1482 12
478 1 -10.9696 7.83946 4.50508 19
479 1 8.22446 5.78762 20.2787 8
480 1 5.13775 18.845 -6.14242 13
481 1 11.9439 -4.57593 -4.95071 20
482 1 4.58124 9.73482 11.4377 18
483 1 3.1407 3.60511 -20.2072 10
484 1 -0.225043 -14.0073 10.6958 8
485 1 11.7501 0.454076 -17.6564 8
486 1 6.36236 12.5246 2.42575 17
487 1 13.7704 5.63139 -11.5229 12
488 1 0.684767 -3.84265 -12.4506 19
489 1 -4.64766 -8.97678 -5.4626 22
490 1 -11.9534 -5.53539 -12.1301 13
491 1 15.0672 7.23304 4.91319 18
492 1 15.2219 1.1722 -4.4265 14
493 1 7.67389 -6.82416 -11.1267 21
494 1 13.4757 10.0172 12.1923 16
495 1 4.40287 -12.8982 -8.56095 10
496 1 4.36384 4.04599 -16.7552 19
497 1 12.5424 11.51 2.00027 22
498 1 9.29003 13.2652 13.5147 12
499 1 11.9352 6.31826 -2.10367 22
500 1 15.1462 -1.44484 1.20642 16
501 1 12.5889 7.48222 -8.83267 19
502 1 9.56252 6.78204 12.5574 19
503 1 15.8769 5.65244 10.7798 14
504 1 18.3852 9.59719 -4.12024 8
505 1 3.79129 1.34607 12.5512 21
506 1 19.125 -2.77483 -5.58661 8
507 1 13.1412 -2.00998 9.39133 14
508 1 -4.04607 -0.673967 -10.5481 21
509 1 17.9859 7.64945 6.66004 9
510 1 -9.44198 5.44272 13.4865 9
511 1 9.88792 12.4886 10.1782 15
512 1 12.83 2.05699 10.9765 17
513 1 4.64045 9.7385 8.01412 20
514 1 4.84477 17.3984 8.70831 7
515 1 -0.30221 -15.8994 2.58136 17
516 1 -3.70928 9.68174 -4.58681 20
517 1 12.1307 12.8992 -9.10987 11
518 1 13.42 -4.25784 -12.751 12
519 1 3.16544 15.9522 -5.25728 17
520 1 -4.16705 -12.1351 -10.8918 16
521 1 12.6406 -7.24889 -14.1725 8
522 1 -12.5288 4.75392 4.37283 19
523 1 -2.70935 8.672 -11.4506 17
524 1 -3.99505 -16.7784 0.443539 9
525 1 -4.92891 2.08279 -11.8367 21
526 1 -9.73512 5.43799 -4.20648 21
527 1 10.6887 -7.23026 1.15249 20
528 1 14.1204 11.2599 4.39792 17
529 1 2.00033 -8.65436 4.5493 20
530 1 -14.3459 -2.03187 -8.40945 13
531 1 6.12243 3.29311 -18.587 11
532 1 -4.57418 3.02032 10.9642 20
533 1 8.53366 9.20437 -12.0839 16
534 1 16.1585 2.74337 12.6328 11
535 1 10.989 4.96153 -8.89005 21
536 1 13.3903 17.0865 -5.37205 8
537 1 1.72952 -11.7277 -10.0419 18
538 1 -8.13539 -4.0218 9.93917 17
539 1 16.533 -0.975364 4.26763 12
540 1 1.75744 15.3264 9.94974 18
541 1 12.0066 15.2543 -7.66414 12
542 1 -12.324 10.4124 -6.75661 9
543 1 13.5451 12.2795 -1.02283 15
544 1 -7.80864 -9.86209 -6.58126 18
545 1 12.0595 -2.00233 0.389135 21
546 1 8.04944 15.3521 4.55028 11
547 1 -4.34642 5.51462 9.577 21
548 1 -6.47756 -6.18231 1.57577 19
549 1 -7.30451 -1.42081 -9.1054 18
550 1 11.123 -0.233875 14.7993 10
551 1 1.75864 -2.41372 11.9991 15
552 1 12.8558 6.88754 11.752 22
553 1 -5.2605 12.1738 0.769808 18
554 1 3.55854 1.26231 -18.1946 19
555 1 -6.64779 -1.34924 7.76432 20
556 1 11.6124 -0.168843 -11.8789 20
557 1 10.2218 -10.6483 -6.98074 17
558 1 10.5663 4.40374 7.6746 20
559 1 -7.34095 -1.17965 14.9616 16
560 1 10.7024 10.5206 7.82621 17
561 1 -1.36651 -0.725689 11.4901 19
562 1 -3.22408 10.8684 12.4839 16
563 1 -0.678701 -6.0316 -18.3149 11
564 1 -7.74023 2.32031 10.1669 19
565 1 7.93888 4.68695 12.5702 19
566 1 -5.67164 -13.8889 4.14871 18
567 1 17.0597 3.79272 -4.19841 13
568 1 8.99482 -13.4608 0.604574 13
569 1 8.91214 12.7563 -0.234103 20
570 1 13.4988 15.7699 -0.458606 8
571 1 9.29616 0.925394 -19.1875 10
572 1 8.17358 11.917 -5.99187 17
573 1 13.269 8.49712 -3.72383 21
574 1 -4.59289 -8.77638 -1.76853 23
575 1 -1.6923 -1.43063 -15.4939 22
576 1 -6.98094 10.0671 0.586378 20
577 1 10.3468 -7.7486 -16.8462 8
578 1 13.0121 9.76624 -10.7095 14
579 1 12.5024 11.4706 -3.88073 19
580 1 13.0963 1.74635 14.2104 15
581 1 9.62858 1.1357 12.4678 21
582 1 -1.59665 -10.9777 11.8787 11
583 1 -1.19247 7.32829 -14.1628 22
584 1 3.19442 13.6121 6.92943 16
585 1 7.54468 -9.84554 -15.9342 13
586 1 8.44493 14.3912 -8.49856 14
587 1 10.5259 10.2969 4.78538 22
588 1 15.7091 -6.67274 -2.06644 13
589 1 5.86362 9.33018 17.242 15
590 1 -12.1292 -0.522533 4.64771 18
591 1 5.62128 -12.1197 1.1194 21
592 1 -7.73725 13.7072 -1.2148 13
593 1 7.68999 9.73242 3.14389 24
594 1 -10.5841 -4.03444 1.37432 20
595 1 1.472 4.48674 17.0738 9
596 1 -2.21148 6.04109 -17.9947 10
597 1 -4.68597 8.46374 -16.6834 9
598 1 7.08057 -11.8349 -1.09945 22
599 1 9.75807 6.50697 -6.84589 18
600 1 -9.58684 8.30207 11.6827 15
601 1 6.20982 -3.50771 -12.9852 21
602 1 5.07181 -13.3042 6.87597 10
603 1 3.31806 16.503 -2.31414 16
604 1 -4.25139 1.79432 15.4477 16
605 1 -9.62722 -9.2078 -10.8564 15
606 1 0.164051 -4.68778 -15.1455 20
607 1 -7.36424 -11.2011 -11.8055 14
608 1 -2.23592 16.2598 -8.58368 15
609 1 -1.8755 12.8107 6.02534 19
610 1 3.22834 -8.99378 -10.9455 19
611 1 7.11991 -14.6416 -2.72792 14
612 1 4.68419 -6.43742 8.02408 20
613 1 18.2243 0.831997 -4.91023 8
614 1 1.21743 -11.7576 -6.84119 19
615 1 -11.0084 -3.12192 5.30526 20
616 1 -1.15868 -18.263 -1.3321 8
617 1 -10.5649 -10.8899 -7.98608 13
618 1 -9.43784 -3.89617 14.4901 10
619 1 -5.61651 -13.8049 1.06212 17
620 1 17.9467 -1.53988 -3.04402 10
621 1 -4.8694 14.4592 2.21249 13
622 1 -13.6698 8.03248 5.03727 13
623 1 13.2121 -0.639104 3.41634 17
624 1 -12.8064 -1.81108 -12.1789 10
625 1 2.09739 10.2977 -7.65602 19
626 1 11.5561 1.68056 -9.0217 19
627 1 6.65345 11.9244 11.3552 18
628 1 -13.3963 1.00501 -7.03259 18
629 1 -11.1056 -7.64866 -9.24477 14
630 1 0.414038 6.23976 14.0336 16
631 1 6.80612 6.73268 -12.6897 21
632 1 13.962 14.1924 2.94052 10
633 1 -2.09204 1.5379 9.54535 20
634 1 -1.7007 -15.5171 -3.8813 12
635 1 -2.61401 -15.3559 8.77897 8
636 1 11.6039 14.5009 8.74164 9
637 1 0.825831 -9.40771 -11.7729 19
638 1 -5.8765 11.3317 -2.53929 18
639 1 9.50535 6.93346 3.03802 20
640 1 -6.69158 -3.51591 3.273 20
641 1 10.5903 11.4707 -12.0833 10
642 1 -1.21448 -12.6167 -8.54081 11
643 1 1.64656 -17.2182 -1.27439 14
644 1 0.743599 -14.2774 -1.63867 22
645 1 9.09646 5.02703 -12.052 18
646 1 6.01017 15.6399 -3.4262 19
647 1 -2.47558 1.13925 -13.2087 20
648 1 0.673832 0.549122 13.2726 19
649 1 2.40893 6.38355 -18.6875 13
650 1 -10.9714 1.00575 -12.5197 11
651 1 -7.79421 -3.68253 -3.64911 21
652 1 -0.533885 18.5437 -7.14813 14
653 1 -1.97861 -3.49967 -17.7822 13
654 1 15.2678 8.30122 -5.62661 20
655 1 12.5061 -7.65734 -1.17266 16
656 1 -9.94768 5.51624 10.0666 19
657 1 6.83661 -9.46765 0.983871 20
658 1 16.0444 -4.86744 1.18745 12
659 1 12.4996 -3.04264 6.36213 18
660 1 1.98126 10.5026 6.58631 20
661 1 -7.09783 2.05118 15.5986 10
662 1 -6.97699 4.989 11.7967 20
663 1 1.86788 -14.4906 8.00795 11
664 1 7.25709 9.76601 13.7939 19
665 1 -12.9501 -1.43134 -2.00365 17
666 1 10.4951 -7.32362 -6.25098 21
667 1 -7.02877 13.9123 -6.84144 14
668 1 4.49828 -16.0715 2.87781 15
669 1 6.82183 2.5403 14.4297 16
670 1 1.53636 16.3167 6.88204 14
671 1 4.99054 -9.76393 6.40091 19
672 1 4.63679 4.40466 10.9147 22
673 1 -13.3094 -4.44013 -3.47804 14
674 1 -0.399712 11.0431 14.4717 12
675 1 7.44594 10.0956 -0.645103 20
676 1 -6.67881 -11.0303 2.51059 20
677 1 -2.88667 -16.4941 3.70362 13
678 1 6.95473 -6.49187 6.17774 21
679 1 15.1154 -6.31885 6.46189 10
680 1 9.53214 7.33941 6.64466 21
681 1 0.689904 -8.68488 -8.52819 21
682 1 -1.60573 4.0896 -12.3946 19
683 1 -4.12715 -1.07242 12.7373 24
684 1 -1.10158 20.0591 0.548358 8
685 1 16.1169 1.91305 3.03965 15
686 1 6.71768 6.33273 -8.99011 17
687 1 1.2495 6.44612 11.1221 21
688 1 10.2874 9.89453 11.9172 22
689 1 9.45524 -7.85445 -14.1834 17
690 1 -4.43205 -11.5055 -0.136693 19
691 1 18.0618 1.45686 5.97236 9
692 1 4.27829 -1.99029 -12.3336 18
693 1 2.42414 7.21494 16.5883 12
694 1 5.12575 -12.5016 -11.4295 12
695 1 9.19163 5.39234 -15.1708 14
696 1 14.2236 2.79203 -9.42112 17
697 1 15.2069 -3.49164 -1.14262 17
698 1 1.51845 -5.79135 9.62227 16
699 1 -5.11434 -6.71244 -13.6016 16
700 1 9.37994 15.0886 -4.98303 20
701 1 -9.65413 4.88266 3.14362 18
702 1 13.1113 3.77545 -6.74971 21
703 1 17.2142 9.22772 3.84519 10
704 1 1.47695 -4.13408 -17.8582 18
705 1 -4.38093 15.2831 8.9374 10
706 1 15.1865 10.2504 6.8103 14
707 1 14.1391 13.6726 -6.03405 10
708 1 8.31779 -1.47518 -13.878 22
709 1 10.0495 -6.53237 -3.24012 21
710 1 -10.3138 1.42294 -2.02923 20
711 1 13.2105 9.30939 -0.718454 21
712 1 -10.0043 -8.82532 -1.71331 15
713 1 -10.6239 8.58906 -8.15484 11
714 1 7.70206 4.91062 9.56703 20
715 1 -9.93657 -0.779943 -7.22118 22
716 1 -10.3809 5.48154 6.86266 18
717 1 12.0081 -8.05888 -7.97078 14
718 1 -10.8166 -8.97314 -5.00426 17
719 1 13.2728 -7.44219 -4.01897 19
720 1 -15.0662 6.51365 2.21589 10
721 1 12.8989 8.62581 6.90067 20
722 1 -0.757434 -9.85052 5.97922 22
723 1 11.1397 4.79411 13.9852 20
724 1 16.7223 -0.493392 7.78831 8
725 1 -10.1038 4.68141 -0.478283 21
726 1 1.68932 9.01132 9.7213 23
727 1 5.72286 8.97484 -11.2225 18
728 1 -2.73735 -3.59194 -13.8325 19
729 1 -0.901044 15.3007 4.74294 15
730 1 -9.19605 -9.64266 4.8162 19
731 1 9.27682 12.3928 -3.35649 18
732 1 1.79978 8.89145 13.6463 17
733 1 17.1563 -4.82273 -3.64626 13
734 1 7.05205 -6.1358 9.72599 14
735 1 -1.40297 11.5899 -12.6479 14
736 1 7.4765 11.4515 -10.6221 12
737 1 -3.98669 -0.771196 9.51919 20
738 1 14.8295 8.42917 9.56843 14
739 1 -2.10992 -3.83619 -10.4348 20
740 1 16.2528 9.40831 -2.00908 15
741 1 -12.4175 3.81643 -2.19702 20
742 1 0.25004 -11.7061 8.02584 17
743 1 4.79207 15.388 -8.05724 16
744 1 7.42352 -1.12024 9.98025 16
745 1 -1.65213 -9.70643 -3.44539 22
746 1 -5.5463 15.193 -3.87484 14
747 1 -15.0893 4.50001 -3.19014 8
748 1 13.6583 -1.20387 -9.79799 19
749 1 -0.874156 -9.42586 -16.4484 11
750 1 -7.97258 7.26292 3.1246 20
751 1 15.8113 8.79398 -8.5812 12
752 1 8.42114 -1.15566 -16.949 17
753 1 -7.55933 -8.19261 -12.9872 13
754 1 -1.954 -12.175 -5.22672 20
755 1 -1.00456 15.9696 11.3696 11
756 1 6.17756 -11.1427 -5.03417 16
757 1 0.969641 9.63421 -14.5884 17
758 1 12.3412 -1.73602 -3.51967 23
759 1 10.0507 9.27479 1.28074 22
760 1 1.47848 -17.216 -4.25962 9
761 1 6.3525 -1.16056 -18.6585 16
762 1 14.6466 6.73202 -1.0752 20
763 1 -1.37037 4.24692 -15.2631 22
764 1 -0.700509 -7.30718 7.81209 20
765 1 6.58975 11.3324 -3.21156 15
766 1 -7.69099 7.20409 -3.58284 20
767 1 -12.3476 6.0307 10.328 11
768 1 4.9262 5.49268 16.4076 14
769 1 -7.61793 -9.96784 7.47521 17
770 1 7.45848 10.0091 6.35885 20
771 1 1.74736 -14.8314 1.38094 18
772 1 5.44435 9.58365 -5.62094 20
773 1 -5.04032 12.4561 10.6254 12
774 1 -9.03306 -0.0575467 9.89469 19
775 1 -4.92925 12.852 4.36257 17
776 1 0.832645 -6.20214 13.6318 9
777 1 1.90353 -14.6696 4.76573 17
778 1 10.2159 7.42336 9.6757 18
779 1 9.7892 -3.39374 -6.78888 19
780 1 7.61183 -9.15405 -12.0702 16
781 1 -6.71046 4.4548 -14.4725 15
782 1 0.401263 3.80094 -20.387 10
783 1 6.16572 11.9205 8.52123 19
784 1 -7.04017 -1.16286 11.4919 21
785 1 -1.14373 6.73843 -10.3349 20
786 1 -12.9584 4.21349 -5.27696 18
787 1 11.4944 14.3022 -2.29309 16
788 1 -2.45529 -13.7139 2.37755 19
789 1 14.0254 13.5809 6.34435 9
790 1 -10.1247 -12.1776 -5.35906 12
791 1 5.06372 15.2089 6.73232 12
792 1 -6.41715 -4.56517 15.8148 10
793 1 -0.766379 -12.1129 -11.4686 15
794 1 17.9352 1.08572 10.1802 7
795 1 4.23858 -18.0887 0.922551 11
796 1 2.91414 14.2177 15.8632 9
797 1 14.6872 -1.34903 -12.3139 12
798 1 9.53746 -9.16171 -1.02158 21
799 1 3.78766 1.79079 -14.4463 18
800 1 -9.95247 -0.719575 -10.4747 21
801 1 -3.80605 5.51036 -15.9603 16
802 1 -6.62 7.3118 9.76324 20
803 1 12.8981 -5.4494 8.15881 13
804 1 -9.35516 -5.19915 3.98066 17
805 1 11.7809 2.09476 1.25884 19
806 1 6.30081 4.14966 -15.0597 22
807 1 16.9654 7.99166 0.784433 10
808 1 3.21856 12.2247 10.2628 19
809 1 -13.3732 -3.76011 3.16055 14
810 1 7.65056 -13.5841 -10.9446 7
811 2 -10.1261 -1.83405 -8.55278 20
812 2 -3.46146 13.2357 -6.89682 21
813 2 0.590776 -0.517404 -12.3347 20
814 2 -2.84838 9.19259 12.2431 16
815 2 3.59534 -12.1561 -10.1584 15
816 2 -4.55604 -7.15579 -8.95225 20
817 2 3.52362 4.58747 12.5619 18
818 2 9.0912 4.3241 16.6616 14
819 2 -10.2708 -7.00939 -1.8131 19
820 2 -10.2527 6.90308 -7.21932 17
821 2 5.13249 11.5882 3.47864 16
822 2 -10.0332 2.99602 3.16672 19
823 2 -0.0178141 17.5722 -8.78367 11
824 2 12.295 3.87218 4.19372 19
825 2 -1.10648 14.9209 -8.0552 21
826 2 13.239 8.42557 -6.31991 18
827 2 -12.5748 0.0814185 -12.1251 9
828 2 -9.91584 -4.23446 -10.5332 18
829 2 5.03251 2.01331 11.2887 21
830 2 9.19157 -1.97557 -10.6434 19
831 2 3.4271 -13.7488 0.616657 18
832 2 -4.69992 9.28858 -2.34368 21
833 2 -11.9968 0.889172 -5.74719 18
834 2 15.5816 3.40116 6.52493 17
835 2 7.82752 -8.53873 -10.1838 16
836 2 -6.33897 -11.6884 -3.27558 18
837 2 -9.27822 -7.63173 4.57456 17
838 2 -1.44859 -12.0895 3.03917 18
839 2 13.6477 -7.23 7.76746 8
840 2 -2.41155 -12.0142 -10.5089 15
841 2 6.94942 0.0669533 15.157 12
842 2 1.99262 8.56575 -13.4222 18
843 2 3.8933 -17.9395 2.85723 10
844 2 -11.5473 -12.4058 -4.11693 8
845 2 1.84031 7.05883 13.0969 20
846 2 -7.25615 7.96715 1.19598 20
847 2 0.401028 3.05999 16.284 11
848 2 -5.14085 10.8033 -5.38609 16
849 2 10.2289 -12.1177 0.419444 14
850 2 -2.16249 5.26178 9.77282 18
851 2 1.45466 13.4375 -7.71583 19
852 2 10.019 12.5341 4.51403 17
853 2 11.9566 16.24 -1.42036 11
854 2 14.1106 -1.92077 -7.88808 17
855 2 -5.7969 8.11867 12.8366 16
856 2 5.28501 2.59378 -15.8559 21
857 2 -3.44367 9.37349 -15.9119 9
858 2 13.1424 6.50979 -3.64551 21
859 2 -4.64408 -4.13155 14.7117 17
860 2 -13.292 6.31873 5.69997 15
861 2 15.4291 0.219709 -11.4039 13
862 2 -6.52329 -6.43947 12.8542 15
863 2 1.1966 -7.39062 -11.8219 19
864 2 -2.27413 1.24932 -17.7627 13
865 2 -14.1397 -5.47868 3.744 7
866 2 12.762 9.9251 -2.40862 17
867 2 -1.73875 10.3888 2.76633 21
868 2 -3.69276 -9.60764 -7.43181 18
869 2 -1.88584 14.7953 6.39996 16
870 2 10.4725 1.23847 15.4286 13
871 2 1.53709 -6.59816 11.4611 12
872 2 16.2994 5.10539 8.83637 16
873 2 6.78556 15.5575 -7.8609 14
874 2 -7.9879 5.17454 -3.91235 19
875 2 15.8894 7.53043 10.9106 11
876 2 10.8286 -13.7936 -3.02543 13