ITEM: TIMESTEP
322000
ITEM: NUMBER OF ATOMS
500
ITEM: BOX BOUNDS pp pp pp
-30.0 30.0
-30.0 30.0
-30.0 30.0
ITEM: ATOMS id type x y z Coordination
1 1 -3.67992 -7.39983 -8.60491 12
2 1 -5.2565 -7.49796 -5.23879 13
3 1 -6.17466 -6.93884 -2.00648 15
4 1 -6.02678 -2.05195 -9.23668 14
5 1 -6.12769 -5.04316 -7.84009 15
6 1 -7.53269 -2.34188 -6.44316 16
7 1 -8.90441 -1.0644 -2.53936 16
8 1 -6.24522 -4.63251 -4.65393 17
9 1 -8.431 -4.14327 -3.22463 12
10 1 -5.65248 -1.49593 -3.42531 20
11 1 -10.8286 1.38492 -2.8116 8
12 1 -6.38553 -3.73682 -1.61358 19
13 1 -3.87026 -4.87222 -9.97147 14
14 1 -1.33243 -5.70224 -10.613 9
15 1 -1.16215 -9.29893 -2.9048 14
16 1 -4.1105 -9.44128 -2.81358 12
17 1 -2.31483 -7.76285 -5.50789 15
18 1 0.971795 -6.9706 -2.56164 20
19 1 -2.98263 -7.28128 -0.947686 19
20 1 -2.64244 -10.3104 -0.0270004 13
21 1 -2.61946 -2.51769 -11.1721 10
22 1 2.4479 -0.421048 -10.794 10
23 1 -4.76125 -0.853781 -6.45539 21
24 1 -2.70121 -2.45827 -7.95405 19
25 1 -3.54341 -4.47342 -5.90281 21
26 1 0.353303 -1.80829 -6.0516 21
27 1 -2.61287 -1.96378 -4.45846 21
28 1 -0.445541 -4.80788 -4.66588 20
29 1 -3.54729 -4.37117 -2.98028 20
30 1 0.48537 -0.827816 -2.9515 19
31 1 -2.91586 -1.59809 -1.16917 21
32 1 -0.655531 -3.91744 -1.53534 17
33 2 -3.60908 -7.85492 -6.92424 12
34 2 -5.40851 -8.14974 -3.28507 13
35 2 -6.42068 -3.23025 -7.82286 18
36 2 -8.09647 -3.33763 -4.89394 15
37 2 -5.37784 -5.64702 -5.91847 18
38 2 -8.37894 -3.13868 -1.60653 14
39 2 -5.3506 -3.49791 -3.10191 22
40 2 -10.0294 0.125552 -3.85813 11
41 2 -6.99078 -5.42325 -2.7273 15
42 2 -9.5102 -5.18358 0.879489 9
43 2 -7.0374 -0.592137 -2.32876 19
44 2 -6.47526 -1.08433 -5.23305 20
45 2 -2.22476 -6.7237 -9.46105 10
46 2 -2.54545 -8.94725 -3.85864 12
47 2 0.573831 -8.52763 -4.21236 17
48 2 -4.21139 -5.84698 -1.36064 18
49 2 -1.15042 -10.581 -1.3453 13
50 2 -3.97745 -9.29123 -0.747752 15
51 2 -0.542259 -7.14971 -1.50312 16
52 2 -2.36339 -4.36812 -11.4641 8
53 2 -4.40241 -2.74329 -10.1001 13
54 2 0.203152 -5.28398 -9.33235 12
55 2 -5.00435 -6.08101 -8.91589 11
56 2 -0.880647 -1.78928 -7.5361 18
57 2 -3.72423 -2.32055 -6.19698 23
58 2 -2.74489 -4.31024 -7.93208 22
59 2 -2.24607 -4.25402 -4.24024 18
60 2 -0.883491 -1.08272 -4.48442 19
61 2 -3.96914 -1.03317 -3.02551 22
62 2 0.804504 -5.03041 -2.95803 17
63 2 -2.52641 -3.49489 -1.35927 19
64 2 -0.572582 -1.56852 -1.42385 18
65 1 -9.26582 0.0156717 0.376894 15
66 1 -8.24147 -6.85805 0.58923 11
67 1 -5.97809 -6.79129 3.09971 16
68 1 -7.45103 -3.85377 7.71624 9
69 1 -9.09535 -3.47353 0.176689 14
70 1 -5.74857 -1.23241 0.65746 19
71 1 -8.44647 -2.0565 2.8236 17
72 1 -5.87702 -3.877 2.04477 19
73 1 -9.07734 -5.11698 2.83766 11
74 1 -5.45636 -1.08861 3.86076 23
75 1 -8.63325 -0.657086 6.19649 12
76 1 -6.82336 -4.25191 4.78343 17
77 1 -5.64863 -1.87493 7.13495 18
78 1 -5.13242 -3.19898 10.0881 9
79 1 -5.64443 -8.89875 0.132627 12
80 1 -0.226598 -6.69542 0.381652 19
81 1 -3.01418 -7.84577 2.10816 20
82 1 -4.87977 -9.77025 4.39503 9
83 1 -0.26234 -6.80895 3.66336 20
84 1 -5.53068 -6.75525 6.28352 10
85 1 -2.66972 -7.03099 5.64352 14
86 1 0.509998 -7.15187 7.04258 10
87 1 -3.53234 -4.6336 0.0443789 21
88 1 0.295175 -1.11637 0.139545 22
89 1 -2.52611 -1.93268 2.22777 23
90 1 -0.623198 -3.64345 2.03313 21
91 1 -3.16351 -5.08428 3.42345 22
92 1 -0.109334 -0.829348 3.82559 21
93 1 -2.8192 -1.96421 5.31718 21
94 1 -0.47081 -4.72003 5.75816 21
95 1 -2.80376 -1.83222 8.61888 20
96 1 0.227197 -1.57051 7.26232 23
97 1 -0.606336 -3.87963 9.29376 13
98 1 -3.24965 -4.47978 6.96869 18
99 1 0.304515 -0.784565 10.4722 16
100 2 -7.07869 -7.86799 -0.613632 10
101 2 -8.57411 -2.43528 7.03512 9
102 2 -9.24457 -1.86565 0.980254 14
103 2 -5.58085 -3.31308 0.144069 19
104 2 -7.87986 -6.6363 2.62891 11
105 2 -6.38899 -1.64386 2.32972 21
106 2 -9.02935 -0.932146 4.31679 13
107 2 -5.2639 -4.78927 3.50307 20
108 2 -7.82711 -3.84936 2.94028 17
109 2 -6.09239 -2.29949 5.32361 22
110 2 -6.17777 -3.11108 8.78764 11
111 2 -3.81275 -1.99834 10.5251 11
112 2 -2.21522 -6.87138 0.820455 18
113 2 -1.7497 -10.0356 1.46056 15
114 2 -4.97419 -7.8169 1.82734 18
115 2 0.608779 -7.81656 2.03225 17
116 2 -2.33803 -6.95398 3.73296 22
117 2 -3.07988 -10.2477 4.48844 8
118 2 -5.40665 -7.78649 4.58492 14
119 2 -0.885059 -6.60915 6.25338 14
120 2 -6.97432 -5.26836 6.45257 13
121 2 2.20999 -6.07921 7.04598 11
122 2 -3.64735 -0.936384 0.575652 20
123 2 0.243531 -4.52156 0.38074 22
124 2 -2.72227 -3.80375 1.89346 18
125 2 -0.459801 -1.66478 2.17042 20
126 2 -3.19739 -0.969688 3.8223 21
127 2 0.393 -4.9193 3.43605 20
128 2 -2.35507 -4.15834 5.23915 19
129 2 -1.02961 -1.076 5.77946 22
130 2 -3.67912 -1.61488 7.07849 20
131 2 -3.89193 -6.25215 6.96023 12
132 2 -2.49703 -3.99276 8.65926 16
133 2 0.509385 -3.43854 7.23945 20
134 2 -0.785537 -0.775179 8.76112 20
135 2 0.439262 -2.88598 10.5192 12
136 1 -7.07345 0.38674 -7.58035 13
137 1 -9.68038 0.49407 -5.67482 12
138 1 -5.97548 4.08456 -6.02525 16
139 1 -8.79089 3.76428 -4.66191 14
140 1 -6.84742 0.884942 -4.76256 22
141 1 -8.75992 4.02833 -0.564041 13
142 1 -5.86549 3.58753 -2.39883 20
143 1 -10.6423 5.35438 -3.37316 7
144 1 -6.7578 1.13311 -1.46297 17
145 1 -7.43114 6.09391 -4.4687 12
146 1 -6.39389 8.81308 -2.4122 10
147 1 -0.150233 -1.03205 -9.19936 16
148 1 -3.52223 0.116337 -9.1127 16
149 1 -0.738161 4.75438 -9.4603 12
150 1 -2.90211 4.85535 -7.51378 17
151 1 -0.830014 1.9281 -7.69188 20
152 1 -4.04034 1.94033 -6.57524 17
153 1 -0.109225 4.00226 -6.10948 22
154 1 -2.72759 3.77386 -4.32309 20
155 1 -0.969251 0.912694 -4.78878 20
156 1 -3.82763 1.07365 -3.12007 21
157 1 -0.0311973 4.58431 -2.87913 22
158 1 -2.76334 3.37594 -1.36041 21
159 1 -0.856922 1.33419 -1.19846 18
160 1 -2.163 7.96709 -8.69635 8
161 1 -4.37377 7.23525 -6.30292 12
162 1 -3.28351 9.21401 -4.04032 11
163 1 -1.15922 6.60182 -4.56598 19
164 1 -3.37469 6.23853 -2.91314 21
165 1 -0.7563 9.65605 -2.34394 16
166 1 -3.3677 9.32531 -0.849122 16
167 1 -1.21633 7.08915 -1.00624 19
168 2 -5.4088 -0.413697 -8.40312 15
169 2 -5.94012 1.51663 -6.52835 16
170 2 -8.48755 -0.616188 -6.97884 13
171 2 -8.62013 1.96662 -5.2629 14
172 2 -6.78008 4.27976 -4.15755 17
173 2 -9.22964 5.72617 -4.85731 11
174 2 -5.73058 1.65844 -3.11688 21
175 2 -10.4821 3.16737 -3.26536 11
176 2 -7.04585 3.72913 -0.998309 16
177 2 -5.7923 6.09714 -5.6337 13
178 2 -4.37423 9.2598 -2.50958 13
179 2 -7.05689 7.36244 -3.12891 10
180 2 -7.06065 7.97325 -0.687844 14
181 2 -2.46919 -1.31254 -9.66951 15
182 2 -0.0174928 0.746508 -8.89724 17
183 2 -2.64906 1.16297 -7.86506 17
184 2 -1.29707 3.89294 -7.81834 17
185 2 -3.83161 3.9421 -6.31614 17
186 2 0.303923 1.7631 -5.99828 20
187 2 -3.05272 1.96394 -4.69524 23
188 2 -1.00411 4.57703 -4.60538 21
189 2 -3.88851 4.37003 -2.57515 19
190 2 0.096919 1.30894 -2.9689 23
191 2 -2.76095 1.25385 -1.19818 18
192 2 -0.904765 3.81551 -1.39082 21
193 2 -0.817445 6.60487 -8.8792 11
194 2 -3.22757 6.55007 -7.91696 11
195 2 0.372738 7.39454 -5.39898 18
196 2 -3.25809 7.38535 -4.65222 18
197 2 -1.42599 9.64278 -4.19831 13
198 2 -1.19115 8.85741 -0.501909 17
199 2 -0.100949 6.68855 -2.71988 22
200 2 -3.26751 7.21607 -1.07531 21
201 2 4.28357 8.73184 -1.00979 14
202 1 -7.40106 6.91536 1.55875 15
203 1 -6.12195 4.18398 0.752559 18
204 1 -8.74932 4.23757 2.64995 14
205 1 -6.95054 1.16888 2.30004 21
206 1 -9.77093 0.871135 3.54309 13
207 1 -5.83697 3.484 3.9581 18
208 1 -8.83623 3.14545 5.64118 10
209 1 -6.55692 1.56066 5.42978 22
210 1 -6.35644 4.86982 9.30245 7
211 1 -6.12672 1.24624 8.98572 9
212 1 -8.28841 6.75377 -1.67937 13
213 1 -6.0433 9.04404 0.634474 13
214 1 -6.6473 5.45298 5.93345 11
215 1 -6.1021 8.50009 3.88718 11
216 1 -3.98499 0.96124 0.492435 20
217 1 -0.276798 4.46526 0.314148 22
218 1 -3.12756 3.8564 1.91964 21
219 1 -0.81705 1.66717 2.10097 24
220 1 -3.42718 0.979255 3.7209 22
221 1 -0.242764 4.15934 4.03439 20
222 1 -3.03255 3.33951 4.96575 21
223 1 -0.772194 1.07489 5.6529 21
224 1 -4.04437 0.603025 6.64759 19
225 1 -0.28564 3.80468 7.34427 19
226 1 -3.90271 2.87952 9.88021 13
227 1 -1.60145 1.02747 8.78527 21
228 1 -3.15889 -1.03589 11.9027 7
229 1 -0.740586 1.46042 11.6127 12
230 1 -4.29517 5.94876 0.183033 21
231 1 -0.275984 9.7171 1.06172 16
232 1 -3.03773 8.46893 2.58814 20
233 1 -1.1393 6.43252 2.498 21
234 1 -4.51241 6.21496 3.242 21
235 1 -0.0761174 9.22325 4.12846 15
236 1 -2.62689 8.46244 5.6184 12
237 1 -1.058 5.90212 5.81463 16
238 1 -3.71547 5.90031 7.81589 11
239 1 -1.25714 4.38088 9.86598 13
240 2 -8.68543 0.54256 2.11794 15
241 2 -9.44481 5.17601 -1.75506 13
242 2 -5.93827 0.917746 0.400136 19
243 2 -9.21305 0.808385 -1.41793 13
244 2 -7.0248 3.31133 2.57026 21
245 2 -9.76591 3.15518 3.91831 11
246 2 -5.58484 1.128 3.86991 21
247 2 -8.62392 1.20833 5.87165 13
248 2 -6.98305 3.57534 5.52641 14
249 2 -5.87541 0.738549 7.19705 15
250 2 -5.85846 2.99648 9.77592 7
251 2 -5.57389 6.0381 1.57557 22
252 2 -8.42536 5.32775 1.13305 12
253 2 -6.99482 8.68889 2.09029 11
254 2 -6.05359 6.4656 4.38812 15
255 2 -4.28694 8.29273 4.28498 12
256 2 -3.72709 4.01332 0.240494 20
257 2 0.0777208 0.875793 0.403945 21
258 2 -3.25702 1.72207 2.14916 21
259 2 -1.07922 3.82522 1.9685 19
260 2 -3.96302 4.01397 3.63104 23
261 2 -0.0311484 1.37941 3.82362 21
262 2 -2.69651 1.40869 5.33314 22
263 2 -1.45951 4.00442 5.39077 18
264 2 -5.55462 5.18481 7.58348 9
265 2 -0.283663 1.88862 7.54873 19
266 2 -3.5112 1.24175 8.46739 16
267 2 -1.56738 -0.237711 11.4897 11
268 2 1.00709 1.50011 10.8981 14
269 2 -4.19703 9.0773 1.04033 17
270 2 -0.176334 6.53725 0.685809 20
271 2 -2.96006 6.50695 2.01648 19
272 2 -1.2475 9.1729 2.46075 15
273 2 -1.0156 9.20606 5.79153 12
274 2 -0.260377 6.3204 4.0593 19
275 2 -2.79659 6.74596 6.29523 14
276 2 0.47969 7.46429 8.16329 11
277 2 -3.05227 4.57004 9.30368 12
278 1 0.604608 -7.78169 -6.08595 13
279 1 6.98516 -9.06658 -1.2794 8
280 1 2.21549 -9.2424 -4.23078 12
281 1 3.39822 -9.17368 -1.40165 15
282 1 0.834742 -11.2502 -1.46175 10
283 1 3.69133 -6.36524 -0.948405 19
284 1 5.46374 -4.29577 -4.52489 19
285 1 3.41121 -11.2021 0.769271 8
286 1 1.58514 -3.89724 -8.9267 14
287 1 -0.872941 -5.31573 -7.56512 19
288 1 4.34565 1.1428 -8.4069 19
289 1 5.24678 -4.04763 -7.76382 11
290 1 3.59324 -8.27906 -6.99697 6
291 1 2.0891 -5.11159 -6.18901 20
292 1 3.15247 -1.60271 -8.00918 16
293 1 3.23643 -1.95354 -4.80232 21
294 1 7.82676 -4.05246 -6.54974 8
295 1 4.17944 -7.20818 -3.74681 19
296 1 5.58252 -1.06645 -2.90886 18
297 1 2.88954 -0.748174 -1.19783 23
298 1 2.46114 -3.74334 -3.01295 21
299 1 7.06405 -6.17622 0.785201 21
300 1 7.15397 2.1948 -7.3117 10
301 1 6.2257 -1.02761 -6.60237 16
302 1 8.23945 -2.85882 -3.36403 13
303 1 7.25097 -5.91969 -2.1074 14
304 1 11.326 -2.17642 0.639533 11
305 1 8.92005 -0.735848 -1.1429 16
306 1 10.7641 -3.93581 -1.63065 9
307 2 2.26314 -6.94855 -6.61935 15
308 2 2.14441 -10.2868 -2.41772 13
309 2 5.2415 -8.66458 -0.825899 15
310 2 3.64006 -8.47472 -5.12512 12
311 2 1.70569 -10.6358 0.321797 11
312 2 7.51886 -7.12539 -0.721663 12
313 2 3.02986 -4.11135 -7.70576 14
314 2 0.318182 -3.92308 -6.13012 22
315 2 6.8385 -2.64775 -7.30155 9
316 2 2.06863 -0.939672 -6.32949 22
317 2 5.58255 -5.84748 -3.14368 17
318 2 -0.728056 -6.55567 -5.92439 17
319 2 4.92226 -0.989821 -5.12036 20
320 2 2.48517 -1.4006 -3.04635 23
321 2 6.0587 -4.9567 -6.33797 12
322 2 3.2618 -4.21095 -4.82378 20
323 2 4.81003 -1.58461 -1.20482 23
324 2 6.17825 -3.03118 -3.31127 20
325 2 5.62233 2.58619 -8.5105 11
326 2 8.48836 -3.42882 -5.07875 9
327 2 10.2503 -2.01305 -0.879151 13
328 2 8.00773 -0.846397 -2.97408 17
329 2 8.86151 -4.51038 -1.81151 18
330 2 8.5833 -3.91196 1.58037 18
331 1 0.363417 -9.5867 1.25266 16
332 1 4.83444 -8.05735 1.20462 15
333 1 2.77662 -6.23182 2.42428 17
334 1 5.87162 -6.00065 3.99428 18
335 1 -1.58013 -10.6264 3.24547 10
336 1 3.1438 -7.05709 5.57205 11
337 1 1.52238 -9.58829 4.45338 8
338 1 7.50891 -4.95933 5.89289 12
339 1 2.22572 -3.81306 0.441204 22
340 1 6.23842 -0.600332 0.189659 22
341 1 3.25641 -1.09073 1.79076 22
342 1 5.15987 -3.5609 1.85161 24
343 1 2.01187 -3.55897 3.73899 21
344 1 6.07968 -0.935608 3.55377 21
345 1 2.83969 -1.20561 5.4171 21
346 1 4.8602 -4.05152 5.28463 21
347 1 2.33221 -4.09691 7.21131 19
348 1 6.67681 0.0649973 8.49975 11
349 1 3.36213 -0.85391 8.52787 21
350 1 5.20898 -3.33686 8.31798 11
351 1 2.33396 -2.79749 10.5617 11
352 1 7.98618 -7.76104 3.39285 8
353 1 5.18038 -3.4882 -1.26301 21
354 1 8.95046 -1.77814 5.06788 16
355 1 7.98132 -3.53461 -0.294235 22
356 1 10.0556 -5.28558 1.80798 11
357 1 7.69438 -3.49448 3.18572 20
358 1 9.52268 0.544949 6.59826 10
359 1 6.23888 -1.65812 6.48117 20
360 2 4.43737 -10.0122 1.56169 8
361 2 6.03412 -7.28713 2.45905 15
362 2 6.06774 -3.62505 6.63077 17
363 2 3.1156 -4.25395 2.2969 20
364 2 0.333117 -10.1326 3.21369 9
365 2 3.20173 -6.99417 0.732608 20
366 2 1.28175 -7.58636 5.30211 13
367 2 2.12346 -1.70185 0.624228 21
368 2 2.91033 -7.22394 -2.383 16
369 2 3.54211 -4.38386 -1.27215 21
370 2 5.22536 -1.61946 1.94189 18
371 2 1.92591 -1.37008 3.80771 18
372 2 5.92976 -3.84123 3.7101 22
373 2 3.29989 -3.18372 5.36776 21
374 2 5.11376 -0.534203 5.31745 22
375 2 2.06497 -0.345702 7.05294 23
376 2 7.57969 -6.5319 4.7138 12
377 2 3.24959 -3.12495 8.58521 17
378 2 4.45341 1.93916 10.7655 9
379 2 2.57325 -1.01488 10.4569 12
380 2 10.8719 -4.09058 0.440012 9
381 2 4.05851 -6.02066 4.27223 19
382 2 6.06417 -4.41633 0.369085 24
383 2 8.94462 -6.78459 1.89685 10
384 2 8.70336 -3.81824 4.94698 14
385 2 7.92741 -1.04558 3.74236 21
386 2 7.88845 -0.581272 6.98511 15
387 2 5.30413 -1.43524 8.45695 15
388 1 1.22927 1.92401 -9.56122 16
389 1 2.38566 3.89995 -8.03042 22
390 1 2.3965 3.29081 -11.2857 10
391 1 2.20577 0.917904 -6.0349 24
392 1 5.03681 4.04542 -6.52483 19
393 1 2.96754 3.91685 -4.56603 21
394 1 5.13664 1.07845 -4.61416 22
395 1 2.21718 1.84527 -2.93131 20
396 1 6.08571 4.29072 -2.79283 22
397 1 2.8934 4.24039 -1.11764 19
398 1 4.54408 1.92949 -1.26124 21
399 1 0.603831 7.84928 -8.64664 10
400 1 4.20806 6.93382 -7.77989 12
401 1 2.04086 6.74109 -5.88099 18
402 1 -0.301521 9.35709 -5.59638 14
403 1 4.99398 6.33075 -4.41954 18
404 1 1.47711 7.55412 -3.50817 18
405 1 2.68733 9.72549 -1.23162 13
406 1 4.2405 7.0867 -2.10941 16
407 1 4.978 4.14648 -9.66876 12
408 1 7.26738 5.76862 -6.17792 14
409 1 9.37946 4.7565 -3.82068 11
410 1 7.58846 1.12338 -3.37357 12
411 1 10.896 6.01698 -1.622 10
412 1 9.14103 3.09268 -1.39643 13
413 1 7.69957 7.53463 -2.95741 13
414 2 1.79809 -1.95821 -9.3642 13
415 2 1.15101 4.17481 -9.5953 16
416 2 4.87181 -0.61068 -7.82231 17
417 2 1.98897 1.35248 -11.273 10
418 2 2.53168 1.87996 -7.87703 22
419 2 1.82161 4.45492 -6.22398 21
420 2 6.90045 3.98523 -6.67123 15
421 2 3.11053 1.98797 -4.74957 20
422 2 4.82462 4.36693 -4.43113 23
423 2 1.80471 3.87254 -2.94521 21
424 2 6.95166 1.19911 -5.62963 15
425 2 2.68015 1.30701 -1.18788 21
426 2 4.87457 3.88323 -1.39695 23
427 2 2.33959 7.80844 -7.92043 11
428 2 5.42201 6.59162 -6.09581 14
429 2 3.41718 7.14755 -3.96677 17
430 2 -1.04296 8.90189 -7.48452 11
431 2 1.33261 9.21508 -2.43703 16
432 2 8.31198 6.29388 -4.60223 13
433 2 2.94408 6.28085 -1.11446 23
434 2 6.04969 6.79051 -2.82177 18
435 2 3.88732 4.15705 -11.2222 8
436 2 4.09864 4.85474 -8.02342 19
437 2 7.83974 3.34885 -3.05742 19
438 2 5.53289 1.08157 -2.59328 21
439 2 11.2781 -1.14981 2.21705 11
440 2 8.58124 1.30808 -0.920482 15
441 2 10.5367 4.348 -2.36443 10
442 2 9.05923 6.90122 -1.69196 14
443 1 2.14059 1.97151 0.407557 22
444 1 6.16295 4.49318 0.298358 19
445 1 3.05737 4.6463 2.07137 20
446 1 4.93094 1.77446 2.10918 21
447 1 2.36556 1.73982 3.7033 21
448 1 6.25962 4.2071 4.55207 15
449 1 2.55735 4.50768 5.39901 19
450 1 4.96783 1.416 5.75262 21
451 1 1.94516 1.58535 6.98053 18
452 1 5.05484 6.54459 5.39618 11
453 1 1.56108 2.85487 9.80881 15
454 1 4.85018 2.44732 8.87067 11
455 1 2.89451 0.710803 11.0322 10
456 1 1.92404 7.21246 0.136853 22
457 1 3.12643 8.72196 2.10157 12
458 1 3.0301 9.5361 6.30205 8
459 1 5.79158 8.35438 0.0454721 14
460 1 1.71661 6.86072 3.89871 19
461 1 0.0774243 9.31186 7.60041 7
462 1 5.4355 6.36897 2.2504 15
463 1 1.32121 5.74851 8.40895 10
464 1 7.41238 1.99612 0.553909 18
465 1 7.8142 1.07931 4.01413 18
466 1 11.592 -0.0268555 3.60243 10
467 1 9.11542 -0.532166 1.79903 18
468 1 8.31765 6.17436 3.81159 10
469 1 9.99301 3.58297 4.85387 9
470 1 8.41092 6.16745 0.234886 15
471 1 11.3177 5.89221 1.99595 6
472 2 1.81571 3.9595 0.517122 21
473 2 5.67765 1.54971 0.320099 20
474 2 3.07384 1.22774 2.09075 21
475 2 5.18689 4.38726 1.97386 18
476 2 1.99686 3.85826 3.58471 19
477 2 5.93418 2.31182 4.18729 18
478 2 3.19132 2.22166 5.35008 18
479 2 4.49917 4.75787 5.42077 14
480 2 0.98178 4.90422 6.36635 16
481 2 5.42483 1.34141 7.6594 14
482 2 2.85193 2.37753 8.48519 18
483 2 0.468036 4.14914 9.1711 14
484 2 -1.81323 2.81813 10.7886 12
485 2 1.68708 8.96694 0.551211 17
486 2 6.60672 6.59076 0.376734 19
487 2 3.14945 6.69368 2.15691 20
488 2 5.04987 8.46054 1.70209 11
489 2 1.82712 8.68847 3.73285 15
490 2 8.51219 4.70844 4.84616 9
491 2 1.545 10.1914 6.79816 7
492 2 4.08798 8.00879 5.92221 8
493 2 8.13846 4.15549 -0.256537 18
494 2 10.2692 -0.316012 4.90945 12
495 2 7.83505 -1.39204 0.454531 22
496 2 8.27355 1.10311 2.02154 17
497 2 9.22982 5.95458 2.06517 12
498 2 9.35213 1.99174 5.60446 12
499 2 6.29215 6.30745 3.87434 12
500 2 11.5628 5.98052 0.182727 7
