ITEM: TIMESTEP
111000
ITEM: NUMBER OF ATOMS
500
ITEM: BOX BOUNDS pp pp pp
-30.0 30.0
-30.0 30.0
-30.0 30.0
ITEM: ATOMS id type x y z Coordination
1 1 -5.80349 -7.26396 -5.8305 11
2 1 -5.92025 -7.23809 -2.74486 18
3 1 -8.25854 -7.31928 -0.277805 10
4 1 -6.20438 -1.76678 -9.42751 13
5 1 -7.29306 -4.47561 -7.30368 13
6 1 -7.39488 -1.93948 -5.97126 17
7 1 -9.64876 -2.82021 -3.91042 11
8 1 -6.67195 -4.19019 -4.23528 21
9 1 -8.99992 -5.71221 -2.4161 10
10 1 -5.69429 -1.27 -2.96848 19
11 1 -8.49064 -1.5762 -1.40024 19
12 1 -6.54123 -4.46612 -1.06865 22
13 1 -4.64601 -4.44216 -9.64544 11
14 1 0.122831 -6.12404 -6.79961 13
15 1 -2.39771 -7.26402 -4.90534 16
16 1 -0.618827 -9.43385 -3.75505 13
17 1 -4.34056 -9.39307 -3.45696 11
18 1 -0.732366 -6.45066 -2.61903 20
19 1 -3.06441 -7.49159 -1.35308 20
20 1 -0.661416 -9.79548 -0.602566 12
21 1 -2.85288 -1.86331 -10.2904 15
22 1 0.790521 -0.747807 -9.00482 18
23 1 -4.62489 -2.1733 -7.54527 20
24 1 -1.33338 -3.45583 -8.24727 20
25 1 -3.47829 -4.83794 -6.19418 19
26 1 -1.53676 -0.761166 -6.37731 22
27 1 -3.86872 -2.02168 -4.65494 21
28 1 -1.13363 -4.02359 -4.52714 23
29 1 -3.73705 -4.75087 -3.06135 24
30 1 -0.00803207 -1.02767 -3.09129 21
31 1 -2.796 -1.86453 -1.25082 21
32 1 -0.769939 -3.53688 -1.31473 23
33 2 -5.83854 -8.50396 -4.3632 10
34 2 -7.70726 -7.1761 -2.00897 12
35 2 -6.66664 -2.5384 -7.76781 16
36 2 -9.22242 -1.86511 -5.55124 12
37 2 -6.55835 -5.39917 -5.60529 14
38 2 -8.51259 -4.28593 -3.68519 15
39 2 -6.12812 -2.20532 -4.56097 21
40 2 -9.76257 -1.29223 -2.99796 14
41 2 -5.62465 -4.96666 -2.81403 23
42 2 -8.5503 -4.37041 -0.974137 16
43 2 -6.57136 -2.04011 -1.33919 21
44 2 -3.2187 -3.46774 -7.53328 19
45 2 -3.98558 -6.7595 -5.7419 14
46 2 -2.33292 -8.99063 -3.78516 14
47 2 0.232759 -7.56345 -3.84723 18
48 2 -2.65905 -6.38336 -2.98951 22
49 2 0.400127 -10.1194 -2.22181 12
50 2 -4.69961 -8.71933 -1.68859 13
51 2 -0.980848 -7.94622 -1.04866 19
52 2 -1.16503 -2.76061 -10.1729 14
53 2 -4.47895 -2.56352 -9.93613 13
54 2 0.158259 -4.62797 -8.07634 15
55 2 -6.36895 -5.00452 -8.92966 10
56 2 -0.18701 -1.9052 -7.53197 22
57 2 -3.54419 -0.936235 -6.46249 24
58 2 -1.37651 -5.6574 -5.72015 19
59 2 -3.07926 -3.73582 -4.49488 22
60 2 -0.493053 -2.11123 -4.75435 23
61 2 -3.43245 -1.10088 -3.0359 20
62 2 0.0305113 -4.67984 -2.79961 21
63 2 -2.83538 -3.86671 -1.3919 22
64 2 -0.724624 -1.57891 -1.38042 20
65 1 -9.25052 0.437526 0.319997 17
66 1 -5.47313 -6.50499 1.25442 17
67 1 -5.36846 -7.70269 3.88643 14
68 1 -6.81521 -6.03751 6.37859 11
69 1 -8.9703 -3.47899 0.749745 15
70 1 -5.84732 -1.07617 0.272711 23
71 1 -8.53123 -1.13385 2.52635 18
72 1 -6.50803 -3.71316 2.34243 20
73 1 -9.07528 -4.37956 4.14521 11
74 1 -5.45058 -1.34187 3.58707 21
75 1 -8.87012 -1.42881 5.77179 12
76 1 -6.03388 -3.22258 5.95151 18
77 1 -5.85345 -1.44812 7.9065 14
78 1 -4.58988 -4.20058 8.72058 13
79 1 -5.32124 -9.17262 0.0631932 12
80 1 -0.179105 -6.609 0.202156 19
81 1 -2.86201 -7.3264 1.98002 19
82 1 -3.45475 -10.0955 3.071 11
83 1 -0.318009 -6.50656 3.73951 18
84 1 -4.69528 -8.81782 6.51984 9
85 1 -1.67688 -8.62339 5.29506 14
86 1 0.57463 -6.52056 6.81502 17
87 1 -3.78251 -4.50746 0.210927 20
88 1 -7.16334e-05 -1.00868 0.263854 20
89 1 -2.66747 -1.89106 2.01853 24
90 1 -0.604788 -3.68758 1.89412 21
91 1 -3.8845 -4.58208 3.3593 20
92 1 -0.229609 -1.16232 3.86689 21
93 1 -3.17215 -2.0505 5.27416 22
94 1 -0.885704 -3.7832 5.43077 19
95 1 -3.69743 -5.53058 6.31677 20
96 1 -0.371376 -1.31627 7.36714 19
97 1 -1.09767 -4.29394 8.48568 19
98 1 -2.01526 -6.9139 8.41942 13
99 1 0.0954828 -2.16157 10.4936 11
100 2 -6.6904 -7.81573 0.541354 12
101 2 -8.09039 -5.24036 5.39761 12
102 2 -8.97236 -1.54378 0.693023 15
103 2 -5.74754 -4.6368 0.6843 19
104 2 -8.35118 -4.45468 2.31593 14
105 2 -6.58402 -1.83013 2.04644 21
106 2 -8.60855 0.175506 4.80427 15
107 2 -5.53645 -3.56298 3.99131 21
108 2 -8.92618 -2.37358 4.06222 16
109 2 -7.43822 -2.23145 6.82235 16
110 2 -5.56879 -4.78124 7.0226 14
111 2 -4.45156 -2.43405 8.99574 14
112 2 -3.65268 -6.39926 0.278143 21
113 2 0.702232 -9.91252 0.874809 13
114 2 -4.02708 -8.9664 1.63579 13
115 2 -0.928413 -7.45595 2.06284 23
116 2 -4.32821 -6.32925 3.23051 18
117 2 -1.58251 -9.6536 3.67771 11
118 2 -4.52 -9.34187 4.49446 10
119 2 -0.552528 -7.11256 5.56942 17
120 2 -5.70007 -7.33591 5.85939 9
121 2 -0.228229 -6.50661 8.67199 12
122 2 -3.75614 -1.15483 0.462967 20
123 2 -0.0809165 -4.57059 0.199671 19
124 2 -2.73952 -3.96683 1.81063 22
125 2 -0.659999 -1.79232 2.08443 21
126 2 -3.5416 -1.1622 3.54225 21
127 2 -0.150437 -4.60778 3.73353 18
128 2 -2.8953 -4.25835 5.16497 21
129 2 -1.21613 -1.86182 5.47775 22
130 2 -4.76281 -1.6761 6.33812 21
131 2 -3.1129 -7.82153 6.95718 13
132 2 -3.16741 -5.42775 8.44587 12
133 2 0.190041 -4.20814 6.98122 21
134 2 -1.16231 -2.03844 9.06888 16
135 2 0.00934905 -4.06293 10.2582 11
136 1 -6.55658 0.776191 -7.55709 14
137 1 -9.57495 0.0443257 -5.58791 10
138 1 -5.93401 3.97205 -6.11188 16
139 1 -8.88365 3.2635 -4.10572 16
140 1 -6.82173 1.38868 -4.53868 20
141 1 -9.70601 0.667482 -2.60861 14
142 1 -5.80225 4.4667 -2.92638 21
143 1 -8.4249 4.67798 -1.14689 19
144 1 -6.60323 1.59933 -1.34427 24
145 1 -7.28901 6.38948 -4.50751 12
146 1 -6.88941 7.29193 -1.18757 17
147 1 -1.20706 0.612625 -11.3532 10
148 1 -3.95599 0.927349 -9.57896 15
149 1 -0.306289 5.02011 -9.41817 15
150 1 -3.1419 4.15881 -8.01871 15
151 1 -1.30131 1.84344 -8.06801 23
152 1 -3.86851 1.22161 -6.3112 20
153 1 -0.374344 4.68592 -6.42464 21
154 1 -3.1668 3.54501 -4.64901 20
155 1 -1.06591 1.71763 -4.72825 21
156 1 -3.78739 0.974588 -3.1017 20
157 1 -0.631173 4.50902 -3.03972 23
158 1 -3.08255 3.90489 -1.3197 19
159 1 -0.992205 1.69579 -1.36296 20
160 1 -1.63925 7.49863 -7.92336 15
161 1 -4.36466 6.4853 -6.37367 15
162 1 -3.41292 9.30783 -4.80228 9
163 1 -1.27192 7.43593 -4.59223 23
164 1 -3.8982 6.58846 -2.98868 20
165 1 -0.816304 10.2374 -3.25494 12
166 1 -2.84124 9.74302 -1.30064 14
167 1 -1.11826 7.36131 -1.29681 21
168 2 -5.75193 0.0899829 -9.14011 13
169 2 -5.63758 1.96576 -6.36414 17
170 2 -7.73835 0.209005 -6.20636 13
171 2 -9.09775 1.47375 -4.361 13
172 2 -6.97864 3.47546 -4.42271 18
173 2 -9.58367 3.84982 -2.41848 14
174 2 -5.69521 0.667294 -3.07721 21
175 2 -10.5107 1.44895 -0.990829 14
176 2 -6.63387 3.79512 -1.37999 20
177 2 -6.1893 5.90063 -6.03251 11
178 2 -6.13716 6.29897 -3.02293 16
179 2 -8.7538 6.50868 -1.01529 15
180 2 -6.45252 9.07092 -0.848024 10
181 2 -2.83429 -0.0109989 -10.5741 11
182 2 -0.4605 1.60017 -9.90309 13
183 2 -3.28744 1.7866 -8.08243 17
184 2 -1.06391 3.8032 -8.07087 18
185 2 -3.99809 3.937 -6.21421 19
186 2 -0.493724 0.957494 -6.52585 21
187 2 -2.97829 1.60964 -4.71934 20
188 2 -1.18497 3.84435 -4.8637 19
189 2 -3.9358 4.58113 -2.97601 21
190 2 -0.239899 1.06432 -3.15079 21
191 2 -3.01139 1.84711 -1.40897 21
192 2 -0.933518 3.64844 -1.22522 21
193 2 -0.122942 6.84889 -8.82851 13
194 2 -3.04108 6.13611 -7.90751 12
195 2 -0.560311 6.67317 -6.24816 19
196 2 -3.60359 7.20533 -4.84716 17
197 2 -1.5132 9.43701 -5.16816 12
198 2 -2.92466 10.1617 -3.15298 12
199 2 -0.248677 6.74528 -2.90987 21
200 2 -2.98223 7.14729 -1.38324 19
201 2 -0.933759 9.36593 -1.39925 16
202 1 -10.864 3.31163 -0.926052 10
203 1 -5.79724 4.25488 0.423698 21
204 1 -8.55133 4.12537 2.14695 17
205 1 -6.56199 1.63417 2.02237 20
206 1 -9.59758 1.24563 3.55407 13
207 1 -5.81035 4.93811 3.75849 17
208 1 -8.49665 3.78471 5.42068 11
209 1 -6.94853 0.922188 5.34532 20
210 1 -5.69943 4.49126 7.07241 12
211 1 -7.08624 2.06925 8.35362 10
212 1 -9.60554 6.1572 0.748886 10
213 1 -5.49717 9.84283 0.419505 11
214 1 -6.49062 7.2289 2.055 17
215 1 -5.57614 9.23113 3.88177 10
216 1 -3.69674 1.19186 0.35412 19
217 1 -0.44819 4.54197 0.343395 22
218 1 -3.16846 3.83157 2.16333 19
219 1 -1.11856 1.76384 2.00972 22
220 1 -3.79939 0.872903 3.73125 20
221 1 -0.340372 4.5587 3.61655 23
222 1 -2.92862 3.64855 5.46008 21
223 1 -1.0797 1.34291 5.39743 23
224 1 -4.21833 0.556555 6.59259 19
225 1 -0.199945 4.33073 6.91815 21
226 1 -3.43163 3.35033 8.6499 14
227 1 -1.10748 1.57498 8.61499 17
228 1 -2.97558 -1.34676 8.69008 14
229 1 -0.283425 4.27495 10.0981 11
230 1 -3.85119 6.46256 0.311951 22
231 1 -0.175748 10.2017 0.102637 13
232 1 -2.81368 9.45183 2.03045 17
233 1 -0.770257 7.47096 1.97518 22
234 1 -3.46147 6.45251 3.82904 22
235 1 -0.0452872 10.4613 3.41829 13
236 1 -2.72416 9.38766 5.53799 11
237 1 -0.986398 7.52253 5.06995 19
238 1 -2.59875 6.14839 7.11466 14
239 1 0.488901 7.05631 8.24754 11
240 2 -8.54686 0.875228 1.97194 19
241 2 -9.65945 4.17601 0.411448 14
242 2 -5.63275 0.950907 0.359074 20
243 2 -8.03326 0.4021 -1.62578 18
244 2 -6.57643 3.64384 2.17298 19
245 2 -9.13075 3.07153 3.6514 13
246 2 -5.83476 0.636903 3.82932 19
247 2 -7.84821 2.33895 6.4982 12
248 2 -6.70262 4.33318 5.38031 14
249 2 -6.04421 0.619795 7.434 17
250 2 -5.39773 3.08945 8.57836 9
251 2 -5.92838 6.29314 0.470623 21
252 2 -8.18011 5.96522 1.95175 14
253 2 -6.28043 9.23008 2.04265 12
254 2 -5.33409 7.08592 3.85901 15
255 2 -3.64757 9.39914 3.84714 15
256 2 -3.72398 4.50581 0.368173 20
257 2 -0.140501 1.00171 0.503625 19
258 2 -3.01988 1.7928 2.13833 19
259 2 -1.23723 3.92188 2.05174 21
260 2 -3.76011 4.38949 3.92657 19
261 2 -0.450232 0.787837 3.60357 21
262 2 -3.14128 1.60075 5.46907 21
263 2 -0.940425 3.51721 5.21518 21
264 2 -3.80955 4.81227 7.37332 14
265 2 -0.148296 0.979452 7.03998 21
266 2 -2.76999 0.443838 8.04666 17
267 2 -1.40184 3.45029 8.597 16
268 2 1.00592 2.70608 9.96712 13
269 2 -3.61497 10.0604 0.39338 13
270 2 -0.0963675 6.64661 0.410914 22
271 2 -2.9979 7.10433 2.04663 24
272 2 -0.800535 9.58143 1.86519 17
273 2 -1.02147 9.50158 4.65943 13
274 2 -0.0702806 6.52751 3.5629 21
275 2 -2.78358 7.27061 5.65767 14
276 2 1.81296 7.91375 7.22414 12
277 2 -0.70983 6.28303 6.92088 18
278 1 3.11669 -4.67273 -5.88081 18
279 1 5.10018 -5.81706 -3.7327 18
280 1 2.03763 -7.39633 -4.60465 18
281 1 4.77307 -9.06094 -4.52001 9
282 1 2.22784 -9.85095 -2.41993 14
283 1 7.16305 -8.21576 -2.30848 10
284 1 3.2088 -7.26183 -1.44362 22
285 1 5.14107 -9.52202 0.0403754 11
286 1 0.466683 -2.70036 -11.1868 10
287 1 1.78022 -4.27236 -8.80585 13
288 1 7.11646 -1.27433 -7.64113 13
289 1 3.52054 -2.02116 -8.61141 14
290 1 5.54346 -3.67626 -7.11274 11
291 1 1.00065 -2.59748 -6.08609 24
292 1 4.42089 -0.664153 -6.18377 22
293 1 3.07004 -1.90003 -4.34891 21
294 1 6.26586 -3.13318 -4.28281 20
295 1 1.90238 -4.48451 -2.97872 24
296 1 5.40267 -0.728669 -2.61585 19
297 1 2.49853 -1.69036 -1.19742 19
298 1 4.58142 -3.61007 -1.27434 21
299 1 9.06164 -6.2799 -0.194079 13
300 1 9.31842 0.22389 -5.3699 12
301 1 9.09034 -3.25074 -5.77555 10
302 1 9.20388 -2.02408 -3.21163 14
303 1 7.81953 -4.7847 -2.43473 18
304 1 11.2326 -0.109855 -0.736585 12
305 1 8.19327 -0.731004 -0.893852 20
306 1 10.6146 -3.22147 -0.439025 15
307 2 1.81211 -6.36487 -6.27015 14
308 2 3.09243 -8.84766 -3.82886 12
309 2 5.76518 -7.64549 -3.62382 13
310 2 3.241 -6.18442 -3.21597 19
311 2 3.41074 -9.28162 -0.850252 15
312 2 6.15839 -8.09986 -0.564228 11
313 2 1.84818 -2.42943 -9.6964 14
314 2 3.3875 -3.81596 -7.60196 14
315 2 7.42579 -3.05853 -6.64431 12
316 2 2.41015 -0.990418 -6.08144 24
317 2 5.09954 -4.59458 -5.39538 15
318 2 2.06264 -3.61483 -4.71579 21
319 2 4.85882 -1.48401 -4.52133 21
320 2 2.1513 -0.663527 -3.09537 23
321 2 5.83847 -4.47713 -2.50935 21
322 2 2.63679 -3.60405 -1.51197 20
323 2 4.5219 -1.53244 -1.08484 23
324 2 8.08384 -6.69899 -1.7625 12
325 2 9.79371 -1.53303 -5.18458 11
326 2 8.28158 -3.63526 -3.9387 13
327 2 9.90074 -1.66427 -1.26479 17
328 2 7.57135 -1.02227 -2.78538 17
329 2 8.9243 -4.22619 -0.452542 18
330 2 11.06 -3.30974 1.45251 13
331 1 2.51817 -9.86996 1.05516 13
332 1 5.82825 -6.3934 0.296862 20
333 1 2.80838 -6.90649 1.96375 23
334 1 4.11493 -9.5892 3.45237 10
335 1 -0.109859 -9.21088 2.43502 17
336 1 5.63275 -6.84603 3.45899 16
337 1 2.03722 -8.02095 4.68485 15
338 1 4.28981 -7.03066 6.22749 14
339 1 1.91676 -4.50698 0.294921 21
340 1 5.18671 -0.775455 0.647774 21
341 1 2.53257 -1.74107 2.15849 20
342 1 4.68559 -3.60313 2.11048 21
343 1 2.0276 -4.35715 3.76879 21
344 1 5.40014 -1.05197 3.94699 20
345 1 2.46383 -1.33868 5.50723 21
346 1 4.75635 -3.95288 5.50141 18
347 1 1.97689 -3.50589 7.26154 23
348 1 5.35562 -1.4644 7.39704 18
349 1 2.67865 -1.22598 9.0975 17
350 1 4.63198 -4.09637 8.85021 11
351 1 1.3243 -5.44714 9.80964 11
352 1 9.28387 -7.37803 3.17102 6
353 1 7.22316 -3.42872 0.543498 21
354 1 11.5809 -1.67272 2.22836 10
355 1 8.3776 -1.43758 2.30308 22
356 1 9.81742 -4.36914 2.34094 15
357 1 7.37592 -4.55356 3.96411 19
358 1 9.05624 -2.13942 5.13289 11
359 1 7.08033 -4.76263 6.90356 11
360 2 1.90221 -6.60518 0.202933 20
361 2 4.62704 -9.73303 1.78733 11
362 2 4.65806 -6.46656 2.02274 20
363 2 1.93817 -6.22411 3.57387 21
364 2 2.08823 -8.84212 2.96226 15
365 2 4.42013 -8.0471 4.56763 12
366 2 2.28379 -6.99753 6.33628 16
367 2 1.92821 -0.848097 0.549527 20
368 2 5.53734 -4.36834 0.252702 19
369 2 2.64457 -3.67675 1.77452 21
370 2 4.68281 -1.51405 2.33013 21
371 2 1.70958 -0.92844 3.6991 21
372 2 5.47959 -4.2067 3.70863 21
373 2 2.82645 -3.37206 5.33305 22
374 2 4.44191 -1.15645 5.73109 19
375 2 1.6598 -1.41548 7.27636 21
376 2 5.46175 -5.66685 6.34794 14
377 2 2.72612 -4.62963 8.73239 17
378 2 4.22739 -2.13892 9.09852 11
379 2 1.06083 -0.665299 10.3738 13
380 2 9.6763 -6.44687 1.61827 10
381 2 7.70492 -6.42995 3.80413 13
382 2 7.1586 -1.39451 0.605568 20
383 2 8.00054 -3.54396 2.35812 20
384 2 10.3023 -2.10117 3.69004 10
385 2 7.63559 -1.01202 4.1288 15
386 2 8.22755 -3.7248 5.88915 13
387 2 5.74366 -3.4646 7.22233 15
388 1 1.42714 2.0457 -10.0692 13
389 1 2.52658 4.66693 -8.0923 17
390 1 3.75604 1.83417 -7.75088 19
391 1 1.45507 0.8193 -6.38914 22
392 1 5.24094 4.41317 -6.30628 17
393 1 2.44845 3.87584 -4.71757 23
394 1 4.32212 1.89874 -4.71282 21
395 1 1.67493 1.30215 -3.12305 20
396 1 5.30083 4.47991 -2.70318 23
397 1 2.31731 4.01563 -1.27694 20
398 1 4.42207 1.88084 -1.24434 21
399 1 1.46718 7.88524 -8.6315 10
400 1 4.7368 6.69111 -8.38171 7
401 1 1.60586 6.92057 -5.86905 20
402 1 0.164434 9.95484 -6.05768 12
403 1 4.408 6.81909 -4.61781 16
404 1 1.56907 6.27239 -2.74812 22
405 1 2.49491 9.12331 -3.49455 13
406 1 4.60666 7.20397 -1.27189 20
407 1 6.81211 1.9539 -7.04846 13
408 1 8.24737 3.84113 -4.78642 14
409 1 10.1597 2.47522 -2.91528 11
410 1 7.38469 1.17705 -3.22501 19
411 1 8.25689 4.63195 -1.39463 18
412 1 11.2519 3.42465 -0.492395 10
413 1 7.54853 6.71542 -3.20244 10
414 2 0.190109 -0.682343 -10.9567 11
415 2 1.4092 3.81085 -9.37042 13
416 2 5.15216 -1.69364 -7.78227 15
417 2 2.17083 0.771789 -8.32434 19
418 2 3.99667 3.68332 -7.72326 17
419 2 1.70681 4.61018 -6.24984 23
420 2 5.11278 1.23164 -6.55763 17
421 2 2.35341 1.90835 -4.92864 20
422 2 4.39141 3.91774 -4.47232 21
423 2 1.44254 4.2446 -2.98352 23
424 2 5.36189 1.3088 -3.04436 20
425 2 2.49692 1.84458 -1.32494 22
426 2 4.19016 4.04507 -1.16286 21
427 2 2.87696 6.63339 -8.82136 11
428 2 4.68357 6.37131 -6.38929 13
429 2 2.40702 7.35297 -4.16843 19
430 2 1.31505 8.61589 -6.92293 12
431 2 0.91393 9.95455 -4.06266 13
432 2 5.54061 6.41785 -3.06191 17
433 2 2.68599 6.66269 -1.2774 20
434 2 3.81275 9.14014 -1.94796 11
435 2 7.84034 0.328158 -6.54305 13
436 2 6.90447 3.49702 -6.07883 14
437 2 8.91939 1.86469 -4.33933 14
438 2 7.41867 4.39079 -3.16432 17
439 2 11.2807 1.59414 -1.39682 11
440 2 8.07434 1.19486 -1.3246 23
441 2 9.90606 3.93376 -1.72842 14
442 2 8.08707 6.74309 -1.29061 13
443 1 1.90484 1.07722 0.523755 20
444 1 5.36683 4.64017 0.417703 23
445 1 2.71174 3.82899 2.08979 21
446 1 4.63314 1.83906 2.30421 21
447 1 1.56901 1.19343 3.64622 22
448 1 5.55892 4.43764 3.89781 21
449 1 2.53129 3.38846 5.26392 21
450 1 4.61349 1.43765 5.62961 22
451 1 1.76418 0.811898 7.23646 21
452 1 5.22402 4.29471 6.95729 15
453 1 2.23587 3.88328 8.91858 15
454 1 4.71847 1.86101 8.52644 14
455 1 1.6579 1.00662 10.5419 11
456 1 1.96668 6.36339 0.441915 21
457 1 3.56893 9.99726 -0.26299 10
458 1 2.64514 9.43882 2.45607 15
459 1 4.90225 7.50159 1.9473 17
460 1 1.86247 6.47524 3.74395 20
461 1 2.08604 9.21285 5.81625 11
462 1 4.99498 7.52006 4.9852 14
463 1 2.95623 6.37964 6.54892 17
464 1 7.35404 1.84954 0.428556 19
465 1 8.74768 4.49755 1.49588 17
466 1 10.1397 1.53119 1.75496 13
467 1 7.42256 1.09123 3.88666 14
468 1 8.1218 3.7459 5.79225 9
469 1 7.2863 1.40608 7.34498 10
470 1 7.57916 7.3097 0.389666 13
471 1 8.00236 6.79484 3.43522 10
472 2 1.56153 4.33309 0.651418 23
473 2 5.20037 1.21169 0.494862 22
474 2 2.60708 1.99746 2.25783 21
475 2 4.9767 3.88793 2.23895 19
476 2 1.80572 4.44685 3.73704 20
477 2 5.43676 0.847237 3.84544 19
478 2 2.50539 1.4942 5.6071 19
479 2 4.43162 3.50469 5.34812 19
480 2 1.83692 4.57554 6.79838 22
481 2 5.82414 0.404136 7.77909 13
482 2 2.98171 0.831419 9.02267 15
483 2 4.0849 3.72646 8.55035 15
484 2 0.948134 5.52568 9.30199 11
485 2 1.67748 10.1701 0.787293 13
486 2 5.77236 6.54566 0.419445 19
487 2 2.82359 7.3626 2.14219 20
488 2 4.36053 9.37931 1.30486 11
489 2 1.73854 9.99562 4.28333 12
490 2 6.1489 7.39193 3.52823 13
491 2 3.10115 7.37637 4.79531 15
492 2 4.92795 6.12347 6.42177 13
493 2 7.21476 3.9756 0.12597 19
494 2 11.0525 0.0466306 1.15599 13
495 2 8.20683 1.29561 2.10468 17
496 2 10.1918 3.40141 1.20545 12
497 2 7.54137 5.10333 4.32545 13
498 2 8.32838 1.80392 5.64494 10
499 2 6.89682 3.47442 7.23315 12
500 2 8.50616 6.32215 1.68897 12
