ITEM: TIMESTEP
487000
ITEM: NUMBER OF ATOMS
500
ITEM: BOX BOUNDS pp pp pp
-30.0 30.0
-30.0 30.0
-30.0 30.0
ITEM: ATOMS id type x y z Coordination
1 1 -8.39862 0.776061 -3.20382 14
2 1 -1.05926 -5.00515 -3.49068 19
3 1 -6.83018 -3.60925 -7.50414 11
4 1 -3.23489 2.93496 -4.69242 23
5 1 -8.42716 -2.31386 -3.83069 14
6 1 -6.20561 -1.24082 -5.17267 18
7 1 -5.27111 -2.12875 3.40228 17
8 1 -6.31076 -5.77479 6.53891 17
9 1 -9.0429 -6.35416 4.86219 12
10 1 -3.93298 -9.18679 -4.35048 8
11 1 -6.12308 6.62961 -2.86334 16
12 1 6.40141 -7.25657 0.726463 15
13 1 -0.627216 1.83617 -5.60415 18
14 1 -6.64774 -1.65058 -0.352097 17
15 1 -0.575648 -8.50485 -3.59773 14
16 1 -3.57761 -4.30708 4.85226 20
17 1 5.39202 -0.856704 8.12858 9
18 1 10.0647 -2.93332 -6.17014 15
19 1 -2.21547 -8.51286 -1.53129 14
20 1 -3.96164 1.1772 -6.93094 23
21 1 0.74482 9.65061 2.47221 13
22 1 4.56149 -4.75286 -3.03394 15
23 1 -9.7721 -5.99465 2.18652 13
24 1 -2.83509 -0.586193 -9.45954 13
25 1 -6.10868 3.75167 -4.57383 20
26 1 9.35596 6.32174 -7.09599 7
27 1 -8.99857 -1.24789 -7.10299 10
28 1 -0.414373 6.26368 -0.931713 18
29 1 1.15262 -0.55097 4.4758 17
30 1 5.02035 -0.275758 0.440311 17
31 1 -3.66039 3.88199 2.7394 19
32 1 -6.47114 3.4929 4.38142 18
33 2 -5.00816 -2.93309 -8.59773 14
34 2 3.64198 -0.324831 -4.9527 17
35 2 -5.85187 -5.03586 -7.3938 12
36 2 2.50587 4.33041 7.60222 14
37 2 -6.7539 1.91915 -3.32286 19
38 2 -8.36206 -5.01956 5.89537 14
39 2 -6.46108 3.31469 -0.213926 16
40 2 -6.16511 -9.93803 0.831379 12
41 2 -8.5831 -7.48233 3.06799 12
42 2 -10.5341 -5.63627 4.22196 6
43 2 5.06373 -5.23737 -1.074 17
44 2 -6.39932 -3.40192 2.27771 16
45 2 5.67326 5.1359 -1.65422 21
46 2 -2.47406 1.21101 -4.65037 17
47 2 -1.34977 -7.59183 3.70292 17
48 2 -3.71111 -9.67047 3.07707 13
49 2 -3.17166 -5.88737 -2.32442 20
50 2 0.090581 -6.26502 1.39279 20
51 2 -6.29969 -1.8351 -3.12922 19
52 2 -1.91338 6.97458 1.50341 17
53 2 -8.00241 -0.410472 -1.77616 13
54 2 -2.61376 1.52851 -10.5172 9
55 2 -1.31384 0.124545 -8.53346 17
56 2 9.07054 -1.29654 -7.69855 14
57 2 -6.94796 5.19845 -6.97561 12
58 2 -9.3599 -3.97601 -3.61624 11
59 2 -3.13445 1.1309 1.8328 18
60 2 -5.53214 2.43797 -8.26906 14
61 2 -4.86281 -1.46773 -1.35802 19
62 2 -4.4073 -2.43027 -5.45009 17
63 2 -4.04243 -7.4241 -6.04292 13
64 2 4.94484 0.666947 6.94205 14
65 1 -7.44827 -1.03238 2.5931 15
66 1 5.98529 -7.85271 -2.81485 15
67 1 -4.49158 -2.90616 7.3252 15
68 1 -5.0814 -5.03034 9.19906 8
69 1 4.82941 -4.40154 -8.46534 13
70 1 -7.93383 -5.45146 -0.450373 17
71 1 -0.247282 -7.86593 7.95381 10
72 1 -1.6504 -5.5137 2.05896 17
73 1 -6.79283 -4.1373 4.05738 19
74 1 -2.99204 -3.77899 -6.03024 21
75 1 -0.507259 -2.01782 9.47031 14
76 1 -3.93071 -0.041148 0.152882 17
77 1 2.20434 -0.450865 11.8945 8
78 1 3.81812 1.72526 -2.43096 18
79 1 -7.20998 -8.3849 -4.1477 14
80 1 -7.68546 -8.38019 1.40865 15
81 1 -5.12373 -6.10416 -1.84431 17
82 1 2.22609 -8.52574 4.60866 11
83 1 4.58533 -5.98172 2.78779 18
84 1 -4.68714 0.690145 6.7861 18
85 1 -0.787271 -6.10135 5.07737 20
86 1 0.741265 -3.51113 -1.1905 19
87 1 -2.11813 2.94544 8.43514 19
88 1 2.07552 4.34298 2.57915 18
89 1 -2.78297 0.00206829 8.49124 19
90 1 -1.71467 4.75489 11.2929 10
91 1 -2.43569 -8.74047 4.73652 15
92 1 -2.51907 2.19652 5.5223 21
93 1 -2.41392 -3.02024 1.39264 18
94 1 5.01813 -6.48839 5.43747 10
95 1 -0.482145 7.54408 5.54444 13
96 1 3.80227 -3.65366 0.456021 20
97 1 -0.532302 -3.70634 4.13399 18
98 1 -1.49824 -4.90988 9.23429 10
99 1 0.564136 -1.98263 1.68644 20
100 2 -9.82175 -4.34138 -0.469038 10
101 2 -2.07183 0.168676 10.1846 13
102 2 -3.26142 0.598917 4.70303 18
103 2 -8.56183 -1.78433 7.18715 10
104 2 -3.38703 -5.22111 0.784985 18
105 2 -5.35181 4.78285 -2.78081 17
106 2 -4.78144 -0.922161 8.02032 15
107 2 -2.79369 -8.88252 0.167748 15
108 2 -8.16402 -1.28884 0.848537 13
109 2 -2.13696 3.52561 1.77847 19
110 2 -5.81273 -4.3561 -1.04352 15
111 2 -3.05828 1.73794 7.40932 18
112 2 2.7523 -4.57489 7.59039 12
113 2 0.605435 -5.00312 5.67202 16
114 2 -5.15965 -5.2587 4.85107 20
115 2 1.85769 -1.63979 -3.07611 18
116 2 -5.65698 -9.11465 -3.5313 11
117 2 -6.97065 -10.0569 4.36932 11
118 2 0.222044 -2.37914 5.30334 20
119 2 0.802739 -1.0087 10.8314 10
120 2 -3.13357 -2.79741 6.05009 16
121 2 8.08979 -7.68838 -2.70004 11
122 2 -4.96352 5.39277 3.0841 16
123 2 -2.55139 4.45338 7.47601 18
124 2 -6.10465 -7.24469 -0.560267 18
125 2 -2.06885 -0.600023 -1.94214 16
126 2 -0.986692 -0.965946 7.84014 15
127 2 2.97522 -7.75818 -2.4921 19
128 2 -1.60352 -7.42749 6.68504 13
129 2 5.68827 -4.90629 5.97616 14
130 2 6.04339 -3.95256 -3.91597 18
131 2 3.48653 -7.32708 5.31655 10
132 2 -0.716003 3.96969 9.54044 12
133 2 3.97751 2.79486 9.55859 10
134 2 -7.05161 -2.35293 4.68459 18
135 2 5.59167 -8.14286 -1.01544 15
136 1 -3.46337 -3.93554 -9.48783 12
137 1 -9.51896 -5.79397 -4.37059 9
138 1 -3.50276 4.75187 -2.39513 18
139 1 -8.48525 3.98605 0.114987 12
140 1 -4.75955 0.783685 3.36275 16
141 1 -8.36651 -0.959153 5.51737 11
142 1 -10.6011 -4.53599 -2.16381 9
143 1 -3.54068 6.23439 4.12387 20
144 1 -4.51187 -7.52468 0.821371 18
145 1 4.07543 9.45262 1.88032 11
146 1 -9.77987 6.00624 2.71085 10
147 1 -0.397384 5.35412 -4.42015 21
148 1 -4.56768 2.01382 -9.7559 11
149 1 -6.52194 5.54358 2.34927 18
150 1 0.418539 -3.67758 -6.56587 23
151 1 -2.34435 1.00454 -2.78667 20
152 1 -9.73821 1.57461 -5.83549 10
153 1 2.4471 -1.03641 -8.18509 18
154 1 -6.89043 1.41927 -7.16579 19
155 1 2.09056 -0.993244 -5.10578 18
156 1 -1.81023 7.76013 -3.43431 16
157 1 -1.47675 8.59844 2.78586 13
158 1 -0.186331 0.785109 10.6363 15
159 1 -0.989355 1.87197 -9.67641 10
160 1 -5.18749 4.15687 -7.64441 13
161 1 8.23353 8.53033 -3.56414 14
162 1 -6.88473 5.02924 9.08456 11
163 1 4.80379 8.85872 -4.11922 14
164 1 2.82991 -3.19547 -10.3364 7
165 1 5.3432 -0.213353 -4.584 19
166 1 -8.66713 4.50439 -6.83676 10
167 1 7.40357 6.06185 -1.79048 21
168 2 -7.33254 -0.386465 -7.88865 14
169 2 -10.37 -6.38973 -2.82628 10
170 2 -8.80464 -0.189951 -5.40244 14
171 2 -2.11411 -3.31102 -2.61515 19
172 2 -3.22208 3.61088 4.6631 22
173 2 -9.06813 5.24091 -1.45007 11
174 2 -8.74086 -7.06209 0.233131 13
175 2 -6.90324 -7.82487 5.58399 14
176 2 -8.91313 2.02756 0.126791 10
177 2 -3.15995 -5.50926 -8.79154 11
178 2 -0.355272 9.64342 0.816537 15
179 2 -7.66526 5.07644 -4.14356 14
180 2 -1.65596 8.21221 -1.5293 12
181 2 1.32862 -2.42972 -9.76653 12
182 2 2.25137 4.25553 -8.67752 12
183 2 1.04735 9.66481 -2.41975 12
184 2 -4.03791 0.963819 -1.84601 22
185 2 -9.71751 -3.39907 2.69822 13
186 2 10.2848 -3.76837 -7.89319 9
187 2 -5.50093 -0.549786 1.89714 19
188 2 -4.78006 3.11705 -5.93827 18
189 2 -6.75615 7.44187 -1.39546 9
190 2 -0.271633 4.73523 3.32104 20
191 2 -4.59129 6.48515 5.92082 14
192 2 0.23627 3.06906 6.47525 20
193 2 -1.70124 3.77696 -4.53618 18
194 2 -8.93572 2.57069 -7.16854 9
195 2 3.64833 5.83614 -0.0614541 18
196 2 -2.64671 5.99113 -3.64902 19
197 2 0.557306 5.06413 -2.79376 17
198 2 -8.3219 3.67927 5.01925 13
199 2 6.1047 0.489275 -8.33332 12
200 2 4.70065 8.63117 -2.15911 16
201 2 9.55433 8.95836 -2.25888 12
202 1 1.3226 8.98872 -4.35964 13
203 1 -9.55642 -3.00722 0.841216 11
204 1 -8.89619 1.67349 4.61198 10
205 1 -8.97024 0.204358 -0.193776 10
206 1 -3.31843 8.07485 5.8272 11
207 1 -1.27096 5.19516 1.83709 19
208 1 -6.76381 1.71357 11.0891 8
209 1 -11.1942 -3.79665 3.98839 6
210 1 -1.97046 2.61515 0.0190256 19
211 1 -8.64716 5.76765 5.6081 10
212 1 -4.14823 3.98563 6.55828 18
213 1 -3.94254 6.3003 -5.67441 21
214 1 -0.537096 7.3772 -6.68591 12
215 1 -5.61964 7.49246 7.20863 11
216 1 -4.78056 3.36224 11.3917 10
217 1 -0.340889 9.78147 -1.24262 11
218 1 -4.75856 9.2007 -4.85772 6
219 1 9.53653 5.63265 -3.89137 16
220 1 -7.87645 -3.59395 7.22358 12
221 1 -5.60498 2.99602 -1.94351 16
222 1 -5.54768 -0.788792 9.85383 10
223 1 -5.13617 -3.32032 -2.69634 19
224 1 1.42738 -4.85351 8.79515 10
225 1 4.08639 2.45098 11.5293 5
226 1 -8.28765 0.00296788 8.16268 11
227 1 7.67285 6.32314 3.1326 14
228 1 -5.45161 -10.3461 2.79155 12
229 1 -7.9304 2.85153 6.86432 13
230 1 -7.00262 6.4658 -5.60176 11
231 1 10.6307 6.75958 1.6367 13
232 1 4.76432 6.89687 -1.51168 20
233 1 -5.41254 2.51659 1.15674 18
234 1 -1.74122 4.1997 -7.60778 15
235 1 -0.793598 -1.85875 -3.40025 20
236 1 6.18179 9.76013 -1.6762 13
237 1 -0.28683 2.4472 2.65811 20
238 1 7.22935 8.12 1.20282 14
239 1 -0.303434 4.33221 5.03907 20
240 2 -8.39827 4.89773 1.92498 17
241 2 -8.18104 0.153935 3.85803 13
242 2 -5.96378 -4.34969 7.80169 15
243 2 -8.87516 6.90522 4.03213 8
244 2 -8.08773 4.82785 7.63864 9
245 2 -0.414942 8.06042 -5.08967 14
246 2 -2.94196 8.22723 3.86307 14
247 2 -0.452977 -6.37464 8.93405 13
248 2 -5.22673 0.28982 -5.8206 18
249 2 -8.45214 0.93821 6.46233 12
250 2 -7.22649 0.338829 9.73082 10
251 2 -2.4455 6.38894 10.0445 10
252 2 -5.36832 7.60628 -5.58892 10
253 2 -3.52652 3.40017 -1.03945 18
254 2 -3.45514 8.91966 -3.47759 10
255 2 -4.28337 0.2465 -8.63611 14
256 2 0.96603 -0.98713 -0.204722 18
257 2 -1.73674 -0.761977 0.754339 18
258 2 -0.848776 -3.05806 2.45851 18
259 2 -4.54792 9.20714 7.0974 6
260 2 -5.9822 -7.64319 2.22152 19
261 2 5.83234 -2.67324 7.73097 10
262 2 -4.18111 -8.09843 5.48619 16
263 2 1.20472 7.04372 -1.14442 19
264 2 3.12484 8.66643 -5.10234 12
265 2 5.93092 3.52903 6.93968 11
266 2 -4.97475 -6.55649 7.91643 12
267 2 -6.5131 3.49964 10.3963 11
268 2 4.86584 4.22891 1.96011 15
269 2 5.12946 5.62295 -9.02768 8
270 2 2.677 0.943006 -8.66366 14
271 2 -6.47593 7.94844 2.04156 14
272 2 11.1014 6.13718 -2.50352 14
273 2 -1.72587 7.35928 6.84246 13
274 2 -4.04058 8.75264 0.600577 10
275 2 -5.50182 6.57402 9.14633 13
276 2 -0.593497 4.25292 -0.592251 19
277 2 0.677018 1.32649 8.92708 19
278 1 2.83803 -1.13696 -1.3094 16
279 1 0.976416 -5.93704 -5.41861 16
280 1 -6.81227 -5.40073 -5.35145 15
281 1 0.597777 -6.58629 -0.809907 19
282 1 -0.0312468 -8.20039 2.37187 16
283 1 6.93641 -4.6154 -1.13677 22
284 1 1.5522 2.51312 -8.19075 17
285 1 -3.33531 -0.671154 -4.78611 20
286 1 -1.8561 -0.202343 2.92688 19
287 1 -3.87438 -6.45866 -4.12408 18
288 1 2.56871 4.95156 -2.22271 21
289 1 6.34367 -1.28116 -1.94563 16
290 1 2.10563 -6.41018 6.44389 15
291 1 -0.45546 -3.36607 -9.43781 15
292 1 -3.04139 -2.14705 -1.51712 21
293 1 -0.561232 -0.119558 -0.908218 19
294 1 2.20184 -6.09902 -8.14296 11
295 1 -9.60672 -7.63049 -1.42606 13
296 1 9.94708 4.16365 3.71967 11
297 1 4.51246 1.11665 -8.4998 13
298 1 1.64815 -5.27614 1.33917 18
299 1 8.19955 -7.75331 -1.00404 9
300 1 10.9322 7.79939 -1.62015 12
301 1 2.05025 -3.96717 -3.46541 17
302 1 -5.78257 -1.19701 -8.59964 16
303 1 -0.605987 -0.876538 -7.0119 20
304 1 11.1998 0.375095 -0.852277 9
305 1 1.57503 2.74471 -0.394581 15
306 1 -1.63013 -5.83454 -7.47574 13
307 2 -2.43702 -2.42051 -10.1554 12
308 2 1.05761 1.05109 -5.19957 19
309 2 3.51442 -2.40341 5.94959 19
310 2 -7.91131 -8.37452 -2.22543 13
311 2 -2.3981 -8.90771 -3.34906 11
312 2 -9.25876 2.24176 -4.10891 11
313 2 9.46801 3.77606 -4.65238 17
314 2 4.92347 -6.62555 -3.70452 17
315 2 6.53104 -3.11379 -8.55936 15
316 2 7.25551 9.44857 -0.203272 13
317 2 4.30344 -1.92749 -0.108155 18
318 2 -7.62814 -2.64393 -6.04634 14
319 2 2.93311 -4.69941 -9.10316 13
320 2 1.93694 6.75313 -6.89719 13
321 2 0.67362 -7.58927 -4.75444 13
322 2 3.53923 -4.29059 -4.75858 22
323 2 8.19443 -6.51809 0.471107 11
324 2 1.20166 -5.20432 -2.27267 22
325 2 11.1098 -2.38002 -2.75737 10
326 2 8.59205 -6.27878 -6.25789 9
327 2 6.97077 -0.619517 0.578674 18
328 2 3.7554 6.20036 -3.17467 20
329 2 -3.43487 4.92469 -6.79732 16
330 2 10.3406 0.49453 -2.8316 14
331 1 -2.48753 -4.64194 -1.01861 22
332 1 6.15758 -3.5192 2.54405 17
333 1 -2.61645 -10.351 1.54702 11
334 1 2.58593 -7.97221 -4.36226 13
335 1 -8.57024 -9.17712 3.93861 10
336 1 -5.12239 -4.39416 1.15094 19
337 1 3.08859 -8.36082 1.35989 16
338 1 -3.44689 -7.1601 6.9972 19
339 1 8.8913 -2.84561 -9.01697 9
340 1 7.6982 0.153253 -7.02654 19
341 1 9.84471 -5.61902 -7.50439 7
342 1 9.35201 -6.85277 -3.80815 8
343 1 -5.80569 0.151197 -2.45658 19
344 1 4.40017 8.32077 4.12869 11
345 1 -1.54753 -1.61308 6.13595 19
346 1 5.77084 -0.317604 3.42659 20
347 1 3.78242 -9.05092 -1.26471 12
348 1 4.48992 -3.87155 7.22732 13
349 1 4.54424 4.22094 8.33726 10
350 1 2.62816 5.47567 6.00759 16
351 1 0.970034 3.67743 8.61698 16
352 1 8.36189 -2.03165 0.389914 14
353 1 3.22427 6.22629 -5.1667 16
354 1 2.68067 1.26758 8.89811 18
355 1 -6.45112 -9.17432 -1.22659 12
356 1 11.023 2.84048 1.05412 14
357 1 3.40266 -6.18746 -1.21346 21
358 1 6.03946 2.56924 2.17804 18
359 1 -5.99077 -9.32037 6.10318 11
360 2 -0.649754 -10.1036 1.51876 11
361 2 5.95709 -1.4842 -6.06075 20
362 2 -5.63392 2.42195 3.03065 19
363 2 -3.92061 -3.40847 2.50626 19
364 2 2.60121 -6.70657 0.432026 20
365 2 0.248607 -3.90721 -4.42373 18
366 2 -5.60734 -5.29645 -3.65006 18
367 2 2.66676 4.203 4.5516 16
368 2 2.39035 -9.57443 0.118006 13
369 2 3.69075 -2.45595 -8.12999 19
370 2 1.70282 -8.40608 2.96072 15
371 2 -5.21712 0.790062 11.0343 10
372 2 3.49369 -0.333808 8.45598 14
373 2 1.05192 -8.08354 6.45275 11
374 2 4.79979 -7.66989 2.11815 15
375 2 11.1138 2.65408 -0.883316 12
376 2 -3.38477 -4.61786 8.95519 11
377 2 -5.81473 2.62707 6.2335 16
378 2 -0.0964319 0.762574 3.55578 20
379 2 2.83958 1.15916 11.7434 8
380 2 2.15265 -1.04368 2.66688 19
381 2 1.00092 -1.89605 -6.86137 18
382 2 -2.21172 -5.56228 -5.46622 19
383 2 0.0375461 -3.76652 8.46995 13
384 2 9.48774 -5.15954 -3.05883 13
385 2 2.27736 6.20219 2.28008 20
386 2 7.11462 3.07796 0.465038 18
387 2 1.72297 -3.35973 0.354156 19
388 1 7.06177 -5.25215 -5.62556 19
389 1 4.00782 4.1989 -9.77427 9
390 1 10.7618 -0.341231 -7.36006 10
391 1 2.39495 2.29732 -4.73926 16
392 1 11.5335 -0.774819 -3.93596 9
393 1 1.41069 5.14494 -7.11462 16
394 1 6.95947 -2.70042 -4.97914 19
395 1 5.92298 7.13536 -8.1081 8
396 1 8.5354 0.400106 -3.90971 19
397 1 2.04327 2.66973 5.55753 20
398 1 9.48847 2.3586 -5.79673 11
399 1 -8.89431 4.07803 -3.1526 16
400 1 6.46473 6.22903 -5.05416 20
401 1 4.3713 -6.15321 -5.43589 15
402 1 4.53731 3.74765 -6.47032 17
403 1 3.3472 8.06729 -7.23263 10
404 1 7.06585 4.12703 5.54051 12
405 1 8.86629 1.58026 3.74697 12
406 1 8.56597 4.58845 0.431691 19
407 1 -5.8933 8.19374 0.0158044 10
408 1 4.61139 5.06849 3.61011 16
409 1 9.6995 -3.40244 -2.90513 14
410 1 -4.75539 -6.49117 -7.50112 11
411 1 8.45179 0.48704 1.35995 17
412 1 8.42301 -1.80739 3.64342 14
413 1 6.56312 2.02953 -1.23789 19
414 2 10.7726 4.64841 0.716162 14
415 2 -0.833357 2.48368 -7.74187 17
416 2 9.77909 -0.294264 0.277501 13
417 2 5.04315 0.651149 -1.27067 14
418 2 5.33938 2.43789 -3.3273 18
419 2 0.705002 -5.50824 -7.24046 13
420 2 -0.417261 5.27937 -6.69937 15
421 2 2.76518 3.96628 -5.43069 20
422 2 6.56166 9.65812 -3.6644 10
423 2 5.90654 4.46812 -5.16965 16
424 2 2.80301 -6.81715 -6.34666 13
425 2 3.52056 -4.18139 2.41397 15
426 2 -1.46141 -1.32625 -5.22272 19
427 2 7.5675 6.5423 -7.2018 9
428 2 -1.24705 -3.45341 -7.69722 17
429 2 7.97499 1.95087 -2.64783 17
430 2 4.8315 6.96891 -6.43912 16
431 2 5.34764 -5.26468 -6.99951 17
432 2 4.71616 0.841678 2.31254 15
433 2 -0.186003 1.82919 -1.44191 16
434 2 10.2537 8.30799 0.432118 10
435 2 10.0842 6.65781 -5.20196 10
436 2 6.83364 -0.804635 -3.71838 19
437 2 10.3826 1.43982 -6.86314 9
438 2 1.46187 2.32475 1.67239 17
439 2 7.80875 -2.84109 -1.37969 15
440 2 8.22407 -3.61152 -5.87316 18
441 2 7.57007 -3.136 4.60676 11
442 2 6.47813 1.21779 4.44522 13
443 1 5.67654 -1.53662 -8.05847 17
444 1 -8.41559 8.45747 2.45518 9
445 1 -8.83033 6.95322 -0.602676 11
446 1 5.37464 5.2722 0.489162 20
447 1 6.23305 1.85318 6.19149 10
448 1 6.94847 -3.60196 6.22773 10
449 1 -3.43011 1.03996 11.244 10
450 1 0.781664 -10.4426 -0.0498374 11
451 1 1.14683 -3.471 6.82575 18
452 1 0.332788 0.851387 6.93609 19
453 1 3.43496 -0.65703 6.48462 17
454 1 2.55382 0.790894 2.06369 18
455 1 -5.63452 -7.20227 4.047 20
456 1 2.14113 6.76809 0.647277 18
457 1 2.46303 8.76615 -1.37901 17
458 1 -4.25697 6.40365 10.7041 10
459 1 9.41683 9.76797 -0.295319 8
460 1 7.14514 2.8038 -4.32972 19
461 1 -4.45003 8.28213 2.68379 13
462 1 5.22119 4.66219 -3.38043 21
463 1 -1.93382 6.05584 8.28258 13
464 1 9.77244 2.67177 -2.74877 15
465 1 11.0459 4.51347 -1.32714 12
466 1 8.01619 -5.05839 1.69478 12
467 1 4.11407 -2.70212 -5.95341 22
468 1 -0.474735 3.51023 -2.47351 20
469 1 1.5167 7.25392 3.84791 17
470 1 -2.14717 8.53418 0.204056 15
471 1 3.43439 -2.63536 3.80681 18
472 2 -1.97705 -5.0524 3.9962 17
473 2 11.1433 -1.33784 -5.68205 12
474 2 9.71338 2.63348 2.28469 13
475 2 5.7049 8.27623 2.59596 12
476 2 8.60939 3.3778 4.56889 12
477 2 7.43103 6.31673 0.749096 18
478 2 3.60543 6.79287 4.88853 12
479 2 0.854734 5.89624 5.20735 14
480 2 -7.88263 -6.83303 -4.81258 10
481 2 8.08289 -3.0967 1.87089 15
482 2 -9.34562 7.54965 1.0898 11
483 2 0.0274353 8.35069 3.6736 14
484 2 1.83486 0.683814 5.91362 16
485 2 9.23523 5.78471 2.65974 13
486 2 4.62998 2.99986 -8.2267 10
487 2 2.63699 8.92232 3.14436 11
488 2 6.54763 5.42308 4.27667 14
489 2 3.2481 8.88751 0.382766 15
490 2 2.58544 2.97925 -2.18737 16
491 2 -2.71861 2.87517 10.992 15
492 2 -3.77349 5.07697 11.9914 7
493 2 7.58608 1.26631 -5.54889 17
494 2 5.19289 -2.17679 3.49387 20
495 2 8.84938 -0.128425 3.36572 12
496 2 6.32338 -5.38277 2.17908 15
497 2 7.53546 6.79077 -3.60088 21
498 2 -0.349542 -7.81039 -1.88355 16
499 2 -0.934205 -3.94016 0.0199364 20
500 2 8.78437 4.85641 -1.32333 20
