ITEM: TIMESTEP
31000
ITEM: NUMBER OF ATOMS
1500
ITEM: BOX BOUNDS pp pp pp
-30.0 30.0
-30.0 30.0
-30.0 30.0
ITEM: ATOMS id type x y z Coordination
1 1 3.63706 -18.0514 -5.98419 12
2 1 11.319 -15.2923 8.22532 22
3 1 -6.14559 0.55967 -8.57358 8
4 1 -6.63343 -3.18318 -6.60564 14
5 1 8.4028 -13.2096 16.4776 11
6 1 -8.66581 -5.94283 -7.86094 10
7 1 1.46834 -1.86145 -0.803163 20
8 1 0.297877 -17.7692 1.30392 18
9 1 -9.09753 -12.8662 8.73998 11
10 1 9.82148 2.39835 14.7694 14
11 1 9.0516 -8.2314 9.48498 20
12 1 5.59969 -0.498004 11.7108 18
13 1 7.09176 -11.4337 4.14286 20
14 1 3.33735 2.57919 -4.3248 22
15 1 10.8457 -6.23185 16.0925 14
16 1 16.9177 -0.464322 11.6341 17
17 1 3.35402 5.17258 -8.97304 12
18 1 7.51986 0.926582 -9.77941 22
19 1 -2.41427 -5.85928 1.97847 17
20 1 -2.06166 -6.11921 -8.83873 22
21 1 10.564 -21.8034 4.96686 8
22 1 6.69423 -7.33005 11.6956 22
23 1 12.3762 -12.5035 7.63124 18
24 1 0.748298 -18.4242 -3.7276 13
25 1 8.79029 -9.74139 -3.95172 21
26 1 4.2204 -8.29578 -11.6657 18
27 1 5.90755 -4.00045 15.0932 14
28 1 7.494 -17.6802 11.3431 17
29 1 15.0691 -10.1517 13.8942 11
30 1 -2.61987 -6.68246 5.12103 13
31 1 -7.50331 -9.33705 0.542369 20
32 1 5.44231 5.38413 -5.0205 22
33 1 7.82704 -2.85739 -6.59728 22
34 1 8.11747 -7.9227 -11.2217 19
35 1 2.8766 -7.20237 15.371 15
36 1 -1.66448 0.495638 1.71942 23
37 1 4.15905 10.6422 7.05926 9
38 1 -2.02806 0.366112 -3.62507 20
39 1 3.2145 8.3581 -0.479952 14
40 1 8.38777 -15.7083 0.505472 18
41 1 8.43732 -15.0094 -4.95555 19
42 1 -5.86171 -5.46185 9.54633 17
43 1 -4.68737 -12.4467 -11.2108 10
44 1 13.8515 -5.84027 8.53521 16
45 1 -3.32713 1.1435 -0.778645 21
46 1 -2.76211 -16.3674 9.22866 10
47 1 -6.23728 2.44955 -6.03291 13
48 1 11.3672 -1.23207 -4.99062 17
49 1 10.2043 -2.67327 10.725 19
50 1 12.3651 -1.78935 12.9349 18
51 1 11.5723 -20.7044 -0.809465 9
52 1 10.9467 0.0909459 17.9801 10
53 1 13.133 -6.23128 -5.62986 20
54 1 15.4881 -15.9629 4.04996 11
55 1 -5.85257 -6.86953 4.21041 16
56 1 12.6343 -9.66062 15.581 15
57 1 -1.22195 -18.4054 6.98579 13
58 1 -0.553108 -8.47397 1.2995 17
59 1 17.8101 -0.654523 7.74047 20
60 1 13.7176 -8.88534 -0.597646 23
61 1 9.47782 3.3358 11.7345 20
62 1 12.3616 -7.58385 10.0539 16
63 1 -9.85783 -11.8911 1.85941 19
64 1 -4.71198 -7.86617 -7.63408 20
65 1 -3.23834 3.58209 1.24619 19
66 1 2.33601 -5.07582 -5.9845 21
67 1 12.7326 -6.05886 -1.42922 21
68 1 10.7263 -6.28931 -3.60102 21
69 1 12.4871 -9.16196 7.62761 20
70 1 13.5343 -14.4571 5.84283 19
71 1 -5.05341 3.94151 -1.34571 15
72 1 -5.19284 6.37435 0.82141 11
73 1 2.67797 4.48019 10.8339 11
74 1 0.846423 -11.2721 8.39092 20
75 1 16.384 -9.78848 -4.18671 19
76 1 -0.927205 1.5939 7.66 20
77 1 12.6878 -12.1779 -6.05627 17
78 1 4.42497 2.14399 -9.26053 17
79 1 -0.021278 -7.65756 -10.5391 20
80 1 9.22043 5.06268 0.334583 22
81 1 1.46326 0.048949 -3.90943 24
82 1 5.39002 9.22281 -1.86316 16
83 1 5.52815 3.99475 3.6381 19
84 1 7.17352 -11.2334 8.5016 19
85 1 4.03568 -11.8054 -4.62742 19
86 1 6.96328 -12.236 -4.1884 22
87 1 3.47163 -0.987226 9.75053 21
88 1 -3.9237 -10.5748 -2.54453 19
89 1 13.5387 -13.4256 2.84427 23
90 1 -3.11887 -13.751 0.442298 19
91 1 9.46138 -8.12465 13.8346 19
92 1 -3.05167 -1.14432 4.59727 18
93 1 13.0545 -2.96817 -6.81437 18
94 1 11.7978 2.38144 -7.31899 19
95 1 16.2384 -12.5091 3.36312 16
96 1 7.15 -21.3151 4.21754 13
97 1 -6.82919 -16.1624 -2.82029 11
98 1 -4.11444 -9.21278 6.08506 17
99 1 12.3737 9.00863 9.05072 7
100 1 11.4463 -0.96029 1.10538 19
101 1 1.89386 4.80081 7.61363 17
102 1 1.79714 3.8173 -1.33698 20
103 1 1.40701 -8.80928 -12.9879 11
104 1 13.3959 -4.3688 14.7057 17
105 1 6.70053 2.47857 -4.09554 22
106 1 19.1793 -10.6357 -5.22151 12
107 1 -1.78963 3.83465 -2.01301 21
108 1 3.03422 7.27167 7.98089 14
109 1 15.7779 -4.34562 -12.4872 7
110 1 7.8873 -14.4974 9.83938 24
111 1 -4.65965 -2.31786 -3.95084 18
112 1 12.7464 4.2765 0.68926 19
113 1 15.6461 1.86521 3.6843 23
114 1 2.33702 3.86459 3.87427 21
115 1 1.28207 -10.3623 -6.46803 21
116 1 9.94743 7.2032 8.29775 17
117 1 -9.59293 -8.98179 -2.36724 15
118 1 18.7027 -11.0178 2.15132 15
119 1 8.11786 3.74113 8.8211 19
120 1 1.90527 5.54856 -4.6418 20
121 1 8.01859 -9.55516 16.4743 13
122 1 -1.4017 -16.2656 -0.762509 21
123 1 -3.51654 -11.9765 5.48811 20
124 1 9.12899 -18.9694 -3.16202 12
125 1 0.166575 7.42138 -6.75491 9
126 1 5.35673 3.41316 -1.30067 20
127 1 18.714 4.94059 -0.881503 10
128 1 12.3798 -17.4124 13.115 12
129 1 -0.231123 -2.68992 1.58824 20
130 1 10.457 10.4356 1.07042 14
131 1 7.4257 -1.88199 9.45617 21
132 1 5.84472 11.956 5.27353 9
133 1 0.551391 -7.36804 -7.41389 17
134 1 14.1567 -11.6533 -3.56155 22
135 1 -0.772486 -12.5317 10.7528 18
136 1 -7.88784 -5.85978 7.11791 15
137 1 -2.44614 -12.977 8.24401 21
138 1 -8.66778 -4.55636 2.37805 17
139 1 2.54383 -20.4516 1.896 12
140 1 2.44856 -11.0364 -1.19804 20
141 1 9.24105 -19.6346 -0.0377707 18
142 1 0.896912 8.75526 6.58696 10
143 1 -10.2684 -12.4112 5.13328 12
144 1 -2.4672 -5.33678 -3.38126 20
145 1 0.802774 -0.0833518 -8.75181 17
146 1 -9.23798 -11.7332 -6.95806 12
147 1 -9.89022 -7.09423 12.7998 5
148 1 2.18268 -11.2249 12.1978 16
149 1 4.50818 -20.1685 4.71359 13
150 1 19.1501 -4.78695 1.80487 22
151 1 12.7665 -4.17879 -3.66312 19
152 1 15.8978 2.55247 14.5055 12
153 1 5.92236 -2.99671 -8.85994 23
154 1 13.1391 -8.86706 -8.38797 20
155 1 -3.8139 -8.50175 -4.70152 19
156 1 -0.0671042 5.97125 -3.09644 14
157 1 -4.57852 7.14887 4.23829 10
158 1 10.1088 -11.3426 14.6023 21
159 1 2.40155 -12.8682 -7.89492 16
160 1 2.7649 8.55284 -8.75357 5
161 1 9.12198 1.13996 -5.48491 19
162 1 -0.0852999 -5.0775 3.36997 18
163 1 0.800887 2.24945 10.7544 15
164 1 5.94944 -13.6375 -6.96187 18
165 1 -2.06102 -15.5065 6.36423 19
166 1 13.6209 -17.6564 -3.18127 13
167 1 10.139 -12.5656 1.60964 24
168 1 11.8241 8.86406 -2.53956 11
169 1 6.74498 2.47603 1.20251 21
170 1 -8.41065 -7.56502 3.05253 19
171 1 7.01037 2.44044 13.5549 15
172 1 21.3948 -3.82495 1.29271 12
173 1 7.02885 -3.88238 12.429 23
174 1 -5.78433 -1.00316 5.26167 21
175 1 -8.72548 -11.8844 -1.23678 17
176 1 16.6778 1.48283 -8.21924 11
177 1 11.0762 -9.1865 18.3295 7
178 1 11.9473 3.49418 -4.3681 18
179 1 9.84322 -14.0583 -1.84741 20
180 1 -1.91545 -3.97509 -13.3443 9
181 1 17.0034 -5.02331 -2.57529 20
182 1 -1.45158 -4.95063 7.67106 20
183 1 9.27982 -21.4344 1.87032 13
184 1 -6.87765 -10.2058 -3.86592 17
185 1 6.41477 9.57688 -4.4103 12
186 1 7.15275 -2.92548 -12.2918 15
187 1 14.6888 0.499653 17.1434 11
188 1 19.9573 -1.03578 1.35453 19
189 1 -0.468445 -10.3764 4.08145 15
190 1 12.8958 -6.08256 -11.9276 12
191 1 -1.12218 -17.6521 4.00122 15
192 1 -4.16583 -5.07053 -5.88304 23
193 1 -5.71955 -9.52611 -10.2479 18
194 1 18.3135 -6.08407 14.6356 11
195 1 5.80499 -12.5037 11.4231 22
196 1 -0.972855 -12.835 -7.346 21
197 1 8.22605 -9.49571 6.53273 19
198 1 7.08135 6.05001 -8.02052 20
199 1 12.4559 2.5949 4.54153 19
200 1 -5.67507 -11.0803 6.91182 18
201 1 7.97778 6.42577 3.55658 18
202 1 -3.10879 -6.55703 14.3655 15
203 1 -3.17845 -11.6152 -9.12949 19
204 1 -1.84984 -2.10002 -5.86281 23
205 1 1.61212 -13.0116 -4.88298 19
206 1 -2.22936 -20.2138 1.67201 9
207 1 12.1027 -4.46899 10.5608 19
208 1 2.21227 -9.50848 -3.39643 19
209 1 -4.00663 -11.2569 10.4699 19
210 1 6.43576 -20.0758 -1.7055 15
211 1 0.735904 -14.3792 7.3474 20
212 1 -1.89219 4.83111 3.17775 20
213 1 5.93811 1.12687 -13.7104 8
214 1 1.44261 -6.07269 -13.141 13
215 1 3.97147 -16.634 3.12623 20
216 1 2.29954 -15.5087 -8.07252 13
217 1 -2.81273 2.55421 -7.39339 14
218 1 16.2803 -1.0603 4.71184 24
219 1 4.37915 -2.61883 -6.69227 21
220 1 2.7752 0.30581 -6.61526 20
221 1 3.14058 -12.0264 6.83592 22
222 1 -7.62618 3.63036 0.884943 14
223 1 11.7557 4.7819 7.38868 18
224 1 16.0248 -3.88962 6.95218 19
225 1 1.13735 -2.80793 8.24046 20
226 1 4.93794 -13.624 16.59 7
227 1 -2.33225 1.15648 10.0516 14
228 1 -0.280741 -16.0096 -7.28417 15
229 1 15.109 -15.5841 0.899908 16
230 1 3.0134 -1.03872 16.5636 10
231 1 -5.4798 -13.6811 8.91917 14
232 1 16.2242 -15.9289 -2.14794 12
233 1 11.9369 -9.25164 -3.68763 23
234 1 13.9477 -17.5807 -0.323695 14
235 1 0.298916 -7.72116 8.7917 17
236 1 -3.62546 3.03071 -4.13126 19
237 1 5.89243 -7.59809 8.80191 22
238 1 14.206 4.37895 8.65304 19
239 1 -5.76198 -10.246 3.12184 17
240 1 10.4484 -12.4153 -4.06662 20
241 1 -0.301551 6.03358 5.88087 19
242 1 -5.02879 4.08524 3.65612 15
243 1 10.1076 -19.5908 11.3123 13
244 1 17.1003 -7.10511 6.49832 16
245 1 7.038 2.62782 6.46473 22
246 1 0.633799 -8.29573 -1.41257 19
247 1 1.68175 -4.35484 16.8518 9
248 1 3.56977 10.0008 3.84827 13
249 1 0.0248725 2.94413 -3.93761 23
250 1 -4.20306 -4.46193 11.9538 16
251 1 -6.98611 -3.67699 4.84681 20
252 1 3.32638 -5.79776 -8.9574 19
253 1 -3.01235 1.76602 4.41716 22
254 1 15.3552 -7.41507 14.0936 17
255 1 -7.35043 -11.9045 4.0193 16
256 1 6.59792 -17.1412 8.43944 18
257 1 -7.59478 -1.65724 2.03021 17
258 1 6.07569 -1.7041 17.766 9
259 1 8.10249 -13.0214 -9.13912 15
260 1 -1.77438 -6.92646 -12.941 13
261 1 6.01745 -5.9501 -10.7632 17
262 1 8.32199 8.3889 6.06222 18
263 1 -2.37981 -11.3921 2.34961 18
264 1 10.6435 -8.18994 -6.48569 20
265 1 3.00264 -19.5469 -2.68809 15
266 1 -9.69413 -11.5124 -3.96528 13
267 1 3.9664 -12.3916 1.38722 22
268 1 20.2137 1.92505 0.888777 16
269 1 -4.13982 -6.89165 -11.1056 15
270 1 -7.91257 -2.17759 -3.55602 15
271 1 -4.19083 1.37318 7.76605 17
272 1 -1.95184 9.26758 4.43462 8
273 1 3.95537 3.10269 6.23755 20
274 1 18.3458 -8.69911 0.606846 19
275 1 18.7579 -8.56964 -2.37679 18
276 1 1.78339 0.564699 1.31546 20
277 1 3.2218 -18.0602 0.158526 22
278 1 9.95625 2.25195 6.07848 22
279 1 -4.02159 -4.9946 -0.368455 18
280 1 11.6832 -19.8558 1.91561 14
281 1 17.3503 -8.14411 11.7344 17
282 1 -9.88169 -9.13456 -5.94302 11
283 1 -5.13315 -19.2877 -0.0458536 12
284 1 5.59173 5.93135 5.98247 18
285 1 -1.40746 -12.1394 -4.17058 21
286 1 -6.21898 0.285955 9.12018 9
287 1 9.9041 9.84174 -4.84338 11
288 1 15.1028 6.97796 6.76436 11
289 1 -8.71537 -14.8093 0.096421 14
290 1 5.13502 -15.4615 0.219 21
291 1 -10.5076 -7.48288 6.16836 11
292 1 -8.19773 -0.162473 -5.581 11
293 1 8.40024 -14.2716 3.34038 20
294 1 1.97334 -18.6123 5.28905 14
295 1 8.46805 6.56235 -10.7725 8
296 1 -6.91917 0.108299 -0.105464 19
297 1 2.11787 -19.8539 7.88066 10
298 1 21.5005 1.59679 3.54793 12
299 1 4.47674 -4.08669 9.61077 19
300 1 -4.46572 -3.54565 7.27804 19
301 1 -0.0867822 -2.62011 5.3405 21
302 1 1.98242 -16.118 12.131 14
303 1 6.82087 -14.5415 -2.10006 18
304 1 13.8205 -9.41203 -5.78909 19
305 1 4.1469 -5.72623 13.1404 19
306 1 -8.96233 -10.5182 6.61028 15
307 1 2.8115 -13.0652 9.92451 21
308 1 6.22411 -13.0213 -12.1417 10
309 1 5.13242 -14.2887 -9.46941 14
310 1 6.81032 -11.9428 14.5741 17
311 1 8.52989 -11.5542 -1.50748 20
312 1 -4.09491 0.321807 -6.04842 21
313 1 11.8125 -20.088 7.95514 10
314 1 5.32796 7.43855 2.67266 18
315 1 -0.261378 -8.24268 14.4012 15
316 1 -2.61561 -12.198 13.6174 11
317 1 14.8548 -9.70524 10.758 18
318 1 16.1012 -4.31917 1.15661 20
319 1 -2.93957 -4.0297 4.3403 20
320 1 9.55019 -3.4056 -3.68341 19
321 1 13.5665 -14.5283 11.6122 17
322 1 17.4575 1.10568 1.76252 22
323 1 0.433984 -0.385295 9.70344 21
324 1 9.98611 2.07755 0.46307 21
325 1 17.2249 -9.32771 8.91166 14
326 1 3.74254 -21.4425 -0.607285 14
327 1 0.646514 7.61642 3.51214 14
328 1 -1.02857 -15.9021 -3.55585 19
329 1 8.51815 0.0785223 12.088 18
330 1 -2.81779 -7.00298 9.54254 18
331 1 -7.34913 -17.2544 1.1118 10
332 1 -2.53017 -3.73255 9.76178 18
333 1 -5.95004 -11.0106 -7.24526 21
334 1 -1.23265 -0.0874749 12.7022 14
335 1 -3.2359 -14.0762 -6.30423 17
336 1 4.13031 -11.9552 -10.2801 17
337 1 1.64803 -14.9664 1.00363 21
338 1 -0.441429 -8.66107 6.3393 17
339 1 17.8321 -2.79352 9.61097 14
340 1 -1.84341 -9.3763 11.8104 18
341 1 -2.79554 0.0768807 -8.63372 15
342 1 16.5766 -0.524413 -0.711328 19
343 1 -4.99701 -16.0363 -0.280231 20
344 1 8.0131 -0.702256 -3.75096 21
345 1 4.81176 11.0107 0.742608 8
346 1 6.84614 0.186674 -6.86433 22
347 1 11.9931 5.70095 10.5732 13
348 1 -8.83876 -5.58123 -2.75674 12
349 1 11.0047 5.45253 -2.51513 18
350 1 -2.77487 -14.9538 -9.46995 12
351 1 5.06186 -14.9164 -4.39593 23
352 1 3.86085 -3.84815 -11.5923 16
353 1 -9.35951 1.1855 0.756218 10
354 1 11.2207 0.395169 12.7059 22
355 1 18.055 2.47641 -1.10033 18
356 1 13.86 1.80935 1.43779 18
357 1 -1.99629 5.46822 -5.48585 14
358 1 8.95377 3.01001 -8.1588 22
359 1 2.88942 -11.0768 3.79555 21
360 1 -10.832 -9.18711 0.274034 15
361 1 -4.30538 -2.39888 -8.15235 16
362 1 22.2913 4.15499 0.384957 7
363 1 10.0309 -10.8377 4.58446 21
364 1 18.9088 -3.28001 -0.891633 20
365 1 10.3255 -0.196571 -7.77254 19
366 1 4.93575 -13.7678 4.35785 17
367 1 4.1851 -18.217 9.56209 15
368 1 9.49965 -17.6029 8.54927 20
369 1 -5.38251 -2.16827 -1.01062 19
370 1 6.46039 -16.8512 -7.08943 12
371 1 4.10941 -0.569397 -9.36344 18
372 1 9.57629 -4.07477 13.8754 17
373 1 -4.56999 -17.1895 5.27191 13
374 1 15.4754 -6.78678 -10.2192 13
375 1 21.6033 -6.90984 2.87437 10
376 1 3.57275 3.15903 1.19517 24
377 1 5.70504 -10.6491 -7.06867 20
378 1 13.7898 -5.36223 -8.36757 22
379 1 14.796 -7.28818 -3.14146 22
380 1 -4.78602 -9.79854 13.5348 11
381 1 8.05103 8.54894 0.366938 18
382 1 0.738595 -10.712 -10.0027 17
383 1 4.18292 -10.2563 9.2025 21
384 1 -2.72082 7.64844 2.11988 11
385 1 -2.99618 -3.97571 -10.7563 18
386 1 -4.2972 -10.0656 0.227388 18
387 1 0.247724 -15.5885 9.77671 15
388 1 10.2472 5.56632 -7.88812 18
389 1 23.1391 -1.47911 3.05716 5
390 1 -4.23212 -14.3375 3.02262 19
391 1 1.12002 -16.1061 4.93093 17
392 1 -0.7519 4.47251 9.0977 11
393 1 7.29972 -8.42887 -6.22088 21
394 1 10.22 0.188165 3.23258 21
395 1 19.2537 -6.04844 5.20039 14
396 1 10.8392 6.80882 -5.18401 15
397 1 11.9867 -15.2956 0.882518 21
398 1 0.494147 -2.96245 11.7179 18
399 1 12.9966 2.32438 15.783 15
400 1 5.54298 -0.637222 -11.4801 14
401 1 -1.01006 -9.10823 -4.28792 20
402 1 5.77363 -8.59472 14.5918 16
403 1 14.8906 4.91267 12.3926 11
404 1 10.6028 0.923272 -10.6844 18
405 1 -0.458227 0.992117 -6.25872 19
406 1 3.62056 6.01381 -2.36296 18
407 1 18.0346 -0.101898 13.9715 10
408 1 19.6211 -9.03296 -8.33224 5
409 1 -6.22953 -12.9103 0.951703 19
410 1 3.69885 -3.08091 12.4015 15
411 1 3.28642 8.34378 -4.3332 13
412 1 9.23492 -17.8025 2.8495 17
413 1 17.0226 -6.26331 -7.86735 12
414 1 -1.16719 6.1137 0.215219 12
415 1 -1.63314 -9.39675 -7.67688 22
416 1 7.35549 -20.3702 9.74047 12
417 1 -9.22362 -6.59765 0.293153 16
418 1 -0.636683 -4.7846 -0.747248 20
419 1 0.0234306 -11.5539 14.6385 12
420 1 10.4764 0.331083 -2.36349 16
421 1 6.59813 -10.7612 -10.7764 19
422 1 11.032 -13.9504 13.867 17
423 1 16.3375 -7.19149 -0.699012 21
424 1 -8.6021 -3.16748 -0.701804 14
425 1 14.5775 -14.6227 -5.01515 14
426 1 12.2669 -0.538464 9.9609 21
427 1 8.32196 -5.99542 -8.06967 22
428 1 12.1418 11.6481 3.02175 9
429 1 13.6229 0.363942 -8.91954 16
430 1 9.50015 -9.46355 -9.0322 22
431 1 -2.13516 -18.9198 -1.21756 16
432 1 -3.43242 -10.8308 -5.83875 21
433 1 22.4014 0.927073 -1.33359 8
434 1 20.1818 0.835527 -4.27974 10
435 1 16.3665 -10.8647 -1.26457 21
436 1 11.7301 -11.9038 -8.90906 13
437 1 12.8496 1.78326 7.48388 22
438 1 -5.08559 -6.09964 6.63726 20
439 1 13.2078 -0.560444 4.39604 23
440 1 15.2379 -10.0935 7.63613 19
441 1 15.8572 -0.89695 -10.3847 8
442 1 15.0294 -2.44807 17.0409 16
443 1 4.98313 -14.5809 13.6308 14
444 1 14.3842 -3.18169 3.66491 19
445 1 7.75121 -6.19807 14.3834 18
446 1 20.0892 -6.42686 -0.0722647 16
447 1 20.6186 0.80225 6.71302 12
448 1 -5.99726 -4.60754 -2.73705 19
449 1 19.3668 4.20914 1.85553 17
450 1 11.2382 -14.1474 4.64315 20
451 1 6.89106 -12.9428 0.974049 18
452 1 14.0329 1.27918 12.226 21
453 1 12.4431 3.67326 12.6975 16
454 1 12.7175 -3.35653 6.43443 19
455 1 2.67332 5.69221 1.68077 19
456 1 15.6485 -1.31753 -3.62998 17
457 1 12.2411 -2.76447 -10.0717 18
458 1 8.35762 11.0964 -1.75953 11
459 1 10.9801 -17.4231 -1.30956 17
460 1 -7.91089 -7.26629 10.641 14
461 1 -0.56149 4.34891 -8.48728 8
462 1 6.13787 -21.6355 1.03279 11
463 1 -1.15108 -4.85565 -5.96716 18
464 1 -7.03782 -6.68191 -5.29472 17
465 1 16.0631 -12.4085 9.88486 13
466 1 14.5172 1.39395 9.59333 19
467 1 10.841 -15.9496 11.2823 21
468 1 -7.7134 -7.49919 -10.9549 9
469 1 5.4521 -14.0461 8.18491 18
470 1 6.54071 0.351832 15.9118 12
471 1 11.7983 3.41377 -10.2473 13
472 1 14.0628 -0.269746 -6.09493 15
473 1 9.81758 -17.4196 -5.96976 9
474 1 16.9551 -5.98996 9.37586 17
475 1 19.1262 2.95691 8.50283 13
476 1 17.1034 -13.3045 -0.026954 16
477 1 -3.91493 -0.736413 10.9863 11
478 1 -0.882837 -14.8542 2.3919 19
479 1 -5.91828 -7.81112 -1.83796 20
480 1 17.7219 -1.39727 17.0486 9
481 1 2.35481 -13.3901 14.2848 13
482 1 17.0538 2.66888 11.6206 15
483 1 5.5435 6.29287 0.199778 18
484 1 14.8777 -1.10318 1.64938 22
485 1 14.5138 -1.1274 7.18371 21
486 1 10.4731 -2.06111 -12.5753 11
487 1 -6.01006 -8.62641 8.61176 19
488 1 15.0069 -3.35384 -9.78661 16
489 1 5.12419 -9.21507 -3.78773 22
490 1 14.5905 -11.1285 -9.35793 12
491 1 16.0748 -5.01895 16.4225 10
492 1 11.3462 -0.623867 6.91684 20
493 1 16.7713 5.46664 9.59577 12
494 1 4.17659 -4.26178 17.4141 8
495 1 3.13625 1.83801 9.153 20
496 1 3.70743 -8.01888 -6.46985 21
497 1 1.77761 0.109151 6.67105 24
498 1 8.8039 -1.10198 15.1287 17
499 1 17.3271 6.06156 3.9649 11
500 1 11.3136 -15.8547 -4.47125 16
501 1 2.9924 -3.1322 -4.00691 22
502 1 13.6023 9.54514 0.110915 11
503 1 11.7912 11.7641 -2.2464 9
504 1 3.3632 -6.76702 9.94971 16
505 1 7.71412 6.58793 -2.05496 14
506 1 15.8941 2.04329 6.45769 21
507 1 6.85429 -16.8965 3.50942 18
508 1 5.43526 -6.79062 -13.7345 8
509 1 -5.57699 0.592372 -3.30838 21
510 1 12.1735 -9.43458 -11.414 14
511 1 17.6529 -2.2675 2.38109 22
512 1 16.6872 -1.86554 -6.94137 17
513 1 14.5432 4.54633 -1.62266 13
514 1 4.94829 -0.0976847 6.89886 25
515 1 -1.96272 -1.65108 -0.926763 20
516 1 13.2737 -0.530556 -1.0928 18
517 1 4.70669 -15.648 10.8149 17
518 1 1.94831 3.45501 -7.16884 17
519 1 8.99737 11.1117 4.49462 13
520 1 12.5373 -8.02707 13.1009 19
521 1 11.4242 7.11294 0.43251 18
522 1 11.843 7.32351 5.81265 20
523 1 19.7408 -11.5201 -1.26702 11
524 1 -11.6019 -12.4774 -0.91856 9
525 1 8.85792 -16.1524 5.86796 18
526 1 -0.935092 -2.91925 -8.86602 22
527 1 7.83872 -0.32797 6.39438 21
528 1 11.8977 -11.4662 -1.594 22
529 1 11.3504 2.59927 9.78871 23
530 1 -10.8985 -9.48106 3.56433 13
531 1 9.21187 -22.404 7.09577 9
532 1 15.8916 1.85729 -3.15581 16
533 1 8.65699 -13.0034 6.57991 20
534 1 9.10652 5.2286 6.19972 21
535 1 8.79067 -10.1606 -13.2127 10
536 1 9.64242 -17.2367 14.0539 10
537 1 11.5027 5.49831 3.31671 22
538 1 0.656777 -2.03083 14.4513 15
539 1 -8.00819 -11.4047 -10.1913 13
540 1 10.6184 -4.69197 -7.23186 18
541 1 2.8246 7.00181 4.80813 18
542 1 11.1368 -15.2394 -7.96375 7
543 1 8.21968 -14.4712 13.0086 20
544 1 5.03505 -17.1469 -2.43479 18
545 1 -10.0419 -9.39792 9.65163 11
546 1 5.19608 -5.41496 -6.29147 25
547 1 -3.81301 -17.4565 -3.06672 13
548 1 -4.8506 -7.67505 11.4726 20
549 1 18.1066 0.597626 -5.91059 14
550 1 3.32913 1.07588 4.06482 24
551 1 -6.90578 2.10221 6.01791 11
552 1 13.3944 -11.0698 4.87879 20
553 1 8.52543 4.7492 -5.61352 22
554 1 18.512 -4.21904 -5.9222 10
555 1 18.7019 -2.10877 -3.74179 16
556 1 -7.99772 1.84163 -2.62256 12
557 1 -6.66839 -13.4526 -5.30887 15
558 1 7.81844 7.41616 -5.10471 15
559 1 1.7062 -7.8305 11.9362 19
560 1 4.59662 -9.63371 11.932 18
561 1 9.15837 -11.2135 -6.75787 17
562 1 0.0357248 0.94676 -1.23233 21
563 1 15.4751 6.62064 0.767897 10
564 1 -9.02305 -14.6883 3.46263 10
565 1 11.1928 -6.95768 -9.57003 20
566 1 6.52716 -18.0562 -4.73005 13
567 1 8.94425 -2.03876 -9.65154 18
568 1 -2.54063 -9.72649 -10.4605 19
569 1 7.78169 -4.73677 9.89072 21
570 1 11.1696 1.42647 -13.5727 7
571 1 -1.37666 -10.6457 -0.390235 18
572 1 12.163 -9.9895 2.08183 23
573 1 1.80344 -16.0553 -1.86609 25
574 1 15.5497 -3.90527 -5.1333 18
575 1 13.7671 -12.1677 0.42238 22
576 1 4.14125 1.15273 14.737 11
577 1 16.3994 -13.1956 6.32718 15
578 1 17.7671 -10.1383 5.36304 14
579 1 10.287 -12.7324 11.8316 19
580 1 11.3521 10.3339 6.21427 15
581 1 -1.70882 -3.56801 13.6818 14
582 1 0.5243 -18.8164 10.0497 10
583 1 16.9286 -4.87033 4.22211 19
584 1 12.0118 -0.788705 15.5344 21
585 1 -9.80419 -4.24899 5.3137 13
586 1 13.2425 -14.5968 -1.8864 21
587 1 13.2731 8.95281 4.18153 13
588 1 12.3648 -3.29912 17.211 10
589 1 7.96889 10.2835 8.04258 10
590 1 7.77188 -18.9388 6.1436 19
591 1 -2.4544 -7.75787 -1.55797 22
592 1 9.86042 -6.14992 11.5119 19
593 1 8.70306 3.09182 3.33926 21
594 1 -0.607178 -14.7285 12.8888 10
595 1 13.2126 -11.5167 10.2075 20
596 1 14.5354 -14.3012 8.84865 14
597 1 14.258 -2.40337 9.81255 18
598 1 3.30741 0.663687 -1.44196 22
599 1 1.71208 -15.8493 -5.16441 16
600 1 0.405028 -4.29153 -11.3229 17
601 1 0.268845 -5.74104 14.1415 15
602 1 6.41675 10.108 2.83563 14
603 1 19.0012 -2.45811 5.64994 14
604 1 13.1421 5.05765 -7.64742 12
605 1 2.41571 -0.265068 12.5833 19
606 1 14.9181 4.89283 4.22238 17
607 1 10.4519 -7.12368 -12.6734 13
608 1 -3.89052 -17.4834 2.18902 16
609 1 0.643541 -6.05048 -3.41859 22
610 1 19.3193 -6.79389 9.08214 12
611 1 6.16827 -7.83407 -8.85604 21
612 1 3.47092 -13.6859 -2.05015 20
613 1 20.6637 -8.97281 3.73022 11
614 1 12.4495 -12.1617 16.7577 9
615 1 3.02112 -8.88458 -9.39259 20
616 1 10.3321 8.45463 2.998 20
617 1 2.48441 -8.90789 6.57276 20
618 1 -5.31532 0.78073 2.16022 22
619 1 19.9707 -0.49229 -1.70721 16
620 1 9.18016 -4.79378 -11.0173 17
621 1 -2.52884 4.36617 6.125 14
622 1 7.33017 -1.46683 -14.5825 8
623 1 15.3294 -10.1516 1.9407 20
624 1 -5.08503 -4.14437 2.73614 19
625 1 16.9584 4.63526 6.92548 15
626 1 -3.57578 -14.4682 -2.41196 20
627 1 14.6387 -0.928464 14.2876 24
628 1 -8.06292 -8.69589 -8.31836 17
629 1 -2.35609 -1.37166 7.42104 20
630 1 4.87695 -0.280057 -4.30516 22
631 1 16.3902 -9.30212 -7.65367 18
632 1 -6.32067 -13.9687 -8.3914 13
633 1 17.0246 -13.037 -3.35216 15
634 1 -7.75878 1.88378 3.48998 13
635 1 -6.16727 -13.0389 -2.32477 18
636 1 -7.15695 -16.2985 7.8581 7
637 1 15.9209 -3.30825 12.4314 16
638 1 9.77168 -11.5546 8.97454 19
639 1 -8.63254 -0.778796 6.28384 12
640 1 6.67393 5.04489 11.2216 12
641 1 9.07374 4.06064 -10.9867 13
642 1 0.439248 3.02287 5.30628 24
643 1 14.6731 2.781 -5.77029 12
644 1 4.62439 2.19155 11.9754 16
645 1 12.7979 -12.2522 13.5093 17
646 1 4.35219 7.5876 -6.61054 13
647 1 -6.16079 -6.50685 13.2209 12
648 1 2.70269 -12.0338 -13.2297 7
649 1 -11.2773 -6.45841 2.99948 11
650 1 4.14438 -15.8376 5.90958 15
651 1 14.8263 -6.14334 11.8089 23
652 1 0.293084 -20.4452 -0.871019 13
653 1 -7.18215 -2.70502 7.68186 14
654 1 20.9443 -3.97851 -2.55549 9
655 1 0.401463 3.18022 1.34799 21
656 1 -2.23587 -10.3024 8.16931 19
657 1 -0.129577 -17.2424 -10.0509 6
658 1 5.88949 -18.7695 1.07743 22
659 1 12.4678 -17.3017 6.31078 13
660 1 6.09817 4.10337 -11.1507 13
661 1 16.7626 -7.09815 2.41301 15
662 1 18.9211 -0.0151185 4.18533 19
663 1 21.1806 -9.12093 0.299316 12
664 1 2.11081 -2.89354 -8.98541 22
665 1 -0.870948 -12.8433 5.62767 21
666 1 17.9689 3.33912 -4.16584 11
667 1 15.0393 -3.54716 -1.48146 21
668 1 -0.268519 -2.56947 -3.24101 24
669 1 12.4353 2.75645 -1.56854 19
670 1 -6.80577 -10.6699 9.91803 15
671 1 9.46542 0.678455 9.14035 22
672 1 5.80365 -21.0858 7.38111 12
673 1 8.69023 3.16226 -2.18824 22
674 1 6.39244 1.46687 9.27103 21
675 1 -0.455276 -6.19207 11.2808 18
676 1 13.9458 -6.99971 1.76648 20
677 1 2.92966 -10.0664 14.5391 15
678 1 12.786 -17.6335 9.48147 15
679 1 1.20867 -5.82447 6.39129 18
680 1 19.6489 0.608878 9.92114 10
681 1 15.8784 -12.1308 -6.37721 16
682 1 -5.15671 -5.34325 -8.63596 17
683 1 -0.772744 -1.22617 -11.1384 12
684 1 -6.00197 -7.05088 0.716036 16
685 1 16.2096 4.29944 1.18593 17
686 1 4.99229 4.69925 8.67966 18
687 1 0.0406264 -13.5444 -1.61426 20
688 1 0.437159 0.92529 4.15834 20
689 1 17.5916 -2.84246 14.7975 14
690 1 1.69512 -13.5473 3.78893 23
691 1 17.9994 -7.15457 -4.83371 15
692 1 12.4175 -16.6557 3.32687 16
693 1 8.69905 1.23623 -16.2578 5
694 1 0.983385 -2.41735 -6.24826 23
695 1 0.232615 -12.2248 1.1513 23
696 1 -3.95375 -2.03688 1.39205 21
697 1 6.90092 7.07486 8.84858 14
698 1 18.4777 -5.1362 11.9726 15
699 1 -6.19877 -14.5036 5.50961 15
700 1 13.5818 -8.1284 5.25215 19
701 1 5.86511 3.35561 -6.81658 20
702 1 18.6098 2.77582 4.61257 19
703 2 -7.84754 -1.97968 -5.3985 11
704 2 1.96412 3.72205 -5.31949 22
705 2 1.33576 -9.06419 -10.4723 16
706 2 -1.05718 -1.79614 13.5796 14
707 2 -4.17539 -11.3234 -7.7364 21
708 2 10.7443 -7.4783 12.4943 18
709 2 -7.35225 -16.2646 -0.756044 14
710 2 -4.75892 1.85953 -7.13479 12
711 2 10.2164 10.8447 2.97969 15
712 2 1.01873 -7.58157 7.07983 18
713 2 15.6317 -3.54995 5.19802 22
714 2 2.35066 -5.02314 -3.92534 20
715 2 -7.65228 -12.4816 -8.122 14
716 2 -0.59073 -5.36335 1.18418 17
717 2 0.508001 -14.3345 5.44716 19
718 2 10.4954 -4.24512 11.8795 19
719 2 14.0857 -8.93651 -3.59547 18
720 2 7.75487 -21.5715 7.96369 10
721 2 12.2817 -5.13096 7.59892 18
722 2 -3.34264 6.52403 0.810182 14
723 2 -7.28887 -5.76444 -3.57339 14
724 2 18.1468 -0.900993 9.68784 12
725 2 15.0432 -17.3444 -1.85643 11
726 2 -5.01056 -14.2536 0.672372 20
727 2 -7.01318 -11.3568 2.15242 19
728 2 4.29646 -12.361 8.70578 19
729 2 16.9109 -9.33935 7.02147 14
730 2 7.84882 -16.6422 -5.69574 16
731 2 11.7597 -4.67883 15.9677 11
732 2 4.78468 9.0669 -4.94383 11
733 2 -5.48492 -17.8033 1.34539 12
734 2 10.1732 0.0836919 15.8878 15
735 2 -1.69768 0.235578 -1.75571 23
736 2 5.73867 2.13984 15.1019 9
737 2 -8.74899 2.55764 2.0678 10
738 2 12.6525 -12.6974 5.49902 19
739 2 0.93935 4.10595 9.56195 11
740 2 8.19872 9.26607 -4.88346 13
741 2 9.63256 -11.7048 -9.10443 12
742 2 -0.534235 -3.13543 -6.96495 20
743 2 5.44621 -8.87947 -7.44539 20
744 2 20.4057 -4.77198 -0.883209 15
745 2 4.13521 0.511608 13.0351 16
746 2 10.2986 -2.72563 -10.8064 16
747 2 3.10593 1.75693 -8.03886 19
748 2 12.5914 4.70216 -1.77881 15
749 2 -3.09847 -8.11009 11.0647 20
750 2 -5.1406 5.97408 2.77029 13
751 2 19.8914 -9.61944 -6.64033 7
752 2 2.39657 -11.6837 -9.62764 16
753 2 -8.75613 -11.0896 9.75497 12
754 2 17.4214 0.980698 3.89818 21
755 2 -1.71426 0.527099 3.76438 19
756 2 3.49891 -13.6918 -4.03402 20
757 2 1.60015 6.75032 6.58368 17
758 2 13.9188 -11.0536 14.8917 13
759 2 10.5217 -12.9879 7.93074 20
760 2 -9.56777 -5.83341 6.57552 10
761 2 17.5777 -11.9903 -5.02997 15
762 2 13.7606 -16.7546 1.54299 16
763 2 11.4484 3.20782 6.53135 21
764 2 13.2434 -16.5528 11.2502 12
765 2 9.03217 -11.5236 12.7882 21
766 2 -1.39293 -6.96209 14.8338 14
767 2 17.3895 -12.4096 1.88884 15
768 2 7.79457 -2.57491 6.33678 23
769 2 17.7247 4.42068 8.77404 12
770 2 -3.47363 -2.58336 11.1656 14
771 2 13.5075 5.82134 11.6577 11
772 2 16.0912 -14.7171 -0.668546 17
773 2 8.61037 3.29244 -4.46006 20
774 2 -3.6755 -4.12071 -4.24886 19
775 2 -0.72908 -4.90373 12.5728 21
776 2 13.7802 -5.94423 -3.77235 18
777 2 -2.67268 -5.03435 -7.21907 23
778 2 -3.5791 -11.1693 7.20536 20
779 2 -10.8378 -12.0061 -2.48885 10
780 2 14.1466 -9.71931 6.14633 16
781 2 7.39611 -11.384 10.2845 23
782 2 4.00515 -8.60601 15.3954 13
783 2 10.3372 -6.16279 -11.0166 17
784 2 11.2698 -1.74554 17.3183 12
785 2 9.84124 1.7973 12.8717 20
786 2 -3.32234 -5.00161 5.94729 18
787 2 6.67808 -14.1369 -5.28252 19
788 2 17.9983 -6.68486 -3.02195 17
789 2 -1.08262 2.43502 9.43994 14
790 2 8.10713 -17.8437 4.51456 14
791 2 9.10876 -9.33165 -6.98422 19
792 2 12.855 -4.20414 -1.50506 20
793 2 4.9485 0.340283 8.87121 23
794 2 12.2913 -11.2177 -4.22504 18
795 2 2.4835 -9.29083 12.6651 21
796 2 3.24481 -19.8917 6.37469 12
797 2 19.0591 -2.6555 1.02698 19
798 2 0.971054 -17.1022 10.8221 12
799 2 10.2118 2.52602 -12.0985 12
800 2 -4.29936 -11.4063 12.3695 13
801 2 19.7108 -3.76988 -4.20059 13
802 2 7.25524 -19.2006 -3.2896 12
803 2 16.8055 -11.7633 5.20423 15
804 2 4.17691 10.1358 -0.57696 8
805 2 17.2256 -2.84295 -5.30799 16
806 2 -1.20796 -4.90684 -10.3836 23
807 2 2.5764 -10.4422 7.97615 19
808 2 6.92478 -13.086 3.51424 20
809 2 2.38055 -11.1524 1.08801 23
810 2 5.7938 3.97507 5.84585 22
811 2 0.439581 1.32421 6.19409 20
812 2 8.89121 -5.34414 -3.52193 19
813 2 13.7492 1.02375 3.37946 19
814 2 8.53873 -0.946371 -6.92635 20
815 2 2.19907 -0.230711 14.8647 10
816 2 5.54299 0.72095 -10.0951 18
817 2 -8.55254 -2.87388 5.89547 15
818 2 6.40829 0.855157 6.00402 22
819 2 -5.60476 -2.63308 5.93194 21
820 2 -0.331139 -2.72638 -1.10518 19
821 2 16.3262 5.9128 2.41166 13
822 2 21.0778 0.98484 -2.63335 11
823 2 15.3338 -14.5622 2.78604 19
824 2 -4.28675 -7.81874 8.20486 18
825 2 12.8916 -3.71172 4.47186 17
826 2 8.59212 3.49112 6.92064 22
827 2 1.44125 4.73537 -8.52913 12
828 2 -3.30435 3.23132 3.17882 18
829 2 17.6012 -7.76094 9.81887 17
830 2 -1.79551 -16.435 -10.2948 6
831 2 12.0406 1.64863 -9.25321 18
832 2 15.1337 3.09016 4.98797 21
833 2 -5.47202 -12.0199 9.80403 16
834 2 10.4232 1.95233 3.92486 19
835 2 -1.64589 5.98725 -1.83723 10
836 2 1.84294 5.39884 -2.59695 19
837 2 15.5551 0.891329 11.2846 19
838 2 2.97067 9.18387 7.39432 12
839 2 17.9142 -12.2461 -1.58213 14
840 2 4.70586 -0.30476 16.7091 10
841 2 3.01675 -2.96393 16.9057 11
842 2 -5.92093 -5.73691 2.3272 20
843 2 3.42611 -14.1041 -9.06173 13
844 2 10.5086 -17.9762 -4.22973 13
845 2 11.0348 -5.53701 -5.56785 19
846 2 21.8957 -2.3638 2.03911 9
847 2 5.20645 -4.15404 13.3717 15
848 2 15.0485 1.55255 -7.15622 16
849 2 -2.27926 -10.3066 13.48 16
850 2 -2.51261 -8.32643 -11.5619 14
851 2 5.51699 -17.8677 2.73037 17
852 2 5.78356 -10.5593 -5.06629 22
853 2 13.5955 -16.3406 4.93371 15
854 2 18.9503 1.99494 -5.05492 10
855 2 -1.92943 -2.66827 -11.8844 12
856 2 2.09228 3.95317 5.72182 19
857 2 -3.15301 -16.41 0.462661 23
858 2 -8.31736 -6.88964 -9.27495 11
859 2 10.0111 1.45877 -7.12754 22
860 2 6.75817 7.65804 -0.88183 18
861 2 -2.67737 -17.8714 8.29091 12
862 2 19.4203 -0.487417 6.28861 16
863 2 7.50791 3.95638 12.4728 14
864 2 -1.84134 -17.2515 -2.46348 16
865 2 7.48653 -22.019 2.35691 11
866 2 7.8083 0.72702 13.8331 19
867 2 6.19727 3.24732 8.3789 21
868 2 20.1289 -8.05058 -0.997721 14
869 2 16.0445 -1.03 18.1394 9
870 2 12.8501 3.39673 -6.09976 14
871 2 -10.0785 -9.06273 7.31134 14
872 2 13.0145 -12.9264 -1.58655 20
873 2 7.25427 8.09516 2.13699 16