ITEM: TIMESTEP
823000
ITEM: NUMBER OF ATOMS
2000
ITEM: BOX BOUNDS pp pp pp
-30.0 30.0
-30.0 30.0
-30.0 30.0
ITEM: ATOMS id type x y z Coordination
1 1 -13.0885 5.74012 -12.1445 15
2 1 -5.49536 -12.3738 -11.2847 13
3 1 1.59786 12.6979 11.5544 19
4 1 -1.95406 -15.5957 5.70568 22
5 1 -9.81085 6.44723 -6.5057 19
6 1 8.69991 -11.8183 -9.42838 14
7 1 -13.1293 6.11675 -6.98043 21
8 1 0.0554488 -4.33983 10.0952 17
9 1 -11.8869 2.62428 -11.6148 16
10 1 -12.1063 -7.20348 6.07515 18
11 1 12.4831 1.96563 -9.82256 16
12 1 -3.72618 6.92109 -7.64081 24
13 1 -6.58015 -7.65861 1.17272 22
14 1 -12.5103 -7.70141 2.9599 16
15 1 2.91052 1.5578 12.9126 23
16 1 8.04954 -1.34523 7.20745 22
17 1 -2.77398 4.80923 9.88427 27
18 1 6.67876 -0.3589 1.5265 24
19 1 -4.58085 6.30485 -4.39476 21
20 1 3.96839 -1.21363 11.336 25
21 1 -11.083 -3.23544 -11.4754 17
22 1 -12.947 -1.05667 10.5438 11
23 1 13.3112 3.53932 5.62898 27
24 1 -2.03806 9.92132 -8.46271 23
25 1 -0.513813 9.13904 -14.7595 14
26 1 12.8175 1.54597 10.5983 18
27 1 -6.67227 -1.79304 2.06251 19
28 1 -9.87738 -0.715629 -10.0284 18
29 1 -2.16206 1.6298 -7.95731 22
30 1 -8.86635 12.8802 6.54136 14
31 1 4.05636 -10.0523 -0.0717098 19
32 1 0.669912 -0.990714 12.4214 23
33 1 1.64554 -4.46318 -3.99031 23
34 1 7.34399 -13.8856 5.37815 16
35 1 -7.70736 -13.6957 -5.96303 16
36 1 -14.5354 -4.22881 10.0178 11
37 1 4.85899 -5.03905 -3.96786 23
38 1 -6.86809 -7.62165 -10.8709 21
39 1 5.77578 -11.9083 -11.3553 15
40 1 -4.83871 7.53538 -13.4758 22
41 1 3.80413 6.90372 13.279 24
42 1 3.84181 -8.55402 5.49092 23
43 1 1.97553 4.06893 14.681 19
44 1 -16.7501 4.13553 -2.0551 13
45 1 -15.6538 -2.41789 5.26102 14
46 1 -8.54688 -0.34083 -2.9619 21
47 1 0.0430921 12.3647 -7.88382 21
48 1 -2.27154 -13.8502 -8.19279 15
49 1 -0.330771 -1.60019 -10.7105 22
50 1 3.97476 -10.3866 -7.71018 19
51 1 0.790078 -8.40431 12.9394 12
52 1 -16.124 7.93955 -7.08308 14
53 1 4.23789 12.1876 -11.7734 11
54 1 0.680219 12.6414 6.47974 23
55 1 -7.42744 9.72834 -10.1304 19
56 1 0.833049 16.0689 1.79531 20
57 1 1.14157 -15.5359 4.19014 19
58 1 3.53713 -7.74606 -8.79418 21
59 1 3.365 -3.46833 -14.0291 20
60 1 -6.4334 13.4125 8.17457 17
61 1 -13.0421 -7.70447 -9.13206 17
62 1 5.05381 1.74959 6.41801 22
63 1 -13.8747 9.75503 -8.38047 17
64 1 -6.19642 -6.23827 7.99129 22
65 1 -1.48881 12.9777 12.7946 10
66 1 -14.4572 3.40335 -9.80357 14
67 1 -3.85333 3.71813 12.3661 20
68 1 -0.624385 6.78213 -8.23864 23
69 1 1.70937 4.69445 5.89747 25
70 1 -3.11851 -12.1842 10.6825 17
71 1 0.400659 4.60322 8.80029 24
72 1 10.4562 -14.0657 -0.528831 13
73 1 -8.64692 3.64156 15.7496 9
74 1 -13.1729 0.0776678 -10.2369 17
75 1 -12.7094 9.016 -11.1299 13
76 1 -0.306814 12.6857 9.38781 20
77 1 10.4814 -3.58637 -9.87027 18
78 1 2.5996 -10.8894 8.45457 22
79 1 -14.1698 0.234259 5.65504 18
80 1 -9.07275 -2.23717 0.444113 21
81 1 5.15577 16.0411 8.46272 12
82 1 1.31166 -6.19213 14.1786 15
83 1 2.38306 -5.66976 5.29198 23
84 1 -12.2486 -2.29846 0.584875 21
85 1 9.75395 1.06056 11.4886 22
86 1 7.21508 -2.83752 -6.8298 25
87 1 -6.50961 7.75889 7.11184 21
88 1 4.10358 -6.28316 7.93753 22
89 1 -1.96037 -4.61957 0.278708 22
90 1 -9.91249 -5.43948 -13.44 13
91 1 -9.32296 9.3735 5.94774 16
92 1 -9.53977 9.49871 -3.54926 20
93 1 -3.37331 3.78781 -6.28324 20
94 1 3.13916 0.0669556 -6.33531 20
95 1 4.12164 -2.90423 -5.88392 23
96 1 9.31109 11.4068 -7.22492 18
97 1 11.6652 -9.24037 3.9988 15
98 1 6.43669 -6.89336 10.2035 16
99 1 -6.09982 15.2895 -3.57284 13
100 1 -12.5161 15.2657 -0.971286 9
101 1 -9.7181 -1.34342 14.1889 10
102 1 -4.60284 8.80894 1.30388 21
103 1 -3.57068 -5.56814 6.36571 21
104 1 12.1411 -9.14159 -7.20088 16
105 1 -7.35458 15.4866 6.46197 13
106 1 -4.2198 -9.02295 3.28727 20
107 1 11.1317 -11.6599 -6.78577 13
108 1 4.0379 0.673138 -9.57302 20
109 1 -6.20217 0.286879 -11.9987 18
110 1 6.23574 -0.932945 4.94337 21
111 1 -0.385283 10.2709 4.21517 19
112 1 -11.0068 8.14271 -14.1572 14
113 1 0.0357215 2.1128 17.0671 10
114 1 1.53784 11.2045 -2.35562 20
115 1 -12.8222 9.39096 -1.55147 17
116 1 0.601213 11.0086 1.0288 23
117 1 -0.0517873 1.13145 -5.53673 22
118 1 1.24605 -10.0397 5.75446 18
119 1 13.0836 -1.18784 11.6459 16
120 1 1.72756 -2.65586 -8.20897 22
121 1 2.31533 -5.64679 -6.6612 25
122 1 -3.84359 2.15389 6.04385 20
123 1 8.98434 -3.59785 15.0356 13
124 1 -9.13989 -7.43566 -2.0054 21
125 1 8.33321 -3.68811 1.77488 23
126 1 -9.39672 -8.45669 -5.31224 23
127 1 14.2641 -5.87921 -0.119353 18
128 1 -5.7048 6.5607 -1.2327 22
129 1 8.19268 2.59342 -14.5207 13
130 1 2.47705 19.2942 -0.0906271 8
131 1 -4.11355 -4.31307 12.8343 14
132 1 -8.3897 -11.5968 10.4205 14
133 1 -2.18529 6.32404 -1.80793 24
134 1 3.6733 -6.77535 -13.0258 19
135 1 4.83581 5.434 -6.8764 20
136 1 14.0661 -8.83991 -2.413 14
137 1 3.76408 -12.0 10.8644 14
138 1 -9.65636 -7.40983 1.25724 21
139 1 15.3754 3.06626 8.95256 16
140 1 14.0003 -4.38741 -8.29576 13
141 1 -17.0514 -1.88346 -3.35281 19
142 1 8.80126 6.86222 6.3309 23
143 1 13.1664 12.0142 2.92126 13
144 1 -7.15633 1.22562 14.7677 13
145 1 6.60819 5.04138 -1.50003 24
146 1 -4.45456 10.2773 8.02491 23
147 1 -2.73174 14.8319 -4.64716 18
148 1 -2.89241 -3.55915 -11.0314 20
149 1 8.49458 -13.1423 -5.8502 16
150 1 1.77394 14.6102 -8.50147 13
151 1 10.3392 -1.34463 16.0239 14
152 1 -2.9979 -0.726253 -13.0752 21
153 1 -4.12535 3.90726 -2.71961 24
154 1 10.6777 2.03884 -3.87793 23
155 1 -10.1284 13.7749 1.09432 21
156 1 7.03386 -5.35287 -1.8921 23
157 1 -6.95881 17.9089 -1.70417 11
158 1 7.22031 1.94527 -11.6185 22
159 1 13.247 -9.11228 1.02679 13
160 1 -8.20166 2.92219 -8.55603 17
161 1 -5.49621 13.1429 5.0575 19
162 1 10.9819 4.14975 -8.45756 23
163 1 -1.25835 3.79289 -3.94369 22
164 1 8.10598 8.01001 -2.66947 22
165 1 -5.66134 16.4667 3.25449 18
166 1 7.05478 16.3361 0.0788219 11
167 1 -3.90458 9.03751 -2.18146 23
168 1 2.71238 16.1586 -5.33839 13
169 1 5.24215 8.59928 -13.8297 16
170 1 -10.6005 -10.4522 1.88899 15
171 1 -15.1442 6.75484 -10.0304 13
172 1 -2.81226 1.12578 -16.2873 15
173 1 -0.26785 -12.0006 -14.2171 12
174 1 8.49806 11.5257 9.91171 16
175 1 -3.94328 12.1107 10.1822 18
176 1 -9.55718 -4.1227 -6.13105 21
177 1 -12.8061 11.7319 -4.06009 15
178 1 14.6229 -1.45423 -6.69838 13
179 1 -3.68951 2.24553 -13.2933 20
180 1 6.4602 -4.39025 17.848 10
181 1 3.91742 17.9696 5.86176 12
182 1 -0.0962453 7.41657 5.52214 24
183 1 2.97936 -9.42789 -15.8875 11
184 1 -4.87382 12.0597 13.3987 9
185 1 -0.896089 12.022 -4.65754 21
186 1 3.40915 -1.67572 14.4316 21
187 1 -7.70069 -5.24647 -0.55332 21
188 1 -2.23823 -13.3198 -11.4181 13
189 1 -12.1374 12.3625 -7.21346 13
190 1 -5.9886 -10.7453 8.83804 23
191 1 4.85241 -15.1289 -1.97244 16
192 1 2.45424 11.6075 -5.52063 22
193 1 -12.6572 3.32172 6.05498 15
194 1 1.6511 8.51497 -0.337766 22
195 1 11.2984 10.5601 -4.89939 18
196 1 -7.10607 3.95496 12.6442 20
197 1 2.48241 -8.58119 16.0286 8
198 1 -11.439 5.14129 -9.32103 19
199 1 -3.62997 19.0861 3.35065 9
200 1 -1.14707 7.48061 8.62537 23
201 1 11.4958 3.91766 13.5461 17
202 1 -7.77255 16.0871 0.900077 18
203 1 9.51665 -6.69067 -11.2484 16
204 1 -2.8971 9.20916 14.0042 12
205 1 -6.57346 4.2797 -5.35192 22
206 1 12.275 -3.90677 -1.75944 22
207 1 -2.47039 -5.5481 3.43153 21
208 1 -14.911 2.97878 3.42142 16
209 1 -8.40607 -11.6407 6.90183 18
210 1 7.24588 5.92781 12.3516 19
211 1 -18.8262 -0.295575 -5.27549 10
212 1 -1.06068 0.857373 -2.39302 22
213 1 -4.86166 -17.399 0.924298 11
214 1 -1.81423 0.40127 0.718113 21
215 1 -5.97306 -4.94355 -9.20128 20
216 1 7.67036 -8.28024 -3.95718 22
217 1 -2.76689 13.4941 7.48587 21
218 1 -9.53422 -2.13385 3.98145 23
219 1 5.22962 11.6747 13.9106 13
220 1 -17.4193 3.00733 -5.19727 15
221 1 -4.94939 9.75899 -7.76052 24
222 1 -13.2224 0.77051 -6.91409 19
223 1 -10.7201 -3.11492 11.8881 17
224 1 -4.69172 -16.7735 4.29182 14
225 1 5.47933 -16.0808 6.51852 14
226 1 -11.5833 10.7824 1.08718 15
227 1 16.4252 3.37821 4.08599 15
228 1 5.3164 2.34381 -5.53892 20
229 1 -7.70924 -4.46771 -12.2845 22
230 1 5.54568 -4.15511 11.4612 19
231 1 -3.31947 -1.87367 1.85675 20
232 1 7.24759 -15.1262 0.32254 14
233 1 -5.71633 4.51984 -8.58473 19
234 1 3.41799 -12.9688 -10.2714 17
235 1 8.10304 -0.0916526 -13.1778 17
236 1 6.32864 4.81951 -12.6418 21
237 1 -11.2708 2.03744 -8.67417 17
238 1 -0.301819 17.0354 -3.98008 12
239 1 -2.75328 -10.4751 8.60723 19
240 1 5.60335 13.7033 -1.0534 20
241 1 -8.89792 0.882688 12.457 16
242 1 -4.82701 13.2211 -9.32464 11
243 1 7.47952 1.35868 8.90628 21
244 1 -8.13509 -0.0340591 -15.6021 12
245 1 -6.36961 12.0278 -6.39737 16
246 1 3.64215 6.4944 -11.8692 22
247 1 -6.1009 -5.26891 11.038 20
248 1 -0.757976 5.18107 3.50071 26
249 1 -10.4285 5.9782 1.84888 20
250 1 -5.90191 7.56521 4.09677 20
251 1 -3.70328 -8.74389 -11.3088 19
252 1 -8.47608 -10.3002 -0.184657 21
253 1 7.88047 -11.5535 0.0111843 20
254 1 -2.12105 3.18817 -0.526087 26
255 1 -2.74001 2.97485 2.70623 22
256 1 -1.38294 -7.57645 1.29835 22
257 1 10.8089 5.94442 16.9144 11
258 1 4.53413 9.48089 -10.5416 21
259 1 0.919809 13.0353 3.2427 23
260 1 -13.6793 4.47264 -3.68308 22
261 1 -15.4102 11.4659 -6.37191 9
262 1 3.33982 9.35841 12.0344 24
263 1 0.969141 -17.4253 1.71263 14
264 1 13.6972 -2.37922 -3.26748 20
265 1 1.99245 6.9355 8.05897 21
266 1 -11.0735 8.442 3.21234 17
267 1 -11.2424 -5.78508 -3.85897 22
268 1 5.27643 7.7637 -16.7171 9
269 1 1.67878 -0.766421 9.13032 21
270 1 10.1544 10.3993 -10.2853 11
271 1 0.191835 -5.14169 3.05744 23
272 1 -3.39309 -0.576478 -9.93684 23
273 1 -0.0191363 -18.4885 8.23271 12
274 1 9.43023 -1.52087 -8.12046 19
275 1 -13.7595 0.273457 1.75818 24
276 1 4.89786 -13.3607 0.768406 21
277 1 -9.08086 -8.59211 -13.1828 15
278 1 4.68362 16.6185 -2.05064 13
279 1 -4.66041 -5.61003 -12.283 23
280 1 1.0006 7.28843 10.9297 24
281 1 14.2131 3.74346 2.34947 18
282 1 -1.70274 -7.56474 8.55819 20
283 1 7.34376 -9.10832 -11.3227 19
284 1 7.26953 -9.09713 5.25472 20
285 1 -10.3514 5.01385 -13.7873 17
286 1 -8.3272 -0.719109 -6.57113 19
287 1 -6.49618 -13.4357 9.21812 17
288 1 10.528 -1.64097 9.61797 21
289 1 6.4262 -3.69975 8.26 23
290 1 -5.05406 -2.76816 -13.4763 24
291 1 2.47637 -5.97933 10.811 17
292 1 -3.51705 10.308 -14.4019 11
293 1 3.18044 5.6204 -0.565164 25
294 1 -5.27936 -4.58609 1.00135 21
295 1 2.63724 10.5759 3.06777 22
296 1 -10.0507 -0.890864 9.1686 19
297 1 -7.8587 -6.4867 -7.46538 24
298 1 -10.0896 -6.62147 -10.6026 24
299 1 -4.2048 10.1585 -10.8908 21
300 1 -8.71029 -11.5329 -11.3435 15
301 1 -3.77742 -13.7726 4.09953 18
302 1 -2.074 -7.80997 5.23757 18
303 1 7.04748 -6.43241 -13.6891 13
304 1 12.6097 -1.13487 -8.83529 17
305 1 3.2903 -5.64073 2.16872 22
306 1 8.27781 1.82243 5.66519 25
307 1 -2.86665 -6.53039 -7.24859 18
308 1 -10.1488 -8.99787 11.247 14
309 1 -6.49619 -15.9046 -4.12312 14
310 1 6.2276 2.7209 19.496 12
311 1 -6.0972 -11.3893 5.67142 23
312 1 2.27622 3.88146 -4.72001 22
313 1 -2.49219 -11.4717 2.03537 19
314 1 -2.33348 16.111 2.52914 20
315 1 4.66182 -0.633283 -12.4348 22
316 1 -5.2333 -0.741909 -15.7449 14
317 1 6.23887 -5.86267 1.10766 23
318 1 -9.05654 -5.65956 10.801 21
319 1 4.78741 4.92503 18.341 13
320 1 1.29022 -9.96228 -2.13411 19
321 1 -4.83322 -12.688 -8.03569 21
322 1 -12.4733 -4.67691 -9.413 22
323 1 10.3181 3.77817 6.71362 23
324 1 -1.2345 4.5527 -12.8236 18
325 1 4.44904 5.31474 -15.0751 20
326 1 2.05215 -2.78076 3.54991 24
327 1 0.971977 -12.4935 -11.9937 16
328 1 -4.92901 16.1016 0.233588 17
329 1 3.68258 12.2621 5.19677 21
330 1 9.03891 -1.1822 4.08533 25
331 1 -8.06057 0.699591 3.96978 20
332 1 -1.96838 -6.67395 11.9412 17
333 1 -8.88422 5.62559 -0.503878 19
334 1 0.439742 -4.27473 -12.0204 20
335 1 12.7646 9.87435 0.66786 23
336 1 9.5329 -14.2871 2.76183 11
337 1 -2.35715 -1.44204 12.8093 19
338 1 -16.5491 -0.272825 3.0406 14
339 1 1.47813 -15.7696 -1.12774 16
340 1 -7.23629 6.74734 14.8527 10
341 1 -7.26304 8.10191 11.3702 17
342 1 -15.0715 -1.73189 8.11277 12
343 1 -13.4203 -4.50742 6.79556 19
344 1 11.8507 -7.12863 -0.690371 22
345 1 -9.56535 -6.409 7.85319 23
346 1 7.72699 -4.01843 -9.91312 22
347 1 3.04199 -11.5296 -4.63195 20
348 1 3.61494 16.0734 0.778413 21
349 1 1.39898 -3.40339 6.75304 21
350 1 -10.0233 16.0389 -2.64176 9
351 1 5.19808 -0.619778 8.42729 24
352 1 6.22161 3.96789 10.255 24
353 1 -10.3511 0.354649 1.77506 23
354 1 10.1591 -4.17245 -7.2685 22
355 1 -7.75884 13.6569 2.74775 21
356 1 -6.38242 5.82821 1.69875 19
357 1 0.383955 2.65675 1.60438 22
358 1 5.21724 -13.1383 8.28781 17
359 1 11.6008 -4.11084 1.00622 23
360 1 -5.09571 5.01365 7.31513 22
361 1 -6.91111 -2.69862 -7.61317 20
362 1 3.63268 -0.0656009 2.3512 23
363 1 -7.64023 -2.08535 11.808 22
364 1 -1.99177 13.2889 4.2013 22
365 1 9.35008 3.7513 19.097 11
366 1 -9.70085 11.8618 -5.39014 17
367 1 -1.8003 -5.90299 -16.5014 12
368 1 -6.63481 7.25754 -6.57966 23
369 1 3.49787 -12.3203 -13.9925 13
370 1 -6.68656 -0.34491 9.29857 18
371 1 -11.5948 0.982604 4.14165 22
372 1 -3.74764 -3.41658 -8.03365 19
373 1 -4.9149 11.9654 -0.397084 24
374 1 7.29035 -1.28354 10.4324 25
375 1 -7.45604 -9.18268 3.35072 21
376 1 9.74882 -8.85524 6.40004 14
377 1 -4.37768 0.723375 -1.21329 22
378 1 -5.89684 -13.0543 12.5574 9
379 1 -12.0436 5.06422 -0.91367 22
380 1 -4.39835 -3.26798 4.23915 20
381 1 4.65918 -9.36935 -3.07736 19
382 1 -4.18747 -0.666992 -6.66353 20
383 1 6.80127 -2.89568 -14.7372 15
384 1 6.11427 12.1195 7.74707 22
385 1 -11.8782 -2.10918 -8.02156 19
386 1 1.83702 -9.64564 -13.1073 18
387 1 12.3027 4.78967 -11.6324 14
388 1 -0.851117 -15.52 -2.97873 17
389 1 -13.707 -7.21806 -5.52936 15
390 1 -3.67392 -6.67225 -1.06587 21
391 1 10.2735 2.34918 16.2641 18
392 1 -5.16979 -5.20069 -5.62595 19
393 1 11.9337 4.24862 0.384831 21
394 1 -9.03129 4.33422 -10.7494 20
395 1 2.27194 19.0585 3.30099 11
396 1 -14.1385 -1.12357 -4.83582 22
397 1 3.40072 2.65933 0.718907 24
398 1 -8.03889 8.76932 1.68135 21
399 1 -10.4138 12.4399 -2.02773 19
400 1 -4.0266 5.04662 4.10216 19
401 1 8.53478 0.431841 14.704 21
402 1 11.6577 -1.59461 -5.70709 19
403 1 8.67188 -4.05152 10.1731 16
404 1 11.1915 1.04672 -6.93121 22
405 1 -6.18138 -15.2933 -1.04229 16
406 1 2.75608 2.35949 4.16686 22
407 1 -7.99881 6.45595 -3.48255 21
408 1 -1.45888 -9.74924 -4.53544 19
409 1 3.35551 7.77574 4.83443 25
410 1 5.39089 -0.229126 -3.83417 22
411 1 -12.0006 1.61311 -3.5568 20
412 1 2.56062 -12.8564 -1.44272 20
413 1 11.2461 -1.91708 6.33125 21
414 1 -14.8059 -4.97734 -7.9851 14
415 1 -6.02303 -14.12 5.99004 17
416 1 -8.06854 -8.1134 13.5105 12
417 1 -1.68388 11.6699 -1.35977 24
418 1 -11.9029 -8.90844 -3.46432 17
419 1 8.62519 8.51241 15.8625 14
420 1 -9.05615 1.97624 -5.36027 16
421 1 3.31804 11.3354 -8.72392 18
422 1 4.26566 9.60434 8.72683 23
423 1 -13.9442 -6.58866 -2.23397 16
424 1 -3.21763 -13.9152 -2.47923 22
425 1 -11.5429 -1.56909 6.28491 20
426 1 -13.6013 1.91187 -1.08823 21
427 1 7.50872 -11.1561 7.51331 13
428 1 -8.65612 -13.5495 -2.56972 15
429 1 7.55629 9.53933 7.79992 22
430 1 2.10484 7.96066 -15.2361 17
431 1 -10.4132 7.43318 -11.3809 21
432 1 -1.7821 14.8299 -7.79631 13
433 1 -11.4652 3.58301 -6.28235 19
434 1 -0.39862 -12.2907 7.59575 19
435 1 11.7748 6.27726 5.82518 25
436 1 -1.01435 9.92858 -11.7348 19
437 1 -2.05933 -3.11808 7.29237 22
438 1 -14.8082 8.67659 -4.37078 14
439 1 3.49945 -2.49044 -2.52703 22
440 1 -7.04187 4.10262 4.38247 17
441 1 -3.92466 -13.1382 7.74887 22
442 1 -0.658963 -4.08141 -6.35912 22
443 1 6.47606 -9.1995 -8.45432 22
444 1 4.61832 -3.13972 5.95348 24
445 1 -8.80619 3.31518 1.72653 20
446 1 -13.7454 1.31532 8.30902 13
447 1 -13.0117 5.76296 3.81974 15
448 1 1.04326 -7.93337 3.35065 19
449 1 -5.53118 2.21615 -15.7676 16
450 1 10.8585 -13.2482 -3.95728 12
451 1 -0.822092 -7.1677 -1.97921 21
452 1 2.20544 -3.60545 12.707 21
453 1 3.75721 -5.53348 -1.06221 21
454 1 -3.27676 4.53816 -15.1345 18
455 1 4.09463 -13.957 3.78502 21
456 1 4.86519 11.3212 -2.99176 23
457 1 -11.0388 14.2924 4.32359 11
458 1 -4.63023 -1.85392 10.8409 21
459 1 -10.8154 -6.28457 -7.48927 23
460 1 -0.515235 -5.84647 6.25999 21
461 1 6.43336 -1.87348 13.3972 24
462 1 6.62972 2.29201 0.0654093 24
463 1 -5.28727 3.52889 0.258431 22
464 1 1.25327 -1.67705 -5.22094 23
465 1 12.0858 -6.55205 5.91425 16
466 1 -0.0710035 5.46619 0.210299 25
467 1 16.5159 8.95655 -2.53225 11
468 1 -2.66271 0.995755 11.084 20
469 1 -0.194668 14.2324 -2.47608 22
470 1 5.3036 -6.12414 4.36446 23
471 1 3.29025 -16.9309 4.30809 16
472 1 -5.25972 9.89355 11.4123 19
473 1 -4.31596 16.0541 8.0853 10
474 1 -9.44246 -11.9137 -7.98127 18
475 1 5.97398 15.5349 2.91588 16
476 1 4.36295 6.85922 10.2085 24
477 1 -5.96217 -0.732107 5.0988 20
478 1 -3.29573 -7.16454 -3.80824 20
479 1 -8.50074 4.7948 7.26758 21
480 1 -9.48767 -9.01663 -8.59484 23
481 1 -6.1543 10.9353 2.46304 20
482 1 -2.53967 -12.6045 -5.67653 22
483 1 -3.0524 -10.6864 -12.8408 16
484 1 -10.6946 -9.94068 4.99646 16
485 1 -7.49717 -4.26457 5.69739 21
486 1 9.58157 3.84035 10.0875 24
487 1 -5.86579 -10.1348 12.1731 16
488 1 -6.24626 8.78078 -15.7886 13
489 1 9.59515 4.9892 -2.09117 23
490 1 -10.0574 -11.468 -4.73336 15
491 1 2.53358 5.89238 -8.60771 20
492 1 -0.410648 18.8745 2.90794 11
493 1 -2.3839 4.15308 -9.57535 19
494 1 -1.12596 10.3486 7.10908 23
495 1 -13.2881 -3.39021 -2.2997 23
496 1 -1.59948 16.3749 -0.864245 16
497 1 5.58511 11.2018 -6.34177 23
498 1 -7.58601 -13.7113 -9.14518 16
499 1 3.85996 -2.35591 18.187 14
500 1 2.33051 -14.2347 -3.98044 19
501 1 -1.9759 -4.00348 -13.9567 22
502 1 10.5263 -11.2573 1.53275 16
503 1 -8.48348 11.4947 0.181129 21
504 1 2.82352 6.64014 16.3066 15
505 1 11.3642 7.23936 -3.17274 21
506 1 3.72105 10.7839 0.0477652 23
507 1 -9.82177 10.4033 -12.0487 15
508 1 3.15504 2.99534 -8.04118 21
509 1 4.78235 -11.4344 5.66622 21
510 1 -15.702 -4.13062 -1.10183 16
511 1 4.34647 2.97488 -2.46232 22
512 1 2.38026 15.5955 6.81069 19
513 1 -7.8432 6.92683 -12.5829 22
514 1 10.25 7.19527 -0.102365 23
515 1 7.68177 14.1878 -7.10433 10
516 1 8.98954 -6.30974 0.113332 24
517 1 13.2617 1.44956 -1.42644 21
518 1 -0.19756 1.58775 -14.2513 20
519 1 1.80466 -7.88124 0.298489 18
520 1 0.856555 -15.6465 7.56991 21
521 1 3.35108 -8.80318 10.6223 21
522 1 -6.89918 0.0276519 -8.9891 17
523 1 -4.51966 -8.0237 10.0834 22
524 1 2.3439 5.17693 2.53737 27
525 1 -5.07663 -8.31354 -8.57098 17
526 1 6.74975 14.2296 9.95752 12
527 1 0.967258 4.22302 -10.5175 22
528 1 5.65243 -4.35785 15.0965 18
529 1 -11.0575 3.9246 8.55299 17
530 1 6.54222 -16.1557 3.28879 13
531 1 -12.7359 -2.19576 3.60734 24
532 1 10.0153 -3.52184 -4.17055 24
533 1 10.8352 -0.665306 -2.40348 24
534 1 -1.37694 6.68967 -5.11264 26
535 1 -7.59677 3.54998 -1.82573 22
536 1 1.84658 -8.80288 -5.41272 21
537 1 1.92915 4.04815 -13.5766 19
538 1 8.06382 -6.89002 -8.09185 22
539 1 -7.29121 11.9288 10.7901 10
540 1 8.72404 12.4758 -1.74176 16
541 1 -4.56373 -4.58674 -16.0107 15
542 1 8.43019 -8.65715 2.05027 20
543 1 3.0519 -0.405809 -15.5726 15
544 1 -7.97321 -3.61399 9.07792 22
545 1 -3.53829 14.2306 -1.42721 24
546 1 -8.39145 -1.57719 -12.884 20
547 1 -16.5978 1.91556 0.520668 14
548 1 -0.623417 -9.87053 -11.484 22
549 1 -4.602 -7.49106 13.2486 15
550 1 3.52244 8.77724 -7.1717 20
551 1 16.7721 1.14692 6.78141 14
552 1 15.9755 -0.22978 -1.90323 14
553 1 -11.0326 -11.2932 -1.35836 12
554 1 -1.9669 -10.0121 -1.20384 21
555 1 -4.00546 -8.02927 -15.0999 14
556 1 -5.72625 18.0646 5.79314 10
557 1 5.49737 -5.41324 -7.56483 21
558 1 0.644143 8.00251 2.37268 21
559 1 13.1683 -1.63673 0.0873379 22
560 1 1.87041 16.4094 -2.05034 17
561 1 6.57161 -7.8378 -0.80059 20
562 1 7.01092 -2.84573 -3.68059 21
563 1 14.2009 4.55717 -8.80957 13
564 1 6.05076 8.81496 14.1638 18
565 1 -5.68456 -6.25842 4.53779 23
566 1 -5.15086 -4.81776 -2.37297 22
567 1 7.02439 3.08679 15.7979 25
568 1 6.90815 -1.67565 16.3832 17
569 1 0.549878 6.97058 -11.7156 21
570 1 -6.24569 -8.0391 -2.18201 22
571 1 -0.501135 -3.87594 13.1189 19
572 1 5.2411 11.6534 11.0191 19
573 1 6.98231 8.94158 -8.31035 20
574 1 -6.28075 9.21001 -4.51623 21
575 1 -1.08732 13.6492 0.859487 24
576 1 11.7001 -4.54984 10.4857 11
577 1 10.552 2.14668 -12.473 14
578 1 11.1919 -9.11197 -3.5826 22
579 1 13.3746 5.0182 10.8627 13
580 1 -13.528 -5.39138 0.756933 18
581 1 -9.04137 12.4402 -8.50191 11
582 1 -3.57287 -0.306801 7.69676 23
583 1 -11.3581 1.74531 10.5834 13
584 1 -5.64827 7.68207 -10.0451 23
585 1 -1.63197 -16.4963 0.0243668 18
586 1 4.78318 -2.60922 -8.79539 20
587 1 -3.73391 17.3702 -2.59194 13
588 1 -9.19724 -3.83692 -9.38696 21
589 1 6.05812 -11.3212 2.63872 20
590 1 -10.7695 -5.21496 -0.755844 22
591 1 1.09862 12.1153 -10.7537 13
592 1 -6.39732 1.68583 -3.61499 20
593 1 -2.32317 6.5808 12.2058 18
594 1 -9.1783 -6.63968 4.29427 22
595 1 4.92932 8.50743 -1.7132 23
596 1 0.291645 -13.1936 -8.65096 18
597 1 3.74359 -5.8019 17.9714 10
598 1 8.52441 -0.188733 -4.90144 23
599 1 1.80681 0.44704 -0.174068 22
600 1 -10.017 8.48944 -0.574975 23
601 1 5.16975 0.497197 18.2828 14
602 1 6.56242 13.7241 -4.16239 16
603 1 11.5748 -6.39651 -8.57811 17
604 1 0.54736 1.71219 10.6879 22
605 1 8.03981 7.69476 -14.4146 12
606 1 -4.50504 -15.2112 10.56 14
607 1 -4.53801 5.15473 -11.9451 20
608 1 5.84689 -0.00486047 -14.9871 13
609 1 0.0733296 15.7291 5.01927 22
610 1 8.3942 4.39918 -9.90216 22
611 1 -6.0985 -2.37691 -10.6337 22
612 1 -6.91938 -10.6375 -6.67894 22
613 1 -12.2123 -8.19798 -12.4332 11
614 1 11.4332 0.943716 4.96547 22
615 1 13.2491 3.54339 -5.83276 19
616 1 5.96791 -6.8443 -10.7287 22
617 1 15.9312 0.0199205 9.89228 11
618 1 8.99793 -9.86583 -6.54099 22
619 1 9.73522 4.98822 -14.0288 10
620 1 6.98195 12.6648 4.45782 20
621 1 -10.0176 2.16353 -1.01678 22
622 1 6.64511 9.08227 11.3547 22
623 1 12.7053 4.27562 -2.66777 20
624 1 15.9153 2.73995 -0.386819 14
625 1 13.0731 7.22787 -9.74512 12
626 1 5.16876 3.73814 13.4692 25
627 1 14.5713 6.05581 7.65149 18
628 1 4.45365 -6.68053 13.1023 18
629 1 15.5695 8.60073 0.326287 16
630 1 5.84645 1.99526 3.32257 22
631 1 -1.99649 4.11332 15.3989 15
632 1 14.4564 1.51452 -7.56878 13
633 1 11.9263 -3.40029 13.9099 11
634 1 -5.70549 1.77319 -6.85476 19
635 1 16.9307 5.54696 -1.39899 11
636 1 15.0835 -3.54111 2.36763 16
637 1 5.62071 -8.5798 2.588 19
638 1 -7.77473 10.0098 8.87963 20
639 1 9.11458 5.26052 15.1024 18
640 1 13.7162 -2.365 8.59219 12
641 1 7.66667 6.60955 9.59995 23
642 1 -0.558023 15.6414 7.73713 17
643 1 3.97107 4.35767 8.31337 24
644 1 -2.10049 -17.9869 2.80577 15
645 1 -4.31372 12.1584 -3.54687 23
646 1 12.1764 9.92574 -8.02079 13
647 1 9.10725 -3.61888 -13.0001 14
648 1 0.576517 18.5015 6.15277 11
649 1 0.113541 -15.0304 -6.04924 14
650 1 3.3578 -4.92502 -10.1342 23
651 1 -10.1343 4.00089 4.33753 25
652 1 -9.30743 9.97667 -15.3845 11
653 1 -2.91678 -18.6862 6.22201 12
654 1 -4.73861 2.08035 -10.384 20
655 1 -14.5261 3.34176 -6.48919 19
656 1 13.6926 -6.2726 2.96961 16
657 1 10.4799 9.37309 7.0969 20
658 1 5.47536 -9.2896 8.34416 23
659 1 -17.0414 -2.71406 -6.26582 15
660 1 0.96769 3.13134 -1.49969 21
661 1 2.62245 2.63875 -16.448 16
662 1 5.07395 -3.15921 2.6601 24
663 1 2.43679 0.309418 16.2092 17
664 1 7.30665 10.2091 -12.2375 14
665 1 9.60648 -2.15308 12.765 22
666 1 8.06294 5.63845 -7.46 22
667 1 4.39316 0.0386615 -0.747767 23
668 1 9.91721 13.154 3.6522 16
669 1 3.15352 -14.3072 -7.23316 14
670 1 -12.3233 -6.22723 11.9346 10
671 1 14.5865 0.892719 4.21481 20
672 1 0.104274 10.277 12.9939 17
673 1 6.74085 11.8062 -9.2855 17
674 1 -11.632 7.07662 -3.77418 21
675 1 10.3961 9.85587 -1.45458 22
676 1 -8.17134 -12.9678 0.577257 16
677 1 12.3057 1.10047 1.68374 22
678 1 5.49069 14.8456 6.05906 16
679 1 -4.72182 2.30322 9.47624 21
680 1 -11.5095 -0.432381 -1.36258 20
681 1 -10.8089 -1.05965 -4.93775 19
682 1 6.08044 1.22562 12.237 23
683 1 1.66902 -7.71757 8.0091 18
684 1 10.2326 5.99886 12.0106 19
685 1 -4.50282 13.7755 1.9335 21
686 1 8.50661 4.62941 0.971454 22
687 1 5.90007 -2.89329 -0.238398 23
688 1 7.96408 4.54571 4.18938 26
689 1 0.850109 -3.02714 -16.6395 16
690 1 -11.1015 -4.16543 8.71983 21
691 1 6.9188 -0.931529 -10.1904 22
692 1 -0.892154 -8.66017 -7.73226 19
693 1 13.5919 -10.7123 -4.62311 12
694 1 12.6205 3.63163 8.53249 20
695 1 4.75519 4.90442 4.81566 24
696 1 -8.41867 2.52949 9.71188 19
697 1 10.0346 9.05598 10.6853 16
698 1 1.84838 -3.58054 16.1137 15
699 1 -7.0454 10.2889 5.81254 19
700 1 -1.45781 -6.71664 -11.0694 20
701 1 -0.071539 -0.963085 15.1613 16
702 1 -4.94849 -1.27306 -3.62387 20
703 1 2.72482 4.44045 11.4953 26
704 1 -8.42069 -12.2161 3.97972 16
705 1 13.5409 6.92029 -0.681788 20
706 1 5.67873 -12.2521 -2.06057 20
707 1 0.0988415 4.08427 -7.21051 22
708 1 7.09857 10.2403 -0.719394 22
709 1 9.19622 12.4152 6.81505 15
710 1 0.179248 0.167936 -17.1551 14
711 1 -0.574762 2.37043 5.05033 21
712 1 2.11361 13.5277 -0.286638 23
713 1 11.7511 9.16923 3.64367 22
714 1 0.810415 -5.18676 0.0855057 22
715 1 -7.52767 -10.291 -3.39802 20
716 1 -0.514763 3.75411 -16.2188 16
717 1 -9.69657 17.8322 -0.407067 10
718 1 0.661431 -6.10085 -14.8146 16
719 1 5.64343 5.22831 1.66598 23
720 1 9.97803 7.32667 -9.11134 18
721 1 11.0345 12.6657 0.450324 15
722 1 -3.06803 5.7926 1.06127 25
723 1 -7.71422 0.732518 -0.0458599 20
724 1 7.48934 5.49995 -4.74246 24
725 1 11.6548 0.456766 13.7359 18
726 1 5.29239 0.491422 15.0402 20
727 1 6.08955 -8.6963 13.2688 9
728 1 -6.79311 10.8758 -13.2096 14
729 1 3.14748 12.6067 8.3872 25
730 1 5.3515 -9.37647 -13.8856 15
731 1 2.93295 -0.803583 5.75261 21
732 1 9.95659 13.5301 -4.82755 12
733 1 8.71035 9.99079 4.31581 23
734 1 -6.36462 -1.99744 -1.15915 20
735 1 10.5531 -6.9944 -5.81659 22
736 1 5.46433 8.17518 17.3439 12
737 1 -10.2553 -4.28289 5.60734 21
738 1 0.287304 -12.2117 3.85813 17
739 1 -0.314089 -5.07689 -8.74897 21
740 1 -7.20012 11.9866 -3.149 19
741 1 1.7577 2.01762 7.68604 23
742 1 9.91316 -6.34086 -2.69321 23
743 1 6.01239 10.1876 2.21916 20
744 1 -15.1517 -2.77843 1.95329 19
745 1 -0.428841 1.62125 13.8787 21
746 1 -6.30511 5.41593 -14.9787 19
747 1 -8.56845 6.71147 -15.9666 14
748 1 2.39715 -13.4355 6.31604 22
749 1 8.98474 8.3718 -5.73354 23
750 1 8.62196 -6.39927 4.45733 22
751 1 -2.37368 8.2456 3.48114 22
752 1 -9.47292 7.34216 8.72157 15
753 1 2.85 -2.39585 -11.2475 21
754 1 5.49856 -7.14067 16.2904 11
755 1 2.98877 15.0784 4.03807 20
756 1 -5.40877 4.0683 15.2441 17
757 1 -2.63345 -2.05982 -1.25213 23
758 1 -11.1248 -10.1651 -10.389 16
759 1 -1.98883 -11.243 -9.37692 21
760 1 -5.62819 -15.8551 -7.51121 10
761 1 0.348343 14.2496 -5.49234 22
762 1 5.33423 -7.72259 -5.99365 22
763 1 2.77893 -2.67661 0.375841 24
764 1 -3.75775 10.6581 5.17515 21
765 1 5.81542 -12.6929 -8.0229 17
766 1 11.9492 -11.4003 -1.4265 16
767 1 7.15769 -6.34862 7.17318 20
768 1 14.701 6.89839 -3.81032 15
769 1 6.35657 -10.9509 -5.26804 23
770 1 -7.55302 -9.02001 6.48056 21
771 1 0.878484 0.4941 -8.56805 19
772 1 -4.12016 -16.9944 -2.21602 14
773 1 2.25892 -7.16154 -3.08387 20
774 1 0.52494 -1.91319 -1.9171 25
775 1 -10.3775 1.71613 6.92538 23
776 1 -6.46643 -15.0501 2.72127 16
777 1 13.3941 10.1041 -2.64124 20
778 1 -11.0773 16.5253 1.80595 12
779 1 -4.98702 0.806163 2.42482 20
780 1 -14.554 4.65765 0.722856 17
781 1 9.84353 -0.911569 1.0391 25
782 1 -14.1709 -5.63892 -11.4711 11
783 1 -3.16326 9.232 -5.49855 23
784 1 9.21314 1.33266 -9.53969 20
785 1 10.9979 8.36692 13.9465 12
786 1 0.244566 -0.166219 3.32376 22
787 1 8.66343 2.59121 -6.57052 24
788 1 -14.9699 -1.94131 -8.0608 15
789 1 -12.798 -3.89332 -5.8999 22
790 1 -3.78007 6.8546 15.6372 11
791 1 5.79682 6.21394 -9.52449 20
792 1 12.3043 12.1116 5.68747 11
793 1 -0.0609417 -0.629807 6.83847 23
794 1 -3.89622 -14.0402 0.535265 19
795 1 -4.72777 -16.438 7.77073 16
796 1 -1.22289 -1.45755 9.75833 17
797 1 12.9477 8.24992 8.74615 12
798 1 1.4397 -7.24763 -11.286 22
799 1 -6.81591 9.46831 -1.30554 23
800 1 6.3926 7.54606 3.80771 24
801 1 -11.3435 -4.65868 2.71092 20
802 1 7.59863 7.60495 -10.9924 20
803 1 -5.63461 -12.8974 -4.44584 22
804 1 1.55225 -13.4112 1.8464 20
805 1 -0.716053 -13.1302 -0.435805 20
806 1 6.1918 2.99002 -8.61538 22
807 1 5.01707 18.6201 2.29961 10
808 1 -6.68406 -6.41877 -14.1123 15
809 1 -1.54536 2.27208 8.10976 22
810 1 2.61643 5.41413 -17.8011 11
811 1 -11.7079 -0.5574 -13.4033 12
812 1 -14.7692 -1.02421 -1.54029 21
813 1 3.04643 14.0521 -3.19575 22
814 1 7.70846 -0.43526 -1.51349 22
815 1 -7.4353 -3.39056 -15.4408 13
816 1 -4.18096 -9.42618 0.0744608 19
817 1 12.4968 6.76002 -6.81376 18
818 1 11.1636 -6.92141 2.36947 22
819 1 -5.18965 6.69132 12.3928 21
820 1 9.36135 -11.5244 4.71703 15
821 1 14.749 -5.70182 -3.27858 15
822 1 9.70468 -4.87048 7.37067 19
823 1 2.20918 9.85282 6.43575 21
824 1 -9.67403 5.40655 10.9408 12
825 1 -8.76496 6.72019 4.63717 22
826 1 -1.66007 -15.0122 9.12855 17
827 1 9.12087 1.87844 2.596 24
828 1 8.2834 3.15602 12.988 24
829 1 -17.556 -1.39236 0.0892265 13
830 1 8.78794 -11.0509 -3.05105 19
831 1 1.00044 6.42152 -2.99609 23
832 1 -11.3173 9.38972 -6.20469 20
833 1 4.09127 7.98416 1.83922 22
834 1 1.07355 -13.454 9.9357 14
835 1 5.93168 6.02546 15.5821 23
836 1 -2.61735 10.9803 1.91452 21
837 1 3.48245 -15.2425 9.52649 13
838 1 -7.9983 -5.74399 -4.16726 23
839 1 3.92817 1.73482 9.92096 24
840 1 -15.0622 -4.44956 -4.36062 16
841 1 -1.31354 5.38298 17.7658 5
842 1 4.59721 12.9173 2.23839 23
843 1 -9.88796 -9.19649 8.23069 18
844 1 -2.97037 -18.2309 9.48249 9
845 1 7.73234 -3.83061 5.05466 22
846 1 13.7953 -4.02907 5.36985 15
847 1 5.54723 7.24483 7.04399 24
848 1 -0.790536 9.20769 -3.13392 23
849 1 -6.67784 -10.2729 -9.7934 21
850 1 -0.483059 6.45257 -16.3876 12
851 1 -3.56297 1.21311 14.2103 17
852 1 -2.60274 16.41 5.83906 16
853 1 15.2213 -0.276487 1.15422 17
854 1 1.90188 6.63384 -5.99812 26
855 1 -1.75635 9.18565 10.6139 22
856 1 8.57785 10.9347 13.2296 14
857 1 5.70759 -3.74928 -12.0973 20
858 1 -5.81105 -11.8872 -1.31483 20
859 1 -3.29346 1.1912 -4.67735 22
860 1 14.0694 0.57146 7.59997 21
861 1 0.593948 -1.42952 -13.6604 23
862 1 1.70401 12.3495 14.6755 10
863 1 5.27601 -13.5751 -4.85988 17
864 1 4.97127 2.59232 -14.0374 18
865 1 -4.58766 -10.2669 -3.34866 21
866 1 11.0306 7.77116 -12.1717 12
867 1 15.9932 -3.25858 -0.713825 13
868 1 -2.18112 -9.65989 11.9735 14
869 1 -6.14038 -9.79947 -13.0911 16
870 1 2.06373 0.658046 -3.16362 23