ITEM: TIMESTEP
108000
ITEM: NUMBER OF ATOMS
2000
ITEM: BOX BOUNDS pp pp pp
-3.0000000000000000e+01 3.0000000000000000e+01
-3.0000000000000000e+01 3.0000000000000000e+01
-3.0000000000000000e+01 3.0000000000000000e+01
ITEM: ATOMS id type x y z 
1 1 -12.3584 3.84003 -13.4777 
2 1 -4.51981 -8.80435 -11.0835 
3 1 3.70972 10.8518 12.1879 
4 1 5.83719 -12.8001 8.52134 
5 1 -10.265 8.07635 -2.39246 
6 1 10.3393 -10.4924 -8.98806 
7 1 -11.7641 2.19557 -5.4701 
8 1 -1.50617 -7.22294 9.72235 
9 1 -9.21957 2.76999 -10.1363 
10 1 -11.9965 -8.14523 5.83188 
11 1 13.2536 2.14538 -9.38055 
12 1 -3.4681 1.85747 -5.407 
13 1 -4.25413 -11.1696 2.31978 
14 1 -12.8222 -8.66953 2.68574 
15 1 2.36086 3.89824 16.0221 
16 1 7.16349 -1.8512 4.80342 
17 1 -0.826452 4.07885 9.34319 
18 1 7.40111 -1.12069 1.96999 
19 1 0.283092 9.6292 -6.68845 
20 1 2.28486 0.36821 11.9825 
21 1 -9.02304 -3.16148 -14.7562 
22 1 -12.9931 -2.43543 10.5665 
23 1 15.6532 2.78258 7.37468 
24 1 -2.65571 11.8497 -9.54567 
25 1 2.30605 7.1228 -13.7524 
26 1 14.8313 3.06781 12.6645 
27 1 -7.35953 0.328311 1.30087 
28 1 -14.3319 3.7754 -7.65208 
29 1 -3.4531 0.722192 -8.3604 
30 1 -9.9966 9.83584 6.70062 
31 1 6.95077 -12.3793 2.97491 
32 1 0.0862445 -1.79688 12.2116 
33 1 2.33235 -13.0274 -9.31553 
34 1 8.92197 -14.1198 4.42733 
35 1 -7.54305 -13.3097 -6.12983 
36 1 -12.0208 -5.31126 9.59153 
37 1 4.13217 -3.24096 -6.18901 
38 1 0.156563 -8.58057 -12.8325 
39 1 8.47835 -10.8103 -11.9085 
40 1 -3.01923 8.39158 -12.3577 
41 1 -0.71543 4.52331 12.5009 
42 1 0.173708 -11.8035 7.6251 
43 1 6.18871 -2.76583 14.832 
44 1 -13.1433 2.01291 0.708848 
45 1 -16.2408 -3.97377 5.69236 
46 1 -8.85132 -0.219283 -1.81696 
47 1 -0.905288 12.2166 -7.45927 
48 1 0.435873 -15.7064 -9.64256 
49 1 -1.00418 1.3803 -10.2843 
50 1 3.63708 -10.5583 -8.81779 
51 1 -2.40416 -3.30898 14.6194 
52 1 -15.1113 6.2486 -2.61024 
53 1 5.67772 12.7348 -11.7388 
54 1 0.54695 13.9982 8.21708 
55 1 -11.7656 9.39253 -10.3782 
56 1 1.47592 16.6273 -0.0395383 
57 1 1.9447 -13.7919 4.6495 
58 1 6.7533 -7.72932 -5.20911 
59 1 6.45701 -7.97393 -13.4774 
60 1 -8.18327 10.552 9.40196 
61 1 -14.3599 -4.36279 -10.2435 
62 1 7.27925 0.163416 6.8866 
63 1 -7.46576 8.77743 -2.58392 
64 1 -7.42555 -7.33589 10.499 
65 1 -2.88205 13.0444 12.5478 
66 1 -15.493 6.71394 -6.10109 
67 1 -4.8632 7.49999 14.2322 
68 1 1.6277 5.66039 -5.14557 
69 1 2.53479 5.54381 4.69412 
70 1 -5.09957 -15.0282 6.57371 
71 1 2.89203 4.90309 7.88872 
72 1 8.14158 -12.5635 -1.86695 
73 1 3.38615 11.8222 15.2442 
74 1 -14.942 1.46049 -9.86652 
75 1 -13.8025 6.74729 -9.0884 
76 1 4.56597 6.15806 12.8409 
77 1 12.8485 -3.43362 -9.58489 
78 1 5.55948 -13.4535 5.00786 
79 1 -15.2614 -0.408053 5.68504 
80 1 -7.95443 -2.74615 0.649315 
81 1 5.75228 15.5515 7.51395 
82 1 5.05253 -0.313792 13.0086 
83 1 -4.75957 -9.89114 5.35275 
84 1 -10.8807 -2.96837 -1.41384 
85 1 11.8556 2.42506 8.39203 
86 1 9.1313 -2.63689 -3.88657 
87 1 -3.73021 10.3678 7.68042 
88 1 4.62015 -1.63905 7.41671 
89 1 -5.73719 -5.43141 1.74839 
90 1 -6.33942 -6.30951 -11.1385 
91 1 -12.7635 8.28813 6.89895 
92 1 -7.04095 11.8728 -1.73908 
93 1 -2.34197 8.29376 -5.33171 
94 1 4.02457 -0.320567 -6.39314 
95 1 6.95492 -2.3948 -6.58037 
96 1 9.29112 12.0139 -6.81249 
97 1 8.37028 -6.93104 2.47753 
98 1 4.35056 -6.27472 11.8318 
99 1 -5.60922 14.2265 -4.04438 
100 1 -12.4375 13.2727 3.04263 
101 1 -6.54666 -0.584735 12.3481 
102 1 -4.83997 7.44267 1.79286 
103 1 -1.45224 -5.5135 6.25377 
104 1 13.9334 -7.83144 -5.45033 
105 1 -11.1581 7.73517 4.60321 
106 1 -7.21816 -10.1339 3.06802 
107 1 12.3195 -10.4835 -6.30924 
108 1 5.27287 0.271305 -11.0306 
109 1 -10.4422 1.98393 -13.0378 
110 1 4.63841 -0.621916 4.73426 
111 1 0.0839297 9.83873 1.92827 
112 1 -9.24595 8.29316 -12.4718 
113 1 -1.30575 6.07365 18.6507 
114 1 0.405123 14.1644 -5.1766 
115 1 -15.3552 9.86365 -1.07782 
116 1 0.697783 10.4243 -1.04229 
117 1 -0.0283519 0.462653 -4.34431 
118 1 -2.97747 -4.80722 9.05795 
119 1 17.139 4.21806 10.3669 
120 1 1.02428 -3.56967 -9.77429 
121 1 5.53122 -7.80542 -8.62799 
122 1 -2.51602 3.07207 6.71211 
123 1 5.37099 -0.230113 16.6492 
124 1 -9.30531 -8.23486 -1.41924 
125 1 6.5152 -4.20447 1.90555 
126 1 -8.57247 -7.75654 -4.77627 
127 1 11.1032 -9.23399 2.47571 
128 1 -6.6037 4.96621 -0.0624039 
129 1 8.86463 2.27818 -14.4914 
130 1 6.52586 18.0231 -1.22178 
131 1 -5.27157 -10.5209 10.8593 
132 1 -10.354 -13.7537 9.13516 
133 1 -3.2888 5.58769 0.374897 
134 1 4.81837 -9.51039 -15.9066 
135 1 4.29488 5.14838 -6.75506 
136 1 11.8004 -9.37705 -0.642941 
137 1 0.0279067 -17.373 6.18686 
138 1 -9.17429 -7.72893 1.335 
139 1 15.5696 7.66654 8.95771 
140 1 14.6442 -3.22353 -6.68016 
141 1 -16.2931 -2.86509 0.500506 
142 1 7.99029 6.36527 5.94608 
143 1 14.6298 10.0968 3.13686 
144 1 -5.48873 5.02863 13.1507 
145 1 6.81127 5.13591 -1.54988 
146 1 -5.40649 7.87917 8.11188 
147 1 -8.49292 12.988 -7.17448 
148 1 -1.08992 -5.19251 -12.1647 
149 1 8.35209 -13.2188 -7.37934 
150 1 3.29077 15.3851 -11.1159 
151 1 11.4696 -2.71676 12.8839 
152 1 -2.06265 -1.73352 -17.5791 
153 1 -2.99352 5.14408 -4.78854 
154 1 11.4019 1.93359 -3.63212 
155 1 -11.6145 9.05008 -4.8847 
156 1 3.9469 -4.74032 -3.26315 
157 1 -8.23731 15.7054 -2.22128 
158 1 7.80666 1.57583 -11.6703 
159 1 10.5355 -10.9584 5.29465 
160 1 -7.65198 5.37901 -7.87705 
161 1 -8.74897 15.6639 6.44816 
162 1 13.9986 8.52407 -8.91827 
163 1 -1.63768 3.22856 -2.54298 
164 1 8.22062 7.45123 -2.58132 
165 1 -4.30243 15.7725 1.79263 
166 1 9.977 10.0493 -1.82463 
167 1 -2.41916 9.31809 -2.13373 
168 1 1.42893 15.0015 -7.82519 
169 1 3.96413 9.76561 -13.2969 
170 1 -11.9163 -11.4744 1.4678 
171 1 -14.4164 8.96055 -3.80597 
172 1 -5.59845 0.302589 -13.5947 
173 1 2.92163 -12.3534 -15.3192 
174 1 10.4929 11.2836 8.37315 
175 1 -2.57844 15.1346 8.09423 
176 1 -12.9462 -4.0978 -4.38904 
177 1 -13.5581 12.0774 -2.82907 
178 1 14.3883 1.46327 -4.4051 
179 1 -10.1318 -0.0777251 -16.2219 
180 1 7.0527 2.63613 18.2922 
181 1 4.99663 16.9857 4.2788 
182 1 -1.37387 8.49002 6.57524 
183 1 1.32735 -9.35346 -15.5207 
184 1 -7.58261 14.8722 9.6766 
185 1 -0.952948 11.131 -4.50514 
186 1 3.29372 -2.90456 12.3826 
187 1 -8.88733 -4.6872 2.57746 
188 1 -0.955567 -13.4461 -11.1518 
189 1 -10.8618 11.1296 -7.50341 
190 1 -2.69997 -12.5271 5.77464 
191 1 4.28954 -15.378 -4.69573 
192 1 3.94815 13.0669 -8.97939 
193 1 -15.2099 2.48815 7.48977 
194 1 1.90485 6.8616 -1.98108 
195 1 11.1719 10.2102 -5.33804 
196 1 -8.69488 5.48364 12.722 
197 1 0.199232 -10.0131 9.92207 
198 1 -10.1312 3.28255 -0.116818 
199 1 -0.477521 16.2899 5.99187 
200 1 -0.193614 7.34513 9.02515 
201 1 12.8767 5.47883 13.7754 
202 1 -9.48535 14.8889 3.34167 
203 1 10.5973 -6.0015 -9.8662 
204 1 -5.541 12.5997 10.4283 
205 1 -4.31959 6.10484 -7.10982 
206 1 13.059 -7.81516 4.48382 
207 1 -3.62137 -4.76781 3.98214 
208 1 -16.2507 1.5954 4.46326 
209 1 -8.35754 -10.9346 6.07462 
210 1 4.39669 6.4405 15.5319 
211 1 -16.7608 0.893195 -3.558 
212 1 -1.2437 0.844987 -0.638501 
213 1 -5.11773 -18.2313 -1.25706 
214 1 -1.3548 -0.487047 2.39991 
215 1 -4.80882 -2.45879 -4.27383 
216 1 4.99758 -7.61038 -2.5931 
217 1 -1.50853 11.7619 5.60498 
218 1 -7.63955 -0.295782 3.83418 
219 1 2.90102 13.5915 12.1519 
220 1 -8.9564 -0.238925 -5.37026 
221 1 -6.51761 11.1317 -8.36179 
222 1 -11.4013 -1.55819 -7.41246 
223 1 -9.19421 -4.63456 10.0117 
224 1 -1.24188 -12.401 2.95202 
225 1 3.65209 -14.1096 7.37226 
226 1 -14.6019 10.3542 2.21627 
227 1 17.7341 2.7839 1.58245 
228 1 6.03347 2.54856 -6.00949 
229 1 -8.10552 -7.6851 -13.4453 
230 1 5.35731 -0.122278 10.0151 
231 1 -3.73742 -3.11252 1.53963 
232 1 5.87576 -15.5658 0.0775926 
233 1 -6.00444 8.674 -6.23448 
234 1 4.15885 -13.3373 -12.286 
235 1 9.25073 -0.663143 -12.9533 
236 1 4.99752 7.00516 -15.4886 
237 1 -9.04093 -2.86753 -9.17235 
238 1 -2.90783 13.8354 -5.96511 
239 1 -9.00719 -12.5085 11.9822 
240 1 5.59089 15.3564 -0.775171 
241 1 -8.58037 3.14594 14.8807 
242 1 -8.87975 10.1736 -4.97143 
243 1 7.17959 2.05997 9.6296 
244 1 -6.43818 -5.09332 -15.0313 
245 1 -5.94338 11.8754 -5.27717 
246 1 2.96925 5.3183 -10.9417 
247 1 -5.46751 -12.3267 7.25695 
248 1 -0.0744469 4.5367 3.05133 
249 1 -10.3171 6.46785 7.36025 
250 1 -7.87332 7.7408 5.50138 
251 1 0.464008 -10.2386 -8.9942 
252 1 -7.95354 -10.8423 0.179347 
253 1 8.9765 -11.014 0.675902 
254 1 -2.21816 2.18577 1.87753 
255 1 -4.29587 -0.426251 1.07689 
256 1 1.88281 -7.44759 -2.38449 
257 1 11.1191 8.10271 13.6837 
258 1 4.90696 7.76182 -8.05632 
259 1 0.37979 13.4352 0.509007 
260 1 -10.6703 0.397256 1.57854 
261 1 -13.6053 11.5988 -6.17852 
262 1 2.21994 9.00106 9.97096 
263 1 1.05956 -19.0948 -1.66308 
264 1 15.915 0.655179 0.710606 
265 1 2.2183 8.04927 7.16765 
266 1 -14.5165 8.08863 4.20915 
267 1 -10.0722 -3.42823 -5.46041 
268 1 7.51627 4.59109 -13.86 
269 1 2.00531 -1.20427 9.22694 
270 1 9.72329 10.2956 -10.6117 
271 1 3.0242 -9.8695 -3.05281 
272 1 -2.24324 -0.301606 -12.4875 
273 1 1.88232 -18.8528 4.01962 
274 1 9.76793 -1.2879 -7.75227 
275 1 -12.5306 -1.131 3.92825 
276 1 5.35058 -13.7199 -2.09822 
277 1 -9.45394 -6.87847 -10.1742 
278 1 5.31864 16.0804 -4.05821 
279 1 -3.02596 -3.23762 -10.6839 
280 1 1.716 6.00574 11.1208 
281 1 14.613 2.85975 1.83758 
282 1 -1.70875 -9.26404 0.892415 
283 1 11.0561 -8.60606 -11.1397 
284 1 4.31471 -9.06807 4.70769 
285 1 -8.23246 -0.359173 -11.6435 
286 1 -11.7208 2.1542 -8.44741 
287 1 -7.00611 -13.6508 9.74911 
288 1 10.1355 0.0774098 8.53768 
289 1 3.52941 -4.37005 9.03243 
290 1 -4.01762 -5.4162 -12.5147 
291 1 3.46341 -6.21415 6.36972 
292 1 -0.973556 8.34997 -14.7259 
293 1 4.79508 6.35712 -0.0428561 
294 1 -6.22929 -8.97275 0.537082 
295 1 2.71131 11.4525 1.87697 
296 1 -9.83061 -1.35556 11.2664 
297 1 -11.2118 -6.23268 -5.98685 
298 1 -6.20384 -3.97611 -9.54217 
299 1 -2.70015 11.2904 -12.953 
300 1 -6.36984 -7.11347 -8.16401 
301 1 -2.25266 -9.42997 4.178 
302 1 -2.78526 -5.64384 0.388191 
303 1 9.56862 -6.24105 -12.9224 
304 1 13.1784 -0.800333 -7.89797 
305 1 2.00507 -5.10463 3.37272 
306 1 10.5167 0.717649 5.46927 
307 1 -4.25827 -5.68933 -6.19285 
308 1 -10.0053 -8.48425 8.15689 
309 1 -2.93288 -13.2628 -2.55288 
310 1 7.87381 5.44995 17.193 
311 1 -6.6916 -13.1971 4.75854 
312 1 2.30977 2.31764 -5.63234 
313 1 -1.61016 -11.7462 -0.446892 
314 1 -2.2524 17.4226 -0.386993 
315 1 6.23423 -1.23077 -13.2997 
316 1 -5.06764 0.750032 -17.3008 
317 1 3.60232 -5.33328 0.720929 
318 1 -10.2857 -7.37258 11.1831 
319 1 2.10423 7.60172 19.4547 
320 1 0.132277 -11.438 -3.21348 
321 1 -3.68379 -14.0614 -9.82867 
322 1 -11.3425 5.12171 -7.95663 
323 1 11.2094 4.7975 6.11396 
324 1 -5.93929 4.5371 -10.0891 
325 1 -0.836089 8.04729 -9.39056 
326 1 -0.693549 -3.78955 4.15102 
327 1 3.73125 -15.6967 -9.6377 
328 1 -5.05353 15.3958 -1.44122 
329 1 1.8695 12.0264 5.92997 
330 1 10.3235 -1.79145 3.7709 
331 1 -9.25694 -0.14855 6.80041 
332 1 -2.54271 -4.04665 11.7882 
333 1 -9.32454 7.06898 2.46715 
334 1 1.87492 -5.20285 -12.4513 
335 1 15.345 11.2411 -3.23246 
336 1 7.33074 -16.0026 3.0441 
337 1 -2.819 -0.496958 12.8842 
338 1 -17.7184 -1.38956 3.62074 
339 1 2.88489 -15.6671 -1.57425 
340 1 -7.89192 8.12692 12.1369 
341 1 -11.2314 6.73492 12.2274 
342 1 -13.2328 -2.75536 7.22438 
343 1 -14.4887 -6.19377 7.52075 
344 1 15.2098 -4.60145 -0.0832112 
345 1 -12.9725 -8.46542 9.27123 
346 1 9.16532 -3.94552 -9.32688 
347 1 6.09605 -10.8222 -4.10519 
348 1 3.78341 17.543 -2.13529 
349 1 -1.25933 -6.6186 2.77487 
350 1 -10.9245 13.7253 -2.34054 
351 1 1.78487 0.058761 6.31232 
352 1 9.85895 6.58448 11.301 
353 1 -10.2981 1.58845 4.26803 
354 1 10.9453 -7.93507 -5.69013 
355 1 -6.42039 9.86979 2.98937 
356 1 -6.30036 5.35711 3.64903 
357 1 1.18431 1.83587 3.22096 
358 1 5.88343 -9.66068 7.91876 
359 1 11.3905 -4.63027 4.76476 
360 1 -3.51207 5.58121 7.8041 
361 1 -6.80697 -2.87661 -6.59305 
362 1 4.40014 -2.05848 1.81032 
363 1 -2.93067 1.10086 15.932 
364 1 -2.08921 12.8898 2.8101 
365 1 8.86934 8.23006 16.2693 
366 1 -8.6792 13.2493 -4.23637 
367 1 -1.77004 -8.00183 -15.264 
368 1 -5.71564 3.34718 -6.38007 
369 1 6.17556 -11.8628 -14.1972 
370 1 -7.21887 2.90907 11.2549 
371 1 -13.2252 2.06229 3.82414 
372 1 -3.94811 -2.79987 -7.9551 
373 1 -5.02567 9.65768 -0.43046 
374 1 8.0407 -2.41505 9.04554 
375 1 -9.3805 -13.1185 2.72787 
376 1 8.6997 -8.44571 7.17028 
377 1 -3.88864 2.49732 -0.802599 
378 1 -8.28812 -9.20137 12.5457 
379 1 -15.1958 7.37053 0.724071 
380 1 -4.60188 -3.18684 7.08035 
381 1 4.04045 -9.80169 -5.92451 
382 1 -5.04036 -0.959209 -10.763 
383 1 8.27911 -3.34022 -14.4957 
384 1 4.20438 13.5759 4.24296 
385 1 -14.2488 -1.13983 -5.72065 
386 1 3.65223 -10.048 -13.5379 
387 1 10.2311 5.26856 -13.8224 
388 1 -0.438547 -16.017 -3.82267 
389 1 -13.9937 -6.85891 -5.29265 
390 1 -3.76745 -7.83854 -1.3608 
391 1 10.2955 5.22689 15.3745 
392 1 -1.66646 -3.05635 -3.77579 
393 1 12.3669 4.30853 -0.157066 
394 1 -9.60978 5.77692 -10.1374 
395 1 4.29965 17.6712 1.51176 
396 1 -16.8055 -1.8321 -5.93937 
397 1 4.06929 1.56179 1.68429 
398 1 -9.1993 10.1729 3.77501 
399 1 -8.37356 12.4707 1.17083 
400 1 -5.81395 4.67864 6.30221 
401 1 8.65744 3.76528 12.6219 
402 1 11.116 -0.240497 -5.17246 
403 1 9.83415 -3.12213 16.0904 
404 1 12.61 2.22153 -6.48182 
405 1 -7.00946 -15.8382 -4.16882 
406 1 3.4479 2.1404 4.87616 
407 1 -4.11344 6.84281 -1.84153 
408 1 0.825638 -8.08864 -5.15966 
409 1 1.22229 8.81753 4.54913 
410 1 4.67403 1.68752 -3.50589 
411 1 -9.28311 2.96067 -3.5764 
412 1 2.69376 -12.3466 -0.885666 
413 1 10.0118 -2.39037 6.58423 
414 1 -11.4689 -4.404 -9.02414 
415 1 -6.50872 -12.9786 1.24836 
416 1 -7.87338 -5.71934 13.1264 
417 1 -2.17184 11.081 0.410393 
418 1 -11.9024 -8.6874 -3.43507 
419 1 6.53399 10.8087 16.2385 
420 1 -7.77093 5.57603 -2.25354 
421 1 0.62229 11.273 -9.60825 
422 1 4.89616 12.7706 7.07594 
423 1 -14.2997 -6.75115 -1.84762 
424 1 -1.03089 -10.5033 -6.7836 
425 1 -12.203 0.113393 6.56656 
426 1 -12.8434 8.34814 -1.34455 
427 1 8.14288 -11.7354 6.46217 
428 1 -7.83756 -12.6891 -2.36099 
429 1 7.4557 9.81411 6.57874 
430 1 5.05035 6.83091 -12.8111 
431 1 -12.7087 3.8656 -10.5161 
432 1 -1.74425 14.7551 -8.82817 
433 1 -9.19448 5.82048 -5.27085 
434 1 -0.639924 -14.2452 5.5336 
435 1 12.4292 7.7913 4.24933 
436 1 0.205327 10.2392 -12.2981 
437 1 -2.90763 -0.326903 7.59176 
438 1 -15.1302 0.196388 -0.796456 
439 1 3.09526 -0.672618 -3.62336 
440 1 -7.23128 2.28914 5.50823 
441 1 -3.89084 -14.4543 3.71643 
442 1 1.06311 -5.10796 -6.81636 
443 1 7.10334 -10.4968 -8.66926 
444 1 2.4246 -3.45416 6.27044 
445 1 -9.24247 4.64557 4.44284 
446 1 -14.326 -0.164024 9.21187 
447 1 -15.7454 4.99679 5.01327 
448 1 0.580704 -7.52015 5.37116 
449 1 -7.67274 1.52242 -17.7639 
450 1 10.2917 -13.244 -4.88212 
451 1 3.22049 -8.47135 -11.0654 
452 1 0.716021 -5.98268 7.62235 
453 1 3.82368 -6.79335 -5.38978 
454 1 -6.39798 3.4897 -15.4869 
455 1 4.26683 -14.2856 2.46528 
456 1 4.07906 13.5539 -5.6088 
457 1 -12.2539 10.4729 4.03957 
458 1 -1.47469 -1.62504 9.70692 
459 1 -12.7739 -6.90115 -8.43055 
460 1 -5.66935 -5.00179 11.1257 
461 1 8.73884 -4.36284 13.2369 
462 1 7.07148 2.11299 0.161665 
463 1 -5.33841 2.91339 1.73116 
464 1 0.815557 -1.94153 -7.12935 
465 1 11.6787 -5.98406 7.07515 
466 1 0.172458 4.69755 -0.0352087 
467 1 14.0904 8.07834 -4.16251 
468 1 -3.90891 0.641547 10.6996 
469 1 1.93502 11.9834 -3.1585 
470 1 6.27654 -7.47713 5.73105 
471 1 -4.14673 -15.9299 -3.96238 
472 1 -2.39034 6.20474 14.1247 
473 1 -5.9507 16.123 7.33452 
474 1 -9.44633 -11.9672 -8.12104 
475 1 9.92051 14.6247 2.79681 
476 1 4.75089 6.839 9.33202 
477 1 -6.71663 1.8761 8.82966 
478 1 -4.00005 -5.06876 -3.27448 
479 1 -10.5556 4.8876 10.014 
480 1 -8.60614 -5.37378 -6.73289 
481 1 -4.38013 7.748 5.24864 
482 1 -3.99596 -12.6223 -6.36597 
483 1 -2.63342 -11.1051 -12.152 
484 1 -10.4639 -10.2915 4.09469 
485 1 -6.1621 -2.55003 3.21584 
486 1 8.72046 2.85316 6.91757 
487 1 -5.33144 -3.82945 14.0623 
488 1 -11.8606 6.90449 -12.0844 
489 1 10.0566 4.94168 -2.62815 
490 1 -9.8399 -13.6044 -4.43497 
491 1 1.05129 3.93435 -8.45469 
492 1 -1.12039 15.8649 2.50568 
493 1 -0.983473 6.07169 -7.36585 
494 1 -2.52326 9.50397 10.2925 
495 1 -15.3071 -2.2338 -2.96183 
496 1 0.323191 17.4009 -2.7584 
497 1 5.86462 11.21 -6.76887 
498 1 -6.96547 -9.62781 -8.86037 
499 1 3.71469 2.37733 17.8118 
500 1 1.37487 -14.6709 -6.26127 
501 1 0.28658 -2.28841 -12.3513 
502 1 8.41021 -14.2042 0.699114 
503 1 -10.8497 9.17752 0.874313 
504 1 -0.728307 4.25488 15.8244 
505 1 11.332 7.61827 -3.43127 
506 1 3.5538 8.95945 -0.434704 
507 1 -8.73108 10.5783 -10.0213 
508 1 3.84121 2.22491 -8.51473 
509 1 1.06164 -10.5127 4.69349 
510 1 -13.9691 -3.95335 -1.0791 
511 1 4.24912 3.09901 -0.745971 
512 1 2.75962 15.4805 6.32505 
513 1 -6.75133 6.69235 -11.8027 
514 1 10.8524 7.44328 -0.300739 
515 1 6.80906 14.1832 -6.64697 
516 1 6.78577 -6.4375 -0.162992 
517 1 13.4051 1.50979 -1.36602 
518 1 0.245965 1.04087 -13.6077 
519 1 1.28344 -9.93101 -0.157696 
520 1 0.909904 -15.0558 8.54194 
521 1 3.3682 -9.28403 10.2574 
522 1 -8.96278 2.69424 -6.6093 
523 1 -10.8828 -13.242 5.4931 
524 1 3.08626 4.41696 1.83467 
525 1 -3.84617 -8.65439 -7.04943 
526 1 8.01629 13.3841 7.77866 
527 1 1.9695 1.98636 -11.0801 
528 1 2.61856 0.875115 15.4045 
529 1 -13.1625 3.18529 9.86166 
530 1 -2.20046 -19.6889 0.0928924 
531 1 -11.6783 -5.72009 0.0784466 
532 1 10.5533 -5.24414 -3.87674 
533 1 11.3646 -1.12217 -2.13454 
534 1 -0.617299 3.6679 -5.58615 
535 1 -5.04038 9.36568 -3.92201 
536 1 2.40849 -7.95288 -7.88688 
537 1 5.45861 3.26186 -12.1421 
538 1 8.7821 -7.35766 -7.80609 
539 1 -6.0894 6.03392 10.604 
540 1 8.78289 15.3477 0.0237437 
541 1 -1.98629 0.436294 -15.9866 
542 1 0.432812 -6.7296 0.38017 
543 1 4.57098 -1.29709 -16.1749 
544 1 -6.62093 -5.38909 8.14243 
545 1 -2.45862 14.2753 -0.320989 
546 1 -7.08901 -1.37108 -15.8906 
547 1 -15.0102 -0.303321 2.56109 
548 1 -0.236421 -11.4097 -14.2161 
549 1 -4.61452 -8.02554 9.491 
550 1 1.88629 7.09132 -8.10218 
551 1 14.224 4.62411 8.96829 
552 1 15.6082 3.267 -1.39225 
553 1 -10.5 -11.2596 -1.63568 
554 1 -3.74345 -10.385 -3.30755 
555 1 -3.25188 -4.82127 -15.3446 
556 1 -7.6841 12.784 7.33764 
557 1 3.63682 -4.54117 -8.53973 
558 1 1.51674 6.79752 1.52572 
559 1 12.1202 -4.11445 -1.06377 
560 1 4.26006 16.2004 -8.3196 
561 1 4.08947 -8.3942 -0.0203348 
562 1 5.9216 -1.66203 -3.35626 
563 1 13.8753 5.28923 -8.62802 
564 1 5.36454 8.7745 14.4276 
565 1 -10.6404 -3.08613 8.13256 
566 1 -5.23283 -4.08992 -1.07003 
567 1 2.61814 8.34249 13.2445 
568 1 8.23573 -0.0923072 17.132 
569 1 2.16954 3.85197 -13.487 
570 1 -6.03852 -7.83738 -5.11679 
571 1 0.371125 -4.1165 10.4304 
572 1 7.75518 11.1472 10.298 
573 1 7.63281 8.78479 -8.57326 
574 1 -3.48336 10.5152 -6.78737 
575 1 -1.06498 12.8368 -2.25851 
576 1 10.2888 -0.379527 14.353 
577 1 11.3953 2.67127 -11.8663 
578 1 8.25523 -9.4338 -2.02012 
579 1 12.646 7.22259 10.6809 
580 1 -14.0995 -5.84169 1.41576 
581 1 -6.80298 13.4182 -10.2481 
582 1 -0.453174 1.11438 7.75627 
583 1 -12.2739 0.786174 11.677 
584 1 -5.01236 13.7098 -7.84785 
585 1 2.56474 -13.5339 -3.50829 
586 1 5.96777 -2.78589 -9.58015 
587 1 -2.51406 15.4603 -3.29612 
588 1 -8.53057 -4.56462 -11.8282 
589 1 4.55559 -17.2494 3.98686 
590 1 -10.3537 -5.43637 -2.81512 
591 1 2.8226 12.3826 -11.6578 
592 1 -6.4055 0.739103 -3.70756 
593 1 0.881879 7.00234 17.0189 
594 1 -9.43848 -7.69722 4.44168 
595 1 4.95568 7.68688 -2.56418 
596 1 1.13299 -10.8961 -11.5386 
597 1 0.361142 -4.37846 13.9494 
598 1 8.06297 0.372055 -4.659 
599 1 1.63678 -0.325182 1.15077 
600 1 -12.4541 6.49218 1.8417 
601 1 5.01187 5.08003 18.134 
602 1 6.29472 12.8581 -3.62013 
603 1 12.4311 -5.30028 -6.54484 
604 1 1.19868 5.80683 14.1506 
605 1 2.23183 5.03059 -16.7312 
606 1 -4.13918 -13.6263 9.45232 
607 1 -4.14487 1.93773 -11.1656 
608 1 8.22924 -0.401028 -16.2097 
609 1 0.736632 13.9114 3.79425 
610 1 8.9451 4.81893 -10.6088 
611 1 -6.1332 -2.64054 -12.7015 
612 1 -5.42824 -12.895 -3.85179 
613 1 -11.3352 -3.15724 -11.7732 
614 1 11.3753 3.13556 2.45633 
615 1 16.1438 5.53658 -3.584 
616 1 4.81718 -5.68301 -11.5778 
617 1 11.6677 4.08078 10.7934 
618 1 9.05315 -10.4456 -5.76382 
619 1 5.40021 4.19573 -16.8958 
620 1 6.69167 13.7477 1.70917 
621 1 -8.17672 2.68538 2.26572 
622 1 8.34562 9.69975 13.2941 
623 1 13.0667 4.85231 -4.7982 
624 1 15.4931 0.494136 3.8645 
625 1 11.0431 4.56806 -8.19151 
626 1 5.84224 3.56434 15.0762 
627 1 15.5609 6.23124 12.0117 
628 1 1.16357 -7.32814 11.6226 
629 1 12.834 9.93754 -1.67435 
630 1 6.52425 1.49282 3.63357 
631 1 -0.417001 1.18497 14.0621 
632 1 15.4486 0.312516 -7.10887 
633 1 10.4106 0.65437 11.4597 
634 1 -6.53122 1.58877 -8.85147 
635 1 13.12 6.47105 1.94374 
636 1 10.0702 -4.559 1.90116 
637 1 -1.048 -8.70776 -2.10276 
638 1 -10.9888 8.80641 9.80957 
639 1 11.0241 10.0046 11.3404 
640 1 14.0617 1.822 10.1745 
641 1 4.96175 9.8932 8.60273 
642 1 -0.140723 14.4212 11.0015 
643 1 4.45355 1.59912 7.58717 
644 1 -0.806458 -17.9994 2.84623 
645 1 -3.94309 11.9189 -2.3924 
646 1 11.5051 10.5106 -8.36712 
647 1 10.6311 -3.50165 -12.1507 
648 1 1.78527 17.0842 3.5571 
649 1 -0.666888 -13.2315 -7.78415 
650 1 7.73573 -7.6106 -10.6596 
651 1 -11.3432 3.08959 7.00813 
652 1 -6.84224 8.05104 -9.23591 
653 1 -3.84097 -17.505 1.6043 
654 1 -4.71194 4.64114 -13.0905 
655 1 -14.1016 1.06292 -3.80717 
656 1 10.3069 -7.88311 5.07937 
657 1 9.47213 9.84574 3.72537 
658 1 2.51577 -9.06764 7.2465 
659 1 -14.6878 -1.69951 -8.64597 
660 1 1.28835 2.08799 -0.487691 
661 1 2.81612 1.87576 -15.7553 
662 1 4.43112 -3.73164 4.32998 
663 1 0.604426 1.75646 17.2153 
664 1 6.14549 9.36369 -10.8913 
665 1 13.2491 -0.264485 12.8411 
666 1 7.96487 5.80391 -7.61266 
667 1 5.04267 -0.09442 -0.643213 
668 1 11.6474 11.945 2.63501 
669 1 3.06158 -17.0366 -7.37458 
670 1 -8.38052 -2.56113 13.8698 
671 1 13.0955 -1.37159 4.93449 
672 1 0.336807 13.6585 14.5796 
673 1 7.97766 12.1576 -9.08514 
674 1 -10.4579 10.9211 -1.99562 
675 1 8.60792 11.4453 1.17825 
676 1 -9.54295 -13.834 -0.168943 
677 1 15.7733 -2.14967 2.3941 
678 1 7.48289 15.239 4.7719 
679 1 -3.74844 3.68847 10.1959 
680 1 -11.3075 -3.25374 1.59762 
681 1 -11.0282 -0.742401 -10.2502 
682 1 7.86696 -0.182949 11.3198 
683 1 -2.1554 -9.76518 11.7737 
684 1 7.05903 5.48461 10.9682 
685 1 -4.82165 12.2248 1.00295 
686 1 9.4439 4.76299 0.55953 
687 1 6.11647 -3.06682 -0.854246 
688 1 8.7792 3.67523 3.95385 
689 1 2.34261 -3.41472 -14.685 
690 1 -7.79663 -3.41617 6.00845 
691 1 8.10381 -1.28423 -10.3914 
692 1 -1.16178 -7.38702 -7.54119 
693 1 11.7871 -10.5683 -3.81038 
694 1 9.89764 5.33667 8.89637 
695 1 5.41485 4.52024 4.63907 
696 1 -9.02486 0.937337 12.9206 
697 1 7.50163 7.62845 8.64831 
698 1 0.183424 -1.48048 15.8001 
699 1 -3.02352 6.28428 11.0505 
700 1 0.0693938 -5.30664 -15.0851 
701 1 -5.90186 2.12464 14.2891 
702 1 -5.61003 3.98011 -3.23067 
703 1 5.86752 2.70914 12.3389 
704 1 -8.50044 -14.6038 6.20725 
705 1 14.0293 6.43859 -1.72221 
706 1 5.77932 -10.9974 -0.651094 
707 1 -2.86195 3.67034 -8.33895 
708 1 6.86967 10.1409 -1.39566 
709 1 9.70375 12.62 5.44598 
710 1 1.57627 -1.10797 -16.9858 
711 1 -1.26216 1.39228 4.44945 
712 1 1.81743 14.4704 -1.83305 
713 1 11.5021 9.43294 1.32822 
714 1 -0.581162 -5.76506 -3.88691 
715 1 -6.84321 -9.66938 -2.77726 
716 1 -0.321742 3.29476 -15.8119 
717 1 -12.627 11.6725 -0.117143 
718 1 3.36973 -6.99481 -14.6064 
719 1 6.54749 4.64868 1.77639 
720 1 10.4385 7.51236 -9.26295 
721 1 12.9046 12.5452 -2.75011 
722 1 -3.4228 4.91092 4.18835 
723 1 -7.26819 2.59203 -1.06203 
724 1 7.11158 5.04445 -4.78874 
725 1 11.6087 2.57824 13.4569 
726 1 7.67064 0.614312 14.0077 
727 1 -1.05971 -12.9737 10.3132 
728 1 -5.81684 10.1305 -11.7049 
729 1 2.4482 12.1832 9.51557 
730 1 8.21565 -9.38183 -14.9818 
731 1 1.94005 2.01481 9.5165 
732 1 10.3014 13.3923 -3.97725 
733 1 6.87921 12.1833 4.21232 
734 1 -6.12401 -1.514 -1.8233 
735 1 14.2083 -4.58391 -3.66151 
736 1 5.97909 8.24757 17.6043 
737 1 -10.6853 -3.24465 5.13907 
738 1 1.54201 -15.9209 2.98805 
739 1 -1.48317 -1.40591 -9.48002 
740 1 -10.9284 14.9024 0.476138 
741 1 0.933245 3.15275 6.51034 
742 1 6.68656 -4.69589 -4.00998 
743 1 5.87465 10.126 1.76536 
744 1 -14.8049 -3.45121 2.71286 
745 1 -2.19263 2.90918 18.4867 
746 1 -6.72223 6.46749 -14.8582 
747 1 -8.88264 5.06307 -13.1611 
748 1 1.15944 -12.9625 1.93133 
749 1 9.01198 7.9639 -6.01497 
750 1 5.21104 -6.7051 3.08173 
751 1 -1.62181 7.53195 3.0154 
752 1 -13.64 7.02992 10.0906 
753 1 3.69181 -2.54418 -11.5532 
754 1 2.44026 -12.4393 9.8611 
755 1 3.28764 14.372 1.38903 
756 1 -4.03186 4.62795 16.2121 
757 1 -2.64991 -2.25382 -1.00333 
758 1 -9.69774 -8.48935 -8.11106 
759 1 -2.90578 -11.0613 -8.9541 
760 1 -5.28061 -15.347 -7.13697 
761 1 -1.0216 16.4402 -6.0183 
762 1 6.13625 -5.19622 -6.93729 
763 1 2.83851 -2.59903 -0.644877 
764 1 -4.91736 13.2026 7.73252 
765 1 5.58137 -13.1468 -9.4668 
766 1 10.7414 -12.4027 -1.58364 
767 1 5.50858 -6.95898 8.82404 
768 1 15.5062 4.35775 -5.93381 
769 1 4.44008 -12.9229 -6.35997 
770 1 -9.6228 -5.79985 6.53251 
771 1 0.773432 0.853555 -7.40369 
772 1 -5.67679 -14.8051 -1.32073 
773 1 -6.61373 -10.6089 -6.13478 
774 1 1.47476 -3.04995 -4.12504 
775 1 -9.92531 1.35319 9.29395 
776 1 -6.88903 -16.659 1.20921 
777 1 15.9339 7.31472 -6.53492 
778 1 -6.58694 16.0058 3.74651 
779 1 -4.33629 1.61994 4.46582 
780 1 -14.7996 4.39878 2.45232 
781 1 10.5325 -1.8476 0.677889 
782 1 -13.8751 -1.5372 -11.6081 
783 1 0.837806 9.0054 -3.47455 
784 1 10.1303 1.48253 -9.17787 
785 1 6.06992 12.3913 13.0745 
786 1 1.55396 -1.72665 3.79267 
787 1 9.16597 2.62768 -6.46085 
788 1 -15.722 1.16593 -6.57108 
789 1 -14.2144 -4.20641 -7.14672 
790 1 -1.66391 8.75381 16.2693 
791 1 5.6059 5.70476 -9.85798 
792 1 12.2538 10.6227 5.55167 
793 1 -0.304213 -2.3604 6.68333 
794 1 -4.12771 -14.1565 0.897417 
795 1 -6.27264 -16.6069 4.0716 
796 1 -4.10111 -6.86559 6.37883 
797 1 13.2207 9.46057 8.35969 
798 1 0.825266 -6.73891 -10.0297 
799 1 -7.8415 9.52949 0.3918 
800 1 6.7722 7.5673 3.51553 
801 1 -11.6086 -5.80462 3.66835 
802 1 8.35773 7.28244 -12.0278 
803 1 -2.47444 -16.5913 -1.76709 
804 1 0.891245 -19.9292 1.00946 
805 1 -0.0253934 -13.9912 -0.69723 
806 1 7.04447 2.90332 -9.13844 
807 1 7.49481 17.0426 2.11197 
808 1 -3.81862 -2.32826 -14.4474 
809 1 -0.917313 1.5029 11.3046 
810 1 -0.627544 5.94888 -13.7327 
811 1 -12.164 -0.00215359 -13.6234 
812 1 -11.9134 -0.97574 -4.20682 
813 1 2.14327 16.41 -5.31761 
814 1 8.1669 -0.755913 -1.40689 
815 1 -4.92237 -7.8536 -13.9886 
816 1 -6.7084 -6.8363 -1.81495 
817 1 12.0387 7.31294 -6.87953 
818 1 10.3232 -6.87855 -0.516898 
819 1 -7.19268 6.12058 15.0474 
820 1 7.97398 -9.84876 4.24289 
821 1 12.7882 -6.58975 0.980826 
822 1 12.8635 -0.928166 10.0532 
823 1 -0.171911 10.5199 8.02725 
824 1 -11.3097 3.57609 13.0024 
825 1 -8.33221 7.67451 9.03598 
826 1 -2.16473 -15.7772 7.99781 
827 1 9.426 0.819335 2.32444 
828 1 7.65109 6.49394 14.1123 
829 1 -13.4129 -1.5084 0.648063 
830 1 8.68235 -6.3686 -2.86147 
831 1 1.2044 3.67762 -2.94601 
832 1 -11.9127 13.793 -5.36682 
833 1 3.42689 8.5998 2.61138 
834 1 3.37284 -17.1168 6.95568 
835 1 2.49554 3.25559 12.8256 
836 1 -2.57245 10.0055 3.49212 
837 1 3.51646 -11.5833 6.49944 
838 1 -7.92545 -2.99869 -3.55954 
839 1 3.96604 3.58528 10.4575 
840 1 -16.0366 -4.86541 -4.01208 
841 1 0.149444 12.0976 16.9664 
842 1 4.43541 11.9146 -0.633049 
843 1 -11.203 -10.9856 7.58952 
844 1 -3.0634 -17.1402 5.24471 
845 1 6.328 -4.36986 6.87556 
846 1 10.7759 -4.96576 10.3327 
847 1 5.19173 7.2817 6.42682 
848 1 -0.919424 6.17396 -2.48474 
849 1 -1.6342 -8.30704 -10.2765 
850 1 -1.84413 3.15987 -12.8734 
851 1 -5.72392 1.82822 17.1852 
852 1 -3.73185 15.8044 4.95742 
853 1 13.4624 1.73117 5.30583 
854 1 2.9921 8.09779 -5.12134 
855 1 -2.63164 9.79125 13.3683 
856 1 5.85358 8.75877 11.2535 
857 1 7.26137 -4.31976 -11.9465 
858 1 -4.92435 -11.5841 -0.91015 
859 1 -5.87153 -0.187054 -6.86934 
860 1 14.285 -0.208921 7.58963 
861 1 1.8228 -0.497235 -9.53442 
862 1 0.471304 10.6632 14.463 
863 1 6.16241 -15.5363 -7.3641 
864 1 8.74472 3.41213 -16.8789 
865 1 -2.61248 -7.80111 -4.75999 
866 1 12.4918 5.63908 -10.9491 
867 1 12.9201 -3.153 2.134 
868 1 -1.50967 -6.64734 13.5037 
869 1 -6.19252 -10.3624 -12.3825 
870 1 0.285694 -1.35332 -1.76585 
871 1 8.0415 12.9668 -1.52965 
872 1 1.5827 -8.17878 2.66458 
873 1 -12.88 4.97256 4.92088 
874 1 10.4133 5.29641 -5.41454 
875 1 15.6146 6.00201 2.66168 
876 1 7.12956 -6.40894 -15.688 
877 1 -6.56244 9.82974 6.36362 
878 1 15.4691 9.63914 6.10042 
879 1 12.7891 13.0294 -6.01362 
880 1 6.09124 1.61886 -15.2189 
881 1 9.21546 -3.85628 -0.925454 
882 1 -11.4984 0.343236 -1.54217 
883 1 9.72064 6.84627 2.82214 
884 1 -12.0712 -8.5328 -0.275592 
885 1 -13.8321 9.37948 -7.63452 
886 1 5.98281 4.11229 7.76615 
887 1 -8.67227 -0.433304 -8.38918 
888 1 -8.48072 4.31973 8.10313 
889 1 -3.4527 5.73677 -10.3023 
890 1 13.1299 -8.408 -8.50783 
891 1 -11.8595 -9.22179 -6.69042 
892 1 13.1507 -6.57139 -2.13164 
893 1 -12.8823 5.24522 -0.28743 
894 1 -6.93673 -5.45157 -4.83682 
895 1 10.3084 8.20798 6.92086 
896 1 -6.63623 -6.25202 4.46229 
897 1 8.92225 2.63439 15.2998 
898 1 12.3464 -3.30746 7.86159 
899 1 8.43701 -4.76192 4.87449 
900 1 -11.4642 3.89037 2.57967 
901 1 0.0379522 11.2418 11.5007 
902 1 2.16086 8.51973 -10.8806 
903 1 -3.73104 -10.5201 -14.7786 
904 1 -4.91269 12.0528 4.74375 
905 1 -10.9311 -10.5616 10.8751 
906 1 7.94522 10.6172 -4.47894 
907 1 -0.368445 8.06005 12.1718 
908 1 13.8684 -1.63223 -0.0868186 
909 1 7.70345 -6.17525 10.8555 
910 1 -1.01347 13.368 -11.2776 
911 1 2.58252 11.1485 -6.42658 
912 1 1.10922 -4.52717 -1.84079 
913 1 -4.64477 -2.1309 10.3921 
914 1 16.4609 3.70825 4.15906 
915 1 -3.49185 -5.96261 -9.25866 
916 1 14.183 12.3004 0.220789 
917 1 -15.6802 3.12545 -1.41467 
918 1 -2.71073 -10.7073 9.07806 
919 1 6.56926 15.2674 -9.69728 
920 1 6.13637 -3.24798 11.1342 
921 1 -1.42139 -13.1361 -5.26627 
922 1 -7.68047 14.9278 0.623709 
923 1 -12.1424 6.09339 -3.73514 