ITEM: TIMESTEP
802000
ITEM: NUMBER OF ATOMS
2000
ITEM: BOX BOUNDS pp pp pp
-30.0 30.0
-30.0 30.0
-30.0 30.0
ITEM: ATOMS id type x y z Coordination
1 1 -12.6805 6.14212 -12.0361 14
2 1 -5.33491 -12.3441 -11.3737 13
3 1 1.60611 12.8179 11.9186 18
4 1 -1.32569 -15.4554 5.85319 20
5 1 -9.4702 5.87178 -6.1696 24
6 1 8.8194 -12.1711 -8.81099 16
7 1 -12.6918 6.74602 -6.49045 18
8 1 -0.114378 -3.46615 9.91497 20
9 1 -12.078 2.85317 -12.0108 15
10 1 -11.9226 -7.03209 6.0931 17
11 1 12.122 1.67451 -9.88257 17
12 1 -3.42122 7.11002 -7.90239 25
13 1 -6.38149 -7.31564 1.35401 21
14 1 -12.4167 -7.91306 3.32573 14
15 1 3.13264 0.811977 13.1698 21
16 1 8.44762 -1.27355 7.33819 25
17 1 -2.60838 4.55562 9.75358 23
18 1 6.79134 -0.925048 1.55994 21
19 1 -4.55502 6.66305 -4.59018 24
20 1 4.43651 -1.63482 11.2814 21
21 1 -11.2177 -3.22379 -11.9911 17
22 1 -12.7959 -0.855724 10.3578 16
23 1 13.259 3.9622 5.81616 22
24 1 -1.95069 10.1513 -8.87208 20
25 1 -0.923433 8.49378 -14.2547 15
26 1 13.7271 2.18642 12.0715 12
27 1 -6.93833 -1.61235 1.76995 21
28 1 -9.76579 -1.22166 -10.2195 18
29 1 -2.36075 1.54856 -7.87226 24
30 1 -9.02282 12.4329 7.23383 14
31 1 3.9405 -10.5111 0.0111275 18
32 1 1.20409 -1.30283 12.1548 23
33 1 0.956035 -4.67189 -3.48006 23
34 1 7.03768 -13.9021 5.20363 15
35 1 -8.12136 -13.5248 -6.10865 17
36 1 -14.1997 -3.5239 10.5537 11
37 1 4.58185 -5.41066 -4.21641 21
38 1 -7.18119 -7.42584 -10.4068 21
39 1 6.40478 -12.1918 -11.1918 13
40 1 -3.05574 6.31481 -14.1058 21
41 1 3.49603 6.09499 13.8158 21
42 1 4.06097 -8.60702 5.22334 22
43 1 1.92296 3.17875 14.7792 20
44 1 -16.0495 4.23784 -2.09769 13
45 1 -15.841 -2.30548 5.24885 12
46 1 -8.58731 -0.378355 -2.94493 20
47 1 0.192827 12.3078 -7.83224 20
48 1 -2.3461 -14.6262 -8.27909 13
49 1 -0.296134 -1.78871 -10.8984 23
50 1 3.63751 -10.7892 -7.44846 21
51 1 1.62907 -7.49922 12.5874 19
52 1 -15.6757 8.33373 -6.88405 13
53 1 3.75912 12.0511 -12.2131 13
54 1 0.130175 12.6504 6.23626 21
55 1 -7.87856 9.87261 -10.4722 18
56 1 1.27533 16.1102 1.49173 23
57 1 1.70132 -16.1543 4.1008 23
58 1 3.01831 -7.95254 -8.43597 24
59 1 3.40611 -3.78019 -14.3248 21
60 1 -6.17667 12.9452 8.36914 17
61 1 -13.5287 -7.43358 -9.25211 15
62 1 4.9932 1.89121 6.50758 20
63 1 -14.4913 10.2624 -9.49053 12
64 1 -6.39711 -6.10479 7.94301 21
65 1 -1.60229 12.4539 12.756 13
66 1 -13.9414 3.81762 -9.61302 16
67 1 -3.30263 3.76126 12.7977 22
68 1 -0.637472 7.24849 -8.39424 22
69 1 1.67553 4.60879 5.78206 24
70 1 -3.45428 -12.3982 10.341 17
71 1 0.543682 4.62141 9.04792 25
72 1 10.4217 -13.7545 -0.249617 15
73 1 -7.98136 4.34787 16.4037 7
74 1 -13.1335 0.384667 -10.446 17
75 1 -12.6558 9.25411 -12.1083 12
76 1 -0.62581 12.6629 9.52944 21
77 1 11.1728 -3.80301 -10.7055 13
78 1 3.30609 -10.5869 8.27511 21
79 1 -14.3985 0.394194 5.87402 14
80 1 -9.13369 -2.47298 0.35156 23
81 1 3.87671 15.807 9.02792 13
82 1 -0.66764 -6.22853 14.8135 13
83 1 2.68331 -5.96219 5.27761 23
84 1 -12.4322 -2.58605 0.225321 21
85 1 9.8964 1.07481 11.2137 21
86 1 7.23382 -2.65932 -6.69402 23
87 1 -6.57186 7.83334 7.51867 19
88 1 4.71695 -6.25715 7.77923 25
89 1 -2.08709 -4.48916 0.272394 22
90 1 -10.1018 -5.70585 -13.8604 13
91 1 -9.28638 9.02832 6.15943 15
92 1 -9.25515 9.66493 -3.51569 20
93 1 -3.37976 4.34729 -6.31324 25
94 1 3.04958 -0.0539607 -6.38896 20
95 1 4.27788 -2.92671 -5.85029 21
96 1 8.66332 10.985 -7.34831 19
97 1 11.5279 -9.00672 4.11662 14
98 1 6.69152 -6.52581 10.0062 16
99 1 -5.89806 15.5864 -3.58913 13
100 1 -11.2504 15.4479 -0.949386 12
101 1 -8.07664 -1.76472 14.5179 13
102 1 -4.67288 8.8913 1.06677 23
103 1 -3.9694 -5.58643 6.4436 21
104 1 12.3097 -9.11021 -6.68808 16
105 1 -7.84533 15.4168 6.69864 14
106 1 -3.82181 -9.03562 3.0448 21
107 1 11.3462 -12.4046 -6.48965 11
108 1 4.08792 0.504208 -9.85496 23
109 1 -5.6447 0.321742 -12.4146 22
110 1 6.02492 -0.756286 4.98999 24
111 1 -0.0523715 10.2743 4.04136 20
112 1 -11.522 8.34078 -14.4702 12
113 1 -0.659153 1.9528 17.0802 12
114 1 1.43635 11.0803 -2.46777 21
115 1 -12.2774 9.51376 -2.04504 16
116 1 0.490958 10.7888 0.749969 23
117 1 -0.0375862 1.19086 -5.45653 22
118 1 1.47317 -10.6307 5.38902 18
119 1 12.6577 -0.953596 11.0757 17
120 1 1.63236 -2.78742 -7.97765 22
121 1 1.82895 -5.71791 -6.26557 22
122 1 -3.85357 2.42746 6.00174 20
123 1 9.08581 -3.03271 16.2954 14
124 1 -9.18526 -8.03528 -1.97737 20
125 1 8.38594 -3.53285 2.14585 24
126 1 -9.5763 -8.20825 -5.40583 23
127 1 14.7915 -5.99632 -0.0558144 14
128 1 -5.65607 6.43718 -1.25093 22
129 1 7.60377 2.65701 -14.914 12
130 1 2.33727 18.5921 -0.130374 13
131 1 -3.12487 -4.35628 12.7979 19
132 1 -8.18966 -11.1729 10.2904 15
133 1 -2.41717 6.07738 -2.28903 21
134 1 3.66034 -6.71216 -12.7653 23
135 1 4.6147 5.15439 -6.9484 22
136 1 14.3467 -8.7439 -1.91302 14
137 1 2.49648 -13.3078 10.1626 14
138 1 -9.46053 -7.22923 1.27777 21
139 1 15.2858 3.9992 9.37932 13
140 1 13.7088 -4.45841 -8.06724 11
141 1 -16.9474 -1.47691 -3.3443 19
142 1 8.79645 6.92121 6.48875 25
143 1 13.1256 12.462 2.59425 13
144 1 -6.57763 1.35876 15.026 13
145 1 6.4218 5.02242 -1.32237 24
146 1 -4.29983 10.4271 8.30042 23
147 1 -2.6781 14.8305 -4.52461 18
148 1 -2.71754 -3.59375 -9.76739 22
149 1 8.27814 -13.1129 -5.62075 15
150 1 1.70521 14.8029 -8.64565 11
151 1 10.5661 -0.902775 16.2843 14
152 1 -2.55753 -0.542089 -13.817 21
153 1 -4.60302 3.9393 -3.11054 20
154 1 10.9498 2.06975 -3.69339 19
155 1 -9.82027 13.5932 0.954693 19
156 1 6.66835 -5.4333 -1.76903 24
157 1 -6.43599 17.5222 -0.623318 14
158 1 7.04898 1.67186 -11.6658 22
159 1 13.2288 -9.13592 1.07176 14
160 1 -8.19361 3.43299 -8.06915 19
161 1 -5.55869 13.3358 5.09383 21
162 1 11.003 4.25804 -8.23333 21
163 1 -1.24419 3.6469 -4.17474 22
164 1 7.99136 7.73621 -2.40903 23
165 1 -5.62224 16.7157 2.76846 19
166 1 7.01975 16.6431 0.105701 9
167 1 -3.98611 9.04244 -2.15392 22
168 1 2.5336 16.4629 -5.20131 12
169 1 4.67991 9.29866 -13.7348 17
170 1 -10.5279 -10.3153 1.89534 16
171 1 -13.6582 7.39974 -9.13613 16
172 1 -3.12896 0.891584 -16.4282 15
173 1 -0.383957 -11.7324 -14.0435 12
174 1 7.92926 11.4646 10.1663 13
175 1 -3.96015 12.5994 10.5231 15
176 1 -9.808 -3.56041 -5.86986 20
177 1 -12.9449 12.3403 -4.45622 12
178 1 14.7579 -1.85603 -6.26739 12
179 1 -3.70221 2.77334 -13.7489 24
180 1 7.52678 -5.27015 17.6288 9
181 1 3.06319 17.4362 5.88929 14
182 1 -0.0171756 7.61397 5.53726 22
183 1 2.74901 -8.97873 -15.6697 14
184 1 -5.24842 11.898 13.1621 11
185 1 -0.496377 11.8988 -4.52969 23
186 1 4.1312 -2.76815 14.1094 23
187 1 -7.55874 -5.00903 -0.944302 22
188 1 -1.96628 -13.7927 -11.4321 11
189 1 -12.2017 12.4755 -7.66018 12
190 1 -5.69433 -10.7838 8.53999 22
191 1 5.16148 -15.8815 -1.89705 14
192 1 2.58627 11.6593 -5.68048 21
193 1 -12.4301 2.95376 6.06589 18
194 1 1.67047 8.25362 -0.920292 21
195 1 10.9575 10.617 -5.05482 20
196 1 -6.68014 3.71205 12.8689 16
197 1 1.82282 -8.98557 15.4964 9
198 1 -11.2816 6.084 -9.01404 18
199 1 -3.5563 18.9321 3.48217 13
200 1 -0.741116 7.50402 8.76823 24
201 1 11.6802 4.03086 13.9041 15
202 1 -8.53768 16.3197 1.06919 17
203 1 9.16362 -6.68128 -10.8323 17
204 1 -3.03316 9.19669 13.3 16
205 1 -6.7399 4.48037 -5.3686 22
206 1 11.9343 -3.87325 -2.08839 21
207 1 -2.90296 -5.84466 3.28423 20
208 1 -14.6829 2.79624 3.29196 15
209 1 -8.07996 -11.5493 6.69946 17
210 1 6.35433 5.58625 12.5778 23
211 1 -19.1023 0.0967274 -5.1655 9
212 1 -1.32848 1.03814 -2.42292 23
213 1 -4.50496 -17.6833 0.862322 11
214 1 -1.79847 0.737813 0.719831 22
215 1 -5.60675 -4.83031 -8.85911 22
216 1 6.94016 -7.73063 -3.68261 18
217 1 -2.91516 13.0608 7.07242 21
218 1 -9.5711 -2.44867 3.66889 21
219 1 4.25772 11.6008 14.2051 13
220 1 -17.5883 3.54986 -5.35132 13
221 1 -5.11924 10.1306 -7.86979 22
222 1 -13.434 0.962345 -6.91194 24
223 1 -10.4053 -2.69909 12.323 17
224 1 -3.8106 -16.543 4.14513 15
225 1 4.60778 -16.521 6.01033 15
226 1 -11.1729 10.6187 0.881798 17
227 1 16.4606 3.78801 4.33833 13
228 1 5.42929 2.14125 -5.74049 20
229 1 -7.98668 -4.4499 -11.4699 22
230 1 5.96014 -4.13064 11.8143 20
231 1 -3.49547 -2.05411 1.94702 18
232 1 7.46682 -15.8314 0.110143 13
233 1 -5.52328 4.80062 -8.65552 24
234 1 3.46288 -12.5761 -10.1311 16
235 1 8.13201 -0.490277 -13.7599 16
236 1 6.5633 4.54427 -12.8495 17
237 1 -10.8889 1.82462 -8.93069 15
238 1 -0.549103 16.745 -3.79167 12
239 1 -2.1766 -10.4848 8.55793 21
240 1 5.37108 13.4384 -0.983972 23
241 1 -8.28779 0.415388 12.5577 15
242 1 -4.73927 13.3189 -8.76797 11
243 1 7.27013 1.32362 8.91173 21
244 1 -8.06082 -0.0204993 -15.5194 13
245 1 -6.67319 12.7719 -6.15811 16
246 1 3.51061 6.73158 -12.3032 18
247 1 -5.39761 -4.9495 10.8149 22
248 1 -0.553102 5.39887 3.28853 24
249 1 -10.0148 5.87711 2.0538 19
250 1 -5.5744 8.22007 4.2953 20
251 1 -4.12465 -8.85266 -10.7262 17
252 1 -7.71226 -10.2429 0.240525 22
253 1 7.62302 -11.0283 -0.188242 21
254 1 -2.29885 3.40702 -0.881177 20
255 1 -3.04516 3.15867 2.51187 22
256 1 -1.29564 -7.63483 1.3589 22
257 1 10.6097 5.65845 17.2871 10
258 1 4.46198 9.30693 -10.5186 23
259 1 1.39783 12.9092 2.97859 22
260 1 -13.5079 4.7277 -3.53937 22
261 1 -14.9301 11.5132 -6.82793 10
262 1 3.35955 8.5092 12.2089 21
263 1 1.1722 -17.8121 1.49161 15
264 1 13.4688 -1.97009 -3.14113 18
265 1 2.35458 6.98861 8.05836 24
266 1 -11.2125 8.49807 3.63424 14
267 1 -11.2266 -5.60715 -4.13142 21
268 1 5.16759 7.3469 -16.2876 10
269 1 1.96711 -0.838751 9.05685 22
270 1 9.43861 10.3058 -10.3526 14
271 1 0.149954 -4.90212 2.81015 23
272 1 -3.43179 -1.11155 -10.2717 21
273 1 0.184056 -17.7964 7.60415 13
274 1 9.2879 -1.141 -8.15661 19
275 1 -13.5612 -0.136468 1.25068 21
276 1 5.34698 -13.5293 0.643521 23
277 1 -9.20045 -8.83929 -12.4745 16
278 1 4.66853 16.8413 -2.39689 12
279 1 -4.98802 -5.40168 -11.7219 20
280 1 1.38905 6.83088 11.3454 21
281 1 14.0378 4.15128 2.75991 20
282 1 -1.78267 -7.08132 8.52095 21
283 1 7.66358 -9.39257 -11.065 17
284 1 7.45608 -8.98313 5.23556 23
285 1 -9.65576 4.79766 -13.1482 19
286 1 -7.87079 -0.201025 -5.98244 17
287 1 -6.55654 -13.6948 8.67089 18
288 1 10.4881 -1.97424 9.786 22
289 1 6.72188 -3.6806 8.5046 23
290 1 -5.37794 -2.94476 -13.1412 22
291 1 1.45108 -5.90255 8.61052 22
292 1 -3.72119 10.1781 -14.5997 13
293 1 3.22822 5.59863 -0.744911 24
294 1 -5.14787 -4.29942 0.669456 20
295 1 2.82243 10.2445 3.27434 21
296 1 -9.85891 -0.668184 9.51391 19
297 1 -7.98138 -6.01471 -7.35507 21
298 1 -10.3342 -6.23512 -10.8185 23
299 1 -4.60015 10.6863 -11.2175 18
300 1 -9.00283 -12.2929 -11.651 12
301 1 -3.30728 -13.3998 4.05922 19
302 1 -1.79241 -7.84458 5.06172 19
303 1 6.93825 -6.2717 -13.0115 18
304 1 12.8887 -1.29985 -8.59993 16
305 1 3.22107 -5.69953 2.21771 21
306 1 8.30852 1.38732 5.69943 21
307 1 -2.39673 -6.53819 -8.06493 19
308 1 -10.0873 -7.99641 11.214 14
309 1 -6.60208 -15.7235 -4.2814 13
310 1 6.82196 2.11784 20.9539 7
311 1 -5.00464 -10.9758 5.0488 22
312 1 2.11257 3.47164 -5.06641 22
313 1 -2.33585 -11.6005 1.94586 17
314 1 -2.02752 16.3067 2.50975 22
315 1 4.89887 -0.616615 -12.6323 20
316 1 -5.1403 -1.50966 -15.6027 16
317 1 6.10148 -5.75418 1.50292 22
318 1 -8.83686 -5.15791 11.2566 19
319 1 5.41478 5.10625 19.3141 12
320 1 1.08904 -9.88968 -2.20671 21
321 1 -4.78383 -12.6444 -7.98307 20
322 1 -12.3349 -4.15517 -9.29031 20
323 1 9.92221 3.93111 6.19258 22
324 1 -1.35712 4.00981 -12.7994 15
325 1 4.11884 5.01623 -15.0289 16
326 1 2.01181 -2.87032 3.79621 23
327 1 0.926877 -12.1274 -11.9979 17
328 1 -3.56707 18.3358 0.699149 15
329 1 3.95899 12.5474 5.3095 22
330 1 9.44058 -1.06833 4.12307 23
331 1 -7.84702 0.634648 4.00343 22
332 1 -0.994374 -5.99 11.4821 21
333 1 -8.74313 5.34155 -0.601747 22
334 1 1.07953 -4.77807 -12.4587 22
335 1 12.1141 9.68508 1.01122 20
336 1 8.36172 -13.497 1.69132 15
337 1 -1.92842 -1.05629 12.9868 20
338 1 -16.0937 0.221919 2.94418 14
339 1 1.69793 -15.7103 -0.994914 19
340 1 -6.63306 7.13675 15.277 11
341 1 -7.94121 8.18408 12.0198 14
342 1 -15.0979 -1.40535 8.03229 13
343 1 -13.0568 -4.2967 7.28877 17
344 1 12.0271 -6.73301 -0.671988 22
345 1 -9.42107 -5.93091 7.79727 19
346 1 8.01259 -4.1659 -9.7918 22
347 1 3.20944 -12.1922 -4.57125 23
348 1 4.12696 16.155 0.684092 22
349 1 1.31772 -3.57609 6.98244 21
350 1 -9.00564 15.2813 -2.9961 10
351 1 5.2829 -0.766485 8.09514 24
352 1 6.08248 3.66914 10.5064 23
353 1 -10.6118 0.159573 1.5505 21
354 1 9.9655 -4.0798 -7.06572 20
355 1 -7.39397 14.0942 2.90796 22
356 1 -6.45925 6.48635 1.90484 22
357 1 0.316004 2.89435 1.63804 24
358 1 4.9859 -13.5253 7.72302 18
359 1 11.3923 -3.94444 1.3294 21
360 1 -4.95297 5.15244 7.20013 21
361 1 -6.92779 -2.86023 -7.34074 20
362 1 3.72637 -0.184943 2.79784 23
363 1 -6.78883 -2.46862 11.9952 21
364 1 -1.79681 13.3376 4.08251 23
365 1 8.42101 3.30883 19.1297 12
366 1 -9.76072 11.8289 -5.49467 16
367 1 -1.66538 -5.96338 -14.7755 18
368 1 -6.32634 7.22392 -6.75148 23
369 1 3.48503 -11.5624 -13.4828 15
370 1 -6.58072 -0.423227 9.65519 20
371 1 -11.3776 0.293812 4.31941 19
372 1 -3.89957 -3.21138 -6.92611 19
373 1 -5.03289 11.9769 -0.421601 22
374 1 7.36231 -1.3053 10.4037 25
375 1 -7.50327 -9.30824 3.01575 20
376 1 10.4011 -9.39209 6.8312 10
377 1 -4.50361 0.83074 -1.32057 20
378 1 -5.91479 -12.9796 12.1962 8
379 1 -11.7621 5.28439 -0.650478 22
380 1 -5.00535 -3.49914 3.85691 23
381 1 4.38431 -9.5361 -2.95196 20
382 1 -4.35274 -0.476011 -6.8981 24
383 1 6.53154 -3.30026 -15.1956 13
384 1 6.02822 12.2312 7.7937 19
385 1 -11.863 -1.44555 -7.73559 22
386 1 1.59924 -9.54926 -13.0752 20
387 1 12.0089 4.85422 -11.2325 15
388 1 -0.555394 -16.1455 -3.16037 15
389 1 -13.6277 -6.79725 -5.46583 15
390 1 -3.45636 -6.82344 -0.391969 22
391 1 10.3625 2.48295 16.4897 17
392 1 -5.53982 -5.31969 -5.49077 20
393 1 11.998 4.31876 0.304621 23
394 1 -8.66939 4.06913 -10.6443 18
395 1 2.10557 18.1918 3.39845 15
396 1 -14.1294 -0.815254 -4.96294 21
397 1 3.56687 2.71807 0.797319 24
398 1 -8.06565 8.8766 1.96249 20
399 1 -10.6079 12.1315 -2.06708 18
400 1 -3.89129 5.46205 4.01817 23
401 1 8.55982 0.697878 14.3865 22
402 1 11.2992 -1.50981 -5.5697 19
403 1 8.83431 -3.99384 10.8563 19
404 1 11.5815 1.24466 -7.03896 22
405 1 -6.07561 -15.204 -0.808228 17
406 1 2.63577 2.43373 4.01776 24
407 1 -7.54644 6.97927 -3.62018 22
408 1 -0.941423 -9.45057 -4.15209 22
409 1 3.00298 7.51406 4.76382 22
410 1 5.06866 0.182379 -3.93638 22
411 1 -12.0278 1.6354 -3.87531 22
412 1 2.27702 -12.2974 -1.01546 22
413 1 11.7078 -2.04848 6.77762 21
414 1 -15.0463 -4.95319 -7.61056 14
415 1 -5.93396 -14.0959 5.46849 17
416 1 -7.84665 -7.62498 13.1794 14
417 1 -2.00483 11.4123 -1.57909 23
418 1 -11.8899 -8.8882 -3.57094 16
419 1 8.39588 8.53664 16.0721 14
420 1 -9.49654 2.44969 -5.53371 22
421 1 3.48502 11.4834 -8.97446 18
422 1 4.1536 9.38164 8.84498 21
423 1 -14.1026 -6.37796 -2.49221 15
424 1 -3.32195 -13.8884 -2.75912 21
425 1 -11.6889 -1.00088 7.32917 21
426 1 -13.5239 2.01219 -1.34202 22
427 1 8.24874 -11.8047 7.60642 14
428 1 -8.60369 -13.5779 -2.57304 15
429 1 7.24545 9.2424 7.94472 22
430 1 2.30741 7.99004 -15.9894 12
431 1 -9.57631 7.5556 -11.6185 22
432 1 -2.01227 15.0312 -7.91602 11
433 1 -11.7676 3.71559 -6.46082 20
434 1 -0.162809 -12.4571 7.14943 17
435 1 11.9206 6.6216 5.46013 24
436 1 -1.28727 10.319 -12.0841 18
437 1 -2.11142 -3.03324 7.28972 21
438 1 -13.9853 9.02174 -4.4319 16
439 1 3.4022 -2.5601 -2.45969 21
440 1 -6.1634 3.28427 3.79614 20
441 1 -3.5402 -12.9469 7.38294 19
442 1 -0.769811 -4.00924 -6.79355 21
443 1 6.8714 -9.4945 -8.3782 22
444 1 4.56569 -3.59753 5.97681 22
445 1 -8.61886 3.05352 1.27413 22
446 1 -13.579 1.80111 8.75162 14
447 1 -13.0114 5.52142 3.77573 16
448 1 0.991869 -8.0844 3.50264 19
449 1 -5.78131 1.81741 -15.9972 15
450 1 11.2029 -13.1575 -3.63911 15
451 1 -0.641184 -7.11065 -2.02092 21
452 1 2.43101 -4.22644 12.0367 21
453 1 3.95225 -5.47147 -1.05407 23
454 1 -3.56921 4.40282 -16.9203 15
455 1 4.43963 -14.2074 4.03816 23
456 1 4.69508 11.038 -3.08248 22
457 1 -10.2772 14.0497 4.42809 14
458 1 -3.92556 -1.88395 10.3042 22
459 1 -11.3049 -6.64594 -7.48538 21
460 1 -0.8632 -5.19774 6.04151 23
461 1 6.95458 -2.37536 13.3769 20
462 1 6.9224 2.07987 0.0700556 23
463 1 -5.53258 3.42587 0.429169 20
464 1 1.26252 -1.76993 -5.12189 24
465 1 12.4485 -6.41194 6.17374 12
466 1 -0.0171674 5.71445 0.227502 24
467 1 15.9383 9.10727 -2.54962 13
468 1 -2.31898 1.11604 11.2805 21
469 1 -0.162172 14.1472 -2.18639 23
470 1 5.59952 -6.20277 4.48528 24
471 1 3.67609 -18.5676 3.55603 13
472 1 -5.31472 9.00586 11.639 19
473 1 -4.47561 15.5252 7.77267 13
474 1 -9.93043 -11.9302 -8.39721 16
475 1 6.68198 15.4569 2.76664 15
476 1 4.71946 6.69089 10.3598 24
477 1 -5.80527 -0.670921 5.14695 20
478 1 -3.39973 -7.80263 -4.49693 17
479 1 -8.36767 4.67681 7.08478 19
480 1 -9.09856 -8.82485 -8.8275 21
481 1 -6.19543 11.3408 2.80062 21
482 1 -2.70535 -12.1956 -5.45142 24
483 1 -3.10855 -11.1858 -13.1616 14
484 1 -9.81221 -9.50614 4.95492 16
485 1 -7.51571 -3.76738 5.69405 20
486 1 9.5069 3.56861 9.90808 23
487 1 -5.65785 -9.98801 11.922 14
488 1 -6.35301 8.98543 -15.8919 13
489 1 9.59425 4.71965 -1.84975 23
490 1 -9.77156 -11.1606 -4.84643 16
491 1 2.38103 5.47291 -9.19801 21
492 1 -0.407473 19.2488 1.84588 15
493 1 -2.19471 4.50837 -9.56849 21
494 1 -1.31956 10.3447 7.09207 22
495 1 -13.1766 -3.56809 -2.89286 23
496 1 -1.02807 17.3139 -0.474211 18
497 1 5.48592 10.8714 -6.56308 23
498 1 -7.30809 -13.5963 -9.25691 15
499 1 4.8713 -4.62898 16.6534 15
500 1 2.35219 -14.4387 -3.45009 20
501 1 -2.0062 -3.55139 -12.7434 22
502 1 11.0068 -11.3074 1.89926 16
503 1 -8.21223 11.2701 0.235576 21
504 1 3.10388 5.8244 16.8817 16
505 1 11.2069 7.41206 -3.21719 20
506 1 3.76502 10.4748 0.0850674 23
507 1 -10.0419 10.7973 -12.1429 14
508 1 3.07572 2.52289 -8.14976 20
509 1 4.98493 -11.5553 5.9314 23
510 1 -15.9314 -4.015 -1.15853 13
511 1 4.38412 2.8619 -2.27475 23
512 1 2.32593 14.392 6.84975 20
513 1 -6.73856 6.95535 -13.158 19
514 1 10.1559 7.10673 -0.0357767 21
515 1 7.09271 13.3937 -7.26685 12
516 1 8.78189 -5.88356 0.442773 25
517 1 12.8958 1.73865 -0.948621 22
518 1 -0.498186 1.47904 -14.4471 21
519 1 1.75087 -7.89857 0.128534 21
520 1 0.751217 -16.3356 10.0508 9
521 1 3.99493 -8.07774 10.1213 17
522 1 -6.68622 0.156881 -8.99715 19
523 1 -4.20924 -7.70668 10.3374 19
524 1 2.51527 4.95679 2.51711 23
525 1 -5.68171 -8.18497 -7.89537 17
526 1 6.42122 14.6779 9.98908 12
527 1 0.969275 3.21189 -10.2572 21
528 1 7.49349 -5.7531 14.498 14
529 1 -11.1014 4.12203 8.56726 15
530 1 6.56386 -16.4476 3.08856 13
531 1 -13.0892 -2.57504 3.5051 22
532 1 9.3813 -3.03219 -4.07262 21
533 1 10.7749 -0.722554 -2.1598 23
534 1 -1.50064 6.58631 -5.44103 26
535 1 -7.73279 3.24253 -2.0348 20
536 1 1.99624 -9.35113 -5.39516 21
537 1 1.79386 3.8614 -13.2647 18
538 1 7.56109 -6.97511 -7.58988 21
539 1 -7.52358 11.7659 11.2091 11
540 1 8.41592 12.9198 -2.04541 16
541 1 -4.97667 -4.90706 -15.0208 16
542 1 8.62003 -8.65435 1.84799 21
543 1 3.0026 -0.866411 -15.4051 17
544 1 -7.9068 -3.47768 9.23701 20
545 1 -3.33189 14.3734 -1.51819 21
546 1 -8.39518 -1.60865 -12.8844 19
547 1 -15.986 1.9203 0.166094 16
548 1 -1.07645 -9.3283 -11.3598 21
549 1 -4.40115 -7.54163 13.3103 14
550 1 3.33398 8.37137 -7.69384 21
551 1 15.6474 1.89681 7.12412 16
552 1 16.1437 0.387904 -2.10377 13
553 1 -10.1442 -10.9487 -1.25862 15
554 1 -1.77617 -10.9998 -1.02214 18
555 1 -4.08622 -7.89325 -13.6998 16
556 1 -6.21893 17.8733 5.68759 11
557 1 4.92464 -5.08475 -7.36581 21
558 1 0.830226 7.91766 2.16061 22
559 1 13.1198 -1.55561 0.160374 21
560 1 2.06088 16.3603 -1.85796 19
561 1 6.60008 -8.06912 -0.538031 18
562 1 6.54574 -2.86858 -3.36054 23
563 1 13.7561 4.15204 -8.62787 14
564 1 6.00261 8.67716 14.3625 20
565 1 -5.8566 -6.62301 4.39624 21
566 1 -4.7968 -4.88672 -2.54299 21
567 1 7.27767 2.93016 16.3525 23
568 1 6.84941 -1.85911 16.6591 16
569 1 0.463235 6.77825 -12.0492 19
570 1 -5.87028 -7.72264 -2.08623 23
571 1 -0.123857 -3.82828 13.1635 20
572 1 5.20618 11.6143 10.9993 19
573 1 7.06565 8.61633 -8.11701 20
574 1 -6.14827 9.85019 -4.91697 24
575 1 -1.00359 13.5403 0.787613 23
576 1 11.605 -4.63599 11.0655 12
577 1 10.0798 2.31621 -12.6549 15
578 1 11.5361 -9.05472 -3.58607 19
579 1 12.8574 5.03985 11.0719 15
580 1 -13.7652 -5.81866 0.86986 17
581 1 -8.87159 11.5906 -8.68715 16
582 1 -3.66084 -0.185517 7.46199 20
583 1 -10.8686 1.91667 11.2075 12
584 1 -5.47955 7.64659 -10.4357 19
585 1 -1.49937 -16.9194 -0.241609 15
586 1 4.99635 -2.37952 -9.02824 21
587 1 -3.63355 17.7003 -2.58106 12
588 1 -9.28454 -3.33225 -8.77804 21
589 1 6.85726 -11.5525 3.21533 19
590 1 -10.9827 -5.14942 -0.328948 20
591 1 0.89669 12.1629 -10.9408 14
592 1 -6.51785 1.4056 -4.1208 20
593 1 -1.66581 6.86141 11.9909 20
594 1 -9.22153 -6.46992 4.51186 19
595 1 4.90648 8.06447 -1.83868 21
596 1 0.402879 -13.3942 -8.96043 16
597 1 2.61766 -5.95962 14.9649 17
598 1 8.31258 -0.0331402 -4.85676 23
599 1 1.45172 0.198907 0.134718 22
600 1 -10.1353 8.20171 -0.574652 24
601 1 5.04094 -0.0327658 18.678 9
602 1 6.0599 12.9381 -4.11808 17
603 1 11.7068 -6.5435 -8.59769 15
604 1 0.923236 1.7203 10.7359 22
605 1 8.10886 8.0765 -14.6673 10
606 1 -4.412 -15.2246 10.1828 13
607 1 -4.75018 5.01769 -12.0344 19
608 1 6.15338 -0.246153 -16.3201 11
609 1 0.318735 15.3808 4.79472 21
610 1 8.74724 4.75294 -10.9213 24
611 1 -6.17638 -2.45272 -10.4243 24
612 1 -7.39202 -10.7644 -6.46971 23
613 1 -12.1972 -8.22689 -12.8093 11
614 1 11.3964 1.39736 5.16016 24
615 1 13.2864 3.84293 -5.49991 19
616 1 5.56912 -6.65404 -10.2983 20
617 1 15.1705 0.612054 9.89984 13
618 1 9.54494 -9.88368 -6.09115 21
619 1 9.69263 5.45026 -13.9294 12
620 1 7.09139 12.9826 4.74206 21
621 1 -10.5159 2.3008 -0.835051 24
622 1 6.47579 8.58524 11.2502 21
623 1 12.7399 4.76778 -2.65673 22
624 1 16.4198 3.22397 0.172649 12
625 1 13.4481 7.38854 -9.67547 11
626 1 4.92879 3.25422 13.9051 23
627 1 14.4907 6.42461 7.78594 19
628 1 4.62682 -7.015 13.1457 18
629 1 16.5056 10.2669 0.768951 6
630 1 6.09336 2.14525 3.43393 24
631 1 -1.58912 4.32331 15.3098 22
632 1 15.4116 1.53307 -7.78425 11
633 1 11.8732 -2.96194 13.9588 11
634 1 -5.35093 2.32592 -7.23289 23
635 1 16.0779 5.6983 -1.64834 14
636 1 15.2272 -3.47234 2.23837 14
637 1 5.42984 -8.68022 2.65777 21
638 1 -7.73918 9.99611 9.12244 21
639 1 9.02176 5.54452 15.1913 23
640 1 13.7941 -2.92632 8.87787 14
641 1 7.91147 6.30883 9.59499 23
642 1 -0.804662 15.4964 7.58839 16
643 1 3.49225 4.25869 8.45753 23
644 1 -1.97851 -18.6356 2.28536 13
645 1 -4.05409 11.9963 -3.72004 21
646 1 11.7505 9.97606 -8.22444 12
647 1 8.97877 -3.53944 -13.1925 13
648 1 -0.54961 18.4602 5.35006 13
649 1 -0.255461 -14.3412 -5.80281 15
650 1 2.73229 -4.90912 -9.62293 20
651 1 -9.67625 3.41922 4.08737 20
652 1 -9.41832 9.87965 -15.1049 11
653 1 -2.83303 -18.8277 5.82968 12
654 1 -4.53952 2.15977 -10.4685 21
655 1 -14.9533 4.13865 -6.39809 19
656 1 14.287 -6.60483 3.06281 12
657 1 10.906 9.49209 7.45614 20
658 1 6.23481 -9.11957 8.02227 19
659 1 -17.4369 -2.70677 -6.28338 12
660 1 1.03707 3.23129 -1.56215 25
661 1 2.23967 1.9635 -15.7239 16
662 1 5.13869 -3.23091 2.86525 23
663 1 2.46858 0.0136535 16.4488 15
664 1 6.93902 10.9487 -13.047 11
665 1 9.82102 -1.92941 12.7322 23
666 1 7.97917 5.81693 -7.43973 23
667 1 4.18125 0.296763 -0.644249 21
668 1 10.1722 12.1851 3.71318 17
669 1 3.0685 -14.1515 -7.07907 15
670 1 -11.9174 -5.39177 12.2961 13
671 1 14.3046 1.13302 4.0695 21
672 1 0.0472671 9.71949 12.519 19
673 1 6.79455 11.5515 -10.05 16
674 1 -11.2073 7.36171 -3.58867 22
675 1 9.89018 10.1011 -1.86623 23
676 1 -8.35715 -13.0367 0.603195 16
677 1 12.0642 0.998821 1.99277 22
678 1 5.50203 15.2359 6.17826 16
679 1 -4.60539 2.54528 9.25282 20
680 1 -11.5545 -0.728241 -1.50591 20
681 1 -10.995 -0.98626 -4.79927 20
682 1 6.28883 0.811755 12.1214 25
683 1 0.829707 -8.27745 6.90599 19
684 1 9.87846 5.74438 12.0429 19
685 1 -4.19104 13.7656 2.09442 19
686 1 8.62698 4.87633 1.25539 24
687 1 5.74754 -2.75507 -0.257764 24
688 1 7.94587 4.40111 4.20655 25
689 1 0.853137 -3.72491 -16.5581 14
690 1 -11.0588 -3.71428 9.13933 24
691 1 6.97105 -0.958562 -10.5148 20
692 1 -0.0528631 -8.67939 -7.96195 24
693 1 13.9443 -10.7846 -4.43941 12
694 1 12.7028 2.83287 8.93374 20
695 1 5.04226 4.78228 4.7836 23
696 1 -7.98794 2.62106 10.1303 20
697 1 10.2033 8.60202 10.3593 16
698 1 1.64863 -3.31277 16.0624 13
699 1 -7.09228 10.842 6.03434 20
700 1 -1.73213 -6.30738 -11.5558 20
701 1 -0.252222 -0.763152 15.1941 16
702 1 -4.66885 -0.879623 -3.76377 19
703 1 3.05441 4.05231 11.5975 27
704 1 -8.14993 -12.3062 3.67136 14
705 1 13.6305 7.11067 -0.413737 20
706 1 5.32698 -12.4047 -2.17707 22
707 1 0.0484275 4.22488 -7.47429 23
708 1 6.83086 10.3488 -0.734111 22
709 1 9.18013 12.4586 7.15678 14
710 1 -0.25679 -0.239292 -16.858 15
711 1 -0.648538 2.47161 4.85216 24
712 1 2.54084 13.4698 -0.0751416 22
713 1 11.5588 9.27072 4.28542 22
714 1 0.852002 -5.07325 -0.262663 25
715 1 -7.58494 -10.3676 -3.25738 22
716 1 -0.375748 3.17246 -17.011 13
717 1 -10.0415 18.4866 -0.438476 8
718 1 1.42651 -6.66796 -14.8861 19
719 1 5.5491 4.92442 1.59144 25
720 1 10.1391 7.39707 -8.83928 22
721 1 10.3872 12.2004 0.550905 15
722 1 -3.25174 5.94818 1.06428 24
723 1 -7.56567 0.558194 -0.153013 20
724 1 7.51101 5.44813 -4.57942 23
725 1 11.4044 0.71376 13.6031 18
726 1 5.55114 0.536819 15.3644 23
727 1 2.22718 -10.5528 12.152 12
728 1 -6.78133 10.7804 -13.3418 13
729 1 2.82517 12.4539 8.82195 22
730 1 5.66061 -9.26959 -13.4475 16
731 1 2.97409 -0.680194 5.95215 23
732 1 9.19944 13.5055 -4.96228 13
733 1 8.37803 9.9278 5.03038 25
734 1 -6.36436 -2.01393 -1.61415 21
735 1 10.1126 -6.87406 -5.85578 19
736 1 5.5962 8.24792 17.7401 12
737 1 -10.7078 -3.88703 5.71138 20
738 1 0.39066 -12.7285 3.69006 20
739 1 0.146118 -5.50191 -9.08769 22
740 1 -7.27822 12.3859 -2.91606 20
741 1 1.68932 1.9171 7.39496 22
742 1 9.56023 -6.00169 -2.43764 20
743 1 6.19751 10.1909 2.52952 23
744 1 -15.4309 -3.00982 1.94125 17
745 1 0.0163755 1.67882 13.5282 22
746 1 -6.29346 5.32433 -15.4174 18
747 1 -8.89611 6.74511 -15.4073 16
748 1 2.44362 -13.874 6.23912 20
749 1 8.83135 7.98324 -5.73033 19
750 1 8.58814 -6.24889 3.56454 22
751 1 -2.15023 8.12507 3.33022 23
752 1 -9.09283 6.77261 9.08472 16
753 1 2.86176 -2.43488 -11.6171 21
754 1 5.26541 -7.92659 16.1781 9
755 1 3.38252 15.3437 3.81073 23
756 1 -5.02236 4.18844 15.3363 15
757 1 -2.61143 -1.57382 -0.918722 20
758 1 -11.3403 -10.1943 -10.4076 13
759 1 -1.93549 -11.2339 -9.08787 18
760 1 -6.03772 -15.4273 -7.3882 13
761 1 0.5468 14.5783 -5.8758 20
762 1 5.1972 -8.26661 -6.14218 22
763 1 2.65336 -2.49959 0.672942 22
764 1 -3.46903 10.7173 4.65288 22
765 1 5.80932 -12.6417 -7.66815 18
766 1 12.0084 -11.1803 -1.41361 16
767 1 7.89675 -6.64327 7.00179 19
768 1 14.3255 6.78799 -4.13745 16
769 1 6.28363 -10.8617 -5.31997 20
770 1 -7.31228 -8.58327 6.53076 20
771 1 0.614977 0.360483 -8.79241 19
772 1 -3.9244 -16.9589 -2.67573 13
773 1 2.01727 -7.31869 -3.16645 22
774 1 0.308732 -1.98018 -1.78424 22
775 1 -10.1295 1.80914 6.86095 21
776 1 -5.97901 -14.7306 2.29654 18
777 1 13.0481 9.75875 -2.34439 17
778 1 -11.7568 16.1786 2.26523 9
779 1 -4.92971 0.863668 1.88021 22
780 1 -14.8278 4.9785 0.979037 15
781 1 9.88919 -0.796281 0.96185 24
782 1 -13.8161 -5.35195 -11.6744 12
783 1 -2.96078 9.72136 -5.42358 25
784 1 9.23523 1.37585 -9.41538 21
785 1 8.75941 7.70378 13.4038 17
786 1 0.701161 0.0194611 3.11835 22
787 1 8.71611 2.85888 -6.15536 22
788 1 -14.8528 -1.94236 -8.47036 16
789 1 -12.8841 -3.61214 -6.22402 21
790 1 -3.11399 6.54897 15.3426 14
791 1 6.00318 6.28963 -10.0233 20
792 1 12.3616 12.2623 5.88795 11
793 1 -0.34844 -0.586062 6.45683 21
794 1 -3.5606 -14.4519 0.641315 22
795 1 -5.22161 -16.7953 7.16928 11
796 1 -0.935641 -0.438941 9.38742 21
797 1 13.3186 8.55243 9.55545 10
798 1 1.50211 -7.51717 -10.9899 22
799 1 -7.13648 8.60444 -1.33899 19
800 1 6.58764 7.31291 4.0439 25
801 1 -11.3766 -4.77445 2.50991 21
802 1 7.64307 8.03825 -11.6798 19
803 1 -5.98431 -12.8097 -4.7781 22
804 1 2.05153 -14.003 1.69149 21
805 1 -0.656479 -13.4439 -0.363453 23
806 1 6.56353 3.11321 -8.7542 23
807 1 4.97494 18.3431 2.75373 11
808 1 -7.24423 -6.76186 -13.775 17
809 1 -1.38512 2.26479 8.15594 21
810 1 2.23839 5.11494 -17.7125 11
811 1 -11.5561 -0.391799 -13.1438 14
812 1 -14.9963 -0.707127 -1.74693 23
813 1 2.92837 13.7408 -3.25054 21
814 1 7.45647 -0.122834 -1.77677 22
815 1 -7.92789 -3.71266 -15.7105 11
816 1 -4.03803 -9.48217 -0.277818 20
817 1 12.7537 6.56898 -6.95117 18
818 1 11.4219 -7.11 2.16827 21
819 1 -5.17658 6.58698 12.5648 21
820 1 9.88125 -12.0302 4.69226 13
821 1 14.8777 -5.31836 -3.08713 14
822 1 9.97682 -4.2254 7.89974 19
823 1 1.93466 10.0416 6.44157 23
824 1 -9.27129 4.92379 11.5244 12
825 1 -7.63645 6.40041 4.37358 18
826 1 -1.28351 -14.4881 8.81303 16
827 1 9.04851 1.67381 2.7083 25
828 1 8.30856 3.4902 13.0402 24
829 1 -17.2445 -0.772465 0.252449 14
830 1 8.84011 -11.3382 -3.01327 18
831 1 0.664896 5.85885 -3.05872 23
832 1 -11.4857 9.39823 -6.26582 17
833 1 4.11492 7.47061 1.45767 22
834 1 -0.239791 -11.9591 10.4337 13
835 1 5.44708 5.49814 15.9491 22
836 1 -2.65743 11.0927 1.70533 22
837 1 3.54431 -16.4176 8.73345 12
838 1 -8.15263 -6.16281 -3.96597 22
839 1 3.97258 1.35708 9.78457 20
840 1 -15.3231 -4.24645 -4.46627 15
841 1 -0.0622136 5.64845 17.5024 10
842 1 4.67956 12.9182 2.27357 24
843 1 -9.97629 -8.72852 7.88175 16
844 1 -2.52196 -17.4764 8.75181 12
845 1 7.91367 -3.68222 5.46783 24
846 1 14.4454 -3.76009 5.26599 13
847 1 5.4456 6.76227 6.97237 21
848 1 -0.546846 8.6652 -3.17127 20
849 1 -7.06524 -10.7571 -9.6657 20
850 1 -0.600459 6.46995 -16.8867 12
851 1 -3.0529 1.42222 14.9298 17
852 1 -3.17393 16.5187 5.06498 18
853 1 15.3557 -0.0166717 0.918018 14
854 1 1.72997 6.68415 -6.04709 24
855 1 -2.05744 10.0894 10.3573 24
856 1 7.68859 10.7296 13.4273 15
857 1 5.65867 -3.78386 -12.2402 20
858 1 -5.33845 -12.1636 -1.34188 22
859 1 -3.39994 1.58558 -4.92315 23
860 1 13.8396 -0.305552 7.3057 18
861 1 0.483789 -1.76473 -13.9 22
862 1 1.14676 11.0012 14.3819 13
863 1 5.19248 -14.3779 -4.96559 15
864 1 4.75722 2.00209 -14.1856 20
865 1 -4.24193 -10.229 -3.44077 21
866 1 10.4483 7.56114 -11.8863 15
867 1 15.6121 -2.61568 -1.16565 14
868 1 -1.60522 -9.12824 11.6176 16
869 1 -6.36724 -9.88685 -12.5595 18