ITEM: TIMESTEP
609000
ITEM: NUMBER OF ATOMS
2000
ITEM: BOX BOUNDS pp pp pp
-30.0 30.0
-30.0 30.0
-30.0 30.0
ITEM: ATOMS id type x y z Coordination
1 1 -13.3108 6.80277 -12.7583 12
2 1 -3.95827 -10.8446 -12.3905 11
3 1 1.09279 12.0732 11.9615 18
4 1 -1.93924 -16.0605 5.67461 22
5 1 -9.97603 7.28172 -6.15314 22
6 1 9.18079 -11.49 -8.892 14
7 1 -13.0973 6.47477 -5.79554 19
8 1 0.0766217 -3.56451 10.4098 21
9 1 -12.5812 3.58314 -12.4484 12
10 1 -12.1061 -7.95145 6.45268 16
11 1 13.0788 1.89889 -10.2904 14
12 1 -3.25428 7.3996 -7.86447 23
13 1 -6.53189 -7.47257 1.34359 19
14 1 -12.058 -8.01622 3.22735 16
15 1 2.70692 -0.265208 13.1816 18
16 1 8.02613 -1.46269 7.25579 23
17 1 -2.76163 4.20353 9.97137 23
18 1 6.66365 -0.591592 1.59324 24
19 1 -4.33152 6.75133 -4.83543 26
20 1 4.35704 -1.1295 10.9261 23
21 1 -11.3204 -2.99029 -11.1294 18
22 1 -13.0532 -1.27823 11.0163 15
23 1 13.0962 4.27028 5.03367 21
24 1 -2.03284 10.1578 -9.1028 22
25 1 1.884 7.45166 -15.1998 18
26 1 13.3085 1.73954 10.9088 16
27 1 -6.92135 -1.6354 2.69755 21
28 1 -14.7383 4.45032 -10.1579 12
29 1 -1.83303 1.43464 -8.47595 25
30 1 -8.64885 12.0093 6.54408 16
31 1 4.09197 -10.0926 -0.0869998 17
32 1 -0.0885627 -0.348158 11.6375 17
33 1 0.1599 -7.58487 -6.00246 15
34 1 7.91451 -13.8919 5.62768 12
35 1 -7.56963 -13.5203 -6.03763 17
36 1 -14.5273 -4.4211 10.5923 10
37 1 1.97456 -4.74687 -4.62298 19
38 1 -7.44045 -6.71726 -9.93936 21
39 1 6.67538 -10.3924 -10.7616 15
40 1 -3.68045 9.85046 -14.2047 14
41 1 3.5561 6.49756 13.5572 21
42 1 3.44823 -8.59703 5.6131 22
43 1 2.12419 2.55245 13.582 15
44 1 -16.2848 3.678 -2.01727 14
45 1 -15.673 -3.4169 4.97967 12
46 1 -8.85809 -0.493782 -4.43325 24
47 1 0.162191 12.3364 -8.08615 23
48 1 -1.95846 -14.7321 -8.02955 14
49 1 -1.25217 -0.568217 -11.0723 24
50 1 3.8694 -10.1552 -7.00413 21
51 1 -0.193215 -5.3891 13.1932 19
52 1 -15.9874 7.98112 -7.0957 13
53 1 4.09597 11.9685 -12.445 13
54 1 0.292361 12.305 6.33149 21
55 1 -7.65648 10.2566 -10.4772 20
56 1 0.468868 15.3423 1.84831 15
57 1 1.1016 -15.703 4.6489 21
58 1 6.11487 -7.92328 -5.64785 22
59 1 3.25739 -3.3431 -13.8871 20
60 1 -6.3578 13.2139 8.1812 16
61 1 -13.216 -7.78155 -9.04173 12
62 1 5.03321 1.69804 6.31371 23
63 1 -12.6365 12.1801 -10.1269 12
64 1 -6.72818 -6.49091 8.20786 20
65 1 -2.19711 11.7936 11.9913 16
66 1 -15.1371 7.44097 -9.9365 11
67 1 -3.36064 3.55077 13.2725 21
68 1 -0.492398 7.13352 -8.55983 23
69 1 1.62253 4.88841 5.54854 24
70 1 -0.898386 -12.9555 10.4928 18
71 1 0.706091 4.35024 9.00073 22
72 1 10.5984 -13.6142 -0.126305 15
73 1 -3.92572 6.62371 14.7411 16
74 1 -13.1191 2.24549 -9.43401 17
75 1 -13.1672 10.3627 -12.1026 11
76 1 -0.503713 12.1934 9.05318 22
77 1 12.1391 -3.76677 -9.90172 13
78 1 2.8689 -10.7218 8.2042 18
79 1 -14.5594 -0.362402 5.67654 15
80 1 -10.4636 -2.72935 1.07481 19
81 1 5.12681 14.8152 8.83864 14
82 1 5.82447 -4.42835 14.8131 17
83 1 2.07301 -5.87529 5.65007 21
84 1 -13.1462 -3.29728 0.532025 20
85 1 9.6506 1.24995 11.1996 21
86 1 7.85836 -2.60623 -6.92435 22
87 1 -6.62819 7.06393 7.05329 27
88 1 4.20374 -6.16556 8.08071 21
89 1 -3.52504 -2.68926 1.51047 22
90 1 -10.1354 -5.7611 -13.6717 12
91 1 -9.94804 8.6997 6.53273 17
92 1 -9.0246 9.20705 -3.80006 21
93 1 -3.18505 4.0721 -6.62926 23
94 1 3.34805 -0.271825 -6.62317 21
95 1 4.60635 -3.2762 -5.85366 18
96 1 9.07242 11.5762 -6.96778 18
97 1 11.6024 -8.89876 3.8901 17
98 1 7.35529 -6.49109 9.04389 17
99 1 -5.9492 14.6125 -3.69703 16
100 1 -12.5215 14.5781 2.30871 8
101 1 -8.5366 -1.65547 14.8791 11
102 1 -4.89472 8.3297 0.66309 22
103 1 -4.09976 -5.73189 6.37817 23
104 1 13.7188 -9.04587 -7.70315 12
105 1 -4.40741 16.8904 7.5154 12
106 1 -4.09715 -9.07145 3.28502 21
107 1 11.6569 -11.4904 -6.60476 15
108 1 4.06928 0.466884 -9.74151 21
109 1 -6.28396 0.998675 -13.495 24
110 1 5.73704 -0.845392 4.59757 22
111 1 -0.627275 10.2082 4.14614 21
112 1 -9.00505 9.85763 -15.2895 11
113 1 -1.37508 1.60222 17.9168 10
114 1 1.13191 11.2628 -2.31654 23
115 1 -13.5145 9.35332 -1.13133 16
116 1 0.320169 10.9389 0.905236 23
117 1 0.431014 1.15339 -6.02194 24
118 1 0.798058 -10.182 6.08758 21
119 1 13.093 -0.960995 11.4592 13
120 1 2.17927 -2.83673 -8.16163 18
121 1 3.18775 -6.86306 -7.0362 19
122 1 -3.45401 2.11892 5.84404 22
123 1 9.8587 -1.83451 16.1325 15
124 1 -9.27336 -7.8337 -1.81678 21
125 1 8.37199 -3.41722 1.93125 25
126 1 -9.34852 -8.86535 -4.87839 22
127 1 15.0086 -6.08737 0.429125 14
128 1 -5.5215 5.98314 -1.55725 24
129 1 7.88667 3.02048 -14.6071 15
130 1 6.25193 16.1638 0.637061 15
131 1 -5.87396 -4.85161 14.7113 13
132 1 -8.45615 -11.5624 10.3898 11
133 1 -2.2965 6.00008 -2.26075 23
134 1 4.36842 -6.36406 -13.014 22
135 1 4.33877 5.18013 -6.81801 19
136 1 14.4302 -8.62675 -1.95124 15
137 1 4.46861 -14.7631 10.3597 10
138 1 -9.61378 -7.7286 1.61474 22
139 1 15.3783 3.11415 8.60885 12
140 1 14.3182 -5.58164 -7.68999 13
141 1 -18.4756 -2.56096 -3.28055 11
142 1 8.55179 6.92805 5.88772 22
143 1 13.3125 11.4109 2.18555 16
144 1 -7.42475 1.17087 15.4276 13
145 1 6.41537 5.13835 -1.50614 26
146 1 -4.71821 10.1461 8.44644 24
147 1 -2.81048 14.5771 -4.4217 19
148 1 -3.36665 -2.4965 -9.33311 21
149 1 8.94859 -12.6969 -5.52041 16
150 1 1.87217 14.5565 -8.63055 12
151 1 7.01964 -6.55755 12.6072 14
152 1 -2.96288 -0.50109 -13.6963 22
153 1 -4.40172 3.55901 -3.71158 23
154 1 10.9315 2.16668 -3.92118 21
155 1 -10.441 12.6909 0.945833 14
156 1 6.7643 -5.65182 -1.55627 23
157 1 -7.14693 16.7199 -1.55286 13
158 1 6.45596 1.91139 -11.7691 21
159 1 13.3017 -8.99435 1.21522 13
160 1 -8.68386 4.90983 -8.68265 18
161 1 -5.49912 12.1466 5.10968 20
162 1 10.8351 4.31796 -8.6099 25
163 1 -1.13667 3.41188 -4.25381 22
164 1 7.80944 7.70004 -2.52788 22
165 1 -4.66913 18.2474 4.28846 11
166 1 9.44141 15.1638 1.63646 12
167 1 -4.10603 8.87229 -2.70299 22
168 1 2.72689 16.6388 -5.30745 11
169 1 4.38719 9.46413 -13.7513 17
170 1 -10.0281 -10.7542 1.93647 17
171 1 -14.7165 10.2636 -8.8518 13
172 1 -3.14998 1.08927 -16.1455 15
173 1 1.60401 -10.0143 -14.1989 16
174 1 11.2534 11.3769 8.98163 14
175 1 -3.5074 13.7091 9.55898 18
176 1 -9.34918 -3.57296 -5.40712 23
177 1 -13.2062 11.9382 -3.76446 11
178 1 15.027 -2.18546 -6.38437 12
179 1 -3.89338 2.95021 -13.7829 22
180 1 6.76461 -1.65145 16.2389 15
181 1 4.55171 16.4736 5.95705 13
182 1 -0.457481 7.18551 5.53938 20
183 1 3.85505 -8.4769 -15.5984 13
184 1 -5.3101 12.1794 11.5884 16
185 1 -0.976431 12.2123 -4.55613 25
186 1 2.57295 -3.28155 12.8088 21
187 1 -8.07085 -4.7814 -0.499706 22
188 1 -1.02613 -12.8852 -11.3527 13
189 1 -12.6005 12.3602 -6.90984 13
190 1 -6.0912 -11.1584 8.35852 22
191 1 4.80435 -14.7485 -1.69718 16
192 1 2.30944 11.7566 -5.71322 23
193 1 -13.1998 2.50491 6.40656 15
194 1 1.71266 8.49226 -0.921779 23
195 1 10.7659 10.6542 -5.19385 20
196 1 -6.82395 2.40473 12.4878 19
197 1 1.59066 -8.03932 13.0309 15
198 1 -12.293 8.16027 -8.56438 19
199 1 -1.26205 15.1101 7.80794 18
200 1 -0.996643 6.93564 8.85409 21
201 1 11.4344 3.67667 12.3891 21
202 1 -9.52661 15.8412 3.28785 13
203 1 9.89822 -6.34068 -11.108 15
204 1 -8.05342 10.1396 12.4575 10
205 1 -6.29029 4.449 -6.00285 23
206 1 12.3002 -3.881 -1.79623 19
207 1 -3.87473 -6.32357 2.95979 22
208 1 -13.939 1.6515 3.07096 19
209 1 -8.48497 -12.1992 7.02379 16
210 1 6.60623 6.79992 12.5292 24
211 1 -17.3819 -0.500912 -5.96179 13
212 1 -0.582038 0.324007 -2.82006 22
213 1 -4.18408 -17.4849 0.94298 16
214 1 -2.01835 0.257353 0.401621 23
215 1 -5.88041 -4.86589 -8.4862 23
216 1 7.64032 -7.60204 -3.3737 21
217 1 -3.11713 12.462 7.15114 20
218 1 -9.81496 -2.29819 4.21461 21
219 1 4.19283 12.1491 13.2121 12
220 1 -16.9199 2.37712 -5.18586 16
221 1 -5.45691 10.1147 -7.85844 22
222 1 -7.83971 0.126935 -7.57408 21
223 1 -8.33792 -1.50145 11.8789 19
224 1 -3.90949 -16.7451 4.30137 18
225 1 5.91663 -16.2968 7.02434 13
226 1 -11.8424 10.3875 1.71844 14
227 1 16.5413 3.61006 3.8002 15
228 1 5.37466 2.60193 -5.8015 21
229 1 -8.03608 -4.39275 -11.5664 22
230 1 5.29414 -4.21495 11.44 20
231 1 -5.24982 -0.029839 1.06558 17
232 1 7.31163 -14.516 0.399305 16
233 1 -5.22517 5.07691 -9.20744 20
234 1 3.5451 -11.4772 -9.84736 18
235 1 8.16314 -0.135277 -13.2716 15
236 1 5.87426 5.31216 -12.1827 20
237 1 -10.3749 2.24779 -8.71811 20
238 1 -0.849667 16.9024 -3.6604 12
239 1 -2.71452 -10.5941 8.84147 20
240 1 5.03055 13.4956 -0.928714 19
241 1 -9.78327 0.931922 12.7514 19
242 1 -5.43835 12.69 -9.27824 10
243 1 7.14831 1.17156 8.91147 20
244 1 -8.40276 -0.127465 -15.6005 11
245 1 -6.89097 12.6589 -6.16771 17
246 1 3.38478 6.6378 -12.5348 22
247 1 -6.09007 -5.75892 11.5926 20
248 1 -0.598211 4.9444 3.2527 22
249 1 -10.211 5.75231 1.74052 22
250 1 -5.64138 7.68798 3.91136 21
251 1 -3.74425 -8.26885 -10.4887 18
252 1 -7.49262 -10.1691 0.147542 21
253 1 8.51318 -11.6316 0.0653406 19
254 1 -2.0203 2.9708 -1.02889 20
255 1 -3.08958 2.76428 2.28472 21
256 1 -1.47924 -7.5772 1.44826 19
257 1 9.83666 6.08668 14.2479 19
258 1 3.88258 9.66082 -10.5499 22
259 1 1.11429 13.2292 3.27729 24
260 1 -13.3409 4.21582 -3.41188 22
261 1 -15.7953 11.4268 -6.17918 8
262 1 2.65573 9.40783 11.5641 21
263 1 1.13086 -17.3484 1.76316 16
264 1 14.1674 -2.37192 -3.08853 18
265 1 2.00917 7.0174 7.7965 21
266 1 -11.3822 7.92532 3.84719 17
267 1 -11.4673 -6.35676 -3.87686 23
268 1 6.89986 5.87113 -15.7077 13
269 1 1.78695 -0.556472 8.25807 18
270 1 9.35969 10.7066 -10.3993 13
271 1 -0.204153 -5.53435 2.83176 21
272 1 -4.65896 0.187935 -10.7462 24
273 1 0.127873 -17.8837 7.98887 11
274 1 10.2821 -1.40846 -8.06512 22
275 1 -12.2998 -0.394187 1.0086 22
276 1 4.96673 -13.0165 1.18568 18
277 1 -9.24089 -8.49538 -11.3732 19
278 1 4.95818 16.3977 -2.26713 12
279 1 -4.66503 -5.12891 -11.491 22
280 1 0.970796 6.65002 11.2284 21
281 1 14.1219 3.93983 2.01614 21
282 1 -2.13776 -7.93182 7.83517 20
283 1 9.13975 -9.01568 -11.7736 12
284 1 7.07221 -9.18618 4.94015 21
285 1 -10.1657 5.02912 -13.7429 18
286 1 -10.1244 -0.755909 -9.57674 19
287 1 -7.06814 -14.2788 8.61526 12
288 1 10.3625 -2.58345 9.63288 15
289 1 6.33865 -3.61834 8.35674 22
290 1 -5.19281 -2.10772 -12.4471 23
291 1 1.09697 -7.55874 8.20527 19
292 1 -0.994665 8.04648 -14.347 16
293 1 3.15563 5.41347 -0.736332 25
294 1 -6.01753 -4.44551 1.31653 20
295 1 2.79278 10.2806 3.17448 23
296 1 -10.5689 -0.538032 9.61193 23
297 1 -7.78875 -6.64845 -6.78557 23
298 1 -10.5728 -6.2076 -10.5315 19
299 1 -4.24339 10.6989 -11.3272 20
300 1 -9.1812 -11.6083 -11.387 12
301 1 -3.20643 -13.5084 3.92689 21
302 1 -1.53741 -7.57026 4.88839 19
303 1 7.34317 -5.61988 -13.0202 16
304 1 13.1772 -0.73577 -8.18244 14
305 1 2.7016 -5.78423 2.3161 24
306 1 8.2074 1.53411 5.29674 24
307 1 -3.68374 -6.46598 -6.54914 21
308 1 -10.2651 -8.71893 11.4055 13
309 1 -6.33835 -15.8379 -4.30768 13
310 1 9.26652 2.67989 18.5643 12
311 1 -5.67469 -11.4923 5.24107 20
312 1 2.00716 3.50114 -4.80553 23
313 1 -2.22935 -11.6844 1.52082 19
314 1 -2.82854 16.2019 2.86453 18
315 1 4.89105 -0.695104 -12.5667 21
316 1 -5.43123 -1.29734 -15.843 14
317 1 5.68933 -6.01873 1.63873 22
318 1 -10.991 -5.29356 11.4507 17
319 1 4.15964 4.15894 16.7024 19
320 1 1.33122 -9.98307 -1.92275 23
321 1 -4.70201 -12.4384 -7.93438 20
322 1 -11.8469 -2.61385 -7.436 21
323 1 10.0597 4.00263 6.23987 21
324 1 -1.42319 4.87776 -13.1908 20
325 1 1.60138 9.8079 -12.9762 18
326 1 1.8784 -3.00947 3.52559 25
327 1 2.17965 -12.9997 -12.2346 10
328 1 -4.91463 16.2283 0.744075 16
329 1 3.62962 12.3593 5.37777 20
330 1 9.00936 -1.36092 4.16258 23
331 1 -8.24966 0.841298 4.69555 22
332 1 -3.1234 -5.16891 11.9182 21
333 1 -7.94156 4.29457 -0.763063 18
334 1 1.33031 -4.73245 -12.3955 22
335 1 12.0397 9.7994 -0.0397195 21
336 1 9.26434 -14.0732 2.53798 13
337 1 -2.73099 -3.60415 14.7699 13
338 1 -15.4283 -1.34267 2.68585 16
339 1 1.85633 -16.51 -0.968687 16
340 1 -6.60769 7.83753 14.7394 9
341 1 -8.42148 7.29776 12.0265 15
342 1 -14.3016 -2.47417 7.72266 15
343 1 -14.6339 -5.75586 7.3879 13
344 1 12.3017 -6.53943 -0.593659 24
345 1 -9.62785 -6.51652 8.37335 19
346 1 8.65424 -3.93962 -9.56003 20
347 1 3.42256 -11.9267 -4.29759 19
348 1 3.12711 17.2963 0.607271 12
349 1 0.6001 -3.03101 6.6037 21
350 1 -8.9797 15.0412 -3.36486 11
351 1 5.0394 -0.677542 7.92091 23
352 1 6.33072 4.12272 10.4643 23
353 1 -9.12902 0.0411181 1.2948 24
354 1 10.8775 -4.34656 -7.34354 22
355 1 -8.02504 13.2591 2.64749 20
356 1 -6.41862 5.38728 1.9241 21
357 1 -0.0123849 2.7297 1.52871 23
358 1 5.48075 -11.2253 10.3366 15
359 1 11.5981 -3.82681 1.28568 23
360 1 -4.83358 4.33391 7.44241 21
361 1 -6.59613 -2.60832 -6.59533 22
362 1 3.45685 -0.449361 2.10106 22
363 1 -2.11622 -0.330481 14.4199 16
364 1 -2.20559 13.0666 4.13311 25
365 1 9.20501 5.80878 17.299 12
366 1 -9.60891 12.077 -5.29453 18
367 1 -1.13774 -5.44172 -14.9965 16
368 1 -6.61756 7.17974 -7.19842 23
369 1 4.22081 -10.0565 -12.7671 16
370 1 -6.56679 -0.549488 9.5886 19
371 1 -11.2972 0.660258 4.04958 24
372 1 -3.2794 -3.62281 -6.59571 21
373 1 -5.40838 11.2108 -0.529098 21
374 1 7.37638 -1.51282 10.795 21
375 1 -7.64461 -9.52987 3.33347 24
376 1 9.6244 -8.42321 6.8497 16
377 1 -3.82803 0.162285 -2.21849 21
378 1 -4.48054 -13.0283 10.0895 16
379 1 -11.7905 5.03387 -0.642554 20
380 1 -5.08847 -3.4163 4.21346 21
381 1 4.6242 -8.20982 -3.13964 20
382 1 -4.46597 -0.373927 -7.65599 23
383 1 7.48445 -3.02817 -14.8034 14
384 1 5.96831 12.0643 7.72965 23
385 1 -11.3087 0.387442 -6.69634 22
386 1 1.80914 -7.62944 -11.9226 21
387 1 11.9062 4.67009 -11.5788 14
388 1 -0.574812 -15.7629 -3.17316 19
389 1 -13.5927 -7.28358 -5.54651 15
390 1 -2.76148 -4.93686 -0.192425 20
391 1 10.473 3.67762 15.5732 17
392 1 -5.67839 -4.93713 -4.85944 24
393 1 11.7781 4.39547 -0.132347 24
394 1 -8.67178 4.19903 -11.1087 20
395 1 5.20762 18.164 3.24639 10
396 1 -15.216 -2.29641 -4.48894 22
397 1 3.40607 2.59959 0.529978 23
398 1 -8.01704 7.97295 1.57714 20
399 1 -10.6672 10.7437 -1.88418 18
400 1 -3.96327 5.12908 4.3183 24
401 1 8.36355 0.815522 14.7266 24
402 1 12.0756 -1.43613 -5.35424 19
403 1 8.63174 -4.24358 11.0697 15
404 1 11.6437 1.5258 -7.04636 22
405 1 -5.99983 -15.4668 -1.06486 15
406 1 2.42127 2.26726 3.60573 22
407 1 -7.54579 6.60957 -3.79286 18
408 1 -1.44865 -9.75573 -4.03718 19
409 1 3.12815 7.80814 4.83209 22
410 1 5.56578 0.151154 -3.97404 22
411 1 -11.1411 1.74005 -3.80094 20
412 1 2.57676 -13.1003 -1.10911 21
413 1 11.2758 -2.24331 6.44877 19
414 1 -13.1158 -4.43749 -9.62027 12
415 1 -6.12242 -14.4408 5.5114 15
416 1 -7.67828 -7.53759 13.7338 10
417 1 -2.18295 11.2547 -1.45582 19
418 1 -12.1628 -9.57587 -3.28483 16
419 1 8.27455 8.5456 15.6751 13
420 1 -8.86067 3.09528 -6.02169 19
421 1 3.42942 11.6763 -8.92302 19
422 1 4.01786 9.61031 8.34112 21
423 1 -14.1134 -6.95486 -2.24646 15
424 1 -2.80708 -14.2458 -2.32198 20
425 1 -11.6784 -1.36177 6.62207 21
426 1 -12.6293 1.86205 -1.28732 20
427 1 8.14486 -11.2091 7.74185 13
428 1 -8.44258 -13.89 -2.48433 15
429 1 7.64899 9.19138 7.42549 22
430 1 5.17636 7.88785 -16.5422 10
431 1 -11.111 6.58616 -11.2463 18
432 1 -1.46171 14.7526 -7.75135 11
433 1 -11.409 4.97417 -7.99987 18
434 1 -0.58619 -12.7722 7.34261 19
435 1 11.6714 6.7438 5.08043 23
436 1 -1.24605 10.3225 -12.1466 21
437 1 -3.00452 -2.86418 6.69742 23
438 1 -14.47 8.70315 -4.00395 17
439 1 3.81304 -2.5466 -3.06335 24
440 1 -7.08348 3.9739 4.59986 19
441 1 -3.38459 -13.0272 6.97308 19
442 1 -0.370175 -4.3669 -7.00369 22
443 1 7.0814 -9.6058 -8.13761 23
444 1 4.21943 -3.40155 5.91568 20
445 1 -8.76839 2.98441 2.35003 21
446 1 -13.3678 0.789702 8.63082 15
447 1 -12.8243 4.77641 3.61147 16
448 1 0.984257 -8.39378 3.52985 22
449 1 -6.0343 2.11782 -16.5988 16
450 1 11.6011 -13.335 -3.46428 12
451 1 -1.25318 -8.31597 -1.12124 21
452 1 -0.81675 -6.5229 10.2125 18
453 1 3.6952 -5.65074 -0.937111 22
454 1 -3.40089 4.33974 -16.7726 14
455 1 4.46071 -14.3149 3.92641 19
456 1 4.34176 11.4798 -3.44324 22
457 1 -11.1739 11.8246 3.96918 14
458 1 -2.54249 -2.48924 11.974 22
459 1 -10.6083 -6.07609 -6.71474 24
460 1 -1.0166 -5.18527 7.19475 19
461 1 5.76814 -1.82566 13.6388 21
462 1 6.43372 2.04833 -0.174585 24
463 1 -5.00856 2.67811 -0.459544 19
464 1 1.53324 -1.95766 -5.35575 21
465 1 11.933 -6.0621 5.62111 16
466 1 0.0973502 5.68321 -0.11756 24
467 1 14.8915 11.9144 -2.91786 9
468 1 -2.98465 1.21578 11.5705 19
469 1 -0.503587 14.1293 -1.98768 23
470 1 5.14911 -6.16207 4.62634 25
471 1 3.86579 -17.3292 4.24469 15
472 1 -6.34133 8.51664 10.1172 20
473 1 -6.2518 15.2038 10.1627 9
474 1 -9.495 -12.0283 -7.81145 18
475 1 9.58534 14.4767 5.17565 13
476 1 4.47347 6.7321 10.1354 24
477 1 -5.35364 -0.77061 5.71915 18
478 1 -3.39391 -7.01441 -3.14409 17
479 1 -8.1551 4.24388 7.10584 22
480 1 -9.64772 -9.15495 -8.12874 22
481 1 -6.08949 10.6873 2.85293 25
482 1 -2.42586 -12.4031 -5.63476 19
483 1 -0.946459 -11.4209 -13.4802 10
484 1 -9.98762 -9.96117 5.22576 16
485 1 -8.00872 -4.32766 6.46517 20
486 1 9.38754 3.33585 9.44727 21
487 1 -5.76085 -10.6573 11.4314 14
488 1 -10.8746 8.34179 -13.7664 17
489 1 9.21596 4.78478 -2.34913 23
490 1 -9.94091 -11.6887 -4.7577 18
491 1 2.27581 5.87108 -9.22386 20
492 1 -1.35669 17.8026 5.48058 12
493 1 -2.08241 4.61119 -9.77623 21
494 1 -1.65131 9.52158 7.33363 21
495 1 -13.3223 -4.02554 -2.49602 23
496 1 -1.76381 16.481 -0.497732 15
497 1 5.48276 11.197 -6.29385 18
498 1 -7.45654 -13.5089 -9.08136 14
499 1 4.98224 -0.816436 18.5264 10
500 1 2.64887 -14.541 -3.66733 18
501 1 -2.07995 -3.38031 -12.8204 21
502 1 11.221 -11.3913 1.70122 18
503 1 -8.45607 10.601 0.520559 20
504 1 0.845509 4.02264 16.5568 14
505 1 10.9508 7.6804 -3.69683 23
506 1 3.61249 10.8719 -0.100456 23
507 1 -9.90562 11.394 -12.4537 13
508 1 2.82944 2.6944 -8.28445 20
509 1 5.04099 -11.1661 5.36714 20
510 1 -16.0928 -4.28959 -1.10118 16
511 1 4.32791 2.62748 -2.40241 23
512 1 1.75426 14.9395 7.72263 16
513 1 -6.47753 8.42292 -15.9638 14
514 1 10.0574 6.95682 -0.506986 23
515 1 7.07309 13.6388 -7.44034 13
516 1 8.91499 -6.20717 0.422609 25
517 1 13.3323 1.81854 -1.12377 25
518 1 -0.326387 1.84795 -13.2639 21
519 1 1.58538 -8.02324 0.515805 22
520 1 1.24524 -15.0882 9.393 14
521 1 2.87916 -9.26796 10.9162 15
522 1 -7.85007 1.05857 -10.7265 23
523 1 -4.07586 -7.30054 9.61364 21
524 1 2.31874 5.19432 2.34445 24
525 1 -5.3207 -8.11449 -8.28264 19
526 1 8.60879 13.8538 8.97568 14
527 1 0.639617 2.88159 -10.5862 22
528 1 3.4397 -2.31687 16.0451 16
529 1 -10.9883 3.40958 8.89416 17
530 1 6.93057 -16.1331 3.55198 13
531 1 -12.8241 -2.43622 3.88761 22
532 1 10.1755 -3.0816 -4.44436 25
533 1 10.9173 -0.890973 -2.18943 24
534 1 -1.36054 6.4457 -5.4359 23
535 1 -7.96231 2.6182 -3.2799 18
536 1 2.48214 -8.85539 -5.13128 20
537 1 3.87933 5.57573 -15.6946 16
538 1 8.60358 -7.14734 -7.98015 18
539 1 -8.23268 12.0945 10.2334 11
540 1 8.71751 13.376 -1.72745 18
541 1 -4.32714 -4.54261 -14.7128 18
542 1 8.30208 -8.75596 2.05199 23
543 1 3.2262 -0.539765 -15.0446 19
544 1 -8.42482 -3.56076 9.48336 22
545 1 -4.07128 13.8036 -1.29591 20
546 1 -8.48428 -1.47196 -12.5109 19
547 1 -15.4875 0.981596 0.1554 19
548 1 -0.647318 -9.84243 -11.4021 21
549 1 -4.70306 -7.77366 13.4537 13
550 1 3.29822 8.42361 -7.43987 23
551 1 16.685 1.43999 6.2821 13
552 1 15.8522 0.178524 -1.96689 17
553 1 -9.9706 -10.9378 -1.1306 17
554 1 -1.86603 -11.33 -1.22745 21
555 1 -3.5828 -7.44338 -13.4577 16
556 1 -5.88393 15.4714 4.1108 18
557 1 5.45716 -5.39758 -7.3613 20
558 1 0.606116 7.93227 2.70942 20
559 1 13.1893 -1.58475 -0.00775069 21
560 1 1.69412 16.6024 -2.36438 16
561 1 6.43903 -8.16756 -0.421781 20
562 1 7.21078 -2.81461 -3.52918 23
563 1 14.1202 4.52488 -8.61082 12
564 1 5.23254 9.08071 14.606 17
565 1 -6.25912 -6.84842 4.76504 22
566 1 -5.00908 -3.81919 -1.73253 21
567 1 7.31772 3.13329 16.5538 20
568 1 8.43539 0.0923854 18.0775 14
569 1 1.57991 4.23291 -13.4383 21
570 1 -6.30607 -7.5097 -1.66341 21
571 1 2.53334 -5.88912 10.7274 18
572 1 8.73399 10.4407 9.91427 21
573 1 6.60923 9.03753 -7.97703 22
574 1 -6.31672 9.64347 -4.88039 23
575 1 -1.60706 13.569 1.00676 21
576 1 8.85792 -3.86047 14.1419 13
577 1 9.86903 2.40718 -11.5498 18
578 1 12.0622 -8.59269 -3.40318 20
579 1 12.877 4.77664 10.0878 19
580 1 -14.7368 -6.89562 0.930968 14
581 1 -9.74185 12.3917 -8.31126 13
582 1 -3.61062 -0.100831 8.21589 21
583 1 -12.0782 2.00571 11.3531 14
584 1 -5.52079 8.0245 -10.3941 20
585 1 -1.33858 -17.1658 0.0384319 15
586 1 5.43771 -2.71357 -8.7872 19
587 1 -4.16686 16.8148 -2.60801 13
588 1 -8.95167 -4.22412 -8.39217 22
589 1 6.60073 -10.7504 2.01477 17
590 1 -11.7035 -6.2539 -0.351131 21
591 1 1.10307 12.1875 -11.2448 17
592 1 -5.89197 0.857446 -5.10931 21
593 1 -2.03571 6.54948 12.2486 21
594 1 -9.38707 -6.66626 4.99755 22
595 1 4.67629 8.2922 -1.64744 24
596 1 0.904768 -12.9208 -8.78843 15
597 1 2.61533 -5.27108 15.279 13
598 1 8.74129 -0.239665 -4.76793 22
599 1 1.3257 -0.0280565 -0.320513 24
600 1 -10.5233 8.43519 -0.331478 20
601 1 5.69268 2.17879 18.9749 14
602 1 6.11122 13.786 -4.04755 18
603 1 12.5773 -6.88767 -9.88399 11
604 1 1.63261 1.59234 10.4305 19
605 1 7.8179 7.77811 -14.0271 14
606 1 -4.43904 -16.0657 10.2266 10
607 1 -4.82527 6.04512 -13.0342 19
608 1 6.36733 0.315976 -15.8624 11
609 1 -0.202856 15.3392 4.84255 20
610 1 8.49857 4.93559 -10.6511 23
611 1 -6.70779 -1.96325 -9.66085 21
612 1 -6.83114 -10.4889 -6.48189 22
613 1 -11.9378 -8.60782 -11.8 10
614 1 11.3031 1.03012 4.92051 21
615 1 12.858 3.67359 -5.97306 20
616 1 6.73943 -6.76261 -10.3817 23
617 1 15.6391 -0.0786986 9.14345 11
618 1 9.46956 -9.20397 -5.75441 24
619 1 9.82348 5.27569 -13.6789 12
620 1 7.02942 12.5457 4.42112 23
621 1 -9.79289 2.3115 -0.752579 19
622 1 6.2256 9.11338 10.9839 19
623 1 12.4855 4.88253 -2.84453 22
624 1 16.7839 2.5587 0.0124633 13
625 1 12.5284 7.5355 -9.51733 13
626 1 5.44396 3.71865 13.7001 20
627 1 14.4248 6.3245 7.62654 16
628 1 4.29862 -6.92778 13.3359 15
629 1 15.2467 10.287 -0.0243924 12
630 1 5.62655 1.97568 3.11042 23
631 1 0.740029 5.41106 14.2519 20
632 1 15.103 1.72795 -7.19774 12
633 1 12.4529 -2.16746 14.9415 8
634 1 -5.38495 2.22826 -8.08841 20
635 1 14.9205 4.65034 -1.27733 18
636 1 15.1482 -3.39832 2.46998 18
637 1 4.4014 -8.67593 2.78027 24
638 1 -8.61449 9.60107 9.10513 16
639 1 12.9246 7.04784 12.4439 12
640 1 13.2876 -2.51276 8.85159 12
641 1 7.60839 6.95219 9.23611 22
642 1 -0.518445 14.6517 11.055 11
643 1 3.89622 4.63076 7.89937 24
644 1 -1.9599 -19.0983 2.62056 12
645 1 -4.51776 11.821 -4.12992 19
646 1 11.4098 10.181 -8.13731 13
647 1 9.77475 -3.17959 -12.3572 13
648 1 2.19143 17.7303 5.5576 10
649 1 0.1933 -14.3008 -5.96016 17
650 1 3.81672 -5.23001 -10.1933 20
651 1 -10.3262 3.68917 4.68873 23
652 1 -7.73843 7.64014 -12.7336 21
653 1 -2.30474 -18.9533 5.75471 13
654 1 -5.78398 3.26459 -11.0996 20
655 1 -13.614 3.03356 -6.5179 22
656 1 13.3614 -6.22508 3.31587 17
657 1 11.0268 9.30372 6.85071 22
658 1 5.59412 -9.13853 8.12713 22
659 1 -15.2469 -2.54847 -7.63738 15
660 1 1.06392 3.02427 -1.84591 24
661 1 2.66984 2.26741 -16.2052 16
662 1 4.93169 -3.30241 2.72729 23
663 1 0.568096 -0.0893393 16.2239 13
664 1 7.19731 10.7901 -12.6509 11
665 1 10.3085 -1.42278 12.6822 18
666 1 7.68071 5.80256 -7.6112 23
667 1 4.56218 -0.275116 -0.96028 22
668 1 9.96944 12.4076 3.1874 20
669 1 3.28346 -13.4352 -6.79887 17
670 1 -12.3794 0.0333035 13.8597 8
671 1 16.0027 -0.968884 4.30924 12
672 1 -0.224936 8.49762 12.6821 22
673 1 6.4191 11.6864 -9.63174 17
674 1 -11.8238 7.53733 -3.25815 22
675 1 9.96593 10.1715 -2.0158 22
676 1 -7.9669 -13.1226 0.623179 15
677 1 12.0524 1.15132 1.50522 23
678 1 7.46224 15.2689 6.67106 14
679 1 -4.99249 2.25146 9.69098 21
680 1 -10.1314 -0.779133 -1.65322 24
681 1 -12.0009 -1.78084 -4.65313 20
682 1 6.31673 1.16609 12.1523 20
683 1 -0.0665934 -9.49183 10.1304 20
684 1 9.92956 6.32752 11.7502 21
685 1 -4.84358 13.3057 1.90671 19
686 1 8.62721 4.56541 0.717271 27
687 1 5.96237 -2.96186 -0.850604 22
688 1 7.763 4.34213 3.96716 26
689 1 1.08868 -3.2315 -16.3952 15
690 1 -11.4769 -3.66696 9.38662 20
691 1 7.43942 -0.85841 -10.3212 21
692 1 -1.4557 -8.13911 -8.51902 22
693 1 13.9375 -10.6467 -4.48012 13
694 1 11.9953 2.58392 8.38541 19
695 1 4.69505 4.75893 4.8091 26
696 1 -8.40546 1.8777 10.0622 22
697 1 10.7984 8.58545 10.2074 18
698 1 0.504951 -2.22403 14.369 18
699 1 -6.83734 9.52982 6.06354 18
700 1 -1.35085 -6.02927 -11.6595 24
701 1 -5.7118 -1.72115 15.4261 12
702 1 -4.55508 -1.86433 -3.97962 26
703 1 2.66883 4.42435 11.2476 22
704 1 -8.32939 -12.5485 3.88356 16
705 1 13.4704 7.32463 -1.04622 20
706 1 6.07284 -11.0194 -2.1025 21
707 1 -0.163692 3.87571 -7.23748 21
708 1 6.88051 10.6358 -0.997599 23
709 1 9.37201 12.1958 6.61948 22
710 1 -0.0296126 -0.00499217 -16.391 15
711 1 -0.663946 2.32656 4.64925 21
712 1 1.67041 13.743 -0.0336936 22
713 1 11.4215 9.35441 3.14984 22
714 1 0.645508 -5.43846 -0.264793 21
715 1 -7.43793 -10.7908 -3.07753 21
716 1 -0.280527 3.00553 -16.6693 16
717 1 -9.78316 15.6771 0.174117 14
718 1 2.15815 -6.33592 -15.305 16
719 1 5.39115 4.98147 1.76718 26
720 1 9.53991 7.55468 -8.91434 20
721 1 10.9094 12.5788 0.0656395 19
722 1 -3.11499 5.54648 1.02438 21
723 1 -7.16756 0.491716 -1.72918 20
724 1 6.93528 5.36892 -4.77845 23
725 1 11.5734 1.02449 13.827 18
726 1 4.93026 0.8566 15.361 21
727 1 0.634684 -11.2094 12.7762 13
728 1 -6.74875 10.5649 -13.5537 14
729 1 2.73554 12.0778 8.76909 22
730 1 6.66046 -8.86075 -13.7311 15
731 1 2.717 -0.611548 5.47995 21
732 1 9.41739 13.8857 -4.99284 13
733 1 8.49087 9.81351 4.59274 24
734 1 -7.61852 -2.24472 -0.585037 22
735 1 11.2772 -6.74454 -5.90836 21
736 1 3.06052 7.06442 16.3661 15
737 1 -11.2704 -4.59066 6.38657 22
738 1 0.142216 -12.7318 4.0735 22
739 1 0.0013957 -3.06838 -10.3271 22
740 1 -7.60286 11.9482 -2.83854 22
741 1 2.33964 2.20563 7.04891 20
742 1 10.1269 -5.8665 -2.47672 23
743 1 6.11765 10.0852 2.00612 21
744 1 -16.6514 -4.45186 2.10969 10
745 1 -1.13966 2.69791 15.143 18
746 1 -6.42791 5.53929 -16.3932 15
747 1 -9.34102 6.90091 -16.4348 13
748 1 2.65429 -13.1236 6.22496 18
749 1 8.8689 8.07786 -6.01026 23
750 1 8.44054 -6.63306 3.72662 22
751 1 -2.64271 7.61289 3.17145 20
752 1 -9.67613 6.39038 9.1857 19
753 1 2.6106 -1.96204 -11.236 20
754 1 6.33472 -9.8194 13.5164 7
755 1 3.01251 15.7695 3.27096 18
756 1 -5.75911 4.10433 15.4045 13
757 1 -2.26185 -2.45219 -1.56749 20
758 1 -11.9637 -10.6394 -9.68716 12
759 1 -1.52081 -11.2627 -8.54374 20
760 1 -5.11833 -15.5976 -7.77459 12
761 1 0.597365 14.5683 -5.37783 21
762 1 4.59645 -5.43527 -3.99648 24
763 1 3.00687 -3.03593 0.192534 25
764 1 -3.56072 9.9837 5.12003 20
765 1 6.23321 -12.4522 -7.88143 16
766 1 12.2527 -10.915 -1.52119 15
767 1 6.93592 -6.76614 6.50981 19
768 1 14.5859 6.83512 -4.05154 13
769 1 6.55489 -10.6582 -5.1078 22
770 1 -7.51632 -8.79955 6.81541 21
771 1 0.91253 0.25516 -9.16694 20
772 1 -3.73822 -17.2817 -2.3459 15
773 1 1.38704 -7.22051 -3.05542 20
774 1 0.560699 -2.75589 -2.1675 22
775 1 -10.277 1.53723 7.05311 21
776 1 -6.27927 -15.009 2.24837 18
777 1 12.841 9.59267 -2.85029 21
778 1 -7.40314 17.3902 1.68073 12
779 1 -5.7214 1.71226 3.2847 23
780 1 -14.2649 4.21027 0.503938 16
781 1 9.99558 -1.15784 1.22478 22
782 1 -14.6608 -2.03726 -11.1666 9
783 1 -2.96115 9.63289 -5.8207 23
784 1 9.2191 1.7829 -9.15241 21
785 1 10.3566 9.27658 13.3024 12
786 1 0.218153 -0.191092 3.03732 22
787 1 8.7202 2.93849 -6.08111 24
788 1 -14.2875 0.120902 -6.56258 21
789 1 -13.6055 -4.60049 -5.74831 21
790 1 -2.3824 4.8771 16.7392 11
791 1 5.09066 6.45824 -9.64859 20
792 1 12.2747 11.9691 5.16537 15
793 1 -0.806647 -0.274954 6.095 21
794 1 -3.47518 -14.6461 0.51773 22
795 1 -5.10035 -16.7484 7.32227 14
796 1 -0.8017 -1.25513 8.94627 20
797 1 13.3733 8.58342 9.26072 12
798 1 0.960911 -6.24177 -9.17107 21
799 1 -7.15162 8.8641 -1.46522 22
800 1 6.64916 7.39883 3.69804 23
801 1 -11.2944 -4.85716 2.94189 18
802 1 7.25603 8.30668 -10.6946 20
803 1 -4.9257 -12.1129 -4.64755 21
804 1 1.56873 -13.916 1.8602 24
805 1 -0.646169 -13.7773 -0.233305 22
806 1 6.41428 3.18506 -8.94669 22
807 1 6.34089 15.3734 3.41258 19
808 1 -6.75356 -6.56152 -13.4328 15
809 1 -1.58389 1.76231 8.5446 19
810 1 2.10522 4.89241 -18.2533 10
811 1 -11.985 0.293265 -11.6447 15
812 1 -14.5213 -1.25207 -1.34902 19
813 1 2.79807 14.1411 -3.19347 23
814 1 8.11357 -0.42322 -1.5179 22
815 1 -7.3266 -3.32113 -14.0388 16
816 1 -4.14225 -9.32281 0.39893 20
817 1 12.3919 6.82014 -6.67595 19
818 1 11.1632 -6.91457 1.87932 21
819 1 -5.37582 5.56235 12.269 21
820 1 9.26294 -11.1569 4.26445 16
821 1 15.1188 -5.32605 -2.54504 16
822 1 9.39445 -5.04942 7.60275 18
823 1 1.791 9.84891 6.46596 21
824 1 -9.68597 4.27862 11.8659 14
825 1 -8.77277 6.72612 4.82406 22
826 1 -1.61724 -15.1931 8.83007 18
827 1 8.91736 1.63705 2.53032 25
828 1 8.64373 3.70111 13.0764 21
829 1 -17.6273 -2.25456 0.0686266 12
830 1 9.53492 -11.1257 -3.05012 22
831 1 0.704614 5.80807 -3.11571 26
832 1 -11.6896 9.54322 -5.87132 22
833 1 3.99347 7.95946 1.6293 22
834 1 1.94662 -12.3913 10.6181 17
835 1 5.78359 5.76107 18.4628 11
836 1 -2.75987 10.6333 2.01512 21
837 1 5.20305 -13.1737 7.95535 18
838 1 -8.24061 -5.74119 -3.74443 21
839 1 4.1287 1.85816 9.52641 22
840 1 -16.2963 -5.20632 -4.08447 12
841 1 -1.79925 8.40474 16.1255 10
842 1 4.49971 13.0416 2.48547 19
843 1 -9.79917 -9.44498 8.44884 17
844 1 -2.67472 -18.3378 9.03581 9
845 1 7.28962 -3.9516 5.11264 21
846 1 14.4089 -3.70817 5.9424 13
847 1 5.56818 6.97608 6.71225 22
848 1 -0.707365 9.01902 -3.18632 26
849 1 -6.95312 -10.5492 -9.72409 19
850 1 -0.333965 5.82261 -16.3902 15
851 1 -4.4991 1.02535 15.9583 15
852 1 -3.29745 15.2924 5.8723 19
853 1 14.3463 1.36594 3.76325 18
854 1 1.6341 6.37164 -6.24215 24
855 1 -2.7028 9.38025 10.6952 21
856 1 7.35048 10.4021 13.229 14
857 1 5.83652 -3.624 -11.5189 17
858 1 -5.13647 -12.2039 -1.04542 21
859 1 -2.87916 0.985 -5.42589 24
860 1 13.5632 -0.213865 6.4209 19
861 1 0.0494552 -1.55982 -13.8842 22
862 1 2.16533 9.61805 14.4893 14
863 1 5.71758 -13.4484 -4.6744 14
864 1 4.67445 2.7897 -14.1175 17
865 1 -3.94332 -9.64259 -3.02838 21
866 1 10.4238 8.06623 -11.9482 14
867 1 16.0662 -2.85285 -0.650499 14
868 1 -2.64782 -10.5984 12.0397 14
869 1 -6.15991 -9.39655 -11.9935 17
870 1 2.34505 0.370743 -3.21759 24
871 1 8.97593 9.83999 1.14879 23