ITEM: TIMESTEP
513000
ITEM: NUMBER OF ATOMS
2000
ITEM: BOX BOUNDS pp pp pp
-30.0 30.0
-30.0 30.0
-30.0 30.0
ITEM: ATOMS id type x y z Coordination
1 1 -13.9621 6.42825 -12.5519 13
2 1 -5.19416 -12.1807 -11.857 13
3 1 0.628739 14.2082 13.2675 12
4 1 -0.707399 -14.7912 5.3287 18
5 1 -10.5495 7.8836 -4.56246 20
6 1 8.9668 -12.0165 -9.43562 15
7 1 -10.353 4.95186 -5.3921 21
8 1 0.407889 -3.83637 10.0077 20
9 1 -12.4875 3.32369 -12.3261 15
10 1 -12.7425 -8.70867 6.44674 16
11 1 12.7611 1.90684 -10.0582 14
12 1 -3.3917 6.9457 -8.05309 21
13 1 -6.77327 -7.4836 1.71716 21
14 1 -13.036 -9.30881 2.97954 14
15 1 2.45638 0.728747 13.049 19
16 1 7.81173 -1.15263 7.2794 22
17 1 -2.26558 3.48897 10.074 23
18 1 6.64717 -0.481116 1.3108 23
19 1 -4.50365 6.47736 -5.09547 23
20 1 3.75734 -0.79418 11.4994 22
21 1 -10.5257 -3.11507 -11.4658 19
22 1 -11.771 -2.6286 11.2975 15
23 1 13.4984 4.1193 5.74479 25
24 1 -0.764436 9.51859 -9.8338 20
25 1 2.04918 7.92446 -15.5791 13
26 1 12.3978 0.866765 10.7059 18
27 1 -6.40043 -0.641095 3.1344 22
28 1 -14.438 3.87661 -10.0345 17
29 1 -1.74123 1.30949 -8.30449 22
30 1 -10.8235 11.2807 8.53374 12
31 1 3.34556 -10.1054 0.171952 21
32 1 -0.0474283 -0.938897 11.5553 17
33 1 0.540283 -7.49037 -6.37997 20
34 1 7.59075 -13.5513 4.86583 15
35 1 -7.09337 -13.3856 -6.40548 16
36 1 -12.9755 -5.29403 10.4847 14
37 1 2.9733 -5.20627 -6.58149 21
38 1 -6.81461 -6.9702 -10.0525 20
39 1 6.11774 -11.5448 -11.5314 14
40 1 -4.49163 9.17972 -13.5569 16
41 1 1.21228 6.23153 13.317 17
42 1 3.23891 -8.02241 6.47236 20
43 1 2.67421 3.50101 14.8383 19
44 1 -15.8132 3.33532 -1.51389 17
45 1 -14.4539 -4.12045 5.04751 16
46 1 -8.95749 -0.454391 -4.97699 21
47 1 -0.558712 12.3453 -7.90988 20
48 1 -2.23991 -14.1299 -8.4207 14
49 1 -0.934151 -0.00252987 -11.41 21
50 1 4.24172 -10.7182 -7.95992 23
51 1 -0.246308 -5.15738 13.0272 18
52 1 -16.1518 8.21715 -6.199 13
53 1 4.13048 12.1549 -10.9091 15
54 1 2.2678 13.515 7.73827 22
55 1 -9.67212 10.1449 -10.1435 15
56 1 1.49826 16.7126 1.63392 18
57 1 2.21368 -15.6722 4.29124 20
58 1 5.90108 -7.98001 -5.90067 20
59 1 3.5589 -3.46954 -14.3512 18
60 1 -7.87063 13.0687 9.11495 13
61 1 -12.26 -7.37119 -8.92284 14
62 1 4.45337 2.0698 6.42564 23
63 1 -11.6807 7.88734 -8.25061 22
64 1 -7.41343 -6.84157 8.24844 19
65 1 -2.02244 13.4927 11.627 14
66 1 -14.6882 7.10895 -9.24587 18
67 1 -4.4849 5.57312 11.1271 22
68 1 -0.472332 6.33233 -8.83672 24
69 1 1.27059 5.17506 5.30942 25
70 1 -1.14568 -12.4 10.8785 17
71 1 1.038 4.31483 8.95382 22
72 1 9.31372 -13.487 -1.10199 16
73 1 -2.74299 9.92273 14.5613 17
74 1 -13.1949 0.461859 -8.57492 21
75 1 -12.4901 9.43092 -10.8341 15
76 1 -0.218363 12.816 9.45283 24
77 1 11.654 -3.79482 -9.86392 14
78 1 2.82876 -10.767 8.43726 22
79 1 -13.7372 -0.800018 5.85061 17
80 1 -10.3946 -2.96706 0.961535 19
81 1 5.21513 14.7399 8.16247 16
82 1 5.69806 -5.28615 15.6195 10
83 1 1.58982 -5.63732 4.88765 21
84 1 -13.5281 -3.59689 0.903394 21
85 1 9.10099 1.05059 11.2063 21
86 1 7.90087 -3.0269 -6.62636 24
87 1 -6.5759 7.09712 7.86453 20
88 1 5.86816 -6.26458 10.1013 22
89 1 -2.88772 -2.43452 2.58993 21
90 1 -9.31129 -5.15422 -14.0348 12
91 1 -10.7388 8.4986 6.84179 16
92 1 -8.50056 10.4658 -4.22395 20
93 1 -3.1171 3.92542 -6.8665 22
94 1 3.35832 0.36226 -5.92049 22
95 1 4.95999 -2.40712 -5.8482 25
96 1 8.42727 10.8713 -7.19169 17
97 1 11.0149 -8.61356 3.70474 16
98 1 6.45997 -9.00508 11.4051 14
99 1 -5.64819 15.0207 -3.07071 15
100 1 -11.6929 12.8148 3.25834 14
101 1 -7.21535 -3.15123 15.3326 14
102 1 -5.1797 8.12007 0.984305 22
103 1 -4.42919 -5.41137 6.91491 21
104 1 12.64 -9.4355 -6.91347 15
105 1 -8.9895 12.2922 6.20055 20
106 1 -4.34702 -8.56672 3.8478 21
107 1 11.2269 -12.1446 -7.21359 15
108 1 4.48179 0.305845 -9.45227 21
109 1 -5.9259 1.34107 -13.2931 23
110 1 5.67834 -0.669346 4.65747 21
111 1 0.10299 10.8746 3.57234 21
112 1 -9.30707 7.81518 -12.6641 20
113 1 -2.4529 4.3901 15.8733 16
114 1 1.17184 11.1862 -2.62936 22
115 1 -12.7377 9.06958 0.192282 19
116 1 0.499111 10.8934 0.614566 21
117 1 0.292569 0.55873 -5.77232 21
118 1 0.472166 -9.14834 6.43183 21
119 1 12.3482 -2.09549 12.0528 11
120 1 2.61247 -2.76617 -8.282 23
121 1 4.3434 -7.86442 -8.13377 20
122 1 -2.77307 2.56653 6.25174 23
123 1 6.60564 -2.60184 17.1516 14
124 1 -9.42238 -7.95071 -1.41984 23
125 1 8.52357 -3.45518 1.93799 23
126 1 -9.59204 -8.12508 -4.81822 22
127 1 14.1949 -7.51415 1.67815 11
128 1 -5.26761 6.27898 -1.68254 23
129 1 8.71326 2.55239 -15.2981 12
130 1 6.95931 16.2786 -0.513065 15
131 1 -5.28788 -5.63705 15.1836 12
132 1 -8.47797 -12.6647 9.97669 12
133 1 -2.2332 6.18584 -2.70772 25
134 1 4.19972 -6.52177 -12.9036 21
135 1 5.075 5.83919 -7.20968 22
136 1 13.7846 -9.1375 -1.59764 16
137 1 3.76663 -14.0135 8.4315 17
138 1 -9.83142 -7.78908 1.70286 20
139 1 14.8108 3.22023 9.04022 15
140 1 14.2504 -6.19459 -6.90786 13
141 1 -17.7142 -3.00923 -2.95974 11
142 1 8.45916 6.63519 5.77377 23
143 1 14.7662 9.09586 2.7181 12
144 1 -7.12174 0.331199 15.9142 12
145 1 6.11815 5.07408 -1.80458 23
146 1 -5.72977 10.3185 6.47226 23
147 1 -3.4868 15.4504 -5.15311 11
148 1 -3.14397 -2.58011 -10.0894 21
149 1 8.6049 -14.2025 -6.78206 13
150 1 1.4147 13.7657 -9.79715 13
151 1 7.51416 -6.46132 13.1606 15
152 1 -2.93553 0.197568 -13.7245 22
153 1 -4.4076 3.63955 -3.65018 23
154 1 11.0622 2.0542 -4.01313 21
155 1 -11.953 12.2757 0.0614087 14
156 1 7.38789 -5.75377 -1.79119 25
157 1 -8.16949 15.6012 -1.0867 13
158 1 7.03818 1.49273 -11.6852 20
159 1 11.8762 -8.99177 1.13258 14
160 1 -8.61889 3.83941 -8.4708 23
161 1 -6.77637 12.3371 4.32128 19
162 1 10.9656 4.20673 -8.58919 22
163 1 -1.07633 3.3626 -4.1645 24
164 1 7.75487 7.61353 -2.64143 23
165 1 -3.92787 16.7117 2.98854 12
166 1 9.76679 15.439 0.983733 12
167 1 -4.20767 8.83097 -2.79533 21
168 1 2.15305 14.9259 -6.63157 16
169 1 3.32415 9.33111 -13.1908 17
170 1 -10.5629 -11.2212 1.68374 16
171 1 -14.2736 9.60095 -7.99481 14
172 1 -2.57357 1.58838 -16.5894 15
173 1 0.544468 -10.5204 -14.7932 11
174 1 11.0309 11.0833 9.03188 14
175 1 -2.89843 14.3701 8.85364 16
176 1 -9.76523 -3.77118 -5.07835 23
177 1 -13.5882 12.0002 -2.89667 11
178 1 14.9444 -2.39627 -6.65597 11
179 1 -3.24004 3.2691 -13.2985 23
180 1 7.19646 0.360929 17.4217 15
181 1 4.58293 16.6088 4.99307 14
182 1 -0.315092 8.2336 5.24034 23
183 1 3.06168 -8.43098 -15.2764 14
184 1 -4.91729 11.687 10.0195 18
185 1 -1.27058 11.9164 -4.78468 19
186 1 2.09266 -2.64806 13.3518 20
187 1 -7.92516 -4.75718 -0.367429 20
188 1 -1.75032 -12.5473 -11.823 13
189 1 -11.6873 13.8071 -5.54156 11
190 1 -6.08086 -11.2493 8.72262 19
191 1 4.88701 -15.3443 -2.36102 16
192 1 2.02467 11.4783 -5.77638 20
193 1 -12.865 2.0257 6.59129 15
194 1 1.36319 8.14202 -1.12325 23
195 1 10.9683 10.5667 -5.43568 19
196 1 -7.11936 2.36992 13.6861 17
197 1 1.04613 -8.06827 13.0657 15
198 1 -13.4883 6.51089 -5.70884 22
199 1 -0.449461 16.0938 7.26572 17
200 1 -1.05121 7.54055 8.7405 17
201 1 12.4596 3.84909 12.2691 12
202 1 -9.50805 14.6789 4.34798 16
203 1 9.68418 -6.51755 -10.9717 16
204 1 -7.77864 10.486 11.4044 13
205 1 -6.42857 4.28379 -6.27401 21
206 1 12.7252 -3.69195 -2.00201 26
207 1 -3.90337 -4.98283 3.84697 21
208 1 -13.98 1.53957 3.38649 19
209 1 -8.10567 -12.4598 6.92276 17
210 1 6.21706 6.91067 12.3075 22
211 1 -16.8804 -0.522927 -5.57202 14
212 1 -0.993222 0.200264 -2.23875 23
213 1 -4.47427 -17.3848 0.794482 13
214 1 -1.97157 0.203302 0.909544 24
215 1 -5.72996 -4.36183 -8.16155 23
216 1 8.45466 -8.21291 -3.8889 20
217 1 -1.15621 13.3 6.30752 20
218 1 -8.86329 -2.36931 4.3574 19
219 1 3.36201 12.2263 13.2679 13
220 1 -16.5254 2.83581 -4.71022 13
221 1 -5.78493 8.94402 -8.39908 20
222 1 -7.45721 0.503406 -7.77 22
223 1 -8.50133 -4.22355 12.203 20
224 1 -3.54528 -16.3022 3.59521 20
225 1 4.88959 -15.5785 6.00829 19
226 1 -13.5835 10.539 2.44443 11
227 1 16.3531 3.44974 3.04315 13
228 1 5.56354 2.867 -5.58195 22
229 1 -7.19959 -4.10432 -11.601 20
230 1 5.26151 -3.5453 11.6448 18
231 1 -4.87061 0.390827 0.749047 20
232 1 7.39744 -15.3714 -0.446094 16
233 1 -5.93031 5.3448 -8.90329 24
234 1 3.3558 -12.5845 -10.3931 16
235 1 8.74992 -0.679645 -13.4886 18
236 1 6.50974 4.70573 -13.0273 22
237 1 -10.4457 2.44447 -10.5995 21
238 1 -3.72863 12.8319 -6.79604 20
239 1 -3.02834 -10.4796 9.08678 20
240 1 5.4094 13.5028 -2.11642 16
241 1 -8.29722 -0.803994 12.7806 19
242 1 -6.37019 11.3876 -6.96408 21
243 1 6.82385 1.40523 8.6612 22
244 1 -7.74154 0.149093 -15.9219 12
245 1 -6.43153 15.1117 -6.67832 12
246 1 3.68954 6.18409 -12.4789 22
247 1 -6.60118 -6.16898 11.9899 20
248 1 -0.940042 5.48168 2.66773 23
249 1 -10.4531 5.84796 3.09075 23
250 1 -5.75929 7.25762 4.62911 23
251 1 -3.74768 -8.63404 -11.2277 22
252 1 -7.62139 -10.1035 -0.0973526 23
253 1 6.65279 -10.8592 -0.281035 19
254 1 -2.24472 3.09378 -1.18984 24
255 1 -3.04264 3.26916 1.91991 22
256 1 -3.57374 -7.37969 1.61536 18
257 1 11.9185 6.56242 13.6864 13
258 1 4.48243 9.08264 -10.5588 20
259 1 0.0234875 13.962 1.94206 21
260 1 -13.2038 4.38829 -2.95455 24
261 1 -14.3455 11.3047 -5.6026 11
262 1 3.06629 8.51507 12.2356 19
263 1 1.26736 -17.4927 1.50591 17
264 1 14.0641 -1.12731 -3.35343 19
265 1 1.65265 7.6697 7.75682 21
266 1 -12.8433 7.27697 5.54463 13
267 1 -11.3718 -6.41123 -3.23433 25
268 1 7.43469 5.25376 -15.8357 12
269 1 2.12703 -1.83765 8.72361 19
270 1 8.94388 10.1753 -10.3555 16
271 1 -0.47889 -5.54836 1.89744 25
272 1 -4.0864 0.723374 -10.6081 23
273 1 0.989015 -17.0232 7.16933 17
274 1 10.1356 -1.16036 -8.16583 20
275 1 -11.8501 -0.502802 1.37679 23
276 1 4.7035 -13.635 0.387022 23
277 1 -8.77984 -8.50512 -13.4205 12
278 1 5.79161 18.1467 -3.18701 9
279 1 -4.10009 -5.04722 -11.2974 21
280 1 0.35288 6.40592 10.7227 18
281 1 13.9635 4.16823 2.22608 22
282 1 -2.39184 -7.8949 7.77897 21
283 1 8.17957 -9.14301 -11.6816 17
284 1 6.0544 -8.92322 5.26328 22
285 1 -10.6417 5.06811 -13.9013 17
286 1 -9.76868 -0.749948 -9.79711 24
287 1 -5.93597 -14.7612 8.62353 14
288 1 9.92287 -1.83522 9.57863 21
289 1 6.46789 -3.81289 8.60016 20
290 1 -4.9704 -1.93638 -12.9023 24
291 1 0.726088 -6.17857 7.47116 25
292 1 -1.57816 8.90272 -15.2063 12
293 1 3.20152 5.00265 -1.01932 24
294 1 -6.01817 -3.60759 2.06207 18
295 1 2.72694 9.88941 2.75057 18
296 1 -9.60218 -1.48163 9.97722 19
297 1 -7.48651 -5.88718 -6.68791 20
298 1 -9.6589 -6.00711 -10.5345 19
299 1 -5.15899 12.4002 -11.8192 13
300 1 -8.3346 -11.4545 -11.9542 11
301 1 -2.78962 -12.7982 3.72711 21
302 1 -1.79962 -7.07591 5.17168 22
303 1 7.57375 -6.17863 -13.5175 14
304 1 13.2999 -1.0264 -8.65264 14
305 1 2.79068 -5.58037 1.80816 21
306 1 7.96084 1.46718 5.56893 22
307 1 -2.17094 -6.30371 -5.51575 17
308 1 -10.7259 -10.5641 11.1117 11
309 1 -6.16327 -15.8378 -4.28425 13
310 1 8.29138 3.37766 16.3196 18
311 1 -5.48558 -11.2419 5.11657 20
312 1 1.89277 3.18521 -4.82127 22
313 1 -1.85405 -9.93539 2.20577 20
314 1 -1.74468 16.5004 0.47956 15
315 1 5.17857 -0.506891 -12.7533 18
316 1 -4.89745 -0.75877 -16.3708 15
317 1 6.03058 -5.62486 1.23234 22
318 1 -10.6654 -7.16853 11.3599 18
319 1 1.1268 8.14369 17.8539 11
320 1 1.81999 -10.2416 -2.62446 17
321 1 -4.61255 -12.2067 -7.88974 19
322 1 -11.2802 -2.00989 -6.86616 21
323 1 10.1167 4.0081 6.57888 23
324 1 -1.00887 5.29296 -14.1743 21
325 1 -0.467874 8.30715 -12.8815 18
326 1 1.7967 -2.87724 3.28197 22
327 1 0.85474 -11.4206 -11.9708 16
328 1 -4.95014 16.4669 -0.157478 11
329 1 2.69502 11.8635 5.28789 17
330 1 8.92742 -1.27318 4.12883 21
331 1 -8.10118 1.05238 5.11342 21
332 1 -2.85518 -6.84603 12.741 16
333 1 -8.19102 5.38234 -0.402076 22
334 1 1.44839 -4.47252 -12.3331 22
335 1 12.0341 9.9582 0.772864 22
336 1 7.8666 -13.1474 1.89009 16
337 1 -3.08547 -3.93518 14.0415 17
338 1 -15.0784 -1.53272 3.00737 16
339 1 1.49303 -16.0749 -1.48027 15
340 1 -5.26036 8.73921 12.3613 19
341 1 -9.99813 6.37445 12.8665 11
342 1 -12.7495 -3.02177 7.92003 18
343 1 -13.8858 -6.03452 7.61119 16
344 1 14.1285 -6.22276 -2.9461 17
345 1 -10.4752 -7.60625 8.18263 22
346 1 8.67181 -4.42725 -9.47909 22
347 1 3.35974 -11.8403 -4.55128 20
348 1 3.7815 16.4823 -1.16753 19
349 1 0.731208 -3.0552 6.7041 21
350 1 -10.1322 13.4588 -2.63559 15
351 1 4.72253 -1.1128 7.78652 19
352 1 5.62668 4.30767 10.3473 24
353 1 -8.54651 0.0348858 1.77323 20
354 1 11.0327 -4.60892 -7.16844 22
355 1 -9.33014 11.5497 2.62034 19
356 1 -5.70076 5.03358 2.10041 19
357 1 -0.0342618 2.56352 1.44197 22
358 1 5.09366 -11.7824 9.94155 18
359 1 11.487 -3.56022 1.10082 23
360 1 -4.44718 5.05074 7.75133 18
361 1 -6.65857 -2.08045 -6.56237 23
362 1 3.42257 -0.230796 2.37852 23
363 1 -1.8081 -0.79436 14.4785 17
364 1 -3.3315 13.5323 3.16616 20
365 1 9.02448 6.65678 15.6244 14
366 1 -8.6269 14.9301 -4.76207 15
367 1 -1.08354 -4.7393 -15.3263 15
368 1 -7.84238 6.84599 -6.67573 19
369 1 3.42416 -10.7786 -13.1027 15
370 1 -6.31657 -0.545004 10.2988 21
371 1 -10.9538 0.428703 4.12771 22
372 1 -3.20204 -3.12133 -6.42706 19
373 1 -5.24432 10.5107 -0.489476 20
374 1 6.95414 -1.29925 10.4362 21
375 1 -7.59581 -9.36756 3.45606 21
376 1 9.53363 -8.78743 6.8915 15
377 1 -4.30147 0.797636 -2.10222 23
378 1 -4.57094 -13.0425 10.7217 14
379 1 -11.6258 5.07929 0.281748 20
380 1 -5.72913 -2.8145 5.17414 24
381 1 5.02526 -9.37692 -3.21896 20
382 1 -4.02154 -0.718727 -7.86749 24
383 1 7.52868 -3.36326 -15.0856 13
384 1 4.72439 13.9669 5.50588 18
385 1 -10.3276 1.38747 -7.51579 19
386 1 1.52711 -7.63933 -11.1412 18
387 1 11.6532 5.22819 -11.4868 17
388 1 -0.837186 -16.3123 -3.65382 13
389 1 -13.361 -7.76114 -5.51588 14
390 1 -3.06197 -4.45877 0.26476 17
391 1 11.25 4.2125 15.4255 12
392 1 -5.29408 -4.46212 -4.53348 20
393 1 11.8638 4.25112 0.102498 25
394 1 -8.40799 4.62689 -11.4436 19
395 1 4.39427 16.2178 1.92116 15
396 1 -14.8756 -2.22526 -3.8694 21
397 1 3.26105 2.45303 0.602926 22
398 1 -7.90681 7.23554 2.39784 19
399 1 -10.3271 10.5122 -1.84796 21
400 1 -3.5122 5.24327 4.32095 22
401 1 7.96599 1.6271 14.587 22
402 1 12.1098 -2.09744 -5.54413 21
403 1 8.5912 -4.19598 11.5698 18
404 1 11.6742 1.21625 -6.94022 18
405 1 -5.93837 -15.3918 -1.07733 16
406 1 2.44939 2.36431 3.79623 26
407 1 -7.9863 6.82819 -3.63681 22
408 1 -0.764731 -9.42652 -4.48467 19
409 1 2.78536 7.71986 4.58543 20
410 1 5.7491 -0.139128 -3.85028 22
411 1 -11.1359 2.14634 -3.66976 21
412 1 2.47093 -12.9799 -1.5746 20
413 1 10.9407 -1.46251 6.47565 24
414 1 -11.7828 -4.00472 -8.9053 20
415 1 -5.62728 -14.2195 5.30551 17
416 1 -8.01237 -8.23827 12.7681 13
417 1 -2.15315 11.2718 -1.67529 21
418 1 -11.9495 -9.7483 -3.28037 15
419 1 6.55293 7.93067 15.0512 16
420 1 -8.65224 2.42275 -5.20893 18
421 1 2.17881 11.2179 -8.81184 23
422 1 4.24851 10.9572 7.56928 19
423 1 -14.1621 -7.11821 -2.32082 15
424 1 -2.93231 -14.2273 -2.4414 20
425 1 -10.9541 -1.8142 6.79489 22
426 1 -12.3288 2.02873 -0.884718 23
427 1 7.3686 -11.5935 7.10154 14
428 1 -7.70159 -12.9705 -2.98865 17
429 1 7.31054 9.45683 7.40409 20
430 1 5.35652 7.61466 -14.769 17
431 1 -11.6751 6.32318 -11.2196 22
432 1 -0.953556 15.2455 -7.63814 13
433 1 -11.9354 4.45348 -8.41994 21
434 1 -0.234669 -12.1065 7.58997 21
435 1 11.8694 6.65284 5.15548 22
436 1 -2.48904 10.94 -12.2315 16
437 1 -2.55111 -1.85863 5.70622 19
438 1 -13.6729 8.78947 -3.31257 18
439 1 3.9202 -2.27023 -2.95788 24
440 1 -6.57792 4.38236 5.57194 19
441 1 -3.29996 -13.0384 6.88897 23
442 1 -0.184359 -4.42686 -5.70668 22
443 1 7.01943 -9.77993 -8.67092 22
444 1 3.93142 -3.18238 5.65963 23
445 1 -8.32491 3.21986 2.69319 18
446 1 -12.8017 0.0739098 9.12988 15
447 1 -12.9571 4.1999 4.43637 17
448 1 0.795752 -8.00156 3.58982 20
449 1 -5.84006 2.69257 -15.9971 16
450 1 10.7877 -13.2764 -4.32605 14
451 1 3.22648 -7.46845 -2.30401 18
452 1 -0.328831 -7.15138 10.4915 19
453 1 4.16386 -5.13952 -1.44838 22
454 1 -3.15011 4.85164 -16.6261 15
455 1 4.38594 -13.6985 3.62926 20
456 1 4.43368 10.8013 -3.59638 21
457 1 -12.5698 10.5726 5.58058 13
458 1 -3.32919 -1.64693 11.4586 19
459 1 -10.432 -5.98093 -6.57447 19
460 1 -1.76397 -4.62464 7.59662 19
461 1 6.27473 -1.29898 13.7204 18
462 1 6.57081 2.20978 -0.208598 22
463 1 -5.81268 2.9615 -0.49607 21
464 1 1.7861 -2.33883 -5.40556 22
465 1 11.8762 -6.37492 5.95903 13
466 1 -0.316251 5.63646 -0.215699 25
467 1 14.5473 12.4604 -3.14287 8
468 1 -2.5311 1.43744 12.0101 18
469 1 2.21374 14.1019 -3.50485 20
470 1 5.67611 -5.95694 4.69753 19
471 1 4.15356 -18.4027 3.94014 9
472 1 -7.45814 7.18509 10.5791 19
473 1 -5.57303 13.8048 7.35423 17
474 1 -8.93594 -11.4532 -8.3551 17
475 1 10.1685 14.7864 4.19857 13
476 1 3.93475 6.41749 10.3506 19
477 1 -5.288 0.0878164 6.24433 20
478 1 -1.65061 -8.28893 -1.61359 17
479 1 -8.43194 4.28238 8.34539 18
480 1 -8.58644 -8.33372 -8.28872 22
481 1 -4.90558 10.519 3.14349 23
482 1 -2.41776 -12.0265 -5.39578 21
483 1 -2.70717 -10.4911 -13.7267 13
484 1 -10.3339 -10.5731 4.73033 14
485 1 -8.58972 -4.41375 6.55831 20
486 1 8.65786 3.92634 9.57489 21
487 1 -6.73863 -11.1452 12.2862 13
488 1 -11.7352 8.68229 -13.5462 10
489 1 9.50598 4.76303 -2.50489 25
490 1 -9.52145 -11.1708 -5.18786 18
491 1 2.46854 4.88916 -9.51561 22
492 1 -0.981794 16.3785 3.82464 18
493 1 -2.35041 5.90481 -11.5327 19
494 1 -2.96538 11.1752 7.79646 18
495 1 -13.6206 -4.41318 -2.16447 25
496 1 0.729818 16.666 -1.60599 16
497 1 5.14754 10.3627 -6.77742 22
498 1 -7.04535 -13.4668 -9.72347 14
499 1 4.25626 0.00632658 17.9984 13
500 1 2.09404 -14.6545 -4.05939 19
501 1 -1.81052 -2.85514 -12.5761 19
502 1 10.5507 -11.6013 1.90646 10
503 1 -7.90022 10.2152 1.1718 24
504 1 0.917563 5.23725 16.5688 16
505 1 11.1195 7.37368 -3.78288 23
506 1 3.64874 10.9363 -0.604914 22
507 1 -7.10297 11.8632 -9.46424 17
508 1 3.01498 2.50022 -8.07902 18
509 1 4.52657 -11.4792 6.12479 22
510 1 -16.5023 -5.0976 -0.789735 15
511 1 4.36034 2.3216 -2.71392 22
512 1 2.7226 16.5438 8.2252 17
513 1 -7.02499 8.03688 -14.745 17
514 1 10.2397 7.43509 -0.566355 24
515 1 6.17584 13.5333 -5.3468 16
516 1 9.2389 -6.42279 1.02476 22
517 1 12.9633 1.81738 -1.72778 23
518 1 -0.0606245 1.77877 -14.3214 22
519 1 0.481854 -8.10538 0.18391 20
520 1 1.81743 -16.0506 9.80817 10
521 1 2.79029 -7.82574 9.25864 22
522 1 -7.09054 1.62979 -10.3849 23
523 1 -4.86623 -7.53303 9.95827 19
524 1 2.33866 5.10283 2.17138 25
525 1 -5.11198 -7.59067 -8.1491 18
526 1 8.40463 13.2033 8.83607 11
527 1 0.802062 2.75742 -10.867 23
528 1 3.41053 -2.71624 16.1456 14
529 1 -11.4799 2.83342 9.55159 16
530 1 6.45215 -15.7973 2.6377 15
531 1 -12.3084 -2.54297 3.83581 22
532 1 10.2424 -3.53858 -4.10628 23
533 1 10.9968 -0.931826 -2.49182 21
534 1 -1.35716 6.46852 -5.87939 25
535 1 -7.51013 3.65543 -3.04127 23
536 1 2.63251 -9.65435 -5.28533 19
537 1 4.18824 4.91718 -15.2324 16
538 1 8.47292 -7.35254 -7.97913 24
539 1 -8.51667 9.8084 8.28455 19
540 1 8.72026 13.7009 -1.47327 14
541 1 -4.19562 -3.72963 -14.7296 17
542 1 7.13032 -8.26551 2.07338 22
543 1 4.14815 -0.431063 -16.0803 15
544 1 -6.59937 -4.05725 9.2794 21
545 1 -4.42183 13.1051 -1.38111 17
546 1 -8.61313 -0.844731 -12.4195 18
547 1 -14.8566 0.990572 0.413975 19
548 1 -0.931366 -8.9719 -11.5672 21
549 1 -4.96324 -8.81514 14.104 11
550 1 3.12824 8.19892 -7.72962 21
551 1 16.0298 2.24354 5.89143 13
552 1 16.1869 0.285954 -2.37717 11
553 1 -10.1364 -11.4901 -1.60381 15
554 1 -1.63923 -11.2573 -1.29678 18
555 1 -3.37604 -6.91352 -14.1607 19
556 1 -8.82123 15.4383 7.43513 11
557 1 5.98082 -5.41109 -7.55822 24
558 1 0.718616 7.94936 2.00499 24
559 1 13.1971 -0.925425 0.156492 25
560 1 5.34465 16.2818 -6.05727 10
561 1 6.10549 -7.80074 -0.692371 19
562 1 7.18919 -2.9192 -3.53176 23
563 1 13.9605 4.90546 -9.3967 13
564 1 3.74148 9.49313 15.5545 13
565 1 -6.56522 -6.26677 5.0976 21
566 1 -5.43902 -4.18349 -1.68837 18
567 1 3.73314 6.7685 14.8023 20
568 1 9.73953 -1.99043 17.706 11
569 1 2.04863 3.61928 -14.0374 20
570 1 -6.14166 -7.52231 -1.7449 21
571 1 2.43148 -5.5279 11.2096 20
572 1 8.33483 12.222 11.5785 12
573 1 6.67933 8.35056 -8.25733 23
574 1 -6.31453 9.19002 -4.95455 21
575 1 -0.27697 13.5082 -0.766259 20
576 1 8.48045 -3.98808 15.0112 15
577 1 10.2743 2.31743 -12.3978 16
578 1 11.3703 -8.83273 -3.52071 24
579 1 13.5899 6.39479 10.2917 12
580 1 -14.1473 -6.87848 1.22369 18
581 1 -9.17113 13.0966 -7.62992 15
582 1 -3.09986 0.797031 8.73216 21
583 1 -10.9459 0.329313 12.0771 15
584 1 -3.6698 10.3668 -9.13218 23
585 1 -1.32232 -16.5339 -0.328013 19
586 1 5.68813 -2.94663 -9.18511 21
587 1 -2.20718 14.9381 -2.42919 17
588 1 -8.9266 -3.66601 -8.68139 20
589 1 5.43443 -10.9896 2.76573 22
590 1 -11.2438 -5.67067 -0.133108 23
591 1 0.845899 11.4769 -11.9518 15
592 1 -5.99601 1.03036 -5.28722 23
593 1 -1.77825 8.17055 12.4162 21
594 1 -9.7613 -7.12452 4.8446 18
595 1 4.66625 7.82818 -2.0818 23
596 1 0.316498 -12.8636 -8.91551 17
597 1 2.42503 -5.39246 14.666 15
598 1 9.11455 -0.386096 -4.93968 22
599 1 1.26133 -0.0211801 0.385203 22
600 1 -9.90529 8.03021 0.501749 20
601 1 5.19928 3.21543 17.4143 17
602 1 8.21836 15.9498 -3.58308 11
603 1 12.2765 -7.12813 -9.11984 14
604 1 0.487836 2.8973 12.2817 20
605 1 8.35167 8.34829 -14.9443 11
606 1 -2.91578 -15.7696 10.8619 10
607 1 -4.50744 6.16686 -14.3841 24
608 1 7.35281 -0.468025 -16.8215 10
609 1 1.21316 15.0536 5.43571 21
610 1 8.72219 4.76715 -11.2129 21
611 1 -6.63066 -1.63651 -10.097 21
612 1 -6.7483 -10.0361 -6.1587 21
613 1 -11.7889 -6.63274 -12.5077 10
614 1 10.9426 1.26973 5.03397 20
615 1 15.276 6.8731 -6.9916 12
616 1 6.28273 -6.94726 -10.1594 21
617 1 14.5155 -0.286647 9.93966 10
618 1 9.38399 -10.1792 -6.19215 22
619 1 10.2129 5.36887 -14.2969 13
620 1 6.46337 12.1145 3.9129 12
621 1 -9.4016 2.52835 -0.461529 21
622 1 5.21517 9.31993 9.88388 19
623 1 12.6435 4.35789 -2.89823 22
624 1 15.2006 1.44252 0.76938 19
625 1 13.3603 7.84513 -10.29 10
626 1 5.88478 4.28995 14.1681 19
627 1 14.044 6.57287 7.19794 20
628 1 4.2917 -7.27321 13.4789 16
629 1 14.8525 9.55799 -0.366201 11
630 1 5.59188 1.95664 3.26151 22
631 1 -1.42411 5.33099 13.2222 19
632 1 15.3361 0.961959 -7.37765 14
633 1 11.1722 -1.83977 15.2548 11
634 1 -4.96235 2.08446 -7.96334 22
635 1 15.2527 5.64212 -3.63058 13
636 1 14.7129 -4.10968 0.464451 17
637 1 4.22082 -7.93599 3.13655 19
638 1 -10.4609 8.53176 10.272 11
639 1 11.7709 8.9782 11.3894 13
640 1 13.0244 -2.70104 8.84017 12
641 1 7.03425 7.03632 8.92434 23
642 1 -0.114849 16.1409 10.3144 14
643 1 3.52082 4.90316 7.71127 22
644 1 -1.73927 -19.0498 2.19149 11
645 1 -5.02161 11.9067 -3.8304 20
646 1 11.3803 9.91145 -8.22307 16
647 1 9.60501 -3.59531 -12.4524 15
648 1 2.17234 17.5197 4.89436 12
649 1 -0.0684309 -14.4475 -6.28556 14
650 1 3.64262 -5.07626 -9.99869 22
651 1 -10.0923 3.35962 5.38776 20
652 1 -6.35517 6.9529 -11.9898 18
653 1 -2.02558 -18.8665 5.54069 10
654 1 -5.12627 3.73239 -11.445 23
655 1 -12.9612 3.38015 -5.74413 18
656 1 12.9808 -5.67839 3.17438 15
657 1 10.3234 9.29268 6.63084 22
658 1 5.75959 -8.83799 8.48532 22
659 1 -14.299 -2.38157 -7.23893 16
660 1 1.10729 2.91091 -1.52985 23
661 1 3.00622 2.30518 -17.4495 11
662 1 5.12534 -3.02105 2.70586 26
663 1 1.48106 -0.144879 16.0523 16
664 1 6.52663 10.7075 -12.6199 13
665 1 9.36429 -1.37306 13.1052 20
666 1 8.2594 5.44048 -8.04574 24
667 1 4.55401 -0.125782 -0.825834 24
668 1 11.3933 12.5606 1.98494 17
669 1 2.99509 -13.0864 -7.30702 17
670 1 -10.4968 -2.10535 14.3666 11
671 1 14.2108 -0.999124 6.15919 16
672 1 0.00205573 11.4787 12.6841 22
673 1 6.80637 11.8418 -9.32349 15
674 1 -11.2595 7.4489 -1.809 20
675 1 9.99901 10.5815 -2.18791 23
676 1 -8.43004 -13.5129 0.252191 14
677 1 11.7803 1.60515 1.64481 23
678 1 7.70152 15.6775 6.2315 13
679 1 -5.21798 2.29933 10.8904 21
680 1 -10.1477 -0.391606 -1.23477 21
681 1 -11.8315 -2.16568 -3.80459 21
682 1 6.06398 1.63332 11.833 24
683 1 -0.0134945 -9.49338 9.50444 24
684 1 9.29796 6.88774 11.2574 19
685 1 -5.9716 12.8496 1.50988 19
686 1 8.43837 4.59609 0.813149 22
687 1 6.12095 -3.1593 -0.451504 25
688 1 7.72901 4.44768 4.00302 24
689 1 1.32099 -2.93251 -16.4303 15
690 1 -9.75248 -4.18985 9.05852 22
691 1 7.59496 -1.08618 -10.2455 21
692 1 -1.563 -8.27583 -8.40877 21
693 1 13.0454 -11.5983 -4.15337 12
694 1 12.1619 4.11457 8.72249 18
695 1 4.45914 4.88063 4.831 23
696 1 -8.22068 1.65054 10.2538 22
697 1 8.86511 9.7178 9.83666 19
698 1 0.147519 -3.09787 15.416 13
699 1 -8.05764 9.14297 4.87019 24
700 1 -1.20797 -5.92125 -11.3584 22
701 1 -4.38714 -2.15778 15.5854 14
702 1 -4.57474 -1.6051 -4.09871 23
703 1 3.58288 3.1947 11.5959 16
704 1 -8.18775 -12.9516 3.66973 16
705 1 13.4333 7.11979 -1.37244 18
706 1 5.90271 -12.7098 -2.72546 23
707 1 0.0735247 3.69022 -7.32969 22
708 1 6.59785 9.98508 -1.23707 19
709 1 9.25834 12.533 6.20226 17
710 1 1.03795 0.236415 -16.5296 15
711 1 -0.705746 2.79459 4.11682 23
712 1 2.82126 13.6165 0.0143388 22
713 1 11.2866 9.68715 3.3556 19
714 1 0.830305 -5.60706 -1.00128 20
715 1 -6.99038 -9.9185 -2.98858 21
716 1 -0.184337 3.41443 -16.5113 17
717 1 -9.28142 13.8217 0.925373 16
718 1 1.92165 -6.0149 -15.1691 15
719 1 5.48797 4.62538 1.62366 23
720 1 9.99567 7.46083 -9.33835 22
721 1 11.7053 13.0842 -0.944807 18
722 1 -3.19184 5.65386 0.319812 23
723 1 -7.14204 0.795781 -2.37697 23
724 1 7.49898 5.3255 -5.02059 22
725 1 10.9048 1.5438 13.5681 19
726 1 4.91239 1.12888 15.0948 21
727 1 0.302052 -11.264 13.5577 11
728 1 -7.11304 10.1887 -12.0956 14
729 1 2.64506 11.5969 10.3923 21
730 1 6.02872 -9.19731 -14.1172 16
731 1 2.47417 -0.213287 5.12639 22
732 1 9.10109 13.7083 -5.49572 11
733 1 8.14337 9.58255 4.28233 22
734 1 -6.91033 -1.32782 -0.436976 16
735 1 10.9187 -7.10571 -5.72594 21
736 1 6.87661 5.94742 17.9656 11
737 1 -11.7453 -4.91553 6.08117 20
738 1 -0.00643007 -11.6629 4.15423 20
739 1 -0.137653 -3.31831 -10.2351 18
740 1 -7.54655 12.4753 -1.7968 23
741 1 1.05833 2.46923 6.78927 22
742 1 10.2455 -6.20716 -2.60332 24
743 1 5.83625 10.3272 1.64538 21
744 1 -16.2156 -4.60968 2.16232 13
745 1 -0.415789 2.07784 15.3987 17
746 1 -6.52938 5.86646 -16.743 14
747 1 -9.66468 6.80049 -15.993 12
748 1 1.91808 -13.6203 6.11294 21
749 1 8.87393 8.11483 -6.01494 25
750 1 9.06913 -6.93522 4.79111 22
751 1 -2.6989 8.04429 2.89107 23
752 1 -11.8622 5.49033 11.4635 9
753 1 3.03498 -2.17657 -11.4903 21
754 1 3.20509 -10.0811 12.1176 16
755 1 2.80241 13.6717 3.09531 20
756 1 -5.97568 3.80747 16.4102 11
757 1 -2.75223 -2.08682 -1.43223 21
758 1 -10.0811 -8.9477 -10.5358 18
759 1 -1.91509 -11.1426 -9.12959 22
760 1 -5.27516 -15.4757 -7.93247 11
761 1 -0.18035 16.3229 -4.76981 14
762 1 5.08287 -5.63306 -4.08059 23
763 1 2.98581 -2.74856 0.200357 25
764 1 -2.30105 10.8622 4.77973 19
765 1 6.16243 -13.5418 -8.81135 14
766 1 11.4263 -11.1427 -1.37218 16
767 1 7.52808 -6.58338 7.21203 19
768 1 13.1945 3.80412 -6.13349 22
769 1 6.80619 -11.2065 -5.50443 23
770 1 -8.07608 -9.64341 6.45683 22
771 1 1.18483 -0.0696113 -8.91091 19
772 1 -3.61843 -17.2135 -2.40665 13
773 1 1.6951 -5.02318 -3.9008 20
774 1 0.677005 -2.41096 -2.09319 23
775 1 -10.0495 1.16366 7.71053 21
776 1 -6.03068 -14.7231 2.15919 16
777 1 12.967 10.1964 -2.44896 20
778 1 -6.43966 15.9699 5.20663 14
779 1 -5.43366 2.4143 3.39707 21
780 1 -14.3334 4.04025 1.37255 17
781 1 9.94509 -0.791904 0.917478 25
782 1 -13.7197 -1.96129 -10.6467 13
783 1 -3.02757 9.33494 -5.91483 23
784 1 9.50141 1.54213 -9.52227 20
785 1 8.83633 8.80132 13.208 14
786 1 0.0284156 -0.201733 3.33553 23
787 1 8.66327 2.48054 -6.33622 21
788 1 -13.3197 0.0667679 -5.4347 19
789 1 -12.9814 -4.47625 -5.46338 21
790 1 -3.95553 6.78811 14.893 18
791 1 5.79198 5.56254 -10.1304 22
792 1 11.9593 12.0705 5.79395 14
793 1 -0.539447 0.291987 6.46739 20
794 1 -3.62132 -14.1937 0.649255 22
795 1 -3.42539 -16.1412 6.99066 18
796 1 -1.30948 -1.71635 8.76374 22
797 1 13.7908 10.0349 8.29165 11
798 1 0.811185 -5.86076 -8.80457 20
799 1 -7.33187 8.77355 -1.66012 22
800 1 6.13628 7.47814 3.64235 24
801 1 -12.2044 -5.89287 3.22491 20
802 1 7.17272 7.85258 -11.4987 22
803 1 -5.22206 -12.3912 -4.45048 20
804 1 1.84134 -13.9948 1.48147 21
805 1 -0.422164 -13.6368 -0.199926 19
806 1 6.30043 2.60582 -8.70489 21
807 1 7.36273 16.4712 3.08987 12
808 1 -6.38582 -6.08999 -13.5323 16
809 1 -0.194487 1.45752 9.4702 18
810 1 2.35635 5.16283 -17.6319 12
811 1 -11.7156 0.244077 -12.2265 15
812 1 -13.5468 -1.08862 -1.44263 20
813 1 3.19307 16.4419 -3.95879 15
814 1 7.84981 -0.624108 -1.60229 22
815 1 -7.36829 -2.90457 -14.7197 13
816 1 -4.31548 -9.40467 0.0836427 19
817 1 11.9019 7.02904 -7.05119 21
818 1 12.1725 -6.39559 -0.122743 20
819 1 -6.59056 5.75946 13.5516 17
820 1 8.54655 -10.55 3.95519 18
821 1 15.8748 -3.37385 -2.19142 15
822 1 9.45439 -4.48665 8.07676 17
823 1 0.471567 10.5185 7.23905 22
824 1 -10.1515 3.09444 12.7659 14
825 1 -8.96767 6.38271 5.84855 20
826 1 -0.994695 -14.5965 8.71876 19
827 1 8.83621 1.69881 2.41695 21
828 1 7.98964 4.14259 12.815 21
829 1 -15.979 -2.11727 -0.297577 19
830 1 8.83415 -11.0654 -2.93288 21
831 1 0.708633 5.83338 -3.32848 24
832 1 -11.8228 9.71885 -5.76322 20
833 1 4.07054 7.63344 1.26668 22
834 1 1.39175 -12.913 10.5774 20
835 1 3.41991 5.37281 19.0795 10
836 1 -2.57728 11.3421 1.26018 24
837 1 6.58154 -14.3795 8.28563 10
838 1 -8.10431 -5.87991 -3.32262 24
839 1 3.10975 1.1939 9.34375 20
840 1 -15.6884 -5.31036 -4.27809 12
841 1 -1.56761 7.31014 16.9701 11
842 1 5.59748 13.6042 0.921005 19
843 1 -10.611 -10.5044 8.06855 16
844 1 -1.21059 -17.6283 8.40187 13
845 1 7.41982 -3.56855 5.40751 21
846 1 13.7667 -3.52145 5.32384 15
847 1 5.00261 7.58416 6.87844 22
848 1 -0.954023 8.80129 -3.64244 22
849 1 -6.56413 -10.3879 -9.66224 22
850 1 -0.734068 6.75162 -17.0493 11
851 1 -3.99026 1.51653 16.0361 17
852 1 -3.21496 15.4899 5.8301 15
853 1 13.9426 1.34679 3.95469 21
854 1 1.75515 6.40908 -6.53346 22
855 1 -2.64598 10.6777 11.2185 19
856 1 5.62558 10.4049 13.256 15
857 1 6.38892 -3.60928 -12.1057 22
858 1 -5.6393 -12.3157 -0.979785 23
859 1 -2.81736 1.08358 -5.11274 23
860 1 12.9893 1.45987 7.26321 23
861 1 0.585103 -1.21365 -13.8469 21
862 1 0.339516 8.64006 14.337 19
863 1 5.32147 -14.2293 -5.658 16
864 1 5.80688 1.92753 -14.9837 17
865 1 -4.01572 -10.1543 -3.28522 20
866 1 10.4724 7.88608 -12.4826 16
867 1 16.3709 -1.69084 0.0635617 12
868 1 -3.60809 -11.3497 13.4652 11
869 1 -5.60462 -9.36626 -13.4025 13
870 1 2.0303 0.523005 -2.92433 24