ITEM: TIMESTEP
166000
ITEM: NUMBER OF ATOMS
2000
ITEM: BOX BOUNDS pp pp pp
-3.0000000000000000e+01 3.0000000000000000e+01
-3.0000000000000000e+01 3.0000000000000000e+01
-3.0000000000000000e+01 3.0000000000000000e+01
ITEM: ATOMS id type x y z 
1 1 -11.3894 3.08749 -13.2079 
2 1 -3.74554 -12.7558 -11.6519 
3 1 3.07661 10.772 11.4032 
4 1 7.31243 -14.0549 6.80116 
5 1 -8.38327 6.89062 -2.5107 
6 1 8.74041 -10.9357 -8.98979 
7 1 -9.32729 6.02762 -5.65623 
8 1 -1.1851 -6.74818 10.654 
9 1 -8.8985 2.27438 -10.0794 
10 1 -13.8266 -9.3042 6.20043 
11 1 13.1744 1.95293 -10.5936 
12 1 -3.3636 1.47929 -6.55024 
13 1 -5.55559 -11.0729 2.37522 
14 1 -13.2204 -9.41722 2.95821 
15 1 2.76011 1.93819 14.9818 
16 1 7.08159 -1.79532 4.25718 
17 1 -1.15017 4.2216 9.44901 
18 1 7.18991 -0.942502 0.992588 
19 1 -0.719203 10.0166 -7.85842 
20 1 2.09927 0.564873 11.7475 
21 1 -11.0374 -2.2221 -14.4573 
22 1 -13.1246 -2.17301 10.9125 
23 1 13.4028 2.3349 5.59906 
24 1 -0.397468 11.1787 -10.4844 
25 1 1.68862 6.11479 -14.7447 
26 1 14.9248 2.96419 12.5656 
27 1 -6.99848 0.40359 1.33962 
28 1 -15.2392 4.08542 -8.02892 
29 1 -1.57875 -0.171302 -9.1472 
30 1 -11.5168 11.2891 8.19323 
31 1 7.54497 -11.7076 1.38401 
32 1 0.111905 -1.39341 11.7671 
33 1 0.249781 -11.7341 -7.7576 
34 1 9.78321 -12.9241 4.21784 
35 1 -7.01922 -13.5201 -6.49911 
36 1 -11.4763 -4.85035 9.19793 
37 1 4.44764 -2.76809 -6.00721 
38 1 -2.2237 -7.45379 -12.1628 
39 1 6.62281 -10.9021 -11.8968 
40 1 -3.67716 10.0755 -13.6317 
41 1 -0.25396 4.28944 12.8475 
42 1 0.233881 -11.0877 7.46159 
43 1 7.28562 -4.54996 15.2106 
44 1 -12.9312 1.06239 1.48399 
45 1 -15.3215 -3.88437 5.07696 
46 1 -8.57187 -0.663612 -1.17422 
47 1 0.152688 13.0479 -7.47969 
48 1 0.739574 -14.6812 -8.93427 
49 1 0.625125 -0.902051 -10.9674 
50 1 3.55648 -10.7931 -8.38876 
51 1 -2.44174 -4.74112 14.4826 
52 1 -15.0352 7.05811 -2.84841 
53 1 4.62685 12.3297 -11.335 
54 1 1.31789 13.6123 6.89451 
55 1 -11.0217 8.66968 -9.43059 
56 1 0.591173 17.1592 0.876156 
57 1 3.2577 -13.6703 4.13035 
58 1 7.24723 -7.62355 -5.52718 
59 1 4.40479 -4.26335 -14.0828 
60 1 -9.20804 11.1841 9.72491 
61 1 -12.3478 -3.76145 -8.73657 
62 1 7.94749 0.665972 5.54811 
63 1 -8.21234 9.74113 -3.33023 
64 1 -6.90382 -7.41147 8.85551 
65 1 -4.05739 11.6722 12.7341 
66 1 -14.9555 6.75691 -6.37612 
67 1 -5.87724 9.15829 13.7528 
68 1 2.03183 6.14452 -5.86581 
69 1 1.9304 5.95336 4.661 
70 1 -5.06001 -13.3228 6.96926 
71 1 3.44626 4.50315 6.96254 
72 1 8.57706 -12.9385 -1.4661 
73 1 2.84673 11.0468 15.0212 
74 1 -14.9455 1.06347 -9.59127 
75 1 -13.0823 6.35709 -9.21923 
76 1 5.3392 5.74795 12.2455 
77 1 11.7853 -3.49492 -9.68376 
78 1 5.81358 -11.8947 3.5416 
79 1 -15.1166 -0.394646 6.19366 
80 1 -7.53409 -2.41098 1.86363 
81 1 5.45092 15.55 8.09337 
82 1 4.71974 -3.28037 14.8892 
83 1 -3.34461 -8.4914 4.63744 
84 1 -11.5189 -1.66645 -0.203977 
85 1 11.5288 2.48405 8.02379 
86 1 9.75307 -2.67705 -4.07633 
87 1 -3.06182 8.72922 6.42447 
88 1 4.35819 -1.53281 7.22925 
89 1 -5.79202 -4.93298 1.56447 
90 1 -8.65883 -6.94117 -13.9243 
91 1 -13.9094 8.88058 7.48658 
92 1 -6.79262 12.9217 -1.70617 
93 1 -2.87311 7.44909 -5.27762 
94 1 4.24517 0.0630448 -6.11593 
95 1 7.94235 -2.57861 -6.48487 
96 1 9.52457 11.7742 -6.59582 
97 1 8.38947 -6.78193 2.25518 
98 1 4.67385 -5.27584 11.9819 
99 1 -5.82611 14.9923 -4.03839 
100 1 -12.5294 13.2898 2.91902 
101 1 -6.83263 -1.08957 12.4005 
102 1 -4.75967 7.28461 0.889963 
103 1 -1.36701 -5.28405 6.66382 
104 1 13.5271 -8.71674 -6.32513 
105 1 -7.41471 11.2601 3.74999 
106 1 -4.84221 -7.6351 2.25771 
107 1 11.5288 -11.206 -6.70886 
108 1 5.15305 0.583673 -10.4654 
109 1 -9.39861 0.837601 -13.1669 
110 1 4.46717 -0.333822 4.29432 
111 1 -0.331449 10.3758 3.06573 
112 1 -8.32625 7.67175 -11.9191 
113 1 -2.10461 5.38533 18.3751 
114 1 0.166875 14.2147 -4.03831 
115 1 -13.4076 9.44587 -1.38258 
116 1 0.405258 10.6827 -0.346378 
117 1 -0.257734 0.996649 -4.29195 
118 1 -3.23156 -5.56817 9.14723 
119 1 16.8207 4.27648 9.88052 
120 1 1.8854 -3.05753 -8.29699 
121 1 4.82229 -8.16216 -7.35416 
122 1 -3.36423 2.9832 6.34099 
123 1 5.09538 -0.137224 16.571 
124 1 -10.0326 -7.4937 -1.10029 
125 1 7.46767 -3.66556 1.8913 
126 1 -9.60762 -7.56829 -4.62377 
127 1 10.9026 -8.32959 2.22906 
128 1 -6.35433 5.33105 -0.948547 
129 1 7.9281 3.2327 -14.3984 
130 1 6.32013 17.5907 -0.487062 
131 1 -5.14438 -10.0924 11.8848 
132 1 -9.48355 -12.5189 8.8217 
133 1 -3.11071 5.16458 -0.723285 
134 1 4.88822 -9.47873 -14.399 
135 1 4.77433 5.31393 -6.81396 
136 1 12.407 -9.55863 -0.576845 
137 1 1.78667 -13.9922 6.75701 
138 1 -11.0505 -8.13728 1.54304 
139 1 13.8546 5.88016 9.13724 
140 1 15.0489 -2.30865 -6.11199 
141 1 -16.4012 -1.10336 -1.29559 
142 1 9.24375 6.54426 5.77617 
143 1 14.3493 10.1498 4.0445 
144 1 -5.634 4.52676 13.2334 
145 1 7.13462 5.15838 -1.33004 
146 1 -5.78134 7.8499 7.99486 
147 1 -8.00067 12.0012 -7.78088 
148 1 -0.646769 -3.94683 -11.717 
149 1 8.65194 -13.2953 -7.05799 
150 1 1.65091 14.1923 -10.0115 
151 1 12.3243 -2.77208 12.425 
152 1 -4.73861 -3.29719 -17.2198 
153 1 -4.25758 4.69956 -4.00305 
154 1 11.0094 1.66149 -3.94871 
155 1 -11.2552 10.262 -6.04328 
156 1 4.19938 -4.71127 -3.65325 
157 1 -8.37537 15.2167 -2.04234 
158 1 7.33346 2.28199 -11.7788 
159 1 12.1124 -10.1406 4.7471 
160 1 -6.8431 4.68029 -7.17803 
161 1 -8.72553 15.481 7.07065 
162 1 14.1719 7.17545 -9.33151 
163 1 -1.51945 3.54076 -2.34234 
164 1 8.82805 7.67604 -2.47941 
165 1 -4.42948 15.9505 1.7985 
166 1 10.0499 10.1562 -1.28473 
167 1 -2.06921 9.46008 -2.9476 
168 1 1.70876 16.1269 -8.00463 
169 1 2.19088 8.9908 -13.9144 
170 1 -11.4822 -11.5862 1.44693 
171 1 -14.1457 9.42645 -4.79714 
172 1 -3.89346 0.784906 -14.0459 
173 1 3.27018 -12.474 -14.8848 
174 1 10.1293 11.3345 8.77521 
175 1 -2.99949 14.7778 8.31111 
176 1 -12.8754 -3.36478 -5.30718 
177 1 -13.8821 12.1866 -3.08531 
178 1 13.1129 -2.47013 -3.86577 
179 1 -7.22078 -0.423553 -10.9938 
180 1 7.0046 1.61194 18.4818 
181 1 4.66971 17.6569 5.40711 
182 1 -0.327766 8.17773 4.83847 
183 1 1.62963 -9.7957 -15.481 
184 1 -6.59781 12.1605 8.20942 
185 1 -0.855506 11.6273 -5.19892 
186 1 3.10185 -2.52054 11.6582 
187 1 -11.086 -3.36994 2.3531 
188 1 -0.669989 -13.7962 -12.1255 
189 1 -11.2518 11.5531 -8.6427 
190 1 -2.97681 -11.2753 6.52169 
191 1 4.61976 -16.0107 -4.54491 
192 1 3.5111 13.9538 -6.84197 
193 1 -15.7408 2.80079 7.73886 
194 1 1.72822 7.80435 -2.26315 
195 1 11.7437 10.0487 -4.41353 
196 1 -8.76102 5.07132 11.6487 
197 1 0.220176 -9.42709 10.7855 
198 1 -12.5646 3.49304 -0.736183 
199 1 -0.526521 16.152 5.91901 
200 1 -0.548137 7.51884 8.0345 
201 1 13.2783 5.5099 13.7515 
202 1 -9.78518 15.414 3.79254 
203 1 11.1047 -6.27226 -10.9842 
204 1 -5.55862 10.4136 10.0541 
205 1 -3.96732 4.69723 -7.01764 
206 1 13.5297 -6.87694 3.52648 
207 1 -3.73613 -5.04657 3.96812 
208 1 -16.8498 1.43124 4.71963 
209 1 -8.58644 -10.0681 6.1606 
210 1 3.84025 5.254 14.69 
211 1 -16.3567 1.67483 -3.27361 
212 1 -1.06804 0.733494 -1.15827 
213 1 -2.51509 -17.9897 0.793169 
214 1 -1.43441 -0.291915 2.00863 
215 1 -5.4625 -3.95782 -4.37177 
216 1 5.796 -8.06215 -2.36549 
217 1 -1.74603 13.2491 5.90582 
218 1 -7.91306 0.346802 4.26641 
219 1 1.82592 13.892 11.0655 
220 1 -9.49398 1.03942 -3.59976 
221 1 -6.01585 9.98264 -8.6179 
222 1 -6.81536 -2.67995 -7.77618 
223 1 -8.21872 -4.00073 9.26967 
224 1 -3.24452 -13.4975 4.2855 
225 1 4.68922 -14.4218 7.61486 
226 1 -13.676 10.128 1.94374 
227 1 16.8906 1.97657 2.15984 
228 1 6.10716 2.88944 -6.04766 
229 1 -10.9759 -5.56899 -14.4302 
230 1 4.5621 -0.118217 9.92897 
231 1 -3.5297 -2.57949 1.69911 
232 1 7.08789 -15.4741 -0.416822 
233 1 -4.39058 7.34597 -7.60369 
234 1 4.7536 -13.4878 -12.2281 
235 1 8.41021 -0.0230999 -13.6773 
236 1 4.7552 7.5704 -15.3545 
237 1 -8.37806 -0.599904 -5.43718 
238 1 -3.53965 14.742 -6.3664 
239 1 -7.23391 -12.3045 11.4455 
240 1 5.83147 14.5816 -1.17216 
241 1 -8.57354 3.10996 13.7351 
242 1 -8.33854 9.55787 -6.14362 
243 1 6.9096 1.34129 8.86745 
244 1 -8.60963 -3.83621 -16.211 
245 1 -5.88693 12.4356 -6.18447 
246 1 3.94475 6.54163 -12.6708 
247 1 -5.4461 -9.28242 7.18923 
248 1 -0.189014 4.65306 3.01809 
249 1 -10.4668 6.49916 6.89705 
250 1 -8.0212 6.93654 5.66105 
251 1 -0.348166 -8.54407 -9.50425 
252 1 -8.27183 -9.93746 0.313236 
253 1 11.6747 -11.3078 1.85492 
254 1 -1.95089 2.72914 0.793735 
255 1 -4.52921 0.20245 2.8749 
256 1 1.68838 -6.86454 -2.18785 
257 1 10.4905 7.27259 13.6797 
258 1 4.62983 8.44326 -7.94694 
259 1 -0.352855 13.4001 0.877007 
260 1 -10.0189 1.55688 0.67459 
261 1 -14.7304 12.2103 -6.36067 
262 1 2.63686 8.25092 10.1291 
263 1 0.629148 -16.9617 0.470908 
264 1 15.5064 -0.885807 -3.03345 
265 1 2.42211 8.36053 6.94577 
266 1 -14.9441 7.75122 4.15245 
267 1 -10.5229 -5.06448 -4.08794 
268 1 7.0544 6.81309 -13.3525 
269 1 1.72715 -0.928154 8.83486 
270 1 9.7792 10.4493 -9.54091 
271 1 3.50789 -9.89469 -2.39505 
272 1 -2.48903 -1.15763 -12.219 
273 1 0.0348056 -18.5641 6.17103 
274 1 10.0778 -0.612528 -7.8619 
275 1 -13.6615 -1.10662 3.21915 
276 1 5.03713 -13.7797 -1.88765 
277 1 -10.0128 -6.79209 -11.0989 
278 1 5.9701 15.768 -3.72445 
279 1 -4.4684 -3.93656 -10.2821 
280 1 1.83062 5.02808 9.35681 
281 1 14.4422 3.58486 3.11938 
282 1 -0.802639 -10.3124 4.41474 
283 1 8.90962 -8.79829 -11.3131 
284 1 4.61713 -9.29333 4.96545 
285 1 -8.57871 -2.45118 -12.1845 
286 1 -11.9238 0.54795 -8.6229 
287 1 -6.76175 -11.4822 8.29259 
288 1 9.60179 0.247532 8.35005 
289 1 3.08389 -4.32948 9.1277 
290 1 -5.18128 -6.43653 -12.2706 
291 1 3.56006 -6.1713 6.47116 
292 1 -1.02336 8.03844 -13.8336 
293 1 3.3035 5.14246 -0.570877 
294 1 -7.81404 -8.09299 3.11717 
295 1 2.28324 11.6913 2.13295 
296 1 -10.1755 -1.7202 11.3655 
297 1 -10.3466 -5.9748 -7.51171 
298 1 -6.38227 -5.7259 -8.97391 
299 1 -3.33764 12.0863 -11.6509 
300 1 -7.27626 -8.39177 -11.1973 
301 1 -3.25397 -10.4695 2.56247 
302 1 -2.54044 -5.40052 0.741114 
303 1 8.03429 -6.20453 -12.8347 
304 1 13.0977 -0.982192 -8.49163 
305 1 1.76105 -4.8438 3.6949 
306 1 10.5807 1.35076 4.99834 
307 1 -4.50771 -6.02651 -6.95389 
308 1 -10.3571 -7.01151 8.24292 
309 1 -6.39288 -15.4829 -4.22856 
310 1 8.19469 4.71935 17.9336 
311 1 -6.16681 -10.4915 4.91135 
312 1 2.5522 2.80558 -6.04558 
313 1 -2.19133 -10.8432 -0.686683 
314 1 -2.27177 15.4393 -0.556224 
315 1 5.95001 -1.15604 -13.1051 
316 1 -5.88184 -1.38855 -15.6925 
317 1 4.52995 -5.09074 1.37672 
318 1 -11.3521 -7.77301 11.5414 
319 1 2.68501 5.74294 17.6246 
320 1 -0.0323515 -10.9093 -2.92467 
321 1 -2.29989 -15.8713 -10.1678 
322 1 -11.629 3.07702 -6.1813 
323 1 12.1354 5.33981 6.55522 
324 1 -1.59402 3.34282 -9.46146 
325 1 0.138413 8.28198 -10.5078 
326 1 -1.45583 -3.40262 3.77781 
327 1 6.47217 -15.2401 -9.78574 
328 1 -5.65242 16.5095 -1.35488 
329 1 2.19361 11.4625 5.66078 
330 1 10.0546 -1.85234 3.36742 
331 1 -9.184 0.518349 6.86443 
332 1 -2.64274 -3.74396 11.5938 
333 1 -8.2502 8.48918 2.48346 
334 1 2.05573 -5.36554 -12.121 
335 1 15.1429 11.8513 -3.02289 
336 1 7.48923 -15.3873 2.90635 
337 1 -3.10134 -1.38252 13.4516 
338 1 -16.5709 -1.74077 3.51626 
339 1 3.42037 -15.809 -1.07865 
340 1 -8.43167 8.48712 11.6351 
341 1 -10.9965 6.75738 12.4628 
342 1 -14.0065 -2.52966 7.72668 
343 1 -12.8225 -5.85063 6.41867 
344 1 14.9328 -4.37926 -2.41614 
345 1 -13.5046 -8.27553 8.81662 
346 1 8.80459 -3.95066 -9.31834 
347 1 7.21181 -11.1045 -2.34654 
348 1 3.12512 16.8459 -1.24689 
349 1 -0.907337 -6.85524 3.58629 
350 1 -11.0125 13.9642 -2.4925 
351 1 1.74397 0.184035 5.94284 
352 1 7.95034 6.44158 11.2873 
353 1 -10.7485 2.1639 3.97137 
354 1 10.7769 -7.94307 -5.92975 
355 1 -6.08277 10.0548 6.398 
356 1 -6.30336 5.76377 2.62882 
357 1 0.783567 1.42385 3.02757 
358 1 5.98588 -9.21199 8.35865 
359 1 11.8413 -4.15672 4.84227 
360 1 -3.52124 5.95346 8.13769 
361 1 -7.41218 -5.24097 -6.1798 
362 1 4.09106 -2.07574 1.83071 
363 1 -2.51441 0.611248 16.1333 
364 1 -2.7069 13.2428 3.18175 
365 1 8.69297 7.77984 16.2932 
366 1 -8.60103 12.5377 -4.24292 
367 1 -0.0136085 -7.16735 -16.7945 
368 1 -6.48999 6.91301 -4.92967 
369 1 6.42212 -12.0674 -14.8178 
370 1 -6.7478 2.37597 11.3824 
371 1 -13.5093 2.35128 4.46356 
372 1 -3.46076 -3.26184 -7.04074 
373 1 -4.91915 10.4862 -1.47698 
374 1 7.03191 -1.83831 7.23349 
375 1 -9.10713 -11.1561 2.85758 
376 1 9.90245 -8.81004 7.46545 
377 1 -3.91844 0.179846 -0.00369689 
378 1 -8.5932 -8.95784 12.9611 
379 1 -11.5702 7.35384 2.17121 
380 1 -3.86147 -3.37493 6.59309 
381 1 5.35408 -9.93883 -4.6884 
382 1 -4.75348 -1.15772 -9.27976 
383 1 7.52551 -3.41654 -14.9175 
384 1 4.02595 13.6229 3.81157 
385 1 -11.7101 -0.0169151 -5.46681 
386 1 0.711413 -8.06712 -12.7545 
387 1 10.045 5.45015 -13.8364 
388 1 -0.824191 -15.3904 -3.22119 
389 1 -14.4137 -7.48314 -5.8178 
390 1 -4.37188 -8.20006 -1.11471 
391 1 10.873 5.1975 15.9408 
392 1 -1.88729 -3.76015 -3.98168 
393 1 12.5047 4.02385 -0.118036 
394 1 -7.81626 5.03829 -10.7934 
395 1 3.90555 17.9862 1.79014 
396 1 -15.7816 -1.42502 -4.63675 
397 1 3.77103 1.33931 1.54578 
398 1 -6.05112 10.9125 1.16688 
399 1 -8.61103 11.1515 -0.401558 
400 1 -5.2509 5.10642 6.22968 
401 1 8.80376 3.84265 12.9063 
402 1 11.9648 -0.618061 -5.59353 
403 1 10.4028 -4.23248 13.7341 
404 1 12.4227 2.02882 -7.19718 
405 1 -5.96181 -14.3666 -0.897169 
406 1 3.20219 2.46069 4.83832 
407 1 -4.67738 7.48487 -2.50844 
408 1 0.244579 -6.79083 -4.68227 
409 1 2.74773 9.13547 3.64102 
410 1 5.53744 0.848548 -3.66982 
411 1 -9.82079 3.98988 -1.44666 
412 1 2.42777 -12.0554 -0.305019 
413 1 10.4652 -2.13753 6.13729 
414 1 -9.24109 -3.34101 -9.54393 
415 1 -6.57559 -13.5445 3.6711 
416 1 -8.96476 -6.18294 10.8308 
417 1 -2.5468 10.2951 1.15893 
418 1 -12.2455 -8.34686 -3.7751 
419 1 5.8831 9.37558 15.5781 
420 1 -7.53958 3.8989 -3.70331 
421 1 2.41598 11.2347 -8.79409 
422 1 4.39808 12.4525 6.89843 
423 1 -15.1183 -7.9933 -2.4653 
424 1 -0.706361 -9.90192 -5.3888 
425 1 -11.7416 -0.0185859 6.18536 
426 1 -12.3614 6.37024 -0.626976 
427 1 7.47938 -11.0763 6.01713 
428 1 -7.94735 -12.4237 -2.76311 
429 1 7.79755 9.58235 6.97501 
430 1 5.72805 10.0401 -13.7304 
431 1 -13.4409 3.58461 -10.9603 
432 1 -1.44201 15.4563 -8.73545 
433 1 -9.8865 4.89985 -8.48866 
434 1 -0.289898 -13.4434 4.84401 
435 1 12.234 7.64121 4.21923 
436 1 -0.749812 11.2514 -13.826 
437 1 -3.53751 -0.372713 7.77705 
438 1 -14.8376 1.63119 -0.457909 
439 1 2.99772 -1.59105 -3.16781 
440 1 -8.19799 3.86377 6.36555 
441 1 -1.97222 -15.9874 5.56207 
442 1 3.12723 -5.76491 -6.41511 
443 1 6.28194 -9.52455 -8.92519 
444 1 1.51041 -3.26937 6.47904 
445 1 -9.45583 5.55172 3.87285 
446 1 -15.5893 -0.157832 9.43742 
447 1 -15.7444 4.74756 5.25804 
448 1 0.967276 -7.90696 5.72831 
449 1 -6.25476 1.43217 -16.6095 
450 1 9.95155 -12.3759 -3.96404 
451 1 2.62881 -7.69558 -10.1737 
452 1 0.767289 -6.5993 8.3189 
453 1 3.26018 -7.84033 -4.4814 
454 1 -3.62081 3.435 -16.0582 
455 1 4.81327 -13.6683 1.16679 
456 1 3.98105 12.9593 -3.84069 
457 1 -13.0477 10.5145 4.88739 
458 1 -1.75696 -1.37363 9.59762 
459 1 -13.1887 -7.29306 -8.86715 
460 1 -5.54205 -5.64047 11.0176 
461 1 7.15164 -3.7715 12.3402 
462 1 6.99288 2.21976 -0.147848 
463 1 -5.25859 2.96391 1.11677 
464 1 1.40755 -0.980953 -5.51002 
465 1 10.0232 -5.08978 7.65879 
466 1 -0.0763921 5.12429 -0.302497 
467 1 15.9789 8.62991 -2.13468 
468 1 -4.35362 -0.128182 10.884 
469 1 1.83495 10.7539 -2.83743 
470 1 7.97649 -7.29222 6.77092 
471 1 -2.08169 -18.1045 -2.07258 
472 1 -2.29806 5.97964 14.1388 
473 1 -6.03599 14.5634 6.64788 
474 1 -9.38979 -11.7064 -8.10813 
475 1 9.28189 14.8178 3.59828 
476 1 4.88745 6.26668 9.39773 
477 1 -6.33928 1.87868 7.83172 
478 1 -4.48901 -5.24274 -1.70173 
479 1 -11.5974 4.72495 9.85425 
480 1 -7.90884 -8.29275 -7.62487 
481 1 -5.3665 8.2058 4.06582 
482 1 -3.43771 -12.5976 -5.83642 
483 1 -1.44203 -10.6226 -11.7588 
484 1 -11.5479 -11.5298 4.8129 
485 1 -5.90294 -2.49762 4.09624 
486 1 8.78819 3.04748 6.66879 
487 1 -4.08844 -7.16022 13.6363 
488 1 -11.0007 5.67626 -11.1305 
489 1 10.1413 4.49642 -2.77322 
490 1 -9.65194 -13.3092 -4.80624 
491 1 3.46989 5.75868 -10.0688 
492 1 -1.30367 16.0033 2.58751 
493 1 -1.1784 6.8524 -7.893 
494 1 -3.26607 8.40218 9.89333 
495 1 -13.8716 -2.77923 -2.21856 
496 1 -0.0489866 16.9927 -2.14361 
497 1 5.39454 11.0572 -5.77504 
498 1 -6.66502 -11.4469 -10.2124 
499 1 3.19407 1.03952 18.9812 
500 1 1.67226 -14.4425 -5.89754 
501 1 1.12514 -2.56528 -13.6745 
502 1 9.93711 -13.8376 1.12881 
503 1 -10.5271 10.7007 2.2252 
504 1 0.301958 4.00734 15.9386 
505 1 11.9346 7.12153 -3.6958 
506 1 3.21497 9.33099 0.0552918 
507 1 -8.33637 10.2687 -10.209 
508 1 4.03441 2.65118 -9.08421 
509 1 2.20453 -10.9937 4.32948 
510 1 -15.3997 -4.72332 -1.03334 
511 1 4.32641 2.98967 -1.52293 
512 1 3.00879 15.5066 6.09961 
513 1 -5.70869 7.39336 -13.9368 
514 1 11.074 6.73158 -0.626915 
515 1 6.42762 13.9772 -6.54668 
516 1 6.93422 -6.18732 -0.595552 
517 1 13.2993 1.49743 -2.45903 
518 1 -0.130809 1.08205 -13.1513 
519 1 0.688009 -9.55743 -0.487435 
520 1 2.13661 -14.7733 9.95807 
521 1 3.7272 -8.91833 11.1955 
522 1 -8.68805 2.35025 -6.72273 
523 1 -11.1062 -14.2571 6.62142 
524 1 2.48424 4.09219 2.16536 
525 1 -4.01082 -9.14503 -6.37314 
526 1 7.64257 13.2585 7.94543 
527 1 1.64284 1.79255 -10.3238 
528 1 2.41001 -0.810149 15.0069 
529 1 -14.0099 3.1556 10.4453 
530 1 0.260443 -18.0204 3.48766 
531 1 -12.265 -5.24019 0.303772 
532 1 10.4493 -5.50422 -3.66195 
533 1 11.1562 -1.01771 -2.13618 
534 1 -1.11219 3.95525 -5.52332 
535 1 -5.08806 9.58939 -4.42822 
536 1 1.87209 -8.71855 -7.15206 
537 1 5.01063 3.9555 -12.1237 
538 1 9.16144 -7.31036 -8.8705 
539 1 -6.10793 4.50966 9.44874 
540 1 8.64929 15.602 0.556325 
541 1 -3.56065 0.213179 -16.7327 
542 1 1.06019 -6.36102 0.945544 
543 1 3.3052 -1.63796 -15.7603 
544 1 -6.37758 -4.61099 6.72317 
545 1 -4.00333 13.0825 0.0505082 
546 1 -8.97537 -0.645772 -16.1794 
547 1 -15.7337 0.955429 2.06959 
548 1 1.65775 -10.8155 -12.727 
549 1 -4.14376 -8.30856 10.3799 
550 1 1.98419 8.11457 -8.12006 
551 1 16.6977 2.10358 7.56632 
552 1 15.987 3.33533 -1.0926 
553 1 -10.346 -10.4628 -2.29172 
554 1 -3.22924 -9.90061 -3.67749 
555 1 -3.2729 -7.1951 -14.8763 
556 1 -8.99009 12.5138 6.4428 
557 1 3.89994 -5.16357 -9.52875 
558 1 1.12574 7.13856 1.71892 
559 1 11.9852 -4.41145 -1.17915 
560 1 4.43777 17.0259 -7.19099 
561 1 3.64123 -7.64633 0.144827 
562 1 6.16793 -2.07981 -4.07265 
563 1 14.5001 4.15109 -6.89809 
564 1 3.27282 8.30778 13.4888 
565 1 -10.7376 -1.80733 8.25297 
566 1 -5.92126 -2.73968 -0.895929 
567 1 2.10509 6.1453 12.6879 
568 1 7.6522 -1.14668 16.1704 
569 1 2.20694 3.76601 -12.8981 
570 1 -6.416 -8.28975 -5.17093 
571 1 -0.239201 -3.71389 9.07953 
572 1 7.46832 11.4813 10.4467 
573 1 7.63224 9.21474 -8.2129 
574 1 -3.60701 10.2674 -6.84596 
575 1 -1.27049 12.3956 -1.90188 
576 1 10.4494 -0.660502 14.0014 
577 1 10.3311 2.56162 -12.2931 
578 1 8.94122 -9.78899 -0.0753829 
579 1 12.0246 7.10371 11.5054 
580 1 -15.0886 -7.43884 1.02555 
581 1 -5.64286 12.3744 -9.82059 
582 1 -1.15156 1.0558 7.74976 
583 1 -13.1086 0.599129 11.9796 
584 1 -2.96596 12.2533 -8.34691 
585 1 2.29794 -13.9113 -2.93048 
586 1 5.30606 -2.12225 -8.6892 
587 1 -3.13233 16.5006 -3.61255 
588 1 -7.43446 -4.96646 -12.0848 
589 1 3.33024 -18.6035 4.32493 
590 1 -12.6646 -5.89235 -2.6407 
591 1 1.5798 12.0716 -12.2564 
592 1 -5.9842 1.92584 -5.08386 
593 1 0.566973 6.79008 15.2826 
594 1 -10.4548 -8.26083 4.91723 
595 1 5.38925 7.06967 -1.86348 
596 1 2.20472 -13.0255 -11.1476 
597 1 0.881885 -4.06542 13.4891 
598 1 8.40912 -0.100762 -4.77678 
599 1 1.4272 -0.64192 0.298145 
600 1 -10.6231 8.60499 4.202 
601 1 4.93507 4.05036 18.8247 
602 1 6.83789 12.308 -3.55226 
603 1 12.2386 -6.17878 -7.97337 
604 1 3.07544 3.21045 12.4398 
605 1 4.18065 4.45395 -15.297 
606 1 -4.09903 -12.4575 10.0877 
607 1 -4.24784 1.21601 -10.7362 
608 1 6.57431 -0.439402 -16.3101 
609 1 0.868597 13.8335 3.58069 
610 1 9.15648 5.20435 -10.8339 
611 1 -5.33591 -2.40313 -12.7394 
612 1 -5.32965 -11.2732 -4.27986 
613 1 -11.4518 -3.9375 -11.5992 
614 1 12.0703 0.98058 2.52963 
615 1 17.2348 5.57088 -2.06937 
616 1 6.43176 -6.5463 -9.84808 
617 1 11.9458 3.69187 11.5771 
618 1 7.55463 -10.5825 -5.84482 
619 1 7.45261 5.71655 -16.1207 
620 1 6.64954 13.6908 1.455 
621 1 -8.25599 3.32758 2.49885 
622 1 8.68542 9.95335 13.4518 
623 1 13.406 4.08644 -3.75676 
624 1 15.7173 -1.24641 2.32231 
625 1 12.5039 4.69877 -8.85847 
626 1 5.6365 2.51604 15.4528 
627 1 15.0236 7.2968 11.1079 
628 1 1.71832 -6.29265 10.8553 
629 1 13.0014 9.47215 -1.6594 
630 1 6.33509 1.66255 3.07646 
631 1 -0.432494 0.762282 14.1922 
632 1 15.4258 0.850321 -8.11726 
633 1 9.9605 1.08646 11.0415 
634 1 -6.16998 1.85125 -8.25617 
635 1 13.2736 5.98341 1.89883 
636 1 10.5776 -4.72219 2.1087 
637 1 -1.53038 -7.692 -2.1774 
638 1 -11.315 8.36582 9.58539 
639 1 9.62378 9.04218 10.624 
640 1 15.815 1.31084 10.5988 
641 1 5.44986 9.73984 8.75596 
642 1 -0.910885 14.5982 10.8228 
643 1 4.84328 1.45309 6.95162 
644 1 -2.9202 -18.4784 3.95737 
645 1 -3.79693 12.5806 -3.66396 
646 1 12.2294 9.79582 -7.40772 
647 1 9.49175 -3.23162 -12.2371 
648 1 1.57545 17.6385 3.81893 
649 1 -1.96331 -14.4943 -7.56485 
650 1 5.06821 -7.27839 -12.6922 
651 1 -11.3748 3.00613 7.14706 
652 1 -5.43955 7.57945 -10.7501 
653 1 -4.09413 -15.8838 2.63521 
654 1 -4.83741 4.29531 -10.2429 
655 1 -13.3344 2.37158 -3.64354 
656 1 10.6124 -7.24183 5.09823 
657 1 9.89566 9.60953 4.51314 
658 1 2.9748 -9.22276 7.96528 
659 1 -13.6719 -1.23497 -7.3562 
660 1 1.41709 2.52326 -0.13798 
661 1 2.62941 1.36662 -16.3102 
662 1 4.28991 -3.25521 4.7943 
663 1 0.590529 0.622484 17.3545 
664 1 6.25934 9.65305 -10.9029 
665 1 13.4965 -0.23341 12.8881 
666 1 9.07732 5.6632 -7.7576 
667 1 4.59647 -0.18306 -0.697444 
668 1 11.4971 11.7584 3.22947 
669 1 3.26463 -16.6277 -7.84324 
670 1 -8.45052 -2.45484 13.7812 
671 1 13.2574 -0.956827 5.10519 
672 1 -0.53821 12.1353 13.5162 
673 1 7.14105 12.6079 -9.0923 
674 1 -10.4377 9.03386 -0.533392 
675 1 8.66885 11.08 1.55554 
676 1 -8.96756 -13.35 0.577297 
677 1 14.6582 1.18734 -0.0590635 
678 1 6.81851 15.0773 5.02872 
679 1 -3.8185 2.81082 9.72497 
680 1 -10.229 -0.861455 3.11957 
681 1 -10.2805 -2.47991 -6.7608 
682 1 7.42129 -0.548242 11.3742 
683 1 -2.39268 -9.80006 12.0523 
684 1 8.49522 3.61125 9.7546 
685 1 -6.96443 14.0084 1.7617 
686 1 9.52223 3.86865 0.782233 
687 1 5.748 -3.3809 -1.08335 
688 1 8.28305 4.21824 4.06009 
689 1 1.59394 -3.82735 -16.3346 
690 1 -8.83323 -2.37348 5.05719 
691 1 7.6699 -1.05456 -10.4211 
692 1 -1.50995 -7.35846 -6.91721 
693 1 12.1144 -10.2481 -3.61436 
694 1 10.6456 5.53565 9.28157 
695 1 5.02331 4.49213 4.39244 
696 1 -9.31571 0.996545 12.7987 
697 1 7.76451 7.28344 8.63909 
698 1 -0.601989 -2.03242 15.2812 
699 1 -3.35504 5.53363 11.3011 
700 1 -0.468834 -5.33305 -14.472 
701 1 -5.56446 1.04629 13.8938 
702 1 -4.80012 2.4178 -2.12305 
703 1 6.21448 2.60395 12.2497 
704 1 -8.2372 -13.9612 6.19176 
705 1 14.2258 6.4234 -1.29484 
706 1 5.19868 -10.7223 -0.133634 
707 1 0.852686 4.82009 -8.29544 
708 1 7.24391 10.287 -1.02761 
709 1 9.65781 12.3161 5.86357 
710 1 -0.167639 -0.501989 -15.6481 
711 1 -1.76481 2.03683 4.32205 
712 1 2.02984 13.6676 -1.82066 
713 1 11.3417 9.13918 1.34438 
714 1 1.54428 -4.06017 -4.1661 
715 1 -7.36913 -9.31848 -2.1997 
716 1 -0.127171 2.80932 -15.5391 
717 1 -11.9644 11.9152 -0.0887453 
718 1 2.4568 -6.82908 -15.2795 
719 1 6.45839 4.73204 1.67259 
720 1 11.2436 7.4791 -9.85667 
721 1 12.2738 12.4494 -2.18148 
722 1 -3.24838 4.85644 2.95123 
723 1 -7.62368 1.98051 -0.933512 
724 1 7.95445 5.55085 -4.90272 
725 1 12.0186 2.65404 14.1631 
726 1 7.75819 0.742825 14.1604 
727 1 -0.384029 -12.8505 10.0697 
728 1 -5.86882 10.2363 -12.2871 
729 1 2.23022 11.0752 8.9104 
730 1 7.70301 -8.89325 -14.3189 
731 1 1.40579 2.13511 8.83537 
732 1 9.09905 14.023 -4.60207 
733 1 7.0244 11.939 4.4246 
734 1 -6.14524 -0.386374 -3.03268 
735 1 13.6069 -5.50424 -5.28231 
736 1 5.52866 6.60568 16.921 
737 1 -12.0099 -2.84104 5.44605 
738 1 1.44805 -14.6159 2.25807 
739 1 -1.54865 -2.92729 -9.47806 
740 1 -10.0341 14.3655 0.823644 
741 1 0.32383 3.28722 6.25043 
742 1 7.46357 -5.21378 -3.57998 
743 1 5.6745 10.1999 2.01761 
744 1 -14.7298 -4.71111 2.35816 
745 1 -1.77592 2.54803 18.6349 
746 1 -6.31578 4.84463 -15.8501 
747 1 -8.74316 5.3085 -14.1426 
748 1 -0.373838 -11.9485 1.87001 
749 1 9.68191 7.95718 -5.80377 
750 1 5.90002 -6.35004 4.56509 
751 1 -1.84919 7.64655 2.53191 
752 1 -13.5994 6.89458 10.0728 
753 1 3.45816 -2.39965 -11.1884 
754 1 2.68927 -11.2601 10.2404 
755 1 3.3803 14.5219 0.901708 
756 1 -4.48027 6.95362 15.8165 
757 1 -2.86669 -2.82995 -1.12567 
758 1 -10.3956 -9.03721 -9.58832 
759 1 -2.52159 -10.7357 -8.03324 
760 1 -5.37424 -16.3249 -7.54965 
761 1 -0.91803 16.4535 -5.61436 
762 1 6.21837 -5.0838 -7.28194 
763 1 2.5539 -3.64973 -0.711278 
764 1 -3.93807 11.8829 6.84196 
765 1 6.34314 -12.5033 -8.86979 
766 1 12.0072 -12.6775 -1.34819 
767 1 5.02459 -6.91838 9.63278 
768 1 16.2377 3.26052 -4.59925 
769 1 4.56391 -12.8845 -5.69184 
770 1 -10.1571 -4.72131 6.1673 
771 1 0.0737888 1.36686 -7.54678 
772 1 -5.50883 -17.3209 -1.07235 
773 1 -5.99297 -10.7496 -7.30358 
774 1 0.147013 -2.02873 -2.45352 
775 1 -11.0841 1.14548 9.64933 
776 1 -7.21234 -15.4756 1.89575 
777 1 15.2011 6.68735 -4.42522 
778 1 -6.79432 16.6229 4.32268 
779 1 -5.91996 2.86982 4.25019 
780 1 -14.5079 4.11931 2.15725 
781 1 10.5942 -1.85659 0.506419 
782 1 -13.6679 -2.00167 -10.2931 
783 1 0.308108 8.67009 -5.00197 
784 1 10.0394 2.04522 -9.48161 
785 1 5.53475 11.0089 13.1983 
786 1 1.25687 -1.84037 3.32053 
787 1 9.31132 2.58194 -6.3446 
788 1 -14.4894 1.58307 -6.34131 
789 1 -14.6243 -4.69554 -7.40139 
790 1 -2.1502 8.32315 16.3759 
791 1 6.29201 6.55115 -10.2612 
792 1 12.387 10.9531 6.36751 
793 1 -0.948084 -1.823 6.37381 
794 1 -3.30107 -13.1014 1.04641 
795 1 -5.39093 -15.8952 5.41071 
796 1 -4.39305 -6.48534 6.30083 
797 1 12.9607 9.60606 9.56002 
798 1 0.75785 -5.7449 -8.96402 
799 1 -7.17261 8.20198 -0.588598 
800 1 6.67693 7.6304 3.91115 
801 1 -12.3696 -5.9221 3.74331 
802 1 8.73892 8.28103 -11.904 
803 1 -2.69368 -13.0566 -2.60176 
804 1 2.97772 -18.7376 0.952588 
805 1 -0.223417 -13.7335 -0.797737 
806 1 7.22043 3.48308 -9.29783 
807 1 7.29347 17.7563 2.80432 
808 1 -3.29113 -4.57061 -13.8627 
809 1 -1.06627 1.89969 11.2836 
810 1 -1.50787 4.87685 -14.4617 
811 1 -10.742 -0.838868 -10.9573 
812 1 -10.8104 -2.00625 -3.16758 
813 1 2.41796 15.6365 -4.51258 
814 1 7.84988 -0.433254 -1.67593 
815 1 -6.49622 -4.55975 -14.8116 
816 1 -7.37917 -7.01368 0.0989973 
817 1 13.2672 6.92921 -6.66523 
818 1 10.3152 -6.92783 -0.835937 
819 1 -7.75095 6.54571 14.0894 
820 1 8.00642 -8.98501 4.15236 
821 1 13.1112 -6.33562 0.353801 
822 1 12.1506 -0.627869 9.93967 
823 1 -0.461806 10.5611 7.53279 
824 1 -11.734 3.70934 12.7632 
825 1 -8.48359 6.20513 8.87554 
826 1 -1.7274 -13.5931 7.46956 
827 1 8.99116 1.03157 2.2148 
828 1 7.7282 5.14543 15.1815 
829 1 -14.5798 -2.00679 0.690554 
830 1 8.78459 -8.23137 -2.88709 
831 1 1.78086 3.81475 -3.31121 
832 1 -11.712 13.2213 -5.48683 
833 1 4.41951 7.02669 2.07231 
834 1 2.64758 -17.3494 7.67263 
835 1 4.82351 -0.126911 13.2995 
836 1 -3.03855 10.3751 4.23485 
837 1 4.67949 -11.7363 6.39473 
838 1 -8.19677 -2.72244 -3.55924 
839 1 4.46093 3.1916 9.79854 
840 1 -15.2972 -4.72102 -4.13389 
841 1 0.196962 10.4041 16.286 
842 1 4.39362 11.9936 -0.555383 
843 1 -12.735 -11.9603 7.96065 
844 1 -0.453442 -16.3259 8.53393 
845 1 6.00723 -4.5549 7.13613 
846 1 11.0869 -5.19398 10.2963 
847 1 5.03602 7.32084 6.32249 
848 1 -0.889968 6.4111 -2.99619 
849 1 -4.87912 -8.62832 -9.41862 
850 1 -2.50405 2.77061 -12.3527 
851 1 -3.70004 3.48726 15.8134 
852 1 -3.4573 15.89 5.1521 
853 1 15.8952 0.966554 4.70041 
854 1 3.42418 8.26431 -4.64097 
855 1 -2.82331 8.61978 12.9611 
856 1 6.01248 8.60991 11.8929 
857 1 6.23432 -3.95451 -11.4128 
858 1 -5.27249 -11.2325 -0.894857 
859 1 -4.86098 -0.669921 -6.08601 
860 1 14.4437 -0.57978 7.72706 
861 1 2.52563 -0.283125 -8.33146 
862 1 0.151785 9.01813 13.6543 
863 1 6.62712 -15.8164 -7.08208 
864 1 5.57256 2.75088 -17.3343 
865 1 -3.44323 -6.26236 -4.35614 
866 1 12.5371 5.06823 -11.808 
867 1 14.9119 -4.49989 1.00819 
868 1 -0.565594 -6.66056 13.4786 
869 1 -4.51026 -9.47447 -12.6025 
870 1 1.98566 0.856027 -2.60312 
871 1 8.96445 13.3974 -1.33718 
872 1 2.90578 -7.36914 3.36794 
873 1 -12.8221 5.63888 5.0991 
874 1 11.2894 4.85459 -5.82195 
875 1 16.2356 5.28659 1.28844 
876 1 6.08875 -6.31938 -15.5612 
877 1 -8.96484 9.43962 6.97283 
878 1 13.699 8.14471 6.49898 
879 1 12.3828 12.7363 -5.41132 
880 1 4.91768 1.67633 -14.5214 
881 1 8.88429 -3.64101 -0.99009 
882 1 -11.961 0.473234 -1.93812 
883 1 9.77912 6.57372 2.62475 
884 1 -12.6844 -8.55921 -0.538799 
885 1 -13.4528 9.35876 -7.77855 
886 1 6.66582 4.88952 6.80514 
887 1 -8.844 -0.284153 -8.67609 
888 1 -9.02265 2.83686 9.33935 
889 1 -2.43211 6.13248 -11.602 
890 1 11.4509 -8.97069 -9.15898 
891 1 -11.548 -9.29936 -6.76619 
892 1 12.8603 -7.29488 -2.83115 
893 1 -14.5938 7.28622 0.809572 
894 1 -7.09327 -6.715 -2.68177 
895 1 10.9387 8.27666 7.44214 
896 1 -8.32331 -4.86939 3.61603 
897 1 9.64972 1.76468 16.4329 
898 1 12.9536 -3.31153 7.78098 
899 1 8.37108 -4.54127 4.83087 
900 1 -11.5196 4.49458 1.90466 
901 1 -0.435579 9.82258 10.4899 
902 1 2.85155 9.47212 -10.9088 
903 1 -1.41038 -9.1965 -14.5299 
904 1 -5.02314 13.6631 3.93942 
905 1 -11.3717 -10.2302 10.5472 
906 1 8.74071 10.5461 -3.94616 
907 1 -0.581431 6.9985 11.1217 
908 1 14.1152 -1.85153 -0.711859 
909 1 7.65416 -6.14696 9.73287 
910 1 -0.818377 14.3353 -12.0296 
911 1 2.20617 10.7179 -6.11819 
912 1 -0.251625 -4.82215 -1.68439 
913 1 -5.36427 -2.74828 9.69751 
914 1 16.9978 3.69582 4.44883 
915 1 -2.99263 -6.05147 -9.62698 
916 1 13.9459 11.6658 1.14822 
917 1 -15.903 4.55755 -1.05465 
918 1 -2.13594 -10.6198 9.35996 
919 1 4.86503 15.0683 -9.40027 
920 1 5.69006 -3.01845 10.0084 
921 1 -0.571694 -13.1091 -4.99564 