ITEM: TIMESTEP
32000
ITEM: NUMBER OF ATOMS
2000
ITEM: BOX BOUNDS pp pp pp
-30.0 30.0
-30.0 30.0
-30.0 30.0
ITEM: ATOMS id type x y z Coordination
1 1 -12.3636 -3.57677 -21.4785 12
2 1 -9.14842 -20.7735 -13.6422 17
3 1 -0.100053 4.11486 3.21855 23
4 1 3.84284 -19.2652 -0.534941 20
5 1 -15.055 -1.05059 -8.19613 23
6 1 10.8142 -15.5626 -17.4936 12
7 1 -15.3035 -6.54471 -14.6582 19
8 1 -3.84286 -15.0933 3.43097 22
9 1 -8.60091 -3.98926 -20.0741 22
10 1 -14.2411 -17.6953 -1.33968 20
11 1 11.8013 -5.23495 -15.0152 12
12 1 -8.7499 -23.905 -4.98588 15
13 1 -18.1158 -18.4631 -3.423 12
14 1 -1.32231 -4.23375 11.8661 11
15 1 -4.17161 6.79389 -17.1925 14
16 1 1.46436 -9.33395 7.30185 20
17 1 -11.574 -10.2185 -18.5055 19
18 1 -13.7139 -12.0492 1.44464 21
19 1 9.31827 -6.01496 3.61505 19
20 1 -0.472957 3.8591 -17.1273 23
21 1 5.40914 -4.81931 -21.4729 13
22 1 10.3901 -3.59176 1.83779 17
23 1 -17.8728 -5.86864 -16.4055 16
24 1 -14.3071 -0.439817 -1.87108 16
25 1 5.68992 -19.3821 1.97936 9
26 1 -4.56185 -19.6604 -19.6185 15
27 1 4.50374 -21.6166 -5.01585 18
28 1 -14.9534 -20.1005 -13.709 14
29 1 -15.6207 -11.8859 3.72048 12
30 1 -3.34549 -17.5036 -18.2787 20
31 1 1.71443 -20.1164 -21.0122 11
32 1 -6.0694 -2.18074 -23.7956 8
33 1 -5.91294 -9.83407 8.44211 18
34 1 -6.46354 -18.6682 -0.318289 24
35 1 1.583 -12.2924 5.71206 17
36 1 -14.2233 -9.21383 -6.80201 20
37 1 -13.7082 -9.0596 3.31112 23
38 1 -5.41072 4.11031 -6.9742 21
39 1 -5.92959 -22.1462 -17.9781 12
40 1 1.67076 -12.1649 -18.2567 19
41 1 -3.07178 -12.2133 4.97444 23
42 1 -13.8275 -3.94515 -6.62454 21
43 1 4.55972 3.89724 -18.1172 15
44 1 -0.0752792 3.87851 -0.300514 24
45 1 -12.2366 -1.76177 -13.658 23
46 1 -3.61862 4.67146 -8.90972 17
47 1 -0.954935 -21.5534 -5.17385 23
48 1 7.64538 -20.0496 -14.5687 13
49 1 2.95858 -15.5349 -23.6226 12
50 1 -11.0535 -1.30854 3.05137 18
51 1 -18.1806 -14.4123 -17.9157 9
52 1 -9.40946 -1.04256 -11.7961 22
53 1 -12.0587 -15.6456 -1.77212 25
54 1 -8.07823 5.74642 0.822776 18
55 1 -18.1446 -3.06627 -14.6823 10
56 1 -10.8536 1.33523 1.17018 16
57 1 -8.70434 -20.4006 -0.626392 17
58 1 5.83472 -24.4333 -10.1021 10
59 1 2.43026 7.89883 2.87457 11
60 1 -17.9914 -8.59733 -14.4233 16
61 1 -15.0324 -0.860889 -15.5374 15
62 1 2.10939 -0.598602 5.19434 23
63 1 9.56569 -12.9165 -19.2194 15
64 1 0.945216 -20.6403 -0.232543 18
65 1 -20.0634 -11.4732 -6.25287 12
66 1 2.10802 7.41477 -3.59928 18
67 1 4.95953 -10.3216 8.90052 17
68 1 -9.25675 -17.4894 -2.1959 24
69 1 9.25544 -6.92254 0.483309 19
70 1 -3.21585 2.32915 2.97326 23
71 1 -8.74304 -14.6769 -13.7379 19
72 1 -11.7833 -1.53665 -0.0801145 20
73 1 -8.8182 4.8389 -8.89675 18
74 1 -2.83235 1.9186 -16.8451 21
75 1 5.22557 9.73261 -11.7362 10
76 1 6.80388 -17.7018 -0.719396 12
77 1 -5.38724 8.62421 -11.1507 13
78 1 -13.9253 2.03297 -7.22212 20
79 1 -13.7879 -12.3127 8.49717 13
80 1 -5.76434 1.23564 -2.01568 23
81 1 -8.29242 -12.0003 5.14933 23
82 1 10.2416 -17.4418 -14.4388 13
83 1 -11.1612 -4.37092 -1.69435 20
84 1 -12.0364 -20.9699 -5.33899 20
85 1 8.02025 -15.3489 -13.1605 20
86 1 2.78161 -9.08177 -23.1148 14
87 1 -10.056 -6.50827 -21.3379 17
88 1 -2.63439 4.74522 -5.34712 21
89 1 -9.23318 -0.871918 -14.8354 20
90 1 1.44514 -0.485608 8.56208 16
91 1 -3.54619 4.47244 -12.1315 19
92 1 -17.4221 1.11989 -8.10022 14
93 1 -9.31434 -15.1232 3.40281 24
94 1 9.35303 -11.3169 4.11424 12
95 1 1.92964 -15.0867 -16.6022 22
96 1 4.19151 -10.3342 11.4032 10
97 1 -10.9694 -15.9241 -8.35281 18
98 1 -11.7595 -18.9379 -10.2301 23
99 1 4.31474 -18.7784 -3.20232 19
100 1 4.73478 -7.16745 -19.9428 20
101 1 -2.57463 10.9733 -8.78762 12
102 1 -11.6728 -18.4579 -0.135302 22
103 1 -13.5075 -20.4446 0.655872 15
104 1 2.76274 -17.6102 -21.3474 13
105 1 8.31096 -16.118 -9.81378 19
106 1 -6.79084 -21.585 -2.24353 21
107 1 -11.9054 -18.661 -6.87432 21
108 1 11.7434 -1.23124 -0.55534 12
109 1 10.633 -8.54511 -15.8648 15
110 1 -13.7787 -12.0653 -1.82473 24
111 1 7.28351 -1.17225 -1.28119 17
112 1 9.62387 4.72035 0.125681 13
113 1 -8.52614 -6.03357 5.14323 23
114 1 -11.1533 1.63814 4.58485 11
115 1 -6.19309 3.88555 -13.738 19
116 1 -3.79028 -12.0381 -18.2127 21
117 1 5.5181 -16.3585 -21.2925 12
118 1 -2.73872 4.7159 -18.9948 12
119 1 4.15691 -10.5641 5.88329 19
120 1 -5.35925 -7.21223 -23.899 10
121 1 -5.48058 1.37988 -15.2409 22
122 1 8.51 -9.91765 -13.0013 22
123 1 -14.0537 1.14543 -10.2559 23
124 1 -6.06942 6.86814 -8.24047 17
125 1 5.76602 -4.91058 -15.0366 21
126 1 5.52675 -16.3867 -4.99696 17
127 1 -8.35029 2.63615 6.20492 15
128 1 11.5224 -0.235246 -11.7079 15
129 1 4.92743 3.25491 -13.4121 19
130 1 -9.10347 4.93732 -2.04529 18
131 1 8.6723 2.46311 -8.32432 17
132 1 -5.69198 1.0957 -11.7959 19
133 1 -1.58126 7.11469 -14.6855 15
134 1 2.23421 -1.93766 -21.519 13
135 1 -14.5683 -14.8496 -3.52026 21
136 1 -14.0737 0.704512 -13.5377 18
137 1 -9.4249 -12.1462 -18.6177 17
138 1 -3.98189 -17.6849 -21.5433 15
139 1 3.7842 7.21783 -0.21678 18
140 1 -2.69036 5.23981 1.01538 21
141 1 -15.0856 -12.3532 -11.78 22
142 1 -16.1596 0.797571 -5.42084 14
143 1 10.641 -10.6367 -7.79683 19
144 1 -15.03 -6.66217 -17.8226 20
145 1 -1.11079 -7.22984 10.9272 15
146 1 0.957486 10.6676 -4.36313 13
147 1 -5.79776 1.41603 1.28349 22
148 1 -0.0999158 -14.6631 -24.4074 14
149 1 -5.23231 7.09608 0.289447 16
150 1 -3.1834 4.50953 -15.3528 21
151 1 -0.773449 -13.3063 7.54623 15
152 1 -11.6579 -12.9182 -3.38881 21
153 1 -6.62165 -19.3548 -22.3987 9
154 1 -11.0262 3.0311 -17.6868 11
155 1 -6.29536 -18.6064 -3.54673 22
156 1 -0.329244 -24.5293 -9.6992 15
157 1 -9.96215 -0.914249 -21.3516 12
158 1 -17.4115 -6.96758 -0.00161105 13
159 1 5.93113 3.58799 -6.94868 21
160 1 -11.3911 -4.14618 5.02978 22
161 1 -4.057 -17.8626 5.04227 16
162 1 -2.75344 4.8272 -2.19612 18
163 1 -3.3418 -0.589626 1.62629 19
164 1 7.11967 -0.453787 5.29631 16
165 1 -12.2108 5.68335 -3.7775 10
166 1 7.23911 -13.1771 -14.7773 19
167 1 -7.83062 5.59514 4.19376 14
168 1 5.67686 -15.9907 -8.24928 22
169 1 -19.469 -9.73389 -8.84312 14
170 1 -9.39407 -21.2936 -6.87511 24
171 1 4.60374 -1.50711 7.24233 18
172 1 -18.1537 -12.8777 -8.77354 17
173 1 -6.2495 -21.6565 -8.6123 24
174 1 -2.86035 2.01446 -3.57954 23
175 1 -0.959764 7.40899 4.21539 11
176 1 -7.4925 7.49616 -16.4242 8
177 1 -18.9829 -16.3227 -10.0653 10
178 1 -8.88897 -9.2244 6.96254 23
179 1 -1.11401 -18.743 -3.33502 23
180 1 3.10404 -18.3437 4.14399 9
181 1 -13.1217 2.71697 -3.79053 14
182 1 10.0467 -9.24361 2.00115 15
183 1 -8.75836 -15.1582 -20.7193 15
184 1 1.97616 -6.0634 5.83678 19
185 1 3.81179 -22.1155 1.24928 10
186 1 -5.95886 -4.31845 -18.495 18
187 1 -1.00835 -18.5914 -20.2197 18
188 1 7.93552 -11.0538 -21.8245 11
189 1 2.76358 -4.18805 -20.0586 20
190 1 -14.3703 -9.54045 -16.7025 18
191 1 -8.30426 7.59269 -13.2212 11
192 1 -11.903 -18.7894 3.25561 15
193 1 3.24729 10.8424 -9.16609 11
194 1 -11.2464 -4.48758 8.06765 13
195 1 -9.38711 4.52638 -12.2615 17
196 1 3.69577 -7.55678 4.12374 21
197 1 -6.11052 -15.6677 -18.5058 19
198 1 -6.00391 1.28942 -18.4452 16
199 1 -0.658768 -1.90249 -16.6426 21
200 1 -14.849 -17.7628 1.62558 17
201 1 -8.56684 -0.712454 1.55706 20
202 1 -8.57924 2.61908 2.8125 20
203 1 -2.68173 -17.8097 -15.2485 22
204 1 -11.7223 -24.0021 -6.42387 14
205 1 4.74321 -21.5311 -8.22318 21
206 1 8.09026 2.36632 5.48036 15
207 1 2.20898 -1.18098 -15.1955 20
208 1 -17.1459 1.22356 -11.5285 10
209 1 -3.46429 -3.45882 3.54064 22
210 1 4.94394 -24.049 -3.56613 16
211 1 10.6125 -7.41069 -12.9647 16
212 1 -13.7205 -3.58687 -3.38115 23
213 1 -14.1601 -15.0897 -9.89283 20
214 1 5.66201 -4.73461 -18.27 20
215 1 -0.975318 -10.4509 5.30488 24
216 1 5.0063 6.16864 -8.43941 18
217 1 -5.97082 -9.90691 -18.1884 20
218 1 -0.588318 -24.4185 -2.98243 15
219 1 4.96349 -7.44088 -16.7783 22
220 1 -13.8355 -9.19324 -3.51881 21
221 1 -1.11024 -24.5337 -13.5448 15
222 1 -11.8755 -13.3851 -13.0898 18
223 1 2.56844 7.89915 -10.2443 17
224 1 -3.12131 -9.20856 -19.8525 22
225 1 5.06995 -5.07109 10.9463 12
226 1 12.7234 -3.17207 -6.57212 13
227 1 3.76196 -13.9124 -19.3559 17
228 1 -8.88697 -9.24435 -16.7848 20
229 1 -11.2921 -4.53314 -18.2887 21
230 1 -10.451 -21.4198 1.56582 15
231 1 6.55056 -12.2862 6.43742 9
232 1 -12.1585 -14.0488 -17.2252 14
233 1 -0.273083 0.850475 -18.7615 20
234 1 0.392704 3.91054 -6.97458 21
235 1 -11.2737 -10.2381 8.84284 16
236 1 -13.8774 -15.2445 -13.7094 21
237 1 -8.87442 -15.3976 -17.1 19
238 1 -5.95537 0.869662 -21.4318 11
239 1 -8.58762 -17.9312 -11.728 21
240 1 5.17612 -15.9699 -17.9584 23
241 1 7.75835 -7.42403 -18.2559 18
242 1 8.39778 -4.90702 -6.38434 24
243 1 -11.4546 -12.6584 3.85568 22
244 1 -6.66515 -18.9521 -6.75234 23
245 1 6.42913 -6.33514 5.81592 22
246 1 -11.1491 -21.6951 -1.93065 21
247 1 -3.90396 -20.5991 -6.88521 22
248 1 -5.06155 9.52322 -7.5807 12
249 1 -0.257749 -9.80503 -21.736 21
250 1 -8.79288 -9.26757 -20.1452 16
251 1 -14.4373 -14.9695 3.22008 15
252 1 -3.48749 -0.50534 5.1304 23
253 1 -0.948374 -21.4222 -8.45679 21
254 1 -8.91354 -20.4457 -16.9396 16
255 1 -14.9592 -3.8392 -16.4873 19
256 1 8.03722 -4.23652 -3.10325 21
257 1 -8.69003 -3.98276 -16.8462 21
258 1 2.45323 -1.05889 -18.1983 21
259 1 1.94158 -23.5216 -14.6768 13
260 1 -11.0539 5.99324 -10.5904 11
261 1 -0.523771 1.01198 -1.88119 20
262 1 6.74594 -6.85446 -1.24883 22
263 1 -11.8103 -7.31692 -0.071806 22
264 1 -6.18091 -13.1938 6.99487 16
265 1 -11.0916 1.18788 -5.67968 22
266 1 -0.90096 -12.4758 -19.9856 19
267 1 8.05395 2.8493 -11.9408 18
268 1 1.70826 -20.8866 -6.63193 24
269 1 -3.40944 -11.7566 8.07376 17
270 1 -18.758 -10.8287 -3.18561 11
271 1 2.11407 -23.7978 -8.08983 20
272 1 -8.61487 -3.13302 6.5771 18
273 1 -14.0551 -6.21631 4.68793 17
274 1 -13.8367 -9.07852 -0.293802 22
275 1 -17.0551 -16.0491 -1.03172 15
276 1 10.2808 -11.7012 -10.5226 16
277 1 -14.7035 -14.8452 0.280004 20
278 1 5.52135 -10.0053 -15.0913 20
279 1 6.02399 -21.0539 -11.4049 17
280 1 0.114526 6.69497 -12.0743 16
281 1 -15.6461 3.96783 -9.96258 9
282 1 6.59298 2.38432 3.30716 19
283 1 1.86833 -20.9862 -10.0123 20
284 1 -8.26806 1.81666 -3.78258 20
285 1 1.52079 -18.1924 1.74452 21
286 1 7.18971 -15.2003 -2.86942 17
287 1 -0.918466 -10.1133 8.74715 19
288 1 -5.83247 3.9959 -0.57335 20
289 1 4.0149 1.1991 8.64805 10
290 1 -9.39437 4.42111 -15.3628 16
291 1 -3.86709 -14.9931 -23.4246 12
292 1 3.50604 -20.4591 -19.1122 12
293 1 -16.7851 -4.63831 4.97476 11
294 1 -17.7493 -6.93406 -6.58563 18
295 1 -8.23713 1.95748 -7.0418 20
296 1 4.3445 -10.5443 2.29485 20
297 1 -17.282 -20.559 -8.7061 11
298 1 1.8895 -15.3465 -0.028545 22
299 1 -12.4483 -15.0821 8.16814 9
300 1 -18.2563 -1.24434 -9.66469 13
301 1 -0.163839 -18.9361 -13.3527 21
302 1 -8.97894 -12.1154 -15.3835 19
303 1 5.28177 -10.1626 -21.524 17
304 1 2.62483 4.70674 -2.03937 22
305 1 -14.2962 -9.74456 -10.0664 21
306 1 2.40892 -20.7622 -16.3412 21
307 1 7.76852 -7.74705 -21.2644 13
308 1 -5.91575 -24.7634 -10.2065 11
309 1 -13.9146 -17.6694 -11.9586 22
310 1 6.85799 -8.40302 10.9334 10
311 1 7.22838 -7.55625 -11.2984 23
312 1 -8.66439 -0.828967 -18.6658 19
313 1 -2.61822 10.8642 -5.71851 13
314 1 -17.2553 -10.363 -11.368 18
315 1 -13.8322 -0.472455 -5.18728 19
316 1 -11.2973 1.01814 -8.61066 23
317 1 -10.8682 1.29708 -2.13104 18
318 1 10.131 -2.91844 5.19487 14
319 1 10.3675 -13.1703 -12.809 17
320 1 6.78295 -6.14927 8.94664 18
321 1 7.85985 -7.66793 -14.7999 22
322 1 -6.28138 -24.7333 -7.29634 15
323 1 1.76362 -18.2368 -8.6242 19
324 1 6.87334 -9.34903 0.742414 21
325 1 -11.1515 -15.8879 -11.8872 21
326 1 -9.20123 -18.0374 -5.2712 22
327 1 -15.218 -14.5613 6.29845 11
328 1 -7.39113 7.71781 -1.79706 12
329 1 -14.4718 -17.8518 -8.54773 21
330 1 2.88812 5.63741 5.67957 12
331 1 -12.2347 -1.67224 -10.4224 22
332 1 -0.25429 3.64745 -13.6796 18
333 1 2.46824 2.00839 -0.0434579 22
334 1 -16.6079 -17.186 -14.4535 14
335 1 -5.76369 -16.0969 -14.9697 21
336 1 -20.3591 -8.4281 -5.64283 11
337 1 -15.1334 -1.28037 -11.6972 18
338 1 1.59941 -17.7628 -1.88418 21
339 1 -9.13625 -20.7925 -10.3443 20
340 1 6.90831 5.86964 0.609483 14
341 1 5.35574 -2.05362 -19.9773 15
342 1 -17.0976 -1.52119 -17.2936 8
343 1 -4.94533 7.06382 -14.2694 19
344 1 -14.158 -4.09211 -13.2438 16
345 1 -3.91519 -20.6017 -3.60647 23
346 1 7.40423 -4.22611 0.276718 20
347 1 2.87682 1.89743 -19.7512 13
348 1 -19.869 -8.8459 -12.2246 10
349 1 -9.49059 -20.5056 -3.56961 23
350 1 2.10347 -17.5753 -18.2077 20
351 1 -16.5192 -9.76395 -1.41235 19
352 1 -17.6755 -7.0116 -3.30155 16
353 1 -17.529 -1.28503 -3.06041 11
354 1 -12.4162 -7.10075 -19.8916 18
355 1 4.39136 -18.8963 -10.4251 19
356 1 -3.47783 -20.465 -16.77 18
357 1 -5.97785 -13.0308 3.28144 23
358 1 -9.29759 -3.12934 -22.7589 11
359 1 1.48163 -20.7144 -3.47658 21
360 1 2.9366 1.53165 -13.613 21
361 1 -16.2589 -1.61027 -0.0125267 10
362 1 -8.72577 -11.8643 8.576 15
363 1 -14.9194 -15.4863 -16.8681 17
364 1 -12.1446 -15.9703 5.21666 16
365 1 4.20835 -13.2829 3.8604 15
366 1 4.0956 -15.9626 -1.52511 20
367 1 8.81306 0.00893253 -9.96566 19
368 1 -6.213 -4.47667 5.15669 21
369 1 -0.614485 3.69036 -10.3182 19
370 1 -6.1175 -21.9093 -11.9173 18
371 1 -6.2108 -4.46722 8.29977 18
372 1 -4.67607 9.37249 -2.67993 10
373 1 -10.9114 -18.908 -13.4388 21
374 1 6.38236 10.5939 -8.31553 11
375 1 2.08823 -0.860137 1.78657 22
376 1 -8.69069 -6.2255 1.78115 23
377 1 -14.2325 -6.75448 1.66935 23
378 1 -11.0501 -16.3844 -15.0454 21
379 1 -8.87901 -0.811974 -1.82054 20
380 1 -5.49875 -18.7907 -13.5855 18
381 1 -3.55251 -14.5891 -19.995 21
382 1 -14.5141 -21.9806 -7.15079 12
383 1 6.92134 -6.70126 2.55507 20
384 1 -11.0501 -12.7199 6.5421 19
385 1 -14.6918 -4.91272 -20.1178 10
386 1 7.3957 -2.40222 -8.49352 22
387 1 -14.7268 -20.6068 -10.3129 17
388 1 -1.65852 8.52828 -3.34091 17
389 1 -8.15189 -0.310145 8.11121 12
390 1 -16.9648 -15.2716 -8.06597 18
391 1 -2.88094 7.85404 -9.03858 20
392 1 7.02618 5.4281 -16.2631 10
393 1 -8.46156 -17.7 -14.8635 20
394 1 0.902297 -9.17443 10.8767 12
395 1 -3.92736 -23.2624 -15.463 11
396 1 -0.832617 -13.042 -16.5555 20
397 1 6.4409 -21.3081 -2.4353 10
398 1 -18.3954 -1.76899 -6.32209 13
399 1 -0.898416 -4.25662 8.60053 21
400 1 5.6903 0.501336 -8.39721 22
401 1 -11.3175 -1.8036 -17.0798 17
402 1 -20.0858 -14.718 -6.95536 13
403 1 -2.39531 8.32234 0.123669 12
404 1 -6.56755 -7.14538 -19.9919 20
405 1 7.14512 -2.02418 -4.83 21
406 1 3.03994 7.54025 -13.2973 13
407 1 14.2843 -5.27766 -9.12854 11
408 1 -1.20615 -6.94662 -19.9082 20
409 1 -4.38246 -20.4137 -0.0462746 21
410 1 -1.08166 -15.9038 5.32744 12
411 1 -11.7791 -4.345 -14.9113 19
412 1 -17.0492 -20.1832 -6.0484 12
413 1 -7.71312 -20.7999 -19.9618 13
414 1 3.8999 9.67139 -2.8511 13
415 1 0.0436212 -4.46474 -18.0482 18
416 1 1.97595 -11.823 8.7922 15
417 1 -17.007 -12.3655 0.157651 15
418 1 -3.75418 -23.237 -1.60856 15
419 1 -14.29 -12.0623 -5.02991 21
420 1 13.0864 -10.7999 -10.2272 11
421 1 7.94698 -10.112 -9.62037 21
422 1 -0.0558744 -16.0207 -14.9168 21
423 1 1.88562 -6.4645 -18.1058 19
424 1 6.58934 -13.2009 -19.8753 19
425 1 -5.99744 -7.31737 6.71156 24
426 1 5.10773 6.67513 -5.23202 15
427 1 -5.9775 -10.1156 -21.7349 19
428 1 0.356438 -5.02154 -25.0451 12
429 1 -8.92382 -12.1216 1.89123 21
430 1 -11.3516 4.19588 -7.22409 15
431 1 -13.2246 -12.2419 -20.7197 9
432 1 -18.6298 -12.2162 -12.8458 13
433 1 -9.57251 -18.4573 -21.3304 10
434 1 -9.52577 -17.8763 4.73981 14
435 1 -2.47658 1.58758 -13.4175 20
436 1 13.0703 0.812501 -2.55889 14
437 1 13.3209 -2.4139 -2.82053 12
438 1 -9.02453 -23.5393 -9.33763 13
439 1 -8.79177 -12.2304 -21.7301 12
440 1 -5.58601 4.32223 2.43673 25
441 1 8.15074 -10.3238 -6.24507 22
442 1 4.05387 6.47167 -16.7177 11
443 1 10.3829 -2.93311 -13.664 20
444 1 2.07016 2.49995 6.74498 16
445 1 -11.32 -4.38822 1.44874 22
446 1 2.44566 2.29794 3.11835 20
447 1 4.11078 -4.64064 8.42659 24
448 1 -0.511049 -4.45112 -21.5338 20
449 1 -3.28075 -8.88811 6.65757 23
450 1 4.98169 0.831923 -1.70391 21
451 1 5.74439 0.383111 -11.9573 20
452 1 -11.3233 1.09812 -11.7591 24
453 1 -6.22583 3.91356 -10.3548 18
454 1 6.93436 -9.08435 6.8057 19
455 1 8.23082 -10.7329 -16.6664 22
456 1 6.83069 -19.1454 -8.86736 13
457 1 8.25982 4.90936 3.17195 13
458 1 -19.1226 -16.0618 -3.99976 9
459 1 -6.03721 -1.54556 -16.8119 22
460 1 -16.9452 -10.0886 -5.24228 21
461 1 -6.37877 4.3848 -16.6707 18
462 1 1.24764 -24.0684 -11.6799 15
463 1 2.76947 -9.48138 -16.7164 22
464 1 -2.49863 8.93253 -11.9174 12
465 1 -15.3269 -14.6954 -19.8472 10
466 1 2.40771 -23.4989 -1.24769 15
467 1 -15.1469 -12.4609 -7.96755 21
468 1 -0.0912566 3.54662 -20.265 12
469 1 -3.95349 -0.0126778 8.79937 14
470 1 -11.2469 -13.1824 0.268859 20
471 1 -0.0724579 -18.7053 -16.7522 21
472 1 1.57795 -15.2332 3.20223 20
473 1 -11.893 -1.88704 -6.8549 21
474 1 1.71299 -5.49904 12.366 12
475 1 -0.0882384 9.63934 -9.57405 16
476 1 7.1813 -12.8731 -11.5923 21
477 1 -0.898052 -1.57936 3.55715 22
478 1 -0.0600068 -1.80057 -23.2684 11
479 1 -6.78761 -21.709 1.66501 12
480 1 2.06869 -11.7124 -23.9677 14
481 1 0.167893 6.8637 -1.57498 19
482 1 8.18164 -0.984304 -18.7259 11
483 1 -6.36916 -12.6307 -19.9662 22
484 1 -6.31733 -19.1397 -9.95322 20
485 1 -16.0401 -11.892 -18.589 15
486 1 10.9294 -5.21881 -7.77558 23
487 1 13.3516 -3.31709 -12.3436 10
488 1 8.17642 -17.1166 -16.2815 19
489 1 10.6115 0.376871 5.38909 9
490 1 1.97401 -17.808 -11.6137 20
491 1 3.20768 -3.22514 -23.9412 10
492 1 5.42802 3.64974 -3.66771 19
493 1 6.18114 5.01975 5.44284 14
494 1 11.0432 1.07593 -5.32309 15
495 1 10.1635 -7.94983 -6.27474 20
496 1 8.559 -5.18163 -13.0712 23
497 1 7.11994 -3.56351 7.0085 16
498 1 11.7748 -0.599061 2.92424 8
499 1 5.66082 3.24092 -10.5329 21
500 1 -3.46863 -6.27781 8.37413 22
501 1 12.1367 -14.6965 -14.9354 9
502 1 1.51221 -6.21874 8.93357 20
503 1 -11.6553 -9.82217 -15.1734 18
504 1 10.6712 -4.30976 -1.17888 16
505 1 -13.9325 -3.54763 2.93458 16
506 1 4.81003 0.873016 1.48535 21
507 1 4.50457 -4.00787 5.47629 20
508 1 -0.5371 1.36585 1.47759 19
509 1 -4.44635 7.13389 3.31676 13
510 1 -1.43958 -21.5133 -1.8432 22
511 1 -8.54962 2.00481 -10.0357 20
512 1 11.8684 0.6785 -14.6001 9
513 1 7.53944 -14.3843 -17.2917 22
514 1 -3.74655 7.97513 -5.82491 18
515 1 -3.26697 -20.8147 -13.2816 22
516 1 8.30656 -16.1618 -19.3969 14
517 1 -14.1459 -3.4612 -0.0196676 19
518 1 -5.56281 -2.62121 -21.0741 18
519 1 -6.78973 -21.8018 -5.42118 21
520 1 -9.37765 -6.6822 -18.346 22
521 1 -15.5468 -7.31154 -11.2058 21
522 1 7.03025 -12.8456 -4.84142 21
523 1 10.1219 -2.16833 -6.12424 20
524 1 -3.42012 -17.9177 -1.6848 19
525 1 -14.3491 -12.3824 -15.1772 16
526 1 -1.59982 -7.06624 -23.316 18
527 1 -3.58545 -3.28034 6.96458 22
528 1 4.97804 0.630585 -18.4763 17
529 1 9.88251 -8.52244 5.54936 14
530 1 7.77897 -2.49876 -15.4787 21
531 1 8.43761 3.09442 -5.22669 16
532 1 -0.79082 -21.611 -15.2175 19
533 1 -13.5633 -9.07801 7.27145 17
534 1 10.1846 -10.5217 -4.41117 16
535 1 -4.03644 2.69562 6.11801 16
536 1 2.34607 5.31018 -19.302 13
537 1 -12.7824 3.37688 -12.7086 14
538 1 7.83948 1.56062 -2.81795 21
539 1 -18.8577 -17.8165 -6.99444 12
540 1 9.53484 -12.396 -2.44349 14
541 1 3.98921 11.3357 -5.72878 10
542 1 -5.91189 -1.43574 3.20468 23
543 1 -13.8933 -15.424 -6.77403 23
544 1 -12.3895 -7.15951 -16.38 21
545 1 3.87643 -7.46637 7.56653 20
546 1 -6.57073 -16.0726 5.08924 19
547 1 5.42321 3.91572 7.59271 10
548 1 -9.54624 4.74241 -5.09838 16
549 1 -3.43146 -9.33899 -23.3364 15
550 1 -11.2508 -10.0541 1.55424 22
551 1 5.61896 -10.23 -18.3906 21
552 1 5.24447 -15.7114 -14.9192 23
553 1 4.42834 -4.72663 2.12189 22
554 1 -11.4647 -7.46166 9.79572 12
555 1 7.50214 -0.951899 1.90784 16
556 1 -3.70312 -14.9415 6.79216 13
557 1 -6.15558 -0.899764 6.54487 21
558 1 -3.05721 -11.8181 -21.7621 22
559 1 -11.191 -7.03237 3.30538 22
560 1 -0.707713 -7.30678 6.82261 22
561 1 -14.9012 -22.361 -1.05221 11
562 1 10.4343 -2.50968 -10.201 19
563 1 2.28554 -20.8243 -13.0847 20
564 1 3.04376 1.50079 -10.3526 21
565 1 6.54992 9.52584 -5.25138 11
566 1 0.216711 -8.76929 -24.8868 12
567 1 -0.265318 6.6251 -8.83043 21
568 1 8.57583 0.360225 -6.64091 20
569 1 -9.20978 -18.0668 -8.55911 19
570 1 -4.19158 -6.5429 -21.4271 20
571 1 -12.7722 3.72102 -9.9183 14
572 1 5.16823 -19.248 -16.3531 18
573 1 8.44238 2.89548 -14.9902 17
574 1 7.6589 8.01872 -10.4302 12
575 1 9.21466 -8.18935 8.79004 11
576 1 9.64536 -5.6217 6.92521 14
577 1 -3.96792 -17.7893 1.84377 23
578 1 -8.8736 1.91796 -19.7767 12
579 1 -3.04598 5.15105 4.3387 19
580 1 0.393824 -21.3915 -18.5055 11
581 1 6.21862 7.65697 -13.33 11
582 1 5.29911 3.69183 -0.156115 23
583 1 10.5304 -15.9778 -11.9178 14
584 1 4.02528 -1.61851 10.3865 10
585 1 -17.533 -13.476 -5.63222 16
586 1 3.06321 -26.1605 -9.6102 13
587 1 -8.41298 7.48948 -10.3286 11
588 1 3.00362 1.9476 -6.97666 21
589 1 -16.7475 -13.0728 -2.50128 19
590 1 -3.76617 -3.30957 9.88384 12
591 1 -11.7791 0.726754 -19.2117 11
592 1 -8.34381 1.73317 -16.668 21
593 1 3.14968 -25.9828 -5.98131 11
594 1 7.44313 -2.20943 -11.8411 22
595 1 -18.9034 -5.80602 3.18726 7
596 1 4.31347 -12.5835 -22.3706 15
597 1 -1.30979 -19.0055 3.19687 19
598 1 2.45464 4.68844 -8.90905 20
599 1 -6.12365 -7.10448 10.039 12
600 1 -12.1762 -16.5092 -18.8457 12
601 1 -8.85933 -17.8131 -18.599 20
602 1 -11.9789 -20.9086 -15.2518 14
603 1 2.53465 4.45003 -15.0727 18
604 1 -5.4503 3.68401 -3.92397 19
605 1 2.7248 -17.6582 -14.8232 21
606 1 4.97511 -24.0484 -7.20545 14
607 1 -0.934548 -16.3298 1.79149 21
608 1 13.1915 -7.67532 -11.1993 12
609 1 -3.93775 -26.0972 -5.69668 9
610 1 -11.0114 -9.78914 4.97742 22
611 1 -6.06099 -24.8785 -3.20291 11
612 1 -11.9944 -21.3522 -11.891 15
613 1 -16.0975 -9.92782 1.88556 18
614 1 -11.0651 -25.0398 -3.29719 10
615 1 11.2538 0.0573486 -8.06245 17
616 1 -6.50271 6.76946 -5.48888 12
617 1 -16.4159 -4.17555 -4.75355 17
618 1 7.3234 -9.75726 -2.58929 21
619 1 -18.114 -11.506 -16.2156 12
620 1 8.87899 -4.96517 -16.2687 17
621 1 4.7428 5.88497 2.85031 16
622 1 -14.7832 -9.49609 -13.512 19
623 1 -16.717 -15.375 -11.6263 19
624 1 -1.24391 -1.22119 9.85834 15
625 1 5.21466 -2.09161 -16.916 19
626 1 6.08425 7.61042 -2.37779 11
627 1 -5.97338 -7.522 3.40179 23
628 1 -3.15204 -23.4461 -7.87076 18
629 1 -12.6185 -24.3911 -1.32387 9
630 1 7.82512 1.83957 0.35791 20
631 1 -0.476139 -15.5363 -18.8674 21
632 1 2.58903 1.98071 -3.48902 24
633 1 -11.8721 -15.8711 1.80671 22
634 1 5.95861 0.26771 -15.0131 21
635 1 -3.50454 -23.6047 -12.0177 15
636 1 2.63143 -26.0068 -3.09601 10
637 1 -0.390231 -24.4807 -6.5252 15
638 1 2.97969 -4.01766 -16.6081 22
639 1 0.727257 11.8095 -7.14739 12
640 1 -6.99832 -5.11936 -22.4521 15
641 1 -3.34115 -6.25926 4.89887 22
642 1 -0.618541 -1.82461 -19.952 19
643 1 -14.3155 -9.30649 -19.6855 14
644 1 -12.1858 -13.0445 -9.84348 22
645 1 1.3455 6.72746 -16.0806 13
646 1 -5.93464 -12.9445 -23.5241 10
647 1 8.58654 -4.97683 -9.79843 22
648 1 8.21439 -18.6643 -11.8585 15
649 1 -8.7136 -6.29629 8.38152 19
650 1 1.60923 -17.8085 -5.05454 21
651 1 10.6619 -14.3803 -8.57468 13
652 1 7.31757 -12.2631 2.13087 18
653 1 -3.11968 2.61113 -0.110933 23
654 1 -16.0486 -8.0187 4.78228 13
655 1 -8.71055 -3.4062 3.34633 22
656 1 -4.034 -20.5583 3.67204 13
657 1 4.42319 1.5728 5.30639 20
658 1 -16.7625 -9.65613 -8.59122 21
659 1 5.49717 -15.6321 -11.6289 21
660 1 -11.2193 1.30516 -15.1313 21
661 1 -1.67355 -21.7901 1.54265 15
662 1 -3.10556 -8.91 9.98458 15
663 1 -0.634353 9.00902 -6.74116 21
664 1 -1.14663 -18.7905 -0.0273753 25
665 1 -0.646411 -4.48792 4.96054 23
666 1 -17.1396 -14.5308 -15.1044 15
667 1 -1.95653 1.88114 7.83502 13
668 1 2.87321 4.80828 -5.20957 22
669 1 -12.0223 -18.6573 -3.38424 21
670 1 -8.92155 -23.722 -1.81743 15
671 1 4.55179 -13.3617 0.488061 21
672 1 8.17557 -14.7727 0.130166 13
673 1 4.7704 -2.14421 0.259477 20
674 1 -3.63393 -14.9863 -16.7436 21
675 1 -3.77682 -6.53898 -18.226 20
676 1 -5.86526 -10.1441 5.13223 23
677 1 -0.45544 6.74292 -5.38806 19
678 1 9.28669 -7.01957 -2.88977 18
679 1 -0.0368555 0.728779 -15.2976 20
680 1 -10.8842 -1.31012 6.46908 13
681 1 4.68779 -1.41129 3.76774 23
682 1 4.74195 -12.7341 -16.6992 22
683 1 -11.5967 -21.6462 -8.55155 17
684 1 10.7396 -9.65112 -1.01973 11
685 1 -0.180234 -9.97311 -18.4344 19
686 1 1.62107 -3.30694 6.93831 22
687 1 6.5812 -18.7249 -19.0828 11
688 1 3.82602 -6.08264 -24.3051 9
689 1 10.4911 -2.18784 -16.7044 12
690 1 10.0353 -12.8115 -6.21247 14
691 1 -0.390815 -13.6166 3.60755 23
692 1 -6.2521 -18.6927 -16.9827 22
693 1 2.41812 7.45767 -6.93936 15
694 1 -14.6812 -6.33211 -1.74377 23
695 1 8.77575 -0.0392452 -13.4045 23
696 1 9.88106 -1.07985 -2.91241 20
697 1 -1.05989 -11.7421 -24.0922 13
698 1 -8.47724 2.12845 -0.493276 22
699 1 10.1926 2.35499 2.59317 14
700 1 7.63935 5.306 -12.9864 13
701 1 1.46154 -7.08701 -21.7307 22
702 1 7.34936 -13.1436 -8.20837 24
703 1 -14.8915 -6.51449 -8.35335 21
704 1 11.0748 -5.21797 -4.34348 16
705 1 -14.7906 -18.0464 -5.07445 16
706 1 -14.0745 2.40788 -16.7537 9
707 1 1.82653 -3.63556 3.41146 22
708 1 -12.1243 -7.36375 -13.1567 23
709 1 -16.734 -4.24424 -1.86946 16
710 1 5.13475 -18.9005 -13.2165 19
711 1 -16.623 -18.4779 -11.7029 15
712 1 8.51238 -15.4634 -6.45591 12
713 1 -16.9438 -4.13889 -8.41227 17
714 1 10.6784 1.6247 -0.578559 16
715 1 -9.0178 -15.0153 0.104037 19
716 1 3.82631 -7.67622 10.7514 18
717 1 10.1966 -12.4359 0.856993 11
718 1 -14.9481 -6.51034 -5.15467 19
719 1 -0.505104 1.2908 4.94968 23
720 1 7.55186 2.4889 -17.8996 13
721 1 -7.13575 -16.5357 -23.0297 10
722 1 -10.7266 4.78053 2.15714 12
723 1 -16.7759 -19.4499 -0.294985 12
724 1 9.94232 1.10254 -16.5051 14
725 1 -0.905688 -1.35273 7.04143 21
726 1 12.0099 -10.3187 -13.2274 12
727 1 4.52145 -16.1939 1.62596 18
728 1 -2.88055 1.67179 -19.9492 16
729 1 2.40415 1.97495 -16.8747 20
730 1 -8.50417 -9.07138 3.62995 21
731 1 12.7377 -0.928382 -5.10743 13
732 1 -6.59176 -12.9641 -16.7346 22
733 1 7.93938 5.04699 -8.84516 13
734 1 -18.1695 -7.02896 -9.75919 18
735 1 -6.66543 -18.9487 3.30535 18
736 1 -0.589006 6.83265 -18.3762 14
737 1 1.93272 -9.632 3.98038 20
738 1 -3.50755 -20.7891 -10.0812 22
739 1 -10.8021 6.85205 -0.766379 11
740 1 -17.3727 -4.11267 -11.3265 15
741 1 9.28036 -9.95573 -18.9254 14
742 1 0.482128 -17.581 -23.302 11
743 1 -11.5312 -1.52595 -3.39943 20
744 1 11.0454 3.0776 -13.3744 9
745 1 1.24521 -13.4155 -21.6805 19
746 1 -11.718 -19.4942 -18.4566 12
747 1 -1.12748 -18.7574 -10.2301 23
748 1 -6.10378 2.1205 8.29515 12
749 1 -0.806007 -21.7791 -11.7029 21
750 1 -2.95872 -0.645353 -21.1087 17
751 1 12.759 -8.12646 -8.10016 15
752 1 5.65378 0.810633 -5.03576 20
753 1 -3.21774 -23.4847 -4.24988 19
754 1 -1.27694 -15.6794 -21.95 19
755 1 11.5431 -5.09937 -11.1109 20
756 1 -3.21671 -3.75764 -19.7424 22
757 1 -6.5104 -16.1542 1.66281 22
758 1 4.94036 -2.2764 -13.4756 22
759 1 -14.2131 -3.9644 -10.0344 20
760 1 -16.8799 -4.31274 1.77085 15
761 1 1.58996 -3.48877 10.155 20
762 1 -9.22396 -17.7626 1.30996 22
763 1 -0.323039 3.97857 -3.61488 23
764 1 1.81826 -23.438 -4.77869 20
765 1 2.46341 4.72837 -11.7443 20
766 1 -5.99511 1.66578 4.25466 23
767 1 -8.76396 -9.10745 10.1779 13
768 1 -11.9545 4.02298 -0.788537 14
769 1 -9.41843 -14.9676 6.30514 17
770 1 1.38433 -21.2021 3.10031 11
771 1 7.34276 -3.72312 3.54534 20
772 1 4.63927 -12.4068 -13.4207 21
773 1 4.67586 -21.9883 -14.2825 14
774 1 -11.2281 -9.85972 -21.6795 11
775 1 -2.88394 -3.44909 -23.0215 16
776 1 2.79556 4.92685 1.39628 20
777 1 -15.7021 -10.6386 6.16294 10
778 1 -8.34287 1.79605 -13.2358 20
779 1 -18.2331 -6.01915 -13.0908 15
780 1 7.94448 7.64832 -7.14659 12
781 1 -14.165 -23.5765 -4.22325 12
782 1 7.86993 4.70611 -1.86927 16
783 1 -13.5366 -18.2159 -15.9192 17
784 1 0.402679 6.80919 1.21427 18
785 1 -11.466 -7.02723 6.47166 21
786 1 -6.52274 -21.4142 -15.0098 19
787 1 6.50302 -9.40349 3.83349 22
788 1 5.44612 -24.5435 -0.800962 8
789 1 -0.390532 4.48239 6.00794 14
790 1 10.396 -12.3022 -16.3218 16
791 1 4.35667 -18.955 -6.92123 20
792 1 2.81597 -9.12787 -19.7813 18
793 1 -17.0777 -8.93495 -17.6133 14
794 1 -13.9708 -1.90467 -18.8764 14
795 1 -8.4395 -0.327351 4.85048 22
796 1 6.98763 -12.3351 -1.0749 19
797 1 -11.7015 -15.964 -4.86014 22
798 1 10.031 -7.76379 -9.74062 22
799 1 -3.42876 -0.906537 -18.4585 23
800 1 10.9509 3.65514 -3.01723 12
801 1 -6.18868 4.55702 6.48055 12
802 1 -15.7857 -20.0727 -3.20832 13
803 1 4.32919 -24.1943 -12.1299 14
804 2 -14.3966 -4.7568 -15.0195 21
805 2 -9.43652 4.05798 -6.90812 17
806 2 -1.0907 -9.14035 -20.1258 22
807 2 -8.96838 -1.16475 6.74177 16
808 2 0.0100024 -23.4172 -14.6557 15
809 2 -14.8415 -15.9339 -12.0289 21
810 2 -1.27674 -8.96809 10.3381 14
811 2 2.63276 -9.4438 11.3781 12
812 2 -13.9474 -18.6566 -6.93033 20
813 2 -15.1715 -3.60346 -11.6872 20
814 2 -0.808323 4.62076 -5.57194 22
815 2 -14.153 -7.28792 -6.80266 24
816 2 -0.554225 7.18892 -16.3527 13
817 2 7.27937 -4.09103 -4.7877 21
818 2 -2.23865 3.75959 -13.5488 20
819 2 3.71003 9.44745 -10.4421 13
820 2 -15.5266 -9.82004 -18.4042 16
821 2 -15.7892 -18.4735 -13.4537 16
822 2 -1.32212 -3.41584 3.62058 20
823 2 5.80642 -11.9903 -15.2044 22
824 2 1.35549 -24.8331 -2.46238 12
825 2 -9.15392 1.17132 -8.49358 22
826 2 -18.5215 -4.0182 -13.103 11
827 2 6.88786 -4.89564 -1.60345 24
828 2 8.81961 -18.6354 -15.1391 13
829 2 -14.6247 -18.302 -10.4293 19
830 2 -11.7169 -12.1494 -1.3818 21
831 2 -8.65895 -21.5837 -5.04846 21
832 2 7.63842 -16.1611 -1.37899 11
833 2 -5.29332 -22.3802 -16.3155 12
834 2 3.56445 -11.503 9.8392 12
835 2 -0.574535 1.63589 -17.0697 23
836 2 -0.908066 -20.7502 -0.124244 20
837 2 -17.8435 -17.0628 -11.1852 12
838 2 -1.68573 -3.73281 6.83314 25
839 2 -11.225 -1.19443 -5.30931 22
840 2 -4.31874 -7.39753 9.70816 16
841 2 -14.5485 3.12589 -8.63699 14
842 2 5.41338 -20.4659 -3.53386 14
843 2 0.225811 4.5691 -15.3648 21
844 2 6.93793 6.25375 -1.30841 15
845 2 4.89534 10.4082 -4.44906 12
846 2 5.39677 -14.5789 -16.757 21
847 2 -11.5697 -0.233545 4.98267 12
848 2 4.28382 -4.58751 -22.981 12
849 2 -7.15448 -0.108478 -17.5292 18
850 2 11.2229 1.29082 -12.8029 14
851 2 -9.32718 -10.1227 8.46894 20
852 2 -16.1536 -1.04119 -1.8745 14
853 2 10.059 -9.89333 -17.1795 16
854 2 -14.0634 -15.7471 4.92621 13
855 2 0.332189 -19.9493 -19.9421 15
856 2 -3.97721 -10.0291 -21.4483 21
857 2 -16.552 -19.0435 -4.75578 13