ITEM: TIMESTEP
3000
ITEM: NUMBER OF ATOMS
2000
ITEM: BOX BOUNDS pp pp pp
-30.0 30.0
-30.0 30.0
-30.0 30.0
ITEM: ATOMS id type x y z Coordination
1 1 -10.1611 4.26287 -15.6366 13
2 1 -3.14035 -9.88932 -8.8829 20
3 1 3.1955 11.5257 13.1035 20
4 1 7.21793 -10.1418 5.91799 19
5 1 -10.8547 8.97654 -1.90761 21
6 1 10.2526 -9.60609 -11.5986 12
7 1 -11.4843 3.76106 -7.2522 18
8 1 -0.322232 -7.45209 10.0977 16
9 1 -8.94459 0.709945 -12.0042 21
10 1 -13.7562 -9.43379 6.71305 11
11 1 11.4057 0.325167 -7.70808 21
12 1 -4.18016 3.0405 -4.71705 18
13 1 -4.62486 -12.108 2.35453 18
14 1 -12.0269 -7.91084 3.22698 17
15 1 1.81586 4.14469 17.6887 17
16 1 5.91111 -1.49836 3.99553 18
17 1 -0.677101 4.29247 10.0835 23
18 1 7.29547 -3.62583 1.24341 19
19 1 -1.56192 10.1842 -8.94118 18
20 1 2.70391 -1.37431 14.1054 17
21 1 -8.85858 -1.10942 -16.737 11
22 1 -13.5181 -4.13242 12.9819 11
23 1 12.5102 3.70944 6.63257 20
24 1 1.94109 9.30397 -10.911 19
25 1 3.22326 6.40882 -14.0161 20
26 1 15.3557 1.21525 14.1236 10
27 1 -7.59239 1.12208 0.390228 19
28 1 -12.889 5.08285 -9.63468 15
29 1 -2.17732 0.633778 -6.30166 24
30 1 -10.277 8.31596 8.97269 16
31 1 7.19626 -13.3703 4.72705 16
32 1 2.19223 -0.0852619 8.24774 17
33 1 3.39768 -14.7735 -11.8641 11
34 1 10.4782 -11.7462 0.984015 16
35 1 -7.1895 -14.281 -5.34798 10
36 1 -13.7025 -6.15715 11.0325 14
37 1 4.68803 -3.76803 -4.5035 21
38 1 3.10703 -6.46094 -13.1319 16
39 1 8.139 -7.97025 -12.8475 21
40 1 -2.97055 5.11645 -17.9438 9
41 1 0.494164 3.32105 13.089 22
42 1 -0.22155 -12.7422 7.20107 19
43 1 7.05864 -5.07487 10.3939 15
44 1 -11.1531 -1.76689 3.13843 18
45 1 -15.5306 -0.684811 8.08921 12
46 1 -8.23361 -1.12029 -1.5518 20
47 1 -3.773 13.2433 -2.28759 21
48 1 -0.119727 -14.274 -11.1321 14
49 1 1.24769 2.41737 -10.9504 23
50 1 6.01634 -5.44932 -13.9267 24
51 1 -2.17248 -4.48193 12.0523 17
52 1 -11.1093 5.74288 -0.553455 20
53 1 3.30727 11.8484 -11.4814 16
54 1 1.90148 12.6332 8.12614 20
55 1 -10.8582 9.9023 -8.33913 15
56 1 -1.16073 13.0489 -0.390437 21
57 1 1.5867 -12.1273 2.88636 22
58 1 7.47469 -7.36951 -4.31492 23
59 1 5.50493 -5.41626 -17.3054 13
60 1 -9.55012 9.29459 12.5845 12
61 1 -13.302 -3.91331 -10.2895 10
62 1 6.53923 2.93037 5.0138 18
63 1 -6.00208 5.56066 -4.6077 22
64 1 -8.35149 -9.71322 6.81425 18
65 1 -2.5255 13.7848 12.4158 11
66 1 -11.5414 6.72804 -7.34032 17
67 1 -6.72763 10.3265 13.7287 14
68 1 -0.0489473 5.65577 -5.27693 22
69 1 2.61767 6.23297 3.63421 18
70 1 -6.54023 -13.2415 7.56304 19
71 1 0.992477 3.9062 7.37915 18
72 1 6.41746 -15.13 -2.68574 11
73 1 4.92779 12.2361 15.6612 12
74 1 -14.5789 2.386 -10.8748 11
75 1 -11.3245 7.18469 -10.6279 17
76 1 5.43122 5.75609 13.0747 23
77 1 13.775 -2.95424 -10.9744 10
78 1 10.01 -11.1909 4.10665 12
79 1 -16.8187 -1.29268 5.54367 11
80 1 -8.25361 -2.04564 1.78401 21
81 1 6.27808 15.6095 6.89356 13
82 1 6.5794 -3.55615 15.0639 11
83 1 -5.00018 -12.3765 5.46385 21
84 1 -10.8949 -1.37154 -0.164611 18
85 1 11.657 4.13986 3.501 19
86 1 8.57234 -1.9757 -4.23814 19
87 1 -1.8048 11.7888 10.2164 20
88 1 4.16563 0.040459 10.3594 19
89 1 -7.11299 -4.92242 2.50883 19
90 1 -2.59556 -6.56843 -8.80987 22
91 1 -11.4409 6.2529 7.40738 17
92 1 -6.76697 12.7455 -1.34367 21
93 1 -4.19183 7.64851 -9.75826 20
94 1 3.66778 1.35398 -6.16317 19
95 1 5.51964 -1.27509 -5.85681 20
96 1 8.18936 11.7663 -6.51999 18
97 1 8.67093 -8.45732 2.69138 20
98 1 5.77933 -7.92964 10.4401 9
99 1 -6.1829 15.1363 -3.85783 14
100 1 -11.1099 12.5284 5.26797 9
101 1 -8.11388 -3.6519 14.1867 18
102 1 -5.53624 8.84407 5.63569 17
103 1 -6.57534 -5.09806 9.33319 18
104 1 12.8348 -7.88072 -6.20568 17
105 1 -9.32417 3.13475 3.82899 17
106 1 -10.5235 -14.3788 3.42143 16
107 1 9.85931 -8.57431 -6.19974 19
108 1 4.68851 1.27093 -11.0357 20
109 1 -5.63531 -0.641853 -17.0204 14
110 1 7.3689 -0.852493 6.7051 18
111 1 -0.00785781 10.1453 1.21295 20
112 1 -8.81168 7.90954 -7.79808 23
113 1 2.34183 9.66887 18.4501 9
114 1 1.39635 13.3556 -5.61061 18
115 1 -12.9695 11.1271 -0.110344 14
116 1 1.11243 7.40864 0.562007 19
117 1 -5.6551 -8.42979 8.36742 18
118 1 16.1263 -0.343407 11.4021 9
119 1 2.21419 -7.30448 -7.7987 19
120 1 4.61061 -6.04716 -7.14832 20
121 1 -1.98662 4.46376 6.9122 21
122 1 7.8127 -0.696549 14.7895 18
123 1 -9.75447 -7.35298 -1.85307 22
124 1 4.78329 -4.2989 2.33736 22
125 1 -7.81882 -8.98914 -4.18999 21
126 1 11.3187 -8.62773 0.0867625 20
127 1 -4.3539 5.74379 0.531635 19
128 1 8.58063 2.66002 -14.8189 11
129 1 5.38766 18.4024 -1.69656 10
130 1 -8.42496 -13.7326 11.7461 11
131 1 -11.5748 -14.2785 9.70725 9
132 1 -5.65253 2.69614 1.33602 21
133 1 4.36417 -8.84264 -15.0479 19
134 1 3.03841 5.88066 -6.56325 22
135 1 12.4915 -10.8112 -1.54584 12
136 1 -1.08474 -15.726 6.50462 15
137 1 -5.80785 -8.18183 2.28915 19
138 1 16.765 6.38623 9.66038 14
139 1 16.3958 -3.85427 -9.05771 8
140 1 -16.2277 -4.13361 3.14536 14
141 1 11.0906 9.32982 5.68529 24
142 1 13.1982 8.31399 3.60628 17
143 1 -6.12729 1.79751 17.6756 8
144 1 6.14444 3.85866 -2.43757 18
145 1 -5.23758 11.426 10.4443 21
146 1 -4.97186 13.4146 -6.28593 20
147 1 -0.0464272 -5.75277 -10.2572 19
148 1 7.01582 -10.3656 -10.8152 18
149 1 1.19508 14.8483 -11.1651 14
150 1 8.66022 -3.25323 12.6004 18
151 1 2.05104 -2.65971 -18.2321 13
152 1 -1.96948 7.89843 -7.21707 23
153 1 10.0403 0.432974 -5.40111 22
154 1 -8.64013 8.01469 -4.85003 18
155 1 -8.71842 14.7376 0.126894 14
156 1 8.16114 -0.718583 -10.3431 16
157 1 10.0616 -8.73672 5.99704 10
158 1 -6.70058 4.85175 -7.8393 19
159 1 -7.44221 13.4566 8.94494 15
160 1 13.0832 7.86535 -7.26973 14
161 1 5.41471 11.8549 -1.17671 23
162 1 -3.63624 17.5393 1.1556 11
163 1 10.6464 10.5049 -1.75997 20
164 1 -2.49137 11.2575 -5.09402 21
165 1 1.5057 16.2165 -8.05359 12
166 1 2.89228 9.36887 -13.4811 20
167 1 -9.60908 -9.47173 1.88267 15
168 1 -13.7445 8.95 -2.65378 12
169 1 -4.47592 -2.85895 -12.6186 23
170 1 1.73858 -10.5371 -15.6612 14
171 1 10.798 12.7593 8.84663 13
172 1 0.972605 15.0497 7.78033 13
173 1 -12.2484 -4.34185 -4.18356 17
174 1 -10.6054 11.8883 2.13198 15
175 1 14.593 -1.47489 -1.42471 15
176 1 -11.5177 1.56433 -16.4543 10
177 1 7.32147 1.54545 17.5428 18
178 1 4.66214 16.4583 4.2216 18
179 1 -3.46571 9.32959 8.66792 22
180 1 2.64823 -7.57402 -17.6951 11
181 1 -4.07275 14.265 9.67396 16
182 1 -2.2512 13.1918 -7.79184 19
183 1 3.49233 -4.34241 13.61 10
184 1 -9.87339 -4.94142 4.42169 21
185 1 -2.21081 -14.2891 -13.4725 7
186 1 -8.81464 12.3318 -8.63123 13
187 1 -2.37944 -10.4264 6.84461 20
188 1 3.00132 -15.7393 -3.10398 11
189 1 -3.1563 10.0797 -11.8069 16
190 1 -14.248 1.47726 9.93506 14
191 1 -0.298101 6.8785 -1.79488 17
192 1 10.3867 10.2507 -4.55578 26
193 1 -9.07706 3.66812 15.7865 13
194 1 -0.540118 -10.3064 9.65428 15
195 1 -8.73507 3.8555 -0.254875 19
196 1 1.92478 17.2487 5.22992 11
197 1 1.40572 7.37436 9.80466 19
198 1 14.2414 4.85428 13.8933 17
199 1 -6.67472 14.1393 3.47169 17
200 1 13.7622 -5.74496 -8.87483 15
201 1 -6.05848 13.527 12.0868 10
202 1 -4.45991 2.40167 -7.91883 22
203 1 13.8538 -4.9604 2.76054 11
204 1 -6.72367 -4.55326 5.6774 21
205 1 -14.8295 1.67481 5.62216 12
206 1 -8.8831 -12.5256 5.52916 21
207 1 6.12422 6.37741 16.1841 19
208 1 -15.2351 0.340008 -2.97539 10
209 1 -2.96666 -14.4373 -0.429253 18
210 1 -5.29076 -0.83725 -2.97419 18
211 1 5.9529 -7.72252 -0.983014 20
212 1 -2.84587 9.24532 4.98696 19
213 1 -7.18104 0.665446 3.36812 22
214 1 6.09399 13.3853 12.2984 12
215 1 -8.41746 -0.607439 -4.45032 18
216 1 -6.91579 10.029 -9.48937 16
217 1 -13.983 -3.88906 -6.78135 13
218 1 -11.1689 -2.17789 12.0659 23
219 1 -0.311021 -9.95864 4.9516 24
220 1 4.93811 -13.5412 7.25157 14
221 1 -12.5531 10.1845 3.28279 13
222 1 14.9505 3.73195 4.05383 18
223 1 5.6603 4.09894 -6.55069 19
224 1 -5.26925 -6.19109 -14.0175 16
225 1 5.30645 -2.54072 12.2571 18
226 1 6.44162 -16.0739 3.11387 15
227 1 -2.89468 6.55229 -12.7629 20
228 1 4.2827 -12.2387 -14.6268 13
229 1 9.85728 0.0857346 -13.3615 14
230 1 4.06835 8.25388 -16.3302 10
231 1 -5.61805 -3.28846 -8.25182 20
232 1 -4.54495 15.9325 -7.11407 10
233 1 -10.7265 -11.4324 11.293 16
234 1 7.31446 15.1468 -1.92523 19
235 1 -9.2954 1.14071 16.7989 14
236 1 -5.79267 10.9264 -3.84037 20
237 1 8.03046 0.940971 9.49947 18
238 1 -2.58445 -5.08171 -12.7019 24
239 1 -4.46666 10.5326 -7.46828 22
240 1 1.49685 6.11571 -11.5723 21
241 1 -7.95929 -11.0246 9.68137 17
242 1 -6.5931 2.35621 8.95529 19
243 1 -9.00463 6.71578 11.1708 21
244 1 2.53574 -10.4248 -7.39418 20
245 1 -5.93396 -15.7692 0.352488 14
246 1 10.4542 -13.1822 -2.18733 13
247 1 3.37042 -7.78225 0.435476 16
248 1 11.792 6.90086 13.9514 16
249 1 4.46017 9.09084 -7.69229 21
250 1 0.492634 10.5516 -2.54915 23
251 1 -10.4588 0.889722 2.16715 19
252 1 -11.8881 12.0722 -3.08739 13
253 1 2.53912 5.38618 11.317 20
254 1 4.91703 -18.324 2.0231 10
255 1 11.0302 -0.716053 -2.65496 19
256 1 2.49823 6.80864 6.94941 20
257 1 -9.05269 6.00638 5.10992 19
258 1 -9.85068 -6.70898 -4.73324 19
259 1 7.46496 5.43207 -13.0503 16
260 1 2.91552 -2.90282 10.7976 20
261 1 8.47113 10.627 -9.70647 14
262 1 2.62808 -10.6748 -4.37519 21
263 1 -2.27115 -0.370749 -11.472 16
264 1 0.552103 -18.0834 5.35047 9
265 1 7.96621 -1.48988 -7.79748 22
266 1 -13.0098 -4.86585 4.33195 21
267 1 5.06134 -15.5706 -0.33961 19
268 1 -8.62416 -4.7056 -8.73611 21
269 1 4.12333 15.2324 -0.767117 20
270 1 1.93986 -2.17645 -14.3873 22
271 1 5.0462 3.75525 16.1808 21
272 1 13.0018 2.2541 1.6145 19
273 1 -3.85057 -7.10945 -1.70721 20
274 1 11.0729 -6.34124 -11.2794 19
275 1 -2.48789 -7.31394 1.61706 23
276 1 -7.36964 -2.74375 -11.0264 20
277 1 -10.3051 1.1696 -9.35063 19
278 1 -8.23088 -15.884 10.1317 12
279 1 11.358 1.33775 11.1633 19
280 1 4.87644 -1.95003 8.14311 20
281 1 -4.20432 -7.87582 -11.4254 19
282 1 1.66305 -6.35285 6.12444 22
283 1 -0.148282 7.48528 -13.9617 18
284 1 5.51839 9.61317 0.724062 19
285 1 -8.12658 -7.4253 4.3727 22
286 1 0.284339 12.907 2.65304 18
287 1 -8.45623 -3.35791 11.4941 19
288 1 -9.07746 -8.05978 -8.97985 15
289 1 -5.34605 -5.25249 -10.8088 21
290 1 -2.37017 8.21651 -15.6872 11
291 1 -5.38762 -9.2557 -6.52489 19
292 1 -3.55176 -9.70862 3.75946 21
293 1 9.29001 -4.91789 -15.239 13
294 1 14.1801 -0.933388 -8.23568 15
295 1 10.8585 6.77352 7.0944 22
296 1 -3.92761 -4.91437 -2.8571 19
297 1 -10.6118 -2.99385 9.47573 17
298 1 -4.03915 -9.78989 0.101422 22
299 1 8.3162 4.73799 16.9991 19
300 1 -7.24717 -15.5097 5.32293 21
301 1 2.22743 3.44592 -4.92535 18
302 1 -1.50818 -11.694 1.57965 22
303 1 -2.35531 15.8944 -1.52419 17
304 1 4.93994 -0.446257 -13.8285 19
305 1 -6.54403 -3.57405 -15.8678 13
306 1 3.44 -6.66825 3.27953 22
307 1 -11.24 -8.24154 12.5406 11
308 1 4.87609 8.06167 20.3319 9
309 1 1.42688 -11.2853 -0.619271 22
310 1 -2.88585 -13.402 -9.96862 16
311 1 -9.42832 4.69197 -8.99501 23
312 1 8.5284 7.86888 4.89798 25
313 1 -7.15236 2.72285 -10.9827 21
314 1 -1.01176 7.69355 -10.7109 22
315 1 -3.84195 -3.65373 7.33145 20
316 1 4.18782 -13.4599 -8.65327 16
317 1 -5.71789 15.6997 -0.896851 15
318 1 2.81852 9.69906 5.45184 20
319 1 9.40545 2.33769 3.30641 20
320 1 -9.17924 -0.180898 6.94241 16
321 1 -4.10484 -7.41069 13.0473 10
322 1 -5.24403 11.1646 4.33694 24
323 1 3.86697 -3.5953 -12.6445 20
324 1 13.5329 10.3002 -2.8411 16
325 1 3.67281 -10.8093 1.02655 23
326 1 -2.67298 -0.85453 15.3649 14
327 1 -15.4638 -4.17028 6.58295 15
328 1 0.739358 -13.069 -3.75886 19
329 1 -7.76377 7.06101 14.1473 15
330 1 -10.4448 5.90452 13.9739 16
331 1 -14.2312 -3.37859 9.52902 16
332 1 -14.7536 -6.80186 8.08347 14
333 1 13.0368 -3.28332 -3.10039 21
334 1 -12.645 -9.04397 9.85863 16
335 1 9.26942 -3.54288 -9.80541 20
336 1 9.73177 -12.5661 -5.43359 16
337 1 2.31331 17.6897 -1.77814 12
338 1 -3.0334 -1.13895 5.69143 20
339 1 -9.25927 14.0055 -3.11018 13
340 1 -0.596077 1.2513 7.74753 20
341 1 10.784 6.11754 11.3241 17
342 1 -8.33503 -1.83478 4.79089 18
343 1 9.36787 -9.97204 -2.83055 22
344 1 -3.00093 10.4213 1.91143 20
345 1 -5.02582 8.20173 2.3995 22
346 1 5.40013 -10.7629 8.04942 15
347 1 14.1915 -2.28838 4.74716 10
348 1 -3.39532 6.06882 10.1206 19
349 1 -6.08567 -3.28094 -5.21514 21
350 1 -0.290337 2.07916 15.9032 14
351 1 -2.57902 12.7139 3.96861 16
352 1 9.7801 7.57026 16.5931 16
353 1 -7.93711 13.7589 -5.96453 13
354 1 0.0193128 -5.78928 -17.8974 13
355 1 -7.02168 2.63579 -5.55431 22
356 1 7.08752 -10.8613 -14.2354 11
357 1 -10.0086 1.7403 13.8369 23
358 1 -14.3543 2.27057 2.28939 15
359 1 -2.58097 -2.7451 -7.11899 22
360 1 -5.13998 9.8207 -0.694088 18
361 1 9.883 -0.849156 9.05376 18
362 1 -10.9027 -12.0771 1.74902 12
363 1 8.0991 -8.75467 9.11628 7
364 1 -8.14521 -9.89016 12.7431 13
365 1 -13.0268 8.08082 0.532914 17
366 1 -0.25719 -3.88974 10.0913 20
367 1 4.77642 -12.3786 -5.91946 22
368 1 -4.10079 -0.793818 -9.28771 22
369 1 10.1909 -2.47027 -16.0946 10
370 1 6.36955 13.2274 5.07757 20
371 1 -11.4619 -1.0012 -3.36923 18
372 1 4.6207 -9.67372 -12.3364 21
373 1 11.6661 2.2057 -12.8163 9
374 1 -3.97108 -13.8252 -6.73476 14
375 1 -13.6104 -7.03455 -5.42609 11
376 1 -1.01799 -9.18991 -1.36609 23
377 1 11.8833 5.10837 16.6938 13
378 1 12.5243 2.49213 -1.30836 17
379 1 -11.2016 3.55732 -11.0289 20
380 1 3.99511 17.5189 1.35191 14
381 1 -13.9871 -0.332085 -6.22073 13
382 1 -8.24751 8.85405 6.42838 20
383 1 -7.17736 11.386 2.06992 20
384 1 -6.07203 8.02414 9.16693 23
385 1 10.868 3.82376 14.0556 20
386 1 11.1765 -2.54497 -5.47378 15
387 1 10.2935 -3.5099 15.6312 10
388 1 12.8604 1.32385 -3.79882 16
389 1 -5.11027 -15.8825 -2.75861 11
390 1 3.40467 3.81623 5.07095 21
391 1 -4.84028 7.19018 -1.8191 18
392 1 1.5807 -7.4317 -5.009 24
393 1 -0.0158353 10.7375 4.59934 21
394 1 -9.88197 1.63517 -5.71709 18
395 1 6.28992 -11.5884 -0.577741 18
396 1 12.7283 1.11475 8.66822 20
397 1 -9.3279 -3.34551 -6.17823 16
398 1 -6.92609 -10.4781 3.76488 21
399 1 -8.0055 -6.68195 13.3176 15
400 1 -2.67112 10.3273 -2.48422 19
401 1 -11.0949 -9.6075 -3.2707 14
402 1 7.70551 10.5331 16.4816 14
403 1 -8.61614 6.03661 -2.70234 20
404 1 -0.221927 12.1221 -10.4677 17
405 1 4.6807 11.8393 7.15408 21
406 1 -13.5451 -7.70421 -2.02452 12
407 1 -0.352057 -9.09146 -7.41786 21
408 1 -11.6073 1.61479 7.83235 16
409 1 -11.6657 6.28681 -3.93547 20
410 1 4.20795 -8.28 6.18621 21
411 1 -5.337 -12.364 -1.30886 21
412 1 12.1063 9.95908 8.24648 14
413 1 6.05578 8.28016 -13.6768 14
414 1 -12.7651 5.3406 -13.0777 10
415 1 -1.48162 15.3351 -9.7368 13
416 1 -9.30552 5.00295 -5.76382 24
417 1 -1.93123 -13.0193 4.666 24
418 1 13.7637 6.1859 5.25573 20
419 1 0.912769 9.91722 -15.9236 11
420 1 -3.60638 1.34353 7.20119 22
421 1 -16.0283 1.5889 0.0529609 11
422 1 -7.96078 6.06805 7.72808 19
423 1 -4.24173 -15.0057 5.60738 19
424 1 2.04781 -4.26978 -6.38497 23
425 1 7.21498 -7.19549 -7.19713 21
426 1 -0.68346 -1.93461 7.08378 18
427 1 -11.8529 0.819179 5.36701 17
428 1 -14.0162 -1.08385 11.3521 16
429 1 -13.4511 6.5507 5.9727 12
430 1 -1.39016 -5.50919 7.55527 20
431 1 -8.36515 1.90584 -17.1379 12
432 1 7.48041 -10.1474 -5.83848 22
433 1 1.43613 -10.207 -12.8114 21
434 1 -4.89414 -2.85346 10.4173 21
435 1 4.77456 -6.56309 -3.08776 21
436 1 -5.1126 2.61537 -16.0497 17
437 1 7.22225 -11.3901 2.45866 21
438 1 3.2192 10.7187 -5.87091 19
439 1 -10.8539 9.0386 5.83569 16
440 1 -5.50131 -2.7423 16.4616 7
441 1 -10.517 -6.0963 -10.9638 14
442 1 -8.13405 -6.70905 7.11454 19
443 1 9.8313 -4.56207 8.90815 15
444 1 8.20895 3.86934 -4.96846 17
445 1 -4.93787 3.34338 4.91436 18
446 1 2.95169 -0.853011 -8.50917 20
447 1 10.1292 -5.64384 6.23448 13
448 1 14.0876 7.75185 -4.49574 14
449 1 -2.5272 4.06962 12.8497 16
450 1 1.79851 12.6344 0.146302 24
451 1 6.39103 -6.86001 4.72142 21
452 1 -3.25266 -13.0602 -3.36243 20
453 1 -4.04714 4.99625 17.845 11
454 1 -2.69348 15.5303 6.77657 14
455 1 -8.33364 -10.2706 -6.98058 15
456 1 8.87415 15.0051 1.07246 16
457 1 4.83214 6.6123 9.85807 21
458 1 -7.68202 2.04775 11.7201 22
459 1 -3.05825 -7.6549 -5.02368 20
460 1 -9.70993 3.99189 11.6759 19
461 1 -7.18885 -6.31472 -6.15354 20
462 1 -5.99074 11.0316 7.80794 20
463 1 -3.21928 -11.0642 -6.01222 21
464 1 -2.69767 -7.95425 -13.7593 17
465 1 -7.79376 -13.5824 2.90443 20
466 1 -5.42308 -2.34653 4.37873 22
467 1 9.8494 2.06566 6.68357 19
468 1 -5.67103 -4.58819 12.8623 18
469 1 -8.93892 5.05591 -12.4865 22
470 1 8.49432 4.40922 0.103681 19
471 1 -7.54261 -14.0107 -2.32962 16
472 1 0.971596 4.47013 -8.66079 23
473 1 -0.249356 17.3901 2.70116 12
474 1 -1.52536 5.4114 -8.9814 23
475 1 -2.06184 8.78501 11.6578 20
476 1 -14.2104 -2.70959 -2.59927 14
477 1 -0.682489 17.751 -3.4195 11
478 1 5.34842 11.9291 -6.20602 20
479 1 -5.32696 -6.28082 -8.15515 15
480 1 4.11324 1.85791 18.2281 11
481 1 0.839148 -13.9548 -8.76901 17
482 1 0.347674 -3.33461 -11.5888 19
483 1 9.40275 -14.256 2.88077 13
484 1 -9.90893 9.00131 0.951546 19
485 1 2.96791 5.6202 14.6187 20
486 1 8.57084 8.15821 -3.45162 20
487 1 2.72118 9.84985 -0.573214 21
488 1 -8.60096 7.48196 -11.0507 16
489 1 3.63406 2.96206 -8.84024 23
490 1 -0.384613 -6.75386 3.38445 21
491 1 -15.3695 -4.39373 -0.294476 11
492 1 3.53056 17.3011 7.46441 9
493 1 -4.39482 3.51616 -12.9674 18
494 1 9.76207 7.17549 -0.518763 18
495 1 6.95003 14.5196 -8.00259 9
496 1 8.06628 -9.28847 -0.272487 21
497 1 15.3906 1.80496 -1.96871 11
498 1 -0.146157 0.831136 -13.6081 18
499 1 0.57712 -9.16802 1.28386 20
500 1 1.65833 -13.2765 5.14823 20
501 1 3.15809 -8.37193 8.88825 16
502 1 -7.89557 2.07294 -7.95652 21
503 1 -11.9926 -13.5112 6.17396 13
504 1 -0.497408 -11.0533 -10.0294 19
505 1 9.23502 14.2014 6.48568 17
506 1 2.72478 1.34249 -14.0525 19
507 1 5.07014 -0.428818 16.4695 14
508 1 -14.7111 1.95072 13.3943 12
509 1 -0.727253 -16.5031 0.725923 15
510 1 -12.8868 -3.12394 1.41257 16
511 1 15.6163 -5.34996 -6.53451 14
512 1 8.35038 -0.90475 -0.99965 18
513 1 -2.89606 5.91167 -4.18151 21
514 1 4.79507 -8.84232 -5.76095 20
515 1 4.25015 4.31539 -11.738 21
516 1 10.3871 -6.1979 -7.63404 20
517 1 -6.62485 0.713971 14.6401 20
518 1 6.24262 14.507 1.68506 20
519 1 -3.27601 -3.35502 -16.0313 16
520 1 6.09225 2.27577 -17.1976 11
521 1 -8.50545 -3.54684 7.88047 21
522 1 -2.46196 15.3084 1.19774 17
523 1 -8.38632 -1.99598 -13.6874 19
524 1 -15.5373 -0.38601 2.96533 13
525 1 -1.02358 -10.5193 -13.7979 15
526 1 -4.75773 -11.4258 9.30321 19
527 1 0.751627 8.45193 -7.83974 23
528 1 16.0708 3.05507 9.47775 13
529 1 14.9781 7.76149 -1.01527 12
530 1 -8.95112 -11.626 -1.07073 15
531 1 2.2352 -8.10637 -2.13037 21
532 1 -0.301376 -2.96955 -16.7788 16
533 1 -8.17812 10.5295 10.2926 18
534 1 2.96443 -4.90394 -9.78074 20
535 1 3.61581 6.67252 0.538872 22
536 1 11.6558 -1.03624 -0.13601 21
537 1 3.80988 14.7667 -6.65521 20
538 1 2.20972 -9.51222 4.07436 21
539 1 14.8408 4.62824 -8.63904 8
540 1 4.12948 9.13248 14.8818 21
541 1 -9.13954 3.68534 8.48528 15
542 1 6.66736 9.72163 9.67314 20
543 1 10.2072 -0.426674 17.2918 12
544 1 0.484741 2.47884 -16.8101 17
545 1 -3.8328 -5.38882 -5.70047 19
546 1 0.82325 -0.579037 11.2983 21
547 1 7.95095 10.9629 7.08124 22
548 1 6.25875 6.90453 -7.79092 20
549 1 -7.19251 10.7873 -6.26118 17
550 1 -0.838581 13.342 -3.70763 18
551 1 11.8758 -4.26942 12.7004 11
552 1 12.4232 1.593 -9.99897 15
553 1 12.4459 -11.6754 -4.30812 11
554 1 11.8578 9.26712 11.4051 16
555 1 -14.4859 -6.57485 1.52896 15
556 1 -5.85429 11.7197 -12.1245 9
557 1 -1.67013 1.50789 10.7968 21
558 1 -12.3535 -0.426905 13.9707 17
559 1 -4.85222 13.5361 -9.62502 13
560 1 4.12673 -12.989 -2.02492 23
561 1 5.36662 -3.01953 -7.84221 22
562 1 -3.24862 15.7132 -4.56702 14
563 1 -8.27693 -5.03169 -13.3469 14
564 1 3.82892 -14.958 4.12354 18
565 1 -12.319 -5.34304 -0.675963 18
566 1 1.87157 12.6316 -14.0361 9
567 1 -7.60962 1.78397 -2.73155 18
568 1 -1.32708 8.72188 14.4265 17
569 1 -10.8593 -5.93335 8.68075 17
570 1 5.25896 8.78093 -2.29814 22
571 1 5.22784 -9.63035 -8.50924 25
572 1 2.69524 -6.02137 10.7456 16
573 1 6.53394 1.31582 -4.31836 19
574 1 -9.74039 5.79809 2.29121 18
575 1 5.21592 5.28427 18.8927 13
576 1 4.67463 16.1292 -3.62322 14
577 1 12.975 -5.51995 -5.41103 18
578 1 4.10635 8.54836 11.8711 20
579 1 0.406932 4.95436 -17.8279 9
580 1 -5.42939 -14.1634 10.2214 13
581 1 -1.75305 2.02471 -9.37712 20
582 1 7.59857 -0.310765 -15.8248 17
583 1 2.67294 13.7156 5.22107 21
584 1 9.64167 4.55548 -11.1929 17
585 1 -1.69041 -2.03916 -14.272 19
586 1 -3.41593 -10.1203 -3.26011 23
587 1 -10.2702 -2.9309 -11.5461 19
588 1 12.0155 5.08923 0.230169 17
589 1 13.9714 4.7183 -2.67851 16
590 1 7.53618 -4.1462 -5.93042 21
591 1 14.1155 7.0359 11.4421 15
592 1 5.18945 -10.2218 -2.78434 22
593 1 3.03665 4.78914 -16.3372 14
594 1 7.13865 11.8317 1.87272 20
595 1 -6.26616 5.30413 3.14 20
596 1 9.99708 9.82433 14.0681 13
597 1 11.8238 7.74321 -3.0011 22
598 1 15.2692 -1.66082 1.72822 13
599 1 11.6686 4.00479 -8.30679 23
600 1 9.14957 2.31643 15.5002 20
601 1 15.9846 4.24407 11.848 12
602 1 1.91905 -3.79393 7.55572 20
603 1 13.0476 13.4233 -3.15753 12
604 1 5.24896 3.52029 0.193713 20
605 1 2.5202 1.66387 15.4235 18
606 1 16.8836 -2.08145 -7.05098 8
607 1 9.2654 3.35838 11.7861 21
608 1 -6.80048 0.0463305 -9.55472 19
609 1 16.0472 4.37866 0.105261 10
610 1 10.799 -3.61372 2.54488 18
611 1 -0.338138 -6.47075 -0.115096 21
612 1 -11.8804 6.7054 10.8869 13
613 1 9.41866 11.7554 11.2083 13
614 1 12.3465 1.36828 14.1398 18
615 1 3.1734 9.56789 8.84958 21
616 1 2.11652 13.5413 11.3703 12
617 1 5.1049 1.87884 8.02086 19
618 1 -2.09251 -17.1421 3.94115 11
619 1 -4.06576 8.47221 -4.61216 20
620 1 10.9901 10.2008 -7.72893 15
621 1 12.2077 -3.86442 -13.534 9
622 1 0.758662 15.8547 -0.35912 17
623 1 -0.272291 -11.8512 -6.78016 17
624 1 11.0656 -6.84915 -14.0135 11
625 1 -13.8493 3.79173 7.89011 12
626 1 -5.96328 5.58758 -12.0249 22
627 1 -5.46622 -17.7031 4.36807 9
628 1 -5.58081 -0.326643 -12.2891 19
629 1 -12.6908 1.82202 -4.59512 19
630 1 11.2662 -7.12151 3.48782 12
631 1 13.1993 11.253 3.08525 14
632 1 0.128956 -8.49866 7.28525 22
633 1 -14.9285 -0.628638 -9.52801 11
634 1 3.15531 2.6805 -18.4387 13
635 1 4.43123 -3.96565 5.20356 22
636 1 -0.0973002 5.39656 15.6724 21
637 1 5.28932 9.48241 -10.4735 20
638 1 13.8672 -1.49982 12.9633 13
639 1 8.62982 4.90729 -7.95264 18
640 1 12.34 13.8033 2.33751 11
641 1 2.58947 -11.7313 -10.2162 22
642 1 -11.4192 -3.38718 15.6233 13
643 1 12.6749 -0.110977 5.99286 17
644 1 -0.435729 11.3285 12.9034 18
645 1 5.54621 11.9309 -8.97358 16
646 1 -11.5244 9.45561 -5.07012 15
647 1 8.7248 11.3593 4.5864 20
648 1 -8.99676 -14.4671 0.41627 14
649 1 13.2362 -3.90037 0.423964 21
650 1 8.01829 15.8065 4.0425 14
651 1 -3.82191 2.93246 9.83042 19
652 1 -9.72946 -6.51792 1.21341 19
653 1 -9.30855 -1.33453 -8.74294 17
654 1 8.29484 -0.0626357 12.1782 18
655 1 -3.46783 -9.80651 11.2932 16
656 1 8.60971 5.34322 14.0466 22
657 1 -4.52239 12.9614 1.10802 19
658 1 8.48943 4.86754 3.16176 22
659 1 9.25511 -6.02425 1.4533 20
660 1 8.95493 4.66062 5.97326 19
661 1 1.97878 -0.295909 -16.5822 19
662 1 -7.612 -0.749932 9.62707 18
663 1 7.1861 -2.26745 -12.8822 17
664 1 -0.828188 -6.32112 -6.16596 20
665 1 11.7291 -11.0676 -7.65437 10
666 1 8.04373 3.96587 9.19085 18
667 1 4.76531 4.82618 7.58934 21
668 1 -9.70656 -1.11536 15.2555 16
669 1 9.61039 9.07093 8.87593 18
670 1 -0.514888 -2.97387 14.2554 11
671 1 -0.31969 5.97936 12.184 17
672 1 -0.208892 -5.03024 -14.264 22
673 1 -4.96529 2.20896 12.46 20
674 1 -1.53769 3.60415 -6.34349 21
675 1 6.89843 2.92745 14.0885 21
676 1 -9.82265 -15.1737 7.23385 19
677 1 12.7252 9.24912 0.155424 17
678 1 7.40585 -12.4776 -3.55319 20
679 1 -4.1087 5.63997 -7.04128 20
680 1 8.18659 9.60296 -0.624317 23
681 1 9.89679 13.2105 3.04978 18
682 1 5.24745 -0.357601 -18.2163 14
683 1 -2.25905 -1.5298 9.29494 24
684 1 2.51593 13.6299 -2.45282 21
685 1 10.0123 9.84193 2.40466 20
686 1 -6.41123 -9.26339 -1.59033 21
687 1 0.21003 0.19941 -18.7878 13
688 1 -9.60853 11.8894 -0.574801 19
689 1 8.51826 -7.03646 -9.77627 22
690 1 5.46165 4.68284 2.71082 22
691 1 10.1638 7.36954 -9.08817 17
692 1 9.7872 13.3937 -3.31826 16
693 1 -3.1133 6.44019 5.01481 20
694 1 -7.38157 7.1744 0.250392 21
695 1 5.4768 6.28281 -4.51361 19
696 1 12.5319 2.07109 16.541 12
697 1 11.0619 -1.35303 13.7115 19
698 1 -1.80134 -12.7499 10.596 11
699 1 -5.32576 8.73448 -13.6263 13
700 1 5.0808 11.6273 10.2784 22
701 1 7.69502 -7.49746 -15.5967 12
702 1 1.81325 2.30055 9.99046 23
703 1 5.43882 13.2274 -3.68379 18
704 1 5.99977 6.30752 5.04154 20
705 1 15.2871 -7.23419 -3.4429 12
706 1 7.58505 7.65713 18.5108 13
707 1 -12.6256 -4.43692 7.33535 19
708 1 2.34494 -14.0409 1.0062 20
709 1 -0.630996 -0.990785 -9.30514 25
710 1 -9.61219 14.3366 2.98859 11
711 1 -1.12055 6.90942 8.50208 18
712 1 7.27735 -4.38999 -2.70963 21
713 1 5.90986 9.81893 4.07003 20
714 1 -13.7623 -2.25158 4.57993 19
715 1 -0.713602 4.39217 18.7791 12
716 1 -4.8193 6.28335 -15.09 19
717 1 -7.94715 6.9855 -14.6056 11
718 1 5.48359 -13.3343 1.95384 22
719 1 8.59639 8.7758 -7.04644 18
720 1 1.54756 -4.57861 3.84162 23
721 1 -1.20401 7.26912 2.39335 21
722 1 -12.5179 4.16276 12.8024 15
723 1 6.93378 -3.12119 -15.657 19
724 1 2.37577 -12.3283 9.41039 10
725 1 2.53506 15.2815 2.20779 18
726 1 -3.26982 2.07965 16.0622 15
727 1 -7.41684 -7.49414 -11.6614 14
728 1 -3.68431 -10.6624 -11.7768 14
729 1 -5.70564 -12.2369 -8.08194 17
730 1 -0.907961 16.2205 -6.63787 13
731 1 6.57563 -4.57956 -9.71506 21
732 1 -2.79555 11.7487 7.10542 22
733 1 8.90459 -9.90165 -8.71803 17
734 1 8.02835 -16.7816 0.480415 10
735 1 4.0456 -5.43192 8.15085 16
736 1 13.5681 1.69339 -6.40522 17
737 1 1.95945 -14.1595 -6.00797 14
738 1 -12.3575 -0.92184 8.55045 20
739 1 0.903692 1.24027 -8.1294 22
740 1 -3.44678 -14.996 2.72157 17
741 1 -6.00189 -11.9715 -4.7859 23
742 1 -11.4895 1.25052 11.2036 18
743 1 -8.39194 -16.5057 2.70316 12
744 1 13.2594 5.0455 -6.22567 15
745 1 -4.8767 16.9203 4.19042 11
746 1 -5.26484 4.46087 7.62211 19
747 1 -14.7481 7.34473 2.79252 8
748 1 11.9789 -0.864957 2.94777 18
749 1 -12.326 -0.911073 -10.8465 16
750 1 0.452621 10.5384 -5.74334 20
751 1 9.18265 2.30751 -8.4953 20
752 1 6.49551 10.5874 13.2056 21
753 1 10.4794 5.09164 -2.49132 18
754 1 -14.8207 2.40154 -7.60321 12
755 1 -11.5469 -5.97483 -7.77584 18
756 1 -1.2527 6.89678 17.7589 13
757 1 5.40406 6.55198 -11.4358 20
758 1 11.348 12.3544 5.67402 18
759 1 -2.62861 -1.5971 11.9331 22
760 1 -1.65095 -15.866 -3.07959 13
761 1 -9.02185 -17.9756 7.97315 8
762 1 -3.78597 -6.15744 9.94839 23
763 1 14.7895 9.21314 9.45512 12
764 1 5.48619 -7.03931 -10.7407 21
765 1 -7.89665 9.28158 -1.80792 17
766 1 7.61546 7.71551 2.19222 18
767 1 -10.8722 -2.32129 6.07996 20
768 1 8.08896 8.09772 -11.4064 14
769 1 -1.25328 -14.2453 -5.70008 17
770 1 1.73176 -18.9783 2.01176 9
771 1 0.442839 -14.6296 -1.25305 19
772 1 6.63284 3.82623 -9.66307 18
773 1 7.03635 17.945 1.75561 10
774 1 -2.36868 -0.434102 -17.1552 13
775 1 -0.225549 0.0282005 14.0117 15
776 1 0.978424 4.3985 -14.0031 21
777 1 -10.9485 -0.149491 -14.2473 14
778 1 -8.92274 -4.03455 -3.59785 20
779 1 1.5382 15.8488 -4.68723 15
780 1 8.96441 -1.04202 1.93965 22
781 1 -2.3973 -6.40636 -16.2701 12
782 1 -6.40684 -6.66459 -0.165065 20
783 1 10.5841 6.92212 -6.00669 23
784 1 11.5287 -6.14761 -1.40263 18
785 1 -6.24365 5.36959 10.4493 21
786 1 5.3991 -8.88532 2.68866 21
787 1 14.4803 -6.98186 -0.57953 12
788 1 14.6329 -3.57954 10.786 10
789 1 0.26194 10.2512 7.86685 20
790 1 -12.4551 2.97446 15.6354 12
791 1 -7.22936 4.45031 13.4799 18
792 1 -3.11762 -13.5648 8.14354 18
793 1 7.18324 1.93714 1.74081 21
794 1 7.28135 8.05051 14.5237 17
795 1 -14.038 -0.58259 -0.349116 16
796 1 9.14572 -7.05944 -1.49399 21
797 1 -10.7179 12.4112 -6.01044 13
798 1 2.63343 9.19661 2.78536 18
799 1 2.14377 -15.5441 6.87891 12
800 1 5.15936 0.734263 13.6796 19
801 1 -0.550559 13.5658 6.02391 17
802 1 2.26562 -10.698 6.6439 21
803 1 -6.23702 -3.61443 -1.78236 22
804 1 3.66131 3.06855 12.9153 21
805 1 -15.1105 -5.15966 -3.91647 10
806 1 1.46842 10.8889 15.4413 13
807 1 4.05201 12.0908 2.73935 21
808 1 -10.7829 -10.1838 4.91106 17
809 1 -5.88741 -16.6541 8.02107 13
810 1 7.93976 -3.55192 4.06528 20
811 1 12.2819 -3.37078 7.65256 13
812 1 7.35926 6.9682 7.94142 21
813 1 -1.01138 8.26391 -4.65754 21
814 1 2.60765 -8.48147 -10.3845 20
815 1 -3.58397 0.515528 -14.3939 19
816 1 -5.29049 -1.80975 13.7125 18
817 1 -1.74257 18.1594 5.09333 8
818 1 14.829 0.627551 3.61038 14
819 1 2.33748 8.2578 -4.67643 22
820 1 -4.63351 7.91552 15.4865 11
821 1 7.73758 7.0274 11.1438 17
822 1 8.24065 -4.94937 -12.1988 17
823 1 -6.98549 -11.0644 0.726763 17
824 1 -5.12148 -0.0320708 -6.35421 22
825 1 15.4739 1.85839 7.16928 14
826 1 5.07831 -1.96774 -10.523 21
827 1 1.29853 7.46783 16.3025 17
828 1 7.22639 -12.3498 -7.89098 15
829 1 5.7184 5.50099 -15.7842 13
830 1 -0.195676 -6.60982 -3.13286 21
831 1 12.026 5.09581 -10.8566 13
832 1 15.8404 -4.32571 -0.921237 12
833 1 0.660611 -5.48085 12.652 12
834 1 -0.829102 -8.15412 -11.2567 23
835 1 8.12231 12.4181 -0.930251 21
836 1 -1.91404 -3.91608 4.8212 22
837 1 -12.3779 5.05581 3.23678 18
838 1 10.653 3.47329 -5.35503 19
839 1 16.4512 6.29563 3.25205 10
840 1 2.86474 -5.02741 -15.8146 22
841 1 -7.42547 12.1883 5.71639 17
842 1 16.1017 8.09627 6.88076 13
843 1 11.6848 13.3528 -5.98086 10
844 1 5.33221 3.22598 -14.081 19
845 1 10.3626 -3.52809 -0.811689 23
846 1 -11.0548 1.39186 -1.57979 20
847 1 11.0541 6.74088 3.37457 21
848 1 -12.5301 -8.85916 0.261235 16
849 1 -9.23597 10.3887 -11.3793 11
850 1 5.32858 3.06327 10.8185 20
851 1 -12.0293 -1.92467 -8.18985 17
852 1 -11.5719 3.50055 5.70102 18
853 1 -4.02771 4.5666 -10.4561 18
854 1 12.7624 -8.39572 -9.31963 11
855 1 -11.123 -9.13853 -6.26429 13
856 1 12.1126 -8.0453 -3.03147 20
857 1 -14.5032 4.8895 0.770241 14
858 1 -6.4118 -6.16322 -2.99167 22
859 1 13.844 6.15501 8.84234 24
860 1 -5.41689 -8.71363 5.61261 17
861 1 10.3279 2.76554 18.9583 11
862 1 14.6402 -1.1951 8.90272 12
863 1 9.26542 -0.456607 4.6976 14
864 1 -12.1868 3.29847 0.736763 19
865 1 0.997895 10.6403 10.8788 23
866 1 3.52371 6.39733 -9.08752 19
867 1 0.473758 -7.64722 -15.1237 16
868 1 -5.56215 14.5102 6.40112 16
869 1 -11.2394 -11.237 8.08192 18
870 1 7.65107 11.246 -3.41364 22
871 1 1.31284 8.451 13.1973 24
872 1 15.6817 -3.8513 -4.28294 14
873 1 7.19852 -4.18756 7.06072 15