ITEM: TIMESTEP
31000
ITEM: NUMBER OF ATOMS
2000
ITEM: BOX BOUNDS pp pp pp
-30.0 30.0
-30.0 30.0
-30.0 30.0
ITEM: ATOMS id type x y z Coordination
1 1 -7.98936 6.5741 -14.0031 10
2 1 -2.5791 -13.2024 -10.6257 10
3 1 3.7972 15.6781 11.0859 11
4 1 7.8669 -10.3964 3.85919 11
5 1 -8.37637 8.72466 -3.70762 21
6 1 8.88223 -8.67071 -14.0705 15
7 1 -12.4668 0.137762 -12.2417 19
8 1 0.532706 -4.99181 7.63287 19
9 1 -4.7865 4.57366 -13.1415 17
10 1 -8.67569 -9.6593 -0.679683 14
11 1 17.1694 6.10855 -7.38109 16
12 1 1.77864 -9.98511 -1.05859 15
13 1 -8.5606 -8.3252 -3.1349 17
14 1 4.21569 8.27316 14.5357 12
15 1 2.10534 14.5552 -15.099 11
16 1 5.42898 1.73714 9.81028 18
17 1 -8.39965 3.51427 -13.8371 16
18 1 -10.9653 -5.07042 9.7874 8
19 1 13.8967 7.54358 6.89426 19
20 1 9.56682 7.01912 -16.8308 12
21 1 9.4379 4.23534 -16.04 15
22 1 13.6133 9.6024 9.12518 14
23 1 -12.2787 1.68142 -14.6821 14
24 1 -7.47032 10.0203 7.59777 20
25 1 12.4641 -10.8754 -0.540082 14
26 1 -0.845006 -9.00855 -14.2512 14
27 1 6.37028 -13.1148 -1.33148 16
28 1 -6.09366 -9.26449 -5.95784 19
29 1 -9.22581 -7.93559 8.85256 12
30 1 3.29781 -7.40105 -10.8814 21
31 1 9.9455 -12.316 -14.0132 10
32 1 6.03707 -0.125465 -19.2008 8
33 1 4.25763 2.28654 13.041 16
34 1 2.52597 -13.8849 4.82157 12
35 1 6.8616 -2.05905 9.89979 12
36 1 -11.3671 1.82686 -0.278902 22
37 1 -11.0712 -1.93204 10.1696 11
38 1 -1.39804 13.8433 -5.65615 22
39 1 8.88848 -14.0683 -8.51148 13
40 1 4.17573 -2.87738 -13.7947 21
41 1 0.778847 -3.07512 11.0092 22
42 1 -10.2983 6.89033 -2.57235 16
43 1 6.1728 13.5864 -14.5341 14
44 1 3.20589 16.0664 2.40111 19
45 1 -10.5656 7.26811 -8.35927 13
46 1 2.58805 15.1854 -2.92633 21
47 1 9.1296 -9.5035 -0.663238 16
48 1 15.9248 -2.29772 -7.66922 17
49 1 6.86867 -6.74578 -15.9867 10
50 1 -9.66943 9.15405 9.13494 11
51 1 -9.41439 -3.17524 -11.1839 19
52 1 -4.78947 9.88478 -8.44077 20
53 1 -4.22203 -9.22553 6.04955 17
54 1 -0.970987 14.4738 11.0427 13
55 1 -14.8305 6.60954 -3.43898 9
56 1 -5.15042 9.95869 10.3591 17
57 1 -0.606819 -11.1957 0.965794 13
58 1 13.2039 -10.5496 -8.31918 11
59 1 6.85221 14.1887 15.3678 5
60 1 -14.3432 0.0323611 -15.1458 9
61 1 -4.12995 14.661 -8.14109 12
62 1 10.2968 10.7562 4.31289 21
63 1 14.4144 -4.59944 -13.9148 14
64 1 8.36376 -8.18594 -3.1034 19
65 1 -11.7199 -1.6978 1.89321 16
66 1 8.6857 15.5433 0.494261 18
67 1 8.9667 1.93346 10.0115 19
68 1 -3.28894 -10.8832 1.82689 18
69 1 17.1159 4.14376 -0.18198 18
70 1 -0.819639 11.9007 12.6746 12
71 1 1.18613 -4.74902 -10.6088 23
72 1 -12.1626 9.7225 2.9272 14
73 1 -6.61416 10.4914 -6.25344 21
74 1 0.212624 10.8229 -10.7904 18
75 1 14.0346 16.3705 -12.4596 15
76 1 4.82805 -6.19896 6.34942 15
77 1 4.06229 16.0894 -7.01695 18
78 1 -5.69538 14.8486 -2.59626 15
79 1 -4.33355 0.0902513 10.293 19
80 1 -3.11201 12.6609 1.90494 19
81 1 -2.90911 -6.44569 7.58803 17
82 1 19.3195 -6.46703 -2.68524 10
83 1 -8.09522 4.04828 2.65394 21
84 1 -3.81062 -13.3015 -0.4429 20
85 1 12.8571 -3.1553 -11.5643 18
86 1 13.6573 0.753248 -9.19126 22
87 1 -2.757 1.57807 -19.9241 9
88 1 2.29515 13.2791 -0.364065 18
89 1 -8.96543 7.78785 -10.4999 16
90 1 4.72879 5.35647 13.1124 16
91 1 9.70922 17.7174 -8.68403 15
92 1 -11.0654 13.6127 -0.99197 14
93 1 -1.76792 -4.10657 9.09234 16
94 1 15.7901 1.90289 3.72619 20
95 1 6.52165 -8.77075 -11.1584 16
96 1 12.8138 -3.40627 8.95643 9
97 1 -6.6872 -5.11395 -2.96646 21
98 1 -7.62533 -6.67502 -5.18777 20
99 1 14.6844 -6.22634 0.920268 17
100 1 6.38668 8.43638 -16.2889 15
101 1 8.94275 14.53 -9.07548 19
102 1 -5.39462 -11.2772 8.19424 9
103 1 -8.98799 -9.84909 4.33412 15
104 1 2.03065 -12.9044 -11.0191 15
105 1 16.8516 -4.67728 -5.11613 18
106 1 1.80633 -15.7412 -0.786539 13
107 1 -5.0441 -8.47941 -3.14573 22
108 1 16.6178 11.3488 2.84125 17
109 1 15.3593 -0.748307 -10.7691 14
110 1 -12.2302 -3.74223 -0.263791 13
111 1 13.5606 12.2713 2.56582 20
112 1 17.617 9.05155 0.258573 11
113 1 -7.77051 2.60821 13.0307 10
114 1 -5.00722 8.50527 7.00863 20
115 1 0.182287 11.9815 -8.37868 22
116 1 -2.37294 -7.1869 -15.3748 16
117 1 9.31129 -14.0142 -11.3316 13
118 1 4.49134 17.0205 -12.8176 10
119 1 17.8605 -2.4608 5.03727 10
120 1 0.533957 0.872816 -20.8763 13
121 1 2.71834 13.9852 -9.37767 18
122 1 12.4525 5.07847 -10.6049 18
123 1 -8.24236 13.5786 -6.03713 14
124 1 -4.84831 13.358 -5.61353 18
125 1 12.7843 5.76114 -15.5575 11
126 1 10.4587 -7.93785 4.89864 14
127 1 -4.27599 11.1573 7.78093 19
128 1 17.5851 4.95595 -4.20945 15
129 1 9.32558 15.2552 -4.00376 22
130 1 0.826609 18.2835 -2.47037 14
131 1 10.9064 12.2307 -3.61156 21
132 1 1.0165 12.8769 -12.334 17
133 1 7.01983 18.3724 -8.52773 10
134 1 7.1018 11.4046 -17.4311 10
135 1 -9.7555 -5.98233 -1.63351 16
136 1 -9.58586 10.878 -1.16915 21
137 1 -3.26286 1.02294 -13.5853 21
138 1 4.98765 -4.52126 -16.7376 18
139 1 12.0498 16.591 4.16786 14
140 1 0.923734 16.5397 -0.106495 18
141 1 -8.47051 -3.29859 -5.75806 18
142 1 -7.36584 12.0198 -3.69913 22
143 1 19.02 -2.35833 -6.47033 10
144 1 -1.03915 6.80085 -16.0643 13
145 1 7.36332 2.47512 13.6169 12
146 1 11.4458 16.4088 -0.958602 16
147 1 0.137598 10.9001 4.77914 18
148 1 0.871684 -6.58938 -20.5563 11
149 1 -2.24517 16.6417 4.967 14
150 1 2.81643 9.9423 -13.2152 18
151 1 3.61292 -3.46863 12.4577 13
152 1 -12.8164 -1.06977 4.73389 11
153 1 4.19505 -8.32643 -14.4961 15
154 1 -4.60708 11.5909 -11.6599 15
155 1 -1.96065 -7.86487 1.69977 19
156 1 6.2885 -16.6502 -3.38948 8
157 1 -2.79983 13.2762 -14.0991 8
158 1 -12.9338 4.52074 5.66418 14
159 1 12.8659 9.56799 -8.03632 21
160 1 -6.13893 6.3783 9.96958 18
161 1 2.25927 -7.79969 7.31155 16
162 1 1.29102 18.8123 2.22276 13
163 1 2.39711 9.77116 8.09381 19
164 1 16.8328 10.3712 5.66287 14
165 1 -5.32815 14.2868 0.0166203 15
166 1 16.8537 -7.99212 -10.4919 12
167 1 -3.73087 12.9927 10.6416 13
168 1 17.3218 -1.45464 -0.445986 17
169 1 -10.9719 1.45658 5.8921 20
170 1 -5.19019 -7.54672 1.1139 24
171 1 8.44165 9.67047 7.14271 18
172 1 -10.3399 -0.780114 -5.77514 21
173 1 0.187162 -10.5004 -3.93952 19
174 1 0.502943 12.3932 1.66406 18
175 1 7.14627 15.2879 12.1649 13
176 1 -3.2987 8.64799 -10.7466 18
177 1 -10.9242 -3.34745 -8.50098 20
178 1 -9.00809 -2.88687 8.48204 20
179 1 1.79822 -8.22286 1.41561 18
180 1 5.12984 -11.677 5.92957 10
181 1 -7.88477 14.8036 4.81813 10
182 1 14.8206 -2.87851 1.7346 18
183 1 -1.66177 -3.09983 -15.9798 21
184 1 5.4232 3.78301 7.57082 22
185 1 10.8868 -13.8792 0.0691045 5
186 1 0.956554 7.20165 -13.4169 18
187 1 2.5422 -7.3097 -17.977 16
188 1 10.4668 1.3733 -15.1987 17
189 1 2.0206 9.39617 -21.3653 7
190 1 -3.52056 -0.615014 -10.4853 21
191 1 5.3816 15.7709 -10.2022 20
192 1 -8.10664 -12.0101 6.31175 10
193 1 12.562 18.0186 -7.30262 13
194 1 -5.82631 0.657802 13.8225 12
195 1 -4.08892 16.733 -4.93676 10
196 1 10.3833 4.41868 5.11571 22
197 1 0.391241 -7.35511 -12.5273 18
198 1 0.267239 11.8655 -15.0569 16
199 1 5.82646 6.51568 -10.8921 21
200 1 -5.59905 -9.43135 3.42491 20
201 1 -6.13339 4.64352 5.23298 20
202 1 -3.63501 7.49639 12.2575 11
203 1 -0.158032 -8.98816 -17.466 13
204 1 1.76607 -11.3378 2.22986 14
205 1 16.5927 -9.04741 -7.89393 15
206 1 14.2777 13.7799 6.3337 14
207 1 9.09955 14.0129 -16.0959 11
208 1 3.70442 12.2538 -3.11281 23
209 1 -11.1698 13.1157 -4.49333 11
210 1 3.74675 6.75333 7.28409 18
211 1 8.00105 -11.3455 -3.5202 16
212 1 11.8837 -2.5287 -2.81631 20
213 1 -9.97549 6.72243 2.43359 19
214 1 -8.33116 -5.20298 -8.01886 19
215 1 11.76 15.4445 -14.8762 12
216 1 5.2953 -2.35361 7.23263 17
217 1 18.1001 11.7736 -8.53109 12
218 1 0.194427 0.567876 -13.4204 22
219 1 3.75794 -12.5396 -0.242419 15
220 1 11.3142 1.98227 -10.9272 19
221 1 -8.37373 -1.94339 2.39737 19
222 1 8.40516 -9.85987 -6.09066 18
223 1 -6.52167 -0.789081 -10.9035 19
224 1 15.1355 17.6192 -9.62777 11
225 1 7.77796 2.46107 -14.6291 21
226 1 7.17708 12.4887 7.67636 22
227 1 18.4128 2.66228 -2.63935 14
228 1 13.5506 0.122265 -15.7505 11
229 1 -7.93505 -1.7013 -13.1002 19
230 1 -4.88427 -2.20449 -13.4613 17
231 1 -6.63677 -13.9387 3.62854 9
232 1 11.6734 2.08537 4.37715 21
233 1 -0.862893 -4.83418 -13.9862 18
234 1 2.90348 4.73951 -17.2082 17
235 1 5.79715 13.6949 -0.974015 21
236 1 -5.76793 -1.98136 8.93724 14
237 1 -9.15021 -6.30776 -10.801 14
238 1 -3.65597 -5.09176 -13.4499 19
239 1 4.18873 9.92786 -18.5384 14
240 1 -5.34276 -7.46565 -11.1445 17
241 1 8.46914 -0.311059 -17.1816 15
242 1 16.4416 0.0910868 -13.612 9
243 1 13.4647 6.47082 1.76677 21
244 1 -6.41958 -5.00402 7.74444 17
245 1 1.50053 -11.5018 -8.21399 15
246 1 7.44528 8.77697 13.5825 16
247 1 -0.0603591 -15.0173 2.4329 11
248 1 2.9578 -10.2664 -3.58992 19
249 1 3.55407 17.8585 -3.66453 15
250 1 14.0181 7.8562 -13.0291 15
251 1 -2.93598 -0.560478 -16.1392 14
252 1 -8.44198 -10.4325 9.27087 11
253 1 0.714988 7.55454 14.3865 10
254 1 9.81696 -6.76123 -7.69172 20
255 1 -0.761453 -11.3262 -12.073 16
256 1 -13.8299 3.79437 -12.2106 12
257 1 16.2571 5.7525 7.42019 12
258 1 -3.15687 5.00332 -11.0839 22
259 1 1.43208 9.06297 -16.8333 18
260 1 11.373 -12.3936 -10.7704 12
261 1 0.537482 15.5558 -7.64513 14
262 1 4.22581 12.6136 2.22371 21
263 1 12.125 3.54388 1.47493 21
264 1 -9.76392 1.0245 2.44137 22
265 1 2.44298 -2.03655 8.08997 21
266 1 -7.22991 12.0247 2.11068 18
267 1 4.96683 -1.64034 -16.6687 18
268 1 17.2765 6.90508 -2.4571 14
269 1 5.36243 -9.46607 -1.77223 20
270 1 -3.40409 -0.776591 13.1651 15
271 1 -11.5183 -4.21967 3.77197 11
272 1 6.52566 -16.158 2.0075 5
273 1 -9.53028 5.59635 10.693 13
274 1 -12.9097 7.41872 10.047 9
275 1 -10.6868 -5.65074 7.00364 14
276 1 -10.4425 -7.06377 4.21024 12
277 1 18.8927 -3.29953 -2.7637 12
278 1 -10.6694 -9.3998 6.55972 12
279 1 11.4428 -4.09013 -5.56752 20
280 1 19.154 -8.61997 -8.06878 10
281 1 11.7659 17.5937 -3.96879 14
282 1 -2.86136 12.2504 -8.75223 19
283 1 11.757 9.1858 6.65669 18
284 1 11.5548 -7.37414 -3.95982 20
285 1 -8.45449 9.67113 2.23514 19
286 1 9.31831 -3.84635 4.94699 20
287 1 18.9789 1.49751 5.14561 13
288 1 0.886403 2.20827 12.8364 18
289 1 -0.423361 14.1896 5.93378 19
290 1 11.7675 7.60677 10.403 15
291 1 -1.82387 17.1351 -6.77617 10
292 1 -6.98732 -2.8509 -18.378 7
293 1 6.28763 -13.9758 -13.7571 9
294 1 -9.49481 0.250268 8.29939 20
295 1 -11.9872 7.09753 5.01871 17
296 1 -3.22061 13.1093 -2.56366 20
297 1 13.0209 0.203283 1.90855 20
298 1 -6.50816 -11.8139 -2.27656 18
299 1 9.68316 -0.694764 4.79511 21
300 1 -0.506187 -9.83724 7.71448 15
301 1 -13.499 4.43025 -0.949485 19
302 1 5.5419 -13.0707 -10.9636 17
303 1 -4.83811 2.11473 -11.2333 21
304 1 8.52739 -1.29079 -13.4149 18
305 1 5.37156 15.0669 7.8113 15
306 1 -8.73724 1.98629 -5.74482 20
307 1 9.05584 -10.7492 -10.5713 15
308 1 8.97886 10.0449 -15.3096 14
309 1 4.13312 -13.8061 -8.36263 20
310 1 -12.2944 -4.08922 -6.48745 14
311 1 9.72701 7.95871 15.0001 8
312 1 14.6224 4.32341 -5.36271 19
313 1 -6.78502 4.8525 -10.994 18
314 1 4.64003 18.2319 4.08609 15
315 1 -14.3939 -2.35599 -12.6492 9
316 1 -6.58919 7.50638 1.98281 20
317 1 -6.78677 10.775 -0.786599 18
318 1 -1.81224 8.73669 8.65625 18
319 1 8.77686 7.57046 10.6406 20
320 1 14.8444 -2.74735 -4.62043 16
321 1 10.4519 -1.37685 9.98779 13
322 1 13.9692 2.63642 -14.1469 15
323 1 1.261 -14.3649 -7.64018 14
324 1 -8.3958 4.80357 -8.50685 22
325 1 7.1397 -6.68804 -5.90357 21
326 1 16.5078 0.467944 6.40209 10
327 1 -8.47654 -1.0804 -8.146 20
328 1 -9.58462 -11.3056 -3.66769 9
329 1 -0.830449 -2.9508 13.4598 11
330 1 0.283519 12.8168 -3.38812 20
331 1 -9.13325 -8.05422 -7.22577 17
332 1 10.8595 10.0573 12.5922 12
333 1 -10.1916 4.81307 -6.7063 17
334 1 2.98899 10.6326 -10.2432 18
335 1 5.82713 15.5892 1.61418 15
336 1 -11.3033 -6.31364 -8.18177 10
337 1 1.43648 -7.17571 -8.11108 23
338 1 -8.27597 4.14948 8.03571 23
339 1 -12.5015 9.42738 -3.69052 11
340 1 11.0271 -7.01537 -1.33635 18
341 1 -3.41549 -11.0569 -3.40391 19
342 1 14.9728 16.3268 4.16528 10
343 1 16.545 13.8081 -13.3309 10
344 1 -8.93622 2.45617 -16.5708 10
345 1 7.43528 14.473 -12.4298 16
346 1 -6.09928 7.18721 -8.49257 18
347 1 2.17434 -9.72309 4.91211 17
348 1 15.1036 9.26935 2.09794 18
349 1 3.59077 11.6765 -15.6382 15
350 1 -12.8921 1.54161 2.83727 15
351 1 -2.28747 -9.70566 -1.20571 20
352 1 6.06568 -5.93261 -13.6815 19
353 1 -11.8487 3.98955 2.07476 17
354 1 -12.4366 0.930618 8.67093 14
355 1 -13.1237 12.5893 1.48375 8
356 1 -0.320307 1.84884 -15.5861 14
357 1 11.1837 -6.32041 -10.634 21
358 1 -0.214005 -2.54006 -18.3612 21
359 1 -1.0289 -1.412 8.59817 21
360 1 -2.30247 4.73241 -18.955 10
361 1 5.17884 -12.1292 1.94537 13
362 1 8.69287 12.8874 -5.8136 21
363 1 -10.012 12.7382 7.74975 10
364 1 -3.00625 -2.85695 11.0173 16
365 1 -9.1899 -5.11724 -13.9039 15
366 1 -5.16498 -4.08533 4.93624 18
367 1 13.6981 1.93171 6.00089 17
368 1 10.773 -5.94325 7.92433 10
369 1 17.227 14.6775 -9.19973 14
370 1 -1.04687 1.58752 9.63693 18
371 1 5.729 15.307 -3.90597 17
372 1 1.48354 -13.6939 -4.06104 14
373 1 -6.36918 3.44361 10.6006 18
374 1 0.560935 16.0258 3.50791 17
375 1 -1.60097 -11.4731 -8.32909 17
376 1 13.1618 14.8083 -4.01395 22
377 1 6.93212 10.7561 4.86793 24
378 1 -4.72873 3.648 7.95199 21
379 1 -7.30291 6.50713 7.12495 21
380 1 -3.1126 -10.1258 -11.1025 19
381 1 -2.81368 10.3304 5.75966 20
382 1 -4.72955 -10.5997 -8.03387 18
383 1 2.12201 -10.3778 -16.0193 10
384 1 -5.27276 -9.66844 -0.357156 23
385 1 13.4788 4.86162 4.52934 22
386 1 -4.31776 -6.00902 10.1428 15
387 1 -11.1027 5.96393 -11.9846 11
388 1 12.0172 7.4101 -5.92035 21
389 1 -6.95635 -12.5656 -5.6096 11
390 1 2.73414 19.7958 -0.359894 12
391 1 3.25128 12.7781 7.16475 20
392 1 -13.4162 -0.898716 -6.82094 13
393 1 7.28331 15.5284 -6.85896 19
394 1 12.008 12.6222 -6.78294 21
395 1 -5.58766 -10.9651 -11.1593 12
396 1 10.0562 2.97881 12.2321 19
397 1 -0.147632 -14.9973 -11.4239 9
398 1 1.1941 -2.78374 -13.657 22
399 1 14.8454 -7.13879 -5.71363 18
400 1 -10.3301 12.3268 1.8766 14
401 1 5.56348 7.9472 10.7597 18
402 1 11.9357 9.21699 -3.2019 22
403 1 -8.29261 10.7969 -8.85553 14
404 1 -11.7928 -1.79056 -3.54186 17
405 1 6.7187 19.129 1.50568 12
406 1 -2.78033 7.07887 -13.6446 16
407 1 14.0172 6.15958 -3.4534 22
408 1 17.6131 16.4505 -11.7567 10
409 1 17.2841 0.400076 -8.37008 16
410 1 4.02479 1.8882 -16.6261 20
411 1 2.92135 -14.8421 1.40081 12
412 1 0.904207 -7.65457 9.97613 11
413 1 -11.9693 5.12358 -9.82198 13
414 1 -7.08528 -7.20661 5.39148 22
415 1 0.0921237 -9.32433 -10.4216 19
416 1 8.79827 13.709 5.54795 22
417 1 3.87709 6.65811 -14.5853 14
418 1 5.53087 -0.589564 13.3023 12
419 1 -11.8915 9.74926 7.07067 11
420 1 12.2579 -13.2198 -7.51196 9
421 1 -9.83787 -0.763541 -0.419859 22
422 1 15.3194 -7.59066 -13.3077 11
423 1 17.9413 -4.74473 0.130355 14
424 1 2.47577 -9.34612 -12.8721 18
425 1 7.75269 2.54584 -18.1486 12
426 1 15.8846 -4.71128 -10.6351 17
427 1 -1.57538 4.33485 12.5806 15
428 1 9.42218 19.1788 -2.04925 9
429 1 -3.10209 -1.35036 -18.8778 13
430 1 6.20164 4.54549 -19.6745 10
431 1 -6.10155 -1.27988 5.15974 19
432 1 4.06366 16.6068 -1.25406 20
433 1 -9.82298 -1.88936 -15.6709 14
434 1 -14.9951 1.18335 0.17108 10
435 1 -3.85441 -8.73581 -13.0711 13
436 1 -3.26846 -9.63232 9.13082 13
437 1 5.28265 8.33332 -13.2315 13
438 1 15.534 4.54971 2.34989 20
439 1 15.5949 3.14126 -2.66651 19
440 1 -10.9563 -10.7652 -6.88639 6
441 1 -2.93115 -7.66188 -18.764 9
442 1 -7.33288 12.2988 10.1058 9
443 1 15.7454 -4.04889 -1.68237 21
444 1 7.687 17.6634 -11.5985 14
445 1 18.0143 8.26322 -5.41 12
446 1 5.46261 9.60506 7.60059 22
447 1 -10.0018 4.85713 5.55975 23
448 1 3.66806 15.7288 5.38953 19
449 1 7.60934 0.430556 11.4947 15
450 1 2.6035 -1.31342 -18.7119 17
451 1 7.05887 0.708636 7.56788 21
452 1 5.63816 13.3733 4.47352 20
453 1 7.04504 5.64179 -13.7005 17
454 1 -8.0296 8.2748 -7.16108 21
455 1 1.99667 13.1253 -6.22115 19
456 1 13.9108 6.01609 9.62829 14
457 1 14.8141 5.09353 -13.2237 14
458 1 14.9252 -9.38837 1.48458 10
459 1 11.8311 13.4245 5.05172 23
460 1 -11.1273 -7.11734 -4.67755 12
461 1 -7.85276 9.74186 -12.21 9
462 1 -7.99645 -4.424 10.8357 9
463 1 -1.94575 13.8766 -11.1705 12
464 1 16.5425 -7.60013 -1.35299 13
465 1 6.06075 0.226881 -14.4342 23
466 1 1.065 16.9228 -5.26187 14
467 1 -7.52221 -0.536769 -16.3082 18
468 1 8.9077 -8.07472 2.49173 19
469 1 -11.8351 -4.36314 -3.21599 12
470 1 10.4334 13.3398 -12.5769 20
471 1 -0.486372 7.43682 11.1977 18
472 1 -8.73554 -3.62123 5.30578 21
473 1 3.7855 -11.8607 -13.5676 14
474 1 -1.72784 -7.09078 10.8085 14
475 1 -7.96449 8.00119 -0.531949 21
476 1 6.62939 6.92386 16.0574 8
477 1 12.3263 15.6433 -9.42634 17
478 1 10.8318 -3.06431 -8.63826 20
479 1 4.46017 14.1591 13.1062 11
480 1 -0.447777 3.87329 -21.032 10
481 1 -3.91255 -12.6362 4.40796 13
482 1 10.1167 -5.80519 -19.7246 4
483 1 8.67044 14.683 8.79037 16
484 1 17.3586 5.72911 -10.7517 11
485 1 -4.15302 -4.8091 -17.0007 16
486 1 -2.81348 -9.55598 -5.93548 20
487 1 -9.59481 0.938034 -13.6836 19
488 1 13.6742 4.11846 -0.99605 22
489 1 17.3949 2.36255 -5.40009 15
490 1 11.0062 -0.911369 -11.1424 17
491 1 16.1942 7.58196 4.19856 17
492 1 8.33944 -6.49565 -11.0734 19
493 1 7.18038 7.7305 -19.0172 10
494 1 15.1521 16.0879 -1.07165 10
495 1 13.0318 12.9243 9.2246 12
496 1 16.8621 11.07 -5.01681 14
497 1 17.9048 0.0275994 2.67463 15
498 1 15.8361 2.65505 -11.1801 15
499 1 10.2197 5.0763 9.91519 22
500 1 16.0303 11.5062 7.90809 10
501 1 18.6889 14.069 -0.730236 5
502 1 2.05444 1.4434 9.93562 20
503 1 12.879 -1.44495 -6.91067 19
504 1 10.3124 6.49499 7.36873 20
505 1 -6.73814 1.21845 -8.25895 21
506 1 18.3177 6.29958 0.678423 13
507 1 -5.4595 10.8653 4.57978 22
508 1 11.4181 15.0868 7.80574 14
509 1 14.7487 3.25234 8.78656 12
510 1 3.56498 10.7235 5.07055 22
511 1 1.3168 17.3167 5.64892 17
512 1 3.15859 -15.8969 -5.83634 12
513 1 -2.91666 10.8061 -5.72884 21
514 1 19.3357 13.3694 -11.3625 8
515 1 11.8365 -5.01952 -17.0062 12
516 1 5.69515 19.667 -1.9032 10
517 1 2.90748 -11.777 -6.42728 17
518 1 7.52645 -3.15076 -15.3509 16
519 1 -11.2369 8.31075 -0.00361322 18
520 1 -5.44628 9.09028 -13.7586 9
521 1 -2.93613 -17.2174 -2.65159 8
522 1 -1.6529 4.45444 -13.2933 21
523 1 -12.9088 -1.24118 -9.38938 14
524 1 13.1464 -6.01091 6.42447 15
525 1 14.168 12.0695 -2.96329 17
526 1 5.634 -8.44947 1.52776 18
527 1 -9.69341 -0.481072 -10.4838 21
528 1 2.72735 3.91423 -20.3492 12
529 1 0.119598 3.94047 10.002 21
530 1 5.70808 11.4331 -13.2601 12
531 1 16.9093 4.70481 4.79871 15
532 1 11.2149 6.41704 -8.50334 21
533 1 16.1964 14.1351 -3.30786 13
534 1 6.10166 -15.8355 -10.4687 10
535 1 -10.2949 2.1441 10.6356 15
536 1 15.6577 1.54986 0.00449465 19
537 1 1.23129 14.8231 12.5298 8
538 1 8.88615 16.3648 -14.4716 14
539 1 -10.7586 8.0291 -5.34059 15
540 1 13.9379 10.3362 -0.313799 19
541 1 -3.75698 -13.4647 -6.49389 11
542 1 11.4706 -5.12693 3.60618 18
543 1 9.77568 17.9573 2.29952 13
544 1 0.831753 6.50044 8.29425 20
545 1 -8.79189 -3.43772 -0.538552 18
546 1 -8.11051 2.01578 -10.7042 20
547 1 8.43848 3.76482 7.05368 18
548 1 -2.14887 -12.5413 7.41331 12
549 1 7.05991 10.0863 10.1684 19
550 1 -0.772802 15.9732 -3.73541 18
551 1 2.47733 -4.6342 -18.973 20
552 1 -8.07742 1.79093 5.03946 20
553 1 14.8713 6.98742 -10.0938 22
554 1 13.9844 -6.44126 -16.4894 11
555 1 8.76793 7.44892 4.73655 22
556 1 -10.6605 6.85274 7.71908 20
557 1 9.34807 16.9053 5.7143 15
558 1 4.16803 -1.43952 10.4679 19
559 1 -3.89063 2.4801 11.531 18
560 1 -2.03171 -4.33859 -19.6263 14
561 1 -3.19412 1.99938 15.3142 10
562 1 6.63355 5.12622 10.317 19
563 1 -3.05964 -13.896 2.03295 16
564 1 15.4313 8.94765 -3.09768 17
565 1 5.51409 -9.54258 -5.40597 22
566 1 7.14855 12.4391 -3.13325 21
567 1 15.0915 17.5299 -4.86389 8
568 1 1.24301 -2.72071 -21.6409 12
569 1 9.44985 18.6695 -5.91444 14
570 1 15.3498 13.5443 -0.0042122 18
571 1 -3.44782 -6.84299 -5.97067 25
572 1 -4.69407 1.79254 -17.5526 13
573 1 -9.30191 15.4438 -3.41916 11
574 1 10.7004 -4.14455 -13.3594 18
575 1 14.5602 10.6932 -14.1089 14
576 1 15.9917 9.29088 -7.8555 20
577 1 10.9543 5.89026 12.9976 17
578 1 12.6466 3.71892 11.5967 12
579 1 -0.352445 -12.3512 4.52939 19
580 1 -1.98484 10.1928 -13.4722 16
581 1 3.77652 17.6712 8.03684 9
582 1 7.17417 -11.242 -13.2612 17
583 1 11.1583 8.27545 -10.9179 17
584 1 10.4651 12.639 1.55367 20
585 1 17.3939 -5.64951 -8.28004 17
586 1 10.7753 3.89306 15.0069 8
587 1 -11.4753 -1.8974 7.04489 15
588 1 9.2522 -14.0044 -5.40625 9
589 1 -8.18621 13.7608 -0.626019 14
590 1 9.18156 13.1819 -1.1284 18
591 1 -13.0419 -1.13663 -1.15263 12
592 1 -4.75627 3.8615 14.1057 11
593 1 0.41934 6.81444 -19.2538 16
594 1 -0.714051 9.36802 -19.1543 7
595 1 7.97414 -15.4788 -1.08404 12
596 1 9.11616 5.78775 -10.7191 18
597 1 -9.48868 11.3113 5.0651 19
598 1 -0.219037 -6.15367 -17.4054 20
599 1 3.00471 -4.85323 8.86441 16
600 1 7.35576 16.8656 -2.31281 15
601 1 0.0631451 0.819886 15.5298 9
602 1 -11.87 -4.35605 -11.4643 14
603 1 -6.90015 -3.68944 -15.633 16
604 1 -1.26051 -13.0785 -5.42302 14
605 1 3.57001 17.4759 -9.64822 12
606 1 -2.91896 13.3013 5.70596 18
607 1 12.5638 -6.70922 -7.25873 18
608 1 13.8516 -9.31459 -3.94134 14
609 1 5.01285 -9.32131 4.59971 16
610 1 18.3167 3.362 -9.79597 10
611 1 4.18605 -10.4336 -10.7396 20
612 1 -9.09302 -0.660255 5.4182 19
613 1 -2.39315 -14.8483 -3.38175 15
614 1 -3.69 -7.96521 -8.67015 20
615 1 -11.4729 3.59136 8.15425 18
616 1 -5.19736 -15.3887 -0.927688 12
617 1 14.1106 6.18389 -7.39364 22
618 1 -4.83589 14.4392 3.19768 19
619 1 -12.8783 11.6378 -1.57984 11
620 1 11.8387 -2.55724 2.68907 21
621 1 -11.803 -2.37776 -14.3425 13
622 1 11.048 3.99529 -13.2703 20
623 1 8.15397 12.0685 11.5255 18
624 1 -15.6853 3.16629 -15.0462 5
625 1 -1.82922 -3.3197 -10.9086 20
626 1 2.71968 7.24845 10.6342 18
627 1 11.6089 11.9685 -15.2386 14
628 1 12.6041 15.1621 1.4726 15
629 1 -1.51151 3.55029 7.3042 20
630 1 3.16215 -18.4329 -2.43987 7
631 1 -0.667601 -14.7294 6.29177 9
632 1 17.1822 14.4114 5.7298 8
633 1 5.28716 -4.81065 -10.8644 17
634 1 8.36208 9.35541 2.42617 20
635 1 -6.49652 -5.01504 2.63698 23
636 1 16.9633 10.8915 -11.3488 14
637 1 6.14406 -14.6746 -6.4539 13
638 1 4.97803 -15.9852 -0.753269 13
639 1 4.15807 -8.94217 -8.01636 19
640 1 9.93765 9.22192 -8.53269 20
641 1 15.2401 12.101 -7.47768 18
642 1 0.966407 -0.555265 -16.4295 20
643 1 1.67009 5.2462 12.8316 18
644 1 4.09671 7.14933 -19.7261 13
645 1 -7.50849 0.500503 -19.2312 8
646 1 -8.14061 -1.76898 -3.19944 20
647 1 13.4677 13.1284 -12.4991 18
648 1 3.61969 -5.15934 -22.5178 8
649 1 10.2597 10.0471 -5.93352 22
650 1 10.0874 -5.11652 1.2466 16
651 1 -1.86744 12.3515 8.72136 21
652 1 13.8435 -8.26724 -1.24283 18
653 1 13.5814 -7.55513 3.81047 13
654 1 15.6039 -2.81783 7.07162 10
655 1 1.95568 13.4378 3.73978 21
656 1 -14.4605 4.25981 9.2713 6
657 1 -5.14431 7.67086 4.36876 21
658 1 1.55226 -12.514 7.4065 14
659 1 10.5428 10.6342 9.73445 20
660 1 -12.1077 1.89913 -5.9154 16
661 1 11.3721 -9.93303 -6.36323 15
662 1 -6.46827 13.1198 -8.93399 13
663 1 11.5245 -8.96705 1.70834 14
664 1 2.42291 -0.609481 13.5465 14
665 1 1.20024 15.8913 8.48687 15
666 1 6.85024 -4.9491 2.19615 22
667 1 3.34964 4.68766 9.89363 19
668 1 -13.7484 1.8515 -2.58072 11
669 1 2.3739 10.2585 13.1179 12
670 1 9.6498 14.5617 2.99387 22
671 1 -7.50747 -10.7919 1.35881 14
672 1 -2.81906 -16.6259 0.78151 9
673 1 13.4014 -1.39969 4.66671 15
674 1 15.1932 -4.57505 3.80069 15
675 1 11.6976 7.72317 4.50465 22
676 1 6.75555 -8.07235 -8.34071 21
677 1 1.6408 3.64869 -13.6145 19
678 1 -0.541811 -0.38883 12.0181 18
679 1 -1.09858 13.5069 -0.222586 19
680 1 13.9027 -1.18449 -0.996934 17
681 1 7.48943 11.7883 -8.33684 17
682 1 -2.61559 10.2648 11.23 16
683 1 10.3753 12.0621 7.6669 21
684 1 10.7692 -1.65739 -15.0789 15
685 1 -5.28397 -13.7923 -3.54665 13
686 1 19.0638 1.17286 0.239638 13
687 1 2.95549 0.685415 -14.0857 20
688 1 3.83496 10.7733 10.4782 18
689 1 13.9241 -3.86424 -8.64694 19
690 1 12.1204 8.95412 -15.2884 12
691 1 18.2421 8.51623 -9.16698 13
692 1 15.2332 0.16857 -6.1301 19
693 1 8.8412 -2.93559 7.87217 16
694 1 -0.942634 -8.72705 -8.05007 22
695 1 14.3136 15.3316 -7.2565 17
696 1 -14.5373 4.22213 2.34513 12
697 1 11.3573 10.615 -12.5085 17
698 1 19.3272 8.9754 3.14523 8
699 1 -1.84157 -0.839599 -21.2763 12
700 1 -4.99647 16.1427 5.9613 10
701 1 17.4518 14.2969 2.34973 10
702 1 14.3236 13.5533 -9.68254 17
703 1 8.52294 1.79207 -12.0353 20
704 1 17.3822 -8.82228 -4.51596 12
705 1 -10.4351 1.1442 -2.50443 19
706 1 10.2803 9.96327 -0.582486 20
707 1 -7.56008 -10.2696 -8.2067 11
708 1 -9.66165 10.6561 -5.86881 18
709 1 7.0355 6.83374 7.48729 21
710 1 -10.5313 1.46032 -8.774 21
711 1 -8.42323 7.93221 5.3528 19
712 1 10.6197 -7.46845 -15.9755 10
713 1 -6.53511 -4.37871 -11.2815 21
714 1 19.5243 -6.0527 -6.43013 11
715 1 -16.2013 6.32039 0.130839 9
716 1 11.9798 9.53515 1.98836 21
717 1 -3.7439 -6.73373 4.57257 20
718 1 7.85696 5.19638 13.4266 18
719 1 19.2951 3.96133 6.80404 6
720 1 -10.2755 4.62557 -0.0588593 22
721 1 -2.53142 15.5259 8.49394 13
722 1 7.70254 9.28995 -10.857 13
723 1 2.05022 -3.98484 -16.194 21
724 1 -2.1655 15.4264 1.51797 15
725 1 -8.49922 -7.61732 2.11625 18
726 1 10.5209 11.3511 -9.97828 16
727 1 5.49987 13.2741 10.0911 18
728 1 13.8291 -5.40625 -3.3543 19
729 1 11.6788 -2.54939 6.48131 20
730 1 2.08357 15.9454 -12.37 12
731 1 3.82196 13.1311 -11.8716 17
732 1 -2.98806 0.806908 7.6353 18
733 1 19.2776 -2.11996 1.91306 9
734 1 -2.04115 -1.56868 -13.5417 23
735 1 13.8906 10.0348 -5.31814 19
736 1 -13.2118 2.30892 -8.95767 16
737 1 -1.8428 -9.82537 4.66815 17
738 1 10.6285 16.2379 -11.7898 16
739 1 10.4536 0.707983 7.86539 23
740 1 6.45949 -11.8004 -7.61009 18
741 1 -2.47416 15.7092 -1.56161 16
742 1 -14.3842 8.0093 -1.23889 12
743 1 12.4989 3.57113 -7.94964 20
744 1 10.5216 -8.78645 -9.13967 18
745 1 -4.99979 10.1205 1.56971 19
746 1 14.6009 9.96938 -10.9594 20
747 1 4.98223 -5.71293 -20.0923 9
748 1 -6.65837 -6.45976 -13.4809 12
749 1 -1.51192 -6.75562 -10.2539 21
750 1 -2.96776 5.17909 9.61678 18
751 1 11.1956 -8.92681 -12.3414 16
752 1 1.52706 11.8084 -17.9186 11
753 1 15.8053 3.31516 -8.27796 19
754 1 12.2209 7.34364 -0.886202 22
755 1 4.80006 -12.6841 -4.36434 17
756 1 7.45667 -5.09055 -21.8441 5
757 1 15.6276 0.0520449 -2.62961 17
758 1 6.00298 4.623 -16.2113 18
759 1 0.0641891 -7.42948 4.94952 21
760 1 11.1088 15.5356 -6.18649 21
761 1 -11.7656 4.25993 -3.73643 18
762 1 -13.4446 6.82542 1.68532 18
763 1 1.99154 3.87675 14.7642 11
764 1 -6.02578 -7.92001 8.50097 19
765 1 7.39963 12.2361 1.99114 23
766 1 0.277341 -16.8701 -3.58257 9
767 1 5.68042 13.1936 -5.66549 18
768 1 1.3039 13.113 9.17394 18
769 1 -6.39474 0.679973 7.61636 19
770 1 -7.05257 13.0213 6.19746 16
771 1 1.02879 -5.959 12.4887 9
772 1 3.44459 -7.00494 4.20797 20
773 1 11.8863 3.98597 7.263 21
774 1 8.69945 -3.72666 -11.0967 18
775 1 12.1953 -6.50374 -13.7362 16
776 1 -5.84172 2.05205 -14.8213 16
777 1 1.25117 1.95267 -18.6751 15
778 1 10.4566 13.194 11.4248 11
779 1 -7.24148 -7.6945 11.5973 9
780 1 -0.838968 7.79603 -11.0523 21
781 1 -14.5247 4.01868 -6.04054 8
782 1 12.3977 13.3668 -0.714774 17
783 1 -7.25223 -13.3259 0.0224849 9
784 1 13.688 10.6617 5.16136 22
785 1 -5.84042 -6.33028 -7.79922 17
786 1 7.38593 16.9387 3.77524 15
787 1 -7.8783 -0.238793 11.055 16
788 1 2.79126 -16.4562 -9.4004 11
789 1 18.3628 3.46887 2.7726 16
790 1 10.5504 -12.8652 -2.34301 11
791 1 5.34636 11.3423 13.9575 12
792 1 14.275 -3.05052 -16.3912 9
793 1 11.3921 -9.79478 -2.79025 20
794 1 4.62921 3.43813 -14.0143 23
795 1 -10.7315 2.48341 -11.4888 19
796 1 -3.92576 5.02 -16.1606 13
797 1 0.549874 10.2657 10.3936 18
798 1 12.1647 1.71685 9.48452 15
799 1 -7.01591 -6.51718 -0.473777 22
800 1 12.2546 -4.11943 0.0423828 19
801 1 2.2122 7.5246 -10.7266 22
802 1 15.2484 6.86442 -0.80701 23
803 1 4.34856 20.6393 1.32659 9
804 1 -10.2452 -4.68887 1.46884 16
805 1 14.1138 -7.58479 -9.61435 16
806 2 -8.16564 -1.69339 -11.2673 21
807 2 -3.083 12.737 -6.19567 21
808 2 4.20416 0.294781 -15.6208 20
809 2 -1.39631 6.89196 9.19211 16
810 2 2.18962 -4.21074 -14.3123 17
811 2 -1.947 -3.67805 -8.84222 21
812 2 4.64367 3.33514 9.77926 20
813 2 2.94791 1.10008 13.0284 18
814 2 -10.6097 -11.0296 -5.13566 10
815 2 -14.8901 5.37063 -4.78403 7
816 2 2.6093 20.127 1.69227 10
817 2 -9.54559 1.28956 -0.642426 19
818 2 8.44175 18.0427 -9.96584 14
819 2 12.0501 7.51696 1.97479 19
820 2 10.7776 17.4637 -6.92519 17
821 2 15.6848 15.4704 -12.7497 14
822 2 -15.0135 -1.02479 -13.8217 9
823 2 -9.61891 -3.2663 -14.3032 16
824 2 7.08715 6.94124 9.88816 19
825 2 10.2897 -0.25971 -16.2079 14
826 2 6.073 -11.7349 -2.85235 16
827 2 -6.01409 11.7062 -5.12688 18
828 2 -12.5805 4.8504 -11.6908 11
829 2 17.4503 4.62627 -2.09618 19
830 2 15.0729 -8.07345 -11.2869 12
831 2 -9.39648 -9.91389 -7.61567 10
832 2 -10.7259 -6.16197 -3.13574 13
833 2 1.30112 -10.9802 0.325188 12
834 2 13.2623 -5.6984 4.37964 16
835 2 4.31904 -15.6381 -10.1422 13
836 2 3.89557 -1.73744 12.7441 13
837 2 3.63687 11.5232 -13.3714 20
838 2 9.40184 -14.4376 -0.85345 8
839 2 -9.63152 -6.71636 -8.9581 15
840 2 3.13449 4.01984 13.2248 16
841 2 -8.45281 9.76802 0.056566 23
842 2 5.04578 6.58516 14.865 11
843 2 -4.91463 9.39646 -5.9981 21
844 2 4.67033 -9.04824 -3.64002 19
845 2 1.40901 13.8869 -8.07076 14
846 2 13.4854 16.1049 2.94964 12
847 2 11.3753 15.5184 -4.13813 18
848 2 11.0594 2.90498 -8.92022 22
849 2 -5.06074 7.01668 11.1618 12
850 2 6.74248 4.08342 -17.9185 16
851 2 -3.68636 8.98148 -13.1285 13
852 2 13.8826 10.1186 -3.21452 20
853 2 -2.02975 -1.80031 12.402 15
854 2 -12.827 13.215 -0.46252 9
855 2 18.1491 4.9226 -8.57291 11
856 2 -5.40288 -7.67121 10.5692 12
857 2 7.36932 -10.2593 -11.5715 17
858 2 -0.419407 -3.99154 -17.0799 20
859 2 -12.1928 -3.06422 -2.20433 14
860 2 11.0248 15.8617 2.35718 18
861 2 -3.14499 10.5556 1.41056 20
862 2 -6.69688 -10.9933 -9.71356 8
863 2 -0.405599 16.0399 5.21979 18
864 2 6.43417 -1.00939 11.4957 13
865 2 2.28022 -2.85664 9.82369 17
866 2 17.4909 4.76198 1.68488 18
867 2 10.4439 15.9332 -10.0699 17
868 2 -13.2374 3.43759 -7.34688 14
869 2 18.1487 14.1856 4.05207 8
870 2 14.0786 -5.8132 -8.56581 17
871 2 13.2838 -10.0182 -2.06984 16
872 2 -5.1526 12.1044 10.4304 13
873 2 9.86367 -6.92885 -3.16392 19
874 2 9.90838 -6.52046 2.52427 18
875 2 17.0823 9.74159 1.77873 16
876 2 0.283164 3.72605 12.1113 20