ITEM: TIMESTEP
32000
ITEM: NUMBER OF ATOMS
1500
ITEM: BOX BOUNDS pp pp pp
-30.0 30.0
-30.0 30.0
-30.0 30.0
ITEM: ATOMS id type x y z Coordination
1 1 -11.2897 -13.701 -19.5025 11
2 1 0.815198 -13.5978 -3.40293 20
3 1 -11.9177 -3.70875 -11.1339 19
4 1 -6.07885 1.50047 -16.8507 21
5 1 -0.662023 -13.4382 1.38749 16
6 1 -6.32296 -6.0528 -19.8613 22
7 1 -4.66259 -17.6041 -12.6968 21
8 1 -12.547 -11.406 1.37788 12
9 1 -2.19142 -5.04228 4.19063 15
10 1 -0.633884 -1.97235 0.0178342 21
11 1 11.0016 2.22071 -16.3289 18
12 1 0.162453 -10.4558 0.824838 17
13 1 8.06173 -1.08387 -6.87939 20
14 1 -0.773601 4.52367 -21.1692 12
15 1 5.94966 -0.744315 -25.1954 11
16 1 -3.01783 -10.3999 -17.7828 19
17 1 7.2734 -15.4037 -16.1846 19
18 1 7.19427 -11.5898 -5.8394 17
19 1 -2.28801 -19.1421 -17.2233 12
20 1 -1.27894 -12.9311 -23.5993 12
21 1 0.0490471 -2.41786 3.89292 14
22 1 0.0554751 -16.7215 1.46247 15
23 1 4.77982 -12.2674 -3.49621 21
24 1 -9.31153 -7.54454 -0.824917 20
25 1 -8.12478 -4.33364 -10.3812 16
26 1 1.68606 3.14316 -17.8348 17
27 1 -3.05625 -5.82338 -19.6123 17
28 1 3.95414 -16.0837 -23.2913 6
29 1 -8.07288 -12.7453 3.34662 13
30 1 -13.2885 2.58959 -6.27893 20
31 1 -2.5653 5.65918 -1.10168 13
32 1 -7.07359 3.41592 -11.0451 19
33 1 0.0740411 8.93747 -15.3274 18
34 1 3.10213 -17.624 -7.43545 13
35 1 8.26059 -16.1953 -18.7663 17
36 1 -12.3697 -5.61964 3.63293 13
37 1 -14.2681 -11.4545 -12.3311 17
38 1 4.27003 -8.0396 -3.49129 22
39 1 -10.9971 -0.203132 -16.4625 16
40 1 -8.73575 -15.6059 -0.93438 17
41 1 -11.4839 -5.9968 -18.8792 14
42 1 1.51495 -2.29775 -2.97129 18
43 1 1.65595 -20.5463 -12.9102 23
44 1 3.08859 -3.29347 3.36968 15
45 1 12.6401 -12.6072 -15.8376 12
46 1 9.42168 -12.4141 -11.365 15
47 1 6.78933 -11.3059 3.72838 11
48 1 -5.2264 -18.3568 -4.38871 17
49 1 -13.5139 -5.77903 -9.27523 19
50 1 12.7225 -3.17079 -3.77334 12
51 1 9.97914 -3.83004 -16.4608 18
52 1 -1.11089 3.45449 1.14157 10
53 1 2.54022 -5.69086 1.9589 19
54 1 -5.71994 -11.2126 -17.0199 20
55 1 -9.71763 4.60025 -11.3389 13
56 1 2.77847 -0.328833 -23.0228 14
57 1 3.02067 -9.71521 -18.9109 16
58 1 0.44349 -18.5486 -10.9716 22
59 1 3.57809 -11.7131 1.49754 18
60 1 -4.58493 4.61384 -21.8849 9
61 1 -4.50892 3.41298 -11.0863 18
62 1 -8.92414 6.07909 -6.8483 14
63 1 -5.55789 -10.4726 -0.175676 21
64 1 7.29022 -18.5118 -16.4547 15
65 1 -16.2866 2.19971 -5.54736 9
66 1 8.82702 -19.6205 -13.6632 9
67 1 17.2986 -9.04749 -12.942 7
68 1 -10.805 -10.842 -21.022 12
69 1 0.0222027 7.17605 -19.0418 12
70 1 -6.19164 -1.97608 -17.7046 21
71 1 -6.91549 7.24137 -21.63 5
72 1 -4.02992 0.0171672 -10.7559 18
73 1 -3.47996 -16.0673 -8.7288 20
74 1 1.88719 -11.7949 -21.1603 18
75 1 4.95245 -9.4573 -21.1421 18
76 1 -8.89547 -1.52769 -4.41142 17
77 1 -10.8787 -12.6437 -9.52202 18
78 1 -11.7683 -16.8605 -5.77755 11
79 1 11.1717 -14.0766 -8.94319 8
80 1 -7.48339 2.6309 -8.26561 18
81 1 14.5696 3.80166 -14.9618 9
82 1 -1.60422 4.89635 -18.2954 19
83 1 13.8804 -8.36721 -12.4725 15
84 1 -2.07119 -18.3933 -4.9932 18
85 1 -11.4571 -13.3943 -12.7397 17
86 1 -13.5873 -8.66177 -0.766502 14
87 1 7.51638 6.37449 -5.28799 11
88 1 -12.2679 3.85116 0.0864664 7
89 1 -1.60972 5.98877 -15.1045 18
90 1 -2.16636 -8.50938 -19.404 18
91 1 6.27422 -14.3244 -1.44502 14
92 1 -1.64508 2.7064 -16.5304 20
93 1 10.7842 -0.157958 -18.8627 16
94 1 -10.3338 -5.07484 -16.0414 17
95 1 -15.1402 3.59542 -13.8392 9
96 1 13.2273 -6.7938 -20.7846 11
97 1 8.32208 -13.0947 -8.8001 15
98 1 -13.7386 -2.3131 -13.6604 14
99 1 1.59606 1.90998 -9.93608 15
100 1 6.06844 5.96243 -10.5983 19
101 1 -6.68924 -1.877 -12.4098 16
102 1 -5.93552 -4.91459 -24.3993 15
103 1 -3.64494 6.46535 -6.92886 17
104 1 -17.0172 -12.359 -7.37231 12
105 1 18.2282 -3.29768 -11.1193 8
106 1 -5.54757 1.14115 -2.26628 17
107 1 -1.97089 10.1282 -18.7748 10
108 1 2.35549 -10.9505 4.46488 14
109 1 -13.9168 -8.79237 -7.23422 22
110 1 -3.36577 -19.4119 -2.31738 11
111 1 1.6491 -14.1543 -15.6118 19
112 1 10.7176 1.59163 -24.0751 7
113 1 9.38784 4.11166 -13.9291 19
114 1 -0.905559 -18.6342 -1.61038 14
115 1 -11.5583 -5.78171 -5.89345 20
116 1 -7.3919 8.10003 -2.93409 7
117 1 5.11561 -2.04489 0.989758 14
118 1 -8.37551 6.51644 -9.29186 13
119 1 -7.96114 -0.849914 -15.1636 17
120 1 18.4009 -7.59507 -7.08507 7
121 1 -10.2005 -11.9258 -4.1559 19
122 1 -15.3585 -3.42055 -6.02855 12
123 1 -4.44404 -21.514 -7.44404 13
124 1 -14.3139 -5.69231 -12.233 17
125 1 1.56889 -23.3016 -14.8794 11
126 1 9.68303 -17.0203 -15.7672 13
127 1 -3.39686 3.49354 -6.33364 21
128 1 -6.21095 -8.24821 -15.229 18
129 1 -7.56842 5.92762 -16.9206 11
130 1 -16.3224 -13.384 -10.3759 11
131 1 -12.1377 -16.1906 0.1385 8
132 1 3.05807 -13.9549 -5.48452 19
133 1 5.96832 -14.1939 -5.91425 18
134 1 13.58 0.439846 -7.68173 13
135 1 5.46696 0.795907 -15.6872 17
136 1 4.68212 -9.83291 6.10093 7
137 1 4.43183 -3.3995 -23.1335 19
138 1 13.0924 -10.0728 -21.2511 10
139 1 -14.4079 -8.47865 -13.7175 19
140 1 -3.37029 2.83277 -19.3273 22
141 1 -4.83073 6.78772 -14.7962 16
142 1 8.1184 -6.86744 -0.614943 14
143 1 1.54196 -13.9448 -23.8259 12
144 1 -5.25851 0.641687 -19.6611 19
145 1 4.85796 -2.04376 -19.9374 16
146 1 -8.85496 -4.56017 2.75929 17
147 1 -6.03482 -5.26974 -0.259383 20
148 1 5.36795 -13.7811 -18.7125 21
149 1 -3.2129 -18.6561 -7.67159 18
150 1 2.48152 -20.1965 -9.14528 18
151 1 6.92848 2.50317 -21.2928 18
152 1 1.32898 10.1661 -12.6621 12
153 1 -14.5932 -2.79453 -8.80645 12
154 1 1.14979 0.231161 -1.21493 16
155 1 13.6899 -6.58827 -17.4558 14
156 1 -3.20005 0.532042 -5.2602 21
157 1 -11.6615 -2.31477 -5.98904 23
158 1 -15.522 -8.47243 -10.7382 15
159 1 6.12141 -5.18017 -20.5483 21
160 1 -0.384462 -8.28957 -0.858644 20
161 1 8.5736 -0.42364 -21.3312 20
162 1 -1.71892 -16.0982 -11.6341 20
163 1 -8.52897 0.439462 -18.5621 16
164 1 11.8258 -4.28897 -14.9885 21
165 1 -6.98124 -12.606 -4.28892 16
166 1 0.946173 -20.4399 -15.7977 15
167 1 -11.3156 -16.2157 -11.0161 18
168 1 7.43135 8.57421 -11.8283 15
169 1 -0.383163 -5.32151 -20.9093 16
170 1 3.39612 -8.59726 0.838686 21
171 1 15.7753 -1.00663 -11.0289 15
172 1 7.94661 -16.6601 -13.5599 16
173 1 -7.01698 -13.3845 -23.3995 8
174 1 -8.21563 -16.5283 -15.3497 15
175 1 -0.518925 -5.27331 -0.616825 19
176 1 2.64449 -15.0872 0.935874 12
177 1 -5.29882 -9.69052 -20.3896 19
178 1 -0.335631 -10.6834 -3.07382 20
179 1 5.77198 -0.325727 -21.9596 22
180 1 3.70309 1.11166 -12.588 18
181 1 -4.22162 -15.1016 -5.52536 22
182 1 4.70408 10.9913 -12.9874 10
183 1 -10.6481 -10.8224 3.79969 14
184 1 -7.04498 -19.7025 -12.2825 18
185 1 -11.1415 -6.85059 -22.4963 9
186 1 -1.74122 -18.5838 -13.5473 20
187 1 -4.34184 -20.667 -13.2158 20
188 1 7.45249 2.19799 -5.54881 20
189 1 -10.2205 -13.9075 1.02898 14
190 1 -7.73026 -23.0178 -12.0239 7
191 1 -5.7782 -21.4139 -10.4931 20
192 1 0.697181 9.84488 -9.92036 9
193 1 4.68918 -6.27079 -23.0174 18
194 1 -4.2463 -12.8183 -22.0876 13
195 1 -2.01665 -23.4637 -8.63043 11
196 1 -4.72403 -21.2795 -16.3943 13
197 1 -7.52954 -2.37662 -20.3301 18
198 1 9.13371 -1.66324 -10.4781 20
199 1 -2.09377 -9.91029 -25.8035 11
200 1 4.3645 2.04228 -23.6679 13
201 1 -7.07074 -7.67205 1.03588 20
202 1 -4.09345 9.47066 -21.7072 4
203 1 -1.30449 3.13285 -3.88314 20
204 1 9.21327 -6.18655 -6.85522 17
205 1 -14.0701 -4.86787 -3.42665 17
206 1 -2.28891 -17.9877 2.21236 10
207 1 -9.88166 3.40177 -7.00293 16
208 1 -5.2119 -10.4282 -23.9009 14
209 1 -0.729854 -15.3282 -8.98913 16
210 1 -0.0493137 -4.6007 1.95686 20
211 1 -13.0931 -11.0741 -4.98685 22
212 1 15.5788 -8.67154 -6.43337 12
213 1 6.55057 -12.0792 -22.0947 17
214 1 5.98016 -21.5802 -11.4031 8
215 1 -6.44706 6.11154 -11.4306 15
216 1 3.42092 3.18072 -0.790956 10
217 1 -10.8506 -9.27851 -6.12714 17
218 1 8.80962 -16.0486 -9.99164 13
219 1 -7.95279 4.70167 -3.03972 18
220 1 -1.80564 7.79968 -3.7429 8
221 1 6.36654 -16.7088 -7.0588 14
222 1 13.7069 -8.1167 -3.8555 11
223 1 -5.56551 -2.607 1.15584 17
224 1 -7.8718 -10.2028 -12.9025 20
225 1 1.38231 -5.54609 4.63404 15
226 1 -6.37591 6.13446 -0.528329 11
227 1 -10.1402 -7.94151 5.99099 9
228 1 -13.524 2.47016 -3.2413 11
229 1 -6.37042 -15.4752 -17.3171 18
230 1 -0.982959 7.16719 -9.71198 17
231 1 6.54761 -9.09536 -4.20622 16
232 1 -6.993 -19.8134 -8.2761 18
233 1 6.6582 -16.4021 -3.73569 13
234 1 -14.6203 4.35108 -7.99703 11
235 1 -1.37768 -13.8794 -1.56774 19
236 1 10.0474 -10.97 -21.8231 13
237 1 -8.12929 -9.98369 -18.9111 16
238 1 5.89149 -9.08941 -23.8581 14
239 1 7.91336 4.38964 -2.87822 11
240 1 -11.1351 -6.88905 -11.2696 19
241 1 6.17061 -5.79263 -25.1542 10
242 1 4.6896 -16.3089 -12.8743 16
243 1 -16.7077 -10.2138 -8.91287 13
244 1 -5.83049 -17.9568 -9.78714 21
245 1 11.4786 2.76108 -8.72903 17
246 1 -7.04439 3.64408 -19.6402 14
247 1 -12.8113 -8.746 -11.0951 19
248 1 -5.73894 0.5339 -5.80947 18
249 1 -5.98659 5.26914 -8.62847 17
250 1 -7.274 -4.55792 -3.58563 18
251 1 16.5754 1.74511 -12.6791 8
252 1 11.3728 -3.1416 -9.3746 19
253 1 -0.992513 -13.2569 -17.7193 23
254 1 -4.47037 3.96872 -3.10667 19
255 1 -12.9773 -3.40973 -17.181 13
256 1 6.1437 -12.9227 -11.8059 20
257 1 10.5099 -8.70593 -1.57253 12
258 1 -16.7654 -10.2803 -14.6336 7
259 1 -14.9092 -11.02 -2.05784 13
260 1 -1.39771 4.35841 -11.5888 18
261 1 -13.1801 -14.0415 -9.76239 21
262 1 -15.8723 -3.58265 -17.2641 5
263 1 -4.65485 5.69636 -19.1276 16
264 1 -5.55838 3.23527 -0.495381 16
265 1 -15.878 -10.2456 -5.11081 15
266 1 -0.766673 -15.9977 -15.508 21
267 1 -11.6722 -0.358934 -1.01824 13
268 1 -13.9896 1.1002 -14.5363 15
269 1 4.87307 -9.03319 -6.62648 18
270 1 -3.47754 -23.5479 -15.2396 10
271 1 8.34273 1.74924 -18.3907 20
272 1 -12.5217 0.173225 -11.8613 19
273 1 -6.31247 -17.311 -6.76017 16
274 1 10.803 -0.0358927 -7.81497 19
275 1 -4.57866 -6.73022 -3.43571 21
276 1 -15.5929 0.653029 -8.67734 14
277 1 -3.99369 -2.84652 -4.13658 21
278 1 -10.6687 -20.04 -7.54059 10
279 1 8.92486 -13.6558 -20.6192 14
280 1 -13.7561 -1.60522 -3.50118 13
281 1 2.49058 -9.98654 -1.56432 23
282 1 4.04267 -23.5902 -12.2108 13
283 1 -3.34295 -16.0033 -16.4717 19
284 1 -2.05723 -14.177 3.78431 15
285 1 7.35089 -11.8491 -13.9895 15
286 1 -2.55237 -0.45819 -20.3882 20
287 1 3.12166 -15.7932 -2.72907 17
288 1 6.51009 6.09844 -14.1865 18
289 1 -1.631 -8.0528 2.17096 20
290 1 -9.06382 -16.1259 2.16681 9
291 1 7.06277 -12.0931 0.880185 13
292 1 5.49885 0.527673 -19.0624 19
293 1 9.12061 -9.6767 -13.021 22
294 1 14.955 0.942218 -15.2555 13
295 1 -3.37112 -4.30065 -1.36575 21
296 1 2.5677 -0.303753 -14.7314 15
297 1 2.27826 -11.8606 -10.4767 19
298 1 1.32661 -16.9219 -13.5117 19
299 1 -8.96477 3.39588 -0.41461 14
300 1 -11.431 -16.383 -14.8113 9
301 1 7.0495 -3.79276 -5.89382 17
302 1 -11.4428 -5.51624 0.96968 20
303 1 -8.25161 -13.0571 -10.7895 21
304 1 -12.8365 -8.69666 4.39387 9
305 1 -6.9411 -18.7533 -17.9019 10
306 1 -9.10424 -0.0733048 -6.94591 18
307 1 -5.04848 -18.2272 -15.424 19
308 1 0.173184 -15.8671 -21.8313 10
309 1 -9.38359 -13.73 -6.58712 16
310 1 -8.09924 -6.98137 -4.95051 19
311 1 7.44689 -12.5696 -2.9658 17
312 1 -5.20542 -15.4903 -2.06531 21
313 1 2.5294 3.98529 -20.9465 14
314 1 7.49319 -1.61364 -12.8476 16
315 1 -10.0486 -18.415 -12.9692 10
316 1 3.33276 7.78107 -13.4538 19
317 1 -0.30726 -0.538013 -18.1593 17
318 1 -3.49855 -1.50089 -0.608193 18
319 1 -18.1703 -7.47356 -8.89963 5
320 1 -4.79093 4.00715 -16.6187 18
321 1 -8.90501 -10.5189 -15.4073 19
322 1 -2.67732 -14.3933 -13.8922 20
323 1 -5.21086 -8.23703 -25.8111 12
324 1 -12.0423 5.16375 -7.13674 15
325 1 2.62733 -0.289161 2.22924 13
326 1 6.22198 3.11658 -13.0011 20
327 1 1.71049 -1.07611 -11.5254 18
328 1 -12.5096 2.76969 -16.0164 14
329 1 0.823811 -2.36269 -20.5341 17
330 1 -3.73419 -12.6641 -2.48375 22
331 1 -10.7172 -7.86724 -8.51312 19
332 1 0.612041 -11.2167 -24.3271 14
333 1 6.68911 0.0848218 -9.08673 16
334 1 3.97614 -13.7296 -9.09873 16
335 1 13.24 -6.41089 -10.416 20
336 1 -0.0935938 -10.3542 -18.2609 18
337 1 -9.19299 -16.0784 -8.84565 17
338 1 -5.58529 -15.0546 -14.5452 21
339 1 1.00696 -16.5467 -1.72229 17
340 1 -13.9626 -0.5214 -17.2169 11
341 1 2.21513 -12.3676 -18.473 18
342 1 -4.53343 -3.30204 -20.3002 20
343 1 0.705235 -8.83668 5.7383 9
344 1 -14.0641 -13.7864 -0.4896 11
345 1 14.5408 -5.43262 -14.4005 13
346 1 7.80397 1.47635 -11.4553 20
347 1 -3.1951 0.317021 -16.6031 20
348 1 6.55473 -11.0724 -19.3023 18
349 1 11.737 -4.90851 -18.2943 18
350 1 13.5709 -8.65247 -9.23082 13
351 1 -2.68936 -1.99238 2.67632 17
352 1 -6.84304 8.60243 -6.39569 7
353 1 -0.396407 -6.93933 -25.5839 12
354 1 -13.5935 -16.2705 -3.01479 10
355 1 -1.87653 9.44159 -12.4864 13
356 1 -12.585 -8.56952 -19.6612 9
357 1 -14.3716 -0.223506 -6.22282 17
358 1 -7.40534 -15.4851 -3.96252 18
359 1 -3.36831 9.94361 -15.4281 9
360 1 16.4351 -0.550645 -17.2581 9
361 1 -15.3723 -15.3556 -7.50965 14
362 1 -4.19228 -13.3887 -19.2571 20
363 1 -10.8242 4.07432 -4.19839 15
364 1 2.96736 1.03398 -20.428 20
365 1 7.649 -9.36914 -10.9628 21
366 1 1.97482 9.60495 -18.7536 9
367 1 3.22954 -11.5559 -7.66409 17
368 1 -12.4549 -6.23034 -1.5903 19
369 1 7.7591 -6.3933 -3.86146 16
370 1 2.55884 -4.99858 -25.4519 13
371 1 -11.7218 -13.6429 -16.2143 11
372 1 2.91886 -13.0681 -1.13087 16
373 1 5.17376 3.85967 -3.97231 16
374 1 12.061 -1.39568 -16.4541 20
375 1 -8.1275 4.40011 -13.8498 17
376 1 4.304 9.41711 -16.6909 12
377 1 10.9857 -9.16505 -5.1365 18
378 1 12.4193 -9.38373 -16.1379 17
379 1 -14.062 -7.76483 -3.76354 18
380 1 -1.68274 -6.77109 -2.82165 19
381 1 -10.2464 1.32313 -13.5903 21
382 1 3.3365 -23.6819 -9.06273 8
383 1 9.64244 -7.13802 -16.1537 19
384 1 -2.60716 7.82815 -17.5091 17
385 1 -7.11251 -13.5654 -20.4054 14
386 1 -0.375866 -21.7898 -9.9245 19
387 1 -10.5718 -8.85475 -3.4076 16
388 1 -10.1254 -14.4856 -4.00615 15
389 1 0.493665 -3.76436 -11.5939 20
390 1 6.01809 -20.5565 -13.6964 13
391 1 0.662381 -14.287 3.79752 13
392 1 6.31114 -3.82448 -14.4819 16
393 1 -10.4033 -1.60672 -13.2519 18
394 1 5.80792 -15.9766 -10.0721 17
395 1 5.45449 1.06768 -3.74319 16
396 1 -7.27475 -2.28608 -23.8903 10
397 1 3.99966 6.75168 -5.01649 11
398 1 8.3408 -6.18476 -22.8115 14
399 1 -2.50219 -10.6698 -21.4853 18
400 1 -6.97732 -20.7587 -14.6219 13
401 1 -11.3412 -2.08471 -19.2272 11
402 1 16.6533 -1.99041 -14.2621 13
403 1 16.2962 -4.47857 -12.3311 14
404 1 6.53924 -15.7074 -20.7636 13
405 1 8.49382 -12.6382 -17.7476 18
406 1 -0.905873 7.79121 -6.78884 12
407 1 -11.973 0.446651 -4.4524 17
408 1 13.7269 -3.86945 -22.6532 4
409 1 11.7518 0.326023 -10.5044 15
410 1 5.22186 -6.4275 -16.7152 19
411 1 10.3564 -4.61336 -1.83489 13
412 1 -1.56713 -12.3555 -5.02582 23
413 1 5.5138 -5.52916 2.07993 18
414 1 13.7039 -3.58846 -11.9781 16
415 1 8.19505 -1.56475 -0.413161 13
416 1 -13.7668 -10.9664 -15.5315 13
417 1 11.0788 2.1595 -5.71469 15
418 1 7.94226 -4.14799 -8.65294 17
419 1 8.7617 -9.33768 1.16614 11
420 1 -0.910919 1.83505 -7.29081 20
421 1 8.3135 -3.9322 -2.7829 15
422 1 -3.58677 6.52774 -11.3926 14
423 1 7.8287 4.69663 -19.1872 15
424 1 8.49894 -6.03084 -18.6423 18
425 1 0.856359 4.63103 -15.1541 16
426 1 -1.39248 -16.1353 -18.7014 14
427 1 -12.2338 -3.17228 -1.13604 19
428 1 -0.619799 -0.66777 -22.8328 13
429 1 -6.06099 -14.2985 -8.12125 22
430 1 -8.224 -4.78881 -22.2733 18
431 1 -8.77451 -4.19838 -18.4195 16
432 1 18.5537 -6.62321 -10.6991 8
433 1 10.5907 5.53031 -8.05969 14
434 1 -0.950778 -17.0787 5.0087 7
435 1 -11.3867 -10.6175 -14.0583 23
436 1 -3.7917 1.06616 1.63585 15
437 1 9.94131 2.75544 -21.1885 16
438 1 8.29193 1.48875 -14.4748 19
439 1 4.86738 -16.4239 -17.5619 17
440 1 10.8103 -11.102 -7.74461 15
441 1 7.94716 7.29749 -8.94954 15
442 1 13.4228 -10.9268 -4.93483 10
443 1 -6.93036 -7.05649 3.8365 16
444 1 -15.6439 -13.6826 -4.88255 17
445 1 -12.2613 -7.62747 -15.9134 19
446 1 4.90072 -6.85134 -0.91619 18
447 1 -6.03415 -16.4682 0.205155 14
448 1 5.4948 1.07658 0.738467 9
449 1 -0.519922 5.17611 -7.86842 21
450 1 13.0301 -0.954927 -13.0577 17
451 1 4.34992 2.01546 -6.7951 18
452 1 2.3185 -5.41277 -22.0858 20
453 1 -13.5161 -13.4233 -3.49056 18
454 1 14.7532 -10.0625 -18.2256 8
455 1 6.93393 -18.1473 -11.0595 13
456 1 11.1861 -6.31937 -4.39438 17
457 1 3.30566 -0.168817 -4.13986 16
458 1 9.47202 4.08657 -6.11885 14
459 1 4.20349 -13.2266 4.43424 9
460 1 -9.06295 1.54654 -2.37662 18
461 1 2.98265 -8.23336 -24.9273 13
462 1 -4.51283 -12.4409 2.8394 17
463 1 3.95628 -7.77482 4.10983 15
464 1 14.2219 2.23646 -10.6276 12
465 1 4.3351 -13.9552 -21.4235 18
466 1 -4.83665 -4.80519 -17.0207 18
467 1 1.3492 5.35518 -10.252 18
468 1 10.5771 7.36145 -10.7003 13
469 1 6.18407 6.95648 -18.2376 14
470 1 13.4691 6.47172 -13.0354 9
471 1 -7.71023 -15.7648 -11.9739 21
472 1 1.32162 -3.89701 -17.8069 16
473 1 -4.46811 4.42936 -13.4727 17
474 1 4.02285 -11.2456 -23.7517 15
475 1 10.8036 -3.62585 -12.4421 19
476 1 12.2112 4.52043 -11.2558 14
477 1 -9.80693 0.777615 -10.0768 15
478 1 2.52627 -0.801882 -17.8604 15
479 1 -3.81961 -14.1422 0.629448 18
480 1 1.73879 -2.86493 -22.8471 17
481 1 -0.666821 0.623516 2.5992 13
482 1 2.1333 -6.05871 -1.13168 19
483 1 9.54588 7.3698 -13.9261 13
484 1 4.93437 8.98921 -10.5895 11
485 1 11.6648 -11.4897 -12.5498 15
486 1 -8.10856 -19.7432 -5.08861 11
487 1 0.446968 -23.7763 -11.1995 13
488 1 3.29528 -5.99955 -19.5189 18
489 1 0.970285 6.02564 -5.0635 16
490 1 -11.5414 -11.4421 -1.20715 18
491 1 2.11688 -17.2875 -16.3479 15
492 1 5.22047 4.86012 -22.0337 11
493 1 5.5157 -7.83313 -19.0956 19
494 1 4.04583 -17.8883 -4.7432 11
495 1 6.67753 9.03373 -15.0734 12
496 1 -6.8639 -10.217 3.41958 15
497 1 -8.57973 -16.0673 -19.7936 10
498 1 9.59922 -13.7426 -14.6822 17
499 1 -8.6118 -1.78052 2.23025 12
500 1 3.16734 -18.1649 -11.1521 16
501 1 0.714111 -17.4497 -4.50909 19
502 1 -1.25586 -21.802 -16.7813 12
503 1 -9.04492 -10.7006 1.0883 24
504 1 -8.02868 -13.5709 -14.4822 19
505 1 -11.4264 -2.47834 1.76844 15
506 1 16.6652 -5.22931 -6.47752 10
507 1 -11.8751 -8.87685 1.40395 16
508 1 -12.3785 3.63809 -12.7214 18
509 1 12.6992 -5.95153 -6.79778 18
510 1 -0.129795 0.264017 -15.2176 19
511 1 10.4956 -14.2246 -17.8008 16
512 1 11.2242 2.34534 -13.0851 18
513 1 -12.476 -5.14948 -14.0366 19
514 1 -14.7856 -14.37 -13.2227 12
515 1 7.19193 4.02621 -16.238 21
516 1 -3.81473 -7.04525 -0.356183 24
517 1 -6.59768 -12.9874 -0.164829 19
518 1 0.201132 -8.57308 -22.6237 16
519 1 -9.52642 3.1028 -17.3238 14
520 1 8.6979 4.20189 -11.0919 21
521 1 -7.713 -9.69926 -6.13641 17
522 1 11.911 -0.274708 -21.54 13
523 1 -3.2484 -22.982 -11.7201 15
524 1 5.02719 3.48327 -18.5469 21
525 1 -4.20611 -5.62198 -22.378 15
526 1 5.19857 -2.0006 -1.93774 18
527 1 12.431 5.16286 -19.1364 7
528 1 -14.357 -11.6704 -7.66027 20
529 1 11.2066 -7.30049 -13.3114 20
530 1 -8.62903 -13.5742 -17.3171 18
531 1 13.5557 1.71014 -17.5541 15
532 1 8.48825 -14.32 -4.92981 12
533 1 -3.57034 -5.12404 1.65195 22
534 1 -2.65201 -16.3827 -0.548164 17
535 1 14.4031 -3.37859 -16.3074 16
536 1 9.81273 -7.31585 -10.2056 18
537 1 -2.44292 1.92866 -1.27762 18
538 1 -9.66252 -7.56129 2.8693 20
539 1 -1.76565 -15.825 -3.06312 23
540 1 8.46799 -9.1712 -8.04879 19
541 1 7.63231 1.81005 -1.54074 12
542 1 -15.1831 -6.10515 -6.58295 13
543 1 4.11139 -19.0455 -16.7331 12
544 1 0.799422 7.03427 -12.7814 20
545 1 6.08438 -2.05308 -4.5312 16
546 1 1.83854 4.4188 -3.18496 10
547 1 -0.570934 -20.7733 -4.52188 10
548 1 -9.87617 -9.86262 -10.7725 21
549 1 2.14827 -3.3601 -0.406583 21
550 1 3.59677 5.08977 -12.9483 19
551 1 -6.85098 -18.8564 -2.35674 12
552 1 10.9446 -12.7193 -5.31499 12
553 1 11.3939 -9.78149 -10.4614 18
554 1 5.0149 2.46054 -9.97875 19
555 1 -1.08802 -12.9176 -20.3651 19
556 1 -8.29097 -9.60653 -23.6976 12
557 1 1.07644 -8.46716 3.16489 18
558 1 2.32271 11.9416 -15.9886 8
559 1 14.6649 -4.34137 -9.06225 17
560 1 -0.248238 1.65219 -20.2339 17
561 1 -5.54525 -4.05168 3.52119 15
562 1 1.46429 3.06167 -5.78592 18
563 1 8.22793 -8.68835 -21.2286 22
564 1 -5.75216 -24.0302 -8.08893 8
565 1 -6.21626 -7.64212 -22.4942 19
566 1 11.9459 -0.764957 -4.87699 15
567 1 9.85115 -4.2887 -20.8021 15
568 1 -3.87194 -13.2753 -16.2458 20
569 1 13.9022 -2.97335 -6.97935 15
570 1 -0.940119 -10.9282 3.30598 15
571 1 1.87866 -15.302 -19.0323 17
572 1 12.0995 5.95978 -15.9183 11
573 1 -10.2876 -4.6566 -3.25215 20
574 1 13.9327 -1.85072 -18.743 14
575 1 -3.20195 -5.39511 -26.0552 12
576 1 -4.39087 7.13357 -3.17971 13
577 1 7.44617 -2.91811 -22.558 20
578 1 9.62568 -10.6119 -15.7653 20
579 1 -11.2846 -4.02383 -8.60992 17
580 1 6.63316 4.45497 -8.13005 20
581 1 -9.90854 -17.4736 -3.44708 13
582 1 5.97795 -4.12854 -0.522361 18
583 1 -9.2715 -5.29237 -24.7282 8
584 1 -14.8526 -5.79112 -0.0025202 9
585 1 -7.1571 -4.95114 -15.8087 17
586 1 10.9185 -7.63569 -19.807 23
587 1 -10.9828 -10.87 -17.4687 18
588 1 14.6305 -11.511 -14.2685 9
589 1 -12.1784 2.82474 -9.53214 22
590 1 -13.8742 -17.4267 -11.6433 9
591 1 -8.22464 -22.9049 -8.59617 11
592 1 10.8165 -1.18033 -1.48176 11
593 1 9.01731 -5.84667 -13.7946 18
594 1 -16.0068 0.228207 -12.4849 11
595 1 8.9093 0.544833 -4.07327 17
596 1 7.42379 2.01676 -24.0126 11
597 1 -10.0995 1.10191 1.1697 13
598 1 3.86389 5.89494 -16.4375 18
599 1 3.29515 4.75194 -8.79069 17
600 1 5.59795 -10.1419 -0.832238 20
601 1 9.51395 6.26503 -17.0278 13
602 1 -2.98095 -10.7975 0.169155 24
603 1 -0.592123 -4.7964 -23.4536 17
604 1 -17.3201 -3.81961 -8.80077 6
605 1 -0.579758 -18.68 -8.01371 22
606 1 5.23104 -10.0014 -9.56506 19
607 1 4.1825 -22.2803 -14.8873 12
608 1 -14.9445 2.708 -10.5661 14
609 1 11.4156 -11.2333 -18.9906 21
610 1 -11.9341 6.16359 -9.8398 11
611 1 -4.38131 -8.7834 2.5661 20
612 1 -10.0443 -14.0933 -22.1392 8
613 1 -2.96971 -19.6819 -10.2951 21
614 1 0.848585 -22.9204 -6.67905 9
615 1 3.01012 6.20151 -19.3971 15
616 1 12.6224 2.4234 -20.7185 11
617 1 6.1272 -2.81926 -10.7325 19
618 1 16.4997 -1.86863 -7.78874 8
619 1 10.6323 -2.65241 -23.1167 9
620 1 -3.43621 -9.19249 -2.06798 22
621 1 2.96998 2.69775 -14.7195 20
622 1 7.67435 -1.09346 -16.3366 17
623 1 -15.6203 -7.03159 -15.5502 11
624 1 -8.13819 -10.3938 -1.74071 20
625 1 4.94888 6.96867 -7.94142 15
626 1 -1.35557 -21.91 -13.4965 21
627 1 0.768872 2.61626 -13.044 21
628 1 -6.82303 0.476732 0.263987 19
629 1 -8.92064 -4.04305 -0.393256 21
630 1 16.2393 -8.06672 -9.94673 15
631 1 -4.6146 -15.8766 3.00388 10
632 1 1.44555 -19.8017 -6.3201 14
633 1 6.00839 -9.12848 1.81605 20
634 1 9.2006 -9.61133 -18.1419 17
635 1 -3.61552 -3.01026 -22.8194 16
636 1 -2.92777 1.51502 -22.1424 15
637 1 -12.4 -0.0353852 -8.37533 22
638 1 1.95313 8.09366 -7.85517 14
639 1 1.79706 2.50946 1.41663 11
640 1 -12.4619 -16.823 -8.23257 15
641 1 -6.61432 4.21108 -5.85731 19
642 1 10.4326 2.35 -1.20801 7
643 1 -1.53752 -15.7801 -6.10994 19
644 1 11.219 -8.47459 -22.9681 10
645 1 5.14377 -14.071 -15.0594 15
646 1 8.01933 -1.83716 -19.1309 19
647 1 -8.90459 -7.95022 -21.3808 15
648 1 -8.91682 -18.719 -9.96815 16
649 1 -10.4638 5.4246 -15.2888 10
650 1 -4.63728 -7.16427 5.3113 8
651 1 10.681 -11.6372 -2.55083 11
652 1 -12.2917 -13.8163 -6.28135 23
653 1 8.62056 2.1113 -8.66265 21
654 1 -5.62726 -0.533789 -22.3308 13
655 1 10.852 -3.32888 -6.41734 20
656 2 -9.70683 -5.8337 -17.9005 18
657 2 0.771509 3.09403 -20.9571 14
658 2 -1.35354 -8.47161 -25.0281 16
659 2 -8.19378 -6.29469 2.24001 19
660 2 -5.74963 -19.2795 -13.6225 19
661 2 1.65711 -1.93198 3.16326 16
662 2 -15.8861 -11.622 -3.91512 13
663 2 -14.7629 -2.1293 -17.6657 9
664 2 3.30698 7.3689 -6.62399 13
665 2 -14.4652 -0.947379 -8.04711 15
666 2 7.74871 -7.57496 -11.3676 22
667 2 -15.5426 -12.8998 -11.8507 12
668 2 -10.0198 -3.68394 -10.1504 18
669 2 -1.22687 -16.6055 -4.63156 19
670 2 -0.243114 -2.27957 -3.06029 21
671 2 12.5025 -6.60131 -19.0754 13
672 2 4.69253 -17.2595 -6.42534 12
673 2 -5.56193 1.27599 -4.14127 14
674 2 -10.4985 -7.16331 -15.6388 20
675 2 11.7193 -4.73293 -3.27048 14
676 2 2.31569 -19.0972 -16.3576 14
677 2 -11.8833 -13.3633 -4.25679 19
678 2 -9.01843 -7.10157 4.69836 12
679 2 -1.53569 -23.0754 -10.9616 14
680 2 10.0392 -10.6719 -0.888376 12
681 2 -7.32438 -21.5201 -13.0469 12
682 2 5.65425 -10.0827 4.43822 13
683 2 -5.47659 6.30121 -12.9953 14
684 2 -13.0198 -15.3639 -7.18182 17
685 2 -1.2945 -3.48684 0.86513 21
686 2 -12.1445 2.78509 -4.62195 15
687 2 -5.61608 -5.76796 4.27624 14
688 2 -8.50327 5.79977 -15.2709 12
689 2 2.09684 -13.7437 -9.20892 16
690 2 -1.32019 1.321 -2.90747 16
691 2 -5.82774 5.69982 -17.6542 15
692 2 7.53866 -9.91556 -13.9848 17
693 2 0.679954 -6.45791 -22.5047 20
694 2 10.2368 -5.60944 -16.915 17
695 2 -3.23794 -6.27397 4.94636 13
696 2 6.87966 -7.31076 -23.6318 16
697 2 10.6272 -0.734205 -23.4349 11
698 2 -1.54382 3.8913 -6.78056 17
699 2 -5.37041 -14.8073 -0.323471 17
700 2 -7.43137 7.04976 -7.57095 13
701 2 13.3493 -10.5741 -19.5851 13
702 2 5.27384 -15.6085 -22.0802 11
703 2 -13.7036 -12.9013 0.971504 11
704 2 11.4527 -0.186355 -12.3219 17
705 2 -4.37658 -1.04241 -5.89129 19
706 2 -2.42827 -20.3468 -13.411 21
707 2 -9.47171 3.39062 -2.72339 13
708 2 4.24814 -9.12327 -4.87275 20
709 2 13.5387 -8.44218 -17.4586 13
710 2 -15.6651 1.39657 -14.1924 12
711 2 9.64517 -9.61369 -11.1608 22
712 2 3.34703 -23.7714 -14.0076 10
713 2 5.21134 1.9457 -11.891 17
714 2 3.26705 -22.901 -7.21588 8
715 2 13.2051 -6.46086 -4.75438 14
716 2 -4.70917 -6.96058 1.65891 22
717 2 15.7163 -10.0362 -13.1666 10
718 2 4.56699 -0.157065 1.57039 12
719 2 7.88139 5.1553 -9.88846 23
720 2 -3.44597 -3.6248 3.26981 17
721 2 8.64846 -3.07453 -7.17338 19
722 2 18.0447 -4.99676 -11.8716 9
723 2 1.34625 -4.07558 -21.3168 17
724 2 -12.7525 -7.54255 -17.9901 14
725 2 -3.41607 -2.33117 -2.38006 18
726 2 9.61019 -12.0436 -13.2875 17
727 2 -9.18123 -6.66181 -11.7965 20
728 2 -15.1849 2.32498 -4.06477 10
729 2 -12.3009 -9.93629 -0.122641 18
730 2 11.5945 -1.41246 -3.12473 12
731 2 -1.79606 -12.0173 -2.64515 18
732 2 -7.14582 -16.4847 1.83361 10
733 2 5.99039 -4.66271 -23.3081 16
734 2 2.6165 -3.83102 -2.29107 18
735 2 -4.19033 2.30642 -1.79767 17
736 2 -9.36238 -10.1464 -7.10922 22
737 2 8.63465 -14.5797 -17.8434 18
738 2 9.84898 1.25703 -19.868 20
739 2 -0.406722 10.2166 -11.5048 11
740 2 -3.22752 -15.4181 -10.7119 19
741 2 9.03947 -7.60095 -17.9143 19
742 2 1.45177 -1.67206 -0.729912 16
743 2 8.53234 -11.8113 -21.8727 11
744 2 3.93432 -8.82755 -1.2779 20
745 2 -1.79454 -14.5518 0.288476 23
746 2 6.71908 -8.88894 -8.90341 18
747 2 -7.42989 -16.6189 -8.27318 17
748 2 11.0828 4.27966 -20.2601 9
749 2 -11.548 -18.2364 -7.11368 12
750 2 9.47049 -17.9004 -14.1912 11
751 2 5.60774 -15.8395 -19.2255 16
752 2 14.9327 -0.899011 -7.42409 11
753 2 -7.41921 4.5333 -0.278672 12
754 2 15.4579 -8.37939 -8.25211 14
755 2 -9.11013 -12.3669 -15.8621 18
756 2 -3.68638 -20.1382 -8.54797 19
757 2 0.145048 -16.0897 -10.4475 20
758 2 -6.4069 -19.6819 -10.0289 23
759 2 -2.18929 7.93369 -11.2794 14
760 2 -11.4595 4.54615 -10.7425 16
761 2 13.5573 -0.335824 -15.0755 21
762 2 3.21228 2.71339 -19.2047 16
763 2 -6.2884 -9.57874 1.58555 21
764 2 -9.49435 -9.61342 -20.4413 14
765 2 -11.1978 -4.05182 -6.6538 18
766 2 -6.0898 -1.30314 -0.260106 19
767 2 -10.6782 -1.52665 -7.68564 18
768 2 -0.523479 7.3016 -4.95691 14
769 2 13.9382 -10.9368 -15.9009 11
770 2 4.06665 -11.7228 -9.20943 18
771 2 -10.0446 -5.58469 -0.665977 17
772 2 -3.53984 7.23569 -5.04958 14
773 2 -14.6375 -0.860808 -13.0025 10
774 2 -8.12814 4.15834 -6.91481 17
775 2 10.2761 0.426726 -1.59293 10
776 2 -10.1736 -14.8531 -20.2262 10
777 2 11.8171 0.402076 -17.3163 18
778 2 11.1329 -7.36198 -11.4666 19
779 2 -13.1089 -15.8934 -1.3366 9
780 2 -0.452816 5.34954 -10.4352 18
781 2 -5.06304 3.48341 -19.8378 18
782 2 -2.89903 10.234 -17.3123 9
783 2 7.91036 -4.63608 -4.5123 19
784 2 -6.95797 -4.09354 -1.53232 19
785 2 14.5209 -8.01073 -10.8911 15
786 2 -0.287571 -4.38934 3.91899 16
787 2 -4.15149 -14.9213 -7.54692 21
788 2 -14.0524 -6.89493 -10.6503 20
789 2 -11.6773 -7.30027 -20.7852 12
790 2 0.916628 -13.7721 -17.5108 22
791 2 6.60292 -6.02213 -17.9118 19
792 2 12.3614 0.845464 -6.08761 11
793 2 -5.70305 -9.02272 4.32489 14
794 2 6.66141 2.57225 -19.0993 17
795 2 -9.34762 -14.2372 2.62019 12
796 2 -9.75018 -8.26279 -23.0414 13
797 2 -4.71058 -14.2356 -13.3579 23
798 2 -0.574305 -19.3762 -5.98866 18
799 2 8.09353 5.27778 -15.1115 19
800 2 -7.67863 -4.23468 -24.3639 9
801 2 -4.88557 4.95237 -1.44098 17
802 2 -9.35309 -13.022 -8.26193 15
803 2 -7.30052 -1.44912 -22.0539 13
804 2 4.19397 -1.96483 -21.9296 22
805 2 -0.342297 4.15036 -16.7958 15
806 2 -7.38323 -24.6051 -7.95054 5
807 2 8.58285 0.412069 -7.79913 22
808 2 -1.84295 -0.456104 -0.92415 17
809 2 -8.62834 -18.6254 -11.8391 16
810 2 8.31686 -12.2686 -15.7658 20
811 2 -1.32467 -4.6684 -2.28715 20
812 2 2.60376 6.03203 -3.90947 10
813 2 15.6134 -3.90352 -14.253 14
814 2 6.58026 2.65681 -2.86773 17
815 2 4.21375 1.15461 -14.4479 14
816 2 -8.9247 -11.0246 3.09999 15
817 2 8.81793 -10.8595 -7.59372 17
818 2 7.37602 8.05427 -13.6895 14
819 2 6.89098 2.13465 -9.67475 18
820 2 -4.61648 -3.27031 -18.145 19
821 2 7.3375 -14.85 -2.87853 12
822 2 -0.751309 2.33461 -12.264 17
823 2 -0.100075 -14.8786 -2.41098 21
824 2 11.0589 -12.1069 -10.8203 15
825 2 -10.2692 -17.1781 -9.86923 15
826 2 -8.08172 4.31766 -18.3285 14
827 2 3.34558 -13.7898 -19.4052 19
828 2 -4.13148 -19.3693 -16.8013 17
829 2 1.68506 -5.56874 -18.3577 19
830 2 -7.86921 -17.4917 -19.2958 6
831 2 5.743 5.77673 -5.04655 16
832 2 -18.2166 -5.60109 -8.65136 5
833 2 -4.54146 -0.638539 -8.88807 18
834 2 11.8677 -9.57024 -8.63299 17
835 2 -12.4537 -0.543797 -2.7594 16
836 2 -1.71898 -16.7805 -17.0656 17
837 2 -12.3911 -6.7925 4.98077 9
838 2 6.68934 -0.838218 -20.0443 19
839 2 -3.85353 -8.96285 -18.9917 17
840 2 9.40224 -4.29409 -22.6642 12
841 2 15.5199 -3.84108 -7.50045 12
842 2 -7.03062 -8.52582 -20.8703 17
843 2 -15.0137 3.47606 -6.35853 14
844 2 -13.2012 5.80369 -8.28898 11
845 2 -4.41243 -4.11768 0.446578 20
846 2 -15.2308 -11.2524 -14.3851 12
847 2 -2.09583 -5.15094 -21.7095 16
848 2 3.65764 -7.75732 -18.8834 18
849 2 6.98827 6.48905 -7.17822 17
850 2 -0.688167 -17.6436 3.0157 10
851 2 1.43693 -2.05881 -18.6962 15
852 2 3.38728 -6.70207 0.258324 22
853 2 12.1408 -8.38175 -21.0954 14
854 2 -2.1621 -14.4571 -16.1563 23
855 2 3.83922 5.29816 -20.8608 11
856 2 0.631874 3.8718 1.17851 8
857 2 7.43138 -1.68811 -9.77395 19