ITEM: TIMESTEP
20000
ITEM: NUMBER OF ATOMS
2000
ITEM: BOX BOUNDS pp pp pp
-30.0 30.0
-30.0 30.0
-30.0 30.0
ITEM: ATOMS id type x y z Coordination
1 1 -10.4752 5.10936 -15.14 13
2 1 -6.09904 -10.0899 -11.8314 17
3 1 2.04811 12.2649 11.2388 17
4 1 6.19283 -11.7161 5.6113 11
5 1 -12.8827 9.60339 -2.01297 18
6 1 7.00567 -9.57144 -12.3529 16
7 1 -12.8025 2.05502 -7.74142 17
8 1 -0.613498 -7.69399 9.45598 14
9 1 -9.10442 0.490096 -14.5317 23
10 1 -14.1729 -9.18123 3.98985 16
11 1 12.9318 1.2447 -11.288 14
12 1 -4.65973 1.28514 -7.4984 19
13 1 -2.46661 -16.065 -0.399865 21
14 1 -14.6792 -9.67652 0.656972 12
15 1 -1.10119 3.58844 17.7041 12
16 1 6.23884 -6.08002 3.472 19
17 1 -0.764266 3.45671 9.96939 22
18 1 4.80433 -1.60567 2.48732 20
19 1 -3.63397 12.8499 -9.78708 14
20 1 2.30063 -3.43333 13.0674 16
21 1 -9.52243 -0.445996 -18.5434 10
22 1 -14.0026 -3.66845 9.48055 15
23 1 8.67438 8.02196 9.00942 23
24 1 -2.56081 9.96183 -15.3198 13
25 1 4.91532 2.90965 -15.1468 21
26 1 11.9939 3.11794 8.67212 17
27 1 -7.1155 1.11687 -2.12999 19
28 1 -17.2741 3.91568 -6.3873 8
29 1 -3.3113 -1.47719 -9.59998 22
30 1 -10.1216 9.32659 8.34961 20
31 1 4.69439 -12.6722 2.34686 16
32 1 0.757631 0.152775 5.6045 24
33 1 1.67249 -12.8926 -13.2744 14
34 1 7.84997 -11.5592 -1.17309 15
35 1 -7.81332 -14.1731 -7.83557 13
36 1 -12.8584 -6.31751 8.24834 17
37 1 5.19072 -1.80475 -7.30358 22
38 1 1.59878 -7.19425 -15.7008 22
39 1 7.06465 -8.27566 -15.8047 12
40 1 -1.69901 4.66647 -19.2806 11
41 1 -0.876754 2.4984 14.777 17
42 1 -2.8193 -9.7306 4.11724 16
43 1 7.33091 -4.23048 10.1822 16
44 1 -13.9543 0.20632 1.07039 23
45 1 -15.6302 -1.68339 5.46006 15
46 1 -12.5269 3.52878 -3.67802 20
47 1 -6.59523 11.9206 -2.84077 23
48 1 -2.13144 -13.8876 -14.6028 9
49 1 4.72701 1.38305 -12.5671 21
50 1 4.2411 -4.31645 -12.256 23
51 1 -4.04541 -3.26395 11.6364 18
52 1 -14.1831 6.16202 -2.1228 18
53 1 3.58687 11.3282 -15.4862 10
54 1 -1.1184 12.8732 4.45152 20
55 1 -10.4086 7.07209 -9.74911 19
56 1 0.164531 13.0084 0.159492 17
57 1 0.379912 -13.4256 0.73397 22
58 1 6.98074 -4.98594 -6.91476 19
59 1 4.21262 -8.23297 -20.5837 9
60 1 -10.2495 6.41884 9.48141 23
61 1 -13.4733 -4.57112 -10.1298 12
62 1 4.95832 4.07194 1.96693 18
63 1 -8.49823 8.43168 -7.62375 18
64 1 -9.90794 -11.7561 4.81398 19
65 1 -2.61033 12.4601 10.3408 14
66 1 -11.7712 6.65408 -7.24572 17
67 1 -9.03446 9.62909 11.0164 15
68 1 0.650305 8.00062 -7.73684 18
69 1 1.72503 5.76708 2.80853 22
70 1 -4.45767 -15.8181 5.42713 13
71 1 2.00238 6.0354 6.13924 19
72 1 6.72127 -14.6852 -6.31349 11
73 1 3.3112 12.2971 13.1562 14
74 1 -15.5996 3.46041 -9.2168 13
75 1 -14.9498 7.73232 -7.56015 14
76 1 4.31084 5.95815 11.712 21
77 1 11.5673 -4.10111 -9.72201 19
78 1 7.73787 -11.3477 2.4233 12
79 1 -16.4834 -1.59002 2.33427 16
80 1 -7.7326 1.42955 0.912675 24
81 1 4.82979 16.6489 2.20163 15
82 1 3.2752 -1.39032 15.8196 13
83 1 -6.91408 -12.2046 2.88206 19
84 1 -9.52507 -3.71436 -0.919596 21
85 1 9.55889 4.88491 7.27209 20
86 1 7.85387 -4.02357 -3.83678 19
87 1 -2.05162 13.0518 7.34078 20
88 1 0.673 -2.36335 7.38772 20
89 1 -6.74152 -4.4864 -0.245524 22
90 1 -5.76601 -7.35846 -10.34 24
91 1 -12.6447 7.77419 8.33804 15
92 1 -12.0534 9.03504 0.796829 23
93 1 -2.71837 7.24255 -7.74957 23
94 1 4.05521 0.916449 -5.49454 22
95 1 7.08574 1.24472 -6.65229 19
96 1 7.72659 11.9471 -10.4822 12
97 1 5.2734 -7.31243 1.11376 18
98 1 4.13807 -9.54095 7.34185 14
99 1 -8.22735 13.2495 -5.02698 16
100 1 -11.627 11.3729 2.92886 18
101 1 -9.05759 -4.02098 13.0855 12
102 1 -6.68936 7.98555 3.53137 21
103 1 -7.73276 -4.16343 7.45826 20
104 1 12.7738 -9.65964 -9.62326 12
105 1 -11.0492 1.89296 2.81055 22
106 1 -10.5736 -16.0702 1.29383 15
107 1 8.14816 -7.76039 -5.8698 21
108 1 5.34905 -1.6153 -14.3936 23
109 1 -7.05836 -0.21415 -16.9617 20
110 1 3.52809 1.30027 4.02572 22
111 1 -5.69113 12.6053 2.51701 20
112 1 -8.86078 5.55707 -8.02714 18
113 1 -0.528553 10.1307 16.4037 9
114 1 -0.756702 12.5971 -7.81965 21
115 1 -16.098 9.6667 -0.220295 11
116 1 1.93525 6.6361 -0.584982 21
117 1 -7.58729 -9.29336 4.27791 22
118 1 6.83231 4.23301 7.06756 18
119 1 0.851222 -3.40856 -11.7896 20
120 1 3.22869 -5.03429 -9.65635 19
121 1 -0.902835 2.68454 6.47791 19
122 1 6.11556 -2.63172 13.8508 13
123 1 -10.1878 -6.91986 -2.26881 19
124 1 3.87384 -4.4523 0.657233 21
125 1 -8.4496 -7.89214 -5.21897 20
126 1 8.36263 -6.6004 1.00336 26
127 1 -8.72618 7.16143 0.889326 23
128 1 9.97736 1.95909 -15.6813 14
129 1 5.6894 17.1626 -6.71306 9
130 1 -10.1922 -13.7502 10.5657 9
131 1 -11.6701 -14.7334 7.4487 11
132 1 -5.74464 6.91209 0.443364 22
133 1 2.42374 -9.92601 -18.3538 13
134 1 5.56628 5.72872 -9.5936 21
135 1 10.9586 -10.1315 -1.42946 13
136 1 -3.39278 -17.4442 1.88028 16
137 1 -9.69838 -9.83651 -1.48439 19
138 1 16.1858 9.4132 7.25737 10
139 1 14.1042 -2.88181 -8.10103 18
140 1 -17.5392 -4.31909 1.01049 12
141 1 9.00694 11.3463 3.08847 20
142 1 14.0239 11.9167 1.07768 9
143 1 -7.26863 3.61701 16.149 8
144 1 5.3634 4.07292 -3.9103 21
145 1 -4.22054 10.1913 7.74365 19
146 1 -7.89452 11.0965 -8.37496 19
147 1 -2.0415 -3.49282 -12.3987 20
148 1 4.84122 -12.3399 -12.9215 13
149 1 -0.0511355 12.5648 -15.0688 9
150 1 4.94219 -2.18146 11.2529 19
151 1 -0.120363 -0.868076 -21.3381 12
152 1 -2.38281 6.41643 -4.56412 19
153 1 11.5702 -2.14403 -5.7696 21
154 1 -14.5954 9.99096 -9.07346 11
155 1 -10.1878 12.2201 -2.72251 13
156 1 9.30616 3.57487 -11.7894 19
157 1 7.59367 -8.69013 3.85335 16
158 1 -7.25263 1.97859 -9.79545 21
159 1 -6.86793 13.0874 5.30084 17
160 1 14.0457 7.83475 -11.432 11
161 1 5.38844 11.1192 -6.19621 20
162 1 -4.9634 16.9148 -2.58994 11
163 1 12.2804 6.54274 -2.81867 18
164 1 -1.50515 9.25676 -4.70493 22
165 1 -0.938289 13.4425 -10.5429 17
166 1 2.83136 8.11804 -16.6495 9
167 1 -12.3909 -10.9632 -0.487542 15
168 1 -18.053 9.65585 -3.38225 9
169 1 -5.12017 -2.35391 -16.9542 20
170 1 -0.639983 -9.77606 -19.2991 10
171 1 9.00483 15.6256 6.62682 11
172 1 -1.23746 17.6091 1.02755 11
173 1 -13.7963 -3.41297 -5.89763 17
174 1 -13.8085 11.3906 0.404039 12
175 1 15.6526 -4.10906 -6.13748 9
176 1 -11.6058 1.26049 -16.3628 11
177 1 6.89275 2.86037 15.2116 11
178 1 1.94527 17.9707 1.58428 11
179 1 -3.70265 7.5855 5.75979 18
180 1 1.37022 -6.87707 -20.5664 11
181 1 -4.29447 15.397 6.0796 11
182 1 -2.67469 10.4633 -6.90749 18
183 1 4.44733 -5.51015 12.0781 11
184 1 -13.2011 -6.43564 2.6724 21
185 1 -2.91808 -10.83 -16.6381 11
186 1 -12.007 11.7599 -11.0127 10
187 1 -4.2647 -12.4806 1.40605 21
188 1 3.53238 -15.2831 -7.15638 12
189 1 -4.13736 9.80657 -12.338 16
190 1 -15.9664 1.10963 7.38236 10
191 1 0.726709 6.5368 -4.24584 20
192 1 10.1508 7.90201 -7.76544 20
193 1 -6.76809 3.58947 13.3481 19
194 1 -2.12329 -10.4937 8.52754 14
195 1 -9.38668 3.09678 -2.3531 21
196 1 0.634621 16.348 -0.579396 21
197 1 -1.40905 5.78702 7.97617 20
198 1 11.8467 6.40202 9.44113 17
199 1 -4.72173 11.6963 -0.701984 21
200 1 11.964 -6.92468 -11.5903 14
201 1 -5.54833 13.3757 8.35938 13
202 1 -9.64011 0.813083 -11.7061 21
203 1 11.2563 -6.40592 2.55803 11
204 1 -6.66209 -6.43759 2.56556 24
205 1 -16.1528 1.42022 4.16163 16
206 1 -9.93968 -12.2476 1.19986 21
207 1 6.71919 8.90916 11.1919 22
208 1 -16.3061 0.697131 -3.36648 13
209 1 -4.24854 -15.9724 -3.27659 17
210 1 -6.40526 -1.54728 -4.26849 22
211 1 3.85061 -7.22671 -4.69392 19
212 1 -1.26679 9.62345 2.9831 20
213 1 -6.42791 -1.27524 2.2501 18
214 1 3.76001 14.0742 10.1976 11
215 1 -9.13526 -1.93039 -6.06244 20
216 1 -8.83763 12.7014 -10.5993 10
217 1 -16.0439 -2.03384 -7.41298 11
218 1 -9.07429 -0.945719 11.6849 20
219 1 -1.1997 -11.3866 2.16304 20
220 1 1.52353 -13.6859 3.74802 16
221 1 -14.9554 9.7625 3.39525 14
222 1 10.3369 4.89643 2.56073 19
223 1 5.00996 3.77595 -7.00946 21
224 1 -6.29655 -5.25574 -18.2951 12
225 1 0.965621 -1.44728 10.8507 18
226 1 5.00324 -16.7447 -1.06885 12
227 1 -4.14228 7.18785 -10.5855 20
228 1 1.37476 -9.58159 -12.7701 20
229 1 10.1931 -0.598973 -17.0712 12
230 1 2.95992 5.79379 -14.477 20
231 1 -7.41122 -4.95727 -9.23173 21
232 1 -6.3592 13.8712 -8.32934 12
233 1 -11.6736 -11.7612 8.95981 12
234 1 8.74393 15.2921 -6.13828 5
235 1 -9.36606 1.93292 13.2944 17
236 1 -10.0625 10.4933 -5.65332 18
237 1 5.21925 1.45785 7.26925 21
238 1 -2.3365 -2.70707 -15.9809 20
239 1 -4.98161 9.51773 -8.64024 20
240 1 1.74708 2.9806 -13.6897 22
241 1 -7.27012 -13.4976 5.93317 17
242 1 -8.57195 5.91829 7.39984 21
243 1 -7.07084 8.13178 7.13065 20
244 1 -2.97686 -11.0211 -9.22586 19
245 1 -6.80804 -14.9211 -2.40839 16
246 1 9.56115 -12.0461 -4.56605 14
247 1 0.840107 -8.63699 -5.29154 18
248 1 11.1897 8.68341 11.4721 13
249 1 5.69141 8.44799 -11.3121 19
250 1 -0.0958646 8.24772 -2.08876 18
251 1 -10.4737 1.13791 -0.23871 20
252 1 -15.01 11.3547 -3.41656 12
253 1 -1.25212 6.89839 10.8806 21
254 1 4.67649 -16.1033 -4.53754 11
255 1 12.181 1.08109 -0.116768 20
256 1 1.51815 8.88729 4.17364 21
257 1 -11.6875 5.69174 2.4933 20
258 1 -10.2763 -5.12119 -4.99266 19
259 1 7.64021 4.4474 -15.5916 15
260 1 4.33936 -4.82415 9.32006 21
261 1 8.02947 9.20678 -12.8529 14
262 1 -0.622793 -8.64522 -8.45243 23
263 1 -0.504395 1.11424 -16.151 19
264 1 -0.432934 -18.9606 1.07651 12
265 1 9.76884 0.466406 -5.13458 23
266 1 -9.43639 -2.78462 4.92516 19
267 1 1.26759 -15.9416 -4.51205 21
268 1 -10.045 -3.89771 -10.8923 17
269 1 2.03791 13.9149 -5.25635 17
270 1 0.673604 -1.9594 -17.5597 20
271 1 4.62611 5.15332 14.6868 18
272 1 13.477 3.4515 -1.14226 17
273 1 -7.00074 -7.5838 -0.268041 23
274 1 9.8341 -5.01255 -12.6682 16
275 1 -4.25117 -6.24559 0.525442 20
276 1 -9.46318 -2.63391 -13.2118 24
277 1 -12.52 -0.263765 -13.297 16
278 1 -9.25021 -15.8297 9.33488 8
279 1 5.25833 0.655928 9.82272 19
280 1 6.63972 -4.97525 6.73414 24
281 1 -4.57816 -5.02628 -14.854 19
282 1 3.46757 -3.6771 6.87191 19
283 1 -2.60431 4.61803 -11.7221 20
284 1 7.19533 10.17 -2.6814 21
285 1 -8.67883 -9.68015 1.684 21
286 1 4.16456 9.81093 -1.88888 21
287 1 -8.82949 -4.47047 10.5134 21
288 1 -8.88905 -8.31516 -10.1816 17
289 1 -7.04583 -5.4169 -12.5175 19
290 1 -2.21954 6.49018 -17.0844 13
291 1 -5.90818 -9.76614 -8.85312 20
292 1 -3.63986 -9.53298 -0.450798 22
293 1 8.35984 -5.89175 -16.7121 11
294 1 12.8726 -1.53406 -10.9493 14
295 1 9.79585 6.76462 -0.223194 19
296 1 -4.87061 -4.00107 -4.85158 21
297 1 -10.9671 -3.46391 8.09355 19
298 1 -4.70015 -12.4385 -1.97157 21
299 1 6.25949 6.79829 13.6802 17
300 1 -8.1647 -14.7115 3.36922 20
301 1 2.02196 3.99108 -5.40484 22
302 1 -2.13528 -12.2403 -1.13824 25
303 1 -3.19507 17.1691 -5.1319 10
304 1 6.3057 0.191118 -16.6479 23
305 1 -6.49165 -1.73268 -19.6615 14
306 1 0.649452 -7.69921 -2.4696 21
307 1 -11.4234 -8.69303 10.1386 13
308 1 3.02711 10.5466 17.2197 8
309 1 -0.670905 -10.7969 -3.33173 22
310 1 -1.31262 -10.9879 -13.5826 21
311 1 -12.7177 4.46622 -9.05057 16
312 1 9.99575 8.22551 3.21347 19
313 1 -8.26793 3.27538 -13.3725 22
314 1 0.113264 5.31467 -13.5798 20
315 1 -4.35897 -4.88475 5.85762 21
316 1 2.74519 -11.9127 -10.4105 17
317 1 -7.2121 14.8731 -2.24122 14
318 1 4.2333 10.4115 4.22806 15
319 1 10.0642 1.63232 3.005 21
320 1 -13.1711 -0.787984 3.69579 20
321 1 -6.90528 -8.20528 9.21856 17
322 1 -9.59639 9.11748 3.46603 24
323 1 2.37469 -3.08985 -14.6939 22
324 1 12.6631 7.39965 -5.91491 16
325 1 3.14279 -12.8662 -0.947186 16
326 1 -3.33183 -1.01737 13.3801 17
327 1 -16.9111 -4.28409 4.33701 13
328 1 0.304399 -17.0336 -7.62202 13
329 1 -8.20331 6.98625 12.7482 17
330 1 -10.5791 5.16594 12.7625 15
331 1 -15.8417 -4.32046 7.65618 11
332 1 -14.7836 -6.67244 5.57196 17
333 1 14.3003 -4.64725 -2.32699 12
334 1 -13.174 -9.22495 7.08335 16
335 1 7.4438 -0.956058 -9.14454 21
336 1 9.64674 -13.3237 -7.66253 10
337 1 2.88665 17.896 -5.84361 13
338 1 -4.27638 -3.62362 2.51347 21
339 1 -10.3886 9.05282 -2.77348 18
340 1 -1.90584 -0.740545 6.50192 20
341 1 10.6201 10.4072 8.33578 21
342 1 -11.4765 -3.48319 2.09465 20
343 1 5.56624 -8.3695 -6.90718 19
344 1 -4.49482 9.44418 -2.30931 21
345 1 -3.40005 6.71506 2.96147 20
346 1 2.958 -12.1274 5.54994 15
347 1 9.52895 -0.885818 4.06458 20
348 1 -3.51161 2.99631 8.1198 20
349 1 -5.26914 -2.79883 -7.87466 19
350 1 -2.25204 0.599154 16.4371 13
351 1 -2.93627 12.5475 1.70914 18
352 1 8.8001 8.82083 14.2703 11
353 1 -10.3545 12.4025 -7.79274 13
354 1 0.499225 -4.06269 -22.381 8
355 1 -9.62201 1.85106 -7.9017 22
356 1 4.1722 -10.0993 -15.6283 17
357 1 -11.0347 2.00174 10.7041 21
358 1 -12.8767 1.13644 -2.10852 21
359 1 -4.32807 -4.64428 -10.6333 20
360 1 -6.92339 10.1739 1.63685 21
361 1 4.0971 -1.09831 5.55208 21
362 1 -12.7408 -13.8194 -0.1665 12
363 1 4.48473 -8.73294 3.86331 19
364 1 -9.26811 -10.2578 10.2623 14
365 1 -16.972 7.3808 -1.8619 14
366 1 -3.16621 -6.07678 11.0751 11
367 1 1.27947 -11.4367 -7.86732 20
368 1 -6.42203 -2.43631 -11.1511 20
369 1 7.55393 -2.70121 -16.8868 19
370 1 2.26326 18.4533 -2.01869 13
371 1 -9.49457 -0.653538 -2.61374 22
372 1 1.69064 -6.24118 -12.8585 20
373 1 10.8927 4.88104 -15.513 14
374 1 -6.68353 -13.3994 -11.2592 10
375 1 -13.2043 -6.07136 -6.62327 15
376 1 -4.51392 -6.66701 -2.27183 23
377 1 9.17349 6.20674 12.2019 17
378 1 11.3308 2.64744 -3.10194 19
379 1 -11.2689 2.70434 -13.3981 18
380 1 1.14758 16.4761 -3.84171 20
381 1 -17.1053 1.03825 -7.08162 10
382 1 -11.271 7.15947 6.08162 20
383 1 -8.0281 12.7933 -0.298067 19
384 1 -6.19132 5.65117 4.99244 20
385 1 5.92738 0.957613 12.9266 21
386 1 9.9068 -4.69423 -6.63942 19
387 1 9.17891 -2.21683 12.44 11
388 1 12.5307 -0.0245621 -8.01622 19
389 1 -4.33719 -15.9409 -7.11294 12
390 1 1.03034 3.20685 4.2254 21
391 1 -5.45151 6.63901 -4.02698 21
392 1 -0.980788 -6.21135 -7.47865 20
393 1 1.84447 9.21649 0.912764 15
394 1 6.53872 1.52758 -3.57422 22
395 1 -11.4608 0.641016 -5.17392 18
396 1 2.32993 -10.3054 -2.58514 19
397 1 7.96743 0.102152 7.02863 18
398 1 -10.9274 -4.03772 -8.19642 18
399 1 -6.48711 -11.0722 -0.197409 21
400 1 -9.04602 -7.22641 11.5532 16
401 1 -5.58517 11.6979 -5.95771 19
402 1 -9.60332 -10.6352 -4.32772 19
403 1 6.37859 11.1011 14.0011 13
404 1 -10.9972 5.92949 -4.16143 18
405 1 -0.939677 9.04116 -12.7031 21
406 1 4.15126 13.8799 4.49546 20
407 1 -13.4075 -5.78824 -3.85784 17
408 1 -2.53504 -6.60185 -10.2948 19
409 1 -12.5143 -1.1878 6.7439 20
410 1 -13.8481 8.13869 -4.64698 19
411 1 1.71652 -7.92668 4.26133 18
412 1 -5.79939 -14.1996 -5.05909 18
413 1 10.5088 12.5652 6.26798 20
414 1 5.62115 6.11038 -15.4629 16
415 1 -14.6759 6.63744 -10.7457 9
416 1 -3.01686 14.7343 -7.59148 16
417 1 -8.12927 6.24239 -5.56611 20
418 1 -2.09155 -14.3864 1.94488 22
419 1 12.9404 6.26981 4.08259 16
420 1 -0.14199 7.52548 -15.1224 15
421 1 -3.28303 0.724322 9.98762 21
422 1 -15.4037 2.60038 -0.770246 15
423 1 -8.87796 6.01421 4.07979 22
424 1 -5.15489 -15.0468 2.25608 17
425 1 1.24841 -3.80896 -7.69667 21
426 1 4.1062 -8.46154 -12.1492 20
427 1 -1.26497 -3.68001 5.36304 20
428 1 -13.7387 2.88802 2.96372 17
429 1 -16.0747 -1.06748 8.75659 10
430 1 -14.862 7.28793 5.81602 13
431 1 -2.04317 -4.57035 7.69593 21
432 1 -9.15395 2.52444 -16.7243 14
433 1 5.11062 -10.1865 -9.76959 23
434 1 -1.14056 -5.7195 -14.8841 18
435 1 -5.55577 -5.087 8.96469 22
436 1 2.5024 -6.77967 -7.36424 20
437 1 -6.07418 1.87356 -15.6227 17
438 1 7.48047 -8.88995 -1.12143 21
439 1 2.24621 11.0261 -7.20879 19
440 1 -12.6046 10.1717 5.76899 15
441 1 -6.46963 -2.76962 13.9965 12
442 1 -13.2388 -6.36272 -12.4889 9
443 1 -9.20362 -6.1727 4.76808 20
444 1 9.29415 -6.04658 7.87817 12
445 1 6.48408 1.5099 -0.84626 19
446 1 -6.49267 4.75713 2.24202 21
447 1 2.16674 -0.976519 -9.39689 21
448 1 8.98863 -5.58242 4.60236 19
449 1 12.26 6.69556 -9.15664 20
450 1 -2.95135 5.29247 14.1108 22
451 1 1.25533 10.6693 -2.28589 21
452 1 4.29368 -4.15714 3.52759 18
453 1 -1.90643 -14.0572 -8.69507 18
454 1 -5.35885 6.46294 15.4369 13
455 1 -3.00294 15.3995 3.06836 17
456 1 -10.1575 -9.64003 -7.59189 16
457 1 6.84053 15.9464 -1.49601 12
458 1 1.52298 5.72891 9.79437 21
459 1 -7.53271 2.68504 7.20352 24
460 1 -5.42457 -7.91172 -5.20076 21
461 1 -10.6234 3.18284 7.8436 20
462 1 -10.0496 -6.41152 -7.95537 22
463 1 -6.4949 10.3804 5.00104 21
464 1 -4.9349 -12.8873 -7.55237 15
465 1 -1.44512 -3.6047 -20.0102 16
466 1 -7.81284 -13.9116 0.248656 20
467 1 -8.17121 -3.43762 2.02774 19
468 1 6.4195 2.17821 4.33546 20
469 1 -6.58579 -5.70867 11.8484 13
470 1 -8.90233 6.41264 -12.5457 21
471 1 7.84029 6.39352 -4.48476 19
472 1 -9.06792 -14.5444 -4.65504 13
473 1 3.88428 3.35451 -10.4783 24
474 1 -1.12142 17.795 -2.63636 14
475 1 -0.824149 5.18483 -7.51272 20
476 1 -3.91126 7.70244 9.43081 23
477 1 -17.3742 -2.71311 -4.10689 10
478 1 -1.14428 14.4435 -4.90642 20
479 1 4.51122 11.1243 -9.89528 23
480 1 -7.83724 -8.53222 -13.536 13
481 1 1.83178 4.50151 16.32 16
482 1 -0.300012 -11.644 -10.2659 21
483 1 -0.393883 -1.79546 -14.3999 19
484 1 6.07052 -13.2332 -0.256052 14
485 1 -12.4231 8.4854 3.60297 18
486 1 2.11443 6.62522 13.4323 22
487 1 4.22642 6.49103 -6.29681 18
488 1 3.58942 6.65927 -2.95069 23
489 1 -10.1557 11.0125 -13.7439 8
490 1 4.31735 0.939186 -8.73803 23
491 1 -0.891644 -7.97771 2.62764 19
492 1 -16.0964 -5.50505 -2.07646 12
493 1 3.38191 16.7271 4.82968 11
494 1 -5.39332 8.13539 -16.1834 10
495 1 7.79646 4.12409 -1.83214 22
496 1 4.49146 13.9292 -11.3839 13
497 1 3.50154 -7.27105 -0.911606 21
498 1 16.0547 3.41731 -3.31324 7
499 1 1.0425 1.85741 -10.7185 22
500 1 -0.552151 -9.94431 -0.55688 20
501 1 -1.2395 -14.4674 5.1209 15
502 1 0.849981 -9.33503 7.33314 17
503 1 -9.97192 3.92654 -10.2628 22
504 1 -11.5474 -14.38 4.30918 14
505 1 -1.0806 -14.5411 -11.8498 15
506 1 6.82137 15.8367 4.38654 16
507 1 -1.25834 1.70203 -12.906 21
508 1 4.11769 1.80693 15.6722 16
509 1 -13.9511 1.71842 9.2727 15
510 1 -2.5762 -18.1046 -2.74375 15
511 1 -12.2573 -1.84336 -0.905407 18
512 1 13.7608 -6.1495 -8.65867 13
513 1 10.9029 -3.9186 -3.38151 20
514 1 -4.79697 8.57445 -5.81472 19
515 1 0.843616 -6.46597 -10.1245 23
516 1 5.87483 4.28855 -12.6611 24
517 1 9.57747 -8.20662 -11.104 18
518 1 -5.30457 0.77423 15.7082 16
519 1 4.52915 15.349 -3.47197 19
520 1 -5.12885 1.11473 -19.5988 12
521 1 6.04467 0.389 -19.9974 14
522 1 -6.55479 -4.30165 4.71272 18
523 1 -4.18206 14.1573 -2.59474 17
524 1 -8.71275 -2.67509 -16.0978 17
525 1 -17.2744 1.1841 1.4399 10
526 1 -0.992839 -7.94618 -17.2719 17
527 1 -8.02219 -10.4855 7.30948 16
528 1 -2.0251 10.1564 -10.0157 20
529 1 13.2003 3.54225 6.10416 11
530 1 14.4949 7.03233 -0.737521 11
531 1 -10.9607 -12.7677 -2.89083 14
532 1 -1.94938 -7.72655 -4.64758 23
533 1 -3.24885 -0.786375 -21.2516 12
534 1 -7.59956 10.9849 8.20885 16
535 1 5.97762 -3.7215 -9.241 19
536 1 4.38044 4.48112 -0.779673 23
537 1 10.9816 -7.78649 -5.02365 18
538 1 1.14692 14.1101 -12.7334 13
539 1 1.57037 -8.06272 1.01383 21
540 1 14.0552 4.24937 -11.2936 14
541 1 4.45303 8.95204 12.7418 22
542 1 -9.96253 1.22546 5.94996 20
543 1 3.7723 8.28195 6.3612 19
544 1 6.67842 -0.565654 15.5353 12
545 1 2.93134 0.971166 -18.0014 21
546 1 -6.68467 -7.55271 -7.62738 22
547 1 -2.16195 -1.99236 9.36396 17
548 1 7.58644 12.8992 5.16645 20
549 1 8.23358 6.22878 -12.9282 19
550 1 -11.2761 10.0708 -8.44892 17
551 1 -3.06113 12.0338 -3.85048 21
552 1 10.2499 -2.96593 9.7156 13
553 1 11.0216 -0.26194 -13.2506 16
554 1 11.3328 -10.7655 -6.97627 13
555 1 10.4816 13.6906 8.95221 11
556 1 -14.933 -6.69396 -0.137942 15
557 1 -7.57315 11.0722 -13.0224 10
558 1 0.100066 0.709736 8.62535 21
559 1 -14.2984 -0.553886 11.2346 11
560 1 -7.61401 8.35414 -10.2866 18
561 1 2.66641 -12.4472 -4.55921 18
562 1 4.23945 -1.87104 -10.7849 22
563 1 -5.60565 14.9533 -5.42299 15
564 1 -7.98695 -4.98277 -15.1627 16
565 1 3.06879 -15.17 1.07225 16
566 1 -12.4569 -5.1544 -0.739677 23
567 1 2.23057 8.59565 -12.0237 16
568 1 -7.01884 3.40699 -7.38784 19
569 1 -2.87616 9.96185 11.335 19
570 1 -11.8257 -6.32156 5.47834 17
571 1 6.37889 7.08002 -1.62144 22
572 1 -2.9288 -9.27297 -10.9898 22
573 1 2.79381 -6.94323 9.08026 18
574 1 7.88936 -2.04819 -5.91336 18
575 1 -14.4085 6.80202 1.02384 16
576 1 3.03078 7.74776 15.7359 17
577 1 4.31114 13.7939 -8.10702 15
578 1 10.8822 -7.28917 -8.57312 21
579 1 0.0529422 4.91914 12.8447 20
580 1 1.27792 3.23181 -19.5076 11
581 1 -6.98816 -13.4725 8.8913 14
582 1 -1.36203 2.33573 -8.78541 19
583 1 8.59426 -1.96555 -19.7334 11
584 1 0.107137 15.201 2.38007 20
585 1 11.3963 5.69798 -11.9868 21
586 1 -1.97149 -0.988173 -18.3998 19
587 1 -3.64964 -9.95924 -3.34875 18
588 1 -11.3645 -4.81308 -14.7532 13
589 1 10.1825 3.43288 0.0410669 20
590 1 13.8771 4.48245 -5.07767 14
591 1 7.98013 -8.64017 -9.09786 21
592 1 13.2681 9.05258 8.68202 16
593 1 3.61761 -10.1216 -6.241 19
594 1 5.49268 3.07741 -18.0744 12
595 1 5.12218 13.1919 -1.12152 22
596 1 -9.5142 4.1215 1.04367 21
597 1 8.85157 10.8914 11.256 16
598 1 10.3741 5.00932 -6.63337 20
599 1 13.6898 -1.73993 -0.52755 15
600 1 13.9007 5.40545 -14.0728 11
601 1 10.7384 0.692605 10.6416 13
602 1 14.4854 5.92954 7.53633 11
603 1 4.50662 -6.51412 6.27295 21
604 1 11.8701 10.3581 -5.32475 14
605 1 7.64783 -0.530738 1.98565 19
606 1 1.2137 1.17557 16.6583 13
607 1 14.7318 -0.899315 -6.36529 14
608 1 2.44361 2.27265 9.9035 22
609 1 -9.42884 -1.27952 -9.57134 20
610 1 12.6291 5.76526 0.87744 19
611 1 6.95879 -3.35116 1.1271 20
612 1 -1.73357 -7.31897 -0.865479 21
613 1 -11.4232 8.08786 11.9109 12
614 1 7.76284 12.6961 8.08778 20
615 1 7.09309 5.43833 9.66672 23
616 1 1.68754 11.1908 6.49176 22
617 1 0.302097 13.9851 9.0061 12
618 1 4.28034 4.26132 5.48361 23
619 1 -2.85707 -20.5212 -0.333963 10
620 1 -7.26603 9.35006 -4.26074 18
621 1 11.385 9.01801 -11.0059 16
622 1 8.87853 -1.74052 -14.5301 20
623 1 -0.353751 14.0246 -2.28571 21
624 1 -3.89593 -12.1454 -12.5937 18
625 1 4.16866 -7.07218 -14.6747 20
626 1 -13.2116 2.2974 6.14071 21
627 1 -6.16947 4.44114 -11.2062 22
628 1 -5.62622 -19.7191 1.12215 11
629 1 -6.72917 -2.39698 -14.1119 21
630 1 -14.3767 -0.242828 -5.49448 19
631 1 9.23246 -3.64932 2.61902 24
632 1 11.1143 12.7309 0.398508 16
633 1 -1.11351 -7.2323 5.70065 20
634 1 -14.4688 -0.0539203 -9.23609 15
635 1 3.09223 0.700379 -21.064 9
636 1 1.32093 -2.68414 4.20597 19
637 1 -4.03103 7.51375 12.6115 20
638 1 5.21149 8.50325 -14.6896 16
639 1 12.6036 -0.0578638 8.67544 9
640 1 8.63152 3.7302 -8.77615 19
641 1 9.88153 14.6934 -0.442239 10
642 1 1.19612 -14.4744 -9.22764 16
643 1 -11.4927 -2.32917 10.7597 18
644 1 13.2237 -0.801775 2.36815 13
645 1 0.103618 10.502 9.42907 17
646 1 6.31935 11.2909 -12.7542 13
647 1 -16.5013 9.89285 -6.17726 12
648 1 7.98387 11.8842 -0.0714607 20
649 1 -9.90902 -15.3547 -1.35887 13
650 1 12.2664 -3.89796 1.07647 13
651 1 4.09151 16.2591 -0.672817 21
652 1 -5.71782 2.67731 10.2748 22
653 1 -11.6306 -8.14473 0.583924 20
654 1 -12.2543 -2.17936 -11.0001 17
655 1 8.0284 2.22413 9.60921 21
656 1 -5.62349 -11.1734 9.2839 12
657 1 5.10084 7.76427 8.69273 21
658 1 -7.1117 8.86871 -1.04304 19
659 1 7.64237 2.87873 1.54273 17
660 1 6.25534 -5.59594 -1.1864 19
661 1 7.85318 5.29323 4.3116 21
662 1 2.91869 -1.79878 -20.1714 16
663 1 -10.1049 -0.52856 3.08739 19
664 1 6.7877 -1.0875 -11.8476 23
665 1 -3.91753 -5.59019 -7.28585 22
666 1 10.0984 -11.0671 -10.1411 10
667 1 6.72715 7.26061 6.4713 22
668 1 4.66325 6.9878 3.87041 22
669 1 -11.6436 0.150168 13.4057 12
670 1 10.0694 7.48899 6.42123 20
671 1 -1.05634 -3.20063 12.38 15
672 1 -3.17625 4.72664 10.4458 21
673 1 0.0552854 -4.49117 -17.3617 19
674 1 -5.79369 0.692575 12.5564 20
675 1 -4.37102 4.3924 -5.71358 19
676 1 2.86376 3.0157 13.2487 18
677 1 -9.80843 -16.5947 5.84505 12
678 1 15.1428 6.78679 -3.82489 11
679 1 7.29484 -11.2041 -6.85697 22
680 1 -3.71052 4.16264 -8.89519 20
681 1 5.72854 8.58912 -4.61318 21
682 1 7.57448 16.9078 1.04898 11
683 1 5.34053 -2.96414 -19.8671 15
684 1 -3.94043 -0.984242 4.48735 21
685 1 0.112256 16.1249 -6.88116 17
686 1 11.8234 9.49603 0.395718 21
687 1 -6.91517 -9.25842 -2.45013 23
688 1 -1.80054 1.53327 -20.4005 12
689 1 -9.79723 10.2083 0.102701 20
690 1 6.81923 -6.678 -12.8977 23
691 1 7.18065 6.37183 1.22536 22
692 1 11.2239 7.64923 -13.842 13
693 1 8.6771 9.18289 -5.61381 20
694 1 -2.75593 4.67352 5.18207 18
695 1 -6.8033 4.22109 -0.510245 21
696 1 7.4796 6.39134 -7.20972 20
697 1 9.9862 4.13038 10.6529 17
698 1 9.10139 1.1493 12.4907 15
699 1 -3.45496 -13.1739 7.50992 14
700 1 -6.01904 7.14754 -13.1857 20
701 1 4.79694 12.4104 7.27852 21
702 1 4.97615 -7.36382 -17.5194 15
703 1 2.45099 2.75623 7.28513 21
704 1 7.57901 12.6242 -7.27764 15
705 1 6.1979 13.4458 2.13135 21
706 1 13.468 -8.18692 -6.46482 12
707 1 5.72428 8.42049 16.0432 13
708 1 -13.1399 -3.65226 4.76117 18
709 1 3.14747 -18.5829 -2.97512 12
710 1 -0.966006 -0.650217 -11.1745 22
711 1 -10.876 13.2946 0.878156 14
712 1 -0.739104 7.15026 5.05284 20
713 1 4.20021 -4.60104 -6.07014 18
714 1 2.95478 14.0346 1.50263 20
715 1 -14.2439 -2.90729 0.85642 18
716 1 -4.05499 3.32085 15.8065 17
717 1 -1.23348 3.75371 -15.8049 20
718 1 -8.47308 8.1758 -14.851 13
719 1 1.06332 -13.3979 -2.49842 18
720 1 8.73087 6.55585 -10.0694 19
721 1 0.918964 -4.98546 2.56228 19
722 1 -1.38842 7.84666 0.552138 18
723 1 -13.7451 5.93149 10.8244 10
724 1 5.89214 -4.2618 -15.0272 21
725 1 0.172754 -12.7769 7.00519 12
726 1 2.17821 13.7959 -2.15306 21
727 1 -3.44728 2.34503 12.5935 20
728 1 -9.633 -6.40122 -13.0679 14
729 1 -4.4211 -7.88944 -16.5906 13
730 1 -8.49201 -11.3791 -9.15717 15
731 1 -0.425222 16.0418 -10.108 11
732 1 5.82933 -6.86327 -10.1396 21
733 1 -3.45117 11.1374 4.67729 19
734 1 1.81428 -8.8104 -9.99317 20
735 1 7.1457 -14.768 -2.71023 10
736 1 1.1488 -5.71772 7.16759 19
737 1 14.4627 2.42113 -8.28054 13
738 1 -0.090681 -13.7842 -5.80642 23
739 1 -8.16456 -1.24853 7.4257 19
740 1 1.54135 2.03812 -7.69411 25
741 1 -5.45987 -18.3278 -1.70232 13
742 1 -6.24054 -10.6897 -6.04046 18
743 1 -10.9699 0.155929 8.78672 19
744 1 -7.46779 -17.0364 0.427953 15
745 1 12.6735 2.09685 -5.90569 17
746 1 -5.15007 14.846 0.516676 20
747 1 -8.40942 3.03812 4.27644 23
748 1 -16.6745 6.81299 3.36866 9
749 1 9.40469 -4.47374 -0.969464 19
750 1 -14.2516 -3.17844 -13.3594 9
751 1 0.0413468 11.636 -4.82763 19
752 1 9.32186 0.992103 -10.6762 21
753 1 5.76588 11.9552 10.8122 18
754 1 8.52016 3.53402 -4.94736 21
755 1 -12.2855 1.18468 -10.3987 19
756 1 -12.3632 -8.12778 -9.18976 12
757 1 -2.7379 6.87447 17.0898 9
758 1 2.90032 5.92414 -11.5048 22
759 1 9.59639 13.987 3.16861 15
760 1 -5.23487 -2.17936 7.80213 20
761 1 -1.99089 -16.0652 -6.06106 19
762 1 -6.907 -16.2711 7.09678 12
763 1 -6.50839 -7.16739 6.0208 24
764 1 13.3924 11.932 7.09664 14
765 1 -0.656773 -7.64587 -12.7542 19
766 1 -8.36059 6.4635 -2.3896 21
767 1 5.46049 10.558 0.409448 17
768 1 -9.79899 -6.12995 0.997919 23
769 1 8.50788 7.50647 -15.7431 12
770 1 -2.44277 -16.7982 -9.59282 10
771 1 0.0853222 -19.1718 -2.21845 14
772 1 -1.17189 -14.846 -3.23726 22
773 1 6.5904 1.99114 -9.86069 23
774 1 5.30471 18.2712 -3.58211 9
775 1 -3.52044 2.58064 -17.3515 15
776 1 0.393922 -0.971446 14.3223 17
777 1 0.954272 6.09218 -17.9499 13
778 1 -11.8686 -1.74047 -15.7439 14
779 1 -11.5592 -3.01261 -3.47404 18
780 1 2.86658 16.2561 -8.80413 13
781 1 8.37554 -1.46974 -2.32536 19
782 1 -4.37025 -4.10969 -20.4476 13
783 1 -7.43651 -5.89264 -3.00119 23
784 1 12.122 3.53939 -9.52753 20
785 1 9.68025 -9.21039 0.960816 15
786 1 -6.89128 7.88153 10.0727 24
787 1 4.26648 -9.91537 0.141933 19
788 1 11.7624 -6.7581 -0.902931 16
789 1 10.8666 -0.154936 6.4139 17
790 1 -1.11996 10.2734 6.37741 18
791 1 -12.7986 3.1213 12.666 10
792 1 -8.67785 3.94148 10.5271 21
793 1 -4.00402 -12.4915 4.54208 18
794 1 9.89729 -1.11184 0.406407 21
795 1 3.59171 9.97792 9.63445 24
796 1 -16.2204 -1.35049 -0.568992 16
797 1 5.87858 -6.24441 -4.30541 19
798 1 -13.3485 11.0767 -6.10544 16
799 1 4.25561 7.62638 0.963841 19
800 1 -0.140089 -16.3091 2.65984 16
801 1 3.17129 0.253746 12.3016 22
802 1 1.53159 12.2639 3.15068 20
803 1 0.28142 -10.9141 4.57672 19
804 1 -7.88141 0.878519 -5.65414 20
805 1 0.0850622 1.47124 12.2236 19
806 1 -16.2804 -4.96984 -5.36449 11
807 1 -0.292717 11.4138 13.0101 14
808 1 3.96302 11.8074 -3.5587 20
809 1 -12.303 -11.4738 2.75804 18
810 1 -5.36671 -18.2309 4.05668 11
811 1 7.11671 -8.19611 6.42014 17
812 1 9.47546 -3.09413 6.55979 18
813 1 9.02923 10.0506 6.06021 21
814 1 -3.1532 6.913 -1.76132 20
815 1 -4.09585 -7.17215 -13.2649 22
816 1 -3.45673 0.252887 -15.9191 18
817 1 -6.02573 -1.6859 10.1373 20
818 1 -2.39185 15.9483 -0.380934 20
819 1 13.3427 2.78181 2.67129 14
820 1 -0.362765 7.35328 -10.3557 19
821 1 -6.19125 9.46102 13.2139 11
822 1 6.74046 9.94189 7.60412 21
823 1 7.26184 -3.56733 -12.3028 21
824 1 -7.39394 -12.0982 -3.21083 23
825 1 -6.44179 -0.493754 -8.05843 18
826 1 13.3491 0.871226 5.02605 13
827 1 1.59792 -0.741397 -12.641 20
828 1 -1.01876 8.19718 13.5497 22
829 1 7.30628 -11.9436 -10.6141 12
830 1 8.37809 1.44973 -18.8979 10
831 1 -3.57582 -8.43006 -7.70739 20
832 1 12.8417 2.30761 -14.3434 10
833 1 13.3913 -8.09736 -3.142 11
834 1 1.13344 -5.64218 11.383 12
835 1 -3.39228 -5.28347 -17.7009 21
836 1 7.33067 12.7837 -4.07704 15
837 1 -1.70008 -5.10465 3.22154 18
838 1 -16.1387 4.3342 4.8612 12
839 1 10.0862 1.45606 -7.8205 20
840 1 14.0578 8.81016 2.31895 16
841 1 3.40445 -4.60169 -16.7978 16
842 1 -8.84755 12.7234 3.04066 21
843 1 15.0966 11.3063 4.32695 12
844 1 9.92643 10.8218 -8.30972 15
845 1 3.00125 0.350312 -15.0933 20
846 1 8.92276 -7.01188 -2.52004 23
847 1 -14.8686 -1.75259 -2.93865 16
848 1 8.40609 8.93145 0.383704 21
849 1 -12.8696 -8.28835 -2.15296 16
850 1 -11.8223 8.84069 -11.3066 15
851 1 3.0385 -0.848565 8.64807 21
852 1 -12.1998 -1.00607 -7.705 20
853 1 -10.8276 4.13367 4.90926 17
854 1 -3.89761 1.47672 -10.933 20
855 1 9.5146 -8.09555 -14.1452 13
856 1 -11.8065 -8.58192 -5.81844 17
857 1 8.41882 -9.91894 -3.58003 19
858 1 -17.0713 4.29711 1.5039 10
859 1 -7.53384 -4.89025 -6.04866 23
860 1 12.5485 9.11922 5.27082 20
861 1 -5.42321 -9.34971 1.90628 18
862 1 6.84126 3.66201 12.0656 19
863 1 12.0099 -2.59534 4.29634 14
864 1 6.90446 -2.46475 4.89119 22
865 1 -12.2304 3.55141 0.00503647 20
866 1 1.24395 8.11945 8.02646 22
867 1 0.966422 10.4474 -9.76002 20
868 1 -1.55435 -6.43771 -20.3555 13
869 1 -6.14569 15.544 3.40111 14