ITEM: TIMESTEP
8000
ITEM: NUMBER OF ATOMS
1000
ITEM: BOX BOUNDS pp pp pp
-30.0 30.0
-30.0 30.0
-30.0 30.0
ITEM: ATOMS id type x y z Coordination
1 1 -5.26934 -9.57714 -10.5152 11
2 1 7.37066 -11.9661 3.02658 12
3 1 -11.297 7.22443 -1.08079 12
4 1 -10.3794 4.41727 -6.95715 9
5 1 -2.49804 -6.11563 9.43847 16
6 1 -9.05807 -0.96315 -9.96309 15
7 1 -3.46598 -13.1294 0.637965 15
8 1 5.93553 -3.25411 5.15555 19
9 1 -0.198563 5.01301 6.69598 20
10 1 -2.8339 11.5153 -7.25348 11
11 1 0.726754 2.93318 12.0049 11
12 1 -8.27755 -3.35082 0.571633 18
13 1 -3.2172 -0.0326635 -11.0528 18
14 1 0.784974 4.22533 9.67166 12
15 1 0.707247 -11.5079 4.82096 18
16 1 -11.7397 -0.379153 0.894461 13
17 1 -7.51412 -2.15181 -3.28507 19
18 1 -3.55478 12.1619 1.78171 12
19 1 1.34906 -1.25586 -14.2504 17
20 1 5.89102 -6.4353 -9.49085 20
21 1 -4.83208 -8.15104 8.75576 13
22 1 -11.0934 3.74957 -0.872479 13
23 1 0.830526 11.5092 -3.04676 13
24 1 1.7397 -12.0694 1.71167 20
25 1 8.167 -9.21212 -8.73999 18
26 1 8.10708 -0.294999 5.58519 21
27 1 -7.10782 9.79242 -5.97316 13
28 1 2.73598 4.87221 5.21521 23
29 1 3.7682 -3.06342 10.3891 16
30 1 -8.59644 -4.62871 -1.97386 16
31 1 11.212 2.01901 5.72828 16
32 1 5.49118 -7.8715 -4.63238 21
33 1 5.11192 -0.775424 7.01936 19
34 1 -6.23442 -5.7022 0.564833 19
35 1 -4.55482 -6.5413 -10.6311 15
36 1 -7.59228 11.8471 -2.68647 12
37 1 -5.01353 6.04234 -10.749 15
38 1 7.61236 -5.00082 -5.40158 21
39 1 7.78854 -7.86224 4.0259 20
40 1 6.78429 -9.35316 7.37417 17
41 1 -2.79447 6.93102 3.30722 21
42 1 -7.66263 -8.43426 3.50827 18
43 1 -8.71541 -0.594002 5.87493 19
44 1 10.6922 -9.27479 -7.23929 13
45 1 2.99794 -2.62429 -16.1554 9
46 1 -0.232764 12.5896 -0.162559 11
47 1 -5.08033 6.57272 -5.49835 19
48 1 2.62349 7.90099 -0.0766636 18
49 1 -5.21172 -10.1988 5.88627 14
50 1 -0.201704 -12.3001 -11.3787 10
51 1 4.71438 -8.55501 -8.07485 21
52 1 0.708554 2.11535 5.87973 20
53 1 -10.66 -11.352 -3.84904 11
54 1 10.4108 -5.9217 3.95784 16
55 1 -7.88942 -11.6309 -6.04102 13
56 1 8.02179 -5.51664 1.88157 19
57 1 -3.39583 4.4157 1.89397 23
58 1 2.58223 3.0332 -9.41751 21
59 1 10.519 -7.24792 1.14704 16
60 1 -7.50693 -13.0987 -2.99222 16
61 1 9.95596 8.18812 2.68792 11
62 1 8.75727 2.38816 -3.07275 18
63 1 -2.01702 11.9122 -4.20711 16
64 1 0.136882 -8.86569 -11.1525 16
65 1 -0.771949 8.90394 -7.76039 19
66 1 11.9675 -2.23223 -7.75531 15
67 1 3.14005 1.15646 -15.2936 16
68 1 9.19715 -10.3301 2.52774 15
69 1 -5.44991 4.05701 -7.36604 17
70 1 6.09254 11.9532 -4.00043 13
71 1 11.3057 0.34958 -6.64364 14
72 1 -3.66979 9.18061 -5.67802 17
73 1 -1.70816 -6.05714 -11.8525 16
74 1 -11.7555 -4.67628 -6.32472 12
75 1 -5.51108 7.97321 5.25387 15
76 1 0.498393 11.9034 -6.37453 15
77 1 2.39022 -0.149636 11.8899 13
78 1 -14.5397 -5.89087 0.687121 9
79 1 -4.80064 -13.6344 4.19874 9
80 1 2.47658 8.1545 -3.11509 21
81 1 8.65057 5.01554 -8.79442 16
82 1 -1.22512 -8.65373 9.64818 14
83 1 -8.89111 -0.370791 -0.817496 18
84 1 -2.362 2.29758 10.3719 12
85 1 -5.96581 0.908463 -8.82513 19
86 1 -4.02043 -8.01829 4.42976 16
87 1 -9.56931 -11.7894 -0.623316 13
88 1 6.18767 -10.2684 -3.21262 18
89 1 -2.1101 8.01196 0.836739 19
90 1 -6.38015 -0.0137458 4.1012 22
91 1 -7.35172 -1.91951 -7.42589 21
92 1 -0.301187 -14.6462 0.809886 12
93 1 5.31483 3.82724 -8.12788 17
94 1 5.00378 0.612506 9.53847 14
95 1 -0.539029 2.92576 -10.6923 19
96 1 -5.81301 -5.25426 -13.1886 7
97 1 -5.62791 9.34818 -2.99531 18
98 1 8.76722 3.42862 7.07935 16
99 1 -3.06249 8.10284 -10.046 14
100 1 1.8839 4.71988 -11.5719 18
101 1 -8.09524 2.98029 4.36952 21
102 1 -3.34585 5.25936 5.67755 20
103 1 0.435783 -13.5398 -8.69247 10
104 1 7.87775 7.30674 -10.7621 9
105 1 -0.625153 9.10148 -4.35466 23
106 1 -10.8962 2.10898 2.55861 17
107 1 2.18485 6.51681 7.92631 10
108 1 13.6875 -0.0579657 -1.64687 16
109 1 3.55395 7.48101 3.04732 22
110 1 -10.7093 5.04113 4.72585 13
111 1 -9.46544 -6.34074 -3.7846 17
112 1 3.63494 -3.66272 7.32852 20
113 1 3.48097 -12.8807 -7.23806 15
114 1 -1.88359 -1.49132 -14.6712 11
115 1 9.59508 -3.67418 -9.35584 18
116 1 -11.5655 -6.66708 1.16409 18
117 1 -8.53282 -4.16872 -11.7982 10
118 1 -7.22251 -1.96992 -12.3115 13
119 1 -11.5888 1.90285 -6.37119 10
120 1 10.803 -2.61466 8.13328 11
121 1 5.8644 -6.24802 6.662 24
122 1 2.96606 -6.05415 5.62661 21
123 1 5.55307 12.7327 -0.808241 10
124 1 -4.65851 -10.2653 2.77592 20
125 1 2.61863 12.5888 1.30421 10
126 1 -2.52879 -9.52813 -12.6187 8
127 1 -4.81673 -8.32105 -7.83165 20
128 1 -2.81976 -9.17283 0.305799 17
129 1 8.69382 3.01712 3.925 22
130 1 -10.496 -4.44925 8.65424 10
131 1 -1.72635 -13.8026 -4.36268 16
132 1 2.26681 -11.2523 -1.3491 18
133 1 6.01017 -12.669 -5.88581 13
134 1 -8.43663 5.72807 -9.5485 11
135 1 10.6351 6.3855 0.0597184 13
136 1 -6.52885 -0.0163882 -5.54798 15
137 1 -2.9082 7.76752 -13.2155 10
138 1 -3.2315 -5.31206 6.02465 20
139 1 2.3786 10.643 4.06425 14
140 1 13.6013 -0.524873 3.16266 12
141 1 -7.74495 -2.69664 3.81287 20
142 1 -6.50077 -7.15166 6.2485 16
143 1 -8.10362 7.7138 0.0451905 22
144 1 5.50904 -6.53939 -12.6557 13
145 1 5.74435 -12.7094 -1.98887 14
146 1 8.37088 -5.54746 -10.7676 15
147 1 -10.1454 -3.81087 3.24911 18
148 1 8.71977 -8.2977 -5.21064 18
149 1 -3.01413 8.22143 -2.19371 20
150 1 -5.19587 1.80817 2.61856 23
151 1 3.43618 -11.4014 7.21821 14
152 1 1.27803 7.94685 5.54545 19
153 1 -5.72043 -5.29871 -7.0085 19
154 1 -4.99208 9.34953 0.2133 20
155 1 -7.87912 2.24645 -3.36876 13
156 1 -11.8103 -0.837532 4.37104 15
157 1 -2.00158 -6.28835 -8.2616 20
158 1 -6.76151 4.99071 0.392813 20
159 1 11.9475 -3.81194 5.37029 13
160 1 4.69186 -8.89322 5.08008 21
161 1 0.783146 -3.77176 8.69218 24
162 1 3.40839 -12.9632 -10.6456 10
163 1 -3.18705 -3.25791 -12.8681 16
164 1 -12.4748 -7.80103 -4.50078 9
165 1 -2.82091 -8.48553 -3.12128 22
166 1 13.6597 1.05019 -4.96556 11
167 1 -6.40657 3.3977 -10.5479 15
168 1 -5.93101 7.40927 1.99728 20
169 1 -9.52972 12.0038 0.866135 7
170 1 -6.81958 5.17631 6.82553 12
171 1 10.8387 -4.59856 -6.57361 24
172 1 7.06186 0.744351 -12.2014 16
173 1 3.62389 -11.867 -4.15442 15
174 1 0.506948 8.62436 2.49492 20
175 1 -11.4497 0.653516 -2.38864 10
176 1 3.53777 -14.9287 -4.25722 10
177 1 12.897 -0.415376 6.39593 11
178 1 -9.78062 -9.0647 -5.42771 14
179 1 -1.03634 -11.3635 0.179514 18
180 1 -4.41013 13.2422 -1.73744 10
181 1 -8.71611 8.336 -3.71033 13
182 1 -2.9472 -12.8656 -9.3383 12
183 1 5.08361 -5.93666 3.35512 21
184 1 -2.33244 -15.4739 -1.50376 11
185 1 -8.09444 6.9457 -6.89365 12
186 1 -1.80711 -12.2033 2.95647 16
187 1 -3.2256 0.430183 5.3896 22
188 1 -5.89644 4.73485 3.56582 22
189 1 2.36176 -6.27531 -8.07656 20
190 1 -11.7424 -3.70712 6.11518 11
191 1 -1.96106 -3.48035 7.17318 19
192 1 -4.38739 -2.39998 5.30892 21
193 1 3.08107 -8.92699 -6.10894 18
194 1 4.66164 -12.7789 1.16846 14
195 1 4.60731 9.51663 -9.94996 13
196 1 -12.9695 -11.4451 -1.29738 8
197 1 9.37154 -10.4899 5.61072 10
198 1 10.5973 0.128286 -2.72175 22
199 1 4.01135 -1.28218 -11.8686 19
200 1 11.9461 -8.79218 3.25342 10
201 1 -4.89083 -2.86366 9.02379 16
202 1 3.72427 10.7569 -1.72445 19
203 1 8.83256 -4.60524 6.19475 18
204 1 -2.7861 -15.4267 -6.90915 8
205 1 5.28846 4.65436 7.08542 19
206 1 -9.33534 -1.78546 8.66147 13
207 1 -4.55792 -10.9224 -4.51882 20
208 1 -7.75877 -9.40087 -8.42564 15
209 1 -6.80895 10.2594 2.42407 17
210 1 -1.11022 -10.6429 -3.27186 20
211 1 -5.80844 -5.14933 4.21074 21
212 1 10.9316 -0.0691124 3.95466 20
213 1 11.211 2.83769 2.3247 17
214 1 2.24852 1.49978 -12.0419 17
215 1 -0.508534 6.16398 -9.83742 23
216 1 -2.11533 7.77331 6.49482 13
217 1 -12.5168 -5.38277 -2.59352 12
218 1 6.51553 9.01586 -8.2322 15
219 1 -7.12053 -6.12076 -9.43999 15
220 1 2.32848 -6.6003 -11.4042 15
221 1 9.124 4.49645 -5.32812 17
222 1 5.25808 5.83603 -3.43732 19
223 1 5.75664 -1.64445 -14.185 13
224 1 3.02624 -8.93497 0.397149 20
225 1 -4.39627 2.52424 -12.742 12
226 1 11.2288 6.19334 -2.82652 13
227 1 8.05669 -5.29622 -1.19908 19
228 1 -1.30056 1.26082 -13.1852 16
229 1 5.93711 -8.27119 -1.06972 20
230 1 0.800819 -6.20913 10.6931 14
231 1 -9.10669 2.19108 -9.01312 14
232 1 0.980745 0.271224 -17.2572 7
233 1 -12.4082 -3.85702 -0.483683 12
234 1 12.1896 -2.28751 -4.75266 16
235 1 -2.92376 5.70425 -7.83302 20
236 1 2.33926 -10.0222 -9.13133 18
237 1 1.38861 3.35699 -15.6612 7
238 1 11.489 -6.75961 -9.26891 13
239 1 -9.74551 -9.56562 1.94146 13
240 1 -2.13847 10.9847 -1.06459 16
241 1 2.5527 5.47615 -8.18061 21
242 1 11.3906 3.25017 -4.19159 16
243 1 3.35898 -8.5647 -2.93199 21
244 1 3.97683 -4.29865 -10.4534 19
245 1 13.3154 -5.93624 -4.47795 11
246 1 2.0932 -9.33244 3.54405 20
247 1 -10.7673 1.78819 5.8557 11
248 1 -8.62684 -6.63969 -6.89239 20
249 1 -5.00323 -5.4194 10.8093 10
250 1 2.33221 8.09612 -12.5998 12
251 1 -5.08685 12.3755 -4.71809 11
252 1 2.02497 10.9547 -9.13716 13
253 1 0.217113 1.61282 8.54967 25
254 1 5.7308 -11.2168 -9.11068 16
255 1 4.27743 -2.0611 -8.35224 18
256 1 -13.4172 -8.18236 -1.26204 13
257 1 -8.48956 5.30601 -2.16964 18
258 1 -13.283 -9.07274 1.69005 9
259 1 9.10694 7.84063 -7.35838 14
260 1 6.98974 -8.98765 -11.2151 13
261 1 3.08142 -6.08486 8.89077 18
262 1 8.62267 -1.9677 -6.13442 20
263 1 -9.87026 5.49198 1.36613 18
264 1 14.3028 -4.04728 -6.38891 12
265 1 4.72763 7.66898 5.89538 15
266 1 -0.462288 0.776921 -9.32611 23
267 1 4.8615 2.41667 -12.5237 17
268 1 -3.21184 -3.66623 -9.36518 18
269 1 -5.00654 -13.5554 -5.1722 17
270 1 14.7379 2.33071 -1.80506 9
271 1 13.3525 -6.99793 -7.10245 13
272 1 9.16992 -11.8176 -9.44361 7
273 1 8.84659 8.58237 -0.73443 16
274 1 -8.6951 2.22875 1.22869 17
275 1 11.3414 2.97638 -7.38768 12
276 1 -7.74881 -5.94529 9.1518 13
277 1 10.0115 0.728579 8.26042 12
278 1 -10.182 -6.58875 -9.16922 11
279 1 13.1359 4.95117 -0.0856494 9
280 1 13.1074 -5.50793 1.71712 11
281 1 4.1897 10.23 1.40351 18
282 1 3.37575 2.15112 7.14895 21
283 1 -2.95271 5.2151 -4.37655 20
284 1 -2.06893 -11.9765 -6.2504 20
285 1 -2.54063 4.6979 -11.9958 18
286 1 -7.52775 0.596025 -11.866 14
287 1 -9.50138 -0.134248 -4.95951 16
288 1 11.1185 -10.4313 -0.0363487 9
289 1 -3.50613e-04 -11.3488 8.21081 13
290 1 9.3776 1.72191 -10.0078 11
291 1 14.5895 -2.47336 0.955676 11
292 1 6.82064 9.59708 -2.67243 17
293 1 11.6616 -2.62408 1.87187 21
294 1 -5.43955 2.9908 9.1581 10
295 1 -4.18332 -11.5192 -1.74608 19
296 1 -8.93701 -3.87409 -8.45389 18
297 1 7.80857 -2.03569 8.49043 12
298 1 -6.63151 12.02 0.284456 15
299 1 8.61575 2.96508 0.395759 20
300 1 6.31964 1.99453 5.30644 20
301 1 -9.04409 -5.6784 5.67324 16
302 1 6.59688 -2.95738 -11.23 21
303 1 0.287889 -7.99492 -7.75353 19
304 1 8.13378 7.49886 5.4718 11
305 1 5.03818 5.07115 3.30811 19
306 1 -0.562216 -0.324775 11.1861 16
307 1 -3.10404 -0.731399 8.83518 19
308 1 -6.67876 -0.238881 10.234 12
309 1 -0.0171452 5.96552 -6.01302 19
310 1 8.97603 9.9791 -4.63313 10
311 1 4.16918 11.7231 -7.42183 12
312 1 -5.12374 -14.6846 -1.53336 13
313 1 6.0435 2.51622 1.93103 21
314 1 -8.35311 6.89565 3.43164 20
315 1 5.64245 6.0895 -7.19265 19
316 1 2.39589 -0.698421 9.00063 23
317 1 6.65731 7.72878 3.09945 17
318 1 -1.42539 -2.26963 -11.1444 21
319 1 7.01586 -9.79339 -6.2952 16
320 1 7.51125 10.4011 0.961358 13
321 1 -12.8433 -3.33524 2.32041 14
322 1 2.91956 -14.4859 -0.949647 11
323 1 7.38051 3.99474 -11.4986 13
324 1 3.89751 -3.86003 -13.4051 17
325 1 8.73768 -6.41301 -7.71097 19
326 1 -3.93912 9.91674 3.06394 15
327 1 2.00244 -9.57025 9.59972 12
328 1 -5.02709 -11.3535 -7.69002 20
329 1 -2.63817 2.96022 7.19204 19
330 1 8.63884 -2.60396 0.494019 19
331 1 1.9163 8.38763 -6.79919 16
332 1 6.61081 1.54186 -15.0231 7
333 1 8.66204 1.74963 -6.82418 16
334 1 0.0336857 5.64198 -13.7426 14
335 1 -0.364446 -0.625521 7.39736 22
336 1 -2.38407 -12.4588 6.05984 11
337 1 3.83746 -9.34874 -11.2514 14
338 1 -9.4415 9.93969 -1.18033 14
339 1 8.53278 5.42573 2.43399 21
340 1 -8.46547 -6.39536 2.03997 19
341 1 5.22163 6.44464 -10.3817 19
342 1 -1.73674 -3.46972 10.2304 17
343 1 -9.56517 -8.07672 -0.809222 15
344 1 8.79534 -2.81815 -3.06626 21
345 1 -5.5912 -7.81561 -2.07484 21
346 1 12.1417 -7.54279 -1.67007 13
347 1 5.56528 -9.23722 2.35059 21
348 1 -0.818761 10.7949 4.96021 10
349 1 -8.12289 2.53506 7.83733 12
350 1 8.00822 0.312622 2.44964 23
351 1 9.22209 -9.11266 -2.05436 17
352 1 5.32402 5.49727 0.573167 22
353 1 0.402406 12.9597 3.20735 9
354 1 1.36522 -9.38167 6.47143 21
355 1 -8.58727 -3.69358 -5.60006 22
356 1 3.20735 2.69715 10.0948 15
357 1 5.26707 8.24207 -0.680806 21
358 1 8.06955 -5.03295 8.72426 14
359 1 7.58617 -7.77053 10.544 9
360 1 10.075 5.43969 5.89126 11
361 1 -1.99602 -10.0523 -9.43372 20
362 1 -4.89912 -0.311088 -13.7293 13
363 1 -7.68168 -3.17353 10.2727 14
364 1 15.7033 0.753067 1.22549 7
365 1 2.33956 7.65987 -10.0848 18
366 1 6.67603 -3.6651 -8.47031 22
367 1 -4.14901 -16.8016 -4.03158 10
368 1 -5.2818 -1.75844 -10.2811 22
369 1 1.87308 -2.97244 -9.58856 16
370 1 -2.65095 -8.83495 -6.27717 23
371 1 1.13999 -3.15654 11.871 12
372 1 -2.28382 -9.45828 7.27681 20
373 1 8.04709 -1.16488 -9.43192 14
374 1 -10.37 8.58363 1.92142 14
375 1 10.8228 -4.81991 -0.772897 18
376 1 -10.6612 -2.23834 -2.64434 17
377 1 11.655 2.68669 -1.05313 22
378 1 7.00262 3.06457 9.27156 12
379 1 -10.5557 -1.52319 -6.98668 12
380 1 -3.71093 2.77688 -9.27591 19
381 1 12.0148 -8.76215 -4.01279 13
382 1 -5.77928 -8.21479 -5.09078 18
383 1 -7.28755 -11.9473 2.69224 12
384 1 9.1649 -2.74254 3.74359 22
385 1 -8.98663 -0.479383 2.49372 20
386 1 -0.549703 9.27858 -11.0487 13
387 1 4.38155 -8.3302 8.83036 17
388 1 -7.49061 -3.73687 7.00482 22
389 1 0.292878 -4.78355 -9.88205 19
390 1 -6.46082 -12.1167 -0.0271113 18
391 1 5.47081 -5.78329 10.8174 10
392 1 0.427374 -13.4962 -2.308 17
393 1 13.3486 -4.28965 -9.36889 10
394 1 -10.273 8.36979 5.41322 6
395 1 -5.95324 -0.687303 7.34257 20
396 1 1.02798 -11.9158 -5.70048 15
397 1 8.05212 7.12101 -4.16116 19
398 1 10.7877 0.173884 0.73962 22
399 1 0.142907 -6.42773 6.7851 21
400 1 7.65852 11.3601 -6.70418 10
401 1 5.10592 0.926922 -9.71945 19
402 1 -10.8097 3.53551 -3.63798 11
403 1 4.99012 8.16864 -4.96973 19
404 1 8.12613 5.6088 -1.01578 23
405 1 2.95049 10.481 -5.11724 18
406 1 -5.29759 2.40318 5.69662 21
407 1 7.59146 0.42263 -4.78813 17
408 1 4.13662 -12.0648 4.25608 11
409 1 7.39061 6.54914 7.99296 9
410 1 9.99137 -6.044 -3.72922 17
411 1 -5.87135 7.58548 -8.62084 15
412 1 -0.208283 5.88983 3.69422 22
413 1 0.372432 9.09029 -1.09271 20
414 1 -1.31116 -8.59933 4.92726 18
415 1 7.48754 -10.9597 0.0160512 15
416 1 0.531552 -4.20954 -13.4191 14
417 1 -7.40304 -9.95552 -2.74091 20
418 1 -5.48628 6.37747 -1.65004 19
419 1 9.0951 -7.68198 7.46584 14
420 1 -7.01763 -9.21701 0.615982 21
421 1 11.5468 -2.18522 -1.10983 18
422 1 -2.29098 5.09367 -15.1291 6
423 2 -10.6521 0.238489 -6.50133 12
424 2 -5.77777 12.3775 -2.83251 11
425 2 3.67657 -2.44396 -10.2686 20
426 2 -2.28858 0.410809 10.1431 15
427 2 -6.31299 -5.61679 -11.2703 10
428 2 5.11056 2.42852 9.97944 12
429 2 -8.92256 -2.69054 2.19977 21
430 2 9.288 5.11285 0.701865 22
431 2 -10.7347 -5.48855 -7.73714 11
432 2 -7.8192 0.0472539 -2.50668 20
433 2 -4.08303 -11.9713 5.43873 12
434 2 1.88918 2.32966 8.72814 22
435 2 8.39584 -3.43831 -10.6877 14
436 2 -8.3811 12.009 -0.983151 10
437 2 12.605 3.83617 1.52847 10
438 2 -13.6328 -7.46739 0.652155 10
439 2 -0.458306 -12.7141 1.59065 16
440 2 10.6084 -9.32268 4.67455 11
441 2 -6.82587 8.97349 0.868296 21
442 2 -5.46853 10.2178 -4.99135 17
443 2 -2.30565 4.89096 3.75936 23
444 2 7.38283 -9.59937 -4.52982 16
445 2 -3.98967 0.62113 -9.21009 21
446 2 2.06256 -8.52672 -10.9754 16
447 2 13.2028 -6.21394 -9.12914 10
448 2 9.52851 3.50902 -6.97604 15
449 2 -7.74452 11.6919 1.65512 11
450 2 -3.07045 -11.3956 -8.04113 17
451 2 2.31373 -7.62806 10.1083 13
452 2 7.91726 -3.40549 2.11733 21
453 2 -10.6602 -0.544251 -3.5405 17
454 2 6.28575 9.1456 1.84756 17
455 2 8.42357 -11.3771 4.34601 9
456 2 2.09142 8.65786 3.83586 18
457 2 5.42845 11.2224 -2.21256 16
458 2 2.15249 6.4703 -6.46598 20
459 2 -7.97811 -1.49673 7.40676 19
460 2 4.9343 0.373587 -11.4946 18
461 2 -5.76816 -0.391989 -7.19232 16
462 2 -11.9362 -3.20297 4.12776 13
463 2 -8.19336 -13.0423 -0.894904 12
464 2 -0.757256 -9.33721 0.451333 22
465 2 -0.573617 -2.3406 11.3821 13
466 2 -2.08874 6.00224 6.91848 14
467 2 -8.01033 0.291661 0.752275 22
468 2 7.50208 -10.663 -10.2213 11
469 2 10.8411 -2.60394 -6.23837 18
470 2 -1.06114 -12.2574 4.80273 14
471 2 3.24682 5.56491 3.43546 22
472 2 10.659 -9.2486 -5.22665 16
473 2 4.05187 -5.31842 7.341 19
474 2 -3.66649 -8.67621 2.26848 15
475 2 11.6917 0.0863707 -1.02742 19
476 2 2.28203 -10.515 0.850093 18
477 2 11.8708 -6.24977 -0.0979425 12
478 2 -5.74605 -7.65196 -9.40953 15
479 2 -7.16765 -8.58419 -1.20539 15
480 2 -2.88806 -11.1514 0.632217 18
481 2 -3.26454 -13.2971 -5.431 18
482 2 -2.23305 6.42573 -1.90424 20
483 2 1.09407 1.75826 -9.86528 15
484 2 6.85183 4.80158 -2.69119 19
485 2 -0.0678474 4.36194 -15.1698 10
486 2 -6.76376 1.60406 9.29503 11
487 2 -10.2125 3.29308 0.667472 18
488 2 -6.1453 3.2943 7.35218 16
489 2 -7.40021 4.6966 4.7527 17
490 2 8.74853 -0.0934792 -6.2538 17
491 2 11.9331 -6.62742 -3.25715 15
492 2 8.96141 -0.547038 0.513026 23
493 2 -0.865032 7.26055 2.59493 18
494 2 -4.81366 5.61675 2.13505 24
495 2 13.6766 1.40016 -3.10505 13
496 2 0.777553 8.23661 0.611636 19
497 2 1.87512 9.06812 -8.86599 18
498 2 0.932327 5.90256 5.26843 22
499 2 2.60256 -2.67301 8.91171 21
500 2 6.09837 -1.82021 -9.66215 18
501 2 -5.16149 -0.993192 9.26746 15
502 2 1.43199 6.26852 -12.5169 14
503 2 -7.9205 -6.90054 4.93718 15
504 2 3.81381 -10.6582 -2.5342 18
505 2 2.07448 -8.5167 -7.69654 19
506 2 2.81843 -13.248 0.527489 15
507 2 6.64369 7.06392e-04 -13.853 13
508 2 -3.38386 3.99406 -13.7175 14
509 2 -3.92438 8.39833 1.58453 18
510 2 -5.99572 -11.1551 -1.79402 19
511 2 1.17786 8.89142 -11.3844 12
512 2 2.60391 11.1485 -3.43921 17
513 2 -0.531527 2.81023 9.83283 16
514 2 2.91698 -11.1784 -5.83951 19
515 2 8.40772 2.06514 5.837 21
516 2 10.5241 -3.0606 0.347933 22
517 2 8.09582 2.53089 2.16143 22
518 2 -4.03759 4.27113 -10.756 19
519 2 5.63252 -7.66711 10.2205 13
520 2 0.943331 -5.55478 5.45422 22
521 2 8.30521 -8.87169 5.93363 14
522 2 -0.97233 12.0486 -7.58713 9
523 2 -6.14158 -12.1731 -6.24495 14
524 2 -1.2475 -0.247528 -11.0722 17
525 2 -3.46663 -9.76205 -10.8947 16
526 2 7.36461 9.51953 -0.726253 17
527 2 -6.16352 -9.9988 -4.27498 21
528 2 -10.6026 -0.180499 5.55758 15
529 2 8.02273 -6.32654 7.1498 15
530 2 -3.78038 -16.3416 -5.68375 8
531 2 2.59376 -0.267678 -13.1341 18
532 2 -5.88626 -0.588988 -12.2131 18
533 2 -7.1496 -3.82957 -13.0598 9
534 2 -6.07777 -4.02787 10.6218 13
535 2 -2.94897 -7.98248 -8.23285 22
536 2 2.18042 -4.96594 -10.0028 19
537 2 9.4004 -5.89175 -5.68088 18
538 2 -6.42552 -6.00476 2.54141 21
539 2 5.19197 -2.68148 -12.594 17
540 2 -0.699188 -8.59668 -6.3953 22
541 2 -1.82965 6.39798 -13.9653 10
542 2 6.46963 5.68036 2.06914 22
543 2 11.5126 0.688482 7.17756 14
544 2 -12.9224 -5.16245 1.50211 12
545 2 -3.63472 -13.0575 2.77609 14
546 2 -1.2657 2.52405 -8.91756 23
547 2 -5.93796 -10.6485 1.5874 19
548 2 -5.09009 4.51829 -0.735067 19
549 2 -5.93762 -8.87825 7.33445 13
550 2 -1.7426 -11.2171 7.6295 14
551 2 -12.2611 -2.34546 0.700846 13
552 2 -5.94008 -13.9465 -3.41881 15
553 2 -4.76924 -6.34612 5.39728 19
554 2 7.38291 -5.73115 10.3444 9
555 2 3.76329 8.25795 -11.439 13
556 2 6.98803 12.2482 0.518605 7
557 2 12.0424 2.20387 -5.78898 13
558 2 -0.0617357 11.7557 -4.52137 15
559 2 -8.65672 -5.06082 -10.1918 14
560 2 -8.07041 -1.69303 -5.53614 20
561 2 -1.09944 -14.7867 -2.73664 12
562 2 2.8682 -8.27978 5.42906 22
563 2 10.9715 -9.40433 1.7524 11
564 2 -7.72334 9.92185 -2.90249 15
565 2 8.53373 0.338486 -3.05736 19
566 2 3.37236 0.510759 10.3067 18
567 2 3.75902 8.30323 1.46411 21
568 2 0.398317 -0.119279 9.10339 21
569 2 -9.06981 1.9059 3.20822 20
570 2 6.07782 7.81017 -6.7898 19
571 2 -8.83574 -7.87659 -8.52688 13
572 2 -6.1347 -7.14735 -6.81714 22
573 2 -9.97396 -5.45364 2.22851 18
574 2 8.51975 8.74804 -3.21057 14
575 2 10.4345 2.07137 0.867913 18
576 2 11.1146 -9.06441 -1.4813 13
577 2 -11.6682 -3.72079 -2.17318 13
578 2 -1.94108 9.05955 -0.667142 20
579 2 -3.18946 6.29562 -5.84524 17
580 2 3.16023 3.1572 -11.8911 16
581 2 -11.0305 6.53365 5.81713 6
582 2 -8.38821 -8.14678 1.31733 16
583 2 5.70953 -12.3774 -3.87156 15
584 2 5.43032 -8.2397 -2.91666 19
585 2 -7.44923 6.43614 -1.39965 19
586 2 -11.1706 3.56655 -5.48414 8
587 2 5.09563 -8.32681 0.638878 19
588 2 3.31093 5.18646 7.00391 18
589 2 -0.542154 -0.231647 -14.3817 13
590 2 -1.43677 8.68117 -12.5539 11
591 2 4.46969 2.17357 -14.4567 12
592 2 0.603268 8.68203 -2.97925 21
593 2 -10.8584 -2.79109 7.57659 14
594 2 -2.07657 -5.59843 7.56905 22
595 2 -9.18313 -6.59091 -1.69901 18
596 2 1.59475 5.90054 -10.0437 20
597 2 7.75179 -3.0483 -4.81374 23
598 2 3.03665 -0.26381 7.30636 22
599 2 2.08601 -3.21033 -14.0107 14
600 2 8.27429 2.36679 -1.31812 21
601 2 6.57281 6.66951 -0.780411 23
602 2 -7.28586 -4.75297 -0.597419 18
603 2 -3.25617 11.5663 -2.55541 19
604 2 -3.32093 2.81796 8.90302 14
605 2 1.03777 -14.6899 -0.772862 13
606 2 -6.26744 -13.014 3.49223 9
607 2 9.0179 -3.51856 7.87512 12
608 2 8.85262 3.39841 -9.72132 13
609 2 3.60719 8.76534 -1.50235 21
610 2 4.5403 -10.691 5.53308 16
611 2 10.1308 -10.7422 -8.12899 9
612 2 0.413028 1.89531 -12.4723 19
613 2 0.652684 5.40437 8.38569 14
614 2 2.34185 2.93301 5.44307 22
615 2 9.07782 -6.67461 3.07302 19
616 2 -3.80487 -1.89188 -14.2106 12
617 2 11.424 -3.89389 -9.17175 15
618 2 -4.90321 8.22326 -1.51869 19
619 2 6.71658 -8.13659 -9.34419 21
620 2 2.14254 3.91721 11.1583 10
621 2 -9.29212 5.78141 -7.81593 11
622 2 12.755 -5.11446 -6.71603 17
623 2 3.85221 11.8869 0.0687353 12
624 2 10.3064 4.60515 -3.93917 16
625 2 11.0818 1.83086 3.81669 18
626 2 -4.99615 -4.77527 -8.95426 21
627 2 -10.0882 5.6143 -1.10275 14
628 2 -6.35653 5.9749 -6.87918 16
629 2 10.7397 2.02626 -2.92461 19
630 2 -10.8992 7.15513 0.856905 14
631 2 -2.9546 -8.99917 5.70611 20
632 2 5.47031 -2.85992 7.07841 22
633 2 1.50224 -13.1669 -7.29805 13
634 2 -0.275322 -3.01229 -10.1512 21
635 2 4.70237 11.444 -5.51215 14
636 2 7.91695 11.3777 -4.72745 10
637 2 -1.86609 -5.51891 -9.86086 20
638 2 -5.87796 -9.92796 -8.77778 14
639 2 11.7543 -0.763815 2.32914 20
640 2 -5.01014 5.87724 -3.54008 16
641 2 5.33022 -12.6145 2.9101 12
642 2 9.23991 -5.80981 0.280361 17
643 2 -8.47702 -10.4492 3.06029 11
644 2 -4.88238 -4.39655 -5.42732 20
645 2 3.04639 7.76178 6.67324 15
646 2 3.20212 8.52071 -5.09531 18
647 2 -9.71348 10.0726 0.639994 13
648 2 -6.02779 -6.80653 9.66441 11
649 2 -0.124825 11.25 -1.40745 15
650 2 0.143253 -11.4143 -1.65305 18
651 2 1.48518 -5.50841 8.06351 17
652 2 6.13474 -0.527939 8.67472 15
653 2 -9.9658 5.72899 3.11866 15
654 2 -0.800547 3.036 6.51315 22
655 2 -1.06068 -12.5578 -9.71611 12
656 2 13.2893 -3.85659 -4.65948 13
657 2 13.7186 -7.55824 -5.07808 10
658 2 -2.5453 9.06771 -4.24931 22
659 2 -8.26003 -1.31379 10.1453 11
660 2 -7.99602 1.06903 -4.85844 16
661 2 13.6345 -2.94321 -7.9342 11
662 2 4.94015 5.29986 -5.30073 21
663 2 -3.38198 2.38557 5.51434 18
664 2 -0.599519 4.70015 -11.32 19
665 2 -12.0247 -5.81776 -4.85406 11
666 2 -3.45062 -2.2387 -10.7321 19
667 2 -0.97152 5.67421 -7.67821 20
668 2 -8.82457 -2.4341 -11.0007 13
669 2 5.98719 -4.82914 -10.342 23
670 2 -3.70458 -7.87608 -4.62574 19
671 2 -0.897702 -6.90737 10.3275 14
672 2 7.88913 -3.44732 4.91311 21
673 2 7.36974 -5.16668 -7.40233 20
674 2 2.3416 -11.5318 3.85045 18
675 2 11.9817 5.76704 -1.19387 12
676 2 -2.23558 10.2712 3.87737 15
677 2 -11.4592 -9.64179 -4.35396 12
678 2 6.81409 5.14073 -8.39837 20
679 2 2.44296 -7.97365 2.1 19
680 2 -9.63192 8.47741 3.64291 14
681 2 4.28662 -0.17529 -7.9449 16
682 2 5.53996 3.18612 3.81693 23
683 2 -10.9995 0.0437903 2.78068 19
684 2 -1.33502 7.84347 -9.52663 16
685 2 4.63105 -2.45506 -15.392 11
686 2 -5.00035 -0.249471 5.4531 21
687 2 -2.85312 -2.74354 8.99179 20
688 2 13.4499 -0.708314 4.88071 12
689 2 2.07832 -0.943341 -16.0775 9
690 2 -7.71549 -4.61992 -7.23031 19
691 2 9.64074 -6.08304 -9.46834 19
692 2 -1.23568 -10.8015 -12.0945 10
693 2 -11.0939 3.07158 4.27807 14
694 2 -5.69151 -3.26572 4.21983 19
695 2 4.19775 -13.5746 -5.64073 12
696 2 -0.678068 -12.2881 -4.85696 15
697 2 1.83498 -12.8761 -3.52393 18
698 2 11.0437 -1.74674 -2.90442 17
699 2 -4.09265 6.62828 -9.18877 18
700 2 9.19184 4.85727 4.12384 17
701 2 -3.00381 -14.3189 -8.16501 10
702 2 6.06981 0.0309838 5.40378 20
703 2 -0.194822 9.23507 5.98951 13
704 2 -7.01305 6.67421 -10.2362 12
705 2 1.48074 -12.6156 -10.253 10
706 2 -5.01608 -13.1622 -0.375516 14
707 2 -7.77462 6.16756 1.56942 21
708 2 8.96886 7.02584 -9.1837 13
709 2 -3.60257 6.88362 -11.7954 15
710 2 4.39338 5.65247 -8.79394 18
711 2 -3.9313 -4.88552 -12.15 15
712 2 -0.208953 -9.07924 -9.35085 18
713 2 -10.4331 -3.23876 -6.22061 16
714 2 6.87038 4.7909 8.39146 10
715 2 -6.22428 1.93055 -12.2995 13
716 2 -13.3077 -9.78126 -0.141286 9
717 2 10.96 -3.39961 3.68154 19
718 2 5.37573 2.52411 6.7077 19
719 2 8.60267 0.41427 -10.9585 14
720 2 0.0462144 8.16339 -6.12316 20
721 2 2.2363 11.3772 -6.99981 15
722 2 13.3942 -3.73762 1.76198 14
723 2 6.30536 7.95028 -9.64404 14
724 2 0.700488 0.934825 12.1439 15
725 2 0.390622 -5.5363 -12.1231 16
726 2 8.59684 2.15473 8.35716 14
727 2 -6.16912 8.89808 3.71349 16
728 2 9.31724 -11.0212 0.387842 10
729 2 11.2459 -7.38342 -7.58264 17
730 2 -2.12671 12.2112 0.384217 13
731 2 7.9919 -8.64876 8.7308 12
732 2 -2.38476 9.71353 -7.10683 15
733 2 1.00062 11.5529 4.27699 11
734 2 -8.0565 7.83315 -5.3681 12
735 2 3.81936 11.1939 -9.28356 10
736 2 -8.53954 -9.93074 -6.67912 15
737 2 3.93787 -5.41623 -12.4893 15
738 2 -6.40069 2.17293 4.0398 18
739 2 13.8121 -1.8079 -0.722298 14
740 2 -3.59626 11.8803 -5.42446 11
741 2 -8.67065 -3.90975 5.07139 20
742 2 -2.98078 -10.5196 -5.57047 20
743 2 6.56088 7.53655 6.66863 10
744 2 -1.49894 -7.96066 -12.2886 12
745 2 -8.38857 3.79704 -10.0072 13
746 2 6.8078 5.67045 -11.3975 12
747 2 -3.25058 1.03799 -12.8507 17
748 2 -9.77568 8.40756 -2.1895 11
749 2 -6.53084 6.90968 6.32585 10
750 2 5.99933 10.6865 -7.58189 14
751 2 -4.08212 -15.6247 -2.5194 11
752 2 8.67721 -2.44525 -8.20142 19
753 2 8.74694 -8.44059 -7.05653 18
754 2 -11.2805 -11.658 -2.07021 8
755 2 -8.91875 3.69731 -3.02022 12
756 2 -11.276 -8.50999 1.81174 14
757 2 -3.3541 3.84659 -7.3221 18
758 2 1.36635 -11.1478 7.01646 15
759 2 10.6145 3.69552 6.04219 12
760 2 5.64602 -5.22622 5.05591 20
761 2 -5.59775 -2.87889 7.15993 20
762 2 6.7067 2.45526 -12.6955 14
763 2 5.46243 7.08744 4.24796 18
764 2 -8.67968 -11.7117 -4.08439 14
765 2 -9.56143 -9.89709 -0.356274 16
766 2 -8.08828 -0.820175 4.30657 21
767 2 -6.20816 9.29252 -7.68413 11
768 2 -9.24446 -7.37981 -5.36412 19
769 2 -5.10516 13.0526 -0.170452 12
770 2 5.30503 -8.23658 6.95659 19
771 2 9.7018 8.26229 0.79656 14
772 2 -2.21112 -14.4256 0.210834 14
773 2 -14.0215 -5.06837 -1.06013 11
774 2 -10.8958 0.0249037 -0.7362 16
775 2 -2.19544 -0.464831 7.13775 21
776 2 2.60982 -1.97418 11.8362 12
777 2 0.227926 -9.72282 4.32129 16
778 2 9.09103 -0.524019 4.02023 20
779 2 5.06633 -8.71055 -6.29077 22
780 2 -2.18591 5.92106 0.730888 21
781 2 -6.75459 -1.25183 -9.38745 16
782 2 -2.65342 -3.38429 5.3471 20
783 2 -0.433286 -8.34721 6.6861 20
784 2 -8.85196 -4.27784 9.42081 12
785 2 0.86707 -4.46667 10.5175 15
786 2 4.59621 2.77239 -9.4742 19
787 2 8.9178 6.18305 6.97557 10
788 2 7.5034 -7.15471 -11.3461 12
789 2 10.5637 -5.02495 5.76954 14
790 2 14.7621 1.24934 -0.242981 11
791 2 8.88079 -7.51644 -3.16735 22
792 2 3.25097 11.31 2.5425 12
793 2 15.1343 -0.809834 1.92074 10
794 2 -2.91969 -8.19001 8.75761 14
795 2 -3.21583 -4.90969 10.9128 11
796 2 -7.53111 -5.5722 7.19053 15
797 2 3.82552 -14.7757 -2.53261 10
798 2 5.76941 -7.86923 3.91456 21
799 2 12.069 -6.77115 2.89863 13
800 2 0.152238 -9.81892 9.29744 13
801 2 -4.94463 4.62841 5.22777 20
802 2 7.7929 2.48944 -4.96167 18
803 2 5.11268 -8.1304 -11.8862 14
804 2 4.07249 -10.1885 -9.48389 19
805 2 2.01492 1.8334 -16.6849 7
806 2 -7.77171 0.923494 -9.90952 18
807 2 8.40442 7.70786 3.77411 13
808 2 -8.26923 -4.64764 -3.86115 19
809 2 13.3318 3.32875 -0.956454 13
810 2 -8.77106 -2.41925 -1.6087 16
811 2 5.81211 -5.49013 1.75574 22
812 2 8.83077 9.59992 -7.00892 11
813 2 12.6266 -0.4157 -5.57924 13
814 2 10.3636 1.36126 -8.2636 12
815 2 3.52226 -10.1256 8.52077 14
816 2 -12.4681 -7.25009 -2.60272 13
817 2 11.8615 -2.45041 6.65247 12
818 2 7.23915 -10.1566 2.23894 14
819 2 9.72909 6.58411 -1.82999 13
820 2 -8.94522 2.35424 6.20695 15
821 2 -11.5241 2.42922 -2.35114 10
822 2 9.48349 -4.58798 -2.55478 17
823 2 6.01692 -12.037 0.0598832 15
824 2 -5.82808 -6.75862 -3.84216 20
825 2 6.23012 8.00475 -3.63652 21
826 2 6.70517 -11.3074 -7.29839 17
827 2 3.12256 5.8415 0.317704 21
828 2 -5.77583 -9.03075 4.24891 17
829 2 -0.245264 -2.57774 7.31867 21
830 2 -3.46291 7.38765 5.06546 18
831 2 -1.11907 -3.02557 -13.5422 14
832 2 -10.4788 2.87938 -7.87908 9
833 2 -10.5753 -5.14331 6.95541 13
834 2 4.13205 -4.81477 9.83517 18
835 2 -9.24866 -1.72278 -8.21849 16
836 2 9.44142 -0.964326 8.01602 11
837 2 5.83152 -6.02802 -4.97852 20
838 2 -5.70644 2.85294 -8.76497 14
839 2 8.65187 6.3168 -5.83964 17
840 2 -3.12009 -10.6014 -2.91768 20
841 2 -5.1133 11.1728 2.22211 13
842 2 0.767382 12.8708 1.33495 9
843 2 7.28263 -9.73321 -1.50625 16
844 2 4.5088 -12.9526 -9.04671 12
845 1 -4.93822 -2.60128 -4.47182 23
846 1 -6.14538 -4.8146 -3.72319 19
847 1 0.312818 -8.254 -4.52319 18
848 1 -0.287405 -2.05517 -7.84914 19
849 1 -2.85271 -3.61804 -6.15456 18
850 1 -0.192112 -5.8644 -6.37193 22
851 1 -3.24688 -5.87246 -4.5672 21
852 1 0.206788 -2.69287 -4.67366 23
853 1 -2.56106 -3.30771 -2.71637 20
854 1 -0.460044 -5.44026 -2.90113 20
855 2 -5.92829 -2.99486 -2.81244 23
856 2 -0.874361 -8.8099 -3.05217 20
857 2 -2.62004 -2.52133 -7.72391 20
858 2 0.131639 -6.01208 -8.37714 22
859 2 -2.67015 -5.54531 -6.4233 21
860 2 0.388667 -3.71412 -6.36258 23
861 2 -2.97343 -2.55249 -4.39563 20
862 2 0.297046 -6.07157 -4.54568 21
863 2 -2.76901 -5.38293 -2.70218 26
864 2 -0.482972 -3.51342 -2.75662 21
865 1 -5.26651 -3.04397 -0.911576 22
866 1 -5.42302 -2.44353 2.52579 20