ITEM: TIMESTEP
11000
ITEM: NUMBER OF ATOMS
2000
ITEM: BOX BOUNDS pp pp pp
-30.0 30.0
-30.0 30.0
-30.0 30.0
ITEM: ATOMS id type x y z Coordination
1 1 -16.6148 -2.57551 -1.97768 14
2 1 -19.2285 -2.7926 0.179988 5
3 1 -18.1604 -0.557876 2.86903 8
4 2 -17.6616 -3.32116 -0.545164 10
5 2 -18.8989 -1.77202 1.75939 7
6 2 -17.4661 1.22382 1.91528 10
7 1 0.791994 -16.2055 -2.99315 18
8 1 1.29655 -19.1659 -0.898105 6
9 1 -1.84702 -18.069 0.636723 10
10 2 2.01234 -17.8122 -2.12122 10
11 2 -0.293373 -18.6991 -0.139233 8
12 2 -1.10629 -15.2359 3.43612 17
13 2 0.759323 -1.5874 -17.031 12
14 1 0.483196 1.71696 -16.8434 15
15 1 1.52401 -0.589834 -18.4698 9
16 2 1.7252 1.17029 -17.8784 13
17 1 -11.7597 -12.2938 -2.56726 12
18 1 -12.2271 -6.69013 -10.3508 14
19 1 -13.9017 -8.63951 -7.79493 11
20 1 -12.1869 -6.83062 -6.74786 23
21 1 -14.4907 -7.59066 -5.02816 13
22 1 -11.9169 -9.67839 -4.96205 19
23 1 -12.2059 -6.66322 -3.31064 20
24 1 -15.7744 -7.83004 -1.30695 12
25 1 -13.0667 -9.49646 -1.53632 17
26 1 -12.0564 -0.983437 -12.9488 13
27 1 -13.1923 -4.30285 -11.8658 8
28 1 -12.2128 -0.95281 -9.87753 16
29 1 -15.0667 -1.65151 -8.38896 12
30 1 -12.6945 -3.56827 -7.99511 20
31 1 -15.0579 -5.13588 -6.64716 14
32 1 -12.3525 -0.92455 -6.60545 21
33 1 -15.3858 -2.08749 -4.89358 17
34 1 -12.599 -3.65749 -5.00222 22
35 1 -14.5437 -5.29014 -3.24552 19
36 1 -12.0262 -0.924132 -3.38847 17
37 1 -14.6359 -0.147074 -1.96686 19
38 1 -13.3672 -3.37033 -1.51658 23
39 1 -6.64722 -12.4456 -10.0975 13
40 1 -8.95823 -13.7345 -7.72194 9
41 1 -6.74119 -12.4114 -6.69671 19
42 1 -9.93473 -13.4172 -5.37218 11
43 1 -7.44113 -15.3769 -5.17236 11
44 1 -6.61567 -12.7099 -3.5976 21
45 1 -9.15608 -13.3149 -1.24128 17
46 1 -7.45069 -15.5525 -1.47455 14
47 1 -6.74322 -6.95123 -13.3146 16
48 1 -9.49865 -7.50052 -11.9239 14
49 1 -8.24118 -9.93542 -11.6262 12
50 1 -10.9858 -9.38443 -9.99824 12
51 1 -6.52762 -7.02485 -9.91956 21
52 1 -9.43121 -7.29656 -8.60911 24
53 1 -7.63423 -9.75163 -8.56629 20
54 1 -10.5413 -10.446 -6.92043 20
55 1 -6.63918 -7.23519 -6.68163 23
56 1 -9.6158 -7.39027 -5.14517 25
57 1 -7.85309 -9.54678 -5.34148 21
58 1 -9.67354 -10.5562 -3.42717 21
59 1 -7.08294 -7.01288 -3.52377 22
60 1 -9.56827 -7.46353 -1.73914 19
61 1 -7.42484 -9.7021 -1.6457 20
62 1 -6.61078 -2.48131 -16.2067 13
63 1 -9.71689 -2.02736 -14.9177 14
64 1 -8.165 -5.12338 -15.0757 12
65 1 -10.1727 -5.06054 -12.9958 16
66 1 -6.57471 -1.1143 -13.4804 17
67 1 -9.32738 -1.88626 -11.8358 21
68 1 -7.37309 -3.82862 -11.4233 19
69 1 -10.4221 -4.53736 -9.66121 23
70 1 -6.66473 -0.844296 -10.1414 21
71 1 -9.46768 -1.72185 -8.27101 21
72 1 -7.29343 -4.19064 -8.1242 24
73 1 -10.1098 -4.56726 -6.44131 21
74 1 -6.86919 -1.37718 -7.04205 19
75 1 -9.25774 -1.82105 -5.13938 22
76 1 -7.43819 -4.13836 -5.26356 22
77 1 -10.1106 -4.52497 -3.18339 21
78 1 -6.59385 -1.44275 -3.66466 24
79 1 -9.32964 -1.75143 -1.92735 20
80 1 -7.35081 -4.07169 -1.89577 20
81 1 -0.986121 -12.4195 -12.8056 13
82 1 -3.77756 -13.2572 -11.6046 11
83 1 -0.672388 -12.2521 -9.60525 19
84 1 -3.75464 -13.469 -8.43018 17
85 1 -1.55643 -15.1946 -8.16676 13
86 1 -4.35671 -16.3105 -6.64279 11
87 1 -0.969424 -12.3444 -6.66229 19
88 1 -3.60146 -12.942 -5.34959 20
89 1 -1.75719 -15.6458 -5.0213 16
90 1 -4.86493 -15.503 -3.37127 17
91 1 -0.758133 -13.2491 -3.36038 20
92 1 -3.75045 -13.2484 -1.64815 19
93 1 -1.62587 -15.2437 -1.53157 19
94 1 -1.76931 -7.05129 -16.5637 14
95 1 -4.08907 -7.91773 -14.775 15
96 1 -1.14106 -9.65584 -14.9793 13
97 1 -4.15236 -10.3047 -13.4951 12
98 1 -0.882659 -6.77576 -13.2246 21
99 1 -3.64075 -7.83436 -11.5212 21
100 1 -1.4992 -9.6109 -11.6821 20
101 1 -4.70849 -10.4619 -10.1398 22
102 1 -0.885408 -6.86116 -9.90819 19
103 1 -3.78436 -7.74812 -8.16949 21
104 1 -1.73687 -9.64864 -8.57883 22
105 1 -4.64272 -10.4931 -6.69811 22
106 1 -0.928512 -6.82351 -6.54043 21
107 1 -3.83395 -7.51878 -4.97382 22
108 1 -2.0 -9.45638 -4.84716 21
109 1 -4.95765 -10.2493 -3.43971 21
110 1 -1.00582 -6.79697 -3.23885 18
111 1 -4.06096 -7.48691 -1.62541 20
112 1 -1.90285 -9.51506 -1.72558 19
113 1 -5.03553 -5.12281 -16.253 15
114 1 -0.9872 -1.05362 -16.3452 14
115 1 -3.78913 -2.26369 -14.8754 20
116 1 -1.97523 -3.92337 -15.1603 18
117 1 -4.66872 -4.91825 -13.4516 20
118 1 -1.0871 -1.24756 -13.4097 19
119 1 -3.81181 -2.01461 -11.7465 21
120 1 -1.78728 -4.08223 -11.8065 21
121 1 -4.73561 -4.85408 -10.2287 20
122 1 -1.1409 -1.1716 -9.9971 20
123 1 -3.86488 -2.04542 -8.33237 20
124 1 -1.89287 -3.892 -8.54014 23
125 1 -4.54619 -4.88508 -6.76814 20
126 1 -1.02212 -1.51939 -6.71516 22
127 1 -3.81934 -2.04385 -5.13171 20
128 1 -1.90398 -4.1768 -5.16789 21
129 1 -4.93996 -4.84771 -3.43477 23
130 1 -1.22791 -1.21542 -3.48266 20
131 1 -3.74272 -1.73426 -1.8097 21
132 1 -1.78985 -3.96347 -1.81683 20
133 2 -12.5986 -8.3854 -9.53214 13
134 2 -14.2784 -7.09798 -6.78231 14
135 2 -12.6363 -9.66263 -6.77494 13
136 2 -12.4857 -7.80684 -4.77997 18
137 2 -15.5254 -7.05295 -3.37872 14
138 2 -12.14 -10.3049 -2.98909 15
139 2 -14.6568 -9.00115 -0.227827 12
140 2 -12.9389 -7.61467 -1.73129 21
141 2 -12.4632 -2.47771 -11.6221 16
142 2 -12.1113 -5.16067 -9.21982 19
143 2 -14.8161 -3.63272 -7.92942 13
144 2 -12.8973 -1.77985 -8.39082 18
145 2 -15.4697 -0.899423 -6.4047 14
146 2 -11.9999 -4.75383 -6.46039 21
147 2 -14.4711 -4.3136 -5.00912 17
148 2 -13.0562 -1.72138 -4.97706 23
149 2 -16.1641 -0.933057 -3.26735 14
150 2 -12.2055 -4.11919 -3.17015 21
151 2 -15.0821 -3.93099 -1.99559 19
152 2 -12.9962 -1.51028 -1.76647 22
153 2 -7.40609 -13.1655 -8.60666 11
154 2 -10.154 -12.5274 -7.07311 12
155 2 -6.22467 -16.459 -6.41358 7
156 2 -8.14417 -13.7784 -5.68965 13
157 2 -10.0379 -12.3684 -3.6515 16
158 2 -6.80762 -15.4918 -3.21982 14
159 2 -8.81484 -14.8765 -0.36515 13
160 2 -7.43059 -12.8882 -1.81746 20
161 2 -8.71391 -6.32592 -13.4364 13
162 2 -11.8213 -5.47297 -11.9838 12
163 2 -3.88627 -11.9972 -12.9438 11
164 2 -9.94393 -9.53875 -11.6369 12
165 2 -7.36203 -8.16158 -11.5526 18
166 2 -10.1105 -6.83704 -10.3019 18
167 2 -7.2144 -10.7288 -10.207 15
168 2 -9.76138 -9.4143 -8.39624 18
169 2 -7.34058 -7.58878 -8.40593 20
170 2 -10.086 -6.49749 -6.85061 21
171 2 -6.8715 -10.5296 -6.93205 23
172 2 -9.89959 -9.53444 -5.25705 19
173 2 -7.70582 -7.81473 -5.08493 22
174 2 -10.2905 -6.60981 -3.3162 22
175 2 -7.0363 -10.6559 -3.60661 21
176 2 -9.58756 -9.44916 -1.76232 24
177 2 -7.47981 -7.76029 -2.00683 24
178 2 -6.745 -4.37212 -16.1627 14
179 2 -9.87889 -3.86342 -14.3183 14
180 2 -7.82702 -1.42905 -15.0 18
181 2 -10.1995 -0.923273 -13.3749 19
182 2 -6.52991 -4.8886 -13.6637 21
183 2 -9.26747 -3.86687 -11.1976 20
184 2 -7.34098 -1.75754 -11.7995 19
185 2 -10.2052 -0.998798 -10.2994 20
186 2 -6.7179 -4.69465 -9.92813 19
187 2 -9.3721 -3.68366 -7.93202 20
188 2 -7.49059 -2.09171 -8.74729 21
189 2 -10.2703 -0.678203 -6.87706 23
190 2 -6.5631 -5.13789 -6.88298 24
191 2 -9.42579 -3.80585 -4.90702 22
192 2 -7.30484 -2.20736 -5.35372 23
193 2 -10.0676 -0.972469 -3.51754 22
194 2 -6.85275 -5.01305 -3.50252 21
195 2 -9.21475 -3.7299 -1.75569 22
196 2 -7.37259 -1.91778 -1.65853 21
197 2 -2.0092 -12.7242 -11.0761 16
198 2 -4.66006 -12.3789 -10.0476 15
199 2 -3.34901 -15.3303 -7.84202 12
200 2 -1.79072 -13.1795 -8.30738 18
201 2 -4.72529 -12.5967 -6.98137 20
202 2 -0.711066 -16.0211 -6.75683 12
203 2 -3.72733 -15.6515 -4.89718 16
204 2 -1.86059 -12.5279 -4.7661 20
205 2 -4.62926 -12.3697 -3.61116 20
206 2 -0.954919 -15.5585 -3.35538 16
207 2 -3.71135 -15.2475 -1.90462 16
208 2 -1.87779 -12.9854 -1.34444 21
209 2 -3.95898 -6.737 -16.4303 11
210 2 -3.0277 -9.47736 -14.9194 14
211 2 -0.617683 -7.66637 -15.113 18
212 2 -4.59888 -7.18654 -13.0653 18
213 2 -0.682336 -10.489 -13.3336 18
214 2 -3.80758 -9.6717 -11.5752 20
215 2 -1.70905 -7.62613 -11.6709 21
216 2 -4.55674 -6.76273 -10.0172 22
217 2 -0.65676 -10.332 -10.1609 21
218 2 -4.01887 -9.71005 -8.25789 22
219 2 -1.81001 -7.50216 -8.20896 21
220 2 -4.73513 -6.85572 -6.71983 21
221 2 -1.18863 -10.2726 -6.87778 20
222 2 -4.05741 -9.60398 -5.10327 20
223 2 -1.80562 -7.55443 -4.88243 21
224 2 -4.86692 -6.8375 -3.43966 20
225 2 -0.961432 -9.9413 -3.22971 17
226 2 -4.10231 -9.33818 -2.03227 20
227 2 -2.11854 -7.38004 -1.75143 20
228 2 -5.14167 -1.17141 -16.0032 15
229 2 -1.07943 -5.25139 -16.4731 14
230 2 -3.77075 -4.14032 -14.9773 19
231 2 -1.7961 -1.83249 -14.9424 19
232 2 -4.60052 -1.25908 -13.2494 20
233 2 -1.1494 -4.83477 -13.5537 20
234 2 -4.13795 -3.99701 -11.7451 21
235 2 -1.66919 -2.27033 -11.6809 22
236 2 -4.15752 -0.995774 -10.0754 22
237 2 -1.0517 -4.92259 -10.118 21
238 2 -3.77569 -4.35019 -8.5415 21
239 2 -1.86188 -1.814 -8.35355 22
240 2 -4.92887 -1.54999 -6.84084 22
241 2 -1.07464 -4.56091 -6.78871 19
242 2 -3.91888 -4.12232 -5.16488 21
243 2 -1.66398 -2.19627 -5.06568 24
244 2 -4.49921 -1.17468 -3.5534 20
245 2 -1.10588 -4.91781 -3.28975 21
246 2 -4.01369 -3.79659 -1.83234 22
247 2 -1.72214 -2.08265 -1.69249 22
248 1 -11.7251 -12.4632 0.683128 12
249 1 -12.2933 -12.0548 5.88836 8
250 1 -13.2888 -6.49888 -0.162829 21
251 1 -14.9462 -7.69815 1.99212 14
252 1 -13.8314 -10.0944 1.03265 13
253 1 -12.3037 -6.45638 3.08311 21
254 1 -15.4721 -7.5925 4.63548 12
255 1 -13.6549 -9.39933 4.52033 17
256 1 -12.5529 -6.38426 6.3518 20
257 1 -13.5248 -9.28866 8.2486 10
258 1 -12.6512 -6.57582 9.42278 15
259 1 -16.334 -4.54934 0.103833 17
260 1 -12.2004 -0.85513 0.0239357 21
261 1 -15.2703 -1.76133 1.24727 22
262 1 -13.2553 -3.57973 1.61298 21
263 1 -15.9969 -4.61034 3.12992 15
264 1 -12.4592 -1.03523 3.37016 22
265 1 -15.3803 -1.65162 4.85863 18
266 1 -13.1719 -3.58276 4.69716 21
267 1 -15.8377 -4.65281 6.56434 13
268 1 -12.3591 -0.883149 6.38084 22
269 1 -15.0943 -1.71901 8.3251 14
270 1 -13.3823 -4.04664 8.06443 19
271 1 -12.6072 -1.16562 9.77349 19
272 1 -13.566 -3.69642 11.487 10
273 1 -12.4629 -1.12884 13.1358 12
274 1 -6.75109 -12.3183 -0.115644 20
275 1 -9.03307 -14.2834 1.49962 15
276 1 -6.29373 -15.1104 1.98932 18
277 1 -6.49204 -12.0514 3.06556 19
278 1 -9.81112 -13.1806 3.7622 13
279 1 -7.44361 -15.7771 4.50987 12
280 1 -6.10134 -13.0187 6.21275 19
281 1 -8.85725 -11.8093 6.3729 15
282 1 -6.99066 -11.8982 9.11722 13
283 1 -10.1279 -10.3294 -0.141437 19
284 1 -6.76017 -6.57294 -0.460402 21
285 1 -9.44984 -7.01898 1.34216 20
286 1 -7.29107 -9.16444 1.6087 20
287 1 -10.2923 -9.8139 3.23221 21
288 1 -6.78468 -6.42407 2.98924 19
289 1 -9.68122 -6.92403 4.71556 22
290 1 -7.42865 -9.62436 4.93934 20
291 1 -10.883 -8.99615 6.34895 20
292 1 -6.676 -6.90562 6.51958 21
293 1 -9.69699 -6.66029 8.34763 22
294 1 -7.70956 -9.00649 8.08986 20
295 1 -10.5339 -9.31508 9.6047 15
296 1 -6.58133 -6.37004 9.69899 23
297 1 -9.79778 -7.02624 11.6295 15
298 1 -7.9632 -9.87284 11.7396 12
299 1 -7.22154 -6.97262 13.3111 18
300 1 -10.4395 -4.3858 -0.207483 22
301 1 -6.70643 -1.27203 0.0696424 21
302 1 -9.46199 -1.57516 1.71254 20
303 1 -7.66616 -4.12054 1.52857 24
304 1 -10.4268 -4.2827 3.11902 22
305 1 -6.58843 -0.923307 3.19512 20
306 1 -9.45591 -1.40718 4.7023 22
307 1 -7.66252 -4.17073 4.904 23
308 1 -10.3786 -4.80019 6.28533 22
309 1 -6.93867 -0.904747 6.59878 21
310 1 -9.80562 -1.87785 8.10945 20
311 1 -7.80879 -3.88441 8.21637 20
312 1 -10.9482 -4.28631 10.0039 21
313 1 -6.94716 -1.06964 9.76647 20
314 1 -9.82681 -1.67834 11.6759 21
315 1 -7.9202 -4.40424 11.5761 22
316 1 -10.2037 -4.54977 13.6277 13
317 1 -6.69479 -1.7426 12.7919 26
318 1 -9.82285 -1.46763 15.0873 12
319 1 -7.81148 -4.3627 14.6259 17
320 1 -4.42671 -15.8445 -0.271668 17
321 1 -1.1584 -12.3147 0.153458 20
322 1 -3.98183 -13.0754 1.68985 23
323 1 -1.82526 -15.2317 1.66982 18
324 1 -4.25463 -16.4305 3.13255 15
325 1 -1.17649 -12.301 3.49346 19
326 1 -3.47243 -11.9919 4.86123 19
327 1 -1.83351 -14.8655 5.3333 18
328 1 -4.90636 -16.059 6.30273 10
329 1 -1.12989 -12.48 7.08253 21
330 1 -4.17687 -13.2341 8.18535 16
331 1 -2.26438 -15.3492 8.55857 9
332 1 -0.690239 -12.3976 9.96919 16
333 1 -3.88989 -12.3755 11.0975 12
334 1 -0.768915 -11.9152 13.1327 12
335 1 -4.52848 -10.3419 -0.21062 22
336 1 -1.05212 -6.41081 -0.0989973 19
337 1 -3.84576 -7.32228 1.51668 22
338 1 -1.882 -9.96563 1.63233 22
339 1 -4.68032 -9.85333 3.23525 22
340 1 -1.11957 -6.86142 3.18197 20
341 1 -4.02956 -7.46382 4.94895 21
342 1 -1.86744 -9.67942 5.15802 21
343 1 -4.6202 -9.89274 6.9113 22
344 1 -1.08243 -6.60949 6.62183 20
345 1 -3.79502 -7.04597 8.36305 21
346 1 -1.81124 -9.43501 7.86632 20
347 1 -5.25381 -9.25944 10.0773 17
348 1 -0.974905 -6.59318 10.2979 21
349 1 -4.00443 -6.39049 11.6857 23
350 1 -2.29259 -9.32098 11.109 21
351 1 -5.01166 -9.31698 12.9256 15
352 1 -1.16811 -6.83718 13.7358 22
353 1 -4.84438 -7.05307 15.1947 15
354 1 -2.22078 -9.60582 15.0968 12
355 1 -4.55392 -4.40862 -0.241549 19
356 1 -1.21552 -1.13301 0.0790724 23
357 1 -3.86854 -1.377 1.42312 20
358 1 -2.13028 -3.92182 1.66739 23
359 1 -4.57649 -4.4351 3.15255 21
360 1 -1.08047 -1.13927 3.64176 20
361 1 -3.92281 -1.84891 5.00277 21
362 1 -1.85949 -4.13907 4.98336 21
363 1 -4.78852 -4.60066 6.60885 22
364 1 -1.23083 -1.17182 6.82839 18
365 1 -3.8423 -1.62627 8.0017 20
366 1 -1.95113 -3.68354 8.38163 21
367 1 -4.97301 -3.66724 10.0156 24
368 1 -1.17375 -0.8939 10.5081 20
369 1 -3.92643 -1.14386 11.5909 22
370 1 -2.0459 -3.92696 11.7228 21
371 1 -5.08068 -4.14332 13.5441 21
372 1 -0.969872 -1.3353 13.7038 20
373 1 -3.90971 -1.49597 14.8335 21
374 1 -2.00181 -4.19976 15.1416 18
375 2 -15.5249 -6.21038 -0.281547 17
376 2 -12.3597 -10.6142 0.0748322 15
377 2 -14.4359 -9.53167 2.73227 11
378 2 -13.3409 -7.13465 1.4937 20
379 2 -16.0073 -6.42908 3.27876 14
380 2 -11.8118 -9.93266 4.19782 15
381 2 -13.3903 -7.49373 4.14948 20
382 2 -15.315 -6.42168 6.05784 13
383 2 -12.6985 -10.3104 6.61167 13
384 2 -12.7583 -7.53525 7.71299 18
385 2 -15.4283 -0.833563 -0.458571 18
386 2 -12.7377 -4.57916 -0.205546 22
387 2 -15.4186 -3.54441 1.69552 19
388 2 -13.1799 -1.63302 1.5428 21
389 2 -16.1615 -0.881046 3.4778 17
390 2 -12.4595 -4.52371 2.90683 21
391 2 -15.1669 -3.78436 4.96395 18
392 2 -13.3538 -1.5105 4.9615 21
393 2 -15.3689 -0.836117 6.79772 16
394 2 -12.2743 -4.57521 6.284 24
395 2 -15.3204 -3.53146 8.14243 12
396 2 -12.8882 -1.89379 8.01892 19
397 2 -12.6817 -4.6402 10.06 14
398 2 -13.077 -2.00718 11.5932 14
399 2 -10.6202 -12.0492 -1.03165 16
400 2 -6.41848 -15.7927 0.238416 16
401 2 -8.97033 -15.0262 3.40285 12
402 2 -7.23077 -13.2923 1.78512 21
403 2 -10.5064 -12.9161 1.97268 14
404 2 -6.19346 -16.6679 3.2673 11
405 2 -7.39424 -11.8219 4.87891 21
406 2 -10.4385 -12.5158 5.41054 12
407 2 -6.49344 -14.8165 5.86203 15
408 2 -7.49244 -12.4443 7.41864 15
409 2 -9.53499 -6.05523 -0.331354 20
410 2 -6.59598 -10.3056 0.146047 20
411 2 -9.48627 -9.21674 1.40134 17
412 2 -7.31906 -7.16184 1.19193 19
413 2 -10.2776 -6.2692 2.89745 21
414 2 -6.44039 -9.67586 3.1804 21
415 2 -9.37518 -9.24774 4.75728 19
416 2 -7.6527 -6.36915 4.76998 24
417 2 -10.4518 -6.62055 6.33105 21
418 2 -6.5279 -9.21252 6.65464 23
419 2 -12.3556 -9.45766 9.52649 9
420 2 -7.8722 -6.93166 8.10939 20
421 2 -10.7862 -6.89318 10.0029 16
422 2 -9.82247 -9.24833 7.90414 19
423 2 -9.57614 -9.11162 11.3839 13
424 2 -7.8078 -6.33538 11.2646 22
425 2 -10.1809 -3.7942 11.7851 20
426 2 -7.1311 -10.0785 9.81839 18
427 2 -5.34288 -6.31308 13.4794 20
428 2 -10.1487 -0.676209 0.179964 20
429 2 -6.67099 -4.53003 -0.15849 21
430 2 -9.64595 -3.61195 1.5248 20
431 2 -7.49687 -1.83792 1.90754 20
432 2 -10.4869 -0.939442 3.17935 20
433 2 -6.68291 -4.42225 3.31019 18
434 2 -9.5937 -3.73765 4.90746 22
435 2 -7.61932 -1.35096 4.93079 21
436 2 -10.1909 -1.03583 6.46382 20
437 2 -6.71608 -4.13091 6.57627 21
438 2 -9.74413 -4.38598 8.41842 22
439 2 -7.88439 -1.83509 8.09046 19
440 2 -10.5853 -1.15697 9.82404 20
441 2 -6.84213 -4.28022 9.9648 21
442 2 -9.04721 -5.93639 13.3725 13
443 2 -7.94481 -0.995088 11.5341 21
444 2 -10.5324 -0.929801 13.4272 17
445 2 -6.87743 -3.55849 13.1893 22
446 2 -9.57666 -3.37582 14.8065 13
447 2 -7.88388 -0.967862 15.3926 16
448 2 -4.41091 -12.2927 0.0941323 22
449 2 -1.15263 -16.0053 0.0174279 17
450 2 -4.08624 -15.2588 1.39496 19
451 2 -1.49138 -13.2158 1.9042 23
452 2 -4.45153 -12.0058 3.17776 21
453 2 -2.74694 -17.4755 2.2049 10
454 2 -3.8824 -15.563 4.76562 18
455 2 -1.77156 -12.9025 5.41356 22
456 2 -4.53859 -11.8669 6.7083 19
457 2 -1.07861 -15.2522 7.25774 14
458 2 -3.83698 -15.1654 7.43628 13
459 2 -2.27671 -13.01 8.57102 16
460 2 -5.35699 -12.7321 9.86412 12
461 2 -1.93477 -12.5376 11.5869 11
462 2 -4.74433 -6.67463 -0.150778 22
463 2 -1.13754 -10.2537 -0.266803 19
464 2 -3.78964 -9.44663 1.44846 19
465 2 -1.8781 -7.30655 1.44511 19
466 2 -4.57432 -6.46259 3.4504 23
467 2 -1.12925 -10.29 3.3885 20
468 2 -3.99225 -9.84013 5.04334 22
469 2 -2.02508 -7.80493 4.85171 22
470 2 -4.69291 -6.71696 6.68888 19
471 2 -0.602599 -9.91007 6.48093 22
472 2 -3.82708 -9.04177 8.33605 19
473 2 -1.84376 -7.33209 8.38726 19
474 2 -5.01631 -7.23475 10.1537 21
475 2 -1.0943 -10.2279 9.82604 21
476 2 -4.07186 -10.1358 11.3025 15
477 2 -2.07391 -7.09655 11.9567 22
478 2 -6.70267 -8.81055 12.6817 16
479 2 -0.760294 -10.1712 13.9767 14
480 2 -3.93444 -8.76958 14.5672 15
481 2 -0.989488 -7.65109 15.4368 17
482 2 -4.66379 -0.98332 -0.349606 21
483 2 -1.48541 -4.43006 0.0345083 21
484 2 -3.97149 -3.50298 1.38839 23
485 2 -2.02665 -1.62993 1.93234 21
486 2 -4.51326 -0.992765 3.20296 18
487 2 -1.16192 -4.78161 3.40631 22
488 2 -3.87979 -3.8904 4.93999 20
489 2 -1.78655 -2.14872 5.23121 21
490 2 -4.88862 -1.0748 6.34457 22
491 2 -0.989703 -4.61275 6.84176 19
492 2 -3.89764 -3.70372 8.3058 20
493 2 -2.00382 -1.73981 8.83363 20
494 2 -4.86787 -1.46493 9.86379 22
495 2 -1.20133 -4.63538 10.1719 21
496 2 -4.12241 -4.41795 11.7129 20
497 2 -2.2726 -2.02199 12.1753 22
498 2 -4.97205 -1.10863 13.2772 23
499 2 -1.06978 -4.33627 13.3612 20
500 2 -3.98107 -3.56992 14.9269 21
501 2 -1.79174 -1.81869 15.4824 20
502 1 -12.9323 1.73555 -12.2039 13
503 1 -12.3609 4.78275 -10.6829 15
504 1 -15.1564 4.00234 -8.3625 10
505 1 -13.2374 1.67364 -8.59809 17
506 1 -15.0586 1.08283 -6.38944 16
507 1 -12.2214 4.51046 -6.97976 22
508 1 -15.0699 3.94756 -4.93202 17
509 1 -12.8619 1.6888 -4.90751 20
510 1 -16.5259 1.20115 -3.27201 12
511 1 -12.3923 4.55104 -3.39525 19
512 1 -15.0357 3.82972 -1.61207 17
513 1 -12.1756 2.12925 -1.63147 22
514 1 -12.3926 7.88845 -8.54368 13
515 1 -14.8634 6.65027 -6.98344 10
516 1 -12.7549 10.349 -6.55782 12
517 1 -12.7192 7.38079 -5.16049 21
518 1 -15.3313 6.75188 -3.48469 14
519 1 -11.9257 10.6089 -3.74463 13
520 1 -14.5729 9.65691 -1.63886 11
521 1 -12.4741 7.65611 -1.78973 19
522 1 -6.18871 3.56855 -17.0499 12
523 1 -8.83012 3.96383 -14.9811 15
524 1 -7.36977 0.845407 -15.2865 18
525 1 -10.1116 1.09574 -13.2464 20
526 1 -6.24232 4.19339 -13.6732 24
527 1 -9.09428 4.07803 -11.9098 20
528 1 -7.54724 1.49627 -11.8412 22
529 1 -10.3034 0.933674 -10.2035 22
530 1 -6.60598 4.35244 -10.228 24
531 1 -9.45961 3.87525 -8.59802 19
532 1 -7.35566 1.77047 -8.2175 19
533 1 -10.4182 1.2851 -6.73329 22
534 1 -6.54498 4.68415 -6.77211 21
535 1 -9.34626 4.11133 -5.02555 20
536 1 -7.36673 1.65461 -5.11833 21
537 1 -9.90167 1.09409 -3.50357 18
538 1 -6.58321 4.58451 -3.33102 21
539 1 -9.36371 3.75637 -1.45993 21
540 1 -7.28395 1.71332 -1.57509 21
541 1 -6.56082 6.46879 -15.2213 13
542 1 -11.8991 4.41352 -13.5389 11
543 1 -3.41378 11.7727 -13.5014 11
544 1 -8.89119 9.33905 -12.0015 7
545 1 -6.84716 7.34861 -11.892 20
546 1 -10.0912 6.77233 -10.0169 16
547 1 -7.13562 10.0324 -9.99451 18
548 1 -9.94694 9.74381 -8.54608 18
549 1 -7.42811 7.35201 -8.61153 23
550 1 -10.3696 6.57604 -6.51893 21
551 1 -7.20259 10.1789 -6.8978 20
552 1 -9.81006 9.09785 -5.40257 20
553 1 -7.21005 7.44851 -5.01893 23
554 1 -9.81729 6.19198 -3.39494 21
555 1 -6.55515 10.0446 -3.26762 19
556 1 -9.41037 9.57607 -1.83837 19
557 1 -7.115 7.50092 -1.46124 22
558 1 -7.15864 13.163 -8.3977 15
559 1 -9.81229 11.9888 -5.79385 18
560 1 -6.55437 16.2674 -6.75103 11
561 1 -6.48423 12.8397 -4.95874 22
562 1 -8.96217 12.0606 -3.27203 19
563 1 -7.0476 15.6777 -2.91398 14
564 1 -8.64616 14.9176 -5.77147 10
565 1 -6.57983 13.1493 -1.5889 22
566 1 -5.03416 0.728354 -16.699 13
567 1 -1.30924 4.71403 -16.6754 14
568 1 -4.10884 3.53853 -15.2645 19
569 1 -2.1393 1.65192 -14.8756 19
570 1 -4.73594 0.992062 -13.1647 23
571 1 -0.986618 4.60166 -13.4887 23
572 1 -3.81886 3.71942 -11.9095 21
573 1 -1.68636 1.97753 -11.6261 21
574 1 -4.58289 0.972484 -10.0775 20
575 1 -1.48708 4.61503 -9.94881 22
576 1 -3.78406 3.62511 -8.34196 22
577 1 -1.99061 1.58376 -8.35513 21
578 1 -4.66392 0.654039 -6.83517 21
579 1 -1.0184 4.26013 -6.54039 23
580 1 -4.19996 3.4733 -5.00748 23
581 1 -1.86335 1.38993 -5.20544 22
582 1 -4.61796 0.794383 -3.58805 20
583 1 -1.46601 4.50526 -3.30154 21
584 1 -3.8883 3.82301 -1.53383 22
585 1 -2.03182 1.51984 -1.74735 21
586 1 -3.9951 6.80809 -17.0417 10
587 1 -3.77594 9.21076 -14.9452 13
588 1 -1.44907 7.47649 -15.1683 17
589 1 -3.65745 6.57445 -13.6204 23
590 1 -0.742544 10.5345 -13.385 19
591 1 -4.71261 9.40951 -11.7223 20
592 1 -1.59941 7.57638 -11.7999 19
593 1 -4.39773 6.51389 -10.152 22
594 1 -1.74398 10.525 -10.0271 20
595 1 -4.41967 9.21928 -8.45625 24
596 1 -1.69277 7.40883 -8.50926 21
597 1 -4.38696 6.38519 -6.76494 21
598 1 -1.75699 10.5096 -6.55391 21
599 1 -4.69201 9.35394 -5.30354 23
600 1 -2.15268 7.24192 -4.84731 23
601 1 -4.44862 6.50295 -3.55096 22
602 1 -0.904589 10.2523 -3.30932 21
603 1 -3.88677 9.42364 -1.74627 18
604 1 -1.94018 7.25633 -1.64219 20
605 1 -1.69535 12.9649 -11.658 13
606 1 -4.82704 12.3812 -10.1761 17
607 1 -3.89968 15.154 -8.28171 12
608 1 -1.248 13.5513 -8.06746 17
609 1 -4.52738 12.1536 -6.9198 20
610 1 -1.02817 16.3502 -6.56173 13
611 1 -4.04502 15.5361 -4.90068 16
612 1 -2.01985 13.1569 -4.8601 21
613 1 -4.05618 11.8198 -3.17468 21
614 1 -1.18122 15.7488 -3.00163 17
615 1 -4.20976 14.9773 -1.56097 19
616 1 -1.87366 12.9464 -1.41088 19
617 2 -11.9979 0.791098 -13.4697 14
618 2 -12.9693 3.64959 -12.1835 12
619 2 -12.4267 1.09738 -10.1736 18
620 2 -15.0425 1.88875 -8.08844 12
621 2 -12.9049 3.91258 -8.87834 17
622 2 -15.4567 4.81101 -6.74128 13
623 2 -12.4093 1.1112 -6.82447 20
624 2 -15.4972 2.01572 -4.78353 15
625 2 -12.7783 3.69 -5.0216 21
626 2 -14.9325 4.96981 -3.28965 16
627 2 -12.0435 1.24997 -3.28586 22
628 2 -15.3908 1.79237 -1.68489 15
629 2 -12.8333 3.90664 -1.39588 19
630 2 -12.2429 6.66309 -10.0541 11
631 2 -12.015 9.7943 -8.03767 14
632 2 -12.8095 6.44583 -6.86316 19
633 2 -14.7624 7.48651 -5.20177 11
634 2 -11.7538 9.00193 -5.12125 20
635 2 -11.8221 6.55535 -3.37303 21
636 2 -15.0725 7.71863 -1.78885 14
637 2 -12.691 9.69379 -2.43986 13
638 2 -11.7506 11.6327 -5.71803 12
639 2 -6.54789 1.92616 -16.5962 14
640 2 -8.98248 2.0036 -14.7423 17
641 2 -7.16796 4.49962 -15.6415 14
642 2 -10.1532 4.32045 -13.6222 14
643 2 -6.87651 0.924005 -13.4986 21
644 2 -9.49002 2.04706 -11.6625 22
645 2 -7.06884 3.69996 -11.9309 21
646 2 -9.88073 4.86363 -10.2795 20
647 2 -6.46795 1.30465 -9.98101 22
648 2 -9.30791 1.94113 -8.62632 20
649 2 -7.21219 3.8546 -8.33837 19
650 2 -10.3267 4.67921 -6.9802 19
651 2 -6.63116 0.918497 -6.70849 23
652 2 -9.58596 2.18075 -5.10712 21
653 2 -7.36712 3.96015 -5.00819 20
654 2 -10.275 4.25807 -3.30334 22
655 2 -6.57943 0.705119 -3.58961 22
656 2 -9.30758 1.68 -1.70524 19
657 2 -7.23847 3.6223 -1.37036 22
658 2 -6.7452 6.16356 -13.4383 17
659 2 -8.7126 7.48908 -11.288 16
660 2 -6.71979 9.38111 -11.6839 17
661 2 -9.25382 10.1496 -10.3688 13
662 2 -6.30049 6.37899 -10.1031 21
663 2 -10.2384 7.57428 -8.0183 21
664 2 -6.70479 9.12143 -8.40078 24
665 2 -9.06702 10.3236 -6.81064 23
666 2 -6.67177 6.5532 -6.79542 21
667 2 -9.29525 7.25928 -4.94549 19
668 2 -6.72827 9.33746 -5.12 20
669 2 -9.98824 10.4076 -3.57447 18
670 2 -6.49999 6.68239 -3.1079 21
671 2 -9.26407 7.09982 -1.60585 21
672 2 -7.12724 9.51567 -1.51705 19
673 2 -6.51098 11.731 -9.48608 16
674 2 -7.68823 14.7266 -7.44022 12
675 2 -6.45221 12.0014 -6.72999 21
676 2 -8.36222 13.1046 -5.03454 17
677 2 -7.52953 15.9157 -4.75398 10
678 2 -6.84648 12.0582 -3.27676 20
679 2 -9.59405 12.776 -1.51842 14
680 2 -7.64903 14.7552 -1.2784 15
681 2 -4.81696 5.07406 -16.6083 15
682 2 -1.08483 0.794671 -16.336 15
683 2 -4.06517 1.6889 -14.9206 19
684 2 -2.17424 3.56221 -15.2689 19
685 2 -4.30109 4.78069 -13.3816 22
686 2 -1.21861 1.03032 -13.1133 21
687 2 -3.82349 1.90231 -11.8509 23
688 2 -1.82405 3.99972 -11.7888 22
689 2 -4.3967 4.51962 -10.1369 21
690 2 -0.980045 1.18495 -9.89685 21
691 2 -3.84229 1.45371 -8.36065 21
692 2 -1.79651 3.58076 -8.13107 20
693 2 -4.49481 4.49928 -6.93616 21
694 2 -1.08884 0.563897 -6.82065 22
695 2 -3.97498 1.5976 -5.36198 19
696 2 -1.88587 3.58603 -5.02803 21
697 2 -4.48705 4.37635 -3.41579 21
698 2 -1.11385 0.887298 -3.34502 21
699 2 -3.99655 1.88372 -2.03101 22
700 2 -1.79932 3.84124 -1.49029 21
701 2 -2.06978 6.49676 -17.0867 12
702 2 -4.42675 7.28628 -15.2005 16
703 2 -2.04631 9.35079 -14.5196 17
704 2 -4.33631 10.1277 -13.4008 13
705 2 -1.55398 6.63873 -13.4892 21
706 2 -3.96066 7.63981 -11.7308 22
707 2 -1.30051 9.42107 -11.6235 23
708 2 -4.02998 10.5831 -9.80658 21
709 2 -1.25737 6.46704 -10.1772 21
710 2 -3.78856 7.34867 -8.41519 21
711 2 -1.13614 9.39895 -8.09305 20
712 2 -3.88686 10.3734 -6.74621 20
713 2 -1.23723 6.51011 -6.6839 21
714 2 -4.03199 7.30131 -5.20411 20
715 2 -1.25251 9.2453 -4.83417 22
716 2 -4.40907 9.93281 -3.61726 24
717 2 -1.37977 6.3298 -3.30308 21
718 2 -3.8884 7.24248 -1.64063 21
719 2 -1.87334 9.43096 -1.68571 21
720 2 -0.896819 12.3312 -13.2406 13
721 2 -3.66403 12.5459 -11.8341 13
722 2 -0.923944 12.3029 -9.98163 21
723 2 -4.5496 13.3762 -8.56499 15
724 2 -2.13071 15.4772 -7.93249 13
725 2 -4.75194 16.1782 -6.74336 11
726 2 -1.35868 12.4435 -6.42649 20
727 2 -4.26899 13.1703 -4.57147 20
728 2 -2.06474 15.5086 -4.82691 17
729 2 -5.05197 15.6858 -3.13814 17
730 2 -1.3468 12.3298 -3.32248 21
731 2 -3.96699 12.8846 -1.45674 21
732 2 -2.03929 14.7632 -1.68929 19
733 1 -16.2978 1.15833 0.112167 15
734 1 -12.0983 4.91295 0.050499 23
735 1 -15.2013 3.99567 1.68971 18
736 1 -12.9744 2.14253 1.74081 22
737 1 -15.8886 1.03177 3.07688 15
738 1 -12.1657 4.48194 3.2664 19
739 1 -15.131 3.70711 4.68684 18
740 1 -13.3096 1.87251 4.96832 20
741 1 -15.5572 0.963558 6.57907 14
742 1 -12.8122 4.56895 6.68077 19
743 1 -15.5122 4.0262 8.08668 11
744 1 -13.0298 2.01783 8.16755 20
745 1 -12.8163 4.77082 9.99574 15
746 1 -13.0218 1.93815 11.6679 13
747 1 -15.5623 6.83998 -0.169606 16
748 1 -13.5133 11.6263 1.10335 7
749 1 -15.3266 9.50717 1.55108 11
750 1 -13.0031 7.67361 1.63995 18
751 1 -15.6715 6.90519 3.28045 14
752 1 -12.0213 10.1981 3.35637 18
753 1 -13.2433 7.75132 4.99226 18
754 1 -15.3374 6.90473 6.5592 10
755 1 -12.2342 10.3492 6.88447 10
756 1 -13.0565 8.39616 9.35446 9
757 1 -9.96326 1.22265 -0.080031 20
758 1 -6.76581 4.62642 0.173952 22
759 1 -9.42117 3.94383 1.92703 22
760 1 -7.27579 1.84275 1.59384 22
761 1 -9.97574 1.03062 3.43339 23
762 1 -6.76001 4.52355 3.41458 21
763 1 -9.26629 4.19253 5.24356 23
764 1 -7.35799 1.66982 5.25106 22
765 1 -10.3247 1.12555 6.62002 21
766 1 -6.62149 4.54785 6.80068 18
767 1 -9.56725 4.09501 8.23261 22
768 1 -7.6272 1.86345 8.58362 22
769 1 -10.4204 1.00685 9.61353 21
770 1 -6.5734 4.65872 9.8299 20
771 1 -9.57376 3.67415 11.4915 23
772 1 -7.76693 1.13749 11.7454 20
773 1 -10.4652 1.35502 13.3938 16
774 1 -6.47795 3.89413 12.9481 22
775 1 -9.06387 4.025 14.9298 14
776 1 -7.77473 0.796579 15.301 16
777 1 -9.84145 6.74254 0.258671 21
778 1 -6.5117 10.0181 0.142895 19
779 1 -9.39407 9.57607 1.841 19
780 1 -7.61961 7.13177 1.94977 21
781 1 -10.4522 6.93687 3.54997 21
782 1 -6.31574 9.94447 3.44632 23
783 1 -9.47093 9.79272 5.06835 21
784 1 -7.69241 7.31822 5.17928 21
785 1 -10.5648 6.61246 6.72336 20
786 1 -6.53812 10.0197 6.83779 20
787 1 -9.55363 9.82508 8.73082 18
788 1 -7.82318 7.25067 8.39941 23
789 1 -10.1596 6.60865 10.1303 20
790 1 -6.25751 9.07157 10.3979 21
791 1 -9.14773 9.38858 12.3135 12
792 1 -7.57151 6.72417 11.8555 19
793 1 -10.7164 6.41559 13.1222 10
794 1 -6.28832 10.4372 12.8852 12
795 1 -6.57435 6.64371 15.4988 13
796 1 -10.4159 11.8383 0.475871 13
797 1 -6.52044 15.7433 0.129739 13
798 1 -9.25816 14.31 -0.363729 12
799 1 -7.15871 12.9643 1.63896 22
800 1 -10.0866 12.6947 3.06466 13
801 1 -6.53579 15.3114 3.88149 12
802 1 -7.09321 12.7132 4.67622 22
803 1 -9.63642 12.4922 6.75446 14
804 1 -7.09408 13.8444 7.27095 14
805 1 -7.87243 12.3229 10.205 13
806 1 -4.55012 1.00112 -0.312934 21
807 1 -0.986227 4.3992 0.131828 22
808 1 -3.79102 3.77068 1.60513 21
809 1 -1.89102 1.63698 1.68494 20
810 1 -4.55436 1.09703 3.33429 20
811 1 -1.10716 4.36321 3.52983 21
812 1 -4.09993 3.5318 4.96944 20
813 1 -1.51776 1.84193 5.05933 19
814 1 -4.70768 1.0202 6.99819 19
815 1 -1.27132 4.52493 6.63948 19
816 1 -3.84253 3.94979 8.29348 20
817 1 -1.89569 1.86782 8.5803 22
818 1 -4.92228 1.12832 9.97618 21
819 1 -0.99626 4.1423 9.9742 21
820 1 -3.69783 3.67862 11.2936 24
821 1 -2.15051 1.37358 12.0603 24
822 1 -5.09965 0.950548 13.3347 23
823 1 -0.919037 4.20618 13.4289 23
824 1 -3.80115 3.31645 14.7216 22
825 1 -1.78863 1.52102 15.2886 18
826 1 -4.35565 6.55589 0.00415073 19
827 1 -1.17605 10.197 0.0293885 20
828 1 -3.49508 9.15227 1.83489 23
829 1 -1.63061 7.29777 1.88123 20
830 1 -4.67105 6.58739 3.48799 21
831 1 -0.911439 10.0274 3.46059 22
832 1 -3.40864 9.63611 5.22755 21
833 1 -1.81198 7.49346 4.81511 22
834 1 -4.68773 6.7347 6.49325 20
835 1 -1.01066 10.1471 7.03697 17
836 1 -3.49533 9.51015 8.64877 19
837 1 -1.75306 7.42495 8.35601 19
838 1 -4.2992 6.78372 10.1191 19
839 1 -0.61149 9.56715 10.6105 24
840 1 -3.4772 9.39719 12.3038 20
841 1 -1.704 6.75691 12.0927 21
842 1 -4.54098 6.38858 13.5711 20
843 1 -0.755383 10.0798 13.6334 18
844 1 -3.97664 9.19162 15.4588 11
845 1 -0.992415 7.64828 15.1068 15
846 1 -4.17049 11.7717 0.0863194 22
847 1 -1.8749 15.7057 0.224665 15
848 1 -4.21168 14.7625 1.87434 19
849 1 -1.58663 12.8798 1.73669 21
850 1 -4.24262 11.9834 3.4846 24
851 1 -2.21075 15.2981 3.73273 15
852 1 -4.44872 14.6946 5.67569 18
853 1 -1.49426 12.7909 4.95613 22
854 1 -4.55497 12.1223 6.88837 19
855 1 -1.10682 14.5336 7.1226 15
856 1 -4.18214 14.6084 8.92535 9