ITEM: TIMESTEP
174000
ITEM: NUMBER OF ATOMS
2000
ITEM: BOX BOUNDS pp pp pp
-30.0 30.0
-30.0 30.0
-30.0 30.0
ITEM: ATOMS id type x y z Coordination
1 1 -16.1537 -6.49687 1.89173 12
2 1 -16.4118 -3.67551 3.25112 13
3 1 -15.6994 -6.88694 -1.35302 15
4 2 -16.6008 -5.88116 -0.134025 12
5 2 -16.4013 -5.53086 3.47273 14
6 2 -12.2462 -8.64237 2.93837 18
7 1 0.712354 -14.6478 -3.65693 17
8 1 3.75261 -15.4072 -5.37915 14
9 1 3.66908 -14.4487 -1.97745 18
10 2 5.00228 -15.3016 -6.59536 12
11 2 4.61582 -14.5367 -3.91904 17
12 2 -0.932754 -14.3849 2.88858 15
13 2 0.619942 -0.679008 -16.6603 17
14 1 0.685744 1.22003 -16.2423 20
15 1 1.62052 -1.48299 -18.1405 11
16 2 3.172 -0.476311 -18.1292 12
17 1 -12.1415 -11.9355 -2.22833 14
18 1 -12.5767 -7.22185 -10.7652 14
19 1 -13.0402 -8.89064 -8.17128 10
20 1 -12.673 -5.9009 -6.3928 21
21 1 -16.6348 -4.52705 -3.35495 17
22 1 -13.6633 -8.69591 -5.08858 15
23 1 -12.8984 -5.92336 -3.15007 23
24 1 -16.0959 -6.45341 -5.37959 14
25 1 -13.3249 -8.5613 -1.64004 22
26 1 -12.8522 -1.66485 -13.5538 12
27 1 -14.1091 -3.69974 -11.2955 12
28 1 -12.6232 -1.02 -10.0048 17
29 1 -16.4354 -3.57642 -6.71494 12
30 1 -13.6857 -3.08617 -8.19061 18
31 1 -15.1744 -5.89577 -8.57284 12
32 1 -12.4781 -0.306928 -6.25024 20
33 1 -15.408 -1.5098 -4.2238 16
34 1 -13.7404 -3.59443 -4.96084 20
35 1 -16.8707 -3.77732 -0.0463871 13
36 1 -12.989 -0.732449 -3.12539 18
37 1 -15.704 -1.19599 -1.59354 16
38 1 -13.5379 -3.07244 -1.70786 23
39 1 -5.5487 -13.4327 -9.34044 11
40 1 -8.95805 -13.4696 -7.51857 7
41 1 -6.69876 -11.3006 -6.38792 21
42 1 -9.5496 -11.8578 -4.67379 14
43 1 -8.05236 -14.4019 -1.58772 13
44 1 -6.69951 -12.1604 -3.2822 22
45 1 -9.86881 -12.1526 -1.05904 20
46 1 -11.1629 -14.4909 0.506293 10
47 1 -7.39858 -6.4605 -13.6385 16
48 1 -9.44406 -6.67282 -11.6627 18
49 1 -7.55139 -9.59424 -11.5245 14
50 1 -10.5934 -9.64271 -9.91001 13
51 1 -7.42888 -6.3172 -10.1523 22
52 1 -9.76049 -6.26204 -8.32426 19
53 1 -7.72583 -8.66105 -8.28672 20
54 1 -10.4213 -9.9083 -6.73865 18
55 1 -6.96285 -5.99312 -6.5599 20
56 1 -9.77089 -6.83263 -4.7279 23
57 1 -7.74408 -9.15708 -5.02311 21
58 1 -10.5794 -9.18134 -3.14297 22
59 1 -6.81048 -6.52451 -3.41471 19
60 1 -9.6929 -6.46966 -1.47932 22
61 1 -7.85127 -9.51706 -1.80527 23
62 1 -7.54495 -3.63449 -15.5149 9
63 1 -9.35084 -0.541944 -14.3986 16
64 1 -7.5212 -6.7407 -17.0548 5
65 1 -11.3309 -4.59986 -13.0088 14
66 1 -6.57905 -1.35121 -13.3933 19
67 1 -10.043 -1.25633 -11.7289 20
68 1 -8.11267 -3.88581 -11.7595 20
69 1 -10.7729 -4.26032 -9.89425 25
70 1 -6.97478 -1.53318 -10.1302 22
71 1 -9.80786 -1.42947 -8.15874 21
72 1 -7.69371 -3.98558 -8.15647 22
73 1 -10.5634 -3.89353 -6.60486 20
74 1 -6.71928 -1.3688 -6.46567 21
75 1 -9.77454 -1.17466 -4.59375 19
76 1 -7.81081 -3.9365 -4.87333 23
77 1 -10.6107 -4.21634 -3.40976 22
78 1 -6.83495 -1.55536 -3.31391 22
79 1 -9.81451 -1.37303 -1.56851 20
80 1 -7.74565 -3.94999 -1.5532 21
81 1 -1.30512 -11.6587 -13.2105 12
82 1 -4.40422 -11.6087 -11.7746 12
83 1 -1.16896 -11.7754 -10.2526 19
84 1 -3.39644 -11.5549 -8.23737 22
85 1 -2.18886 -14.4432 -8.87677 12
86 1 -4.98644 -13.677 -6.69269 14
87 1 -0.981134 -11.7317 -6.68063 23
88 1 -3.74082 -11.7347 -4.90544 20
89 1 -2.10056 -14.383 -5.65671 17
90 1 -5.13411 -14.6804 -3.40015 14
91 1 -0.880065 -11.9739 -3.49194 21
92 1 -3.95492 -12.6741 -1.61065 21
93 1 -1.96041 -14.7223 -1.74942 17
94 1 -1.26778 -7.15125 -16.9082 11
95 1 -4.45182 -8.38508 -18.26 7
96 1 -2.63201 -8.99047 -15.0227 13
97 1 -5.52614 -8.68253 -13.1665 16
98 1 -1.29383 -6.2769 -13.3736 21
99 1 -3.93461 -6.1954 -11.504 21
100 1 -2.51531 -9.28584 -11.7285 23
101 1 -4.97833 -8.67944 -9.87402 22
102 1 -0.920559 -6.6102 -10.7124 22
103 1 -3.85144 -6.84081 -8.04376 16
104 1 -1.94002 -9.01082 -8.38229 20
105 1 -4.89185 -8.58483 -6.3269 22
106 1 -1.0757 -6.36301 -7.0156 21
107 1 -3.8097 -5.97039 -5.24773 20
108 1 -2.04736 -9.12003 -5.09496 19
109 1 -4.69861 -9.43034 -3.1667 20
110 1 -0.784109 -6.15204 -3.87244 22
111 1 -3.95003 -6.63874 -1.80964 21
112 1 -1.64918 -8.85398 -1.92912 21
113 1 -4.16267 -6.88057 -14.5825 19
114 1 -1.15568 -0.948828 -16.8534 13
115 1 -4.17586 -0.742298 -15.5557 13
116 1 -1.81062 -4.33139 -15.4613 16
117 1 -4.85324 -4.23312 -13.2702 19
118 1 -1.52207 -0.694257 -13.8639 21
119 1 -3.90182 -0.587637 -11.9328 21
120 1 -2.32423 -3.3221 -11.7961 21
121 1 -4.94398 -3.77916 -9.76801 20
122 1 -1.19623 -1.13297 -10.3931 19
123 1 -4.20739 -1.36861 -8.85322 21
124 1 -1.99929 -3.2299 -8.5024 19
125 1 -4.60559 -3.35661 -6.48959 22
126 1 -1.31132 -0.897992 -6.87578 20
127 1 -3.96741 -0.530029 -5.25361 20
128 1 -1.74487 -3.36331 -5.2701 21
129 1 -4.74239 -4.1547 -3.19383 21
130 1 -0.676535 -1.14759 -3.38631 20
131 1 -3.95365 -1.17056 -2.02904 22
132 1 -2.17443 -4.28752 -1.98585 20
133 2 -12.1583 -8.85848 -9.95038 11
134 2 -13.7433 -6.89334 -7.7703 15
135 2 -12.3175 -9.31068 -6.34007 15
136 2 -13.75 -6.40831 -4.70911 21
137 2 -16.6543 -6.29526 -3.1985 13
138 2 -12.4707 -8.83128 -3.45712 19
139 2 -16.1764 -8.34819 -5.36898 8
140 2 -13.5889 -6.59919 -1.24049 19
141 2 -13.0225 -3.71664 -13.0236 10
142 2 -12.4142 -3.26525 -10.102 18
143 2 -16.1521 -5.54201 -6.95181 15
144 2 -13.2606 -1.12506 -8.0822 17
145 2 -15.6553 -2.39097 -7.58295 13
146 2 -13.0889 -4.09527 -6.63362 21
147 2 -15.9387 -3.50177 -4.85437 15
148 2 -13.7782 -1.07927 -5.2103 20
149 2 -15.5309 -0.0765769 -3.27392 16
150 2 -12.9018 -3.84128 -3.31396 20
151 2 -16.4146 -3.00017 -2.03859 13
152 2 -13.8147 -1.17577 -1.25928 19
153 2 -6.88316 -13.2559 -7.96885 9
154 2 -9.66399 -11.903 -6.77619 13
155 2 -6.90649 -14.1187 -2.94005 14
156 2 -7.6984 -11.1193 -4.66121 18
157 2 -10.5388 -11.4239 -3.2563 16
158 2 -9.89938 -14.3125 -0.902382 14
159 2 -12.0298 -13.0672 1.18467 11
160 2 -7.96531 -11.5251 -1.58284 21
161 2 -5.10578 -6.50962 -13.082 20
162 2 -14.0392 -5.06055 -9.84027 13
163 2 -7.37528 -8.15809 -12.9159 14
164 2 -9.34107 -9.12161 -11.2715 13
165 2 -11.3624 -5.88658 -11.6387 15
166 2 -9.41822 -5.69676 -10.1106 20
167 2 -6.90849 -8.52131 -10.2632 20
168 2 -9.39267 -9.31333 -8.45623 18
169 2 -7.91376 -6.12247 -8.07761 22
170 2 -10.7535 -5.87162 -6.53046 20
171 2 -6.85531 -9.12888 -6.63187 19
172 2 -9.71925 -8.97751 -4.93831 20
173 2 -7.97921 -5.90855 -5.00833 23
174 2 -10.8977 -6.0817 -3.33838 20
175 2 -6.72873 -9.03218 -3.35057 24
176 2 -9.65888 -8.57615 -1.62023 23
177 2 -7.71716 -6.04297 -1.7387 21
178 2 -7.42475 -5.50805 -15.5305 11
179 2 -5.75892 -7.36084 -17.6216 6
180 2 -7.62443 -1.41532 -15.1773 11
181 2 -11.0498 -0.66599 -13.4898 16
182 2 -6.72721 -3.3733 -13.512 17
183 2 -9.88238 -3.15558 -12.0162 19
184 2 -8.08343 -0.581039 -11.7991 21
185 2 -10.7685 -0.904373 -9.88047 20
186 2 -6.85092 -3.63121 -10.0179 21
187 2 -9.59243 -3.42935 -8.15811 21
188 2 -7.75441 -0.756334 -8.1516 22
189 2 -10.5047 -0.513603 -6.51357 20
190 2 -6.59679 -3.42634 -6.69651 22
191 2 -9.88407 -3.38917 -5.02274 22
192 2 -7.79537 -0.908367 -4.98581 22
193 2 -10.9176 -0.591399 -2.96384 22
194 2 -6.66681 -3.62839 -3.32266 21
195 2 -9.87506 -3.78584 -1.69932 22
196 2 -7.64356 -1.21125 -1.66375 20
197 2 -2.63246 -11.6972 -11.8193 12
198 2 -4.4483 -11.964 -9.84407 16
199 2 -3.83159 -14.3348 -8.3073 11
200 2 -1.80006 -12.4784 -8.57822 19
201 2 -4.92742 -11.7909 -6.75183 20
202 2 -1.03481 -14.7703 -7.09664 14
203 2 -4.16671 -14.4091 -4.91962 15
204 2 -1.98983 -12.3429 -5.07534 22
205 2 -4.80192 -11.4652 -3.03335 22
206 2 -1.28591 -14.6075 -4.05505 18
207 2 -4.29313 -14.8516 -1.61237 16
208 2 -2.15879 -12.716 -1.3149 18
209 2 -2.70228 -7.84006 -17.8268 8
210 2 -4.4888 -8.89009 -14.7352 14
211 2 -2.06015 -7.05251 -15.0041 16
212 2 -7.73412 -5.70419 -12.0158 22
213 2 -1.50841 -9.72533 -13.5608 17
214 2 -4.64713 -9.46245 -11.5758 18
215 2 -2.33008 -7.2962 -11.9842 22
216 2 -4.77478 -6.78564 -9.76824 24
217 2 -1.15457 -9.81887 -9.96266 24
218 2 -4.28783 -8.95974 -8.14016 19
219 2 -1.74333 -7.04206 -8.63801 22
220 2 -4.96071 -6.44938 -6.4952 20
221 2 -1.24472 -9.78062 -6.80939 21
222 2 -3.91361 -9.67706 -4.9165 22
223 2 -1.78163 -7.12498 -5.42776 23
224 2 -4.79892 -6.09984 -3.44726 22
225 2 -0.77789 -9.7753 -3.24117 23
226 2 -3.80647 -8.83744 -1.51244 19
227 2 -1.62887 -6.6908 -2.0158 20
228 2 -5.31537 0.700942 -16.0436 13
229 2 -0.510507 -5.32073 -16.4285 14
230 2 -3.58715 -4.69682 -14.8404 15
231 2 -1.60406 -2.23878 -15.5825 15
232 2 -4.7599 -0.590209 -13.7354 17
233 2 -1.2114 -4.28424 -13.1125 20
234 2 -4.03548 -3.97283 -11.4905 18
235 2 -2.16879 -1.34777 -12.0769 19
236 2 -5.00472 -0.647927 -10.5287 23
237 2 -0.952512 -3.53198 -10.3354 18
238 2 -3.87654 -3.57116 -8.22188 21
239 2 -2.24479 -1.05023 -8.65274 22
240 2 -4.89032 -1.24451 -6.965 21
241 2 -0.944048 -3.95249 -6.91169 21
242 2 -3.59136 -4.0669 -5.02572 21
243 2 -2.00316 -1.39873 -5.11085 21
244 2 -5.1509 -0.763571 -3.6185 22
245 2 -0.982629 -4.13642 -3.63159 19
246 2 -3.89113 -3.19392 -1.64786 22
247 2 -2.01567 -1.64559 -1.80575 21
248 1 -12.7049 -11.3177 0.582581 15
249 1 -12.6098 -10.5198 3.90576 12
250 1 -13.0215 -5.69331 0.28901 20
251 1 -15.1706 -10.4775 -1.4234 10
252 1 -13.5365 -8.85875 1.67957 16
253 1 -12.6348 -6.5093 3.38643 22
254 1 -15.2943 -6.31303 8.08513 9
255 1 -10.7234 -9.0013 6.3621 21
256 1 -12.5869 -5.9151 6.60035 21
257 1 -11.9709 -8.34474 9.87155 9
258 1 -11.0827 -8.37006 13.2954 9
259 1 -16.7612 -8.40335 -3.65224 10
260 1 -12.371 -0.609089 0.214971 20
261 1 -15.7022 -0.753036 1.64271 17
262 1 -13.8106 -3.40245 1.63414 21
263 1 -13.8013 -8.41143 6.27146 11
264 1 -12.6846 -0.270368 3.54327 21
265 1 -16.1397 -0.602099 5.10787 14
266 1 -13.5414 -3.15301 5.11412 22
267 1 -15.0851 -6.35837 4.61261 17
268 1 -12.485 -1.35558 6.91344 17
269 1 -16.5925 -3.56714 6.55578 11
270 1 -13.5583 -3.77996 8.27777 16
271 1 -12.8168 -1.22918 10.3825 19
272 1 -13.573 -3.87682 11.7402 11
273 1 -12.6884 -1.67131 13.7423 16
274 1 -7.01503 -12.282 -0.102235 21
275 1 -10.1037 -12.2488 2.24492 20
276 1 -8.0921 -14.8829 1.38262 14
277 1 -6.89893 -12.4611 2.83549 20
278 1 -9.58853 -11.7299 5.25729 18
279 1 -7.93126 -14.5733 4.51067 12
280 1 -7.03855 -11.0653 10.9167 16
281 1 -6.51727 -12.2919 6.85385 20
282 1 -5.51364 -13.7571 8.99762 12
283 1 -10.8252 -8.79307 0.183543 19
284 1 -6.94609 -6.77636 -0.179134 22
285 1 -9.89661 -6.73402 1.67362 20
286 1 -7.7816 -9.52044 1.42392 22
287 1 -10.3437 -8.80919 3.43501 21
288 1 -7.35204 -7.0123 3.21605 24
289 1 -9.45426 -6.02409 4.97566 20
290 1 -7.59899 -9.58347 4.93254 21
291 1 -9.24424 -12.1208 8.63685 10
292 1 -6.86155 -6.89125 6.62948 21
293 1 -9.67317 -6.43273 8.37601 17
294 1 -8.44644 -9.34049 8.15988 19
295 1 -10.461 -10.6209 11.8617 8
296 1 -7.01654 -7.38909 10.102 18
297 1 -9.53945 -6.6083 12.2012 17
298 1 -8.32316 -9.60888 14.3999 10
299 1 -6.17902 -7.03595 13.2827 17
300 1 -10.6245 -3.46242 0.0993557 21
301 1 -6.87318 -1.27406 -0.0816776 22
302 1 -9.41713 -0.78796 1.79593 21
303 1 -7.88548 -4.02484 1.71425 22
304 1 -11.0017 -3.35206 3.11002 22
305 1 -6.63515 -1.44498 3.45238 24
306 1 -9.82042 -1.51826 5.13084 20
307 1 -7.40213 -4.02213 5.03433 18
308 1 -10.4197 -3.84659 6.85685 21
309 1 -6.6923 -1.60049 6.60751 23
310 1 -9.47461 -1.95061 8.92192 22
311 1 -7.53004 -4.44612 8.36261 22
312 1 -10.6825 -4.31878 10.1873 17
313 1 -6.81853 -1.82229 10.1952 21
314 1 -9.89003 -2.07235 12.0587 24
315 1 -7.73543 -4.43039 11.3859 23
316 1 -10.6708 -4.60976 13.8499 15
317 1 -7.24625 -1.94014 13.4652 23
318 1 -9.89687 -1.48441 15.3392 14
319 1 -8.02681 -4.37226 14.7393 18
320 1 -5.24492 -15.2179 0.00688956 15
321 1 -0.913419 -12.1467 -0.220077 21
322 1 -3.92724 -11.7178 1.37376 19
323 1 -1.96194 -15.6614 1.43785 13
324 1 -5.06851 -14.8311 3.32922 16
325 1 -1.32324 -12.5993 3.08993 21
326 1 -3.89328 -12.5418 5.13505 22
327 1 -2.07009 -14.7895 4.48099 14
328 1 -5.4449 -15.4766 6.29368 13
329 1 -1.18692 -11.8919 6.48869 21
330 1 -3.75053 -11.4694 8.49806 19
331 1 -2.7283 -14.6548 7.24904 15
332 1 -1.21017 -11.7355 9.61898 18
333 1 -4.83315 -12.2481 11.7702 10
334 1 -1.45234 -11.457 13.0618 14
335 1 -4.90079 -9.7313 -0.270394 21
336 1 -0.796211 -6.20534 -0.209771 21
337 1 -3.84341 -6.93972 1.54086 21
338 1 -2.10268 -9.37308 1.31973 18
339 1 -5.09305 -9.83662 3.13423 20
340 1 -1.13522 -6.46735 3.09297 20
341 1 -3.8404 -7.00196 5.09742 21
342 1 -2.29287 -9.81061 4.7591 21
343 1 -4.95118 -9.64511 6.706 19
344 1 -0.914331 -6.40723 6.50302 18
345 1 -3.70389 -6.38765 8.58377 20
346 1 -1.7554 -8.85332 8.34886 21
347 1 -4.55746 -9.24676 10.0974 18
348 1 -0.999992 -6.51084 10.1294 22
349 1 -3.3291 -6.04279 12.2677 18
350 1 -1.9794 -9.01547 11.7881 20
351 1 -4.44203 -9.96596 13.4747 15
352 1 -0.785791 -6.45444 14.0989 21
353 1 -5.50935 -7.70395 15.6135 10
354 1 -1.96373 -9.31581 15.5666 11
355 1 -4.87202 -4.00199 0.28691 22
356 1 -1.09239 -2.01702 -0.108947 19
357 1 -3.73147 -1.44647 1.29187 21
358 1 -1.74756 -3.97565 1.59447 23
359 1 -5.0713 -4.55081 3.4675 23
360 1 -0.894549 -1.41834 3.33271 20
361 1 -3.80226 -1.56877 4.85531 23
362 1 -1.92327 -4.26214 4.9646 21
363 1 -4.78009 -4.17001 6.59284 21
364 1 -1.06217 -1.59105 6.49588 21
365 1 -3.99036 -1.17694 8.30683 19
366 1 -1.90716 -3.41392 8.45983 21
367 1 -4.68317 -3.46497 10.035 21
368 1 -0.808756 -0.953118 10.017 22
369 1 -3.71067 -0.961578 11.8179 20
370 1 -1.78043 -3.61601 11.8128 20
371 1 -4.98272 -4.1399 13.4865 21
372 1 -1.37747 -1.36917 13.7465 23
373 1 -4.22977 -1.4259 15.422 21
374 1 -2.05831 -3.70893 15.1105 22
375 2 -15.7135 -2.74012 4.96064 15
376 2 -11.1797 -10.8208 -0.438939 21
377 2 -13.8354 -9.64195 -0.0178786 15
378 2 -14.2421 -6.83252 1.77839 18
379 2 -9.46603 -11.1812 7.0057 14
380 2 -12.5803 -9.33 5.3738 17
381 2 -13.5579 -6.85974 5.241 18
382 2 -12.639 -3.9189 9.9773 19
383 2 -13.4609 -7.03914 8.05695 16
384 2 -11.5106 -8.73581 11.4778 9
385 2 -16.4006 -0.357628 -0.0866979 15
386 2 -12.5497 -3.80689 0.00651376 20
387 2 -15.7907 -3.54792 1.3445 17
388 2 -13.4237 -1.24263 1.73518 20
389 2 -16.7771 0.00177017 3.32059 12
390 2 -12.8554 -4.19455 3.13348 23
391 2 -15.6324 -7.22607 6.40942 10
392 2 -12.9868 -1.41087 4.9407 17
393 2 -15.4124 -4.38438 7.67006 13
394 2 -12.3107 -3.852 6.43145 20
395 2 -12.3922 -3.47875 13.5317 14
396 2 -13.5683 -1.81211 8.69526 17
397 2 -13.8161 -1.85889 11.9822 14
398 2 -10.6914 -6.61692 13.7262 12
399 2 -13.8546 -11.8217 -1.55705 10
400 2 -6.88882 -14.2638 -0.177137 19
401 2 -9.80112 -14.1312 1.76933 15
402 2 -8.32141 -11.5218 1.76144 21
403 2 -15.8073 -8.9807 -2.17353 12
404 2 -7.01549 -15.1786 2.98595 13
405 2 -8.036 -12.4072 4.46643 17
406 2 -10.7728 -11.3832 3.91984 16
407 2 -6.31009 -13.9479 5.73884 16
408 2 -7.428 -12.9985 8.43577 14
409 2 -11.3981 -6.92027 0.112929 23
410 2 -6.65534 -8.77983 0.0349908 22
411 2 -9.45323 -8.67952 1.65878 21
412 2 -7.7396 -6.11855 1.3905 22
413 2 -10.5163 -6.37017 3.51908 20
414 2 -6.99345 -9.90136 3.14057 19
415 2 -9.45233 -8.88187 4.96472 23
416 2 -7.53789 -6.21318 4.94 21
417 2 -10.54 -6.10735 6.60744 19
418 2 -6.97243 -8.8139 6.55329 20
419 2 -10.3571 -8.48573 8.44858 18
420 2 -7.79546 -6.4903 8.24249 20
421 2 -10.186 -6.48818 10.3173 18
422 2 -9.10832 -11.445 10.6916 11
423 2 -9.46333 -10.0538 13.1876 10
424 2 -4.50844 -6.11262 13.8798 19
425 2 -9.84725 -4.18793 12.0241 21
426 2 -7.03023 -8.38593 14.6238 10
427 2 -7.4677 -6.54047 11.941 16
428 2 -10.3452 -1.51358 0.333989 20
429 2 -6.85791 -3.5258 0.0762562 23
430 2 -9.89498 -4.66051 1.80358 21
431 2 -7.4563 -0.620416 1.6652 22
432 2 -10.5425 -1.29407 3.40849 22
433 2 -6.73291 -3.50553 3.16066 21
434 2 -9.43654 -3.90637 4.87895 20
435 2 -8.01105 -1.42726 4.86181 20
436 2 -10.4276 -1.64637 7.12164 21
437 2 -6.68447 -3.54257 6.85492 24
438 2 -9.63594 -3.92724 8.48015 20
439 2 -7.53702 -0.920228 8.64944 21
440 2 -10.6545 -1.20859 10.361 22
441 2 -6.66542 -3.86039 10.0767 21
442 2 -3.79908 -9.2138 11.904 19
443 2 -7.86743 -1.15419 11.6965 22
444 2 -10.7289 -0.858013 13.7043 20
445 2 -6.7998 -3.77594 13.3104 22
446 2 -9.4145 -2.99726 14.2996 16
447 2 -8.05769 -0.913199 15.3846 18
448 2 -5.09127 -11.8656 -0.109921 21
449 2 -0.981933 -15.3908 -0.17537 14
450 2 -3.9633 -15.4054 1.42727 13
451 2 -1.99035 -11.7137 1.27112 20
452 2 -4.78138 -12.085 3.26565 21
453 2 4.38162 -14.0935 -0.068702 19
454 2 -4.05456 -14.7488 5.04974 17
455 2 -1.91272 -11.9698 4.69409 21
456 2 -4.65723 -11.8257 6.9584 20
457 2 -1.02271 -15.0737 6.13964 15
458 2 -4.39085 -14.8925 7.96264 13
459 2 -2.02393 -12.5514 7.96599 19
460 2 -4.57787 -12.4424 9.81954 17
461 2 -3.52473 -11.5794 12.8158 14
462 2 -4.7024 -6.0355 -0.0132547 23
463 2 -0.882791 -9.20754 -0.174609 19
464 2 -3.97357 -9.48385 1.58848 19
465 2 -1.96254 -6.39298 1.45175 20
466 2 -4.85699 -6.73856 3.39723 19
467 2 -0.944 -9.23631 3.51447 21
468 2 -4.14917 -9.5012 5.06205 19
469 2 -2.04331 -6.24701 4.88174 19
470 2 -4.66469 -6.21037 6.63085 22
471 2 -1.08441 -9.95528 6.85368 20
472 2 -3.79971 -9.59971 8.45332 21
473 2 -1.52974 -6.84034 8.23722 22
474 2 -4.94017 -7.24128 9.91956 20
475 2 -1.38381 -9.76416 10.2919 21
476 2 -5.99714 -11.0912 12.5547 12
477 2 -1.72514 -7.22466 11.8596 23
478 2 -7.04187 -9.32337 9.81301 17
479 2 -1.3009 -9.72581 13.7625 16
480 2 -3.84355 -8.96868 15.2389 13
481 2 -0.934351 -7.44108 15.7029 16
482 2 -4.98919 -0.630096 -0.0952568 22
483 2 -0.972574 -4.26033 -0.304808 19
484 2 -3.81447 -4.09308 1.95136 20
485 2 -1.77431 -1.58214 1.45818 20
486 2 -4.7769 -1.23568 3.1508 24
487 2 -0.99118 -3.57277 3.30077 22
488 2 -4.02941 -3.73748 4.7928 21
489 2 -1.58273 -0.754328 4.76914 21
490 2 -4.91268 -1.15084 6.61901 20
491 2 -0.937629 -3.86014 6.696 20
492 2 -3.7398 -4.40252 8.66219 20
493 2 -1.96414 -1.44482 8.37793 20
494 2 -4.7597 -1.4405 10.0642 21
495 2 -1.19322 -4.30943 10.171 21
496 2 -3.76037 -4.36948 11.5799 23
497 2 -2.01066 -1.68845 12.0142 21
498 2 -4.79346 -1.21338 13.5438 21
499 2 -1.07904 -4.61922 13.3973 23
500 2 -1.67384 -1.73855 15.7366 19
501 2 -4.1476 -6.16488 16.7844 11
502 1 -13.4021 1.19874 -11.3436 12
503 1 -12.9445 4.40463 -12.5696 8
504 1 -16.252 2.98064 -7.00039 12
505 1 -13.3134 1.88536 -8.08608 17
506 1 -15.0174 -0.487691 -7.80592 13
507 1 -12.7866 4.70435 -6.82251 18
508 1 -15.4937 4.64039 -4.26762 16
509 1 -13.5398 2.29545 -5.22856 23
510 1 -16.4603 1.65536 -3.42771 15
511 1 -12.3582 3.78307 -3.24096 21
512 1 -15.6049 4.33295 -1.31655 18
513 1 -13.9562 1.90457 -1.76796 22
514 1 -13.7952 5.46553 -9.27092 10
515 1 -12.4901 8.32257 -7.4723 18
516 1 -16.2457 9.55894 -5.16925 7
517 1 -15.8408 7.37975 -3.68879 12
518 1 -15.2118 6.57262 -7.12334 12
519 1 -12.4599 8.51669 -4.37382 15
520 1 -12.514 13.4378 0.498238 11
521 1 -16.4999 9.35922 -1.54413 8
522 1 -8.61443 3.08532 -15.6025 11
523 1 -7.65315 6.75994 -11.9808 23
524 1 -7.3409 0.300577 -16.2696 12
525 1 -11.0 1.77288 -13.3376 16
526 1 -6.70203 4.07198 -13.6737 20
527 1 -9.68507 4.7927 -11.5297 19
528 1 -7.75572 1.49607 -12.1124 21
529 1 -10.5099 1.13046 -9.86318 22
530 1 -6.58888 4.39486 -10.0542 21
531 1 -9.52389 4.06812 -8.55708 19
532 1 -7.71882 1.10221 -8.62264 23
533 1 -10.1838 1.65725 -6.60658 20
534 1 -6.48595 4.12729 -6.70038 20
535 1 -9.64402 4.44415 -5.02327 21
536 1 -7.70955 1.22789 -4.96252 21
537 1 -10.6357 1.6586 -3.14561 20
538 1 -6.44598 3.8474 -3.41886 22
539 1 -9.35642 4.26797 -1.79794 23
540 1 -7.65103 1.12533 -1.60498 23
541 1 -9.49693 9.52624 -11.9662 15
542 1 -10.8819 6.98116 -13.4695 11
543 1 -1.37466 12.6749 -12.0568 15
544 1 -11.5067 10.6806 -10.1135 11
545 1 -6.84417 9.11312 -10.3203 22
546 1 -10.7684 7.23851 -10.217 19
547 1 -7.88747 11.5313 -11.0605 14
548 1 -9.59006 9.82546 -8.42872 23
549 1 -7.75067 6.44807 -9.03592 22
550 1 -10.1705 6.40971 -6.9487 19
551 1 -6.68111 9.63976 -7.25741 21
552 1 -9.44403 9.11317 -5.42413 21
553 1 -7.28179 6.53017 -5.40749 20
554 1 -10.5151 6.44372 -3.44504 21
555 1 -6.69232 9.75285 -3.58414 20
556 1 -9.58021 9.08147 -2.53917 19
557 1 -7.49705 6.69174 -2.06281 22
558 1 -8.40346 12.4106 -8.1519 16
559 1 -11.721 11.3722 -6.45321 12
560 1 -6.63894 14.7722 -6.86631 14
561 1 -7.95585 11.9028 -5.15758 18
562 1 -10.149 12.5443 -3.35862 15
563 1 -6.62218 14.1521 -3.68914 18
564 1 -8.94741 15.8694 -4.55902 7
565 1 -7.49279 12.0191 -1.80051 21
566 1 -5.18068 2.38056 -16.8786 13
567 1 -0.506205 3.95899 -16.7403 15
568 1 -3.28266 4.80367 -15.3312 15
569 1 -2.22133 2.13699 -15.2268 19
570 1 -5.09202 1.34073 -13.7006 20
571 1 -0.645689 4.56525 -13.3365 22
572 1 -3.69787 4.7726 -12.0816 19
573 1 -1.9485 2.16037 -12.0235 20
574 1 -4.71871 2.03954 -10.4462 20
575 1 -0.727286 4.57062 -10.1888 22
576 1 -3.72923 4.48282 -8.86931 21
577 1 -2.15525 2.13045 -8.54511 20
578 1 -4.94827 1.45337 -7.00275 21
579 1 -1.10404 4.47956 -6.61958 21
580 1 -3.65497 4.70386 -5.40062 23
581 1 -1.9599 1.98397 -5.08085 23
582 1 -4.78209 1.67091 -3.35457 21
583 1 -0.683219 4.37795 -3.43924 23
584 1 -3.52185 3.97807 -1.94549 19
585 1 -1.58541 1.468 -1.48199 21
586 1 -7.82605 6.79497 -15.149 11
587 1 -3.43446 8.96041 -15.5317 10
588 1 -1.56091 7.11191 -15.4851 15
589 1 -4.80763 7.00756 -13.4577 18
590 1 -0.583253 9.87905 -13.5101 17
591 1 -6.27966 9.73913 -13.7083 12
592 1 -1.86078 7.20274 -11.8464 23
593 1 -4.60535 6.72895 -10.2247 18
594 1 -0.608718 9.95449 -10.3959 22
595 1 -3.91697 10.4306 -8.51489 22
596 1 -1.881 7.16613 -8.57713 22
597 1 -4.76254 7.32944 -6.87511 21
598 1 -0.942221 9.73913 -6.83964 22
599 1 -3.70583 9.68378 -5.28825 21
600 1 -1.81553 7.13188 -4.89982 20
601 1 -4.71639 7.66406 -3.60876 19
602 1 -1.09255 9.64021 -3.24701 21
603 1 -3.94827 10.1291 -1.72745 24
604 1 -1.9018 6.9132 -1.63386 19
605 1 -0.583152 15.3665 -10.061 11
606 1 -3.4916 9.70536 -11.8518 19
607 1 -4.78205 12.1229 -10.2255 18
608 1 -1.30544 12.5996 -8.84617 22
609 1 -4.97507 12.2759 -6.99819 19
610 1 -6.82156 14.8813 -10.1282 10
611 1 -4.06022 14.9137 -5.34274 14
612 1 -2.08224 12.3608 -5.49208 24
613 1 -4.67709 12.129 -3.6887 24
614 1 -1.23694 14.7538 -3.67027 15
615 1 -4.10537 14.4166 -1.88214 15
616 1 -2.00227 12.5474 -1.90434 23
617 2 -13.6294 -0.657384 -11.5594 14
618 2 -12.7124 2.52408 -12.6489 11
619 2 -13.9312 3.74503 -8.08991 14
620 2 -12.467 1.18424 -9.70428 18
621 2 -15.9386 7.6629 -5.668 12
622 2 -15.8638 4.78168 -6.60434 13
623 2 -12.1737 1.6831 -6.29679 21
624 2 -15.5589 1.2296 -7.21317 14
625 2 -13.9658 8.20752 -3.28248 13
626 2 -15.636 2.74918 -4.50978 15
627 2 -12.5973 1.53042 -3.35549 20
628 2 -15.9004 2.29289 -1.64974 15
629 2 -13.7113 3.83847 -1.79692 21
630 2 -13.7576 5.29 -11.0852 7
631 2 -10.1528 11.4416 -7.50075 17
632 2 -13.3467 6.56598 -7.59494 17
633 2 -13.3319 4.23504 -4.73235 19
634 2 -16.9493 9.09953 -3.60354 7
635 2 -10.2748 8.47528 -7.21593 22
636 2 -15.1215 5.64002 0.162627 14
637 2 -15.2507 9.75847 -0.430546 8
638 2 -6.89299 12.2086 -6.9186 22
639 2 -7.08471 2.57097 -16.6355 10
640 2 -8.91093 1.2954 -15.0621 15
641 2 -3.72899 3.29698 -16.4933 11
642 2 -11.1914 5.51306 -12.4806 14
643 2 -6.78261 2.33955 -13.7936 20
644 2 -9.67907 1.92701 -11.5698 20
645 2 -7.90286 4.79232 -11.9028 20
646 2 -9.77949 6.02192 -9.09812 22
647 2 -6.70838 2.15641 -10.2922 22
648 2 -9.61758 2.12335 -8.40517 18
649 2 -7.70052 4.65979 -8.32281 21
650 2 -10.7941 4.47482 -6.75836 20
651 2 -6.91097 1.78608 -6.87903 19
652 2 -9.68604 2.26739 -4.756 22
653 2 -7.46782 4.40143 -5.01053 22
654 2 -10.6827 4.41723 -3.00554 19
655 2 -6.82868 1.93035 -3.43006 22
656 2 -9.48272 1.64124 -1.20517 21
657 2 -7.48272 4.81527 -1.79248 22
658 2 -9.82844 7.66816 -14.8084 8
659 2 -9.60233 7.27314 -11.9071 16
660 2 -9.92792 11.3847 -11.5379 9
661 2 -10.3614 9.031 -10.2242 18
662 2 -6.61912 7.03135 -10.4134 19
663 2 -12.6153 9.4699 -9.14012 10
664 2 -7.80382 9.7789 -8.89483 21
665 2 -12.5865 9.77561 -6.02166 14
666 2 -6.87205 7.22743 -7.21551 22
667 2 -9.49611 6.26207 -5.15611 20
668 2 -7.57807 9.59357 -5.45416 24
669 2 -10.458 8.42236 -3.99396 17
670 2 -6.7559 7.50432 -3.57135 22
671 2 -9.59123 7.02879 -1.88916 17
672 2 -7.39569 9.96199 -1.71534 24
673 2 -4.85407 14.5737 -9.93054 13
674 2 -4.87307 14.2486 -6.9683 18
675 2 -9.66399 11.0377 -4.41606 18
676 2 -7.09447 13.0529 -10.6187 14
677 2 -9.80856 14.5838 -3.29512 11
678 2 -6.69992 12.0161 -3.77576 20
679 2 -9.80616 11.5607 1.764 20
680 2 -7.19905 14.0 -1.56018 19
681 2 -8.17098 4.89916 -14.9628 14
682 2 -1.44699 3.80464 -15.066 21
683 2 -2.4958 0.171955 -15.4876 17
684 2 -3.56547 6.9915 -15.3858 15
685 2 -4.61235 4.60314 -13.7459 19
686 2 -0.81069 1.34265 -13.6414 20
687 2 -3.72315 1.6004 -12.2857 19
688 2 -1.95087 4.16653 -11.9372 22
689 2 -4.64657 4.20605 -10.5572 21
690 2 -1.32617 1.8727 -10.2806 21
691 2 -4.21839 1.58127 -8.68667 21
692 2 -1.86012 4.25525 -8.56321 19
693 2 -4.53128 3.80182 -7.09136 21
694 2 -1.05461 1.40113 -6.89844 21
695 2 -3.94498 1.35788 -5.05348 22
696 2 -1.92044 3.99648 -4.90107 21
697 2 -4.42051 3.65837 -3.76532 19
698 2 -1.14994 0.940533 -3.34237 21
699 2 -3.6498 1.6926 -1.64438 21
700 2 -1.57554 3.54133 -1.47934 22
701 2 0.714385 2.70539 -17.3763 12
702 2 -1.58924 9.23824 -15.1822 13
703 2 -4.55813 9.17592 -13.551 13
704 2 -6.64947 7.53095 -13.8605 18
705 2 -1.00198 6.79509 -13.4871 22
706 2 -3.73577 6.95699 -11.7439 20
707 2 -1.49881 9.19976 -11.9917 19
708 2 -5.18448 10.1714 -10.6395 18
709 2 -0.538241 6.6873 -10.277 21
710 2 -3.72112 6.59641 -8.44046 20
711 2 -2.12473 9.55255 -8.90664 23
712 2 -4.63958 9.37566 -7.09631 21
713 2 -1.05522 6.45756 -6.75443 21
714 2 -3.73789 7.10262 -5.24938 20
715 2 -1.91878 9.13589 -5.00466 22
716 2 -4.60243 9.94553 -3.37899 22
717 2 -0.869382 6.28595 -3.35519 24
718 2 -3.64052 5.98014 -1.98336 22
719 2 -2.06944 8.78895 -1.71943 24
720 2 -0.577321 11.7164 -13.517 13
721 2 -3.2382 12.448 -11.3462 18
722 2 -0.0164874 11.7464 -10.7327 20
723 2 -3.69714 12.4019 -8.54542 17
724 2 -7.57375 10.1163 -12.3361 14
725 2 -3.9509 11.6742 -5.55319 22
726 2 -0.956177 11.8985 -7.09877 22
727 2 2.42991 12.5728 -8.30609 19
728 2 -1.96471 14.5218 -5.37549 16
729 2 -7.65475 14.8931 -5.28362 14
730 2 -1.22089 11.8698 -3.63585 23
731 2 -3.72507 12.11 -1.86391 24
732 2 -2.12578 14.4328 -1.83181 17
733 1 -16.9418 1.53974 -0.0447763 13
734 1 -12.4501 4.27741 -0.237439 22
735 1 -15.4615 4.37978 1.80347 13
736 1 -13.5359 1.9686 1.45585 20
737 1 -16.5104 2.00051 3.59885 11
738 1 -12.4437 4.26551 3.00392 20
739 1 -15.1165 3.66526 5.2263 14
740 1 -13.0307 1.83948 5.52256 19
741 1 -16.903 0.331451 8.32481 7
742 1 -12.1655 4.83828 6.68436 21
743 1 -14.862 3.27099 9.04944 12
744 1 -13.661 0.689844 8.31861 14
745 1 -13.3673 2.36901 11.6096 15
746 1 -14.9945 -0.5168 12.4672 9
747 1 -13.9487 6.48724 1.41934 17
748 1 -14.0281 10.1143 0.840433 11
749 1 -10.837 12.238 3.10614 19
750 1 -12.2737 9.21428 2.46516 20
751 1 -14.0565 7.16507 -1.56894 16
752 1 -12.5926 9.39686 6.85387 15
753 1 -13.5736 7.08129 4.43955 16
754 1 -12.3502 4.96111 9.93141 15
755 1 -13.9763 6.86333 8.02305 13
756 1 -12.5055 8.64173 10.0926 12
757 1 -10.3278 2.02978 0.384857 20
758 1 -6.59296 4.03748 -0.0426191 22
759 1 -9.6525 4.84965 1.54256 22
760 1 -7.36439 1.25315 1.81368 21
761 1 -10.4312 1.75646 3.54477 19
762 1 -6.59556 4.062 3.06356 19
763 1 -9.49317 3.8732 5.17404 23
764 1 -7.58523 0.88617 4.93744 22
765 1 -10.4465 1.66789 6.82228 19
766 1 -6.65927 3.88988 6.46593 21
767 1 -9.62479 3.47408 8.74192 20
768 1 -7.71062 0.969724 8.29177 22
769 1 -10.3178 0.607598 10.1298 22
770 1 -6.90191 3.68821 10.0122 21
771 1 -9.66607 3.54243 11.82 21
772 1 -7.80065 0.773433 11.4121 21
773 1 -9.99616 0.885744 13.3969 20
774 1 -8.07762 4.18035 14.1202 18
775 1 -10.7083 3.11343 14.8912 10
776 1 -7.44961 1.01574 15.0426 17
777 1 -10.6459 7.13038 -0.422232 21
778 1 -6.41406 9.37378 0.10794 20
779 1 -9.29062 9.37428 1.54933 20
780 1 -7.43743 6.757 1.31941 22
781 1 -10.8081 6.4081 3.51987 18
782 1 -6.51539 9.19709 3.31265 20
783 1 -9.73693 9.766 4.9713 19
784 1 -7.77496 6.31253 4.77143 21
785 1 -10.6552 6.92888 6.8009 20
786 1 -6.89338 9.34389 6.60829 21
787 1 -9.44496 8.93036 8.36135 18
788 1 -7.73693 6.3935 8.4016 21
789 1 -10.2086 6.38819 13.786 12
790 1 -6.72278 8.82368 9.58056 18
791 1 -10.0123 9.09761 12.068 12
792 1 -10.1242 6.74898 10.1949 17
793 1 -7.31353 6.29331 11.6179 20
794 1 -7.42939 9.25122 13.6317 11
795 1 -5.60454 6.31604 14.4864 15
796 1 -10.0672 14.6224 1.38691 13
797 1 -6.55991 14.32 0.243883 17
798 1 -9.69529 14.1482 -1.4333 13
799 1 -7.87524 11.8058 1.51937 24
800 1 -10.5396 11.0678 -0.165159 20
801 1 -9.54947 13.9723 4.98554 11
802 1 -7.7833 11.7614 4.96917 20
803 1 -14.1102 10.4933 4.2848 9
804 1 -7.55021 11.7541 8.66219 12
805 1 -13.783 1.21099 14.5306 10
806 1 -4.82116 1.45844 -0.0126985 20
807 1 -0.861576 4.58863 -0.0613737 23
808 1 -3.65901 4.20451 1.40188 23
809 1 -1.90843 0.932729 1.61407 22
810 1 -4.8179 1.32507 3.4499 20
811 1 -0.886548 3.69694 3.17632 22
812 1 -3.87895 3.73097 5.0078 20
813 1 -1.88436 1.08405 5.07073 21
814 1 -4.92889 0.991522 6.52922 19
815 1 -1.09734 3.75865 7.19988 21
816 1 -3.92797 4.32529 8.53943 21
817 1 -2.00329 1.1898 8.49801 20
818 1 -4.9239 1.75269 10.4868 18
819 1 -1.03483 4.31173 10.3497 21
820 1 -3.64073 4.46917 12.1213 19
821 1 -1.85639 1.6267 11.5876 20
822 1 -4.98138 0.840699 13.5121 16
823 1 -0.855797 4.30801 13.4272 23
824 1 -3.08426 4.73661 15.5597 16
825 1 -2.41208 1.53305 15.1237 20
826 1 -4.77519 6.52612 -0.438223 22
827 1 -1.25766 9.61929 -0.16746 20
828 1 -3.78211 9.50644 1.75057 20
829 1 -2.03753 6.73895 1.84607 21
830 1 -4.66313 6.92773 3.34286 21
831 1 -1.19054 9.04121 3.41719 21
832 1 -3.7004 9.1479 5.09506 20
833 1 -1.53449 6.15857 5.07681 23
834 1 -4.63513 6.49402 6.51346 22
835 1 -0.834177 9.26459 6.77608 22
836 1 -3.81961 9.60427 8.03956 21
837 1 -1.71167 6.65847 8.22662 21
838 1 -4.31078 6.79421 10.037 19
839 1 -1.0714 9.48583 10.1592 24
840 1 -7.41919 11.5115 11.946 11
841 1 -1.78462 7.34405 11.7389 22
842 1 -4.20301 9.87756 11.8918 19
843 1 -1.07184 9.91379 13.0786 19
844 1 -4.05536 8.79605 14.5999 13
845 1 -1.32738 7.43381 14.7286 18
846 1 -4.57966 11.969 0.0344956 24
847 1 -1.10421 15.1434 -0.244577 16
848 1 -3.59772 15.1337 1.35394 14
849 1 -1.79135 11.9445 1.43345 21
850 1 -4.75371 12.5293 3.21719 22
851 1 -3.84108 15.2289 4.37433 13
852 1 -7.13427 14.8193 3.20592 15
853 1 -1.97335 11.7584 4.95582 22
854 1 -4.5884 12.2224 6.28733 18
855 1 -1.09019 14.7168 6.22706 12
856 1 -6.34038 14.3264 6.56471 10