ITEM: TIMESTEP
0
ITEM: NUMBER OF ATOMS
1500
ITEM: BOX BOUNDS pp pp pp
-30.0 30.0
-30.0 30.0
-30.0 30.0
ITEM: ATOMS id type x y z Coordination
1 1 -4.20486 -10.7463 -10.58 14
2 1 8.02398 -12.3711 8.16453 8
3 1 -12.2493 10.5473 -2.22353 8
4 1 -13.1179 3.78832 -7.37048 13
5 1 -1.47588 -8.45333 10.9881 10
6 1 -9.63556 0.287451 -12.2868 12
7 1 -3.46117 1.85451 -6.6702 12
8 1 -4.18347 -14.6119 1.85637 13
9 1 -14.5151 -9.65415 4.32836 9
10 1 0.821273 4.82076 18.8895 7
11 1 7.29998 -2.88618 5.74475 13
12 1 0.213387 4.55116 11.3908 11
13 1 7.76127 -1.41306 2.60533 16
14 1 -1.67877 12.0517 -11.174 10
15 1 2.51942 0.0834932 14.4006 13
16 1 16.224 5.1621 8.79062 9
17 1 1.40073 12.2309 -13.4343 7
18 1 4.11841 6.02583 -15.534 10
19 1 -9.1684 1.50441 0.877529 12
20 1 -3.06279 -1.13319 -9.50098 13
21 1 8.03795 -15.8799 6.42893 5
22 1 1.79393 -1.15312 8.85056 9
23 1 10.7746 -14.0946 0.715024 6
24 1 -8.10305 -16.0873 -6.66494 9
25 1 4.18331 -3.26662 -6.02197 12
26 1 1.91618 -9.08212 -14.5942 13
27 1 0.771962 4.81098 15.5216 11
28 1 -0.934977 -13.2665 7.67954 12
29 1 6.41497 -5.65663 15.4849 7
30 1 -13.8311 -0.477828 1.95997 12
31 1 -10.1582 0.52739 -2.21639 13
32 1 -4.11096 15.2074 -3.80613 14
33 1 1.31135 2.17923 -11.8365 17
34 1 5.62471 -6.12686 -11.9778 12
35 1 -3.65159 -3.42801 14.1831 12
36 1 -14.1609 6.15896 -1.3231 13
37 1 0.723265 14.6657 9.0262 15
38 1 -10.887 10.3697 -9.23958 9
39 1 -0.614078 15.8999 -1.03554 12
40 1 1.74366 -14.8905 2.80185 16
41 1 7.29153 -8.43769 -6.4301 10
42 1 -10.1427 9.55624 13.0644 5
43 1 -15.3604 -4.74298 -11.0063 7
44 1 8.16095 0.564416 5.92415 13
45 1 -8.72008 8.77626 -6.46869 12
46 1 -9.79964 -11.5023 8.05671 12
47 1 -14.9355 8.02344 -8.59103 5
48 1 1.04459 7.43581 -5.49193 13
49 1 1.13087 6.44567 4.53122 12
50 1 3.33548 5.43752 8.88855 12
51 1 6.96736 -16.8194 -3.51778 9
52 1 6.14516 7.11501 14.2111 10
53 1 14.591 -3.85523 -11.3935 7
54 1 9.68436 -13.6042 4.69365 8
55 1 -8.34126 -2.04852 1.3804 13
56 1 5.70741 -1.89763 14.8917 14
57 1 -7.89443 -14.7244 7.02052 8
58 1 -11.4788 -1.7568 -0.339885 15
59 1 14.0045 3.1796 7.29305 17
60 1 8.85724 -2.78187 -3.50423 9
61 1 -2.29414 13.5692 11.2321 11
62 1 5.51548 -0.893269 8.90665 11
63 1 -7.6952 -5.52348 2.17431 11
64 1 -3.62596 -7.49594 -9.56196 11
65 1 -9.5105 12.6765 -1.38875 14
66 1 -2.86637 8.34234 -10.4505 11
67 1 4.62354 0.903253 -6.21685 13
68 1 7.30391 -2.1829 -7.05119 13
69 1 8.21041 -7.946 3.44112 14
70 1 6.24431 -10.7017 11.4262 8
71 1 -6.07113 17.6021 -5.82607 6
72 1 -12.2003 13.7951 5.30283 5
73 1 -4.8752 9.51024 6.23881 14
74 1 -7.53065 -7.00337 11.5962 13
75 1 14.4304 -9.41814 -7.13859 10
76 1 -12.2314 4.12638 6.3634 14
77 1 10.159 -9.22527 -6.67309 10
78 1 6.55952 0.144209 -14.7087 13
79 1 -6.70722 -0.449548 -17.8472 9
80 1 -1.15744 13.7444 1.98813 13
81 1 -9.09251 7.14608 -10.264 12
82 1 0.509399 16.7809 -7.34306 10
83 1 0.671945 10.7036 1.02399 11
84 1 -6.3003 -9.59615 9.89067 14
85 1 -0.215192 -5.43214 -9.96328 12
86 1 6.13921 -9.167 -9.60385 14
87 1 -2.09129 3.74094 9.77164 12
88 1 -10.9129 -8.4887 -1.50724 14
89 1 7.5104 -4.74101 3.15529 12
90 1 -9.85416 -10.3897 -5.01082 12
91 1 10.8083 -10.4137 2.30535 11
92 1 -5.76167 8.70599 2.47865 13
93 1 8.1073 2.70563 -17.348 8
94 1 4.17963 6.67212 -8.17403 9
95 1 11.9131 -11.2821 -1.29599 12
96 1 -1.82954 -18.3383 6.02301 5
97 1 -9.97336 -11.5308 0.629615 12
98 1 -16.914 -5.97475 2.94712 8
99 1 11.68 9.9163 6.46922 11
100 1 7.46472 6.01425 -1.40788 11
101 1 -5.88869 12.0146 11.2981 11
102 1 -5.35263 13.49 -6.66713 13
103 1 -1.23787 -7.30467 -13.1228 12
104 1 9.19755 -3.10523 14.4529 9
105 1 -2.70843 9.79569 -7.65505 14
106 1 12.5022 0.738907 -6.01019 13
107 1 -12.2364 10.8182 -6.37022 6
108 1 -9.33062 15.9603 0.158863 10
109 1 8.60181 2.13509 -12.4155 12
110 1 10.0167 -10.1079 5.797 12
111 1 -6.77144 4.79575 -8.61412 13
112 1 6.29823 13.5746 -2.84402 13
113 1 11.7167 11.5989 -0.840127 11
114 1 -3.00686 11.3813 -3.96163 12
115 1 -5.71332 -3.37975 -14.7823 16
116 1 -0.157853 17.7495 7.26369 10
117 1 -14.3284 -3.6981 -5.48802 10
118 1 17.9119 -1.45137 -3.90359 8
119 1 -3.4457 10.2886 9.44408 16
120 1 -1.74472 13.4856 -7.16113 13
121 1 2.94809 -4.28101 13.9018 12
122 1 -13.2817 -6.07205 4.86403 12
123 1 -4.35153 -12.6617 5.3629 12
124 1 3.80067 -17.6707 -5.67624 9
125 1 -3.86134 12.3001 -13.6963 7
126 1 1.73381 8.87243 -2.19594 16
127 1 12.3092 10.3464 -5.16193 10
128 1 -0.717859 -11.8209 10.9838 11
129 1 -10.5401 4.73331 -0.498242 13
130 1 2.43239 18.7977 4.46733 6
131 1 0.228546 7.92517 9.83475 10
132 1 -7.37515 15.7471 3.6184 12
133 1 -5.34488 1.12776 -10.2751 13
134 1 14.4927 -8.89346 3.57778 7
135 1 -6.85452 -5.99029 5.69132 13
136 1 -18.0368 0.379454 6.17216 5
137 1 -9.48192 -12.0228 4.73764 11
138 1 -17.6413 0.180805 -2.77185 8
139 1 -3.11004 -16.9386 -0.990243 9
140 1 -6.53004 -1.78365 -4.04084 14
141 1 6.10948 -8.7735 -2.5183 12
142 1 -2.93982 12.0343 5.46338 13
143 1 -8.42449 0.198103 4.20032 13
144 1 -9.17244 -0.445903 -5.36507 13
145 1 -7.19682 13.7195 -10.0962 7
146 1 -16.894 -5.37754 -7.57246 6
147 1 -11.8148 -2.04184 13.9823 10
148 1 -0.262722 -11.7707 3.88083 12
149 1 4.64729 -16.7207 7.57918 9
150 1 16.7064 4.34093 5.02699 10
151 1 6.94246 4.50993 -6.71559 9
152 1 5.74755 1.06455 12.5633 18
153 1 -3.00808 7.91385 -14.1242 9
154 1 10.1876 0.305057 -15.3931 10
155 1 -8.48608 -4.46923 -8.94225 17
156 1 -2.9776 16.7165 -8.1707 8
157 1 -7.44114 14.5898 -3.7749 15
158 1 8.37808 1.51022 10.4588 12
159 1 -4.28645 -6.60593 -15.355 12
160 1 -4.4321 11.9648 -9.53523 12
161 1 2.25565 5.99945 -11.73 13
162 1 -9.16459 5.52492 8.70286 9
163 1 -8.09208 8.87907 10.5473 13
164 1 0.306009 -12.3811 -8.62753 13
165 1 -6.58487 -17.0084 0.0611416 11
166 1 11.1383 -14.3767 -3.1452 8
167 1 2.38478 -8.15271 -1.67683 11
168 1 6.77295 10.7005 -9.37734 13
169 1 -0.095477 12.2301 -1.77534 14
170 1 -11.6085 1.54112 3.39199 14
171 1 3.02896 6.29874 12.4878 13
172 1 14.558 0.610782 -3.25867 14
173 1 2.44816 8.88778 7.02479 15
174 1 -11.633 7.09131 5.08021 7
175 1 -12.6913 -7.21642 -4.39581 14
176 1 7.40744 5.49751 -14.3973 12
177 1 3.74782 -1.92247 11.6957 16
178 1 9.9652 11.2271 -11.5413 8
179 1 3.09294 -11.0184 -3.76302 13
180 1 -3.08719 -1.29675 -13.115 15
181 1 10.4651 -0.300567 -8.32357 12
182 1 -12.7059 -3.40226 6.97975 12
183 1 4.30367 -18.3887 -1.78985 8
184 1 -11.382 -6.44516 -10.8176 14
185 1 5.4679 17.0148 -2.31608 8
186 1 1.55506 -3.30041 -16.7268 14
187 1 4.55569 4.29113 17.7041 10
188 1 17.0463 3.11928 1.08282 8
189 1 -4.75594 -7.69823 1.19478 12
190 1 11.6914 -5.86328 -12.0254 13
191 1 -1.91952 -8.31183 1.98048 12
192 1 -9.50495 -3.346 -12.4296 13
193 1 -12.5837 1.33082 -10.4238 12
194 1 11.2548 0.894992 10.6958 14
195 1 4.63262 -4.24065 8.86965 9
196 1 -6.82425 -9.66069 -13.3452 12
197 1 2.64831 -7.18978 6.61495 15
198 1 1.12076 9.0392 -15.9495 5
199 1 6.07003 9.75752 1.43747 14
200 1 -7.9061 -8.45758 3.21877 13
201 1 2.03705 14.256 2.7792 12
202 1 -8.71558 -3.67745 14.382 12
203 1 -11.5905 -9.62351 -9.6566 13
204 1 -6.71391 -5.97834 -12.1865 13
205 1 -6.61254 -10.2555 -7.25674 12
206 1 -3.20389 -11.0507 1.86597 13
207 1 12.5749 4.18003 4.49763 14
208 1 -4.9027 -5.65496 -3.93431 12
209 1 -10.7363 -4.24056 11.3799 13
210 1 -3.59595 -13.3741 -1.34479 14
211 1 -0.686919 -13.6574 0.358721 14
212 1 -2.11676 18.6366 -1.51324 8
213 1 6.89602 -0.501896 -18.1288 6
214 1 -6.61779 -4.88033 -17.4224 8
215 1 1.77534 -13.5644 -0.956051 13
216 1 -5.49508 -13.0922 -12.6592 8
217 1 -11.9612 5.34189 -9.691 8
218 1 11.089 6.30948 6.44987 11
219 1 -6.91669 3.46241 -11.8573 11
220 1 0.339264 8.59207 -12.4995 12
221 1 -4.61143 -3.43108 8.00995 11
222 1 -5.76368 16.914 -1.54197 8
223 1 2.66185 12.7236 6.22196 17
224 1 12.6799 0.406196 5.32204 15
225 1 -11.4915 0.349191 6.45077 14
226 1 -4.24487 -7.33952 12.6449 14
227 1 -6.86657 11.7292 4.46181 13
228 1 2.3125 -5.97605 -13.9601 16
229 1 4.28938 -12.3097 1.59192 15
230 1 -3.04226 -1.38103 16.9819 9
231 1 -15.8395 -7.37763 8.17117 5
232 1 16.0241 -4.64434 -3.21884 10
233 1 9.25326 -3.74549 -10.1173 12
234 1 10.885 -14.1877 -6.27423 8
235 1 -3.56607 -5.41409 4.75878 11
236 1 -10.6632 15.7095 -3.60575 5
237 1 0.516358 2.05235 7.7272 12
238 1 12.3527 8.25929 12.4412 4
239 1 -11.1788 -2.70593 3.63982 10
240 1 8.95868 -11.2882 -3.89591 13
241 1 -4.04913 11.5904 2.40709 15
242 1 -7.58095 6.50373 4.90114 13
243 1 4.76952 -12.938 8.53461 12
244 1 15.2186 -5.87633 5.52605 8
245 1 -3.0224 7.04309 9.62719 13
246 1 -7.66862 -4.18246 -5.87512 12
247 1 -1.207 2.16654 17.4381 12
248 1 -3.83142 14.8935 4.52978 14
249 1 -7.20288 2.56268 -5.90912 13
250 1 -11.1465 2.97898 14.5702 8
251 1 -16.0122 2.76234 3.4426 11
252 1 -4.46563 -3.81132 -8.3989 11
253 1 -7.27242 11.2013 0.77184 14
254 1 9.90504 -1.25841 8.05436 15
255 1 -11.701 -14.3596 2.24768 7
256 1 7.61729 -8.50774 8.53203 15
257 1 -15.1901 9.3765 0.111295 8
258 1 -2.44103 -4.52894 10.8311 16
259 1 3.46783 -13.5667 -7.24488 12
260 1 -6.2237 -2.09803 -11.2068 17
261 1 8.66278 -2.68789 -16.3316 10
262 1 5.31888 15.6873 4.65408 11
263 1 -12.4648 -1.47336 -3.82427 14
264 1 4.79913 -9.46283 -13.3582 10
265 1 -4.72745 -16.9035 -7.67635 8
266 1 -15.983 -8.72965 -5.43263 7
267 1 -4.00604 -9.85553 -1.73543 15
268 1 13.6506 3.59071 -3.65034 15
269 1 -10.5062 3.60136 -12.4071 11
270 1 -16.6648 -0.8147 -6.30477 8
271 1 -8.4095 8.94358 6.56862 10
272 1 -9.94671 13.3809 2.45571 13
273 1 -6.10083 6.96323 8.23892 13
274 1 13.1614 -3.06952 -5.52095 12
275 1 14.5083 1.02377 -8.66319 11
276 1 -4.43167 6.87685 -2.20806 9
277 1 0.644698 -9.27026 -6.26535 11
278 1 0.272243 11.0949 4.36696 15
279 1 -10.7327 1.9145 -5.78774 15
280 1 5.9244 -12.6668 -1.7471 13
281 1 13.709 -0.425598 8.88573 14
282 1 -11.3688 -4.04856 -6.38019 11
283 1 -6.90026 -11.8786 2.1516 12
284 1 -3.873 12.9655 -1.10093 12
285 1 -12.7896 -11.2652 -2.82239 12
286 1 -10.7863 7.01199 -3.36595 14
287 1 0.701432 15.1607 -10.1484 7
288 1 5.86005 13.9933 7.92428 11
289 1 -15.8229 -9.58389 -1.99932 7
290 1 -2.9189 -10.6012 -7.54064 12
291 1 -14.7817 -1.2576 8.6641 10
292 1 -14.1842 8.20985 -4.8175 9
293 1 5.09418 -9.89522 5.84959 13
294 1 -5.61636 -15.3646 -3.53831 12
295 1 5.93754 8.84894 -15.9527 6
296 1 -9.93898 5.18598 -6.75267 15
297 1 -1.57985 -14.8187 4.29482 13
298 1 14.1225 6.84489 6.51227 13
299 1 -5.42037 1.19297 10.0265 10
300 1 -18.0465 1.63707 0.680776 10
301 1 -8.56732 3.0398 6.56963 15
302 1 -4.91543 -16.3831 5.34268 11
303 1 1.88786 -5.91934 -7.52701 10
304 1 8.43099 -10.7049 -11.585 6
305 1 -0.622208 -3.59696 7.42838 9
306 1 -14.3375 0.199848 5.1617 15
307 1 -0.945779 -6.55922 8.00045 12
308 1 8.8941 -12.0525 -8.07164 12
309 1 0.371083 -11.9936 -14.099 9
310 1 -5.81997 -3.89545 11.7217 14
311 1 4.15124 -7.40486 -5.06936 13
312 1 -6.13201 3.10736 -18.1808 5
313 1 7.16943 -15.1856 2.27796 9
314 1 2.13854 13.7348 -7.09154 17
315 1 -6.65066 -2.96773 17.5649 7
316 1 -9.39399 -8.03965 9.03115 13
317 1 11.5782 -6.48504 10.4946 7
318 1 8.87547 3.40569 -0.44332 12
319 1 -5.72458 3.14694 4.17864 15
320 1 3.58351 0.3575 -10.0294 13
321 1 10.1001 -6.17834 6.85388 7
322 1 16.1465 9.01301 -5.68111 6
323 1 -3.42834 2.42845 14.0438 13
324 1 2.65438 14.8577 -1.44309 12
325 1 6.02513 -6.48471 6.60638 13
326 1 -2.98279 -15.3016 -5.50125 14
327 1 -3.30284 16.7406 7.12143 9
328 1 -10.0555 -12.8029 -8.24019 8
329 1 5.35062 8.06121 9.5247 11
330 1 -9.17789 1.93248 10.7036 12
331 1 -6.17736 -8.83343 -4.44478 14
332 1 -13.3952 4.55316 12.1311 7
333 1 -9.70892 -7.79419 -7.28252 13
334 1 -7.15694 11.7661 8.22343 13
335 1 -6.01351 -13.6423 -7.74225 10
336 1 -1.97677 -9.53966 -16.1135 8
337 1 -8.10269 -15.261 3.10378 10
338 1 -7.73365 -3.24607 5.54633 12
339 1 10.7311 2.36934 7.29043 13
340 1 -6.62504 -5.85841 15.1546 9
341 1 -11.006 7.06239 -13.4561 5
342 1 11.2245 5.36729 -1.46588 14
343 1 -8.71707 -16.4585 -3.24025 9
344 1 0.836578 4.3551 -8.71601 12
345 1 0.862445 19.4737 1.09189 8
346 1 -0.315025 7.17734 -8.52493 13
347 1 -2.18752 10.1176 12.6837 13
348 1 -15.8259 -3.66572 -2.10973 8
349 1 5.97306 13.1652 -7.44135 11
350 1 -7.75768 -7.92736 -10.4217 14
351 1 0.453568 -15.9587 -10.2959 7
352 1 0.117868 -3.51811 -13.2889 15
353 1 -12.9377 11.0022 2.98883 8
354 1 3.3724 7.39838 16.0377 10
355 1 9.86582 9.51681 -2.61788 12
356 1 3.73696 11.0974 -0.201821 16
357 1 -9.19079 10.3202 -12.4565 6
358 1 4.07531 3.436 -9.21264 15
359 1 1.80815 -9.48707 3.86119 12
360 1 -17.3178 -6.22673 -0.392019 8
361 1 -5.47275 5.05571 -14.7948 11
362 1 12.7686 7.87026 0.127458 14
363 1 8.65979 -6.59547 0.0937888 11
364 1 18.0004 1.98152 -2.90802 9
365 1 -0.446432 -0.0115769 -13.7078 12
366 1 0.868597 -10.2058 1.05759 12
367 1 1.56146 -15.9371 5.99997 13
368 1 2.08156 -10.933 11.0572 7
369 1 -9.42069 2.13974 -8.88327 13
370 1 -1.8566 -13.5201 -12.0595 10
371 1 1.25068 4.18027 -14.8864 13
372 1 3.56746 -1.76048 17.9008 6
373 1 -13.7326 -4.31516 1.44655 14
374 1 15.6299 -5.69709 -7.48722 6
375 1 12.7377 -1.87903 -2.53995 10
376 1 -5.45792 8.40807 -5.36895 13
377 1 3.4223 -9.88011 -7.97272 13
378 1 4.5588 3.47858 -12.8787 13
379 1 12.1475 -5.5094 -8.49359 17
380 1 -8.16244 0.552455 17.43 5
381 1 7.52184 17.6262 2.05905 6
382 1 -4.56116 -3.12325 -18.5631 7
383 1 -8.55993 -4.30873 8.61472 10
384 1 -4.01721 15.9301 0.720898 14
385 1 -9.18387 -1.80658 -15.6919 8
386 1 -17.5149 -1.133 3.21025 10
387 1 -7.79004 -12.6525 11.8012 8
388 1 0.489128 10.4304 -9.16377 12
389 1 15.4506 6.15139 -0.964964 11
390 1 -11.3823 -14.2986 -1.38537 9
391 1 -0.369934 -11.0469 -2.54943 14
392 1 -9.45292 12.4267 11.3884 5
393 1 2.69131 -3.94175 -10.1927 11
394 1 3.50347 7.4037 0.247818 10
395 1 14.2841 -3.66839 -0.240934 13
396 1 3.92891 16.2829 -8.32067 9
397 1 5.14225 -9.13406 1.48571 13
398 1 -11.5123 3.29948 9.57938 10
399 1 6.1304 11.0554 11.4186 9
400 1 0.530317 1.93153 -17.24 9
401 1 -6.12872 -6.7076 -7.45631 14
402 1 -0.115703 -2.31671 12.3035 14
403 1 9.26829 12.229 8.88223 6
404 1 8.14098 8.16108 -11.1868 14
405 1 -8.28955 11.9785 -6.9999 10
406 1 -0.375048 14.6765 -4.14765 11
407 1 12.1383 -3.4574 14.7471 4
408 1 12.1834 2.86763 -13.9202 8
409 1 -16.8355 -9.78849 1.46002 7
410 1 -1.00346 0.797679 10.9743 12
411 1 -4.17172 14.8513 -11.3062 6
412 1 4.26618 -14.6937 -3.84908 12
413 1 6.37667 -2.36548 -10.6755 11
414 1 -1.93617 17.9365 -4.86994 7
415 1 -9.30766 -6.09305 -14.7693 8
416 1 4.41907 -17.397 4.19198 11
417 1 -13.9219 -7.05124 -0.168094 12
418 1 -8.5563 3.11096 -2.47136 10
419 1 -12.3015 -6.57545 9.23448 11
420 1 5.74809 9.08677 -2.6752 11
421 1 3.20677 -11.6447 -11.1751 9
422 1 4.34771 -7.68548 12.7998 9
423 1 8.28823 0.773488 -5.60742 11
424 1 -12.1988 7.93892 0.809694 11
425 1 12.6781 -6.74229 -4.80271 13
426 1 3.39862 9.64029 12.7212 10
427 1 -1.51259 1.52878 -10.1541 13
428 1 3.1543 16.5572 7.43979 10
429 1 10.2882 5.37178 -12.1078 16
430 1 -2.41704 -3.53358 -15.9694 13
431 1 -4.10724 -12.3199 -4.44777 15
432 1 -13.4729 -4.42046 -13.2367 5
433 1 13.8858 3.52115 1.44143 11
434 1 17.0793 5.25671 -4.15928 7
435 1 8.71034 -7.17629 -9.61834 12
436 1 6.11566 -11.6439 -5.70405 13
437 1 8.53852 14.274 1.65402 12
438 1 -9.59237 4.28642 3.10874 14
439 1 12.8226 7.06433 -3.84012 10
440 1 17.1055 -1.94805 2.95721 8
441 1 13.6853 5.30538 -10.268 11
442 1 10.4701 2.98748 15.9473 7
443 1 1.93971 -5.3713 10.3589 8
444 1 6.62617 2.59378 2.86792 12
445 1 2.08511 1.40655 17.1781 10
446 1 17.5388 -1.2009 -8.03097 4
447 1 10.029 3.9467 12.6413 12
448 1 -9.10656 -1.17117 -8.78022 13
449 1 15.3319 6.56719 2.59999 12
450 1 10.6741 -4.24876 1.36919 15
451 1 -0.93523 -7.64832 -1.37528 13
452 1 12.5515 1.42706 13.9083 9
453 1 3.7205 11.199 9.12172 15
454 1 6.38361 3.27595 7.62411 12
455 1 -6.80647 11.3946 -4.04874 11
456 1 13.0453 11.7155 -8.68059 5
457 1 11.7236 -3.22268 -14.1 10
458 1 1.81492 18.36 -1.96017 8
459 1 -2.59449 -13.8122 -8.92132 14
460 1 -15.4131 2.64652 7.95046 8
461 1 -6.79467 7.55581 -12.3067 9
462 1 -4.4572 -18.5539 2.6385 3
463 1 -6.08348 0.306963 -14.3373 13
464 1 -14.9036 1.9533 -4.5435 13
465 1 11.5385 -7.23416 3.70634 14
466 1 13.9911 12.0995 5.45422 3
467 1 0.406576 -10.0044 7.95397 18
468 1 -15.3419 -1.29214 -9.32718 11
469 1 3.57172 -3.57041 6.16205 11
470 1 -2.53253 5.16438 16.7631 10
471 1 6.86126 10.7369 -13.4689 11
472 1 9.96256 5.67831 -8.25525 11
473 1 4.1695 -16.3371 -9.39903 6
474 1 14.8046 -2.20751 5.08808 13
475 1 10.5362 11.4567 3.01819 11
476 1 14.2205 -5.21918 2.5118 13
477 1 -4.92106 4.87513 11.7523 11
478 1 -11.5083 -7.98524 2.43844 11
479 1 -11.8206 -2.53196 -9.98948 12
480 1 8.85635 0.580285 14.1352 13
481 1 -4.37843 -12.1103 12.5438 8
482 1 9.42765 6.93649 14.9898 6
483 1 -6.27286 14.187 0.555098 12
484 1 10.1632 5.08091 1.68669 12
485 1 8.69582 4.73365 5.0658 12
486 1 3.19969 -0.417789 -18.5901 7
487 1 -11.2262 -1.08457 10.155 14
488 1 9.83369 -0.742769 -11.8832 13
489 1 -1.90668 -6.23254 -6.86573 10
490 1 12.4557 -11.5824 -8.71445 8
491 1 8.80116 5.4825 9.43564 10
492 1 5.23313 6.51615 5.73938 13
493 1 11.6174 9.25729 9.45943 10
494 1 0.647734 -2.72783 16.1377 9
495 1 -1.95592 6.78265 13.6592 12
496 1 -0.476228 -6.30297 -16.2413 11
497 1 -7.04178 2.63222 13.6115 11
498 1 7.12523 3.65296 15.2226 14
499 1 15.0307 9.73292 -2.02156 11
500 1 7.757 -14.2635 -5.29611 12
501 1 -3.51477 6.0228 -6.93691 13
502 1 7.42224 11.54 -0.574177 13
503 1 11.2531 15.0807 4.3778 5
504 1 -2.3854 -0.460349 7.99329 11
505 1 3.60575 15.5383 -4.6629 11
506 1 13.8945 10.6247 1.61217 12
507 1 -7.19024 -10.7988 -2.02906 10
508 1 -0.826134 -1.03021 -18.3013 8
509 1 -12.2884 14.1479 -0.441995 7
510 1 8.77767 -7.87825 -13.1951 10
511 1 6.87568 6.21091 1.8195 11
512 1 12.1039 8.47196 -10.6839 11
513 1 11.39 13.6734 -3.24174 7
514 1 -3.21373 5.98442 5.08333 9
515 1 -7.76655 6.5351 0.582484 9
516 1 7.94828 7.10891 -4.97925 12
517 1 -2.52914 -15.0134 11.0915 6
518 1 -5.13487 10.0457 -15.2121 6
519 1 3.98259 14.5541 10.7621 7
520 1 3.41584 1.87587 9.86347 10
521 1 8.40002 15.329 -5.00288 7
522 1 7.98741 13.3013 5.10074 12
523 1 16.3346 -7.75415 -4.35164 8
524 1 -15.7478 -4.25912 8.15193 8
525 1 2.99416 -18.8537 1.68964 9
526 1 0.188633 -1.21759 -10.3012 16
527 1 -0.0728143 5.15838 7.43763 11
528 1 6.64996 -5.15815 -4.03799 12
529 1 4.94791 11.9336 3.39553 16
530 1 -15.5903 -3.32089 4.51984 11
531 1 4.59222 -15.6807 0.740346 14
532 1 10.0866 9.19982 -7.57816 13
533 1 4.20031 -6.77438 3.7456 11
534 1 -1.85012 8.37008 3.34466 10
535 1 4.85455 -3.22776 -14.7096 12
536 1 1.93894 -14.8174 9.55064 8
537 1 3.98791 17.0261 1.32238 13
538 1 -4.91964 1.65815 17.1028 9
539 1 -9.84484 -8.80582 -12.8328 11
540 1 5.91397 -5.34468 -8.69195 14
541 1 -3.7801 13.3522 8.3517 12
542 1 6.08336 -13.3449 -9.38356 8
543 1 3.8534 -8.68175 9.16645 13
544 1 0.796812 -15.9244 -6.62479 10
545 1 -14.3027 -3.12939 11.649 8
546 1 1.19039 1.09195 -8.01409 15
547 1 -7.76525 -12.7368 -5.13971 15
548 1 -12.7563 0.657935 12.2788 11
549 1 16.3976 6.26076 -7.80751 7
550 1 -5.291 3.67552 7.65655 11
551 1 -15.852 8.4494 3.19767 8
552 1 12.9376 -1.05231 2.15312 12
553 1 0.0482083 10.8319 -5.63067 15
554 1 11.1729 2.40774 -9.90304 13
555 1 10.256 4.08418 -5.12845 13
556 1 -16.3765 2.26571 -7.9935 9
557 1 -13.7108 -6.85308 -7.8961 12
558 1 4.84827 7.71817 -12.237 10
559 1 -3.3348 -0.962158 12.0683 12
560 1 -4.61169 -6.51446 8.94882 12
561 1 2.5739 -7.92606 -11.0481 14
562 1 -8.10687 9.01653 -1.82046 10
563 1 7.39403 9.00311 4.21586 11
564 1 -10.4018 -6.28687 5.31627 10
565 1 9.6909 8.39664 -14.075 8
566 1 0.929333 -17.1293 -0.549606 10
567 1 6.61406 4.76068 -10.7876 11
568 1 -3.25965 0.477764 -16.757 9
569 1 -0.752633 0.145647 14.9318 13
570 1 0.477866 6.37101 -17.4453 6
571 1 -12.7509 -4.86984 -1.94041 15
572 1 9.76399 -0.825193 -0.805255 11
573 1 -7.28503 -7.13226 -1.29072 12
574 1 13.1193 7.67183 -7.59753 14
575 1 12.7471 -7.80229 0.479479 13
576 1 -8.18635 7.25239 14.7338 7
577 1 7.41772 -11.4146 3.2271 15
578 1 16.2391 -6.96691 0.189275 7
579 1 14.7212 -3.63129 11.9998 7
580 1 -0.00700661 11.764 8.33087 13
581 1 -9.2524 5.51247 12.6427 9
582 1 -3.83047 -16.1077 8.40562 8
583 1 10.0142 1.49513 2.75065 15
584 1 7.42107 10.2292 14.4051 6
585 1 -18.1993 -2.21063 0.247618 7
586 1 9.97823 -8.37504 -2.38209 13
587 1 2.96809 8.83667 3.47214 13
588 1 5.90557 1.13067 16.4494 12
589 1 0.0439583 14.4837 5.46778 16
590 1 2.18753 -12.8119 6.32903 13
591 1 -9.40249 -3.12428 -2.75068 15
592 1 3.49432 3.31831 13.9029 12
593 1 5.37906 14.0235 0.821024 15
594 1 -12.7842 -13.2111 5.68295 5
595 1 8.36429 -4.96528 9.77065 13
596 1 13.5376 -4.9423 8.87845 9
597 1 7.78379 9.1497 8.12242 9
598 1 -1.73426 7.89048 -3.99168 13
599 1 -0.467733 -10.0122 -10.9659 12
600 1 -3.29285 2.08921 -13.2014 13
601 1 -5.91862 -1.06454 14.6581 14
602 1 -1.22825 17.3908 3.48067 9
603 1 15.5683 1.40534 4.02681 12
604 1 3.6153 10.2535 -7.06289 14
605 1 -3.88507 8.73953 15.3604 8
606 1 8.83438 8.69143 11.625 12
607 1 8.41479 -4.1173 -13.3271 13
608 1 -7.66962 -13.9347 -0.330124 13
609 1 -6.11596 -0.622825 -7.61234 17
610 1 16.3948 0.606932 6.86189 9
611 1 3.24499 -1.72571 -12.6613 14
612 1 -2.7795 -8.73574 -4.55423 13
613 1 17.7371 -3.19129 -0.44261 9
614 1 0.33337 -6.09309 13.6392 7
615 1 -3.23693 -10.6864 -13.9706 12
616 1 9.39428 15.0486 -1.24495 9
617 1 -0.652569 -7.93657 5.27241 13
618 1 -15.6802 5.39687 5.0175 9
619 1 13.3151 4.13536 -7.09888 14
620 1 3.55984 -6.28019 -16.9157 8
621 1 -9.14494 12.9995 5.84179 11
622 1 4.49289 2.70222 -16.7977 11
623 1 11.6027 -4.85188 -1.76123 12
624 1 -13.1075 1.6804 -0.989529 9
625 1 12.6159 8.54675 3.41423 11
626 1 -13.1761 -11.1495 0.705025 9
627 1 5.9783 4.5053 11.4563 11
628 1 -12.7946 -0.266943 -7.18591 11
629 1 -13.9571 6.08862 8.51251 9
630 1 -3.64205 4.68879 -10.3555 15
631 1 12.1051 -8.67103 -10.2994 11
632 1 -12.8725 -10.1543 -6.73775 10
633 1 12.9706 -9.80662 -3.45241 10
634 1 -16.4487 5.21787 1.20881 12
635 1 -9.0445 -6.5412 -4.10077 13
636 1 -7.13142 -10.3693 6.21725 12
637 1 16.351 -3.1177 8.49516 8
638 1 10.8072 -2.32005 4.52865 11
639 1 -12.7764 4.39259 2.1238 11
640 1 0.853958 12.2463 11.9686 10
641 1 3.82543 10.2484 -11.2046 10
642 1 -6.76352 15.7602 7.07464 9
643 1 9.86 12.5869 -7.22364 9
644 1 0.354519 9.59698 15.0941 9
645 1 7.94538 -7.34937 12.3258 8
646 1 4.13289 13.2447 -10.2031 11
647 1 -7.5252 -1.36735 11.3763 13
648 1 -3.33249 -4.51345 -11.9836 16
649 1 -16.6555 3.63096 -2.20791 11
650 1 -5.703 -13.1749 8.85064 11
651 1 7.03455 -2.20417 11.7163 11
652 1 -1.34736 -14.9107 -2.8535 13
653 1 -17.5396 6.92508 -2.24339 5
654 1 13.2123 -1.94216 -9.35159 10
655 1 -9.26136 8.90401 2.5479 11
656 1 -8.43301 -0.659393 7.9757 16
657 1 -8.36152 -11.6813 -10.7441 12
658 1 -0.255009 -12.7047 -5.30742 12
659 1 8.12002 -15.2798 -1.54732 11
660 1 -1.46902 11.4498 -15.7003 6
661 1 16.4819 1.64151 -5.83115 9
662 1 9.38123 8.31628 0.74109 12
663 1 12.3639 1.86322 -0.371218 16
664 1 -2.54216 4.44133 -16.5572 7
665 1 -3.14696 -9.9456 7.7225 11
666 1 7.28864 10.6094 -5.40556 11
667 1 7.28541 1.15535 -9.04715 14
668 1 -12.7142 4.36646 -3.70384 13
669 1 4.16378 7.38941 -4.71636 13
670 1 -10.3213 -9.8719 11.4089 8
671 1 5.33825 10.3231 6.08565 14
672 1 0.508735 -18.282 3.6845 8
673 1 3.49885 11.6774 -3.8704 13
674 1 -5.22466 8.44123 12.2438 14
675 1 -9.37398 0.257674 14.2614 13
676 1 10.2886 1.46799 -3.0091 11
677 1 -7.2002 -9.81581 13.717 8
678 1 4.87704 -13.7128 4.97375 13
679 1 -5.48171 -0.0537359 6.05463 12
680 1 12.7723 5.39025 9.6507 12
681 1 9.5417 -5.87286 -5.72272 11
682 1 -9.44599 1.42256 -15.6753 8
683 1 -6.51861 8.84948 -8.84261 11
684 1 -16.3224 5.53904 -6.07573 7
685 1 12.6685 14.4406 1.04874 5
686 1 -1.11013 8.71072 6.73702 16
687 1 -11.3461 -13.5894 -5.15975 8
688 1 -2.3342 9.52058 -0.0471696 9
689 1 14.8948 2.23382 10.8814 9
690 1 -4.45926 -8.75122 4.58555 16
691 1 13.427 -0.192259 -12.8821 7
692 1 7.92624 -10.4835 -0.217951 13
693 1 2.62365 0.00325644 -15.1591 13
694 1 -8.66928 4.71218 -16.431 5
695 1 -10.1833 -5.36266 0.172777 16
696 1 -7.96061 6.11141 -3.74533 13
697 1 -5.52216 5.35313 15.4382 12
698 1 11.2189 -2.70018 11.0288 13
699 1 -11.7477 -9.24527 6.45233 13
700 1 16.0249 0.128278 -0.199263 10
701 1 -1.10051 5.27929 -12.5155 13
702 1 16.9811 9.17571 1.20976 6
703 2 -13.0213 -0.759026 -9.43571 14
704 2 -7.29346 13.284 -5.45609 10
705 2 1.31632 -1.61916 -13.7024 14
706 2 -4.05426 6.39266 12.9575 14
707 2 -9.52556 -6.37872 -9.62988 13
708 2 3.72535 1.65155 15.7329 16
709 2 -15.0666 -10.9021 1.8091 8
710 2 -15.1244 7.29848 -6.53798 8
711 2 1.06963 15.6758 7.16888 9
712 2 -12.3933 -0.830672 4.1877 14
713 2 10.6312 4.9106 4.06007 15
714 2 -3.48989 -1.8847 -7.44644 14
715 2 -12.3376 -8.42809 -7.91746 12
716 2 -10.5179 2.5043 -1.13676 13
717 2 -2.58132 -8.77194 6.01267 12
718 2 4.00355 2.85713 11.9745 15
719 2 8.51179 -2.45745 -11.962 12
720 2 2.55369 -16.8805 3.08069 14
721 2 7.99674 0.48453 3.61827 13
722 2 -7.71112 11.2292 -2.02369 11
723 2 -15.2853 3.71769 -6.77317 11
724 2 12.7651 4.78178 7.13127 16
725 2 10.7588 -13.2252 -8.38642 5
726 2 -11.6532 -13.1465 0.315313 10
727 2 -13.7156 -5.53787 7.62488 9
728 2 -4.00933 -14.7698 4.2122 11
729 2 11.6426 -5.83225 8.26914 9
730 2 -0.319656 -17.0578 -8.56627 6
731 2 5.6051 -1.0393 17.3212 6
732 2 -0.153069 13.5421 -11.8722 8
733 2 -11.791 -13.1141 -3.15305 10
734 2 1.4664 6.49725 17.1758 10
735 2 -11.4623 9.38833 2.28977 8
736 2 -1.22448 3.97682 18.6196 9
737 2 -7.06127 9.91335 -5.98562 12
738 2 10.1864 -14.6605 2.87782 5
739 2 -3.44203 8.38731 7.99266 15
740 2 -0.407682 15.0926 -8.37052 10
741 2 6.42142 -7.55739 -4.40502 13
742 2 -3.44796 0.956108 -9.01358 14
743 2 1.86268 -6.08073 -10.064 11
744 2 11.0891 -2.40586 -9.54548 12
745 2 -5.9238 8.78753 14.5474 8
746 2 4.62614 4.83756 -17.6275 5
747 2 -5.86335 11.8873 -14.3428 5
748 2 11.0194 11.2601 -3.31062 9
749 2 -7.99897 -4.29483 16.2603 7
750 2 -15.0746 10.3443 3.1157 6
751 2 13.9506 1.78943 -13.1652 6
752 2 2.46626 -10.975 -13.3268 12
753 2 -16.9133 -8.30201 3.41443 8
754 2 12.343 12.1598 1.64845 9
755 2 -4.79761 10.9515 4.54178 13
756 2 -5.18385 -11.5191 -8.45456 13
757 2 -5.1083 16.2658 8.66891 8
758 2 4.09699 -9.75743 11.6728 9
759 2 9.33238 -3.15613 2.76802 12
760 2 -14.2728 2.91897 -2.41113 11
761 2 13.1216 -12.082 -3.26955 6
762 2 9.72347 -13.4787 -4.49949 13
763 2 7.6154 8.47776 2.07996 11
764 2 6.31777 -13.3689 3.07936 14
765 2 15.4044 -4.8222 7.54526 9
766 2 -4.9941 -2.13839 16.3166 10
767 2 16.6127 -7.24454 -2.05438 6
768 2 0.311136 9.55472 8.25622 14
769 2 12.2116 7.30281 10.4951 8
770 2 -8.89926 7.69105 12.4498 10
771 2 5.39495 9.7814 3.82804 14
772 2 15.1042 -7.58956 2.06954 10
773 2 3.07696 8.09054 -6.80052 13
774 2 -11.7102 -4.15987 -11.7215 10
775 2 -9.22113 2.26786 12.8929 14
776 2 5.8174 -0.493976 -10.2955 13
777 2 -9.91076 0.335697 -7.4018 16
778 2 -15.3473 0.354594 7.29434 8
779 2 -11.4921 -9.65688 0.749611 10
780 2 17.4839 -1.4806 0.963683 7
781 2 0.660398 -7.7944 7.17331 15
782 2 -1.64839 -2.59672 15.8194 10
783 2 10.2509 -4.22953 -15.3155 9
784 2 6.4454 3.12338 17.3964 6
785 2 -1.71677 8.2673 11.1076 13
786 2 -9.48039 1.78381 3.03823 11
787 2 5.27512 -8.66124 -7.38453 12
788 2 13.2228 -0.845791 -4.47728 11
789 2 -10.6956 13.8953 6.81459 6
790 2 -2.64517 -13.1305 0.908274 12
791 2 11.9 -9.30467 -8.00607 11
792 2 5.62337 -1.26955 -5.77589 11
793 2 2.55248 6.62729 7.17788 14
794 2 8.45911 -10.4407 -6.01969 13
795 2 5.43124 -3.35928 10.6656 10
796 2 -6.82927 -8.27375 5.18461 13
797 2 14.3818 1.60403 0.626474 14
798 2 -11.1814 -11.5868 6.26711 8
799 2 10.4248 8.99581 -12.1958 12
800 2 -0.995452 -10.1838 2.76968 14
801 2 15.0135 -7.59846 -8.07173 10
802 2 1.5385 -17.7893 -5.41747 6
803 2 12.5202 -5.56878 0.349888 14
804 2 -6.42981 17.1 5.4245 9
805 2 14.1558 2.95007 -10.1843 10
806 2 -5.47538 -7.21243 -10.5756 15
807 2 -9.51052 -6.70003 3.25625 14
808 2 -3.94952 -9.70941 0.494938 11
809 2 -6.05476 -8.71497 -2.10283 14
810 2 -5.26436 12.2317 0.562314 13
811 2 -11.5686 12.4809 3.66291 8
812 2 3.66871 1.45719 -8.03135 13
813 2 10.8522 7.60293 -2.16826 11
814 2 4.29175 5.53935 -10.6003 12
815 2 -7.55766 5.01534 14.3171 10
816 2 -5.53371 1.13644 -16.5939 7
817 2 -12.7612 5.89037 0.500486 11
818 2 -5.14126 3.02125 12.7064 12
819 2 -12.8505 6.42793 6.7386 10
820 2 -6.72078 4.08992 -4.07787 13
821 2 6.61473 15.5047 2.53879 14
822 2 14.2129 2.07381 -6.60534 13
823 2 12.7173 -9.25604 -1.167 10
824 2 -12.6384 -1.62911 11.8732 12
825 2 8.81325 3.26821 1.85004 12
826 2 0.574122 12.4462 2.3926 12
827 2 -9.28301 14.168 -9.1495 5
828 2 -6.17158 7.5595 6.06176 12
829 2 13.4917 -5.3474 11.1699 7
830 2 -12.106 -8.50646 -11.3435 8
831 2 5.68502 7.01977 -14.4406 12
832 2 13.5277 10.218 -0.553294 10
833 2 -14.1901 -8.11741 9.85084 6
834 2 1.55747 10.7676 -1.0532 13
835 2 -7.26056 16.2694 -6.9189 9
836 2 2.276 11.8703 -5.9247 14
837 2 13.1072 1.50169 11.8935 9
838 2 -0.864095 5.73018 9.46148 13
839 2 14.1718 -8.54798 -4.84423 10
840 2 -2.82458 0.692723 17.483 11
841 2 2.00056 -3.24653 12.2217 14
842 2 -17.7349 1.87608 -1.36448 9
843 2 -6.43819 -9.84132 -15.5509 6
844 2 7.41549 -16.519 -5.61732 8
845 2 4.54536 -3.39904 -11.8762 11
846 2 16.8585 3.24577 3.21905 11
847 2 -4.32563 3.5441 15.9549 12
848 2 6.86693 3.86785 -12.8939 11
849 2 -8.20833 -9.2079 11.5004 13
850 2 -3.24264 -1.58182 -17.8187 11
851 2 0.828248 -10.693 -4.4629 11
852 2 -0.0897619 -4.96878 -7.56244 11
853 2 6.75296 -14.4848 0.150125 12
854 2 13.4945 8.51675 -5.69586 12
855 2 -6.43313 5.44555 -12.9123 9
856 2 -3.34539 13.9745 6.48739 12
857 2 -9.40998 -6.64455 -1.65012 14
858 2 -11.7455 1.19062 -12.6413 10
859 2 6.20943 9.52407 -11.4418 11
860 2 0.667065 14.4699 -2.03376 13
861 2 -8.48592 -17.017 1.73573 7
862 2 15.7659 2.73065 6.34352 15
863 2 -1.4312 5.06217 14.8183 13
864 2 -7.42074 -17.3319 -4.90928 8
865 2 4.12838 -12.3111 -5.30072 14
866 2 2.40555 3.19283 18.8026 8
867 2 2.55229 15.9897 9.56384 7
868 2 16.7043 1.06635 -7.94125 7
869 2 5.83176 4.96904 13.5904 13
870 2 11.2931 10.8836 -7.17621 12
871 2 -15.708 -2.77312 10.0683 6
872 2 10.391 -6.67834 -1.42506 12
873 2 0.780159 18.5538 3.17884 7
874 2 7.12765 6.29793 4.06205 10
875 2 -5.0276 8.27568 -13.5156 10
876 2 6.28578 -6.82993 13.6597 7
877 2 -9.10797 17.0269 2.62157 7
878 2 -1.3647 -10.9566 8.16879 14
879 2 8.46123 -10.3948 7.4625 10