ITEM: TIMESTEP
37000
ITEM: NUMBER OF ATOMS
1000
ITEM: BOX BOUNDS pp pp pp
-30.0 30.0
-30.0 30.0
-30.0 30.0
ITEM: ATOMS id type x y z Coordination
1 1 -7.68786 -11.4005 -7.86602 12
2 1 2.23825 -11.4173 3.52636 8
3 1 -15.3976 8.78504 6.13209 13
4 1 -15.5138 6.00921 -3.6667 15
5 1 -5.28566 -2.90312 9.97517 18
6 1 -11.5696 -1.58573 -10.1715 14
7 1 -13.5909 -7.72911 0.399104 19
8 1 -0.170225 -2.07809 7.11227 25
9 1 -7.42632 8.03478 9.82514 20
10 1 2.4233 -0.576184 4.50426 19
11 1 -4.15326 11.0696 -7.20828 10
12 1 -1.63071 3.0469 15.9711 8
13 1 -15.4898 1.96074 -1.1331 21
14 1 -8.66556 -3.33609 -11.3546 16
15 1 -2.33042 0.507276 7.36949 24
16 1 -2.62025 -4.2483 -5.81312 23
17 1 -3.47301 5.36777 13.4692 11
18 1 -7.95523 -6.6158 13.292 7
19 1 -15.3331 0.36781 1.87791 23
20 1 -13.881 -1.12915 -0.584663 22
21 1 -12.2206 11.7413 -3.54776 12
22 1 -6.2541 5.44966 -11.3285 13
23 1 -1.08247 -5.53984 -8.25773 18
24 1 0.726821 0.529635 12.9407 11
25 1 -16.8526 5.80434 5.67075 14
26 1 -10.1409 13.3864 3.88214 13
27 1 -2.37672 -10.0834 7.47297 11
28 1 1.81745 -6.70367 -3.4472 16
29 1 1.41062 2.64067 4.52194 23
30 1 -14.4057 10.0481 -2.03681 12
31 1 -3.97 13.9808 -4.76241 10
32 1 -5.93898 6.37092 7.29274 22
33 1 -12.0288 0.113907 2.06391 25
34 1 -1.04625 5.20123 9.46013 17
35 1 -16.9935 -2.42749 1.15059 16
36 1 5.89437 4.30285 7.49001 17
37 1 1.07829 -3.72998 -0.546561 20
38 1 0.930174 1.17553 7.13167 21
39 1 -18.2419 -4.74065 -1.54841 10
40 1 -5.01424 -10.712 -6.68642 14
41 1 -10.7124 14.8587 0.810057 9
42 1 -7.38056 8.72193 -4.55144 20
43 1 1.09689 1.65673 -5.79105 18
44 1 5.27301 -5.44209 1.90028 15
45 1 0.284661 -9.34206 5.37665 17
46 1 -10.7297 9.05594 6.34205 20
47 1 -5.85798 -0.925028 14.5993 13
48 1 -15.8982 2.4895 4.43919 23
49 1 0.171996 -8.65617 -9.0444 15
50 1 -0.52196 4.64778 -11.8003 10
51 1 -8.88536 12.6192 6.09842 14
52 1 -11.292 6.54875 -8.17706 12
53 1 -5.9706 7.91513 -0.8653 22
54 1 -5.80857 -9.51731 4.0482 21
55 1 -5.81766 -2.08805 -10.8023 22
56 1 5.89829 -5.89903 -6.86237 7
57 1 -6.03983 2.14421 9.77746 18
58 1 -16.431 -7.20108 -6.73981 13
59 1 1.32559 -3.35102 4.6377 21
60 1 -16.2325 -3.87383 -7.44623 12
61 1 3.50049 -8.48984 3.3962 13
62 1 -9.07394 7.73722 4.32059 22
63 1 -2.03934 1.53463 -5.95276 24
64 1 3.53861 -8.95086 -2.25042 16
65 1 -14.0021 -3.09292 -2.95665 21
66 1 1.89065 11.2032 5.24219 13
67 1 5.18615 7.59059 -6.29592 9
68 1 -9.16879 14.1667 -4.07447 10
69 1 -3.24982 -4.91777 -10.0839 19
70 1 -4.65842 9.28294 -3.49365 21
71 1 7.61016 -0.118337 -6.62743 11
72 1 -0.128534 -2.84601 -10.789 16
73 1 5.62854 -6.09617 4.88061 11
74 1 -11.8816 5.90219 -4.64912 19
75 1 5.09565 8.08068 2.56415 12
76 1 6.49301 4.60456 2.06312 15
77 1 -7.7225 15.5632 -0.930651 12
78 1 -8.81962 -0.544866 -11.0093 18
79 1 -18.0641 2.74337 -3.33072 12
80 1 -8.02759 7.16139 13.0444 13
81 1 -6.36039 13.3539 -1.87196 17
82 1 -0.417885 -2.82444 13.4585 10
83 1 -15.8355 -5.10198 2.39095 17
84 1 -7.00855 -11.8578 5.6103 14
85 1 -4.41759 10.4259 -0.709293 22
86 1 7.84214 3.01284 4.69799 13
87 1 -8.11434 -11.009 8.60117 10
88 1 -12.6734 2.12271 -0.65841 22
89 1 -5.15453 7.49577 11.8869 14
90 1 -10.6144 -1.14 -5.83583 23
91 1 -12.8644 -5.72895 2.21214 19
92 1 -14.3577 -9.02906 2.99916 15
93 1 0.503379 -7.00853 -1.04969 20
94 1 -8.09407 10.7282 4.09669 21
95 1 -10.5091 -0.733752 4.75522 24
96 1 -13.5538 -1.74197 -6.02601 22
97 1 -7.7489 -9.78089 11.8215 5
98 1 -2.31082 5.61256 -4.64444 19
99 1 -2.24916 -0.215165 12.2038 17
100 1 -7.84865 9.20142 -7.41292 13
101 1 -8.47231 -5.87794 -10.9114 15
102 1 -9.13409 11.2454 1.54716 19
103 1 0.759188 2.95132 10.1893 19
104 1 -10.3161 8.77078 -6.27941 15
105 1 -2.21019 3.54607 -9.08556 20
106 1 -12.0301 5.96849 7.25175 21
107 1 -15.1568 5.75146 8.13316 18
108 1 -6.48225 -8.26527 -6.50997 19
109 1 -2.22559 -6.81473 -2.95113 19
110 1 2.91998 5.94586 -7.46417 15
111 1 -6.38454 12.4788 1.05377 18
112 1 -17.1048 2.93642 1.31818 18
113 1 -4.38998 5.00934 10.0497 20
114 1 2.80575 -1.07296 -0.557033 23
115 1 -2.69425 6.15931 7.12748 21
116 1 -13.969 4.65224 5.04549 21
117 1 -16.1308 -6.0807 -4.02171 14
118 1 -3.7653 -3.03005 15.7571 7
119 1 -0.277049 -10.1174 -0.750486 16
120 1 -2.74063 -1.74538 -10.685 21
121 1 -0.135473 -4.83085 -4.16575 19
122 1 -15.7799 -3.10701 4.80377 17
123 1 -12.4799 -3.68332 -8.01906 19
124 1 -8.9114 -5.57549 2.00797 20
125 1 -11.0761 -9.02347 2.90155 22
126 1 -10.7028 -4.76891 -9.6605 19
127 1 -17.2187 -1.23712 -7.26866 12
128 1 -2.86659 7.68098 10.2495 16
129 1 0.929021 -2.6945 10.533 16
130 1 -9.04246 -5.46583 7.89141 16
131 1 -1.04465 9.43432 1.96543 23
132 1 -16.4052 -7.11399 0.642248 10
133 1 -6.51159 13.9312 4.28675 15
134 1 -14.8952 -9.14855 -9.41485 10
135 1 -11.434 -7.62321 -10.4327 13
136 1 -10.5046 -7.25464 -0.636872 19
137 1 6.08785 5.89253 4.36567 16
138 1 -10.5782 -5.42644 -2.84355 17
139 1 -15.1855 -6.78781 5.45042 9
140 1 -8.53124 -7.78822 -8.9821 19
141 1 -8.61385 -9.96923 -0.0174338 18
142 1 -4.39981 -12.3483 4.17797 12
143 1 -13.7529 4.28576 -6.58855 13
144 1 1.86428 9.03232 7.72667 17
145 1 -9.00397 4.05088 -9.63589 14
146 1 -2.35817 6.87886 -7.57113 19
147 1 -6.96009 -2.59754 7.96312 24
148 1 -3.46511 13.443 4.98297 9
149 1 2.79316 3.83779 6.95702 20
150 1 -13.9162 -0.458423 4.53696 23
151 1 -5.58942 -4.13608 13.1819 14
152 1 -13.2625 8.69377 8.32579 15
153 1 -3.67105 -6.46709 -13.5286 11
154 1 -2.2297 -7.45775 -0.192389 21
155 1 3.37533 -0.99843 -6.53745 19
156 1 -9.02239 -3.9948 5.05209 24
157 1 -7.77887 1.59352 13.144 15
158 1 -13.9322 2.91805 1.69142 22
159 1 1.78087 -12.2359 -5.77918 8
160 1 -7.42898 8.26549 1.74773 18
161 1 -10.2685 5.02382 4.78867 23
162 1 -8.41746 -8.20907 3.01805 22
163 1 -12.9326 4.28135 13.4854 10
164 1 -14.2738 -5.37841 -5.59634 20
165 1 -10.6184 7.01439 9.25744 20
166 1 -8.61847 1.39861 -6.27622 19
167 1 -17.7764 -0.657269 4.2135 14
168 1 -9.31645 -4.09417 -6.0958 17
169 1 -11.0382 8.53649 0.950331 23
170 1 2.75913 -1.98606 7.67265 23
171 1 2.38634 -7.43184 9.24467 9
172 1 -3.8971 -0.670559 9.76231 23
173 1 -1.96819 -11.9571 -5.31164 13
174 1 -13.8413 -6.43391 -9.54776 12
175 1 -15.0418 -0.279565 -3.25643 19
176 1 -6.91361 -6.65562 0.0921945 19
177 1 7.2976 1.32103 1.38284 16
178 1 -8.56896 6.6247 -8.66055 16
179 1 -15.1033 3.23563 10.4461 11
180 1 -13.1982 11.4659 6.42131 10
181 1 -7.37093 3.13593 7.33713 23
182 1 4.37674 -3.85817 -7.52865 13
183 1 6.18275 -2.5016 -2.1714 15
184 1 -10.547 4.61453 -1.38052 19
185 1 -9.39985 -9.41398 -6.80712 16
186 1 -4.12944 9.34518 6.80305 18
187 1 -12.4986 1.63002 -5.74039 22
188 1 2.55195 -11.8393 -2.07962 9
189 1 6.09054 0.652684 11.2396 8
190 1 -13.3113 0.0776479 -8.50115 17
191 1 -14.9381 -10.2973 0.0868004 9
192 1 -7.50129 10.6999 -1.82898 19
193 1 -12.6495 7.57865 -1.30506 19
194 1 -12.6323 -10.1624 -10.7923 8
195 1 -2.50951 -8.95762 4.40862 19
196 1 -7.5983 -12.2873 -4.45375 9
197 1 -13.8566 8.47448 -4.92212 13
198 1 -5.07498 -11.619 7.97731 10
199 1 -13.661 0.393886 10.2465 11
200 1 -12.1367 2.23509 4.46956 21
201 1 -5.83965 -4.07941 -6.04275 16
202 1 -3.82119 -2.93751 7.24104 22
203 1 -13.8369 2.39403 7.23534 19
204 1 -7.04457 -6.82079 10.4172 13
205 1 -8.41076 -3.81092 10.9155 14
206 1 -2.85077 -8.70522 -5.0861 19
207 1 3.95714 -10.8835 0.804499 6
208 1 -5.1199 14.8945 1.3818 10
209 1 -10.2956 -10.2261 5.74407 18
210 1 4.27514 -4.65714 7.86581 16
211 1 2.42348 5.29922 -1.6994 23
212 1 -6.87079 0.114538 -8.34378 21
213 1 4.29711 -2.1461 9.72541 9
214 1 -8.88807 -1.3692 12.9804 11
215 1 -2.79814 12.0562 1.64689 20
216 1 2.76671 -6.47754 5.93707 20
217 1 -10.223 -12.1393 -6.58447 11
218 1 -6.37332 12.5256 7.15772 16
219 1 -11.9996 0.125163 6.94696 20
220 1 -12.0469 -7.97231 -3.7868 22
221 1 -11.4757 -6.71322 -6.87156 18
222 1 -12.4486 3.66058 10.0467 22
223 1 -12.9003 -11.6107 -7.74002 11
224 1 -12.2323 -3.59811 4.19072 20
225 1 4.40121 6.71904 7.38483 15
226 1 4.5332 6.66078 -3.7336 14
227 1 -4.03361 4.37895 -6.33373 23
228 1 -7.38106 4.24411 -6.24593 18
229 1 -9.66717 9.27705 11.3614 11
230 1 -17.2135 -3.4255 -4.46243 15
231 1 -0.340798 13.4101 -3.43541 10
232 1 -6.38639 -5.93876 -8.44251 17
233 1 -5.63948 -7.72982 -11.0234 16
234 1 5.94058 4.59202 -6.05745 15
235 1 -4.32161 8.63835 2.15184 21
236 1 -1.16361 -1.39478 -7.79238 21
237 1 -0.458336 -6.1142 4.63075 17
238 1 -8.03124 2.22373 -11.4285 17
239 1 3.53929 8.17326 -0.812351 19
240 1 2.54048 -3.11269 -3.36261 19
241 1 -2.02307 1.66375 -11.78 17
242 1 -3.6244 -8.36143 2.42158 20
243 1 -1.09639 -7.08815 9.46697 13
244 1 -7.65521 -3.215 -8.3597 22
245 1 -10.6039 4.08568 -6.70755 23
246 1 -19.3794 0.284185 2.36296 8
247 1 4.5736 0.281367 -3.64122 19
248 1 -10.596 10.6922 -1.44432 19
249 1 -1.56556 -10.3534 -7.10826 14
250 1 -3.54142 5.63131 -10.1605 18
251 1 2.21421 -9.24324 -6.02391 15
252 1 -12.7786 -5.63495 6.38516 14
253 1 -11.3375 10.642 3.4997 17
254 1 -0.995488 11.9659 -6.32567 11
255 1 7.78173 0.200633 -3.25729 11
256 1 -6.49739 -8.93847 -3.0351 20
257 1 -4.55349 -2.62606 -8.39194 18
258 1 -2.50533 8.28422 -1.42853 19
259 1 5.95751 -1.67514 1.44072 16
260 1 0.0867155 -9.70535 -3.73319 23
261 1 -13.2223 6.3902 10.9316 15
262 1 -13.8902 -8.72023 -6.40056 17
263 1 -3.60668 -2.89102 12.8212 15
264 1 -0.225901 4.50103 -7.0883 22
265 1 -14.2356 8.89162 1.20458 18
266 1 -8.3474 15.5084 2.22438 11
267 1 -7.56656 -0.581381 9.71621 19
268 1 -4.86903 -9.48791 -0.194942 19
269 1 -3.68878 0.419324 -8.87697 23
270 1 -18.1769 1.16252 -0.696167 15
271 1 -13.9144 2.89251 -3.67884 21
272 1 -15.539 -4.35302 -0.392979 20
273 1 -1.1168 11.2688 -0.741069 22
274 1 -2.41149 -9.07772 -11.2074 13
275 1 -0.0121571 -5.99197 11.5281 11
276 1 1.78824 0.246191 -3.01227 20
277 1 -16.5791 8.14579 3.4436 10
278 1 4.5761 -11.5376 -5.25223 7
279 1 -4.95195 10.2138 9.22426 17
280 1 -7.27991 -0.589186 -13.8572 10
281 1 2.78725 1.35773 -8.64639 12
282 1 -6.22183 -5.27133 -13.1264 11
283 1 -12.4796 -11.0298 -4.49366 13
284 1 7.86984 3.05491 -0.76771 10
285 1 2.42186 -6.55311 -8.17363 11
286 1 -3.12067 -12.0035 -1.68664 11
287 1 1.86599 11.1078 -1.11654 13
288 1 -15.7294 5.68633 2.19845 18
289 1 5.64128 5.13884 -1.14496 16
290 1 -1.79344 -3.57366 10.0582 23
291 1 0.290736 8.46467 10.3526 11
292 1 -10.0364 1.34021 -8.14818 21
293 1 3.94567 6.19436 1.59433 19
294 1 4.16954 -3.98766 -0.890155 18
295 1 -8.00868 11.5594 9.25705 13
296 1 -0.744536 3.53849 6.86322 18
297 1 -10.3646 13.6072 -1.32706 15
298 1 -10.1742 -11.1196 -9.95529 11
299 1 -10.8884 8.83918 -3.6931 18
300 1 -3.80703 3.68249 -12.8834 9
301 1 -17.3626 4.86481 -5.74662 9
302 1 7.34247 -3.50475 3.96077 11
303 1 -5.36912 -5.64896 7.85478 20
304 1 8.86492 2.29962 -6.02689 9
305 1 4.32455 0.972061 6.35604 20
306 1 0.619732 12.5818 2.28837 13
307 1 6.43 -0.175987 4.09755 16
308 1 -9.12647 2.23486 10.1071 19
309 1 -12.7532 -8.60778 5.66052 16
310 1 -15.4691 1.14056 -6.17265 17
311 1 3.12672 2.57942 12.0572 10
312 1 -12.4418 7.50516 4.0706 18
313 1 2.67576 5.81099 4.68909 20
314 1 -0.711579 5.44217 4.06939 19
315 1 -16.8894 3.2324 7.52213 12
316 1 0.969244 -3.7914 -6.98781 19
317 1 -9.11848 -7.05549 -4.57206 18
318 1 0.594937 6.38607 7.30431 21
319 1 -1.85227 10.9644 10.0252 11
320 1 -1.29339 2.59781 12.7017 15
321 1 -6.37982 4.41511 13.3918 14
322 1 -11.202 1.26143 12.7575 13
323 1 -9.19685 5.64463 -3.94092 17
324 1 5.35899 5.50936 -9.1972 9
325 1 -5.74956 0.317015 7.28361 22
326 1 -3.26153 13.1955 -1.84909 14
327 1 -11.6711 -9.98474 -1.14062 14
328 1 0.718638 6.4821 1.20687 20
329 1 -4.34152 3.08258 7.51031 21
330 1 -12.3945 5.77704 1.56934 20
331 1 0.523967 6.41708 -4.1807 18
332 1 -2.59763 2.28247 10.4229 22
333 1 1.1311 11.8986 8.8739 9
334 1 -4.76268 -2.87557 -14.8918 8
335 1 -8.91423 6.0118 7.37651 23
336 1 5.65101 0.222008 -0.787964 16
337 1 0.306735 8.49712 4.89358 21
338 1 -15.8931 -0.36167 6.76778 12
339 1 -2.80187 -10.964 1.51577 16
340 1 1.84591 4.86099 -10.0853 10
341 1 1.44685 -5.13898 2.4224 20
342 1 -5.72978 8.07189 4.23374 24
343 1 -2.87827 -3.85441 -12.7918 18
344 1 -0.0772625 -7.07815 -6.53262 20
345 1 -11.253 7.27696 13.0832 10
346 1 -2.19095 -4.97086 7.32382 19
347 1 -5.90457 3.35402 -8.7201 22
348 1 -15.1295 -9.1224 -3.76195 11
349 1 -9.03653 -0.0786547 7.29612 22
350 1 4.02319 0.687462 1.94106 19
351 1 -9.20405 11.2062 -4.90255 16
352 1 6.09922 2.18132 -8.34888 12
353 1 7.44073 4.7667 -3.9167 9
354 1 -5.86655 6.2743 -8.24436 20
355 1 -2.22291 -0.29974 17.4147 4
356 1 -10.6853 -6.52842 4.52802 24
357 1 -3.0034 -8.0189 -8.50615 18
358 1 -12.5218 11.4727 0.666283 17
359 1 1.93003 9.23631 2.00349 21
360 1 -13.8988 -2.54793 2.07219 22
361 1 -1.32619 8.62032 -5.05091 15
362 1 -5.29653 0.114173 12.0267 19
363 1 -18.1625 -0.608659 -4.5206 13
364 1 2.93118 3.90453 -5.05174 17
365 1 -13.3377 -5.85857 -2.31926 19
366 1 3.05181 -2.59642 2.09547 20
367 1 -0.566774 -8.00199 2.22626 18
368 1 -7.40988 9.3063 7.23144 22
369 1 -7.57329 5.22591 10.1185 21
370 1 2.89311 3.64728 0.713789 18
371 1 5.7044 -8.28785 -4.46035 9
372 1 -2.41876 8.34674 4.51633 21
373 1 -4.71777 10.9991 3.33994 21
374 1 -4.19917 -7.98731 8.71027 14
375 1 -17.0009 -1.51651 -1.67071 16
376 1 -4.08175 2.22467 13.9328 15
377 1 -1.28425 11.6895 4.51764 16
378 1 0.941679 -4.92693 8.04457 23
379 1 6.97559 1.04752 7.76526 12
380 1 -1.56552 9.39819 7.79054 21
381 1 -9.18075 7.55651 -1.22103 23
382 1 -4.71925 -10.5608 -9.65197 10
383 1 -4.0395 -0.33112 -13.5101 15
384 1 -10.4126 -0.673545 10.4388 18
385 1 4.73791 2.75325 4.02075 22
386 1 -6.39409 11.7757 -5.04576 15
387 1 -0.493969 -6.30865 -11.3071 13
388 1 -6.26969 -11.3624 1.92285 14
389 1 -12.2374 -0.389874 -3.20285 25
390 1 0.777728 -0.379842 -10.9573 14
391 1 -9.64166 -9.87389 -3.18777 17
392 1 -3.72627 -5.64491 10.9703 15
393 1 -7.20289 -6.71076 5.23756 22
394 1 5.34251 -0.883653 -8.73592 13
395 1 -10.4884 11.2135 8.8565 11
396 1 4.72942 -5.15494 -4.53315 15
397 1 -17.2013 4.84425 -1.81923 14
398 1 3.49429 8.59087 5.11826 15
399 1 3.34756 5.14727 9.75433 13
400 1 -18.7736 1.72568 -6.72205 8
401 1 -11.4443 1.59822 -10.7606 10
402 1 5.43973 -6.23224 -1.77298 13
403 1 -14.9487 -2.44665 -9.91307 8
404 1 -12.5252 -11.2681 2.73103 11
405 1 4.53598 -3.34489 4.95896 21
406 1 -18.5117 2.89784 4.53064 13
407 1 -0.223427 6.70376 -9.62855 12
408 1 3.50506 -9.00499 5.94921 10
409 1 -13.5377 -2.37057 7.98413 12
410 1 -5.30731 1.09713 -11.5048 21
411 1 -8.8456 -11.3016 3.02037 15
412 1 -0.419107 -0.276398 10.151 23
413 1 -6.68839 -11.6571 -1.66944 11
414 1 5.59184 -2.08769 -5.12739 15
415 1 -14.4404 10.7302 3.63062 12
416 1 -10.4612 2.95058 7.19038 23
417 1 -3.58962 -9.37719 -2.8372 18
418 1 0.338285 8.20716 -1.12074 18
419 1 3.37849 2.08457 -2.00634 16
420 1 -3.88331 -6.55573 5.07626 21
421 1 -1.85823 10.9406 -3.32174 18
422 1 2.57438 -2.58802 -9.39598 13
423 1 -15.8028 7.40153 -0.531305 13
424 1 -4.51722 7.82013 -6.10911 22
425 1 -2.49323 12.2508 7.78509 14
426 1 2.33056 8.75007 -3.93234 12
427 1 -9.73093 4.49416 13.0125 14
428 1 -0.284125 1.36384 -8.97757 16
429 1 -1.21831 -12.0941 4.60128 11
430 1 -10.4691 -3.03809 7.53146 20
431 1 5.81572 3.01445 10.1393 12
432 1 0.0390115 -1.59227 -5.12557 20
433 1 -5.56752 8.69705 -9.6014 13
434 1 -7.11128 5.01517 4.593 24
435 1 -9.06376 5.92267 1.92221 23
436 1 -7.53656 -9.3029 6.33069 17
437 1 2.84137 -6.71563 0.122644 18
438 1 -1.12613 -1.19788 -13.355 12
439 1 -12.11 -3.90571 -0.269709 23
440 1 -14.0102 4.99084 -1.23909 21
441 1 2.60089 0.683912 9.78362 18
442 1 -10.3582 -8.03046 7.54031 14
443 1 6.07003 -1.96483 7.25702 13
444 1 -1.98224 9.696 -8.84795 9
445 2 -17.3606 -2.54804 -6.07482 10
446 2 -8.65575 14.3476 -2.31301 13
447 2 -3.0321 -2.10664 -13.7055 11
448 2 -8.04562 3.4628 13.3018 13
449 2 -13.795 -1.5131 -4.09712 21
450 2 -5.21385 0.661349 14.1586 11
451 2 -15.4658 1.95933 0.6603 20
452 2 4.00908 7.03406 4.04716 16
453 2 -10.8599 -2.33865 -7.32077 23
454 2 -14.8406 -4.63245 -9.27611 12
455 2 -12.3035 1.90837 1.4248 23
456 2 -7.02743 -6.01263 7.24853 21
457 2 -1.18026 3.54142 10.8701 18
458 2 -0.369744 -8.32117 -10.9367 10
459 2 1.24992 0.598388 3.89396 21
460 2 -11.0717 13.1797 -3.07 11
461 2 4.46756 2.77352 6.77537 22
462 2 -15.5467 -8.65836 0.939861 11
463 2 -6.8011 -10.8942 7.23233 13
464 2 5.97358 -0.0423269 6.67478 15
465 2 -12.8813 10.9787 4.83967 14
466 2 -13.699 10.9225 1.85919 13
467 2 -9.02436 8.06011 6.48445 23
468 2 -0.330632 -6.08926 -2.73155 22
469 2 -8.38156 0.0486155 -9.34051 23
470 2 -7.50075 -3.01044 -6.58695 20
471 2 0.763787 -2.8674 -4.19785 20
472 2 7.40233 1.2523 -1.46651 12
473 2 -10.8091 8.71466 4.33192 18
474 2 -6.05261 -11.2025 -8.52369 10
475 2 2.84055 -8.23362 7.58559 10
476 2 4.48853 0.575709 4.03329 22
477 2 -13.7046 3.28841 -1.75467 23
478 2 0.707645 8.3234 0.968272 20
479 2 0.429032 -11.8432 3.76853 8
480 2 -5.65073 6.29036 3.73917 23
481 2 -1.267 9.53626 3.82962 23
482 2 -6.34604 10.2631 -3.5734 19
483 2 -13.6789 4.43356 11.3688 12
484 2 -9.1513 3.04791 -7.20829 21
485 2 -11.6547 0.646823 -9.1673 16
486 2 -16.6718 6.11229 3.78311 13
487 2 -17.2578 -3.08522 -0.502924 15
488 2 -3.93128 -5.88902 6.74532 20
489 2 -3.99215 -1.27457 11.8095 19
490 2 -5.88896 6.3541 9.61551 20
491 2 -14.149 4.81948 1.60235 21
492 2 1.27838 -8.10324 -4.63467 17
493 2 6.31224 -1.40579 -6.80748 13
494 2 -8.73318 -9.93361 1.97498 15
495 2 -2.14715 -3.99983 -3.80452 21
496 2 -0.700508 12.0944 8.99159 9
497 2 3.17343 -10.8053 -6.27764 8
498 2 0.69324 0.691478 9.29787 20
499 2 -14.4688 -5.6659 1.09093 19
500 2 5.8419 0.110614 1.13069 16
501 2 -4.74094 -10.0528 1.71731 17
502 2 5.2307 -3.92119 -5.73067 14
503 2 -13.2021 -8.34835 -10.3733 10
504 2 -10.6905 -11.2965 2.39991 13
505 2 -7.04882 -6.76696 2.11113 18
506 2 -12.1098 -5.7278 -0.81245 21
507 2 -11.0119 10.4913 1.5336 18
508 2 -0.231954 0.2251 -5.68226 22
509 2 8.56214 0.744852 -4.90252 8
510 2 -2.16353 4.97473 -6.47758 21
511 2 -10.4638 -1.26909 6.87762 21
512 2 -16.8888 3.3876 3.24336 17
513 2 -9.05624 0.276203 9.15921 22
514 2 -18.0372 4.10709 6.27652 11
515 2 -12.2166 1.47741 -3.68114 21
516 2 7.66135 1.45543 -7.59618 10
517 2 5.63122 -10.0353 -4.98711 8
518 2 2.29244 5.38071 1.14223 20
519 2 -7.67785 11.0176 6.00658 20
520 2 -8.67689 5.83316 3.87376 23
521 2 4.06814 4.77703 -6.26308 17
522 2 -4.36599 8.78626 -1.64397 21
523 2 -4.08873 13.3347 0.71293 17
524 2 -7.56877 3.02497 9.20416 21
525 2 -7.13987 -2.57406 10.0145 20
526 2 -3.97774 -3.01407 -10.1481 16
527 2 -11.3635 3.00335 13.2727 13
528 2 -1.56041 5.35756 -10.2389 18
529 2 -9.02431 -9.27821 7.62195 15
530 2 -11.7922 -11.6392 -6.16006 12
531 2 -7.09691 -7.01922 -10.037 15
532 2 -1.95372 -11.2479 -0.352432 15
533 2 7.48203 3.59955 -5.45434 12
534 2 -12.21 3.30484 -7.16507 19
535 2 -8.83377 12.1755 7.83229 11
536 2 -14.1607 -2.96752 -0.854569 23
537 2 -1.30418 7.96828 -8.67394 14
538 2 -6.61918 14.6529 2.4796 13
539 2 -1.56636 8.9536 9.64194 19
540 2 -4.7505 -10.7523 -1.96556 15
541 2 -2.01516 3.37124 14.1774 10
542 2 5.28761 -8.0398 -2.29137 12
543 2 0.818028 6.44896 4.95714 23
544 2 -6.59207 8.01056 -8.17032 14
545 2 -0.829034 -4.85034 9.0383 20
546 2 -7.52645 -7.95725 11.8603 7
547 2 6.35205 -5.18606 3.44268 10
548 2 -9.08461 11.408 -0.508458 21
549 2 -14.9536 -7.85868 -8.13883 14
550 2 -0.841612 -1.36573 -9.72384 20
551 2 -4.25074 -9.31178 -10.8773 11
552 2 -2.89112 12.3047 3.5158 15
553 2 -16.8877 -1.67019 -3.48515 15
554 2 -15.2458 0.716448 3.82954 24
555 2 5.20913 -0.679456 10.2686 12
556 2 -10.5123 -7.11036 -2.86231 17
557 2 -3.87015 0.891779 -6.55659 23
558 2 -5.62946 -1.22564 -14.6127 11
559 2 -12.2717 -5.70431 -8.75363 17
560 2 -2.37505 -2.82588 14.2857 12
561 2 -4.67234 -9.32676 -4.45136 20
562 2 -6.46826 -1.74295 -8.91147 20
563 2 -0.882995 -2.87118 -6.60276 18
564 2 -12.5773 -9.63831 4.02879 13
565 2 -3.06006 -1.30881 -7.88461 17
566 2 -9.65173 -11.4711 -8.20735 13
567 2 1.18326 5.33467 -8.35993 16
568 2 -3.34732 10.6619 7.98844 15
569 2 5.63171 5.88966 6.16121 17
570 2 -15.1559 0.0896629 -1.43838 22
571 2 -10.009 -8.58589 4.6793 20
572 2 -7.6305 4.09434 -11.0866 13
573 2 -2.57832 8.19907 6.59284 20
574 2 -11.978 -7.60636 2.0728 25
575 2 -10.5319 4.98985 1.23666 21
576 2 -15.9028 -5.02276 4.38001 14
577 2 -7.74912 -11.0402 10.4506 6
578 2 -18.4097 1.63195 1.27714 14
579 2 -16.9365 -5.84323 -0.696014 14
580 2 -10.7543 -6.17454 6.97335 18
581 2 4.45105 -7.5295 5.08936 13
582 2 0.308906 8.44605 -4.11076 15
583 2 -0.446269 11.7018 -4.58022 11
584 2 4.22499 2.5374 -3.81178 19
585 2 -6.12699 11.6431 -0.808941 19
586 2 -10.0726 -7.77027 -7.91771 19
587 2 -14.6239 -7.35348 3.74256 16
588 2 -12.0577 -11.5631 -9.71274 10
589 2 4.53666 -2.61935 7.94014 14
590 2 6.30799 -2.58329 5.40183 14
591 2 -10.5356 10.7667 -3.51766 19
592 2 2.21502 3.34929 -0.98409 19
593 2 2.33056 -1.61664 9.58226 17
594 2 -4.92554 -4.83096 -8.97519 18
595 2 -2.50751 6.3331 4.17468 20
596 2 -0.947905 5.286 7.11689 16
597 2 -7.06178 1.08936 11.3455 21
598 2 -10.2608 4.78563 6.79686 21
599 2 4.91225 0.843648 -8.52171 11
600 2 -7.71975 -8.70756 -7.60727 17
601 2 -12.1149 -4.32719 -3.00693 18
602 2 -15.6478 1.77136 6.71184 16
603 2 4.85726 6.66043 -7.7685 10
604 2 3.96887 8.01709 -4.95865 12
605 2 4.6228 -6.04754 0.175263 14
606 2 -18.8438 0.955501 4.25225 11
607 2 -6.70774 11.5326 2.62843 22
608 2 -9.89721 7.73479 -7.99965 12
609 2 -4.2031 -3.01922 -6.35969 21
610 2 -15.6375 5.99493 -1.74693 16
611 2 -15.6351 -3.0778 2.24132 20
612 2 1.3112 -5.67701 0.123731 18
613 2 -2.00392 -9.33717 2.3218 20
614 2 -12.856 7.92156 2.20229 22
615 2 -5.69441 -5.8107 4.60938 21
616 2 -15.5338 4.51296 -6.2732 11
617 2 -3.57243 -6.60141 1.68655 25
618 2 -4.21895 8.89854 10.7813 14
619 2 -5.49272 1.44813 -8.88376 17
620 2 -2.0631 10.3368 -7.02139 13
621 2 -2.25003 1.54765 -9.7472 22
622 2 -6.43075 14.2384 -0.0890467 14
623 2 -12.4304 -1.13654 9.05433 13
624 2 -5.23016 -2.67448 14.2834 12
625 2 -9.06301 -5.75209 3.96901 24
626 2 -17.1388 2.81089 -1.56926 17
627 2 -13.7347 -7.33584 6.58986 12
628 2 -4.22891 6.60936 -7.48614 19
629 2 6.18835 -0.973481 -3.4282 14
630 2 -1.83529 -3.08207 6.70344 23
631 2 -4.42246 -4.59991 -13.8735 10
632 2 0.612573 6.27065 -1.10452 21
633 2 -2.13301 12.3853 5.99867 12
634 2 -0.403551 -4.86443 -9.9401 18
635 2 -12.1783 -3.64598 2.24773 21
636 2 -8.196 12.5682 -4.69961 14
637 2 -8.05668 8.5048 11.6553 16
638 2 -2.82928 -11.9585 3.30415 14
639 2 -8.91805 -11.2781 5.03698 16
640 2 -2.15156 0.33504 9.58028 23
641 2 0.644917 5.83757 -11.1448 8
642 2 -0.779381 12.0529 1.10728 15
643 2 2.19377 -9.82032 4.76376 11
644 2 -1.62309 -9.84964 -9.11279 12
645 2 -5.30763 6.68947 -10.2886 14
646 2 -6.28862 6.15182 12.6596 15
647 2 -4.27461 3.1221 9.48905 22
648 2 1.65647 -5.44432 4.81601 18
649 2 -0.480095 0.267453 -12.3229 15
650 2 0.737236 -10.6366 -2.0826 13
651 2 -11.6632 13.2454 0.183292 12
652 2 -4.23276 -9.17997 -7.71829 18
653 2 -3.21673 -1.82786 17.4072 6
654 2 -14.1443 4.72447 -4.17014 19
655 2 3.40634 -10.5485 -0.844964 10
656 2 -5.22354 13.2089 5.58788 14
657 2 6.39591 6.73238 2.51259 10
658 2 4.02237 2.66725 1.95351 19
659 2 -18.4147 1.20215 -4.30785 13
660 2 -10.7961 4.44169 -3.69302 20
661 2 -10.7338 0.703303 -6.18743 21
662 2 6.03456 6.07172 -4.69911 13
663 2 -14.3428 8.57093 -0.869544 17
664 2 -4.73076 -4.26773 11.4746 17
665 2 -3.40275 1.45417 12.1515 18
666 2 -1.04955 -5.41414 -5.91026 18
667 2 -7.09328 0.874518 -12.5067 14
668 2 -2.80578 11.407 -1.63897 19
669 2 1.94417 11.097 1.04644 15
670 2 -14.021 -9.92751 -4.97997 12
671 2 -9.99101 -9.09327 -0.889843 16
672 2 2.39789 0.232891 6.68184 20
673 2 -14.1169 9.87389 7.02376 11
674 2 -1.64543 -10.5331 5.7871 13
675 2 2.7294 -0.939712 1.38636 24
676 2 -8.69068 -3.67236 6.91919 19
677 2 -13.2247 -9.56686 -0.192486 13
678 2 -6.11391 11.8916 8.88176 13
679 2 -4.26803 10.7869 1.41431 18
680 2 -15.7764 6.98749 6.47084 15
681 2 -6.78263 -5.35222 13.0755 10
682 2 -8.47032 13.8473 4.64144 13
683 2 -8.02637 -10.7967 -3.19856 14
684 2 -5.41696 -3.7456 7.81006 20
685 2 2.62155 3.66887 10.4785 13
686 2 -12.1411 5.93227 5.21875 20
687 2 -12.4841 5.82795 -0.490702 23
688 2 -3.53906 6.09941 11.5592 14
689 2 -3.29514 -11.5465 -6.38562 12
690 2 3.89186 0.245647 -1.5738 19
691 2 -1.58705 -8.99078 -3.56358 23
692 2 -10.9096 8.63045 -1.01765 18
693 2 -9.49858 0.511742 12.5683 13
694 2 -17.2144 0.609654 -6.85134 10
695 2 6.01511 -6.79896 -5.34115 10
696 2 -1.2362 9.39595 -0.336619 23
697 2 -7.63186 -0.787321 13.9396 10
698 2 -5.64876 0.321859 9.2794 24
699 2 -3.82133 9.38637 -9.27968 13
700 2 -16.9812 4.51912 0.112692 17
701 2 -9.86085 -5.92528 -5.93436 20
702 2 -5.80871 7.68805 -4.67838 19
703 2 -10.5634 -0.166209 -10.997 14
704 2 -2.42063 -6.48365 -9.29366 19
705 2 -6.44944 -8.43576 -1.0137 18
706 2 0.750092 -7.16331 9.86785 11
707 2 -0.701136 0.0215119 6.56587 23
708 2 5.20759 -4.34386 -2.49682 14
709 2 -4.26582 -9.89971 8.19493 9
710 2 1.87727 10.9631 7.21071 12
711 2 -7.6078 8.85514 3.57451 21
712 2 -17.858 -4.98577 -3.45462 12
713 2 3.64086 5.12949 -9.69168 8
714 2 -0.608092 -5.68582 6.72505 20
715 2 -11.7491 10.8039 7.44628 13
716 2 1.78756 2.07681 -3.39473 21
717 2 -4.52825 5.20812 6.39862 21
718 2 -14.0331 2.83994 3.87557 22
719 2 -2.36357 13.3267 -3.52822 12
720 2 -1.82183 3.36289 -12.3175 11
721 2 -8.77934 2.01778 6.64769 24
722 2 -12.565 0.371585 11.7519 8
723 2 6.81958 1.566 9.5584 10
724 2 1.56084 -2.15203 -10.9357 11
725 2 -14.5874 -5.28316 -3.40258 19
726 2 -0.613103 -8.28968 -0.0976057 20
727 2 1.94389 -2.29798 -7.53352 19
728 2 -5.87453 7.88436 1.01726 21
729 2 -5.95754 -6.09775 -6.48433 19
730 2 -13.5166 2.19704 9.22518 17
731 2 -13.6369 -0.684839 1.48221 21
732 2 -0.0252336 -11.4778 -5.76681 14
733 2 -9.79799 -9.14854 -4.95157 20
734 2 -7.11911 -11.2052 0.139963 13
735 2 5.52943 -1.75601 -0.653337 18
736 2 -4.68205 12.3219 -5.96464 11
737 2 0.632318 12.14 4.18531 13
738 2 -10.339 -6.24403 -10.9331 14
739 2 -2.38357 2.39798 7.00988 21
740 2 -8.81833 6.50921 9.20909 21
741 2 -10.1163 7.27981 -4.71561 18
742 2 -10.1261 5.3338 -8.96745 11
743 2 -2.74729 -12.2692 -3.57155 11
744 2 -14.1492 -10.6521 1.849 12
745 2 -15.5621 9.32955 4.25867 13
746 2 -1.24805 2.53898 -7.56085 18
747 2 -8.75494 9.59654 -5.68646 15
748 2 -2.36265 7.25146 -5.77019 18
749 2 -8.79542 -4.4584 -9.16493 19
750 2 -6.9514 -7.60741 -4.42212 17
751 2 -18.3909 3.48479 -7.18324 8
752 2 0.292229 8.37321 7.16872 20
753 2 -4.86843 4.10509 -11.3433 17
754 2 -17.9674 -1.03014 2.36783 12
755 2 1.42893 1.82866 11.6304 12
756 2 0.371266 6.5886 10.0495 15
757 2 1.33194 0.856257 -9.57829 14
758 2 -6.10238 10.4238 -6.84224 15
759 2 -4.92544 13.8173 -2.80159 14
760 2 7.32966 3.20065 6.43626 13
761 2 -13.3562 -3.64279 -6.2825 18
762 2 0.964234 3.56757 -5.87251 19
763 2 -4.68574 3.92642 14.3525 11
764 2 -7.63008 -4.66637 -12.0994 13
765 2 -1.03907 0.849403 13.219 15
766 2 -7.4697 5.04948 6.73704 22
767 2 2.95391 -10.0143 2.1927 9
768 2 4.35606 -2.39716 -8.5628 12
769 2 -14.1007 7.20374 9.42602 16
770 2 2.60568 -5.73409 8.13399 14
771 2 -2.57408 9.41897 -3.87981 19
772 2 1.01454 10.1192 9.59861 10
773 2 -14.2743 10.3905 -4.16497 9
774 2 -8.90909 15.857 0.404543 9
775 2 -12.912 -7.26432 -5.46902 24
776 2 -4.29552 -0.53205 -11.0897 22
777 2 -12.5496 6.00864 12.7087 11
778 2 7.15759 3.17284 0.979567 15
779 2 -12.1737 8.88921 -5.7949 14
780 2 -14.0016 -0.652161 6.81885 17
781 2 -14.4526 -10.4465 -7.95145 10
782 2 -9.60013 6.37702 13.5072 12
783 2 -10.9043 -9.38462 -10.9288 9
784 2 -12.139 5.88067 -6.50886 16
785 2 -9.7445 2.53092 -10.2175 14
786 2 -7.68147 -1.67889 -11.8975 15
787 2 -11.0897 8.01299 11.2261 15
788 2 -11.7972 7.74789 7.56643 19
789 2 0.235221 12.1882 -1.79804 12
790 2 -4.95362 -12.3512 5.99412 11
791 2 -3.94334 4.15895 -8.44836 21
792 2 2.90695 -5.22691 -3.90806 16
793 2 -13.6644 -8.19057 -2.5939 18
794 2 -12.7602 10.5903 -1.32016 19
795 2 -12.0844 -5.48 4.24313 21
796 2 -7.27566 5.07048 -8.20687 18
797 2 -2.18783 -8.34788 8.35657 13
798 2 5.27784 4.41248 9.26226 13
799 2 1.53875 -3.17406 6.82849 22
800 2 -12.3897 -3.66707 6.6897 19
801 2 6.16779 3.90738 -8.31681 11
802 2 -9.25626 10.3586 10.1513 13
803 2 -8.01325 -11.9452 -6.15701 12
804 2 -16.033 -7.79287 -4.76228 12
805 2 -11.5705 -9.48363 7.04178 10
806 2 -12.1667 -0.0369879 4.05308 22
807 2 -12.5986 7.54066 -3.24813 22
808 2 -16.0938 -5.43467 -6.24982 15
809 2 -9.60887 11.7476 3.40551 15
810 2 4.55405 -4.85683 5.94412 16
811 2 3.25289 8.0739 6.83031 14
812 2 -6.01279 -11.2755 3.94177 15
813 2 -16.4506 -1.22788 5.22212 14
814 2 -17.1683 4.61331 -3.79365 13
815 2 -7.28175 -1.00328 7.03087 21
816 2 -0.731097 -1.88738 9.25825 21
817 2 -4.33466 -8.34507 4.46585 19
818 2 3.33497 4.07579 4.61441 20
819 2 0.759748 -5.69994 -7.82016 16
820 2 -9.33385 7.7086 1.15637 19
821 2 -10.2254 -2.82701 -10.6718 15
822 2 -10.1692 -2.63545 4.16311 23
823 2 -1.96523 -6.39044 11.161 11
824 2 0.265831 -4.11795 11.8371 12
825 2 0.15819 -1.28853 12.2961 14
826 2 -0.483987 4.91369 -3.79611 19
827 2 2.8145 5.57612 7.92676 18
828 2 -1.31062 -2.61399 -12.1468 16
829 2 3.02827 -2.76311 4.14249 17
830 2 7.10208 4.44169 -1.98814 11
831 2 1.36902 -8.23082 -7.46434 14
832 2 -5.94807 8.03951 6.26867 22
833 2 6.36295 4.03432 4.0846 17
834 2 -8.46989 -5.32588 9.7816 17
835 2 -3.29871 -2.84411 9.20903 23
836 2 -9.20553 -2.05149 11.1329 13
837 2 -3.63288 -8.14638 -1.39587 22
838 2 4.89371 -3.39352 1.90528 17
839 2 7.16822 -1.9188 2.87918 12
840 2 -5.12548 -6.71314 9.99579 15
841 2 1.07389 -3.39735 1.50222 22
842 2 -13.8909 4.38916 6.8653 21
843 2 -11.8581 5.56781 9.44169 18
844 2 2.40982 5.86937 -3.77023 21
845 2 -2.15436 -6.0653 -12.2938 11
846 2 4.231 -6.05041 -7.47528 11
847 2 -4.10472 1.72004 -13.0743 11
848 2 -13.6418 0.0424052 -6.70027 19
849 2 1.74901 9.32315 4.18361 20
850 2 -18.5236 -0.211151 -2.03504 12
851 2 5.06701 4.83002 0.720807 19
852 2 -12.3264 -0.248898 -1.16083 24
853 2 -0.325578 -5.978 2.51453 19
854 2 -7.52984 8.93071 -1.38038 18
855 2 7.31585 1.38455 3.77136 15
856 2 2.04699 9.22253 -1.82951 18
857 2 -0.626737 -8.01094 4.25934 16
858 2 -15.0516 1.34995 -4.41069 22
859 2 4.38402 1.77052 10.8648 11
860 2 2.74448 -7.01821 2.18957 15
861 2 -2.38265 -5.31348 4.45013 24
862 2 3.75244 8.31095 1.05493 14
863 2 -12.0807 1.92759 6.50511 22
864 2 -15.4894 7.43862 1.56361 15
865 2 2.61476 -3.07091 -1.37834 22