ITEM: TIMESTEP
317000
ITEM: NUMBER OF ATOMS
500
ITEM: BOX BOUNDS pp pp pp
-30.0 30.0
-30.0 30.0
-30.0 30.0
ITEM: ATOMS id type x y z Coordination
1 1 -8.84892 -2.6704 -5.727 12
2 1 -8.09111 -5.87765 -5.2111 11
3 1 -6.6787 -5.89322 -2.73126 17
4 1 -8.09425 -2.9345 -3.2531 17
5 1 -5.34652 -7.13887 -6.11449 12
6 1 -3.27025 -9.7555 -4.848 12
7 1 0.740127 -2.40317 -8.49119 13
8 1 -6.13629 -4.13557 -6.702 14
9 1 -5.148 -1.23147 -5.67032 24
10 1 -3.19746 -3.91512 -5.48653 19
11 1 -3.47425 -5.77886 -2.96995 22
12 1 -5.05271 -2.87455 -3.03794 21
13 1 -1.97322 -6.95194 -5.82418 16
14 1 -0.0398536 -9.75908 -5.53973 12
15 1 -1.43932 -8.63112 -2.80564 19
16 1 2.32029 -1.56045 -11.0516 8
17 1 -2.84299 -2.59918 -8.02044 14
18 1 -1.87329 -0.928039 -5.83486 22
19 1 0.114837 -3.8634 -5.94295 18
20 1 -0.107527 -5.7384 -3.27367 22
21 1 -1.62306 -2.93198 -3.14885 20
22 2 -8.88067 -4.31534 -4.88812 11
23 2 -7.40246 -2.70991 -6.94866 12
24 2 -7.03359 -7.14111 -4.26931 12
25 2 -6.89795 -3.80436 1.74817 20
26 2 -8.6421 -1.31519 -4.1506 18
27 2 -6.52541 -4.03656 -3.13455 18
28 2 -4.51558 -8.42614 -5.02441 14
29 2 -5.15043 -7.68309 -2.03628 16
30 2 -2.97009 -9.90446 -2.77724 13
31 2 -3.95266 -5.70213 -5.88494 15
32 2 -6.21857 0.0606661 -7.28208 17
33 2 -6.728 -6.00131 -6.5594 11
34 2 -4.50004 -2.82124 -6.62214 18
35 2 -3.45756 -5.61109 -0.333017 21
36 2 -5.03312 -2.80321 -0.968563 23
37 2 -5.19321 -1.00066 -3.83881 21
38 2 -3.51953 -3.88897 -3.51762 19
39 2 -1.75474 -8.89116 -5.56619 12
40 2 1.60012 -8.64989 -1.14649 16
41 2 -1.8969 -9.1529 -0.69068 16
42 2 -1.85425 -6.96366 -3.59269 21
43 2 0.334614 -9.35703 -3.65984 16
44 2 -0.220051 -6.10041 -5.79737 15
45 2 -1.73967 -2.89218 -6.51166 19
46 2 -3.45169 -0.843891 -8.45876 14
47 2 -0.109929 -0.920097 -9.41752 14
48 2 -0.506236 -6.12835 -1.45243 20
49 2 -1.7033 -2.84778 -1.16391 21
50 2 -2.0409 -1.1905 -3.98326 21
51 2 0.208014 -3.65272 -3.95011 25
52 1 -10.11 -0.319128 -3.38226 14
53 1 -5.98004 -8.46177 -3.47362 12
54 1 -8.41039 -1.47722 -0.534035 19
55 1 -6.92516 -4.18155 -0.123928 19
56 1 -7.24031 -5.7625 2.63313 16
57 1 -8.57385 -2.79863 2.20758 16
58 1 -8.41888 -0.790142 4.98926 17
59 1 -7.25222 -3.49713 4.75755 18
60 1 -6.90112 -5.65648 6.46312 10
61 1 -7.55483 -1.58205 7.82082 11
62 1 -5.02725 -6.60421 -0.301385 19
63 1 -4.10295 -9.43209 -1.32849 12
64 1 -5.41101 -8.42707 2.08647 13
65 1 -5.22567 -6.78499 4.50825 16
66 1 -3.18107 -9.54236 4.40601 11
67 1 -5.27663 -0.950238 -0.466313 23
68 1 -3.44748 -3.55799 -0.332959 21
69 1 -3.72895 -5.58953 2.0273 22
70 1 -5.43758 -2.75413 2.06025 22
71 1 -5.50755 -0.848172 4.626 22
72 1 -3.54964 -3.67394 4.76621 22
73 1 -3.20807 -5.79444 6.84866 14
74 1 -5.08708 -2.73301 7.47746 19
75 1 -5.91032 -0.113791 9.98065 12
76 1 -3.06492 -1.73353 10.3541 11
77 1 -1.89914 -6.99969 -0.119147 24
78 1 -0.0545642 -10.0576 -1.12143 12
79 1 -2.29227 -9.5812 1.12753 14
80 1 -1.71473 -7.04613 3.71737 20
81 1 -0.142584 -10.207 2.91074 12
82 1 -0.684168 -7.93992 6.70008 12
83 1 -1.77346 -0.875519 -0.518906 23
84 1 -0.0777177 -3.80754 -0.847607 21
85 1 0.0135602 -5.68418 2.25491 21
86 1 -1.7572 -2.97074 2.09566 24
87 1 -1.84109 -0.93911 4.9432 24
88 1 -0.368732 -3.9853 4.61681 22
89 1 1.1038 -5.50439 6.13105 17
90 1 -2.02202 -2.61344 7.39157 22
91 1 -0.274935 -1.26288 9.6298 17
92 1 -0.474801 -4.86005 8.60543 15
93 2 -9.52437 -0.181346 -1.55345 14
94 2 -6.71787 -5.93318 -0.547038 15
95 2 -7.08255 -5.5655 4.57699 13
96 2 -8.57792 0.24264 6.91908 14
97 2 -8.90563 -1.01376 1.49488 18
98 2 -8.55881 -2.47982 4.0061 16
99 2 -7.57461 -0.434751 9.22022 10
100 2 -7.23078 -3.44829 6.98074 15
101 2 -4.96439 -8.70079 3.79631 14
102 2 -5.62851 -6.46969 2.21611 16
103 2 -4.05422 -8.96311 0.683762 15
104 2 -5.09944 -6.17683 6.48832 13
105 2 -3.51787 -5.84678 4.20679 22
106 2 -5.4688 -2.71232 4.21761 23
107 2 -5.29426 -0.722737 1.60015 22
108 2 -3.64395 -3.52034 1.75719 22
109 2 -1.39145 -6.27663 7.39139 16
110 2 -4.70609 -1.74133 9.35099 15
111 2 -5.49255 -1.01816 6.72495 23
112 2 -3.69924 -3.88955 6.70162 20
113 2 -1.97841 -9.09766 3.00135 15
114 2 -1.76013 -6.47507 1.9389 19
115 2 0.0028787 -10.0456 1.00816 12
116 2 -1.99258 -8.40243 5.53025 13
117 2 0.0137632 -5.97173 4.37789 21
118 2 -1.85331 -2.76175 4.12798 22
119 2 -1.86737 -1.0131 1.35123 22
120 2 -0.242781 -3.91751 1.1273 24
121 2 1.31383 -7.58471 6.36708 15
122 2 -1.79731 -2.83678 9.27371 15
123 2 -2.10944 -0.815558 6.90263 25
124 2 -0.441446 -3.83263 6.6836 22
125 1 -9.71411 0.941532 -6.52111 12
126 1 -7.7077 -1.033 -7.80064 12
127 1 -8.60293 4.4199 -6.76632 9
128 1 -6.68294 1.73831 -6.24859 20
129 1 -6.88568 -0.127145 -3.31542 22
130 1 -8.51216 2.79379 -3.71083 17
131 1 -6.8261 5.9975 -5.10266 13
132 1 -4.55999 3.29847 -8.7533 13
133 1 -1.81173 2.92675 -10.9816 10
134 1 -5.74736 6.3614 -7.99526 10
135 1 -3.31489 2.2016 -5.89058 23
136 1 -3.65422 0.365466 -3.50838 22
137 1 -5.46437 3.10068 -3.48436 20
138 1 -0.141676 7.35955 -7.76735 16
139 1 -5.53834 9.04188 -5.47112 11
140 1 -3.2814 6.04352 -3.65935 18
141 1 -4.4759 9.9278 -2.27086 11
142 1 -1.80472 0.384064 -9.11525 15
143 1 -4.6793 0.620865 -8.22216 14
144 1 -1.68414 5.40787 -6.16302 20
145 1 -0.420238 2.08305 -5.92933 20
146 1 -0.107215 0.25186 -3.55835 22
147 1 -1.74766 2.91144 -3.43549 21
148 1 -0.432201 3.36121 -8.17374 20
149 1 -2.83846 10.6609 -4.81026 8
150 1 -0.211749 6.18168 -2.89318 24
151 1 -0.632923 8.5165 -4.70883 17
152 2 -8.22884 -3.27508 -1.3899 17
153 2 -9.64962 1.53559 -4.67795 14
154 2 -9.30747 -0.80504 -6.91466 10
155 2 -7.11101 5.49324 -7.15624 12
156 2 -6.91698 -0.375897 -1.16888 22
157 2 -8.39687 2.47817 -1.80217 18
158 2 -8.3521 2.50705 -7.15858 12
159 2 -6.84126 1.68006 -4.13395 22
160 2 -8.10638 4.45141 -4.86479 14
161 2 -6.83443 5.78158 -1.38603 16
162 2 -4.63947 10.2796 -4.42508 10
163 2 -3.26475 0.248327 -5.79981 22
164 2 -4.92635 2.27358 -6.96772 16
165 2 -3.48651 1.67534 -9.40084 14
166 2 -3.64796 0.0953816 -1.04135 22
167 2 -5.48507 2.98567 -1.39916 21
168 2 -5.06373 5.11714 -3.97915 16
169 2 -3.57463 2.55654 -3.84242 18
170 2 -5.14577 8.27546 -7.12365 10
171 2 -2.92151 5.9724 -1.79055 20
172 2 -6.57223 7.90486 -4.23439 12
173 2 -2.20021 9.07242 -5.74828 15
174 2 -0.195672 0.164737 -6.00269 19
175 2 -1.7444 3.35453 -6.43004 21
176 2 -1.37472 4.56836 -9.93005 15
177 2 -0.899723 1.89272 -9.62889 14
178 2 -0.431512 0.250389 -1.48967 23
179 2 -1.71389 3.13719 -1.44644 23
180 2 -1.51921 6.42812 -4.38888 19
181 2 -0.137444 2.2074 -3.9925 22
182 2 0.103393 5.34865 -6.83623 21
183 2 -2.19528 6.85083 -7.57994 16
184 2 -0.141285 5.83682 -0.861752 22
185 2 -1.4285 8.42538 -0.297457 18
186 2 -2.52997 10.1189 -3.01467 10
187 2 0.0978122 8.15166 -2.90787 18
188 1 -9.93768 1.4886 -0.850076 15
189 1 -9.97506 0.474377 2.40471 14
190 1 -9.36017 1.66354 5.89864 12
191 1 -8.1955 4.4067 -1.45556 15
192 1 -6.92776 1.62663 -0.566143 24
193 1 -6.9529 0.0155003 1.73601 24
194 1 -8.66486 3.28648 1.5985 17
195 1 -9.1663 5.0867 4.82497 9
196 1 -7.27691 2.25557 3.95267 20
197 1 -8.09038 1.3072 8.40018 11
198 1 -6.36191 7.54423 -2.37847 14
199 1 -7.14426 6.09535 0.78239 12
200 1 -6.96342 7.44048 4.0693 11
201 1 -7.24803 4.07405 7.05975 13
202 1 -5.01487 4.90691 -1.11228 21
203 1 -3.51716 2.16627 -0.670344 21
204 1 -3.48173 -0.255124 2.08309 23
205 1 -5.15096 2.68498 1.71003 20
206 1 -5.44461 4.8032 4.78642 23
207 1 -3.8232 1.74641 4.47166 23
208 1 -3.82229 0.0815241 7.43908 19
209 1 -4.96405 2.56151 7.84683 16
210 1 -2.64345 1.42434 10.1212 15
211 1 -3.1805 7.58713 -0.627292 20
212 1 -3.93847 5.708 2.20348 22
213 1 -5.17491 8.30904 2.17339 13
214 1 -3.47773 7.49451 4.83756 17
215 1 -3.95637 5.44982 7.24959 15
216 1 -1.87856 4.79466 -0.391526 22
217 1 -0.367048 2.11734 -0.610134 24
218 1 -0.143298 -0.335956 2.07939 22
219 1 -1.86401 2.88558 1.75471 19
220 1 -1.92156 4.69284 4.54457 23
221 1 0.169232 1.77273 4.62751 20
222 1 -0.424485 0.0172473 6.98609 21
223 1 -1.89529 2.85614 7.20808 22
224 1 -1.08456 4.97733 10.4468 10
225 1 0.305417 2.21848 9.71498 15
226 1 -1.06118 9.43831 -2.14469 17
227 1 0.302249 7.5787 0.0272502 19
228 1 -0.415852 5.80082 2.35111 22
229 1 -1.80287 8.82837 1.66224 13
230 1 -0.290513 8.07876 5.07092 18
231 1 -0.279442 5.73614 6.68168 18
232 1 -2.09872 7.78798 8.31249 10
233 2 -9.53141 0.74129 4.41987 13
234 2 -9.98415 1.69364 0.975492 13
235 2 -7.03668 0.201413 3.74094 23
236 2 -8.29494 4.23507 3.25469 18
237 2 -8.69031 4.90113 0.396712 13
238 2 -7.18958 1.90201 1.32195 21
239 2 -7.12931 3.00642 8.55972 10
240 2 -7.25693 5.94361 5.31551 13
241 2 -6.81382 7.37222 2.13806 12
242 2 -3.46045 -0.347837 4.22692 21
243 2 -5.34786 2.93549 3.74815 22
244 2 -5.28012 5.137 0.863654 23
245 2 -3.57589 1.85055 1.28505 24
246 2 -4.52505 1.09577 9.16465 16
247 2 -7.94235 3.05128 5.58653 16
248 2 -5.30373 4.11706 6.74816 16
249 2 -3.56765 1.80768 6.47009 21
250 2 -3.7808 5.5631 4.12773 21
251 2 -5.16083 8.2114 4.05695 11
252 2 -3.62516 8.26809 1.2171 16
253 2 -1.70845 6.22814 9.30458 11
254 2 -3.29828 7.1923 7.03595 15
255 2 -0.0396551 -0.118266 4.23381 21
256 2 -1.7056 2.58228 3.77386 22
257 2 -2.16239 4.79801 1.57767 23
258 2 -0.189818 1.85907 1.35199 23
259 2 -1.88401 -0.210911 10.2914 14
260 2 -1.37359 2.9101 9.58851 13
261 2 -2.26611 4.6142 6.55257 20
262 2 -0.124413 1.95094 6.48843 22
263 2 -0.525312 5.96101 4.69916 18
264 2 -2.10109 8.39641 3.59076 17
265 2 -4.79023 8.26509 -1.68075 16
266 2 -0.139082 7.7416 1.89191 17
267 2 0.713036 5.07107 10.6503 8
268 2 -0.415709 8.05956 6.95041 15
269 1 1.59821 -6.83416 -5.60977 19
270 1 2.16699 -8.77538 -3.04818 18
271 1 0.957105 1.15748 -9.89211 13
272 1 4.19582 -2.23946 -8.54754 14
273 1 6.55992 -0.461208 -8.27832 14
274 1 1.58431 -0.83124 -5.84442 23
275 1 2.9897 -3.26052 -5.8153 20
276 1 3.19102 -5.50218 -3.61413 20
277 1 1.72045 -2.73877 -2.95178 23
278 1 3.16003 -9.22122 -7.02014 6
279 1 5.0446 -8.26244 -4.25025 15
280 1 6.56663 -3.68346 -7.34425 12
281 1 4.79942 -0.807913 -5.70232 22
282 1 8.46238 -0.755906 -5.8653 14
283 1 6.87433 -5.22499 -4.46943 15
284 1 5.06948 -2.8065 -3.23733 20
285 1 9.15989 1.88103 -7.18497 11
286 1 8.52644 -2.824 -3.02287 15
287 2 1.36746 -8.68603 -6.51748 11
288 2 4.58483 -8.04442 -6.20523 10
289 2 1.60146 -6.74638 -3.55235 21
290 2 3.93115 -8.30142 -2.25115 14
291 2 2.86247 -5.26956 -6.22134 15
292 2 1.44261 -2.48275 -6.69261 18
293 2 2.59657 0.380309 -10.7847 10
294 2 2.45583 -2.6671 -9.36172 10
295 2 3.12359 -5.62104 -1.14417 23
296 2 1.71085 -2.81489 -0.913938 18
297 2 1.45388 -0.896529 -3.43426 20
298 2 3.29035 -3.53137 -3.68498 22
299 2 6.00361 -9.79192 -0.144118 10
300 2 6.73604 -8.39222 -2.93308 10
301 2 4.84103 -0.655435 -9.02347 15
302 2 4.83638 -2.92651 -6.73671 19
303 2 7.93798 1.29796 -8.7001 12
304 2 6.50102 -5.3484 -6.33393 10
305 2 5.20042 -2.91868 -1.2272 20
306 2 4.93579 -1.05351 -3.83739 20
307 2 4.98869 -6.21676 -3.74464 20
308 2 9.82506 -2.93053 -1.59617 15
309 2 7.64247 -2.12019 -7.31899 12
310 2 6.66326 -6.18484 -0.999335 19
311 2 6.92555 -3.85931 -3.18079 14
312 2 9.62543 0.868486 -5.72779 12
313 2 8.25443 -1.09737 -3.91546 17
314 1 1.41274 -6.74333 -0.71841 21
315 1 5.4636 -9.82826 -1.90913 9
316 1 2.05012 -8.57268 0.913723 17
317 1 1.72116 -7.6416 4.19297 18
318 1 3.28015 -10.058 3.79227 9
319 1 3.18164 -7.87961 6.48519 15
320 1 1.72508 -0.750137 -0.582519 21
321 1 3.33846 -3.6672 -0.743271 20
322 1 3.38722 -6.01853 1.41247 19
323 1 1.50346 -3.15102 1.61797 19
324 1 1.59621 -1.19474 4.66209 21
325 1 2.96692 -4.07808 4.15211 20
326 1 6.19997 -6.5066 7.38734 12
327 1 1.42519 -2.87917 7.25369 23
328 1 2.23421 -3.72558 10.1092 11
329 1 5.09417 -3.26113 10.0376 10
330 1 4.75114 -6.6576 -1.40421 23
331 1 4.62718 -6.08259 -6.38856 13
332 1 5.33534 -9.03973 1.49714 12
333 1 4.82998 -6.97149 3.82092 19
334 1 5.06902 -1.07065 -0.580578 23
335 1 6.63637 -4.32992 -1.09963 20
336 1 7.00325 -6.3276 1.13103 18
337 1 5.32909 -3.48988 1.91309 20
338 1 4.91141 -1.33604 4.17595 20
339 1 6.32004 -4.37227 5.00235 17
340 1 3.26916 -5.94615 8.79811 14
341 1 4.43048 -3.3009 6.97488 20
342 1 2.82981 -0.757621 9.89477 17
343 1 9.88975 -6.85167 1.2672 9
344 1 7.93747 -6.77382 4.28349 10
345 1 8.3813 -0.197598 -0.150094 21
346 1 8.07921 -7.38886 -1.97649 14
347 1 11.2351 -3.10723 2.09525 10
348 1 8.6312 -3.21316 1.5696 20
349 1 7.75952 -0.403727 5.63667 13
350 1 9.22435 -3.39585 4.87948 10
351 1 7.51998 -3.38726 7.56764 14
352 1 10.2334 -4.82803 -0.821585 12
353 2 1.44421 -9.51122 3.76034 13
354 2 1.45439 -6.87103 1.45801 21
355 2 3.44083 -9.33805 1.91632 15
356 2 1.58867 -5.10563 8.78749 15
357 2 3.29982 -5.91733 3.94931 20
358 2 1.28699 -2.90779 3.76807 24
359 2 1.57481 -1.01789 1.32693 22
360 2 3.45169 -3.95936 1.28382 22
361 2 3.82947 -4.17169 8.85364 17
362 2 1.11844 -2.42231 9.06379 18
363 2 1.36571 -0.918157 6.64959 22
364 2 2.65523 -4.02838 6.04011 24
365 2 3.79083 -8.37483 4.78034 12
366 2 5.2672 -7.08275 1.8177 19
367 2 4.31507 -6.91456 7.74104 13
368 2 6.15484 -6.62542 5.2907 13
369 2 5.10867 -3.39079 3.85531 20
370 2 4.91249 -1.19084 1.53468 21
371 2 7.01132 -4.04407 0.87606 19
372 2 3.37671 -2.25158 10.7599 10
373 2 4.46618 -1.51745 6.34281 22
374 2 6.1408 -4.38132 7.00168 17
375 2 9.8939 -2.94583 3.24885 10
376 2 8.46903 -2.13131 6.24195 11
377 2 8.31446 -1.26367 1.4774 19
378 2 8.41292 -6.93817 2.34222 13
379 2 8.14627 -5.02319 4.61862 14
380 2 10.3972 -4.27999 0.791115 13
381 1 4.1395 0.835096 -9.76451 15
382 1 0.678001 4.98383 -10.2829 12
383 1 1.61695 4.85596 -5.73878 24
384 1 3.00406 2.17342 -6.1779 22
385 1 3.22731 0.150962 -3.45701 21
386 1 1.43236 3.09444 -3.38077 21
387 1 -2.60813 5.74013 -9.11886 14
388 1 2.73404 7.02971 -8.15798 12
389 1 3.04982 6.25086 -3.129 22
390 1 -3.31553 8.41826 -7.20404 13
391 1 6.44332 2.58466 -9.01035 11
392 1 3.22303 3.80993 -8.48827 16
393 1 4.66824 5.07241 -6.24657 20
394 1 6.33556 2.15355 -5.97119 20
395 1 6.51462 0.316195 -3.12324 22
396 1 4.61014 3.24591 -3.47372 21
397 1 5.85592 8.12092 -6.4618 11
398 1 2.5193 8.05466 -5.55519 18
399 1 8.1345 5.11957 -5.86967 11
400 1 9.90531 0.564152 -3.79312 12
401 1 8.02007 2.97172 -3.97221 18
402 2 3.13944 0.246861 -5.95054 18
403 2 1.25886 2.92638 -6.66507 20
404 2 1.1818 6.45963 -9.14838 13
405 2 1.51207 3.14643 -9.37117 15
406 2 3.40483 0.0113895 -1.14581 23
407 2 1.35252 3.03052 -1.29756 24
408 2 1.74554 5.01471 -3.81513 22
409 2 2.87982 2.08246 -3.92584 22
410 2 3.21647 5.53568 -7.24061 19
411 2 -4.34816 5.25024 -8.7164 12
412 2 2.92967 6.00772 -1.03392 22
413 2 1.62416 9.04273 -0.534434 14
414 2 0.750478 8.10617 -6.12596 18
415 2 4.04212 8.08968 -6.63439 11
416 2 6.55236 0.0714875 -6.181 20
417 2 4.66917 3.16589 -6.82752 18
418 2 4.62276 2.75516 -9.56832 11
419 2 6.74263 -0.0330351 -1.16351 21
420 2 4.6148 3.17242 -1.6706 24
421 2 4.77898 5.22598 -4.20824 26
422 2 6.26818 2.01987 -3.96133 22
423 2 6.63778 6.35181 -6.43297 11
424 2 6.42718 5.98953 -1.2112 19
425 2 4.89229 8.46817 -1.26721 15
426 2 5.76937 8.02191 -4.36659 13
427 2 8.06679 3.13637 -6.07588 16
428 2 9.38401 -6.43087 -0.609623 11
429 2 7.98882 3.59251 -0.794702 16
430 2 7.70653 4.95931 -3.98378 15
431 2 9.36856 2.17139 -2.88054 16
432 2 7.84739 3.11849 2.93222 14
433 1 1.5389 4.81643 -0.515962 23
434 1 3.24477 1.9906 -0.961926 19
435 1 3.35981 -0.0470073 2.10381 22
436 1 1.21524 2.9743 2.11883 21
437 1 1.87834 4.92738 4.59685 22
438 1 3.05129 2.03859 4.47504 19
439 1 3.17884 -0.145815 6.82637 20
440 1 1.84842 3.16403 7.10582 21
441 1 2.37122 4.67269 10.0608 12
442 1 4.08376 2.34843 8.63481 16
443 1 1.70806 9.42261 -2.49127 15
444 1 3.09074 7.83104 -0.513166 21
445 1 2.89535 5.86771 2.05423 22
446 1 1.66387 8.72709 2.44527 16
447 1 2.81869 8.7564 5.46394 13
448 1 2.95575 6.08775 7.49867 19
449 1 0.887687 8.60795 8.37157 9
450 1 4.60771 5.11599 -0.669612 23
451 1 6.23531 2.46236 -0.914465 22
452 1 6.78393 -0.338689 1.92664 20
453 1 4.84213 2.85678 2.07258 22
454 1 4.83069 3.58787 5.84454 21
455 1 6.80618 1.63947 3.99423 17
456 1 5.28073 -0.702646 8.12056 18
457 1 5.50274 5.31609 8.64143 9
458 1 6.17718 6.27772 -3.63418 17
459 1 5.89862 5.90215 2.18333 17
460 1 6.31177 7.68296 -0.287377 13
461 1 4.6726 8.50149 2.45546 15
462 1 4.98642 6.44004 4.97837 17
463 1 7.9522 5.16602 -1.90096 14
464 1 10.2027 2.01784 -1.10765 12
465 1 10.9824 -1.62564 -0.570977 13
466 1 8.01213 2.89113 1.1557 15
467 1 7.97404 4.33044 4.63547 10
468 1 9.9075 0.117284 1.84529 15
469 1 6.99226 2.37882 7.39099 13
470 1 4.55304 8.67769 -3.13322 15
471 2 3.38768 -0.0290263 4.14917 20
472 2 1.56483 3.13456 4.20862 22
473 2 1.21628 4.94301 1.5091 23
474 2 3.05532 2.15961 1.45834 23
475 2 0.409785 0.488702 8.80006 17
476 2 2.04662 2.98958 9.06079 16
477 2 1.52392 5.21528 6.54131 21
478 2 3.42951 2.26284 6.54994 23
479 2 3.42767 5.64944 4.11641 22
480 2 1.2701 8.99213 4.2325 12
481 2 2.61348 8.3636 -3.63863 16
482 2 3.01083 7.75276 1.61558 20
483 2 3.67311 5.62002 9.26836 11
484 2 2.26649 7.8014 7.09142 14
485 2 6.64342 -0.32363 4.07911 17
486 2 4.97205 2.62025 4.07818 23
487 2 4.36628 4.74634 1.21465 22
488 2 6.35117 1.6008 0.911916 22
489 2 6.21968 -2.20481 8.83822 13
490 2 3.68599 0.299529 8.66802 15
491 2 4.63203 5.23566 6.82627 19
492 2 5.69323 3.18449 8.59627 13
493 2 4.17149 8.10717 4.34328 15
494 2 6.22265 7.73381 1.66947 13
495 2 6.56083 5.58087 4.07126 15
496 2 11.1797 -1.19602 1.34212 11
497 2 6.69381 0.250724 7.02286 17
498 2 9.43373 1.62017 0.813194 15
499 2 9.85985 -0.0918358 -1.22561 14
500 2 7.27731 2.58708 5.61329 13
