ITEM: TIMESTEP
87000
ITEM: NUMBER OF ATOMS
500
ITEM: BOX BOUNDS pp pp pp
-30.0 30.0
-30.0 30.0
-30.0 30.0
ITEM: ATOMS id type x y z Coordination
1 1 -24.8331 -12.9854 -6.84118 24
2 1 -14.4297 -14.9064 5.59169 19
3 1 -22.4397 -8.56192 7.44247 20
4 1 -14.6834 -15.7709 2.22319 22
5 1 -26.7102 -10.9301 -1.57781 22
6 1 -22.2191 -12.5914 -8.99948 18
7 1 -17.6182 -12.0404 5.97708 21
8 1 -11.5032 -20.0517 -3.59597 6
9 1 -29.3988 -14.2979 -3.88782 18
10 1 -21.1278 -10.2294 -10.496 14
11 1 -16.1605 -22.6716 -2.00425 15
12 1 -14.2927 -9.31414 0.961359 15
13 1 -21.6549 -7.67126 -5.10048 19
14 1 -16.7803 -9.60314 4.18843 20
15 1 -16.8871 -9.13185 7.82371 15
16 1 -26.6808 -17.7794 -0.477554 18
17 1 -29.886 -16.7161 -1.72166 14
18 1 -11.8415 -16.9006 -2.36646 13
19 1 -18.2792 -11.2969 9.91658 9
20 1 -26.1808 -18.9643 2.51627 18
21 1 -25.5598 -22.1672 -5.73135 11
22 1 -22.4127 -18.7266 -5.06211 21
23 1 -13.0894 -14.4915 -4.28186 15
24 1 -11.8914 -20.7148 5.1836 11
25 1 -23.3497 -4.89063 4.39337 16
26 1 -19.6678 -6.34211 0.201486 21
27 1 -21.5142 -18.4247 -8.54885 17
28 1 -24.416 -6.15769 6.74141 12
29 1 -11.1833 -20.3793 1.37834 11
30 1 -22.8208 -8.85974 4.44763 19
31 1 -16.8563 -7.54127 -7.46531 14
32 1 -15.8616 -6.51377 0.470258 18
33 1 -23.7329 -6.22627 -3.70693 17
34 1 -23.3088 -10.4834 -5.41642 23
35 1 -22.8679 -7.08191 -1.21174 22
36 1 -21.1725 -3.74079 -3.4648 13
37 1 -27.9417 -8.47306 -1.83796 16
38 1 -18.1639 -6.00536 6.20839 15
39 1 -26.6104 -9.91598 -6.83526 25
40 1 -26.3371 -19.8799 5.80976 12
41 1 -28.9482 -17.709 -7.23844 12
42 1 -19.211 -22.0855 3.1479 15
43 1 -27.0514 -11.8445 1.40723 23
44 1 -27.8648 -17.3793 -3.98355 19
45 1 -22.0272 -23.3295 2.05983 11
46 1 -14.0475 -7.62653 -7.08646 13
47 1 -26.2344 -17.9637 -9.24177 11
48 1 -21.1795 -7.52077 -11.463 9
49 1 -21.1836 -20.5803 -3.0997 21
50 1 -25.4143 -4.49496 1.8978 11
51 1 -29.4083 -10.1313 0.34849 13
52 1 -19.421 -2.89666 5.16896 10
53 1 -16.7561 -14.182 8.33199 13
54 1 -16.686 -22.7984 -5.27315 14
55 1 -15.0286 -12.3356 -7.31161 14
56 1 -24.0523 -21.0194 3.5912 17
57 1 -22.5219 -22.9809 -4.14991 16
58 1 -15.2804 -12.4003 3.68357 22
59 1 -17.6323 -20.2441 5.31295 18
60 1 -14.622 -3.80669 -1.95948 12
61 1 -26.7562 -22.2129 2.96603 10
62 1 -24.7416 -23.0948 0.744794 13
63 1 -23.9554 -19.8771 -0.904824 17
64 1 -24.0993 -17.0317 7.22376 12
65 1 -30.0238 -12.3844 2.60173 13
66 1 -14.8833 -21.6537 5.8256 11
67 1 -23.7516 -17.8585 4.08921 21
68 1 -19.8834 -8.46621 5.46134 24
69 1 29.2934 -15.7059 1.80303 12
70 1 -24.6379 -7.27235 2.53661 22
71 1 -26.9493 -5.85385 4.45689 12
72 1 -21.2805 -5.79701 6.70094 15
73 1 -25.6538 -18.4641 -5.74099 19
74 1 -25.8378 -6.60434 -0.890321 19
75 1 -27.9537 -12.8993 -7.9984 19
76 1 -12.1744 -13.5344 2.11777 17
77 1 -23.0458 -15.0817 9.69142 9
78 1 -25.1261 -14.4678 -9.97236 15
79 1 -29.5122 -11.5824 -2.29702 15
80 1 -21.7282 -23.1997 -0.937872 15
81 1 -26.6251 -11.5708 7.78197 13
82 1 -25.2551 -9.37525 -0.0469325 23
83 1 -19.4517 -21.65 -5.4583 21
84 1 -23.682 -4.02406 -1.07927 14
85 1 -28.3568 -7.4671 -7.86706 9
86 1 -29.8364 -11.5733 -6.0909 16
87 1 -20.4307 -21.5419 -8.48856 12
88 1 -16.5449 -19.7027 8.43058 11
89 1 -28.9927 -10.1486 -8.9202 10
90 1 -24.0725 -12.1964 9.65402 13
91 1 -26.8152 -11.8908 4.67473 19
92 1 -15.2093 -18.0301 -8.99607 6
93 1 -20.635 -17.1288 5.11893 20
94 1 -20.6888 -16.5346 8.14533 15
95 1 -16.3258 -17.9088 -5.88493 17
96 1 -11.6638 -8.67876 -2.08215 13
97 1 -25.9638 -8.9141 6.1871 16
98 1 -17.6722 -11.3569 -6.11363 21
99 1 -13.628 -19.4856 8.32991 9
100 1 -26.5671 -20.2295 -3.16913 14
101 1 -25.2767 -15.2343 4.20905 19
102 1 -12.2138 -12.8485 5.47433 11
103 1 -11.2717 -11.6942 -3.93505 10
104 1 -19.493 -5.95803 -8.91571 12
105 1 -26.133 -8.67004 -9.87709 14
106 1 -19.8947 -3.61722 -1.09509 14
107 1 -18.1383 -8.56378 -10.441 12
108 1 -17.976 -20.3832 1.23222 18
109 1 -13.7885 -22.5948 0.160375 10
110 1 -19.3077 -23.7026 -3.35269 14
111 1 -25.7887 -11.7207 -9.58934 17
112 1 -11.7204 -16.5149 0.893128 17
113 1 -22.7364 -10.177 -2.03418 21
114 1 -16.8788 -20.6762 -7.72244 12
115 1 -27.8797 -14.9699 2.14132 19
116 1 -19.9658 -24.3863 -6.24856 10
117 1 -18.7204 -16.5956 -9.16277 17
118 1 -17.3731 -8.17658 -1.47393 17
119 1 -18.3901 -20.8954 -2.02769 19
120 1 -24.9557 -17.2337 -2.73872 22
121 1 -20.3614 -13.4508 9.55245 14
122 1 -21.425 -10.171 10.1298 13
123 1 -18.4872 -11.4047 -9.45326 16
124 1 30.0195 -15.0645 -6.71592 15
125 1 -17.7551 -4.86037 -1.94246 17
126 1 -14.7073 -8.50267 -3.79426 19
127 1 -23.757 -10.0603 -8.13271 20
128 1 -28.4987 -9.07328 3.74993 13
129 1 -17.9625 -16.8927 6.70114 20
130 1 -14.0365 -11.1547 -1.11262 20
131 1 -27.6532 -15.3073 -9.40216 12
132 1 -12.2485 -17.9063 6.43385 11
133 1 -20.9156 -20.2635 0.456618 21
134 1 -14.548 -11.0094 6.05194 14
135 1 -18.8718 -22.9835 0.181786 15
136 1 -15.1034 -16.7001 8.50719 11
137 1 -11.7998 -8.38375 1.07763 12
138 1 -13.438 -9.11459 4.12572 13
139 1 -19.3114 -18.7965 -6.87989 19
140 1 -14.6404 -6.7339 2.95203 17
141 1 -22.616 -7.1818 -8.73603 17
142 1 -19.6397 -14.3116 6.29451 20
143 1 -24.3659 -22.514 -2.52176 14
144 1 -14.3214 -3.61521 1.23997 12
145 1 -23.5311 -10.9801 6.32514 21
146 1 -25.5068 -9.84068 3.19887 20
147 1 -12.998 -6.00416 -4.02198 13
148 1 -19.3709 -7.87671 8.98949 13
149 1 -21.9002 -15.5082 -10.0194 15
150 1 -16.1931 -4.52928 3.78759 17
151 1 -13.5735 -22.9285 -3.37058 10
152 1 -18.8841 -2.94524 1.8464 14
153 1 -12.7887 -22.6268 3.21108 10
154 1 -20.0806 -5.11395 3.74134 23
155 1 -16.4037 -14.6716 -9.19353 12
156 1 -15.751 -17.7348 4.28816 16
157 1 -20.5509 -10.242 -7.33397 20
158 1 -24.9737 -8.96323 9.06058 13
159 1 -11.1372 -10.7948 3.51636 10
160 1 -19.138 -5.77629 -5.85484 15
161 1 -12.2837 -8.60975 -4.90224 13
162 1 -20.1811 -10.8699 7.65557 21
163 1 -22.7987 -19.27 6.29962 15
164 1 -24.466 -7.57627 -6.49402 18
165 1 -16.7215 -2.09113 -0.356781 11
166 1 -28.0468 -17.1604 4.39654 14
167 1 -12.6053 -13.78 -1.16267 17
168 1 -29.0011 -17.7949 1.34638 13
169 1 -15.0207 -6.31835 6.29357 8
170 1 -12.8666 -18.4937 2.93156 16
171 1 -17.9102 -6.90691 3.02082 21
172 1 28.6119 -17.1279 -4.72076 7
173 1 -20.19 -6.72375 -2.79787 21
174 1 -18.0644 -8.22503 -4.45778 18
175 1 -27.2975 -11.7807 -4.52499 22
176 1 -19.2363 -13.7619 -10.9464 10
177 1 -22.3417 -21.5929 -6.68432 17
178 1 -20.7605 -19.4 3.87157 23
179 1 -13.0133 -19.3919 -0.468185 17
180 1 -29.2678 -13.8655 -0.312955 18
181 1 -24.2166 -9.51313 -12.3147 7
182 1 -26.9862 -15.1034 -6.18371 23
183 1 -11.4667 -15.9405 4.18227 13
184 1 -24.2192 -16.1953 -7.78375 19
185 1 -27.6413 -7.5857 1.4954 17
186 1 -25.506 -13.6711 6.86912 13
187 1 -12.837 -5.89974 -0.826578 13
188 1 -11.2428 -11.0231 0.167704 13
189 1 -20.0047 -19.7299 7.52224 13
190 1 -15.3584 -9.84912 -9.11268 13
191 1 -16.0513 -5.83255 -4.66188 15
192 1 -16.6097 -1.44046 3.14583 9
193 1 -22.0555 -4.75365 -6.41248 12
194 1 -12.564 -10.5792 -7.22167 12
195 1 -28.7383 -13.7791 5.38994 11
196 1 -14.8807 -20.6396 -4.47487 14
197 1 -21.9824 -4.2271 1.15295 16
198 1 -21.5904 -7.06695 2.28262 20
199 1 -21.0446 -21.8948 5.52754 13
200 1 -16.0674 -22.0513 2.6528 12
201 1 -26.9773 -20.6627 0.129124 15
202 1 -29.0372 -9.16412 -4.99164 15
203 2 -29.7382 -14.2544 2.74264 15
204 2 -12.6077 -10.7943 5.12133 11
205 2 -28.305 -14.8085 -7.59172 19
206 2 -29.504 -13.4342 -2.16093 16
207 2 -21.4159 -20.3158 6.62557 12
208 2 -21.1535 -8.57112 8.91759 14
209 2 -14.4449 -13.5817 2.29767 20
210 2 -20.1684 -3.19154 3.4122 12
211 2 -12.5106 -21.231 0.152618 12
212 2 -25.1805 -14.9655 -6.59449 23
213 2 -19.5822 -18.2147 -8.58841 16
214 2 -25.2683 -5.42486 3.79424 13
215 2 -12.2196 -17.6753 4.37156 16
216 2 -14.8929 -2.96332 -0.336974 12
217 2 -19.7777 -4.56915 5.80551 14
218 2 -17.348 -1.65809 1.36157 11
219 2 -18.2897 -10.4257 -4.42253 18
220 2 -18.1316 -13.4615 -9.3612 16
221 2 -27.83 -7.93754 -9.71903 9
222 2 -18.188 -20.4749 7.85755 11
223 2 -29.6507 -12.0888 0.776327 15
224 2 -14.2927 -23.2786 -1.47717 9
225 2 -26.5821 -22.2756 1.07313 11
226 2 -16.4494 -15.9424 -5.24167 18
227 2 -16.4411 -6.05869 2.47048 18
228 2 -15.314 -14.9735 7.32568 13
229 2 -25.5294 -17.3135 3.4526 22
230 2 -23.7178 -22.4401 2.16965 13
231 2 -27.5197 -18.6437 5.17963 9
232 2 -25.0718 -20.7961 -2.29508 20
233 2 -22.384 -21.0119 -4.834 21
234 2 -23.9929 -3.88554 0.841507 13
235 2 -15.8017 -11.1432 -5.85349 18
236 2 -12.7584 -11.4218 -5.44614 14
237 2 -17.9597 -7.11981 -9.0308 11
238 2 -26.9728 -9.84834 -4.71293 23
239 2 -12.8241 -9.82228 -0.292827 16
240 2 -19.9691 -4.50396 0.730967 17
241 2 -23.0606 -4.90205 6.3354 11
242 2 -21.8725 -3.86109 -1.49702 15
243 2 -19.5797 -4.75866 -2.69035 15
244 2 -24.3547 -9.78118 5.04679 20
245 2 -17.5371 -18.2265 5.09867 22
246 2 -16.1857 -16.5619 -9.40072 9
247 2 -15.8373 -21.1875 -6.12775 12
248 2 -21.339 -18.2904 -6.56356 22
249 2 -27.7167 -19.4135 1.62594 15
250 2 -11.8455 -18.4861 1.15466 15
251 2 -11.6374 -7.28401 -0.622477 12
252 2 -23.1984 -14.1323 -9.87653 14
253 2 -19.9778 -15.5277 -10.2323 15
254 2 -24.786 -18.6335 -7.82151 16
255 2 -15.2384 -18.612 -4.32702 15
256 2 -17.1083 -10.1257 -9.86246 13
257 2 -22.6512 -19.9595 4.28852 19
258 2 -22.5388 -16.6833 -8.72043 18
259 2 -18.767 -10.8251 -7.48757 18
260 2 -18.8295 -20.8626 -7.15242 17
261 2 -21.8163 -10.3365 -8.80849 18
262 2 -20.9752 -9.89597 4.18434 23
263 2 -23.4158 -17.1129 2.26267 19
264 2 -21.6193 -6.6982 0.300337 22
265 2 -29.3747 -16.8161 2.81976 13
266 2 29.6982 -16.1553 -3.39391 12
267 2 -16.2404 -21.3474 4.40385 14
268 2 -11.9146 -13.3685 -3.1277 14
269 2 -20.2776 -12.1499 -10.2739 15
270 2 -15.2805 -2.83677 2.84138 12
271 2 -16.5478 -5.34059 5.4891 15
272 2 -22.4579 -13.3446 9.69978 12
273 2 -25.7524 -11.9159 3.13255 17
274 2 -28.0047 -17.2788 -8.90393 10
275 2 -11.2654 -9.89571 -3.73806 12
276 2 29.8305 -15.6095 -0.0762062 13
277 2 -21.9838 -6.88993 -3.23489 20
278 2 -19.8439 -8.99609 -11.0314 12
279 2 -28.3848 -10.3368 -1.31083 22
280 2 -15.3855 -22.7628 -3.98328 10
281 2 -18.6588 -23.3295 -5.23579 12
282 2 -28.0452 -7.17374 3.60786 12
283 2 -19.5166 -20.0701 2.59054 22
284 2 -21.137 -22.8016 -2.72969 18
285 2 -19.4916 -7.2744 6.96092 15
286 2 -25.4934 -6.2199 1.15392 18
287 2 -24.8522 -18.8552 6.46302 13
288 2 -21.3757 -24.4112 -4.83219 10
289 2 -24.5578 -15.2886 6.51669 15
290 2 -24.4737 -8.11332 -8.7478 16
291 2 -13.208 -16.3972 -3.68392 15
292 2 -17.7729 -14.6453 6.45329 19
293 2 -26.5985 -12.457 -6.25352 23
294 2 -14.2217 -5.46044 0.438457 17
295 2 -14.4725 -7.29574 4.79646 13
296 2 -14.7787 -18.2462 -1.01113 19
297 2 -25.8199 -20.6491 3.79076 14
298 2 -21.9844 -7.30922 5.44948 20
299 2 -20.1794 -11.6876 9.56144 14
300 2 -22.5381 -8.90021 -11.634 10
301 2 -15.3684 -15.9382 4.02005 23
302 2 -18.688 -9.58298 8.8787 15
303 2 -12.3834 -19.8664 6.82388 9
304 2 29.5783 -16.7536 -6.17029 12
305 2 -25.0412 -7.27007 -4.47915 19
306 2 -28.8802 -9.19035 -7.10092 15
307 2 -22.6893 -16.5667 8.66496 11
308 2 -17.9285 -2.87597 -1.51234 12
309 2 -25.5935 -16.1931 -9.46253 13
310 2 -11.368 -10.0708 1.7933 12
311 2 -25.8619 -8.76129 1.65008 20
312 2 -11.689 -20.697 3.13311 10
313 2 -27.5571 -15.1497 4.73015 14
314 2 -26.1975 -20.4581 -5.1849 14
315 2 -22.3397 -4.47933 -4.63442 15
316 2 -26.1348 -6.505 6.01085 12
317 2 -20.0031 -17.6047 6.93102 18
318 2 -28.924 -9.19712 1.96482 14
319 2 -19.5391 -7.22177 -4.74687 18
320 2 -24.0918 -7.78757 7.92243 15
321 2 -29.6089 -13.3553 -5.57817 15
322 2 -16.0582 -4.75382 -3.02366 16
323 2 -26.0228 -9.73468 7.73061 14
324 2 -19.926 -14.8252 8.31183 14
325 2 -27.3311 -17.5536 -6.06084 16
326 2 -20.9656 -6.84112 -9.82941 12
327 2 -20.5544 -22.7434 -7.1239 11
328 2 -24.7494 -9.59422 -6.46199 24
329 2 -17.0349 -12.6177 8.957 13
330 2 -13.2011 -7.85095 -3.34009 15
331 2 -19.2949 -21.1745 4.94786 13
332 2 -14.9931 -10.2904 -3.10468 21
333 2 -16.6998 -10.3304 6.32445 16
334 2 -19.6385 -12.2687 6.13818 22
335 2 -26.7909 -18.2786 -2.68046 18
336 2 -21.869 -20.3642 -1.15751 18
337 2 -18.3693 -8.51444 4.23081 17
338 2 -28.9271 -12.1445 4.12922 13
339 2 -28.7833 -17.8817 -0.64437 14
340 2 -24.6371 -22.7517 -4.37176 12
341 2 -15.0039 -10.0711 4.33319 17
342 2 -21.558 -9.43566 -5.77952 20
343 2 -28.537 -7.89409 -3.5321 13
344 2 -14.4111 -6.67403 -5.34179 13
345 2 -16.1267 -18.9394 -7.80084 13
346 2 -12.503 -15.0648 5.49536 13
347 2 -16.0566 -7.54943 7.31673 12
348 2 -27.5536 -7.24163 -6.20018 12
349 2 -27.197 -10.8587 -8.70764 18
350 2 -21.9414 -20.5205 -8.28371 15
351 2 -24.2495 -5.71908 -1.91508 17
352 2 -20.3179 -5.5006 -7.27947 11
353 2 -29.5423 -11.6772 -7.91632 13
354 2 -26.8348 -9.83277 4.79875 17
355 2 -22.6127 -6.85177 -6.78751 18
356 2 -15.3708 -14.2524 -7.60324 12
357 2 -29.375 -10.8328 -4.11237 17
358 2 -24.1187 -11.8718 -8.35673 19
359 2 -15.1446 -20.3579 7.39369 14
360 2 -23.6448 -14.3863 3.40017 17
361 2 -24.0472 -17.7608 -4.48924 23
362 2 -27.1267 -16.2822 0.93157 22
363 2 -13.4605 -17.6877 7.91707 11
364 2 -26.0529 -8.93157 -1.76477 20
365 2 -23.5873 -10.4197 9.75543 13
366 2 -20.7594 -23.0824 0.667623 16
367 2 -11.2655 -12.8336 3.6499 12
368 2 -19.3298 -20.6262 -3.60348 20
369 2 -22.1506 -5.16544 3.04586 19
370 2 -26.6836 -13.5477 -9.57812 15
371 2 -27.3156 -13.5753 0.648753 19
372 2 -16.4817 -17.8471 7.91897 14
373 2 -15.3654 -8.2015 -8.25195 12
374 2 -14.2556 -12.9282 5.28868 16
375 2 -27.6387 -6.9446 -0.453923 13
376 2 -11.8797 -12.9066 0.391381 16
377 2 -16.269 -20.7244 -2.01843 19
378 2 -25.3497 -19.4487 0.525225 22
379 2 -13.0268 -21.1144 -3.78886 12
380 2 -13.162 -22.3148 5.33778 9
381 2 -12.0915 -15.5124 2.33509 15
382 2 -14.7869 -18.0689 2.57669 15
383 2 -21.9595 -10.4878 7.1802 21
384 2 -12.5054 -8.64083 -6.88785 12
385 2 -27.7288 -15.3851 -4.29975 23
386 2 -25.936 -15.867 -1.63032 19
387 2 -18.2089 -22.9233 -1.8266 17
388 2 -17.3018 -6.72698 -5.97104 14
389 2 -12.5718 -15.7954 -0.81612 18
390 2 -13.2335 -4.81889 -2.47567 10
391 2 -19.0197 -20.8903 -0.267234 20
392 2 -11.8968 -19.0792 -1.9085 11
393 2 -17.5844 -22.2193 1.63014 14
394 2 -24.315 -21.5613 -6.98054 12
395 2 -17.4521 -6.38901 -0.651192 18
396 2 -17.5736 -3.22118 4.1094 13
397 2 -21.3434 -22.4856 3.69852 12
398 2 -27.4693 -12.7819 6.68218 10
399 2 -23.0586 -8.42221 2.4343 21
400 2 -15.1376 -11.1068 0.705347 19
401 2 -14.0827 -11.0981 -8.23455 11
402 2 -25.4141 -10.1687 -11.0062 10
403 2 -23.6593 -23.2286 -0.736628 13
404 2 -14.3116 -22.6183 2.13093 11
405 1 -26.4758 -14.3849 -2.9311 21
406 1 -21.1587 -16.3311 -6.88928 21
407 1 -23.9408 -15.6765 -4.98288 21
408 1 -23.928 -20.3396 -8.3718 14
409 1 -21.1942 -16.0053 -3.6301 23
410 1 -23.6137 -14.8137 -1.71311 19
411 1 -21.6289 -17.9496 -1.65014 20
412 2 -21.962 -15.3903 -5.38432 20
413 2 -24.2955 -14.3854 -3.50673 21
414 2 -21.2729 -18.0901 -3.67192 22
415 2 -23.8193 -17.9317 -1.04271 19
416 2 -22.0252 -16.0554 -1.8228 22
417 1 -26.0044 -14.6816 0.0316818 17
418 1 -24.4432 -17.7191 0.883974 20
419 1 -20.7368 -15.102 -0.558096 20
420 1 -22.9102 -15.0884 1.54733 21
421 1 -21.1559 -17.4175 1.64486 23
422 1 -19.9426 -14.6071 2.99382 22
423 1 -22.477 -14.6164 4.93256 20
424 2 -24.1987 -14.2739 0.307339 23
425 2 -20.5275 -18.3863 0.139961 23
426 2 -22.5536 -17.1381 5.70885 19
427 2 -20.9435 -15.2662 1.50202 20
428 2 -22.8973 -12.4127 5.14199 20
429 2 -20.3168 -17.5148 3.25578 21
430 2 -20.4679 -15.2752 4.82173 21
431 1 -27.1429 -6.73594 -4.41678 14
432 1 -21.3692 -13.4212 -5.49033 21
433 1 -24.1802 -12.2629 -3.53941 21
434 1 -20.274 -10.6413 -4.23853 21
435 1 -25.4754 -9.04312 -3.73163 24
436 1 -21.2827 -12.4015 -2.26414 21
437 2 -26.5576 -12.2675 -3.00403 22
438 2 -20.9466 -13.0644 -7.58271 22
439 2 -23.1626 -12.2969 -5.2843 22
440 2 -17.8941 -10.3098 -0.730836 20
441 2 -23.7395 -10.1113 -3.55246 23
442 2 -20.262 -12.6008 -4.12145 23
443 2 -23.3276 -12.1141 -1.84712 21
444 2 -20.843 -10.5539 -2.08734 20
445 1 -24.0424 -12.2539 0.0605213 21
446 1 -19.7574 -9.64849 -0.686046 21
447 1 -22.352 -9.70169 0.970658 22
448 1 -21.0659 -12.0166 1.28864 23
449 1 -23.8736 -12.2586 3.08014 22
450 1 -19.534 -9.5552 2.83695 19
451 1 -20.8551 -11.7602 4.64914 22
452 2 -25.7177 -11.1365 0.155559 20
453 2 -23.2721 -8.87447 -0.613411 23
454 2 -20.1324 -13.187 -0.851672 22
455 2 -22.8747 -11.5808 1.50383 21
456 2 -20.5488 -10.1664 1.02266 22
457 2 -19.9794 -12.741 3.06562 24
458 2 -24.986 -12.7297 8.16393 13
459 2 -19.3195 -7.91594 -1.48273 19
460 1 -18.5046 -15.9184 -5.44667 23
461 1 -19.1688 -18.5133 -3.67004 19
462 1 -15.0735 -16.7063 -3.81417 18
463 1 -17.8288 -15.7822 -2.303 22
464 1 -16.0043 -18.8452 -2.31957 18
465 2 -19.3867 -15.8483 -7.23409 23
466 2 -18.4317 -17.8611 -5.38798 22
467 2 -19.173 -15.3512 -3.59989 22
468 2 -18.3796 -17.6774 -2.14608 24
469 2 -16.0466 -15.8449 -2.47285 24
470 1 -18.7789 -17.8517 -0.198276 21
471 1 -14.8605 -16.2122 -1.1055 19
472 1 -17.7738 -15.2739 1.01331 23
473 1 -15.7753 -18.087 0.778897 19
474 1 -18.472 -17.4724 2.8962 24
475 1 -17.1568 -15.0321 4.66459 23
476 2 -19.0142 -15.8858 -0.595939 22
477 2 -17.5868 -18.4482 1.34165 20
478 2 -15.8258 -15.9394 0.48832 20
479 2 -18.059 -15.4196 2.93396 22
480 1 -19.0622 -13.7895 -7.53124 22
481 1 -14.4248 -11.649 -4.53645 20
482 1 -16.0312 -14.3336 -5.91967 18
483 1 -18.5503 -13.4335 -3.64994 23
484 1 -17.0733 -10.7315 -2.97731 22
485 1 -15.5636 -13.6533 -2.69917 22
486 2 -18.1666 -13.4075 -5.80063 20
487 2 -19.7553 -6.89563 2.60205 18
488 2 -14.8435 -13.5362 -4.61517 20
489 2 -17.2764 -12.6675 -2.40971 20
490 2 -16.7181 -7.90209 -3.22589 18
491 1 -18.419 -12.3842 -0.536331 22
492 1 -17.0248 -10.1938 1.079 20
493 1 -15.3733 -13.1849 0.501463 18
494 1 -17.9822 -12.6914 2.59835 21
495 2 -16.1162 -8.49354 0.497616 19
496 2 -14.5114 -13.0356 -1.20036 20
497 2 -17.3803 -13.2385 0.707302 23
498 2 -13.3568 -8.12863 2.41409 17
499 2 -17.8447 -10.8246 2.71513 21
500 2 -17.1342 -12.9082 4.33686 21
