ITEM: TIMESTEP
62000
ITEM: NUMBER OF ATOMS
2000
ITEM: BOX BOUNDS pp pp pp
-30.0 30.0
-30.0 30.0
-30.0 30.0
ITEM: ATOMS id type x y z Coordination
1 1 -18.3207 -1.51614 -0.694221 10
2 1 -17.777 -1.43091 1.99531 15
3 1 -19.342 -4.08633 2.13298 7
4 2 -15.6322 -0.902201 -3.38027 17
5 2 -17.9381 0.169209 0.597681 10
6 2 -18.9348 -2.63104 0.830054 8
7 1 -4.1972 -14.8925 -9.92491 11
8 1 -6.55291 -13.8732 -12.7341 7
9 1 -3.29525 -16.7421 3.3918 10
10 2 -5.73223 -14.8149 -11.1693 8
11 2 -0.758937 -14.9734 -3.46734 15
12 2 -1.85039 -16.1894 2.54288 12
13 2 -3.33886 1.56668 -18.1466 11
14 1 -3.82823 3.61859 -18.2272 13
15 1 -4.4733 0.811344 -16.8293 17
16 2 -1.97977 3.76989 -18.3728 11
17 1 -12.2437 -12.0111 -2.77755 10
18 1 -12.3109 -7.37215 -10.7098 11
19 1 -13.4875 -9.66551 -4.94999 14
20 1 -12.5881 -6.58969 -6.45794 21
21 1 -15.3327 -7.58054 -5.04928 11
22 1 -12.0634 -12.3012 -5.99272 13
23 1 -12.5321 -6.61547 -3.40724 24
24 1 -15.3139 -6.60964 -1.14579 15
25 1 -13.1905 -9.19486 -1.71638 16
26 1 -12.8469 -2.00398 -13.676 9
27 1 -13.5424 -4.61722 -11.7325 11
28 1 -12.6058 -1.57163 -10.3466 18
29 1 -15.2823 -1.66304 -8.39176 14
30 1 -13.4847 -4.41219 -8.56982 17
31 1 -16.0806 -4.65581 -6.2972 14
32 1 -12.5346 -1.11231 -6.68143 22
33 1 -15.4501 -1.75671 -5.12147 16
34 1 -13.5281 -4.04749 -4.92272 20
35 1 -16.0908 -5.11629 -3.19885 15
36 1 -12.4672 -1.24933 -3.71552 20
37 1 -15.2513 -1.99824 -1.7268 18
38 1 -13.3268 -4.02607 -1.63451 21
39 1 -6.47934 -12.4461 -9.98285 16
40 1 -9.13912 -12.8701 -8.01213 11
41 1 -6.49544 -12.6052 -6.69219 21
42 1 -9.21599 -12.6457 -4.72528 18
43 1 -7.46084 -15.6575 -5.01506 11
44 1 -6.55684 -12.5506 -3.46403 22
45 1 -9.50684 -12.9975 -2.02002 15
46 1 -7.11642 -15.3955 -2.22061 11
47 1 -6.85353 -7.31003 -13.5024 16
48 1 -9.56901 -7.63984 -11.9367 15
49 1 -7.64137 -10.3675 -12.294 13
50 1 -10.2014 -9.7482 -9.73153 13
51 1 -7.10119 -6.73055 -9.77578 20
52 1 -9.73422 -6.8938 -8.00626 20
53 1 -7.58336 -9.69216 -8.16524 22
54 1 -10.523 -9.31362 -6.62373 18
55 1 -6.85978 -6.65634 -6.55647 22
56 1 -9.51846 -7.02264 -4.98558 23
57 1 -7.54573 -10.0245 -4.81591 23
58 1 -10.3268 -9.84149 -3.49833 25
59 1 -6.68766 -7.17366 -3.30373 24
60 1 -9.40131 -7.00829 -1.72219 21
61 1 -7.79644 -9.8784 -1.91872 21
62 1 -6.78182 -1.89528 -16.7797 12
63 1 -9.48668 -2.20012 -15.0852 15
64 1 -7.44982 -4.59965 -15.1886 16
65 1 -10.772 -4.86248 -13.1111 16
66 1 -6.91265 -1.90525 -13.3757 22
67 1 -9.33563 -1.93392 -11.2815 22
68 1 -7.55082 -4.73308 -12.0588 20
69 1 -10.6029 -4.4771 -9.87625 22
70 1 -6.7408 -1.28136 -9.97269 20
71 1 -9.76109 -1.15474 -8.40513 22
72 1 -8.06073 -3.73608 -8.42716 20
73 1 -10.7401 -3.92986 -6.62877 23
74 1 -6.70581 -1.04551 -6.80988 22
75 1 -9.43656 -1.6826 -5.02841 19
76 1 -7.55892 -4.32745 -4.87896 23
77 1 -10.2828 -4.3139 -3.5391 20
78 1 -6.81668 -1.65722 -3.31393 23
79 1 -9.57462 -1.74184 -1.63576 19
80 1 -7.35135 -4.36306 -1.63311 22
81 1 -0.785563 -11.8516 -13.5652 10
82 1 -3.87323 -11.7785 -11.6363 17
83 1 -0.475482 -12.0469 -10.2502 16
84 1 -3.54908 -12.0107 -8.67264 23
85 1 -1.3935 -14.7701 -8.3385 12
86 1 -4.66611 -14.5341 -6.75194 15
87 1 -0.468245 -12.3455 -6.99362 20
88 1 -3.55608 -12.2819 -4.99318 20
89 1 -1.68257 -14.8745 -5.02428 15
90 1 -4.55411 -15.487 -3.53206 15
91 1 -0.318497 -12.1194 -3.86902 19
92 1 -3.7142 -12.2672 -1.63424 19
93 1 -1.58782 -14.7873 -1.71793 16
94 1 -1.9668 -6.06048 -16.992 13
95 1 -4.62099 -6.87453 -15.2007 16
96 1 -1.826 -9.16234 -15.3828 12
97 1 -4.65203 -9.1405 -13.4022 15
98 1 -1.46084 -6.63067 -13.4226 20
99 1 -4.07864 -6.8157 -11.4123 23
100 1 -1.94207 -9.17645 -11.8208 20
101 1 -4.89007 -9.45815 -9.97575 20
102 1 -1.46341 -6.36479 -10.0372 22
103 1 -4.27325 -6.70457 -8.33005 21
104 1 -1.91478 -9.29061 -8.35597 21
105 1 -4.85536 -9.95559 -6.71844 22
106 1 -0.844889 -6.81766 -6.57744 19
107 1 -3.83249 -7.16164 -4.85864 22
108 1 -1.83866 -9.67324 -5.02057 20
109 1 -4.73053 -9.87066 -3.26713 20
110 1 -0.943344 -6.82019 -3.28784 21
111 1 -3.83632 -6.52528 -1.63774 21
112 1 -1.8657 -9.26402 -1.45836 22
113 1 -5.01869 -4.4973 -16.8472 13
114 1 -1.22196 -1.20179 -16.9304 14
115 1 -4.21645 -1.49898 -15.0448 20
116 1 -2.19106 -3.52669 -14.8771 20
117 1 -4.92123 -4.35054 -13.1434 21
118 1 -1.38931 -0.899801 -13.4609 21
119 1 -3.95329 -0.746661 -11.5883 20
120 1 -2.1728 -3.82607 -11.6149 22
121 1 -4.91292 -3.80204 -9.82104 21
122 1 -1.07192 -1.10806 -10.2197 21
123 1 -3.66725 -0.820826 -8.33532 22
124 1 -2.11331 -3.70236 -8.06228 21
125 1 -4.83212 -4.17364 -6.66032 20
126 1 -0.744427 -1.6239 -6.51106 21
127 1 -3.97371 -1.63666 -5.01972 21
128 1 -1.77535 -4.0964 -4.8094 21
129 1 -4.78114 -4.53402 -3.17107 23
130 1 -1.00167 -0.867997 -3.46423 21
131 1 -3.7785 -1.04647 -1.50961 21
132 1 -2.13591 -4.03799 -1.74184 21
133 2 -13.0274 -5.59118 -10.1407 14
134 2 -14.6304 -5.93238 -5.90714 13
135 2 -12.9949 -12.5827 -4.40656 9
136 2 -13.2045 -7.73437 -4.87476 18
137 2 -15.9604 -6.9401 -3.15924 12
138 2 -12.4481 -9.94564 -3.29494 16
139 2 -12.2945 -10.4571 -6.48496 15
140 2 -13.4198 -7.17258 -1.65998 20
141 2 -12.5262 -4.0779 -13.063 12
142 2 -12.3151 -3.30974 -9.63841 19
143 2 -15.2844 -3.93077 -7.67911 14
144 2 -13.2176 -0.986487 -8.66197 17
145 2 -15.6868 -0.894039 -6.80039 16
146 2 -12.4427 -4.64222 -6.7024 22
147 2 -15.5767 -3.69673 -4.56119 16
148 2 -13.5455 -2.06796 -5.21658 21
149 2 -17.699 -5.00048 1.76531 11
150 2 -12.4882 -4.53597 -3.47384 21
151 2 -15.9477 -4.56592 -1.31308 15
152 2 -13.3218 -2.23282 -1.44925 20
153 2 -7.26949 -12.8015 -8.33157 14
154 2 -10.2326 -13.3663 -6.27329 12
155 2 -6.46263 -14.7791 -6.17912 14
156 2 -7.60508 -12.0525 -5.26921 23
157 2 -10.5058 -11.7949 -3.42493 18
158 2 -6.39171 -16.1722 -3.72591 10
159 2 -8.63756 -14.6181 -3.34676 13
160 2 -7.7216 -11.8812 -2.01332 20
161 2 -4.87098 -6.71612 -13.0991 19
162 2 -11.3027 -6.52807 -12.0052 12
163 2 -6.51391 -9.16798 -13.4772 15
164 2 -9.15532 -9.55513 -11.3147 15
165 2 -7.75074 -6.70599 -11.7651 18
166 2 -11.0171 -8.08593 -9.4411 16
167 2 -6.49049 -10.4511 -9.84814 21
168 2 -9.36349 -10.806 -8.14577 20
169 2 -8.2173 -7.79196 -8.3376 21
170 2 -10.851 -7.25852 -6.2853 17
171 2 -6.63872 -9.08304 -6.55755 22
172 2 -9.39847 -9.50663 -5.22956 21
173 2 -7.79751 -6.33074 -4.73785 22
174 2 -10.4241 -6.39572 -3.49945 20
175 2 -6.68137 -9.08302 -3.39881 25
176 2 -9.5599 -9.26337 -1.53209 22
177 2 -7.52393 -6.65464 -1.60892 21
178 2 -6.74839 -3.68494 -16.786 13
179 2 -9.52971 -4.23819 -14.6927 13
180 2 -7.77848 -0.967 -14.9767 17
181 2 -10.9286 -1.23404 -14.0467 15
182 2 -6.81127 -3.86823 -13.4278 22
183 2 -9.84457 -3.90742 -11.5872 22
184 2 -7.76732 -1.14086 -11.7036 22
185 2 -10.601 -0.857324 -10.2643 21
186 2 -6.82795 -4.58113 -10.0163 23
187 2 -9.72882 -4.8199 -8.0754 23
188 2 -7.83451 -1.74097 -8.1943 22
189 2 -10.5565 -1.75307 -6.67387 20
190 2 -7.03711 -4.63888 -7.06518 18
191 2 -9.39101 -3.64124 -5.09879 20
192 2 -7.55283 -0.766339 -4.97463 20
193 2 -10.6239 -1.30173 -3.60101 21
194 2 -6.38203 -3.62915 -3.2131 21
195 2 -9.40086 -3.76421 -1.94854 22
196 2 -7.81345 -1.04371 -1.57414 21
197 2 -1.85927 -12.0209 -11.8049 13
198 2 -4.46384 -12.8757 -10.238 17
199 2 -3.35252 -15.0876 -8.15243 12
200 2 -1.42303 -12.793 -8.55734 17
201 2 -4.49258 -12.4698 -7.02835 18
202 2 -0.464344 -14.3895 -6.47887 17
203 2 -3.62098 -14.3325 -5.18382 16
204 2 -1.78827 -11.7244 -5.59481 20
205 2 -4.75045 -12.0647 -3.46743 20
206 2 -7.25687 -12.2953 -12.3312 9
207 2 -3.7297 -14.6291 -1.74446 17
208 2 -1.79157 -12.4148 -1.80668 20
209 2 -3.83783 -6.03847 -16.8868 11
210 2 -3.4741 -8.6165 -14.7871 16
211 2 -1.0294 -7.19082 -15.6786 15
212 2 -6.49732 -6.37423 -15.3831 16
213 2 -1.04812 -10.0794 -13.6434 17
214 2 -3.85091 -9.79053 -11.8082 18
215 2 -1.98879 -7.20322 -11.7007 20
216 2 -5.05086 -7.31497 -9.86375 20
217 2 -0.505874 -10.1404 -9.58232 19
218 2 -3.68846 -10.0038 -8.17886 21
219 2 -2.01824 -7.36827 -8.38086 21
220 2 -4.8218 -6.36863 -6.63857 19
221 2 -0.866946 -8.78086 -6.50982 20
222 2 -3.82711 -9.31199 -4.92499 21
223 2 -1.79519 -6.54102 -4.84798 19
224 2 -4.90418 -6.3455 -3.51239 21
225 2 -0.541405 -10.2357 -3.48325 22
226 2 -3.667 -9.75422 -1.74165 19
227 2 -1.96202 -7.32884 -1.71156 22
228 2 -5.21634 -0.919298 -16.5253 14
229 2 -0.83684 -4.56024 -15.924 16
230 2 -4.18458 -3.67286 -14.9617 21
231 2 -2.08844 -1.51809 -15.1672 19
232 2 -4.88796 -1.45321 -13.2354 20
233 2 -1.38159 -4.48726 -13.3383 21
234 2 -3.89079 -4.78187 -11.2262 20
235 2 -2.28408 -1.7636 -11.804 23
236 2 -4.73869 -1.56418 -9.88213 21
237 2 -1.1129 -4.3584 -9.97167 20
238 2 -4.0629 -4.46203 -8.38678 21
239 2 -1.8996 -1.65015 -8.04306 21
240 2 -4.83798 -1.04232 -6.58884 18
241 2 -0.814448 -3.51054 -6.52083 21
242 2 -3.67538 -3.80038 -5.0332 20
243 2 -1.97995 -0.972304 -5.02184 22
244 2 -4.85655 -1.392 -3.0852 21
245 2 -0.866958 -4.28939 -3.17795 21
246 2 -3.84823 -4.51387 -1.58606 21
247 2 -2.0671 -1.86785 -1.91833 21
248 1 -10.8049 -12.0292 5.48985 13
249 1 -9.04898 -12.5317 8.11504 13
250 1 -12.3613 -6.35967 0.122136 20
251 1 -16.6364 -6.90882 1.87093 12
252 1 -13.4643 -8.66198 1.64023 17
253 1 -12.2449 -7.14195 3.99967 21
254 1 -14.8928 -7.15744 5.09498 14
255 1 -13.3037 -9.94013 5.03726 13
256 1 -12.8213 -6.57947 6.90989 17
257 1 -12.4272 -10.9828 8.23004 11
258 1 -13.0765 -7.63356 10.1521 12
259 1 -16.2883 -4.25773 0.468492 18
260 1 -12.2693 -1.08514 0.0115146 21
261 1 -15.0192 -1.81476 1.61359 21
262 1 -13.1562 -4.94698 2.04412 23
263 1 -16.2061 -4.75903 3.48096 17
264 1 -12.0745 -1.63893 3.22539 22
265 1 -15.6448 -1.51889 4.91075 17
266 1 -13.528 -3.76949 4.83879 19
267 1 -16.1918 -3.89525 6.57082 11
268 1 -12.4611 -1.71947 6.87237 20
269 1 -15.2021 -1.56957 8.26655 15
270 1 -13.7479 -4.46036 8.77027 17
271 1 -12.6089 -1.79865 10.3044 18
272 1 -12.669 -5.01095 11.4471 12
273 1 -12.931 -2.25131 13.5377 11
274 1 -6.63895 -11.8021 -0.00310006 22
275 1 -9.66513 -11.9355 1.66809 12
276 1 -7.8344 -14.5542 1.27782 12
277 1 -6.89574 -11.8545 3.35511 20
278 1 -8.08468 -14.085 5.47709 13
279 1 -6.7423 -16.4183 4.36399 10
280 1 -5.30423 -14.1075 7.23855 15
281 1 -6.59715 -11.5018 6.84726 21
282 1 -6.79301 -11.3116 10.3659 12
283 1 -10.6038 -8.96711 0.0583302 19
284 1 -6.65393 -7.05223 0.0362291 22
285 1 -9.71561 -6.46125 1.71142 21
286 1 -7.93318 -9.41114 1.49498 21
287 1 -10.8593 -9.78082 3.41222 18
288 1 -6.80113 -6.62656 3.03824 19
289 1 -9.38097 -6.38198 5.09234 22
290 1 -7.78148 -8.81799 4.8816 20
291 1 -10.8012 -8.78575 6.67157 19
292 1 -6.53378 -6.63278 6.65718 22
293 1 -9.83814 -6.82355 8.54251 22
294 1 -7.4493 -8.99767 8.407 22
295 1 -10.4248 -10.0048 9.91994 16
296 1 -6.82521 -6.34985 9.95178 25
297 1 -9.78686 -6.50628 11.8283 15
298 1 -7.6621 -8.84722 11.7988 14
299 1 -6.66357 -6.58445 13.3111 16
300 1 -10.5351 -3.97068 -0.268512 20
301 1 -6.77594 -1.43545 0.0852321 22
302 1 -9.40444 -1.2942 1.39987 20
303 1 -7.73308 -3.90079 1.68368 20
304 1 -10.5968 -4.08787 3.18584 22
305 1 -6.45626 -1.39854 3.62425 22
306 1 -9.66455 -1.47638 4.93281 21
307 1 -7.1908 -3.74704 5.01769 22
308 1 -10.4665 -3.81447 6.48453 21
309 1 -6.79322 -1.15292 6.97711 20
310 1 -9.53518 -1.24591 8.0823 19
311 1 -7.94511 -4.28933 8.29363 21
312 1 -10.2675 -4.03472 9.89791 21
313 1 -6.76689 -1.20326 10.1934 23
314 1 -9.9732 -1.15884 11.2085 21
315 1 -7.96809 -3.63736 11.6077 22
316 1 -10.5291 -4.68883 13.6195 14
317 1 -6.86497 -1.52442 13.4231 20
318 1 -9.34702 -2.01939 14.0576 20
319 1 -7.56706 -4.11327 15.5312 14
320 1 -4.99803 -14.6928 -0.116976 16
321 1 -0.944294 -11.9106 -0.15887 23
322 1 -3.84832 -12.0096 1.61227 19
323 1 -2.14114 -14.265 1.59565 20
324 1 -5.25967 -14.1964 3.03653 20
325 1 -1.10294 -12.0927 3.56396 18
326 1 -3.92557 -11.8825 5.03521 19
327 1 -1.13339 -15.7853 5.36025 13
328 1 -4.29273 -16.1446 6.15977 11
329 1 -1.10951 -12.287 6.85655 22
330 1 -3.79302 -11.5962 8.43856 22
331 1 -2.14005 -14.422 8.32076 13
332 1 -0.871978 -11.7529 10.1685 18
333 1 -3.91376 -11.523 11.9147 13
334 1 -0.786138 -13.2029 12.8057 7
335 1 -4.67211 -9.22798 -0.171684 22
336 1 -0.949307 -6.9696 0.120559 21
337 1 -3.88887 -6.43094 1.61369 22
338 1 -1.80568 -9.47929 1.61684 23
339 1 -4.78143 -9.3918 3.08735 24
340 1 -0.896776 -6.62358 3.33008 20
341 1 -4.12647 -6.35292 4.96663 22
342 1 -2.01642 -9.21547 5.09327 23
343 1 -4.82269 -9.08472 6.52753 23
344 1 -1.08188 -6.88946 6.71056 20
345 1 -3.74055 -6.16287 8.5193 24
346 1 -1.98542 -8.94682 8.4573 20
347 1 -4.57903 -8.82763 9.82974 23
348 1 -1.00654 -6.25941 10.3978 20
349 1 -3.96334 -6.2007 11.7597 22
350 1 -1.89908 -9.14277 11.8527 19
351 1 -4.60219 -9.10362 13.3396 16
352 1 -1.06612 -6.34982 13.2286 20
353 1 -5.00455 -6.70165 15.4009 15
354 1 -1.63296 -8.88729 15.2642 12
355 1 -4.75815 -3.82126 0.0503137 24
356 1 -0.941061 -1.29338 -0.217896 21
357 1 -3.68136 -1.28026 1.74924 20
358 1 -1.81823 -3.97914 1.61224 21
359 1 -4.58491 -4.0338 3.32931 22
360 1 -1.04037 -1.54543 3.29821 19
361 1 -3.66592 -1.55746 5.49918 20
362 1 -1.81451 -4.10955 5.01639 20
363 1 -4.98957 -3.71359 6.84802 23
364 1 -0.887771 -1.29631 6.80734 20
365 1 -3.90654 -1.15684 8.72088 22
366 1 -2.0714 -4.00475 8.48415 22
367 1 -5.22739 -3.73165 10.2925 24
368 1 -0.995862 -1.40617 10.03 21
369 1 -3.81503 -0.902847 11.7482 24
370 1 -2.23429 -3.50815 11.8088 24
371 1 -4.74074 -4.01961 13.5231 21
372 1 -1.09563 -0.873998 13.3432 22
373 1 -3.90452 -1.41962 15.4017 17
374 1 -1.35534 -3.46949 14.9636 21
375 2 -15.1927 -7.49095 0.673579 16
376 2 -12.9232 -9.30568 3.36 16
377 2 -15.9038 -7.2326 3.54429 13
378 2 -12.81 -6.78028 2.12401 22
379 2 -13.648 -6.49621 8.65934 14
380 2 -13.6169 -8.18739 5.8328 12
381 2 -13.5045 -5.78956 5.0959 21
382 2 -12.6058 -9.50099 9.5154 12
383 2 -11.7327 -10.5879 6.41253 15
384 2 -10.6553 -11.6861 9.11504 11
385 2 -16.3519 -1.88421 -0.037022 15
386 2 -12.3867 -4.47393 -0.0620448 21
387 2 -15.0003 -4.27835 1.9848 22
388 2 -13.3585 -0.966306 1.61792 19
389 2 -16.3676 -1.24559 3.18223 17
390 2 -12.6823 -3.5271 3.14929 21
391 2 -15.5465 -3.41622 4.85115 16
392 2 -13.2569 -1.06854 5.0799 23
393 2 -16.4897 -1.31067 6.90689 11
394 2 -12.4975 -3.59919 6.62272 23
395 2 -15.2756 -3.50109 8.35407 13
396 2 -13.5142 -0.939813 8.48812 17
397 2 -12.5502 -3.85381 10.0483 19
398 2 -13.1464 -0.855359 11.9149 13
399 2 -9.53071 -12.881 0.0062307 14
400 2 -7.0191 -15.0376 -0.257714 15
401 2 -7.01182 -12.5739 5.25268 20
402 2 -7.3877 -12.55 1.70675 20
403 2 -12.7432 -9.28248 0.13101 14
404 2 -7.13404 -15.149 2.82159 13
405 2 -10.356 -11.6492 3.57243 15
406 2 -9.41048 -12.8367 6.31174 10
407 2 -6.62996 -15.246 6.12491 12
408 2 -7.64703 -11.5889 8.62668 15
409 2 -10.4665 -6.95595 -0.138406 22
410 2 -6.81133 -9.63448 -0.312872 22
411 2 -10.0568 -9.82285 1.63867 17
412 2 -7.97135 -7.19256 1.50239 21
413 2 -10.4761 -6.10402 3.60278 19
414 2 -6.7339 -9.42299 3.20717 21
415 2 -9.58996 -8.94116 5.04159 19
416 2 -7.21008 -6.86647 5.00713 20
417 2 -10.7492 -6.68436 6.60978 17
418 2 -6.80899 -9.59858 6.48298 20
419 2 -9.4049 -8.80793 8.14508 20
420 2 -7.62352 -6.7982 8.265 20
421 2 -11.5786 -6.66496 11.1682 15
422 2 -6.62257 -9.44093 10.0516 22
423 2 -9.77072 -8.74887 11.1353 14
424 2 -8.01465 -6.74489 11.6851 18
425 2 -12.2768 -3.8977 13.0136 13
426 2 -6.37896 -8.44081 13.2029 15
427 2 -6.97624 -6.0825 15.2364 12
428 2 -10.5653 -1.8485 -0.0414827 21
429 2 -6.68527 -3.72641 0.0908976 23
430 2 -9.74251 -4.34359 1.48093 22
431 2 -7.38939 -1.48821 1.90754 21
432 2 -10.3293 -0.956494 3.0938 20
433 2 -6.50021 -4.50592 3.13739 21
434 2 -9.37093 -3.61028 4.82933 21
435 2 -7.49304 -1.73103 5.29472 21
436 2 -10.544 -1.0193 6.41783 21
437 2 -6.45019 -4.69277 6.6998 23
438 2 -9.88161 -4.66713 8.1232 19
439 2 -7.8228 -2.06917 8.26439 25
440 2 -10.6512 -1.83279 9.70255 21
441 2 -7.10127 -4.35426 9.99539 21
442 2 -9.84308 -4.23897 11.8884 18
443 2 -7.8833 -1.31499 11.7943 19
444 2 -11.0915 -1.30778 13.709 16
445 2 -6.98865 -3.55624 13.2919 22
446 2 -9.38943 -3.73517 14.9124 13
447 2 -7.91177 -1.37415 15.2043 16
448 2 -4.78547 -12.183 0.00914176 22
449 2 -1.05079 -15.2258 0.0185891 15
450 2 -3.99667 -14.3766 1.50764 18
451 2 -1.74431 -12.3603 1.60864 20
452 2 -4.89931 -12.1601 3.39721 21
453 2 -2.59025 -17.0923 5.28259 8
454 2 -4.88643 -15.7825 3.9327 14
455 2 -1.9105 -12.248 5.19381 18
456 2 -4.6965 -12.2372 6.97762 18
457 2 -0.912827 -14.5021 6.95484 12
458 2 -3.73041 -15.135 7.54873 12
459 2 -1.96012 -12.4871 8.5189 16
460 2 -4.68629 -11.9564 10.1282 15
461 2 -2.16513 -12.2814 11.7611 12
462 2 -4.72517 -7.20667 -0.00559274 22
463 2 -0.611607 -9.4961 0.0873313 19
464 2 -3.68856 -9.89823 1.3743 21
465 2 -2.05592 -7.25556 1.84609 23
466 2 -4.85292 -7.25637 3.15755 23
467 2 -0.985667 -9.81716 3.46937 22
468 2 -3.84802 -9.82058 4.77561 22
469 2 -2.10181 -7.18023 4.7585 20
470 2 -4.58367 -7.08186 7.08572 23
471 2 -0.903232 -8.78866 6.82855 20
472 2 -3.82432 -9.63833 8.17632 21
473 2 -1.8979 -6.90337 8.78195 21
474 2 -4.98796 -6.76015 10.1659 23
475 2 -1.19407 -9.79257 10.2877 21
476 2 -3.85968 -9.52111 11.5875 20
477 2 -2.30217 -7.02888 11.8501 23
478 2 -4.47422 -6.09443 13.7469 20
479 2 -0.876404 -9.25187 13.5544 17
480 2 -3.49283 -9.08411 14.858 13
481 2 -1.08775 -7.10962 15.3151 19
482 2 -4.66799 -1.8953 -0.00335741 23
483 2 -0.849541 -4.43938 -0.0402551 23
484 2 -3.69949 -4.24808 1.66791 20
485 2 -1.9192 -1.96471 1.31756 24
486 2 -4.58185 -1.77852 3.51227 21
487 2 -0.981848 -4.03831 3.42461 20
488 2 -4.01499 -4.43664 5.10542 21
489 2 -1.66027 -1.98429 5.21156 21
490 2 -4.92724 -1.71595 6.97418 22
491 2 -1.10048 -4.37281 6.8612 19
492 2 -4.11469 -4.23505 8.69423 22
493 2 -2.21501 -1.87962 8.5538 22
494 2 -4.92905 -1.33467 10.205 21
495 2 -1.14612 -4.33532 10.1657 22
496 2 -4.09829 -4.16261 11.7235 23
497 2 -1.8375 -1.49143 11.7046 20
498 2 -4.6889 -1.30586 13.3858 21
499 2 -1.02624 -4.47637 13.168 24
500 2 -3.58083 -3.48983 15.0673 18
501 2 -1.89704 -1.32576 15.1335 19
502 1 -13.3904 1.14377 -12.111 14
503 1 -12.5362 3.98588 -10.417 18
504 1 -15.083 3.72646 -8.26476 15
505 1 -13.3997 0.93354 -8.92675 19
506 1 -16.0671 1.05752 -6.70466 13
507 1 -12.5659 4.44779 -6.83862 20
508 1 -15.4443 3.90022 -5.18518 17
509 1 -13.2904 1.50888 -5.16668 22
510 1 -15.8546 1.14161 -3.37098 15
511 1 -12.6939 4.69075 -3.6782 21
512 1 -15.1797 3.88894 -1.69812 17
513 1 -13.4514 1.74096 -1.66234 21
514 1 -13.5116 6.44626 -8.45695 17
515 1 -16.2436 6.6138 -6.82941 11
516 1 -12.3867 9.71495 -9.63826 12
517 1 -13.5062 7.36148 -5.20874 22
518 1 -16.326 6.7311 -3.42927 11
519 1 -12.645 9.62666 -3.51893 14
520 1 -14.6327 9.22486 -7.14332 11
521 1 -13.7678 7.45449 -1.67451 20
522 1 -6.49195 4.04368 -16.7442 14
523 1 -9.70213 4.04411 -15.2528 11
524 1 -7.74802 1.07896 -15.3865 17
525 1 -10.484 0.7154 -13.7773 17
526 1 -6.915 3.90768 -13.3996 21
527 1 -9.67992 3.43819 -12.4342 19
528 1 -7.54912 0.712438 -11.9495 22
529 1 -10.6711 1.06772 -10.5388 21
530 1 -6.87577 4.83215 -10.3966 22
531 1 -9.80882 4.47218 -8.77714 21
532 1 -7.92562 1.71583 -8.46497 20
533 1 -10.9597 1.8485 -6.83401 20
534 1 -6.96746 4.18489 -6.90278 20
535 1 -9.76708 4.16461 -5.36317 22
536 1 -8.11978 1.36881 -4.98943 20
537 1 -10.702 1.15315 -3.13819 20
538 1 -6.87674 3.70004 -3.57022 23
539 1 -9.67963 3.88349 -1.75506 21
540 1 -7.80156 0.894247 -1.73627 20
541 1 -11.2133 5.81265 -12.1967 14
542 1 -14.3975 4.28039 -13.2976 6
543 1 -6.8509 9.34943 -13.4983 11
544 1 -9.65127 9.41104 -11.787 13
545 1 -8.34956 6.71322 -12.036 18
546 1 -10.474 7.11812 -9.79065 17
547 1 -6.56414 10.77 -10.6026 16
548 1 -9.60324 9.61332 -8.3859 18
549 1 -7.51725 7.30264 -8.40628 18
550 1 -10.6064 6.9722 -6.7323 18
551 1 -6.87255 9.47937 -6.50326 18
552 1 -10.0389 9.64382 -5.26815 19
553 1 -7.73109 6.47827 -4.93748 24
554 1 -10.8065 6.86936 -3.21508 21
555 1 -7.09374 9.29401 -3.45293 22
556 1 -9.96286 9.68942 -1.82789 20
557 1 -7.94288 6.23321 -1.79612 21
558 1 -7.49434 12.1577 -8.30884 14
559 1 -12.2801 11.1138 -6.51207 10
560 1 -6.62153 14.6386 -6.03072 13
561 1 -8.0667 12.0676 -4.88546 21
562 1 -10.8878 12.5073 -3.56667 12
563 1 -6.30387 14.5127 -3.08114 18
564 1 -8.91313 15.3586 -3.245 11
565 1 -7.71996 12.3338 -1.66948 20
566 1 -1.40072 1.69417 -18.4389 10
567 1 -1.15643 4.7747 -16.6758 18
568 1 -3.74866 3.83907 -14.732 23
569 1 -1.86055 1.69081 -15.0792 21
570 1 -4.97955 1.56675 -13.1424 19
571 1 -1.05243 4.65973 -13.3847 23
572 1 -3.98912 4.83946 -11.7057 22
573 1 -2.25691 1.9401 -11.733 24
574 1 -5.1789 1.68748 -9.75792 20
575 1 -1.32305 4.9525 -10.1124 20
576 1 -4.25609 4.51425 -8.50647 18
577 1 -2.06956 1.89335 -8.39799 20
578 1 -4.87561 0.982279 -6.43873 20
579 1 -1.18031 4.28798 -7.00744 19
580 1 -3.82226 4.13081 -4.90956 22
581 1 -1.9193 1.85202 -5.02704 21
582 1 -4.81088 1.38969 -3.19809 22
583 1 -0.933309 4.45448 -3.44243 20
584 1 -3.87324 3.93792 -1.90443 22
585 1 -1.62808 1.76485 -1.58858 23
586 1 -3.95781 6.47747 -16.6274 12
587 1 -4.05869 8.83111 -14.587 15
588 1 -1.16386 7.69435 -15.2414 17
589 1 -5.738 6.22268 -13.7734 19
590 1 -0.949054 10.0102 -13.436 19
591 1 -3.6984 9.94421 -11.5554 18
592 1 -2.02407 7.46433 -12.2702 21
593 1 -4.9184 7.57957 -10.3389 21
594 1 -0.907099 10.0372 -10.1275 21
595 1 -4.28631 9.47469 -8.22097 20
596 1 -2.18576 7.21229 -8.51576 20
597 1 -4.86313 6.77595 -6.61408 21
598 1 -0.959191 9.91959 -6.84953 21
599 1 -3.79108 9.28007 -4.9337 21
600 1 -2.06046 6.73953 -5.00015 20
601 1 -5.02803 6.56822 -3.14724 23
602 1 -1.06529 9.43988 -3.36894 20
603 1 -3.94959 8.91789 -1.54581 19
604 1 -1.88132 6.65396 -1.77312 21
605 1 -1.92832 13.1864 -11.3603 12
606 1 -4.34333 12.0953 -9.90795 13
607 1 -3.74086 15.0928 -7.92813 9
608 1 -1.60243 13.2272 -7.8417 18
609 1 -4.55666 12.4473 -6.27231 21
610 1 -0.870275 15.5148 -5.80016 13
611 1 -3.74547 14.6304 -4.55484 17
612 1 -2.02505 11.9337 -4.76661 22
613 1 -5.06255 11.852 -3.00862 20
614 1 -0.942733 14.2951 -2.58423 19
615 1 -3.74437 14.8561 -1.15247 15
616 1 -2.3771 11.3489 -1.4891 21
617 2 -13.0137 -0.703302 -12.3685 14
618 2 -14.2888 2.49939 -13.0909 6
619 2 -12.4931 1.89442 -10.3297 19
620 2 -15.1418 1.77693 -8.28104 15
621 2 -13.2986 4.45922 -8.71978 17
622 2 -15.7547 4.83826 -6.88921 16
623 2 -12.681 0.878034 -6.89729 22
624 2 -15.5895 1.94439 -5.09479 16
625 2 -13.1996 3.47978 -5.24802 22
626 2 -15.8361 4.7865 -3.54426 18
627 2 -12.6879 0.827543 -3.22206 21
628 2 -15.4298 1.80217 -1.47065 16
629 2 -13.2606 3.69825 -1.94921 22
630 2 -13.2766 5.10036 -12.0287 13
631 2 -15.2286 7.63553 -8.0662 13
632 2 -12.323 6.38331 -6.6935 22
633 2 -15.4166 7.11876 -5.18147 15
634 2 -13.7317 9.63091 -5.43468 14
635 2 -12.917 6.76005 -3.33999 20
636 2 -15.5897 7.20411 -1.60572 12
637 2 -13.1893 9.37027 -1.71984 15
638 2 -13.213 10.1224 -8.02451 12
639 2 -6.49638 2.23289 -17.2684 11
640 2 -9.45235 2.13785 -14.6858 14
641 2 -7.60991 4.12921 -15.3322 15
642 2 -10.4772 4.82358 -13.7613 13
643 2 -7.02943 1.93271 -13.5859 20
644 2 -9.5766 1.32299 -12.1382 20
645 2 -8.06717 4.48181 -11.9162 21
646 2 -10.5277 4.40144 -10.7566 18
647 2 -6.95328 0.732088 -9.65499 21
648 2 -9.72635 1.01687 -8.30399 20
649 2 -8.07812 3.82693 -8.27093 20
650 2 -10.7018 3.81635 -7.20449 19
651 2 -6.74347 1.65481 -6.6112 20
652 2 -10.1406 1.9366 -5.02718 22
653 2 -7.64869 4.5138 -5.22458 21
654 2 -10.7632 4.56214 -3.23619 20
655 2 -6.75062 1.70911 -3.39047 22
656 2 -9.48421 1.73112 -1.69845 21
657 2 -8.00232 4.33051 -1.83458 21
658 2 -7.33154 7.29147 -13.4543 17
659 2 -10.1219 7.47298 -11.9209 15
660 2 -7.71382 9.92975 -11.7989 14
661 2 -10.3206 9.69189 -10.0068 12
662 2 -6.90296 6.93897 -10.3181 20
663 2 -9.34737 6.73767 -8.27951 22
664 2 -7.65936 10.1275 -7.97401 18
665 2 -12.4009 7.80024 -9.58103 17
666 2 -6.64983 7.59034 -6.29951 19
667 2 -9.6949 6.48266 -5.05349 20
668 2 -8.07319 9.88554 -5.02514 19
669 2 -10.6281 8.86399 -3.55483 21
670 2 -6.91029 7.26998 -3.27503 23
671 2 -9.64671 7.49835 -1.51678 21
672 2 -7.77341 10.2051 -1.88528 19
673 2 -6.2773 12.5867 -9.78105 10
674 2 -10.6285 10.2404 -6.94747 16
675 2 -7.1658 12.7287 -6.4684 14
676 2 -9.64728 13.7238 -3.95334 12
677 2 -7.42818 15.477 -4.44734 11
678 2 -6.80417 12.6859 -3.25661 22
679 2 -10.0526 11.8041 -1.94889 18
680 2 -7.7127 14.549 -1.64152 15
681 2 -4.7507 4.62317 -16.8363 16
682 2 -0.838003 0.819391 -16.8328 16
683 2 -3.83018 1.95201 -14.7765 22
684 2 -1.69988 3.58312 -14.9832 20
685 2 -5.00257 4.35558 -13.2188 21
686 2 -0.907835 1.48493 -13.3329 22
687 2 -4.23764 1.28735 -11.3638 21
688 2 -2.14672 3.99155 -11.7084 22
689 2 -5.21572 3.97191 -10.1141 22
690 2 -1.58335 1.20315 -9.94622 20
691 2 -4.00555 1.34485 -8.1839 21
692 2 -2.28748 4.25363 -8.59809 22
693 2 -5.00959 4.65451 -6.57769 22
694 2 -0.989191 1.96964 -6.69894 20
695 2 -4.02785 1.86331 -4.99689 20
696 2 -1.88858 4.73064 -5.17426 22
697 2 -4.80652 4.46257 -3.28041 25
698 2 -0.910994 1.84411 -3.43902 20
699 2 -3.5074 1.29417 -1.68269 21
700 2 -1.91987 3.82273 -1.78071 21
701 2 -2.03522 6.35002 -16.2812 16
702 2 -4.76953 7.21405 -14.968 15
703 2 -2.23854 9.3936 -14.8205 13
704 2 -4.90253 9.7423 -13.1362 16
705 2 -1.16662 6.43117 -13.6586 22
706 2 -3.85105 6.93598 -11.7752 22
707 2 -1.74756 9.43278 -11.9496 21
708 2 -4.87757 9.89719 -10.0104 19
709 2 -1.43559 6.87856 -10.6117 21
710 2 -4.39148 6.8473 -8.4736 21
711 2 -1.7876 9.14488 -8.36727 21
712 2 -4.85709 9.76009 -6.46276 20
713 2 -0.930882 6.38933 -7.21051 22
714 2 -3.85619 7.07964 -4.70477 21
715 2 -1.82571 9.32683 -5.15937 20
716 2 -4.7422 9.59874 -3.08387 21
717 2 -0.922945 6.79891 -3.44089 18
718 2 -3.8183 6.95956 -1.73687 19
719 2 -1.82643 9.0529 -1.51487 21
720 2 -0.777167 12.8562 -12.6225 10
721 2 -3.55848 12.2724 -11.5724 13
722 2 -0.65812 12.1397 -9.75588 16
723 2 -3.55005 12.5682 -8.20969 19
724 2 -1.94718 14.988 -7.23728 11
725 2 -4.82025 14.4335 -6.41823 14
726 2 -1.03186 11.8864 -6.55139 18
727 2 -3.77177 12.2453 -4.3581 19
728 2 -1.7568 14.5127 -4.28732 17
729 2 -4.48504 14.8416 -2.79593 17
730 2 -0.905457 11.7647 -2.73904 20
731 2 -4.16319 12.0067 -1.24719 22
732 2 -1.94236 15.0561 -1.20696 16
733 1 -16.1319 0.718427 0.0436902 19
734 1 -12.6744 4.5303 -0.0382677 22
735 1 -15.3926 3.74182 1.47747 16
736 1 -13.4961 1.23431 1.70284 19
737 1 -16.738 1.949 3.13934 12
738 1 -12.1789 3.72336 3.17003 22
739 1 -15.2524 3.23668 5.23039 20
740 1 -12.9371 0.948503 4.80847 22
741 1 -16.5774 0.509439 6.32295 13
742 1 -12.3675 3.58211 6.69284 23
743 1 -15.4019 3.48466 8.41548 13
744 1 -13.4957 1.06184 8.13047 20
745 1 -12.9442 3.84836 10.2392 18
746 1 -12.8684 1.14646 11.6647 16
747 1 -16.2523 6.37634 0.0892773 11
748 1 -12.9776 9.67279 0.150201 12
749 1 -15.0137 8.54985 5.14306 13
750 1 -13.6695 7.02971 1.72194 19
751 1 -16.491 5.7345 3.33526 15
752 1 -12.4701 9.16154 3.44105 16
753 1 -13.2231 6.10526 5.15884 23
754 1 -16.3959 5.9557 7.06048 11
755 1 -12.2631 8.96601 6.52896 16
756 1 -13.1915 5.95327 8.35967 17
757 1 -10.7241 1.77943 0.00538483 22
758 1 -6.60907 3.96194 -0.0497226 22
759 1 -9.43094 4.41969 1.42514 22
760 1 -7.38351 1.55086 1.59826 22
761 1 -10.2705 1.03562 3.27135 20
762 1 -6.67055 4.13465 3.32204 23
763 1 -9.48371 3.68506 4.80313 20
764 1 -7.38543 1.79094 5.05561 21
765 1 -10.3725 1.14534 6.66926 20
766 1 -6.49972 3.94864 6.89987 22
767 1 -9.46963 4.38113 8.40028 22
768 1 -7.92278 1.51291 8.4088 19
769 1 -10.4607 1.96748 10.2722 19
770 1 -6.71023 4.20687 10.2827 21
771 1 -9.72543 4.54601 11.7896 18
772 1 -8.00562 0.82836 11.8847 19
773 1 -10.9046 0.938871 13.4545 15
774 1 -6.86792 5.13839 13.5072 16
775 1 -9.87997 3.86977 14.8037 13
776 1 -7.85625 0.948693 15.2025 16
777 1 -10.5991 6.89001 -0.0175716 23
778 1 -6.86354 10.0202 -0.201336 22
779 1 -9.70694 9.80669 1.67703 21
780 1 -7.73038 7.0023 1.43327 23
781 1 -10.3706 6.59871 3.26762 21
782 1 -6.81539 9.75463 3.0182 22
783 1 -9.38403 9.46298 4.8789 23
784 1 -7.43765 7.08051 4.94855 21
785 1 -10.3707 6.23079 6.55308 22
786 1 -6.72546 9.71022 6.4799 23
787 1 -9.58299 9.78327 8.15556 15
788 1 -7.334 7.22715 8.13522 21
789 1 -10.6542 6.45506 9.79275 19
790 1 -6.76668 9.90487 9.79809 18
791 1 -13.2629 8.22671 11.0002 6
792 1 -7.86364 7.45372 11.2179 18
793 1 -12.9582 3.82152 13.5396 11
794 1 -6.93901 9.09195 13.3604 10
795 1 -11.0534 6.5466 12.8244 13
796 1 -10.5652 12.303 -0.202163 13
797 1 -6.81944 15.0405 0.0956139 13
798 1 -10.8314 12.0699 3.16215 13
799 1 -7.88349 12.4074 1.68258 20
800 1 -11.0497 11.9897 6.61137 11
801 1 -6.61331 15.3045 3.53034 13
802 1 -7.99438 12.76 5.055 20
803 1 -7.60766 12.2997 7.99086 18
804 1 -6.24815 14.9949 6.9736 14
805 1 -6.93737 14.3731 10.1026 7
806 1 -4.73404 1.32102 -0.0204979 20
807 1 -1.19213 4.24604 0.016566 20
808 1 -3.77545 4.03695 1.67481 22
809 1 -1.74958 1.60755 1.59906 22
810 1 -4.47323 1.42015 3.50389 21
811 1 -0.829463 4.01791 3.4353 19
812 1 -3.6322 4.49703 4.80758 25
813 1 -1.95443 1.4246 5.12883 21
814 1 -4.88555 1.42595 6.96832 23
815 1 -0.999997 4.22496 6.7167 23
816 1 -3.58358 4.32294 8.47052 23
817 1 -1.91419 1.31983 8.49862 19
818 1 -4.9244 1.70133 10.2229 21
819 1 -0.927756 4.273 10.2567 23
820 1 -4.08632 3.62289 11.6909 21
821 1 -2.17878 1.61101 11.6286 21
822 1 -4.91214 1.17596 13.7235 19
823 1 -1.14795 4.24601 13.2722 22
824 1 -4.04473 3.83709 14.7421 19
825 1 -1.81445 1.74495 15.193 19
826 1 -4.83949 6.62893 -0.0339443 22
827 1 -1.11701 9.60573 0.195587 22
828 1 -3.96333 9.7341 1.60808 23
829 1 -1.91363 6.95896 2.06805 21
830 1 -4.77957 6.87197 3.4132 21
831 1 -0.928869 9.78183 3.21004 24
832 1 -3.63222 9.76212 4.41199 22
833 1 -1.69816 7.07252 5.30606 20
834 1 -4.69414 6.97992 6.57611 21
835 1 -0.939804 9.98687 6.7363 21
836 1 -3.56747 9.45889 8.47957 20
837 1 -1.84331 7.13151 8.38326 22
838 1 -4.7347 6.49244 10.0006 21
839 1 -0.905749 9.78742 10.0845 23
840 1 -3.78951 9.6735 11.851 18
841 1 -1.97315 6.9983 11.7122 20
842 1 -4.81366 6.99826 13.209 22
843 1 -1.16069 10.6288 13.7486 12
844 1 -4.1823 9.55754 15.0047 10
845 1 -1.343 7.34013 14.8114 19
846 1 -5.12992 12.5744 0.310751 23
847 1 -0.655193 15.5289 0.217159 13
848 1 -3.6869 14.9362 1.98335 16
849 1 -2.19099 12.3268 1.82467 23
850 1 -5.23862 12.4928 3.34891 22
851 1 -0.662471 14.6114 3.39989 17
852 1 -3.7287 14.4883 5.22236 19
853 1 -1.954 12.3446 4.8164 22
854 1 -4.91498 11.7145 6.34383 23
855 1 -0.764704 15.1341 6.71412 15
856 1 -3.5404 15.2373 8.53519 11