ITEM: TIMESTEP
194000
ITEM: NUMBER OF ATOMS
1500
ITEM: BOX BOUNDS pp pp pp
-30.0 30.0
-30.0 30.0
-30.0 30.0
ITEM: ATOMS id type x y z Coordination
1 1 -3.42233 -3.99564 -11.256 22
2 1 -15.432 -2.32256 -3.53693 12
3 1 -12.4756 -7.17067 -6.85823 11
4 1 -15.549 -0.455221 -6.1629 13
5 1 -14.0463 -3.66448 -5.96519 15
6 1 -10.9524 -12.0588 -3.9991 14
7 1 -9.43631 -12.8505 -1.22283 10
8 1 -10.073 -5.36814 -8.90516 17
9 1 -6.56625 7.45949 -11.9249 12
10 1 -12.0163 -2.5131 -8.38075 15
11 1 -10.4328 -3.44023 -11.3025 11
12 1 -8.52871 -10.7534 -9.89271 8
13 1 -11.963 -0.816908 -5.6932 23
14 1 -10.8571 -3.8883 -6.08747 21
15 1 -10.3496 -5.88893 -3.64353 21
16 1 -11.9461 -2.6833 -3.18796 24
17 1 -5.8089 -12.6428 -5.83603 19
18 1 -8.75904 -6.93426 -11.4814 11
19 1 -10.3782 -9.99154 -6.67018 16
20 1 -9.40132 -12.7317 -7.07204 10
21 1 -8.15156 -8.75186 -8.67104 17
22 1 -8.94378 -6.90402 -6.44992 21
23 1 -7.84014 -10.209 -5.48099 19
24 1 -7.54947 -12.252 -3.76823 16
25 1 -8.57737 -8.39993 -3.59096 21
26 1 -5.20129 -3.11408 -14.8876 9
27 1 -12.0657 0.932671 -12.6695 8
28 1 -8.58783 -0.847523 -11.6599 16
29 1 -6.96044 -3.98274 -12.116 17
30 1 -7.14215 -5.89074 -9.17968 20
31 1 -8.72776 -2.70421 -9.11829 20
32 1 -8.31918 -0.883874 -5.9003 23
33 1 -7.16173 -3.85269 -6.34904 20
34 1 -7.22662 -5.62453 -3.99267 21
35 1 -9.18961 -2.77752 -3.38926 22
36 1 -2.47332 -12.7113 -6.00722 21
37 1 -5.46797 -14.6484 1.00863 11
38 1 -5.02652 -7.16526 -10.4689 18
39 1 -1.01816 -5.0341 -13.495 15
40 1 -3.82725 -15.2197 -5.92964 13
41 1 -4.86549 -10.2382 -8.7885 15
42 1 -5.50116 -6.88379 -6.68629 22
43 1 -4.28132 -9.7324 -6.26726 21
44 1 -3.96418 -11.693 -3.63184 20
45 1 -5.58986 -8.74979 -3.95791 20
46 1 -5.5156 -6.36371 -13.0704 11
47 1 -2.23664 -1.88561 -13.8567 15
48 1 -5.24756 -0.91313 -11.4235 22
49 1 -3.58486 -5.50096 -8.3579 23
50 1 -1.91935 -8.67238 -8.83847 21
51 1 -5.55823 -3.03752 -8.55387 22
52 1 -5.28926 -0.958935 -5.78387 24
53 1 -4.07272 -3.88466 -6.34595 21
54 1 -3.52142 -5.83614 -4.01357 21
55 1 -5.32436 -3.15856 -3.0048 22
56 1 0.792985 -12.6893 -6.22637 22
57 1 -0.892432 -15.4168 -6.4818 11
58 1 -2.2821 -14.5906 -3.42748 18
59 1 0.669082 -7.007 -11.7967 20
60 1 -2.60819 -6.80792 -10.9935 21
61 1 -4.04344 -13.246 -8.24859 12
62 1 3.11567 -12.5162 -8.58182 11
63 1 -2.98752 -12.0779 -10.8587 8
64 1 -1.9444 -6.89429 -6.14479 22
65 1 -0.404806 -9.69938 -6.50126 21
66 1 -0.597665 -11.7404 -3.86378 20
67 1 -2.00863 -9.02438 -3.79137 21
68 1 -2.20826 -5.39133 -15.9139 5
69 1 -1.99814 -8.27793 -13.5123 9
70 1 -1.85866 -0.721292 -11.2132 21
71 1 -0.2522 -3.74061 -11.3983 23
72 1 -0.282488 -5.73244 -9.06706 22
73 1 -2.07222 -3.01711 -8.94521 21
74 1 -2.05682 -1.19308 -5.85181 23
75 1 -0.544444 -3.99082 -6.01389 24
76 1 -0.431684 -6.08059 -3.80158 23
77 1 -1.84577 -2.92799 -3.21669 22
78 2 -11.5313 -5.38059 -7.36417 14
79 2 -13.8002 -5.0737 -1.25297 14
80 2 -12.1571 -6.62355 -3.33848 16
81 2 -13.9973 0.213151 -5.25624 19
82 2 -15.1352 -2.19477 -5.46222 12
83 2 -10.5252 -3.12449 -9.13895 16
84 2 -10.445 -11.8047 -5.84634 12
85 2 -10.6196 -11.7045 -0.143028 15
86 2 -11.3632 -10.2298 -3.06073 13
87 2 -11.2732 -8.64043 -5.81497 16
88 2 -9.54187 -13.1657 -3.2414 11
89 2 -9.39594 -10.8129 -8.11746 11
90 2 -12.3437 -2.48302 -6.39733 18
91 2 -10.7287 -0.0530555 -11.617 15
92 2 -8.73997 -6.83353 -8.357 16
93 2 -10.517 -5.49602 -1.64432 21
94 2 -12.1158 -2.70934 -0.980026 22
95 2 -11.7621 -0.733115 -3.75883 20
96 2 -10.7596 -3.99218 -4.10016 21
97 2 -4.09283 -11.7352 -6.5423 17
98 2 -5.45794 -14.2953 -6.87874 10
99 2 -8.85479 -8.75899 -6.63822 19
100 2 -8.54471 -2.67863 -11.0816 19
101 2 -9.80821 -5.39129 -11.2133 12
102 2 -7.87003 -11.7812 -1.68938 19
103 2 -8.46107 -8.43833 -1.57612 21
104 2 -8.80305 -6.57049 -4.19316 24
105 2 -7.24658 -9.67805 -3.83521 18
106 2 -6.99344 -5.99978 -11.5023 14
107 2 -4.40373 -1.47601 -14.4056 12
108 2 -6.23781 -5.70452 -5.5263 21
109 2 -8.92822 -3.18686 -6.25068 23
110 2 -8.55768 -0.674504 -9.64396 22
111 2 -7.29394 -4.01111 -8.55888 22
112 2 -6.78211 -5.58028 -1.07535 21
113 2 -9.06124 -2.71307 -1.54008 20
114 2 -8.31209 -0.475834 -4.09537 21
115 2 -7.41878 -3.69741 -3.52865 21
116 2 -6.66658 -10.3879 -9.33883 11
117 2 -4.2492 -15.4358 2.25829 11
118 2 -7.84585 -12.3693 -5.82257 14
119 2 -5.55619 -14.2098 -0.894155 11
120 2 -14.9191 0.133119 -8.15311 12
121 2 -1.93224 -6.4661 -9.23414 22
122 2 -5.88648 -8.6922 -6.00459 19
123 2 -8.67049 -8.60961 -10.5094 12
124 2 -2.0467 -6.83184 -14.6353 10
125 2 -4.09899 -11.581 -1.53518 21
126 2 -5.50372 -8.74326 -0.820078 20
127 2 -5.12316 -6.53398 -3.06533 24
128 2 -3.91572 -9.91962 -4.32933 19
129 2 -3.90975 -8.73787 -9.80882 17
130 2 -3.29995 0.418525 -12.2863 23
131 2 -5.57395 -2.72008 -11.691 18
132 2 -5.70408 -4.76526 -13.7247 8
133 2 -3.6965 -5.90177 -6.40278 19
134 2 -5.4859 -2.69614 -6.70787 22
135 2 -5.42978 -1.07139 -9.31449 22
136 2 -3.69135 -3.81644 -9.20969 22
137 2 -3.33227 -5.96157 -1.38331 21
138 2 -5.65464 -3.24611 -0.997507 21
139 2 -5.37044 -1.18173 -3.59866 20
140 2 -3.59602 -3.68677 -3.86714 23
141 2 -5.65214 -12.8266 -3.6632 20
142 2 -3.82387 -11.703 -9.21079 15
143 2 -1.60445 -14.3798 -1.6294 16
144 2 -2.29781 -12.6238 -4.16883 23
145 2 -0.890085 -15.2025 -4.5826 17
146 2 -1.30534 -12.0114 -10.2939 10
147 2 -4.05252 -5.88902 -11.6 19
148 2 -4.0382 -15.5238 -3.93177 13
149 2 -2.01887 -8.72255 -7.04774 21
150 2 1.77758 -2.93809 -11.5395 17
151 2 -1.97179 -9.31643 -12.0148 12
152 2 -0.796222 -11.6153 -1.93821 22
153 2 -2.22053 -8.65833 -1.6878 22
154 2 -2.04615 -7.08952 -4.10281 20
155 2 -0.360487 -9.73923 -4.24655 23
156 2 2.12454 -6.9366 -12.7762 12
157 2 -1.10662 -6.01658 -11.8202 18
158 2 -1.76847 0.110655 -14.45 14
159 2 -1.93939 -3.81681 -14.7529 12
160 2 -0.390796 -6.0319 -7.05265 25
161 2 -2.40985 -3.07674 -6.64718 23
162 2 -2.05708 -1.10951 -8.93963 21
163 2 -0.456945 -4.06321 -9.62533 24
164 2 -0.325732 -5.92552 -1.37311 23
165 2 -2.29284 -2.77801 -1.20989 24
166 2 -1.94719 -1.09988 -3.84576 24
167 2 -0.449853 -4.09013 -4.15043 22
168 1 -13.7181 -5.37644 -3.46656 14
169 1 -11.7486 -8.56403 -3.93663 16
170 1 -15.4462 0.0238749 -0.690415 15
171 1 -13.9178 -3.23363 -0.898943 18
172 1 -13.4284 -5.14606 1.68062 15
173 1 -15.4294 -1.96941 1.98759 13
174 1 -15.3638 -0.296749 4.09877 12
175 1 -13.7419 -3.53566 4.75493 14
176 1 -13.2006 -4.8167 9.1246 11
177 1 -12.2501 -6.46288 -1.28987 15
178 1 -10.9201 -10.0405 -1.20017 17
179 1 -9.51979 -12.7192 4.68499 10
180 1 -11.9055 -8.49251 1.16934 15
181 1 -12.1459 -6.49819 3.97437 15
182 1 -10.7649 -9.4508 4.1309 18
183 1 -11.8513 -7.7066 6.9061 12
184 1 -11.7885 -0.687644 -0.6975 25
185 1 -10.3808 -3.95331 -0.411495 23
186 1 -10.1733 -5.73954 2.32903 21
187 1 -12.3438 -2.55354 1.78888 20
188 1 -12.0148 -0.544039 5.24744 23
189 1 -10.3839 -3.76938 5.16316 20
190 1 -10.0243 -5.55152 7.83541 19
191 1 -11.9749 -2.72839 7.49773 19
192 1 -15.3065 -2.15099 7.9792 9
193 1 -10.9306 -4.53128 10.9477 9
194 1 -10.9102 -11.7226 1.91835 12
195 1 -10.5476 -10.8402 7.04844 11
196 1 -9.34385 -6.77568 -0.815526 21
197 1 -7.21716 -9.91729 -0.974382 20
198 1 -7.44172 -11.908 2.22755 16
199 1 -8.95327 -9.01365 1.99241 23
200 1 -8.69548 -6.8777 4.91991 19
201 1 -7.65624 -10.1177 5.22113 20
202 1 -7.17367 -11.5837 7.46527 15
203 1 -8.80525 -8.5467 8.19005 18
204 1 -8.45515 -6.80963 10.6241 12
205 1 -5.79656 -13.5405 9.32731 10
206 1 -8.64797 -0.873878 -1.02141 21
207 1 -7.32304 -3.88138 -1.63744 22
208 1 -7.10714 -5.85329 0.92799 20
209 1 -8.84676 -2.59723 2.08087 20
210 1 -8.9208 -0.813852 5.0728 22
211 1 -7.27407 -3.89348 3.92266 20
212 1 -7.10639 -5.7283 6.73878 21
213 1 -8.40714 -2.71664 7.66014 20
214 1 -8.49282 -0.532158 10.3274 21
215 1 -6.83859 -3.92627 10.1555 20
216 1 -6.9974 -3.82157 14.9773 5
217 1 -6.71532 -0.214903 12.9496 14
218 1 -5.98442 -12.2646 -0.982745 18
219 1 -3.72135 -15.6324 3.85938 10
220 1 -0.642239 -16.4688 4.48426 12
221 1 -5.35125 -12.4554 4.37679 16
222 1 -5.36164 -14.4086 6.59748 12
223 1 -5.43024 -6.88967 -1.31223 20
224 1 -3.82923 -9.68902 -1.03686 23
225 1 -3.92815 -11.6781 1.32704 23
226 1 -5.73714 -8.96119 1.09619 20
227 1 -5.77193 -6.93965 3.95341 19
228 1 -3.68114 -9.36567 4.16022 20
229 1 -3.95382 -11.5997 6.58495 25
230 1 -5.59124 -8.70306 6.79579 20
231 1 -5.32531 -6.54367 9.48089 22
232 1 -3.87449 -9.00625 9.33739 18
233 1 -6.84156 -10.0981 10.3718 10
234 1 -5.54715 -1.10816 -0.792267 21
235 1 -3.63929 -4.11608 -0.631617 23
236 1 -4.2631 -6.04567 1.6412 21
237 1 -5.37006 -3.06658 1.18308 18
238 1 -5.30008 -0.954455 4.9345 21
239 1 -3.87288 -4.05876 4.20516 20
240 1 -3.89158 -5.84431 7.15257 24
241 1 -5.58084 -3.1046 7.24718 22
242 1 -5.33722 -0.893295 10.3736 22
243 1 -3.51939 -3.67099 10.1605 22
244 1 -3.16308 -8.41577 12.4661 14
245 1 -3.66272 -5.37066 12.6667 17
246 1 -2.07984 -12.6903 -1.13819 20
247 1 -0.523973 -15.9132 -1.27223 12
248 1 -1.74868 -14.3656 1.79699 18
249 1 -2.06355 -12.8324 4.5915 22
250 1 -0.353704 -13.9454 9.70579 13
251 1 -2.71378 -11.5637 10.201 16
252 1 -3.31081 -14.9453 9.5954 9
253 1 -1.79923 -6.89027 -0.620477 22
254 1 -0.630819 -9.62323 -0.867765 22
255 1 -0.415953 -11.4364 1.82026 21
256 1 -2.22227 -8.72271 1.94497 22
257 1 -2.30471 -6.60082 4.431 22
258 1 -0.377066 -9.95728 4.43191 22
259 1 -1.89435 -14.7755 6.95167 17
260 1 -2.03438 -8.51391 7.04101 23
261 1 -1.92372 -6.4004 9.88566 22
262 1 -0.78436 -9.44015 10.0642 17
263 1 -6.2526 -6.40413 12.3407 12
264 1 -2.20701 -1.06821 -0.67445 20
265 1 -0.436457 -4.07643 -0.680894 23
266 1 -0.450673 -6.02915 1.97041 24
267 1 -2.04402 -2.93261 2.13532 23
268 1 -2.1959 -1.02171 4.5068 23
269 1 -0.528442 -3.97018 4.49796 22
270 1 -0.54813 -5.5694 7.1319 23
271 1 -2.19798 -2.82125 6.69926 23
272 1 -1.93062 -0.5394 9.9381 18
273 1 -0.328358 -3.48918 9.78358 21
274 1 1.4587 -2.95292 12.1323 15
275 1 -1.769 -2.57708 12.6431 16
276 2 -11.4498 -8.1382 -0.62348 16
277 2 -13.3217 -5.66483 -5.5016 13
278 2 -13.4718 -4.95142 3.7349 14
279 2 -15.2538 -0.399423 1.12072 15
280 2 -13.6152 -3.31354 -3.77741 18
281 2 -14.3098 -3.34293 1.23347 13
282 2 -15.0995 -2.14928 4.19254 13
283 2 -14.2762 -3.66686 8.57436 8
284 2 -10.9379 -11.3907 4.95587 11
285 2 -12.1358 -8.09818 5.01334 14
286 2 -12.1526 -6.75034 1.81703 17
287 2 -11.0557 -9.84214 2.25205 14
288 2 -12.0851 -6.19954 8.08404 12
289 2 -10.6423 -9.10651 7.72098 12
290 2 -10.2597 -5.65178 4.20256 20
291 2 -12.0108 -2.62053 5.05763 15
292 2 -12.3003 -0.697311 1.12011 20
293 2 -10.6864 -3.76466 1.60805 22
294 2 -4.5886 -7.08135 12.4142 13
295 2 -16.4197 0.777787 5.32748 8
296 2 -12.1331 -1.05136 7.6532 16
297 2 -10.2019 -3.56491 7.12213 21
298 2 -6.37228 -4.94323 13.5938 9
299 2 -9.35611 -12.1174 2.76876 14
300 2 -8.82515 -11.3839 6.37272 14
301 2 -6.70053 -11.2968 3.86995 21
302 2 -8.98649 -8.62633 3.95548 21
303 2 -8.89482 -6.41841 0.90257 18
304 2 -7.47618 -10.1763 1.06595 18
305 2 -4.69386 -15.0675 8.28718 11
306 2 -6.81524 -5.82443 10.5483 17
307 2 -8.75351 -6.80687 6.88643 20
308 2 -7.2483 -9.59415 7.25237 21
309 2 -6.48823 -11.681 9.37359 13
310 2 -6.9129 -5.56457 4.82049 22
311 2 -8.77363 -2.56722 4.31065 20
312 2 -8.74606 -0.846916 1.42463 23
313 2 -7.24512 -3.84709 1.94962 21
314 2 -9.79014 -5.57578 9.74953 17
315 2 -11.6596 -3.64296 9.54345 14
316 2 -8.82199 -1.00301 7.0317 23
317 2 -7.03618 -4.08919 7.8155 21
318 2 -8.26677 -2.33865 9.79576 22
319 2 -9.88817 -3.09431 11.8963 11
320 2 -4.85361 -14.3834 4.83476 14
321 2 -5.74401 -12.6429 1.30274 16
322 2 -1.81414 -14.722 3.74259 16
323 2 -5.83926 -12.4944 6.59876 16
324 2 -3.73691 -11.4048 4.57761 20
325 2 -5.30424 -8.29444 5.01434 23
326 2 -6.03583 -7.06391 1.81791 18
327 2 -3.93623 -9.66963 1.62335 20
328 2 -2.72915 -9.82391 11.0405 14
329 2 -5.6793 -8.43118 9.81862 17
330 2 -5.51463 -7.01723 7.63381 21
331 2 -3.77902 -9.4534 7.37385 22
332 2 -8.02309 -8.54301 9.99487 13
333 2 2.8669 -15.4366 6.24586 13
334 2 -3.97624 -6.07286 3.65232 21
335 2 -5.43827 -2.94742 4.63796 19
336 2 -4.74827 -1.25748 0.976743 18
337 2 -3.70172 -4.13368 1.44893 21
338 2 -3.47885 -5.0344 8.87922 21
339 2 -5.36294 -2.71585 10.4237 20
340 2 -5.69597 -1.02667 6.9972 21
341 2 -3.79514 -3.98804 6.26001 22
342 2 9.91197 1.50387 12.0607 9
343 2 -2.14205 -5.60148 11.5452 18
344 2 -3.40999 -3.32175 12.9408 15
345 2 1.97629 1.25914 14.0293 10
346 2 -0.232692 -15.6081 6.10486 14
347 2 -2.19983 -12.598 0.952933 20
348 2 -0.731302 -15.5903 0.792604 12
349 2 1.45342 -13.8216 9.05202 12
350 2 -0.574746 -11.712 3.65237 21
351 2 -1.91379 -8.89164 4.20293 21
352 2 -2.28628 -6.91444 1.30981 23
353 2 -0.995804 -9.77442 1.08353 24
354 2 -2.4724 -12.9402 6.59025 23
355 2 -2.04165 -8.16105 9.41113 23
356 2 -2.17319 -6.54802 6.57968 24
357 2 -0.825044 -9.74679 6.31546 25
358 2 -1.12242 -7.87387 12.8483 12
359 2 -1.78658 -14.839 8.76621 12
360 2 -0.567112 -5.76493 3.83609 23
361 2 -2.16384 -2.79955 4.16308 22
362 2 -1.94098 -0.967082 1.3372 22
363 2 -0.526812 -3.92127 1.44511 22
364 2 -0.343467 -5.434 9.03543 22
365 2 -2.1109 -2.53512 10.1935 20
366 2 -2.17831 -0.984781 7.01619 20
367 2 -0.62606 -3.63014 6.56843 20
368 2 -0.378117 -3.64564 12.5144 17
369 2 -1.17961 -11.5821 9.07409 22
370 2 -1.71466 -0.0803762 13.1426 13
371 2 3.92187 1.64885 11.8475 19
372 1 -13.8171 3.54399 -10.8614 12
373 1 -13.616 2.20902 -5.49342 20
374 1 -13.8847 0.34113 -3.31537 17
375 1 -15.2436 4.9157 -6.00695 12
376 1 -11.1694 8.98749 -3.48607 16
377 1 -13.3947 7.72206 -5.71078 11
378 1 -9.66388 1.55088 -11.2581 17
379 1 -10.0795 -0.319514 -8.26278 21
380 1 -11.731 3.41719 -8.75432 22
381 1 -11.6271 5.02167 -6.24326 21
382 1 -10.7771 1.88279 -5.95245 22
383 1 -10.2367 0.389962 -3.32943 22
384 1 -11.9475 3.22364 -3.55254 22
385 1 -15.101 2.04653 -8.24111 12
386 1 -9.40467 7.89084 -6.36362 20
387 1 -9.76191 5.73864 -3.49949 23
388 1 -11.5421 9.56158 0.508433 18
389 1 -12.9261 5.84162 -3.58541 19
390 1 -3.85739 0.239766 -14.14 12
391 1 -9.81578 6.16664 -8.64287 22
392 1 -13.6294 -0.0696589 -9.43381 11
393 1 -6.70221 2.122 -11.4585 21
394 1 -6.88819 0.0103362 -8.73212 20
395 1 -8.32211 2.71442 -8.51339 22
396 1 -8.21313 4.90039 -6.03259 25
397 1 -7.0857 2.16241 -5.88618 22
398 1 -6.731 0.180408 -3.30203 23
399 1 -8.53616 3.16653 -3.13896 26
400 1 -8.58094 2.40658 -14.2188 9
401 1 -9.16607 4.21024 -10.9242 17
402 1 -7.07028 5.7661 -8.50649 22
403 1 -11.2187 9.5277 -7.94926 10
404 1 -4.70372 13.537 -4.87501 13
405 1 -6.45129 7.72145 -6.17212 21
406 1 -6.60103 6.17519 -3.29183 24
407 1 -7.99586 8.7369 -3.09613 20
408 1 -9.93566 7.83208 -11.5055 8
409 1 -13.286 6.12031 -8.33225 13
410 1 -7.08083 12.6213 -2.65317 13
411 1 -1.90397 1.87868 -15.2735 10
412 1 -5.08983 3.48801 -15.8708 8
413 1 -4.88979 4.76542 -10.7683 23
414 1 -3.23332 1.78026 -11.1362 21
415 1 -3.6319 -0.157092 -8.34355 25
416 1 -5.15246 2.80969 -8.46426 24
417 1 -5.17439 4.83319 -5.83763 20
418 1 -3.38358 1.97178 -5.78446 22
419 1 -3.7116 -0.293742 -3.23824 20
420 1 -5.18082 3.14303 -3.32684 22
421 1 -4.07975 6.44902 -14.0076 11
422 1 -11.1302 4.70643 -12.6744 12
423 1 -3.40025 7.40872 -11.063 19
424 1 -3.53386 5.75743 -8.41077 22
425 1 -4.82295 9.23522 -8.56803 16
426 1 -4.91669 10.838 -5.67694 15
427 1 -3.28101 8.11994 -5.78007 20
428 1 -3.35826 5.81275 -3.30456 19
429 1 -4.77807 8.82415 -3.3148 20
430 1 -8.3717 9.01661 -9.13604 13
431 1 -3.01662 12.185 -7.78498 12
432 1 -3.23209 11.9251 -2.86707 20
433 1 -5.83364 15.1768 -2.33587 11
434 1 0.189206 -0.0536295 -13.6537 17
435 1 -2.52619 4.16648 -13.5024 17
436 1 -1.44333 4.97492 -10.6945 22
437 1 -0.247671 1.9278 -11.0863 20
438 1 -0.272039 -0.160302 -8.4821 23
439 1 -1.91444 2.59645 -8.42593 22
440 1 -1.68248 4.86116 -5.79334 23
441 1 -0.237761 1.80193 -5.95059 24
442 1 -0.274675 -0.191022 -3.20166 22
443 1 -1.8262 2.80759 -3.40042 21
444 1 -0.0764882 6.75001 -13.622 10
445 1 -6.17682 4.73237 -13.941 14
446 1 -2.34723 10.7008 -10.6617 10
447 1 -0.168972 8.04492 -10.5785 18
448 1 -0.244554 5.88575 -8.11125 22
449 1 -1.89043 8.97069 -8.4176 18
450 1 -0.046233 12.3478 -8.64272 12
451 1 0.0379623 7.95434 -5.64069 21
452 1 -0.12806 6.04468 -3.16261 22
453 1 -1.80112 8.66596 -2.66401 21
454 1 1.37008 10.8958 -11.6124 11
455 1 2.03029 13.0523 -4.88781 12
456 1 -1.45878 13.3548 -5.43955 13
457 1 -2.27596 15.3496 -2.90491 11
458 2 -10.1894 2.76404 -9.72981 23
459 2 -13.5984 1.43707 -11.3187 13
460 2 -13.3239 0.61892 -1.38766 20
461 2 -15.127 3.75251 -0.857396 14
462 2 -15.1445 3.11345 -6.45594 12
463 2 -14.0665 2.54923 -3.33179 17
464 2 -13.8269 5.90574 -6.31654 13
465 2 -13.242 6.08651 -1.43004 19
466 2 -12.6361 7.91255 -3.92181 15
467 2 -11.4594 5.21292 -8.73653 17
468 2 -10.1374 -0.128172 -6.31288 18
469 2 -12.139 3.29318 -6.06835 21
470 2 -11.9309 -0.546958 -8.5938 17
471 2 -10.9773 2.55223 -12.1767 13
472 2 -10.1001 0.204476 -1.44252 23
473 2 -11.4279 3.14747 -1.3918 23
474 2 -11.4655 4.89399 -4.39179 23
475 2 -9.81979 2.08013 -4.02134 22
476 2 -10.4136 8.83884 -9.50873 12
477 2 -12.6231 8.11478 -7.5371 12
478 2 -8.4188 2.84989 -12.3534 18
479 2 -10.0241 6.1249 -1.73157 25
480 2 -10.2386 5.90465 -11.3204 13
481 2 -10.5557 10.7527 -3.51704 12
482 2 -9.54961 8.04637 -4.18325 21
483 2 -11.3539 10.3737 2.24242 16
484 2 -5.27036 -6.48257 -8.69854 19
485 2 -4.42597 4.55091 -14.4403 13
486 2 -6.94634 3.05581 -15.0384 8
487 2 -6.83123 0.0921984 -6.56026 23
488 2 -8.79022 2.93197 -6.58262 24
489 2 -5.04034 7.65622 -9.6872 19
490 2 -6.82173 1.99776 -9.08875 22
491 2 -7.12986 0.00705723 -1.15755 21
492 2 -8.22529 3.26633 -1.14409 23
493 2 -8.04578 5.0081 -3.97716 23
494 2 -6.66925 2.02329 -4.03756 24
495 2 -6.77553 0.170338 -11.6473 18
496 2 -6.5886 5.82985 -6.70217 23
497 2 -9.80227 6.09749 -6.79544 22
498 2 -13.7072 2.87067 -9.12459 14
499 2 -6.18522 5.50825 -12.2399 18
500 2 -7.00891 6.15465 -0.999319 22
501 2 -8.33603 8.99407 -1.14169 23
502 2 -9.95949 9.82493 -6.53031 11
503 2 -6.57352 7.80425 -4.13166 24
504 2 -7.28834 10.9074 -3.0886 15
505 2 -6.87475 12.3664 -0.582638 17
506 2 -10.9758 11.7608 0.00562108 12
507 2 -4.87644 2.75325 -11.1216 17
508 2 -8.33677 4.85137 -9.35579 21
509 2 -4.49658 7.59619 -12.5475 12
510 2 -3.78348 1.98178 -15.4671 11
511 2 -3.34518 -0.0550842 -6.411 22
512 2 -4.89952 2.90322 -6.56112 24
513 2 -5.26773 4.77531 -8.74698 18
514 2 -3.44246 1.65931 -9.00948 22
515 2 -3.59802 0.115337 -1.25844 22
516 2 -5.42479 2.97213 -1.121 20
517 2 -5.19863 5.09032 -3.86393 21
518 2 -3.35156 1.67896 -3.77332 22
519 2 -3.19484 5.50131 -11.1909 19
520 2 -13.0544 4.81635 -11.9681 9
521 2 -3.61014 5.83642 -6.40077 20
522 2 -4.80185 9.1234 -6.61841 17
523 2 -7.80394 8.2305 -7.31959 19
524 2 -1.55015 8.2009 -6.72291 19
525 2 -3.53639 5.9692 -1.24956 22
526 2 -5.14958 8.82892 -1.148 24
527 2 -4.02478 10.4682 -4.06432 18
528 2 -3.15451 7.69264 -3.70006 21
529 2 -4.27646 12.6161 -6.51206 12
530 2 -3.97057 12.5106 -1.13885 22
531 2 -7.04265 15.193 -0.871631 9
532 2 -5.73523 13.4118 -3.4732 15
533 2 -0.135932 -0.0799865 -11.7561 22
534 2 -1.82061 3.26974 -11.484 19
535 2 -1.95261 6.50091 -13.806 13
536 2 -0.65178 2.66285 -14.2016 13
537 2 -0.530086 0.253256 -6.65218 23
538 2 -1.60958 3.03124 -5.61071 18
539 2 -1.83948 4.62853 -8.47976 20
540 2 -0.423068 1.80217 -9.19278 24
541 2 -0.0472786 0.0513916 -1.26478 23
542 2 -1.88415 2.96425 -0.607562 20
543 2 -1.72503 4.8606 -3.32885 20
544 2 -0.296304 1.90691 -3.50692 21
545 2 -0.200474 6.36694 -11.5156 21
546 2 -8.15176 8.25102 -11.0728 12
547 2 -0.120172 5.71105 -5.98723 22
548 2 1.5273 11.131 -8.55547 17
549 2 -3.27396 10.4768 -8.83859 15
550 2 -0.383184 7.63985 -8.80556 20
551 2 -0.0359623 5.75171 -1.11548 22
552 2 -1.6207 8.61507 -0.612028 20
553 2 -1.13847 12.955 -7.07918 11
554 2 -0.146217 8.34328 -3.67259 21
555 2 -1.11653 11.7749 -9.93203 11
556 2 -1.79276 10.701 -2.62405 18
557 2 -2.12498 8.67722 -10.516 17
558 2 -0.0508393 11.9959 -0.888168 19
559 2 -4.1209 15.8601 -3.02232 9
560 2 -1.71287 14.5205 -1.23776 13
561 1 -15.6694 3.92624 -2.65651 12
562 1 -13.0758 2.66476 -0.791957 21
563 1 -13.623 0.488925 1.82394 21
564 1 -13.4479 2.24543 4.74008 18
565 1 -14.3288 5.07729 3.38189 13
566 1 -12.9034 7.00792 1.8728 21
567 1 -15.3549 0.913392 6.81551 10
568 1 -14.7632 5.5923 -0.454496 15
569 1 -15.127 3.23615 1.23214 12
570 1 -13.0997 7.93157 4.82081 11
571 1 -13.0747 0.632884 8.32795 14
572 1 -11.538 4.93871 -0.908126 22
573 1 -9.98204 1.98157 -0.603455 23
574 1 -10.3455 0.193235 1.78038 22
575 1 -11.6814 3.52746 1.95154 23
576 1 -11.8608 4.9616 4.95544 21
577 1 -10.23 2.06183 4.58016 23
578 1 -10.0827 0.137129 7.91296 22
579 1 -11.9887 3.14516 7.0431 15
580 1 -12.046 4.74278 9.45349 12
581 1 -10.6429 1.85934 10.2363 17
582 1 -10.3636 -2.21743 9.72544 16
583 1 -11.5874 11.3674 -1.78177 11
584 1 -10.0345 7.83067 -0.765527 22
585 1 -10.1605 6.36807 2.15444 20
586 1 -12.9737 7.89641 -1.44021 16
587 1 -13.2961 9.77046 1.99869 13
588 1 -9.32623 7.87018 5.41872 21
589 1 -9.9012 5.98546 7.15885 18
590 1 -11.6402 10.2393 4.20027 12
591 1 -5.54094 10.8286 9.92578 13
592 1 -9.96276 11.7283 1.55811 15
593 1 -8.36412 5.05016 -0.586686 24
594 1 -7.09465 2.03198 -0.707329 21
595 1 -7.17549 -0.277727 2.21313 21
596 1 -8.42428 2.87519 2.21203 24
597 1 -8.31719 5.06614 4.16607 19
598 1 -6.63607 2.26061 5.05644 21
599 1 -7.17632 0.0606542 7.54549 23
600 1 -8.82383 2.78401 7.63411 22
601 1 -9.01415 5.48109 9.94883 22
602 1 -6.89071 2.21712 10.3523 21
603 1 -5.14961 -2.74046 12.5637 15
604 1 -10.7032 4.63673 12.7416 10
605 1 -8.06451 10.7104 -0.49075 22
606 1 -6.73471 7.95023 -0.404077 24
607 1 -6.80858 6.17486 1.81123 23
608 1 -8.29284 8.89114 2.15657 23
609 1 -8.79559 10.6147 4.80741 17
610 1 -6.55887 7.97229 4.58937 20
611 1 -6.7683 6.18184 7.2438 20
612 1 -9.0457 7.64592 12.5039 12
613 1 -11.227 10.7382 7.53853 8
614 1 -7.54661 5.68469 12.5523 16
615 1 -7.38404 13.9752 0.266971 12
616 1 -6.61859 11.76 2.41155 20
617 1 -6.53169 14.0191 4.66493 11
618 1 -8.20087 9.40057 8.34992 18
619 1 -5.20562 4.9301 -0.708523 21
620 1 -3.61445 1.92879 -0.673891 20
621 1 -3.64908 0.0297919 1.84737 21
622 1 -5.58089 3.06031 1.69343 20
623 1 -5.19564 4.96994 4.78851 23
624 1 -3.6664 1.94973 4.05311 20
625 1 -3.74552 0.0765948 7.39967 22
626 1 -5.60524 2.98506 7.55825 21
627 1 -5.35352 5.01123 9.60511 22
628 1 -3.80916 2.07394 9.85582 20
629 1 -3.29761 0.282785 12.8378 15
630 1 -9.11232 -1.99771 13.595 8
631 1 -5.19256 11.3007 -0.44904 25
632 1 -3.60867 8.03031 -0.518627 22
633 1 -3.73122 5.90468 2.13259 23
634 1 -4.99165 8.89658 2.32765 24
635 1 -5.33193 10.5699 4.79619 20
636 1 -3.02076 7.62951 4.99845 23
637 1 -3.50438 5.60452 7.62103 23
638 1 -5.08092 8.81924 7.13834 18
639 1 -10.4541 8.01679 9.77559 13
640 1 -2.84892 7.32453 10.7118 19
641 1 -2.03141 3.28268 12.5902 18
642 1 -5.65004 13.9302 8.35781 10
643 1 7.23046 13.4068 -5.56509 11
644 1 -3.51509 12.0816 2.37853 20
645 1 -4.90519 14.8687 2.34564 13
646 1 -3.07384 13.8181 4.83472 18
647 1 -3.47382 11.6953 7.99271 21
648 1 -1.71386 4.91474 -1.12076 20
649 1 -0.270927 1.9303 -0.449623 23
650 1 -0.294332 0.0380302 2.0611 20
651 1 -2.08345 2.90191 1.56611 20
652 1 -1.90846 4.9416 4.31405 20
653 1 -0.234378 1.80983 4.5224 22
654 1 -0.373185 -0.129783 7.34573 20
655 1 -2.18842 2.93216 6.91814 21
656 1 -1.63738 4.96137 10.0971 22
657 1 -0.519666 1.98001 9.98562 21
658 1 0.308234 0.339421 13.2885 14
659 1 -8.75282 1.76399 12.8993 12
660 1 -1.66621 10.6888 -0.583408 21
661 1 0.0770249 7.74263 -0.388957 20
662 1 -0.401764 5.82169 1.74101 21
663 1 -1.67976 8.51381 1.78583 17
664 1 -1.59086 10.9764 5.01898 21
665 1 -0.0361453 7.55837 4.9472 22
666 1 -0.138338 5.55387 7.30124 21
667 1 -1.83656 8.6557 7.65893 22
668 1 -6.60312 7.83521 10.0471 19
669 1 0.00470276 7.60966 9.87201 17
670 1 -0.483654 6.01855 12.9125 14
671 1 -5.50351 8.58992 12.781 12
672 1 0.138588 13.7787 -0.341281 16
673 1 -3.27518 14.006 -0.394455 20
674 1 -0.00900736 12.1673 2.44858 21
675 1 -1.42628 14.5949 2.16324 15
676 1 -0.233483 13.4975 5.26155 17
677 1 -1.72114 10.5644 9.85736 11
678 1 -6.9433 12.0554 7.16223 14
679 1 -1.87603 14.627 7.88393 8
680 2 -15.3071 -0.711991 -2.3266 15
681 2 -14.1688 5.80273 1.44381 14
682 2 -14.7774 5.08644 -3.94761 16
683 2 -13.4 2.31019 1.13977 23
684 2 -13.5504 2.06804 6.76256 16
685 2 -13.4682 0.430106 4.02726 20
686 2 -11.9618 2.68362 9.12497 14
687 2 -13.0682 8.47288 0.353471 15
688 2 -9.94721 0.388284 3.78097 19
689 2 -11.9829 3.08971 3.97121 22
690 2 -11.7094 5.37725 1.14827 23
691 2 -10.1351 2.25803 1.26807 23
692 2 -10.3868 -0.17142 9.74455 20
693 2 -8.82513 2.21098 9.42871 18
694 2 -14.8332 3.51887 3.09299 14
695 2 -10.7336 1.66523 6.53277 22
696 2 -14.7816 -0.34544 8.27353 8
697 2 -10.1074 5.94898 4.0417 23
698 2 -13.2762 6.31253 4.25166 14
699 2 -11.3563 9.31196 -1.40922 18
700 2 -9.85874 8.13076 1.25764 24
701 2 -10.9779 4.60702 6.48333 19
702 2 -13.6097 9.4663 3.77125 10
703 2 -10.6662 11.0521 5.65961 11
704 2 -6.96461 0.0131121 4.20294 21
705 2 -8.24346 3.10454 4.32286 20
706 2 -8.32292 4.96576 1.99471 20
707 2 -7.06832 1.61742 1.3508 23
708 2 -6.92339 0.332409 9.79815 23
709 2 -6.78759 5.68735 10.6068 20
710 2 -8.36331 5.09014 8.16903 20
711 2 -7.21182 1.94095 6.89795 22
712 2 -7.074 -2.35192 13.583 14
713 2 -10.3593 9.43884 8.39932 10
714 2 -6.96379 1.90693 12.3152 15
715 2 -6.36383 6.31404 3.89461 21
716 2 -8.15364 8.89212 4.14868 22
717 2 -8.26527 11.0257 1.63181 20
718 2 -6.64898 8.30938 1.44759 22
719 2 -7.17258 7.6839 12.6522 12
720 2 -8.67012 8.03329 10.4187 15
721 2 -11.0956 8.5077 5.0259 20
722 2 -6.56899 7.9093 7.95965 21
723 2 -4.04688 7.51279 12.1534 15
724 2 -7.02627 11.5824 4.14147 21
725 2 -6.34837 13.9289 1.98429 14
726 2 -10.7366 6.13197 9.04364 12
727 2 -8.23817 6.4618 5.7459 17
728 2 -3.87325 -0.0575704 4.02472 20
729 2 -5.45417 3.23583 4.08915 23
730 2 -5.284 5.05024 1.22385 22
731 2 -3.82678 2.03349 1.5715 20
732 2 -3.77095 0.199375 9.56678 20
733 2 -5.37377 2.9264 9.26461 22
734 2 -5.09631 4.82859 6.85824 20
735 2 -3.82713 2.02088 6.98085 22
736 2 -4.87064 -0.613741 12.4521 16
737 2 -11.5446 5.08067 11.2377 10
738 2 -8.84227 -0.331257 12.976 12
739 2 -10.0372 2.94692 11.8837 14
740 2 -3.50437 6.13953 4.06474 23
741 2 -4.83007 8.6738 4.78161 20
742 2 -5.07455 10.9335 1.59846 21
743 2 -3.54954 8.0227 1.45041 21
744 2 -3.54675 5.55513 9.77664 21
745 2 -6.53784 12.2886 9.09181 11
746 2 -5.06133 10.8931 7.19416 19
747 2 -3.50392 7.64674 7.29379 20
748 2 -9.31819 5.93065 12.8514 11
749 2 -3.87313 14.0596 7.79976 12
750 2 -3.44118 11.8577 4.27881 22
751 2 -4.74475 14.4567 4.08994 14
752 2 3.32891 13.3431 -3.34023 14
753 2 -6.11467 9.40718 10.9953 13
754 2 -6.44337 13.966 6.62303 11
755 2 -0.578195 -0.0472454 4.19439 21
756 2 -2.03098 2.80536 4.52563 20
757 2 -2.04607 4.89838 2.32286 18
758 2 -0.583926 1.81885 1.65427 19
759 2 -0.323316 -0.0069629 9.38504 21
760 2 -2.02656 3.10253 9.87629 22
761 2 -1.97991 4.8534 6.69128 22
762 2 -0.523351 1.8455 6.59595 23
763 2 3.20932 3.76467 13.9661 12
764 2 -2.16231 5.01065 13.3459 14
765 2 -3.56893 2.34005 13.1752 12
766 2 -5.47303 4.90387 12.9984 14
767 2 -0.18851 5.77166 4.43179 22
768 2 -1.52665 8.9029 4.36953 19
769 2 -2.02872 11.3095 1.44266 22
770 2 -0.182317 7.56471 1.59768 19
771 2 0.151557 5.51073 9.24053 23
772 2 -1.84641 8.68068 9.51051 19
773 2 -1.82282 11.0737 7.21416 21
774 2 -0.186645 7.69567 6.8319 21
775 2 7.30875 -0.444211 15.6271 8
776 2 -8.00058 10.3726 6.68436 17
777 2 -1.25279 6.51564 11.3712 15
778 2 0.128761 11.6288 4.32108 23
779 2 -1.5536 14.1375 3.91599 16
780 2 0.311444 13.7373 1.43187 18
781 2 -3.30987 14.0751 1.46622 17
782 2 -3.56718 10.7955 9.67098 15
783 2 -0.725518 13.6424 7.16912 13
784 1 1.0628 -14.9596 -4.07086 16
785 1 4.46142 -14.6599 -3.64105 15
786 1 2.69304 -15.3414 -6.18962 11
787 1 -0.450149 -12.0231 -8.61088 17
788 1 3.63542 -7.74114 -11.4137 12
789 1 1.6266 -8.75581 -9.34561 19
790 1 -5.25879 -14.5245 -2.76683 14
791 1 -0.882584 -10.2469 -10.8863 13
792 1 1.2128 -7.0791 -6.57037 21
793 1 2.99251 -9.66991 -6.06187 23
794 1 2.59274 -11.7004 -3.64976 21
795 1 1.49343 -9.059 -3.62872 22
796 1 3.47413 -5.8066 -13.9108 10
797 1 1.92522 -2.92005 -13.8693 13
798 1 1.5134 -0.954267 -11.314 21
799 1 3.62947 -3.17511 -11.1538 21
800 1 2.64442 -5.81713 -9.1565 22
801 1 1.15818 -3.07864 -8.5978 21
802 1 1.47772 -1.12222 -6.14274 21
803 1 2.6419 -4.12179 -5.89827 22
804 1 2.92242 -5.89759 -3.45367 23
805 1 1.02384 -2.73669 -3.32253 22
806 1 5.11939 -12.8764 -6.08285 17
807 1 6.97056 -14.2737 1.56971 13
808 1 6.61318 -6.80738 -12.6254 11
809 1 7.8874 -9.88522 -11.2733 10
810 1 7.16539 -11.6768 -8.50658 13
811 1 4.55922 -8.72407 -8.74402 19
812 1 4.45637 -6.78195 -6.6007 21
813 1 5.61364 -9.7941 -6.3367 22
814 1 6.53964 -11.5099 -4.028 19
815 1 4.71087 -8.66641 -3.76109 20
816 1 10.6999 -8.11261 -10.7924 11
817 1 5.04255 -2.7014 -13.9675 12
818 1 5.2094 -0.856847 -10.9303 20
819 1 6.62226 -3.6869 -11.1009 16
820 1 6.33203 -6.16977 -9.19214 18
821 1 4.36988 -2.97015 -8.38877 24
822 1 4.50154 -0.906492 -6.00196 25
823 1 5.9683 -3.89439 -6.11931 22
824 1 6.33416 -5.84044 -3.38029 20
825 1 4.2959 -3.0207 -3.76341 19
826 1 8.22717 -10.8117 -6.29356 16
827 1 12.9113 -8.0382 -8.12813 10
828 1 8.49286 -8.91582 -8.69405 21
829 1 8.21169 -6.80101 -6.67037 21
830 1 10.279 -9.37526 -5.97323 18
831 1 10.212 -11.3169 -3.53063 11
832 1 8.22219 -8.89073 -4.04611 21
833 1 8.94472 -3.78767 -12.065 14
834 1 8.25489 -0.730232 -11.5055 17
835 1 11.8505 -4.74553 -10.7414 12
836 1 9.28764 -5.68245 -9.28097 21
837 1 7.87316 -3.0269 -8.53464 20
838 1 7.80872 -0.954243 -6.0364 20
839 1 9.50885 -3.82052 -6.08262 22
840 1 9.60395 -5.70684 -3.23208 22
841 1 8.03675 -3.02691 -3.56551 23
842 1 10.3614 -10.7842 -9.10348 13
843 1 11.5374 -6.27033 -6.45909 21
844 1 11.72 -8.11913 -2.97849 16
845 1 16.4482 -2.41593 -6.49489 7
846 1 14.1996 -4.732 -8.3521 10
847 1 11.2916 -3.05153 -8.37009 21
848 1 11.5317 -1.4678 -5.73424 18
849 1 13.3015 -4.12322 -5.89071 17
850 1 13.076 -5.39888 -3.36636 15
851 1 11.5623 -3.04591 -3.26642 23
852 1 15.0869 2.36341 -8.7016 9
853 1 14.8625 -2.72583 -3.07234 16
854 2 -2.4482 -14.5193 -7.01434 15
855 2 -0.889588 -11.6151 -6.86906 21
856 2 1.10405 -15.7665 -2.22821 14
857 2 1.30679 -12.6012 -4.48881 24
858 2 2.98709 -15.3762 -4.48392 14