ITEM: TIMESTEP
303000
ITEM: NUMBER OF ATOMS
1500
ITEM: BOX BOUNDS pp pp pp
-30.0 30.0
-30.0 30.0
-30.0 30.0
ITEM: ATOMS id type x y z Coordination
1 1 -4.97543 -1.74836 -8.34771 25
2 1 -15.1859 -5.21532 8.97027 5
3 1 -11.0226 -10.5998 -3.17197 13
4 1 -16.3343 -0.789864 -1.9809 19
5 1 -10.5224 -8.90372 -6.41135 11
6 1 -5.28868 -7.49974 -0.233145 18
7 1 -7.36279 -7.79895 4.2272 16
8 1 -9.39477 -5.75722 -4.45649 22
9 1 -2.88136 2.12546 -16.3282 10
10 1 -10.5156 -6.02837 -8.72441 12
11 1 -6.75934 -1.6091 -14.4577 10
12 1 -4.61824 -0.715759 -11.9694 17
13 1 -9.17796 4.89159 -9.21461 16
14 1 -14.7286 -3.53812 -2.41169 20
15 1 -2.88344 -13.4892 -6.19426 13
16 1 -14.2133 -8.45472 1.29396 12
17 1 -6.92949 -13.6878 -5.0673 9
18 1 -1.29488 5.3862 -14.0738 12
19 1 -6.07014 -10.0114 -8.34208 10
20 1 -2.96714 -11.6465 -9.4297 13
21 1 -3.06897 -10.0075 -6.7465 17
22 1 -4.23269 -14.4582 -3.38627 17
23 1 -3.60408 -9.32159 -12.1583 10
24 1 -1.77246 -12.3941 -2.73023 20
25 1 -9.3455 -8.02058 -3.30955 21
26 1 -4.56666 11.2901 -10.0036 13
27 1 -7.01396 0.4721 -10.1498 17
28 1 -1.70417 8.20977 -5.13045 19
29 1 -5.48393 -9.11551 -5.25439 20
30 1 1.89334 -8.313 -9.7669 17
31 1 -5.18707 0.755621 -5.23649 16
32 1 -8.64212 -1.6869 -8.56204 21
33 1 -11.8555 -4.92168 -3.0778 21
34 1 -6.65893 -8.67635 -2.84486 19
35 1 -16.2867 1.57102 -3.74 12
36 1 -1.19017 -16.5714 -2.09457 14
37 1 -2.31568 -13.5655 2.9814 19
38 1 -12.5607 -5.74287 -6.329 16
39 1 8.35587 1.26718 -14.1113 10
40 1 -4.82292 -3.02594 -2.86957 22
41 1 1.73077 -12.1751 -4.49318 19
42 1 -7.9446 -11.1421 -4.18814 19
43 1 -1.2665 -10.9342 -5.09508 18
44 1 -1.05665 -14.5058 -4.77614 18
45 1 -5.09043 -12.0525 -5.92377 16
46 1 2.66254 2.75 -10.983 14
47 1 -2.77607 8.00075 -9.77323 20
48 1 -15.3071 -6.21445 -4.3871 11
49 1 -5.17971 -1.61458 -0.0334418 22
50 1 -11.581 -0.519424 1.49299 17
51 1 -3.63379 -1.55845 -5.46557 21
52 1 -1.05158 -0.814815 -0.573965 21
53 1 -4.51115 -4.42643 -6.46875 19
54 1 -6.75324 -3.33416 2.695 23
55 1 -6.94865 -0.828288 -2.95594 22
56 1 0.556066 -17.3492 4.86746 14
57 1 7.12421 -14.1971 -2.75738 15
58 1 -0.606981 -14.4284 -8.57407 8
59 1 1.79621 -9.80867 -6.74973 20
60 1 -2.66156 10.3264 -12.1548 8
61 1 -9.02873 -13.0707 -1.96743 12
62 1 3.69083 -7.66461 -7.56373 20
63 1 -3.13392 -0.762844 -15.0331 13
64 1 -4.69199 -4.86337 -9.41732 20
65 1 1.60876 -5.87698 -7.71998 19
66 1 -6.94408 -6.8843 -9.17082 15
67 1 -4.90719 -6.35537 -3.13031 23
68 1 -9.54906 2.05481 -14.0264 9
69 1 -10.0855 -0.430499 -11.6456 10
70 1 -6.05591 2.01705 -15.6972 9
71 1 -3.30307 -5.60145 -14.875 6
72 1 -6.75915 -6.47098 -5.55359 21
73 1 -2.94055 -2.56152 -10.0684 17
74 1 -1.25998 3.01054 -7.72076 19
75 1 4.46245 -10.6513 -7.95022 13
76 1 2.76217 -9.70535 -3.09428 18
77 1 -3.97055 -0.34658 -2.58903 20
78 2 -16.0081 -2.20921 -5.60999 13
79 2 -8.81438 -6.05115 -8.48865 14
80 2 -17.4188 -5.37464 -0.17002 10
81 2 -13.005 -1.89028 0.939347 19
82 2 -2.96225 -11.6788 -5.97957 20
83 2 -5.97382 -10.3581 -3.53431 21
84 2 -12.8585 -8.02794 -0.165341 16
85 2 -7.24517 -0.84807 -5.06741 21
86 2 -10.3319 -9.71458 0.67334 18
87 2 -9.60366 -11.9411 5.46377 18
88 2 0.0195144 -4.4089 -7.17903 20
89 2 -3.63791 -3.46516 0.32046 19
90 2 -7.07497 11.3125 -1.95446 19
91 2 -9.56507 4.03687 -13.7698 12
92 2 -6.37428 -2.28395 -12.7621 12
93 2 -17.6583 -1.39666 -0.710652 10
94 2 -3.60768 -8.77439 -4.95084 19
95 2 -16.2357 2.58266 -2.23375 13
96 2 -2.52277 -8.6222 3.4955 20
97 2 0.124828 -11.6976 -3.9003 18
98 2 -6.59127 -5.76172 -0.0100222 21
99 2 -5.93287 -16.344 -0.322848 12
100 2 -1.144 0.910788 -12.0721 16
101 2 -12.8799 -9.92882 -2.77483 11
102 2 -4.35755 -13.9595 0.891402 22
103 2 -9.99959 -6.3056 -0.00990931 19
104 2 -13.0998 -11.3672 0.0766936 11
105 2 -5.5266 -8.04062 -8.61042 17
106 2 -3.97193 -7.68104 -11.5223 14
107 2 -10.0397 9.08189 -0.939022 15
108 2 -10.755 -8.93385 -4.19154 14
109 2 -13.5268 -6.89162 -5.09599 15
110 2 -7.61839 8.03812 -6.33988 17
111 2 -16.1889 -6.09231 -2.58165 12
112 2 -16.6789 -2.73498 -2.34971 14
113 2 -6.38376 -7.51672 -4.16032 22
114 2 -9.87751 0.515052 -6.94837 16
115 2 -15.2038 -7.11988 1.71016 12
116 2 -1.85589 -6.43637 -13.9412 11
117 2 -1.53206 -14.6798 -6.77991 10
118 2 -4.36283 -8.00823 -2.08694 19
119 2 -4.79005 -8.67873 1.55163 23
120 2 -14.5986 -4.27655 -4.26368 18
121 2 -4.24147 -4.90221 -13.1837 14
122 2 -2.84098 -10.6252 -10.9201 10
123 2 -6.20091 -5.42629 -10.6517 15
124 2 6.13664 5.6783 -12.225 12
125 2 -7.10498 -8.41126 -0.599483 23
126 2 -2.22446 -2.85104 6.59491 18
127 2 5.37804 -5.84893 -4.87443 20
128 2 -0.661959 -16.011 -3.72296 13
129 2 -0.569059 -6.05955 -4.76976 15
130 2 -3.25824 -6.08754 -9.00129 19
131 2 -6.78753 4.45118 -12.5914 17
132 2 -7.46645 1.05576 -8.18417 20
133 2 -3.87722 -5.73567 -4.85222 19
134 2 -10.7412 -1.4962 -4.3104 19
135 2 2.88704 4.80965 -10.3743 21
136 2 -5.92442 -5.1452 -7.33174 21
137 2 -0.147061 -6.56822 3.71816 21
138 2 -10.6088 -1.35409 -0.389805 19
139 2 -1.8501 -1.72976 -6.80156 24
140 2 -0.951478 -3.46655 3.50404 18
141 2 -9.05104 -11.9449 2.19983 19
142 2 -4.92768 -13.769 -5.21121 14
143 2 -2.45768 -13.7186 -3.8293 18
144 2 -5.07523 -10.0811 -6.74768 17
145 2 5.53983 -8.85339 -3.51 19
146 2 0.237309 -16.6806 -0.573741 16
147 2 0.546304 -5.80185 -12.1968 14
148 2 -3.44661 -16.7251 5.94725 13
149 2 -8.36368 -3.59101 -9.86634 17
150 2 -3.20521 -1.33311 -13.0988 16
151 2 -1.15187 -1.03512 -15.0978 15
152 2 -1.56579 -5.66753 -2.05595 17
153 2 -10.6545 -4.1752 -4.65407 22
154 2 -3.68766 -3.21766 -7.778 18
155 2 6.5935 -8.4445 2.71129 13
156 2 -1.78851 -9.23607 -12.6456 8
157 2 12.7973 4.51439 -1.72716 20
158 2 5.08901 3.61421 -14.8686 13
159 2 -8.77513 -0.372488 -10.0204 19
160 2 0.534591 -6.96403 -9.12961 17
161 2 -6.8607 -2.00101 -8.35121 20
162 2 1.19801 10.0276 -7.48197 16
163 2 6.01743 -1.57487 -14.4951 12
164 2 2.31419 -1.43638 1.63014 15
165 2 1.03538 -3.83363 8.8195 19
166 2 -5.57693 -4.72827 -2.15369 24
167 2 1.8274 -7.69264 -7.02156 20
168 1 -17.5767 -3.35603 -0.643706 12
169 1 -14.1124 -6.39874 -1.2266 20
170 1 -17.7875 -0.134779 0.658653 8
171 1 -6.93511 -5.78192 1.86958 21
172 1 -12.3886 -8.0525 -3.53996 17
173 1 -16.0768 -5.41035 1.15611 12
174 1 -12.5306 9.20491 -7.86228 15
175 1 -13.7652 0.86967 -1.70299 20
176 1 -13.5273 -3.87104 1.09293 19
177 1 -17.2369 -2.11403 -4.22397 11
178 1 -15.0884 -0.529399 -5.3013 15
179 1 -12.8402 -11.1813 2.10506 14
180 1 -12.276 -2.19285 -1.00327 20
181 1 -5.80133 -11.9064 -1.98143 23
182 1 -7.20225 -16.2846 1.27187 11
183 1 -14.2708 -3.39318 5.92384 11
184 1 -9.76079 2.42015 1.88992 18
185 1 -10.1524 -2.98333 2.78481 19
186 1 -17.738 -6.26367 -1.65732 8
187 1 -11.2778 -11.6336 4.82657 14
188 1 -12.5919 -8.8358 6.29435 13
189 1 -10.9967 -5.66237 9.81414 10
190 1 -9.3475 -8.18438 8.42931 18
191 1 -9.52371 0.0753214 3.9185 20
192 1 -14.0941 4.1679 2.10334 13
193 1 -13.0399 -8.12098 9.07294 10
194 1 -8.29899 -6.67344 -0.725534 21
195 1 -9.30423 -13.8527 5.8919 12
196 1 -10.0609 -6.30873 6.08608 16
197 1 2.08399 -16.9554 -1.03197 14
198 1 2.19759 -10.9505 -0.38799 18
199 1 -2.54502 -10.5148 3.42193 20
200 1 -14.1365 -9.40096 4.2678 12
201 1 -3.89368 -14.7295 5.88266 20
202 1 -6.39189 -11.3557 3.8471 18
203 1 -4.68658 -12.3251 9.21624 10
204 1 -4.5737 -11.2545 6.06589 17
205 1 6.39412 -4.52274 7.11323 16
206 1 -6.22746 1.03363 -1.05496 18
207 1 -3.24003 -7.74416 2.07958 20
208 1 -7.27742 -2.94926 -5.35416 23
209 1 -6.14135 -7.50015 6.97718 17
210 1 -8.02647 -4.034 11.1759 10
211 1 -1.71472 -2.06523 2.36129 18
212 1 -4.72613 -6.7179 9.65183 17
213 1 -7.91974 7.01249 9.83791 12
214 1 -8.03877 -10.9318 5.90518 19
215 1 -9.84015 1.41047 9.30296 12
216 1 -8.11592 -4.15273 5.24362 17
217 1 -6.80122 -9.38559 9.35143 12
218 1 -6.81891 -9.13323 1.37685 22
219 1 -2.12113 -16.5501 4.13932 15
220 1 -3.1501 -14.1867 -0.868212 21
221 1 -8.82837 -11.9308 8.38255 12
222 1 -1.56766 -6.26912 9.81974 20
223 1 -6.05836 -14.282 -0.282605 17
224 1 -5.07581 -11.8674 0.805588 19
225 1 -7.60805 -12.4548 0.915189 20
226 1 -3.58897 -8.24062 5.12328 20
227 1 -8.70554 -9.94068 -0.846333 21
228 1 0.65452 -8.57026 9.15882 17
229 1 -1.0872 -11.751 1.08666 19
230 1 0.374854 -17.5953 1.22833 11
231 1 -3.51037 0.696888 15.4108 7
232 1 -11.9069 -5.12026 3.72932 16
233 1 -3.59427 -9.54182 9.07984 16
234 1 -3.27755 4.33615 -9.34053 19
235 1 0.357533 1.12645 4.96955 18
236 1 -1.94162 -7.61457 7.04044 21
237 1 -5.71984 1.15823 5.72012 20
238 1 -9.8231 -0.977964 10.2021 9
239 1 2.91322 -1.73255 3.61014 13
240 1 -7.60612 -0.765306 12.0407 10
241 1 3.16315 -8.1192 7.54938 19
242 1 -0.013934 3.92562 12.7489 11
243 1 -0.220512 -2.10381 10.5357 18
244 1 -1.63718 -11.0336 6.28299 16
245 1 -1.313 0.459152 12.6198 15
246 1 3.40099 -5.22203 -2.44155 18
247 1 -3.9747 -5.06785 7.32155 19
248 1 0.853264 -13.4503 -2.42416 20
249 1 3.48612 -12.1114 10.7059 10
250 1 6.39553 -14.8496 3.47054 11
251 1 -0.276645 -12.6593 5.1329 18
252 1 6.12392 -8.1376 10.0205 18
253 1 -1.25591 -5.04262 2.14329 17
254 1 -0.898094 -1.8781 -3.48386 19
255 1 -3.80482 -9.73928 -3.47589 20
256 1 -5.22365 -16.9749 4.90861 10
257 1 0.991553 -5.00353 15.2758 12
258 1 -0.318994 -10.1864 -2.51708 20
259 1 -11.0435 -11.4265 0.0186247 17
260 1 -4.56361 -14.8562 2.67645 20
261 1 -0.840607 -4.74011 13.1889 20
262 1 0.952278 -7.39576 13.6826 12
263 1 5.96591 -6.0396 12.1859 20
264 1 -1.86717 1.18674 3.38306 22
265 1 -0.796422 4.25695 4.84598 22
266 1 -5.05569 -5.58727 4.3927 19
267 1 -0.567653 0.227835 8.35125 20
268 1 1.73217 1.90887 11.0517 19
269 1 -2.42429 1.89896 6.84244 21
270 1 0.925076 -2.16622 13.2258 17
271 1 -2.00303 -7.09564 14.106 10
272 1 -5.04114 -4.95474 13.0844 9
273 1 -6.62498 -13.7463 6.91551 14
274 1 3.52433 -2.1307 15.3027 10
275 1 -12.3774 -11.4878 8.80878 5
276 2 -8.80341 -6.30462 -2.69282 24
277 2 -12.0237 1.08799 -2.75312 18
278 2 -8.86324 -5.02106 9.78302 10
279 2 -6.67486 7.6092 5.42658 16
280 2 -7.99468 -2.67841 -2.61034 26
281 2 -11.7635 -2.03359 6.11207 15
282 2 -12.7817 7.78926 -4.05503 18
283 2 -10.1414 -4.35204 4.7061 14
284 2 -6.34544 -16.1741 3.25102 13
285 2 -4.50423 -10.6519 4.23989 20
286 2 -12.96 -3.92865 -6.84131 14
287 2 -11.1096 -7.61309 9.3988 10
288 2 -14.5066 -7.59419 5.00807 12
289 2 -5.71235 -7.39977 5.10087 20
290 2 -8.90505 -0.544724 5.83834 20
291 2 -6.83379 -11.8688 -5.61061 12
292 2 -12.6809 3.67482 3.32979 15
293 2 -11.7427 -4.33301 2.04991 17
294 2 -5.70729 -5.49557 8.27004 14
295 2 -14.5524 -4.43381 -0.570226 21
296 2 -5.94977 -0.881747 11.5346 14
297 2 -14.7545 -4.41096 7.54014 6
298 2 -10.2199 -0.33981 8.43237 14
299 2 -7.55117 -12.2618 -0.966164 19
300 2 -2.87206 -16.0854 -1.37915 14
301 2 -12.0717 -12.503 3.2467 12
302 2 -13.7786 -9.71694 2.51392 13
303 2 -12.381 -10.094 4.98587 11
304 2 -1.53067 -9.23021 5.9534 22
305 2 -10.6512 -11.6674 8.54663 10
306 2 -4.06366 -8.03534 7.99916 19
307 2 -8.37112 -13.515 7.46813 12
308 2 -12.6137 -6.58016 -2.53693 22
309 2 3.7778 3.72826 13.1833 12
310 2 0.0485585 -4.98242 6.24278 14
311 2 -7.60435 -9.65939 3.57629 16
312 2 -16.4831 -1.4017 1.78577 12
313 2 0.285643 -9.9671 1.80063 16
314 2 -10.7248 -1.05583 3.17773 19
315 2 -11.0476 -4.01738 -1.50371 23
316 2 -7.4416 -7.34205 8.62519 15
317 2 -11.6738 -7.31609 6.24031 17
318 2 -4.58577 -4.45931 5.76918 19
319 2 -8.99438 -14.6903 4.14518 13
320 2 -0.928452 -16.9793 5.96272 11
321 2 -5.89462 -15.0999 5.89359 13
322 2 4.39305 -12.7722 -0.380421 19
323 2 -2.29005 -8.03795 9.67483 16
324 2 -6.51987 -11.8464 6.11837 18
325 2 -2.42751 -15.9515 8.35168 9
326 2 -3.42232 -5.73075 2.54911 20
327 2 -8.50341 -9.68335 -2.89127 19
328 2 -5.34828 -10.4724 9.30803 14
329 2 -3.21483 -5.88096 13.131 14
330 2 7.88344 -5.16946 8.43903 19
331 2 -3.22648 -5.46194 9.43482 16
332 2 -0.463302 4.32642 8.55019 18
333 2 -2.96204 -11.4085 1.18457 19
334 2 -1.96196 -13.1003 9.78555 11
335 2 -5.79179 18.5596 0.647025 7
336 2 0.259585 11.3083 8.69629 12
337 2 -3.60828 1.38759 2.43191 20
338 2 -0.354012 -3.35561 14.2451 15
339 2 -4.00808 2.23516 14.6215 7
340 2 -6.69275 0.0163911 6.95595 15
341 2 -3.6105 -11.0598 7.70016 16
342 2 1.23931 -8.40263 -0.32459 17
343 2 0.0310733 -10.2524 9.94244 14
344 2 -4.0279 5.41776 12.0955 13
345 2 2.34463 -6.94555 8.88406 18
346 2 6.51912 -2.30674 3.35217 19
347 2 -3.80764 -16.661 2.13715 14
348 2 2.84003 -10.8559 1.3238 17
349 2 6.93428 -10.045 13.0906 13
350 2 1.36674 -9.14994 4.22581 19
351 2 -6.64583 -11.4984 2.10108 19
352 2 -2.31977 -10.5583 -2.7314 19
353 2 2.54058 -5.37206 11.6236 21
354 2 11.6852 -9.51515 0.576722 13
355 2 -4.79417 -13.7579 7.86438 13
356 2 -0.857492 -13.7235 1.78394 21
357 2 -7.23918 -14.3708 1.40096 15
358 2 -0.277893 -6.04477 14.4477 13
359 2 1.51775 -2.54101 11.1862 18
360 2 -5.0921 -2.68545 -5.05964 23
361 2 -5.60131 -1.93802 6.25683 17
362 2 3.01062 3.77007 -7.52681 19
363 2 -0.338444 2.1787 2.58146 19
364 2 3.58183 -1.53797 7.87129 19
365 2 -2.38412 -0.930934 14.8148 9
366 2 -0.351866 8.16192 6.92103 19
367 2 -8.04957 -0.208716 -1.19484 19
368 2 2.61425 -3.70188 14.8769 13
369 2 -3.16118 -14.912 4.27026 18
370 2 2.34518 -6.55298 15.3806 11
371 2 2.66757 0.230677 10.5334 18
372 1 -6.80717 6.50048 -13.115 13
373 1 -14.3008 -3.11926 -5.72934 17
374 1 -9.37516 1.32043 -8.88357 15
375 1 -6.77561 -3.4666 -11.0794 17
376 1 -14.0005 2.72861 -5.92678 12
377 1 -13.6394 7.55834 -6.00795 16
378 1 -8.39171 3.61656 -11.7652 18
379 1 -4.47613 -5.84556 -11.6502 15
380 1 -6.81411 -0.511311 -7.11481 18
381 1 -13.9765 11.6374 -5.50866 12
382 1 -12.0979 2.87132 0.0531349 19
383 1 -8.42531 5.14307 2.30394 17
384 1 -12.4016 -0.815548 -3.94649 18
385 1 -12.4344 5.82788 -9.31085 10
386 1 -10.3182 10.671 -9.99568 11
387 1 -5.68291 13.877 2.31775 16
388 1 -1.15874 12.5711 -0.358931 22
389 1 -10.8124 -3.24276 -6.25559 21
390 1 -8.05314 4.28951 -14.9435 12
391 1 -16.0647 9.16245 -8.03837 7
392 1 -2.90223 -7.16989 -5.76551 21
393 1 -7.16717 2.94577 -8.7212 15
394 1 -7.87155 -4.10874 -8.10138 21
395 1 -12.2365 -1.39196 -10.1771 11
396 1 -6.0437 9.89827 -1.45255 19
397 1 -10.0458 -2.84419 -2.85822 22
398 1 -7.67301 -4.70097 -2.72256 21
399 1 -4.63999 2.88641 -2.86982 20
400 1 -5.48492 3.18209 -11.5582 14
401 1 -13.1885 -0.33634 -7.34281 17
402 1 -13.189 -3.66099 -8.64379 12
403 1 -7.35162 8.70961 -9.90391 16
404 1 -16.7243 12.1939 -4.0667 10
405 1 -11.0368 13.3987 -1.55847 15
406 1 -3.01711 11.4537 -6.95462 16
407 1 -9.32055 5.24102 -3.76543 16
408 1 -10.1838 -3.6629 -10.61 12
409 1 -9.53613 -0.320542 -5.09013 19
410 1 -11.8757 6.02331 -3.24684 22
411 1 6.00137 2.39755 -13.7649 14
412 1 -7.80497 11.7345 -9.157 12
413 1 -3.45197 4.71982 -4.92965 19
414 1 -6.41319 6.4721 -6.94529 14
415 1 -4.30388 1.26794 -9.68313 16
416 1 -1.54941 2.52869 -10.5248 18
417 1 -4.47564 2.86177 8.90999 19
418 1 -5.36671 4.75472 2.0503 16
419 1 -2.73229 6.2353 -2.17433 17
420 1 -4.68561 7.22665 -0.278485 21
421 1 -1.32611 -1.31424 -13.1944 16
422 1 -8.8501 10.5833 -2.30253 19
423 1 -6.24233 12.2302 -3.78544 19
424 1 0.6088 6.57938 -3.78162 19
425 1 -7.91355 13.4078 -5.79012 12
426 1 -16.4037 9.28675 -5.20083 14
427 1 -1.44002 10.7699 -4.55832 18
428 1 -6.67649 3.76797 -5.49423 14
429 1 -2.87056 15.1594 0.596207 18
430 1 -10.5535 10.8653 -0.0723124 19
431 1 -10.9104 12.3075 -4.34201 16
432 1 -5.7328 16.8967 -3.87112 9
433 1 -8.49189 15.2813 0.926619 10
434 1 8.25821 -3.18439 -8.78317 18
435 1 -4.22172 -3.11111 -13.7897 15
436 1 -11.0054 4.99987 -13.2009 7
437 1 -1.57436 3.28826 1.66404 19
438 1 -2.16196 -0.208775 -8.08373 18
439 1 1.16438 0.579675 -8.2093 16
440 1 -13.8355 10.4965 -2.80938 15
441 1 -0.67042 9.93804 -8.03756 25
442 1 3.38604 -1.12357 -7.29146 19
443 1 -5.35536 9.18707 -8.31485 15
444 1 -0.863295 2.52923 -13.591 17
445 1 -4.84128 4.77441 -14.7065 13
446 1 -10.6749 8.22229 -4.94327 19
447 1 2.71548 5.5921 -5.97888 18
448 1 3.00705 -0.434202 -16.4858 9
449 1 -9.7775 7.15588 -11.3952 13
450 1 1.26166 11.1405 -10.9971 13
451 1 -3.09156 4.54076 -12.1767 17
452 1 -3.87537 6.75185 -7.16993 19
453 1 3.97517 16.4838 -1.82365 11
454 1 5.4633 13.0842 -6.13942 14
455 1 11.9538 8.50522 0.244461 15
456 1 -5.64432 6.26742 -10.0403 20
457 1 -11.1269 5.36163 -6.81452 14
458 2 -11.6789 6.06454 -11.3455 8
459 2 -7.67171 2.84921 -10.3951 15
460 2 -8.86526 -2.69042 -6.77066 18
461 2 -10.9632 6.41211 -1.53674 18
462 2 -12.4597 9.19894 1.09173 13
463 2 -13.3147 -1.252 -5.6561 17
464 2 -7.97444 -13.2568 -3.7246 13
465 2 -15.0911 13.2867 -4.14929 9
466 2 -14.5045 5.79627 -2.06375 14
467 2 -9.49092 3.06939 -7.94534 14
468 2 -5.47561 1.05085 -11.1589 15
469 2 -11.0576 -4.22798 -9.20013 15
470 2 -5.00452 -3.07854 -10.4423 19
471 2 -3.7142 -0.611771 -9.76793 19
472 2 -6.97096 9.21485 2.15762 17
473 2 -14.1793 3.62198 0.487728 15
474 2 -15.2433 0.031505 -0.611122 17
475 2 -8.81195 0.753175 2.13814 17
476 2 -11.9125 3.25814 -5.46634 13
477 2 -2.78064 6.01172 -8.52427 24
478 2 -12.5796 7.10474 -7.85394 13
479 2 -11.1327 6.6073 3.12446 22
480 2 -7.84611 3.91276 -3.99123 14
481 2 -18.2222 11.2529 -4.92031 6
482 2 -8.47859 10.7903 0.351461 16
483 2 -3.58483 7.49346 1.9665 19
484 2 0.886901 -9.54058 -10.8763 12
485 2 0.371721 6.76455 -10.094 18
486 2 -1.37111 4.15374 -9.61667 15
487 2 -8.66853 4.76407 0.392071 17
488 2 -13.1057 -2.45172 -2.72447 20
489 2 -5.43935 5.27659 0.22921 18
490 2 -0.11329 -10.1336 -6.52838 14
491 2 -7.47563 -7.54172 2.11969 16
492 2 -6.58794 -2.67371 0.911382 19
493 2 -10.6701 4.27549 -2.76454 17
494 2 -7.14199 2.72706 -1.32696 17
495 2 -11.9061 0.622818 -10.3493 11
496 2 -4.48964 6.94695 -2.67696 18
497 2 -9.28251 9.01894 -3.7985 18
498 2 -15.0866 -4.19724 2.44355 15
499 2 -9.30443 13.2839 -4.61878 16
500 2 0.0555331 11.2182 -0.483887 18
501 2 -12.3602 12.7657 -2.71822 14
502 2 -13.9889 1.40675 -7.4858 10
503 2 -4.74826 1.33834 -1.89943 17
504 2 -10.7139 5.61621 -8.81494 10
505 2 -12.0013 10.5632 -9.13097 10
506 2 -12.6084 9.30142 3.79225 11
507 2 -9.51478 11.1301 -7.96083 17
508 2 -4.53688 10.5143 -7.27268 18
509 2 -5.19906 12.9974 -5.37759 12
510 2 1.16559 1.91032 -13.0307 15
511 2 -3.67518 -0.0668101 -4.26648 18
512 2 -4.44927 5.19825 -11.001 18
513 2 -1.29589 5.88324 -4.03543 19
514 2 -5.79387 2.45772 -4.44367 20
515 2 -2.7091 -2.90677 -3.17239 19
516 2 -6.50247 3.41408 2.70954 21
517 2 -1.68099 9.94984 -6.38869 18
518 2 -3.73126 -2.26108 3.47933 21
519 2 1.75726 3.59812 -15.1453 13
520 2 -7.81457 1.99398 -14.6542 10
521 2 -1.3842 6.99038 -6.37029 21
522 2 -8.95752 -2.96569 1.12815 19
523 2 -7.17486 7.33513 -11.1911 13
524 2 -3.08835 5.17609 -14.1599 12
525 2 -8.21845 6.67784 -3.12072 18
526 2 -6.47142 10.4572 -9.403 14
527 2 -7.40792 12.4841 -7.24664 11
528 2 -7.85582 11.3484 -4.89568 17
529 2 -11.9941 11.8193 -5.74676 15
530 2 -7.60516 14.4757 -0.303349 17
531 2 -17.3557 9.64185 -6.84635 8
532 2 -15.2026 10.8586 -4.27661 16
533 2 9.00034 9.74904 -5.45914 16
534 2 -9.35004 5.15286 -11.2702 14
535 2 -9.24602 9.2076 -9.79969 13
536 2 8.45043 7.53209 -7.83286 19
537 2 -2.3884 3.45074 -5.72626 18
538 2 -7.82345 -4.82258 -4.75522 20
539 2 -6.61268 5.58424 -14.9758 9
540 2 -1.61399 2.74803 -15.3805 16
541 2 -1.55303 2.34738 -0.141236 20
542 2 3.48274 9.41567 0.725565 16
543 2 -9.54872 12.2155 -1.45605 16
544 2 1.74455 7.77573 -2.73902 17
545 2 1.29423 -1.31691 -11.223 17
546 2 -14.7115 1.29573 -4.70133 17
547 2 -5.78916 9.02977 -3.2199 18
548 2 9.17843 10.5047 -9.39783 10
549 2 -1.07146 8.25752 -9.0947 18
550 2 2.61292 -1.52156 -14.8999 12
551 2 0.487305 0.454989 -1.70333 19
552 2 -2.75149 12.0019 -11.2998 7
553 2 6.9558 13.2933 -0.822386 14
554 2 1.01797 13.9114 -4.19444 17
555 2 0.368129 6.51778 -14.1918 9
556 2 -2.51266 13.8163 -0.886998 20
557 2 -10.969 6.29273 -5.07359 18
558 2 -1.63436 15.2398 -3.63166 12
559 2 -2.26218 8.31896 -11.7343 13
560 2 2.91859 11.2061 -9.89276 15
561 1 -16.7835 2.56976 -0.559678 10
562 1 -15.6951 6.09045 -3.8681 10
563 1 -15.6167 -2.40958 3.20627 11
564 1 -10.9807 -7.97605 -0.087618 17
565 1 -7.22618 -1.19593 5.43204 16
566 1 -9.30277 7.74699 -2.07839 21
567 1 -13.6012 -10.2404 -1.30353 14
568 1 -11.768 2.75194 -3.30517 17
569 1 -10.9561 -4.83892 0.285454 20
570 1 -9.65572 5.57268 5.27121 21
571 1 -10.1416 -13.491 2.67963 12
572 1 -13.9927 7.51237 -2.5533 16
573 1 -11.4663 10.3509 3.08646 13
574 1 -7.07881 1.06357 2.3037 19
575 1 -13.7484 5.4654 -0.307702 16
576 1 -11.3659 4.84354 2.55327 19
577 1 -12.0217 -1.7357 4.39245 17
578 1 -14.7529 -0.663577 1.04587 13
579 1 -5.28713 -4.15109 -0.217362 18
580 1 -12.4931 5.7711 5.07158 18
581 1 -14.9388 -6.1571 3.55442 14
582 1 -9.38004 -10.2356 2.79867 20
583 1 -11.2552 13.4514 1.96081 6
584 1 -7.79477 12.4722 -0.515141 19
585 1 -13.3138 8.60664 5.38295 9
586 1 -13.0937 2.13871 -9.32797 10
587 1 -18.8611 10.8933 -6.58176 5
588 1 -4.45435 2.79274 3.72077 20
589 1 -7.76782 3.29528 4.40738 20
590 1 -8.00295 8.6228 4.39589 18
591 1 4.84537 14.0284 0.00216656 17
592 1 -4.68505 18.0288 -0.784785 13
593 1 -14.7707 3.83571 -2.28509 16
594 1 -3.80368 -3.9453 2.0689 19
595 1 -8.37802 1.18516 7.16923 21
596 1 -8.13804 8.46813 0.838639 17
597 1 -12.5597 3.22801 10.6306 3
598 1 -11.7702 2.76362 4.58766 12
599 1 -11.1668 -0.262693 6.89269 15
600 1 -14.0301 -6.25113 6.54956 13
601 1 -7.52708 -5.34958 8.19555 15
602 1 -8.04437 -3.02888 -0.461625 21
603 1 -8.90922 -0.785609 0.754798 20
604 1 -10.1609 -3.08033 6.38214 15
605 1 -5.55465 8.04617 2.45293 18
606 1 1.73976 15.2142 0.158965 18
607 1 -0.399691 14.4977 2.99105 19
608 1 -4.22617 10.7305 0.974902 21
609 1 -6.0307 15.1048 -1.38303 19
610 1 -7.09935 2.08358 10.7057 14
611 1 -10.1544 7.53605 7.1075 13
612 1 -11.4905 2.85054 7.32141 13
613 1 -13.8344 10.548 -0.0124679 12
614 1 -2.32755 5.78924 11.2359 17
615 1 -4.3538 8.26833 -3.99723 17
616 1 -11.5043 8.16083 -0.336601 17
617 1 -14.1307 13.4068 -2.59281 10
618 1 -10.0934 4.69547 -0.743614 20
619 1 -5.14049 14.5672 -4.00842 14
620 1 -8.1788 2.31587 -2.85432 18
621 1 1.24383 -4.81449 10.5978 18
622 1 -7.64808 3.77932 7.57299 18
623 1 -3.66811 0.662442 9.55464 19
624 1 -9.98102 0.432844 -1.79697 20
625 1 -1.7208 9.85786 6.33259 17
626 1 -3.16577 -2.48819 8.26529 19
627 1 -5.32262 6.96727 12.3026 13
628 1 1.88571 10.442 9.60276 12
629 1 13.5181 -7.28535 13.9074 6
630 1 -7.14204 -14.6854 4.21069 18
631 1 2.17232 14.3854 -6.97288 14
632 1 -4.0136 12.7196 -1.53084 16
633 1 3.63294 8.42998 2.47964 15
634 1 -4.77181 6.10482 9.47951 18
635 1 -6.41943 9.98786 10.6202 7
636 1 -4.65421 20.115 0.453485 5
637 1 0.684986 0.442451 2.15421 20
638 1 -6.30488 6.0624 -3.03072 21
639 1 -3.52572 15.3642 3.49859 14
640 1 -2.29702 13.0943 5.87341 13
641 1 -4.20093 -1.88644 11.1147 16
642 1 -5.70245 11.3189 3.95215 11
643 1 4.26377 12.7859 -9.41393 14
644 1 -9.19015 9.39897 -6.79657 19
645 1 -11.3169 11.2518 -7.25203 13
646 1 -10.7448 8.1837 4.2431 15
647 1 -5.08953 7.95692 6.37364 15
648 1 -2.54601 10.1451 -1.98727 21
649 1 3.42114 10.84 -0.747195 15
650 1 0.375105 3.01787 7.53886 17
651 1 -1.30877 7.40381 0.0103621 16
652 1 -0.802512 7.98849 8.81145 21
653 1 3.52576 4.31614 10.1919 18
654 1 10.5794 6.05144 11.1594 9
655 1 -4.17159 -2.60209 5.25784 19
656 1 -6.90581 4.4061 -0.45647 16
657 1 3.33283 -0.115123 12.2994 16
658 1 15.7133 -0.959013 12.8281 8
659 1 -3.59769 4.75633 6.0291 19
660 1 -8.93289 14.9813 -3.72382 14
661 1 1.61223 9.11276 -5.67834 19
662 1 -2.76111 5.83877 2.73435 21
663 1 10.2372 11.537 0.911136 10
664 1 4.29538 16.7013 1.52135 10
665 1 2.77553 14.179 6.18046 13
666 1 2.49491 5.03468 13.0423 10
667 1 -0.703218 15.6312 5.88387 10
668 1 -4.64629 -0.379467 2.70549 21
669 1 1.47039 18.9265 1.75309 7
670 1 4.13315 9.44398 9.8661 13
671 1 -8.20402 10.805 2.36316 14
672 1 1.56851 8.19852 -9.10915 21
673 1 -5.85399 11.525 -6.4921 16
674 1 0.512862 12.3451 6.98766 16
675 1 -2.47966 16.6886 -2.8459 14
676 1 -2.72384 12.4502 2.57289 20
677 1 -7.28996 7.07793 7.10114 15
678 1 -13.2005 7.7821 2.12115 15
679 1 -0.957869 15.1478 -1.6455 18
680 2 -18.2601 1.59664 -0.0503817 7
681 2 -16.4661 -0.291182 -3.76032 13
682 2 -10.2348 0.848564 -12.8921 8
683 2 -11.426 1.15874 0.495049 18
684 2 -14.9204 6.24828 -5.56653 13
685 2 -8.50621 -7.90623 5.90312 15
686 2 -0.610992 -8.0332 12.7823 12
687 2 -13.6207 -1.61553 -8.60062 12
688 2 -1.3553 0.349379 6.52908 17
689 2 -6.25071 3.4398 8.90397 16
690 2 -14.3943 9.00261 -7.26032 15
691 2 -11.4383 -7.14399 -6.98751 12
692 2 -13.6172 -5.17805 4.86454 16
693 2 -8.11179 -10.1038 8.07644 12
694 2 -11.1304 11.7033 1.84346 13
695 2 -12.8119 -9.84707 8.51139 9
696 2 -6.78117 -4.98829 3.58712 17
697 2 -6.6939 15.3405 1.88109 12
698 2 -14.0893 6.63681 5.03474 11
699 2 -3.40117 3.99798 2.58629 20
700 2 -10.2808 14.9971 1.54085 7
701 2 -11.4472 4.38198 5.88534 15
702 2 -10.8362 -2.08405 -11.4417 10
703 2 -15.5494 8.13242 -3.74429 12
704 2 -8.64235 6.648 8.087 13
705 2 -14.3307 -6.76636 8.63929 10
706 2 -13.292 2.81629 -1.56891 19
707 2 -1.56877 -0.695807 3.74934 17
708 2 0.853562 6.14871 12.7237 11
709 2 6.30032 10.8462 7.01895 15
710 2 -13.7117 6.04182 1.52251 14
711 2 -6.97451 6.49179 11.3876 11
712 2 -8.91633 -7.62793 -5.27838 16
713 2 -8.87884 -2.43876 10.948 8
714 2 -7.74285 5.14483 5.72857 20
715 2 -8.42211 0.767679 10.6846 15
716 2 -3.14487 18.9569 -0.0205531 11
717 2 -3.2075 4.21418 -2.73822 15
718 2 5.21309 12.5495 2.58953 16
719 2 2.0129 2.87953 9.42256 17
720 2 -7.29664 2.23334 6.01965 18
721 2 -4.18818 10.9312 -0.895588 17
722 2 -5.52184 16.928 -1.99849 13
723 2 -11.5248 4.43888 0.674605 18
724 2 -2.81453 9.42536 -3.85738 18
725 2 -3.99853 16.2353 -3.78886 12
726 2 -11.4964 2.43469 9.23262 11
727 2 -11.0736 9.06362 -6.64363 18
728 2 -1.49425 -2.38843 9.16444 20
729 2 -6.89566 6.58812 2.52875 21
730 2 -5.85839 0.0665167 0.83568 18
731 2 0.0796104 8.00581 1.10043 19
732 2 -9.05625 -4.75565 6.80935 14
733 2 -3.21799 8.52388 6.10954 18
734 2 -11.626 1.30123 5.81856 15
735 2 0.254794 6.82234 9.78076 17
736 2 -15.1817 -2.22977 4.9775 8
737 2 -5.00364 8.55359 11.0297 12
738 2 -5.25496 1.67098 10.2157 18
739 2 -9.17971 0.861669 -3.4813 19
740 2 0.0489908 16.044 4.13049 13
741 2 -1.88555 14.4278 2.1234 17
742 2 0.915249 14.3216 -1.52228 19
743 2 3.40259 16.2992 -0.126913 13
744 2 -2.8318 7.00121 9.69994 16
745 2 -9.58234 9.45395 3.24995 14
746 2 -3.90534 16.2598 1.913 14
747 2 5.02218 6.85692 2.9142 16
748 2 -9.48653 3.83085 3.2922 19
749 2 -0.353383 -2.28478 -1.40989 17
750 2 -1.6145 12.3375 -5.81449 16
751 2 -13.2268 8.88427 -1.47328 16
752 2 -7.02378 15.3499 -4.1111 13
753 2 -0.0839755 18.419 0.961961 8
754 2 -11.7538 8.58371 6.49724 11
755 2 1.62786 3.86264 11.5379 18
756 2 0.611764 -0.809341 9.24996 17
757 2 -2.31659 11.2283 1.23886 17
758 2 -4.97152 4.84269 4.89876 20
759 2 -1.8512 9.56027 9.18646 12
760 2 8.53554 2.72718 8.78091 23
761 2 1.45561 -0.527727 4.59244 17
762 2 -6.25942 -4.00545 12.0412 11
763 2 12.0848 2.27191 3.70547 18
764 2 -1.99322 1.57906 8.99612 17
765 2 -5.91976 3.11132 12.364 13
766 2 -5.36471 7.29763 8.27147 16
767 2 -9.28368 7.61932 5.36942 15
768 2 6.99094 11.6903 4.57334 12
769 2 0.12969 8.72421 -4.41941 20
770 2 -9.31914 2.82366 7.94205 19
771 2 9.81045 0.213394 8.66655 22
772 2 -4.51124 13.2408 3.70444 14
773 2 5.00659 15.1481 -2.69386 9
774 2 5.53257 8.27462 8.9095 14
775 2 5.02046 -7.9831 5.29776 14
776 2 -7.89358 -2.42148 3.77115 19
777 2 -1.53932 11.8154 7.05292 13
778 2 5.39578 0.542089 12.368 17
779 2 -6.44905 8.23428 -0.200708 20
780 2 -2.02314 16.3855 -0.762964 15
781 2 -10.0197 15.1429 -2.24568 11
782 2 3.1041 15.1948 4.43261 14
783 2 2.87966 17.711 2.33391 10
784 1 -0.059037 -14.7366 -0.0504791 19
785 1 3.08741 -14.209 -0.105194 19
786 1 3.54391 -15.2997 -4.23369 13
787 1 5.31475 -16.043 -2.23311 12
788 1 6.0899 -0.251379 -15.8253 10
789 1 6.32665 -10.3148 -2.36286 17
790 1 -3.95813 -16.8908 0.121888 10
791 1 1.13914 -2.98566 -8.24278 18
792 1 3.53365 -7.01635 -4.79454 22
793 1 5.95422 -2.29348 -6.40383 19
794 1 2.43941 -13.3905 -7.32366 12
795 1 0.0251166 -7.66688 -5.40065 21
796 1 -0.700805 5.5575 -11.0509 23
797 1 5.54271 -4.56318 -12.2867 12
798 1 7.12157 5.6209 -1.39449 19
799 1 -0.518953 -8.37392 3.96526 18
800 1 -3.55188 -7.87729 -9.15178 18
801 1 -1.27954 -6.36767 -8.92824 17
802 1 4.53911 4.5245 -9.35613 18
803 1 -0.780287 -7.85196 -13.2302 11
804 1 7.3688 -4.3812 2.78538 18
805 1 1.56169 7.93804 -0.520496 19
806 1 4.67344 -7.74859 -10.5935 14
807 1 8.23379 -12.6422 2.75854 14
808 1 12.4971 -2.13843 -8.65083 9
809 1 -0.723953 -8.93765 -8.19058 19
810 1 3.49837 -13.7939 3.95296 16
811 1 1.83481 -16.0299 -6.9418 7
812 1 6.29842 -6.97398 -7.72937 16
813 1 7.04708 -9.95209 -6.28979 16
814 1 4.563 -10.4205 -5.33971 19
815 1 -1.79114 1.64652 -5.16472 20
816 1 6.46838 -7.48306 -4.53769 21
817 1 14.3367 8.05158 -10.2439 12
818 1 0.891582 2.25984 -16.2101 11
819 1 8.77346 -3.82227 -11.5045 9
820 1 12.0996 -11.0487 -1.28103 7
821 1 4.1954 -4.78064 -6.02211 20
822 1 7.96285 -4.38448 -6.18228 19
823 1 -1.39963 3.87952 -1.5035 16
824 1 0.658795 5.04041 -0.0555452 20
825 1 12.0537 3.47535 -3.38717 20
826 1 4.32882 -12.6816 -2.66258 23
827 1 2.21897 -8.91878 -12.7797 10
828 1 10.1253 2.19286 -7.81437 14
829 1 8.35563 -12.4005 -4.57456 11
830 1 7.4742 -15.0775 0.388965 12
831 1 13.6537 -1.52013 -0.74107 16
832 1 10.1532 -15.2233 -1.71206 6
833 1 5.64593 -0.895385 -8.93371 19
834 1 -0.627335 -10.5048 -11.5452 12
835 1 10.4411 -8.75691 -0.703135 13
836 1 0.183364 -2.83075 -10.7695 15
837 1 12.4329 -4.34172 1.17594 17
838 1 11.3013 -11.1373 1.50223 8
839 1 11.1127 1.24867 -0.464548 19
840 1 9.99973 -3.20672 -3.56342 17
841 1 4.03689 -5.8351 5.52637 15
842 1 -0.662357 -4.93411 -13.1191 9
843 1 5.57694 -12.9873 -5.42535 16
844 1 6.53085 -5.30304 -3.39112 21
845 1 10.6723 -0.752065 -5.64331 16
846 1 9.92869 -3.85513 3.37103 21
847 1 9.73103 -6.62612 -4.23102 14
848 1 12.9476 1.5832 -5.83878 16
849 1 2.0352 -0.704109 -1.8061 24
850 1 6.83961 -1.57181 1.5494 19
851 1 4.95626 3.73226 -3.78233 19
852 1 8.58131 -0.619106 -11.0145 14
853 1 13.326 -7.49685 1.05696 9
854 2 -1.89154 -13.1046 -9.42005 9
855 2 1.05066 -14.5539 -7.9481 8
856 2 -4.75132 -13.6316 -1.68059 17
857 2 7.31002 -11.1255 1.7607 13
858 2 7.06291 -13.6057 -4.77491 12
859 2 3.70508 -8.93891 -9.18028 17
860 2 -6.59655 4.11156 -7.53323 14
861 2 6.21913 -14.7806 -1.03469 12