ITEM: TIMESTEP
423000
ITEM: NUMBER OF ATOMS
1500
ITEM: BOX BOUNDS pp pp pp
-30.0 30.0
-30.0 30.0
-30.0 30.0
ITEM: ATOMS id type x y z Coordination
1 1 -7.22149 -8.77404 -0.939769 15
2 1 -6.22425 -4.35213 3.00016 22
3 1 -12.3818 11.0133 1.10736 9
4 1 4.44209 -4.33931 -6.48227 14
5 1 -5.3259 11.5185 -7.0474 16
6 1 -0.469798 11.6913 0.0886473 20
7 1 -0.21197 2.78266 6.66754 21
8 1 -7.7132 10.1966 -5.26086 12
9 1 -0.798122 0.806843 -12.1818 18
10 1 -3.90447 11.2359 -9.74337 15
11 1 -6.08578 -9.83113 -6.59681 18
12 1 -6.35747 -5.44434 -16.0745 9
13 1 -11.4908 9.957 -1.61058 9
14 1 -6.90325 -3.19369 0.282345 16
15 1 -1.84024 3.75398 -5.86618 18
16 1 -11.2003 4.62822 7.57752 15
17 1 -15.0145 2.47164 4.36962 10
18 1 6.09525 7.60621 -8.22059 20
19 1 -12.9853 -12.2555 -1.59618 7
20 1 3.92279 -11.4214 -1.07448 19
21 1 -2.18224 -3.82512 -7.54019 16
22 1 -6.79538 -7.90079 -10.4328 14
23 1 3.9495 -8.97078 -10.1432 14
24 1 -4.62827 -8.06678 -8.32231 21
25 1 4.52328 -0.70743 -14.1018 19
26 1 -8.72625 11.496 1.49158 20
27 1 -1.06223 -13.2573 -10.6309 12
28 1 8.83017 11.3939 -12.4811 13
29 1 5.55179 -6.64241 -11.046 12
30 1 -3.53053 -13.5688 -2.16561 14
31 1 1.78911 -12.0484 -9.9044 12
32 1 -7.88253 1.91223 -4.48787 14
33 1 -4.77623 -0.0610759 -4.46224 16
34 1 1.18623 -1.04599 -10.0329 17
35 1 -0.35331 5.62139 -15.6986 13
36 1 -1.41641 -7.61589 -8.41278 20
37 1 -0.71932 -6.68882 -12.8343 13
38 1 1.09039 -8.72953 3.49405 17
39 1 -4.74249 -0.734207 -12.8132 12
40 1 -4.10201 17.0861 1.66147 10
41 1 1.603 -11.2821 10.3136 18
42 1 -3.08627 -19.0367 -0.951708 12
43 1 -1.11662 -14.6157 6.5729 17
44 1 0.287418 -13.5494 2.6528 17
45 1 -12.8591 3.65719 -6.55026 15
46 1 -8.36698 -7.93375 -7.42601 18
47 1 -1.45928 3.87213 -11.8581 19
48 1 -9.34787 -3.44221 2.90379 15
49 1 -5.40838 5.20554 3.22034 17
50 1 -14.0583 -7.6472 3.1558 10
51 1 -1.52824 10.74 -12.3406 11
52 1 -0.112369 1.03699 0.514776 17
53 1 1.87259 11.2371 -13.4512 12
54 1 -3.93123 1.5459 -7.50664 23
55 1 -6.50031 15.1974 -3.4704 9
56 1 -6.97974 -14.6794 -1.83649 19
57 1 7.0141 -9.74743 -9.80997 6
58 1 -8.26071 0.8195 9.23947 16
59 1 -3.57986 -9.8422 -5.11806 19
60 1 -2.55589 10.0016 -7.71232 15
61 1 -4.88922 5.38354 -10.7546 14
62 1 -1.27291 -9.28379 -2.57729 16
63 1 -4.6382 -2.69221 -1.28424 19
64 1 0.304511 -1.01933 -18.7434 11
65 1 9.52707 -5.54944 -1.05161 15
66 1 -10.3965 0.590147 1.28576 17
67 1 -0.974953 15.5516 -8.67258 14
68 1 -9.92504 -10.6686 -0.613092 16
69 1 -5.5107 -8.26563 6.98969 21
70 1 -9.91811 -4.78714 -6.83101 18
71 1 -4.32885 2.58658 -13.1292 11
72 1 -5.80276 -6.22704 -2.74963 19
73 1 6.89929 -2.8409 -13.9309 15
74 1 -3.83237 0.926839 -10.7952 21
75 1 -4.70795 -10.6545 4.7289 19
76 1 2.75534 -13.4978 0.746007 17
77 1 -2.88833 -6.99114 0.115644 19
78 2 -11.4044 -0.808818 -4.84162 14
79 2 -1.65111 -8.10729 -0.824654 18
80 2 -8.46176 -6.15277 5.73151 24
81 2 -6.21186 -11.0695 12.7225 8
82 2 -8.45296 -15.078 -4.34369 13
83 2 6.30148 -8.8088 -0.760389 10
84 2 -1.26716 -8.17479 -11.4161 14
85 2 -5.70469 -9.32026 -9.93674 15
86 2 3.60157 13.2275 11.9961 10
87 2 -14.5779 -3.32474 5.16921 11
88 2 -2.16404 -1.90032 -13.0007 15
89 2 -14.2079 -5.67812 3.02676 11
90 2 -4.64569 15.4012 2.23441 10
91 2 -4.48536 3.75355 -11.3762 15
92 2 -10.7843 -4.28727 -8.50181 13
93 2 -8.75495 -2.40123 6.87635 18
94 2 -0.478706 -18.3659 8.92869 13
95 2 -5.36156 7.31556 -11.5032 9
96 2 9.20978 -0.973111 11.0262 15
97 2 0.851305 -5.5922 -9.76071 17
98 2 -14.0046 -3.56864 0.608954 8
99 2 -0.555834 2.59532 -10.9516 17
100 2 -0.717757 3.33138 -3.09179 15
101 2 -3.7735 -1.33387 3.91371 15
102 2 -5.3692 -1.29428 13.1766 13
103 2 2.38711 -7.03129 2.96122 16
104 2 -9.44592 -2.03862 3.9147 17
105 2 -3.68036 7.8381 -4.74529 17
106 2 -3.52758 -14.1709 2.53267 17
107 2 -0.628876 5.7405 -12.1296 17
108 2 6.92717 -14.8944 -6.93185 9
109 2 5.27035 -12.8587 -1.53917 13
110 2 -2.61138 3.28492 -14.053 12
111 2 6.83741 -5.05691 -10.7937 13
112 2 -4.6447 1.86527 6.72346 16
113 2 6.07524 -13.08 9.58946 11
114 2 -7.55784 -4.60388 -14.1418 11
115 2 -2.22278 -5.22232 -0.494017 17
116 2 -0.566941 -13.2997 -5.16615 18
117 2 -2.60473 -14.0637 -10.2207 12
118 2 -5.89781 -1.83875 10.1105 16
119 2 3.07712 -12.5298 11.1018 13
120 2 3.04163 -11.5417 -2.80405 16
121 2 -11.2857 1.31074 -10.8987 11
122 2 -0.76829 -16.6454 -4.77622 12
123 2 -1.98622 -5.51272 -13.7026 12
124 2 4.68054 8.82997 -14.2044 17
125 2 -0.217337 -12.6872 0.519725 17
126 2 2.39726 -1.9853 -9.02647 14
127 2 7.73134 -6.04105 8.22081 15
128 2 -0.210141 -2.56246 -9.35376 16
129 2 2.55031 -11.8595 0.102217 17
130 2 -7.9942 -9.32694 -2.60778 19
131 2 -14.1541 4.38071 1.28794 15
132 2 -3.00179 2.78383 -6.84894 19
133 2 2.61839 -3.92811 -16.1688 11
134 2 -9.81046 8.64902 -1.62021 15
135 2 10.6453 2.34695 -5.23425 17
136 2 -1.73341 6.53928 11.3458 17
137 2 -9.41133 2.04941 10.2483 13
138 2 -13.1351 3.19314 -1.6778 16
139 2 0.0425868 0.81326 -14.0904 18
140 2 8.36934 8.07016 -5.71929 14
141 2 0.122244 0.121552 -8.57415 18
142 2 -0.449736 -10.9489 -2.09582 16
143 2 -11.4289 -2.15288 -2.18648 12
144 2 2.44076 -14.9655 -3.86126 17
145 2 6.44157 -4.69149 2.6081 17
146 2 1.32943 -6.40393 -1.59724 16
147 2 11.0817 1.99748 -11.9889 9
148 2 -0.992795 -16.1228 -8.24323 10
149 2 -14.6597 1.34278 9.21235 9
150 2 -3.01053 -9.4981 -3.21738 19
151 2 1.72587 3.86393 -10.2872 19
152 2 4.40435 -16.443 -5.00612 10
153 2 -9.89467 -6.29307 -3.30323 15
154 2 -13.3561 0.623863 -2.91435 12
155 2 -2.78341 -8.6067 8.9867 18
156 2 9.3194 0.147382 -6.7921 17
157 2 8.41554 9.48851 11.7902 6
158 2 12.5824 -6.3735 -4.84895 11
159 2 -9.57545 -4.72921 9.15491 16
160 2 -3.3599 -15.7098 8.68954 18
161 2 -4.78392 -6.18072 -6.30515 21
162 2 -0.544855 14.4912 1.6472 18
163 2 1.37662 12.0954 -9.25621 17
164 2 -0.994858 -6.30587 7.6866 17
165 2 -5.20289 -15.2483 4.76688 17
166 2 2.95112 -5.24326 -7.55776 17
167 2 -0.0584896 4.07337 -16.7821 14
168 1 -6.91931 -10.9505 -9.28108 10
169 1 -3.59291 0.806698 -17.1634 5
170 1 -2.86089 3.98956 -8.72076 20
171 1 -3.69177 -15.7756 3.85827 18
172 1 -13.8796 7.57015 -0.47457 12
173 1 -14.2938 -5.31342 4.96071 10
174 1 -8.65779 13.4387 3.88259 12
175 1 -15.2418 5.16947 9.17203 10
176 1 -7.08599 -2.34864 5.7029 19
177 1 -12.3725 3.97891 10.0137 13
178 1 1.12461 5.34274 -11.1951 18
179 1 -10.4291 -6.55634 8.95632 12
180 1 -0.688639 -9.70772 -6.10228 23
181 1 -6.96065 -10.4556 6.82203 26
182 1 -1.07737 1.41136 -9.20144 18
183 1 5.88277 -0.620401 5.1947 13
184 1 -12.2539 5.3143 -9.2802 9
185 1 -6.65133 11.5053 4.65326 18
186 1 -10.0826 -7.57316 -5.01547 16
187 1 -8.64391 -7.78907 6.66376 22
188 1 1.27316 2.20021 -10.4716 19
189 1 -8.86847 -16.6069 -3.07391 12
190 1 -1.45035 -2.77888 0.135753 18
191 1 -8.16249 -6.84168 -2.44961 17
192 1 -13.2844 2.63228 1.44686 18
193 1 -1.74663 -14.9917 9.73944 18
194 1 4.73529 3.74771 -1.69995 16
195 1 -5.87909 -3.39399 13.9633 10
196 1 -8.67449 -13.3266 7.35693 13
197 1 -1.11069 -6.34651 -6.03694 16
198 1 6.12351 0.189698 -2.72255 16
199 1 -12.9088 6.11128 -3.43731 14
200 1 1.71555 4.76237 9.49353 18
201 1 -6.25777 -0.603436 11.4975 17
202 1 7.22019 -4.56849 6.74528 17
203 1 -3.14403 0.512045 -0.353391 17
204 1 -5.03453 -13.1089 2.37716 18
205 1 -3.5901 -5.64349 5.03021 22
206 1 -2.13335 17.4929 -1.25031 14
207 1 2.1148 -16.5121 1.64616 11
208 1 -13.3495 1.04922 -0.881317 15
209 1 4.09985 -8.83751 14.5319 11
210 1 -4.51819 -7.3696 2.66847 21
211 1 10.4935 4.96236 13.3169 9
212 1 3.1404 2.2737 -13.236 18
213 1 -12.6346 -0.074283 2.57243 13
214 1 8.45068 -1.41198 4.60245 19
215 1 8.08535 -9.77282 -0.956497 12
216 1 -7.24931 -8.44903 9.80728 16
217 1 -2.63151 -9.27067 12.7541 17
218 1 -2.28553 -11.3682 -3.16851 18
219 1 -9.5857 5.33676 -7.85198 14
220 1 -1.84571 -11.6998 0.314432 17
221 1 0.89358 -6.15436 8.59764 18
222 1 0.238449 -6.02471 14.2243 21
223 1 -0.49543 -16.6827 4.25467 12
224 1 5.82677 -15.1318 -5.46105 16
225 1 1.60442 -6.68137 -8.18526 17
226 1 -6.48115 -0.309921 -9.75782 20
227 1 -0.460393 -16.1521 -6.32803 13
228 1 -1.27162 1.61635 -3.21111 16
229 1 -0.611839 -17.4585 1.57749 12
230 1 -0.710113 -3.04909 -4.88302 16
231 1 -3.61312 7.17778 7.89569 17
232 1 9.36507 -8.47413 7.01298 14
233 1 -7.01808 -15.4642 1.82479 16
234 1 10.8215 -2.34129 -3.04753 17
235 1 -3.74414 7.31969 -2.87857 18
236 1 -14.7915 -4.31655 2.15459 11
237 1 -1.96667 9.26096 7.50816 17
238 1 -6.17053 -14.7514 8.6672 16
239 1 0.297966 4.86177 4.49619 18
240 1 -5.85342 2.72649 11.7569 17
241 1 8.7128 12.4226 7.35294 11
242 1 2.91883 13.0136 10.2252 14
243 1 -1.67159 -6.01058 11.24 19
244 1 -3.86754 -15.6283 6.88206 17
245 1 -12.8369 -3.23611 -0.840186 9
246 1 6.30445 4.8673 -5.94507 20
247 1 -3.72207 -6.02563 14.4165 13
248 1 -6.8218 -9.2082 -4.01963 25
249 1 -0.891578 -0.574976 9.29099 22
250 1 -1.92573 -16.5306 -1.18471 15
251 1 3.88572 -17.0846 7.81797 5
252 1 2.76931 -5.19937 10.9187 16
253 1 -7.82582 -15.9667 5.45386 11
254 1 6.91156 1.91172 -13.4024 18
255 1 8.69733 0.358898 -3.138 18
256 1 -5.15541 -4.0558 11.1083 18
257 1 -6.3225 0.482029 14.3165 9
258 1 3.08967 -5.4625 -1.95872 20
259 1 -9.41926 -2.66598 8.73232 17
260 1 -7.55379 -10.485 12.0941 8
261 1 7.64553 -13.7163 5.2998 12
262 1 -6.22062 -17.7974 -2.93093 9
263 1 -1.84084 -12.2033 11.7283 16
264 1 -0.614547 5.1083 11.347 17
265 1 9.00434 8.60734 6.98277 15
266 1 -10.7963 2.36358 3.99538 19
267 1 -3.18406 -5.51007 -9.42426 17
268 1 -5.42024 -1.73977 2.5702 16
269 1 1.96843 -0.265246 6.42594 18
270 1 3.84594 -5.57365 13.8575 17
271 1 -1.19596 -9.1479 9.81592 18
272 1 -8.23841 -2.18044 -7.666 21
273 1 -8.81666 4.39358 -2.13542 16
274 1 -8.31543 4.28525 6.78922 16
275 1 -9.14001 -6.44067 4.00204 22
276 2 5.0675 -13.9877 1.42491 14
277 2 -11.2903 3.54258 5.65203 18
278 2 -9.82551 -0.295989 12.9813 8
279 2 -5.3213 6.99124 1.79421 17
280 2 -7.56644 -8.77531 11.6634 12
281 2 -6.4737 13.3599 0.843057 18
282 2 -5.39048 6.32281 -2.26248 15
283 2 1.73822 -3.88034 10.1311 16
284 2 -2.57738 -2.61721 -1.6093 21
285 2 -0.955285 -13.5188 4.24847 16
286 2 4.85493 0.0238779 -9.08562 16
287 2 0.0524466 6.97723 14.7535 8
288 2 -5.31426 -6.2828 4.03075 21
289 2 8.87813 -3.22623 8.4976 23
290 2 -3.68241 13.8869 -5.05135 13
291 2 -0.313546 -11.6534 -8.05528 19
292 2 -5.52208 -8.25119 8.97019 21
293 2 -0.57929 -4.22653 15.385 12
294 2 4.96819 8.86321 -3.29251 14
295 2 3.50723 0.767523 14.88 10
296 2 -11.9614 2.86977 8.12483 14
297 2 -6.09852 -12.2897 7.03927 18
298 2 -8.9347 -0.407225 -12.5296 10
299 2 -2.19857 -10.9843 -5.84265 22
300 2 -13.6807 6.02113 -1.69798 10
301 2 6.37235 -1.24383 9.94094 18
302 2 -12.0721 -11.2743 3.09619 13
303 2 -11.1615 -2.61722 8.99402 12
304 2 -2.97973 -10.5898 1.30387 22
305 2 -11.3356 -6.73246 7.36946 14
306 2 -8.78182 7.85312 5.984 15
307 2 -4.30773 4.05988 4.42346 13
308 2 -7.73155 -13.6828 8.99087 11
309 2 9.01385 8.84245 -0.00930537 16
310 2 -11.6538 -10.6793 5.55109 11
311 2 -9.87655 -12.3004 0.341994 16
312 2 -5.13915 4.5209 12.299 13
313 2 1.66026 -0.924958 13.5987 17
314 2 -7.25798 2.91411 4.91096 16
315 2 -4.72238 -3.53619 2.46931 18
316 2 -6.98868 -1.583 1.37288 18
317 2 -0.551331 3.39338 -7.39842 18
318 2 -1.62157 -10.3268 11.3211 17
319 2 -6.99501 -6.73695 -0.98817 18
320 2 -0.0877473 -13.1725 6.99381 13
321 2 -6.45204 -4.24718 5.87188 19
322 2 -5.00434 0.490403 10.8556 17
323 2 -2.83549 -5.92877 9.90661 18
324 2 -8.71701 -11.2978 5.96161 18
325 2 -4.45703 -3.83396 9.15744 21
326 2 -7.05562 -3.49966 11.4511 15
327 2 -5.05774 -6.70734 6.75719 21
328 2 -4.23299 -19.413 3.09527 7
329 2 12.2713 -2.23824 12.365 8
330 2 4.54799 -15.3248 7.23257 10
331 2 -8.48899 7.99964 2.87054 19
332 2 5.25637 5.70039 -7.905 20
333 2 -1.83808 -8.10558 -6.4208 18
334 2 -5.6793 -6.09319 11.6777 15
335 2 -5.83132 -11.5652 1.68763 14
336 2 8.50604 15.0568 4.53826 13
337 2 11.7085 7.83105 -12.8381 7
338 2 -0.0692933 -12.5424 12.9972 11
339 2 -3.2321 -5.87843 2.04276 19
340 2 -7.1656 -16.5135 -1.72615 16
341 2 -8.59102 -15.8527 3.62758 11
342 2 -7.09582 -8.84629 5.56698 22
343 2 13.5152 1.11011 2.37773 9
344 2 2.37022 8.15156 2.21462 15
345 2 -11.8372 5.77227 9.17596 13
346 2 -6.97774 -0.67972 4.78048 18
347 2 -6.32042 0.904124 -4.59258 15
348 2 3.15585 -8.89467 -6.26179 18
349 2 9.47084 0.177473 13.5676 9
350 2 14.0154 -2.91015 3.38321 9
351 2 -0.277443 -7.55322 10.8307 19
352 2 10.0054 -7.47369 -3.94643 15
353 2 3.91682 -4.1481 11.8916 14
354 2 -7.20051 -10.3279 9.00788 19
355 2 -3.11163 -14.0818 6.38529 23
356 2 -10.6629 -6.32897 0.565612 14
357 2 -2.26735 -4.24141 -10.6115 18
358 2 -4.21086 -9.88985 6.75478 18
359 2 3.17553 -2.58001 17.2272 8
360 2 6.88535 1.34421 -17.126 9
361 2 -4.72236 -9.32066 3.06855 19
362 2 -3.75336 -0.0765333 -6.54137 19
363 2 4.53005 16.2454 -5.87553 13
364 2 9.81951 1.62603 3.34636 15
365 2 2.67269 6.53698 7.24985 18
366 2 -10.3255 12.0108 4.86341 14
367 2 -0.405529 6.71406 3.56092 18
368 2 3.46308 2.66038 5.82324 17
369 2 -1.99577 -18.3742 0.950703 12
370 2 2.31737 -6.74102 9.83592 13
371 2 -2.94864 6.58634 13.3639 11
372 1 -10.6052 -2.0247 -5.59168 18
373 1 -11.5264 -16.5852 -0.721962 4
374 1 -7.75932 1.1773 5.55077 20
375 1 0.892816 -15.2318 -8.97386 11
376 1 -3.94205 5.70521 -6.06429 17
377 1 -7.08725 -6.19508 -5.71957 21
378 1 -2.79922 13.8237 -10.9676 11
379 1 -4.38862 -1.60977 -7.48245 18
380 1 -12.0105 -9.68969 1.14292 14
381 1 -11.3807 -1.24705 12.4252 6
382 1 1.58075 14.9986 1.55451 18
383 1 -11.1121 -10.249 -4.03429 10
384 1 -6.23332 -6.23179 0.628201 19
385 1 -3.66269 13.5834 1.81921 18
386 1 -3.99932 17.2391 -7.66417 8
387 1 5.81338 13.2557 10.2316 10
388 1 13.3125 5.43722 3.90415 13
389 1 -8.62849 -10.7453 -5.99777 14
390 1 -4.83889 -2.71305 -10.3679 19
391 1 -10.7415 7.47692 5.68117 17
392 1 -2.39144 -2.87677 -18.1913 8
393 1 -11.1085 -6.23206 -1.29552 9
394 1 -9.42138 -14.246 -0.237317 18
395 1 -2.65315 -9.34202 2.70174 19
396 1 -1.73116 17.7065 -5.62214 10
397 1 -1.65585 -6.54487 2.91257 20
398 1 -11.9109 -5.81186 2.16987 17
399 1 -9.7405 0.837141 -11.6964 12
400 1 -4.2015 -2.82771 -16.3787 11
401 1 -15.5935 5.68745 2.19708 9
402 1 -3.05979 1.39466 7.51628 19
403 1 -6.03255 -0.0618496 0.495352 16
404 1 -9.28484 -7.33742 1.50001 17
405 1 -3.13745 4.91889 12.141 16
406 1 5.0042 2.49392 1.85186 20
407 1 -13.483 8.16301 2.86829 16
408 1 6.87884 -2.66327 -17.016 9
409 1 9.26851 9.42768 -7.10537 19
410 1 -2.43447 4.40297 4.53384 19
411 1 5.40877 0.543113 -16.4239 13
412 1 4.40102 2.11026 -7.01006 15
413 1 -2.55152 -13.2478 -5.74221 17
414 1 2.67407 -16.4633 12.6401 6
415 1 -6.85989 0.280014 -7.12544 17
416 1 3.40552 -12.9856 -4.2917 18
417 1 -5.68224 2.51178 8.18187 17
418 1 -9.86537 7.0925 -3.38419 15
419 1 1.85237 -5.60555 -11.2973 16
420 1 -5.22033 2.3555 -9.84305 20
421 1 -5.85009 9.18605 -11.6434 6
422 1 -9.48549 -12.6801 4.83443 16
423 1 0.434693 16.8148 5.50411 10
424 1 9.34449 13.8811 -10.3944 12
425 1 -7.59968 -2.97858 -15.0521 10
426 1 -7.5299 8.67805 7.21777 17
427 1 3.24723 0.562617 -2.72096 15
428 1 -10.2905 3.72974 0.983012 19
429 1 -4.62556 9.96586 9.4787 14
430 1 3.19512 11.6939 6.01864 22
431 1 -7.86612 2.72398 -9.63814 18
432 1 -7.9084 -0.78784 3.09569 17
433 1 -0.867763 2.02038 10.1012 22
434 1 -7.66449 2.70395 2.68166 18
435 1 1.99382 -10.001 -7.4862 19
436 1 -9.81869 2.65648 -7.1877 17
437 1 -8.56312 -5.78248 -12.9987 9
438 1 2.05939 3.30035 -16.3054 19
439 1 2.32818 -5.83602 1.02065 19
440 1 0.495235 5.22871 -8.20013 17
441 1 0.859836 6.6365 7.46495 15
442 1 -0.692572 7.38013 -13.2657 15
443 1 -3.7667 -7.40737 -5.3753 21
444 1 -5.66388 14.5827 -9.26801 9
445 1 3.84772 -1.37698 -8.20965 17
446 1 -10.2908 4.1628 -4.21258 23
447 1 -14.642 1.89704 10.9372 5
448 1 7.2914 -1.7587 -7.88104 18
449 1 -11.4901 6.76399 -6.3424 14
450 1 -7.98596 -3.71713 -4.42825 18
451 1 -3.90682 14.6091 -6.71048 15
452 1 -6.92258 8.57562 1.42218 17
453 1 -9.52304 7.36205 -0.217553 20
454 1 8.31671 11.4165 4.59978 15
455 1 6.7699 3.39113 -17.6494 8
456 1 -10.7647 13.0329 6.15926 6
457 1 2.25308 11.4985 3.40676 20
458 2 0.834414 6.84612 -14.7337 12
459 2 2.21772 0.669114 -11.0235 18
460 2 -7.53814 -6.65766 2.85078 19
461 2 -4.69318 4.56821 1.47107 17
462 2 -11.888 6.54888 6.95703 16
463 2 -10.2506 -16.7638 -2.10663 9
464 2 -3.87097 -3.73249 13.5034 13
465 2 6.87886 16.5362 -7.50699 12
466 2 -7.96421 1.57395 -10.9852 15
467 2 -2.12904 8.78113 -12.7218 11
468 2 -3.0054 -13.7059 -7.87351 15
469 2 -1.09719 14.1745 -9.90327 14
470 2 -7.71169 -4.10247 -7.31953 20
471 2 -3.32371 -7.59026 -9.75327 17
472 2 -11.1567 5.53338 -3.11885 19
473 2 2.64778 9.10099 -9.51375 19
474 2 -11.4382 1.09063 2.89115 16
475 2 0.977395 14.5755 13.1641 6
476 2 -6.08737 4.33338 6.81417 16
477 2 -6.07777 -13.8535 -6.6025 11
478 2 -7.60003 10.1553 0.672611 18
479 2 -7.19018 1.22042 7.81957 18
480 2 3.94763 11.4407 -6.88581 16
481 2 -12.5683 2.52092 -4.89635 17
482 2 8.09798 12.9019 -12.2979 11
483 2 -4.86936 15.7974 -8.18764 11
484 2 4.4328 11.4922 -9.75808 20
485 2 -3.06117 18.0733 -2.58664 10
486 2 -6.36282 10.2617 9.07635 10
487 2 10.5949 5.70503 4.29561 17
488 2 -6.48956 -6.65525 -11.9192 13
489 2 -4.91847 14.8858 -2.2765 14
490 2 -5.93091 3.99983 -9.12765 16
491 2 -2.86133 -4.09515 -16.8 11
492 2 2.11012 6.65413 -18.5167 11
493 2 -4.55897 13.4778 -10.2283 11
494 2 -10.4692 -1.47059 -7.5782 14
495 2 8.19024 16.0441 1.23645 9
496 2 -0.555345 16.6901 -1.67515 17
497 2 1.22642 -10.87 6.32506 16
498 2 -10.7413 -15.7644 0.771173 10
499 2 -5.1776 10.9075 -4.61471 15
500 2 -0.693576 -2.64898 13.5871 16
501 2 -9.18708 3.81015 2.47474 19
502 2 -13.0933 -0.729868 6.65499 12
503 2 5.38233 -10.756 -4.40761 17
504 2 -14.8183 6.9614 9.32915 8
505 2 12.8551 1.91957 -2.2283 10
506 2 3.60683 1.09974 2.15212 17
507 2 -14.0628 3.9206 10.3072 10
508 2 2.45714 13.2827 0.310465 20
509 2 -12.9635 9.08326 -0.97169 11
510 2 3.28541 -10.3276 9.55396 17
511 2 -5.96224 -2.81272 -5.88147 18
512 2 -5.5215 0.993119 -8.59037 16
513 2 -2.64728 -10.7277 -9.71983 18
514 2 -11.6721 -4.44357 -1.52945 10
515 2 -1.70925 -2.11578 -6.70832 15
516 2 -8.17797 -6.68373 -9.01916 17
517 2 -11.3963 11.2632 -0.327423 10
518 2 7.61684 -8.62867 -5.03922 15
519 2 -4.48788 -3.6084 -12.1379 16
520 2 -9.38142 -5.61272 -11.4134 12
521 2 -6.8415 -0.010757 -1.22544 16
522 2 -12.5645 3.70787 -8.52718 13
523 2 5.35828 8.24888 -10.8677 21
524 2 -8.71512 14.0811 2.1404 9
525 2 2.14482 -6.09346 12.952 15
526 2 -2.36841 10.8933 -0.065913 18
527 2 -2.45321 12.8359 -3.06685 20
528 2 7.64394 8.67121 -8.49761 15
529 2 -3.2491 2.28117 -9.55331 20
530 2 -0.362404 5.22039 9.29929 20
531 2 -14.3022 1.81435 2.75511 14
532 2 -6.18342 3.22 9.87979 20
533 2 11.884 -2.66505 10.0016 15
534 2 -11.3121 6.37931 -8.16466 10
535 2 -8.5566 0.836113 2.30753 18
536 2 1.30001 12.856 4.16779 15
537 2 0.803457 -2.53803 -14.5779 13
538 2 -8.29746 -7.22752 8.61477 18
539 2 2.65665 3.91859 -18.067 14
540 2 -8.43604 -13.4589 -2.17543 17
541 2 6.51468 12.0842 4.95815 19
542 2 3.72068 10.4609 1.7359 16
543 2 10.8022 2.92357 13.1135 10
544 2 7.25664 15.3306 -5.0269 16
545 2 3.06345 -3.47503 -2.16486 18
546 2 -6.3809 -16.968 -4.6688 8
547 2 5.5307 5.57572 8.33639 18
548 2 9.15197 5.35187 -2.32041 16
549 2 0.66639 17.063 1.23005 14
550 2 -0.134676 -1.28557 -12.2887 15
551 2 0.234653 -8.57935 -7.903 19
552 2 -3.07814 14.222 0.0499323 24
553 2 -1.15058 0.887661 -1.39337 18
554 2 6.28099 0.904079 -7.19163 16
555 2 -5.19244 0.956534 -13.3689 10
556 2 -6.20389 1.81645 1.22355 17
557 2 -8.78734 11.8218 -1.70942 14
558 2 -6.89276 8.43961 -4.7565 17
559 2 -7.42974 -10.8228 -7.49248 14
560 2 2.11869 5.8152 -7.71942 17
561 1 -14.3611 6.81663 5.96669 11
562 1 -10.7671 1.81711 6.71146 17
563 1 -12.2176 5.77865 1.25318 19
564 1 -12.1624 4.73264 4.39902 21
565 1 3.83467 6.44765 10.9247 17
566 1 0.583015 1.7708 -7.11644 16
567 1 -7.78285 -11.7191 -2.75756 19
568 1 -1.39539 1.06921 4.24757 16
569 1 -9.63014 -13.3418 -3.87434 12
570 1 -7.04847 -0.792736 -2.95882 14
571 1 -9.6554 -9.77515 4.57596 18
572 1 -8.23881 1.51751 -0.383311 18
573 1 11.694 -5.04013 1.45647 14
574 1 4.62228 -0.0994483 13.4669 16
575 1 -14.4777 -1.72142 1.5676 10
576 1 -2.86804 12.1092 7.15899 15
577 1 -1.53531 6.65261 1.98653 17
578 1 -1.56776 7.02265 5.19543 20
579 1 -5.28006 2.88399 5.40894 17
580 1 0.706837 -2.23296 14.5035 17
581 1 -8.26298 -12.3398 1.77928 15
582 1 0.748678 -13.2278 -6.67021 23
583 1 6.44555 7.66193 4.19601 19
584 1 -3.61 12.0902 -4.35543 17
585 1 -5.86599 11.1496 0.376689 19
586 1 -10.3626 8.7724 2.58616 21
587 1 -8.31034 3.53664 10.3812 16
588 1 -8.7007 10.1505 -1.21766 17
589 1 -0.796604 -0.874872 6.03083 21
590 1 2.37802 -0.117383 10.1955 21
591 1 6.44879 11.15 -0.659135 16
592 1 -6.34248 4.87578 -3.35198 12
593 1 -2.87528 -3.65626 -13.1513 15
594 1 -2.83886 -6.64425 8.20522 22
595 1 -4.21894 7.9583 12.7369 11
596 1 6.00869 -4.59041 -8.79011 16
597 1 -11.1367 -4.38299 4.89931 18
598 1 -4.63156 -0.25672 5.45345 18
599 1 0.488711 -4.14459 2.51563 17
600 1 -4.24956 -10.7685 -10.5711 12
601 1 -10.955 -3.89097 10.1572 10
602 1 -8.32743 13.9854 -0.214401 12
603 1 -2.17528 -11.7912 -8.12162 18
604 1 -4.63074 -0.352937 9.10508 18
605 1 1.60193 3.93482 -3.2459 16
606 1 13.503 2.52125 3.52242 13
607 1 1.24149 9.84286 10.1921 12
608 1 -1.81388 15.1111 6.48945 9
609 1 7.83011 9.76236 -9.84797 20
610 1 -12.1207 -1.99163 7.5541 11
611 1 -5.15148 5.20291 9.91102 17
612 1 -2.11197 4.6431 8.34927 20
613 1 -14.3953 0.645822 7.47407 10
614 1 5.18785 0.559579 10.5623 15
615 1 6.25298 15.029 -8.687 18
616 1 -9.72773 -1.39364 5.60741 17
617 1 -4.54239 8.66178 4.73605 20
618 1 -6.95309 7.55506 -1.74811 17
619 1 -10.2708 0.157609 -8.34396 18
620 1 -4.76342 -3.29968 -4.20555 17
621 1 -2.49192 10.706 1.72066 14
622 1 -2.07832 3.08524 -0.950609 17
623 1 5.37349 -3.06358 10.9114 15
624 1 -8.657 -2.53173 11.9559 15
625 1 2.90072 14.5999 7.59669 15
626 1 -4.97616 -13.2246 -7.8587 14
627 1 -0.226876 4.62688 -0.211938 16
628 1 7.13712 15.3907 5.60281 12
629 1 5.21246 -12.9616 11.1789 9
630 1 -9.66345 6.18739 9.78622 11
631 1 5.41874 17.7372 -6.85332 9
632 1 -4.02941 18.822 -4.11566 7
633 1 9.86623 6.89499 0.528576 21
634 1 -11.7362 10.7625 3.80406 11
635 1 -1.33467 2.22784 13.8386 12
636 1 -3.42468 15.2222 -3.32401 19
637 1 1.42343 0.346847 -15.5833 21
638 1 -4.99788 2.53198 -4.16907 13
639 1 6.34659 5.673 -0.165108 20
640 1 1.86646 3.97597 12.6547 13
641 1 -2.40588 -2.58539 3.58364 18
642 1 -9.20159 10.0612 5.28425 16
643 1 -4.98295 9.03199 -5.45791 18
644 1 -14.0548 4.46838 -0.837704 14
645 1 -3.52187 7.51511 -12.1593 13
646 1 4.36059 10.0135 -4.49114 15
647 1 -4.47672 -11.3927 12.9283 9
648 1 -1.42476 -2.2884 -11.1573 16
649 1 1.61558 17.631 -0.228801 10
650 1 -0.7653 11.5913 -5.3231 17
651 1 -2.54895 -4.56931 -2.49169 17
652 1 6.70215 1.93834 -0.590285 20
653 1 1.88696 -15.0632 9.99228 14
654 1 4.59789 8.26742 1.79582 17
655 1 -4.99765 14.5602 -0.293223 17
656 1 -11.0302 2.5818 -1.53695 18
657 1 4.83195 -6.51872 16.4508 10
658 1 2.94502 -4.33442 16.51 15
659 1 1.44737 6.96019 3.51176 16
660 1 -4.34752 7.6702 -8.64383 17
661 1 4.07494 6.73924 -6.66316 19
662 1 2.14566 7.15624 -9.40454 19
663 1 13.8957 4.89157 7.18528 8
664 1 7.59106 5.29687 11.6446 12
665 1 6.58527 14.3782 0.0733264 16
666 1 0.360187 -3.03633 11.248 22
667 1 9.44344 14.4136 0.986691 10
668 1 -7.03656 5.41861 12.8629 10
669 1 8.28276 1.58032 -6.03144 21
670 1 10.0738 14.2274 4.44409 10
671 1 7.46926 5.54762 -3.28725 19
672 1 1.23121 10.1945 -10.5187 16
673 1 -3.2249 11.188 4.35327 16
674 1 11.2262 8.22846 -11.1218 10
675 1 2.40898 6.54674 -0.920387 15
676 1 -1.98717 -0.923093 -2.25235 20
677 1 4.66212 11.7966 13.0999 8
678 1 0.422984 9.38285 5.96627 15
679 1 -0.585453 13.3833 -2.94206 18
680 2 -9.2884 3.19591 -0.552154 17
681 2 -9.55151 0.0362551 -0.509713 15
682 2 -6.39055 -1.41174 -8.15376 17
683 2 -14.8543 1.96453 6.189 9
684 2 -8.10868 6.066 -2.91237 17
685 2 -5.84395 -13.1726 -2.29383 14
686 2 -1.09286 -9.16731 13.7651 15
687 2 -14.2432 -1.51828 3.24868 10
688 2 -10.4077 -2.8598 11.5331 8
689 2 1.31206 2.21772 10.0236 19
690 2 -3.11688 -4.46074 6.64856 19
691 2 -13.104 -8.11059 1.81122 12
692 2 -1.18571 -3.10965 2.19004 18
693 2 -1.82254 -5.15068 -4.39604 18
694 2 -0.799439 3.01781 4.16498 16
695 2 -4.52297 -7.72396 0.660653 21
696 2 -7.44937 10.3846 6.35654 13
697 2 8.40968 3.96272 2.19223 21
698 2 -5.04559 4.30996 -4.93045 17
699 2 -7.77942 14.6622 -1.98162 8
700 2 2.97925 8.48161 11.1711 12
701 2 -4.44202 -8.83139 12.4031 18
702 2 -3.84608 -3.33458 -8.12106 18
703 2 -2.95542 2.32466 0.448818 16
704 2 -0.256818 15.6769 7.16603 12
705 2 -12.5123 -5.84935 4.48764 14
706 2 7.36175 0.611673 -4.40434 19
707 2 0.0676477 -1.68245 -0.420343 22
708 2 12.168 0.463709 11.4154 11
709 2 11.2952 14.1929 -4.20328 8
710 2 -5.7741 -7.70311 -3.63068 19
711 2 5.5816 13.8776 -11.811 9
712 2 -5.13216 -1.64303 -3.29031 17
713 2 6.42019 13.3241 -3.17315 16
714 2 -2.2101 -13.1376 9.70626 18
715 2 -7.08605 -4.5047 8.27446 20
716 2 5.6891 5.61218 -2.14701 18
717 2 -7.70314 3.29619 -3.33954 14
718 2 7.64939 10.4344 -2.18437 15
719 2 2.17178 15.932 -0.517694 16
720 2 -2.94307 -0.713148 8.09389 21
721 2 -0.121849 -4.72828 5.56804 19
722 2 4.52141 -0.222295 -3.75498 14
723 2 -11.1537 -12.2912 -2.76429 10
724 2 -7.07871 9.43819 -2.3035 19
725 2 -12.7971 9.70915 2.49508 11
726 2 9.63109 -0.503176 7.23765 18
727 2 7.26664 14.1612 -10.1003 14
728 2 -0.41317 -8.67261 5.57782 16
729 2 -5.1095 -1.88262 7.12479 20
730 2 -7.35392 -8.27903 -5.86026 20
731 2 0.900171 14.6179 -3.36646 18
732 2 -13.637 -0.0475151 0.577221 13
733 2 -2.19604 5.18184 6.43701 20
734 2 -13.0784 5.40681 -5.52733 13
735 2 5.80729 11.712 11.7622 12
736 2 -7.63381 6.84754 11.5512 9
737 2 0.488338 2.362 12.749 14
738 2 -2.50102 12.6727 2.95423 15
739 2 2.93134 0.506872 -13.8097 18
740 2 -2.88636 6.05098 -10.6713 16
741 2 -1.08039 12.7578 8.19439 15
742 2 4.05289 10.7387 4.71553 20
743 2 -2.9912 9.25591 2.96566 18
744 2 -0.310445 1.0092 15.0974 10
745 2 1.54807 14.3892 9.02024 14
746 2 4.89291 3.60309 3.3045 16
747 2 13.7203 4.33879 0.047589 11
748 2 -4.25605 9.05826 11.3723 9
749 2 -2.30637 11.9696 -11.3252 11
750 2 9.87335 -4.01615 1.4105 14
751 2 -4.8871 5.89676 8.29642 15
752 2 -4.29439 11.2354 1.77698 20
753 2 4.36327 13.3717 8.70613 15
754 2 -4.31279 -0.905859 0.00729889 19
755 2 11.6026 -2.69519 6.40622 16
756 2 -0.130935 -11.4178 9.38715 18
757 2 0.286626 8.51162 -3.24809 15
758 2 -5.77808 -10.3918 -1.14872 18
759 2 -6.89561 13.5377 4.20212 15
760 2 -11.1311 9.13104 4.51652 13
761 2 -7.6818 -3.81809 1.94481 14
762 2 -1.14399 -4.11222 11.1325 17
763 2 3.46152 -1.98632 0.610982 14
764 2 -3.31531 4.69506 9.9985 19
765 2 -11.0778 -2.92542 6.17762 17
766 2 -1.49818 2.60625 8.26254 17
767 2 10.6861 10.6393 -7.77214 16
768 2 1.05288 5.30681 -1.59758 15
769 2 8.40454 5.17613 9.82091 14
770 2 -9.88012 2.51332 -3.02707 19
771 2 11.0061 -5.30998 7.75045 14
772 2 2.49602 11.11 9.69101 16
773 2 10.849 9.34843 -5.44055 10
774 2 1.92008 -14.9546 13.241 7
775 2 0.148014 -14.965 9.8139 19
776 2 2.60553 -9.86786 3.37303 17
777 2 -9.69399 0.704676 5.52856 16
778 2 -4.54526 9.9344 -7.26562 16
779 2 -1.48318 14.5894 10.7084 8
780 2 2.63204 14.2066 -5.72453 17
781 2 8.86926 13.9931 -6.88167 17
782 2 -6.40963 9.72384 3.90667 21
783 2 6.83022 11.8217 8.76275 13
784 1 0.715438 -12.2921 5.28953 15
785 1 -0.29701 -14.7582 -0.218247 16
786 1 12.5995 -2.40642 -0.64222 11
787 1 -2.57065 -12.7757 3.86137 18
788 1 -1.78331 8.37346 -4.82573 14
789 1 4.13784 -10.2698 11.8509 14
790 1 5.61752 -6.94821 6.52649 18
791 1 10.2175 12.5677 -7.82438 13
792 1 -8.61884 13.3499 -3.01197 9
793 1 -1.00118 -18.3825 -3.74971 7
794 1 1.95203 -3.79374 -9.21094 13
795 1 1.57949 -4.64405 -4.77726 15
796 1 14.9332 4.75986 1.46816 7
797 1 2.77474 -15.4781 -5.69322 14
798 1 8.43798 8.62418 -1.85715 21
799 1 -2.60764 -4.05824 9.27852 18
800 1 7.3915 -10.1922 4.47657 19
801 1 10.5899 -3.02549 -10.0608 14
802 1 11.4935 6.38302 6.29177 13
803 1 10.2136 7.63343 -4.78188 15
804 1 3.29135 -10.0692 -4.40313 14
805 1 5.51579 14.2741 -5.4335 20
806 1 3.32718 14.1139 -12.3405 11
807 1 -4.34448 -7.04868 10.5265 21
808 1 9.6686 2.87916 -13.0889 12
809 1 8.81978 -4.71424 -7.44661 19
810 1 8.74147 -11.1187 2.45541 11
811 1 -7.07348 0.556556 -12.7158 13
812 1 -2.76862 -15.5501 -8.83397 9
813 1 4.09141 -8.4511 3.23388 22
814 1 2.46656 -3.83312 -14.1264 14
815 1 4.89174 4.09103 -14.7747 19
816 1 8.93739 -5.53734 -3.96027 20
817 1 5.28995 3.23487 5.16023 16
818 1 7.67337 -3.73258 -11.7883 15
819 1 8.87032 -14.3092 -4.84168 11
820 1 -1.05567 -2.10664 -14.7386 19
821 1 1.01331 -2.04911 -2.38124 18
822 1 2.34692 7.81493 -17.1731 14
823 1 2.62864 6.03512 -14.2214 19
824 1 3.05884 12.3604 -5.08195 20
825 1 9.42839 -9.19748 -4.16291 16
826 1 -5.87251 -4.89748 -12.3206 16
827 1 -6.90907 -15.0519 -5.37922 12
828 1 -0.551789 2.55452 -17.7881 14
829 1 4.55631 -14.5432 3.35337 14
830 1 -2.92448 -19.7889 4.68906 6
831 1 9.93533 -1.57728 -6.05457 18
832 1 -1.2241 6.37684 13.7325 11
833 1 7.32869 -1.8399 -1.29901 17
834 1 4.50757 -12.6456 -7.52757 14
835 1 -3.55021 -4.27931 0.960327 21
836 1 10.915 -2.74479 2.27517 15
837 1 4.10954 -7.12936 -7.15322 14
838 1 1.68383 -13.3152 12.3977 14
839 1 -5.08464 -12.1976 -0.830915 18
840 1 11.2877 -9.30352 4.81512 7
841 1 -12.9453 -10.2453 4.26589 11
842 1 2.50431 4.49051 -5.99805 18
843 1 7.57825 -2.85895 -4.38908 21
844 1 5.64361 -6.00758 -4.22708 17
845 1 9.42176 -5.73879 -10.4368 12
846 1 4.57227 -3.02975 -11.994 18
847 1 -6.97506 -4.84819 -9.40617 21
848 1 -0.222903 -6.5549 5.64667 18
849 1 -9.72427 -1.12345 -2.36873 14
850 1 0.043244 -5.1345 17.0468 9
851 1 -5.01336 5.97677 6.29342 18
852 1 1.22835 -2.97344 -16.578 12
853 1 10.7826 6.33309 -2.80316 15
854 2 -7.32016 -3.57226 -11.2545 20
855 2 -2.76272 -10.7052 4.46524 17
856 2 -10.1021 -9.3185 -5.38845 11
857 2 -12.069 -11.0761 0.0192927 9
858 2 1.52675 -2.21964 2.24692 17
859 2 -4.25374 -9.0012 -6.72436 19
860 2 6.08299 6.30746 -4.73458 17
861 2 4.52061 -13.6447 -5.82104 18
862 2 -13.702 6.95692 1.28772 12
863 2 1.14074 5.11355 -4.71393 17
864 2 5.21402 3.23372 -13.048 14
865 2 -1.23191 -1.56738 -3.94097 20
866 2 0.624928 -13.634 -10.0697 12
867 2 10.4441 -4.64032 -8.77626 12
868 2 -9.85041 -3.92091 -5.10045 17