ITEM: TIMESTEP
84000
ITEM: NUMBER OF ATOMS
1000
ITEM: BOX BOUNDS pp pp pp
-30.0 30.0
-30.0 30.0
-30.0 30.0
ITEM: ATOMS id type x y z Coordination
1 1 -11.6388 -7.43973 -2.405 15
2 1 -11.7767 -1.90155 -6.23026 15
3 1 -12.3036 -4.62435 -4.37842 16
4 1 -12.1527 -1.73116 -2.57385 15
5 1 -13.1711 1.17217 -0.929867 12
6 1 -12.6951 -4.67559 -1.05376 15
7 1 -6.76711 -9.0875 -4.46763 17
8 1 -6.14645 -7.24901 -9.51622 15
9 1 -12.3352 -7.27615 -5.56979 10
10 1 -7.10912 -9.97236 -7.9391 12
11 1 -5.89266 -6.86845 -6.12759 21
12 1 -9.0045 -6.82597 -4.31393 24
13 1 -9.90357 -9.90425 -5.67042 10
14 1 -9.3873 -9.63331 -2.36667 13
15 1 -6.11658 -6.2278 -2.63059 23
16 1 -8.97654 -6.49458 -0.97703 22
17 1 -7.01422 -9.13645 -1.05277 18
18 1 -6.05349 -1.76619 -12.9786 14
19 1 -9.02988 -1.6677 -11.4743 12
20 1 -9.20389 -7.4671 -7.55137 17
21 1 -10.3217 -3.55863 -9.50742 11
22 1 -6.33421 -1.19499 -9.46709 23
23 1 -8.73756 -1.90049 -7.56071 20
24 1 -7.03303 -4.8042 -8.03344 18
25 1 -9.76338 -4.39386 -6.34962 17
26 1 -6.07435 -1.27398 -6.06134 20
27 1 -9.03081 -1.49838 -4.34859 22
28 1 -6.8757 -4.36537 -4.67498 19
29 1 -9.77249 -4.00156 -2.68368 23
30 1 -5.94893 -1.30381 -2.9407 20
31 1 -8.99001 -1.04887 -1.09634 23
32 1 -6.96447 -3.83973 -0.945563 22
33 1 -0.883781 -9.67558 -7.09413 16
34 1 -2.284 -11.2687 -2.85383 11
35 1 3.58415 -11.4686 -1.94959 16
36 1 0.593002 -13.0192 -1.75976 11
37 1 -1.08389 -4.11477 -11.8317 20
38 1 -3.03426 -6.79716 -7.79743 19
39 1 -3.10549 -6.99056 -11.1149 15
40 1 -0.0113717 -6.66148 -12.7525 11
41 1 -4.05473 -9.44702 -5.90188 15
42 1 -0.0654719 -6.97906 -9.54162 21
43 1 -4.25008 -9.49385 -8.96984 11
44 1 0.100695 -6.68757 -6.45206 21
45 1 -2.83932 -6.18169 -4.82235 23
46 1 -1.22032 -8.83927 -4.41753 22
47 1 -4.17861 -8.86484 -2.99498 20
48 1 -0.116338 -6.34254 -3.17357 22
49 1 -2.90759 -6.15127 -1.42265 22
50 1 -0.923182 -8.71657 -1.33289 23
51 1 -3.59399 -1.18025 -14.5413 9
52 1 -4.3837 -4.18587 -12.6024 12
53 1 -2.8797 -1.47785 -11.3548 21
54 1 -7.5006 -4.48586 -11.3384 13
55 1 -4.44923 -4.12255 -9.70868 21
56 1 -0.0855529 -1.25161 -9.98212 21
57 1 -3.03954 -1.53619 -8.36503 21
58 1 -1.13214 -4.11192 -8.37589 21
59 1 -4.0041 -3.86182 -6.43775 19
60 1 -0.28599 -1.40606 -6.55364 21
61 1 -3.17302 -1.20376 -4.69545 23
62 1 -1.12708 -3.77584 -4.87061 24
63 1 -3.86868 -3.80218 -2.94972 19
64 1 -0.279005 -1.27494 -3.05594 22
65 1 -2.98763 -0.91615 -1.32805 24
66 1 -1.22229 -3.68729 -1.42162 23
67 2 -12.1782 -6.41217 -0.888235 14
68 2 -8.95884 -3.86053 -7.99368 18
69 2 -11.756 -3.93506 -6.14289 14
70 2 -12.277 -3.85263 -2.63184 16
71 2 -12.1852 -6.5291 -3.85544 13
72 2 -12.6745 -0.696324 -1.04145 14
73 2 -11.507 -8.92494 -5.56636 11
74 2 -8.72066 -9.35578 -7.27094 12
75 2 -6.12732 -9.3002 -9.32215 9
76 2 -8.53626 -9.4796 -4.27561 15
77 2 -6.98333 -7.02967 -4.37926 21
78 2 -9.73176 -7.6767 -2.34625 21
79 2 -5.9935 -8.98361 -2.64696 18
80 2 -8.6821 -9.91577 -0.659717 12
81 2 -7.00573 -6.97602 -0.972561 22
82 2 -8.95975 -3.49569 -10.837 12
83 2 -6.9111 -1.23171 -11.3038 16
84 2 -10.0172 -1.3825 -9.25229 14
85 2 -6.23118 -5.0605 -9.8676 16
86 2 -10.4846 -6.62152 -6.12745 17
87 2 -6.99983 -1.0041 -7.68547 18
88 2 -9.95314 -1.60565 -6.20257 19
89 2 -5.67412 -4.96661 -6.42526 20
90 2 -9.03062 -4.70272 -4.42992 21
91 2 -6.72309 -2.23071 -4.55291 23
92 2 -10.0404 -1.99045 -2.76264 20
93 2 -5.75872 -4.30158 -2.79667 19
94 2 -8.92676 -4.55769 -1.1164 23
95 2 -6.96752 -1.81846 -1.24606 23
96 2 -5.96698 -9.22585 -6.45854 17
97 2 0.260605 -9.82369 -5.39808 16
98 2 -0.905727 -12.0124 -1.90873 13
99 2 1.84364 -11.9976 -2.47967 13
100 2 -1.32437 -7.25431 -11.3934 11
101 2 -3.04917 -4.97628 -11.3834 17
102 2 0.594723 -9.40342 -8.16627 12
103 2 -3.96179 -7.55248 -9.50371 16
104 2 -0.969638 -7.24959 -7.89791 22
105 2 -3.83791 -7.42801 -5.81801 21
106 2 -2.94376 -9.59267 -7.56463 13
107 2 -2.89306 -10.0342 -4.21253 18
108 2 -0.897436 -6.73057 -4.83826 21
109 2 -3.45967 -6.59914 -3.07128 20
110 2 -0.00239793 -8.81063 -3.01882 19
111 2 -2.76181 -9.86962 -1.5552 18
112 2 -1.08201 -6.7253 -1.4452 22
113 2 -1.65281 -1.44556 -14.2861 12
114 2 -3.98615 -2.06229 -12.7957 16
115 2 -6.38435 -3.9153 -12.6573 11
116 2 -7.33273 -6.82037 -7.87217 16
117 2 1.32934 -0.963798 -12.8651 16
118 2 -3.85529 -2.45463 -10.0153 23
119 2 -0.240704 -4.85174 -10.2898 21
120 2 -3.1798 -4.7806 -8.14403 22
121 2 -1.03609 -1.75408 -8.30468 20
122 2 -4.09586 -1.93136 -6.51041 21
123 2 3.39773e-04 -4.36616 -6.77929 21
124 2 -3.04003 -4.01047 -4.7465 20
125 2 -1.2935 -1.26895 -4.81411 21
126 2 -3.87147 -1.96048 -2.67411 22
127 2 -0.374392 -3.90403 -3.16228 22
128 2 -3.0308 -4.22969 -1.17404 21
129 2 -1.2119 -1.30296 -1.28093 22
130 1 -11.8758 -6.57213 0.944133 14
131 1 -11.4145 -6.20138 4.39164 15
132 1 -12.0508 -1.70937 0.525154 16
133 1 -10.1506 6.10702 7.05302 12
134 1 -12.3906 -4.12993 2.81123 14
135 1 -11.6593 -0.98099 3.64891 17
136 1 -11.6428 -3.97916 9.31004 8
137 1 -12.7932 -2.98481 5.97988 13
138 1 -1.54909 -10.918 -0.327104 15
139 1 -2.70904 -11.6279 2.35633 14
140 1 -9.79184 -9.25542 0.712355 12
141 1 -5.60742 -6.8496 0.553141 19
142 1 -8.73754 -6.42287 2.00826 22
143 1 -6.60486 -9.1239 2.1535 17
144 1 -9.0094 -8.72637 4.08382 15
145 1 -5.51792 -6.53616 3.71749 20
146 1 -8.75876 -6.22153 6.07117 18
147 1 -6.37736 -10.0527 5.14277 13
148 1 -5.98733 -6.30004 7.46399 21
149 1 -9.82846 -6.73163 9.21992 11
150 1 -7.85933 -8.82864 7.43 13
151 1 -5.25344 -8.5331 9.78681 13
152 1 -9.78526 -3.81654 0.537456 23
153 1 -6.08399 -0.94882 0.357267 25
154 1 -8.74419 -1.11105 2.17931 23
155 1 -6.70152 -3.98032 2.08217 21
156 1 -9.78559 -3.92371 3.99413 22
157 1 -6.07562 -1.35318 3.52852 21
158 1 -8.6976 -1.18202 5.44327 19
159 1 -6.74794 -3.92705 5.66143 20
160 1 -9.81993 -3.56915 7.50189 18
161 1 -6.01841 -1.07474 7.16617 24
162 1 -8.80416 -1.28584 9.22634 13
163 1 -7.1477 -4.02346 8.9811 19
164 1 -5.83375 -0.756474 10.3409 18
165 1 -6.90833 -6.03293 10.584 12
166 1 0.0911702 -13.5157 1.40437 11
167 1 3.21542 -13.5662 0.243797 10
168 1 -0.541027 -11.7385 4.50935 17
169 1 -2.98065 -11.3376 5.92983 12
170 1 -0.169166 -11.2846 8.24701 11
171 1 -3.74988 -9.02671 0.189213 19
172 1 0.184894 -6.40381 0.516038 22
173 1 -3.05169 -5.9828 1.84924 24
174 1 -1.06096 -8.95876 2.12327 23
175 1 -3.67722 -9.3706 3.6134 19
176 1 -0.116957 -6.31663 3.78921 24
177 1 -3.05651 -6.33138 5.48715 24
178 1 -0.785362 -8.89568 5.51517 18
179 1 -4.37546 -8.65078 7.02035 19
180 1 0.135669 -6.73737 7.19749 19
181 1 -3.15764 -6.50358 8.856 20
182 1 -1.61645 -8.51603 9.72399 14
183 1 -0.415736 -7.17555 12.4701 13
184 1 -3.72851 -6.52365 12.1327 12
185 1 -4.01296 -3.61262 0.394606 25
186 1 0.152722 -0.782411 0.228854 23
187 1 -2.91101 -1.00391 1.95891 23
188 1 -1.26577 -3.72243 1.95408 23
189 1 -4.06085 -3.71606 3.87399 23
190 1 -0.463254 -1.29349 3.75901 20
191 1 -3.20127 -1.07645 5.41406 21
192 1 -1.03795 -4.18985 5.77006 23
193 1 -4.09097 -3.62536 6.99059 23
194 1 -0.416248 -0.867015 7.095 23
195 1 -2.89844 -1.0757 8.93822 22
196 1 -1.13508 -3.92304 8.71543 21
197 1 -4.10502 -3.94789 10.3732 19
198 1 -0.208836 -1.92516 10.4986 18
199 1 -3.01682 -1.42524 11.9533 15
200 1 -1.17307 -4.08816 12.2371 16
201 1 -0.145833 -1.49932 13.9447 12
202 2 -12.2919 -6.55094 2.77759 11
203 2 -11.631 -4.49933 0.857969 18
204 2 -12.2891 -2.02885 2.24539 14
205 2 -12.1554 -4.38936 4.76134 15
206 2 -13.0978 -1.18715 5.46142 10
207 2 -11.8713 -3.78096 7.53625 11
208 2 -10.0114 -7.19764 0.801837 19
209 2 -5.59213 -8.86948 0.287271 16
210 2 -8.46581 -9.16936 2.27753 13
211 2 -6.6829 -7.13269 2.34112 21
212 2 -9.68418 -6.80427 4.05808 16
213 2 -5.47474 -9.35469 3.7919 17
214 2 -8.00659 -9.2633 5.50356 13
215 2 -6.75374 -6.36461 5.56709 20
216 2 -11.4125 -5.96907 9.2875 7
217 2 -6.31843 -8.37016 8.09039 16
218 2 -8.25567 -5.44554 9.49719 16
219 2 -10.1182 -2.01373 0.159786 22
220 2 -5.76756 -4.78685 0.782394 23
221 2 -8.99542 -4.3412 2.33755 23
222 2 -7.00921 -1.82908 1.62317 21
223 2 -9.78813 -1.70397 3.87779 21
224 2 -5.90812 -4.54301 3.83715 23
225 2 -9.18224 -4.32022 5.85608 21
226 2 -6.77824 -1.77446 5.2867 23
227 2 -9.2311 -1.44805 7.22801 16
228 2 -5.82329 -4.29299 7.34881 22
229 2 -10.1115 -2.90169 9.32733 13
230 2 -6.77805 -1.60606 8.82052 21
231 2 -8.89048 0.841331 8.74718 19
232 2 -9.13262 -7.31793 7.54388 14
233 2 -5.8351 -4.43745 10.4848 15
234 2 -1.5647 -12.2343 1.02739 14
235 2 1.35129 -13.2621 -0.0557352 12
236 2 -2.39413 -10.8832 4.09647 13
237 2 -0.950644 -11.2057 6.38426 12
238 2 -3.33051 -7.04545 0.269923 22
239 2 -0.279966 -9.49439 0.452845 19
240 2 -3.08009 -9.77766 1.91366 17
241 2 -0.773448 -6.97084 2.15058 22
242 2 -3.6848 -6.75612 3.6705 20
243 2 -0.18825 -9.51656 3.86346 21
244 2 -4.73946 -10.4462 6.31953 13
245 2 -0.963503 -7.00429 5.44414 17
246 2 -4.09107 -6.67387 7.20279 18
247 2 -0.172169 -9.74865 9.55479 13
248 2 -3.60762 -8.72173 8.89659 13
249 2 -1.49115 -7.14865 8.18596 16
250 2 -5.37149 -7.17738 11.0356 12
251 2 -2.02825 -7.41121 11.507 14
252 2 -3.95078 -1.58067 0.420267 21
253 2 -0.224663 -4.38811 0.184207 25
254 2 -2.90826 -4.11477 2.17056 22
255 2 -1.22768 -1.83561 1.86291 24
256 2 -3.95056 -1.44527 3.63826 21
257 2 -0.0257222 -4.39138 3.92699 22
258 2 -2.88686 -4.2718 5.44043 23
259 2 -1.32381 -1.44297 5.48597 22
260 2 -3.77654 -1.66084 7.18849 23
261 2 0.0895361 -4.69198 7.18001 21
262 2 -2.92159 -4.49777 8.36982 20
263 2 -0.873842 -1.68108 8.8508 21
264 2 -4.34633 -1.91261 10.5346 18
265 2 -0.0356739 -4.21984 10.6766 19
266 2 -3.01382 -4.70605 11.9974 15
267 2 -1.37674 -2.25498 12.6228 16
268 2 -4.8136 2.86866 12.2618 11
269 2 0.0222647 -5.50698 13.2608 11
270 1 -9.10516 3.86222 -8.03485 14
271 1 -11.7984 3.61429 -6.11741 13
272 1 -12.7244 0.987196 -4.45263 13
273 1 -8.8258 6.74355 -3.18584 19
274 1 -11.8845 3.67916 -2.8674 16
275 1 -12.6635 6.4156 -4.42945 11
276 1 -5.88195 3.81617 -12.9666 9
277 1 -7.18871 0.831121 -11.3142 13
278 1 -9.54389 0.464076 -9.47285 14
279 1 -6.107 3.83167 -9.82476 17
280 1 -5.13584 6.55935 -10.8338 12
281 1 -7.11755 1.27853 -7.93209 20
282 1 -10.119 0.835489 -6.31986 19
283 1 -5.97092 4.22839 -6.7443 23
284 1 -8.98399 4.08504 -4.97389 24
285 1 -6.88526 1.57739 -4.74676 25
286 1 -9.73811 1.63694 -3.01875 20
287 1 -6.21523 4.08052 -3.54759 25
288 1 -9.14129 3.97911 -1.28974 20
289 1 -6.92137 1.39232 -1.46584 21
290 1 -6.85358 7.56093 -8.06638 13
291 1 -9.77525 6.70473 -6.35309 14
292 1 -5.72485 10.9973 -5.51253 13
293 1 -8.36391 9.69384 -4.09147 15
294 1 -6.73755 7.11522 -5.04741 20
295 1 -11.4602 8.99897 -3.90401 8
296 1 -5.43433 9.5427 -3.14023 21
297 1 -8.86919 9.57273 -1.67366 18
298 1 -6.90029 6.70709 -1.51641 22
299 1 -6.8469 11.3266 1.2646 14
300 1 -0.976681 0.318304 -14.7405 10
301 1 -3.70057 1.55973 -12.7227 17
302 1 -0.214767 3.89107 -12.959 12
303 1 -2.86418 4.22008 -10.9451 20
304 1 -1.05347 1.25897 -11.3513 24
305 1 -4.34551 1.38644 -9.81948 22
306 1 -0.164657 4.38842 -9.6879 24
307 1 -3.0264 3.76199 -8.14668 19
308 1 -1.02395 1.32881 -8.41861 22
309 1 -3.64006 1.38319 -6.4743 23
310 1 -0.236005 3.56199 -6.38635 22
311 1 -2.94996 3.70303 -4.91166 21
312 1 -1.11775 1.14193 -4.45868 21
313 1 -4.06759 1.33325 -2.93677 22
314 1 -0.113886 3.93344 -3.14969 22
315 1 -3.23461 3.7634 -1.71183 20
316 1 -1.10848 1.64738 -1.47764 23
317 1 -1.64093 7.53499 -10.6824 15
318 1 -3.64062 8.13632 -8.31314 14
319 1 -2.27141 12.0787 -6.26834 12
320 1 -0.941337 10.1513 -8.56265 17
321 1 -0.989461 6.64708 -7.69738 22
322 1 -3.75476 6.1774 -6.44339 19
323 1 0.109388 9.31647 -6.10137 20
324 1 -3.05507 9.05451 -4.93706 20
325 1 -1.28217 6.606 -4.43104 23
326 1 -3.77544 6.63674 -3.30063 23
327 1 0.117672 9.46053 -3.08755 23
328 1 -2.97941 9.17535 -1.27629 21
329 1 -1.09371 6.29129 -1.1731 21
330 1 -3.40791 11.691 -3.36039 15
331 1 -0.84399 13.5731 -3.64029 11
332 1 -6.73037 12.3133 -2.14647 12
333 1 -1.09559 12.204 -1.19128 17
334 2 -10.2595 4.32155 -6.65382 15
335 2 -11.2466 7.44914 -5.12426 12
336 2 -12.5377 -1.08713 -4.52656 14
337 2 -12.3692 1.44703 -2.59685 13
338 2 -12.5012 4.47961 -4.58114 14
339 2 -8.64549 6.09128 -4.83011 20
340 2 -12.8015 7.30422 -2.75408 10
341 2 -5.80853 1.90446 -12.0814 15
342 2 -9.07712 0.295986 -11.4885 10
343 2 -3.62574 3.47428 -12.5908 15
344 2 -6.17258 5.04204 -11.5304 10
345 2 -6.09896 0.701672 -9.57579 18
346 2 -9.01934 1.73504 -7.67805 18
347 2 -7.19908 3.80366 -8.2863 15
348 2 -11.607 1.87868 -5.80908 16
349 2 -5.81869 0.916504 -6.61299 20
350 2 -8.93182 0.616215 -4.53997 23
351 2 -6.98252 3.5576 -5.17615 21
352 2 -9.63682 3.54315 -3.11322 21
353 2 -5.98715 0.611229 -2.937 24
354 2 -8.87512 0.95525 -1.40484 20
355 2 -6.74598 3.32828 -1.75155 24
356 2 -5.57504 7.70425 -9.35212 12
357 2 -8.46087 7.75321 -7.29332 10
358 2 -3.35991 8.10987 -6.45323 22
359 2 -5.75096 6.21346 -6.39586 18
360 2 -9.57086 8.53428 -3.16913 17
361 2 -6.71345 9.35613 -4.9158 19
362 2 -6.87973 9.39281 1.50164 18
363 2 -6.23309 6.27754 -3.51351 21
364 2 -8.61988 5.94864 -1.4572 21
365 2 -6.4209 8.54989 -1.76801 24
366 2 -7.98621 11.003 -2.41137 13
367 2 -3.14746 0.57192 -14.1487 12
368 2 -0.0445288 1.70533 -13.5063 14
369 2 -2.8706 0.697949 -11.0464 20
370 2 -0.976343 3.29144 -11.1917 19
371 2 -4.00012 3.20881 -9.54388 23
372 2 0.123514 1.00818 -9.96495 21
373 2 -2.90863 0.676074 -8.07448 22
374 2 -1.03454 3.45269 -8.12367 24
375 2 -4.20159 3.53191 -6.71957 23
376 2 -0.202937 0.881838 -6.21144 23
377 2 -3.24963 0.732215 -4.66744 23
378 2 -1.04111 3.22553 -4.57219 24
379 2 -4.30072 3.50881 -3.37716 22
380 2 -0.00173001 0.851611 -2.84466 21
381 2 -3.07074 1.00319 -1.18367 23
382 2 -1.3231 3.71369 -1.41482 22
383 2 -0.0316903 8.13525 -11.844 11
384 2 -3.03621 6.36916 -10.8128 16
385 2 -0.847818 10.8824 -6.69513 16
386 2 -5.44448 11.6201 -3.528 15
387 2 -0.0219587 6.24543 -9.60324 21
388 2 -2.59384 5.67128 -7.9562 23
389 2 -1.77578 8.37739 -8.94874 17
390 2 -2.29857 12.7333 -4.40314 13
391 2 -0.371983 5.91359 -6.04288 25
392 2 -2.80543 5.55766 -4.69944 24
393 2 -1.01705 8.84144 -4.41652 22
394 2 -3.59503 9.22046 -2.93366 21
395 2 -0.10408 6.19389 -2.83103 22
396 2 -3.38873 6.04459 -1.65823 21
397 2 -1.21139 8.43949 -1.37835 22
398 2 0.222265 10.7668 -1.41411 19
399 2 0.905645 12.7856 -4.61545 13
400 2 -0.524406 13.4028 0.39113 12
401 2 0.379008 13.1578 -2.25097 12
402 1 -12.5833 4.12194 0.509468 15
403 1 -12.7317 2.2533 2.73793 13
404 1 -11.7555 4.90164 4.40276 15
405 1 -12.8835 0.705036 5.74858 10
406 1 -10.9375 3.21076 7.32298 15
407 1 -13.244 6.34983 -1.19235 9
408 1 -9.85512 1.52353 0.558487 21
409 1 -5.9455 4.22692 -0.0631019 20
410 1 -9.9645 4.24636 2.04213 20
411 1 -6.95719 1.94729 1.7747 25
412 1 -9.84812 1.56829 4.00214 23
413 1 -5.98654 4.17691 3.85852 21
414 1 -8.68815 4.38159 5.42907 22
415 1 -6.90564 1.54735 5.13022 22
416 1 -10.2236 0.451854 7.34612 15
417 1 -5.80989 4.27128 6.98081 23
418 1 -9.82314 2.03355 10.5272 10
419 1 -6.99818 1.72775 8.38561 21
420 1 -8.60727 4.20334 9.12569 16
421 1 -2.51994 9.82634 10.9551 11
422 1 -6.67085 2.24295 12.0231 12
423 1 -10.0694 6.68606 -0.154024 19
424 1 -6.02291 8.5812 0.0426869 21
425 1 -8.79158 9.0283 1.60759 13
426 1 -7.38258 5.87873 1.9766 21
427 1 -11.3049 7.09867 2.16787 13
428 1 -6.18121 9.54747 3.27751 18
429 1 -10.0713 8.05212 4.90125 12
430 1 -6.96298 6.9218 5.12761 21
431 1 -6.80124 6.89995 8.47293 17
432 1 -6.01499 9.24582 6.93346 12
433 1 -5.3848 5.00487 10.2418 16
434 1 -3.93382 1.66495 0.432494 23
435 1 -0.146804 4.06885 0.250997 23
436 1 -3.13123 4.19048 1.91563 23
437 1 -1.13483 1.18736 2.05722 21
438 1 -4.04541 1.48795 3.762 22
439 1 -0.181128 4.0093 3.49083 22
440 1 -2.84415 4.39628 4.90893 22
441 1 -1.3283 1.25004 5.49722 22
442 1 -3.95891 1.53857 7.09117 22
443 1 -0.106957 4.31432 6.86373 21
444 1 -2.90687 4.50436 8.52451 23
445 1 -0.865589 1.78496 8.90095 20
446 1 -3.58551 1.96685 10.0729 25
447 1 -0.20573 3.92966 10.5298 20
448 1 -3.09861 4.4483 12.1784 14
449 1 -0.835143 1.16091 12.4418 19
450 1 -3.56336 1.95801 13.4822 11
451 1 -0.737117 4.19118 13.4964 13
452 1 -4.02666 6.59391 0.019325 21
453 1 0.148262 9.2539 -0.160774 17
454 1 -3.04118 9.56449 1.72656 24
455 1 -1.23772 7.03468 1.93932 24
456 1 -4.48923 6.75877 3.22109 24
457 1 -0.130291 9.67855 3.09033 22
458 1 -3.13649 9.45792 4.7665 21
459 1 -1.08152 6.98469 5.35956 21
460 1 -4.01361 6.6929 6.38478 20
461 1 0.236675 9.83086 6.27623 21
462 1 -5.63017 8.66525 10.4981 8
463 1 -1.17163 7.52694 8.22858 23
464 1 0.365781 9.66431 11.6652 10
465 1 -3.1759 9.49632 8.23745 15
466 1 -1.24846 6.99947 11.8409 13
467 1 -4.18282 12.2388 0.0473857 15
468 1 -1.53398 12.7302 1.94017 14
469 1 -4.34116 12.3206 3.34554 12
470 1 -1.38675 11.9253 5.10095 15
471 1 -0.383825 11.266 8.66337 14
472 2 -12.8421 2.11937 0.850376 12
473 2 -10.8732 4.47312 6.06213 15
474 2 -11.8765 4.16072 2.60151 15
475 2 -11.7673 1.07594 3.93274 16
476 2 -8.61285 5.81622 8.0576 16
477 2 -11.6144 1.47234 6.8655 12
478 2 -12.6314 4.63469 -1.34221 14
479 2 -11.5771 6.77217 4.44516 12
480 2 -10.1105 3.39889 0.307502 22
481 2 -6.07441 1.05362 0.345021 23
482 2 -8.86073 1.11983 2.11896 21
483 2 -6.89069 3.94593 1.96939 22
484 2 -9.80565 3.45603 4.06598 21
485 2 -6.04033 1.097 3.50342 21
486 2 -8.91594 0.877483 5.53181 22
487 2 -7.12556 3.47578 5.70183 22
488 2 -5.94364 6.19064 6.81736 22
489 2 -5.8268 0.94421 7.01565 22
490 2 -10.3327 3.20429 9.04302 12
491 2 -6.70922 3.84773 9.2189 21
492 2 -5.76853 1.23529 10.2383 19
493 2 -8.49797 2.45884 11.7244 9
494 2 -9.31798 8.55308 -0.138344 17
495 2 -6.08415 6.13063 0.246021 19
496 2 -9.45756 6.07223 1.53546 20
497 2 -9.9015 8.52783 3.02924 14
498 2 -12.0349 6.52011 0.406297 13
499 2 -6.30593 6.35673 3.53638 19
500 2 -8.77375 6.48682 5.47191 18
501 2 -6.67368 8.98448 5.20896 17
502 2 -6.83349 8.91342 8.70634 10
503 2 -5.60825 6.76184 10.0487 13
504 2 -4.0319 8.86815 6.4659 20
505 2 -3.52865 3.95395 10.3544 20
506 2 -6.17344 11.7998 -0.309708 14
507 2 -6.02632 11.6351 2.77733 12
508 2 -3.78421 3.6111 0.131465 21
509 2 -0.0888751 1.15785 0.259001 23
510 2 -3.17815 1.07151 2.07884 23
511 2 -1.31191 3.66486 1.84156 21
512 2 -4.16233 3.84079 3.43239 23
513 2 0.0436607 0.56314 3.49548 23
514 2 -3.26295 0.999618 5.33603 23
515 2 -1.12813 3.40625 5.11426 25
516 2 -4.07042 3.44148 6.595 23
517 2 -0.216679 1.24108 7.12542 21
518 2 -2.9218 0.759069 8.81615 23
519 2 -1.15131 3.62686 8.68195 22
520 2 -1.27017 9.02802 12.2992 8
521 2 0.124751 2.07533 10.8455 22
522 2 -1.99848 2.76383 13.1582 14
523 2 -2.62057 0.569257 12.1326 19
524 2 0.218902 0.347192 13.8931 14
525 2 -4.10534 8.70065 0.258288 23
526 2 0.039812 6.28915 0.632183 20
527 2 -2.9162 6.34785 1.70704 20
528 2 -1.30853 9.32439 1.4184 22
529 2 -4.22114 8.83491 3.11307 22
530 2 -0.323541 6.1588 3.58748 24
531 2 -3.33403 6.16158 4.72459 22
532 2 -1.20873 9.09269 4.71794 22
533 2 -1.18028 9.4313 7.85215 20
534 2 -0.0141957 6.33671 6.75517 22
535 2 -2.64057 6.03981 7.53684 20
536 2 -4.1419 9.28406 9.73639 13
537 2 -0.978022 6.89718 10.0086 20
538 2 1.3917 8.78916 10.2605 14
539 2 -2.98519 11.5258 -1.19509 20
540 2 -3.34275 11.9533 1.65083 17
541 2 -0.435908 11.8162 3.31007 17
542 2 -3.16377 11.3994 4.5673 14
543 2 1.68239 11.2084 8.2445 11
544 1 1.62838 -11.2834 -4.39765 12
545 1 8.67752 -9.63428 -2.7669 14
546 1 6.21986 -11.7203 -1.656 11
547 1 3.00525 -6.79037 -11.1946 15
548 1 1.9911 -9.39937 -9.37092 11
549 1 8.24015 -7.23329 -8.01745 16
550 1 3.30958 -7.28246 -7.90558 20
551 1 4.43582 -10.5407 -6.96517 12
552 1 1.90203 -9.5074 -6.51506 17
553 1 5.91144 -7.27276 -6.07974 21
554 1 3.00128 -6.26329 -4.833 22
555 1 5.30376 -9.1974 -4.10595 18
556 1 1.86417 -9.03005 -3.0795 21
557 1 5.47854 -6.37483 -2.91404 22
558 1 2.38642 -6.14611 -1.52418 24
559 1 4.47102 -8.70262 -0.781661 22
560 1 1.95336 -4.56962 -13.3267 13
561 1 -0.178098 -1.97971 -13.1473 16
562 1 2.67636 -1.79673 -11.5379 16
563 1 4.81223 -4.2751 -11.2131 14
564 1 1.82312 -4.28155 -9.98499 22
565 1 5.76519 -1.72247 -9.56013 19
566 1 2.4859 -1.06672 -8.40652 22
567 1 4.51153 -3.78022 -8.12416 20
568 1 1.92476 -3.72926 -6.45241 21
569 1 5.34472 -1.2422 -6.55754 22
570 1 2.51793 -0.793108 -4.92 25
571 1 4.44793 -3.96677 -4.90433 24
572 1 1.50358 -3.63859 -3.07746 22
573 1 5.50419 -1.34197 -3.3024 20
574 1 2.6404 -0.892931 -1.51913 23
575 1 4.72327 -3.43947 -1.44943 24
576 1 10.6218 -7.31411 -6.48972 14
577 1 7.87616 -9.6564 -6.0134 12
578 1 12.5615 -4.52401 -4.64062 15
579 1 7.97221 -6.99256 -4.71765 22
580 1 11.2837 -7.39447 -3.24668 15
581 1 13.858 -6.09091 -2.50885 11
582 1 8.71087 -6.28916 -1.7104 21
583 1 11.3526 -7.33084 -0.00591451 13
584 1 7.52616 -4.41334 -9.73521 16
585 1 5.69157 -7.08766 -9.96026 14
586 1 8.55066 -1.61357 -8.68777 16
587 1 10.1837 -4.15573 -7.50589 16
588 1 7.31288 -3.90399 -6.43489 22
589 1 11.0281 -1.80097 -6.05421 17
590 1 8.35319 -1.87198 -4.79083 23
591 1 10.048 -4.53763 -4.57782 23
592 1 7.18544 -3.80933 -3.41389 19
593 1 10.9208 -1.84177 -3.32646 20
594 1 8.32433 -1.09774 -1.35043 21
595 1 11.2658 -4.40113 -1.45713 19
596 1 14.5071 -2.61041 -3.33169 11
597 1 15.1805 -0.278033 -1.45526 10
598 2 1.99343 -7.56734 -9.97338 18
599 2 4.93974 -10.0852 -2.42827 18
600 2 7.9062 -10.5174 -1.15579 12
601 2 1.86752 -6.76286 -12.7732 11
602 2 9.20316 -8.77178 -6.85875 11
603 2 4.68792 -6.008 -11.0728 15
604 2 3.37611 -9.45445 -8.0445 12
605 2 5.23992 -7.17602 -7.93999 19
606 2 1.92735 -7.20096 -6.33029 24
607 2 5.74077 -9.45948 -6.10083 16
608 2 3.19095 -10.7244 -5.09284 14
609 2 4.67566 -7.34598 -4.60842 22
610 2 1.97076 -6.82729 -3.21725 21
611 2 5.35724 -9.40516 0.704067 22
612 2 2.63048 -9.61372 -1.45122 21
613 2 4.42306 -6.55199 -1.25884 21
614 2 -1.0904 -1.95425 -11.4749 20
615 2 3.14738 -3.65247 -12.2104 13
616 2 4.20108 -0.966727 -10.7602 18
617 2 1.55486 -2.25111 -9.51224 21
618 2 7.47338 -6.28445 -9.6993 10
619 2 2.98227 -5.01869 -8.44735 23
620 2 4.2442 -1.86469 -8.01555 21
621 2 1.6942 -1.72338 -6.37515 22
622 2 5.35136 -4.10301 -6.43503 22
623 2 2.45308 -4.56247 -4.59858 23
624 2 4.26452 -1.63974 -4.69263 22
625 2 1.6304 -1.65635 -3.40621 23
626 2 5.25024 -4.11527 -3.07208 22
627 2 2.57108 -4.05179 -1.39348 23
628 2 4.69779 -1.24348 -1.602 19
629 2 9.89583 -5.91247 -7.66891 14
630 2 7.47712 -6.10495 -6.26945 24
631 2 7.52212 -9.06117 -4.17084 17
632 2 12.7665 -6.54777 -4.17267 13
633 2 7.39797 -5.90712 -3.07595 21
634 2 10.6022 -6.49912 -1.63363 18
635 2 13.2401 -5.44803 2.46948 11
636 2 5.78134 -3.75841 -9.55275 18
637 2 7.22504 -0.598635 -9.54899 18
638 2 10.0611 -6.47758 -4.76055 20
639 2 8.54689 -3.45348 -8.23724 18
640 2 7.34662 -1.18767 -6.56177 21
641 2 11.3078 -3.70337 -6.12674 17
642 2 8.44844 -3.6361 -4.793 21
643 2 11.2854 -3.86949 -3.17507 23
644 2 7.42657 -1.73338 -3.08611 22
645 2 12.8695 -5.91189 -0.680485 12
646 2 8.46423 -4.32527 -0.996303 21
647 2 10.4261 -1.19652 -1.48365 20
648 2 11.136 1.84755 -6.84192 14
649 2 15.6424 -2.07346 -1.96046 8
650 2 14.2248 -4.40884 -3.69678 10
651 1 5.07388 -11.3851 1.38542 18
652 1 2.44556 -11.6635 3.22792 18
653 1 4.77557 -13.098 3.58841 10
654 1 2.23384 -12.791 6.23063 12
655 1 1.65906 -9.12949 0.46778 20
656 1 5.8942 -5.89691 0.197023 22
657 1 2.75488 -6.12079 1.94207 25
658 1 4.14194 -8.51954 2.0767 21
659 1 1.68958 -8.68838 4.00218 20
660 1 6.0292 -6.98018 3.32478 22
661 1 3.0457 -6.08147 5.23947 20
662 1 4.81467 -10.1742 5.17896 18
663 1 2.61172 -10.1352 7.19457 17
664 1 5.95313 -7.23785 6.60116 20
665 1 1.44219 -9.12411 10.3575 11
666 1 4.78326 -9.34048 8.95633 11
667 1 5.16089 -6.67133 10.3319 15
668 1 2.79904 -6.98835 8.12851 17
669 1 1.58223 -3.46015 0.0662813 22
670 1 5.42253 -1.11836 0.276552 21
671 1 2.6607 -1.08522 2.11371 22
672 1 4.34764 -3.61635 1.93817 21
673 1 1.63501 -3.61727 3.56026 22
674 1 5.6296 -1.76076 3.6146 22
675 1 2.65134 -1.31398 5.40875 21
676 1 4.7465 -4.17559 5.01513 19
677 1 1.86314 -3.6021 7.27539 21
678 1 5.58038 -1.82411 7.11777 19
679 1 2.64079 -0.997313 8.81037 19
680 1 4.39063 -4.18619 8.87005 20
681 1 1.64769 -5.32174 10.7515 18
682 1 5.41919 -1.50096 10.4393 18
683 1 2.57417 -1.36461 12.5201 15
684 1 4.235 -4.01708 12.0254 14
685 1 1.42622 -4.32415 13.9165 11
686 1 7.37827 -9.22257 0.400079 17
687 1 13.5357 -4.83483 0.72078 16
688 1 8.93048 -7.12147 1.69287 17
689 1 11.1466 -6.48957 6.7035 10
690 1 7.15428 -10.0131 3.44612 13
691 1 11.7088 -6.48031 3.3849 14
692 1 8.66144 -6.87742 4.88764 19
693 1 8.15601 -7.06379 8.63975 12
694 1 7.50695 -3.49402 0.393023 19
695 1 11.6218 -1.86673 0.0106305 18
696 1 8.61555 -1.42468 2.11371 20
697 1 10.5836 -3.46184 1.79338 21
698 1 7.56802 -4.24982 3.45044 20
699 1 11.6208 -1.08135 3.86497 18
700 1 8.17007 -1.42472 5.23127 22
701 1 10.4615 -3.75634 5.37533 19
702 1 7.56105 -4.63935 6.78562 21
703 1 10.8332 -0.996135 6.94422 15
704 1 8.157 -1.31622 9.00021 16
705 1 9.65039 -3.80943 8.53202 14
706 1 7.12617 -4.30916 10.2067 15
707 1 16.2172 -2.93703 -0.515563 7
708 1 14.5594 -1.59679 2.29316 13
709 1 12.8896 -3.86967 3.80345 14
710 2 4.80127 -12.3074 -0.572227 12
711 2 3.89774 -12.8149 1.97092 12
712 2 0.508556 -12.3907 3.16604 16
713 2 1.54251 -11.7289 7.62832 11
714 2 1.97755 -6.9986 0.316265 21
715 2 6.0167 -11.7194 3.25513 12
716 2 2.59482 -9.51421 2.24852 20
717 2 4.82304 -6.65424 1.74547 20
718 2 2.13542 -6.52329 3.74079 21
719 2 5.47651 -8.85453 3.61604 18
720 2 3.17775 -13.1094 4.69171 11
721 2 5.28325 -5.99492 5.36796 19
722 2 2.48058 -7.73607 6.16789 20
723 2 4.96492 -10.2798 7.12073 11
724 2 2.79634 -8.9953 8.82937 15
725 2 5.09364 -7.59606 8.38051 15
726 2 1.03362 -7.50879 11.0608 13
727 2 1.81163 -1.54893 0.141707 23
728 2 5.43429 -3.99484 0.285505 21
729 2 2.32123 -4.34039 1.64775 21
730 2 4.72216 -1.69381 1.95079 23
731 2 1.67552 -1.59588 3.63285 21
732 2 5.55675 -3.9727 3.32838 22
733 2 2.58223 -4.15362 5.21942 21
734 2 4.77532 -1.58518 5.27314 21
735 2 1.61416 -1.79029 7.15323 21
736 2 5.6322 -3.82555 7.025 22
737 2 2.62508 -5.05552 9.02808 21
738 2 4.07934 -2.31547 8.68772 19
739 2 1.63544 -1.16104 10.4921 19
740 2 5.2575 -4.85867 10.6044 15
741 2 2.67019 -4.78633 12.3662 15
742 2 4.25662 -2.15611 11.9361 15
743 2 1.60875 -2.43316 13.6566 14
744 2 10.3391 -9.38871 -3.40614 12
745 2 7.69894 -6.91108 0.0131614 20
746 2 8.14071 -9.02948 2.21191 13
747 2 11.006 -3.8981 3.56207 19
748 2 7.88315 -6.219 3.2885 22
749 2 2.83156 -10.5726 5.17313 18
750 2 10.6447 -6.84561 4.90325 13
751 2 7.73373 -6.98099 6.55972 15
752 2 7.01009 -7.01083 10.3659 9
753 2 7.51031 -1.34467 0.397228 21
754 2 12.2481 -3.63848 0.382953 18
755 2 8.37582 -3.27688 2.21193 19
756 2 10.5977 -1.36047 1.81357 23
757 2 7.42527 -0.616933 3.7624 21
758 2 10.7999 -6.61598 1.62138 17
759 2 8.9192 -4.80509 5.26538 19
760 2 10.2666 -1.74239 5.36163 21
761 2 7.33307 -1.23789 7.01159 21
762 2 10.5925 -4.66119 6.97327 15
763 2 8.09174 -4.85122 8.65391 17
764 2 9.91682 -1.98362 8.32427 14
765 2 6.87853 -2.48045 9.91932 17
766 2 13.2408 -0.794632 -0.284057 18
767 2 15.6305 -2.48991 1.1754 9
768 2 13.2524 -2.01227 3.53017 16
769 1 1.7736 0.91035 -13.1011 14
770 1 4.40424 6.95017 -11.4227 12
771 1 2.7158 3.93173 -11.4615 16
772 1 4.6687 0.875189 -11.5836 12
773 1 1.76079 1.87049 -9.82289 23
774 1 5.26165 3.79199 -9.87392 19
775 1 2.76632 4.2585 -7.88317 24
776 1 4.34791 1.66041 -7.97221 25
777 1 1.63374 1.48972 -6.57897 24
778 1 5.56964 4.23911 -6.52581 22
779 1 2.77837 3.83756 -4.98373 24
780 1 4.82525 1.48746 -4.86896 23
781 1 1.89647 1.59212 -3.00848 23
782 1 5.4134 3.99452 -3.39183 23
783 1 2.67888 3.82187 -1.49136 21
784 1 5.16462 1.23552 -1.447 23
785 1 1.16246 6.59133 -12.3595 13
786 1 0.95625 9.42569 -10.9703 11
787 1 1.54537 7.28712 -9.2499 21
788 1 2.51866 9.67336 -7.76428 16
789 1 4.49942 7.29959 -8.19674 21
790 1 1.47195 6.31451 -6.30079 18
791 1 7.33827 6.51139 -6.635 20
792 1 3.27345 9.80111 -4.36557 18
793 1 4.43761 6.77788 -4.70641 22
794 1 1.82195 6.64312 -2.97222 23
795 1 5.62253 9.43675 -2.77316 19
796 1 2.78164 9.68509 -1.35213 23
797 1 4.41617 6.78238 -1.67748 21
798 1 0.706655 12.0718 -6.26871 13
799 1 5.66204 9.17167 -6.22002 13
800 1 1.92247 12.146 -2.90183 15
801 1 3.67298 12.2758 0.982033 13
802 1 10.4511 6.6863 -7.61286 9
803 1 7.48715 1.23876 -9.97678 13
804 1 11.5383 3.64453 -6.19046 12
805 1 10.3275 0.842907 -8.12068 13
806 1 7.8126 0.909903 -6.73494 20
807 1 11.3662 3.36316 -2.98019 21
808 1 8.43794 3.5115 -4.99147 22
809 1 10.2993 1.22789 -4.98081 19
810 1 7.59439 1.36956 -2.94638 21
811 1 13.0722 6.11766 -3.0178 9
812 1 8.44429 3.58407 -1.3731 23
813 1 10.5813 0.992622 -1.15693 21
814 1 7.33732 6.43058 -9.72374 13
815 1 7.86716 3.50325 -8.24921 17
816 1 8.2343 8.7347 -4.69587 11
817 1 10.4079 5.76908 -4.38439 18
818 1 7.49349 6.57087 -2.96427 23
819 1 8.62225 9.11618 -1.34018 12
820 1 10.6986 6.04842 -0.931563 19
821 1 4.47113 12.5381 -1.69423 10
822 1 12.9721 0.648371 -3.4233 14
823 1 14.2277 3.25155 -1.5695 13
824 1 14.3185 4.28382 2.12673 13
825 2 1.41742 4.5954 -12.5566 15
826 2 0.173329 -4.60561 -13.0071 13
827 2 2.81854 1.67805 -11.653 18
828 2 4.33762 5.03969 -11.2609 16
829 2 1.77868 3.90485 -9.58132 23
830 2 5.72308 1.89571 -10.3545 17
831 2 2.58217 1.25703 -8.08405 21
832 2 4.53438 3.57033 -7.7762 21
833 2 1.61612 3.66175 -6.45647 22
834 2 5.58022 0.726069 -6.62139 23
835 2 2.75515 1.25861 -4.93916 20
836 2 4.76452 3.34533 -5.05724 23
837 2 1.82614 3.43761 -3.19025 23
838 2 5.66915 0.779627 -3.25703 22
839 2 2.78668 1.04098 -1.28696 20
840 2 4.58908 3.40875 -1.60739 23
841 2 2.69646 7.7731 -11.0044 15
842 2 0.891878 10.1745 -9.39033 14
843 2 5.66516 7.2164 -9.94892 12
844 2 2.79047 6.37244 -7.99757 23
845 2 4.24517 9.53074 -7.4553 14
846 2 -3.79091 10.975 -6.16533 14
847 2 5.48261 6.28283 -6.33733 22
848 2 1.04587 8.25675 -7.40547 20
849 2 4.84788 8.76078 -4.42728 19
850 2 1.96218 8.77329 -3.05678 21
851 2 2.52361 6.0025 -4.69658 24
852 2 2.70022 5.89104 -1.10054 23
853 2 4.82486 8.65414 -1.21838 24
854 2 1.97887 10.5236 -5.92711 17
855 2 3.44595 11.1877 -2.83822 18
856 2 3.02454 13.2651 -0.707647 11
857 2 8.57917 1.66363 -8.21969 16
858 2 6.95524 4.65058 -9.6972 15
859 2 10.8943 1.49357 -3.1193 21
860 2 10.443 -1.08096 -7.67135 14
861 2 10.9375 5.43906 -6.3754 11
862 2 7.63976 4.19094 -6.68655 22
863 2 10.1675 -0.713592 -4.75484 21
864 2 8.11601 1.43768 -4.79199 20