ITEM: TIMESTEP
10000
ITEM: NUMBER OF ATOMS
2000
ITEM: BOX BOUNDS pp pp pp
-30.0 30.0
-30.0 30.0
-30.0 30.0
ITEM: ATOMS id type x y z Coordination
1 1 -11.6139 6.72515 -14.2971 14
2 1 -7.43718 -11.9416 -7.05266 16
3 1 4.2201 13.7123 11.0036 17
4 1 6.81361 -7.44461 7.65648 15
5 1 -13.7816 9.19955 -3.9479 16
6 1 12.9828 -8.72641 -8.03169 13
7 1 -16.263 4.73473 -7.4817 14
8 1 -1.24865 -5.02326 12.4952 15
9 1 -11.4883 1.05641 -9.83928 18
10 1 -14.294 -7.2533 7.15931 15
11 1 6.77409 -0.135229 -16.2316 9
12 1 -4.71047 -10.6913 1.72865 21
13 1 -15.3937 -9.21282 4.17394 10
14 1 0.75515 0.906463 14.7615 17
15 1 -5.07703 2.4341 9.30782 18
16 1 -4.01299 9.45968 -8.80729 22
17 1 1.49768 -0.669702 12.9309 19
18 1 -13.4021 3.90013 -9.13314 21
19 1 -15.7185 -1.88712 12.4111 11
20 1 16.2794 3.78434 5.7187 12
21 1 -0.545696 9.01005 -8.92634 21
22 1 4.53045 7.65231 -12.1507 17
23 1 15.1488 -0.0267074 9.18395 11
24 1 -13.264 5.51962 -6.87343 22
25 1 -11.1579 8.96167 10.4329 14
26 1 5.69302 -13.4006 5.234 12
27 1 1.30479 -14.6643 -8.60351 17
28 1 7.39773 -11.8128 -1.28698 17
29 1 -8.50201 -14.2739 -2.33547 17
30 1 -11.1135 -6.80172 13.0103 13
31 1 -3.45023 -6.38558 -10.8616 19
32 1 10.9663 -10.1899 -5.69886 10
33 1 -5.18862 6.03652 -13.9392 24
34 1 -0.0407974 4.47505 12.2623 21
35 1 -1.90951 -10.3122 7.84346 19
36 1 8.31541 -4.99783 12.2232 11
37 1 -11.6581 0.442079 1.83812 22
38 1 -15.8318 0.64124 9.74156 11
39 1 -5.20988 12.3571 -3.91778 21
40 1 -3.99404 -13.32 -10.8806 11
41 1 -2.07831 2.72411 -11.5436 23
42 1 3.26337 -8.06291 -8.75972 19
43 1 -4.84826 -2.43185 9.85057 21
44 1 -11.9239 12.531 0.372392 20
45 1 4.89653 14.2713 -7.99709 13
46 1 -0.562064 15.4314 7.14165 16
47 1 -8.4684 8.04695 -6.4187 20
48 1 1.08546 12.2955 -3.51446 18
49 1 2.10692 -10.1742 1.38853 19
50 1 3.0116 -5.25783 -6.3285 20
51 1 4.35246 -10.0977 -15.0828 12
52 1 -8.43649 8.88109 12.6726 13
53 1 -16.6207 -0.910939 -7.78343 10
54 1 -10.5197 9.14276 -5.00011 18
55 1 -6.35744 -7.88239 7.22691 21
56 1 -2.66493 15.2764 12.464 7
57 1 -14.8818 9.57725 -8.97448 11
58 1 -5.86527 10.7504 11.495 14
59 1 -3.99985 -14.2155 4.85235 17
60 1 4.07123 -13.7705 1.74059 15
61 1 -1.39141 12.6498 13.5384 14
62 1 -15.8661 3.01539 -10.7814 11
63 1 -12.3269 8.84609 -11.082 17
64 1 3.19041 6.26755 9.4786 19
65 1 15.2674 -6.50585 -8.19181 8
66 1 5.71097 -10.5355 7.74123 13
67 1 -18.6194 -3.90843 4.21754 10
68 1 2.447 16.5518 6.39783 16
69 1 2.02282 -3.99678 12.572 18
70 1 -8.61308 -17.704 4.8173 11
71 1 8.83239 0.335193 12.222 21
72 1 3.04265 11.4489 10.0761 20
73 1 -4.84371 -4.91404 -8.62102 22
74 1 -12.8997 11.3459 2.59158 21
75 1 -10.1642 11.0 -1.87164 21
76 1 -1.8481 6.24059 -8.89997 24
77 1 8.05667 11.6022 -4.03421 17
78 1 6.50614 -5.6091 4.2021 21
79 1 7.0333 -4.85099 9.74606 18
80 1 -6.74827 15.3382 -3.6535 11
81 1 -12.3109 8.16806 3.15882 20
82 1 -10.2735 -3.34924 12.6715 22
83 1 -7.00184 9.66742 6.61651 18
84 1 -2.87733 -5.18622 10.2183 21
85 1 12.8373 -6.5488 -1.29843 11
86 1 -9.89082 3.72285 6.83774 19
87 1 -13.7926 -11.7072 3.57849 12
88 1 6.71641 -7.63625 -3.14522 17
89 1 3.09684 -0.296125 -10.9477 21
90 1 -9.16115 -5.13805 -14.0972 11
91 1 -2.05115 12.2846 1.02697 20
92 1 -8.67304 6.80988 -9.01701 21
93 1 -3.76771 7.76868 16.6624 14
94 1 -2.05008 12.5014 -4.83989 16
95 1 -13.997 14.6587 0.892995 12
96 1 -5.02146 -9.12252 9.42463 18
97 1 12.7697 -2.86617 8.25599 14
98 1 8.21957 -10.1174 -10.2226 11
99 1 4.29811 -1.41602 12.6742 20
100 1 -10.3328 -6.51918 -0.667724 22
101 1 -10.2033 -8.38533 -3.51111 21
102 1 8.98352 -8.16806 4.12203 19
103 1 7.09502 -0.240385 -11.2382 22
104 1 4.36803 20.4073 -1.64175 10
105 1 -9.70168 -13.9576 7.85224 16
106 1 -9.39458 -11.9229 3.74842 17
107 1 2.19031 -6.08966 -13.0792 17
108 1 8.70999 -9.96049 1.53786 14
109 1 -3.01404 -10.2355 13.0211 11
110 1 -9.73709 -8.12263 2.11275 21
111 1 11.4639 6.82706 12.5375 13
112 1 12.2733 -4.92915 -9.84432 17
113 1 -16.9108 -3.78665 1.46759 13
114 1 8.29053 8.83574 4.33028 21
115 1 13.9503 8.88478 8.25168 13
116 1 -6.52431 0.115846 14.9254 16
117 1 -3.73138 12.1134 10.0002 19
118 1 -5.9474 17.22 -10.975 6
119 1 -1.48302 -4.81058 -8.4897 21
120 1 6.46213 -12.1793 -11.3959 9
121 1 -0.652558 14.8534 -9.21183 13
122 1 10.6344 -2.26339 11.489 18
123 1 -3.68178 0.848219 -17.1873 16
124 1 -3.7464 11.4259 -6.4685 20
125 1 11.5588 1.37103 -3.36893 21
126 1 -11.9658 11.872 -5.04596 12
127 1 -9.56292 13.939 -1.69494 13
128 1 5.10046 2.34983 -11.3939 20
129 1 9.96687 -9.63949 6.52597 7
130 1 -7.06245 3.54258 -8.84043 22
131 1 -6.05241 13.4385 9.19157 12
132 1 10.3598 3.14502 -8.64807 17
133 1 4.74404 12.7448 -3.74909 19
134 1 -3.8379 14.7282 0.316053 20
135 1 9.84542 11.8891 -1.67959 19
136 1 -6.11747 13.9531 -1.24312 21
137 1 4.82839 17.5801 -3.71765 18
138 1 2.48677 10.0937 -13.5672 14
139 1 -13.5376 -12.0039 -0.551956 13
140 1 -13.2343 11.6841 -1.8006 17
141 1 -5.61171 -3.82807 -11.6256 20
142 1 -0.352181 -6.32878 -16.2424 14
143 1 6.85652 12.8143 9.58191 14
144 1 -1.93775 13.4383 5.51546 17
145 1 -13.4998 -2.43905 -3.72316 19
146 1 -12.0453 14.6481 3.02136 13
147 1 13.2474 -0.194114 -2.30855 11
148 1 -13.4226 4.99924 -12.2898 16
149 1 5.9651 -0.0539323 15.8668 13
150 1 3.90837 14.6414 4.80873 19
151 1 -3.12305 9.94632 6.33615 18
152 1 2.36399 -8.06212 -16.4723 12
153 1 -3.29739 15.2403 8.75101 14
154 1 -9.65992 9.79568 -14.3304 11
155 1 1.66798 -2.79762 9.77528 24
156 1 -13.2617 -6.07882 4.54538 17
157 1 -5.28016 -7.2112 -13.4856 13
158 1 -7.95322 12.9477 -9.16716 14
159 1 -4.69477 -9.27973 4.51514 22
160 1 5.55435 -14.4912 -0.816564 12
161 1 -5.0717 12.6226 -9.232 19
162 1 -13.8923 2.42335 9.61291 17
163 1 9.62651 9.97018 -3.61305 24
164 1 -8.05432 2.61828 15.3608 12
165 1 -1.83117 -8.21098 10.9963 22
166 1 1.61959 14.2789 2.55938 19
167 1 -2.4647 8.94573 9.71183 21
168 1 11.454 10.2172 13.8598 11
169 1 -6.06128 16.2586 1.51692 11
170 1 14.3682 -3.11678 -8.68628 11
171 1 -4.23936 10.8964 17.6314 5
172 1 11.5823 -3.48368 1.35615 15
173 1 -17.1167 -1.68877 6.97252 13
174 1 -10.0379 -6.53338 4.46986 22
175 1 11.6979 8.6357 9.50283 14
176 1 -16.879 0.346725 -1.46788 13
177 1 -3.17227 -11.7546 -0.698389 20
178 1 -3.75945 11.626 3.72684 19
179 1 3.16797 17.0448 10.3291 10
180 1 -5.84041 13.8407 -12.3679 13
181 1 -14.8521 -0.39497 -9.88784 12
182 1 -11.4523 -3.27167 9.72296 19
183 1 -1.54095 -8.76367 4.73151 22
184 1 3.31824 -11.6519 10.168 8
185 1 -15.3499 13.1604 2.9798 13
186 1 15.7937 5.25594 2.89262 12
187 1 -6.27531 -7.52577 -10.3776 18
188 1 3.3444 -0.0844609 9.98816 24
189 1 2.87635 -14.8316 4.21443 13
190 1 -3.42123 13.1243 -13.4819 8
191 1 6.62227 -10.0401 -13.821 11
192 1 9.37316 -4.80452 -14.2287 11
193 1 2.06364 4.15826 -16.4499 9
194 1 -6.96507 -2.28955 -8.44152 25
195 1 -4.26922 16.1166 -8.03427 11
196 1 -11.6157 -11.7489 9.08125 14
197 1 3.88907 18.5907 1.08469 15
198 1 -11.7658 2.6078 13.5816 13
199 1 -12.6693 12.1009 -8.56162 10
200 1 6.56872 0.0796062 9.88925 21
201 1 0.685969 -9.6514 -10.855 18
202 1 -6.15153 14.0052 -6.72816 15
203 1 1.83539 6.66526 -14.1717 15
204 1 -8.61239 -11.7984 10.5083 19
205 1 -11.672 6.73602 6.4374 18
206 1 -8.50057 5.42777 11.6699 23
207 1 -0.488131 -12.4115 -6.35365 16
208 1 -7.35462 -16.3419 0.625349 13
209 1 9.67028 -4.22473 -7.99405 16
210 1 9.01982 10.6157 16.1369 11
211 1 5.40704 5.90962 -9.22972 20
212 1 -4.14159 11.3158 -0.979903 21
213 1 -12.1963 2.36636 4.2959 20
214 1 -15.9899 10.9291 -7.04026 9
215 1 -0.357199 6.14674 9.26564 20
216 1 -1.77813 -18.2372 1.4879 12
217 1 10.1639 0.746659 -0.576053 20
218 1 -10.4223 5.47178 4.12522 20
219 1 -15.5727 -2.96454 -6.37822 13
220 1 4.91929 0.188849 -13.8708 21
221 1 -0.0151612 0.0588053 9.58392 21
222 1 6.12001 9.43088 -9.34113 20
223 1 3.32976 -7.7542 -4.03173 20
224 1 -3.61689 -0.263126 -11.2322 22
225 1 -5.57023 -17.1747 5.56774 14
226 1 6.3298 -0.294036 -5.85091 23
227 1 -13.8029 -3.01364 7.44321 18
228 1 2.10085 -14.8592 -0.778683 16
229 1 -12.5525 -9.46883 -8.03772 13
230 1 5.0041 14.6635 -1.71196 18
231 1 -4.11412 -2.23804 -14.0397 23
232 1 5.1259 4.31131 12.8507 21
233 1 13.3937 4.6266 1.58772 20
234 1 7.33569 -4.66861 -10.9989 18
235 1 -11.8749 -1.60173 -11.0711 15
236 1 -14.9595 2.14482 -7.19711 18
237 1 -11.7369 -16.3482 5.92837 7
238 1 10.7831 -2.72956 5.96074 20
239 1 -4.72776 -10.1939 -12.2793 13
240 1 -2.50683 7.87229 -11.7183 24
241 1 -6.82532 -7.97255 2.01598 23
242 1 -0.640896 11.4929 -1.63169 18
243 1 -10.95 -0.0201545 12.7486 18
244 1 -10.3988 -6.22148 -6.03104 20
245 1 -9.06398 -3.61414 -11.177 24
246 1 -3.81978 8.87542 -14.1509 19
247 1 -10.166 -9.78455 -5.9991 18
248 1 10.3303 -6.47771 -11.7127 12
249 1 8.6291 2.67385 -11.3808 15
250 1 8.99943 3.32409 3.61438 18
251 1 -12.6156 -6.08236 10.8007 16
252 1 -4.87652 -9.00239 -0.678958 22
253 1 8.19778 2.06906 14.6408 17
254 1 -12.0235 -13.9248 -2.66678 11
255 1 -1.49135 -10.6531 1.99117 22
256 1 -2.97648 17.9308 0.674766 12
257 1 1.28173 0.602671 -13.8153 20
258 1 -2.97168 -7.86925 -8.66516 19
259 1 -8.52979 -10.0493 13.1444 11
260 1 -0.548691 6.34044 15.2793 22
261 1 1.67818 -8.24103 -1.1526 21
262 1 -10.2461 -11.979 -8.55242 11
263 1 -11.5508 7.09704 -8.78928 18
264 1 9.68592 4.34851 6.67643 22
265 1 -8.84163 2.62835 -10.9865 20
266 1 1.53496 6.10407 -8.99296 23
267 1 3.94865 -13.2937 -9.43713 15
268 1 -4.21063 15.6733 -5.04742 14
269 1 1.47418 12.0038 6.98091 19
270 1 8.10797 1.1987 7.64063 21
271 1 -11.8225 0.977309 6.80112 18
272 1 -4.31267 -0.886887 12.6593 20
273 1 -10.0864 9.7855 7.09566 22
274 1 4.51727 -7.14994 -14.3974 13
275 1 13.2441 10.2349 -3.52213 17
276 1 5.73333 -9.94808 2.26393 21
277 1 -3.16904 -3.55848 14.6338 14
278 1 -17.2219 -4.25865 7.74852 12
279 1 -0.254094 -16.1561 -6.00824 10
280 1 -12.6502 8.3783 8.41999 17
281 1 -16.1625 8.67519 8.19 8
282 1 -16.216 -6.38329 9.44249 10
283 1 -13.2672 -8.62742 9.47783 14
284 1 9.69643 -1.31039 -4.69653 19
285 1 -10.6514 -9.06564 10.4454 14
286 1 7.06627 -5.7472 -6.03059 18
287 1 9.77766 -5.98328 -5.45666 18
288 1 3.07963 15.7287 0.51974 18
289 1 -10.8298 11.7025 -11.4747 12
290 1 2.26022 8.56092 15.1301 14
291 1 -13.1686 -0.977731 4.46788 20
292 1 4.93985 -8.79333 -0.704363 23
293 1 -6.98108 11.7704 4.50218 20
294 1 1.70091 -8.51835 10.2012 19
295 1 14.2488 -2.0489 2.06532 11
296 1 -3.60575 5.96299 9.63264 21
297 1 -1.18774 5.37729 17.8262 14
298 1 -6.31602 15.0208 4.16213 16
299 1 4.70373 8.92474 13.0986 14
300 1 -7.07807 10.9622 -6.88989 17
301 1 -2.21328 -1.978 -16.2493 18
302 1 5.3016 -7.5111 -11.4094 17
303 1 -9.82376 4.65613 14.9009 10
304 1 -15.5898 3.25279 4.17082 14
305 1 -6.68169 9.65252 1.69585 24
306 1 6.74591 -1.93996 7.07433 19
307 1 -11.6094 -11.1347 1.99187 19
308 1 5.48237 -4.82274 6.84362 22
309 1 -7.69094 -8.90696 9.87746 21
310 1 -15.5774 10.312 1.36234 15
311 1 -3.18702 -0.254557 9.62489 20
312 1 3.04486 -12.0796 -6.25832 20
313 1 -6.90594 -0.799886 -11.272 21
314 1 3.92257 -3.93868 -10.9222 20
315 1 1.40611 12.3566 0.612382 20
316 1 -11.6235 0.435254 -3.52355 23
317 1 -1.18172 -5.32731 -13.6773 16
318 1 8.25409 6.22806 -8.17405 19
319 1 -6.36942 -13.4474 -5.15768 12
320 1 -11.5977 -5.04647 -9.30954 21
321 1 7.7727 5.54914 14.952 15
322 1 13.1394 6.18011 -0.805826 20
323 1 -7.06944 5.41536 -11.5076 23
324 1 3.59698 19.0161 4.74257 13
325 1 -15.2132 -5.43732 -3.84356 14
326 1 -8.48633 6.87808 6.93117 21
327 1 -8.33809 12.5852 1.18437 18
328 1 -6.73284 5.50367 9.20322 23
329 1 9.27246 7.06117 10.2497 15
330 1 10.3059 0.770044 -6.30854 21
331 1 2.90803 -1.43023 15.2777 14
332 1 11.8661 3.66576 -5.34518 20
333 1 -1.85426 -14.377 -8.5242 13
334 1 -0.0915178 11.552 3.78503 19
335 1 -11.7662 2.45991 -6.19924 23
336 1 3.68177 -13.3822 -3.29995 19
337 1 11.219 1.95566 6.97519 20
338 1 -10.285 -0.204101 -5.95188 23
339 1 -7.76768 -9.11153 4.66608 21
340 1 -9.68138 -6.09575 9.7637 20
341 1 -5.50919 12.3529 1.7964 21
342 1 -13.8916 -8.51987 -4.97302 11
343 1 5.25739 11.4269 16.25 8
344 1 -12.0466 8.09432 -1.90623 19
345 1 -2.09682 11.9913 -8.82839 20
346 1 3.12789 11.7314 4.02345 22
347 1 -16.1394 -6.67822 -1.07567 13
348 1 -1.6888 -9.16182 -5.79051 17
349 1 -15.0852 0.863043 6.89291 17
350 1 -16.8233 10.0153 -4.20682 11
351 1 1.87928 -8.9498 4.70387 20
352 1 -6.11848 -15.9599 -2.61436 9
353 1 10.4304 12.704 8.85037 14
354 1 8.07969 8.17505 -11.7382 13
355 1 -14.9607 6.58193 -9.83731 17
356 1 0.0637952 15.5298 -3.19981 16
357 1 -9.81935 5.10738 -6.46431 23
358 1 -2.97038 -11.7891 4.06065 19
359 1 11.2089 9.37176 3.97264 21
360 1 -0.263376 8.31728 -14.2942 15
361 1 -14.3821 3.91319 1.41024 18
362 1 -6.27232 -12.0422 4.08149 20
363 1 9.47878 -2.44392 -10.0705 20
364 1 -17.2426 -0.968017 3.39929 11
365 1 -14.8991 -3.23312 10.125 15
366 1 -13.1216 9.64658 5.73992 19
367 1 -10.8624 3.5388 -13.1112 19
368 1 1.41431 -11.4209 -8.56245 18
369 1 -2.13638 -10.9841 -9.65566 20
370 1 -8.02396 -3.00388 9.82864 21
371 1 -7.40791 3.37743 -13.7932 22
372 1 7.33381 -10.9713 4.47096 15
373 1 3.06704 16.9388 -6.78347 12
374 1 -11.6353 12.6833 6.01433 13
375 1 0.649031 3.22065 17.2434 15
376 1 -13.4548 -7.04594 -10.1401 12
377 1 -10.2884 -8.14899 7.17462 20
378 1 11.8686 -5.12061 6.58513 15
379 1 12.1739 -7.43042 4.82548 10
380 1 14.5339 10.5819 -1.07024 11
381 1 -5.74975 4.17458 11.8424 17
382 1 2.81042 11.3096 -6.03727 17
383 1 0.310049 -13.9111 -3.19593 16
384 1 -3.51981 5.04188 15.7606 18
385 1 1.90901 14.229 9.15044 19
386 1 -10.9774 -9.78907 -10.5824 10
387 1 7.53339 14.9914 4.00289 14
388 1 5.52054 7.25687 7.15234 21
389 1 -9.94928 -0.607078 10.0306 18
390 1 -5.98069 -7.52514 -3.26398 20
391 1 -14.6247 1.5289 12.8552 14
392 1 -11.5707 -3.52508 -6.25471 22
393 1 -9.52351 14.0295 4.08955 16
394 1 -4.67781 -8.83204 -5.9362 16
395 1 -4.10091 -2.84084 -18.0869 10
396 1 -7.87536 -10.7743 1.46959 22
397 1 6.30868 3.86022 7.3692 21
398 1 -5.93825 -4.15741 12.4329 19
399 1 -10.2151 5.77288 -11.2911 21
400 1 8.13545 7.03907 1.68205 21
401 1 -10.1272 -11.5833 -1.53965 22
402 1 1.00269 18.7774 6.78682 9
403 1 -1.04873 11.7666 8.14445 20
404 1 -13.5101 -0.313686 -1.26283 21
405 1 1.21531 19.6183 3.01399 11
406 1 4.99512 12.3828 -10.6412 15
407 1 -8.20629 -5.16195 -8.56003 20
408 1 2.2009 3.98837 14.6956 19
409 1 -0.525458 -13.5007 -10.9501 16
410 1 -2.54845 0.658786 -13.9041 24
411 1 6.27802 -12.4789 1.82963 18
412 1 -10.0997 11.1847 4.09409 20
413 1 2.65031 5.40842 12.0431 20
414 1 8.20123 8.80822 -1.16622 23
415 1 3.19328 11.1849 -1.41957 22
416 1 -10.5125 9.73182 -8.80585 19
417 1 -11.9438 -3.32954 -0.586786 23
418 1 -0.33098 15.5894 0.457744 21
419 1 -9.86244 4.63364 -16.6693 10
420 1 9.63047 9.902 1.27067 20
421 1 8.9374 17.6082 -5.38453 11
422 1 12.2823 2.58843 -1.04244 15
423 1 -4.15298 3.33867 -14.1322 23
424 1 -0.215503 -12.903 8.24321 9
425 1 0.744092 -9.51678 12.9196 9
426 1 -10.2791 3.81427 -8.91091 21
427 1 -4.84295 -11.2029 7.1939 17
428 1 1.11938 -11.8594 -14.0346 13
429 1 6.47207 11.8795 4.66998 24
430 1 -1.91071 5.80509 -13.9626 22
431 1 -0.726916 -2.12471 15.0856 14
432 1 -13.4169 -0.482948 10.0369 19
433 1 -2.5115 -13.5295 1.68777 23
434 1 -14.1345 -2.12313 1.71455 19
435 1 11.464 -4.01068 -3.85926 18
436 1 8.60101 1.32748 -3.39078 22
437 1 1.79824 -9.18585 -6.11226 20
438 1 1.77888 2.76918 -11.6915 20
439 1 12.9552 -7.35484 -4.79482 14
440 1 -6.31557 -3.01218 15.3568 14
441 1 7.44094 19.9143 -2.90297 9
442 1 -5.65205 0.45531 -13.9328 21
443 1 6.93984 5.10004 -11.6116 17
444 1 -8.40011 -5.08036 7.19842 23
445 1 -2.41357 14.23 -2.44742 23
446 1 -10.7918 -2.55698 -14.2057 11
447 1 -17.5414 2.15413 1.55893 9
448 1 -2.19158 -8.29598 -14.1063 17
449 1 -6.0373 -12.4217 12.7369 12
450 1 4.98206 8.5355 -6.50959 20
451 1 11.3072 3.3531 9.75922 17
452 1 14.6258 7.98641 0.886256 17
453 1 -12.0554 -9.28452 -1.19549 18
454 1 -5.82221 -1.69452 -16.4931 15
455 1 -8.3908 12.5927 7.08771 15
456 1 8.06129 -2.30267 -0.564234 20
457 1 -1.31351 16.017 -6.05314 12
458 1 11.8214 6.00593 -8.34015 13
459 1 -1.14845 9.4666 14.7854 17
460 1 -10.7746 3.4394 10.9183 18
461 1 2.29271 10.7387 12.2327 19
462 1 8.91901 -2.21333 14.7632 10
463 1 -2.26477 3.14745 -16.0033 16
464 1 -6.5047 -5.52407 -5.62243 22
465 1 -1.91208 2.91285 9.68858 18
466 1 9.78512 10.3297 6.29041 19
467 1 6.34471 3.0869 -8.35216 20
468 1 -7.40156 9.20831 -3.84917 20
469 1 2.924 15.1627 -4.25234 19
470 1 11.2611 -4.84459 10.169 12
471 1 12.226 -2.23746 -11.827 11
472 1 6.42162 -12.1767 -7.31089 15
473 1 7.05041 7.18787 12.9465 16
474 1 -15.5999 -10.0864 -2.70639 11
475 1 -7.73882 11.1001 -11.6095 19
476 1 -12.8776 -1.21413 14.3175 15
477 1 -3.83271 15.0256 -10.3787 14
478 1 4.22896 -11.4705 -0.761402 18
479 1 2.94146 -2.4238 -8.82169 23
480 1 -1.31431 17.5452 -2.02163 13
481 1 -10.0082 -6.79814 -11.5229 16
482 1 3.83824 -11.2969 4.12187 19
483 1 -15.3244 -6.24061 2.15815 16
484 1 -1.13282 10.4191 -13.0864 14
485 1 -5.39191 9.32201 14.4926 16
486 1 -11.3795 -4.95438 7.17082 21
487 1 0.889767 -8.86855 -14.263 18
488 1 0.0747143 -6.08566 10.1788 23
489 1 -11.9922 6.29596 0.955566 20
490 1 3.1628 1.5057 17.0194 11
491 1 6.48035 15.5815 -4.00549 16
492 1 11.0256 -7.70306 -3.15721 13
493 1 0.346811 7.87465 12.3211 21
494 1 -3.44381 6.36257 -17.1258 12
495 1 -11.15 -12.8097 5.78836 16
496 1 4.66077 -2.13744 -16.4128 15
497 1 0.607205 16.5007 4.49088 15
498 1 10.157 9.59878 -8.84404 13
499 1 -7.76311 -2.24034 -13.6233 18
500 1 -4.56391 -10.8844 -3.12314 18
501 1 -11.6338 -4.85923 -12.7778 12
502 1 10.0901 4.20541 1.20681 21
503 1 14.9862 7.70398 -2.91617 12
504 1 4.61463 -10.2888 -9.01683 19
505 1 10.0608 11.8981 12.2046 11
506 1 5.2636 -8.9104 -5.81001 18
507 1 4.15177 3.58757 -14.2058 15
508 1 5.57072 14.2405 2.59106 16
509 1 7.96441 11.481 13.6219 12
510 1 12.1685 9.19788 -1.02204 23
511 1 9.86265 0.630005 9.31056 20
512 1 9.32025 12.4328 -7.10612 14
513 1 7.43397 -2.12859 12.7784 19
514 1 10.4782 3.49413 13.1738 15
515 1 -1.32342 -3.24912 9.13583 20
516 1 11.471 12.4808 -4.97047 15
517 1 -3.4781 -1.13758 17.4277 8
518 1 13.5954 1.29991 -5.93601 13
519 1 8.35449 3.94511 9.40828 16
520 1 -8.73082 0.547264 -8.7921 20
521 1 11.5219 7.52685 1.43122 24
522 1 -15.5416 9.65755 4.14481 12
523 1 3.87381 16.8866 13.6522 6
524 1 7.63057 3.87309 12.2316 20
525 1 3.28086 9.75035 6.71896 21
526 1 1.90934 13.8893 12.5448 14
527 1 -4.18231 -16.1948 2.32947 20
528 1 -8.90501 7.93974 -1.18926 20
529 1 6.13491 9.76226 -3.45916 23
530 1 8.52086 -2.84398 -16.1419 10
531 1 2.47768 17.2707 -1.8344 22
532 1 -3.83061 -12.4373 -7.36305 14
533 1 13.7366 -7.505 -11.2536 10
534 1 -13.0303 5.42521 9.27624 16
535 1 -5.47735 8.0505 -11.4388 19
536 1 -12.6423 -13.9498 0.982164 12
537 1 -9.12073 0.601009 -13.657 13
538 1 -13.4368 3.51248 -4.10696 22
539 1 8.18163 -4.57367 1.37191 19
540 1 10.5296 14.3517 6.02577 11
541 1 0.156995 -7.85545 7.84417 22
542 1 -13.2285 -0.674806 -6.26661 21
543 1 3.66611 1.1228 -17.0951 12
544 1 -4.84934 2.38535 14.837 21
545 1 1.2395 8.02059 -11.4917 22
546 1 13.4143 -1.78171 11.027 10
547 1 8.41409 2.69954 -6.07965 22
548 1 13.0762 10.6135 1.97422 20
549 1 1.72562 -14.814 -11.9513 9
550 1 -11.5557 -4.20419 15.3325 11
551 1 11.7523 2.89937 4.13116 21
552 1 -0.701409 10.5831 10.9651 19
553 1 5.76585 10.1601 -11.9256 12
554 1 -15.0738 12.5897 -3.74418 11
555 1 7.99899 12.6671 0.874413 17
556 1 -12.3914 -11.0149 -3.6967 17
557 1 9.56083 0.593772 5.13678 19
558 1 4.54247 18.4891 7.44237 10
559 1 -8.37937 2.55013 9.58118 21
560 1 -13.2245 -8.03815 1.57416 18
561 1 -9.97738 -2.2245 -8.72439 19
562 1 9.67115 -2.31304 8.84914 19
563 1 -6.89853 -14.5895 10.9627 10
564 1 6.34158 8.08699 15.9416 12
565 1 -7.21271 11.1886 -1.18207 19
566 1 -0.123198 1.21271 -16.7429 15
567 1 -10.2669 -1.99265 6.98159 22
568 1 6.55665 -2.49519 -8.9393 22
569 1 12.3973 -5.87797 -6.98562 18
570 1 8.25271 9.74488 10.3997 18
571 1 -9.71251 -1.34509 15.2715 14
572 1 11.6361 7.46331 6.46014 19
573 1 -1.50892 1.18086 12.2528 17
574 1 -5.50874 8.5505 9.6738 21
575 1 -0.189739 -1.78576 -13.8784 20
576 1 -9.09415 2.19126 12.7127 23
577 1 5.86445 1.21418 12.1549 19
578 1 -8.33078 -14.0531 5.4917 20
579 1 13.4617 7.59758 3.87993 22
580 1 6.73048 -13.7872 -3.9659 11
581 1 10.6626 15.2006 -4.40944 13
582 1 7.71338 13.2805 7.3165 15
583 1 1.5008 -1.41095 -16.0895 16
584 1 7.1986 14.7102 -9.06459 11
585 1 10.4 6.05589 3.96761 22
586 1 -7.98366 -8.89282 -0.981072 19
587 1 -4.83465 3.75408 -18.1111 10
588 1 -16.1584 13.2467 -0.456465 10
589 1 7.22913 -7.40178 -8.68203 18
590 1 10.424 5.93247 -5.60488 21
591 1 12.2035 12.9857 -2.0362 14
592 1 7.83495 7.17214 -4.07347 22
593 1 13.5079 3.96521 11.7626 10
594 1 12.7296 1.00103 11.1012 19
595 1 -0.952452 -15.6737 3.57391 19
596 1 -5.92432 11.0471 -14.7835 12
597 1 4.11471 12.8634 7.21184 18
598 1 3.47607 -9.52139 -12.3302 18
599 1 7.82883 17.5323 -2.46993 12
600 1 4.76855 12.5356 0.715702 21
601 1 14.047 -3.60912 -1.00549 9
602 1 5.23589 3.28557 15.9988 15
603 1 -15.7347 -2.93814 4.68835 16
604 1 2.49403 -13.2121 7.10075 11
605 1 -10.5516 15.7698 0.944705 10
606 1 3.31052 9.60543 1.82147 23
607 1 -15.1224 0.942895 1.1876 19
608 1 -6.04932 2.8277 17.83 9
609 1 -8.58173 6.45145 -14.4068 20
610 1 -7.51896 9.32236 -8.77131 22
611 1 0.175294 -11.8385 -0.423449 22
612 1 6.58604 5.60356 -5.99445 20
613 1 -15.7347 5.91341 8.64106 12
614 1 6.39367 -3.00858 -13.2938 16
615 1 2.70888 -9.60944 8.11421 16
616 1 2.19684 13.9713 -1.29899 25
617 1 -2.83545 2.6251 17.405 14
618 1 -9.43772 -7.84563 -8.65283 19
619 1 -1.77763 -11.3165 -12.8203 14
620 1 -7.51372 -8.90616 -6.09785 18
621 1 1.33537 17.6841 -4.59995 12
622 1 1.29762 -5.02991 -8.8004 20
623 1 -4.5945 12.9146 6.43536 19
624 1 7.93089 -9.123 -6.75515 17
625 1 1.24487 -16.3473 2.1368 16
626 1 3.86624 -5.38047 9.56585 21
627 1 9.86885 0.166613 -10.801 15
628 1 1.6188 -16.3356 -3.95186 9
629 1 -13.313 -4.29488 13.0599 15
630 1 -9.33176 -13.6467 1.10513 20
631 1 -8.00013 -11.3567 -3.47726 20
632 1 -13.271 4.96361 12.62 13
633 1 -5.66399 -13.9726 1.61397 20
634 1 11.7415 8.98949 -6.06269 15
635 1 -1.97882 14.6824 2.92748 15
636 1 -15.7824 9.48571 -1.27499 14
637 1 12.9326 4.98971 6.25961 20
638 1 -13.889 -3.47474 -8.38868 14
639 1 -0.0805486 11.1957 -6.86707 19
640 1 8.36098 0.118483 -8.41131 20
641 1 5.5911 14.0918 13.8257 11
642 1 9.46658 4.29529 -3.02278 22
643 1 -15.9218 5.03921 -4.05383 12
644 1 -17.4382 -1.33352 -4.28136 9
645 1 1.56982 11.6528 15.2936 12
646 1 3.27201 5.19676 -11.398 18
647 1 12.9061 12.0068 7.22449 13
648 1 -5.99391 1.33067 12.5875 19
649 1 -3.6871 -15.3636 -0.475648 16
650 1 -7.39296 -16.5143 7.90072 11
651 1 -4.24106 -6.86155 12.1765 16
652 1 14.3159 10.1373 5.02648 14
653 1 -0.218669 -6.29156 -11.3159 16
654 1 -10.1715 9.31288 0.930346 21
655 1 4.97911 8.76597 4.49569 23
656 1 -11.4108 -3.42153 4.57708 20
657 1 8.26055 11.6105 -10.1094 14
658 1 -3.73485 -13.8642 -3.6758 13
659 1 -4.38857 -19.3075 3.4353 7
660 1 -2.79397 -17.2082 5.71232 12
661 1 3.06044 3.63525 -8.71769 22
662 1 7.10816 18.1491 0.611049 7
663 1 -6.8102 2.1893 -16.6433 14
664 1 -2.8341 0.320121 15.1816 17
665 1 -6.82066 8.68143 -15.5169 12
666 1 -13.5427 1.76137 -12.0106 14
667 1 -11.8984 -5.14547 1.93893 20
668 1 1.99318 21.3301 -0.102741 8
669 1 -6.23911 -4.81933 -15.7031 12
670 1 11.9088 7.15344 -3.6904 23
671 1 10.4948 -5.25238 -1.42602 17
672 1 -10.2686 5.71113 9.14313 22
673 1 5.52188 -8.41171 5.1633 23
674 1 10.7329 -1.18963 2.71712 16
675 1 13.8499 -4.03434 4.8939 12
676 1 -0.181651 8.82297 6.79686 20
677 1 -11.0931 6.86647 12.6181 13
678 1 -6.85881 6.20883 15.5036 10
679 1 -7.31761 -13.4003 8.32582 14
680 1 1.60278 9.06426 9.05077 22
681 1 -15.7775 2.67168 -1.65258 18
682 1 8.0953 -4.56105 -3.20888 21
683 1 -9.43915 12.1032 -6.60767 15
684 1 -0.491165 -10.9967 10.7669 14
685 1 2.86696 1.94747 12.2151 21
686 1 -3.80119 16.1517 5.70057 11
687 1 0.486548 -11.4304 4.89983 18
688 1 1.52911 3.18824 9.83287 23
689 1 -15.2522 -3.19516 -1.20319 17
690 1 4.09457 6.23267 15.2164 17
691 1 8.80282 14.5065 -1.87633 17
692 1 -15.1716 -8.98944 -0.0375991 13
693 1 -7.11201 -15.8993 3.28933 17
694 1 4.92679 -2.69674 9.90566 22
695 1 9.77268 -5.0166 3.90403 22
696 1 8.1009 7.22101 6.81962 19
697 1 -5.19586 -10.1243 -9.17897 17
698 1 -5.58265 2.10768 -11.2604 22
699 1 -1.11975 -2.17141 11.808 22
700 1 0.583438 18.409 0.649234 16
701 1 14.846 1.92516 3.50818 15
702 1 1.36393 8.40193 -6.58577 23
703 1 -5.47978 6.95099 12.5588 20
704 1 5.75225 11.2546 12.2685 18
705 1 5.19736 -5.3663 -8.61919 19
706 1 -6.62044 -12.1457 -0.971945 18
707 1 15.1869 0.774164 6.37636 14
708 1 0.899429 -2.83947 -11.5255 22
709 1 -3.38269 10.259 12.4711 22
710 1 7.78694 -10.9937 -4.53729 14
711 1 7.41336 1.69816 -13.4029 14
712 1 9.43217 5.49455 -10.4589 12
713 1 12.3274 1.07054 1.52385 17
714 1 2.4997 -6.58402 12.3139 12
715 1 -0.121875 -8.43527 -8.2468 21
716 1 10.1097 14.8396 -7.55433 10
717 1 -13.9842 3.64242 6.72925 18
718 1 14.1303 6.7485 -6.15964 9
719 1 15.6043 6.81388 5.79475 12
720 1 -3.49404 -5.5667 -15.3999 14
721 1 -8.75211 16.9476 3.85266 8
722 1 13.9586 3.06183 8.30766 18
723 1 6.1608 11.3017 -7.46544 20
724 1 -0.265184 3.28883 -14.1385 20
725 1 6.65989 -5.73393 -0.929644 22
726 1 -12.4014 2.36533 -0.815594 22
727 1 6.94573 5.74475 4.639 20
728 1 -13.4017 -6.05315 -0.484787 20
729 1 -14.6104 7.57915 -13.1894 8
730 1 4.92315 3.13372 9.80875 23
731 1 -14.8762 0.916627 -3.7224 19
732 1 -15.6061 7.46834 11.6704 5
733 1 -5.42026 6.47617 -8.55662 23
734 1 12.3431 -4.61306 -13.38 11
735 1 -13.9269 -6.29468 -6.74383 15
736 1 10.7607 -7.13244 1.61712 15
737 1 -12.6669 9.68073 -0.102706 21
738 1 -11.9287 -5.35876 -3.36881 22
739 1 9.92437 7.90668 15.2805 11
740 1 -4.02834 -12.3711 10.444 15
741 1 11.2248 -0.265486 13.7964 12
742 1 12.0598 -0.289713 7.50739 22
743 1 8.35114 -2.5794 3.38799 20
744 1 -13.2411 5.05604 3.69877 19
745 1 5.03534 9.11006 9.70869 17
746 1 3.06238 9.37993 -8.93096 22
747 1 -0.584216 -3.41266 -18.0051 10
748 1 -7.25858 15.605 7.00081 10
749 1 -13.3088 -10.0655 6.70837 15
750 1 6.43254 11.4034 -1.24636 23
751 1 -2.26157 6.96495 13.3167 19
752 1 13.0611 -1.48201 -5.49224 16
753 1 8.77314 -4.81923 7.2075 20
754 1 1.31514 12.7569 -11.8728 10
755 1 1.14975 14.1009 -7.41492 16
756 1 -6.70448 -0.029085 10.1016 21
757 1 12.364 5.87536 9.22336 19
758 1 -2.41403 -2.99317 -11.2125 21
759 1 11.3323 12.8646 0.609242 16
760 1 -13.8787 5.24755 -1.60078 15
761 1 -5.73434 -9.86501 12.764 16
762 1 6.45095 17.3309 -6.92564 12
763 1 4.99157 -4.73612 12.4278 14
764 1 -0.766964 -10.8838 -3.11361 17
765 1 -4.54828 17.1965 -1.8695 13
766 1 -14.7529 7.2767 1.6885 17
767 1 11.247 -1.57928 -7.88709 17
768 1 4.27404 -12.9612 -12.9346 11
769 1 -8.49519 8.42585 4.01439 20
770 1 8.35543 9.38233 -6.20263 22
771 1 2.45381 -4.72793 -16.5393 13
772 1 -8.03602 -10.3746 -10.3739 12
773 1 2.30288 -10.6235 -3.12854 21
774 1 -4.31591 12.6492 14.4951 11
775 1 8.80411 -8.3157 -0.71829 17
776 1 -4.19324 10.7112 -11.5225 19
777 1 14.15 3.84148 -3.31498 11
778 1 6.48823 9.67904 1.79756 22
779 1 -0.904431 -14.8367 -0.0707186 18
780 1 3.03457 -2.71413 -13.6846 19
781 1 9.86422 6.49307 -1.44026 20
782 1 -3.8471 5.25751 -11.1486 25
783 1 -3.10318 -7.80194 7.56931 23
784 1 2.90306 9.43433 -3.95965 19
785 1 4.81089 0.413351 -8.39038 21
786 1 -12.1088 6.2734 -4.03446 18
787 1 -15.6859 6.52126 5.12043 13
788 1 -1.12217 3.37798 14.6888 20
789 1 -8.28224 -10.9496 7.28366 22
790 1 6.48317 9.97651 7.07344 23
791 1 1.00405 -13.2176 1.9729 20
792 1 1.46399 12.0317 -9.56683 17
793 1 -8.04165 8.51967 9.65711 19
794 1 -7.87673 -1.44503 12.7318 23
795 1 -13.7047 11.1674 8.39289 9
796 1 -6.46229 -5.56577 10.0954 20
797 1 3.49294 -7.38774 6.89488 20
798 1 5.8065 5.97146 10.1592 20
799 1 8.03883 -2.69553 -6.12735 23
800 1 10.4581 -8.15002 -8.603 16
801 1 -12.8104 2.8793 -15.4119 6
802 1 -6.982 5.35742 -16.1195 16
803 1 5.46791 15.4565 8.04053 15
804 1 -7.89026 -6.75675 12.5481 20
805 1 -5.20159 8.28374 -6.09599 22
806 1 -16.003 7.8231 -6.31987 15
807 1 9.73278 12.6739 3.33548 16
808 1 -10.5678 -15.8486 3.08201 11
809 1 12.7211 11.5444 10.3549 11
810 1 -10.2087 -12.9294 -5.02747 15
811 1 5.41791 17.6106 3.77267 13
812 1 -8.67808 -4.76407 14.1711 17
813 1 3.39913 -15.2031 -6.24508 12
814 1 15.925 -1.78992 4.99092 8
815 1 0.381773 -17.9854 4.33514 7
816 1 2.33306 5.9364 17.7502 9
817 1 9.5804 -1.9792 -13.338 14
818 1 6.9973 -7.17978 2.06411 24
819 1 -0.443168 0.237877 -11.1943 24
820 1 -17.1508 2.31286 -4.99724 11
821 1 -9.40699 8.89741 -11.5637 19
822 1 -3.03413 4.46949 12.8049 21
823 1 9.23454 -7.34185 8.74641 9
824 1 -11.1269 -9.62149 4.57494 20
825 1 12.7935 -0.0114277 4.5852 19
826 1 -0.3734 5.29638 -11.667 22
827 1 12.6793 12.7306 3.9461 13
828 1 -1.09871 13.8988 10.2575 16
829 1 -16.459 -6.07373 5.17963 13
830 1 5.33222 -10.6003 -3.18564 21
831 2 -15.0672 0.276347 -7.1655 17
832 2 -4.61549 14.183 -8.26721 17
833 2 -4.12051 -2.83228 -12.1855 19
834 2 -5.09616 6.93 8.95501 21
835 2 5.15984 -11.4615 -13.3856 11
836 2 -8.55375 -5.08677 -6.49096 22
837 2 -1.52289 3.47449 11.6884 20
838 2 4.95614 -0.938339 14.5131 16
839 2 -15.6227 -8.22052 -1.86156 13
840 2 -14.574 11.3251 -8.23811 8
841 2 0.47458 16.6847 6.37215 12
842 2 -11.7634 0.59511 3.63859 20
843 2 4.75199 18.0303 -6.90339 9
844 2 8.38635 7.06561 3.87952 22
845 2 3.99515 18.7611 -2.34478 14
846 2 6.70092 15.3007 -2.08151 17
847 2 -11.6972 2.81978 -9.68034 21
848 2 -11.9297 -5.35436 -7.03564 19
849 2 5.07593 1.07566 9.25661 24
850 2 4.82281 -3.49063 -9.16877 20
851 2 2.64012 -13.3359 2.94979 18
852 2 -10.829 9.23197 -0.889177 20
853 2 -16.5253 4.19618 -5.72819 13
854 2 7.93054 3.15884 7.80568 21
855 2 11.3688 -8.56734 -4.68955 14
856 2 -10.1292 -8.40877 -1.56551 19
857 2 -13.0305 -5.78248 6.50413 18
858 2 -4.79311 -10.9726 3.64489 23
859 2 12.5904 -5.59188 4.9417 12
860 2 1.8809 -16.2505 -5.71506 10
861 2 1.33637 -2.46289 11.6969 21
862 2 -0.178544 10.8715 -8.92284 18
863 2 -3.60907 -18.8462 5.06853 8
864 2 -11.5225 -9.41583 -4.60095 18
865 2 1.87938 3.71667 11.7026 20
866 2 -10.2514 8.86449 3.24572 21
867 2 -4.45001 3.87798 17.7582 11
868 2 -8.86734 8.09511 -4.4001 20
869 2 2.01153 -8.23307 12.0956 12
870 2 -4.63949 8.60505 6.11787 20
871 2 -3.46792 9.14463 -6.99267 23
872 2 11.0726 13.2417 7.26006 14
873 2 0.951948 -2.89941 -9.5117 23