ITEM: TIMESTEP
35000
ITEM: NUMBER OF ATOMS
500
ITEM: BOX BOUNDS pp pp pp
-30.0 30.0
-30.0 30.0
-30.0 30.0
ITEM: ATOMS id type x y z Coordination
1 1 1.87477 -3.42176 3.25305 17
2 1 -4.8625 4.16114 5.91036 12
3 1 -9.90248 0.432883 1.08655 20
4 1 -6.05865 -2.16561 -13.7911 14
5 1 -10.6492 -1.69994 -6.00054 20
6 1 -3.3607 -0.0128296 -14.6451 10
7 1 2.01999 -8.77472 -7.92092 17
8 1 -1.72787 2.18942 3.02755 22
9 1 -2.23251 3.15379 -9.76884 20
10 1 -1.4556 3.83924 5.63811 13
11 1 -13.7856 -2.83216 -3.28611 11
12 1 3.59065 -2.66782 -6.74196 16
13 1 -1.73934 -1.49321 5.43699 16
14 1 -11.2514 -8.46143 -4.1246 12
15 1 -7.62102 -7.92957 -10.9789 13
16 1 3.28686 1.71271 -10.191 15
17 1 3.00729 -4.93255 0.505525 15
18 1 -7.48334 6.96312 -0.229346 16
19 1 -5.48146 7.42258 -3.33712 18
20 1 -5.49198 -7.43998 -12.8645 10
21 1 -5.0838 2.19061 3.29517 18
22 1 5.21197 -3.7294 1.82222 9
23 1 -10.5018 6.96148 0.71149 10
24 1 -1.62095 4.96029 -12.2754 16
25 1 2.74539 7.61379 -9.64814 11
26 1 -4.18926 6.16653 -10.0612 17
27 1 -9.05898 2.78227 -10.3641 18
28 1 -5.96526 7.6254 -8.43719 14
29 1 -2.38764 8.02683 -2.15945 15
30 1 -11.8288 1.1957 -1.01738 20
31 1 -3.31341 5.03294 3.36318 18
32 1 -8.4143 0.343058 -12.9283 12
33 1 -7.69645 -7.92509 0.326649 16
34 1 1.35365 -8.14116 -4.5992 21
35 1 -13.5702 -1.24212 -0.621465 15
36 1 -10.0741 -2.57805 -8.75375 16
37 1 -2.97818 -10.9933 0.614725 12
38 1 1.17446 2.78274 -12.7776 13
39 1 -9.4215 -8.72478 -7.624 11
40 1 -4.11498 3.33104 -13.8388 13
41 1 -4.61937 6.35043 -6.01626 18
42 1 -13.6544 -0.942559 2.0617 10
43 1 -0.34705 5.50373 2.72645 16
44 1 0.313711 -0.723062 3.23874 23
45 1 -0.4998 -10.1607 -6.56125 19
46 1 6.14461 1.68832 -8.8985 13
47 1 -5.63599 -9.91453 -1.51438 17
48 1 0.160697 -4.81323 4.88148 12
49 1 -2.15487 -6.65699 4.07852 17
50 1 -0.794366 9.80704 -5.0971 12
51 1 -8.93875 -9.99964 -2.2526 13
52 1 -2.08626 -9.76921 -1.39892 19
53 1 -7.40794 -1.05828 2.78903 17
54 1 -10.982 -1.33541 3.00911 18
55 1 -0.511572 -12.3287 -3.1112 12
56 1 -12.0155 -4.19519 -1.44186 17
57 1 -6.22828 5.39294 3.84724 15
58 1 -12.1326 4.23455 -0.034801 14
59 1 -8.6083 4.33493 5.74902 10
60 1 -9.81977 -6.13679 -9.43557 13
61 1 -12.8185 3.08288 -5.89768 12
62 1 -7.44143 -5.09183 -13.2902 11
63 1 2.36311 -1.6545 5.61001 10
64 1 -3.53031 -4.37312 5.71987 14
65 1 -8.29946 -2.3283 -11.7349 14
66 1 -13.3721 -5.65032 -4.44936 10
67 1 -3.89046 -12.2078 -2.3464 11
68 1 -8.96615 3.79353 0.294816 18
69 1 -1.61445 -8.83695 -9.13789 21
70 1 -5.55387 7.71054 2.50141 11
71 1 -11.6509 3.37005 -3.405 17
72 1 -12.5912 2.67763 -9.30879 10
73 1 1.58008 -11.5047 -5.83616 12
74 1 1.42688 -7.29417 0.94278 18
75 1 -10.4532 4.049 -8.18531 15
76 1 -9.11077 -1.7429 5.58164 13
77 1 -12.5151 1.9113 2.07217 14
78 1 -2.71922 -7.51392 -12.2745 13
79 1 -5.10932 -7.47959 5.36266 14
80 1 0.168419 -7.64391 -11.4087 12
81 1 5.0264 2.05103 -2.4983 14
82 1 -0.346689 -1.56204 -13.8893 8
83 1 0.563949 -10.1754 0.45988 13
84 1 -6.79978 -11.0493 -4.26774 13
85 1 -9.67293 -5.22881 1.01924 17
86 1 3.54302 1.40054 4.08749 10
87 1 4.10811 4.41992 -4.38778 18
88 1 -2.27472 1.53216 -12.4949 20
89 1 -5.24301 6.06503 -13.3281 9
90 1 -2.32052 9.9437 0.764907 7
91 1 2.29154 -0.177863 -11.8824 12
92 1 1.45465 -9.73079 -2.21143 18
93 1 2.71123 -6.68884 -2.20099 21
94 1 -1.77214 -8.00221 0.860097 20
95 1 -10.7879 0.0905788 -10.5028 13
96 1 6.26144 -0.916183 -3.59905 13
97 1 -7.38294 5.89304 -10.8488 13
98 1 0.397096 -10.9251 -9.54674 10
99 1 -12.335 -4.02244 1.76282 10
100 1 -1.76422 -12.9836 -5.40864 11
101 1 -0.754303 -5.74191 -9.11357 19
102 1 4.28238 -9.40179 -4.0907 11
103 1 -4.68381 -8.7839 -9.73515 16
104 1 -5.48253 -1.5738 5.16195 16
105 1 -7.16382 1.27463 4.95687 14
106 1 1.76534 -2.4834 -10.0854 15
107 1 -10.3404 5.91999 -5.45846 14
108 1 -1.20805 6.61817 -4.71168 25
109 1 3.90813 2.95158 -7.63341 18
110 1 -5.35399 0.543324 -12.3982 21
111 1 -14.4527 1.58938 -0.103066 10
112 1 -1.55718 -3.58402 3.26183 20
113 1 -12.2911 -0.246879 -7.76687 13
114 1 4.49264 -3.84127 -2.06559 19
115 1 0.405394 1.17007 5.33032 14
116 1 -3.10054 -9.90452 3.49993 10
117 1 4.60185 4.13696 -0.612668 12
118 1 2.45871 6.63768 1.03704 13
119 1 -3.13556 -11.7536 -8.58455 11
120 1 1.37686 4.04837 3.81576 13
121 1 -5.52088 2.98083 -10.3874 24
122 1 -5.80864 -10.002 -7.064 15
123 1 2.39541 5.33922 -2.14583 17
124 1 -10.1866 5.97075 -2.25586 17
125 1 2.50894 5.98834 -6.79758 19
126 1 -3.23144 1.06396 5.37334 17
127 1 -3.03072 -1.76271 -12.5213 19
128 1 3.88034 -6.49615 -6.06977 14
129 1 -2.541 8.04042 3.14049 9
130 1 -8.76551 7.15524 3.96073 9
131 1 2.27562 -5.91676 -9.00455 12
132 1 -0.0208596 -8.42999 3.62218 11
133 1 -10.2555 1.36014 4.50356 15
134 1 3.88034 -0.946564 2.85223 14
135 1 -2.489 7.72324 -7.78356 16
136 1 5.26949 5.28324 -8.9923 8
137 1 -7.02491 -4.50085 5.33965 15
138 1 -5.03806 -3.92853 3.18474 20
139 1 -8.31201 7.90825 -2.7398 10
140 1 0.774943 8.29133 -1.96428 15
141 1 -10.6519 -6.91598 -1.38175 15
142 1 5.33598 -1.59091 -0.168073 14
143 1 -7.96692 -8.22869 -5.13091 16
144 1 1.14033 3.86073 0.516349 20
145 1 5.87662 -3.93536 -4.7985 13
146 1 -3.15524 9.04167 -5.2009 13
147 1 -12.1466 -4.16699 -7.75534 13
148 1 -0.844387 6.81075 -9.91471 13
149 1 -7.12045 -5.13038 -9.87207 18
150 1 -1.32525 -4.4931 -12.303 14
151 1 -3.54297 -10.8381 -5.19138 17
152 1 -6.04947 -9.87151 2.62804 9
153 1 5.41874 -6.95531 -2.9086 13
154 1 -13.9399 0.561642 -3.57753 12
155 1 -7.47128 3.30859 -12.9848 12
156 1 -11.7701 -7.38117 -6.49278 11
157 1 3.38622 1.01934 0.381967 19
158 1 -4.31098 -4.82149 -13.9695 11
159 1 -10.134 4.22514 2.70289 14
160 1 -10.2039 -4.18703 4.10878 12
161 1 1.95012 7.1349 -4.5472 15
162 1 5.99922 1.96617 -5.70186 14
163 1 -7.71796 -6.64834 3.2651 17
164 1 1.03321 4.59298 -9.9127 22
165 1 2.96824 5.91562 -11.8447 7
166 1 -0.672307 7.26356 0.44947 19
167 1 0.634369 8.38974 -7.20047 14
168 1 6.51637 -1.04189 -7.23253 13
169 1 4.48327 -1.14428 -9.72697 14
170 1 -4.12078 6.89628 -0.425444 19
171 1 -6.6298 9.27327 -5.6519 9
172 1 -5.13576 -6.9081 1.7359 20
173 1 3.8825 -8.77467 -0.365506 11
174 1 -10.6377 -4.58012 -4.51517 24
175 1 -8.84265 7.40941 -7.87529 9
176 2 -13.4013 -2.44719 0.832147 12
177 2 2.70324 4.85362 -0.280381 15
178 2 -13.02 2.12327 -4.37302 12
179 2 -4.3185 -10.3604 1.83324 12
180 2 -4.98698 2.04937 5.31651 19
181 2 -9.33463 5.21419 4.27377 11
182 2 0.862974 -8.55807 -6.3705 19
183 2 -7.50453 -1.24236 -13.3311 13
184 2 -2.93509 -8.196 -10.4505 17
185 2 -7.01535 7.15749 3.48079 11
186 2 4.76719 -3.93412 -0.097107 13
187 2 0.71876 8.58671 -5.10844 15
188 2 -4.17203 6.71538 3.26344 15
189 2 -2.01298 9.15343 -3.73773 13
190 2 -0.816161 4.62051 -10.4671 19
191 2 4.89585 0.647261 -9.96809 13
192 2 -11.8596 0.876941 -9.21785 14
193 2 -4.8362 -9.09345 3.93441 11
194 2 -10.8047 -0.459926 -0.470576 20
195 2 0.0759618 -9.11497 -10.4533 12
196 2 0.126788 -12.3308 -4.85859 12
197 2 -1.65075 4.14095 2.51395 21
198 2 -1.77593 -3.62867 5.39097 16
199 2 -7.44346 -9.16836 -1.21557 13
200 2 -0.108187 -10.8013 -1.83802 14
201 2 -10.2583 -8.5193 -2.48651 12
202 2 -5.57413 -11.5948 -3.08922 11
203 2 -5.41478 -9.85133 -5.09819 17
204 2 -9.63283 7.20367 -0.941364 13
205 2 1.65463 1.46469 -11.3404 14
206 2 2.44675 5.35685 -4.84436 18
207 2 -3.55759 4.92905 -13.097 13
208 2 4.73213 2.11417 -0.627861 13
209 2 -2.09532 8.35558 -0.26578 16
210 2 -7.09522 4.89201 -0.125946 20
211 2 -2.6442 7.11961 -5.81094 22
212 2 4.13073 6.28143 -10.3005 10
213 2 -5.26146 4.21195 2.45266 20
214 2 -3.19959 -4.43217 2.91496 21
215 2 -1.96249 -4.51836 -10.2499 21
216 2 -1.65738 -7.21661 -7.92502 23
217 2 -5.70893 -8.2199 -11.2449 13
218 2 -9.98668 -8.31769 -5.63224 13
219 2 4.77331 -1.67254 -7.86231 16
220 2 1.20877 7.58469 -0.166332 14
221 2 -5.99877 -3.92422 -13.7168 13
222 2 -1.84224 -0.406202 -13.3937 12
223 2 -7.40937 -8.8036 -7.3953 16
224 2 -0.967821 -6.44735 -12.2101 11
225 2 5.43224 3.48616 -9.05166 11
226 2 -9.31846 -6.89902 0.114499 16
227 2 -4.08472 -6.38735 -13.053 13
228 2 -1.42463 -10.7263 -8.45233 15
229 2 -4.60999 -1.096 -13.8338 15
230 2 -6.8065 6.67403 -2.14341 16
231 2 -8.09048 -9.66732 -3.90016 16
232 2 -9.88787 6.94357 -3.99771 12
233 2 -11.1671 -4.48539 0.266846 17
234 2 -13.131 -4.75132 -3.00735 11
235 2 -0.36903 -6.61529 0.464505 21
236 2 6.58567 -1.86036 -5.29841 12
237 2 -0.292874 5.12629 0.126174 21
238 2 -8.81143 -3.48116 5.04115 14
239 2 -12.8382 2.61825 0.271762 15
240 2 -11.7851 -2.1932 -7.61642 12
241 2 4.25344 2.88327 -5.64033 21
242 2 -13.7157 -1.14482 -4.06033 12
243 2 -5.53483 6.36292 -11.4199 13
244 2 1.26407 -1.15585 -12.933 9
245 2 -11.8088 4.72752 -1.81281 14
246 2 0.887754 -6.5751 -9.98301 14
247 2 -1.86774 -9.85722 -5.39349 21
248 2 -9.66045 7.30438 2.27435 8
249 2 4.79522 -7.63845 -4.67516 13
250 2 -0.0372256 4.8385 4.75159 12
251 2 -4.88777 7.96213 -5.30501 16
252 2 -9.4268 -5.53445 3.05473 14
253 2 -6.47649 4.69507 -13.4941 9
254 2 2.96448 -7.18222 -7.62513 12
255 2 -3.68098 -0.917265 5.22492 17
256 2 2.09741 7.69657 -7.72691 13
257 2 1.68254 4.99098 2.24089 13
258 2 -12.5193 -7.32657 -4.84942 11
259 2 -3.35498 4.45146 4.97496 15
260 2 1.38451 -3.21471 5.30093 13
261 2 -3.77268 1.62182 -13.4382 14
262 2 -8.65975 2.21581 5.34598 12
263 2 0.789382 -8.91919 1.96197 11
264 2 -11.0057 0.360001 -6.46785 17
265 2 -8.78136 3.02209 -8.29839 20
266 2 -10.8211 3.4053 -9.90227 11
267 2 -6.00006 -5.3801 2.51105 21
268 2 -3.40084 9.33488 2.13391 9
269 2 -7.94594 -6.7917 -9.42206 16
270 2 5.17278 -2.04329 -2.48354 14
271 2 -7.2051 8.06903 -7.01536 11
272 2 5.54086 -4.94197 -3.26012 14
273 2 -6.1881 -6.68601 0.0751566 20
274 2 -10.4914 -7.33425 -8.21057 12
275 2 -4.4477 6.33651 -8.04977 16
276 2 -10.5832 4.84273 0.969137 15
277 2 -3.5978 -6.34879 5.52483 13
278 2 -14.6462 0.406781 1.36465 9
279 2 -6.72942 4.71703 5.56115 13
280 2 -11.1481 4.16229 -5.16201 17
281 2 -1.6082 9.24684 -6.67762 10
282 2 -6.70509 1.09743 2.70999 21
283 2 -5.27624 -3.50665 5.33988 15
284 2 -7.84614 -4.28231 -11.5638 16
285 2 -3.95449 4.0347 -10.1944 20
286 2 -4.86831 -7.45241 -8.14445 22
287 2 1.91641 -1.44053 2.43439 21
288 2 4.04475 4.19862 -2.57979 15
289 2 2.17748 -9.59143 -0.489613 12
290 2 2.7748 1.39698 -8.34455 24
291 2 -1.43063 1.94775 5.30994 16
292 2 -7.54237 -0.80512 4.8755 16
293 2 -10.2024 -4.46088 -8.4588 16
294 2 -3.92265 7.05644 -2.33895 20
295 2 -11.8608 0.0854424 2.2202 17
296 2 -12.6363 -2.3198 -1.91673 16
297 2 -2.44184 -12.3827 -3.52091 11
298 2 0.116226 -0.826009 5.32188 16
299 2 -7.28658 3.66895 -10.8438 17
300 2 1.39665 6.53548 -10.4173 13
301 2 1.20599 -10.9349 -7.81742 10
302 2 3.42255 -4.01925 2.32542 14
303 2 1.74958 2.15285 4.25062 13
304 2 -2.64646 7.41393 -10.0949 10
305 2 -7.46368 -6.92612 -12.9228 10
306 2 -5.72405 7.44702 0.557415 16
307 2 -7.77425 6.85673 -9.28721 10
308 2 -12.6198 3.52276 -7.58517 12
309 2 -11.1099 2.64425 3.10814 14
310 2 -0.603195 3.46663 -12.8676 13
311 2 2.20501 -4.07183 -8.93592 15
312 2 -9.58305 5.55114 -7.14154 13
313 2 -6.87156 1.63678 -12.9326 15
314 2 -0.289846 -6.74515 4.50168 11
315 2 -10.6053 -0.601041 4.80563 14
316 2 -11.6035 -3.2491 3.16106 13
317 2 -2.06177 -8.34589 3.16894 15
318 2 -13.7949 0.582581 -1.66066 15
319 2 -6.84749 -6.51601 5.10299 13
320 2 -1.41941 -9.82069 0.375386 18
321 2 3.30457 -0.487893 4.73986 12
322 2 2.3773 -10.1482 -4.38566 16
323 2 -7.04494 8.94592 -3.95721 8
324 2 -9.65919 -1.83502 -10.3909 13
325 2 -9.17035 -0.884596 2.14307 19
326 2 0.0147598 -4.32014 2.9621 20
327 2 1.86037 4.44284 -12.0495 10
328 2 1.89074 7.13411 -2.64961 15
329 2 5.321 -1.84837 1.87563 11
330 2 3.08264 -1.5334 -10.8467 13
331 2 2.78955 -6.84936 -0.253028 18
332 2 3.89643 4.97608 -7.52497 14
333 2 -11.8745 -4.91872 -5.90663 15
334 2 -10.5503 -5.12342 -2.71367 21
335 2 0.903469 -7.87312 -2.43766 22
336 2 -0.431403 6.82607 -8.01965 18
337 2 5.91937 1.05718 -3.94381 15
338 2 1.26421 4.05409 -7.55655 18
339 2 4.19681 -4.16823 -5.73347 18
340 2 4.19892 -8.20334 -2.2551 14
341 2 -2.8891 -12.2529 -6.57966 11
342 2 -1.01843 6.73627 -2.72466 23
343 2 -1.01366 7.1534 2.44846 15
344 2 -3.66076 -10.8826 -1.12479 14
345 2 -7.09196 -8.16172 2.39534 14
346 2 3.61973 1.03006 2.21148 15
347 2 6.35734 0.801809 -7.1541 15
348 2 -8.83587 0.715336 -10.892 18
349 2 -4.7485 -10.569 -8.55621 12
350 2 2.57234 -6.56463 -4.6663 20
351 1 -6.57179 -6.9006 -7.63661 22
352 1 -8.85845 -4.32859 -6.85957 20
353 1 -5.23 -2.32197 -9.66551 21
354 1 -3.94038 -5.2569 -9.54098 21
355 1 -3.3456 -6.67872 -7.03296 22
356 1 -5.40747 -3.87887 -7.13049 22
357 2 -6.78353 -6.82524 -4.90063 20
358 2 -8.88868 -4.07685 -4.61934 16
359 2 -9.00322 -2.24037 -6.91959 20
360 2 -7.08879 -4.75677 -7.08773 17
361 2 -5.47458 -4.24131 -9.24114 16
362 2 -3.38203 -6.83612 -5.00581 20
363 2 -5.15884 -3.92203 -5.07458 23
364 2 -5.23576 -1.57128 -7.48767 23
365 2 -3.77235 -4.95676 -7.57595 21
366 1 -8.36392 -2.18399 -3.87487 22
367 1 -7.00232 -4.79216 -4.4361 22
368 1 -6.85824 -7.08062 -1.87938 21
369 1 -8.90337 -4.40904 -1.90392 19
370 1 -9.10666 -2.1475 0.195198 18
371 1 -6.56573 -4.74338 0.549379 22
372 1 -5.23034 -7.79998 -4.49514 22
373 1 -5.28676 -1.91556 -4.53981 21
374 1 -3.63589 -5.12347 -4.34086 22
375 1 -3.61135 -6.9931 -1.73897 21
376 1 -5.46606 -4.15392 -1.8796 20
377 1 -5.32124 -1.81538 0.948778 23
378 1 -3.20346 -4.60678 0.950035 22
379 2 -8.34801 -3.90375 -0.0412937 21
380 2 -8.72752 -2.2678 -1.93365 21
381 2 -6.80269 -5.18805 -2.57828 20
382 2 -5.02592 -8.25184 -2.44086 22
383 2 -3.29212 -6.64438 0.483298 21
384 2 -4.93184 -3.72831 0.234208 22
385 2 -5.45693 -2.03415 -2.44973 22
386 2 -3.72386 -4.9659 -2.33463 25
387 2 -5.44417 -1.79828 3.00968 20
388 1 -7.30106 0.323209 -9.75129 22
389 1 -7.12564 -1.20453 -6.84766 23
390 1 -9.19952 1.31923 -7.12514 23
391 1 -7.41195 4.29038 -7.60481 24
392 1 -3.48769 0.256099 -9.83416 24
393 1 -3.47333 -1.22138 -7.1791 24
394 1 -5.68806 1.10825 -7.22082 23
395 1 -4.13799 4.32929 -7.83191 20
396 2 -10.123 -1.2271 -3.82644 18
397 2 -6.75083 -1.71286 -10.5387 21
398 2 -7.01469 -1.16781 -4.6076 22
399 2 -8.79136 1.49651 -5.1329 23
400 2 -7.59472 0.534897 -7.68166 19
401 2 -7.42046 4.38595 -5.67168 21
402 2 -3.16392 -1.56061 -10.5128 21
403 2 -5.15551 0.868645 -10.4644 22
404 2 -3.56355 -1.06547 -5.22678 23
405 2 -5.61789 1.4857 -5.19182 23
406 2 -5.9014 3.08307 -7.99509 19
407 2 -3.72053 0.656944 -7.72293 23
408 2 -4.07695 4.58966 -5.55744 22
409 1 -10.5774 0.630779 -4.41516 20
410 1 -10.6876 -1.50915 -2.09902 23
411 1 -9.02929 3.5182 -4.69965 20
412 1 -7.15565 0.702257 -4.14443 22
413 1 -6.84901 -0.973093 -1.55984 23
414 1 -8.81052 1.94715 -1.74189 20
415 1 -7.0103 1.00022 0.653228 20
416 1 -6.68795 4.82355 -2.16421 22
417 1 -5.47182 3.43831 -4.84853 20
418 1 -3.86176 0.792248 -4.51618 24
419 1 -3.48036 -1.15435 -1.83363 20
420 1 -5.31529 1.89092 -1.76671 22
421 1 -5.35053 3.93385 0.56369 19
422 1 -3.47928 1.01845 0.832879 23
423 1 -3.43617 -0.932136 3.2009 23
424 1 -3.89804 4.77796 -2.31797 19
425 2 -10.7211 1.63846 -2.53066 21
426 2 -7.33937 -1.33436 0.435064 19
427 2 -8.85448 1.76256 0.283302 20
428 2 -8.48759 3.73537 -2.73191 21
429 2 -7.02999 0.924308 -2.14349 20
430 2 -3.62147 -1.09412 0.515196 21
431 2 -5.09556 1.87617 0.253443 21
432 2 -5.34593 3.58764 -2.71664 23
433 2 -3.41615 0.666682 -2.36473 23
434 2 -3.3993 1.0443 2.87506 21
435 2 -3.77463 4.82292 -0.113937 23
436 1 -1.56138 -2.57155 -9.57662 18
437 1 -0.21614 -6.65447 -6.82751 22
438 1 -2.24039 -3.87081 -6.93155 25
439 1 0.937606 -3.56371 -7.12047 20
440 2 -2.87683 -3.5686 -13.381 13
441 2 -0.583694 -6.76385 -4.8874 21
442 2 -1.85196 -3.84575 -4.92161 22
443 2 -1.93209 -2.11537 -7.71998 22
444 2 -0.603155 -4.72522 -7.52216 20
445 2 1.26364 -3.58039 -5.24578 22
446 2 1.85445 -1.59177 -7.28156 20
447 1 -1.96858 -7.97621 -4.24538 20
448 1 -1.73745 -1.91252 -4.56381 21
449 1 -0.245961 -4.74254 -4.18654 24
450 1 -0.396257 -6.81683 -1.83251 24
451 1 -1.90779 -4.04246 -1.51991 22
452 1 -1.6593 -1.63167 0.713655 25
453 1 0.0206259 -4.61199 0.869491 21
454 1 1.51537 -1.64255 -4.67282 21
455 1 2.66938 -4.65947 -4.65138 21
456 1 1.161 -3.41674 -1.77499 21
457 1 1.88485 -1.49838 0.484255 22
458 2 -1.96784 -8.05522 -2.13827 18
459 2 -1.50222 -3.60971 0.151715 21
460 2 -1.97204 -2.05085 -2.46796 23
461 2 -0.199627 -4.72152 -2.07866 20
462 2 -1.5385 -1.39046 2.83335 22
463 2 1.6715 -3.71594 0.0704109 23
464 2 1.48276 -1.4669 -2.74848 24
465 2 2.44649 -4.72425 -2.49295 22
466 1 -0.0125251 0.883556 -9.98013 20
467 1 -0.140561 -0.922614 -7.4768 22
468 1 -2.21226 1.68993 -7.12248 24
469 1 -0.832754 4.7945 -7.29817 21
470 1 2.9656 -0.0680921 -7.24041 23
471 1 1.06038 2.18828 -7.22525 23
472 2 -0.129419 -1.25739 -9.69311 17
473 2 -1.9022 1.55847 -10.6317 21
474 2 -0.137004 -0.716477 -5.27798 23
475 2 -2.31322 1.75433 -5.21313 24
476 2 -2.31526 3.71119 -7.85423 21
477 2 -0.483753 1.11146 -8.09974 22
478 2 -0.893034 4.79788 -5.18655 21
479 2 3.20054 -0.527563 -5.25895 23
480 2 1.1803 1.90035 -5.2765 23
481 1 -2.64062 3.76388 -4.6967 22
482 1 -0.460742 1.0344 -4.33186 25
483 1 -0.28456 -0.852839 -1.92489 21
484 1 -2.01767 2.1845 -1.90815 22
485 1 -2.05429 4.01953 0.60422 21
486 1 0.100068 0.92617 0.80552 19
487 1 -0.787685 5.00531 -1.81282 25
488 1 0.83412 3.93105 -4.39521 25
489 1 2.87798 1.39119 -4.82066 22
490 1 3.05608 -0.82896 -2.50415 21
491 1 1.48837 1.96999 -1.86757 25
492 2 0.104874 -0.865137 -0.0652068 22
493 2 -1.69052 2.07887 0.520259 21
494 2 -2.31599 4.0211 -2.76046 23
495 2 -0.288373 1.25295 -2.40184 21
496 2 -0.261541 1.04243 2.85494 22
497 2 3.55615 -0.77977 -0.494116 20
498 2 1.48672 1.89701 0.0038273 19
499 2 0.899405 4.06828 -2.45523 21
500 2 3.16347 1.23751 -2.89713 23
