ITEM: TIMESTEP
32000
ITEM: NUMBER OF ATOMS
2000
ITEM: BOX BOUNDS pp pp pp
-30.0 30.0
-30.0 30.0
-30.0 30.0
ITEM: ATOMS id type x y z Coordination
1 1 -15.9222 -1.78864 -9.32634 9
2 1 -5.00871 -13.9705 -8.96494 21
3 1 -1.87029 4.30193 13.7716 17
4 1 4.14953 -15.1541 8.81484 18
5 1 -14.7145 3.24867 -0.458556 13
6 1 9.06995 -14.9186 -7.66376 14
7 1 -12.6888 -6.30933 -4.07979 19
8 1 0.884984 -18.0911 12.511 11
9 1 -13.1172 -6.12817 -12.322 9
10 1 -17.0496 -14.9625 7.92972 14
11 1 12.6764 -5.74422 -3.69278 10
12 1 -4.772 -22.1004 4.37396 16
13 1 -19.7559 -15.6804 3.00919 9
14 1 1.08376 -1.90207 18.544 16
15 1 -2.80124 0.91495 -8.10877 19
16 1 -1.67369 -5.75363 15.8991 18
17 1 -10.4669 -11.0647 -13.702 13
18 1 -15.5235 -9.85103 14.7576 12
19 1 11.0237 1.65198 3.3098 17
20 1 -0.18327 5.51635 -9.95713 12
21 1 2.62338 0.440724 -11.6839 13
22 1 10.9482 -2.43434 11.7499 21
23 1 -18.1129 -2.64795 -6.5131 11
24 1 -14.1508 4.60304 11.0666 8
25 1 5.46438 -19.9005 8.68434 7
26 1 -0.136395 -18.9426 -9.09538 14
27 1 6.34151 -19.3729 3.40312 15
28 1 -11.5741 -19.0158 -2.75848 22
29 1 -14.031 -15.8133 12.3167 12
30 1 -3.08538 -16.6126 -5.62636 21
31 1 8.53123 -16.0524 -10.4841 13
32 1 -6.69074 -0.485811 -14.7088 15
33 1 -3.10791 -3.21082 12.5579 21
34 1 -3.48374 -19.5752 8.57994 18
35 1 1.65038 -10.3233 14.5363 16
36 1 -14.7496 -8.757 1.61752 20
37 1 -19.6991 -8.40833 8.44741 10
38 1 -7.29819 3.98919 -1.44837 19
39 1 -2.45574 -18.7336 -11.2358 14
40 1 2.23895 -11.2292 -9.04899 21
41 1 -1.68607 -10.8025 12.7663 20
42 1 -15.2083 -2.8544 2.2039 17
43 1 0.733346 -0.778528 -9.88715 19
44 1 3.29905 6.38373 6.03344 19
45 1 -15.9663 2.93527 -5.87979 10
46 1 -4.34173 4.62568 0.183559 23
47 1 -0.237318 -18.6072 3.97045 17
48 1 1.9713 -15.9998 -2.44106 20
49 1 4.81524 -13.7983 -14.6165 13
50 1 -9.81022 3.54531 15.3102 12
51 1 -15.1078 -13.2938 -8.58726 16
52 1 -10.1044 -0.532264 -3.3484 19
53 1 -11.6785 -14.0231 3.56529 21
54 1 -4.0463 10.3014 12.5575 14
55 1 -14.6176 -3.66258 -4.56533 19
56 1 -6.99369 1.49116 14.1301 17
57 1 -5.3693 -20.7758 10.1119 11
58 1 1.89446 -21.5204 -2.18914 14
59 1 2.42075 4.45271 11.0589 19
60 1 -16.152 -10.3032 -10.6768 11
61 1 -13.1799 -1.97512 -7.76246 20
62 1 1.88858 -3.9764 15.8337 19
63 1 8.72601 -11.5361 -8.50914 14
64 1 2.12257 -18.9836 6.32351 16
65 1 -17.7545 -8.8715 6.93402 20
66 1 4.13342 9.15746 9.55135 10
67 1 2.96185 -7.96373 15.8356 17
68 1 -14.1383 -19.5797 8.41449 16
69 1 10.9815 -2.17538 9.14429 16
70 1 -3.18761 7.27591 13.2716 18
71 1 -12.4706 -17.8783 -6.80321 17
72 1 -13.8512 -0.809494 8.54968 20
73 1 -12.0703 1.88734 0.612587 20
74 1 -7.01111 -0.514718 -7.97486 21
75 1 6.52469 5.97973 -6.85276 16
76 1 4.48616 -14.0782 11.5308 14
77 1 -5.96291 6.77647 -1.66901 16
78 1 -12.383 1.94416 7.03443 24
79 1 -10.0882 -10.2769 17.9181 11
80 1 -8.72714 -13.6523 12.3102 27
81 1 9.79507 -14.3389 -3.21546 13
82 1 -15.8494 -3.52747 8.8697 17
83 1 -14.4359 -19.5188 1.38437 14
84 1 8.54167 -14.3652 2.31784 16
85 1 -0.921059 -5.33489 -10.7525 24
86 1 -7.70681 -8.54459 -15.5562 10
87 1 -4.38063 4.81947 3.89174 22
88 1 -14.7545 1.47125 -3.74016 18
89 1 -1.83801 3.17456 17.3272 18
90 1 -5.74948 3.96 -7.75036 16
91 1 -13.2447 4.14524 4.80385 15
92 1 -6.02082 -14.1507 10.825 21
93 1 12.3699 -6.52924 9.51022 16
94 1 2.46156 -11.1529 -5.89393 21
95 1 1.41577 -5.55388 17.9564 17
96 1 -13.0529 -11.7746 -1.32827 20
97 1 -11.1342 -14.0001 -2.49721 20
98 1 7.08298 -16.6954 7.59975 11
99 1 4.87305 -5.15385 -11.1938 15
100 1 6.13729 6.73159 -1.48571 16
101 1 -10.4091 -17.8841 8.95024 19
102 1 -13.6402 -21.7629 6.05385 16
103 1 4.46108 -19.1623 -13.1539 13
104 1 5.12478 -15.6911 2.98171 23
105 1 -2.30681 -22.6506 10.6747 7
106 1 -11.057 -14.905 0.533563 19
107 1 15.5868 -4.48368 10.5608 8
108 1 7.79767 -11.4315 -2.92235 20
109 1 -18.4609 -9.60657 4.16088 14
110 1 6.75517 0.561812 7.99377 23
111 1 10.2224 4.28451 5.23128 14
112 1 -9.03495 -1.36312 18.5087 11
113 1 -2.95505 8.46488 15.8689 14
114 1 -7.33019 4.00884 -4.88586 20
115 1 -2.38297 -13.5234 -7.30562 23
116 1 7.58416 -18.0998 -8.11633 14
117 1 -3.6265 7.45702 -7.58799 10
118 1 5.80772 -11.0012 12.7225 15
119 1 1.26841 -8.96723 -15.4095 15
120 1 -5.73922 1.69053 -6.5424 21
121 1 10.6301 -6.42798 -1.65035 19
122 1 -18.2978 0.625058 -4.33867 9
123 1 -7.29861 8.64316 0.16483 10
124 1 3.55548 -7.59779 -13.648 16
125 1 4.48626 -16.5371 6.26881 15
126 1 -8.52514 5.25897 10.8029 20
127 1 11.4454 4.07921 -8.38995 10
128 1 6.1639 2.43338 -5.31154 19
129 1 -3.94506 7.12001 2.19034 16
130 1 10.9484 4.58952 -2.29202 13
131 1 -5.04717 5.81528 -5.5586 16
132 1 -0.0864009 8.53458 -7.94595 9
133 1 -1.54289 0.386975 -15.3307 6
134 1 -18.5664 -17.4761 6.12995 8
135 1 -18.611 1.28239 0.810467 10
136 1 -6.5692 -11.9645 -10.4784 19
137 1 -1.17569 -18.6805 -15.4428 7
138 1 2.55031 1.50784 9.09885 23
139 1 -1.2095 8.20657 10.5844 19
140 1 -12.6109 -11.9636 -4.28289 21
141 1 -14.1153 4.95311 7.34135 11
142 1 13.9654 -7.78017 1.82222 8
143 1 -14.1549 -4.75648 -9.51082 14
144 1 3.69083 -5.12565 20.2426 12
145 1 5.42738 8.6867 6.74909 14
146 1 -6.76572 2.7153 10.0583 20
147 1 2.27542 -11.134 -12.6884 20
148 1 -5.87566 8.69695 14.9528 11
149 1 -3.36788 1.53244 -4.31146 21
150 1 -1.9112 -10.8638 16.9612 13
151 1 -12.7027 -13.9925 7.56426 18
152 1 -4.31394 -17.2739 -13.7658 12
153 1 -10.4707 5.53836 -5.2572 18
154 1 -7.54193 -16.3359 5.78132 19
155 1 1.80704 -20.199 -6.97285 10
156 1 -7.07683 5.78063 -10.6739 10
157 1 -20.7754 -5.72704 10.7191 6
158 1 8.47847 0.234242 -5.33683 16
159 1 -11.4489 -1.00568 16.7535 13
160 1 -4.65577 -16.7811 10.286 20
161 1 0.0383592 9.73524 5.02245 11
162 1 -4.09266 -0.435351 10.4059 20
163 1 8.98368 -0.308441 17.6071 13
164 1 -8.7307 7.45232 5.31285 15
165 1 10.0575 -12.664 -5.66427 15
166 1 -8.35317 6.45447 13.6849 13
167 1 6.03878 -13.2917 4.1517 21
168 1 -18.9729 -5.38223 8.26148 16
169 1 -11.3763 -16.6629 6.20705 18
170 1 3.21574 4.85365 16.2324 12
171 1 -17.6708 -7.54062 -1.42336 15
172 1 -4.59523 -19.0131 1.77653 18
173 1 -6.30039 1.98542 6.81066 21
174 1 3.73936 7.16563 11.7415 12
175 1 -13.3754 4.31105 -4.3235 14
176 1 -18.4805 -13.776 -2.94954 9
177 1 -13.0712 -8.63251 14.1562 18
178 1 -4.23953 -16.903 6.98792 22
179 1 3.05448 -21.4902 7.97796 12
180 1 -15.3609 1.93888 5.23402 17
181 1 13.994 1.82945 9.62434 7
182 1 -5.29241 -14.3737 -14.419 13
183 1 1.00655 -5.65913 14.0391 19
184 1 2.67141 -23.9366 6.5281 12
185 1 -6.71762 -0.801919 -11.6555 19
186 1 2.66808 -19.1146 -10.5635 16
187 1 6.63686 -7.83527 -12.5331 14
188 1 0.471334 2.29565 -8.57259 19
189 1 -9.82535 -12.0574 -5.50081 21
190 1 -7.89807 7.20483 -4.67118 16
191 1 -14.2935 -16.6031 9.40802 14
192 1 9.28728 5.99806 -0.345679 10
193 1 -9.0054 -4.25979 14.7244 17
194 1 -9.80417 7.44878 -1.99748 11
195 1 4.01002 -6.02431 12.8936 23
196 1 -3.83996 -10.3767 -11.5611 23
197 1 -12.6264 4.26274 -7.63972 6
198 1 -1.0439 -0.695713 -7.56911 24
199 1 -11.2365 -21.1899 8.8377 16
200 1 -12.3031 -3.37415 6.96724 20
201 1 -9.5883 1.89326 12.1686 21
202 1 -0.654573 -16.5323 -3.99078 19
203 1 -7.42979 -20.122 0.683302 18
204 1 7.83859 -20.1625 0.130815 9
205 1 10.5386 2.10082 15.4538 10
206 1 2.76941 3.51105 -10.3512 12
207 1 -18.5109 1.1204 4.33173 10
208 1 -1.43895 0.705835 15.4839 19
209 1 -0.253474 -23.8876 1.84367 13
210 1 8.41297 -8.06445 -0.893656 21
211 1 -13.4194 -0.621554 5.3466 21
212 1 -13.7954 -14.3942 -0.139759 18
213 1 5.9641 -7.31048 -9.10367 19
214 1 -1.16284 -8.49123 14.0519 15
215 1 13.8022 1.56051 -10.0324 5
216 1 -6.18646 -8.80762 -9.33745 20
217 1 -1.67728 -22.4773 4.31597 16
218 1 6.0583 -7.38802 -5.79787 22
219 1 -16.3569 -6.59419 4.01894 18
220 1 -0.581838 -22.2372 -0.328789 20
221 1 -12.1846 -12.6281 -7.08874 18
222 1 1.39526 4.83794 0.572847 23
223 1 -0.495842 -6.42546 -14.0758 17
224 1 0.421048 0.719085 17.5901 20
225 1 14.099 -1.12058 4.53877 11
226 1 6.33624 -13.1967 -8.56557 18
227 1 -9.25863 -9.42462 -10.7848 18
228 1 -13.7188 -7.39919 -6.91862 20
229 1 -8.06866 -22.27 10.6599 8
230 1 13.0515 -4.89376 11.9641 16
231 1 -8.32481 -19.1644 -10.4841 10
232 1 -5.74592 -3.33891 -13.4687 22
233 1 -1.22984 4.54396 6.01912 24
234 1 -11.5162 -13.8359 13.8134 15
235 1 -11.9715 -14.577 -9.68527 10
236 1 -9.11319 -11.8014 -8.37483 19
237 1 -4.96378 0.820677 -16.3336 9
238 1 -9.98227 -16.2379 -8.35443 19
239 1 6.64495 -13.5322 -11.4935 15
240 1 8.19235 -9.71265 -5.59289 17
241 1 8.21902 -2.55949 2.80619 18
242 1 -12.792 -10.9682 12.7521 19
243 1 -6.64186 -16.7349 2.58751 23
244 1 8.05519 -5.8394 14.8464 18
245 1 -9.06299 -22.4101 5.57557 18
246 1 -2.92534 -19.1228 -0.334363 22
247 1 -2.83889 7.02792 -1.57399 16
248 1 2.96127 -6.12121 -9.53305 20
249 1 -7.77653 -15.0426 -9.89467 19
250 1 -12.6162 -18.9027 10.9942 11
251 1 1.66112 3.71458 18.5022 13
252 1 -0.914128 -16.7763 -0.73566 25
253 1 -5.97668 -16.6461 -7.48207 21
254 1 -12.7127 -1.08139 -4.73416 22
255 1 4.07861 -0.487566 12.9154 19
256 1 -8.95274 -3.65316 -7.48918 22
257 1 -4.01158 -1.3824 -9.69231 21
258 1 5.06341 -19.6887 -8.55494 15
259 1 -4.19951 4.3671 -3.33504 25
260 1 -0.701908 1.87245 7.31883 23
261 1 7.30825 -5.48951 7.86801 20
262 1 -13.2189 -6.215 9.05814 21
263 1 -7.06695 -11.6207 12.6076 20
264 1 -9.3895 1.88079 5.35575 24
265 1 -0.445899 -11.1394 -10.7328 23
266 1 10.1597 -0.484125 -2.43536 19
267 1 4.01294 -17.9669 1.62191 19
268 1 -7.07364 -8.50102 18.035 14
269 1 -17.0315 -10.6676 9.777 15
270 1 -1.47634 -22.6392 -3.27441 10
271 1 -8.57057 1.09374 16.6933 12
272 1 -14.5814 1.3115 12.4733 12
273 1 -15.1285 -9.30659 11.8665 20
274 1 -15.8509 -12.506 12.8025 11
275 1 13.4202 -10.9893 -0.0191096 11
276 1 -15.0634 -13.3172 10.0215 17
277 1 10.9291 -9.83014 -8.08539 10
278 1 6.21843 -19.2808 -1.87312 16
279 1 2.29477 7.02613 -1.45075 18
280 1 -11.8956 1.7639 -2.77761 22
281 1 6.30041 -0.121986 15.169 20
282 1 4.85173 -16.3694 -0.93533 21
283 1 -7.18183 4.55457 5.29478 20
284 1 3.61798 -17.1173 11.6572 9
285 1 10.361 -10.1971 5.63689 16
286 1 -3.3467 -5.28492 20.9602 9
287 1 -4.79542 8.46984 9.22091 15
288 1 5.74844 0.548142 18.7852 14
289 1 -9.86818 4.43318 -2.97479 18
290 1 -0.343332 -12.4554 -15.1775 14
291 1 6.30457 -18.6598 -10.9546 15
292 1 -11.7068 -2.95133 13.832 17
293 1 -14.9706 -3.66285 5.81894 18
294 1 -9.21505 1.82082 2.02813 21
295 1 5.71365 -8.64548 10.6775 21
296 1 -14.5908 -19.5558 -1.66947 14
297 1 6.32311 -13.4841 7.42925 19
298 1 -10.3459 -16.0193 11.8292 19
299 1 -14.8693 1.26289 2.03838 17
300 1 -0.101562 -19.9897 -2.65913 19
301 1 -8.65499 -8.99105 -7.85012 20
302 1 6.27897 -10.9306 -14.1061 10
303 1 2.89324 9.90862 6.30983 14
304 1 -15.6072 -11.9268 -3.05526 19
305 1 4.34759 -16.8957 -15.4972 13
306 1 6.8195 -2.37182 -9.13565 18
307 1 -10.6065 -22.0957 -2.93286 11
308 1 -14.153 -17.5122 -4.42384 15
309 1 7.26989 2.07668 16.1254 15
310 1 8.25284 -2.65245 -0.482216 21
311 1 -11.9905 -4.23151 -5.96996 20
312 1 4.86736 3.41271 7.41087 21
313 1 -18.3693 -10.8378 -2.06513 13
314 1 -10.6979 -0.542783 7.15361 22
315 1 -12.6303 4.24973 1.63619 16
316 1 5.27266 -3.04525 17.2085 16
317 1 8.9171 -7.62478 -3.61595 17
318 1 1.11858 -10.0701 17.8232 15
319 1 9.32671 -1.96829 -7.27754 20
320 1 -9.11916 -22.9748 0.146959 14
321 1 1.91604 -16.2166 0.87157 21
322 1 6.94364 -6.07229 12.2462 22
323 1 -14.6197 -9.29759 -1.54627 19
324 1 -8.68553 -17.9651 1.67274 18
325 1 -9.04918 -15.6686 15.0921 10
326 1 -6.5103 5.67573 1.59395 18
327 1 -16.2805 -16.7373 -1.16016 11
328 1 4.8602 3.43205 18.7755 10
329 1 -13.117 -0.740125 -1.43499 18
330 1 -2.93214 3.71263 -6.97462 17
331 1 -0.0741955 5.17693 11.5342 15
332 1 -16.1994 -15.249 1.83014 16
333 1 -5.3116 -14.6077 -5.3922 21
334 1 -14.8759 -9.37744 4.9793 18
335 1 -17.4662 -2.16424 -3.20212 14
336 1 1.11853 -15.9626 7.41486 21
337 1 -10.0706 -21.0627 1.76997 17
338 1 7.76014 3.3374 9.91443 16
339 1 4.93338 0.514297 -9.52955 15
340 1 -16.6061 -4.96838 -8.1474 13
341 1 -9.74472 8.05473 -7.68166 7
342 1 -15.9998 0.498172 -1.12379 14
343 1 -3.79959 -19.6172 5.78251 20
344 1 8.2202 -3.17785 6.24471 16
345 1 -5.4751 1.83571 -10.0865 19
346 1 -18.0073 -3.19553 5.77663 14
347 1 -11.7156 -19.8856 6.26521 18
348 1 3.47091 -13.6417 -7.33757 20
349 1 -15.8544 -6.44004 7.57197 19
350 1 -17.886 -7.52588 13.1068 10
351 1 -16.3535 -0.994969 10.5569 14
352 1 -12.6104 -1.40133 -10.6066 15
353 1 4.96274 -17.0611 -4.09874 18
354 1 0.597045 -13.8352 -12.473 21
355 1 -6.15749 -9.12661 14.4396 18
356 1 -8.59735 -3.38454 -14.8481 14
357 1 1.2849 -21.6921 2.38985 22
358 1 -1.44362 4.75595 -4.30151 20
359 1 -15.2473 2.23262 9.12806 15
360 1 -9.67579 -8.35378 15.3406 21
361 1 -9.85177 -13.1079 -11.1797 16
362 1 -9.29825 -14.1714 8.86916 18
363 1 7.56754 -10.3766 7.82472 22
364 1 8.31852 -8.06981 9.24677 19
365 1 12.7469 -1.40139 -8.15291 12
366 1 -6.35283 -3.39677 14.1099 21
367 1 -1.7439 4.8729 2.291 22
368 1 -9.54577 -17.0827 -2.03025 22
369 1 -4.94455 -0.972528 16.2876 19
370 1 -6.12969 7.75401 11.7496 17
371 1 -11.6804 -15.3396 -5.73529 18
372 1 6.14158 6.13505 1.66308 17
373 1 1.35978 -0.641033 11.1557 21
374 1 -10.4159 -5.71124 10.541 21
375 1 -13.8145 -1.78721 12.1011 21
376 1 -8.09685 -14.271 -3.97818 20
377 1 -9.32763 1.4491 8.88283 22
378 1 -6.6095 -16.7103 -3.97064 21
379 1 -1.5133 -15.8934 -13.6946 17
380 1 -7.15644 -19.7233 3.6432 19
381 1 8.01228 -3.06892 12.6024 24
382 1 -7.54213 -10.6866 16.11 11
383 1 -9.31852 -1.11042 -10.0339 18
384 1 6.56028 0.548864 1.81577 20
385 1 -11.8217 -22.843 4.03806 17
386 1 -2.3292 7.02569 4.4148 19
387 1 -4.4799 2.26073 12.4534 17
388 1 -17.5001 -9.89723 -5.47983 13
389 1 -0.389018 7.50954 0.833444 16
390 1 2.89989 2.14438 -3.65034 20
391 1 -7.99656 -14.708 -6.96372 23
392 1 1.66201 -7.61869 20.1188 12
393 1 0.0206364 -16.1932 -7.18446 20
394 1 -3.65507 -11.1405 -8.95093 22
395 1 5.95168 -22.1643 5.85459 9
396 1 -16.6342 -0.202254 7.20692 15
397 1 -1.22288 -4.07528 18.2625 20
398 1 5.63024 2.72239 -2.80204 19
399 1 -8.32102 2.88734 -8.9103 15
400 1 -18.3862 -9.79948 1.10741 15
401 1 0.325086 9.91155 8.19714 14
402 1 -8.66123 -3.57347 -11.7328 21
403 1 7.05222 0.213501 4.70075 20
404 1 0.483785 5.6398 -6.28074 22
405 1 11.0964 -3.25266 0.570365 19
406 1 -3.65941 -6.14658 -8.93247 22
407 1 -0.643574 -18.9803 6.99253 21
408 1 1.19166 -15.7032 10.5358 20
409 1 -15.6686 -7.13459 -3.71607 19
410 1 -16.5149 -20.5116 6.44856 10
411 1 -4.35862 -19.4407 -7.29397 13
412 1 3.87968 6.12038 8.65631 20
413 1 1.61862 -3.01112 -11.2408 19
414 1 -1.2693 -7.50811 18.8541 15
415 1 -16.847 -4.15988 14.5272 10
416 1 -3.66354 -23.823 2.05043 17
417 1 -15.5228 -12.4012 3.68352 18
418 1 12.0042 -12.6889 -2.44564 10
419 1 8.39712 -8.37135 2.40906 20
420 1 0.364342 -13.6689 -5.56951 21
421 1 1.83079 -5.41449 -12.7397 17
422 1 8.96519 -6.78629 -7.0123 18
423 1 -8.43422 -5.21311 18.8982 13
424 1 4.2587 4.92813 -1.1564 23
425 1 -3.96545 -11.2597 -15.4559 15
426 1 2.50495 -6.12827 -16.0202 9
427 1 -10.4026 -11.3638 11.0992 22
428 1 -6.77144 8.2716 3.25353 12
429 1 -6.68593 -11.6648 -13.7152 15
430 1 -19.1807 -6.03243 5.19859 13
431 1 0.968582 -18.5762 -12.9416 14
432 1 -7.40985 -16.7993 13.049 14
433 1 -0.341948 2.12157 -5.74959 21
434 1 13.3874 -3.74742 8.77586 15
435 1 10.9178 -1.10917 3.28879 17
436 1 -12.418 -21.3893 0.18593 15
437 1 -2.54134 -12.9198 -13.1182 19
438 1 -11.4113 4.88605 13.3968 10
439 1 11.3815 -8.73349 0.887183 20
440 1 1.98089 8.11131 -4.78316 11
441 1 11.2934 -3.17647 -2.26483 18
442 1 -3.63486 2.37231 15.4471 20
443 1 -16.7565 -7.37852 9.79677 20
444 1 1.73107 9.11076 12.6646 11
445 1 4.57587 -9.19779 19.5228 9
446 1 -6.08069 -6.00506 -10.7585 19
447 1 -4.88172 -5.65461 17.7761 16
448 1 2.28622 2.05523 12.7454 19
449 1 5.04757 4.47334 -8.32335 13
450 1 -9.34929 1.79418 -5.28066 20
451 1 -1.57765 4.43774 -1.01795 26
452 1 2.72397 -8.91564 12.2017 21
453 1 9.30784 -4.82572 -8.50874 15
454 1 7.94861 -16.761 -1.96612 18
455 1 12.8392 -0.116811 13.8207 12
456 1 -19.0978 -12.4946 2.77784 13
457 1 -10.8888 0.251956 -8.3231 15
458 1 -11.7893 -5.82848 15.6079 17
459 1 -8.12501 5.6774 -7.55814 15
460 1 4.5534 -20.7382 1.107 19
461 1 3.2602 -8.47556 -7.29456 20
462 1 -4.5075 8.10936 -3.7417 12
463 1 -8.82786 -14.3736 -13.869 11
464 1 3.88715 -20.2537 4.04586 14
465 1 -15.6234 -11.6241 0.481049 18
466 1 -4.09444 2.17078 -14.166 12
467 1 -0.984515 9.50613 14.0201 15
468 1 -13.0997 -11.5713 9.47352 21
469 1 2.98293 -17.4743 -8.742 20
470 1 0.604408 -12.682 15.8902 12
471 1 -12.6947 -1.13167 2.31958 20
472 1 4.50356 -2.10714 19.8037 11
473 1 5.46171 8.17248 -4.83695 10
474 1 8.78569 -13.9197 -0.687723 16
475 1 0.0698952 3.10159 15.3369 21
476 1 -3.40527 -1.60024 -12.8337 16
477 1 -8.73534 -19.0142 10.2357 16
478 1 4.20014 -9.36225 -15.2735 12
479 1 -2.33508 7.65687 7.75838 19
480 1 11.8642 -3.895 -9.67729 9
481 1 -6.69878 -9.19085 -12.4684 18
482 1 -6.27103 -16.1075 -0.619651 20
483 1 -13.1013 -11.9776 -11.475 13
484 1 11.5523 -2.452 6.26159 16
485 1 13.7323 -4.78942 -0.124121 11
486 1 6.67243 -14.2928 -5.24905 24
487 1 6.80591 -0.634482 11.525 23
488 1 3.14398 -18.6975 -1.12946 21
489 1 0.0380354 -1.41084 -13.3192 13
490 1 6.1432 5.27415 5.06899 17
491 1 7.86499 2.17861 13.1458 17
492 1 7.32823 0.0350305 -1.89413 24
493 1 10.7546 -11.4037 2.57354 14
494 1 13.6958 -4.12725 -6.58328 10
495 1 6.59905 -8.02233 16.9979 15
496 1 11.5967 -1.142 16.8073 10
497 1 12.4485 2.12603 -1.63905 16
498 1 -2.71024 -0.351196 18.0819 15
499 1 13.6545 -7.49718 -0.755899 14
500 1 3.49484 -1.34725 16.4836 20
501 1 -14.0799 -10.4196 -5.56682 18
502 1 12.9354 1.11189 6.41531 15
503 1 -12.287 0.523307 10.432 23
504 1 5.14532 3.51516 13.5472 14
505 1 10.8659 -2.83351 14.601 17
506 1 -1.35465 -0.372388 12.384 18
507 1 -0.899449 10.8974 11.065 12
508 1 -2.7314 -24.3447 -0.59747 12
509 1 -9.03235 1.43218 -1.37819 22
510 1 9.75554 6.92489 -8.41565 9
511 1 6.64132 -9.93312 -10.4107 19
512 1 3.55782 8.24737 0.626054 15
513 1 -10.7916 -20.135 -6.0263 15
514 1 3.02611 -16.3758 -12.2173 22
515 1 -18.4847 -2.85799 11.5714 10
516 1 -12.9751 1.34446 -6.34125 18
517 1 -6.03342 -24.1006 4.92086 13
518 1 -11.2185 -3.94959 -9.41363 18
519 1 -17.0846 -4.99369 -2.82481 15
520 1 10.2509 -15.9044 6.54754 7
521 1 7.88898 3.1603 3.03231 17
522 1 -1.74432 -16.8469 8.69861 23
523 1 -17.5666 -13.0219 -8.17323 7
524 1 -3.59673 -4.66571 -14.2924 18
525 1 -6.18255 0.813509 18.696 10
526 1 8.26171 4.0949 -9.18374 9
527 1 10.5314 -8.36046 10.8052 14
528 1 5.20402 -2.14495 -5.57112 18
529 1 10.7189 6.42165 2.79521 9
530 1 -1.07455 -18.6615 -6.02007 18
531 1 -12.9725 -8.5368 17.025 10
532 1 10.6003 -5.14804 6.79813 19
533 1 -1.16523 8.6846 17.7833 7
534 1 9.20343 2.7636 -2.85382 20
535 1 -12.3747 5.33503 -1.75539 14
536 1 5.17692 3.12534 4.19017 22
537 1 -12.0431 -19.004 2.99064 17
538 1 7.5119 -10.9728 4.70701 21
539 1 3.63992 5.90902 2.61829 23
540 1 -7.52895 -0.954828 12.2836 20
541 1 -17.5807 -14.6927 4.83652 17
542 1 -11.222 -8.57365 -9.44689 17
543 1 3.96459 -11.8343 14.0553 15
544 1 -2.391 -13.7091 14.9768 13
545 1 8.19387 -2.91987 16.0027 17
546 1 -9.94932 4.30295 3.38842 20
547 1 -3.87546 -7.25466 -12.7096 24
548 1 -12.0186 -8.26322 10.7371 23
549 1 9.28424 -10.5146 -11.7804 9
550 1 8.5216 -16.375 -5.42833 14
551 1 5.14984 -3.48968 10.9483 24
552 1 -11.7047 -3.73875 18.5426 10
553 1 5.18757 1.85819 11.2153 23
554 1 -4.09783 -8.40219 17.8519 9
555 1 -4.46117 -0.320614 13.614 22
556 1 -1.83884 -9.88984 -13.6385 19
557 1 -8.38252 -4.35252 11.5212 19
558 1 5.45608 -3.17455 14.4133 21
559 1 -14.8816 -22.1535 3.90525 10
560 1 13.2958 0.688883 1.86388 13
561 1 4.19631 -21.4911 -4.56758 7
562 1 2.42804 2.63102 2.93664 21
563 1 8.51491 7.26509 5.17166 8
564 1 -0.340342 -4.05643 -15.0862 10
565 1 1.29497 4.2709 -2.74346 20
566 1 10.1672 0.179043 0.332175 19
567 1 -11.7751 -18.1887 0.422615 20
568 1 -4.06892 -8.20579 -15.732 12
569 1 -11.9815 6.42556 4.71198 12
570 1 3.34375 -14.1382 -10.8396 20
571 1 11.9015 -1.57517 -5.07495 19
572 1 9.85367 4.18523 -5.4033 14
573 1 10.3044 -5.74645 12.634 17
574 1 4.39455 -10.3837 16.5237 13
575 1 -2.73775 -18.0373 11.6606 13
576 1 -5.77049 5.19041 -13.2344 9
577 1 -5.50746 5.50334 8.51559 25
578 1 6.41696 -16.2334 -13.3364 13
579 1 7.02511 5.01671 -3.87452 19
580 1 1.53727 4.36663 8.16381 24
581 1 11.4209 -13.1377 0.679851 11
582 1 2.699 0.528642 19.4653 14
583 1 -14.6717 -9.54668 8.2131 21
584 1 -1.92486 -20.546 2.43358 23
585 1 -10.717 5.21182 7.10588 18
586 1 2.50459 2.2169 5.83911 22
587 1 -15.7066 -12.2669 6.67428 25
588 1 -3.55432 -3.11716 15.6696 21
589 1 -6.54452 2.36783 -13.0494 11
590 1 -9.79907 -1.25751 -13.2742 12
591 1 0.431625 -19.1484 0.514418 20
592 1 4.32307 -0.341368 -3.41191 19
593 1 -16.3831 -1.1514 13.9657 10
594 1 0.658621 -8.43055 -12.3565 19
595 1 -0.0853794 -19.5893 9.9242 16
596 1 1.13834 7.40817 3.12007 21
597 1 -7.08142 -3.2601 17.1433 16
598 1 -10.238 -16.6533 -11.5821 12
599 1 -4.3159 -15.7444 -11.6702 21
600 1 -9.1619 -17.1886 -5.20892 21
601 1 -1.67851 8.09777 -5.2642 13
602 1 -3.82893 5.32563 11.1727 19
603 1 2.35044 -16.3663 -5.38781 16
604 1 3.51488 -22.9343 3.83059 14
605 1 -0.612429 -12.9425 10.7772 18
606 1 10.3486 -4.63069 -4.88057 19
607 1 -6.21747 -19.804 -4.69764 16
608 1 -15.441 -6.57989 14.0655 13
609 1 -7.06763 -22.7039 2.36433 19
610 1 -12.7696 -16.4347 -2.18835 19
611 1 -13.1422 -5.56032 12.5147 19
612 1 -9.80405 -24.3676 3.79174 12
613 1 13.5061 -2.16409 1.21345 15
614 1 -5.24753 7.48059 5.71561 16
615 1 -19.2169 -1.3537 2.87226 13
616 1 8.18582 -8.0703 5.5146 19
617 1 -14.0348 -10.0201 -8.64577 20
618 1 4.43854 -4.28427 -7.69586 21
619 1 5.79702 4.80084 11.115 14
620 1 -16.3825 -8.21832 -8.15143 12
621 1 -16.2948 -13.2563 -5.5802 14
622 1 -1.4333 -1.60963 20.255 10
623 1 4.91405 -2.41469 -11.9502 12
624 1 6.93076 6.23294 8.42251 13
625 1 -7.46914 -6.65118 12.4668 25
626 1 -5.87074 -18.862 -1.61488 21
627 1 -6.85199 -22.846 7.66331 12
628 1 8.91834 0.60113 10.4626 18
629 1 0.552268 -13.6913 -9.05248 21
630 1 -12.9564 -11.6194 5.5251 21
631 1 7.41575 0.677197 -8.08133 12
632 1 -4.6737 -22.3528 -3.74263 11
633 1 -4.36877 -21.6897 -0.330174 23
634 1 -7.07871 -21.9876 -1.79754 17
635 1 1.03375 -4.32476 -8.60412 18
636 1 4.78619 9.29339 3.24282 10
637 1 -9.10885 -6.08561 -9.68011 18
638 1 -4.83935 -5.9869 14.2133 22
639 1 -1.40298 -2.4349 -9.84034 21
640 1 -13.3325 -9.31125 -12.4663 14
641 1 -15.6269 -14.7019 -2.28089 14
642 1 -0.472195 7.14025 -2.77608 17
643 1 -7.23898 -16.434 -12.2279 17
644 1 10.8607 1.28582 -7.73196 15
645 1 9.38955 -12.8703 5.45639 18
646 1 -11.7249 0.676713 13.7798 17
647 1 1.9516 -16.1447 4.04186 19
648 1 7.3703 -16.1452 4.68251 17
649 1 8.29624 -8.63265 13.5659 15
650 1 -3.52063 2.39023 9.14695 20
651 1 -14.107 -2.96175 16.14 9
652 1 -10.2381 -1.45068 11.4719 21
653 1 -6.59774 -18.4048 7.64421 17
654 1 3.34976 1.64815 15.6792 24
655 1 -19.072 -6.65646 2.23874 13
656 1 6.10822 -13.9325 -2.42995 20
657 1 -9.96922 4.68689 0.31147 20
658 1 0.761661 -21.5041 5.44586 19
659 1 5.40216 -5.55557 15.8323 20
660 1 -3.60542 4.76392 6.79682 21
661 1 -1.35747 -16.6107 5.22145 23
662 1 -0.743576 -2.66017 14.2744 16
663 1 -18.9504 -13.1663 0.0417936 13
664 1 -0.191685 6.01507 17.1423 17
665 1 0.683353 4.90901 4.44217 22
666 1 -14.1709 -15.4318 5.23363 19
667 1 -3.39746 -23.4713 6.63539 12
668 1 2.4426 -12.8809 9.00801 21
669 1 9.63185 -12.884 8.06348 14
670 1 4.16984 -0.777302 9.61644 23
671 1 -2.93222 -16.3472 -8.69989 24
672 1 -7.50164 -6.12798 -13.2144 19
673 1 -7.722 -6.68937 15.9604 19
674 1 1.64606 10.3687 1.75664 8
675 1 15.5169 -0.719427 7.61869 8
676 1 1.58219 -0.611652 -5.70251 22
677 1 -4.99937 4.14503 18.3639 8
678 1 1.08093 0.0216014 14.7843 18
679 1 3.41971 -9.20585 -10.7663 20
680 1 -13.6738 -16.4856 2.71437 18
681 1 11.2051 -9.98079 8.7687 14
682 1 0.859833 -7.82485 -9.23722 24
683 1 -4.37875 -2.43749 18.6337 15
684 1 7.25293 -20.6731 -5.65908 5
685 1 -5.25335 -2.5795 -17.0356 10
686 1 11.952 -6.36893 -8.58296 12
687 1 10.802 -6.78803 3.84147 17
688 1 -4.21276 -11.7983 14.3448 18
689 1 -5.15401 -18.5071 -10.1467 16
690 1 4.09821 5.61628 -4.44853 23
691 1 -17.5472 -3.85033 2.42685 19
692 1 8.60408 -2.53194 -4.00223 21
693 1 10.4702 2.30938 8.49935 13
694 1 -2.47983 -13.7709 -10.6403 17
695 1 -8.24092 4.38916 8.12376 19
696 1 13.8839 -2.66724 13.6968 11
697 1 12.1118 2.08972 -5.18283 11
698 1 -3.52553 -4.24101 -11.157 19
699 1 7.86896 -10.7659 0.70865 17
700 1 -16.1966 -5.63493 0.818928 18
701 1 7.90755 2.45908 6.22049 17
702 1 -14.3971 -19.1731 4.60834 19
703 1 -16.0145 -0.647351 -6.00926 15
704 1 2.45912 -3.42797 12.5546 20
705 1 -11.5097 -9.03889 -6.32274 24
706 1 -12.1575 -3.13147 9.8512 20
707 1 5.52045 -16.3068 -7.07594 20
708 1 -14.6771 -15.3155 -6.75594 13
709 1 7.43575 -17.3002 1.16939 15
710 1 -20.598 -3.83697 2.05633 9
711 1 7.68083 -2.46358 9.22544 20
712 1 -8.93717 -19.2277 6.38181 16
713 1 6.05263 -5.41318 19.4365 9
714 1 9.06495 -11.0619 10.9409 11
715 1 -16.3053 -1.11337 4.52292 18
716 1 -1.95463 4.759 9.21229 19
717 1 3.4799 -1.6386 -8.39866 20
718 1 1.84775 -14.6884 -15.5719 13
719 1 -7.7823 7.35344 8.70623 16
720 1 -15.5746 -17.1293 6.50689 15
721 1 8.69558 7.20482 -5.32414 9
722 1 -3.29708 5.59812 16.3433 16
723 1 10.7366 -9.71444 -2.25599 16
724 1 0.0353546 -14.6102 13.3141 13
725 1 -3.90717 5.72034 -10.2057 13
726 1 2.10141 5.60616 -8.5347 16
727 1 -9.26815 -9.50529 12.6488 23
728 1 14.2957 -1.47997 10.4554 15
729 1 -6.695 -11.3877 -7.44038 23
730 1 7.64573 3.54936 -0.405943 21
731 1 -19.6742 -4.49818 -0.777654 12
732 1 -7.3834 -16.457 9.81614 20
733 1 3.41279 3.49053 -6.1213 15
734 1 1.32179 -11.5836 11.4362 20
735 1 -8.76757 -19.598 -3.52279 18
736 1 -9.95872 7.82949 2.41181 13
737 1 -18.0762 -2.00873 -0.238703 16
738 1 7.24669 -4.19437 -6.33948 20
739 1 0.00379462 -16.1905 -10.5911 24
740 1 -12.0452 1.48092 3.79083 22
741 1 13.202 -0.673535 -1.90448 12
742 1 2.57291 -11.7178 -16.0299 10
743 1 -10.8203 -19.4898 -9.69393 9
744 1 -3.20879 -19.5126 -3.94878 19
745 1 -7.28397 5.8656 16.1456 11
746 1 2.97837 -23.1766 0.637597 13
747 1 -3.07988 4.09222 -11.8249 12
748 1 7.47662 -5.07603 -1.49914 19
749 1 4.83368 2.87705 1.09047 21
750 1 -5.9066 -24.4427 -0.96244 12
751 1 2.15093 -18.281 -15.6577 9
752 1 11.6375 -4.17435 3.66238 16
753 1 -6.3636 -3.5341 -9.75872 22
754 1 -2.97838 -14.432 12.0037 21
755 1 2.9294 1.22408 -7.85595 16
756 1 -15.0557 -2.98918 -1.11938 18
757 1 -15.7186 -4.99071 11.1238 19
758 1 -0.0315899 -5.39798 21.0376 12
759 1 -12.1157 -13.845 10.9594 19
760 1 -0.0838978 2.13114 10.2943 18
761 1 -0.428607 -22.637 8.53869 15
762 1 2.49124 1.83815 -0.413217 21
763 1 -5.56575 4.35423 13.7835 18
764 1 -10.46 -6.36538 13.558 22
765 1 -11.448 3.74631 9.89482 18
766 1 -5.84444 -14.4179 13.8709 15
767 1 2.18632 -18.4184 9.11864 18
768 1 9.32703 -0.30484 13.9419 23
769 1 5.27677 -10.8871 -4.19001 17
770 1 5.53245 -16.1292 -10.0693 22
771 1 -10.2193 -7.85448 -12.8798 16
772 1 -5.94622 -5.6284 -15.607 14
773 1 0.486636 7.39544 7.0257 20
774 1 -10.0809 -12.1951 14.7845 17
775 1 -10.1185 -1.38941 -6.23311 21
776 1 -18.3003 -6.46218 -5.91111 10
777 1 11.6674 4.45507 1.21553 13
778 1 -10.8206 -23.69 7.36804 11
779 1 9.88648 0.269497 6.39834 19
780 1 -13.3264 -20.6128 -4.55895 9
781 1 0.87674 6.25913 14.1625 17
782 1 -10.6879 -7.2754 18.6471 12
783 1 -8.01158 -19.7356 -6.86291 14
784 1 9.53874 -5.03419 10.1376 23
785 1 -0.467097 -24.6568 5.9736 9
786 1 1.14832 8.62576 16.0695 10
787 1 9.26 -7.28933 -10.3528 13
788 1 5.78445 -13.4392 0.668406 19
789 1 -1.75705 -8.25339 -10.7098 20
790 1 -15.7682 -7.1515 -10.6783 13
791 1 -11.4383 -3.31823 -12.3549 14
792 1 -8.95613 -1.07046 14.3152 20
793 1 5.44734 -8.45376 14.2478 23
794 1 -10.159 -16.3794 3.53309 18
795 1 11.6528 -8.01751 6.71524 13
796 1 -2.01969 0.688297 -10.9852 18
797 1 13.236 3.75613 3.95046 11
798 1 -2.76696 10.4823 9.20787 10
799 1 -18.9696 -12.2513 6.57925 11
800 1 4.82254 -21.9157 -1.39329 13
801 2 -12.4891 -8.62965 -7.91497 19
802 2 -10.062 1.37347 -3.2994 18
803 2 -2.33902 -7.53048 -9.0325 19
804 2 -9.01766 0.192354 11.8358 21
805 2 3.15161 -15.8984 -7.12883 21
806 2 -8.66554 -12.8471 -6.83911 20
807 2 -1.84496 -3.89111 15.2324 20
808 2 3.10005 -8.72111 20.4005 8
809 2 -16.3983 -18.6905 -1.70854 9
810 2 -15.9734 -3.58394 -3.26587 16
811 2 0.7939 9.2062 3.02728 13
812 2 -15.133 -5.97599 5.57095 17
813 2 0.257743 7.85096 -5.89207 14
814 2 7.20574 -3.45193 4.54944 20
815 2 -2.21731 7.25907 -3.62497 16
816 2 11.0975 3.10667 -6.62665 11
817 2 -13.5806 -11.5983 -7.86554 20
818 2 -13.3966 -14.7054 -8.0867 14
819 2 -0.904158 -6.43175 13.9749 19
820 2 5.53965 -5.22846 -5.81081 20
821 2 -0.101521 -21.118 1.04615 23
822 2 -10.4057 2.83034 0.756709 21
823 2 -17.3336 -6.38015 -4.21848 12
824 2 6.91597 -3.50287 7.58477 20
825 2 6.34511 -16.5443 -5.31462 19
826 2 -14.8322 -20.6483 2.77565 15
827 2 -13.2075 -13.6118 9.41085 19
828 2 -7.27815 -18.9513 5.37102 17
829 2 4.97642 -10.4256 10.8592 22
830 2 -6.1784 -19.7336 -6.58786 13
831 2 0.661385 -8.544 18.8167 14
832 2 -3.04674 -1.24905 -7.74201 19
833 2 0.0796682 -23.0804 4.51826 17
834 2 -13.9351 -19.1803 -3.3318 14
835 2 -2.52912 -2.4991 18.2795 18
836 2 -12.0181 -0.422744 4.07544 22
837 2 -0.731128 -3.54772 20.082 13
838 2 -7.153 2.1599 -5.2884 20
839 2 5.60518 -20.9401 4.42675 11
840 2 -8.27315 7.11852 -9.12168 7
841 2 5.02001 5.31646 6.73103 17
842 2 7.05438 2.29547 4.58669 21
843 2 9.58112 -10.5328 -9.83121 11
844 2 -5.9294 2.56368 18.6947 8
845 2 0.696853 -3.34966 -13.36 13
846 2 -4.24142 3.80963 -13.2947 13
847 2 9.14527 0.03746 -7.21958 16
848 2 -9.11146 -8.3996 18.1916 15
849 2 -18.2931 -0.324672 6.09773 12
850 2 8.25892 -6.73413 -8.69232 16
851 2 -10.4996 -17.6906 10.7651 14
852 2 -3.6165 -15.1115 -9.93032 18
853 2 -4.45108 -12.8457 -14.5973 13
854 2 -18.9839 -12.9548 4.78367 15
855 2 11.9179 3.87548 -0.76319 11
856 2 -7.66279 2.75347 5.21868 19
857 2 -5.41205 -16.5126 -5.46886 22
858 2 -5.3487 8.99296 13.2362 14
859 2 5.47975 -9.6953 17.9165 12
860 2 -1.3045 -13.4131 12.3143 21
861 2 12.1575 1.78924 8.54844 10
862 2 6.83481 5.00902 -8.74753 11
863 2 -15.9617 -3.67118 0.392069 18
864 2 10.0459 -1.42794 7.44256 17
865 2 7.52805 -19.3598 1.86654 12
866 2 6.12941 -15.8736 -2.39095 19
867 2 -6.78581 5.48101 14.3669 18