ITEM: TIMESTEP
24000
ITEM: NUMBER OF ATOMS
2000
ITEM: BOX BOUNDS pp pp pp
-30.0 30.0
-30.0 30.0
-30.0 30.0
ITEM: ATOMS id type x y z Coordination
1 1 -15.5235 -0.925692 -7.83934 13
2 1 -5.53964 -12.0281 -10.1057 20
3 1 -2.00604 7.612 12.3616 25
4 1 5.3871 -14.9663 8.88302 16
5 1 -14.7699 4.30803 -2.03679 14
6 1 8.3763 -14.258 -8.84182 14
7 1 -11.9397 -4.45789 -4.8023 21
8 1 0.592233 -15.0103 12.3683 16
9 1 -12.2046 -3.59391 -12.4169 14
10 1 -17.4265 -13.4605 7.18647 10
11 1 13.0688 -5.08401 -5.91685 10
12 1 -3.99587 -20.6331 4.86626 23
13 1 -17.0609 -13.9956 3.66331 14
14 1 2.03799 -1.55933 17.8995 22
15 1 -3.66615 4.24695 -7.98952 18
16 1 -1.00776 -4.35395 15.6379 20
17 1 -10.6939 -9.0895 -12.9728 17
18 1 -13.7369 -9.37511 13.0742 13
19 1 9.95482 2.87158 2.6582 22
20 1 1.25716 6.35464 -11.5086 14
21 1 1.21018 1.67737 -14.0849 14
22 1 12.7965 -1.64357 12.458 16
23 1 -18.8444 -1.27089 -7.66038 8
24 1 -12.9778 5.98978 11.1467 9
25 1 6.25451 -17.435 7.58786 14
26 1 0.574548 -17.1763 -9.13862 17
27 1 6.36233 -19.7947 1.87806 13
28 1 -9.7597 -18.1653 -1.2923 19
29 1 -13.9902 -13.9462 12.1133 10
30 1 -2.95181 -15.5035 -5.6988 20
31 1 8.16429 -15.5028 -11.7319 12
32 1 -4.94309 1.4501 -14.2674 16
33 1 -2.85898 -2.28519 12.2005 23
34 1 -1.86208 -17.6992 9.52162 21
35 1 2.11928 -9.17609 14.5641 16
36 1 -14.1273 -7.87345 2.07566 20
37 1 -18.8649 -6.7915 9.82561 13
38 1 -7.16436 5.58385 -1.46616 22
39 1 -1.97181 -18.3924 -10.795 13
40 1 2.94011 -10.178 -9.15498 23
41 1 -0.543558 -9.94731 12.3763 22
42 1 -14.1481 -1.03098 0.989386 20
43 1 2.26017 3.64906 -9.0699 19
44 1 0.301133 8.60245 7.36853 24
45 1 -15.0996 4.10827 -6.6975 11
46 1 -4.53679 6.29231 0.746977 21
47 1 0.667702 -18.0293 4.64381 20
48 1 3.05032 -14.603 -2.45569 21
49 1 5.7542 -12.8697 -16.4676 10
50 1 -7.26235 4.9542 15.2845 12
51 1 -13.8857 -10.7972 -9.93287 14
52 1 -9.80076 0.00731297 -2.79818 19
53 1 -10.4262 -13.3747 3.09582 22
54 1 -2.08115 13.0439 13.7659 8
55 1 -14.6514 -2.9642 -5.98792 21
56 1 -5.08179 2.64206 14.9622 19
57 1 -5.87908 -21.0117 9.70962 16
58 1 2.54337 -19.9614 -3.31759 16
59 1 6.43954 6.85823 14.1024 11
60 1 -15.0894 -7.17413 -10.919 13
61 1 -12.4605 -0.379039 -7.90432 19
62 1 3.3499 -0.251287 14.7245 22
63 1 9.8222 -10.9218 -10.0423 11
64 1 7.15947 -16.8047 4.70927 14
65 1 -18.3346 -7.53609 6.41478 15
66 1 4.77658 11.574 8.08237 10
67 1 2.75842 -6.03284 14.9524 19
68 1 -10.6873 -18.679 9.26639 14
69 1 11.14 -1.68692 7.19516 18
70 1 -5.17814 8.90989 11.6159 19
71 1 -10.6068 -16.6215 -7.38864 9
72 1 -12.2092 2.1348 8.53364 21
73 1 -12.2095 3.47134 0.152032 22
74 1 -6.49607 0.297978 -8.09757 19
75 1 6.76953 7.38838 -6.69497 15
76 1 5.85066 -12.7359 11.05 12
77 1 -6.73756 8.6035 -3.8126 13
78 1 -11.3324 4.49192 6.69578 21
79 1 -11.6037 -10.4616 14.9537 11
80 1 -8.1216 -13.2849 11.4123 21
81 1 9.79648 -12.9998 -4.41777 16
82 1 -13.9154 -2.27005 8.99703 19
83 1 -15.341 -19.1241 1.24987 11
84 1 10.9698 -15.451 0.91204 9
85 1 -0.166751 -3.95916 -10.838 22
86 1 -6.8296 -5.85464 -16.0947 10
87 1 -3.58851 6.55399 3.8957 19
88 1 -14.6694 2.18612 -4.30813 17
89 1 -1.48092 3.82938 17.7085 14
90 1 -5.4498 6.64933 -8.18625 17
91 1 -13.5256 6.29394 4.45754 16
92 1 -5.27308 -12.6663 10.4945 18
93 1 14.3001 -6.54333 8.79702 12
94 1 2.57567 -10.2721 -5.38425 22
95 1 1.47903 -4.39471 17.391 20
96 1 -11.9852 -10.0993 -1.64044 19
97 1 -11.3677 -12.4938 -3.2122 18
98 1 8.33004 -14.7578 6.9905 14
99 1 4.45568 -2.94993 -11.8057 14
100 1 5.73804 9.56725 -1.21469 15
101 1 -7.3257 -18.1585 9.47782 17
102 1 -11.7587 -17.9947 6.55432 13
103 1 3.47899 -18.2267 -14.2489 10
104 1 5.78568 -14.2642 2.34812 21
105 1 -2.85376 -20.8827 10.1492 12
106 1 -10.7664 -12.4609 0.0395353 22
107 1 13.8862 -4.61698 12.0537 12
108 1 9.25637 -9.89783 -4.52337 21
109 1 -17.097 -7.92876 3.42897 17
110 1 8.24134 0.721484 7.11731 20
111 1 10.7152 4.82471 4.27563 17
112 1 -8.7278 -1.10406 17.8588 10
113 1 -3.21483 9.95975 14.0485 16
114 1 -8.36558 6.61815 -6.04126 17
115 1 -2.18446 -12.8281 -7.06059 17
116 1 8.157 -17.529 -9.8305 11
117 1 -2.8163 7.87649 -8.2712 16
118 1 7.4222 -10.2672 13.6548 10
119 1 2.46147 -8.00274 -15.232 14
120 1 -6.1071 3.27557 -6.17353 16
121 1 10.4869 -4.59604 -1.96762 19
122 1 -16.7638 4.31722 -4.63217 9
123 1 -6.52776 9.01264 -0.701995 17
124 1 3.71866 -5.76168 -12.8182 21
125 1 5.56852 -14.0327 5.28231 20
126 1 -7.4659 7.72469 10.3332 14
127 1 14.4342 4.98455 -7.37851 7
128 1 6.42152 4.77361 -5.27669 21
129 1 -3.59739 8.54236 0.881025 19
130 1 10.5434 6.94507 -1.81457 14
131 1 -5.22672 5.22441 -4.81799 19
132 1 -0.101618 8.09115 -6.3181 16
133 1 -0.471598 4.99751 -13.8939 10
134 1 -18.0857 -16.4385 5.93692 9
135 1 -15.5954 2.2001 0.513269 21
136 1 -5.86168 -8.50186 -10.6899 16
137 1 -1.89964 -15.7216 -14.6541 11
138 1 4.03779 6.57097 11.1691 22
139 1 -1.83975 10.9878 8.66401 15
140 1 -12.2031 -9.84902 -4.37711 20
141 1 -13.991 7.16783 7.48606 14
142 1 11.767 -6.37739 -0.398782 13
143 1 -15.6415 -2.0262 -10.4523 10
144 1 4.40164 -4.41223 19.2326 15
145 1 5.72661 10.1848 4.7775 14
146 1 -5.67673 3.19469 10.9393 16
147 1 2.69633 -9.28379 -12.4004 20
148 1 -5.32026 11.5327 13.5144 11
149 1 -2.89543 3.44009 -4.65173 20
150 1 -1.15343 -10.7448 14.9755 15
151 1 -10.8645 -13.6207 6.95814 21
152 1 -5.41276 -15.3416 -14.1474 10
153 1 -10.8461 7.64831 -4.68642 12
154 1 -5.40986 -15.8665 5.65402 17
155 1 2.53335 -19.1308 -7.02562 11
156 1 -7.81685 6.81993 -11.9461 9
157 1 -19.0514 -3.41805 10.3015 11
158 1 9.52592 3.71539 -3.76461 19
159 1 -11.2968 0.586742 16.3287 13
160 1 -3.03679 -15.1645 10.7649 20
161 1 -0.499653 11.4937 5.53414 14
162 1 -4.47106 0.337688 9.74953 19
163 1 9.88105 1.22737 15.9915 13
164 1 -8.73675 8.65467 4.9441 15
165 1 10.7799 -10.8091 -7.01585 15
166 1 -7.47778 8.6852 13.7275 10
167 1 5.38769 -11.2811 4.1322 16
168 1 -19.3304 -4.04762 7.27557 11
169 1 -11.3387 -15.8206 4.67603 18
170 1 3.44226 5.47706 14.8357 17
171 1 -16.7808 -6.86214 -2.89556 20
172 1 -3.87745 -18.3463 2.91278 22
173 1 -5.78791 4.1972 7.10919 20
174 1 5.42131 9.54679 11.1208 11
175 1 -13.4999 5.77512 -4.69501 14
176 1 -18.3288 -9.46218 -4.78818 13
177 1 -11.9822 -7.12447 13.4806 20
178 1 -2.7331 -15.18 7.45705 20
179 1 3.51692 -18.2345 6.13827 19
180 1 -16.2885 5.20702 6.1058 10
181 1 12.8022 0.403538 5.78085 13
182 1 -6.2705 -12.0779 -15.4272 12
183 1 1.57262 -3.65672 13.7191 22
184 1 4.63377 -21.318 5.19482 12
185 1 -5.50019 1.03231 -10.7902 17
186 1 2.6397 -18.3333 -10.5144 15
187 1 6.50668 -6.72821 -12.7846 15
188 1 2.66229 3.67226 -12.268 16
189 1 -9.20552 -9.33164 -6.80729 18
190 1 -5.89039 8.57597 -6.68836 14
191 1 -12.5749 -15.8689 9.35762 18
192 1 8.52078 9.06549 -0.775576 13
193 1 -9.49634 -1.77069 14.8619 18
194 1 -9.44054 8.70946 -1.68408 14
195 1 4.29309 -4.9952 12.634 21
196 1 -4.85388 -12.1775 -12.859 19
197 1 -11.0876 5.15309 -6.40297 12
198 1 1.4196 -1.30372 -9.2851 19
199 1 -9.00794 -15.6814 9.80705 23
200 1 -11.6519 -2.17961 6.45962 20
201 1 -8.01245 3.53198 12.6755 17
202 1 0.0992461 -14.9635 -3.93806 22
203 1 -7.49412 -18.4357 1.86371 22
204 1 8.01949 -19.2788 -0.931019 11
205 1 11.7554 2.92015 14.3146 10
206 1 4.48248 5.52217 -10.4241 14
207 1 -15.8644 5.35672 1.31519 10
208 1 -2.03802 2.56444 14.1027 19
209 1 4.05521 -24.2498 2.87795 9
210 1 8.50133 -7.09944 -1.52499 21
211 1 -12.4428 0.739522 5.66433 20
212 1 -14.044 -12.5094 -2.00172 19
213 1 6.57773 -5.13994 -10.1858 16
214 1 -0.179304 -7.11509 14.0957 20
215 1 10.0674 3.4463 -9.2928 11
216 1 -4.5555 -7.06779 -9.21011 20
217 1 -1.09198 -22.1448 5.11891 17
218 1 6.43592 -6.55787 -6.88066 18
219 1 -15.0634 -4.9108 3.46635 21
220 1 2.31436 -22.4281 0.0471158 13
221 1 -11.8573 -11.1417 -7.56048 17
222 1 1.34228 6.79613 0.0160551 18
223 1 -1.24322 -6.52208 -14.6802 15
224 1 0.343683 1.30904 17.3689 16
225 1 13.7505 -2.79225 3.30431 12
226 1 6.14382 -11.6786 -9.71406 19
227 1 -8.34248 -7.74688 -11.744 15
228 1 -13.2761 -3.35143 -9.27074 22
229 1 -9.02252 -21.152 9.60286 11
230 1 10.6059 -3.89865 13.4882 19
231 1 -7.35052 -16.7715 -11.6562 10
232 1 -3.62202 -0.777795 -12.7845 22
233 1 -1.16773 6.32737 5.33568 23
234 1 -11.8928 -11.0138 11.8307 17
235 1 -11.5102 -14.3311 -9.6746 11
236 1 -9.35779 -9.84354 -9.52486 19
237 1 -3.14555 4.07002 -15.1909 10
238 1 -7.4941 -18.0126 -8.36385 15
239 1 6.15988 -12.7102 -13.1192 14
240 1 11.3341 -7.66778 -6.2747 21
241 1 8.89453 -0.0819522 2.38382 21
242 1 -12.8698 -8.5635 9.9897 21
243 1 -5.68698 -15.6685 1.84642 24
244 1 6.87565 -3.71376 17.3172 20
245 1 -7.55326 -19.8042 7.21567 22
246 1 -0.877519 -18.2396 0.656299 18
247 1 -3.7888 9.70753 -2.08791 16
248 1 2.57787 -4.34998 -9.24797 19
249 1 -7.31873 -10.6854 -12.5044 22
250 1 -11.8071 -16.2166 11.8599 12
251 1 1.99458 3.59455 16.5414 15
252 1 0.15058 -15.0436 -0.262283 22
253 1 -5.70645 -14.9582 -7.8465 18
254 1 -12.3489 -0.00283672 -5.04925 20
255 1 4.81281 1.40086 11.9409 20
256 1 -8.37362 -1.60557 -8.29526 21
257 1 -2.58995 0.662157 -9.34565 18
258 1 5.40113 -17.8094 -8.58318 15
259 1 -4.83195 6.98152 -2.12327 19
260 1 -0.26831 3.56221 7.34685 22
261 1 8.24751 -3.76294 7.55241 17
262 1 -12.4564 -4.8075 8.45176 22
263 1 -6.63201 -10.4902 12.2147 21
264 1 -8.35301 4.28833 5.00307 23
265 1 -0.217428 -9.37648 -10.5622 19
266 1 11.4252 1.52586 -0.597392 19
267 1 5.04473 -16.8431 2.00003 20
268 1 -6.66355 -7.51011 17.6341 12
269 1 -17.8195 -9.64303 8.63968 11
270 1 -0.737329 -20.345 -3.72159 13
271 1 -8.22221 1.94785 16.5805 11
272 1 -13.2227 1.55225 14.088 12
273 1 -16.4424 -8.45567 11.3092 15
274 1 -14.8494 -10.9517 10.0575 17
275 1 11.4774 -10.7534 -0.0159577 16
276 1 -14.225 -13.6158 8.66631 17
277 1 11.5233 -7.98387 -9.2601 12
278 1 7.35638 -18.0933 -3.51345 16
279 1 1.94577 10.2598 -2.03285 13
280 1 -11.81 2.4133 -2.65608 19
281 1 7.735 1.26064 13.5587 23
282 1 5.91122 -14.571 -0.896667 20
283 1 -6.55084 6.81068 4.87224 20
284 1 4.61678 -16.6673 11.1161 9
285 1 10.9417 -10.0535 6.24064 12
286 1 -1.98444 -3.98347 18.6976 16
287 1 -4.75702 11.1558 7.31231 9
288 1 7.1221 1.33647 17.1398 15
289 1 -9.63712 5.21316 -3.10536 22
290 1 0.0663249 -10.2044 -15.2018 15
291 1 5.41399 -18.056 -11.9113 15
292 1 -12.7196 -1.69128 13.9219 21
293 1 -14.1408 -1.88015 4.3711 20
294 1 -8.94901 3.15392 1.82951 22
295 1 6.72945 -7.12834 11.0972 19
296 1 -12.7157 -18.9038 -1.32747 11
297 1 6.54382 -11.7014 8.01012 15
298 1 -8.58253 -15.8363 13.2282 10
299 1 -14.2676 3.70641 3.24589 21
300 1 1.21449 -17.7188 -2.28753 19
301 1 -8.01093 -6.87385 -8.34778 22
302 1 5.74262 -10.0169 -14.7726 15
303 1 2.62057 9.91442 5.81326 17
304 1 -14.1204 -7.57531 -5.11768 19
305 1 3.6486 -14.125 -16.3425 11
306 1 5.88241 -0.809163 -10.8352 15
307 1 -6.6188 -20.7675 -4.57065 9
308 1 -15.029 -12.835 -4.44407 11
309 1 8.14238 3.65976 15.1844 15
310 1 9.4272 -1.61449 -1.20882 19
311 1 -11.0409 -3.02955 -7.0765 21
312 1 4.48448 5.96439 7.28751 17
313 1 -18.7956 -8.4244 -1.87907 11
314 1 -9.54429 1.4689 6.9942 20
315 1 -12.9829 6.9637 1.64613 15
316 1 7.98133 -1.36099 18.6009 11
317 1 9.202 -6.35884 -4.37964 22
318 1 2.4551 -8.04632 17.3618 15
319 1 7.80435 -3.52376 -6.62406 19
320 1 -6.90919 -20.4627 -1.1567 15
321 1 3.07314 -14.2119 0.970341 21
322 1 7.91773 -4.05101 10.9995 16
323 1 -14.0233 -7.38615 -1.48306 19
324 1 -9.04602 -15.2399 0.330704 20
325 1 -9.04393 -13.0757 15.6137 9
326 1 -7.26255 6.43907 1.88405 20
327 1 -14.9852 -14.9512 -1.27826 13
328 1 5.66726 4.25129 16.612 14
329 1 -12.8347 0.0051661 -1.21563 17
330 1 -0.744426 5.49758 -8.61611 16
331 1 0.745949 6.08575 10.8484 22
332 1 -16.8344 -13.0186 0.483679 15
333 1 -5.4431 -12.3884 -6.28838 19
334 1 -14.8078 -7.92759 5.0601 19
335 1 -16.7481 -1.65623 -3.90844 15
336 1 2.51556 -15.2693 7.34404 21
337 1 -9.38933 -20.642 0.153526 13
338 1 9.82156 3.8182 9.00357 17
339 1 5.61344 2.85733 -11.3686 14
340 1 -18.0198 -3.34204 -9.50286 11
341 1 -5.88823 9.09665 -9.71667 10
342 1 -16.794 1.28041 -2.463 13
343 1 -2.50805 -17.732 5.70528 21
344 1 9.12214 -1.52999 5.5311 18
345 1 -2.63904 2.07618 -12.6252 17
346 1 -16.4493 -2.72516 5.19251 16
347 1 -9.8741 -19.0348 4.58105 20
348 1 4.06432 -12.4527 -7.37663 17
349 1 -15.1652 -4.91839 6.30248 19
350 1 -16.905 -5.43869 12.2899 15
351 1 -15.1545 0.676055 8.1872 16
352 1 -12.5795 -0.672929 -10.9504 12
353 1 5.73692 -15.5623 -4.11305 20
354 1 0.363954 -11.7195 -12.2611 21
355 1 -5.62959 -7.7736 14.3495 19
356 1 -6.19565 -1.16113 -15.0982 12
357 1 1.36628 -21.2071 3.30912 21
358 1 -0.714357 5.19416 -5.6332 16
359 1 -14.0249 4.49209 8.85501 14
360 1 -9.05268 -6.47745 15.9368 19
361 1 -10.6579 -11.5309 -11.6194 16
362 1 -7.92907 -13.5413 8.5647 20
363 1 8.32497 -9.28308 8.66925 17
364 1 9.02937 -6.43493 9.39789 18
365 1 13.4117 1.48138 -6.21211 10
366 1 -5.83781 -2.34294 13.7354 25
367 1 -1.08527 6.94271 1.92406 18
368 1 -7.56372 -17.0706 -2.46612 19
369 1 -5.54212 -0.198321 16.49 19
370 1 -5.69387 11.8255 9.8569 8
371 1 -10.1038 -12.9602 -5.26122 17
372 1 6.32107 10.1201 1.66217 14
373 1 1.80186 0.384235 10.3702 19
374 1 -9.55659 -3.77479 10.2206 23
375 1 -13.8057 -0.118645 11.1846 20
376 1 -7.71856 -13.7689 -4.24428 20
377 1 -8.96152 3.66434 8.50995 17
378 1 -5.28078 -15.8192 -4.34933 20
379 1 0.95295 -14.0881 -13.9565 17
380 1 -6.38604 -18.233 4.66211 20
381 1 8.97779 -1.47323 12.5131 20
382 1 -7.65174 -10.1007 15.4806 16
383 1 -10.0067 1.24324 -8.98377 16
384 1 7.90185 1.8505 0.678061 18
385 1 -10.7237 -22.0479 3.27962 11
386 1 -2.79608 10.6034 3.01651 13
387 1 -3.26001 4.772 12.1109 19
388 1 -18.4584 -6.9118 -5.82788 8
389 1 -0.981015 10.0206 -0.0361678 15
390 1 3.34895 4.15937 -4.38027 18
391 1 -7.91672 -12.5552 -7.68327 14
392 1 1.64371 -7.57584 19.9808 5
393 1 -0.0667782 -14.8205 -7.47905 20
394 1 -3.134 -10.2889 -9.15279 21
395 1 6.45577 -19.3864 4.73449 12
396 1 -14.2177 3.29095 6.19617 16
397 1 -1.23273 -1.70051 17.5336 19
398 1 6.26879 3.63741 -2.27397 21
399 1 -8.41387 2.55233 -11.0892 14
400 1 -16.8426 -8.30214 0.514539 19
401 1 1.32742 11.4867 8.77775 15
402 1 -7.49387 -1.96036 -11.7504 16
403 1 7.13407 2.27562 4.31891 19
404 1 3.89866 8.13562 -5.42137 16
405 1 12.0298 -0.489756 2.31695 19
406 1 -2.59046 -4.53401 -9.43063 20
407 1 0.372446 -17.5374 7.60746 21
408 1 3.19054 -14.0249 10.6073 18
409 1 -12.9608 -5.42572 -7.13192 19
410 1 -16.2489 -18.1788 4.49399 10
411 1 -1.62952 -18.5108 -7.2794 18
412 1 6.14845 8.67965 8.14659 14
413 1 2.48655 -0.760947 -11.6322 20
414 1 -0.856397 -6.85102 17.8886 12
415 1 -15.3852 -3.34954 11.9643 19
416 1 -3.32071 -22.343 2.58403 15
417 1 -14.8754 -11.2444 3.7071 20
418 1 12.3936 -11.3317 -3.94143 11
419 1 8.92599 -6.43568 2.21865 20
420 1 1.09214 -12.0642 -6.07531 23
421 1 1.93404 -3.26994 -13.2449 17
422 1 8.24614 -8.4813 -6.62996 22
423 1 -8.65607 -4.68945 18.1817 10
424 1 4.36293 7.81866 -0.348126 20
425 1 -3.73708 -9.87119 -14.8983 11
426 1 4.68188 -4.33596 -15.1257 12
427 1 -9.70358 -9.43524 10.1562 17
428 1 -5.79433 10.8957 1.09684 11
429 1 -7.60973 -8.81075 -14.4325 16
430 1 -18.109 -5.2619 4.00384 17
431 1 -0.360174 -17.1699 -12.5453 16
432 1 -5.9154 -15.9062 11.5722 14
433 1 -0.25508 2.51675 -7.24098 19
434 1 14.0998 -3.57855 9.60646 14
435 1 15.2461 0.343842 2.78852 10
436 1 -12.196 -20.5963 0.896322 12
437 1 -1.50883 -12.5156 -15.0297 10
438 1 -10.008 7.78349 12.1298 7
439 1 11.2977 -8.48295 2.43503 12
440 1 1.79649 10.2249 -5.26065 12
441 1 12.8985 -1.51084 -3.1783 11
442 1 -1.991 5.47871 15.2266 19
443 1 -16.3219 -4.97466 9.27024 20
444 1 2.44356 9.17673 12.4531 17
445 1 4.95049 -7.28748 19.1483 10
446 1 -4.7205 -3.84339 -11.2778 17
447 1 -4.14875 -5.17193 17.1013 19
448 1 2.38043 3.67015 11.6807 18
449 1 7.30336 1.4219 -9.48021 13
450 1 -8.98713 2.52932 -4.30892 19
451 1 -1.63391 7.02379 -1.26781 20
452 1 7.90608 -8.04663 15.0194 13
453 1 8.45429 -2.48882 -10.2192 13
454 1 9.28383 -15.9322 -2.3526 14
455 1 11.97 2.85274 10.498 13
456 1 -18.2208 -11.2117 2.16832 13
457 1 -9.98604 4.7815 -9.91862 10
458 1 -15.0195 -6.8421 14.1023 13
459 1 -8.70991 7.38361 -9.01917 11
460 1 3.30441 -19.5376 -0.110346 19
461 1 3.31125 -7.56005 -7.47414 22
462 1 -2.63792 7.70325 -5.20396 15
463 1 -9.75882 -11.5093 -14.7117 11
464 1 2.48688 -18.7848 2.66181 20
465 1 -14.8598 -10.6593 0.0197918 21
466 1 -1.68065 7.21515 -13.1442 7
467 1 0.231482 10.1959 13.5309 16
468 1 -12.1977 -11.1286 8.45248 21
469 1 3.15756 -14.5226 -9.12057 17
470 1 0.496862 -12.7606 14.765 12
471 1 -12.6089 1.05859 2.20089 18
472 1 4.87011 -0.939285 19.8644 13
473 1 5.41928 10.5975 -5.00126 8
474 1 8.26794 -10.7185 -1.99316 21
475 1 0.108018 4.81631 13.2088 17
476 1 -1.69337 0.684613 -15.5061 12
477 1 -4.29643 -18.4526 10.9952 17
478 1 4.96275 -7.49434 -15.4303 12
479 1 -3.04837 9.24026 5.73747 16
480 1 11.4443 -2.30294 -10.8824 11
481 1 -5.17534 -7.41674 -12.9582 21
482 1 -5.75276 -15.1148 -1.12514 21
483 1 -13.417 -9.94982 -12.7487 10
484 1 11.2673 -4.17497 4.76434 15
485 1 13.7045 -4.00034 -2.53697 10
486 1 7.77488 -11.9479 -7.3807 18
487 1 8.0119 1.21042 10.3759 21
488 1 4.43669 -17.2448 -2.03186 19
489 1 0.404477 -0.737009 -13.8887 15
490 1 7.52142 8.09856 4.99979 15
491 1 9.14711 4.0524 12.2838 15
492 1 7.96111 0.911097 -2.68215 18
493 1 10.9713 -11.8814 3.07492 11
494 1 12.4065 -1.49754 -7.94164 9
495 1 5.62061 -6.37744 16.277 21
496 1 13.4948 0.896908 16.5828 5
497 1 11.9341 4.23107 -2.01542 16
498 1 -2.938 0.530957 16.8772 20
499 1 14.1678 -8.27211 -4.17744 6
500 1 5.5078 -0.619286 16.7808 19
501 1 -10.7403 -7.02263 -5.93682 20
502 1 12.9236 2.49221 3.61762 15
503 1 -12.0718 3.27347 11.7028 17
504 1 6.09914 4.19676 12.5372 19
505 1 12.2921 -1.59849 15.6661 13
506 1 -0.868593 0.250885 12.3956 19
507 1 -0.0457782 11.7671 10.8992 12
508 1 -0.63779 -23.1167 2.00942 13
509 1 -9.37622 2.88247 -1.23192 22
510 1 13.4904 8.20157 -8.34114 4
511 1 5.76392 -9.40015 -11.6161 15
512 1 2.52871 11.176 0.430217 10
513 1 -4.87618 -17.9052 -6.43847 21
514 1 3.10072 -15.6475 -12.2641 19
515 1 -17.667 -1.41456 8.00962 13
516 1 -12.2133 2.56192 -6.52187 16
517 1 -5.81931 -23.3191 5.17753 9
518 1 -10.6058 -2.11938 -10.2769 19
519 1 -14.5441 -4.44135 -3.30342 20
520 1 10.8549 -13.4023 6.01412 10
521 1 7.45067 5.59844 2.98872 21
522 1 -0.258603 -15.0922 9.5422 22
523 1 -18.1404 -9.82414 -7.83601 6
524 1 -0.899518 -4.23892 -17.936 9
525 1 -4.24607 1.93663 19.2538 9
526 1 7.20261 5.134 -9.02828 18
527 1 11.818 -6.49265 10.7656 17
528 1 6.08109 -0.903054 -6.03554 16
529 1 12.307 7.91169 1.93093 7
530 1 1.22946 -17.308 -5.32038 20
531 1 -12.3889 -7.77379 16.4966 11
532 1 11.0709 -4.7698 7.92229 20
533 1 0.42701 7.65973 14.0484 19
534 1 9.44698 5.29033 -6.45428 17
535 1 -12.2946 7.00105 -1.54586 14
536 1 5.346 5.51576 4.48489 18
537 1 -10.7517 -18.0563 1.4502 23
538 1 8.00346 -8.73625 3.86938 17
539 1 5.57397 7.12847 2.37303 21
540 1 -6.91204 0.3339 12.3969 22
541 1 -13.4223 -13.5459 1.52502 21
542 1 -10.4559 -5.68138 -10.1969 18
543 1 4.32621 -8.16037 13.083 21
544 1 -3.0609 -13.4793 15.2322 8
545 1 8.96758 -1.45345 15.5142 18
546 1 -10.1889 6.96625 3.43733 18
547 1 -2.60691 -5.05067 -12.9374 18
548 1 -10.6545 -6.30676 11.0231 20
549 1 8.16935 -8.26367 -9.6654 21
550 1 8.44006 -15.2767 -5.98264 13
551 1 6.10967 -1.15896 10.4238 18
552 1 -11.4273 -4.69373 15.9667 15
553 1 5.79113 3.8119 9.58165 16
554 1 -2.97091 -7.61012 15.3186 18
555 1 -4.06345 0.198344 13.5849 20
556 1 -2.26683 -9.18315 -12.9631 20
557 1 -8.72342 -1.92814 11.8549 21
558 1 5.96395 -2.26804 14.091 21
559 1 -13.1263 -19.1819 4.00437 14
560 1 14.3647 2.43715 0.175823 9
561 1 4.50365 -18.4007 -5.20292 17
562 1 2.92252 4.27995 2.33589 20
563 1 8.91608 9.08294 2.89332 15
564 1 2.61082 -5.42554 -17.6243 8
565 1 2.08109 7.43389 -2.59576 21
566 1 9.34311 3.70418 -0.184661 22
567 1 -11.874 -15.6567 -0.86056 22
568 1 -4.38318 -7.28204 -15.9667 10
569 1 -11.998 8.57303 4.74874 13
570 1 3.3343 -12.7452 -11.3838 19
571 1 12.3992 1.02163 -9.39453 11
572 1 11.9054 5.10487 -4.63193 13
573 1 10.1568 -4.66483 16.4531 10
574 1 5.05099 -9.44825 16.4512 14
575 1 -1.65784 -17.1413 12.7117 10
576 1 -4.49988 6.01874 -13.4947 10
577 1 -3.36901 7.46592 10.0952 18
578 1 6.53879 -15.6562 -14.4061 11
579 1 7.56535 8.18397 -3.69185 14
580 1 1.82338 5.98375 8.04554 18
581 1 11.1038 -13.4403 -1.46223 13
582 1 3.74043 1.32504 18.023 17
583 1 -15.0716 -7.27714 8.06518 19
584 1 -1.04277 -19.886 3.40103 24
585 1 -10.8411 8.18416 7.54333 15
586 1 2.46902 3.80348 5.96529 18
587 1 -14.2206 -10.8869 6.32076 17
588 1 -3.00405 -2.47016 15.2348 25
589 1 -6.62381 3.78864 -13.5527 13
590 1 -8.04958 0.699138 -13.3954 13
591 1 2.39159 -16.7904 0.172888 18
592 1 4.74648 1.49143 -3.92091 20
593 1 -15.5069 -0.378694 13.8766 10
594 1 0.61322 -6.64335 -12.8042 18
595 1 1.26348 -17.9986 10.9332 14
596 1 -0.132994 8.84007 4.79996 16
597 1 -6.14013 -3.32798 17.1097 18
598 1 -10.3162 -14.493 -12.6658 11
599 1 -3.84818 -15.2744 -11.6983 18
600 1 -8.53668 -17.0984 -5.19108 15
601 1 -0.174358 10.3749 -8.15022 6
602 1 -5.77494 6.68966 8.58329 16
603 1 2.54726 -14.6236 -5.82337 19
604 1 4.58115 -21.3325 2.13224 17
605 1 1.05082 -11.7612 10.5679 20
606 1 11.0335 -3.39529 -5.03619 17
607 1 -3.43482 -20.9223 -5.96055 13
608 1 -13.5878 -5.84187 11.1401 21
609 1 -5.61321 -20.8633 1.45206 16
610 1 -9.51273 -14.8929 -2.49292 21
611 1 -12.2658 -3.25975 11.5832 19
612 1 -7.59128 -20.8718 4.28627 20
613 1 13.8308 -1.20209 -0.150022 11
614 1 -5.56428 9.91046 4.10709 14
615 1 -17.2564 3.0248 3.4407 11
616 1 9.41455 -6.31973 6.1364 17
617 1 -15.2404 -8.79926 -8.12515 15
618 1 5.2898 -3.46723 -8.61108 19
619 1 7.56513 6.45056 10.9974 16
620 1 -16.1337 -5.33559 -8.17281 17
621 1 -14.921 -10.7324 -6.31164 18
622 1 -0.626826 -1.39343 20.3475 9
623 1 4.31998 0.832833 -13.4847 10
624 1 8.55477 6.6355 7.86107 11
625 1 -6.96422 -4.75184 12.0231 20
626 1 -3.3436 -20.3456 -0.498929 17
627 1 -7.56827 -22.6827 7.23154 13
628 1 11.1073 1.54802 8.22724 20
629 1 -0.0045474 -11.9996 -9.31181 19
630 1 -11.6661 -11.8354 4.8788 20
631 1 9.74319 0.29366 -10.7373 10
632 1 -3.51575 -22.2255 -3.57116 9
633 1 -0.321609 -21.1555 -0.711487 14
634 1 -4.78941 -18.4525 -2.73658 18
635 1 3.8019 -1.24076 -7.62433 21
636 1 3.59188 9.41947 2.69991 17
637 1 -8.24448 -4.14602 -9.92826 16
638 1 -3.91503 -4.90383 13.5358 23
639 1 -0.854429 -0.78223 -11.1964 19
640 1 -12.9285 -6.74729 -13.3464 11
641 1 -15.2819 -9.59555 -3.05586 19
642 1 -0.415875 9.21001 -3.14112 15
643 1 -7.43665 -13.8236 -12.8875 17
644 1 8.05445 2.19322 -6.02904 19
645 1 8.79953 -12.7862 0.81935 20
646 1 -10.485 3.58443 14.6311 13
647 1 2.90612 -15.6657 4.07878 22
648 1 8.58153 -14.3465 3.37269 15
649 1 10.6417 -7.14922 13.936 10
650 1 -3.40249 3.46496 9.03647 20
651 1 -14.5618 -3.86442 14.9455 12
652 1 -9.49013 1.14681 10.3283 20
653 1 -4.32806 -19.3181 7.8183 21
654 1 4.40853 2.05988 14.8911 22
655 1 -18.3846 -5.98136 0.608586 13
656 1 6.61991 -12.54 -3.28526 16
657 1 -10.0291 5.62228 0.53491 19
658 1 1.58846 -20.6431 6.25226 18
659 1 4.06131 -3.32726 15.8662 21
660 1 -3.42246 5.94699 6.86482 19
661 1 -0.206526 -14.9874 5.74731 19
662 1 0.639287 -1.12874 14.7361 20
663 1 -17.574 -11.1693 -1.9282 14
664 1 0.622771 6.32511 17.6542 9
665 1 2.19383 6.58869 4.42945 19
666 1 -13.7957 -14.2099 4.86899 18
667 1 -3.95881 -22.569 7.36114 13
668 1 3.58141 -11.2935 8.89739 17
669 1 10.113 -11.4105 8.95612 9
670 1 4.83139 1.10299 8.72804 17
671 1 -2.13534 -15.8958 -8.54091 23
672 1 -6.50155 -3.94942 -13.4846 17
673 1 -6.64379 -5.56971 14.7997 21
674 1 2.52603 11.9891 3.71802 9
675 1 14.7455 -3.10784 6.72672 8
676 1 2.50221 1.5863 -6.19207 19
677 1 -4.68054 4.90405 17.1477 11
678 1 1.24389 2.19991 13.9809 20
679 1 4.48028 -7.12017 -9.92341 22
680 1 -14.0571 -16.2289 1.66116 17
681 1 11.3936 -8.28067 8.66739 18
682 1 0.768634 -6.53868 -9.00311 21
683 1 -3.83623 -1.72809 18.672 14
684 1 7.55329 -18.2089 -6.63035 13
685 1 1.71219 -2.75648 -16.4849 9
686 1 12.1936 -4.79233 -8.87279 12
687 1 12.2021 -5.76832 2.33782 12
688 1 -3.94661 -10.3025 13.8102 19
689 1 -5.13386 -17.0742 -9.86796 18
690 1 5.1856 6.09881 -2.90016 17
691 1 -16.8244 -0.163026 2.75183 15
692 1 9.15104 -1.02805 -4.98337 15
693 1 12.6365 3.87855 6.93203 10
694 1 -2.63686 -12.3243 -11.0187 16
695 1 -8.27837 6.1864 7.56686 20
696 1 15.019 -2.83766 14.7996 6
697 1 11.6717 3.39677 -6.95312 16
698 1 -1.26086 -2.79686 -14.2795 20
699 1 8.27579 -9.22789 0.936834 23
700 1 -15.1369 -5.33613 0.306395 21
701 1 7.53002 4.40297 6.46382 20
702 1 -17.182 -16.2426 2.07391 12
703 1 -17.2794 1.20392 -5.71466 11
704 1 3.38297 -1.75453 12.152 21
705 1 -12.205 -8.30946 -8.49414 18
706 1 -11.6957 -0.592716 9.39416 19
707 1 5.88209 -14.9966 -7.17634 18
708 1 -13.4217 -13.6337 -6.93714 9
709 1 8.12842 -16.5398 0.751297 16
710 1 -16.528 -3.24576 1.8581 19
711 1 8.83939 -0.917482 9.09716 25
712 1 -8.20469 -15.9413 6.64602 17
713 1 7.23045 -4.20934 20.1161 9
714 1 9.49162 -8.82935 11.4478 15
715 1 -16.2441 0.283833 5.68218 14
716 1 -1.3323 6.08147 8.83127 24
717 1 3.36093 1.41033 -9.60181 20
718 1 2.53216 -11.9796 -14.6439 17
719 1 -7.92459 9.82457 7.97528 11
720 1 -14.9778 -16.2674 7.58127 13
721 1 10.054 8.37015 -7.25264 7
722 1 -1.62358 8.34882 16.1149 14
723 1 11.0813 -8.34546 -2.98956 19
724 1 3.24225 -11.9898 12.7323 18
725 1 -3.99082 6.20632 -10.4885 14
726 1 1.97723 6.45562 -8.11269 15
727 1 -8.32465 -7.55179 12.5804 18
728 1 12.7176 -0.529706 9.76959 14
729 1 -6.17888 -9.87205 -7.91854 20
730 1 7.30262 6.63262 -0.264623 21
731 1 -17.4417 -3.89522 -1.6159 14
732 1 -5.51666 -15.863 8.82249 21
733 1 4.42974 5.47906 -7.08547 18
734 1 2.19944 -8.55703 11.7841 19
735 1 -4.60137 -18.0364 -0.0588338 20
736 1 -9.13696 9.26383 1.47909 12
737 1 -16.7689 -0.772455 -0.314843 15
738 1 9.818 -5.39927 -7.5318 23
739 1 -0.0709384 -14.7092 -10.8916 23
740 1 -11.2415 3.18832 3.77597 19
741 1 11.2559 1.44069 -4.00694 16
742 1 3.3519 -10.3242 -17.048 12
743 1 -8.36643 -15.4778 -9.77088 16
744 1 -1.81627 -17.9467 -4.18478 17
745 1 -4.93288 7.53433 14.8784 17
746 1 5.018 -21.4772 -1.48156 12
747 1 -6.19694 4.46379 -10.3996 16
748 1 8.14534 -3.64064 -3.90617 18
749 1 5.91851 4.09632 0.825431 19
750 1 -3.26102 -23.6476 -0.135649 9
751 1 1.23738 -16.5737 -15.8326 10
752 1 10.3421 -3.16222 1.53766 17
753 1 -4.57941 -1.61144 -9.28191 21
754 1 -1.8238 -12.8844 12.2136 23
755 1 5.04735 2.28026 -7.24008 22
756 1 -14.1816 -1.94799 -2.26383 20
757 1 -16.9776 -0.794001 10.781 14
758 1 2.20365 -2.71252 20.7324 10
759 1 -11.3719 -13.2059 10.1243 20
760 1 -0.674613 3.02466 10.7087 21
761 1 -1.50924 -20.0933 7.05435 22
762 1 2.8608 4.53529 -1.25495 22
763 1 -5.5008 5.969 12.1147 19
764 1 -10.0664 -4.56417 13.3651 20
765 1 -10.877 5.82828 9.44721 18
766 1 -5.9577 -12.0466 14.4476 11
767 1 3.40079 -17.7351 8.93345 15
768 1 10.5041 0.826405 11.9747 19
769 1 5.61241 -9.53009 -3.91772 20
770 1 5.5484 -15.0639 -10.3887 22
771 1 -9.63048 -5.79179 -13.6652 14
772 1 -3.52276 -3.89197 -15.3682 14
773 1 3.13516 8.46059 9.09048 21
774 1 -10.4409 -13.4822 13.2123 16
775 1 -9.63367 0.362565 -6.31851 19
776 1 -17.9974 -3.84487 -6.18732 12
777 1 10.1702 6.17101 1.34393 18
778 1 -10.4997 -21.4379 6.84786 14
779 1 10.4438 1.61975 4.9719 22
780 1 -11.617 -16.254 -3.81234 14
781 1 0.180877 9.07412 10.3135 22
782 1 -9.60926 -9.0169 17.7445 9
783 1 -4.44579 -19.8085 -8.84857 11
784 1 11.2255 -3.11004 10.4661 20
785 1 1.87007 -23.2954 5.25247 11
786 1 3.15477 8.16699 15.2655 9
787 1 9.63742 -5.34942 -10.6741 14
788 1 6.22992 -11.3335 0.704662 19
789 1 -2.0593 -7.20327 -10.6562 21
790 1 -15.3294 -4.50634 -11.7426 11
791 1 -9.92283 -1.92384 -13.9145 12
792 1 -10.228 0.953284 12.9146 20
793 1 6.90111 -4.84752 13.8495 19
794 1 -8.83661 -16.5113 3.25485 17
795 1 12.4502 -7.03495 5.5433 12
796 1 0.339394 2.02472 -11.0846 18
797 1 12.3539 4.57318 0.74999 17
798 1 -3.14902 11.1103 11.2219 15
799 1 -17.3692 -10.5947 5.29089 16
800 1 6.24203 -20.7791 -4.11819 10
801 2 -11.301 -6.88085 -9.12612 14
802 2 -10.1918 3.42849 -2.78871 17
803 2 -2.80345 -6.38925 -9.13115 22
804 2 -8.3878 1.74884 11.9921 20
805 2 3.97176 -14.5932 -7.15498 20
806 2 -8.08927 -10.5655 -7.74521 17
807 2 -0.774372 -2.3494 15.3208 21
808 2 3.2163 -7.90395 18.9346 10
809 2 -13.5559 -14.9154 0.0911132 17
810 2 -14.5741 -2.36688 -4.03887 16
811 2 1.42931 11.3488 4.90213 13
812 2 -14.6928 -3.53769 4.92066 19
813 2 0.857118 9.99601 -6.78223 12
814 2 8.46922 -1.37088 3.96965 21
815 2 -0.998812 8.61054 -4.7206 17
816 2 11.4745 5.29948 -6.44577 16
817 2 -14.6914 -9.24212 -11.175 11
818 2 -12.3717 -12.9441 -8.44122 14
819 2 -0.221802 -4.83865 13.5945 22
820 2 6.18428 -5.26293 -8.46947 20
821 2 0.614236 -20.0652 4.51374 19
822 2 -10.3546 3.74357 0.220353 19
823 2 -17.8689 -2.75609 -4.88153 12
824 2 8.14543 -1.2633 7.20231 19
825 2 6.64545 -16.3393 -5.85859 17
826 2 -15.9013 -17.2412 1.47864 12
827 2 -12.3391 -14.3528 8.14182 21
828 2 -5.16905 -19.2865 5.93629 22
829 2 8.23549 -7.99804 10.0614 20
830 2 -3.27411 -19.5205 -7.23633 14
831 2 0.979532 -7.32251 18.1677 10
832 2 -1.94749 1.84439 -7.95448 17
833 2 0.62079 -22.3636 6.1836 12
834 2 -11.9734 -17.265 -2.21992 16
835 2 -3.00754 -1.47484 16.867 20
836 2 -11.5144 1.15432 3.78858 20
837 2 -1.96331 -2.38241 19.3403 13
838 2 -7.13512 3.16132 -4.57733 18
839 2 6.28217 -18.075 3.24673 16
840 2 -7.08689 8.23993 -10.9416 10
841 2 8.73866 4.74049 7.96698 15
842 2 8.85683 7.35304 6.10616 14
843 2 9.98532 -9.01198 -9.77859 14
844 2 -4.72591 3.52571 18.5197 9
845 2 0.536512 -2.30773 -15.0623 15
846 2 -6.7129 2.64331 -10.4953 16
847 2 9.21832 2.03092 -10.0517 12
848 2 -7.76299 -9.11531 17.0379 11
849 2 -15.9702 3.86011 4.58773 15
850 2 8.76336 -7.22483 -8.02458 23
851 2 -10.2556 -15.4225 12.3147 13
852 2 -2.01203 -16.399 -11.9945 18
853 2 -4.61559 -11.3183 -14.7406 15
854 2 -17.4336 -11.9772 3.73552 15
855 2 10.8739 5.10934 -0.242363 17
856 2 -6.57114 3.58474 5.06155 19
857 2 -5.25063 -15.799 -6.3747 21
858 2 -4.94127 11.4752 11.5571 12
859 2 5.48344 -7.90008 17.3413 12
860 2 -0.373608 -11.7716 12.4031 19
861 2 12.3455 2.27797 5.55098 16
862 2 6.21913 5.8553 -7.72173 17
863 2 -14.6586 -0.999994 -0.829009 17
864 2 10.7735 -0.301258 5.90821 20
865 2 7.4068 -18.3762 0.764393 10
866 2 6.51333 -14.3515 -2.67421 20
867 2 -5.69207 8.04816 13.2799 17
868 2 2.58675 -17.6562 4.45845 23