ITEM: TIMESTEP
461000
ITEM: NUMBER OF ATOMS
1500
ITEM: BOX BOUNDS pp pp pp
-30.0 30.0
-30.0 30.0
-30.0 30.0
ITEM: ATOMS id type x y z Coordination
1 1 -5.56079 -6.8433 -6.64041 22
2 1 7.983 -11.3818 6.89421 12
3 1 -12.6428 9.2125 -5.77904 13
4 1 -11.543 1.32803 -8.5769 14
5 1 1.45137 -9.53231 11.9189 14
6 1 -8.26716 3.92015 -10.6533 15
7 1 -3.56756 0.955803 -7.60923 22
8 1 -5.27276 -10.6351 1.65914 22
9 1 -9.99811 -7.24189 1.91308 20
10 1 -0.62826 4.22132 13.6742 12
11 1 5.50181 -5.83056 4.80192 19
12 1 4.15463 6.87889 11.25 19
13 1 6.7548 -1.48518 3.28359 20
14 1 -0.296594 14.2112 -5.87785 14
15 1 1.46293 1.44913 10.8527 22
16 1 11.4639 3.0838 9.05917 13
17 1 1.11702 11.3873 -10.7263 17
18 1 6.16711 5.68324 -13.5168 17
19 1 -5.86094 0.569198 -0.877874 20
20 1 -5.20736 -4.15668 -8.89019 21
21 1 3.13869 -11.5703 6.47083 19
22 1 1.3185 4.68287 11.3028 21
23 1 5.46789 -10.191 1.35454 21
24 1 -6.09205 -15.0598 -5.19631 11
25 1 6.56585 -1.18804 -3.10399 24
26 1 -0.0273257 -11.0525 -12.7439 13
27 1 -0.681042 4.40651 8.49289 19
28 1 0.169077 -12.5262 7.97525 17
29 1 3.39754 -4.40195 13.4578 15
30 1 -8.98936 -0.524323 -0.639419 21
31 1 -10.9552 -1.13441 -3.31051 21
32 1 -1.42837 9.09539 -2.75998 25
33 1 2.73947 4.90109 -5.00414 23
34 1 1.19628 -7.66087 -10.7134 22
35 1 -1.97023 -5.28908 13.431 16
36 1 -10.4413 9.86729 1.81761 21
37 1 -1.82814 11.763 5.67481 22
38 1 -8.21568 6.21938 -8.38285 21
39 1 -3.47539 11.9161 -2.95579 22
40 1 3.55508 -15.7241 0.0161438 12
41 1 5.32099 -8.47496 -7.03383 22
42 1 -11.6768 8.60884 8.05876 15
43 1 -11.9144 -6.49229 -11.0789 9
44 1 4.8179 -2.90966 5.5098 22
45 1 -7.55215 3.37867 -5.05352 19
46 1 -7.26105 -5.72761 1.4466 23
47 1 -11.4432 6.30026 -6.74419 18
48 1 -0.438873 6.65406 -4.36595 23
49 1 1.045 2.30305 2.61414 22
50 1 3.84759 5.75709 6.66824 21
51 1 8.56258 -12.2507 -4.88088 18
52 1 4.76383 8.06004 13.8494 14
53 1 9.60702 -6.49046 -10.2088 13
54 1 6.35144 -14.4623 6.05435 10
55 1 -8.62536 -1.18962 2.65012 23
56 1 6.05745 -1.83142 14.1398 12
57 1 -5.70607 -12.5223 6.73093 11
58 1 -14.3416 -0.426658 1.20443 16
59 1 10.113 1.36756 5.55231 21
60 1 6.0953 -6.10404 -4.97481 21
61 1 -0.356094 10.3254 11.3416 16
62 1 5.73006 -1.04831 8.54612 20
63 1 -6.70154 -2.45433 0.669984 23
64 1 -0.889779 -4.63913 -9.87839 22
65 1 -9.83306 11.0087 -4.97066 14
66 1 -2.12469 12.2705 -9.39647 12
67 1 1.11635 -0.884434 -5.47389 23
68 1 6.0957 -2.73333 -6.34685 22
69 1 2.70086 -7.6547 -0.379825 20
70 1 5.29703 -9.46861 7.60892 17
71 1 -4.91552 13.5595 -7.49075 11
72 1 -12.8259 11.0516 -0.00744984 12
73 1 -3.25653 8.71055 7.36452 23
74 1 -8.04194 -5.03159 12.7274 14
75 1 11.4585 -7.92355 -7.66787 11
76 1 -10.9666 5.94845 5.67145 20
77 1 9.46924 -10.3264 -9.56744 13
78 1 4.48162 -4.30342 -14.3472 15
79 1 -3.06542 -0.741063 -15.0712 12
80 1 2.72923 0.618765 7.9423 18
81 1 -0.91728 11.6216 -0.772305 22
82 1 -11.7672 8.0351 -8.97801 12
83 1 4.02259 13.1471 -10.0561 12
84 1 2.95471 8.42474 5.00563 19
85 1 -0.668229 1.2295 -4.48128 20
86 1 -6.97976 -7.15678 10.0373 14
87 1 2.87042 0.070842 -7.92863 21
88 1 2.76437 -9.71843 -12.9797 15
89 1 -6.61946 4.47196 8.95219 20
90 1 -11.8062 -7.1119 -1.01654 15
91 1 6.22316 -4.39938 -1.62609 24
92 1 -10.7081 -11.1051 -4.16133 16
93 1 11.0114 -11.5437 1.3989 10
94 1 -5.21257 8.40885 1.44864 23
95 1 4.39649 3.15783 -12.2996 23
96 1 -5.78539 5.65193 2.73206 22
97 1 9.02647 8.16247 -6.50217 19
98 1 11.7014 -12.3671 -3.63995 13
99 1 0.572703 -14.2879 5.45965 15
100 1 -8.17698 -6.10197 -1.02879 20
101 1 -15.1337 -0.919945 4.58342 12
102 1 8.76556 7.85301 3.38247 22
103 1 6.95416 4.06226 0.0721272 23
104 1 -7.66108 13.1991 5.85351 11
105 1 -3.6875 11.5971 0.215009 21
106 1 2.07808 -2.28918 -9.73068 26
107 1 5.34042 -3.19604 11.0434 20
108 1 -2.65507 6.47803 -6.9066 23
109 1 9.61474 4.76192 -5.89708 19
110 1 -7.336 8.51365 -4.4178 18
111 1 3.94473 -5.01509 1.04653 21
112 1 -8.66002 13.4147 -2.95612 12
113 1 1.15335 3.10668 -12.0394 23
114 1 6.73747 -12.4293 3.38364 17
115 1 -5.79523 6.37198 -6.02386 21
116 1 -1.81886 3.7146 0.378343 23
117 1 8.86086 10.4239 -4.14094 19
118 1 12.5116 11.9629 1.39177 12
119 1 -4.10263 9.24772 -5.19894 20
120 1 -6.3268 -1.24807 -8.6213 20
121 1 0.557725 13.7051 6.2837 17
122 1 -9.81496 -7.868 -3.12674 18
123 1 12.4394 -0.465746 -4.31775 15
124 1 -2.83216 11.525 8.81016 18
125 1 -6.15007 11.8408 -1.84988 19
126 1 1.94344 -4.56058 10.2127 18
127 1 -12.0643 -5.27248 3.80966 15
128 1 -4.62432 -10.4055 5.05569 19
129 1 6.23631 -12.1871 -2.8051 22
130 1 -2.96645 8.88901 -8.46065 19
131 1 3.22482 11.2357 -5.11322 19
132 1 13.4044 8.79394 -5.03731 11
133 1 -2.25821 -7.72159 7.85859 22
134 1 -8.45259 2.58247 -1.81712 21
135 1 1.05012 13.7664 2.98964 17
136 1 -1.90886 5.75918 11.248 17
137 1 -7.15603 14.4338 -0.525692 12
138 1 -2.3139 1.03307 -10.3296 24
139 1 11.9987 -7.85491 0.885783 15
140 1 -5.99484 -6.05752 4.52434 20
141 1 -14.8121 1.52573 6.44431 15
142 1 -10.2995 -7.79267 4.95388 13
143 1 -13.5127 2.57348 0.0717894 19
144 1 -0.334863 4.74083 3.2172 20
145 1 -2.22574 -15.0772 -1.3329 13
146 1 0.388214 -3.60882 4.04128 20
147 1 -5.36021 -1.98347 -2.86684 21
148 1 4.48048 -6.93599 -3.0113 23
149 1 -5.12752 14.305 5.20206 13
150 1 -7.74894 1.5396 1.14057 21
151 1 -9.38238 -0.0572049 -5.98588 21
152 1 -2.61352 12.0278 -6.09239 20
153 1 -13.036 -7.56031 -8.58474 13
154 1 -10.3792 -0.0330044 10.5135 19
155 1 -0.642112 -11.7133 0.310924 23
156 1 2.93797 -14.3912 7.68006 13
157 1 14.9531 2.18708 4.25639 11
158 1 8.32384 4.11439 -2.97602 22
159 1 10.3257 -1.75096 12.1246 12
160 1 -2.08984 -1.67296 3.24082 23
161 1 -6.62283 6.84061 -12.0256 10
162 1 7.99046 0.400353 -12.1595 14
163 1 -6.2742 -6.55567 -9.88267 19
164 1 0.824691 11.1927 -7.64146 20
165 1 -5.66095 12.4016 -5.08318 14
166 1 5.40608 2.60862 7.67617 22
167 1 -5.28559 -6.8773 -13.1574 17
168 1 -5.26579 10.124 -9.91547 13
169 1 0.410378 8.10686 -9.18009 18
170 1 0.259575 4.30089 5.96518 22
171 1 -8.53552 3.66337 6.31429 21
172 1 -5.29072 10.7709 6.46334 20
173 1 2.04561 -13.7991 -9.10522 12
174 1 -6.25748 -14.9136 1.07592 11
175 1 9.37366 -13.2978 -1.4959 12
176 1 -3.15995 2.76926 6.63147 22
177 1 -5.01164 -0.165754 2.21911 21
178 1 4.65168 -9.86912 -1.46594 22
179 1 6.29595 13.5284 -7.3264 13
180 1 2.39926 10.9259 -1.70437 21
181 1 -9.72688 1.42702 4.53721 21
182 1 -2.85403 8.91488 11.0405 16
183 1 11.0692 1.36364 -1.56684 23
184 1 5.27729 8.13613 8.38958 19
185 1 -13.4428 10.6277 3.16902 13
186 1 -12.2046 -1.49518 -0.314885 24
187 1 5.9126 -0.95127 -14.6303 13
188 1 2.07397 -1.8026 11.4399 21
189 1 6.74684 8.32807 -11.9651 11
190 1 3.44276 -9.33425 -4.774 23
191 1 -1.02163 -1.92087 -11.16 24
192 1 8.41699 -1.10146 -5.61313 24
193 1 -10.1075 -1.75212 5.41712 21
194 1 2.37209 -11.4768 -6.98077 22
195 1 -9.12475 -5.0026 -10.5525 19
196 1 4.3957 13.8957 -1.1292 14
197 1 0.601038 -7.95545 -14.4128 16
198 1 2.56751 2.99289 13.5664 18
199 1 15.1555 2.73187 0.710951 15
200 1 -4.00513 -4.39474 2.0268 20
201 1 7.24297 -7.89435 -9.4446 23
202 1 1.15464 -5.46157 1.44155 20
203 1 -7.75988 -4.64037 -7.51607 23
204 1 -9.47001 -2.22249 -8.58331 22
205 1 10.1278 -3.01779 9.29876 15
206 1 2.6506 -8.67992 9.25099 16
207 1 -5.33099 -9.4084 -11.2945 18
208 1 -0.250928 -7.00482 5.69985 22
209 1 1.91555 3.73488 -14.9216 14
210 1 3.61666 8.9112 1.76226 20
211 1 -5.63324 -4.81248 -1.18878 22
212 1 4.49135 10.9658 3.84155 21
213 1 -7.82787 -2.85525 14.545 13
214 1 -11.3452 -9.47439 -6.87256 15
215 1 -4.31129 -1.51489 -11.2065 23
216 1 -2.65029 -8.68147 -5.50346 23
217 1 -1.89012 -9.48495 2.95242 20
218 1 -5.68688 -8.44342 -0.927707 21
219 1 1.91182 -2.88494 -0.696848 19
220 1 11.2413 2.72471 2.76808 20
221 1 -4.83025 -10.5661 -3.06315 19
222 1 -8.65309 -0.162639 13.2391 14
223 1 -2.27003 -12.2053 -2.19451 21
224 1 1.14126 2.10502 -6.3463 20
225 1 0.861219 -13.3488 -1.34649 20
226 1 0.0296605 11.636 -4.37658 22
227 1 4.1333 1.61537 -15.7851 12
228 1 -4.72539 -3.80507 -15.1264 13
229 1 7.75083 -6.73618 -2.66405 23
230 1 -0.162587 -8.92835 0.476968 21
231 1 -5.12035 -12.1319 -9.59195 15
232 1 -9.68804 3.42584 -7.53624 21
233 1 9.73833 4.6369 5.13097 20
234 1 -6.28646 4.00784 -8.13356 22
235 1 -0.511499 8.99448 -13.4169 12
236 1 -4.12188 -2.45103 6.5209 22
237 1 -3.77453 14.5385 -1.31583 13
238 1 1.25248 10.7686 4.60119 21
239 1 10.2214 -3.25938 2.02929 20
240 1 -6.88865 -0.463692 5.11095 20
241 1 -1.52526 -8.59176 12.8022 14
242 1 -4.12885 11.1537 3.57492 20
243 1 3.34219 -6.78731 -13.2664 21
244 1 3.43263 -13.8481 4.50149 16
245 1 -1.73911 2.39695 11.5532 21
246 1 -10.4628 -4.99772 6.82804 17
247 1 9.56438 -4.01858 -1.24824 23
248 1 5.06811 -5.37363 -8.12367 22
249 1 6.71928 -9.4042 -4.15153 22
250 1 -2.6339 -4.66759 4.55627 22
251 1 -9.50735 8.97476 -6.62426 20
252 1 -0.254638 1.4961 7.75513 23
253 1 9.37784 4.75084 10.7425 14
254 1 -12.5459 0.35632 4.68253 23
255 1 8.84121 -5.28745 -7.44415 18
256 1 -2.56657 6.49986 2.24343 24
257 1 -4.73429 8.1361 4.55762 23
258 1 -1.09569 1.33965 4.45607 22
259 1 2.39454 -11.7549 9.479 16
260 1 10.4928 -8.00711 6.01602 10
261 1 -2.44275 5.95599 5.6545 23
262 1 -4.67589 -4.33801 -4.85482 22
263 1 2.60865 -5.10889 4.32419 19
264 1 -3.54541 3.74625 13.5452 13
265 1 1.65483 10.8589 1.56957 21
266 1 -4.35394 3.69215 -5.87249 22
267 1 -12.2197 2.76409 10.3867 13
268 1 -14.3589 5.17646 1.96453 15
269 1 -3.93967 -4.42154 -11.9913 21
270 1 -7.36456 10.7212 1.46721 22
271 1 7.10649 0.670765 5.74036 19
272 1 -8.16899 -12.298 0.909383 18
273 1 7.22849 -7.65843 6.66894 18
274 1 -4.82598 2.77906 0.925293 23
275 1 -13.2197 8.88127 -2.17482 13
276 1 -3.73186 -5.82313 10.1796 22
277 1 2.97572 -14.3477 -6.05562 17
278 1 -6.45249 -1.40322 -14.0819 13
279 1 6.51192 -6.10281 -12.4071 21
280 1 6.66543 12.927 3.93153 16
281 1 -7.51629 -5.6232 -4.28606 22
282 1 5.6622 -9.43959 -12.389 18
283 1 -3.90874 -14.0118 -7.27363 15
284 1 -14.1569 -5.71924 -2.99112 10
285 1 -2.99643 -9.94144 -0.287192 20
286 1 -4.98781 -7.22684 -3.36758 22
287 1 9.3065 6.37611 -0.729301 22
288 1 -11.5331 4.65462 -9.57518 14
289 1 -11.29 -4.50486 -8.27557 18
290 1 1.90665 -0.847614 5.62561 22
291 1 -10.7125 8.85205 4.61185 21
292 1 -9.6214 12.7667 0.536067 15
293 1 -7.93092 6.71625 5.55981 21
294 1 9.72172 -1.36118 -3.01697 25
295 1 9.71601 1.30451 -9.69455 15
296 1 2.33697 2.50803 5.04998 22
297 1 -2.34388 8.75137 0.466024 21
298 1 0.505774 -5.79597 -6.13898 22
299 1 0.453622 7.7376 6.52641 21
300 1 2.88162 3.08181 -0.408822 20
301 1 -10.5291 2.29232 -4.10242 23
302 1 9.71956 -9.01662 -3.71398 22
303 1 11.5272 -1.49505 6.54958 16
304 1 -10.4934 -3.52096 -5.44027 22
305 1 -7.65857 -9.114 0.731708 20
306 1 -1.61641 8.85841 4.32846 22
307 1 -12.5451 -9.59326 -3.04306 11
308 1 -9.85586 7.21017 -0.422561 19
309 1 0.55397 13.8794 -9.20542 10
310 1 2.88444 13.3611 8.63451 15
311 1 -14.7954 -3.04282 -1.38663 14
312 1 0.114268 -9.43379 -5.30084 23
313 1 -12.484 -0.529366 7.84609 20
314 1 -9.14298 5.38572 -4.9632 20
315 1 6.28448 -9.57364 4.69743 19
316 1 -5.15373 -14.7543 -1.77881 15
317 1 1.99964 7.55775 -14.8948 10
318 1 -10.626 4.90558 -2.43688 20
319 1 -1.31838 -13.9371 3.30579 14
320 1 12.5627 3.88833 5.65319 15
321 1 -3.09373 -0.166478 8.1225 21
322 1 -13.6489 0.0874838 -2.26287 16
323 1 4.26397 -3.53773 -3.72054 20
324 1 -5.93815 1.58958 6.84365 24
325 1 -2.59614 -13.933 6.53794 12
326 1 -2.34432 -5.80415 -7.06948 21
327 1 3.76226 -10.5399 -9.67822 21
328 1 0.380963 -1.60716 8.67699 22
329 1 -14.6797 2.04871 3.07074 16
330 1 -1.78958 -4.42015 7.76843 22
331 1 5.09104 -13.62 -8.55752 16
332 1 -1.05722 -6.21501 -12.3793 20
333 1 -6.82323 -4.02636 9.87603 21
334 1 3.11985 -6.12675 -5.71713 22
335 1 -5.31392 4.4969 -11.5081 18
336 1 4.09061 -13.024 -0.175044 22
337 1 -0.602102 9.28289 -5.99894 21
338 1 -4.98941 -0.665828 14.404 15
339 1 -8.13666 -7.03958 7.1886 15
340 1 6.43047 -4.31716 7.80879 20
341 1 9.99128 1.89773 -4.45224 22
342 1 -6.19696 2.46014 3.80921 24
343 1 4.16878 -0.247632 -4.95392 21
344 1 8.13256 -4.36046 4.62027 21
345 1 1.25118 5.46456 0.871209 21
346 1 12.0356 7.11043 -1.14395 23
347 1 -1.52958 -0.550474 10.6574 20
348 1 2.35245 13.3447 -3.58849 16
349 1 9.40133 -10.9849 4.29166 12
350 1 1.10711 -16.4189 -2.07141 8
351 1 -2.44198 14.6561 7.47232 11
352 1 -9.76842 -12.0903 -7.4514 14
353 1 8.09014 7.39658 9.10501 18
354 1 -4.47247 2.37511 9.46229 17
355 1 -6.8717 -11.9685 -4.68715 19
356 1 -12.103 5.29852 8.23304 20
357 1 -10.8577 -9.69323 -9.99685 13
358 1 -8.45099 9.04074 9.21304 12
359 1 -7.17921 -13.642 -7.37804 15
360 1 -2.62004 -6.62046 -15.1703 11
361 1 -7.19441 -12.4455 3.8504 15
362 1 -5.93634 -3.37876 3.64174 19
363 1 9.51992 -0.950572 3.85856 19
364 1 -5.01246 -4.10286 13.1848 18
365 1 -9.74955 6.83217 -11.1906 12
366 1 12.9337 4.27978 -0.513008 18
367 1 -7.63994 -14.0088 -2.2801 14
368 1 -1.39422 3.8469 -6.30468 23
369 1 -1.55957 14.5789 0.989966 15
370 1 -0.00173529 5.72942 -13.4373 17
371 1 -6.4636 8.15549 12.0041 9
372 1 -11.8437 3.7031 3.80103 21
373 1 8.75355 13.5098 -5.14891 14
374 1 -8.33734 -9.05906 -5.8007 20
375 1 -2.855 -14.5173 -4.33256 15
376 1 1.07859 0.119178 -10.7039 25
377 1 -13.6851 10.0205 6.13211 11
378 1 1.74482 6.15654 14.4875 11
379 1 11.0709 9.96312 -2.06491 19
380 1 2.77891 5.21114 3.78641 20
381 1 -7.87891 11.8721 -7.80879 11
382 1 2.55771 8.11661 -6.7366 19
383 1 1.0739 -8.75558 3.66866 23
384 1 -14.161 -2.35265 -4.31968 11
385 1 4.1184 0.277429 3.76917 21
386 1 -2.03284 3.65616 -12.3421 18
387 1 10.4352 9.39092 1.22043 22
388 1 10.8788 -6.93705 -1.71961 20
389 1 14.1782 2.05879 -2.66937 14
390 1 2.69516 2.61887 -9.39858 23
391 1 0.238718 -13.0387 -4.24866 18
392 1 0.92651 -11.8062 3.39448 19
393 1 4.70301 -9.73146 10.9632 12
394 1 -8.6486 0.977866 -9.48603 19
395 1 5.01435 3.06808 2.27251 19
396 1 -3.31516 -11.6581 -12.2919 11
397 1 -0.102412 3.44919 -9.43359 25
398 1 2.96387 -0.347773 13.5361 15
399 1 -11.8238 -2.24977 2.6318 22
400 1 13.4035 -6.59673 -4.91741 9
401 1 15.1963 -4.12083 -0.731738 11
402 1 0.114643 3.7782 -2.97121 21
403 1 -10.0429 8.15705 -3.2168 22
404 1 2.41674 -8.43728 -7.74292 23
405 1 3.19651 5.90393 -12.8835 23
406 1 11.0537 -3.06769 -5.33163 15
407 1 -9.47206 3.1748 12.7064 14
408 1 4.02511 13.1215 1.87435 18
409 1 0.0849094 -1.5466 -15.2311 14
410 1 6.77148 -4.15714 1.54965 23
411 1 -7.11992 -3.53778 6.55889 22
412 1 -4.95683 13.554 1.80127 17
413 1 -4.25012 1.30857 -12.7333 20
414 1 -15.0617 -1.95958 7.77883 10
415 1 -5.29403 -8.9865 7.70953 19
416 1 3.20089 13.6796 -6.99946 16
417 1 13.9905 5.41991 -3.50702 13
418 1 -10.7798 -12.7308 -1.59284 10
419 1 -1.77103 -9.00571 -2.78682 20
420 1 -4.97313 13.3262 8.2179 12
421 1 1.91738 -5.36831 -8.74567 22
422 1 0.235338 2.24971 -0.155037 19
423 1 12.3673 -3.91433 -2.82756 19
424 1 4.9852 13.352 -4.50801 20
425 1 2.5048 -10.5668 0.940074 22
426 1 6.72788 1.67321 -4.58715 24
427 1 -9.15354 0.501047 7.62823 19
428 1 -3.52597 -1.70702 0.227989 21
429 1 1.93058 12.6297 11.5488 13
430 1 3.9434 -4.17324 -11.1261 23
431 1 -1.63346 -3.09649 -5.28652 19
432 1 -0.798589 -3.7827 11.1036 23
433 1 9.33191 8.78517 6.51768 16
434 1 9.28325 6.69289 -12.251 11
435 1 -6.34646 8.79429 -7.56727 19
436 1 -4.74732 8.92792 -1.9369 20
437 1 11.9276 -0.259973 9.70895 14
438 1 8.0557 3.56471 -11.7237 19
439 1 -12.5795 -4.69448 0.546019 17
440 1 0.789404 7.77072 12.1391 19
441 1 3.69644 10.6684 -8.56217 21
442 1 7.823 -9.68799 -1.07829 26
443 1 6.56293 1.92929 -10.1666 18
444 1 -3.345 14.6031 -4.71677 12
445 1 -6.54228 -4.00239 -12.2874 18
446 1 5.29155 -14.8896 2.50781 12
447 1 -13.2754 -4.91601 -5.74168 15
448 1 -2.54509 4.07144 -3.19443 22
449 1 -11.953 -3.14037 9.36871 14
450 1 4.58705 5.90149 0.334314 23
451 1 -1.19878 -12.9037 -9.91044 15
452 1 4.11927 -8.03597 13.1841 10
453 1 6.26487 4.83891 -5.63715 19
454 1 -0.821722 -0.893407 -0.0480032 21
455 1 -8.37396 7.65853 2.39618 20
456 1 10.7332 -6.02996 -4.74046 17
457 1 2.95192 9.64024 10.0745 19
458 1 -3.28041 3.91923 -9.04242 25
459 1 3.70813 13.9817 4.90863 14
460 1 8.90398 8.52202 -9.499 15
461 1 1.06874 -4.23454 -11.9994 23
462 1 -2.42247 -11.453 -4.78781 22
463 1 -8.714 -7.87851 -8.79411 18
464 1 13.1147 0.81389 0.653202 20
465 1 12.6003 3.01802 -5.26877 15
466 1 8.46511 -9.20589 -6.60529 18
467 1 5.04491 -11.3829 -6.20696 23
468 1 7.33253 14.0955 1.01795 13
469 1 -8.66851 4.12785 2.94146 20
470 1 11.3464 4.22272 -2.90322 26
471 1 14.077 -3.1956 4.83956 11
472 1 11.8401 6.99203 -9.565 11
473 1 8.52471 3.82911 13.5498 11
474 1 -0.480942 -6.90848 9.74668 20
475 1 3.94522 -5.76498 7.43457 20
476 1 0.209676 0.0360617 12.8963 18
477 1 10.8076 0.372084 -6.82974 14
478 1 7.57211 2.2636 10.4867 21
479 1 -6.26957 1.02921 -6.65174 23
480 1 13.6936 5.02672 2.7426 17
481 1 5.83493 -7.35144 -0.0573674 22
482 1 1.18438 -10.1154 -2.04282 22
483 1 9.90408 1.48353 11.5325 15
484 1 2.0156 9.74062 14.1688 11
485 1 6.24307 3.63689 4.85393 20
486 1 -9.62106 10.9607 -1.2587 18
487 1 11.6589 11.5192 -4.90289 12
488 1 7.83552 -1.0159 -9.23981 19
489 1 -0.940987 14.2115 -2.60892 16
490 1 -2.50598 -11.1243 -7.82844 22
491 1 -14.8662 3.86819 8.86427 12
492 1 -1.67933 9.8483 -11.0709 14
493 1 -4.49598 -13.1194 3.7133 15
494 1 -7.86717 -1.50531 -11.1537 21
495 1 -12.258 -1.66465 -10.1844 11
496 1 9.48368 -5.33361 7.52391 15
497 1 10.8725 10.2067 3.82294 15
498 1 0.557861 -9.23904 7.4954 20
499 1 -7.15276 -2.60772 -5.9765 22
500 1 2.50679 -0.0961844 0.673818 21
501 1 0.960779 -4.20726 7.22805 21
502 1 -4.7273 5.78043 11.3772 18
503 1 2.02074 5.56236 -10.0811 21
504 1 6.13165 10.5649 -6.31229 19
505 1 5.97728 0.572008 0.851225 22
506 1 8.38021 -13.2467 -7.65017 11
507 1 11.454 -1.83428 -0.661618 21
508 1 9.63814 12.5525 3.10635 15
509 1 12.9336 -6.62351 4.58295 10
510 1 -6.80126 5.24524 13.9993 11
511 1 -11.1935 0.881456 1.64412 22
512 1 -10.7588 -0.159479 -11.9627 10
513 1 8.80194 0.168247 14.0782 10
514 1 -3.41413 -8.87789 10.6602 16
515 1 6.86074 5.83815 12.1944 16
516 1 -7.48231 8.60932 -0.758322 18
517 1 9.84782 3.36448 0.0443997 21
518 1 4.93564 -2.11484 0.130926 22
519 1 8.02403 5.42436 2.40469 22
520 1 3.13461 -1.81566 -15.9537 11
521 1 -9.32566 -2.519 7.98932 20
522 1 5.94223 0.271479 -7.48832 21
523 1 -1.69502 -6.17996 -3.92335 24
524 1 13.1198 -10.0255 -4.21671 11
525 1 5.28954 12.5637 10.6136 11
526 1 5.35851 6.68003 3.36199 19
527 1 11.3545 6.91163 4.54188 16
528 1 0.465048 -3.24951 14.1547 15
529 1 -3.61769 6.14976 8.34235 22
530 1 -1.86825 -3.50669 -14.0234 19
531 1 -4.54949 0.413411 11.5409 21
532 1 -5.22368 3.50188 -2.42561 22
533 1 5.08009 4.90833 14.1851 15
534 1 13.9269 9.64469 -0.827411 14
535 1 6.48058 -10.4976 -8.90889 19
536 1 -3.77093 6.61197 -3.77035 23
537 1 12.7687 12.5585 -1.56908 12
538 1 8.86306 11.9603 6.26433 13
539 1 -0.983242 -1.38884 6.14862 20
540 1 8.56053 9.59359 -1.23483 22
541 1 12.8404 8.42151 1.66685 16
542 1 1.18285 -3.72407 -4.07366 19
543 1 -7.62376 -9.77197 -2.68833 19
544 1 1.20523 -4.45368 -14.7727 17
545 1 -12.0105 11.4354 -3.39943 13
546 1 5.71696 -7.75618 -14.4948 10
547 1 2.04341 5.73895 -2.00688 21
548 1 7.64963 5.46696 -8.74773 18
549 1 10.1724 14.9439 -2.3186 7
550 1 -3.59945 3.86119 3.45114 24
551 1 -7.35161 4.65086 0.182485 19
552 1 5.23568 4.51307 -2.64287 24
553 1 -2.75068 -11.1197 8.10236 19
554 1 -8.40374 9.2322 -9.55637 15
555 1 -0.239461 13.3578 9.68656 14
556 1 4.60323 0.212567 10.7806 18
557 1 7.34314 12.9902 -2.2254 19
558 1 6.13486 13.1002 7.26627 13
559 1 -2.65579 -3.66174 -2.12787 19
560 1 14.22 -7.52653 -1.9123 11
561 1 -12.7721 -2.7527 5.86435 19
562 1 3.59277 -14.8426 -2.91714 15
563 1 2.53367 -1.87838 -13.0157 21
564 1 2.50801 3.78019 8.33925 21
565 1 8.20459 -3.98565 -4.38892 22
566 1 4.17726 10.8185 6.98337 19
567 1 -14.1572 0.661131 10.2741 11
568 1 6.67155 -14.1901 0.151673 12
569 1 9.81875 7.19512 -3.52732 21
570 1 3.07245 -8.39374 5.67454 22
571 1 0.3948 7.95879 2.73687 21
572 1 5.4273 -2.18402 -8.6744 20
573 1 -0.921125 -11.2619 10.798 11
574 1 1.27577 13.3156 -0.430279 16
575 1 -1.53803 1.2543 14.9305 11
576 1 -1.62155 -1.00185 -2.74661 17
577 1 -8.13367 -8.22775 -11.6872 12
578 1 1.31467 -7.32407 -3.3244 23
579 1 3.14334 -2.53643 2.71068 20
580 1 -5.68471 10.2048 9.8479 14
581 1 0.895806 -10.4581 -9.68167 20
582 1 5.61999 -6.34646 10.7163 14
583 1 6.19762 -14.3628 -5.47433 14
584 1 -9.70973 -2.79226 11.5265 16
585 1 -2.78036 -1.82258 -8.61768 21
586 1 -5.26056 -10.3604 -6.23656 17
587 1 1.68256 -0.902435 -2.51815 17
588 1 -11.5707 2.40909 7.28953 23
589 1 12.4199 6.2732 -6.08403 17
590 1 -5.54148 5.08077 5.88814 23
591 1 -14.1313 8.14211 0.941014 12
592 1 8.86678 -6.31846 0.205211 24
593 1 1.83275 8.79156 -3.73958 20
594 1 8.16838 2.2754 -7.0127 22
595 1 0.468427 -0.89978 2.85358 22
596 1 4.77494 0.861288 -1.84916 21
597 1 -12.5677 0.555094 -5.34751 17
598 1 -10.1303 -6.5761 -6.17717 21
599 1 4.39675 9.99963 -11.0543 15
600 1 -3.92558 -2.59255 10.1373 22
601 1 -4.73258 -5.61205 7.38711 20
602 1 -0.749178 -8.038 -8.19492 23
603 1 -1.15949 6.26247 -1.37772 22
604 1 6.72378 9.57219 5.45865 22
605 1 -13.9187 4.49047 5.72533 19
606 1 5.8921 7.5254 -7.75639 20
607 1 1.79665 -14.3501 1.71095 16
608 1 3.7935 5.39551 -7.69601 18
609 1 -0.951224 0.76513 -13.2508 18
610 1 -2.51368 -2.08769 13.2191 18
611 1 2.11803 0.7449 -13.7408 21
612 1 -11.9493 -1.7173 -7.34161 18
613 1 8.1441 1.26195 -1.80882 24
614 1 -9.62702 -3.76007 0.707322 24
615 1 11.7265 9.25227 -7.48395 13
616 1 10.3307 -6.3416 2.89551 18
617 1 -9.60855 3.49855 9.48116 20
618 1 3.81718 -7.84389 2.4759 23
619 1 14.2355 -5.66956 2.2046 12
620 1 7.76401 -1.10082 11.2126 18
621 1 0.875278 10.6025 7.86571 24
622 1 -9.44541 6.42229 8.17367 17
623 1 -3.58756 -7.87159 5.21377 21
624 1 8.05245 1.842 2.82389 22
625 1 6.69867 9.36609 11.576 15
626 1 -14.5303 -3.43481 2.03846 13
627 1 10.9615 -11.2089 -6.61118 14
628 1 2.739 2.07956 -3.14409 21
629 1 6.31707 8.11364 0.917337 20
630 1 5.69821 1.61179 14.0229 15
631 1 -1.34673 11.9528 2.42579 23
632 1 3.8879 -10.9853 3.90627 18
633 1 -7.37832 -0.0377506 -3.88835 20
634 1 4.31179 3.13693 10.704 21
635 1 5.12457 11.2529 0.495321 24
636 1 -9.64889 -10.4565 3.12045 13
637 1 8.98185 -0.0237181 8.43137 20
638 1 8.10683 -2.17465 6.55816 18
639 1 7.18068 6.26712 6.15321 22
640 1 -4.28104 6.13852 -0.262446 24
641 1 -1.67761 -9.29186 -10.7777 23
642 1 -5.588 1.57636 -10.2376 24
643 1 -6.33431 2.26711 13.5828 13
644 1 -2.1153 14.5541 4.26156 13
645 1 12.8812 -0.182163 3.77485 18
646 1 4.52718 7.37185 -4.30961 18
647 1 -7.66746 5.36014 11.2027 17
648 1 10.6669 6.15155 7.66942 15
649 1 6.9569 2.47207 -14.4676 12
650 1 -5.9418 -11.9279 -0.973757 25
651 1 -3.96055 -1.66059 -5.7257 23
652 1 15.3919 -0.458892 2.34246 11
653 1 2.87765 -3.01026 -6.75509 23
654 1 -3.92135 -9.03524 -8.45779 21
655 1 14.3896 -1.12407 -1.48615 14
656 1 1.0646 -6.58399 12.7241 16
657 1 -2.60511 -8.89796 -13.5738 14
658 1 -2.16477 1.19867 1.73515 23
659 1 9.8466 12.6112 -0.389909 18
660 1 -1.57234 -6.48032 2.52814 20
661 1 -13.8964 7.58506 4.40041 18
662 1 5.35106 5.00326 -10.1702 16
663 1 7.64728 -4.41987 -9.79686 19
664 1 -9.86636 11.8406 3.86693 17
665 1 5.12378 4.81676 -16.0747 11
666 1 11.9121 -4.90216 0.028722 22
667 1 -11.4231 1.72137 -1.30119 24
668 1 10.8737 5.81118 1.80583 20
669 1 -10.2992 -10.0607 -0.425068 18
670 1 6.06166 5.07497 9.08837 21
671 1 -10.3667 -3.55703 -12.3248 12
672 1 -14.6385 7.03222 7.45486 12
673 1 0.682478 5.38159 -7.4656 22
674 1 6.32887 -2.5359 -11.8882 17
675 1 -13.5188 -8.3192 -5.2633 10
676 1 11.3859 -10.1084 -1.34367 18
677 1 -13.1484 5.54972 -0.854196 17
678 1 -8.57953 -3.13837 -2.22908 19
679 1 -7.51982 -9.61827 5.29427 16
680 1 11.1713 -4.5424 5.51535 15
681 1 7.08042 -7.01191 2.87677 21
682 1 -11.5853 6.52152 2.53417 22
683 1 -0.915894 7.50312 9.35215 18
684 1 4.56383 8.03215 -14.2594 12
685 1 -8.2664 14.5165 2.73915 11
686 1 9.21381 11.1077 -7.04017 16
687 1 4.51825 11.3705 13.6544 9
688 1 6.12231 -5.17841 13.8511 10
689 1 6.72655 10.4982 -9.17388 17
690 1 -1.02732 -3.56005 1.1888 22
691 1 -6.71888 -1.58986 11.8036 24
692 1 -3.35959 -6.5646 -9.73834 22
693 1 -13.5865 3.28446 -3.24805 15
694 1 -4.84815 -7.33554 1.90543 20
695 1 3.44842 -2.72777 8.65918 21
696 1 -3.63816 -13.5619 0.551331 18
697 1 -12.9363 6.085 -4.15871 16
698 1 10.1554 -2.60277 -7.92558 13
699 1 -7.5186 9.88814 4.22566 20
700 1 -6.39068 -1.10155 8.75203 20
701 1 -4.09602 1.21676 -3.93597 22
702 1 -8.0508 -11.2333 -9.89659 12
703 1 -0.653244 -13.9844 -7.14593 17
704 1 8.23492 -11.8434 0.665233 17
705 1 1.8581 8.6708 -11.3401 18
706 1 11.7587 3.76775 -8.15597 14
707 1 6.54637 7.02856 -1.94753 20
708 1 9.73014 0.19652 0.79317 22
709 1 -3.23025 7.05504 -12.5318 15
710 1 -1.25201 -10.5906 5.55656 20
711 1 5.75143 10.5564 -2.95259 19
712 1 11.2562 4.05054 -11.3235 9
713 1 -10.6406 4.15808 0.748112 24
714 1 3.80695 2.52574 -6.08784 20
715 1 -9.77224 -5.32371 9.88812 15
716 1 7.2923 10.5529 8.67239 16
717 1 3.24299 -12.2249 -3.71011 22
718 1 4.11353 8.62927 -1.29126 21
719 1 -6.45782 7.91983 7.41069 22
720 1 -7.35312 1.50954 10.3037 23
721 1 7.80818 -1.95901 0.00880252 22
722 1 0.088141 -5.48476 -1.75885 16
723 1 -4.62612 -7.04716 12.5269 15
724 1 5.39668 -12.4711 8.69586 12
725 1 -3.66572 0.53273 4.93824 20
726 1 8.52098 3.39163 7.82845 22
727 1 4.24725 -7.37921 -10.1424 24
728 1 -7.58087 1.18247 -12.5912 12
729 1 -0.194783 -3.13876 -7.63989 22
730 1 -4.85457 6.56805 -9.24609 22
731 1 -12.522 3.3791 -6.48073 16
732 1 7.70168 10.7855 2.21849 22
733 1 2.07956 6.92892 8.87086 21
734 1 -9.27344 -13.8548 -4.67581 13
735 1 -2.46837 1.68506 -1.44633 22
736 1 0.761389 8.29563 -0.306727 22
737 1 13.395 1.10357 7.03869 13
738 1 -2.62696 -6.70102 -0.527045 21
739 1 8.38869 -8.03173 -12.1488 11
740 1 9.06188 -9.23144 1.34998 21
741 1 4.19001 -0.142111 -10.8569 19
742 1 -1.42886 6.29982 -10.0564 22
743 1 -11.1127 -4.39741 -2.087 21
744 1 -6.69486 6.02047 -2.36741 20
745 1 -10.2578 10.907 6.98705 11
746 1 8.63832 -4.71385 11.2674 12
747 1 -9.13307 -4.50385 3.90998 22
748 1 13.5215 -2.53858 1.45557 17
749 1 -0.450885 -0.118604 -8.22148 24
750 1 14.9888 6.37771 0.0397326 13
751 2 -5.55106 -4.76937 -10.874 20
752 2 -4.52843 10.8335 -1.42193 21
753 2 -0.609198 2.6293 -13.211 20
754 2 -1.95826 5.52395 9.33177 20
755 2 -8.75726 -4.36596 -5.9472 18
756 2 3.02648 0.126505 11.6594 21
757 2 -11.8013 -6.74807 0.94055 16
758 2 -11.5855 3.4776 -8.06306 15
759 2 1.89132 13.8085 4.61231 15
760 2 -14.4988 0.935377 4.51714 15
761 2 12.1727 4.28038 1.76286 21
762 2 0.852737 -4.90155 5.38111 19
763 2 2.77855 -4.1413 -4.99 22
764 2 -9.5846 -8.17054 -7.16748 19
765 2 -10.6759 4.84415 2.59804 19
766 2 4.23632 -9.999 5.66939 19
767 2 3.28842 -3.17879 10.7651 21
768 2 8.27297 0.328056 -10.3988 18
769 2 3.41335 -14.5742 2.80567 17
770 2 3.52472 2.17514 3.45731 18
771 2 -4.35873 8.29555 -0.200893 24
772 2 -12.5413 0.276088 -7.21612 15
773 2 12.4873 6.82196 2.74155 18
774 2 7.07099 -8.88501 -7.83495 20
775 2 1.46085 -6.67384 -1.59708 20
776 2 -8.59007 -12.0165 2.77657 13
777 2 -10.7 -4.26096 8.60051 15
778 2 -3.00111 -13.5309 2.3447 15
779 2 6.56316 -7.64787 4.64791 18
780 2 -1.66049 -13.0641 -4.4972 18
781 2 1.52459 -1.60311 13.2826 16
782 2 0.864094 13.9134 -7.29598 13
783 2 -11.2408 -8.89295 -1.7644 16
784 2 1.18404 7.95887 14.0813 12
785 2 -10.1152 8.00498 1.48986 21
786 2 -1.87339 2.77262 13.9388 14
787 2 -7.10252 8.85502 1.51652 20
788 2 9.28213 -11.4888 2.3129 12
789 2 -5.6191 9.47712 7.83446 19
790 2 -0.503063 5.99018 6.31191 21
791 2 -2.86872 14.2652 -2.81688 15
792 2 5.9172 2.46408 0.502789 21
793 2 7.69392 -7.65958 -0.778046 25
794 2 0.135545 -0.841211 -3.82608 17
795 2 -1.85849 -10.7161 -13.1834 13
796 2 -2.17647 -1.93159 -1.06975 18
797 2 8.73539 -8.67497 -10.3416 18
798 2 -8.25536 4.66506 12.8536 11
799 2 -1.67775 -8.52671 -0.867114 23
800 2 -1.39229 8.14068 -9.62991 21
801 2 -7.1283 10.7583 -9.16795 12
802 2 12.4712 11.6479 -3.26466 13
803 2 -4.41368 -2.29183 13.6293 16
804 2 -11.4639 10.4703 3.68103 18
805 2 5.60426 -4.21103 -12.4551 17
806 2 2.18611 -9.95833 -10.9917 18
807 2 -10.461 -6.37629 3.54397 17
808 2 12.2144 10.173 2.10589 16
809 2 0.715291 6.43349 -0.748638 21
810 2 -2.53097 -5.53419 -11.1517 21
811 2 -4.18375 14.7452 6.87476 13
812 2 5.36585 -10.5512 9.09191 15
813 2 14.5488 -4.22572 1.04965 12
814 2 -11.568 2.58536 0.428828 21
815 2 6.23019 -2.42773 -1.49243 23
816 2 -3.25981 0.0506933 3.10063 22
817 2 8.73234 -10.1089 -4.80318 19
818 2 6.48066 -12.3659 -4.83772 18
819 2 7.0931 6.99063 2.33978 23
820 2 6.97333 -13.3186 1.70831 15
821 2 8.93438 -6.93911 6.97928 13
822 2 -10.5284 3.42067 11.2018 13
823 2 12.2564 -8.01562 -0.99876 17
824 2 2.65791 7.2735 6.65759 22
825 2 10.1496 4.59401 8.77915 16
826 2 -11.7917 9.59018 6.15555 16
827 2 5.61136 9.58324 6.96143 21
828 2 12.6977 -7.004 2.70782 13
829 2 3.81194 5.73369 -3.35881 22
830 2 -8.89527 -0.20702 -12.2387 13
831 2 -6.47302 -0.264774 10.5423 23
832 2 4.84344 1.82639 -11.0339 19
833 2 -9.19728 -4.22522 -8.82014 23
834 2 -13.7616 3.81656 3.14909 18
835 2 -9.14175 -5.70995 0.858958 21
836 2 14.2127 -0.899846 0.59466 17
837 2 1.25342 -8.15542 5.65639 20
838 2 -1.40808 -0.319238 14.034 15
839 2 6.92789 -2.54155 -10.011 22
840 2 4.77762 -0.276894 14.0127 14
841 2 1.42123 9.39732 11.297 18
842 2 -8.18915 2.99509 4.43658 22
843 2 9.72547 -7.17758 -3.32472 20
844 2 9.63546 3.6887 -4.30617 24
845 2 -10.8643 11.2462 0.581598 17
846 2 0.119618 -8.75867 -3.54293 22
847 2 10.1407 -9.60561 -7.7277 14
848 2 6.99209 1.64188 -8.33765 18
849 2 2.32643 6.39361 11.9522 20
850 2 6.97224 -6.10585 -8.95859 21
851 2 5.03399 -2.68984 7.51935 18
852 2 -2.88133 -5.89795 1.20863 19
853 2 11.1354 -4.8268 -1.58547 18
854 2 2.9228 0.813531 5.811 19
855 2 -9.64822 -9.14909 1.50949 17
856 2 7.15646 9.45957 -10.6229 14
857 2 -1.49062 -10.3347 1.27899 19
858 2 12.1227 -7.15359 -6.12826 12
859 2 6.22052 -10.268 -2.24985 24
860 2 8.92887 -7.31189 1.86676 18
861 2 6.35075 0.744565 -2.73039 24
862 2 -6.91277 14.2672 1.40792 12
863 2 11.9396 5.08912 -9.66176 10
864 2 5.42507 -1.93516 -4.58142 23
865 2 -6.9448 -6.54112 -7.98847 22
866 2 -7.18961 -4.85626 3.18746 22
867 2 -0.362933 -4.98116 2.60433 20
868 2 -5.66251 -6.09717 -4.90688 20
869 2 -7.04457 14.0801 4.28175 11