ITEM: TIMESTEP
2000
ITEM: NUMBER OF ATOMS
2000
ITEM: BOX BOUNDS pp pp pp
-30.0 30.0
-30.0 30.0
-30.0 30.0
ITEM: ATOMS id type x y z Coordination
1 1 -9.31274 4.42882 -14.3326 12
2 1 -3.57197 -11.1811 -9.31784 20
3 1 2.744 10.895 11.95 21
4 1 7.07677 -11.0271 7.40505 14
5 1 -9.25574 9.17502 -0.807243 21
6 1 11.683 -9.23854 -10.6971 10
7 1 -10.8778 2.7439 -6.83158 20
8 1 -1.62541 -6.28959 8.51947 20
9 1 -7.78208 -1.91274 -9.50135 19
10 1 -14.0183 -10.0265 6.27266 11
11 1 12.6444 1.93876 -10.4832 16
12 1 -3.7263 -14.4613 0.992462 20
13 1 -13.0696 -8.22535 4.58884 18
14 1 1.44818 3.73879 17.3955 16
15 1 0.371261 4.03008 10.2889 19
16 1 -1.11712 9.98658 -10.7813 21
17 1 1.59859 0.846816 11.662 21
18 1 -8.1677 -1.45495 -15.5188 12
19 1 -13.6729 -4.07035 12.8529 13
20 1 13.9455 3.95873 7.36902 19
21 1 1.22953 11.0352 -12.5067 20
22 1 3.30245 5.46324 -14.1299 22
23 1 14.7104 0.868369 12.3949 12
24 1 -12.9336 4.67634 -8.62582 16
25 1 -2.05804 -2.17647 -10.8059 19
26 1 -10.2208 8.30191 8.67092 19
27 1 6.98129 -14.1147 5.98708 15
28 1 4.29106 -14.8554 -11.0411 10
29 1 9.63658 -13.4621 1.34288 12
30 1 -6.92213 -14.4382 -7.09667 12
31 1 -13.085 -6.21757 10.4428 18
32 1 1.00523 -7.67553 -13.2503 18
33 1 9.61078 -9.18163 -12.1927 15
34 1 -1.56017 5.85689 -17.6872 10
35 1 -0.643819 6.08508 12.3346 20
36 1 -1.13191 -11.7357 5.86693 18
37 1 4.83891 -5.54033 13.3003 10
38 1 -11.9387 -1.62777 1.33422 21
39 1 -15.9 -1.65155 7.74544 13
40 1 -9.59071 -0.533466 -0.362227 19
41 1 -3.26833 14.3573 -2.58651 15
42 1 0.80966 -14.5627 -11.7833 12
43 1 2.50727 3.06268 -7.64107 18
44 1 4.74634 -5.31711 -10.9288 18
45 1 -3.08123 -2.9251 12.4455 20
46 1 -11.3999 7.37458 -1.74201 20
47 1 3.97948 11.6775 -13.0523 14
48 1 0.770729 12.3373 7.65373 21
49 1 -9.77914 7.39317 -7.45875 19
50 1 -0.616054 10.8463 -0.698252 19
51 1 2.31419 -12.6831 2.44471 24
52 1 5.76793 -7.18769 -5.79786 21
53 1 5.94622 -6.09392 -16.6118 14
54 1 -8.65815 8.67235 11.9695 17
55 1 -12.9263 -4.71831 -9.04618 15
56 1 7.72515 -1.24499 5.80826 22
57 1 -7.69111 6.93089 -5.1451 18
58 1 -9.00087 -10.0995 7.29496 17
59 1 -1.82176 14.5059 11.8731 12
60 1 -12.6381 6.87072 -6.57227 16
61 1 -6.30466 10.4576 13.3099 12
62 1 -5.4215 -15.662 8.38843 15
63 1 2.43484 4.93501 8.60088 22
64 1 6.13746 -14.9363 -3.00265 14
65 1 4.06125 12.03 15.0719 11
66 1 -12.0748 1.96202 -9.71025 16
67 1 -12.1434 7.52588 -9.57093 14
68 1 5.39488 5.58085 11.2219 23
69 1 11.9402 -3.51432 -10.2175 17
70 1 8.82868 -12.3957 4.85539 14
71 1 -15.9484 -1.98818 4.88027 12
72 1 5.82839 15.8184 5.68686 14
73 1 4.94049 -2.53996 12.9279 17
74 1 -6.36924 -13.9664 5.51576 18
75 1 -10.916 -3.36666 -0.745593 18
76 1 12.1046 1.80465 6.26429 19
77 1 7.58808 -5.58154 -3.00806 17
78 1 -2.26215 11.7852 8.26911 22
79 1 4.73668 -1.22053 7.00549 23
80 1 -2.56014 -7.8392 -8.41597 19
81 1 -13.1614 7.99029 8.89535 10
82 1 -8.14961 11.8817 -1.57525 18
83 1 -1.33014 6.49065 -9.06175 22
84 1 7.1054 -4.17863 -6.32107 23
85 1 7.87518 11.6893 -7.34445 19
86 1 8.73777 -7.55594 2.42834 19
87 1 4.68426 -9.08689 9.1317 14
88 1 -4.73389 14.9048 -5.17996 13
89 1 -10.264 11.2421 4.01966 15
90 1 -7.98804 -4.52136 14.6098 15
91 1 -4.45699 8.6817 5.4263 22
92 1 -6.78837 -5.45492 9.93335 23
93 1 14.1079 -9.73172 -5.56485 11
94 1 -9.94166 2.21895 4.69173 24
95 1 -9.03175 -13.4924 4.09495 18
96 1 8.45929 -7.72467 -5.53467 23
97 1 5.51448 0.602323 -11.3114 20
98 1 -5.38073 0.113048 -14.7062 18
99 1 -1.68284 13.0595 2.06155 14
100 1 -7.06454 4.71971 -8.58407 17
101 1 0.52993 9.63474 18.0124 10
102 1 1.18672 13.7064 -7.11612 15
103 1 -14.0345 11.876 -0.122188 9
104 1 1.1118 9.28073 1.61534 21
105 1 -4.95 -7.47648 8.16329 23
106 1 14.9407 -2.14577 10.6521 9
107 1 -0.445838 -4.42032 -8.22667 23
108 1 4.70615 -7.73448 -9.3874 19
109 1 -2.54638 3.46428 8.60199 19
110 1 6.50892 -1.37114 15.476 18
111 1 -8.99372 -7.69913 -1.05624 20
112 1 -8.11854 -9.27709 -3.6133 20
113 1 10.2168 -10.2958 2.40051 16
114 1 -3.83006 9.18092 1.71164 20
115 1 8.33464 2.18075 -15.7477 17
116 1 6.64403 18.0804 -2.84819 12
117 1 -7.74263 -13.0614 11.3413 13
118 1 -10.2359 -14.6254 9.57029 13
119 1 4.0708 -8.89007 -14.921 17
120 1 5.43863 6.80217 -6.81443 22
121 1 12.535 -11.004 0.649254 8
122 1 -1.22094 -16.5467 4.2611 17
123 1 -8.31158 -10.9518 -0.227329 21
124 1 16.1296 6.15501 9.25434 14
125 1 13.9991 -4.03385 -8.16066 14
126 1 -15.2312 -4.80067 3.07219 15
127 1 11.0709 8.41314 6.05792 20
128 1 14.9651 8.73635 3.83664 12
129 1 -6.32264 3.58247 15.5724 14
130 1 -4.71042 10.2151 10.4813 20
131 1 -5.74952 11.8198 -6.3586 17
132 1 -0.128469 -7.16269 -9.77192 20
133 1 8.65589 -11.105 -9.95995 15
134 1 0.992702 15.1315 -12.6351 9
135 1 7.44784 -4.14665 11.8845 16
136 1 0.987324 -3.16124 -19.1137 9
137 1 -1.97465 7.4731 -6.14819 18
138 1 10.6534 0.714136 -4.67321 20
139 1 -11.0103 9.84725 -7.06858 16
140 1 -7.75532 14.807 -0.0718496 16
141 1 7.57099 1.65872 -12.6666 21
142 1 8.73055 -8.90211 5.2468 18
143 1 -5.88965 2.76333 -6.43229 19
144 1 -7.28304 13.2629 8.78999 13
145 1 13.7686 8.0193 -8.44198 10
146 1 4.9943 10.9114 -2.3519 20
147 1 -1.10937 14.4805 -0.427772 15
148 1 9.47063 8.09922 -1.86745 18
149 1 -1.52763 9.46988 -3.83532 23
150 1 0.824278 15.8482 -10.0301 16
151 1 3.67864 10.047 -15.2755 14
152 1 -10.9661 -10.998 2.236 18
153 1 -13.9325 9.32059 -1.91963 12
154 1 -3.84761 -4.27852 -12.7598 20
155 1 1.52036 -10.9346 -15.5966 12
156 1 9.7517 12.1562 8.13192 15
157 1 -0.459354 16.5029 5.81077 14
158 1 -12.0628 -4.2439 -4.03913 23
159 1 -12.2564 12.6424 1.87019 14
160 1 14.4171 -1.53125 -3.7839 16
161 1 -10.4964 1.06138 -15.0929 7
162 1 6.02891 1.20382 17.0508 17
163 1 4.59791 17.3641 2.97871 14
164 1 -2.64099 8.8858 8.1198 21
165 1 3.50426 -8.4305 -17.8355 9
166 1 -4.21663 13.3726 9.82675 19
167 1 -2.2779 11.5302 -6.39011 19
168 1 2.18444 -4.12582 11.6772 17
169 1 -11.7164 -5.64956 4.76311 17
170 1 -2.23838 -13.6858 -13.9528 11
171 1 -7.84732 10.8712 -8.2692 13
172 1 -5.1167 -11.2319 4.77613 20
173 1 4.30244 -14.9283 -5.28992 17
174 1 -3.50525 11.241 -12.5963 12
175 1 -14.7807 1.38095 8.3334 13
176 1 10.8379 8.76384 -4.38558 21
177 1 -9.12454 5.1108 15.6369 12
178 1 -0.888994 -9.6166 9.55973 13
179 1 -8.6232 2.9023 -0.613458 19
180 1 1.71952 17.9536 3.83681 10
181 1 -0.294681 7.32593 9.15268 24
182 1 12.9292 3.85502 13.4543 16
183 1 -6.45241 12.8852 2.071 20
184 1 12.855 -6.51422 -8.70012 14
185 1 -5.38207 13.3606 12.0239 11
186 1 -3.16728 0.515877 -9.54146 23
187 1 12.0672 -7.97175 0.655299 17
188 1 -5.16615 -7.39597 3.66309 20
189 1 -15.7026 1.40171 5.55839 11
190 1 -8.2643 -10.8049 4.36494 21
191 1 5.41802 6.30148 14.5451 24
192 1 -15.1467 -0.772853 -1.99143 9
193 1 -3.115 -16.1705 -2.41817 17
194 1 5.84548 -8.41948 -2.50998 18
195 1 -0.464172 10.7727 3.20822 19
196 1 5.02951 13.4067 11.8403 13
197 1 -8.05191 -2.25669 -4.74663 18
198 1 -6.38669 8.73488 -7.46058 21
199 1 -14.7404 -5.12645 -6.21696 11
200 1 -8.63795 -2.85186 11.5446 22
201 1 0.164892 -10.0486 2.84264 22
202 1 3.86857 -14.964 7.31331 12
203 1 -13.2788 10.1853 3.42653 12
204 1 14.5558 3.09248 4.25271 18
205 1 6.09792 3.70602 -6.51824 20
206 1 -7.38601 -8.81702 -13.8666 11
207 1 5.11385 0.438845 10.4519 24
208 1 6.49746 -16.9918 4.84352 9
209 1 -2.0021 7.00357 -11.8889 23
210 1 3.54798 -10.3586 -12.6109 17
211 1 9.6793 -0.508468 -14.2111 17
212 1 3.62707 7.00876 -16.9876 16
213 1 -7.15257 -4.40001 -7.37131 20
214 1 -1.77208 14.5498 -7.64867 15
215 1 -10.5176 -11.4371 10.867 12
216 1 8.69227 15.4946 -2.83937 12
217 1 -9.17752 1.90568 15.7601 12
218 1 -6.61833 13.3189 -3.34517 17
219 1 7.96317 0.0343626 9.26424 18
220 1 -4.20725 -7.84961 -13.8521 18
221 1 -3.21539 9.20114 -8.91557 20
222 1 2.5505 6.10669 -7.75105 18
223 1 -8.14007 -12.8335 7.22 19
224 1 -8.21806 3.18285 6.82735 19
225 1 -8.47696 6.6743 9.60141 19
226 1 1.12459 -12.9279 -8.85131 19
227 1 -6.19242 -15.9997 -1.26323 17
228 1 9.51203 -12.6291 -1.99017 15
229 1 10.9857 6.73937 13.4832 16
230 1 4.76772 8.7756 -8.97264 23
231 1 1.90441 9.10872 -2.86992 23
232 1 -9.47141 -0.161378 2.7605 20
233 1 -11.4373 10.5105 -1.67826 20
234 1 2.16163 6.21718 10.92 21
235 1 4.51078 -18.6797 0.111597 12
236 1 11.821 -1.28192 -2.1962 18
237 1 2.11347 6.4661 6.40745 22
238 1 -8.6705 5.96431 4.10338 19
239 1 -10.9294 -7.43993 -3.82058 20
240 1 6.23074 4.81503 -12.456 21
241 1 2.77131 -1.16321 9.24996 20
242 1 7.50767 9.79527 -9.66433 17
243 1 2.4851 -10.382 -2.87825 23
244 1 -1.3512 -2.421 -13.8967 18
245 1 0.363696 -19.2141 3.92961 11
246 1 7.7929 -0.377251 -9.47902 22
247 1 -9.66525 -2.96802 5.29139 19
248 1 3.37645 -16.4442 -2.34427 17
249 1 -9.58462 -6.55927 -8.42055 19
250 1 5.49521 14.8279 -2.63045 18
251 1 1.28373 -2.709 -14.9315 23
252 1 4.19823 3.54815 15.56 22
253 1 15.0089 2.84321 0.685083 14
254 1 10.2437 -6.03063 -10.3665 21
255 1 -8.34278 -4.96972 -10.5532 22
256 1 -10.1206 -0.142233 -7.95889 18
257 1 -7.45582 -15.9418 10.5896 12
258 1 10.5232 0.0754512 10.7275 18
259 1 4.42234 -4.28395 8.64105 21
260 1 -5.68846 -9.77634 -11.387 19
261 1 2.8708 -8.01911 4.87935 21
262 1 1.03863 7.82348 -12.7168 22
263 1 4.07915 7.72458 1.99136 21
264 1 -8.05576 -8.26403 2.02342 23
265 1 1.65372 13.1779 2.24563 19
266 1 -5.9727 -4.13964 12.237 20
267 1 -11.0127 -9.47585 -9.31068 10
268 1 -5.75605 -6.53451 -10.6961 21
269 1 -1.8531 6.88033 -15.1122 17
270 1 -6.35998 -9.2742 -8.47852 21
271 1 -3.06299 -11.7058 2.32165 20
272 1 9.55191 -5.26227 -15.6762 12
273 1 13.6618 -0.924538 -9.66686 14
274 1 11.6061 3.68755 3.89472 22
275 1 -9.77304 -5.33523 10.019 20
276 1 -2.63631 -13.0059 -1.61858 19
277 1 7.45608 4.38882 16.1813 22
278 1 -6.30928 -17.2028 4.54033 18
279 1 -0.662154 -12.1809 0.352815 23
280 1 -0.0584047 16.1481 -2.35164 10
281 1 6.11538 -0.577097 -14.9247 22
282 1 -5.88592 -5.50396 -14.4267 15
283 1 -10.5153 -8.20153 11.0833 16
284 1 3.06688 6.50473 16.7536 18
285 1 2.36293 -13.5522 -0.826757 20
286 1 -4.94218 -12.103 -12.0738 14
287 1 -10.1315 4.91447 -8.96131 22
288 1 10.7773 5.42672 6.53551 21
289 1 -5.34442 2.76706 -10.817 20
290 1 0.992143 8.0894 -9.92533 23
291 1 7.71437 -13.9937 -9.23932 11
292 1 -5.31041 16.1444 -1.60293 10
293 1 3.6227 10.739 6.37941 23
294 1 10.7723 -0.830929 4.45672 23
295 1 -8.39777 -0.398774 5.6398 23
296 1 -3.49635 -5.9572 11.4076 19
297 1 -7.03817 10.5344 3.35541 18
298 1 2.5861 -5.0458 -13.6555 20
299 1 15.5349 9.8359 -2.87736 9
300 1 4.87524 -12.2182 1.20238 22
301 1 -2.57139 -0.979389 15.1693 12
302 1 -16.189 -4.79078 6.29008 12
303 1 -0.0373852 -18.2911 -6.7826 7
304 1 -8.86057 8.55337 14.7435 12
305 1 -10.8719 6.72594 13.4834 14
306 1 -15.4206 -4.75471 9.75106 14
307 1 -14.7183 -7.46818 7.67955 14
308 1 16.6062 -4.68474 -3.33745 8
309 1 -12.8155 -9.37108 9.42396 13
310 1 8.67326 -3.00931 -9.67814 23
311 1 9.99636 -13.2434 -4.94114 16
312 1 4.67207 17.9889 -4.95914 10
313 1 -9.12042 14.5569 -3.18211 12
314 1 10.4634 5.44675 10.6562 18
315 1 -8.5959 -2.8355 2.48875 17
316 1 8.64305 -10.4887 -3.6715 19
317 1 -4.24563 11.995 3.49514 19
318 1 -6.35182 5.94608 5.956 16
319 1 4.36658 -12.1992 7.62483 16
320 1 12.6017 -3.5449 5.67697 15
321 1 -3.20075 6.35869 7.00209 22
322 1 -5.9792 -4.32393 -4.78376 21
323 1 -1.19837 2.29482 15.7819 17
324 1 -0.942028 13.2461 5.1158 22
325 1 8.75131 6.72205 15.6136 18
326 1 -7.89117 13.9306 -6.45048 10
327 1 1.47029 -5.76448 -19.2802 8
328 1 6.59674 -9.14073 -11.6509 18
329 1 -10.0789 3.27168 12.942 21
330 1 -13.0835 1.58584 3.18651 19
331 1 -3.03397 -4.96765 -9.70193 21
332 1 -6.16842 10.3389 0.335045 20
333 1 9.95606 -3.3517 6.41422 21
334 1 -9.24065 -13.3338 0.818354 18
335 1 7.75918 -7.70923 7.79127 18
336 1 -7.61281 -9.89393 12.3037 14
337 1 -12.498 8.67385 0.640213 17
338 1 -1.2307 -3.5681 9.51564 22
339 1 3.80727 -12.0281 -5.99996 20
340 1 -5.17478 -3.46677 -9.01567 19
341 1 8.27077 -2.55165 -15.6011 17
342 1 4.64482 14.2579 3.16589 20
343 1 -10.9581 -1.59043 -3.36675 19
344 1 5.45997 -7.00042 -13.3331 16
345 1 9.13799 5.10743 -13.7696 15
346 1 -3.37346 -14.3693 -7.51854 16
347 1 -14.2109 -8.27851 -5.07583 11
348 1 -3.7731 -10.7151 -0.241955 18
349 1 11.2576 3.9748 16.7629 10
350 1 13.3446 1.31131 -3.57746 20
351 1 -7.96429 4.39122 -11.3875 18
352 1 4.64709 18.2389 -0.977202 13
353 1 -14.1022 -1.86646 -5.06221 14
354 1 -8.07394 8.87068 6.46338 21
355 1 -9.27903 11.7832 1.12419 21
356 1 -5.80362 7.81809 8.43668 20
357 1 10.1966 3.72435 14.3843 20
358 1 12.6602 -6.7618 -5.57188 19
359 1 7.90919 -4.1926 14.9035 12
360 1 13.0324 1.10106 -7.05889 19
361 1 -5.15557 -14.842 -4.37434 20
362 1 -0.166295 -6.71293 -6.4246 21
363 1 1.76354 9.59718 4.50071 20
364 1 -10.0348 1.02485 -4.8788 18
365 1 5.95115 -11.2704 -1.98644 22
366 1 10.2887 -0.249353 7.69157 20
367 1 -9.7158 -4.90062 -6.02108 21
368 1 -6.49718 -12.9037 1.54895 22
369 1 -8.166 -6.40839 12.5459 20
370 1 -3.73229 9.29743 -1.57892 18
371 1 -12.5044 -11.2592 -3.35021 10
372 1 6.48155 9.1939 15.5876 16
373 1 -10.1185 8.29968 -4.08472 22
374 1 0.153168 11.6956 -9.071 21
375 1 5.97954 12.5296 6.93678 21
376 1 -14.6677 -9.17976 -1.62893 12
377 1 -0.494057 -9.8777 -8.08733 20
378 1 -11.8648 -0.757503 7.71281 19
379 1 -12.7572 6.50747 -3.81444 17
380 1 5.2728 -9.51303 6.19824 23
381 1 -5.0092 -11.7085 -3.17779 19
382 1 11.9296 10.2913 8.44345 18
383 1 5.80189 7.69784 -14.5987 14
384 1 -11.5192 4.73116 -11.5865 14
385 1 -2.14459 15.9022 -10.4372 9
386 1 -8.4298 3.71415 -5.30956 16
387 1 -0.925144 -13.5292 3.19889 20
388 1 13.3215 6.21902 5.23461 22
389 1 0.942356 8.81857 -16.1368 15
390 1 -6.54953 0.81557 8.87222 19
391 1 -13.1474 0.652961 0.0464018 19
392 1 -6.24991 1.41048 5.65527 21
393 1 -3.87209 -14.6039 4.00986 20
394 1 7.7092 -8.32764 -9.16175 19
395 1 -11.671 -0.430053 4.7787 21
396 1 -14.1149 -1.44495 10.1423 15
397 1 -13.6031 6.87118 5.88547 11
398 1 1.7973 -5.78743 6.63585 22
399 1 -7.73848 1.56226 -15.5092 13
400 1 8.93842 -10.8396 -6.74569 20
401 1 -0.131498 -11.5852 -13.324 20
402 1 -4.35017 -4.58725 8.3818 21
403 1 2.57644 -7.66313 -4.54206 19
404 1 -4.10075 2.81893 -15.8671 15
405 1 6.73434 -14.1746 2.94774 21
406 1 2.27503 10.9391 -6.40505 20
407 1 -11.5923 9.38506 6.0558 15
408 1 -5.25752 -2.79222 14.9072 15
409 1 -11.519 -7.1358 -11.2688 12
410 1 -8.5092 -6.49274 7.06285 19
411 1 9.95478 -5.46425 9.4993 16
412 1 2.60171 0.406582 -9.69954 19
413 1 11.0086 -7.9131 7.57693 10
414 1 14.1003 7.0342 -4.83359 18
415 1 -2.2128 1.74632 10.9882 18
416 1 2.27039 12.083 -1.0856 17
417 1 5.63075 -6.97997 3.95852 18
418 1 -2.48279 -13.6162 -4.3312 21
419 1 -3.42172 4.54509 16.2317 15
420 1 -3.52343 16.2791 7.29676 10
421 1 -8.6908 -11.9068 -7.75714 14
422 1 9.08068 13.32 -0.192152 17
423 1 5.13958 6.58104 8.46873 20
424 1 -7.93147 3.0986 10.2374 19
425 1 -5.4625 -9.27844 -5.07334 18
426 1 -10.5162 4.32077 9.6703 21
427 1 -7.88845 -7.52685 -5.7489 20
428 1 -5.17267 10.9276 7.5106 22
429 1 -4.774 -11.7185 -6.62543 25
430 1 -1.72426 -8.60887 -14.9982 18
431 1 -6.90901 -15.3475 2.05402 20
432 1 -5.49606 -5.09375 5.51876 20
433 1 9.07834 1.78431 6.17235 20
434 1 -4.73031 -5.87607 14.326 11
435 1 -9.95519 6.85967 -11.9969 15
436 1 8.40569 3.95714 -0.867483 18
437 1 -7.66321 -14.7785 -3.61825 15
438 1 1.39702 17.2753 0.595787 11
439 1 1.38976 4.61434 -9.73445 20
440 1 -1.4722 9.38619 12.1419 19
441 1 -13.6487 -3.63853 -1.21588 19
442 1 1.09598 18.3491 -4.7073 8
443 1 4.8468 11.7212 -7.04258 20
444 1 -5.07986 -6.73355 -7.5894 21
445 1 3.28398 1.21067 17.8088 11
446 1 2.63602 -16.2407 -8.01355 13
447 1 -0.167118 -4.14064 -11.8546 21
448 1 9.01031 -15.6175 3.48667 10
449 1 -9.54728 8.31228 2.09282 17
450 1 2.49896 5.79074 13.7281 21
451 1 6.29375 7.3785 -0.83855 21
452 1 3.28002 9.59035 -0.125983 21
453 1 -7.5609 7.3362 -9.92233 19
454 1 5.27774 1.04176 -7.898 22
455 1 3.75158 -9.96322 2.97628 22
456 1 -14.6822 -6.54699 0.52787 16
457 1 3.0836 16.9293 6.31644 12
458 1 -4.22275 5.51403 -12.737 20
459 1 11.1806 5.43892 -0.1707 20
460 1 6.60852 14.6279 -8.20771 9
461 1 6.09514 -6.10903 -0.362821 12
462 1 15.5751 1.57359 -2.31609 12
463 1 0.142181 0.305313 -14.4151 18
464 1 2.12196 -10.4731 0.316569 21
465 1 1.37432 -14.2311 5.56545 18
466 1 1.69689 -9.04437 8.05448 18
467 1 -8.4617 2.1133 -8.83866 20
468 1 -10.9672 -14.8386 6.23175 12
469 1 -1.34738 -13.0675 -10.7072 20
470 1 8.23674 13.3223 5.40453 14
471 1 0.718803 4.92285 -12.3264 22
472 1 3.49032 -1.4545 15.9598 11
473 1 -13.1494 2.06763 10.8476 17
474 1 -0.943923 -19.0179 -1.56921 14
475 1 -12.6036 -4.82872 1.76867 19
476 1 15.2265 -6.58071 -6.30292 11
477 1 8.65848 -2.65155 -4.1044 20
478 1 -4.49273 8.54842 -4.70493 22
479 1 2.85561 -9.25308 -6.38807 20
480 1 4.13099 3.13275 -11.6656 20
481 1 10.4034 -4.96747 -7.32387 24
482 1 -6.53571 0.387299 14.759 18
483 1 6.93162 15.0388 -0.214003 15
484 1 -4.7532 -2.63805 -15.9944 15
485 1 6.67716 2.53109 -18.5657 11
486 1 -7.69261 -3.72639 7.18408 19
487 1 -4.04163 15.0708 1.07977 19
488 1 -6.69159 -2.61753 -13.0691 18
489 1 -14.6022 -0.869797 2.85728 15
490 1 -1.44126 -11.0372 -16.5156 9
491 1 -6.44054 -10.7074 9.29863 18
492 1 -0.109743 9.16624 -7.45675 21
493 1 16.1208 2.66056 9.59671 10
494 1 13.5618 4.37804 -1.9282 18
495 1 -9.75139 -13.5129 -2.12786 15
496 1 -0.134872 -9.57421 -1.81869 21
497 1 -1.92516 -4.39836 -19.5656 7
498 1 -7.83994 10.286 9.39684 17
499 1 1.94464 -4.29712 -9.59842 20
500 1 12.8065 -4.91454 0.40654 15
501 1 3.31145 14.4489 -8.33233 17
502 1 4.78287 -9.32503 -0.0964081 19
503 1 14.3467 4.60903 -9.88264 11
504 1 3.4974 8.87142 14.3246 23
505 1 -10.5866 1.92014 7.84902 20
506 1 6.02586 10.7224 10.5737 22
507 1 8.84644 -1.65435 17.2038 11
508 1 1.94518 2.51256 -14.2787 20
509 1 -3.25137 -4.74242 -6.39233 22
510 1 -0.135745 -2.03219 11.1146 21
511 1 8.97271 10.4449 6.04292 20
512 1 6.6719 6.92318 -9.92902 23
513 1 -7.66254 10.2704 -4.48506 20
514 1 0.250233 11.8397 -3.85402 19
515 1 10.5932 -4.14989 12.6037 12
516 1 10.5749 2.31711 -12.7695 14
517 1 13.2746 -12.1986 -3.18499 9
518 1 11.9689 9.17781 11.6677 15
519 1 -14.0806 -9.51892 1.39362 14
520 1 -5.206 8.84487 -10.8948 17
521 1 -0.510192 1.03847 9.04646 21
522 1 -12.8878 -0.838613 12.7515 14
523 1 -3.3265 12.5293 -9.21179 13
524 1 3.95701 -13.176 -3.01576 20
525 1 5.47794 -2.44873 -9.76387 22
526 1 -1.35192 14.7113 -4.8078 16
527 1 -8.58605 -5.58342 -13.4444 13
528 1 3.76828 -15.1196 4.19691 20
529 1 -11.8551 -6.50008 -0.836749 21
530 1 1.07661 12.204 -15.1876 11
531 1 -1.51132 9.70908 15.2157 15
532 1 -11.526 -6.68509 8.19394 17
533 1 4.16626 7.86647 -2.74637 16
534 1 2.65021 -10.2937 -8.91269 16
535 1 2.57183 -7.46855 10.7574 13
536 1 7.924 0.556435 -5.84377 21
537 1 -10.3099 5.59644 0.928992 21
538 1 4.45372 4.33026 18.3862 14
539 1 7.27229 15.913 -5.19943 12
540 1 11.7729 -6.49621 -2.1405 19
541 1 4.4644 7.94538 11.7842 21
542 1 1.49723 4.50441 -18.6438 12
543 1 -4.74998 -13.6236 10.5299 11
544 1 0.065326 1.8332 -11.3854 22
545 1 8.71373 -0.213486 -17.6112 13
546 1 2.90364 13.5892 6.12782 18
547 1 9.49986 4.84095 -10.7647 18
548 1 -1.67512 -3.4343 -16.7231 16
549 1 -2.01053 -10.5025 -4.72982 18
550 1 -11.3289 -4.47958 -11.4428 12
551 1 12.0128 2.73763 0.446338 21
552 1 15.2459 3.93571 -4.11916 13
553 1 7.42818 -5.86503 -8.46692 22
554 1 13.5705 6.27907 11.2538 16
555 1 5.64088 -10.2403 -4.85439 23
556 1 3.88632 4.23051 -17.1575 17
557 1 7.02574 12.5671 2.53585 20
558 1 -8.4845 3.39511 2.43263 18
559 1 9.54514 9.67661 13.8362 13
560 1 10.7996 5.87686 -3.44884 17
561 1 13.4682 -0.215353 -0.230297 19
562 1 11.237 3.88213 -8.84963 20
563 1 8.76912 0.810854 15.0365 21
564 1 15.9511 4.38876 12.2533 10
565 1 1.4212 -4.92086 9.24677 19
566 1 13.4717 12.0645 -3.12422 9
567 1 1.8518 1.06598 14.6744 21
568 1 12.4978 -1.76563 -6.66017 18
569 1 9.03957 2.63441 10.9279 19
570 1 -6.19593 0.128657 -8.51886 19
571 1 13.454 5.09185 1.8646 19
572 1 7.90293 -4.33849 1.18019 17
573 1 -11.4195 8.76241 11.6158 9
574 1 9.44659 11.8336 10.8995 12
575 1 11.2038 1.35616 12.8291 19
576 1 2.54429 8.62585 8.57724 21
577 1 0.609403 13.2467 10.1683 15
578 1 6.5361 1.54965 7.34756 17
579 1 -1.20922 -18.0216 1.43336 17
580 1 -3.59239 11.6025 -3.682 19
581 1 10.9616 9.8867 -7.40265 16
582 1 9.75897 -3.70329 -12.6857 20
583 1 3.01766 16.553 -3.21707 13
584 1 -1.42892 -12.6467 -7.10693 22
585 1 11.2854 -6.79575 -13.1069 12
586 1 -12.8088 2.5409 6.39119 18
587 1 -4.21319 6.47714 -9.78999 18
588 1 -3.91802 -18.641 2.8263 10
589 1 -4.54962 -1.27114 -11.3551 19
590 1 -13.1945 1.0102 -4.16376 21
591 1 11.2364 -6.43828 5.22713 11
592 1 12.0012 10.482 3.42531 18
593 1 -0.214244 -8.18151 6.45822 20
594 1 -14.7099 -1.85619 -7.77397 9
595 1 3.46513 1.57559 -19.2839 10
596 1 0.138429 2.94168 12.6038 20
597 1 6.65523 9.90709 -12.753 14
598 1 12.4968 -1.85039 12.9693 13
599 1 8.25435 5.22138 -7.6177 20
600 1 12.663 13.3195 1.8687 7
601 1 5.16825 -14.6007 -8.40244 14
602 1 -10.7597 -2.98889 14.3989 14
603 1 13.0748 -2.57852 2.9276 13
604 1 0.364985 11.9576 13.0283 14
605 1 5.76149 12.2209 -9.99483 18
606 1 -12.837 9.78476 -4.80388 13
607 1 9.09744 9.29666 3.01985 17
608 1 -9.42398 -16.2073 -0.782678 10
609 1 10.6766 -4.35163 2.93417 17
610 1 7.49721 15.452 2.55929 15
611 1 -5.58319 4.81902 10.4346 17
612 1 -11.1963 -7.73392 1.60704 18
613 1 -10.1982 -3.62207 -8.53146 20
614 1 7.51785 -0.503583 12.411 20
615 1 -4.11555 -9.50584 10.4135 15
616 1 8.16526 5.25315 12.9791 21
617 1 -3.62306 12.1068 -0.0442877 20
618 1 8.26826 4.30761 2.29094 21
619 1 8.41627 4.43955 4.98517 20
620 1 3.11566 -0.200069 -16.2913 19
621 1 -8.84106 -1.52172 8.5899 23
622 1 7.22725 -1.8357 -12.677 21
623 1 11.2815 -10.0078 -5.2668 18
624 1 8.40883 5.35093 8.55452 17
625 1 4.93256 4.49203 6.84683 22
626 1 -10.0314 0.09817 13.538 17
627 1 9.82768 8.58887 9.11688 19
628 1 0.927279 -2.13381 14.069 14
629 1 -2.82287 7.02621 10.5629 20
630 1 -0.437437 -5.61395 -14.8842 20
631 1 -5.83636 2.36287 12.6023 18
632 1 6.30614 2.82041 12.8289 22
633 1 -8.49885 -15.9117 7.40069 16
634 1 13.3172 7.83844 -1.8303 16
635 1 6.6322 -12.748 -5.28993 22
636 1 6.15639 9.93855 1.07213 19
637 1 10.3512 13.7015 3.12164 14
638 1 5.88165 -0.165545 -17.5741 19
639 1 3.57138 13.3664 -4.57694 16
640 1 11.7589 7.94757 0.702453 20
641 1 -6.29263 -9.64661 -0.923911 21
642 1 0.420716 -0.28172 -17.5819 12
643 1 -10.7624 13.5597 -1.02176 16
644 1 7.80208 -6.22982 -11.844 23
645 1 10.3036 7.86876 -9.40723 18
646 1 10.2902 12.4202 -2.48821 15
647 1 -7.7571 7.05089 0.448274 18
648 1 6.98231 7.96571 -3.45416 20
649 1 11.2289 0.860639 16.4946 13
650 1 10.0124 -1.58612 14.3343 17
651 1 -2.61385 -12.3941 9.10398 13
652 1 -4.27367 8.27761 -13.7032 14
653 1 3.49928 11.8751 9.18449 20
654 1 8.30894 -7.27899 -14.5109 16
655 1 3.40174 2.0354 8.74397 21
656 1 6.99682 12.7114 -4.07528 20
657 1 6.28262 9.90197 4.35943 21
658 1 16.0513 -7.63077 -3.6635 11
659 1 6.19875 6.90193 17.7781 14
660 1 -12.1822 -3.56041 7.20651 17
661 1 1.7972 -16.989 0.311807 23
662 1 0.168085 -1.31367 -9.39411 21
663 1 -9.28048 14.2153 2.22025 13
664 1 3.72663 10.9218 2.83018 22
665 1 -12.2962 -3.09643 4.23114 17
666 1 -1.22006 4.02024 18.6777 8
667 1 -4.8908 5.83907 -16.1403 12
668 1 -6.99942 6.48474 -13.4055 17
669 1 4.18536 -15.4737 0.557386 23
670 1 8.20207 8.79721 -7.01097 25
671 1 -12.6867 5.03414 11.7866 13
672 1 4.42013 -2.48729 -14.3254 20
673 1 1.147 -12.2739 8.21587 13
674 1 3.42968 15.0393 0.0643589 17
675 1 -3.70747 1.93732 14.3554 17
676 1 -8.27416 -7.99574 -10.9992 19
677 1 -4.25145 -10.6467 -14.2808 14
678 1 -6.23186 -12.5807 -8.97464 17
679 1 -0.231759 16.7924 -7.5576 13
680 1 4.62919 -4.63688 -7.9189 22
681 1 -2.35353 10.5607 5.6167 17
682 1 5.84019 -10.1133 -7.79225 20
683 1 7.06898 -16.5324 0.504312 10
684 1 4.36521 -6.8433 7.56317 22
685 1 15.2176 1.89796 -8.52854 11
686 1 1.10531 -14.3203 -5.70373 20
687 1 -11.7988 -3.22168 10.3339 18
688 1 -4.02765 -18.6377 -0.250898 11
689 1 -7.75578 -12.0347 -4.58149 20
690 1 -9.72493 0.660929 10.6944 20
691 1 -6.88881 -18.0935 1.29336 11
692 1 14.025 4.99235 -7.26755 15
693 1 -3.66744 16.1976 4.18822 11
694 1 -5.29443 3.62107 7.69408 20
695 1 -13.5173 6.58381 2.61215 12
696 1 8.36405 -1.81853 2.37067 21
697 1 -11.991 -1.48674 -9.55007 16
698 1 -1.67744 5.99548 -3.54094 20
699 1 10.3143 0.186028 -8.19233 21
700 1 7.13477 11.7283 13.5067 14
701 1 8.30559 6.47957 -5.23291 22
702 1 -13.9213 1.41761 -7.00601 13
703 1 -11.9992 -6.73441 -7.00375 19
704 1 -1.44028 7.01924 17.4447 13
705 1 3.74543 6.43455 -11.0391 22
706 1 11.643 12.443 5.8718 12
707 1 -2.75565 -0.853186 9.40457 20
708 1 0.0432127 -16.7866 -3.55136 14
709 1 -6.87495 -17.9356 7.29828 11
710 1 -3.17185 -6.91196 5.93456 22
711 1 14.5718 9.20048 9.32238 13
712 1 2.29294 -6.66145 -7.84155 19
713 1 -7.34312 7.62349 -2.12486 19
714 1 6.86972 6.97696 3.1441 20
715 1 -8.75787 -5.52191 3.85978 21
716 1 8.65142 7.27673 -11.9865 15
717 1 -1.92782 -15.9495 -5.80816 17
718 1 1.37793 -19.9459 0.622487 13
719 1 -0.782294 -15.5085 -0.470443 21
720 1 5.25051 4.38442 -8.9321 21
721 1 7.75137 18.0677 -0.136825 8
722 1 -2.4229 -0.125111 -16.187 16
723 1 -0.917911 0.425151 13.4072 20
724 1 1.05434 5.37086 -16.053 21
725 1 -9.76588 -1.96853 -12.5235 16
726 1 -8.80043 -5.15212 -2.8982 24
727 1 2.32211 17.73 -7.31001 10
728 1 -3.14074 -6.03645 -16.5907 12
729 1 -5.79166 -6.8151 0.231324 24
730 1 11.1867 6.60313 -6.85729 23
731 1 9.39288 -6.0797 -0.581801 15
732 1 -6.21265 6.84857 15.8174 11
733 1 7.30396 -10.0967 3.10313 18
734 1 15.1395 -6.78808 -0.779247 10
735 1 13.1845 -5.31644 11.452 8
736 1 0.150257 9.53268 6.8127 21
737 1 -12.5485 2.06197 13.927 10
738 1 -8.09518 5.1874 12.4503 19
739 1 -3.46756 -13.957 6.76241 17
740 1 9.99936 1.57651 2.69593 21
741 1 6.89111 8.35633 12.8807 23
742 1 -15.6867 -3.02816 0.855581 11
743 1 10.2868 -8.9064 -2.00392 15
744 1 -10.8206 12.5756 -4.66087 11
745 1 4.60008 7.93031 5.16981 21
746 1 1.94345 -17.3542 5.68569 13
747 1 4.63913 0.670077 13.8765 21
748 1 1.2729 14.7553 4.35595 17
749 1 2.07445 -11.4488 5.00337 21
750 1 -8.39853 -2.39678 -1.76551 17
751 1 3.34229 3.16756 12.2414 23
752 1 -14.6254 -6.09035 -2.96163 13
753 1 1.68577 10.2133 15.4461 17
754 1 4.84799 12.6715 0.300563 21
755 1 -11.2359 -11.4725 5.1504 17
756 1 -3.42374 -17.376 6.30523 13
757 1 7.47498 -4.36544 7.38927 20
758 1 12.6616 -5.06147 8.33845 13
759 1 8.06009 7.46898 6.59275 24
760 1 0.949983 -10.0944 -10.9622 18
761 1 -2.718 0.858317 -13.3578 21
762 1 -3.88617 -0.443114 12.6707 19
763 1 -0.935254 16.384 2.36177 14
764 1 13.1426 0.844554 3.17779 20
765 1 3.20659 8.568 -5.895 19
766 1 -3.10646 7.88554 14.1767 20
767 1 7.21428 7.46164 10.2308 17
768 1 6.8391 -4.38226 -13.9116 20
769 1 -5.95318 -13.169 -1.20085 24
770 1 13.5215 -0.24275 5.70644 18
771 1 2.77894 -2.47186 -11.5478 19
772 1 0.405244 7.26846 15.2428 19
773 1 10.2856 -13.4006 -7.49599 10
774 1 6.30859 5.15904 -15.8268 16
775 1 -2.88669 -7.30749 -4.71596 19
776 1 11.7922 5.30077 -11.4943 14
777 1 14.1882 -3.45807 -1.95829 16
778 1 -0.234951 -5.07932 11.8806 15
779 1 -1.96391 -9.86886 -11.3764 22
780 1 7.79999 10.7984 -1.21259 19
781 1 -11.7133 4.60309 3.98155 19
782 1 11.9117 3.96641 -5.33309 18
783 1 15.5309 5.61097 3.86876 14
784 1 2.78855 -5.87863 -16.4735 17
785 1 -7.40788 12.3132 5.38951 16
786 1 16.0506 7.78125 6.5159 15
787 1 11.3186 12.6447 -5.82392 10
788 1 4.87439 2.22296 -14.609 24
789 1 10.5403 -3.36813 -1.2995 21
790 1 -10.9308 1.75224 -1.76562 18
791 1 10.7083 6.65057 3.18658 19
792 1 -11.4707 -11.1125 -0.799854 13
793 1 -9.65639 9.72421 -9.85075 11
794 1 5.84819 3.60397 9.73752 21
795 1 -11.6474 -1.27957 -6.19978 20
796 1 -10.6082 5.3465 6.9295 18
797 1 -3.14778 3.5829 -8.24833 19
798 1 11.1526 -7.97169 -7.72278 18
799 1 -10.4597 -9.44681 -6.2435 15
800 1 13.8132 -9.4315 -2.47381 16
801 1 -13.2003 4.28797 0.679426 14
802 1 -5.4845 -6.91338 -2.68112 20
803 1 12.8764 6.71162 8.54916 22
804 1 -6.83993 -8.35163 5.69197 22
805 1 8.90899 1.51953 17.7584 12
806 1 12.6856 -2.06328 8.93532 16
807 1 7.6962 -4.36669 3.99587 20
808 1 -10.7489 2.03667 1.66715 21
809 1 0.459903 10.116 9.77982 22
810 1 4.01324 9.15722 -11.7637 21
811 1 0.758345 -8.05358 -16.4014 16
812 1 -4.32202 13.6971 6.56648 20
813 1 -12.056 -12.2444 8.12524 13
814 1 8.74816 10.7437 -5.00576 20
815 1 1.03008 8.53707 12.3189 23
816 1 12.0081 -3.56898 -4.54206 20
817 1 5.83108 -6.60896 10.4795 17
818 1 -0.669362 13.2198 -12.286 16
819 1 2.89897 10.9241 -9.80478 20
820 1 -5.56664 -2.13252 10.1128 22
821 1 16.9738 4.53682 6.63165 10
822 1 -1.97131 -6.95996 -11.9019 17
823 1 14.0683 10.0988 0.572867 14
824 1 -13.8014 2.87376 -1.94987 16
825 1 -3.38293 -10.3245 7.24476 19
826 1 4.05227 14.5455 -11.3362 10
827 1 5.84001 -2.7872 10.1581 18
828 1 0.415917 -12.8368 -2.79135 19
829 1 -6.62349 16.4765 1.83415 10
830 1 -14.9827 6.08504 -1.98098 10
831 1 9.52311 -2.06854 -6.84567 20
832 1 3.14554 -13.2365 -13.3765 9
833 1 -6.05588 7.28754 2.71189 21
834 1 13.8893 10.3642 -5.70422 13
835 1 -5.42265 -1.73917 7.12022 21
836 1 6.93269 -3.49503 -17.9078 12
837 1 -8.30137 -11.1691 -10.8654 15
838 1 0.664938 -11.0251 -4.95788 21
839 1 -3.22453 11.6602 13.2432 15
840 1 6.78988 -13.4219 -0.13423 16
841 1 -1.14393 10.1609 -14.1145 17
842 1 16.3148 1.00129 -5.17988 10
843 1 8.38826 7.21405 0.588533 20
844 1 2.20456 -18.945 -2.39509 11
845 1 3.83642 -3.07637 -17.029 16
846 1 10.3626 1.37717 -1.51463 19
847 1 -1.46395 3.8324 -13.902 21
848 1 -2.29811 -9.36546 4.45324 18
849 1 5.61391 9.4055 -5.60415 22
850 1 7.82441 2.39928 -9.0952 18
851 1 -10.6847 4.00334 -3.69086 17
852 1 -13.5289 4.61849 8.61398 14
853 1 1.29517 6.25627 19.1145 12
854 1 -8.08364 -8.20027 9.23514 21
855 1 6.3861 9.55506 7.50061 20
856 1 0.994817 -15.4136 2.63146 24
857 1 0.497879 7.52171 -4.98464 19
858 1 -5.82986 7.45451 12.8809 19
859 1 -7.12701 -0.430626 11.978 18
860 1 -9.9281 11.5028 7.47325 15
861 1 8.66457 3.58813 -4.22849 18
862 1 -5.78544 -7.72755 11.5354 19
863 1 4.72289 -12.3663 4.33781 18
864 1 11.6488 3.19682 9.60768 18
865 1 9.99281 -5.55364 -4.49984 19
866 1 5.47937 -12.2128 -10.94 15
867 1 -7.51158 0.3109 -11.6015 16
868 1 -0.559285 2.92483 -16.7673 17
869 1 7.28526 13.87 10.2074 12
870 1 -11.0995 -6.0574 13.5449 13
871 1 -4.61652 6.28775 -6.91427 20
872 1 -14.1876 4.34463 -5.46182 15
873 1 10.99 11.2076 0.63806 14
874 1 -8.97465 -16.812 4.41246 13