ITEM: TIMESTEP
105000
ITEM: NUMBER OF ATOMS
500
ITEM: BOX BOUNDS pp pp pp
-30.0 30.0
-30.0 30.0
-30.0 30.0
ITEM: ATOMS id type x y z Coordination
1 1 -8.39838 -0.779186 -6.15492 13
2 1 -6.57029 -3.83295 -6.47376 18
3 1 -7.18399 -5.84974 -3.50382 18
4 1 -8.68384 -3.05493 -4.17017 14
5 1 -5.56216 -7.08843 -6.18305 12
6 1 -5.47167 -8.42299 -3.02634 12
7 1 -4.34226 -5.36046 -8.57137 13
8 1 -4.81706 -2.09412 -8.61038 16
9 1 -5.10757 -0.95841 -5.88836 24
10 1 -3.69806 -3.95216 -5.83532 24
11 1 -3.68742 -6.12536 -3.99019 21
12 1 -5.44961 -3.01682 -3.3437 21
13 1 -2.10134 -6.99404 -6.82897 16
14 1 -0.088227 -9.56339 -5.41491 9
15 1 -2.24018 -8.80957 -3.85119 15
16 1 -1.24074 -5.44417 -9.23476 12
17 1 -2.00131 -2.68701 -8.63329 20
18 1 -1.98575 -1.14744 -6.14531 21
19 1 -0.56806 -4.15226 -5.95545 22
20 1 -0.124879 -5.96616 -3.22049 21
21 1 -2.12903 -3.20055 -3.27247 23
22 2 -5.70959 -5.30596 -7.15914 15
23 2 -8.27916 -2.73787 -6.20846 10
24 2 -8.48152 -5.64036 -2.12417 12
25 2 -9.84812 -2.73609 -2.68325 10
26 2 -8.44357 -1.01016 -4.07202 18
27 2 -6.92898 -4.1217 -4.32645 19
28 2 -6.4399 -7.88931 -1.65645 13
29 2 -5.6081 -6.93508 -4.29782 17
30 2 -3.83415 -9.22754 -2.90846 14
31 2 -2.61263 -6.43877 -8.76459 13
32 2 -5.08856 -2.72174 -6.61644 21
33 2 -5.45379 -0.418387 -8.81071 13
34 2 -3.85507 -3.71375 -9.0986 14
35 2 -3.65166 -6.0165 -0.798913 22
36 2 -5.48364 -3.12259 -1.24685 20
37 2 -5.31702 -1.21995 -3.8753 22
38 2 -3.72182 -3.97017 -3.76593 22
39 2 -1.72013 -8.57121 -5.79537 13
40 2 -1.43756 -8.6087 -0.846799 17
41 2 -1.9892 -6.88939 -3.14925 21
42 2 -3.41507 -6.11489 -5.98423 19
43 2 -0.637775 -9.76561 -3.67394 11
44 2 -0.303964 -5.71132 -7.28195 17
45 2 -2.05623 -3.12733 -6.66465 25
46 2 -2.08347 -0.78999 -8.8546 15
47 2 -0.420459 -3.70569 -9.65082 13
48 2 -0.171802 -5.61974 -1.01517 23
49 2 -2.12555 -2.96668 -1.2217 22
50 2 -2.04594 -1.27192 -4.16878 23
51 2 -0.332311 -4.06542 -3.92428 24
52 1 -9.62538 -4.17726 -1.43038 12
53 1 -8.06172 -7.27796 -1.15766 10
54 1 -8.3047 -1.40815 -0.619733 21
55 1 -6.91208 -4.17634 -0.250818 21
56 1 -6.85668 -5.98291 2.17696 16
57 1 -8.33795 -2.77637 2.16667 17
58 1 -8.67558 -0.789738 4.22167 15
59 1 -6.48852 -3.92595 4.02218 20
60 1 -6.99721 -5.71152 6.28347 9
61 1 -8.53138 -2.81666 6.02409 11
62 1 -5.32637 -7.07446 -0.382037 19
63 1 -3.24378 -9.78584 -1.01068 14
64 1 -5.15763 -9.25577 2.06499 11
65 1 -5.07058 -7.35651 4.52422 16
66 1 -3.46727 -10.153 4.93042 6
67 1 -5.26618 -1.22616 -0.762995 21
68 1 -3.68527 -4.09808 -0.593423 23
69 1 -3.79753 -6.01094 2.05842 25
70 1 -5.10218 -2.92012 2.08911 24
71 1 -4.96594 -0.917562 4.80002 25
72 1 -3.29613 -4.05923 4.39167 22
73 1 -3.89123 -5.50999 7.35088 17
74 1 -5.30447 -2.98123 6.87704 21
75 1 -5.28477 -1.03536 8.88948 10
76 1 -3.60219 -3.73461 9.75082 12
77 1 -1.83958 -6.51967 -0.987049 22
78 1 0.0716053 -9.29475 -1.9685 16
79 1 -1.92434 -8.68755 1.02415 15
80 1 -1.92254 -6.98993 4.79527 20
81 1 -0.306565 -9.12053 3.78613 13
82 1 -1.61065 -6.84058 8.60448 11
83 1 -1.90671 -0.896311 -0.600752 23
84 1 -0.205454 -3.6615 -0.561101 23
85 1 -0.222407 -5.96331 2.23444 25
86 1 -1.93458 -3.16591 1.94167 24
87 1 -1.7453 -1.21948 4.76951 23
88 1 -0.0934533 -3.66945 4.5019 21
89 1 -0.193306 -5.96152 6.31614 19
90 1 -1.89355 -3.03834 7.10869 23
91 1 -1.94384 -0.879023 9.30338 16
92 1 -0.183626 -3.66103 9.59674 15
93 2 -8.72714 -3.3918 0.22895 14
94 2 -7.04018 -6.16461 0.281168 14
95 2 -6.52436 -5.8834 4.2516 15
96 2 -8.19046 -2.66689 4.15812 18
97 2 -8.37864 -0.970908 1.46942 21
98 2 -6.77608 -4.01733 1.86672 18
99 2 -8.64229 -0.910074 6.26026 11
100 2 -7.0063 -3.94971 6.63467 13
101 2 -4.74961 -9.25195 4.02407 11
102 2 -5.34129 -7.26672 1.83412 16
103 2 -3.86073 -9.42721 0.794431 15
104 2 -5.29546 -6.58519 6.59997 14
105 2 -3.5311 -5.97067 4.14411 23
106 2 -4.80302 -2.75874 4.0142 23
107 2 -5.16201 -1.17976 1.38586 24
108 2 -3.67632 -4.01539 1.32755 25
109 2 -3.07032 -5.36864 9.05346 12
110 2 -5.07034 -2.99278 8.69803 13
111 2 -5.24599 -0.981368 6.75952 19
112 2 -3.29641 -3.79686 6.26242 24
113 2 -2.1345 -8.77643 4.31343 17
114 2 -1.80938 -6.79152 1.64191 21
115 2 -0.205842 -9.49074 2.00488 14
116 2 -2.05109 -6.33052 6.75832 16
117 2 -0.273611 -5.77829 4.3233 21
118 2 -1.83251 -2.74969 3.85255 24
119 2 -1.88417 -1.21356 1.46212 22
120 2 -0.27432 -4.08145 1.36213 23
121 2 -0.0813249 -5.62367 9.00841 14
122 2 -1.99517 -2.76738 9.1728 18
123 2 -1.80649 -1.09348 6.80022 22
124 2 -0.182659 -3.85581 6.60135 22
125 1 -10.1175 -0.712473 -2.73417 12
126 1 -7.12816 0.379767 -8.77192 9
127 1 -9.25521 5.11617 -4.99989 7
128 1 -6.79705 2.0613 -5.96505 18
129 1 -6.87272 0.0567818 -3.45767 22
130 1 -8.69543 2.64314 -3.24632 17
131 1 -6.85047 6.01639 -3.34344 18
132 1 -3.61947 0.312831 -8.28956 20
133 1 -5.42367 3.03628 -8.56678 14
134 1 -5.74527 5.23995 -5.9641 17
135 1 -3.51728 2.21833 -6.12693 22
136 1 -3.72123 -0.150242 -3.29558 22
137 1 -5.06845 3.06068 -3.4098 21
138 1 -3.3276 6.6698 -8.37502 10
139 1 -3.557 8.10008 -6.01723 12
140 1 -3.49468 5.69977 -3.47565 22
141 1 -4.85104 8.56363 -3.04153 15
142 1 -0.619441 0.246102 -8.59878 19
143 1 -1.8765 3.26608 -8.90621 14
144 1 -1.98955 4.8302 -6.17093 23
145 1 -0.0919119 1.82449 -5.85437 25
146 1 -0.485322 -0.130895 -3.36203 23
147 1 -1.8139 2.75442 -3.34168 23
148 1 -0.246135 5.81277 -8.45709 15
149 1 -0.46148 7.5365 -6.27913 18
150 1 -0.19914 5.63139 -3.46912 23
151 1 -2.18713 8.64948 -3.61571 15
152 2 -10.1226 -0.391781 -0.749569 13
153 2 -10.0378 1.30211 -2.9982 10
154 2 -6.83837 0.315726 -6.64821 18
155 2 -6.97387 2.15147 -9.0551 8
156 2 -6.86246 -0.352824 -1.48822 23
157 2 -8.33405 2.83787 -1.03966 17
158 2 -8.42754 4.59462 -3.23051 14
159 2 -6.93388 2.35839 -4.05304 21
160 2 -7.51125 5.60454 -5.55519 11
161 2 -6.96185 6.00533 -0.923325 18
162 2 -6.43906 7.86799 -2.73778 15
163 2 -3.61712 0.271346 -6.4371 22
164 2 -5.30735 3.23428 -6.5183 17
165 2 -3.42893 2.24816 -8.62022 14
166 2 -3.54372 -0.0860375 -1.37669 23
167 2 -5.26565 2.95269 -1.44483 25
168 2 -5.30066 4.90601 -3.86681 20
169 2 -3.55125 1.96823 -3.88222 24
170 2 -4.38182 6.35208 -6.77436 12
171 2 -3.54211 5.4201 -1.44793 23
172 2 -4.79362 8.52489 -0.868196 17
173 2 -3.56767 7.51191 -4.17073 20
174 2 -0.382544 -0.00709756 -6.45348 23
175 2 -1.56477 2.96785 -6.78537 22
176 2 -2.13638 5.18697 -8.51759 13
177 2 -0.284075 2.00617 -9.50914 17
178 2 -0.308822 -0.0354046 -1.21616 24
179 2 -1.7774 2.80147 -1.28264 24
180 2 -1.9526 4.66162 -4.03916 21
181 2 -0.0976179 2.04016 -3.84033 21
182 2 -0.170829 5.64773 -6.17616 21
183 2 -2.29316 7.79525 -7.28916 12
184 2 -0.106486 5.81182 -1.31063 20
185 2 -1.91042 8.50936 -1.71414 20
186 2 -3.36268 10.3013 -3.14525 11
187 2 -0.471718 7.79079 -4.2364 20
188 1 -9.995 1.58848 -0.943794 14
189 1 -10.3459 -0.118194 1.25266 13
190 1 -10.4417 2.03767 3.21373 8
191 1 -8.45268 4.83738 -1.26358 15
192 1 -6.63303 1.59402 -0.87003 22
193 1 -6.60124 -0.0256629 2.22978 23
194 1 -8.49877 3.00949 1.12574 20
195 1 -8.66675 4.97917 3.18508 9
196 1 -7.16156 2.39207 4.447 19
197 1 -7.09789 0.186792 6.39984 14
198 1 -6.81112 7.92235 -0.761745 13
199 1 -6.62844 5.75474 1.3322 19
200 1 -7.14104 8.07169 2.99411 9
201 1 -5.45612 5.08813 8.66871 9
202 1 -5.22517 4.681 -0.68419 25
203 1 -3.40499 2.07815 -0.743081 23
204 1 -3.52199 -0.206432 1.81237 23
205 1 -5.18971 2.8451 1.70279 22
206 1 -5.42948 4.74673 4.6838 20
207 1 -3.60612 2.02355 4.56558 23
208 1 -3.43883 0.0854267 6.87053 21
209 1 -5.60866 2.91386 7.25285 17
210 1 -3.76797 2.02485 9.63504 14
211 1 -3.20862 7.2801 -0.669288 25
212 1 -3.59513 5.68054 1.92765 24
213 1 -4.82911 8.97534 1.1582 14
214 1 -3.9382 7.73352 3.98664 16
215 1 -3.79374 5.95798 6.55672 16
216 1 -1.5827 4.75707 -0.790034 23
217 1 -0.32556 1.79939 -0.655401 24
218 1 -0.356017 -0.162025 1.96781 26
219 1 -1.95929 2.98469 1.84217 24
220 1 -1.79191 4.88327 4.3933 23
221 1 -0.439207 1.76381 4.5232 25
222 1 -0.150829 0.0512218 7.11739 21
223 1 -1.90477 2.99314 7.09631 24
224 1 -2.08786 5.17694 9.31503 13
225 1 -0.314377 2.23537 9.70738 15
226 1 -3.11091 10.233 -1.17461 11
227 1 -0.131803 7.86787 -0.873992 20
228 1 -0.0875367 5.8189 1.58525 22
229 1 -1.74791 9.0536 1.89568 16
230 1 -0.403403 7.5804 3.73639 20
231 1 -0.365199 6.13148 7.01423 19
232 1 -1.96225 9.14048 5.75884 10
233 2 -10.0804 0.242797 3.35514 13
234 2 -10.0927 1.7917 1.21395 11
235 2 -6.72556 0.130366 4.32567 20
236 2 -8.8602 2.98457 3.69999 14
237 2 -8.39229 4.92434 1.16163 16
238 2 -6.81523 1.69646 1.24293 24
239 2 -6.97228 2.09345 6.41223 14
240 2 -6.93682 5.80083 3.35939 17
241 2 -6.70194 7.92403 1.15333 15
242 2 -3.25408 -0.0618281 3.94817 23
243 2 -5.24923 2.88851 3.79198 21
244 2 -4.95894 4.60784 1.13837 23
245 2 -3.54372 1.85885 1.16972 24
246 2 -3.74972 0.0292975 9.04066 15
247 2 -5.22579 3.17888 9.08713 11
248 2 -5.48578 4.81916 6.56378 15
249 2 -3.79947 1.98697 6.7006 21
250 2 -3.69849 5.58294 3.95565 22
251 2 -5.56199 8.95782 3.18569 10
252 2 -3.33036 7.64194 1.3386 22
253 2 -3.73085 5.72038 8.66103 13
254 2 -3.28956 7.7302 5.94821 14
255 2 -0.24033 -0.0809691 3.85379 23
256 2 -1.92075 2.98819 3.78745 22
257 2 -1.8576 4.93276 1.23867 25
258 2 -0.497975 1.77078 1.40229 22
259 2 -0.244937 0.265063 9.30113 18
260 2 -2.0904 3.08406 9.18759 15
261 2 -1.84393 4.9417 6.49118 21
262 2 -0.548015 1.87641 6.51746 21
263 2 -0.213315 5.52484 3.63165 22
264 2 -1.93742 8.62837 3.65511 18
265 2 -2.70982 10.1518 0.603584 11
266 2 -0.0808484 7.90877 1.31787 19
267 2 -0.0601508 5.53 8.95039 14
268 2 -0.373252 7.91196 5.94742 17
269 1 1.33098 -6.70961 -6.01298 18
270 1 3.1985 -9.31902 -5.32421 10
271 1 1.12395 1.25671 -10.957 8
272 1 1.19248 -4.61565 -8.35332 13
273 1 0.653877 -2.44487 -10.3631 12
274 1 1.08359 -1.25642 -6.1469 22
275 1 2.9872 -4.00774 -6.10047 24
276 1 3.04881 -5.71165 -3.31937 22
277 1 1.35217 -2.92646 -3.34769 25
278 1 4.49339 -6.60812 -6.98594 12
279 1 5.53303 -8.11179 -4.00327 13
280 1 3.95231 -2.78771 -8.82708 14
281 1 4.77689 -1.00662 -6.30987 21
282 1 6.20439 -3.74921 -6.25582 14
283 1 6.52514 -5.63033 -4.31387 16
284 1 4.75875 -3.06272 -3.64392 21
285 1 8.20853 0.525185 -6.20464 13
286 1 8.14682 -2.775 -4.33485 16
287 2 1.55868 -8.64622 -5.53702 14
288 2 1.65147 -8.87861 -0.999146 14
289 2 1.55251 -6.07396 -4.27255 19
290 2 3.80196 -9.03572 -3.54489 11
291 2 2.77415 -5.68647 -7.04198 16
292 2 1.00526 -3.06489 -6.62077 24
293 2 0.89952 -0.617886 -9.70642 17
294 2 2.21409 -3.27735 -9.34479 12
295 2 2.92666 -5.58064 -1.40117 22
296 2 1.31225 -2.66866 -1.31953 21
297 2 1.24546 -0.883785 -3.98166 21
298 2 2.97308 -3.65511 -4.02657 23
299 2 4.67796 -8.31175 -0.688978 16
300 2 4.70919 -8.01748 -5.79894 11
301 2 5.9403 -5.5839 -6.32302 12
302 2 4.74158 -2.82886 -6.91797 18
303 2 4.4275 -1.01882 -9.22184 12
304 2 6.47579 -5.91853 -0.681973 18
305 2 4.7179 -2.86079 -1.48041 24
306 2 4.64387 -1.12345 -4.28958 23
307 2 7.88534 -6.60036 -3.29704 12
308 2 4.8635 -6.19937 -3.46128 22
309 2 6.4765 -3.59498 -4.43477 17
310 2 9.53679 -6.19091 -1.18086 11
311 2 7.92925 -2.94707 -0.68752 20
312 2 8.25992 -0.733262 -4.40154 17
313 2 9.2765 -3.90075 -3.37337 12
314 1 1.51357 -6.76477 -0.588617 20
315 1 3.37023 -9.29997 -1.69488 14
316 1 1.4985 -8.88066 1.22715 18
317 1 1.98508 -7.2443 4.78484 18
318 1 3.12869 -9.76483 3.87338 11
319 1 1.53199 -6.82583 8.97477 8
320 1 1.59178 -0.775794 -0.760694 22
321 1 2.99717 -3.69949 -0.646792 24
322 1 3.14627 -5.95105 2.01595 23
323 1 1.49437 -2.89058 1.86336 24
324 1 1.53313 -0.986297 4.34363 22
325 1 3.13537 -3.86524 4.65851 23
326 1 3.6639 -5.63233 6.92466 15
327 1 1.5743 -2.83354 7.15054 23
328 1 1.36719 -0.827637 9.62541 16
329 1 3.10577 -3.87627 9.66588 12
330 1 4.75554 -6.27713 -1.41243 22
331 1 7.82585 -7.24615 -1.59448 13
332 1 4.80174 -8.69154 1.2984 14
333 1 4.89746 -6.90217 4.16097 15
334 1 4.95763 -1.0361 -0.934205 22
335 1 6.38116 -3.87994 -0.500763 22
336 1 6.52183 -5.96946 1.50236 17
337 1 4.69802 -2.87487 2.17852 23
338 1 4.94475 -0.907643 4.69394 24
339 1 8.53783 -2.73828 6.23617 9
340 1 6.13397 -4.09223 5.11496 17
341 1 4.85723 -2.63203 7.53255 20
342 1 4.71936 -0.640748 9.69406 13
343 1 9.68815 -5.67148 -3.04583 10
344 1 8.9531 -5.08835 3.65926 10
345 1 8.19746 -1.07354 -0.600026 21
346 1 9.90141 -3.06818 -1.66199 16
347 1 9.69926 -5.44339 0.496347 15
348 1 7.97252 -2.86101 1.63095 20
349 1 8.16788 0.357376 4.67197 15
350 1 10.9266 -2.8805 1.85511 11
351 1 6.77372 -0.38724 7.14548 16
352 1 10.9495 -0.158859 -0.321043 13
353 2 1.35607 -9.05239 4.38963 14
354 2 1.57813 -6.78954 1.38979 21
355 2 3.27812 -9.45407 1.97984 14
356 2 1.5628 -6.65314 6.9694 17
357 2 2.90258 -5.80747 4.10372 23
358 2 1.6116 -2.99277 3.97581 24
359 2 1.38894 -1.01962 1.3945 25
360 2 2.99973 -4.04102 1.31652 22
361 2 2.98812 -5.60596 8.87442 12
362 2 1.44409 -2.68338 9.11832 19
363 2 1.4622 -0.895086 6.38842 25
364 2 3.33822 -3.49894 6.55955 21
365 2 3.86815 -8.36185 4.85948 12
366 2 5.10096 -7.07882 2.26169 16
367 2 5.17835 -5.76529 5.67048 15
368 2 8.22112 -4.05703 5.07118 10
369 2 5.07482 -2.99882 4.0714 20
370 2 4.78701 -0.934659 1.49109 25
371 2 6.18964 -4.04576 1.47017 20
372 2 4.43311 -2.56208 9.42681 14
373 2 4.77836 -0.715545 6.60257 22
374 2 6.4603 -2.75295 6.50034 16
375 2 8.30604 -6.25403 2.22104 12
376 2 9.47489 -3.70107 2.61449 14
377 2 7.96033 -0.917251 1.58358 22
378 2 10.8762 -3.85892 -0.138895 13
379 2 8.41937 -1.03608 5.9386 11
380 2 11.0185 -1.09342 1.35802 12
381 1 2.71905 -0.217572 -8.73876 22
382 1 1.37017 2.89475 -8.43639 20
383 1 1.52961 4.68625 -5.93942 25
384 1 3.10272 1.72499 -5.92184 24
385 1 3.08582 -0.156103 -3.45443 24
386 1 1.58551 2.69407 -3.28085 23
387 1 2.53797 6.39748 -8.56806 10
388 1 2.68515 7.76806 -6.16683 13
389 1 3.11695 5.74081 -3.22513 23
390 1 1.17715 8.42938 -3.66957 17
391 1 5.97575 -0.14381 -8.7909 12
392 1 4.03738 2.38543 -8.90273 14
393 1 4.49298 4.73419 -6.03224 18
394 1 6.27093 2.761 -6.72895 16
395 1 6.39419 -0.434404 -3.36898 23
396 1 4.6996 2.71988 -3.3668 25
397 1 6.42132 5.82961 -3.36934 18
398 1 4.56143 8.64322 -3.81221 12
399 1 8.22416 4.48712 -5.64832 9
400 1 9.68361 -0.142229 -3.23138 15
401 1 7.94221 2.33569 -3.8041 19
402 2 3.01199 -0.144011 -6.81778 23
403 2 1.55329 2.67931 -6.37013 22
404 2 1.30991 4.84446 -8.71786 14
405 2 2.48191 1.64479 -9.60484 14
406 2 3.22231 -0.110409 -1.30635 23
407 2 1.45755 2.6579 -1.1574 23
408 2 1.47826 4.47379 -4.04472 23
409 2 3.19527 1.78165 -3.80041 21
410 2 3.44137 6.10042 -6.97258 15
411 2 1.16308 7.59677 -7.57805 12
412 2 3.19388 5.54817 -1.29121 23
413 2 1.40954 8.95174 -1.7628 16
414 2 4.4872 9.01699 -1.95674 16
415 2 2.72309 7.70875 -4.19312 19
416 2 6.46603 -0.160802 -6.85002 17
417 2 4.27142 2.87431 -6.85838 20
418 2 6.0366 1.82461 -8.68197 12
419 2 6.69662 -0.0979458 -1.50241 24
420 2 4.74958 2.74584 -1.47247 25
421 2 4.78131 5.08322 -4.12902 22
422 2 6.26986 1.60251 -3.62222 21
423 2 6.43639 4.71085 -6.60497 11
424 2 6.52589 5.90319 -1.15909 19
425 2 5.40342 7.97311 0.320627 17
426 2 6.12664 7.68234 -3.4053 12
427 2 7.89071 2.4665 -5.76655 12
428 2 9.8554 -1.16642 -1.65008 17
429 2 7.81786 2.98512 -1.17521 18
430 2 7.92293 4.60005 -3.69942 16
431 2 9.57215 1.73592 -2.91953 17
432 2 9.37496 4.91712 -0.373325 11
433 1 1.47812 4.52172 -0.851301 22
434 1 3.06112 1.83089 -0.738335 24
435 1 3.15387 -0.0692785 1.99904 21
436 1 1.27857 2.62049 1.86542 23
437 1 1.40442 4.7253 4.44266 24
438 1 2.87317 2.18346 4.42182 20
439 1 3.20723 0.163376 7.06647 22
440 1 1.24735 3.06104 6.86637 21
441 1 1.62958 4.86839 9.64972 12
442 1 2.92195 2.10763 9.38974 15
443 1 2.97045 9.93917 -1.0572 13
444 1 3.55724 7.3028 -0.372293 22
445 1 3.0365 5.52471 1.96314 24
446 1 1.72493 8.86174 1.88586 15
447 1 3.1114 7.74066 4.00778 17
448 1 2.84743 6.42962 7.27913 16
449 1 1.34881 8.99318 5.8879 9
450 1 4.85362 4.64065 -0.903404 21
451 1 6.32998 1.84176 -0.897117 23
452 1 6.34861 0.0812408 2.02262 22
453 1 4.67422 2.87989 2.03889 23
454 1 4.52553 4.93967 5.1984 20
455 1 5.63836 1.79981 5.13332 22
456 1 6.2637 2.44116 8.44617 14
457 1 4.84361 4.84104 8.78179 10
458 1 6.27961 8.19726 -1.51603 12
459 1 6.14139 6.22969 0.711536 18
460 1 4.54119 9.27326 1.57635 13
461 1 6.42934 7.21576 3.6881 12
462 1 6.63219 5.60678 6.84581 12
463 1 8.09313 4.84299 -1.78251 17
464 1 9.8607 2.69781 -1.20995 14
465 1 9.65427 0.215113 2.09495 17
466 1 8.28908 2.46453 0.941426 19
467 1 7.58209 4.57631 3.5847 19
468 1 10.0218 3.01228 3.69606 10
469 1 8.39976 3.00755 6.72161 12
470 1 9.57266 5.59103 1.35894 10
471 2 3.12347 0.152584 3.87301 25
472 2 1.06515 2.81275 3.94728 23
473 2 1.46358 4.53277 1.21831 23
474 2 2.97104 1.77525 1.23588 24
475 2 2.91859 0.218912 9.79398 14
476 2 1.23425 3.12392 9.34698 16
477 2 1.09586 4.76926 6.4546 22
478 2 2.967 1.84772 6.38529 22
479 2 3.19715 5.61799 3.90916 20
480 2 1.43493 8.63414 3.82316 19
481 2 2.93161 10.0785 0.791088 12
482 2 3.07805 7.56089 1.47144 20
483 2 3.05111 5.90269 9.18983 10
484 2 2.71382 7.69211 5.92838 14
485 2 6.34542 0.205067 3.96784 20
486 2 4.67565 3.0482 4.05072 18
487 2 4.765 4.66738 1.01102 20
488 2 6.35654 1.87926 1.29193 24
489 2 5.94681 0.453493 8.80651 14
490 2 4.50746 3.00877 9.1149 14
491 2 4.75866 5.78322 7.0056 14
492 2 7.14906 1.73548 6.26087 16
493 2 6.47639 5.66393 4.84121 13
494 2 4.89392 8.10854 3.41095 15
495 2 7.38839 6.17938 2.17663 12
496 2 9.4357 1.30738 3.57098 16
497 2 8.80019 3.80841 5.02611 12
498 2 9.22958 3.76149 2.15175 13
499 2 9.86225 1.39083 0.294948 18
500 2 7.25547 4.07036 7.74344 12
