ITEM: TIMESTEP
381000
ITEM: NUMBER OF ATOMS
500
ITEM: BOX BOUNDS pp pp pp
-30.0 30.0
-30.0 30.0
-30.0 30.0
ITEM: ATOMS id type x y z Coordination
1 1 -8.71322 -1.29961 -6.47235 12
2 1 -5.18627 -3.24687 -8.24318 14
3 1 -5.15003 -7.21743 -6.06378 16
4 1 -8.82982 -3.26136 -3.25995 13
5 1 -3.85943 -6.48576 -8.90556 13
6 1 -4.86046 -9.24233 -3.33728 13
7 1 -2.02994 -6.8576 -5.55245 22
8 1 -2.49562 -9.18403 -9.25017 9
9 1 -5.35411 -1.54522 -5.61109 21
10 1 -3.5658 -4.03593 -5.83988 22
11 1 -3.74392 -5.64345 -2.9897 24
12 1 -5.53405 -3.23628 -3.08201 23
13 1 -3.94604 -9.91691 -6.93904 9
14 1 -0.546108 -9.87143 -6.92601 11
15 1 -2.01085 -8.91069 -3.14572 14
16 1 -0.671787 -6.03691 -8.94261 16
17 1 -2.21792 -3.33446 -8.97301 16
18 1 -2.19662 -1.0235 -6.68698 20
19 1 -0.744295 -3.9185 -6.48378 21
20 1 -0.332664 -5.86297 -3.16175 20
21 1 -2.19697 -2.96281 -3.25862 23
22 2 -4.32989 -8.14627 -7.79471 11
23 2 -8.58356 -3.20984 -5.37593 12
24 2 -6.51777 -6.33284 -5.1531 15
25 2 -8.46839 -2.58855 0.118348 15
26 2 -9.22807 0.179194 -5.46992 12
27 2 -7.26383 -4.16611 -3.04729 17
28 2 -3.46638 -9.52271 -2.10904 13
29 2 -4.1956 -9.54087 -5.01685 12
30 2 -2.04467 -7.2166 -9.46721 15
31 2 -2.25423 -9.95176 -7.30649 9
32 2 -5.4021 -3.41988 -6.2642 19
33 2 -5.40375 -1.5388 -8.95054 14
34 2 -3.9208 -4.65574 -8.63645 16
35 2 -3.74494 -5.33964 -0.859481 20
36 2 -5.16526 -2.92178 -0.807941 21
37 2 -5.48432 -1.23584 -3.56564 19
38 2 -3.94495 -3.92848 -3.87664 21
39 2 1.04241 -9.21226 -5.88721 12
40 2 -1.63307 -8.93426 0.17997 13
41 2 -2.35752 -6.93409 -3.58084 20
42 2 -3.67101 -5.90142 -6.09295 19
43 2 -0.223641 -9.53862 -2.63512 13
44 2 1.37402 -7.13706 -9.45046 10
45 2 -2.31042 -2.94137 -7.03005 20
46 2 -2.25973 -1.03882 -8.91719 16
47 2 -0.315812 -3.96224 -8.97533 15
48 2 -0.285056 -5.81151 -1.28292 20
49 2 -1.91542 -2.89606 -0.355608 20
50 2 -1.94086 -1.09002 -3.48045 19
51 2 -0.443956 -3.86795 -3.49549 20
52 1 -7.10947 -4.35979 -5.90654 15
53 1 -6.58777 -6.17971 -3.35539 14
54 1 -8.82167 -0.883293 -0.801725 17
55 1 -6.80385 -3.84428 -0.413357 18
56 1 -6.38169 -5.41029 2.32724 15
57 1 -7.77162 -2.1127 2.01264 18
58 1 -8.14163 -0.69111 5.21089 16
59 1 -6.56529 -3.24809 4.80513 17
60 1 -7.19867 -2.1529 7.93814 11
61 1 -4.6629 -2.33665 9.91888 12
62 1 -5.28316 -6.6195 -0.671201 17
63 1 -3.40282 -9.64487 -0.0701903 11
64 1 -4.92299 -8.27659 2.18353 14
65 1 -4.29889 -6.4488 5.04454 15
66 1 1.5471 -7.62013 3.517 13
67 1 -5.42401 -0.987447 -0.370209 22
68 1 -3.54433 -3.78752 0.166417 20
69 1 -3.11512 -5.06915 2.3943 23
70 1 -5.14917 -2.64385 2.45689 24
71 1 -4.61594 -0.132414 4.97689 20
72 1 -3.39084 -3.54793 5.76195 18
73 1 -3.04272 -7.51396 7.79415 10
74 1 -5.37349 -4.80859 7.28701 13
75 1 -5.59791 0.154205 8.20079 14
76 1 -1.96455 -2.27602 11.269 12
77 1 -2.06713 -6.46644 -0.492754 21
78 1 0.0494445 -9.50469 -0.614453 13
79 1 -1.64459 -8.09275 1.97463 16
80 1 -4.28342 -9.42284 5.59377 7
81 1 -0.76325 -5.02051 6.5873 20
82 1 -3.10907 -4.59094 9.13186 14
83 1 -1.78251 -0.615576 -0.500326 21
84 1 -0.295978 -3.58632 -1.34144 22
85 1 -0.171806 -5.32642 2.65009 20
86 1 -1.74015 -2.31076 2.30773 21
87 1 -1.65927 -0.492545 4.63177 20
88 1 0.305264 -2.51235 4.36212 19
89 1 -1.50737 -7.14526 4.83642 16
90 1 -1.04979 -2.38961 7.3357 15
91 1 0.193637 0.436541 6.77425 19
92 1 0.311377 -4.02564 9.44025 20
93 2 -8.3226 -0.57467 3.13763 17
94 2 -6.43306 -5.5902 0.382809 16
95 2 -5.29962 -4.70736 5.3828 15
96 2 -7.65199 -2.4335 5.83085 14
97 2 -10.1595 1.88645 2.69759 13
98 2 -6.77596 -3.71639 2.73504 16
99 2 -8.86947 1.01156 6.15984 15
100 2 -5.63212 -3.27935 8.5221 15
101 2 -4.18009 -7.86823 0.209667 17
102 2 -5.09049 -6.49933 3.10986 18
103 2 -5.16028 -7.0594 -2.75513 18
104 2 -3.83707 -5.91644 7.86282 13
105 2 -4.46977 -9.52672 3.69746 9
106 2 -3.13612 0.415991 3.76245 23
107 2 -6.06341 -0.788767 1.48435 20
108 2 -3.46786 -3.18781 2.15192 23
109 2 -4.65755 -2.32403 4.8515 20
110 2 -4.39569 -0.465463 9.46374 12
111 2 -5.09892 1.00234 6.58331 20
112 2 -2.57358 -5.72655 4.14992 19
113 2 -1.43302 -6.68928 8.19358 13
114 2 -1.58003 -6.25897 1.32251 21
115 2 -0.205586 -8.03002 3.46869 13
116 2 -3.15155 -8.0572 6.00931 11
117 2 0.247646 -5.68751 5.0947 18
118 2 -1.42986 -2.42345 5.23599 20
119 2 -1.62977 -0.0298456 1.61034 21
120 2 -0.371058 -3.47273 2.86043 18
121 2 -0.270522 -3.14562 11.24 12
122 2 0.460922 -3.84169 7.47485 19
123 2 0.061662 1.48461 8.53222 15
124 2 3.71842 -2.00008 7.02384 21
125 1 -10.2926 1.8277 -0.877742 14
126 1 -6.64129 -0.25051 -8.1616 14
127 1 -6.73884 4.31513 -6.81328 14
128 1 -7.52212 1.35625 -6.22906 16
129 1 -6.77314 0.00137331 -3.30392 24
130 1 -9.963 0.172979 -3.76212 13
131 1 -6.47842 5.28803 -4.01355 19
132 1 -4.08932 -0.0172226 -9.22131 14
133 1 -5.30426 2.76889 -9.16477 11
134 1 -5.00613 7.16546 -6.9762 15
135 1 -4.62557 1.55835 -6.22657 22
136 1 -3.76119 -0.0908929 -3.51154 23
137 1 -4.9917 2.90521 -3.13576 21
138 1 -4.31015 5.5254 -9.85323 8
139 1 -4.01203 9.82738 -5.29736 9
140 1 -4.28241 6.71976 -3.59754 24
141 1 -4.23144 9.97498 -1.60012 11
142 1 -0.743573 0.0340431 -9.11801 17
143 1 -2.21233 2.65274 -10.0256 11
144 1 -3.18586 4.39724 -5.51119 23
145 1 -1.11074 1.37147 -5.82457 20
146 1 -0.421204 -0.147414 -3.11553 20
147 1 -1.86619 2.96908 -3.32336 21
148 1 -1.92719 5.4262 -8.25334 16
149 1 -0.742791 10.0388 -7.09503 12
150 1 -0.398751 5.75268 -3.20097 21
151 1 1.28919 11.1529 -4.85759 10
152 2 -8.75572 -1.27219 -2.79504 16
153 2 -10.2078 1.92663 -2.7704 12
154 2 -6.88654 -0.481084 -6.04914 19
155 2 -5.55356 1.30413 -7.96474 15
156 2 -6.82448 -0.0188298 -1.21913 23
157 2 -8.98102 3.14725 -0.471818 15
158 2 -6.21052 5.78119 -6.02574 12
159 2 -6.03161 1.34846 -4.43873 21
160 2 -7.92135 3.27068 -5.93385 12
161 2 -7.67489 3.85749 -3.3957 18
162 2 -6.82093 5.96619 -0.755257 16
163 2 -3.98576 -0.111045 -5.96042 22
164 2 -5.63812 4.78797 -8.62437 12
165 2 -3.94609 1.62769 -10.1052 13
166 2 -3.52846 -0.195178 -0.203489 20
167 2 -5.81181 2.91599 -1.09448 22
168 2 -4.60011 4.67426 -3.98604 21
169 2 -3.42168 1.77253 -2.92139 21
170 2 -3.67602 6.62974 -8.44673 11
171 2 -3.67744 5.86576 -1.81995 24
172 2 -4.00457 7.71228 -5.35063 16
173 2 -4.57762 10.2997 -3.51021 10
174 2 -0.386279 -0.233219 -6.41016 21
175 2 -2.9551 2.41431 -5.79274 17
176 2 -2.78448 4.35131 -9.4806 12
177 2 -0.800389 1.84867 -9.17937 16
178 2 -0.0794257 0.244762 -0.965623 20
179 2 -2.12695 3.27015 -0.582599 23
180 2 -1.90675 4.78985 -3.60036 20
181 2 -0.435644 1.87011 -3.89812 23
182 2 -0.605934 7.64013 -4.01507 20
183 2 -1.78572 5.55932 -6.02988 21
184 2 -0.445885 6.43521 -1.10648 21
185 2 -2.41391 9.12314 -1.64831 15
186 2 1.28096 10.7031 -6.68587 10
187 2 -2.1271 9.68671 -5.28669 13
188 1 -9.0395 3.00107 -4.14345 13
189 1 -10.4012 0.176856 2.04379 12
190 1 -9.99146 1.78229 4.73941 13
191 1 -7.75895 4.14907 -1.51217 18
192 1 -7.25642 1.80298 -0.510735 19
193 1 -6.88393 0.698215 2.60871 22
194 1 -9.2653 3.43569 1.60413 15
195 1 -7.86238 4.85017 4.0658 19
196 1 -6.46555 2.41586 5.21586 22
197 1 -8.4987 1.25747 8.0568 13
198 1 -6.2022 7.56874 -1.70444 16
199 1 -6.93784 6.04908 1.28946 19
200 1 -4.6548 4.51636 4.57009 18
201 1 -2.69099 4.08294 9.99848 10
202 1 -5.11309 4.93777 -1.03349 22
203 1 -3.83126 2.09462 -0.52709 21
204 1 -3.64813 0.419353 1.81805 19
205 1 -5.43373 3.26291 1.97374 20
206 1 -9.29478 3.93758 6.66558 12
207 1 -3.25616 2.11102 4.7379 21
208 1 -2.83891 0.625993 9.77343 13
209 1 -8.42984 4.77886 9.32708 7
210 1 -5.89394 4.6965 11.4579 4
211 1 -3.14342 7.54992 -0.466306 19
212 1 -3.60491 6.05099 1.89888 23
213 1 -5.63979 8.97925 1.06854 12
214 1 -5.63058 7.22103 3.77241 13
215 1 -6.52986 5.54541 6.79178 13
216 1 -2.04613 5.09583 -1.04083 20
217 1 -0.20017 2.09181 -0.330287 22
218 1 0.0260817 0.288479 2.30119 22
219 1 -1.89156 3.38424 1.76129 22
220 1 -1.67625 4.75359 5.42772 18
221 1 -0.314694 2.20441 3.78845 19
222 1 -1.97197 2.2899 7.47344 17
223 1 -4.52194 3.02226 7.33407 18
224 1 0.422124 3.33088 8.89136 14
225 1 0.340521 -0.155531 9.61765 17
226 1 -1.63157 9.37829 -3.40785 19
227 1 -0.626848 8.36988 -1.02268 19
228 1 -0.0513832 6.11053 1.13395 21
229 1 -2.06552 8.4671 2.13169 14
230 1 0.488809 7.82574 4.02266 12
231 1 -0.796976 6.04879 8.28824 10
232 1 -2.44954 7.13194 4.81926 13
233 2 -8.48803 3.16564 8.50216 11
234 2 -10.3742 0.146093 0.179416 15
235 2 -6.56672 0.284048 4.70211 21
236 2 -8.76177 3.37046 4.79022 18
237 2 -8.14716 5.09818 2.23723 15
238 2 -7.47293 2.1098 1.33214 22
239 2 -7.52602 -0.422289 8.54795 11
240 2 -8.60021 5.66493 7.2866 9
241 2 -5.04426 8.63564 -0.757162 15
242 2 -1.79764 0.629731 6.27558 18
243 2 -5.65094 3.00617 3.75491 22
244 2 -5.16657 5.02967 1.15561 27
245 2 -3.42544 2.45473 1.64675 20
246 2 -1.35581 -0.418798 10.3525 13
247 2 2.36876 3.41076 9.09793 14
248 2 -7.2994 5.30578 10.5377 6
249 2 -3.10544 2.54201 8.98789 15
250 2 -3.8683 6.11132 3.81795 20
251 2 -6.62798 7.8331 2.20332 13
252 2 -3.76107 8.1336 1.16667 18
253 2 -5.62033 3.94017 6.33244 16
254 2 -6.56138 5.98309 4.78111 15
255 2 0.11992 0.300998 4.43609 20
256 2 -1.90717 3.46808 3.98045 21
257 2 -1.99987 5.50385 1.30733 21
258 2 -0.140939 2.47511 1.76702 18
259 2 1.79507 -1.40647 10.76 13
260 2 -1.22585 4.33492 8.81803 15
261 2 -3.01571 3.52207 6.06174 20
262 2 3.84482 0.825032 9.24068 17
263 2 1.54583 6.76414 5.11339 14
264 2 -1.21587 8.05153 3.79553 14
265 2 -6.44998 7.15689 -3.37805 14
266 2 -0.63295 8.30458 0.954036 15
267 2 -4.26651 4.77876 10.4562 6
268 2 -1.72135 6.51454 6.50803 13
269 1 1.03218 -8.77318 -10.0047 7
270 1 1.21886 -6.93462 -6.19106 18
271 1 0.449207 3.52273 -9.08244 13
272 1 2.62296 -5.6977 -9.06085 11
273 1 1.0652 -2.69997 -9.52526 15
274 1 1.2389 -1.074 -6.833 21
275 1 2.8158 -3.97561 -6.3041 20
276 1 2.52429 -5.70431 -3.14366 21
277 1 1.01194 -2.97335 -4.3041 19
278 1 4.16173 -6.99405 -5.75576 15
279 1 7.30554 -8.41655 -2.48957 12
280 1 4.0635 -2.45732 -8.65252 15
281 1 4.40069 -0.823367 -5.96894 22
282 1 6.06271 -3.49394 -6.17466 18
283 1 5.50474 -5.58329 -3.40301 21
284 1 4.23926 -2.75399 -3.72027 19
285 1 8.98741 -3.73257 -7.25511 9
286 1 7.7367 -2.73484 -3.36811 23
287 2 -0.368407 -9.31579 -9.0451 9
288 2 1.51586 -8.27272 0.169288 16
289 2 -0.688956 -6.10326 -6.80736 21
290 2 0.994869 -6.41235 -4.30933 20
291 2 2.81264 -6.33548 -6.85833 15
292 2 1.15784 -2.96805 -6.43502 21
293 2 0.945342 -0.685884 -9.05067 16
294 2 2.7482 -3.66172 -9.34178 12
295 2 2.75542 -5.4091 -1.15299 21
296 2 1.20943 -2.69323 -0.405362 18
297 2 1.34107 -1.19351 -3.51303 22
298 2 2.76525 -4.19277 -4.35564 21
299 2 2.48419 -9.44894 -2.39976 13
300 2 5.47191 -8.69192 -1.79282 15
301 2 5.86551 -6.33859 -6.15232 11
302 2 4.31614 -2.87534 -6.65273 17
303 2 3.92185 -0.514676 -8.87046 14
304 2 6.3351 -5.49004 -1.52362 21
305 2 4.42723 -2.56367 -1.50166 22
306 2 5.04613 -1.1366 -4.2217 20
307 2 7.36893 -6.9616 -3.70773 16
308 2 4.07143 -6.86158 -3.51627 18
309 2 6.06461 -3.54808 -4.15128 23
310 2 9.34865 -5.36886 -0.657008 12
311 2 7.94494 -2.72362 -1.42276 18
312 2 9.04322 -4.33905 -3.55185 16
313 2 8.83928 -5.29803 -6.02448 12
314 1 1.48065 -6.39577 -0.275082 20
315 1 4.13256 -8.73552 -3.12209 13
316 1 2.89902 -9.53844 -0.713746 12
317 1 1.89815 -5.81589 6.04708 17
318 1 4.84492 -8.09721 2.05943 17
319 1 0.288237 -6.70886 8.83639 11
320 1 1.57305 -0.760542 -0.639856 20
321 1 3.10906 -3.65447 -0.488312 22
322 1 3.44857 -5.55488 2.6943 21
323 1 1.76779 -2.56628 1.67903 18
324 1 2.0912 -0.181412 4.63547 23
325 1 3.67817 -3.13067 5.03752 18
326 1 3.55248 -5.661 8.15183 16
327 1 1.89196 -2.35174 7.48082 21
328 1 1.72413 -2.87901 11.8151 11
329 1 2.316 -6.05842 11.3398 10
330 1 5.06694 -6.61464 -0.578838 25
331 1 8.14346 -5.75804 -2.20608 18
332 1 1.28219 -8.99826 -3.91542 14
333 1 4.78363 -6.4608 5.10191 14
334 1 5.02883 -0.729503 -1.20083 20
335 1 6.04454 -3.49936 -0.600103 23
336 1 8.89761 -6.91522 0.209677 14
337 1 5.02949 -2.1988 2.34819 21
338 1 5.15019 -0.448663 4.04414 20
339 1 6.88189 -3.67854 4.89287 18
340 1 6.38591 -9.39282 -0.159371 12
341 1 5.10051 -3.13451 7.98186 15
342 1 4.74481 -3.61221 11.1378 10
343 1 7.65685 -6.65194 -5.60134 12
344 1 7.69512 -7.69263 3.07108 11
345 1 8.34858 -0.695819 -1.18188 19
346 1 10.0716 -4.28085 -5.06026 10
347 1 9.53132 -4.59933 2.46237 12
348 1 6.34688 -5.07018 2.09797 22
349 1 9.60894 -1.74754 3.92084 12
350 1 7.8788 -2.08112 1.88875 20
351 1 7.0967 -0.625416 6.21639 17
352 1 9.72244 -3.50776 -0.486956 14
353 2 5.91892 -7.84956 3.98322 10
354 2 1.71331 -5.87583 2.2961 17
355 2 4.8513 -6.17132 1.44536 21
356 2 -2.61656 -3.27155 7.48422 18
357 2 5.50857 -2.49741 4.39827 20
358 2 2.00967 -2.18372 4.7621 22
359 2 1.3426 -0.771172 1.34817 21
360 2 3.47456 -3.25128 1.67165 20
361 2 1.82673 -6.58636 8.07375 13
362 2 -3.29113 -3.42921 10.6664 10
363 2 0.66289 3.94901 6.70061 21
364 2 3.76782 -5.03974 6.2923 17
365 2 4.20991 -9.09087 0.47677 11
366 2 7.98482 -8.35832 -0.905326 11
367 2 2.9232 -6.75438 4.46643 16
368 2 5.75872 -5.02313 3.8677 17
369 2 6.7421 -2.22443 7.62259 12
370 2 6.31706 -0.603372 2.41146 20
371 2 6.30778 -3.24267 1.14647 23
372 2 0.873292 -5.4503 10.356 10
373 2 8.68648 -0.253979 4.96962 14
374 2 0.42811 -1.19399 7.6342 20
375 2 6.94248 -8.45861 1.54059 12
376 2 8.57988 -6.20537 1.8445 14
377 2 8.50148 -0.186285 0.779791 20
378 2 9.4454 -3.33038 1.28697 15
379 2 8.30087 -3.29744 3.5507 15
380 2 10.2561 -2.75798 -6.24877 9
381 1 2.37346 0.717033 -9.435 14
382 1 0.245631 4.84167 -5.99454 22
383 1 2.88225 5.10095 -5.22116 20
384 1 2.09981 2.09313 -6.71981 23
385 1 2.61311 -0.0180725 -3.94481 21
386 1 1.17932 2.8048 -3.40457 22
387 1 1.06781 7.13552 -8.37097 12
388 1 2.50892 9.84238 -8.09639 9
389 1 0.854639 7.71647 -5.33757 23
390 1 -2.02937 7.4125 -5.6939 17
391 1 5.39938 0.609204 -8.52816 11
392 1 3.91884 3.82202 -8.95837 10
393 1 4.03765 7.01181 -6.90908 13
394 1 5.3194 3.55648 -6.60967 15
395 1 6.23907 0.0944501 -3.69422 20
396 1 4.70218 2.52556 -3.63996 20
397 1 6.22714 5.83166 -4.33428 18
398 1 3.76726 7.4561 -3.53104 17
399 1 7.88621 -0.72139 -6.4742 12
400 1 9.92747 -0.619423 -4.19167 10
401 1 7.74531 3.24491 -4.13267 13
402 2 2.49442 0.343523 -5.90739 23
403 2 0.250187 2.93094 -6.73326 20
404 2 0.0860632 5.67439 -8.79654 14
405 2 2.26421 2.66257 -9.2721 14
406 2 3.37317 0.262745 -0.659232 18
407 2 0.783425 3.28862 -1.47544 21
408 2 1.10349 4.73116 -4.22905 21
409 2 2.89884 1.70832 -3.28296 21
410 2 2.85722 8.02656 -8.01773 11
411 2 0.0689287 8.42218 -7.21138 16
412 2 3.23197 5.84064 -2.04265 23
413 2 0.234944 10.5998 -3.40247 12
414 2 2.14165 8.62933 -4.19665 19
415 2 4.46118 6.38693 -5.06852 17
416 2 7.54204 -2.65452 -7.13367 13
417 2 4.54459 5.14383 -7.65196 12
418 2 4.76681 2.24622 -8.05184 13
419 2 6.63791 0.0949397 -1.61233 20
420 2 4.85153 3.31526 -1.75345 19
421 2 1.88856 6.48152 -6.4373 18
422 2 6.49455 1.93023 -3.6541 18
423 2 3.48235 3.23916 -5.6233 20
424 2 6.84265 6.3026 -2.27573 16
425 2 6.94173 8.23657 0.550517 11
426 2 4.92578 8.22468 -2.09515 14
427 2 6.29486 0.051109 -7.0328 15
428 2 9.65607 0.306764 -2.36386 15
429 2 8.4585 3.05774 -2.17055 15
430 2 6.62542 4.23546 -5.28358 12
431 2 8.00566 -0.955814 -4.58574 19
432 2 8.47483 5.27231 0.294219 16
433 1 1.58637 5.24769 -1.28845 20
434 1 3.35757 2.27873 -1.16575 22
435 1 3.54252 0.689445 1.34509 19
436 1 1.66356 3.4053 1.78421 19
437 1 1.37664 4.77618 5.02337 18
438 1 3.81714 2.70864 3.57573 19
439 1 6.93191 -1.21922 9.27285 11
440 1 2.42452 2.6833 6.98535 19
441 1 2.3377 5.51923 8.94854 13
442 1 3.47443 -0.716899 10.1603 14
443 1 1.9962 9.72129 -2.5758 12
444 1 3.22175 7.56061 -0.864841 18
445 1 3.49121 6.04173 1.52472 18
446 1 1.50311 8.95121 1.0815 15
447 1 3.53873 7.74681 3.78897 14
448 1 5.82212 5.33675 10.6103 8
449 1 2.1065 7.72793 6.53386 12
450 1 5.19409 5.28893 -1.30161 22
451 1 6.69505 2.19134 -1.30353 23
452 1 7.21403 0.964832 1.81491 21
453 1 5.27987 3.42049 1.57141 21
454 1 4.55065 5.19022 5.51727 20
455 1 5.80007 2.44962 5.82756 16
456 1 3.77132 2.44875 10.0867 11
457 1 5.16041 6.49072 7.85928 10
458 1 6.6986 7.96464 -1.45258 13
459 1 7.53875 6.53528 1.53966 15
460 1 5.63273 8.57106 1.71593 14
461 1 6.71266 6.82623 4.56121 11
462 1 4.28613 0.00540278 7.46848 20
463 1 7.97498 4.91141 -1.49388 16
464 1 10.1929 2.14882 -1.72823 11
465 1 10.0259 0.770677 1.11921 13
466 1 8.69412 3.45906 1.27668 17
467 1 7.77485 4.68886 7.26067 10
468 1 9.43725 1.3506 4.08038 10
469 1 6.47538 2.45586 9.20122 11
470 1 7.47692 4.21181 3.99451 18
471 2 3.54476 0.718723 3.27503 22
472 2 1.34227 3.23702 3.8511 20
473 2 1.59276 5.32818 0.903336 20
474 2 3.34874 2.58086 1.41014 19
475 2 4.90728 -4.75859 9.56398 10
476 2 4.31573 6.43556 9.52588 9
477 2 3.73595 3.16348 5.56258 18
478 2 2.29058 0.661043 6.47198 21
479 2 3.99877 5.86555 3.52019 23
480 2 2.00353 8.14853 2.76032 16
481 2 1.64262 8.84666 -0.877721 16
482 2 4.01268 7.8394 0.828041 17
483 2 1.03805 6.95777 8.30684 12
484 2 3.52768 6.24069 6.96591 16
485 2 5.43098 0.466449 5.86298 18
486 2 5.71011 2.97948 3.81544 20
487 2 5.09415 5.23396 0.605649 23
488 2 6.79563 2.43178 0.809139 21
489 2 4.88335 -1.91955 9.63973 14
490 2 3.05381 -4.14686 11.6411 11
491 2 6.79652 5.41287 8.67793 10
492 2 5.34209 3.46977 10.6687 9
493 2 6.70928 5.21883 5.77731 14
494 2 5.41341 8.01294 3.5503 12
495 2 7.65642 6.01556 3.36711 15
496 2 10.0122 -0.175629 2.71385 12
497 2 6.78291 2.79143 7.42168 15
498 2 8.81774 2.83479 2.9966 14
499 2 9.9797 2.65075 0.0808042 14
500 2 7.25708 0.557379 9.67533 10
