ITEM: TIMESTEP
240000
ITEM: NUMBER OF ATOMS
500
ITEM: BOX BOUNDS pp pp pp
-30.0 30.0
-30.0 30.0
-30.0 30.0
ITEM: ATOMS id type x y z Coordination
1 1 -9.33914 -0.741097 -6.05461 15
2 1 -7.23927 -3.43745 -6.49437 16
3 1 -6.79071 -5.54564 -3.86929 18
4 1 -10.5 0.249129 -3.83936 12
5 1 -7.24462 -6.32151 -7.74669 10
6 1 -5.37041 -8.01545 -3.24693 15
7 1 -3.82945 -6.38036 -9.18124 11
8 1 -5.86334 -3.48755 -9.16285 14
9 1 -5.79773 -1.06589 -6.13276 21
10 1 -3.83166 -4.09459 -5.83065 21
11 1 -3.74034 -5.55168 -3.04054 23
12 1 -5.06795 -2.70146 -3.61657 26
13 1 -4.46352 -6.94128 -5.99064 14
14 1 -1.49163 -7.39306 -6.79814 12
15 1 -2.18159 -8.47786 -3.82382 17
16 1 -0.359481 -5.95589 -9.40425 12
17 1 -2.3998 -3.45122 -8.76885 15
18 1 -2.32298 -1.44232 -6.21174 23
19 1 -0.377696 -4.04731 -6.51755 18
20 1 -0.462401 -5.60126 -2.89685 20
21 1 -2.04688 -2.66106 -3.27395 22
22 2 -7.18177 -4.49034 -8.04194 9
23 2 -9.81817 -1.56108 -4.43598 11
24 2 -7.41833 -5.44019 -2.05615 16
25 2 -7.95565 -2.34867 -2.17004 17
26 2 -9.57917 1.04754 -6.17262 12
27 2 -7.74112 -3.9928 -4.69367 15
28 2 -6.29785 -7.68294 -1.62689 12
29 2 -5.06017 -6.29601 -4.43342 18
30 2 -4.00699 -9.33109 -2.81611 14
31 2 -1.94078 -6.66386 -8.6141 13
32 2 -5.43571 -3.03132 -5.78761 18
33 2 -5.61065 -1.66859 -8.9563 14
34 2 -4.2735 -4.51976 -9.18448 13
35 2 -3.90587 -5.8492 -0.908099 21
36 2 -5.00384 -2.88791 -1.74224 23
37 2 -5.28089 -0.852665 -4.10878 21
38 2 -3.4653 -3.87053 -3.9078 19
39 2 -2.86231 -7.69009 -5.59241 14
40 2 -1.60366 -8.86004 -0.56824 17
41 2 -1.97492 -6.86511 -2.80285 18
42 2 -5.45157 -6.74616 -7.5813 11
43 2 -0.331409 -9.48388 -3.16316 15
44 2 1.37856 -6.95442 -8.97725 11
45 2 -2.24009 -3.42338 -6.50084 17
46 2 -2.45329 -1.42601 -8.66483 15
47 2 -0.656304 -4.31515 -8.47619 15
48 2 -0.0502421 -5.57504 -0.889818 21
49 2 -2.11435 -2.90726 -1.17934 23
50 2 -1.75951 -0.793312 -4.00351 23
51 2 -0.515843 -3.86525 -4.07145 21
52 1 -8.66853 -2.98829 -3.72479 15
53 1 -7.87287 -6.81948 -0.83979 9
54 1 -8.36442 -0.891462 -1.09729 19
55 1 -6.75872 -3.68977 -1.27935 18
56 1 -7.15316 -6.93008 2.77579 9
57 1 -8.43174 -3.16808 1.5583 15
58 1 -8.77542 -1.17648 4.38507 16
59 1 -6.82938 -3.60603 4.53691 18
60 1 -6.76159 -5.83103 6.21941 9
61 1 -8.14373 -2.27087 7.37306 12
62 1 -4.85367 -7.17982 0.0380509 19
63 1 -3.2656 -9.93505 -1.19477 13
64 1 -4.33714 -9.15265 2.20336 13
65 1 -4.27497 -7.2889 4.52746 13
66 1 -0.83472 -9.79401 3.67072 9
67 1 -5.12544 -1.09968 -0.933279 22
68 1 -3.75408 -3.64682 -0.689573 21
69 1 -3.30599 -5.89577 1.81256 19
70 1 -5.02685 -3.08886 1.77307 21
71 1 -5.31767 -0.923528 4.38207 22
72 1 -3.49277 -4.0216 4.29699 19
73 1 -3.16862 -6.04769 7.10038 15
74 1 -5.13488 -2.85699 6.87217 21
75 1 -5.53072 -1.5313 9.44103 11
76 1 -3.24804 -4.25799 9.7482 12
77 1 -1.77214 -6.74679 -0.676443 21
78 1 -0.1039 -9.45031 -1.33497 16
79 1 -1.09942 -8.58454 1.30432 19
80 1 -1.23663 -7.08713 4.65429 19
81 1 1.14424 -8.67423 6.68209 12
82 1 -1.14488 -7.50978 9.13036 10
83 1 -1.86065 -0.915966 -0.779771 25
84 1 -0.394817 -3.55999 -0.770317 22
85 1 -0.10716 -5.58738 1.89935 21
86 1 -1.84855 -2.9592 2.07153 25
87 1 -1.95842 -0.912164 4.54085 23
88 1 -0.0720839 -3.69266 4.48777 22
89 1 0.340447 -5.7639 7.23026 21
90 1 -1.69867 -3.01654 7.26648 21
91 1 -2.55568 -1.14059 9.28071 16
92 1 -0.0813078 -3.99448 9.48899 16
93 2 -8.80499 -1.38421 0.752528 16
94 2 -7.75446 -6.93105 0.976269 9
95 2 -7.13787 -5.5962 4.32124 12
96 2 -8.49692 -2.91036 3.598 16
97 2 -10.0359 0.154293 3.19348 12
98 2 -6.7906 -3.43525 0.683211 18
99 2 -8.84073 -0.504593 6.44511 12
100 2 -7.06308 -3.76018 6.44371 15
101 2 -2.32222 -9.26076 2.8093 13
102 2 -5.42806 -7.69476 2.8578 11
103 2 -4.16036 -9.00737 0.370384 14
104 2 -4.95888 -6.69823 6.23019 13
105 2 -3.16053 -5.72537 3.81503 20
106 2 -5.05669 -2.6686 3.61139 22
107 2 -5.06835 -0.799128 1.29416 22
108 2 -3.46086 -3.97261 1.16584 23
109 2 -2.82135 -6.03391 9.00337 12
110 2 -4.61998 -3.16087 8.88058 15
111 2 -5.45728 -0.748407 6.46277 24
112 2 -3.30827 -3.71295 6.24254 22
113 2 0.163943 -8.36932 5.08151 12
114 2 -1.67408 -6.84064 1.51528 21
115 2 0.415626 -9.6144 2.21843 13
116 2 -1.23898 -6.56246 6.56855 19
117 2 0.278126 -5.59391 3.87369 19
118 2 -1.82858 -2.99549 4.11772 22
119 2 -1.74193 -0.967314 1.47848 23
120 2 -0.0179753 -3.56322 1.61162 21
121 2 0.212535 -6.00913 9.46747 16
122 2 -1.69768 -2.94168 9.48218 14
123 2 -2.05582 -1.01779 6.60617 21
124 2 0.053244 -3.67251 7.22516 19
125 1 -9.97933 1.89036 -1.41995 13
126 1 -6.98936 -0.328015 -8.51933 13
127 1 -8.94652 5.59059 -5.13171 9
128 1 -7.83891 2.3248 -6.14647 17
129 1 -6.7183 0.256558 -3.46404 24
130 1 -10.4428 2.66464 -5.55893 10
131 1 -6.77065 5.8214 -3.28759 17
132 1 -4.06721 -0.50851 -8.75127 15
133 1 -5.68669 2.61793 -8.69476 11
134 1 -5.67648 5.39644 -6.03865 16
135 1 -3.58199 1.67606 -6.20283 20
136 1 -3.57355 0.122041 -3.50336 23
137 1 -5.36242 3.0144 -3.62127 21
138 1 -4.2056 5.66733 -8.65259 11
139 1 -3.52471 8.14049 -6.10374 11
140 1 -3.38954 5.83819 -3.37797 23
141 1 -4.26324 9.4346 -2.91314 11
142 1 -0.868291 -0.51047 -8.72477 20
143 1 -2.61524 2.67072 -8.76331 15
144 1 -2.20131 4.96912 -6.15661 24
145 1 -0.479037 1.78112 -6.14738 24
146 1 -0.152045 0.168157 -3.61186 23
147 1 -2.08725 3.14582 -3.52161 24
148 1 -0.832078 5.43915 -8.96913 14
149 1 -0.607607 7.78879 -6.88512 13
150 1 -0.0189999 5.98641 -3.80208 21
151 1 -1.4494 8.89961 -3.75911 17
152 2 -9.70065 0.105251 -2.24803 17
153 2 -10.2009 2.41323 -3.70932 12
154 2 -7.57288 -1.4104 -6.76509 17
155 2 -7.03247 1.56249 -7.7879 15
156 2 -6.56461 0.0165585 -1.45871 22
157 2 -8.5352 3.00356 -1.28478 19
158 2 -7.125 6.32022 -5.26918 10
159 2 -7.05313 2.06614 -4.40218 24
160 2 -8.98201 3.83785 -5.73571 13
161 2 -8.61921 5.28466 -3.25223 13
162 2 -6.7048 6.25203 -1.46118 16
163 2 -3.81007 -0.150277 -6.4114 23
164 2 -5.61011 4.339 -7.80817 15
165 2 -4.00015 1.50355 -8.55245 15
166 2 -3.55249 -0.269548 -1.57199 22
167 2 -5.06303 2.96097 -1.65474 25
168 2 -4.99288 4.80577 -4.08739 19
169 2 -3.71154 1.9507 -4.33928 19
170 2 -3.78084 6.44754 -7.0601 16
171 2 -3.25 5.87398 -1.20169 20
172 2 -4.91672 8.65264 -1.44528 16
173 2 -3.50263 8.01231 -4.06026 15
174 2 -0.618484 -0.260036 -6.71884 23
175 2 -2.0704 3.02337 -6.75867 21
176 2 -2.74377 4.63929 -9.25367 13
177 2 -0.984761 1.32417 -9.54789 15
178 2 -0.249496 0.0281674 -1.60796 24
179 2 -1.97708 2.75292 -1.53793 23
180 2 -1.83045 4.97642 -4.25729 22
181 2 -0.182913 1.99262 -4.09921 22
182 2 -0.794686 5.82338 -7.0472 17
183 2 -1.72502 8.57204 -5.65894 15
184 2 -0.127904 5.89467 -1.66677 23
185 2 -1.17415 8.7271 -0.597892 18
186 2 -2.52841 9.78262 -2.25991 11
187 2 0.284737 8.19959 -3.4367 19
188 1 -8.44847 3.24889 -3.65654 20
189 1 -10.2557 -0.368382 1.44876 13
190 1 -10.0837 1.68861 4.21555 11
191 1 -8.34169 5.09911 -1.00263 15
192 1 -6.84887 2.10423 -1.02687 21
193 1 -6.85104 -0.129135 1.58631 23
194 1 -8.51663 2.72021 1.40607 16
195 1 -8.20694 4.82114 4.57452 12
196 1 -7.00723 1.64051 4.18191 20
197 1 -7.12566 0.354435 7.07374 16
198 1 -5.99698 7.58348 -0.383306 15
199 1 -6.87237 5.5459 1.78603 18
200 1 -6.81252 7.9178 3.21012 11
201 1 -5.94966 5.11373 8.53593 7
202 1 -4.85528 4.84463 -0.751403 25
203 1 -3.58891 1.97957 -0.918458 24
204 1 -3.4322 -0.0642583 1.78446 23
205 1 -5.04567 2.74211 1.86543 22
206 1 -4.99744 5.0448 4.34955 21
207 1 -3.49315 1.97609 4.47303 23
208 1 -3.80197 0.0882762 7.32678 24
209 1 -5.24176 2.94119 6.80484 19
210 1 -4.21209 1.97317 9.46294 13
211 1 -3.1681 7.84515 -0.430731 23
212 1 -3.4581 5.87348 1.70335 25
213 1 -4.49252 9.74294 1.62382 11
214 1 -4.00541 7.84701 4.31797 15
215 1 -3.46706 6.08229 6.7722 17
216 1 -1.69601 4.86306 -0.82358 23
217 1 -0.172715 1.81632 -0.816072 23
218 1 -0.112971 0.103903 1.8617 24
219 1 -1.72823 3.06823 1.64356 22
220 1 -1.8175 5.0082 4.30272 22
221 1 -0.0531837 2.12035 3.95952 21
222 1 -0.236583 -0.0498917 7.04756 21
223 1 -1.85544 2.99136 7.25068 24
224 1 -2.78493 4.90305 9.55506 13
225 1 -0.797762 1.78561 9.6864 16
226 1 -1.8631 10.4244 -0.647826 12
227 1 0.274064 8.01079 -1.48008 19
228 1 0.0543352 5.76872 1.7155 22
229 1 -1.68962 8.79985 2.07354 16
230 1 0.156271 7.85521 3.83837 17
231 1 -0.30559 6.07007 7.28834 19
232 1 -2.00703 8.89784 6.26235 10
233 2 -6.83882 2.06874 6.08663 17
234 2 -10.0143 1.38051 0.66128 14
235 2 -7.09437 -0.507793 3.60313 21
236 2 -8.37526 2.99559 3.72128 14
237 2 -8.34675 4.52253 0.959818 16
238 2 -6.54413 1.8393 1.20621 22
239 2 -7.17509 -1.14147 8.58902 10
240 2 -7.04662 6.11445 3.8118 13
241 2 -6.73257 7.41379 1.30273 15
242 2 -3.53092 0.147547 3.70965 22
243 2 -5.06487 3.11178 3.92516 20
244 2 -4.98399 4.71248 1.08251 24
245 2 -3.37587 2.01513 1.05389 23
246 2 -4.31958 -0.00776594 9.25832 17
247 2 -5.63211 3.16845 8.71372 12
248 2 -4.93877 4.81719 6.39811 19
249 2 -3.60653 1.92749 6.83983 19
250 2 -3.50567 5.92989 3.78852 21
251 2 -5.23132 8.86955 3.39603 13
252 2 -3.48442 7.74238 1.55384 20
253 2 -4.12422 5.80079 8.69365 12
254 2 -3.6944 8.13562 6.23651 11
255 2 -0.315845 0.14882 3.8782 24
256 2 -2.05605 2.88457 3.60489 23
257 2 -1.55029 4.75277 1.05924 23
258 2 -0.146162 2.0323 1.24996 23
259 2 -0.787545 -0.0812295 9.1403 17
260 2 -2.51375 2.73071 9.31748 17
261 2 -1.89172 5.07134 6.34555 23
262 2 -0.098837 1.9183 6.63348 21
263 2 -0.0293839 5.72774 3.6414 22
264 2 -1.66432 8.3731 4.20251 18
265 2 -2.73496 10.3762 0.923467 11
266 2 0.0392429 7.7987 1.56255 21
267 2 -0.962744 5.44654 9.03125 13
268 2 -0.335682 8.06981 7.01317 12
269 1 1.83072 -7.68092 -7.10667 11
270 1 0.989377 -8.35454 -4.38699 15
271 1 0.283535 0.680452 -10.6957 7
272 1 2.89835 -5.94345 -9.3806 9
273 1 0.999117 -3.01513 -9.05934 17
274 1 1.08953 -0.991995 -6.16418 22
275 1 3.04955 -3.41278 -6.25474 20
276 1 2.62973 -5.45393 -3.29916 18
277 1 1.23955 -2.74852 -3.71763 21
278 1 5.06319 -6.71893 -7.35302 11
279 1 4.33405 -8.06046 -4.89807 12
280 1 4.66602 -3.40086 -8.80527 13
281 1 4.75104 -1.16251 -5.98883 22
282 1 6.65809 -3.76099 -6.11546 16
283 1 6.48399 -5.79985 -4.35176 15
284 1 4.56459 -2.79085 -3.12028 25
285 1 7.96594 -1.36612 -5.9891 15
286 1 8.15244 -2.25058 -3.2852 17
287 2 0.337409 -8.01717 -6.20023 12
288 2 1.77194 -8.96341 -0.579113 18
289 2 1.14189 -6.62647 -3.57303 21
290 2 3.08211 -8.73061 -3.63366 15
291 2 4.87314 -5.48236 -9.12213 10
292 2 1.19541 -2.72345 -6.87756 19
293 2 0.800944 -1.07468 -9.78533 15
294 2 2.63475 -4.05537 -9.16771 13
295 2 3.02192 -5.54093 -1.31708 21
296 2 1.45962 -2.82964 -1.58122 26
297 2 1.6422 -0.664241 -4.19311 23
298 2 3.05807 -3.63292 -4.09995 19
299 2 4.42884 -8.47172 -0.883804 12
300 2 3.59256 -7.35763 -6.36532 15
301 2 6.22045 -5.53822 -6.43814 14
302 2 4.92094 -2.89582 -6.79839 20
303 2 4.61963 -1.47805 -8.86562 13
304 2 6.48782 -5.40995 -0.88193 20
305 2 4.76008 -2.65056 -1.15219 21
306 2 4.90497 -0.519801 -4.12932 22
307 2 8.13457 -6.27658 -3.63173 13
308 2 4.85076 -6.57923 -3.65633 18
309 2 6.49039 -3.26771 -3.88292 22
310 2 9.38669 -5.27826 -0.305072 14
311 2 7.98849 -2.46248 -1.4492 21
312 2 8.8912 -0.587498 -4.31867 16
313 2 9.71896 -3.8531 -3.19844 13
314 1 1.69578 -6.59006 -0.42373 22
315 1 3.2158 -9.5026 -1.93386 13
316 1 1.88234 -8.78287 1.4612 17
317 1 1.77931 -6.76236 4.58288 19
318 1 4.27415 -8.07377 3.80036 13
319 1 1.76075 -7.28757 9.64478 10
320 1 1.38674 -1.12942 -0.704772 23
321 1 3.1938 -3.67238 -0.604702 25
322 1 3.32052 -5.49088 1.87452 22
323 1 1.61134 -2.71697 2.13675 23
324 1 1.33119 -0.653754 4.37105 21
325 1 4.05786 -4.49788 4.82986 21
326 1 3.64204 -5.94498 7.53372 17
327 1 1.75388 -2.783 6.61288 19
328 1 1.01518 -1.08007 9.74029 16
329 1 3.12101 -4.10252 10.1092 13
330 1 4.761 -6.54516 -1.58987 20
331 1 8.01899 -6.01391 -1.67986 15
332 1 4.90052 -8.61838 0.948485 11
333 1 6.69895 -6.39971 6.24464 12
334 1 4.62164 -0.889845 -0.471452 25
335 1 6.50277 -3.46589 -0.891798 20
336 1 6.64981 -5.47852 1.08306 15
337 1 4.74128 -2.72565 1.98525 21
338 1 4.44665 -1.23176 4.66992 23
339 1 6.70258 -3.12763 5.21086 19
340 1 7.39662 -6.49743 3.92554 13
341 1 5.3408 -3.72059 8.21859 14
342 1 4.36376 -0.888423 9.83626 14
343 1 9.33374 -4.90334 -4.73702 11
344 1 8.91312 -3.90205 4.42032 13
345 1 8.15291 -0.66354 -0.89398 22
346 1 9.96961 -3.89401 -1.47458 16
347 1 9.66521 -6.0915 1.44774 11
348 1 7.69644 -2.34473 1.89931 21
349 1 8.06824 -0.54837 4.65485 19
350 1 11.0608 -3.15817 1.52819 11
351 1 6.141 -0.707249 7.45846 15
352 1 11.31 -1.23029 -0.536666 12
353 2 2.01051 -6.83793 6.58793 18
354 2 1.7249 -6.57346 1.53065 21
355 2 3.49921 -9.13604 2.38573 12
356 2 0.451781 -8.44411 8.65402 9
357 2 3.48063 -6.20987 3.9207 17
358 2 1.35976 -2.60893 4.15075 20
359 2 1.46447 -0.813359 1.3181 25
360 2 3.05899 -3.56282 1.49639 22
361 2 3.16189 -5.86968 9.31076 13
362 2 1.35191 -2.89305 10.2899 12
363 2 1.56948 -0.728561 6.86419 18
364 2 3.22947 -4.11637 6.62333 21
365 2 5.78491 -7.28486 4.64581 11
366 2 4.96274 -6.79785 1.34877 18
367 2 5.63383 -5.63284 7.44811 13
368 2 7.53664 -4.89839 5.21933 13
369 2 5.16191 -3.04189 4.14651 20
370 2 4.4747 -0.702045 1.37967 24
371 2 6.27366 -3.51411 1.2304 19
372 2 4.32253 -2.7788 9.66057 15
373 2 4.52868 -0.593811 6.42883 21
374 2 6.4265 -2.63414 7.17565 18
375 2 7.99988 -6.30624 2.22845 13
376 2 9.87367 -4.48542 2.68048 12
377 2 7.72006 -0.614683 1.03045 22
378 2 11.1786 -3.2231 -0.338616 10
379 2 8.20832 -2.17548 3.86063 19
380 2 10.8099 -1.36527 1.43544 13
381 1 2.65763 -0.806042 -8.74411 20
382 1 0.672587 2.59969 -9.12081 19
383 1 1.15718 4.58476 -6.45074 23
384 1 2.52968 1.63917 -6.04775 22
385 1 3.18238 0.106289 -3.343 25
386 1 1.39769 3.00821 -3.71346 23
387 1 2.71772 4.88734 -9.22974 13
388 1 3.08651 7.10966 -6.68862 12
389 1 3.25617 5.78445 -3.52273 24
390 1 1.79282 8.70802 -4.65345 16
391 1 6.12694 -0.27298 -8.77553 13
392 1 3.74919 1.76212 -10.508 10
393 1 4.9473 4.6208 -6.35835 19
394 1 5.97332 3.2716 -9.12258 8
395 1 6.39394 0.449379 -3.31903 23
396 1 4.93545 2.88001 -3.6977 22
397 1 6.05048 5.89211 -3.37752 16
398 1 4.53572 8.69583 -3.7935 13
399 1 6.37626 1.50393 -6.44315 17
400 1 10.0209 0.547694 -3.36844 11
401 1 7.99592 3.19073 -4.23263 15
402 2 2.87241 -0.0730142 -6.88964 20
403 2 1.02713 2.72942 -6.82819 20
404 2 1.04788 4.54546 -9.01429 11
405 2 1.902 1.49125 -10.1887 13
406 2 2.68257 -0.00531598 -1.51199 23
407 2 1.30212 2.89197 -1.52592 22
408 2 1.39054 4.80346 -4.59442 25
409 2 3.28507 2.2999 -4.32654 23
410 2 3.13911 5.21862 -7.05327 16
411 2 1.13484 7.79838 -6.47745 14
412 2 3.10076 6.12145 -1.72718 25
413 2 2.79924 9.89371 -3.52215 11
414 2 4.52597 9.07647 -1.78993 15
415 2 3.41008 7.30319 -4.84507 17
416 2 8.62239 -3.27083 -5.75557 12
417 2 3.94407 3.6911 -9.86022 10
418 2 5.6538 1.3725 -9.54706 10
419 2 6.0539 0.0802646 -1.43223 22
420 2 4.72848 3.1306 -1.70783 24
421 2 4.91104 4.62508 -4.40019 19
422 2 6.70215 1.76997 -4.58405 19
423 2 5.50696 3.10484 -7.13097 15
424 2 6.09932 5.73212 -1.30952 19
425 2 5.6626 7.71213 0.545862 14
426 2 6.17366 7.77026 -3.61667 12
427 2 6.65408 -0.374278 -6.89047 15
428 2 9.98972 0.0193583 -1.3895 16
429 2 7.69838 2.92654 -0.936757 20
430 2 7.70047 5.06003 -3.64896 11
431 2 9.24797 2.33028 -3.37893 10
432 2 8.04157 4.99975 0.729747 16
433 1 1.51633 5.01422 -0.909792 21
434 1 3.04248 1.85498 -1.10953 22
435 1 2.94116 0.406048 1.7431 23
436 1 1.69568 3.07971 1.56107 23
437 1 1.54332 5.00672 4.47034 21
438 1 3.11486 2.14333 4.4554 21
439 1 3.06269 0.260165 7.13581 18
440 1 1.49208 2.97773 6.89346 19
441 1 0.771097 4.66725 9.75457 14
442 1 2.43021 2.02498 10.5404 13
443 1 3.02159 10.3451 -1.74326 10
444 1 3.33891 7.63939 -0.518436 21
445 1 3.16928 5.90327 2.21828 26
446 1 1.51953 8.81952 1.06027 14
447 1 3.39012 7.84316 4.87553 14
448 1 3.41775 6.15556 7.82086 15
449 1 1.42408 8.72259 6.79468 10
450 1 4.40056 4.79691 -0.845968 23
451 1 6.11435 1.89148 -0.566795 22
452 1 6.17736 0.00217328 2.09648 23
453 1 4.75426 3.10894 1.83137 24
454 1 4.893 4.93082 4.89472 20
455 1 6.28597 1.99226 4.57676 23
456 1 5.76866 2.19298 9.63708 11
457 1 3.94263 4.79987 10.0509 10
458 1 6.1286 7.98821 -1.40355 13
459 1 6.45107 6.0738 1.1888 18
460 1 5.07879 8.53324 2.24002 13
461 1 6.82491 7.51993 4.62642 11
462 1 6.43518 5.06461 7.71535 12
463 1 7.83511 4.84536 -1.46778 16
464 1 9.86746 2.14555 -1.2746 13
465 1 9.87087 0.339152 1.65815 17
466 1 8.18002 2.87468 1.20527 18
467 1 8.17778 4.95202 4.90529 13
468 1 9.47217 2.23952 4.15492 13
469 1 7.81692 2.21371 7.18296 12
470 1 8.97498 5.39686 2.29194 10
471 2 2.73062 0.416547 3.66455 23
472 2 1.52515 3.10347 3.56469 25
473 2 1.81451 4.99759 1.10365 21
474 2 3.29105 2.29011 0.688488 24
475 2 2.50213 0.140423 9.80384 15
476 2 0.897098 2.94959 9.80999 14
477 2 1.12797 4.78765 6.44161 21
478 2 2.93336 1.98648 6.31479 19
479 2 3.31501 5.76174 4.26322 21
480 2 1.70707 8.47156 4.84142 16
481 2 1.99603 9.09611 -0.766472 14
482 2 3.27098 7.83238 1.56459 18
483 2 2.15483 5.47241 8.9461 13
484 2 2.91642 7.54724 6.82219 13
485 2 6.0694 0.239742 4.0632 23
486 2 4.76884 3.27258 3.93156 18
487 2 4.84122 4.9853 1.24442 22
488 2 6.33133 1.97413 1.49249 22
489 2 5.80313 0.274746 9.44047 13
490 2 3.97188 2.91013 9.98027 16
491 2 4.91449 5.61199 8.64274 10
492 2 7.77503 0.309666 6.4778 14
493 2 6.57842 5.7336 5.95222 15
494 2 5.09857 7.90594 4.01348 13
495 2 7.87377 6.27955 3.51388 12
496 2 9.15974 0.620432 3.42022 16
497 2 7.99317 2.86159 5.37433 15
498 2 9.17563 3.72713 3.12516 12
499 2 9.78681 1.91979 0.588623 16
500 2 6.90522 3.38901 8.26045 12
