ITEM: TIMESTEP
141000
ITEM: NUMBER OF ATOMS
500
ITEM: BOX BOUNDS pp pp pp
-30.0 30.0
-30.0 30.0
-30.0 30.0
ITEM: ATOMS id type x y z Coordination
1 1 -9.01921 -0.7312 -6.56295 11
2 1 -7.40799 -3.70877 -6.3768 15
3 1 -7.61491 -5.54375 -4.08988 15
4 1 -9.11103 -2.68053 -4.02137 17
5 1 -5.65866 -6.46625 -6.25911 13
6 1 -5.74719 -8.48325 -3.47589 11
7 1 -3.92392 -5.44272 -9.26722 11
8 1 -5.63872 -2.86755 -8.69781 14
9 1 -5.57712 -1.14085 -5.93788 24
10 1 -3.81981 -4.07923 -6.21902 21
11 1 -4.13106 -5.74908 -3.28191 20
12 1 -5.52339 -3.05943 -3.35093 21
13 1 -2.58938 -6.86324 -7.07488 15
14 1 -0.803761 -9.71018 -6.00698 8
15 1 -2.45987 -8.22488 -4.00023 16
16 1 -0.718597 -5.35285 -9.39369 13
17 1 -2.25849 -2.69611 -8.58426 20
18 1 -2.17951 -0.80654 -6.01348 21
19 1 -0.393978 -3.96272 -6.22386 22
20 1 -0.428578 -5.54499 -3.41001 20
21 1 -2.33789 -2.93284 -3.61925 20
22 2 -7.30314 -5.63327 -5.9602 11
23 2 -8.95552 -2.66739 -6.34729 10
24 2 -8.69914 -5.87869 -2.28619 12
25 2 -10.0045 -3.10203 -2.44729 11
26 2 -8.62258 -0.576197 -4.42859 18
27 2 -7.32438 -3.52772 -3.96025 21
28 2 -6.57887 -8.16696 -1.94343 12
29 2 -5.51678 -6.66965 -4.21632 19
30 2 -4.0315 -9.31225 -2.99105 15
31 2 -2.24647 -6.18176 -8.86516 12
32 2 -5.54988 -2.94473 -6.74725 21
33 2 -5.52941 -0.926825 -9.12371 13
34 2 -3.90591 -3.63516 -9.22777 13
35 2 -4.14025 -5.90177 -1.21732 23
36 2 -5.36674 -3.16696 -1.22323 22
37 2 -5.29072 -1.20907 -3.84884 19
38 2 -3.8836 -4.03816 -4.2478 20
39 2 -2.51466 -8.37139 -6.08023 12
40 2 -2.07421 -8.68158 -0.975262 17
41 2 -2.09135 -6.58996 -3.34046 17
42 2 -4.15194 -5.75986 -7.31317 15
43 2 -1.07011 -9.60462 -3.90121 11
44 2 0.222666 -5.90356 -7.75409 15
45 2 -2.14464 -2.95275 -6.64002 24
46 2 -2.26957 -0.813017 -8.85031 16
47 2 -0.616727 -3.61912 -8.82534 15
48 2 -0.286275 -5.60761 -1.24203 22
49 2 -2.03586 -2.87816 -1.46089 25
50 2 -2.11687 -0.874462 -3.87007 19
51 2 -0.679226 -3.71412 -4.21296 21
52 1 -9.4688 -4.47421 -1.25474 12
53 1 -8.09691 -7.31549 -1.23664 10
54 1 -8.52876 -1.65696 -0.832021 20
55 1 -6.71931 -4.30472 -0.214024 20
56 1 -6.89391 -6.22126 2.24607 17
57 1 -8.44613 -3.09791 1.90855 18
58 1 -8.76367 -0.576256 4.42006 16
59 1 -6.76878 -3.90762 4.18743 20
60 1 -7.50451 -5.81631 6.15655 9
61 1 -8.84121 -2.93931 5.78749 10
62 1 -5.31158 -7.43237 -0.494428 19
63 1 -3.71152 -9.64598 -1.09497 14
64 1 -4.64507 -8.97128 2.30316 12
65 1 -5.09355 -6.95169 4.73938 16
66 1 -1.11539 -9.26949 3.3893 10
67 1 -5.3384 -1.34559 -0.464126 23
68 1 -3.63666 -3.92962 -0.756275 21
69 1 -3.42574 -5.89445 2.16641 22
70 1 -5.02555 -3.23135 2.06989 21
71 1 -5.21018 -0.76805 4.55413 23
72 1 -3.36128 -3.9255 4.6557 23
73 1 -3.99439 -5.56241 7.24963 16
74 1 -5.54709 -3.17644 7.03305 18
75 1 -5.47912 -1.33571 9.29371 10
76 1 -3.43004 -4.08054 9.91256 12
77 1 -2.21418 -6.54806 -1.13598 21
78 1 -0.580262 -8.93666 -2.25306 15
79 1 -1.41392 -8.56442 0.905864 17
80 1 -1.58227 -6.69963 4.79305 21
81 1 0.910862 -8.34527 6.09914 12
82 1 -1.91251 -6.94929 8.58863 10
83 1 -1.96091 -0.994518 -0.805223 22
84 1 -0.316297 -3.76169 -0.872243 23
85 1 -0.0895063 -5.72124 2.01578 22
86 1 -1.77728 -2.8693 1.85499 24
87 1 -1.82671 -0.906107 4.40812 22
88 1 0.00529559 -3.4241 4.5811 22
89 1 -0.134422 -5.5146 6.48 21
90 1 -2.12707 -2.79324 7.21595 22
91 1 -1.76396 -0.818771 9.54534 16
92 1 -0.363834 -3.82101 9.80429 16
93 2 -8.44569 -3.50032 0.0282515 17
94 2 -6.93317 -6.27648 0.183401 14
95 2 -6.9637 -6.08523 4.31901 11
96 2 -8.81329 -2.56244 3.79402 14
97 2 -8.35839 -1.30892 1.39018 20
98 2 -6.66783 -4.24065 2.06636 16
99 2 -8.31276 -1.17051 6.26071 13
100 2 -7.26086 -3.94307 6.17075 14
101 2 -2.80872 -8.90962 2.62007 14
102 2 -5.17587 -7.212 2.60083 13
103 2 -4.93145 -9.13934 0.395352 13
104 2 -5.60424 -6.36652 6.5613 12
105 2 -3.50451 -5.94549 4.23391 21
106 2 -5.12847 -2.639 3.93155 22
107 2 -5.16613 -1.3005 1.31631 22
108 2 -3.32782 -3.87498 1.27774 23
109 2 -3.49092 -5.88868 9.25071 11
110 2 -4.89164 -3.12091 9.22143 13
111 2 -5.26758 -1.26008 7.2039 16
112 2 -3.67806 -3.78562 6.51423 23
113 2 -0.553293 -8.45175 4.95633 12
114 2 -1.82085 -6.60033 0.861063 23
115 2 0.134726 -9.08147 1.95167 13
116 2 -1.92687 -6.43101 6.81914 18
117 2 -0.013821 -5.46025 4.18281 24
118 2 -1.73092 -2.89282 3.93634 25
119 2 -1.81748 -0.9308 1.28702 22
120 2 -0.145799 -3.57561 1.42225 22
121 2 -0.590365 -5.7291 9.735 13
122 2 -1.99908 -2.7085 9.52772 15
123 2 -2.09089 -0.847245 6.6756 22
124 2 -0.357017 -3.68434 6.81575 21
125 1 -11.196 -1.29942 -2.04181 9
126 1 -6.96109 0.222784 -8.69061 13
127 1 -8.56538 4.21058 -5.33402 9
128 1 -7.16951 1.69525 -6.09311 18
129 1 -7.04898 -0.389455 -3.35281 21
130 1 -9.69601 1.09484 -4.07654 13
131 1 -6.53836 6.36513 -3.45587 16
132 1 -3.92862 -0.0294878 -8.7567 18
133 1 -5.29275 2.87831 -8.2973 14
134 1 -5.40228 4.83131 -5.82293 17
135 1 -3.61528 1.81161 -5.98882 20
136 1 -3.88579 -0.103226 -3.23876 23
137 1 -5.21184 2.85747 -3.17042 21
138 1 -2.92037 6.6845 -7.93277 11
139 1 -4.17335 7.41976 -5.71353 15
140 1 -3.44083 5.77264 -3.23161 25
141 1 -4.74084 9.36662 -2.6897 13
142 1 -0.551246 0.0222487 -8.48948 21
143 1 -1.83178 3.02037 -8.5795 18
144 1 -1.76523 4.61416 -6.07617 22
145 1 0.0645222 1.79636 -5.97778 21
146 1 -0.350814 -0.0351405 -3.44135 23
147 1 -1.74986 3.12932 -3.27385 24
148 1 -0.204697 5.85664 -8.21416 16
149 1 -0.637877 7.61114 -6.06335 17
150 1 -0.326478 5.89011 -3.56952 20
151 1 -2.00721 8.81883 -3.35309 17
152 2 -10.3806 -0.55655 -0.197805 12
153 2 -10.5771 0.374602 -2.54613 12
154 2 -7.26757 -0.245614 -6.78015 20
155 2 -6.76809 2.24491 -8.95391 8
156 2 -6.94373 -0.485272 -1.51399 23
157 2 -8.64942 2.55462 -0.878335 14
158 2 -7.07875 5.40314 -5.02537 13
159 2 -6.70441 1.66198 -3.69149 20
160 2 -8.79991 2.33436 -5.26036 11
161 2 -6.89015 5.82372 -1.19886 16
162 2 -6.33099 8.25117 -2.84419 11
163 2 -3.97735 -0.0185423 -6.59195 23
164 2 -5.31313 2.64617 -6.32589 20
165 2 -3.65615 2.2042 -8.78637 14
166 2 -3.832 -0.118494 -1.19272 22
167 2 -5.0245 2.76651 -1.30173 22
168 2 -5.02203 4.78792 -3.58463 19
169 2 -3.3922 2.09833 -3.94233 22
170 2 -4.36088 5.79827 -6.95759 13
171 2 -3.28246 5.59273 -1.32566 22
172 2 -4.97136 8.62955 -0.733965 19
173 2 -3.66678 7.70135 -3.74157 19
174 2 -0.446306 -0.0678448 -6.45233 22
175 2 -1.71999 2.52418 -6.36497 19
176 2 -2.01248 4.94305 -8.23094 15
177 2 -0.147433 1.93833 -8.87846 16
178 2 -0.179476 0.00961786 -1.3851 22
179 2 -1.87984 2.81012 -1.08407 23
180 2 -1.87666 4.90789 -4.07321 23
181 2 -0.090172 1.88955 -3.77774 21
182 2 -0.104292 5.64368 -6.23288 21
183 2 -2.44513 7.52833 -6.42424 15
184 2 -0.358928 5.94694 -1.43748 24
185 2 -1.59042 8.54541 -1.3644 20
186 2 -3.12745 10.3126 -2.4978 9
187 2 -0.158445 7.78234 -3.95166 18
188 1 -10.0727 1.36248 -0.81956 13
189 1 -10.1367 -0.347306 1.78526 15
190 1 -10.7193 1.96087 3.2504 9
191 1 -8.47015 4.48985 -0.963244 12
192 1 -6.76867 1.63735 -1.14792 18
193 1 -6.88249 -0.2361 1.78829 22
194 1 -8.28838 2.52587 1.45895 21
195 1 -8.68122 4.7153 3.20637 11
196 1 -6.92673 1.99617 4.43307 21
197 1 -7.24428 0.0412517 7.19274 13
198 1 -6.98603 7.85291 -0.90791 12
199 1 -6.96722 5.7847 1.22363 17
200 1 -7.00952 7.73955 3.14979 9
201 1 -5.23227 5.12335 8.29059 10
202 1 -5.14769 4.86997 -0.975494 19
203 1 -3.42295 1.79443 -0.791064 23
204 1 -3.53203 -0.0182574 1.82005 23
205 1 -5.33284 3.12163 1.67587 22
206 1 -5.51237 4.89796 4.29083 20
207 1 -3.76918 2.13782 4.46108 22
208 1 -3.77049 -0.210312 7.03926 22
209 1 -5.06827 2.76343 6.7123 18
210 1 -3.919 1.98486 9.59043 13
211 1 -3.14172 7.49517 -0.507979 22
212 1 -3.62498 5.79746 1.83891 23
213 1 -5.32759 8.95681 1.1364 13
214 1 -3.66997 8.02878 3.94326 16
215 1 -3.54101 6.18963 6.61769 16
216 1 -1.72693 4.5983 -0.806366 24
217 1 -0.190232 1.83363 -0.542395 24
218 1 -0.144436 0.0167051 1.90851 23
219 1 -1.98219 3.05724 1.90448 22
220 1 -2.00175 4.95323 4.3178 22
221 1 -0.5036 2.03079 4.28883 21
222 1 -0.428241 0.0405966 7.07156 20
223 1 -2.34425 3.11156 6.88867 23
224 1 -1.96505 4.74739 9.42187 12
225 1 -0.250468 1.96784 9.18507 14
226 1 -1.88255 10.6621 -1.22331 9
227 1 0.110363 7.89335 -0.82925 21
228 1 -0.189121 5.85413 1.67943 19
229 1 -1.75206 8.92112 1.78306 16
230 1 0.0282974 7.9353 3.61553 18
231 1 -0.396437 6.33832 6.50151 18
232 1 -1.87923 9.20002 5.82154 8
233 2 -10.409 0.233348 3.7681 11
234 2 -10.1547 1.68941 1.3803 13
235 2 -6.94533 0.236829 3.84297 21
236 2 -8.78237 2.71618 3.58514 17
237 2 -8.52088 4.51856 1.30407 14
238 2 -6.48275 1.5864 1.22093 21
239 2 -6.76642 1.65377 6.17326 16
240 2 -7.11246 5.86637 3.23898 15
241 2 -7.04892 7.90384 1.26718 11
242 2 -3.59808 0.0179188 4.04149 21
243 2 -5.38081 3.00225 3.68038 23
244 2 -5.1613 4.90373 0.949051 24
245 2 -3.53945 2.02045 1.42091 21
246 2 -3.71984 -0.0632022 9.42113 13
247 2 -5.37241 3.22624 8.52145 13
248 2 -5.14634 4.69793 6.38316 17
249 2 -3.61371 1.74607 6.37331 22
250 2 -3.73929 5.81595 3.85679 21
251 2 -5.31611 8.54525 3.03172 14
252 2 -3.25056 7.59694 1.36259 19
253 2 -3.19957 5.39284 8.27964 13
254 2 -3.38895 7.92578 5.8787 12
255 2 -0.128461 0.0845452 3.98403 22
256 2 -2.1588 3.15121 4.1412 21
257 2 -1.68677 4.81638 1.27443 21
258 2 -0.181485 2.08727 1.43068 23
259 2 -0.227513 0.108414 9.2607 17
260 2 -2.1276 2.80996 9.06669 18
261 2 -1.79129 4.9923 6.38849 23
262 2 -0.448261 2.09085 6.7367 19
263 2 -0.397329 5.94455 3.54308 25
264 2 -1.78282 9.04309 3.85637 14
265 2 -1.73136 10.4097 0.687159 11
266 2 0.123178 7.99468 1.41706 19
267 2 -0.139398 4.82715 9.56825 13
268 2 -0.282215 8.35156 5.92475 13
269 1 1.04624 -6.74767 -6.16688 18
270 1 2.41846 -9.04753 -5.25804 13
271 1 1.21207 1.09722 -10.0821 10
272 1 2.02017 -5.51363 -8.86072 12
273 1 1.08395 -2.66359 -8.87415 20
274 1 1.30861 -1.07043 -6.07215 22
275 1 2.96052 -3.81985 -6.22374 23
276 1 2.98032 -5.69437 -3.55942 21
277 1 1.22322 -2.89663 -3.51658 24
278 1 4.57452 -6.70454 -6.9373 14
279 1 4.90446 -8.39952 -4.23544 12
280 1 4.57871 -3.01808 -8.89298 14
281 1 4.93537 -0.999103 -6.11325 21
282 1 6.14852 -3.71117 -6.1998 13
283 1 6.46674 -5.62731 -4.32704 18
284 1 4.58751 -2.60202 -3.46969 22
285 1 7.92507 0.412207 -5.71627 14
286 1 8.09641 -2.60436 -3.50605 19
287 2 0.787623 -8.65771 -6.08724 12
288 2 1.12818 -8.45907 -1.51738 17
289 2 1.15722 -5.88314 -4.39405 21
290 2 3.01355 -8.96655 -3.4498 14
291 2 2.74329 -5.72449 -6.92245 18
292 2 1.30343 -2.94972 -6.82208 24
293 2 1.21738 -0.70354 -9.2796 15
294 2 2.79305 -3.79687 -9.01513 14
295 2 2.88089 -5.70899 -1.59202 22
296 2 1.33002 -2.76522 -1.45849 24
297 2 1.42174 -0.96106 -4.00981 20
298 2 3.16708 -3.60218 -4.15979 22
299 2 4.31431 -8.23173 -0.534998 16
300 2 4.02955 -8.08188 -5.81248 12
301 2 5.98736 -5.64551 -6.42975 12
302 2 4.71582 -2.71532 -6.96255 19
303 2 4.9224 -1.25832 -9.27902 12
304 2 6.59157 -5.56789 -1.01269 19
305 2 4.64122 -2.59919 -1.52797 22
306 2 4.8895 -0.980459 -4.28304 23
307 2 8.10274 -6.43796 -3.94877 11
308 2 4.94906 -6.58997 -3.48481 18
309 2 6.50889 -3.55971 -4.39419 19
310 2 9.55223 -5.98931 -1.58818 10
311 2 7.83408 -2.37859 -1.38437 18
312 2 8.17564 -0.605637 -4.08242 17
313 2 9.68261 -3.62848 -3.21943 13
314 1 1.1666 -6.6975 -0.965338 23
315 1 3.00348 -9.2044 -1.62712 12
316 1 1.79865 -8.67318 1.58547 16
317 1 1.65613 -6.44854 4.09986 22
318 1 4.00139 -8.45285 4.34163 12
319 1 1.01711 -6.65843 9.27133 10
320 1 1.41666 -0.967699 -0.777742 23
321 1 3.04909 -3.76784 -1.00751 23
322 1 3.05408 -5.54963 1.47022 20
323 1 1.69646 -2.77061 1.92118 24
324 1 1.62291 -0.70528 4.61728 20
325 1 3.34121 -3.5584 4.65214 21
326 1 2.99429 -6.0181 7.35635 16
327 1 1.32015 -2.46296 7.16923 21
328 1 1.52683 -0.647012 9.80535 15
329 1 2.81887 -3.70716 9.85065 14
330 1 4.7306 -6.54901 -1.37628 18
331 1 7.86888 -6.85652 -1.96168 12
332 1 4.94714 -8.32008 1.19548 13
333 1 6.18226 -6.39829 6.11347 9
334 1 4.91141 -0.765596 -0.772795 24
335 1 6.24806 -3.55357 -1.02324 21
336 1 7.04563 -5.80733 0.979283 17
337 1 5.03696 -2.80165 1.79839 24
338 1 4.74738 -0.895465 4.71129 24
339 1 6.81584 -3.44546 5.05631 18
340 1 5.26322 -5.48617 3.33565 20
341 1 4.75691 -3.73669 7.33029 16
342 1 5.078 -1.15887 9.19856 13
343 1 9.81148 -5.6674 -3.59676 9
344 1 8.57477 -5.86233 3.34693 14
345 1 8.04414 -0.656501 -0.435474 23
346 1 9.62232 -3.21646 -1.22207 17
347 1 10.4582 -6.22642 0.143574 10
348 1 8.17865 -2.95435 2.55924 20
349 1 8.04732 -0.180171 4.53838 16
350 1 11.1312 -3.65538 2.29457 10
351 1 6.83201 -0.506545 7.23513 16
352 1 11.73 -1.53371 -0.109117 10
353 2 2.54635 -7.90155 5.22783 13
354 2 1.45261 -6.56813 1.01762 22
355 2 3.49316 -8.85888 2.42765 13
356 2 0.927456 -6.75586 7.32522 16
357 2 2.8845 -5.13697 3.37208 20
358 2 1.53706 -2.52504 3.97435 23
359 2 1.64895 -0.975384 1.39783 23
360 2 3.35794 -3.66345 1.03405 22
361 2 2.66083 -5.59255 9.34065 11
362 2 1.10828 -2.54553 9.73969 14
363 2 1.32699 -0.751655 6.59722 22
364 2 2.73538 -3.80778 6.38023 22
365 2 5.23668 -7.21846 4.71387 13
366 2 5.06232 -6.51942 1.60327 20
367 2 4.76264 -5.68863 7.09598 16
368 2 7.0127 -5.36974 4.66866 16
369 2 5.15777 -2.93509 4.08446 20
370 2 4.77164 -1.00793 1.26795 25
371 2 6.45926 -4.16447 1.77709 19
372 2 4.19019 -2.78143 8.90351 15
373 2 4.62456 0.341081 6.20303 20
374 2 6.13956 -2.28441 6.77559 17
375 2 8.87398 -5.99203 1.35722 14
376 2 9.59091 -4.27764 3.13218 13
377 2 8.10116 -1.15703 1.49497 22
378 2 10.9825 -4.25483 0.152319 12
379 2 8.03018 -2.15 4.35798 18
380 2 10.9585 -1.92041 1.62125 12
381 1 3.15798 -0.261522 -8.64525 21
382 1 1.46705 3.03642 -8.29269 21
383 1 1.60159 4.74232 -5.7434 24
384 1 3.2766 1.84954 -6.26494 21
385 1 3.32348 -0.0220497 -3.44846 25
386 1 1.70703 3.04679 -3.25208 22
387 1 2.4936 6.19464 -8.70417 10
388 1 2.59757 7.89092 -6.51669 12
389 1 3.87723 5.73745 -3.24712 21
390 1 1.38431 8.78802 -3.43167 16
391 1 6.49514 -0.287658 -8.96382 10
392 1 4.28308 2.60536 -9.31299 12
393 1 4.78327 4.76203 -6.33767 16
394 1 6.76527 2.65432 -7.35523 13
395 1 6.43661 -0.28264 -3.28846 23
396 1 4.9645 2.88926 -3.60034 23
397 1 6.5499 6.03307 -3.72854 14
398 1 4.33377 8.84584 -3.8803 12
399 1 8.11203 4.34226 -5.57614 11
400 1 9.9076 -0.366059 -2.99253 14
401 1 8.20003 2.46436 -3.5601 18
402 2 2.98867 -0.0629699 -6.5785 21
403 2 1.5876 2.93879 -6.35679 20
404 2 1.31046 4.76815 -9.11505 15
405 2 2.59036 1.8203 -9.36156 14
406 2 3.14737 -0.0819829 -1.39176 23
407 2 1.50737 2.81403 -1.367 22
408 2 1.45704 4.92413 -3.72785 19
409 2 3.15596 2.09236 -4.01606 21
410 2 3.07441 6.03855 -6.62642 16
411 2 0.80712 7.47879 -7.5752 13
412 2 3.18428 5.61802 -1.45047 21
413 2 1.73567 8.70825 -1.48283 16
414 2 4.41046 8.8816 -1.82802 15
415 2 2.79027 8.78885 -4.79221 11
416 2 6.68343 -0.302929 -7.12578 16
417 2 4.38489 3.08461 -7.32535 18
418 2 5.86311 1.603 -8.96874 11
419 2 6.44759 -0.0150591 -1.35333 26
420 2 4.7874 2.94491 -1.48519 22
421 2 5.07536 4.66605 -4.36404 22
422 2 6.37474 1.74516 -3.97265 22
423 2 6.56171 4.49542 -6.56082 13
424 2 6.09175 5.88855 -1.88494 19
425 2 6.05504 8.08616 0.334395 16
426 2 5.96825 7.8587 -3.60678 10
427 2 8.35665 2.28818 -5.64002 11
428 2 10.344 -1.19334 -1.44337 15
429 2 7.87395 3.28694 -0.693434 19
430 2 7.98704 4.67804 -3.60785 14
431 2 9.39419 1.54027 -2.41554 16
432 2 8.97933 5.64717 0.0155929 11
433 1 1.35717 4.81457 -0.931014 23
434 1 3.24242 1.96873 -0.770011 25
435 1 3.25364 0.161885 1.73717 22
436 1 1.47594 3.03324 1.85048 22
437 1 1.32586 5.06805 4.25087 22
438 1 2.9691 2.32006 4.64335 22
439 1 2.98498 0.276154 7.11511 23
440 1 1.18728 3.4481 6.8641 20
441 1 1.53346 4.54403 10.203 10
442 1 3.21586 1.84635 9.86725 15
443 1 3.22388 10.0128 -0.877032 12
444 1 3.18053 7.46209 -0.739429 22
445 1 3.18346 5.56207 1.94685 22
446 1 2.10997 9.2032 1.93412 15
447 1 3.51934 7.54719 4.33948 17
448 1 3.00181 5.87035 6.96122 15
449 1 1.49788 8.85297 5.75739 11
450 1 4.97912 4.84051 -0.821926 22
451 1 6.21026 1.837 -0.74964 23
452 1 6.50993 0.0289743 1.96787 23
453 1 4.68988 2.84002 2.1114 22
454 1 5.12971 4.76226 4.78533 20
455 1 5.83058 1.60024 5.27303 21
456 1 6.70237 2.14405 9.26901 10
457 1 4.05478 3.68899 7.87875 18
458 1 6.24448 8.11553 -1.61878 14
459 1 6.50504 6.08286 1.10683 20
460 1 4.96132 8.71921 1.79321 16
461 1 7.04794 7.74043 3.9333 11
462 1 6.76075 5.27039 6.99385 11
463 1 8.231 5.17782 -1.59729 14
464 1 10.0241 2.25922 -0.722043 13
465 1 9.69293 -0.138465 1.93936 16
466 1 8.07318 3.02095 1.27212 18
467 1 8.12613 4.96282 3.94923 13
468 1 9.99992 2.76355 3.72717 11
469 1 8.58246 2.55049 6.60433 12
470 1 9.52736 6.02258 1.79922 9
471 2 3.12926 0.401768 3.81292 23
472 2 1.24002 2.8696 4.46962 19
473 2 1.43183 4.81291 1.149 24
474 2 3.11271 2.14057 1.28778 24
475 2 3.20651 -0.231352 9.28224 15
476 2 1.35344 2.54544 9.91893 15
477 2 1.35427 5.37613 6.17413 21
478 2 2.95772 2.47941 6.80331 21
479 2 3.26128 5.46808 4.051 20
480 2 1.90243 8.9849 3.79194 15
481 2 3.59826 10.1283 1.0089 10
482 2 3.32019 7.47819 1.37621 21
483 2 2.76928 5.0333 8.85125 12
484 2 2.84698 7.63028 6.31258 14
485 2 6.33099 0.0293401 3.86105 22
486 2 4.99176 2.94597 4.04074 20
487 2 5.11576 4.80657 1.29684 22
488 2 6.19908 1.97204 1.36428 22
489 2 6.34049 0.244578 8.90362 14
490 2 4.88319 2.51952 9.40865 14
491 2 4.87 5.17641 6.81544 14
492 2 7.52534 1.04614 6.07806 16
493 2 6.71051 6.01465 5.02447 14
494 2 5.21755 8.26142 3.64415 15
495 2 7.88225 6.64367 2.43171 12
496 2 9.22807 1.03804 3.4908 16
497 2 9.10392 3.75145 5.17996 10
498 2 9.2145 4.20429 2.52651 14
499 2 9.51959 1.29932 0.723548 17
500 2 7.13419 3.48353 7.79445 12
