ITEM: TIMESTEP
49000
ITEM: NUMBER OF ATOMS
2880
ITEM: BOX BOUNDS pp pp pp
0.0 33.66
0.0 33.66
0.0 32.9
ITEM: ATOMS id type x y z Coordination
188 2 3.40118 3.77594 4.69757 21
187 2 1.22242 1.8495 4.66213 23
3 1 1.20238 3.42346 2.02898 22
4 1 4.13053 2.00058 1.80877 20
5 1 1.52128 0.892712 2.86555 21
6 1 4.4675 4.74249 3.35685 20
7 1 1.36043 3.89723 4.99626 20
8 1 3.86442 2.03968 4.92712 22
186 2 4.61571 1.16119 3.4142 24
185 2 0.975328 4.86507 3.32804 21
183 2 2.21238 1.80558 1.21737 23
184 2 3.6081 4.2269 1.7587 21
10 1 4.34291 4.47901 6.38385 22
9 1 0.977714 0.969672 6.40606 20
190 2 4.07851 1.19925 6.52904 22
181 2 1.25882 4.39006 0.0601949 21
2 1 4.46712 4.42754 0.142792 21
196 2 4.1459 3.88166 11.1093 22
193 2 1.22265 4.76824 10.7341 19
11 1 1.42907 3.38286 8.23908 21
12 1 3.61196 1.65816 8.3669 20
13 1 1.1107 0.375099 10.2642 21
14 1 4.69244 4.71803 9.55102 21
15 1 2.20182 3.63268 11.8619 21
16 1 4.72473 1.82597 11.2521 21
195 2 1.87528 1.33097 11.6029 22
194 2 4.57821 0.708357 9.60654 21
191 2 1.43414 1.45002 8.35387 20
192 2 3.61601 3.61373 8.12262 20
18 1 4.0927 4.83916 13.0695 22
197 2 0.539864 3.47668 13.0308 20
189 2 0.835614 3.32522 6.6581 20
541 2 1.70006 4.18533 16.8328 22
542 2 4.79725 0.80691 16.137 22
19 1 2.17371 3.67993 15.0216 19
20 1 3.64224 1.61674 14.5818 22
544 2 3.73984 3.39269 18.0838 19
543 2 1.61115 1.30295 18.2601 21
199 2 1.7611 1.65211 15.0692 23
200 2 3.95673 3.6551 14.5352 22
361 1 1.14409 0.8406 16.6121 22
362 1 4.61294 4.41256 16.3425 22
363 1 1.82714 3.45743 18.6423 20
364 1 3.87916 1.51439 18.1201 21
17 1 0.777855 1.37898 13.3004 23
198 2 4.43173 0.895313 13.1354 21
545 2 0.70658 4.93088 19.445 20
366 1 4.66953 4.19602 19.5892 21
552 2 3.64905 4.01618 24.5576 19
550 2 4.54883 0.984054 23.3726 19
367 1 0.785419 3.95114 21.3264 19
368 1 3.97161 2.00403 21.7699 22
369 1 1.22987 0.867909 22.8638 20
370 1 3.63194 4.8255 22.6965 20
371 1 1.45984 3.98865 24.6232 24
372 1 3.50477 2.05262 24.5517 18
549 2 1.85984 5.20827 22.2846 20
551 2 1.63341 2.12309 25.0377 20
547 2 2.15524 1.91705 21.528 25
548 2 5.06427 3.75522 21.5132 23
365 1 0.896054 0.757958 20.1225 22
546 2 4.35188 0.765074 19.787 24
560 2 3.93458 3.68365 31.0761 21
559 2 1.5572 1.74955 30.6832 20
375 1 1.61803 3.55944 27.8486 21
376 1 4.53058 1.71824 27.7577 22
377 1 1.03159 0.839297 29.3547 23
378 1 4.62549 4.87915 29.4261 20
379 1 1.52088 3.50781 31.1256 22
380 1 4.33147 1.77001 30.85 21
558 2 5.01759 0.622955 29.5016 19
557 2 0.613436 4.22912 29.6245 20
555 2 0.722696 1.80282 27.8028 22
556 2 3.53114 3.52995 28.2747 19
374 1 4.31901 4.24288 26.3842 20
182 2 4.83188 1.17145 32.8105 21
1 1 2.05977 1.14463 32.2676 20
553 2 0.907953 4.70592 26.392 18
554 2 3.8392 0.422806 26.4657 20
373 1 1.67837 0.781486 26.5575 20
206 2 3.63197 6.96816 3.36992 20
208 2 4.48382 9.01491 4.97044 18
23 1 1.04174 9.32345 1.68735 23
24 1 3.85378 7.26153 1.38646 23
25 1 1.28111 6.70655 3.51314 21
26 1 4.64788 9.6914 3.24263 22
27 1 1.56992 9.94474 4.89426 22
28 1 4.5944 7.28103 5.07905 21
207 2 0.7507 7.86111 5.00829 19
205 2 1.10601 10.5791 3.31242 21
203 2 1.77985 7.44403 1.67961 21
204 2 5.52001 8.07538 1.81905 20
201 2 1.77019 10.1623 0.0958377 21
21 1 1.34161 6.14919 0.335791 21
22 1 3.75907 10.1316 0.12507 24
213 2 0.937328 10.4773 10.0457 22
214 2 3.67204 6.91355 9.96245 22
31 1 1.91257 9.40318 8.38933 20
32 1 4.46602 7.73494 8.16009 20
33 1 1.7766 6.17276 9.40341 19
34 1 4.12895 10.716 9.51434 23
35 1 1.76956 9.79194 11.7317 20
36 1 3.60938 7.79046 11.6489 21
215 2 1.82888 7.98062 12.4059 21
216 2 3.85938 10.2635 11.3989 22
211 2 1.73416 7.64278 8.12627 19
212 2 3.84585 9.71364 8.00329 21
210 2 4.40295 6.31773 6.96995 20
37 1 1.46967 5.96107 12.8394 21
209 2 1.44487 10.0809 6.81071 21
30 1 4.59421 10.6026 6.674 24
29 1 1.0854 6.6632 6.61433 21
561 2 1.13025 10.2856 16.5468 21
563 2 1.93024 7.50205 18.0255 18
39 1 1.58773 9.12853 15.0876 22
40 1 3.58323 6.86856 15.3823 21
562 2 4.68553 6.40221 16.7626 21
564 2 4.57851 9.42798 18.4183 21
219 2 1.97853 5.88416 15.0192 21
220 2 3.73494 8.80407 15.8098 21
381 1 1.1531 6.40844 16.6892 22
382 1 4.74502 10.2154 16.5914 23
383 1 1.63755 9.45389 18.1327 22
384 1 4.09591 7.42921 18.5446 21
565 2 1.42994 10.7199 19.6382 21
217 2 1.28381 10.1109 13.5321 20
218 2 4.11818 6.99375 13.5223 19
38 1 4.46731 10.2969 13.3898 23
572 2 4.37142 9.61658 24.5927 25
569 2 1.78511 10.6198 23.1432 23
387 1 0.846198 9.97964 21.2733 19
388 1 4.38859 7.16881 21.4751 22
389 1 1.26969 7.12558 22.9197 19
390 1 3.73349 10.6731 22.9417 20
391 1 0.955823 9.63323 24.8717 22
392 1 3.49569 7.73798 24.4399 21
570 2 4.09487 6.58633 23.1863 21
571 2 1.25176 7.76707 24.6272 22
567 2 1.14358 8.01676 21.069 20
568 2 4.32315 9.19112 21.3974 23
385 1 1.69059 6.58474 19.77 21
574 2 4.24416 7.03405 26.1116 21
393 1 0.907857 6.61473 26.2106 19
394 1 3.53455 10.6342 26.1134 25
386 1 3.73416 10.4754 19.902 22
566 2 3.90409 6.07035 19.8677 21
580 2 4.43132 9.22453 31.2522 24
579 2 1.36559 7.39005 31.9148 24
395 1 0.633848 9.51865 27.8748 24
396 1 3.65815 7.80938 27.6473 22
397 1 0.83944 6.45594 29.5414 20
398 1 3.59807 10.4662 29.8012 24
399 1 1.24635 9.21447 31.3089 21
400 1 3.56279 7.53739 30.8291 22
578 2 3.86527 6.60989 29.2883 19
577 2 1.56741 10.052 29.4805 24
575 2 1.36411 7.60996 28.1623 21
576 2 4.10001 9.55257 27.9592 22
202 2 4.00924 6.47718 32.5781 18
573 2 1.741 10.6455 26.4866 22
228 2 3.4696 15.313 4.84361 23
227 2 1.95465 12.5655 5.17498 19
43 1 1.61107 15.0567 1.42489 20
44 1 4.00431 13.2699 1.67223 20
45 1 1.2793 12.6359 3.26603 19
46 1 3.96848 16.3286 3.12876 21
47 1 1.64778 14.8629 4.96808 22
48 1 4.02303 13.2475 4.76179 19
225 2 0.474616 15.0302 3.19244 19
226 2 4.04236 11.7363 3.00898 18
223 2 1.43293 13.3144 1.54398 19
224 2 4.37256 15.3159 1.63224 20
222 2 4.48777 12.5502 0.0746602 21
230 2 4.39441 12.7632 6.50388 21
41 1 0.894823 12.023 0.282433 21
234 2 4.47865 12.6794 9.61759 21
233 2 0.807904 16.3182 9.76101 21
51 1 1.73681 15.3058 8.67562 23
52 1 3.47428 13.5505 7.95878 22
53 1 0.637816 12.3058 9.88237 23
54 1 4.26012 15.8803 10.422 22
55 1 0.981668 15.0755 11.4411 21
56 1 3.22592 13.0788 11.5109 24
236 2 3.05091 14.9952 11.3419 22
235 2 1.19903 12.8643 11.5619 22
231 2 1.55602 13.3276 8.2787 23
232 2 3.55854 15.3975 8.49655 21
49 1 1.37782 11.993 6.92055 22
238 2 4.15309 12.1843 12.8552 21
237 2 0.878485 16.1378 13.1135 20
229 2 1.19719 15.4998 6.58677 20
50 1 4.47796 15.9897 6.84469 23
583 2 1.52443 13.3944 18.1624 21
584 2 3.5973 15.2737 18.2525 21
59 1 1.47989 14.9582 14.6042 21
60 1 3.41256 12.8811 14.8497 21
581 2 0.68235 15.7481 16.1114 20
582 2 4.13676 11.9129 16.1979 22
239 2 1.6234 12.8403 14.9879 18
240 2 3.41638 14.8311 14.8359 19
401 1 0.820576 12.186 16.7347 20
402 1 3.94254 16.1168 16.223 20
403 1 1.27614 15.27 17.9967 22
404 1 3.30173 13.0597 17.8441 21
57 1 1.01108 12.0073 13.2285 21
586 2 4.08139 12.2219 19.6341 24
405 1 0.481093 12.4289 19.5839 23
585 2 0.765647 16.1365 19.4851 23
58 1 4.22431 15.7705 13.2307 22
592 2 3.78258 15.123 24.9881 17
589 2 1.00298 16.0844 23.179 23
407 1 1.78696 15.6115 21.1996 23
408 1 3.55592 13.1775 21.4233 21
409 1 0.936924 12.4024 22.8574 22
410 1 4.78544 15.4866 23.1535 21
411 1 1.76934 14.9874 24.6915 21
412 1 4.00676 13.2212 24.7807 22
591 2 1.75021 12.9953 24.8256 23
590 2 4.77455 12.3211 23.0165 24
587 2 1.27828 13.7682 21.2684 20
588 2 3.76938 15.194 21.5381 21
594 2 4.78041 12.0916 26.3168 22
406 1 4.62208 15.533 19.9045 23
598 2 4.72901 11.79 29.5437 23
600 2 4.50227 14.7576 31.1669 23
415 1 2.08275 14.9068 28.2035 21
416 1 3.82624 12.4854 27.9958 23
417 1 1.07047 11.6949 29.9203 21
418 1 4.98437 15.5375 29.5451 22
419 1 2.13058 15.0332 30.9641 21
420 1 4.10705 12.6183 31.0943 23
599 2 2.08158 12.44 31.288 21
597 2 1.28236 15.7422 29.4992 21
595 2 1.50564 13.0869 28.0539 23
596 2 3.99882 14.4979 28.174 20
593 2 1.17416 15.8576 26.334 21
413 1 0.689368 12.0529 26.719 20
42 1 4.42221 15.8051 32.807 21
221 2 1.8545 16.2048 32.8334 19
414 1 3.66723 15.833 26.7858 23
908 2 4.88843 20.1027 5.29406 20
907 2 1.79014 18.5449 4.84241 21
723 1 1.16094 20.7922 2.32007 23
724 1 4.18951 18.8997 1.65213 23
725 1 0.830951 17.279 3.41069 23
726 1 4.02528 21.094 3.83351 21
727 1 0.97935 20.3326 4.84892 21
728 1 3.72282 18.5517 5.22258 21
906 2 4.43954 18.1469 3.46079 20
905 2 1.50891 21.8046 3.64745 20
903 2 1.37632 18.6631 2.16471 22
904 2 4.29737 20.8634 1.82247 19
901 2 2.00098 21.3441 0.877484 21
722 1 4.34773 21.8238 0.237875 20
721 1 1.33765 18.0387 0.381304 21
916 2 3.63175 21.1458 11.7306 22
915 2 1.80385 19.1403 11.8865 23
731 1 1.50945 20.6968 8.37815 21
732 1 3.6712 18.8705 8.55975 22
733 1 1.36071 18.2342 10.1644 22
734 1 4.4042 21.4623 10.0466 19
735 1 1.54487 21.243 11.3701 18
736 1 3.59726 18.8927 11.7388 20
914 2 3.52208 17.8279 10.1284 21
913 2 0.382606 21.2571 10.1206 21
911 2 1.53086 18.856 8.15545 19
912 2 3.55575 20.778 8.42763 22
729 1 1.17752 17.5425 6.57352 21
909 2 0.606159 21.6489 6.91137 18
910 2 4.12543 17.7849 6.92845 21
730 1 4.70944 21.2794 6.85582 19
1261 2 0.624198 21.2997 16.4482 22
1264 2 3.91828 20.6307 18.3258 21
739 1 1.71141 21.4683 14.7214 18
740 1 3.68272 18.9351 15.129 22
1263 2 1.63751 18.7416 18.3799 21
1262 2 4.36519 18.0026 16.5178 20
919 2 1.67677 18.6587 14.9761 21
920 2 3.68302 20.9791 15.1801 18
1081 1 0.751318 17.9827 16.6678 20
1082 1 4.98572 21.1828 16.707 21
1083 1 1.83522 20.7174 17.9704 22
1084 1 3.43762 18.3199 18.4452 23
918 2 4.40939 18.0882 13.2304 21
737 1 0.90225 18.215 13.3944 20
738 1 4.28971 21.6231 13.3774 22
1265 2 1.01625 21.6183 19.5618 22
917 2 0.712037 21.4878 13.2865 20
1269 2 1.33534 20.8437 22.8601 19
1270 2 4.12024 17.5179 23.3166 22
1087 1 2.00232 20.6991 21.2225 21
1088 1 3.85597 17.8986 21.6293 20
1089 1 0.999652 18.2843 23.1314 20
1090 1 4.61053 21.0452 22.8368 20
1091 1 2.34592 20.6055 24.9684 23
1092 1 4.99902 18.3867 24.7853 21
1272 2 4.21341 20.2154 25.0216 20
1271 2 1.74857 18.6996 25.092 24
1267 2 1.84672 18.546 21.2623 19
1268 2 4.06289 19.8871 21.4131 21
1086 1 4.70982 20.9684 19.7963 22
1085 1 0.615327 18.2802 19.8748 23
1266 2 4.28571 17.5019 19.8502 23
1274 2 4.8206 17.3535 26.3673 23
1093 1 1.04052 17.8063 26.3576 21
1280 2 3.94957 20.4771 31.5321 22
1279 2 1.17726 18.6461 31.3183 21
1095 1 2.20574 20.0505 28.079 23
1096 1 4.13798 18.4874 27.994 22
1097 1 1.10899 17.8579 29.556 22
1098 1 4.78531 21.4169 29.9747 20
1099 1 1.87555 20.8047 31.4539 20
1100 1 3.76447 18.5101 30.9728 23
1278 2 4.12761 17.3469 29.5799 23
1277 2 1.53283 21.1515 29.5545 21
1275 2 2.10683 18.0317 27.8601 21
1276 2 4.19296 20.3371 28.3092 21
1273 2 1.82332 21.4084 26.6333 23
1094 1 4.52702 21.1036 26.6057 21
902 2 4.79966 17.8824 32.8209 22
928 2 4.48094 25.9879 4.59512 21
925 2 1.43614 26.8991 3.59896 20
743 1 2.44095 27.3036 1.95897 19
744 1 3.53533 24.3952 2.43425 23
745 1 0.953037 23.7279 3.73521 22
746 1 4.86129 27.2329 3.3784 25
747 1 2.12627 26.2297 5.11886 26
748 1 3.68239 24.276 5.1 21
927 2 1.71233 24.3412 5.47932 19
926 2 4.79146 23.6161 3.71158 25
923 2 1.60243 24.0489 2.03896 21
924 2 3.93322 26.2718 1.69793 24
922 2 4.65517 23.9994 0.364245 22
741 1 1.06926 23.1844 0.679181 21
921 2 1.05161 26.9921 0.304535 22
750 1 4.8845 26.6109 6.38921 20
742 1 4.72286 26.9357 0.0258069 22
936 2 4.00085 26.2894 11.7351 22
933 2 1.47387 27.7808 10.184 20
751 1 1.50389 26.6388 8.57777 20
752 1 3.59398 24.2505 8.40556 20
753 1 0.946796 23.9401 10.1512 22
754 1 4.35791 27.0819 9.92714 23
755 1 2.09773 26.8855 12.1805 21
756 1 4.1666 24.479 11.5015 21
935 2 2.08953 24.5124 11.6842 24
934 2 4.50781 23.4104 9.71175 19
931 2 1.66936 24.2365 8.34914 21
932 2 3.98724 26.4205 8.23712 23
930 2 4.49183 23.9376 6.64662 20
938 2 5.07097 24.0416 12.984 20
749 1 0.954347 23.525 6.73866 20
929 2 0.946808 27.0855 6.6022 19
1284 2 3.78418 26.7152 18.0118 19
1283 2 2.26154 24.4101 18.3998 18
759 1 1.23243 25.7078 14.6334 20
760 1 4.00421 24.4429 14.5316 22
1282 2 4.97699 23.3615 16.3914 21
1281 2 0.60807 25.7493 16.3058 23
939 2 1.81531 23.6355 14.9614 20
940 2 3.42014 26.3924 14.928 23
1101 1 0.981827 23.7923 16.838 19
1102 1 4.2103 27.2497 16.2842 22
1103 1 1.47401 26.3453 18.1231 19
1104 1 4.0838 24.1422 17.8027 20
1286 2 5.04244 23.4654 19.5366 19
1105 1 0.991904 23.6463 19.6577 20
937 2 0.567121 26.8796 13.4837 22
758 1 4.57198 27.0974 13.3419 22
1106 1 4.86378 27.2882 19.6095 22
1285 2 1.1303 27.1024 19.7066 20
757 1 0.83924 23.5456 13.2042 23
1292 2 4.82441 25.698 24.825 20
1290 2 4.59292 22.8298 22.9686 22
1107 1 2.07539 26.4394 21.1524 20
1108 1 3.74438 23.8487 21.1908 21
1109 1 1.11637 23.1816 22.8993 20
1110 1 4.91911 26.9451 22.7962 19
1111 1 2.1818 25.9845 24.5534 21
1112 1 4.14418 23.8499 24.4413 22
1291 2 2.11556 23.9362 24.3097 21
1289 2 1.40674 26.8885 22.9767 20
1287 2 2.04007 23.5537 21.178 21
1288 2 3.84254 25.8692 21.4144 19
1114 1 4.64232 27.095 26.2016 21
1293 2 1.2366 26.9467 26.0878 23
1294 2 4.32428 23.2231 26.0625 23
1300 2 3.7126 25.7698 30.7864 21
1297 2 1.18746 26.7377 29.7656 22
1115 1 1.20987 26.1948 27.8069 22
1116 1 3.92 24.3569 27.8468 21
1117 1 1.55766 23.3932 29.9145 21
1118 1 4.60615 26.8826 29.5263 22
1119 1 1.98221 26.3111 31.6286 23
1120 1 3.71842 23.7863 31.4468 22
1299 2 1.73918 23.334 31.7237 20
1298 2 4.69196 23.144 29.1734 22
1295 2 1.7687 24.4958 28.2652 22
1296 2 3.8454 26.4525 27.7502 22
1113 1 1.61531 23.4497 26.4039 20
948 2 4.86562 32.0888 4.80635 21
946 2 4.21452 28.7811 2.96776 19
763 1 0.788208 32.0565 1.43469 26
764 1 4.02181 29.79 1.44701 23
765 1 1.47664 28.7517 3.4084 21
766 1 4.07393 32.7994 3.26738 22
767 1 1.31826 31.805 5.00155 24
768 1 4.47786 29.9665 4.7348 23
947 2 2.25319 30.019 4.95631 22
945 2 2.0261 32.5284 3.08809 21
943 2 2.13972 29.3443 1.68798 21
944 2 4.7114 31.6122 1.93674 23
769 1 0.970626 29.6478 6.51963 21
950 2 4.84472 28.8575 6.33731 21
762 1 3.90945 32.762 0.193018 22
956 2 4.24997 31.9261 11.2943 22
955 2 1.96134 29.4429 11.8691 22
771 1 2.14791 31.6857 8.2103 22
772 1 4.08406 29.5918 7.9796 21
773 1 1.348 29.6049 9.96865 23
774 1 4.93117 32.5724 9.67393 20
775 1 2.24537 31.736 11.6854 23
776 1 3.87221 29.8131 11.2177 25
954 2 4.61477 29.0641 9.79717 21
953 2 1.1235 31.8889 10.1194 20
951 2 2.01114 29.6715 7.92214 19
952 2 4.08783 31.4832 8.17641 24
949 2 1.12365 32.5765 6.81493 22
778 1 4.67701 32.763 12.9327 22
958 2 4.39722 29.0344 12.9148 23
770 1 4.74315 32.7602 6.67287 20
1304 2 3.94619 31.8279 18.06 20
1301 2 1.01108 32.6223 16.6868 22
779 1 2.0748 32.1085 15.0147 22
780 1 3.96772 29.6271 14.5475 24
1303 2 2.03838 29.7129 17.9703 21
1302 2 5.01874 29.1655 16.3528 23
959 2 2.18515 29.5816 14.5157 22
960 2 3.93499 32.375 14.8 23
1121 1 1.13269 29.3115 16.2126 23
1122 1 4.72812 32.4406 16.4381 21
1123 1 2.05112 31.8182 18.1445 22
1124 1 3.92564 29.8777 17.7966 21
777 1 0.722445 29.6492 13.4129 21
1306 2 5.05932 29.638 19.5984 20
1125 1 0.981692 29.256 19.5802 18
957 2 1.0418 31.8576 13.2009 23
1309 2 1.23537 32.4819 23.3878 20
1305 2 1.0437 32.3109 20.0172 22
1127 1 1.96276 31.7609 21.5623 18
1128 1 4.15437 30.0067 21.2878 20
1129 1 1.13419 29.0085 22.9004 20
1130 1 4.13841 32.6729 23.3094 22
1131 1 1.96276 31.8786 25.1533 20
1132 1 3.84866 29.2158 24.6293 22
1311 2 1.61427 29.6978 24.7126 20
1312 2 4.43182 31.5009 24.8679 19
1310 2 4.5161 28.9726 22.997 22
1308 2 4.22706 31.834 21.8319 22
1307 2 2.03065 29.7026 21.4546 18
1126 1 4.98989 32.3682 19.9574 23
1319 2 1.89527 30.0721 31.0803 25
1318 2 3.9047 28.93 30.0001 20
1135 1 1.58234 31.664 27.8923 21
1136 1 4.105 29.6629 28.2294 20
1137 1 1.8739 28.6612 29.9192 22
1138 1 4.41749 32.4667 29.4685 22
1139 1 0.953087 31.7507 31.5127 21
1140 1 3.66287 30.2155 31.5878 20
1320 2 4.70659 31.9138 31.533 23
1317 2 1.05977 32.3815 29.6437 19
1315 2 1.58261 29.5029 28.1445 21
1316 2 3.52059 31.7269 27.9194 23
1313 2 0.659404 32.5409 26.2934 21
1134 1 4.76154 32.4143 26.3872 22
942 2 4.58648 28.9409 32.7121 26
761 1 1.05219 28.8781 32.9203 20
1314 2 3.89766 28.8119 26.5333 24
941 2 2.00158 32.9474 32.71 21
1133 1 1.61464 28.6744 26.5796 20
248 2 9.27176 3.87116 4.37587 20
247 2 6.29008 2.28577 4.88568 19
63 1 7.85564 5.25337 0.902834 21
64 1 9.4052 2.15856 1.57998 21
65 1 6.57109 0.912317 3.05947 21
66 1 10.1084 4.70614 2.88834 22
67 1 6.92067 4.30398 4.64553 22
68 1 9.11888 1.98074 4.48163 22
246 2 10.0101 1.2029 3.1122 22
245 2 6.63751 5.20514 3.22092 24
243 2 7.54882 1.89959 2.10776 21
244 2 9.38766 4.07011 1.10423 22
70 1 9.61928 4.5809 6.39708 21
249 2 7.5981 4.86723 6.35795 21
250 2 10.1219 1.42477 6.0672 21
61 1 6.75933 1.15787 0.175458 22
253 2 6.4812 4.92228 9.63595 21
256 2 8.77984 4.02063 11.7018 24
71 1 7.6178 4.16028 8.33362 21
72 1 9.58646 2.01498 8.02733 21
73 1 7.5556 1.09172 10.1883 23
74 1 9.75884 4.88562 10.185 23
75 1 6.88676 4.08141 11.3003 19
76 1 9.63168 2.48706 11.8317 22
255 2 6.6274 2.07327 11.5707 21
254 2 9.54702 1.16272 9.91053 21
251 2 7.50346 2.07166 8.20991 20
252 2 9.68492 3.80135 8.45483 21
257 2 6.0328 5.01065 13.0923 23
69 1 6.46252 1.43761 6.63238 23
258 2 10.015 1.29383 13.0597 23
78 1 9.91997 4.94469 13.1987 21
604 2 9.97836 3.65791 18.0754 20
601 2 6.52629 4.17482 16.2989 19
79 1 7.45434 3.72857 14.7636 21
80 1 9.90251 1.80639 14.8054 23
603 2 7.36864 1.43022 17.7975 20
602 2 10.4424 0.909889 16.4486 20
259 2 7.87944 1.90769 14.97 18
260 2 9.26655 4.62777 15.0764 23
421 1 6.62524 0.922861 16.0706 20
422 1 10.2052 5.04406 16.6683 20
423 1 7.80345 3.44743 17.6399 20
424 1 10.2748 1.84336 18.2962 20
425 1 6.70046 0.719622 19.4647 19
77 1 6.74159 1.13559 13.1645 22
426 1 9.89523 4.71901 19.7825 20
605 2 7.10412 4.37648 19.3891 23
611 2 7.3796 2.09589 24.2186 20
609 2 7.05403 4.93733 22.8374 20
427 1 7.02491 3.82881 21.311 19
428 1 9.12309 1.9295 21.4546 20
429 1 6.57486 0.774827 22.9199 22
430 1 9.13484 4.77198 22.7003 17
431 1 6.01497 3.76341 24.1313 20
432 1 9.43333 1.86269 24.2401 19
610 2 10.3252 0.897271 22.9317 22
612 2 10.4693 3.84322 23.7774 19
607 2 6.89832 1.28462 21.1664 20
608 2 9.25881 3.64294 20.9868 19
434 1 10.7123 4.33613 25.6981 20
614 2 9.46345 1.22302 26.1379 21
433 1 7.58114 0.688159 26.1553 20
613 2 6.21316 4.68663 26.2826 18
606 2 10.019 1.02586 20.0453 20
617 2 7.34221 4.95956 29.0454 18
619 2 7.19663 2.05674 31.0728 18
435 1 7.55707 3.68134 27.3939 19
436 1 10.0178 1.54274 27.88 21
437 1 7.03452 1.12561 29.403 19
438 1 9.6598 4.61953 29.2078 20
439 1 7.51213 4.1654 30.994 21
440 1 9.34298 1.92332 31.1359 18
620 2 9.53446 3.85765 31.0061 20
618 2 9.29563 1.04103 29.5528 23
615 2 6.63515 1.67772 27.4746 21
616 2 9.39283 4.02601 27.4296 19
241 2 6.54021 4.813 32.6831 21
62 1 10.4984 4.57184 32.7271 22
242 2 10.1425 1.13739 32.5432 21
266 2 10.2133 6.75608 3.20338 22
268 2 9.61941 9.47612 4.77867 21
83 1 7.15916 9.28879 1.73692 18
84 1 9.8894 7.40263 1.31718 22
85 1 6.78943 6.98243 3.23922 21
86 1 10.3071 10.1208 3.24682 23
87 1 7.496 9.81064 4.89505 20
88 1 9.46641 7.13604 4.65361 22
267 2 7.48598 7.8964 4.7009 22
265 2 6.60055 10.5494 3.27836 18
263 2 8.0771 7.26188 1.42679 19
264 2 9.92197 9.37692 1.61205 21
270 2 9.88339 6.59642 6.57989 21
269 2 6.82991 10.7217 6.39364 21
276 2 9.10979 9.60913 11.186 19
273 2 6.3359 10.0657 9.43447 19
91 1 7.28965 9.29047 7.86281 23
92 1 9.61976 7.4935 8.55911 23
93 1 6.61567 6.71706 9.99211 22
94 1 9.42872 10.7466 9.88097 22
95 1 7.06108 10.0395 11.2594 20
96 1 9.3186 7.71108 11.6187 20
274 2 10.415 6.97255 10.3115 23
275 2 6.45294 7.91863 11.7672 19
271 2 7.1063 7.08966 8.27109 18
272 2 9.10694 9.93123 8.27811 21
90 1 10.2283 10.0435 6.56894 19
98 1 9.83587 10.2402 13.0077 19
277 2 6.46203 10.678 12.9526 20
89 1 7.55997 7.04017 6.56233 22
621 2 6.89118 10.464 16.3206 23
624 2 9.28716 9.76986 18.241 20
99 1 7.1232 9.61294 14.849 19
100 1 9.07304 7.52589 14.8491 18
622 2 9.6871 6.91277 16.585 21
623 2 6.74708 7.77811 18.6398 20
279 2 6.99521 7.70831 15.0962 21
280 2 9.22838 9.64589 14.727 19
441 1 6.7536 6.57879 16.5544 22
442 1 9.96412 10.4489 16.5895 19
443 1 6.73436 9.89751 18.2447 22
444 1 9.05783 7.67163 18.2414 21
97 1 6.29739 6.80727 13.6025 21
445 1 7.09726 6.32867 19.7231 22
278 2 9.84463 6.76262 13.2979 20
632 2 9.40036 9.23479 24.6052 18
631 2 7.15287 7.61073 24.8566 21
447 1 6.31186 9.56197 21.3453 23
448 1 9.77823 7.75615 21.323 21
449 1 6.52342 6.86541 23.3919 24
450 1 9.18523 10.4547 22.9796 24
451 1 6.6325 9.48845 24.6461 23
452 1 9.07285 7.34076 24.9309 21
630 2 9.82087 6.56189 23.0053 21
629 2 7.33396 10.588 22.6927 23
627 2 6.5263 7.43277 20.9619 23
628 2 9.77572 9.76743 21.474 21
626 2 10.0981 6.52388 19.8699 21
625 2 7.3114 10.7171 19.748 23
633 2 7.36691 10.2636 26.1275 23
453 1 6.01989 7.02219 26.2303 21
446 1 9.32032 10.6143 19.9811 21
637 2 7.15555 10.5597 29.2925 20
640 2 9.7991 9.38749 31.3767 22
455 1 6.22519 9.61402 27.7434 25
456 1 9.18409 7.66428 27.879 24
457 1 6.31618 6.63213 29.3023 21
458 1 9.45604 10.3237 29.5234 22
459 1 6.47785 9.86614 30.9835 22
460 1 9.73457 7.59954 31.2379 23
638 2 9.71357 6.66168 29.3381 20
639 2 7.03869 7.28983 30.915 21
635 2 7.0436 7.72144 27.8912 22
636 2 10.0693 9.45837 27.88 23
454 1 9.37815 10.3915 26.3026 24
261 2 6.29301 10.0752 32.8884 18
634 2 10.2533 7.36339 26.4383 19
81 1 6.20011 7.61144 32.7253 18
262 2 10.4007 6.36652 32.558 23
82 1 10.5664 10.4664 32.8808 18
288 2 8.74679 15.1189 4.77268 23
287 2 7.61279 12.8841 4.9384 18
103 1 7.15966 15.3066 1.48327 22
104 1 9.48624 13.0142 1.81693 21
105 1 6.86803 12.451 3.24784 20
106 1 10.1476 15.8983 3.33212 19
107 1 7.00629 15.6353 4.97979 20
108 1 9.65332 13.5583 4.74688 21
285 2 6.27548 16.4017 3.46938 20
286 2 10.5359 12.5158 3.14148 20
283 2 7.10338 13.3213 1.67488 20
284 2 9.34403 15.1085 1.66306 20
282 2 10.2378 12.4725 -0.00848415 18
102 1 9.30576 16.4078 0.0628909 19
290 2 9.83764 11.9544 6.35812 22
101 1 6.53458 12.4516 0.0822994 23
296 2 9.13299 15.4055 11.5211 21
295 2 7.19899 13.4605 11.2545 24
111 1 7.48591 15.4291 8.66442 20
112 1 9.34113 13.1595 8.16577 23
113 1 6.25945 12.2567 9.6196 26
114 1 10.3081 15.1719 9.9198 22
115 1 7.08783 15.2399 11.7459 19
116 1 9.39063 13.0481 11.4227 23
293 2 6.40054 16.1514 10.295 22
294 2 10.1002 12.5575 9.75691 20
291 2 7.40576 12.8078 8.47054 21
292 2 9.14955 15.3074 8.25386 22
298 2 10.1566 12.0688 13.1399 23
117 1 6.35341 12.6547 12.6214 21
110 1 9.80961 16.1833 6.50023 22
289 2 6.46869 15.5284 6.87994 22
109 1 6.90184 13.0758 6.72608 21
641 2 5.99857 15.8538 16.7169 22
644 2 9.44288 15.3982 17.9055 19
119 1 6.96359 14.6335 14.3563 18
120 1 9.18364 12.5733 14.7487 21
642 2 10.2857 12.2487 16.5431 22
643 2 7.32114 12.6996 17.9244 21
299 2 7.08303 12.754 14.6427 23
300 2 8.77645 14.5166 14.5885 21
461 1 6.38329 12.4082 16.4434 21
462 1 10.4911 15.0866 16.1042 21
463 1 7.62703 15.3749 17.6988 19
464 1 9.24568 13.1052 17.7899 21
645 2 6.64773 16.0265 19.6094 20
465 1 5.99359 12.3804 19.3924 24
297 2 6.05217 16.0411 13.4209 20
466 1 10.1424 15.7265 19.4966 23
118 1 10.0439 15.3454 13.4394 19
649 2 6.63327 15.6818 23.2504 24
650 2 10.3159 12.8678 23.0063 23
467 1 7.15405 15.1444 21.2641 19
468 1 9.43804 13.4097 21.5592 22
469 1 6.5702 12.5669 22.9156 21
470 1 10.4339 16.1916 23.0679 21
471 1 7.46847 14.9525 24.5977 23
472 1 9.70584 13.1375 24.6803 23
652 2 9.6571 15.0766 24.6117 20
651 2 7.92248 12.9168 24.066 22
647 2 6.9859 13.118 21.3724 23
648 2 9.13611 15.2897 21.3339 22
474 1 10.0828 16.1325 26.2419 21
646 2 10.2384 12.7379 19.9019 21
473 1 6.76344 12.0889 26.0219 21
654 2 10.9709 12.7853 26.0709 20
653 2 7.54171 15.8068 26.2249 20
657 2 6.69905 15.5131 29.6216 19
660 2 9.7825 15.3668 31.5409 22
475 1 7.6893 14.573 28.0332 20
476 1 10.0775 12.8037 27.7164 21
477 1 6.68561 12.586 29.3091 24
478 1 10.2854 15.8366 29.8363 22
479 1 7.36778 14.9289 31.1402 21
480 1 9.66343 13.1756 31.2884 21
659 2 7.16137 12.8419 31.3317 22
658 2 10.2943 12.1077 29.6238 26
655 2 7.63485 12.8367 27.4391 21
656 2 9.70288 14.6051 28.1678 20
281 2 7.19258 16.1747 32.6183 21
965 2 7.40534 21.7702 3.12185 22
968 2 9.87081 21.386 5.34284 21
783 1 6.50993 20.9291 1.81005 23
784 1 9.47466 19.1931 2.14739 20
785 1 6.91895 18.469 3.69514 20
786 1 9.64867 21.6563 3.56837 21
787 1 7.13562 21.1263 5.02129 20
788 1 9.39548 19.1665 5.54187 20
967 2 7.52067 18.6789 5.68449 22
966 2 10.2425 18.4805 3.69793 21
963 2 7.48458 18.8457 1.95555 24
964 2 9.74536 20.8067 1.78271 18
781 1 7.06186 17.9516 0.404419 20
782 1 9.60028 21.3595 -0.044441 24
976 2 9.07276 21.0534 11.6782 23
973 2 6.23361 20.7856 10.1871 21
791 1 6.95632 20.4952 8.39455 23
792 1 9.03399 18.4086 8.56298 20
793 1 6.32414 17.9938 10.0147 23
794 1 9.9388 20.6342 10.1823 21
795 1 7.15297 20.7346 11.9157 19
796 1 9.19365 17.6677 11.5902 23
975 2 7.41152 18.4429 11.639 23
974 2 10.2543 18.5446 10.4112 21
971 2 7.13367 18.4253 8.3264 21
972 2 8.88573 20.4592 8.28005 22
969 2 6.74462 21.6004 6.78856 21
970 2 10.1925 18.2159 7.10882 21
789 1 6.5462 17.4292 6.69374 22
790 1 10.2284 21.3049 7.04592 21
1321 2 6.83757 21.2953 16.7286 20
1324 2 9.19793 20.7237 17.8635 22
799 1 7.23179 20.6048 14.8753 23
800 1 9.23422 18.4264 15.0999 21
1322 2 10.403 16.9937 15.9324 20
1323 2 7.91616 17.8822 17.8762 18
979 2 7.42586 18.7555 15.1126 22
980 2 10.4195 20.1613 14.8956 18
1141 1 6.10493 17.9079 17.115 22
1142 1 10.32 21.2554 16.3727 23
1143 1 7.61647 19.8971 17.9711 21
1144 1 9.9204 18.0372 17.7564 23
797 1 6.57571 17.7894 13.6368 20
1325 2 6.83182 20.6117 19.5803 19
977 2 6.31897 21.2675 13.5874 21
1326 2 10.4339 18.1972 19.603 22
1146 1 10.1245 21.2937 19.6809 25
978 2 9.82498 18.2492 13.2804 21
798 1 9.95791 20.647 13.1835 22
1332 2 8.87798 20.912 24.8318 22
1331 2 7.32673 18.5914 24.508 20
1147 1 7.53717 20.4319 21.2952 21
1148 1 10.004 18.6459 21.4658 22
1149 1 6.8676 17.6326 23.1087 23
1150 1 9.93434 21.1728 23.2339 20
1151 1 6.94576 20.573 24.6747 20
1152 1 9.54273 18.8866 25.0566 23
1329 2 6.54574 20.8992 22.7808 20
1330 2 9.99801 17.9494 23.3133 20
1327 2 7.96599 17.8636 21.2874 19
1328 2 9.315 20.9373 21.2988 21
1145 1 6.76453 17.9712 19.7509 21
1154 1 9.60631 21.6048 26.2266 20
1337 2 6.68307 21.2626 29.8699 19
1338 2 10.6497 18.3118 30.0116 21
1155 1 7.38358 20.746 28.1246 23
1156 1 9.5055 18.7453 28.2637 20
1157 1 7.36245 17.4753 29.9362 23
1158 1 10.2396 21.2899 29.7376 20
1159 1 6.88877 20.5195 31.5735 21
1160 1 9.3778 18.7644 31.3576 24
1339 2 7.41814 18.7731 31.2646 23
1340 2 9.15325 20.903 31.1245 21
1335 2 7.40974 18.5364 28.4032 21
1336 2 9.55705 20.9576 28.0835 22
1333 2 6.34133 21.3674 26.5705 23
1153 1 7.08175 17.3917 26.9111 20
961 2 6.15587 21.7073 32.7617 20
1334 2 9.43878 17.7943 26.7665 22
962 2 10.3011 18.2564 32.8218 24
988 2 9.88241 26.7573 4.90322 20
987 2 7.81229 24.5014 5.10694 26
803 1 7.35684 26.4201 1.63307 22
804 1 9.32356 24.0524 1.95028 21
805 1 6.56234 23.6522 3.91019 22
806 1 10.3606 27.3918 2.98417 21
807 1 8.15716 26.4619 5.38957 24
808 1 9.29317 23.4366 5.23927 20
986 2 10.4677 23.359 3.66199 23
985 2 6.75911 27.3492 3.73827 22
983 2 7.44895 24.4384 1.70606 20
984 2 9.39017 26.2795 1.59409 24
810 1 10.7359 26.5058 6.55566 22
982 2 10.2604 23.9417 0.261331 20
801 1 6.49744 23.6034 0.491854 23
802 1 10.3205 26.9486 0.0698337 23
996 2 9.12166 26.1963 11.5668 24
995 2 7.24308 23.9793 11.3849 21
811 1 7.6313 26.4572 8.33428 21
812 1 9.41099 24.2128 8.41605 21
813 1 6.62552 23.2026 9.60619 22
814 1 10.3885 27.1574 9.83229 22
815 1 7.10735 25.9932 11.544 21
816 1 9.60868 24.2583 11.9203 20
993 2 6.71534 27.2643 10.0551 19
994 2 10.1568 23.3113 9.82619 21
991 2 7.29793 24.4667 8.39905 21
992 2 9.45154 26.5221 8.11021 21
818 1 10.2837 27.2434 13.049 22
809 1 6.52729 24.0377 6.69322 22
989 2 6.77489 26.9054 6.7658 22
990 2 10.1544 23.6286 6.93394 22
817 1 6.74269 23.3711 13.0808 21
1344 2 9.78284 26.2837 17.5987 19
1343 2 7.7656 24.218 18.0144 20
819 1 7.55268 26.1587 14.8162 22
820 1 9.3583 24.5359 15.0619 19
1341 2 6.82427 26.9723 16.2707 22
1342 2 9.95036 23.2203 16.4772 19
999 2 7.57958 24.3377 14.7166 21
1000 2 9.70529 27.0146 14.7364 21
1161 1 7.28996 23.191 16.3744 21
1162 1 10.3644 27.6477 16.404 22
1163 1 7.58628 26.243 17.8479 21
1164 1 9.96097 24.3316 18.1716 21
1165 1 6.9595 22.71 19.5095 24
997 2 6.39955 26.8127 13.3341 24
998 2 10.3865 24.0246 13.5036 22
1346 2 10.2603 23.1723 19.6874 22
1352 2 9.63943 26.0022 25.0382 20
1351 2 7.25933 24.3153 24.4201 24
1167 1 7.27735 25.737 21.2002 20
1168 1 9.22347 23.8818 21.4676 21
1169 1 6.87204 22.9791 23.0955 23
1170 1 9.7274 26.9237 22.9942 22
1171 1 6.86814 26.0939 24.5622 20
1172 1 9.71144 24.0194 24.6791 19
1349 2 6.78236 26.9544 22.9062 22
1350 2 10.211 23.0711 22.9729 22
1347 2 7.42482 23.7074 21.377 19
1348 2 9.25146 25.8128 21.4039 22
1345 2 6.94524 27.0589 19.9818 20
1173 1 6.34512 23.4301 26.1901 21
1166 1 10.1356 26.9535 20.0523 21
1357 2 6.51922 26.9883 29.8063 22
1360 2 8.96922 26.6435 31.6214 20
1175 1 6.77711 25.8395 28.1738 19
1176 1 9.41695 24.2211 28.243 19
1177 1 6.51675 23.1575 29.5938 21
1178 1 9.62103 26.9515 29.7762 20
1179 1 7.13348 25.9888 31.4837 20
1180 1 9.22368 24.3194 31.4877 22
1359 2 7.42427 24.1832 31.8043 22
1358 2 10.0908 23.4887 29.8315 20
1355 2 7.17603 24.005 27.8916 20
1356 2 9.09096 25.9878 28.0177 20
1174 1 10.2666 26.8672 26.6495 21
1353 2 6.76666 26.7759 26.3627 20
1354 2 10.405 23.4478 26.536 20
981 2 6.69089 26.9757 32.8495 23
1008 2 10.1174 31.8828 5.16285 23
1006 2 9.85584 29.1928 3.04827 22
823 1 6.89732 31.5524 1.32964 21
824 1 9.48448 29.9364 1.31209 21
825 1 7.50586 29.0761 3.25017 22
826 1 9.12624 32.955 2.95731 25
827 1 6.75261 31.8059 4.7026 23
828 1 9.85054 30.2611 4.69046 22
1007 2 7.81989 30.1158 4.80566 24
1005 2 7.37422 32.648 3.0441 23
1003 2 7.56698 29.8283 1.65655 25
1004 2 9.86678 31.9441 1.49401 22
829 1 6.78952 29.2241 6.11038 19
1009 2 6.76256 33.4072 6.11739 23
1010 2 10.4217 28.95 6.34424 23
1001 2 7.48548 32.9618 0.157029 21
830 1 9.80641 33.3019 6.24759 20
1014 2 10.3519 29.1088 9.92541 21
1016 2 9.19238 32.057 11.3208 18
831 1 7.30344 32.0705 7.90271 22
832 1 9.60206 29.7522 8.06083 22
833 1 6.85185 29.0877 9.88736 20
834 1 9.86835 32.7305 9.74905 20
835 1 7.00231 31.4668 11.4867 22
836 1 9.61634 30.3892 10.9114 20
1013 2 7.15733 32.5184 9.89185 21
1015 2 7.89917 29.756 11.4213 22