ITEM: TIMESTEP
80000
ITEM: NUMBER OF ATOMS
2000
ITEM: BOX BOUNDS pp pp pp
-30.0 30.0
-30.0 30.0
-30.0 30.0
ITEM: ATOMS id type x y z Coordination
1 1 -5.11585 14.2734 -25.3838 9
2 1 -0.677336 4.42235 -12.246 22
3 1 11.2886 25.8163 2.20749 18
4 1 14.5462 1.1046 -1.2525 8
5 1 -5.34323 23.5671 -15.2711 15
6 1 15.6441 9.10917 -21.5363 18
7 1 -7.74608 17.9345 -15.3972 15
8 1 4.48838 3.14547 1.01944 19
9 1 -2.02987 15.4065 -21.3018 17
10 1 -9.52421 1.53076 -3.2351 14
11 1 17.6115 19.1562 -22.6841 10
12 1 -2.16823 14.9412 -9.19262 21
13 1 -0.840358 0.150856 -9.29785 21
14 1 -10.8811 4.56455 -7.13796 11
15 1 4.07816 12.7131 4.16278 21
16 1 11.0834 6.62694 -2.03101 19
17 1 2.80777 15.4964 -1.41561 24
18 1 12.6655 10.0057 -7.33383 24
19 1 10.8619 21.8935 -19.2854 22
20 1 9.54708 9.86075 3.50646 18
21 1 0.054086 11.0242 -27.1854 10
22 1 -3.98083 6.18101 0.405094 23
23 1 16.2475 21.283 -1.85396 19
24 1 9.36352 21.6964 -17.0944 24
25 1 8.93847 17.7177 -20.0049 20
26 1 20.1542 16.1981 2.71266 10
27 1 -3.95551 11.9924 -4.16349 21
28 1 -6.97338 16.2502 -18.4396 16
29 1 1.01672 13.2303 -17.3791 22
30 1 -5.40849 23.8331 -1.69009 15
31 1 13.7274 -1.17433 -2.61935 11
32 1 6.03775 9.9253 -1.25618 24
33 1 4.00928 1.79869 -17.748 21
34 1 14.1356 1.19599 -7.20054 20
35 1 -3.62256 -2.08207 -13.0031 13
36 1 -8.93108 7.20636 -1.67473 20
37 1 7.6386 9.28596 -14.8009 22
38 1 3.92969 4.12234 -20.6215 22
39 1 16.3907 12.3403 -20.9126 19
40 1 2.67443 16.1251 -24.6455 20
41 1 2.67782 15.5713 4.04176 20
42 1 0.765782 1.22052 -6.87735 20
43 1 9.47227 5.84017 1.59892 22
44 1 -5.59881 13.1009 -7.34154 21
45 1 -10.2154 13.004 0.233145 14
46 1 -5.55046 14.9733 -9.68221 20
47 1 4.53529 24.7904 -11.8314 21
48 1 1.4323 -0.808842 -17.5699 13
49 1 4.26718 14.9695 -19.9463 24
50 1 9.52264 4.5567 -17.685 20
51 1 0.886957 6.99278 3.80273 17
52 1 -9.31189 18.8871 -13.2028 15
53 1 13.6946 23.4157 -20.2555 14
54 1 5.13 25.7345 1.56551 19
55 1 -2.05438 19.2269 -17.3361 21
56 1 1.42106 26.4579 -9.25458 20
57 1 9.216 -0.0301881 -4.35219 22
58 1 12.5031 10.5127 -18.0461 21
59 1 7.11879 6.46849 -22.9942 18
60 1 -3.66711 23.0216 1.34264 21
61 1 -8.58988 9.31958 -15.2715 18
62 1 10.9843 14.2712 -4.59093 23
63 1 -2.26934 20.8515 -14.5149 19
64 1 -2.4027 3.00466 -4.23148 22
65 1 4.75617 24.3085 4.59225 13
66 1 -9.45285 17.792 -10.4741 14
67 1 -0.719614 20.9647 4.16139 22
68 1 7.54901 18.7704 -11.6473 25
69 1 4.73771 23.9992 -0.719013 21
70 1 -5.71948 -2.62702 -4.49245 13
71 1 4.5046 18.2328 4.05351 25
72 1 10.845 1.44673 -12.2737 22
73 1 7.78762 20.1735 6.84683 14
74 1 -6.73693 13.1006 -21.8844 12
75 1 -4.02998 16.2529 -18.2713 22
76 1 9.49698 17.3146 1.44937 20
77 1 12.5014 16.3116 -18.0604 20
78 1 15.9544 0.844663 -4.17955 12
79 1 -12.4551 12.4809 -2.59412 10
80 1 -3.96123 11.9096 -9.53489 20
81 1 7.74913 26.4335 -4.11233 21
82 1 11.0005 6.60897 3.67378 13
83 1 -2.45512 1.33322 -6.67841 23
84 1 -5.68349 9.17119 -4.23366 21
85 1 19.1853 15.4762 -2.34534 20
86 1 14.1074 12.8968 -12.5919 22
87 1 3.61973 27.5186 3.30583 9
88 1 10.8322 12.444 -1.80204 22
89 1 -4.12381 10.0466 -6.8656 19
90 1 -0.635691 6.2939 -14.7241 21
91 1 -8.62534 23.2773 -1.3957 14
92 1 -2.38138 24.6201 -12.6725 17
93 1 7.36007 20.9892 -19.8624 21
94 1 10.4761 13.1396 -12.6998 22
95 1 8.99362 12.1098 -15.5144 20
96 1 16.2564 23.4983 -18.1456 12
97 1 13.9035 7.01581 -7.44054 22
98 1 9.18158 3.87279 -1.46898 21
99 1 -0.296727 26.8808 -17.3211 14
100 1 -3.74009 27.5476 -6.01511 11
101 1 -2.23804 9.01763 1.08574 23
102 1 -0.627885 21.6532 -6.45332 21
103 1 2.92338 4.66511 3.93654 15
104 1 14.1461 9.21339 -15.3103 22
105 1 -2.36782 18.5315 -6.24142 23
106 1 -7.43471 0.331935 -4.74818 16
107 1 16.902 4.34179 -16.3913 12
108 1 17.6361 15.5268 -20.353 16
109 1 -0.300852 9.05412 -25.1469 17
110 1 9.23875 11.7215 -4.4344 21
111 1 3.00804 27.1868 -6.38499 22
112 1 -0.520525 17.933 -14.2595 23
113 1 4.19377 19.4968 7.01545 12
114 1 2.98676 23.8604 -13.9398 18
115 1 -8.76654 26.1008 -9.66429 12
116 1 4.63408 20.5321 -3.64905 21
117 1 1.25825 3.23463 0.900046 20
118 1 20.2774 8.86096 -0.428409 10
119 1 4.27112 7.3932 -17.6338 24
120 1 9.04002 6.12871 -14.9579 21
121 1 1.36676 14.5479 1.28598 22
122 1 7.74307 7.2083 3.90028 16
123 1 -5.7821 7.29516 -12.165 20
124 1 11.1645 8.87965 -4.60757 23
125 1 -3.93824 4.47456 -12.8653 19
126 1 17.2454 7.04232 -7.58104 18
127 1 0.974861 20.5696 -9.05783 22
128 1 15.6616 21.4649 -22.478 12
129 1 10.0289 26.6273 -14.787 22
130 1 -5.52567 3.12852 0.515017 20
131 1 -5.31748 -0.0345823 0.64561 15
132 1 -0.790638 17.8874 -8.9941 24
133 1 10.7755 5.97629 -21.8887 15
134 1 8.98496 15.7584 -11.9403 21
135 1 15.1353 4.24818 -6.98544 21
136 1 -1.09146 -1.4373 -1.63305 17
137 1 -7.45828 4.6515 -6.98418 22
138 1 20.366 22.0341 -0.403426 9
139 1 20.2186 7.70207 -13.5095 12
140 1 -12.3393 15.298 -4.80252 14
141 1 16.2989 23.2693 -4.25648 22
142 1 18.7161 21.8597 -6.83762 18
143 1 -3.27102 12.9856 7.74357 14
144 1 12.4234 17.5308 -9.12392 24
145 1 -0.30065 23.2675 1.31625 20
146 1 -0.12421 23.8643 -15.03 17
147 1 2.56555 6.46335 -20.2514 22
148 1 12.4527 0.502873 -15.139 13
149 1 4.57126 26.2569 -21.2249 9
150 1 15.7247 6.5492 0.708514 11
151 1 2.83749 9.27735 -26.667 15
152 1 2.47304 22.2852 -16.5946 23
153 1 15.954 17.7078 -9.31553 22
154 1 -5.2739 20.3855 -14.5401 17
155 1 -5.76454 24.6641 -12.5869 20
156 1 8.92294 16.0038 -17.0803 21
157 1 14.373 2.98256 -4.11177 19
158 1 2.36631 12.2063 -20.1025 21
159 1 1.51175 29.103 0.911542 11
160 1 15.9951 17.9181 -14.5382 23
161 1 14.4654 26.1822 -9.3152 16
162 1 -0.395546 29.0583 -8.02042 11
163 1 19.9952 21.0347 -12.2808 12
164 1 6.13913 23.3326 -8.82896 22
165 1 7.44197 25.0771 -16.5933 20
166 1 7.65099 24.9352 -22.6125 10
167 1 -9.58417 3.95547 -4.83541 17
168 1 -10.2631 21.4411 -12.5564 12
169 1 -0.736887 10.5671 -17.4932 23
170 1 6.54118 3.4815 -22.2481 13
171 1 12.4363 27.2214 -1.65613 18
172 1 10.9206 25.8781 -3.39017 21
173 1 -7.50383 11.9099 -10.1059 23
174 1 -5.37313 26.9805 -8.51264 14
175 1 19.0598 9.92717 -11.7603 17
176 1 -5.30535 11.5549 -24.2342 15
177 1 11.4532 12.4903 3.66887 22
178 1 7.64959 26.6759 -9.79211 21
179 1 3.03111 20.8255 -0.702407 20
180 1 1.71811 5.11129 -23.0208 24
181 1 -0.227413 26.6435 -1.00575 17
182 1 2.34205 22.0295 -11.4723 22
183 1 8.8299 4.24596 4.34145 11
184 1 -10.9183 6.51333 -3.99193 15
185 1 2.14158 1.35445 -20.2397 16
186 1 1.09423 18.8239 -16.9296 25
187 1 4.37469 3.11858 -4.44968 23
188 1 9.69369 -1.60231 -13.303 16
189 1 -1.08985 20.7458 -22.7345 14
190 1 -7.55248 14.7117 -1.90525 19
191 1 7.51986 20.8665 -14.2621 25
192 1 16.2876 21.6435 -11.7458 19
193 1 -0.623044 13.8327 7.03212 15
194 1 2.25203 -1.29981 -1.81334 16
195 1 -3.98419 15.5769 -7.19635 23
196 1 6.30947 29.1192 -3.80925 21
197 1 6.49447 21.3415 -0.917354 22
198 1 18.1727 18.084 4.52861 10
199 1 -2.02449 24.5006 -6.66794 19
200 1 15.377 10.1123 -17.9232 22
201 1 1.67829 25.717 1.25713 19
202 1 -0.993178 12.0021 -14.7463 22
203 1 17.6056 8.70151 -4.52769 18
204 1 -2.49002 12.831 -1.35498 22
205 1 -10.5351 14.9655 -2.21837 15
206 1 -3.99369 4.47574 -7.27059 19
207 1 9.45723 12.1246 5.98148 11
208 1 -10.6424 15.3705 -7.71581 17
209 1 -1.95601 -2.70717 -10.1549 14
210 1 -2.33369 13.3571 -12.1721 21
211 1 10.8768 7.41653 -13.0594 22
212 1 -2.64361 20.8056 -8.79084 21
213 1 -2.46119 14.6398 1.40366 22
214 1 9.33328 27.3072 -1.29031 21
215 1 -7.39444 15.9989 -12.2617 21
216 1 -2.63394 24.5033 -18.5768 10
217 1 -10.7044 9.67412 -12.551 12
218 1 -3.95734 11.828 1.36267 25
219 1 4.46581 1.19322 -1.33147 21
220 1 7.48973 -2.75819 -4.48825 14
221 1 -5.38024 24.3245 -6.78176 18
222 1 19.5264 17.4551 -4.74192 19
223 1 7.19775 14.6757 -14.331 23
224 1 -5.16811 10.7962 -20.4743 19
225 1 7.82981 14.7735 1.5454 20
226 1 10.0567 -3.25815 -10.4009 12
227 1 1.682 19.2938 -24.6772 14
228 1 7.56356 1.90098 -18.0331 18
229 1 11.8372 14.0794 -20.122 19
230 1 7.07093 17.029 -21.9786 19
231 1 -2.43595 9.64424 -20.0047 23
232 1 1.52853 24.8032 -18.137 16
233 1 -7.93078 2.63346 0.470686 13
234 1 12.0757 27.6844 -18.091 11
235 1 -2.32287 12.6022 4.19174 22
236 1 -5.66067 27.14 -14.4754 9
237 1 11.1066 14.3471 0.877949 22
238 1 -0.333558 5.10239 -25.2418 12
239 1 -0.746163 18.5353 -19.9374 18
240 1 5.8512 15.9807 -17.0092 22
241 1 -6.06531 1.48009 -2.18557 20
242 1 -5.54543 18.3991 -1.6365 20
243 1 -0.699128 23.5638 -3.87207 20
244 1 4.33704 3.54137 -15.0047 25
245 1 -3.99836 0.20792 -9.54906 20
246 1 15.7543 6.90563 -16.2219 23
247 1 7.68174 6.97341 -6.54205 23
248 1 14.411 18.1973 3.70222 17
249 1 14.433 18.8046 -22.4321 21
250 1 9.289 21.5022 -11.5359 24
251 1 -7.20429 21.3455 -6.2338 21
252 1 -7.17837 21.7838 -12.6846 20
253 1 6.07796 17.042 1.46944 23
254 1 7.94193 -4.08948 -8.92339 9
255 1 17.43 14.6985 -10.0029 24
256 1 4.57414 18.3535 -0.96525 24
257 1 -5.75921 20.5403 -3.52059 20
258 1 -9.19911 9.23054 -9.99643 20
259 1 12.0031 16.6248 -26.372 15
260 1 7.91274 8.90217 1.41302 23
261 1 12.5692 21.564 -22.1582 18
262 1 9.01526 4.34965 -12.1627 23
263 1 -0.554994 12.3171 -20.2424 21
264 1 6.0457 -1.82204 -7.16946 19
265 1 17.4794 13.4148 -18.1088 22
266 1 -9.14505 9.04022 -4.47749 22
267 1 9.43587 0.911225 -15.2365 19
268 1 -5.6138 13.3743 -17.7413 23
269 1 9.44994 23.5757 -9.12387 21
270 1 3.52665 13.4496 -22.5965 19
271 1 11.3071 17.8725 4.23121 18
272 1 20.8111 14.7185 -9.86933 15
273 1 0.953467 7.10676 -6.90495 23
274 1 19.4995 12.4233 -20.1405 12
275 1 2.73853 4.15099 -6.88303 23
276 1 -2.99667 7.91766 -22.7712 20
277 1 -8.65486 14.5657 -20.2683 9
278 1 -0.487897 0.277859 -4.17879 22
279 1 18.0287 12.5312 -2.08752 23
280 1 11.2343 8.54938 0.849637 21
281 1 -1.64792 4.83173 -22.4146 17
282 1 4.56129 6.86203 -1.44275 24
283 1 6.37919 17.5215 -24.7212 20
284 1 12.6832 23.4479 -9.20467 20
285 1 -2.37223 7.09146 -6.802 21
286 1 4.45924 24.3046 -6.44143 22
287 1 -4.1726 17.6383 1.03186 22
288 1 -7.29372 4.53276 -12.6926 18
289 1 -1.11002 6.4925 -20.0565 21
290 1 3.80732 18.9393 -27.1348 14
291 1 -0.760281 4.584 -17.4315 23
292 1 -7.62244 6.37755 -10.1148 22
293 1 8.72229 11.9698 -20.7197 22
294 1 13.8024 13.0033 -18.3262 20
295 1 17.5863 12.9678 -7.20856 23
296 1 4.53875 7.0814 -11.9979 23
297 1 -3.64496 9.72909 -1.39205 24
298 1 -2.2966 3.10067 -9.61627 20
299 1 16.3673 17.5056 1.20797 21
300 1 -1.07583 -1.78611 -7.27503 18
301 1 4.26508 1.09932 -7.12934 22
302 1 4.9072 26.4923 -15.22 22
303 1 16.1033 14.5684 -23.2684 13
304 1 -5.32218 9.0755 -22.9579 13
305 1 9.27962 6.07425 -9.40928 22
306 1 -7.18475 5.79215 0.887514 18
307 1 9.8651 17.8519 6.91701 13
308 1 7.75699 3.02626 -9.65254 22
309 1 0.448312 3.55093 -20.2661 20
310 1 -2.53972 15.0924 -15.3797 20
311 1 17.3626 14.6416 -4.91117 23
312 1 0.76047 15.4623 -19.741 20
313 1 5.37485 22.7294 -22.2278 16
314 1 -0.547833 9.83475 -1.50857 23
315 1 18.4528 5.97189 -10.6657 15
316 1 0.294407 29.1569 -14.498 10
317 1 6.07954 27.6311 -6.72696 23
318 1 14.3744 14.6308 -4.61163 19
319 1 -5.69196 14.7724 -4.34573 20
320 1 5.49149 3.69863 4.36714 12
321 1 -2.0836 20.3292 -4.10263 21
322 1 3.92112 9.48169 -19.9679 25
323 1 17.7743 20.5647 -14.6613 17
324 1 9.1042 4.02135 -6.75438 24
325 1 -0.638522 9.82745 3.73417 19
326 1 -10.8081 10.5588 -1.26774 14
327 1 7.87104 -2.01384 -15.2595 12
328 1 -2.62184 16.3398 7.84936 10
329 1 -6.04863 17.131 3.18831 13
330 1 -9.00769 9.21889 0.877084 12
331 1 -5.60896 8.98125 1.13153 22
332 1 17.3854 8.81148 -9.91227 20
333 1 -10.6421 4.42212 -1.48544 11
334 1 10.3151 13.3442 -18.0426 21
335 1 18.7791 7.12931 -16.7277 15
336 1 7.1356 28.8836 -15.2689 15
337 1 1.12896 8.99373 -3.97162 24
338 1 -9.11387 24.0542 -12.7737 14
339 1 7.55008 12.5365 -0.891475 20
340 1 9.77343 23.326 2.26513 21
341 1 -7.5123 6.47534 -4.63727 22
342 1 13.871 2.91567 -9.71408 22
343 1 1.65425 24.4334 -6.52554 20
344 1 -7.27307 17.789 -4.52769 21
345 1 9.06726 -1.9037 -1.73951 11
346 1 17.8171 6.85539 -2.1683 13
347 1 -0.49845 21.3444 -1.61904 22
348 1 -2.33166 9.2762 -14.8558 21
349 1 2.49342 11.8394 6.70083 10
350 1 3.35595 28.9661 -3.7368 18
351 1 16.6438 20.4715 3.51375 13
352 1 -3.45628 25.2317 -15.6307 18
353 1 2.13608 10.4328 -22.9157 21
354 1 0.827344 14.8402 -14.6994 20
355 1 11.844 5.45253 -19.2186 18
356 1 -7.07173 23.7385 1.39801 11
357 1 -11.6731 18.2216 -5.83858 9
358 1 0.950419 9.22046 -14.6164 25
359 1 -3.96534 23.9418 -9.79056 21
360 1 12.6738 9.77772 -1.83339 24
361 1 -8.85954 1.53682 -6.83446 15
362 1 9.33709 5.82424 -4.06083 22
363 1 -4.24838 4.15622 -2.26019 21
364 1 -9.0111 24.2134 -7.08404 14
365 1 2.71435 6.12852 1.04712 22
366 1 1.16261 3.56033 -14.5847 25
367 1 -2.53244 13.259 -17.3812 21
368 1 8.17556 12.1519 -23.5819 20
369 1 7.61579 24.6151 -11.6964 18
370 1 -7.44124 15.9325 -7.3518 22
371 1 11.3801 2.49526 -17.8491 12
372 1 12.913 19.3471 -24.8885 14
373 1 -2.07208 1.48866 -12.1747 22
374 1 -9.06191 7.27535 -12.6474 18
375 1 2.79298 5.86516 -9.42905 24
376 1 12.7942 20.8272 4.81464 14
377 1 16.03 17.5846 -4.14988 23
378 1 1.14452 17.404 -21.8313 15
379 1 6.59139 29.5413 -9.55107 17
380 1 -9.06277 13.0128 -12.6208 16
381 1 -3.74235 23.1036 -4.07749 18
382 1 -0.249987 23.3723 -9.50356 23
383 1 1.25231 18.4961 -0.989095 22
384 1 14.5158 20.2389 1.61135 21
385 1 12.8736 12.2163 -15.4742 21
386 1 17.5799 8.96411 1.67044 12
387 1 18.0119 14.9364 -15.2445 21
388 1 -5.43749 -2.88571 -9.99383 12
389 1 6.1347 15.4316 -1.41776 22
390 1 4.27585 18.9979 -11.5103 25
391 1 6.05299 4.3745 -12.1422 23
392 1 2.78621 23.3248 -3.93424 22
393 1 -9.84137 15.3185 -13.7158 11
394 1 10.8906 3.35205 -9.58909 19
395 1 14.6996 12.3917 -2.10457 25
396 1 -4.28068 10.4531 -17.6074 19
397 1 -5.49091 1.60187 -6.94938 21
398 1 -3.66489 4.55114 3.01856 14
399 1 3.04823 23.7146 -9.02204 19
400 1 -10.2378 4.66749 -13.4068 12
401 1 11.6478 23.4444 5.08268 14
402 1 -2.49388 18.9741 -11.8689 20
403 1 1.46791 26.7685 -15.3826 19
404 1 7.82157 24.1545 -0.743813 24
405 1 -10.8184 6.33074 -10.2855 13
406 1 0.239676 1.8534 -17.4221 19
407 1 -7.24885 12.0096 -4.50081 17
408 1 -4.06775 21.9674 -17.2283 16
409 1 6.16163 6.16018 -3.92434 24
410 1 3.30493 -1.1011 -12.1041 19
411 1 14.4667 24.1854 -1.1198 22
412 1 9.52082 18.1599 -26.1132 15
413 1 -0.928343 15.9759 -24.704 21
414 1 0.880236 24.726 -12.2762 20
415 1 -4.15915 16.0907 -12.784 20
416 1 2.77348 0.543069 -4.2536 22
417 1 17.8824 20.0882 -3.82237 22
418 1 7.33409 21.3397 -23.6263 17
419 1 0.929139 12.592 -1.17269 23
420 1 -9.06167 18.6504 -7.09794 18
421 1 -3.92622 17.5401 -4.05887 20
422 1 5.92543 0.311386 -4.02042 26
423 1 5.64227 6.15349 -14.8305 22
424 1 8.63502 3.2067 -20.4371 13
425 1 4.57093 8.93935 1.2558 24
426 1 -10.6686 16.3688 0.498982 14
427 1 -7.67934 11.6072 1.00186 17
428 1 -10.4189 20.0353 0.038214 15
429 1 -0.724485 4.15299 -6.75134 22
430 1 -1.95162 12.7139 -25.6057 19
431 1 14.3508 4.69087 -18.2589 16
432 1 2.53791 4.3288 -17.7513 27
433 1 1.07333 8.90818 1.08998 23
434 1 7.74065 7.33352 -12.0701 23
435 1 3.12136 12.5172 -27.1867 14
436 1 10.8969 1.44971 -7.72346 20
437 1 6.00539 23.6049 -14.0415 21
438 1 -7.33404 23.6007 -4.28206 16
439 1 -2.19782 10.6215 6.97817 16
440 1 -9.69992 6.72753 -15.8164 8
441 1 -3.82834 6.13377 -4.54804 22
442 1 12.4798 3.65966 -1.06425 16
443 1 10.72 14.7404 -9.4393 22
444 1 -0.360196 17.5485 -3.8386 20
445 1 7.11923 13.061 -17.3123 24
446 1 12.7018 6.0178 -4.55709 20
447 1 18.6886 21.8623 -17.7644 11
448 1 0.91645 12.7617 4.05345 23
449 1 4.50962 26.7992 -9.63101 20
450 1 10.9152 6.94993 -7.23093 22
451 1 -2.13807 3.2767 -15.2889 20
452 1 -4.42914 19.2141 7.9005 6
453 1 6.14753 29.1343 1.41173 10
454 1 -5.43668 3.48328 -15.6357 17
455 1 12.7021 27.0771 -6.67096 19
456 1 7.74299 18.554 -1.54344 19
457 1 -4.02396 20.7253 -0.810933 23
458 1 -4.17778 10.1636 -12.3047 22
459 1 -7.95692 18.3935 1.31363 16
460 1 -5.80441 9.33111 -15.2819 19
461 1 1.04028 23.9276 -1.18299 22
462 1 1.34748 1.33176 -12.0278 21
463 1 2.19117 3.08383 -25.7018 11
464 1 -2.29842 -2.49745 -4.66664 14
465 1 -2.14418 12.8446 -6.63315 24
466 1 12.8313 15.247 -1.78647 23
467 1 -0.609278 6.16086 1.37471 23
468 1 -3.98077 19.1035 -22.4832 9
469 1 14.4386 18.3973 -6.49796 24
470 1 -6.34313 -1.36628 -12.5612 10
471 1 9.05203 17.6906 -14.4967 22
472 1 4.71044 29.9851 -6.772 17
473 1 7.81938 19.1571 -17.1321 20
474 1 3.08589 22.8393 1.28628 23
475 1 -11.2439 12.1662 -9.16261 11
476 1 3.56376 29.0398 -14.7825 13
477 1 12.9966 27.5686 -15.0305 13
478 1 -3.906 6.55609 -14.9798 20
479 1 11.2439 15.1092 6.10835 11
480 1 4.25559 -2.05308 -15.5985 12
481 1 0.947845 9.45237 -19.7677 23
482 1 12.0547 -1.45048 -7.92402 15
483 1 -7.27114 23.7876 -9.97611 23
484 1 6.07961 15.1984 4.34884 21
485 1 19.1925 17.562 -9.94198 22
486 1 9.45515 21.5281 -6.52416 21
487 1 -2.86072 21.2536 -19.854 17
488 1 8.22835 14.6469 -19.6667 22
489 1 2.94235 6.26464 -4.4075 21
490 1 -9.29671 12.9658 -7.13986 19
491 1 9.50161 28.9346 -3.94912 20
492 1 2.87623 18.2008 -19.7282 27
493 1 14.4197 20.4097 -9.12517 24
494 1 10.9295 24.9593 -17.4562 19
495 1 12.4588 10.4207 -12.6416 22
496 1 20.8272 12.723 -12.5758 13
497 1 5.58285 17.9449 -19.6286 24
498 1 5.84088 4.07523 -6.65308 25
499 1 11.0316 0.931195 -2.1809 18
500 1 7.54192 1.07874 -1.36366 20
501 1 -5.75316 15.5472 -15.6116 22
502 1 -2.49312 1.55968 -1.19153 23
503 1 -0.349299 0.758899 -14.5373 24
504 1 10.8636 29.8101 -1.07067 13
505 1 4.95846 14.5209 -25.3145 18
506 1 9.66567 11.7177 1.18807 21
507 1 -8.28281 14.8531 1.87882 13
508 1 1.16225 -2.45368 -10.4262 15
509 1 -2.26081 8.9945 -4.17611 21
510 1 17.7687 9.49014 -15.3714 22
511 1 16.0133 11.9117 -9.82835 21
512 1 4.35113 20.9939 -14.2923 23
513 1 7.57767 3.53663 -14.9898 25
514 1 9.29113 15.2143 -27.809 14
515 1 16.0859 12.0744 -14.8054 19
516 1 0.453327 9.17472 6.43352 12
517 1 11.4026 28.7606 -12.3088 13
518 1 -3.24528 9.78722 -25.5528 12
519 1 8.77439 11.7928 -26.514 12
520 1 -2.3713 6.90063 -1.6936 22
521 1 -0.964247 27.4814 -5.57539 13
522 1 -3.76484 13.6536 -20.0967 17
523 1 -12.483 17.7387 -1.94446 12
524 1 3.80139 1.91018 -23.0067 16
525 1 -2.01312 3.44601 1.05104 17
526 1 10.7259 20.5291 -14.4396 23
527 1 19.7666 17.2888 0.196219 17
528 1 21.2769 18.532 -11.34 13
529 1 -8.62381 1.79058 -11.6547 12
530 1 4.20964 2.92174 -9.34567 23
531 1 0.184146 7.96528 -22.3193 21
532 1 -1.62556 23.8743 3.91495 14
533 1 10.8882 9.06901 -20.4959 22
534 1 7.68344 20.8656 -8.94066 23
535 1 15.7945 9.81111 -7.13241 21
536 1 8.38889 23.7305 -19.3904 20
537 1 12.2006 4.03343 -6.63135 21
538 1 19.1221 18.6514 -19.4882 13
539 1 6.11013 20.8356 4.49038 21
540 1 -6.94016 20.9866 -0.572985 21
541 1 10.6696 28.601 0.964545 11
542 1 12.7435 9.81156 3.56826 15
543 1 11.0735 13.6909 -25.2367 18
544 1 1.24472 7.34294 -12.2353 21
545 1 5.9793 11.5317 1.69575 23
546 1 11.1069 23.9747 -0.812724 24
547 1 14.3391 20.5067 -14.3196 23
548 1 -4.99206 19.1746 -18.8693 13
549 1 6.35072 21.7626 -11.4407 22
550 1 17.9086 14.6387 0.782194 20
551 1 15.4248 17.3865 -24.9415 13
552 1 14.0555 7.27018 -12.8617 22
553 1 16.1987 22.8324 0.963071 14
554 1 -11.9904 9.6544 -4.3421 13
555 1 -0.557917 21.5583 -16.9774 20
556 1 4.37418 14.3476 1.54423 23
557 1 -6.97504 9.85758 3.63684 13
558 1 -0.500704 23.3087 -20.772 13
559 1 17.334 0.96021 -7.41397 11
560 1 10.6773 14.8563 -15.4124 22
561 1 3.15612 27.4591 -18.1842 13
562 1 -5.08736 5.44075 -22.2033 10
563 1 12.6608 0.123177 -5.056 18
564 1 -7.54946 10.0407 -7.49337 23
565 1 2.78474 23.7158 -20.2567 17
566 1 -5.68938 13.3015 -12.4897 20
567 1 0.749701 20.4025 6.68444 14
568 1 -5.82648 6.94091 -2.02268 21
569 1 11.2209 20.3605 -9.08168 22
570 1 12.8887 6.47554 -15.6496 23
571 1 7.62317 2.83353 1.47804 16
572 1 15.9463 15.5208 -12.4278 21
573 1 -10.6938 21.321 -7.23115 13
574 1 5.8368 13.3898 6.51911 13
575 1 8.26308 28.6272 -12.3777 15
576 1 15.8285 9.7644 -12.6007 21
577 1 9.72652 21.3406 -0.84026 24
578 1 6.48628 16.8812 -27.7343 16
579 1 -2.22709 0.361907 2.43006 10
580 1 4.0546 13.2583 -17.0635 25
581 1 13.4251 13.3694 -22.6539 22
582 1 7.86223 -29.5544 -6.55039 14
583 1 13.3559 20.1226 -19.3363 19
584 1 5.60027 12.1898 -19.9108 23
585 1 -2.40405 7.41226 -12.1413 20
586 1 -4.80017 7.50628 -19.778 20
587 1 21.1277 18.0346 -7.66961 14
588 1 19.6729 18.2816 -14.1253 14
589 1 13.5558 7.79729 -18.9134 25
590 1 18.1432 20.3076 0.711635 20
591 1 12.4877 4.42677 -12.5117 23
592 1 11.3419 11.5946 -22.183 22
593 1 11.0884 26.5009 -8.92942 19
594 1 -2.3644 14.8422 -3.7485 24
595 1 13.0341 23.0541 1.87948 19
596 1 17.7513 20.5394 -9.30878 21
597 1 19.1146 12.0553 -4.66863 19
598 1 15.7731 15.7366 -17.7677 20
599 1 12.9472 11.7882 0.748808 24
600 1 20.4049 19.7816 2.82698 11
601 1 2.86219 9.60797 -1.32812 23
602 1 15.9717 23.1676 -8.56215 20
603 1 11.0482 12.596 -7.24171 24
604 1 6.27415 9.91948 4.18428 17
605 1 20.8097 10.8312 -14.6287 12
606 1 16.0891 15.4908 -2.00018 23
607 1 -4.13365 11.9937 -14.6441 20
608 1 17.9123 18.5904 -6.84977 24
609 1 14.1629 8.95546 -10.1287 23
610 1 6.26747 5.7085 -9.37657 21
611 1 -4.46113 22.927 3.88583 13
612 1 14.3779 26.0004 1.03106 14
613 1 21.0205 14.1753 -0.0306128 13
614 1 6.31979 23.3341 -3.66968 22
615 1 7.76235 23.6136 5.17655 12
616 1 5.98203 17.4564 -3.83542 23
617 1 2.3506 -1.84209 -7.35853 18
618 1 -0.835673 21.7206 -11.6943 19
619 1 16.4225 23.0851 -14.7938 14
620 1 13.5998 10.8503 -20.5811 20
621 1 3.13276 29.3158 -9.1522 14
622 1 2.71478 0.887092 -14.9408 24
623 1 14.3204 5.97388 -21.3083 12
624 1 -8.5168 17.6351 -1.52639 18
625 1 -0.675721 16.1664 -17.0642 23
626 1 4.25619 -2.5903 -4.4626 15
627 1 -1.23627 10.5292 -22.5743 19
628 1 -9.09326 14.7202 -10.0299 20
629 1 16.0165 5.67638 -4.69226 16
630 1 12.6915 21.3576 -6.4967 21
631 1 3.93677 -0.450166 1.10714 12
632 1 -8.71469 14.3248 -16.6861 16
633 1 5.97146 10.3502 -27.6451 13
634 1 9.29859 9.65018 -1.68263 24
635 1 2.64613 17.3425 1.51752 23
636 1 10.3136 20.8228 -24.9379 12
637 1 16.394 11.8656 0.570412 20
638 1 15.7743 20.8176 -17.2045 23
639 1 12.4883 28.9239 -4.20277 16
640 1 10.8582 3.60575 -14.9511 20
641 1 -1.92233 7.21352 4.21838 17
642 1 15.9702 11.4837 -4.55792 22
643 1 -4.03595 19.7063 4.89836 17
644 1 10.9723 24.9337 -20.3975 12
645 1 -4.12512 21.6049 -11.71 21
646 1 15.8785 20.969 -6.29741 21
647 1 -7.26806 0.56165 -9.42977 15
648 1 19.2165 9.76297 -6.67707 14
649 1 12.9249 28.9829 -9.31494 13
650 1 -0.409254 17.4422 1.08141 22
651 1 -5.5912 7.09655 -7.62733 22
652 1 -7.32237 8.7031 -18.4662 15
653 1 13.3526 15.1983 3.57279 20
654 1 2.60861 1.28891 3.31241 11
655 1 11.4288 20.3684 1.95217 23
656 1 -2.11546 27.7616 -14.2428 13
657 1 12.8687 17.4524 -3.76562 24
658 1 10.9175 9.15851 -9.90191 23
659 1 9.43509 17.4195 -3.93005 20
660 1 6.09883 14.111 -22.1984 19
661 1 -5.35485 14.4325 6.57052 10
662 1 9.91843 17.5801 -23.512 22
663 1 2.4998 5.98863 -14.5664 23
664 1 16.6536 7.06316 -19.1221 16
665 1 11.1073 20.5843 -3.7075 21
666 1 7.8757 20.4796 -4.02754 22
667 1 -5.67815 14.3147 1.12953 20
668 1 9.13001 23.3573 -3.53654 22
669 1 4.4101 7.05564 3.96597 16
670 1 -1.60341 19.1894 6.41617 17
671 1 2.51123 10.2548 -17.1512 24
672 1 -1.21221 10.801 9.33494 6
673 1 12.6545 17.356 1.54706 21
674 1 -4.22944 0.154385 -4.0773 24
675 1 17.6378 18.6026 -11.9372 20
676 1 9.23433 0.0222299 -9.74663 20
677 1 2.721 17.9397 -14.2038 23
678 1 12.6443 21.647 -11.7481 22
679 1 14.2234 25.9933 -3.56081 19
680 1 4.81105 10.852 -24.7447 18
681 1 4.26489 12.7798 -1.43486 22
682 1 2.40894 27.4024 -12.1371 18
683 1 18.9729 23.841 -9.14097 10
684 1 -3.9417 6.19847 -10.0772 21
685 1 6.4063 13.6393 -28.2654 13
686 1 -7.4446 27.4576 -11.5566 11
687 1 9.83826 9.19978 -23.5015 14
688 1 7.69488 18.5899 -6.47895 21
689 1 18.0867 21.2369 -20.3156 11
690 1 16.7145 24.8324 -11.768 13
691 1 2.87069 17.6232 -3.7106 23
692 1 -3.82386 17.6495 -9.91508 19
693 1 10.6155 18.8664 -11.7562 21
694 1 16.7256 15.7674 3.68527 13
695 1 14.8413 14.5372 1.07103 21
696 1 0.917084 -1.3321 1.61389 11
697 1 4.24654 21.4595 -19.5871 21
698 1 8.16497 26.0139 1.62091 17
699 1 12.6484 8.40598 -22.7255 16
700 1 9.50537 15.5538 -1.54709 22
701 1 10.9807 24.4223 -11.6918 19
702 1 14.317 24.4227 -6.45135 19
703 1 20.9236 9.92509 -18.0084 10
704 1 10.6468 21.2679 7.45453 9
705 1 -7.26117 9.97815 -1.80589 21
706 1 4.7152 -2.81532 -9.69896 14
707 1 5.76224 10.4106 -17.2986 25
708 1 -2.30802 26.1628 -8.8261 19
709 1 1.22741 20.4916 1.82854 23
710 1 7.41905 7.12315 -17.1708 23
711 1 6.15609 26.9747 -1.08077 20
712 1 -12.1849 12.5684 -5.93111 13
713 1 -0.643041 15.4362 3.59827 21
714 1 0.894894 20.9673 -19.4665 23
715 1 -1.47154 19.1236 -25.0709 11
716 1 7.34903 1.30082 -6.81091 23
717 1 10.2014 20.2137 -21.4918 18
718 1 7.55656 8.8793 -3.89616 21
719 1 2.88982 21.2497 -6.17735 24
720 1 -5.62203 20.5645 2.09079 18
721 1 12.7845 16.1133 -23.8116 23
722 1 5.56517 -1.73035 -1.75906 14
723 1 5.51629 27.769 -12.7547 17
724 1 0.810927 16.8049 6.97386 13
725 1 -5.6235 4.47701 -18.9737 11
726 1 0.39601 2.19317 -23.3064 13
727 1 -3.4858 1.97078 -17.4549 14
728 1 5.6985 28.0145 -17.7727 12
729 1 8.84949 10.1784 -17.8421 22
730 1 1.24851 26.0653 -3.63533 20
731 1 8.71131 6.49725 -19.9978 20
732 1 12.0918 -1.04616 -11.226 14
733 1 7.96325 6.91757 -1.17522 22
734 1 19.4743 15.1976 -18.0643 15
735 1 7.62853 1.59912 -12.5105 23
736 1 -5.58996 12.8363 -1.82113 21
737 1 8.50005 15.3026 -24.7597 21
738 1 -0.487766 -1.12526 -12.6769 20
739 1 -3.88224 0.374054 -14.9812 13
740 1 -0.564888 15.444 -1.13884 23
741 1 -7.42516 -1.45473 -7.27509 12
742 1 17.7835 17.6801 -16.8734 19
743 1 -3.88597 27.014 -11.628 17
744 1 1.22584 20.5209 -3.68371 23
745 1 -10.2184 23.4445 -4.35239 11
746 1 14.3199 8.80807 -4.62671 23
747 1 -9.00931 11.4176 -17.7553 16
748 1 6.33568 21.9111 -17.0147 21
749 1 12.5005 15.6304 -12.1241 20
750 1 13.2532 26.4781 4.0854 6
751 1 19.3236 15.6952 -7.49905 21
752 1 -3.77155 16.9101 -24.0063 14
753 1 -6.61319 6.36727 -16.639 15
754 1 3.91021 16.0187 7.14066 12
755 1 5.11304 19.9187 -21.966 18
756 1 15.9558 27.2467 -1.28486 9
757 1 2.77668 11.6609 1.38577 25
758 1 -1.42865 -1.57776 -16.1279 11
759 1 -2.52452 -2.06016 1.21974 10
760 1 1.16114 6.51006 -1.63129 21
761 1 17.9208 24.3533 -1.6139 11
762 1 5.4802 6.71414 -20.4275 22
763 1 1.16669 20.8919 -14.0929 22
764 1 10.9343 24.3095 -6.35466 22
765 1 -0.306629 5.95709 -4.34733 21
766 1 16.0935 18.399 -19.4024 21
767 1 5.902 0.430393 -15.669 19
768 1 6.18776 -1.23533 -12.9336 18
769 1 6.11683 0.13111 -9.67786 24
770 1 12.3332 17.8628 -14.3587 20
771 1 9.53477 29.6022 -9.49111 15
772 1 0.419878 13.0599 -23.6667 18
773 1 2.63793 9.86749 4.08678 21
774 1 6.87424 19.9981 -26.5131 13
775 1 -8.03096 10.7633 -20.9803 11
776 1 -5.61751 9.27829 -9.51796 21
777 1 9.14168 27.674 -17.8976 13
778 1 12.5051 12.1133 -9.85579 24
779 1 2.06163 7.00869 -25.1391 19
780 1 -0.43589 6.15655 -9.56734 22
781 1 14.0702 18.8871 -11.6042 22
782 1 19.4048 4.98105 -14.1376 11
783 1 -2.36942 17.9408 3.43854 19
784 1 17.8959 3.17056 -5.63499 10
785 1 17.2125 7.08181 -12.9675 22
786 1 20.0003 9.69477 -2.9984 13
787 1 3.16993 27.0843 -1.00934 22
788 1 -5.69308 12.8201 3.80223 18
789 1 -2.21417 24.192 -0.838942 18
790 1 -4.06453 -1.15857 -1.78717 16
791 1 14.3802 12.5642 -7.29509 22
792 1 9.42517 20.8649 4.55826 23
793 1 -8.96052 15.0356 -4.66459 20
794 1 10.8238 7.69184 -17.4175 20
795 1 -10.4922 23.3216 -9.77755 14
796 1 6.01231 21.3963 -6.28953 24
797 1 9.22978 -1.55538 -7.134 19
798 1 9.73759 15.1383 3.76036 21
799 1 4.54261 26.1572 -4.04534 21
800 1 7.58039 2.89636 -4.08651 24
801 1 -7.40443 10.2076 -12.7036 22
802 1 7.71017 12.6658 3.96528 18
803 1 -11.0817 9.54311 -7.47445 15
804 1 7.93886 19.9549 1.62169 21
805 1 9.36645 27.3443 -6.84109 23
806 1 -5.66089 3.31283 -4.76128 22
807 1 2.53503 0.0864131 -9.75324 22
808 1 12.796 5.78691 0.716726 15
809 1 14.3907 7.15556 -2.02387 20
810 1 12.989 21.4073 -1.06537 22
811 1 0.978078 19.0621 -11.5784 24
812 1 5.8226 4.52323 -17.9166 26
813 1 10.0375 14.888 -22.1297 25
814 1 -0.705371 12.0085 1.41495 24
815 1 1.39306 29.8139 -5.15741 12
816 1 20.7839 12.9268 -6.76504 12
817 1 14.0114 24.6164 -16.9734 16
818 1 -2.7182 22.126 6.50167 13
819 1 14.437 18.243 -0.796709 20
820 1 3.79171 7.56266 -22.8997 23
821 1 -5.66337 3.33441 -9.9904 20
822 1 -0.844857 10.1097 -11.9902 24
823 1 20.9467 14.7923 -3.89147 13
824 1 4.14354 16.6456 -22.3681 17
825 1 4.86324 20.1458 1.6019 23
826 1 17.0213 3.42874 -9.57194 13
827 1 14.1692 13.9851 -25.5492 13
828 1 2.74476 3.93624 -12.0213 24
829 1 11.8671 17.9563 -21.1038 22
830 1 19.2112 11.6393 -9.38631 17
831 1 6.06959 5.77419 1.14611 23
832 1 0.9876 7.27366 -17.5031 23
833 1 10.2388 29.3342 -15.5124 12
834 1 6.08201 3.86834 -1.38292 23
835 1 -8.92746 20.6418 -3.09211 19
836 1 19.5342 15.6797 -12.521 20
837 1 20.6929 20.5528 -5.3941 16
838 1 7.25971 8.94965 -19.8421 21
839 1 -2.33984 26.4017 -2.74536 12
840 1 19.8425 23.002 -3.04302 12
841 1 12.1586 23.4411 -14.478 17
842 1 14.5655 10.8759 -23.6206 13
843 1 12.2538 6.28119 -10.1816 22
844 1 -6.81386 18.0154 -9.74471 22
845 1 14.1845 20.0846 -3.75509 23
846 1 -9.20793 3.75232 -8.90899 16
847 1 -5.47583 16.4479 -20.8722 14
848 1 11.2968 18.0977 -1.2591 20
849 1 -10.4993 11.9591 -14.9679 12
850 1 -11.9798 20.4553 -2.88826 10
851 1 2.69497 16.0311 -17.0113 23
852 1 18.0471 9.93171 -18.8691 16
853 1 -8.41524 3.59087 -15.9184 9
854 1 16.3321 4.67146 -13.0626 19
855 1 -8.68638 20.5671 -9.80341 21
856 1 -7.23375 12.5287 -15.2628 20
857 1 12.7254 23.1921 -3.87304 23
858 1 -0.555088 4.22381 -1.60841 23
859 1 14.9378 12.6342 3.37867 15
860 1 21.4018 11.9464 -1.77801 12
861 1 12.6565 11.7203 -4.67132 22
862 1 -5.67781 18.4769 -6.9553 20
863 1 6.2843 23.0526 2.09461 24
864 1 10.8103 18.8996 -17.3145 22
865 1 4.67293 4.74552 -24.2828 17
866 1 1.21892 29.9637 -1.58813 11
867 1 -7.56094 -0.874961 -1.96381 12
868 1 14.2769 24.6838 -12.7762 14
869 1 3.05694 20.8893 4.67395 21
870 1 21.2837 12.4972 -17.1781 10
871 1 10.8432 3.16292 1.73538 14
872 1 1.90375 20.9651 -22.2273 19
873 1 5.3033 24.9179 -18.1973 17
874 1 -2.11917 18.4475 -1.46737 18
875 1 20.1285 19.3294 -2.64021 15
876 1 -1.93395 7.71078 -17.5116 19
877 1 18.269 24.7803 -5.62551 10
878 1 -5.79907 18.6742 -12.6315 21
879 1 0.89869 1.33226 -1.95505 18
880 1 9.70253 22.8083 -22.194 16