ITEM: TIMESTEP
5000
ITEM: NUMBER OF ATOMS
1000
ITEM: BOX BOUNDS pp pp pp
-30.0 30.0
-30.0 30.0
-30.0 30.0
ITEM: ATOMS id type x y z Coordination
1 1 -5.23518 -8.56336 -9.06657 11
2 1 3.63098 -9.7768 10.6097 11
3 1 -9.08624 12.1723 -0.965012 11
4 1 -10.1028 5.6115 -8.24659 11
5 1 -3.01105 -9.39079 12.6186 13
6 1 -7.74845 2.35598 -11.8952 14
7 1 -4.37705 -12.7291 5.10393 15
8 1 7.02131 -2.59597 5.30986 18
9 1 -0.108453 3.17731 12.8241 22
10 1 10.0535 -1.25811 4.9938 13
11 1 -3.36526 10.0391 -9.24886 13
12 1 -2.79472 1.53117 12.8435 20
13 1 -12.3145 1.81538 -0.875823 13
14 1 -3.52783 -3.09713 -6.94584 19
15 1 0.488664 0.508635 8.13934 21
16 1 -3.65415 4.26566 13.7752 20
17 1 -1.45323 -11.7369 7.01718 16
18 1 -13.5134 -0.521367 3.68687 14
19 1 -13.5589 3.81446 0.148149 10
20 1 -5.68017 13.9085 -0.410008 14
21 1 -1.41666 3.03224 -8.47234 18
22 1 1.83919 -4.11028 -12.7796 10
23 1 -4.3502 -0.738476 14.071 15
24 1 -13.0367 5.86352 2.75827 13
25 1 -3.42656 14.8608 1.36053 11
26 1 1.58784 -13.9039 3.47301 12
27 1 8.46642 -7.25277 -5.52716 9
28 1 3.44937 2.04467 6.92222 22
29 1 -4.31534 5.5928 -5.29422 20
30 1 1.53684 5.92621 -2.35101 24
31 1 1.31976 3.54708 9.53855 24
32 1 -10.3036 -2.024 2.14834 23
33 1 1.95424 -2.86622 12.4906 15
34 1 -9.41281 -2.97566 -0.453238 18
35 1 9.15566 0.957827 6.51733 12
36 1 6.83512 1.09363 -4.99791 20
37 1 3.75379 0.443651 9.85017 21
38 1 -7.08277 -4.76476 -0.350426 19
39 1 -4.74135 -6.40194 -11.4935 13
40 1 -6.86878 11.482 0.834034 23
41 1 -5.04515 5.36086 -8.47805 22
42 1 7.13472 -0.494471 -6.95382 22
43 1 8.08718 -6.9467 8.38198 11
44 1 0.359865 -10.9478 11.929 11
45 1 -5.10793 8.69044 9.88506 12
46 1 -6.92893 -4.74254 10.9042 17
47 1 -12.8177 4.87278 8.1054 9
48 1 6.27032 -6.99864 -2.84278 18
49 1 1.39091 0.185774 -11.4554 17
50 1 -1.96201 13.2961 4.24819 14
51 1 -6.98323 9.65212 -2.04468 20
52 1 1.25424 9.25068 3.22132 19
53 1 -5.65682 -10.019 10.5985 11
54 1 -1.7084 -7.54234 -10.9358 12
55 1 0.560714 -5.54998 -10.133 17
56 1 -4.40768 3.71283 9.72609 18
57 1 -9.75602 -9.3295 -2.15266 10
58 1 5.75969 -4.97403 3.48916 19
59 1 -10.3937 -8.39779 1.26811 14
60 1 9.4182 -8.44394 6.28066 11
61 1 -4.30313 6.66635 4.63078 20
62 1 4.51566 5.1782 -7.40653 22
63 1 11.1761 -7.66867 0.697021 11
64 1 -10.568 -6.91933 4.32058 15
65 1 8.73298 6.41695 3.37173 17
66 1 6.74988 5.62867 1.39241 18
67 1 -4.44501 11.3434 -2.74362 16
68 1 -1.04094 -3.63718 -10.5778 21
69 1 -2.07341 9.27022 -6.11681 18
70 1 9.77273 -1.19468 -5.69591 14
71 1 3.92856 2.83688 -11.7884 13
72 1 6.15612 -9.78806 7.97295 11
73 1 -6.59388 3.16388 -8.16 20
74 1 1.45248 12.1118 -0.324949 13
75 1 10.1726 9.09148 -1.62859 9
76 1 -1.61959 10.5001 -0.301401 18
77 1 -6.77314 -5.47484 -9.60634 17
78 1 -12.112 -5.80418 -6.55209 11
79 1 -8.00138 9.61902 10.6926 12
80 1 -1.40652 10.664 -3.24377 14
81 1 1.61868 -5.30437 14.1429 11
82 1 -11.6581 -5.12535 7.01075 12
83 1 -1.91062 -9.95737 4.05105 23
84 1 0.956043 8.69348 -0.759454 19
85 1 7.07445 5.67135 -5.02906 22
86 1 -2.16096 -10.206 9.76102 17
87 1 -11.3655 6.70479 -0.576014 15
88 1 -1.12083 5.95839 14.6095 15
89 1 -5.08792 -0.619831 -7.30975 16
90 1 -7.20725 -3.82963 7.10823 17
91 1 -7.79154 -9.79057 7.52276 14
92 1 3.32574 -6.4058 1.7995 18
93 1 -8.34835 11.2914 7.77353 13
94 1 -10.1336 1.54653 1.47884 19
95 1 -10.79 -0.566426 -1.36444 19
96 1 1.17471 -10.1244 5.30201 20
97 1 4.50124 4.03503 -2.39225 20
98 1 1.59819 1.39272 14.9051 11
99 1 -4.43407 2.33673 -9.85519 20
100 1 -10.4511 -3.15213 -6.95973 19
101 1 -7.09034 13.2357 -2.68901 8
102 1 4.48308 3.549 10.569 18
103 1 -4.80329 8.60478 -7.09576 16
104 1 2.71625 7.56424 -7.53945 15
105 1 -6.83175 4.98287 8.57639 15
106 1 -8.59138 6.65389 11.8852 14
107 1 1.14106 -8.22357 -6.59131 18
108 1 5.74501 -8.18611 0.262585 17
109 1 3.43495 6.02446 -4.47458 21
110 1 -1.37944 10.6378 4.53979 20
111 1 -12.7693 3.01601 3.01622 18
112 1 -0.708515 3.21205 16.0764 12
113 1 8.14413 -1.09944 -3.13101 21
114 1 1.2066 7.00177 7.96971 22
115 1 -9.64403 9.28009 5.4318 18
116 1 -10.7472 -5.50157 -1.18748 19
117 1 1.39149 -1.90065 9.94884 18
118 1 1.48603 -8.40559 0.13763 18
119 1 -4.75768 -3.10772 -9.97875 22
120 1 7.73039 1.26194 -9.032 14
121 1 -13.3268 -1.84652 6.54249 10
122 1 -7.83772 -7.48912 -7.4886 13
123 1 -7.21173 -5.70105 3.23328 17
124 1 -4.56369 -7.57903 3.64202 21
125 1 -9.62953 -1.93242 -10.3019 11
126 1 -10.118 2.84872 -5.72034 16
127 1 6.60266 1.23553 11.2837 12
128 1 4.69592 -1.48443 7.94795 21
129 1 1.29423 -4.74367 8.38141 19
130 1 6.28318 11.662 1.64096 10
131 1 -9.19069 -9.44957 4.2852 14
132 1 1.50109 11.8885 5.17899 14
133 1 -4.3713 -5.51142 -5.35443 19
134 1 -5.61422 -9.90629 -6.3774 13
135 1 -4.23202 -10.98 2.45697 17
136 1 11.3559 2.16059 5.24549 8
137 1 -0.88667 -4.71268 -7.05902 19
138 1 -8.57003 0.799303 12.2717 11
139 1 -1.71305 -10.246 0.600207 22
140 1 0.526137 -11.1879 2.31459 21
141 1 1.5167 -13.7004 0.500559 10
142 1 -7.60627 6.81453 -7.5337 16
143 1 6.05266 6.7884 5.01072 20
144 1 -9.75517 2.8856 -9.16521 16
145 1 -0.915414 9.60013 -11.0045 8
146 1 -2.3153 -3.42687 9.71333 16
147 1 1.23765 9.41259 10.077 14
148 1 6.4471 4.19438 6.68326 19
149 1 -10.2468 3.30369 4.63465 21
150 1 -4.19935 -7.27524 10.6527 17
151 1 -9.34843 7.59877 8.21201 20
152 1 -0.544257 -2.28929 -12.5979 17
153 1 4.30952 -11.6754 4.90077 15
154 1 7.3968 -1.48259 -10.3389 14
155 1 -10.7525 0.821067 7.7591 17
156 1 8.65841 -8.99685 0.478946 13
157 1 -6.96437 13.858 6.49252 12
158 1 -10.8413 6.80969 5.4791 21
159 1 0.999083 -11.3797 8.8329 16
160 1 -1.44965 5.35184 11.0903 20
161 1 -10.0709 -0.409082 -4.85002 18
162 1 -4.66992 12.539 5.51227 18
163 1 -7.0371 1.00656 -3.49434 20
164 1 -12.9263 4.98789 5.49752 14
165 1 -9.68097 -4.61548 -9.03473 11
166 1 -4.50462 9.5524 2.91415 20
167 1 7.31439 -4.71463 11.0189 10
168 1 3.98353 -3.07527 10.0494 23
169 1 -3.88405 -4.44441 12.6797 16
170 1 2.51423 -11.4038 -1.12077 15
171 1 -7.30415 -2.27237 -8.89493 22
172 1 -12.1322 -4.02989 -3.62955 16
173 1 -4.65366 -8.56431 0.377604 17
174 1 9.698 4.54574 -5.78228 13
175 1 -8.55913 8.56762 -9.48106 8
176 1 -12.6953 8.44949 7.13952 11
177 1 -9.59102 11.671 2.24195 12
178 1 -6.43431 4.07911 12.0249 18
179 1 5.71871 -6.01129 -5.81333 16
180 1 6.60516 -3.55849 -2.01089 21
181 1 -4.60427 6.23681 1.38914 21
182 1 -1.43609 -7.77088 -4.58888 17
183 1 -1.22675 7.66451 5.96854 22
184 1 -12.2556 4.39618 -3.08638 10
185 1 7.15468 -10.8895 5.6111 12
186 1 7.63661 -0.859009 7.99569 15
187 1 -7.62184 -5.07136 -6.26724 19
188 1 -7.55114 -12.3018 6.16122 12
189 1 -3.56997 11.7918 1.97103 23
190 1 -9.88231 9.4911 -0.52418 14
191 1 -2.05488 -8.76888 -7.72306 15
192 1 3.78114 -9.946 6.87355 18
193 1 -7.24223 -12.6032 -1.21869 7
194 1 -9.28458 5.47046 -3.1197 15
195 1 -0.943856 -14.3439 5.77611 11
196 1 -5.14869 0.845593 7.85042 21
197 1 -3.79379 6.51219 7.51606 18
198 1 1.16018 -5.55163 -4.69365 21
199 1 -3.47425 -0.294944 10.1701 18
200 1 -12.9574 1.58421 5.75973 12
201 1 -4.7784 -5.19735 8.58083 18
202 1 -5.89393 -2.08928 13.0268 12
203 1 1.30902 -8.0605 -2.93366 20
204 1 6.58746 -10.7825 2.75379 15
205 1 1.65019 11.1171 -7.13684 9
206 1 -6.86762 -7.25861 6.33477 21
207 1 3.96893 -6.22517 8.68698 18
208 1 5.67714 1.94711 1.60714 20
209 1 1.44523 0.172884 -8.4993 18
210 1 8.8657 -4.98114 5.36241 17
211 1 -7.53873 3.33629 16.9363 7
212 1 -0.413637 12.0499 2.11565 17
213 1 4.59555 -6.97981 11.8535 10
214 1 -1.8172 -10.3584 -2.73255 19
215 1 1.60411 6.15362 14.969 11
216 1 -7.70942 2.31711 9.50432 18
217 1 -4.22482 -8.55197 -3.5672 17
218 1 -9.79453 -7.11579 -4.04205 17
219 1 -10.575 8.9607 10.0773 10
220 1 -4.50722 -12.1024 -3.89796 12
221 1 -10.1912 0.247596 4.41847 19
222 1 6.29704 1.7151 8.34887 15
223 1 7.97395 3.06974 -0.158813 20
224 1 -1.46748 3.70435 -5.30847 22
225 1 -2.13444 6.25765 -7.3782 20
226 1 -2.91697 8.06176 12.5268 13
227 1 -12.551 -8.62195 -4.37088 5
228 1 3.69824 9.94154 -5.1426 13
229 1 -3.10185 -5.86201 -8.77629 21
230 1 -3.37525 -1.72316 -12.3026 16
231 1 6.34136 6.12195 -2.00783 18
232 1 4.18398 10.2772 4.56475 15
233 1 2.06505 2.61724 -6.30011 17
234 1 1.14018 -7.77155 3.3546 23
235 1 -8.15199 5.37903 -10.4501 18
236 1 9.46239 6.26135 0.0892111 18
237 1 7.83524 -6.40366 2.43294 23
238 1 -2.23162 3.68264 -11.8645 17
239 1 3.4139 -10.3976 2.01859 22
240 1 -0.338321 -7.802 11.2151 20
241 1 -7.71285 0.744708 -6.60709 22
242 1 -5.35448 4.69471 -11.8477 17
243 1 -12.213 -4.24035 4.16103 18
244 1 11.0619 -1.5476 -2.55318 13
245 1 -4.21876 8.61044 -3.5572 17
246 1 3.78576 -7.46321 -4.98173 15
247 1 0.679139 3.11793 -11.8504 13
248 1 6.71348 -4.72221 -8.87056 15
249 1 -9.26987 -2.32559 11.0667 13
250 1 -4.56365 15.9499 4.62566 9
251 1 -1.16929 12.1978 -8.63696 8
252 1 10.2215 6.13073 -2.9904 15
253 1 0.709031 -10.4935 -3.84434 15
254 1 1.99125 -2.50184 -9.83107 21
255 1 14.1212 -2.62812 -0.755393 6
256 1 2.58404 -7.17278 6.11294 18
257 1 -10.5001 5.32765 10.2536 12
258 1 -6.90334 -7.18093 -3.7515 17
259 1 -1.252 -1.60224 11.8782 20
260 1 5.5836 7.17116 -9.70436 10
261 1 -7.231 8.70072 1.6949 23
262 1 -2.18728 13.0254 -1.23569 15
263 1 0.604929 0.795727 11.4286 20
264 1 6.12333 -11.7114 -0.0959465 11
265 1 4.4626 -0.458094 -10.3474 19
266 1 -12.4701 -3.07212 -0.418037 19
267 1 -7.04474 4.20333 -1.87284 22
268 1 -10.0429 -5.58362 9.91482 10
269 1 3.74935 7.18121 -0.545526 21
270 1 2.85862 -5.59467 -7.67266 18
271 1 -0.376228 -8.47706 14.3889 13
272 1 5.37354 -2.22598 -4.93409 19
273 1 -10.2738 8.18572 2.45977 19
274 1 10.1544 -7.57022 -2.50299 9
275 1 -0.0490552 7.96036 12.5268 15
276 1 -2.09459 0.407863 -6.68263 21
277 1 2.96129 5.84387 -10.6216 11
278 1 -3.1633 -4.93832 -13.0972 12
279 1 -3.72674 -11.741 -0.71665 14
280 1 9.73151 0.820827 -0.497069 18
281 1 3.54233 -5.21809 -10.3851 14
282 1 4.35746 -9.75713 -2.29863 12
283 1 3.79889 11.0285 -0.806497 14
284 1 -10.4407 4.35379 1.43901 20
285 1 10.1555 7.93284 -5.54504 11
286 1 -1.63783 -6.66934 8.55023 18
287 1 7.15301 4.75205 9.79452 12
288 1 -8.0349 0.3215 -9.5892 17
289 1 10.8099 3.46791 -0.816891 12
290 1 6.22111 -3.535 1.05842 22
291 1 3.25292 8.28479 12.6972 12
292 1 3.86726 5.31372 8.04664 23
293 1 -4.53231 9.38062 -0.201731 20
294 1 -3.13877 -11.3748 -7.10667 11
295 1 -6.75353 6.88743 -4.18781 18
296 1 -6.39728 -0.56687 -12.0255 15
297 1 -13.8622 -1.04232 -2.46133 10
298 1 6.46844 -7.05978 5.71659 19
299 1 1.76146 -7.86849 8.86823 18
300 1 7.59495 6.44503 -7.87919 14
301 1 6.99511 -0.837494 2.85691 17
302 1 5.69289 9.32835 6.95671 14
303 1 9.40734 -2.91887 -0.637158 20
304 1 -5.24749 1.3772 11.4657 19
305 1 -9.89865 -7.58222 7.54875 13
306 1 -11.007 -0.0694981 -7.82901 14
307 1 -2.24042 -3.15593 13.9844 14
308 1 -5.65612 13.9072 2.88879 17
309 1 9.03554 8.51073 5.48303 11
310 1 3.96807 4.10875 4.78307 20
311 1 -10.6433 -2.73133 8.39841 16
312 1 6.98614 1.5489 -12.0506 9
313 1 1.57766 -8.30293 -9.8474 9
314 1 7.04217 7.14364 8.0679 17
315 1 2.97077 7.56674 5.70893 20
316 1 -2.77063 -6.87279 14.1836 13
317 1 -4.09066 6.78061 15.5694 9
318 1 -9.07159 4.00111 13.664 12
319 1 -7.07142 3.67257 -4.94317 21
320 1 6.78533 9.06386 -0.299113 20
321 1 -2.13484 2.22967 9.8122 26
322 1 1.64139 12.0067 -3.64754 11
323 1 -7.13255 -9.5968 1.76845 16
324 1 3.95622 7.03063 2.94214 18
325 1 -6.6851 4.32372 5.00796 18
326 1 -7.33533 4.95913 1.19158 19
327 1 7.88116 8.8148 -3.58322 16
328 1 3.33595 2.07577 12.9417 14
329 1 5.83171 6.79121 10.9385 14
330 1 1.54843 -2.9146 -6.37795 20
331 1 -1.5089 4.91041 7.98281 20
332 1 3.89894 -4.53635 -2.83201 19
333 1 2.9016 11.1081 7.81485 11
334 1 -14.2885 -3.00438 2.82513 10
335 1 4.62461 -13.3703 2.55382 10
336 1 6.70369 8.89868 -6.81733 11
337 1 3.58041 -3.67403 6.57864 22
338 1 -7.08509 8.45742 5.72811 16
339 1 1.4606 -1.08025 -14.6269 7
340 1 4.50842 -3.0297 -8.02761 22
341 1 -5.64134 11.3522 8.48835 12
342 1 2.17564 -5.86775 11.4013 21
343 1 -7.04071 -10.1547 -3.34452 14
344 1 -9.5555 4.16399 7.63061 20
345 1 6.14986 1.59365 5.01271 19
346 1 -1.34841 6.87794 -3.94048 23
347 1 6.11031 4.40298 -10.8248 13
348 1 8.11073 3.34242 -3.31403 21
349 1 -0.438562 5.95279 -10.0626 13
350 1 -8.49452 -0.0608679 8.90527 18
351 1 -6.19937 -2.21945 9.66032 17
352 1 -0.661518 -1.93576 -8.86108 20
353 1 -8.02788 6.82363 -0.635162 18
354 1 6.42298 8.7979 2.82334 17
355 1 -9.04395 -3.58601 4.05212 15
356 1 4.972 2.30614 -8.50692 19
357 1 -4.15566 2.02216 15.9206 13
358 1 -12.8239 -6.28849 1.62292 12
359 1 7.27833 -1.02981 0.114884 19
360 1 -7.83249 -7.91462 -1.0016 17
361 1 10.9064 -6.81052 3.70203 12
362 1 5.01719 -8.33502 3.82867 19
363 1 -3.66857 9.46258 6.83705 18
364 1 -6.77116 5.63837 14.66 14
365 1 7.72224 3.22767 3.42228 19
366 1 8.13091 -5.80049 -0.448702 20
367 1 0.990762 6.61375 4.3623 19
368 1 0.190448 9.89886 7.39844 15
369 1 -1.47511 -12.8573 2.77458 16
370 1 -9.33131 -3.29131 -3.59859 20
371 1 -1.31119 -0.0523263 15.3472 11
372 1 3.14806 11.5191 1.96959 13
373 1 4.76524 -3.99833 13.3378 13
374 1 6.46759 -4.14516 8.03083 18
375 1 2.20113 5.65725 11.2082 22
376 1 -1.8567 7.0713 -0.719122 20
377 1 0.337589 -11.0256 -7.42544 10
378 1 -4.69344 1.28864 -12.6309 14
379 1 -6.50461 1.67121 14.0896 19
380 1 9.93151 0.761581 2.54512 15
381 1 0.270945 5.6992 -5.799 16
382 1 5.34217 -3.60678 -11.9783 10
383 1 -6.52929 -13.1423 2.43658 11
384 1 -7.51826 -2.09347 -5.40249 20
385 1 -1.66188 0.0679189 -10.274 17
386 1 -1.91329 -7.40286 -1.29226 21
387 1 -0.884492 -4.98047 12.5392 16
388 1 -1.79512 -6.92973 5.03769 19
389 1 7.48827 3.21622 -6.77829 19
390 1 -7.0497 11.0143 4.34238 21
391 1 8.63618 -4.77312 -3.71239 16
392 1 -12.7559 -0.163438 0.97405 16
393 1 10.4968 3.80932 2.41178 14
394 1 4.35328 5.57217 13.2777 11
395 1 -13.2853 -2.16975 -5.59462 12
396 1 -4.0319 2.63891 -6.4198 20
397 1 11.9959 -4.74231 0.919432 12
398 1 -6.2757 -4.31905 -3.53533 18
399 1 -5.78248 -10.1872 4.68793 20
400 1 9.26196 -3.54472 2.64124 19
401 1 -12.2338 9.14825 3.62748 10
402 1 0.0558793 8.76416 -8.39135 14
403 1 2.65463 -8.76622 13.8277 11
404 1 -8.57282 -1.28382 6.43866 16
405 1 -6.45049 -3.54226 -12.5404 12
406 1 -4.98856 -10.3045 7.84342 17
407 1 4.16641 -0.538403 13.1037 16
408 1 -0.577852 -12.8396 -1.98705 11
409 1 9.48326 -2.06426 -8.83899 11
410 1 -7.55343 6.37779 3.41067 17
411 1 -8.11897 1.81128 6.01807 20
412 1 -0.770115 -12.4922 -5.56542 10
413 1 9.44022 9.38253 1.70783 12
414 1 9.93112 1.494 -3.70951 15
415 1 -0.319632 -9.09392 7.15075 19
416 1 4.59104 8.32185 -2.96484 16
417 1 4.31067 0.0104838 -6.64757 18
418 1 -9.71013 2.24483 -2.44407 19
419 1 4.83107 3.09623 -5.15293 22
420 1 3.8073 8.0522 9.43236 20
421 1 1.29002 8.91162 -4.04008 20
422 1 -5.96914 8.33172 13.1914 13
423 1 6.21126 1.49958 -1.99666 21
424 1 2.10567 -13.3191 6.47968 11
425 1 9.72961 5.0017 6.27579 13
426 1 7.9692 -3.62054 -6.25301 16
427 1 -5.79978 7.64743 -10.4778 15
428 1 -1.68208 7.95015 9.2869 20
429 1 -1.80753 8.00061 2.67593 21
430 1 -3.79623 -7.83396 6.97875 18
431 1 9.68361 -9.72356 3.26908 11
432 1 -1.26821 0.8053 -13.3144 14
433 1 -10.2529 -5.17078 1.58382 24
434 1 -4.01227 5.92129 -2.05057 22
435 1 6.86156 -1.56081 11.0816 15
436 1 -7.12343 -6.79662 9.22696 17
437 1 11.9893 -1.55999 0.521036 12
438 1 -2.98079 6.93916 -10.8456 14
439 2 -11.8587 -1.56758 -6.71416 12
440 2 -7.48131 13.5454 -0.77722 9
441 2 -3.12187 0.245662 -12.8094 17
442 2 -5.79104 7.46027 14.8188 11
443 2 -9.53958 -2.30322 -5.34849 20
444 2 -1.84523 -1.16431 13.9502 15
445 2 -10.8293 1.87117 5.71497 19
446 2 6.54134 6.70283 2.91965 17
447 2 -3.38832 -5.07978 -6.9682 17
448 2 -8.63541 -7.01991 -5.80199 14
449 2 -6.93657 3.17138 0.234904 21
450 2 -1.75521 -7.90221 7.02394 18
451 2 1.3845 1.79598 12.956 14
452 2 7.75345 0.409473 -10.9532 10
453 2 6.18716 -0.914807 4.60464 22
454 2 -6.46102 6.97263 0.66758 22
455 2 9.98325 2.95709 6.24517 12
456 2 -10.5369 -5.841 8.22112 11
457 2 -3.3988 -12.5285 3.40998 16
458 2 5.90021 -7.04048 7.87183 16
459 2 -10.4912 10.0742 3.08352 14
460 2 -4.93962 6.65723 -3.53448 20
461 2 -3.88639 8.1965 8.54604 14
462 2 5.00613 -4.13255 -1.24216 18
463 2 -4.53801 0.703792 -6.17851 18
464 2 1.70717 -4.8639 -6.43469 19
465 2 8.11699 -0.606103 -8.61562 15
466 2 8.29209 9.63381 -1.17313 11
467 2 -7.24929 12.6202 7.98361 11
468 2 -6.57864 -8.81789 -7.78785 10
469 2 0.690371 -9.72049 13.3548 11
470 2 6.06661 -1.53912 1.35437 24
471 2 -12.6155 -0.0282036 -1.08271 15
472 2 7.66676 10.0665 1.52456 12
473 2 2.41995 -11.59 5.76126 17
474 2 0.333792 8.53846 8.76001 17
475 2 4.32019 10.7214 6.64324 13
476 2 2.27625 6.2219 -6.18217 15
477 2 -9.88034 4.69797 11.9991 9
478 2 4.42379 0.578928 -8.82331 20
479 2 -9.88285 0.938528 -6.39757 15
480 2 -12.5299 -0.122177 6.50346 12
481 2 -9.56599 -8.17506 5.80367 14
482 2 1.75517 -9.08341 6.84265 18
483 2 -4.06281 -2.5897 13.4724 12
484 2 -1.29799 7.4256 11.2233 17
485 2 -9.81972 3.22099 2.69039 23
486 2 4.59719 -6.0846 -3.7414 17
487 2 7.74675 0.968683 -3.40491 21
488 2 1.0398 -13.2074 -1.2007 10
489 2 3.4036 7.12668 7.66227 19
490 2 9.7828 -7.58672 -0.654661 12
491 2 3.55281 -1.78772 6.32288 20
492 2 -6.10961 -10.8343 2.92051 19
493 2 10.8924 0.209488 0.800221 14
494 2 -3.72366 -9.41492 3.76966 21
495 2 10.7154 -3.14315 0.647145 17
496 2 -2.68748 -7.64912 -9.25171 14
497 2 -8.87876 -5.44109 3.06468 19
498 2 -3.35755 -6.58132 2.25211 20
499 2 -6.76886 -5.62914 -2.27687 21
500 2 -6.04649 15.2268 5.51743 8
501 2 2.30461 0.307705 -6.67688 17
502 2 7.21788 6.68309 -0.34627 21
503 2 3.94073 6.61677 -8.64726 14
504 2 -7.95004 4.75657 15.5653 10
505 2 -11.884 7.33621 3.32669 17
506 2 -6.7498 3.83997 10.084 16
507 2 -11.5308 9.08272 5.60521 12
508 2 -10.9061 6.02018 -2.40648 12
509 2 6.81916 1.44298 -7.0049 16
510 2 11.3657 -6.31535 1.84234 12
511 2 6.81658 3.4179 1.72388 20
512 2 -0.255084 12.0769 4.62817 14
513 2 -9.34554 7.49233 6.1784 18
514 2 10.7649 5.27656 -1.31596 14
515 2 1.39026 6.77225 -0.869607 19
516 2 -1.27507 7.96315 -7.08553 17
517 2 -2.39355 4.08512 10.001 22
518 2 0.49462 -3.80311 13.3864 15
519 2 1.00621 -1.94769 -8.06531 20
520 2 -4.94367 5.29886 14.5973 16
521 2 2.22101 1.85536 -11.6292 12
522 2 -6.81825 -2.82389 11.3685 14
523 2 1.32882 -7.17023 -1.30566 16
524 2 -0.750591 -5.84006 -5.03365 19
525 2 5.37189 -10.8969 6.37253 13
526 2 6.03879 7.50673 -7.93717 12
527 2 -6.33332 7.99823 -8.64156 15
528 2 -4.70839 11.2379 6.97999 18
529 2 -9.09326 -4.87394 -0.259405 20
530 2 5.17873 5.75471 -5.61812 23
531 2 -2.32173 13.3095 2.34769 18
532 2 -2.57817 6.98335 14.3505 15
533 2 4.49467 -8.05899 1.86536 18
534 2 -3.39428 0.662972 15.0198 15
535 2 7.7609 -5.96437 -2.36172 19
536 2 4.7837 8.5121 5.20269 17
537 2 -7.78699 7.25692 -10.5309 13
538 2 1.38223 -7.24027 14.3823 12
539 2 -3.58553 -7.23432 8.8827 20
540 2 4.25565 -9.9274 8.8126 14
541 2 -2.28757 9.05874 -4.29045 18
542 2 -5.22096 -12.3007 -2.10081 11
543 2 -2.25038 -1.94242 -10.1823 18
544 2 -3.93148 -9.42182 -7.66047 12
545 2 5.9362 7.83093 9.47727 13
546 2 -10.9919 -8.84589 -3.34549 10
547 2 -13.9944 4.23405 1.98951 11
548 2 3.29073 -1.35339 9.54647 22
549 2 -1.78175 -11.6641 -0.646476 16
550 2 -0.770325 0.0316948 -8.34646 17
551 2 -6.60233 -3.71946 -10.3216 18
552 2 -9.9532 -0.237449 -9.3041 13
553 2 -6.44986 -0.376812 13.6904 15
554 2 -4.45793 -2.25509 -8.16833 17
555 2 3.05966 -3.87151 -8.9285 20
556 2 4.23405 -1.88376 -6.48467 17
557 2 -6.39722 -6.6858 4.47743 20
558 2 -1.49325 -4.96466 -9.11808 17
559 2 -0.926026 -8.54115 -2.83398 21
560 2 -0.624878 8.07225 -10.2093 13
561 2 3.96712 6.9639 11.6501 15
562 2 10.6478 0.584608 4.93969 9
563 2 -13.6959 -2.36398 4.75774 11
564 2 -2.26829 -13.0092 5.78911 10
565 2 -2.09931 2.42362 -6.67932 19
566 2 -3.33323 7.81213 5.93772 22
567 2 -6.31557 -4.99843 1.47975 20
568 2 -6.5088 6.31392 4.95227 16
569 2 -8.26073 -5.95112 10.4677 11
570 2 -0.852247 -10.645 5.50426 21
571 2 -13.0543 1.29471 3.93655 17
572 2 -8.82656 -8.67679 2.45968 15
573 2 -8.49295 0.0642802 4.99082 22
574 2 2.94688 -6.99216 10.1428 17
575 2 1.61564 9.30078 -7.47031 13
576 2 4.91779 9.13589 -0.956884 19
577 2 8.01734 4.94399 -6.61079 18
578 2 -2.64609 11.4287 -2.17701 14
579 2 -9.46506 0.721746 -3.47292 18
580 2 -13.2116 -2.95836 -2.19779 13
581 2 -3.43784 -10.2908 -3.86457 17
582 2 2.29542 -6.36783 7.68347 19
583 2 7.64952 -5.43593 9.31904 11
584 2 -5.21768 9.31882 -1.92562 19
585 2 7.02294 1.18181 -0.15531 23
586 2 3.78483 -2.46812 13.0922 16
587 2 -1.60797 -2.82641 -7.03549 20
588 2 4.00259 5.97281 4.57952 20
589 2 1.63038 8.35146 11.6287 14
590 2 0.897032 -1.1993 11.7297 19
591 2 -6.94082 4.43753 3.02865 20
592 2 6.19551 7.62123 -3.40553 19
593 2 -8.26053 -5.67502 -8.21316 14
594 2 -7.40488 -2.60783 -3.31336 22
595 2 -9.90346 -0.964064 7.99241 18
596 2 2.6919 12.0667 -1.89669 12
597 2 8.12809 5.40185 -3.47887 20
598 2 7.55044 -7.20523 0.746793 18
599 2 -13.629 -4.81233 2.82302 11
600 2 -6.00521 9.2964 4.3337 19
601 2 -4.094 6.5196 -7.12687 23
602 2 -0.189436 -0.84938 -11.1589 22
603 2 -9.06901 5.52637 0.717808 19
604 2 -12.0677 -3.25656 7.18055 11
605 2 6.97892 -9.89634 0.609473 16
606 2 1.74542 -10.7509 0.763623 18
607 2 -8.21744 10.4517 6.12164 16
608 2 -0.880688 -8.12382 3.86486 21
609 2 -13.1226 3.43407 -1.7602 12
610 2 1.79727 -9.44507 3.28285 21
611 2 0.341921 4.60894 11.0629 19
612 2 -4.10799 2.97438 -11.7116 15
613 2 -1.63521 10.8443 -9.73874 10
614 2 4.2689 4.6562 -11.028 13
615 2 -3.25221 14.2508 -0.383855 11
616 2 -8.37406 2.17317 13.6877 15
617 2 -4.1951 -3.3409 9.03301 20
618 2 -3.65565 -6.72988 5.43615 22
619 2 -12.4131 -7.21855 -5.41741 9
620 2 -2.04547 -1.37932 9.97797 21
621 2 -1.89464 5.42094 -11.5832 14
622 2 6.57358 -1.59304 -1.74904 21
623 2 0.213522 -1.42281 8.63372 20
624 2 -0.324539 -0.664967 -14.1384 10
625 2 3.88935 6.36226 1.18472 16
626 2 3.01137 4.08921 12.4774 17
627 2 -10.8399 -3.76161 2.94931 21
628 2 -5.2889 12.8525 -2.1764 12
629 2 -1.96009 4.4507 12.9283 18
630 2 4.91102 -10.3706 3.56483 16
631 2 -5.66122 -11.8301 6.51562 13
632 2 4.77938 1.57743 11.0382 18
633 2 5.41097 9.97414 -6.04791 10
634 2 2.03622 10.1266 -0.475876 18
635 2 0.252001 -12.6928 7.55494 13
636 2 4.4536 -11.0926 -0.872926 11
637 2 -2.12231 2.15385 -9.99559 17
638 2 -0.0739602 1.26039 15.9434 10
639 2 0.476965 4.93639 7.86195 22
640 2 4.54958 -3.95993 4.65621 22
641 2 -6.78233 1.13799 -12.6537 12
642 2 6.18883 -3.78085 -7.42469 19
643 2 -7.90592 11.7199 2.59665 15
644 2 0.129599 -7.5232 -10.2709 12
645 2 -2.65284 3.4985 15.3371 16
646 2 -8.37809 8.46665 -1.27514 18
647 2 13.5823 -3.45442 0.766721 6
648 2 2.35217 10.8 3.94441 17
649 2 9.66651 5.50104 1.85567 17
650 2 9.68424 2.77477 0.689661 14
651 2 -9.97875 1.63016 -0.46738 19
652 2 -7.70396 6.07134 -2.40588 18
653 2 -7.58668 2.63543 -6.63203 19
654 2 9.82628 8.10467 -3.34894 12
655 2 -7.69853 11.3603 -2.26263 12
656 2 -5.62521 -8.93333 6.36201 19
657 2 1.76431 1.53466 9.72857 23
658 2 0.970975 -11.4313 -5.54629 9
659 2 -2.28683 -3.32121 -12.7498 13
660 2 4.89862 12.302 0.475983 11
661 2 5.01319 10.4825 2.79924 14
662 2 -6.7304 -3.432 -6.49698 22
663 2 -8.04999 -10.8863 -1.84623 12
664 2 6.84128 1.04421 3.03187 20
665 2 -3.7724 7.71829 2.594 19
666 2 3.79314 -13.4733 4.17077 11
667 2 3.202 -5.37667 13.0725 15
668 2 -5.42435 -3.82596 6.09753 18
669 2 -6.10619 -5.8429 -5.17629 17
670 2 0.403013 4.80023 15.5775 11
671 2 0.596193 6.97858 -3.7951 20
672 2 -11.4092 8.3429 8.51006 14
673 2 -3.67785 -6.42073 12.3588 15
674 2 -4.49746 15.3551 2.78367 13
675 2 -1.36769 -10.9046 2.29212 17
676 2 -1.23243 -4.68814 8.45953 18
677 2 6.14279 -0.452417 12.4801 11
678 2 -11.9867 4.35552 4.00309 16
679 2 -3.62073 6.90652 -0.328335 18
680 2 -1.16871 1.62203 11.4558 21
681 2 -5.98228 -7.06649 -10.1656 12
682 2 12.5615 -1.69678 -1.44397 12
683 2 7.31741 -0.859284 -5.13452 19
684 2 -5.89999 9.88915 1.12681 18
685 2 -6.121 2.52238 15.9641 12
686 2 -7.62532 2.73116 -3.03751 19
687 2 8.66801 -5.45027 -5.6559 11
688 2 1.84096 7.46331 2.72436 21
689 2 -4.63945 2.63178 12.9373 22
690 2 -4.00498 1.62034 9.88099 20
691 2 -4.59016 5.92204 -10.3853 18
692 2 -13.5792 -1.16904 -4.14589 9
693 2 -9.11721 -2.86221 -8.46724 18
694 2 -1.77392 5.72829 -5.64644 20
695 2 -7.98808 -1.12172 -11.1328 14
696 2 6.2895 -7.50456 -4.74682 12
697 2 -0.617893 -8.37847 0.169476 21
698 2 -1.38105 -9.34103 11.4534 18
699 2 6.653 -2.28114 7.89037 17
700 2 7.99954 -3.26808 -9.2541 12
701 2 0.746375 -13.7947 5.10807 13
702 2 9.77381 2.39111 3.42789 15
703 2 -9.0656 10.0429 8.99008 12
704 2 -11.3474 -7.25229 2.61745 14
705 2 10.2849 -0.430339 -4.01117 14
706 2 4.51686 -7.71866 5.6065 18
707 2 -6.11271 12.6821 4.32285 18
708 2 4.41258 1.28226 -5.30149 23
709 2 3.47509 4.02092 6.59833 21
710 2 -13.256 3.27575 6.6922 13
711 2 0.566543 12.2542 -7.75245 6
712 2 2.4912 -0.82941 -10.3736 16
713 2 -6.97767 1.39249 7.80403 22
714 2 -7.07226 1.62566 11.2236 18
715 2 7.47079 -0.230404 9.82337 14
716 2 5.704 2.69389 -12.1421 10
717 2 -10.4559 -5.24137 -3.28732 17
718 2 9.335 -2.49765 -6.9643 12
719 2 -3.27365 10.3431 0.691535 21
720 2 2.13105 -6.37601 -9.36745 15
721 2 -12.4928 6.4129 6.63849 14
722 2 -10.7423 -0.0113262 2.70104 19
723 2 5.31509 -12.0757 1.54953 13
724 2 -1.32604 -11.6229 -7.20029 10
725 2 -1.17313 -11.8782 -3.78747 14
726 2 10.0397 -3.39659 -2.4618 15
727 2 -3.9827 8.49491 -10.3024 13
728 2 3.0132 9.67113 9.13335 14
729 2 -4.67419 -11.7405 -5.73293 11
730 2 2.95834 4.65511 9.65825 20
731 2 -4.49248 8.51008 11.5703 11
732 2 -7.1131 5.13169 -8.492 22
733 2 1.10382 -9.49413 -8.2732 9
734 2 -6.71112 -10.1668 9.00229 11
735 2 -9.10006 10.9504 0.380253 15
736 2 8.2535 8.18619 -5.5028 15
737 2 -4.5835 3.34116 -8.2165 19
738 2 3.37761 3.70585 -4.21294 20
739 2 -5.12771 -4.76472 -13.0221 12
740 2 1.90438 -7.32448 -4.66991 17
741 2 -12.4596 -4.12257 -5.40623 12
742 2 5.4291 5.1301 11.3992 14
743 2 -7.24128 1.99312 -9.78114 21
744 2 -11.5437 -5.63042 5.26345 16
745 2 7.51138 1.90604 6.72449 17
746 2 5.92379 3.55776 8.81609 18
747 2 6.74738 5.50426 -9.48451 12
748 2 -5.23978 8.33689 -5.24892 15
749 2 1.4563 12.3451 1.76856 14
750 2 8.65357 -1.87085 3.60894 17
751 2 -7.02121 -0.105549 -4.95137 21
752 2 3.12187 8.45878 -4.14151 18
753 2 -3.83152 -0.102331 12.1814 20
754 2 -0.79916 -8.57172 -6.37633 16
755 2 3.3118 0.785568 14.2451 10
756 2 -1.89721 6.73899 7.87153 21
757 2 9.97506 -8.24474 4.54785 13
758 2 5.67078 -4.83789 -10.3388 12
759 2 -6.21836 10.1029 9.71512 12
760 2 3.76631 -8.54071 12.2785 11
761 2 -0.942257 8.76066 -0.612531 20
762 2 -1.58074 9.69044 6.79225 17
763 2 -4.62559 3.69762 -4.92185 24
764 2 -0.703022 12.1507 -0.0205405 17
765 2 -8.20327 -8.07977 -2.75039 15
766 2 1.66531 -2.27654 -13.3272 10
767 2 -8.48295 3.76375 6.04605 20
768 2 7.83715 -3.74756 0.0434244 18
769 2 -3.56101 9.98084 -7.37651 13
770 2 -11.075 4.71903 8.6432 14
771 2 -5.99706 -8.91418 -4.36501 17
772 2 3.11755 6.87336 14.1192 11
773 2 -2.89063 -6.60767 -12.0659 12
774 2 -9.4643 7.24945 -8.36689 10
775 2 0.689947 3.84653 -5.53233 19
776 2 -7.07564 3.98408 -11.3831 16
777 2 -8.41189 7.84453 2.7192 22
778 2 -10.0244 7.35523 10.6607 12
779 2 2.28384 11.8009 -5.33291 10
780 2 -7.05424 -12.9273 0.840915 9
781 2 6.52927 2.83702 -9.66031 17
782 2 5.54187 -1.73859 -11.1047 15
783 2 -7.96444 -10.7591 5.229 15
784 2 -10.4979 8.14101 0.608302 16
785 2 -8.09387 -7.85886 7.93076 14
786 2 -1.51486 4.83008 -8.71115 19
787 2 -0.836606 -10.3714 8.59614 17
788 2 8.66506 6.01712 8.25498 12
789 2 4.4528 -4.1914 8.34146 19
790 2 -9.0191 -0.38553 10.8437 15
791 2 1.10915 4.88214 -10.7996 13
792 2 0.279276 6.87753 14.0183 15
793 2 -10.0355 -8.01587 -0.701766 15
794 2 -5.7288 -6.12642 10.5775 14
795 2 -8.47683 5.74835 8.2684 17
796 2 -7.22459 5.54458 -5.57376 21
797 2 -11.075 -4.78878 -7.49322 12
798 2 -3.53632 14.236 4.85806 14
799 2 5.75881 -5.35015 12.1003 12
800 2 9.02273 6.1048 4.99707 16
801 2 -3.67322 -10.3191 0.759797 18
802 2 -13.4642 -1.53137 2.0022 14
803 2 -12.1997 2.12462 1.0219 18
804 2 -7.55064 -1.91718 8.25789 20
805 2 -1.97492 -3.59273 11.7767 17
806 2 0.329943 -13.2598 2.1555 12
807 2 6.39465 3.63989 4.79231 23
808 2 9.3152 -8.0596 -4.08891 8
809 2 -1.00855 6.86458 4.07959 21
810 2 -4.60643 -5.04972 -9.89653 21
811 2 -8.56122 -3.22251 5.84328 17
812 2 2.15688 -4.02842 10.0697 21
813 2 -5.00538 -0.912398 8.75147 18
814 2 0.351802 -6.16748 12.2888 18
815 2 3.72622 3.20346 -7.31461 18
816 2 6.15691 6.05035 6.90039 20
817 2 3.72031 -4.41373 -12.2224 11
818 2 7.26901 -4.2643 6.08171 20
819 2 10.6983 6.00129 -4.86949 10
820 2 7.00259 -3.34859 -4.05545 21
821 2 1.38386 11.3458 7.02518 13
822 2 8.76484 -0.936477 6.44465 12
823 2 -4.45543 -9.01757 11.5688 13
824 2 -2.29895 -8.60931 14.2668 10
825 2 -6.51633 -5.51167 7.78259 21
826 2 3.02554 -13.8622 1.59135 12
827 2 7.95202 -9.57162 6.88226 10
828 2 9.53216 -5.32315 3.67203 14
829 2 -3.8512 -10.7041 9.33529 14
830 2 7.33896 -4.40259 2.36413 20
831 2 -7.36113 5.38277 12.8163 15
832 2 -4.41502 4.75014 8.21267 17
833 2 6.781 3.41103 -4.98695 20
834 2 0.930709 -3.80268 -10.8693 18
835 2 4.16922 -6.46579 -6.7929 15
836 2 -0.77316 2.17646 -12.3931 13
837 2 -9.85611 4.51788 -10.0713 10
838 2 7.46779 8.72775 6.36491 13
839 2 -10.1153 -2.15447 -2.20277 18
840 2 9.8063 2.44077 -1.96207 17
841 2 -10.9178 -2.09506 0.416126 19
842 2 6.70967 -6.66307 3.9236 16
843 2 0.311383 10.1932 -3.32999 18
844 2 9.88308 3.00966 -4.87239 14
845 2 4.25676 6.13113 -2.20019 18
846 2 1.79005 -10.9655 10.5403 11
847 2 -11.9047 -5.07837 0.439758 16
848 2 5.90625 -3.14008 10.7408 17
849 2 8.58623 -6.71985 6.61426 13
850 2 1.54363 -6.42404 4.47994 19
851 2 9.03479 8.74155 3.43665 11
852 2 -9.38607 2.291 8.45994 16
853 2 -11.9848 5.30687 0.473576 17
854 2 9.26913 -0.969992 -0.836592 20
855 2 8.0295 -10.3752 3.81523 14
856 2 -3.66607 -7.46805 -1.16479 20
857 2 -0.527885 9.97919 3.00001 22
858 2 10.3847 -9.14411 1.63842 11
859 2 1.02758 7.74304 6.12805 18
860 2 -5.98289 -13.6056 4.2653 10
861 2 -0.166145 -7.45284 9.36826 16
862 2 -7.80245 8.45067 12.5802 11
863 2 -5.27301 -2.09178 -11.924 16
864 2 -10.2013 3.74237 -3.7726 15
865 2 -9.63918 -3.68418 9.94597 15
866 2 -2.4751 -5.1068 14.0908 12
867 2 -10.0155 3.67285 -7.47419 17
868 2 4.87612 0.593658 8.05627 20
869 2 6.49665 3.41597 -2.18531 20
870 2 -6.59453 -0.6223 -8.36076 20
871 2 10.1742 8.22265 0.485875 12