ITEM: TIMESTEP
5000
ITEM: NUMBER OF ATOMS
2000
ITEM: BOX BOUNDS pp pp pp
-30.0 30.0
-30.0 30.0
-30.0 30.0
ITEM: ATOMS id type x y z Coordination
1 1 -11.6564 5.02085 -10.382 12
2 1 -3.91545 -11.0218 -8.45589 18
3 1 -1.63615 9.79208 13.3741 20
4 1 7.37052 -11.8777 7.22189 16
5 1 -6.10714 9.89232 -1.75933 19
6 1 9.94496 -8.52851 -11.1318 15
7 1 -13.198 0.862232 -6.00284 18
8 1 0.484691 -7.28572 11.3467 17
9 1 -11.4613 3.83909 -13.8367 8
10 1 -13.3508 -9.94029 2.98585 14
11 1 11.4139 4.34941 -11.2955 9
12 1 -4.20956 -15.6095 0.571356 15
13 1 -9.19167 -4.49943 4.87939 23
14 1 3.99339 2.90652 18.8215 12
15 1 -1.03083 1.07726 9.57072 21
16 1 -1.20496 9.92929 -8.64004 23
17 1 7.76419 -4.66893 11.6093 19
18 1 -11.3675 -1.63952 -11.0874 15
19 1 -14.9979 -5.47162 11.9984 8
20 1 14.7132 3.79627 8.81097 12
21 1 -2.94307 12.3059 -12.4132 15
22 1 6.09674 6.63816 -10.1326 21
23 1 14.4096 1.20604 12.3413 17
24 1 -11.4581 3.8702 -5.31453 16
25 1 -11.1479 8.52051 8.7728 10
26 1 10.7258 -12.2552 5.87344 9
27 1 3.58789 -13.8868 -9.01272 15
28 1 12.7202 -11.7409 0.140679 12
29 1 -4.92235 -15.6328 -5.51064 13
30 1 -14.8689 -6.34588 8.7543 16
31 1 3.74384 -9.29126 -16.1725 8
32 1 9.05019 -8.95483 -14.8728 10
33 1 -5.1896 4.14842 -14.8941 17
34 1 -0.192109 3.20977 15.0152 20
35 1 -0.755252 -10.3001 9.67858 19
36 1 2.9712 -4.73734 15.0564 14
37 1 -8.46385 -1.48213 -0.520817 22
38 1 -14.3064 -2.01861 7.94465 11
39 1 -9.47866 1.33107 -1.85635 19
40 1 -2.68556 11.7223 -2.026 20
41 1 0.419928 -15.5182 -10.8262 11
42 1 4.77672 0.35899 -10.6004 18
43 1 3.13592 -8.76576 -9.68972 21
44 1 -2.569 -3.04106 16.439 11
45 1 -9.36658 9.6288 -0.50872 18
46 1 1.18307 8.57838 -12.121 17
47 1 2.81627 14.9182 7.19577 14
48 1 -8.65504 9.0636 -6.77098 18
49 1 0.0837553 12.1573 -0.278005 23
50 1 -2.02558 -17.4126 6.06856 13
51 1 9.06694 -15.075 -5.78044 10
52 1 5.10147 -6.29421 -17.1027 12
53 1 -5.06092 7.61597 9.34886 24
54 1 -13.3685 -3.91297 -9.37703 14
55 1 -9.21691 8.78959 -3.57704 19
56 1 -9.87099 -9.99114 8.09257 20
57 1 -5.06158 14.0433 9.56723 12
58 1 -13.0352 1.40003 -3.20037 19
59 1 -9.83248 6.17694 10.8547 17
60 1 -6.85146 -15.0869 6.59109 20
61 1 2.65604 3.39419 9.36721 20
62 1 3.10602 -12.6267 -0.146133 18
63 1 6.41707 6.44466 15.7116 15
64 1 -16.2562 -2.89971 -9.42759 7
65 1 -16.7933 5.35867 -3.30481 8
66 1 5.87546 5.76519 12.6965 16
67 1 9.39522 -5.54871 -7.48586 17
68 1 11.7346 -10.2841 3.08646 18
69 1 -17.1233 -3.23123 0.0575977 13
70 1 4.56734 16.1983 5.05702 13
71 1 7.73767 0.297162 14.6361 22
72 1 -7.74985 -12.2814 7.66912 20
73 1 -11.0879 -2.67128 -6.07562 17
74 1 11.9395 3.01799 7.32121 19
75 1 4.40298 13.3497 8.87975 12
76 1 5.30394 -1.52244 7.84698 21
77 1 0.0679473 -7.55998 -5.30302 23
78 1 -13.51 7.1652 8.05329 10
79 1 -5.66671 12.5855 0.0708653 17
80 1 -3.4428 7.06668 -8.82606 20
81 1 8.4697 -1.41322 -4.00403 21
82 1 9.24357 13.0706 -8.21161 15
83 1 8.94136 -8.3091 2.38006 16
84 1 3.35386 -8.16693 11.2655 13
85 1 -6.45857 15.3563 -4.54245 11
86 1 -10.4572 11.4588 4.32191 12
87 1 -10.1661 -6.01569 16.773 10
88 1 -0.624528 6.69966 5.94092 20
89 1 -5.26784 -7.27736 8.36549 24
90 1 12.6267 -10.4328 -5.75153 12
91 1 -8.91523 3.47173 9.24459 19
92 1 -4.38059 -17.2424 4.20228 15
93 1 11.7262 -7.42322 -4.76178 19
94 1 5.86927 -1.49227 -12.2029 22
95 1 -9.18197 -6.85262 -12.3765 16
96 1 0.285901 11.6569 2.77155 21
97 1 -14.9934 5.56543 -9.60165 9
98 1 0.409717 7.27021 17.4726 14
99 1 -0.835833 15.4831 -5.976 17
100 1 -11.4341 9.99344 -2.33207 13
101 1 3.18219 11.6815 0.95118 22
102 1 -7.41266 -10.5885 12.1294 18
103 1 14.0912 -2.37504 9.51864 20
104 1 0.0400351 -7.81714 -8.77544 20
105 1 9.27579 -9.54134 -5.41335 19
106 1 -0.496721 0.766348 12.8264 16
107 1 5.20076 -4.49746 17.216 12
108 1 -9.16234 -4.04477 1.45049 19
109 1 -9.09753 -8.03697 -3.88383 17
110 1 13.1723 -9.83822 5.47629 9
111 1 -6.41858 6.87505 3.23028 21
112 1 7.18026 2.54299 -14.3905 12
113 1 7.96328 13.2813 -4.85202 21
114 1 -10.0635 -15.6878 8.58195 12
115 1 -13.1136 -11.219 6.1902 12
116 1 4.48059 -8.08365 -12.7908 17
117 1 4.19662 6.56303 -7.37422 19
118 1 13.8898 -9.70421 1.61924 12
119 1 -0.69895 -13.1386 7.55292 18
120 1 -9.60922 -9.63805 2.26082 19
121 1 16.2134 7.75984 13.2349 9
122 1 11.8216 -4.3849 -6.40825 19
123 1 -12.3975 -3.70527 2.93685 21
124 1 8.14139 6.63063 7.91593 18
125 1 11.4454 13.2275 8.46277 14
126 1 -6.54123 -0.0456475 16.5818 13
127 1 -4.83118 7.90859 12.7573 22
128 1 -1.18845 12.5614 -7.30795 20
129 1 -1.11368 -7.09726 -12.0636 18
130 1 11.1922 -10.1775 -8.89411 13
131 1 -0.0654985 13.5523 -13.1199 11
132 1 7.97558 -6.65232 14.158 11
133 1 -5.87269 -4.13466 -13.7826 18
134 1 -0.739348 6.87631 -7.10273 21
135 1 10.4479 0.993439 -3.76117 19
136 1 -13.8309 9.45934 -5.01433 11
137 1 -8.16683 11.5636 -4.10096 19
138 1 7.70905 -0.0194855 -9.30929 21
139 1 9.06998 -8.24194 5.14802 14
140 1 -3.65599 8.76388 -4.1063 20
141 1 -6.48488 10.8547 8.07579 19
142 1 14.6025 4.07422 -3.7481 13
143 1 6.4328 11.488 -0.523274 23
144 1 -5.52295 15.9747 0.79273 13
145 1 13.8304 10.1468 3.78128 13
146 1 -0.8608 9.36214 -2.02825 21
147 1 3.09257 13.6777 -11.0889 13
148 1 1.63645 10.8776 -16.3619 7
149 1 -11.0184 -11.9804 3.05035 15
150 1 -11.5348 4.32711 -2.19704 19
151 1 -3.8924 -5.3948 -11.866 17
152 1 6.77825 -9.20237 -15.2426 10
153 1 9.27932 15.2121 8.46778 11
154 1 0.00719619 15.8909 7.79387 11
155 1 -16.713 -3.13925 -5.87564 12
156 1 -11.2599 12.5111 1.00543 7
157 1 16.636 1.37452 3.19023 10
158 1 -13.7937 0.0719652 -9.23365 13
159 1 6.58215 -1.61597 17.4843 18
160 1 1.61869 17.8891 -1.20903 12
161 1 -0.151861 9.94162 7.71452 20
162 1 1.00549 -7.4697 -14.4724 16
163 1 -2.11129 14.8045 9.3417 12
164 1 -0.814939 9.92407 -5.50082 19
165 1 0.320551 -3.02387 15.1007 14
166 1 -11.0504 -1.88875 4.7135 19
167 1 -2.10305 -13.9262 -11.7076 13
168 1 -9.38342 11.7583 -7.36677 15
169 1 -2.12983 -8.14739 6.5516 23
170 1 4.05387 -17.0699 -3.22346 10
171 1 -2.59827 8.79974 -11.0408 18
172 1 -12.4348 0.709564 7.11503 16
173 1 10.2298 8.27136 -5.80602 21
174 1 -7.24772 3.21918 16.8299 12
175 1 -2.52446 -7.8071 10.1626 18
176 1 -8.62823 4.08818 -0.389305 22
177 1 0.0092374 15.6312 0.367722 18
178 1 -0.0259565 4.0298 11.1685 25
179 1 15.5454 2.31528 17.3162 10
180 1 -8.34125 13.027 5.57692 14
181 1 12.7077 -5.54027 -9.0492 14
182 1 -6.5131 13.2066 12.4619 8
183 1 -3.74795 5.96315 -11.7467 19
184 1 13.061 -7.4478 4.13581 15
185 1 -6.46772 -4.75351 6.60176 20
186 1 -10.1738 3.39289 6.30162 16
187 1 -8.50098 -10.5396 5.19902 21
188 1 10.1155 4.52967 14.6645 20
189 1 -14.6313 -2.03039 1.31831 20
190 1 -2.46002 -13.7957 0.229157 20
191 1 5.59913 -7.09652 -1.6259 22
192 1 -3.70282 8.79803 2.82198 22
193 1 2.51172 12.3401 15.0935 11
194 1 -8.57803 -1.79976 -3.87806 19
195 1 -6.47898 12.7884 -6.56005 19
196 1 -13.9336 -2.53382 -1.38601 17
197 1 -11.7347 -4.60564 10.2106 19
198 1 1.32983 -12.8248 4.62214 19
199 1 3.87554 -11.487 7.62182 19
200 1 -12.3456 7.48238 2.29765 14
201 1 15.2037 3.64361 5.62591 13
202 1 7.82635 5.25007 -2.20417 20
203 1 -7.17955 -9.83694 -12.8865 12
204 1 7.8619 0.82548 11.0325 19
205 1 8.21859 -14.1103 5.26978 13
206 1 -4.29152 9.76717 -14.3899 14
207 1 4.02038 -12.1869 -6.39654 20
208 1 8.85104 0.12849 -12.478 16
209 1 -1.212 8.81225 -15.6925 8
210 1 -7.19303 -4.29234 -7.17356 19
211 1 -3.88507 14.8959 -7.02321 14
212 1 -5.68254 -7.77242 12.503 20
213 1 8.03691 15.9716 -3.97813 15
214 1 -8.69551 -2.89455 16.6177 11
215 1 -3.25377 11.6896 -5.27435 19
216 1 10.4073 -0.293525 8.4182 18
217 1 -3.24947 -8.25735 -9.99806 21
218 1 -3.99001 9.54797 -7.4174 20
219 1 2.43908 5.43885 -9.66443 21
220 1 -2.96624 -13.5263 9.87135 15
221 1 -2.19306 8.65666 9.75776 20
222 1 -7.20715 8.65765 11.2034 16
223 1 -2.44921 -13.6181 -7.00606 16
224 1 -5.39772 -13.3773 -1.47336 18
225 1 6.98535 -13.2145 -0.51752 17
226 1 9.33289 4.30601 17.545 14
227 1 9.11083 11.8255 -11.4529 9
228 1 1.98557 9.08188 -3.89969 21
229 1 -9.25216 0.723447 4.53967 19
230 1 -11.7693 7.77316 -0.596312 15
231 1 3.18781 5.7238 10.9529 17
232 1 5.05875 -18.2244 6.69071 7
233 1 10.4829 -0.129263 -0.494072 22
234 1 1.98736 8.63302 5.61212 22
235 1 -7.97111 7.6264 8.17831 18
236 1 -11.6951 -9.48444 -2.60722 16
237 1 8.37195 5.61497 -12.2469 17
238 1 1.55332 0.617716 11.2341 20
239 1 4.48747 9.32191 -14.9819 11
240 1 1.86177 -10.5496 -1.56444 21
241 1 -3.05251 0.176022 -12.1756 17
242 1 -0.980447 -15.159 9.9915 10
243 1 7.71549 0.78947 -5.69497 21
244 1 -7.95304 -1.56433 6.16501 19
245 1 4.96327 -15.5245 0.276372 13
246 1 -10.2106 -3.24823 -8.60907 20
247 1 5.79282 14.5172 0.00495346 21
248 1 1.74082 -3.13127 -13.574 18
249 1 6.81156 3.32116 16.0133 20
250 1 11.3254 3.84476 4.41506 20
251 1 10.8694 -7.45047 -7.87374 19
252 1 -5.61378 -1.71652 -8.606 21
253 1 -11.1179 -7.25036 -9.28884 15
254 1 -10.1304 -16.0613 2.0082 8
255 1 12.419 2.3643 10.7096 16
256 1 2.77311 -2.05668 9.67692 19
257 1 -7.76524 -6.8758 -9.02962 22
258 1 4.64922 8.43185 -12.0428 18
259 1 4.79533 9.13487 0.726647 22
260 1 -5.66452 -9.41479 3.08204 19
261 1 2.58614 14.0654 -0.841969 23
262 1 -5.59827 -2.94864 12.0349 19
263 1 -9.10035 -8.91866 -10.8436 15
264 1 -6.48598 -6.95938 -11.307 22
265 1 -6.24276 12.7067 -14.1599 7
266 1 -9.12344 -11.1606 -5.03245 19
267 1 -3.73121 -11.2026 1.75053 21
268 1 7.95971 -3.49529 -14.0073 14
269 1 11.6934 -2.49142 -8.62044 16
270 1 11.2205 3.04349 1.00541 24
271 1 -7.30376 -4.86198 12.1507 17
272 1 -6.35161 -9.82933 -0.256854 18
273 1 8.5755 -3.22483 19.2176 8
274 1 -3.6614 -14.777 6.85519 15
275 1 0.0668366 -13.3738 1.5514 19
276 1 0.280989 12.294 -3.45913 18
277 1 6.47373 2.36636 -11.465 19
278 1 -5.77341 -1.84792 -11.6589 18
279 1 -11.3904 -10.3477 11.5955 11
280 1 6.21404 5.36125 18.919 13
281 1 2.26703 -10.6911 1.54159 22
282 1 -4.00499 -11.2704 -11.7852 16
283 1 -8.92851 6.04337 -5.25041 18
284 1 12.9474 8.73768 8.04721 16
285 1 -1.27081 7.16351 -13.0203 14
286 1 -0.256702 6.98915 -10.1519 22
287 1 11.4148 -10.4388 -12.6999 6
288 1 -2.66873 14.2981 0.0474696 21
289 1 5.64371 10.9287 9.71323 18
290 1 13.5455 1.27935 3.35142 20
291 1 -9.08174 0.749279 8.32172 18
292 1 -0.722214 -4.61336 12.6552 18
293 1 -2.93982 8.70658 6.98814 17
294 1 2.44826 -6.00698 -11.9917 18
295 1 10.3217 11.4849 -5.44994 16
296 1 3.0351 -10.968 4.2485 19
297 1 -0.653733 -0.0262077 16.3503 12
298 1 -16.1995 -3.3381 3.48619 13
299 1 2.54206 -16.1418 -7.60638 12
300 1 -7.67226 7.03768 13.3657 16
301 1 -10.1516 4.86695 14.9315 9
302 1 -12.3577 -4.71134 6.39427 21
303 1 -13.5301 -7.95356 6.04 16
304 1 13.8809 -3.31345 -0.725524 16
305 1 -11.2559 -12.6711 8.84252 13
306 1 7.3856 -7.76147 -7.78101 21
307 1 8.83681 -6.94226 -0.792055 24
308 1 4.96861 15.3405 -5.41103 16
309 1 -6.23247 9.99092 -5.02018 22
310 1 12.1604 4.16119 16.6002 14
311 1 -8.31211 -1.64766 2.5614 19
312 1 10.5854 -12.2608 -5.24207 14
313 1 -6.27003 10.9013 3.89001 19
314 1 -5.59708 7.9271 6.10993 17
315 1 0.796146 -10.2041 12.4915 10
316 1 16.1914 -3.83076 10.2582 10
317 1 0.507496 6.97866 9.55663 22
318 1 -6.44186 -4.21689 -3.72538 20
319 1 -3.37329 0.0164993 14.9914 18
320 1 -1.11375 13.5723 6.68899 20
321 1 7.12006 -0.427085 21.1628 7
322 1 -9.35951 14.0337 -4.70963 12
323 1 -6.00495 -7.45108 -15.4478 9
324 1 7.47448 -11.4981 -12.8742 9
325 1 -11.5215 -1.29876 15.9039 12
326 1 -14.7031 5.54072 2.97799 11
327 1 -4.35816 -5.38841 -8.84608 24
328 1 -3.55166 8.97046 -0.329467 24
329 1 8.7905 -2.06413 6.11691 23
330 1 -8.09041 -14.6834 -0.384747 14
331 1 6.01908 -9.84742 9.5872 12
332 1 -8.841 -13.1582 10.3236 16
333 1 -11.2569 4.00265 2.1238 18
334 1 -0.538672 -4.83718 9.55734 21
335 1 4.97449 -12.3845 -2.87963 19
336 1 -3.8799 0.39456 -8.94248 24
337 1 7.23535 -0.0701019 -15.3534 14
338 1 0.922368 15.9739 4.63247 13
339 1 -10.2711 0.657765 -4.59659 22
340 1 1.71478 -9.99088 -12.524 16
341 1 10.8903 7.31238 -10.9029 13
342 1 -6.50651 -10.3704 -9.91387 22
343 1 -12.9457 -4.78642 -3.73877 16
344 1 -5.59401 -7.17625 1.44098 19
345 1 12.7914 1.23492 17.769 13
346 1 13.1053 0.974461 -2.89132 19
347 1 -14.9251 8.67037 -8.46419 9
348 1 5.24973 17.7972 -0.290735 11
349 1 -14.53 -1.55312 -4.37088 17
350 1 -8.33565 11.6497 1.79697 16
351 1 -6.46993 9.11014 1.39077 20
352 1 -2.28127 5.58344 8.31537 20
353 1 10.0769 1.59905 16.6871 20
354 1 7.42718 -4.59942 -5.59682 22
355 1 8.37278 -3.38456 15.6128 16
356 1 10.4248 0.545491 -7.66209 19
357 1 -6.01416 -16.0537 -2.79106 15
358 1 2.82381 -7.22465 -3.48593 19
359 1 1.78251 8.22238 2.50487 24
360 1 -8.57329 2.96076 -9.92105 19
361 1 5.13115 -10.1209 0.242799 20
362 1 10.4061 0.597812 5.63901 21
363 1 -9.68256 -4.77444 -5.00699 18
364 1 -5.6536 -9.78614 6.49034 19
365 1 -11.4818 -8.27751 14.1663 11
366 1 -0.922156 9.21015 1.33652 23
367 1 -11.6331 -12.6563 -3.02601 10
368 1 3.41781 6.45531 18.842 16
369 1 -6.54612 6.63125 -3.49705 23
370 1 0.874498 14.8263 -8.65264 15
371 1 9.12354 12.3651 10.4381 12
372 1 -14.174 -7.6551 -2.83262 12
373 1 -3.61013 -11.5727 -5.00317 18
374 1 -14.2015 2.68438 4.87548 12
375 1 -13.9086 7.67869 -2.54596 14
376 1 4.6852 -7.09902 8.5085 20
377 1 -3.29006 -14.0006 -3.50544 18
378 1 11.6508 13.3564 3.4096 14
379 1 3.79696 5.78085 -15.1775 11
380 1 -15.3349 6.38432 -5.83957 11
381 1 -2.00495 13.3525 -9.76753 15
382 1 -5.49547 4.45181 -9.18297 22
383 1 -6.00818 -12.3965 9.55265 18
384 1 13.6843 5.70875 6.4725 17
385 1 2.00799 6.00752 -12.3278 19
386 1 -3.62154 -0.121304 11.4334 22
387 1 -15.2744 1.11486 -0.163445 12
388 1 -5.38987 4.41406 8.21925 21
389 1 -6.16346 -14.9405 2.98984 17
390 1 4.87237 -11.0269 -10.2609 20
391 1 -13.5033 5.19849 10.4817 7
392 1 -13.3481 -1.82406 11.21 11
393 1 -12.9499 3.79304 7.74142 14
394 1 0.392606 -7.58007 8.1367 20
395 1 -11.0973 1.75517 -11.2704 15
396 1 8.37283 -10.1753 -8.55684 20
397 1 -1.10287 -10.1105 -10.709 19
398 1 -3.51468 -5.34086 7.81738 20
399 1 -5.58834 1.00241 -16.7982 11
400 1 6.57417 -10.1695 3.3925 18
401 1 1.76052 8.69869 -7.47399 16
402 1 -11.6556 8.45481 5.51726 15
403 1 -4.71276 -6.48004 15.1135 9
404 1 -14.1941 -7.91059 -7.49571 6
405 1 -9.0899 -6.90193 10.4242 17
406 1 11.1695 -3.74949 10.3639 17
407 1 1.85043 0.256634 -8.89178 21
408 1 10.3215 -4.45177 5.5895 19
409 1 14.7369 7.52968 -5.08319 10
410 1 -6.07556 0.726656 13.6064 17
411 1 3.21981 11.7646 -2.3073 18
412 1 13.5201 -4.95413 7.90037 14
413 1 -0.731543 -15.5643 -0.971422 15
414 1 -6.93326 5.92438 15.6932 13
415 1 -2.86638 11.6617 4.72217 18
416 1 -8.88068 -8.96419 -7.09186 20
417 1 11.4246 15.1333 0.296058 11
418 1 2.40443 5.55854 7.69645 21
419 1 -2.65671 2.911 9.84593 21
420 1 -5.97112 -7.34129 -2.12313 19
421 1 -6.93167 5.42465 10.6115 21
422 1 -6.96737 -6.85336 -5.58979 20
423 1 -3.11605 12.2319 8.38901 18
424 1 -6.29985 -13.3078 -4.63083 21
425 1 -3.9418 -8.6469 -13.4337 16
426 1 -5.8185 -12.5827 4.68812 20
427 1 7.43346 1.02085 7.92119 25
428 1 -5.52175 -10.8535 13.9535 13
429 1 -12.1698 7.87108 -9.87025 12
430 1 7.43286 5.85521 1.08713 22
431 1 -8.4442 -14.5786 -6.50922 11
432 1 -2.97566 17.5421 0.74394 11
433 1 0.269407 2.87274 -8.11549 18
434 1 -4.45219 10.5536 11.4349 20
435 1 -17.2934 -2.03949 -2.72918 11
436 1 2.09607 16.7709 -5.78738 10
437 1 4.80233 12.3462 -6.32617 20
438 1 -2.50714 -7.54616 -6.75276 18
439 1 1.91183 1.60167 14.7302 16
440 1 5.46043 -15.5444 -6.10151 14
441 1 -1.72149 -3.67625 -14.5015 14
442 1 10.9347 -13.545 2.80824 10
443 1 -9.35531 8.71622 3.05983 18
444 1 3.47071 4.58222 15.9413 15
445 1 10.3844 5.48294 0.0421603 21
446 1 1.79516 9.12318 -0.719632 22
447 1 -9.58785 9.17507 -9.79658 15
448 1 2.91383 3.44009 -7.03312 18
449 1 2.9535 -7.89058 6.1761 20
450 1 -16.1618 -4.69735 -2.54689 15
451 1 8.26695 11.4319 4.70424 19
452 1 -6.34892 4.20541 -12.3271 20
453 1 13.1678 6.16701 1.05283 16
454 1 9.98568 15.034 -5.98922 11
455 1 9.86293 -13.8028 0.150827 12
456 1 14.3221 4.15434 2.8199 14
457 1 -0.490153 1.11414 -13.8228 19
458 1 -0.284134 -10.2472 3.16815 21
459 1 2.14101 -14.5742 7.75726 13
460 1 1.97983 -9.52681 9.58792 16
461 1 -8.48642 3.1895 -6.90185 22
462 1 -10.3929 -13.2407 6.37013 19
463 1 -0.8087 -13.4012 -9.42133 17
464 1 7.81622 14.8455 5.18687 14
465 1 0.561179 3.46969 -11.8005 20
466 1 6.21174 -2.37912 14.5945 20
467 1 -12.4248 0.974404 13.3798 15
468 1 -0.720395 -18.822 3.87305 11
469 1 -11.1896 -0.742927 -1.94978 18
470 1 14.8244 -4.2403 -7.48518 9
471 1 10.0165 -3.92744 -3.66355 22
472 1 -3.67102 5.94924 -5.17739 20
473 1 3.82916 -7.26676 -6.50842 25
474 1 3.23661 2.66177 -11.1905 20
475 1 7.03016 -5.32769 -9.09646 21
476 1 -7.31362 -5.25173 14.5824 17
477 1 2.73215 17.0434 1.69462 15
478 1 -9.49073 -3.06776 -12.859 16
479 1 4.52659 2.64173 -16.3964 10
480 1 -8.11018 -8.157 13.811 15
481 1 -1.35877 14.0183 2.71928 15
482 1 -6.39743 1.37454 -10.7426 21
483 1 -12.4486 0.408161 3.14683 20
484 1 0.644942 -12.4729 -13.1817 11
485 1 -6.55197 -13.9547 12.7772 10
486 1 5.81187 9.89233 -8.89493 16
487 1 16.4215 4.38008 14.4824 11
488 1 13.538 6.81011 -2.25347 16
489 1 -11.2205 -14.1969 -0.172749 10
490 1 -0.930207 -11.0731 -0.0682352 19
491 1 -5.26515 -4.3487 -16.6413 11
492 1 -8.18474 9.79341 5.81084 19
493 1 2.42455 -5.20801 -8.30172 22
494 1 10.477 -4.81106 3.06893 19
495 1 7.08956 15.5842 -7.57021 13
496 1 5.8183 -7.51522 4.8606 18
497 1 11.3617 3.54647 -8.40635 17
498 1 0.703043 10.0509 15.0468 17
499 1 -5.58442 3.14446 11.4908 18
500 1 3.21766 8.59714 15.4195 18
501 1 5.37564 -7.34789 15.3455 7
502 1 -3.08829 1.24025 -16.0679 15
503 1 -5.41175 -8.50162 -8.00035 17
504 1 5.01088 -5.08707 12.4689 18
505 1 8.07095 9.88043 11.5355 16
506 1 3.3528 10.0764 -10.1946 16
507 1 -5.85411 7.16641 -6.81538 20
508 1 1.44342 12.7999 -5.74325 17
509 1 10.4294 -4.13973 13.6041 17
510 1 11.9779 0.959313 -10.3249 12
511 1 14.3866 -7.81544 -4.34212 10
512 1 11.2696 5.69897 9.28843 19
513 1 -12.7788 -8.4247 0.568648 18
514 1 -6.66176 10.0901 -8.47967 19
515 1 -0.00450855 -2.00239 11.272 20
516 1 -10.9131 -2.54552 11.922 15
517 1 -4.25158 12.4342 -8.72921 19
518 1 2.35675 -13.5855 -4.0113 17
519 1 4.81243 -4.41964 -6.71497 23
520 1 -1.98902 14.4068 -3.6075 20
521 1 -8.68904 -5.03611 -14.9385 10
522 1 4.96743 -12.6827 4.92681 17
523 1 -14.7102 -5.40376 1.50849 16
524 1 -1.19552 11.5282 -15.5793 8
525 1 -1.26145 12.7505 15.2131 11
526 1 -8.18877 -7.56569 7.2207 21
527 1 10.3753 7.20581 -2.84099 21
528 1 2.19755 -10.1494 -6.89685 22
529 1 -1.11117 -6.24033 14.9907 9
530 1 -9.34109 6.4656 1.44355 19
531 1 7.40506 2.2716 18.959 14
532 1 5.43413 13.7657 -2.84051 20
533 1 14.1116 -4.53052 -3.99507 15
534 1 2.00214 8.58176 12.4523 21
535 1 -0.178418 1.88717 -16.6513 14
536 1 -6.95897 -15.5958 9.92882 15
537 1 -0.580056 1.22501 -10.4748 19
538 1 4.86875 -2.38338 -15.162 18
539 1 12.5696 15.4171 6.69888 8
540 1 9.07074 5.56025 -8.89996 22
541 1 -0.171162 -1.646 -15.5434 19
542 1 -3.80848 -11.0712 -1.71665 22
543 1 -8.33065 -1.29912 -10.4632 19
544 1 10.4907 0.17462 2.31703 19
545 1 11.3989 3.86693 -2.5633 21
546 1 10.0537 -4.98086 -10.3904 15
547 1 13.9195 6.31487 14.6132 15
548 1 4.17766 -9.76085 -3.80501 25
549 1 0.437966 5.26028 -15.3926 13
550 1 5.17466 12.9605 5.63544 18
551 1 -8.50448 3.62768 3.16662 17
552 1 11.1421 7.28589 15.8658 11
553 1 9.6525 5.57841 -5.43537 20
554 1 13.2032 -4.64536 5.36263 17
555 1 8.20877 3.32046 -7.24201 18
556 1 10.8148 -1.44679 15.0822 18
557 1 16.8533 1.63623 13.9946 11
558 1 4.85886 -4.64456 9.88607 19
559 1 11.4503 12.8637 -2.67599 13
560 1 3.2101 -1.3958 16.2124 14
561 1 14.6807 -1.83644 -3.78074 12
562 1 9.498 4.65753 11.5059 20
563 1 -6.24632 1.56516 -7.32578 22
564 1 10.2124 6.60441 3.16555 17
565 1 14.8713 -4.91841 2.50702 10
566 1 -13.5095 1.36459 16.0758 7
567 1 8.61506 6.98949 13.3692 14
568 1 13.3618 -2.82586 14.6673 13
569 1 4.10553 10.6574 6.76871 19
570 1 0.918522 12.9449 9.10771 18
571 1 5.92348 3.7568 7.80331 19
572 1 0.940592 -19.6889 5.89755 9
573 1 -2.39151 11.5515 1.48879 20
574 1 11.7724 7.10745 -8.2951 16
575 1 10.8591 -1.74442 -11.5223 11
576 1 4.36238 16.6755 -2.93824 14
577 1 0.322477 -18.1722 -6.55136 7
578 1 7.58057 -5.99161 -12.4805 16
579 1 -11.9963 0.662221 10.6422 15
580 1 -6.37837 7.45652 -10.2217 18
581 1 -1.97868 -16.9025 2.03653 14
582 1 -2.78924 -2.86969 -10.29 19
583 1 -16.3097 0.573951 -5.16291 8
584 1 11.4139 -8.53323 0.227055 19
585 1 9.65784 10.429 -0.278563 17
586 1 -0.00841178 -10.1737 6.1498 20
587 1 -12.8145 3.25095 -8.1767 15
588 1 2.45492 -0.0729405 -15.4211 19
589 1 -0.490328 7.14563 12.6621 19
590 1 2.77391 11.3622 -13.0595 15
591 1 15.7456 -1.36714 12.8933 17
592 1 5.82265 3.36184 -5.38328 19
593 1 12.6866 11.5946 1.10501 11
594 1 6.80112 -15.0997 -3.42648 14
595 1 -11.7579 -5.45253 13.3514 12
596 1 11.4101 -2.80734 7.17967 19
597 1 0.617977 13.143 13.0617 13
598 1 6.49323 13.7138 -10.3941 11
599 1 -9.41705 6.40187 -1.71388 20
600 1 9.6096 9.83548 8.27489 23
601 1 -8.81472 -12.7469 3.86151 17
602 1 13.2864 0.334399 -0.0469951 18
603 1 8.58216 13.5057 -1.38198 22
604 1 -2.93616 2.96325 13.0233 19
605 1 -8.82821 -8.66999 -0.540683 17
606 1 -8.51804 -0.68947 -7.28592 20
607 1 10.1875 1.61427 13.0352 22
608 1 -2.4687 -7.86485 13.107 17
609 1 12.4467 4.66159 12.5547 18
610 1 -5.67177 13.4795 3.25289 17
611 1 8.41867 3.21458 2.93052 21
612 1 8.23515 2.97091 6.03193 21
613 1 -2.28992 -3.18939 -18.0155 9
614 1 -6.20437 -4.40647 9.55331 20
615 1 5.38694 -2.80163 -9.14628 22
616 1 10.9864 -9.61411 -2.428 23
617 1 8.56681 3.87838 9.20512 20
618 1 -2.77747 -2.79039 13.3682 19
619 1 10.9683 7.32755 12.4731 21
620 1 2.4309 -2.18464 13.0786 16
621 1 -4.49903 8.18953 15.8684 14
622 1 -0.0941324 -4.77791 -10.2469 18
623 1 -9.65401 1.7221 14.9203 15
624 1 7.56557 3.04104 12.8223 18
625 1 -10.7651 -15.4262 4.86941 10
626 1 11.6334 8.09696 0.311679 17
627 1 5.20031 -12.9663 1.83278 18
628 1 7.33777 8.09429 -1.17963 20
629 1 11.7961 11.2456 5.98701 17
630 1 2.58679 -2.81473 -17.7995 9
631 1 1.13621 15.225 -3.28557 18
632 1 7.48447 9.50169 2.36138 18
633 1 -8.35302 -11.4845 -1.59929 18
634 1 -3.91641 -1.89464 -15.9567 14
635 1 -9.86986 12.9485 -1.71329 13
636 1 6.58267 -8.89314 -10.7127 21
637 1 10.8227 10.3482 -8.92734 11
638 1 11.0629 16.0567 -2.82025 9
639 1 -6.02976 6.71428 -0.201359 22
640 1 4.48172 6.18352 -4.23104 21
641 1 14.9518 -0.360303 15.3533 14
642 1 11.7688 -1.79043 17.8469 11
643 1 -2.12105 -10.5672 14.3505 7
644 1 -7.60453 9.55309 -15.0672 9
645 1 4.04416 10.5644 11.9684 16
646 1 8.1342 -5.78496 -15.8315 10
647 1 4.41099 0.742713 9.47744 19
648 1 5.63882 12.4558 2.47709 20
649 1 8.88376 8.73658 5.35454 18
650 1 12.0753 -6.61022 -2.21653 20
651 1 5.18456 0.712045 16.3452 15
652 1 -15.3119 -5.0046 6.22192 13
653 1 2.64774 -17.8273 4.06978 11
654 1 0.421484 -2.23048 -8.74792 20
655 1 -7.25309 14.0946 -1.8655 16
656 1 10.2556 13.7422 5.62142 16
657 1 -13.7757 -2.16163 5.07702 19
658 1 -2.25605 2.14471 17.7918 11
659 1 -2.69317 2.99627 -13.6068 18
660 1 -9.16528 6.29376 -11.7905 19
661 1 2.89153 -14.648 2.76764 18
662 1 7.44463 10.2218 -6.28223 21
663 1 -14.1969 -1.85684 17.272 5
664 1 4.49303 -6.47237 -9.95788 19
665 1 1.47559 -12.6895 9.37819 12
666 1 -1.21564 17.1811 -2.52785 14
667 1 -4.63416 3.68735 16.2468 15
668 1 -7.2596 -4.19659 -10.503 22
669 1 -2.79948 -12.2418 -14.2362 8
670 1 -5.92053 -13.977 -8.07003 13
671 1 0.400969 12.1098 -10.896 20
672 1 7.40321 -9.3391 -2.62715 22
673 1 1.71404 11.5376 6.17346 18
674 1 10.1191 -15.6705 -2.85172 5
675 1 6.07204 -16.7711 4.67784 9
676 1 11.5528 -6.9719 6.49572 14
677 1 11.9986 -1.1469 -5.22246 17
678 1 0.634165 -13.1988 -6.62325 20
679 1 -11.3725 -1.6272 8.42896 18
680 1 -2.35044 -16.7275 -4.09806 11
681 1 -6.02132 -9.85632 -3.79817 17
682 1 -9.22332 0.504377 12.2662 19
683 1 -9.12857 -14.3107 -3.18463 15
684 1 12.1094 2.4208 -5.36274 17
685 1 -6.21551 16.219 4.69133 8
686 1 -12.2742 5.34317 4.77914 17
687 1 11.9428 -1.44275 4.4906 20
688 1 -10.6443 -4.84035 -11.0679 13
689 1 1.92185 6.41433 -5.39885 23
690 1 5.79595 4.11331 -8.75642 21
691 1 5.48761 8.64137 13.0678 14
692 1 13.7725 3.56192 -0.582988 20
693 1 -13.8181 -2.07328 -7.25345 17
694 1 -12.4051 -5.27004 -7.17956 16
695 1 -1.74484 8.99655 16.1091 14
696 1 5.15598 4.85873 -12.2008 20
697 1 6.43473 9.35376 7.68143 19
698 1 -3.05249 -2.91266 9.90448 23
699 1 2.54046 -15.8429 -1.19199 13
700 1 -7.90229 -18.126 8.03303 9
701 1 -3.74444 -5.50644 11.2169 20
702 1 12.9041 9.55785 14.1418 9
703 1 1.9375 -11.4831 -9.38933 21
704 1 -5.24159 12.8152 -3.48238 19
705 1 5.12556 9.47716 4.14243 23
706 1 -9.3748 -4.45768 8.47925 20
707 1 7.66302 8.05786 -12.9219 13
708 1 0.867909 -16.3574 -4.49285 13
709 1 -0.26253 -18.3517 8.29544 7
710 1 1.06161 -16.9702 1.45177 14
711 1 8.61447 8.54721 -9.73607 20
712 1 5.60572 15.9528 2.69094 13
713 1 -5.83233 1.39532 -13.6769 21
714 1 5.10825 0.893377 13.4506 18
715 1 -5.84634 7.30443 -16.5064 9
716 1 -8.97695 0.180456 -13.3324 14
717 1 -11.895 -4.27331 -0.197907 18
718 1 3.98237 14.3439 -8.10917 15
719 1 -2.27608 -6.20529 -14.6021 14
720 1 -8.45823 -6.62408 2.89146 18
721 1 7.13805 7.24165 -6.99293 21
722 1 13.9232 -9.89599 -1.96207 11
723 1 -5.1959 5.43195 13.7491 19
724 1 9.2928 -9.15965 8.12885 10
725 1 12.7576 -5.91813 1.04627 15
726 1 12.4713 -1.05729 12.4078 21
727 1 2.9948 10.8804 3.81762 20
728 1 -12.4782 -4.49401 18.6853 4
729 1 -7.89465 3.34985 13.1695 21
730 1 -4.38526 -16.116 11.0756 7
731 1 10.7952 6.51903 6.38903 16
732 1 5.61735 8.58966 18.1644 9
733 1 -15.6033 0.0957471 3.05725 11
734 1 8.64131 -10.3624 0.234806 19
735 1 -11.248 11.6616 -5.10972 13
736 1 5.35239 -14.3799 7.30789 13
737 1 5.95348 -1.44986 11.454 23
738 1 10.5287 10.3606 2.84929 20
739 1 -3.301 -10.7278 4.88058 17
740 1 -9.48156 -3.86251 -1.73908 18
741 1 3.01593 3.29329 12.5835 20
742 1 -17.409 -6.44414 -0.0308562 6
743 1 -2.29228 6.51275 14.728 22
744 1 2.06534 14.2415 2.7086 18
745 1 -10.3232 -7.57709 5.36327 18
746 1 -5.42659 -17.8533 7.59617 12
747 1 7.42384 -4.61053 8.23411 17
748 1 13.8438 -4.09374 12.0783 13
749 1 5.77789 7.72249 10.0816 20
750 1 5.27568 -9.91255 -7.54493 21
751 1 -7.19201 -1.78415 -15.1604 16
752 1 -5.66803 -2.91816 15.5058 15
753 1 -3.31122 16.1592 3.57955 12
754 1 13.3544 -0.395454 6.96901 18
755 1 4.39346 9.12579 -5.81304 21
756 1 -4.40291 11.3526 14.68 14
757 1 8.92931 7.37416 10.2177 17
758 1 4.66993 -4.72492 -12.8697 16
759 1 -7.20792 -12.0887 1.222 18
760 1 15.4745 -2.49965 7.12237 13
761 1 2.64279 -3.08822 -10.4718 21
762 1 -2.06907 5.58741 17.9388 10
763 1 13.7412 -7.68293 -7.4128 13
764 1 2.58413 3.06753 -14.1285 21
765 1 -2.87256 -8.31491 -3.57754 19
766 1 9.18846 2.64591 -10.0627 20
767 1 15.8518 0.0837835 5.46538 11
768 1 2.31235 -4.38954 11.3388 19
769 1 -0.990613 -10.5649 -7.4689 20
770 1 8.7626 13.3603 1.80835 17
771 1 -7.13462 5.38437 6.83705 21
772 1 8.69813 3.1842 -3.76223 18
773 1 15.154 9.94632 6.4847 9
774 1 0.36996 -5.31528 -16.9978 11
775 1 -4.92488 12.4716 6.40486 17
776 1 15.21 7.27315 9.38598 11
777 1 15.5498 6.62456 -7.89735 6
778 1 4.67776 0.706692 -14.0721 18
779 1 7.18121 -4.66635 -2.2942 24
780 1 -14.4915 3.8809 -1.72227 17
781 1 14.7541 7.2613 4.22729 11
782 1 -11.3856 -11.1753 -0.0251514 18
783 1 -12.3746 10.3272 -8.17012 12
784 1 5.75237 2.93238 10.7888 19
785 1 -10.5446 1.04584 -8.20701 17
786 1 -10.7801 3.12686 11.98 16
787 1 -3.12481 3.06553 -7.13716 21
788 1 10.1127 -12.5541 -7.97406 11
789 1 -11.387 -7.50504 -5.43307 16
790 1 10.6 -4.44963 -0.698115 19
791 1 -16.6096 4.72065 0.27169 8
792 1 -11.1322 -6.93834 -1.96243 17
793 1 11.6948 10.3433 10.8112 13
794 1 -11.871 -6.78355 8.30594 19
795 1 9.25345 -0.436241 18.6385 13
796 1 15.692 -1.63716 3.12992 9
797 1 7.50315 -5.38195 4.91791 19
798 1 -8.9629 1.12605 1.40056 22
799 1 2.60465 8.90982 9.10432 21
800 1 6.15574 10.7329 -12.6366 12
801 1 -1.19818 -9.97037 -13.9326 16
802 1 -3.70498 16.481 6.88784 10
803 1 -13.2952 -9.38724 9.05376 15
804 1 6.75783 8.12044 -4.2714 20
805 1 1.44321 5.50352 13.9536 16
806 1 8.70664 -6.84264 -3.66192 23
807 1 8.02042 -7.20894 10.3057 14
808 1 -5.90759 7.0616 -13.601 17
809 1 6.35761 11.3478 -3.54284 19
810 1 -6.50008 1.39754 9.78698 20
811 1 15.5618 4.47787 11.3811 13
812 1 -0.584303 -1.75624 -12.2113 19
813 1 12.4282 9.82713 -3.27479 13
814 1 -11.7018 1.97189 0.0315106 21
815 1 -4.16479 -9.89051 11.1557 18
816 1 1.55284 11.6031 -8.21495 21
817 1 8.97959 -1.8144 12.713 23
818 1 -0.688004 -12.4006 -2.44435 18
819 1 -4.43164 15.7819 -2.0303 15
820 1 -13.2651 5.39515 0.39033 16
821 1 8.41146 -2.12751 -7.1946 22
822 1 3.75855 -12.7176 -12.3403 11
823 1 -10.5028 6.20281 7.31241 18
824 1 12.628 5.64454 -5.98613 19
825 1 -5.60588 -1.45606 8.28961 21
826 1 6.34784 -2.9474 -17.414 9
827 1 -6.6812 -10.8642 -6.49127 18
828 1 0.542804 -10.467 -4.21993 21
829 1 0.309136 9.97725 11.0057 17
830 1 7.78606 -15.1614 2.16681 11
831 1 -4.92982 10.6718 -11.134 16
832 1 11.8661 -1.87141 -2.23037 21
833 1 7.66314 6.04835 4.73687 20
834 1 2.91464 -20.515 8.21754 5
835 1 2.82911 -5.20357 -15.4912 16
836 1 11.798 -2.49083 1.23736 20
837 1 -3.87771 2.61287 -10.7619 21
838 1 -3.31195 -10.7733 8.23609 17
839 1 9.16571 10.2856 -3.20217 21
840 1 4.74201 0.731383 -7.61919 22
841 1 -8.39811 3.64944 -3.7324 20
842 1 -14.9871 2.49324 13.0524 5
843 1 0.857947 3.66602 18.2847 11
844 1 -7.18727 -9.39447 9.47802 20
845 1 4.65104 6.84544 6.46439 23
846 1 -3.05053 -13.7465 3.05445 20
847 1 3.95816 8.5542 -2.43162 22
848 1 -2.9726 5.66973 11.1807 21
849 1 -8.46652 -2.28402 13.8935 19
850 1 -9.46341 11.8204 7.90684 10
851 1 8.53536 2.62507 -0.368819 23
852 1 -9.35173 -10.7766 14.5045 9
853 1 5.6759 -9.73727 6.51333 18
854 1 13.14 2.3513 14.6684 20
855 1 6.01037 -7.34751 -4.89621 23
856 1 6.8236 -13.0595 -8.04781 15
857 1 -8.76848 3.4583 -13.694 16
858 1 -1.92612 4.26959 -16.7153 10
859 1 7.68203 12.0704 7.44483 19
860 1 -12.414 -7.50873 11.1497 16
861 1 -8.10693 6.0167 -8.45885 17
862 1 -14.0393 3.9265 -4.73162 16
863 1 8.37397 16.1691 -0.42701 13
864 1 -7.92948 -17.0224 4.73016 12
865 1 -1.0049 9.35873 4.29141 22
866 1 14.0811 9.15497 11.6031 12
867 1 -9.01639 -12.106 -8.80164 12
868 1 3.04192 13.5614 11.5802 9
869 1 -8.3539 -1.68484 10.1968 17
870 1 -1.79368 -16.1286 -8.41805 12
871 1 16.2211 -0.280087 9.50398 11
872 1 -0.203712 -15.1823 4.85374 17
873 1 2.46307 10.1326 17.7987 11