ITEM: TIMESTEP
21000
ITEM: NUMBER OF ATOMS
2000
ITEM: BOX BOUNDS pp pp pp
-30.0 30.0
-30.0 30.0
-30.0 30.0
ITEM: ATOMS id type x y z Coordination
1 1 -7.06807 3.59037 -11.038 19
2 1 -0.752462 -5.56323 -11.6116 19
3 1 2.69433 15.5242 11.0858 11
4 1 9.76056 -8.7686 8.60766 10
5 1 -11.4993 7.91462 -0.963998 18
6 1 14.039 -10.0354 -7.41421 13
7 1 -11.3419 7.96828 -4.44031 18
8 1 1.81767 -8.59401 11.8834 15
9 1 -11.7842 -4.29934 -8.45261 16
10 1 -11.804 -10.6337 7.19069 16
11 1 14.0747 1.42273 -13.3184 13
12 1 -3.17618 -9.84386 2.72408 19
13 1 -10.55 -7.47542 3.01909 20
14 1 0.284699 2.83386 18.1306 8
15 1 8.64054 -5.37723 4.00413 25
16 1 0.7764 2.35837 10.5534 20
17 1 -3.20842 10.2623 -11.552 14
18 1 2.81574 0.0289552 10.7178 23
19 1 -3.99703 2.11308 -14.8788 20
20 1 -10.8544 -3.07874 13.0257 14
21 1 14.521 0.940651 9.05379 21
22 1 3.88936 10.0473 -13.6267 15
23 1 4.17858 1.52647 -15.8039 21
24 1 15.3372 4.37277 11.6886 13
25 1 -7.70741 -2.39996 1.67677 21
26 1 -10.2652 8.93159 -9.59445 8
27 1 -1.68806 -1.68265 -8.17741 21
28 1 -8.58073 5.44466 7.01124 18
29 1 9.44985 -12.9808 6.24726 12
30 1 2.95056 -3.33297 9.17954 18
31 1 0.653371 -8.30691 -11.7211 21
32 1 11.5539 -10.9572 -5.36335 18
33 1 -6.26277 -13.6816 -4.14373 16
34 1 -11.9504 -6.10366 12.6992 11
35 1 5.27059 -6.74818 -17.1877 10
36 1 12.521 -8.17832 -11.6991 13
37 1 2.94035 4.63134 -14.8931 22
38 1 -0.00951964 -0.342138 12.2575 19
39 1 1.77063 -13.6007 9.8502 14
40 1 6.46507 -4.92334 12.5986 14
41 1 -13.8743 -1.95523 4.66406 16
42 1 -12.2805 0.780766 8.93264 12
43 1 -5.85705 0.903911 -4.88192 21
44 1 0.641859 12.434 -3.55 20
45 1 -1.51354 -10.3317 -13.6239 16
46 1 0.626247 1.55988 -7.44532 19
47 1 9.45472 -0.700847 -12.9205 22
48 1 0.00196713 -5.74576 12.4846 19
49 1 -11.6487 0.301269 -1.79634 21
50 1 6.78533 9.39231 -10.0514 18
51 1 1.10734 15.3686 6.26413 11
52 1 -5.19823 10.5579 -8.9711 20
53 1 2.49546 11.6345 0.27707 22
54 1 4.85064 -10.9912 3.0695 19
55 1 8.25334 -8.51878 -4.70583 22
56 1 8.93407 -5.65539 -15.4062 15
57 1 -5.88193 5.26883 8.95652 19
58 1 -13.9053 0.420835 -7.36762 13
59 1 10.3004 1.97359 8.36391 18
60 1 -5.33883 6.27111 -4.29505 21
61 1 -6.32654 -10.3371 4.65829 19
62 1 0.672098 9.57228 10.0165 19
63 1 -10.4478 8.32181 -6.94892 14
64 1 -2.20592 13.976 13.5395 11
65 1 3.72873 5.91142 -5.87152 20
66 1 -2.43068 -16.2638 9.33353 13
67 1 2.86908 5.61409 7.61621 20
68 1 6.23909 -16.6944 -4.53142 13
69 1 3.41958 12.7593 12.8257 16
70 1 -13.0299 2.95691 -9.96249 11
71 1 -8.14013 7.88769 -12.2733 12
72 1 7.67833 3.4894 9.73799 20
73 1 11.9197 -1.07922 -10.4403 25
74 1 9.38123 -10.5714 0.181573 18
75 1 -13.7016 -2.10095 8.46868 16
76 1 2.14546 15.395 -0.161626 14
77 1 7.4167 -2.22475 14.4773 15
78 1 -9.43908 -10.0458 9.18781 20
79 1 -7.68929 -2.16879 -1.41978 22
80 1 16.0937 2.1335 2.95138 16
81 1 8.34104 -5.55026 0.697643 19
82 1 -3.48715 13.7941 10.3572 11
83 1 8.05925 0.229276 10.3573 20
84 1 -6.24894 -5.07026 1.51542 19
85 1 -3.32879 -5.94204 -9.95477 18
86 1 -12.1278 9.57777 9.51252 10
87 1 -6.11191 9.37153 -2.73477 21
88 1 -5.03766 7.19182 -7.56534 18
89 1 6.96238 -3.03269 -6.3688 20
90 1 11.3075 12.739 -8.38371 9
91 1 9.24851 -8.51597 2.37206 18
92 1 6.92255 -8.83704 8.30217 14
93 1 -2.46693 15.8205 -5.58972 11
94 1 -7.91203 14.4344 6.01904 11
95 1 -5.63364 -5.84127 15.116 10
96 1 -2.52713 5.54118 3.70485 22
97 1 0.0657157 -11.2378 11.7128 17
98 1 13.7193 -7.04265 -5.81952 19
99 1 -10.5744 3.64996 3.85546 20
100 1 -7.88232 -12.7918 3.74933 19
101 1 14.6311 -9.52199 -3.9954 10
102 1 6.14437 1.01185 -8.01924 21
103 1 -3.78709 -0.736479 -16.7831 15
104 1 1.90512 12.1545 7.13794 17
105 1 -4.54784 5.94514 -10.9094 20
106 1 4.15999 13.2541 16.1483 10
107 1 4.94282 11.5683 -7.85176 21
108 1 -11.1546 13.7959 0.693978 9
109 1 1.69076 8.78902 2.20581 19
110 1 -2.49855 -14.4325 12.8515 11
111 1 18.2763 1.95901 10.868 9
112 1 -1.1969 -4.44131 -6.89875 20
113 1 4.57927 -7.05781 -8.0437 18
114 1 1.07003 2.9607 7.23924 21
115 1 5.35974 -0.41268 16.6304 14
116 1 -8.08731 -7.33889 -2.26469 22
117 1 6.98063 -8.28896 4.33028 16
118 1 -8.5348 -10.0104 -4.22058 17
119 1 13.3995 -8.54856 -1.02164 12
120 1 -0.135228 5.53136 6.00101 20
121 1 9.61667 8.10127 -11.8167 19
122 1 9.83844 15.1038 -5.91263 15
123 1 -4.92147 -15.4069 11.1313 14
124 1 -6.97304 -12.7208 10.2994 18
125 1 11.6006 -7.81915 -14.7096 8
126 1 7.55164 3.00008 -2.62106 20
127 1 11.0343 -7.45258 -3.91495 18
128 1 -1.38017 -17.2358 7.22232 11
129 1 -8.85442 -12.6381 1.08388 17
130 1 13.8212 6.55309 9.8484 16
131 1 14.5623 -4.64728 -7.57755 18
132 1 -12.9975 -9.49255 1.33411 13
133 1 10.1032 9.73605 4.4971 22
134 1 17.8515 9.60018 -1.41185 12
135 1 -5.32795 2.6087 14.2105 16
136 1 4.57942 8.21109 -3.97738 17
137 1 -0.428002 15.4376 11.7439 9
138 1 -2.27973 10.8399 -2.41572 17
139 1 4.06182 -3.93246 -13.1253 18
140 1 8.33961 -11.7764 -9.0898 12
141 1 2.47633 11.6849 -10.979 15
142 1 5.43381 -1.06724 9.1845 23
143 1 3.92923 0.837092 -19.1284 10
144 1 3.22343 8.49258 -7.01357 20
145 1 13.8017 -1.1197 -4.51034 16
146 1 -6.61606 9.20179 -5.96782 20
147 1 -2.90185 12.7754 -4.66233 21
148 1 6.17199 1.04318 -11.4314 20
149 1 11.2474 -6.73825 6.17809 17
150 1 -4.65044 3.21518 -6.05661 19
151 1 -9.19074 11.2382 10.6875 12
152 1 15.165 9.83878 -10.3845 10
153 1 6.47374 15.0899 -3.6323 23
154 1 -0.271135 16.0581 -2.65009 12
155 1 11.9981 10.5531 0.115649 19
156 1 -0.86454 9.97603 -6.08282 18
157 1 4.87913 13.7153 -9.86942 12
158 1 9.9877 7.81593 -14.6254 17
159 1 -12.5138 -13.1561 6.14645 11
160 1 -10.3444 13.1937 -3.08516 12
161 1 -0.832314 -0.354798 -15.6265 20
162 1 7.02462 -8.74465 -15.2359 14
163 1 7.10434 14.7843 6.57316 12
164 1 -1.27563 16.094 1.27505 13
165 1 -11.6614 -3.52413 -5.46069 16
166 1 -5.6582 15.149 -3.52792 13
167 1 14.836 -0.791874 0.00680173 17
168 1 -8.7963 -0.395491 -13.5287 16
169 1 6.55449 2.63032 16.617 13
170 1 5.46282 16.6045 -1.19838 13
171 1 -4.52564 7.79603 4.29663 16
172 1 7.71418 -3.82559 -17.6128 12
173 1 -7.92516 13.7231 8.80151 11
174 1 -1.97912 9.98753 -8.8813 18
175 1 3.91236 -3.13835 11.7466 22
176 1 -8.86176 -4.61253 3.37334 23
177 1 -5.31221 -7.96485 -13.8608 14
178 1 -3.4379 12.5569 -7.15823 17
179 1 -7.44809 -12.1217 7.1075 21
180 1 0.949062 -12.4976 -3.54683 21
181 1 -5.82895 9.74984 -13.7928 12
182 1 -12.0031 0.0744244 11.9315 15
183 1 2.57907 7.96011 -1.1021 19
184 1 14.6796 8.99935 -4.70821 16
185 1 -2.45939 -0.236621 14.2465 17
186 1 2.94044 -9.31598 8.79337 17
187 1 -8.97108 0.542975 -3.26615 21
188 1 2.97175 17.1565 -2.36809 12
189 1 -1.68975 8.18856 12.1704 21
190 1 13.743 3.13014 14.3689 11
191 1 -4.83607 12.8907 -1.80521 21
192 1 15.1301 -7.38054 -9.0104 10
193 1 -5.82911 11.2596 10.0483 15
194 1 -1.25973 3.99953 -7.33614 21
195 1 15.7961 -6.99412 1.17647 13
196 1 -5.86831 -4.63815 4.65228 20
197 1 -11.5507 0.7664 5.20472 20
198 1 -8.15366 -7.9093 7.78777 20
199 1 8.87242 5.57523 12.1537 19
200 1 -13.822 -1.94085 -1.72609 13
201 1 -1.00964 -16.0254 0.436921 21
202 1 6.63086 -8.43483 0.52597 18
203 1 -1.9205 7.96137 5.8621 23
204 1 -8.98935 0.912886 3.62886 21
205 1 5.56463 13.8135 10.7497 13
206 1 -8.50832 0.912323 -6.58388 22
207 1 -6.61694 13.4493 -8.90771 11
208 1 -14.8111 -5.00162 -2.73217 11
209 1 -9.31639 -5.2273 9.48241 19
210 1 1.50613 -11.7309 3.40936 20
211 1 6.78471 -14.6148 7.04072 15
212 1 -7.29085 14.4551 3.08623 13
213 1 15.8002 3.11019 6.28599 19
214 1 9.05851 -0.168086 -6.42759 21
215 1 -4.4414 -6.16471 -16.373 11
216 1 5.37017 1.68038 11.193 18
217 1 6.58835 -16.2464 1.17719 13
218 1 -4.36498 4.08794 -12.8724 20
219 1 4.93576 -11.0531 -13.593 11
220 1 6.95256 4.08513 -15.9948 18
221 1 6.69159 9.00899 -16.2426 13
222 1 -8.7028 -4.30047 -6.80836 21
223 1 -0.138739 13.4468 -6.13924 19
224 1 -10.0534 -12.0254 11.7463 11
225 1 12.1211 14.8564 -3.88085 14
226 1 -5.44066 -0.352124 14.797 18
227 1 -6.48599 12.3358 -4.70056 20
228 1 8.66038 -0.893407 8.02814 21
229 1 -7.14961 -5.5497 -12.8291 15
230 1 -1.95637 8.48542 -4.13284 18
231 1 2.69419 6.33738 -9.04014 20
232 1 -2.89891 -10.6168 10.4409 19
233 1 -10.5571 3.43546 7.13038 20
234 1 -7.72053 2.61197 9.15093 22
235 1 1.162 -10.5645 -10.2072 23
236 1 -0.960894 -11.0027 1.28306 20
237 1 8.38154 -15.7993 -4.09108 10
238 1 13.2433 9.51499 9.04903 12
239 1 11.3971 8.13499 -9.66124 17
240 1 0.304815 9.90626 -1.62472 18
241 1 -8.97164 0.217039 0.345326 22
242 1 -8.59811 14.1437 -6.15391 10
243 1 2.47699 4.78938 10.8921 20
244 1 4.30076 -18.6108 -0.0307852 10
245 1 13.1603 -2.25333 -1.90003 19
246 1 3.28676 8.41209 5.77182 16
247 1 -5.7305 5.06234 5.51702 21
248 1 -11.6364 -8.1371 -3.92019 16
249 1 7.08021 6.36093 -11.1908 23
250 1 6.91562 1.99917 7.87481 25
251 1 13.9103 10.4858 -7.7396 14
252 1 3.57536 -8.09607 -1.79649 22
253 1 1.08666 1.84313 -14.8403 22
254 1 2.35551 -16.2113 5.16292 14
255 1 12.0463 0.152054 -7.78396 21
256 1 -10.8248 -2.41562 6.84602 20
257 1 5.03016 -16.1338 -2.52472 18
258 1 -9.0174 -6.69271 -9.41924 15
259 1 9.43442 17.1031 -3.64073 15
260 1 1.58825 -1.42838 -13.6578 23
261 1 4.55539 5.87127 12.7152 19
262 1 17.2569 1.08501 -0.0301749 11
263 1 -5.136 -7.33186 2.93869 19
264 1 14.9035 -1.74602 -8.44432 16
265 1 0.227815 -13.2703 5.36396 17
266 1 -8.86765 -3.25624 -14.3145 13
267 1 -9.93496 3.20125 -9.3002 20
268 1 -6.69055 -15.0461 8.34782 14
269 1 8.40244 -2.7089 11.0058 19
270 1 5.48292 -4.64643 9.06283 21
271 1 -2.44805 -7.07697 -13.8496 18
272 1 2.40016 -5.23812 6.95501 20
273 1 6.17531 6.93608 -14.2219 20
274 1 9.7869 4.51803 2.88007 17
275 1 -9.31553 -10.7078 5.87641 20
276 1 4.8814 10.4263 2.63944 21
277 1 -6.4077 -5.22501 11.934 24
278 1 -5.14525 -8.46108 -9.73677 16
279 1 -3.78386 -1.21342 -13.4778 19
280 1 -2.39457 4.90065 -15.4908 16
281 1 -3.98464 -9.41938 -11.6769 13
282 1 -2.47511 -7.69063 1.17973 20
283 1 12.7906 -3.84004 -12.6226 15
284 1 15.1064 4.41689 -7.26984 15
285 1 13.9925 3.99152 3.98367 19
286 1 -6.99368 -7.32936 10.0471 18
287 1 -3.73754 -10.3352 -0.474558 21
288 1 7.38035 5.61586 15.4609 18
289 1 -4.76709 -16.8968 4.46216 11
290 1 0.388154 -13.6414 -0.866264 19
291 1 2.66041 14.2958 -4.37673 20
292 1 11.3187 2.9832 -13.7421 20
293 1 -3.19504 -3.90767 -16.5023 13
294 1 -10.5179 -8.6618 13.246 11
295 1 7.27234 11.6844 16.7865 9
296 1 4.1098 -13.7918 2.02477 20
297 1 -1.73951 -8.75252 -9.37339 19
298 1 -11.6163 5.8871 -9.23666 11
299 1 11.829 6.1995 4.48508 21
300 1 -8.75298 -2.12428 -10.8079 16
301 1 0.119863 9.03719 -11.4174 16
302 1 -3.46975 -5.43714 6.93286 22
303 1 5.67077 -12.0558 -7.27412 16
304 1 -3.25797 16.0904 -1.19933 11
305 1 0.678441 9.79204 4.76434 18
306 1 15.5795 -5.66823 8.0974 11
307 1 -8.14439 -2.04064 5.05108 22
308 1 -3.98729 -7.53383 10.0645 24
309 1 -7.27194 10.4154 7.81422 20
310 1 6.06139 -5.46625 -14.8754 17
311 1 12.6286 9.12271 -2.86983 17
312 1 9.73872 -12.144 2.88578 14
313 1 -3.90723 -4.54344 10.3713 17
314 1 -14.8336 -4.16341 6.74611 15
315 1 0.272877 -15.8052 -4.54843 15
316 1 -6.40084 5.62104 12.5562 18
317 1 -6.62317 4.81509 15.2702 9
318 1 -13.6363 -2.93136 11.7778 12
319 1 -14.3599 -5.08462 9.88963 10
320 1 9.92797 -2.65574 -4.85984 20
321 1 -11.1011 -7.80166 9.95801 14
322 1 10.6492 2.47164 -7.28784 22
323 1 11.9293 -14.268 -5.7363 7
324 1 7.61945 17.3986 -6.15204 11
325 1 -9.44511 10.7947 -4.59356 16
326 1 9.13426 9.18912 10.6774 21
327 1 -10.7506 -1.64473 3.00928 25
328 1 6.89613 -14.2561 -6.65594 12
329 1 -6.14879 10.6273 -0.114011 18
330 1 -4.49291 2.21587 3.7621 22
331 1 7.69755 -11.603 8.15551 12
332 1 14.1285 -5.32863 5.84926 21
333 1 -0.313247 5.14916 9.64307 23
334 1 -9.17378 -7.52108 -5.92008 18
335 1 1.44164 -3.04457 13.4326 17
336 1 -1.64623 8.81235 2.89089 19
337 1 5.3141 7.54076 16.8798 10
338 1 -5.66865 14.3668 -6.29189 13
339 1 2.40071 -1.64386 -17.05 18
340 1 -4.84207 1.21968 -8.30738 19
341 1 7.01857 -10.178 -11.7806 13
342 1 -8.11849 2.15794 12.3183 18
343 1 -13.7085 3.25863 2.11142 9
344 1 -3.89033 -3.49692 -8.23779 20
345 1 -3.20868 11.5956 1.2098 17
346 1 10.075 -3.27316 5.81148 21
347 1 -11.2955 -12.2102 3.16269 15
348 1 8.12368 -6.47318 6.71828 22
349 1 -7.9102 -10.0303 11.8452 15
350 1 -10.6628 3.39025 0.524984 21
351 1 -2.04323 -2.82277 8.6043 21
352 1 1.9483 -10.6653 -4.90674 18
353 1 -6.81811 -2.08921 -8.15123 23
354 1 9.03744 4.74608 -14.2249 24
355 1 4.49284 13.6271 1.66031 19
356 1 -12.035 2.25073 -6.44969 17
357 1 8.00886 -4.07555 -12.3676 20
358 1 10.0683 5.09159 -11.3837 21
359 1 -3.78504 -15.6718 -3.99818 14
360 1 -13.2699 -10.2266 -4.96061 6
361 1 -2.21212 -7.17777 -2.21557 20
362 1 10.7579 6.23828 16.4615 9
363 1 16.2507 0.493192 -3.20222 11
364 1 -6.41868 -1.74213 -14.5 15
365 1 6.23319 18.3796 -3.36824 13
366 1 -13.9992 -2.6233 -4.386 14
367 1 -8.21975 5.59385 0.520863 21
368 1 -7.86866 8.13995 -0.300512 24
369 1 -3.04068 5.23394 7.34527 19
370 1 12.6296 3.35127 9.62947 19
371 1 8.74961 -5.31441 -9.68448 21
372 1 9.85374 -0.546882 13.1272 16
373 1 14.3933 1.23792 -9.91425 13
374 1 -3.3404 -16.8057 -1.07193 14
375 1 2.55567 -7.80748 -5.08808 23
376 1 -1.99359 8.00763 -0.465698 18
377 1 -10.8755 3.02103 -3.65685 19
378 1 7.40872 -11.7672 -1.93243 18
379 1 15.9619 0.289541 6.27346 18
380 1 -7.58635 -1.87087 -5.16351 22
381 1 -5.17713 -8.58324 6.64399 19
382 1 -7.20402 -7.75715 14.0063 13
383 1 -1.46288 13.6351 2.56009 18
384 1 -6.74366 -10.2729 0.267786 16
385 1 8.50117 10.5755 13.5748 13
386 1 -8.48692 7.15333 -3.10665 18
387 1 1.28329 9.50144 -8.67709 17
388 1 8.24205 11.3999 6.32594 18
389 1 -13.6439 -8.20425 -1.92684 12
390 1 -1.6281 -10.9549 -4.88505 22
391 1 -10.9491 -2.39379 9.97944 23
392 1 -9.39728 10.4202 -1.72724 21
393 1 5.02647 -11.1636 6.47097 20
394 1 -6.40163 -16.1613 -1.70377 10
395 1 10.1959 9.09496 7.86717 23
396 1 12.0027 6.40535 -15.6087 11
397 1 -8.84632 4.75505 -13.9042 12
398 1 -1.28357 12.6643 -11.3594 9
399 1 -7.39903 3.59308 -7.84635 20
400 1 1.26656 -14.5329 2.83317 20
401 1 14.5125 7.04319 3.40411 22
402 1 1.85947 7.55361 -13.5664 15
403 1 -3.06349 -0.142509 6.9969 22
404 1 -14.2844 0.699598 0.0144279 14
405 1 -7.52946 3.00061 5.34013 20
406 1 -5.91601 -14.1877 5.66641 17
407 1 2.04164 -5.41988 -6.83267 20
408 1 9.17554 -8.44322 -10.043 19
409 1 -11.9408 0.858619 1.72713 19
410 1 -8.60469 -0.74486 13.6594 17
411 1 -8.2892 6.00669 3.91839 21
412 1 -1.03402 -5.56414 8.51587 20
413 1 -10.116 2.3551 -12.7147 12
414 1 10.5392 -8.47234 -6.35932 20
415 1 0.904532 -7.64695 -8.54352 21
416 1 -1.547 -8.21972 12.682 17
417 1 5.32861 -6.39543 -4.95853 23
418 1 -7.05947 1.94921 -13.9645 17
419 1 7.41033 -13.0183 0.825192 18
420 1 8.26122 7.37305 -5.09367 18
421 1 -12.5505 9.45766 6.28714 12
422 1 -3.84466 -3.20901 15.724 16
423 1 -10.3553 -5.00758 -11.3029 13
424 1 -8.73669 -4.68295 6.46532 23
425 1 11.1652 -4.32515 11.8506 11
426 1 10.3781 2.75638 -0.302643 21
427 1 4.01212 -1.23075 -11.4226 19
428 1 13.3305 -7.22668 3.46173 13
429 1 17.597 8.32509 -4.18367 14
430 1 -1.90925 2.70852 12.3839 19
431 1 3.85739 10.7155 -2.40124 21
432 1 9.17328 -4.21203 8.28452 17
433 1 -6.19947 -11.5489 -5.89653 18
434 1 -0.392137 11.2231 12.443 15
435 1 -4.84423 14.7583 7.14337 12
436 1 -3.10514 -12.0296 -7.43372 16
437 1 9.23814 11.8818 0.272838 18
438 1 5.11691 5.2353 9.01401 18
439 1 -4.85055 2.95201 10.8048 21
440 1 -5.75231 -10.3293 -3.02106 22
441 1 -9.47512 4.41349 13.9901 10
442 1 -6.0528 -6.49143 -7.41237 23
443 1 -7.76012 8.44714 5.70434 19
444 1 -4.51745 -9.12256 -6.44791 20
445 1 1.84673 -9.77954 -13.8798 16
446 1 -3.29752 -14.697 6.13694 18
447 1 -4.81403 -2.59895 6.74157 20
448 1 13.6304 1.32281 4.032 20
449 1 -3.11647 -5.90832 13.1333 19
450 1 -7.32278 7.2939 -15.4621 10
451 1 7.77976 6.88048 0.843218 24
452 1 -6.00627 -13.4862 -0.485424 20
453 1 1.14539 4.02405 -5.53591 20
454 1 -0.033042 11.5761 1.65782 20
455 1 0.0750212 7.22836 -7.00139 19
456 1 -2.36599 7.87314 9.04142 16
457 1 -11.0348 -2.72734 -0.325732 21
458 1 4.23198 17.319 -5.34939 12
459 1 8.08819 12.3867 -5.60457 20
460 1 -6.60738 -4.90412 -9.75614 19
461 1 4.04355 4.78189 15.8625 14
462 1 0.557067 -14.393 -10.0756 10
463 1 10.5612 -5.96572 -11.8653 19
464 1 5.44393 -10.7209 -0.0301689 19
465 1 -10.3451 15.635 3.49965 5
466 1 1.43966 7.4344 12.1211 17
467 1 8.5653 9.43778 -0.0880043 20
468 1 5.97332 10.8184 0.436665 22
469 1 -5.26053 8.50753 -11.5573 18
470 1 4.89778 3.31045 -7.16454 20
471 1 3.39022 -8.7781 4.75912 20
472 1 -11.6912 -4.97115 -2.09713 20
473 1 1.30405 14.5792 2.6557 17
474 1 -1.91974 1.48048 -9.52674 18
475 1 10.1217 5.65335 0.382612 16
476 1 8.34543 13.6207 -9.73071 10
477 1 11.2088 -5.8842 1.47975 18
478 1 16.9388 12.3187 -1.74576 12
479 1 0.469468 -3.94752 -8.79251 20
480 1 1.66749 -10.7736 0.0441481 19
481 1 3.36247 -13.6218 5.3109 22
482 1 2.854 -11.981 12.1766 7
483 1 -7.62034 0.615527 -9.27072 22
484 1 -10.2099 -15.9406 6.54159 8
485 1 -0.719916 -8.16461 -6.32877 22
486 1 12.0076 11.5515 6.41058 15
487 1 3.65346 0.825064 -9.44261 21
488 1 4.44615 -3.27454 14.5949 16
489 1 -10.8299 3.16572 10.4744 15
490 1 1.04692 -18.6327 0.713018 15
491 1 -11.8419 -4.53948 1.71993 19
492 1 15.4187 -3.86024 -4.22297 12
493 1 9.50404 -2.49856 -1.39222 22
494 1 -4.4587 2.72637 -2.72334 23
495 1 5.23537 -9.45474 -5.2646 20
496 1 4.72794 4.22753 -9.86076 22
497 1 12.799 -4.36448 -4.34326 21
498 1 -2.04187 -2.24447 12.1995 15
499 1 12.2903 15.7697 2.12294 10
500 1 0.22158 -3.66461 -16.0528 18
501 1 10.8866 -2.72999 -15.6494 13
502 1 -6.12472 -5.12952 8.0884 25
503 1 -1.61194 13.1586 -1.15989 19
504 1 -6.50653 0.761323 -16.19 16
505 1 -14.6009 -0.293762 6.45573 8
506 1 -0.389707 -8.64112 -15.7276 12
507 1 -5.98022 -12.8071 13.3831 8
508 1 3.83836 9.44869 -10.1631 18
509 1 18.8532 1.05142 7.5535 8
510 1 10.9031 8.1373 -0.799278 16
511 1 -8.59139 -12.7798 -2.29213 11
512 1 -0.774281 -10.4839 -1.80556 21
513 1 -0.845236 -2.87027 -13.5932 22
514 1 -9.85734 8.61364 7.92811 20
515 1 2.93522 -6.05386 -10.1928 21
516 1 9.97223 -3.09519 -7.84186 20
517 1 6.46344 10.0568 -4.89167 17
518 1 12.2826 -10.9872 -1.3199 11
519 1 17.9564 6.12765 -6.84011 9
520 1 3.2731 7.95248 14.7462 19
521 1 -8.75187 0.497347 6.89845 20
522 1 10.079 12.9523 8.32239 15
523 1 8.78333 0.453645 16.2711 10
524 1 3.37871 1.38113 -13.2885 18
525 1 -5.58572 -4.27776 -5.45679 23
526 1 0.231726 -2.92864 10.534 21
527 1 5.84784 9.32021 8.36314 17
528 1 4.038 6.4465 -11.9694 19
529 1 -7.6013 10.8692 -11.4217 13
530 1 2.06059 11.6882 -6.60771 20
531 1 12.6422 -1.69322 13.1183 13
532 1 13.4857 4.20966 -10.8823 16
533 1 9.95766 -10.1639 -3.10649 21
534 1 11.643 11.3647 10.4694 13
535 1 -13.9468 -6.70041 0.117616 13
536 1 -4.90011 12.3795 -11.6276 13
537 1 -0.16199 -0.135069 8.95419 20
538 1 -7.91467 -2.40698 11.33 21
539 1 -2.16281 6.66157 -8.95866 18
540 1 7.80522 -11.4497 -5.17987 21
541 1 6.73975 -2.38066 -9.90496 22
542 1 0.841884 15.7602 -5.68602 14
543 1 -6.45603 -2.96975 -17.1846 9
544 1 6.66185 -12.9886 3.91918 19
545 1 -10.8966 -7.48797 -0.575165 19
546 1 7.31365 9.39851 -13.2984 15
547 1 -7.96567 3.23626 -1.18299 18
548 1 0.581696 2.25046 13.9684 20
549 1 -11.0776 -7.87114 6.42144 21
550 1 5.81056 4.99046 -0.648165 23
551 1 3.50035 -9.73831 -8.1424 20
552 1 4.82577 -7.42856 10.9114 16
553 1 8.98234 0.363084 -3.59052 21
554 1 -7.69812 9.08203 2.31658 21
555 1 1.64002 11.216 15.037 14
556 1 6.25799 15.134 -6.95125 17
557 1 12.6034 -7.26245 -8.58765 17
558 1 6.51993 7.13251 10.6941 22
559 1 3.24246 7.5301 -16.1455 15
560 1 -1.65363 -13.2288 10.6216 16
561 1 2.2785 3.66045 -8.22371 19
562 1 6.65581 -1.1305 -19.4704 8
563 1 4.77638 11.5743 5.6423 19
564 1 11.7434 5.5077 -8.30215 19
565 1 3.48074 -6.83886 -13.4421 18
566 1 -3.64751 -12.1896 -2.85981 19
567 1 -14.265 -5.51792 -6.13379 9
568 1 12.9389 4.71624 1.46898 16
569 1 19.8593 10.8954 -3.1867 5
570 1 5.48276 -4.50572 -9.38836 18
571 1 11.7113 4.56632 12.7313 16
572 1 7.15264 -9.31239 -7.77626 19
573 1 3.80998 3.98442 -17.6248 15
574 1 7.50139 11.8801 2.81169 21
575 1 -7.51151 3.44382 2.07369 22
576 1 10.5578 7.77076 13.4967 16
577 1 14.9044 6.31272 -4.58934 19
578 1 17.4966 -3.98262 2.13539 11
579 1 16.7191 6.09597 -10.2806 9
580 1 12.0877 0.36706 7.24457 22
581 1 16.1462 3.84234 9.03605 16
582 1 1.96748 -10.571 6.67706 17
583 1 14.3739 10.6189 -1.18175 17
584 1 2.35229 -2.21076 16.532 12
585 1 15.0631 0.876882 -6.67719 13
586 1 10.6012 6.89317 10.2006 15
587 1 -9.82318 -1.24628 -7.72679 19
588 1 17.1751 5.30109 3.57531 13
589 1 11.978 -4.50433 3.6884 21
590 1 -8.96685 5.44067 10.5991 15
591 1 4.08926 8.75811 11.6866 21
592 1 15.6926 1.3523 11.7816 15
593 1 3.34529 8.09734 9.02329 19
594 1 3.69537 11.5059 9.79926 18
595 1 6.15385 4.38097 6.23554 21
596 1 -2.08293 -18.2616 2.09418 12
597 1 -3.99038 10.3887 -5.74559 18
598 1 10.4313 9.73066 -7.42851 17
599 1 15.3225 -1.92605 -11.7956 12
600 1 4.2597 13.3575 -1.36437 21
601 1 -0.398967 -10.98 -7.56844 19
602 1 15.525 -4.65359 -10.8593 11
603 1 -10.6953 6.83571 1.87355 23
604 1 -5.36506 1.28673 -11.5874 18
605 1 -1.73978 -13.417 3.19029 19
606 1 -1.3585 0.314349 -12.6722 22
607 1 -13.7039 1.66517 -3.52607 12
608 1 11.8612 -9.20864 1.76192 12
609 1 16.7264 8.5054 4.48298 11
610 1 0.61279 -7.46982 6.71519 19
611 1 -11.1568 0.509379 -10.5515 16
612 1 1.49431 1.4332 -17.8288 15
613 1 0.511715 0.0574276 16.3093 14
614 1 12.4586 9.19382 -12.7513 11
615 1 12.5519 1.4454 12.2713 20
616 1 9.53703 5.14786 -6.14679 19
617 1 9.50731 15.1794 1.03487 16
618 1 2.30512 -12.3415 -7.51358 18
619 1 -7.47335 -3.66678 14.2373 16
620 1 13.2667 -2.0477 5.20973 20
621 1 -1.42158 10.9479 15.6325 14
622 1 9.60499 10.7365 -10.3783 15
623 1 -12.2721 10.616 -2.49655 12
624 1 6.70097 8.21814 -2.21557 23
625 1 -9.99222 -14.6144 3.72194 11
626 1 16.8162 -6.1716 4.60382 13
627 1 5.87183 15.5798 3.9174 8
628 1 -2.04051 2.22077 8.93975 21
629 1 -9.71718 -9.84028 -0.851973 17
630 1 -6.21029 -2.52741 -11.7497 17
631 1 10.7496 -1.26717 10.5715 22
632 1 -0.144095 -8.60447 9.86474 20
633 1 7.08124 2.95809 13.4336 18
634 1 -7.81648 13.1434 -1.06546 16
635 1 8.82093 0.369835 2.00319 18
636 1 13.7635 2.01347 0.836753 19
637 1 9.83432 0.646516 -18.3092 10
638 1 -8.1591 -2.26701 8.26632 21
639 1 12.5435 -0.865533 -13.3527 16
640 1 -3.17374 -6.46646 -6.20729 21
641 1 11.8697 -12.7846 -8.00628 9
642 1 9.93557 1.21018 5.30816 17
643 1 6.75788 2.33663 4.10821 23
644 1 -5.117 -0.98899 17.9745 6
645 1 6.25524 10.7558 11.2067 21
646 1 3.11826 -6.30712 13.788 13
647 1 -3.70909 11.5504 12.5808 14
648 1 -2.28687 -3.21256 -11.1794 20
649 1 -6.15764 0.0514263 11.7774 20
650 1 5.47109 -0.381698 12.855 19
651 1 -10.0614 -13.4737 8.78158 16
652 1 16.9595 7.58045 1.3618 15
653 1 3.36434 -14.0535 -4.93912 20
654 1 -2.44228 5.69813 -5.78169 19
655 1 11.9417 13.7738 0.118968 16
656 1 9.16379 14.9028 4.27621 11
657 1 6.7382 1.38299 -18.0052 14
658 1 4.55409 12.7943 -4.48273 21
659 1 11.12 8.16402 2.31658 23
660 1 -8.08693 -7.40196 0.992822 18
661 1 -0.570026 3.65986 -19.4985 8
662 1 -8.33694 12.1603 1.13106 17
663 1 10.0168 -2.95321 -11.4718 20
664 1 8.24525 -0.989306 4.54708 23
665 1 14.3021 7.18589 -11.2966 13
666 1 13.9926 14.3895 -1.77446 12
667 1 -5.57361 5.599 2.06269 19
668 1 8.43875 5.49646 -2.2767 20
669 1 12.4687 3.4325 17.5486 7
670 1 12.0059 1.06714 15.2302 13
671 1 0.0891876 -17.0321 12.8917 4
672 1 -1.7208 6.76876 -12.4415 19
673 1 6.66956 12.3443 8.23608 19
674 1 12.2747 -3.81267 -9.60471 23
675 1 3.96851 2.46682 8.72604 24
676 1 12.0089 12.744 -5.8277 15
677 1 8.5785 7.11085 5.30231 18
678 1 15.1987 -6.65212 -2.28928 14
679 1 8.81087 8.5886 15.7577 14
680 1 -11.5756 -4.81702 4.74455 25
681 1 2.45868 -15.6932 0.432038 19
682 1 4.23318 -1.96698 -7.94838 16
683 1 -5.48924 14.052 0.323465 17
684 1 2.72813 5.25694 4.07433 20
685 1 6.59522 -8.68891 -2.67494 22
686 1 5.04872 7.80345 0.346742 19
687 1 -14.9331 -4.82027 3.63923 10
688 1 0.868065 13.0663 17.4116 6
689 1 -1.28675 2.50286 -16.5931 19
690 1 -4.24038 6.78976 -14.672 15
691 1 3.78352 -13.2662 -1.39727 18
692 1 10.9939 7.88408 -5.34937 18
693 1 5.28278 -5.61737 5.18402 20
694 1 -0.236971 5.92791 2.62795 20
695 1 -10.8576 1.27824 14.7324 8
696 1 6.43141 -1.53267 -13.1566 17
697 1 4.36476 -12.363 8.89899 14
698 1 2.13281 12.1151 3.68836 20
699 1 -0.989282 -2.12727 16.6583 10
700 1 -7.56518 -8.19733 -11.7794 13
701 1 -3.12329 -8.82203 -16.5447 10
702 1 -5.25802 -14.5478 -7.06921 12
703 1 1.25622 13.5957 -9.45828 10
704 1 8.53232 -5.08979 -4.13232 21
705 1 -3.51553 11.7675 7.98131 15
706 1 6.48721 -6.40379 -11.5901 20
707 1 8.3885 -15.4621 -1.33845 11
708 1 4.55731 -6.77844 7.65488 20
709 1 15.7444 3.45573 -4.47737 13
710 1 6.03389 -13.5846 -3.52624 20
711 1 -11.8458 -4.96905 8.01456 23
712 1 -3.0004 -13.283 0.41578 20
713 1 -7.66348 -9.46066 -8.08752 15
714 1 -9.55378 0.701057 10.0202 19
715 1 -4.41242 -16.3271 1.69469 16
716 1 16.9739 6.80632 -1.68187 12
717 1 -2.41881 15.7561 4.90148 11
718 1 -5.03175 2.80845 7.30945 21
719 1 -10.8699 10.312 1.02661 18
720 1 11.4195 -1.12893 3.32353 18
721 1 -14.1589 -2.45276 -7.81774 14
722 1 1.57756 9.37606 -4.37263 23
723 1 8.01573 4.2743 -9.15253 23
724 1 8.65361 12.409 10.902 13
725 1 10.6993 3.3345 -3.59635 19
726 1 -10.1247 4.94524 -6.5631 19
727 1 -11.7723 -6.84485 -8.24619 10
728 1 -2.10417 7.82538 16.8443 9
729 1 5.62324 3.3536 -13.2451 21
730 1 10.3517 12.4747 3.09466 15
731 1 -2.91382 -0.38833 10.5397 21
732 1 -1.54227 -13.7635 -5.36062 19
733 1 -4.92505 -16.7959 7.8452 12
734 1 -2.54827 -8.83181 7.7406 22
735 1 12.9254 13.5327 8.73423 7
736 1 4.29545 -8.89417 -11.1066 21
737 1 -5.86903 5.72691 -1.20958 21
738 1 5.20841 6.58794 3.71338 22
739 1 -7.87663 -7.29406 4.50063 23
740 1 11.9335 5.64178 -12.9747 18
741 1 0.740168 -15.6155 -7.22815 13
742 1 3.30947 -17.6649 2.66974 13
743 1 2.12889 -18.3179 -2.22939 13
744 1 8.26464 2.64126 -12.0097 20
745 1 8.42289 17.4493 -0.764579 12
746 1 0.811329 2.23916 -10.9316 22
747 1 2.82435 -0.349448 14.1572 22
748 1 -1.97525 4.17652 -11.1055 18
749 1 -12.3355 4.81218 -12.3446 7
750 1 -8.98417 -4.53442 -3.69655 21
751 1 3.08659 14.6075 -7.57906 17
752 1 12.5209 -3.04259 0.944915 22
753 1 3.08278 -5.1247 -16.2458 18
754 1 -5.15228 -7.96173 -1.25736 20
755 1 14.2762 7.29508 -7.96876 21
756 1 14.8134 -4.46422 2.60159 20
757 1 -7.46517 8.35449 10.1791 16
758 1 9.64494 -9.77168 5.46206 14
759 1 15.4779 -4.19379 -0.341579 15
760 1 13.872 -1.47492 10.5778 19
761 1 -0.751082 10.8867 7.83475 19
762 1 -7.69816 1.14138 16.2354 11
763 1 -3.44829 5.54318 14.0483 19
764 1 0.976734 -16.6746 9.68059 9
765 1 9.24111 -3.00191 1.84674 23
766 1 6.86291 7.98857 13.7336 24
767 1 -13.6879 -2.48056 1.57923 14
768 1 9.2287 -7.39684 -1.25907 20
769 1 -8.49466 11.2761 -7.39546 15
770 1 6.51702 4.53023 2.19257 16
771 1 3.82507 -15.2792 8.00446 11
772 1 3.07694 2.03179 16.5077 15
773 1 -1.64268 14.3326 7.606 13
774 1 -0.894963 -10.5265 5.25367 22
775 1 -6.29928 -4.89177 -2.1022 23
776 1 3.70101 2.55915 13.4293 19
777 1 -10.4342 -2.15999 -3.02196 20
778 1 1.34879 14.1718 14.0121 16
779 1 7.21029 14.114 -0.0454454 19
780 1 -12.8574 -12.482 9.53748 8
781 1 -1.2721 -16.3512 4.04839 20
782 1 12.6396 -6.42657 9.26606 11
783 1 14.635 -3.88698 10.8866 14
784 1 7.89458 6.42995 8.15719 20
785 1 0.648915 6.67531 -3.89438 22
786 1 0.86373 -6.27688 -14.1845 19
787 1 -4.22809 -1.03205 -10.1684 19
788 1 -5.09701 -2.23658 9.79475 22
789 1 -2.56807 11.1656 4.74262 18
790 1 15.0092 -1.01338 2.89301 19
791 1 6.03182 6.52083 -7.84503 16
792 1 -3.79309 8.4804 14.377 12
793 1 9.6493 2.35722 11.9032 18
794 1 8.80552 -7.74596 -12.6875 18
795 1 -5.06272 -12.5452 2.49091 21
796 1 -4.34306 -1.36818 -5.94938 20
797 1 16.2254 -3.53112 5.37622 15
798 1 8.1864 1.59265 -14.6764 19
799 1 -0.91297 5.049 16.1929 11
800 1 11.4889 -10.3742 -9.26048 14
801 1 9.0589 6.77353 -17.6726 11
802 1 -2.99093 -8.8099 -3.98218 22
803 1 10.2822 3.73296 -16.7291 14
804 1 12.9224 1.28654 -1.84035 16
805 1 1.82303 -6.00559 10.0804 24
806 1 -0.492677 -6.38089 -17.637 11
807 1 11.786 17.1006 -1.25342 11
808 1 0.64651 -8.21888 3.07309 21
809 1 -12.5001 8.72564 3.32422 11
810 1 12.4975 4.14717 -5.65604 17
811 1 14.5811 5.72371 6.2508 20
812 1 1.58065 -3.49276 -11.3335 18
813 1 -9.99699 9.38261 4.39803 20
814 1 13.0793 8.31997 5.88871 18
815 1 14.7731 12.0133 -4.13218 11
816 1 6.25585 6.34718 -17.8003 13
817 1 11.3213 -4.94569 -1.41338 18
818 1 -11.5112 -0.0980929 -4.61727 18
819 1 13.6287 8.10085 0.756701 19
820 1 -9.0349 -9.93085 2.65787 22
821 1 -7.29254 6.12887 -9.37169 16
822 1 9.22995 4.26194 5.89903 19
823 1 -14.9898 -0.776069 -10.2251 7
824 1 -10.743 6.27688 5.36982 21
825 1 -4.32171 4.34232 -9.25838 23
826 1 9.00579 0.678636 -9.41255 22
827 1 -10.8193 -9.92425 -7.32996 12
828 1 7.64279 -6.20813 -6.88945 19
829 1 -13.486 6.55293 0.735885 10
830 1 -5.43845 -7.2302 -4.11789 21
831 1 11.2147 5.89938 7.61395 19
832 1 -3.77975 -11.3518 5.7194 24
833 1 9.63509 3.94294 15.7774 14
834 1 14.9939 -1.99974 7.87709 19
835 1 11.1133 -0.268345 0.0717287 21
836 1 -9.97553 5.29602 -1.84077 18
837 1 0.398753 7.99206 15.0443 18
838 1 1.6272 5.06763 -11.3208 19
839 1 3.65575 -8.85283 -15.8738 12
840 1 -4.45274 13.4873 4.00798 15
841 1 -5.55149 -10.1614 8.64197 23
842 1 8.9932 13.5354 -2.81867 18
843 1 -4.6414 9.48885 6.81908 15
844 1 12.6989 -2.57475 -6.95204 22
845 1 7.74244 -5.8985 10.2008 14
846 1 -0.412388 7.2727 -14.6935 14
847 1 8.80778 7.25654 -8.73936 21
848 1 -5.97924 0.57229 8.66012 22
849 1 16.2027 7.4196 9.99689 7
850 1 -4.03468 -5.1129 -13.1793 19
851 1 16.1143 10.4359 1.62633 15
852 1 -13.2186 4.20182 -1.17715 15
853 1 -4.17541 -12.9815 8.41074 24
854 1 6.02911 11.5106 -11.3392 15
855 1 6.7998 -2.86786 6.94644 20
856 1 -1.7561 -14.6918 -2.31596 18
857 1 -4.00096 16.0338 2.14602 13
858 1 -13.7815 7.29826 -3.01754 10
859 1 11.7838 2.63541 -10.2849 18
860 1 1.25872 -12.5691 -13.1286 8
861 1 -7.14617 11.3871 4.45365 16
862 1 16.7289 9.30811 -6.91675 11
863 1 -5.98685 0.278565 5.33386 19
864 1 8.47341 -1.31389 -15.739 17
865 1 -1.56393 -12.1645 -10.8987 14
866 1 4.0944 -10.7541 -2.77714 20
867 1 -4.68258 8.50005 11.7841 16
868 1 10.4822 -13.5946 -3.14002 12
869 1 0.938919 4.84308 -16.9797 17
870 1 14.6256 4.3352 -2.11368 15
871 1 7.60366 8.86907 2.61058 20
872 1 -0.629995 -18.0715 -2.66382 10
873 1 4.48935 -3.65895 -18.3304 12