ITEM: TIMESTEP
30000
ITEM: NUMBER OF ATOMS
2000
ITEM: BOX BOUNDS pp pp pp
-30.0 30.0
-30.0 30.0
-30.0 30.0
ITEM: ATOMS id type x y z Coordination
1 1 -8.5967 2.32527 -11.3642 18
2 1 -1.22336 -6.48605 -11.2277 20
3 1 2.6358 14.1679 9.88929 12
4 1 9.97259 -8.84234 8.41762 15
5 1 -10.0964 7.33336 0.251333 21
6 1 12.393 -11.191 -7.54769 12
7 1 -11.0629 7.11448 -4.00718 17
8 1 1.41444 -9.50666 12.2124 17
9 1 -12.4338 -5.93771 -8.66442 13
10 1 -12.7979 -10.3628 7.35151 14
11 1 15.8696 0.220111 -12.9526 9
12 1 -3.12323 -10.3874 2.95753 18
13 1 -10.7394 -7.50007 2.60085 22
14 1 1.60861 1.85853 16.5473 16
15 1 8.99142 -6.17248 3.45743 17
16 1 1.11287 1.72762 10.3206 18
17 1 -3.21051 8.17774 -11.6413 20
18 1 2.81218 -1.17134 10.6219 19
19 1 -2.93974 1.65679 -12.5844 19
20 1 -11.5245 -4.0771 12.71 14
21 1 15.1183 3.21176 8.93173 22
22 1 4.62302 7.90194 -13.9591 18
23 1 4.20342 -0.277232 -16.0023 19
24 1 12.1375 4.55604 10.6705 23
25 1 -7.77123 -2.3226 1.78942 22
26 1 -8.33126 8.04365 -9.76103 19
27 1 -1.71702 -2.55177 -7.66243 22
28 1 -8.63706 4.60321 7.32317 19
29 1 9.1559 -11.0064 4.89028 16
30 1 3.93649 -3.04025 9.07608 19
31 1 0.672167 -8.72504 -12.831 19
32 1 11.3328 -14.1226 -6.00321 9
33 1 -4.61074 -15.1814 -4.01017 16
34 1 -11.5956 -6.91329 11.2489 16
35 1 4.79808 -5.59224 -14.8211 17
36 1 11.7687 -6.02748 -11.5989 18
37 1 3.77887 3.77908 -14.2181 22
38 1 0.114587 -1.18344 12.1963 21
39 1 1.30614 -14.9128 9.60228 15
40 1 5.37499 -6.36142 12.0455 17
41 1 -14.0615 -2.60918 4.7149 15
42 1 -12.3269 -0.260057 7.94797 17
43 1 -5.71698 0.252655 -4.70774 19
44 1 1.38597 12.3529 -3.92829 20
45 1 -1.72353 -10.2091 -12.8068 19
46 1 0.209794 1.85925 -10.1699 21
47 1 11.2182 0.326 -12.8259 19
48 1 -0.91655 -7.08941 11.886 21
49 1 -11.7023 0.268865 -1.67198 21
50 1 8.52406 10.4582 -8.13724 16
51 1 1.4936 13.8215 6.15884 12
52 1 -4.70668 9.72636 -8.80299 20
53 1 3.43046 10.809 0.658327 21
54 1 4.78117 -10.9867 1.40653 21
55 1 7.80969 -7.42075 -6.93134 23
56 1 8.60253 -6.32479 -16.2013 11
57 1 -5.86881 4.95483 8.91309 19
58 1 -14.1804 0.149318 -6.63695 11
59 1 9.85551 1.809 8.49125 18
60 1 -5.11111 6.35064 -4.87271 19
61 1 -6.21338 -10.702 4.06907 17
62 1 0.621581 9.66983 9.12441 16
63 1 -9.82406 7.85783 -7.18726 16
64 1 -2.02497 12.1868 13.3295 9
65 1 3.23778 5.32991 -6.49362 17
66 1 -2.28207 -17.6942 8.94507 10
67 1 3.25027 5.66378 7.15725 22
68 1 5.79557 -18.1687 -3.52891 9
69 1 5.15037 13.5581 10.958 10
70 1 -12.4199 2.40302 -9.50712 10
71 1 -8.66426 9.18001 -13.0685 9
72 1 6.84786 2.863 10.3954 19
73 1 12.856 0.312117 -10.7596 21
74 1 9.07037 -10.5086 -0.848082 19
75 1 -14.8063 -2.22696 7.83376 10
76 1 1.72229 17.8697 -1.31922 5
77 1 7.22115 -3.76489 13.9456 13
78 1 -9.34105 -11.3688 9.34355 19
79 1 -7.41281 -2.57267 -1.6338 20
80 1 12.5554 3.31012 2.66314 17
81 1 8.27941 -6.13229 0.382365 19
82 1 -2.52398 12.2036 10.1755 12
83 1 8.29139 -1.1007 11.8487 15
84 1 -5.82691 -5.19126 1.93448 23
85 1 -4.05652 -7.40038 -10.5959 21
86 1 -12.1013 9.09584 8.99994 9
87 1 -4.36355 8.29671 -2.47487 22
88 1 -5.1885 5.81457 -8.30586 19
89 1 6.59736 -2.84735 -6.43965 20
90 1 9.64646 13.6027 -9.85505 15
91 1 9.76786 -8.84199 2.29342 18
92 1 9.26853 -10.0132 11.3863 7
93 1 -1.98936 15.4982 -6.35507 11
94 1 -11.3908 12.2035 6.30854 6
95 1 -6.7585 -6.54036 14.2653 10
96 1 -3.00792 5.69925 4.091 22
97 1 0.63838 -12.6647 12.0017 14
98 1 14.0511 -7.86239 -6.02326 12
99 1 -10.3513 2.96826 3.56436 18
100 1 -7.76397 -13.1174 3.46893 17
101 1 10.5778 -11.3387 -3.02769 16
102 1 6.37386 0.392179 -7.94438 20
103 1 -4.03404 -1.45795 -16.5719 14
104 1 3.01165 9.54436 6.14035 22
105 1 -3.91117 5.19756 -11.2547 18
106 1 6.16368 10.2473 16.634 12
107 1 5.06775 10.4856 -8.75694 19
108 1 -11.0422 11.169 -0.0524686 14
109 1 1.58482 8.00231 1.09152 23
110 1 -3.0771 -17.2264 13.1861 8
111 1 18.2727 2.97972 10.2917 11
112 1 -0.367257 -4.68134 -8.83122 20
113 1 4.46362 -8.11957 -8.18498 20
114 1 1.48753 2.68486 7.29084 22
115 1 5.48243 -1.55601 16.5538 12
116 1 -7.57895 -8.03664 -2.19728 20
117 1 6.34511 -8.90007 3.52556 22
118 1 -8.58215 -11.0283 -3.39332 16
119 1 15.0831 -9.81784 -1.14456 7
120 1 0.244488 5.19613 5.36605 21
121 1 11.8499 10.0277 -14.0701 8
122 1 11.5061 16.191 -7.71699 8
123 1 -4.05937 -15.6078 10.0967 15
124 1 -7.68474 -15.397 10.7548 13
125 1 11.1754 -7.44103 -14.155 10
126 1 7.02473 3.02793 -2.61316 21
127 1 12.4788 -8.93716 -4.24891 16
128 1 0.460447 -19.6244 5.91781 8
129 1 -6.64424 -14.0461 0.186041 14
130 1 13.8866 6.51945 12.5486 13
131 1 16.2681 -6.21444 -6.67737 9
132 1 -11.5975 -12.1517 2.52456 12
133 1 10.5011 9.36025 4.54734 17
134 1 16.7317 8.36515 -1.31762 13
135 1 -3.84756 -1.00987 14.7164 12
136 1 4.93164 7.23309 -3.95889 23
137 1 -0.381537 14.4177 11.7784 10
138 1 -1.79948 11.5804 -4.87019 18
139 1 2.99165 -4.22216 -13.3263 18
140 1 9.69234 -12.5237 -8.22686 15
141 1 2.91855 10.9099 -13.4608 13
142 1 5.4276 0.107651 9.04005 16
143 1 5.63968 -1.95817 -18.0865 10
144 1 3.13163 8.88169 -5.92882 22
145 1 14.71 -0.9843 -5.19764 14
146 1 -5.44864 10.1156 -5.31078 21
147 1 0.706443 14.2658 -5.96386 17
148 1 7.86956 1.35419 -10.613 20
149 1 12.3809 -6.1679 7.5456 17
150 1 -4.34593 3.66754 -6.47996 21
151 1 -9.22817 10.8544 10.8376 10
152 1 15.8985 8.30721 -10.4841 11
153 1 9.5296 12.8749 -3.70587 21
154 1 0.0637893 15.7445 -3.11657 15
155 1 12.3942 8.08726 -0.768506 17
156 1 0.631239 11.22 -6.76753 19
157 1 4.027 12.9641 -11.6275 14
158 1 10.26 9.65 -16.999 6
159 1 -12.3167 -12.8225 5.30978 12
160 1 -9.75488 12.5183 -2.48486 11
161 1 -1.38467 -0.242974 -15.1672 20
162 1 5.50164 -8.76808 -15.4618 14
163 1 7.53903 13.6825 5.80693 15
164 1 -1.02524 15.4319 -0.236073 12
165 1 -11.5314 -5.09907 -5.66178 20
166 1 -4.7189 12.7679 -2.95889 16
167 1 14.7655 -1.76236 0.157264 16
168 1 -8.95087 -0.469918 -12.9036 13
169 1 6.17506 1.98145 17.458 15
170 1 6.7385 13.9714 -1.96755 17
171 1 -4.88503 8.19919 4.0844 22
172 1 7.15206 -3.2383 -16.0561 19
173 1 -8.04642 12.4283 8.14107 11
174 1 -2.27437 10.7567 -10.6942 15
175 1 3.28619 -4.22047 12.5094 20
176 1 -8.76615 -5.15796 3.23218 21
177 1 -4.69028 -9.13544 -13.772 13
178 1 -2.38534 13.3124 -8.17989 14
179 1 -7.4048 -12.936 7.65821 19
180 1 1.61986 -14.9888 -4.02416 22
181 1 -6.03833 8.76925 -15.6591 7
182 1 -11.7596 -1.48128 11.3479 14
183 1 2.12559 7.77108 -2.53976 20
184 1 14.5131 9.53207 -6.74534 19
185 1 -3.15205 -2.93611 12.2873 18
186 1 3.16886 -8.97412 8.88884 18
187 1 -8.40477 0.192386 -3.30556 21
188 1 3.98795 14.5574 -3.93984 13
189 1 -1.69684 7.07082 11.4637 22
190 1 13.331 2.43895 14.3557 11
191 1 -2.64621 10.6916 -1.86654 21
192 1 13.3058 -8.22736 -8.83934 13
193 1 -5.44612 10.5742 9.06774 17
194 1 -1.69063 3.69211 -8.22474 19
195 1 14.5344 -6.66003 -0.0387236 18
196 1 -6.01455 -5.60763 5.09602 23
197 1 -11.7261 0.404821 4.94905 20
198 1 -8.03659 -9.09008 7.32997 23
199 1 8.23245 5.32097 13.9423 18
200 1 -13.5899 -1.5383 -1.07262 15
201 1 -1.14729 -17.4843 1.31427 18
202 1 6.69067 -8.69278 0.361583 18
203 1 -1.80084 8.0804 5.68341 22
204 1 -8.76707 0.133562 3.48517 21
205 1 6.98991 13.0249 9.03769 15
206 1 -9.12516 0.0648748 -6.29902 21
207 1 -5.50867 12.8901 -8.5232 11
208 1 -14.3373 -5.27294 -2.70141 11
209 1 -8.77973 -5.89421 9.51624 20
210 1 2.38548 -10.753 2.5695 22
211 1 7.04518 -13.7732 7.27375 11
212 1 -6.79398 14.0541 1.98787 11
213 1 16.4262 3.03893 6.30361 16
214 1 9.23717 -0.807359 -6.46389 19
215 1 -4.80891 -6.90729 -17.1956 9
216 1 3.45978 1.5331 12.4057 18
217 1 6.26647 -16.7144 1.58859 9
218 1 -5.57861 3.1998 -12.9957 22
219 1 5.44505 -11.987 -14.0393 9
220 1 8.16719 3.53911 -16.5306 17
221 1 8.86126 8.81665 -14.3285 15
222 1 -7.91568 -5.72787 -5.96707 20
223 1 0.14964 13.4447 -9.00071 15
224 1 -10.3784 -13.5301 11.3658 10
225 1 14.246 15.4589 -5.43096 13
226 1 -7.16768 -0.3706 15.3306 9
227 1 -6.93586 10.3705 -2.67817 21
228 1 8.18373 -1.11209 8.26682 17
229 1 -6.51626 -6.10761 -13.8811 14
230 1 -0.95818 7.77778 -3.79143 22
231 1 3.05979 7.36495 -9.11654 19
232 1 -2.51616 -11.5703 10.3195 20
233 1 -11.8881 3.25471 6.58984 12
234 1 -7.51031 2.10502 8.62254 20
235 1 1.59863 -11.9344 -9.80146 19
236 1 -1.11321 -11.0332 0.837417 21
237 1 10.4853 -14.1814 -0.856272 11
238 1 12.1415 8.29459 11.1858 16
239 1 13.1556 9.01753 -9.55792 18
240 1 0.378035 10.1846 -1.41068 19
241 1 -8.53725 -0.0985382 -0.276513 22
242 1 -6.99101 12.4312 -4.7635 14
243 1 2.97351 4.87837 10.2566 20
244 1 3.0595 -18.1635 0.754831 13
245 1 13.3219 -2.19805 -2.6098 16
246 1 5.03266 7.12202 5.28851 22
247 1 -5.69017 5.14527 5.623 23
248 1 -11.5191 -9.58837 -3.42318 14
249 1 7.98758 4.84144 -10.7167 21
250 1 6.74979 2.10435 7.25023 20
251 1 14.0557 11.5862 -10.2102 12
252 1 3.23985 -8.81705 -1.87286 17
253 1 2.06079 0.589135 -14.0548 21
254 1 3.20562 -17.2447 6.16289 12
255 1 13.6086 -1.86907 -8.33155 20
256 1 -10.7211 -2.70464 6.33147 22
257 1 3.8217 -16.9564 -2.11823 15
258 1 -6.86086 -7.42805 -8.85711 16
259 1 11.4973 15.7768 -4.96491 16
260 1 1.14734 -2.28532 -14.8185 22
261 1 4.65331 4.24451 13.4341 19
262 1 19.0039 0.488195 -1.77969 10
263 1 -4.929 -7.93837 3.30482 23
264 1 16.0565 -3.25594 -8.28568 14
265 1 1.14287 -14.772 5.65468 20
266 1 -8.51075 -4.65442 -16.5312 7
267 1 -9.45461 2.17483 -8.25726 18
268 1 -6.15029 -16.092 8.14353 13
269 1 6.85648 -3.54591 10.5388 17
270 1 5.29277 -5.58319 8.9062 17
271 1 -2.00193 -6.93909 -13.8529 20
272 1 2.40922 -5.57058 7.39777 21
273 1 6.71287 5.11153 -14.3087 21
274 1 8.31862 3.58178 2.67994 20
275 1 -9.14342 -11.3692 5.67901 22
276 1 3.72895 9.16187 3.12091 19
277 1 -6.16369 -6.91074 11.603 19
278 1 -6.0884 -10.6276 -8.85906 15
279 1 -3.97156 -1.65225 -13.6462 21
280 1 -2.50589 4.09995 -15.2976 15
281 1 -3.94748 -11.2311 -10.8173 15
282 1 -2.06097 -7.73686 1.56962 22
283 1 13.9221 -4.88959 -14.1278 10
284 1 15.1962 3.35273 -7.37218 15
285 1 12.3311 4.32691 7.66239 17
286 1 -7.6265 -8.82511 10.5817 22
287 1 -4.29712 -10.8591 -0.198089 18
288 1 6.8173 4.98924 18.094 11
289 1 -5.8296 -18.5397 4.6145 8
290 1 0.0975351 -13.2923 -1.05042 18
291 1 3.95203 14.1665 -7.96897 14
292 1 13.1206 3.62875 -9.41805 18
293 1 -2.92651 -4.84114 -16.8221 15
294 1 -11.6437 -9.99218 11.7029 10
295 1 9.05546 11.0239 15.1722 13
296 1 2.11259 -13.6378 1.58876 18
297 1 -1.38845 -9.20038 -9.90748 18
298 1 -10.5408 5.1182 -8.97737 14
299 1 11.3379 4.59568 4.64909 18
300 1 -10.0057 -3.15853 -12.2825 10
301 1 0.143733 8.22729 -10.5965 21
302 1 -3.4239 -5.42449 6.95943 23
303 1 4.32948 -11.2155 -8.38952 18
304 1 -2.49516 14.0488 -3.30426 16
305 1 0.872437 8.52095 4.09984 23
306 1 17.2062 -4.95196 4.40382 13
307 1 -7.74395 -2.77885 4.82394 20
308 1 -3.80825 -8.91901 10.9985 20
309 1 -7.53477 8.7596 9.25616 20
310 1 7.58923 -6.14313 -13.4748 17
311 1 14.3274 7.42211 -3.91384 20
312 1 8.06962 -11.6129 2.357 17
313 1 -3.50724 -6.47928 9.84684 22
314 1 -15.0052 -5.02407 7.5954 12
315 1 -0.326782 -16.5414 -5.25341 18
316 1 -5.37308 4.43826 12.3086 19
317 1 -4.94961 4.76172 15.5787 10
318 1 -13.9715 -4.20447 10.5399 14
319 1 -13.7501 -7.56434 9.37005 13
320 1 9.75122 -3.35113 -4.43459 18
321 1 -10.4725 -8.30666 9.0644 22
322 1 10.2853 2.31461 -6.87038 18
323 1 9.88204 -16.9779 -7.95355 5
324 1 8.43866 15.2104 -6.46487 16
325 1 -8.95908 10.0582 -4.83362 18
326 1 10.1858 9.90062 9.11038 18
327 1 -10.8419 -2.42924 3.23863 21
328 1 7.00735 -18.5209 -6.99844 4
329 1 -5.37639 10.2642 -0.0711285 19
330 1 -4.49993 2.48753 3.62327 20
331 1 8.8526 -11.2629 7.99344 12
332 1 15.55 -5.23884 7.54483 13
333 1 -0.0640893 5.27644 8.70118 23
334 1 -9.74168 -7.4823 -4.30564 21
335 1 1.34086 -3.89308 14.8858 12
336 1 -1.58952 8.12947 2.64329 20
337 1 4.36088 7.23227 18.3817 8
338 1 -4.66646 14.3387 -6.03644 10
339 1 1.94011 -1.01299 -17.8043 15
340 1 -4.99631 0.595796 -7.9377 19
341 1 7.81189 -11.6109 -10.8168 14
342 1 -7.01286 1.46394 12.3162 19
343 1 -13.1117 2.80296 2.55679 13
344 1 -3.90906 -3.9546 -8.51944 18
345 1 -2.55888 11.0149 0.917816 21
346 1 10.2496 -3.52609 6.33828 17
347 1 -10.1596 -14.0812 2.13929 10
348 1 8.71681 -6.28108 7.05454 18
349 1 -7.24271 -12.3887 10.982 19
350 1 -10.0419 2.7557 0.0915778 24
351 1 -1.95075 -3.51863 8.72194 20
352 1 1.76997 -12.3253 -6.33099 20
353 1 -6.60827 -2.78947 -7.9962 20
354 1 9.41115 5.26631 -14.8997 19
355 1 5.31808 13.3007 0.818782 14
356 1 -12.0184 2.24788 -6.085 18
357 1 6.25465 -3.61369 -12.0671 19
358 1 10.3904 6.8801 -11.4018 19
359 1 -3.08045 -17.8606 -3.87443 13
360 1 -12.6625 -8.16787 -6.34246 15
361 1 -2.61091 -8.63703 -1.62187 24
362 1 9.62105 5.3122 16.1215 17
363 1 17.6655 -0.415112 -4.10909 13
364 1 -7.79753 -1.51938 -15.0546 13
365 1 8.50367 16.2882 -3.62637 13
366 1 -14.8129 -2.75078 -4.48955 12
367 1 -7.98293 4.77236 0.282715 23
368 1 -7.36445 7.56251 -0.9928 24
369 1 -2.87764 5.1565 7.20296 22
370 1 12.4247 1.86914 9.57788 20
371 1 8.45008 -4.91682 -10.3131 19
372 1 10.5772 -2.63554 12.9392 13
373 1 15.5464 -0.228095 -10.082 15
374 1 -2.41068 -18.4993 -0.827265 15
375 1 0.184084 -10.193 -4.43536 22
376 1 -1.8155 7.81875 -0.581409 21
377 1 -10.0837 2.80594 -3.556 22
378 1 8.6714 -13.4433 -3.31721 14
379 1 18.0778 1.84249 3.41767 13
380 1 -7.3339 -2.23241 -4.94932 19
381 1 -4.91707 -8.15656 6.44628 21
382 1 -8.50302 -9.64027 13.5394 11
383 1 -1.08418 13.6118 1.98325 16
384 1 -7.60867 -10.6884 -0.370084 19
385 1 8.51901 8.08982 12.9821 20
386 1 -8.0514 7.0934 -4.37244 21
387 1 1.84553 10.1664 -8.8246 15
388 1 12.2567 11.786 3.56111 15
389 1 -14.1069 -8.45491 -3.2467 11
390 1 -0.0620653 -12.8255 -4.07396 18
391 1 -11.1798 -3.12172 9.50928 19
392 1 -8.34627 12.2509 -0.0661733 17
393 1 5.35721 -11.1361 4.57095 20
394 1 -4.74713 -16.9363 -1.10502 13
395 1 13.2923 8.07612 8.03453 14
396 1 12.2491 7.06814 -14.2766 15
397 1 -7.40158 5.57882 -13.0638 21
398 1 -0.595107 10.5801 -13.1503 14
399 1 -6.36928 3.35273 -9.98353 20
400 1 0.843552 -15.7044 3.16506 20
401 1 13.7381 6.43016 2.73161 15
402 1 0.995858 8.3201 -14.1562 19
403 1 -2.95564 -0.401067 7.01797 22
404 1 -14.6643 0.77049 0.266105 10
405 1 -8.09727 2.38316 5.55861 20
406 1 -4.48012 -14.1486 5.95373 19
407 1 3.1724 -5.51254 -6.78405 19
408 1 10.2217 -9.01315 -11.2262 14
409 1 -11.6864 0.599999 1.63145 22
410 1 -9.20018 -1.22324 13.0522 15
411 1 -8.00225 4.64738 3.60933 22
412 1 -0.526383 -6.25867 8.86607 18
413 1 -11.2321 2.86248 -12.4206 10
414 1 10.3331 -9.45275 -6.48043 18
415 1 1.47212 -7.68486 -9.97609 18
416 1 -1.69473 -10.4571 12.9036 16
417 1 5.58621 -5.62676 -5.32316 22
418 1 -8.36704 2.42078 -14.5681 14
419 1 6.44437 -13.4997 -0.053561 15
420 1 7.42776 6.70803 -6.15221 19
421 1 -12.2404 8.29124 6.30013 11
422 1 -0.592472 -1.25833 15.1463 15
423 1 -9.44849 -5.02482 -9.79474 11
424 1 -9.02005 -5.68748 6.33774 24
425 1 9.99939 -5.47142 13.1154 8
426 1 9.75787 1.65174 0.189401 18
427 1 5.61586 -1.50704 -10.2201 20
428 1 14.4701 -6.26005 4.75472 14
429 1 17.1964 7.40291 -4.73716 16
430 1 -2.02435 1.20585 11.8451 19
431 1 4.20713 10.3211 -3.62433 22
432 1 10.5564 -5.54743 9.42342 14
433 1 -3.75166 -11.6056 -5.20124 20
434 1 0.212756 10.7429 15.5731 11
435 1 -5.25588 12.9387 5.52022 14
436 1 -1.97727 -14.3078 -8.72246 12
437 1 11.511 11.8648 -1.35199 16
438 1 5.91795 4.99326 8.19507 21
439 1 -4.30167 1.78362 10.1211 21
440 1 -5.38271 -10.0501 -2.77279 21
441 1 -8.07554 4.55063 13.5883 11
442 1 -4.863 -6.82283 -7.43654 21
443 1 -7.48627 7.14862 6.45424 20
444 1 -3.3196 -9.06246 -7.54833 20
445 1 -0.271347 -11.5887 -15.0824 11
446 1 -1.70009 -14.1007 6.39374 17
447 1 -5.02864 -2.75843 6.64824 22
448 1 14.8201 0.870252 3.60345 19
449 1 -3.07328 -6.32534 13.2613 15
450 1 -8.2032 7.07997 -14.96 10
451 1 8.23816 7.76875 -0.336051 23
452 1 -4.08721 -13.9338 -0.837664 18
453 1 1.384 2.42934 -5.81496 19
454 1 0.21492 10.8015 1.76758 21
455 1 0.336476 7.62069 -7.28869 20
456 1 -1.83704 8.4761 8.94804 19
457 1 -10.6321 -2.55384 -0.136183 20
458 1 5.56927 16.2514 -6.20171 11
459 1 10.2 12.5462 -6.19052 19
460 1 -6.12404 -4.94298 -10.2578 16
461 1 3.84426 4.7966 16.6747 18
462 1 1.07672 -14.7438 -10.5981 10
463 1 9.95183 -3.97751 -13.0492 21
464 1 6.5732 -11.1126 -2.50514 16
465 1 -11.9957 10.6696 3.20978 12
466 1 1.49648 7.45517 11.1359 16
467 1 9.29304 9.83218 -2.10975 21
468 1 6.3678 10.598 -0.440838 25
469 1 -5.52787 7.25413 -10.6731 19
470 1 4.39973 2.69938 -7.52553 22
471 1 3.22022 -8.50645 5.2756 24
472 1 -11.4541 -5.99031 -1.85147 21
473 1 1.99808 13.0431 1.21521 14
474 1 -1.44124 -0.0150419 -9.10948 19
475 1 9.2749 4.81595 -0.265656 23
476 1 7.19961 12.3154 -10.5618 12
477 1 11.1317 -6.69971 0.646604 20
478 1 17.1135 11.9858 -0.476679 9
479 1 0.934825 -1.38751 -9.47912 18
480 1 2.6696 -12.2241 -0.672863 15
481 1 3.08706 -13.0695 4.4424 18
482 1 2.82377 -11.7973 10.088 18
483 1 -7.9202 -0.0295735 -9.71337 16
484 1 -10.5702 -14.8951 4.9841 13
485 1 -0.541884 -7.70603 -6.95141 20
486 1 13.7607 9.20024 4.8716 16
487 1 3.16307 1.08467 -9.25723 20
488 1 4.99716 -4.39693 14.9273 13
489 1 -10.2986 2.54898 8.40061 17
490 1 0.534888 -19.9941 0.291945 11
491 1 -11.7743 -5.20217 1.24765 18
492 1 16.265 -3.56031 -4.96982 14
493 1 9.37589 -4.03747 -1.37226 18
494 1 -4.58368 2.74419 -3.12642 19
495 1 2.26106 -8.10484 -5.0031 21
496 1 5.39407 2.94723 -10.3713 23
497 1 14.7554 -7.12596 -3.11736 12
498 1 -0.624114 -4.60094 13.3577 16
499 1 12.0592 16.5709 0.906904 10
500 1 -1.11753 -2.71561 -17.3372 14
501 1 11.2414 -4.60477 -15.6911 12
502 1 -6.27909 -6.40077 8.37589 21
503 1 -0.0321241 13.0219 -1.10401 19
504 1 -5.44625 1.28489 -14.9502 18
505 1 -14.8745 0.755447 5.88987 9
506 1 -0.252279 -9.70365 -17.5559 8
507 1 -5.12385 -14.5366 12.5897 10
508 1 3.35002 8.64639 -11.4353 18
509 1 19.0934 1.69367 6.90119 9
510 1 10.8659 7.7649 -3.04246 18
511 1 -6.47196 -12.8438 -2.52574 16
512 1 0.794147 -10.4564 -1.96486 21
513 1 -1.23887 -3.51561 -14.1314 21
514 1 -9.47324 7.62339 11.2996 11
515 1 2.98139 -4.72071 -10.1232 19
516 1 10.9754 -3.50618 -8.49274 20
517 1 6.14715 9.46506 -6.52817 20
518 1 12.0343 -9.96702 -0.629404 16
519 1 17.7433 4.5897 -7.03 13
520 1 2.14145 5.39533 14.2321 17
521 1 -8.73581 -0.0749026 6.73777 23
522 1 10.0319 13.4345 8.91174 9
523 1 7.59228 0.287737 15.2978 14
524 1 5.04359 0.577207 -12.7721 21
525 1 -5.42872 -4.25308 -5.10824 19
526 1 0.863822 -4.05909 10.7344 21
527 1 5.85153 10.158 7.74295 20
528 1 1.90291 6.08158 -12.3148 21
529 1 -6.57377 10.1815 -10.7174 12
530 1 3.78448 11.856 -5.67243 22
531 1 14.8217 1.32004 11.7308 15
532 1 14.845 2.88506 -11.6535 14
533 1 8.7597 -9.87128 -4.20251 22
534 1 10.1768 10.4946 12.5113 16
535 1 -13.6429 -7.18104 0.0662785 12
536 1 -2.77939 9.0478 -14.5343 11
537 1 0.118209 -1.15883 8.81397 21
538 1 -8.26073 -3.27171 11.3518 23
539 1 -2.45236 7.52839 -8.87932 20
540 1 7.1741 -10.8823 -7.46981 19
541 1 8.14901 -1.85519 -8.84941 22
542 1 2.79163 17.396 -4.34317 8
543 1 -5.44896 -3.55573 -16.1447 17
544 1 6.77276 -13.6508 3.56937 20
545 1 -10.1663 -8.46675 -0.447697 18
546 1 7.2334 7.81757 -12.1666 17
547 1 -7.20939 2.58281 -1.4789 21
548 1 0.347505 1.77415 13.7614 22
549 1 -11.0385 -8.72068 5.5966 22
550 1 5.86998 5.27844 -1.16584 24
551 1 1.68091 -9.506 -7.50578 18
552 1 5.84517 -9.03137 11.2267 11
553 1 9.15706 0.0149458 -2.86332 20
554 1 -7.16286 7.36045 2.27561 22
555 1 3.58023 11.0859 14.5162 12
556 1 6.13706 15.3696 -9.81272 12
557 1 10.2906 -7.04345 -8.92038 18
558 1 6.8915 6.18221 11.0414 21
559 1 3.16514 6.57113 -15.8738 14
560 1 -1.19837 -14.7967 9.19595 21
561 1 2.1448 4.45613 -9.15274 21
562 1 8.75435 -4.05938 -18.4659 8
563 1 5.87964 10.6938 4.47033 23
564 1 11.494 5.34099 -8.54206 18
565 1 4.04836 -7.3149 -12.2942 17
566 1 -2.44836 -11.8259 -2.58176 24
567 1 -14.6871 -5.95991 -6.11851 11
568 1 12.1447 3.1575 -0.130093 18
569 1 15.9513 10.5647 -3.90165 17
570 1 6.19564 -4.96045 -8.51036 22
571 1 11.5762 5.06953 13.8883 18
572 1 5.35517 -9.7783 -5.80514 19
573 1 5.19545 3.67022 -16.969 14
574 1 9.21796 12.1463 3.90382 20
575 1 -7.51464 2.00216 1.97733 20
576 1 11.6633 8.09844 14.5878 12
577 1 15.4929 4.57207 -4.06936 17
578 1 17.3644 -4.4696 1.25416 12
579 1 16.8974 5.06755 -10.385 12
580 1 15.0677 -0.312047 7.17937 19
581 1 17.7547 6.26739 11.314 7
582 1 2.6418 -11.0786 6.3369 21
583 1 12.5781 9.71121 -3.21982 17
584 1 4.36581 -0.517807 19.3384 10
585 1 16.8235 -0.828372 -7.08057 13
586 1 9.61886 7.08939 10.6605 21
587 1 -10.1789 -3.03203 -6.29258 20
588 1 16.0975 3.60209 2.7068 16
589 1 12.4827 -4.6445 2.39959 16
590 1 -8.59191 4.98265 10.8529 18
591 1 4.66214 8.07639 12.0615 18
592 1 15.7103 4.07389 12.1597 14
593 1 3.75626 7.89689 9.22148 19
594 1 3.75916 10.9681 9.35772 19
595 1 5.81907 4.48308 5.17449 18
596 1 -2.3695 -18.9155 3.70072 13
597 1 -2.86748 8.55438 -5.99424 17
598 1 11.9554 11.0813 -7.83162 18
599 1 13.7564 -2.54977 -12.1346 15
600 1 4.40412 12.1838 -1.66701 18
601 1 -0.980159 -11.0723 -7.48489 21
602 1 14.7584 -5.24822 -10.6449 11
603 1 -10.9524 4.92341 1.69805 19
604 1 -5.99653 0.240823 -12.1137 23
605 1 -0.864285 -12.8721 3.12839 21
606 1 -0.861859 -0.404948 -12.167 20
607 1 -14.2924 1.17836 -3.37611 12
608 1 12.628 -8.5051 2.36603 13
609 1 16.1882 6.84946 4.31428 11
610 1 0.456377 -8.71785 6.87921 21
611 1 -11.8134 -0.328262 -11.4069 13
612 1 0.964466 1.27388 -16.3918 20
613 1 1.35566 0.799772 19.7834 7
614 1 14.313 9.23927 -12.2696 11
615 1 11.5113 0.733362 11.9931 17
616 1 9.68694 5.09063 -6.02671 19
617 1 13.9352 15.2455 -0.732583 11
618 1 4.03707 -14.4887 -8.50462 14
619 1 -8.46145 -3.51405 14.7262 11
620 1 13.509 -3.77963 5.72499 18
621 1 -2.13292 9.50556 14.4258 10
622 1 10.6573 10.132 -10.7956 13
623 1 -9.63532 9.13754 -2.24504 19
624 1 6.82332 8.39996 -2.752 22
625 1 -7.1293 -15.6683 5.04301 16
626 1 15.7199 -7.62136 2.41997 11
627 1 7.24123 13.4273 2.77809 15
628 1 -1.60857 2.22817 8.52804 19
629 1 -10.1409 -11.7419 -0.628607 12
630 1 -6.20018 -2.86628 -12.7453 19
631 1 10.6491 -1.1984 9.98704 17
632 1 0.187664 -9.27859 9.87502 22
633 1 6.81656 1.58496 12.7046 17
634 1 -10.5413 13.5841 1.58715 9
635 1 10.5766 1.38989 3.59595 18
636 1 14.3678 1.4967 0.62542 18
637 1 10.3627 0.855435 -16.5825 11
638 1 -8.07054 -3.06283 8.10694 24
639 1 12.1487 -1.87932 -14.6617 16
640 1 -2.12617 -5.41493 -6.33496 20
641 1 11.8349 -14.3414 -8.96059 9
642 1 11.5964 -0.939811 7.54487 19
643 1 7.18308 1.6523 4.12509 17
644 1 -2.41566 1.80716 15.1877 16
645 1 7.07069 9.70595 10.5891 21
646 1 3.1195 -7.62757 13.5128 14
647 1 -4.05176 9.65094 11.6605 15
648 1 -2.00752 -2.95379 -11.0704 22
649 1 -5.49619 -1.55651 11.783 18
650 1 5.58714 -1.26435 13.3618 20
651 1 -10.1358 -15.7617 8.81865 8
652 1 16.6361 5.87074 0.917174 9
653 1 3.95912 -16.1475 -5.0165 16
654 1 -2.25246 5.77774 -5.98481 20
655 1 14.7621 13.8563 1.59983 12
656 1 10.4561 15.0581 3.89802 10
657 1 6.88378 0.281076 -15.9907 19
658 1 6.8336 12.9569 -7.33158 22
659 1 8.89374 6.91866 2.76274 21
660 1 -7.76604 -7.57625 1.55825 21
661 1 2.00644 2.23164 -19.4195 8
662 1 -8.51357 12.4023 3.31022 18
663 1 10.7303 -2.08057 -11.2304 21
664 1 8.82859 -1.1395 4.59327 18
665 1 13.7933 5.85966 -11.0233 19
666 1 15.2523 13.577 -3.41816 13
667 1 -5.19385 4.48945 2.08331 21
668 1 8.73889 5.70314 -3.04404 20
669 1 12.2414 5.19468 16.7314 9
670 1 9.58823 2.1524 13.9755 16
671 1 -0.244972 -16.2253 11.2815 13
672 1 -1.13798 6.38997 -13.2561 22
673 1 8.81797 11.0759 6.99724 20
674 1 13.2228 -5.48271 -8.46232 19
675 1 4.09879 2.63591 8.9495 20
676 1 12.8876 13.8131 -7.95114 17
677 1 8.83016 5.78901 5.52575 15
678 1 15.3453 -4.13843 -2.06201 17
679 1 7.88967 7.89251 16.2513 13
680 1 -11.6548 -5.02351 4.52095 21
681 1 1.09378 -16.0944 -0.513939 20
682 1 3.76681 -2.28814 -8.03348 19
683 1 -3.80759 14.7351 0.0729796 13
684 1 2.72433 5.92761 3.55042 23
685 1 6.55719 -8.1518 -3.31732 17
686 1 4.62483 7.78365 -0.0602259 23
687 1 -14.7828 -5.2419 3.02852 11
688 1 3.46801 9.58946 17.2681 11
689 1 -0.881737 3.22916 -17.8839 13
690 1 -4.62194 6.83034 -13.9614 20
691 1 4.81636 -13.8504 -2.92986 17
692 1 11.6356 7.97014 -6.1617 18
693 1 5.49825 -6.60809 5.6015 19
694 1 0.0385147 5.6261 1.77026 23
695 1 -10.2124 1.8629 11.7569 11
696 1 7.74844 -0.950751 -12.5524 23
697 1 5.31647 -11.0506 8.38759 15
698 1 2.20963 11.4518 4.15286 18
699 1 2.12851 -1.74157 17.5823 11
700 1 -6.51534 -8.93255 -11.9592 9
701 1 -2.63849 -9.34672 -16.1578 12
702 1 -4.74622 -13.2704 -7.84337 12
703 1 0.636855 12.8839 -11.7677 11
704 1 8.45178 -5.83557 -3.79587 21
705 1 -3.50788 10.375 6.3697 21
706 1 6.87524 -8.2123 -9.96232 19
707 1 7.45105 -15.7998 -1.31377 11
708 1 6.95997 -9.24459 6.24916 17
709 1 18.9999 1.81833 -6.02568 8
710 1 5.22132 -13.3558 -5.98562 15
711 1 -11.6556 -5.61315 7.97065 21
712 1 -1.63152 -14.7492 0.779752 21
713 1 -6.67416 -9.12899 -6.07927 22
714 1 -9.26045 -0.327112 10.1377 21
715 1 -4.06498 -16.741 2.15003 18
716 1 16.9858 5.15913 -1.88983 14
717 1 -4.34867 12.9399 2.45079 18
718 1 -4.49164 2.6027 7.05142 23
719 1 -8.81265 9.80741 1.22331 25
720 1 12.3861 -1.07325 4.97855 18
721 1 -12.5684 -2.28583 -6.30791 18
722 1 0.625418 9.81836 -4.49639 19
723 1 7.44177 3.61879 -8.12292 21
724 1 8.61981 12.9796 12.0079 11
725 1 10.656 2.95695 -3.449 22
726 1 -10.2619 4.95447 -5.84868 21
727 1 -9.77129 -7.3968 -7.7858 18
728 1 -1.59714 7.33304 16.009 10
729 1 6.65124 2.10846 -14.1636 19
730 1 11.5054 13.8037 1.36035 18
731 1 -2.90407 -0.838096 10.2737 18
732 1 -1.93879 -14.3354 -5.60997 23
733 1 -4.08264 -17.0888 6.21688 15
734 1 -2.06259 -9.39415 8.15642 19
735 1 12.3825 10.6463 7.1645 12
736 1 3.54441 -9.22997 -10.8216 19
737 1 -5.50064 5.14067 -1.80401 21
738 1 6.42557 8.67139 2.05389 19
739 1 -8.10915 -8.14223 4.85023 22
740 1 11.794 4.38893 -13.3029 20
741 1 1.20332 -15.4001 -7.41734 16
742 1 3.94001 -16.3271 3.53041 17
743 1 2.75288 -20.2068 -2.1842 11
744 1 10.6654 3.50614 -10.5686 20
745 1 10.1942 15.1805 -1.40508 18
746 1 2.58178 2.74098 -11.7387 20
747 1 2.26362 -0.701671 14.3662 19
748 1 -0.600397 4.61881 -11.0861 17
749 1 -10.2053 6.49773 -12.0187 11
750 1 -8.61136 -4.52721 -3.20126 23
751 1 2.55613 15.0426 -9.89983 11
752 1 12.6563 -3.88677 -0.219335 20
753 1 2.80928 -7.05481 -16.1876 11
754 1 -5.1659 -7.65269 -0.127147 20
755 1 14.2243 6.43004 -7.17862 22
756 1 14.6642 -3.18464 2.83382 18
757 1 -7.15707 8.15834 12.2117 13
758 1 10.2961 -8.58833 5.70379 14
759 1 18.2798 -2.86001 -2.13774 8
760 1 13.4909 -1.23636 10.5838 15
761 1 -0.412507 10.9684 6.38869 19
762 1 -5.44343 1.77696 15.2325 14
763 1 -1.88581 4.46778 13.2631 21
764 1 1.0709 -17.6226 8.17407 12
765 1 9.76979 -3.54251 2.30058 18
766 1 5.60855 6.80924 14.2804 18
767 1 -13.5769 -2.31786 1.83603 17
768 1 10.1103 -7.80094 -2.35635 21
769 1 -7.72077 10.6247 -8.03875 16
770 1 6.30168 5.56044 1.93604 24
771 1 3.82834 -14.2619 7.71102 16
772 1 3.5792 2.74079 18.6045 14
773 1 -2.16881 13.424 6.79619 12
774 1 0.0825998 -10.5975 4.77459 21
775 1 -5.76125 -5.23722 -2.03803 20
776 1 3.96554 2.14224 15.1843 18
777 1 -11.9778 -3.05232 -3.26993 19
778 1 1.87039 11.7697 11.8647 14
779 1 8.6275 12.4397 -0.00253788 19
780 1 -10.9672 -13.2023 8.34061 14
781 1 -2.11023 -15.6892 4.09665 20
782 1 12.9872 -4.54323 10.9896 12
783 1 16.1519 -2.15323 10.8172 9
784 1 7.02174 7.58724 7.89644 19
785 1 0.336415 5.66702 -4.50099 20
786 1 1.11098 -6.20791 -14.2181 19
787 1 -4.79362 -1.51584 -9.91664 20
788 1 -5.1449 -3.75718 9.84311 21
789 1 -2.59781 11.5399 4.13544 20
790 1 17.0937 -0.316346 1.46649 14
791 1 5.46655 5.50799 -8.54653 19
792 1 -4.26195 6.99099 13.5661 19
793 1 9.73331 3.41987 11.6241 19
794 1 6.73637 -9.19481 -12.6193 16
795 1 -4.36584 -13.1912 2.75319 22
796 1 -3.82487 -2.02228 -5.9692 22
797 1 17.0355 -1.49947 4.10814 13
798 1 9.03325 2.58746 -13.0281 19
799 1 -0.0747087 4.46657 15.9985 15
800 1 10.9352 -11.7003 -11.3209 10
801 1 9.81965 6.29697 -17.9981 10
802 1 -2.44181 -8.67745 -4.69493 20
803 1 11.8885 4.11544 -16.5509 11
804 1 12.0729 0.573713 -1.38538 16
805 1 2.1901 -6.49679 10.4555 21
806 1 -0.490139 -6.47975 -16.9732 12
807 1 12.1467 16.7906 -2.56244 11
808 1 1.00644 -7.6941 3.62377 20
809 1 -11.5101 8.03643 2.76305 17
810 1 12.6047 4.53341 -5.27312 19
811 1 17.4988 5.70481 7.60123 11
812 1 0.696511 -3.73852 -11.6224 21
813 1 -9.06448 9.09023 4.4101 20
814 1 14.4902 6.37394 6.37254 15
815 1 15.6204 12.8656 -6.59455 11
816 1 6.54441 7.05779 -16.8123 14
817 1 12.2972 -5.18173 -2.98416 23
818 1 -11.5057 -0.32176 -4.62412 22
819 1 11.5032 5.87661 1.42889 16
820 1 -9.82054 -10.0936 2.62825 20
821 1 -6.77191 8.07174 -7.24397 23
822 1 8.99403 4.96005 8.54949 21
823 1 -11.625 -0.355999 -8.48037 19
824 1 -9.95076 6.31443 4.64019 17
825 1 -3.61719 2.23119 -10.1095 18
826 1 10.7065 0.271943 -9.14157 19
827 1 -9.6604 -10.1607 -6.18742 14
828 1 8.85243 -4.29463 -7.07892 24
829 1 -13.3381 6.18936 0.724992 10
830 1 -5.32353 -7.11457 -4.09526 20
831 1 10.1631 7.36882 7.33278 19
832 1 -3.40865 -11.0466 5.53357 19
833 1 9.32219 2.82722 17.1511 12
834 1 17.0678 -2.73081 7.2477 10
835 1 12.4495 -1.25246 1.62082 20
836 1 -8.92841 4.85278 -2.20487 22
837 1 2.45526 8.61942 13.981 16
838 1 4.92806 5.69707 -11.8256 20
839 1 2.85242 -10.5472 -16.4086 10
840 1 -6.04141 10.5402 2.70245 20
841 1 -5.52909 -9.94709 8.84378 19
842 1 12.9308 12.3715 -4.74963 22
843 1 -4.6313 7.70361 7.24582 21
844 1 12.9609 -3.86465 -5.72561 19
845 1 7.95641 -6.95731 10.4117 15
846 1 -0.192268 6.45516 -15.7664 13
847 1 8.76492 7.61166 -9.02321 15
848 1 -5.99607 -0.574308 8.68867 19
849 1 15.2439 6.46496 9.71402 17
850 1 -3.59781 -4.76262 -12.9166 18
851 1 14.6182 10.8634 -0.607832 18
852 1 -12.4522 3.78081 -1.6624 18
853 1 -4.31618 -12.7656 8.46795 18
854 1 5.8863 10.779 -13.2778 10
855 1 7.01785 -3.74244 7.14901 20
856 1 -1.61616 -15.3997 -2.3807 24
857 1 -2.88772 16.0594 3.00372 7
858 1 -12.3134 7.03228 -1.45711 13
859 1 13.0537 1.18905 -7.62249 16
860 1 1.78102 -11.427 -13.0311 15
861 1 -6.64358 10.3989 5.67159 22
862 1 17.1356 7.49915 -7.90902 10
863 1 -5.90183 -0.143091 5.29444 20
864 1 9.47144 -1.44511 -14.8524 15
865 1 -1.04583 -12.9537 -11.0252 12
866 1 3.86983 -11.06 -3.89916 16
867 1 -5.01725 7.06167 10.3211 21
868 1 13.4086 -13.1109 -1.39976 6
869 1 1.73158 3.92474 -16.2888 16
870 1 14.5655 2.58625 -2.36635 15
871 1 8.72743 10.0234 1.40776 21
872 1 -0.00442248 -18.7254 -2.87887 17