ITEM: TIMESTEP
43000
ITEM: NUMBER OF ATOMS
2000
ITEM: BOX BOUNDS pp pp pp
-30.0 30.0
-30.0 30.0
-30.0 30.0
ITEM: ATOMS id type x y z Coordination
1 1 -14.9694 -1.31056 -5.46894 16
2 1 -18.9907 -0.40295 7.2504 6
3 1 -19.405 -3.99725 7.75144 5
4 2 -15.5982 -0.502722 -3.88252 17
5 2 -17.8165 0.961111 7.54908 8
6 2 -18.9395 -2.20647 7.30955 8
7 1 6.49475 -14.5783 -9.58606 10
8 1 3.94668 -15.206 -11.6551 8
9 1 -1.33841 -15.3391 5.57104 14
10 2 2.17258 -15.8535 -4.16285 15
11 2 2.40482 -15.7802 -7.42863 10
12 2 -0.782511 -15.106 3.61083 14
13 2 -0.562787 0.106915 -18.6162 8
14 1 0.960711 -4.58723 -17.4467 14
15 1 0.748549 -1.3862 -19.0218 8
16 2 1.89747 -0.820099 -17.6841 14
17 1 -9.25174 -13.075 -1.82309 14
18 1 -13.148 -6.05222 -10.9536 12
19 1 -11.5409 -8.37081 -9.53023 14
20 1 -12.1614 -6.50892 -6.70878 17
21 1 -15.4047 -6.55334 -5.45907 11
22 1 -12.1729 -9.04409 -1.40743 15
23 1 -12.4483 -6.40175 -3.35538 18
24 1 -15.6515 -7.35191 -1.99252 13
25 1 -14.9768 -10.2416 -0.577326 9
26 1 -12.5112 -0.398037 -13.1889 10
27 1 -13.5899 -3.00112 -11.0118 13
28 1 -12.3223 -0.125509 -10.0363 18
29 1 -14.6851 -1.47877 -8.57862 12
30 1 -12.5161 -3.47412 -8.66929 20
31 1 -14.6085 -7.19652 -8.82625 10
32 1 -12.1521 -0.541024 -6.76355 22
33 1 -15.7367 -4.51938 -8.68539 11
34 1 -12.9101 -3.71118 -5.39915 19
35 1 -15.6761 -4.29217 -3.56508 15
36 1 -12.0983 -1.06733 -3.75296 22
37 1 -15.2086 -1.46058 -2.21085 16
38 1 -13.0417 -3.39248 -2.18512 22
39 1 -7.35779 -12.3206 -9.93107 12
40 1 -9.46504 -12.9126 -8.36672 10
41 1 -6.48057 -13.0362 -6.86014 19
42 1 -9.81475 -13.0219 -5.05787 14
43 1 -7.22135 -15.1476 -4.368 13
44 1 -6.39308 -12.29 -3.60332 21
45 1 -10.7516 -10.5486 0.13771 17
46 1 -6.51066 -14.8923 -1.18899 15
47 1 -7.29219 -6.76862 -13.045 18
48 1 -9.69097 -7.28308 -11.6944 16
49 1 -6.38716 -9.44056 -11.2522 17
50 1 -9.76975 -10.2061 -10.7448 12
51 1 -7.27947 -6.72013 -9.78261 21
52 1 -9.1184 -7.51611 -8.16964 22
53 1 -6.39364 -9.62055 -8.14453 23
54 1 -9.30297 -10.326 -7.14371 21
55 1 -7.00336 -6.70195 -6.40825 20
56 1 -9.65794 -7.7949 -4.92839 19
57 1 -7.71399 -9.80888 -4.51103 19
58 1 -10.3343 -10.512 -3.46703 17
59 1 -6.69348 -6.63356 -3.35204 20
60 1 -9.84071 -7.52992 -1.75168 18
61 1 -7.6053 -9.74673 -1.54258 23
62 1 -6.56879 -1.1704 -17.0694 9
63 1 -9.35382 -1.7507 -14.9866 13
64 1 -7.17263 -4.04928 -15.0007 16
65 1 -10.2788 -4.57187 -13.5072 14
66 1 -6.53857 -0.778525 -13.7397 21
67 1 -9.73541 -1.49343 -11.6532 20
68 1 -7.40231 -3.88872 -11.4951 23
69 1 -10.4344 -4.70403 -10.2035 21
70 1 -6.9735 -0.976711 -10.0923 19
71 1 -9.59925 -1.28252 -8.3872 19
72 1 -7.00866 -3.54016 -8.27778 20
73 1 -10.0682 -4.47016 -6.84036 20
74 1 -6.87567 -0.757801 -6.67761 20
75 1 -9.54015 -1.64271 -4.68361 20
76 1 -7.45794 -3.66612 -4.92528 20
77 1 -10.3508 -4.45697 -3.4614 22
78 1 -6.58296 -1.69556 -3.24811 20
79 1 -9.43164 -1.84205 -1.44011 21
80 1 -7.65641 -4.099 -1.67925 19
81 1 -0.973365 -12.1577 -13.1867 14
82 1 -3.05077 -13.5862 -11.9969 10
83 1 -0.979656 -12.1404 -9.82031 18
84 1 -3.50405 -13.1288 -8.44615 19
85 1 -1.57402 -15.3345 -7.89419 11
86 1 -4.3928 -15.4244 -6.20564 14
87 1 -0.599832 -12.039 -7.02022 21
88 1 -3.46315 -12.69 -5.24551 21
89 1 -1.4734 -15.0688 -4.89119 18
90 1 -4.3565 -15.7193 -3.13298 15
91 1 -0.789164 -12.4756 -3.53625 19
92 1 -3.65874 -12.7107 -1.98781 22
93 1 -1.49119 -15.4888 -1.5556 16
94 1 -1.90837 -6.91406 -16.7434 13
95 1 -4.39571 -7.50538 -15.2211 15
96 1 -1.68212 -9.35055 -15.3211 15
97 1 -3.96715 -10.5914 -13.8479 13
98 1 -1.64658 -6.84788 -13.636 24
99 1 -4.38677 -7.33554 -11.7512 21
100 1 -1.87687 -9.42696 -11.9159 23
101 1 -3.77771 -10.6887 -10.2278 20
102 1 -1.51156 -6.64318 -10.3421 20
103 1 -4.42304 -7.55171 -8.40015 22
104 1 -1.01608 -9.54067 -8.31669 22
105 1 -3.78706 -10.4788 -6.8777 21
106 1 -1.26943 -6.71554 -7.0406 21
107 1 -4.41889 -7.46032 -5.17401 20
108 1 -1.64581 -9.61491 -5.00792 20
109 1 -4.24005 -10.263 -3.41849 20
110 1 -0.976721 -6.63735 -3.5594 21
111 1 -3.59068 -6.96454 -1.78447 19
112 1 -1.47464 -9.19934 -1.8476 21
113 1 -4.92378 -4.34949 -16.768 12
114 1 -1.97118 -0.741312 -17.3827 15
115 1 -3.75241 -1.68052 -15.1803 20
116 1 -1.58018 -3.88218 -15.1891 21
117 1 -4.35383 -4.67945 -13.8215 20
118 1 -1.60456 -0.874635 -13.541 23
119 1 -4.18542 -1.90364 -11.8097 21
120 1 -1.96544 -3.92094 -11.7589 21
121 1 -4.53162 -4.71118 -10.2648 21
122 1 -1.2828 -1.02791 -10.2613 19
123 1 -4.10432 -1.57303 -8.44742 21
124 1 -2.0067 -3.52019 -8.68622 22
125 1 -3.85459 -4.70475 -6.8623 20
126 1 -0.799472 -0.901305 -7.04993 21
127 1 -3.88722 -2.02939 -5.19883 21
128 1 -1.52385 -3.75999 -5.20745 21
129 1 -4.61001 -4.28853 -3.35695 19
130 1 -1.08351 -0.973255 -3.62309 20
131 1 -3.50176 -2.06957 -2.00823 22
132 1 -1.32213 -3.88847 -1.85785 21
133 2 -11.8386 -7.18011 -10.7867 14
134 2 -12.5682 -7.7725 -8.12628 12
135 2 -9.71168 -9.15501 -8.88655 18
136 2 -13.2297 -6.3019 -5.12545 16
137 2 -15.4384 -6.34775 -3.64985 13
138 2 -12.9066 -10.3142 -0.15205 13
139 2 -14.7636 -9.0049 -1.85633 12
140 2 -12.8003 -7.2566 -1.47608 21
141 2 -12.8161 -1.33883 -11.5813 13
142 2 -15.0242 -5.74351 -10.0947 10
143 2 -14.8066 -3.0731 -9.73086 13
144 2 -12.9068 -1.23048 -8.52376 23
145 2 -15.2066 -0.339536 -7.14174 14
146 2 -12.282 -4.65674 -7.22304 19
147 2 -15.6081 -6.25518 -7.54145 10
148 2 -12.7481 -1.37844 -5.46817 23
149 2 -14.764 -3.28374 -4.63928 16
150 2 -12.1367 -4.25921 -3.62139 22
151 2 -14.8378 -3.38251 -1.86848 17
152 2 -13.0855 -1.32882 -2.00825 20
153 2 -7.68263 -12.9427 -8.28689 13
154 2 -10.0469 -12.2789 -6.71527 12
155 2 -6.06309 -14.9829 -6.08468 14
156 2 -7.84494 -13.0849 -4.70151 19
157 2 -9.95976 -12.2663 -0.178251 14
158 2 -6.2851 -15.5513 -2.95567 14
159 2 -10.1968 -12.4461 -3.1646 12
160 2 -7.48479 -13.2985 -0.869825 17
161 2 -9.15907 -6.31651 -13.0119 14
162 2 -9.56688 -3.81333 -11.6292 17
163 2 -4.22694 -9.54038 -12.2174 18
164 2 -8.34444 -8.84796 -11.2342 17
165 2 -6.31356 -7.4946 -11.3311 20
166 2 -9.19305 -6.1504 -10.063 21
167 2 -6.0688 -11.2175 -10.4748 13
168 2 -9.1608 -11.8335 -10.0531 10
169 2 -7.07281 -7.68284 -7.99716 19
170 2 -10.0807 -6.82485 -6.62315 20
171 2 -7.37496 -10.281 -6.39134 22
172 2 -10.0788 -9.81608 -5.26633 15
173 2 -7.72758 -7.82147 -5.00099 21
174 2 -10.5696 -6.70213 -3.38864 20
175 2 -6.40343 -10.1653 -3.0903 19
176 2 -10.1184 -9.48155 -1.79731 19
177 2 -7.55438 -7.47337 -1.79885 19
178 2 -6.22429 -3.13795 -16.7805 13
179 2 -9.08454 -3.88429 -15.0238 11
180 2 -7.56405 -1.58709 -15.4022 12
181 2 -10.3067 -0.817557 -13.8186 13
182 2 -6.4849 -5.21922 -13.7056 19
183 2 -12.2765 -4.33773 -10.5369 16
184 2 -7.35979 -1.55549 -11.9379 20
185 2 -10.5697 -0.789921 -9.81395 22
186 2 -6.60717 -4.92004 -9.98199 20
187 2 -10.4649 -3.36592 -8.38696 20
188 2 -7.32787 -1.73652 -8.37996 20
189 2 -10.0557 -0.806946 -6.37318 22
190 2 -7.19896 -4.71328 -6.5394 20
191 2 -9.53044 -3.51293 -4.99567 21
192 2 -7.31427 -1.77164 -4.95639 18
193 2 -10.2169 -0.908088 -3.08771 22
194 2 -6.81056 -4.61878 -3.2974 20
195 2 -9.74123 -3.84273 -1.71826 20
196 2 -7.56093 -1.92102 -1.60653 20
197 2 -0.868941 -13.1658 -11.5292 14
198 2 -3.58509 -12.7669 -10.3589 15
199 2 -3.52497 -14.81 -7.54157 13
200 2 -1.3609 -13.4512 -8.37777 19
201 2 -4.62147 -12.272 -6.79792 22
202 2 -0.392673 -15.9091 -6.34052 11
203 2 -3.40445 -15.2768 -4.68372 17
204 2 -1.38205 -13.0962 -5.36167 23
205 2 -4.53036 -12.525 -3.62911 23
206 2 4.44085 -15.023 -9.71658 11
207 2 -3.50313 -15.7746 -1.54582 16
208 2 -1.90917 -13.073 -1.57604 20
209 2 -4.15918 -6.06987 -16.5529 14
210 2 -3.63615 -9.41618 -15.422 12
211 2 -1.04144 -7.62575 -15.364 18
212 2 -3.77929 -7.10585 -13.6762 20
213 2 -1.23725 -10.2502 -13.6494 17
214 2 -3.03951 -12.3261 -13.2726 12
215 2 -0.89381 -7.71955 -12.1308 23
216 2 -3.41601 -6.43876 -10.2741 22
217 2 -1.75133 -10.3897 -10.0299 23
218 2 -4.46566 -9.41875 -8.42774 22
219 2 -1.54585 -7.52767 -8.65495 18
220 2 -4.42222 -6.56396 -6.77726 20
221 2 -1.76411 -10.5895 -6.89813 22
222 2 -3.91514 -9.41692 -5.21311 19
223 2 -1.80651 -7.66379 -5.06756 22
224 2 -4.74753 -6.35856 -3.40683 20
225 2 -0.764406 -10.3682 -3.41548 21
226 2 -3.99237 -9.5342 -1.62149 18
227 2 -1.57917 -7.20383 -1.77365 19
228 2 -4.89164 -0.481267 -16.4763 16
229 2 -0.498051 -5.96966 -17.3455 10
230 2 -3.58228 -3.60551 -15.3453 20
231 2 -1.94421 -1.60808 -15.5107 16
232 2 -4.70668 -0.821587 -13.5036 20
233 2 -1.16658 -4.74655 -13.3168 21
234 2 -3.76748 -4.01984 -12.0875 22
235 2 -1.99047 -1.89733 -11.9675 21
236 2 -4.99965 -1.16782 -10.3991 22
237 2 -1.29695 -4.53135 -10.0637 21
238 2 -3.95677 -3.72663 -8.71484 20
239 2 -2.14961 -1.53842 -8.42705 23
240 2 -4.92935 -1.01849 -6.54697 19
241 2 -0.831958 -4.82406 -6.70069 21
242 2 -3.69153 -3.88837 -5.23035 20
243 2 -1.47311 -1.56856 -5.3717 20
244 2 -4.62716 -2.04058 -3.39806 19
245 2 -0.786965 -4.33436 -3.56403 22
246 2 -3.58196 -4.33492 -1.63268 20
247 2 -1.57692 -2.04371 -2.15531 22
248 1 -16.3383 -9.8757 2.91262 10
249 1 -13.392 -9.46166 5.16072 14
250 1 -13.3703 -6.23024 -0.103857 20
251 1 -15.2147 -7.20225 1.35073 18
252 1 -17.272 -8.60469 6.19389 8
253 1 -12.134 -7.46915 3.3457 19
254 1 -15.1542 -7.27928 4.83964 22
255 1 -15.6664 -6.54538 7.8901 13
256 1 -12.3256 -6.62401 6.98809 23
257 1 -10.7542 -10.3074 6.5774 18
258 1 -12.9165 -7.22505 9.96577 12
259 1 -16.1945 -4.54346 -0.729662 14
260 1 -12.4056 -0.939516 -0.31877 20
261 1 -15.575 -2.09856 1.36778 15
262 1 -12.7568 -3.71675 1.63971 18
263 1 -16.3323 -4.93767 2.44289 12
264 1 -12.6568 -0.909102 2.8752 20
265 1 -15.6085 -1.93303 4.43376 16
266 1 -13.4615 -4.02737 4.9987 22
267 1 -17.0137 -4.85376 5.75535 14
268 1 -12.7763 -1.64694 6.19872 20
269 1 -15.4809 -2.47557 7.57791 14
270 1 -14.096 -4.52942 8.63988 13
271 1 -12.652 -2.06941 9.52612 20
272 1 -11.0127 -4.48581 12.9081 13
273 1 -12.6189 -1.27236 12.3893 12
274 1 -6.44345 -12.4329 0.339952 19
275 1 -9.35795 -12.8747 1.60982 16
276 1 -6.25222 -15.0143 2.03666 15
277 1 -6.38805 -12.5219 3.41578 22
278 1 -9.39631 -12.8305 4.83053 15
279 1 -6.29214 -14.9015 5.19061 14
280 1 -6.63652 -13.2653 6.93817 17
281 1 -9.37615 -12.1882 8.18171 11
282 1 -6.64868 -11.4562 9.53167 18
283 1 -13.3129 -9.15987 1.5522 17
284 1 -7.45923 -6.81676 0.0502158 18
285 1 -9.41762 -7.7081 1.62411 20
286 1 -7.58574 -9.63201 1.76018 20
287 1 -11.0329 -10.4906 3.24191 19
288 1 -6.48262 -6.83954 3.26817 21
289 1 -9.41234 -7.3327 5.09802 20
290 1 -8.0653 -9.79692 4.80691 21
291 1 -14.0995 -9.59348 8.00074 12
292 1 -6.67338 -6.58051 6.50625 22
293 1 -9.80052 -6.51099 8.43126 24
294 1 -7.68754 -9.27934 8.39024 20
295 1 -10.9204 -9.8928 9.9447 13
296 1 -6.82069 -6.445 9.90822 21
297 1 -9.54936 -7.45472 11.7044 18
298 1 -7.95935 -9.79932 11.7265 14
299 1 -7.30684 -6.90275 13.634 17
300 1 -10.1001 -4.80945 0.101583 22
301 1 -6.68632 -1.22106 -0.104026 21
302 1 -9.43802 -1.91648 1.77759 24
303 1 -7.44891 -3.77128 1.45274 21
304 1 -10.4782 -4.80659 3.46178 21
305 1 -6.86285 -1.00953 3.35784 21
306 1 -10.0098 -1.64883 4.97016 19
307 1 -7.7465 -3.93944 4.76409 22
308 1 -11.0443 -4.05727 6.68333 22
309 1 -6.76949 -1.02133 6.34825 22
310 1 -9.85573 -1.66711 8.11106 20
311 1 -7.83443 -3.81367 8.16599 21
312 1 -10.8663 -4.69498 10.0166 22
313 1 -6.89648 -1.27415 10.1403 22
314 1 -9.90262 -1.96891 11.5836 20
315 1 -7.5368 -4.14449 11.7438 21
316 1 -10.0359 -6.24418 15.1747 7
317 1 -6.68517 -2.1731 13.4228 20
318 1 -10.0128 -1.50217 14.7216 14
319 1 -7.50999 -4.56385 15.3307 13
320 1 -4.03543 -16.1375 0.0419926 14
321 1 -1.02567 -12.0788 -0.224089 19
322 1 -3.57224 -13.2714 1.27033 19
323 1 -1.07426 -14.8945 1.81813 16
324 1 -3.46411 -15.6009 3.57177 16
325 1 -0.415909 -12.171 3.52916 20
326 1 -3.64963 -12.2794 4.55604 21
327 1 -3.98221 -15.7867 7.17353 13
328 1 -5.29489 -14.5833 9.26224 12
329 1 -0.667572 -12.352 6.96447 20
330 1 -3.76765 -12.1121 8.40595 23
331 1 -1.44388 -14.9093 9.10273 11
332 1 -0.580534 -11.9396 10.2297 18
333 1 -4.16524 -11.9147 11.5154 14
334 1 -1.41799 -11.6438 13.249 11
335 1 -4.56101 -10.1777 0.0125291 19
336 1 -1.10209 -6.30718 0.0520409 22
337 1 -3.58918 -7.5747 1.52544 18
338 1 -1.51181 -9.38446 1.66095 21
339 1 -4.56599 -9.42906 3.20052 22
340 1 -0.879914 -6.60223 3.18127 22
341 1 -3.82747 -6.61208 5.00587 22
342 1 -1.82283 -9.84307 5.04443 19
343 1 -5.00289 -10.3614 6.41499 19
344 1 -1.12728 -6.74247 6.60403 21
345 1 -3.82327 -6.49053 8.33869 21
346 1 -2.0031 -9.34142 8.29183 20
347 1 -5.05881 -9.51812 10.0675 19
348 1 -1.18764 -6.44314 9.83748 21
349 1 -4.07596 -6.46134 11.2867 21
350 1 -2.11154 -9.3499 11.4329 22
351 1 -5.07217 -8.85135 12.9713 17
352 1 -1.11239 -6.39519 13.2691 24
353 1 -4.2331 -6.89317 15.414 14
354 1 -2.16982 -8.98131 14.883 17
355 1 -4.68917 -4.7215 -8.86859e-04 21
356 1 -0.961163 -1.10689 -0.521134 20
357 1 -3.89335 -1.57295 1.56944 19
358 1 -1.77689 -3.65576 1.51 21
359 1 -4.95038 -3.96969 3.21147 20
360 1 -1.23034 -0.87686 3.11258 23
361 1 -4.0958 -1.22592 4.76836 21
362 1 -1.90897 -4.10657 4.99633 20
363 1 -5.00736 -3.55037 6.57355 24
364 1 -1.02229 -1.06619 6.42327 21
365 1 -4.05437 -1.08132 8.06453 23
366 1 -2.29807 -3.45177 8.01032 24
367 1 -5.10699 -4.11876 9.71057 20
368 1 -1.34873 -1.13967 9.64494 22
369 1 -4.24463 -1.06482 11.3799 21
370 1 -2.14133 -3.65543 11.5432 23
371 1 -4.79844 -4.69937 13.3843 20
372 1 -1.26983 -1.58771 13.2801 21
373 1 -4.06002 -1.43523 15.0203 17
374 1 -2.00922 -4.66105 15.1575 22
375 2 -15.6961 -6.31743 -0.141832 15
376 2 -15.3983 -9.20945 1.41028 14
377 2 -16.6655 -6.78479 6.03308 12
378 2 -12.8175 -7.25271 1.59943 21
379 2 -15.5801 -6.44007 3.2122 18
380 2 -16.1686 -9.28185 4.53327 11
381 2 -13.0983 -7.23252 5.05942 22
382 2 -16.2229 -3.72853 4.0074 15
383 2 -15.6319 -8.69878 7.3781 12
384 2 -13.708 -6.61479 8.36799 18
385 2 -15.711 -0.817953 -0.256474 16
386 2 -12.293 -4.65825 -0.1979 19
387 2 -16.1257 -4.05311 1.03435 13
388 2 -13.0657 -1.77048 1.26216 19
389 2 -15.7916 -0.626113 2.76119 16
390 2 -12.3656 -4.64115 3.21512 18
391 2 -18.8989 -4.95214 6.06764 6
392 2 -13.3652 -2.02396 4.29899 22
393 2 -15.5082 -0.932997 6.28848 19
394 2 -12.8601 -4.72182 6.59055 23
395 2 -15.7474 -4.56894 7.41929 17
396 2 -13.7372 -2.61631 7.8253 17
397 2 -12.62 -4.30345 9.84711 19
398 2 -13.488 -0.828701 10.7527 12
399 2 -12.832 -9.76745 3.27012 19
400 2 -5.43538 -14.8677 0.376268 17
401 2 -10.0291 -12.1462 3.28334 16
402 2 -7.53701 -13.2116 1.9199 18
403 2 -12.5781 -9.9357 6.66795 14
404 2 -5.38299 -15.6642 3.71994 15
405 2 -7.58713 -13.4172 5.1154 18
406 2 -12.5315 -9.00931 9.25252 12
407 2 -10.1892 -12.1455 6.48829 12
408 2 -7.67807 -12.5559 8.34234 16
409 2 -9.30061 -6.3434 -0.357487 20
410 2 -6.72625 -10.5221 0.135956 19
411 2 -9.93001 -9.68642 1.66381 22
412 2 -7.3418 -7.57962 1.77021 20
413 2 -10.2001 -7.28859 3.2963 19
414 2 -7.26947 -10.7232 3.34774 21
415 2 -10.041 -9.20489 5.22201 22
416 2 -7.57041 -7.68514 4.66339 20
417 2 -10.4989 -6.32892 6.47982 19
418 2 -6.82371 -9.89067 6.42934 22
419 2 -9.57517 -10.3415 8.61644 16
420 2 -7.69126 -7.04132 8.18183 19
421 2 -11.0133 -6.70758 10.001 17
422 2 -7.37065 -6.54745 11.639 21
423 2 -9.58649 -9.3928 11.0543 13
424 2 -8.25644 -6.34158 15.2926 10
425 2 -10.4215 -6.48083 13.0947 12
426 2 -6.86364 -9.69867 10.1503 19
427 2 -6.86968 -8.87269 13.0929 13
428 2 -9.9771 -0.879942 0.211077 21
429 2 -6.63442 -4.93204 0.102145 21
430 2 -9.43788 -4.03891 1.772 21
431 2 -7.39469 -1.68205 1.71175 21
432 2 -10.398 -1.04761 3.20009 23
433 2 -6.78358 -4.63514 3.3265 23
434 2 -9.7489 -3.76278 5.24269 21
435 2 -7.86223 -1.40174 4.89037 23
436 2 -11.0871 -1.26659 6.70486 22
437 2 -6.92455 -4.45827 6.72387 20
438 2 -9.73274 -4.2547 8.22451 19
439 2 -7.8021 -1.68974 7.95943 23
440 2 -10.821 -1.74644 9.94492 19
441 2 -6.91277 -4.37151 9.96453 21
442 2 -9.70443 -3.96396 11.4636 18
443 2 -7.88324 -1.35464 11.7129 19
444 2 -11.0948 -1.78866 13.3262 13
445 2 -6.71248 -4.09736 13.5559 19
446 2 -9.87765 -4.29461 14.574 13
447 2 -8.11994 -1.72556 15.0923 16
448 2 -4.40566 -12.4279 -0.399238 21
449 2 -0.321418 -15.4873 -0.103444 16
450 2 -3.4613 -15.1717 1.87791 16
451 2 -1.64213 -12.8622 1.39223 21
452 2 -4.59734 -12.6123 2.90321 20
453 2 -3.37071 -16.0607 5.39906 11
454 2 -5.75057 -14.8999 7.15717 12
455 2 -1.83302 -12.3701 5.1916 18
456 2 -4.82072 -12.4042 6.90349 19
457 2 -0.763593 -14.7863 7.26742 14
458 2 -3.45887 -15.349 9.0538 10
459 2 -1.92819 -12.8335 9.17226 16
460 2 -5.39047 -12.8504 10.1738 15
461 2 -1.99217 -12.1928 11.6371 14
462 2 -3.80472 -6.55398 0.056666 18
463 2 -0.664217 -10.0695 -0.2106 19
464 2 -3.5772 -9.57854 1.53811 18
465 2 -1.39255 -7.36684 1.40408 20
466 2 -4.54738 -7.31783 3.2823 17
467 2 -0.818372 -10.0422 3.31868 21
468 2 -3.67781 -10.0515 4.91632 20
469 2 -1.87833 -6.96671 4.59672 22
470 2 -4.71815 -6.56087 6.54445 19
471 2 -0.929049 -9.88507 6.61485 19
472 2 -3.91628 -10.221 8.62192 20
473 2 -2.3304 -7.51746 8.36377 20
474 2 -5.1901 -7.41079 9.98317 22
475 2 -0.996298 -9.98791 9.79055 22
476 2 -4.00347 -9.99094 11.7109 21
477 2 -1.82807 -7.38887 11.232 24
478 2 -4.57251 -6.65963 13.2592 19
479 2 -1.24868 -9.5192 13.0754 19
480 2 -4.48646 -8.67726 14.9137 11
481 2 -1.64228 -7.06844 15.0661 18
482 2 -4.50858 -1.30123 -0.325042 19
483 2 -0.96791 -4.30433 -0.134278 22
484 2 -3.9314 -3.65968 1.43806 19
485 2 -1.8652 -1.53454 1.47406 21
486 2 -4.81701 -1.82329 3.04722 23
487 2 -1.23878 -4.19182 3.30924 21
488 2 -4.12439 -4.38821 5.12693 22
489 2 -2.08764 -1.40165 4.8499 21
490 2 -4.76164 -1.63978 6.42909 21
491 2 -0.834436 -4.68994 6.23467 22
492 2 -3.96685 -4.49394 8.31537 25
493 2 -2.15186 -1.44462 8.02022 21
494 2 -5.05149 -1.79099 9.63939 23
495 2 -1.42546 -4.5383 9.81586 22
496 2 -3.94156 -4.45023 11.2418 23
497 2 -2.06233 -1.80073 11.3087 22
498 2 -5.04177 -1.30704 13.0066 22
499 2 -1.24156 -4.411 12.9665 20
500 2 -3.96916 -3.96098 14.9177 20
501 2 -2.16611 -1.2849 14.9992 19
502 1 -12.2135 2.73877 -11.5877 11
503 1 -12.3933 5.69317 -10.0902 14
504 1 -14.8133 4.67681 -8.08752 11
505 1 -12.728 2.52711 -8.24445 20
506 1 -15.2079 1.40622 -6.7179 16
507 1 -12.2079 5.4965 -6.39555 22
508 1 -15.0653 4.09928 -5.005 16
509 1 -12.8714 1.96219 -5.09466 23
510 1 -16.003 1.45569 -3.2309 15
511 1 -12.5422 4.64393 -3.19495 19
512 1 -15.4448 4.16088 -1.61152 16
513 1 -13.2347 1.58796 -1.75427 22
514 1 -13.0274 8.66021 -8.99831 8
515 1 -15.1806 7.45819 -6.42241 12
516 1 -12.876 10.4082 -6.35549 12
517 1 -12.5156 8.37413 -4.04336 18
518 1 -14.6452 7.14576 -3.18743 16
519 1 -11.103 11.8664 -8.52044 11
520 1 -14.9923 8.71576 0.123392 12
521 1 -12.3833 7.95071 -1.30354 17
522 1 -6.09184 4.6194 -16.859 13
523 1 -9.11793 4.23783 -14.9315 10
524 1 -6.74674 2.31724 -14.9518 17
525 1 -9.66256 1.19754 -13.3861 17
526 1 -6.84359 5.23202 -13.2674 22
527 1 -9.59974 4.18049 -11.6858 20
528 1 -7.10015 2.21026 -11.4293 20
529 1 -10.0196 1.1695 -9.72396 22
530 1 -6.82802 5.14356 -9.87781 19
531 1 -9.91628 4.21357 -8.35313 23
532 1 -7.22872 2.09713 -8.33197 21
533 1 -10.2578 1.20384 -6.97478 22
534 1 -6.59226 5.18487 -6.76604 21
535 1 -9.53235 4.06113 -5.17857 20
536 1 -7.70712 2.008 -5.10363 21
537 1 -10.3225 1.08027 -3.30592 22
538 1 -6.90328 4.83049 -3.36834 20
539 1 -9.76678 3.74373 -1.83999 20
540 1 -7.5414 1.79297 -2.01634 21
541 1 -6.65814 7.73717 -15.4107 13
542 1 -9.26638 7.19055 -13.5473 11
543 1 -6.58163 11.1806 -9.68062 18
544 1 -9.53502 10.2951 -11.813 9
545 1 -6.93087 8.40669 -11.7997 21
546 1 -9.47173 7.28404 -10.2288 18
547 1 -5.91525 12.0208 -12.2721 9
548 1 -8.67108 9.98914 -8.1171 18
549 1 -6.83019 7.8343 -8.58159 19
550 1 -9.28719 7.02787 -6.8417 19
551 1 -6.28655 10.3051 -6.48211 18
552 1 -9.81851 10.2933 -5.09496 21
553 1 -7.07925 7.87299 -4.58235 20
554 1 -9.94025 6.88372 -3.36884 21
555 1 -7.20971 10.4437 -2.86609 19
556 1 -9.33448 9.41272 -1.58211 19
557 1 -6.85084 7.26276 -1.17708 20
558 1 -7.2624 14.2593 -9.80175 7
559 1 -7.91476 12.6088 -6.63723 14
560 1 -6.04221 16.1681 -6.02315 9
561 1 -6.10935 14.1801 -3.9658 17
562 1 -13.8187 11.4972 -2.52202 8
563 1 -7.61765 13.3346 -1.87756 14
564 1 -12.1329 13.0047 -4.75693 8
565 1 -9.73122 12.0506 0.0220144 15
566 1 -4.34206 1.61753 -16.6306 14
567 1 -1.53476 4.79697 -16.6473 14
568 1 -3.87666 3.99437 -15.0131 20
569 1 -1.20805 2.10454 -15.056 20
570 1 -4.60976 1.1137 -13.0729 22
571 1 -1.67912 4.72993 -13.0933 20
572 1 -4.54072 3.80916 -11.6191 23
573 1 -2.01081 1.84831 -11.7787 22
574 1 -4.57235 0.712581 -9.97328 22
575 1 -2.02714 4.80475 -9.91281 21
576 1 -4.16959 3.71137 -8.29337 21
577 1 -2.00803 2.02393 -8.36955 21
578 1 -4.70283 1.0114 -6.53341 19
579 1 -1.4631 4.77071 -6.93095 24
580 1 -3.6033 3.92111 -5.18974 22
581 1 -1.93528 1.97893 -5.13846 20
582 1 -4.69986 1.12526 -3.05786 19
583 1 -0.603428 4.36002 -3.60728 22
584 1 -3.96691 3.92418 -2.04543 18
585 1 -1.50907 1.85016 -1.80445 20
586 1 -4.43402 7.11796 -17.3094 11
587 1 -3.84173 10.0976 -15.1443 11
588 1 -1.32789 7.45119 -15.6918 19
589 1 -4.16836 7.02255 -13.9553 21
590 1 -1.00607 10.8004 -14.2025 14
591 1 -3.59824 9.82327 -12.2696 20
592 1 -1.33362 7.45015 -12.1951 21
593 1 -4.30917 6.97835 -10.3454 22
594 1 -1.25557 10.2612 -9.94774 19
595 1 -4.2572 9.62574 -8.39985 22
596 1 -1.74561 7.636 -8.29009 22
597 1 -4.12932 6.87005 -6.83546 23
598 1 -1.44505 10.4196 -6.517 23
599 1 -3.91494 9.57755 -4.85701 22
600 1 -1.67931 7.3676 -4.88629 21
601 1 -4.79893 6.542 -3.26909 22
602 1 -1.1894 10.0487 -3.28854 20
603 1 -3.94023 9.16297 -1.63472 20
604 1 -1.94388 6.9253 -1.64866 20
605 1 -0.648538 12.9625 -11.4642 16
606 1 -3.77649 12.7173 -9.88772 17
607 1 -2.84895 15.4825 -7.5853 13
608 1 -1.2039 12.6066 -8.18801 19
609 1 -3.87886 12.4251 -6.55561 17
610 1 0.729414 14.9848 -8.41801 12
611 1 -3.40094 16.0655 -4.39917 13
612 1 -1.74912 13.2265 -4.78033 21
613 1 -4.28179 12.0126 -3.13235 21
614 1 -5.88736 16.7294 -2.35439 11
615 1 -3.42805 17.3157 -0.475233 9
616 1 -1.6983 12.4969 -1.53426 21
617 2 -11.542 1.16907 -12.6719 14
618 2 -11.3724 4.34151 -11.0137 14
619 2 -11.8629 1.89033 -9.81175 19
620 2 -14.6224 2.82275 -7.8244 13
621 2 -12.738 5.04457 -8.34299 17
622 2 -15.3029 5.61483 -6.29774 12
623 2 -12.2181 1.42756 -6.7733 22
624 2 -15.3625 2.12205 -4.95405 17
625 2 -13.0636 4.14094 -5.08459 20
626 2 -15.0912 5.04633 -3.24392 17
627 2 -12.2824 1.10926 -3.42629 20
628 2 -15.8949 2.31851 -1.54271 14
629 2 -13.5991 3.60807 -1.78769 24
630 2 -12.1943 10.1424 -8.25183 11
631 2 -11.3483 7.22113 -9.74613 14
632 2 -14.064 7.82078 -7.80213 12
633 2 -14.0839 8.11631 -4.96804 12
634 2 -11.9087 12.6261 -6.73737 8
635 2 -12.6072 6.61908 -3.03875 17
636 2 -14.5486 7.64883 -1.31411 16
637 2 -13.2997 11.5273 -4.60481 10
638 2 -12.507 13.1989 -2.75222 8
639 2 -5.52342 2.94255 -16.8225 9
640 2 -9.51172 2.58967 -14.5665 12
641 2 -7.10141 4.28173 -14.9162 16
642 2 -9.59992 5.18167 -13.4589 14
643 2 -6.66837 1.40707 -13.3038 18
644 2 -9.06246 2.1158 -11.1209 21
645 2 -6.47267 4.09613 -11.4266 21
646 2 -9.07733 5.43673 -9.84632 20
647 2 -6.75309 1.00197 -9.84575 22
648 2 -9.33289 2.4384 -8.1034 21
649 2 -6.08306 3.81335 -8.24872 23
650 2 -10.1507 5.19379 -6.48271 15
651 2 -6.77699 1.2524 -6.57908 19
652 2 -9.69212 1.88887 -5.10456 20
653 2 -7.60717 4.20815 -5.14661 24
654 2 -10.5518 4.89997 -3.36181 20
655 2 -6.6821 1.23871 -3.59472 20
656 2 -9.52126 2.00545 -1.62523 22
657 2 -7.59378 3.75399 -2.18116 20
658 2 -7.38999 7.43136 -13.792 15
659 2 -9.37757 8.2133 -11.9532 12
660 2 -7.17049 10.4413 -11.6859 16
661 2 -8.80925 8.20017 -8.34217 20
662 2 -6.36987 7.01791 -10.3584 21
663 2 -11.3418 9.14317 -5.29088 17
664 2 -6.49296 9.56229 -8.27364 20
665 2 -9.60158 10.7965 -9.82911 13
666 2 -6.35535 7.38053 -6.5755 23
667 2 -9.04514 7.46677 -4.92503 20
668 2 -6.11056 9.68274 -4.84393 22
669 2 -9.27762 10.0782 -3.41489 17
670 2 -6.8309 6.67067 -2.90839 19
671 2 -10.1076 7.7049 -1.33218 20
672 2 -6.77121 9.32278 -1.4534 20
673 2 -6.1698 12.8952 -10.6279 9
674 2 -4.19829 15.9196 -6.4487 11
675 2 -7.90172 12.9028 -8.64135 12
676 2 -8.28591 10.7882 -6.46968 20
677 2 -7.31882 14.5069 -6.16224 11
678 2 -9.36557 13.3732 -1.32152 16
679 2 -11.4876 12.4992 0.191653 14
680 2 -9.20705 12.422 2.02702 17
681 2 -6.02382 6.38298 -16.634 12
682 2 -2.48543 1.05942 -16.3144 17
683 2 -4.51116 2.19872 -14.6779 20
684 2 -1.84973 3.95184 -14.8526 19
685 2 -4.80119 5.18623 -13.4998 21
686 2 -1.37051 1.22544 -13.4143 21
687 2 -4.22505 1.9463 -11.3404 21
688 2 -1.67626 3.57797 -11.4207 20
689 2 -3.97449 4.78743 -9.91853 23
690 2 -1.61385 0.679515 -9.90284 21
691 2 -3.98752 1.93442 -8.15697 24
692 2 -1.2269 3.62428 -8.56245 20
693 2 -4.35132 5.02484 -6.44512 18
694 2 -1.40882 1.03819 -6.72224 20
695 2 -3.84932 1.80544 -4.75914 18
696 2 -1.28962 3.90951 -5.40879 22
697 2 -4.62358 4.73993 -3.83885 18
698 2 -0.970758 1.39434 -3.57088 21
699 2 -3.80356 1.86425 -1.48013 19
700 2 -2.0054 3.89625 -1.85861 18
701 2 -2.74296 6.29693 -16.765 12
702 2 -4.67791 8.36379 -15.6204 14
703 2 -2.0193 9.37325 -14.7626 16
704 2 -4.70104 11.0015 -13.5082 13
705 2 -2.21769 6.71714 -14.0484 22
706 2 -4.51645 7.93653 -12.3013 21
707 2 -1.66046 9.30664 -11.6874 22
708 2 -4.4516 10.6732 -10.0543 21
709 2 -1.35198 6.58454 -10.2853 23
710 2 -3.71141 7.50759 -8.55988 21
711 2 -1.10199 9.49853 -8.28158 21
712 2 -3.99701 10.4731 -6.68761 22
713 2 -0.886889 6.52958 -6.69467 24
714 2 -3.44328 7.53941 -5.13691 24
715 2 -1.16142 9.15185 -5.04166 19
716 2 -3.38547 10.3815 -3.14276 21
717 2 -0.817813 6.38779 -3.35097 23
718 2 -4.13476 7.29724 -1.70825 20
719 2 -1.99735 8.83013 -1.12851 19
720 2 1.34096 13.0149 -11.3277 13
721 2 -1.01061 12.2493 -13.1192 12
722 2 -1.83314 12.08 -10.0395 18
723 2 -3.44945 13.4415 -8.14374 15
724 2 -1.25632 14.916 -8.41707 11
725 2 -5.88497 16.3665 -4.20935 9
726 2 -1.98306 12.3568 -6.50205 16
727 2 -4.17615 13.2587 -4.67928 21
728 2 -1.79054 15.0073 -4.31052 16
729 2 -6.33309 12.0818 -3.1765 18
730 2 -1.03804 11.9824 -3.39302 20
731 2 -3.93746 13.0966 -1.53501 22
732 2 -3.78732 16.548 -2.36796 14
733 1 -15.758 1.21004 0.0923383 15
734 1 -12.6147 4.69364 -0.462136 22
735 1 -14.8912 3.99534 1.36563 18
736 1 -13.2049 1.83194 1.50375 20
737 1 -16.112 1.34805 3.43717 13
738 1 -12.5351 4.49505 3.09515 21
739 1 -17.3793 2.75435 8.31384 7
740 1 -13.5386 1.35616 5.22271 23
741 1 -16.2817 0.860386 6.21832 14
742 1 -12.3854 4.42788 6.71941 21
743 1 -14.7128 3.87419 8.65269 12
744 1 -13.6806 1.12203 8.23895 18
745 1 -12.8446 3.64103 10.3392 15
746 1 -13.6505 0.9145 11.478 10
747 1 -16.4475 6.63051 -0.659321 9
748 1 -11.9452 10.693 -0.0869371 20
749 1 -14.8715 9.30625 6.22311 7
750 1 -12.7822 7.77217 1.7222 22
751 1 -16.1217 6.85948 2.91776 11
752 1 -12.2123 10.5556 2.81841 13
753 1 -13.5109 6.92665 4.7883 17
754 1 -15.1604 4.10789 4.90229 17
755 1 -12.0445 8.83478 7.02645 15
756 1 -13.3724 6.91103 8.43968 15
757 1 -10.1302 1.17169 -0.00704892 20
758 1 -6.66968 4.00979 -0.20509 21
759 1 -9.76061 3.66719 1.5791 22
760 1 -7.97145 1.25889 1.31489 21
761 1 -10.5319 0.650104 3.56812 22
762 1 -6.82088 4.17236 2.85739 21
763 1 -9.70351 3.73103 4.9715 20
764 1 -7.45486 1.65941 5.25172 21
765 1 -10.5966 0.747873 6.57355 21
766 1 -6.74926 4.24713 6.68645 23
767 1 -9.69766 4.10549 8.27993 20
768 1 -7.89183 1.39492 8.14056 21
769 1 -10.9279 0.747735 9.97223 23
770 1 -6.87898 3.40212 10.2874 19
771 1 -9.94488 3.43362 11.4025 19
772 1 -7.90568 0.543069 11.8401 21
773 1 -11.1779 1.60803 13.6748 15
774 1 -6.47512 3.37387 13.3882 20
775 1 -10.3659 2.08202 16.3796 10
776 1 -7.63745 0.935907 15.1338 17
777 1 -10.2725 6.3932 0.253817 22
778 1 -6.52248 9.70275 0.236865 21
779 1 -9.67884 9.17496 1.71685 21
780 1 -7.36241 6.97393 1.82132 20
781 1 -10.6204 6.36993 3.38387 23
782 1 -6.52223 9.77845 3.3812 22
783 1 -9.43261 9.19918 4.99639 18
784 1 -7.56908 6.70426 5.15405 20
785 1 -10.3181 6.54445 6.46754 21
786 1 -6.76704 9.42975 6.90819 21
787 1 -9.54166 9.09121 8.68417 14
788 1 -7.46535 6.92868 8.36855 21
789 1 -10.2615 6.35569 9.75062 18
790 1 -6.72745 9.6943 10.3833 15
791 1 -10.585 6.57895 13.2761 13
792 1 -7.84137 5.86307 11.8834 16
793 1 -12.1654 4.09703 14.0006 11
794 1 -2.66979 12.1626 13.5249 11
795 1 -10.2928 5.25341 16.0391 10
796 1 -11.9029 13.4179 1.72948 10
797 1 -11.2405 13.7426 -1.63292 9
798 1 -6.31974 15.3679 3.2316 10
799 1 -9.94369 11.7302 3.7271 18
800 1 -13.1258 12.9048 6.01412 5
801 1 -7.50617 12.7974 2.28441 15
802 1 -10.049 14.7303 6.69363 7
803 1 -9.96218 11.7324 6.95897 15
804 1 -7.27748 12.2745 5.56757 19
805 1 -7.63573 12.2165 8.49226 14
806 1 -4.80851 0.846226 -0.384015 18
807 1 -1.12574 4.36559 -0.0294332 22
808 1 -3.50565 4.41723 2.04496 20
809 1 -2.02913 1.67056 1.56164 22
810 1 -5.14379 1.83808 3.19515 21
811 1 -0.84081 4.42565 3.40402 23
812 1 -3.86622 4.17782 5.18222 22
813 1 -1.8436 1.62488 4.9066 23
814 1 -4.80244 1.48817 6.20157 23
815 1 -0.709823 4.40207 6.63876 23
816 1 -3.61769 4.11042 8.34425 23
817 1 -2.03299 1.59489 8.3228 24
818 1 -4.86723 1.39006 9.79202 22
819 1 -1.07303 4.43706 9.7829 20
820 1 -3.80763 3.9098 11.4411 23
821 1 -2.0137 1.00155 11.7392 19
822 1 -4.73375 0.785647 13.5329 22
823 1 -0.826523 3.34855 13.0853 19
824 1 -3.83106 3.38634 14.7568 22
825 1 -2.29823 0.965478 15.1 17
826 1 -4.29677 6.64426 0.0956229 23
827 1 -0.625252 9.49212 0.337304 22
828 1 -3.91342 10.2181 1.89155 21
829 1 -1.95775 7.03299 1.87259 21
830 1 -4.29868 6.98678 3.80756 23
831 1 -0.912207 9.3415 3.66592 20
832 1 -3.99699 9.62197 5.28743 22
833 1 -1.51937 6.95989 5.29091 21
834 1 -5.02473 6.63315 7.50359 20
835 1 -0.797614 9.89021 7.08462 22
836 1 -3.6842 9.43885 8.73063 21
837 1 -1.75753 6.9341 8.41623 22
838 1 -4.7106 6.90171 10.4289 20
839 1 -0.952008 9.59471 10.3539 19
840 1 -3.83522 9.166 12.0995 16
841 1 -1.61732 6.93048 11.9327 22
842 1 -4.70085 5.92294 13.327 20
843 1 -1.37241 9.23488 13.7759 18
844 1 -7.59395 6.52197 14.9728 14
845 1 -2.0975 9.23336 16.0666 12
846 1 -4.64371 12.4622 0.332359 20
847 1 -0.44541 15.6352 0.570642 16
848 1 -3.05169 15.0191 -1.45506 20
849 1 -1.40087 12.2595 1.82336 20
850 1 -4.45824 12.5391 3.57526 19
851 1 -0.853137 14.7267 3.8968 15
852 1 -3.73173 15.1368 5.42888 13
853 1 -1.70304 11.6566 5.14369 19
854 1 -4.70158 12.1994 7.18491 18
855 1 -1.09845 15.2608 7.3865 12
856 1 -4.18621 14.9538 8.5347 11
857 1 -1.35297 12.1952 8.6527 19