ITEM: TIMESTEP
51000
ITEM: NUMBER OF ATOMS
2000
ITEM: BOX BOUNDS pp pp pp
-30.0 30.0
-30.0 30.0
-30.0 30.0
ITEM: ATOMS id type x y z Coordination
1 1 -15.0975 -1.27075 -5.34336 17
2 1 -18.1928 0.635559 7.64276 11
3 1 -17.0506 -2.28121 6.90107 13
4 2 -15.8099 -1.09938 -3.56248 14
5 2 -18.8638 2.04191 6.38311 8
6 2 -18.5739 -0.694614 8.84926 7
7 1 8.53498 -12.5827 -9.12696 13
8 1 5.64973 -14.3057 -9.97857 11
9 1 -1.51814 -16.0842 5.20796 8
10 2 2.27621 -15.3138 -4.12601 15
11 2 1.7795 -14.9888 -7.26137 14
12 2 -1.31289 -15.1129 3.59807 16
13 2 0.0581138 0.395415 -16.0679 14
14 1 1.05318 -4.25073 -17.2021 10
15 1 2.46226 -0.60585 -19.0202 10
16 2 2.46258 1.49446 -18.5608 9
17 1 -10.1827 -12.238 -1.63076 15
18 1 -13.354 -6.15833 -10.0711 11
19 1 -12.0928 -9.00399 -9.28551 14
20 1 -11.5227 -8.26399 -5.89693 14
21 1 -15.3614 -5.786 -4.573 15
22 1 -14.6291 -8.80916 -4.20291 13
23 1 -12.6305 -7.01907 -2.87167 21
24 1 -15.79 -7.43774 -1.95894 17
25 1 -13.3738 -10.5398 -1.62009 15
26 1 -12.8121 -0.609989 -13.7325 9
27 1 -12.2483 -3.52238 -12.1365 12
28 1 -12.7802 -0.495149 -10.4123 17
29 1 -15.2867 -1.85544 -8.47934 10
30 1 -13.3357 -3.66432 -8.70345 18
31 1 -14.2514 -6.93262 -7.0369 15
32 1 -12.6881 -0.92662 -6.92025 18
33 1 -16.8945 -4.59541 -7.30488 8
34 1 -13.2554 -4.01816 -5.44467 19
35 1 -16.8161 -2.91955 -3.50267 9
36 1 -12.5049 -1.08007 -3.36406 18
37 1 -15.4761 -1.38622 -1.5889 19
38 1 -13.6807 -4.13584 -2.09298 23
39 1 -7.26547 -12.3957 -10.2734 13
40 1 -9.38438 -13.9736 -8.52547 8
41 1 -7.0558 -12.4398 -6.73393 17
42 1 -9.49405 -12.7282 -4.79837 14
43 1 -7.32301 -15.3501 -3.86521 9
44 1 -6.90171 -12.2005 -3.26498 20
45 1 -11.2548 -9.79185 0.119223 19
46 1 -7.82534 -15.4938 -1.15083 8
47 1 -7.5902 -6.66827 -13.1593 15
48 1 -10.4444 -7.74859 -11.8076 15
49 1 -7.36413 -9.61645 -11.8262 16
50 1 -9.65066 -10.9512 -10.4883 12
51 1 -7.35785 -6.51196 -10.3181 20
52 1 -9.76731 -7.57547 -8.8903 19
53 1 -6.55691 -9.19757 -8.75671 22
54 1 -9.46952 -10.4024 -7.0014 20
55 1 -6.69696 -7.1899 -6.73611 19
56 1 -9.73285 -7.01249 -5.09266 19
57 1 -7.69517 -9.64657 -4.96619 22
58 1 -10.7148 -10.043 -3.78532 19
59 1 -7.02544 -6.91313 -2.8568 21
60 1 -10.0379 -7.36186 -1.60307 21
61 1 -8.09993 -9.77303 -1.49078 20
62 1 -6.1278 -1.97047 -17.6951 10
63 1 -9.3497 -1.37746 -14.9573 14
64 1 -7.02417 -3.73492 -14.8101 16
65 1 -10.1014 -4.43972 -14.0103 12
66 1 -6.57579 -0.399733 -13.5717 23
67 1 -9.74348 -1.67877 -12.1207 22
68 1 -7.34875 -3.58862 -11.9635 22
69 1 -10.3328 -4.69384 -10.4961 20
70 1 -6.90854 -0.91253 -10.3494 21
71 1 -9.69499 -1.59009 -8.81544 22
72 1 -7.52714 -3.72062 -8.65409 19
73 1 -10.2266 -4.64148 -7.16449 17
74 1 -6.99889 -1.11245 -6.80922 19
75 1 -9.84662 -2.23649 -5.58863 22
76 1 -7.73046 -4.2608 -5.17419 20
77 1 -10.3016 -4.27477 -3.62467 19
78 1 -6.93766 -1.48824 -3.52868 21
79 1 -9.58864 -1.78241 -2.00287 20
80 1 -7.90328 -4.52137 -1.87795 22
81 1 -1.87093 -12.0063 -15.3371 7
82 1 -3.39179 -13.4843 -12.2921 10
83 1 -1.54619 -12.3775 -9.3076 17
84 1 -4.84272 -13.9375 -9.53138 14
85 1 -1.97155 -14.6316 -6.84956 14
86 1 -5.05881 -15.5767 -6.45256 12
87 1 -1.10092 -11.819 -5.92108 20
88 1 -4.12638 -13.0954 -4.82701 19
89 1 -1.37286 -14.5775 -4.12079 17
90 1 -4.28409 -14.7284 -2.87999 18
91 1 -0.680869 -11.9056 -2.95659 21
92 1 -3.94852 -12.361 -1.30428 22
93 1 -1.71528 -15.3483 -0.972929 13
94 1 -2.03768 -6.49396 -17.1343 11
95 1 -3.39695 -8.05846 -15.2133 12
96 1 -0.337117 -9.57192 -15.542 12
97 1 -3.82798 -10.7741 -13.1121 15
98 1 -0.960373 -6.43605 -13.3171 20
99 1 -4.5616 -7.524 -11.7436 21
100 1 -1.40653 -9.21777 -11.3576 17
101 1 -4.26657 -10.552 -9.91865 20
102 1 -1.97936 -6.35414 -9.95672 22
103 1 -3.74418 -7.35511 -8.13804 21
104 1 -1.47157 -9.4362 -8.189 21
105 1 -4.72442 -10.3 -6.25146 20
106 1 -0.865082 -6.81234 -6.19644 21
107 1 -3.99977 -7.30655 -4.9872 22
108 1 -2.09063 -9.20161 -4.63841 20
109 1 -4.83242 -10.2213 -2.91589 22
110 1 -0.734978 -6.90507 -3.30323 21
111 1 -3.71281 -7.50459 -1.75444 24
112 1 -1.87364 -9.59155 -1.78763 20
113 1 -4.60966 -4.97654 -16.3383 13
114 1 -1.1433 -0.449203 -17.427 11
115 1 -4.15042 -1.65643 -15.0304 19
116 1 -1.49608 -3.50438 -15.3628 18
117 1 -3.85757 -4.80378 -13.4226 21
118 1 -0.786345 -0.636476 -13.368 20
119 1 -4.20904 -1.70126 -11.8376 19
120 1 -2.00281 -3.7453 -12.0105 22
121 1 -4.89875 -4.23965 -10.0637 22
122 1 -1.059 -1.08143 -10.1592 20
123 1 -4.07486 -1.93696 -8.57938 22
124 1 -1.98953 -4.04718 -8.13211 21
125 1 -4.87768 -4.79932 -6.97176 19
126 1 -1.10086 -1.17748 -6.61017 19
127 1 -4.12326 -2.08795 -4.97147 21
128 1 -1.78998 -4.17402 -5.21094 21
129 1 -4.83719 -4.50189 -3.25855 20
130 1 -0.920737 -1.3192 -3.65793 20
131 1 -3.91921 -1.26565 -2.10229 20
132 1 -1.95253 -4.20462 -1.87052 23
133 2 -11.7574 -7.43461 -10.2987 13
134 2 -12.8523 -8.70548 -7.68615 13
135 2 -10.4219 -9.56332 -8.51997 17
136 2 -13.1844 -7.83731 -4.51845 18
137 2 -16.1448 -7.45538 -3.82369 12
138 2 -12.9457 -9.35882 -0.0891738 18
139 2 -14.1741 -10.1105 -3.03258 9
140 2 -14.0521 -6.81967 -1.59556 22
141 2 -12.5421 -1.52773 -12.2158 12
142 2 -14.4281 -6.32053 -8.61846 11
143 2 -16.1864 -3.55482 -8.41654 9
144 2 -13.1509 -1.75729 -8.72047 18
145 2 -15.2713 -0.506634 -7.08569 14
146 2 -12.243 -4.24673 -7.29648 19
147 2 -15.7897 -5.90361 -6.5086 13
148 2 -13.1802 -1.91315 -5.32062 19
149 2 -15.6056 -3.78231 -4.7024 14
150 2 -13.443 -5.26532 -3.90697 19
151 2 -15.4943 -3.59421 -1.89611 17
152 2 -13.495 -0.86475 -1.62215 19
153 2 -6.56395 -13.2204 -8.67961 13
154 2 -9.09873 -12.8038 -6.93844 12
155 2 -6.69408 -16.412 -5.43589 6
156 2 -7.74737 -13.4479 -4.54769 18
157 2 -10.9961 -11.7992 -0.0755931 13
158 2 -6.12139 -15.1582 -2.33101 15
159 2 -10.3324 -12.0723 -3.49262 15
160 2 -8.2128 -11.7466 -1.58104 19
161 2 -9.5187 -6.59235 -13.1279 14
162 2 -10.1813 -3.55776 -12.1636 17
163 2 -3.72313 -9.3079 -11.7438 17
164 2 -9.1209 -9.46172 -11.4995 17
165 2 -6.61428 -7.90534 -11.4729 17
166 2 -9.38538 -6.54072 -10.4178 21
167 2 -6.41504 -10.4488 -10.3845 17
168 2 -9.31351 -12.6781 -9.90936 10
169 2 -7.51471 -7.4062 -8.56531 21
170 2 -10.1523 -7.10783 -7.05515 18
171 2 -7.33951 -10.2205 -6.81075 19
172 2 -9.86363 -9.14926 -5.10398 17
173 2 -7.32368 -7.5702 -4.83328 17
174 2 -10.8384 -7.14949 -3.59675 18
175 2 -7.0003 -10.038 -3.10923 21
176 2 -10.2272 -9.2265 -1.98491 20
177 2 -7.96942 -7.7205 -1.33672 20
178 2 -6.14301 -3.2112 -16.3456 12
179 2 -8.91112 -3.32498 -14.7846 14
180 2 -7.54852 -0.624184 -15.2403 19
181 2 -10.445 -0.432149 -13.8621 16
182 2 -6.85605 -4.87423 -13.3429 19
183 2 -12.4559 -4.03491 -10.4321 14
184 2 -7.547 -1.77125 -12.2257 21
185 2 -10.1444 -0.527204 -10.5074 19
186 2 -6.73994 -4.59105 -10.3281 20
187 2 -9.53029 -4.02077 -8.85738 21
188 2 -7.60797 -1.75377 -8.64878 20
189 2 -10.5073 -1.02197 -6.95076 21
190 2 -6.6781 -3.85996 -6.77586 20
191 2 -9.60091 -4.33949 -5.48274 18
192 2 -8.15303 -1.63149 -5.22376 21
193 2 -10.7713 -2.33179 -3.58257 20
194 2 -6.80959 -4.00715 -3.45385 20
195 2 -9.86381 -4.34507 -1.81231 21
196 2 -7.78898 -1.52357 -1.84365 21
197 2 -1.88263 -13.4086 -10.8847 13
198 2 -4.86022 -12.7791 -11.0837 13
199 2 -3.65681 -14.6984 -8.08212 12
200 2 -1.67624 -12.8916 -7.45154 17
201 2 -5.12919 -12.5022 -6.04092 20
202 2 -0.697558 -15.4596 -5.50134 12
203 2 -3.81482 -14.9774 -4.64756 15
204 2 -2.03543 -12.9543 -4.69364 20
205 2 -4.86273 -12.2342 -3.01895 19
206 2 4.6622 -16.0141 -8.93467 10
207 2 -3.39632 -14.3238 -0.998427 17
208 2 -2.05568 -12.0556 -1.52724 20
209 2 -4.10947 -6.62484 -16.7337 9
210 2 -2.49136 -9.98763 -15.0765 10
211 2 -1.31713 -7.87119 -16.2165 12
212 2 -3.90264 -6.76827 -13.588 18
213 2 -0.287387 -11.476 -14.6881 10
214 2 -3.20562 -12.3695 -13.9258 8
215 2 -1.41877 -7.26532 -11.6649 18
216 2 -4.07999 -6.49754 -9.99281 22
217 2 -2.24377 -10.6863 -9.72516 19
218 2 -4.66789 -9.38367 -7.95299 18
219 2 -1.72503 -7.45432 -8.28803 20
220 2 -4.8292 -6.68572 -6.52128 19
221 2 -1.19674 -9.84347 -6.1938 20
222 2 -4.07469 -9.63435 -4.58131 22
223 2 -2.05172 -7.31743 -4.84693 20
224 2 -5.06982 -6.5078 -3.18314 20
225 2 -0.807425 -9.65301 -3.40935 23
226 2 -4.0209 -9.36627 -1.46167 19
227 2 -1.88623 -7.3711 -1.59985 24
228 2 -4.95445 -0.828928 -16.5228 16
229 2 -0.897323 -4.73613 -16.9807 14
230 2 -3.60957 -3.94217 -15.3361 17
231 2 -2.13912 -1.72227 -14.6812 20
232 2 -4.68719 -0.60315 -13.2384 18
233 2 -1.44796 -4.69875 -13.447 20
234 2 -4.01258 -3.61893 -12.0257 22
235 2 -1.88423 -1.80133 -11.872 23
236 2 -4.47007 -0.914825 -9.97126 19
237 2 -1.24825 -4.70159 -10.119 20
238 2 -3.89835 -3.91516 -8.49678 21
239 2 -1.52329 -1.98597 -8.39624 20
240 2 -4.92626 -1.27251 -6.84112 22
241 2 -1.04283 -4.83639 -6.6789 23
242 2 -4.11636 -4.09266 -5.19705 20
243 2 -2.02342 -1.95093 -5.14629 20
244 2 -5.00609 -1.12272 -3.73895 19
245 2 -1.1792 -5.24537 -3.76343 23
246 2 -4.03331 -4.21116 -1.59054 21
247 2 -1.93029 -1.70474 -2.1502 20
248 1 -17.1401 -9.7791 3.06715 6
249 1 -14.101 -8.85772 4.23616 19
250 1 -12.8374 -7.1852 -0.0204278 22
251 1 -15.8414 -7.20818 1.30633 18
252 1 -17.0872 -8.74707 6.59385 11
253 1 -12.7589 -6.5813 3.29792 24
254 1 -16.0093 -6.21581 4.55476 19
255 1 -15.4909 -7.10439 8.12504 13
256 1 -13.1966 -6.34115 6.1456 21
257 1 -11.2798 -8.94368 6.32271 18
258 1 -12.5283 -8.14989 9.49842 14
259 1 -16.7245 -4.59243 -0.351778 15
260 1 -12.2331 -1.54955 -0.108978 21
261 1 -15.4549 -1.42173 1.22267 20
262 1 -13.8298 -4.13584 1.35591 24
263 1 -16.8594 -4.08712 2.26824 13
264 1 -13.0308 -0.659574 3.11711 23
265 1 -15.8782 -1.41272 4.64338 14
266 1 -14.2947 -3.65041 4.37697 20
267 1 -17.4701 -5.06423 7.36147 9
268 1 -12.9642 -1.29178 6.39565 21
269 1 -18.5101 -2.27927 9.7944 5
270 1 -14.3073 -3.73538 8.02784 13
271 1 -13.1124 -1.77817 9.68465 15
272 1 -5.34231 -5.56054 15.7134 17
273 1 -13.1519 -2.66525 12.5986 12
274 1 -7.30459 -12.1183 -0.043488 20
275 1 -10.9881 -12.2985 1.88257 9
276 1 -7.8344 -14.3713 2.03864 13
277 1 -7.18222 -12.0547 3.17995 20
278 1 -10.1194 -11.3148 5.54964 17
279 1 -8.05184 -14.1096 5.84293 9
280 1 -7.17903 -11.7326 7.18522 16
281 1 -6.86472 -11.4951 10.0066 15
282 1 -5.83489 -11.3894 13.2594 11
283 1 -14.287 -9.22271 1.19005 15
284 1 -6.70578 -6.70338 0.0640418 20
285 1 -10.234 -6.6046 1.75752 22
286 1 -8.06754 -9.00604 1.70096 22
287 1 -10.9526 -9.59182 3.27953 20
288 1 -7.18958 -6.37412 3.43788 19
289 1 -9.87208 -6.26403 4.99868 20
290 1 -7.85244 -8.94326 5.04919 22
291 1 -13.9935 -9.81519 7.74584 10
292 1 -6.82282 -6.50076 6.83148 20
293 1 -10.1343 -6.01258 8.53614 20
294 1 -7.91404 -8.99367 8.59051 21
295 1 -10.1409 -10.6903 9.43978 11
296 1 -6.38749 -6.52604 10.0602 23
297 1 -9.90093 -7.66349 10.7501 16
298 1 -8.05404 -9.52877 12.0687 15
299 1 -7.33214 -6.89971 13.4664 16
300 1 -11.0563 -4.45295 -0.222821 20
301 1 -6.85782 -1.18159 0.00135806 23
302 1 -9.81792 -1.46217 1.50022 21
303 1 -8.22845 -3.94952 1.3036 22
304 1 -11.1548 -3.66566 3.12712 21
305 1 -6.64075 -1.32219 3.1266 24
306 1 -9.97351 -1.46477 4.78646 20
307 1 -7.62925 -3.81219 5.3521 19
308 1 -10.8854 -3.71606 6.49791 19
309 1 -7.26861 -0.903026 6.59941 22
310 1 -10.0177 -1.84859 8.09985 20
311 1 -7.81359 -4.23238 8.76843 18
312 1 -11.6956 -4.66151 10.9936 14
313 1 -7.28919 -1.16981 10.0127 21
314 1 -10.3161 -1.99104 11.4961 22
315 1 -8.42771 -4.76563 11.8021 19
316 1 -5.84237 -8.80265 14.8538 13
317 1 -7.13903 -1.16949 13.5063 21
318 1 -10.6387 -1.70621 14.7813 11
319 1 -8.33296 -3.75565 15.1507 12
320 1 -5.22083 -14.4292 0.834657 17
321 1 -0.813675 -12.1021 0.0192726 22
322 1 -3.82476 -11.9878 1.80167 23
323 1 -2.24351 -14.7804 1.94599 17
324 1 -5.01212 -14.8604 4.03843 16
325 1 -1.12732 -12.2758 3.19167 21
326 1 -3.78313 -11.8921 4.99649 18
327 1 -3.56963 -14.3812 6.68218 15
328 1 -5.54795 -14.0167 8.76492 10
329 1 -1.47205 -12.2607 6.46708 18
330 1 -3.75698 -11.7461 8.84499 19
331 1 -2.44378 -14.499 9.62137 13
332 1 0.356086 -12.4265 10.815 15
333 1 -3.68489 -13.9881 12.3921 6
334 1 -0.165336 -10.3581 13.6006 13
335 1 -5.00995 -9.58155 0.130958 21
336 1 -1.14158 -6.88147 0.101212 19
337 1 -4.12187 -6.53819 1.52873 21
338 1 -2.40061 -9.34827 1.60073 23
339 1 -5.29111 -9.34019 3.44989 21
340 1 -0.953643 -7.12888 3.3273 18
341 1 -3.98573 -7.45293 4.96162 17
342 1 -1.8487 -9.43532 5.14013 21
343 1 -4.88212 -9.19219 7.11834 20
344 1 -0.868053 -6.95553 7.04952 21
345 1 -3.86386 -6.72178 8.78455 20
346 1 -1.74397 -9.05351 9.03738 16
347 1 -4.80688 -9.22424 10.3735 17
348 1 -0.875858 -6.06358 10.1767 19
349 1 -3.76578 -6.50683 12.0254 17
350 1 -2.02401 -11.2785 11.6073 16
351 1 -2.9894 -10.777 14.9649 11
352 1 -0.543994 -5.87495 13.4139 18
353 1 -3.25936 -7.52796 14.4687 15
354 1 -0.513468 -7.97877 15.4584 13
355 1 -4.97575 -4.69637 -0.14685 17
356 1 -1.14818 -1.18996 -0.257574 22
357 1 -3.71025 -1.18484 1.44408 19
358 1 -1.97556 -4.05207 1.26248 21
359 1 -4.83254 -3.94984 3.13055 18
360 1 -1.02704 -1.7914 3.2428 20
361 1 -4.10733 -1.05539 4.88532 22
362 1 -2.07758 -4.68535 4.85578 19
363 1 -4.90821 -3.87191 6.52531 20
364 1 -1.28874 -0.870156 6.51851 17
365 1 -4.3614 -1.08397 8.13672 21
366 1 -2.08264 -3.71102 8.27284 18
367 1 -5.22269 -4.05458 10.0423 21
368 1 -1.04912 -1.17926 9.95412 20
369 1 -4.03762 -1.20295 11.6481 22
370 1 -1.98298 -3.44428 11.5658 19
371 1 -5.76298 -3.69177 12.6426 22
372 1 -2.17542 -3.60902 15.0423 17
373 1 -4.21903 -1.5175 15.1119 21
374 1 -4.07761 -3.67067 17.6594 14
375 2 -16.4623 -6.51107 -0.357543 14
376 2 -15.9915 -8.98319 1.776 12
377 2 -16.9975 -6.96966 6.31871 11
378 2 -13.9821 -6.27494 1.52716 23
379 2 -16.31 -5.72949 2.70327 15
380 2 -17.1612 -9.69174 4.92343 8
381 2 -14.334 -6.9714 4.55277 20
382 2 -16.0038 -3.16842 3.73788 15
383 2 -15.7026 -9.18291 7.93339 8
384 2 -13.5391 -7.91261 8.02361 17
385 2 -16.769 -0.324701 -0.140553 12
386 2 -12.9694 -3.84941 -0.327175 21
387 2 -16.3621 -3.09233 0.958638 13
388 2 -13.4176 -1.12175 1.38909 21
389 2 -15.5077 -0.219503 3.09982 17
390 2 -13.1036 -4.55481 3.11859 22
391 2 -18.1905 -3.16654 8.08445 8
392 2 -13.7701 -1.425 4.62591 20
393 2 -16.8698 -0.62523 6.28203 15
394 2 -13.6041 -4.49962 6.14672 18
395 2 -15.804 -4.91828 8.11 11
396 2 -13.7403 -1.95617 7.9124 20
397 2 -11.1347 -1.37978 9.68447 22
398 2 -13.218 -3.39504 10.8035 12
399 2 -13.1045 -8.75229 2.48053 16
400 2 -7.35025 -14.0208 0.246857 13
401 2 -11.3929 -11.456 3.59518 13
402 2 -8.8742 -12.5614 2.09483 17
403 2 -12.9068 -9.29927 5.58478 16
404 2 -7.16522 -14.3691 3.75256 11
405 2 -8.64957 -12.3172 5.96545 13
406 2 -11.6535 -9.74963 8.37711 14
407 2 -5.59655 -12.0308 8.66037 16
408 2 -6.73719 -10.9741 11.7884 13
409 2 -10.9732 -6.41396 -0.177867 22
410 2 -6.79371 -9.97827 0.65859 20
411 2 -9.90263 -9.38083 1.50965 21
412 2 -8.1168 -6.9332 1.74504 20
413 2 -10.8624 -7.26818 3.44417 25
414 2 -7.1916 -10.01 3.62838 20
415 2 -9.73385 -9.29987 5.08962 17
416 2 -7.9822 -7.01208 5.15626 21
417 2 -11.3244 -6.64446 6.56235 19
418 2 -7.00188 -9.4339 6.9227 19
419 2 -8.31625 -10.7876 8.59777 13
420 2 -8.0622 -6.57111 8.6382 18
421 2 -11.4168 -6.4028 10.0902 14
422 2 -8.7417 -6.78302 11.8786 15
423 2 -9.26092 -9.43795 10.8684 14
424 2 -4.64059 -7.6755 16.0916 15
425 2 -7.15853 -8.95218 13.6209 11
426 2 -6.52185 -8.36936 9.79507 21
427 2 -4.72901 -10.3385 14.4338 11
428 2 -10.2672 -1.2623 -0.31403 21
429 2 -6.96723 -4.55227 -0.237356 19
430 2 -10.2197 -4.14544 1.52228 19
431 2 -7.75793 -1.90575 1.53091 20
432 2 -10.9184 -1.67792 3.03527 20
433 2 -6.73682 -4.4928 3.84202 18
434 2 -9.73363 -4.44526 4.78997 20
435 2 -8.05274 -1.5375 4.99829 21
436 2 -11.1661 -1.80904 6.25837 20
437 2 -6.69965 -4.68947 7.12665 20
438 2 -10.1225 -4.12052 8.1532 17
439 2 -8.04947 -2.25948 8.22866 22
440 2 -13.3425 0.344577 9.49879 17
441 2 -7.00495 -4.83709 10.6264 20
442 2 -10.0052 -4.00229 11.2574 18
443 2 -8.57995 -0.926186 11.5758 20
444 2 -11.4303 -2.87901 13.4092 13
445 2 -7.34605 -4.96188 13.4109 16
446 2 -6.80676 -4.37776 16.3133 14
447 2 -6.84737 -1.22361 15.5685 19
448 2 -5.07854 -12.6979 0.0552514 23
449 2 -0.74457 -15.6383 0.703052 13
450 2 -4.1275 -15.1103 2.18471 15
451 2 -1.8764 -12.6079 1.65936 24
452 2 -4.93943 -12.3332 3.3812 19
453 2 -3.36591 -15.3992 5.037 13
454 2 -6.41396 -13.9414 6.85972 13
455 2 -1.94577 -11.5989 4.86311 18
456 2 -3.5481 -12.6803 6.93145 18
457 2 -0.481998 -15.474 6.38263 13
458 2 -4.029 -14.9999 8.3795 10
459 2 -0.578041 -13.5544 9.47061 15
460 2 -2.44237 -12.9989 11.0927 11
461 2 -2.01402 -11.4141 13.3986 12
462 2 -4.90222 -7.3899 -0.119297 22
463 2 -1.22942 -10.069 0.015123 24
464 2 -3.97083 -10.1487 1.75199 22
465 2 -2.01251 -7.1441 1.71189 22
466 2 -4.96562 -7.60537 2.83995 22
467 2 -0.845568 -9.20958 3.37862 20
468 2 -3.92901 -9.70852 5.0291 21
469 2 -2.17727 -6.97031 5.03384 18
470 2 -4.73343 -7.13302 6.70208 22
471 2 -0.814863 -8.95766 6.94084 19
472 2 -3.52815 -9.63964 8.69038 17
473 2 -1.80206 -7.07528 8.61803 20
474 2 -4.53055 -7.19217 10.45 17
475 2 -1.15413 -9.85669 10.84 16
476 2 -4.71872 -12.8475 13.0025 9
477 2 -1.74993 -5.724 11.9517 17
478 2 -5.08185 -6.69362 13.7994 18
479 2 0.971306 -9.25745 14.9835 13
480 2 -2.17707 -9.01238 15.0577 13
481 2 -1.71943 -6.31698 14.9861 20
482 2 -4.84498 -1.66398 -0.369457 20
483 2 -0.969584 -4.91213 -0.182989 22
484 2 -3.83763 -4.71049 1.60079 21
485 2 -1.83617 -1.77859 1.56183 20
486 2 -4.91513 -1.91015 2.73938 20
487 2 -1.17701 -4.07079 3.25527 20
488 2 -4.02845 -4.04438 4.79281 17
489 2 -2.01517 -1.14455 4.73133 19
490 2 -5.43768 -1.6771 6.54618 21
491 2 -1.32217 -4.22037 6.55257 19
492 2 -4.23107 -4.28224 8.41845 21
493 2 -2.26951 -1.58177 7.99479 19
494 2 -5.52482 -1.87412 9.97819 21
495 2 -1.26595 -3.89363 9.97043 19
496 2 -3.98947 -4.12621 11.9104 19
497 2 -1.88248 -1.44378 11.5388 19
498 2 -5.21577 -1.70483 13.067 20
499 2 -0.98677 -3.53526 13.2863 18
500 2 -3.98678 -3.88885 15.0646 21
501 2 -2.18025 -1.57634 15.0309 18
502 1 -12.5117 2.63827 -12.0182 12
503 1 -12.7261 5.56691 -10.199 11
504 1 -15.1928 4.51601 -8.21228 11
505 1 -13.6006 2.22346 -8.7587 19
506 1 -15.7595 1.3725 -7.14357 13
507 1 -12.2229 3.6936 -6.61893 20
508 1 -15.2358 3.86918 -4.87065 17
509 1 -13.4808 2.09907 -5.08467 20
510 1 -16.0191 0.867897 -3.46155 16
511 1 -12.878 4.51005 -3.22337 19
512 1 -15.4303 4.11232 -1.66427 16
513 1 -13.1211 1.75893 -1.64799 19
514 1 -12.0905 8.41325 -8.53873 13
515 1 -13.9053 6.64349 -6.17839 15
516 1 -14.6771 9.97423 -3.89929 11
517 1 -12.9611 9.49277 -6.44016 13
518 1 -14.4641 7.00641 -2.64648 19
519 1 -11.5367 11.7091 -8.75413 9
520 1 -15.0868 9.84848 -0.483726 12
521 1 -12.4618 8.7795 -1.8665 20
522 1 -6.07104 3.54531 -17.2445 10
523 1 -7.67038 2.92105 -14.4679 19
524 1 -7.70035 0.562807 -16.8027 12
525 1 -10.2032 1.38593 -14.0588 16
526 1 -7.06873 5.11644 -13.1411 19
527 1 -10.1303 3.71897 -11.9221 19
528 1 -7.65553 2.15944 -11.9427 23
529 1 -10.7002 1.16636 -10.2696 24
530 1 -7.20718 4.48849 -10.0146 18
531 1 -9.88752 4.00232 -8.48128 20
532 1 -7.93562 1.58027 -8.40884 23
533 1 -10.6398 1.02179 -6.69266 21
534 1 -6.59306 4.35894 -6.71079 20
535 1 -9.21245 3.43652 -5.14263 22
536 1 -7.7142 0.817436 -5.14876 19
537 1 -10.4621 1.84608 -3.41782 19
538 1 -6.69361 4.43814 -3.31039 20
539 1 -9.4894 4.00966 -1.67169 19
540 1 -7.56307 1.57038 -1.61022 22
541 1 -6.47071 6.30334 -15.6616 13
542 1 -9.30168 7.15953 -13.0894 11
543 1 -5.8147 9.71196 -9.62936 20
544 1 -8.63278 9.50117 -10.5941 14
545 1 -6.15152 8.45891 -12.5616 17
546 1 -9.47421 6.86742 -9.81178 19
547 1 -5.77033 11.1934 -11.965 13
548 1 -9.33787 9.84308 -7.32962 21
549 1 -7.31046 7.48871 -8.02972 19
550 1 -10.2416 6.92142 -6.51027 19
551 1 -6.37166 10.1395 -6.54918 20
552 1 -9.86406 9.64581 -4.28457 19
553 1 -7.72643 7.34428 -5.04423 20
554 1 -10.6103 6.53167 -3.45681 21
555 1 -6.97983 10.2658 -3.55111 17
556 1 -9.6816 9.69996 -1.23838 19
557 1 -7.7074 7.47807 -1.87044 23
558 1 -6.23528 13.0988 -8.40159 14
559 1 -9.10999 12.4978 -7.04473 12
560 1 -7.69472 15.7257 -6.6912 8
561 1 -7.15252 13.3327 -4.85837 18
562 1 -12.3993 11.5546 -2.98459 12
563 1 -7.40739 13.0406 -1.42735 19
564 1 -12.3242 12.9064 -5.55937 10
565 1 -10.2764 12.6145 0.439635 14
566 1 -4.65567 0.92819 -16.5443 17
567 1 -0.761108 5.4112 -16.7629 12
568 1 -4.42451 4.12108 -14.6751 20
569 1 -1.539 2.19401 -15.249 19
570 1 -4.71134 1.52123 -13.3796 20
571 1 -1.53189 4.8341 -13.4425 21
572 1 -4.18426 4.01036 -11.4435 20
573 1 -1.60522 1.79704 -11.7984 23
574 1 -4.55483 0.942571 -9.92264 20
575 1 -1.49657 4.83493 -10.0262 22
576 1 -3.16592 3.89464 -8.33952 19
577 1 -1.38648 1.6435 -8.33513 19
578 1 -4.99701 1.23602 -6.99725 20
579 1 -0.700495 4.67564 -6.51218 20
580 1 -3.91512 3.72785 -5.30227 20
581 1 -1.99811 1.52833 -5.09103 20
582 1 -5.00782 1.01151 -3.57726 20
583 1 -1.28348 4.4258 -3.43255 22
584 1 -3.62603 4.39674 -1.5287 21
585 1 -1.92602 1.43404 -1.98036 20
586 1 -3.71732 6.83059 -16.8462 10
587 1 -4.77772 9.2647 -14.9488 13
588 1 -1.29783 8.90478 -14.9262 16
589 1 -3.16327 7.13504 -13.264 19
590 1 -2.59465 11.5309 -13.9589 14
591 1 -2.80852 9.68182 -11.24 21
592 1 -0.456916 7.53865 -11.532 20
593 1 -3.94992 6.83929 -9.96152 21
594 1 -0.459693 10.7388 -9.92913 23
595 1 -3.14518 9.44847 -7.94687 21
596 1 -0.842737 7.36791 -8.28769 21
597 1 -4.95583 7.11023 -6.74337 19
598 1 -0.915585 10.4706 -6.34059 21
599 1 -4.04677 9.21263 -4.7773 19
600 1 -1.62876 7.32612 -5.31611 20
601 1 -4.75324 6.47791 -3.46703 20
602 1 -1.22624 9.95753 -3.33727 23
603 1 -3.81436 9.62291 -1.71245 21
604 1 -2.01253 6.92314 -1.69129 21
605 1 -1.30212 13.5114 -11.7874 12
606 1 -3.96241 12.2393 -10.4484 16
607 1 -2.8267 14.6267 -8.30606 11
608 1 -0.643724 12.7276 -8.17746 20
609 1 -3.51736 12.1019 -6.80541 21
610 1 0.905333 15.2419 -6.8315 13
611 1 -4.24655 14.7472 -4.96995 17
612 1 -1.45984 13.3699 -4.61385 20
613 1 -4.44059 12.0664 -3.21989 20
614 1 -7.15488 16.4365 -3.36562 10
615 1 -2.32323 16.2954 0.420185 12
616 1 -2.05647 13.0289 -1.34473 25
617 2 -12.4545 1.4599 -13.2395 11
618 2 -12.0335 4.40225 -11.5597 14
619 2 -12.7354 1.43733 -10.2898 14
620 2 -15.577 2.649 -8.59223 10
621 2 -12.5989 3.93336 -8.54546 20
622 2 -15.046 4.91293 -6.43939 15
623 2 -12.7379 1.31174 -6.93219 22
624 2 -15.3936 1.87648 -5.283 17
625 2 -13.1522 4.01604 -4.98217 20
626 2 -14.9682 5.11702 -3.467 15
627 2 -12.4937 1.40681 -3.57705 20
628 2 -15.2908 1.85197 -2.0174 18
629 2 -13.4403 3.94029 -1.41713 20
630 2 -12.5496 10.0667 -8.10042 13
631 2 -11.7372 7.07615 -9.70925 13
632 2 -12.0213 7.33789 -6.66997 19
633 2 -14.3427 8.20899 -5.09627 14
634 2 -10.9763 12.9237 -7.08859 11
635 2 -12.5956 6.76312 -3.00979 19
636 2 -15.3232 7.99304 -1.33894 15
637 2 -13.2205 11.3044 -4.77239 13
638 2 -11.4711 13.3695 -3.82302 8
639 2 -6.25575 1.64156 -17.201 13
640 2 -9.12034 5.00401 -13.1982 17
641 2 -8.64761 1.90548 -15.676 14
642 2 -6.497 4.16155 -15.1592 18
643 2 -6.63192 1.45404 -13.4273 21
644 2 -9.36874 2.02538 -12.5497 19
645 2 -6.23564 4.08056 -11.8635 20
646 2 -9.37918 4.56514 -10.3865 20
647 2 -7.42768 1.02183 -10.4262 20
648 2 -9.92623 2.0162 -8.41962 20
649 2 -6.99562 3.22174 -8.44513 19
650 2 -10.3522 4.26464 -6.46739 17
651 2 -6.81813 1.05525 -6.91331 22
652 2 -9.4826 1.1981 -5.02998 20
653 2 -7.29114 3.16902 -5.05681 22
654 2 -10.2797 4.3297 -3.43198 20
655 2 -6.8565 0.966154 -3.26737 21
656 2 -9.60402 1.78999 -1.67917 20
657 2 -7.10072 3.42443 -1.55514 20
658 2 -7.42229 6.84002 -13.8531 13
659 2 -9.06711 7.82299 -11.4619 14
660 2 -6.97655 9.47682 -11.2678 16
661 2 -9.39833 7.85187 -8.10476 19
662 2 -7.47143 6.13539 -9.50972 18
663 2 -10.8208 9.85946 -6.02743 19
664 2 -5.86044 8.80596 -8.04588 20
665 2 -9.9277 10.2686 -8.99782 15
666 2 -6.71347 6.23589 -6.54004 20
667 2 -9.7064 7.52813 -4.76626 17
668 2 -6.46281 9.00167 -5.083 19
669 2 -10.9493 9.67282 -2.71603 16
670 2 -7.55152 6.18776 -3.33146 19
671 2 -9.6777 7.59821 -1.41257 20
672 2 -7.68461 9.42839 -1.73352 21
673 2 -3.61705 11.388 -12.3217 16
674 2 -4.19655 13.4685 -8.04861 14
675 2 -8.40385 15.1392 -3.78131 11
676 2 -7.92588 11.1101 -6.41634 17
677 2 -7.52404 13.7177 -7.0098 12
678 2 -9.10512 13.216 -1.42631 12
679 2 -12.345 11.697 2.26128 11
680 2 -9.37824 13.4397 1.98682 15
681 2 -4.73219 5.10851 -16.4695 11
682 2 -2.21491 1.05316 -16.8189 10
683 2 -3.71511 2.39254 -14.9462 19
684 2 -0.883785 4.25985 -15.3873 16
685 2 -3.38909 4.93627 -13.2552 21
686 2 -0.730151 1.21127 -13.4212 21
687 2 -3.6503 2.03124 -11.1897 20
688 2 -0.839204 3.66038 -11.8907 22
689 2 -3.36578 4.99399 -10.0428 18
690 2 -1.03268 0.837585 -10.0627 21
691 2 -3.55789 1.82213 -8.31755 20
692 2 -1.10888 3.66257 -8.4445 21
693 2 -4.57293 4.16173 -7.09241 20
694 2 -0.79354 0.672669 -6.63243 19
695 2 -4.01385 1.64552 -5.21922 20
696 2 -1.90884 4.06891 -5.19577 18
697 2 -4.68652 4.4156 -3.56386 19
698 2 -0.670053 0.618275 -3.49662 21
699 2 -3.74706 1.18517 -2.00058 21
700 2 -2.11236 3.31075 -2.0125 24
701 2 -1.80321 6.86855 -16.5367 12
702 2 -4.94391 7.5319 -15.5775 14
703 2 -3.00058 9.71116 -14.8199 14
704 2 -5.79669 10.2038 -13.5994 11
705 2 -1.32361 6.95814 -13.1269 20
706 2 -3.62735 7.93546 -11.5929 21
707 2 -0.876137 9.63258 -11.3839 22
708 2 -3.78085 10.3065 -9.62366 20
709 2 -0.840268 6.46055 -10.1313 22
710 2 -3.06922 7.57456 -8.1423 21
711 2 -1.11546 10.5418 -8.3487 21
712 2 -4.68603 10.7461 -6.64317 23
713 2 -0.448131 6.50673 -6.61203 21
714 2 -3.83895 6.91622 -5.15561 19
715 2 -2.09181 9.44706 -5.19244 20
716 2 -4.79438 10.3542 -3.13397 20
717 2 -1.38295 6.42754 -3.43252 22
718 2 -3.86835 6.39128 -1.70335 21
719 2 -2.11861 9.41513 -0.91063 22
720 2 0.427333 12.524 -11.6795 14
721 2 -1.29114 12.8445 -14.0359 7
722 2 -2.14894 13.0712 -9.95471 15
723 2 -5.95097 11.7585 -9.72933 15
724 2 -0.895101 14.8268 -7.69666 12
725 2 -6.28977 15.6628 -5.1563 11
726 2 -1.39072 12.5145 -6.51286 22
727 2 -3.66004 12.9127 -4.94309 21
728 2 -0.00800559 14.5056 -4.94486 17
729 2 -6.49804 12.4432 -2.97566 18
730 2 -1.51597 11.9253 -2.9691 25
731 2 -4.13317 13.7316 -1.1545 24
732 2 -2.80217 15.3396 -3.37244 15
733 1 -16.488 1.53977 -0.274798 13
734 1 -12.3842 4.2001 0.154193 18
735 1 -15.632 4.62106 1.63534 17
736 1 -13.5408 1.58223 1.73434 19
737 1 -15.7076 1.65932 3.26098 15
738 1 -12.4887 4.99444 3.22324 23
739 1 -17.8548 3.55128 5.88586 9
740 1 -12.2593 2.75777 5.13453 16
741 1 -15.818 1.31635 6.15967 17
742 1 -11.9437 6.02969 6.14628 19
743 1 -16.2564 2.63829 9.63736 11
744 1 -13.808 1.62097 8.27416 17
745 1 -14.0 4.06895 11.2623 11
746 1 -14.5927 0.390371 11.0097 13
747 1 -16.4614 6.8156 -0.141105 10
748 1 -12.3392 10.0833 1.03758 17
749 1 -15.2565 9.9215 5.67656 9
750 1 -13.4793 6.91676 1.22824 22
751 1 -15.6394 7.20801 3.20758 15
752 1 -13.8748 10.8984 3.05786 9
753 1 -13.1111 8.14887 4.51172 18
754 1 -15.3224 5.19621 5.22296 14
755 1 -8.24753 12.0719 8.01811 13
756 1 -14.7815 5.17952 8.25617 12
757 1 -10.4251 0.936921 -0.145553 21
758 1 -6.51135 4.41114 0.0907454 23
759 1 -9.50865 3.95081 1.43875 23
760 1 -7.74947 1.4759 1.48807 21
761 1 -10.6954 1.42362 3.09212 20
762 1 -6.75019 4.09287 3.34903 20
763 1 -9.83094 4.22227 4.75306 22
764 1 -8.04007 1.35387 4.71374 20
765 1 -10.7281 0.621657 6.64133 22
766 1 -7.00529 3.74792 6.62995 19
767 1 -10.2944 4.25731 7.8705 20
768 1 -8.46174 1.65523 8.89079 19
769 1 -11.4268 0.440571 10.1095 19
770 1 -7.11263 3.95027 9.83841 19
771 1 -10.6183 3.00655 12.32 13
772 1 -8.67895 0.984162 11.6467 17
773 1 -12.4236 0.485333 13.0188 13
774 1 -7.81365 2.93289 12.7734 16
775 1 -9.83877 1.20512 15.1423 15
776 1 -7.26909 0.600261 15.5937 17
777 1 -10.8089 6.72381 0.0782938 22
778 1 -6.67452 9.93323 -0.154618 21
779 1 -9.29386 9.42405 1.84963 21
780 1 -7.43189 6.86346 1.31304 23
781 1 -10.6564 6.94577 2.98157 20
782 1 -6.55777 9.1665 3.40799 21
783 1 -10.2789 8.53969 6.76721 17
784 1 -7.79745 6.69154 5.04141 18
785 1 -13.1483 8.67002 7.93906 15
786 1 -6.96052 9.41837 6.76119 18
787 1 -10.7965 10.8287 8.69294 12
788 1 -8.16985 6.78637 8.30375 20
789 1 -11.7448 6.8443 9.50965 16
790 1 -6.8741 9.66575 10.3749 17
791 1 -11.3821 9.12749 14.4172 5
792 1 -8.51177 7.11339 10.9936 18
793 1 -11.2534 5.95518 12.5912 13
794 1 -4.31295 8.58977 14.8155 11
795 1 -9.19664 5.29638 14.5389 11
796 1 -11.2311 12.0063 3.73796 14
797 1 -9.88285 14.0119 -2.92377 10
798 1 -6.26017 16.3756 3.24889 9
799 1 -9.16502 14.5331 3.57284 14
800 1 -10.4886 13.303 6.48181 11
801 1 -7.52621 12.3725 1.95898 18
802 1 -7.05133 14.8872 6.33319 12
803 1 -13.6227 11.8243 8.10748 8
804 1 -8.34221 10.969 4.64797 19
805 1 -10.0401 9.9101 11.07 11
806 1 -4.92366 1.38534 -0.393484 23
807 1 -0.869379 3.92828 -0.290497 19
808 1 -3.23692 4.40488 1.5188 23
809 1 -1.96667 1.4931 1.47208 22
810 1 -4.85239 1.95516 3.13301 23
811 1 -0.742179 3.4817 3.75923 18
812 1 -3.8979 4.13346 5.20991 19
813 1 -2.16366 1.02773 4.8511 19
814 1 -5.18581 1.53097 6.55017 21
815 1 -0.936148 3.29838 6.7431 18
816 1 -4.03953 4.09876 8.33649 21
817 1 -2.06738 1.13182 8.28389 20
818 1 -5.05344 1.30348 9.71136 21
819 1 -1.31362 3.71281 10.3154 18
820 1 -4.61844 3.93217 11.9549 18
821 1 -2.0931 1.32657 11.9028 23
822 1 -4.99663 1.48505 13.3193 19
823 1 -1.08419 3.7166 13.6928 22
824 1 -4.38839 4.00548 15.4399 15
825 1 -1.98664 1.17678 15.1991 20
826 1 -4.67466 6.75304 -0.160951 21
827 1 -1.00301 10.1745 0.474158 20
828 1 -3.91987 9.78546 1.24328 22
829 1 -1.60919 6.7822 1.51443 20
830 1 -4.9019 6.76122 3.13727 21
831 1 -0.930329 9.20432 3.31676 22
832 1 -3.86877 9.19013 4.95002 20
833 1 -2.13749 6.97005 4.70945 20
834 1 -5.20076 6.67957 6.91653 21
835 1 -1.1531 9.09235 7.24052 21
836 1 -4.13452 9.67195 8.3919 22
837 1 -2.30167 6.61726 8.66033 19
838 1 -5.54808 6.78102 9.8511 21
839 1 -1.15033 8.43948 10.2875 20
840 1 -3.70614 9.64567 11.4214 18
841 1 -2.72245 5.89352 12.0194 20
842 1 -5.81761 6.74856 13.1956 20
843 1 -1.66026 9.61679 13.6052 14
844 1 -8.67311 8.58189 13.2897 14
845 1 -1.4603 8.93485 16.9034 9
846 1 -4.77028 12.404 0.129433 22
847 1 -0.352833 14.7902 0.738927 19
848 1 -3.83604 15.3398 -2.05679 15
849 1 -2.31107 12.1276 1.57941 22
850 1 -5.03413 11.8072 3.69129 23
851 1 -0.788132 14.3298 3.37054 20
852 1 -3.79669 14.2354 5.32636 16
853 1 -1.75966 11.8678 5.29719 23
854 1 -4.98681 11.8968 6.75124 19
855 1 -0.830132 14.2457 6.77598 14
856 1 -3.88068 14.9701 8.13396 11
857 1 -1.91178 12.334 8.51728 19