ITEM: TIMESTEP
14
ITEM: NUMBER OF ATOMS
500
ITEM: BOX BOUNDS pp pp pp
-30.0 30.0
-30.0 30.0
-30.0 30.0
ITEM: ATOMS id type x y z Coordination
1 1 1.85157 26.1047 -16.0669 25
2 1 10.3533 23.0411 -6.20719 18
3 1 4.11727 27.8645 -2.93147 16
4 1 13.0008 22.675 -12.3003 21
5 1 -3.37193 21.8114 -8.72231 21
6 1 1.34698 22.0898 -18.4791 17
7 1 6.99785 25.6791 -2.93821 22
8 1 7.33859 18.1448 -15.0574 18
9 1 -3.14584 23.6056 -10.9455 22
10 1 6.28038 24.7023 -18.8981 16
11 1 9.09349 19.0474 -12.8344 21
12 1 11.4428 23.8249 -9.44715 19
13 1 6.87188 28.8925 -16.3568 23
14 1 7.19501 29.354 -5.82229 20
15 1 7.35009 -27.5173 -2.69285 13
16 1 -2.17969 16.8679 -10.5047 17
17 1 -3.70016 17.7119 -13.3356 11
18 1 15.1101 25.0965 -12.2678 11
19 1 7.84972 23.1903 -1.69684 16
20 1 0.265935 17.8587 -9.84641 21
21 1 1.72883 20.2034 -15.724 22
22 1 8.20677 20.6391 -15.9533 23
23 1 10.7317 18.5635 -15.3568 13
24 1 11.2472 17.4184 -5.72011 18
25 1 -2.17215 29.8134 -4.61365 12
26 1 9.76268 24.4027 -3.91566 17
27 1 5.9025 -28.1507 -11.1238 21
28 1 2.99906 19.2308 -18.3169 14
29 1 7.27576 29.2989 -1.19473 14
30 1 11.3795 17.8169 -8.83587 21
31 1 4.90279 -26.1935 -3.50532 8
32 1 2.23023 -29.3615 -8.45527 24
33 1 6.35543 -29.3082 -19.0224 13
34 1 12.4807 -28.6222 -11.2294 11
35 1 4.49509 -25.042 -16.1628 11
36 1 -1.28167 28.0243 -18.6457 14
37 1 4.03458 -26.8839 -9.37584 13
38 1 5.43229 29.9375 -13.6848 26
39 1 -0.835437 -28.9215 -8.17212 15
40 1 5.71418 -27.6927 -6.09271 20
41 1 1.80866 27.865 -18.8814 19
42 1 -0.0101868 16.4608 -6.95725 15
43 1 0.24764 21.6533 -13.1491 21
44 1 9.40192 15.6892 -13.5638 13
45 1 -1.5848 24.7333 -8.19274 23
46 1 -1.41931 24.5785 -13.1963 21
47 1 1.55386 13.4753 -6.62082 11
48 1 10.2125 28.9459 -16.3847 21
49 1 -3.40907 19.8464 -16.3419 11
50 1 8.44444 28.2844 -19.0803 12
51 1 6.44817 17.5651 -10.4014 23
52 1 7.78154 -25.3277 -11.1651 17
53 1 -4.77424 25.0584 -8.28175 18
54 1 8.3715 -25.7395 -4.74742 12
55 1 6.78933 21.4808 -3.81373 19
56 1 6.16307 15.3942 -14.3919 14
57 1 11.6817 26.0831 -17.2605 13
58 1 6.48186 15.7105 -8.18357 20
59 1 7.7802 13.4654 -5.77713 10
60 1 10.8006 21.5655 -2.52144 16
61 1 9.43738 19.6429 -5.15984 20
62 1 9.16344 -28.2277 -11.1744 21
63 1 -1.17065 13.9175 -8.48925 12
64 1 1.2101 14.9388 -10.3294 18
65 1 3.27388 17.7579 -10.1966 24
66 1 8.79485 -30.0772 -13.7545 22
67 1 8.44819 18.3417 -8.00565 20
68 1 1.55954 21.1928 -5.14268 19
69 1 -4.66666 20.3685 -11.3791 17
70 1 9.42446 15.0182 -8.45599 19
71 1 3.31324 16.0819 -7.36941 22
72 1 4.55974 -29.3889 -2.14967 11
73 1 -5.22646 17.3645 -10.362 11
74 1 2.6164 -27.306 -6.06679 13
75 1 -3.32434 -29.5366 -7.36943 10
76 1 -3.0482 27.1421 -3.19251 12
77 1 -4.79939 24.2803 -13.319 13
78 1 -1.2787 26.4597 -15.8264 22
79 1 -2.17284 22.3707 -18.2231 12
80 1 13.1486 23.277 -4.47244 13
81 1 5.50328 21.4213 -0.408081 12
82 1 -0.194626 25.0184 -18.5102 16
83 1 -5.19533 26.3632 -15.1254 12
84 1 -0.65768 16.0056 -12.9598 13
85 1 -6.68011 20.3018 -8.98766 11
86 1 2.00807 26.9828 -5.40199 23
87 1 2.13152 -29.9779 -13.6995 23
88 1 2.95199 14.1542 -15.4053 11
89 1 3.77196 29.7274 -5.61973 19
90 1 10.0156 26.9735 -13.7216 24
91 1 -4.72304 23.0117 -16.3317 12
92 1 -2.98322 27.5033 -12.9651 21
93 1 1.87055 12.0614 -9.00233 10
94 1 8.01604 16.5572 -2.61532 13
95 1 0.457441 29.1648 -16.227 20
96 1 1.31903 22.928 -2.62723 13
97 1 -3.41047 24.6637 -5.50114 15
98 1 0.809734 17.1073 -15.6526 15
99 1 4.74412 23.1811 -2.74361 24
100 1 6.44694 18.4578 -4.33166 20
101 1 11.1159 21.4324 -14.7872 20
102 1 10.2196 28.6685 -11.0543 22
103 1 0.456068 27.8614 -8.32748 22
104 1 6.39861 23.1844 -16.1851 22
105 1 10.9144 18.2478 -2.5957 14
106 1 -1.10173 18.9993 -14.4738 18
107 1 -4.76735 19.0105 -7.47358 11
108 1 11.9654 25.9737 -5.59965 17
109 1 12.1823 29.3362 -13.3949 18
110 1 5.01629 27.7893 -19.043 18
111 1 3.58499 -27.094 -18.7198 10
112 1 10.2369 -26.6774 -14.3691 17
113 1 8.46156 -28.3369 -16.4118 19
114 1 10.5746 15.0144 -3.80794 12
115 1 14.2744 17.2998 -10.6489 12
116 1 7.02897 14.3067 -11.5791 13
117 1 -3.19398 28.6499 -16.0872 13
118 1 13.3988 26.4218 -14.4796 16
119 1 3.62031 28.8543 -16.319 22
120 1 2.3789 -27.7458 -15.7922 16
121 1 4.85216 18.4878 -13.0333 23
122 1 9.41836 16.9638 -10.9101 23
123 1 -1.55791 19.1726 -8.09359 20
124 1 4.52195 14.7294 -10.1831 18
125 1 6.4734 19.2409 -18.4842 13
126 1 10.6202 28.9418 -5.64497 18
127 1 12.3103 15.1817 -7.14579 11
128 1 14.0287 23.7111 -15.3728 11
129 1 3.2999 23.1144 -15.9916 24
130 1 8.00466 26.411 0.101995 10
131 1 4.76412 27.7616 0.0858334 12
132 1 9.97554 20.2946 -18.3529 11
133 1 -3.32766 27.6749 -9.02716 17
134 1 7.31042 -27.1805 -13.8048 25
135 1 13.3466 28.9636 -16.4264 11
136 1 3.10848 24.92 -18.7524 19
137 1 -4.66589 27.7311 -5.99658 12
138 1 5.12453 18.1943 -1.46327 12
139 1 14.9202 24.9195 -6.66502 12
140 1 -3.52064 25.5883 -17.882 13
141 1 13.9382 18.4635 -7.37445 13
142 1 4.40692 12.882 -13.2278 11
143 1 9.65592 -29.1121 -3.13143 12
144 1 5.4638 15.3809 -4.72358 16
145 1 12.2259 20.4027 -5.18321 18
146 1 12.45 29.1486 -9.42441 16
147 1 11.2122 19.9562 -11.0745 21
148 1 12.5988 -28.8071 -6.93286 12
149 1 2.65562 15.7943 -12.7131 24
150 1 11.1457 -25.5794 -6.6873 10
151 1 0.324746 27.3445 -13.345 28
152 1 0.702161 -29.0633 -18.5266 12
153 1 2.6658 25.6562 -2.18266 15
154 1 -1.52628 20.4668 -11.1775 21
155 1 9.27383 -28.0881 -6.03542 18
156 1 0.41664 29.8672 -5.76872 16
157 1 -1.26261 26.6472 -10.5753 23
158 1 9.07625 -23.87 -13.2101 11
159 1 9.62826 27.6372 -2.66428 13
160 1 -2.00188 21.8823 -5.93277 16
161 1 4.67997 21.9229 -18.7408 19
162 1 0.32844 27.8818 -2.99441 13
163 1 11.3136 24.2664 -14.6923 19
164 1 10.9671 -25.4122 -10.4966 12
165 1 8.46095 16.223 -5.68633 19
166 1 1.25554 -26.2735 -8.73615 9
167 1 3.77063 17.3398 -15.3687 18
168 1 8.10388 19.711 -1.89633 17
169 1 5.09181 26.0253 -16.2378 23
170 1 -1.56638 24.8744 -2.64462 9
171 1 13.8598 20.4531 -9.8746 15
172 1 5.64236 -27.8345 -16.211 21
173 1 13.3474 -28.0069 -14.7632 9
174 1 5.37145 25.0126 -0.23912 14
175 1 3.37436 20.1624 -2.56264 16
176 1 0.461299 29.4892 -10.9332 22
177 1 10.8561 -27.7006 -8.82329 18
178 1 -3.24124 16.2898 -7.64441 13
179 1 13.7389 26.2378 -9.37103 14
180 1 1.55409 18.6661 -12.8803 27
181 1 15.2775 23.333 -9.68952 13
182 1 12.079 16.874 -12.4558 15
183 1 7.46478 -27.1913 -8.55034 20
184 1 -5.35561 26.243 -11.3776 11
185 1 4.18385 -26.9301 -13.3845 17
186 1 7.93272 -24.926 -16.1085 13
187 1 0.135633 23.3195 -15.9029 19
188 1 7.93 21.8562 -19.6646 11
189 1 1.1526 13.0129 -12.4951 10
190 1 4.7609 13.2009 -7.07707 13
191 1 13.4353 19.7037 -13.2002 12
192 1 -6.29506 23.1437 -10.2377 15
193 1 3.36113 -29.4876 -20.3154 10
194 1 -2.91446 21.682 -13.8567 17
195 1 14.773 21.6113 -6.88362 11
196 1 -0.446854 19.584 -17.8616 12
197 1 -2.64304 29.981 -10.8368 14
198 1 -5.44608 22.5133 -6.81087 13
199 1 8.93713 29.7976 -8.39419 24
200 1 13.8288 28.1747 -6.59675 11
201 1 1.91118 19.1234 -7.4972 21
202 1 8.35101 26.101 -16.5287 21
203 1 11.6988 -28.141 -17.0719 10
204 1 8.96782 -24.4634 -8.00924 12
205 1 5.77768 -23.8903 -13.8671 11
206 1 11.7963 25.7475 -11.603 20
207 1 0.0848166 24.1668 -5.31421 21
208 1 9.5967 23.3685 -17.3571 19
209 1 4.93936 20.1826 -15.8818 23
210 1 -1.32153 27.0013 -6.43404 22
211 1 2.29775 -27.9346 -11.6808 14
212 1 3.49228 18.0534 -4.8894 18
213 1 11.6296 14.6192 -10.5686 12
214 1 0.125138 21.9637 -7.87467 23
215 1 -1.27939 30.0669 -13.7671 15
216 2 -5.88219 18.5563 -9.03562 10
217 2 12.4598 29.4595 -6.15041 14
218 2 7.14373 21.3561 -1.47087 16
219 2 -0.381868 23.0411 -18.3687 14
220 2 -4.66698 26.425 -13.219 15
221 2 4.05724 16.2959 -5.58263 16
222 2 8.05156 -29.2369 -2.06547 10
223 2 11.4548 23.599 -11.3804 18
224 2 -1.18319 26.7848 -2.65807 12
225 2 -0.420835 29.2771 -4.03459 12
226 2 9.439 17.4463 -14.4101 17
227 2 1.43759 25.9543 -18.9812 15
228 2 3.28558 19.0039 -16.342 20
229 2 1.52871 15.3477 -6.99103 17
230 2 -0.16014 -27.1783 -8.00413 12
231 2 14.7729 21.7253 -8.78999 12
232 2 8.99595 29.9576 -6.36264 22
233 2 7.52919 -27.3091 -6.56549 19
234 2 9.72128 -24.6875 -11.6466 12
235 2 8.53568 28.0194 -17.1665 20
236 2 9.68411 22.1757 -18.8347 9
237 2 -3.96263 26.9104 -16.4979 14
238 2 7.01773 16.5257 -4.35999 19
239 2 -3.20535 23.8406 -8.89989 24
240 2 5.65955 17.2613 -14.5157 16
241 2 1.58404 12.9592 -10.6457 14
242 2 9.92439 22.9338 -14.1183 21
243 2 9.3611 -24.9764 -6.1751 11
244 2 10.0528 19.8577 -2.03173 13
245 2 2.37819 19.4774 -5.64242 18
246 2 7.99816 14.8812 -7.20337 17
247 2 -1.57018 15.4081 -7.42512 13
248 2 0.851345 14.9651 -12.4423 16
249 2 -3.89592 21.5099 -15.4939 12
250 2 2.9608 -26.4831 -7.76906 11
251 2 6.70366 25.0593 -16.9917 20
252 2 8.98461 -28.3654 -9.14419 23
253 2 10.086 -29.1686 -17.0286 16
254 2 0.408361 29.1524 -14.2289 22
255 2 13.6632 27.9763 -8.48249 16
256 2 7.87172 -25.3893 -9.24011 15
257 2 -1.56755 -29.6323 -6.39038 14
258 2 7.20624 -24.2853 -12.7339 11
259 2 6.20585 -24.1474 -15.7975 11
260 2 4.20901 -26.9604 -5.10385 13
261 2 6.19951 26.6643 0.691219 10
262 2 8.13476 20.0132 -18.971 12
263 2 4.73893 14.2194 -14.6498 12
264 2 8.16478 22.4748 -16.4908 21
265 2 0.119365 21.6973 -11.1249 23
266 2 11.9185 19.6668 -14.3373 15
267 2 10.4825 27.0015 -6.30093 23
268 2 3.02952 22.9632 -18.9179 16
269 2 6.36756 22.8315 -19.248 15
270 2 3.11154 17.5477 -13.429 21
271 2 6.67598 19.2779 -16.5465 19
272 2 11.7982 27.9701 -17.0569 16
273 2 0.192882 18.1917 -7.84297 20
274 2 4.70748 19.9193 -18.8205 12
275 2 7.08036 28.9469 -14.3524 25
276 2 2.54087 13.1672 -13.7598 9
277 2 4.80217 25.8552 -19.1955 14
278 2 2.13966 27.1503 -3.34746 17
279 2 -0.415009 15.9667 -10.0504 19
280 2 -1.49572 25.0489 -6.18588 21
281 2 0.443794 27.8902 -6.30242 22
282 2 -3.07987 18.1937 -7.40826 14
283 2 -4.62091 18.5091 -11.8449 13
284 2 9.93992 16.6006 -2.83709 15
285 2 12.967 20.7928 -11.595 18
286 2 1.58601 22.0888 -16.3618 22
287 2 5.57875 -29.6578 -6.3825 21
288 2 10.755 -25.285 -8.58281 12
289 2 3.98282 29.6684 -3.70464 15
290 2 0.494055 29.7353 -8.93017 21
291 2 -5.31342 24.2577 -11.4361 15
292 2 12.0239 29.3915 -11.3877 17
293 2 -3.80133 16.4272 -9.47916 13
294 2 6.77428 -29.246 -17.1128 20
295 2 4.8366 22.0114 -16.654 26
296 2 -1.08403 -29.7845 -11.9 16
297 2 9.32053 17.9258 -6.24359 24
298 2 5.5441 29.9497 -11.6742 25
299 2 7.64494 15.0477 -13.2374 14
300 2 5.18372 13.6793 -11.7111 12
301 2 -2.55642 -29.3604 -9.10102 11
302 2 6.59704 17.7092 -8.35499 23
303 2 11.5044 15.4524 -5.39916 12
304 2 10.1404 29.1369 -3.73587 14
305 2 4.44999 -25.2486 -14.2305 14
306 2 4.78158 21.3048 -3.44886 25
307 2 3.35519 17.9158 -8.22662 25
308 2 3.0777 24.1156 -3.26043 20
309 2 4.7892 -28.4063 -19.4537 10
310 2 11.6623 25.8792 -13.6425 22
311 2 6.6736 23.6689 -3.43909 22
312 2 -1.48656 18.7927 -10.1647 19
313 2 12.4623 -28.9318 -8.91549 14
314 2 11.1295 -27.5312 -6.74819 16
315 2 12.6543 22.6764 -14.381 15
316 2 -2.37037 16.6458 -12.4672 13
317 2 5.31437 29.1189 -1.15167 11
318 2 9.56749 23.022 -2.61572 16
319 2 5.21328 27.9316 -16.9379 24
320 2 14.0725 18.6214 -9.28409 13
321 2 7.34262 24.97 -1.03364 17
322 2 13.7257 20.0793 -6.38363 14
323 2 -5.2396 24.4411 -15.2256 11
324 2 0.377358 27.4747 -11.3428 26
325 2 -1.3416 28.3137 -16.6655 20
326 2 5.2173 19.0122 -5.72558 21
327 2 11.0125 -27.3466 -10.8667 14
328 2 -3.47216 23.678 -17.6539 11
329 2 14.6267 23.3853 -11.4741 15
330 2 2.1047 -27.7628 -9.75261 16
331 2 12.9063 15.9796 -10.8074 13
332 2 1.86765 21.2295 -3.18234 15
333 2 -3.02285 18.6556 -14.8776 11
334 2 2.53244 -27.999 -13.8524 14
335 2 -3.99064 28.7013 -7.4956 14
336 2 10.4368 28.7002 -9.05101 23
337 2 4.47812 19.9152 -0.885631 11
338 2 -4.72027 26.4703 -9.63335 17
339 2 1.25248 -29.0241 -16.6444 16
340 2 3.97979 26.3485 -0.998606 13
341 2 -1.4401 26.4595 -13.8564 22
342 2 12.8963 -28.7332 -13.1019 10
343 2 -3.13726 25.2762 -3.70764 12
344 2 5.5474 26.7445 -3.60902 24
345 2 -2.09283 20.5334 -17.5937 14
346 2 5.58934 -28.1563 -14.2199 22
347 2 2.98447 15.8537 -10.7336 20
348 2 1.97148 27.9559 -16.7929 24
349 2 10.4689 21.0666 -6.10888 18
350 2 2.13092 -29.2273 -6.35526 21
351 2 11.7371 -27.0948 -15.4186 9
352 2 9.035 14.4709 -4.6599 13
353 2 9.99324 25.2004 -17.0971 17
354 2 9.01424 -27.546 -4.09646 15
355 2 -1.3967 24.7516 -11.1743 21
356 2 -3.69445 22.7819 -6.04428 14
357 2 -1.431 20.5553 -13.2779 18
358 2 4.69966 14.8101 -8.20107 18
359 2 5.69121 -27.9634 -9.09504 20
360 2 -4.5071 25.9192 -6.54276 17
361 2 -1.7409 21.1204 -7.77612 18
362 2 3.03108 12.5705 -7.55663 10
363 2 8.87723 26.1529 -3.67583 19
364 2 3.75276 29.0352 -14.3697 24
365 2 2.16415 -28.2403 -19.349 10
366 2 9.27041 -25.03 -14.7217 13
367 2 2.33219 15.9446 -15.6294 13
368 2 11.4753 24.2116 -4.98886 17
369 2 13.781 26.3251 -6.03448 12
370 2 7.29501 -26.7301 -16.0148 15
371 2 0.0801171 25.1998 -16.4074 23
372 2 1.29725 20.0955 -18.4977 12
373 2 0.102863 23.477 -13.9106 22
374 2 8.50042 27.802 -1.12458 12
375 2 3.91617 -26.8627 -16.788 14
376 2 -2.80856 28.9935 -14.2525 15
377 2 -3.42558 28.3498 -4.63431 12
378 2 3.41168 25.0016 -16.6613 25
379 2 10.1045 20.092 -16.4033 15
380 2 -2.72465 27.9948 -11.0107 18
381 2 3.40024 28.795 -19.5324 15
382 2 8.01046 18.3496 -11.2394 24
383 2 7.88462 19.8235 -4.00027 20
384 2 -0.0426942 22.2021 -5.84548 18
385 2 1.72802 20.4615 -13.7276 24
386 2 -6.01484 23.5015 -8.37526 13
387 2 11.3247 18.8339 -4.38969 16
388 2 -6.13361 21.2661 -10.5426 12
389 2 -0.0898814 23.9235 -3.32789 16
390 2 5.89883 13.7258 -5.64757 12
391 2 14.8915 24.8165 -8.56803 13
392 2 6.55667 15.5681 -10.2123 16
393 2 4.17039 -27.1807 -11.4172 16
394 2 -1.79957 26.1854 -18.4725 13
395 2 -5.09949 20.8849 -7.81911 16
396 2 6.99301 18.0249 -1.92294 13
397 2 13.3407 28.3239 -14.6143 15
398 2 6.6772 28.8308 -19.4255 11
399 2 14.4393 23.2153 -5.89114 12
400 2 2.19849 -29.9427 -11.7175 21
401 2 12.2686 21.7592 -3.74507 14
402 2 7.83885 19.8776 -14.132 20
403 2 1.66177 18.7505 -10.8899 24
404 2 12.7251 25.0238 -16.056 12
405 2 10.3895 15.4298 -11.8885 15
406 2 11.0571 19.6861 -9.1304 20
407 2 11.2842 14.5915 -8.66465 11
408 2 5.39787 -27.7531 -2.44606 11
409 2 10.3698 28.8485 -14.3383 22
410 2 -3.04443 23.4368 -13.0998 17
411 2 -3.18155 21.5034 -10.7355 19
412 2 12.4608 17.1888 -7.31389 16
413 2 8.94532 -28.1967 -14.3812 19
414 2 13.7619 26.0585 -11.3312 17
415 2 8.79112 29.8787 -11.7456 23
416 2 4.14252 18.3112 -3.09574 14
417 2 9.59731 16.8994 -8.96113 22
418 2 14.7182 24.9605 -14.1064 12
419 2 10.7581 18.163 -11.8272 21
420 2 0.138372 18.9131 -16.1284 16
421 2 7.53202 -27.2368 -11.8169 22
422 2 6.75704 -25.8583 -3.7828 9
423 2 0.371451 12.9188 -8.08133 10
424 2 4.95931 23.2207 -0.763822 16
425 2 -1.37794 26.8266 -8.50697 19
426 2 11.7468 25.7113 -9.26533 19
427 2 13.1779 -29.1649 -16.346 11
428 2 0.236285 29.1252 -18.9314 12
429 2 0.156016 17.5427 -13.8163 18
430 2 13.6996 18.0403 -12.3465 10
431 1 3.40669 21.4449 -13.1844 28
432 2 4.88197 18.5882 -11.0394 24
433 2 3.36441 21.575 -11.165 26
434 2 3.36196 23.3062 -13.9465 26
435 2 4.91327 20.3091 -13.849 25
436 1 0.183996 23.633 -10.6017 24
437 1 1.71136 20.7103 -10.4268 25
438 1 3.44704 23.5267 -10.659 26
439 1 4.91485 20.5288 -10.4421 26
440 1 5.09876 18.8156 -7.66676 21
441 1 3.39187 21.8959 -7.93712 23
442 1 3.36887 24.0645 -5.27474 26
443 1 4.58752 20.923 -5.41364 23
444 2 0.165179 23.8344 -8.60447 23
445 2 1.70394 20.8993 -8.44497 24
446 2 3.14518 22.2262 -5.99206 24
447 2 3.43185 23.7689 -8.66699 25
448 2 4.97735 20.7201 -8.43479 25
449 1 1.82221 24.4182 -13.3204 28
450 1 5.06622 24.2529 -13.4128 27
451 1 3.62933 27.1828 -13.5188 28
452 2 1.83515 24.5305 -11.3196 26
453 2 1.89361 26.2936 -14.0298 26
454 2 5.12746 24.3423 -11.3869 25
455 2 3.70014 27.2765 -11.5167 26
456 2 5.19039 26.1107 -14.202 26
457 1 2.01772 26.4684 -10.7776 24
458 1 1.82419 24.8289 -7.99707 26
459 1 3.8197 29.2129 -10.9489 26
460 1 5.28908 26.2675 -10.8313 26
461 1 5.17638 24.5585 -8.06563 24
462 1 3.72325 27.5542 -8.17214 25
463 1 5.35166 26.7132 -5.56613 21
464 1 5.55719 30.166 -8.40499 22
465 2 1.76428 25.0704 -5.98577 23
466 2 2.00521 26.6858 -8.78167 25
467 2 5.13947 24.7761 -6.05774 26
468 2 3.72284 27.7445 -6.15953 25
469 2 3.77161 29.4237 -8.93531 23
470 2 5.30262 26.4399 -8.80857 26
471 1 6.63483 21.2542 -13.2956 28
472 2 6.544 21.3488 -11.261 24
473 2 6.52303 23.0949 -14.1375 24
474 2 9.54542 20.8362 -11.7016 21
475 1 6.70411 23.276 -10.7365 24
476 1 8.04269 20.2751 -10.4971 23
477 1 6.74023 21.5181 -7.77132 21
478 1 6.77218 23.7827 -5.4391 23
479 1 9.80354 22.7355 -12.0555 22
480 1 10.0986 21.0145 -8.10805 16
481 2 6.407 21.8578 -5.83335 22
482 2 6.76926 23.4043 -8.59354 24
483 2 8.22085 20.3273 -8.49046 22
484 2 10.1702 23.0561 -8.23097 16
485 1 8.26831 24.0469 -13.875 24
486 1 6.90607 27.0372 -13.6427 27
487 2 8.3095 24.0067 -11.6621 24
488 2 6.9705 27.0271 -11.615 25
489 2 8.42254 25.9597 -14.4268 23
490 2 9.98726 26.8432 -11.7033 22
491 1 7.15394 28.9468 -11.0304 25
492 1 8.49748 25.8544 -10.9132 25
493 1 8.508 24.2082 -8.06158 23
494 1 7.08434 27.1952 -8.29546 23
495 1 8.69692 26.3699 -5.67921 22
496 1 10.4344 26.8412 -8.35638 23
497 2 8.68892 24.3044 -5.95692 21
498 2 7.12965 27.4288 -6.28109 24
499 2 7.14383 29.0659 -8.99786 24
500 2 8.60837 26.0113 -8.8741 24
