ITEM: TIMESTEP
33000
ITEM: NUMBER OF ATOMS
2000
ITEM: BOX BOUNDS pp pp pp
-30.0 30.0
-30.0 30.0
-30.0 30.0
ITEM: ATOMS id type x y z Coordination
1 1 -10.5317 2.32669 -13.8901 8
2 1 -1.42071 -7.03984 -9.8443 22
3 1 1.83487 11.9776 14.3052 16
4 1 6.80931 -8.99353 10.3745 14
5 1 -8.15706 11.6226 -3.15156 17
6 1 11.3091 -13.685 -6.08335 11
7 1 -11.5311 8.4078 -6.1995 13
8 1 0.991456 -8.31239 13.6488 15
9 1 -10.2032 -2.63002 -10.7621 12
10 1 -14.6982 -9.36312 10.62 8
11 1 12.8611 1.64561 -14.4936 16
12 1 -2.74944 -11.1777 3.88291 19
13 1 -9.79859 -9.13623 3.03538 18
14 1 -1.98723 3.21248 17.1879 10
15 1 8.1068 -4.75736 4.21135 24
16 1 0.391939 2.69854 10.8098 20
17 1 -2.35136 9.25501 -11.7193 21
18 1 2.45875 0.0422032 10.885 19
19 1 -3.70879 4.99262 -17.2564 11
20 1 -11.2423 -2.72398 13.334 15
21 1 10.881 7.19497 3.36437 20
22 1 2.58643 10.8925 -13.4291 15
23 1 4.16 4.66383 -14.1309 21
24 1 9.68917 1.85259 15.6679 14
25 1 -8.03187 -2.82727 1.89581 22
26 1 -9.04365 8.83996 -3.96459 19
27 1 -2.65567 -2.55707 -8.07869 22
28 1 -12.4443 6.51822 8.0192 10
29 1 6.99859 -11.6995 7.29271 13
30 1 2.63376 -1.94552 8.87013 20
31 1 -2.20785 -12.4514 -9.90903 17
32 1 10.0276 -10.5059 2.48036 11
33 1 -6.66313 -14.0864 -2.35703 13
34 1 -12.2368 -6.15325 11.6189 14
35 1 3.84915 -4.79276 -15.4811 19
36 1 7.32231 -10.4108 -11.2264 13
37 1 -1.40827 6.57574 -16.2121 16
38 1 -0.563924 -0.0637811 12.3649 18
39 1 1.47464 -11.4735 10.638 15
40 1 5.63844 -4.56098 12.6204 19
41 1 -14.1415 -2.42314 4.65824 17
42 1 -11.9746 0.716927 8.24219 17
43 1 -5.27939 1.48134 -4.7637 22
44 1 -2.57324 11.3848 0.217666 19
45 1 -2.96216 -11.5844 -13.0094 11
46 1 0.573033 1.55992 -7.86207 21
47 1 7.08089 -2.30738 -11.1607 17
48 1 -0.775252 -4.91608 12.3012 21
49 1 -13.3301 3.72794 -1.72924 17
50 1 4.44253 9.18427 -15.3208 14
51 1 3.88741 12.7397 9.28312 20
52 1 -5.90944 9.99783 -5.85469 21
53 1 -0.0266514 12.3575 -1.11116 20
54 1 5.46402 -9.46419 2.78425 22
55 1 5.70211 -7.89806 -5.77856 22
56 1 9.92195 -6.57116 -14.3532 14
57 1 -5.24984 9.22431 7.35232 19
58 1 -12.4639 -0.353722 -5.36366 14
59 1 5.84128 3.2343 6.53588 20
60 1 -5.24795 7.39321 -4.76445 19
61 1 -8.4677 -11.5349 4.20332 16
62 1 0.952438 15.1105 12.3324 11
63 1 -11.0672 6.60468 -2.28144 20
64 1 -6.03553 5.61025 8.85985 20
65 1 2.76036 6.29116 -6.4891 21
66 1 -2.51217 -16.416 9.85376 11
67 1 1.9698 7.20506 7.16514 20
68 1 5.81457 -15.4563 -2.28657 17
69 1 3.20393 9.68675 15.5595 20
70 1 -12.7779 5.10143 -7.31765 12
71 1 -9.40384 10.4813 -8.29043 13
72 1 6.26421 4.00534 9.77798 19
73 1 13.8446 -0.830291 -9.4061 17
74 1 7.94048 -13.0715 4.37319 18
75 1 -14.7565 -0.326912 9.52807 10
76 1 0.939918 17.8578 7.21252 10
77 1 5.8028 -4.06842 15.6348 11
78 1 -5.47576 -11.0684 9.38624 17
79 1 -7.71752 -2.8734 -1.35118 23
80 1 16.6868 1.79552 8.09624 10
81 1 8.30411 -6.14888 -5.60734 17
82 1 -2.10463 15.66 11.8527 12
83 1 6.90965 -1.21702 12.0707 19
84 1 -4.96356 -4.29472 2.1855 23
85 1 -3.75574 -8.48517 -10.9128 21
86 1 -11.6814 12.9574 6.91256 9
87 1 -5.97003 9.70008 -2.59572 25
88 1 -7.95997 6.64294 -6.79297 19
89 1 5.44299 -1.87164 -6.52092 18
90 1 7.65744 12.341 -9.77067 12
91 1 9.57702 -9.13381 -0.00882635 16
92 1 0.78314 -12.6366 14.2141 8
93 1 -5.29252 12.6799 -4.32792 21
94 1 -5.41443 18.1739 2.46084 10
95 1 -5.30145 -5.65586 16.0274 11
96 1 -3.06539 5.40775 3.88565 20
97 1 -0.682413 -9.85233 15.9646 10
98 1 8.91663 -9.21243 -6.29491 16
99 1 -8.39591 5.61119 3.91647 17
100 1 -7.29176 -9.1519 1.7026 17
101 1 11.6009 -13.038 -2.4082 9
102 1 4.67183 1.34741 -8.73769 19
103 1 -6.5761 2.90879 -17.9844 10
104 1 -2.15814 11.8395 3.99021 23
105 1 -5.69892 4.51213 -12.4167 20
106 1 -0.49307 11.3573 16.4491 12
107 1 -0.411819 13.7534 -6.93849 17
108 1 -12.9845 12.9716 3.10776 10
109 1 0.0886573 9.57133 0.636084 19
110 1 -4.50554 -10.6986 15.8406 13
111 1 10.0285 0.241226 13.0315 21
112 1 -0.474484 -4.75842 -8.08299 18
113 1 2.00714 -5.77691 -9.74898 18
114 1 0.37941 3.75145 7.01734 20
115 1 4.60515 -2.02497 14.5016 17
116 1 -8.44804 -8.59925 -0.796577 18
117 1 6.57317 -7.42759 4.75945 21
118 1 -10.1164 -11.552 -1.96362 14
119 1 9.36896 -12.4291 -0.458717 13
120 1 -0.723699 6.61738 5.25057 20
121 1 6.94486 6.40065 -10.1124 20
122 1 4.23937 18.6724 -2.8561 8
123 1 -9.73792 -12.495 14.1756 12
124 1 -9.82425 -13.1297 10.5806 15
125 1 7.3392 -8.88733 -14.1401 14
126 1 5.67048 3.98864 -2.915 19
127 1 10.675 -10.0968 -2.72257 15
128 1 0.0997379 -15.2436 10.396 10
129 1 -12.1369 -12.9455 -0.265039 9
130 1 13.974 6.81412 12.7475 12
131 1 12.9419 -3.68896 -10.2261 14
132 1 -13.6435 -8.17011 4.52587 12
133 1 9.7499 11.5837 8.50808 15
134 1 15.6554 9.04209 3.4923 13
135 1 -7.9248 2.47927 15.4649 10
136 1 5.06222 9.21188 -3.12256 17
137 1 -2.62084 7.9471 8.87997 21
138 1 -1.6444 14.2604 0.861173 20
139 1 1.07176 -4.38637 -14.8706 18
140 1 10.3555 -11.5273 -7.78294 12
141 1 -0.944127 11.5161 -12.8576 14
142 1 8.29435 -2.19969 8.67295 23
143 1 2.31307 3.86067 -18.6592 13
144 1 -0.497924 9.93169 -6.05005 23
145 1 14.9047 1.6909 -8.90004 11
146 1 -8.68244 11.8923 -5.58615 18
147 1 -6.98773 15.257 -1.94383 15
148 1 8.28527 1.59954 -10.0206 19
149 1 9.59694 -7.30786 4.99414 15
150 1 -5.01836 4.39482 -6.72845 18
151 1 -6.52424 13.4328 10.2964 12
152 1 12.0438 10.2215 -9.10121 11
153 1 4.10286 13.8679 -11.1488 12
154 1 0.730174 15.3448 0.671932 19
155 1 7.93871 8.18125 -4.92342 23
156 1 -2.63575 11.5044 -3.05325 19
157 1 1.18898 13.307 -12.3153 13
158 1 6.99864 7.91403 -17.1448 13
159 1 -13.8873 -8.51403 7.91749 14
160 1 -10.8648 13.0799 -3.06826 11
161 1 -1.06596 0.117287 -18.2989 15
162 1 4.64124 -8.69167 -16.3143 13
163 1 5.36059 15.4816 8.08238 14
164 1 2.02834 15.0314 6.67847 18
165 1 -5.39128 -4.65334 -7.66481 22
166 1 -9.05303 13.8917 -1.06477 14
167 1 14.9111 3.26691 -1.23085 12
168 1 -8.29752 0.209162 -12.6334 17
169 1 3.47398 5.77312 17.9506 17
170 1 1.75181 17.946 2.28897 11
171 1 -2.86751 8.43188 5.72413 22
172 1 7.29206 -3.15648 -16.6139 16
173 1 -3.8852 15.5917 3.68673 17
174 1 -3.15583 11.7782 -6.60843 22
175 1 3.18396 -2.89967 12.2462 19
176 1 -9.22612 -5.00786 3.87699 20
177 1 -3.90161 -8.14066 -17.1324 10
178 1 -3.98043 13.6349 -8.5769 14
179 1 -4.1195 -14.272 8.40624 17
180 1 0.0238762 -13.2877 -1.71375 22
181 1 -5.21494 10.8537 -12.888 13
182 1 -12.2657 -0.15877 11.6725 17
183 1 3.64203 11.4095 0.333943 19
184 1 11.3899 10.1408 -5.64096 13
185 1 -4.76177 3.55002 15.1743 17
186 1 -2.81571 -4.61461 14.1089 19
187 1 -7.66477 0.279377 -2.8852 22
188 1 -0.0406562 14.6121 -3.04331 14
189 1 0.775784 8.61872 10.029 21
190 1 8.02984 5.03763 13.9386 21
191 1 -6.83591 12.509 7.73743 17
192 1 10.7187 -6.3358 -7.46922 14
193 1 -3.61759 14.0029 9.32194 18
194 1 -2.18599 3.26885 -7.90512 20
195 1 14.5387 -2.02438 2.64221 14
196 1 -5.85488 -5.32091 5.715 19
197 1 -11.5681 0.275464 4.82832 18
198 1 -9.93027 -13.0448 7.42809 15
199 1 5.26662 5.69236 12.4471 22
200 1 -13.8732 1.51405 0.569842 17
201 1 1.22353 -12.5776 0.972808 18
202 1 5.70313 -6.89195 0.757439 18
203 1 -0.316764 9.54811 3.57229 18
204 1 -7.7454 0.107818 3.87758 20
205 1 5.41958 12.8662 13.908 14
206 1 -12.4309 1.64286 -7.33048 15
207 1 -6.56401 13.4783 -7.13155 16
208 1 -13.1142 -2.89019 -2.9586 13
209 1 -9.01468 -6.17127 10.0686 21
210 1 2.88 -13.9638 9.46745 12
211 1 4.80266 -10.495 5.67067 22
212 1 -10.4628 15.8089 3.74701 11
213 1 14.257 3.2025 5.28433 18
214 1 7.65573 -1.65761 -4.50349 21
215 1 -6.63936 -6.10007 -16.944 8
216 1 5.92298 -2.48431 10.3961 20
217 1 5.55134 -18.6435 2.85986 12
218 1 -0.743358 6.36893 -12.3135 20
219 1 4.79367 -10.9312 -13.8258 12
220 1 5.51072 1.08267 -11.6624 17
221 1 8.09974 9.19254 -14.7448 16
222 1 -7.63523 -1.88989 -8.5641 18
223 1 -2.73664 11.3587 -10.7171 17
224 1 -6.89162 -11.4623 12.3136 21
225 1 6.74506 18.6276 -3.82663 8
226 1 -7.96602 3.65318 12.6514 16
227 1 -9.80622 13.5532 -8.19604 9
228 1 7.70471 0.583008 7.35355 22
229 1 -0.599974 -7.04017 -13.0427 23
230 1 -6.38163 8.28515 -8.33297 15
231 1 1.64843 6.453 -10.2617 20
232 1 -0.00711713 -12.3326 8.06906 21
233 1 -11.0447 3.66494 6.39488 13
234 1 -8.74514 5.58084 7.03104 20
235 1 -0.301686 -9.77172 -10.836 22
236 1 -2.66659 -11.3674 0.860342 22
237 1 5.82346 -12.2848 -1.83102 19
238 1 10.8713 6.88639 12.2971 20
239 1 4.64126 5.80165 -11.262 19
240 1 -0.254902 9.57003 -2.92653 19
241 1 -7.79688 -0.284646 0.0890227 22
242 1 -8.3566 14.661 -4.6443 14
243 1 2.388 4.33851 12.7233 18
244 1 3.82334 -16.7633 0.547734 20
245 1 12.6036 1.1767 2.82974 18
246 1 0.785128 12.2766 1.74427 21
247 1 -6.08374 7.14596 5.54668 19
248 1 -7.99835 -5.62042 -2.83669 17
249 1 10.3453 7.29613 -10.4254 21
250 1 5.30681 0.121529 9.13032 21
251 1 9.82624 10.9575 -11.6446 16
252 1 2.49 -8.30001 -1.19817 18
253 1 -2.60504 -1.93419 -11.4772 19
254 1 2.87184 -18.8673 5.53856 10
255 1 9.84477 2.61977 -7.34688 19
256 1 -11.2264 -2.34885 6.837 23
257 1 6.37832 -17.7124 0.0479317 11
258 1 -8.63629 -6.57691 -10.8297 14
259 1 5.15241 13.9132 -1.55584 18
260 1 1.02357 -1.43158 -16.0184 20
261 1 2.47387 6.18912 15.0506 19
262 1 14.5983 3.26464 2.2194 14
263 1 -5.24984 -7.22642 3.85163 19
264 1 12.9932 -1.17523 -12.5326 15
265 1 2.80182 -12.8946 6.34771 21
266 1 -5.68207 -0.0355301 -16.0116 14
267 1 -10.2971 1.51787 -5.17034 23
268 1 -4.69278 -14.198 11.7879 18
269 1 10.008 -2.35732 11.26 19
270 1 5.60939 -5.93333 8.84144 18
271 1 -3.80945 -7.51396 -14.0111 20
272 1 2.63486 -4.79226 7.72364 20
273 1 1.08022 9.85718 -10.9998 19
274 1 5.44536 6.95895 2.27206 20
275 1 -8.9 -10.4243 9.5616 20
276 1 2.11369 8.73827 -1.32504 19
277 1 -6.31897 -5.51977 12.28 22
278 1 -7.47613 -9.53018 -8.76564 14
279 1 -2.02041 0.217003 -15.2397 20
280 1 -5.70002 1.44581 -12.6961 20
281 1 -5.56654 -11.3831 -10.7946 14
282 1 -3.27217 -8.30527 2.39495 19
283 1 8.56884 -3.98073 -14.0226 22
284 1 12.9219 3.42785 -12.5027 17
285 1 9.03264 2.90853 8.6825 21
286 1 -8.49214 -8.36631 11.816 18
287 1 -5.41981 -10.3767 -0.595572 19
288 1 6.33737 5.76379 18.579 10
289 1 -1.82034 -14.7985 3.82175 20
290 1 0.15459 -10.7172 -0.833097 23
291 1 0.995974 12.3016 -4.58154 18
292 1 8.18379 -1.31394 -14.4578 19
293 1 -3.44701 -5.14685 -17.9863 14
294 1 -11.6439 -10.6056 11.8104 15
295 1 4.85817 2.36776 17.7182 12
296 1 3.78832 -10.4555 -0.0631319 21
297 1 -4.62737 -14.1448 -9.03237 13
298 1 -10.4702 6.99031 -8.69932 15
299 1 9.67722 6.14523 5.91551 21
300 1 -9.61923 1.30935 -8.23626 17
301 1 -2.148 6.17523 -9.92374 17
302 1 -3.24506 -5.40621 7.11772 20
303 1 4.89135 -13.0795 -7.4383 18
304 1 -3.18694 14.4659 -4.73992 15
305 1 1.30125 12.1681 5.26565 22
306 1 12.1048 -1.64632 4.57068 26
307 1 -7.69265 -2.88132 5.18696 21
308 1 -3.47263 -4.82733 11.0117 20
309 1 -4.90686 11.6619 5.61531 19
310 1 6.52952 -6.08533 -14.9737 16
311 1 11.1357 7.74065 0.476683 20
312 1 5.1975 -13.017 3.87126 21
313 1 0.103699 -6.09008 15.4695 14
314 1 -14.4697 -3.28134 7.98781 15
315 1 -1.07714 -16.5976 -2.46528 15
316 1 -7.36901 10.5584 11.1301 17
317 1 -6.54194 5.90116 15.1394 14
318 1 -13.9197 -3.1606 11.2812 14
319 1 -14.6412 -6.5869 10.2696 10
320 1 8.54388 -1.56053 -1.49767 22
321 1 -10.8071 -7.8234 8.50489 15
322 1 7.18673 0.440301 -7.42827 22
323 1 8.68664 -15.3712 -4.16052 11
324 1 4.61255 16.8268 -6.0869 10
325 1 -7.89725 11.0503 0.104168 17
326 1 7.93328 7.74735 13.2692 21
327 1 -10.967 -2.32064 3.57635 20
328 1 9.375 -12.171 -4.46569 19
329 1 -2.73891 8.80262 2.02164 22
330 1 -5.64798 3.73715 3.89716 20
331 1 4.93996 -8.2593 7.74719 19
332 1 13.129 -3.96328 6.14468 15
333 1 -0.305404 5.67194 8.75784 20
334 1 -4.9141 -2.79728 -10.2473 21
335 1 -1.04656 -4.06818 16.935 10
336 1 -7.07924 17.8376 5.52167 8
337 1 5.07329 7.32776 14.9572 23
338 1 -5.39812 16.324 -4.75058 9
339 1 10.0114 -1.39419 -17.9045 13
340 1 -5.04694 1.46028 -7.78303 18
341 1 5.08261 -11.886 -10.4933 16
342 1 -6.43397 0.53744 12.1022 15
343 1 -13.6557 5.3499 0.851964 19
344 1 -3.5636 -4.96387 -9.5828 19
345 1 -5.28049 9.62463 0.618213 21
346 1 8.47046 -1.32416 5.49823 20
347 1 -10.7035 -12.6712 2.94103 11
348 1 8.04022 -5.39512 7.41728 20
349 1 -10.7244 -8.96114 14.3827 10
350 1 -15.8306 8.3656 0.624901 9
351 1 -2.64842 -2.52412 9.26017 22
352 1 2.20686 -11.511 -5.87438 21
353 1 -7.73551 -2.72863 -11.9126 16
354 1 6.26599 7.20157 -13.9392 22
355 1 2.82811 15.0301 3.8632 19
356 1 -10.1835 -1.92578 -4.06213 20
357 1 5.41955 -3.43148 -13.7823 20
358 1 14.8912 4.92152 -14.4606 8
359 1 -2.45778 -14.4217 -3.41603 20
360 1 -9.80479 -8.39768 -3.82142 15
361 1 -2.75686 -8.67964 -0.938791 19
362 1 9.62124 5.1592 16.9709 11
363 1 15.7277 2.35392 -6.48958 9
364 1 -6.09492 -0.106824 -10.2162 16
365 1 3.38913 16.9902 -0.107776 16
366 1 -12.8464 0.992664 -3.11544 18
367 1 -8.41073 9.23849 6.12232 19
368 1 -8.45743 6.09969 0.974876 16
369 1 -3.67615 5.40464 6.81329 22
370 1 10.1163 3.42564 12.1866 19
371 1 7.99267 -4.11956 -2.50273 19
372 1 8.93759 -4.84063 13.9557 14
373 1 10.6228 1.2496 -12.3332 20
374 1 -4.35948 -16.6452 -1.36338 14
375 1 -0.466598 -7.61127 -6.22044 22
376 1 -4.71787 12.6055 2.01116 20
377 1 -15.6018 3.84036 2.74504 8
378 1 6.75681 -9.80463 -1.05962 17
379 1 15.2363 0.881068 11.6383 11
380 1 -7.794 -3.47352 -5.2622 22
381 1 -5.25378 -8.5006 7.50662 19
382 1 -8.57093 -6.85429 15.8314 12
383 1 -5.52228 9.81239 3.63905 21
384 1 -7.63089 -11.7032 0.156284 17
385 1 7.92505 8.00654 16.1987 16
386 1 -8.77907 8.54282 -0.941431 20
387 1 -3.14947 9.14641 -8.07181 23
388 1 7.50452 15.636 5.95198 10
389 1 -11.8762 -7.57838 0.295917 16
390 1 -0.69399 -10.7686 -4.12496 18
391 1 -11.1335 -2.7393 10.2058 21
392 1 -13.0539 11.8577 -0.388202 11
393 1 4.57142 -10.9833 10.1399 15
394 1 -6.91974 -15.267 0.0706828 13
395 1 12.1051 9.93109 9.1347 15
396 1 10.0956 4.33205 -14.2391 23
397 1 -10.7645 5.13926 -11.9097 12
398 1 -2.36819 14.6841 -11.3829 10
399 1 -10.0095 4.18502 -7.70978 19
400 1 0.0229155 -13.1352 4.63772 20
401 1 11.9963 7.46181 6.18253 18
402 1 2.45653 7.54583 -13.6958 22
403 1 -3.14796 0.0919946 7.29522 22
404 1 -14.3087 0.330569 3.02192 11
405 1 -8.29926 2.8743 5.04082 20
406 1 -7.89505 -14.5361 12.268 13
407 1 2.95705 -6.15795 -6.55413 22
408 1 5.96931 -5.45254 -11.128 18
409 1 -10.2563 0.413126 1.44976 20
410 1 -11.2544 2.00264 14.3177 8
411 1 -11.3661 7.67282 5.63039 13
412 1 -0.327514 -4.67436 8.97695 21
413 1 -9.06225 4.91141 -17.6732 8
414 1 6.66549 -10.7279 -7.54183 18
415 1 0.219798 -4.09587 -11.5262 21
416 1 -2.98804 -8.03314 14.9179 17
417 1 2.14798 -8.96092 -4.54488 23
418 1 -9.55359 6.64632 -15.2839 10
419 1 5.83091 -15.1393 2.09217 21
420 1 7.93808 8.71154 -8.09976 18
421 1 -11.8012 9.92864 7.63639 12
422 1 -3.30595 -1.46804 15.6918 16
423 1 -7.25157 -5.63648 -13.441 12
424 1 -9.34544 -5.18228 7.04232 21
425 1 13.9641 -3.04987 8.95637 13
426 1 11.097 0.100958 -3.57831 19
427 1 3.40443 -0.994113 -14.2551 15
428 1 10.9676 -6.97627 1.69358 16
429 1 14.5972 6.72639 -2.40604 12
430 1 -2.53311 3.54325 12.6262 18
431 1 3.56809 11.6567 -2.98936 18
432 1 11.1391 -3.72111 8.92336 15
433 1 -4.69867 -10.8442 -8.42854 19
434 1 -4.89294 8.5606 16.2114 12
435 1 -1.45375 16.6902 8.14082 14
436 1 -7.02127 -12.1892 -7.21828 13
437 1 6.07439 13.9019 4.08004 16
438 1 2.86088 4.31734 8.74735 19
439 1 -5.53067 2.81247 10.5296 22
440 1 -5.22153 -10.7303 -4.10696 20
441 1 -10.4966 4.93085 13.0122 12
442 1 -5.75037 -7.53157 -8.86474 20
443 1 -9.78289 10.9221 9.34755 11
444 1 -2.2573 -9.60515 -8.1363 19
445 1 1.21286 -6.88175 -16.1742 19
446 1 -4.96961 -10.4298 5.2234 19
447 1 -5.34265 -2.50546 7.15216 19
448 1 7.29241 0.81212 10.5004 21
449 1 -6.0866 -8.3679 14.1166 20
450 1 -9.66946 7.76649 -12.0002 12
451 1 8.96244 5.67631 0.107786 18
452 1 -7.68617 -14.509 3.57871 11
453 1 0.205568 4.2707 -6.2601 21
454 1 -1.63832 17.6824 4.57529 9
455 1 -0.146836 7.48862 -7.96387 19
456 1 -2.84814 8.78546 12.4705 22
457 1 -10.3995 -1.96634 -0.510838 22
458 1 2.22075 12.6182 -9.33077 18
459 1 7.06185 11.8005 -4.48975 21
460 1 -3.07423 -4.88329 -12.5489 23
461 1 1.42897 3.20446 18.6303 9
462 1 -0.351236 -13.5444 -11.4995 12
463 1 10.7145 -3.83046 -16.1776 13
464 1 7.09841 -11.7808 1.20526 19
465 1 -10.5868 11.0336 4.44761 19
466 1 0.0823182 4.60758 16.228 15
467 1 8.21617 8.1591 -1.73054 20
468 1 3.97161 14.1892 1.41835 19
469 1 -7.24531 9.70466 -10.9887 16
470 1 2.90656 3.48052 -8.06371 19
471 1 2.84697 -7.58561 5.51512 22
472 1 -12.8311 -0.829882 -0.714951 14
473 1 0.848276 11.4074 9.05351 19
474 1 -2.81541 3.59416 -11.4659 23
475 1 7.00688 7.39315 5.14119 18
476 1 5.23517 13.7644 -8.20138 12
477 1 8.29708 -7.46213 2.16357 20
478 1 14.0909 7.79548 1.27116 15
479 1 -0.503099 -1.40315 -9.6316 19
480 1 -0.486685 -10.3921 2.55085 21
481 1 5.48671 -14.2465 6.84043 13
482 1 0.284764 -8.202 10.6295 19
483 1 -8.62739 3.01465 -11.1475 17
484 1 -6.84268 -12.2594 7.18203 17
485 1 -2.63466 -11.9743 -5.77025 16
486 1 8.74267 14.1206 8.67346 13
487 1 2.19104 -0.0616511 -10.2667 19
488 1 2.0771 -3.29453 16.1743 13
489 1 -8.16628 3.01583 8.60722 20
490 1 -1.82205 -17.1736 1.10338 15
491 1 -11.9485 -5.4139 2.28516 18
492 1 11.5957 -2.89019 -7.45132 17
493 1 16.6305 -2.03971 -5.10429 6
494 1 -5.11705 4.06471 -3.32097 21
495 1 1.18415 -8.63847 -8.04406 19
496 1 3.2176 2.90257 -11.3048 21
497 1 10.2111 -0.62464 -6.03016 16
498 1 -2.83469 -1.80051 12.8388 21
499 1 6.57437 16.0599 1.25634 13
500 1 1.89729 -0.94109 -19.4943 11
501 1 7.91792 2.44994 -17.0028 16
502 1 -5.916 -5.2798 8.68439 23
503 1 -6.61208 14.9856 4.15062 21
504 1 -2.94705 0.825411 -12.7507 18
505 1 -14.3769 -0.0504706 6.50555 13
506 1 -0.713374 -5.65229 -18.1185 12
507 1 -6.25182 -12.6906 14.8003 12
508 1 -0.574347 11.0421 -8.64171 19
509 1 14.9266 3.73057 9.65496 16
510 1 11.6268 5.53853 -2.02277 17
511 1 -9.63802 -14.7613 -2.16195 8
512 1 -4.47418 -13.5654 -0.472915 20
513 1 -1.65342 -2.66401 -14.0319 20
514 1 -9.3017 16.3838 7.08873 7
515 1 3.16518 -3.06851 -11.4284 19
516 1 13.8175 -2.39986 -3.36953 13
517 1 3.91264 11.8281 -6.02112 18
518 1 7.87711 -10.1888 5.2253 14
519 1 13.7094 7.79755 -8.23688 13
520 1 0.487178 7.52899 17.4462 12
521 1 -9.34834 0.245981 7.0171 18
522 1 6.63011 13.0191 11.0572 13
523 1 8.23705 -2.17632 14.5551 19
524 1 -1.25829 3.46295 -17.6717 13
525 1 -5.28513 -4.35431 -4.48153 19
526 1 0.0471426 -2.70603 10.805 19
527 1 2.51493 11.3436 11.8789 21
528 1 6.57773 3.87664 -9.00479 19
529 1 -7.0985 12.7069 -10.1727 12
530 1 0.695107 14.6863 -10.0347 11
531 1 11.1811 -3.48149 15.1959 11
532 1 12.3177 4.02957 -16.7333 12
533 1 7.55044 -9.79187 -3.72625 17
534 1 11.1093 8.09051 15.0477 14
535 1 -13.1246 -4.58029 -0.327453 16
536 1 -5.04219 10.656 -9.08286 20
537 1 -0.594256 0.00429578 8.92894 19
538 1 -8.71697 -3.06612 12.0879 20
539 1 -4.47636 7.07228 -10.8511 18
540 1 4.83295 -10.6889 -4.98227 20
541 1 4.8433 -1.59196 -9.21212 19
542 1 -3.42177 15.8249 -1.98563 13
543 1 -3.21508 -2.07281 -17.0782 16
544 1 2.89552 -14.8393 2.67987 20
545 1 -12.4084 -6.52433 -2.76404 12
546 1 11.3105 9.70504 -14.3787 11
547 1 -7.67694 3.04567 -1.61479 22
548 1 0.445913 2.83227 13.8351 17
549 1 -10.4418 -7.14068 5.481 17
550 1 5.31925 6.50805 -1.28399 23
551 1 0.501819 -12.0733 -8.91205 20
552 1 7.492 -7.39612 13.5705 9
553 1 8.91467 1.80687 -1.75473 15
554 1 -11.1891 6.81619 2.35788 17
555 1 3.31777 12.3556 16.6134 10
556 1 1.64967 16.9308 -2.95814 12
557 1 11.1685 -7.92994 -4.35445 14
558 1 2.90584 8.55849 12.7482 23
559 1 1.67459 7.49809 -17.3419 10
560 1 -2.77743 -13.361 14.5501 13
561 1 0.40575 4.11014 -9.84557 20
562 1 11.336 -1.21664 -14.8936 18
563 1 4.25719 13.1758 6.21551 21
564 1 11.8452 2.42853 -9.24451 18
565 1 0.466144 -1.49093 -12.6434 21
566 1 -2.94827 -11.7926 -2.37161 22
567 1 -10.0035 -5.61949 -5.43295 13
568 1 11.323 1.7534 -0.133818 19
569 1 15.9923 4.70747 -4.01369 7
570 1 5.0734 -4.68129 -7.83506 20
571 1 14.0048 5.79169 7.39744 21
572 1 3.43421 -10.0796 -8.16346 20
573 1 5.97865 4.93549 -19.0822 12
574 1 3.87198 11.3626 3.61995 21
575 1 -8.13441 2.83956 1.58922 21
576 1 12.2355 4.84634 14.455 12
577 1 5.19919 9.26373 -6.40514 21
578 1 11.4994 -1.04856 0.969713 21
579 1 12.3338 6.69225 -13.6014 15
580 1 8.47923 5.32491 10.688 22
581 1 13.794 3.42141 12.7474 13
582 1 0.301528 -7.68537 7.35501 21
583 1 12.6941 8.99752 -2.38915 17
584 1 1.83293 -0.313087 14.5063 18
585 1 15.263 5.06078 -8.52388 10
586 1 12.287 2.08659 10.2624 21
587 1 -7.65789 -0.317583 -5.99234 22
588 1 12.2433 4.70387 0.802161 20
589 1 10.7066 -4.67566 3.59428 19
590 1 -8.22777 7.8093 9.4402 18
591 1 8.87495 10.8294 14.3743 11
592 1 11.7558 -4.55206 11.7259 12
593 1 2.69306 10.6045 7.45091 19
594 1 1.33327 15.0042 9.36635 16
595 1 4.64073 6.09512 5.92741 20
596 1 -0.522902 -18.0654 4.14214 13
597 1 -3.00895 8.89186 -4.53366 18
598 1 8.63476 11.6181 -6.81122 14
599 1 11.7708 -4.35434 -13.2513 15
600 1 2.50141 14.1927 -1.60212 22
601 1 -0.364979 -15.0653 -8.51429 12
602 1 11.5546 -6.97416 -11.1067 11
603 1 -11.341 3.28808 3.04606 17
604 1 -7.39294 2.59007 -15.1402 17
605 1 -2.81829 -12.3652 6.44411 19
606 1 -4.93221 -1.85195 -13.167 20
607 1 -14.9788 2.50901 -5.34935 8
608 1 13.7853 -3.29308 -0.291024 13
609 1 14.0092 9.73263 6.17623 14
610 1 -2.79238 -8.26576 5.65848 20
611 1 -11.298 -1.16058 -12.7235 8
612 1 4.17915 6.51161 -17.0114 18
613 1 -0.0486347 6.74212 11.8901 17
614 1 5.07412 7.55465 -8.19954 18
615 1 12.6208 -0.516784 13.7985 10
616 1 8.14656 5.70291 -6.57998 20
617 1 12.0331 11.3439 3.66164 14
618 1 2.34808 -14.0689 -9.73451 12
619 1 -8.45658 -3.22702 15.12 12
620 1 12.0404 1.32777 6.36311 20
621 1 -3.73272 12.2328 12.259 15
622 1 8.50412 12.2517 -14.0573 9
623 1 -12.158 9.79359 -3.3352 14
624 1 6.12507 9.40604 -0.251391 15
625 1 -7.40975 -15.2018 6.8617 12
626 1 13.6159 -4.86806 3.22151 14
627 1 9.35252 13.3863 5.43285 15
628 1 -2.35197 3.04723 8.8218 19
629 1 -12.3463 -9.8191 -2.3783 10
630 1 -5.52685 -5.81854 -11.3032 19
631 1 7.39421 2.47641 12.796 18
632 1 -2.70553 -7.775 12.234 20
633 1 12.1231 5.72246 9.97071 21
634 1 -5.22175 12.5179 -1.09296 19
635 1 8.26412 5.55511 2.9245 20
636 1 11.2077 3.95688 3.90184 23
637 1 9.24761 5.45961 -17.9808 12
638 1 -8.17748 -2.62652 8.66325 21
639 1 10.0564 -0.49727 -8.94036 19
640 1 -2.75058 -5.96448 -6.19552 20
641 1 8.0253 -14.0999 -7.45587 12
642 1 9.15188 2.59498 5.2477 20
643 1 5.22629 4.07297 3.83093 21
644 1 -6.30196 -1.8157 17.283 7
645 1 10.4526 10.0749 12.0586 14
646 1 3.45937 -6.09181 14.1065 14
647 1 -5.55822 8.04173 10.3842 20
648 1 -1.69666 -6.25101 -15.8092 17
649 1 -3.97311 0.501691 13.3774 21
650 1 4.84621 3.78849 14.8974 21
651 1 -8.87625 -15.9047 9.71719 9
652 1 16.212 5.47269 -0.0249616 8
653 1 6.05034 -15.7002 -5.53517 12
654 1 -2.46989 6.2521 -6.59561 18
655 1 10.6594 10.7715 -0.274229 15
656 1 10.8445 10.1426 6.28937 18
657 1 7.02998 -0.137333 -17.477 15
658 1 5.40908 10.9313 -9.12241 22
659 1 6.57951 10.4351 2.46359 18
660 1 -7.7539 -6.37087 2.21232 19
661 1 1.19084 1.65734 -16.9298 17
662 1 -9.86273 13.4647 2.5207 19
663 1 8.48082 -3.20947 -7.49905 19
664 1 8.69218 3.04554 1.52626 21
665 1 14.0766 6.75659 -11.2142 14
666 1 8.82223 16.8751 -1.24015 10
667 1 -5.03897 6.56266 2.17206 20
668 1 8.25174 5.24277 -3.12489 20
669 1 7.33001 2.90841 17.1119 12
670 1 10.6505 -0.783041 16.2511 11
671 1 -0.868676 -10.3998 12.5512 18
672 1 -6.95498 8.08178 -13.741 14
673 1 3.42555 6.58723 10.3308 20
674 1 12.814 -11.0513 -5.05631 11
675 1 3.68238 2.43461 10.3775 17
676 1 6.30313 14.047 -5.58016 15
677 1 8.06797 8.77065 7.83536 20
678 1 13.3127 -5.05444 -3.33302 11
679 1 4.78154 8.76354 18.6526 11
680 1 -12.1538 -4.82956 5.19318 22
681 1 2.60824 -11.4268 3.50857 20
682 1 2.57214 -3.0307 -8.03624 20
683 1 -8.29107 16.597 0.938203 11
684 1 1.90841 5.90305 3.99866 19
685 1 4.92339 -7.95885 -2.83613 20
686 1 6.9759 11.5595 5.61912 18
687 1 -14.7436 -4.95398 2.97169 13
688 1 0.352096 8.17621 14.7787 18
689 1 -3.34218 6.05989 -13.8857 22
690 1 -4.41203 3.33212 -14.5 20
691 1 1.79693 -15.0095 -2.86433 18
692 1 7.29724 9.23958 -11.4976 19
693 1 4.9529 -5.32019 6.13865 19
694 1 -0.87349 6.58477 2.39933 20
695 1 -10.7889 2.40685 11.1317 17
696 1 5.93248 1.31912 -14.8319 21
697 1 4.63836 -9.26086 12.9918 9
698 1 -0.106035 14.9895 3.86038 19
699 1 -4.90595 1.18787 16.9944 11
700 1 -6.18017 -8.61706 -12.4522 14
701 1 -1.04794 -9.33944 -14.5671 15
702 1 -5.32115 -14.3377 -5.70867 14
703 1 -1.87563 15.6539 -8.31497 11
704 1 5.50422 -4.8532 -4.56571 19
705 1 -3.36275 14.4772 6.26486 15
706 1 4.7189 -7.67466 -13.6479 21
707 1 9.53443 -14.9689 2.3133 9
708 1 3.2683 -8.1795 10.3245 19
709 1 12.1161 5.0581 -7.99384 19
710 1 3.52521 -13.6494 -0.368166 21
711 1 -12.2114 -4.88896 9.01584 18
712 1 -2.09101 -14.2406 0.271922 23
713 1 -5.3713 -7.19789 -5.85141 17
714 1 -9.27046 -0.0507031 9.93042 19
715 1 -3.85092 -15.4225 2.03024 14
716 1 11.126 7.65488 -4.18884 18
717 1 -6.25008 15.0146 7.301 15
718 1 -5.53902 3.27144 7.28946 20
719 1 -12.1944 8.41491 -0.18756 17
720 1 9.57199 0.957382 3.28932 24
721 1 -9.24493 -4.61182 -8.68822 14
722 1 2.38362 8.92616 -4.87948 25
723 1 10.109 4.1335 -10.7039 20
724 1 5.47597 10.7648 15.643 17
725 1 7.85472 2.77942 -4.78743 16
726 1 -10.3672 5.76333 -4.9013 20
727 1 -9.23085 -7.68213 -7.68976 11
728 1 -0.804937 13.4605 13.9401 15
729 1 6.34408 3.7768 -12.3196 22
730 1 11.9849 13.1044 6.9459 11
731 1 -3.36649 0.801546 10.3148 22
732 1 -0.282742 -14.0959 -5.1105 19
733 1 -5.88121 -16.5168 9.99236 10
734 1 -5.54693 -8.08992 10.8248 21
735 1 13.4563 9.50886 12.5139 11
736 1 2.43888 -8.68917 -10.9343 16
737 1 -5.07444 6.80043 -1.32448 20
738 1 3.25853 8.59347 4.7292 20
739 1 -7.77177 -8.82706 5.06384 19
740 1 12.5396 9.21112 -11.4666 14
741 1 2.66553 -14.2853 -6.54719 18
742 1 1.84858 -18.3796 2.67051 15
743 1 3.87292 -13.767 -4.05977 20
744 1 8.90286 6.22836 -12.7127 19
745 1 6.50496 18.4911 -0.250272 12
746 1 1.48473 4.27539 -16.1933 19
747 1 -0.723963 -2.4833 14.5299 19
748 1 1.22691 4.49407 -13.2131 20
749 1 -11.6381 2.84782 -9.90456 12
750 1 -10.6052 -4.53776 -2.70972 19
751 1 0.748358 16.5496 -6.31306 10
752 1 7.81747 -4.16989 0.622256 24
753 1 2.09385 -3.79151 -18.7837 12
754 1 -5.1662 -7.20168 0.354254 19
755 1 10.9899 7.93693 -7.20722 19
756 1 11.4464 -6.79287 -1.56775 15
757 1 -6.16075 8.83496 13.1262 15
758 1 8.11304 -8.62198 7.83678 15
759 1 14.7208 -2.82911 -7.81041 12
760 1 11.2624 -1.04254 7.5521 22
761 1 -2.37726 11.1031 7.56597 21
762 1 -9.39655 -0.283038 13.4772 16
763 1 -8.79105 7.6742 12.8649 15
764 1 -1.25159 -15.1669 13.1197 8
765 1 6.76824 1.0672 4.47444 20
766 1 5.72093 9.99352 12.7626 20
767 1 -14.176 -2.4312 0.814893 11
768 1 8.006 -6.9011 -1.39935 19
769 1 -11.8262 11.1386 -6.25144 10
770 1 2.70882 8.50161 1.7964 16
771 1 1.86622 -16.2609 7.52866 14
772 1 2.2317 2.34601 15.9879 16
773 1 -0.725243 13.6813 7.74274 17
774 1 2.47938 -10.1777 8.10976 20
775 1 -5.18292 -4.61767 -1.3446 20
776 1 4.39041 0.734325 13.3558 15
777 1 -10.5001 1.78808 -1.43295 24
778 1 -3.0843 11.5444 15.34 13
779 1 4.19793 18.9618 2.46506 9
780 1 -12.233 -11.2347 9.13373 13
781 1 -1.40571 -15.653 6.85611 17
782 1 10.5653 -3.55942 5.99943 20
783 1 13.3011 -1.54412 11.5093 15
784 1 5.03085 8.2503 7.68751 21
785 1 0.332532 6.64928 -4.51729 20
786 1 5.5131 -8.19076 -9.07367 20
787 1 -3.0115 0.916408 -9.68832 20
788 1 -5.55977 -2.72246 10.7668 23
789 1 -2.09163 17.2952 1.54953 13
790 1 14.8697 0.402468 5.14593 14
791 1 2.51241 9.49303 -7.89658 20
792 1 -6.20852 11.4836 14.5266 10
793 1 5.99993 7.84427 10.3311 19
794 1 8.04761 -7.00832 -11.6681 20
795 1 -5.23026 -12.7966 2.33297 20
796 1 -5.16346 -1.65634 -6.48102 20
797 1 15.3319 -2.48935 5.55155 14
798 1 2.84641 1.8318 -14.5495 20
799 1 -2.98796 6.03795 14.613 19
800 1 9.36322 -8.35179 -9.4864 17
801 1 10.0208 6.78549 -15.7978 18
802 1 -2.6677 -8.98529 -4.96167 19
803 1 11.154 1.67687 -16.9325 15
804 1 13.1904 0.295184 -1.18688 14
805 1 2.70659 -5.40424 10.9416 17
806 1 3.03034 -5.98974 -12.7999 20
807 1 8.79327 13.0439 -1.48002 15
808 1 -0.60278 -7.49749 3.98247 21
809 1 -10.5366 10.8447 1.52661 18
810 1 13.629 -0.319578 -6.07388 17
811 1 16.344 5.52577 3.99002 10
812 1 4.31418 -2.52426 -17.2802 16
813 1 -7.71221 11.6077 3.92858 22
814 1 16.1172 8.11781 6.65008 12
815 1 9.72183 14.4638 -3.92506 11
816 1 6.82317 4.46553 -15.3059 24
817 1 11.1174 -4.34922 0.757081 17
818 1 -10.3868 3.83537 -2.71929 21
819 1 8.96254 9.43931 4.36387 20
820 1 -11.9104 -10.5097 0.96429 12
821 1 -7.7508 6.06828 -10.2179 20
822 1 7.41201 5.82631 7.95518 19
823 1 -11.6488 -0.683256 -9.20135 12
824 1 -11.0784 7.82409 10.8928 14
825 1 -6.12171 3.04657 -9.96783 16
826 1 9.95322 -4.4224 -10.9231 17
827 1 -7.43104 -9.18772 -5.54133 14
828 1 10.9688 -4.74325 -4.6684 17
829 1 -13.5625 10.0333 2.20259 13
830 1 -5.99702 -7.88159 -2.75484 16
831 1 10.5218 7.28468 8.58839 19
832 1 -1.95971 -9.61474 7.58738 17
833 1 7.19767 -0.111756 16.3363 12
834 1 13.8984 0.0938388 8.19283 19
835 1 9.00958 -2.07999 2.69286 21
836 1 -10.5612 4.06196 0.490355 20
837 1 -0.423918 9.82355 12.1817 16
838 1 4.0138 8.8861 -11.2066 19
839 1 3.22359 -6.37819 -18.362 9
840 1 -4.42882 10.9843 9.70813 21
841 1 -7.97732 -7.84005 8.23234 18
842 1 9.99441 10.612 -3.49298 18
843 1 0.0114427 9.65194 6.50817 22
844 1 17.0696 -1.36743 -8.8969 6
845 1 7.97942 -5.25725 10.6247 19
846 1 -3.50562 9.28589 -14.8474 11
847 1 6.27984 12.2227 -12.1001 13
848 1 -6.0453 0.314173 8.97255 21
849 1 17.231 5.49193 7.44616 11
850 1 -5.03864 -3.79909 -14.9864 15
851 1 13.1904 10.2953 0.809387 12
852 1 -13.9189 7.09719 3.4833 11
853 1 -2.26174 -11.9947 9.93184 18
854 1 5.07799 12.8695 -14.4983 8
855 1 6.03947 -2.70533 7.2037 21
856 1 0.452116 -15.5604 1.56999 20
857 1 -5.25762 15.6719 0.61253 17
858 1 -14.0704 7.3117 -2.39835 10
859 1 8.79701 1.83819 -14.2134 16
860 1 1.91237 -9.14202 -13.5973 17
861 1 -8.65731 9.18213 2.51316 20
862 1 13.346 5.69663 -5.68861 17
863 1 -4.94651 0.955669 5.53364 22
864 1 9.70482 -1.59066 -11.9712 19
865 1 -4.67452 -10.6537 -14.4779 9
866 1 2.61217 -11.5697 -2.74018 23
867 1 -1.48602 12.0824 10.7115 18
868 1 7.85242 -14.4558 -0.575296 16
869 1 -0.817281 8.78413 -14.8151 14
870 1 12.1703 2.21537 -5.94445 17
871 1 6.85282 12.9792 0.931998 17
872 1 1.26673 -18.1583 -1.19279 12
873 1 3.69148 0.57499 -17.768 18