ITEM: TIMESTEP
27000
ITEM: NUMBER OF ATOMS
2000
ITEM: BOX BOUNDS pp pp pp
-30.0 30.0
-30.0 30.0
-30.0 30.0
ITEM: ATOMS id type x y z Coordination
1 1 -10.4544 2.93856 -12.6468 17
2 1 -0.522229 -6.90984 -9.53451 22
3 1 3.53525 14.186 13.6292 15
4 1 5.98563 -9.19198 10.0928 12
5 1 -11.6618 9.89819 -2.45073 21
6 1 11.5459 -10.288 -8.01163 12
7 1 -11.4918 7.7702 -5.71393 16
8 1 0.471145 -7.69543 13.5056 15
9 1 -11.029 -2.94312 -11.7806 10
10 1 -13.7134 -7.59467 9.37187 14
11 1 13.462 1.78777 -15.9069 9
12 1 -2.90634 -11.8715 3.55507 20
13 1 -10.7567 -7.73138 3.59293 21
14 1 -0.515548 2.11107 16.5263 13
15 1 7.91679 -4.59944 4.09919 25
16 1 0.083539 3.20016 11.0935 21
17 1 -2.06562 8.55291 -10.375 22
18 1 2.10665 0.573026 11.1618 23
19 1 -4.16698 4.37714 -17.7645 11
20 1 -11.68 -2.86526 13.3967 13
21 1 11.8254 8.57398 2.99755 21
22 1 2.97904 10.6462 -13.791 11
23 1 4.01423 3.46611 -13.6446 19
24 1 10.5967 2.43014 15.3402 14
25 1 -8.1773 -3.00352 2.14491 19
26 1 -8.47696 7.9861 -4.18973 18
27 1 -2.86812 -2.66907 -7.64266 22
28 1 -11.9388 6.70552 8.64582 12
29 1 7.36366 -11.188 8.00031 11
30 1 3.04317 -2.09549 9.22459 22
31 1 -0.68375 -12.2896 -10.2572 14
32 1 9.13501 -10.483 1.51474 18
33 1 -7.00943 -12.8002 -3.02147 17
34 1 -13.4128 -4.47429 11.3646 16
35 1 4.60902 -5.97953 -15.0959 17
36 1 9.08634 -9.29411 -12.2221 11
37 1 -0.705447 5.48814 -17.499 12
38 1 -1.05733 0.540924 12.749 22
39 1 2.58658 -11.7217 10.6016 14
40 1 5.25607 -3.93337 12.8061 17
41 1 -14.9959 0.64469 5.91617 13
42 1 -12.8041 0.583141 7.87813 18
43 1 -5.10612 1.0761 -3.96892 19
44 1 -2.63804 11.2739 0.917144 19
45 1 -1.18456 -9.33442 -14.3702 16
46 1 -0.0309449 1.1674 -7.87678 22
47 1 7.49466 -0.671585 -13.5084 18
48 1 -1.45803 -4.41059 11.6476 19
49 1 -12.434 2.86107 -0.338507 16
50 1 4.17883 7.5342 -15.0244 14
51 1 4.56578 14.3979 8.79847 22
52 1 -6.05947 9.30174 -5.89203 23
53 1 0.230289 12.3603 -0.581038 20
54 1 6.55439 -9.77388 2.3539 21
55 1 5.26946 -7.48972 -6.18967 21
56 1 10.1635 -6.07691 -14.341 11
57 1 -5.36067 8.21853 7.56378 18
58 1 -13.0679 -1.08158 -4.81712 12
59 1 5.92391 3.36444 6.61425 21
60 1 -5.31725 7.01533 -4.13009 21
61 1 -9.31151 -11.4052 4.84338 19
62 1 1.08376 15.9957 12.506 12
63 1 -13.2754 7.46098 -3.62107 13
64 1 -7.71339 5.66192 10.5128 20
65 1 3.52462 5.72899 -5.79704 21
66 1 -2.56771 -14.7867 9.11095 15
67 1 1.50774 7.79052 6.56148 21
68 1 6.97718 -15.4949 -3.39868 15
69 1 3.58176 10.764 15.4724 21
70 1 -12.6396 4.96161 -6.88989 14
71 1 -8.82067 9.57039 -7.62572 17
72 1 5.08255 4.85281 9.82377 19
73 1 12.0413 -1.98817 -7.34338 20
74 1 8.51791 -13.1674 4.0804 14
75 1 -13.1939 1.95515 10.4665 10
76 1 1.61265 16.0267 4.37659 16
77 1 5.39356 -4.65053 15.6492 13
78 1 -5.3633 -11.2726 8.43444 19
79 1 -7.39865 -3.46349 -1.16756 23
80 1 16.1041 0.872012 7.99037 11
81 1 8.26258 -5.85857 -5.56626 21
82 1 -1.39708 16.8087 9.6331 13
83 1 6.25775 2.41893 11.7692 23
84 1 -5.83059 -4.77705 2.1307 19
85 1 -3.44585 -8.40728 -10.2629 19
86 1 -9.39297 12.8001 6.99583 15
87 1 -6.11845 9.19919 -2.31499 21
88 1 -7.35869 6.39415 -6.34808 19
89 1 5.80328 -1.97639 -5.67493 20
90 1 7.5894 11.3698 -8.84578 18
91 1 11.3968 -8.64138 0.214229 9
92 1 1.48814 -12.1967 13.4506 8
93 1 -5.02935 11.7952 -3.74933 21
94 1 -5.92992 17.2447 2.05064 11
95 1 -5.39621 -5.32245 15.9917 13
96 1 -3.1849 5.84136 4.00451 20
97 1 -0.600871 -9.7205 15.2325 11
98 1 9.96954 -8.50501 -6.16735 19
99 1 -9.03249 5.97601 4.09615 18
100 1 -5.70352 -10.8673 1.81407 22
101 1 10.5515 -11.6483 -4.86103 12
102 1 5.30103 1.51493 -7.58445 15
103 1 -6.40224 1.30687 -17.6228 12
104 1 -2.01048 11.7521 3.83955 19
105 1 -7.28128 4.65678 -13.0405 19
106 1 0.575201 11.3133 16.9682 12
107 1 1.39368 11.7442 -6.76497 22
108 1 -13.2755 13.998 1.43975 9
109 1 -0.0245616 9.39352 0.850221 25
110 1 -4.09789 -10.5106 14.7367 12
111 1 11.3353 0.11127 12.7225 15
112 1 -0.475541 -4.30064 -7.70423 23
113 1 2.42677 -5.37913 -9.33388 23
114 1 0.091261 3.23674 7.60347 21
115 1 3.80532 -1.78468 14.9151 17
116 1 -7.63026 -7.27492 -0.73081 21
117 1 5.72524 -7.72309 3.92146 22
118 1 -10.4495 -9.64737 -2.71472 15
119 1 10.0146 -12.1962 -0.809339 13
120 1 -0.894791 5.24617 5.91739 19
121 1 8.1026 5.92159 -9.63168 19
122 1 3.2587 18.6802 -4.37013 10
123 1 -9.82045 -12.0537 12.9984 11
124 1 -10.5523 -12.9204 9.67087 17
125 1 7.62565 -7.83506 -15.069 10
126 1 5.84762 3.8132 -2.70266 20
127 1 9.64272 -9.83216 -2.08227 15
128 1 0.171205 -16.3594 8.12648 12
129 1 -12.188 -11.4363 -0.378696 10
130 1 14.9131 5.78784 11.6038 13
131 1 14.4286 -3.4811 -9.5253 11
132 1 -15.3389 -5.61635 3.36855 9
133 1 9.43666 12.7273 8.88069 16
134 1 14.8554 9.88087 4.04054 13
135 1 -6.91281 1.27695 16.401 11
136 1 6.73804 9.88228 -2.76436 21
137 1 -2.52916 8.58778 8.94737 17
138 1 -2.45436 14.0783 1.37434 16
139 1 2.76342 -3.41902 -14.5943 22
140 1 9.00091 -11.7971 -10.1467 13
141 1 -0.59087 9.56051 -12.7866 15
142 1 6.43027 -2.35809 9.56417 21
143 1 3.32311 0.990081 -20.472 12
144 1 0.0621848 9.74007 -5.8559 22
145 1 17.9576 0.507877 -6.80884 8
146 1 -8.1158 11.1675 -3.03122 21
147 1 -6.43181 14.222 -2.50226 17
148 1 7.60744 0.474704 -10.1327 17
149 1 8.79453 -7.23274 5.13156 16
150 1 -4.70971 4.07226 -5.72911 22
151 1 -6.04248 13.2785 9.75276 13
152 1 12.67 9.13605 -9.12311 16
153 1 3.80949 15.0268 -11.1874 11
154 1 -0.0150093 16.2098 0.31603 14
155 1 8.95803 8.34703 -4.69436 16
156 1 -1.98855 11.3552 -2.52642 20
157 1 1.42796 12.6939 -12.288 13
158 1 4.54465 4.73462 -16.8415 15
159 1 -15.012 -8.79975 6.15211 7
160 1 -12.0281 12.8284 -2.95184 11
161 1 -0.805706 -0.359599 -18.0406 17
162 1 3.57311 -8.4828 -14.4565 18
163 1 5.58261 17.6328 9.22394 9
164 1 0.423043 16.4734 6.99245 14
165 1 -7.57607 -5.28687 -7.02027 19
166 1 -10.552 13.6678 -0.297277 15
167 1 14.8819 3.67928 -0.236356 15
168 1 -8.75196 -0.0448975 -12.4967 17
169 1 3.8969 6.37883 17.9627 14
170 1 1.56744 18.2532 1.74213 9
171 1 -2.38439 8.54581 5.84714 20
172 1 6.0387 -2.50029 -16.0793 18
173 1 -4.216 18.2391 3.95933 10
174 1 -1.90903 12.3159 -5.94907 20
175 1 2.37494 -2.40759 12.2085 16
176 1 -8.93138 -5.96025 3.64208 21
177 1 -4.05538 -7.71282 -17.2368 9
178 1 -5.66081 13.5232 -9.82665 14
179 1 -4.57812 -14.2424 6.38546 17
180 1 -0.735931 -12.8333 -3.17802 22
181 1 -4.5954 10.856 -10.8993 15
182 1 -12.9648 0.174476 13.0146 10
183 1 3.3318 11.4412 0.282828 21
184 1 12.7628 10.8087 -5.84413 11
185 1 -3.70166 5.42441 15.3195 17
186 1 -2.98591 -4.99421 14.0164 18
187 1 -7.99433 -0.456038 -2.61385 22
188 1 -0.801198 15.9417 -3.33996 13
189 1 1.24576 9.30207 11.0736 16
190 1 7.75433 4.32444 13.9901 22
191 1 -6.68604 11.0807 8.13871 22
192 1 10.8644 -5.40169 -7.35427 22
193 1 -3.7795 15.2038 8.7992 13
194 1 -2.48492 2.99375 -7.47922 20
195 1 13.8264 -1.34732 2.3006 15
196 1 -6.10061 -4.63866 5.65905 21
197 1 -11.7076 1.15863 5.20201 20
198 1 -11.3703 -13.0026 6.55754 14
199 1 5.81132 6.52764 12.0653 17
200 1 -15.8169 2.99788 1.27417 8
201 1 1.08372 -13.0707 0.128171 22
202 1 5.72059 -7.41791 0.759691 22
203 1 0.549652 9.88173 3.95023 19
204 1 -8.83838 0.165693 3.54067 20
205 1 6.46047 12.8523 14.2237 15
206 1 -12.4567 1.22597 -7.51501 14
207 1 -4.85196 12.0117 -7.01345 23
208 1 -13.7822 -2.75866 -2.5517 9
209 1 -9.68019 -4.76579 10.3765 21
210 1 3.15821 -14.4815 8.50438 11
211 1 5.18099 -10.276 5.30518 22
212 1 -10.3082 15.724 2.26916 12
213 1 14.9955 3.5815 5.93357 18
214 1 8.80955 -0.978116 -3.90825 24
215 1 -5.4418 -4.81557 -16.2428 15
216 1 5.06338 -0.41751 11.8524 19
217 1 5.26984 -18.7146 1.9097 9
218 1 -2.35494 6.01747 -12.6341 20
219 1 3.71391 -11.4781 -13.8655 10
220 1 4.92446 0.6732 -12.1195 17
221 1 6.19132 9.79786 -14.8452 11
222 1 -8.69955 -2.00371 -7.61921 20
223 1 -2.92354 12.9236 -8.71828 18
224 1 -7.79755 -10.8639 9.99093 18
225 1 5.37366 16.141 -5.66002 16
226 1 -6.6111 3.59476 14.5332 19
227 1 -8.04638 12.0791 -5.42708 17
228 1 7.85641 -0.0283751 7.36717 19
229 1 0.78338 -6.86327 -13.4939 22
230 1 -4.58275 6.91451 -7.65596 25
231 1 1.97703 6.32242 -8.58096 19
232 1 0.682376 -12.6291 8.40316 24
233 1 -10.515 3.21612 7.60385 20
234 1 -8.98582 5.61769 7.89068 20
235 1 -0.705267 -9.48129 -11.5612 17
236 1 -2.49077 -11.4565 0.480909 22
237 1 6.64428 -11.7766 -2.76058 19
238 1 10.4554 6.26967 12.921 21
239 1 4.74479 5.2737 -10.6672 20
240 1 0.27313 9.41066 -2.75079 19
241 1 -7.80312 -0.154486 0.511171 22
242 1 -9.31081 14.5263 -3.65245 12
243 1 1.57763 5.82148 11.7621 20
244 1 3.36842 -17.4055 0.274471 16
245 1 13.3047 1.6074 2.93188 20
246 1 1.59861 11.9366 2.3081 19
247 1 -6.4863 6.13863 5.4511 20
248 1 -7.89639 -5.55394 -3.52911 22
249 1 10.9675 6.93177 -9.54035 19
250 1 4.969 1.08206 9.06383 24
251 1 9.53305 9.47565 -10.165 22
252 1 2.59999 -8.64497 -1.01181 20
253 1 -1.82942 -1.48631 -12.0154 21
254 1 1.56888 -19.1872 1.24924 12
255 1 9.96795 2.91981 -7.29732 15
256 1 -11.3648 -1.85536 6.69689 19
257 1 6.49699 -17.1184 -0.843124 13
258 1 -9.79981 -6.06852 -11.3346 10
259 1 3.59702 15.7711 -3.28905 20
260 1 1.3118 -1.1738 -15.859 23
261 1 4.17587 4.23501 13.6616 22
262 1 15.7241 4.33243 2.92408 13
263 1 -5.7153 -7.641 4.00197 20
264 1 13.3913 -0.524264 -10.2287 17
265 1 2.14355 -12.0196 5.75543 21
266 1 -5.9491 -1.3372 -15.0385 14
267 1 -10.7267 2.73969 -5.85729 22
268 1 -5.37298 -13.8066 9.89137 18
269 1 9.12005 -2.5703 11.9829 16
270 1 4.15683 -5.05638 9.14167 19
271 1 -4.99971 -6.90903 -14.0717 18
272 1 1.93382 -5.43427 7.42273 24
273 1 0.132286 7.04969 -10.8592 20
274 1 6.6563 6.69667 2.29592 19
275 1 -10.2641 -10.0637 8.23956 20
276 1 2.65384 8.46698 -0.722876 18
277 1 -6.6372 -5.5521 12.0589 20
278 1 -9.00123 -8.44869 -9.15971 11
279 1 -1.081 1.20407 -14.5972 22
280 1 -5.40823 1.46433 -11.4457 19
281 1 -6.36872 -8.90011 -11.4008 13
282 1 -2.44993 -8.6731 2.44184 22
283 1 9.14879 -3.93434 -12.7271 18
284 1 14.3427 3.05613 -10.9139 14
285 1 10.1846 1.36253 7.58653 21
286 1 -8.68724 -8.10581 11.8857 20
287 1 -5.61452 -10.3037 -1.35456 22
288 1 7.20806 5.72168 18.4065 13
289 1 -2.2045 -15.6741 3.00254 22
290 1 0.00126998 -10.6241 -1.19434 20
291 1 0.546063 12.6213 -3.7518 18
292 1 8.89163 1.06515 -15.563 20
293 1 -2.67325 -4.26024 -17.3092 17
294 1 -12.1447 -10.3091 10.9681 16
295 1 4.46178 3.31186 18.8911 12
296 1 3.91222 -10.9433 -0.134182 20
297 1 -3.43054 -11.1734 -8.74193 15
298 1 -10.2796 6.51984 -8.59764 14
299 1 10.4171 7.03297 7.16875 22
300 1 -6.59556 -0.171272 -9.54451 19
301 1 -2.87388 5.88425 -9.36571 21
302 1 -3.34955 -5.76283 7.12897 24
303 1 6.35514 -12.9582 -8.50381 14
304 1 -3.76107 14.3875 -4.81388 17
305 1 0.425804 13.72 4.76759 19
306 1 12.13 -1.90711 4.91331 22
307 1 -8.47122 -2.51154 5.23354 20
308 1 -3.85925 -5.93001 10.2 21
309 1 -4.44712 10.412 5.37217 20
310 1 8.06321 -4.6416 -15.7895 14
311 1 11.5037 7.58732 -0.433724 20
312 1 5.42131 -12.5614 3.36825 20
313 1 -0.235476 -5.77204 15.6336 13
314 1 -14.2513 -2.47694 7.44936 15
315 1 -1.17079 -16.3788 -3.98428 15
316 1 -6.97247 11.0498 11.3222 16
317 1 -6.61493 6.36642 15.6609 12
318 1 -14.2329 -1.41422 11.3806 11
319 1 -15.3037 -4.35416 9.28302 11
320 1 8.14276 -1.2655 -0.44652 21
321 1 -11.3911 -7.36671 10.3747 22
322 1 7.88495 0.163137 -6.69621 19
323 1 9.27628 -14.6154 -5.11125 11
324 1 3.23871 17.151 -7.91801 10
325 1 -8.9332 10.6443 -0.268545 16
326 1 8.20494 8.00673 13.4715 21
327 1 -11.5113 -1.32119 3.01755 23
328 1 7.95513 -11.7778 -6.33503 17
329 1 -3.29009 8.33554 2.47673 23
330 1 -5.16246 3.84192 4.09745 19
331 1 5.17678 -7.44559 7.10976 21
332 1 14.2184 -4.64823 6.00246 12
333 1 -0.525776 6.39845 9.0105 22
334 1 -5.97745 -3.45436 -8.93187 18
335 1 -0.66387 -2.06353 17.8762 8
336 1 -4.90734 15.4165 3.90201 19
337 1 5.84016 6.81545 15.0673 20
338 1 -7.22743 14.624 -6.44007 14
339 1 8.55903 -1.32613 -17.3948 13
340 1 -5.23733 1.28075 -7.5079 20
341 1 6.3882 -10.4874 -12.1342 12
342 1 -7.02678 0.694413 11.8802 21
343 1 -11.0279 5.84556 1.51447 19
344 1 -4.06217 -5.73841 -8.29164 20
345 1 -5.56464 9.47703 0.841309 21
346 1 9.39636 -2.91093 5.86679 17
347 1 -10.0326 -11.4099 2.37987 13
348 1 8.08163 -5.72814 7.663 16
349 1 -10.8746 -8.80485 13.5994 13
350 1 -15.6868 9.077 0.557145 11
351 1 -3.00112 -2.62946 9.3414 22
352 1 2.50891 -11.4441 -6.10672 15
353 1 -8.0562 -2.94631 -11.0205 16
354 1 6.40285 5.9695 -13.2577 18
355 1 4.92013 16.0967 3.03904 12
356 1 -10.0625 -0.58712 -5.40786 20
357 1 6.19371 -3.62481 -13.03 20
358 1 11.9511 4.23538 -12.4347 18
359 1 -3.55132 -13.9559 -4.3712 22
360 1 -10.348 -6.2491 -4.04484 16
361 1 -2.47743 -8.76766 -0.769105 21
362 1 10.6152 4.91254 17.3143 8
363 1 17.2649 3.08806 -5.03543 10
364 1 -4.95849 -1.64537 -11.8198 23
365 1 1.73765 16.9203 -1.8984 16
366 1 -13.9828 1.28934 -2.08396 11
367 1 -8.53237 8.78803 6.19963 18
368 1 -7.74983 5.61356 0.754688 22
369 1 -3.53049 6.01154 7.45011 20
370 1 9.56827 2.68009 11.6143 21
371 1 8.53092 -3.6734 -2.95883 21
372 1 8.36234 -4.37899 14.3835 12
373 1 12.5574 1.15813 -12.4386 16
374 1 -4.32163 -16.4079 -2.36956 13
375 1 -0.194993 -7.18566 -5.8574 23
376 1 -5.06439 12.3939 2.54936 21
377 1 -14.9678 6.45431 -1.32039 12
378 1 7.30913 -9.04608 -0.88414 17
379 1 15.3604 1.14088 11.4352 7
380 1 -7.35316 -2.3333 -4.81053 23
381 1 -5.80261 -7.68187 7.20272 21
382 1 -8.3153 -6.89029 14.6267 15
383 1 -6.75418 9.41146 3.1475 19
384 1 -8.52206 -11.2392 -0.269209 19
385 1 8.2413 7.34692 16.5312 13
386 1 -9.59944 8.02416 -1.11761 18
387 1 -2.7987 9.629 -7.44233 18
388 1 7.2248 18.1428 6.99123 7
389 1 -13.4506 -7.1606 1.16432 12
390 1 0.222887 -10.3276 -4.72203 22
391 1 -11.8747 -2.03858 9.96315 21
392 1 -13.9435 11.358 -0.702981 14
393 1 3.83563 -10.7168 8.07722 23
394 1 -6.69165 -14.1803 -0.180768 16
395 1 12.1093 10.9755 9.33679 15
396 1 10.3763 4.87026 -15.5839 15
397 1 -9.58835 5.30428 -11.1176 16
398 1 -2.73353 12.44 -12.1166 10
399 1 -7.8118 3.22338 -7.54657 20
400 1 0.045809 -12.9295 3.81243 20
401 1 12.0126 9.06735 6.39998 24
402 1 2.64752 5.67834 -12.7958 19
403 1 -3.77644 0.0029164 7.62444 18
404 1 -14.083 2.7545 3.57688 16
405 1 -8.07927 2.94032 5.71843 21
406 1 -8.20318 -14.3402 11.1093 13
407 1 2.85826 -5.34818 -5.9408 21
408 1 6.09851 -4.9693 -10.6538 19
409 1 -11.224 1.7619 2.52693 18
410 1 -10.1282 2.18334 14.7019 13
411 1 -12.0509 9.00762 5.95261 12
412 1 -0.98559 -4.48329 8.61387 23
413 1 -9.05466 2.06244 -15.5679 11
414 1 7.24061 -8.78353 -6.84705 17
415 1 0.0631593 -4.44003 -11.5929 21
416 1 -2.73503 -7.98126 15.1495 15
417 1 2.3558 -8.30662 -4.29437 22
418 1 -9.58199 5.38901 -14.7376 11
419 1 4.61174 -14.7379 0.894155 17
420 1 8.71057 8.2731 -7.74224 23
421 1 -10.9549 10.2014 8.25816 11
422 1 -3.59469 -2.60084 16.0135 16
423 1 -7.57911 -5.0383 -13.3762 14
424 1 -8.75778 -5.43117 7.12332 22
425 1 12.2005 -4.54832 8.46459 11
426 1 11.9682 1.53825 -2.81821 22
427 1 4.01068 -1.05039 -14.0584 20
428 1 11.8023 -6.75439 2.91474 12
429 1 14.0196 9.17245 -0.65633 14
430 1 -3.08133 3.11125 12.823 20
431 1 4.38587 11.0057 -2.36488 18
432 1 9.46248 -3.44634 9.0879 17
433 1 -5.27104 -10.4967 -4.24791 20
434 1 -2.18955 8.40275 16.5838 12
435 1 -2.15776 15.8064 6.07207 15
436 1 -6.67227 -10.5019 -8.75756 12
437 1 6.71233 13.307 3.41946 17
438 1 2.14685 4.56543 8.75563 21
439 1 -5.52813 2.91886 10.7764 19
440 1 -7.78375 -9.00603 -3.41377 23
441 1 -9.40129 5.44355 13.8131 14
442 1 -5.98539 -7.59291 -8.40093 19
443 1 -9.4049 11.6608 10.1456 11
444 1 -2.3347 -8.05562 -7.25142 22
445 1 1.36849 -9.316 -15.9099 13
446 1 -5.97704 -11.2247 4.91666 20
447 1 -5.66834 -1.92521 7.23021 19
448 1 7.67088 2.90879 9.10469 21
449 1 -5.47769 -7.78225 13.9185 19
450 1 -9.40071 7.92102 -12.127 12
451 1 9.27469 4.92475 0.0887852 19
452 1 -7.30854 -13.7004 3.06721 14
453 1 0.43038 4.04161 -5.99072 23
454 1 -1.07349 16.3409 3.04816 14
455 1 -0.69487 7.20096 -7.55341 19
456 1 -2.70774 8.85134 13.4038 16
457 1 -10.7236 -2.69377 -0.359248 19
458 1 2.35987 14.3091 -8.45303 17
459 1 6.89776 10.8117 -5.68992 20
460 1 -2.20326 -6.81201 -12.6347 19
461 1 1.23471 4.80174 18.177 13
462 1 1.5653 -13.4174 -11.4345 11
463 1 10.3006 -2.19008 -14.8214 18
464 1 7.08033 -12.8405 0.756238 21
465 1 -12.1379 13.5385 4.22814 12
466 1 1.5676 6.39859 14.9497 15
467 1 9.27969 7.83759 -1.83222 17
468 1 4.75815 14.2496 -0.536119 20
469 1 -7.2678 10.2194 -11.2882 12
470 1 3.15191 3.33369 -7.98796 19
471 1 2.88059 -8.34325 5.55305 24
472 1 -14.063 0.864491 1.19928 16
473 1 2.21144 13.543 7.4395 20
474 1 -2.31525 2.51188 -10.7186 21
475 1 7.71826 7.58108 5.43821 19
476 1 5.54109 14.2496 -9.53141 14
477 1 8.63849 -7.31096 2.18686 21
478 1 14.4611 7.79974 1.98076 17
479 1 -0.286954 -1.65843 -9.52499 19
480 1 0.0546526 -10.3802 2.21538 22
481 1 5.01619 -13.046 5.96191 15
482 1 -0.153616 -7.41448 10.117 22
483 1 -7.89902 2.50695 -10.6768 23
484 1 -8.57208 -12.7302 7.36485 20
485 1 -2.64243 -11.5732 -6.02948 21
486 1 8.59967 15.4918 8.10953 11
487 1 2.79629 -0.122397 -9.32793 17
488 1 2.10984 -3.56263 16.187 14
489 1 -8.43372 3.04905 9.29309 22
490 1 -2.47764 -19.1333 -0.779865 10
491 1 -12.3545 -4.76361 2.2781 20
492 1 14.2303 -4.19419 -6.08563 16
493 1 15.5876 1.09879 -3.00156 14
494 1 -4.68566 3.61287 -2.54852 23
495 1 1.59186 -8.09766 -7.73148 20
496 1 2.74231 3.02721 -11.0061 17
497 1 11.0042 0.329433 -5.23345 24
498 1 -3.22117 -2.0717 12.7187 22
499 1 7.24021 15.7217 -0.758924 12
500 1 1.05008 -2.10011 -20.0267 13
501 1 8.81094 1.76397 -18.7685 13
502 1 -6.35832 -5.20181 8.72466 22
503 1 -6.88149 12.3995 4.82864 19
504 1 -3.48485 0.709449 -13.384 19
505 1 -13.8579 3.41745 6.89906 12
506 1 -0.201371 -7.32576 -18.2834 9
507 1 -6.43764 -12.3314 12.6773 14
508 1 0.622616 9.96889 -9.30829 20
509 1 14.5829 3.43383 9.45593 14
510 1 11.4614 3.91604 -1.687 22
511 1 -9.80698 -13.2921 -2.39036 10
512 1 -4.11115 -13.201 -1.56619 23
513 1 -2.2505 -1.33024 -15.4953 22
514 1 -7.85161 16.9159 4.74388 9
515 1 3.06458 -2.85686 -11.0067 20
516 1 15.958 -2.50491 -3.13483 10
517 1 4.2998 9.92734 -5.37163 16
518 1 8.14061 -10.224 4.62802 18
519 1 15.976 7.77076 -9.1446 8
520 1 2.05587 8.37572 16.8065 15
521 1 -9.01421 0.245226 6.89189 21
522 1 7.18904 14.1194 10.8097 15
523 1 7.69382 -1.68659 16.3025 8
524 1 0.173394 1.14481 -20.6187 10
525 1 -5.12658 -4.50595 -4.07394 21
526 1 0.0378917 -2.12307 10.9624 20
527 1 5.0663 12.8817 11.524 20
528 1 5.55942 5.08884 -8.12644 18
529 1 -8.19235 12.0737 -8.29712 14
530 1 0.147533 13.0093 -9.81014 15
531 1 10.6721 -3.2624 15.3864 11
532 1 14.0994 5.27815 -15.9347 7
533 1 7.58279 -8.73808 -3.93939 19
534 1 10.6763 9.49128 13.8363 13
535 1 -14.2294 -2.88402 0.88318 16
536 1 -6.02878 9.8355 -8.4315 19
537 1 -0.883434 0.675149 9.49323 19
538 1 -9.11641 -1.95978 11.807 16
539 1 -5.2198 7.34698 -11.3596 19
540 1 5.00494 -10.0677 -4.9806 18
541 1 5.70274 -1.68386 -8.87269 19
542 1 -3.0027 13.7748 -1.59384 18
543 1 -4.51671 -1.61307 -17.2558 13
544 1 1.54773 -15.1873 2.48003 19
545 1 -12.7665 -4.98028 -0.872334 14
546 1 9.34959 9.72783 -13.9403 12
547 1 -7.6303 2.44876 -0.954462 24
548 1 1.22135 2.7122 13.6206 20
549 1 -11.0949 -7.14872 7.03202 21
550 1 6.33503 6.33702 -1.15075 20
551 1 -0.4195 -10.1581 -7.90117 17
552 1 5.58118 -6.75775 12.5937 11
553 1 9.26221 0.846562 -2.04673 19
554 1 -12.6279 7.1843 3.75284 12
555 1 4.21537 13.3795 16.9341 9
556 1 1.46095 16.6009 -5.6094 17
557 1 12.3302 -5.86779 -4.7074 14
558 1 3.50276 8.37067 12.8589 18
559 1 1.94768 6.64128 -16.2148 12
560 1 -3.14349 -12.8399 12.272 14
561 1 -0.480331 4.18785 -9.28156 20
562 1 13.3729 -1.00681 -14.0473 10
563 1 4.78278 13.8909 5.54288 19
564 1 12.9274 1.88549 -8.63355 16
565 1 0.97882 -1.37109 -13.0212 21
566 1 -2.80202 -11.1347 -2.65499 22
567 1 -10.0418 -4.14089 -5.40636 18
568 1 11.7025 3.027 1.20687 19
569 1 16.8719 6.48141 -3.17885 8
570 1 5.03856 -4.57147 -7.6877 21
571 1 12.5016 6.96773 9.6799 21
572 1 4.75745 -10.0632 -8.42164 14
573 1 5.74526 2.82973 -19.3041 12
574 1 3.86447 11.7441 3.65738 21
575 1 -8.05069 3.18378 2.45959 21
576 1 12.8088 4.71442 14.0955 12
577 1 5.65403 7.2901 -6.74462 19
578 1 11.2311 -0.739166 1.35617 19
579 1 11.6458 6.74947 -14.1696 12
580 1 8.35026 5.94886 10.9946 19
581 1 12.4605 3.11423 11.6524 17
582 1 -0.229939 -7.30018 7.19362 20
583 1 12.7793 11.5038 -2.28751 13
584 1 1.22294 -0.0725992 14.9834 20
585 1 15.8889 2.44832 -8.00226 14
586 1 12.3382 0.767091 9.87815 20
587 1 -7.56164 0.811042 -5.76047 19
588 1 12.771 5.46012 2.12961 21
589 1 10.8521 -3.87035 2.63348 19
590 1 -8.46488 8.48361 8.98624 23
591 1 8.0464 11.0541 12.6711 15
592 1 11.4442 -4.53942 12.2243 12
593 1 2.46357 10.9456 6.07072 21
594 1 2.06764 13.2031 10.6132 24
595 1 4.25044 6.11842 6.76238 20
596 1 -2.22568 -18.7638 2.72965 11
597 1 -3.07739 9.21743 -4.13214 21
598 1 10.6237 11.1979 -7.60614 14
599 1 11.7013 -2.5306 -11.8414 19
600 1 2.51257 13.7991 -1.97056 17
601 1 0.633702 -15.2069 -8.67836 12
602 1 11.1788 -5.30515 -10.4798 15
603 1 -10.9909 3.84579 4.41302 18
604 1 -6.42746 1.40303 -14.087 19
605 1 -1.37224 -14.5687 6.19654 19
606 1 -2.76899 -3.6394 -10.5637 21
607 1 -13.9263 2.32007 -5.47555 13
608 1 13.8559 -2.73555 -0.897039 15
609 1 14.5897 10.9609 7.58141 12
610 1 -3.17081 -8.95676 5.47529 21
611 1 -11.9451 0.308275 -11.1568 12
612 1 2.03401 3.79464 -19.4076 14
613 1 -1.02917 5.31699 13.3205 17
614 1 5.69204 9.57459 -9.21309 21
615 1 13.6096 -3.16107 14.2503 7
616 1 8.87635 5.31784 -6.39611 20
617 1 12.2184 11.6437 4.05322 14
618 1 4.0482 -15.1563 -8.94026 10
619 1 -8.39071 -3.39859 14.3493 16
620 1 13.281 0.98196 6.37044 22
621 1 -1.519 14.2767 11.0944 17
622 1 7.1322 11.1695 -12.1129 16
623 1 -13.3364 10.4699 -4.76027 11
624 1 5.67832 8.91434 -0.0971509 18
625 1 -8.32584 -15.0118 5.47434 14
626 1 14.1807 -4.35826 2.15454 10
627 1 7.56408 15.1948 4.87211 12
628 1 -2.75374 3.52689 9.3823 19
629 1 -12.8084 -7.8777 -2.03835 10
630 1 -5.1678 -5.49406 -11.4201 20
631 1 7.18479 1.20461 14.3618 18
632 1 -2.43586 -7.79317 12.0571 19
633 1 10.7403 4.75266 10.0571 19
634 1 -5.10325 11.805 -0.848536 20
635 1 9.95944 6.08848 3.59205 18
636 1 11.9248 3.47478 4.80054 20
637 1 8.38857 4.21518 -17.7044 13
638 1 -8.80881 -2.54249 8.78364 22
639 1 10.1232 -0.229005 -8.40591 19
640 1 -2.64213 -5.45505 -5.79584 22
641 1 9.77169 -13.3217 -7.95685 11
642 1 9.00115 4.28767 6.30678 19
643 1 5.4563 4.5495 3.81254 22
644 1 -6.90807 -2.1204 17.1386 10
645 1 11.342 11.8695 11.7017 10
646 1 2.9387 -5.99312 14.5124 10
647 1 -5.30187 8.4777 11.0352 20
648 1 -0.164147 -3.94056 -14.6345 22
649 1 -4.7363 0.628939 13.8922 21
650 1 5.32888 3.60754 16.0333 18
651 1 -9.61053 -15.6332 8.49545 12
652 1 14.1981 6.24509 -0.435126 17
653 1 5.68746 -15.3194 -6.38998 14
654 1 -2.37242 6.01083 -5.68604 19
655 1 10.4713 10.4557 -0.250973 19
656 1 9.67515 13.3203 5.949 17
657 1 5.65875 -0.304596 -18.7985 15
658 1 4.64424 12.2966 -7.53974 21
659 1 6.41271 10.1048 2.55142 17
660 1 -8.04884 -8.93117 2.17031 20
661 1 -1.22904 2.79504 -18.1255 20
662 1 -8.1753 12.3273 1.82861 20
663 1 8.37816 -2.9974 -6.83004 21
664 1 8.03016 3.84951 3.39944 21
665 1 13.559 6.5791 -11.2082 17
666 1 8.55136 15.1461 -3.75405 15
667 1 -5.99658 6.53869 2.28703 19
668 1 8.42425 5.71836 -3.13532 20
669 1 7.68006 2.57264 17.351 14
670 1 11.7288 -0.643073 16.0426 7
671 1 -0.662099 -10.3236 12.0361 18
672 1 -6.61649 7.73788 -13.6815 13
673 1 2.94632 7.75616 9.30008 18
674 1 13.4513 -7.60765 -7.70786 11
675 1 3.20588 3.09352 11.1945 20
676 1 7.87275 13.9612 -6.88056 14
677 1 8.56708 9.98856 7.18077 20
678 1 14.5601 -5.43373 -2.72826 10
679 1 5.8166 9.42811 17.9262 11
680 1 -10.9958 -4.35826 4.99691 19
681 1 2.65213 -11.7322 2.97893 17
682 1 2.26949 -2.52953 -7.64596 19
683 1 -8.41282 16.5782 -0.507287 9
684 1 1.99783 5.69542 4.29901 21
685 1 5.28798 -7.65015 -2.3942 19
686 1 6.12145 10.8591 5.44287 21
687 1 -14.0202 -2.39452 4.39869 17
688 1 0.502305 8.68619 14.0031 21
689 1 -4.42979 6.11393 -14.795 17
690 1 -4.17627 3.6487 -13.3904 16
691 1 1.80636 -15.0706 -2.29007 19
692 1 7.43842 8.29704 -11.1689 21
693 1 5.02185 -5.17542 5.43922 24
694 1 -0.296301 6.85981 2.70079 19
695 1 -8.69995 3.12861 12.2848 17
696 1 5.84631 0.933871 -15.5131 21
697 1 4.49163 -10.194 12.3669 8
698 1 2.54493 14.4814 1.71236 21
699 1 -4.00731 2.4696 16.6631 13
700 1 -8.69383 -8.0336 -13.8213 8
701 1 -1.95164 -6.38712 -15.678 22
702 1 -5.67796 -13.2747 -6.59341 11
703 1 -3.67448 15.775 -7.17757 9
704 1 5.55861 -4.56638 -4.34814 19
705 1 -3.78966 12.7153 6.95152 19
706 1 5.93985 -8.15836 -12.4244 18
707 1 8.73948 -15.181 1.395 11
708 1 3.08904 -7.97137 9.29827 20
709 1 14.1376 5.31906 -8.49684 14
710 1 4.52327 -13.9608 -1.52374 20
711 1 -11.7376 -4.83766 8.34869 21
712 1 -1.35305 -13.8701 0.82542 21
713 1 -5.37438 -7.3882 -5.47276 23
714 1 -10.0118 0.658272 10.141 19
715 1 -3.98913 -15.8108 0.129548 18
716 1 12.1396 6.4235 -2.69237 17
717 1 -6.48507 14.3382 6.70008 18
718 1 -5.83263 4.44164 7.77554 18
719 1 -12.2366 8.12798 0.128244 21
720 1 10.3154 1.12515 4.13663 19
721 1 -10.4845 -4.4952 -8.58142 16
722 1 2.85737 8.13025 -4.01672 22
723 1 9.91337 3.71659 -10.0699 17
724 1 8.06974 10.157 15.877 15
725 1 9.11907 2.91966 -3.94822 20
726 1 -10.2291 5.20907 -4.66765 19
727 1 -11.0231 -6.77323 -7.2555 10
728 1 1.32993 13.2174 15.1531 13
729 1 6.92133 3.53643 -11.3212 21
730 1 11.9757 13.5757 7.34069 10
731 1 -3.88674 0.256879 11.0232 19
732 1 0.142394 -13.9803 -5.73766 16
733 1 -6.95721 -16.2013 8.07271 11
734 1 -5.6829 -8.43535 10.7278 20
735 1 13.3262 7.51727 13.1118 12
736 1 2.40979 -8.6166 -11.0281 19
737 1 -5.05637 6.8709 -1.1782 21
738 1 4.32706 7.80547 4.52998 21
739 1 -8.44889 -8.43677 5.63212 18
740 1 12.0666 8.89923 -12.0956 12
741 1 2.75891 -15.595 -6.17615 14
742 1 -0.646265 -17.3464 1.0653 21
743 1 3.9762 -13.5456 -4.44119 20
744 1 9.37337 5.44687 -12.6001 18
745 1 6.10331 17.6078 -2.98629 12
746 1 0.64729 3.28201 -16.3508 20
747 1 -0.331052 -2.47427 14.1821 21
748 1 0.427963 3.91689 -12.8239 24
749 1 -11.2705 2.94569 -9.19726 17
750 1 -10.0985 -2.68755 -3.025 20
751 1 -0.507706 14.6639 -6.46298 21
752 1 7.8901 -4.70212 0.836169 18
753 1 0.111585 -3.57869 -17.8585 18
754 1 -5.03392 -7.68053 0.700488 20
755 1 11.6643 7.85725 -6.58364 18
756 1 11.0544 -4.75194 -2.09814 13
757 1 -5.55584 9.39296 14.5058 13
758 1 8.64741 -8.82929 7.71547 10
759 1 15.325 -1.86803 -6.60641 17
760 1 11.6959 -1.42118 7.9085 18
761 1 -1.2661 11.1483 6.55301 19
762 1 -8.40485 -0.158903 14.2976 18
763 1 -7.73398 8.3526 12.5374 17
764 1 -0.136593 -14.3362 10.7133 14
765 1 7.85788 1.58378 5.1264 19
766 1 5.88495 9.61722 13.9303 20
767 1 -15.9058 -0.369867 3.08406 10
768 1 8.98565 -6.59302 -1.95379 17
769 1 -10.7024 11.0856 -5.59909 15
770 1 2.49871 8.93449 2.23504 21
771 1 1.9665 -14.9991 5.91148 16
772 1 2.67719 2.06067 16.4659 16
773 1 -0.653129 14.1509 7.83874 22
774 1 0.909167 -9.65859 7.71453 15
775 1 -5.03867 -4.63283 -0.957647 22
776 1 4.02901 0.894128 14.0283 23
777 1 -10.8454 0.106561 -0.357749 18
778 1 -1.8775 11.2606 15.1013 12
779 1 4.10072 17.2811 -0.0251203 14
780 1 -12.7889 -9.93533 7.86212 15
781 1 -2.74596 -17.1057 5.65964 13
782 1 11.1148 -5.27718 5.50174 17
783 1 12.906 -2.27233 10.8876 13
784 1 5.0942 8.82386 7.22895 21
785 1 0.593484 6.39311 -4.37514 18
786 1 5.23684 -7.48516 -9.70601 17
787 1 -3.3344 -0.311302 -9.49875 22
788 1 -5.87588 -2.96565 10.3232 19
789 1 -3.08756 17.0629 1.53175 14
790 1 15.8167 0.890744 4.58947 12
791 1 3.00176 8.83881 -7.80031 20
792 1 -3.81823 12.3371 12.8165 12
793 1 7.23379 9.18377 10.0454 17
794 1 8.48651 -6.55404 -11.8797 19
795 1 -4.40392 -13.6151 2.30166 21
796 1 -4.53153 -1.43727 -6.04451 21
797 1 15.9443 -2.67111 4.53856 11
798 1 2.09814 1.46569 -14.2867 22
799 1 -2.27328 5.15347 18.1102 10
800 1 10.197 -8.1772 -9.10296 19
801 1 7.84375 7.13841 -15.3765 13
802 1 -2.60784 -8.79109 -4.07531 21
803 1 11.6991 2.59504 -17.9395 10
804 1 13.4961 0.908996 -0.503873 16
805 1 1.45966 -5.00599 10.4627 17
806 1 3.44202 -5.64773 -12.0825 22
807 1 9.71056 13.1388 -1.79513 17
808 1 0.385394 -7.57087 4.09105 19
809 1 -11.5545 11.3959 1.44981 16
810 1 13.9688 1.28678 -5.17504 18
811 1 16.2422 6.62957 5.25497 13
812 1 4.00075 -3.9335 -18.3695 10
813 1 -9.66129 10.9704 4.31016 19
814 1 14.793 8.11859 7.25945 15
815 1 11.4242 13.5736 -4.97383 11
816 1 7.04412 3.51058 -14.5347 20
817 1 11.1097 -1.58256 -1.95912 19
818 1 -10.0291 2.36512 -2.9831 19
819 1 9.62237 10.1184 4.14694 19
820 1 -10.4095 -8.42123 0.443731 19
821 1 -7.40793 6.00189 -9.63395 20
822 1 7.65005 6.11182 8.35149 20
823 1 -11.6699 -1.294 -9.02019 13
824 1 -11.473 8.41611 11.3973 9
825 1 -4.82025 3.81585 -9.33667 19
826 1 8.88788 -2.59676 -9.56943 20
827 1 -8.55787 -8.44395 -6.17911 19
828 1 11.16 -2.91502 -5.09797 20
829 1 -13.7512 9.89191 2.90737 12
830 1 -5.34622 -7.11225 -2.58825 22
831 1 10.3375 8.56718 9.95515 23
832 1 -2.62656 -11.7545 6.70693 18
833 1 5.14519 0.676024 16.4346 15
834 1 14.1531 -2.2433 7.46216 16
835 1 8.57386 -1.11214 2.82704 21
836 1 -9.78014 4.06956 -0.568792 17
837 1 2.64553 10.9445 12.5093 18
838 1 3.6065 8.56848 -11.2494 22
839 1 1.92026 -6.13115 -16.3417 16
840 1 -4.07159 11.3089 10.1609 17
841 1 -8.57519 -7.39006 9.1905 21
842 1 9.20626 11.4897 -3.72361 19
843 1 0.167623 9.75796 8.43438 18
844 1 16.5967 -0.678358 -9.55147 10
845 1 7.37802 -5.29291 10.8773 16
846 1 -3.21181 8.97799 -13.3099 15
847 1 3.67657 11.7157 -10.6969 22
848 1 -6.52319 0.812114 8.53618 20
849 1 16.5995 5.29242 8.25686 9
850 1 -3.41672 -3.63043 -13.8338 21
851 1 13.1482 11.1006 1.2609 14
852 1 -14.8049 6.10613 1.85164 11
853 1 -2.11973 -11.5466 9.52407 18
854 1 4.79177 13.1605 -13.2533 12
855 1 6.11714 -3.52718 7.49211 21
856 1 -1.49476 -15.39 -1.6919 22
857 1 -5.71888 14.7924 0.640115 16
858 1 -15.8848 9.53538 -2.76415 8
859 1 9.29423 2.53285 -12.4725 18
860 1 0.736118 -11.5502 -13.3255 14
861 1 -9.10535 8.49291 2.00453 22
862 1 14.0018 8.55863 -3.73942 13
863 1 -6.10016 0.851557 5.27058 19
864 1 9.82742 -0.643857 -11.9385 18
865 1 -4.9988 -9.7351 -14.4589 8
866 1 2.55043 -11.5224 -2.82248 19
867 1 -0.860682 11.8697 11.0471 13
868 1 9.29473 -15.0395 -1.39212 10
869 1 -0.318077 6.4085 -13.9141 17
870 1 15.0136 6.86787 -5.74163 11
871 1 7.21967 12.3449 -0.937625 17
872 1 0.857375 -17.8751 -1.77662 12
873 1 3.08982 -1.40986 -17.7369 17
874 1 11.9555 4.11498 -5.20689 19