ITEM: TIMESTEP
5000
ITEM: NUMBER OF ATOMS
2000
ITEM: BOX BOUNDS pp pp pp
-49.2 49.2
-51.21 51.21
-47.7 47.7
ITEM: ATOMS id type x y z Coordination
1 2 -17.2511 3.16184 -5.09118 8
2 1 -3.0907 -17.2669 -5.08235 12
3 2 -2.74214 -17.3797 -3.18552 12
4 1 -3.11037 -17.5841 0.614561 13
5 2 -3.48325 -17.1144 2.30026 13
6 1 0.22061 -17.2673 -6.25578 13
7 1 0.8503 -19.4177 -4.27148 7
8 2 0.665779 -18.2977 -2.75391 12
9 2 1.53652 -16.424 -4.72986 15
10 1 -0.275883 -17.2817 0.257581 18
11 1 0.963157 -16.5726 6.37234 12
12 1 3.34132 -17.3017 0.53867 11
13 2 -0.498596 -17.2517 2.04271 15
14 2 3.40214 -17.0477 2.50469 13
15 2 -5.14704 -4.14954 -16.0209 13
16 2 -6.56036 -2.00151 -16.3555 11
17 2 -1.74812 -4.75213 -15.7577 12
18 2 -3.21774 -1.73976 -16.4976 15
19 2 -4.74222 1.07664 -16.1496 14
20 2 -7.36632 3.67478 -15.9452 12
21 2 -1.38736 0.946189 -16.4119 13
22 2 -4.51971 4.51601 -16.054 11
23 2 -1.46224 5.2378 -16.6391 10
24 2 0.00333796 -10.2133 -14.6574 10
25 2 1.74633 -4.45744 -15.2814 15
26 2 -0.13085 -1.99258 -15.5593 17
27 2 5.77524 -4.18198 -15.1755 13
28 2 3.68928 -1.5018 -15.1347 18
29 2 6.85467 -1.53975 -15.9308 10
30 2 1.0169 0.951356 -15.7685 15
31 2 1.69577 3.99614 -17.0665 13
32 2 1.7125 6.91686 -15.9421 14
33 2 3.6657 1.47132 -16.1867 15
34 2 4.43235 4.66645 -16.2948 14
35 2 7.03294 2.20193 -16.2706 10
36 1 -17.6994 -4.15665 -4.35224 9
37 1 -16.0651 -7.1127 -4.23736 12
38 1 -13.8728 -5.32411 -9.69695 13
39 1 -15.9831 -5.40098 -7.16538 13
40 1 -15.6879 -2.70196 -9.19302 9
41 1 -16.2371 1.53299 -4.30082 14
42 1 -15.306 -2.0926 -5.40051 19
43 1 -15.3856 -4.6149 -2.34085 15
44 1 -16.8572 -1.43785 -2.51653 13
45 1 -13.8291 -9.84476 -4.63068 11
46 1 -10.9548 -6.81384 -9.53682 14
47 1 -10.4063 -10.8475 -10.8692 9
48 1 -11.5377 -10.2959 -6.94867 16
49 1 -13.8375 -7.36955 -7.19184 15
50 1 -13.7094 -5.4714 -4.58659 21
51 1 -11.6545 -8.58334 -4.80816 19
52 1 -12.0881 -10.5843 -2.30004 14
53 1 -14.235 -8.57432 -1.56426 12
54 1 -11.9723 -5.77253 -12.802 8
55 1 -13.3951 0.66119 -10.504 13
56 1 -11.8181 -2.99742 -11.3045 13
57 1 -11.5639 -4.8703 -7.09606 19
58 1 -13.025 -2.27414 -7.82075 18
59 1 -13.5039 0.240432 -5.16943 22
60 1 -11.5005 -2.59051 -4.76674 20
61 1 -12.2714 -6.41176 -2.33623 19
62 1 -13.4452 -1.7148 -2.73471 19
63 1 -11.1353 -13.1311 -7.34559 8
64 1 -10.1137 -11.02 -4.30626 20
65 1 -8.92629 -13.7881 -5.34163 14
66 1 -10.2649 -13.7981 -2.09291 11
67 1 -8.95194 -7.66999 -11.3643 18
68 1 -8.19544 -8.72013 -9.23219 21
69 1 -9.76519 -10.1561 -13.8253 5
70 1 -8.79574 -11.6008 -7.84587 19
71 1 -9.33801 -7.35345 -7.00552 19
72 1 -10.0607 -5.67099 -4.39719 23
73 1 -8.05463 -9.26543 -5.39058 19
74 1 -7.80146 -10.5109 -1.9892 22
75 1 -9.65134 -7.83383 -2.39399 20
76 1 -8.17803 -1.73683 -15.4165 12
77 1 -8.97383 -5.08127 -12.8571 18
78 1 -9.72262 -2.16447 -13.0023 17
79 1 -9.89937 0.0829937 -10.3522 22
80 1 -8.33572 -3.06555 -10.3322 21
81 1 -8.27856 -5.10982 -7.57294 22
82 1 -9.90426 -2.19009 -7.78051 20
83 1 -9.52654 -0.159112 -5.05611 20
84 1 -8.26252 -3.03098 -4.91327 21
85 1 -8.16769 -4.84505 -2.25183 21
86 1 -9.91342 -1.78361 -2.29755 23
87 1 -6.4576 -12.117 -9.91374 13
88 1 -7.17244 -14.5757 -7.68063 10
89 1 -6.49008 -11.8677 -5.26801 22
90 1 -5.34006 -14.9289 -5.03862 18
91 1 -3.70783 -16.2377 -2.13219 15
92 1 -6.95374 -13.766 -2.1539 18
93 1 -7.09525 -4.29908 -15.3247 11
94 1 -4.84011 -11.0838 -13.6078 9
95 1 -6.88164 -7.64553 -13.0979 15
96 1 -6.55602 -5.75364 -10.1748 23
97 1 -5.28509 -8.82972 -10.5778 21
98 1 -4.80008 -10.5803 -7.78015 22
99 1 -6.01975 -7.50133 -7.33213 23
100 1 -6.55208 -6.25532 -4.94915 25
101 1 -4.7532 -9.01601 -4.56573 24
102 1 -4.92434 -10.6399 -2.2019 23
103 1 -6.66119 -8.05471 -2.22529 24
104 1 -6.32762 0.035096 -16.3044 13
105 1 -4.76546 -2.45278 -17.1304 10
106 1 -5.12282 -4.73752 -12.6857 22
107 1 -6.63998 -1.92355 -12.6507 23
108 1 -6.59785 -0.226855 -9.96424 23
109 1 -4.94926 -2.90649 -10.0119 23
110 1 -5.24245 -4.56038 -7.40646 22
111 1 -6.75978 -1.89463 -7.67243 22
112 1 -6.9072 0.137011 -4.85912 23
113 1 -5.0249 -3.02184 -4.81732 24
114 1 -5.16439 -4.90152 -2.67561 21
115 1 -6.4453 -1.7058 -2.31064 22
116 1 -3.30414 -11.4928 -11.0248 20
117 1 -1.977 -15.0712 -10.3856 10
118 1 -3.15612 -16.5677 -7.48043 10
119 1 -3.99662 -13.5128 -7.96364 18
120 1 -3.12067 -11.8917 -5.46623 19
121 1 -1.73189 -14.2794 -4.9999 22
122 1 -1.29802 -18.6333 -2.49104 9
123 1 -3.85497 -13.2688 -2.48409 21
124 1 -3.60675 -5.24772 -15.634 14
125 1 -1.91607 -9.89973 -13.9384 15
126 1 -1.63317 -12.7958 -12.9201 12
127 1 -4.1171 -7.6143 -12.9863 18
128 1 -3.51226 -6.00899 -9.79393 25
129 1 -1.87762 -8.57177 -10.4087 18
130 1 -1.8159 -10.7014 -7.73036 21
131 1 -3.48157 -7.91708 -7.2513 24
132 1 -3.50632 -5.81989 -5.12453 22
133 1 -1.72011 -8.54058 -4.74853 24
134 1 -1.91305 -10.7122 -2.25065 23
135 1 -3.36365 -7.75787 -2.17736 25
136 1 -3.03835 0.243812 -15.8102 15
137 1 -1.76678 -2.66524 -15.4335 18
138 1 -1.93878 -4.85987 -12.7784 23
139 1 -3.29742 -1.9594 -12.5793 23
140 1 -3.25647 0.0667921 -9.8096 23
141 1 -1.35402 -2.90165 -10.161 23
142 1 -1.84753 -4.87168 -7.52827 21
143 1 -3.28982 -2.22731 -7.37253 21
144 1 -3.29832 -0.437916 -4.98533 23
145 1 -1.50395 -2.94092 -4.7995 24
146 1 -1.72576 -4.89435 -2.38137 22
147 1 -3.49501 -1.91193 -2.05238 23
148 2 -17.1538 -6.10123 1.62124 11
149 2 -16.8564 -5.65388 -3.41245 11
150 2 -14.6806 -8.49369 -3.65411 15
151 2 -17.4124 -4.69849 -6.07696 8
152 2 -15.099 -1.67193 -7.60608 14
153 2 -15.3936 -4.51408 -8.87068 11
154 2 -16.0591 -4.4339 -0.531439 14
155 2 -16.3057 0.0578622 -1.3614 13
156 2 -16.075 -0.616668 -4.39414 15
157 2 -16.0635 -3.12482 -3.78366 12
158 2 -12.034 -10.4514 -4.2609 13
159 2 -13.0509 -9.02577 -6.1914 13
160 2 -14.6792 -6.15112 -6.06989 14
161 2 -12.7816 -6.72258 -8.58688 14
162 2 -10.0189 -8.58299 -9.72498 16
163 2 -11.8383 -10.3602 -0.13654 15
164 2 -13.1698 -7.40193 -0.439093 17
165 2 -13.8064 -5.5446 -2.53209 20
166 2 -12.1014 -8.50136 -2.59235 22
167 2 -12.807 -5.38416 -11.2095 9
168 2 -12.7695 -2.8796 -9.5806 15
169 2 -10.8889 -3.97674 -12.9165 12
170 2 -11.6777 -5.82498 -5.53253 18
171 2 -13.3848 -1.87753 -4.71916 17
172 2 -12.5493 -0.297299 -7.84898 17
173 2 -11.4199 -2.91539 -6.94443 17
174 2 -11.9407 -4.85893 0.137583 19
175 2 -13.3198 -2.05749 -0.564928 21
176 2 -13.4822 0.30062 -3.09675 22
177 2 -11.7457 -2.67757 -2.70493 19
178 2 -9.03243 -13.4814 -7.33091 12
179 2 -10.7068 -12.4931 -5.64415 12
180 2 -10.0427 -13.4867 -0.154174 12
181 2 -10.6107 -11.8856 -2.25463 15
182 2 -8.63832 -13.999 -3.37711 15
183 2 -10.8178 -11.4946 -8.23239 11
184 2 -10.9378 -10.7448 -12.6697 5
185 2 -10.3603 -6.37697 -12.0003 14
186 2 -8.62376 -8.65118 -13.0033 12
187 2 -8.44589 -11.2367 -5.41192 21
188 2 -10.0263 -7.9033 -5.43832 21
189 2 -9.81798 -5.92407 -8.30717 21
190 2 -8.08231 -8.60342 -7.26399 19
191 2 -8.39303 -10.6823 -0.174755 22
192 2 -9.81965 -7.5799 -0.392883 22
193 2 -10.4059 -6.09615 -2.62586 22
194 2 -8.24811 -8.88941 -3.11145 23
195 2 -8.06861 -4.88499 -10.9754 22
196 2 -10.0236 -1.83784 -10.9534 20
197 2 -10.0645 -0.348906 -13.2504 16
198 2 -8.25666 -3.28329 -13.9904 18
199 2 -8.35491 -5.1977 -5.65997 23
200 2 -9.63476 -1.93432 -5.25185 20
201 2 -9.74943 -0.270444 -8.55459 21
202 2 -8.08431 -3.22728 -8.30554 21
203 2 -8.07074 -4.6134 -0.220552 22
204 2 -10.1445 -1.68643 -0.0824098 24
205 2 -9.81295 0.111182 -3.10806 24
206 2 -8.03894 -3.05148 -2.64443 21
207 2 -4.58905 -16.8889 -5.90054 12
208 2 -6.94385 -14.3362 -5.74251 14
209 2 -7.91857 -10.7319 -9.63379 15
210 2 -5.94678 -13.0691 -8.51943 16
211 2 -3.91143 -16.1626 -0.228093 16
212 2 -6.9449 -13.793 -0.214928 20
213 2 -6.31831 -11.9352 -2.45035 20
214 2 -5.17467 -15.1466 -3.02569 16
215 2 -5.40435 -10.8087 -10.5284 16
216 2 -6.8319 -7.60678 -11.0026 22
217 2 -6.74714 -5.51613 -13.252 19
218 2 -5.11853 -9.06915 -13.3256 14
219 2 -5.07694 -10.6033 -5.79882 22
220 2 -6.34527 -8.02527 -5.37043 23
221 2 -6.58638 -5.73922 -8.22536 24
222 2 -5.13482 -8.74945 -8.44565 23
223 2 -5.04065 -10.6606 -0.337668 23
224 2 -6.79484 -7.81927 -0.216373 23
225 2 -6.90057 -6.17206 -2.82004 21
226 2 -4.93671 -8.78008 -2.6386 22
227 2 -4.7001 -4.87395 -10.5059 22
228 2 -6.71779 -2.17851 -10.5568 22
229 2 -6.4498 -0.175935 -13.1627 19
230 2 -4.91162 -2.83755 -12.6389 17
231 2 -5.42598 -4.83185 -5.1177 21
232 2 -6.59804 -2.01047 -5.38254 21
233 2 -6.6674 0.290218 -7.98688 21
234 2 -5.06643 -2.59428 -7.91737 21
235 2 -5.14022 -5.15557 -0.448504 22
236 2 -6.92489 -1.55603 -0.210397 21
237 2 -6.55928 0.0531795 -2.83547 24
238 2 -4.93185 -3.0419 -2.75651 23
239 2 -2.43128 -13.4873 -11.2781 11
240 2 -3.19796 -11.4704 -13.1093 12
241 2 -1.3958 -15.951 -5.95939 14
242 2 -3.61964 -13.933 -5.8862 20
243 2 -3.27872 -11.8376 -7.91499 20
244 2 -3.05917 -15.1352 -8.8346 11
245 2 -1.7426 -17.8511 -0.594112 12
246 2 -3.61063 -13.3927 -0.475516 23
247 2 -3.25924 -11.4677 -3.08446 22
248 2 -2.2543 -14.4716 -2.77103 21
249 2 -1.82546 -10.5201 -10.0522 19
250 2 -3.72804 -7.61152 -10.9503 24
251 2 -3.43256 -5.7975 -13.5718 20
252 2 -2.19522 -8.13036 -13.6356 16
253 2 -1.55256 -10.9307 -5.64496 24
254 2 -3.33133 -7.89836 -5.36415 22
255 2 -3.7853 -5.87136 -7.37657 23
256 2 -1.72795 -8.44876 -8.00433 21
257 2 -1.82871 -10.7728 -0.106405 23
258 2 -3.40094 -7.83637 -0.172485 23
259 2 -3.35314 -6.07229 -3.07166 24
260 2 -1.55931 -8.74193 -2.83003 23
261 2 -1.87208 -4.81122 -10.1812 20
262 2 -3.08631 -1.79144 -10.4858 21
263 2 -3.41987 0.341032 -13.5505 20
264 2 -1.84385 -2.95391 -13.4326 20
265 2 -1.81219 -5.03161 -5.59346 23
266 2 -3.28696 -2.47992 -5.3372 21
267 2 -3.38766 -0.0894322 -7.53672 19
268 2 -1.46259 -3.07208 -8.09432 21
269 2 -1.57985 -4.74975 -0.399672 22
270 2 -3.62285 -2.19732 -0.0181484 20
271 2 -3.47096 -0.194269 -3.14216 24
272 2 -1.67525 -3.01304 -2.8478 23
273 1 -17.6313 -4.68521 0.445685 10
274 1 -17.1087 -7.75786 2.31615 7
275 1 -14.5093 -9.90775 4.01754 10
276 1 -16.8833 0.641234 0.423533 15
277 1 -14.9192 -2.78804 0.114578 22
278 1 -15.6598 -4.84011 2.76856 16
279 1 -17.2308 -1.968 2.9105 12
280 1 -17.7257 0.676166 3.90728 11
281 1 -15.2934 -1.3649 5.60075 16
282 1 -15.5134 -4.41032 6.05897 10
283 1 -12.5447 -10.372 1.71414 16
284 1 -13.8346 -5.76509 0.18309 20
285 1 -11.6655 -8.24494 -0.00156543 20
286 1 -11.6727 -12.5813 3.82673 14
287 1 -14.2056 -7.57996 2.45478 16
288 1 -13.1182 -6.09305 4.19623 17
289 1 -11.7818 -8.90287 3.94367 18
290 1 -10.1328 -11.1541 6.21687 14
291 1 -10.6546 -7.83782 6.85702 15
292 1 -12.152 -4.82154 12.5112 9
293 1 -10.4252 -7.46224 13.0159 11
294 1 -12.1582 -0.643285 0.548597 24
295 1 -11.644 -3.00601 -0.70201 19
296 1 -11.917 -4.28255 2.04955 23
297 1 -13.2729 -1.93247 3.39635 21
298 1 -12.9052 0.0289103 5.83275 21
299 1 -11.6202 -3.09354 5.60372 19
300 1 -11.9474 -5.28282 7.51761 15
301 1 -14.334 -1.76129 8.20899 14
302 1 -13.897 -0.384289 11.1393 10
303 1 -12.2662 -3.48381 9.59259 13
304 1 -10.2452 -11.6233 0.354588 17
305 1 -9.01959 -14.1981 1.04609 14
306 1 -9.76343 -15.4841 4.33399 9
307 1 -9.18703 -13.8587 6.42189 15
308 1 -7.26135 -17.0522 6.15728 7
309 1 -10.2376 -5.41412 -0.168195 19
310 1 -8.39625 -8.73445 0.493674 24
311 1 -8.93859 -11.0366 2.86918 21
312 1 -9.98334 -7.48221 2.58666 21
313 1 -9.7377 -5.49159 5.45717 22
314 1 -8.29666 -8.52134 4.78903 18
315 1 -8.69331 -11.4579 8.97031 13
316 1 -9.39949 -6.80578 9.58276 18
317 1 -11.9806 -7.39108 9.97959 13
318 1 -9.61249 -9.59651 11.4576 10
319 1 -9.27745 -0.0252332 0.428311 23
320 1 -8.48952 -2.73209 0.114735 21
321 1 -8.30923 -4.56652 3.05918 23
322 1 -10.2226 -1.8554 2.90937 19
323 1 -9.70601 -0.234216 5.74667 23
324 1 -8.25805 -2.67681 5.55682 22
325 1 -8.2368 -4.65636 7.97388 21
326 1 -9.89042 -1.82728 8.43453 23
327 1 -10.2638 0.26706 10.5103 18
328 1 -8.21614 -3.16561 10.6483 19
329 1 -9.19705 -4.31072 13.2601 11
330 1 -10.0388 -1.62744 12.1332 19
331 1 -6.68411 -11.8833 0.249738 22
332 1 -5.09122 -14.9238 0.298415 17
333 1 -5.12034 -16.2982 3.29128 15
334 1 -7.08489 -13.3813 3.22109 21
335 1 -6.92983 -11.5181 6.01967 21
336 1 -5.20505 -14.574 5.94967 16
337 1 -6.22477 -13.4591 8.81542 15
338 1 -6.5702 -11.0801 11.3436 16
339 1 -6.76184 -5.82606 0.313845 22
340 1 -5.18065 -8.87868 0.249024 24
341 1 -5.29623 -10.8118 3.16346 24
342 1 -6.51701 -7.5417 2.96483 21
343 1 -6.50806 -5.80724 5.48449 20
344 1 -4.99536 -8.63666 5.85798 22
345 1 -5.13536 -10.487 8.24181 22
346 1 -6.75611 -7.64425 8.24107 19
347 1 -6.91544 -5.56338 10.9327 20
348 1 -5.2567 -8.19026 11.3627 21
349 1 -4.18552 -9.70316 14.4707 10
350 1 -7.02624 -8.10804 13.2144 13
351 1 -6.66151 0.229024 0.182091 23
352 1 -5.52748 -2.90391 0.38898 22
353 1 -5.24198 -4.79807 2.85193 20
354 1 -6.94853 -1.59654 3.10819 22
355 1 -6.75799 0.24107 5.76913 25
356 1 -5.18544 -3.05525 5.62451 21
357 1 -4.74053 -4.86571 8.30377 21
358 1 -6.48665 -1.7516 8.11762 21
359 1 -7.03623 -0.268496 11.2183 24
360 1 -5.19299 -2.65754 10.9375 20
361 1 -5.04598 -5.06162 13.6149 18
362 1 -6.6579 -2.04705 13.7987 19
363 1 -3.55995 -11.5486 0.321397 22
364 1 -2.13171 -14.5296 0.503541 23
365 1 -1.47906 -16.1758 3.55449 18
366 1 -3.67733 -13.6885 3.41413 22
367 1 -3.54998 -12.0167 5.75594 22
368 1 -1.70331 -14.5751 5.98247 18
369 1 -4.67435 -13.3268 12.0388 10
370 1 -3.40329 -11.1169 11.0358 19
371 1 -3.06075 -14.0443 8.97778 16
372 1 -3.36076 -5.95057 0.271124 23
373 1 -1.54556 -8.82201 0.299444 20
374 1 -1.81375 -10.7436 3.05501 23
375 1 -3.53028 -7.78046 2.83425 22
376 1 -3.29057 -5.90971 5.45823 21
377 1 -1.83805 -8.6227 5.80002 24
378 1 -1.45553 -10.8168 8.57218 24
379 1 -3.38866 -7.96941 8.39859 23
380 1 -3.50399 -5.66682 11.0784 21
381 1 -1.67806 -8.61637 10.736 16
382 1 -1.84326 -11.5365 13.5749 11
383 1 -1.94478 -8.96595 15.905 8
384 1 -3.14845 -0.176099 0.396366 22
385 1 -1.83929 -3.03542 0.377069 21
386 1 -1.83776 -4.69273 2.73708 19
387 1 -3.39183 -1.84361 2.7279 19
388 1 -3.17598 0.0505529 5.63997 23
389 1 -1.54049 -3.06909 5.73011 24
390 1 -1.41362 -5.2943 8.50682 21
391 1 -2.9229 -1.94289 8.13946 22
392 1 -3.66948 0.139903 11.3572 24
393 1 -1.61592 -2.87311 10.7048 20
394 1 -1.3282 -4.97011 13.4125 21
395 1 -3.18286 -2.1421 13.4486 23
396 2 -17.3943 -3.19772 1.39764 9
397 2 -15.6972 -9.003 2.78437 9
398 2 -14.7647 -5.13806 4.63514 16
399 2 -16.9182 -0.953501 4.82687 11
400 2 -17.176 -0.175557 2.14379 11
401 2 -14.7771 -3.05962 2.09298 21
402 2 -15.6659 -2.65188 6.9309 8
403 2 -13.0502 -11.1365 3.45473 12
404 2 -10.1189 -13.0306 4.96231 15
405 2 -13.2875 -7.98567 4.48433 16
406 2 -13.9722 -5.63754 2.19083 19
407 2 -12.3403 -8.54912 2.09895 19
408 2 -12.069 -7.35643 8.06097 13
409 2 -10.8359 -9.71329 5.25252 20
410 2 -11.7686 -5.44429 5.58822 16
411 2 -13.3719 -1.92672 5.45189 19
412 2 -13.1236 -0.598675 2.3059 19
413 2 -11.5903 -3.14387 3.25889 21
414 2 -12.0547 -5.23269 10.4327 14
415 2 -13.4301 -2.0711 10.1133 16
416 2 -13.193 -0.0680617 7.6992 22
417 2 -11.6584 -2.80074 7.88272 19
418 2 -10.8355 -3.29368 12.8043 11
419 2 -9.17516 -15.8699 6.14709 8
420 2 -10.7696 -11.3035 2.31524 20
421 2 -8.56918 -14.7279 2.94186 15
422 2 -9.30829 -12.5107 7.66282 12
423 2 -8.41138 -10.7189 5.13673 20
424 2 -10.1292 -7.43466 4.57332 20
425 2 -10.0741 -5.63947 1.91425 21
426 2 -8.11688 -8.55473 2.60852 21
427 2 -8.23863 -10.5107 10.6451 14
428 2 -10.3425 -7.97974 10.7124 12
429 2 -10.1164 -5.00698 7.46138 20
430 2 -9.18285 -7.87914 8.19031 22
431 2 -10.7491 -5.72057 13.2964 10
432 2 -8.81232 -8.35849 12.9077 13
433 2 -7.73415 -4.47533 5.06458 20
434 2 -9.76068 -1.91273 4.75692 24
435 2 -10.1123 0.140125 2.2629 24
436 2 -8.4785 -2.7704 2.37675 22
437 2 -8.46796 -5.09547 9.81994 19
438 2 -9.78647 -1.69974 10.2231 20
439 2 -9.70054 0.0455728 7.6988 23
440 2 -8.27463 -2.43788 7.55797 23
441 2 -9.84374 0.299367 12.4297 15
442 2 -8.18917 -2.75063 12.6031 18
443 2 -5.83717 -16.4891 5.04137 12
444 2 -6.75441 -13.5899 5.39019 23
445 2 -7.16138 -11.6932 2.18916 21
446 2 -5.37417 -14.4245 2.6305 20
447 2 -5.80352 -13.363 10.5237 13
448 2 -6.68572 -11.8448 8.18335 18
449 2 -4.56259 -14.3859 7.77522 14
450 2 -5.07108 -10.9503 5.05726 21
451 2 -6.63662 -7.71362 5.30892 22
452 2 -6.86735 -5.75589 2.31816 22
453 2 -4.95438 -8.88713 2.17212 23
454 2 -5.17139 -10.1398 10.4155 21
455 2 -6.2967 -7.27643 10.1787 22
456 2 -6.60823 -5.74429 7.43219 23
457 2 -5.3108 -8.49772 7.64606 22
458 2 -6.9206 -6.04051 13.0652 18
459 2 -5.57639 -9.10471 13.3984 13
460 2 -4.93446 -4.83374 4.73689 24
461 2 -6.76019 -1.56358 5.16096 22
462 2 -6.6325 0.492435 2.25505 21
463 2 -5.35846 -2.63075 2.48948 23
464 2 -5.16478 -4.79509 10.5534 20
465 2 -6.81236 -1.82001 10.1817 23
466 2 -6.4014 0.0746283 7.78849 22
467 2 -4.68065 -2.85238 7.67855 21
468 2 -5.02934 -5.0449 15.4176 13
469 2 -6.26353 -2.121 15.7025 14
470 2 -6.56234 0.101001 12.8965 23
471 2 -4.81758 -2.98518 13.0278 23
472 2 -0.618673 -15.9359 5.14312 15
473 2 -3.34629 -14.1315 5.37638 18
474 2 -3.55436 -11.8996 2.48212 21
475 2 -1.71592 -14.6526 2.31109 25
476 2 -3.01873 -13.2616 10.8062 16
477 2 -3.26588 -10.8042 7.66825 21
478 2 -1.4672 -14.4782 7.90956 15
479 2 -3.73246 -11.8758 12.8952 13
480 2 -2.10339 -10.4506 5.26975 20
481 2 -3.37283 -7.91862 4.9146 24
482 2 -3.50848 -5.5847 2.22205 23
483 2 -1.84015 -8.8447 2.30311 22
484 2 -1.48263 -10.6186 10.3926 20
485 2 -3.39653 -8.05996 10.4059 21
486 2 -3.18964 -6.10188 7.54219 24
487 2 -1.51458 -8.87172 8.11594 21
488 2 -3.29067 -8.1253 15.135 11
489 2 -3.14276 -5.869 12.8992 18
490 2 -2.09455 -10.5689 15.2606 7
491 2 -1.50203 -4.88554 4.73422 22
492 2 -3.42231 -1.68902 5.25361 21
493 2 -3.23013 0.0953647 2.38564 22
494 2 -1.85084 -2.79653 2.31913 21
495 2 -1.95447 -4.8481 10.3127 22
496 2 -3.38848 -1.64107 10.2882 21
497 2 -3.31409 0.0900071 7.61791 22
498 2 -1.34959 -3.24211 7.99998 21
499 2 -2.05206 -4.91074 15.449 17
500 2 -3.14887 -2.00884 16.1366 14
501 2 -3.13608 0.00842958 13.3783 21
502 2 -1.42793 -3.06438 12.8665 23
503 1 -15.2055 2.817 -9.9198 11
504 1 -14.9085 0.129038 -7.91302 14
505 1 -17.5576 4.84636 -4.5273 9
506 1 -15.3628 3.14968 -6.25022 15
507 1 -14.6598 1.03043 -1.46306 21
508 1 -16.6911 3.45236 -1.59351 16
509 1 -15.3215 5.69771 -7.66069 14
510 1 -14.8884 8.1834 -5.45292 13
511 1 -15.647 6.51709 -2.62131 14
512 1 -11.1188 1.20016 -13.2883 14
513 1 -13.6385 5.80093 -10.7669 11
514 1 -11.7828 3.20048 -10.3974 18
515 1 -11.3726 1.25313 -7.70297 20
516 1 -12.9047 4.59152 -7.64203 22
517 1 -13.1709 5.82771 -4.62844 22
518 1 -11.4474 2.87436 -4.98852 22
519 1 -11.7286 1.00011 -2.50909 23
520 1 -13.3696 3.57561 -2.20041 21
521 1 -11.4762 8.57088 -10.5119 10
522 1 -12.7725 7.49633 -7.76703 19
523 1 -12.0261 11.2064 -7.25562 11
524 1 -13.9989 11.2268 -5.16077 10
525 1 -11.7838 8.56847 -5.13372 23
526 1 -11.6348 6.36256 -2.05863 22
527 1 -13.7026 9.06211 -2.508 19
528 1 -12.0688 12.0488 -2.79918 14
529 1 -8.76346 2.2387 -15.5248 11
530 1 -8.38387 0.578574 -12.9362 19
531 1 -9.81284 4.0588 -12.7708 14
532 1 -10.0068 6.19452 -9.85132 21
533 1 -8.164 2.82864 -10.4492 24
534 1 -8.48736 1.04788 -7.66368 19
535 1 -10.0041 3.67894 -7.50995 20
536 1 -10.4158 6.05179 -5.03457 22
537 1 -8.34515 3.20292 -4.92241 23
538 1 -8.31674 1.01161 -2.25775 22
539 1 -9.97816 3.45519 -2.49321 22
540 1 -8.19352 7.00566 -12.8415 14
541 1 -8.00121 9.13609 -10.9633 14
542 1 -8.46014 6.74328 -7.49551 20
543 1 -9.78393 9.45294 -7.85605 19
544 1 -10.0952 11.1807 -5.0543 20
545 1 -8.23264 8.53666 -4.8381 21
546 1 -8.56989 6.54899 -2.38553 23
547 1 -10.1055 9.07249 -2.09474 24
548 1 -8.6365 12.807 -7.35902 13
549 1 -7.93377 14.4118 -5.00167 14
550 1 -8.65699 11.7869 -2.44564 19
551 1 -6.41716 5.21182 -15.4842 12
552 1 -5.20399 3.02478 -16.8222 9
553 1 -4.90553 1.15197 -12.7786 21
554 1 -6.61753 4.1334 -12.4459 21
555 1 -6.92146 5.98533 -10.1441 21
556 1 -5.05825 2.80251 -10.1115 23
557 1 -5.10268 1.00584 -7.2808 23
558 1 -6.72782 3.57556 -7.59561 23
559 1 -6.38605 5.63273 -4.74502 21
560 1 -5.03348 2.70829 -4.7539 23
561 1 -4.74846 1.02121 -2.26129 22
562 1 -6.5339 3.97161 -2.33481 24
563 1 -4.58308 6.8949 -12.9833 23
564 1 -6.16725 8.92404 -14.4109 9
565 1 -6.49921 11.7835 -10.078 13
566 1 -5.01436 8.58754 -9.8263 21
567 1 -4.95734 6.7051 -7.41352 23
568 1 -6.25126 9.93792 -7.41618 20
569 1 -6.63022 11.6175 -4.82471 23
570 1 -4.44992 8.85332 -4.74993 21
571 1 -5.16872 6.95466 -2.52476 20
572 1 -6.59704 10.0518 -2.30039 20
573 1 -5.69789 13.3742 -7.06701 17
574 1 -5.62437 16.8926 -6.48344 8
575 1 -4.632 14.7454 -4.12943 22
576 1 -4.80286 12.4462 -2.01146 23
577 1 -7.22668 14.0665 -1.7839 14
578 1 -3.03056 5.4565 -15.6343 15
579 1 -0.329082 1.76776 -14.7487 16
580 1 -1.83251 0.970544 -12.6155 21
581 1 -3.41995 3.68732 -12.7382 21
582 1 -3.63482 5.96934 -9.91063 22
583 1 -1.77163 3.20572 -9.90997 23
584 1 -1.65581 1.04246 -7.36014 23
585 1 -3.32291 3.96864 -7.2671 22
586 1 -3.03607 5.91684 -4.44635 21
587 1 -1.65661 2.69997 -5.07871 22
588 1 -1.80395 0.982454 -2.74089 20
589 1 -3.1738 3.85767 -2.20906 22
590 1 -0.179231 6.7186 -15.4462 15
591 1 -1.22804 6.65915 -12.6527 24
592 1 -2.52454 9.06952 -14.7165 11
593 1 -3.9343 10.0682 -12.3935 16
594 1 -1.59137 8.53357 -10.0595 21
595 1 -1.40808 6.91292 -7.72331 21
596 1 -3.21595 9.85601 -7.89926 20
597 1 -3.08111 12.0379 -4.85869 20
598 1 -1.6518 9.00552 -4.7907 23
599 1 -1.66474 6.72286 -2.18951 22
600 1 -3.36391 9.829 -2.15825 24
601 1 -1.88921 12.248 -12.2782 12
602 1 -3.38668 12.6265 -9.58453 16
603 1 -1.06842 13.0052 -7.27864 18
604 1 -3.03109 15.6248 -7.6426 14
605 1 -2.0768 17.3023 -4.06464 10
606 1 -1.34523 14.5967 -4.61249 22
607 1 -1.46874 12.5234 -2.07587 21
608 1 -3.01093 15.2409 -1.697 18
609 2 -15.0554 1.14487 -6.08887 15
610 2 -15.1708 3.81856 -8.15971 14
611 2 -15.066 1.0642 -9.50166 11
612 2 -15.0735 1.13186 0.483081 17
613 2 -16.1166 4.0411 -0.038466 16
614 2 -16.8786 5.09254 -2.66426 12
615 2 -15.3542 2.48548 -2.56126 21
616 2 -14.9306 6.47754 -6.01709 16
617 2 -15.8838 7.0126 -0.020643 14
618 2 -14.72 8.06525 -3.60094 17
619 2 -11.8058 1.22437 -11.6724 15
620 2 -13.6163 3.77187 -10.4897 13
621 2 -9.48993 2.59472 -13.7948 13
622 2 -11.0695 1.10554 -5.71541 20
623 2 -12.957 3.66608 -5.95668 21
624 2 -13.8815 6.30783 -8.77554 15
625 2 -11.4313 3.00756 -8.54455 22
626 2 -11.1476 0.944991 -0.530908 23
627 2 -13.1909 4.02492 -0.0431883 20
628 2 -13.3539 5.43055 -2.87305 20
629 2 -11.8586 2.75118 -2.96536 21
630 2 -11.7972 6.56718 -10.3298 14
631 2 -11.9353 6.90565 -6.02435 22
632 2 -13.5565 9.47461 -5.40648 17
633 2 -11.8796 9.25577 -8.0097 14
634 2 -11.704 6.60748 -0.122935 21
635 2 -13.4314 9.40375 -0.540341 20
636 2 -13.7244 10.9048 -3.23481 13
637 2 -11.845 8.04396 -2.80141 20
638 2 -12.0864 11.8134 -5.25554 12
639 2 -11.8813 12.0827 -0.558484 14
640 2 -8.13686 0.794128 -10.9567 24
641 2 -9.927 3.8591 -10.6968 20
642 2 -8.2407 5.24359 -13.315 15
643 2 -8.10617 0.311148 -15.4252 14
644 2 -8.47815 1.53277 -5.81007 22
645 2 -9.80959 4.15247 -5.17071 24
646 2 -10.0822 5.65108 -7.87253 23
647 2 -8.51796 2.84556 -8.37241 25
648 2 -8.35269 1.18938 -0.301621 23
649 2 -9.88598 4.01484 -0.124133 21
650 2 -10.1768 5.39423 -3.00835 23
651 2 -8.2034 2.82659 -2.67569 24
652 2 -8.39871 6.6501 -10.9574 19
653 2 -9.66301 8.95889 -9.85582 14
654 2 -7.23011 9.00552 -12.7535 14
655 2 -8.37357 6.24279 -5.42444 21
656 2 -10.333 9.65128 -5.9018 22
657 2 -10.2464 12.0446 -7.9565 10
658 2 -7.9013 8.64688 -7.3057 15
659 2 -8.73429 6.88166 -0.393383 20
660 2 -10.2933 9.58838 -0.323723 20
661 2 -10.4184 11.4912 -3.14825 17
662 2 -8.4782 8.76364 -3.03831 23
663 2 -8.21992 12.4822 -5.40615 18
664 2 -8.09125 12.2197 -0.687843 20
665 2 -8.14955 14.3353 -3.26646 12
666 2 -4.94534 0.990077 -10.5169 24
667 2 -6.63623 4.06327 -10.5858 19
668 2 -6.00483 7.10336 -14.9627 12
669 2 -5.18999 3.10121 -13.0189 20
670 2 -5.01021 0.790909 -5.35168 22
671 2 -6.51261 3.81201 -5.39638 21
672 2 -6.64457 5.79152 -8.12526 22
673 2 -4.91363 2.96864 -8.0379 22
674 2 -4.96534 1.11269 -0.124119 24
675 2 -6.5748 3.96558 -0.19063 21
676 2 -7.02425 5.65538 -2.7817 21
677 2 -5.06148 2.85069 -2.76569 22
678 2 -5.06878 6.71794 -11.0084 22
679 2 -6.47446 9.88925 -9.87935 18
680 2 -4.16907 8.92695 -13.8605 13
681 2 -4.80302 6.83561 -5.28903 20
682 2 -6.52201 9.69566 -5.25262 18
683 2 -7.02591 12.5766 -8.42547 14
684 2 -4.59191 8.46544 -7.99178 19
685 2 -5.5261 6.85017 -0.297944 21
686 2 -6.72907 9.56232 -0.221252 24
687 2 -6.65078 11.9585 -2.77939 21
688 2 -4.97031 9.00801 -2.65801 21
689 2 -4.59068 11.1435 -8.37551 18
690 2 -4.9691 12.8728 -5.19816 20
691 2 -6.3297 15.2454 -5.68805 14
692 2 -4.13868 16.9727 -7.3504 9
693 2 -4.98777 12.3192 -0.130052 21
694 2 -6.63592 15.0428 0.696666 13
695 2 -4.86584 14.3864 -2.053 16
696 2 -1.89076 1.26707 -10.5994 22
697 2 -3.39154 3.95454 -10.8645 23
698 2 -2.91173 5.79385 -13.5204 19
699 2 -1.53227 2.81483 -13.6186 22
700 2 -1.73382 0.855941 -5.17979 22
701 2 -3.30591 3.97043 -5.26119 22
702 2 -3.37676 5.83647 -7.95117 20
703 2 -1.83198 2.98929 -7.76501 22
704 2 -1.74668 0.976559 -0.466678 25
705 2 -3.34645 3.75021 -0.264489 22
706 2 -3.4437 6.15856 -2.45469 22
707 2 -1.6619 3.07626 -2.97489 24
708 2 -1.64755 6.66953 -10.3426 21
709 2 -3.31798 9.02585 -10.6691 22
710 2 -1.74527 10.4236 -13.2653 13
711 2 -0.977052 7.96827 -14.2356 16
712 2 -1.81073 6.74349 -5.59321 20
713 2 -3.23188 10.1518 -5.70052 21
714 2 -4.07192 14.0189 -8.20168 14
715 2 -1.40288 8.81311 -8.05975 21
716 2 -1.24359 6.77417 -0.379042 21
717 2 -3.20916 9.66142 -0.108956 23
718 2 -3.13675 11.7267 -2.77071 25
719 2 -1.78655 8.61182 -2.93938 21
720 2 -3.41147 11.7429 -11.4214 15
721 2 -1.37917 12.9493 -5.43835 18
722 2 -3.21364 15.8091 -4.16749 17
723 2 -1.21758 15.0049 -7.44395 12
724 2 -1.63855 12.7785 -0.127303 22
725 2 -3.13322 15.9826 0.120426 15
726 2 -2.5298 17.3188 -1.955 14
727 2 -1.57691 14.5272 -2.52609 19
728 1 -16.921 5.58091 0.793153 13
729 1 -14.5714 2.97406 0.783893 18
730 1 -14.5057 0.812414 2.50417 22
731 1 -16.5413 3.84477 3.41899 15
732 1 -14.935 2.0348 5.1805 20
733 1 -16.1718 1.06503 8.73484 8
734 1 -15.2197 8.66881 0.319466 13
735 1 -15.4155 6.87848 3.23126 16
736 1 -15.0885 8.97738 5.53901 9
737 1 -13.1461 5.73444 0.610785 24
738 1 -11.4522 2.72104 0.276251 22
739 1 -11.7387 0.910497 3.17024 26
740 1 -13.44 3.89757 3.35336 21
741 1 -13.8263 5.63584 5.5908 17
742 1 -11.7466 2.88708 5.91412 25
743 1 -12.07 0.923941 8.61238 21
744 1 -14.1346 3.37662 7.82424 14
745 1 -13.4912 5.77337 9.56765 11
746 1 -13.1427 4.21332 11.7877 9
747 1 -11.6471 1.3621 12.7001 11
748 1 -13.578 11.7134 -0.0531615 14
749 1 -11.7943 8.74546 0.313473 22
750 1 -11.8388 7.1088 2.98889 20
751 1 -13.7608 9.98555 3.03235 15
752 1 -11.8241 8.47992 6.07311 20
753 1 -11.7863 6.5784 7.3373 20
754 1 -12.2706 8.67112 10.1377 8
755 1 -11.6652 12.6895 2.4612 12
756 1 -10.1619 5.65685 0.448279 20
757 1 -8.10563 2.95201 0.651204 24
758 1 -8.40426 0.939037 3.16109 23
759 1 -10.1977 3.61176 3.04477 22
760 1 -9.80193 5.806 5.41041 20
761 1 -8.4287 2.90273 5.4642 21
762 1 -8.03778 1.27545 8.23217 23
763 1 -10.1799 3.73156 8.24739 21
764 1 -10.1378 6.1736 10.2799 20
765 1 -8.36609 3.02363 11.116 23
766 1 -8.32212 1.11397 13.2827 17
767 1 -10.4342 4.33745 13.2083 12
768 1 -10.2458 11.5907 0.171145 20
769 1 -8.41923 8.7428 0.577262 25
770 1 -8.29193 6.85658 2.65615 20
771 1 -10.0906 9.60733 3.26855 21
772 1 -10.1884 11.8245 5.52862 13
773 1 -8.49514 8.76473 5.51158 20
774 1 -8.22904 6.85928 8.21308 22
775 1 -10.2344 9.62916 8.17004 16
776 1 -8.37576 8.96569 10.7166 18
777 1 -8.5763 6.75097 13.5944 14
778 1 -8.84093 14.9402 0.979706 10
779 1 -8.53992 12.904 3.12541 19
780 1 -7.99006 14.8549 5.34527 9
781 1 -8.60875 12.3742 8.50351 11
782 1 -6.83432 5.71124 0.318675 22
783 1 -4.91381 3.05882 0.454898 24
784 1 -4.99731 1.13127 3.12001 25
785 1 -6.76117 3.91899 2.92278 22
786 1 -6.68775 5.93885 5.7054 24
787 1 -5.03605 3.00143 6.04368 25
788 1 -4.80087 0.994347 8.17253 20
789 1 -6.94912 3.98495 8.55485 23
790 1 -6.8438 6.15572 11.1864 26
791 1 -5.31997 3.04687 10.9782 22
792 1 -5.07128 0.772359 13.7241 21
793 1 -6.99016 3.95777 13.4882 19
794 1 -6.81635 11.5917 0.623957 22
795 1 -5.02114 8.61829 0.197223 23
796 1 -5.11815 6.5658 3.18428 22
797 1 -6.55655 9.62265 3.35164 22
798 1 -6.64277 11.6926 5.57789 20
799 1 -4.89825 8.55235 5.93197 22
800 1 -4.98354 6.93318 8.51465 24
801 1 -6.9767 9.84205 7.82756 20
802 1 -6.66528 11.441 10.5473 13
803 1 -4.96561 9.00581 11.5549 20
804 1 -4.95344 5.8157 14.3444 17
805 1 -6.96217 9.21904 13.5801 10
806 1 -4.61872 14.2912 0.388031 18
807 1 -4.99674 12.5638 3.31371 24
808 1 -6.4117 15.4342 2.76719 12
809 1 -4.68875 14.5887 6.13197 18
810 1 -4.85482 12.9887 8.61792 17
811 1 -3.52073 5.8094 0.254719 22
812 1 -1.75205 2.77199 0.552368 22
813 1 -1.81595 1.27094 3.28675 24
814 1 -3.4703 4.26703 3.00821 20
815 1 -3.2049 6.02074 5.86437 25
816 1 -1.79352 2.99352 5.82469 22
817 1 -1.68324 0.930809 8.24835 22
818 1 -3.41447 3.82592 8.36196 24
819 1 -3.68951 5.83137 11.5319 24
820 1 -2.05052 2.92168 10.7759 21
821 1 -1.39023 1.02647 13.3934 20
822 1 -3.39788 3.23295 13.748 24
823 1 -3.40049 11.4156 0.737988 23
824 1 -1.39798 8.68997 0.446972 21
825 1 -1.52563 6.75338 3.09146 21
826 1 -3.40038 9.79524 3.28867 23
827 1 -3.36813 11.7747 5.90953 21
828 1 -1.54204 8.80342 5.64308 22
829 1 -1.8629 6.86081 8.48975 22
830 1 -3.47825 9.88648 8.40471 22
831 1 -3.18146 12.0878 11.4511 15
832 1 -1.93221 8.99157 11.0863 22
833 1 -1.9122 6.41889 13.8426 20
834 1 -3.46151 9.21766 14.4559 11
835 1 -3.54352 17.8661 -0.262432 8
836 1 -1.67442 14.9393 0.595674 22
837 1 -1.68906 12.6927 3.11656 22
838 1 -3.47611 15.3421 3.38802 16
839 1 -1.24055 14.7982 5.98383 20
840 1 -1.76725 12.6551 8.41983 20
841 1 -3.0869 15.6336 8.38995 10
842 1 -2.09305 12.5051 13.9581 8
843 2 -14.044 0.640361 4.49704 19
844 2 -17.0212 2.2738 4.60287 11
845 2 -16.4362 5.51383 2.5545 13
846 2 -14.8214 2.90193 2.59969 21
847 2 -15.1527 0.509202 10.0514 10
848 2 -15.6556 1.95092 7.28579 13
849 2 -15.1557 7.028 5.22483 13
850 2 -14.9273 8.79095 2.11748 16
851 2 -11.2661 1.09648 5.46522 21
852 2 -13.4662 3.54546 5.3365 21
853 2 -13.6344 5.7825 2.67163 20
854 2 -11.6911 2.34342 2.23459 24
855 2 -12.1471 0.428674 10.8439 14
856 2 -13.9067 4.06019 10.0343 11
857 2 -13.4191 5.62716 7.6309 15