ITEM: TIMESTEP
1000
ITEM: NUMBER OF ATOMS
1000
ITEM: BOX BOUNDS pp pp pp
-30.0 30.0
-30.0 30.0
-30.0 30.0
ITEM: ATOMS id type x y z Coordination
1 1 -3.76977 -9.25201 -8.91435 12
2 1 5.41511 -10.3911 7.74926 15
3 1 -10.8257 6.84495 0.571458 16
4 1 -11.4089 4.97052 -5.45203 6
5 1 -2.37434 -5.69215 13.6426 13
6 1 -7.69005 -1.03883 -7.23373 17
7 1 -3.74892 -13.9285 3.38413 13
8 1 6.12159 -2.01712 7.97134 24
9 1 -0.0215116 5.62601 9.83374 18
10 1 -3.5032 11.741 -4.96046 13
11 1 0.0172711 3.34612 14.9482 10
12 1 -8.32268 -1.44343 2.4647 22
13 1 -2.78758 1.0393 -8.62245 19
14 1 0.327638 5.57064 13.2459 10
15 1 -0.402172 -10.0939 6.48811 16
16 1 -11.4102 -0.440901 3.29184 16
17 1 -7.86777 -1.20694 -0.644127 20
18 1 -2.10108 13.5879 -0.0671293 14
19 1 1.78031 0.36086 -11.5048 17
20 1 6.6401 -5.97104 -9.61848 14
21 1 -4.48952 -7.45151 11.2042 13
22 1 -11.0194 3.71263 1.4806 14
23 1 1.19134 12.9969 -0.44274 13
24 1 1.63654 -12.1049 4.72472 13
25 1 8.52209 -8.0139 -7.6474 13
26 1 8.15353 0.370699 7.65829 22
27 1 -7.40795 8.89067 -3.36459 15
28 1 2.3811 5.17384 8.10159 22
29 1 2.98023 -2.62284 12.7396 16
30 1 -9.40921 -4.23069 0.842764 19
31 1 10.3772 1.95991 9.33214 14
32 1 9.43985 -5.6905 -4.1 20
33 1 5.18941 0.560556 9.17833 22
34 1 -6.21861 -4.41346 2.82571 20
35 1 -3.41703 -5.81518 -8.17861 18
36 1 -8.63715 12.2544 -0.192817 8
37 1 -4.48435 6.71074 -7.54143 18
38 1 8.58459 -2.46006 -3.51444 20
39 1 6.41657 -7.41603 7.05163 22
40 1 5.86486 -8.26167 10.4321 17
41 1 -3.15265 8.98804 7.30512 20
42 1 -7.26979 -6.70828 8.73245 12
43 1 -8.7832 0.799899 7.99636 20
44 1 10.033 -9.94817 -5.62225 11
45 1 4.55036 -0.590085 -12.3966 9
46 1 0.458702 13.5327 3.09669 10
47 1 -5.67198 6.43142 -4.05785 23
48 1 2.30784 8.48986 2.44064 18
49 1 -4.30967 -7.76642 8.61927 17
50 1 2.67558 -10.772 -9.23649 11
51 1 4.44328 -5.85186 -6.72002 16
52 1 0.15541 3.01564 7.59141 21
53 1 -10.0438 -10.4526 -0.871751 12
54 1 9.36022 -4.57888 4.42826 15
55 1 -8.17639 -9.64164 -3.88545 15
56 1 7.24526 -6.1803 4.37528 21
57 1 -2.54725 6.47045 4.5173 19
58 1 2.80962 3.13334 -6.99501 23
59 1 7.64652 -7.87192 2.00783 20
60 1 -8.23247 -13.0311 -0.606341 9
61 1 10.4211 9.21753 3.40231 12
62 1 8.29415 4.46961 -0.333941 18
63 1 -4.16493 14.3159 -2.53338 9
64 1 1.26096 -8.06909 -11.2786 13
65 1 -0.34911 10.448 -5.31176 17
66 1 12.1497 -1.50896 -4.99041 19
67 1 4.30153 3.2462 -12.7725 12
68 1 7.1829 -9.36646 4.74117 19
69 1 -5.84526 4.09034 -5.17125 24
70 1 6.06748 13.5713 -1.50703 13
71 1 9.94835 3.28495 -2.87279 22
72 1 -3.30484 8.97268 -3.89085 22
73 1 0.254948 -5.17085 -11.0514 12
74 1 -10.7426 -4.24713 -3.74388 14
75 1 -3.24374 11.4866 8.56407 10
76 1 -1.53355 13.0745 -2.81594 12
77 1 2.36953 0.777967 14.4216 11
78 1 -14.0746 -5.00709 4.63088 9
79 1 -3.4241 -11.6288 5.5834 16
80 1 2.33229 8.80838 -1.16666 19
81 1 7.18117 6.47268 -5.66284 12
82 1 -1.3508 -7.64151 10.5912 20
83 1 -9.12729 1.2933 1.31377 22
84 1 -2.68291 3.42642 13.0701 12
85 1 -6.05464 1.59339 -6.95022 21
86 1 -5.61448 -7.027 4.48254 22
87 1 -8.12311 -11.3455 2.01312 16
88 1 5.99095 -8.48607 -1.5936 19
89 1 -2.44533 9.30874 2.78521 20
90 1 -6.22382 1.39783 6.35393 20
91 1 -8.02917 -0.107728 -3.46603 23
92 1 0.180688 -14.3603 1.91805 10
93 1 5.26245 4.28171 -5.36686 22
94 1 5.69332 1.13355 12.7081 11
95 1 -1.55281 4.87288 -8.95599 17
96 1 -5.03167 -4.99263 -10.7458 10
97 1 -6.3401 9.9184 -0.499601 19
98 1 8.69933 4.72242 9.21555 13
99 1 -2.91425 9.94072 -7.58451 15
100 1 1.68917 6.2348 -8.69718 16
101 1 -7.69679 5.17252 9.22509 13
102 1 -3.16222 6.26564 8.28024 17
103 1 0.691249 -10.6427 -6.70126 15
104 1 5.30783 9.27974 -9.09898 11
105 1 -0.43759 10.3839 -2.43532 20
106 1 -10.7519 2.8554 4.72099 17
107 1 2.72825 5.49333 11.296 16
108 1 13.6713 -0.26517 -2.38094 13
109 1 2.93784 7.8264 5.83537 21
110 1 -9.63405 6.58971 7.03011 10
111 1 -8.59385 -6.12479 -3.3774 18
112 1 2.99613 -2.24799 9.49757 23
113 1 3.55865 -13.3215 -2.93979 10
114 1 -1.28638 -0.136219 -12.7385 13
115 1 11.8699 -0.285378 -7.77912 11
116 1 -12.0192 -5.91858 7.40487 9
117 1 -6.06506 -4.32613 -8.15185 23
118 1 -6.16979 -2.09825 -9.51272 13
119 1 -10.6906 1.58261 -4.92771 14
120 1 8.44866 -1.18307 9.63226 19
121 1 5.48788 -4.91594 9.60555 23
122 1 2.25824 -4.91484 8.07868 22
123 1 5.46914 12.2853 1.61021 12
124 1 -4.82111 -10.0848 3.59687 23
125 1 3.8316 12.8644 4.28123 12
126 1 -2.09108 -7.09695 -10.7444 12
127 1 -4.30624 -7.74732 -5.92066 19
128 1 -2.9832 -7.70133 2.7777 22
129 1 8.57705 3.7822 6.06635 19
130 1 -8.8752 -4.24648 11.7667 8
131 1 -2.72298 -10.9883 1.31309 18
132 1 0.842251 -11.0552 0.916785 20
133 1 6.25613 -11.6458 -1.22523 13
134 1 -7.73007 6.51417 -6.34099 15
135 1 13.0458 6.61795 4.10023 10
136 1 -5.60848 1.28252 -3.61843 18
137 1 -3.18852 8.55444 -10.2178 13
138 1 -3.40882 -5.00353 7.73294 22
139 1 2.96765 10.5629 6.92911 15
140 1 13.3982 0.0303949 4.53182 12
141 1 -8.43704 -1.24199 5.98206 22
142 1 -5.54228 -4.93695 9.40724 19
143 1 -7.8762 10.231 4.02914 13
144 1 4.33185 -5.90073 -11.7086 9
145 1 4.51653 -9.96578 1.07214 23
146 1 9.33051 -1.96611 -9.57036 10
147 1 -10.1544 -3.26998 4.00033 16
148 1 8.40047 -9.56067 -3.24499 14
149 1 -3.14901 9.60203 -0.565176 20
150 1 -5.08633 4.1361 4.65578 18
151 1 3.59861 -10.168 11.0604 13
152 1 1.34676 8.10257 8.24002 18
153 1 -5.31621 -4.61435 -4.66983 24
154 1 -4.97783 10.8372 4.41135 16
155 1 -7.93945 3.5884 -3.85905 22
156 1 -11.8772 0.735087 6.47892 14
157 1 -2.95714 -4.87509 -5.94696 16
158 1 -5.63323 8.65037 2.13611 19
159 1 9.73703 -3.41465 8.36195 13
160 1 3.9998 -7.72704 8.27345 18
161 1 0.223767 -2.10806 11.0476 21
162 1 3.14248 -11.2785 -5.57088 16
163 1 -2.75836 -2.71718 -11.7497 12
164 1 -12.0206 -3.89114 -0.850216 11
165 1 -3.40654 -8.12708 -0.556258 20
166 1 13.4446 1.90448 -3.60071 15
167 1 -7.09929 4.40098 -8.34335 15
168 1 -4.83233 9.06 9.3946 11
169 1 -6.90672 13.4465 2.32396 11
170 1 -6.10264 7.3262 6.96705 12
171 1 10.6347 -3.66793 -5.37482 19
172 1 9.12142 1.15943 -7.82886 17
173 1 0.845846 -9.4844 -3.77006 20
174 1 -0.111928 9.00972 4.76304 19
175 1 -9.68038 1.25374 -1.53958 19
176 1 3.27859 -11.0213 -1.31182 19
177 1 11.7516 -0.858917 7.53533 14
178 1 -10.659 -7.33157 -5.77655 13
179 1 -0.867145 -10.4861 3.45347 19
180 1 -5.17973 12.858 0.0755439 16
181 1 -8.97544 8.22986 -0.935596 15
182 1 -2.1861 -11.0735 -6.56681 15
183 1 5.05521 -5.21921 6.35293 23
184 1 -2.54395 -14.6979 0.493404 12
185 1 -9.30969 6.25767 -3.78571 14
186 1 -1.10363 -13.3125 4.84937 11
187 1 -3.26294 0.559959 7.62869 24
188 1 -7.85338 3.98762 5.85162 20
189 1 2.15044 -4.76158 -5.59578 22
190 1 -11.0959 -2.19948 8.16807 12
191 1 -1.97485 -2.24957 9.08311 23
192 1 -5.25037 -2.30806 7.85496 20
193 1 3.21959 -7.83372 -3.95457 23
194 1 4.83736 -11.5568 5.17742 12
195 1 3.6624 10.6959 -6.07411 15
196 1 -10.1626 -11.6867 3.92912 8
197 1 8.47814 -9.69046 7.93692 10
198 1 10.7239 0.593686 -1.42798 20
199 1 3.09641 0.196104 -8.37463 20
200 1 9.87517 -7.45505 5.70577 17
201 1 -4.87586 -2.08933 10.7228 20
202 1 2.92319 11.4287 1.40943 17
203 1 7.60546 -4.81367 7.41776 20
204 1 -2.05897 -14.2474 -2.38351 10
205 1 5.6091 4.92874 9.53049 18
206 1 -8.06056 -0.974307 11.0784 16
207 1 -3.75486 -11.1308 -1.63908 17
208 1 -9.10455 -8.91684 -7.51305 9
209 1 -6.30618 11.1194 7.12807 10
210 1 -0.832899 -9.80877 -0.860417 20
211 1 -6.42398 -4.0668 5.92981 19
212 1 10.7733 1.59877 6.13885 17
213 1 11.9893 3.29697 4.21414 16
214 1 2.92286 3.91109 -9.93445 18
215 1 -0.573889 7.30898 -6.85853 20
216 1 -1.48523 8.55868 10.2139 12
217 1 -13.523 -6.46882 2.55508 8
218 1 6.36481 11.1854 -6.86215 10
219 1 -6.40855 -7.28522 -9.06666 14
220 1 2.347 -5.51975 -9.10173 21
221 1 10.2347 6.70523 -1.77505 15
222 1 5.06883 6.88983 -0.576223 17
223 1 4.5828 1.42347 -10.1069 19
224 1 2.20821 -8.69589 2.6066 16
225 1 -4.5091 3.23515 -10.3871 16
226 1 10.3267 6.78446 1.78403 16
227 1 7.78964 -4.5807 1.33448 20
228 1 -1.3874 2.27844 -10.5308 17
229 1 5.18969 -7.31782 1.40338 19
230 1 0.193562 -5.35541 12.7471 17
231 1 -8.81696 2.06254 -6.79409 13
232 1 0.93457 2.95225 -13.1973 10
233 1 -13.0401 -2.81945 2.37776 11
234 1 11.443 -1.82074 -2.7842 20
235 1 -2.8831 5.98714 -4.99106 20
236 1 2.38408 -8.3046 -6.82316 18
237 1 3.01083 5.88764 -12.5022 13
238 1 9.36701 -4.99637 -8.02064 16
239 1 -8.43694 -7.55625 5.67973 16
240 1 -3.71253 11.3837 1.64658 18
241 1 2.64516 5.81019 -5.75506 21
242 1 12.3979 4.22063 -1.62909 15
243 1 2.30324 -8.35254 -0.833845 21
244 1 4.86576 -3.4013 -7.89446 18
245 1 12.7284 -4.7879 0.530897 11
246 1 2.45418 -7.10591 6.36754 15
247 1 -10.423 3.64644 8.02258 12
248 1 -7.43877 -6.92053 -5.79402 21
249 1 -2.79989 -4.78909 10.7764 24
250 1 2.31128 8.94274 -10.9123 11
251 1 -5.90408 11.921 -3.38357 11
252 1 1.55497 12.2817 -4.94001 13
253 1 0.372014 2.8773 11.6642 22
254 1 5.01443 -10.3809 -3.82378 17
255 1 5.53208 -1.19499 -5.61699 21
256 1 -10.5745 -8.98138 1.94453 14
257 1 -8.61642 4.179 -0.189877 19
258 1 -11.2779 -7.25643 4.5609 14
259 1 7.21306 5.76142 -2.75096 21
260 1 6.31443 -9.26557 -9.86958 9
261 1 2.78817 -4.90711 11.8151 20
262 1 9.57772 0.142441 -4.81542 20
263 1 -10.8122 6.00195 3.91721 15
264 1 12.0093 -4.95996 -3.1229 12
265 1 4.44978 7.57063 8.95895 14
266 1 -0.00830638 1.74662 -7.25162 19
267 1 6.0457 5.45334 -11.3942 11
268 1 -3.16154 -2.34304 -7.40254 20
269 1 -7.89916 -12.4488 -3.3116 8
270 1 15.174 1.95713 -0.573293 10
271 1 11.5804 -6.93855 -5.82113 12
272 1 6.38266 -10.0278 -6.26497 14
273 1 10.1908 9.70205 -0.256567 11
274 1 -8.21858 4.25511 3.04569 19
275 1 11.9162 5.31795 -4.83621 9
276 1 -5.37674 -4.3691 12.5863 14
277 1 7.47346 1.83899 10.6828 16
278 1 -9.25359 -6.16388 -8.51217 12
279 1 14.0938 3.63819 1.76014 10
280 1 11.8664 -5.51756 3.60421 13
281 1 5.89213 9.82171 7.2686 12
282 1 3.14982 2.61766 9.35255 21
283 1 -3.6979 6.47042 -1.91107 21
284 1 -1.64452 -11.2462 -3.30619 16
285 1 -5.9173 6.2262 -10.4215 10
286 1 -6.80196 1.40425 -9.76925 12
287 1 -11.241 -1.38513 -3.09734 13
288 1 9.81041 -9.25772 3.03542 13
289 1 0.257772 -10.6968 9.88479 11
290 1 9.40369 4.68181 -6.71316 13
291 1 14.2166 -3.32417 2.65259 10
292 1 7.54123 11.4953 4.66462 10
293 1 11.8829 -2.44905 4.47069 15
294 1 -5.51729 2.97919 11.2516 15
295 1 -5.87861 -9.43748 0.572352 15
296 1 -8.78971 -3.73526 -6.42052 16
297 1 5.66275 -2.25626 11.0373 18
298 1 -3.44153 13.7933 3.03763 11
299 1 8.96817 3.68297 2.7936 20
300 1 5.90254 2.79337 7.62903 22
301 1 -9.45108 -5.13952 7.06135 18
302 1 6.40487 -0.651841 -9.06084 17
303 1 -0.795785 -7.38482 -5.88927 19
304 1 7.79146 6.9159 6.92717 17
305 1 5.01174 5.88122 6.14747 22
306 1 -0.499797 0.329353 13.4156 18
307 1 -3.34062 0.353017 11.2008 21
308 1 -6.38692 0.809997 13.1103 11
309 1 -0.484217 7.24744 -3.80678 21
310 1 8.47734 12.7895 -0.0983517 9
311 1 4.98352 13.2382 -4.60004 11
312 1 -5.89512 -14.4661 1.59693 11
313 1 5.86621 3.1731 4.22616 19
314 1 -8.06978 7.1891 1.97122 18
315 1 4.58128 7.91402 -6.38291 18
316 1 2.2741 0.183307 11.1932 22
317 1 7.52723 8.54052 4.61863 18
318 1 -0.931793 -0.910232 -9.16875 20
319 1 6.69106 -7.20212 -4.26036 18
320 1 4.70303 10.3744 4.33658 17
321 1 -12.2916 -2.76932 5.8172 15
322 1 3.4394 -12.6433 1.86893 14
323 1 7.8688 6.8678 -9.02862 9
324 1 3.74465 -2.37246 -10.6929 15
325 1 7.1146 -5.2348 -6.61183 16
326 1 -1.80366 11.7387 5.37259 15
327 1 1.36546 -8.30289 12.5686 12
328 1 -5.0785 -11.1248 -5.11434 12
329 1 -2.40693 3.41627 9.49546 20
330 1 8.73208 -1.87276 3.1261 18
331 1 2.16447 8.88172 -3.92288 23
332 1 6.26218 3.4606 -8.54039 19
333 1 7.80685 2.51799 -4.72524 20
334 1 -0.0130156 7.98344 -11.6129 11
335 1 -0.611901 0.445569 9.71397 22
336 1 -2.56727 -10.0774 8.43418 14
337 1 3.79626 -7.72039 -9.67501 17
338 1 -9.85031 9.93115 1.40599 14
339 1 7.05225 6.04847 3.1028 19
340 1 -8.56453 -5.99052 3.33425 20
341 1 4.86876 6.06329 -8.9731 20
342 1 -2.67995 -2.49954 12.541 19
343 1 -11.4183 -6.93653 0.143312 9
344 1 8.61061 -1.62927 -0.33887 22
345 1 -6.14689 -6.86963 0.916474 18
346 1 10.914 -7.23708 0.958559 12
347 1 4.4453 -8.04033 4.23693 20
348 1 -0.108519 10.5821 7.91527 15
349 1 -8.13312 2.6149 10.6697 13
350 1 7.85512 0.452589 4.57339 22
351 1 8.55106 -9.07934 -0.0503968 16
352 1 4.78742 7.14727 2.62149 18
353 1 1.23242 13.0334 5.87466 10
354 1 1.3214 -7.20605 9.81346 20
355 1 -7.91024 -3.01652 -3.62389 21
356 1 3.30794 3.24046 12.9345 15
357 1 6.95563 10.2273 -0.844349 17
358 1 8.22648 -4.46412 11.0498 14
359 1 7.81958 -7.52916 12.3813 9
360 1 10.2011 5.92893 5.04388 18
361 1 -0.444589 -9.85482 -9.38817 13
362 1 -4.09023 -0.285842 -10.6545 15
363 1 -6.48531 -2.46806 13.6508 12
364 1 14.7037 0.243271 1.94467 11
365 1 1.51361 9.10937 -7.34426 20
366 1 8.17754 -1.69216 -6.97368 18
367 1 -5.25464 -14.0468 -1.52522 10
368 1 -5.39226 -1.4647 -5.50253 22
369 1 2.20125 -2.54765 -7.80544 17
370 1 -2.8105 -8.66057 -3.63283 21
371 1 0.0845922 -2.843 14.2784 12
372 1 -1.22304 -6.87707 7.46363 22
373 1 11.5258 2.21096 -5.4216 16
374 1 -10.8872 9.13483 4.49143 11
375 1 9.88223 -3.90696 -1.35186 18
376 1 -11.1583 -1.02858 0.236499 17
377 1 11.5306 2.18236 0.621782 21
378 1 6.18538 4.3184 12.3642 10
379 1 -10.5476 -1.46909 -5.90717 12
380 1 -3.07396 3.69419 -6.85976 20
381 1 10.457 -7.93035 -2.48028 15
382 1 -5.76815 -7.15542 -2.74998 18
383 1 -6.20743 -9.80174 6.20888 13
384 1 8.70615 -2.03399 5.82555 21
385 1 -8.84912 1.00554 4.55117 22
386 1 -0.448551 10.1761 -9.12084 14
387 1 4.6493 -7.85996 13.4636 10
388 1 -8.14692 -3.12515 8.6395 18
389 1 -0.26968 -4.3298 -7.66572 17
390 1 -6.64422 -12.7825 4.59036 13
391 1 5.55427 -4.93689 13.0125 14
392 1 0.457537 -13.5519 -1.19213 17
393 1 12.1005 -3.11171 -7.96885 9
394 1 -13.5621 7.88118 2.54861 6
395 1 -6.2736 0.157689 9.61041 23
396 1 0.558954 -12.7431 -4.41352 14
397 1 8.07278 8.68104 -2.91357 14
398 1 10.7199 0.668988 2.97495 19
399 1 -0.302903 -4.5039 9.66039 24
400 1 7.76864 12.0255 -3.60038 13
401 1 5.57656 1.60669 -6.54995 21
402 1 -10.8069 4.08204 -1.96999 12
403 1 5.04558 9.80833 -3.29783 19
404 1 7.95658 7.82033 0.942842 19
405 1 3.80834 11.7709 -1.87193 17
406 1 -5.01377 3.57288 8.01407 18
407 1 8.47759 0.545135 -2.37872 20
408 1 2.52067 -11.5337 7.84141 11
409 1 11.1053 5.30386 7.26432 13
410 1 7.60867 -5.78791 -1.47283 16
411 1 -5.5106 8.91488 -6.01166 14
412 1 -0.537051 5.7074 6.14101 21
413 1 -0.123113 10.0688 0.844127 17
414 1 -2.84869 -8.36635 5.61566 21
415 1 6.77513 -11.4885 2.27285 14
416 1 0.820159 -2.68103 -11.8095 11
417 1 -8.58102 -7.33766 -0.88635 16
418 1 -6.00161 6.65685 -0.102744 20
419 1 9.36964 -6.95347 9.41532 14
420 1 -7.88154 -8.75967 2.93733 18
421 1 12.2181 -1.44633 0.365424 17
422 1 -2.52124 5.70493 -11.4749 12
423 2 -10.8827 -0.124678 -4.78579 13
424 2 -5.47445 13.1072 -2.04788 14
425 2 0.0294258 -0.979605 -11.3649 13
426 2 -2.31986 1.49421 12.4801 17
427 2 -6.27483 -5.60041 -9.71128 13
428 2 6.67186 2.57623 12.2049 12
429 2 -9.28737 -1.62395 4.17345 18
430 2 9.42435 5.65359 3.42897 21
431 2 -10.4217 -7.47914 -7.75378 8
432 2 -8.21534 0.841251 -0.274875 21
433 2 -3.38182 -10.0902 6.77422 17
434 2 2.22187 2.75563 10.9382 19
435 2 8.34295 -0.608848 -8.63156 14
436 2 -8.52092 10.4902 0.268962 16
437 2 13.2074 4.9606 3.12608 12
438 2 -13.231 -6.60646 4.3701 8
439 2 -2.8219 -13.5476 5.24441 10
440 2 9.40405 -7.97815 7.75768 13
441 2 -7.24251 8.39938 3.23172 15
442 2 -7.22583 8.06369 -5.15063 15
443 2 -1.8834 7.26486 6.03091 18
444 2 8.43249 -7.32078 -3.24432 21
445 2 -3.8114 1.85815 -6.96477 21
446 2 2.77501 -7.03814 -11.2333 12
447 2 11.1897 -4.53101 -7.10779 15
448 2 11.3373 5.31909 -2.66639 12
449 2 -6.50753 11.9432 3.39998 17
450 2 -3.6355 -9.98049 -7.03766 11
451 2 1.4281 -6.39329 11.4664 16
452 2 7.39152 -1.89387 4.48662 20
453 2 -10.5972 -0.382215 -1.75447 16
454 2 6.38132 10.0621 5.28014 16
455 2 6.8372 -9.56272 6.74012 17
456 2 1.57706 9.08027 6.55608 13
457 2 6.0686 12.0463 -0.0303224 15
458 2 2.6048 6.87185 -4.23062 22
459 2 -8.44396 0.672164 10.2732 16
460 2 5.01601 0.706161 -8.37806 17
461 2 -8.7037 1.72235 -4.66804 20
462 2 -12.0365 -0.998127 7.30028 10
463 2 -7.2678 -13.8397 0.682493 9
464 2 -0.905061 -8.09326 2.63948 21
465 2 -1.23648 -1.47114 13.3797 14
466 2 -1.95018 6.74246 9.74555 15
467 2 -8.05576 0.403307 3.00619 23
468 2 6.91609 -8.99686 -7.86124 13
469 2 10.1365 -0.339492 -2.96974 22
470 2 0.660582 -13.4086 3.77613 13
471 2 2.93384 5.68987 6.20987 21
472 2 10.398 -9.66155 -3.74222 10
473 2 3.53589 -4.21737 9.4222 23
474 2 -3.56321 -6.62116 4.29331 20
475 2 11.7217 0.207144 1.23985 18
476 2 1.05851 -10.2059 3.01957 20
477 2 12.0882 -5.88474 1.71779 10
478 2 -4.67132 -7.64811 -8.55649 15
479 2 -6.93055 -6.66797 2.65053 21
480 2 -3.07025 -9.56517 3.18579 20
481 2 -2.3355 -9.92155 -2.16849 18
482 2 -2.87207 7.5708 -0.45326 21
483 2 2.36134 0.988318 -6.9646 20
484 2 8.52459 4.42928 -2.34653 17
485 2 1.65568 7.31186 -12.2753 10
486 2 -7.10568 2.33607 12.1128 11
487 2 -9.04639 3.14953 1.3595 22
488 2 -6.19061 3.87033 9.66355 14
489 2 -7.81032 6.58282 7.51486 11
490 2 9.73787 1.97915 -4.41291 21
491 2 10.3697 -8.08911 -0.69252 16
492 2 8.75043 0.358618 2.72128 22
493 2 -1.78778 9.92604 4.51158 17
494 2 -4.46877 9.83547 2.80484 19
495 2 13.2473 3.49649 0.0285478 12
496 2 0.413286 8.55133 2.75589 15
497 2 1.79542 10.6348 -6.03198 14
498 2 0.638767 6.02939 7.82763 18
499 2 2.22371 -2.05328 11.1448 20
500 2 6.10465 -1.76357 -7.39209 19
501 2 -5.35989 0.0706225 11.3189 18
502 2 5.03125 5.25714 -12.8866 10
503 2 -8.13672 -5.09911 8.35907 16
504 2 0.897536 -9.87854 -1.77218 23
505 2 3.08215 -6.68277 -5.64245 18
506 2 3.65646 -12.246 3.71476 13
507 2 8.78516 3.00317 -7.99683 15
508 2 -4.26334 5.24274 -11.4435 11
509 2 -3.17928 12.2402 3.93737 14
510 2 -6.34014 -7.82992 -0.847602 19
511 2 0.482239 9.57642 -10.7325 10
512 2 3.20384 12.4408 -0.21006 13
513 2 -1.2026 4.2309 13.7177 11
514 2 2.81876 -9.5248 -4.65086 21
515 2 7.63078 3.46244 7.94339 22
516 2 10.0705 -2.63803 4.13569 16
517 2 7.679 3.62283 4.32387 20
518 2 -3.28544 5.1758 -8.24988 21
519 2 4.02913 -6.17063 12.6239 16
520 2 0.384315 -4.30627 7.66185 23
521 2 7.1849 -8.1604 8.80011 18
522 2 -2.93188 13.1547 -3.86164 13
523 2 -6.83539 -10.9496 -4.38025 9
524 2 -0.767443 1.03621 -9.13292 20
525 2 -2.10722 -8.80218 -9.81866 12
526 2 7.91313 7.67866 2.94037 16
527 2 -9.20284 -11.0877 -2.66678 10
528 2 -10.3639 1.7064 7.30378 15
529 2 9.09467 -7.37109 11.1435 9
530 2 -3.6907 -13.0722 -2.02388 13
531 2 2.55722 1.13493 -10.0316 21
532 2 -5.95797 -0.381136 -10.2611 14
533 2 -4.3796 -3.1836 -10.872 15
534 2 -4.42148 -2.42178 13.1747 16
535 2 -2.57602 -6.81149 -6.1589 19
536 2 3.16484 -4.18642 -7.1736 20
537 2 9.04376 -1.7451 -5.23861 22
538 2 -5.63635 -5.1022 4.67697 18
539 2 3.6684 -1.99646 -8.63999 19
540 2 -0.758488 -8.08606 -3.8486 21
541 2 -1.79879 7.64676 -10.982 13
542 2 5.58751 6.70312 4.47238 20
543 2 10.9826 0.900207 7.77025 13
544 2 -13.0984 -4.7092 6.20929 12
545 2 -1.45457 -11.3873 5.14241 18
546 2 -1.08221 3.4886 -7.0422 21
547 2 -6.54296 -10.1472 2.13334 19
548 2 -5.16977 6.95941 1.63939 20
549 2 -5.56452 -6.76249 9.69634 14
550 2 -0.43285 -10.5632 8.25264 13
551 2 -12.0006 -2.2596 3.8573 15
552 2 -6.94166 -13.1958 -1.98833 11
553 2 -5.21847 -4.30542 7.47342 21
554 2 7.2072 -5.71032 12.332 15
555 2 3.78658 8.84077 -10.0436 13
556 2 6.84407 12.2056 2.96458 10
557 2 12.715 3.50491 -4.37441 11
558 2 -0.632589 12.862 -0.961497 14
559 2 -8.13206 -5.03821 -7.50306 16
560 2 -8.36622 -1.57208 -2.40773 21
561 2 -1.18918 -14.4528 -0.814916 10
562 2 2.43176 -6.88235 8.27295 18
563 2 9.33012 -9.1106 4.86854 14
564 2 -6.55081 10.131 -2.47889 17
565 2 8.8982 0.470767 -0.507483 19
566 2 3.69095 1.47678 13.2732 15
567 2 3.8135 8.49346 3.96821 19
568 2 0.387474 0.643523 11.5637 20
569 2 -8.95116 3.02099 4.49135 20
570 2 4.4964 9.27258 -5.04214 17
571 2 -7.68528 -7.90264 -7.90769 14
572 2 -4.89421 -5.03989 -6.68146 20
573 2 -8.34588 -4.26826 5.38848 22
574 2 8.86991 11.0382 -0.278233 14
575 2 10.9831 2.73592 2.70858 16
576 2 9.41347 -7.94828 1.77924 18
577 2 -12.2779 -2.61467 0.803563 14
578 2 -2.19989 10.0971 1.14051 20
579 2 -2.54858 7.14358 -3.25208 18
580 2 2.76219 4.77072 -8.13099 15
581 2 -10.5144 7.47621 5.39211 10
582 2 -9.30946 -7.51559 3.95766 15
583 2 5.60037 -11.4781 0.640165 16
584 2 4.02861 -9.21308 -1.16338 19
585 2 -7.43866 8.20874 0.131629 17
586 2 -10.6573 4.95707 -3.74805 12
587 2 4.08901 -8.53321 2.18674 18
588 2 4.2711 4.66839 12.2279 14
589 2 -0.400157 1.94192 -12.2843 10
590 2 -2.17372 9.85235 -9.37498 11
591 2 4.67599 3.22703 -10.4918 17
592 2 0.249883 9.15067 -0.992222 21
593 2 -8.87949 -2.78658 10.4655 12
594 2 -2.51404 -3.99274 8.78109 22
595 2 -10.8099 -5.08019 -0.16007 12
596 2 2.64653 7.67581 -7.22422 20
597 2 7.5284 -1.21535 -2.29713 23
598 2 3.15821 0.620674 9.63586 19
599 2 2.59103 -1.33665 -12.1616 11
600 2 7.728 3.12655 1.0507 20
601 2 6.12953 6.16943 1.06025 18
602 2 -9.6029 -4.27554 2.6962 17
603 2 -3.26721 14.7291 -1.09714 8
604 2 -3.47772 3.31962 11.3497 13
605 2 0.769849 -12.9709 0.772698 14
606 2 -5.34295 -11.2921 4.97656 15
607 2 7.79747 -2.55618 10.8171 16
608 2 8.2804 6.24775 -7.22217 12
609 2 2.20882 9.69097 0.725444 16
610 2 4.68363 -9.81854 9.38172 14
611 2 8.01753 -9.79952 -5.13384 13
612 2 -2.34333 3.93714 -10.5523 14
613 2 0.759291 6.22536 11.5121 16
614 2 2.17206 3.30454 7.64517 21
615 2 7.55242 -6.18004 6.25591 20
616 2 -2.90889 -0.802014 -11.8976 14
617 2 12.6645 -1.85049 -6.64317 10
618 2 -4.84488 10.8207 0.135019 20
619 2 3.00425 -6.92675 -8.11564 19
620 2 1.43051 3.67749 13.3719 15
621 2 -9.68943 5.99398 -6.18966 12
622 2 11.3721 -6.61025 -3.97075 15
623 2 4.13952 11.4595 2.80935 15
624 2 9.30912 6.23358 -0.0934409 20
625 2 10.4894 3.6098 5.70888 18
626 2 -6.11229 -2.8836 -4.40138 22
627 2 -10.4754 8.52429 0.225881 12
628 2 -5.99358 3.1725 -3.39672 20
629 2 11.2821 2.53953 -1.39903 19
630 2 -12.1655 7.02465 1.77737 12
631 2 -2.83347 -6.82231 8.22284 18
632 2 4.89184 -1.56432 9.43482 22
633 2 2.44137 -12.7075 -4.50793 15
634 2 0.227222 -2.23173 -7.68275 19
635 2 4.93898 13.1207 -2.8125 12
636 2 8.00305 13.0667 -1.84463 9
637 2 -2.1748 -4.12447 -7.76454 17
638 2 -5.875 -7.50638 -4.74013 18
639 2 12.0716 1.2413 4.3479 16
640 2 -5.63964 6.49014 -2.17359 22
641 2 4.04285 -11.1047 6.96776 12
642 2 8.10192 -5.20885 3.11556 21
643 2 -7.04001 -8.07552 7.0479 12
644 2 -4.76602 -4.5138 -2.18442 19
645 2 3.15702 6.24 9.57737 17
646 2 3.30948 9.98644 -2.23684 21
647 2 -6.72819 10.4318 5.46619 11
648 2 -4.06342 -5.88003 12.46 14
649 2 0.95181 12.7378 1.35634 10
650 2 -1.00475 -10.4868 0.734861 19
651 2 -0.73548 -3.91226 11.2894 22
652 2 6.24062 0.270817 10.9068 16
653 2 -11.138 4.12885 3.29559 14
654 2 -0.552919 3.74036 9.9003 25
655 2 -1.0865 -10.9006 -7.9285 12
656 2 11.7199 -4.68062 -1.3376 16
657 2 10.2058 -8.28248 -6.60907 13
658 2 -2.44078 9.87451 -2.47677 21
659 2 -7.10281 -0.935123 12.8077 14
660 2 -9.20789 3.01791 -2.02839 21
661 2 11.8222 -3.22947 -3.88066 19
662 2 5.44021 5.44278 -1.94577 17
663 2 -3.10167 4.48861 7.50303 19
664 2 -0.313962 6.25709 -8.47981 16
665 2 -11.7559 -3.33362 -2.59663 13
666 2 -2.87188 -0.905627 -8.45824 20
667 2 -1.03621 6.13821 -5.53826 21
668 2 -5.73812 -2.35823 -7.59833 19
669 2 5.92458 -4.9438 -8.10185 17
670 2 -3.74999 -7.35373 -2.40671 20
671 2 -1.62031 -6.15303 12.0021 18
672 2 8.26547 -1.94127 7.70654 20
673 2 8.19276 -6.44119 -8.45748 12
674 2 1.26318 -11.4113 6.28599 14
675 2 10.1912 8.91108 1.43363 12
676 2 -1.89635 11.0938 7.28751 14
677 2 -10.3288 -8.59322 -0.099849 11
678 2 7.27719 4.2587 -5.36122 20
679 2 1.78629 -7.01092 4.33294 18
680 2 -12.6104 9.06035 3.47493 8
681 2 4.59217 0.65706 -5.3359 23
682 2 5.19895 3.85897 5.91417 21
683 2 -11.0382 0.917473 4.6995 16
684 2 -0.391076 9.23344 -7.22389 16
685 2 5.35029 -1.30175 -10.95 15
686 2 -5.71698 1.24437 8.17625 20
687 2 -2.77194 -1.41739 10.6721 22
688 2 12.3984 -1.42136 5.90124 13
689 2 4.03041 1.30856 -12.4139 11
690 2 -7.52264 -5.41581 -4.83916 20
691 2 10.9911 -1.75947 -8.76955 13
692 2 1.24336 -9.44127 -9.85519 14
693 2 -9.47445 4.42223 6.75262 16
694 2 -6.44123 -1.98968 5.9517 21
695 2 4.74411 -11.8532 -2.43381 16
696 2 -0.170625 -11.0244 -4.82382 18
697 2 2.15254 -12.8269 -1.58499 13
698 2 12.3812 -0.291745 -1.30432 17
699 2 -3.87256 8.33117 -7.22284 17
700 2 7.03516 8.479 7.263 11
701 2 -0.82683 -13.0873 -3.27871 13
702 2 6.17165 0.908156 7.66174 23
703 2 0.0596792 9.08942 9.18994 13
704 2 -7.38029 5.32982 -4.63064 20
705 2 2.60276 -10.5703 -7.31505 16
706 2 -5.65434 -13.6258 3.20948 13
707 2 -9.12622 5.90253 3.09139 20
708 2 6.45539 7.92748 -8.51864 13
709 2 -4.72714 7.52612 -10.0625 11
710 2 4.86517 6.15004 -5.85496 17
711 2 -3.51263 -6.01494 -10.0616 16
712 2 0.598357 -8.63098 -6.33059 18
713 2 -9.47683 -2.98612 -4.64353 17
714 2 9.24739 6.15389 6.54797 14
715 2 -6.43274 3.1328 -9.85733 11
716 2 -9.49458 -10.2835 2.68091 13
717 2 8.81633 -3.8994 6.20109 21
718 2 4.90366 3.12126 9.20602 21
719 2 7.371 1.24602 -6.6606 22
720 2 0.199293 8.86362 -4.12368 22
721 2 -0.0808077 12.0013 -3.76214 15
722 2 12.9627 -3.894 4.00287 12
723 2 4.82677 10.264 -7.50818 12
724 2 0.480935 1.6764 14.3769 14
725 2 0.721161 -4.99523 -9.3493 16
726 2 7.10415 4.833 10.6564 11
727 2 -4.45298 10.3662 6.56125 15
728 2 8.21309 -10.28 2.05549 13
729 2 9.02555 -5.1136 -5.97014 20
730 2 -0.349527 12.8827 5.16672 11
731 2 6.18044 -8.52791 12.1889 12
732 2 -2.28189 10.8381 -6.13979 15
733 2 1.24226 11.6517 7.09381 13
734 2 -8.66147 7.47518 -2.66277 16
735 2 3.42212 12.3891 -5.08795 14
736 2 -9.18801 -8.67175 -5.4744 14
737 2 4.10064 -4.21664 -10.7278 18
738 2 -5.862 3.33765 6.41756 18
739 2 13.3142 -2.96861 0.897476 13
740 2 -4.78659 10.2133 -4.51525 15
741 2 -9.24241 -1.54472 7.64057 20
742 2 -3.13775 -10.9372 -4.51395 14
743 2 5.65637 6.36078 7.90258 19
744 2 -0.246563 -6.8538 -11.3487 11
745 2 -6.27273 6.02592 -7.62539 17
746 2 3.78694 6.0558 -10.6718 17
747 2 -3.84471 1.57548 -10.2764 16
748 2 -9.68675 9.84861 3.24815 12
749 2 -6.15998 10.1075 8.74461 9
750 2 6.42497 12.1519 -5.19768 12
751 2 -4.56674 -14.73 0.178057 11
752 2 10.6996 0.672428 -6.4582 17
753 2 5.68223 -5.76232 -5.23262 17
754 2 -8.47541 -12.5779 4.26018 9
755 2 -7.24954 5.34186 0.562064 18
756 2 -10.3133 -6.84092 6.34299 14
757 2 -3.78672 4.19744 -5.10283 25
758 2 2.27682 -11.194 9.58641 10
759 2 10.3779 4.12632 8.79435 11
760 2 6.0317 -3.99925 7.77293 25
761 2 -6.70038 -1.75368 9.2084 20
762 2 6.54004 5.19316 -9.46396 12
763 2 4.00421 9.03751 7.85489 16
764 2 -9.15622 -11.3524 0.401397 13
765 2 -7.6869 -9.0701 4.72159 18
766 2 -7.89779 0.672626 6.30676 21
767 2 -4.4065 7.51113 -4.9639 20
768 2 -10.7339 -5.56373 -4.97783 12
769 2 -7.01086 12.8245 0.679369 10
770 2 4.93315 -6.63292 9.45918 20
771 2 11.5757 7.40751 3.32443 10
772 2 -2.00368 -14.1841 2.20914 12
773 2 -14.1229 -4.43793 2.73561 9
774 2 -11.0083 0.578367 1.51474 18
775 2 -2.07359 1.49325 8.99055 21
776 2 2.22027 -1.14141 14.0515 13
777 2 -0.902903 -8.01536 5.9942 17
778 2 9.04952 0.67306 6.08146 22
779 2 5.70058 -8.60814 -3.77032 15
780 2 -1.99795 7.03619 2.70647 21
781 2 -6.52561 0.25519 -5.4024 21
782 2 -3.54717 -1.40228 7.85398 23
783 2 -0.475679 -6.4674 9.36536 18
784 2 -7.21489 -4.04623 12.6614 11
785 2 1.69148 -4.01488 13.2651 14
786 2 4.84635 3.11228 -7.35091 21
787 2 12.3218 5.97991 5.75822 9
788 2 8.93257 -3.24673 -8.23288 16
789 2 8.98375 -4.98257 9.35913 16
790 2 14.7785 1.54971 -2.25555 10
791 2 8.60392 -4.85973 -0.182545 18
792 2 3.61777 11.6244 5.61845 13
793 2 14.1956 -1.27073 3.04464 12
794 2 -3.18289 -8.45797 10.0458 14
795 2 -1.19881 -4.20744 13.9249 12
796 2 -4.63885 -4.02042 10.8608 21
797 2 2.92876 -11.137 0.816836 19
798 2 4.66442 -7.27421 6.00974 21
799 2 10.4504 -6.19648 4.58734 15
800 2 0.356864 -9.0263 10.6257 14
801 2 -4.67893 7.4294 8.0862 13
802 2 6.96448 1.80852 -2.96967 23
803 2 5.38764 -6.92397 -10.5713 12
804 2 4.49849 -9.63069 -9.42692 12
805 2 2.18901 4.10119 -12.3287 12
806 2 -7.605 0.688838 -8.04024 14
807 2 8.85186 9.921 4.56327 10
808 2 -7.98687 -5.36915 -1.92169 19
809 2 15.1785 2.18517 1.46233 9
810 2 -9.10137 -2.22583 0.810833 21
811 2 5.27168 -4.56141 4.52891 21
812 2 7.00302 10.3893 -2.96221 17
813 2 12.8856 0.232902 -4.13379 17
814 2 11.0574 4.31367 -6.18661 12
815 2 3.13854 -9.10468 12.5866 11
816 2 -11.6665 -7.48845 1.93822 12
817 2 10.7686 -1.79731 8.8771 13
818 2 6.46202 -7.77897 3.47038 22
819 2 9.46625 8.54926 -1.52957 14
820 2 -8.92497 3.65634 9.13328 12
821 2 -10.7884 5.02037 -0.406918 15
822 2 10.6156 -1.99015 -0.82878 20
823 2 6.4447 -11.0171 4.21088 15
824 2 -8.57226 -8.06226 -2.57614 15
825 2 6.37367 8.37933 -0.435046 17
826 2 7.78166 -10.2596 -1.52758 16
827 2 2.92363 6.44462 2.39319 21
828 2 -4.92182 -8.77948 4.93165 18
829 2 -0.303389 -1.45963 9.29567 22
830 2 -2.87432 9.45233 9.2259 13
831 2 -0.820917 -3.81132 -11.9684 11
832 2 -10.409 3.06734 -6.28694 9
833 2 -10.9673 -4.28698 7.81017 12
834 2 4.6709 -3.3884 12.3145 15
835 2 -9.24381 -2.0541 -7.43015 10
836 2 8.72007 0.954254 9.45932 18
837 2 9.19572 -4.34149 -2.99071 19
838 2 -6.99933 3.2753 -6.91554 19
839 2 7.88946 7.26888 -4.03669 12
840 2 -4.08681 -10.0697 0.0100986 17
841 2 -3.471 13.2323 1.19754 15
842 2 2.17124 13.5725 4.12783 9
843 2 6.79394 -7.85796 0.0887668 20
844 2 4.80159 -10.5984 -5.58573 14
845 1 -5.16962 -2.4951 -2.29881 21
846 1 -6.73833 -4.41249 -0.826238 20
847 1 -0.041319 -7.27288 -2.43332 21
848 1 0.0154041 -1.27721 -5.86203 22
849 1 -2.27502 -2.39211 -3.9665 23
850 1 0.0515933 -4.35257 -4.05923 23
851 1 -3.16322 -5.39834 -2.71394 22
852 1 0.0940348 -1.31446 -2.478 21
853 1 -2.80578 -2.53307 -0.824621 22
854 1 -0.341123 -4.74502 -0.554248 20
855 2 -6.18321 -2.48975 -0.745919 21
856 2 -1.27425 -7.84739 -0.758694 23
857 2 -3.36061 -1.35079 -5.64583 21
858 2 -0.0903819 -5.014 -5.76422 20
859 2 -2.61823 -4.22694 -4.26558 21
860 2 -0.448929 -2.13485 -4.13806 21
861 2 -3.41546 -1.96529 -2.55129 22
862 2 -0.165298 -5.47548 -2.40308 17
863 2 -2.34632 -4.57358 -0.871936 23
864 2 -0.75075 -2.22376 -0.77475 21
865 1 -5.80508 -1.51806 1.0746 21
866 1 -6.06924 -1.29008 4.12673 23
867 1 -0.216617 -7.33128 1.00072 24
868 1 -0.241437 -7.28129 4.3769 19
869 1 -3.6734 -5.33929 0.789953 24
870 1 0.206587 -1.81288 0.906045 19