ITEM: TIMESTEP
78000
ITEM: NUMBER OF ATOMS
500
ITEM: BOX BOUNDS pp pp pp
-30.0 30.0
-30.0 30.0
-30.0 30.0
ITEM: ATOMS id type x y z Coordination
1 1 -11.694 10.2935 -2.98788 20
2 1 -16.6326 19.5989 2.36315 13
3 1 -6.94883 13.0483 -2.36075 9
4 1 -27.4183 14.9494 -6.86596 12
5 1 -18.9637 17.5529 -16.0922 15
6 1 -14.3768 14.6373 -0.38465 23
7 1 -24.0158 16.7909 -8.48153 20
8 1 -16.0272 18.4275 -17.0349 14
9 1 -10.8089 9.4427 -11.7739 14
10 1 -11.0188 17.0531 -3.05868 20
11 1 -15.764 23.2672 -11.8865 18
12 1 -13.7614 20.0712 0.986001 11
13 1 -24.2381 14.8865 -5.7859 20
14 1 -25.5986 13.4529 -8.95709 17
15 1 -8.91039 14.1866 -14.0002 14
16 1 -12.8453 14.1122 2.21253 12
17 1 -23.8782 10.2994 -4.03879 14
18 1 -22.685 9.96834 -16.0103 11
19 1 -12.0655 14.9464 -14.7436 16
20 1 -10.6769 9.36864 -6.22788 13
21 1 -22.474 23.5694 -6.35766 14
22 1 -15.8036 23.9206 -5.84789 12
23 1 -17.6384 11.0006 -13.6767 24
24 1 -18.0272 17.1158 2.74129 13
25 1 -8.87069 12.4014 -6.83414 17
26 1 -20.7615 22.8147 -3.27148 17
27 1 -13.8772 21.1074 -10.8151 23
28 1 -10.0595 22.5046 -8.78271 17
29 1 -19.8138 25.8394 -10.465 7
30 1 -20.885 19.3447 -16.6789 11
31 1 -20.7528 20.6995 -11.2645 22
32 1 -15.1388 25.5152 -9.13077 11
33 1 -25.9286 17.6606 -6.41837 16
34 1 -16.7434 21.3334 -0.464512 18
35 1 -20.1734 16.6071 -13.4478 21
36 1 -20.4902 9.32004 -0.68207 15
37 1 -8.91871 12.191 -11.5455 17
38 1 -24.124 17.867 -1.79684 16
39 1 -24.1939 15.0473 -10.9953 17
40 1 -15.9872 9.24994 -2.23712 17
41 1 -8.02225 19.6574 -13.342 14
42 1 -23.7334 13.5606 -16.7656 11
43 1 -14.0039 20.5308 -16.6196 11
44 1 -17.6433 4.7778 -3.68067 14
45 1 -18.678 23.4217 -11.9572 20
46 1 -22.7684 15.6495 -3.10326 18
47 1 -11.5487 21.8576 -1.32426 11
48 1 -10.7208 14.7253 -0.775788 15
49 1 -12.3566 6.37966 -11.6243 11
50 1 -10.3859 17.1966 -14.1346 17
51 1 -22.0561 7.81857 -8.61939 17
52 1 -18.8985 8.18948 -3.69089 22
53 1 -12.3179 12.191 -0.300178 20
54 1 -13.4905 10.4454 1.71655 12
55 1 -11.2532 25.0137 -7.37466 8
56 1 -20.8629 5.22697 -3.87543 14
57 1 -19.2431 3.43031 -6.48527 13
58 1 -20.6516 9.16204 -10.8572 21
59 1 -18.3697 12.1373 -0.106983 20
60 1 -26.4439 16.3201 -3.88749 12
61 1 -13.9493 5.6199 -8.62628 13
62 1 -25.8189 11.7414 -6.47374 9
63 1 -21.7808 23.5245 -11.9418 12
64 1 -24.4428 21.0965 -1.04532 12
65 1 -19.3748 20.1059 1.11817 13
66 1 -24.0916 10.8945 -13.4713 17
67 1 -24.2933 17.263 -13.6472 15
68 1 -20.7528 10.9996 -13.6263 20
69 1 -9.26018 14.7663 -3.7182 15
70 1 -16.6683 6.3568 -0.608294 11
71 1 -20.8223 15.2827 -16.5884 14
72 1 -26.4961 12.6477 -12.5531 11
73 1 -20.0602 4.70452 -9.67901 15
74 1 -22.0476 21.6696 1.23695 10
75 1 -22.2221 19.704 -8.25937 20
76 1 -15.9464 6.48938 -11.5427 19
77 1 -17.5481 22.653 -3.37839 16
78 1 -25.4552 11.9537 -15.9201 11
79 1 -25.5912 20.038 -8.83811 13
80 1 -19.2456 6.69526 -12.5576 18
81 1 -10.345 7.86665 -3.53548 11
82 1 -26.5979 19.1357 -11.9403 10
83 1 -23.4372 15.1433 0.12052 10
84 1 -24.1756 22.4087 -3.75599 16
85 1 -16.1012 8.594 -13.7991 20
86 1 -17.2098 15.445 -0.513628 22
87 1 -18.3523 8.13485 1.42266 11
88 1 -14.0382 9.39626 -11.1494 25
89 1 -9.27543 19.7674 -8.257 19
90 1 -14.6493 15.5023 -16.2907 16
91 1 -9.4947 11.3669 -0.744827 10
92 1 -22.0116 5.71956 -11.1832 12
93 1 -23.9036 13.0303 -2.91492 14
94 1 -7.28849 16.6314 -2.74158 14
95 1 -5.69767 16.5924 -5.27648 11
96 1 -15.009 19.9246 -13.4723 22
97 1 -17.1631 22.619 -14.4712 14
98 1 -12.832 23.6443 -4.46842 15
99 1 -12.5205 17.8128 -16.5809 14
100 1 -15.8422 4.62258 -6.39216 14
101 1 -9.18134 14.3921 -9.16837 20
102 1 -18.5553 6.22042 -6.16841 21
103 1 -26.4105 14.8214 -15.1421 10
104 1 -6.31663 15.1001 -10.4525 14
105 1 -20.5587 22.2531 -14.8129 13
106 1 -13.3993 7.64443 -13.9334 11
107 1 -23.6362 10.8932 -0.63317 11
108 1 -17.2471 4.53379 -9.0941 15
109 1 -13.7598 10.5072 -16.1555 10
110 1 -13.862 23.0641 -7.6494 19
111 1 -12.8537 6.64093 -5.83842 16
112 1 -22.226 8.02438 -13.6159 16
113 1 -16.9279 10.6551 2.03188 13
114 1 -16.6582 14.2988 2.10721 15
115 1 -14.3208 11.729 -13.573 20
116 1 -27.2791 16.0862 -13.0712 10
117 1 -12.4176 23.7733 -10.6709 16
118 1 -10.8252 15.0685 -11.8917 22
119 1 -17.8763 20.9668 -16.9406 12
120 1 -26.2518 19.3945 -3.55593 12
121 1 -15.5036 12.0793 -0.408322 22
122 1 -23.0248 17.0116 -16.5662 10
123 1 -5.82416 12.9362 -5.71265 12
124 1 -12.6261 17.135 -0.281923 16
125 1 -14.9883 8.37266 0.513705 14
126 1 -7.46992 20.7542 -5.51597 14
127 1 -6.54938 19.3168 -2.92154 10
128 1 -19.3589 9.06798 -15.0959 13
129 1 -9.61904 18.9099 -1.246 12
130 1 -22.3423 19.398 -14.1088 17
131 1 -18.4707 17.8444 -0.582658 19
132 1 -21.8678 5.19496 -7.39195 13
133 1 -12.1909 19.8867 -3.35773 20
134 1 -22.5566 23.7996 -0.701288 9
135 1 -20.9679 20.9559 -5.65132 24
136 1 -7.57091 21.2161 -10.4942 13
137 1 -14.8091 16.6886 2.27688 17
138 1 -17.6053 14.9169 -17.4869 11
139 1 -15.5048 17.7151 -0.273881 22
140 1 -6.11752 12.9817 -12.5961 8
141 1 -9.6077 23.7619 -5.27354 13
142 1 -13.6398 7.8543 -2.48387 18
143 1 -19.1703 23.9771 -6.01368 13
144 1 -17.1922 9.72309 -16.6355 12
145 1 -11.5606 8.41511 -0.504406 12
146 1 -20.447 17.1431 -2.71965 21
147 1 -7.32107 14.5519 -7.00221 18
148 1 -16.7547 25.9021 -12.3408 9
149 1 -9.01785 18.0781 -11.1531 21
150 1 -19.4536 14.0194 4.11027 6
151 1 -21.82 12.8113 1.71931 11
152 1 -23.8142 22.3734 -9.39664 15
153 1 -7.73896 23.0881 -7.69665 10
154 1 -22.0335 8.18783 -2.62286 15
155 1 -7.06463 17.0937 -8.40455 14
156 1 -23.1418 6.94162 -5.30274 11
157 1 -8.9302 18.1372 -5.42611 21
158 1 -10.6052 11.2512 -8.8834 19
159 1 -14.2652 22.2709 -2.0843 15
160 1 -25.5137 11.0187 -10.4918 12
161 1 -17.2799 22.9658 -8.64788 19
162 1 -10.9026 20.3916 -14.7631 13
163 1 -22.534 13.989 -13.4046 20
164 1 -16.3198 12.4171 -16.2797 20
165 1 -18.7952 4.08374 -12.4221 8
166 1 -15.832 7.34157 -4.70064 18
167 1 -6.85379 12.1363 -9.03563 13
168 1 -27.0054 17.1729 -9.62783 12
169 1 -18.3935 19.8613 -13.5796 22
170 1 -23.7684 8.49804 -11.1915 14
171 1 -7.27582 10.5689 -3.3734 7
172 1 -19.9361 12.0367 -16.5619 16
173 1 -24.3164 20.4383 -6.12789 18
174 1 -22.168 18.5023 0.0238056 14
175 1 -10.877 21.0291 -6.04869 23
176 1 -5.75708 18.3509 -11.3048 12
177 1 -20.093 10.6327 2.64058 10
178 1 -13.9183 16.8158 -13.6912 21
179 1 -10.555 21.1281 -11.4146 19
180 1 -9.40092 21.5731 -3.16871 14
181 1 -12.9997 22.2169 -13.5013 15
182 1 -6.76306 16.6617 -13.5027 13
183 1 -11.1516 11.9303 -14.0711 14
184 1 -19.3454 23.1402 -0.424227 12
185 1 -20.7021 22.954 -8.96824 20
186 1 -19.6617 5.9597 -0.996951 12
187 1 -12.1233 8.26222 -8.85074 16
188 1 -23.9196 10.5177 -8.11065 16
189 1 -24.2612 20.8735 -12.013 13
190 2 -26.047 13.61 -6.31383 13
191 2 -9.01559 19.9778 -6.22923 20
192 2 -20.8218 14.9638 -14.3555 19
193 2 -27.2455 14.1139 -13.5356 9
194 2 -19.4432 7.5793 -0.0854208 13
195 2 -15.2582 10.091 1.30977 16
196 2 -9.17641 14.102 -5.37102 20
197 2 -21.3646 20.0354 0.947914 14
198 2 -10.8123 11.2024 -12.3063 19
199 2 -21.0382 17.2255 -16.391 14
200 2 -18.2104 11.3895 -16.5112 15
201 2 -19.1257 23.2069 -2.37206 15
202 2 -6.0501 12.2864 -4.00829 10
203 2 -9.56503 24.0855 -7.61273 12
204 2 -18.3217 21.7703 0.597647 12
205 2 -7.94431 22.7172 -5.72374 11
206 2 -11.1921 22.5254 -10.5292 17
207 2 -10.8211 13.8765 -14.4078 16
208 2 -25.9864 16.6084 -14.3151 11
209 2 -15.2221 7.35696 -1.44115 15
210 2 -25.7275 17.6453 -2.82673 14
211 2 -12.0775 8.14751 -12.6219 13
212 2 -17.2358 3.61003 -7.20388 13
213 2 -10.5565 20.5184 -2.02695 13
214 2 -13.149 12.2269 1.59823 13
215 2 -20.7706 6.67371 -2.70777 17
216 2 -17.7825 5.53835 -1.91178 13
217 2 -22.722 8.47292 -4.35511 17
218 2 -20.2994 4.21725 -7.82018 12
219 2 -21.8116 4.83317 -5.40191 10
220 2 -20.4745 22.4629 -12.7811 17
221 2 -13.996 15.036 -14.4093 20
222 2 -7.93567 20.4724 -3.65523 13
223 2 -12.2773 19.7454 -16.0707 12
224 2 -23.3693 16.3593 -12.0684 17
225 2 -7.36042 14.977 -8.7355 18
226 2 -19.1708 23.6524 -7.95241 18
227 2 -22.668 23.1953 -2.47964 15
228 2 -15.558 24.2273 -7.79894 11
229 2 -17.1006 24.1751 -13.264 11
230 2 -16.831 17.9992 -1.7321 21
231 2 -19.8185 10.8542 0.716343 16
232 2 -15.4597 10.5707 -16.8476 12
233 2 -18.3435 4.028 -10.6068 11
234 2 -17.5486 9.20187 -14.6832 18
235 2 -23.7455 8.97134 -9.27157 15
236 2 -8.75882 11.9169 -9.42253 18
237 2 -8.01262 18.6113 -1.93012 11
238 2 -17.3404 16.7296 -16.6859 15
239 2 -15.7696 14.098 -17.0024 12
240 2 -19.2533 11.9051 -13.8691 19
241 2 -14.501 9.30675 -14.727 16
242 2 -12.2358 16.9475 -14.9085 17
243 2 -20.0709 9.20908 -2.63635 16
244 2 -16.0047 12.3692 -14.4339 22
245 2 -17.3134 5.9168 -12.5693 14
246 2 -18.8326 17.9226 -14.089 19
247 2 -21.1198 20.7705 -3.56033 18
248 2 -21.6958 7.16648 -6.56333 18
249 2 -20.9798 23.1343 0.437612 10
250 2 -22.1828 9.84943 -1.43638 14
251 2 -27.3161 15.9327 -8.52205 11
252 2 -11.0677 10.218 -1.15718 18
253 2 -8.69022 18.1005 -9.08508 21
254 2 -19.2522 14.1374 -16.7113 14
255 2 -14.2701 20.5479 -3.15899 20
256 2 -10.337 22.1603 -4.59216 16
257 2 -16.6684 11.0219 -1.45393 19
258 2 -22.37 17.5377 -3.33919 20
259 2 -22.4264 11.8007 -14.0002 18
260 2 -7.44316 17.3001 -6.37523 18
261 2 -25.5861 11.5709 -8.35668 13
262 2 -21.8705 19.381 -12.231 19
263 2 -14.3036 17.4264 -16.8976 13
264 2 -22.3487 19.8401 -6.31753 21
265 2 -11.0372 9.64025 -9.77131 18
266 2 -15.4921 5.88993 -9.7138 18
267 2 -22.5408 23.2771 -8.3095 15
268 2 -16.4832 5.52207 -4.88777 16
269 2 -14.2191 5.45797 -6.83175 13
270 2 -13.7976 18.0108 0.952409 14
271 2 -17.3196 22.4481 -10.538 24
272 2 -23.0127 11.6535 0.929843 11
273 2 -19.0694 8.38983 -5.69428 20
274 2 -18.8689 13.5208 -1.25864 17
275 2 -11.2981 21.6031 -13.2972 13
276 2 -6.3668 14.8882 -12.7942 12
277 2 -12.0782 14.96 0.527799 15
278 2 -11.0357 20.9762 -8.2388 22
279 2 -17.4929 23.099 -5.26404 16
280 2 -24.1987 10.6966 -6.09573 16
281 2 -15.6987 20.4305 0.912625 13
282 2 -10.6379 12.8028 -0.30768 12
283 2 -15.9326 20.3058 -17.0637 13
284 2 -16.2013 17.8124 2.99256 12
285 2 -10.9249 9.41609 -4.38494 16
286 2 -25.8076 11.7937 -14.0851 14
287 2 -25.5075 20.0441 -10.6502 10
288 2 -25.8903 13.759 -16.4811 8
289 2 -20.3291 12.4758 3.1857 9
290 2 -11.5832 24.7189 -5.6352 10
291 2 -23.5557 8.97799 -14.721 13
292 2 -5.91652 16.9807 -10.0055 12
293 2 -23.9444 20.6551 -8.19595 17
294 2 -7.03516 12.5473 -7.15664 12
295 2 -24.6387 11.4696 -2.21373 9
296 2 -22.0326 7.72666 -11.6667 15
297 2 -16.7191 21.0789 -13.5877 19
298 2 -23.8344 22.3799 -5.63476 14
299 2 -16.6913 7.47141 1.03591 11
300 2 -25.5871 19.3361 -5.43288 15
301 2 -22.9109 22.0144 -11.7674 15
302 2 -18.2956 14.9782 2.83586 11
303 2 -24.8186 19.1577 -12.9622 13
304 2 -12.6354 24.0528 -8.69257 15
305 2 -18.2203 18.4142 1.20268 17
306 2 -14.1344 16.4901 -1.44609 23
307 2 -23.785 11.6928 -16.4772 11
308 2 -18.7893 22.0911 -15.5168 12
309 2 -19.1036 8.12627 -11.039 19
310 2 -10.9224 14.9682 -2.7232 21
311 2 -8.31724 21.558 -8.74841 15
312 2 -12.63 9.06469 0.853989 11
313 2 -10.5051 16.9202 -12.1587 22
314 2 -12.5747 23.0059 -2.82369 14
315 2 -20.1647 18.8545 -1.33514 18
316 2 -24.5405 10.0351 -11.7041 16
317 2 -18.2992 6.05555 -8.29413 20
318 2 -13.7788 22.789 -11.7197 18
319 2 -25.3477 21.0223 -3.21034 12
320 2 -24.5284 15.1814 -3.87821 16
321 2 -20.3243 5.12823 -11.9509 11
322 2 -14.5733 14.6409 2.47129 12
323 2 -14.178 20.919 -14.7808 15
324 2 -12.2262 19.9684 -11.2038 21
325 2 -14.1675 6.58604 -12.6428 11
326 2 -7.44835 14.7418 -2.83068 13
327 2 -10.9806 17.389 -1.13388 14
328 2 -18.1685 26.1353 -11.1501 9
329 2 -23.178 18.2053 -15.2444 13
330 2 -20.8016 10.2215 -15.4569 16
331 2 -16.0473 22.5889 -1.93907 13
332 2 -20.4884 24.0393 -10.7407 14
333 2 -27.3179 17.4859 -11.4536 11
334 2 -23.4237 22.2183 -0.0510767 11
335 2 -15.3746 18.0945 -14.0877 22
336 2 -12.8717 11.414 -14.7463 16
337 2 -25.428 18.0254 -8.41475 18
338 2 -19.0624 19.4012 -17.0387 12
339 2 -8.51665 9.00793 -3.1433 9
340 2 -23.3192 14.4432 -1.59961 15
341 2 -23.4008 19.6704 -1.16877 16
342 2 -11.7018 7.59761 -2.18644 12
343 2 -27.2818 16.365 -5.6037 12
344 2 -21.7696 14.5449 0.677649 9
345 2 -18.408 9.54859 2.51951 11
346 2 -5.83523 14.787 -5.87077 13
347 2 -15.7809 8.57739 -11.9187 21
348 2 -20.8866 23.092 -5.49197 16
349 2 -22.7979 15.0562 -16.6757 11
350 2 -22.6119 11.9197 -3.71755 21
351 2 -13.7247 12.8947 -1.37783 23
352 2 -9.74649 19.0017 -13.9718 16
353 2 -5.82449 17.6583 -3.72315 11
354 2 -8.1997 11.5805 -2.05109 10
355 2 -7.96693 12.7332 -13.2076 13
356 2 -12.3512 8.44232 -6.57784 17
357 2 -10.4069 11.1015 -6.96126 17
358 2 -22.9945 16.9203 -0.441722 14
359 2 -5.87487 20.2002 -10.9531 9
360 2 -25.4809 12.9539 -10.951 14
361 2 -24.2487 16.5099 -6.57381 23
362 2 -13.8015 7.44043 -4.36253 16
363 2 -15.7539 25.1124 -10.9453 12
364 2 -7.33685 18.0434 -12.3376 15
365 2 -8.91525 20.1138 -11.4794 18
366 2 -14.2569 9.79597 -2.5409 23
367 2 -6.24908 13.1899 -10.5146 13
368 2 -12.6934 6.70734 -9.77566 15
369 2 -19.8783 7.73764 -14.0924 14
370 2 -14.3045 22.6618 -5.67825 17
371 2 -12.8246 21.2083 -0.199074 11
372 2 -19.242 4.88794 -4.89965 16
373 2 -16.8125 12.5688 1.1367 18
374 2 -9.14535 16.9234 -3.83138 20
375 2 -8.54909 16.2873 -14.1857 14
376 2 -21.2997 20.7172 -15.229 12
377 2 -21.6469 5.94798 -9.34919 15
378 2 -9.63631 14.0083 -10.9901 20
379 1 -22.627 11.9456 -10.9949 23
380 1 -18.9934 13.9001 -13.7506 21
381 1 -17.28 9.2507 -10.9191 22
382 1 -19.3248 12.3438 -11.0412 22
383 2 -20.5697 9.18105 -8.821 20
384 2 -22.6139 11.7189 -9.03186 23
385 2 -22.5082 13.9553 -11.3339 18
386 2 -20.9152 11.1 -11.5575 23
387 2 -17.1816 9.33378 -9.08335 22
388 2 -19.2645 12.2431 -9.10629 21
389 2 -19.3448 14.1481 -11.7675 20
390 2 -17.1284 11.2204 -11.8646 22
391 1 -22.3523 13.8681 -8.5241 23
392 1 -20.8057 11.2395 -8.18995 21
393 1 -20.9349 9.04163 -5.73978 21
394 1 -22.3701 12.056 -5.64184 19
395 1 -20.4388 14.5869 -0.787439 15
396 1 -20.8355 11.3774 -2.7842 23
397 1 -18.6806 7.7914 -9.03273 19
398 1 -18.8563 14.1936 -8.18591 22
399 1 -17.8001 11.1176 -8.54904 19
400 1 -17.246 9.33754 -5.92776 21
401 1 -19.3551 12.1866 -5.89078 23
402 1 -18.8713 14.2557 -3.00893 20
403 1 -17.581 11.1467 -3.1513 20
404 2 -22.1204 13.8809 -6.46441 21
405 2 -20.8472 11.0107 -6.28566 22
406 2 -17.0481 8.67161 -3.81903 21
407 2 -19.1851 12.1099 -3.94534 22
408 2 -19.2156 14.125 -6.21282 23
409 2 -17.485 11.1478 -6.63946 22
410 2 -19.0399 16.1483 -1.0049 18
411 1 -20.7567 15.0225 -10.9986 23
412 1 -22.0686 17.7688 -11.1692 21
413 1 -17.1088 17.0025 -13.7453 22
414 1 -17.4412 15.2918 -11.1798 21
415 1 -18.8334 18.1071 -11.0052 23
416 1 -17.2271 20.5384 -10.6632 22
417 2 -24.2169 14.7975 -9.08713 21
418 2 -20.776 15.1021 -8.76611 22
419 2 -22.3267 17.7894 -9.00427 22
420 2 -20.2976 16.8938 -11.6534 20
421 2 -20.9053 20.7931 -9.2753 23
422 2 -17.313 14.95 -13.6156 24
423 2 -17.3617 15.1169 -9.07395 22
424 2 -18.9968 18.2667 -8.90942 23
425 2 -18.7879 19.9733 -11.7652 20
426 2 -17.1104 17.3085 -11.6079 23
427 2 -17.5233 20.8258 -8.60748 18
428 1 -20.9069 16.8705 -8.20805 22
429 1 -20.7656 15.1884 -5.81597 22
430 1 -22.8088 17.8063 -5.55185 24
431 1 -22.406 19.6753 -2.77662 23
432 1 -19.3796 20.1794 -8.20642 24
433 1 -17.3999 17.1045 -8.77411 22
434 1 -17.4068 15.1071 -6.06902 21
435 1 -19.1398 18.0179 -5.96064 21
436 1 -19.4012 19.894 -3.15814 18
437 1 -17.2976 16.9925 -3.38331 24
438 1 -17.4977 20.8877 -5.77113 22
439 2 -20.6474 15.1652 -3.67388 23
440 2 -21.1174 17.2046 -6.52425 22
441 2 -17.1569 15.0508 -4.02849 22
442 2 -18.9388 18.0196 -3.86214 25
443 2 -19.1705 20.1067 -6.27043 21
444 2 -17.6157 17.1366 -6.55821 23
445 2 -16.0348 16.2193 0.841454 19
446 2 -17.5396 20.7608 -3.45623 20
447 1 -15.4852 14.1426 -13.6258 22
448 1 -15.7578 12.3682 -11.0651 24
449 1 -12.1207 12.3204 -11.0302 21
450 2 -13.9878 9.44906 -8.98641 21
451 2 -15.8022 12.1797 -9.2292 23
452 2 -15.624 14.286 -11.5751 21
453 2 -14.0305 11.2384 -11.6407 24
454 2 -12.3779 12.2459 -9.16642 23
455 2 -12.5627 14.049 -11.4644 22
456 1 -15.612 8.42265 -8.55298 22
457 1 -15.6513 14.1133 -8.68733 21
458 1 -14.2302 11.4175 -8.58724 23
459 1 -13.8858 9.50366 -6.07244 24
460 1 -15.8236 12.1495 -6.01787 24
461 1 -15.8065 13.9919 -3.28461 23
462 1 -14.1995 11.6176 -2.90933 21
463 1 -12.2987 14.0062 -8.39059 21
464 1 -12.3533 12.3192 -5.79536 21
465 1 -12.4639 13.9192 -3.02825 21
466 2 -15.4678 8.48917 -6.44375 20
467 2 -16.0877 12.0196 -3.95552 23
468 2 -15.9462 14.1084 -6.54799 21
469 2 -14.0783 11.4853 -6.59727 21
470 2 -16.0157 14.1427 -1.3696 24
471 2 -12.5331 12.1648 -3.88719 19
472 2 -12.4602 14.186 -6.27352 20
473 1 -14.0283 15.066 -11.1359 23
474 1 -15.6071 18.2012 -10.9728 22
475 1 -12.3554 18.023 -11.2866 20
476 2 -14.057 15.1528 -8.57244 20
477 2 -15.6568 17.864 -8.95572 23
478 2 -15.4422 20.1653 -11.3582 23
479 2 -14.0284 17.0465 -11.5418 22
480 2 -14.276 21.3195 -8.80982 22
481 2 -10.6018 15.0425 -8.15143 20
482 2 -12.1139 17.919 -9.21305 20
483 1 -15.8855 19.7781 -8.38409 22
484 1 -13.7424 17.1322 -8.52503 20
485 1 -14.1731 15.0311 -5.9951 22
486 1 -15.7706 17.743 -6.072 24
487 1 -16.0034 19.5432 -2.9995 21
488 1 -14.1359 16.8793 -3.47199 23
489 1 -14.4895 20.6093 -5.23865 23
490 1 -12.6181 19.9556 -8.69189 21
491 1 -10.4544 16.9772 -8.34827 20
492 1 -10.7359 15.1879 -6.15831 21
493 1 -12.2193 18.0702 -5.95967 22
494 2 -14.0656 14.8786 -3.98331 25
495 2 -15.5757 17.9184 -4.08602 22
496 2 -15.957 19.8589 -6.33345 20
497 2 -13.8683 17.0351 -6.63298 24
498 2 -12.6148 17.963 -3.93001 21
499 2 -12.5274 20.0264 -5.62061 18
500 2 -10.5609 17.2386 -6.3224 20
