ITEM: TIMESTEP
1000
ITEM: NUMBER OF ATOMS
2000
ITEM: BOX BOUNDS pp pp pp
-30.0 30.0
-30.0 30.0
-30.0 30.0
ITEM: ATOMS id type x y z Coordination
1 1 -9.63416 5.10887 -10.3276 21
2 1 -3.56173 -10.0547 -8.51053 16
3 1 1.26321 12.7188 12.5828 14
4 1 5.28806 -9.46964 5.49735 17
5 1 -11.0406 8.57091 0.0546594 20
6 1 9.94246 -4.66245 -9.02401 16
7 1 -14.0422 3.2438 -5.43969 17
8 1 -0.58492 -2.58874 10.7186 22
9 1 -8.74631 -0.837272 -10.554 17
10 1 -14.9171 -8.96488 6.11395 11
11 1 13.091 5.02839 -8.4698 16
12 1 -4.75203 -10.4882 1.30205 19
13 1 -17.4851 -8.1263 4.88953 9
14 1 0.742459 4.41357 16.7669 12
15 1 -1.35485 5.88704 8.47197 21
16 1 -1.79497 11.1209 -8.89763 19
17 1 2.90979 5.87611 16.4496 20
18 1 -9.28438 -2.01826 -15.8156 10
19 1 -16.3198 -2.58065 12.4516 8
20 1 14.8128 4.81032 4.78291 17
21 1 -1.32326 11.9226 -12.1739 14
22 1 3.53727 7.79791 -11.0136 16
23 1 14.5131 4.40625 11.7062 12
24 1 -15.0683 5.4543 -7.10537 10
25 1 -3.55114 -2.86643 -7.6739 19
26 1 -11.469 8.57838 10.8657 14
27 1 5.8246 -13.1309 4.67718 9
28 1 1.8497 -13.13 -10.2809 15
29 1 9.32895 -11.845 1.36298 10
30 1 -9.63643 -12.052 -5.75055 9
31 1 -12.6171 -6.0603 11.8431 13
32 1 1.34702 -7.43241 -10.32 20
33 1 6.9651 -8.69771 -9.1236 15
34 1 -3.64425 4.90025 -15.6206 9
35 1 5.02283 8.43212 16.8299 22
36 1 -1.86332 -11.2618 6.85422 18
37 1 4.32911 -4.46509 10.8632 19
38 1 -15.2538 1.16168 3.46936 18
39 1 -17.7055 3.57385 7.57491 9
40 1 -10.8335 3.13798 -0.376767 20
41 1 -4.84116 14.4781 0.548343 20
42 1 -2.4044 -14.585 -9.75068 11
43 1 0.333214 3.13173 -10.7975 21
44 1 4.86558 -2.80079 -7.44885 20
45 1 0.838606 -2.44185 15.2894 14
46 1 -13.3031 8.42475 1.72987 24
47 1 3.99803 11.1346 -7.15827 19
48 1 -0.748496 14.6582 7.27358 18
49 1 -10.5311 7.27546 -7.97846 18
50 1 -2.73116 17.3045 -0.172916 11
51 1 2.05404 -11.4571 1.85993 17
52 1 5.95163 -5.93013 -2.66131 19
53 1 6.43711 -5.21581 -13.7347 14
54 1 -8.81259 7.47799 13.1184 14
55 1 -12.512 -3.29443 -9.19315 15
56 1 7.71878 -1.18435 5.05971 22
57 1 -11.0101 10.3378 -3.00874 17
58 1 -9.86376 -9.01784 5.17877 17
59 1 -6.20715 15.7825 7.6008 9
60 1 -13.4954 8.79199 -7.73482 12
61 1 -5.74386 9.33845 12.9932 18
62 1 -10.3402 -12.0978 6.66371 21
63 1 2.72531 5.62962 7.71769 21
64 1 7.027 -14.2346 -4.56063 7
65 1 5.36873 13.4327 14.9723 11
66 1 -12.582 2.96837 -10.5106 15
67 1 -13.1348 6.80185 -10.0968 11
68 1 1.93848 9.88795 11.1315 20
69 1 14.0045 -2.19298 -10.9835 8
70 1 7.44755 -10.4616 4.03854 13
71 1 -17.7637 0.0412969 6.26915 11
72 1 6.4894 16.9628 5.12327 13
73 1 3.68139 -3.63871 14.8447 12
74 1 -12.6366 -11.1091 4.9841 16
75 1 -12.6329 -0.0302395 -1.0431 21
76 1 11.0595 4.46589 6.04028 21
77 1 -9.15268 13.9171 9.16973 12
78 1 5.8249 -0.448249 7.39055 22
79 1 -3.02888 -7.31066 -9.15824 17
80 1 -12.8178 5.48374 10.4822 16
81 1 -9.33388 11.1688 -0.738892 22
82 1 -0.571689 7.11458 -7.77201 16
83 1 7.56833 -1.91294 -4.54251 20
84 1 8.74065 12.1599 -10.5467 8
85 1 10.7683 -2.99007 5.50594 20
86 1 3.96918 -10.4063 10.2448 10
87 1 -8.85321 16.5985 -7.49933 7
88 1 -10.018 9.55881 6.76539 18
89 1 -10.3274 -3.32014 16.723 11
90 1 -4.26965 8.14287 5.32382 22
91 1 -7.00204 -5.28843 9.58532 20
92 1 12.1956 -4.41166 -4.22226 20
93 1 -8.96421 3.86191 7.33106 21
94 1 -12.2479 -13.6495 3.50674 13
95 1 8.69444 -4.9665 -4.65234 20
96 1 5.40811 -1.01324 -10.1811 17
97 1 -7.33409 -0.91698 -13.1859 18
98 1 -0.327764 12.0913 1.80094 23
99 1 -10.4483 8.83049 -5.54138 21
100 1 1.49951 8.95207 16.9132 20
101 1 -1.59806 13.6577 -5.85003 23
102 1 -14.6427 11.1154 2.03276 12
103 1 1.72669 11.1456 0.0561294 19
104 1 -6.08241 -6.20178 5.11267 19
105 1 13.5803 3.17338 8.57625 16
106 1 -0.645628 -5.54416 -8.05329 19
107 1 0.161067 -4.46025 -10.8723 22
108 1 -3.88495 6.1373 7.6674 20
109 1 2.82355 -0.541016 17.8369 7
110 1 -12.199 -6.3965 -0.801256 19
111 1 -7.04559 -6.98604 -5.20713 19
112 1 9.19372 -8.42946 2.07996 19
113 1 -2.21586 9.18317 2.43175 20
114 1 8.98446 5.67394 -15.0428 11
115 1 4.34972 18.8387 -2.51308 10
116 1 -9.78255 -12.0317 10.5426 14
117 1 -11.2077 -14.0904 8.99585 10
118 1 4.40386 -7.60504 -13.3928 14
119 1 5.07397 5.2509 -5.04998 19
120 1 10.5695 -8.69776 -0.413385 16
121 1 -5.97508 -16.8683 4.86385 16
122 1 -14.4839 -8.48617 -0.248858 15
123 1 15.9036 11.3015 10.081 12
124 1 15.062 -1.16711 -8.479 14
125 1 -18.8021 -2.15976 3.73337 10
126 1 10.3225 10.2587 6.69085 18
127 1 16.175 12.8216 4.07885 12
128 1 -1.96213 -1.67771 16.4028 10
129 1 -6.10817 10.8355 9.36422 20
130 1 -6.57 12.9587 -4.92243 20
131 1 -2.00963 -6.29435 -12.2483 22
132 1 8.87748 -11.5926 -8.61408 8
133 1 1.60729 13.5212 -11.72 9
134 1 6.12787 -2.52884 14.1491 12
135 1 1.10029 2.15835 -16.5089 14
136 1 -2.1201 8.81451 -2.8625 22
137 1 11.2951 2.36518 -2.33792 19
138 1 -13.5479 6.37387 -3.93977 18
139 1 -9.07335 14.3933 0.5935 13
140 1 9.9528 0.0903498 -7.76796 20
141 1 7.42878 -6.92979 5.40022 16
142 1 -6.89041 2.20569 -5.69838 23
143 1 -10.6656 11.5199 9.93671 11
144 1 12.6632 12.1039 -6.36665 13
145 1 5.93291 12.5337 -1.5785 16
146 1 -4.55596 15.3993 3.59545 16
147 1 11.8247 10.2701 0.158864 21
148 1 -3.47525 13.5645 -1.36427 18
149 1 0.744321 14.5212 -8.34878 14
150 1 1.14669 4.98974 -13.8239 18
151 1 -14.212 -5.43038 0.907481 20
152 1 -17.2076 8.77809 1.25072 13
153 1 -4.99779 -2.97239 -13.5913 19
154 1 1.23798 -8.07503 -13.1806 18
155 1 10.6909 13.9555 8.25402 14
156 1 0.127835 18.442 6.00843 10
157 1 -13.5784 -0.152474 -5.97529 18
158 1 -12.5804 11.6515 -0.206671 17
159 1 16.7363 4.29934 1.46708 15
160 1 -10.7932 4.59377 -16.0676 5
161 1 9.47519 4.73417 19.2879 7
162 1 4.56765 18.1587 2.67379 10
163 1 2.11795 11.3853 8.20319 17
164 1 3.35931 -5.31882 -15.2379 15
165 1 -4.3746 11.5352 6.98111 22
166 1 -3.78866 11.8836 -4.19157 20
167 1 3.38403 -1.30582 12.911 19
168 1 -13.7666 -4.88004 4.49149 15
169 1 -2.73914 -12.0277 -12.3954 15
170 1 -9.13353 11.2112 -6.16679 20
171 1 -4.83479 -9.13234 4.84319 22
172 1 2.03533 -15.1109 -5.26493 13
173 1 -2.45453 10.5023 -6.26403 17
174 1 -12.7334 1.15799 10.001 18
175 1 11.0551 9.66142 -2.31205 20
176 1 -7.52881 3.95116 15.868 19
177 1 -1.58619 -7.82253 10.2265 16
178 1 -12.6915 5.59449 -0.426033 20
179 1 -1.80775 16.1389 5.27712 20
180 1 0.80759 8.31906 8.51287 21
181 1 12.9255 7.05839 13.8018 12
182 1 -6.89306 14.0045 4.31578 14
183 1 13.9462 -4.01252 -7.7041 11
184 1 -6.01682 13.6251 9.25456 17
185 1 -5.29671 3.29186 -8.12503 18
186 1 14.7087 -5.65974 2.25926 13
187 1 -8.77044 -6.21143 4.85369 16
188 1 -17.8306 2.99389 4.80786 11
189 1 -12.491 -7.11519 2.63445 17
190 1 8.17351 8.15685 15.2608 23
191 1 -14.2131 3.32563 -1.61699 16
192 1 -4.2059 -13.4917 1.00308 22
193 1 5.18294 -9.04881 -2.10693 17
194 1 -2.12295 10.5932 4.96233 20
195 1 4.57286 13.2307 11.1578 14
196 1 -8.77263 -0.321311 -6.28016 18
197 1 -8.23551 13.2167 -7.63724 13
198 1 -17.8645 -3.50124 -4.79702 10
199 1 -10.7252 -2.17908 11.272 19
200 1 -1.35691 -9.45049 4.60081 22
201 1 2.7034 -12.2413 5.27133 15
202 1 -13.0404 10.7185 4.80173 15
203 1 17.3353 6.06795 3.90156 13
204 1 6.99864 1.34051 -5.05966 21
205 1 -7.5451 -7.89528 -12.7787 12
206 1 3.99523 0.529366 10.411 23
207 1 4.42915 -15.4418 3.2275 15
208 1 -2.53581 8.00156 -10.8938 19
209 1 2.94568 -10.2469 -11.6669 17
210 1 8.93502 4.67878 -10.3076 21
211 1 2.28322 8.15901 -13.7651 15
212 1 -8.50203 -3.52312 -5.19019 19
213 1 -5.59898 15.231 -7.0061 13
214 1 -11.1237 -8.58033 10.6933 16
215 1 7.9603 18.1264 -3.75321 10
216 1 -7.05155 1.39888 18.4204 11
217 1 -9.13732 16.0087 -4.29969 9
218 1 10.4972 1.91427 8.71627 22
219 1 -5.69801 -5.42267 -13.2513 18
220 1 -3.7251 8.24404 -5.74202 21
221 1 3.7589 2.73932 -11.9184 18
222 1 -8.17777 -10.3043 8.3536 17
223 1 -8.78722 5.82618 10.7346 17
224 1 -8.21714 8.8899 10.6851 17
225 1 1.19206 -10.6418 -9.36028 19
226 1 -9.40187 -15.3775 0.494577 18
227 1 7.24698 -10.6062 -0.428876 19
228 1 10.4638 9.53298 13.9449 16
229 1 7.67744 14.2042 -7.63347 13
230 1 -5.44308 9.01605 -3.41565 20
231 1 -8.87407 5.76014 4.57333 19
232 1 -15.7227 10.0967 -0.930298 14
233 1 1.55106 6.22548 11.1026 21
234 1 1.78248 -16.2589 0.52255 15
235 1 9.71401 1.46923 0.842244 21
236 1 2.14374 7.41498 5.71631 21
237 1 -12.2613 7.5354 7.75669 17
238 1 -18.598 -4.80314 -1.07362 11
239 1 7.90893 6.3517 -12.3614 15
240 1 2.67211 -2.28577 10.3797 19
241 1 11.9194 10.8583 -9.85195 11
242 1 1.75226 -9.97916 -0.824084 22
243 1 -3.99637 -1.23934 -11.3554 19
244 1 -2.98812 -16.8225 6.66477 12
245 1 12.6454 -0.51807 -6.34184 21
246 1 -7.50448 -0.145832 8.17437 21
247 1 2.63121 -15.7493 -1.9892 12
248 1 -11.5702 -7.80811 -9.51295 15
249 1 4.30076 15.4512 -2.98369 19
250 1 1.56006 -2.42609 -13.7788 20
251 1 6.49599 3.80941 18.874 12
252 1 18.9826 2.89753 2.77104 6
253 1 11.5911 -1.74381 -9.2591 20
254 1 -10.2504 -5.14482 -10.8866 17
255 1 -12.8789 -0.0306043 -11.099 16
256 1 -7.66978 -13.1273 8.07324 18
257 1 8.90005 3.42903 11.1787 21
258 1 3.76226 -3.03159 7.45688 19
259 1 -7.11013 -10.6189 -11.0141 14
260 1 -0.104859 -8.5419 7.88244 26
261 1 0.439643 9.23727 -10.8237 18
262 1 4.64755 9.04495 2.57754 21
263 1 -7.51975 -4.72475 2.43385 21
264 1 0.0955958 13.5311 4.48156 21
265 1 -7.3049 -2.22144 10.5677 18
266 1 -13.3083 -6.08076 -7.77867 14
267 1 -5.34813 -5.96665 -10.2638 16
268 1 -3.36233 8.14008 -14.5928 12
269 1 -5.39782 -9.65868 -5.18129 16
270 1 -2.7657 -8.05776 2.17191 23
271 1 6.84951 -4.18568 -10.8096 20
272 1 16.0482 1.08161 -10.1679 8
273 1 14.207 7.76633 4.78344 20
274 1 -9.3616 -4.91352 11.7079 20
275 1 -7.73711 -10.0198 0.193354 23
276 1 8.6525 7.66422 18.3669 15
277 1 -8.92613 -14.2337 4.22313 19
278 1 -1.65271 -11.0723 1.21714 22
279 1 0.408202 17.8384 0.196463 13
280 1 8.7044 1.17427 -13.9458 18
281 1 -6.47212 -3.86524 -16.1622 10
282 1 -12.3141 -7.92283 13.8626 10
283 1 3.69198 8.13768 19.4728 14
284 1 3.22874 -10.6308 -3.69329 18
285 1 -5.02786 -13.1258 -10.7676 11
286 1 -11.6691 4.3511 -8.06504 21
287 1 12.0787 8.47711 7.70358 17
288 1 -7.68234 7.71489 -5.28257 21
289 1 2.47225 5.15315 -10.9071 15
290 1 6.19327 -13.5807 -11.28 7
291 1 -6.49578 17.0307 -4.70422 8
292 1 2.68121 12.112 2.95766 21
293 1 13.8309 1.6331 5.82493 16
294 1 -11.4914 -3.30038 5.46856 18
295 1 -4.66168 -6.52809 10.399 18
296 1 -7.45652 7.99364 5.13036 23
297 1 2.5693 -2.91571 -10.5345 20
298 1 16.1019 12.3064 -2.34117 13
299 1 4.48363 -11.308 -0.264326 16
300 1 -2.39211 -3.04734 13.2858 20
301 1 -17.0265 -4.89819 4.03229 17
302 1 -3.22319 -16.6993 -2.72971 14
303 1 -5.71831 6.43573 16.2831 9
304 1 -9.62085 3.22114 17.813 12
305 1 -15.8856 -1.16958 9.57982 14
306 1 -15.0746 -6.71136 7.3408 10
307 1 12.6856 -3.56162 -0.579078 22
308 1 -13.3828 -7.34258 9.43542 13
309 1 10.7637 -2.91654 -6.4377 21
310 1 9.94046 -9.51368 -5.31133 11
311 1 4.89479 18.3291 -5.12614 12
312 1 -11.5256 14.4784 -1.84562 8
313 1 7.60122 9.24656 12.7392 19
314 1 -10.8444 0.125601 2.30774 18
315 1 8.25742 -8.09244 -2.61286 21
316 1 -4.10015 11.9552 1.48425 20
317 1 -6.72831 5.22553 7.96277 18
318 1 3.02645 -9.01621 7.7441 20
319 1 13.0877 -4.71122 5.04703 14
320 1 -2.95763 9.47669 8.23963 22
321 1 -7.95222 -4.60203 -2.92447 20
322 1 -3.74091 -0.322499 13.4578 18
323 1 -3.1223 13.1582 4.24207 21
324 1 9.60159 10.6105 17.104 13
325 1 -8.95888 13.1374 -3.63393 17
326 1 3.05412 -2.38751 -16.1058 15
327 1 5.80708 -10.0596 -11.5113 12
328 1 -8.58216 1.12593 15.1767 24
329 1 -14.1178 3.36955 4.6733 17
330 1 -6.3923 -2.76417 -10.6431 17
331 1 -5.33031 8.81306 2.6677 21
332 1 9.32286 -0.564082 7.78598 23
333 1 -15.8968 -7.46482 2.53761 16
334 1 6.04481 -8.06854 8.08834 12
335 1 -9.15753 -9.66643 13.2568 11
336 1 -17.2593 9.29328 3.83153 8
337 1 0.73911 -5.53884 10.2662 21
338 1 0.118483 -12.5942 -7.47552 20
339 1 -3.60213 0.681263 -8.40797 22
340 1 10.8474 -1.15923 -12.5477 13
341 1 1.10148 16.3162 3.99835 20
342 1 -11.0071 0.860374 -3.60808 19
343 1 6.02273 -5.90895 -8.68215 18
344 1 11.3831 5.87703 -12.177 14
345 1 -6.94826 -12.855 -4.16856 15
346 1 -15.3138 -6.17476 -5.00981 9
347 1 -4.61377 -8.57832 -0.588537 20
348 1 10.809 7.20506 16.3191 13
349 1 9.44715 5.92131 -1.6474 22
350 1 -8.12949 4.93852 -7.28904 21
351 1 6.41931 17.4171 0.21873 12
352 1 -16.427 -0.50587 -6.21139 9
353 1 -9.26224 6.62754 7.60173 17
354 1 -7.77679 12.0215 1.99034 18
355 1 -6.03481 2.57503 7.21466 20
356 1 5.98651 5.65501 16.2965 24
357 1 10.2421 1.87155 -5.00703 21
358 1 5.35724 -0.116148 15.822 12
359 1 11.7235 2.73461 -7.6082 17
360 1 -9.20011 -13.8754 -2.61388 12
361 1 0.705949 -8.32866 -3.12787 20
362 1 0.989315 9.07991 2.76517 22
363 1 -10.6165 2.66087 -6.09274 19
364 1 6.06529 -12.3353 -2.63634 16
365 1 12.7751 -0.0747512 7.53218 15
366 1 -11.6348 -2.43665 -6.21732 17
367 1 -9.54261 -8.38145 2.08598 19
368 1 -9.33572 -6.90074 14.4083 11
369 1 -1.86085 10.7364 -0.418391 20
370 1 -11.2925 -9.16752 -0.549528 19
371 1 6.49494 10.9934 15.6693 20
372 1 -10.1657 6.92914 -2.687 21
373 1 0.670636 11.3109 -6.22647 21
374 1 5.78522 13.6943 5.46063 18
375 1 -13.4467 -7.98831 -3.01007 13
376 1 -0.66135 -9.03907 -7.84263 21
377 1 -14.8535 1.24097 7.27074 17
378 1 -14.6433 7.31106 -0.924399 16
379 1 4.0454 -7.00261 4.54283 20
380 1 -5.86735 -12.1872 -1.18607 21
381 1 13.5929 14.0691 9.19891 11
382 1 3.9756 10.8778 -10.8931 15
383 1 -12.9332 4.52543 -12.8333 11
384 1 -2.65397 14.6255 -8.85831 11
385 1 -10.1545 5.40469 -5.46927 19
386 1 -3.88515 -11.9661 3.76127 23
387 1 13.2296 5.92475 7.23113 20
388 1 -0.848019 10.0317 -14.9151 11
389 1 -2.48207 2.20414 11.0158 21
390 1 -16.2895 3.2686 1.8841 15
391 1 -7.39656 2.60015 9.78528 21
392 1 -7.46624 -11.2414 5.34153 21
393 1 2.63261 -4.95178 -8.53311 22
394 1 -10.5635 2.10378 4.80933 21
395 1 -13.7798 -1.29618 12.3608 18
396 1 -14.537 7.90038 9.7154 11
397 1 -1.03445 -5.90446 7.90076 23
398 1 -8.60615 1.35678 -14.8774 12
399 1 7.13397 -7.48771 -5.68022 21
400 1 -1.61423 -9.07989 -11.1875 24
401 1 -4.79952 -3.10741 10.2843 19
402 1 -6.79061 3.10453 -13.0125 15
403 1 4.98373 -18.0926 4.21373 6
404 1 2.78824 10.7362 -4.26613 18
405 1 -14.0444 11.1146 8.59687 9
406 1 -7.81743 -4.44832 14.9341 17
407 1 -13.5368 -5.55921 -10.9807 12
408 1 -9.17495 -3.30489 8.25005 20
409 1 8.53442 -2.94933 11.5383 10
410 1 1.72522 2.77083 -8.26736 18
411 1 9.72174 -8.70012 5.58151 11
412 1 15.4112 10.5605 -4.67396 15
413 1 -4.85169 0.939048 15.8216 17
414 1 -1.15833 14.5626 -0.642826 19
415 1 7.86076 -3.13362 6.86229 15
416 1 -3.61977 -13.6573 -4.21142 16
417 1 -4.28155 3.41676 16.9033 12
418 1 -3.82928 14.646 6.80471 19
419 1 -9.46819 -10.2576 -7.54031 13
420 1 10.3233 14.214 1.12764 15
421 1 3.82048 8.63383 7.98671 19
422 1 -8.40966 2.74311 12.8619 16
423 1 -6.74579 -8.23643 -2.96096 18
424 1 -10.8474 3.40736 11.0086 18
425 1 -9.35407 -6.17534 -8.00582 17
426 1 -6.11892 8.33998 7.67226 19
427 1 -1.97265 -10.5246 -5.20388 17
428 1 -3.15962 -7.76987 -14.6353 14
429 1 -6.62904 -16.013 1.40172 20
430 1 -7.64646 -2.87413 5.49215 20
431 1 10.7386 0.645687 5.02146 20
432 1 -5.47279 -4.78547 12.6561 17
433 1 -7.26131 7.59293 -8.77828 21
434 1 7.62351 4.7602 0.835537 21
435 1 -7.45416 -13.1416 1.95096 23
436 1 2.70199 16.8618 -0.950382 15
437 1 -0.933833 5.53369 -10.784 20
438 1 -1.00234 7.94753 11.0839 22
439 1 -16.0097 -1.96658 -3.89399 14
440 1 1.61371 17.6169 -3.56486 14
441 1 6.76529 11.5333 -5.85837 17
442 1 -6.68132 -4.90584 -7.75262 18
443 1 4.62255 2.65536 17.4666 14
444 1 1.88079 -15.2984 -7.85339 10
445 1 -1.15148 -1.72783 -9.69455 20
446 1 7.00389 -13.5509 1.89127 12
447 1 -10.995 10.6579 2.10055 18
448 1 4.79768 8.54095 14.1123 20
449 1 9.96576 8.0794 0.681938 21
450 1 4.46787 10.2705 -0.482058 16
451 1 -10.3719 9.95227 -9.03428 11
452 1 6.81704 2.89148 -9.63863 17
453 1 0.0864509 -8.25664 1.87517 21
454 1 -14.7883 -2.8038 -0.604976 18
455 1 3.18547 17.1915 5.02354 15
456 1 -6.59131 5.19266 -10.2056 18
457 1 12.4514 6.84303 -1.18455 17
458 1 6.74401 17.5962 -7.28934 9
459 1 9.9739 -5.92822 3.72645 22
460 1 14.1796 6.83109 -3.94252 18
461 1 -1.24547 0.735675 -12.1841 18
462 1 0.421952 -13.0158 -0.500254 18
463 1 -2.29493 -14.0403 7.91997 12
464 1 1.85909 -7.99233 10.7665 16
465 1 -9.21929 2.325 -8.38437 19
466 1 -12.446 -10.8705 8.84015 15
467 1 -1.72375 -11.9273 -9.77843 19
468 1 8.2479 15.5553 6.78913 13
469 1 -3.4022 6.1386 -8.51524 18
470 1 4.41821 1.74403 13.3343 17
471 1 -13.4267 3.63265 13.1771 14
472 1 -3.78529 -16.4638 0.824871 19
473 1 -14.4402 -1.13513 1.85792 17
474 1 11.8726 -1.05741 -3.34448 20
475 1 9.28329 -0.260758 -2.28558 21
476 1 -7.39925 10.545 -3.56388 21
477 1 1.23098 -6.37876 -5.64278 19
478 1 3.72342 6.17241 -7.73693 20
479 1 10.4292 -3.1419 -2.69557 17
480 1 -7.90497 -1.5066 16.5916 17
481 1 9.52873 12.3942 -1.81209 19
482 1 -3.42093 -1.70333 -16.0603 12
483 1 6.39614 3.59108 -15.6492 14
484 1 -5.89986 -2.44772 7.4997 20
485 1 -7.5353 15.9074 -1.59027 14
486 1 -8.60299 -4.0691 -13.9025 15
487 1 -17.5694 0.100555 1.55152 14
488 1 -2.25826 -10.1528 -14.4054 13
489 1 -7.04796 -10.9646 10.6512 13
490 1 -0.185938 8.39076 -5.20428 20
491 1 15.9382 5.22144 9.08919 9
492 1 17.6462 9.28826 -2.04447 11
493 1 -12.5378 -9.99527 2.18901 16
494 1 -1.26225 -9.124 -0.742312 22
495 1 -0.60304 -3.61612 -15.8366 14
496 1 -8.03346 12.1985 11.9269 11
497 1 1.56269 -1.78852 -8.10764 20
498 1 11.5118 -0.648967 0.296883 21
499 1 3.70874 15.5351 -6.61506 13
500 1 5.90315 -6.26683 2.57231 21
501 1 15.34 7.65706 -7.00154 10
502 1 0.431408 11.5037 15.8379 12
503 1 -12.1655 -1.21526 8.32254 19
504 1 7.3448 9.44216 7.28098 21
505 1 6.85257 2.72923 15.0673 19
506 1 6.64747 3.37396 -12.3916 17
507 1 -3.9076 -6.69252 -6.06305 16
508 1 0.761202 0.784458 10.7019 19
509 1 8.60698 12.4334 6.76707 20
510 1 6.2294 8.49543 -5.70807 23
511 1 -6.03611 9.95163 -6.29153 23
512 1 1.7163 13.5918 -1.70169 20
513 1 9.14061 -0.00307482 10.7032 17
514 1 13.4036 4.00521 -11.2994 10
515 1 11.7228 -8.25683 -3.45886 12
516 1 10.5021 11.9635 10.8825 13
517 1 -19.5925 -5.67222 2.63263 9
518 1 -7.16427 10.6148 -9.21184 17
519 1 -0.34641 4.21933 10.8718 19
520 1 -14.8459 1.28862 11.8356 13
521 1 -4.3432 12.4593 -7.44673 21
522 1 2.51874 -13.1207 -2.75264 20
523 1 6.66034 0.0829366 -7.69094 22
524 1 -3.6881 14.6938 -4.48736 16
525 1 -10.8462 -7.31427 -12.7962 11
526 1 -1.22821 -14.1083 1.79001 21
527 1 -18.1367 -1.41132 -1.47052 12
528 1 1.31336 11.0471 -12.9556 12
529 1 -3.5323 10.7001 14.9068 14
530 1 -13.6619 -3.67228 10.2864 17
531 1 6.34529 7.64042 -0.102856 22
532 1 1.46362 -9.02936 -6.50147 18
533 1 3.73867 -7.44552 12.9448 10
534 1 -10.0351 6.14369 1.54703 22
535 1 6.49013 7.05917 19.7976 15
536 1 4.95232 13.4344 -4.59689 14
537 1 10.4197 -5.84266 -1.4601 23
538 1 5.10488 12.3235 8.7305 20
539 1 1.11121 5.65385 -16.5816 9
540 1 -5.17489 -10.9182 7.50679 18
541 1 -0.157904 0.803846 -8.10188 20
542 1 9.57402 2.93079 -16.8606 8
543 1 2.57802 13.5826 6.40663 26
544 1 10.2467 6.19216 -7.7115 21
545 1 -1.80591 -2.4821 -12.9706 23
546 1 -4.0382 -10.7374 -2.9858 21
547 1 -11.4552 -4.02911 -13.5226 12
548 1 11.0442 4.33843 0.446465 21
549 1 15.4612 5.63827 -0.183592 9
550 1 7.62098 -4.40374 -7.17573 19
551 1 13.5979 9.95885 12.3514 12
552 1 6.61719 -10.1366 -4.15134 16
553 1 3.9738 5.83464 -14.7448 12
554 1 9.36842 14.2202 3.95774 17
555 1 -9.23626 3.16003 2.13585 23
556 1 8.79379 12.3118 14.3031 12
557 1 12.4871 9.12691 -4.59353 19
558 1 11.7681 2.44243 2.63979 16
559 1 12.1604 5.90009 -6.11366 20
560 1 4.23461 4.96522 13.3247 20
561 1 15.0432 9.3404 7.46559 20
562 1 4.63758 -7.10633 10.3722 16
563 1 13.5018 15.1651 -2.31174 10
564 1 1.28895 0.713883 14.5668 13
565 1 15.0543 1.92188 -6.71432 14
566 1 8.20634 4.56825 8.49773 23
567 1 -6.21319 -1.24446 -8.25185 18
568 1 13.2971 8.08498 1.41828 16
569 1 12.3939 -2.7708 2.55575 22
570 1 -9.77557 6.32064 16.2575 8
571 1 7.505 11.2185 10.1971 18
572 1 9.78378 6.74969 12.3139 17
573 1 4.12475 10.2676 5.54574 23
574 1 -2.75338 10.261 11.4272 18
575 1 8.23661 2.33122 6.73562 21
576 1 -2.08929 -18.1407 3.07252 11
577 1 -6.62198 12.956 -1.16376 20
578 1 10.1622 13.6221 -5.39607 15
579 1 6.74371 -0.84328 -12.5651 18
580 1 -0.848632 16.1486 -2.99963 15
581 1 -1.2687 -14.7134 -6.78581 12
582 1 8.72282 -3.62051 -12.646 17
583 1 -12.1871 2.8259 7.66314 20
584 1 -4.76758 9.0082 -8.67562 18
585 1 -5.41301 -18.779 1.65403 10
586 1 -6.46469 1.84986 -10.2087 17
587 1 -13.6954 0.834758 -3.55603 17
588 1 12.4567 -7.48834 4.07453 14
589 1 14.3211 10.7918 2.32571 21
590 1 -2.16814 -4.85092 10.9878 19
591 1 -14.0736 -1.1819 -8.74788 14
592 1 4.32071 0.980988 -17.0163 12
593 1 -1.34876 3.02262 14.4183 19
594 1 6.89113 9.32126 -11.3641 14
595 1 12.2007 1.81681 11.7356 14
596 1 6.88494 5.78655 -7.16952 22
597 1 13.4759 13.8691 3.4097 13
598 1 4.71874 -14.4778 -7.89557 14
599 1 -12.1932 -1.14655 14.3683 16
600 1 13.5088 0.720352 2.19769 19
601 1 -1.5117 12.4276 12.7496 14
602 1 6.21323 11.9627 -8.74819 17
603 1 -14.7975 9.4511 -4.25071 10
604 1 11.3235 11.9949 2.94322 17
605 1 -14.1355 -16.921 3.1366 5
606 1 15.2874 -1.86687 1.23091 14
607 1 7.52991 16.081 2.70883 16
608 1 -3.69092 4.1899 13.4617 18
609 1 -10.6368 -4.80788 2.5363 19
610 1 -9.16825 -2.95073 -8.24237 19
611 1 6.98545 5.56974 13.2108 20
612 1 -4.09658 -9.46002 10.0628 13
613 1 5.68788 9.3905 10.3554 20
614 1 -6.02697 10.5118 0.0859424 18
615 1 9.51181 6.80425 6.09346 23
616 1 8.21817 4.64358 4.4933 17
617 1 3.24774 3.1765 -15.3739 16
618 1 -9.88852 1.4666 8.4241 18
619 1 11.2971 3.22005 -14.3246 11
620 1 9.81549 -8.42537 -8.54986 12
621 1 8.12832 7.26449 9.80152 22
622 1 5.37229 6.47884 7.64586 19
623 1 -11.0232 -0.17722 16.9528 15
624 1 14.2297 7.55525 10.6343 17
625 1 -0.691585 -0.503573 12.8103 21
626 1 -0.678701 5.7607 13.9668 21
627 1 0.657397 -5.26893 -13.3699 18
628 1 -5.83288 2.14667 13.3859 16
629 1 5.63196 3.50053 10.8542 22
630 1 -8.52048 -15.4322 6.77466 15
631 1 14.447 9.88081 -1.40622 21
632 1 3.29151 -12.5599 -6.03119 18
633 1 5.75211 9.5039 -3.40983 19
634 1 12.1355 13.2167 6.05918 15
635 1 5.89431 0.695263 -14.5548 19
636 1 3.78668 13.9597 0.30667 22
637 1 17.6871 11.0806 1.01262 13
638 1 -10.1658 -12.3002 0.42494 15
639 1 0.2733 -0.778727 -16.7951 13
640 1 -8.66455 9.11549 1.88207 22
641 1 8.37282 -2.24869 -9.32587 19
642 1 11.4387 9.09472 -7.7115 18
643 1 10.337 15.1096 -2.86024 15
644 1 -7.08065 6.23498 1.92955 21
645 1 6.5859 6.42573 -2.92954 18
646 1 12.1866 3.98317 14.4265 10
647 1 9.75453 2.04136 13.8458 14
648 1 -1.04817 -11.1451 10.2115 12
649 1 -5.83072 8.0764 -11.7925 14
650 1 2.46239 14.2169 9.68478 15
651 1 8.29228 -6.80351 -11.0839 13
652 1 2.83282 3.65401 10.7056 23
653 1 8.20483 16.4506 -5.55207 15
654 1 5.63264 12.0634 1.97366 18
655 1 14.5403 -5.46737 -3.39824 12
656 1 6.5753 10.1559 18.6019 13
657 1 -12.9645 -0.484714 4.92016 16
658 1 3.56755 -13.9158 -0.284944 19
659 1 1.44093 -0.172006 -10.4382 20
660 1 -9.11217 10.515 4.44107 19
661 1 3.96329 14.8223 3.30551 20
662 1 -17.446 -3.54911 1.18554 19
663 1 -2.32369 5.48282 16.0246 16
664 1 -6.39189 6.56625 -14.1434 11
665 1 -9.39719 7.70392 -11.9978 10
666 1 -1.06102 -16.2565 -0.818422 17
667 1 9.22672 7.58415 -5.04297 22
668 1 -10.8983 2.99685 15.2757 20
669 1 3.42221 -0.120714 -14.255 18
670 1 1.3095 -11.6701 8.21992 13
671 1 1.54889 14.7128 1.29314 21
672 1 -4.6323 -3.1532 15.7804 13
673 1 -8.91104 -8.34326 -10.2303 16
674 1 -5.24726 -10.7593 -13.7307 11
675 1 -6.77031 -11.2293 -8.15306 12
676 1 -0.821213 16.4698 -6.1708 13
677 1 5.57477 -3.91537 -4.79841 21
678 1 -3.20494 12.6952 9.48718 19
679 1 4.07799 -7.77207 -5.7506 15
680 1 5.55286 -16.539 0.794458 11
681 1 2.71278 -6.08476 7.46219 21
682 1 14.756 4.52526 -5.5729 14
683 1 -0.349014 -14.8794 -3.78714 18
684 1 -14.1703 -3.07992 7.35624 17
685 1 -8.22264 -17.7956 -0.365748 9
686 1 -8.76399 -10.5551 -2.59483 16
687 1 -11.0715 0.933921 12.5701 22
688 1 -10.7485 -18.3624 1.91967 8
689 1 16.8171 7.49547 -4.77694 10
690 1 -1.63086 18.0179 2.88453 11
691 1 -15.0352 9.28423 6.40471 12
692 1 9.74835 -0.94493 2.69405 22
693 1 -13.6864 -2.38767 -12.2195 12
694 1 -0.430101 12.1627 -3.20885 21
695 1 13.2643 1.45401 -9.29342 18
696 1 7.88333 14.3446 10.1956 13
697 1 8.59155 4.37464 -4.43021 19
698 1 -14.5121 1.79118 -8.18813 14
699 1 -12.9329 -3.0037 -3.28722 19
700 1 0.693127 6.65331 18.5153 11
701 1 7.85013 9.08294 -8.10644 21
702 1 14.842 12.3171 6.92826 15
703 1 -2.41245 -0.856591 10.3986 18
704 1 -6.39002 -15.3449 -1.70022 18
705 1 -8.27746 -17.0439 3.68225 16
706 1 -4.1477 -5.13439 7.51757 20
707 1 12.9465 10.9157 9.22915 22
708 1 4.01971 -8.03184 -8.9591 21
709 1 -7.28482 8.27852 -1.44661 21
710 1 7.63254 8.8442 2.37921 16
711 1 -9.48424 -2.04527 2.77897 20
712 1 9.60058 7.84731 -10.2407 17
713 1 -5.39928 -15.9318 -4.99305 9
714 1 0.884615 -15.9673 3.75377 16
715 1 -2.96485 -15.179 3.95772 23
716 1 5.14348 3.08365 -7.03272 20
717 1 7.14973 14.9046 -2.22827 16
718 1 -4.11378 0.62375 -13.6033 18
719 1 1.46949 3.66553 13.8154 19
720 1 -0.563598 6.92824 -13.5346 17
721 1 -10.8132 -0.828507 -13.4658 16
722 1 -10.7248 -4.56207 -2.60836 18
723 1 1.47452 15.1107 -5.04575 18
724 1 -3.43863 -4.65259 -15.6052 13
725 1 -9.27231 -6.35382 -0.0149078 23
726 1 9.35301 11.7189 -7.90664 18
727 1 12.0418 -6.27877 1.52244 20
728 1 -4.44369 4.42004 9.76358 22
729 1 3.9611 -9.14319 1.91121 21
730 1 15.5257 -4.25368 -0.461107 11
731 1 11.6143 -1.45399 10.2899 12
732 1 1.30268 10.903 5.19208 20
733 1 -13.9092 1.07905 15.2027 12
734 1 -10.717 5.46975 12.905 16
735 1 -5.64058 -16.0315 7.95278 10
736 1 9.62975 5.95885 2.57877 18
737 1 2.95754 10.9876 14.6336 20
738 1 -15.6366 1.04478 -0.45302 16
739 1 8.4411 -5.87188 0.938161 21
740 1 -14.0383 12.1326 -2.60106 10
741 1 -4.83208 -13.3065 6.54562 19
742 1 7.2081 0.50362 12.8108 18
743 1 -0.925881 12.1779 7.01284 19
744 1 -0.271257 -12.3577 3.70927 18
745 1 -9.90746 -1.80836 -2.79411 20
746 1 4.69406 6.45286 10.8719 20
747 1 -15.4096 -4.91014 -2.4581 17
748 1 -1.20042 8.16888 16.1495 17
749 1 7.43804 14.21 0.569158 19
750 1 -15.0604 -10.7269 3.47694 9
751 1 -5.99015 -14.446 3.76518 19
752 1 6.44779 -5.49622 13.0812 9
753 1 10.8216 -6.36247 6.86587 11
754 1 7.50587 10.9836 4.53434 19
755 1 -1.17246 -6.67813 -5.57374 19
756 1 -3.5333 2.83602 -10.9569 16
757 1 -6.58469 -1.98286 13.7532 17
758 1 -2.02898 14.8247 2.4204 23
759 1 12.2455 5.73895 3.42511 17
760 1 3.12314 8.27222 -5.63773 20
761 1 -3.40812 7.83562 13.9282 22
762 1 5.22846 11.1857 12.6806 19
763 1 8.89957 0.915623 -10.3359 21
764 1 -10.1464 -11.2976 3.08924 21
765 1 16.1288 2.3487 4.01397 13
766 1 3.37837 0.254012 -7.59488 22
767 1 1.78606 7.71442 13.6195 21
768 1 6.25515 -12.209 -6.76589 17
769 1 6.1639 7.8329 -13.7139 11
770 1 -2.96106 -8.26136 -3.10723 20
771 1 12.5697 7.54727 -10.3072 12
772 1 14.6286 -1.04005 -1.60426 15
773 1 0.929438 -4.94728 13.2447 12
774 1 -4.52288 -8.67278 -11.6523 23
775 1 8.79937 11.4803 1.23867 21
776 1 -14.4059 5.4458 7.31641 16
777 1 11.1147 5.1733 -3.59009 20
778 1 17.4755 9.52178 3.90881 15
779 1 3.77317 -5.78252 -11.2924 21
780 1 -7.7037 11.8825 6.59746 17
781 1 16.5764 14.3174 10.7727 4
782 1 11.8578 15.9479 -5.54323 8
783 1 5.4265 4.90756 -10.2667 21
784 1 9.94458 -3.40768 1.06194 22
785 1 -12.1569 3.25297 2.44883 18
786 1 11.3453 8.92335 3.60882 19
787 1 -17.5227 -6.84736 0.16225 12
788 1 -12.9256 10.8518 -5.53544 12
789 1 4.71485 2.88409 7.72694 22
790 1 -11.0275 -0.402016 -8.44157 22
791 1 -11.4186 5.19581 5.33161 20
792 1 -5.21704 5.04989 -5.51815 22
793 1 10.5954 -6.3414 -6.62383 16
794 1 -11.7804 -6.14548 -5.47075 16
795 1 13.8756 -7.24096 -0.780191 15
796 1 -14.3793 5.1338 1.7494 19
797 1 -9.72216 -7.44944 -3.30107 19
798 1 17.4443 11.1222 6.48094 11
799 1 -6.80407 -10.1369 2.86612 18
800 1 9.04608 4.82751 15.8252 17
801 1 11.4916 -3.36834 8.24596 12
802 1 14.3474 -1.22391 4.3219 11
803 1 -14.194 7.56103 4.20802 16
804 1 -0.642255 14.2647 10.5154 10
805 1 5.10035 8.41274 -8.84716 21
806 1 -0.067993 -7.03646 -15.5752 12
807 1 -5.88021 11.1881 4.3527 21
808 1 -11.6776 -8.06024 7.28861 16
809 1 8.31839 8.95622 -1.93673 18
810 1 -0.646971 9.66363 14.1332 23
811 1 14.714 0.674213 -4.25966 14
812 1 5.81595 -4.45241 8.54908 14
813 1 -4.26178 12.086 -10.0716 15
814 1 1.63246 9.15837 -7.84132 19
815 1 -5.1027 0.936179 10.5904 21
816 1 16.8682 7.46212 6.29218 14
817 1 -3.19808 -3.98387 -10.8925 19
818 1 16.0109 13.2743 0.844142 12
819 1 -16.5307 4.85229 -0.442101 11
820 1 -5.91545 -8.01579 8.11592 18
821 1 2.54715 12.4878 -9.2468 12
822 1 5.94282 -1.63279 10.2146 22
823 1 -2.66416 -13.6706 -1.4061 22
824 1 -7.69353 16.6191 2.14404 8
825 1 -17.2216 6.02819 3.10113 13
826 1 14.7522 -2.43056 -4.95995 13
827 1 0.0130925 -11.7685 -12.3746 15
828 1 -10.6004 8.10777 3.857 22
829 1 12.512 11.9721 -3.2343 23
830 1 -9.78968 -0.50711 5.65424 21
831 1 8.18269 -2.08961 -14.932 12
832 1 -6.45609 -8.36007 -7.96909 20
833 1 -0.922047 -11.3823 -2.47304 22
834 1 -4.55066 12.586 12.4776 14
835 1 7.71397 -14.1863 -0.953177 11
836 1 -3.69784 10.6079 -13.1338 11
837 1 13.608 3.29345 -3.52398 16
838 1 5.79479 6.00127 2.52196 20
839 1 0.23189 -18.3791 1.32203 8
840 1 5.08639 -2.91716 -13.1074 23
841 1 14.0881 2.62306 -0.297368 17
842 1 -1.683 3.41402 -13.2622 17
843 1 -3.08195 -8.22513 7.40728 22
844 1 9.13596 10.5204 -4.5584 18
845 1 8.42979 3.05125 -7.59797 23
846 1 -8.71135 3.48052 -3.12692 21
847 1 -15.8872 4.44179 10.6076 11
848 1 3.60397 4.98176 19.2867 14
849 1 -9.27521 -7.01207 8.00026 16
850 1 6.44861 7.31323 5.08034 16
851 1 -0.104556 -14.3732 5.87579 14
852 1 1.02279 10.0869 -2.25959 17
853 1 -4.21604 7.48729 10.4582 20
854 1 -8.3904 0.368769 11.4827 24
855 1 -11.6417 11.9679 7.10757 12
856 1 8.45771 2.77539 -1.72953 22
857 1 -7.10577 -7.81032 12.312 12
858 1 2.0721 -9.5235 4.70506 19
859 1 11.0343 9.12902 10.3956 19
860 1 7.716 -3.58996 -2.10557 24
861 1 4.40499 -11.1362 -9.11834 18
862 1 -10.2192 1.40798 -11.3956 21
863 1 -2.21046 1.60765 -15.952 11
864 1 5.46915 15.3984 8.01747 16
865 1 -11.5778 -4.5781 14.5993 13
866 1 -6.84077 5.77995 -3.12205 20
867 1 -11.7058 4.18512 -3.07232 23
868 1 12.601 13.5273 0.0478658 17
869 1 -11.3934 -16.3496 4.71785 11
870 1 -0.514912 8.0651 5.50017 21
871 1 13.1222 10.458 5.43471 22
872 1 -11.6055 -8.82153 -5.74751 12
873 1 1.85942 15.9863 7.58794 14
874 1 -9.36496 -1.53575 13.7938 21