ITEM: TIMESTEP
3000
ITEM: NUMBER OF ATOMS
1000
ITEM: BOX BOUNDS pp pp pp
-30.0 30.0
-30.0 30.0
-30.0 30.0
ITEM: ATOMS id type x y z Coordination
1 1 -4.72977 -8.93147 -12.1399 10
2 1 8.35931 -10.0724 2.96082 13
3 1 -9.96869 8.99317 0.576599 12
4 1 -8.86604 5.88627 -5.99157 12
5 1 0.853671 -3.6148 8.59381 21
6 1 -6.42874 -0.55301 -11.6369 11
7 1 -4.8265 -9.21769 0.898784 21
8 1 6.17538 -2.94094 6.03114 19
9 1 -0.337025 6.97484 4.99875 20
10 1 9.29756 -0.67369 3.543 23
11 1 1.27366 9.72212 -10.0878 12
12 1 -0.945764 1.2055 12.0594 9
13 1 -8.94751 0.644714 -3.07596 17
14 1 -1.02416 -3.75418 -10.133 19
15 1 4.2926 -0.184757 5.79574 21
16 1 4.55355 -5.08074 -6.60628 24
17 1 0.85159 3.0489 10.7562 15
18 1 -4.87543 -9.71428 6.08681 11
19 1 -8.28748 -2.27135 -1.07812 17
20 1 -6.17481 -2.34708 -3.36756 14
21 1 -1.76897 13.3489 -3.17896 12
22 1 -0.923942 -0.938114 -12.5884 21
23 1 4.9466 -6.22386 -12.2835 16
24 1 0.422473 -5.30747 11.5267 12
25 1 -8.14392 6.67492 -1.10494 18
26 1 -2.97536 14.4412 -0.438731 10
27 1 1.82758 -12.2872 1.52091 15
28 1 6.35043 -8.1563 -7.10646 23
29 1 7.0438 3.53552 6.07322 20
30 1 -6.43485 6.92924 -7.65197 13
31 1 -0.489435 11.0437 -7.83423 15
32 1 2.23069 5.98338 6.96943 21
33 1 -5.4991 -0.700095 0.472039 20
34 1 7.82085 -2.59266 9.85422 9
35 1 -9.91332 -3.6351 3.05595 19
36 1 13.5239 2.00809 5.15836 11
37 1 9.40796 -1.04153 -2.57587 17
38 1 6.877 0.777506 5.60817 20
39 1 -8.78221 -5.71275 0.216574 22
40 1 -1.90234 -8.18129 -8.80531 18
41 1 -7.87044 14.1763 -2.37239 5
42 1 -1.0654 8.37902 -6.77113 17
43 1 6.19337 -1.80665 -7.30658 19
44 1 10.255 -4.33626 1.99271 20
45 1 6.31142 -11.5469 5.53471 10
46 1 -5.95458 7.81394 3.20091 15
47 1 -4.44519 -6.88138 7.70986 13
48 1 -9.85419 2.6261 3.2575 18
49 1 7.18945 -10.7972 -8.83873 12
50 1 6.94123 0.743791 -14.4873 8
51 1 -0.0062961 11.7823 3.54877 16
52 1 -5.39226 4.45495 -9.88078 15
53 1 1.21616 6.99061 -1.77383 21
54 1 -1.0466 -7.48003 6.8952 16
55 1 0.134048 -6.26992 -10.57 18
56 1 4.70944 -9.48948 -12.8269 8
57 1 -1.43761 1.85693 8.09385 20
58 1 -10.361 -8.99106 -1.13117 14
59 1 8.14252 -3.61259 3.6433 19
60 1 -7.90102 -9.36224 -3.52717 13
61 1 10.2621 -9.27464 0.531878 12
62 1 -3.41069 8.14461 1.01051 15
63 1 4.39713 1.45872 -6.95892 21
64 1 9.79184 -10.6478 -2.58916 12
65 1 -7.14913 -7.29586 -2.09891 18
66 1 11.1143 10.6976 0.892623 9
67 1 10.1945 5.40163 -5.20856 23
68 1 -6.19051 9.93427 -5.79062 13
69 1 1.93573 -6.54363 -13.2694 15
70 1 -1.033 9.05822 -3.8389 20
71 1 12.2952 2.42143 -5.74864 17
72 1 5.43604 2.78065 -10.2675 20
73 1 9.80082 -7.27725 3.02107 17
74 1 -3.92466 4.48907 -7.24228 19
75 1 10.9344 10.8134 -5.11983 9
76 1 13.5796 3.27715 -0.274783 14
77 1 0.492382 11.0364 -1.5097 21
78 1 -5.67931 -3.03414 -14.1 12
79 1 -11.7974 -4.2083 -5.22201 13
80 1 -5.92884 6.13367 5.92271 15
81 1 -3.22995 11.9073 -5.95349 11
82 1 4.76938 -4.79316 11.7244 7
83 1 -10.0127 -5.42947 5.87667 10
84 1 -3.89288 -12.9152 3.41386 11
85 1 2.6026 9.63689 -2.89205 21
86 1 14.8477 2.08469 1.88855 10
87 1 0.231513 -10.7181 8.06137 10
88 1 -5.97972 0.982509 -2.06112 19
89 1 1.32041 6.19923 10.4941 11
90 1 -3.13272 -2.19428 -8.34138 20
91 1 -5.42192 -6.16535 0.970184 22
92 1 -10.0675 -11.5388 1.13108 9
93 1 7.89445 -7.82704 -3.60755 19
94 1 -1.4814 9.73429 2.89628 16
95 1 -4.65691 -0.861301 3.58175 24
96 1 -8.4128 -2.56929 -6.26152 24
97 1 3.23507 -12.0745 6.70228 11
98 1 4.98591 4.41217 -8.12041 17
99 1 6.55257 0.0451607 11.8263 9
100 1 -0.316995 7.95545 -12.627 8
101 1 -4.21584 -5.43211 -9.34953 20
102 1 -4.49313 13.6337 -3.71975 10
103 1 6.08086 2.73567 11.7197 8
104 1 -1.5922 8.25895 -9.87794 13
105 1 2.33694 2.74886 -11.1165 16
106 1 -7.80548 3.58689 4.95765 19
107 1 -8.54909 6.19231 7.08315 11
108 1 0.48803 -11.4546 -9.58038 13
109 1 5.21074 -6.12948 -4.13369 22
110 1 7.08808 8.20103 -8.46111 12
111 1 -1.39845 11.6697 0.529867 15
112 1 -10.5647 2.57076 -1.78118 13
113 1 3.50419 3.95781 9.09763 15
114 1 11.5635 -3.05583 -2.95705 18
115 1 5.71483 6.51252 5.7786 19
116 1 -8.12494 5.3423 2.31113 22
117 1 -10.7793 -7.65922 -4.32021 10
118 1 0.480533 0.195736 9.42304 19
119 1 4.16669 -11.0381 -0.434029 18
120 1 1.67362 -2.04445 -14.8288 15
121 1 9.46836 -2.66215 -6.51764 18
122 1 -10.4382 -2.62921 6.70275 10
123 1 -7.98707 -5.20908 -8.81059 14
124 1 -2.18954 -7.23526 1.66279 20
125 1 -2.21262 -9.70146 0.481099 16
126 1 -8.81999 -4.04154 -12.3872 6
127 1 -8.84202 0.507708 -9.16296 12
128 1 9.73131 3.71917 7.96747 13
129 1 10.6317 -4.65361 8.89143 10
130 1 -0.91715 -5.85628 4.38316 21
131 1 5.94495 7.7761 1.29297 19
132 1 -8.04088 -8.19829 1.07663 21
133 1 2.4485 12.7255 1.30477 15
134 1 -5.49576 -5.33323 -12.0247 15
135 1 -3.2733 -12.5506 -9.81395 11
136 1 -3.36735 -7.44213 -1.43221 22
137 1 13.2433 4.47584 2.87676 14
138 1 -2.36805 -6.73424 -4.26467 23
139 1 -7.05801 -5.13698 6.42078 17
140 1 -1.90704 -9.62706 -2.77057 17
141 1 1.09558 -10.7433 -0.821677 17
142 1 1.04063 -13.9311 -1.89731 10
143 1 -6.84988 2.03805 -11.416 13
144 1 9.86573 10.1385 3.33357 11
145 1 -0.998378 -0.548075 -9.50022 19
146 1 2.95713 8.64664 -12.4226 9
147 1 -0.663741 -3.0932 6.04832 22
148 1 5.06874 13.6963 2.85574 11
149 1 7.8245 2.63284 2.76997 18
150 1 -8.12969 -0.416128 2.12349 21
151 1 -0.195234 -7.42572 9.84003 12
152 1 -9.11558 8.08645 3.53068 14
153 1 3.80462 -4.22676 -14.4518 13
154 1 5.17185 -7.97627 -1.63947 17
155 1 8.51999 -4.71454 -12.3126 12
156 1 -3.13816 -3.90357 3.46748 20
157 1 -2.33115 3.19533 10.8778 11
158 1 -7.481 2.59351 -0.120506 20
159 1 8.81848 -10.6818 -5.59221 13
160 1 -0.697863 8.21784 -0.241165 21
161 1 -4.50063 4.56998 2.81395 21
162 1 1.25143 -11.1107 4.47423 18
163 1 -2.89614 6.60789 6.78638 14
164 1 -5.64828 -4.57152 -7.10436 20
165 1 -4.41251 12.2892 6.12905 8
166 1 -2.8128 1.22304 -7.01445 21
167 1 -12.0285 2.37648 1.04095 11
168 1 -1.85987 -5.18436 -7.27755 24
169 1 -5.74572 9.09632 -1.99748 19
170 1 9.40017 -2.30641 6.12338 16
171 1 8.01161 -8.2819 5.4797 11
172 1 3.13411 -1.59731 8.58151 16
173 1 1.93347 -11.5788 -6.52502 15
174 1 -3.69599 -2.94471 -11.6656 20
175 1 -9.82506 0.168007 -6.46507 14
176 1 -0.273855 -7.53305 -1.52127 21
177 1 12.7799 0.239052 -1.6355 15
178 1 -2.26628 5.15883 -11.5023 11
179 1 -10.5285 5.31175 5.01413 13
180 1 -8.07938 12.4319 1.06385 9
181 1 -2.502 3.86094 5.96481 22
182 1 10.4751 -4.51685 -9.45239 14
183 1 12.4204 -1.35579 -7.44274 8
184 1 -3.30081 4.01988 -1.55395 21
185 1 -2.31968 -11.0382 -7.76786 18
186 1 4.29894 9.75547 6.40759 15
187 1 -5.46899 1.4076 -8.18614 19
188 1 6.78918 -12.3025 -3.18812 13
189 1 12.4337 -0.644275 6.19641 14
190 1 -9.80919 -5.34734 -6.45495 13
191 1 -7.48681 -10.9636 -0.673582 18
192 1 -3.28049 10.9465 -2.27367 19
193 1 -7.44317 7.38398 -4.23724 19
194 1 -1.22413 -8.13928 -13.9691 11
195 1 5.23844 -11.1057 2.61643 16
196 1 -3.61001 -12.5517 -4.98278 21
197 1 -8.33128 3.15732 -8.76765 13
198 1 -1.03924 -12.8629 3.08414 11
199 1 -5.15007 -1.57891 6.58383 20
200 1 -6.31462 2.14089 2.51141 22
201 1 1.177 -5.21397 -7.17621 22
202 1 2.5263 -3.14172 5.84815 20
203 1 -10.5772 0.154451 4.62618 13
204 1 -1.66621 -5.2278 8.63944 23
205 1 -2.70216 -4.98569 11.7868 8
206 1 3.69602 -7.74565 -7.01321 21
207 1 7.33242 -10.8414 -0.434094 15
208 1 1.03175 11.8347 -4.76419 16
209 1 -7.44692 -8.12408 6.10602 15
210 1 12.1258 -3.72881 6.46708 12
211 1 9.55857 5.23589 -1.76675 21
212 1 2.42345 -3.39547 -9.73886 21
213 1 12.3993 -5.25158 4.09493 17
214 1 -6.23513 -0.329181 10.9357 11
215 1 3.83408 11.6313 -1.37657 14
216 1 7.54732 -5.33251 6.75928 17
217 1 -5.50675 -13.3215 -7.70141 12
218 1 2.44269 12.4358 4.86724 14
219 1 -7.69338 0.706799 5.13908 22
220 1 -5.0333 -10.4904 -2.64088 23
221 1 -5.67328 -10.4988 -6.71438 16
222 1 -6.59825 9.34253 6.11654 11
223 1 -6.11867 -11.5462 -10.1815 10
224 1 -6.21538 -3.86009 3.93978 22
225 1 9.69184 5.84006 5.52852 12
226 1 12.7458 5.65307 -3.13984 15
227 1 2.36048 3.90144 -7.17455 20
228 1 -0.927396 4.1195 -6.50923 21
229 1 -0.651512 8.02657 8.42519 15
230 1 -11.4709 -1.47861 -4.23894 15
231 1 6.00349 10.5149 -6.81606 13
232 1 -6.20039 -9.06842 -9.03729 14
233 1 -0.117419 -4.70876 -14.9 12
234 1 11.9562 7.67603 -6.37149 12
235 1 2.86317 8.72152 0.478997 21
236 1 4.80114 -0.303023 -9.40347 22
237 1 5.68071 -6.97703 3.83442 17
238 1 -3.89569 2.85791 -12.8943 13
239 1 10.3042 7.84887 -3.46608 18
240 1 6.4149 -5.10279 -1.62836 20
241 1 2.10848 1.21194 -13.8859 13
242 1 2.85137 -9.30885 2.31772 20
243 1 4.02633 -10.2488 8.46872 9
244 1 -3.66108 0.403143 -10.3561 21
245 1 -0.520596 2.37201 -11.436 18
246 1 -10.8927 -3.21042 0.271694 16
247 1 11.1924 -0.171058 -4.75022 16
248 1 -4.27258 8.0568 -4.67733 22
249 1 5.48857 -8.53842 -10.1624 19
250 1 4.81615 1.43782 -12.6599 17
251 1 11.4013 -5.09515 -6.30745 11
252 1 -8.02143 -6.50074 3.56785 20
253 1 -3.12065 13.1963 2.8218 13
254 1 4.14738 9.42836 -9.28043 13
255 1 14.4337 3.04647 -3.1962 12
256 1 -0.1806 -11.9199 -4.26551 19
257 1 2.65307 -6.60166 -9.56071 19
258 1 4.59452 7.13993 -1.66421 23
259 1 15.0648 -2.83068 -3.12945 8
260 1 5.25593 -9.08389 -4.41176 20
261 1 -9.92186 2.58554 7.07967 13
262 1 -4.47976 -7.47304 -6.61732 20
263 1 -0.270995 -2.31214 11.2749 13
264 1 8.73529 5.78198 -8.37814 15
265 1 -9.30171 9.18585 -3.60432 11
266 1 0.857236 13.8535 -1.49902 12
267 1 -2.01653 -1.66438 7.95471 19
268 1 3.47927 -12.4781 -4.27054 13
269 1 5.34396 -4.62321 -9.4424 18
270 1 -12.3059 -6.24394 0.323431 8
271 1 -6.65652 0.443979 -5.38074 19
272 1 -7.90217 -1.98286 5.14782 20
273 1 6.71357 9.40606 -1.70561 17
274 1 3.42477 -10.0437 -8.76 15
275 1 5.57358 -8.09245 11.0181 7
276 1 7.39755 -0.675123 -5.08926 20
277 1 -12.2117 7.09788 2.32427 8
278 1 9.73295 -7.51398 -6.91135 12
279 1 1.90894 9.34757 9.01939 12
280 1 -2.46897 -1.72508 -15.5892 11
281 1 5.94037 4.46306 -13.1994 11
282 1 -2.92301 -4.62634 -14.076 13
283 1 -2.74747 -9.4051 -5.42414 20
284 1 14.7999 0.166519 -5.42749 8
285 1 7.968 -8.25738 -11.6981 9
286 1 5.80717 -11.844 -6.45102 13
287 1 7.8306 11.9032 -4.21029 12
288 1 -5.03792 5.61536 -3.60736 20
289 1 13.9485 4.7723 -6.04863 13
290 1 4.24044 -4.92763 7.65731 15
291 1 7.73897 6.56835 7.83315 12
292 1 -6.31295 -2.64827 -9.2556 18
293 1 11.9035 6.35429 -0.0913932 14
294 1 12.913 -2.90057 0.112284 16
295 1 -0.724478 11.5409 7.05462 11
296 1 4.29665 3.37126 5.59293 21
297 1 -6.91416 11.6814 -2.31653 14
298 1 -0.556647 -13.7581 -7.13493 11
299 1 -3.5974 6.88043 -7.69808 15
300 1 -4.51676 -0.105083 -14.4882 10
301 1 -9.50933 2.64791 -5.87129 16
302 1 11.763 -6.44168 0.774519 16
303 1 1.51212 -6.32287 6.64891 22
304 1 9.74242 2.98984 -7.39282 17
305 1 13.486 0.119577 3.09932 17
306 1 7.12067 12.5803 -0.782303 11
307 1 14.8132 -4.56256 1.58817 10
308 1 -3.80513 1.21944 8.9372 23
309 1 -10.6112 -6.98096 2.93435 13
310 1 -9.32785 -2.70191 -8.80788 15
311 1 9.26796 0.930022 9.95291 10
312 1 -5.03543 11.8845 0.642671 18
313 1 10.3274 4.75911 1.80573 20
314 1 5.66302 5.27213 3.15234 21
315 1 -7.22 0.288107 8.1666 18
316 1 9.28407 -2.08499 -12.1621 11
317 1 -0.152095 -8.01985 -6.35131 17
318 1 8.27753 7.22651 3.98426 19
319 1 4.30959 7.24019 8.98993 13
320 1 2.30202 -2.23581 11.4075 12
321 1 -1.02113 4.68296 8.58366 18
322 1 -6.69319 2.99931 7.5103 19
323 1 -2.14558 5.63758 -4.74985 21
324 1 8.99074 8.60215 -6.33128 16
325 1 1.08812 -0.306892 5.70264 18
326 1 3.95469 12.0505 -4.95975 11
327 1 -5.15372 -13.5973 -1.4964 13
328 1 7.55571 6.11501 0.477265 20
329 1 0.700547 3.41257 6.06135 22
330 1 -5.87434 4.61635 0.0899177 18
331 1 6.73768 5.02937 -5.81974 21
332 1 3.0137 1.2814 8.08659 19
333 1 8.53669 12.7658 2.46172 10
334 1 1.73662 -3.37645 -12.2641 16
335 1 -3.06661 6.52751 3.86818 18
336 1 8.9567 -4.22032 -4.07526 18
337 1 9.49253 8.49454 -0.219842 18
338 1 -11.454 -0.480156 1.82024 13
339 1 4.18855 -13.7905 -1.29215 10
340 1 8.6039 5.69505 -11.3156 9
341 1 7.63107 -5.6252 1.19108 19
342 1 0.826513 8.14009 2.40186 18
343 1 4.2021 -0.72105 -15.9725 9
344 1 8.06657 -6.7098 -9.38997 16
345 1 -3.18104 9.6721 6.55337 10
346 1 2.42006 -6.66456 3.77513 20
347 1 1.91813 0.159571 -8.95651 18
348 1 -6.71118 -12.3708 -4.39831 10
349 1 -2.35368 0.0390141 5.84296 20
350 1 10.3549 -0.679552 0.8879 21
351 1 -3.53427 10.0742 -8.03042 11
352 1 9.22977 2.77033 -10.3367 11
353 1 12.3731 5.1284 -8.2657 10
354 1 1.00598 6.49171 -7.38862 17
355 1 -3.45024 -2.22952 11.7846 10
356 1 -4.31059 -6.82155 4.11762 25
357 1 1.50443 -9.38906 -11.6218 14
358 1 -10.7112 6.22227 -3.14171 11
359 1 9.35738 10.618 -2.12123 15
360 1 -7.37202 -3.39173 1.46979 23
361 1 4.27114 7.4731 -7.08732 17
362 1 -4.38061 1.07831 12.5757 10
363 1 -12.9889 -3.78657 -2.01185 8
364 1 8.8088 2.75132 -4.36824 21
365 1 -5.15778 -7.09632 -3.79859 19
366 1 9.23192 -2.84634 -0.376338 20
367 1 5.85045 -8.61395 1.17355 15
368 1 1.20019 9.36413 5.65788 21
369 1 -4.45368 3.89958 8.34069 18
370 1 9.32234 2.58197 -0.0907098 16
371 1 10.9418 -8.19459 -4.22332 14
372 1 3.93567 7.52011 3.50119 21
373 1 3.41181 10.6826 3.18453 21
374 1 -1.76712 -11.3809 5.89105 12
375 1 -9.20058 -3.49523 -3.29088 15
376 1 3.07827 1.18687 11.5744 13
377 1 5.88123 11.0626 0.907523 20
378 1 7.62646 -5.90914 9.30945 12
379 1 14.2515 -2.44362 3.90513 13
380 1 6.45308 9.40066 3.91459 18
381 1 -2.71528 7.15603 -2.24442 20
382 1 -1.79336 -10.0978 -11.211 15
383 1 -1.62402 1.3352 -14.1301 11
384 1 -4.72249 -4.11453 9.04009 13
385 1 11.4398 2.11342 2.04587 20
386 1 2.82192 11.5825 -7.84004 13
387 1 6.37828 -2.50971 -14.0439 12
388 1 -3.33092 -12.4436 0.245466 14
389 1 -4.92481 -1.86907 -5.79898 18
390 1 4.71909 -1.81882 -11.9782 18
391 1 1.73588 -9.28082 -4.00056 17
392 1 3.00652 -7.0983 9.79915 12
393 1 -0.0451818 -8.44316 3.25794 19
394 1 9.54648 -0.405337 -9.00353 15
395 1 -5.89257 11.2868 3.4592 14
396 1 12.7933 -5.46586 -3.3986 11
397 1 -11.6537 -0.28823 -1.44326 14
398 1 11.2263 7.48839 2.812 12
399 1 6.5466 3.52669 8.52617 15
400 1 -11.2053 -2.27158 -7.14671 12
401 1 -2.27992 2.80773 -9.07229 21
402 1 12.5908 -8.27652 -1.60433 10
403 1 -7.50216 -7.60969 -6.00534 17
404 1 -5.73979 -10.0103 3.49218 19
405 1 11.4959 -2.13261 2.93799 20
406 1 -10.2573 5.12577 -0.121079 15
407 1 5.40666 6.56555 -10.5138 17
408 1 10.3668 -6.60936 6.76839 12
409 1 -9.51811 -1.5372 10.3941 5
410 1 -2.68728 -6.43939 -11.8599 18
411 1 -6.66252 -12.5004 1.75743 13
412 1 6.5798 -0.0599581 8.41795 19
413 1 -2.03568 -13.9564 -2.96984 12
414 1 7.67582 -2.51334 -9.9155 21
415 1 -7.24001 9.14668 0.835241 19
416 1 -4.84987 1.73842 5.57787 25
417 1 -3.09341 -15.6373 -5.54751 6
418 1 7.62309 7.2297 -3.59478 19
419 1 10.9603 2.98616 -2.72154 19
420 1 2.67478 -9.19608 5.6887 16
421 1 1.39318 8.79291 -5.54662 19
422 1 6.96284 0.333067 -11.1747 18
423 1 -8.2616 3.78789 -3.06875 22
424 1 3.8984 5.15157 -4.76054 22
425 1 6.02421 12.2739 4.97115 13
426 1 4.62406 7.9931 -4.38952 17
427 1 -6.8713 2.67373 10.3182 12
428 1 7.34845 1.29544 -7.3486 22
429 1 3.87187 -13.4429 3.92832 9
430 1 -3.79242 -4.28419 6.52684 18
431 1 10.8484 2.41656 4.81646 19
432 1 7.10916 -4.32387 -7.15203 19
433 1 0.392297 4.84386 -9.68906 18
434 1 -0.804764 4.59341 3.00806 21
435 1 -2.10882 5.17167 0.522395 22
436 1 -2.93345 -9.57718 4.02503 19
437 1 10.0515 -5.88935 -1.60774 19
438 1 1.45806 -0.292827 -11.8641 21
439 1 -5.65206 -4.50637 -1.63154 22
440 1 -6.38859 3.67336 -5.6289 20
441 1 9.12882 0.522355 7.15966 19
442 1 -8.52952 -10.0289 3.05696 14
443 1 14.7104 -1.14232 0.493464 11
444 1 2.51243 5.69921 -12.0766 12
445 2 -9.36375 -1.08886 -7.91706 15
446 2 -6.26096 13.4718 -3.40401 8
447 2 2.49373 -0.297944 -15.2636 11
448 2 -2.8973 3.03224 9.04632 17
449 2 -6.06135 -5.33076 -9.01005 17
450 2 4.93654 1.05237 11.9301 9
451 2 -11.0324 1.11667 -2.52335 14
452 2 11.9194 5.7844 1.89412 14
453 2 -1.42507 -3.62658 -8.16857 22
454 2 -6.49986 -11.0035 -8.43808 11
455 2 -5.76292 1.5233 -0.0751099 21
456 2 -1.05451 -7.63258 4.94403 22
457 2 5.16059 3.59799 10.2101 12
458 2 8.20384 -3.09326 -13.4793 11
459 2 7.74704 -0.453373 2.69162 19
460 2 -3.42792 14.0919 -2.20422 12
461 2 11.7825 1.08062 5.6105 15
462 2 -8.08309 -3.63988 3.57103 21
463 2 -2.31274 -12.9835 1.805 10
464 2 13.1363 -3.64954 4.63297 13
465 2 -10.0779 7.2713 -0.563887 16
466 2 -7.51394 9.86939 -3.02891 14
467 2 -4.88821 6.24891 4.19712 18
468 2 7.73865 -3.49506 -5.57264 18
469 2 -3.06744 -4.65676 -10.6289 20
470 2 1.59098 -7.28259 -11.1894 14
471 2 9.56299 -3.64728 -10.9255 13
472 2 13.0805 2.33061 -1.70609 15
473 2 -2.569 7.99064 2.68557 19
474 2 -3.97127 -10.6541 -7.06182 20
475 2 4.98665 -11.0486 7.0099 9
476 2 10.8764 -0.10071 2.7509 20
477 2 -7.9603 2.02956 -1.98926 18
478 2 7.66269 8.08547 0.134455 21
479 2 7.12555 -10.7477 1.61395 14
480 2 0.799212 5.89944 3.01274 22
481 2 5.843 9.48822 2.28474 18
482 2 0.660248 10.1717 -3.33701 18
483 2 -8.10515 1.76001 7.07422 17
484 2 2.30537 2.11087 -7.79734 21
485 2 -5.20324 -0.253449 -6.70014 18
486 2 -11.1481 1.16025 2.85362 12
487 2 -7.27585 -6.42855 1.62921 21
488 2 2.26558 -7.48364 5.47406 17
489 2 1.03087 -3.56272 10.6359 16
490 2 1.20541 7.10918 5.99975 20
491 2 -7.63706 4.69981 -0.817152 18
492 2 5.52029 -9.72804 -6.12565 19
493 2 12.9817 -0.262821 -6.01988 10
494 2 -1.2215 -8.91867 -0.983969 17
495 2 6.96693 -5.4 -8.93372 21
496 2 3.66271 9.01832 8.2966 13
497 2 7.61055 -11.1 -6.89797 13
498 2 5.98287 -4.32234 7.7826 12
499 2 -6.82061 -9.74724 1.34798 20
500 2 13.2618 -1.22732 -0.768594 14
501 2 2.01396 -10.6139 1.28709 14
502 2 13.232 -3.76783 -2.57286 13
503 2 -4.71337 -7.10776 -11.92 14
504 2 -8.39114 -11.8694 1.56064 11
505 2 -0.733778 -6.98737 0.543559 19
506 2 -5.50319 -6.41807 -2.15007 18
507 2 -5.10737 10.8922 -1.16377 19
508 2 5.74485 0.105974 -7.5118 21
509 2 11.6994 3.71006 -7.28755 13
510 2 3.17288 5.66374 -7.30965 20
511 2 -4.82004 2.17523 7.42562 22
512 2 -11.7334 5.73025 1.03673 8
513 2 -3.63717 -2.73928 7.87975 17
514 2 -8.95907 4.57358 3.76172 16
515 2 -6.01665 1.94796 -4.05005 16
516 2 10.737 -1.2745 -7.88381 12
517 2 11.4812 -9.55836 -2.78976 10
518 2 11.1243 4.72389 -3.40647 20
519 2 1.72342 12.2255 2.87881 15
520 2 -2.60182 5.47138 2.32904 19
521 2 12.9441 5.04852 -1.05642 15
522 2 3.10256 7.89172 -2.67535 20
523 2 2.364 12.2516 -5.88716 14
524 2 -0.8688 3.36456 7.11473 17
525 2 -0.844817 -3.48826 7.96919 18
526 2 3.10039 -5.9855 -7.82034 19
527 2 -6.29208 1.45997 11.8391 10
528 2 6.333 2.69909 -13.6428 11
529 2 -5.70113 -8.0125 6.69767 13
530 2 -1.95345 -10.8342 -4.28584 19
531 2 0.0191627 -6.74856 -7.78867 20
532 2 5.45538 -12.1053 -1.41007 11
533 2 14.2694 1.76496 -4.62987 11
534 2 -4.04483 4.51685 -11.3242 12
535 2 0.34575 12.1228 5.52246 11
536 2 -7.25314 -3.52523 -2.20351 17
537 2 4.97658 4.68775 -10.0759 17
538 2 2.55874 13.0632 -0.448259 11
539 2 0.379012 4.65523 9.71679 16
540 2 1.96783 -11.2495 -4.51767 16
541 2 7.89651 4.70597 7.73594 15
542 2 11.5147 -6.85684 -2.59309 17
543 2 9.28476 5.01682 0.295007 19
544 2 -1.63198 6.92853 -11.3752 10
545 2 7.49563 -7.27418 10.4937 7
546 2 -3.13657 -10.3672 5.80425 14
547 2 9.54938 -8.88277 2.15963 16
548 2 -8.03896 9.26001 -5.18494 14
549 2 -5.74858 -12.661 -5.8756 11
550 2 1.0289 -1.77526 -12.9682 18
551 2 -2.49953 -8.826 -12.5108 12
552 2 6.91963 13.1429 3.57465 11
553 2 -11.4834 -7.63451 -0.618014 11
554 2 -10.5195 3.25461 0.0626778 15
555 2 11.2145 -2.21147 6.28309 17
556 2 -3.03787 -14.1345 -4.3119 12
557 2 3.29926 -1.1323 -8.54246 18
558 2 -5.78638 -1.00093 -13.2094 13
559 2 -6.9531 -4.40968 -13.1381 9
560 2 -4.39832 -3.66692 10.8858 10
561 2 -3.19619 -6.59481 -8.11557 21
562 2 1.60731 -3.44244 -8.10947 21
563 2 5.92962 -1.91275 -10.4388 20
564 2 -9.13057 -8.21937 2.58926 18
565 2 2.97195 -1.87309 -11.2285 17
566 2 -1.16873 -9.30982 -7.48598 18
567 2 3.99484 7.08232 -11.557 11
568 2 4.26478 13.0911 4.65254 11
569 2 12.4805 3.26727 4.11232 14
570 2 -8.60683 -1.26489 -2.79191 19
571 2 -4.69769 -8.66684 4.46955 16
572 2 -1.86727 -2.08607 -10.9137 17
573 2 4.67956 7.99548 5.22166 21
574 2 -3.8752 -7.49975 1.13604 22
575 2 -4.04027 4.17576 0.0559773 19
576 2 -10.5405 -2.21717 8.9524 5
577 2 -2.32401 -12.6472 4.421 10
578 2 -10.6623 -2.23443 1.88835 18
579 2 -8.48572 -7.22444 -0.582661 18
580 2 -6.04945 -6.02041 3.7789 21
581 2 11.2586 -5.16283 6.91481 13
582 2 5.49369 6.5487 -5.43316 18
583 2 7.29348 9.14281 -6.75576 15
584 2 10.6781 2.10624 -4.61352 18
585 2 -0.797424 13.5709 -0.403501 14
586 2 -8.33716 -6.30426 -7.17566 14
587 2 -12.1697 -1.90178 -2.15046 12
588 2 -2.06957 -14.5752 -6.52239 10
589 2 9.10107 -6.24591 8.06473 12
590 2 11.3219 -6.02864 2.67643 16
591 2 -5.4149 8.21144 -6.34804 15
592 2 8.86685 2.50849 -2.06917 20
593 2 8.60082 -4.25705 9.52662 11
594 2 0.673369 -4.03185 -10.89 18
595 2 3.82165 5.34418 2.94186 22
596 2 6.85563 6.59446 2.48904 21
597 2 -0.223735 -0.360806 11.2398 14
598 2 -6.36363 3.9907 1.89017 17
599 2 6.96476 5.76224 -7.62956 19
600 2 -6.07721 -8.43282 -7.20941 17
601 2 -7.68155 -3.49477 -7.92255 17
602 2 -6.82595 -0.87467 6.34281 17
603 2 9.523 11.2002 -3.95961 11
604 2 12.0656 7.26714 -4.63202 13
605 2 11.7842 -8.44424 -0.00249951 13
606 2 -11.9756 0.484098 0.36375 10
607 2 -0.790606 9.84614 0.965844 18
608 2 -2.71238 8.37635 -8.26268 15
609 2 4.84636 0.733808 -10.9621 18
610 2 -6.57834 5.56489 -4.84898 18
611 2 -9.07266 -3.82672 -0.0408146 17
612 2 8.29834 -5.94339 -3.23519 16
613 2 4.81604 -9.15212 2.67004 19
614 2 -5.22083 8.71203 1.44566 16
615 2 0.671259 -5.92473 3.09092 22
616 2 -8.59856 4.12136 -5.11954 16
617 2 2.5663 -6.55269 0.134945 20
618 2 2.98878 5.89652 9.27541 15
619 2 1.50355 1.10202 -10.5761 21
620 2 3.15556 9.41178 -10.7427 12
621 2 7.34983 2.1656 -10.9355 19
622 2 -1.59556 11.2502 -1.43566 18
623 2 -7.85696 -0.892752 10.1404 9
624 2 -1.55722 -6.05845 10.6309 13
625 2 -2.08425 -5.62231 2.62284 20
626 2 -12.4577 -3.43077 -3.77076 11
627 2 -5.64904 -3.73148 5.88695 19
628 2 0.0240623 4.69936 -7.98035 17
629 2 9.43587 -0.845448 -4.95141 19
630 2 4.27894 -3.99122 5.49682 21
631 2 3.21116 2.47642 -12.8529 15
632 2 7.96507 6.06375 -2.17298 20
633 2 5.72753 10.4447 5.58823 13
634 2 4.84411 -3.47079 -7.56447 22
635 2 -5.66318 -4.28566 0.374771 21
636 2 -4.61942 10.7889 -6.55945 9
637 2 -1.689 6.51858 8.72641 14
638 2 1.40122 -12.7432 -0.4473 11
639 2 -5.43473 -11.9531 3.05547 17
640 2 4.67112 -0.208079 7.95735 16
641 2 6.90763 5.68524 -12.2746 9
642 2 5.76339 11.1126 -1.2567 18
643 2 2.96798 -11.7228 4.86789 17
644 2 5.18815 -11.0957 -8.26431 14
645 2 1.98028 4.51664 -10.7036 18
646 2 2.64529 2.42085 9.71424 16
647 2 4.7332 3.35834 7.60478 19
648 2 8.73032 -5.36101 2.79586 18
649 2 0.385923 1.0236 -12.8505 15
650 2 9.99321 -6.12078 -8.3762 12
651 2 -7.99912 12.6174 -1.15902 9
652 2 3.82594 -9.78033 -11.1128 14
653 2 -3.04319 2.23137 12.2029 9
654 2 -6.9132 2.62349 -7.94064 20
655 2 9.11479 -8.95007 -4.70758 16
656 2 4.26623 12.179 1.87354 19
657 2 10.6791 7.24489 -1.58832 18
658 2 11.0403 1.56811 0.431766 20
659 2 -6.94031 -2.23983 -5.23675 18
660 2 -4.23565 3.79893 -5.30225 21
661 2 -4.03015 2.80287 -8.36867 21
662 2 14.0355 5.15276 -7.82816 7
663 2 -9.07983 6.92298 -3.5077 15
664 2 -0.0551629 -6.07768 8.01098 20
665 2 2.5741 -0.605239 10.4095 16
666 2 1.80143 -10.9858 -8.32163 15
667 2 -1.57427 -3.52528 -15.2917 11
668 2 3.37721 11.3563 -3.33354 17
669 2 8.10084 12.1703 -2.22279 11
670 2 -4.95841 -5.73838 -5.79108 18
671 2 -5.08022 -12.3615 -3.10427 15
672 2 7.9157 2.72368 4.74323 19
673 2 -8.59452 10.2986 1.09411 14
674 2 3.98085 -12.3783 1.17439 16
675 2 8.79155 -0.975963 -0.463996 19
676 2 -2.3358 -4.46809 5.2573 21
677 2 -3.83135 -8.17591 -4.69436 21
678 2 0.473173 9.91816 7.921 12
679 2 2.50827 10.3505 -0.91051 21
680 2 -9.61151 7.01107 5.27205 14
681 2 -0.677626 -8.95898 8.17323 14
682 2 -1.80915 11.5931 2.55126 14
683 2 -0.284424 -13.2317 -3.13337 13
684 2 0.813919 -4.22379 5.51974 22
685 2 7.79723 1.39168 10.8241 12
686 2 -7.76999 7.38982 2.19798 17
687 2 -7.16698 8.23255 -0.790308 17
688 2 -0.66372 1.76521 9.96482 16
689 2 -2.71126 -10.8086 -9.82779 16
690 2 11.387 -0.585914 -2.8256 17
691 2 8.14408 -7.96409 -7.63724 16
692 2 -2.86625 9.28392 -2.99514 16
693 2 -5.58412 0.423381 9.20314 20
694 2 -9.17193 1.82739 -7.57703 14
695 2 11.45 -7.19079 -5.88377 11
696 2 5.88136 8.05745 -3.01155 18
697 2 -2.47236 0.203788 7.69799 17
698 2 1.36627 -0.101205 7.57133 20
699 2 1.42576 7.20084 -12.5603 10
700 2 -11.2107 -0.919879 -6.02395 13
701 2 -4.92017 -2.98928 -7.99887 21
702 2 0.277796 7.1953 -5.60451 20
703 2 -3.43567 1.23064 -14.1678 11
704 2 4.28936 -5.93433 -10.2702 18
705 2 1.4332 -9.17857 -1.89437 19
706 2 4.51945 -8.48382 9.46899 9
707 2 6.04672 -1.05629 5.39575 20
708 2 11.3592 -4.4043 -4.45737 14
709 2 0.715954 -12.365 3.02311 15
710 2 9.79963 11.5881 2.01572 10
711 2 -0.102094 8.96544 3.90004 18
712 2 -10.6984 -5.7779 1.50719 16
713 2 10.9804 6.32987 -7.42623 15
714 2 6.87889 -6.77101 5.39448 18
715 2 -6.43229 12.3238 1.90812 12
716 2 7.50844 1.4571 -5.245 21
717 2 5.66075 4.64896 5.32111 22
718 2 -8.28741 1.607 1.56219 22
719 2 4.32108 10.6637 -7.77972 14
720 2 6.13796 -0.519459 -13.0188 19
721 2 -2.40327 2.0326 5.29241 22
722 2 -4.59041 -0.877368 11.8679 10
723 2 13.5926 -0.750017 4.71548 13
724 2 8.70983 -0.881213 -10.6496 13
725 2 -7.05233 -7.54644 -4.0248 16
726 2 5.52991 -9.66662 -0.445171 15
727 2 10.4784 -3.89416 -7.65463 16
728 2 1.17248 7.80614 0.296192 20
729 2 0.48371 -7.47302 -13.8428 13
730 2 -9.54382 2.02814 5.19807 16
731 2 -7.38429 -1.65189 0.438914 21
732 2 5.27938 -12.4475 -4.68376 13
733 2 -1.11009 -12.093 -8.74278 14
734 2 0.00401173 -12.1564 -6.2979 14
735 2 15.5865 -1.20766 -4.31288 5
736 2 -0.096426 9.22841 -11.2546 10
737 2 7.5889 12.3278 0.993409 13
738 2 -5.56613 -9.72552 -10.8574 11
739 2 4.60761 1.60474 4.99053 22
740 2 -4.19452 5.282 6.72904 19
741 2 -2.5428 7.67849 -4.69883 17
742 2 -2.33253 5.37972 -6.78086 20
743 2 0.0627832 -10.4151 -11.2482 13
744 2 -5.98566 -12.4568 -0.142264 13
745 2 -10.7425 8.15659 2.44357 12
746 2 8.42428 7.28169 -9.74255 11
747 2 -0.0675876 8.04124 -8.60749 16
748 2 3.33123 8.7341 -5.72678 23
749 2 -4.3538 -4.08435 -13.1249 15
750 2 2.23026 -8.15212 -5.67351 24
751 2 -10.391 -3.89535 -7.50853 13
752 2 8.32896 9.4343 3.96787 15
753 2 -1.84932 2.77891 -12.8907 13
754 2 -9.70971 -5.37154 4.06772 17
755 2 9.02242 -0.391034 5.50284 22
756 2 8.09285 6.62353 5.92561 16
757 2 8.85222 1.50328 -8.77737 15
758 2 1.14954 10.8824 -8.62049 15
759 2 -3.19331 12.1548 -4.08911 13
760 2 13.4028 -1.89843 2.35979 18
761 2 -2.61376 -0.220297 -8.18668 20
762 2 5.41131 8.31345 -8.88664 16
763 2 1.07535 1.84611 12.5115 9
764 2 -1.49609 -7.21099 -10.5694 22
765 2 6.64841 -1.3594 10.6307 10
766 2 2.25659 4.31414 5.7062 18
767 2 9.25377 -10.5834 -0.763572 11
768 2 8.36642 -6.44718 -11.9826 12
769 2 -5.03938 10.4165 6.84191 9
770 2 7.52519 -10.0892 4.51603 13
771 2 0.102777 10.0481 -6.02142 18
772 2 5.85002 6.94628 7.8025 13
773 2 -8.33245 6.01916 -7.62557 12
774 2 0.186541 12.7027 -3.1072 17
775 2 -7.06304 -10.5601 -4.8629 14
776 2 1.79764 -4.07102 -14.3348 14
777 2 -6.8778 4.61104 6.15814 19
778 2 15.1695 -3.07906 0.661139 10
779 2 -2.26467 11.6633 -7.73043 9
780 2 -8.47735 -0.597405 3.94626 23
781 2 -5.02175 -12.9555 -9.35242 10
782 2 -1.81949 8.60427 6.64738 16
783 2 -1.87963 -6.21661 -13.727 13
784 2 -7.02795 3.53767 -10.3551 13
785 2 -1.87891 1.32352 -10.2252 19
786 2 -1.82482 -0.751693 -14.1361 13
787 2 -6.35753 9.39654 4.0643 14
788 2 -7.08813 7.52499 6.64161 11
789 2 5.8975 11.4419 -5.06021 13
790 2 -3.23828 -13.5852 -1.35372 11
791 2 5.58662 2.64207 -8.07072 19
792 2 4.80821 -3.53329 -12.7252 16
793 2 -10.1188 -10.6778 -0.467047 11
794 2 -5.47679 7.37357 -2.9497 18
795 2 -8.54061 -6.51582 5.96608 13
796 2 -1.26393 3.92521 -10.3558 16
797 2 -0.0287384 -11.1045 5.96916 17
798 2 10.2199 4.09061 5.98522 16
799 2 8.0786 -3.63434 5.80538 20
800 2 -4.3863 -0.240308 5.48805 22
801 2 9.35267 4.17106 -9.15291 13
802 2 0.791721 7.70657 9.39082 13
803 2 -1.05691 -8.07975 -4.59914 21
804 2 -9.61339 -8.46181 -2.97601 12
805 2 -7.31709 -9.09296 4.48127 15
806 2 -6.10664 -0.140547 2.20792 21
807 2 -5.00406 5.82714 -8.45627 15
808 2 -11.0951 -5.89527 -4.98754 9
809 2 -4.47155 12.5261 4.12287 11
810 2 10.0186 -7.34362 5.01572 13
811 2 10.9768 9.23945 2.16941 11
812 2 -3.76905 -10.7303 0.704959 21
813 2 -9.16252 -3.8164 6.37333 13
814 2 -8.58612 0.944081 -5.0277 20
815 2 -0.777661 -1.07378 5.45374 23
816 2 3.87474 -3.25351 11.7732 7
817 2 1.37508 -9.36352 3.68683 15
818 2 9.77929 3.03273 2.6428 16
819 2 5.50679 -6.81872 -6.10866 18
820 2 -2.62855 7.01536 -0.222223 17
821 2 -5.39755 -2.36941 -10.9342 19
822 2 -4.59357 -2.77666 2.88977 22
823 2 2.92571 -6.29139 7.9699 16
824 2 1.4109 -6.62347 10.5394 13
825 2 4.62511 -6.59909 11.126 10
826 2 5.42218 3.78314 -5.06952 20
827 2 10.2197 7.01163 4.10619 11
828 2 4.74319 -2.78561 -15.1988 12
829 2 10.1886 -3.25904 3.88528 20
830 2 13.5493 4.29546 -4.29532 14
831 2 7.13733 -9.49919 -10.2264 13
832 2 2.83112 10.323 5.02001 20
833 2 14.7456 1.98015 3.62754 10
834 2 -2.66546 -6.58869 7.70741 17
835 2 2.74554 -3.02889 7.90345 20
836 2 -5.41603 -5.32254 7.83265 13
837 2 2.85046 -13.8757 -2.69726 10
838 2 11.05 -2.62014 0.962559 19
839 2 13.2583 -5.21566 0.786017 13
840 2 2.26672 -10.9265 8.015 10
841 2 7.59524 -4.01323 -0.0573394 20
842 2 -10.1199 4.62837 6.84673 10
843 2 -1.9826 5.65422 5.23778 19
844 2 8.67581 4.0524 -5.7242 21
845 2 3.73945 -6.06543 -13.7733 12
846 2 5.86143 -7.81509 -12.1258 11
847 2 5.68122 0.233583 -15.8512 8
848 2 -5.27625 1.01988 -10.9285 17
849 2 10.7102 10.1541 -0.851015 11
850 2 -10.0008 -2.94141 -5.00269 18
851 2 14.1584 3.7923 1.36121 13
852 2 -5.81851 -0.769141 -2.56098 21
853 2 6.09195 -6.53175 1.81294 18
854 2 -0.75093 7.62329 -2.18088 23
855 2 14.5612 0.562705 1.34494 16
856 2 9.2341 7.33814 -4.92063 22
857 2 5.28503 -12.4381 4.28778 10
858 2 -12.2138 -4.58029 -0.482649 10
859 2 9.81248 1.84653 8.37054 14
860 2 9.89816 -5.74845 0.469216 16
861 2 4.03512 -5.6441 2.9519 19
862 2 8.59414 8.81428 -2.1066 17
863 2 -6.37216 2.04118 4.43978 21
864 2 -10.1883 4.30006 -2.45021 15
865 2 9.73036 -3.40642 -2.42881 19
866 2 6.28046 -8.51026 -3.09429 15
867 2 -3.59219 -9.21632 -2.15925 19
868 2 4.4121 7.46996 0.243376 23
869 2 8.30255 -11.5438 -3.63579 14