ITEM: TIMESTEP
111000
ITEM: NUMBER OF ATOMS
500
ITEM: BOX BOUNDS pp pp pp
-30.0 30.0
-30.0 30.0
-30.0 30.0
ITEM: ATOMS id type x y z Coordination
1 1 -5.93177 -6.55655 -5.926 13
2 1 -6.04558 -6.08413 -2.93533 17
3 1 -8.41563 -7.73438 2.31355 9
4 1 -5.69661 -1.05449 -9.64222 12
5 1 -6.6375 -3.96308 -7.8038 12
6 1 -6.17085 -1.2414 -6.50913 18
7 1 -10.0504 -3.4533 -2.70328 10
8 1 -7.11176 -3.79948 -4.53436 17
9 1 -9.15368 -6.28744 -0.903924 11
10 1 -6.06434 -1.0352 -2.78177 21
11 1 -8.95082 -0.495478 -1.24403 18
12 1 -7.05117 -3.60513 -1.21109 22
13 1 -3.07154 -5.86805 -8.08598 12
14 1 -0.358225 -6.01687 -6.18966 20
15 1 -2.8827 -7.14102 -4.36736 20
16 1 0.0691233 -8.64643 -5.29741 13
17 1 -4.93959 -8.59652 -2.89954 11
18 1 -0.424046 -6.34305 -2.79968 21
19 1 -2.9483 -6.9947 -1.3516 21
20 1 -1.33843 -9.80828 -2.99738 15
21 1 -2.56221 -1.75464 -10.9914 12
22 1 0.410341 -0.92675 -9.50227 19
23 1 -3.35602 -2.04361 -7.8304 21
24 1 -0.832449 -3.78401 -7.96337 17
25 1 -4.07944 -4.45202 -5.77667 21
26 1 -0.329575 -1.15873 -6.37623 19
27 1 -3.16631 -1.52211 -4.71395 20
28 1 -1.10322 -3.61036 -4.47343 22
29 1 -4.03635 -4.32529 -2.87273 22
30 1 -0.0154388 -1.10189 -2.99455 22
31 1 -3.10472 -1.43007 -1.16044 21
32 1 -1.1133 -3.74494 -1.33201 23
33 2 -5.85979 -7.53724 -4.31875 14
34 2 -7.27645 -6.62967 -1.46154 13
35 2 -6.49515 -2.17404 -8.14716 11
36 2 -8.98435 -3.69017 -4.25823 9
37 2 -6.15572 -4.70798 -6.19265 16
38 2 -9.7144 -4.49897 -0.971758 12
39 2 -6.84599 -1.68073 -4.70091 19
40 2 -9.39761 -1.50373 -2.9414 14
41 2 -5.98864 -4.15552 -2.81209 20
42 2 -9.62102 -6.99118 0.907578 10
43 2 -6.98577 -1.41467 -1.01119 20
44 2 -1.21694 -6.25954 -7.89891 14
45 2 -3.94882 -6.3559 -6.34528 14
46 2 -3.11187 -8.99239 -3.6122 14
47 2 -0.943375 -7.11867 -4.51786 17
48 2 -3.9771 -6.31365 -3.0151 20
49 2 0.442374 -9.46148 -3.55054 11
50 2 -4.05738 -8.70366 -1.0706 16
51 2 -1.14774 -6.54888 -1.09666 20
52 2 -0.585628 -1.47486 -11.5008 11
53 2 -3.86789 -1.90191 -9.60432 14
54 2 -0.244787 -4.58641 -9.71104 15
55 2 -3.23499 -4.11301 -7.47202 19
56 2 -0.828345 -1.92308 -8.25555 21
57 2 -4.1822 -0.923372 -6.41496 21
58 2 -0.0553587 -3.99082 -6.09915 18
59 2 -3.13252 -3.46094 -4.3874 20
60 2 -1.05343 -1.51457 -4.60871 23
61 2 -4.00176 -1.20296 -2.89462 19
62 2 -0.163396 -4.46824 -3.02421 22
63 2 -2.99284 -3.87978 -1.12622 21
64 2 -1.01294 -1.69825 -1.46418 21
65 1 -10.3379 -3.21769 0.595917 12
66 1 -6.01358 -6.42762 0.422251 18
67 1 -5.86252 -6.44799 3.80275 19
68 1 -5.96924 -7.14693 6.92136 8
69 1 -10.7101 -5.98139 2.07722 10
70 1 -5.88925 -0.983426 0.543275 22
71 1 -8.79481 -1.03622 1.79807 16
72 1 -6.63189 -3.58868 2.27062 19
73 1 -8.81048 -6.14733 4.93075 12
74 1 -6.03051 -0.817997 3.78019 21
75 1 -10.0613 -3.17375 3.84209 12
76 1 -6.9549 -3.46497 5.44945 19
77 1 -6.62361 -0.952745 7.31688 13
78 1 -5.53408 -4.08782 8.81065 9
79 1 -3.02584 -9.98564 -0.135477 12
80 1 -0.184372 -6.9052 0.413553 20
81 1 -3.11025 -7.32171 1.75008 20
82 1 -0.907658 -9.43083 2.15982 12
83 1 -0.261019 -7.00455 3.93599 20
84 1 -2.88775 -7.24613 5.0662 15
85 1 1.04757 -9.62949 5.13183 12
86 1 -0.155675 -6.76206 7.09714 15
87 1 -3.92592 -4.18654 0.44773 22
88 1 -0.0711137 -1.32421 0.454069 22
89 1 -3.15479 -1.56431 2.05219 20
90 1 -1.24189 -4.4899 2.22045 25
91 1 -3.87741 -4.65288 3.61166 23
92 1 -0.36577 -1.82908 3.72512 22
93 1 -3.93682 -1.99736 5.45175 22
94 1 -1.3144 -4.09715 5.32252 23
95 1 -3.86175 -4.96395 6.96551 19
96 1 -0.95087 -1.40652 6.98964 20
97 1 -3.64466 -1.93785 9.09709 16
98 1 -1.65933 -4.23612 8.70893 17
99 1 -0.969112 -1.94564 11.0725 11
100 2 -6.71715 -6.77672 2.08411 16
101 2 -7.02353 -6.9177 5.30397 12
102 2 -10.7054 -4.20288 2.41402 11
103 2 -6.04083 -4.19761 0.544074 19
104 2 -9.53521 -6.83573 3.38411 10
105 2 -6.91452 -1.68302 2.10096 21
106 2 -9.58534 -1.40547 3.50293 13
107 2 -5.94794 -4.28529 3.89107 20
108 2 -8.74039 -4.33031 4.73691 12
109 2 -6.00857 -1.69861 5.5301 17
110 2 -5.64897 -5.32111 7.50466 11
111 2 -5.86786 -2.37359 8.42981 13
112 2 -3.63221 -6.11759 0.402423 20
113 2 -1.38428 -10.2475 -1.15303 13
114 2 -2.69975 -9.10833 1.67027 14
115 2 -0.970412 -6.49629 2.18093 21
116 2 -3.60539 -6.511 3.51667 20
117 2 1.94207 -11.1622 4.53197 7
118 2 -0.377865 -8.98417 4.04394 15
119 2 1.32751 -8.05375 6.49356 11
120 2 -4.10889 -7.02087 6.40056 11
121 2 0.233692 -5.51099 8.38597 13
122 2 -3.94245 -0.757483 0.497453 22
123 2 -0.144208 -4.08117 0.394135 22
124 2 -2.90298 -3.71754 2.10313 23
125 2 -1.20443 -1.10123 1.98914 21
126 2 -3.93016 -0.93364 3.71322 23
127 2 -0.242928 -3.87973 3.75733 20
128 2 -3.39172 -3.90066 5.40647 23
129 2 -1.49962 -0.827742 5.11441 20
130 2 -3.09863 -1.1536 7.38117 22
131 2 -1.26512 -6.18453 5.41752 19
132 2 -3.62192 -3.97552 8.6644 13
133 2 -0.415784 -3.28933 6.96167 23
134 2 -2.69918 -1.10791 10.4606 14
135 2 -0.816567 -3.61992 10.336 12
136 1 -6.26954 2.21596 -7.88693 12
137 1 -8.5643 -0.722454 -4.47574 15
138 1 -5.67868 4.96732 -5.92164 15
139 1 -9.42314 5.81352 -3.30362 10
140 1 -6.63562 1.74663 -4.55209 18
141 1 -9.66435 2.16648 -2.88598 13
142 1 -5.71931 4.63857 -2.9452 21
143 1 -8.59787 4.32482 -0.883274 17
144 1 -6.56156 1.78658 -1.28335 22
145 1 -6.71293 7.60444 -4.62775 10
146 1 -6.3519 7.39283 -1.46432 20
147 1 -1.04466 0.499699 -11.507 8
148 1 -3.8424 1.37683 -9.66805 16
149 1 -0.428907 4.29417 -9.63472 11
150 1 -3.12887 3.96017 -7.68331 15
151 1 -0.999715 1.7565 -7.78235 21
152 1 -3.9992 1.04849 -6.42476 20
153 1 0.0141584 4.40579 -6.1976 22
154 1 -2.99485 3.71839 -4.75166 20
155 1 -1.07423 1.61031 -4.52399 22
156 1 -3.76088 0.835149 -3.06546 21
157 1 0.0769362 4.4032 -3.13259 23
158 1 -2.7653 3.5659 -1.45997 22
159 1 -1.07721 1.50624 -1.16293 20
160 1 -0.287495 7.47142 -7.87613 14
161 1 -3.49265 7.00991 -6.23007 15
162 1 -1.81841 9.30239 -5.48378 10
163 1 -0.636249 6.87382 -4.73312 22
164 1 -3.5899 7.64712 -2.97784 18
165 1 0.31769 9.99116 -3.08839 13
166 1 -2.48801 9.46214 -0.757923 15
167 1 -1.01788 7.10919 -1.51095 21
168 2 -5.68776 0.850006 -9.21388 13
169 2 -5.16483 3.75111 -7.54622 14
170 2 -6.01996 1.1386 -6.38341 18
171 2 -8.48401 1.29463 -4.05519 13
172 2 -5.97597 3.59302 -4.63634 19
173 2 -10.0689 4.03703 -2.43554 10
174 2 -5.88777 0.90452 -3.03087 21
175 2 -8.92289 1.56087 -1.26752 16
176 2 -6.62448 3.78603 -1.30378 22
177 2 -5.28515 7.04777 -5.85711 12
178 2 -8.02731 6.46449 -4.25621 10
179 2 -8.75574 6.12877 -1.49534 15
180 2 -7.43623 8.90213 -0.880291 10
181 2 -2.78556 0.121076 -10.6792 13
182 2 0.0128849 1.00137 -9.98996 17
183 2 -2.95699 1.75261 -8.16137 18
184 2 -0.955652 3.72133 -7.84944 20
185 2 -3.12311 5.11083 -6.03411 18
186 2 -0.236154 0.819685 -6.19123 23
187 2 -3.02182 1.59654 -4.70794 22
188 2 -1.00253 3.54121 -4.85249 20
189 2 -3.61619 4.17899 -3.01789 20
190 2 -0.107334 0.941447 -2.68677 24
191 2 -2.9104 1.44191 -1.21911 21
192 2 -0.805808 3.61725 -1.61005 22
193 2 0.494174 6.24476 -9.15999 10
194 2 -1.73195 8.36671 -7.04512 11
195 2 0.376192 6.47028 -6.22058 21
196 2 -2.73315 7.78803 -4.62112 15
197 2 -0.0422043 9.05604 -4.91225 15
198 2 -5.4996 6.65202 -3.06548 18
199 2 0.178332 6.4666 -2.95987 24
200 2 -2.93205 6.97887 -1.26513 20
201 2 -0.734005 9.25185 -1.62954 17
202 1 -9.60538 1.96188 0.605296 15
203 1 -5.80873 4.34752 0.35466 22
204 1 -8.47652 5.26488 2.16582 16
205 1 -6.95442 1.79952 2.26202 22
206 1 -9.45293 0.377756 4.07899 12
207 1 -5.45394 3.41351 3.72467 22
208 1 -8.65328 3.62156 4.93092 14
209 1 -6.77654 1.52923 5.86609 17
210 1 -6.07362 4.61114 6.99323 15
211 1 -5.46263 1.80195 9.14756 9
212 1 -8.85959 7.65794 -0.296279 10
213 1 -5.87513 9.95374 -0.276076 9
214 1 -6.30076 7.79539 1.59147 16
215 1 -7.17164 6.78426 4.50547 13
216 1 -4.00694 1.30937 0.506108 22
217 1 -0.237323 4.35079 0.166834 20
218 1 -2.86138 3.82895 1.95009 21
219 1 -1.25629 1.00414 2.27932 23
220 1 -3.78767 1.05975 3.8511 23
221 1 -0.232909 3.75132 3.95685 21
222 1 -3.08178 3.84472 5.44317 23
223 1 -1.26016 1.10599 5.57531 20
224 1 -3.91023 0.618289 7.07224 23
225 1 -0.284468 4.59025 7.44092 18
226 1 -3.29392 4.62708 8.79075 12
227 1 -1.48788 1.7755 8.45582 19
228 1 -2.61314 0.864194 10.7846 13
229 1 -0.376193 3.5724 10.5816 10
230 1 -3.89601 6.26729 0.338636 24
231 1 0.0850615 9.99342 0.249066 15
232 1 -3.25981 9.06118 1.94823 18
233 1 -0.874665 6.34498 1.99456 23
234 1 -3.79934 6.57106 3.55433 23
235 1 -1.04824 11.1281 2.50465 10
236 1 -2.46354 9.28579 5.23042 12
237 1 -1.59859 6.45301 5.33424 20
238 1 -4.56244 6.85653 6.53413 13
239 1 0.429703 8.0826 7.0867 10
240 2 -9.58006 -1.61171 0.125273 15
241 2 -9.13112 3.82982 0.937256 14
242 2 -5.93099 1.02879 0.566252 23
243 2 -8.78135 1.03317 2.12613 17
244 2 -6.32881 3.76986 2.09873 24
245 2 -8.36963 5.18238 4.00593 12
246 2 -5.97615 1.30947 3.7453 22
247 2 -8.67547 1.60171 5.26479 12
248 2 -6.68715 3.54249 5.51562 17
249 2 -6.0064 0.853193 7.4865 15
250 2 -4.95738 3.70463 8.68066 14
251 2 -5.87992 6.32571 0.148582 22
252 2 -8.21907 7.10181 1.58889 15
253 2 -5.1359 9.24635 1.40067 15
254 2 -5.69706 6.93129 3.26873 18
255 2 -6.41803 6.31482 6.25577 12
256 2 -3.54337 4.30533 0.179846 20
257 2 -0.0518786 0.852294 0.70801 22
258 2 -3.06787 1.92403 2.15902 25
259 2 -0.941646 4.26008 1.99402 22
260 2 -3.76892 4.5334 3.77088 24
261 2 -0.234531 1.65756 3.95781 23
262 2 -3.13097 1.74273 5.632 23
263 2 -1.12524 4.42017 5.43526 21
264 2 -3.98907 5.16406 6.9732 17
265 2 -0.450283 0.53359 7.39357 19
266 2 -3.47034 1.21223 8.97602 14
267 2 -1.47784 3.70925 8.98483 15
268 2 -0.865377 1.71951 10.4479 12
269 2 -4.49359 9.43822 -1.24837 14
270 2 -0.0565338 6.73489 0.228418 21
271 2 -2.75023 7.14709 1.75361 22
272 2 -1.92578 10.1216 0.945712 14
273 2 -2.17893 9.86371 3.45952 14
274 2 -0.436728 6.87038 3.81406 21
275 2 -3.19503 7.43203 5.27482 17
276 2 -0.605405 9.1199 5.73648 12
277 2 -0.356608 6.50997 6.95414 15
278 1 -0.0853186 -6.41585 -9.62572 10
279 1 4.57663 -4.92106 -7.70445 12
280 1 2.83203 -6.22601 -4.85985 21
281 1 2.35478 -7.37648 -7.73094 11
282 1 2.34542 -9.32805 -2.99231 11
283 1 4.86508 -7.58598 -2.72406 12
284 1 2.60405 -6.6318 -1.24529 20
285 1 2.85187 -8.97735 0.413933 15
286 1 0.14298 -3.34323 -11.1556 11
287 1 2.78871 -5.30506 -10.3656 10
288 1 8.64444 -0.181667 -7.39354 10
289 1 2.75 -0.36421 -7.57437 17
290 1 3.31085 -2.55083 -10.1945 8
291 1 1.80708 -3.3648 -6.01101 21
292 1 5.81136 -0.753455 -5.74857 21
293 1 2.84495 -0.785151 -4.22493 24
294 1 4.52173 -3.40795 -4.55948 21
295 1 1.64778 -3.73416 -2.75842 22
296 1 5.94416 -1.30811 -2.71973 21
297 1 2.99679 -1.0519 -1.16481 24
298 1 4.4909 -3.73036 -1.53205 20
299 1 8.28777 -6.82303 -1.41575 11
300 1 10.6766 1.22612 -4.53531 13
301 1 7.16127 -3.53636 -6.22782 12
302 1 8.95313 -1.11935 -4.53886 17
303 1 6.6248 -5.59956 -3.60682 13
304 1 11.3193 -1.47472 -2.27597 11
305 1 8.64603 -0.977804 -0.95193 23
306 1 9.30704 -3.95114 -3.3022 12
307 2 1.8864 -6.69994 -9.48099 10
308 2 1.00784 -7.59678 -6.36397 12
309 2 3.52289 -6.10909 -6.55674 14
310 2 3.13415 -7.52905 -3.41525 16
311 2 1.98534 -9.53538 -1.12754 15
312 2 4.19895 -7.6654 -0.790906 16
313 2 2.10293 -3.56469 -11.428 9
314 2 4.02283 -4.19398 -9.33853 9
315 2 4.56726 -0.119824 -7.15994 17
316 2 1.78877 -1.44972 -6.14194 21
317 2 5.23507 -3.90924 -6.25967 15
318 2 2.61464 -4.16376 -4.56797 19
319 2 4.7375 -1.43257 -4.26987 21
320 2 1.8931 -1.73702 -2.59572 23
321 2 5.02218 -4.6696 -3.2479 22
322 2 2.63729 -4.48097 -1.38238 23
323 2 4.95719 -1.78911 -1.2401 22
324 2 6.71973 -7.34935 -2.71571 10
325 2 7.59651 -1.62518 -6.29219 16
326 2 7.78382 -4.48982 -4.62687 11
327 2 10.0991 -2.2699 -3.30511 12
328 2 7.84359 -0.888946 -2.82348 21
329 2 8.32643 -4.88594 -1.98609 12
330 2 10.4418 -1.81221 -0.503451 16
331 1 0.520122 -10.7275 -0.592526 10
332 1 5.56115 -6.85166 0.697313 19
333 1 2.6229 -6.3007 2.10879 23
334 1 4.31109 -8.85034 3.31375 13
335 1 2.09641 -11.0066 2.45893 10
336 1 5.55281 -6.38498 3.80402 17
337 1 2.73979 -6.9692 5.48479 19
338 1 5.44504 -7.18067 6.56109 12
339 1 1.76818 -3.71075 0.229769 22
340 1 5.60223 -1.08186 0.53303 23
341 1 2.68698 -1.10636 2.22767 22
342 1 4.60985 -3.79108 1.86618 22
343 1 1.73468 -4.2161 3.85042 22
344 1 5.43008 -2.01762 3.78038 20
345 1 2.45427 -1.65186 5.3626 20
346 1 4.37039 -4.26436 5.55179 22
347 1 1.4276 -3.67097 7.18172 21
348 1 4.64321 -1.64428 7.1937 21
349 1 1.98707 -1.60724 9.45114 17
350 1 3.66957 -4.80983 8.45936 14
351 1 0.90527 -4.68687 9.9997 11
352 1 8.59953 -6.16089 1.98152 9
353 1 7.37049 -3.93379 -0.330598 21
354 1 11.6347 -0.688168 0.790428 11
355 1 8.20285 -1.20631 2.36923 20
356 1 9.76413 -2.74952 1.12931 11
357 1 7.18604 -4.30948 4.65025 16
358 1 8.3559 -1.47728 5.6801 10
359 1 6.60719 -4.10542 7.70321 10
360 2 1.86451 -6.94436 0.56252 18
361 2 0.583911 -10.5443 1.3888 14
362 2 4.61841 -7.00072 2.2954 17
363 2 1.76616 -6.23036 3.98839 22
364 2 3.55215 -9.80306 2.0376 13
365 2 4.73155 -7.75954 4.95019 14
366 2 3.50524 -6.20705 7.13639 16
367 2 1.83537 -1.71876 0.516577 22
368 2 5.37305 -4.6315 0.102988 21
369 2 2.73575 -4.17936 1.94762 20
370 2 4.57439 -1.70845 2.09592 21
371 2 1.39676 -0.93071 3.85903 23
372 2 5.23544 -4.05113 3.77063 19
373 2 2.46081 -3.87057 5.59502 23
374 2 4.32293 -1.25512 5.22631 20
375 2 1.91224 -1.28347 7.28004 19
376 2 5.91895 -5.44159 6.14001 14
377 2 2.266 -3.47261 9.30889 15
378 2 4.82968 -3.51785 7.68658 18
379 2 0.486881 -0.905905 10.7986 13
380 2 7.66096 -6.89144 0.532687 12
381 2 7.48145 -6.05347 3.59762 11
382 2 7.68743 -2.07739 0.608673 21
383 2 8.76031 -4.3778 1.24068 14
384 2 10.2584 -1.02562 2.05741 11
385 2 7.37251 -1.95302 4.03944 16
386 2 7.37643 -3.0064 6.31735 12
387 2 7.85004 0.354069 5.94178 15
388 1 1.64457 1.78143 -9.41976 14
389 1 3.29596 3.61596 -7.31478 19
390 1 5.51466 1.51914 -7.88044 12
391 1 1.59188 1.8477 -5.80987 23
392 1 5.95958 4.56142 -5.7072 18
393 1 2.99221 4.41831 -4.22951 24
394 1 4.72362 1.60319 -4.18354 25
395 1 1.6987 1.58957 -2.52578 21
396 1 5.87385 4.3378 -2.46677 22
397 1 2.96646 4.36125 -1.01474 22
398 1 4.60278 1.59663 -0.953485 23
399 1 2.23818 5.34267 -9.62727 10
400 1 4.48296 7.22252 -7.5512 10
401 1 2.25973 6.36855 -6.31354 19
402 1 1.82507 8.93182 -5.33208 16
403 1 4.89948 7.13076 -4.36535 15
404 1 1.94991 7.19963 -2.5936 23
405 1 3.0931 9.88396 -1.72147 13
406 1 4.71724 6.98748 -1.19674 20
407 1 8.05394 1.96903 -6.0697 16
408 1 8.8412 4.0766 -3.9413 13
409 1 10.1746 1.76151 -1.78689 17
410 1 7.29027 1.34067 -2.8946 23
411 1 8.85594 4.69161 -0.551949 17
412 1 11.5338 3.02851 1.10829 8
413 1 7.74005 7.0238 -2.33889 10
414 2 2.2333 -1.34974 -9.16853 15
415 2 1.35053 3.56944 -9.87599 10
416 2 7.40084 1.28892 -7.69403 10
417 2 2.11899 1.82862 -7.64545 18
418 2 5.02477 3.22112 -7.01275 16
419 2 1.94034 3.98241 -5.78161 18
420 2 6.75084 0.872727 -4.93796 23
421 2 2.8416 1.16515 -4.19214 25
422 2 4.85226 3.70866 -4.05807 21
423 2 1.97617 3.57094 -2.82281 24
424 2 5.48268 0.808573 -2.55237 22
425 2 2.77137 0.796156 -0.958793 25
426 2 4.82884 3.58562 -0.846673 23
427 2 3.42761 5.62581 -8.04968 13
428 2 5.45769 6.40201 -6.05728 13
429 2 2.89633 6.51487 -4.37549 23
430 2 3.0543 8.14719 -6.67431 11
431 2 2.20643 9.27379 -3.34891 14
432 2 5.77586 6.6947 -2.73915 17
433 2 2.84869 6.37997 -0.977948 24
434 2 4.44941 9.01857 -0.772968 12
435 2 9.45753 0.499478 -5.81857 14
436 2 7.60644 3.70463 -5.20144 14
437 2 9.98645 2.68194 -3.47952 13
438 2 7.94504 4.92908 -2.3198 17
439 2 11.0136 0.336352 -2.70811 14
440 2 8.14919 1.11114 -1.02269 18
441 2 10.3327 3.48634 -0.497469 14
442 2 8.38774 6.7175 -0.473389 13
443 1 1.71038 1.48164 0.558818 21
444 1 5.79017 4.84573 0.800626 23
445 1 2.34357 4.30509 2.17694 22
446 1 4.51626 1.86898 2.03562 21
447 1 1.68885 0.961118 3.91304 21
448 1 5.38548 3.66782 4.09077 21
449 1 2.57099 3.37336 5.63618 21
450 1 4.52064 0.770789 5.61758 23
451 1 1.65113 0.536694 7.2911 24
452 1 5.34698 3.89528 7.46071 17
453 1 2.65048 3.53389 8.84968 15
454 1 4.41657 0.932838 9.2262 15
455 1 1.02453 1.04392 10.7185 13
456 1 1.76568 6.9942 0.719288 21
457 1 5.33438 8.78837 1.0086 14
458 1 2.49509 10.269 1.50245 12
459 1 4.39735 7.1578 2.83546 16
460 1 1.44584 6.39748 4.31728 20
461 1 0.00232248 9.07472 3.8911 18
462 1 5.76235 6.67746 6.17549 11
463 1 2.7012 6.06431 7.15183 14
464 1 7.43511 1.78412 0.589851 22
465 1 8.63821 4.07788 2.64074 17
466 1 10.2938 1.13111 2.73621 11
467 1 7.39537 1.35798 4.06693 19
468 1 7.8428 4.12588 6.02199 13
469 1 7.09366 1.05789 7.60002 11
470 1 7.73107 7.15159 1.08529 12
471 1 7.54559 7.12786 4.29536 10
472 2 1.73216 3.88712 0.433826 22
473 2 5.74006 0.834076 0.899639 21
474 2 2.72816 1.05683 2.10456 22
475 2 4.3294 3.9415 2.38149 19
476 2 1.642 4.36749 4.05397 21
477 2 5.35506 1.57846 4.01705 18
478 2 2.61818 1.40754 5.86458 23
479 2 4.38685 3.84416 5.75994 19
480 2 1.64792 4.20833 7.39679 19
481 2 5.30584 0.0951732 7.76853 14
482 2 2.679 0.452706 9.33395 15
483 2 4.41868 2.7314 8.73847 15
484 2 1.35736 3.02742 10.0663 12
485 2 1.98557 9.66575 -0.357458 15
486 2 5.68899 6.85138 0.826009 19
487 2 2.57929 6.51781 2.48526 19
488 2 3.85025 9.01026 2.04826 12
489 2 0.695269 10.2237 2.41462 11
490 2 5.37246 7.01933 4.40697 16
491 2 1.97733 7.43802 6.0781 15
492 2 4.4213 6.1234 7.37445 11
493 2 7.63542 3.96755 0.77012 19
494 2 11.6214 1.15854 1.31074 9
495 2 8.24729 0.684607 2.62344 20
496 2 10.2055 3.08108 2.42469 12
497 2 7.59862 3.43028 4.18853 18
498 2 7.08538 2.90617 7.27985 14
499 2 7.46525 5.922 5.80224 12
500 2 7.96969 6.27204 2.67878 15
