ITEM: TIMESTEP
429000
ITEM: NUMBER OF ATOMS
500
ITEM: BOX BOUNDS pp pp pp
-30.0 30.0
-30.0 30.0
-30.0 30.0
ITEM: ATOMS id type x y z Coordination
1 1 -4.73289 -3.13957 -9.38224 15
2 1 -6.29088 -1.43654 -5.95816 18
3 1 -7.14337 -6.6119 4.30278 13
4 1 -4.01637 3.49016 -10.8961 13
5 1 -6.61614 -0.439139 -8.8158 13
6 1 -9.11766 -1.68182 -5.68688 9
7 1 -6.74249 -8.45615 -1.42629 9
8 1 -7.05894 -3.49282 -7.27263 12
9 1 -5.76272 -7.04526 0.965735 13
10 1 -6.05814 -2.62029 -2.31185 20
11 1 -7.0161 -4.46921 -4.5879 12
12 1 -4.87828 -6.51004 -5.81057 13
13 1 -0.614936 -4.26352 -11.095 13
14 1 -2.5845 -5.32536 -8.31374 17
15 1 -2.62433 -7.44586 -4.55044 15
16 1 -0.602547 -6.31047 -6.19571 18
17 1 -4.90428 -10.4571 -1.05879 7
18 1 -0.491428 -6.79596 -2.42461 20
19 1 -5.03639 -9.70724 -4.14381 8
20 1 -1.20494 -10.0033 -1.91226 14
21 1 -4.06049 0.568424 -9.54079 19
22 1 -0.0517867 -1.48289 -9.79384 16
23 1 -3.15311 -1.50775 -7.23193 20
24 1 -2.88313 -5.38501 -11.3579 11
25 1 -3.70394 -4.1154 -5.9477 22
26 1 -0.233394 -1.1115 -5.64808 21
27 1 -3.18319 -1.65681 -3.7385 23
28 1 -0.964506 -3.9267 -4.28734 24
29 1 -3.70111 -4.89536 -2.5713 20
30 1 -0.225886 -0.82297 -2.45983 19
31 1 -3.38955 -1.62927 -0.715253 23
32 1 -0.954943 -3.92086 -0.956502 23
33 2 -7.66691 -2.8588 -5.16216 14
34 2 -3.84762 -7.23743 1.13685 16
35 2 -5.93711 1.27146 -8.99784 17
36 2 -3.06035 -9.98357 -1.31926 12
37 2 -5.71374 -2.12017 -8.07345 17
38 2 -6.14847 -4.99421 -6.1922 13
39 2 -9.20486 -0.38798 -4.11899 14
40 2 -4.30446 -8.16307 -4.66026 9
41 2 -6.25742 0.475383 -5.50455 19
42 2 -6.91528 -6.17 2.54546 15
43 2 -5.7974 -4.31502 -2.99251 19
44 2 0.905253 -5.3593 -10.173 11
45 2 -4.12151 -4.8811 -9.87155 12
46 2 -3.0946 -6.02926 -6.40715 16
47 2 0.14359 -6.92869 -7.71331 14
48 2 -6.00566 -9.63133 -2.65793 7
49 2 1.41151 -6.70246 -2.52215 19
50 2 -2.89715 -6.72872 -2.64706 19
51 2 1.66127 -7.26867 0.598654 20
52 2 -2.32158 -3.5515 -11.7741 12
53 2 -3.38729 1.75126 -11.3418 15
54 2 -0.665103 -3.09713 -9.48483 20
55 2 -4.10332 -1.44286 -10.0153 14
56 2 -4.8642 3.22651 -5.63669 19
57 2 -3.85115 -2.13694 -5.64932 22
58 2 -1.53955 -5.82798 -10.1916 11
59 2 -2.89358 -3.79905 -3.95267 19
60 2 -1.18556 -1.20706 -4.03428 20
61 2 -4.60353 -1.47142 -2.29169 19
62 2 -0.520817 -4.83896 -2.56496 19
63 2 -3.08264 -3.70916 -0.909803 20
64 2 -1.2195 -1.76459 -0.890383 20
65 1 -4.12695 -7.5087 5.37706 12
66 1 -7.35519 -5.50888 -2.26324 12
67 1 -2.8082 -8.26729 2.71877 13
68 1 -0.124771 -7.05799 0.862875 19
69 1 -8.88449 -2.63585 -1.30499 14
70 1 -6.53197 -2.11375 0.753709 22
71 1 -10.8149 0.0708806 0.960616 12
72 1 -8.22296 -5.08329 0.660523 14
73 1 -9.89611 -4.83181 4.28464 10
74 1 -6.26886 -1.61219 3.91754 21
75 1 -9.37885 -2.33239 2.57426 15
76 1 -7.12246 -3.91597 5.96371 18
77 1 -6.23441 -1.02809 7.51539 15
78 1 -4.14722 -3.7187 7.48353 16
79 1 -3.03609 -7.76532 -0.560783 15
80 1 1.07142 -6.35924 3.78547 19
81 1 1.44564 -10.793 -1.62857 9
82 1 1.1716 -9.39963 4.48849 10
83 1 11.2849 -5.18477 2.81302 10
84 1 -6.74365 -4.19604 2.62378 18
85 1 6.7922 -5.76987 2.37118 22
86 1 -2.31388 -6.38141 8.38302 11
87 1 -3.99851 -4.54109 0.675504 17
88 1 -0.497357 -1.33714 0.84214 20
89 1 -3.69312 -1.917 2.26064 22
90 1 -1.17865 -4.74836 2.32344 20
91 1 -4.15053 -4.41598 4.09763 21
92 1 -0.80559 -0.497402 3.99159 21
93 1 -3.66579 -1.5963 5.80048 21
94 1 -1.5821 -4.57042 5.62913 22
95 1 -5.70369 -6.39707 7.3833 11
96 1 -0.773536 -1.41542 7.41269 23
97 1 -3.34841 -0.806478 9.13525 14
98 1 -1.43945 -7.60706 6.04523 14
99 1 -0.0171718 -0.363169 10.3656 14
100 2 -5.77008 -4.67183 6.96104 16
101 2 -5.9564 -7.37877 5.49317 10
102 2 -9.84577 -1.70034 0.79694 15
103 2 -5.87165 -4.00302 0.674005 23
104 2 -5.58123 -9.03939 0.181204 10
105 2 -7.38419 -1.38533 2.37744 23
106 2 -8.95437 0.308944 5.44191 15
107 2 -5.82284 -3.55961 4.23025 19
108 2 -8.76677 -4.2923 2.55521 16
109 2 -7.23253 -1.97464 5.99482 16
110 2 -2.6445 -7.04087 4.29976 16
111 2 -4.02051 -7.13874 7.15932 12
112 2 -7.08575 -6.69289 -0.822452 11
113 2 0.142691 -10.6905 -0.273449 13
114 2 7.36481 -8.46971 -0.128537 10
115 2 -0.745146 -4.40523 4.04035 16
116 2 -1.03872 -7.84914 -0.836913 19
117 2 1.62353 -10.1793 2.45557 12
118 2 -8.31363 -5.21954 5.21296 13
119 2 2.37295 -5.85403 8.0506 12
120 2 -0.95369 -8.39461 2.20885 16
121 2 2.27032 -7.61848 4.55353 14
122 2 -4.6965 -1.22105 0.856168 23
123 2 -0.269755 -4.82074 0.654481 21
124 2 -3.12266 -4.12728 2.22902 19
125 2 -1.84016 -0.836738 2.38088 19
126 2 -4.34128 -1.18622 4.06588 20
127 2 0.195388 -3.05394 6.87695 20
128 2 -3.25306 -3.8533 5.75934 22
129 2 -1.73036 -0.759617 5.67732 19
130 2 -4.42107 -1.87449 7.74972 16
131 2 4.95969 0.0699202 9.35316 11
132 2 -2.59133 -4.57919 8.75429 16
133 2 0.441929 -3.51412 9.40856 13
134 2 -3.62503 1.32689 9.34852 13
135 2 -1.41126 -1.2907 9.50571 15
136 1 -5.82208 5.09495 -8.83182 13
137 1 -7.67184 0.555701 -4.21882 19
138 1 -2.59783 8.47179 -6.77962 10
139 1 -6.54027 2.66734 -6.20132 15
140 1 -7.09623 2.83563 -9.73931 9
141 1 -10.5943 0.332716 -2.96513 11
142 1 -6.46963 2.99054 -3.15125 24
143 1 -8.17528 5.62546 -1.10192 14
144 1 -7.56145 0.183718 -0.975153 25
145 1 -7.57964 7.17706 -3.99632 8
146 1 -9.13286 3.75567 -3.62317 12
147 1 -1.48282 1.14772 -11.6729 11
148 1 -2.91555 6.00773 -8.62123 15
149 1 -1.11684 3.81115 -9.83839 12
150 1 -4.55481 3.26256 -7.82804 19
151 1 -1.73239 1.53293 -7.90047 20
152 1 -4.37355 1.08187 -5.88745 22
153 1 -0.340074 4.35854 -6.20139 24
154 1 -3.44309 3.60839 -4.33511 22
155 1 -1.59129 1.14461 -4.46951 19
156 1 -4.61658 0.410517 -2.5754 21
157 1 -1.17375 4.02434 -2.92373 21
158 1 -4.0286 3.26976 -0.817976 22
159 1 -1.73496 1.41057 -1.15573 21
160 1 1.49121 7.6897 -5.5288 14
161 1 -1.77079 6.59687 -4.31582 19
162 1 -4.78767 5.77346 -5.76004 16
163 1 -4.6899 9.31811 -1.73842 12
164 1 -4.59622 5.94515 -3.02737 20
165 1 8.97585 8.12807 -0.252122 8
166 1 -1.32057 10.0155 -0.145418 14
167 1 -1.89243 7.07535 -1.18484 21
168 2 -5.82035 3.98626 -10.3948 12
169 2 -6.04887 6.45272 -4.77054 13
170 2 -7.93762 -1.41152 -7.43423 10
171 2 -8.53865 -4.65002 -0.972268 12
172 2 -3.22416 5.49017 -4.3433 17
173 2 -7.75514 3.0498 -4.62434 15
174 2 -6.69639 1.07332 -2.43558 22
175 2 -10.1115 0.340433 2.63525 13
176 2 -10.3098 2.22205 0.498702 15
177 2 -2.53559 9.17667 -1.23289 16
178 2 -6.84618 3.65355 -7.89917 10
179 2 -10.2438 2.21906 -3.06793 13
180 2 -8.07199 5.49224 -3.10515 14
181 2 -3.46635 0.549222 -7.69933 20
182 2 -0.393148 2.00829 -10.0714 14
183 2 -2.35051 8.69558 -4.91039 11
184 2 -2.83386 2.92363 -8.39372 21
185 2 -4.36344 5.63987 -7.63981 17
186 2 1.81963e-04 1.12634 -7.03318 21
187 2 -3.46898 0.874397 -4.30924 19
188 2 -1.41804 3.28302 -4.7598 22
189 2 -4.65745 3.45403 -2.72639 22
190 2 -0.615297 1.24464 -2.86003 20
191 2 -3.77641 1.03684 -0.991737 21
192 2 -2.08651 3.49847 -1.0436 22
193 2 -0.752894 4.72435 -8.13868 16
194 2 -2.74729 4.79976 -10.1914 13
195 2 -1.60201 7.69548 -7.95877 12
196 2 -3.73619 6.46878 -1.51176 20
197 2 7.14437 8.66346 -0.508384 11
198 2 -7.79475 3.5924 -1.27781 18
199 2 -0.157074 6.74692 -5.82762 19
200 2 -1.16543 5.78903 -2.57541 22
201 2 0.027272 8.66741 -3.03494 16
202 1 -7.38924 6.17507 2.00895 13
203 1 -7.0134 3.38161 0.506061 21
204 1 -10.1603 3.1552 2.17905 12
205 1 -7.81065 0.521488 2.61838 23
206 1 -10.6144 1.08654 4.4783 11
207 1 -6.92001 3.61597 3.78476 24
208 1 -10.2558 4.11761 5.50278 9
209 1 -9.07129 -1.60356 5.60493 15
210 1 -7.39351 4.67338 6.83617 14
211 1 -7.70751 1.6475 5.6465 18
212 1 -9.47312 2.39991 -1.18545 18
213 1 -7.00312 8.26439 -0.687154 11
214 1 -4.3296 9.60962 1.4015 11
215 1 -7.93602 6.76173 5.20592 12
216 1 -4.61736 0.728713 0.746992 25
217 1 -1.09618 4.43197 0.371921 25
218 1 -4.19272 3.57212 2.14999 23
219 1 -1.92161 1.15862 1.84416 22
220 1 -4.60888 1.19839 4.05696 21
221 1 -1.0697 4.24328 3.7047 20
222 1 -4.1843 4.07192 5.52202 23
223 1 -1.89822 1.8685 5.67287 20
224 1 -4.44377 2.26317 7.74413 15
225 1 -1.14293 4.65387 6.87207 22
226 1 -1.1484 5.39988 10.0617 13
227 1 -1.73276 2.62966 8.99759 16
228 1 -4.34952 5.00152 8.69904 14
229 1 1.55317 5.32409 8.80785 16
230 1 -4.6336 6.21161 0.354287 24
231 1 -1.14748 9.69485 2.95443 13
232 1 -5.0788 6.63451 3.46958 19
233 1 -2.26049 6.45221 2.29189 20
234 1 3.56976 7.2654 8.51567 12
235 1 0.683033 7.71589 6.70481 16
236 1 -2.19324 7.7264 8.29476 14
237 1 -2.25071 7.05923 5.19296 17
238 1 -5.08005 6.93921 6.68938 14
239 1 0.32789 8.6189 9.43739 9
240 2 -7.14496 -1.68695 -1.04406 20
241 2 -9.36331 0.07963 -1.46228 14
242 2 -6.60079 1.43133 0.399143 22
243 2 -8.26424 4.23503 1.90389 17
244 2 -6.79589 1.84988 3.53205 22
245 2 -9.47743 5.83459 5.51982 8
246 2 -10.4409 3.08256 3.89664 13
247 2 -10.2166 -2.86775 4.51457 12
248 2 -7.94572 3.34456 5.61678 18
249 2 -6.38628 0.871697 6.99407 16
250 2 0.236083 4.35599 10.4905 12
251 2 -5.78271 9.61961 -0.0733612 9
252 2 -6.81059 6.452 0.0845361 16
253 2 -6.39387 8.08916 -2.55856 11
254 2 -7.03231 6.28035 3.76392 14
255 2 -6.57805 6.13954 6.36223 14
256 2 -4.90891 4.26246 0.459217 24
257 2 -0.673382 0.666713 0.509912 22
258 2 -3.85461 1.63863 2.34789 20
259 2 -2.33719 4.34489 2.1426 20
260 2 -5.05854 4.65654 3.55992 24
261 2 -1.00505 1.80223 3.74737 21
262 2 -4.23805 2.14551 5.67832 20
263 2 -2.33907 5.03234 5.36799 24
264 2 -3.90345 6.81953 7.98689 14
265 2 -0.846216 2.51319 7.09503 20
266 2 -5.45335 4.15988 7.35577 16
267 2 3.90524 5.33513 8.22917 12
268 2 -2.31028 4.5557 8.75892 17
269 2 3.47543 8.46468 -1.74652 16
270 2 -0.894163 6.66994 0.733154 24
271 2 -3.85745 7.13326 1.8619 21
272 2 0.587076 9.8003 2.46397 13
273 2 1.60994 8.43706 5.32495 13
274 2 -0.991474 7.30659 3.66746 18
275 2 -4.36859 7.32686 5.04553 15
276 2 -0.983826 7.14196 9.70352 12
277 2 -1.15843 8.30197 6.8303 14
278 1 -0.00527107 -6.78219 -9.44106 10
279 1 4.37057 -4.14863 -7.06029 16
280 1 2.70289 -6.65912 -4.34 16
281 1 2.45762 -7.24625 -7.29252 15
282 1 -0.00770573 -10.0691 1.39806 12
283 1 0.711885 -8.91617 -4.51007 14
284 1 3.38493 -6.08144 1.2564 19
285 1 3.92683 -7.83599 3.42543 18
286 1 -2.79528 -1.96365 -11.1696 14
287 1 2.43139 -4.48468 -9.79066 13
288 1 8.01691 -1.47426 -4.24444 16
289 1 2.56071 -1.85171 -7.25102 20
290 1 -1.08725 -3.23843 -7.62741 22
291 1 1.61196 -3.9712 -6.16341 20
292 1 5.22127 -1.58018 -5.55339 18
293 1 2.66748 -1.26567 -4.27723 21
294 1 4.57937 -3.91503 -4.00051 21
295 1 1.52875 -4.75796 -2.70171 20
296 1 5.58671 -0.814265 -2.20555 21
297 1 2.52014 -1.39357 -0.763825 20
298 1 2.32545 -7.72023 -1.26629 18
299 1 5.12981 -6.49301 -2.08682 19
300 1 8.36771 -0.158304 -1.35604 18
301 1 7.7493 -4.36523 -5.64 11
302 1 9.93563 -2.97086 -2.14456 14
303 1 5.236 -6.56557 -5.772 13
304 1 6.00182 0.751344 7.87914 13
305 1 7.4011 -2.94044 0.222139 20
306 1 7.48452 -4.53018 -2.66242 19
307 2 -0.389696 -4.36691 -6.04957 20
308 2 2.19104 -8.18559 -5.49814 12
309 2 4.61302 -6.88621 -4.02732 18
310 2 2.71647 -9.55481 -1.33026 14
311 2 0.200676 -10.194 -3.07521 12
312 2 -0.694907 -7.80821 -4.9141 17
313 2 -1.3429 -1.55239 -6.91937 20
314 2 2.79274 -3.45106 -8.141 16
315 2 4.35982 -1.38929 -7.17449 15
316 2 1.35017 -2.07449 -5.54136 22
317 2 3.86812 -5.94873 -6.55603 13
318 2 2.36515 -4.4817 -4.38507 23
319 2 4.62712 -2.0084 -3.70136 21
320 2 1.64573 -1.28857 -2.46574 21
321 2 5.65749 -4.53732 -2.12004 17
322 2 2.38405 -3.73602 -1.16808 21
323 2 4.16345 -0.0667785 -0.809989 18
324 2 8.57187 -3.14496 4.43632 17
325 2 5.71905 -3.61207 -5.6211 18
326 2 8.45348 -3.33425 -4.00687 14
327 2 7.68575 -6.6139 -2.33268 14
328 2 8.63415 -3.79832 -1.05447 18
329 2 7.16516 -6.16519 -5.30931 13
330 2 9.24308 -6.66289 0.625513 13
331 1 2.84504 -9.46114 0.930554 15
332 1 8.92908 -4.78568 5.10188 15
333 1 7.25019 -7.95952 5.00616 10
334 1 2.81242 -6.82146 6.06611 14
335 1 0.60859 -3.15771 5.02252 16
336 1 7.47157 -2.86449 2.69686 20
337 1 3.74539 -4.60717 8.22199 12
338 1 9.24546 -7.39323 2.58323 13
339 1 1.52807 -3.70347 0.678002 18
340 1 5.25848 -0.560948 0.765445 20
341 1 2.23817 -0.646124 2.4576 20
342 1 9.40691 -4.80549 0.362048 16
343 1 5.64623 -0.15253 3.48173 17
344 1 4.92772 -1.61125 7.94452 12
345 1 2.37077 -0.917431 5.98886 16
346 1 5.8481 -7.94187 0.82733 14
347 1 7.59834 -1.71811 5.3137 16
348 1 3.31563 0.264432 10.3566 15
349 1 2.07135 -2.65414 9.88603 14
350 1 0.70305 -4.85739 7.70981 18
351 1 -1.51911 -3.21807 9.53552 13
352 1 4.37151 -4.05646 -0.639114 19
353 1 8.06143 -7.32188 -4.14012 8
354 1 11.0636 -2.35908 0.751895 15
355 1 10.376 -2.12269 4.04172 14
356 1 8.6055 -7.57356 -1.00362 10
357 1 5.80137 -6.66064 6.73635 11
358 1 8.97953 1.17326 5.42323 14
359 1 5.40545 -4.05381 5.52281 16
360 2 5.10675 -6.53521 2.13237 18
361 2 4.98691 -7.85529 5.30235 11
362 2 9.79238 -6.02495 3.72874 13
363 2 -0.084116 -8.21977 5.03284 13
364 2 -0.814263 -5.91801 7.03271 18
365 2 4.25201 -5.45671 6.50122 14
366 2 5.88526 -2.41854 6.55171 15
367 2 1.51257 -1.80739 1.16005 20
368 2 4.60934 -9.06376 1.86908 14
369 2 1.40956 -0.941782 4.22272 18
370 2 4.25129 -0.966819 2.35009 17
371 2 3.18246 -4.41625 1.74213 19
372 2 7.14348 0.265365 6.17683 15
373 2 1.48102 -4.87871 5.23819 15
374 2 4.10447 0.174503 6.98414 17
375 2 1.06945 -0.206179 7.10396 21
376 2 8.00013 -4.3067 1.63692 20
377 2 1.6915 -0.860264 10.6232 12
378 2 7.41781 -7.38708 3.17899 15
379 2 -0.123095 1.4626 9.51751 16
380 2 3.98368 -6.083 -0.578471 18
381 2 5.53345 3.08823 7.18566 15
382 2 8.28877 -0.934279 0.415367 19
383 2 5.94426 -3.49709 3.53774 18
384 2 5.28294 -2.52061 -0.0679649 19
385 2 10.7522 -1.04621 2.30611 14
386 2 7.3948 -5.96024 5.99987 12
387 2 11.5087 2.0457 2.5485 11
388 1 1.07948 1.15423 -9.05965 14
389 1 2.74612 3.59445 -8.05201 16
390 1 4.40374 0.665221 -7.66323 15
391 1 1.78091 1.48587 -6.39208 21
392 1 5.3767 3.84517 -6.0996 19
393 1 2.06784 4.37241 -4.60236 24
394 1 3.84871 2.10524 -4.41344 20
395 1 1.19559 1.93907 -2.70587 23
396 1 5.19627 4.29883 -2.5801 23
397 1 2.05008 4.12114 -1.10665 22
398 1 4.17956 1.93448 -0.871556 21
399 1 0.206007 6.48582 -8.33699 13
400 1 3.94702 7.15875 -3.87949 16
401 1 -1.63233 9.25826 -3.56109 11
402 1 6.37552 6.61878 -5.13319 12
403 1 3.81497 6.58929 -7.381 14
404 1 0.838374 6.04445 -2.63355 20
405 1 1.29586 9.06644 -1.88202 16
406 1 3.79262 6.65614 -0.778874 22
407 1 7.22706 1.40203 -5.81485 13
408 1 8.30883 4.15066 -4.54759 12
409 1 11.6645 -0.711507 -2.26252 7
410 1 6.94787 1.85868 -2.73806 19
411 1 8.56352 3.85567 -1.14673 15
412 1 10.3183 5.77448 -2.06124 9
413 1 7.55184 6.61317 -1.9829 17
414 2 -3.01373 -3.39305 -7.89552 20
415 2 2.94974 1.65086 -7.90492 15
416 2 6.55752 -0.321628 -5.32269 15
417 2 -1.37677 -0.747095 -11.1906 12
418 2 1.44253 -0.839088 -8.65347 17
419 2 1.67387 3.71914 -6.43871 20
420 2 5.35876 1.92306 -6.53262 16
421 2 2.50738 1.0591 -4.4909 21
422 2 4.17148 3.97816 -4.39222 24
423 2 1.10255 3.74509 -2.74926 21
424 2 7.40778 -0.38317 -2.87712 16
425 2 2.29092 1.91724 -1.10519 17
426 2 3.82185 4.46182 -1.09395 22
427 2 4.45542 4.65123 -7.54373 13
428 2 4.62305 7.40877 -5.64001 11
429 2 2.21167 6.30598 -4.10468 23
430 2 1.98435 6.934 -7.34804 14
431 2 0.435246 9.48701 -0.10943 15
432 2 5.79557 6.42502 -3.27096 17
433 2 2.00457 6.15433 -1.05674 24
434 2 4.47846 7.97367 6.84956 11
435 2 10.8037 -4.18418 1.41788 15
436 2 7.79023 2.31262 -4.367 17
437 2 8.5654 4.80638 -2.70865 14
438 2 5.11324 2.34136 -2.81949 20
439 2 11.3283 -2.21404 -1.20774 11
440 2 8.17492 1.79399 -0.917233 18
441 2 9.69411 -1.06372 -2.70683 12
442 2 6.94708 4.98716 -5.606 13
443 1 1.16612 1.69095 0.588916 22
444 1 4.98129 4.78452 0.711308 17
445 1 1.71206 4.57936 2.11596 21
446 1 4.03577 2.28854 2.67932 20
447 1 0.900898 2.01096 3.9553 20
448 1 3.90211 5.55233 3.28629 16
449 1 1.69244 3.96763 5.96369 18
450 1 3.69317 1.75501 5.94488 19
451 1 1.09289 1.64368 7.7435 23
452 1 4.87337 5.08974 6.55761 15
453 1 5.77924 7.40999 5.23875 9
454 1 4.21138 3.43951 8.56313 17
455 1 1.40291 2.89079 10.4226 12
456 1 0.953718 7.17598 0.547905 22
457 1 3.66668 7.78754 1.68188 18
458 1 1.6373 10.2168 1.02723 12
459 1 5.10571 9.31924 -0.561692 9
460 1 0.843982 7.6069 3.61765 19
461 1 3.60929 8.86399 5.29165 9
462 1 8.29572 4.77485 4.87216 9
463 1 10.2092 5.62147 1.42236 11
464 1 7.27611 2.35148 0.610713 15
465 1 11.8239 0.751174 3.72959 9
466 1 8.91878 0.0186865 2.11868 23
467 1 12.2822 1.63891 0.749852 8
468 1 6.50403 2.46507 5.7082 15
469 1 4.31997 -3.12158 2.62168 19
470 1 9.62668 3.24121 2.88806 13
471 1 6.92469 7.4256 1.33068 14
472 2 0.517303 3.60347 0.796453 23
473 2 5.55153 1.97701 1.38951 17
474 2 2.12626 1.48179 2.26541 19
475 2 3.65862 4.18599 1.94733 20
476 2 0.929865 4.18348 3.80454 20
477 2 5.0039 1.19949 4.67053 18
478 2 1.9234 2.23947 5.46781 18
479 2 3.87124 4.65374 5.0174 18
480 2 1.80106 7.77805 8.90923 11
481 2 3.67189 -2.80144 8.66289 16
482 2 2.55407 1.6471 11.1652 10
483 2 0.584407 5.54748 7.2485 22
484 2 2.02158 3.49072 8.38493 18
485 2 -2.46682 10.0219 1.57836 11
486 2 9.37998 7.33565 -1.80689 11
487 2 2.12985 6.73189 2.01252 20
488 2 5.11915 7.16729 0.794965 17
489 2 4.69035 7.47015 3.70983 15
490 2 8.80293 7.05254 1.0907 12
491 2 3.48018 9.68628 0.65895 13
492 2 8.28692 2.78501 4.88552 12
493 2 6.73552 4.43807 -0.228065 20
494 2 7.4368 -0.828188 3.1765 20
495 2 8.86826 1.88186 1.73352 20
496 2 11.98 0.805752 -1.10719 8
497 2 9.34802 5.03492 3.19238 10
498 2 6.77825 5.6892 5.65056 12
499 2 9.93028 -0.231857 4.66978 13
500 2 10.0773 5.00095 -0.377399 14
