ITEM: TIMESTEP
16000
ITEM: NUMBER OF ATOMS
2000
ITEM: BOX BOUNDS pp pp pp
-30.0 30.0
-30.0 30.0
-30.0 30.0
ITEM: ATOMS id type x y z Coordination
1 1 -5.99528 -0.963721 -16.6454 14
2 1 4.90708 -10.4692 -4.65627 21
3 1 13.3206 2.35534 14.8778 14
4 1 11.1951 -11.1915 7.95975 15
5 1 -6.92534 8.74881 0.451139 17
6 1 16.6844 -3.88302 -11.9372 11
7 1 -11.0704 2.19183 -8.86459 19
8 1 3.49664 -4.13094 9.18493 17
9 1 -3.00202 7.59737 -13.9023 19
10 1 -8.88338 -6.21775 8.87224 17
11 1 12.0265 4.99051 -10.2021 19
12 1 0.32591 -13.7801 1.28953 19
13 1 -15.2844 -2.56156 2.6374 8
14 1 6.091 -0.235301 16.1644 17
15 1 3.86554 5.68153 9.20138 14
16 1 2.16502 11.8532 -11.3745 21
17 1 3.12062 -5.31949 14.4711 12
18 1 -5.7987 -6.03803 -11.3418 19
19 1 -10.0153 0.811628 12.306 11
20 1 11.0346 3.39587 10.4442 20
21 1 5.15277 11.5874 -12.4774 19
22 1 4.55747 -2.1179 -16.1164 17
23 1 20.2374 3.05414 1.72838 8
24 1 -6.39437 4.425 -10.6309 19
25 1 -0.281338 -2.1444 -10.0486 17
26 1 -8.66437 9.08146 3.39329 18
27 1 7.64651 -15.4569 5.25782 14
28 1 6.2843 -10.4228 -8.22982 21
29 1 7.65657 -10.7513 -4.3668 16
30 1 -7.15452 -11.0857 -8.49218 12
31 1 -11.866 -4.634 9.83025 13
32 1 5.12376 -9.2257 -14.6389 19
33 1 15.5905 -6.31666 -12.773 10
34 1 1.68551 4.96265 -18.5784 14
35 1 6.34833 0.537549 10.4129 22
36 1 4.33241 -7.85375 11.4083 15
37 1 3.24438 -5.66163 11.7934 20
38 1 -13.9958 2.6603 0.477688 17
39 1 -11.9566 -7.1535 8.00875 10
40 1 -8.75787 0.499943 1.3962 19
41 1 -1.43734 12.3391 -5.28621 20
42 1 2.17257 -11.3285 -14.4452 13
43 1 6.82161 -5.04985 -12.0247 19
44 1 4.27357 -6.06884 -12.5391 23
45 1 0.40134 3.56621 17.0446 11
46 1 -8.1035 4.77107 5.73625 17
47 1 2.934 12.6458 -14.1947 15
48 1 1.63488 13.1989 5.68909 17
49 1 -1.86118 4.6455 -9.38561 15
50 1 -0.972453 14.3824 -2.62877 19
51 1 8.30128 -12.2907 1.27919 15
52 1 8.11334 -5.20583 -3.9319 20
53 1 7.97472 -3.22726 -15.7317 17
54 1 -6.49081 10.9642 9.78393 12
55 1 -11.7068 -3.45545 -10.8275 13
56 1 10.1368 -2.85777 0.122523 19
57 1 -8.22304 10.7519 -1.02743 15
58 1 -9.55202 -9.13162 7.42937 13
59 1 -1.25874 12.4416 10.9114 7
60 1 -9.84401 4.29377 -7.38905 22
61 1 -7.0019 8.49092 11.9789 13
62 1 -5.16359 -13.1511 3.95357 17
63 1 4.69851 7.32213 4.6238 18
64 1 4.91564 -13.1015 -8.99259 18
65 1 6.33712 11.2093 11.5146 12
66 1 -14.2951 1.18943 -8.57332 9
67 1 -4.22578 3.21298 -18.4443 9
68 1 9.93418 4.17068 13.9181 22
69 1 11.5547 1.66319 -16.3299 9
70 1 14.3169 -9.57124 8.03656 8
71 1 -14.8238 -5.13551 -2.75816 12
72 1 9.92977 14.6731 7.22423 10
73 1 6.28713 -3.34723 15.6738 14
74 1 -3.93402 -13.1452 6.69149 17
75 1 -13.1798 -0.794114 -1.78722 18
76 1 13.045 -1.5497 7.77037 21
77 1 9.86352 -3.36744 -5.53799 21
78 1 -4.79101 13.1659 7.54449 15
79 1 9.11058 1.09338 5.27812 22
80 1 -0.801666 -5.48539 -9.17712 22
81 1 -14.0292 3.17669 4.05877 16
82 1 -11.0927 10.3309 -5.82669 11
83 1 -3.56692 9.25408 -5.63508 20
84 1 9.12799 0.59771 -10.4614 19
85 1 11.2969 15.6621 -7.10259 8
86 1 8.331 -4.85494 1.17602 22
87 1 5.9673 -12.7974 7.88335 16
88 1 -0.428524 15.6256 -8.2687 16
89 1 -3.94614 15.6766 0.660706 19
90 1 -10.3294 -3.16566 6.56471 16
91 1 -1.44084 8.50907 3.4605 18
92 1 0.237212 -9.49344 6.48585 17
93 1 15.1282 -8.90982 -6.98234 10
94 1 -9.79323 -0.412621 7.24463 19
95 1 -10.8477 -5.29676 3.20701 17
96 1 10.1212 -6.88434 -13.6146 15
97 1 2.46348 -1.24288 -14.2197 14
98 1 -7.47674 -6.70639 -14.818 10
99 1 1.84873 16.1945 4.04355 9
100 1 -6.41341 6.59898 -13.6676 19
101 1 5.28912 8.54687 16.3685 9
102 1 1.12114 10.9571 -7.24652 16
103 1 -10.3446 10.5342 1.72144 11
104 1 2.1722 12.9808 1.25889 20
105 1 -0.563494 -10.65 11.4531 10
106 1 19.1025 -3.28875 6.88563 12
107 1 0.221569 -6.86153 -6.55293 21
108 1 9.6994 -5.87177 -10.1649 19
109 1 0.64501 5.47327 7.90769 19
110 1 9.18038 -2.85508 15.149 11
111 1 -8.67494 -3.64237 -1.04392 16
112 1 -11.0098 -6.52291 -11.9575 9
113 1 9.48214 -9.89045 0.375867 17
114 1 -0.112042 9.71201 0.288564 22
115 1 4.21002 1.09049 -14.8639 18
116 1 9.05697 17.1974 -1.33247 13
117 1 -7.51757 -14.6259 6.70761 10
118 1 -7.49497 -15.2671 0.994086 11
119 1 10.5832 -5.65568 -19.3471 7
120 1 5.41317 6.75015 -10.2023 21
121 1 13.6429 -9.57978 5.18367 12
122 1 3.56992 -18.9015 1.5331 9
123 1 -6.51779 -8.04722 1.24731 19
124 1 15.6022 4.83228 4.06933 13
125 1 16.9147 -3.15501 -8.27408 11
126 1 -14.817 -5.67183 2.18561 9
127 1 9.13148 8.72052 2.6967 20
128 1 14.4159 3.51237 0.405734 17
129 1 -1.06566 6.25018 15.4893 14
130 1 -3.39106 10.7855 12.9013 7
131 1 -0.707918 12.5738 -13.2959 22
132 1 5.56218 -3.03098 -13.6014 21
133 1 10.4064 -4.18742 -13.7085 16
134 1 6.19001 17.8505 -8.38271 8
135 1 9.1733 -7.83141 8.52479 21
136 1 -1.30312 -7.55334 -15.5431 19
137 1 -2.25051 11.2437 -8.89886 16
138 1 13.6301 5.25282 -7.16895 18
139 1 -7.11268 12.7554 -8.54704 10
140 1 -3.04659 15.1177 -6.14683 13
141 1 6.03306 0.205492 -12.8116 19
142 1 9.71304 -9.18672 5.74024 20
143 1 -10.9352 2.76675 -4.71789 14
144 1 -4.96268 17.0662 3.53933 12
145 1 14.1323 9.57918 -8.22917 15
146 1 9.15239 11.7282 -2.68731 19
147 1 3.69484 17.6717 -2.729 11
148 1 13.0452 9.12914 -5.71657 20
149 1 -0.413235 9.48296 -5.10841 16
150 1 2.77281 16.6411 -9.08423 14
151 1 5.11441 10.041 -18.7002 4
152 1 -11.0033 -2.14779 4.02698 18
153 1 -13.0147 8.27361 -3.4604 9
154 1 -3.05743 -3.01725 -14.0573 15
155 1 7.85969 -9.43715 -14.266 13
156 1 15.2157 7.62821 5.81282 17
157 1 1.43073 7.00785 11.7902 18
158 1 -13.3842 2.39467 -6.2378 13
159 1 -7.40603 13.8768 0.0108254 17
160 1 16.9195 -0.556369 -2.78385 18
161 1 -4.32935 -0.582047 -14.21 16
162 1 11.1452 1.175 16.1561 13
163 1 12.0619 14.4903 2.34671 12
164 1 -1.65955 8.19447 8.68911 16
165 1 5.48186 -12.0607 -15.5736 6
166 1 -3.55834 15.2123 5.74793 15
167 1 1.11209 14.348 -15.4187 10
168 1 2.52146 -2.26416 11.0319 18
169 1 -6.59845 -6.73108 6.71207 19
170 1 3.3266 -10.7751 -9.96334 19
171 1 -8.5918 10.4913 -7.41897 11
172 1 -5.00363 -8.45193 4.59306 19
173 1 2.9411 -16.3568 -9.19392 7
174 1 -4.1187 12.5245 -13.4841 14
175 1 -14.274 4.02466 9.10054 10
176 1 15.3391 6.62419 -5.357 13
177 1 -4.30943 4.84358 15.5476 10
178 1 0.10592 -4.64264 12.9956 14
179 1 -5.32689 6.19252 -4.99334 20
180 1 3.7637 15.4993 1.32206 12
181 1 1.56676 7.07292 5.54331 20
182 1 14.7951 -3.6104 10.0593 18
183 1 -5.38292 17.3002 -2.20059 13
184 1 13.3422 -3.478 -10.8997 17
185 1 -5.0679 11.6277 5.15115 16
186 1 -5.78245 2.22736 -7.2079 19
187 1 11.8462 -8.4385 2.98425 19
188 1 -6.49527 -5.36405 3.67371 19
189 1 -13.2669 -5.39319 5.22407 14
190 1 -9.74439 -6.26558 0.243843 20
191 1 13.7845 -1.09154 15.1601 7
192 1 -13.8603 5.3295 -1.49733 15
193 1 4.13407 -12.9424 0.231533 17
194 1 6.41412 -7.70314 -5.2978 19
195 1 -0.376167 11.4529 3.31691 17
196 1 10.4639 8.33828 8.77215 18
197 1 -7.65516 2.29866 -9.25445 21
198 1 -1.56852 12.8705 -16.0373 11
199 1 -7.31769 -1.25198 -6.6901 25
200 1 -7.9775 -2.73943 10.0183 19
201 1 4.0754 -13.9706 5.18223 21
202 1 3.02027 -7.61802 5.52183 21
203 1 -6.97893 16.7884 0.546807 16
204 1 15.0108 9.21006 -3.01005 16
205 1 10.1451 2.96269 -5.1154 21
206 1 -2.9277 -9.97176 -15.6238 12
207 1 6.90295 -0.335115 7.1642 23
208 1 9.24928 -15.0129 1.92271 12
209 1 -5.41149 9.33267 -12.4725 19
210 1 8.86275 -8.29091 -6.67373 15
211 1 9.35959 0.264334 -17.0422 14
212 1 4.22094 3.38084 -19.6726 13
213 1 -10.0132 -2.92839 -8.34344 20
214 1 4.11168 17.05 -11.1673 10
215 1 -5.16421 -10.0523 7.20484 17
216 1 11.1097 14.0862 -1.02416 17
217 1 -9.38239 6.22105 10.6307 19
218 1 -2.42022 10.1689 -11.7668 20
219 1 14.4364 0.813776 6.78236 18
220 1 1.90151 -7.61688 -13.0936 21
221 1 -3.58926 8.60784 -8.89869 16
222 1 4.84702 3.95748 -12.5624 18
223 1 -7.89099 -11.533 5.39033 14
224 1 -12.5203 6.1931 5.38697 13
225 1 -7.99374 11.986 7.42957 15
226 1 0.737278 -10.6761 -11.0124 20
227 1 -5.19021 -9.14545 -1.03365 17
228 1 12.1024 -13.8054 -0.177049 12
229 1 12.5396 4.04715 12.588 20
230 1 5.87486 8.41386 -12.6482 21
231 1 0.354237 11.1322 -3.14195 18
232 1 -11.4112 -5.50608 -3.66358 19
233 1 -8.45945 13.0737 -5.91073 10
234 1 6.28909 7.67639 7.07059 16
235 1 7.54358 -15.8982 -1.97258 12
236 1 13.9372 0.331713 -2.62108 21
237 1 5.1811 8.84093 2.03572 20
238 1 -7.29333 4.90085 8.68674 20
239 1 -13.4269 -6.52989 -5.21261 16
240 1 10.3841 4.24281 -13.8948 17
241 1 6.39363 -2.43755 12.4478 18
242 1 13.1002 8.46696 -11.1927 15
243 1 4.17498 -8.59814 -7.89621 21
244 1 -3.01914 0.113686 -17.8401 12
245 1 5.30669 -15.9492 7.2097 11
246 1 16.3419 2.74124 -6.21804 16
247 1 -6.79275 -1.36381 7.24326 18
248 1 9.22523 -14.4777 -5.09751 12
249 1 -6.98365 -3.55765 -9.33802 20
250 1 7.4402 13.6034 -4.80726 22
251 1 6.80932 -0.850273 -16.3233 16
252 1 8.7703 -1.29786 12.1421 17
253 1 13.4894 1.82336 -5.04643 22
254 1 13.9596 -0.314137 -12.384 14
255 1 -7.68585 -0.174105 -13.5186 17
256 1 -12.8067 4.71945 -8.2675 11
257 1 -4.23775 -16.22 4.06428 14
258 1 10.4547 -1.2327 6.52051 23
259 1 7.33751 -3.16452 6.20911 22
260 1 2.12117 -4.73907 -10.3894 20
261 1 0.414287 -6.72397 7.01138 15
262 1 0.55586 6.96365 -14.3717 17
263 1 4.50426 11.4546 1.62407 20
264 1 -4.76003 -5.082 1.75557 21
265 1 -1.28185 20.1904 1.31349 9
266 1 -7.88868 -1.84179 12.8539 14
267 1 -12.1269 -6.15927 -8.74985 18
268 1 -5.45931 -11.8546 -11.5208 10
269 1 2.75649 8.78506 -12.3831 21
270 1 -0.531588 -11.9457 -6.96096 21
271 1 -4.32097 -10.9954 2.17635 21
272 1 14.1137 -6.52412 -16.3614 9
273 1 13.0325 0.177667 -9.13033 19
274 1 19.0495 5.33255 2.73965 8
275 1 -6.71302 -8.78438 9.34527 16
276 1 -0.204437 -8.12048 0.88391 22
277 1 11.3738 -2.35267 10.3492 18
278 1 -1.27757 -15.2857 -0.884817 15
279 1 4.40872 -16.4845 -3.62349 11
280 1 0.0889869 17.3822 -11.3456 9
281 1 7.21112 5.70152 -13.3431 22
282 1 -2.95661 -5.00549 -17.2417 15
283 1 -4.3252 -10.2864 11.1309 11
284 1 7.5305 6.60914 14.3733 17
285 1 6.62134 -12.6775 3.28932 20
286 1 -2.02716 -9.88265 -6.13328 20
287 1 -7.1905 10.7526 -10.3506 9
288 1 14.4167 3.31792 9.10198 19
289 1 -4.43826 6.64051 -10.6688 16
290 1 -0.171427 9.70775 -9.97633 19
291 1 8.50457 -13.622 -8.63817 14
292 1 -5.87531 14.9309 -4.51381 17
293 1 4.1607 12.946 7.26115 15
294 1 18.9524 2.95375 4.99515 13
295 1 -5.71256 -0.526304 4.53001 18
296 1 1.05725 -7.78451 12.913 14
297 1 -5.27301 6.48984 0.385459 20
298 1 7.85479 -7.94081 -12.0851 21
299 1 12.1099 11.3378 -7.63036 18
300 1 3.28037 -7.90418 0.773052 20
301 1 2.67276 2.62767 14.4586 16
302 1 -16.0346 -0.347431 0.970421 13
303 1 1.06778 -15.4712 -3.3282 12
304 1 -4.01465 8.66416 10.7732 18
305 1 -8.99844 9.27272 9.6417 14
306 1 -7.87485 -5.392 11.3846 13
307 1 -6.80139 -4.12104 7.80561 18
308 1 16.3487 -3.42471 -5.11906 16
309 1 -8.60033 -8.46303 3.95156 19
310 1 9.77072 0.575552 -13.8525 17
311 1 11.1424 -9.40356 -11.7125 10
312 1 6.96215 16.5664 -3.05923 14
313 1 -7.15456 11.8344 -3.30677 19
314 1 9.73147 6.3178 11.9554 19
315 1 -3.53474 -4.64491 7.5159 19
316 1 12.2673 -8.06007 -0.779795 18
317 1 -3.52783 9.21656 0.883938 21
318 1 -3.22604 11.5423 2.49099 21
319 1 6.87921 -5.51068 8.31404 22
320 1 14.5676 -8.55043 2.39044 15
321 1 -1.76208 6.87736 6.0102 19
322 1 -5.03721 -5.04915 -3.38624 20
323 1 -1.25647 -0.641983 14.8772 11
324 1 -3.79632 18.3706 -0.0729822 14
325 1 9.07262 5.7727 18.2765 5
326 1 -4.86565 11.7485 -6.57331 18
327 1 -0.798687 -4.69608 -14.6709 15
328 1 6.81999 -6.23175 -14.6761 21
329 1 -5.79046 7.83549 8.93564 19
330 1 -8.03796 2.1559 3.94036 16
331 1 -6.10591 -0.279206 -9.36134 21
332 1 -2.5701 11.7268 -0.983299 19
333 1 11.4512 -2.92839 5.24138 21
334 1 -8.5377 -8.31273 -1.89335 17
335 1 10.1286 -4.85974 3.13699 19
336 1 -5.56567 -12.1208 8.72562 11
337 1 -12.4658 5.15035 -4.61944 19
338 1 -0.516692 -2.17964 9.13102 18
339 1 13.706 -11.432 -4.94555 14
340 1 -4.58821 3.98041 -12.635 19
341 1 11.0308 -1.82929 -15.1972 17
342 1 8.72998 14.6897 -2.26141 20
343 1 -7.28237 3.68847 -5.29667 17
344 1 10.7783 -2.28667 -19.1807 10
345 1 6.63589 4.62391 -19.9536 7
346 1 -2.34916 -14.4338 -7.61431 13
347 1 -15.1641 -8.73415 -3.09907 6
348 1 -6.86028 -5.72181 -0.798609 19
349 1 13.5532 -0.96333 12.185 16
350 1 11.5751 2.03929 -7.82747 21
351 1 -3.51027 5.1267 -15.4428 16
352 1 -0.145006 16.8003 1.13609 14
353 1 -13.31 -2.82294 -4.17873 20
354 1 -6.84111 11.728 2.32861 21
355 1 -5.13817 12.225 -0.236348 23
356 1 -5.43269 6.62539 6.28068 20
357 1 15.8881 1.94406 12.753 12
358 1 14.3255 -2.49177 -7.84231 19
359 1 9.38505 -4.43501 12.6125 16
360 1 16.0401 5.35945 -12.5249 11
361 1 -4.72769 -8.97705 -7.13199 20
362 1 2.84052 -8.11889 -5.32099 20
363 1 2.5594 10.7528 4.16776 17
364 1 -8.28273 0.315316 -3.85902 16
365 1 8.22007 -8.34822 -3.1106 18
366 1 14.0373 -5.49236 7.17766 20
367 1 -9.38021 -0.624627 -9.36451 21
368 1 -3.38227 -7.88556 1.37735 22
369 1 -2.52967 -8.17608 12.0604 10
370 1 -0.985888 13.6218 0.524996 16
371 1 -12.7522 -7.12535 -0.687739 14
372 1 16.1029 4.32148 14.3491 8
373 1 -7.40463 5.95821 -2.42966 17
374 1 7.57172 14.6622 -12.1916 8
375 1 7.45199 13.6652 5.68618 16
376 1 -10.0877 -10.9348 -0.685908 12
377 1 2.84319 -5.82002 -7.38404 19
378 1 -9.18221 -5.48984 5.10454 19
379 1 -9.59391 8.69778 -3.03406 16
380 1 4.17529 -10.9212 5.49623 23
381 1 1.51026 -10.8499 0.29492 20
382 1 8.95675 7.50685 6.05233 21
383 1 5.30144 3.76635 -15.4509 16
384 1 -9.88226 5.36634 -13.3252 14
385 1 -2.0073 15.1941 -13.7959 11
386 1 -9.24139 6.13978 -4.61209 19
387 1 -0.316399 -13.2758 6.67409 19
388 1 16.0014 0.812162 -0.01379 19
389 1 -5.11529 8.39065 -15.8347 11
390 1 -1.78966 3.16111 8.55329 22
391 1 -15.6598 -3.25051 -0.436966 13
392 1 -4.92536 4.08404 6.90712 20
393 1 -7.47126 -16.4964 3.96536 9
394 1 11.8011 -9.1561 -6.40996 14
395 1 -10.1957 -2.77534 1.0053 16
396 1 -10.7204 -2.98518 12.4857 9
397 1 -14.5592 -0.221389 4.19602 12
398 1 2.63236 -4.83019 6.48166 21
399 1 -4.11973 -2.81608 -18.4735 10
400 1 12.8397 -10.5641 1.17298 12
401 1 1.04961 -9.63005 -7.73207 20
402 1 -3.07468 0.193829 9.66431 17
403 1 -0.625778 -2.90203 -16.926 16
404 1 7.50475 -10.3255 3.96691 18
405 1 3.88732 11.0682 -8.14318 20
406 1 -11.7456 8.09487 2.44512 12
407 1 -1.85564 -1.86276 12.1847 19
408 1 -8.93048 -5.54744 -10.1278 22
409 1 -5.14939 -3.42644 11.9745 18
410 1 7.60611 -11.0697 6.69815 20
411 1 5.67712 0.399073 -9.26654 20
412 1 11.6891 -6.12893 5.67336 19
413 1 16.7441 8.26035 -0.458726 11
414 1 6.35886 3.00526 14.1677 19
415 1 1.34339 13.2546 -4.71991 18
416 1 11.9335 -5.16701 0.689914 17
417 1 0.0436663 -12.618 -1.81052 21
418 1 -1.43898 5.93593 11.0634 18
419 1 -2.37037 17.4843 3.01774 15
420 1 -2.01507 -8.59586 -8.55831 18
421 1 9.12635 16.2869 3.945 10
422 1 9.59026 3.99028 5.83891 19
423 1 -6.14772 5.36535 11.5641 19
424 1 -3.93878 -8.06898 -3.69761 21
425 1 -8.22185 2.89203 10.9315 18
426 1 -9.98494 -5.75506 -6.5893 21
427 1 -2.10632 14.9317 9.02256 8
428 1 -6.68775 -9.76134 -4.19203 15
429 1 -1.55867 -8.84824 -11.5728 15
430 1 -5.25145 -14.8439 -1.11526 12
431 1 -2.44225 -5.78048 3.95292 22
432 1 10.1444 0.284458 2.17908 20
433 1 0.620144 -5.43242 10.1722 16
434 1 -7.63562 4.13397 -14.6668 12
435 1 10.5184 3.59292 0.458413 22
436 1 -9.55424 -11.0802 -3.79365 15
437 1 0.825796 16.9814 -3.10113 15
438 1 0.212423 7.42414 -11.3501 19
439 1 2.26595 8.21144 8.66752 14
440 1 -11.5122 4.36347 0.699318 19
441 1 -0.419609 12.946 -9.79338 21
442 1 13.8021 15.5042 -2.4727 8
443 1 -7.55954 -8.46212 -11.8236 14
444 1 3.82312 -2.02011 14.5615 17
445 1 8.5433 -11.0655 -11.5181 14
446 1 -2.95034 -0.333572 -11.3991 18
447 1 5.83038 -10.6485 1.24656 22
448 1 -9.59097 7.1212 6.03182 17
449 1 8.40909 -0.691617 17.3823 10
450 1 12.0643 8.24865 -2.71408 20
451 1 3.44947 11.7264 -2.14512 20
452 1 -1.04498 2.87011 -18.6777 12
453 1 2.95547 2.82588 -9.72668 18
454 1 3.59592 -11.8849 2.78791 22
455 1 -16.1773 -1.38305 -2.30653 12
456 1 6.94282 13.0126 8.53188 12
457 1 2.50025 2.16631 -17.3872 17
458 1 10.3587 5.21964 -2.22748 20
459 1 6.55446 12.0638 -6.80837 17
460 1 9.43393 -6.82566 -1.07258 18
461 1 18.2559 2.40525 -2.92513 11
462 1 -5.30518 -1.75734 -11.6129 18
463 1 1.71552 -8.83352 3.33901 21
464 1 2.47709 -13.3413 7.66864 16
465 1 6.37259 -8.63051 9.67528 15
466 1 -9.71522 2.37092 -11.5877 16
467 1 -9.01106 -13.627 3.32767 12
468 1 0.451487 -14.1141 -9.60716 11
469 1 12.7486 12.8183 7.06831 13
470 1 -1.09092 5.12314 -12.7933 17
471 1 2.40221 -0.14459 16.0235 12
472 1 -13.4682 0.743118 9.73769 11
473 1 0.949032 -14.8616 -6.89655 16
474 1 -7.03753 -2.60568 -3.86007 21
475 1 15.7426 -5.91944 -6.83177 16
476 1 16.5927 -2.23718 0.464276 17
477 1 -5.82086 8.70849 -7.40936 16
478 1 7.15891 -7.50921 -8.99522 18
479 1 1.43945 2.44492 -14.213 19
480 1 11.719 2.01344 -11.2737 19
481 1 -3.94294 1.57852 14.7339 13
482 1 4.56497 14.1986 3.82023 18
483 1 -6.38238 -4.52009 -16.6656 11
484 1 7.86943 5.08729 -16.6828 14
485 1 -2.81108 -4.86797 10.9471 17
486 1 -1.56874 19.5615 -1.98427 9
487 1 -5.78893 -9.63751 -14.0155 9
488 1 -15.5575 1.91186 -1.50032 10
489 1 2.24891 -8.89039 -16.2909 13
490 1 -1.73349 -15.7782 6.2678 13
491 1 3.3992 9.26968 -10.1221 21
492 1 18.6496 0.445916 7.20914 10
493 1 10.7731 6.4244 -5.3054 22
494 1 -11.3623 -8.95751 -3.73547 14
495 1 4.89299 -8.73941 -1.79054 20
496 1 -0.540473 -4.80994 -19.3172 9
497 1 -8.19324 15.3684 2.74325 13
498 1 5.81542 -2.5548 -10.4071 18
499 1 15.0331 -1.0901 2.9014 18
500 1 4.62179 13.4674 -10.7163 17
501 1 7.24838 -6.02974 3.49356 20
502 1 8.43595 8.12017 -7.85921 22
503 1 11.9812 4.85599 16.3878 12
504 1 -11.231 2.25514 8.55409 19
505 1 15.524 6.83026 9.09649 13
506 1 8.80751 -7.47879 13.0989 13
507 1 -0.335333 0.709742 -16.3423 14
508 1 -2.39077 -6.62656 -6.18808 19
509 1 4.53924 2.42632 8.68675 22
510 1 13.6077 6.74172 13.9716 13
511 1 5.85635 7.14856 -15.5872 13
512 1 -6.77446 8.70635 -4.16655 17
513 1 3.88657 12.6653 -5.91072 19
514 1 10.2715 -9.35191 11.1733 13
515 1 13.7491 2.90465 -13.9983 14
516 1 13.3189 -11.3079 -1.6655 15
517 1 16.4053 7.72238 2.79067 14
518 1 -8.43997 -5.95187 -3.60486 19
519 1 -10.5396 7.97232 -11.3878 8
520 1 1.84206 2.7772 8.92915 20
521 1 -7.46169 0.282407 9.96588 18
522 1 0.51317 10.081 -14.2311 19
523 1 4.94227 -8.66016 3.39611 21
524 1 7.50056 2.73145 -14.1518 18
525 1 -2.00521 14.6616 -11.2388 15
526 1 -3.96922 -6.49644 -14.5003 21
527 1 5.04709 -16.5797 -0.372189 15
528 1 -9.6326 -3.04771 -5.4231 18
529 1 3.96834 6.68039 -19.4223 10
530 1 1.26101 7.94339 14.3187 14
531 1 -4.99079 -6.78231 9.14308 21
532 1 9.1416 8.14636 -2.61532 21
533 1 4.82901 -8.14455 -11.0065 21
534 1 6.71928 -5.82619 11.2792 19
535 1 11.9497 -0.257979 -5.56035 21
536 1 -6.83469 6.79876 3.27826 20
537 1 6.4535 2.02288 18.2836 7
538 1 8.58852 16.7826 -5.06638 13
539 1 13.3182 -4.34448 -5.97458 20
540 1 14.3943 9.91987 8.49633 13
541 1 4.70451 0.800433 -19.6467 13
542 1 -1.80296 -16.5154 2.57956 17
543 1 -0.0253638 1.23625 -9.40657 17
544 1 9.77403 -7.52805 -16.7489 9
545 1 7.84403 10.0326 8.42409 19
546 1 9.87445 4.94248 -8.24546 21
547 1 -2.57939 -4.92019 -11.4515 15
548 1 -1.70834 -9.58985 -1.44526 23
549 1 -8.63466 -1.876 -15.6116 9
550 1 15.4257 -5.11087 0.444245 13
551 1 17.7011 4.72085 -4.1942 12
552 1 11.5175 -4.22456 -8.7486 16
553 1 17.5318 4.0693 10.582 8
554 1 12.6802 -6.77716 -12.0319 15
555 1 6.89855 2.47092 -17.9874 16
556 1 11.6272 11.0349 2.02105 17
557 1 -6.21206 3.72432 1.50514 19
558 1 13.8945 9.06215 11.4444 13
559 1 9.98658 9.52796 0.310785 18
560 1 19.0826 -5.59067 5.00968 10
561 1 8.40309 7.41144 -10.2934 19
562 1 13.0347 1.06007 10.059 19
563 1 18.1527 -3.05681 9.41909 9
564 1 5.81939 -2.22082 9.59972 18
565 1 15.3024 12.6853 -3.21727 11
566 1 3.61653 3.06377 17.2706 11
567 1 15.0349 -1.06203 -5.09162 20
568 1 8.11441 2.63985 11.8653 20
569 1 -4.3522 2.60312 -9.52071 19
570 1 15.4098 3.05713 -2.66967 18
571 1 12.0821 -2.03596 2.18372 21
572 1 -9.86888 10.08 6.51548 15
573 1 10.4874 7.11733 15.1671 16
574 1 16.0478 -0.843477 7.95201 15
575 1 3.06304 10.1736 6.53993 16
576 1 5.14222 9.82487 9.41828 16
577 1 11.5627 2.09483 7.08412 22
578 1 2.79082 -15.2389 -0.815274 17
579 1 1.42492 14.9557 -11.1177 18
580 1 10.2147 13.2174 -6.25163 19
581 1 14.5841 0.156076 -15.5893 11
582 1 2.45734 13.6629 -8.7645 20
583 1 -1.20069 -14.2231 -4.26405 17
584 1 16.41 -2.11909 -15.1168 8
585 1 -11.5899 -1.59543 9.56683 15
586 1 -1.0702 8.02129 -16.7833 13
587 1 1.23121 -16.9547 1.00369 13
588 1 -5.2986 2.62666 -15.1927 14
589 1 -8.4684 3.04994 -0.88385 16
590 1 13.6799 -5.23262 3.33677 21
591 1 14.1464 13.3782 0.17656 13
592 1 -1.59015 -8.69618 3.52673 19
593 1 -14.9388 -1.09928 -6.03082 9
594 1 4.92567 -2.32379 -19.4767 14
595 1 4.39722 5.59417 13.6492 18
596 1 9.02388 11.0674 -8.14237 21
597 1 15.6222 -6.98054 9.88163 10
598 1 6.89527 5.23679 -7.16854 18
599 1 16.6205 10.84 0.814357 13
600 1 3.42561 -11.7988 -6.69027 20
601 1 -5.34307 -0.440569 11.6426 21
602 1 14.6043 -2.43986 5.2202 20
603 1 1.84127 12.1667 8.88812 13
604 1 8.09271 10.8887 -11.9728 14
605 1 -9.56096 0.985265 -6.75494 18
606 1 11.2675 9.3591 6.02613 19
607 1 -9.76312 -14.4418 -2.28509 6
608 1 17.549 -6.86017 2.50445 10
609 1 17.2163 10.2957 4.22614 8
610 1 -3.60183 5.56613 8.99457 23
611 1 -7.99201 -4.50139 1.93374 18
612 1 -9.26627 -2.61633 -11.9756 15
613 1 10.762 1.32129 12.6305 21
614 1 4.35929 -10.7848 8.86664 16
615 1 11.9756 -4.20482 8.5203 20
616 1 -5.22298 14.1506 -1.9226 20
617 1 12.443 5.73545 -0.459317 19
618 1 9.99318 5.81739 3.44816 22
619 1 7.84514 -0.38924 -19.2047 13
620 1 -3.9838 0.949634 6.69584 21
621 1 13.8203 -4.3365 -14.0962 19
622 1 15.6087 -6.21729 -9.82655 15
623 1 16.1198 6.5232 11.8219 11
624 1 3.04623 9.63919 -0.200006 19
625 1 -9.62939 4.75803 13.3407 8
626 1 11.4593 3.12393 3.96876 19
627 1 1.41334 -2.07689 13.6829 17
628 1 4.32603 2.89484 11.8382 17
629 1 2.62417 -4.43741 -14.8685 16
630 1 -5.92462 2.03441 12.9495 16
631 1 7.93525 2.20928 8.01718 19
632 1 -5.12205 -17.4829 1.42294 10
633 1 17.7153 10.823 -2.59318 8
634 1 9.43322 -12.6212 -1.93898 19
635 1 6.25068 11.4707 -2.609 19
636 1 14.0397 10.4402 5.31998 18
637 1 13.2996 -3.08221 -16.6973 14
638 1 4.95212 15.1353 -7.12308 17
639 1 9.04862 14.923 1.43711 16
640 1 -7.49285 -7.91777 -8.50477 16
641 1 4.37469 -6.49342 -16.1357 18
642 1 -8.37233 15.9658 -2.19539 10
643 1 6.34619 -12.3237 -2.17758 16
644 1 13.2156 10.8841 -12.617 6
645 1 12.9706 12.6465 -5.23923 14
646 1 -10.5048 2.64571 5.49529 20
647 1 7.80654 6.73611 -4.51806 20
648 1 14.127 -5.59421 12.3552 10
649 1 11.5161 -7.15773 13.4056 11
650 1 3.62869 -17.3468 4.70106 13
651 1 -4.2696 13.3408 -9.16546 11
652 1 12.7661 5.70295 10.4124 19
653 1 8.46005 -2.9063 -9.1487 18
654 1 8.61479 1.36805 14.5325 17
655 1 7.10225 17.8306 1.35498 9
656 1 12.4066 8.65759 3.1863 18
657 1 14.7343 -6.19401 -3.76767 13
658 1 10.0171 0.422086 9.44584 22
659 1 -13.2569 -2.1721 7.26133 15
660 1 6.37422 -13.3706 -6.65078 16
661 1 3.03848 -2.22042 -11.3289 16
662 1 -0.853634 15.57 -5.33919 13
663 1 8.58448 10.4045 5.67659 17
664 1 -12.361 -3.72883 -1.07482 19
665 1 0.0992675 3.42299 11.2968 16
666 1 1.99824 7.98249 -17.0439 10
667 1 1.98421 -0.80316 -17.7439 14
668 1 9.83326 -12.7933 4.69234 14
669 1 10.761 9.77656 -10.2124 16
670 1 -12.7134 5.88297 11.3217 10
671 1 8.4188 -2.50983 -12.3074 19
672 1 6.17958 -8.1778 6.4216 23
673 1 1.51734 14.2487 -1.54766 17
674 1 -1.54881 3.01138 14.7788 14
675 1 -4.98584 -8.95298 -10.1093 19
676 1 -0.208153 -10.0032 -13.7223 15
677 1 -5.01748 -13.0632 -8.14474 13
678 1 5.58568 13.3942 -0.0780897 16
679 1 10.2491 -1.1076 -8.33991 20
680 1 -3.47194 9.88679 7.03715 17
681 1 11.0758 -10.1541 -3.09556 20
682 1 10.5199 -16.1914 -0.887994 10
683 1 5.25941 -5.07352 5.28853 20
684 1 15.1693 6.51097 -9.38039 18
685 1 1.78172 -7.65749 -9.84877 21
686 1 -11.0518 2.09241 2.78593 19
687 1 -3.13109 -12.7304 -1.16933 18
688 1 -7.31946 -12.7836 -5.77504 11
689 1 -5.26232 2.37041 9.72718 21
690 1 -4.40425 -14.2009 1.2815 19
691 1 17.1446 6.33884 -7.26849 11
692 1 -0.861941 14.6878 3.11978 19
693 1 -2.53327 3.80793 5.61697 22
694 1 -11.2598 9.22533 -0.522375 10
695 1 12.5109 0.70523 0.0836447 18
696 1 -11.9139 -0.169882 -10.9618 10
697 1 2.32949 8.36235 -6.9679 18
698 1 9.28634 4.26025 -11.3669 19
699 1 11.629 9.54481 13.3324 14
700 1 13.4099 8.66082 0.156034 17
701 1 -9.64214 5.26802 -10.0767 17
702 1 -11.5747 -8.5792 -6.4225 13
703 1 1.28828 4.97141 13.869 18
704 1 12.573 5.62048 -13.0697 13
705 1 14.3617 12.2222 2.73919 12
706 1 3.72417 -0.488198 8.62918 21
707 1 -4.30884 -13.8399 -5.1271 12
708 1 0.00588309 -17.951 4.65054 10
709 1 -1.08649 -4.21284 6.34244 17
710 1 16.2468 0.895034 5.24544 18
711 1 8.07668 -5.0204 -7.18207 23
712 1 -4.98038 8.79764 -2.02093 25
713 1 7.11612 9.50809 -0.165189 22
714 1 -3.94806 -2.99078 4.61604 17
715 1 5.39914 10.3192 -15.6056 8
716 1 2.31429 -13.6371 -11.5413 11
717 1 3.77289 -15.29 -6.23378 13
718 1 3.33421 -12.1833 -2.54216 16
719 1 6.19134 3.43178 -10.1364 19
720 1 5.24451 18.0182 -0.514985 10
721 1 -0.118554 0.0320368 -12.3442 15
722 1 4.76884 0.569861 13.2493 19
723 1 -0.240457 3.83457 -15.6613 19
724 1 -5.91045 1.27447 -11.8818 19
725 1 -7.29807 -5.07396 -6.53785 21
726 1 2.30705 16.6913 -5.86576 13
727 1 -0.777018 -8.48884 -18.3754 9
728 1 -7.08286 -7.63173 -5.42639 17
729 1 9.92848 7.0536 -15.0862 9
730 1 13.8054 -1.9831 -0.520286 20
731 1 -6.9993 9.46676 6.34823 20
732 1 6.74541 -7.52441 0.995391 22
733 1 15.7199 -3.14911 -2.53509 17
734 1 15.6274 -0.630579 10.7377 11
735 1 -0.0214642 9.76492 6.61308 17
736 1 -10.8725 3.98709 11.1924 15
737 1 -11.944 7.95322 8.58628 11
738 1 0.964475 -14.9677 4.0073 22
739 1 14.0547 2.25787 2.78997 15
740 1 9.37643 10.1662 11.357 16
741 1 -10.3102 -1.45213 -2.50384 15
742 1 11.0665 -6.27113 -5.27341 16
743 1 -11.9243 7.59166 -6.79213 11
744 1 4.20103 14.9611 -3.19658 19
745 1 6.30032 -17.2265 3.28594 12
746 1 6.10641 -6.41045 14.4293 11
747 1 -2.01204 13.0461 5.70116 16
748 1 0.959027 -12.1115 4.50898 23
749 1 -6.9939 0.0760767 -1.15652 20
750 1 6.34955 4.69762 10.6614 19
751 1 -13.1063 -3.95152 -7.49729 14
752 1 0.610625 10.8638 11.9549 11
753 1 7.42586 9.9974 -4.98767 21
754 1 -12.4123 -7.52631 2.23179 13
755 1 -1.94469 -11.0515 1.03614 17
756 1 8.66002 -2.78101 8.70373 20
757 1 8.3727 -11.1408 9.69059 13
758 1 12.4804 6.90185 5.14077 19
759 1 1.3264 -10.7869 -4.48562 18
760 1 -2.85544 -1.44906 -8.72999 18
761 1 -3.44443 3.98889 11.7888 18
762 1 1.89658 18.9016 -0.398638 9
763 1 18.2384 0.475653 2.64553 14
764 1 5.29247 8.11694 -7.65165 22
765 1 -4.08123 7.11255 13.2425 16
766 1 5.5768 10.7117 4.68384 19
767 1 11.0657 -0.943863 -11.4651 16
768 1 -5.35815 -12.0186 -3.1013 14
769 1 17.3737 -5.78281 7.70119 14
770 1 -0.394289 -6.3668 -12.1191 16
771 1 2.47358 6.28444 16.9253 13
772 1 9.62793 -9.6446 -8.94876 17
773 1 -2.00814 5.75271 -19.3264 7
774 1 -0.551658 -8.06908 -4.09099 20
775 1 14.4551 3.17155 -8.55743 19
776 1 15.4951 -7.86534 -0.25643 12
777 1 4.38722 -6.97721 8.3128 24
778 1 -2.24572 -11.5752 -3.89336 18
779 1 10.881 15.1093 -4.06788 16
780 1 -12.2331 0.216709 5.57114 19
781 1 11.7153 7.90048 -8.31616 22
782 1 18.1466 5.05138 -0.554978 11
783 1 11.5408 -5.07636 -16.6684 15
784 1 -7.09686 15.131 5.78783 12
785 1 15.2194 5.96875 -2.08218 21
786 1 15.3179 11.1048 -5.5833 12
787 1 2.7694 0.43212 -11.7941 17
788 1 11.3757 -4.63471 -2.79621 17
789 1 -8.78576 6.10427 0.110912 16
790 1 11.816 5.73399 7.58206 19
791 1 -7.792 -10.8696 1.90349 13
792 1 -9.04804 7.48888 -7.75551 15
793 1 7.24714 4.96021 5.56436 19
794 1 -12.1414 -1.23659 -6.76551 14
795 1 -10.8682 4.95603 7.99584 21
796 1 -2.50122 2.02097 -7.42649 18
797 1 12.5462 -6.86797 -8.52372 19
798 1 -10.4352 -8.76717 -9.74097 12
799 1 14.5337 -9.15043 -3.31168 13
800 1 -12.3181 0.0675344 1.78455 18
801 1 -11.1049 1.63175 -0.729334 16
802 1 17.1489 3.00366 7.51802 15
803 1 -2.62702 -10.5585 5.09111 20
804 1 12.1428 -3.96056 14.1342 12
805 1 16.5222 -8.00769 5.47008 14
806 1 9.03198 -2.22725 3.46645 24
807 1 -9.9469 5.59266 3.26735 19
808 1 7.71863 7.6374 10.5054 17
809 1 3.38004 5.97995 -13.8326 16
810 1 1.01787 -5.83608 -16.4667 19
811 1 -5.47596 14.2182 2.7622 21
812 1 -10.6818 -10.6008 3.52047 11
813 1 10.2235 9.43385 -5.64828 22
814 1 3.38463 9.14286 12.3546 12
815 1 15.3989 0.499332 -8.1806 15
816 1 9.11495 -5.48986 6.29981 25
817 1 4.64923 15.4906 -14.4366 7
818 1 9.74357 13.0079 -9.87406 13
819 1 -4.38735 -2.13113 9.46868 21
820 1 17.8338 -2.54655 3.53906 11
821 1 -4.23961 -5.49438 -8.68972 19
822 1 11.0289 12.8575 4.55878 19
823 1 -13.7092 5.75351 2.02086 12
824 1 1.44889 -16.5276 6.97297 12
825 1 8.12026 14.7564 -7.96691 15
826 1 12.2027 -7.42185 9.00708 17
827 1 -2.06855 -12.8953 3.85127 22
828 1 -2.90321 16.5276 -3.00893 17
829 1 -10.6659 5.08907 -2.08454 19
830 1 17.2921 3.65289 -9.61625 13
831 1 5.01568 -11.9075 -12.2708 13
832 1 -5.02606 8.96323 3.50751 20
833 1 16.0462 8.71199 -11.3488 9
834 1 -2.04261 -1.64813 6.90672 19
835 1 8.03718 -3.49481 -20.4226 9
836 1 -2.27357 -11.9635 -12.9922 9
837 1 1.50572 -8.97723 -1.8457 20
838 1 -1.46212 8.59081 12.5179 16
839 1 12.1955 -13.7503 -3.35525 14
840 1 -2.59935 10.5104 -14.8102 17
841 1 18.8268 -0.149687 -0.516689 10
842 1 8.91286 6.64681 0.290636 21
843 1 7.22714 -15.6351 -5.44127 12
844 1 5.91752 -4.55242 -17.634 12
845 1 12.4906 0.0238034 4.38946 22
846 1 1.60282 4.17031 -11.8508 17
847 1 1.86226 -8.54854 10.0401 17
848 1 6.16962 10.008 -9.77339 21
849 1 8.27405 2.13708 -7.37598 20
850 1 -7.49889 7.43349 -10.9205 20
851 1 -13.7867 2.59333 6.65066 14
852 1 6.06373 5.05 16.7478 15
853 1 -2.47504 -11.6574 9.04519 13
854 1 7.35145 12.0934 2.78317 18
855 1 3.55414 -14.627 2.53455 20
856 1 4.16777 9.57351 -4.92171 18
857 1 2.37184 1.03904 11.4828 20
858 1 -7.5406 1.83542 7.12413 20
859 1 -9.13892 12.5385 4.36014 13
860 1 11.9686 2.51185 -1.85652 23
861 1 1.05781 -11.8422 9.26644 11
862 1 8.56488 -14.0192 7.6938 12
863 1 9.07024 4.97996 8.88029 20
864 1 12.7314 -2.21671 -4.01622 19
865 1 10.9964 -12.6009 -10.4068 8
866 1 -6.50221 -3.99395 -13.6189 14
867 1 2.35417 -4.1318 -18.571 13
868 1 12.0901 11.6768 10.3607 12
869 1 -5.5618 -7.22742 11.9389 12
870 1 -4.61833 5.54845 -7.94336 16
871 1 -13.0252 2.42169 -2.79959 16
872 1 8.56042 12.2398 0.15866 17
873 1 -7.96481 -12.8972 -1.29561 14
874 1 1.54213 8.40781 2.44214 21