ITEM: TIMESTEP
3000
ITEM: NUMBER OF ATOMS
1500
ITEM: BOX BOUNDS pp pp pp
-30.0 30.0
-30.0 30.0
-30.0 30.0
ITEM: ATOMS id type x y z Coordination
1 1 -7.21422 -9.95356 -6.56642 22
2 1 3.02672 -10.668 7.17953 16
3 1 -10.8446 6.96798 -0.417039 17
4 1 -9.10571 0.30395 -12.1314 20
5 1 0.768327 -6.70469 11.8624 18
6 1 -6.03889 -1.79781 -16.1721 22
7 1 -5.61211 -16.0271 -1.39055 10
8 1 -12.34 -9.27834 1.2017 21
9 1 0.490336 -1.04058 15.3425 11
10 1 5.62823 -3.19875 4.68119 19
11 1 0.099693 5.51996 9.54745 23
12 1 7.83719 -1.6912 1.6611 20
13 1 -3.10868 7.02877 -9.67664 19
14 1 4.85217 -3.80941 11.7057 15
15 1 14.5316 4.40235 7.53512 11
16 1 -1.41794 8.11255 -12.1477 15
17 1 2.80889 7.9403 -15.5202 9
18 1 -9.07506 -1.30229 -1.31175 16
19 1 -2.64238 -2.58541 -9.10153 21
20 1 5.78367 -12.6752 3.52214 12
21 1 0.152681 -1.96731 6.81119 22
22 1 9.50363 -12.6925 -1.19725 7
23 1 -9.89222 -12.4249 -8.08681 14
24 1 2.67875 -5.67929 -3.82461 19
25 1 4.06752 -6.45148 -13.7144 19
26 1 1.2318 -0.0121133 12.7217 18
27 1 -3.40042 -11.8863 1.61037 22
28 1 2.41748 -5.50322 9.94008 22
29 1 -11.6814 -0.10128 1.1579 19
30 1 -7.67461 -0.549546 -3.81811 20
31 1 -7.81976 11.6081 -4.64182 15
32 1 1.40634 -1.38579 -13.81 21
33 1 2.85052 -10.0793 -13.6532 13
34 1 -2.27524 -6.38063 15.7726 8
35 1 -14.6271 4.81484 -3.8005 9
36 1 2.40012 10.9745 10.9773 10
37 1 -13.0956 8.11275 -3.64384 11
38 1 -0.119046 13.3833 -4.81213 15
39 1 -0.333591 -15.0641 4.78855 14
40 1 4.48393 -6.64369 -6.98913 21
41 1 -6.96258 4.05355 13.8268 9
42 1 -13.2004 -5.46121 -10.4658 11
43 1 8.00136 0.652791 4.05951 22
44 1 -6.95616 7.56864 -13.8658 12
45 1 -7.86391 -9.64486 5.15036 20
46 1 -9.66736 6.75858 -9.29803 14
47 1 -2.8151 2.38261 -10.3236 21
48 1 0.822852 5.03326 3.64761 21
49 1 -0.427797 3.65589 6.58701 24
50 1 5.21002 -10.262 -6.18258 18
51 1 2.45201 5.20762 14.2156 10
52 1 8.87471 -2.08463 -13.3126 17
53 1 6.27977 -9.55121 3.7889 17
54 1 -9.34641 -3.08969 1.00151 18
55 1 6.48812 -4.60219 9.57209 18
56 1 -4.64193 -9.07257 6.9848 18
57 1 -11.1038 0.0448203 -4.80128 20
58 1 11.2578 2.06414 5.02627 15
59 1 5.88213 -3.7286 -0.824535 20
60 1 -4.05113 10.7841 9.69532 10
61 1 4.38671 1.40791 7.19183 26
62 1 -9.82917 -4.26851 4.29195 20
63 1 -4.8813 -5.31569 -8.75148 17
64 1 -7.83278 8.24274 -0.876992 22
65 1 -4.29846 7.42086 -15.1912 10
66 1 5.95622 1.88268 -6.73841 24
67 1 6.25457 -5.96314 -4.15705 17
68 1 10.7584 -7.59361 2.18917 12
69 1 1.09211 -12.1912 9.59618 11
70 1 -6.06386 14.0878 -7.36418 12
71 1 -9.97425 10.4902 4.08673 14
72 1 -5.46436 5.5814 6.31592 19
73 1 -10.0212 -10.4364 10.7776 10
74 1 12.9112 -6.05699 -5.9081 13
75 1 -10.246 2.36678 3.28123 16
76 1 9.04096 -4.87718 -5.77013 19
77 1 3.35326 1.43096 -11.9372 18
78 1 -5.57668 -3.48221 -19.1054 11
79 1 -3.06803 10.0589 -1.70828 22
80 1 -9.84654 2.14608 -15.8102 9
81 1 1.3859 12.8702 -7.88053 10
82 1 1.71083 11.2888 1.52608 16
83 1 -3.59376 -6.42243 6.94478 19
84 1 -0.498042 -5.93099 -9.48133 22
85 1 4.83671 -11.8596 -8.20491 10
86 1 -3.38807 2.98231 7.21772 22
87 1 -7.43773 -6.40793 -3.81684 21
88 1 7.01361 -4.58734 2.09631 19
89 1 -10.3718 -6.25769 -3.6059 21
90 1 4.25827 -10.7142 1.556 19
91 1 -7.05618 5.93595 0.371934 20
92 1 8.76633 2.96382 -14.2696 11
93 1 0.771181 4.64994 -7.04672 22
94 1 8.639 -10.5696 -3.10402 16
95 1 -3.90591 -13.3245 4.21924 15
96 1 -7.3611 -11.7973 -3.58982 18
97 1 -15.3672 -8.06459 3.53056 10
98 1 10.493 4.27182 7.26776 18
99 1 6.51297 4.87975 -2.27735 19
100 1 -5.29276 9.01324 6.65682 21
101 1 -9.19929 12.0964 -7.08906 12
102 1 -1.50691 -7.22595 -12.3327 20
103 1 12.3841 -3.39238 9.36789 13
104 1 -4.19448 7.00926 -6.92132 20
105 1 12.3851 -0.248102 -11.465 14
106 1 -9.3835 9.1772 -9.4548 11
107 1 -3.16064 14.4976 -0.229083 12
108 1 4.69647 3.98106 -11.5729 18
109 1 6.62006 -11.8194 6.39567 8
110 1 -5.45408 10.1164 -3.73484 16
111 1 3.38811 9.30317 -5.01013 19
112 1 10.8536 6.12095 -2.25676 16
113 1 -6.99593 9.40687 -7.25098 17
114 1 -7.87762 -3.33934 -14.4273 16
115 1 -1.10874 10.5738 10.7349 11
116 1 -14.3909 -1.01787 -4.58887 16
117 1 11.9835 -1.63267 -2.78259 19
118 1 -4.6191 7.65559 9.48992 17
119 1 -4.35643 12.0854 -8.64331 14
120 1 4.19713 -4.02283 7.78169 19
121 1 -13.8722 -10.632 3.86418 13
122 1 -3.35344 -10.1182 3.96816 19
123 1 -1.52869 -14.5197 -3.53973 17
124 1 -6.6584 5.38717 -10.85 19
125 1 0.849079 9.91599 -7.70388 19
126 1 11.482 8.10853 -7.40242 12
127 1 -2.4045 -11.3377 9.52474 13
128 1 -7.80676 1.56505 -1.89734 21
129 1 2.99538 13.9127 0.066714 13
130 1 1.50802 7.74421 12.1007 15
131 1 -6.75575 13.4297 0.759996 13
132 1 -8.8325 -6.43664 -6.74468 19
133 1 12.9125 -7.34717 -3.15471 15
134 1 -7.23099 -3.84255 4.45407 17
135 1 -12.8084 -2.8765 3.22975 14
136 1 -11.3179 -12.0649 2.85986 16
137 1 -12.2262 -0.958023 -1.95232 21
138 1 -2.37684 -15.3538 1.55145 16
139 1 -5.67893 -3.01745 -3.67456 22
140 1 3.91876 -8.41936 -4.13081 19
141 1 -4.81118 7.61812 4.41239 22
142 1 -7.79965 2.42798 3.57267 18
143 1 -4.74177 4.3516 -8.92153 21
144 1 -9.91995 6.65164 -12.5385 14
145 1 -13.0995 -10.8029 -7.93738 11
146 1 -10.5984 -0.943302 8.47068 15
147 1 -1.3616 -8.69835 5.9441 21
148 1 -1.17154 -13.6143 7.76706 12
149 1 15.3091 3.64181 3.69258 12
150 1 5.48311 -0.579241 -9.16317 19
151 1 5.13323 -1.65089 9.29542 21
152 1 0.273039 3.29547 -14.0167 17
153 1 8.31232 -1.14386 -10.3502 20
154 1 -11.7261 -4.93371 -7.20121 16
155 1 -7.38224 11.9244 -9.68906 11
156 1 -6.89171 14.26 -4.84544 12
157 1 6.71764 0.983936 9.98939 22
158 1 -3.45736 -9.96065 -12.5157 14
159 1 -7.82335 9.65567 -12.3304 9
160 1 0.630731 5.38315 -11.9708 17
161 1 -3.16596 -0.00944234 9.20715 20
162 1 -8.04275 10.3356 6.98701 9
163 1 -0.888871 -9.3982 -6.63367 21
164 1 -8.21283 -12.8457 -5.94006 15
165 1 6.95028 -12.4477 -4.38118 13
166 1 4.12472 -6.58019 -0.754304 21
167 1 7.16212 4.6388 -7.70464 18
168 1 -3.18541 7.95578 -4.25016 22
169 1 -12.7055 0.349843 3.69456 16
170 1 0.932454 6.65374 6.20489 24
171 1 11.0962 1.24645 -0.257698 18
172 1 2.73076 7.38001 3.56472 19
173 1 -11.2815 7.46545 4.03848 14
174 1 -10.1933 -8.79438 -6.66639 21
175 1 5.03826 7.08069 -13.4338 16
176 1 3.32941 -1.59865 6.77725 21
177 1 9.22749 8.27777 -10.5749 12
178 1 4.87531 -11.3046 -2.71578 20
179 1 -3.64084 -8.22178 -15.1812 14
180 1 7.30151 -0.999276 -6.34029 21
181 1 -13.1334 -10.2476 9.77959 7
182 1 -4.30149 -17.4487 -3.79257 9
183 1 -8.31987 -6.74477 -11.7865 19
184 1 5.67875 12.2432 -4.55675 12
185 1 2.37192 -4.57123 -18.7021 9
186 1 5.37423 0.562931 14.0829 7
187 1 16.1855 0.754656 1.33386 11
188 1 -5.54798 -6.93144 -1.32458 20
189 1 9.4765 -5.90202 -11.561 14
190 1 -4.14533 -6.11313 1.20942 20
191 1 -8.27866 -3.28606 -11.1925 15
192 1 -10.5809 -1.66042 -9.48475 19
193 1 10.9477 3.89792 9.91365 14
194 1 8.88681 -1.93786 8.47273 25
195 1 -1.61276 -11.2163 -9.04755 17
196 1 1.03602 -6.31666 4.48595 24
197 1 3.24506 5.89785 -16.9453 7
198 1 2.13248 6.28398 0.758597 23
199 1 -8.74456 -7.40223 2.81868 21
200 1 -1.20472 13.7483 3.13321 12
201 1 -7.13357 -1.92663 9.93307 20
202 1 -9.94193 -9.06109 -12.6788 13
203 1 -5.19858 -3.41133 -12.766 17
204 1 -8.78093 -8.97124 -4.06634 22
205 1 -1.84578 -8.65464 1.69279 22
206 1 13.2223 0.266672 5.24182 19
207 1 -4.07426 -5.78714 -3.45344 24
208 1 -10.4869 -7.75021 9.38413 16
209 1 -3.52057 -9.54679 -1.21697 22
210 1 0.854087 -10.9912 1.25279 22
211 1 -2.06547 15.4716 -3.10129 11
212 1 0.122934 0.741507 -14.9471 15
213 1 -6.07186 -5.55088 -16.716 17
214 1 1.59745 -12.4882 -1.69373 17
215 1 -5.05756 -10.8021 -9.17695 15
216 1 -9.25791 -0.373581 -15.4272 14
217 1 7.52777 2.0831 6.64261 24
218 1 -5.461 1.7947 -10.7813 21
219 1 -2.26693 6.06489 -14.0181 17
220 1 -3.79479 -4.14616 3.4711 19
221 1 -5.36135 13.8036 -1.95374 13
222 1 0.484082 8.81551 2.92963 23
223 1 11.6871 -1.95597 -0.0395309 16
224 1 -12.4761 -0.362705 6.45899 11
225 1 -5.55415 -10.0722 13.0953 9
226 1 -6.21259 9.01043 1.68542 19
227 1 2.45216 -7.62768 -16.7522 11
228 1 2.32065 -12.1604 4.09143 19
229 1 -1.76569 -3.22542 14.8169 11
230 1 -13.8916 -8.39168 6.53778 10
231 1 15.5086 -1.36279 -6.76536 9
232 1 6.00472 -4.16211 -6.21678 21
233 1 8.66056 -10.614 -6.80887 11
234 1 -7.39747 -6.17346 1.38199 19
235 1 -8.72294 12.7578 -2.20275 13
236 1 2.40635 -0.197042 9.33715 18
237 1 9.78347 6.70814 9.11742 18
238 1 -7.27116 -0.0769964 1.84584 17
239 1 10.5834 -8.5695 -5.25795 15
240 1 -2.98305 8.94779 1.32686 23
241 1 -4.33182 6.1625 0.955024 20
242 1 -0.904186 -11.9359 4.0742 19
243 1 10.1601 -5.19471 4.49871 16
244 1 -5.80381 4.39457 9.28948 23
245 1 -8.8573 -1.7541 -6.54932 16
246 1 -1.3196 -2.31282 11.5157 21
247 1 -0.0899678 13.8836 5.68923 9
248 1 -4.01992 4.62638 -11.7441 19
249 1 -10.0976 1.11433 10.9153 12
250 1 -15.896 1.56805 1.88561 10
251 1 -3.61621 -3.85695 -5.94713 20
252 1 -9.84644 8.26949 -3.42474 21
253 1 9.56496 1.35482 9.58572 24
254 1 -10.1932 -12.7626 -0.18733 19
255 1 5.36646 -9.70991 8.84397 11
256 1 -13.4541 9.089 -0.274642 9
257 1 3.17661 -5.31604 13.3225 13
258 1 0.988918 -15.5054 -5.94947 10
259 1 -8.5233 -4.62316 -8.43267 16
260 1 5.09437 1.48673 -14.3498 19
261 1 4.7799 13.0815 1.69421 12
262 1 -12.8552 2.21511 -6.08345 15
263 1 7.51138 -0.140282 -15.2851 13
264 1 -9.47517 -16.0026 0.109955 9
265 1 -14.865 -6.8457 -5.52311 10
266 1 -2.24519 -6.48431 -1.11436 22
267 1 9.36404 2.31374 -6.88981 18
268 1 -6.16962 1.54009 -14.4225 21
269 1 -10.464 1.02333 -7.45326 17
270 1 -6.43564 10.7039 4.12154 23
271 1 -8.44585 11.5647 1.20289 18
272 1 -7.25249 7.35714 8.40811 15
273 1 10.6166 -2.21314 -5.48929 17
274 1 10.39 1.62093 -9.61016 21
275 1 -4.53106 4.8797 -4.27544 20
276 1 0.878417 -8.69832 -3.64855 20
277 1 -1.15123 12.0623 0.473239 14
278 1 -6.43372 2.38862 -4.52373 18
279 1 8.71044 -9.05028 0.551772 15
280 1 14.6474 -1.30461 7.65543 14
281 1 -12.5634 -1.02769 -7.52854 16
282 1 -6.056 -9.13629 1.73933 18
283 1 -1.63117 10.9879 -5.18668 21
284 1 -12.6358 -7.28407 -8.1256 15
285 1 -8.17179 5.05064 -4.571 18
286 1 0.632847 11.2456 -10.833 14
287 1 6.12501 11.0168 5.31056 12
288 1 -13.612 -8.70014 -2.10124 13
289 1 -3.50744 -10.0148 -6.4412 16
290 1 -12.4729 -6.77409 4.13327 19
291 1 -11.2292 7.82996 -6.34437 13
292 1 3.35037 -8.89885 4.44595 20
293 1 -5.69092 -14.6785 1.89625 15
294 1 4.36686 9.80475 -13.2056 10
295 1 -9.05073 3.72641 -9.79658 19
296 1 -4.95311 -12.4899 -1.43405 17
297 1 15.3754 6.80668 5.40779 8
298 1 -1.864 0.620358 6.55012 24
299 1 -15.3847 -2.69235 -1.52282 12
300 1 -7.93711 7.42478 5.23384 18
301 1 -6.55269 -13.3807 4.97238 13
302 1 -0.514613 -3.89633 -6.20172 25
303 1 5.15379 -9.38217 -11.7379 14
304 1 -3.78411 -5.55131 9.97337 20
305 1 -8.76885 -0.736301 4.71754 16
306 1 -1.57608 -5.15117 6.93565 21
307 1 2.39917 -9.34202 -6.80406 18
308 1 0.467473 -8.09018 -14.7798 16
309 1 -5.95365 -4.28448 11.5219 19
310 1 2.86455 -9.09899 -0.815718 24
311 1 -6.88318 0.922168 -17.2424 14
312 1 8.68938 -14.4103 2.04612 6
313 1 -1.85931 12.0958 -8.6527 18
314 1 -4.77425 -7.30529 12.8828 14
315 1 -6.93038 -5.70122 8.74979 20
316 1 9.32135 -4.19064 10.1499 15
317 1 9.41486 3.22935 -1.75301 22
318 1 -6.14655 4.92253 3.6721 19
319 1 -0.38729 -2.69391 -11.2779 20
320 1 9.28815 -7.9381 5.71016 12
321 1 12.3637 0.262299 -6.03494 22
322 1 -5.3682 -0.0143843 14.7433 13
323 1 0.371609 8.61852 -4.29269 20
324 1 6.4622 -7.91652 6.08091 19
325 1 -6.16195 -14.818 -4.82975 12
326 1 -2.06083 12.8392 6.80732 13
327 1 -11.5874 -11.2989 -10.8132 10
328 1 3.49651 4.54877 10.9781 18
329 1 -7.57539 1.4863 9.07317 17
330 1 -5.32323 -6.13781 -5.95381 18
331 1 -12.4302 2.84874 7.21793 8
332 1 -10.2843 -6.98116 -10.0856 21
333 1 -5.38445 12.46 6.52718 15
334 1 -6.06945 -13.5291 -8.00747 12
335 1 -3.69067 -5.5435 -14.4193 18
336 1 -7.09038 -9.93569 -1.21022 21
337 1 -8.08859 -2.42439 6.93945 21
338 1 12.1216 0.57129 8.70456 19
339 1 -7.84936 -7.60645 11.1758 15
340 1 -10.7048 3.57606 -12.7589 14
341 1 10.3328 4.92214 1.20705 19
342 1 -10.3506 -13.6312 -2.8787 10
343 1 0.87196 2.66881 -9.42574 19
344 1 0.65378 13.9613 -1.89531 13
345 1 -4.50665 8.10777 -11.9 16
346 1 2.86216 9.5244 5.93839 20
347 1 -12.1565 -3.25549 -4.3844 20
348 1 7.00753 10.2543 -8.78023 16
349 1 -4.41256 -6.66037 -11.8973 20
350 1 0.014137 -13.9772 -8.93377 8
351 1 1.80243 -7.50148 -12.1611 19
352 1 -12.1881 9.30472 1.79008 14
353 1 0.836421 2.79222 11.7003 19
354 1 8.63982 6.57785 -0.735598 16
355 1 -1.23115 7.28171 -1.82845 21
356 1 -5.1681 4.51445 -14.5058 19
357 1 2.55927 -0.749379 -10.4378 22
358 1 -1.87665 -6.91218 4.04045 23
359 1 -14.3423 -7.10279 0.89359 18
360 1 -1.55809 -1.159 -17.1684 16
361 1 14.395 5.09377 -1.78187 14
362 1 6.23296 -8.86567 -1.9776 20
363 1 14.0824 -0.0324995 -1.01938 16
364 1 3.42216 -3.47278 -14.228 18
365 1 -0.63158 -9.51953 -0.952021 21
366 1 -2.96464 -16.0425 4.10421 8
367 1 3.74146 -7.30186 7.05374 21
368 1 -12.2397 4.0891 -10.806 9
369 1 -0.2693 -9.98877 -11.7438 17
370 1 2.64053 2.18295 -16.7485 9
371 1 0.85231 -3.27004 12.6598 18
372 1 -12.2083 -7.23251 -0.78234 20
373 1 13.3486 -1.86911 -8.63885 15
374 1 9.3987 0.457712 -4.65088 20
375 1 -6.13584 10.665 -0.763284 21
376 1 0.793711 -6.59503 -6.4944 23
377 1 6.6802 0.786699 -12.3132 21
378 1 11.2659 -4.31829 -8.04859 17
379 1 -4.51201 -1.0847 12.0266 16
380 1 8.5518 9.85925 -0.276831 11
381 1 -3.52323 -6.23677 -18.0488 12
382 1 -5.04579 -3.76459 7.14387 22
383 1 -4.52363 16.5691 -5.18257 8
384 1 -8.81552 -3.40105 -17.1586 10
385 1 -10.8551 1.67854 -1.59234 19
386 1 -6.00573 -12.0546 10.3485 9
387 1 -1.05546 7.48409 -6.64264 24
388 1 12.8226 1.60509 -2.78694 20
389 1 -13.2757 -11.7213 -1.8056 13
390 1 -1.99346 -12.1009 -0.641315 21
391 1 -7.79524 13.5288 4.01088 11
392 1 0.782836 -3.48669 -8.89778 22
393 1 1.64949 5.90229 -4.42396 23
394 1 15.2104 -2.32131 -3.59735 10
395 1 4.07434 10.4826 -7.70885 18
396 1 1.50598 -8.12547 1.789 23
397 1 -6.65768 2.96278 6.44483 19
398 1 4.66096 8.24555 11.0579 15
399 1 -4.67591 3.01765 -19.1614 6
400 1 -7.07436 -7.35288 -8.65615 17
401 1 1.71993 -2.81873 9.86198 19
402 1 8.33691 9.65756 7.84809 14
403 1 2.52609 7.61082 -7.03772 23
404 1 -10.8211 10.6734 -4.47088 10
405 1 -4.26398 11.0952 -6.15274 19
406 1 11.8937 -2.68625 6.06183 17
407 1 11.7664 2.28762 -12.0021 13
408 1 -14.4152 -11.227 1.07458 11
409 1 -1.57157 2.97386 9.57203 21
410 1 -2.69247 10.6788 -11.5453 11
411 1 6.78245 -12.455 -0.431143 16
412 1 7.60738 -5.46596 -14.1556 12
413 1 -3.29213 13.8622 -5.57776 17
414 1 -8.33596 -6.45705 -14.8431 14
415 1 2.32356 -15.1291 2.87494 14
416 1 -10.9744 -9.4341 -1.96843 20
417 1 -3.85065 1.75876 -7.10211 23
418 1 -10.8062 -10.1674 7.46132 16
419 1 2.45677 8.06066 -2.03371 23
420 1 3.9943 -13.5714 -5.32325 12
421 1 5.4018 -7.20856 11.0972 12
422 1 6.29531 0.191428 -4.08019 20
423 1 -9.32994 5.5977 2.57169 20
424 1 9.00765 -3.44653 -0.943623 19
425 1 0.69741 8.61538 8.79748 19
426 1 -3.205 -0.694723 -12.01 23
427 1 0.175811 10.2396 5.32699 20
428 1 7.56673 2.63502 -9.47402 20
429 1 -0.550667 -5.42286 -16.6672 18
430 1 -5.96377 -8.46802 -10.7873 16
431 1 -10.9999 -5.04028 -13.2533 14
432 1 15.5967 3.96504 0.976357 13
433 1 15.9333 0.594062 -4.27441 14
434 1 6.33482 -3.25509 -15.1089 15
435 1 7.99815 -7.22826 -6.39999 19
436 1 5.19361 6.16839 3.04147 19
437 1 -8.80181 3.40255 0.927265 22
438 1 12.9223 5.74974 -4.6404 14
439 1 13.4817 -5.65454 1.65942 12
440 1 6.43892 4.78434 -14.302 11
441 1 11.501 1.67223 11.8999 13
442 1 -0.747076 -4.92136 10.0077 20
443 1 3.25577 -2.21666 14.5923 9
444 1 13.172 1.29166 -8.73039 16
445 1 7.76163 3.99366 9.79376 21
446 1 -8.04944 0.551964 -9.41694 20
447 1 14.0188 5.91084 2.09428 13
448 1 11.086 -6.09715 -0.378591 21
449 1 1.03581 -6.743 -1.10205 21
450 1 13.8032 -1.04963 11.0778 10
451 1 3.53372 6.8185 8.57899 21
452 1 5.63429 3.09217 4.23734 20
453 1 -3.24395 12.4147 -3.12774 20
454 1 4.48491 8.44079 -9.8289 20
455 1 9.53794 0.580802 -12.4737 17
456 1 2.74563 11.4113 -1.96401 21
457 1 -3.79348 -15.5736 -6.5931 12
458 1 -14.2549 2.77732 4.8981 9
459 1 -2.23598 4.55793 -16.2195 13
460 1 -9.7309 -12.3991 5.5956 11
461 1 -6.49253 -0.570028 -11.7138 18
462 1 -13.19 2.18459 -2.97898 17
463 1 7.82294 -6.91273 3.18359 19
464 1 12.7727 6.99009 7.35214 12
465 1 0.146839 -9.61264 3.74441 19
466 1 -10.9178 -1.78522 -12.9491 15
467 1 6.4779 -1.09449 6.78286 21
468 1 -0.416853 2.32867 14.9251 11
469 1 7.15558 10.0462 -12.1769 12
470 1 4.23564 2.21047 -9.25259 20
471 1 -1.28857 -17.2762 -4.32529 10
472 1 15.8939 -1.0795 4.58318 10
473 1 7.8909 7.23549 2.4361 20
474 1 14.5675 -7.25842 -0.935256 10
475 1 -4.91933 2.49862 11.2357 17
476 1 -9.42695 -10.3571 1.56133 21
477 1 -13.2406 -2.87482 -11.1793 10
478 1 10.5804 -1.43576 11.0393 16
479 1 -2.25499 -8.853 12.9944 12
480 1 5.93608 6.42571 13.5099 10
481 1 -6.73688 7.70987 -4.47415 18
482 1 12.0379 2.54303 2.44152 20
483 1 8.8815 4.16813 4.13661 20
484 1 -1.94091 -3.08985 -14.3787 21
485 1 -11.3042 -2.77885 6.11762 15
486 1 4.66653 -3.72103 -9.19205 20
487 1 -2.29999 -6.53652 -7.20739 20
488 1 9.89171 -7.42996 -8.54741 15
489 1 5.47721 3.8187 8.81538 22
490 1 3.27747 4.92749 5.81796 20
491 1 11.2547 9.43021 7.08295 11
492 1 0.782933 -7.75366 14.4725 9
493 1 -3.86059 2.9045 15.0296 10
494 1 2.8748 -6.53877 -9.17064 20
495 1 -7.85338 -2.10218 13.0275 12
496 1 8.51329 1.90696 12.5348 14
497 1 15.8956 3.56602 -4.65575 11
498 1 2.93684 -10.2225 -10.1755 15
499 1 -6.1416 -0.227069 -6.43234 19
500 1 5.29278 7.01824 0.160526 19
501 1 6.39017 10.6235 1.91999 15
502 1 -2.88365 -2.39443 6.30261 22
503 1 2.78793 12.784 -5.16271 15
504 1 11.2376 7.78525 3.97918 12
505 1 -5.45662 -8.94695 -3.85672 21
506 1 -4.01057 -0.650689 -14.5948 19
507 1 -9.90116 10.3728 -1.11795 16
508 1 5.48672 -8.83397 -15.1194 11
509 1 7.07022 4.11726 1.02263 21
510 1 9.53804 4.30807 -11.7528 14
511 1 9.62281 5.56893 -9.28277 19
512 1 -2.37636 4.9007 4.55908 20
513 1 -6.2457 4.28846 -2.00878 22
514 1 4.80238 6.37897 -4.94743 19
515 1 -1.84639 -7.91871 9.0217 17
516 1 -0.146307 6.17941 -15.3568 13
517 1 4.92127 10.2156 8.3702 15
518 1 1.02034 0.594191 6.85023 21
519 1 7.78322 11.1863 -2.88041 11
520 1 8.80505 10.3828 4.41517 12
521 1 14.8841 -5.10319 -7.47761 8
522 1 -14.6913 -4.66661 2.99253 10
523 1 -0.0046438 -13.8777 1.19753 21
524 1 -2.70708 -4.29819 -10.8419 19
525 1 -2.7998 6.17258 7.49565 23
526 1 2.83354 -3.84836 -6.50825 20
527 1 3.56168 9.09629 0.621948 20
528 1 -13.502 -4.18186 -0.0291324 19
529 1 4.48468 -14.2846 -2.51567 13
530 1 10.2613 6.14389 -5.64693 17
531 1 2.6232 -5.39747 1.79327 20
532 1 -0.211971 10.8541 -2.10504 21
533 1 4.27343 -0.661732 -15.8715 12
534 1 0.386151 -10.6031 12.6805 7
535 1 4.04557 14.9187 -2.84798 9
536 1 -2.6172 -0.00191072 15.0761 12
537 1 -6.59732 -8.37083 -14.1894 15
538 1 4.6531 -1.53686 -6.48743 20
539 1 -2.20236 8.86149 7.04644 20
540 1 6.39692 -9.46031 -9.11494 16
541 1 1.65726 -4.71422 7.05309 20
542 1 1.22734 -14.7865 -3.40345 13
543 1 -10.471 -4.40576 8.21708 16
544 1 -1.06223 -0.203198 -9.53415 23
545 1 -7.46156 -13.744 -0.683349 18
546 1 -10.5785 -1.69115 11.8382 10
547 1 12.9705 4.49381 -9.93971 12
548 1 -5.12577 -0.444402 7.37445 17
549 1 -14.0904 6.38351 2.22471 10
550 1 10.4233 -3.8965 2.10261 20
551 1 -3.56239 9.48398 -8.55695 16
552 1 10.4166 -0.86765 -8.2478 23
553 1 7.44171 3.01831 -4.3836 18
554 1 -7.05015 2.60647 -7.41608 20
555 1 -12.6784 -8.73773 -10.9873 11
556 1 0.378325 7.70037 -9.79718 20
557 1 -2.43047 -5.03946 12.6888 16
558 1 -6.5702 -11.9675 1.15627 17
559 1 -2.82569 -8.50841 -9.74968 21
560 1 -9.22486 4.76029 -1.77056 21
561 1 3.89165 9.86197 3.25981 21
562 1 -11.0845 -5.74482 1.40275 21
563 1 6.81217 6.23472 -11.2394 18
564 1 -2.53546 -17.588 -1.19772 9
565 1 2.5437 1.58457 -6.83108 24
566 1 -1.06516 -4.00614 -19.1157 10
567 1 -0.402033 0.0213827 10.1642 19
568 1 -3.63271 1.84863 -16.8149 15
569 1 -10.8352 -4.30894 -1.83471 19
570 1 8.29588 0.129581 -1.24416 21
571 1 -7.4135 -4.17365 -1.04262 21
572 1 13.7344 2.50314 -6.31601 16
573 1 7.70829 -2.61028 -3.86225 20
574 1 -7.92638 2.93061 11.5976 14
575 1 5.62947 -8.1378 1.27982 21
576 1 15.8774 -5.56355 -3.99168 9
577 1 10.0518 -5.68489 7.76793 12
578 1 0.779254 11.3304 8.24893 14
579 1 -8.5568 0.813779 14.1455 9
580 1 -4.77203 -12.3713 7.4497 13
581 1 9.18946 1.65418 1.54738 21
582 1 6.03147 3.47331 12.0687 16
583 1 -14.9268 -5.92931 -2.47727 13
584 1 9.20407 -6.94936 -2.88102 19
585 1 0.207639 8.87473 -0.242351 22
586 1 7.24021 -1.26286 11.0021 17
587 1 -2.77407 10.994 4.3753 20
588 1 0.0517997 -10.9351 7.49017 19
589 1 -9.04744 -3.8283 -4.95002 19
590 1 4.02848 1.57545 10.9779 20
591 1 6.56544 12.6914 -0.492788 11
592 1 -8.9004 -13.8824 2.35903 16
593 1 4.32082 -6.0184 3.95323 21
594 1 8.82603 -2.69092 4.68599 20
595 1 6.49152 6.93472 8.2638 22
596 1 -2.29278 4.40012 -6.81744 22
597 1 0.655328 -8.80156 -9.16013 18
598 1 -3.04078 2.4185 -13.419 21
599 1 -2.27736 1.48778 12.0974 21
600 1 1.86544 13.0619 3.33081 14
601 1 12.22 4.31473 -0.367546 16
602 1 -1.23754 4.73588 -9.3356 21
603 1 -2.89721 5.0855 11.2704 15
604 1 7.94257 7.86183 11.055 12
605 1 6.61591 -3.76398 -11.5896 17
606 1 -3.39396 -11.6771 -4.09355 16
607 1 -4.4848 -0.545681 -9.01445 20
608 1 16.0747 1.76191 6.48612 10
609 1 3.28069 -3.8278 -11.5898 18
610 1 -2.11229 -8.41245 -4.10641 20
611 1 14.0749 -4.03369 -1.22305 16
612 1 2.82413 -9.04712 10.1001 16
613 1 -3.30207 -13.87 -9.18455 11
614 1 8.72447 8.77402 -3.65387 14
615 1 -7.09127 -6.18218 5.84072 20
616 1 -12.3783 3.396 1.36157 22
617 1 6.06564 7.27487 -7.85653 17
618 1 4.83932 -6.01136 -16.614 12
619 1 -4.35541 12.0082 1.32758 19
620 1 3.09374 4.03547 -14.2809 18
621 1 7.64662 -6.0083 -0.266826 17
622 1 -10.1316 2.47612 -4.69749 21
623 1 8.74938 7.21559 5.15856 17
624 1 -13.5344 -13.6241 1.68059 8
625 1 2.05127 3.11612 8.70185 22
626 1 -15.936 -3.57443 -4.55456 11
627 1 -11.8606 4.91393 4.42922 14
628 1 -7.16668 6.01409 -7.94134 17
629 1 7.85124 -7.77429 -11.8254 11
630 1 -12.6364 -9.24054 -4.94399 15
631 1 11.0455 -9.11119 -1.5311 13
632 1 -15.4609 4.46807 -0.101175 10
633 1 -14.1381 -3.60329 -7.48396 12
634 1 -7.71985 -8.49556 8.16832 20
635 1 13.214 -3.51045 4.00985 15
636 1 10.9651 -0.928657 2.86246 22
637 1 -13.1467 5.71024 -1.33281 16
638 1 -1.69365 7.36754 10.8176 15
639 1 2.35989 5.28813 -9.39841 21
640 1 -4.43272 13.9021 4.46836 12
641 1 8.78801 7.92349 -7.07609 17
642 1 -0.627147 5.28513 13.5761 11
643 1 7.89791 -7.0088 8.89012 16
644 1 4.27175 11.7221 -10.6998 10
645 1 -3.66057 -2.71375 9.42635 21
646 1 0.637141 -4.87194 -13.3615 20
647 1 -14.3194 -1.72585 0.769718 15
648 1 -7.80381 -11.5926 7.75413 15
649 1 9.611 0.0690744 6.96793 18
650 1 -1.49801 -13.3378 -6.14679 17
651 1 -14.1268 1.62542 -0.337647 18
652 1 10.5967 -2.8901 -10.5284 15
653 1 -8.81709 8.21494 2.42287 22
654 1 -9.36622 1.16294 6.51552 16
655 1 -8.71406 -9.86903 -9.51715 18
656 1 0.028625 -11.4821 -3.60417 20
657 1 5.62773 -14.9656 1.22147 11
658 1 2.02818 8.32638 -11.8419 15
659 1 12.3772 5.06543 -7.35673 14
660 1 7.68616 4.86975 6.89808 19
661 1 10.8193 -4.42561 -3.16363 19
662 1 -3.45652 -3.39107 -16.9598 20
663 1 1.06373 -7.57654 8.06089 20
664 1 6.16205 9.70756 -5.67682 18
665 1 5.04448 -1.6224 -12.2742 26
666 1 -11.6454 5.13126 -4.35277 21
667 1 3.976 4.7237 -6.81496 20
668 1 -10.3034 -6.60979 6.40383 17
669 1 5.51393 7.60795 5.58144 19
670 1 -0.308843 -16.9985 1.61827 10
671 1 4.96344 8.45064 -2.92899 21
672 1 -6.59153 6.41875 11.4629 10
673 1 -9.27031 -4.25174 10.5433 14
674 1 10.9981 3.12527 -4.81676 17
675 1 -5.31992 -8.92857 9.82108 17
676 1 1.98733 -14.147 6.28321 11
677 1 -5.56326 -1.12273 4.39687 20
678 1 9.45384 5.05501 12.26 14
679 1 6.62168 -5.96654 -9.72793 18
680 1 -4.16897 -0.461514 -18.6847 13
681 1 -8.46921 4.71295 -14.8933 13
682 1 -12.4964 0.359862 -10.8593 11
683 1 12.4792 5.14119 4.61647 18
684 1 -1.54156 7.77797 4.21871 21
685 1 -10.545 -11.4281 -5.40839 18
686 1 -4.69124 7.49881 -1.40339 23
687 1 15.1146 1.44419 9.44888 10
688 1 -4.64328 -7.42321 4.14947 19
689 1 8.74734 -3.94807 -8.29941 23
690 1 3.02669 -13.7877 0.13967 16
691 1 0.90025 -2.51225 -16.4834 16
692 1 -7.43727 2.88809 -12.3442 19
693 1 -8.8057 -7.53185 -0.893939 22
694 1 -10.578 4.61661 -7.27448 19
695 1 -9.08572 3.94693 8.4326 14
696 1 7.52388 -4.34238 6.68984 20
697 1 -11.043 -9.25986 4.37089 19
698 1 14.8881 -2.35173 1.48008 13
699 1 -0.148193 1.08305 -12.0428 22
700 1 15.6612 2.56918 -1.64303 13
701 2 -10.6015 -0.780933 -6.85627 20
702 2 -7.40793 13.058 -6.4699 16
703 2 3.57617 -8.28379 -12.4547 19
704 2 -4.66577 5.84461 11.0034 17
705 2 -8.61412 -5.75003 -10.1734 19
706 2 6.24694 -2.93255 10.6712 17
707 2 -14.1751 -12.7293 -0.298985 8
708 2 -13.5719 6.31103 -3.89179 11
709 2 0.635555 10.3004 9.98247 15
710 2 -12.4095 -1.4229 2.19808 14
711 2 9.30547 1.94625 7.62786 23
712 2 -2.36742 -2.84684 -6.82555 19
713 2 -12.6285 -10.1748 -9.63899 13
714 2 -11.0041 1.59947 -3.45562 20
715 2 -1.99361 -7.13721 6.16468 22
716 2 2.60192 1.53642 7.92013 21
717 2 7.16133 0.56506 -10.3087 20
718 2 0.893076 -15.6823 1.70471 12
719 2 5.85015 1.37294 3.5236 22
720 2 -2.08417 13.8543 1.41766 11
721 2 -12.1066 -1.41188 -11.4863 13
722 2 11.718 0.612633 6.7834 19
723 2 9.48709 -8.7878 -6.82509 13
724 2 -11.3989 -13.1838 1.37603 16
725 2 -9.31897 -10.8074 8.80556 15
726 2 -5.10199 -12.8445 5.72213 14
727 2 8.80968 -4.22392 3.13086 20
728 2 0.187743 -14.2126 -6.86905 12
729 2 4.05995 -3.70743 13.6856 10
730 2 -1.33224 6.5577 -10.5313 19
731 2 -8.53601 -9.09594 -2.0939 20
732 2 0.0250118 3.46081 13.3998 13
733 2 -11.5822 9.71737 0.0207799 14
734 2 -4.13016 0.988027 16.0322 8
735 2 -7.02968 13.1107 -3.41115 15
736 2 8.35017 -13.3733 0.298835 9
737 2 -4.25041 5.72497 4.7645 21
738 2 2.40589 11.0293 -7.57424 16
739 2 4.45341 -6.59068 -3.992 20
740 2 -2.88033 -0.82144 -10.1369 22
741 2 0.982884 -7.10718 -10.0852 21
742 2 8.40127 -1.76243 -2.03194 21
743 2 -5.32 3.6452 14.5899 8
744 2 3.02163 8.17653 -13.6064 13
745 2 -4.84998 6.26015 -10.6067 19
746 2 12.2358 6.7988 -6.13817 12
747 2 -7.4751 -4.81453 10.4916 17
748 2 -13.7492 7.96976 1.24935 12
749 2 9.25065 -2.53798 -9.05301 18
750 2 -0.926124 -9.70458 -9.96561 19
751 2 -13.6034 -10.0041 -0.287535 16
752 2 9.55054 1.41274 -1.06675 17
753 2 -6.33078 11.105 1.17517 19
754 2 -4.70786 -12.7281 -9.2923 10
755 2 -1.64047 12.8125 4.81526 15
756 2 1.39257 -10.4002 10.8832 13
757 2 11.4118 -3.7806 4.22707 16
758 2 -12.9925 0.825544 -1.78362 16
759 2 9.76355 -8.98968 -3.44551 18
760 2 8.10706 -11.041 -4.95577 13
761 2 9.36928 5.47674 6.11676 21
762 2 6.9519 -13.7784 2.65017 9
763 2 5.90158 -4.88255 3.83322 21
764 2 -9.15126 -2.91368 11.8734 12
765 2 16.3462 -1.12138 -4.61857 8
766 2 4.89559 8.27384 8.69913 18
767 2 12.0444 4.73289 8.34017 14
768 2 -7.98494 2.38701 13.8388 10
769 2 4.65723 11.1259 2.09906 18
770 2 14.5248 -6.44117 -2.94984 11
771 2 -0.940951 5.58974 -7.69061 22
772 2 -9.48604 -6.08339 -12.9508 15
773 2 -10.7503 -0.498185 10.1924 12
774 2 5.91767 -0.135755 -7.15725 19
775 2 -8.80481 2.03051 -8.02508 17
776 2 -12.7364 -4.88063 3.61948 17
777 2 -9.46021 -12.7642 -4.26541 15
778 2 13.6646 -1.96982 0.173637 17
779 2 -2.17295 -5.62714 8.49354 19
780 2 -1.22667 -1.30442 15.5374 12
781 2 4.25513 1.16511 -16.0357 12
782 2 7.25993 0.431906 11.9339 16
783 2 -1.39171 7.07644 6.23646 23
784 2 -7.08634 -0.841735 3.54586 18
785 2 4.31186 -8.4444 -6.3804 21
786 2 11.3964 -2.36823 -7.55607 19
787 2 -8.3374 10.6787 4.85861 16
788 2 -2.36184 -10.1325 0.569315 18
789 2 8.05039 -7.03773 -8.90316 15
790 2 5.95934 2.00408 -4.85401 22
791 2 4.09921 3.14043 5.3008 20
792 2 8.26935 -6.3122 -4.57843 19
793 2 2.52805 -5.19856 3.80675 22
794 2 -8.42278 -12.5355 0.858754 20
795 2 9.12146 2.36476 -5.06285 19
796 2 -10.3085 -10.5441 5.6013 17
797 2 6.12357 7.0924 -9.59527 19
798 2 -1.68358 -8.94894 3.60466 23
799 2 15.2076 -3.14755 -7.30145 10
800 2 -3.20806 -17.0231 -5.26051 11
801 2 13.9071 -5.73484 -0.0986701 14
802 2 -4.10306 12.5373 3.19967 16
803 2 11.3745 1.06399 -7.91827 22
804 2 -5.08423 -7.20201 -9.652 20
805 2 -13.5712 -7.67243 -4.14182 14
806 2 -2.12087 -6.69089 0.840735 22
807 2 -3.99566 -5.91635 -1.28774 21
808 2 -5.89482 8.75178 -2.36374 18
809 2 -11.3304 9.29596 3.60486 11
810 2 1.08523 -1.91949 -9.94748 20
811 2 8.34644 6.11055 -7.72197 19
812 2 0.724911 8.13863 -8.01491 19
813 2 -9.58329 0.460576 12.7559 10
814 2 -1.87664 -2.79572 -17.9611 18
815 2 -11.183 5.24315 -1.35391 18
816 2 -3.13178 -1.37572 7.86361 18
817 2 -10.5539 4.12639 3.37686 14
818 2 -6.57625 3.98864 -8.49001 17
819 2 7.3266 11.2381 0.430811 11
820 2 14.2798 4.51796 -5.26402 15
821 2 11.0635 -6.32086 -2.59338 19
822 2 -11.3971 -2.75991 7.94811 14
823 2 11.0086 2.9778 0.673411 16
824 2 0.351742 10.6965 0.128548 20
825 2 -8.42801 6.08716 -13.5684 16
826 2 -10.1386 6.89148 1.4528 22
827 2 9.21823 -5.01444 6.18297 19
828 2 -8.68309 -8.30059 -13.8199 9
829 2 4.45519 6.18629 -15.1995 11
830 2 13.1864 6.00889 -2.69598 10
831 2 -11.8477 -11.1431 10.6583 7
832 2 0.0314538 8.7087 -2.47031 24
833 2 -3.58778 9.77639 -4.72552 22
834 2 4.56484 11.1026 -5.76528 16
835 2 13.1994 0.662732 11.6516 9
836 2 0.445174 7.47197 10.3368 16
837 2 14.9626 -5.76523 -5.65898 9
838 2 0.500986 0.808137 14.571 11
839 2 3.10517 -5.55098 8.05337 17
840 2 -13.3527 -2.1633 -0.959958 18
841 2 -2.5399 -14.4454 -7.5693 13
842 2 2.45783 -9.67241 -8.63808 17
843 2 6.30751 -5.09367 -15.8604 13
844 2 16.469 2.55165 1.88854 9
845 2 -3.89152 -0.699704 13.7574 15
846 2 4.92837 0.0134558 -13.0042 22
847 2 -5.90396 -10.3376 10.9257 14
848 2 -1.8807 -5.53577 -18.4057 10
849 2 0.100406 -13.3762 -3.11887 15
850 2 -0.623738 -5.67096 -7.39351 21
851 2 3.72318 -15.1767 1.5665 12
852 2 13.3563 3.487 -8.15874 15
853 2 -3.05655 6.2604 -15.7929 11
854 2 -6.24472 8.73977 3.62829 20
855 2 -7.76802 -6.02621 -1.9923 23
856 2 -10.0387 -0.207683 -13.6596 16
857 2 3.34124 10.1127 -11.327 15
858 2 -2.3988 11.3417 -7.00778 16
859 2 -3.35421 -9.56228 5.79322 19
860 2 15.3253 -0.0448998 6.24909 12
861 2 -2.21576 2.18345 14.1365 17
862 2 -9.27382 -14.0874 -1.19406 13
863 2 5.82887 -9.88693 -3.7606 19
864 2 1.64257 -1.6716 13.8715 15
865 2 2.07574 10.6709 7.09265 14
866 2 11.8776 3.87939 -11.2333 12
867 2 1.72601 4.17737 10.7945 20
868 2 10.027 8.06039 -8.64951 13
869 2 -8.22339 -6.85217 7.21062 18