ITEM: TIMESTEP
24000
ITEM: NUMBER OF ATOMS
2000
ITEM: BOX BOUNDS pp pp pp
-30.0 30.0
-30.0 30.0
-30.0 30.0
ITEM: ATOMS id type x y z Coordination
1 1 -6.69663 6.97352 -13.579 10
2 1 -6.5311 -13.1703 -2.04646 21
3 1 6.41809 16.0307 13.6695 13
4 1 13.4565 -5.5461 9.88152 6
5 1 -7.52631 9.73944 -1.87948 21
6 1 11.2761 -6.64012 -7.33818 11
7 1 -9.86434 10.0691 -4.70288 16
8 1 -0.735725 -3.48453 11.2951 24
9 1 -1.39393 9.96128 -12.0887 20
10 1 -13.277 -9.19546 7.48702 12
11 1 12.3752 7.47167 -10.4666 12
12 1 -6.06038 -15.4925 0.460043 11
13 1 -13.57 -7.80614 4.49345 13
14 1 1.75534 3.93009 18.4575 23
15 1 -3.07081 17.4402 -8.76734 16
16 1 5.03241 2.14831 14.8469 18
17 1 -5.88894 -1.21247 -10.2442 21
18 1 -13.3429 -0.903404 12.793 12
19 1 12.668 0.84885 11.3693 13
20 1 1.78232 14.7007 -8.09138 22
21 1 8.90337 5.6212 -13.3621 16
22 1 13.1054 6.96115 9.50623 16
23 1 -12.1472 7.93477 -3.26742 15
24 1 -11.2298 10.7387 6.71573 16
25 1 8.5143 -7.34932 8.4687 11
26 1 2.28399 -11.1589 -10.0319 13
27 1 12.6684 -5.98464 6.10833 7
28 1 -13.2409 -9.90302 -5.22194 7
29 1 -14.0069 -6.04042 7.0379 14
30 1 2.07185 -10.9865 -13.0937 12
31 1 4.40535 -9.25404 -12.4039 18
32 1 1.38709 10.3553 -13.3056 21
33 1 -1.84936 3.45177 18.5118 15
34 1 -2.98018 -7.62601 8.59424 19
35 1 4.82313 -0.524623 13.2819 17
36 1 -10.6626 1.71425 1.3982 19
37 1 -8.51231 0.993547 13.1212 21
38 1 -2.62625 15.035 0.770426 18
39 1 -3.41554 -10.9727 -6.36527 19
40 1 5.59964 -1.38918 -10.3185 18
41 1 -0.0657738 -3.86496 14.8161 11
42 1 -15.5585 4.08572 6.27261 9
43 1 6.25356 17.6737 -9.9237 13
44 1 2.456 15.8425 8.45063 17
45 1 -7.72506 12.1533 -3.83803 21
46 1 -0.465595 16.503 -0.652945 19
47 1 2.73264 -10.5685 3.18996 22
48 1 10.3491 -9.69684 -6.30838 12
49 1 8.60861 -7.40398 -15.9971 8
50 1 -7.50877 12.5279 13.9062 9
51 1 -11.0348 -3.29776 -9.79307 12
52 1 -5.18128 10.344 -4.05318 21
53 1 -8.65729 -5.0694 6.42934 21
54 1 -4.56497 19.3282 7.84764 10
55 1 -12.8607 9.65312 -0.88538 14
56 1 -9.07171 12.7006 8.76574 14
57 1 -5.2633 -9.87285 8.50843 18
58 1 8.15786 -13.5164 -1.65216 11
59 1 6.99663 18.1718 11.5662 11
60 1 -14.2182 -2.44916 -8.79456 12
61 1 -8.22064 7.16605 -10.5597 15
62 1 4.94761 10.7987 13.1833 23
63 1 12.5692 -0.143603 -9.49478 11
64 1 7.631 -7.70761 5.04108 18
65 1 -14.0523 -1.28539 4.40069 12
66 1 6.30981 20.4164 6.21775 11
67 1 10.3079 3.16996 18.9926 7
68 1 -5.64595 -6.65257 6.66764 22
69 1 13.9351 4.04878 11.498 11
70 1 0.239933 13.3108 11.1215 19
71 1 -5.00712 -4.30661 -5.34351 21
72 1 -9.36528 8.62321 7.30084 18
73 1 -4.92469 18.3128 -2.13813 16
74 1 -0.256846 13.2245 -8.93982 20
75 1 9.19217 20.0332 -1.77521 9
76 1 8.07793 -4.76359 10.3194 15
77 1 -2.13444 19.9026 -7.30666 10
78 1 -13.1043 12.8371 5.27902 7
79 1 -4.16673 -1.39608 17.2792 12
80 1 -2.57948 12.5968 5.97629 22
81 1 -3.23743 -1.62228 11.3081 22
82 1 10.7627 -7.59399 -3.6464 15
83 1 -9.96124 5.51373 5.94131 20
84 1 -11.2733 -11.4695 5.27839 14
85 1 10.7415 -4.31966 -4.92115 16
86 1 6.35691 1.41937 -15.2956 12
87 1 -5.88505 3.84392 -15.6319 9
88 1 0.184074 16.0106 2.72578 20
89 1 -4.5666 15.3172 -11.3683 11
90 1 4.61024 10.8317 16.5122 17
91 1 -0.685355 16.2697 -4.00846 20
92 1 -12.9351 14.9865 -0.222449 12
93 1 -5.85731 -3.77885 11.3887 21
94 1 12.9041 -1.50909 8.32515 16
95 1 5.71354 -4.56646 -8.36928 19
96 1 7.94846 3.51718 17.2486 18
97 1 -8.04417 -4.88712 -0.269764 19
98 1 -7.6769 -8.01709 -1.16996 20
99 1 10.314 -6.70033 3.56087 13
100 1 8.61247 3.42806 -11.8717 20
101 1 0.68972 19.1343 -2.211 20
102 1 -1.88062 -11.0476 9.72258 17
103 1 -10.4898 -11.0381 10.5316 8
104 1 3.71585 -8.13961 -14.8614 17
105 1 14.4489 -0.710782 -4.31788 11
106 1 -3.50071 -9.58868 6.67322 16
107 1 -8.21385 -7.84222 1.82626 21
108 1 13.6529 6.93844 6.19851 16
109 1 14.3177 4.67597 -11.5212 11
110 1 -13.6878 -1.61422 -1.46963 18
111 1 10.0485 10.6861 6.54038 19
112 1 13.9383 12.9273 9.9956 11
113 1 -6.07016 4.85566 12.5996 21
114 1 -5.87666 10.4563 13.2827 17
115 1 -3.01811 15.1781 -5.70917 19
116 1 -0.171852 -1.13105 -10.2748 22
117 1 6.5943 -6.8302 -13.8477 23
118 1 1.58714 17.1802 -11.6177 11
119 1 7.44556 1.02553 13.38 18
120 1 -2.31245 4.58161 -16.1756 8
121 1 -2.60943 12.0437 -7.30731 19
122 1 10.6926 2.02076 -4.89969 20
123 1 -9.33863 14.377 -1.58514 19
124 1 -5.20001 18.5765 4.4686 16
125 1 8.17901 6.83267 -7.1114 20
126 1 7.78626 -4.84751 3.48714 23
127 1 -5.98894 15.1761 13.0751 14
128 1 13.5506 9.28654 -1.8571 19
129 1 8.41947 15.1348 -5.73105 16
130 1 -5.19632 16.8856 6.40343 19
131 1 10.8135 13.4563 1.621 25
132 1 -2.22829 12.3344 -3.92888 20
133 1 4.14332 19.5782 -9.34623 9
134 1 5.52027 12.3272 -13.3462 16
135 1 -11.5209 -6.30955 3.31324 19
136 1 -10.1397 7.22079 -5.68962 16
137 1 -5.79564 -3.92056 -11.2654 19
138 1 0.793585 -9.23697 -14.7954 11
139 1 8.49915 18.0308 5.47969 14
140 1 -0.76221 16.1058 9.40342 23
141 1 -14.8673 -0.445918 -6.23596 14
142 1 -13.3016 9.13564 6.01405 13
143 1 16.9778 4.09475 -0.553168 13
144 1 -8.34889 1.47303 -10.7075 19
145 1 2.7358 2.27376 20.142 8
146 1 5.77236 18.5145 8.78337 15
147 1 -2.35138 12.9948 9.92141 19
148 1 5.94355 -7.88137 -17.4111 8
149 1 -2.30557 18.422 5.4159 17
150 1 2.45319 18.2207 -7.12174 15
151 1 1.92647 -1.20537 14.7131 13
152 1 -8.31985 -2.01558 4.99481 21
153 1 -0.769278 -6.90022 -13.4798 15
154 1 -4.32292 14.433 -8.44407 18
155 1 -3.04823 -7.83215 4.84646 23
156 1 3.3311 -10.6104 -0.154648 21
157 1 -4.42563 11.7136 -12.8307 11
158 1 -15.2454 6.58449 3.92456 11
159 1 8.46302 15.206 1.01642 21
160 1 -8.89144 9.35441 12.503 12
161 1 -2.4149 -7.0823 11.5871 19
162 1 -0.707953 19.2461 7.64277 10
163 1 -0.465483 10.5004 9.66365 20
164 1 12.8206 7.04224 12.7391 16
165 1 -7.22956 15.5372 4.00668 17
166 1 10.9846 -1.15178 -5.80718 21
167 1 -2.51905 18.212 9.49762 14
168 1 7.52746 -5.03944 -0.166033 23
169 1 -15.7247 0.494915 -1.24354 10
170 1 -5.7188 -9.49178 1.37154 19
171 1 8.47732 5.87925 15.6823 21
172 1 -14.9572 3.89586 -0.225494 14
173 1 -2.59396 -11.0744 0.36866 17
174 1 0.0112341 13.446 4.38749 20
175 1 1.23351 18.5534 13.5984 8
176 1 -6.79089 18.0853 -4.06315 13
177 1 -14.1034 -2.92439 -4.31139 18
178 1 -10.0907 4.09567 13.4056 21
179 1 2.32223 -7.42836 4.84413 22
180 1 4.4553 -9.65199 8.69779 15
181 1 -5.35447 16.6304 1.46272 22
182 1 14.3589 1.31299 9.37302 12
183 1 -7.89242 -6.12228 -12.8766 7
184 1 4.51663 5.06569 13.0082 23
185 1 2.40895 -10.8064 6.60593 22
186 1 -1.98407 6.1391 -10.9912 16
187 1 -0.0373431 -6.94526 -10.1775 23
188 1 11.8508 4.65915 -12.9125 13
189 1 5.55199 6.41083 -12.1275 19
190 1 -8.04178 -1.81916 -8.11831 17
191 1 -7.71498 17.8553 -0.568786 15
192 1 -9.12681 -7.54334 11.8463 12
193 1 5.95817 21.8714 -1.7761 10
194 1 -5.19323 4.29544 16.8938 15
195 1 -6.8209 15.949 -6.92258 9
196 1 7.7602 3.94947 11.3189 21
197 1 -4.22973 -5.32931 -13.0975 10
198 1 0.209089 13.4136 -12.317 20
199 1 3.0264 9.31862 -8.71078 25
200 1 -8.58587 -7.60377 8.34571 20
201 1 -7.36456 10.4112 10.0258 16
202 1 -6.93279 13.6866 10.9229 17
203 1 0.17969 -7.20543 -6.97236 21
204 1 -8.97826 -14.6391 2.16821 14
205 1 7.60797 -10.4722 0.0460501 19
206 1 10.2259 13.0458 15.1184 13
207 1 5.80959 10.272 -7.26561 22
208 1 -12.1263 15.3303 -3.96902 8
209 1 -0.64705 7.75578 11.2771 25
210 1 7.9494 -12.6139 5.21881 11
211 1 13.9257 4.21963 -5.42578 20
212 1 -11.1789 4.8787 2.75494 20
213 1 -11.7304 -3.89962 -1.79498 22
214 1 9.19365 6.40631 -10.4045 19
215 1 1.59696 0.599079 12.5359 22
216 1 8.06356 15.4795 -2.40166 17
217 1 -2.79626 0.601675 -10.3778 21
218 1 -6.00982 -13.8451 3.52152 14
219 1 8.46049 3.91091 -8.17597 21
220 1 -11.3512 -0.957952 6.68266 18
221 1 2.32367 -13.9604 -5.00472 11
222 1 -8.02822 -2.43924 -5.03605 19
223 1 5.98641 19.4946 -2.58487 17
224 1 0.470466 1.20355 -11.9526 18
225 1 7.7955 9.67989 15.1718 18
226 1 15.5252 5.69298 5.2332 12
227 1 6.54345 -3.3382 -14.0156 14
228 1 -5.76907 1.34978 -8.90078 22
229 1 -5.1409 7.01311 -9.03586 21
230 1 -4.91429 -12.0671 10.0765 12
231 1 10.1558 -0.627967 13.3462 15
232 1 -8.09785 -5.03422 -9.36525 18
233 1 2.72928 12.1025 -10.9225 22
234 1 2.70086 15.3878 0.884796 21
235 1 -5.42788 -1.00217 13.3845 19
236 1 -11.2538 -7.1699 -3.68626 21
237 1 -4.84033 -7.0969 -6.79965 21
238 1 -2.72073 12.5266 -10.5774 22
239 1 -5.6193 -7.07999 -3.48623 22
240 1 9.38087 -3.35621 -12.0657 12
241 1 11.5666 4.5014 -9.2122 19
242 1 10.588 8.04876 1.49066 21
243 1 -7.24727 -0.860286 18.5515 7
244 1 -2.86447 -8.06803 1.53756 20
245 1 13.8963 4.48735 14.7556 8
246 1 -10.4203 -9.811 7.83821 16
247 1 -0.0341391 -10.1062 1.67198 21
248 1 -1.88252 20.8927 2.10173 12
249 1 3.9331 0.394674 -13.2461 17
250 1 -7.66674 0.768571 -16.685 5
251 1 -11.5729 -7.13687 9.74989 15
252 1 -0.771773 10.7611 13.2019 21
253 1 5.48349 -10.0789 1.77073 20
254 1 -6.32192 -12.0447 -5.64045 15
255 1 -9.42493 8.41056 -8.46822 13
256 1 10.3454 7.4965 4.74265 20
257 1 -5.49512 9.41279 -11.253 17
258 1 5.93901 9.98805 -10.412 21
259 1 5.19788 -13.0629 -6.81691 13
260 1 -7.82893 18.9497 2.22839 12
261 1 2.34124 12.0984 5.95723 21
262 1 10.1335 4.87166 6.42151 22
263 1 -8.02297 3.57306 7.69714 20
264 1 -2.73743 -1.55035 15.0002 18
265 1 -9.82439 14.1251 5.72713 13
266 1 2.81784 -2.39996 -11.643 18
267 1 13.8639 12.4443 0.245846 17
268 1 8.54981 -10.2253 3.25864 16
269 1 -3.31995 1.67334 16.3934 17
270 1 -13.6674 -3.88496 13.7444 6
271 1 1.99058 -13.194 -1.74854 17
272 1 -6.08921 6.87464 18.3063 9
273 1 -5.74684 7.10089 15.1906 19
274 1 -12.7413 -0.992773 9.43621 16
275 1 -13.9401 -4.8587 10.0987 10
276 1 13.2866 0.953193 -0.186844 17
277 1 -14.3555 1.72134 12.9555 10
278 1 8.50951 0.733281 -6.85453 20
279 1 9.57132 -10.4824 -2.77703 15
280 1 3.19059 18.778 -3.75446 18
281 1 -11.9178 13.6473 2.0101 15
282 1 10.0413 10.9937 9.85778 20
283 1 5.97661 -10.2316 -1.784 23
284 1 -5.09174 13.9156 5.56115 19
285 1 7.58584 -9.14403 10.3226 8
286 1 10.2655 -3.8455 5.21339 21
287 1 2.10389 1.50507 16.2877 18
288 1 0.68189 16.4675 6.27188 21
289 1 8.98341 12.3879 18.3633 11
290 1 -7.73282 12.2507 -0.658818 21
291 1 -3.35647 -8.05343 -11.4517 15
292 1 6.56087 -9.64093 -15.4725 11
293 1 -13.0667 4.90741 13.6038 8
294 1 -14.3426 6.35198 -1.68137 14
295 1 -5.82387 13.7721 1.41075 20
296 1 7.58522 0.943034 10.2346 21
297 1 -11.1385 -11.6108 1.55766 13
298 1 5.01393 -3.80331 8.42689 22
299 1 -8.52592 -4.60891 13.0725 16
300 1 -11.5017 12.4682 -2.34092 15
301 1 3.02543 -7.92543 -5.36822 23
302 1 -5.52008 -1.42983 -6.91584 20
303 1 9.66574 2.16559 -14.0764 15
304 1 4.4832 16.5389 6.56767 16
305 1 -7.63726 3.82937 -2.3423 20
306 1 5.00642 -9.93487 -8.58777 17
307 1 7.2658 4.11454 -16.1963 9
308 1 -3.5841 -13.4557 -4.3584 15
309 1 -14.7851 -4.80695 -1.53803 14
310 1 13.0368 7.35064 16.2668 12
311 1 10.8413 4.6884 -3.32628 22
312 1 -4.7597 10.2041 -7.66883 19
313 1 2.99157 21.3876 -2.41403 14
314 1 -13.339 0.209437 -9.49889 14
315 1 -9.14687 12.998 2.86482 16
316 1 -6.48777 15.332 -1.44705 20
317 1 -8.02989 11.4328 5.68553 19
318 1 10.7821 7.66332 18.1096 11
319 1 13.7946 0.941191 -6.43534 16
320 1 8.3599 6.0529 20.1284 13
321 1 10.8862 4.99243 -6.63001 21
322 1 -7.72832 -10.9798 -3.24897 19
323 1 5.2549 -6.75011 0.249336 21
324 1 10.479 2.27245 8.38078 23
325 1 -8.74775 -4.97638 -3.7019 22
326 1 -5.34628 -6.79792 3.13347 21
327 1 -10.6723 0.487887 11.6622 21
328 1 -10.5811 17.2702 0.385771 9
329 1 -9.99791 -12.8379 -0.405526 15
330 1 4.57711 13.8176 14.8546 15
331 1 -7.35801 9.37449 -5.84979 24
332 1 2.4598 15.2203 -5.16386 19
333 1 5.11133 13.6538 8.29038 18
334 1 -16.7129 -3.33276 -6.51658 8
335 1 -2.34316 -5.3841 -7.08445 21
336 1 -16.2104 6.57262 1.27831 11
337 1 -14.1633 12.0952 0.163767 9
338 1 5.09146 -6.89177 7.01031 21
339 1 -5.23906 -9.65874 -1.67862 22
340 1 10.2442 17.2141 10.1063 15
341 1 8.00953 8.78482 -12.2427 14
342 1 -7.88829 4.12842 -9.29849 21
343 1 -1.78379 20.7029 -3.37689 10
344 1 -9.64162 8.13015 -1.69693 21
345 1 0.194712 -9.80235 4.66708 21
346 1 10.5021 8.12837 8.51847 23
347 1 3.91011 14.8878 -10.5585 19
348 1 -12.5337 4.13815 -2.263 18
349 1 -5.46116 -9.84788 4.79118 19
350 1 5.7803 -7.63555 -10.1456 20
351 1 -10.9997 2.35589 8.7262 19
352 1 -11.0229 -1.54699 3.13703 21
353 1 -10.5498 9.64031 9.67756 15
354 1 -7.41865 4.02477 -12.7279 17
355 1 8.42351 -7.81433 -1.53135 21
356 1 -0.360689 -10.161 -8.22301 18
357 1 -0.513633 -1.09282 13.0205 20
358 1 -1.38208 10.805 -14.7075 16
359 1 4.97683 -9.57852 5.33085 22
360 1 5.25508 13.2707 -5.56779 21
361 1 -11.7829 7.05432 8.00036 16
362 1 -5.64856 2.28922 14.2864 17
363 1 -13.5315 -4.77759 -7.14803 15
364 1 -7.78664 -1.65102 11.7361 20
365 1 7.63609 -2.06015 11.7166 18
366 1 7.75556 -4.66092 6.79398 22
367 1 10.2459 13.7157 -1.72019 18
368 1 -3.5755 7.02026 12.9567 22
369 1 2.13707 15.4008 -2.17473 20
370 1 -2.58506 -11.1735 -2.97163 22
371 1 -0.522238 11.3463 20.0434 9
372 1 -0.0373553 19.0457 4.15567 18
373 1 -11.1731 -3.7569 -5.34027 16
374 1 8.89985 19.6927 1.74527 12
375 1 4.94225 10.6382 9.75825 22
376 1 -5.57016 4.97734 9.58661 19
377 1 -12.0508 3.29749 11.3485 18
378 1 -5.24995 -4.45676 -8.34173 23
379 1 -5.07973 10.4435 5.81078 20
380 1 -2.67615 -8.22241 -5.03942 20
381 1 0.627428 -4.11047 -11.9306 19
382 1 -10.9916 -15.0562 -2.70284 8
383 1 10.4471 5.36997 9.96086 20
384 1 -8.30876 -1.86302 15.4763 17
385 1 -10.0514 3.91744 -10.8903 14
386 1 10.9697 10.3725 0.0770983 22
387 1 -10.7523 -9.18987 -6.47935 13
388 1 3.38512 19.2314 5.80427 15
389 1 -5.08378 12.9796 15.5811 16
390 1 -13.5802 1.14753 -4.02561 14
391 1 0.492444 18.8246 0.924159 23
392 1 9.13617 17.6374 -7.91475 9
393 1 -8.72074 -7.80256 -4.30451 21
394 1 0.484599 5.07112 20.6149 11
395 1 -0.544913 -13.0231 -6.3604 13
396 1 2.73609 -2.46561 -8.46673 21
397 1 9.30288 -10.0085 6.62665 10
398 1 -14.7231 8.36739 0.0837341 13
399 1 1.72872 9.3928 18.2337 20
400 1 8.18193 12.6906 -0.589362 22
401 1 -7.95285 10.8022 -10.7419 11
402 1 -15.2353 -2.55414 1.1026 13
403 1 -2.23678 18.8532 12.8072 7
404 1 -2.44955 3.14431 -12.0788 19
405 1 10.6491 10.6672 3.37923 23
406 1 8.77402 19.3696 -5.31768 12
407 1 16.8365 5.46598 2.30793 10
408 1 2.85728 3.39337 -11.927 18
409 1 -0.3827 -9.06072 8.05841 19
410 1 -0.362807 -6.45387 13.3363 13
411 1 -7.62759 6.13534 -7.3017 22
412 1 -10.1455 -9.47014 -1.60206 18
413 1 -5.81288 -9.88236 -8.94847 17
414 1 8.97232 19.5553 8.91101 11
415 1 3.66772 6.1548 -9.9656 21
416 1 4.95653 1.94435 18.0282 13
417 1 -13.8082 1.76395 9.6609 14
418 1 -5.6481 -12.5723 6.34132 17
419 1 -10.7588 -4.10959 5.31086 21
420 1 16.1992 1.94678 -6.33629 12
421 1 9.77197 1.44827 -1.35297 21
422 1 2.95247 -5.2495 -6.92531 21
423 1 6.60229 4.72861 -10.4998 19
424 1 11.9701 -3.70737 -8.22585 11
425 1 -3.05343 3.99287 15.0036 21
426 1 5.88873 19.6227 3.38563 15
427 1 -1.69049 0.493572 -13.9936 13
428 1 3.67346 7.45581 -17.3149 9
429 1 -5.96522 -1.13739 9.62185 23
430 1 -4.47789 19.5051 0.775393 15
431 1 -8.60936 -2.91231 -11.3625 17
432 1 -12.8845 1.29917 -1.2796 20
433 1 2.01607 -7.9842 -11.8657 23
434 1 -5.91465 -6.59163 13.4429 13
435 1 -0.0541946 13.4266 -5.62385 21
436 1 13.6366 12.8013 6.43386 14
437 1 12.7203 4.00852 4.61697 23
438 1 -8.37293 -15.3543 -1.10563 13
439 1 -7.80184 -0.498262 -13.343 13
440 1 -2.12548 15.1335 5.95616 18
441 1 10.9173 2.0114 2.00224 22
442 1 5.33145 19.5253 -5.84322 12
443 1 14.3787 6.05579 -8.33175 17
444 1 5.10612 10.2503 23.1739 6
445 1 -8.7413 6.42211 9.12444 19
446 1 4.30844 13.5496 11.7152 22
447 1 6.79397 12.0385 20.7099 9
448 1 3.29425 6.12373 -14.0191 20
449 1 -0.947181 1.95998 14.409 24
450 1 7.57973 12.5734 6.73592 19
451 1 8.44275 12.8252 -4.10232 22
452 1 -5.37994 18.9594 -6.73469 11
453 1 -3.09779 15.2584 -2.4276 20
454 1 5.36557 5.02813 19.5159 18
455 1 10.9001 1.79244 -8.01461 19
456 1 10.2023 -6.65853 -0.106613 14
457 1 12.1435 14.8316 12.2976 13
458 1 -13.9585 0.395237 1.80286 18
459 1 -2.41096 9.12384 -9.43359 18
460 1 -11.9302 1.90441 3.78375 17
461 1 -1.12616 15.6421 -10.522 19
462 1 5.20534 -13.1992 -3.72811 15
463 1 5.75214 1.52891 -8.51912 21
464 1 -2.13798 18.7224 -0.774396 22
465 1 -10.3159 -6.08771 -6.41126 18
466 1 -0.502846 -12.487 6.56309 17
467 1 -11.2007 -1.23637 -0.0317346 20
468 1 3.64617 14.7136 -13.31 18
469 1 1.8279 12.277 16.1986 17
470 1 -9.22418 -2.1751 8.05604 21
471 1 2.89193 -8.24193 -8.61209 22
472 1 2.53219 -5.37842 12.6795 13
473 1 -7.86213 9.4439 1.3773 20
474 1 2.48715 9.55873 21.8191 13
475 1 0.0648849 19.1145 -5.30927 17
476 1 10.6346 -1.79869 -2.63844 20
477 1 2.26447 9.57984 11.6514 23
478 1 1.24996 9.87798 -16.9747 10
479 1 -1.77387 -13.9917 8.75807 7
480 1 4.63453 -5.02261 -15.7268 13
481 1 3.18512 19.8317 11.0369 7
482 1 11.2201 10.6181 -6.65055 17
483 1 -2.84814 -2.05699 -12.191 17
484 1 -2.40776 -8.15873 -1.7991 20
485 1 -10.9342 -0.285578 -11.861 11
486 1 13.0099 6.45678 0.0578002 16
487 1 15.8572 6.66446 -5.61522 13
488 1 9.11329 -4.78006 -9.62718 14
489 1 13.4759 12.9785 13.0954 11
490 1 5.51475 -7.16218 -3.44311 20
491 1 4.17197 9.30967 -15.121 16
492 1 7.32713 15.219 4.9747 16
493 1 7.93394 14.5982 15.9945 13
494 1 12.2297 15.5458 5.44614 14
495 1 13.9713 3.49127 1.2735 20
496 1 11.5247 7.753 -4.75854 20
497 1 7.10748 3.97693 14.5077 20
498 1 12.8839 9.78539 14.6753 12
499 1 10.4366 16.9547 -0.674113 17
500 1 2.79705 7.01286 16.6506 20
501 1 14.4751 2.87615 -8.45911 17
502 1 6.45435 7.25517 17.3296 17
503 1 -8.34166 0.577866 -7.01009 18
504 1 12.8881 4.15583 8.02384 18
505 1 -11.1685 6.8286 11.1769 14
506 1 7.0115 12.6742 9.91399 19
507 1 7.77674 7.2568 13.4177 20
508 1 2.65382 12.2593 9.69684 20
509 1 0.349435 18.0875 11.0855 16
510 1 -3.0654 -13.8818 5.19967 10
511 1 -4.90565 13.3964 -2.53588 17
512 1 14.2704 9.5926 -4.56686 16
513 1 10.9312 -1.90658 -10.6909 12
514 1 2.02081 21.1369 1.99912 14
515 1 0.218784 -10.2301 -4.80838 20
516 1 9.07429 -7.08117 -12.1418 13
517 1 -13.2362 4.06089 8.28612 14
518 1 1.03849 10.1668 -10.08 20
519 1 -2.33129 -10.5873 3.6852 16
520 1 -4.34047 4.88232 -13.5023 19
521 1 -10.2154 5.39553 -3.34902 21
522 1 10.1784 -0.815952 3.42795 20
523 1 13.4944 9.64587 2.12954 19
524 1 -0.474207 -6.55339 6.12819 21
525 1 -10.6567 -0.845753 -3.92356 19
526 1 3.4688 3.94655 -16.0454 10
527 1 -0.865136 7.65891 14.6568 21
528 1 6.57782 14.5639 -13.1774 10
529 1 9.8087 2.51952 15.3842 14
530 1 13.7524 12.602 -6.40823 9
531 1 9.72234 17.028 3.01747 19
532 1 2.51107 -11.1226 -6.36353 20
533 1 -8.87887 2.47992 15.965 17
534 1 13.0136 -1.91413 4.99129 14
535 1 -3.21988 15.6191 14.9725 11
536 1 4.82312 17.3143 -12.1972 10
537 1 -10.2442 12.7151 -5.4224 11
538 1 10.4432 13.3378 4.84185 18
539 1 -13.6969 -5.64566 1.00175 15
540 1 12.9582 -2.04735 1.81617 14
541 1 6.55845 21.5987 1.17577 12
542 1 -3.36239 9.72993 11.4967 21
543 1 -13.5647 -7.80252 -1.19719 13
544 1 -5.45012 3.99255 -10.9242 20
545 1 10.2178 5.12111 13.2327 19
546 1 -3.08491 -4.56764 13.0905 18
547 1 8.22373 9.06208 18.7901 16
548 1 -3.22528 18.6097 -4.21645 16
549 1 0.675647 2.67535 -14.6222 12
550 1 -8.53454 0.806353 9.61961 18
551 1 8.95088 0.779698 -10.2766 20
552 1 8.51425 -5.36437 -6.37826 18
553 1 7.89435 7.14112 9.86386 21
554 1 -6.24988 1.50466 17.6318 12
555 1 10.2736 10.8341 13.336 17
556 1 -0.64431 -0.137945 17.3237 12
557 1 -3.47397 9.61205 14.9039 21
558 1 0.30503 -1.7978 -13.8667 14
559 1 -8.17949 3.8498 10.8715 19
560 1 1.98621 3.70923 14.5205 20
561 1 -8.09633 -8.0422 5.08508 20
562 1 13.6563 6.29667 -3.20566 20
563 1 5.44684 -10.1428 -5.46833 23
564 1 5.33022 13.4318 -2.56006 21
565 1 11.1494 17.9478 7.12179 12
566 1 1.30748 0.263185 -16.0138 9
567 1 3.33535 18.4882 -0.604706 20
568 1 15.9426 10.0112 0.11691 10
569 1 -5.51419 -6.63837 0.11437 21
570 1 -0.722082 5.50639 -13.7561 18
571 1 -10.3286 10.6262 3.28374 19
572 1 7.17673 -9.56117 -11.7369 12
573 1 11.0793 13.9211 -4.75656 17
574 1 10.4592 17.2938 -3.94883 14
575 1 10.6459 10.2261 17.1115 14
576 1 11.3769 4.98747 16.2863 15
577 1 0.608018 -6.56507 10.1503 18
578 1 -2.36587 13.7568 -13.9091 13
579 1 -0.796678 14.9233 13.0841 19
580 1 -0.639519 -9.69408 -11.6913 16
581 1 11.96 18.426 -6.48649 7
582 1 7.48587 15.9102 8.29489 20
583 1 12.3425 1.43718 -3.38933 23
584 1 5.86335 12.5629 17.8836 13
585 1 -13.1319 1.24272 6.67176 16
586 1 5.24742 -13.4685 -0.188162 15
587 1 -8.4387 15.4212 1.30969 20
588 1 5.63296 13.1731 1.06491 23
589 1 -11.1669 -4.26744 8.46366 19
590 1 -0.211969 8.54772 20.8539 11
591 1 -6.10495 12.1894 -9.16297 16
592 1 -0.785404 16.2855 -7.41371 20
593 1 4.88696 -12.5256 3.51573 17
594 1 10.9862 10.7659 -3.10919 22
595 1 -11.4066 1.07391 14.6651 20
596 1 8.44922 -0.974226 -13.7049 14
597 1 4.53155 -6.74383 10.5513 16
598 1 5.53578 16.5072 -1.04318 20
599 1 0.467618 5.29197 16.0225 20
600 1 -7.10459 -6.48999 -6.50775 22
601 1 -5.8538 -7.28913 -9.59 19
602 1 -8.43505 -14.2363 -4.4845 12
603 1 4.40785 16.1785 -7.48447 20
604 1 -3.89071 15.2499 3.58262 22
605 1 5.70353 -6.97581 -6.69936 19
606 1 7.55978 -12.7703 1.83025 14
607 1 2.23126 -4.18869 10.1884 20
608 1 16.9222 4.44585 -3.7104 14
609 1 -3.33906 -14.1596 -1.34844 14
610 1 -11.6003 -3.07277 11.5919 18
611 1 -4.59787 -13.0431 0.914491 13
612 1 -10.2353 -11.9272 -4.65362 12
613 1 -10.7338 -2.00811 14.3924 16
614 1 -8.59669 -14.1327 5.76751 12
615 1 17.8896 7.33401 -0.071624 11
616 1 -2.21336 17.8696 2.47795 21
617 1 -13.3961 6.12294 5.62029 18
618 1 10.0837 2.24071 4.97619 19
619 1 -10.6794 1.78546 -8.36658 18
620 1 10.6354 7.82235 -8.15169 16
621 1 9.44333 16.5594 13.1651 12
622 1 -11.1279 2.34107 -4.98052 20
623 1 -11.9053 -1.28005 -6.83548 17
624 1 2.63029 7.3533 19.5452 19
625 1 8.53141 9.91672 -8.73176 18
626 1 12.4671 15.4379 8.69387 15
627 1 -2.90491 3.85318 11.4671 21
628 1 -0.0853087 -12.839 3.53353 17
629 1 -8.42866 -11.0534 5.67406 20
630 1 9.35488 14.4574 10.8727 18
631 1 2.96499 -5.28872 -10.1608 21
632 1 5.08012 13.1262 4.7859 21
633 1 -8.52561 -4.89278 9.862 21
634 1 7.89859 12.4135 -7.29663 18
635 1 -0.569368 -13.4496 -2.98314 16
636 1 4.95348 -12.5401 6.76708 14
637 1 2.3072 -13.0043 1.63568 17
638 1 5.92682 7.42756 -8.43107 24
639 1 3.76291 23.3023 0.0978778 9
640 1 -2.99924 7.70065 -13.7652 13
641 1 -0.552194 5.06394 13.1741 22
642 1 3.44378 12.6471 -15.6856 11
643 1 -9.56407 1.68452 -13.8635 11
644 1 -8.9426 -2.40099 -2.10705 21
645 1 0.476106 21.7184 -0.349823 16
646 1 3.86574 -5.4309 -12.8242 22
647 1 10.5386 7.53986 -1.90139 21
648 1 10.331 -4.78193 -1.66021 16
649 1 -2.73553 6.78483 16.3122 19
650 1 4.84737 -6.72066 3.34158 24
651 1 13.1508 -1.50433 -1.14595 14
652 1 10.9209 -3.55687 11.7343 10
653 1 0.45591 13.5379 7.82034 22
654 1 -11.2382 3.62723 16.1405 11
655 1 -5.94946 7.78652 11.4107 20
656 1 -4.31416 -9.73552 12.3176 12
657 1 7.17064 12.9749 13.5365 19
658 1 -10.7008 -4.47591 1.33942 18
659 1 7.89824 -5.26059 -3.57036 22
660 1 -8.55405 15.0777 -4.60187 12
661 1 -0.75458 -9.33122 11.487 12
662 1 4.43979 4.44787 16.4451 23
663 1 4.32597 22.1864 3.94927 9
664 1 2.5616 -7.73391 7.67575 20
665 1 1.99946 6.95425 13.0915 22
666 1 -14.0879 -6.66467 -4.5411 12
667 1 -1.14455 13.1805 15.7633 16
668 1 5.58243 15.7415 2.61127 21
669 1 -10.4321 -9.04403 3.80243 19
670 1 -8.05511 -12.1364 8.58997 16
671 1 7.86933 -1.98277 8.32798 21
672 1 11.0362 -3.78021 8.34147 18
673 1 7.60193 9.90788 8.22691 23
674 1 0.390872 -4.47205 -8.68059 22
675 1 0.0416773 4.50799 -10.2429 22
676 1 -3.13046 0.950527 12.9781 22
677 1 3.20851 18.0746 2.94424 21
678 1 15.2775 2.59593 5.92259 10
679 1 2.75493 12.3092 -7.2485 24
680 1 -3.08364 11.8425 17.9988 12
681 1 7.45382 10.0078 11.7201 22
682 1 8.42393 -2.59624 -8.23405 19
683 1 -7.63889 -11.2144 -0.0913251 19
684 1 12.9884 0.937957 6.37131 18
685 1 3.01866 0.593347 -10.3081 19
686 1 5.04234 7.55768 15.029 20
687 1 9.94878 -9.33213 -9.21118 9
688 1 5.76159 4.21643 -13.8339 18
689 1 14.0981 9.23605 -7.46639 12
690 1 13.7308 0.891259 3.22073 15
691 1 2.52897 -1.90076 11.3229 21
692 1 -2.63249 -8.35678 -8.5454 21
693 1 6.07844 18.0762 0.761038 17
694 1 -14.7836 3.57047 3.02185 12
695 1 13.3204 12.8579 -3.08304 16
696 1 12.8352 9.72428 4.98502 16
697 1 3.48243 -2.06114 -15.1459 9
698 1 -3.93803 14.9576 8.61064 20
699 1 12.9167 9.76459 11.341 16
700 1 12.6783 15.526 -1.05349 13
701 1 6.34583 7.25573 -14.9263 17
702 1 10.481 -0.643135 0.497816 22
703 1 -10.0373 11.2023 0.217781 19
704 1 12.8902 6.73789 3.17948 19
705 1 -11.721 -8.56237 0.949239 15
706 1 -8.77197 11.6476 -7.62046 12
707 1 5.23135 7.76959 11.6594 22
708 1 -7.67004 3.61439 -5.5781 20
709 1 -10.8634 7.77385 4.28435 21
710 1 7.77589 -8.54906 -4.66028 24
711 1 -10.8536 -6.20588 -1.10091 21
712 1 9.96622 -3.49972 1.5813 20
713 1 -10.8284 8.08803 1.11657 20
714 1 13.8282 10.2006 8.08862 13
715 1 -6.24222 -3.65776 8.29751 22
716 1 5.14279 6.88904 21.6946 13
717 1 10.4286 -0.841865 9.96383 23
718 1 -10.5937 2.97516 5.83039 18
719 1 1.94549 12.4467 13.2137 23
720 1 7.38208 15.4878 -9.02542 14
721 1 -2.39612 -4.85714 -10.942 19
722 1 -5.56532 12.0469 8.28965 20
723 1 -10.9737 -7.58677 6.22758 21
724 1 7.5468 12.6501 -10.5031 16
725 1 2.11235 9.74773 15.015 21
726 1 17.1367 4.5038 -9.43372 6
727 1 5.22342 -3.80653 11.6062 15
728 1 0.748392 15.4629 -14.3774 9
729 1 5.14506 13.0872 -8.60955 21
730 1 -5.71461 1.69378 11.0826 22
731 1 16.5548 8.10845 2.6647 10
732 1 -3.20381 -2.47727 -8.68561 20
733 1 12.4881 15.5257 1.81645 14
734 1 -13.937 2.79667 -7.44188 13
735 1 -7.30693 -9.39618 10.915 17
736 1 0.405703 18.2849 -9.17417 14
737 1 4.93199 2.11907 11.3547 23
738 1 0.367591 -9.99442 -1.84678 20
739 1 -6.0921 16.9183 9.66403 12
740 1 -13.5538 8.67286 2.85306 16
741 1 10.5898 0.367356 -12.3442 13
742 1 -2.57435 -11.1348 -9.70073 12
743 1 -7.96165 8.73413 4.62054 19
744 1 13.2772 16.5491 -3.74775 9
745 1 6.49232 -5.03282 -11.412 19
746 1 -7.77667 -10.2188 -6.28945 17
747 1 3.22548 -8.2165 -1.72299 23
748 1 -0.856411 9.85718 16.7212 20
749 1 3.0671 -10.992 -3.51813 20
750 1 0.978204 12.8925 -15.4238 14
751 1 15.7551 1.35396 -2.57657 12
752 1 7.90484 12.4247 3.18168 21
753 1 -0.594846 -13.3242 0.187288 14
754 1 1.41715 -5.61615 -15.0444 12
755 1 16.1616 7.35861 -2.04211 14
756 1 1.46273 7.38196 -11.8995 22
757 1 -3.09323 -4.18729 9.86484 20
758 1 8.3274 9.55217 -5.58255 21
759 1 -11.8544 5.56367 -0.128695 17
760 1 -8.5022 6.66316 13.3528 15
761 1 5.22663 9.4929 19.5323 18
762 1 -5.24539 -6.72357 10.0996 21
763 1 2.7156 15.1649 4.31379 18
764 1 2.32434 -14.0001 5.17309 13
765 1 4.71416 16.3867 -4.14397 17
766 1 -3.59811 12.8895 12.9198 21
767 1 -0.202996 6.8116 18.2737 19
768 1 -7.29646 14.8948 7.48565 18
769 1 -5.48626 -3.5115 14.7393 15
770 1 7.01869 -11.2186 8.12459 11
771 1 10.4165 8.30336 11.8388 20
772 1 8.20435 -2.1014 -5.3194 24
773 1 7.51475 -10.7619 -7.47948 13
774 1 -4.95709 1.27284 -12.4345 17
775 1 0.00212771 7.84367 -14.8455 14
776 1 4.50101 16.303 10.7246 18
777 1 -10.0216 0.255943 17.453 11
778 1 -5.16014 13.1461 -6.00971 17
779 1 -13.1259 5.07436 -4.72838 14
780 1 11.6786 18.5409 4.01673 11
781 1 -9.10732 -12.1569 3.20823 17
782 1 9.68207 13.674 8.43739 18
783 1 -8.30009 -8.20602 -8.75762 12
784 1 1.81067 15.7915 12.1898 20
785 1 -8.57056 5.74529 16.5394 11
786 1 -5.21926 -10.09 -4.85911 20
787 1 10.6565 2.2943 11.3865 19
788 1 1.32003 -11.1964 9.52159 11
789 1 1.59057 15.2671 15.4085 11
790 1 13.4784 1.83808 -13.6264 6
791 1 7.52801 -7.67809 1.86224 20
792 1 6.53198 1.61533 -11.9738 18
793 1 -13.1072 2.56011 -11.0586 8
794 1 -10.9418 4.95105 -7.18748 17
795 1 -5.42901 9.97061 16.9123 11
796 1 10.498 -0.876848 6.69348 23
797 1 -8.19946 -4.84668 3.10189 21
798 1 13.8756 3.59651 -2.17879 19
799 1 4.12878 9.07324 -12.1402 22
800 1 13.1392 12.6907 3.25326 17
801 1 -3.43458 15.8926 11.3245 18
802 1 -13.7799 -4.3934 4.21725 13
803 1 7.70679 -11.9834 -4.71083 18
804 2 -6.34962 5.78088 -10.2047 21
805 2 -3.55979 16.3492 2.08159 21
806 2 2.70977 1.30553 -12.1472 18
807 2 -2.21087 12.0677 19.5268 7
808 2 3.36333 -12.9646 -6.05481 15
809 2 -12.7242 -8.16338 -4.66422 12
810 2 2.32597 2.18795 18.2098 14
811 2 3.90257 6.46004 20.3456 17
812 2 -9.82728 -12.5806 5.2553 16
813 2 -7.88571 7.30103 -5.82584 20
814 2 4.55664 14.8739 1.25283 21
815 2 -11.8092 0.574898 -4.30133 16
816 2 -0.0694529 17.4595 -10.7297 12
817 2 10.1254 6.49967 3.05766 23
818 2 2.2194 19.4724 -5.37026 15
819 2 7.37567 20.8786 -1.97579 11
820 2 -10.7587 8.45359 -4.43211 18
821 2 -11.7622 -4.78583 -6.86354 17
822 2 3.15308 7.67936 11.5211 25
823 2 8.99192 -1.11502 -7.05594 17
824 2 0.483112 -13.4953 5.41736 14
825 2 -5.68029 12.6077 -0.465168 19
826 2 -10.9421 9.02459 -0.662497 22
827 2 10.1146 6.78168 6.30919 21
828 2 11.0768 -8.50603 -7.56977 8
829 2 -7.26967 -6.68664 0.325398 22
830 2 -7.3325 -0.927622 6.17368 22
831 2 -9.91616 -13.106 1.55531 13
832 2 11.4777 -4.6825 6.87162 16
833 2 -2.52167 -12.9106 -5.99482 14
834 2 7.97605 7.89238 15.2279 16
835 2 5.86867 11.6671 -9.57488 22
836 2 0.139875 -10.6592 6.26852 20
837 2 -11.4555 -8.12743 -1.31696 16
838 2 2.73948 7.63605 15.0189 22
839 2 -8.32841 10.3091 -0.298839 19
840 2 -2.71609 4.14826 16.9853 17
841 2 -7.72897 13.7849 -2.43003 18
842 2 8.66092 -9.21186 4.87046 14
843 2 3.36086 16.2458 -11.6432 15
844 2 7.78079 16.3301 6.31148 17
845 2 7.00254 19.6444 1.55159 13
846 2 9.23858 -2.82373 -10.106 17
847 2 -9.11562 10.1354 10.9023 14
848 2 4.137 11.2567 -14.4683 19
849 2 0.83256 12.1784 -10.3939 22
850 2 10.3599 12.5956 -3.34223 22
851 2 -5.53946 -0.348829 17.8573 10
852 2 -11.6649 7.9508 9.7047 13
853 2 13.4848 3.92433 -9.77705 17
854 2 -7.72473 -3.78789 11.3339 20
855 2 3.02331 -10.4027 -8.42489 18
856 2 0.23748 0.840232 -14.0921 14
857 2 -10.0402 -4.5694 -0.654076 20
858 2 10.1289 12.3423 -0.163201 22
859 2 -3.31665 13.5061 4.10844 22
860 2 -8.11646 -12.0677 -5.18829 14
861 2 -3.44334 16.846 4.89993 21
862 2 6.6065 5.85798 20.8772 10
863 2 3.22923 -3.87662 11.8821 17
864 2 15.5546 6.46878 3.35294 16
865 2 5.32547 15.1301 -9.13729 21
866 2 -9.79866 6.83939 -7.52039 14
867 2 13.3189 7.98158 11.1432 17
868 2 9.74566 -9.11035 -4.4649 15
869 2 5.58065 -10.7885 -0.1275 19
870 2 -3.17481 13.9752 11.4775 22
871 2 8.15618 -6.73966 3.59398 19
872 2 11.0331 -1.83938 4.95658 21
873 2 12.4977 13.7335 4.8516 15
874 2 -2.81887 2.11155 14.4834 20
875 2 12.7111 2.27305 -5.17293 23
876 2 -3.78072 14.4074 6.67446 19