ITEM: TIMESTEP
466000
ITEM: NUMBER OF ATOMS
1000
ITEM: BOX BOUNDS pp pp pp
-30.0 30.0
-30.0 30.0
-30.0 30.0
ITEM: ATOMS id type x y z Coordination
1 1 -10.3292 4.6774 -9.67397 8
2 1 -10.4644 -1.63574 -8.65367 16
3 1 -10.9819 -7.90252 -4.57225 12
4 1 -12.1606 -4.11621 -7.14802 11
5 1 -6.83575 -6.18227 -9.02723 16
6 1 -8.49036 -9.33433 -6.25274 12
7 1 -7.10974 -11.8799 -3.86739 13
8 1 -9.33283 -9.50038 -2.97939 11
9 1 -6.80971 1.69261 -11.5724 14
10 1 -1.93554 -6.8935 -11.7814 16
11 1 -9.47607 -6.23912 -6.82751 16
12 1 -7.20222 -4.13337 -11.3625 12
13 1 -8.893 -0.517425 -6.11829 20
14 1 -7.55809 -3.03371 -6.5282 20
15 1 -7.86929 -5.54065 -3.91549 21
16 1 -8.74899 -2.7216 -3.48719 20
17 1 -2.88764 -11.617 -8.94386 11
18 1 -4.91657 -9.28777 -9.81059 13
19 1 -6.03407 -6.85741 -6.45701 18
20 1 -1.15077 -13.4184 -4.43928 14
21 1 -5.11683 -10.054 -6.33224 16
22 1 -6.42299 -8.32735 -3.7633 19
23 1 -8.93989 -3.93077 -8.82087 16
24 1 -5.27427 -6.90031 -11.7022 13
25 1 -3.55063 -6.29295 -8.9422 18
26 1 -5.25662 -2.87217 -8.91803 23
27 1 -5.4238 -0.855157 -5.86688 23
28 1 -3.79147 -3.94657 -6.27747 16
29 1 -4.32233 -5.88695 -3.36012 19
30 1 -5.27774 -2.66647 -3.32633 22
31 1 -4.21953 -13.0223 -4.65545 11
32 1 0.0422523 -9.3251 -12.0079 9
33 1 2.27744 -9.28051 -9.01894 15
34 1 -1.89516 -12.9441 -1.56082 15
35 1 -3.03403 -8.05817 -4.75309 17
36 1 -2.1628 -10.7889 -6.61398 14
37 1 1.2721 -11.7666 -4.75777 14
38 1 -1.31055 -10.167 -3.29565 17
39 1 -5.13906 -1.05954 -11.3979 14
40 1 -0.282905 -3.86767 -10.9844 17
41 1 -0.557452 -6.00203 -8.21751 19
42 1 -1.81925 -3.07348 -8.45882 21
43 1 -2.2415 -0.846366 -6.11162 19
44 1 -0.510611 -3.71089 -6.17745 19
45 1 -0.795728 -6.02852 -4.37641 18
46 1 -2.45125 -2.86481 -3.65779 22
47 2 -4.82811 -8.85301 -11.7673 10
48 2 -11.7615 -3.90184 -5.18669 13
49 2 -9.94462 -9.3776 -4.97038 11
50 2 -9.25313 -2.20975 -5.22154 20
51 2 -11.0272 -6.63247 -5.97943 12
52 2 -5.4102 -3.22177 -11.2083 16
53 2 -10.2848 -8.05571 -2.63181 13
54 2 -10.8957 -7.38932 0.648248 14
55 2 -12.0442 -1.20781 -3.21612 14
56 2 -8.38635 -1.61712 -8.03298 21
57 2 -7.97268 -7.45023 -6.51422 16
58 2 -3.13613 -11.0078 -10.6896 9
59 2 -7.90636 -10.9617 -2.55337 12
60 2 -8.50437 -9.33229 3.75171 11
61 2 -11.8534 -5.12194 -1.92252 14
62 2 -4.31461 -10.2899 -8.30725 13
63 2 -7.46618 -5.195 -7.70441 15
64 2 -8.8088 2.45528 -6.50198 19
65 2 -8.56887 -3.05072 -10.5094 15
66 2 -6.63681 -5.74392 -10.8902 13
67 2 -9.47104 -4.95594 -3.29564 18
68 2 -9.31902 -2.50336 -1.63867 22
69 2 -9.20366 -0.0262389 -3.7905 21
70 2 -7.0283 -3.61194 -3.92036 16
71 2 -6.84077 -10.2829 -5.24984 15
72 2 -5.46386 -12.6375 -3.21082 13
73 2 -5.34995 -7.36974 -8.54469 15
74 2 0.582056 -9.12352 -10.4041 14
75 2 -4.00146 -11.6371 -5.94074 15
76 2 -0.780334 -12.763 1.18282 12
77 2 -5.5375 -8.45301 -1.96567 19
78 2 -6.35033 -6.35373 -3.58246 16
79 2 -2.76904 -13.5761 -3.71238 12
80 2 -1.78319 -8.80545 -11.953 13
81 2 -10.3187 -4.52462 -7.63374 15
82 2 -5.01831 -8.11903 -5.18239 15
83 2 -5.6682 -2.91426 -6.89674 18
84 2 -5.57694 -0.99505 -9.23061 21
85 2 -3.58786 -4.06999 -8.42191 18
86 2 -4.51131 -5.40708 -1.4968 20
87 2 -5.73379 -2.48102 -1.13633 19
88 2 -5.68572 -0.795289 -3.50883 20
89 2 -4.12598 -4.09734 -4.33387 19
90 2 7.66843 -9.93549 2.89017 10
91 2 -3.25489 -13.165 -0.333263 12
92 2 1.9518 -10.5325 -7.83073 15
93 2 -2.26983 -9.78846 -4.86592 16
94 2 1.13268 -7.44129 -8.29845 18
95 2 -2.02687 -7.29162 -8.36364 20
96 2 3.82637 -12.1811 -6.27182 11
97 2 -2.25877 -10.8784 -1.69628 18
98 2 -2.5468 -6.68091 -3.40135 21
99 2 0.558883 -10.435 -3.6321 18
100 2 -2.25171 -3.86439 -11.5962 13
101 2 -3.63473 -6.22374 -10.8534 15
102 2 -0.675725 -5.72727 -6.09875 16
103 2 -2.25945 -2.73714 -6.41127 21
104 2 -2.15144 -1.1685 -9.05428 21
105 2 -0.335481 -4.20445 -8.94686 22
106 2 -1.25578 -6.00851 -0.610373 19
107 2 -2.43451 -3.27404 -1.54048 22
108 2 -2.54934 -0.961747 -3.77695 20
109 2 -0.696316 -4.01219 -3.70016 19
110 1 -12.5508 -2.31529 1.24153 16
111 1 -9.61023 -4.36685 4.60624 21
112 1 -9.16076 -10.0172 2.25506 10
113 1 -14.5653 0.174142 3.16605 11
114 1 -12.5222 -0.700085 -1.12042 13
115 1 -10.9053 2.02507 -6.45265 16
116 1 -13.2435 -4.3662 -0.771568 13
117 1 -9.09085 -7.61503 3.94981 21
118 1 -9.83764 -3.21193 9.90638 12
119 1 -10.9767 -3.09421 -1.48469 20
120 1 -12.7271 -7.66068 0.699651 10
121 1 -9.32672 -0.40278 4.44933 20
122 1 -10.4146 -6.49745 -1.49031 17
123 1 -7.50492 -10.4158 -0.907262 16
124 1 -7.94416 -10.3641 5.22662 9
125 1 -12.3082 -6.53274 4.31208 14
126 1 -10.6394 -5.37854 1.86273 24
127 1 -9.0871 -7.77742 0.798212 16
128 1 -8.10654 -7.41365 9.45284 11
129 1 -9.39232 -0.563371 -0.488291 23
130 1 -7.56991 -3.15761 -1.00627 22
131 1 -7.47306 -5.71595 1.05671 20
132 1 -9.45494 -2.60738 2.11404 22
133 1 -11.0055 2.54209 4.99714 21
134 1 -7.22988 -3.12142 5.3954 22
135 1 -8.32812 -5.8859 6.97141 19
136 1 -8.93543 -2.80576 7.51863 20
137 1 -6.8751 -5.47481 12.8561 9
138 1 -6.44468 -3.84826 9.33011 20
139 1 -5.00148 -12.6919 -1.3962 14
140 1 -4.76475 -11.14 1.31467 16
141 1 -6.12529 -6.68178 -1.44678 15
142 1 -3.98158 -9.68714 -1.63983 20
143 1 1.19961 -13.0249 -1.87719 12
144 1 -6.15071 -8.45994 1.73918 20
145 1 -6.45165 -6.35218 4.49942 19
146 1 -4.31993 -10.8193 4.53145 10
147 1 -5.76443 -8.7203 6.6036 15
148 1 -5.54853 -5.97368 10.4241 16
149 1 -2.34597 -7.81685 12.5559 12
150 1 -4.38147 -8.50996 9.6167 13
151 1 -5.86739 -0.444911 -0.788031 20
152 1 -4.20215 -3.71057 -0.738357 20
153 1 -4.60978 -5.61487 2.60999 16
154 1 -6.07397 -2.70729 1.69953 21
155 1 -5.99722 -0.590599 4.6273 22
156 1 -3.96052 -3.02 4.81532 22
157 1 -4.63244 -5.22849 6.88314 21
158 1 -5.16167 -1.95192 7.64238 23
159 1 -4.9967 -0.553634 10.3091 24
160 1 -3.29063 -3.1928 10.0372 21
161 1 -3.71167 -4.9718 12.7967 15
162 1 -5.48471 -2.0587 12.164 18
163 1 -2.40233 -13.8067 1.35092 8
164 1 0.64416 -8.76994 7.26192 18
165 1 -2.81708 -6.80124 -1.34935 18
166 1 -1.10949 -9.76724 -0.0223273 21
167 1 5.74595 -10.4671 -1.15502 12
168 1 -2.89091 -8.15712 1.53762 19
169 1 -2.49754 -6.12425 4.78153 19
170 1 2.21324 -9.81123 10.048 14
171 1 2.32028 -11.6725 7.3665 11
172 1 -2.62036 -7.7942 7.7262 19
173 1 -2.89352 -6.06039 9.723 22
174 1 -0.950953 -9.15234 4.78939 18
175 1 -2.42226 -0.669635 -0.839742 23
176 1 -0.74804 -4.24773 -1.62321 20
177 1 -1.25681 -5.50415 1.32772 21
178 1 -2.8818 -2.3739 1.92345 19
179 1 -2.17154 -0.601544 4.55916 21
180 1 -0.630737 -3.53758 3.97422 18
181 1 -0.919953 -5.87825 7.11945 19
182 1 -2.0677 -2.54261 7.4321 22
183 1 -1.74156 -0.157602 9.88081 23
184 1 -0.324849 -3.48835 9.4301 22
185 1 -0.427954 -5.3032 12.1392 17
186 1 -1.85964 -2.34439 12.9003 17
187 2 -13.9316 0.491221 5.14583 13
188 2 -9.61923 -2.29843 11.5629 7
189 2 -8.06637 -9.60541 0.828446 16
190 2 -13.6339 -3.39536 2.61516 14
191 2 -12.2774 -2.48058 6.15069 16
192 2 -12.774 -2.52084 -0.607695 13
193 2 -9.06055 -6.3502 2.15839 21
194 2 -13.0531 -6.88162 2.46083 10
195 2 -8.90728 -2.48299 4.29129 20
196 2 -4.19866 -8.94848 7.68378 16
197 2 -13.5566 -6.05906 0.144064 11
198 2 -8.2457 -5.70036 4.62092 18
199 2 -7.8921 -6.81311 -0.567268 21
200 2 -10.8339 -7.98212 4.85647 15
201 2 -9.48617 -4.52134 6.68816 19
202 2 -7.43947 -5.46627 9.92015 17
203 2 -9.06584 -7.57437 7.79075 13
204 2 -9.46438 -1.00065 1.56304 20
205 2 -8.12667 -3.80676 0.847212 17
206 2 -6.23211 -8.18134 10.4909 11
207 2 -2.89773 -8.03848 10.6858 18
208 2 -8.06196 -1.21493 6.34681 20
209 2 -6.7584 -3.52907 7.31957 21
210 2 -6.62024 -3.3762 12.9355 14
211 2 -5.6881 -11.1294 -0.463361 15
212 2 -1.10828 -8.19132 6.30388 15
213 2 -5.9181 -10.123 5.30652 9
214 2 -6.13414 -6.55207 2.09548 18
215 2 -3.37492 -12.1605 2.18809 12
216 2 -5.14691 -5.97053 12.2986 15
217 2 -4.57283 -9.27817 1.4492 18
218 2 -6.58272 -7.02705 6.41075 17
219 2 -4.82646 -5.08864 4.51695 17
220 2 -5.76049 -2.42828 4.18199 20
221 2 -5.78451 -0.765951 1.21533 23
222 2 -4.27942 -3.76357 1.45298 19
223 2 -4.78654 -5.48964 8.86918 21
224 2 -5.17134 -2.48435 9.96719 19
225 2 -5.16556 -0.463948 6.45141 22
226 2 -3.83876 -3.11363 6.73 22
227 2 -4.54699 -0.453388 12.5352 17
228 2 -3.34765 -3.19421 12.0459 18
229 2 -2.64266 -8.60516 -0.658395 17
230 2 -0.273861 -13.438 -2.75756 12
231 2 1.90516 -9.2244 1.16665 18
232 2 -2.70589 -9.89108 4.44153 16
233 2 -3.06384 -6.8665 2.97614 17
234 2 -1.24591 -9.34414 1.97963 18
235 2 -0.480143 -8.44261 11.7439 13
236 2 -2.81053 -6.23832 6.60829 21
237 2 -1.32149 -7.13653 9.2508 22
238 2 -2.06917 -6.00991 12.8474 15
239 2 -0.506028 -5.38975 4.71647 20
240 2 -2.26683 -2.58433 3.9435 20
241 2 -2.38995 -0.519413 1.19388 21
242 2 -0.996743 -3.7104 1.73437 19
243 2 -1.66604 -4.72949 9.75535 22
244 2 -2.05828 -1.94824 9.25567 20
245 2 -1.89923 -0.635506 6.66254 22
246 2 -0.154226 -3.91413 7.35102 19
247 2 -1.71249 -0.632822 12.2742 16
248 2 -0.253675 -3.43442 13.0605 14
249 1 -11.2393 -5.35813 -3.9636 16
250 1 -11.3729 1.39164 -10.1838 9
251 1 -8.78913 4.65961 -6.18638 21
252 1 -12.934 -0.387719 -6.98296 8
253 1 -10.8785 0.560871 -3.26568 19
254 1 -12.2533 3.05456 -3.94136 11
255 1 -9.43303 8.81783 -4.38473 14
256 1 -10.5684 5.85965 -4.0619 15
257 1 -5.54762 2.99324 -9.08849 20
258 1 -8.64231 -1.32566 -10.9225 14
259 1 -7.04832 -0.119404 -8.34925 23
260 1 -8.88449 2.30382 -8.62426 19
261 1 -7.05117 2.16436 -6.14522 25
262 1 -7.32235 0.374624 -3.37112 24
263 1 -9.20531 2.72595 -3.52077 21
264 1 -5.53666 8.34864 -9.83754 16
265 1 -5.4078 10.5604 -7.56647 13
266 1 -7.67671 5.97872 -3.79625 21
267 1 -9.16957 7.73555 -8.11493 11
268 1 -7.21872 10.3395 -4.30376 15
269 1 -5.45034 5.0528 -11.6853 13
270 1 -3.6804 1.93202 -11.9185 14
271 1 -3.62322 0.260501 -8.62337 21
272 1 -7.33403 5.85877 -8.77315 18
273 1 -5.83978 4.90325 -6.18796 24
274 1 -3.85259 2.11355 -6.12736 20
275 1 -3.95211 0.361941 -3.40285 21
276 1 -5.46939 3.27313 -3.70284 21
277 1 -3.61165 7.96392 -12.0047 13
278 1 -4.0781 6.11718 -9.06544 22
279 1 -1.90191 10.7135 -7.38324 18
280 1 -6.82828 7.74093 -6.10109 19
281 1 -4.01776 8.03624 -6.50443 24
282 1 -3.98639 5.91177 -3.60634 21
283 1 -5.22505 8.6907 -3.50923 22
284 1 -4.30781 11.2314 -4.81324 13
285 1 -2.15648 -1.46162 -11.3767 14
286 1 -0.342744 7.40073 -12.0035 17
287 1 -0.552428 1.32809 -11.4418 17
288 1 -0.399805 -0.232501 -8.48578 22
289 1 -2.08163 3.11322 -9.12391 20
290 1 -2.20035 4.88155 -6.60283 19
291 1 -0.460982 2.16622 -6.20164 19
292 1 -0.540424 0.133279 -3.45364 20
293 1 -1.88612 2.81444 -4.05673 21
294 1 -2.05831 9.64358 -13.4243 8
295 1 -0.608484 5.7122 -8.61703 22
296 1 -2.08825 8.32691 -9.08436 24
297 1 -0.730279 10.9903 -10.5886 14
298 1 -0.470072 8.22957 -6.37614 23
299 1 -0.404092 5.77081 -4.14053 21
300 1 -1.94422 8.81712 -4.02132 21
301 1 -3.76433 10.6221 -10.5535 12
302 1 -0.176768 11.2071 -4.60886 15
303 2 -11.0847 -3.4934 1.74856 19
304 2 -11.9814 -2.13033 -7.26447 12
305 2 -10.4844 6.42309 -8.87153 8
306 2 -8.57679 4.51736 -8.4723 17
307 2 -10.3128 2.81712 -9.95283 10
308 2 -11.0989 0.485342 -0.778571 18
309 2 -12.621 2.9778 -2.09358 11
310 2 -12.3399 5.17571 -3.27985 10
311 2 -10.743 2.03539 -4.66884 17
312 2 -10.3097 -0.370973 -10.0112 13
313 2 -10.9892 5.67298 -0.608978 15
314 2 -10.38 7.58349 -3.00373 16
315 2 -6.88471 -0.440478 -11.252 14
316 2 -6.95613 0.191128 -6.06585 20
317 2 -11.3325 0.623125 -7.34834 13
318 2 -7.28747 5.95529 -6.39308 19
319 2 -7.24819 1.79177 -9.44775 18
320 2 -7.72007 0.138089 -0.607716 18
321 2 -9.45835 2.87121 -1.44208 23
322 2 -9.12293 4.53047 -4.19522 20
323 2 -7.26049 2.12509 -3.89897 23
324 2 -5.58091 5.08366 -9.88933 18
325 2 -6.79403 7.51083 -8.8692 19
326 2 -5.14382 10.1178 -9.24817 14
327 2 -7.66008 6.11937 -1.69225 20
328 2 -9.08566 8.96036 -0.542203 16
329 2 -8.79513 10.1102 -3.23696 14
330 2 -6.86018 7.79753 -4.11852 20
331 2 -7.65787 11.4875 -0.782276 13
332 2 -3.52817 -0.074917 -11.7319 14
333 2 -5.29815 3.07054 -11.6939 12
334 2 -3.91335 0.270519 -6.41057 20
335 2 -5.56961 3.12093 -7.04375 25
336 2 -2.29123 10.7239 -9.35505 14
337 2 -3.75637 2.21815 -9.37052 21
338 2 -4.04624 0.237646 -1.28064 22
339 2 -5.8704 2.77483 -1.63727 22
340 2 -5.60857 4.82095 -4.43752 22
341 2 -4.01499 2.01018 -4.17469 23
342 2 -4.86589 6.79584 -12.1965 11
343 2 -4.12096 6.18236 -6.98673 22
344 2 -7.11542 9.6365 -6.20359 16
345 2 -3.66025 7.67629 -9.99213 21
346 2 -3.63707 5.97123 -1.49829 20
347 2 -5.53915 8.31866 -1.65042 21
348 2 -3.70178 10.4884 -6.30581 17
349 2 -3.66737 7.98218 -4.42114 21
350 2 -3.48311 10.1378 -12.1738 12
351 2 -5.55247 10.8272 -3.56527 12
352 2 -9.27442 8.30277 -6.28763 15
353 2 -0.594723 -0.524386 -11.3131 16
354 2 -1.78669 2.59949 -11.9963 12
355 2 -0.515906 0.119195 -6.60583 24
356 2 -1.99326 3.06309 -5.97174 21
357 2 -2.3263 4.86259 -8.69801 18
358 2 -0.636128 1.75359 -9.10194 20
359 2 -0.756544 -0.0548896 -1.48201 19
360 2 -2.28261 2.73931 -1.82683 21
361 2 -2.11635 4.94897 -3.79505 19
362 2 0.00900614 1.88021 -4.16755 20
363 2 -0.399537 5.56298 -11.5738 14
364 2 -0.506936 6.1925 -6.51717 21
365 2 -2.37864 8.43762 -7.32648 21
366 2 -1.81645 7.78852 -12.8726 13
367 2 -0.454288 7.46855 -9.59291 22
368 2 -0.834146 5.70365 -0.520957 19
369 2 -2.11501 8.68666 -1.81046 18
370 2 -1.52202 10.6527 -3.45229 18
371 2 -0.174101 8.00581 -3.99615 19
372 2 -0.42527 10.4858 -12.2503 10
373 2 -0.119837 11.3971 -0.469478 17
374 2 5.21628 11.1102 5.35131 14
375 2 -0.413696 10.4282 -6.40571 17
376 1 -11.0554 -2.09265 -5.03398 18
377 1 -14.0438 2.54294 4.80484 9
378 1 -11.5248 -4.06861 6.92581 14
379 1 -12.5353 5.05011 -1.46583 11
380 1 -11.136 2.35772 -0.336557 19
381 1 -11.4423 0.56255 2.22327 20
382 1 -12.5624 3.52113 2.51811 14
383 1 -11.5518 5.55775 4.92418 13
384 1 -14.0286 -5.17915 2.25433 11
385 1 -11.0649 -7.58026 6.80908 10
386 1 -12.5328 -2.84122 4.11095 18
387 1 -12.4721 -1.62033 7.92361 9
388 1 -10.509 7.90915 -1.06606 15
389 1 -10.7196 5.90145 1.37939 17
390 1 -8.48094 7.12102 6.36874 9
391 1 -5.1072 3.25562 12.1635 14
392 1 -8.95964 4.8478 -0.614535 21
393 1 -7.60184 2.14198 -1.02663 21
394 1 -7.60297 0.404268 1.62497 19
395 1 -9.17544 3.19051 2.15698 21
396 1 -12.2141 -0.395992 5.82083 14
397 1 -7.57233 2.00936 4.67973 21
398 1 -7.07539 0.127783 7.29549 22
399 1 -8.09183 -0.673411 10.0967 18
400 1 -8.51337 4.95968 4.65521 20
401 1 -8.54012 3.31956 7.81522 15
402 1 -8.11968 -2.37554 12.8274 9
403 1 -9.2105 10.6863 -1.26482 11
404 1 -7.51271 7.86878 -1.27182 22
405 1 -7.08756 5.68867 1.79336 21
406 1 -8.8236 9.15918 1.4248 16
407 1 -9.90202 8.37628 3.89334 13
408 1 -7.04336 9.90733 4.12994 12
409 1 -5.88103 5.59789 9.68412 14
410 1 -5.58806 6.93343 7.20934 14
411 1 1.71902 9.63879 11.726 10
412 1 -7.43753 11.4182 1.0711 11
413 1 -5.55953 4.97844 -1.0398 22
414 1 -4.01975 2.12501 -0.952787 23
415 1 -3.98529 0.370923 2.24716 22
416 1 -5.75513 3.16078 1.81912 22
417 1 -5.28595 4.87759 4.12202 20
418 1 -3.99048 2.30692 4.73284 22
419 1 -3.50704 0.335691 6.85893 22
420 1 -5.43582 3.48954 7.00252 19
421 1 -10.1746 1.15544 8.25684 13
422 1 -3.76756 2.61883 9.23783 22
423 1 -3.20227 0.729269 12.597 16
424 1 -6.67638 0.433424 13.0777 12
425 1 -5.59189 11.1156 -1.61703 16
426 1 -3.73324 7.86242 -1.04003 22
427 1 -3.68725 6.15374 1.54574 24
428 1 -5.54021 8.85683 1.676 21
429 1 -1.59129 9.18168 6.63092 17
430 1 -3.79507 7.89998 4.33031 17
431 1 -3.17516 5.98368 6.07883 22
432 1 0.295392 11.925 6.42434 14
433 1 -3.22294 7.85451 8.62485 17
434 1 -7.03168 2.14402 9.86932 17
435 1 7.98403 9.0583 1.38723 14
436 1 -4.06679 11.8986 0.353635 10
437 1 -0.823821 8.33652 10.3058 17
438 1 -2.02139 4.66835 -1.48097 18
439 1 -0.441606 1.85275 -0.926853 23
440 1 -0.644923 -0.0829943 1.88061 20
441 1 -2.37048 2.7164 1.25768 22
442 1 -2.23531 4.47954 3.77958 18
443 1 -0.292002 2.08114 4.51851 22
444 1 -0.152413 0.327464 6.98237 20
445 1 -1.84383 2.88923 7.27348 22
446 1 -1.63862 3.30535 11.91 18
447 1 0.229626 2.33619 9.28865 19
448 1 0.01167 0.303795 12.5312 16
449 1 -1.89443 5.1036 9.15381 22
450 1 -1.86512 10.5421 -1.44366 17
451 1 -0.570238 7.96137 -0.967217 22
452 1 -0.333697 5.51677 1.60135 21
453 1 -2.53441 9.28904 1.83121 20
454 1 -1.52772 11.3665 3.7819 15
455 1 -0.320176 7.58925 4.10259 23
456 1 -0.229446 6.25961 6.93479 21
457 1 1.31169 9.11654 5.5345 18
458 1 -3.25893 6.38184 11.7153 12
459 1 -0.00857276 6.3278 12.2228 12
460 1 0.36704 14.7069 4.00017 8
461 1 -0.777173 11.9634 1.30152 14
462 1 5.5308 11.0759 3.55112 14
463 1 -1.32097 11.1693 8.52094 10
464 2 -12.0299 -5.85636 6.24292 12
465 2 -12.8321 -0.696158 1.79196 15
466 2 -11.033 0.38413 4.34542 22
467 2 -9.97686 6.35341 5.57534 12
468 2 -11.7588 5.73774 3.02931 14
469 2 -11.1598 2.35058 1.78917 17
470 2 -8.79472 2.27548 9.3861 10
471 2 -6.48424 0.208988 9.19441 22
472 2 -11.5343 -2.92184 8.90496 10
473 2 -10.0313 7.60237 2.2407 16
474 2 -8.31054 10.6942 2.80621 12
475 2 -4.79668 5.14072 11.52 12
476 2 -7.80358 0.40854 3.5908 19
477 2 -9.23049 3.44099 4.03296 22
478 2 -8.70561 4.72699 1.43702 19
479 2 -7.51501 2.50268 0.853589 23
480 2 -7.42235 -0.843227 11.9828 14
481 2 -10.1534 2.46074 6.67308 15
482 2 -11.6415 0.0980785 7.5781 11
483 2 -4.78523 5.16324 6.58219 22
484 2 -8.09282 -2.34137 9.16716 19
485 2 -7.0028 5.96002 3.70632 24
486 2 -8.57207 8.61819 5.33142 12
487 2 -3.24083 7.91245 6.45516 17
488 2 -7.18202 7.83623 1.17861 21
489 2 -7.09538 2.3621 7.08767 21
490 2 -7.23597 6.30085 7.25291 14
491 2 -5.58572 10.5188 0.858456 17
492 2 -3.85235 0.409773 4.24568 19
493 2 -5.83243 2.92206 3.9664 24
494 2 -5.38448 5.08222 1.17648 21
495 2 -4.26745 2.09054 1.07786 21
496 2 -3.50709 0.675639 9.77025 24
497 2 -11.7994 -4.68413 4.18388 20
498 2 -12.4701 3.63313 4.67111 12
499 2 -3.71879 2.33171 6.8509 18
500 2 -5.46385 3.48842 9.24255 18
501 2 -3.32574 2.43874 12.0317 17
502 2 -3.38231 5.80853 3.98662 20
503 2 -5.36651 8.86341 3.81166 16
504 2 -3.68284 11.4474 -1.29817 15
505 2 -3.90471 7.83406 1.02197 20
506 2 -13.831 2.13774 2.74601 10
507 2 0.477895 8.24943 11.7614 13
508 2 -1.00046 10.7695 5.54141 16
509 2 -0.142767 7.91853 6.21439 19
510 2 0.0633948 12.468 8.51327 10
511 2 0.847036 11.5183 11.4554 8
512 2 -0.101356 0.213552 3.75595 22
513 2 -2.11308 2.80853 4.57918 22
514 2 -2.40188 4.58509 1.55191 19
515 2 -0.564661 1.92738 1.06335 24
516 2 -0.0596326 0.290322 9.08424 22
517 2 -1.36907 3.35783 9.30991 21
518 2 -1.82056 5.11004 7.23608 21
519 2 0.111212 2.24807 6.70904 19
520 2 -6.55381 1.972 11.7316 15
521 2 -0.237496 2.09401 12.1899 15
522 2 -0.560112 5.604 3.43042 21
523 2 -2.27494 8.52782 3.53993 19
524 2 -2.52319 11.268 1.91127 15
525 2 -1.0047 8.7891 0.769212 19
526 2 -1.75815 5.22339 12.3451 14
527 2 1.34993 11.0504 5.17358 19
528 2 -1.74109 9.38552 8.64319 16
529 2 -2.30758 6.76402 10.1035 17
530 2 -4.7778 7.03415 9.06889 14
531 2 4.73955 10.6951 1.77882 20
532 2 3.57058 5.87384 8.91156 20
533 1 -0.828362 -8.71463 -9.03368 19
534 1 1.13949 -7.09988 -10.5055 18
535 1 -3.32878 -9.88741 -12.4471 8
536 1 1.07047 -6.94644 -6.13894 16
537 1 3.46961 -10.0985 -6.69683 18
538 1 0.356321 -10.919 -7.42643 14
539 1 1.42518 -8.8198 -3.26174 17
540 1 -3.95091 -4.28785 -11.1316 14
541 1 1.22083 -1.20238 -11.2773 16
542 1 2.79596 -4.27314 -11.7343 14
543 1 2.80172 -6.20217 -8.22947 18
544 1 1.82829 -3.19781 -8.93667 23
545 1 1.23479 -0.935414 -6.31723 20
546 1 3.01239 -4.04601 -5.78245 22
547 1 2.76666 -5.81901 -3.52255 21
548 1 1.31634 -3.19434 -3.059 20
549 1 4.30794 -6.97612 -11.1469 12
550 1 5.43872 -8.93099 -8.85005 14
551 1 4.36888 -7.0104 -5.90146 23
552 1 12.1987 -5.25807 -5.16187 11
553 1 5.28389 -12.1906 -7.80499 7
554 1 4.5521 -9.03077 -3.41133 18
555 1 4.83308 -1.24465 -11.5472 18
556 1 5.8619 -3.94369 -11.7691 14
557 1 7.9789 -3.00295 -8.94923 17
558 1 4.97088 -3.2149 -8.46091 20
559 1 4.59795 -0.849482 -5.8588 22
560 1 6.23328 -4.1103 -5.78513 20
561 1 5.90427 -6.08585 -3.42342 18
562 1 4.65971 -2.94301 -3.28162 22
563 1 11.515 -2.8618 -7.03226 13
564 1 8.32525 -9.3913 -3.2354 10
565 1 8.21667 -0.662894 -11.624 10
566 1 7.07734 -5.79935 -9.7712 15
567 1 7.58726 -1.1928 -5.97338 20
568 1 13.8688 -2.28565 -4.85713 8
569 1 6.86186 -7.53665 -7.12932 15
570 1 10.622 -4.47916 -9.42832 9
571 1 7.87644 -2.73228 -2.99329 22
572 1 7.69923 -9.31716 0.909447 10
573 1 12.021 3.04733 -5.07692 16
574 1 9.11377 -5.0388 -6.90015 16
575 2 1.21662 -11.9823 -0.37285 14
576 2 2.49039 -12.7899 -3.49272 12
577 2 3.92954 -8.26527 -9.66132 17
578 2 -1.28627 -10.7969 -8.32606 13
579 2 -0.132663 -6.02883 -11.3582 16
580 2 4.9936 -8.78103 -6.70049 20
581 2 -0.349733 -12.3349 -5.9576 14
582 2 0.56475 -8.71958 -1.23844 19
583 2 1.01753 -6.91745 -4.11865 18
584 2 3.25447 -10.1034 -4.63377 16
585 2 2.75359 -5.77793 -10.9082 15
586 2 1.70792 -3.11446 -10.8914 15
587 2 2.8155 -5.87813 -6.31979 19
588 2 1.17302 -2.93633 -6.13138 19
589 2 1.36571 -1.06445 -8.86338 20
590 2 3.49601 -4.41039 -8.71305 23
591 2 2.11743 -5.79424 -1.5004 20
592 2 1.21181 -2.94253 -0.978074 20
593 2 1.02608 -1.16395 -3.33803 18
594 2 3.02667 -3.86395 -3.83768 22
595 2 6.17665 -10.5144 -7.77126 11
596 2 8.98984 -4.91465 -8.73522 13
597 2 4.31733 -3.00542 -12.0274 14
598 2 6.45531 -9.75196 -4.0955 17
599 2 3.78668 -10.109 -1.80843 17
600 2 3.81671 -7.22548 -4.05029 20
601 2 6.31148 -7.26321 -9.1352 14
602 2 8.01981 -1.28085 -9.86873 19
603 2 13.0287 -1.99464 -6.35248 11
604 2 4.78446 -2.91769 -6.16029 19
605 2 4.63787 -1.45079 -9.58833 23
606 2 6.20269 -5.99219 -5.76381 16
607 2 7.47434 -7.52087 1.14673 15
608 2 4.22771 -3.01044 -1.38308 24
609 2 4.87004 -0.842115 -4.02533 23
610 2 6.1802 -4.05327 -3.98196 22
611 2 5.53975 -6.07463 -1.46011 20
612 2 5.86271 -5.86202 -11.506 10
613 2 6.32942 -3.80058 -9.69311 16
614 2 8.1058 -6.24214 -2.83225 16
615 2 9.40167 -3.28258 2.18375 20
616 2 9.84897 1.09542 -9.44348 15
617 2 10.5515 -2.71513 -8.55967 12
618 2 9.92068 2.14361 -2.776 19
619 2 7.9091 -3.14991 -6.95721 23
620 2 9.69103 -9.19578 -4.54807 9
621 2 7.58442 -2.68213 -1.16099 21
622 2 8.04773 -0.918957 -3.90738 22
623 2 13.0631 -3.71273 -4.22806 9
624 2 9.35918 -0.0738507 -1.10963 20
625 2 10.8755 -4.50586 -6.58518 15
626 2 8.66113 -7.65954 -6.83749 14
627 2 11.2286 -1.77573 5.72776 16
628 2 12.9021 0.35111 -1.18761 16
629 2 14.7682 -1.38466 0.772993 9
630 2 10.8372 -2.70772 -0.883507 15
631 1 3.90118 -11.7759 -3.9588 13
632 1 -1.78696 -10.9981 2.69749 14
633 1 0.423049 -6.81688 -0.860521 21
634 1 2.15024 -10.1177 -0.643458 16
635 1 0.696065 -11.957 1.46013 13
636 1 0.429017 -8.37024 2.035 22
637 1 0.814858 -6.5352 4.92451 22
638 1 2.19123 -9.94658 4.49301 19
639 1 1.1908 -7.78834 12.7386 12
640 1 -1.45817 -9.37705 10.4136 13
641 1 0.552973 -7.40297 10.1843 21
642 1 3.93151 -8.55027 7.10796 21
643 1 1.11233 -0.864356 -0.944406 21
644 1 2.5888 -4.16332 -0.817992 21
645 1 2.30013 -5.68708 1.95444 24
646 1 0.717192 -2.85505 1.41708 21
647 1 1.41055 -0.669937 4.17035 21
648 1 2.77523 -3.9675 4.2407 19
649 1 2.32652 -5.67053 7.80748 21
650 1 1.03667 -2.7071 6.29184 18
651 1 1.38786 -0.821492 9.55865 21
652 1 3.26281 -3.47158 9.53693 21
653 1 3.1157 -5.69981 11.5709 16
654 1 1.36616 -3.15035 11.7777 16
655 1 6.08476 -11.2361 2.32118 10
656 1 3.23948 -13.1694 3.75172 7
657 1 3.89623 -6.94179 -0.889558 24
658 1 6.86942 -9.9834 -5.92838 16
659 1 7.55291 -7.22622 -1.34152 16
660 1 3.50053 -8.64916 2.14687 18
661 1 4.20635 -7.00342 4.61866 20
662 1 5.29477 -11.0308 8.39676 12
663 1 6.69694 -8.97799 7.07046 15
664 1 6.63499 -5.93757 11.4286 13
665 1 4.46585 -1.33864 -0.398875 23
666 1 6.08476 -4.02355 -0.960785 20
667 1 5.79247 -6.30976 1.58808 20
668 1 3.92007 -2.99168 1.85296 21
669 1 4.64997 -1.01571 4.22923 20
670 1 6.10198 -4.37081 3.972 22
671 1 5.58698 -5.6681 7.37391 19
672 1 4.82291 -2.78425 6.84294 21
673 1 4.94889 -0.62801 9.34384 21
674 1 8.56915 -3.10372 11.7967 12
675 1 5.08368 -2.76379 11.6322 16
676 1 9.34371 -4.2515 -1.24206 15
677 1 10.212 -7.82084 -5.93522 10
678 1 9.71316 0.669452 -6.23727 18
679 1 9.23494 -6.76147 4.92429 13
680 1 7.39079 -7.99757 3.54829 15
681 1 4.44573 -8.17076 10.8072 15
682 1 8.33889 -8.71324 9.56707 8
683 1 7.97222 -1.0869 -0.151945 24
684 1 11.1621 -2.78349 1.25449 17
685 1 9.15258 -6.69607 1.4688 13
686 1 7.84105 -3.93071 1.34232 19
687 1 7.94626 -1.40885 3.53292 21
688 1 6.84872 1.89054 9.50381 21
689 1 4.81019 -11.1369 5.36128 13
690 1 8.08908 -3.31501 6.38145 19
691 1 6.79933 0.0380675 11.7966 12
692 1 9.82683 -6.44101 10.8493 10
693 1 9.36938 -5.49422 -4.09911 18
694 1 11.3584 -3.00081 -3.01934 13
695 1 9.77503 -3.75325 4.40424 18
696 1 12.8148 0.482142 -6.03803 12
697 1 13.5176 -0.366356 1.55058 15
698 1 11.4048 -0.659632 -0.504704 19
699 1 14.4018 -3.02888 0.175441 9
700 1 11.6116 -1.21877 3.68387 17
701 1 11.7012 -3.20508 6.778 14
702 1 8.76456 -6.05413 7.65887 15
703 2 3.39294 -12.3709 5.74558 11
704 2 4.33739 -6.61959 6.46924 20
705 2 2.06629 -10.2202 6.2479 18
706 2 0.931604 -8.44484 4.48831 20
707 2 0.666087 -6.46946 1.351 23
708 2 6.20595 -10.4382 0.704831 10
709 2 0.380143 -9.37156 9.58584 17
710 2 1.11315 -6.84763 6.96199 22
711 2 2.5792 -8.57131 11.6956 11
712 2 1.19155 -6.04038 11.5201 20
713 2 2.8928 -5.79903 3.59348 21
714 2 1.0924 -2.83677 3.88714 22
715 2 0.943458 -0.836179 0.985586 23
716 2 2.3463 -3.77332 1.28517 21
717 2 3.07957 -5.20363 9.55224 19
718 2 1.27393 -2.65972 9.61362 20
719 2 1.25596 -0.384052 6.12132 22
720 2 2.88037 -3.46675 6.3964 22
721 2 1.51436 -0.894588 11.6436 17
722 2 6.6195 -4.05661 11.3023 14
723 2 4.94658 -12.085 3.5597 11
724 2 1.57905 -11.9478 3.0891 15
725 2 3.79105 -8.91444 4.22125 19
726 2 3.94393 -6.99891 1.30342 17
727 2 10.7871 -6.67258 -4.72466 11
728 2 4.12036 -8.28257 8.97686 21
729 2 5.90628 -6.50382 3.43342 20
730 2 3.29804 -11.4232 9.12102 12
731 2 4.91226 -0.656037 11.5367 16
732 2 9.42223 -5.0783 5.93944 17
733 2 4.66913 -2.89608 3.83523 19
734 2 4.33507 -0.94297 1.51589 18
735 2 5.72114 -4.10756 1.03856 22
736 2 6.88259 -9.99749 8.82974 11
737 2 4.96854 -2.54683 9.34285 20
738 2 5.12221 -1.00407 6.39993 19
739 2 4.9498 -6.66115 11.7153 11
740 2 3.32467 -3.35633 11.6181 16
741 2 6.7491 0.13736 8.71805 20
742 2 7.64917 -7.83461 5.40174 14
743 2 7.0928 -9.17453 -1.52771 14
744 2 11.5382 -0.72001 1.53468 23
745 2 4.99361 -10.0169 6.98088 17
746 2 6.45357 -3.85009 7.22426 18
747 2 7.73844 -3.36527 4.21188 21
748 2 7.9199 -0.357011 1.68573 21
749 2 8.50111 -5.4465 0.0778044 16
750 2 7.11136 -7.00424 8.1476 20
751 2 9.86335 -4.39285 11.1728 11
752 2 8.51963 -3.99683 8.48481 21
753 2 8.25036 -6.94631 10.8237 14
754 2 8.45085 2.81054 8.65529 21
755 2 9.61001 -3.65232 -3.17553 15
756 2 11.493 -2.30469 8.43416 12
757 2 11.5483 -3.07052 3.21213 18
758 2 13.8491 -3.93575 1.71127 7
759 2 9.34568 -6.12004 3.17896 15
760 1 5.51613 1.60769 -11.2752 15
761 1 -2.03651 4.83421 -11.7618 18
762 1 1.09067 4.36107 -11.1637 19
763 1 2.52632 1.43828 -12.2076 14
764 1 3.17159 -0.0222092 -8.98038 22
765 1 1.13304 2.37816 -8.90224 20
766 1 1.34487 5.0254 -6.56433 19
767 1 2.80611 1.58334 -6.0352 20
768 1 3.05775 -0.169874 -3.52157 20
769 1 1.46301 2.91704 -3.64872 20
770 1 2.99724 7.28504 -11.484 12
771 1 3.15141 5.53746 -8.75766 19
772 1 1.10488 8.5297 -9.0503 18
773 1 1.38528 10.9581 -7.56206 13
774 1 3.16888 8.03946 -6.65239 19
775 1 2.90572 6.01843 -4.03999 18
776 1 1.43596 9.07648 -3.80452 20
777 1 3.12131 12.0089 -4.79749 13
778 1 4.34926 4.36604 -11.2515 15
779 1 8.08218 2.09488 -9.03233 20
780 1 6.55857 -0.527313 -8.79168 22
781 1 4.78922 2.46084 -8.35262 21
782 1 4.95977 5.04231 -5.95136 19
783 1 6.48934 1.5956 -6.0297 21
784 1 6.20396 0.0373816 -2.97476 23
785 1 4.5284 2.9477 -3.49309 21
786 1 6.7232 5.32112 -8.75509 17
787 1 4.93744 8.16903 -8.95407 16
788 1 4.80067 10.7742 -6.92817 13
789 1 6.37648 7.51363 -6.4131 19
790 1 6.22163 5.86232 -3.43437 18
791 1 4.52035 8.72632 -3.49856 20
792 1 6.28524 11.9735 -4.17299 11
793 1 9.82686 -0.914226 -9.10427 15
794 1 8.70267 7.47857 -8.5076 12
795 1 7.63222 3.9544 -6.07005 18
796 1 11.3485 2.30768 -8.91413 13
797 1 9.70201 0.263225 -3.59024 19
798 1 8.06751 2.9057 -3.33036 21
799 1 1.3316 10.0609 -13.0953 8
800 1 9.34117 8.3941 -5.50291 13
801 1 9.90348 5.11956 -4.607 15
802 1 8.12978 10.6774 -6.45999 11
803 1 11.6732 5.4706 -7.75755 9
804 1 10.0085 5.06823 -9.63895 10
805 1 13.8013 0.417172 -2.7829 11
806 1 13.4852 1.60509 -0.172116 12
807 2 2.94325 -0.278534 -11.3077 16
808 2 1.21352 2.48507 -11.6434 15
809 2 2.91641 -0.344057 -6.76713 22
810 2 1.32591 2.8025 -6.54149 21
811 2 1.31309 4.44737 -9.00043 19
812 2 3.07924 2.08683 -8.50534 20
813 2 3.36696 0.170904 -1.6357 21
814 2 0.900397 3.1337 -1.49725 21
815 2 1.25715 4.95385 -4.35456 19
816 2 2.92924 1.85808 -3.84894 20
817 2 2.99607 5.33964 -11.758 13
818 2 3.24193 5.82277 -6.7482 19
819 2 1.52908 9.02465 -7.18451 21
820 2 1.526 8.27397 -11.9267 12
821 2 3.16691 7.31999 -9.48279 16
822 2 2.74039 6.05912 -1.29061 20
823 2 1.52708 8.99641 -1.73181 19
824 2 1.50587 11.2712 -4.05626 16
825 2 3.01832 8.16004 -4.56118 23
826 2 3.0574 11.303 -6.48782 14
827 2 1.09058 10.9963 1.89155 15
828 2 2.67562 14.3748 4.01444 9
829 2 4.61862 11.012 -3.65364 15
830 2 6.40045 -0.173563 -11.7779 12
831 2 4.01874 2.56384 -11.8135 14
832 2 6.13959 -0.168666 -6.73795 23
833 2 4.95551 2.80521 -6.28375 21
834 2 4.98352 4.67502 -9.12975 18
835 2 6.20303 1.73749 -9.48135 22
836 2 6.33488 -0.128226 -1.02991 21
837 2 4.6216 2.88746 -1.27768 20
838 2 4.59035 4.81725 -4.01038 20
839 2 6.72084 1.69426 -4.10394 22
840 2 6.98315 5.62872 -6.7851 20
841 2 5.00743 8.87456 -7.18999 16
842 2 6.70506 7.40899 -8.80321 11
843 2 6.50871 6.08135 -1.5993 20
844 2 4.82447 9.28371 -1.44165 21
845 2 0.926623 10.7892 -9.45745 13
846 2 6.13427 7.65067 -4.49852 18
847 2 7.63092 10.5446 0.0854091 16
848 2 11.3006 4.07429 -8.87542 10
849 2 12.2642 1.25417 -7.61001 12
850 2 8.58522 2.35158 -6.77132 23
851 2 8.61251 -0.339761 -7.52275 18
852 2 9.46416 0.0459341 3.85727 20
853 2 7.9139 3.22787 -1.17935 19
854 2 7.80578 4.4823 -4.23313 21
855 2 13.6411 -0.611801 -4.25786 9
856 2 6.5949 11.5517 -6.13847 11
857 2 9.17618 10.4064 -4.96867 9
858 2 10.9219 4.68671 -6.13107 15
859 2 11.6126 7.90619 -1.64303 8
860 2 8.4013 8.72701 -7.22495 13
861 2 13.1156 2.21008 -3.36753 12
862 2 10.4643 6.71092 -8.90855 10
863 2 13.1082 0.118579 4.4977 13
864 2 11.0623 1.22196 -5.0675 17