ITEM: TIMESTEP
65000
ITEM: NUMBER OF ATOMS
1000
ITEM: BOX BOUNDS pp pp pp
-30.0 30.0
-30.0 30.0
-30.0 30.0
ITEM: ATOMS id type x y z Coordination
1 1 -11.7096 -1.20599 -6.06901 14
2 1 -10.3575 -3.91504 -6.27253 15
3 1 -10.1572 -5.66524 -4.22268 17
4 1 -12.9725 -3.49238 -4.29109 12
5 1 -8.47101 -7.02741 -6.5848 14
6 1 -6.61314 -9.78163 -5.60116 13
7 1 -7.2451 -11.5015 -2.70958 14
8 1 -8.53946 -8.93743 -3.51852 15
9 1 -8.56014 -1.18101 -11.5627 13
10 1 -7.17379 -4.23379 -11.3042 13
11 1 -6.73415 -5.83695 -8.9716 20
12 1 -8.40953 -2.7496 -8.87262 17
13 1 -8.56376 -1.02166 -6.47005 24
14 1 -7.11474 -4.12329 -6.17781 23
15 1 -6.90241 -5.76 -3.44711 23
16 1 -8.4994 -2.87477 -3.31382 22
17 1 -5.59425 -6.96957 -11.3779 13
18 1 -4.98372 -8.46898 -8.66533 16
19 1 -5.31258 -6.90346 -6.09238 22
20 1 -3.41805 -9.72236 -5.91555 21
21 1 -3.44472 -11.5159 -3.0625 19
22 1 -5.0435 -8.6938 -3.27423 23
23 1 -5.24415 -1.02493 -11.6973 19
24 1 -4.21687 -4.28337 -11.0787 20
25 1 -3.63149 -5.67606 -8.41964 26
26 1 -5.41804 -2.74386 -8.64478 26
27 1 -5.22688 -1.01104 -6.09627 24
28 1 -3.72858 -3.64916 -5.90852 24
29 1 -3.87842 -5.54212 -3.45298 21
30 1 -5.33477 -3.00451 -3.51147 23
31 1 -1.99384 -12.6567 -5.48393 11
32 1 -2.56581 -7.32048 -10.7612 16
33 1 -0.833707 -11.4141 -7.73114 11
34 1 -2.06521 -8.44694 -8.26691 20
35 1 -2.0916 -6.33119 -5.77788 23
36 1 -0.414888 -8.90027 -5.88874 20
37 1 -0.0702329 -11.2407 -3.65466 22
38 1 -1.91644 -8.32071 -3.53549 23
39 1 -2.25911 -1.71072 -11.0871 20
40 1 -0.415826 -4.07383 -11.273 20
41 1 -0.484615 -5.58967 -8.40155 24
42 1 -2.12046 -2.75286 -8.64289 25
43 1 -2.18116 -0.804923 -6.03807 24
44 1 -0.40792 -3.61708 -5.81587 23
45 1 -0.318064 -5.60392 -3.22907 24
46 1 -1.77901 -2.74818 -3.42526 26
47 2 -13.8105 -2.63221 -2.89168 12
48 2 -11.9931 -4.97734 -3.72283 12
49 2 -9.12551 -10.9189 -2.88751 10
50 2 -9.77109 -5.74531 -6.47118 12
51 2 -11.9698 -3.05235 -5.95673 13
52 2 -8.55698 -2.99446 -11.1043 12
53 2 -10.3801 -5.74509 -0.846862 15
54 2 -12.1393 -3.59265 -0.947374 19
55 2 -11.939 -0.297779 -4.32537 17
56 2 -9.65937 -3.83029 -4.39376 19
57 2 -8.15303 -8.60353 -5.54374 14
58 2 -7.25048 -6.27641 -10.8919 11
59 2 -6.92808 -11.4262 -0.649246 15
60 2 -8.77027 -8.84272 -1.32172 16
61 2 -8.72137 -6.76404 -3.51824 16
62 2 -6.48464 -9.95574 -3.71666 17
63 2 -6.69815 -5.92803 -7.0049 20
64 2 -8.47989 -2.98441 -7.00337 21
65 2 -8.90057 -1.0664 -9.52254 15
66 2 -6.89991 -3.96437 -9.24326 19
67 2 -6.90648 -5.84978 -1.4627 22
68 2 -8.38491 -3.0126 -1.45411 24
69 2 -8.42458 -1.10812 -4.23693 24
70 2 -6.91956 -3.86346 -4.21553 24
71 2 -5.31178 -12.2775 -2.72405 12
72 2 -2.53889 -11.2561 -6.73355 15
73 2 -5.08392 -8.87142 -6.61671 18
74 2 -5.00671 -6.70162 -9.46468 18
75 2 -3.31652 -8.77818 -9.7181 13
76 2 -2.94222 -11.4456 -1.03587 17
77 2 -5.10302 -8.46468 -1.30428 23
78 2 -5.39218 -6.82648 -4.03984 26
79 2 -3.417 -9.58246 -3.8922 23
80 2 -3.93733 -6.09818 -11.9714 14
81 2 -5.41879 -3.04433 -11.8887 16
82 2 -3.74501 -5.48572 -6.40618 25
83 2 -5.4806 -2.855 -6.75951 23
84 2 -5.32799 -0.66828 -9.60103 24
85 2 -3.84333 -3.87659 -9.1124 20
86 2 -3.55436 -5.64307 -1.37445 26
87 2 -5.15326 -2.83933 -1.48368 25
88 2 -5.15391 -1.08292 -4.15225 24
89 2 -3.39123 -3.75051 -3.94512 23
90 2 0.0144769 -13.3888 -0.694482 13
91 2 -1.75807 -12.4418 -3.62795 15
92 2 -0.0371454 -12.4518 -6.13193 12
93 2 -2.17971 -8.15649 -6.26673 22
94 2 -2.04689 -6.62671 -8.92155 22
95 2 -0.595703 -9.64237 -8.12809 14
96 2 0.17552 -10.8991 -1.7558 20
97 2 -1.80597 -8.53587 -1.35291 24
98 2 -2.15829 -6.29208 -3.87115 23
99 2 -0.362364 -9.30509 -4.0722 23
100 2 -0.933512 -6.17243 -11.6271 13
101 2 -2.40465 -3.61772 -11.7837 16
102 2 -0.380417 -5.70094 -6.4113 23
103 2 -2.10768 -2.6504 -6.6462 24
104 2 -2.19922 -0.916575 -9.30461 23
105 2 -0.505484 -3.82004 -9.3124 23
106 2 -0.271646 -5.71478 -1.32236 24
107 2 -1.53296 -2.556 -1.38216 22
108 2 -1.8098 -0.910935 -4.09809 24
109 2 -0.26318 -3.83414 -3.90728 21
110 1 -14.7662 -2.26126 -1.20037 10
111 1 -12.1275 -5.27754 -1.97699 12
112 1 -9.63106 -10.521 -1.05536 11
113 1 -12.4587 -5.23228 4.24665 11
114 1 -11.8432 -1.60211 -0.775317 23
115 1 -10.0296 -3.806 -0.634515 22
116 1 -10.5394 -5.72413 1.4293 16
117 1 -13.0484 -4.05448 0.839579 16
118 1 -12.4194 -0.680447 4.61182 15
119 1 -10.8315 -2.86737 2.85853 19
120 1 -10.2478 -5.87667 6.74848 10
121 1 -11.6828 -2.9024 6.41875 13
122 1 -8.79975 -6.73171 -1.55161 16
123 1 -6.89258 -9.41402 -0.758947 21
124 1 -7.72225 -11.2499 1.1497 15
125 1 -9.06867 -8.82971 2.11894 15
126 1 -8.97658 -6.52178 4.01237 17
127 1 -6.92698 -9.84244 3.94148 15
128 1 -8.66336 -8.72372 6.00616 11
129 1 -8.32581 -1.05092 -0.817706 24
130 1 -6.70529 -3.96916 -0.930291 22
131 1 -7.05948 -5.56196 1.92272 22
132 1 -8.5939 -2.68956 1.82864 22
133 1 -8.80015 -0.889384 4.71902 24
134 1 -7.18649 -3.79903 4.55764 20
135 1 -6.85317 -5.75706 6.89949 20
136 1 -8.7539 -3.13133 7.43579 20
137 1 -8.55926 -1.00529 9.75648 14
138 1 -6.803 -4.14654 9.81301 15
139 1 -5.35911 -12.8499 -0.777259 12
140 1 -5.10476 -12.5858 2.93501 13
141 1 -5.1372 -6.56535 -0.649073 23
142 1 -3.4655 -9.55714 -0.792186 23
143 1 -3.02474 -11.6978 1.01557 16
144 1 -5.43753 -8.37334 1.7688 22
145 1 -5.41804 -6.84752 4.52116 24
146 1 -3.44847 -9.94272 3.58301 21
147 1 -3.47548 -11.7832 6.04227 13
148 1 -5.25498 -9.02331 6.91506 15
149 1 -5.4894 -7.10085 9.31686 14
150 1 -3.56621 -9.8425 9.05533 11
151 1 -5.18778 -0.926081 -0.834066 25
152 1 -3.44561 -3.57775 -0.758581 23
153 1 -3.68845 -5.57896 2.01124 24
154 1 -5.34736 -2.86104 1.95788 24
155 1 -5.37998 -0.919194 4.57369 24
156 1 -3.53202 -3.88879 4.55061 23
157 1 -3.61279 -5.91023 7.02942 23
158 1 -5.39124 -2.82786 6.90388 21
159 1 -5.06257 -1.0247 9.87037 22
160 1 -3.65001 -4.02029 9.26922 21
161 1 -4.26476 -5.27752 12.2117 11
162 1 -5.34027 -2.85005 12.5455 13
163 1 -1.45293 -12.7662 -1.60789 15
164 1 -1.83546 -12.6478 3.91146 14
165 1 -2.06425 -6.69264 -0.788356 22
166 1 -0.149341 -9.4433 -0.52341 23
167 1 -0.0764476 -13.2308 1.19096 11
168 1 -2.008 -8.33722 1.82309 20
169 1 -1.97251 -6.91957 4.28218 21
170 1 -0.162842 -9.4628 3.54364 20
171 1 -0.0117764 -11.4367 6.31045 15
172 1 -1.96363 -8.82769 6.56262 22
173 1 -2.13961 -6.91278 10.005 19
174 1 -0.462052 -9.65159 9.30729 13
175 1 -1.80849 -0.618109 -0.796736 22
176 1 -0.126359 -3.76147 -0.574901 24
177 1 -0.188936 -5.49018 1.71206 23
178 1 -1.98032 -2.76543 1.93404 24
179 1 -2.11441 -0.93597 4.51903 23
180 1 -0.310803 -3.92387 4.41128 23
181 1 -0.351989 -5.77865 6.97804 24
182 1 -2.17911 -2.84064 7.17121 22
183 1 -1.92121 -1.0469 9.6767 22
184 1 -0.402466 -3.93986 9.62903 22
185 1 -0.77138 -5.62986 12.1457 13
186 1 -2.04391 -2.94504 12.3634 16
187 2 -14.3919 -2.71511 0.505306 10
188 2 -12.4254 -5.21843 2.22279 13
189 2 -9.6665 -10.4822 0.943601 10
190 2 -10.8741 -6.12744 4.7466 13
191 2 -11.9148 -3.08886 4.36115 16
192 2 -11.9323 -1.61522 1.64791 20
193 2 -9.97373 -3.90458 1.44336 21
194 2 -11.8658 -0.9843 6.4524 14
195 2 -10.3814 -4.00271 7.14487 13
196 2 -6.79733 -11.5169 2.80649 14
197 2 -8.54185 -8.78081 3.92431 16
198 2 -8.78627 -6.55725 2.01805 16
199 2 -7.10583 -9.20781 1.22896 18
200 2 -8.61126 -6.81048 6.21244 15
201 2 -6.86056 -9.54929 5.92194 12
202 2 -6.80017 -5.54756 3.93614 21
203 2 -8.57544 -2.73747 3.81706 22
204 2 -8.6073 -0.844075 1.19834 25
205 2 -6.97975 -3.77668 1.20816 23
206 2 -6.69559 -5.75737 8.89329 15
207 2 -8.24784 -2.79477 9.53104 13
208 2 -8.85966 -1.05321 6.78312 20
209 2 -7.15987 -3.70708 6.51145 21
210 2 -5.61287 -4.41779 11.1702 13
211 2 -4.65107 -12.8593 0.99684 12
212 2 -3.81077 -11.8204 4.06567 15
213 2 -4.95761 -8.67127 3.64428 21
214 2 -5.22232 -6.57109 1.42098 22
215 2 -3.39059 -9.58956 1.39302 21
216 2 -5.17657 -8.84126 8.88576 12
217 2 -5.30503 -6.9952 6.66472 19
218 2 -3.54674 -9.99144 6.97462 17
219 2 -3.72325 -5.86414 4.09144 21
220 2 -5.13475 -2.91358 3.99928 24
221 2 -5.3056 -0.998564 1.19696 25
222 2 -3.66633 -3.72589 1.30087 24
223 2 -3.67728 -6.07185 9.30498 20
224 2 -5.10796 -2.70502 9.0041 22
225 2 -5.398 -0.813862 6.55833 22
226 2 -3.79887 -3.91042 6.62938 22
227 2 -5.30122 -1.04858 12.0262 15
228 2 -3.70085 -3.55123 13.016 11
229 2 -1.75925 -12.8185 2.04043 14
230 2 -1.61773 -12.5463 6.08819 10
231 2 -0.371937 -11.2589 4.18748 19
232 2 -1.97599 -8.73468 4.0883 20
233 2 -2.13402 -6.41613 1.26062 23
234 2 -0.120014 -9.08176 1.65564 25
235 2 -2.16882 -8.73374 9.44556 14
236 2 -2.00538 -6.83175 6.11154 22
237 2 -0.40011 -9.74351 7.32704 20
238 2 -2.58026 -5.8669 11.773 14
239 2 -0.285249 -5.91663 3.81345 22
240 2 -1.9258 -2.86104 3.99635 23
241 2 -1.94102 -0.905813 1.16009 24
242 2 -0.235556 -3.6689 1.40196 23
243 2 -0.523993 -5.83266 9.04826 21
244 2 -2.07291 -2.95416 9.21519 22
245 2 -2.23179 -0.918469 6.81033 22
246 2 -0.434167 -3.93689 6.44534 23
247 2 -2.20798 -0.979795 11.6902 18
248 2 -0.386448 -3.72549 11.9244 18
249 1 -13.5426 -0.701892 -3.25547 14
250 1 -10.6349 -0.139317 -8.98007 10
251 1 -12.0678 4.87961 -5.70967 8
252 1 -10.2542 2.16036 -6.93513 17
253 1 -10.0483 -0.357034 -3.39196 20
254 1 -11.9141 1.75477 -3.93691 17
255 1 -10.3077 7.81894 -5.5413 11
256 1 -10.077 5.65774 -3.6805 17
257 1 -6.90501 1.70058 -11.9122 12
258 1 -7.15449 0.0326358 -9.04411 21
259 1 -8.82591 2.96261 -9.42263 13
260 1 -8.82147 4.90642 -6.51708 19
261 1 -6.82063 1.90529 -6.13632 24
262 1 -6.80216 -0.245194 -3.41035 24
263 1 -8.49662 2.52409 -4.12342 20
264 1 -6.99067 5.56711 -8.62048 14
265 1 -7.0564 7.85162 -6.39275 15
266 1 -6.96155 5.60675 -3.97423 24
267 1 -8.54577 9.21344 -3.85674 17
268 1 -6.05144 11.0705 -2.38897 14
269 1 -5.32532 4.63716 -11.7376 13
270 1 -3.6115 1.91013 -11.6525 20
271 1 -3.68691 0.331032 -8.85362 23
272 1 -5.49381 2.79529 -9.14582 22
273 1 -5.03614 4.75084 -6.0749 22
274 1 -3.6913 2.09254 -6.05785 24
275 1 -3.54812 0.0487661 -3.37693 25
276 1 -5.22243 2.6894 -3.41725 24
277 1 -4.01918 7.95133 -11.5297 10
278 1 -3.86706 5.56627 -9.00963 20
279 1 -2.06518 8.41655 -9.06622 21
280 1 -5.39378 10.4078 -5.98307 13
281 1 -3.75647 7.61104 -6.17122 24
282 1 -3.85797 5.70257 -3.41373 22
283 1 -5.455 8.54857 -3.24574 21
284 1 -3.54794 11.3672 -4.0204 14
285 1 -1.91919 0.161442 -13.3024 9
286 1 -1.96704 5.62587 -11.36 17
287 1 -0.393375 1.35618 -11.3372 21
288 1 -0.489088 -0.219065 -8.69701 24
289 1 -1.97371 3.00742 -8.8793 25
290 1 -2.07967 4.9659 -6.20058 24
291 1 -0.37487 1.96789 -6.16078 25
292 1 -0.287078 0.223411 -3.53201 24
293 1 -1.86201 2.99636 -3.6932 24
294 1 -0.428175 8.9566 -11.5116 14
295 1 -0.209132 5.87226 -8.87752 24
296 1 -2.47065 10.7645 -10.6359 10
297 1 -2.16606 10.6037 -6.89957 16
298 1 -0.497827 7.73974 -6.24057 23
299 1 -0.43345 5.93031 -3.53682 24
300 1 -2.14145 8.66063 -3.55512 23
301 1 1.07548 11.1001 -10.7516 9
302 1 -0.36415 11.5547 -4.34352 15
303 2 -13.3954 -0.624486 -1.05409 16
304 2 -13.4756 1.32178 -2.92996 13
305 2 -10.4043 -0.0727866 -6.93878 18
306 2 -11.7414 2.90218 -5.70106 14
307 2 -9.96128 1.57597 -8.86966 11
308 2 -10.1015 -0.728195 -1.50784 22
309 2 -11.9376 2.93621 -0.843604 17
310 2 -11.9074 4.97551 -3.65491 13
311 2 -10.0218 1.57475 -3.24821 21
312 2 -10.3134 5.8668 -5.68255 15
313 2 -10.4231 5.8333 -0.906752 18
314 2 -10.1217 7.74164 -3.59177 14
315 2 -7.00972 -0.223081 -11.9549 11
316 2 -6.81466 0.0120099 -6.93364 22
317 2 -8.61199 2.80998 -6.21908 19
318 2 -8.49192 4.53243 -8.40754 13
319 2 -7.09403 1.87893 -10.0524 21
320 2 -6.74515 -0.154859 -1.33568 25
321 2 -8.56804 2.70253 -0.762559 21
322 2 -8.38794 4.49626 -3.27251 24
323 2 -6.72607 1.63413 -4.16581 22
324 2 -6.91615 5.71982 -6.42385 18
325 2 -8.53919 8.67218 -5.77962 14
326 2 -3.34166 7.18288 -9.78497 17
327 2 -6.97377 5.70999 -0.508763 21
328 2 -8.91606 8.47845 -0.660999 16
329 2 -7.88455 10.5155 -2.61294 13
330 2 -7.12583 7.41547 -3.4773 23
331 2 -6.7216 11.9297 -0.408327 12
332 2 -3.50727 -0.375684 -11.9576 16
333 2 -5.28238 2.79872 -12.1543 12
334 2 -3.7356 0.145121 -6.85156 25
335 2 -5.38051 3.03018 -7.05562 24
336 2 -5.70597 4.91781 -9.79764 17
337 2 -3.63507 2.1688 -9.55892 20
338 2 -3.4933 0.0282042 -1.36941 24
339 2 -5.4482 2.5906 -1.41493 22
340 2 -5.16605 4.52156 -4.13892 22
341 2 -3.51689 1.96438 -4.03667 24
342 2 -3.73815 5.83668 -11.8913 11
343 2 -3.72265 5.58406 -7.17352 24
344 2 -5.37282 8.44286 -6.11054 16
345 2 -2.30321 8.82366 -11.5813 10
346 2 -3.72096 5.55576 -1.48107 23
347 2 -5.44349 8.51859 -1.34449 23
348 2 -3.58361 11.1547 -5.92172 13
349 2 -3.82477 7.59123 -4.04081 24
350 2 -2.76796 10.5067 -8.68537 13
351 2 -3.84312 11.4785 -1.9678 15
352 2 -5.23599 10.3679 -3.97261 16
353 2 -0.558324 -0.48964 -12.2166 16
354 2 -1.74303 1.91978 -12.6951 13
355 2 -0.399126 0.207886 -6.74346 24
356 2 -1.9303 3.00117 -6.85847 25
357 2 -1.81156 4.84958 -9.4184 19
358 2 -0.461438 1.73651 -9.44701 22
359 2 -0.196677 0.216752 -1.66342 24
360 2 -1.99438 2.82012 -1.4837 24
361 2 -2.12764 4.82401 -4.16794 25
362 2 0.0292734 2.0704 -4.22413 22
363 2 -0.584616 4.94496 -12.5614 12
364 2 -0.424914 5.78201 -6.88272 24
365 2 -2.11966 8.28154 -7.11353 19
366 2 -0.814036 11.1028 -11.2251 9
367 2 -0.259933 7.71349 -9.85151 24
368 2 -0.218577 5.70209 -1.49368 22
369 2 -2.10455 8.36208 -1.57298 20
370 2 -1.67669 10.7336 -3.44328 16
371 2 -0.537093 7.79698 -4.22838 21
372 2 1.22273 10.5644 -8.97215 13
373 2 -0.358482 10.7606 -0.431785 18
374 2 -0.185087 13.5703 1.05257 11
375 2 -0.458905 11.4724 -6.26037 14
376 1 -13.3644 1.35169 -0.842997 14
377 1 -13.8673 -1.20538 1.72561 15
378 1 -13.6422 1.80434 2.97405 14
379 1 -11.7267 4.60158 -1.68586 16
380 1 -10.1905 1.57162 -1.29816 24
381 1 -10.5646 -0.195994 1.86894 23
382 1 -11.7961 3.08812 1.27387 17
383 1 -11.9965 5.07449 4.03578 14
384 1 -10.3913 1.91856 3.91336 23
385 1 -10.4073 0.00835025 7.19957 16
386 1 -11.8954 2.69557 6.23663 14
387 1 -10.1613 2.04593 9.30065 10
388 1 -10.2415 7.54988 -1.59845 18
389 1 -10.2142 5.71665 1.28772 21
390 1 -10.3132 7.78399 4.13205 14
391 1 -10.2183 5.88232 6.48361 16
392 1 -8.63284 4.64144 -1.21209 22
393 1 -7.09923 1.58817 -0.8127 22
394 1 -6.99475 -0.109274 1.95104 23
395 1 -8.70928 2.73981 1.34947 21
396 1 -8.629 4.71403 4.0545 21
397 1 -6.93028 2.03541 4.27608 22
398 1 -6.90645 -0.0507933 6.75601 21
399 1 -8.57891 2.90591 6.56165 22
400 1 -8.37737 4.8948 9.21991 13
401 1 -6.95823 1.94427 9.83048 19
402 1 -6.78679 0.195924 12.1748 10
403 1 -8.31971 10.5888 -0.607638 14
404 1 -7.1426 7.56741 -1.24586 22
405 1 -6.93307 5.70442 1.52884 21
406 1 -8.81372 8.50797 1.33331 18
407 1 -8.69491 10.8016 3.46065 12
408 1 -7.09861 7.71563 3.79802 23
409 1 -6.95638 5.99869 6.73793 21
410 1 -8.35608 8.90018 6.24988 16
411 1 -6.71425 7.7686 9.34506 11
412 1 -6.84032 11.867 1.57868 13
413 1 -5.46786 4.45687 -0.694891 22
414 1 -3.8105 1.99819 -0.767168 25
415 1 -3.56993 0.0456059 1.81987 24
416 1 -5.26297 2.66313 1.93321 24
417 1 -5.25044 4.91873 4.54229 22
418 1 -3.54935 2.08472 4.49803 22
419 1 -3.7974 0.174602 7.23288 23
420 1 -5.25358 2.96853 7.13934 23
421 1 -5.2678 4.81536 9.91493 20
422 1 -3.7785 1.9577 9.69008 22
423 1 -3.63997 -0.101322 12.7207 16
424 1 -5.02929 2.8293 12.5879 12
425 1 -4.63189 12.0078 -0.332104 14
426 1 -3.74163 7.5997 -0.838509 18
427 1 -3.59658 5.78553 1.83721 23
428 1 -5.38112 8.96024 1.51648 22
429 1 -5.49234 10.8304 4.57307 18
430 1 -3.68994 7.85111 4.22941 20
431 1 -3.52451 6.02921 6.96894 20
432 1 -5.1362 8.89941 7.19983 17
433 1 -3.50132 7.53381 9.8097 15
434 1 -2.66336 5.39789 12.3252 12
435 1 -2.08293 14.2666 0.880098 7
436 1 -3.48472 11.7226 2.34295 16
437 1 -3.6194 11.7974 6.17357 11
438 1 -1.83462 4.83088 -0.879407 21
439 1 -0.34103 1.92221 -0.908485 25
440 1 -0.362529 0.00987712 1.93248 24
441 1 -2.06349 2.91448 1.89045 22
442 1 -1.86442 4.90158 4.31449 22
443 1 -0.298802 1.89065 4.57092 22
444 1 -0.555383 0.12534 7.18088 23
445 1 -2.15609 2.98013 7.18567 25
446 1 -1.9081 4.82012 9.73968 20
447 1 -0.447824 2.09475 9.65943 20
448 1 -0.530693 -0.0501548 12.1582 16
449 1 -1.69993 2.46282 13.4319 12
450 1 -2.00823 10.4656 -1.39164 17
451 1 -0.247666 7.6492 -1.04679 20
452 1 -0.291691 5.7021 1.87514 24
453 1 -1.91108 8.36651 1.85668 23
454 1 -1.60967 10.4739 4.0828 19
455 1 -0.0908733 7.79401 4.60708 23
456 1 -0.293474 5.67574 7.07082 22
457 1 -2.14864 8.82475 6.87488 20
458 1 -0.521914 7.22458 9.67838 15
459 1 -0.0152345 5.7233 12.6024 13
460 1 1.52865 14.3583 1.55968 9
461 1 -0.282199 11.5675 1.28984 17
462 1 4.10317 12.9538 3.7171 11
463 1 -0.259481 11.1536 6.8691 11
464 2 -13.6633 -0.0530355 3.24859 12
465 2 -13.3714 1.78258 1.09571 13
466 2 -10.5204 -0.138114 4.03203 21
467 2 -12.1406 2.28577 4.3203 16
468 2 -11.6029 4.84589 2.225 17
469 2 -10.3143 1.79226 1.78488 19
470 2 -9.80543 0.176215 9.34832 12
471 2 -11.804 4.6213 6.25143 12
472 2 -10.3537 2.07758 7.38182 16
473 2 -10.0423 5.81974 4.51856 19
474 2 -10.2129 7.46523 2.19796 17
475 2 -9.92956 7.89567 6.23739 11
476 2 -7.05224 0.0822287 3.96619 22
477 2 -8.8728 2.76598 4.54022 21
478 2 -8.49589 4.64486 2.13987 23
479 2 -6.81209 1.66991 1.18642 21
480 2 -6.89977 -0.117401 10.1563 16
481 2 -8.61197 3.09651 9.70173 13
482 2 -8.52079 4.81143 7.37496 20
483 2 -6.96316 1.90638 6.47572 22
484 2 -6.61853 2.05633 11.8901 13
485 2 -6.95559 5.82139 4.69986 24
486 2 -8.60889 8.96725 4.28586 15
487 2 -8.30774 10.518 1.50595 13
488 2 -6.91124 7.69939 1.77832 20
489 2 -6.72351 5.87159 9.4836 14
490 2 -7.06619 7.99624 7.45189 16
491 2 -7.0343 11.4677 3.54836 14
492 2 -3.71656 0.0136431 3.9291 26
493 2 -5.35165 2.96583 3.96635 22
494 2 -5.20883 4.7008 1.54251 19
495 2 -3.61394 1.88035 1.17 24
496 2 -3.50792 0.101244 9.18609 22
497 2 -5.4939 2.96277 9.11769 20
498 2 -5.27166 4.9801 6.68885 20
499 2 -3.72723 1.96391 6.66472 23
500 2 -4.2223 4.40085 11.7348 15
501 2 -3.49648 1.83045 13.1264 13
502 2 -3.68079 5.76442 3.85394 24
503 2 -5.292 8.9794 3.69363 22
504 2 -4.97681 10.9273 1.26683 18
505 2 -3.70636 7.70776 1.26113 18
506 2 -3.61805 5.73871 9.15781 22
507 2 -5.02192 8.49824 9.05534 13
508 2 -5.15495 10.7754 6.56462 12
509 2 -3.75844 7.89246 6.17793 23
510 2 -3.6397 11.6789 4.32369 14
511 2 -3.41452 13.0903 0.853387 12
512 2 -0.442393 -0.115559 4.04103 21
513 2 -1.87264 2.98479 3.84999 26
514 2 -1.90333 4.7391 1.35484 23
515 2 -0.422808 1.938 1.28759 24
516 2 -0.600771 0.181512 9.29273 21
517 2 -2.14319 2.86642 9.23719 20
518 2 -2.01986 4.77168 6.30268 23
519 2 -0.372892 2.0309 6.66611 24
520 2 -1.38689 4.42091 13.4394 10
521 2 -0.13654 1.74124 12.4568 17
522 2 -0.0793494 5.86112 3.81313 22
523 2 -1.92396 8.24787 3.85221 20
524 2 -1.79755 10.5854 2.07662 21
525 2 -0.329178 7.45841 1.06584 24
526 2 -0.142038 5.09776 8.93566 22
527 2 -2.19795 8.25766 8.64652 17
528 2 -2.24358 10.8193 6.90237 13
529 2 -0.17225 7.5639 6.55273 24
530 2 -1.24593 6.20666 11.2728 13
531 2 -0.0332035 11.0407 5.04158 18
532 2 2.98815 13.2868 2.33797 14
533 1 1.73827 -13.1571 -5.43491 9
534 1 0.746835 -6.78563 -11.382 14
535 1 1.02287 -8.54779 -8.8072 17
536 1 1.35496 -6.69534 -6.05311 24
537 1 2.8425 -9.79294 -6.64391 17
538 1 3.55539 -11.4757 -3.93326 15
539 1 1.34159 -8.57495 -3.39223 22
540 1 -2.3232 -5.51468 -12.7816 8
541 1 1.12444 -1.17359 -11.5543 17
542 1 2.7768 -4.19867 -11.9041 14
543 1 2.81248 -5.78988 -8.91534 22
544 1 1.22453 -2.94019 -9.42819 19
545 1 1.20325 -1.01138 -6.14159 24
546 1 2.96117 -3.79843 -6.4246 21
547 1 3.06311 -5.55207 -3.45452 22
548 1 1.1791 -2.61764 -3.47425 23
549 1 4.38172 -6.53048 -11.4724 11
550 1 4.47145 -8.62832 -8.99614 12
551 1 4.60589 -6.6747 -6.13082 23
552 1 6.24512 -9.41981 -6.27483 13
553 1 6.93246 -11.0171 -3.28657 13
554 1 4.6949 -8.3775 -3.61536 21
555 1 4.40713 -0.903988 -11.4748 22
556 1 6.03417 -3.51944 -11.6281 13
557 1 6.20408 -5.72231 -8.85343 20
558 1 4.57628 -2.96107 -8.82241 24
559 1 4.53225 -0.749804 -6.36381 23
560 1 6.31825 -3.53859 -6.29845 22
561 1 6.38249 -5.48597 -3.38144 22
562 1 4.66734 -2.71157 -3.59908 24
563 1 8.08764 -6.6848 -7.16347 17
564 1 8.20886 -8.49982 -4.32142 17
565 1 7.45724 -0.358845 -11.7349 13
566 1 9.60024 -5.82949 -10.0238 7
567 1 8.12927 -2.95897 -9.26596 16
568 1 8.01095 -1.00956 -6.37073 22
569 1 9.63024 -4.16924 -6.85857 17
570 1 9.54247 -5.88378 -4.12268 18
571 1 8.00296 -2.672 -3.40479 22
572 1 11.2678 -7.38392 -5.68205 8
573 1 11.2718 -0.959241 -6.37022 15
574 1 11.0266 -2.76935 -4.20674 17
575 2 3.13386 -11.623 -0.824903 19
576 2 2.95899 -11.5124 -5.81895 12
577 2 2.81073 -9.36099 -8.93567 10
578 2 1.4363 -8.58916 -6.50149 21
579 2 0.949691 -6.61091 -9.26153 20
580 2 4.72768 -6.74975 -9.62457 17
581 2 1.75512 -12.7541 -3.64863 14
582 2 1.56466 -8.50908 -1.12572 19
583 2 1.57167 -6.75907 -4.01414 21
584 2 3.00019 -9.76655 -3.38412 20
585 2 2.53229 -6.23584 -11.6105 12
586 2 1.26499 -3.07169 -11.6767 16
587 2 2.86267 -5.70317 -6.89788 22
588 2 1.17802 -2.8901 -6.56184 23
589 2 1.1404 -0.968796 -9.41191 24
590 2 2.92832 -3.96417 -9.42395 25
591 2 3.13802 -5.78469 -1.45163 24
592 2 1.44677 -2.75078 -1.44527 25
593 2 1.2044 -0.890926 -4.14445 23
594 2 3.16461 -3.84579 -4.24442 24
595 2 5.2075 -11.9968 -3.15242 15
596 2 4.66422 -8.55994 -6.94858 18
597 2 4.66457 -4.61905 -12.1611 13
598 2 6.34908 -11.2664 -0.660291 15
599 2 4.82003 -8.4254 -1.62807 25
600 2 4.76407 -6.52951 -4.17292 23
601 2 6.26608 -9.42342 -4.37668 15
602 2 6.16169 -1.64285 -12.0594 12
603 2 6.24465 -5.62635 -6.67472 21
604 2 4.56116 -2.65368 -6.7019 21
605 2 4.5363 -1.18376 -9.42797 19
606 2 6.2171 -3.71441 -9.71492 19
607 2 6.42793 -5.34312 -1.23617 22
608 2 4.55952 -2.79757 -1.65961 24
609 2 4.53276 -0.763845 -4.30331 21
610 2 6.60428 -3.77676 -4.33855 22
611 2 7.96962 -8.33848 -6.27624 13
612 2 8.12342 -6.33622 -9.09831 12
613 2 8.14715 -8.50556 -0.506241 21
614 2 7.80793 -6.78142 -3.218 24
615 2 8.52489 -9.77375 -2.97719 13
616 2 9.84362 -6.02985 -6.17191 16
617 2 8.11707 -2.89926 -7.1317 23
618 2 7.96197 -0.836019 -9.75027 18
619 2 9.5117 -4.29834 -8.97522 11
620 2 9.75436 -5.98405 -0.915715 21
621 2 8.09295 -2.61758 -1.4751 21
622 2 7.88278 -1.04685 -4.37995 25
623 2 9.57997 -4.01992 -3.48121 20
624 2 11.108 -8.45895 -0.735589 14
625 2 11.1352 -6.99915 -3.92293 12
626 2 10.7824 -2.7871 -6.09537 16
627 2 12.8212 -5.37307 -1.07292 13
628 2 11.2188 -2.7832 -0.928302 20
629 2 10.9223 -0.583866 -4.28387 20
630 2 12.6926 -2.50054 -3.2959 13
631 1 1.50725 -12.4413 -1.70131 18
632 1 1.42182 -12.5037 4.15253 17
633 1 1.43262 -6.48846 -0.801213 24
634 1 3.21984 -9.68278 -1.355 22
635 1 2.99612 -11.5326 1.29697 18
636 1 1.72586 -8.50372 1.28436 17
637 1 1.46039 -6.69085 4.33857 25
638 1 2.93795 -9.61648 4.17293 23
639 1 3.42955 -11.2641 6.58286 13
640 1 1.20889 -8.76195 6.61626 20
641 1 1.37412 -6.45639 9.77464 20
642 1 2.87604 -9.05306 9.39728 11
643 1 1.32934 -0.857889 -0.839505 25
644 1 3.09489 -3.84605 -0.887892 24
645 1 3.15105 -5.69464 1.74962 22
646 1 1.55095 -2.85772 1.88767 22
647 1 1.41129 -0.743038 4.36514 23
648 1 3.09948 -3.78945 4.43628 23
649 1 3.03044 -5.71294 7.0195 22
650 1 1.27592 -2.74141 6.91505 22
651 1 1.27086 -0.939132 9.93198 24
652 1 3.05441 -3.7802 9.6731 22
653 1 2.74217 -5.69601 12.5653 11
654 1 1.28639 -2.90036 12.5194 16
655 1 4.90091 -12.2545 -1.34389 15
656 1 5.32289 -12.0689 3.85199 13
657 1 4.76447 -6.74012 -0.890272 22
658 1 6.28843 -9.35314 -0.88894 20
659 1 6.41361 -11.5926 1.33265 15
660 1 4.65239 -8.54295 2.07553 24
661 1 4.75115 -6.51134 4.53015 23
662 1 6.12779 -9.61045 4.58764 18
663 1 4.71489 -8.1772 7.35113 20
664 1 4.90829 -6.25875 9.8999 16
665 1 4.46655 -0.962752 -0.870561 22
666 1 6.23028 -3.51345 -0.79665 22
667 1 6.38848 -5.52341 1.61957 21
668 1 4.66338 -2.74298 1.8147 24
669 1 4.75905 -0.829097 4.40814 22
670 1 6.41769 -3.73075 4.53545 22
671 1 6.52118 -5.52133 7.27192 24
672 1 4.56113 -2.92203 7.00464 23
673 1 4.46422 -0.943125 9.69501 22
674 1 6.43622 -3.61977 9.64441 20
675 1 4.39428 -3.30965 12.1321 14
676 1 7.98049 -6.6858 -1.3372 22
677 1 9.50421 -9.38388 -1.42395 15
678 1 7.91062 -8.39117 1.36436 22
679 1 8.15875 -6.79224 3.99163 21
680 1 8.84556 -10.407 3.59671 11
681 1 8.09208 -8.3703 6.39596 11
682 1 8.22091 -6.77269 8.82844 12
683 1 7.9801 -0.712527 -0.735118 24
684 1 9.6061 -3.91127 -1.45623 21
685 1 9.59807 -5.6155 1.16953 25
686 1 7.92256 -2.55497 1.67629 23
687 1 8.07589 -0.811145 4.48641 22
688 1 9.57045 -3.77367 3.87267 19
689 1 9.64129 -5.45112 6.70458 17
690 1 8.05855 -2.72419 7.1206 25
691 1 8.21981 -0.894467 9.62552 17
692 1 9.91222 -3.81224 9.21771 12
693 1 11.4522 -6.91641 -1.94574 17
694 1 11.0268 -8.59108 1.08087 13
695 1 11.3513 -5.99436 3.37738 14
696 1 11.0452 -0.954623 -1.16219 21
697 1 12.9475 -3.58222 -1.84362 13
698 1 12.8782 -5.74015 0.784438 13
699 1 11.1843 -2.78515 1.04884 20
700 1 11.3772 -0.0192144 4.30185 17
701 1 12.7959 -2.89224 3.37638 13
702 1 11.3726 -2.63124 6.26506 13
703 2 1.47971 -12.441 2.18591 15
704 2 1.74956 -12.0112 6.00957 12
705 2 4.17635 -10.8317 4.89925 16
706 2 1.35428 -8.57618 4.49303 24
707 2 1.50455 -6.49738 1.26093 23
708 2 2.8315 -9.61914 2.16806 21
709 2 1.00206 -8.38016 9.63494 14
710 2 1.45175 -6.71496 6.38767 22
711 2 2.95238 -9.41531 7.31381 18
712 2 1.05469 -6.17018 11.7167 14
713 2 3.12528 -5.55083 3.71846 24
714 2 1.34883 -2.90326 3.9088 23
715 2 1.29886 -1.00711 1.23593 25
716 2 3.11202 -3.78254 1.30197 24
717 2 2.8985 -5.7189 8.90402 23
718 2 1.16777 -2.85297 9.11755 24
719 2 1.24866 -0.839853 6.47713 21
720 2 2.74719 -3.76438 6.51481 23
721 2 1.08928 -1.0892 11.8951 17
722 2 2.66513 -3.92121 13.2501 11
723 2 4.63034 -12.2763 2.0382 15
724 2 6.95684 -11.2506 3.61716 13
725 2 4.80115 -8.36702 4.06678 21
726 2 4.81427 -6.84713 1.0748 23
727 2 6.14311 -9.49862 1.26613 23
728 2 4.49066 -8.04229 9.26232 14
729 2 4.7033 -6.2041 6.47324 21
730 2 6.28062 -8.86259 6.47327 16
731 2 4.00476 -5.03215 11.1083 15
732 2 6.59159 -5.60074 3.93038 21
733 2 4.7743 -2.74865 4.03559 22
734 2 4.67623 -0.755046 1.06425 25
735 2 6.28163 -3.51305 1.1352 23
736 2 6.58028 -5.54309 9.23595 20
737 2 4.65955 -2.81318 8.92867 24
738 2 4.5825 -0.953369 6.49893 25
739 2 6.45117 -3.7429 6.54625 24
740 2 3.93702 -1.55766 11.4831 19
741 2 6.24694 -2.7742 11.5668 14
742 2 8.28696 -8.75763 4.55164 14
743 2 8.06201 -6.52931 1.80282 22
744 2 9.58584 -9.3706 2.12608 14
745 2 8.11742 -6.48219 6.88994 17
746 2 9.91972 -5.75217 4.69977 17
747 2 8.04657 -2.54755 3.82081 20
748 2 7.92861 -0.642153 1.21176 24
749 2 9.4565 -3.8091 1.91732 22
750 2 9.73058 -5.64349 8.937 10
751 2 8.18222 -2.83169 9.15446 20
752 2 8.16924 -0.804816 6.59166 22
753 2 9.88731 -3.52748 7.06776 16
754 2 8.42899 0.0488453 11.3676 10
755 2 11.5238 -6.79536 1.58082 14
756 2 11.3817 -3.32643 4.57055 14
757 2 11.302 -0.791855 0.758002 21
758 2 12.1483 -4.20892 1.99685 15
759 2 11.3154 -0.760629 5.99338 16
760 1 5.88171 2.35802 -12.9431 9
761 1 -0.408233 3.33708 -13.5621 8
762 1 1.13352 4.85917 -11.6567 17
763 1 2.72552 1.78451 -11.4678 17
764 1 2.9291 -0.101478 -8.94327 22
765 1 1.18578 2.7989 -8.75982 24
766 1 1.3479 4.97899 -6.16305 24
767 1 2.89962 1.9652 -6.14707 24
768 1 2.89863 0.221538 -3.58691 24
769 1 1.39346 3.21578 -3.39331 25
770 1 2.71343 7.72697 -11.5921 12
771 1 2.92531 5.54743 -9.0304 24
772 1 1.48311 8.49647 -9.13984 18
773 1 1.42804 11.1004 -7.14352 14
774 1 2.92912 7.76544 -6.36599 23
775 1 2.96411 5.93516 -3.55132 24
776 1 1.28762 8.8529 -3.91589 21
777 1 3.0732 11.6532 -4.3409 15
778 1 4.32985 4.75727 -11.6098 14
779 1 7.6989 2.40475 -10.4593 15
780 1 6.11453 -0.145109 -8.9383 23
781 1 4.6586 2.80942 -8.92929 21
782 1 4.71428 4.76034 -6.49112 21
783 1 6.68244 1.98378 -6.50304 23
784 1 6.18595 0.062673 -3.82961 22
785 1 4.6333 3.27042 -3.79462 22
786 1 6.26996 5.37686 -8.86446 20
787 1 4.9387 8.17269 -8.74993 15
788 1 4.69645 10.5709 -6.36864 11
789 1 6.44498 7.85077 -6.08441 22
790 1 6.15412 5.99301 -3.70281 23
791 1 4.59506 8.91112 -3.60764 25
792 1 5.758 12.1285 -3.6855 13
793 1 9.19972 0.40042 -8.83677 17
794 1 9.38944 3.80265 -8.45786 14
795 1 8.06569 5.25061 -6.16327 22
796 1 9.93839 1.89933 -6.0652 20
797 1 9.35425 0.0683742 -3.50251 22
798 1 7.84483 3.09767 -3.48011 24
799 1 8.46964 7.41118 -8.88649 11
800 1 9.74934 8.16518 -5.80654 10
801 1 9.46437 6.21883 -3.52101 17
802 1 7.79443 9.14856 -3.12093 18
803 1 11.3498 5.03909 -5.19491 14
804 1 12.8796 1.82535 -6.03385 10
805 1 13.0217 -0.668615 -3.5533 14
806 1 11.0964 2.80301 -3.38092 19
807 2 2.82129 0.0498544 -11.8209 14
808 2 0.96578 2.86132 -12.2213 15
809 2 2.78041 0.0135797 -6.92052 24
810 2 1.33045 2.97837 -6.80526 23
811 2 1.31215 4.70607 -9.70577 24
812 2 2.82254 1.80041 -9.45779 23
813 2 3.01851 0.094296 -1.60397 24
814 2 1.24541 3.03795 -1.46694 24
815 2 1.29935 5.00064 -4.01221 22
816 2 3.04974 2.05874 -4.12561 24
817 2 2.83301 5.92188 -12.0756 11
818 2 3.01388 5.62616 -6.93681 24
819 2 1.21528 8.32821 -6.95747 20
820 2 1.70407 9.25637 -11.2714 9
821 2 3.3299 7.37144 -9.65644 19
822 2 2.98843 5.95164 -1.55236 25
823 2 1.35911 8.64902 -1.78853 23
824 2 1.37685 10.7855 -3.64277 17
825 2 3.04602 7.83003 -4.39015 24
826 2 2.97652 11.1201 -6.16513 16
827 2 2.97139 11.5408 -1.08431 20
828 2 2.34495 14.3726 -0.197706 7
829 2 4.17898 12.9149 -3.13235 11
830 2 7.26263 1.45512 -12.0631 11
831 2 4.49132 2.84423 -12.0489 14
832 2 6.24308 -0.0285559 -6.88951 23
833 2 4.78099 2.83857 -6.89482 21
834 2 4.61801 4.698 -9.58488 18
835 2 6.28518 1.69974 -9.46881 21
836 2 6.16715 0.13257 -1.60248 25
837 2 4.76204 3.15036 -1.69598 24
838 2 4.65045 5.11749 -4.31593 24
839 2 6.40297 2.04441 -4.48401 24
840 2 6.21764 5.79998 -6.73567 21
841 2 4.73211 8.75 -6.91948 16
842 2 6.53376 7.23808 -9.16395 12
843 2 6.19421 6.06493 -1.5199 25
844 2 4.6902 8.60694 -1.59455 22
845 2 4.89974 10.6288 -4.45393 17
846 2 6.57335 7.87522 -4.01823 20
847 2 7.69925 10.8259 2.06715 12
848 2 9.66543 0.124288 -7.02387 19
849 2 8.48448 3.17205 -6.80699 21
850 2 8.49727 5.38205 -8.85054 11
851 2 9.45409 2.23997 -9.45502 11
852 2 9.54869 0.336129 -1.51364 22
853 2 7.73352 3.08395 -1.52793 24
854 2 7.92498 4.9361 -4.12276 23
855 2 9.42518 2.00281 -4.13801 20
856 2 9.84534 6.23272 -5.78015 15
857 2 8.19086 7.94606 -7.03793 13
858 2 9.33335 5.96038 -1.4261 20
859 2 8.17134 9.30468 -0.719489 18
860 2 7.23204 11.0091 -2.90171 13
861 2 9.51349 8.29299 -3.87949 15
862 2 11.5683 2.96456 -5.33463 12