ITEM: TIMESTEP
68000
ITEM: NUMBER OF ATOMS
500
ITEM: BOX BOUNDS pp pp pp
-30.0 30.0
-30.0 30.0
-30.0 30.0
ITEM: ATOMS id type x y z Coordination
1 1 1.77638 -20.7032 11.3481 18
2 1 -2.87957 -15.8106 13.5218 11
3 1 -6.4074 -21.6294 -3.3701 22
4 1 -13.3515 -17.0617 1.55023 17
5 1 -1.96525 -15.9417 -6.58369 10
6 1 2.52371 -27.0971 0.799618 11
7 1 4.91797 -19.3786 11.2233 10
8 1 0.171699 -15.236 12.4766 14
9 1 -14.3585 -18.8548 7.58055 8
10 1 4.41863 -21.7636 3.62903 22
11 1 5.74627 -15.822 11.8976 9
12 1 -8.64623 -28.3188 7.59972 14
13 1 -3.29138 -23.273 -3.9164 14
14 1 4.93649 -21.8649 1.02023 17
15 1 3.92146 -27.1125 7.17443 12
16 1 -9.4068 -9.46137 8.32284 10
17 1 -4.07727 -9.94853 5.43028 12
18 1 -3.80017 -21.178 -5.41822 15
19 1 -5.20258 -15.3994 11.138 21
20 1 -8.09501 -12.97 8.22178 21
21 1 -1.27959 -16.2996 -3.58228 21
22 1 -6.99908 -10.2936 0.175917 11
23 1 -9.57617 -15.8719 -1.75909 21
24 1 -6.31216 -10.4944 2.9442 15
25 1 -12.8068 -15.201 4.00112 17
26 1 -2.54981 -13.2306 11.4503 16
27 1 -10.6855 -13.3241 -3.32143 13
28 1 -9.58702 -26.9112 10.6607 13
29 1 -0.422927 -26.8405 2.98797 15
30 1 -11.1897 -24.1738 -2.75228 9
31 1 -3.45808 -29.6621 9.47796 12
32 1 1.7853 -15.9871 -1.17384 15
33 1 -11.0885 -24.4081 -0.0025621 16
34 1 -1.87013 -13.1049 -5.15506 11
35 1 -3.85442 -9.16064 1.77779 10
36 1 -12.249 -21.4755 11.07 10
37 1 -3.0079 -10.4438 10.0239 12
38 1 0.222396 -20.9462 14.6003 10
39 1 -1.99095 -29.3213 2.91817 11
40 1 4.87269 -20.8792 -2.08877 10
41 1 0.648475 -23.5572 12.7864 13
42 1 -1.94238 -24.578 11.2328 17
43 1 0.393625 -12.7932 3.63273 17
44 1 -11.4728 -26.5113 7.97631 13
45 1 -7.35969 -29.4317 4.51337 14
46 1 -7.67167 -23.3875 14.3243 10
47 1 -11.1479 -18.3617 9.5184 15
48 1 1.91169 -29.335 6.87293 12
49 1 -10.6482 -23.827 9.31251 20
50 1 -9.95818 -9.81823 5.18583 13
51 1 -12.4237 -10.2817 7.69027 9
52 1 -8.39704 -13.4418 11.2973 13
53 1 -11.804 -26.5029 2.47984 11
54 1 -8.32721 -23.788 -2.01294 20
55 1 2.33978 -16.8303 11.7501 17
56 1 -5.03483 -23.8351 12.4717 19
57 1 -9.78039 -18.4883 -4.44005 17
58 1 -13.2039 -20.3396 2.35477 15
59 1 -8.94352 -28.6078 1.83386 14
60 1 -11.1853 -12.6293 9.50846 14
61 1 -3.90807 -27.0064 -1.10491 11
62 1 -5.19854 -12.8292 9.84622 19
63 1 -12.5898 -21.4236 -0.910613 15
64 1 -13.6138 -13.2933 1.45598 11
65 1 -5.44499 -25.039 -3.13502 12
66 1 -0.146309 -26.5931 8.45277 21
67 1 -12.451 -15.3274 -1.15486 18
68 1 -7.8969 -19.7138 14.1172 14
69 1 -10.8091 -15.6577 11.1815 11
70 1 -4.72092 -12.43 -3.57959 12
71 1 -3.47207 -27.0301 11.3239 13
72 1 -0.893883 -27.1017 0.0582182 13
73 1 2.13794 -20.9119 -4.51844 10
74 1 3.40774 -24.7889 11.265 10
75 1 -9.33202 -26.6433 -0.344957 13
76 1 -9.14664 -21.8166 12.0562 17
77 1 6.50038 -19.0203 8.08461 14
78 1 4.61428 -16.0416 3.99873 16
79 1 -4.75189 -14.8025 -5.39652 14
80 1 -9.03969 -15.352 -5.87444 10
81 1 -1.13513 -9.68875 3.51117 12
82 1 0.900015 -17.9807 -3.32539 15
83 1 -1.69778 29.7493 6.36865 12
84 1 3.7573 -24.2779 5.99361 16
85 1 -4.2557 -28.7926 4.72566 18
86 1 -13.9287 -18.8448 -0.98933 11
87 1 7.53215 -21.2069 2.46889 11
88 1 -10.8102 -12.9747 -0.426146 15
89 1 0.373521 -23.9623 -2.9091 14
90 1 -10.478 -24.5467 12.3268 9
91 1 -5.79735 -29.1879 1.38249 13
92 1 -0.935685 -21.0725 -3.5401 19
93 1 -0.157327 -29.792 9.17314 12
94 1 -9.6772 -21.0738 -2.27228 22
95 1 -2.29202 -19.0432 14.7824 11
96 1 -5.12744 -18.146 13.1611 15
97 1 1.81634 -21.555 -1.46087 19
98 1 0.389865 -13.4815 0.381642 15
99 1 6.01082 -19.1975 0.108765 14
100 1 -11.6385 -16.189 -4.48723 11
101 1 -12.6293 -16.1955 7.14793 15
102 1 -2.51557 -22.0102 12.8183 17
103 1 -12.7476 -19.7345 -4.12467 10
104 1 5.2159 -25.5241 9.20461 9
105 1 3.2624 -13.6659 11.6612 14
106 1 -0.689163 -28.0637 11.5246 9
107 1 7.46397 -16.5371 9.88868 9
108 1 2.49718 -12.1173 8.83488 14
109 1 0.143877 -12.895 10.2086 19
110 1 -7.90697 -13.0635 -4.75243 11
111 1 -10.605 -24.2764 6.09708 19
112 1 -12.4896 -11.5517 4.21662 11
113 1 3.21416 -13.3486 2.92526 11
114 1 -0.00407059 -17.4247 14.55 11
115 1 -4.00114 -18.1151 -7.08034 10
116 1 1.73467 -10.6324 5.60707 12
117 1 3.69829 -24.0398 -1.19749 14
118 1 2.17914 -27.5693 9.97583 14
119 1 -8.18687 -16.5596 12.5341 15
120 1 3.43969 -18.6523 8.85479 22
121 1 -7.58259 -13.1655 -1.71105 22
122 1 4.45881 -16.2082 1.05582 15
123 1 -5.279 -21.0754 14.1548 13
124 1 -6.37232 -26.9336 12.9715 9
125 1 -10.985 -12.7629 6.44427 20
126 1 0.558469 -13.2118 7.03649 20
127 1 -13.339 -23.0053 8.06501 12
128 1 4.85382 -21.398 6.52315 15
129 1 -6.69979 -26.58 6.13151 21
130 1 5.16588 -14.3423 9.11116 13
131 1 2.23625 -26.7522 4.45681 14
132 1 -1.2178 -10.6014 6.87507 15
133 1 -13.348 -23.6099 4.4807 11
134 1 -1.8015 -13.0262 -2.00144 17
135 1 -9.40383 -21.8986 -4.93633 11
136 1 -0.838024 -19.2675 -5.45164 14
137 1 -6.75491 -27.0944 -0.541565 15
138 1 6.22314 -24.1105 3.74715 8
139 1 -13.8477 -18.2349 4.52853 16
140 1 -6.92795 -15.8661 -3.66034 22
141 1 -9.57199 -26.9534 4.97474 18
142 1 4.59654 -22.0379 9.40192 15
143 1 -6.43344 -19.475 -5.24071 14
144 1 -10.1733 -10.0476 2.15621 11
145 1 -10.7586 -18.8397 12.4485 12
146 1 3.54886 -13.7173 6.13657 15
147 1 5.85376 -16.5911 6.7946 15
148 1 -6.23227 -27.8684 9.42644 16
149 1 3.64576 -18.0363 -2.04827 12
150 1 0.694162 -14.1934 -4.28863 10
151 1 0.1415 -9.58116 8.98509 9
152 1 -4.87141 -12.0768 -0.253983 20
153 1 6.42082 -17.932 3.40374 14
154 1 3.5113 -24.7504 1.93591 18
155 1 -6.65832 -10.2695 10.2242 10
156 1 -6.74404 -9.11695 7.15354 9
157 1 -5.57181 29.4806 7.10156 12
158 1 7.88127 -20.5779 5.08751 9
159 1 -13.134 -21.0643 5.71953 16
160 1 -10.6219 -13.3582 2.73335 20
161 2 -11.6402 -19.5893 10.9032 11
162 2 5.12452 -14.7801 7.17584 12
163 2 -10.6152 -15.0566 -0.3215 23
164 2 -6.89531 -29.3054 7.96375 14
165 2 1.34866 -16.9817 13.2955 12
166 2 -10.8892 -10.4059 8.64617 11
167 2 3.61075 -25.6805 -0.0731166 10
168 2 -6.55903 -17.9987 -3.75403 18
169 2 -1.98143 -20.8735 -5.23549 14
170 2 -7.39418 -12.4915 10.0673 16
171 2 3.40879 -22.15 7.70945 18
172 2 4.83965 -18.262 7.42809 17
173 2 -4.76865 -10.7756 10.0697 13
174 2 0.548321 -9.96632 7.05662 12
175 2 -0.650802 -12.9386 -3.41543 11
176 2 3.09097 -20.5744 -2.87932 13
177 2 -13.2932 -20.0739 -2.39742 11
178 2 -1.6243 -26.4213 11.2583 15
179 2 -12.8041 -18.025 7.8597 14
180 2 1.7357 -23.4838 -1.54963 15
181 2 -8.52471 -28.5239 5.72978 15
182 2 1.25408 -13.8389 11.7647 16
183 2 1.32564 -21.7993 13.0603 13
184 2 -10.3147 -27.5142 9.05022 11
185 2 -3.41077 29.8142 7.45298 15
186 2 -12.3228 -24.783 8.33751 10
187 2 -7.30288 -29.2393 2.5557 13
188 2 -12.0966 -24.9548 3.83779 13
189 2 -8.85625 -9.2253 6.48646 10
190 2 4.22847 -14.9404 2.48901 13
191 2 -1.05088 -18.3333 -3.28513 18
192 2 -5.70016 -10.3797 6.76997 16
193 2 -12.3697 -11.3793 6.05285 11
194 2 -4.72661 -9.44943 3.65463 12
195 2 -3.88078 -12.8764 -1.81945 16
196 2 -4.30343 -13.6714 11.3581 16
197 2 -1.37045 -20.5358 13.3305 18
198 2 0.769254 -22.0078 -3.64324 12
199 2 -2.0664 -29.063 4.80931 16
200 2 -10.4555 -26.1266 6.41153 18
201 2 5.0377 -22.9973 5.1059 15
202 2 2.40684 -12.2822 6.63702 16
203 2 -3.97468 -16.3673 -6.22193 13
204 2 -1.92335 -17.8255 -6.37982 12
205 2 -10.0964 -25.1957 -1.51706 12
206 2 -1.5861 -23.3952 -3.14379 15
207 2 5.1705 -18.9627 -1.51295 11
208 2 -4.71178 -19.5464 -5.73555 14
209 2 -6.59153 -23.4366 -3.14466 16
210 2 -4.89724 -15.9587 -3.35724 19
211 2 -7.49869 -26.6482 7.94462 21
212 2 -10.089 -13.1277 8.26389 17
213 2 -9.86851 -25.1363 10.5194 15
214 2 -13.0281 -18.4542 2.90663 16
215 2 2.83831 -28.3167 8.31163 12
216 2 -1.81037 -9.79673 8.59759 11
217 2 -4.22597 -19.5204 14.6502 14
218 2 -11.0272 -16.3009 9.51357 16
219 2 -11.8923 -23.2121 -1.23154 13
220 2 6.29528 -16.7641 4.79679 12
221 2 -13.4824 -22.9084 6.19192 10
222 2 -7.81251 -15.2384 -2.13049 22
223 2 1.15747 -19.143 -4.90455 13
224 2 -10.1721 -12.4509 4.61974 20
225 2 0.814264 -26.207 0.351123 16
226 2 -3.94114 -28.8586 2.71161 14
227 2 -11.2401 -10.0575 3.68387 11
228 2 0.0718354 -29.7258 7.16957 13
229 2 0.895246 -11.2718 9.60525 15
230 2 -5.35351 -10.417 1.10691 13
231 2 -6.346 -24.9385 13.4225 11
232 2 -7.22224 -14.911 -5.2774 13
233 2 -1.93569 -17.1418 14.3199 12
234 2 2.45317 -14.2289 4.71249 16
235 2 1.25765 -13.8352 8.81645 19
236 2 -9.72254 -23.7048 7.59232 18
237 2 -1.76573 -15.1282 11.922 17
238 2 -0.0511261 -19.2189 15.1672 8
239 2 -0.852126 -14.78 -5.34092 12
240 2 -2.22768 -18.2737 10.1999 19
241 2 4.63838 -23.9467 10.0635 10
242 2 -12.9824 -19.916 0.478411 15
243 2 -9.90757 -12.1937 1.14587 19
244 2 -9.67056 -13.9237 -4.87099 13
245 2 -4.63515 -27.1698 12.7948 9
246 2 0.399963 -10.685 4.35399 12
247 2 -9.77899 -22.7855 -3.23266 15
248 2 7.40549 -19.5396 3.62446 11
249 2 -12.7496 -13.3593 -0.229375 13
250 2 6.62715 -20.4898 6.8361 13
251 2 -7.47431 -27.0093 11.161 15
252 2 -10.6442 -26.0152 1.06579 15
253 2 -6.818 -12.4037 -0.0656819 18
254 2 -12.6559 -13.2087 3.13496 13
255 2 -4.02253 -24.769 11.0578 21
256 2 -13.3415 -16.5808 5.19551 14
257 2 -4.53457 -16.3864 12.7329 16
258 2 -10.6203 -20.2963 -4.04121 15
259 2 -2.28696 -10.1109 1.7106 11
260 2 -7.76078 -15.2269 11.2218 19
261 2 -12.1741 -17.9512 -4.15139 11
262 2 -7.82598 -25.706 0.670852 20
263 2 4.75678 -20.0168 9.40707 16
264 2 3.832 -17.8634 3.93811 21
265 2 0.274097 -27.8849 9.95666 14
266 2 -7.24754 -18.1761 13.1161 16
267 2 -10.1057 -23.136 1.46615 22
268 2 -10.2261 -17.1037 12.2214 13
269 2 -12.2493 -21.9633 9.0354 13
270 2 -5.03424 -27.6603 0.420748 12
271 2 -6.4499 -12.4054 -3.22222 15
272 2 0.573321 -15.7909 -2.84488 16
273 2 -2.49346 -26.0684 -0.465048 16
274 2 6.08075 -17.5987 11.0065 13
275 2 3.91184 -15.5339 12.0754 12
276 2 -3.59855 -13.2514 -4.93729 13
277 2 -7.69348 -20.923 -4.84336 14
278 2 -7.65518 -9.66371 8.83962 9
279 2 -9.42044 -12.8884 -1.96073 16
280 2 -13.1049 -16.9741 -0.3168 16
281 2 -10.2713 -13.6976 10.7612 13
282 2 4.05694 -22.2206 -0.840061 17
283 2 -13.4154 -15.2509 2.11699 14
284 2 -10.0635 -17.0592 -5.72546 10
285 2 1.54507 -24.4633 11.46 15
286 2 -9.40619 -19.9588 13.0218 13
287 2 -11.1208 -22.7836 11.7038 11
288 2 3.5499 -26.3028 10.2092 11
289 2 -14.0547 -19.5101 5.87583 12
290 2 -7.2508 -21.5237 14.6405 12
291 2 -4.23215 -27.9004 9.49786 16
292 2 7.07549 -17.1394 8.19892 12
293 2 -1.83175 -26.7986 7.40064 23
294 2 -8.28815 -10.0028 2.05755 12
295 2 -11.4825 -15.0074 -2.79178 16
296 2 -8.62994 -23.625 12.6811 15
297 2 -1.40865 -23.6342 12.8361 15
298 2 1.7471 -17.9477 -1.44192 17
299 2 3.70838 -13.1691 9.90605 14
300 2 2.9895 -19.0547 11.01 15
301 2 4.79557 -23.5927 2.46233 18
302 2 2.11196 -26.2952 2.54967 16
303 2 3.5636 -16.45 -0.578148 14
304 2 -13.3509 -21.8691 3.47899 13
305 2 4.54387 -25.387 7.229 14
306 2 -1.12909 -12.568 -0.326381 14
307 2 6.60822 -20.9898 0.771536 12
308 2 1.32383 -13.1979 2.08929 14
309 2 7.7174 -22.6954 3.66316 9
310 2 2.57541 -27.6401 6.11637 15
311 2 -5.77878 -26.5686 -2.30487 11
312 2 -2.26536 -9.91181 5.13801 14
313 2 -1.91109 -12.3276 10.0571 18
314 2 -5.60183 -29.8988 5.17033 12
315 2 -4.58095 -21.9184 12.6572 17
316 2 6.44707 -15.1315 10.2045 10
317 2 5.55658 -17.8463 1.48623 14
318 2 -9.8439 -17.7907 -2.46349 22
319 2 -10.2541 -27.7042 2.97897 15
320 2 0.309637 -26.8876 4.91401 20
321 1 -9.93433 -21.044 1.06479 23
322 1 -10.2914 -24.2255 3.09667 20
323 1 -3.69296 -26.914 1.97701 20
324 1 -7.11789 -25.8826 2.46683 21
325 1 -3.82232 -20.5851 -2.2254 20
326 1 -6.98424 -21.1363 -0.539128 20
327 1 -4.97683 -23.3524 -0.538308 22
328 1 -8.13934 -23.6867 1.23695 21
329 1 -4.29529 -21.5182 1.10964 20
330 1 -7.10159 -21.068 2.8039 22
331 1 -5.03477 -23.7868 2.99854 22
332 2 -10.6836 -20.6903 -0.620076 22
333 2 -8.23916 -28.3319 0.14677 11
334 2 -11.1064 -20.3124 2.77903 19
335 2 -5.2605 -25.8182 2.76566 20
336 2 -4.58545 -21.8413 -3.6619 17
337 2 -7.97395 -20.393 -2.06327 22
338 2 -3.89874 -24.4033 -2.16669 15
339 2 -7.42445 -22.998 -0.409117 22
340 2 -4.93505 -21.2537 -0.633352 21
341 2 -8.11073 -20.4602 1.10538 24
342 2 -4.10657 -23.4541 1.09922 19
343 2 -6.92558 -23.1393 2.97129 23
344 2 -5.08661 -21.0357 2.84795 21
345 1 -10.0149 -21.207 4.1477 21
346 1 -8.09459 -24.8882 8.12113 22
347 1 -9.7501 -21.6952 7.03614 18
348 1 -4.11214 -26.0411 4.52732 18
349 1 -3.83541 -26.923 7.85623 19
350 1 -7.71451 -23.8859 4.55037 24
351 1 -4.27427 -21.4167 4.43097 24
352 1 -7.00358 -21.0027 6.01996 20
353 1 -5.05666 -23.7738 6.55426 21
354 1 -7.7717 -24.7802 11.1608 20
355 1 -4.1861 -20.7115 7.60888 21
356 1 -6.88485 -21.8252 9.31068 19
357 1 -4.727 -23.8598 9.57383 19
358 1 -4.24747 -21.0228 11.0076 22
359 2 -9.61063 -23.0141 4.43508 21
360 2 -11.108 -20.8616 6.05283 20
361 2 -8.49552 -25.4954 3.70584 21
362 2 -4.89119 -27.1685 6.06095 23
363 2 -7.98184 -20.6236 4.39555 23
364 2 -3.88906 -24.0588 4.56898 21
365 2 -6.74048 -24.4853 6.2821 21
366 2 -5.26779 -21.6514 6.10266 21
367 2 -7.97598 -21.3208 7.72059 19
368 2 -3.9601 -24.8161 7.85235 20
369 2 -6.77243 -23.8806 9.65581 20
370 2 -4.90849 -21.951 9.06868 21
371 2 -7.61328 -21.1109 10.9362 19
372 1 -10.8736 -18.4516 -0.87665 26
373 1 -10.1592 -15.7597 1.42522 24
374 1 -10.8409 -18.4367 2.62437 21
375 1 -4.57869 -17.8027 -3.69482 20
376 1 -7.66839 -18.4479 -2.25031 22
377 1 -4.0461 -14.8266 -1.83206 22
378 1 -6.98371 -15.9285 -0.374679 22
379 1 -4.90992 -17.8227 -0.363837 23
380 1 -8.18966 -18.6072 1.00526 22
381 1 -3.94752 -15.3299 1.38031 18
382 1 -7.05041 -16.1489 2.8355 21
383 1 -4.98617 -18.9142 2.78231 23
384 1 -7.94033 -13.0404 1.43577 23
385 1 -5.07723 -13.3603 2.91516 20
386 2 -10.0678 -17.4805 0.849758 23
387 2 -10.5875 -15.2111 3.37095 21
388 2 -3.98012 -18.7901 -2.32784 23
389 2 -6.95718 -18.1885 -0.474579 22
390 2 -5.03951 -15.9006 -0.362742 22
391 2 -8.10315 -15.0307 0.888109 22
392 2 -4.14856 -18.4418 1.20959 19
393 2 -7.12732 -18.2626 2.63044 21
394 2 -5.25093 -15.6074 2.73365 22
395 2 -3.93298 -13.2639 1.14978 18
396 2 -6.89417 -12.7076 2.92451 21
397 1 -10.0236 -15.8137 5.01042 19
398 1 -10.7996 -19.0698 5.93465 21
399 1 -9.95129 -15.3687 8.03321 20
400 1 -7.87244 -18.2526 4.50568 18
401 1 -4.54423 -16.0116 4.6078 19
402 1 -7.08912 -15.2941 6.23032 19
403 1 -5.3398 -18.207 6.50322 21
404 1 -8.13589 -19.1612 7.96551 17
405 1 -4.15929 -15.3526 7.92883 21
406 1 -6.98925 -16.0277 9.15135 19
407 1 -4.41587 -18.1981 9.81817 21
408 1 -7.38168 -19.1197 11.2911 17
409 1 -8.16461 -12.7329 4.72439 20
410 1 -5.24314 -12.4314 6.44406 17
411 2 -10.2453 -18.0063 4.56384 21
412 2 -11.1527 -15.0708 6.60834 16
413 2 -10.071 -18.8799 8.0347 15
414 2 -7.97398 -15.7646 4.6458 20
415 2 -4.43048 -18.0154 4.57306 18
416 2 -6.93102 -18.8911 6.13611 20
417 2 -5.04539 -16.1235 6.52622 22
418 2 -7.97243 -15.0027 7.90584 20
419 2 -4.27067 -18.7576 7.89126 20
420 2 -7.47418 -18.011 9.46882 22
421 2 -5.03301 -16.3426 9.50998 19
422 2 -5.33998 -19.352 11.5078 20
423 2 -4.58354 -12.8055 4.64452 20
424 2 -7.14006 -13.206 6.26382 17
425 2 -4.38026 -13.5024 8.26307 24
426 1 -1.22354 -27.4854 5.70583 20
427 1 -2.30164 -24.315 -1.04493 17
428 1 -1.24946 -21.6105 -0.197224 22
429 1 0.965367 -24.2939 0.216052 21
430 1 -2.1226 -23.4138 1.71798 20
431 1 1.68684 -21.2316 1.76858 22
432 1 -1.26609 -20.7191 3.27404 19
433 1 1.26661 -23.8895 3.33287 21
434 2 -0.796079 -28.3587 1.79085 12
435 2 -1.80849 -20.9021 -1.86887 21
436 2 -0.901109 -23.5421 -0.107832 19
437 2 0.672531 -20.9579 0.0236638 21
438 2 -2.29715 -21.4651 1.63202 24
439 2 2.11772 -23.3788 1.79273 21
440 2 -0.684154 -23.5964 3.15697 22
441 2 0.617797 -20.6233 3.7134 23
442 2 3.60773 -20.9542 2.1375 21
443 1 -1.73996 -23.5373 4.78505 21
444 1 1.79184 -20.817 5.18827 22
445 1 -0.957626 -21.5431 6.40034 20
446 1 1.2203 -24.533 6.3902 23
447 1 -2.10645 -24.3151 7.67755 20
448 1 1.72853 -21.8613 8.05896 20
449 1 -1.20681 -21.9019 9.62185 22
450 1 0.870259 -23.9383 9.75305 22
451 2 -2.48806 -26.5119 3.50837 20
452 2 -1.81815 -29.5453 10.1704 12
453 2 -2.10148 -21.4412 4.88377 19
454 2 2.34797 -24.4725 4.84782 19
455 2 -0.548066 -23.7088 6.46194 22
456 2 0.934574 -20.6398 6.82391 21
457 2 -2.2571 -20.9872 7.6063 20
458 2 1.31282 -25.3221 8.30238 22
459 2 -1.18576 -23.8469 9.37357 21
460 2 1.6035 -22.0248 9.89081 19
461 2 -2.46229 -21.1358 11.0501 20
462 2 3.75426 -20.3452 5.09288 17
463 1 -2.02268 -18.8391 -1.76126 20
464 1 -1.30437 -16.158 -0.254773 22
465 1 0.857154 -18.9637 0.150766 22
466 1 -2.25469 -18.2149 1.67844 19
467 1 1.39901 -16.1535 2.14401 23
468 1 -1.60355 -15.2835 3.48373 22
469 1 0.590353 -18.4491 3.87486 21
470 1 -2.21759 -12.0795 1.46095 17
471 1 3.55608 -18.7735 2.20646 20
472 2 -2.12707 -15.3658 -1.97243 23
473 2 -1.04772 -18.4632 0.0074321 22
474 2 0.663303 -15.3527 0.377277 17
475 2 -2.14237 -16.1004 1.72584 19
476 2 1.72202 -18.0909 1.86675 20
477 2 -1.5351 -18.727 3.41005 17
478 2 0.112337 -16.1357 3.68333 19
479 2 -1.65932 -12.625 3.33367 18
480 1 -2.49608 -18.7415 4.99904 23
481 1 1.34291 -15.6976 5.2098 21
482 1 -1.65361 -16.1042 6.80747 20
483 1 0.593796 -18.5984 6.81998 19
484 1 -2.3356 -18.897 8.10235 21
485 1 1.41338 -15.7824 8.88295 20
486 1 -1.44131 -16.2618 10.2885 24
487 1 0.860291 -18.2408 9.90679 16
488 1 -1.54069 -19.3305 11.7818 21
489 1 -2.65545 -13.2537 5.19033 21
490 1 -2.31697 -13.247 8.4944 23
491 1 3.43814 -18.4196 5.745 19
492 2 -2.54831 -15.2869 5.23653 21
493 2 1.7922 -17.8441 5.57176 21
494 2 -1.40537 -18.2803 6.55935 21
495 2 0.0139283 -15.2064 6.85957 21
496 2 -2.18581 -15.1568 8.6342 26
497 2 1.78328 -17.7084 8.34939 17
498 2 0.0816202 -19.7703 10.7755 18
499 2 0.471043 -16.2963 10.632 19
500 2 -1.29378 -12.6149 6.68164 23
