ITEM: TIMESTEP
41000
ITEM: NUMBER OF ATOMS
500
ITEM: BOX BOUNDS pp pp pp
-30.0 30.0
-30.0 30.0
-30.0 30.0
ITEM: ATOMS id type x y z Coordination
1 1 3.26428 -13.365 10.1748 15
2 1 -1.14454 -8.69761 10.884 18
3 1 -4.70857 -14.0131 -4.91107 20
4 1 -11.1551 -9.68899 -1.12431 16
5 1 -0.0947335 -7.52171 -8.74477 10
6 1 3.87511 -18.8321 -0.577782 11
7 1 5.83065 -11.4166 9.71818 12
8 1 1.44581 -7.13839 11.5608 12
9 1 -11.6083 -11.6324 5.90537 15
10 1 6.32424 -12.3555 1.63844 21
11 1 6.35754 -8.38284 9.11157 13
12 1 -7.42544 -20.5563 5.92498 14
13 1 -1.79634 -15.8209 -5.04991 17
14 1 6.4972 -13.8174 -1.08983 15
15 1 5.71542 -19.0937 5.16628 13
16 1 -6.60574 -3.04794 7.72995 14
17 1 -1.44462 -1.32801 3.97853 11
18 1 -2.48312 -12.7939 -6.50838 15
19 1 -3.72237 -7.29465 10.2301 16
20 1 -6.33827 -5.58346 6.49683 22
21 1 -1.0744 -7.98816 -5.44606 23
22 1 -4.92892 -3.07547 1.34681 16
23 1 -7.69847 -7.66565 -3.7104 20
24 1 -4.13192 -0.815161 3.34783 8
25 1 -10.8783 -8.32639 1.45193 15
26 1 -1.32618 -5.6315 9.62344 17
27 1 -9.64264 -6.81776 -6.39607 10
28 1 -8.70505 -19.2945 9.00935 11
29 1 2.79665 -20.8306 1.79768 11
30 1 -10.5955 -15.3058 -3.91973 10
31 1 -1.006 -21.279 6.84241 13
32 1 3.4563 -7.65031 -2.92181 14
33 1 -11.7321 -15.5481 -0.710724 14
34 1 -0.665507 -4.89517 -6.33013 11
35 1 -2.33383 -2.35411 0.462835 14
36 1 -10.8951 -13.2603 8.52719 13
37 1 -0.420517 -2.45622 8.14261 11
38 1 1.70563 -13.2829 12.686 11
39 1 -0.184356 -20.5155 2.08576 15
40 1 6.30181 -13.2763 -3.8293 12
41 1 1.87104 -16.3123 11.2434 12
42 1 -0.878435 -16.903 9.57794 17
43 1 3.04223 -5.72599 1.89178 18
44 1 -10.3218 -18.5328 5.88619 11
45 1 -5.41918 -22.0844 3.77825 12
46 1 -6.53531 -15.4844 12.4925 12
47 1 -9.93681 -10.445 7.46276 16
48 1 4.72212 -21.8532 5.15911 9
49 1 -8.90545 -16.0978 7.59018 20
50 1 -7.54787 -3.21046 2.91087 17
51 1 -9.03932 -2.65367 5.5091 12
52 1 -6.85458 -5.89307 9.76986 16
53 1 -10.9377 -18.6177 1.27833 11
54 1 -4.86925 -16.042 -7.21187 8
55 1 3.66043 -9.36632 10.0244 16
56 1 -3.71112 -16.3228 11.5564 14
57 1 -6.93418 -13.1711 -7.29557 10
58 1 -11.3218 -12.8221 0.35863 16
59 1 -7.89471 -19.5044 -0.00797729 14
60 1 -9.21855 -4.90002 7.92283 13
61 1 -2.3411 -20.5147 -2.49389 11
62 1 -3.86118 -4.3607 8.06426 17
63 1 -10.7548 -13.0516 -2.71448 14
64 1 -12.0343 -5.55306 -0.253488 9
65 1 -3.74264 -18.1747 -4.28799 12
66 1 2.75033 -19.3287 9.80633 11
67 1 -10.1211 -7.26547 -2.66848 14
68 1 -6.70405 -11.7558 12.3246 14
69 1 -9.07854 -7.8791 9.74604 12
70 1 -3.43129 -4.5078 -4.94748 16
71 1 -2.81869 -19.7959 9.52566 13
72 1 0.479657 -19.5752 -1.00764 11
73 1 3.36852 -12.3738 -5.76177 11
74 1 4.95188 -17.6989 9.93122 9
75 1 -9.16255 -17.1351 -1.85693 16
76 1 -7.84169 -13.6853 10.0504 17
77 1 8.09101 -10.225 6.96974 11
78 1 6.12563 -8.59303 2.37481 20
79 1 -3.37291 -6.31373 -7.70136 13
80 1 -6.92821 -6.89976 -7.5828 13
81 1 0.760989 -2.82211 1.66355 13
82 1 2.20687 -9.59883 -4.82405 17
83 1 1.17866 -22.5274 4.3265 11
84 1 5.83136 -16.3962 3.26922 17
85 1 -2.10163 -22.5289 4.03539 12
86 1 -10.0836 -9.48358 -4.53452 15
87 1 8.96315 -10.8447 1.6781 12
88 1 -8.76913 -5.23956 -2.05387 16
89 1 1.86749 -16.017 -5.11354 10
90 1 -9.61206 -16.1148 10.3856 11
91 1 -3.33053 -21.3639 1.10089 14
92 1 0.222962 -13.6828 -5.20582 16
93 1 2.87347 -20.0462 6.32132 16
94 1 -6.28441 -16.4057 -3.52098 17
95 1 -1.20234 -11.4596 13.5227 13
96 1 -3.79812 -9.76505 12.4588 13
97 1 3.33046 -14.0723 -3.20302 18
98 1 2.48272 -5.44879 -0.93696 14
99 1 7.64317 -11.0831 -1.76197 14
100 1 -8.27938 -10.0493 -7.21415 14
101 1 -11.1069 -8.31987 4.70505 15
102 1 -1.08664 -14.5802 11.9418 15
103 1 -10.1272 -12.446 -5.92866 11
104 1 5.18092 -16.1076 6.82407 15
105 1 4.44144 -5.91788 10.473 13
106 1 0.575608 -18.697 7.78299 19
107 1 6.15094 -8.00577 5.57692 19
108 1 4.83857 -3.20739 9.72189 8
109 1 1.89072 -5.52265 8.654 23
110 1 -7.23632 -4.51679 -5.15242 12
111 1 -8.87336 -16.3931 4.27375 20
112 1 -10.842 -3.81216 2.70865 10
113 1 5.87827 -6.07724 0.298095 11
114 1 1.61652 -9.97986 12.5357 11
115 1 -2.01499 -9.62225 -7.68348 15
116 1 3.71955 -3.02726 3.28271 10
117 1 4.85495 -16.4362 -2.42906 13
118 1 5.7914 -20.2848 8.15177 9
119 1 -6.57141 -8.81584 11.4561 14
120 1 5.95529 -12.0721 7.24957 16
121 1 -5.56107 -4.83943 -3.1747 17
122 1 6.79033 -8.21131 -2.06062 10
123 1 -4.20438 -12.7833 12.1621 15
124 1 -5.94172 -18.8174 10.927 13
125 1 -8.95004 -5.93659 4.51898 19
126 1 2.62879 -5.55512 5.42489 20
127 1 -11.5513 -15.0877 5.89717 15
128 1 6.17516 -14.2983 4.73245 18
129 1 -5.37364 -18.9734 4.50342 20
130 1 5.44796 -5.41608 7.35162 14
131 1 5.74246 -19.5856 2.08995 11
132 1 0.926157 -3.14546 5.00841 15
133 1 -12.5805 -15.8202 2.25917 10
134 1 -0.152592 -4.93775 -3.09812 16
135 1 -7.89422 -13.8994 -3.86645 18
136 1 0.456516 -11.005 -6.98237 14
137 1 -5.08011 -19.6779 -1.44932 15
138 1 8.14682 -14.5521 1.87541 13
139 1 -12.2654 -10.8883 2.6103 14
140 1 -4.56963 -7.54884 -5.51889 21
141 1 -8.03002 -19.2797 3.27214 18
142 1 6.5194 -14.8506 8.69431 9
143 1 -5.06468 -10.3373 -7.14905 15
144 1 -9.24103 -2.93537 0.0310494 11
145 1 -9.2424 -10.807 10.3419 13
146 1 5.66406 -5.58365 3.76251 13
147 1 9.18089 -9.05354 3.90913 10
148 1 -5.60536 -19.6371 8.00789 18
149 1 4.75542 -10.2105 -3.63247 15
150 1 1.54825 -6.29879 -5.49208 11
151 1 2.83768 -2.18025 6.82501 11
152 1 -3.31502 -4.79533 -1.40624 19
153 1 8.34841 -8.41206 0.573914 12
154 1 6.24142 -16.7907 0.110179 13
155 1 -3.51079 -1.52898 6.81823 10
156 1 -5.60347 -2.92843 4.95725 18
157 1 -4.014 -22.1401 6.75037 11
158 1 8.60846 -12.3046 4.2827 15
159 1 -11.0275 -13.5994 3.2955 19
160 1 -9.16566 -5.69983 1.13827 21
161 2 -10.312 -11.5425 9.01788 13
162 2 6.22163 -5.80099 5.47917 12
163 2 -8.3738 -7.19606 -1.80183 23
164 2 -5.71417 -21.2868 7.13517 12
165 2 2.68532 -8.4867 11.6382 12
166 2 -8.31601 -3.1561 7.0888 12
167 2 5.50948 -17.7451 -1.23139 12
168 2 -5.36747 -9.69167 -5.3786 16
169 2 -0.700606 -12.4934 -6.59627 17
170 2 -5.99434 -4.89186 8.31811 17
171 2 5.73376 -14.0774 6.59014 16
172 2 4.9917 -8.5786 4.12077 18
173 2 -1.92938 -1.75215 7.48596 9
174 2 3.14604 -2.74744 5.09471 11
175 2 0.522734 -4.74315 -4.86102 11
176 2 4.84855 -12.2123 -4.52472 13
177 2 -9.52238 -10.7682 -5.86641 14
178 2 -1.14646 -19.0502 9.04033 15
179 2 -10.5816 -10.1938 5.32865 18
180 2 3.29009 -15.8885 -3.55271 13
181 2 -6.76447 -20.733 4.00201 13
182 2 2.502 -5.82945 10.2902 15
183 2 2.20837 -14.3978 11.3497 12
184 2 -8.72519 -19.8892 7.28604 13
185 2 -0.621088 -21.8738 5.05582 14
186 2 -10.5941 -16.5196 6.58391 14
187 2 -4.95242 -21.0874 2.12719 16
188 2 -12.4606 -17.7595 1.94707 8
189 2 -7.43918 -2.67398 4.76178 15
190 2 7.38966 -7.35931 -0.527654 12
191 2 -0.131538 -9.74706 -5.03559 21
192 2 -3.17376 -1.80295 4.83503 11
193 2 -9.97784 -4.1652 4.64216 13
194 2 -2.505 -1.05322 2.32831 10
195 2 -2.33051 -4.96605 -3.15821 19
196 2 -3.22928 -5.71532 9.37017 15
197 2 -0.249292 -13.0915 12.8253 12
198 2 2.0339 -13.863 -5.07708 13
199 2 1.33028 -21.7248 2.47366 10
200 2 -9.18288 -18.1827 4.54093 19
201 2 7.22171 -15.0735 3.25149 13
202 2 3.87305 -5.23787 3.67005 16
203 2 -2.022 -7.73371 -8.28363 12
204 2 0.0383121 -9.28742 -8.10644 10
205 2 -8.64114 -15.94 -3.41667 15
206 2 0.0368756 -15.6759 -4.90917 13
207 2 7.21863 -12.6078 -2.48976 11
208 2 -3.31316 -11.2363 -6.85745 16
209 2 -4.87923 -16.9252 -5.42302 12
210 2 -2.89545 -8.21731 -5.16125 20
211 2 -6.24849 -18.7134 6.09992 19
212 2 -8.38812 -5.92916 6.50729 18
213 2 -9.16473 -17.3691 9.08177 14
214 2 -10.9234 -10.7809 1.34023 16
215 2 5.29471 -20.3812 6.47896 10
216 2 0.919003 -2.4415 6.75988 13
217 2 -3.04792 -11.2822 12.9335 14
218 2 -9.42013 -8.8628 8.24786 15
219 2 -11.3528 -14.9375 -2.35814 14
220 2 8.1075 -8.97014 2.41715 15
221 2 -11.8351 -15.2464 4.02638 13
222 2 -5.7328 -7.14722 -3.9817 21
223 2 2.05172 -11.0112 -6.31429 13
224 2 -7.95772 -5.14146 2.95875 23
225 2 2.21136 -18.8672 -1.43127 13
226 2 -2.02801 -21.4748 2.40519 16
227 2 -9.36478 -2.60366 2.1696 10
228 2 2.65369 -21.6536 5.05988 12
229 2 3.7804 -2.57842 8.40982 10
230 2 -3.84951 -3.20545 -0.276352 14
231 2 -5.6551 -16.7939 11.4491 12
232 2 -5.11601 -6.9251 -7.31965 14
233 2 -0.187778 -10.2179 11.8557 16
234 2 6.16508 -6.43301 2.12956 14
235 2 3.42987 -5.77087 7.2215 20
236 2 -8.23769 -15.4946 5.80125 22
237 2 -0.264613 -7.07191 10.531 14
238 2 2.43146 -11.5432 12.3946 11
239 2 0.194908 -6.62415 -6.95129 14
240 2 -0.699763 -10.2035 8.84177 20
241 2 5.77276 -16.4818 8.70327 12
242 2 -10.7413 -11.5216 -1.28279 17
243 2 -8.08788 -4.40836 -0.145075 18
244 2 -7.99396 -5.70019 -6.30808 11
245 2 -4.67269 -19.6212 9.80785 13
246 2 2.32236 -3.70322 1.97372 15
247 2 -5.5674 -14.2166 -6.59576 13
248 2 9.88439 -10.7478 3.97303 8
249 2 -10.6833 -5.53831 -1.62708 12
250 2 7.49841 -11.8564 6.02204 14
251 2 -7.10496 -18.7747 9.53965 15
252 2 -10.5067 -16.9497 -0.0289567 15
253 2 -4.98415 -5.70099 -1.47107 22
254 2 -11.0082 -4.64351 1.17054 13
255 2 -2.94789 -17.313 10.0169 17
256 2 -11.7976 -8.99614 2.94166 14
257 2 -2.89747 -8.41743 11.664 16
258 2 -10.6803 -13.5797 -4.59252 10
259 2 -0.741233 -3.30907 0.632437 14
260 2 -5.93602 -7.46513 10.0725 15
261 2 -7.98509 -12.9291 -5.64834 14
262 2 -6.14947 -18.5256 -0.00405913 20
263 2 6.12311 -13.2103 9.08146 13
264 2 5.75417 -10.3557 1.54946 21
265 2 1.97567 -19.7895 8.06909 15
266 2 -5.72354 -10.0891 12.5722 12
267 2 -8.02867 -15.8095 -0.460429 24
268 2 -8.4332 -9.22916 11.0558 12
269 2 -10.9655 -13.3496 6.49356 17
270 2 -3.52619 -20.2182 -0.536397 14
271 2 -5.17253 -4.66935 -5.17768 14
272 2 2.54745 -7.64163 -4.58518 14
273 2 -0.707833 -19.5057 -2.71562 11
274 2 6.8889 -10.3646 8.54409 14
275 2 4.67972 -7.7142 10.2769 16
276 2 -2.39624 -5.50471 -6.30124 16
277 2 -6.75069 -11.3439 -7.30081 11
278 2 -4.88475 -2.76595 7.02198 13
279 2 -7.54708 -4.52021 -3.22996 14
280 2 -10.9925 -9.03753 -2.89556 12
281 2 -8.77242 -5.81098 9.60595 12
282 2 5.44351 -14.6014 -2.50554 14
283 2 -11.5153 -7.92074 -0.2639 14
284 2 -8.26962 -8.13989 -7.59926 12
285 2 2.92866 -17.2721 10.024 15
286 2 -7.7381 -11.8711 10.8255 14
287 2 -9.35956 -14.5864 8.86888 17
288 2 4.79627 -19.5353 9.50261 8
289 2 -12.0903 -12.1216 3.94491 13
290 2 -5.75159 -13.8223 12.6938 13
291 2 -2.55632 -21.0495 7.89042 13
292 2 7.88149 -8.81762 5.59621 14
293 2 2.4662 -18.6318 5.1939 15
294 2 -5.29396 -2.34885 3.00068 13
295 2 -9.34613 -7.5545 -4.75008 17
296 2 -7.85328 -15.5224 11.0188 14
297 2 -0.129017 -16.0926 11.2366 15
298 2 2.82877 -9.75705 -2.98558 19
299 2 5.38042 -4.71544 9.04902 11
300 2 3.80019 -11.4216 9.71777 18
301 2 7.20203 -15.0708 0.308032 13
302 2 5.95401 -17.72 1.64961 13
303 2 5.19658 -7.38387 -2.83538 12
304 2 -11.9734 -14.6797 0.838112 11
305 2 5.95503 -17.104 5.19219 15
306 2 0.758744 -4.77066 -1.56389 12
307 2 8.45933 -10.3188 -0.189629 14
308 2 4.06943 -6.48677 0.389729 16
309 2 8.13322 -12.5509 2.27047 15
310 2 5.5095 -20.2366 3.80022 12
311 2 -3.92492 -19.4819 -2.93384 13
312 2 0.159838 -2.41331 3.31736 13
313 2 0.0206621 -4.76618 8.45474 15
314 2 -3.96273 -22.3191 4.89745 14
315 2 -2.89308 -14.2912 11.4561 18
316 2 5.51076 -7.90753 7.50233 18
317 2 6.08694 -10.0121 -1.81573 19
318 2 -7.843 -9.67216 -3.31 20
319 2 -9.099 -18.8904 1.49908 15
320 2 4.15798 -19.902 1.02218 9
321 1 -8.15363 -13.7806 -0.525846 26
322 1 -8.91255 -16.414 0.989065 23
323 1 -2.16483 -18.7276 0.102439 22
324 1 -5.0172 -18.9774 1.6638 21
325 1 -2.56611 -13.2457 -3.52387 22
326 1 -5.23746 -13.6115 -1.98809 22
327 1 -3.38736 -16.3172 -1.9761 23
328 1 -6.13623 -16.4009 -0.277079 23
329 1 -2.44877 -13.1156 -0.176029 21
330 1 -5.19615 -13.709 1.54254 21
331 1 -3.34046 -16.3561 1.68655 23
332 2 -8.63857 -12.7225 -2.5005 23
333 2 -8.75865 -18.9816 -1.61263 12
334 2 -9.40696 -12.9855 0.943503 21
335 2 -3.15368 -18.4503 1.78461 21
336 2 -2.89354 -14.2912 -5.04692 19
337 2 -6.01706 -14.6511 -3.54374 19
338 2 -2.3285 -16.9477 -3.50175 17
339 2 -5.23016 -17.2068 -2.06306 19
340 2 -3.49006 -14.1768 -2.12447 21
341 2 -6.24281 -13.3511 -0.123841 20
342 2 -2.51097 -16.6588 -0.0396094 20
343 2 -5.25948 -15.6325 1.43115 23
344 2 -2.90585 -13.0764 1.78892 22
345 1 -8.09579 -13.7593 2.50248 21
346 1 -6.48281 -16.7639 6.18871 23
347 1 -8.78899 -13.5168 5.83768 24
348 1 -2.5316 -19.3253 3.3752 21
349 1 -2.4495 -18.6801 6.70979 21
350 1 -6.29972 -16.2219 3.08502 22
351 1 -2.45347 -13.4976 3.50708 21
352 1 -5.61056 -13.9238 4.39144 23
353 1 -3.25121 -16.1825 4.87059 20
354 1 -6.62964 -16.5809 9.68363 20
355 1 -2.56473 -13.268 6.5741 20
356 1 -5.51344 -13.9558 7.85398 20
357 1 -3.60153 -16.3821 8.20743 22
358 1 -2.62346 -13.6327 9.5479 21
359 2 -8.19626 -15.7199 2.6408 23
360 2 -9.31254 -13.0989 3.86723 23
361 2 -6.40122 -18.2298 2.88807 22
362 2 -3.30862 -18.3824 5.03621 20
363 2 -6.24672 -12.9858 2.84899 24
364 2 -2.24924 -15.7437 3.28052 23
365 2 -5.34329 -15.8942 4.82209 24
366 2 -3.58204 -13.3266 4.99381 22
367 2 -6.14744 -13.3377 6.08227 20
368 2 -2.14911 -16.6266 6.74173 20
369 2 -5.8412 -16.1828 8.01986 21
370 2 -3.60742 -14.3704 7.97395 20
371 2 -6.17446 -13.2453 9.37977 19
372 1 -8.50618 -10.905 -1.99185 19
373 1 -7.96305 -8.31427 -0.322886 22
374 1 -9.04427 -10.8616 1.26018 24
375 1 -3.38339 -10.3533 -4.86545 20
376 1 -6.4085 -10.5807 -4.00091 23
377 1 -2.65119 -7.0666 -3.44174 20
378 1 -5.26415 -7.62599 -1.95127 20
379 1 -3.52588 -10.3782 -1.76273 20
380 1 -5.88681 -11.006 -0.273705 21
381 1 -2.30198 -7.71981 -0.38363 22
382 1 -5.2768 -8.36781 1.72258 22
383 1 -3.31825 -10.8964 1.64141 21
384 1 -6.41661 -5.53932 0.0579469 22
385 1 -3.12447 -5.86651 1.71285 21
386 2 -7.7215 -10.3137 -0.296456 21
387 2 -8.97841 -7.83246 1.39084 23
388 2 -2.56853 -11.2404 -3.30437 22
389 2 -5.41669 -11.2102 -2.23626 19
390 2 -3.42557 -8.30049 -2.0719 19
391 2 -5.87938 -7.58127 -0.0397962 21
392 2 -2.67298 -10.8982 -0.0819421 19
393 2 -5.27403 -10.4398 1.73793 23
394 2 -3.45381 -7.8745 1.11534 22
395 2 -2.18775 -5.56517 -0.00944462 20
396 2 -5.04172 -5.00186 1.49957 19
397 1 -8.13939 -8.4844 3.11384 23
398 1 -9.06393 -11.2127 4.54899 23
399 1 -8.14919 -7.87421 6.70481 20
400 1 -6.18702 -11.2487 3.3612 21
401 1 -2.56079 -8.21556 3.31624 22
402 1 -5.17875 -8.48611 5.09619 21
403 1 -3.37157 -10.9566 4.9282 22
404 1 -6.62817 -11.4791 6.71356 18
405 1 -2.37682 -7.9526 6.94212 19
406 1 -5.319 -8.62451 8.41278 19
407 1 -2.63045 -10.5345 8.48317 21
408 1 -5.57361 -11.5407 9.63517 20
409 1 -6.17016 -5.86309 3.07375 22
410 1 -3.05065 -5.1645 4.96781 17
411 2 -8.4467 -10.4076 2.98855 23
412 2 -9.27655 -7.97172 4.85091 17
413 2 -8.48845 -11.8095 6.64478 22
414 2 -6.06182 -8.03204 3.48705 21
415 2 -2.37647 -10.3358 3.21769 23
416 2 -5.35225 -10.4536 4.87219 23
417 2 -3.152 -8.36265 5.32587 20
418 2 -6.19578 -7.78474 6.78232 18
419 2 -2.21019 -11.4135 6.73427 22
420 2 -6.01521 -10.4719 8.11954 20
421 2 -3.35607 -8.76559 8.52367 20
422 2 -3.67192 -11.265 10.0988 22
423 2 -2.27904 -5.88824 3.39677 18
424 2 -5.33612 -4.87754 4.78448 23
425 2 -2.77572 -5.34587 6.85181 19
426 1 0.480026 -18.6601 4.91145 20
427 1 -0.709494 -17.6288 -3.00641 16
428 1 0.485082 -13.3926 -1.66862 21
429 1 2.02628 -16.6741 -1.58485 17
430 1 -0.610111 -15.6312 -0.157233 19
431 1 3.38747 -13.6044 -0.0929834 19
432 1 0.364907 -13.3724 1.56092 22
433 1 2.44773 -15.7425 1.88748 15
434 2 -0.654168 -19.8442 0.456299 16
435 2 -0.517586 -13.1851 -3.48728 19
436 2 0.161368 -16.3833 -1.6381 20
437 2 2.4362 -13.1366 -1.87282 19
438 2 -0.656659 -13.7572 -0.062475 18
439 2 2.93158 -15.6667 -0.0951071 20
440 2 0.622056 -16.0261 1.49143 17
441 2 2.28855 -13.5971 1.76794 19
442 2 5.27074 -12.6796 -0.092042 22
443 1 -0.258325 -16.7338 2.89784 21
444 1 3.52931 -13.2932 3.28821 20
445 1 0.466468 -14.16 4.67818 23
446 1 2.43563 -16.7356 4.88794 20
447 1 -0.304505 -15.6765 6.41638 22
448 1 3.18903 -13.7214 6.60029 23
449 1 0.641927 -13.0985 8.24222 20
450 1 2.47236 -15.8556 8.30296 20
451 2 -0.673301 -18.6292 2.98528 17
452 2 -0.732894 -19.46 6.34998 18
453 2 -0.324877 -12.9777 3.44418 24
454 2 4.28046 -15.1745 3.28045 18
455 2 0.743579 -16.2804 4.84204 21
456 2 2.27064 -13.5334 4.93748 26
457 2 -0.495348 -13.6285 6.55312 20
458 2 3.42181 -16.1981 6.44045 20
459 2 0.546452 -16.6627 8.17587 20
460 2 2.74906 -14.1155 8.46563 22
461 2 -0.970569 -12.853 9.33822 17
462 2 5.47456 -12.6677 3.62349 20
463 1 -0.689637 -11.1922 -3.59887 20
464 1 0.58091 -8.39917 -2.12054 21
465 1 2.43545 -10.9929 -1.5917 21
466 1 -0.504291 -10.492 -0.0805123 23
467 1 3.33945 -8.52565 0.327647 21
468 1 0.644824 -7.75371 1.56832 23
469 1 2.21627 -10.7296 1.91486 20
470 1 -0.447295 -5.13734 0.206669 20
471 1 5.10624 -10.6827 -0.328618 18
472 2 -0.723941 -7.68746 -3.4215 20
473 2 0.580159 -10.8611 -1.81803 18
474 2 1.97776 -7.53863 -1.04981 21
475 2 -0.661846 -8.51251 -0.0884558 19
476 2 3.16956 -10.4451 0.0782935 19
477 2 0.25299 -11.0307 1.50207 22
478 2 2.31293 -8.62634 2.02492 23
479 2 1.11078 -5.9959 1.60772 20
480 1 -0.490014 -10.8708 3.17122 22
481 1 3.13286 -8.38227 3.86663 21
482 1 0.36244 -8.22008 5.12462 22
483 1 2.29996 -10.821 5.25943 21
484 1 -0.325368 -11.4624 6.27446 21
485 1 3.49687 -7.8431 7.01106 21
486 1 0.48217 -8.94998 8.32599 23
487 1 3.03643 -11.002 7.82585 21
488 1 -0.426399 -11.4986 10.5144 18
489 1 -0.161583 -5.9381 3.57198 21
490 1 -0.741392 -5.64223 6.72927 20
491 1 5.0197 -10.8401 4.25432 18
492 2 -0.542246 -7.92388 3.17755 20
493 2 3.10933 -11.2185 3.41732 19
494 2 0.332819 -10.2184 4.98731 25
495 2 2.31568 -7.69517 5.41739 21
496 2 -0.440458 -7.62787 7.09291 21
497 2 4.14722 -11.1313 6.21536 23
498 2 1.49841 -11.6765 7.12575 19
499 2 2.57144 -9.11381 8.26042 19
500 2 0.727788 -5.05588 5.1397 21
