ITEM: TIMESTEP
7000
ITEM: NUMBER OF ATOMS
1500
ITEM: BOX BOUNDS pp pp pp
-30.0 30.0
-30.0 30.0
-30.0 30.0
ITEM: ATOMS id type x y z Coordination
1 1 -6.53977 -12.0251 -8.13866 17
2 1 7.79275 -10.119 5.5101 15
3 1 -13.4188 7.19239 -4.10475 16
4 1 -7.45868 4.98527 -9.61577 16
5 1 5.02924 -9.92068 10.6912 7
6 1 -7.46338 -0.565967 -10.2462 20
7 1 -3.5465 -10.3939 -0.809258 20
8 1 -13.6171 -7.21922 5.34038 15
9 1 -0.696129 2.406 13.234 14
10 1 -3.19067 2.46724 10.9384 22
11 1 -2.38675 8.50802 -10.3358 17
12 1 3.02036 -2.78972 10.0572 17
13 1 13.5826 5.76399 5.2979 11
14 1 0.804946 13.9542 -10.7184 11
15 1 3.83184 4.20399 -14.1502 15
16 1 -1.11631 -4.70289 -9.26502 19
17 1 7.19837 -10.3512 -0.372516 17
18 1 10.6234 -11.205 1.3392 10
19 1 -3.90377 -14.2382 -8.55297 13
20 1 1.93391 -7.72303 -14.5501 14
21 1 -1.98512 5.85027 14.3228 11
22 1 1.90311 -10.8786 5.55447 20
23 1 5.62613 -4.59811 11.7757 16
24 1 -16.2033 -6.0151 3.02037 9
25 1 -9.66094 0.368353 -4.48225 19
26 1 -4.59891 10.0762 -5.1504 19
27 1 1.68439 0.130527 -10.8325 17
28 1 4.90115 -10.1524 -9.75651 19
29 1 -1.4445 -5.41306 13.2411 9
30 1 -11.286 9.12416 2.72067 13
31 1 0.166755 9.90328 8.1931 15
32 1 -12.0736 10.0614 -5.67885 12
33 1 -7.81047 12.8291 -0.944129 17
34 1 2.05722 -10.3686 2.5529 19
35 1 6.82746 -12.4051 -7.52712 20
36 1 -10.7717 -0.377491 9.79461 10
37 1 -12.0949 -3.27508 -9.75892 16
38 1 5.6642 -1.88562 5.52256 21
39 1 -10.2095 9.68251 -7.37012 14
40 1 -8.46698 -13.2282 4.15018 9
41 1 -10.9209 5.37564 -9.39197 14
42 1 2.50566 2.89102 7.50549 25
43 1 6.72497 -15.7506 -0.986836 14
44 1 5.21964 5.61925 10.1958 18
45 1 10.1833 -3.97088 -8.8599 23
46 1 7.85638 -11.1355 2.37529 17
47 1 6.59319 1.27426 13.8562 6
48 1 -5.26774 -12.8833 5.42008 16
49 1 -12.4413 -3.75989 -0.895423 18
50 1 10.2031 1.05174 6.49674 18
51 1 8.68678 -1.69166 -6.04153 23
52 1 -0.710242 7.35921 10.1558 16
53 1 5.54372 -2.03334 8.85497 16
54 1 -4.94522 -6.62586 -11.509 20
55 1 -13.2741 10.8817 -2.96732 11
56 1 -2.74794 5.92546 -11.6071 20
57 1 7.35367 -3.86142 -7.37201 21
58 1 7.78186 -7.70878 -2.76437 22
59 1 5.90215 -6.90895 5.91203 19
60 1 -3.1493 14.6822 -8.58468 9
61 1 -9.47306 11.9814 1.78563 13
62 1 -6.85219 8.09412 2.7395 16
63 1 -5.26634 -8.53947 8.85687 17
64 1 11.9863 -8.94289 -6.26984 12
65 1 -11.8733 5.69097 -2.35996 21
66 1 10.2632 -6.11814 -1.81354 19
67 1 7.49915 1.09566 -10.4917 21
68 1 -6.08166 -4.72732 -16.1799 17
69 1 -0.897978 11.9874 2.09875 16
70 1 -8.24011 7.62231 -9.60436 14
71 1 -1.4296 11.9123 -10.0979 12
72 1 -0.382426 8.64884 -0.723845 19
73 1 -5.4659 -7.52827 5.98138 20
74 1 -3.03334 -8.90869 -11.5091 18
75 1 1.68324 -5.81343 -9.84917 17
76 1 -3.1906 3.11073 7.64837 21
77 1 -11.2837 -8.75785 -4.01054 17
78 1 -11.5811 -11.8591 -4.65489 10
79 1 11.3646 -7.77952 1.17738 16
80 1 -7.07948 5.45533 0.775471 22
81 1 0.271157 2.81805 -16.8352 15
82 1 6.08446 12.218 -8.51616 11
83 1 13.0267 -6.4056 -0.250747 19
84 1 1.53705 -16.5154 1.71119 11
85 1 -6.47224 -10.7449 -2.42741 18
86 1 -13.6844 -5.1896 2.56149 19
87 1 11.6068 8.69257 4.61699 14
88 1 -5.65157 8.05018 10.7174 10
89 1 -4.49006 13.4098 -6.29802 12
90 1 -2.01903 -5.46204 -12.0053 17
91 1 8.60153 -2.49519 9.72453 14
92 1 -4.69967 10.1867 -8.15475 18
93 1 10.1972 1.08743 -6.30337 21
94 1 -12.5519 6.66455 -6.99671 14
95 1 -8.41469 14.2895 -3.29033 10
96 1 10.1574 2.11661 -9.56389 18
97 1 10.3311 -9.07857 4.05381 14
98 1 -9.0355 3.04312 -6.37145 17
99 1 8.25527 11.4956 -1.61303 15
100 1 10.0438 7.22799 -3.53914 17
101 1 -3.43023 7.91359 -7.02496 16
102 1 -2.20015 -4.23359 -16.8007 16
103 1 2.60523 14.9547 3.4933 10
104 1 -15.3706 -6.40202 -5.67225 7
105 1 17.541 -0.725232 -1.33111 10
106 1 -2.97307 8.10847 4.56809 16
107 1 1.5537 15.0514 -5.53836 14
108 1 4.92599 -4.43549 14.7758 9
109 1 -10.2314 -4.93071 -1.15284 18
110 1 -0.597714 -10.8659 6.94903 21
111 1 4.16853 -16.9 -5.61413 12
112 1 -3.32379 8.7766 -12.8775 13
113 1 4.73717 9.73723 -6.6996 19
114 1 1.99963 -11.2488 9.11389 15
115 1 -9.67302 0.747072 -0.88308 20
116 1 2.16522 12.2843 2.57987 17
117 1 1.9329 5.54767 9.3355 18
118 1 -6.25166 10.9348 1.26203 15
119 1 -5.93549 3.58654 -7.27083 18
120 1 15.1557 -6.86892 -1.91826 11
121 1 -7.33509 -4.81771 3.84198 20
122 1 -14.734 -1.44051 -0.344429 14
123 1 -6.49168 -13.3378 2.43026 11
124 1 -15.1023 1.83528 -6.5185 9
125 1 -0.754787 -16.3364 -1.02118 13
126 1 5.28896 -7.13264 -4.15393 21
127 1 -0.534922 9.11356 2.5717 18
128 1 -8.70628 -2.92839 -6.32484 20
129 1 -5.87256 9.4259 -10.7513 14
130 1 -13.3851 -4.44499 -6.45827 14
131 1 -9.78823 -3.79779 9.08083 15
132 1 0.28695 -8.09347 4.94353 22
133 1 8.37873 -12.1328 8.03782 5
134 1 15.5813 4.9018 2.28621 11
135 1 5.06546 3.53209 -7.31239 21
136 1 6.46834 -1.54194 13.5849 10
137 1 1.67963 5.77437 -14.9395 14
138 1 7.5327 0.594045 -13.7851 12
139 1 -10.096 -5.80548 -7.89161 20
140 1 -6.16913 12.9629 -8.96971 9
141 1 -6.35776 12.4578 -3.99923 16
142 1 8.45502 -1.27713 6.82741 19
143 1 -4.28245 -7.37626 -16.7038 11
144 1 -0.574544 9.01461 -14.8169 9
145 1 1.88585 4.9748 -11.7592 19
146 1 -6.00627 3.46318 6.2107 22
147 1 -7.78788 8.19452 7.03712 13
148 1 -0.889749 -10.9332 -9.2572 17
149 1 -3.43769 -16.4417 0.384531 10
150 1 8.66154 -13.3356 -0.134136 14
151 1 5.64544 9.52311 -9.79309 15
152 1 -1.04208 8.99089 -4.11229 24
153 1 -12.5517 -0.0436416 0.737485 18
154 1 4.53781 5.6609 7.1662 19
155 1 10.4461 4.33113 -8.07712 20
156 1 0.898057 5.76595 5.41843 19
157 1 -9.17771 3.61888 4.68999 19
158 1 -8.36364 -8.73251 -5.97373 17
159 1 9.34357 3.46731 -11.5736 17
160 1 2.89418 -2.52386 7.11248 20
161 1 6.47666 2.93167 -14.2686 13
162 1 2.17953 -11.904 -7.754 18
163 1 -4.14576 0.504288 -10.9472 21
164 1 8.77256 -1.14039 -8.80909 23
165 1 -10.283 -7.24024 6.86826 17
166 1 3.85192 -16.4356 -1.87237 16
167 1 -10.9458 -6.13583 -10.7711 12
168 1 6.64165 14.5405 -0.407732 13
169 1 2.54176 -3.19978 -11.4833 23
170 1 1.827 2.49635 10.8748 20
171 1 15.0318 -1.50014 -3.73374 12
172 1 11.4332 -9.05998 -9.6402 12
173 1 -3.78743 -5.4694 -14.1563 21
174 1 -11.0449 -3.63102 -12.4593 10
175 1 8.39218 -3.43466 12.7156 10
176 1 4.74337 -4.77761 6.93779 19
177 1 -5.51481 -9.0637 -13.8322 16
178 1 1.68196 -5.43194 5.30954 23
179 1 0.763505 11.1409 -12.5029 10
180 1 7.20553 6.0256 -1.30392 21
181 1 -8.36315 -8.74574 0.767084 16
182 1 1.55784 9.78509 0.546172 18
183 1 -8.06805 -3.23364 12.1959 8
184 1 -8.55951 -11.1187 -10.6911 7
185 1 -6.99338 -5.70163 -9.3855 21
186 1 -2.25142 -13.0975 -6.14635 14
187 1 -6.11464 -10.6269 1.06883 18
188 1 11.1236 4.4935 1.07343 15
189 1 -11.9223 -6.79222 9.2939 7
190 1 -1.7813 -10.3878 -5.65558 21
191 1 -1.20448 -10.7502 0.958825 19
192 1 -1.24635 11.5146 -1.50549 24
193 1 3.22433 -4.12275 -14.2889 21
194 1 -6.98528 -7.51639 -15.2248 14
195 1 -1.20833 -10.0378 -2.63246 19
196 1 -0.611857 -14.0923 -8.89168 10
197 1 -7.45474 0.920988 -14.3298 14
198 1 8.44884 3.0997 3.738 21
199 1 -4.34212 0.967656 -13.6679 23
200 1 -0.469559 6.47277 -9.63824 21
201 1 -5.98734 -1.88367 5.83321 20
202 1 -2.66091 11.9534 -3.97415 18
203 1 3.74634 11.7521 5.41061 21
204 1 10.8756 0.306701 3.96207 19
205 1 -9.99443 0.00879895 2.29476 20
206 1 -2.53595 -7.86621 10.0378 17
207 1 -9.58298 7.01938 4.77665 16
208 1 1.09445 -2.5896 -16.6925 17
209 1 1.4301 -11.2824 -0.977537 15
210 1 -1.2429 -0.471461 10.459 21
211 1 -11.1836 -5.32904 4.78099 20
212 1 14.3797 -4.0164 -3.09139 18
213 1 3.04371 -7.82558 -11.4917 16
214 1 8.30947 -13.765 -3.39579 12
215 1 -10.1309 11.6765 -4.09499 16
216 1 9.84677 7.06718 7.12244 16
217 1 -8.80099 -2.2471 0.512212 20
218 1 10.556 -12.2578 -2.93874 12
219 1 -2.72514 9.25364 0.652746 17
220 1 -3.82532 5.20106 5.93135 19
221 1 10.5387 -10.0799 7.29713 7
222 1 15.8275 -6.29714 1.60854 11
223 1 -0.860553 4.77854 11.477 21
224 1 -7.14567 -5.15125 -6.06338 21
225 1 -0.488409 -0.885519 14.4148 11
226 1 -5.40068 10.5814 4.12693 11
227 1 -7.70927 -0.182262 10.263 18
228 1 -10.6197 6.82778 0.99336 18
229 1 -4.22061 -4.47833 -7.5155 19
230 1 -5.34461 8.13332 0.260435 17
231 1 8.63234 -2.23524 3.86101 20
232 1 -8.35227 -13.8605 0.27122 11
233 1 8.71396 -7.32068 6.65882 15
234 1 -8.64725 9.55598 -0.010496 20
235 1 -0.929741 -5.54767 9.5396 18
236 1 4.20687 -11.8456 -11.6916 12
237 1 -5.45538 -3.86434 -10.579 19
238 1 4.25539 -2.64981 -16.8571 13
239 1 6.54457 10.9238 3.94321 17
240 1 -11.0648 -3.72627 -3.89922 21
241 1 2.3458 -5.71842 -16.8056 11
242 1 1.75767 -11.9787 -10.4371 14
243 1 -13.9205 -2.83619 -3.60049 17
244 1 -9.20925 -12.7331 -2.4886 12
245 1 14.9711 5.54535 -2.2183 14
246 1 -6.57666 2.53165 -11.6997 16
247 1 -12.6 -1.92615 -6.71917 14
248 1 -7.21746 5.72241 5.22149 20
249 1 -10.5694 12.3487 -1.14786 14
250 1 -8.11967 4.69173 7.83058 17
251 1 12.017 -1.53545 -4.89343 19
252 1 14.7834 -0.98386 -8.46779 15
253 1 -2.3113 -8.19389 -8.94975 19
254 1 -1.51514 5.37106 4.12604 20
255 1 -8.43418 1.88077 -8.83961 17
256 1 4.96452 -11.9243 -4.70536 13
257 1 13.3412 -1.61954 7.39899 10
258 1 -10.1424 -0.526616 -7.65259 21
259 1 -11.4416 -7.59815 2.26292 21
260 1 -2.21228 14.1709 -0.290797 12
261 1 -13.7894 -9.26404 -5.9151 10
262 1 -13.8508 4.1229 -8.74111 11
263 1 0.0932014 13.4339 -7.62483 19
264 1 5.72251 11.7386 7.52922 13
265 1 -13.7973 -6.1485 -3.47955 17
266 1 -3.8446 -10.4118 -7.99517 21
267 1 -12.8957 0.921419 7.33768 11
268 1 -16.5483 3.97677 -1.92559 10
269 1 6.599 -8.49007 2.35579 20
270 1 -3.76091 -11.9168 -3.40481 22
271 1 5.60248 6.59915 -14.9823 8
272 1 -11.8978 1.94332 -8.1969 19
273 1 -3.5811 -11.7077 2.20926 19
274 1 11.9443 3.50478 4.19564 20
275 1 -3.40724 -2.78309 7.2007 21
276 1 -16.6848 6.46274 1.0701 7
277 1 -7.12327 0.489022 4.03475 20
278 1 -3.63263 -15.838 3.83279 10
279 1 9.57587 -12.1367 -9.35403 15
280 1 -14.2219 0.236061 3.31914 12
281 1 -1.24547 -5.67272 6.85214 22
282 1 9.98105 -14.1135 -6.39329 12
283 1 4.00656 -14.3274 -11.2548 8
284 1 -4.45475 -5.53184 8.22653 23
285 1 2.61839 -6.72492 -5.90608 21
286 1 -3.40443 4.02898 -16.6222 15
287 1 6.50946 -14.7569 2.19711 11
288 1 4.65069 10.4102 -3.63661 19
289 1 -4.59447 -3.2253 13.2169 12
290 1 -8.03007 -10.0197 5.74772 15
291 1 8.19483 -5.73666 9.9678 11
292 1 4.60217 1.06433 -9.01335 20
293 1 7.51393 -4.50789 -1.24256 21
294 1 12.3599 8.04957 -5.43017 13
295 1 -0.499427 2.38641 9.1787 22
296 1 0.0273052 11.72 -4.5667 19
297 1 5.87076 -7.48162 -1.00645 22
298 1 -1.79382 -17.5165 -4.71167 8
299 1 -2.3202 10.8512 5.8389 11
300 1 -6.05773 -13.7329 -10.7848 9
301 1 7.5516 6.62575 5.4573 21
302 1 -6.74311 0.760275 7.3451 20
303 1 -6.02776 -7.77049 -4.08895 20
304 1 -11.2996 3.6002 6.93742 14
305 1 -8.97963 -13.2977 -5.89248 12
306 1 -5.25088 6.93373 7.78401 17
307 1 -3.8393 -11.5217 -10.7466 16
308 1 -0.542752 -5.50791 -15.3764 16
309 1 -5.46212 -13.3206 -1.09553 17
310 1 -8.84947 -1.9279 3.87213 19
311 1 11.7689 -2.40779 4.71846 18
312 1 -4.07355 -5.81135 11.6456 12
313 1 -6.31977 3.17487 -14.926 13
314 1 8.25011 3.19611 -2.56043 22
315 1 -7.4585 -15.2613 -3.93334 12
316 1 1.05278 13.2851 0.0968448 18
317 1 2.09286 6.67559 -7.31332 19
318 1 0.974601 7.3274 13.2391 11
319 1 -14.7036 0.923625 -3.20146 16
320 1 6.39177 13.0984 -3.02587 16
321 1 -8.89729 -8.3385 -9.26426 15
322 1 0.56323 -16.6245 -6.82752 11
323 1 0.213205 -3.07275 -14.168 19
324 1 -12.5998 10.7944 0.542995 13
325 1 3.08091 4.67745 12.7142 10
326 1 6.6747 5.47932 -3.82096 20
327 1 4.24571 6.24076 0.770868 19
328 1 -8.06216 10.7354 -9.01863 14
329 1 2.69737 4.24816 -8.98579 21
330 1 3.28524 -7.51292 2.97003 21
331 1 -15.3718 -4.95267 -0.93331 13
332 1 -2.77993 1.71264 -19.6932 9
333 1 10.8338 4.56602 -4.84106 18
334 1 4.99196 -10.1223 -2.21283 20
335 1 15.4086 0.0229204 -6.20939 13
336 1 -1.38974 1.13781 -12.5641 20
337 1 -3.06306 -7.99006 0.593773 19
338 1 2.02782 -14.4158 -2.07387 13
339 1 5.42934 -10.7437 7.65966 13
340 1 -8.40077 6.33563 -7.11308 19
341 1 -4.89662 -12.1101 -13.4177 9
342 1 1.29772 2.22967 -13.317 20
343 1 0.0727545 -3.46903 11.5555 19
344 1 -11.7555 -2.91048 2.04221 21
345 1 8.6196 -6.55007 -9.1663 18
346 1 12.6966 1.38108 -5.94999 16
347 1 -6.11804 6.89261 -5.69832 17
348 1 2.93782 -8.48986 -8.53694 15
349 1 5.14133 3.85958 -10.925 19
350 1 14.9119 -6.12091 -5.73854 14
351 1 -4.21231 -0.171623 8.91689 22
352 1 5.29463 14.0805 2.71024 11
353 1 -0.973496 -0.32359 -14.8689 22
354 1 -8.62366 -7.77436 3.99458 21
355 1 -4.13576 13.0492 1.6158 9
356 1 -9.52344 -4.61579 -15.5183 7
357 1 -14.561 3.40988 2.13351 14
358 1 -3.21765 -11.49 8.25003 17
359 1 2.09645 11.9013 -8.13541 18
360 1 14.6771 3.02003 -4.1953 13
361 1 -15.0367 -9.16673 4.36689 9
362 1 2.28168 -9.59498 -3.8993 20
363 1 -11.516 5.2813 3.50474 15
364 1 2.37331 -1.46714 -8.91058 20
365 1 8.59109 -8.13644 -5.82632 18
366 1 3.43682 14.2725 -8.63284 12
367 1 4.59303 -9.61597 0.77932 22
368 1 -10.2016 0.555196 5.49356 20
369 1 7.13399 8.19276 8.40052 18
370 1 -2.68816 1.43771 -16.3437 18
371 1 -5.49399 -7.37795 -7.67899 21
372 1 2.03419 -4.9494 8.91567 20
373 1 8.4517 9.87612 6.01217 15
374 1 7.71984 4.84003 -8.90827 20
375 1 -7.51811 9.21668 -5.78625 17
376 1 -0.176997 14.3277 -2.79146 15
377 1 10.5841 -4.26611 7.40792 14
378 1 11.7991 -0.86979 -8.25848 23
379 1 -14.7479 -8.26818 0.866197 13
380 1 -1.07621 0.0688481 7.18699 23
381 1 -0.666395 9.95626 -7.29726 18
382 1 5.8474 -15.2282 -4.0597 13
383 1 4.67012 -4.08129 -8.95346 21
384 1 -1.89238 15.4331 -5.42664 11
385 1 -6.06704 -10.498 -16.4248 8
386 1 3.21549 -14.33 3.25606 13
387 1 -12.4119 -7.16897 -1.18088 15
388 1 -12.1181 -4.3882 6.91781 14
389 1 3.97223 6.55675 -2.8566 20
390 1 9.27102 -11.1327 -6.29736 19
391 1 2.71899 -5.29665 12.3537 13
392 1 8.13551 3.47948 -5.54717 21
393 1 -10.8378 9.31278 -2.00022 21
394 1 10.0982 -9.55874 -3.82325 18
395 1 4.24376 7.6938 12.6043 10
396 1 -3.62251 3.3579 -13.0109 19
397 1 1.95863 14.7726 6.66104 6
398 1 10.4903 0.0894306 -12.0049 17
399 1 2.39308 -0.911977 -14.2199 21
400 1 -5.18531 -16.6614 -5.56898 10
401 1 -8.85891 4.00246 -12.8051 11
402 1 13.1652 2.20225 -1.34184 18
403 1 15.2508 3.25589 -7.55496 12
404 1 7.4467 -11.1811 -11.7496 13
405 1 4.54871 -9.62757 -6.14731 20
406 1 7.38477 12.5511 1.39297 15
407 1 -9.25165 3.81971 1.28027 17
408 1 15.1905 6.05085 -5.4995 11
409 1 14.6868 -3.38329 2.13708 17
410 1 12.4516 2.6231 -12.2802 13
411 1 10.1578 5.90462 10.106 11
412 1 3.46125 -7.97326 6.20547 22
413 1 3.10656 -1.42862 14.9466 9
414 1 14.7644 -5.96833 -8.74337 9
415 1 11.2282 -1.16815 9.3455 15
416 1 -8.98007 -3.35489 -9.79435 21
417 1 16.5097 2.31181 -0.101733 13
418 1 11.2407 -3.85769 -2.80957 17
419 1 8.86818 0.291382 11.7643 13
420 1 2.74927 8.47293 7.4515 17
421 1 7.87447 1.40143 5.55818 20
422 1 -7.61375 9.87543 -3.11408 15
423 1 10.1046 9.82716 -7.46843 10
424 1 11.6146 -5.94672 -10.6571 12
425 1 2.43881 12.8731 -2.99654 19
426 1 2.17254 -16.4481 -8.97366 10
427 1 -12.9506 5.44872 1.03968 17
428 1 -5.46815 1.05777 -17.4041 16
429 1 -2.49295 -13.3525 -0.28793 16
430 1 -6.45043 -5.15267 -13.181 18
431 1 -13.3315 0.0298196 -10.3862 8
432 1 12.8676 -2.8949 -0.513936 17
433 1 13.262 6.50822 2.37079 18
434 1 0.569986 -8.11891 8.11683 18
435 1 -8.5233 -2.45848 -12.9514 15
436 1 -3.46482 2.55276 14.4573 11
437 1 6.28324 9.4122 -12.5396 10
438 1 8.54523 7.46116 -10.2536 14
439 1 6.98867 -14.0392 -10.3315 12
440 1 13.9782 1.85145 2.23547 18
441 1 12.0317 8.7465 1.49719 15
442 1 16.2267 -3.89482 -0.529248 16
443 1 -5.48136 2.59077 9.46892 21
444 1 -11.1608 -9.38214 -0.249025 15
445 1 -6.42893 -2.19931 -8.25379 19
446 1 7.00719 0.595791 9.07739 19
447 1 -0.887168 -11.0376 10.4371 10
448 1 4.71615 3.04653 9.34877 20
449 1 -4.98155 11.0157 -1.06983 22
450 1 10.6591 4.39422 -1.62985 23
451 1 7.25519 5.93163 2.15216 22
452 1 0.3889 0.190164 -18.6502 10
453 1 -11.9867 -1.67087 4.78039 18
454 1 8.5567 -2.1482 -12.3185 15
455 1 11.9144 -11.5289 -7.73325 10
456 1 9.50067 3.88309 6.204 21
457 1 5.47999 3.52635 5.65187 19
458 1 14.0185 4.26183 0.120745 18
459 1 1.3204 -3.66005 14.5768 12
460 1 -3.24154 5.47849 9.35736 22
461 1 -2.3673 -1.18526 -18.375 15
462 1 -6.33875 -0.768049 12.7922 13
463 1 4.07776 0.102492 10.618 17
464 1 14.6422 8.66344 -3.50403 10
465 1 4.49551 -14.526 -7.80483 15
466 1 -4.57941 6.69571 -9.71697 19
467 1 4.99859 8.75474 2.45008 19
468 1 10.1411 10.4265 -0.451843 15
469 1 4.32617 12.7118 -5.64651 20
470 1 12.3073 7.54399 -1.65482 19
471 1 -6.29863 -13.0793 -4.66804 22
472 1 5.55721 -0.532224 -15.7959 11
473 1 -9.34491 12.7681 -6.67337 9
474 1 5.54815 -9.12508 -12.4417 10
475 1 10.8007 7.32418 -8.69572 14
476 1 12.5503 11.0832 -2.57454 7
477 1 -9.32264 3.69492 -2.04641 22
478 1 4.71459 6.5807 -6.26505 17
479 1 -0.245762 -13.3386 7.70505 13
480 1 -3.03563 6.40961 -14.5991 16
481 1 1.91774 9.33465 11.1407 12
482 1 4.4966 0.677628 7.29321 20
483 1 3.93692 14.9028 -2.48636 13
484 1 10.1912 11.3365 3.38249 13
485 1 12.6371 -7.01616 -4.05435 18
486 1 -11.5299 -9.36844 4.90589 15
487 1 4.49484 -17.0629 1.2667 10
488 1 -0.785521 -1.78035 -11.3489 20
489 1 2.48352 8.96846 4.27864 20
490 1 -14.3308 -2.88065 4.30816 11
491 1 2.04026 -14.661 -5.56865 17
492 1 4.65355 6.18391 -9.54027 20
493 1 4.72195 -5.49752 -11.7493 19
494 1 2.45474 -13.8363 6.75442 10
495 1 3.2796 14.9808 0.646648 12
496 1 -3.13527 0.0961816 12.3466 17
497 1 -8.51455 -8.5101 -12.1498 12
498 1 5.94835 -6.89252 -7.43864 19
499 1 -2.77389 9.40974 9.55673 13
500 1 7.04022 -15.9209 -7.36894 9
501 1 4.91099 -9.73895 4.6044 18
502 1 0.42208 -16.618 -3.33048 14
503 1 -8.51442 -8.8826 8.92364 10
504 1 -6.62205 -15.0961 -7.24205 12
505 1 -9.04755 -1.64612 7.0269 20
506 1 16.0206 -3.42456 -6.33323 12
507 1 -9.49724 1.71168 8.32311 17
508 1 -9.35358 6.75679 -1.13056 18
509 1 11.5071 -1.60958 1.99794 17
510 1 -1.20594 6.58282 -6.08503 20
511 1 13.8722 -0.250164 -11.8781 11
512 1 8.45568 6.46497 -6.83066 20
513 1 -11.7222 3.02994 -11.4839 8
514 1 -13.0765 -7.45923 -8.1974 11
515 1 7.08851 5.82652 -12.1191 21
516 1 -0.216158 -2.98432 8.38061 21
517 1 -3.93166 -4.84529 5.05601 19
518 1 0.988254 -5.73696 -12.2543 22
519 1 -7.29956 6.50058 -2.43699 18
520 1 8.49354 8.73497 3.0162 22
521 1 -10.0292 -4.78069 2.13345 18
522 1 10.6765 6.12636 -12.187 10
523 1 1.61812 -18.4002 -0.800034 9
524 1 3.94183 7.55256 -11.9167 18
525 1 -4.86155 -2.24135 -17.9971 12
526 1 1.64671 0.096066 8.90547 20
527 1 -0.828062 4.09963 -14.2047 22
528 1 -9.78741 -6.1585 -4.45108 18
529 1 8.10005 -2.60546 -2.96462 20
530 1 -5.99326 -8.27782 -0.740353 18
531 1 13.6578 5.88753 -8.44217 11
532 1 8.72453 -7.10151 1.06849 20
533 1 -6.48317 5.34708 10.805 16
534 1 4.86984 -12.0355 3.21562 17
535 1 13.1694 -3.88131 -7.92492 18
536 1 12.6897 -5.59904 3.1384 12
537 1 -0.344758 8.073 5.86715 20
538 1 -8.29669 2.30848 11.3498 13
539 1 -2.00727 -13.5194 4.91295 17
540 1 10.6088 1.23967 0.554171 20
541 1 7.14995 7.4276 10.9898 12
542 1 -15.0658 1.48079 -0.065959 13
543 1 12.1967 -9.65317 -1.48502 11
544 1 4.11128 8.57242 -0.829788 16
545 1 9.82917 2.48187 9.2911 17
546 1 0.856856 11.5301 5.30818 16
547 1 0.500424 -13.2547 3.67651 15
548 1 -9.07801 -2.08946 -2.84486 17
549 1 1.26349 0.171844 12.4907 15
550 1 4.47298 11.8001 -0.539356 21
551 1 -9.93215 -11.1281 2.65841 15
552 1 10.146 -5.70031 4.17073 18
553 1 10.6359 -4.51596 0.415741 21
554 1 10.4952 6.17347 3.36133 23
555 1 0.178099 -8.53776 -11.6146 18
556 1 -3.64216 -1.84878 -15.4235 22
557 1 -3.46858 -3.11198 10.2935 22
558 1 -4.57106 14.1507 -2.36787 13
559 1 16.5562 -0.0738141 1.94995 15
560 1 1.97789 9.48084 -5.88089 20
561 1 -5.48975 5.80659 13.7669 10
562 1 5.2939 9.52727 6.27521 19
563 1 5.90529 -3.2047 -13.466 17
564 1 -3.77557 -15.1916 -3.30784 17
565 1 -3.08002 -2.12426 -9.8286 18
566 1 13.0565 0.917322 6.68438 13
567 1 5.373 -1.65206 -10.6255 19
568 1 -2.90856 -7.45817 -5.94044 23
569 1 17.6665 -2.83151 1.73193 10
570 1 2.26945 -8.18914 10.5449 11
571 1 -2.35976 -8.89884 -14.3735 13
572 1 9.25943 10.6132 -3.87342 14
573 1 -12.3033 2.26076 3.48777 20
574 1 12.921 2.25834 -8.88271 19
575 1 5.31211 -6.60233 -14.5353 11
576 1 -8.88303 10.1119 4.29975 12
577 1 2.52235 0.392737 -16.9709 12
578 1 7.54889 -5.20797 -4.7906 18
579 1 -12.0702 -1.1268 -1.89423 20
580 1 9.81894 7.07177 0.194619 20
581 1 -12.8253 -10.3593 1.74702 13
582 1 7.19652 5.14829 8.15207 21
583 1 -10.1682 -0.712786 -10.7596 15
584 1 -14.4784 2.9454 5.56914 10
585 1 -3.21403 3.85056 -8.96838 18
586 1 7.95038 -9.41981 -8.88172 16
587 1 -10.7959 -10.1439 -7.29355 13
588 1 11.6068 -6.21858 -7.31956 22
589 1 -15.5973 6.69888 -2.26216 12
590 1 -5.76476 -9.87326 -5.6089 19
591 1 -3.62001 -10.471 5.15573 19
592 1 13.9364 -0.799028 3.82774 15
593 1 8.97095 -2.0976 0.330309 19
594 1 -12.2027 2.91231 -0.970437 22
595 1 3.11418 11.3066 8.66329 13
596 1 2.15541 8.98332 -9.57003 22
597 1 -5.29414 10.6064 7.63032 9
598 1 7.51741 11.7771 -5.44847 16
599 1 5.29242 10.5431 10.7068 11
600 1 5.72106 -7.3582 8.89964 16
601 1 3.57137 11.1903 -10.834 16
602 1 -7.68364 -5.96964 9.2275 14
603 1 -3.17377 -2.88016 -12.7845 18
604 1 -14.3405 3.59916 -3.5095 18
605 1 -3.65631 -14.1447 7.43278 11
606 1 7.42297 -4.7382 2.12012 20
607 1 0.67927 -12.2819 -4.3875 15
608 1 -15.5929 4.93439 -5.43578 11
609 1 11.9855 -2.33209 -10.6111 17
610 1 -13.8453 8.16314 -0.237951 15
611 1 -7.48988 -4.75128 6.49305 17
612 1 -5.73256 -9.25894 -9.9908 23
613 1 0.295945 -9.07446 -6.99593 18
614 1 5.81511 -13.2153 -1.62356 20
615 1 0.261581 7.71328 -12.4241 18
616 1 15.5361 1.42804 -10.8866 9
617 1 7.93005 3.10423 0.425536 20
618 1 10.5297 -0.621952 -2.68373 19
619 1 -1.03406 5.6909 -17.1908 9
620 1 -2.27961 -8.24882 6.8313 18
621 1 7.03426 8.4992 -4.44608 17
622 1 7.40446 1.49032 -7.802 21
623 1 -12.6999 1.12353 -5.0597 16
624 1 -6.36181 -11.5044 8.10396 11
625 1 4.51414 6.21682 4.06061 17
626 1 -1.34567 -14.576 1.81294 16
627 1 1.70346 9.13658 -2.94488 18
628 1 -3.37315 7.17617 11.9807 16
629 1 -6.17548 -3.1514 9.64578 20
630 1 11.1129 1.86147 -3.47497 19
631 1 -4.22004 -9.63088 11.3301 8
632 1 3.74664 -12.549 0.102519 18
633 1 7.65683 3.01924 10.9721 14
634 1 10.4966 -4.57344 -5.55647 20
635 1 -6.02729 -1.54548 -13.0102 20
636 1 -6.21778 6.50885 -12.2033 13
637 1 -9.68677 6.26265 -4.5871 18
638 1 7.12168 8.72016 0.65261 17
639 1 -0.695388 5.26392 7.85565 22
640 1 -11.8887 -12.8039 -0.86203 8
641 1 -3.43809 8.56467 -2.47777 20
642 1 12.0916 4.30472 7.80689 15
643 1 -2.26374 -8.10729 3.17955 17
644 1 7.73213 -4.09107 -10.7395 16
645 1 7.51457 -10.9385 -3.55763 22
646 1 4.24717 1.18859 -12.5397 20
647 1 -6.65254 -1.16261 -15.6611 15
648 1 -8.68908 -7.99983 -2.12959 17
649 1 -10.9689 3.55624 -4.26605 15
650 1 -5.89637 2.39182 12.9865 12
651 1 7.93811 -4.51786 5.95692 17
652 1 -5.71649 -8.67884 3.27296 17
653 1 14.3717 -0.465844 -0.41132 22
654 1 -0.451241 3.06815 -10.7175 22
655 1 15.1124 7.7231 -0.142744 11
656 2 -7.10278 2.96229 -9.66442 18
657 2 -4.61711 12.2326 -4.63657 16
658 2 -0.383201 -4.84324 -13.482 21
659 2 -5.54357 6.69813 11.9385 11
660 2 -5.35071 -13.6502 -12.5722 7
661 2 1.77589 3.25909 12.8453 12
662 2 -15.5483 -7.21922 4.50233 11
663 2 -12.5745 5.7043 -8.56865 9
664 2 2.27369 15.7611 5.23955 5
665 2 -11.9562 0.834103 2.36517 23
666 2 7.34452 3.83052 2.20647 20
667 2 -11.4531 -6.77188 -8.80864 15
668 2 -8.97819 -0.224592 -2.61668 21
669 2 1.43136 -8.60427 3.03845 22
670 2 2.56499 1.0045 7.44525 23
671 2 5.88456 -4.64365 -10.6163 19
672 2 4.80847 -15.4478 2.47838 14
673 2 -6.47543 11.3811 -2.14401 21
674 2 -12.4094 1.28043 -11.2711 7
675 2 10.1916 3.71862 4.43687 18
676 2 9.76346 -13.35 -4.58396 13
677 2 -9.94847 -13.3913 -0.842805 9
678 2 -12.5806 -6.14538 6.38444 15
679 2 -1.8127 -14.7211 3.62291 12
680 2 9.42657 -5.56317 6.68266 15
681 2 0.14641 -17.3245 -4.99381 10
682 2 4.68135 -0.782716 14.1761 11
683 2 -1.53277 13.5063 -8.95393 12
684 2 -12.5047 -10.042 -4.64571 10
685 2 -1.94386 3.68262 14.281 11
686 2 -13.1705 10.1349 -1.21797 12
687 2 -4.01878 1.47301 13.0059 16
688 2 -5.36074 8.93688 -6.55999 19
689 2 8.35384 -9.81612 -5.01494 21
690 2 -0.93893 6.18543 6.23207 18
691 2 -1.23755 10.1449 -9.32449 20
692 2 3.59055 -10.7583 -4.3882 16
693 2 2.84479 -5.32193 -11.7332 20
694 2 7.46575 -1.83867 -7.5276 22
695 2 -3.60089 6.33594 13.8376 11
696 2 0.3863 2.22248 -14.9446 18
697 2 0.645726 7.46479 -14.3525 14
698 2 6.88067 6.68507 -5.95478 18
699 2 -6.51201 -2.69447 13.3838 8
700 2 -10.1976 10.5619 3.04417 12
701 2 11.2897 -4.13025 -7.18669 21
702 2 6.66668 -9.61287 -10.4172 16
703 2 -14.9255 -6.26074 1.47648 13
704 2 11.5532 8.86743 -0.324517 16
705 2 -3.38539 6.20281 4.36547 19
706 2 -2.94518 -10.1684 -9.83287 17
707 2 -3.20339 10.3715 7.8132 10
708 2 7.18178 -6.36156 8.49247 13
709 2 7.87717 -6.65509 -0.940952 18
710 2 -12.4224 3.78622 -2.72868 19
711 2 15.0822 -6.78324 -0.0343978 10
712 2 9.56242 -13.3182 -1.75841 12
713 2 8.70982 6.77251 3.7388 22
714 2 6.75465 -12.8643 2.74951 13
715 2 13.3961 -2.09162 2.61303 18
716 2 -3.8683 -1.60738 12.7003 12
717 2 12.9581 -5.5783 -9.05713 15
718 2 1.45694 2.97991 9.02157 20
719 2 12.7161 7.24624 4.65618 14
720 2 -6.97353 3.59205 11.362 17
721 2 5.36339 6.00599 2.11643 20
722 2 15.9415 -5.0662 -2.04116 12
723 2 1.22524 7.2832 -8.91304 22
724 2 -8.98602 -5.04673 -9.14152 20
725 2 -6.05472 0.613052 9.30318 20
726 2 8.85 0.974599 -8.60133 21
727 2 -10.8094 1.77548 -4.13593 20
728 2 -14.3348 2.12275 4.01489 12
729 2 -15.1867 -9.24341 2.45904 10
730 2 16.2362 -1.92581 2.72994 13
731 2 -0.317754 -4.85537 5.32649 19
732 2 -1.32163 -2.9835 10.0965 19
733 2 5.02882 -2.37331 -15.1313 12
734 2 11.4275 5.72375 8.51654 12
735 2 -3.62532 5.51198 7.68008 16
736 2 -8.98819 -0.0532316 0.742509 20
737 2 4.02088 -9.89422 -8.08964 16
738 2 10.5475 7.29609 -10.7073 11
739 2 -7.98058 11.8325 0.678638 14
740 2 -2.94402 -10.239 -3.1835 19
741 2 7.69426 -7.81521 -7.90995 14
742 2 1.42614 3.96791 5.63624 21
743 2 10.4101 -12.4916 -7.6184 12
744 2 4.44041 -1.47235 7.1194 23
745 2 -1.88903 -7.96102 4.93078 21
746 2 8.64715 0.920563 0.526571 19
747 2 -9.11902 -11.057 4.48789 13
748 2 12.0346 2.00101 -10.4906 19
749 2 -1.54857 -10.9918 -0.962378 18
750 2 12.2264 -9.77571 -8.13522 12
751 2 5.48465 -13.2006 -11.0197 15
752 2 12.6519 -2.43714 -3.23078 18
753 2 -8.85683 8.86161 5.75495 13
754 2 14.819 -4.92371 -7.24167 12
755 2 -6.71963 -7.60307 -9.05654 19
756 2 -9.99838 -9.29492 1.5675 17
757 2 -5.60516 -10.184 -0.542442 19
758 2 -6.87545 -8.79903 -2.39873 21
759 2 -2.19008 13.1075 1.32848 13
760 2 -11.155 12.0423 0.600876 15
761 2 11.7989 5.69498 -8.62623 13
762 2 3.67305 5.13113 -11.2508 16
763 2 -7.19385 -1.8865 11.0356 15
764 2 -4.10623 -3.56223 -14.6849 20
765 2 -11.7083 5.45966 -0.389819 19
766 2 -3.80108 3.58928 9.65409 21
767 2 -9.5174 3.44617 7.78057 16
768 2 6.60163 12.7359 3.04893 13
769 2 12.0773 -0.844287 -11.7161 14
770 2 12.0515 -5.96786 1.47483 20
771 2 -8.24986 -4.09592 10.1188 12
772 2 -1.29109 7.9861 0.995014 17
773 2 -8.26851 8.77856 -7.41345 18
774 2 -3.65026 9.79232 4.70647 14
775 2 8.54698 -4.52262 3.95482 19
776 2 -7.89985 -9.34688 -10.5244 13
777 2 3.73135 6.04454 -15.2304 11
778 2 12.2353 4.28873 -0.500395 21
779 2 -9.41949 -6.71216 2.47899 18
780 2 -1.65191 9.08274 -2.00689 19
781 2 -4.90122 12.1742 -7.91424 12
782 2 4.2615 13.4575 -3.84686 17
783 2 8.42062 1.44462 10.1936 15
784 2 -4.01788 3.07678 5.70044 21
785 2 13.1283 -7.28615 -6.09879 15
786 2 -0.382753 0.691587 13.5542 14
787 2 3.36022 -4.29094 5.45896 23
788 2 -14.239 2.14641 -4.84374 14
789 2 -5.62498 -8.50587 -16.6468 12
790 2 2.91868 -13.6543 -6.98091 17
791 2 7.63617 -1.83459 -10.5818 20
792 2 16.6906 0.371726 0.0155677 14
793 2 -6.89532 1.13812 12.0529 12
794 2 5.88452 1.16898 -15.0161 12
795 2 -4.78838 -10.4546 9.37702 12
796 2 -2.14465 -0.376738 -16.5257 22
797 2 1.1833 -11.2546 -6.22217 19
798 2 2.14528 -13.0504 -0.779247 15
799 2 11.5273 8.58536 -7.10877 11
800 2 -6.70754 0.827194 -15.9881 13
801 2 -0.824096 9.16445 9.45522 12
802 2 -8.69767 -5.89356 -2.73148 21
803 2 -6.74367 5.44155 -7.63489 20
804 2 4.43748 7.83448 -10.0855 20
805 2 0.638117 8.77918 -4.56889 20
806 2 -6.44939 -14.2117 0.526423 12
807 2 15.0181 0.470672 2.88042 13
808 2 -1.39455 3.08695 10.959 22
809 2 -8.59661 -13.7054 -3.89668 14
810 2 8.15202 -11.2639 -7.99985 19
811 2 0.175259 -1.54639 12.3104 16
812 2 2.88284 12.9569 7.22064 12
813 2 11.2004 -4.14139 -10.6068 15
814 2 6.87247 2.89475 12.5903 10
815 2 9.42305 10.7672 -5.92966 10
816 2 -12.8003 -3.08025 5.78189 13
817 2 11.132 -2.53695 0.452004 19
818 2 5.35899 14.5902 0.931155 13
819 2 5.89067 5.59872 5.58771 17
820 2 -4.51066 -0.415544 -18.0769 14
821 2 5.58219 -9.3016 9.03522 12
822 2 -9.28761 14.0591 -1.7743 11
823 2 0.323285 -9.2871 6.30418 18
824 2 9.80755 -10.6689 3.29408 12
825 2 -11.2456 -12.4149 -2.91217 10
826 2 -8.19128 12.6847 -8.07824 10
827 2 -5.49556 -11.0816 -14.8617 10
828 2 -2.10313 -13.7672 -8.28292 13
829 2 0.0723931 0.243302 -11.5948 19
830 2 -5.77464 -10.6321 -7.37826 18
831 2 8.78393 10.3253 4.18459 14
832 2 -11.8069 -5.69733 -3.78297 20
833 2 -9.78034 2.86663 -0.499196 22
834 2 8.72917 -4.09952 0.532643 20
835 2 -10.7575 7.18416 2.91213 16
836 2 -1.45973 -17.0139 -2.74909 13
837 2 -4.84008 3.93152 13.7348 13
838 2 4.43502 3.09196 -9.10364 20
839 2 -4.15692 -1.52193 -11.7251 22
840 2 6.66956 5.08269 -10.5102 19
841 2 17.7985 -1.82643 -0.0811698 10
842 2 -6.50704 -5.71627 -11.2731 21
843 2 -13.8886 6.1984 -5.69619 14
844 2 -6.38162 10.1193 -4.53551 15
845 2 -4.46496 -2.20747 8.76906 17
846 2 -12.0474 -4.57835 -11.181 11
847 2 2.77277 -4.81014 -8.94166 23
848 2 4.7365 -1.99795 -8.51034 21
849 2 6.76515 9.58407 2.49981 18
850 2 3.59462 -10.7438 6.53764 16
851 2 1.21737 -2.22916 -10.5167 21
852 2 10.1144 -0.814277 10.9133 12
853 2 9.51368 1.04025 -10.9124 18
854 2 -1.17197 -8.43445 -5.86003 22
855 2 2.07737 10.2616 -11.2498 17
856 2 5.03618 11.4315 9.07732 12
857 2 12.2263 4.83045 2.79074 18
858 2 -13.208 -1.6239 3.26486 19
859 2 -14.9009 6.87632 1.04911 10
860 2 -2.95494 -11.9805 4.17819 19
861 2 -1.53695 2.76284 -9.24336 22
862 2 -3.70612 -6.80637 2.15477 20
863 2 -5.783 6.62166 1.92704 17
864 2 -8.9545 -5.57959 7.26614 21
865 2 -0.629086 -12.3363 5.8652 19
866 2 -12.7328 9.50828 -4.19171 13
867 2 4.72276 -7.5006 -12.274 15
868 2 -15.2401 -4.32031 3.73263 9
869 2 6.77853 -5.86543 11.1015 9