ITEM: TIMESTEP
256000
ITEM: NUMBER OF ATOMS
2000
ITEM: BOX BOUNDS pp pp pp
-30.0 30.0
-30.0 30.0
-30.0 30.0
ITEM: ATOMS id type x y z Coordination
1 1 -15.3651 -6.87838 -0.827112 18
2 1 -15.4206 -5.71946 3.20198 14
3 1 -14.1204 -10.4348 -0.921929 14
4 2 -17.6999 -8.52459 1.3586 8
5 2 -13.5938 -5.95038 -1.02842 21
6 2 -10.0713 -6.71365 6.74416 22
7 1 1.09159 -15.1007 -2.92118 14
8 1 5.53073 -14.852 -4.44958 13
9 1 4.05208 -13.8379 -1.719 18
10 2 5.77087 -14.0172 -6.17193 14
11 2 3.88055 -11.8421 -1.53742 19
12 2 -0.672123 -14.669 3.55835 16
13 2 2.3177 6.13235 -15.2966 17
14 1 1.07721 7.44048 -14.0886 16
15 1 1.41991 0.0630037 -17.2821 18
16 2 1.22241 4.07145 -16.9462 16
17 1 -12.9614 -10.4117 -6.17137 16
18 1 -10.5414 -5.548 -11.2321 12
19 1 -13.3199 -10.2385 -9.24425 11
20 1 -15.7481 -6.35436 -5.2249 13
21 1 -14.3069 -3.65033 -4.54841 18
22 1 -16.4981 -9.05071 -3.33624 7
23 1 -12.9212 -6.20666 -2.78873 22
24 1 -13.5655 -3.54479 -1.38762 19
25 1 -12.9365 -7.18036 0.211614 18
26 1 -5.1537 0.573001 -17.5768 16
27 1 -5.80921 -7.43057 -13.9661 13
28 1 -11.1125 -0.321907 -9.82167 19
29 1 -14.9535 -8.2052 -7.82644 13
30 1 -13.9635 -4.93246 -7.8016 15
31 1 -13.46 -6.60951 -10.2455 12
32 1 -12.5682 -1.79648 -6.92462 17
33 1 -14.7313 -0.169966 -5.96693 15
34 1 -13.8221 -8.51726 -4.75161 15
35 1 -16.3783 -4.28068 0.482435 13
36 1 -12.4069 -0.78142 -2.9667 20
37 1 -16.5154 -4.66342 -2.65459 14
38 1 -15.1066 -1.10938 -2.70402 17
39 1 -4.27325 -9.59972 -9.6899 20
40 1 -10.1206 -11.8253 -8.47471 11
41 1 -6.93351 -11.8773 -6.40683 14
42 1 -9.77067 -11.4644 -4.9281 18
43 1 -7.0778 -14.9303 -1.66905 14
44 1 -6.62297 -12.3916 -3.20644 20
45 1 -10.0576 -12.4583 -1.65718 18
46 1 -12.5566 -11.5905 -3.04132 16
47 1 -2.63797 -7.96267 -11.0542 18
48 1 -9.74078 -2.32658 -11.8401 14
49 1 -8.1186 -8.94511 -12.0556 11
50 1 -11.1723 -8.65419 -9.7817 15
51 1 -7.23268 -7.11824 -9.7257 17
52 1 -9.7053 -6.52282 -8.42024 18
53 1 -7.33981 -9.99492 -8.4175 18
54 1 -10.18 -9.28442 -6.53011 20
55 1 -6.56171 -6.58974 -6.43083 20
56 1 -9.41543 -6.68046 -4.78781 21
57 1 -6.97481 -9.38869 -4.79626 19
58 1 -10.9406 -8.65925 -3.61705 21
59 1 -6.44347 -6.92881 -2.91663 22
60 1 -9.93065 -6.64631 -1.62875 20
61 1 -8.05646 -9.61235 -1.66817 21
62 1 -2.86574 -8.16477 -14.2396 17
63 1 -4.89083 -1.96766 -18.6187 10
64 1 -7.91613 -1.05475 -17.6761 6
65 1 -1.55613 -5.6318 -16.5241 11
66 1 -7.07108 -0.938802 -13.0737 16
67 1 -11.0649 0.587328 -12.679 11
68 1 -7.25258 -4.54688 -12.0077 17
69 1 -11.6168 -3.86161 -9.47064 18
70 1 -7.05871 -0.868059 -9.85149 20
71 1 -9.60597 -1.69412 -7.94254 19
72 1 -7.64978 -4.39426 -8.16178 20
73 1 -10.7112 -4.06823 -6.14984 20
74 1 -6.58689 -1.47115 -6.66663 21
75 1 -9.62762 -1.90489 -4.61613 20
76 1 -7.51622 -4.25883 -5.05121 21
77 1 -10.9384 -4.14229 -2.88779 20
78 1 -6.86006 -2.03051 -2.66749 22
79 1 -9.68942 -1.97195 -1.37439 22
80 1 -7.51893 -4.68624 -1.52124 22
81 1 3.00071 -13.3413 -13.5482 8
82 1 -5.35511 -11.2062 -11.8497 11
83 1 -2.59452 -10.8952 -13.1066 14
84 1 -4.24199 -12.5206 -8.3388 14
85 1 2.20398 -13.9913 -10.3001 13
86 1 -1.15607 -14.3366 -8.93877 13
87 1 -1.18789 -12.0406 -7.12644 21
88 1 -3.58606 -12.5625 -5.27838 17
89 1 -1.51316 -15.0501 -5.38956 13
90 1 -4.23062 -14.2338 -3.04351 15
91 1 -0.755733 -12.1606 -3.64693 21
92 1 -3.70546 -12.0635 -1.21109 20
93 1 -1.57023 -14.2742 -1.76617 18
94 1 -4.93955 -4.28269 -16.5187 13
95 1 -3.55621 3.53975 -19.0635 9
96 1 -3.93565 -7.1372 -16.3696 11
97 1 -1.34037 -11.264 -10.1705 22
98 1 1.27022 -4.02777 -16.4794 13
99 1 -5.73874 -10.2763 -14.4801 9
100 1 -1.96166 -5.53952 -13.0628 19
101 1 0.132018 -8.24637 -13.0376 17
102 1 -0.77188 -5.93428 -10.0084 22
103 1 -3.70656 -6.39984 -8.21496 19
104 1 -1.62919 -8.92774 -8.19687 20
105 1 -4.39682 -8.75071 -6.62622 17
106 1 -0.885806 -6.46924 -6.50111 22
107 1 -3.77824 -6.92042 -4.65945 21
108 1 -1.69173 -9.31211 -5.04459 20
109 1 -4.61946 -10.1146 -2.96852 22
110 1 -0.766391 -6.33554 -3.2373 21
111 1 -3.82512 -7.53516 -1.45217 24
112 1 -1.88402 -9.94145 -1.7542 21
113 1 -3.99716 -5.31835 -19.5049 6
114 1 1.30942 5.87522 -17.0111 12
115 1 -4.39202 -1.83018 -14.8127 20
116 1 -2.14763 -3.24857 -15.3515 18
117 1 -4.9129 -3.96437 -13.4417 19
118 1 -1.31758 -0.546624 -13.3566 22
119 1 -2.47394 -3.11195 -11.5646 22
120 1 -4.73094 -6.56704 -11.3483 18
121 1 -4.91848 -3.15133 -9.83236 22
122 1 -1.21532 -0.879731 -10.2639 21
123 1 -3.95556 -0.625016 -8.19521 24
124 1 -1.88378 -3.72731 -8.45632 20
125 1 -4.58143 -4.10851 -6.55168 22
126 1 -0.872492 -1.63453 -6.7672 21
127 1 -3.85517 -1.58609 -4.99128 20
128 1 -1.79164 -4.03817 -4.79091 22
129 1 -4.41827 -4.2465 -2.83249 22
130 1 -0.530418 -1.5801 -3.3751 21
131 1 -3.65218 -1.67421 -1.78416 20
132 1 -1.55155 -4.39707 -1.43166 23
133 2 -13.9652 -8.08871 -9.44073 12
134 2 -10.684 -3.80973 -11.2711 12
135 2 -14.1686 -9.84017 -7.52263 12
136 2 -12.8373 -4.02458 -3.12398 20
137 2 -15.8967 -7.83163 -4.37001 12
138 2 -13.4204 -6.704 -4.59728 20
139 2 -17.0497 -5.47941 -1.13151 12
140 2 -12.7139 -8.93892 -0.17299 20
141 2 -4.78534 -3.71591 -19.1027 7
142 2 -15.3196 -8.7599 -1.82989 16
143 2 -12.0796 -8.73117 -5.55152 20
144 2 -13.1861 -4.99584 -9.45899 12
145 2 -14.2214 -1.58948 -4.36913 14
146 2 -14.8491 -6.48885 -7.16901 15
147 2 -16.1242 -4.53744 -4.42191 13
148 2 -13.3697 -3.58761 -6.66918 19
149 2 -15.699 0.657317 -2.29871 16
150 2 -11.5295 -6.97187 -10.5478 12
151 2 -16.5965 -6.06695 1.56857 13
152 2 -13.4159 -1.03256 -1.5365 19
153 2 -8.16123 -11.5622 -8.11321 12
154 2 -11.1123 -10.999 -6.46326 16
155 2 -6.12588 -14.4936 -3.17362 14
156 2 -7.96897 -11.7946 -4.91086 18
157 2 -10.7654 -11.6303 -3.30373 17
158 2 -9.03274 -14.5085 -1.5552 13
159 2 -10.956 -11.1305 4.59329 19
160 2 -7.85784 -11.7443 -1.74255 22
161 2 -0.964411 -9.78483 -13.6397 15
162 2 -5.57545 -5.78698 -14.9545 15
163 2 -4.45456 -11.2829 -13.5443 11
164 2 -10.5082 -8.19888 -8.126 21
165 2 -9.11814 -6.40604 -10.1878 17
166 2 -6.62259 -2.99826 -12.9031 17
167 2 -3.0971 -9.98751 -11.0601 20
168 2 -11.194 -10.5567 -9.423 12
169 2 -7.82441 -6.4075 -7.7978 19
170 2 -10.5147 -6.22586 -6.51533 22
171 2 -6.30394 -9.77351 -6.75715 18
172 2 -9.26174 -9.00887 -5.02129 20
173 2 -7.3857 -6.26804 -4.69453 20
174 2 -10.7318 -6.13646 -3.24396 20
175 2 -6.62738 -8.9694 -2.83059 20
176 2 -10.043 -9.19923 -1.79211 19
177 2 -8.10478 -6.64507 -1.39209 19
178 2 -4.36687 -7.85819 -12.8255 22
179 2 2.02071 0.119942 -18.9684 11
180 2 -6.35132 -0.545229 -18.5271 8
181 2 -1.92691 2.83133 -18.4723 12
182 2 -6.63872 -6.47807 -11.4825 16
183 2 -8.03292 2.993 -13.2241 16
184 2 -8.10475 -0.924805 -11.5347 20
185 2 -10.8764 -0.922178 -11.7002 12
186 2 -6.6826 -3.82654 -9.74982 20
187 2 -9.71491 -3.84594 -7.74562 20
188 2 -7.9336 -0.871983 -8.25351 22
189 2 -10.7868 -1.43365 -6.36313 19
190 2 -6.57793 -3.53446 -6.81277 20
191 2 -9.49354 -4.09479 -4.39921 20
192 2 -7.75082 -1.36251 -4.87358 21
193 2 -10.3923 -0.964265 -3.05467 22
194 2 -6.58909 -4.22265 -3.29523 18
195 2 -9.46442 -3.83389 -1.19205 22
196 2 -7.69795 -0.875714 -1.32092 20
197 2 0.31381 -14.0591 -10.2283 13
198 2 -5.29448 -11.4208 -9.97669 15
199 2 2.72048 -14.1281 -8.16911 15
200 2 -1.91229 -12.3645 -8.79336 17
201 2 -4.83579 -12.408 -6.59429 16
202 2 -0.564647 -14.8835 -7.11884 12
203 2 -2.98544 -14.3083 -4.80643 14
204 2 -1.72244 -11.8008 -5.23064 19
205 2 -4.68226 -12.0748 -3.2819 21
206 2 -0.858251 -15.3209 -3.28415 13
207 2 -3.62536 -14.2696 -1.35268 18
208 2 -1.76706 -12.2429 -1.62563 21
209 2 1.02258 -1.91073 -16.6675 17
210 2 -2.1533 -6.48895 -15.0593 18
211 2 -6.68295 -10.1152 -12.7858 12
212 2 -7.69854 -8.98764 -10.117 16
213 2 2.58808 -5.40438 -16.2229 11
214 2 1.32968 -12.6659 -12.727 13
215 2 -1.36235 -6.97659 -11.8206 21
216 2 -3.78443 -7.27302 -9.72905 18
217 2 -0.652589 -9.61669 -9.46209 23
218 2 -3.51017 -9.77871 -7.83364 23
219 2 -1.72979 -6.54754 -8.34133 21
220 2 -4.63462 -6.49753 -6.40205 20
221 2 -0.594455 -8.67386 -6.4405 22
222 2 -4.05412 -8.95011 -4.6432 21
223 2 -2.06943 -6.10753 -4.57767 22
224 2 -4.3648 -6.39371 -2.95426 21
225 2 -0.781974 -9.8893 -3.36314 20
226 2 -3.68618 -9.25517 -1.63454 21
227 2 -2.102 -6.62633 -1.4994 21
228 2 -1.91268 -1.25288 -15.2181 19
229 2 -3.57192 -5.86847 -17.6799 12
230 2 -4.6483 4.10924 -17.5817 12
231 2 4.67254 6.19186 -13.7119 16
232 2 -4.78618 -0.648079 -13.4759 21
233 2 -0.962461 -3.98766 -12.9021 21
234 2 -4.23199 -3.97696 -11.5633 20
235 2 -2.23912 -1.00487 -11.7373 20
236 2 -5.08983 -1.00402 -9.98464 22
237 2 -1.11208 -4.04212 -10.2772 20
238 2 -3.7138 -4.27262 -8.20565 22
239 2 -2.30226 -1.70103 -8.84154 22
240 2 -4.76967 -0.870855 -6.60643 23
241 2 -0.915949 -3.77285 -6.6944 23
242 2 -4.03858 -3.57389 -4.5957 21
243 2 -1.61905 -0.840826 -5.19979 21
244 2 -4.84559 -1.33923 -3.13499 20
245 2 -0.698991 -4.00343 -3.06269 23
246 2 -3.42199 -3.85717 -1.17635 22
247 2 -1.70287 -0.616853 -2.21041 22
248 1 -9.96205 -14.9746 -0.0253296 11
249 1 -12.2406 -11.0988 6.14771 14
250 1 -16.635 -9.84395 2.00898 9
251 1 -12.9345 -13.1249 0.629142 11
252 1 -13.1331 -9.59638 1.62749 19
253 1 -12.3891 -6.69042 3.56762 23
254 1 -15.1962 -6.00549 6.31895 12
255 1 -10.3437 -8.4705 6.33232 20
256 1 -12.6432 -6.13681 9.22382 15
257 1 -9.6788 -6.19863 11.9818 14
258 1 -11.0701 -14.1651 7.15346 8
259 1 -17.5389 -6.94625 0.33052 9
260 1 -12.6942 -1.35272 0.0502184 24
261 1 -15.0299 -0.957789 1.67252 16
262 1 -13.6006 -3.8965 1.86256 19
263 1 -11.0646 -8.6124 10.1106 13
264 1 -12.5604 -1.14196 3.64737 20
265 1 -16.3004 0.762052 7.50406 12
266 1 -13.4485 -3.4729 5.11621 19
267 1 -13.5042 -9.0535 7.92011 10
268 1 -13.5114 -0.223439 6.66954 19
269 1 -15.1507 -9.4422 4.67496 12
270 1 -16.873 -3.90514 5.11046 8
271 1 -12.0292 -0.48312 10.127 22
272 1 -13.6768 -3.77334 11.7328 10
273 1 -13.2707 -1.28737 13.4977 10
274 1 -7.11483 -12.4497 0.0197534 23
275 1 -9.85908 -12.4248 1.62332 19
276 1 -7.36695 -15.0798 1.93079 14
277 1 -7.07401 -11.592 3.31651 22
278 1 -9.74848 -12.4162 5.28341 18
279 1 -9.47149 -10.8181 8.59969 16
280 1 -6.81599 -6.74562 13.5517 14
281 1 -6.8246 -12.0992 6.8308 18
282 1 -13.3627 -12.5867 4.21682 10
283 1 -10.9261 -9.75172 -0.291433 21
284 1 -6.80682 -7.1068 0.3359 21
285 1 -9.6302 -6.50187 1.53558 21
286 1 -8.18899 -9.40833 1.62107 20
287 1 -10.6182 -9.624 3.42314 21
288 1 -6.78545 -7.3653 3.59797 21
289 1 -9.28234 -6.43975 4.79756 20
290 1 -7.85994 -9.79503 5.21465 23
291 1 -7.86451 -14.781 5.14348 12
292 1 -6.56519 -6.78415 6.71752 23
293 1 -9.47705 -6.4226 8.60734 21
294 1 -7.27522 -9.20912 8.32674 20
295 1 -7.95333 -8.87999 11.2538 18
296 1 -6.67623 -6.84391 10.1947 21
297 1 -7.5789 -3.9351 11.8043 19
298 1 -6.30703 -11.1252 10.5438 15
299 1 -7.30909 -3.38842 14.9087 19
300 1 -10.763 -4.25639 0.597802 21
301 1 -6.23198 -1.4569 -0.0736603 21
302 1 -9.62714 -1.56079 2.026 23
303 1 -7.56304 -4.14986 1.64145 22
304 1 -10.6957 -3.89395 3.66821 21
305 1 -6.64618 -1.79697 3.25177 21
306 1 -9.68911 -0.91844 5.14811 17
307 1 -7.56275 -4.11338 5.39384 23
308 1 -10.7756 -4.78869 6.63491 17
309 1 -6.68722 -1.36661 6.7767 21
310 1 -9.57671 -0.988562 8.38775 19
311 1 -7.68523 -4.08689 8.3503 22
312 1 -13.0938 -3.2485 8.67765 18
313 1 -6.65253 -1.61288 10.3985 20
314 1 -9.72265 -1.01162 11.832 23
315 1 -10.786 -3.72612 10.1365 21
316 1 -7.84326 -0.515423 16.7974 14
317 1 -6.80907 -0.532411 13.2719 18
318 1 -10.6117 -3.40324 13.4156 16
319 1 -4.92406 -4.12232 13.3399 19
320 1 -4.16557 -15.3092 0.201173 15
321 1 -0.694835 -12.2596 0.41007 21
322 1 -4.07857 -12.6832 2.03816 24
323 1 -1.74462 -14.835 1.77153 15
324 1 -4.49898 -15.6061 3.61713 15
325 1 -0.898283 -11.2874 3.4409 18
326 1 -4.05826 -12.1165 4.91707 22
327 1 -1.86539 -14.2509 4.93345 18
328 1 -4.63635 -14.2682 6.84553 13
329 1 -0.787103 -11.9168 7.16691 20
330 1 -3.79172 -11.8959 8.45957 19
331 1 -1.75999 -14.8108 8.65077 12
332 1 -0.260596 -12.0539 9.98948 21
333 1 -3.24825 -11.8261 11.5338 16
334 1 -0.367711 -11.4318 16.1743 9
335 1 -5.18531 -10.125 0.476098 23
336 1 -0.852198 -6.60048 0.173626 20
337 1 -4.00623 -7.15192 1.77812 21
338 1 -2.00538 -9.47413 1.56644 18
339 1 -5.09186 -9.80239 3.53032 21
340 1 -0.688323 -7.07608 3.4741 24
341 1 -3.78474 -6.54644 4.98264 21
342 1 -1.83117 -8.98601 5.0798 21
343 1 -4.75311 -9.27014 6.50987 20
344 1 -0.577656 -6.27369 6.68565 22
345 1 -3.28789 -6.594 8.30795 22
346 1 -1.87936 -8.97188 8.36774 22
347 1 -4.3417 -9.05816 9.71948 23
348 1 -0.712782 -5.6108 10.0439 17
349 1 -3.22477 -7.00632 11.4914 20
350 1 -1.5545 -9.71181 11.1041 19
351 1 -4.81882 -10.1485 13.1731 16
352 1 -0.287949 -6.78091 13.0673 18
353 1 -3.67113 -7.34929 14.3539 16
354 1 -2.40282 -12.3879 14.5254 10
355 1 -4.61345 -4.39413 0.364354 21
356 1 -1.28659 -1.51606 -0.183691 22
357 1 -3.50915 -1.30703 1.93864 18
358 1 -1.80451 -3.61129 1.95799 20
359 1 -4.71126 -3.27678 3.60464 19
360 1 -0.982919 -1.51473 3.55707 22
361 1 -4.09809 -1.14077 5.24404 22
362 1 -1.80303 -3.96171 5.43709 21
363 1 -4.83424 -3.93815 6.85289 24
364 1 -0.968705 -0.992812 6.74836 22
365 1 -3.74879 -1.21908 8.59804 20
366 1 -2.06183 -3.82722 8.68708 21
367 1 -4.61628 -4.2446 10.4465 21
368 1 -1.10223 -1.53067 9.9299 22
369 1 -3.78891 -1.17329 11.7729 21
370 1 -1.65299 -2.86193 12.2937 20
371 1 -5.23852 -2.68169 17.6998 13
372 1 -1.09363 -0.242812 13.4967 20
373 1 -4.08587 -1.45815 15.2631 18
374 1 -2.96697 -9.59192 16.9093 10
375 2 -16.4865 -4.51096 7.02038 10
376 2 -10.884 -13.0528 0.205756 15
377 2 -11.9826 -8.37211 2.9228 19
378 2 -14.6689 -9.09013 2.96166 16
379 2 -12.1525 -9.30087 6.50417 17
380 2 -15.055 -8.01476 6.29913 10
381 2 -12.6459 -7.90799 9.31566 12
382 2 -14.9038 -3.16041 9.37353 12
383 2 -12.5947 -2.91633 12.9804 12
384 2 -14.044 -10.918 4.71982 14
385 2 -13.642 -5.99675 2.33007 21
386 2 -12.3106 -3.22525 0.286926 22
387 2 -16.2193 -2.17421 5.11488 12
388 2 -12.5777 -3.15403 3.21423 22
389 2 -16.0737 0.0901974 0.641147 11
390 2 -12.6552 -4.58241 6.90077 18
391 2 -15.0978 -10.1092 0.927264 13
392 2 -13.1194 -1.60228 5.49665 17
393 2 -12.7176 -4.67378 10.417 14
394 2 -15.2022 -2.8905 1.1154 16
395 2 -12.0668 1.45176 10.1437 19
396 2 -13.1378 -1.16369 8.53406 18
397 2 -15.092 -4.68656 4.73853 15
398 2 -5.6167 -6.85331 15.1971 13
399 2 -13.4129 -10.2148 -3.85217 16
400 2 -6.20912 -15.0697 0.250914 16
401 2 -8.99722 -14.7715 1.63992 11
402 2 -7.91343 -12.3253 1.87021 20
403 2 -13.2749 -12.1524 -1.31286 13
404 2 -12.3236 -13.5112 5.70345 9
405 2 -7.9605 -11.8373 5.01605 21
406 2 -13.5756 -12.5562 2.2734 12
407 2 -10.222 -12.3575 7.43623 12
408 2 -6.42377 -14.1742 6.27075 15
409 2 -10.9708 -6.42193 0.229794 21
410 2 -6.8385 -9.0625 4.75768e-04 22
411 2 -9.94896 -10.2875 1.41655 20
412 2 -7.98734 -7.28871 1.8795 19
413 2 -10.6731 -6.16344 3.49278 18
414 2 -7.15966 -9.29694 3.24228 21
415 2 -9.35557 -8.93524 4.68591 23
416 2 -7.23022 -6.14943 5.2035 20
417 2 -10.3718 -6.39032 10.2368 17
418 2 -6.75599 -8.73018 6.60765 24
419 2 -6.67476 -10.35 12.3514 13
420 2 -7.39341 -6.24781 8.48244 21
421 2 -9.56208 -9.79631 10.6949 14
422 2 -9.39564 -8.81055 8.24 20
423 2 -4.25787 -8.15338 12.7887 17
424 2 -4.13279 -5.9629 9.98126 20
425 2 -9.3626 -3.14388 14.873 15
426 2 -7.3622 -11.3409 8.72677 18
427 2 -6.1928 -8.73441 9.89719 22
428 2 -10.5241 -1.12993 0.369162 19
429 2 -6.46158 -3.69258 0.163927 22
430 2 -9.24338 -3.51893 2.04017 21
431 2 -7.66122 -1.25095 1.44318 19
432 2 -10.5939 -0.82176 3.40108 18
433 2 -6.59893 -3.83745 3.35542 18
434 2 -9.46641 -4.08575 5.12223 19
435 2 -7.741 -1.12552 4.85853 23
436 2 -10.556 -0.518238 6.82603 19
437 2 -6.56996 -3.31667 6.64973 20
438 2 -9.67604 -4.07034 8.37046 20
439 2 -7.84021 -1.32288 8.66066 20
440 2 -9.54706 -4.14251 11.7204 18
441 2 -6.63487 -3.57613 10.0634 19
442 2 -2.49994 -6.10804 14.7309 15
443 2 -7.80964 -1.84812 11.9179 20
444 2 -12.4896 3.0666 13.3182 11
445 2 -3.94423 -3.13703 14.5192 15
446 2 -6.52058 -4.72206 13.7755 16
447 2 -11.3376 -0.223179 12.9062 15
448 2 -5.16961 -12.1343 0.115165 22
449 2 -0.770254 -14.4814 -0.0103818 18
450 2 -3.52147 -14.7948 2.04254 16
451 2 -1.86951 -12.3504 2.00215 20
452 2 -5.18304 -11.8766 3.37275 22
453 2 4.62053 -14.4004 0.15416 19
454 2 -3.54639 -14.8868 5.26594 15
455 2 -2.13017 -12.0176 5.06129 20
456 2 -5.00133 -11.2231 6.78774 21
457 2 -3.2811 -13.8019 8.17274 16
458 2 -0.435933 -14.1901 10.5434 14
459 2 1.61552 -11.3367 9.91373 22
460 2 -4.36694 -11.2536 10.0642 18
461 2 1.36649 -13.7069 12.442 11
462 2 -5.01737 -6.46422 0.0972303 21
463 2 -1.01418 -9.97804 -0.0252705 21
464 2 -4.33748 -9.18951 1.86739 21
465 2 -0.658862 -4.6878 0.278341 21
466 2 -4.63606 -7.16808 3.57389 20
467 2 -1.82132 -7.3955 1.59945 18
468 2 -3.92684 -9.08896 4.83281 22
469 2 -1.74642 -6.47771 4.97336 20
470 2 -4.51283 -5.88852 6.98169 24
471 2 -0.989117 -8.36086 6.66742 21
472 2 -3.70417 -8.72942 7.92085 22
473 2 -1.72378 -5.65957 8.04749 24
474 2 -7.73333 -7.01803 11.9672 15
475 2 -2.67763 -8.5359 10.3612 18
476 2 -6.33405 -15.035 3.35261 15
477 2 -1.27584 -6.81445 11.5663 19
478 2 -9.81885 -14.6167 5.61047 8
479 2 -2.2156 -11.2874 16.0429 9
480 2 -0.189521 -12.3859 14.1841 11
481 2 1.77017 -3.60252 16.8169 14
482 2 -4.45178 -1.01853 -0.137933 21
483 2 0.290833 -2.31576 -1.24919 17
484 2 -3.74981 -3.47572 1.85432 20
485 2 -1.65949 -1.02201 1.71422 21
486 2 -4.80343 -1.14744 3.41801 21
487 2 -0.609675 -3.50881 3.79913 20
488 2 -3.71754 -3.64593 5.26011 21
489 2 -2.33304 -0.735044 4.65877 22
490 2 -4.77492 -0.763364 6.9092 19
491 2 -1.03528 -3.0744 6.66379 23
492 2 -3.69292 -3.21315 8.49021 24
493 2 -1.68999 -0.536924 8.44753 22
494 2 -4.75488 -0.698771 10.2635 20
495 2 -0.933327 -3.58467 10.5559 20
496 2 -3.69232 -3.49835 11.836 21
497 2 -1.82817 -1.0426 11.8988 20
498 2 -4.79992 -0.82596 13.4257 21
499 2 4.30135 -5.4319 12.1755 20
500 2 -2.39768 -0.660334 15.6226 20
501 2 -9.70414 -0.846546 16.5579 9
502 1 -13.5597 3.90855 -9.52248 11
503 1 -11.9598 6.15645 -10.0445 16
504 1 -15.8986 3.39529 -7.09112 12
505 1 -13.7396 1.22496 -8.76934 14
506 1 -12.3492 -6.90368 -6.44292 24
507 1 -13.0379 3.20959 -6.22542 21
508 1 -12.1129 9.41135 -0.750611 17
509 1 -12.7734 3.48573 -2.78495 17
510 1 -15.5297 2.43915 -3.93945 16
511 1 -15.1818 8.35138 -1.62805 12
512 1 -15.1385 4.60789 -1.35623 14
513 1 -13.7892 1.49697 -1.07676 20
514 1 -12.7693 9.39667 -6.73859 14
515 1 -17.4721 6.98966 -1.1334 9
516 1 -16.8737 10.5091 -0.239047 5
517 1 -14.577 6.42342 1.26473 12
518 1 -16.3374 5.21499 -4.22467 10
519 1 -12.3537 9.7115 -3.67399 18
520 1 -11.981 15.5106 -1.44587 9
521 1 -11.0022 12.9094 -0.0754834 17
522 1 -6.94269 3.66138 -14.4971 14
523 1 -8.09493 7.01846 -12.5703 14
524 1 -2.37771 0.678832 -18.8281 12
525 1 -8.2028 1.39962 -15.2198 12
526 1 -4.9331 8.85209 -12.0915 18
527 1 -9.34713 4.0415 -12.1786 15
528 1 -7.22325 3.80388 -10.2587 20
529 1 -10.7347 2.45808 -9.76721 20
530 1 -3.72018 3.49952 -16.0142 19
531 1 -10.1781 4.45606 -7.99088 21
532 1 -8.13797 1.1439 -8.39535 22
533 1 -10.4967 0.557514 -6.47147 21
534 1 -7.31219 3.73851 -6.64819 19
535 1 -9.88159 3.76086 -4.86669 22
536 1 -7.85688 0.696833 -5.00063 22
537 1 -10.7774 1.509 -3.23858 17
538 1 -6.56955 3.36661 -3.59368 26
539 1 -9.7844 3.88011 -1.38578 20
540 1 -7.78101 0.840046 -1.8832 22
541 1 -11.0151 7.15454 -12.9981 9
542 1 -6.47152 4.31627 -16.905 9
543 1 1.31176 9.12844 -11.8437 17
544 1 -8.8331 12.9928 -11.609 12
545 1 -8.00972 9.82507 -10.5803 21
546 1 -11.4989 6.17389 -6.41584 18
547 1 -6.40999 11.032 -12.8227 15
548 1 -10.0949 8.91172 -7.86345 20
549 1 -8.41868 6.92595 -9.06602 16
550 1 -14.1852 6.03916 -7.25148 13
551 1 -7.21953 9.80998 -7.1912 20
552 1 -9.65045 9.28542 -4.87994 20
553 1 -8.16088 6.14367 -5.43287 21
554 1 -11.0032 6.64484 -3.52612 19
555 1 -6.92709 9.15943 -3.91086 22
556 1 -9.1327 8.46441 -1.98651 18
557 1 -7.70223 6.18447 -2.24779 22
558 1 -12.1163 9.26418 -10.4547 13
559 1 -10.9332 12.1762 -6.40735 16
560 1 -8.49922 12.959 -8.41498 17
561 1 -7.88197 12.1499 -5.50149 20
562 1 -11.3413 13.0997 -3.017 15
563 1 -7.02441 14.3686 -3.79883 17
564 1 -4.19928 14.2769 -5.48872 14
565 1 -6.34478 14.2986 -0.492794 20
566 1 -1.34963 5.97382 -15.4612 13
567 1 3.56884 0.963962 -18.4549 10
568 1 -0.4841 3.21698 -17.2073 19
569 1 -2.19754 0.84637 -15.7818 23
570 1 -4.26449 -0.450245 -11.6191 23
571 1 -1.7911 3.24729 -13.7913 20
572 1 -5.32477 1.71951 -9.83857 21
573 1 -2.16818 1.55776 -11.9411 22
574 1 -8.14966 1.45622 -11.9426 18
575 1 -1.35662 4.36173 -10.162 23
576 1 -4.31841 4.24186 -8.69351 21
577 1 -2.17289 1.80751 -8.65429 18
578 1 -5.27143 1.44259 -6.50249 20
579 1 -0.952685 4.01671 -7.0584 20
580 1 -4.14144 3.94744 -5.51287 19
581 1 -1.81903 1.18509 -5.25075 23
582 1 -4.67186 0.983332 -3.32172 21
583 1 -0.697584 3.76519 -3.35177 20
584 1 -3.86202 4.03246 -1.87046 20
585 1 -1.62916 1.5621 -1.69793 18
586 1 -5.03143 1.30364 -14.0921 20
587 1 -3.21663 11.3372 -12.0206 20
588 1 -3.49683 9.6955 -14.3942 12
589 1 -9.81698 10.1948 -12.9237 13
590 1 -0.394604 10.7118 -13.8997 13
591 1 -10.8709 11.288 -9.57539 14
592 1 -3.91535 4.08136 -12.2013 23
593 1 -5.61724 6.01282 -10.7833 17
594 1 1.17672 14.0554 -12.6878 11
595 1 -4.61672 9.41893 -9.00984 21
596 1 -2.68408 6.89021 -8.74538 21
597 1 -5.68994 6.90627 -7.39045 20
598 1 -1.37722 9.82822 -7.35454 21
599 1 -4.07305 9.14513 -5.80207 22
600 1 -2.2576 6.67691 -5.43089 21
601 1 -4.93002 6.57054 -3.96335 19
602 1 -1.27653 9.27531 -4.07005 21
603 1 -4.16803 8.92604 -2.4686 22
604 1 -1.86277 6.54065 -1.97461 18
605 1 -1.48955 14.4468 -11.0338 15
606 1 -1.73187 9.12048 -10.5913 20
607 1 -4.03265 15.0124 -8.76224 17
608 1 -2.58584 12.111 -9.02847 21
609 1 -5.27057 12.5398 -7.49413 22
610 1 -6.58666 15.6395 -6.60244 13
611 1 -3.89782 15.935 -2.59409 11
612 1 -2.01582 12.1974 -5.8091 20
613 1 -5.35877 11.7691 -3.97614 21
614 1 -0.991886 14.5271 -3.85542 19
615 1 -2.70466 13.7279 -0.389925 21
616 1 -2.22924 11.6628 -2.58163 19
617 2 -10.7287 5.19667 -12.6343 11
618 2 -12.0766 7.87879 -11.4961 11
619 2 -14.0766 3.17353 -7.96648 15
620 2 -11.7216 -1.9748 -8.85994 19
621 2 -17.1275 8.59033 -0.341841 7
622 2 -15.7196 5.11221 -6.25326 12
623 2 -13.5133 0.115561 -7.44005 14
624 2 -12.5356 1.24137 -10.1254 12
625 2 -13.7216 3.21018 -4.42497 19
626 2 -15.8049 1.82467 -5.7439 12
627 2 -12.3427 1.32954 -2.09504 19
628 2 -15.4067 -3.2195 -1.91407 17
629 2 -13.5862 3.44256 -0.893031 19
630 2 -13.7708 5.7385 -8.96154 13
631 2 -9.03833 8.87065 -9.41243 18
632 2 -12.8746 7.54007 -6.36387 15
633 2 -16.0352 3.78168 -2.87175 14
634 2 -13.3999 8.97759 -2.20482 11
635 2 -16.4026 6.54245 -2.76826 9
636 2 -15.615 6.11573 -0.355886 10
637 2 -15.3224 10.628 -1.36786 9
638 2 -7.17644 11.7251 -7.31952 21
639 2 -8.62375 -0.16821 -16.3163 7
640 2 -0.677148 -4.08369 -16.2099 15
641 2 -3.85864 1.48583 -16.7795 18
642 2 -10.4437 12.7237 -8.26974 12
643 2 -3.99431 -0.51071 -19.0214 11
644 2 -10.1671 2.12201 -11.556 17
645 2 -11.6102 4.04455 -9.58297 17
646 2 -10.5233 6.5168 -8.21594 20
647 2 -7.18792 1.60313 -10.1668 21
648 2 -10.1753 0.877746 -8.29269 21
649 2 -8.5356 3.38519 -8.4658 24
650 2 -11.2189 4.18905 -6.1174 21
651 2 -7.38247 1.50883 -6.55969 21
652 2 -9.70756 1.64937 -5.15828 21
653 2 -8.03685 4.18097 -5.01387 20
654 2 -11.0484 3.64392 -3.41731 18
655 2 -6.56315 1.36001 -3.22633 20
656 2 -9.40089 1.83683 -1.50615 23
657 2 -7.89369 4.18523 -1.90752 19
658 2 -5.0608 -2.34145 -16.6507 15
659 2 -9.46979 8.21766 -12.7574 13
660 2 -7.17512 13.4052 -10.5076 17
661 2 -11.8008 9.34008 -8.49893 15
662 2 -7.84101 5.60736 -10.4999 17
663 2 -7.94464 16.0548 -5.12989 11
664 2 -10.9777 10.2664 -5.94512 16
665 2 -9.74171 13.1903 1.70168 17
666 2 -7.60503 6.49293 -7.32948 18
667 2 -10.1101 6.94839 -5.26956 22
668 2 -8.06278 10.098 -5.48778 20
669 2 -10.774 9.0498 -3.35827 16
670 2 -7.10607 7.00881 -3.99159 22
671 2 -9.70937 6.46921 -1.86171 17
672 2 -7.68786 9.7565 -2.29911 21
673 2 -4.9849 15.3305 -10.3846 11
674 2 -4.47644 11.4999 -8.80155 22
675 2 -5.11626 14.7617 -7.27914 16
676 2 -9.27927 11.4947 -10.5119 18
677 2 -9.8221 12.6447 -1.77863 20
678 2 -9.71316 13.3243 -5.50649 17
679 2 -10.9391 15.4122 -3.47543 10
680 2 -10.1636 15.5332 -0.484213 11
681 2 -5.96861 5.22021 -15.0308 13
682 2 0.0614584 6.62342 -16.0381 10
683 2 -3.80489 -3.8713 -14.8942 18
684 2 -6.83755 0.967865 -13.2636 18
685 2 -0.292018 1.25595 -16.4767 23
686 2 -2.07177 1.10448 -13.8514 22
687 2 -3.80114 1.30836 -10.8705 24
688 2 -1.91619 3.52448 -11.8039 19
689 2 -5.26191 3.88534 -10.5266 18
690 2 -1.25932 1.04875 -10.1383 21
691 2 -4.12211 1.62411 -8.13691 19
692 2 -2.47546 4.14687 -8.62753 21
693 2 -5.53555 3.69997 -6.9679 21
694 2 -1.1168 1.39661 -7.093 20
695 2 -3.89274 1.58765 -5.00804 20
696 2 -2.20788 4.39625 -5.43688 21
697 2 -4.91734 4.41829 -3.78355 21
698 2 -0.834305 1.4427 -3.51181 19
699 2 -3.58487 1.95427 -1.72875 21
700 2 -1.55825 4.39703 -1.75886 20
701 2 0.282183 3.08566 -13.6019 19
702 2 -2.19558 10.9905 -13.9154 13
703 2 -4.80298 12.2001 -11.8911 18
704 2 -7.6842 2.98388 -16.3223 10
705 2 -1.59076 3.96214 -15.6208 20
706 2 -6.15677 7.38365 -12.3924 15
707 2 -2.53216 14.237 -12.6676 12
708 2 -5.34785 9.87255 -13.9159 11
709 2 -1.45707 7.12105 -10.6163 17
710 2 -4.51347 6.08445 -8.90142 20
711 2 -2.70867 8.92863 -8.45089 20
712 2 -5.9149 9.98495 -10.9459 18
713 2 -1.43423 6.68833 -7.13321 20
714 2 -4.05961 7.17441 -5.60571 20
715 2 -2.60961 10.1259 -5.62949 24
716 2 -4.89302 9.52053 -3.94151 20
717 2 -1.20944 7.35253 -3.57057 23
718 2 -3.76661 6.84153 -2.00153 22
719 2 -2.4074 9.40329 -2.45415 20
720 2 -0.24059 12.673 -13.7621 12
721 2 -1.69821 11.5764 -10.7779 20
722 2 -3.07612 9.21117 -12.0837 21
723 2 -5.50961 9.06287 -7.30074 17
724 2 -11.3802 10.5434 -11.6171 12
725 2 -5.16732 12.7538 -5.73408 21
726 2 -1.27369 11.8272 -7.7971 20
727 2 2.09032 12.0352 -9.14851 20
728 2 -2.05995 14.1038 -6.10048 18
729 2 -4.8545 14.63 -3.57439 17
730 2 -1.29845 12.5904 -4.02803 19
731 2 -4.18211 11.7258 -2.352 19
732 2 -2.17621 15.6792 -2.28969 12
733 1 -16.9181 0.904858 -0.72765 8
734 1 -12.4097 3.89448 0.885716 19
735 1 -13.2586 1.34189 2.35594 17
736 1 -15.1797 -0.724 4.82933 14
737 1 -14.9831 4.31754 3.34499 13
738 1 -12.2123 4.35983 4.10301 18
739 1 -12.1427 4.91765 10.9185 20
740 1 -14.1607 2.55622 6.32471 21
741 1 -14.397 6.30326 5.42757 12
742 1 -12.5626 4.91676 7.26068 21
743 1 -17.0785 3.89654 6.12663 11
744 1 -16.4263 -3.587 8.38173 8
745 1 -14.8009 -0.956083 10.0769 14
746 1 -13.4256 2.43859 8.78563 23
747 1 -13.3087 12.669 4.53982 7
748 1 -13.5843 11.8792 -1.67773 14
749 1 -8.18507 12.4612 7.29675 14
750 1 -10.5016 12.8537 3.43486 15
751 1 -7.86089 11.7205 -2.2099 21
752 1 -10.7587 7.60698 6.71622 17
753 1 -12.0091 10.6478 1.75401 13
754 1 -12.9611 4.72603 13.7738 7
755 1 -9.26977 5.1802 11.8351 19
756 1 -10.5649 7.35451 10.4743 19
757 1 -10.6257 0.975971 -0.381954 22
758 1 -6.81993 3.91567 -0.316507 21
759 1 -9.57993 3.98765 1.83198 20
760 1 -7.77188 1.47099 1.67701 21
761 1 -10.5151 1.12264 3.67867 19
762 1 -6.58611 4.07713 3.47327 23
763 1 -9.672 3.87102 5.3266 20
764 1 -7.04147 0.974044 5.10577 20
765 1 -10.4915 1.60772 7.17286 20
766 1 -6.81798 4.10005 6.42311 21
767 1 -9.66738 5.02248 8.46519 22
768 1 -7.7791 1.65825 8.38847 20
769 1 -10.2437 1.78902 10.5865 21
770 1 -6.7195 4.12313 9.82585 22
771 1 -4.34042 11.5045 15.4675 9
772 1 -7.7783 2.1611 11.932 20
773 1 -7.68396 2.22764 14.8016 18
774 1 -6.22495 4.55559 12.9363 18
775 1 -14.3827 6.90618 11.1805 9
776 1 -6.47625 3.61855 16.8825 13
777 1 -10.9454 6.4303 0.115256 18
778 1 -7.12308 9.24443 -0.410208 21
779 1 -9.63118 8.93151 1.34091 18
780 1 -7.75475 6.57808 1.66608 23
781 1 -10.5403 6.79297 3.46982 17
782 1 -6.93155 9.54601 2.87724 20
783 1 -13.2906 7.67404 8.81981 15
784 1 -7.89748 6.58677 4.42367 20
785 1 -9.76483 9.68787 4.59184 21
786 1 -6.61145 9.57365 6.13461 21
787 1 -9.25799 7.47752 13.8886 12
788 1 -7.6114 7.5454 8.27679 21
789 1 -10.718 3.6701 14.2338 11
790 1 -5.89886 11.515 12.5873 18
791 1 -10.4033 10.2552 9.3406 15
792 1 -10.0194 0.0233842 14.5724 16
793 1 -7.45182 8.13866 11.8561 21
794 1 -7.61456 10.0542 9.756 21
795 1 -7.78573 5.39998 15.0232 16
796 1 -9.4406 15.0167 -2.30255 17
797 1 -6.17767 14.6713 2.41517 13
798 1 -9.94371 15.3321 -4.94249 11
799 1 -8.06955 11.9328 1.34388 20
800 1 -9.28264 15.1416 1.14575 13
801 1 -10.728 11.8577 6.38506 14
802 1 -12.7562 9.9038 6.64832 11
803 1 -15.3638 4.59406 8.47315 12
804 1 -9.17044 10.3734 12.3403 14
805 1 -12.5834 1.3884 12.3416 16
806 1 -4.61159 1.39074 -0.129046 20
807 1 -0.788673 4.48226 0.0730599 21
808 1 -3.66852 3.72321 1.62021 21
809 1 -1.83029 1.05312 1.53183 21
810 1 -4.47216 1.29868 3.37388 20
811 1 -1.24962 3.87131 3.24439 22
812 1 -4.07809 3.96891 5.25189 22
813 1 -1.84175 1.19923 4.82055 21
814 1 -4.77291 1.39154 6.83839 22
815 1 -1.08437 3.91126 6.38686 26
816 1 -4.03796 3.94858 8.31399 23
817 1 -1.75666 1.47144 8.41708 21
818 1 -4.73356 1.41488 10.3343 19
819 1 -1.02631 4.25316 9.64424 23
820 1 -3.7571 4.78365 11.6638 21
821 1 -1.88185 2.46855 12.176 20
822 1 -4.24819 1.8223 13.4141 22
823 1 -0.911432 4.7396 13.2915 20
824 1 -4.01849 4.30368 15.4424 22
825 1 -2.11793 1.6379 15.4228 20
826 1 -5.26149 6.47266 -0.228131 20
827 1 -1.15429 9.331 -0.875018 22
828 1 -4.2715 9.05346 1.0181 22
829 1 -1.87129 7.29707 1.42765 20
830 1 -4.67116 6.538 3.42123 23
831 1 -0.890793 9.21493 3.0678 25
832 1 -3.7024 9.5093 4.35314 22
833 1 -2.08282 6.58021 5.0884 22
834 1 -4.85291 6.80746 6.34251 23
835 1 -0.851205 9.39447 6.12183 24
836 1 -3.61443 9.44425 7.76286 21
837 1 -2.09596 6.95945 8.07466 24
838 1 -4.93992 7.02769 9.64756 21
839 1 -0.716643 9.64085 9.04749 23
840 1 -2.41279 8.58051 16.3059 12
841 1 -4.95146 7.83598 13.0574 16
842 1 -4.18017 9.80708 11.2735 20
843 1 -1.72328 7.79461 11.3204 21
844 1 -7.26728 10.5305 14.6351 12
845 1 -1.91164 6.86986 14.5857 17
846 1 -5.01917 11.6925 -0.697202 23
847 1 -0.977769 16.0556 -0.653615 12
848 1 -3.7239 16.142 0.797633 12
849 1 -1.72691 11.4509 1.40493 21
850 1 -4.92342 11.991 2.62421 21
851 1 -3.26 14.2034 3.43107 15
852 1 -7.788 12.3304 4.47933 16
853 1 -1.71567 12.0402 4.59377 21
854 1 -4.76777 12.8893 6.07985 13
855 1 -0.304039 14.2367 5.81851 15
856 1 -6.93647 13.3073 10.9479 9
857 1 -2.10897 12.2679 7.60198 18