ITEM: TIMESTEP
46000
ITEM: NUMBER OF ATOMS
2000
ITEM: BOX BOUNDS pp pp pp
-30.0 30.0
-30.0 30.0
-30.0 30.0
ITEM: ATOMS id type x y z Coordination
1 1 -7.71292 2.9345 -17.9698 10
2 1 2.61451 -14.1843 -9.87688 19
3 1 5.27956 14.2238 10.7174 12
4 1 10.0025 -8.91087 4.37458 19
5 1 -4.71526 9.52647 -1.66332 19
6 1 15.4252 -9.53933 -16.0307 13
7 1 -9.75857 6.56959 -11.0183 16
8 1 5.01867 -5.43891 10.1791 16
9 1 -3.10048 2.5664 -14.4729 22
10 1 -6.30389 -8.38442 3.43857 19
11 1 11.9214 3.03453 -11.6828 20
12 1 -0.0332167 4.16312 -7.88903 19
13 1 0.158123 -13.5479 1.08852 20
14 1 -5.51306 -6.33248 -1.81335 22
15 1 3.69062 5.18702 11.3233 20
16 1 10.7011 -5.22864 0.0817863 20
17 1 2.56584 6.82302 5.61451 23
18 1 14.4081 -3.16396 -2.42757 20
19 1 -0.140862 13.6051 -14.3063 12
20 1 4.66528 0.508749 7.21406 24
21 1 -5.9473 0.241991 -18.1176 11
22 1 -10.8669 -3.26966 7.59647 11
23 1 17.2558 -1.32757 4.4771 14
24 1 4.18903 8.52953 -13.2273 20
25 1 4.08038 5.37012 -17.8698 22
26 1 14.8072 0.740651 5.75437 19
27 1 -6.15477 1.94933 0.233027 22
28 1 -8.31343 4.11322 -10.5576 23
29 1 0.383575 -0.861527 -11.2033 23
30 1 -11.5603 9.3503 5.82364 10
31 1 9.09427 -14.7938 4.20132 14
32 1 3.15446 -1.29186 3.60804 21
33 1 6.18671 -14.8393 -13.8428 14
34 1 11.3598 -8.68502 -6.4052 18
35 1 -6.21114 -12.3551 -4.71311 12
36 1 -7.55337 -7.48805 9.72148 9
37 1 9.16457 -0.213855 -12.7028 23
38 1 9.52977 -5.84184 -17.5606 20
39 1 12.3971 -10.6051 -17.525 11
40 1 0.0997223 0.775949 -20.9827 14
41 1 5.95792 5.81361 7.508 20
42 1 5.2287 -10.9146 5.94254 21
43 1 7.73518 -7.24561 9.64126 16
44 1 -8.57718 1.20391 -4.93198 22
45 1 -8.33571 -3.8913 5.72381 19
46 1 -2.8264 2.49128 -4.36889 22
47 1 1.69051 12.6719 -8.81777 23
48 1 1.21103 -11.0335 -13.2255 21
49 1 7.98852 -5.44814 -13.9333 22
50 1 9.01764 -2.8829 -17.855 20
51 1 4.71614 -2.55661 12.059 18
52 1 -7.61599 6.28785 -5.36982 19
53 1 9.54616 9.31562 -16.4854 13
54 1 5.8331 15.6155 0.482099 13
55 1 -7.61522 8.92758 -12.3309 18
56 1 -1.74834 14.2533 -7.17594 16
57 1 5.18004 -10.2559 -3.92684 21
58 1 11.2246 -6.15175 -8.95619 20
59 1 9.6179 -4.13711 -20.9419 15
60 1 -8.25616 10.3756 6.92963 12
61 1 -9.94366 -4.97449 -12.568 10
62 1 8.79723 -2.44307 0.541839 21
63 1 -4.06962 7.5786 -6.82346 20
64 1 -5.49865 -5.66098 1.59569 23
65 1 0.0901431 14.8705 5.97177 13
66 1 -10.577 4.75263 -13.3053 13
67 1 -5.72066 14.2243 4.72324 8
68 1 0.986566 7.25942 -12.8304 23
69 1 6.19512 3.19709 2.49024 20
70 1 -0.337053 -13.5735 4.42733 20
71 1 5.53346 5.87559 3.98882 20
72 1 9.37111 -14.918 -8.02936 16
73 1 5.94737 11.4886 11.0846 15
74 1 -10.1549 1.79728 -11.7393 18
75 1 -11.5156 7.22462 -8.65709 14
76 1 9.27249 6.40401 9.00678 20
77 1 17.3834 -3.49291 -14.2605 16
78 1 11.0639 -10.5492 2.34048 20
79 1 -9.38946 -2.09761 3.98734 12
80 1 -8.03849 -0.937045 0.297556 20
81 1 8.71332 16.7079 1.50077 13
82 1 10.2607 -3.04804 8.96252 21
83 1 -2.52084 -13.3577 1.78249 17
84 1 -5.84696 1.12115 -3.14737 25
85 1 16.4566 0.949272 3.19673 21
86 1 11.8799 -1.63192 -4.27694 22
87 1 3.08128 15.8865 4.80117 11
88 1 8.73168 -1.82976 3.91579 21
89 1 -3.13325 -6.78418 2.73862 19
90 1 -0.124107 -6.11772 -11.9797 19
91 1 -11.9562 7.83285 2.87883 10
92 1 -5.32456 15.3412 -7.46925 11
93 1 -1.5223 6.7274 -11.5541 19
94 1 10.9806 0.405693 -6.0478 22
95 1 8.66548 1.64677 -7.6688 17
96 1 10.2218 13.4056 -9.40556 17
97 1 11.6222 -7.79325 -3.94343 20
98 1 10.0087 -9.44381 10.338 7
99 1 -3.84469 13.4415 -9.55803 18
100 1 -4.05945 12.9108 2.82708 18
101 1 -3.18768 -0.332759 11.537 13
102 1 0.249458 9.04809 2.43641 22
103 1 2.56639 -6.7524 2.86022 22
104 1 18.3012 -8.77559 -10.1875 13
105 1 -7.4444 4.56406 -0.0950379 19
106 1 -5.3489 -12.7638 0.772817 12
107 1 16.7252 -9.9 -7.53477 13
108 1 12.0203 0.965374 -13.037 17
109 1 -0.8293 -4.3254 -21.852 10
110 1 5.38899 0.538845 3.77285 20
111 1 4.76709 10.5514 -2.26602 21
112 1 -2.08841 8.85308 -14.0682 19
113 1 -0.291256 7.42909 13.3949 11
114 1 6.20403 12.0472 -12.5321 21
115 1 -13.4179 9.15154 -6.30613 5
116 1 3.436 7.37218 -1.13121 21
117 1 2.4472 -4.57938 8.25514 23
118 1 16.1356 -1.09322 7.76471 15
119 1 5.24451 -4.03057 -10.2919 23
120 1 8.50182 -6.32049 -10.7003 22
121 1 -0.179329 6.31347 7.31464 23
122 1 10.1595 -2.72239 12.5425 14
123 1 -5.44662 -6.18245 -8.69916 19
124 1 7.62798 -5.21968 -1.51899 21
125 1 -2.87468 -8.59847 -5.57085 18
126 1 11.1607 -12.986 -3.23807 19
127 1 1.51253 9.35278 -1.06811 19
128 1 8.33289 2.60566 -13.9369 17
129 1 11.3187 14.8782 -3.56328 16
130 1 -3.60119 -11.0443 7.83216 15
131 1 -4.7678 -14.6351 6.43777 8
132 1 -1.77639 5.28099 -5.92586 20
133 1 8.98559 -10.4993 -17.6932 14
134 1 8.6657 7.77441 -10.7431 19
135 1 13.6977 -9.26844 -2.17235 17
136 1 4.17372 -16.4023 2.07523 11
137 1 -5.72689 -6.61897 -5.46422 20
138 1 19.5244 1.55778 4.32195 13
139 1 18.8284 -3.93031 -11.6723 14
140 1 -9.77118 -3.47339 0.586868 17
141 1 13.9043 6.90336 3.23861 19
142 1 19.9589 6.98054 -2.86048 15
143 1 -4.01073 2.44117 11.9146 16
144 1 8.83217 6.42141 -3.62539 23
145 1 -2.72372 12.8733 5.46559 17
146 1 -3.07259 10.7467 -11.6712 20
147 1 5.48347 -6.48378 -11.9872 23
148 1 15.2989 -11.8078 -13.4918 12
149 1 4.55433 16.598 -12.3135 12
150 1 8.14435 -1.80416 10.3705 22
151 1 6.08788 -0.785545 -23.4831 11
152 1 0.418714 7.17062 -8.70069 22
153 1 15.4465 3.24784 -7.58671 19
154 1 -8.5735 9.22954 -9.50438 17
155 1 -7.65676 13.7702 -4.94314 11
156 1 10.7684 4.98136 -14.401 20
157 1 12.5047 -11.5227 -0.556949 19
158 1 -2.50926 3.01601 -11.2596 19
159 1 -5.37123 10.8214 4.8492 19
160 1 14.9208 3.67665 -13.15 18
161 1 10.8278 12.071 -5.65065 19
162 1 -0.791672 14.5111 -4.00556 18
163 1 19.8017 6.49903 -6.30287 15
164 1 -1.09629 11.774 -8.93744 21
165 1 5.69271 16.3801 -8.73215 20
166 1 4.3262 8.88418 -18.155 16
167 1 -7.27547 -10.3151 1.20444 16
168 1 -10.6851 4.89305 -4.17512 16
169 1 -2.18074 0.250206 -16.3166 20
170 1 5.49229 -10.2481 -16.5362 19
171 1 12.8227 11.3515 6.88403 12
172 1 7.1586 18.2747 -0.988813 12
173 1 -9.67532 -4.29662 -5.95004 18
174 1 -7.3375 11.6117 1.51925 12
175 1 19.891 -4.08924 -8.61968 15
176 1 -8.9351 0.120545 -16.3273 11
177 1 7.64848 -1.27239 13.5011 15
178 1 8.37181 14.0146 -0.361404 18
179 1 0.124224 9.41786 5.82049 21
180 1 4.82029 -6.38438 -21.3069 13
181 1 0.438951 15.0329 2.82297 16
182 1 0.854733 12.6628 -11.9307 19
183 1 4.91192 -2.27641 8.9123 22
184 1 -10.8378 -6.30198 0.366238 8
185 1 1.77514 -10.9411 -17.001 15
186 1 -5.44178 11.2137 -12.8469 15
187 1 2.32936 -12.7765 2.85012 18
188 1 5.5602 -14.7321 -8.10804 16
189 1 -0.321999 10.6997 -16.3668 16
190 1 -12.1567 1.1546 5.87021 10
191 1 7.00964 6.1987 -5.99067 22
192 1 9.73946 10.3007 -8.27993 18
193 1 -6.75425 5.94646 8.67526 16
194 1 4.92081 -8.42668 8.2267 18
195 1 -3.54347 1.46781 -1.10023 23
196 1 5.75842 15.6433 -5.05478 22
197 1 5.29966 11.4201 7.95 20
198 1 14.5312 4.0458 6.8822 21
199 1 -2.11022 14.8316 0.709897 13
200 1 18.6912 -6.67089 -12.6536 12
201 1 -2.56752 15.6792 3.96877 13
202 1 -0.740733 4.67221 -13.833 21
203 1 16.0141 -6.55014 -2.54533 13
204 1 -0.650924 -4.60824 0.0559501 22
205 1 -11.245 -0.578511 1.5191 10
206 1 -2.7627 -6.94048 -0.309137 24
207 1 10.5639 0.683637 7.47996 19
208 1 -11.9835 1.3832 -6.58474 13
209 1 0.491187 -12.2578 -10.0678 18
210 1 -2.33984 -0.320792 -6.34709 19
211 1 8.26136 -9.3059 -9.41327 21
212 1 1.6982 13.2213 0.710348 18
213 1 -2.4102 -1.38087 0.354794 23
214 1 7.35817 14.3802 7.9273 12
215 1 -5.44805 -0.790912 -8.41048 20
216 1 0.162223 9.59678 -10.8311 19
217 1 -8.1988 -6.26249 -7.35901 23
218 1 -6.69486 -1.69907 7.70167 22
219 1 0.26424 -10.5409 -0.610719 22
220 1 9.84516 -13.2919 1.57076 23
221 1 -5.61445 7.95781 3.72783 20
222 1 17.8207 3.25876 2.44116 21
223 1 8.48361 4.56341 -8.98276 21
224 1 -2.24632 -6.93498 -16.9394 18
225 1 7.6267 0.790836 8.58888 22
226 1 12.656 -13.7858 2.26021 9
227 1 5.01822 6.04904 -15.3909 17
228 1 7.20844 -13.2107 -16.7676 12
229 1 10.2241 3.17678 -16.8226 18
230 1 7.06794 9.87603 -18.346 12
231 1 -3.1558 -2.56745 -11.6184 21
232 1 2.26966 16.9279 -9.54492 12
233 1 -3.01139 -11.8472 5.15072 19
234 1 11.6572 14.7106 -6.97871 13
235 1 -9.93831 3.93283 8.2927 16
236 1 -3.71486 10.999 -7.0373 21
237 1 11.1418 -3.20454 5.24555 20
238 1 0.501625 -7.83511 -17.4182 18
239 1 -3.18956 9.11407 -17.0824 11
240 1 5.41837 0.418491 -18.0815 19
241 1 -0.470784 -10.7686 6.17087 19
242 1 -2.89304 7.39565 5.43076 22
243 1 -2.33985 10.0915 7.30578 19
244 1 10.3296 -9.95354 -13.3092 17
245 1 -2.32391 -10.792 0.00400218 21
246 1 14.0278 -10.4746 -5.3021 17
247 1 2.91316 -9.10758 -5.69161 24
248 1 11.1707 8.09566 10.5311 15
249 1 9.36273 10.9352 -11.3357 20
250 1 6.47386 8.9052 -4.402 21
251 1 -4.51254 4.06163 -1.25953 24
252 1 -7.65714 9.2079 -3.82495 20
253 1 2.79809 9.80414 7.49028 23
254 1 8.89678 -15.7947 -1.7051 14
255 1 17.897 2.95892 -5.52859 21
256 1 5.61736 8.46599 2.79316 18
257 1 -4.81049 5.01071 2.38156 22
258 1 -7.45516 -5.8381 -11.0057 17
259 1 7.94424 5.19785 -16.6621 17
260 1 5.69043 -2.40887 5.35539 22
261 1 11.3075 10.6269 -13.9592 16
262 1 5.00042 -8.52208 -10.5837 23
263 1 0.737628 -0.470842 -14.4537 23
264 1 7.64196 -18.0242 3.31449 7
265 1 14.176 -3.33744 -14.2318 24
266 1 -6.59907 -6.3516 5.12345 19
267 1 13.3428 -13.8747 -5.43543 12
268 1 -5.28465 -4.68288 -12.9506 21
269 1 8.03725 13.9943 -4.23742 18
270 1 6.58514 -4.58744 -19.695 20
271 1 11.7951 5.57108 12.5402 14
272 1 18.949 -0.433828 -4.68622 23
273 1 -2.75637 -5.65151 -6.95975 19
274 1 16.4242 -8.5205 -13.0209 17
275 1 2.48408 -6.43702 -3.62718 20
276 1 -0.627529 -2.53519 -16.6217 21
277 1 -7.71548 0.330269 -10.8577 16
278 1 0.496616 -11.7951 9.34066 10
279 1 12.5724 -1.21987 6.89261 17
280 1 7.46489 -7.36108 6.33819 20
281 1 0.54057 -5.47096 -15.192 20
282 1 5.44942 -7.97945 1.40554 23
283 1 1.87464 4.8957 -15.6174 21
284 1 8.4929 5.96668 -0.886904 23
285 1 -3.42218 -3.89719 -1.33171 22
286 1 4.8909 13.0122 -0.350764 18
287 1 -0.397527 -0.13906 10.2301 15
288 1 -4.5949 -7.66634 -11.7737 16
289 1 -2.56533 -6.02907 -13.9399 20
290 1 1.15656 5.91098 -18.3802 18
291 1 -2.65179 -8.50253 -8.86225 21
292 1 -0.428763 -12.9424 -5.95609 21
293 1 16.2831 -0.804739 -15.5755 14
294 1 19.2864 -1.05404 -13.1101 10
295 1 12.1279 3.8912 -0.749961 21
296 1 -0.622477 -3.92469 -6.76833 21
297 1 -5.66894 -0.437145 4.86375 20
298 1 -0.938113 -12.5197 -2.77678 21
299 1 13.4562 1.15596 8.76751 20
300 1 -4.06806 -12.1509 -2.50291 17
301 1 1.94266 -12.5882 -1.12797 17
302 1 7.36595 18.0763 -6.71151 14
303 1 5.36665 -2.58057 -16.8704 19
304 1 0.357635 -5.10843 -18.7313 18
305 1 13.8023 -4.91558 -7.81633 22
306 1 -4.18085 -8.88389 5.31696 16
307 1 3.38029 2.21705 13.8193 15
308 1 4.95648 -12.0512 -8.89832 20
309 1 0.702874 -13.2226 -15.7767 11
310 1 -6.88708 6.11872 -12.9297 22
311 1 11.8754 2.4757 2.6179 22
312 1 -0.753343 3.34209 -19.3357 17
313 1 0.80211 10.1577 -13.6652 20
314 1 -0.83452 -4.69662 3.48008 21
315 1 12.3751 -13.8857 -13.6329 14
316 1 -5.95644 12.0435 -2.57735 18
317 1 10.4296 11.6144 5.04676 21
318 1 13.5817 0.0175109 -1.52261 20
319 1 -6.11852 2.51703 3.75965 21
320 1 3.18146 -1.82482 6.89359 20
321 1 0.810604 12.0076 4.33704 19
322 1 6.75381 -5.23572 -16.3245 21
323 1 17.0468 5.99726 -6.70093 22
324 1 8.32004 -6.8183 -7.02982 19
325 1 5.43661 0.382818 11.0139 22
326 1 -8.46124 -5.48673 3.26654 18
327 1 4.42311 -16.0989 -4.11753 10
328 1 -4.68141 12.264 8.18591 10
329 1 -5.66242 8.35106 6.72311 18
330 1 -9.23769 -6.82289 6.89026 13
331 1 -6.42425 -8.81668 7.16918 13
332 1 20.854 -5.39734 -6.11073 9
333 1 -4.17692 -10.4069 2.56367 22
334 1 8.14415 -2.53953 -14.6655 21
335 1 14.2916 -12.568 -7.89092 14
336 1 9.364 16.3954 -5.60566 19
337 1 2.63161 -9.67111 1.21821 22
338 1 -6.55015 12.9399 -7.8078 18
339 1 2.54308 1.47561 5.50694 21
340 1 9.49949 3.7352 10.3869 21
341 1 -8.65682 1.72078 -1.53754 19
342 1 11.3783 -11.5184 -8.08292 19
343 1 1.37375 9.76763 -7.78136 24
344 1 -2.82262 6.90039 -1.30947 22
345 1 10.9988 -12.357 4.78594 12
346 1 15.6644 -5.09255 0.110863 12
347 1 -0.0219589 6.47472 3.8196 20
348 1 -2.35772 0.300662 -9.62256 20
349 1 2.14125 -0.686532 12.168 17
350 1 6.62455 18.6454 -3.60354 10
351 1 13.8313 3.49086 10.6045 18
352 1 -5.82531 14.138 -11.1612 12
353 1 6.88656 -3.46898 -22.6437 12
354 1 -3.0194 2.54792 -7.63406 21
355 1 11.0206 -7.77238 -18.3651 17
356 1 -7.92007 1.51298 8.48065 20
357 1 -11.4068 1.66083 -3.47012 14
358 1 2.42596 -3.08244 -11.6484 20
359 1 -1.84786 9.29246 0.374246 19
360 1 7.47415 -4.51089 5.00991 21
361 1 -5.5689 -9.14351 -3.63143 22
362 1 9.23964 -11.2198 -1.28282 16
363 1 -0.688444 -8.71838 9.68601 11
364 1 -8.88952 6.59591 -2.44128 20
365 1 2.26285 -4.05099 5.27687 21
366 1 11.2009 -9.3195 -9.80306 19
367 1 -0.449345 -3.33935 -13.2665 23
368 1 14.4418 -0.42983 -17.9766 11
369 1 11.8818 10.0292 2.49951 21
370 1 -8.10094 -1.52202 -6.12825 20
371 1 11.5773 -7.92109 -15.178 21
372 1 12.2955 5.88017 -17.7185 11
373 1 -1.03643 -15.6676 -10.2327 10
374 1 -8.89447 -3.36443 -8.80368 17
375 1 -0.0744134 -7.00031 -5.44209 22
376 1 14.7822 1.02895 13.2779 8
377 1 21.3665 4.59827 -0.979551 11
378 1 -5.83434 3.73942 -15.6228 19
379 1 11.5509 14.9633 -0.415876 13
380 1 -8.39348 1.77583 -8.48256 20
381 1 -2.86414 9.92661 3.98067 25
382 1 -12.1514 11.3504 -3.0325 6
383 1 0.177578 6.6063 0.340669 24
384 1 16.1616 1.30223 10.1413 14
385 1 14.6266 -2.20753 -8.80651 20
386 1 10.405 -5.80437 10.4666 14
387 1 18.7562 -1.47124 -9.95329 16
388 1 -3.01153 -15.3671 -8.07242 11
389 1 -2.27266 11.345 -3.77356 23
390 1 3.30075 -10.7807 -10.9151 21
391 1 3.87995 10.2797 0.928508 17
392 1 -6.0299 1.54246 -6.56891 19
393 1 5.95771 -9.64325 -7.00917 20
394 1 13.4167 -5.86581 2.08972 17
395 1 -6.34357 -2.89699 -10.2468 18
396 1 -0.403995 -10.6316 2.71425 21
397 1 2.48781 -7.45079 9.6327 17
398 1 -0.469165 11.5367 -1.0316 19
399 1 -2.90987 -6.40331 -3.86068 22
400 1 6.31693 8.79236 12.2081 14
401 1 -2.32581 8.09828 -4.0421 21
402 1 4.53559 13.6281 -10.6047 18
403 1 16.2588 11.8384 3.12928 12
404 1 -6.99488 -9.15283 -7.07541 16
405 1 1.56049 -8.29969 -12.1863 20
406 1 -5.26575 -0.969076 1.49282 22
407 1 -9.36449 12.042 -7.6741 11
408 1 7.87834 -9.92133 1.13428 23
409 1 1.04384 -14.4293 -12.568 14
410 1 16.2632 5.93836 2.74499 22
411 1 6.69822 8.63397 -15.5052 19
412 1 -8.47142 3.1611 -14.4107 18
413 1 1.09593 15.7863 -12.3155 13
414 1 -3.0978 8.41682 -9.26652 22
415 1 4.21867 -13.4386 0.621472 21
416 1 14.6013 4.19921 1.25359 24
417 1 2.43341 8.10114 -16.0846 23
418 1 -0.792866 0.204864 6.41807 21
419 1 -9.88067 2.02341 0.933657 17
420 1 -2.22419 4.30009 3.96069 20
421 1 2.17426 -9.94909 4.32101 20
422 1 2.93829 -5.56828 -13.5618 20
423 1 10.3724 -13.4251 -16.457 12
424 1 2.01602 -3.81695 1.56776 20
425 1 -9.31865 2.87458 4.9309 17
426 1 -9.37625 -0.726034 6.74677 18
427 1 -11.1667 8.58393 -3.80849 18
428 1 4.87954 -5.0749 3.55611 21
429 1 -3.88066 2.29534 -18.1113 13
430 1 13.323 -9.69431 -12.509 22
431 1 2.62753 -8.3054 -15.6463 18
432 1 0.0569306 -2.21485 5.279 19
433 1 8.03117 -3.35511 -12.0146 20
434 1 -2.83996 -0.462979 -19.84 12
435 1 10.8567 -10.2419 -3.51496 21
436 1 4.43041 10.4511 -8.62845 24
437 1 -10.5474 8.35764 -0.383641 14
438 1 -1.20644 4.71845 12.3833 17
439 1 -7.40656 -5.41742 -14.5291 11
440 1 -0.827392 -3.19765 11.3299 16
441 1 12.1485 -7.00151 5.1872 15
442 1 9.14052 3.54135 -2.37769 25
443 1 -1.76349 4.73651 -2.37495 23
444 1 12.636 3.20427 -6.32174 21
445 1 11.2718 -7.72151 2.27472 18
446 1 17.0547 4.06738 -10.8596 18
447 1 -5.01551 3.53688 8.46891 23
448 1 8.39466 9.06694 -2.1375 22
449 1 5.49906 -6.70468 -5.04061 22
450 1 2.98011 -14.3522 -6.60861 18
451 1 -1.65045 6.17439 9.83107 19
452 1 2.84114 16.2065 1.0965 11
453 1 -3.81104 -13.3778 -10.5572 9
454 1 15.9807 11.1379 -6.66481 16
455 1 5.40261 8.65353 5.74592 22
456 1 -3.97756 1.02946 8.0484 24
457 1 0.163451 -6.7695 -8.64794 22
458 1 -7.92836 4.54243 6.66302 21
459 1 -2.66643 -5.55244 -10.4719 22
460 1 0.0955348 15.0147 -1.2156 14
461 1 -1.46646 -12.1034 -12.6577 15
462 1 1.53493 -6.96621 -20.9847 10
463 1 -5.32409 -8.66942 -0.0484703 23
464 1 -7.0123 -3.74492 -0.972066 21
465 1 7.86269 1.00581 5.71463 23
466 1 -5.62677 -5.56922 10.5276 10
467 1 -8.27535 5.82076 -15.8403 11
468 1 11.7997 4.02594 -3.67293 24
469 1 -8.3183 -9.71083 -4.4337 14
470 1 5.74956 6.51783 -9.22927 22
471 1 9.85265 18.6418 -3.82461 8
472 1 2.99374 4.88001 -8.99612 20
473 1 0.510211 12.0286 7.86174 19
474 1 -12.5444 1.11666 -9.1417 9
475 1 2.32939 12.6941 -5.52236 22
476 1 9.6366 13.5793 -12.2736 16
477 1 -0.898976 -9.17987 -10.9795 20
478 1 0.961402 4.10815 9.69169 20
479 1 7.63237 -14.7305 -10.7797 16
480 1 2.58736 -2.72804 -15.0123 21
481 1 7.89232 -12.0629 -4.11184 21
482 1 -8.97822 8.23355 4.8897 19
483 1 4.84676 -0.245947 14.417 11
484 1 11.961 6.31855 -5.18534 23
485 1 6.83766 9.10497 -0.180012 19
486 1 -5.99815 8.34599 -14.9973 14
487 1 9.2954 4.91328 -11.843 24
488 1 5.25737 -7.60061 -2.02009 24
489 1 -10.2038 -7.1208 -4.39959 13
490 1 10.4504 14.0845 2.51387 16
491 1 -3.21076 -4.27007 -19.0402 13
492 1 14.8573 4.43972 -5.0211 20
493 1 7.2455 14.7206 -11.1254 19
494 1 10.772 -5.16985 -6.23969 20
495 1 21.3339 1.93214 -6.40646 11
496 1 5.35 1.83167 -12.6776 21
497 1 6.9683 -12.6345 -0.294198 19
498 1 4.87273 -10.5943 2.64398 20
499 1 8.43465 -10.2498 7.51992 15
500 1 -4.41334 4.96623 -11.9373 21
501 1 -5.66523 -12.3768 3.69084 14
502 1 7.66169 -11.6991 -14.2803 20
503 1 13.276 12.584 1.07684 17
504 1 1.37804 4.3526 -21.3369 13
505 1 7.42834 -4.27375 11.6 18
506 1 -11.9913 0.292988 8.47799 11
507 1 5.62578 -15.5162 -0.936927 14
508 1 -9.95446 -4.04348 -2.49841 16
509 1 20.5386 -6.88216 -10.3223 9
510 1 16.5551 0.461656 -9.34152 22
511 1 -1.22338 8.68658 -6.13469 23
512 1 5.25148 -7.08501 -15.0096 22
513 1 6.50887 3.95892 -11.102 22
514 1 16.4188 -6.16919 -15.291 17
515 1 -0.395406 1.68269 12.6445 15
516 1 10.0477 11.3956 -2.95831 21
517 1 2.4775 -4.09122 -20.8731 18
518 1 8.52431 0.894037 -18.5629 17
519 1 -4.57171 -3.54375 4.17626 21
520 1 0.629878 9.72953 -3.99889 21
521 1 -4.05891 -1.86653 -17.5283 17
522 1 -10.9947 -0.938955 -1.58415 15
523 1 2.89591 -8.63261 -18.9176 14
524 1 1.92765 -7.33078 6.48545 23
525 1 2.476 11.1567 -15.6311 16
526 1 17.7307 1.49372 7.06054 15
527 1 17.9558 9.23976 -7.89738 13
528 1 -6.73484 -11.0977 -1.74647 14
529 1 5.89772 -6.95287 -8.46912 23
530 1 4.26849 -3.66411 -23.9532 9
531 1 -4.98675 4.92854 5.38263 23
532 1 7.99089 -4.02426 -8.63024 21
533 1 5.98109 5.96331 -2.61784 22
534 1 14.6569 -2.11509 -6.02535 26
535 1 7.23456 14.7214 -7.51064 21
536 1 7.93186 -4.97786 -4.8231 19
537 1 14.2867 1.84914 -10.7818 22
538 1 0.79117 10.1509 13.0178 11
539 1 -7.76514 5.50224 3.30351 20
540 1 9.43203 11.9323 8.19464 14
541 1 12.7514 -3.7719 12.4996 10
542 1 1.87893 -1.51768 -22.0598 14
543 1 -0.479358 -3.55268 -9.86993 19
544 1 3.45622 4.06069 7.71023 23
545 1 15.6542 11.7552 6.30701 11
546 1 9.01848 7.51653 -14.3193 17
547 1 -5.85668 6.88522 -9.90415 23
548 1 4.27823 13.501 -7.50563 20
549 1 14.5002 -3.91161 6.3882 11
550 1 13.9796 0.208479 -15.0442 21
551 1 18.6815 -6.88026 -7.47885 13
552 1 15.2692 8.79966 7.25877 12
553 1 -8.00224 -5.98242 -3.23503 18
554 1 -2.88955 11.8396 -15.0192 13
555 1 -0.227324 0.972179 3.75847 21
556 1 -9.46434 -0.881372 9.99634 13
557 1 -2.34601 14.4441 -12.4793 15
558 1 9.69913 -12.9312 -6.17245 18
559 1 10.482 -3.58888 -10.5982 19
560 1 -0.24496 15.1089 -9.91258 15
561 1 -4.73766 -5.33303 -15.9434 14
562 1 6.13796 -15.8906 4.39392 14
563 1 -5.6394 -3.92348 -3.61788 20
564 1 1.34987 8.97116 -18.5988 13
565 1 -5.74632 4.86165 -7.8379 19
566 1 0.412177 12.2616 11.3284 16
567 1 -1.93195 -7.87282 6.90608 18
568 1 11.2866 7.10068 -1.83156 21
569 1 8.27286 -8.21556 -15.686 20
570 1 7.32358 -4.42958 8.32136 24
571 1 12.6163 6.21193 -12.1768 20
572 1 -5.82761 6.68246 -3.02032 22
573 1 8.60065 4.34798 13.0066 15
574 1 3.54815 17.3416 -6.60966 12
575 1 14.214 -7.30992 -10.8096 20
576 1 6.54648 5.43828 10.2691 21
577 1 7.04482 3.51803 -18.4017 17
578 1 4.30055 -12.1904 8.73704 10
579 1 -0.0555855 2.12611 -12.9401 19
580 1 11.8253 0.698557 -17.9521 14
581 1 4.55015 16.4742 -2.20113 14
582 1 11.4575 2.47791 -8.85945 20
583 1 3.21846 -0.0301276 -16.0063 19
584 1 0.0690019 -9.58534 -7.52495 23
585 1 -3.61146 -2.69324 -14.7776 20
586 1 18.4645 1.87745 -2.69376 21
587 1 19.4502 3.59633 -8.43041 14
588 1 10.7081 -4.67383 -13.8721 23
589 1 16.2197 6.3007 5.54623 18
590 1 11.0914 -7.05079 -11.5492 23
591 1 6.44748 7.15755 -20.2799 13
592 1 12.6127 10.11 -0.850315 21
593 1 -3.35197 1.75301 2.06763 21
594 1 16.5941 4.38558 9.02449 12
595 1 15.3011 8.16759 -8.58249 19
596 1 20.5482 -3.41103 -3.07172 11
597 1 14.3262 5.7984 -14.7495 14
598 1 11.9476 2.10136 5.80795 24
599 1 17.5294 3.71691 5.28987 18
600 1 7.2635 -4.87264 1.66111 21
601 1 17.7746 8.72861 -4.95635 18
602 1 9.21826 3.07191 0.555605 23
603 1 6.95923 2.18386 14.7609 10
604 1 16.5068 0.686758 -5.81852 19
605 1 10.8032 -0.390594 4.05368 25
606 1 -4.94584 2.19228 -9.45703 20
607 1 15.2582 2.80671 -1.94935 21
608 1 13.2895 -4.88378 -4.97029 18
609 1 2.7853 -5.96694 -6.8864 24
610 1 -9.68477 7.13536 7.5801 15
611 1 7.98967 9.88048 6.36952 19
612 1 13.8544 0.771262 2.14744 20
613 1 6.63864 11.5372 4.74405 18
614 1 4.0648 15.4295 7.9401 12
615 1 8.38935 1.11748 2.32655 17
616 1 2.46866 -16.1929 -1.31192 14
617 1 -5.08865 9.80934 -4.38066 18
618 1 12.9225 12.0442 -11.5067 14
619 1 11.7155 -1.93834 -13.552 23
620 1 7.22942 11.8919 -2.30891 20
621 1 1.83209 -11.8937 -7.53423 19
622 1 14.2499 -7.05204 -17.3307 13
623 1 -11.8774 2.76687 2.76444 11
624 1 -0.262662 2.40878 -16.0979 23
625 1 -0.963773 -15.4848 -1.35332 10
626 1 -2.23513 -0.481374 -13.3465 21
627 1 -11.2129 3.97803 -0.768867 15
628 1 13.7668 -8.71874 0.977407 13
629 1 18.2133 9.23958 -1.86517 15
630 1 7.64476 -10.4696 4.2358 21
631 1 -10.2618 -1.67082 -11.1426 11
632 1 6.47538 1.31577 -20.9143 14
633 1 11.6533 -9.58373 7.02903 9
634 1 -2.09701 10.5951 13.1173 10
635 1 9.70068 7.74166 -19.4552 9
636 1 14.4987 -1.56502 10.8268 16
637 1 15.6777 6.83085 -11.1383 15
638 1 16.1856 11.2646 -3.1303 14
639 1 9.74682 -12.2459 -11.3701 21
640 1 -3.8928 -2.51248 9.51116 15
641 1 16.4006 -3.91359 2.57203 9
642 1 2.69539 12.7276 9.7442 18
643 1 8.25001 11.1167 -14.176 16
644 1 -5.46931 10.4474 -9.80269 21
645 1 15.0785 9.13379 1.71112 24
646 1 -2.89609 -11.4534 -5.01517 22
647 1 17.3363 -3.8041 -3.78654 19
648 1 13.2745 12.9153 -2.12403 16
649 1 1.05287 6.75395 10.7746 20
650 1 -5.05098 -1.26812 -1.38801 23
651 1 -5.35597 -1.29779 -12.3019 20
652 1 14.7598 -3.85425 9.1719 9
653 1 2.80181 -4.46967 11.6982 15
654 1 14.0758 6.58862 9.87391 15
655 1 -4.41558 13.28 -5.5658 17
656 1 9.95032 8.52273 0.876946 19
657 1 10.5046 -4.63778 -3.08591 18
658 1 9.08955 3.78448 4.30743 21
659 1 0.309728 0.462241 -18.0318 20
660 1 -3.35398 1.9546 5.20283 22
661 1 11.4011 -2.12253 -16.5317 20
662 1 2.92117 -6.37561 -10.1553 20
663 1 15.5087 -10.5839 -10.647 18
664 1 8.23476 6.53091 5.89868 21
665 1 8.12102 5.94443 2.46058 24
666 1 -6.96252 3.4113 10.9735 11
667 1 17.3478 9.47383 4.91934 12
668 1 3.31235 2.28211 10.5804 18
669 1 3.10402 6.73775 8.972 23
670 1 2.55765 -2.98018 -18.4769 19
671 1 -2.27082 4.11649 7.16654 21
672 1 12.1452 4.36994 8.28291 20
673 1 -4.55679 -15.6426 3.78869 9
674 1 20.6166 4.117 -4.04709 15
675 1 12.488 -14.5359 -8.63232 13
676 1 0.927618 4.48172 -10.9894 22
677 1 12.9944 11.8622 -8.26388 18
678 1 15.5635 10.9299 -0.37851 17
679 1 2.87135 -0.221991 -19.6307 18
680 1 2.49253 -1.58309 10.0928 21
681 1 6.12442 12.0422 -5.7649 21
682 1 16.6 6.47862 0.036237 21
683 1 -4.14767 -13.6034 -6.41683 12
684 1 3.55915 1.87247 -21.8661 12
685 1 -9.17962 11.6171 -4.30301 17
686 1 12.5342 -4.72381 -16.6568 20
687 1 11.4374 5.61112 1.78984 23
688 1 13.9115 9.28549 -12.7048 12
689 1 15.0865 7.66339 -4.91436 21
690 1 0.851631 3.70192 2.2975 22
691 1 -3.0725 13.8633 -2.34638 14
692 1 9.88704 7.00416 -6.92301 19
693 1 12.5502 -0.508159 13.6127 11
694 1 10.9502 -0.111735 10.535 17
695 1 2.2324 -10.0741 7.9439 17
696 1 -2.2825 6.08986 -18.8941 10
697 1 5.73781 14.0706 5.42967 16
698 1 12.8372 -5.43027 -19.6385 11
699 1 6.17087 3.16889 5.9785 22
700 1 9.27017 16.4072 -8.94703 11
701 1 10.5578 7.72182 4.30479 22
702 1 17.5618 -2.05931 -7.00685 24
703 1 8.81134 6.93922 12.0393 16
704 1 -5.13796 -4.1893 7.43191 17
705 1 7.37086 -15.9036 1.65932 18
706 1 3.0318 -0.114609 -12.5379 21
707 1 -3.47563 11.8805 -0.332983 19
708 1 3.50361 4.19901 4.077 19
709 1 11.674 -2.20051 -7.56472 19
710 1 8.58847 9.61638 3.88084 21
711 1 -8.05855 0.611305 2.81139 20
712 1 -4.28725 5.30968 11.0513 17
713 1 -2.78373 4.4036 -16.5327 19
714 1 -3.36174 6.37697 -14.7562 19
715 1 7.89716 -12.7083 -8.37971 19
716 1 11.8809 8.9181 -9.92956 20
717 1 8.2961 -7.00713 0.162452 19
718 1 0.396336 6.67239 -2.63966 22
719 1 -12.8452 3.74564 7.93437 9
720 1 11.5039 -2.67511 -19.3924 14
721 1 7.60987 -13.0583 6.13283 15
722 1 4.50267 13.4447 -3.607 19
723 1 -2.77652 8.16674 11.8588 16
724 1 -3.66177 -8.8427 -14.1722 13
725 1 -1.75789 -10.4356 -16.5432 10
726 1 3.83595 -13.4886 -12.6014 18
727 1 3.36998 10.5086 -5.27843 23
728 1 12.9149 -4.32792 -11.276 22
729 1 -1.15351 12.1234 1.95739 21
730 1 12.5338 -11.2026 -15.0543 17
731 1 12.3515 -14.6381 -0.595134 11
732 1 7.79241 -7.32523 3.38832 21
733 1 17.0489 1.25041 -13.1858 16
734 1 6.8805 -11.44 -11.5704 19
735 1 -8.52682 -4.15827 8.97962 15
736 1 6.2929 -1.14935 -11.8023 21
737 1 2.83129 -11.9491 -4.36343 22
738 1 -2.13633 -11.1907 -8.41299 19
739 1 -6.86459 1.65794 6.09331 21
740 1 -2.08048 -15.2559 -4.6435 16
741 1 18.9335 1.80547 -10.9488 13
742 1 2.14722 15.692 -3.95063 14
743 1 -2.04229 4.3023 0.902475 20
744 1 -5.52117 7.12664 0.33917 22
745 1 14.0014 1.11627 -4.20189 20
746 1 -9.35024 -2.65776 -14.0734 11
747 1 4.10305 7.75228 -7.20736 22
748 1 11.5944 -0.265705 -10.4172 26
749 1 9.04252 13.1074 10.6541 8
750 1 11.345 5.79665 -9.48971 20
751 1 -10.9678 4.12712 -10.1762 17
752 1 -9.63093 -7.20182 -9.62731 13
753 1 3.13493 7.04406 13.5753 15
754 1 3.47876 11.2 -11.4249 23
755 1 17.8854 9.12755 1.60169 16
756 1 0.794002 3.66432 5.71832 19
757 1 1.05652 -15.4272 -4.05259 16
758 1 -1.77247 -16.646 5.04375 10
759 1 -3.53379 -5.70719 5.21262 20
760 1 19.1523 6.67291 3.84776 14
761 1 7.51714 -8.59989 -12.7382 20
762 1 -7.6984 9.96831 -1.21126 20
763 1 13.6005 7.40915 0.31002 23
764 1 -0.353626 -7.79849 4.46778 21
765 1 12.3044 7.96573 -15.2981 14
766 1 0.0986633 -15.1731 -7.31539 18
767 1 6.47754 -13.1829 2.64803 22
768 1 4.82098 -13.6039 -2.85495 18
769 1 6.53689 6.8933 -12.5909 20
770 1 13.9161 13.0913 -5.23769 16
771 1 -0.356203 -2.4487 -19.6584 20
772 1 -1.46961 2.44123 9.58467 22
773 1 3.35953 6.88199 -20.5065 13
774 1 -6.80424 -2.45594 -15.4087 18
775 1 -6.27932 -3.63319 -6.95955 20
776 1 1.05641 15.08 -7.00937 19
777 1 11.058 1.06231 -2.61382 20
778 1 5.12909 -1.90705 -20.3727 20
779 1 -3.26453 -3.06769 -5.02072 21
780 1 12.7768 9.48301 -6.75799 22
781 1 16.5878 -5.03481 -6.17252 19
782 1 -5.2131 10.1224 10.987 10
783 1 10.7164 -8.56921 -0.694217 23
784 1 19.3645 -6.11032 -3.8504 10
785 1 14.2457 -1.73566 3.8913 21
786 1 3.1285 9.94173 4.19573 23
787 1 -10.2731 2.18971 10.4275 12
788 1 -7.39615 8.45444 9.73647 10
789 1 -1.92384 -13.3006 7.21476 13
790 1 10.6575 0.136649 0.660963 22
791 1 8.59129 9.56271 9.97574 17
792 1 -10.6516 -1.29078 -4.50458 16
793 1 13.9173 -9.41161 -7.84401 20
794 1 -8.17443 12.1821 -10.7323 13
795 1 5.88527 6.2458 0.784487 19
796 1 4.53476 -13.6935 5.09135 15
797 1 8.76022 0.925998 12.0706 18
798 1 1.90493 12.33 -2.38369 21
799 1 4.96521 -10.5634 -0.547711 21
800 1 -5.31375 -1.14434 -5.06998 20
801 1 6.14329 2.9518 9.14985 21
802 1 -11.8582 -6.55515 -7.30459 8
803 1 3.31321 8.96415 11.0376 20
804 1 9.76581 11.2183 0.489999 20
805 1 -8.32446 -8.42031 -1.52333 17
806 1 1.7636 -15.4855 4.08691 13
807 1 11.778 -2.86929 1.99368 19
808 1 10.0864 -5.18499 3.51026 23
809 1 13.3146 9.634 4.85127 22
810 1 1.2965 6.91784 -5.90994 20
811 1 4.72387 -9.80838 -13.4895 21
812 1 2.58673 2.81109 -14.1732 22
813 1 1.62367 1.38156 7.9056 18
814 1 9.15174 16.236 -2.1996 18
815 1 16.5328 0.832343 -0.246308 21
816 1 3.11244 8.19652 -10.4222 22
817 1 -2.54217 11.2089 10.121 15
818 1 10.6402 8.98095 6.98112 22
819 1 15.7924 -3.56652 -17.3762 10
820 1 -2.46454 -8.94968 -2.27551 22
821 1 0.711415 1.25369 -9.4339 19
822 1 17.7719 -2.50491 -0.94556 13
823 1 5.36063 -3.55524 -13.8416 23
824 1 3.30495 12.8431 6.30198 20
825 1 12.6666 -12.2278 -11.0122 18
826 1 9.20509 5.09863 -19.5713 10
827 1 2.80389 -8.77129 -8.68062 22
828 1 13.406 3.04802 -16.3927 15
829 1 21.3101 -1.9599 -5.95924 12
830 1 4.95853 -5.44149 6.78029 21
831 1 -0.286028 -8.67939 -14.3039 24
832 1 13.1387 10.5378 -4.19869 20
833 1 2.32035 -6.81533 -0.330069 21
834 1 -12.4705 6.742 -2.66053 9
835 1 14.1608 4.62021 -9.91388 22
836 1 18.023 3.96205 -0.16494 20
837 1 8.02106 -6.89425 -20.4646 10
838 1 -8.71133 13.0162 -1.62613 9
839 1 20.4023 4.3203 2.38162 11
840 1 15.624 10.8208 -10.163 9
841 1 6.87413 0.140262 -15.1328 19
842 1 11.7426 -2.6584 -0.949149 21
843 1 -9.32535 3.63256 -6.29984 18
844 1 14.3437 5.30077 -2.15577 19
845 1 -10.4835 -9.001 -7.14209 11
846 1 -6.65269 8.79578 -7.2823 23
847 1 9.23988 3.69081 7.58599 22
848 1 -11.2126 -1.82186 -7.91073 11
849 1 -10.8548 5.6713 5.15897 18
850 1 3.62888 2.62024 -10.7519 22
851 1 13.4141 -6.54944 -13.6451 23
852 1 -7.07424 -8.80416 -9.9773 14
853 1 14.9016 -7.87627 -5.0574 16
854 1 -7.61884 4.04497 -3.11563 21
855 1 -3.36616 -2.59128 -8.32502 21
856 1 11.6249 4.99526 5.19142 22
857 1 -0.163654 -7.79293 1.20871 23
858 1 11.6312 2.07478 12.4408 15
859 1 18.8341 0.227045 1.3691 13
860 1 13.0193 -6.10363 -1.29869 20
861 1 -4.63322 4.48232 -4.75998 20
862 1 5.53432 8.49588 8.87342 21
863 1 5.48251 3.11095 -15.6119 20
864 1 5.41894 -7.54608 -18.4129 18
865 1 -4.93062 10.0465 1.54247 21
866 1 -0.609374 -5.33833 6.55481 21
867 1 7.14635 11.8875 -9.28483 21
868 1 3.59397 11.7304 12.6648 10
869 1 16.7024 -4.13602 -9.20406 20
870 1 9.82685 -5.52673 6.95754 21
871 1 3.3653 13.7668 -13.8178 17
872 1 5.41064 11.5719 -15.7863 14
873 1 -3.1719 -1.64137 6.64955 19