ITEM: TIMESTEP
212000
ITEM: NUMBER OF ATOMS
1000
ITEM: BOX BOUNDS pp pp pp
-30.0 30.0
-30.0 30.0
-30.0 30.0
ITEM: ATOMS id type x y z Coordination
1 1 -12.9278 -5.62089 -2.25801 13
2 1 -12.0378 -1.21816 -6.71572 13
3 1 -12.6811 -2.27244 -3.65714 16
4 1 -12.1976 -0.716726 -1.70048 16
5 1 -12.9499 2.19603 -0.547272 9
6 1 -12.9556 -3.33491 -0.212682 16
7 1 -7.7782 -8.54962 -4.16366 15
8 1 -3.75065 -8.83585 -9.51499 12
9 1 -4.74272 -9.07647 -2.62539 16
10 1 -1.15206 -8.7467 -11.9851 12
11 1 -6.88145 -6.45498 -5.67354 20
12 1 -12.7988 -5.34577 -5.34037 9
13 1 -9.91669 -6.39981 -4.00799 19
14 1 -5.14799 -9.49985 -6.38429 15
15 1 -6.73056 -6.35876 -2.39833 22
16 1 -9.57538 -5.76894 -0.551062 22
17 1 -9.84131 -5.74859 -7.44015 12
18 1 -3.3786 -6.37019 -11.5323 15
19 1 -7.75766 -0.562385 -11.4636 12
20 1 -7.09765 2.11811 -11.4713 13
21 1 -6.83831 -7.46076 -8.48678 13
22 1 -2.23193 1.67105 -13.804 13
23 1 -8.99968 -1.75034 -8.25825 18
24 1 -7.45949 -3.558 -7.42726 22
25 1 -10.1523 -3.47199 -5.65949 21
26 1 -6.28345 -1.53268 -5.63564 22
27 1 -9.21201 -0.889015 -4.1536 23
28 1 -7.50288 -3.81126 -4.01469 22
29 1 -10.0525 -3.12179 -2.37594 23
30 1 -6.25207 -1.11803 -2.58318 21
31 1 -9.169 -0.523045 -0.765758 24
32 1 -7.22293 -3.19333 -0.769538 23
33 1 1.93671 -6.47367 -12.9276 14
34 1 -0.456646 -5.88284 -13.5752 9
35 1 4.73166 -12.9953 -3.0264 12
36 1 2.61077 -10.5583 -2.32856 19
37 1 5.82015 -2.74326 -13.3122 7
38 1 -4.85346 -3.7418 -12.4336 11
39 1 -2.11679 -9.38206 -6.69322 14
40 1 -1.54474 -6.63997 -9.10269 23
41 1 -3.95991 -6.40441 -7.51588 23
42 1 0.785548 -8.82956 -1.99965 19
43 1 -2.33951 -8.89114 -4.11235 16
44 1 -0.859376 -6.66101 -6.21923 21
45 1 -3.9405 -6.51758 -4.29662 21
46 1 4.00547 -8.64337 -5.50082 21
47 1 0.425361 -12.2203 -2.99775 10
48 1 -1.19287 -6.79598 -2.18931 19
49 1 -3.80976 -6.5862 -0.732297 20
50 1 -2.0491 -9.81091 -0.931359 14
51 1 -2.97929 -1.98319 -10.8419 17
52 1 -4.05418 -3.68618 -9.1084 21
53 1 -0.441687 -1.48365 -12.8076 15
54 1 -5.9438 -1.69424 -9.00928 20
55 1 -7.61452 -4.13549 -10.1709 16
56 1 -0.175759 -1.33695 -9.33986 20
57 1 -3.24462 -1.4811 -7.31176 20
58 1 -1.36015 -3.95436 -7.61198 22
59 1 -4.57172 -4.06116 -5.86142 20
60 1 0.0530529 -1.42273 -5.77476 21
61 1 -3.48328 -0.930542 -4.29248 22
62 1 -1.51515 -4.08181 -4.50067 20
63 1 -4.47385 -3.8367 -2.45854 23
64 1 -0.575441 -1.31982 -2.72266 24
65 1 -3.57964 -1.29297 -1.04435 20
66 1 -1.72441 -3.75813 -1.27041 20
67 2 -10.9351 -6.68889 0.517219 18
68 2 -11.3615 -6.80711 -2.52273 16
69 2 -12.7646 -0.561442 -4.16438 13
70 2 -13.1067 -4.17713 -3.68619 14
71 2 -11.9523 -2.7239 -5.54787 14
72 2 -12.2337 -2.68767 -1.77476 18
73 2 -6.77183 -9.30626 -5.6023 12
74 2 -4.9326 -5.99457 -12.6997 8
75 2 6.20129 -3.84356 -11.8896 10
76 2 -8.44629 -6.85125 -7.47714 15
77 2 -8.11223 -6.28904 -4.07159 20
78 2 -9.35392 -3.63494 -3.92518 20
79 2 -0.0555924 -11.7709 -1.14037 13
80 2 -9.75688 -8.38388 -3.79314 13
81 2 -7.85654 -6.90407 -0.626133 24
82 2 -7.87878 -1.90462 -10.1268 14
83 2 -3.36749 -4.19633 -10.9908 18
84 2 -6.6919 4.00589 -11.4092 14
85 2 -2.41721 -7.86901 -10.4866 17
86 2 -7.12836 -6.27113 -9.91831 12
87 2 -6.10001 -3.70581 -8.49818 23
88 2 -8.83349 1.02809 -4.41688 23
89 2 -6.5118 -4.34248 -5.47839 21
90 2 -9.3276 -3.86411 -7.62176 16
91 2 -7.3854 -1.6762 -4.11797 23
92 2 -9.94836 -1.18386 -2.42933 21
93 2 -6.48769 -4.30499 -2.1946 21
94 2 -9.12507 -3.85656 -0.611934 20
95 2 -7.19922 -1.05647 -0.873176 20
96 2 -4.13743 -9.03071 -4.65581 17
97 2 4.02581 -7.92601 -7.35036 20
98 2 -6.63043 -9.28348 -2.50433 15
99 2 -2.58399 -9.72991 -8.62702 12
100 2 -0.0531077 -9.25552 -6.81748 16
101 2 -10.8686 -5.51468 -5.70898 12
102 2 0.241773 -9.1875 -10.5325 12
103 2 2.93985 -10.0865 -6.26182 14
104 2 -2.08249 -7.47745 -7.49332 22
105 2 -4.98877 -6.12665 -5.88297 21
106 2 1.03853 -7.39519 -8.80099 17
107 2 1.12187 -10.3028 -3.49403 16
108 2 -1.96009 -7.00339 -4.54219 19
109 2 -4.75759 -6.77344 -2.61953 22
110 2 -1.27565 -8.98965 -2.55704 17
111 2 -4.09108 -9.58745 -0.783353 17
112 2 -1.95022 -6.85001 -0.44382 20
113 2 1.58938 -1.94513 -12.731 12
114 2 -6.45255 -4.15003 -11.6009 13
115 2 -4.89834 -8.07668 -8.20211 16
116 2 -1.73525 -5.62127 -12.3174 14
117 2 -0.800382 0.525704 -13.0319 16
118 2 -3.9644 -1.62966 -9.1444 18
119 2 -0.607038 -5.05037 -9.2897 21
120 2 -3.05528 -4.71322 -7.6514 21
121 2 -1.21872 -1.85799 -7.59363 21
122 2 -4.50112 -1.95553 -5.97994 25
123 2 -0.347169 -4.54434 -5.97391 22
124 2 -3.50592 -4.38314 -4.17541 20
125 2 -1.44928 -1.93074 -4.47343 20
126 2 -4.38758 -1.7851 -2.74523 23
127 2 -0.600577 -4.39871 -2.56239 20
128 2 -3.47987 -4.23541 -0.639774 22
129 2 -1.71323 -1.59674 -1.25279 20
130 1 -10.8838 -8.83688 -2.2763 11
131 1 -12.6302 -6.11869 4.56709 14
132 1 -12.1726 -1.05292 1.80094 16
133 1 -12.9083 -3.5873 2.9827 15
134 1 -12.6993 -6.27255 1.14731 13
135 1 -11.9806 -1.11809 5.17938 16
136 1 -12.443 -3.63063 6.70599 15
137 1 -11.5952 0.0399141 7.77341 13
138 1 -7.90398 -9.12038 -0.767399 16
139 1 -7.4848 -10.2707 5.71863 12
140 1 -10.4719 -8.93618 0.693171 13
141 1 -6.47294 -7.30141 0.810055 20
142 1 -9.90029 -8.26375 4.43615 16
143 1 -9.93425 -6.28047 2.66477 21
144 1 -10.5084 -9.52464 7.54504 9
145 1 -7.0374 -6.91798 4.64233 24
146 1 -9.6601 -5.78936 6.51494 23
147 1 -12.1454 -6.18991 7.9237 10
148 1 -6.68521 -6.30254 7.43143 18
149 1 -9.48079 -7.49858 9.22755 13
150 1 -7.28758 -10.3197 8.87897 11
151 1 -6.10676 -7.28262 9.96493 16
152 1 -9.80464 -3.34997 1.17811 19
153 1 -6.06595 -1.32576 1.01496 20
154 1 -9.24274 -0.523652 2.65922 21
155 1 -7.04618 -4.28605 2.48468 21
156 1 -10.2656 -3.57566 4.17685 22
157 1 -6.03008 -1.21536 4.43947 19
158 1 -9.06898 -0.476324 5.88006 23
159 1 -7.19 -3.33546 5.9637 21
160 1 -9.96575 -3.10206 7.78222 19
161 1 -6.02214 -0.349923 7.60105 20
162 1 -8.87667 -1.08219 9.42286 13
163 1 -7.57606 -4.34665 9.25432 19
164 1 -4.30529 -3.8723 10.9174 18
165 1 -6.03712 -1.45538 10.5129 16
166 1 -0.313262 -9.11722 -8.75778 15
167 1 -7.86441 -9.06182 2.40992 16
168 1 0.434961 -11.7513 0.765171 11
169 1 -1.50457 -10.0084 8.91874 17
170 1 9.26702 -9.52002 4.19546 12
171 1 -4.71744 -9.43672 0.994819 15
172 1 -0.580859 -6.18064 0.845326 22
173 1 -3.871 -6.32985 2.56634 23
174 1 -1.99816 -8.94679 2.30446 18
175 1 -4.90593 -8.6972 4.16094 20
176 1 -0.615774 -6.61313 3.99472 20
177 1 -3.76553 -6.73867 6.08054 20
178 1 -1.79516 -9.1035 5.72279 16
179 1 -4.50884 -10.3843 7.31457 12
180 1 -0.397179 -7.10588 7.50071 19
181 1 -3.49249 -6.62986 9.18013 22
182 1 -0.657411 -7.03049 10.8232 21
183 1 1.75176 -9.31884 10.4862 16
184 1 -4.4683 -9.84378 10.5399 13
185 1 -4.18848 -3.50537 1.10879 21
186 1 -0.428923 -1.49953 0.363914 21
187 1 -3.41503 -0.854776 2.78157 20
188 1 -1.70446 -3.47551 2.3537 20
189 1 -4.62987 -4.37968 4.35333 19
190 1 -0.0691695 -0.991576 3.94154 20
191 1 -3.43425 -1.61879 6.06933 20
192 1 -1.72135 -4.75549 5.69501 21
193 1 -4.48597 -3.70347 7.7505 21
194 1 -0.33606 -1.84475 6.70642 20
195 1 -2.88578 -1.03809 8.63861 24
196 1 -1.45263 -3.88865 9.08019 20
197 1 0.601241 -9.63756 13.8014 9
198 1 -0.00406748 -1.29589 10.4119 19
199 1 2.10167 -6.96901 12.5689 16
200 1 -2.26766 -9.66186 12.3409 12
201 1 3.03361 -0.438023 12.5585 13
202 2 -10.8388 -6.84799 4.3163 18
203 2 -13.2761 -5.24023 -0.231129 11
204 2 -11.8188 -3.02477 1.5506 19
205 2 -12.6294 -5.652 2.86154 13
206 2 -12.1176 -3.684 4.74973 19
207 2 -10.6841 -7.57095 7.61843 13
208 2 -9.60698 -8.52274 2.45206 15
209 2 -9.97063 -9.35077 -0.857824 12
210 2 -9.44406 -9.80981 5.6933 13
211 2 -6.93315 -6.40706 2.74582 19
212 2 -11.1947 -4.57624 7.74452 16
213 2 -6.90728 -9.3781 4.03935 16
214 2 -8.87198 -9.34472 8.6613 12
215 2 -8.13293 -6.50718 6.18771 21
216 2 -13.0056 -6.54088 6.19481 10
217 2 -6.30429 -10.5312 7.36296 11
218 2 -3.26479 -4.32613 9.08061 19
219 2 -9.69374 -1.28613 0.96964 23
220 2 -6.32717 -3.236 0.863761 19
221 2 -9.12621 -4.51808 2.56781 20
222 2 -6.95228 -0.758597 2.48459 18
223 2 -10.3548 -1.55361 4.14394 22
224 2 -6.13257 -3.27099 4.12042 20
225 2 -9.29458 -3.67665 5.96001 20
226 2 -7.27523 -1.00623 6.17058 19
227 2 -9.73318 -0.974321 7.5113 19
228 2 -6.3443 -4.53662 7.16968 22
229 2 -7.88537 -6.36645 9.32763 14
230 2 -8.9193 -3.095 9.31858 13
231 2 -7.13129 -0.165067 9.38583 14
232 2 -6.09483 -3.39553 10.4116 15
233 2 -4.51227 -0.384917 11.2672 15
234 2 -6.78635 -9.24286 1.02828 15
235 2 2.00545 -12.9902 0.169791 11
236 2 -3.44368 -9.44049 5.77495 15
237 2 -0.524838 -9.11975 7.42772 17
238 2 -4.74776 -6.55476 0.959059 21
239 2 -0.685222 -9.30851 0.130741 17
240 2 -3.83977 -9.0978 2.65781 14
241 2 -1.81935 -6.93419 2.38514 22
242 2 -5.13656 -6.73345 4.61779 19
243 2 -1.03839 -9.05606 4.00676 16
244 2 -3.36207 -10.4076 9.07473 13
245 2 -1.66789 -6.9118 5.78894 20
246 2 -4.83961 -6.75694 7.71569 19
247 2 -1.12426 -9.2632 10.9158 18
248 2 -6.28733 -9.18905 9.94385 14
249 2 -1.3483 -6.30249 9.11741 21
250 2 -4.62731 -6.03303 10.6835 18
251 2 1.9721 -9.8202 12.4794 11
252 2 -4.11922 -1.37454 0.935821 21
253 2 -0.320544 -4.05685 1.05082 22
254 2 -3.65274 -4.11789 2.90104 19
255 2 -1.29876 -1.57451 2.45423 20
256 2 -4.2158 -1.21028 4.2646 20
257 2 -0.719643 -4.60709 3.70783 22
258 2 -3.35406 -3.92319 6.30423 22
259 2 -1.68809 -0.838848 5.79546 21
260 2 -4.49713 -1.55724 7.81765 21
261 2 -0.715786 -4.08391 7.12883 20
262 2 -0.731108 -1.08446 8.71995 20
263 2 -3.14269 0.924998 8.98612 20
264 2 0.49299 -7.54428 13.4202 13
265 2 -0.491467 -3.41973 10.697 19
266 2 -5.45349 2.48332 10.4427 14
267 2 -3.80392 -8.7896 11.8965 13
268 2 -1.32023 -9.03352 13.7787 10
269 2 3.60747 -2.19215 12.0874 12
270 1 -9.88844 0.664802 -9.08964 14
271 1 -11.7879 2.65671 -6.9979 13
272 1 -9.77443 0.888155 -6.15847 20
273 1 -9.86456 6.81068 -3.05407 17
274 1 -11.2028 4.17333 -3.74569 15
275 1 -6.90772 7.26632 -4.36926 21
276 1 -2.48983 4.67898 -14.0003 17
277 1 -5.6852 3.65933 -12.9151 14
278 1 -6.84785 6.0791 -11.1306 9
279 1 -5.82138 3.90413 -9.2095 21
280 1 -8.80901 3.51536 -7.99858 16
281 1 -7.16897 1.63853 -7.81164 21
282 1 -13.0123 1.16705 -4.68675 12
283 1 -5.7511 4.54553 -6.03265 23
284 1 -8.60533 4.18806 -4.5555 22
285 1 -6.9695 1.98337 -4.49082 19
286 1 -9.9193 1.87744 -2.6822 20
287 1 -5.58177 4.31591 -2.5758 22
288 1 -8.65508 4.43144 -1.09139 22
289 1 -6.99585 1.47485 -0.946726 20
290 1 -4.77368 6.44818 -14.6112 7
291 1 -10.8026 6.10248 -6.22469 14
292 1 -7.50229 6.01879 -7.53455 18
293 1 -9.08723 9.29071 -7.35588 9
294 1 -6.3824 11.6342 -1.51068 11
295 1 -10.7236 9.30906 -5.36167 9
296 1 -3.52326 11.7966 -3.51576 10
297 1 -8.97404 9.41859 -2.19077 17
298 1 -6.90752 6.4055 -1.23508 22
299 1 -5.32692 9.18109 -3.34751 19
300 1 0.143274 3.4192 -15.0298 9
301 1 -6.52278 -5.95782 -11.6878 9
302 1 0.267563 7.81276 -10.9898 12
303 1 -4.47531 0.239053 -11.9864 17
304 1 -1.46989 1.13239 -11.136 19
305 1 -3.89262 0.942132 -9.33732 22
306 1 -0.115293 2.84332 -9.3652 16
307 1 -2.79158 4.0085 -8.02828 21
308 1 -1.29591 1.08036 -7.19215 20
309 1 -4.26859 1.81744 -5.68424 25
310 1 -0.148695 3.80224 -6.15342 22
311 1 -2.87916 4.17268 -4.32721 24
312 1 -0.833442 1.40182 -4.20006 24
313 1 -4.12719 1.7066 -2.84373 23
314 1 -0.180286 3.7781 -2.93268 23
315 1 -2.89053 4.11961 -1.20071 22
316 1 -1.20983 1.15241 -0.988997 20
317 1 -3.92042 6.79811 -6.2543 22
318 1 -3.23029 3.34771 -11.2043 18
319 1 -3.05454 7.36154 -11.8519 15
320 1 -3.53223 6.18557 -9.7253 19
321 1 -0.719044 6.67797 -8.18077 23
322 1 -5.65532 9.05508 -7.00543 13
323 1 5.54195 10.1305 -8.2787 9
324 1 -2.52361 9.04144 -5.00617 18
325 1 -0.923152 6.59613 -4.72884 22
326 1 -3.79814 6.72471 -3.11622 19
327 1 0.27509 9.14197 -3.14003 23
328 1 -2.46958 9.5668 -1.77479 21
329 1 -0.669739 6.61994 -1.26264 21
330 1 -7.57775 11.1998 -5.14899 11
331 1 0.434419 9.30255 -6.57073 19
332 1 -9.42262 12.0173 0.362504 6
333 1 -0.4201 11.4956 -4.89747 13
334 2 -10.0576 -0.681134 -7.1816 17
335 2 -10.4992 3.76642 -5.78465 16
336 2 -11.9098 1.31706 -2.27435 17
337 2 -11.9533 3.55876 0.537503 13
338 2 -10.1527 7.91189 -6.69306 10
339 2 -9.45641 1.94804 -7.9136 14
340 2 -10.3264 8.87416 -3.34431 10
341 2 -6.21106 0.781295 -12.0781 14
342 2 -8.82916 0.892846 -10.5822 12
343 2 -1.68163 3.02915 -14.9441 10
344 2 -4.44519 4.66241 -14.0152 12
345 2 -5.89009 0.282671 -8.70268 22
346 2 -7.42409 -1.69766 -7.09363 21
347 2 -6.2338 5.68227 -9.49077 14
348 2 -12.6121 2.88655 -5.08227 11
349 2 -6.11541 1.56535 -6.04879 22
350 2 -9.34074 3.65873 -2.70589 21
351 2 -6.7035 3.99189 -4.47693 21
352 2 -11.366 5.44203 -2.33918 17
353 2 -5.88939 1.08048 -2.72557 22
354 2 -9.1258 1.47354 -0.747275 21
355 2 -6.66793 4.08971 -1.0115 21
356 2 -9.37062 5.28537 -7.70551 12
357 2 -6.87423 4.05674 -7.62949 17
358 2 -6.56459 9.27092 -5.01253 16
359 2 -5.94914 6.69737 -6.6565 19
360 2 -9.04788 10.1308 -5.51561 10
361 2 -5.15603 11.4998 0.294354 14
362 2 -5.49086 11.2541 -3.09189 13
363 2 -5.77433 6.43713 -3.04551 21
364 2 -8.66883 6.19648 -4.43844 22
365 2 -6.50231 9.5216 -1.83855 18
366 2 -3.44767 8.59201 -3.27227 23
367 2 -11.8666 0.740282 -6.37946 13
368 2 2.43368 1.30647 -11.3345 17
369 2 -4.39385 -1.66008 -12.3026 14
370 2 -1.04452 3.10648 -11.0687 24
371 2 -4.25073 2.81549 -9.3659 24
372 2 -0.215792 0.713412 -9.5148 20
373 2 -2.98945 0.546694 -7.39 21
374 2 -1.12184 3.15366 -7.54447 23
375 2 -3.83807 4.00268 -6.22188 20
376 2 0.0170645 0.596213 -5.74355 21
377 2 -2.98226 1.09784 -4.25378 20
378 2 -1.16535 3.34886 -4.41909 21
379 2 -3.75985 3.75515 -2.80984 21
380 2 -0.0716772 0.67046 -2.31492 21
381 2 -3.16839 0.877234 -1.29128 24
382 2 -1.04637 3.31845 -1.12167 25
383 2 -3.00858 5.32213 -11.4205 24
384 2 -3.83968 2.19693 -12.6003 18
385 2 -1.22102 7.79712 -12.3882 12
386 2 -5.6788 6.56188 -12.8967 11
387 2 0.0503421 5.88758 -9.85642 23
388 2 -7.30335 9.48355 -7.82622 9
389 2 -1.08809 8.50284 -7.49345 18
390 2 -3.7055 8.63577 -6.6664 18
391 2 0.390546 5.70409 -6.01283 22
392 2 -2.76004 6.13097 -4.73848 22
393 2 -0.33809 8.38696 -4.82368 23
394 2 -0.417893 8.76778 -1.39008 21
395 2 -0.0943493 5.71436 -2.80111 22
396 2 -2.78308 6.01659 -0.938995 24
397 2 -3.27905 9.53687 0.32404 19
398 2 -2.59949 7.9021 -9.85342 13
399 2 -2.42151 11.0916 -5.0584 16
400 2 1.09104 11.0608 -5.72424 14
401 2 0.493104 11.1389 -3.02141 18
402 1 -12.079 4.10334 2.31979 15
403 1 -12.2531 1.4426 4.40397 15
404 1 -11.0156 6.59391 7.25843 10
405 1 -12.151 4.85424 4.82586 13
406 1 -12.4305 3.06926 7.54925 9
407 1 -9.45557 6.98214 0.532198 18
408 1 -9.93452 2.38549 0.895157 20
409 1 -5.60924 3.87757 0.480804 21
410 1 -8.77459 4.9177 2.59753 20
411 1 -7.07838 1.36823 2.43745 20
412 1 -9.4571 2.4251 4.22907 20
413 1 -5.73205 4.33456 3.8444 20
414 1 -8.37006 5.5034 5.8129 20
415 1 -6.96766 2.51716 6.01581 19
416 1 -9.43783 2.63797 7.3832 17
417 1 -4.97982 5.45373 6.92104 17
418 1 -8.27674 5.1592 9.19366 10
419 1 -5.23836 4.40972 10.3856 15
420 1 -2.89809 -1.04639 12.1619 13
421 1 -7.20746 1.90101 9.65633 16
422 1 -6.16589 7.40238 8.76918 15
423 1 -11.7157 5.1551 -0.485737 15
424 1 -5.3467 9.5251 -0.0861292 18
425 1 -12.7304 7.26976 1.66097 9
426 1 -6.47971 6.83685 1.63146 19
427 1 -8.16611 9.53525 1.74562 16
428 1 -11.2353 10.1029 2.50579 10
429 1 -5.31807 9.82132 2.9129 18
430 1 -6.56549 8.66173 5.76205 17
431 1 -12.1545 9.018 4.9669 8
432 1 -8.55166 10.9868 4.4848 13
433 1 -9.54151 7.62816 4.06156 20
434 1 -4.13891 1.56029 0.64557 21
435 1 0.00435878 3.81126 0.631767 23
436 1 -2.90383 4.10923 2.39516 20
437 1 -1.10244 1.44807 2.08108 22
438 1 -3.7046 1.70517 4.40732 21
439 1 0.01345 4.18639 4.12183 21
440 1 -2.62755 4.14865 5.92155 20
441 1 -1.02615 1.07796 5.87689 22
442 1 -4.05936 2.20201 7.5059 21
443 1 0.256981 3.65157 7.56773 22
444 1 -3.99563 1.63206 11.0391 17
445 1 -1.27949 1.14478 9.21244 19
446 1 -1.01213 1.85201 12.6277 12
447 1 -0.110661 4.33129 10.6176 19
448 1 -2.07941 9.28305 9.83981 13
449 1 -1.72603 -4.15902 12.3456 14
450 1 -3.5672 -6.80526 12.1825 16
451 1 -2.74054 4.59687 12.1658 14
452 1 -3.45392 6.95042 0.507215 21
453 1 0.191989 9.6744 0.178939 23
454 1 -2.53586 10.1118 1.96233 19
455 1 -0.466403 7.23883 2.0355 21
456 1 -3.39432 7.06921 3.56237 19
457 1 3.83871 10.3712 4.57277 17
458 1 0.282642 9.17175 3.92723 19
459 1 -0.990787 6.51415 5.44021 21
460 1 -3.31065 7.83428 6.93548 21
461 1 -6.74871 10.6799 7.93445 12
462 1 -3.93641 7.24146 11.1601 13
463 1 -2.72924 4.99487 8.86568 21
464 1 -0.562673 6.87211 11.602 15
465 1 -0.619831 6.65704 8.38874 19
466 1 -2.8278 10.3586 4.69028 18
467 1 -4.12142 12.4558 1.3361 10
468 1 -0.290618 11.8096 -1.70521 14
469 1 -5.07156 12.1079 5.08471 13
470 1 -0.311191 12.8407 1.8237 13
471 1 -5.49829 10.5163 10.2758 8
472 2 -12.7615 -0.373583 0.128338 11
473 2 -12.6882 -1.61926 7.10028 10
474 2 -11.6416 3.10518 3.9206 16
475 2 -12.2796 0.0446618 3.42575 14
476 2 -12.2265 1.49806 6.2579 15
477 2 -10.9333 2.00696 8.23164 11
478 2 -8.77018 6.8015 -1.29993 19
479 2 -11.1167 7.39046 5.65513 12
480 2 -9.48906 4.28552 0.966961 20
481 2 -6.11365 1.82827 0.686468 18
482 2 -9.04472 1.68222 2.54657 20
483 2 -6.24556 5.22211 2.38867 22
484 2 -9.04489 4.50938 4.43509 21
485 2 -6.32387 2.3162 3.79477 19
486 2 -8.73667 1.47756 5.93048 21
487 2 -6.63096 4.52154 6.2984 20
488 2 -8.33845 6.80476 2.14971 17
489 2 -5.62727 1.32534 6.42589 19
490 2 -11.5132 4.79809 6.64814 13
491 2 -9.09611 6.15026 7.74785 13
492 2 -1.05663 5.16828 12.2282 13
493 2 -6.55058 5.63918 9.69799 16
494 2 -11.403 6.68579 0.553228 15
495 2 -5.50053 6.75511 0.112008 20
496 2 -7.27985 10.1375 3.26561 16
497 2 -6.50694 8.81923 1.42826 17
498 2 -12.4998 8.84414 2.96412 9
499 2 -5.33546 7.44829 6.93014 17
500 2 -8.19454 3.2321 8.98877 13
501 2 -9.57184 10.5784 1.3746 12
502 2 -2.85952 6.75877 5.58634 19
503 2 -6.77257 9.49476 9.40643 9
504 2 -7.7236 7.38217 5.22674 20
505 2 -13.0387 5.6599 3.14158 11
506 2 -8.86925 11.0415 -1.23512 8
507 2 -6.90947 10.5656 5.67315 13
508 2 -3.80147 3.46524 0.584159 23
509 2 -0.177318 0.57838 0.717735 22
510 2 -3.19089 1.27709 2.55892 19
511 2 -1.00531 3.43949 2.42929 21
512 2 -3.81812 4.60722 4.32933 20
513 2 -0.200015 0.917025 4.13345 22
514 2 -2.69919 2.30928 5.70131 18
515 2 -0.661387 4.56392 5.81516 21
516 2 -3.43049 5.10406 10.6783 17
517 2 -0.357486 1.85514 7.60251 21
518 2 -0.882964 4.77973 8.67073 20
519 2 -0.145005 2.27401 10.4662 18
520 2 -5.07552 8.74046 10.5886 12
521 2 -2.75131 2.6658 12.0444 15
522 2 4.19396 -8.08273 12.2899 13
523 2 -3.08123 -2.87972 12.1028 15
524 2 -1.37203 -0.0192163 12.0643 15
525 2 -4.77066 11.6648 3.45228 13
526 2 0.532817 6.16987 0.321452 21
527 2 -2.50296 6.09499 2.1974 21
528 2 0.375034 12.1626 0.01123 14
529 2 -3.44253 8.99208 3.4155 18
530 2 0.404695 7.11596 3.92976 19
531 2 -0.949506 10.2056 5.11913 18
532 2 -0.650484 9.21792 2.06436 20
533 2 -10.0885 9.61115 4.49047 12
534 2 0.0951853 7.40709 6.99742 21
535 2 -3.87267 4.20539 7.65242 19
536 2 -3.88732 10.9697 6.03151 15
537 2 3.17112 8.2316 8.05696 16
538 2 -2.07322 7.9576 11.3678 12
539 2 -2.31903 12.236 1.30088 13
540 2 -2.08836 11.3224 -2.52767 16
541 2 0.207882 12.4 3.55445 13
542 2 0.575997 7.68773 10.3682 15
543 2 -2.08657 7.75717 8.63984 18
544 1 7.00763 -5.78156 -11.6044 11
545 1 7.43957 -12.3935 -4.59537 11
546 1 4.47498 -11.604 -5.98454 15
547 1 4.43825 -1.76691 -9.62445 18
548 1 1.33976 -9.74806 -5.46443 17
549 1 3.39815 -9.80713 -8.26614 16
550 1 2.20906 -6.9007 -7.35369 20
551 1 4.62237 -8.23927 -11.4985 11
552 1 2.74338 -13.9892 -1.23864 9
553 1 6.48765 -9.60204 -3.39018 21
554 1 2.25899 -6.64102 -3.97186 21
555 1 6.08179 -6.65218 -5.35008 20
556 1 1.51977 -8.77297 -11.8175 10
557 1 5.11139 -6.8389 -2.47193 20
558 1 2.63057 -6.82443 -0.474891 18
559 1 4.24366 -9.34494 -0.449124 17
560 1 -1.47855 -4.30216 -10.8994 19
561 1 9.38237 3.59628 -7.48177 18
562 1 1.45078 -2.88396 -11.0736 15
563 1 2.28058 -3.40317 -13.8568 10
564 1 1.42911 -5.29801 -9.2166 17
565 1 8.74536 -2.08607 -7.88672 15
566 1 2.34117 -1.85476 -7.60174 21
567 1 4.27053 -4.47176 -7.90487 20
568 1 1.74742 -4.072 -5.85392 20
569 1 5.38179 -1.39426 -6.40451 22
570 1 2.80075 -1.31728 -3.90678 23
571 1 4.31673 -3.93353 -3.79701 22
572 1 1.31291 -4.55437 -2.5604 20
573 1 5.53155 -1.27203 -2.66233 20
574 1 2.73883 -1.50828 -1.13599 23
575 1 4.57721 -4.35634 -0.726875 21
576 1 7.15776 -3.55144 -10.0562 18
577 1 10.6845 -7.63434 -6.83823 10
578 1 7.90723 -7.09817 -8.00459 16
579 1 10.4864 -3.86 -6.13424 14
580 1 8.00241 -12.2762 -1.05694 11
581 1 12.5069 -6.93347 -0.353689 13
582 1 7.8654 -10.268 1.12523 14
583 1 10.0357 -9.23573 -1.20509 14
584 1 10.5473 -0.554133 -4.63437 15
585 1 6.98179 0.0427813 -9.72649 15
586 1 8.09436 1.00191 -6.86747 21
587 1 5.06689 -7.17464 -8.85395 19
588 1 9.91307 -5.28636 -9.17699 11
589 1 13.044 -1.93345 -2.41936 12
590 1 9.75449 -2.48711 -3.16822 16
591 1 9.31208 -10.6264 -3.52443 11
592 1 7.58528 -4.35779 -6.64991 19
593 1 10.0877 0.96517 -1.30236 21
594 1 7.61324 -1.45851 -0.833106 19
595 1 7.02962 -4.48783 -2.91978 20
596 1 13.024 -7.09766 -4.14666 7
597 1 13.1382 -5.55889 1.76417 10
598 2 2.48337 -12.6038 -2.85674 11
599 2 5.39889 -12.5449 -4.63385 12
600 2 4.7331 -10.4516 -2.58961 20
601 2 4.31554 -9.29885 -10.045 11
602 2 -2.74524 -0.00908255 -11.1157 19
603 2 0.116146 -7.59751 -13.0067 10
604 2 3.1218 -7.91745 -12.5562 10
605 2 4.04283 -3.02007 -13.7886 8
606 2 1.25118 -7.26166 -5.53445 19
607 2 5.25598 -6.44713 -10.9689 15
608 2 6.0154 -8.82935 -5.36552 22
609 2 4.15989 -7.19836 -4.13932 20
610 2 1.04959 -6.88143 -2.29012 21
611 2 10.0454 -6.60162 -8.06133 10
612 2 4.49701 -13.1351 -1.09061 13
613 2 4.60897 -7.55183 -0.700719 19
614 2 1.0536 -4.87747 -13.4082 13
615 2 -0.637831 -2.44635 -10.953 20
616 2 5.72519 5.41199 -9.62874 17
617 2 1.82172 -1.79047 -9.50861 18
618 2 5.14587 -3.52579 -9.63237 21
619 2 2.34894 -5.01647 -7.42119 21
620 2 4.08043 -2.57036 -7.702 18
621 2 1.93812 -2.07288 -5.49211 20
622 2 5.7367 -5.81372 -7.38418 21
623 2 2.59419 -4.41192 -4.1438 18
624 2 4.65772 -1.91947 -4.19207 19
625 2 1.32596 -1.82368 -2.71191 22
626 2 5.30594 -4.88419 -2.46086 21
627 2 2.52192 -4.58399 -0.966951 21
628 2 4.50049 -2.22444 -1.04168 21
629 2 2.29898 -4.69829 -10.8811 19
630 2 8.87434 -7.70613 -6.24753 15
631 2 8.01669 -12.4374 -2.77629 11
632 2 6.69768 -8.82846 -8.14697 16
633 2 6.81202 -7.96873 -2.20168 18
634 2 10.9096 -7.98374 -0.178604 14
635 2 13.0662 2.45655 -1.76349 12
636 2 9.16025 -3.82284 -7.79603 14
637 2 5.53555 2.63465 -10.5958 12
638 2 11.5968 -2.08988 -0.917102 15
639 2 8.93759 -0.284726 -8.06158 15
640 2 8.26302 -5.45163 -10.3518 13
641 2 9.23088 -10.8518 -0.77462 12
642 2 7.30125 -5.38239 -4.72416 18
643 2 10.1493 -2.43911 -5.17204 13
644 2 7.67827 -2.5886 -2.317 20
645 2 11.4593 -7.15149 -5.16831 8
646 2 7.85392 -5.45387 -0.553296 19
647 2 10.1159 -0.0646689 -2.91079 18
648 2 7.65732 -1.74618 -9.62673 16
649 2 13.9701 -0.341294 -1.5451 10
650 2 14.0175 -5.73316 0.152767 9
651 1 5.05272 -12.2885 0.44073 12
652 1 6.11685 -10.3686 -8.90349 11
653 1 3.16921 -10.9648 2.67086 13
654 1 3.81329 -9.96251 8.61089 12
655 1 0.88818 -8.8367 1.08354 22
656 1 5.16615 -9.04245 2.2223 17
657 1 2.43577 -6.53488 2.74779 19
658 1 7.57713 -9.40507 -6.29359 16
659 1 0.965899 -9.1104 4.20841 19
660 1 5.65785 -6.60464 4.52855 22
661 1 2.42419 -6.48259 5.74678 19
662 1 6.86406 -8.92062 6.36794 17
663 1 1.08305 -10.1362 7.17873 12
664 1 5.02266 -6.82247 7.54759 21
665 1 2.22201 -6.10804 9.23386 19
666 1 11.2021 -6.00346 7.62658 11
667 1 6.27784 -9.20682 9.47331 13
668 1 -0.987523 -6.99346 14.2506 9
669 1 1.71183 -4.01556 0.997271 22
670 1 4.81436 -1.7306 0.808264 21
671 1 2.34192 -1.42568 2.3213 23
672 1 4.64768 -3.79604 2.97687 20
673 1 1.4423 -3.76624 4.12783 23
674 1 5.62737 -1.15294 3.93394 24
675 1 2.61123 -0.979847 5.60325 20
676 1 4.57381 -3.72694 5.90808 22
677 1 1.53227 -4.04734 7.35635 22
678 1 5.36343 -1.02872 7.3842 25
679 1 2.63906 -1.47131 9.23778 21
680 1 4.33613 -3.86498 9.27165 21
681 1 1.3541 -3.55931 11.1282 16
682 1 7.30203 -4.29417 11.0827 13
683 1 5.69016 -1.22043 10.7446 17
684 1 4.06761 -3.90865 12.1864 13
685 1 4.76605 -6.64581 11.1968 16
686 1 9.8499 -7.19735 -4.21275 17
687 1 6.91737 -7.03106 -0.499643 20
688 1 7.82928 -6.98762 2.52446 20
689 1 9.91992 -8.25232 1.5542 16
690 1 3.92913 -9.40641 5.56933 17
691 1 11.2588 -7.04071 4.10137 12
692 1 8.77358 -6.60145 5.6655 21
693 1 4.16107 -10.0371 12.4642 9
694 1 7.4891 -4.33293 0.759478 21
695 1 10.3083 -1.90667 0.638292 18
696 1 8.6526 -1.51428 2.64661 21
697 1 10.1152 -4.4171 2.1012 18
698 1 7.6422 -4.13758 4.05255 21
699 1 11.4983 -1.47466 3.94215 15
700 1 8.4921 -1.18562 5.90755 22
701 1 8.30596 -6.73776 9.41151 15
702 1 7.25595 -3.81249 7.53045 23
703 1 10.3677 -3.93077 5.96118 20
704 1 9.13628 3.96478 8.94658 19
705 1 11.6549 -0.850598 7.02446 13
706 1 9.38404 -9.09266 7.5416 10
707 1 9.87429 -5.60961 -0.994826 21
708 1 14.8762 -5.29725 -1.42109 8
709 1 10.3229 -3.59282 9.33231 12
710 2 1.13622 -10.203 2.50348 15
711 2 2.20303 -8.94379 -0.60341 17
712 2 5.0655 -11.3536 -7.73631 11
713 2 8.48286 -9.55442 5.88554 11
714 2 1.32543 -6.83965 1.13272 20
715 2 10.1379 -8.83803 -3.2265 14
716 2 4.29126 -10.5782 1.18539 16
717 2 4.12331 -9.68369 3.64598 13
718 2 1.38103 -7.21302 4.0441 21
719 2 8.81844 -9.76734 2.45997 13
720 2 2.21432 -9.94228 5.85088 14
721 2 4.07558 -7.22066 5.5346 20
722 2 1.50157 -6.2269 7.51179 17
723 2 4.80815 -10.3072 10.3298 11
724 2 2.09201 -10.0021 8.77003 13
725 2 4.12703 -6.34085 9.21127 20
726 2 -1.66695 -6.24591 12.371 17
727 2 1.56142 -1.75355 0.52782 20
728 2 5.54916 -4.21454 1.42552 19
729 2 2.63664 -4.45456 2.47899 20
730 2 4.19124 -1.7941 2.69225 20
731 2 1.75151 -1.8738 4.21093 23
732 2 5.69991 -4.26616 4.54626 18
733 2 2.66366 -4.35184 5.75112 23
734 2 4.31516 -1.47607 5.78149 21
735 2 1.61609 -1.7407 7.12314 20
736 2 5.29656 -4.12587 7.69784 21
737 2 2.07809 -3.7356 9.21984 23
738 2 8.59667 -4.54675 9.33651 16
739 2 1.77334 -0.114649 10.6357 18
740 2 7.39003 -1.76104 7.39848 22
741 2 1.12098 -7.38524 10.3698 20
742 2 2.51661 -5.02959 12.1564 15
743 2 1.8216 4.13487 10.645 16
744 2 13.316 -6.7378 -2.29288 12
745 2 7.02364 -12.0191 0.494997 10
746 2 6.92565 -7.00822 6.14809 21
747 2 9.39226 -7.1736 7.64323 16
748 2 6.20977 -7.87259 3.13466 19
749 2 5.04003 -8.74496 7.62641 16
750 2 9.41767 -7.43202 3.87465 19
751 2 6.63709 -7.21545 10.2242 13
752 2 7.90378 -9.14202 8.62581 12
753 2 8.21138 -2.28518 0.722631 20
754 2 12.7553 1.5727 1.31721 15
755 2 8.2983 -4.98497 2.47296 24
756 2 10.4515 -2.55587 2.49561 16
757 2 7.60296 -1.97362 4.24102 23
758 2 11.5639 -6.57828 2.28916 13
759 2 8.48011 -4.67924 5.7699 19
760 2 10.6706 -1.82555 5.60488 15
761 2 5.5448 1.11334 7.41078 19
762 2 11.0404 -4.1639 7.76905 12
763 2 11.6442 -6.28301 5.69822 9
764 2 10.3015 -4.33649 -2.5434 15
765 2 5.47264 -4.56386 11.0176 16
766 2 8.23141 -8.14473 0.495797 17
767 2 10.999 -4.4692 0.36916 17
768 2 13.9715 -3.66501 -1.5012 11
769 1 1.34006 1.26482 -12.8545 14
770 1 -0.502048 6.90023 -14.087 10
771 1 1.79671 4.49173 -13.0163 12
772 1 4.33785 4.32345 -10.429 13
773 1 1.72443 0.918945 -9.38892 18
774 1 6.04244 7.66167 -6.54985 19
775 1 2.76238 3.85198 -7.72922 22
776 1 4.83485 1.09433 -7.88373 21
777 1 1.81659 1.01046 -5.93915 19
778 1 6.23321 3.66653 -6.12161 19
779 1 3.0438 3.58275 -4.39137 23
780 1 5.10929 0.966732 -4.76682 21
781 1 1.87282 1.27413 -2.58864 24
782 1 5.95023 3.71616 -2.65415 19
783 1 2.8379 4.05343 -0.998126 23
784 1 4.79033 1.17902 -1.00164 24
785 1 -0.832673 5.08191 -11.5005 19
786 1 4.73211 5.6051 -7.73987 20
787 1 1.86433 5.42852 -9.52735 18
788 1 2.99762 7.97191 -8.38946 17
789 1 9.93945 0.971209 -9.06082 10
790 1 2.1057 6.50437 -6.18555 24
791 1 8.65154 9.31522 -4.68751 15
792 1 3.2252 8.67454 -4.94347 23
793 1 -2.69504 9.02855 -8.40971 12
794 1 1.92099 6.29726 -3.10287 22
795 1 11.4376 4.43469 3.50948 22
796 1 3.11927 9.12697 -1.77911 22
797 1 4.93429 6.7425 -1.06138 23
798 1 2.77845 11.4401 -6.59211 11
799 1 5.57958 11.3984 -5.70365 15
800 1 2.46443 11.3373 -3.58399 15
801 1 5.10503 11.6736 -1.99224 16
802 1 7.13927 3.36227 -9.67992 17
803 1 4.26874 -4.74056 -11.0108 18
804 1 7.43657 6.39423 -8.79716 11
805 1 11.6161 5.2097 -5.41962 12
806 1 4.18872 1.44003 -11.0349 13
807 1 7.70026 6.08197 -3.17914 17
808 1 9.13722 3.03536 -4.21705 21
809 1 13.2023 1.2028 -3.26637 13
810 1 7.92544 0.462816 -3.4043 19
811 1 11.9046 -4.21241 -1.54391 13
812 1 8.78171 3.94141 -1.32986 19
813 1 11.4164 3.63292 0.421754 22
814 1 9.92126 7.03274 -6.63204 12
815 1 5.79073 8.84531 -3.41964 22
816 1 11.5797 8.39125 -4.00456 9
817 1 9.05517 9.19866 -1.83461 13
818 1 4.67582 5.83269 -4.47908 20
819 1 6.71557 12.9788 -0.194583 9
820 1 14.7582 4.70332 3.3102 10
821 1 7.97039 12.4602 -3.42578 8
822 1 11.4376 1.97028 -6.08397 16
823 1 11.6683 3.75066 -2.5549 16
824 1 10.3383 6.83486 1.23124 15
825 2 1.73495 2.8428 -14.0053 8
826 2 10.7671 2.0121 -7.68148 14
827 2 4.89073 0.124192 -9.68571 18
828 2 8.33989 4.62278 -8.58556 14
829 2 1.67691 3.01478 -9.17571 20
830 2 2.73446 4.31253 -11.4617 18
831 2 3.1736 0.279982 -7.43945 22
832 2 4.60969 3.39749 -7.52508 22
833 2 2.04424 3.122 -5.91409 22
834 2 6.14401 0.499218 -6.36873 21
835 2 3.05352 0.594623 -4.30384 23
836 2 5.07609 2.96699 -4.13719 20
837 2 1.78987 3.39038 -2.34379 22
838 2 5.93377 0.703991 -2.81858 19
839 2 2.99268 0.548685 -0.892412 22
840 2 4.81964 3.29848 -0.875054 21
841 2 -2.48005 6.46047 -14.8363 11
842 2 -3.11561 5.94901 -8.00057 19
843 2 7.97655 7.24367 -7.18114 16
844 2 2.95971 5.88653 -8.01749 21
845 2 4.56106 11.4651 -7.51755 9
846 2 2.3118 8.44811 -6.56129 20
847 2 5.52785 5.6508 -6.173 22
848 2 2.86705 5.37788 -4.64443 24
849 2 4.91195 8.65444 -1.56434 21
850 2 2.14201 9.0015 -3.43051 21
851 2 5.89307 5.69009 -2.56307 21
852 2 3.10441 5.95105 -1.6074 22
853 2 7.63566 13.0321 -1.79051 7
854 2 3.84011 11.0258 -5.01661 17
855 2 4.67582 7.64085 -4.52109 21
856 2 3.12281 11.4075 -1.73324 17
857 2 -0.00384024 5.27127 -13.2372 15
858 2 10.361 8.59972 -5.336 11
859 2 10.1206 5.29206 -6.29306 14
860 2 1.79381 7.68807 -9.90318 13
861 2 7.95635 1.56024 -9.26266 15
862 2 8.20627 3.45593 -5.97064 21
863 2 9.07167 1.18308 -4.7684 19
864 2 6.79485 -2.72431 -6.27129 19
865 2 8.27436 -10.648 -4.99443 11