ITEM: TIMESTEP
290000
ITEM: NUMBER OF ATOMS
1000
ITEM: BOX BOUNDS pp pp pp
-30.0 30.0
-30.0 30.0
-30.0 30.0
ITEM: ATOMS id type x y z Coordination
1 1 -13.7527 -1.3652 -4.53484 13
2 1 -11.1982 -6.76042 -6.94976 8
3 1 -10.631 2.19637 -8.21992 10
4 1 -10.5342 -0.751572 -4.40708 15
5 1 -15.6882 7.09101 5.88724 6
6 1 -5.60279 2.41605 -2.40171 19
7 1 -7.45174 -9.83422 2.13029 17
8 1 2.03088 -7.9178 -7.8929 16
9 1 -3.17617 -9.24548 -1.71547 20
10 1 -2.64621 -14.7149 -7.2866 6
11 1 -4.56021 -10.4321 3.6998 12
12 1 -11.6516 -3.8499 -5.97322 11
13 1 -12.0428 -6.78989 -2.67753 9
14 1 -4.26024 -10.9252 0.701791 18
15 1 -7.17162 -4.56247 -2.14431 19
16 1 -7.41328 -10.2705 6.03243 12
17 1 -6.74349 -5.2477 -5.49932 18
18 1 -6.16615 -4.82581 -9.40803 14
19 1 -8.29561 -8.41327 -3.51775 13
20 1 -6.7612 7.27865 -5.83552 16
21 1 -10.088 -3.61859 -8.62736 9
22 1 2.63211 -3.38122 -13.3062 13
23 1 -1.45543 -3.44182 -11.7925 15
24 1 -1.35784 -7.50645 -11.9058 8
25 1 -12.2319 4.04126 -3.08332 17
26 1 -6.25143 -1.66344 -0.724542 18
27 1 -3.43084 -11.5651 -4.29403 12
28 1 -5.35822 -9.39812 -3.65723 20
29 1 -4.77777 -6.91436 -2.01344 18
30 1 -4.26611 2.09246 -5.93258 19
31 1 -11.5555 -4.46974 6.55429 17
32 1 -2.88841 -2.39864 -1.51849 18
33 1 4.47321 -7.00011 -5.77183 21
34 1 -4.01593 -7.14713 -5.02541 17
35 1 0.0664575 -14.0901 -3.37146 16
36 1 -0.308285 -13.5756 -10.0868 10
37 1 4.87707 2.48793 -5.54159 17
38 1 2.04661 2.22017 -4.7173 23
39 1 -1.57667 -11.3596 -7.74255 13
40 1 -4.60311 -9.7192 -6.88612 11
41 1 -0.849752 -7.58488 -3.53159 20
42 1 -1.61437 -9.01555 -9.28467 11
43 1 0.386233 -15.2466 -7.34508 12
44 1 4.33519 -9.23549 -4.62081 19
45 1 -5.34021 -12.521 -1.4665 11
46 1 -0.253588 -16.5851 -4.75767 10
47 1 2.38301 -14.411 -5.71852 17
48 1 3.47549 -12.0993 -3.58951 21
49 1 6.95283 -2.01973 -5.29149 18
50 1 -2.0499 -12.3526 -1.06082 20
51 1 1.31059 -10.7401 -9.6862 17
52 1 -4.49552 -4.56968 -7.18574 15
53 1 6.14709 -11.7174 -10.4797 11
54 1 -5.83043 -1.1954 -6.51266 15
55 1 -4.68787 -4.78916 -0.0568534 20
56 1 -0.886715 -0.493127 -11.8649 13
57 1 -1.63518 -4.91449 -3.76264 19
58 1 4.14925 -9.52135 -11.0144 15
59 1 1.65118 -6.12074 -4.57284 21
60 1 -2.7869 5.10966 -6.31701 15
61 1 0.447797 -0.283383 -3.52123 21
62 1 -2.00249 -2.17474 -4.32227 20
63 1 -0.589773 -1.49909 -9.24215 15
64 1 -1.86985 2.39071 -8.11783 16
65 1 -2.47856 1.08933 -3.22696 21
66 1 1.61176 -11.65 -5.95567 19
67 2 -5.41308 1.52636 -4.06702 19
68 2 -7.69922 -8.36266 0.81884 16
69 2 -12.2085 -0.535185 1.76608 16
70 2 -8.05873 -4.42253 -4.10708 14
71 2 -13.3895 -4.83943 1.30491 10
72 2 -5.38321 -11.1836 -6.1487 9
73 2 -4.86354 -11.17 -2.85346 16
74 2 2.98002 -7.49294 -4.11814 22
75 2 7.33143 -6.14477 -8.80348 14
76 2 -2.14784 -6.87667 -5.17862 16
77 2 -10.6271 -4.91857 -7.42809 12
78 2 -9.92776 -2.19759 -5.21271 15
79 2 3.57515 -2.99314 -8.19328 19
80 2 -8.93783 -9.13335 2.94226 11
81 2 -11.0953 -1.04717 -2.61637 18
82 2 -6.23616 -3.59086 -10.7442 13
83 2 -6.60663 5.94818 -4.4168 18
84 2 -7.74809 3.55417 -10.6679 11
85 2 1.39105 -12.4952 -10.0623 16
86 2 1.396 -4.99744 -6.40312 19
87 2 -6.9708 -9.02873 7.21799 15
88 2 -7.91274 0.235109 -10.4215 11
89 2 -8.42583 -4.96544 -9.52407 9
90 2 -3.35864 -3.47533 -11.5212 14
91 2 -5.90223 4.14084 -1.52557 18
92 2 -6.73336 -0.291702 0.892558 20
93 2 -6.70104 -2.24686 -5.32995 18
94 2 -8.11588 -6.71366 -5.0021 17
95 2 -13.9329 2.88201 1.14325 13
96 2 -2.17334 -10.5129 -0.573191 23
97 2 0.973355 -14.7954 -9.00064 11
98 2 -6.27081 -6.21625 1.73305 18
99 2 0.274951 -7.44705 -12.8234 10
100 2 -3.52364 -7.9018 -3.40895 18
101 2 -10.3806 -5.77746 1.07558 19
102 2 2.71959 -4.70483 -3.76404 18
103 2 4.19075 -12.3262 -10.5881 15
104 2 -2.1236 -10.767 -3.2341 16
105 2 4.53081 -5.09723 -5.99965 19
106 2 -1.66832 -13.2958 -8.68109 9
107 2 3.81923 -15.5536 -4.3041 10
108 2 2.09572 3.11424 -2.55005 20
109 2 -2.94213 -5.2054 0.696918 19
110 2 -3.94991 -7.92044 -0.557644 19
111 2 -3.01066 -9.48937 4.97445 15
112 2 -2.10088 1.11816 -5.06361 21
113 2 -1.11326 1.46012 -12.254 9
114 2 -0.913397 -1.07559 -7.48503 17
115 2 -0.820989 -10.6561 -9.81014 13
116 2 0.120369 -10.609 -6.79113 18
117 2 7.66415 5.44396 -4.39917 16
118 2 -3.52508 1.35053 -7.84744 17
119 2 -9.98828 -7.00928 -2.83688 14
120 2 0.371715 -7.47265 -6.86141 18
121 2 2.97473 -5.58138 -0.505684 17
122 2 -5.40749 -8.14581 -5.91985 18
123 2 0.858584 -2.96425 -16.3269 6
124 2 0.670908 -9.86353 -2.03397 21
125 2 -1.99632 3.28294 -9.96986 12
126 2 0.244913 -8.94576 -4.58865 17
127 2 6.63909 2.86649 -4.76213 19
128 2 -3.75815 -0.496977 -2.23128 18
129 2 -6.25919 -7.9497 -2.65788 23
130 1 -13.4236 -3.58905 -3.12274 13
131 1 -11.9145 -6.80351 1.29188 15
132 1 -12.6729 1.77992 -5.2026 12
133 1 -11.2113 3.11626 4.35874 20
134 1 -13.6845 -4.33835 -0.500403 10
135 1 -15.0589 9.00643 3.40869 7
136 1 -10.1303 -4.79616 3.61225 20
137 1 -9.63787 2.10753 -4.68094 19
138 1 -10.9544 -9.17204 2.32531 12
139 1 -9.74729 -8.40086 4.56937 16
140 1 -8.68468 -5.58803 11.8805 11
141 1 -7.09968 -6.95204 -0.277695 20
142 1 -5.78713 -9.02694 8.87072 13
143 1 -10.8254 -9.00102 7.4784 11
144 1 -12.0235 0.320881 3.7075 17
145 1 -9.74848 -8.30245 -1.0676 15
146 1 -10.9346 4.24774 7.77855 13
147 1 -15.3185 1.35764 -2.98391 11
148 1 -7.67822 -2.98106 10.5161 14
149 1 -10.0763 -2.1406 4.38144 14
150 1 -11.9972 -4.21619 10.0275 8
151 1 -9.1577 -4.96145 8.67082 19
152 1 -11.9158 -2.3645 1.45913 16
153 1 -14.5081 -0.992108 -1.30025 14
154 1 -10.6976 -1.71744 -1.001 16
155 1 -6.92569 1.43123 -5.43536 18
156 1 -14.6886 4.05392 -2.03696 10
157 1 -7.22256 -2.61411 3.61976 19
158 1 -9.2764 1.73033 9.11109 12
159 1 -4.275 -3.12752 5.228 18
160 1 -9.40851 -4.28621 0.335864 15
161 1 -2.18353 -3.2104 11.3162 13
162 1 -10.7748 3.37005 11.0293 7
163 1 -13.7208 -6.48234 7.32212 8
164 1 -2.54451 -0.228004 11.9044 15
165 1 -8.07807 4.66701 8.16305 12
166 1 2.50627 -12.2404 -11.6098 13
167 1 -3.83074 -10.594 6.41625 9
168 1 -2.47471 -7.1887 0.352576 18
169 1 -8.09803 -7.77745 8.28213 18
170 1 8.29805 -7.9369 3.95093 15
171 1 -3.17465 -5.19155 8.07514 16
172 1 -0.600334 -8.93242 -6.32959 15
173 1 -8.0503 -5.33248 6.01918 17
174 1 -5.5621 -6.99353 6.77698 19
175 1 -6.90387 -8.20625 11.8384 8
176 1 -5.7028 -5.26265 3.36493 17
177 1 -5.88473 -5.62587 9.48022 17
178 1 1.21573 -7.55935 8.29059 17
179 1 -6.27345 -5.06099 13.6497 8
180 1 -0.81109 -4.5336 6.20741 21
181 1 -4.44603 -2.07938 1.57142 20
182 1 0.878941 -6.06713 13.4037 6
183 1 6.13835 -4.08438 10.7864 12
184 1 -11.195 -6.8026 9.5946 14
185 1 1.90979 -6.56318 1.10323 17
186 1 0.437749 -1.87729 -1.53422 20
187 1 -9.31909 -0.878661 1.32633 19
188 1 -7.05428 -9.6931 -0.659304 16
189 1 -7.38694 4.12531 -0.450202 18
190 1 4.33856 -0.700042 6.42538 18
191 1 0.371015 -0.618474 1.36473 18
192 1 1.30246 0.439948 3.92227 16
193 1 -2.75296 2.32309 5.35786 19
194 1 1.08655 -10.1425 8.26224 8
195 1 -5.28755 -0.334139 10.1125 14
196 1 3.4973 -1.99633 9.6124 20
197 1 -3.03467 -4.9087 14.4921 6
198 1 -2.53229 2.95266 10.6474 17
199 1 0.85841 -1.35311 10.8754 19
200 1 -2.82721 -2.33656 7.90084 21
201 1 6.96169 1.40922 11.3372 11
202 2 -10.1664 -5.46122 10.6438 11
203 2 -12.1945 -6.5327 3.14803 15
204 2 -8.08967 3.05921 -5.417 18
205 2 -13.3035 5.07556 -1.89714 13
206 2 -7.24216 -2.13611 -2.23578 18
207 2 -12.7832 -5.7304 5.7909 11
208 2 -4.15904 -9.67138 8.50641 9
209 2 -13.849 -2.55451 -1.4886 13
210 2 -9.46034 -9.79355 6.02398 11
211 2 -10.7427 -0.550508 5.15913 14
212 2 -10.8602 2.27538 -2.74636 22
213 2 -6.8288 -7.78228 9.82457 14
214 2 -11.6192 -9.27786 4.21117 11
215 2 -7.35506 -4.15832 12.4195 10
216 2 -14.7149 -0.359405 -3.25435 14
217 2 -2.13399 -4.08038 9.62443 13
218 2 -2.76155 -0.516873 8.23555 19
219 2 -5.52928 -10.7046 5.49984 11
220 2 -11.7076 -3.17865 3.41539 16
221 2 -7.71119 -2.59003 8.42445 17
222 2 -13.1126 2.2502 4.20304 13
223 2 -8.16274 -1.04415 2.96628 16
224 2 -13.3607 -5.42693 -1.86542 9
225 2 -10.7425 -8.39261 0.73511 14
226 2 -11.2167 -2.86084 8.96542 11
227 2 -13.1665 0.577609 -0.963252 19
228 2 -0.880215 -3.03533 7.43838 19
229 2 -10.0133 -7.64316 8.51336 13
230 2 -12.6705 -5.6707 8.78833 11
231 2 -4.69868 0.89115 11.706 13
232 2 -0.258013 -2.19011 12.1876 14
233 2 -5.43752 3.80286 12.3366 9
234 2 -5.58171 -10.8933 -0.744985 16
235 2 -2.83258 -3.52547 -2.95749 16
236 2 -12.3552 -8.05646 6.64989 12
237 2 2.34579 -9.39293 9.6765 10
238 2 -3.5927 -1.78023 11.6792 13
239 2 -0.0909467 -16.1256 -2.99415 10
240 2 -3.00818 -7.6016 2.44511 18
241 2 -6.42626 -5.80607 5.07126 16
242 2 -9.18768 -6.12664 4.47862 16
243 2 -4.32358 -6.93186 8.53104 14
244 2 -7.07578 -6.73194 12.9547 8
245 2 4.24673 -4.14653 11.6773 11
246 2 -9.96604 -2.61693 0.282469 15
247 2 -4.62103 -4.10258 13.5063 8
248 2 -7.63319 -5.21692 9.98031 20
249 2 3.86936 -0.461162 8.59102 20
250 2 -9.16107 3.72152 11.9198 7
251 2 1.59309 -2.50425 9.39734 15
252 2 -10.276 0.356506 0.227462 22
253 2 4.20497 -5.39903 5.49333 17
254 2 2.13151 -10.0206 6.70887 10
255 2 -8.39986 -9.42471 -1.97696 11
256 2 -6.48831 -5.33093 7.61229 19
257 2 -4.01113 -11.8183 2.44045 14
258 2 -4.20838 -0.339371 3.40619 19
259 2 -5.57185 -0.163486 8.27193 15
260 2 5.99829 -8.70698 7.57695 10
261 2 -4.42578 -2.79509 -0.253533 16
262 2 -5.92824 9.19829 7.30132 10
263 2 -6.50019 -1.7076 10.8955 11
264 2 1.38514 -4.06207 13.4629 10
265 2 4.91872 3.73511 8.55667 21
266 2 -12.1675 1.37317 6.28687 12
267 2 0.801482 -6.03048 9.16021 16
268 2 0.415473 -0.16947 9.55627 20
269 2 3.50984 4.1024 13.2169 10
270 1 -7.37297 -7.92236 -6.21261 16
271 1 -8.10244 -6.17211 -7.87335 12
272 1 -5.1364 -3.13087 -12.2573 13
273 1 -9.27839 6.02716 -1.93041 21
274 1 -7.23462 -11.47 -5.36365 9
275 1 -8.97885 4.16902 -7.00653 16
276 1 0.587771 12.4694 -2.9286 20
277 1 -5.34744 0.7122 -8.73085 17
278 1 -6.80389 -1.38016 -10.3357 15
279 1 -0.162241 5.8698 -10.3742 11
280 1 -5.72219 3.40361 -11.0666 11
281 1 -8.06365 -3.7786 -11.1311 9
282 1 -2.26525 -5.66045 2.85218 17
283 1 -8.7071 2.02502 -10.7044 10
284 1 -9.49287 -5.9239 -4.20488 18
285 1 -12.7073 4.30363 1.18363 17
286 1 -12.2722 6.30189 -1.17072 16
287 1 -5.94664 4.76149 -5.85809 17
288 1 -9.72684 -0.503794 -9.84782 8
289 1 -4.67009 -7.68151 1.49479 19
290 1 2.98182 1.59429 -8.01176 17
291 1 -7.50185 13.0834 -5.97658 6
292 1 -8.10723 4.29075 -3.88759 22
293 1 -6.51521 5.99822 0.350765 20
294 1 -1.72464 9.13114 -0.373126 16
295 1 -6.77029 11.9041 -2.35698 9
296 1 0.827627 10.6808 -6.18862 15
297 1 -3.25466 10.4427 3.79327 15
298 1 -13.0917 8.34671 0.489987 11
299 1 -9.49987 11.6283 4.32166 6
300 1 0.0737386 -1.88454 -14.8678 10
301 1 -4.04206 0.282375 -11.8087 12
302 1 8.83426 6.89039 -7.22098 12
303 1 -8.32558 -2.56069 -4.38636 13
304 1 -0.624437 2.90664 -11.3806 9
305 1 0.11816 5.1425 -5.91763 18
306 1 0.944627 10.4615 -10.2696 9
307 1 0.0178291 -3.17375 -6.90102 18
308 1 -5.64566 5.64978 -8.53846 14
309 1 0.923765 -4.50984 -10.0231 17
310 1 -1.37553 6.84442 -3.45022 18
311 1 -9.82064 9.39158 -4.29313 10
312 1 -7.90666 -0.263429 -2.84969 19
313 1 -8.77465 4.84798 -9.89423 9
314 1 1.54911 7.9597 -8.30487 14
315 1 -0.816431 9.97033 -3.44512 18
316 1 5.36775 3.40281 0.527427 17
317 1 -10.1372 9.19172 -0.809535 14
318 1 -0.77687 2.45187 -5.40254 17
319 1 3.66177 4.83707 -6.63141 20
320 1 -11.7026 8.96532 2.62479 15
321 1 5.07702 8.11029 -8.11489 11
322 1 -10.8256 6.60305 -4.61388 13
323 1 15.3234 5.77689 -1.39371 8
324 1 -14.1982 3.27181 3.07312 11
325 1 -2.60009 10.9698 -8.24866 15
326 1 -12.7351 6.6273 3.26396 16
327 1 -2.09126 12.3314 -1.58806 16
328 1 -7.66606 1.27059 0.11909 20
329 1 -3.23914 6.68462 -0.873703 17
330 1 -4.25385 14.4573 -1.8307 9
331 1 -9.88395 6.70265 1.04695 21
332 1 -5.64219 2.18946 5.14198 18
333 1 0.68467 13.0197 -7.93369 14
334 2 -9.49675 -7.42761 -7.40784 10
335 2 -11.252 2.22107 -6.07973 14
336 2 -9.5945 -2.47056 -10.1512 9
337 2 -13.5866 8.37765 2.38063 10
338 2 -5.52408 13.1979 -2.10709 11
339 2 1.96263 -4.06775 -11.5473 17
340 2 -8.46552 5.38043 0.256217 20
341 2 -5.98407 7.51298 -8.06615 9
342 2 -3.79228 -12.9869 -0.354977 12
343 2 -1.21432 -7.2091 -1.01663 17
344 2 -5.07215 1.67566 -10.7506 15
345 2 -4.98735 -1.32083 -11.6155 12
346 2 -6.43981 -5.36522 -7.65941 14
347 2 -3.7581 6.97899 -6.02629 17
348 2 -9.43879 5.29955 -4.97043 17
349 2 -0.916754 3.87796 -6.79283 16
350 2 -12.3917 0.0255191 -4.46868 17
351 2 -4.81734 -5.13863 -5.31383 18
352 2 -1.59134 10.5676 -1.5798 14
353 2 -8.45149 0.450913 -4.43696 19
354 2 -13.6305 5.00351 3.25384 11
355 2 -8.21521 10.7779 3.28722 9
356 2 1.55815 -4.60188 -14.1684 11
357 2 -4.71294 4.39633 -9.83594 13
358 2 -11.6107 8.1995 -4.66079 8
359 2 -10.4872 9.67977 -2.53782 12
360 2 -0.7051 6.48499 6.0216 20
361 2 -0.372002 7.97117 3.01436 18
362 2 4.22108 8.81765 -2.38037 21
363 2 -10.8202 5.39959 -2.7881 18
364 2 -4.27283 4.21808 -6.42041 17
365 2 -8.09125 -5.33344 -0.5844 17
366 2 -10.0285 4.08464 -8.73555 10
367 2 -10.2055 1.18493 -9.67236 9
368 2 3.494 -7.72965 -11.7313 13
369 2 -1.8815 6.5366 -10.0629 10
370 2 -5.77535 13.5855 -6.60337 8
371 2 -5.15728e-05 -3.41903 -8.99565 18
372 2 -4.12757 -4.45095 -9.00033 12
373 2 -3.71714 -1.24094 -5.33894 18
374 2 -7.27427 4.75768 -7.40369 15
375 2 4.6552 1.98908 -9.1262 16
376 2 2.79438 -1.61654 -13.8106 9
377 2 -5.30583 -4.91329 -1.84264 19
378 2 0.489581 8.88598 -6.98908 19
379 2 -2.97529 13.0377 -8.90107 12
380 2 0.809892 0.622521 -5.0627 23
381 2 1.54592 -2.04544 -6.1014 22
382 2 -8.59948 4.18824 -2.06677 22
383 2 -11.4408 -5.58744 -4.97862 13
384 2 -2.35551 -0.847937 -10.8476 17
385 2 -10.7392 10.3952 3.48771 10
386 2 -0.977995 11.9506 -7.60579 17
387 2 -0.938604 -2.12035 -13.1215 16
388 2 -5.40485 -1.46726 -8.85652 20
389 2 2.96653 10.0911 -5.06866 13
390 2 -3.92116 13.0396 -0.659893 11
391 2 1.92702 5.98739 -5.72125 16
392 2 -13.6662 2.93287 -3.72098 13
393 2 0.52028 11.1759 1.32953 16
394 2 1.417 6.65017 0.694065 19
395 2 -0.0864424 14.6788 -2.57309 14
396 2 2.56812 -0.737811 -2.84717 19
397 2 -2.62693 11.7674 2.86586 12
398 2 -11.6975 7.87508 4.67012 10
399 2 -11.1248 8.52046 0.490423 16
400 2 -1.32786 8.36663 -4.80838 17
401 2 -0.362371 14.6797 -8.61229 10
402 1 -8.33514 -6.55831 2.20601 20
403 1 -5.46544 5.55303 -3.00587 17
404 1 -12.8718 -4.76776 3.15439 11
405 1 -8.59701 0.760936 3.69579 22
406 1 -12.5415 -7.64798 4.68951 14
407 1 -1.31242 15.4697 -3.71706 13
408 1 -14.4726 1.61891 -0.0104288 13
409 1 -7.40631 8.72057 -0.927044 15
410 1 -12.2394 0.619373 -2.45902 20
411 1 -9.51002 3.71294 1.70001 21
412 1 -9.91473 2.87603 -1.14941 19
413 1 -4.83959 -0.317131 -3.91437 22
414 1 -11.5864 1.27357 0.948 19
415 1 -5.5779 8.3098 4.68176 19
416 1 -13.4172 2.65527 6.43908 11
417 1 -4.47261 -4.35189 -3.53742 19
418 1 -13.7684 5.69671 8.45642 5
419 1 -3.95909 1.21274 7.97535 19
420 1 -10.0508 7.48032 5.44239 12
421 1 -7.34665 3.90266 12.2147 6
422 1 4.64023 9.92442 6.88473 13
423 1 -12.4283 9.34268 -3.29334 8
424 1 -6.33884 10.6428 3.48449 12
425 1 -6.52655 3.16134 2.64235 22
426 1 -8.21119 3.52771 5.07363 19
427 1 -2.93082 3.33682 -0.129324 18
428 1 -10.5688 0.752978 6.63432 18
429 1 -2.92753 1.12075 2.42882 16
430 1 7.52316 4.5533 11.0469 13
431 1 -5.83865 7.85549 8.52367 11
432 1 -5.7163 10.8216 6.43932 8
433 1 -7.99614 6.14554 3.33291 19
434 1 -3.62028 8.07596 -4.39009 17
435 1 1.86163 3.46994 1.96494 16
436 1 -4.65405 4.99343 4.73307 19
437 1 -1.54995 -0.70741 6.19359 20
438 1 -1.76757 7.97692 -6.61427 17
439 1 2.40432 0.450086 9.28169 21
440 1 -6.11519 -0.0153943 2.47579 18
441 1 -0.207849 -4.39749 9.51967 15
442 1 -9.80129 -1.66157 8.75995 13
443 1 -3.36649 8.04354 6.46609 18
444 1 -0.478763 2.68164 7.75487 20
445 1 -6.75283 6.04943 5.90072 17
446 1 0.400876 1.64629 11.0747 17
447 1 -4.73479 8.61833 1.38226 18
448 1 3.71636 5.42441 5.52696 18
449 1 -1.39457 0.176499 8.92481 16
450 1 -5.03724 -2.58328 12.2362 11
451 1 -6.23706 -3.28585 7.23315 20
452 1 4.76907 -2.28362 1.83192 21
453 1 -1.23466 12.1736 1.63283 13
454 1 0.150574 5.15056 0.190406 17
455 1 -3.18603 5.34335 7.63456 16
456 1 -4.18462 5.36172 2.00091 15
457 1 8.21073 2.1764 -0.956658 21
458 1 -2.22461 7.39419 2.66239 18
459 1 -5.53055 4.34392 10.3821 12
460 1 2.86353 8.63632 5.19034 19
461 1 3.61543 1.01431 1.72604 19
462 1 -1.01839 3.75666 13.3321 8
463 1 -4.38622 2.32724 12.8244 10
464 1 2.39749 3.11077 11.7006 16
465 1 4.60145 4.96919 10.0376 17
466 1 5.80453 6.5163 7.83646 18
467 1 2.52395 9.97947 -2.4132 18
468 1 -9.02521 9.08933 3.56471 14
469 1 -7.14476 -0.443935 7.15109 16
470 1 1.48161 6.00902 6.06029 18
471 1 0.396248 4.71693 9.99852 14
472 2 -7.29725 -9.60962 -4.78167 11
473 2 -12.9176 -3.06864 -4.76353 12
474 2 -5.85808 -2.6567 2.29176 16
475 2 -5.91733 0.929885 -6.93021 16
476 2 -8.95787 1.68638 5.44762 19
477 2 -10.1774 1.8292 2.94961 22
478 2 -9.22532 0.068623 8.13822 11
479 2 -16.0618 8.00872 4.43162 5
480 2 -13.4351 8.14416 -1.65886 10
481 2 -0.259831 -2.0661 -3.58428 21
482 2 -15.3371 2.29508 -1.3696 11
483 2 -8.625 -3.67677 3.56945 18
484 2 2.84326 9.87083 7.03997 9
485 2 0.268595 5.27767 4.09653 21
486 2 -2.66713 1.97897 -1.47663 16
487 2 -2.42805 2.31943 13.0007 10
488 2 -6.50857 5.41655 2.4788 24
489 2 -11.198 3.19211 0.471039 22
490 2 -7.19061 6.31634 7.98966 11
491 2 -4.21298 -3.81946 7.21962 18
492 2 5.55252 4.31713 11.8087 14
493 2 -7.10368 3.58282 9.73124 10
494 2 -14.5809 6.91889 7.48738 4
495 2 -1.39121 0.42412 0.959315 20
496 2 -7.87881 2.92583 1.12982 21
497 2 -3.68426 5.1286 0.0153455 19
498 2 -5.86266 7.84979 0.0949171 14
499 2 -4.78493 6.9658 5.652 19
500 2 -12.9652 3.91702 7.97284 8
501 2 -9.28392 7.35718 2.79444 19
502 2 3.0671 1.92269 7.49371 19
503 2 -10.7003 2.76987 8.96408 12
504 2 -6.29181 4.11645 5.29437 19
505 2 -8.96905 7.65391 -1.01255 17
506 2 -0.778264 3.03871 9.52467 20
507 2 7.34393 11.9541 3.36389 12
508 2 -12.0022 6.24046 0.812825 20
509 2 8.13012 -0.696913 -4.65923 20
510 2 3.91815 1.24043 -3.49697 20
511 2 -0.844161 7.85917 -1.6124 15
512 2 -9.76247 -4.68132 6.65549 19
513 2 5.36346 1.10217 6.39212 20
514 2 -4.06566 1.47991 0.962128 18
515 2 2.46074 6.84072 4.50675 22
516 2 -3.97991 4.35469 9.11416 10
517 2 2.91676 5.76581 7.23296 20
518 2 8.71619 10.4897 1.45564 16
519 2 6.20026 0.82199 9.71344 16
520 2 3.43428 7.50766 13.2523 5
521 2 -8.3592 6.98706 5.39865 17
522 2 1.99063 -6.86437 11.7055 11
523 2 -6.80076 1.53076 3.87621 19
524 2 -9.46401 4.4985 6.52182 16
525 2 -3.03649 -1.62232 5.57609 20
526 2 11.0204 -1.14709 0.772556 20
527 2 -0.194771 -2.48347 2.11199 17
528 2 3.53384 2.9794 1.0486 15
529 2 -0.952135 4.19655 -1.14041 14
530 2 -2.62645 8.55493 4.64947 17
531 2 -7.22943 8.78408 4.00913 18
532 2 -6.7086 11.8971 -4.45923 11
533 2 -9.07547 4.45044 3.4502 20
534 2 2.50411 4.31553 10.1787 19
535 2 10.4055 1.97175 -0.240202 21
536 2 5.92657 10.0567 0.935657 20
537 2 6.38742 10.6383 6.61123 10
538 2 12.5683 11.2317 6.29516 8
539 2 4.79254 8.97871 4.96589 17
540 2 1.71154 14.5508 0.389883 11
541 2 9.45868 11.341 4.73259 11
542 2 5.209 6.45511 5.87265 18
543 2 -5.40307 9.06307 -5.46503 14
544 1 1.94088 -8.95196 -3.83628 24
545 1 3.2829 -10.5222 5.26512 10
546 1 2.59533 -6.14723 -10.8653 17
547 1 7.94426 1.64975 -4.13823 20
548 1 4.54307 -5.30502 0.765586 18
549 1 4.6472 -14.1842 -10.633 8
550 1 -0.74254 -5.98936 -6.69471 17
551 1 7.46272 -3.27283 -11.5335 8
552 1 0.635041 -16.3099 -1.45449 9
553 1 4.53997 -12.5576 -6.16145 17
554 1 7.86116 -1.47816 -8.08008 15
555 1 6.95458 -4.26234 -8.62356 14
556 1 7.17523 -9.15629 -12.1415 9
557 1 4.51634 -9.75804 -7.83676 18
558 1 5.93979 -3.51846 -1.39006 16
559 1 5.56089 -14.8494 -4.29561 8
560 1 1.54484 -4.66632 -16.3798 5
561 1 12.4356 -0.949257 -4.99516 12
562 1 7.19706 5.78829 -9.55428 13
563 1 1.60637 -8.9609 -12.7334 10
564 1 0.578024 -0.266786 -6.69979 19
565 1 11.253 2.87336 -5.77468 14
566 1 9.71023 3.80635 -8.10593 9
567 1 4.79441 -4.53972 -4.21204 20
568 1 -1.31326 -3.43834 0.957239 19
569 1 7.24071 -1.34834 -2.92232 18
570 1 2.89691 7.93778 1.16915 18
571 1 1.98926 7.51883 -4.57264 20
572 1 1.53228 -11.2611 -1.15061 22
573 1 4.03989 -0.423198 -4.51777 19
574 1 5.44331 0.458294 -9.63127 13
575 1 3.47053 -6.09919 -2.40786 22
576 1 10.8657 2.99497 -1.86819 18
577 1 7.49961 2.22398 -8.39348 13
578 1 6.67957 -7.72393 -9.35513 17
579 1 14.5727 6.75961 4.97458 12
580 1 6.42385 -10.3122 -2.81737 15
581 1 11.1817 -5.13423 -1.89907 13
582 1 2.0876 -3.24301 0.29821 18
583 1 7.51059 -4.82923 2.87264 19
584 1 13.2011 8.12272 2.27548 14
585 1 12.9789 5.11842 -3.20591 14
586 1 9.00878 -7.72887 -1.50046 14
587 1 0.285409 -5.39726 -13.1319 13
588 1 4.87434 3.8546 -8.65032 16
589 1 0.0905231 -9.05429 -0.570485 19
590 1 2.48241 -13.6953 -8.664 16
591 1 10.1082 -2.50224 -2.80621 21
592 1 -2.37282 -0.25629 -6.65055 18
593 1 14.8748 3.78591 7.51987 11
594 1 11.6182 0.659603 0.16728 23
595 1 7.16065 -10.0911 -6.52 12
596 1 9.14926 -6.63537 -11.8859 7
597 1 5.72288 -14.7389 -8.09173 10
598 2 3.23695 -12.0361 -1.78894 17
599 2 -0.993173 -13.7405 -1.85217 15
600 2 1.06763 -11.847 0.53052 16
601 2 3.68269 -15.0223 -9.18771 13
602 2 -0.4163 9.4204 -10.1432 11
603 2 2.80039 -9.55963 -9.04934 19
604 2 2.40565 -6.22208 -8.91921 16
605 2 5.6464 3.93946 -6.87388 15
606 2 2.79668 -10.615 -4.49141 19
607 2 3.13115 3.93316 -5.18051 19
608 2 10.9841 0.615014 -5.13989 16
609 2 9.52112 1.99899 -7.24946 14
610 2 4.04037 -8.45171 -6.83397 17
611 2 9.11075 -3.42749 -0.548415 19
612 2 1.4288 -16.1101 -5.7744 11
613 2 4.82228 -1.87654 -5.4521 18
614 2 -1.75595 -7.21385 -9.91622 11
615 2 -3.06995 -9.5377 -7.9292 11
616 2 13.1254 8.01361 4.16053 14
617 2 -1.25238 -5.49742 -11.6726 13
618 2 1.75635 6.25881 -9.49239 13
619 2 9.3873 -5.90667 -2.312 16
620 2 13.5038 0.227805 1.52692 17
621 2 4.14923 -1.18323 -9.66256 13
622 2 -0.517227 -10.0058 2.19382 15
623 2 -0.0256255 -4.88199 0.74682 19
624 2 6.41524 7.06886 -2.05723 18
625 2 0.206986 3.5515 -4.26322 19
626 2 1.39299 0.138682 -11.6651 11
627 2 2.92161 -7.18201 7.45637 19
628 2 7.2254 0.496922 -8.37269 12
629 2 -0.126498 -5.73133 -3.059 18
630 2 9.7013 -1.53796 -6.92266 13
631 2 -1.42658 -15.6363 -6.47716 8
632 2 8.59627 -8.17685 -11.3428 9
633 2 7.1884 -10.8352 -11.7617 8
634 2 2.15865 -17.3415 -2.01841 7
635 2 9.80021 11.1891 -0.683441 13
636 2 12.4475 0.771453 -1.55111 18
637 2 0.28076 4.04448 -10.3993 11
638 2 6.33399 -5.23468 0.148309 20
639 2 8.48682 7.66854 -9.24697 9
640 2 12.8036 4.29678 -1.33897 18
641 2 8.91495 -10.8268 0.597077 9
642 2 7.96884 -5.08085 -11.8666 9
643 2 13.5538 -0.870843 -3.32023 11
644 2 11.1045 5.77808 -3.64503 19
645 2 6.76954 -2.81952 -7.23091 17
646 2 9.23649 -6.64026 2.77802 12
647 2 9.99003 2.14627 -3.34014 18
648 2 13.5011 3.0663 2.03144 15
649 2 7.72469 4.13089 -8.77363 13
650 2 1.00699 -14.9827 -0.237441 11
651 1 4.72334 -3.15022 -6.82873 18
652 1 2.59025 -0.12086 -10.2208 13
653 1 5.24634 -13.6035 1.68738 10
654 1 2.83058 -3.20623 12.483 13
655 1 -0.134704 -10.7064 -3.44721 20
656 1 -0.864207 -7.5572 5.83766 16
657 1 -2.11957 -8.84903 3.48178 15
658 1 4.54448 -2.92774 -9.83066 16
659 1 -3.48355 -13.3703 1.70901 10
660 1 2.88458 -16.983 -3.71709 9
661 1 2.49805 -5.76664 6.26983 15
662 1 3.86126 0.32691 11.6271 15
663 1 -2.55414 -8.15301 7.96632 11
664 1 3.88296 -8.82915 7.11818 17
665 1 5.7602 -6.3556 5.09881 20
666 1 5.9484 -7.79216 1.63262 16
667 1 2.90254 -1.51975 3.81311 18
668 1 0.713902 -2.02793 7.61514 16
669 1 0.188111 -5.90228 3.67508 17
670 1 6.71192 -2.80089 4.93527 21
671 1 0.0272267 3.25097 -2.55057 22
672 1 3.47 -8.79624 -0.905034 18
673 1 -0.0027703 -5.70272 -1.02135 18
674 1 5.90057 -6.83395 -1.46961 20
675 1 3.43526 1.68593 5.74439 20
676 1 -0.241387 -2.79315 14.0099 8
677 1 3.06299 -5.05961 10.1182 18
678 1 6.06569 -7.21165 9.08655 12
679 1 1.28981 3.50708 4.61878 20
680 1 -0.619491 2.98118 2.67392 18
681 1 4.80434 1.78695 8.47588 22
682 1 9.97397 -9.41854 1.5755 8
683 1 5.74949 0.182093 3.56806 22
684 1 4.11624 5.94822 12.8712 11
685 1 -4.58755 -0.327874 5.10289 20
686 1 14.042 0.554018 -2.36265 11
687 1 4.12422 -1.18915 -1.08116 19
688 1 -0.300873 -13.8741 0.00827596 15
689 1 3.03511 -15.4121 -0.185735 10
690 1 1.94369 -12.0138 2.39751 12
691 1 8.03352 -7.01173 -7.08961 11
692 1 10.1039 -6.41761 1.30617 16
693 1 3.05833 -8.15771 10.9624 11
694 1 10.8922 -3.21612 0.685471 17
695 1 13.5555 4.79431 2.23465 15
696 1 10.3686 0.170939 -3.42234 23
697 1 4.50197 -10.6043 2.91821 11
698 1 7.30352 -11.3085 2.36312 12
699 1 12.8738 -1.61552 2.14366 14
700 1 9.19319 -1.1787 -0.161253 18
701 1 6.51633 -9.4905 5.91004 12
702 1 9.66896 -1.34117 4.95751 21
703 1 -0.867947 -11.3014 0.913968 17
704 1 12.9131 1.97324 8.02535 14
705 1 10.3758 -3.98422 3.24007 14
706 1 4.82176 -12.5134 -0.978286 14
707 1 9.36867 0.361964 -6.19863 17
708 1 13.594 -2.42428 -2.06907 11
709 1 10.7043 -3.84493 6.84159 7
710 2 2.22092 -6.20542 3.25262 16
711 2 0.884339 -12.351 -4.0603 15
712 2 4.97472 -13.0027 -4.25426 16
713 2 5.10055 -10.2036 4.88109 12
714 2 6.36005 -11.7405 -1.69104 12
715 2 5.8401 -14.573 -6.25004 10
716 2 3.90586 -12.2966 1.88691 15
717 2 2.41633 -10.1026 3.3889 12
718 2 0.02616 -0.734279 4.75113 15
719 2 4.39778 -14.3161 0.0510596 8
720 2 5.13926 -6.27089 -3.27803 21
721 2 4.56135 -7.21678 9.98795 14
722 2 -0.74568 -4.15315 4.28623 17
723 2 7.28252 -7.54458 5.456 15
724 2 0.5868 -6.09135 5.60938 17
725 2 -5.83373 -1.97946 5.68276 19
726 2 -2.02692 0.968205 10.6413 18
727 2 -1.58798 -13.3981 1.34624 13
728 2 5.81058 2.02932 4.0385 20
729 2 1.42923 -1.48736 -0.121429 21
730 2 7.02858 1.07336 -2.3376 19
731 2 4.61579 7.71142 0.45755 20
732 2 5.99446 -3.14034 2.90799 20
733 2 -5.27265 -9.61047 1.96581 16
734 2 5.6444 -1.47705 -2.16006 17
735 2 -4.28629 1.33535 6.08747 19
736 2 2.26513 -0.138495 2.27919 21
737 2 5.05766 4.14499 -1.37641 20
738 2 1.72946 -8.04395 -0.274863 16
739 2 0.228413 3.60742 11.9076 12
740 2 10.9938 -5.23768 0.112095 13
741 2 2.88406 -1.48213 11.5036 16
742 2 3.05967 3.43579 5.34769 20
743 2 -1.53289 1.1745 6.69435 17
744 2 4.46701 -9.42976 -2.78967 22
745 2 2.65054 5.92689 -2.3434 17
746 2 -1.70996 -3.78112 14.2075 8
747 2 9.13041 -0.746083 -2.18337 20
748 2 -0.236282 -8.89547 7.55293 12
749 2 5.28561 -6.02838 2.58506 18
750 2 5.88965 -9.75294 2.2869 14
751 2 -3.92854 -4.49654 3.92811 16
752 2 -2.28066 -6.43613 6.89322 18
753 2 4.84181 -7.69605 -0.018898 14
754 2 12.0714 7.11694 8.10853 14
755 2 6.69091 -2.78704 -9.83557 13
756 2 2.67587 -13.018 -6.83135 20
757 2 6.97142 -9.85051 -4.59685 15
758 2 9.35363 -7.80215 0.38151 14
759 2 4.10936 -2.89918 0.0780337 16
760 2 8.81859 -3.58935 1.94696 20
761 2 6.26033 -5.93515 7.87753 15
762 2 7.30577 -7.97036 -2.14139 16
763 2 3.5893 1.05911 -6.27712 19
764 2 6.79458 -12.603 1.2747 10
765 2 6.71987 -2.5192 9.9454 12
766 2 -0.636424 -4.13908 -5.47213 17
767 2 -0.593757 -7.55124 3.83827 17
768 2 7.28871 -8.72993 -7.7729 13
769 1 5.33155 -6.9552 -11.789 11
770 1 3.28724 12.1463 -5.40104 12
771 1 -3.81154 -2.32156 -9.86879 17
772 1 4.47152 9.05024 -4.63304 15
773 1 2.61676 -4.81416 -7.70588 19
774 1 8.24442 9.18784 -4.75893 15
775 1 -1.49212 12.6088 -5.53568 20
776 1 1.92589 0.174498 -13.5453 8
777 1 1.9225 4.06983 -9.511 12
778 1 -1.84121 8.37431 -9.64198 11
779 1 3.08401 3.87459 -1.29825 19
780 1 9.2779 4.66472 -3.53759 19
781 1 17.2555 2.58016 -1.06499 4
782 1 11.6659 5.53875 0.00363658 20
783 1 1.49151 -2.86015 -4.14242 19
784 1 2.62971 1.29242 -1.83854 19
785 1 -4.5685 8.66851 -7.16403 11
786 1 3.59494 13.2361 -2.49655 13
787 1 7.95947 8.14211 -1.27103 24
788 1 -1.38814 13.5479 -9.87209 9
789 1 -1.13174 15.5228 -7.23999 13
790 1 0.543587 9.73477 2.60267 18
791 1 -4.35662 12.057 0.834332 13
792 1 7.86075 9.08487 -10.0986 5
793 1 3.14011 14.2491 1.49703 9
794 1 -2.94924 4.84353 -10.4664 11
795 1 5.69365 6.68895 1.56577 18
796 1 -6.57812 9.78572 -4.11853 14
797 1 -3.27738 0.239503 -0.394023 18
798 1 10.5052 6.43009 -5.56656 13
799 1 -3.92714 15.0404 -4.82553 12
800 1 -5.05418 12.2121 -5.34602 12
801 1 13.1587 8.25672 -1.34179 14
802 1 3.70486 6.61709 -9.97443 12
803 1 -2.77058 -5.47898 -10.4339 14
804 1 12.9497 1.39254 2.80175 18
805 1 8.39144 -5.18399 -3.89452 18
806 1 3.02906 -1.14029 -7.30344 19
807 1 6.78026 0.167158 0.670091 21
808 1 0.119651 14.5601 -0.570077 12
809 1 6.79319 7.2354 -3.8204 15
810 1 6.7218 -7.76506 -4.0538 20
811 1 0.652678 -8.85631 3.17322 15
812 1 7.62217 -1.93819 2.74271 17
813 1 10.1047 5.08244 3.66701 18
814 1 2.31367 4.83094 -3.78536 17
815 1 5.6511 13.5169 -1.09694 11
816 1 -4.4599 13.9989 -8.00559 10
817 1 11.3583 10.347 -0.262882 11
818 1 5.42251 1.88024 -2.343 21
819 1 7.7071 9.16819 2.45127 19
820 1 11.3836 5.56445 8.9512 16
821 1 6.95711 11.2635 -2.59496 17
822 1 7.16278 0.630211 5.97793 22
823 1 12.8109 -0.727341 5.12902 15
824 1 9.04191 11.7448 2.82345 10
825 2 5.26938 6.17513 -9.05874 13
826 2 6.60175 4.83663 1.85029 17
827 2 4.46676 -5.44719 -11.3364 15
828 2 8.47418 11.0987 -3.93944 10
829 2 3.45795 7.97759 -8.59811 10
830 2 12.6179 3.78608 -4.8744 10
831 2 16.6344 4.41615 -1.20577 6
832 2 2.78397 3.65229 -7.82846 18
833 2 6.14221 9.2216 -9.101 7
834 2 15.1587 1.78405 -0.801047 12
835 2 1.8334 0.0413039 -8.33155 17
836 2 0.23941 3.41539 0.982003 17
837 2 -7.20102 1.14253 -1.68127 20
838 2 5.91607 -8.79311 -10.5968 14
839 2 1.09024 2.28195 3.26155 18
840 2 11.3884 7.26587 -0.683597 18
841 2 2.22602 -10.565 -11.9217 10
842 2 -2.95368 8.98218 -8.22182 13
843 2 3.86353 12.3624 2.15916 14
844 2 11.554 9.33045 -2.0023 12
845 2 -8.12928 9.0113 -4.84836 12
846 2 10.005 5.15627 -6.79946 14
847 2 -5.37116 10.5613 1.80976 13
848 2 -1.42052 5.84288 -5.07533 15
849 2 -0.322351 14.4628 -5.23294 16
850 2 5.44013 12.3759 -2.7824 16
851 2 -2.83662 5.75927 3.19575 18
852 2 7.75981 -6.76453 -5.14111 16
853 2 8.33624 -3.45141 -5.31761 17
854 2 -4.64188 3.79499 3.07454 19
855 2 14.0319 7.12506 -2.49805 10
856 2 2.4092 13.2249 -3.93425 13
857 2 0.0115263 12.2429 -10.3633 8
858 2 9.18505 7.68576 -5.57349 14
859 2 12.2292 9.35435 1.11419 11
860 2 -3.33546 13.2427 -5.15239 18
861 2 6.92134 9.97612 -1.27551 21
862 2 8.22986 -0.5041 1.57576 23
863 2 11.9106 5.43673 10.8791 10
864 2 5.36619 -10.9318 -6.76956 16
865 2 6.16079 -13.4444 -9.7458 9
866 2 7.03284 -4.36833 -2.59064 18
867 2 11.0084 1.81557 2.98736 23