ITEM: TIMESTEP
217000
ITEM: NUMBER OF ATOMS
5760
ITEM: BOX BOUNDS pp pp pp
0.9568289974 32.7031710026
-0.4080568936 34.0680568936
-0.929356987 66.729356987
ITEM: ATOMS id type x y z Coordination
1 1 8.59442 16.1975 21.1647 19
2 1 20.9026 17.7659 51.1696 20
3 1 28.1826 18.1281 6.53221 20
4 1 19.2714 29.5236 -0.697774 22
5 1 16.2861 16.2635 46.2324 23
6 1 27.3322 28.4281 62.1243 22
7 1 1.60317 13.7045 13.9989 21
8 1 8.89968 8.92752 33.1356 18
9 1 24.773 22.243 2.72791 22
10 1 13.5333 24.4299 66.5258 21
11 1 19.1181 18.7097 8.95776 21
12 1 16.37 21.5544 59.0599 22
13 1 31.0473 9.34628 6.45464 18
14 1 2.39302 1.10976 7.60979 22
15 1 17.1262 8.00377 41.0676 20
16 1 6.30015 4.6778 8.28967 20
17 1 22.7454 3.38085 30.6993 21
18 1 5.20594 26.1947 17.8723 21
19 1 10.0144 32.9802 21.1397 20
20 1 30.2065 29.8295 26.7489 23
21 1 2.2987 4.69493 7.61314 17
22 1 22.5756 2.6726 58.5238 22
23 1 4.42676 0.857425 55.692 19
24 1 16.7795 1.44456 8.94699 20
25 1 6.67457 2.89246 60.5401 23
26 1 14.1729 33.8655 7.73001 20
27 1 11.058 3.97535 27.522 20
28 1 4.97325 6.11264 15.4232 22
29 1 16.5647 23.568 20.7333 21
30 1 21.7795 18.9703 58.1401 19
31 1 16.37 2.70348 63.2377 19
32 1 10.2619 24.5895 3.69218 21
33 1 25.3895 20.5764 12.0764 21
34 1 8.93498 23.5454 6.42288 16
35 1 29.1852 21.6765 6.02839 24
36 1 13.6601 15.6195 57.8736 19
37 1 19.2042 18.3831 66.6013 21
38 1 2.05388 26.3108 53.2422 21
39 1 11.9734 21.0633 32.4252 20
40 1 23.0033 13.9724 65.9477 19
41 1 25.8458 25.3001 2.68216 22
42 1 30.3516 28.5129 56.2808 21
43 1 26.8931 11.1247 5.94636 19
44 1 26.7468 13.0661 45.5146 22
45 1 30.0485 12.365 61.3678 24
46 1 32.6072 19.3571 44.1722 18
47 1 21.3555 13.7439 5.83835 22
48 1 4.9244 31.2255 21.3962 20
49 1 25.4017 14.2069 21.0634 20
50 1 1.03396 -0.170998 40.7059 18
51 1 25.1238 18.2579 0.962599 17
52 1 14.4259 22.6504 53.0151 18
53 1 7.64609 25.6891 22.9254 24
54 1 4.10064 13.7924 19.0891 20
55 1 28.3524 0.909713 15.4756 20
56 1 3.59191 30.2774 25.4189 19
57 1 23.4033 20.5525 8.64787 22
58 1 2.12665 22.8785 3.52429 22
59 1 13.8289 19.3936 27.551 18
60 1 4.9449 31.0754 -0.203997 21
61 1 28.0802 22.3443 61.4847 22
62 1 2.46241 24.8691 64.4811 21
63 1 23.8813 11.5094 -0.724864 21
64 1 32.4007 33.4738 65.1481 19
65 1 8.13399 27.5202 17.5163 19
66 1 7.69018 26.4354 0.352098 23
67 1 29.4914 19.1158 61.479 20
68 1 5.97917 6.27495 38.8177 21
69 1 21.6188 27.7779 64.2813 22
70 1 1.08815 6.66897 23.7644 19
71 1 16.23 7.71694 1.56441 20
72 1 25.8447 25.381 11.5778 21
73 1 10.8316 26.1853 50.0106 19
74 1 3.82874 26.879 1.98533 20
75 1 31.8327 33.9765 62.4454 18
76 1 26.5318 28.3772 19.6637 20
77 1 1.62482 26.9844 7.40614 18
78 1 2.03744 13.087 31.8437 19
79 1 2.75604 7.15994 1.16181 18
80 1 2.87223 24.2067 9.48359 21
81 1 30.3745 23.9712 7.67423 23
82 1 27.3328 26.3695 65.7209 19
83 1 5.4818 24.6453 14.5093 18
84 1 23.931 8.65359 15.6185 22
85 1 19.0162 7.35396 -0.694063 18
86 1 19.653 10.1122 2.2502 19
87 1 18.5677 28.5658 18.6221 22
88 1 25.4927 27.6248 56.0642 18
89 1 3.89367 -0.306748 5.43315 22
90 1 8.16039 15.7853 8.53467 21
91 1 21.2224 4.55833 52.529 22
92 1 9.47487 32.9848 -0.0649245 23
93 1 17.6598 17.2054 19.5143 19
94 1 31.9476 25.801 51.6906 23
95 1 30.814 30.1913 42.572 20
96 1 30.0399 21.7123 -0.0844252 18
97 1 3.56134 0.0230935 16.4053 22
98 1 1.84821 27.8287 64.0288 26
99 1 2.35128 30.3773 42.5257 20
100 1 16.2813 14.6477 20.7425 18
101 1 16.6646 1.11138 20.9955 17
102 1 9.14162 16.3062 17.9702 19
103 1 19.7024 29.9809 3.70186 20
104 1 6.09372 19.7296 64.393 19
105 1 31.5683 8.86491 2.56969 18
106 1 22.9672 0.0910731 34.0678 15
107 1 15.9604 21.0553 7.39532 19
108 1 5.82289 26.885 6.2023 19
109 1 18.2183 11.1541 20.1436 18
110 1 30.7376 28.1021 2.51999 20
111 1 28.1334 21.5446 48.1448 23
112 1 29.0131 11.3803 8.41251 21
113 1 1.97339 26.1584 28.9367 25
114 1 31.2549 32.1521 -0.321501 18
115 1 27.4321 25.3924 59.2251 21
116 1 17.7834 31.7938 2.32092 17
117 1 11.7275 14.5313 1.40764 22
118 1 19.2972 3.91474 42.7172 20
119 1 24.0874 27.4974 1.28959 21
120 1 28.7916 26.0263 17.5155 18
121 1 20.3734 24.6236 12.9675 21
122 1 13.2171 8.52625 2.00984 21
123 1 4.44505 9.50308 0.332266 22
124 1 23.6486 19.4695 3.82433 17
125 1 30.5013 23.3736 36.455 21
126 1 14.3965 15.2478 3.67849 21
127 1 4.17282 32.9148 65.3956 18
128 1 26.6074 13.934 3.20741 23
129 1 19.8808 13.2984 65.8176 21
130 1 11.0063 1.06954 2.34184 22
131 1 19.7933 11.7805 38.313 21
132 1 29.877 15.2365 61.341 19
133 1 25.2258 0.0885861 2.61108 18
134 1 17.4875 26.3216 21.3776 22
135 1 8.52571 31.2585 28.8813 19
136 1 10.9184 17.0198 8.52163 22
137 1 24.1106 33.3251 13.4246 22
138 1 13.4335 19.3626 1.88457 23
139 1 9.45644 26.7609 13.0112 18
140 1 30.1604 21.3798 39.0904 20
141 1 22.7183 19.3168 63.683 20
142 1 23.818 9.22042 9.10243 22
143 1 14.1037 10.6055 56.7178 23
144 1 10.8592 20.5196 6.58219 16
145 1 20.5911 23.8649 2.01886 24
146 1 19.882 22.1536 11.9814 19
147 1 24.008 16.7324 57.5381 22
148 1 29.1456 11.809 65.0661 18
149 1 11.9495 8.58364 33.9806 19
150 1 12.8615 4.2578 23.9137 21
151 1 5.07331 10.5947 6.33317 21
152 1 18.2832 10.4717 8.7917 21
153 1 17.5984 1.0234 65.949 19
154 1 13.8204 30.8283 9.5646 20
155 1 26.7265 0.279789 65.4167 23
156 1 3.64529 21.4355 7.84886 21
157 1 11.0874 32.3482 38.192 22
158 1 11.7775 30.5904 17.4929 19
159 1 22.1185 31.8827 15.7556 21
160 1 4.56314 17.0176 13.7418 18
161 1 20.8711 4.30041 1.40549 16
162 1 26.0578 10.1529 16.8402 17
163 1 4.61127 25.8 12.2946 17
164 1 31.3457 21.0906 61.145 21
165 1 24.5705 4.8555 15.5277 21
166 1 4.90813 13.025 24.0178 20
167 1 26.8185 8.31552 4.47179 19
168 1 16.5048 28.5856 51.626 22
169 1 7.03538 -0.096604 10.215 22
170 1 9.39888 28.6639 27.3216 23
171 1 30.6081 20.7847 19.7616 21
172 1 20.952 16.6492 64.9541 22
173 1 13.2989 9.88472 15.3988 21
174 1 16.14 26.7729 0.259305 22
175 1 21.4025 24.029 63.8819 20
176 1 31.4926 3.21706 49.6638 20
177 1 8.917 14.0727 16.1096 23
178 1 16.7224 12.0001 13.566 21
179 1 7.02527 10.5257 2.99055 23
180 1 23.6911 24.4699 58.2967 19
181 2 10.242 11.7923 54.1511 24
182 2 27.2399 18.1461 65.0589 24
183 2 31.4452 4.44338 1.44203 18
184 2 18.7059 22.5475 26.5732 22
185 2 10.733 30.6306 23.2522 18
186 2 14.6355 31.2009 66.5427 21
187 2 29.6519 25.586 25.1619 20
188 2 5.9998 23.0669 61.6662 21
189 2 28.7087 14.7028 1.52677 20
190 2 6.3952 17.1741 21.7238 22
191 2 30.9842 28.1438 4.42904 20
192 2 19.9968 11.5856 28.4983 22
193 2 20.6776 29.8434 23.7285 22
194 2 6.00604 7.0999 31.7554 18
195 2 26.1875 30.8965 34.9146 18
196 2 26.2591 19.4536 10.7562 22
197 2 12.7005 8.26601 29.0924 22
198 2 29.168 7.55712 30.0989 23
199 2 12.6747 -0.335198 54.4568 22
200 2 25.362 16.64 9.96107 17
201 2 4.44544 29.7801 59.0032 19
202 2 16.9699 11.7309 63.1648 19
203 2 18.573 6.17773 65.6074 18
204 2 30.7254 2.24669 51.5382 18
205 2 2.6115 30.6386 44.4167 18
206 2 18.4167 21.4039 51.8018 21
207 2 3.20843 0.591922 27.2814 19
208 2 14.9538 33.6711 52.0023 23
209 2 24.0639 27.8172 57.3008 20
210 2 28.0453 27.8245 8.71303 21
211 2 20.5541 9.18507 64.2084 19
212 2 25.7265 17.9775 2.93511 16
213 2 31.5777 11.344 28.5187 21
214 2 14.8912 3.89902 63.9692 19
215 2 26.777 32.252 25.6539 18
216 2 15.0742 7.88039 51.4645 19
217 2 29.9693 14.421 20.5519 19
218 2 26.3378 5.69374 15.0379 19
219 2 7.07584 10.5824 16.413 17
220 2 7.10939 5.70393 28.013 20
221 2 20.8341 13.6311 47.19 22
222 2 23.1948 2.70234 11.5623 20
223 2 31.3073 16.3585 49.3227 19
224 2 19.7025 32.3678 60.3403 15
225 2 3.77405 4.87323 62.4272 20
226 2 30.602 29.8793 23.3103 24
227 2 2.07325 27.7099 3.35685 22
228 2 29.6756 29.9429 64.108 21
229 2 2.64042 18.8813 59.5114 20
230 2 13.4718 0.715005 1.39566 20
231 2 4.13421 12.7597 12.5031 20
232 2 24.5204 -0.270648 23.3313 21
233 2 30.3712 26.8483 61.5671 19
234 2 30.6701 12.8346 64.8612 19
235 2 5.55423 22.5301 21.7877 22
236 2 12.1272 16.2461 57.1606 21
237 2 9.61022 6.27405 2.23367 21
238 2 5.53079 3.73107 48.448 21
239 2 19.7808 24.1566 53.21 22
240 2 23.966 15.4375 20.7343 19
241 2 10.7835 33.0227 63.2436 23
242 2 24.7151 18.8946 31.6622 19
243 2 13.4471 26.5887 63.2842 24
244 2 12.3918 17.8186 1.32893 22
245 2 9.63287 17.7312 56.0382 22
246 2 11.7288 9.99529 58.2741 20
247 2 13.5864 17.1376 23.5142 19
248 2 2.2365 1.49216 62.9402 24
249 2 13.8959 19.9547 3.60975 19
250 2 13.2154 11.4883 11.375 18
251 2 12.6994 15.9701 18.3877 25
252 2 12.0515 20.8922 50.243 20
253 2 1.669 9.45215 19.5442 19
254 2 3.83318 4.6795 17.3559 19
255 2 30.8952 1.13311 54.3687 21
256 2 15.7775 3.20316 17.0466 21
257 2 13.0864 19.5279 10.3599 24
258 2 15.7685 29.9509 6.27047 19
259 2 15.723 6.54997 41.2524 22
260 2 28.8231 22.4983 23.7751 21
261 2 12.7241 32.0895 27.0908 21
262 2 1.4362 10.9543 66.1421 20
263 2 27.4115 25.3214 -0.148161 21
264 2 20.211 21.5396 18.3578 17
265 2 10.7345 27.082 65.2904 21
266 2 9.25955 15.4257 47.7568 22
267 2 31.8984 5.09844 50.742 18
268 2 11.392 5.4535 21.2867 18
269 2 1.79124 5.47399 0.716639 20
270 2 7.7606 25.5875 1.84386 21
271 2 14.7339 22.4417 8.75449 21
272 2 13.7129 21.9382 13.4658 20
273 2 14.0124 16.8437 65.9911 21
274 2 20.2989 21.5819 38.3434 19
275 2 19.0505 10.6416 4.27138 20
276 2 9.80172 9.31985 23.3312 21
277 2 13.3638 24.6762 0.79217 23
278 2 10.7592 1.11435 11.5677 22
279 2 18.4067 10.2375 39.4411 20
280 2 22.8307 19.4266 2.10217 21
281 2 19.9986 12.2459 15.1029 20
282 2 2.01294 3.09463 9.43623 20
283 2 21.2131 2.77257 0.409071 19
284 2 14.1441 14.4937 1.86266 20
285 2 29.4558 5.50485 42.2254 20
286 2 25.3961 5.45067 3.07967 20
287 2 8.78697 22.8315 -0.577081 22
288 2 12.1297 12.5398 0.852657 20
289 2 2.77612 25.2895 30.7679 22
290 2 32.0132 8.11869 24.7193 20
291 2 28.351 31.4877 21.0034 21
292 2 13.3933 1.79025 66.1499 18
293 2 18.2043 24.5227 -0.754506 24
294 2 8.33192 30.9377 36.3157 21
295 2 17.4849 17.754 9.22539 22
296 2 4.05446 16.957 7.75292 20
297 2 8.00618 16.41 6.56157 20
298 2 21.8068 32.0832 22.8909 22
299 2 24.672 16.1505 53.3194 21
300 2 4.00798 20.7995 2.32362 21
301 2 21.4205 7.96663 46.9958 15
302 2 9.17734 10.7378 6.66756 22
303 2 30.5978 9.91908 56.5964 18
304 2 5.92186 32.3535 60.3165 22
305 2 15.1738 5.25035 5.51218 17
306 2 7.32857 4.60989 65.7714 17
307 2 13.9151 31.2265 50.5959 22
308 2 23.5177 30.1996 15.9693 23
309 2 9.97468 31.7203 56.3591 19
310 2 11.0074 7.65684 65.9136 21
311 2 30.579 24.6674 9.28271 21
312 2 8.52596 29.4978 17.9997 22
313 2 19.2974 21.7486 -0.865371 22
314 2 6.67385 22.03 27.2089 18
315 2 28.6699 25.1249 22.7461 21
316 2 16.718 25.1426 1.31723 21
317 2 8.62408 3.92845 11.5344 22
318 2 14.9709 23.8432 44.4559 21
319 2 29.3656 16.7303 5.86209 19
320 2 2.17988 29.0769 35.8281 18
321 2 13.0049 17.433 4.20834 18
322 2 12.7073 7.30592 18.015 21
323 2 28.3231 13.9559 41.465 22
324 2 10.9734 12.6737 57.1526 23
325 2 4.71467 24.7044 10.7325 20
326 2 10.7716 3.45226 3.52654 18
327 2 15.2553 18.873 26.6104 24
328 2 15.6737 1.63646 19.3755 23
329 2 23.5767 2.52431 24.1147 19
330 2 27.2181 21.3077 64.8508 19
331 2 9.44088 22.2413 22.5092 18
332 2 8.24857 11.1819 9.66759 22
333 2 18.6146 19.1666 25.8571 22
334 2 32.011 28.1783 8.73768 21
335 2 29.6676 23.479 61.9399 14
336 2 13.6473 26.6347 10.0745 22
337 2 6.29334 10.4845 59.9863 22
338 2 27.3445 20.2818 23.6906 20
339 2 27.8576 0.753705 20.0958 17
340 2 4.19222 28.7118 22.9294 20
341 2 5.05043 18.0248 58.1736 20
342 2 1.46332 6.3517 48.3055 18
343 2 23.7822 11.0732 62.2486 17
344 2 9.84876 15.2681 8.93492 19
345 2 17.6044 13.7368 14.2239 22
346 2 28.7016 33.8026 54.9928 22
347 2 16.4869 12.8154 1.96202 20
348 2 3.78172 14.4455 7.74181 19
349 2 24.8503 5.15908 6.15964 21
350 2 21.7179 3.67914 6.68566 25
351 2 1.69086 14.1681 56.6854 18
352 2 4.53988 10.588 61.5016 22
353 2 13.5021 8.3875 32.7708 23
354 2 21.0227 18.5551 13.5195 18
355 2 4.85028 7.14332 20.081 23
356 2 26.035 22.5775 5.77472 19
357 2 1.93707 16.2182 9.1605 23
358 2 2.07877 28.8418 6.81705 21
359 2 2.46094 11.7852 8.32975 20
360 2 19.6001 33.8805 5.71341 20
361 1 7.21106 13.751 11.7582 19
362 1 15.9138 30.5522 33.745 20
363 1 7.27007 22.431 22.6327 23
364 1 27.4572 20.7024 -0.884324 21
365 1 21.182 16.5432 24.3392 21
366 1 2.98815 30.2794 22.4164 19
367 1 14.2994 20.5114 20.2567 19
368 1 32.1571 19.1459 41.2597 21
369 1 26.0511 2.55238 28.9329 21
370 1 8.87299 8.24614 66.0255 20
371 1 1.08707 31.3592 27.3057 19
372 1 3.93512 3.16028 58.9228 22
373 1 15.6108 2.42299 22.8838 22
374 1 3.11087 25.6063 15.2511 22
375 1 26.2874 8.06519 26.8273 19
376 1 7.63736 14.8925 35.4168 18
377 1 32.103 13.4927 47.5487 26
378 1 13.9798 31.2311 28.411 18
379 1 5.19145 0.783476 35.578 21
380 1 22.8499 11.9187 35.555 17
381 1 8.27084 21.3483 26.0582 22
382 1 17.9914 -0.0359914 63.3462 18
383 1 17.7635 32.9773 34.2896 23
384 1 1.59185 25.2749 32.2878 20
385 1 18.3506 3.46762 27.4161 21
386 1 15.2085 17.5974 24.967 21
387 1 27.6416 13.9594 49.5143 20
388 1 12.0402 14.5846 9.15614 20
389 1 13.9799 15.5545 21.9018 21
390 1 31.8967 8.13142 17.801 20
391 1 25.6634 21.2637 24.502 21
392 1 24.1011 29.6597 7.63326 23
393 1 17.1395 24.7883 40.164 20
394 1 7.65804 19.6841 50.7981 21
395 1 19.0733 15.5933 7.47111 22
396 1 24.4459 16.4784 26.3549 19
397 1 6.77596 29.9582 35.5143 20
398 1 7.92665 6.01479 36.0649 19
399 1 4.72605 26.5357 26.6657 21
400 1 19.3335 6.07223 44.9078 20
401 1 30.7335 20.0773 3.39632 19
402 1 4.87127 22.5791 2.0371 20
403 1 1.68953 12.8622 28.378 21
404 1 31.4667 6.62055 25.9201 19
405 1 31.0921 28.1021 60.4965 18
406 1 10.4308 21.0693 0.565959 23
407 1 9.94812 25.5845 32.1736 19
408 1 1.59661 4.29634 23.6522 21
409 1 6.36342 12.0494 17.2582 21
410 1 25.6687 14.5481 27.7841 21
411 1 6.5167 20.6833 12.4655 18
412 1 29.7762 31.7561 22.1746 23
413 1 5.51378 21.9789 30.9834 22
414 1 26.7274 19.5493 2.84478 16
415 1 5.08933 12.7117 1.03387 22
416 1 32.0014 10.2231 42.1641 19
417 1 20.6482 24.3915 42.622 20
418 1 2.2296 22.6834 40.4306 20
419 1 3.35599 23.4514 43.8819 20
420 1 25.5739 16.4967 41.4706 23
421 1 3.13459 21.6663 15.9268 21
422 1 22.9441 25.4011 11.8818 20
423 1 22.1991 11.3668 25.5087 22
424 1 28.3819 15.1497 21.4555 22
425 1 5.6978 33.7833 30.7393 21
426 1 21.9966 10.0371 7.06595 22
427 1 4.85876 5.93898 10.658 22
428 1 28.0483 28.1807 31.1855 19
429 1 18.7534 5.69825 18.9412 24
430 1 7.05097 27.4954 14.4785 21
431 1 6.54354 28.3982 29.7538 19
432 1 20.2824 3.02346 17.4923 22
433 1 15.0727 30.4514 25.025 20
434 1 22.0805 31.9329 29.7662 22
435 1 6.24061 0.963271 18.4152 18
436 1 27.0499 0.799667 18.0461 18
437 1 2.54102 33.6809 35.6127 21
438 1 11.1877 29.6005 43.6722 20
439 1 14.5012 29.8602 12.8356 20
440 1 28.7546 16.5977 59.4116 22
441 1 12.3197 33.5708 25.9374 21
442 1 16.4833 18.8196 10.4583 23
443 1 25.1272 9.33286 1.01664 20
444 1 13.8978 22.0635 40.2793 20
445 1 24.4326 6.5499 30.0877 19
446 1 3.66526 33.7858 23.3779 20
447 1 11.3605 14.4723 5.96583 22
448 1 27.5341 26.1654 14.3958 21
449 1 20.0898 15.0665 21.323 20
450 1 4.7606 28.7755 17.0208 21
451 1 24.5088 11.9786 30.4014 20
452 1 3.46051 11.0157 2.75611 19
453 1 25.1387 32.1588 35.8269 20
454 1 13.1243 13.6697 42.2804 21
455 1 16.8882 28.0536 13.6198 21
456 1 6.27806 13.5385 29.8822 21
457 1 29.7943 12.9448 21.7684 21
458 1 16.3341 16.4094 17.0019 21
459 1 4.15876 32.441 27.3697 22
460 1 1.13337 4.85243 10.1771 22
461 1 16.7458 10.9843 24.7638 20
462 1 3.11849 12.2697 66.6686 22
463 1 3.3083 8.08902 18.9972 23
464 1 28.1525 29.1376 65.169 25
465 1 2.83727 24.0011 27.5137 21
466 1 27.9175 4.11398 13.5495 22
467 1 30.4434 18.1689 13.5736 21
468 1 4.8507 20.2551 10.2064 20
469 1 31.8336 22.1162 1.87499 21
470 1 19.2119 13.4363 10.6969 20
471 1 11.9965 10.8592 2.33181 24
472 1 26.8166 31.2963 17.8549 22
473 1 22.9794 16.8455 21.9387 21
474 1 32.0345 11.1551 15.7998 24
475 1 2.43528 1.06541 29.4412 21
476 1 2.23294 25.0066 35.6384 18
477 1 17.4518 15.4264 26.9565 22
478 1 30.296 13.4358 10.3405 21
479 1 13.986 15.2889 26.6398 21
480 1 14.7063 3.08206 15.3688 20
481 1 27.0588 3.37571 0.185222 18
482 1 27.0496 5.44946 5.17435 17
483 1 9.41842 19.4109 23.7909 23
484 1 26.9898 20.3543 8.57223 21
485 1 14.4024 9.34263 23.9753 21
486 1 27.9875 28.9396 14.3826 17
487 1 29.826 22.2657 52.9629 18
488 1 31.2994 8.70857 34.5041 21
489 1 8.10406 13.9254 23.2802 26
490 1 32.6058 29.1057 4.06722 21
491 1 3.91965 10.6602 51.8397 19
492 1 11.488 30.7717 41.0741 21
493 1 26.5981 11.7711 0.576665 18
494 1 29.3835 9.82461 29.1425 20
495 1 9.01833 28.9744 10.9584 21
496 1 20.8051 22.5084 23.5769 19
497 1 7.41525 4.01157 14.6294 23
498 1 27.6902 8.34733 23.953 20
499 1 9.21254 33.3386 32.1058 23
500 1 15.4635 11.1556 16.1561 17
501 1 12.2615 2.71783 10.8768 23
502 1 32.1117 15.9947 39.7622 21
503 1 2.66548 12.0652 11.2731 22
504 1 12.201 26.9063 36.3902 20
505 1 11.3555 25.4063 1.29318 21
506 1 24.1159 1.39383 41.8504 23
507 1 8.35907 18.8741 34.3259 19
508 1 31.0383 22.8145 4.1063 21
509 1 8.63837 7.11932 7.59467 21
510 1 18.7044 30.1907 46.8953 22
511 1 16.399 12.0432 21.6514 19
512 1 29.7194 24.9339 2.85014 21
513 1 16.3454 29.1364 4.46159 23
514 1 4.34387 13.2006 26.927 21
515 1 13.0455 15.9248 38.3422 21
516 1 5.88228 8.04904 21.5624 19
517 1 3.8078 16.1515 37.0434 18
518 1 3.19324 16.8008 18.8645 22
519 1 14.5957 18.7522 66.0 21
520 1 13.5581 24.8774 26.8406 21
521 1 10.0184 26.7728 9.85001 19
522 1 16.6593 13.6125 18.1209 20
523 1 25.8953 20.0005 27.6251 18
524 1 17.9419 7.89672 14.7525 18
525 1 30.3153 17.9282 53.7374 24
526 1 27.9453 31.848 4.29742 22
527 1 28.1935 26.4023 51.7686 22
528 1 1.34054 21.5357 46.5216 16
529 1 19.9588 0.870031 4.46982 20
530 1 14.301 5.90828 21.7415 23
531 1 9.41945 20.2803 14.1636 19
532 1 26.0798 20.4627 51.0193 22
533 1 9.84882 15.6765 11.0241 18
534 1 30.451 9.20791 13.116 26
535 1 21.5373 12.1354 29.9676 19
536 1 18.2096 7.74174 18.0844 23
537 1 20.4742 8.71961 24.0211 21
538 1 8.94496 10.5047 22.2914 21
539 1 29.4249 1.61359 38.5561 21
540 1 27.0225 33.0931 37.4327 18
541 2 20.8281 25.5329 30.773 25
542 2 11.7859 32.8637 15.5349 19
543 2 22.3388 0.516547 42.7803 20
544 2 29.4068 31.4546 26.3929 23
545 2 12.7648 21.7009 30.6673 18
546 2 21.7259 2.89404 18.6899 20
547 2 9.70938 7.10384 19.4445 22
548 2 30.9414 15.9485 3.17456 19
549 2 11.4266 14.3416 41.3452 21
550 2 14.1166 10.7591 17.303 20
551 2 4.15503 1.83318 20.0317 18
552 2 5.66187 30.5104 11.1259 20
553 2 3.8553 7.26768 22.9952 20
554 2 31.9474 24.5984 36.6141 18
555 2 2.09373 2.70346 24.621 22
556 2 30.8737 16.3239 56.2702 21
557 2 13.6015 12.2213 47.1275 22
558 2 2.3673 14.5961 28.2507 20
559 2 10.2057 21.9376 37.2626 23
560 2 26.9613 25.1713 26.2605 21
561 2 22.2155 8.64078 8.20793 20
562 2 13.7537 31.5216 37.8966 21
563 2 14.3338 12.227 14.7474 23
564 2 1.97416 1.75738 14.0469 17
565 2 11.6872 25.3636 -0.93755 18
566 2 32.2345 13.7864 9.29305 20
567 2 28.9707 8.23507 44.6784 20
568 2 15.7006 19.3532 20.1314 15
569 2 15.87 9.1974 8.03877 17
570 2 30.6801 8.49483 27.7106 22
571 2 24.8578 13.5344 66.6151 22
572 2 25.923 29.6413 54.9467 21
573 2 17.4364 0.362773 27.2651 21
574 2 11.0042 10.2573 48.3062 23
575 2 12.3468 12.9408 44.0098 22
576 2 21.7723 33.5824 44.9497 20
577 2 24.111 0.713209 39.7678 20
578 2 6.93355 8.16562 54.7956 20
579 2 9.84242 33.7217 48.7327 21
580 2 15.3152 11.0605 45.3762 23
581 2 31.7629 21.6246 -0.27538 18
582 2 3.79159 8.2319 65.0835 20
583 2 7.91145 24.6467 21.1609 23
584 2 14.7966 4.84441 36.8038 17
585 2 5.72953 8.69384 5.38259 22
586 2 7.50992 26.8234 6.96737 21
587 2 31.4831 12.2935 3.00991 19
588 2 5.71105 2.79096 12.3958 25
589 2 19.9581 6.21084 23.8882 21
590 2 29.2438 19.8625 -0.603004 16
591 2 27.2379 7.07026 42.8055 21
592 2 7.91908 28.4533 46.2816 18
593 2 16.833 25.8485 45.4255 20
594 2 11.7155 1.04704 26.346 21
595 2 28.9344 25.8448 36.8533 18
596 2 7.60179 19.7904 17.607 20
597 2 19.538 30.327 20.1618 22
598 2 12.9369 25.0976 42.3786 21
599 2 25.6217 14.0839 32.0536 23
600 2 32.4465 29.4351 31.1226 18
601 2 2.61411 14.7231 24.6176 24
602 2 18.4176 24.253 12.6068 21
603 2 6.1607 3.4762 21.5063 18
604 2 12.8812 3.11423 15.5184 23
605 2 9.63276 5.34214 7.42396 19
606 2 15.3687 24.5249 22.5598 18
607 2 22.9666 17.5178 4.28048 17
608 2 12.6526 28.7788 21.8154 20
609 2 16.0098 15.9626 25.7681 20
610 2 24.8948 20.0011 7.55112 22
611 2 19.0036 33.4317 64.4463 19
612 2 15.54 29.3218 14.3829 23
613 2 30.2502 2.25552 9.24174 21
614 2 1.66271 14.9172 31.4663 22
615 2 23.939 26.1541 48.0751 20
616 2 23.3253 32.3124 4.05698 20
617 2 31.5142 9.84757 43.8511 19
618 2 13.7496 7.83098 43.9552 20
619 2 19.3174 25.9955 42.6954 18
620 2 26.4819 17.8941 22.1383 25
621 2 15.1849 15.6137 28.0522 22
622 2 15.8553 2.86572 7.91036 20
623 2 12.7201 21.1847 38.9129 19
624 2 1.92352 22.8614 55.934 20
625 2 30.2853 10.3619 34.0495 22
626 2 26.7289 29.3777 39.7163 23
627 2 19.8876 15.2223 37.0484 18
628 2 6.41929 32.4094 21.9738 19
629 2 19.8398 18.9876 57.5617 19
630 2 12.0684 7.42791 24.5537 22
631 2 12.733 31.7802 31.3643 21
632 2 21.0978 -0.281988 33.1218 22
633 2 7.95861 8.71493 3.4777 18
634 2 13.5704 28.9656 61.1301 20
635 2 19.7641 13.4208 31.1486 22
636 2 4.44013 20.2571 62.0364 23
637 2 17.6305 23.9924 28.4847 19
638 2 14.5616 30.7505 19.395 18
639 2 24.2707 8.32007 17.4927 17
640 2 18.319 31.427 35.3363 19
641 2 27.7102 24.8484 10.3558 22
642 2 23.6657 33.7473 61.2318 19
643 2 25.7978 15.1061 19.3805 21
644 2 16.8865 18.365 58.4231 20
645 2 20.9912 24.1561 27.4341 22
646 2 4.678 28.1029 5.53449 22
647 2 28.027 26.5609 41.729 20
648 2 25.0637 28.8318 14.0325 21
649 2 16.8702 15.6553 50.5746 19
650 2 9.23426 25.9107 17.0488 22
651 2 17.1663 9.48432 42.2562 22
652 2 2.73508 23.1368 17.3673 19
653 2 14.555 0.0928809 38.0819 21
654 2 19.6287 15.8197 44.8527 22
655 2 27.3215 18.5548 27.1459 20
656 2 15.6196 6.61851 60.7634 21
657 2 4.69239 9.72634 13.1906 18
658 2 10.47 1.41531 0.388257 20
659 2 21.5328 30.9974 17.6779 23
660 2 8.35465 3.42507 27.0416 19
661 2 18.9827 19.888 20.6901 19
662 2 15.2738 22.3759 -0.401669 22
663 2 29.1661 22.4398 7.97618 22
664 2 21.5714 25.5819 41.2733 20
665 2 19.4303 30.3305 5.76811 24
666 2 4.25289 33.734 37.1041 20
667 2 23.2948 21.2723 52.4437 19
668 2 29.8569 6.22687 21.0868 16
669 2 9.02549 27.6637 14.8046 19
670 2 19.6986 27.5332 28.6841 20
671 2 28.8573 4.63585 17.9829 20
672 2 27.022 23.2928 33.9417 21
673 2 31.4785 13.0928 43.8981 20
674 2 24.6882 6.09929 36.7033 22
675 2 17.5352 26.0037 30.9673 21
676 2 30.2924 3.84928 46.0318 19
677 2 25.9029 15.4356 46.3851 23
678 2 19.4687 4.43689 32.1504 20
679 2 4.03666 32.6855 10.3871 23
680 2 30.8392 20.2096 5.2873 20
681 2 31.542 19.0639 61.6532 23
682 2 32.2815 21.4727 3.79235 21
683 2 26.7557 32.4236 9.54489 23
684 2 21.2786 29.2027 30.4367 21
685 2 0.966428 32.3849 3.48948 18
686 2 13.4679 11.542 28.2149 20
687 2 27.2768 10.5153 37.4485 20
688 2 18.3606 17.1499 27.9386 22
689 2 22.7367 9.40136 5.34042 20
690 2 1.84094 32.5733 41.8341 21
691 2 8.36673 28.3005 20.8354 21
692 2 8.21065 27.203 25.4647 22
693 2 21.9659 30.8671 36.8055 22
694 2 8.75773 18.5048 32.4431 23
695 2 15.4035 3.30463 13.6006 22
696 2 11.0558 34.0446 32.3981 22
697 2 9.97368 5.66831 30.137 21
698 2 21.3478 32.0643 10.573 22
699 2 28.3591 32.305 17.0354 21
700 2 8.32945 24.273 31.9996 20
701 2 28.7127 23.2302 15.4452 22
702 2 19.4991 0.819321 66.6343 22
703 2 5.48214 4.16362 30.9521 21
704 2 18.1197 5.97067 10.9821 20
705 2 11.611 9.6744 14.8833 18
706 2 17.1611 8.94671 5.28611 22
707 2 30.1917 11.2495 10.4776 21
708 2 23.3435 21.0334 60.926 22
709 2 21.0661 23.859 22.2025 18
710 2 30.5106 20.7668 40.9048 20
711 2 25.9844 32.9356 2.14373 21
712 2 20.9769 13.7796 19.9784 19
713 2 23.3478 10.5887 15.2966 18
714 2 11.4144 24.6345 31.1537 21
715 2 26.3573 9.93647 2.28171 19
716 2 3.55607 5.1764 64.9628 20
717 2 12.1709 13.461 15.8057 21
718 2 10.4075 33.7703 36.6173 21
719 2 24.3175 8.76267 38.3676 21
720 2 10.3197 17.7956 29.64 20
721 1 14.9314 18.731 18.454 19
722 1 25.0762 32.8892 -0.246699 22
723 1 7.18697 24.0595 12.5769 19
724 1 15.23 16.0749 10.2042 22
725 1 30.2285 19.1021 8.34374 23
726 1 1.7206 23.8398 22.6478 21
727 1 17.2983 33.1745 9.29073 22
728 1 11.6707 7.83048 64.0209 20
729 1 18.6522 3.44297 61.9379 22
730 1 27.2706 1.78815 36.5187 21
731 1 14.8124 26.2908 6.00154 24
732 1 9.05241 20.1545 21.0316 15
733 1 30.0302 24.046 14.0687 19
734 1 15.5624 28.7673 65.4163 20
735 1 21.1389 19.51 6.33165 21
736 1 29.0144 7.74061 7.04975 19
737 1 18.82 4.28541 -0.726496 19
738 1 6.26827 17.3096 42.0833 20
739 1 25.2309 11.5008 19.614 22
740 1 31.6964 3.67912 17.7044 19
741 1 6.08057 28.4309 1.9262 22
742 1 24.1792 32.7684 31.9281 20
743 1 16.0235 33.5736 15.3684 19
744 1 32.1609 27.9703 20.2683 19
745 1 17.6893 26.895 60.7158 20
746 1 28.4153 23.5614 19.3824 24
747 1 24.7525 19.3064 18.8639 21
748 1 6.6117 16.7706 1.24778 17
749 1 18.5158 16.0557 10.2538 23
750 1 5.872 12.0388 65.8306 23
751 1 15.5665 27.0581 11.0535 20
752 1 1.0558 26.8216 -0.12744 23
753 1 12.6117 13.0279 4.02995 20
754 1 18.3312 30.2187 7.24649 19
755 1 19.0573 33.1072 28.6714 24
756 1 9.79909 25.1493 15.2865 22
757 1 19.6326 18.7331 11.76 24
758 1 25.7792 14.2162 0.455786 21
759 1 21.0986 28.7132 25.7469 21
760 1 9.92557 13.7309 54.1296 21
761 1 10.9011 31.9049 59.4313 22
762 1 8.25315 12.8983 1.34689 23
763 1 30.3809 23.1536 63.6333 16
764 1 22.3679 22.0576 59.6557 20
765 1 12.0499 29.3345 23.7769 18
766 1 25.0599 22.0106 16.6608 20
767 1 11.7994 3.32192 55.1841 19
768 1 21.0014 20.4942 9.61906 20
769 1 5.93054 31.8245 6.99286 22
770 1 30.3031 9.04971 64.3833 23
771 1 15.8398 28.6359 7.70654 21
772 1 9.97156 29.2736 21.1884 20
773 1 16.7116 7.98471 65.5428 19
774 1 14.6289 12.6286 10.257 16
775 1 28.7245 4.78152 62.789 19
776 1 10.1533 7.77384 35.5848 19
777 1 29.9905 1.10088 7.56683 21
778 1 16.4819 3.39827 36.896 18
779 1 6.02439 32.5562 18.1195 22
780 1 32.327 18.1802 18.8498 22
781 1 15.1385 24.4573 58.4268 21
782 1 4.83246 15.334 3.02946 21
783 1 20.1284 17.7039 14.9981 21
784 1 3.06649 18.3669 16.273 23
785 1 2.32789 30.6819 6.48392 24
786 1 12.936 18.0746 11.5419 21
787 1 4.16216 24.8299 4.67746 19
788 1 32.2957 30.4837 24.5714 22
789 1 31.0399 -0.393579 59.4256 20
790 1 24.9055 24.1122 34.2181 24
791 1 27.812 18.9212 33.3915 23
792 1 17.9497 27.158 65.3701 22
793 1 30.7781 26.3524 5.56467 26
794 1 14.2709 18.6317 5.03328 19
795 1 14.6183 19.9925 13.4356 23
796 1 14.6885 13.1907 6.62901 21
797 1 27.8818 29.3757 7.42159 23
798 1 3.01727 29.8112 55.256 20
799 1 30.7691 13.4387 53.1259 19
800 1 21.4578 16.5978 56.167 23
801 1 29.4086 29.6724 19.9666 24
802 1 26.8213 23.1931 52.752 22
803 1 14.6844 24.93 8.71522 21
804 1 3.40036 14.2359 62.2546 18
805 1 25.3007 16.9994 20.2867 19
806 1 27.4511 12.4466 55.8768 17
807 1 1.84615 22.4729 63.3131 25
808 1 23.4499 19.7398 21.5758 22
809 1 7.56307 0.420282 62.5338 23
810 1 10.2365 8.93579 19.6396 20
811 1 32.688 12.2612 24.6847 18
812 1 11.9296 32.1832 10.1318 19
813 1 2.70713 33.0899 0.439242 21
814 1 18.6235 30.3931 24.0015 23
815 1 26.7375 21.5423 40.0935 23
816 1 5.48009 28.6522 32.315 19
817 1 8.59879 23.6502 50.505 19
818 1 3.80225 2.14036 61.9756 22
819 1 16.1338 7.03881 33.4527 18
820 1 22.9909 1.74397 19.4665 19
821 1 23.589 24.9925 45.358 18
822 1 20.5256 8.09571 8.88534 21
823 1 5.36141 32.418 2.40558 24
824 1 16.4402 20.8971 3.69912 22
825 1 9.17093 26.9353 5.6004 21
826 1 20.1775 13.5065 56.9346 23
827 1 23.7921 19.7566 30.1377 20
828 1 20.0158 31.4077 9.33428 19
829 1 20.9471 19.3975 42.9599 21
830 1 2.9415 30.535 10.2263 23
831 1 28.6573 20.6009 63.8998 23
832 1 20.1395 31.9527 18.3887 19
833 1 6.25122 24.9744 2.69968 19
834 1 18.6088 12.8306 1.86012 21
835 1 22.4615 16.8429 6.2538 18
836 1 12.854 7.03666 4.82558 18
837 1 27.3232 12.5295 59.8445 21
838 1 17.3346 4.89431 64.9884 22
839 1 10.9514 21.6263 2.90195 20
840 1 16.5015 17.7171 7.50287 19
841 1 12.5033 31.7646 66.1938 21
842 1 19.7591 23.9057 61.5399 20
843 1 10.7369 28.9636 8.04425 21
844 1 2.20129 18.4269 8.42831 24
845 1 27.42 10.0206 58.011 21
846 1 24.6861 14.9482 8.0204 21
847 1 23.0722 12.4722 63.6259 20
848 1 30.9155 14.2192 65.926 20
849 1 25.0375 31.751 48.3536 19
850 1 19.2906 21.5352 64.7058 22
851 1 22.093 25.6031 22.7048 21
852 1 14.2757 14.008 15.371 25
853 1 21.8446 10.9284 4.39302 21
854 1 27.3341 9.80495 14.2101 20
855 1 11.6718 16.4317 2.96318 21
856 1 21.842 33.3777 5.02366 19
857 1 29.1794 32.4838 9.46861 21
858 1 19.2689 2.10783 14.8693 17
859 1 8.83727 18.377 3.51744 24
860 1 6.62284 16.8421 15.6274 23
861 1 16.6045 4.54642 1.23369 20
862 1 19.746 9.52435 52.5398 19
863 1 23.26 22.0136 62.6266 16
864 1 10.2709 32.2114 26.874 21
865 1 31.5277 30.3364 14.7578 21
866 1 3.31428 18.6167 23.827 20
867 1 16.4085 10.5831 1.24016 21
868 1 2.10101 31.4125 13.3616 22
869 1 32.1635 19.3325 0.200807 20
870 1 9.13296 31.9109 9.56503 20
871 1 14.6918 18.9669 38.767 20
872 1 18.7289 18.9175 59.566 21
873 1 20.167 2.86942 7.57399 23
874 1 4.94867 22.1357 58.3412 17
875 1 31.3353 25.9123 35.2692 24
876 1 7.79496 11.2335 14.8372 20
877 1 28.4085 31.8168 49.2627 19
878 1 15.1622 32.6372 18.0178 23
879 1 22.2058 29.4425 -0.872766 18
880 1 7.6477 5.44761 12.1069 23
881 1 6.9008 8.00836 62.8284 21
882 1 30.0975 6.36994 4.61338 20
883 1 27.8818 27.3837 3.67381 23
884 1 9.67327 18.8518 60.5401 25
885 1 5.49657 29.0232 10.2376 22
886 1 21.3928 1.0923 13.617 21
887 1 22.2771 25.7734 26.2552 22
888 1 15.655 5.36898 3.72476 20
889 1 27.3858 33.4908 7.73287 20
890 1 18.1764 12.1507 5.23085 21
891 1 26.6788 12.8995 8.31885 21
892 1 15.6538 32.058 37.2649 20
893 1 6.0266 19.5347 61.1949 24
894 1 11.1507 14.5115 26.9565 18
895 1 11.7516 26.8455 27.5674 18
896 1 16.9115 18.5785 0.904172 19
897 1 30.9488 21.1019 27.2421 20
898 1 10.3412 11.8722 32.0049 19
899 1 16.6916 2.84877 29.7054 22
900 1 22.8884 22.6775 11.1758 21
901 2 15.0393 5.93921 54.7526 17
902 2 29.7499 0.948126 48.6813 20
903 2 30.5502 22.179 57.2991 20
904 2 16.6247 10.1972 56.3936 22
905 2 12.742 32.1739 21.4664 18
906 2 2.82255 4.99041 57.4981 18
907 2 31.3921 21.8871 10.1372 18
908 2 18.0645 17.6418 62.9788 20
909 2 13.4365 6.84783 63.1658 21
910 2 10.0225 3.10771 14.2309 22
911 2 14.4271 20.3578 48.3499 20
912 2 9.51405 7.50153 15.4459 17