ITEM: TIMESTEP
76000
ITEM: NUMBER OF ATOMS
5760
ITEM: BOX BOUNDS pp pp pp
1.3540482508 32.3059517492
-0.8470507963 34.5070507963
-1.0871446953 66.8871446953
ITEM: ATOMS id type x y z Coordination
1 1 1.87299 2.61413 5.13737 20
2 1 9.61799 18.6209 59.9602 18
3 1 26.5862 7.39489 0.220232 20
4 1 5.80419 28.8729 4.26975 20
5 1 8.04068 4.55857 56.0237 24
6 1 7.89059 9.37497 61.517 21
7 1 20.5523 32.5411 7.29657 20
8 1 10.4147 28.5795 13.4664 21
9 1 31.8753 32.3197 8.97257 18
10 1 1.39344 2.82428 10.3676 20
11 1 17.5443 4.45004 2.62866 20
12 1 8.8055 34.387 2.86454 17
13 1 30.8196 1.16183 66.7209 18
14 1 8.01059 1.39208 23.8699 19
15 1 1.74985 31.3003 0.643982 21
16 1 15.519 34.2423 8.01339 21
17 1 9.54124 8.94287 24.8682 20
18 1 21.7849 15.8853 18.3705 22
19 1 10.0247 1.59438 11.0128 22
20 1 3.94009 28.0668 28.0015 22
21 1 5.84952 24.5409 5.0186 19
22 1 30.3384 4.16683 63.7505 18
23 1 17.8547 33.0809 61.9974 22
24 1 5.20594 5.63096 13.5972 22
25 1 15.9754 -0.357781 2.83357 20
26 1 12.4681 6.67483 10.0886 21
27 1 6.91155 12.4396 21.0692 19
28 1 24.3684 22.0234 30.3941 21
29 1 7.6336 16.1129 6.15418 21
30 1 14.8091 8.81646 -0.185858 18
31 1 4.13867 13.6156 6.69507 22
32 1 10.7158 7.9285 4.34484 21
33 1 8.63679 3.89398 19.1337 22
34 1 6.54802 12.668 6.14079 21
35 1 6.09168 20.6857 62.9506 21
36 1 5.95037 12.0725 8.80289 20
37 1 7.73475 6.4427 60.7359 26
38 1 1.91603 34.2525 62.2533 18
39 1 24.5782 2.80276 23.5552 20
40 1 25.5912 6.99959 5.84123 24
41 1 25.647 22.6561 0.49703 21
42 1 17.228 15.5506 0.141595 23
43 1 7.88595 10.1417 -0.0825162 21
44 1 11.2203 14.639 58.1924 23
45 1 29.5656 15.635 64.2767 18
46 1 4.2113 25.3484 60.6936 21
47 1 17.1599 21.1426 3.93145 23
48 1 10.1442 1.3194 8.07186 24
49 1 27.835 14.5406 11.3057 21
50 1 10.0982 -0.359891 25.2459 20
51 1 20.6125 26.8084 12.6824 23
52 1 12.0363 14.5781 0.229766 23
53 1 5.32975 25.2155 13.3845 20
54 1 29.5939 18.7585 14.5901 21
55 1 1.46956 18.4386 13.836 19
56 1 11.1079 17.6329 0.848776 23
57 1 22.9785 4.73234 12.9664 19
58 1 3.04098 28.9426 -1.06246 18
59 1 16.8349 17.3221 16.5386 22
60 1 13.8807 20.1678 64.3587 20
61 1 29.6233 18.4225 59.5727 20
62 1 22.2497 12.9271 -0.898397 19
63 1 8.16885 19.9348 65.3371 22
64 1 11.1106 2.82531 1.05916 20
65 1 15.7462 2.31616 7.77222 24
66 1 11.9983 28.392 7.8915 20
67 1 18.4547 0.0610924 2.76781 20
68 1 10.0201 20.969 57.7346 17
69 1 14.8049 12.9023 63.47 18
70 1 17.6796 8.73552 12.6006 23
71 1 30.5682 7.72069 4.14673 21
72 1 3.43752 33.4378 17.0064 21
73 1 9.55924 5.03095 64.1811 16
74 1 25.7535 30.1573 10.3496 22
75 1 14.1015 8.52192 4.01156 17
76 1 31.037 33.6364 11.9951 21
77 1 17.416 4.78107 11.7966 21
78 1 4.47099 17.293 15.6674 19
79 1 26.3431 16.0057 -0.00910214 21
80 1 2.2029 28.9406 6.87888 18
81 1 23.75 1.82908 -0.0523551 21
82 1 3.40874 27.67 8.9194 18
83 1 12.1534 12.957 15.2907 21
84 1 18.2085 13.5954 5.13632 22
85 1 19.1062 0.167356 65.7531 21
86 1 14.0875 29.6974 4.88544 22
87 1 10.5332 15.2436 12.8113 21
88 1 14.9172 24.7048 12.732 16
89 1 10.3834 4.4294 7.94417 21
90 1 28.0591 2.08502 14.4455 20
91 1 18.4084 16.1835 3.51132 20
92 1 23.3562 28.13 5.14891 18
93 1 31.3888 4.62735 3.14349 23
94 1 19.2354 19.6988 58.0275 20
95 1 29.6032 5.26158 26.0364 22
96 1 16.5317 14.2034 65.6331 21
97 1 28.5416 5.93661 4.52922 23
98 1 6.56924 27.7998 -0.632336 23
99 1 7.55968 32.2721 9.69293 24
100 1 7.00612 6.72447 11.2673 21
101 1 22.5874 12.5705 9.75661 17
102 1 12.6603 17.7108 66.7047 21
103 1 11.8147 22.1697 7.37158 18
104 1 3.81326 14.6639 1.68269 21
105 1 31.2516 10.4556 3.31781 19
106 1 26.644 1.44442 20.7154 20
107 1 4.34755 24.2067 1.80898 19
108 1 6.58475 23.8811 59.8055 21
109 1 23.3409 6.10994 3.67198 21
110 1 3.73704 15.3361 62.8652 21
111 1 30.6344 10.6932 20.2663 19
112 1 17.6018 20.1446 18.659 20
113 1 32.1771 3.35521 14.3439 21
114 1 31.2208 22.4654 65.0605 21
115 1 29.8099 2.23965 10.433 17
116 1 9.63239 7.57334 8.87966 20
117 1 10.9184 18.6286 8.40922 20
118 1 14.7029 26.1035 58.6741 21
119 1 27.7278 -0.619667 10.5886 20
120 1 14.0445 18.2599 20.3763 21
121 1 15.2878 5.10506 -0.250222 19
122 1 17.4274 12.828 1.8157 22
123 1 21.4748 9.01656 63.8586 23
124 1 23.0974 12.8389 5.88269 25
125 1 9.22613 10.9044 4.29665 21
126 1 30.9961 18.4915 11.2298 22
127 1 29.313 32.2108 16.6326 17
128 1 23.4448 10.5287 65.977 20
129 1 20.704 5.29563 8.52184 21
130 1 14.404 23.2931 66.7868 20
131 1 17.1987 7.07205 -0.839722 19
132 1 18.1338 18.5118 10.8141 19
133 1 2.04123 1.39796 7.93723 19
134 1 15.8893 -0.278208 14.0382 24
135 1 15.359 28.4241 23.1482 22
136 1 20.5925 10.7308 5.03698 21
137 1 19.2007 22.4252 17.3686 20
138 1 4.9453 -0.185766 12.9885 22
139 1 25.3006 13.3521 28.4878 22
140 1 8.49243 -0.752349 14.8897 22
141 1 22.8565 11.6502 2.30453 21
142 1 25.2844 12.2715 0.417767 21
143 1 9.49612 14.7318 2.48668 23
144 1 27.5215 10.3467 14.5292 22
145 1 10.7969 19.5216 66.0008 20
146 1 11.8254 23.9898 4.62956 20
147 1 10.0184 11.9909 1.87843 22
148 1 23.7153 9.21508 0.868372 22
149 1 10.0729 34.4804 58.3765 23
150 1 12.2955 6.42576 12.5559 22
151 1 14.1522 24.5241 61.5183 18
152 1 17.3062 0.638189 5.83536 21
153 1 7.65051 28.8194 8.5599 19
154 1 14.4833 22.3558 9.13795 20
155 1 26.4801 11.0268 2.75511 25
156 1 26.5254 31.6268 8.66343 24
157 1 15.6678 9.57974 26.9861 22
158 1 10.7496 31.827 7.48408 23
159 1 3.45865 4.40749 11.6087 23
160 1 27.354 11.68 23.0684 17
161 1 5.17195 6.79171 5.89012 20
162 1 1.94558 8.62003 66.3733 20
163 1 15.3522 24.2648 6.87792 20
164 1 16.3502 21.4146 6.39898 24
165 1 24.7401 10.104 13.7785 21
166 1 28.5833 12.0299 16.5606 20
167 1 4.44771 8.87622 13.7442 20
168 1 27.1874 20.8766 59.9757 23
169 1 3.57906 14.8654 22.3441 21
170 1 10.1009 4.59447 16.8425 21
171 1 19.1649 22.3084 8.99193 23
172 1 8.15394 0.716477 65.0727 20
173 1 12.6216 9.74024 0.780208 21
174 1 20.7485 10.8803 66.8545 20
175 1 23.6049 15.929 4.14627 19
176 1 20.3532 9.59394 59.2142 18
177 1 17.7475 6.03211 8.527 20
178 1 17.8179 26.5319 27.3515 22
179 1 9.92154 30.3365 22.477 21
180 1 18.3463 3.74095 60.1767 20
181 2 3.695 2.73715 -0.1598 21
182 2 16.4469 2.96778 63.653 20
183 2 21.3062 2.09585 65.6949 22
184 2 6.44425 24.3255 19.815 21
185 2 18.5036 10.0487 10.7175 21
186 2 6.70854 1.33256 8.70631 18
187 2 12.1083 31.0887 22.3333 20
188 2 1.9175 4.46014 4.29973 21
189 2 22.3986 3.05614 12.1151 18
190 2 22.0474 21.0462 10.3726 21
191 2 25.5879 24.4687 4.90439 17
192 2 12.1454 6.97992 28.3945 21
193 2 23.7737 5.54456 9.89473 18
194 2 9.52912 6.1173 22.3934 19
195 2 9.60284 32.0348 23.6632 18
196 2 4.0429 28.3858 5.74047 25
197 2 8.42778 34.2968 26.3334 19
198 2 10.2496 18.999 10.4492 19
199 2 15.2914 6.91231 15.8687 18
200 2 20.9623 7.82983 11.4428 22
201 2 10.2994 13.6726 -0.450862 21
202 2 1.50094 20.2581 64.6033 20
203 2 21.5017 9.20642 55.8649 19
204 2 9.30811 4.97618 59.7631 19
205 2 29.253 25.0654 59.1668 20
206 2 11.3549 4.53322 64.1213 19
207 2 5.89403 -0.146054 63.4578 19
208 2 20.506 3.95781 4.17612 23
209 2 23.7241 22.2612 1.35697 20
210 2 18.1013 -0.075279 11.4718 20
211 2 7.32408 30.6098 8.81059 22
212 2 2.48002 14.6238 10.1605 17
213 2 31.0319 25.48 29.5537 21
214 2 23.8686 0.647917 13.2467 19
215 2 25.3561 4.67937 17.144 18
216 2 7.48257 25.257 23.2634 20
217 2 27.2451 14.3481 -0.751171 20
218 2 31.7588 7.86513 12.1917 20
219 2 16.7244 25.158 5.43897 22
220 2 13.39 0.324337 35.6278 20
221 2 3.33107 13.0558 0.917734 19
222 2 18.596 15.4532 66.6529 17
223 2 13.9732 22.1052 65.1538 22
224 2 14.8924 30.8865 6.12591 20
225 2 31.4585 7.78619 15.1749 19
226 2 13.3819 23.2204 3.41994 17
227 2 4.78635 5.40257 4.52514 20
228 2 5.6526 34.1799 -0.226185 19
229 2 5.21846 24.2387 64.8478 21
230 2 12.453 13.9241 13.3188 19
231 2 6.04293 15.6571 12.8809 20
232 2 12.5406 8.51919 5.18319 21
233 2 15.0045 6.93249 -0.267893 17
234 2 27.4909 8.81575 10.2728 20
235 2 25.5171 33.6751 22.2179 20
236 2 19.7264 14.1781 0.427664 20
237 2 9.01074 3.15096 4.76636 20
238 2 13.3625 31.407 64.565 19
239 2 25.7902 -0.746722 27.7007 23
240 2 20.2782 19.9624 12.843 17
241 2 15.3173 13.8253 55.2717 22
242 2 17.013 31.994 10.8136 21
243 2 13.6241 32.6338 4.03913 20
244 2 29.207 8.6011 65.4853 21
245 2 14.1267 5.42287 65.6049 21
246 2 19.245 4.69259 63.6496 22
247 2 12.306 15.5597 66.2927 22
248 2 17.5087 1.87443 7.34038 20
249 2 15.7239 22.2852 61.9318 20
250 2 23.6661 27.6337 3.03792 20
251 2 11.4868 10.6803 15.63 20
252 2 18.119 17.0511 12.1259 25
253 2 11.7089 29.0385 10.6076 20
254 2 15.4502 12.7711 14.8897 20
255 2 1.4762 29.7573 5.1483 20
256 2 24.0653 13.4601 -0.0875553 19
257 2 19.6253 4.37233 7.50213 24
258 2 7.40626 30.8369 13.5238 21
259 2 14.0034 13.0277 32.2016 19
260 2 30.2813 32.4861 7.74064 18
261 2 3.10765 9.99464 16.6396 20
262 2 7.54041 33.365 6.2321 21
263 2 12.6599 28.5449 14.954 20
264 2 24.161 8.3756 6.10605 23
265 2 28.274 3.6026 13.3315 22
266 2 16.5813 31.8695 64.2485 22
267 2 27.4017 7.41538 1.76549 24
268 2 18.43 23.6905 12.8895 20
269 2 12.5832 7.39513 14.1459 20
270 2 5.40079 -0.0101165 6.20008 19
271 2 6.87646 12.7553 12.7482 21
272 2 24.7105 33.2941 9.67314 20
273 2 7.86741 21.2984 64.2659 21
274 2 16.9919 26.7647 29.4942 19
275 2 30.8473 2.30794 6.10937 19
276 2 6.49908 2.67394 13.9634 16
277 2 2.14393 21.0181 1.68508 22
278 2 15.7879 22.3266 23.2829 21
279 2 12.8972 2.95208 19.8094 20
280 2 11.1055 14.969 11.0068 20
281 2 4.9752 11.5334 7.11581 23
282 2 1.86318 5.47391 11.8815 20
283 2 11.1062 15.0833 4.29264 18
284 2 24.6266 19.3471 8.53193 20
285 2 14.7866 9.10098 20.9822 22
286 2 2.49337 21.5736 10.7366 21
287 2 10.6942 22.7908 63.5262 20
288 2 14.9117 19.0619 63.0252 19
289 2 13.5092 10.6551 10.2795 22
290 2 16.1891 8.68334 9.37036 20
291 2 4.43811 10.6033 12.7601 19
292 2 19.292 8.45795 1.2261 17
293 2 13.4953 8.554 64.0038 18
294 2 10.7492 27.4181 26.9885 22
295 2 11.9601 3.58911 -0.786108 18
296 2 22.8549 14.101 8.08108 18
297 2 13.5801 33.2055 7.74312 22
298 2 21.8099 16.5788 9.54736 20
299 2 26.4646 6.80877 15.8089 19
300 2 24.7059 7.14091 -0.0185643 18
301 2 24.9272 5.66235 2.86347 20
302 2 19.0422 0.385464 4.68536 23
303 2 27.8367 4.33564 4.10471 20
304 2 11.4374 31.0185 16.0601 19
305 2 19.4224 12.4182 4.49405 21
306 2 11.3473 33.5637 -0.31036 19
307 2 21.2172 10.8199 3.15809 22
308 2 22.4478 9.27689 17.7389 17
309 2 11.3278 3.21777 60.5322 19
310 2 7.49093 25.4779 7.67105 20
311 2 23.0463 8.23346 62.9668 23
312 2 22.8375 5.16184 66.4278 20
313 2 5.98275 13.2045 2.22428 20
314 2 30.3778 7.00106 26.6541 21
315 2 18.9051 28.3529 20.5551 21
316 2 7.98037 0.850609 3.46005 18
317 2 13.9416 2.93598 1.0509 16
318 2 24.2303 25.9949 38.0638 22
319 2 21.5633 11.6343 11.0474 19
320 2 19.0035 33.1786 32.9301 21
321 2 26.9516 23.5136 23.3313 23
322 2 9.69629 9.15077 5.70898 18
323 2 12.4553 5.05085 26.347 23
324 2 27.4184 4.1138 60.4575 19
325 2 24.6157 28.1432 10.0933 20
326 2 15.7797 8.26576 12.4767 23
327 2 10.078 29.5216 2.70756 25
328 2 8.28181 11.3375 17.2595 18
329 2 19.7599 18.8272 9.76376 21
330 2 6.23364 3.91021 55.3829 23
331 2 11.8724 7.98792 1.4174 23
332 2 11.6794 8.38756 8.52443 17
333 2 8.33986 6.10484 14.817 19
334 2 29.3976 6.29818 -0.408561 19
335 2 14.6423 18.2794 -0.151967 22
336 2 6.52668 8.5999 6.66352 18
337 2 2.30779 11.3831 9.84752 23
338 2 31.6875 27.7519 27.8941 23
339 2 22.8765 2.15592 22.5888 22
340 2 13.9629 1.16354 16.6618 20
341 2 3.3915 16.0351 6.4756 18
342 2 18.886 29.1194 66.4149 20
343 2 9.60811 33.432 61.58 19
344 2 16.9573 9.09638 -0.642343 17
345 2 13.7832 13.5459 25.6856 18
346 2 20.282 20.1344 64.7434 23
347 2 7.61751 17.8775 12.8043 20
348 2 25.7652 14.7502 1.84746 20
349 2 19.4728 26.1177 11.2934 20
350 2 16.2526 22.7931 7.85895 19
351 2 21.961 19.0592 -0.621299 18
352 2 29.8995 13.8728 64.7397 20
353 2 31.9821 13.713 15.6027 21
354 2 12.5036 4.49804 17.7849 19
355 2 8.0562 17.9288 23.7301 22
356 2 18.6716 23.348 60.4523 19
357 2 15.8619 11.4162 12.0109 20
358 2 27.0333 5.19898 10.9261 20
359 2 28.2793 0.915428 28.3335 23
360 2 21.8656 6.92165 20.4959 20
361 1 6.88101 14.6667 9.31404 21
362 1 2.13694 7.038 13.4229 21
363 1 5.79846 32.1754 15.8249 19
364 1 5.08203 28.7337 6.88792 21
365 1 25.3131 7.46746 20.4733 20
366 1 30.6974 34.3588 19.0906 20
367 1 26.7302 18.3843 22.6864 22
368 1 24.4255 1.2277 15.161 20
369 1 2.87226 29.8129 17.7447 20
370 1 31.439 12.1086 15.3626 19
371 1 18.0828 8.72453 27.8391 19
372 1 6.62715 24.7153 -0.242003 23
373 1 16.9499 6.31837 20.3271 21
374 1 10.3982 1.88542 14.6406 20
375 1 24.8412 8.89701 34.973 21
376 1 14.5761 15.1198 29.6701 20
377 1 10.3585 13.2667 45.5878 20
378 1 10.3101 13.1271 25.7378 18
379 1 3.71914 34.2688 41.1599 18
380 1 9.6765 10.1753 37.9019 24
381 1 17.2138 15.4392 10.2925 22
382 1 17.1588 22.6859 13.9278 19
383 1 26.5818 12.9786 25.9269 22
384 1 4.85511 25.1336 19.3561 25
385 1 16.643 9.78843 34.833 23
386 1 9.84522 5.32754 10.6778 21
387 1 13.805 12.7748 38.274 18
388 1 2.16014 -0.0169327 14.8334 22
389 1 27.5967 33.9153 18.7279 21
390 1 21.0181 6.90147 30.6427 19
391 1 12.3421 16.8591 9.71548 16
392 1 1.61604 20.7756 19.7079 20
393 1 4.36068 3.30745 38.4391 17
394 1 23.4389 14.6621 37.5312 20
395 1 11.8352 3.92422 10.7813 20
396 1 18.3753 1.41595 24.7745 17
397 1 10.369 1.15668 28.369 21
398 1 25.6682 27.426 24.8505 21
399 1 19.9934 11.8484 33.4569 21
400 1 31.6298 6.84078 32.8993 22
401 1 8.96908 18.5279 6.28557 20
402 1 19.5367 8.49917 6.68124 17
403 1 30.595 9.96829 13.3862 20
404 1 31.6701 29.7191 26.725 20
405 1 7.62891 17.573 8.54777 22
406 1 31.9922 22.1862 3.26381 16
407 1 12.9198 20.8008 10.0711 21
408 1 29.4735 25.7474 26.7672 21
409 1 15.3692 10.2731 10.5253 21
410 1 5.12135 9.3371 32.7804 21
411 1 31.4114 13.5342 11.5063 19
412 1 4.37447 7.27365 25.0991 21
413 1 21.3134 22.2666 30.5634 22
414 1 11.4267 23.4091 -0.867668 19
415 1 29.3053 17.2864 16.6729 21
416 1 6.57446 15.1909 18.0531 18
417 1 7.81613 20.1479 27.6393 19
418 1 20.5013 17.9965 33.1832 23
419 1 2.80231 22.6313 29.6939 24
420 1 32.0054 11.3215 27.1533 19
421 1 24.7087 30.5643 14.1211 22
422 1 4.47099 28.1561 15.2816 22
423 1 4.3404 13.2653 19.494 19
424 1 1.54721 12.6183 23.8198 21
425 1 12.9872 16.4264 17.0747 19
426 1 12.002 0.0919905 15.895 22
427 1 20.8801 3.43273 1.78889 20
428 1 13.9332 12.4342 27.5231 18
429 1 3.68934 2.93567 22.9855 18
430 1 22.785 7.53032 9.53563 18
431 1 31.5267 19.3637 8.63648 20
432 1 27.9879 32.3936 29.5118 19
433 1 13.6761 31.5559 28.9145 19
434 1 22.2966 3.51767 25.4138 18
435 1 20.6258 26.3028 25.0705 21
436 1 3.0492 34.0106 31.5298 21
437 1 5.25199 31.1677 25.5257 18
438 1 4.71583 11.5304 30.8431 23
439 1 11.6265 29.5333 29.773 21
440 1 23.0761 25.1554 29.4084 19
441 1 1.44026 3.66629 17.3907 17
442 1 5.16871 9.37573 11.3263 19
443 1 26.7277 8.51166 8.56248 21
444 1 14.8901 33.9114 30.9067 20
445 1 10.7162 6.2036 26.4086 20
446 1 26.5551 12.967 31.4666 20
447 1 10.1236 18.6386 30.4832 22
448 1 29.5163 6.59201 20.3883 21
449 1 3.14924 9.00234 18.31 23
450 1 7.67432 0.119382 10.5669 20
451 1 20.0349 12.9087 30.906 21
452 1 30.6363 22.7054 19.6626 17
453 1 17.1207 11.9354 37.6868 23
454 1 9.59079 6.37813 29.2437 21
455 1 9.5022 31.0795 28.6708 20
456 1 10.2748 9.18985 21.8128 20
457 1 16.7303 1.03455 32.4186 21
458 1 3.17074 24.6646 24.3962 22
459 1 14.4445 2.94778 27.8175 19
460 1 12.1565 11.0411 3.65429 22
461 1 31.969 28.0832 20.4521 22
462 1 18.596 0.166055 8.54762 22
463 1 4.35941 15.5097 28.6912 25
464 1 22.2845 31.1625 16.0975 20
465 1 28.2763 15.1069 22.2954 22
466 1 16.247 20.3343 8.93402 20
467 1 20.0613 7.1859 25.2755 23
468 1 17.5176 12.4944 7.71435 20
469 1 27.6635 28.3485 16.0558 19
470 1 1.66519 11.2683 17.5695 21
471 1 6.39183 8.2355 8.44818 22
472 1 16.1032 24.2735 21.8151 23
473 1 3.09403 14.6872 31.9241 20
474 1 25.4495 10.587 20.5228 24
475 1 7.08789 7.78115 14.3005 20
476 1 2.55181 10.662 33.2082 22
477 1 15.2848 17.1531 31.4949 19
478 1 13.0426 15.0615 11.6957 18
479 1 17.9852 14.8953 30.5186 21
480 1 11.0449 3.06398 19.9776 21
481 1 8.24318 3.00542 2.63199 18
482 1 27.3478 16.6176 14.1721 19
483 1 12.6946 9.53626 25.0813 18
484 1 30.4871 29.4178 18.1967 16
485 1 16.5714 32.0584 28.3891 23
486 1 25.2474 33.3522 11.405 23
487 1 25.271 11.9047 36.0252 23
488 1 6.30343 3.75452 24.0594 17
489 1 10.9764 27.4416 23.8548 19
490 1 10.9849 20.6235 22.1669 19
491 1 12.6153 12.3822 12.5517 22
492 1 16.1929 28.8433 29.2735 21
493 1 4.90654 16.4427 20.216 20
494 1 10.6813 21.6882 36.5254 21
495 1 11.3484 25.1998 25.9808 17
496 1 19.0466 10.0562 25.0194 22
497 1 21.0248 12.0476 22.8405 19
498 1 16.7502 31.4334 43.3089 21
499 1 6.52576 7.03956 30.7637 21
500 1 1.84015 20.8421 25.5814 18
501 1 15.2717 28.0172 13.4848 22
502 1 9.83129 34.035 10.1474 18
503 1 26.8383 1.86051 17.89 22
504 1 16.3508 29.7096 31.8166 19
505 1 29.1993 20.7117 8.57932 22
506 1 14.36 9.70612 29.6433 21
507 1 24.2889 3.1096 36.397 22
508 1 16.4045 17.5429 7.70341 23
509 1 7.75054 10.2665 10.3526 18
510 1 27.0799 10.163 26.4842 22
511 1 21.4962 15.9267 26.8405 16
512 1 12.4799 30.4306 14.6288 22
513 1 2.0929 13.0747 4.04213 18
514 1 16.6376 20.9131 25.8952 22
515 1 11.9266 25.3194 39.5776 17
516 1 24.2034 11.0708 26.335 24
517 1 10.8997 7.32237 37.1024 21
518 1 18.5392 3.16224 30.2391 18
519 1 10.2007 13.24 10.8474 21
520 1 7.16962 9.52742 21.9006 20
521 1 10.5771 24.3352 16.5898 17
522 1 26.9284 0.368008 23.8808 19
523 1 21.5166 10.4012 14.9781 20
524 1 14.4942 14.3644 14.3304 19
525 1 18.7904 22.422 0.813797 21
526 1 22.0374 17.8083 14.9444 18
527 1 14.1742 12.5323 34.017 22
528 1 13.3357 21.3272 19.7284 20
529 1 28.2506 12.1809 19.9147 24
530 1 19.3874 16.8908 29.125 20
531 1 14.0126 22.9798 22.2864 22
532 1 14.6075 7.031 28.2044 20
533 1 5.44126 10.447 25.1624 19
534 1 19.9481 6.12568 20.446 18
535 1 10.7549 24.8919 21.5397 18
536 1 11.0143 14.077 29.0779 18
537 1 22.876 22.6181 39.1955 24
538 1 12.0105 15.8892 19.5918 18
539 1 31.1314 21.453 37.4553 19
540 1 23.0731 25.811 36.5005 17
541 2 2.41578 2.22529 22.0537 16
542 2 18.9186 7.92132 8.5877 20
543 2 14.8866 29.5197 30.7207 24
544 2 10.6105 5.27801 12.8122 21
545 2 7.70281 10.8283 34.9044 18
546 2 3.66308 15.7421 16.6651 18
547 2 25.2294 31.3918 17.9073 22
548 2 9.25906 6.9174 10.6945 24
549 2 25.7264 8.28899 29.9447 16
550 2 1.98678 22.4604 21.233 20
551 2 8.32265 22.0964 19.2824 18
552 2 10.4857 4.96667 24.882 15
553 2 2.52755 15.7201 26.6199 19
554 2 18.392 10.6547 38.5847 18
555 2 10.9881 1.01732 30.5195 24
556 2 17.0925 23.7515 31.3308 23
557 2 19.5597 6.19306 22.3151 22
558 2 31.7768 20.8882 35.7206 21
559 2 23.3579 30.315 39.4336 19
560 2 17.284 1.73804 38.1585 18
561 2 13.4398 12.9184 7.72368 21
562 2 21.6034 28.637 20.6107 18
563 2 6.57489 14.2094 15.9763 22
564 2 3.37102 24.461 21.371 21
565 2 28.6807 29.6222 6.7345 19
566 2 1.75506 7.34304 5.37426 23
567 2 26.2122 19.6652 27.132 18
568 2 7.43659 23.023 -0.99864 22
569 2 5.52182 0.813944 26.6464 18
570 2 23.0771 33.6 18.4981 17
571 2 28.5965 5.32102 21.7034 20
572 2 4.7831 -0.608026 30.5235 18
573 2 2.41268 4.36479 30.9571 16
574 2 8.46384 10.9987 29.3164 17
575 2 30.7572 32.319 31.7455 20
576 2 6.26312 8.29698 31.9279 18
577 2 7.72947 9.15491 25.6094 21
578 2 14.2851 14.6129 5.19471 20
579 2 16.0733 12.891 27.5846 21
580 2 18.7542 18.8409 33.6216 22
581 2 19.2492 21.8821 10.9867 20
582 2 5.92242 33.1905 22.4616 18
583 2 30.3522 18.5031 17.8947 23
584 2 5.89583 8.70857 20.7675 23
585 2 9.94021 3.40669 10.9175 20
586 2 27.5694 12.2773 15.0687 22
587 2 1.80165 20.6706 29.9106 19
588 2 2.06793 19.8451 18.257 19
589 2 29.1895 26.2227 24.781 23
590 2 19.6851 30.2771 27.2982 19
591 2 18.2992 32.4758 29.2795 19
592 2 3.16567 23.4411 35.3737 19
593 2 15.3751 1.91266 36.4467 19
594 2 22.0407 -0.0116086 24.4685 20
595 2 20.8171 4.29915 20.8355 20
596 2 8.79754 23.3851 32.0225 20
597 2 5.02098 0.665815 17.9839 17
598 2 25.4059 25.3638 29.4293 19
599 2 4.50857 17.0393 33.4712 21
600 2 12.7792 26.9591 32.6841 22
601 2 24.0843 31.4419 20.364 18
602 2 24.6455 16.6286 66.6863 19
603 2 10.9458 14.2278 19.7887 18
604 2 12.9201 3.66007 29.0819 23
605 2 2.73137 0.783633 6.00491 16
606 2 27.9533 19.1853 20.5137 19
607 2 5.42908 31.6528 6.64974 22
608 2 24.2271 13.9259 10.8969 22
609 2 20.0072 34.3905 20.532 18
610 2 1.93111 23.075 13.1124 19
611 2 22.4352 4.78339 63.3366 25
612 2 14.1342 28.8659 8.45517 21
613 2 31.388 1.54595 9.25892 20
614 2 5.34355 28.3484 29.1616 21
615 2 2.26755 14.3832 23.3077 21
616 2 32.1235 16.4702 17.9085 19
617 2 8.58453 30.9859 32.5172 24
618 2 15.9202 10.8341 33.2687 20
619 2 30.5871 32.8954 41.6676 17
620 2 10.9478 28.9703 21.6954 17
621 2 26.1218 1.67871 14.3621 20
622 2 15.7419 2.01857 18.4896 18
623 2 12.9427 16.8147 21.2998 21
624 2 31.0378 1.66835 26.111 24
625 2 10.9391 11.6866 19.0419 20
626 2 19.4309 27.2124 28.1546 20
627 2 2.55911 -0.812988 24.8405 19
628 2 5.80497 22.2298 21.6414 22
629 2 1.3927 28.0453 31.6213 20
630 2 32.011 22.5261 18.5368 19
631 2 19.9485 8.6174 23.9866 22
632 2 9.10868 19.2465 18.362 18
633 2 31.5381 5.98235 20.4788 22
634 2 15.9495 2.9468 29.4426 18
635 2 8.32449 8.30256 19.1694 21
636 2 28.3323 28.6015 22.8487 21
637 2 27.7555 5.54523 26.1456 20
638 2 10.5787 2.13301 41.824 21
639 2 7.72094 28.03 31.169 22
640 2 3.00356 26.9474 29.2719 22
641 2 21.0772 30.942 6.37095 24
642 2 27.5235 13.3724 22.1501 21
643 2 28.8057 13.9083 39.0332 16
644 2 11.0351 22.9125 1.44862 20
645 2 27.5501 1.82377 22.3933 18
646 2 13.5518 13.0298 11.0953 21
647 2 16.7291 7.28744 24.8226 24
648 2 19.6271 11.3922 22.0253 22
649 2 24.3073 17.1136 28.1425 22
650 2 13.7905 20.8835 16.0466 18
651 2 23.2511 7.36638 31.0152 18
652 2 18.3477 24.7405 27.7546 17
653 2 16.9836 30.9821 32.8004 20
654 2 12.7794 32.3295 27.0098 19
655 2 28.1431 19.176 35.9706 18
656 2 3.66552 34.4068 11.8017 21
657 2 11.4193 13.521 23.819 20
658 2 23.5317 -0.786921 41.0379 20
659 2 1.58002 19.3464 21.1079 22
660 2 21.4789 26.9306 43.7835 18
661 2 5.08868 0.272605 2.69495 20
662 2 21.9235 24.8274 6.40812 19
663 2 20.2342 28.1441 13.9078 24
664 2 23.2401 28.1173 33.7413 21
665 2 13.6954 5.9546 11.2479 22
666 2 11.4823 34.3524 23.6691 18
667 2 20.7142 10.6009 41.4825 20
668 2 11.3466 0.092686 27.284 20
669 2 9.79658 10.896 22.466 21
670 2 17.5825 30.0349 24.2835 20
671 2 5.95764 26.6999 20.0409 22
672 2 18.7334 0.950071 32.0801 22
673 2 3.63967 24.9584 17.9542 24
674 2 31.6464 12.1863 25.4522 20
675 2 14.3512 26.7278 27.3296 22
676 2 29.1198 3.09753 34.6479 21
677 2 7.66197 2.91066 25.1951 14
678 2 2.10184 3.33849 38.3973 19
679 2 27.6363 30.5085 30.6517 21
680 2 20.1684 3.29322 29.247 18
681 2 6.2062 8.75776 -0.802212 19
682 2 14.051 19.0546 14.0603 17
683 2 30.4394 3.81487 11.0292 20
684 2 24.5532 21.875 26.3367 17
685 2 22.5071 12.5917 21.8579 20
686 2 18.0549 22.2567 19.0475 24
687 2 15.7557 5.44339 63.4007 21
688 2 19.2032 33.914 14.8308 23
689 2 28.8551 9.01572 13.0893 20
690 2 29.237 29.0245 27.3862 18
691 2 18.0957 3.58215 17.3719 20
692 2 25.8788 10.9595 31.725 18
693 2 12.7604 33.9437 30.136 21
694 2 9.9825 24.5034 28.1311 17
695 2 8.85448 27.7163 39.2148 19
696 2 6.84083 30.4109 16.1468 20
697 2 5.77086 2.79283 34.8595 18
698 2 12.7272 34.1474 44.5835 18
699 2 23.8119 1.33357 31.0804 20
700 2 29.8505 3.18235 23.8546 18
701 2 18.5483 17.6226 6.78676 21
702 2 28.4114 18.6414 7.57561 23
703 2 12.5468 20.649 12.3406 19
704 2 24.9213 0.73842 23.9949 20
705 2 23.442 16.7591 5.80389 22
706 2 11.1479 3.32559 15.7838 22
707 2 23.0219 8.20174 23.8916 22
708 2 6.12403 22.4626 17.689 21
709 2 10.3317 11.6549 11.9721 23
710 2 16.4314 18.563 25.4389 23
711 2 11.5607 19.9977 3.72796 19
712 2 9.03509 14.5126 13.7414 21
713 2 17.8256 6.40389 15.212 25
714 2 5.34582 8.62936 24.4201 20
715 2 14.4839 20.9468 33.4983 21
716 2 27.9051 19.4587 15.69 21
717 2 7.21291 13.3098 19.3062 21
718 2 28.5489 3.97234 41.3361 21
719 2 9.06652 9.70726 32.3736 19
720 2 6.35197 10.7772 23.0393 22
721 1 29.648 20.3519 16.3641 18
722 1 24.8218 21.7841 7.88273 19
723 1 8.61773 13.8087 66.7718 21
724 1 14.6253 12.0101 6.56427 23
725 1 12.0601 14.6502 62.9933 23
726 1 14.1739 1.41893 22.5358 21
727 1 14.7005 4.45675 10.8482 21
728 1 28.867 12.4496 4.03512 17
729 1 26.1413 31.0256 5.31351 18
730 1 10.5354 11.6418 -0.685459 24
731 1 28.8536 28.1519 5.63856 23
732 1 3.69341 17.546 23.3029 24
733 1 7.10615 5.79448 16.6668 21
734 1 29.9345 6.2664 61.2041 22
735 1 30.5385 26.5558 17.8282 20
736 1 3.54175 23.0928 5.72255 18
737 1 6.69683 15.9891 0.980062 19
738 1 9.02601 3.34827 29.2409 21
739 1 24.1468 9.63668 4.44861 21
740 1 4.26394 4.32373 5.90025 18
741 1 28.7878 20.8311 64.0507 20
742 1 32.1446 21.197 5.9507 20
743 1 23.3592 4.72456 6.53484 21
744 1 13.2565 29.6985 23.7186 20
745 1 3.68639 26.1156 -0.648683 22
746 1 9.1172 26.5448 66.666 21
747 1 31.2188 26.6242 6.60013 17
748 1 9.27922 20.6998 10.0985 21
749 1 26.2913 19.0602 19.8175 19
750 1 2.8542 33.1376 3.08725 20
751 1 14.8669 34.3554 20.6449 19
752 1 10.3621 15.8882 66.2424 20
753 1 3.43706 13.0257 10.4165 19
754 1 3.75274 20.8282 6.80074 21
755 1 11.0843 6.91843 23.5382 18
756 1 10.5274 30.1995 9.15638 22
757 1 15.3867 13.2933 10.9209 22
758 1 11.1414 23.9096 10.5212 22
759 1 22.4633 23.8446 13.4367 20
760 1 3.08946 26.3268 21.9103 20
761 1 4.68389 32.6421 -0.356316 19
762 1 25.631 5.85168 1.29211 22
763 1 5.08734 26.6519 2.32515 24
764 1 26.4328 25.5068 9.56057 20
765 1 17.699 25.2756 11.6316 17
766 1 29.261 23.936 7.91044 20
767 1 27.2942 32.5645 55.7843 18
768 1 4.87918 19.2569 66.5256 23
769 1 4.62386 1.23082 6.97877 17
770 1 27.0634 32.3892 0.139122 21
771 1 4.37234 22.4433 12.5694 21
772 1 7.37542 9.64618 16.6618 19
773 1 1.82011 2.81666 0.60605 20
774 1 8.8738 31.4345 15.0584 22
775 1 31.3947 25.0492 65.8868 21
776 1 16.1958 6.86751 14.0073 21
777 1 26.9794 22.7808 9.0687 21
778 1 7.56088 32.4559 23.2972 18
779 1 18.4308 13.0998 24.4274 20
780 1 11.6683 32.1948 17.4367 20
781 1 13.9714 3.88816 2.38349 22
782 1 20.8428 30.0638 13.6997 21
783 1 18.2877 28.5761 14.4016 21
784 1 5.34616 30.6236 13.6639 18
785 1 4.59366 9.18757 0.144927 17
786 1 23.5351 20.8678 14.9212 21
787 1 19.5613 24.8811 15.2341 21
788 1 24.504 18.7841 12.4973 16
789 1 15.3549 18.2778 4.64613 23
790 1 22.9755 10.157 20.9439 23
791 1 23.5705 10.6125 18.0054 23
792 1 14.934 28.9584 15.8809 20
793 1 21.3406 21.7687 12.2164 16
794 1 16.0422 31.4945 24.2951 19
795 1 10.0929 15.4546 9.142 22
796 1 23.3437 8.73827 16.07 19
797 1 23.1372 3.94692 10.2378 19
798 1 12.2277 25.3074 1.64167 18
799 1 24.4387 22.4191 22.3642 21
800 1 31.3944 10.7281 -0.0645092 21
801 1 3.63737 26.7871 4.90491 19
802 1 2.2971 27.0528 54.0073 26
803 1 3.47916 24.5979 10.8523 20
804 1 18.1071 34.1498 57.7676 18
805 1 19.837 29.6143 19.9552 17
806 1 12.9038 32.3458 6.02554 17
807 1 11.7795 34.1175 60.8403 23
808 1 16.9387 32.2123 19.0301 21
809 1 30.2717 16.7375 4.92187 20
810 1 8.32064 26.3041 12.0202 22
811 1 17.0344 13.7198 15.5351 19
812 1 7.62148 25.7925 15.8011 18
813 1 8.86013 24.3319 6.9461 15
814 1 26.6387 22.1089 19.7113 23
815 1 26.9442 32.0098 13.6565 20
816 1 5.41175 29.821 9.77114 20
817 1 9.78678 17.2521 63.8467 21
818 1 16.1947 26.8812 61.6636 19
819 1 18.2457 18.2843 26.5246 22
820 1 13.3587 18.5433 29.2381 21
821 1 4.78916 12.4747 3.41443 18
822 1 19.6556 2.50036 7.18149 22
823 1 9.72833 26.6206 9.26042 21
824 1 23.092 6.02112 0.530604 21
825 1 7.45718 2.93645 9.56075 21
826 1 11.1058 32.5807 14.054 22
827 1 23.4836 25.5568 20.6117 21
828 1 18.3869 24.8398 64.1453 23
829 1 12.0186 9.38485 14.5562 21
830 1 24.3861 28.3484 8.26096 20
831 1 7.26922 21.076 7.7127 19
832 1 7.06164 33.0628 12.9063 23
833 1 13.1459 28.896 -0.077769 20
834 1 7.84613 21.614 4.90957 18
835 1 3.05876 32.972 13.3634 22
836 1 30.6914 5.59751 11.7695 21
837 1 2.73809 25.1212 7.61617 18
838 1 8.35693 17.2819 2.92094 21
839 1 6.2685 26.5323 9.38736 19
840 1 16.7887 27.1005 5.17745 21
841 1 15.2852 31.3994 66.1062 20
842 1 10.0572 32.1785 63.2897 20
843 1 6.76587 -0.00333564 7.58487 18
844 1 26.8538 13.6833 65.4249 22
845 1 21.1542 33.7659 22.8843 19
846 1 13.0597 19.4007 2.17221 18
847 1 27.1639 9.89344 -0.73664 22
848 1 21.6977 19.2684 5.47168 21
849 1 22.7702 24.5046 57.311 22
850 1 23.454 20.5573 66.2414 18
851 1 17.8508 27.0947 8.88248 19
852 1 28.9703 4.68546 14.5613 19
853 1 20.2737 22.217 5.81734 20
854 1 18.135 14.3993 18.0344 20
855 1 22.7072 22.3269 20.3889 21
856 1 22.6044 0.709091 7.30446 19
857 1 9.95431 31.6601 4.97121 18
858 1 15.2138 1.68361 11.0883 19
859 1 8.27462 30.6004 61.5839 19
860 1 6.11217 24.3322 25.2117 18
861 1 21.8794 0.722809 13.1591 19
862 1 3.2301 32.7156 60.5536 22
863 1 1.67326 20.2252 59.8776 21
864 1 17.8114 29.8348 15.979 24
865 1 14.9743 31.3936 17.6339 22
866 1 4.68772 33.1317 10.5088 18
867 1 25.3057 8.49838 11.1277 19
868 1 12.0213 24.7632 7.63789 16
869 1 19.7483 28.2166 2.1069 24
870 1 10.569 0.416923 64.0145 20
871 1 12.2998 5.56091 29.6694 23
872 1 16.4531 28.8491 1.50613 20
873 1 19.4172 30.5627 11.007 17
874 1 15.2207 29.0101 20.1569 21
875 1 10.3618 28.8702 16.8092 18
876 1 20.7573 17.474 21.6017 24
877 1 8.71499 22.6881 33.6314 22
878 1 8.88561 34.1981 28.1427 18
879 1 9.66907 23.2689 64.9045 19
880 1 13.6344 1.34717 -0.432672 18
881 1 10.0502 33.2359 66.1089 18
882 1 18.7983 0.913647 12.8976 19
883 1 20.429 1.72367 62.3745 23
884 1 15.4403 32.0047 4.30237 15
885 1 25.1286 0.950426 4.52812 20
886 1 17.6847 23.9869 3.9529 21
887 1 5.44914 30.1985 0.962434 24
888 1 3.8787 17.8927 1.65478 22
889 1 24.3196 3.25886 2.41693 20
890 1 9.228 1.21419 17.4042 22
891 1 10.849 29.4873 65.5014 17
892 1 26.6479 22.4529 12.3049 20
893 1 22.3786 8.52452 57.583 21
894 1 2.58862 1.07877 12.2909 22
895 1 2.29225 30.529 21.6447 20
896 1 5.5392 13.1256 -0.060124 18
897 1 16.0411 33.9704 23.5992 22
898 1 18.685 14.459 12.6462 19
899 1 4.69641 31.7878 18.8728 21
900 1 16.491 26.1811 1.99653 16
901 2 17.0427 27.87 3.07333 18
902 2 31.0971 12.9015 54.8265 20
903 2 6.3535 25.1404 61.3305 21
904 2 6.0488 12.0251 55.9593 20
905 2 30.0987 22.0778 12.0623 21
906 2 31.4999 8.4612 -0.322563 20
907 2 13.7236 16.5905 24.8842 21
908 2 2.09038 17.6097 64.9864 23
909 2 24.9484 5.30799 61.728 20
910 2 27.1817 9.60983 7.31593 20
911 2 28.301 16.6692 4.67447 17