ITEM: TIMESTEP
8000
ITEM: NUMBER OF ATOMS
1500
ITEM: BOX BOUNDS pp pp pp
-30.0 30.0
-30.0 30.0
-30.0 30.0
ITEM: ATOMS id type x y z Coordination
1 1 -7.7238 -10.6327 -7.9315 14
2 1 4.24692 -16.049 1.4816 11
3 1 -11.653 3.40336 -6.10184 20
4 1 -11.9726 -1.45172 -4.5817 20
5 1 1.95878 -6.15304 5.96618 20
6 1 -8.20083 3.1377 -10.2728 20
7 1 -3.91812 -2.95212 -8.73092 20
8 1 -7.10115 -13.111 5.34723 10
9 1 -12.5999 -8.83315 9.65676 8
10 1 2.04112 2.62769 14.3981 17
11 1 4.68569 -4.41934 5.60506 22
12 1 -2.20862 2.09406 10.1435 20
13 1 4.80156 -2.35401 3.20233 21
14 1 -1.61274 6.92524 -8.82837 18
15 1 1.35914 -0.518318 9.50603 19
16 1 12.0391 5.57215 5.98661 13
17 1 0.497015 9.07991 -8.76849 19
18 1 2.56418 6.3095 -16.2474 8
19 1 -9.8829 1.74312 4.94755 22
20 1 -6.46297 -2.27703 -10.6057 21
21 1 5.26767 -11.1174 6.72576 13
22 1 1.60563 -0.0135208 6.8535 18
23 1 8.00575 -15.8667 1.65059 10
24 1 -6.96579 -13.0896 -0.736569 17
25 1 4.78798 -4.43627 -5.54632 21
26 1 -0.373769 -7.41307 -13.3923 17
27 1 -0.915918 7.45584 10.3776 21
28 1 -3.89301 -13.2846 7.39477 12
29 1 1.96218 -5.85207 11.28 19
30 1 -15.1139 -2.71423 0.813098 17
31 1 -8.86461 -3.21915 -9.01931 21
32 1 -7.67628 9.50093 -3.50357 18
33 1 1.42312 2.4992 -8.72509 17
34 1 4.30724 -5.52347 -8.93876 17
35 1 -2.92605 -2.39477 12.7584 17
36 1 -12.2223 3.08162 0.601913 19
37 1 0.639032 12.1044 6.51068 15
38 1 -13.3633 1.91422 -8.3303 17
39 1 -2.23351 14.8274 -4.29166 13
40 1 3.4593 -6.91599 0.443952 19
41 1 5.84687 -9.27912 -8.32577 13
42 1 -11.5454 7.23918 9.80049 10
43 1 -13.8144 -6.50068 -8.0871 14
44 1 6.52215 0.129182 3.4376 25
45 1 -13.143 8.66549 -4.44571 10
46 1 -7.43246 -6.94737 9.19262 21
47 1 -13.4698 0.221499 -6.30275 16
48 1 1.10446 5.69178 -7.13966 21
49 1 3.47109 1.27094 2.20642 23
50 1 4.16762 1.99077 7.95465 16
51 1 6.13909 -15.9826 -1.15686 16
52 1 3.70798 7.05222 12.0719 14
53 1 12.2779 -4.77961 -10.5253 12
54 1 6.18962 -13.3979 0.848227 15
55 1 -7.05515 -2.66966 2.86542 23
56 1 3.51423 -4.31041 12.584 17
57 1 -6.67276 -9.99829 9.47181 12
58 1 -9.59765 -2.66121 0.583626 18
59 1 11.7763 0.885424 5.62471 15
60 1 10.5935 -2.30784 -2.64312 17
61 1 0.214401 10.0709 8.52697 23
62 1 3.45973 1.75367 11.2638 18
63 1 -7.23081 -4.48169 1.00383 17
64 1 -4.60593 -12.1239 -6.20336 16
65 1 -12.2795 6.71916 -1.37326 19
66 1 -1.38717 3.43919 -10.9094 19
67 1 3.46697 -1.27005 -6.67889 17
68 1 10.0591 -4.17397 -7.09588 17
69 1 12.5377 -10.1357 1.50211 14
70 1 3.87769 -8.4785 9.69826 16
71 1 -4.28757 10.7292 -7.72707 14
72 1 -8.30747 5.23216 5.66119 20
73 1 -7.89615 10.1731 -0.475927 20
74 1 -5.5555 -4.65982 9.81914 18
75 1 11.658 -9.72779 -6.04308 15
76 1 -14.4454 4.59936 3.62097 13
77 1 11.0742 -8.66968 -11.127 9
78 1 -1.23762 -1.5311 -14.5579 19
79 1 -4.09759 -0.531639 -16.5543 14
80 1 -1.13434 9.55779 3.10828 21
81 1 -12.5197 4.85962 -10.3022 8
82 1 -0.758278 12.2339 -8.733 12
83 1 -1.25448 6.85041 1.3732 22
84 1 -1.91423 -7.87787 8.94977 18
85 1 -0.483574 -5.15038 -8.39988 22
86 1 5.82821 -3.48325 -11.5688 14
87 1 0.158882 4.39014 9.55056 19
88 1 -11.8479 -10.2931 -1.06566 20
89 1 10.7324 -6.83594 0.128851 15
90 1 -8.89966 -9.34969 -2.03111 21
91 1 11.0335 -16.6196 0.444822 7
92 1 -6.71068 4.32797 -0.329457 20
93 1 4.20301 3.30253 -14.5212 17
94 1 4.17354 4.05388 -7.43511 19
95 1 11.8358 -14.5145 -1.43327 13
96 1 7.30342 -12.2688 3.63838 11
97 1 -13.5453 -9.67697 3.19928 13
98 1 -15.4378 -7.18377 4.44429 10
99 1 10.4505 8.05705 5.35822 13
100 1 6.87976 3.25977 -1.27718 21
101 1 -3.94787 7.71279 11.9886 13
102 1 -7.75194 7.65603 -7.72373 18
103 1 -5.26214 -6.26658 -15.3607 9
104 1 8.32517 -1.44093 11.2842 12
105 1 -1.56605 9.7543 -6.62848 20
106 1 9.1925 0.389168 -4.77221 21
107 1 -12.9238 6.54869 -7.51237 12
108 1 -7.13947 13.6989 -0.226457 12
109 1 9.37072 3.09381 -11.101 13
110 1 8.62629 -7.51234 2.42884 17
111 1 -6.10149 0.677322 -8.51529 26
112 1 6.244 16.8584 -3.11675 7
113 1 7.10925 6.46585 -0.764771 22
114 1 -3.81408 8.97001 1.30795 18
115 1 -6.57003 -4.7279 -12.0401 21
116 1 -2.20762 10.7402 6.27601 17
117 1 -8.66525 -0.858827 -6.81533 22
118 1 16.8616 -0.69682 -3.08028 14
119 1 -2.74794 7.79844 5.14015 19
120 1 -4.86491 13.6294 -2.60078 12
121 1 2.56807 -6.27603 15.7701 7
122 1 -10.3825 -5.66515 2.7894 18
123 1 -1.79912 -11.8643 4.39349 17
124 1 5.83032 -15.6068 -7.21506 10
125 1 -10.938 7.23002 -9.85852 13
126 1 0.983487 5.68718 -3.2953 21
127 1 8.67861 9.08827 -2.2792 13
128 1 0.271923 -6.39936 8.84777 22
129 1 -7.71551 1.37484 -2.19598 21
130 1 1.39316 11.4385 0.141424 19
131 1 2.27906 7.00329 9.10514 21
132 1 -6.36912 9.16084 3.50181 20
133 1 -3.53698 0.090284 -10.4484 21
134 1 14.3 -11.8908 -1.47884 13
135 1 -6.1585 -4.47029 6.20473 20
136 1 -16.285 3.60728 8.71101 8
137 1 -10.1022 -9.12556 3.78495 18
138 1 -17.4725 -1.21278 -1.76827 14
139 1 0.00189071 -12.7126 0.474015 18
140 1 -11.485 -4.53906 -0.287167 17
141 1 8.0685 -9.4083 -6.54733 16
142 1 -1.60419 13.0361 1.29456 17
143 1 -11.0393 -0.275339 6.87257 21
144 1 -8.79732 -0.445227 -10.0565 26
145 1 -10.8387 8.82097 -6.32542 12
146 1 -16.4693 -3.12727 -4.63966 15
147 1 -12.4107 -3.70714 11.6267 9
148 1 -1.99079 -10.3915 1.40114 19
149 1 1.43008 -13.5846 3.64228 15
150 1 14.662 -4.26132 0.58906 13
151 1 4.30645 3.82785 -3.72472 22
152 1 6.52613 3.73311 11.8395 16
153 1 -2.19768 7.7965 -12.836 13
154 1 8.01267 3.03613 -14.0697 9
155 1 -5.85706 -4.85112 -8.8237 23
156 1 -6.80586 12.089 -9.14849 7
157 1 -5.53018 8.46729 -9.96095 16
158 1 6.18954 -1.09113 6.20757 18
159 1 -1.47845 -4.92124 -15.7274 14
160 1 -8.42759 9.27387 -10.5341 11
161 1 4.13651 9.15143 -10.9143 13
162 1 -8.11102 3.94836 13.5149 15
163 1 -9.31019 6.44567 8.39126 16
164 1 3.82799 -10.0085 -11.0049 13
165 1 -8.7977 -13.7011 1.87005 13
166 1 9.26602 -16.6329 -1.53431 10
167 1 6.7949 -7.58082 -0.385172 16
168 1 7.76408 7.73494 -4.41996 22
169 1 -4.49465 9.17445 -1.92477 19
170 1 -11.2673 -0.432171 2.21725 19
171 1 1.1265 9.64389 13.0098 11
172 1 14.0484 -1.54788 -3.09135 19
173 1 5.22806 11.869 8.76505 11
174 1 -4.83891 0.991425 6.16829 22
175 1 -13.5542 -4.71677 -5.20854 20
176 1 5.19614 6.35568 -10.3322 17
177 1 1.62934 -3.04587 10.251 19
178 1 9.85644 7.38553 -8.72152 11
179 1 3.77091 -14.2586 -6.26077 17
180 1 -4.52301 2.81887 -15.4851 13
181 1 6.37041 -0.42069 -5.28449 20
182 1 -16.1119 -3.35269 3.83548 11
183 1 6.73226 -16.2434 -4.1586 13
184 1 -11.435 -6.84953 -5.682 20
185 1 0.509209 11.3004 -4.82116 18
186 1 3.32308 -3.85281 -16.5415 8
187 1 3.96101 4.67261 13.8232 14
188 1 15.1401 -1.3091 0.132603 13
189 1 -4.87481 -8.11341 1.05037 20
190 1 10.429 -6.09363 -9.22595 20
191 1 -5.40038 -11.1687 6.2884 18
192 1 -5.40774 -1.85296 -13.8423 19
193 1 -11.4451 -1.04943 -8.59951 21
194 1 9.2612 -0.319287 5.11229 22
195 1 1.76746 -3.35661 7.35417 20
196 1 -8.0969 -4.24796 -15.4299 10
197 1 -0.731086 -6.3027 5.5813 20
198 1 0.324787 6.4187 -13.4986 18
199 1 3.60101 6.32932 -2.35978 21
200 1 -7.99538 -6.27195 4.69006 15
201 1 -1.24008 9.98721 -0.23924 21
202 1 -10.1241 -6.64434 12.8548 11
203 1 -10.9435 -8.68858 -7.62971 13
204 1 -5.8685 -7.4631 -12.5405 13
205 1 -9.39065 -11.7106 -5.87275 12
206 1 -1.27078 -12.8938 -2.45907 20
207 1 8.36521 2.15645 3.04031 20
208 1 -6.07843 -10.2965 -1.37859 22
209 1 -9.2447 -9.08269 11.3747 10
210 1 -1.47256 -15.8517 -3.05145 11
211 1 0.548787 -8.29181 1.7202 20
212 1 0.531526 15.5458 1.16648 10
213 1 6.31569 1.06144 -13.7314 14
214 1 -5.16712 -3.407 -16.8547 9
215 1 1.40356 -13.8342 -1.75723 19
216 1 -0.256034 -7.53818 -10.2667 18
217 1 -9.71513 1.7633 -7.92049 25
218 1 10.2831 3.40383 4.77856 19
219 1 -7.26741 0.483142 -14.9252 14
220 1 -2.1386 9.37487 -9.97383 16
221 1 -6.64231 -0.790265 7.56303 22
222 1 -7.0215 10.4925 -5.9829 12
223 1 2.99006 7.21824 5.71319 21
224 1 9.88367 -4.81189 2.67396 19
225 1 -8.67704 1.15229 8.58998 19
226 1 -1.36188 -14.3804 5.78451 10
227 1 -6.79163 7.60144 0.917733 20
228 1 2.60119 -8.29596 -13.3198 10
229 1 2.62266 -11.3998 -3.75645 18
230 1 -3.11782 0.0155379 15.2202 16
231 1 -13.7527 -5.89103 7.6262 11
232 1 15.8916 -3.25778 -4.97966 15
233 1 8.32701 -3.73751 -9.79272 17
234 1 9.47504 -11.7404 -6.12167 15
235 1 -5.2899 -5.73518 2.89381 20
236 1 -10.4761 9.74696 -2.5029 18
237 1 1.68963 2.34346 4.74558 19
238 1 9.0587 4.40252 10.6083 13
239 1 -10.241 -2.08331 4.20169 19
240 1 9.83984 -12.7633 -3.76012 15
241 1 -3.31105 11.7008 3.51144 16
242 1 -9.44216 3.98209 1.07465 18
243 1 5.21405 -7.7651 7.34418 23
244 1 14.8693 -6.44554 -2.03874 18
245 1 -7.86505 8.38467 5.79584 18
246 1 -3.83544 -5.83126 -3.51037 21
247 1 -0.130747 -0.267345 14.0849 16
248 1 -7.17262 12.2007 2.12692 14
249 1 -6.54543 4.16429 -7.99038 19
250 1 -14.3766 5.57614 10.8218 8
251 1 -9.40768 6.93501 3.31758 23
252 1 -3.46902 -5.87986 -7.04496 22
253 1 -9.70213 11.8816 -0.77284 11
254 1 11.6065 -7.35788 3.54778 16
255 1 -11.5806 -11.7185 2.36773 14
256 1 8.10487 -9.29447 6.54811 15
257 1 -14.2633 3.93403 -1.87992 20
258 1 -1.75522 -5.4796 11.0912 19
259 1 1.69194 -12.1141 -9.46816 16
260 1 -8.79325 -5.92563 -6.4616 22
261 1 8.15354 -2.76766 -13.4019 11
262 1 2.46283 10.7669 3.74623 20
263 1 -9.51773 -0.983187 -2.88242 22
264 1 0.476305 -10.1839 -12.0 14
265 1 -4.44138 -14.2821 -2.24829 14
266 1 -14.3751 -8.29927 -0.289587 16
267 1 -0.896002 -10.1268 -1.87569 21
268 1 15.1836 1.42938 -5.94554 16
269 1 -14.23 -1.23088 -10.033 11
270 1 -16.8646 -0.435064 1.75613 11
271 1 -10.9529 3.20549 7.59348 24
272 1 -10.5563 9.46791 0.789095 17
273 1 -3.18092 8.09831 8.34927 19
274 1 12.8525 -4.66533 -7.24103 18
275 1 15.4319 -3.20144 -8.30724 11
276 1 -4.32903 5.77212 -3.68069 21
277 1 1.64909 -8.12993 -4.76695 20
278 1 -1.79155 5.44351 4.95962 15
279 1 -10.3462 1.17222 -4.44581 23
280 1 4.64689 -9.54856 -2.51818 18
281 1 11.346 -0.7468 7.55038 10
282 1 -6.35494 -2.18566 -7.02574 22
283 1 -8.77869 -11.0172 0.799642 24
284 1 -4.23757 11.9209 -0.00429413 21
285 1 -9.32493 -11.9228 -2.53694 18
286 1 -8.83602 4.41138 -5.79939 19
287 1 0.67188 16.2468 -4.22151 12
288 1 2.97949 9.84975 6.92001 23
289 1 -15.2014 -5.3779 -2.57313 16
290 1 -6.5542 -7.70265 -6.95684 17
291 1 -13.9688 1.39948 7.94525 17
292 1 -14.7854 3.31061 -5.56654 14
293 1 6.13157 -9.29834 4.34289 17
294 1 -5.19972 -14.5315 0.981806 15
295 1 7.34465 8.72164 -10.8713 9
296 1 -6.83984 6.06216 -9.95695 20
297 1 -1.78958 -14.2338 2.64837 14
298 1 13.2234 4.22748 3.70621 14
299 1 -4.62097 1.02325 8.896 19
300 1 -14.5249 0.696484 -0.353088 19
301 1 -3.35092 5.46736 9.67698 20
302 1 -8.3276 -9.43632 6.4259 16
303 1 2.22703 -5.68931 -6.2612 22
304 1 7.5353 -8.46036 -10.6995 10
305 1 -1.39283 -3.07088 6.57114 16
306 1 -13.0124 1.58283 4.67874 23
307 1 -2.86872 -8.86808 5.98558 20
308 1 4.56816 -13.2653 -9.57503 7
309 1 -3.62713 -6.15387 -10.4029 20
310 1 -4.21241 -1.85248 10.4577 20
311 1 4.89904 -7.52999 -6.12314 19
312 1 -3.18744 0.76259 -13.6226 24
313 1 4.08852 -13.1857 3.62993 14
314 1 -1.16254 9.55849 -3.4232 21
315 1 -7.12658 -3.17789 12.3434 18
316 1 -9.13133 -4.91678 10.968 19
317 1 9.53312 -6.87851 8.20482 12
318 1 9.33913 1.21482 0.519787 19
319 1 -7.03137 3.04105 3.29156 20
320 1 1.77362 0.574599 -13.4815 20
321 1 7.48701 -6.25322 5.30536 18
322 1 13.7507 3.41298 -4.42615 13
323 1 -1.75346 -0.235505 11.6326 21
324 1 3.19265 13.1899 5.81514 13
325 1 2.90766 -4.99544 2.95605 19
326 1 -1.74193 -11.868 -7.48735 15
327 1 -5.66453 11.3406 4.7657 12
328 1 -6.93772 -10.8105 -4.31368 21
329 1 4.08404 4.73913 9.99224 18
330 1 -8.42192 0.114184 13.8164 14
331 1 -3.58562 -11.222 -3.5715 20
332 1 -12.7173 2.64795 9.79791 15
333 1 -9.84555 -6.28587 -3.45378 19
334 1 -4.90035 9.51214 6.5753 17
335 1 -6.15328 -10.0361 -10.1277 11
336 1 -3.13923 -5.64137 -13.4919 15
337 1 -8.28632 -11.0657 3.81335 19
338 1 -7.57907 -0.14967 4.49352 20
339 1 8.20208 -1.68916 1.57602 20
340 1 -3.1513 -5.49922 13.5411 11
341 1 -9.10426 6.27157 -12.2809 13
342 1 12.6317 4.57209 -2.02081 15
343 1 -10.9555 -13.2764 -0.0655291 11
344 1 -1.09716 3.73237 -7.37878 20
345 1 -1.93769 12.3165 -2.51554 18
346 1 -4.67586 5.80822 -7.04763 20
347 1 -1.88404 4.89175 12.052 22
348 1 -11.4593 -4.1493 -3.04348 20
349 1 5.15216 8.97356 -5.36234 20
350 1 -6.73033 -7.27535 -3.54524 20
351 1 -3.98073 -11.8839 -9.82111 13
352 1 2.81692 -5.5618 -12.1035 15
353 1 -15.8166 6.84964 -3.38823 5
354 1 -0.83675 1.95333 16.7707 10
355 1 9.58296 5.89525 -2.08601 20
356 1 1.27192 6.04213 -0.418853 24
357 1 -10.9511 0.182658 -14.729 8
358 1 4.78617 1.12636 -8.27548 23
359 1 4.98297 -7.11992 3.51557 17
360 1 -18.1972 -3.03971 1.04575 9
361 1 -6.79733 3.80049 -13.933 13
362 1 12.0973 7.12179 -3.60498 10
363 1 9.0067 -9.38117 -0.859399 17
364 1 17.5033 2.04599 -4.02088 7
365 1 2.18776 -0.2876 -9.63835 21
366 1 2.53568 -9.87652 3.49752 14
367 1 -4.48177 -13.5391 3.90476 16
368 1 5.52453 -6.27007 10.7942 14
369 1 -3.86804 3.06263 -12.4579 20
370 1 -0.577753 -13.1673 -10.4688 9
371 1 1.63023 3.4626 -11.8197 20
372 1 0.261415 -5.07136 13.8818 14
373 1 -13.4786 -4.94463 4.77015 14
374 1 17.1409 -6.58968 -3.82046 10
375 1 12.3325 -4.24301 -1.17656 16
376 1 -4.2703 9.12504 -4.88038 20
377 1 2.54174 -8.78263 -8.22072 20
378 1 3.11832 5.50188 -12.9093 15
379 1 10.8078 -6.54042 -5.33761 18
380 1 -6.48856 1.81099 11.4878 21
381 1 7.96294 10.604 3.51491 12
382 1 -1.71084 -2.31923 -17.0721 14
383 1 -7.31845 -1.34615 10.7726 18
384 1 -2.65287 14.7189 -0.594374 16
385 1 -8.38613 -2.21414 -12.7076 21
386 1 -15.8786 1.73971 5.2432 12
387 1 -4.63051 -7.52906 11.1423 15
388 1 2.53488 10.537 -6.55064 17
389 1 12.3154 1.52601 -3.83326 20
390 1 -10.8704 -7.85666 0.612392 18
391 1 1.01874 -8.10305 -1.28242 19
392 1 -10.9151 8.85865 6.56131 11
393 1 5.38303 -6.8969 -11.9001 11
394 1 -1.91633 6.91947 -2.00278 21
395 1 7.65191 -2.28919 -3.48327 20
396 1 5.35028 15.2444 -6.12259 10
397 1 4.65698 -9.80661 1.57079 15
398 1 -8.3948 3.7938 9.71931 19
399 1 1.89093 12.6982 8.98858 14
400 1 -0.854014 4.23261 -16.742 8
401 1 -7.16814 -7.02058 -0.850006 19
402 1 -1.25371 -2.9189 9.82496 22
403 1 8.05735 9.71606 7.83566 14
404 1 7.52435 13.4274 -8.19855 6
405 1 -9.75776 5.11655 -8.56382 23
406 1 2.54677 16.7378 -1.60664 12
407 1 10.0623 -3.44556 9.40907 10
408 1 11.6207 1.16302 -9.90044 13
409 1 -15.1852 -10.2335 -2.45952 9
410 1 0.0898741 2.50891 7.32388 17
411 1 2.60031 13.1519 -7.44022 14
412 1 -9.01202e-04 -10.3497 -8.48102 23
413 1 5.45589 -1.61549 -9.51454 16
414 1 -0.922768 16.3252 -1.02966 10
415 1 -11.2271 -3.47415 -14.0786 10
416 1 1.24711 -16.0454 1.41299 10
417 1 -12.9028 -7.0539 2.10978 17
418 1 -7.16487 1.41165 -5.48987 22
419 1 -9.78503 -5.41123 7.45216 13
420 1 3.10958 11.1766 -2.75553 17
421 1 -2.98486 -8.5404 -8.02299 18
422 1 2.41308 -11.0254 11.7271 7
423 1 6.69733 2.88883 -5.73293 22
424 1 -11.7728 7.14186 1.68334 16
425 1 13.2773 -7.77899 -5.1062 17
426 1 2.38128 10.0734 10.2569 16
427 1 -0.232853 0.513712 -11.9041 22
428 1 0.258846 12.6539 3.11259 14
429 1 8.71093 5.48269 -6.93732 19
430 1 0.512767 -4.21236 -17.5592 11
431 1 -2.72225 -14.3446 -5.37653 15
432 1 -10.5468 -6.05203 -9.23906 18
433 1 12.5647 -0.0594218 0.404649 16
434 1 14.8654 1.57916 -1.90998 15
435 1 13.2865 -7.56848 -8.49438 14
436 1 7.03027 -11.2846 -2.69261 17
437 1 10.1335 9.10103 1.24254 13
438 1 -7.5935 0.978903 1.1831 18
439 1 9.20163 3.37147 -3.99463 20
440 1 14.4504 1.29093 2.7107 10
441 1 11.3616 1.79093 -6.65465 17
442 1 4.97505 -1.53999 12.575 12
443 1 -2.86533 -5.61459 8.22147 20
444 1 4.00156 4.12077 -0.351777 20
445 1 2.60915 -2.93383 15.0187 11
446 1 12.9323 -0.947902 -6.00993 16
447 1 8.08606 -0.772623 8.49651 17
448 1 -5.75931 -4.80938 -5.54797 21
449 1 11.8305 3.25718 0.196532 17
450 1 16.9568 -3.70368 -1.70106 13
451 1 -1.69901 -7.33148 0.157053 22
452 1 8.82765 1.88725 9.50246 15
453 1 5.57181 9.88206 6.04706 15
454 1 5.30018 3.01065 4.86753 22
455 1 -10.1302 6.60828 -3.54877 20
456 1 5.88882 6.13357 -6.68891 21
457 1 13.2764 -1.4997 -10.5756 8
458 1 1.31704 14.1422 -2.07822 17
459 1 -6.8442 -13.1711 -7.84276 10
460 1 -14.3046 3.86968 6.43501 16
461 1 -11.3666 1.78087 -10.6643 15
462 1 -3.61506 -11.8921 -0.35021 23
463 1 -6.40516 0.751754 -12.0058 24
464 1 -15.7781 -3.94021 -8.14379 11
465 1 12.2027 -13.2482 1.2765 12
466 1 12.7525 7.50133 2.93944 13
467 1 1.59855 -8.51802 7.61726 20
468 1 -12.265 -3.91378 -10.5488 15
469 1 7.87429 -3.1558 4.61492 19
470 1 -4.32326 4.73296 13.8035 15
471 1 10.5129 9.12637 -5.9317 11
472 1 6.60201 3.27952 -9.02992 17
473 1 7.38537 -13.5617 -4.96396 17
474 1 16.4277 -9.21101 -1.00188 11
475 1 4.65198 7.15663 0.998164 24
476 1 15.0802 -9.43676 -3.80874 14
477 1 -5.72607 3.65691 8.06074 20
478 1 -12.4728 -7.30107 -2.70264 19
479 1 -11.3952 -1.06256 -12.0838 17
480 1 7.66748 2.12705 6.42893 21
481 1 -3.68312 -10.2052 9.05158 18
482 1 6.77541 6.67457 12.8533 10
483 1 -7.9238 12.0751 -2.87762 12
484 1 8.69109 4.4814 0.676919 18
485 1 5.9808 4.78777 1.88837 25
486 1 2.88667 0.260546 -16.0313 12
487 1 -9.56739 -2.06796 9.14135 17
488 1 9.88258 0.367172 -13.286 9
489 1 -0.441037 -10.4306 -5.32462 18
490 1 10.3034 -9.71893 -8.95439 11
491 1 6.25905 4.42967 7.57809 19
492 1 3.96564 0.541553 5.35559 18
493 1 10.4568 7.59247 8.45507 10
494 1 0.190496 -2.32055 12.3323 20
495 1 -2.60348 2.13951 13.7126 23
496 1 1.09037 -7.09834 -16.1376 10
497 1 -6.30037 2.42532 14.4939 13
498 1 5.33787 1.53157 14.0053 11
499 1 11.2344 6.746 -0.0853751 17
500 1 4.44127 -13.3719 -3.38684 23
501 1 -7.02978 7.0445 -5.34211 19
502 1 4.64649 8.38563 -2.19697 20
503 1 5.86394 12.5937 3.78669 12
504 1 -4.12793 -2.42052 7.88605 21
505 1 -0.733349 14.1354 -6.96273 12
506 1 7.57092 7.31018 2.57991 20
507 1 -4.66207 -8.93168 -5.22676 17
508 1 -3.42812 -2.44544 -12.0173 16
509 1 -13.2522 5.83336 -4.48724 17
510 1 9.17331 -5.94624 -12.2563 12
511 1 3.08523 4.91685 2.71395 22
512 1 7.00484 5.18107 -3.59146 22
513 1 7.02197 9.53821 0.450968 20
514 1 -4.50853 3.26695 4.74596 20
515 1 -10.8543 3.68397 -2.63777 19
516 1 3.55615 6.18065 -5.49599 20
517 1 -0.164369 -9.88838 9.98086 13
518 1 -5.83565 6.4644 -12.9402 12
519 1 -0.328762 12.5487 11.2239 10
520 1 0.338769 2.04457 11.4877 21
521 1 6.22325 13.663 -3.59225 14
522 1 5.14503 7.45848 7.82236 22
523 1 9.51391 -5.26674 -2.38902 17
524 1 -12.1292 -0.461328 10.2835 13
525 1 3.55831 -16.7104 -4.29341 11
526 1 -0.807471 -2.00788 -10.0629 22
527 1 2.31773 4.7 7.33236 17
528 1 7.71936 -4.84374 -4.66729 21
529 1 1.68994 8.79039 1.11794 20
530 1 -13.1277 -0.913229 5.0435 18
531 1 3.04594 -16.4537 -1.60573 15
532 1 3.32872 7.86777 -8.20122 21
533 1 7.47525 -8.23522 10.0136 11
534 1 -5.75295 6.15631 3.12391 20
535 1 4.09339 0.243588 -12.192 19
536 1 2.00717 -11.851 6.06093 13
537 1 2.84286 13.721 2.22426 14
538 1 -4.38438 3.20615 16.9279 9
539 1 -9.73225 -4.90494 -11.7135 14
540 1 7.10623 -3.15168 -7.13657 18
541 1 -2.66906 11.263 9.03664 12
542 1 5.62406 -11.2935 -5.56612 18
543 1 6.84035 -4.75048 7.53053 19
544 1 0.416307 -13.7321 -6.94004 17
545 1 -11.7716 -3.04245 7.28265 13
546 1 -1.03487 0.961876 -8.68193 20
547 1 -7.09345 -13.8279 -4.16899 13
548 1 -9.97622 1.9566 11.9261 15
549 1 11.1224 4.02306 -7.77033 13
550 1 -2.74027 3.06843 7.09537 22
551 1 -14.6258 6.70177 1.42073 9
552 1 7.02262 -0.510527 -1.42147 19
553 1 -2.69576 11.7406 -5.17123 15
554 1 8.31375 1.34238 -7.681 19
555 1 6.95673 1.08528 -10.3678 14
556 1 -15.3075 -1.46712 -7.12884 10
557 1 -15.9632 -6.51606 -5.3246 12
558 1 2.7206 11.6587 -12.3267 6
559 1 -5.26518 0.0640929 13.3039 18
560 1 -3.06439 -4.54785 4.48119 21
561 1 -0.319749 -4.5563 -11.912 17
562 1 -6.70206 7.35337 -2.29053 21
563 1 4.45642 8.96002 3.39065 21
564 1 -12.5573 -3.23254 2.43231 19
565 1 8.27219 6.02737 -11.6202 9
566 1 -2.77924 -15.1072 0.145554 14
567 1 1.4769 6.56169 -10.3456 17
568 1 1.59953 -1.61757 -18.3726 8
569 1 -1.97847 -0.209446 7.98878 21
570 1 0.966431 8.93205 -14.3055 9
571 1 -15.5964 -5.30864 -0.116054 10
572 1 6.15618 -5.08041 -2.09138 20
573 1 -3.87772 -8.55011 -1.87079 20
574 1 7.43024 9.21464 -7.22549 18
575 1 11.3657 -11.3848 -1.04519 21
576 1 -8.32487 6.37118 11.4379 12
577 1 9.99165 -9.92978 3.82681 14
578 1 13.2384 -11.3424 -4.57429 13
579 1 10.4741 -5.05721 5.75842 14
580 1 -0.294754 6.60409 7.16277 21
581 1 -10.8003 4.93156 11.7297 15
582 1 2.73255 -11.7693 8.95738 11
583 1 11.4386 -2.5817 1.22407 16
584 1 7.76142 6.65351 9.59127 19
585 1 -12.1094 -1.63774 -0.665082 20
586 1 12.468 -8.76232 -1.56317 19
587 1 1.06646 6.0545 3.12362 17
588 1 2.23311 -0.43509 12.8291 19
589 1 0.261244 8.88959 5.23222 21
590 1 1.89455 -10.7778 -0.104409 17
591 1 -6.98601 -4.22298 -2.51879 20
592 1 1.29469 5.37056 12.2449 20
593 1 4.03205 10.2551 0.200204 20
594 1 -11.5507 -10.2049 6.51081 8
595 1 8.76187 -5.1488 11.2868 8
596 1 13.9365 -7.26542 1.07193 15
597 1 8.14389 7.40794 6.2143 21
598 1 -1.77993 6.53479 -5.47657 21
599 1 -0.183402 -7.77222 -6.79873 21
600 1 -2.88895 5.16555 -14.0878 16
601 1 -5.16815 -3.09053 15.05 11
602 1 -4.82941 14.2452 2.65141 12
603 1 11.2892 0.988763 2.7745 20
604 1 1.07067 8.00357 -5.25621 22
605 1 -0.909169 7.92574 13.692 11
606 1 6.88033 9.20419 10.6797 10
607 1 10.7142 -2.91329 -12.0007 10
608 1 -5.64995 -10.925 1.60905 20
609 1 -3.9352 0.00743887 -7.01322 20
610 1 11.6375 -1.83261 3.71972 16
611 1 1.86608 -2.98033 -8.63408 19
612 1 -1.61336 -7.81371 -3.5531 20
613 1 12.6741 -4.46474 -4.32693 21
614 1 0.871549 -8.3942 13.6881 8
615 1 1.39902 -3.709 -14.4983 17
616 1 5.44051 15.2497 -0.653744 9
617 1 -2.57565 -7.39806 2.92647 21
618 1 -14.799 3.40025 0.683037 15
619 1 10.8787 5.42968 -5.04515 16
620 1 4.96703 -2.02657 -14.0393 12
621 1 -13.7563 7.20441 4.68559 11
622 1 1.61876 3.44043 -15.3402 19
623 1 7.18207 -7.79371 -3.57614 19
624 1 -10.6703 1.08611 -1.00897 21
625 1 10.3815 5.86629 2.9114 18
626 1 -14.3763 -11.2672 0.588474 9
627 1 8.05205 1.27784 12.135 10
628 1 -11.242 -3.55465 -7.19532 19
629 1 -11.6716 6.07945 6.202 18
630 1 -3.74433 2.91132 -9.10685 19
631 1 15.8927 -6.19793 -6.57698 11
632 1 -13.7274 -9.28639 -5.59383 13
633 1 9.90196 -9.5604 -3.87043 22
634 1 -14.1951 0.452549 2.45074 17
635 1 -8.87081 -3.26552 -4.98235 20
636 1 -5.4293 -8.20913 6.76112 18
637 1 13.1968 -4.84308 3.65801 12
638 1 5.78943 -4.41648 1.15029 19
639 1 -10.4624 4.05025 3.79921 16
640 1 -1.93065 10.5909 12.4867 11
641 1 4.90127 11.462 -9.26165 13
642 1 -9.12179 9.54319 3.70303 12
643 1 8.11987 11.092 -4.95277 15
644 1 -0.846806 4.60916 14.8911 14
645 1 3.76591 -5.25639 8.6027 22
646 1 3.57075 13.96 -4.26493 18
647 1 -8.61475 -3.90355 14.2228 11
648 1 -7.62931 -7.49805 -9.77627 16
649 1 -14.4851 -2.27447 -2.79216 19
650 1 -0.954689 -11.3394 7.52626 19
651 1 4.3214 -1.57912 8.23967 20
652 1 0.81793 -14.7364 -4.43902 15
653 1 -16.8148 2.17516 -2.21246 10
654 1 10.1261 -1.42106 -7.62169 12
655 1 -9.27994 7.05246 -0.0500618 18
656 1 -7.19033 2.52256 6.06847 18
657 1 -2.68199 -8.84944 -11.4355 16
658 1 2.27365 -11.2089 -6.40955 18
659 1 9.54024 -15.269 -6.73134 7
660 1 0.348476 9.83842 -11.5264 16
661 1 17.1202 -0.870413 -6.19878 10
662 1 7.79739 5.29632 4.24655 21
663 1 10.5022 0.489571 -2.07142 15
664 1 -2.34366 1.30703 -16.9294 12
665 1 -0.296996 -9.1648 5.04481 17
666 1 6.42357 11.6688 -1.85704 15
667 1 4.80053 3.01262 -11.2804 17
668 1 -13.1479 1.65957 -3.69991 21
669 1 1.52409 9.00556 -1.96275 21
670 1 -11.1114 -6.66745 9.89855 14
671 1 5.23284 6.03458 4.63582 20
672 1 3.59271 -12.6026 -0.839278 16
673 1 5.0307 12.1356 -6.15349 20
674 1 -6.40254 6.57857 8.37302 18
675 1 -10.8184 -1.48168 12.7619 11
676 1 5.92696 1.40749 -3.00751 17
677 1 -6.72887 -6.35941 12.6727 15
678 1 9.19001 -11.962 1.40045 16
679 1 -4.60479 -1.80573 4.9006 24
680 1 9.64866 4.60792 7.9947 18
681 1 7.33002 -6.25702 -7.56302 19
682 1 -9.09856 2.23691 -12.9994 15
683 1 -0.694279 3.0934 -13.941 22
684 1 -16.1265 0.0810855 -4.15072 14
685 1 6.10225 13.1016 0.892151 12
686 1 -4.73462 6.02704 6.41766 21
687 1 -11.4102 -9.65029 -3.97301 15
688 1 -4.05166 6.14038 -0.31839 19
689 1 11.5975 2.55671 8.37736 12
690 1 -4.90219 -9.62589 3.55987 22
691 1 14.9933 0.629242 -9.16046 10
692 1 8.88778 -13.1006 -1.19722 18
693 1 2.32009 -2.19576 -11.9058 21
694 1 0.0334783 0.441674 -15.7273 20
695 1 -7.43025 -8.01671 2.52329 21
696 1 -6.53159 4.00572 -3.47522 17
697 1 -5.86363 4.69281 11.2313 17
698 1 5.53808 -2.57979 10.0939 16
699 1 -14.0209 -8.96361 6.98256 9
700 1 8.32315 -3.71245 -0.222097 17
701 1 -3.49867 6.05356 -10.57 21
702 1 14.6509 5.29908 0.59005 8
703 2 -10.7649 1.03662 -12.4904 13
704 2 -8.89627 8.95752 -6.29991 16
705 2 1.10119 -1.9788 -10.0439 20
706 2 -3.0484 3.71687 10.2059 21
707 2 -6.9299 -5.79901 -7.34393 21
708 2 1.87287 1.01573 10.6022 18
709 2 -14.3726 -7.94245 3.01087 11
710 2 -15.2008 -0.275114 -5.61118 17
711 2 -1.08288 11.5999 7.7762 15
712 2 -11.5174 -1.56913 8.64222 17
713 2 9.79727 1.56943 4.26283 22
714 2 -3.96606 -2.07791 -6.99877 22
715 2 -11.1078 -7.75476 -4.00478 21
716 2 -8.98917 0.900977 -6.08729 20
717 2 -4.86718 -9.50378 5.62594 16
718 2 1.81331 2.84803 6.64888 17
719 2 6.61258 -3.14189 -9.87189 16
720 2 -0.104817 -14.4827 -2.57451 16
721 2 7.10399 -1.56494 0.202063 20
722 2 -8.92971 10.8046 -2.08418 15
723 2 -15.391 2.21921 -4.021 14
724 2 11.2077 -1.21201 5.52195 15
725 2 10.6643 -11.1788 -4.5505 16
726 2 -6.95351 -9.90452 2.85707 20
727 2 -11.4776 -1.67837 5.67776 21
728 2 -5.08712 -11.8136 3.20843 21
729 2 11.7222 -9.53255 3.21132 12
730 2 0.430601 -13.2083 -8.73945 13
731 2 3.93184 -2.65005 13.5477 13
732 2 0.592842 13.529 -8.22392 10
733 2 -12.4362 -11.912 0.00137929 13
734 2 0.406578 2.75893 15.4054 13
735 2 -9.83803 5.89367 1.65842 19
736 2 -1.62841 1.65148 12.0021 18
737 2 -9.14374 8.04574 -2.55379 20
738 2 2.93826 -14.7698 2.62628 12
739 2 -1.29479 5.69231 10.1007 21
740 2 -1.6033 12.4906 -6.77489 15
741 2 10.7788 -8.4843 -5.05993 17
742 2 -4.18672 -1.96689 -10.3281 22
743 2 2.27345 -4.95618 -8.19641 19
744 2 9.50432 -1.18983 -3.64201 17
745 2 -4.13804 5.75699 12.1857 14
746 2 1.01605 4.95248 -16.3367 12
747 2 -10.5857 5.33112 -11.3744 12
748 2 10.1711 8.44582 -0.541446 14
749 2 -4.87832 -6.53085 13.0452 13
750 2 -13.6045 7.48519 -3.07017 13
751 2 8.14946 2.33002 -9.58021 17
752 2 -0.562727 -8.58934 -11.9391 15
753 2 -9.96237 1.30081 6.90246 20
754 2 5.87825 4.3021 0.0775799 21
755 2 -3.62431 13.0796 1.60158 15
756 2 -10.5144 -10.2077 -5.8801 15
757 2 -5.77628 12.6405 3.41008 13
758 2 3.69884 -10.4145 9.79447 12
759 2 7.34988 -7.63884 3.79739 17
760 2 -12.6968 0.203631 3.44405 20
761 2 10.7516 -12.7662 -2.03089 20
762 2 9.7507 -13.6056 -5.73758 10
763 2 6.43358 1.98634 3.41038 21
764 2 6.17834 -12.1889 5.23015 10
765 2 12.337 -7.85358 0.266079 20
766 2 -9.0076 -2.25269 13.5077 12
767 2 14.2222 -7.31209 -6.77595 14
768 2 1.02607 5.53848 8.44982 20
769 2 9.58119 6.00531 9.58664 14
770 2 -9.53776 9.28832 5.53781 14
771 2 2.20736 11.9401 1.78155 16
772 2 14.5927 -11.2499 -3.38526 11
773 2 5.44884 5.1954 -4.88481 22
774 2 -11.3488 -1.52035 -14.1081 10
775 2 -4.30344 -1.35321 15.1905 10
776 2 5.41751 1.32013 -11.3873 18
777 2 -9.47611 -1.30053 -8.31071 22
778 2 -15.5458 2.46032 7.12656 12
779 2 -14.8878 -10.0733 -0.745453 9
780 2 12.8122 0.703449 3.95577 15
781 2 -3.12072 -7.7016 7.5615 20
782 2 -1.44237 0.950576 15.2395 15
783 2 9.85975 -1.68736 -13.1981 8
784 2 3.95769 2.87395 14.2859 12
785 2 0.120466 8.20848 12.0391 19
786 2 -11.097 3.3349 2.19182 18
787 2 2.39323 -10.7185 -8.44631 18
788 2 11.7016 -2.9334 -6.94265 17
789 2 -11.1742 7.18483 7.80602 13
790 2 -1.49164 -8.27446 -1.45423 22
791 2 8.21329 -8.66226 -4.89868 22
792 2 3.94305 -2.62251 -5.00048 18
793 2 6.36046 10.862 10.0517 7
794 2 8.06083 -12.7767 -3.12804 20
795 2 2.03673 -1.79487 8.31213 17
796 2 -3.93087 -7.12714 -0.13531 22
797 2 16.0626 -3.10998 -0.192016 13
798 2 -6.85136 -9.2498 7.73303 13
799 2 8.80527 9.34381 -4.85748 13
800 2 -1.52503 -8.59479 1.79861 19
801 2 13.5438 -9.65861 -5.25773 13
802 2 5.11329 -14.5407 -8.41735 8
803 2 13.7857 -7.86129 -3.08831 22
804 2 -11.2064 7.90301 -0.173209 16
805 2 15.7539 0.50512 -7.50275 11
806 2 -6.60688 -8.57574 -11.2225 13
807 2 -8.20797 -4.77896 5.97333 16
808 2 -1.42595 -11.3616 -3.52175 18
809 2 -4.26979 -10.7014 -1.69816 26
810 2 -7.79848 10.5689 2.98942 17
811 2 -13.4462 6.03589 -0.0569011 13
812 2 4.61574 0.169778 -5.67506 20
813 2 8.14395 4.7421 -1.27888 18
814 2 0.368496 2.63646 -10.5407 19
815 2 -9.17601 4.76243 12.4029 13
816 2 -0.799561 2.14893 -16.4079 16
817 2 -12.9149 0.33557 -1.52974 22
818 2 -4.45535 2.29468 7.49813 23
819 2 -13.9182 5.54923 5.4719 13
820 2 -7.01086 3.36936 -5.58242 22
821 2 8.23492 9.33942 2.14636 15
822 2 7.56229 1.13752 -5.58701 19
823 2 13.2434 -10.4931 -0.577016 16
824 2 -13.4494 0.56947 6.34813 18
825 2 8.33837 2.68054 1.15787 20
826 2 -5.08113 6.92269 1.16606 20
827 2 -12.5888 3.11687 -10.1249 13
828 2 -5.69111 2.61077 9.94217 18
829 2 9.92202 -1.94906 7.99361 12
830 2 -10.1555 -6.89912 -7.35185 19
831 2 3.32019 4.94641 -14.789 13
832 2 11.7159 6.66249 -1.87577 15
833 2 -12.6399 -6.89321 8.72991 11
834 2 1.75226 6.93494 -2.23949 22
835 2 -7.70956 10.8097 -10.2996 6
836 2 -0.904199 8.08079 -5.08045 21
837 2 8.80103 -3.29757 10.9063 11
838 2 0.405844 3.97643 11.3984 19
839 2 12.3758 -5.67035 -5.72783 17
840 2 -6.6591 -3.39385 14.1154 14
841 2 -2.03286 -5.08973 6.36607 20
842 2 -12.0885 0.578342 -4.74173 20
843 2 -4.05063 -7.01087 -12.2097 15
844 2 8.23451 -13.6225 1.06557 15
845 2 4.25216 -1.98059 -11.4527 19
846 2 14.5563 0.0647804 1.30709 12
847 2 -2.59883 4.08903 14.1828 14
848 2 3.42946 3.59582 -12.3463 17
849 2 -8.44518 -7.87772 12.7248 11
850 2 -5.31489 -3.03764 -12.2937 19
851 2 2.99983 -10.4068 -1.8423 19
852 2 -0.537606 -8.50269 -4.98861 21
853 2 5.91977 -14.1719 -3.9236 19
854 2 11.1212 7.44029 -5.15404 15
855 2 -6.33291 2.29986 -14.9441 16
856 2 -6.43426 9.63366 5.29707 14
857 2 -7.68622 -10.6928 -2.24111 20
858 2 -9.19265 1.04214 -14.4637 13
859 2 8.89738 7.21294 -10.162 11
860 2 -1.98942 15.427 -2.37699 14
861 2 -8.33397 -13.2815 3.70781 14
862 2 11.4706 -3.74475 3.30054 15
863 2 1.86771 4.50448 13.81 14
864 2 -9.24092 -12.9072 -0.810265 16
865 2 1.65971 -10.0833 -4.90012 18
866 2 1.16447 1.03367 13.1531 19
867 2 2.06975 13.3908 7.4327 13
868 2 16.2876 -2.24713 -6.99962 14
869 2 4.39517 3.68301 8.21711 17