ITEM: TIMESTEP
244000
ITEM: NUMBER OF ATOMS
500
ITEM: BOX BOUNDS pp pp pp
-30.0 30.0
-30.0 30.0
-30.0 30.0
ITEM: ATOMS id type x y z Coordination
1 1 -4.66372 -7.08527 -6.89697 11
2 1 -7.09447 -7.57309 -5.12446 10
3 1 -6.9106 -7.99474 -1.58614 10
4 1 -6.39368 -2.03255 -9.44323 12
5 1 -6.58285 -5.06252 -7.68403 14
6 1 -7.71663 -2.33108 -5.95995 16
7 1 -9.38701 -2.86054 -3.65392 13
8 1 -6.10775 -4.33921 -5.00084 19
9 1 -8.30436 -5.52196 -2.94319 14
10 1 -5.55874 -2.06668 -3.05235 22
11 1 -9.16177 0.110932 -2.12867 16
12 1 -6.39632 -4.34032 -1.00327 19
13 1 -3.94673 -4.23854 -9.15163 14
14 1 0.603537 -5.62786 -7.63855 15
15 1 -1.40289 -8.03412 -5.58972 13
16 1 -2.04712 -10.8609 -3.17909 6
17 1 -3.68046 -7.70814 -4.06304 17
18 1 -0.985381 -6.18065 -3.14162 23
19 1 -3.1513 -7.50883 -1.11334 18
20 1 -0.417413 -10.1007 0.0844804 13
21 1 -3.20492 -2.52068 -11.1668 11
22 1 1.90856 -2.24584 -10.9021 13
23 1 -4.66222 -1.95141 -6.93472 22
24 1 -1.3833 -3.22178 -7.84307 21
25 1 -2.51146 -4.9553 -6.01862 19
26 1 -1.15109 -0.679958 -6.73096 22
27 1 -2.71969 -1.79238 -4.61493 21
28 1 -0.214639 -3.5304 -4.7861 21
29 1 -3.4854 -4.24334 -2.82853 21
30 1 -0.21368 -0.897659 -3.04452 23
31 1 -2.96939 -1.84857 -1.29876 19
32 1 -0.820426 -4.06061 -1.34805 21
33 2 -5.4415 -8.24993 -5.53838 8
34 2 -7.34375 -7.17635 -3.21593 13
35 2 -7.16685 -2.75159 -7.78792 16
36 2 -9.31677 -1.67205 -5.15585 11
37 2 -6.51145 -6.06121 -6.15597 15
38 2 -7.96929 -4.01464 -4.36176 17
39 2 -5.6986 -2.36774 -5.29061 20
40 2 -9.26677 -1.79513 -2.12777 14
41 2 -5.54244 -4.4445 -2.84197 18
42 2 -8.34505 -4.74247 -1.02534 15
43 2 -6.54596 -2.31692 -1.11483 20
44 2 -3.40013 -3.30923 -7.42742 21
45 2 -2.93185 -6.75787 -5.8849 15
46 2 -2.42049 -9.09259 -4.17552 11
47 2 -0.0276477 -7.53848 -4.31241 18
48 2 -2.91754 -6.258 -2.79138 19
49 2 -0.821019 -10.3174 -1.85392 10
50 2 -4.97858 -8.12745 -0.84249 12
51 2 0.0479537 -6.98364 -1.48559 21
52 2 -2.01852 -3.86503 -9.91098 14
53 2 -4.91009 -2.88039 -10.2939 12
54 2 0.792544 -4.96535 -9.29445 13
55 2 -4.88759 -5.60866 -8.23794 13
56 2 -0.398906 -1.58545 -8.17974 20
57 2 -3.13132 -0.775196 -6.32368 20
58 2 -0.593564 -4.50715 -6.52136 21
59 2 -2.60411 -3.77625 -4.37358 24
60 2 -0.688954 -1.45868 -4.85569 21
61 2 -3.75576 -1.3648 -2.96979 20
62 2 0.0662209 -4.50409 -2.95825 21
63 2 -2.98428 -3.82493 -0.951332 22
64 2 -0.989091 -1.98052 -1.49773 24
65 1 -8.7034 0.347924 1.12825 17
66 1 -8.0749 -5.7001 0.7074 12
67 1 -6.08405 -6.85904 4.95053 16
68 1 -7.1646 -5.70544 7.43747 10
69 1 -8.47194 -2.66643 -0.492219 17
70 1 -5.73316 -1.68406 0.712328 21
71 1 -8.1976 -2.72596 2.56516 15
72 1 -5.79879 -4.55357 2.57142 19
73 1 -8.6723 -5.16396 4.2276 11
74 1 -5.5618 -1.32303 4.16537 22
75 1 -8.32784 -1.96268 5.70809 13
76 1 -5.64811 -3.87219 5.6466 20
77 1 -5.39493 -1.35538 7.43275 16
78 1 -4.74924 -4.08057 8.9617 10
79 1 -5.41562 -7.86854 0.956246 12
80 1 -0.181719 -6.65081 0.576461 22
81 1 -2.93916 -8.05247 2.06116 17
82 1 -4.68809 -9.719 4.2 10
83 1 -0.168884 -6.48653 3.8197 23
84 1 -5.24729 -8.84854 7.41103 9
85 1 -2.82346 -7.94335 5.17438 18
86 1 -0.409475 -6.42703 6.87081 20
87 1 -3.54916 -4.87613 0.641311 23
88 1 -0.426582 -0.979967 0.333097 20
89 1 -2.76911 -1.5042 2.34359 22
90 1 -0.893562 -3.63069 1.92538 23
91 1 -2.92175 -5.04269 3.81917 20
92 1 0.183054 -1.00109 3.79406 22
93 1 -2.79199 -1.86555 5.7069 22
94 1 -0.838894 -3.70109 5.3957 23
95 1 -3.45872 -5.18358 6.7389 22
96 1 0.0212681 -1.01799 7.30533 21
97 1 -1.26585 -4.31827 9.05204 18
98 1 -2.56499 -7.07174 8.75844 12
99 1 -0.123685 -2.12114 10.6939 11
100 2 -7.16451 -7.2023 0.14989 12
101 2 -7.31487 -5.57024 5.4331 13
102 2 -8.71677 -1.45554 0.906054 15
103 2 -5.5138 -4.79903 0.691301 19
104 2 -7.76739 -4.80626 2.48027 16
105 2 -6.32093 -2.20487 2.63369 23
106 2 -8.53231 -0.220864 4.94216 16
107 2 -5.09774 -5.39478 4.21186 21
108 2 -8.71672 -3.15641 4.39661 12
109 2 -6.35556 -1.9927 5.70598 19
110 2 -5.69707 -4.49232 7.44202 13
111 2 -4.35298 -2.10066 9.134 13
112 2 -2.70162 -6.70748 0.434674 18
113 2 -1.56171 -9.21578 1.25964 16
114 2 -4.79387 -8.63627 2.56893 13
115 2 1.23189 -6.61658 2.09153 24
116 2 -2.15403 -6.81563 3.65432 24
117 2 -2.55295 -9.61281 4.27752 11
118 2 -4.81433 -8.41677 5.54413 14
119 2 -2.30616 -6.70518 6.66481 19
120 2 -6.56628 -7.54706 7.4117 8
121 2 -0.807906 -6.41951 9.11917 11
122 2 -3.62314 -1.16743 0.394637 20
123 2 0.155063 -4.26021 0.393928 23
124 2 -2.81457 -3.74711 2.29236 20
125 2 -0.686252 -1.69844 2.3443 22
126 2 -3.25582 -1.21097 4.0401 22
127 2 -0.175512 -4.22345 3.67189 24
128 2 -2.82438 -3.84793 5.43981 21
129 2 -0.698359 -1.64251 5.55944 20
130 2 -3.39359 -0.764573 7.03983 20
131 2 -3.89259 -8.45965 8.54823 9
132 2 -3.17557 -5.04583 8.76093 13
133 2 -0.525772 -4.22647 7.24852 20
134 2 -1.20377 -0.855214 9.59696 14
135 2 -0.141263 -3.85665 10.5034 10
136 1 -6.6784 0.614953 -7.60632 14
137 1 -9.42235 0.268228 -5.68374 10
138 1 -6.28766 3.55934 -6.15344 15
139 1 -9.27642 3.004 -3.69265 14
140 1 -6.74275 0.756504 -4.23537 20
141 1 -8.90371 3.05678 -0.3868 16
142 1 -6.20645 3.57612 -2.4721 21
143 1 -9.75902 5.60378 -2.35747 9
144 1 -6.35862 1.19969 -0.930396 21
145 1 -7.36971 5.98119 -4.5045 14
146 1 -6.64551 8.73172 -2.85501 11
147 1 -0.610419 -0.796437 -10.0686 17
148 1 -3.83562 0.36461 -9.32343 15
149 1 -0.204375 4.50731 -9.60082 14
150 1 -3.29947 3.56537 -7.67951 16
151 1 -1.06916 1.67712 -8.25125 20
152 1 -3.86349 0.989676 -6.12248 23
153 1 -0.206623 4.22945 -6.28626 23
154 1 -3.427 3.73055 -4.28873 22
155 1 -1.09105 1.62136 -4.85168 22
156 1 -3.70472 0.45653 -2.74034 20
157 1 -0.474172 4.69611 -3.15938 22
158 1 -2.96052 4.0292 -1.07987 19
159 1 -1.00686 2.17962 -1.40395 21
160 1 -1.58764 6.47959 -7.91777 14
161 1 -4.53792 6.09692 -6.4178 13
162 1 -3.88577 8.52295 -4.81726 11
163 1 -1.64573 6.98828 -4.79829 20
164 1 -4.69523 6.50161 -2.90822 21
165 1 -0.64848 9.33258 -3.06602 14
166 1 -3.66453 8.98856 -1.32696 16
167 1 -1.55382 7.20898 -1.15009 22
168 2 -5.5608 -0.218372 -8.87226 12
169 2 -5.83925 0.914698 -5.96106 19
170 2 -8.60654 0.887178 -7.17684 10
171 2 -8.79161 1.005 -3.87338 16
172 2 -6.72034 3.58515 -4.31237 18
173 2 -8.79222 4.99023 -3.74073 13
174 2 -5.72961 0.785826 -2.59213 18
175 2 -9.79841 3.63899 -1.8909 11
176 2 -6.87284 3.1258 -0.553141 20
177 2 -6.26054 5.47713 -6.20716 12
178 2 -4.83267 8.87093 -2.99263 13
179 2 -6.75697 6.68212 -2.82945 17
180 2 -7.31499 9.0689 -1.07836 10
181 2 -2.73659 -0.713848 -10.3242 16
182 2 0.57353 0.631574 -9.17038 19
183 2 -3.02495 1.56584 -8.02952 18
184 2 -1.12469 3.57979 -7.96824 17
185 2 -4.05257 3.8202 -6.11199 17
186 2 -0.298338 1.07531 -6.58064 20
187 2 -3.04876 1.57858 -4.24325 22
188 2 -1.32809 3.69246 -4.62575 21
189 2 -4.27153 4.52398 -2.48827 20
190 2 -0.192314 1.33857 -2.97445 20
191 2 -2.92315 1.57132 -1.23334 20
192 2 -1.05678 4.23566 -1.3279 20
193 2 -0.360322 6.45406 -9.42479 11
194 2 -3.17264 5.54032 -7.80421 14
195 2 -0.528631 6.21557 -6.20153 21
196 2 -3.47235 6.63384 -4.79166 19
197 2 -2.01512 9.11046 -4.56109 14
198 2 -1.45677 9.22047 -1.29631 14
199 2 -0.368958 7.16331 -3.21236 19
200 2 -3.55709 6.84121 -1.17473 21
201 2 2.71182 10.5323 -2.14191 10
202 1 -10.1498 6.61363 1.04454 7
203 1 -5.91789 4.37413 0.718578 22
204 1 -8.49458 3.65544 2.60565 15
205 1 -6.39228 1.36893 2.60407 22
206 1 -9.39521 1.33234 4.04736 12
207 1 -5.63287 4.31006 4.08426 18
208 1 -8.37439 3.41106 6.18978 12
209 1 -7.00228 0.932679 5.71225 20
210 1 -5.59953 4.22324 7.16259 16
211 1 -6.82903 1.6558 8.71059 11
212 1 -7.42943 7.0039 -0.810133 20
213 1 -6.43561 9.82903 0.528381 12
214 1 -7.18575 6.41256 2.21419 14
215 1 -5.95696 8.572 3.75905 10
216 1 -3.5864 0.82103 0.489635 19
217 1 -0.334181 4.54665 0.303329 20
218 1 -3.06391 3.6427 2.03541 20
219 1 -1.00743 1.85328 2.31475 21
220 1 -3.52013 0.852897 4.09471 20
221 1 -0.145262 4.29113 3.54719 21
222 1 -2.92141 4.2856 5.48832 21
223 1 -0.884206 1.43168 5.59507 23
224 1 -4.10437 1.17456 6.87417 22
225 1 -0.210001 4.28652 7.18629 23
226 1 -3.5514 3.32297 9.13302 13
227 1 -1.03403 1.08691 9.30529 17
228 1 -3.17117 -0.664379 9.01248 13
229 1 -0.0790763 4.28517 9.90174 12
230 1 -4.38338 6.49236 0.567072 22
231 1 -0.745949 9.77192 0.311516 15
232 1 -3.28004 9.09775 1.77429 17
233 1 -0.793632 6.96718 2.09605 19
234 1 -3.49978 6.58702 3.89341 20
235 1 -0.286578 10.1937 3.48025 14
236 1 -2.77027 9.21042 5.39406 11
237 1 -0.562243 7.18122 5.40557 19
238 1 -2.66236 6.30178 7.67093 14
239 1 0.93776 6.79831 8.1166 13
240 2 -8.29596 1.70979 2.3705 17
241 2 -9.28714 6.6796 -0.624598 11
242 2 -5.80259 0.501254 0.852966 21
243 2 -8.66039 1.1381 -0.590054 16
244 2 -6.38045 3.37501 2.48808 20
245 2 -9.04758 3.21218 4.39774 12
246 2 -5.55787 0.843298 4.26607 20
247 2 -8.16085 2.09962 7.47413 10
248 2 -6.59635 3.89198 5.60921 18
249 2 -5.88114 0.646706 7.25214 20
250 2 -5.33716 2.92246 8.58162 12
251 2 -6.29037 6.29501 0.405851 21
252 2 -8.77386 5.57103 1.93887 14
253 2 -6.73402 8.5694 2.10374 12
254 2 -5.5787 6.45674 3.9956 18
255 2 -3.97207 8.80954 3.71422 13
256 2 -3.79948 4.63387 0.44674 21
257 2 -0.300866 1.17049 0.425194 19
258 2 -3.11016 1.51765 2.36925 19
259 2 -1.05378 3.68071 1.83615 21
260 2 -3.7285 4.53456 3.64341 20
261 2 0.149088 1.10628 3.72691 21
262 2 -2.76845 2.2169 5.52439 23
263 2 -1.01632 4.30737 5.46161 21
264 2 -3.97305 5.01775 7.06294 17
265 2 -0.103892 0.900435 7.34775 21
266 2 -3.06258 1.36721 8.82687 16
267 2 -1.59375 4.0337 8.87264 17
268 2 0.377446 2.43185 10.0052 14
269 2 -4.61183 9.36379 0.289048 17
270 2 -0.146399 6.56356 0.138305 21
271 2 -2.67885 7.12627 1.89344 21
272 2 -1.55391 9.62926 2.19876 15
273 2 -0.68944 9.63992 5.34531 12
274 2 0.080583 6.60781 3.75237 21
275 2 -2.87166 7.01441 5.66173 15
276 2 1.28858 7.96372 6.69072 12
277 2 -0.773144 6.38505 7.32017 16
278 1 3.12025 -3.97548 -6.18705 19
279 1 4.75028 -5.8022 -3.98005 19
280 1 1.87933 -6.94874 -4.89993 18
281 1 4.15038 -8.77369 -2.90208 11
282 1 0.224849 -8.65148 -2.47732 18
283 1 7.09936 -7.60738 -3.58012 8
284 1 2.02497 -6.5449 -1.55964 25
285 1 3.15635 -9.15659 0.125643 14
286 1 -0.328896 -4.45556 -10.6321 12
287 1 2.88772 -4.71622 -9.47873 12
288 1 7.39524 -1.35424 -8.23797 12
289 1 4.4602 -2.14432 -9.2082 14
290 1 5.80866 -4.1717 -7.30947 12
291 1 1.57166 -0.825983 -7.95122 21
292 1 5.25587 -0.504584 -6.27056 20
293 1 2.81651 -1.27778 -4.69734 20
294 1 5.89826 -2.98086 -4.27557 18
295 1 1.99648 -4.18773 -3.09178 23
296 1 5.72988 -0.416265 -2.89676 20
297 1 2.66421 -1.20672 -1.46325 22
298 1 4.42086 -4.34371 -1.07826 21
299 1 9.80211 -6.19615 -1.49078 10
300 1 9.48567 0.0702687 -5.99747 9
301 1 8.58154 -2.97531 -5.71859 11
302 1 9.08198 -1.67206 -2.9921 13
303 1 7.62972 -4.3301 -2.48167 18
304 1 11.4756 -0.655359 0.109438 9
305 1 8.39079 0.0877395 -0.972229 18
306 1 9.66312 -2.8988 0.0425084 17
307 2 2.10075 -5.74799 -6.35002 14
308 2 2.17508 -8.51794 -2.57956 15
309 2 5.34303 -7.71997 -3.83698 10
310 2 2.69772 -5.94232 -3.42984 21
311 2 1.17894 -9.53174 0.696325 14
312 2 6.7527 -6.51328 0.633992 19
313 2 2.85189 -4.10223 -11.3621 8
314 2 4.07635 -4.09297 -8.14105 14
315 2 7.36503 -3.12825 -7.48409 12
316 2 2.88106 -0.421079 -6.56829 20
317 2 5.11764 -4.43648 -5.55442 17
318 2 2.01203 -3.13597 -4.88955 22
319 2 4.78577 -1.45222 -4.41355 20
320 2 1.82062 -0.682748 -3.08267 20
321 2 5.63231 -4.48569 -2.97188 17
322 2 2.77105 -3.26099 -1.49943 22
323 2 4.40359 -0.53559 -1.20525 21
324 2 8.46574 -6.5398 -2.96903 10
325 2 9.33667 -1.37273 -4.9177 11
326 2 8.07117 -3.28213 -4.00807 13
327 2 9.84333 -1.17608 -1.02089 15
328 2 7.47532 -0.526132 -2.38029 18
329 2 8.9604 -4.28715 -1.10402 15
330 2 11.0498 -3.81674 1.53866 13
331 1 1.75754 -8.64915 2.45772 16
332 1 5.12823 -7.39202 0.310077 14
333 1 2.86535 -5.70581 1.67351 22
334 1 4.53664 -7.5388 3.47253 15
335 1 -1.04833 -10.2115 3.12067 12
336 1 2.62219 -6.10941 5.52615 17
337 1 1.42564 -8.82052 5.49966 9
338 1 7.79882 -6.7112 4.05261 10
339 1 1.70814 -3.22759 0.18091 23
340 1 5.64401 -1.25556 0.0889135 21
341 1 2.43624 -1.28734 1.98666 22
342 1 4.63877 -3.16612 1.94347 20
343 1 1.67754 -3.67595 3.74412 22
344 1 5.40469 -1.32101 3.7178 23
345 1 2.7476 -1.66422 5.64498 18
346 1 5.11793 -4.70738 4.51836 20
347 1 1.27004 -3.59907 7.18232 20
348 1 5.53448 -1.20747 7.35601 17
349 1 2.95678 -1.42251 9.11631 15
350 1 4.10565 -4.63928 8.32296 12
351 1 0.876283 -5.5912 9.61784 10
352 1 8.36539 -7.35916 1.64386 10
353 1 7.3426 -4.74976 0.47795 20
354 1 10.8285 -2.50437 2.79815 13
355 1 7.7613 -1.46149 2.07282 23
356 1 10.7681 -5.73563 2.034 13
357 1 7.91826 -3.9754 3.41495 22
358 1 8.47705 -1.71168 5.4204 12
359 1 6.72992 -3.94172 6.32801 14
360 2 4.53822 -8.2799 -1.20289 13
361 2 3.52718 -7.9259 1.70475 15
362 2 3.86089 -5.7248 3.44065 19
363 2 3.38048 -5.82334 -0.101219 22
364 2 0.714546 -9.6966 3.7436 12
365 2 3.10518 -8.08917 4.79494 13
366 2 0.801046 -6.89271 5.47755 19
367 2 1.57698 -0.912965 0.192384 20
368 2 5.5262 -3.38949 0.297892 21
369 2 2.67665 -3.40565 1.86199 24
370 2 4.45736 -0.911602 1.78833 21
371 2 2.1106 -1.46391 3.8607 19
372 2 5.88778 -3.23424 3.43783 20
373 2 2.15786 -4.23427 5.50487 20
374 2 4.49682 -0.950226 5.37379 17
375 2 1.72488 -1.68347 7.32027 22
376 2 7.07274 -5.18754 4.80184 13
377 2 2.14669 -4.87077 8.51055 15
378 2 4.54061 -2.6988 8.24647 14
379 2 1.4203 -1.15012 10.302 12
380 2 9.81613 -6.8374 0.572445 11
381 2 6.54313 -7.87242 3.22545 11
382 2 8.23813 -3.31247 1.28492 21
383 2 9.16687 -6.0428 3.07911 13
384 2 9.45604 -2.66362 4.13319 14
385 2 7.44541 -0.747869 3.89214 22
386 2 7.12807 -2.22056 6.67949 14
387 2 5.19718 -5.07411 6.73566 12
388 1 1.8985 1.62373 -10.1328 11
389 1 2.69638 3.6708 -8.01309 17
390 1 4.83059 1.02968 -8.33607 15
391 1 1.81401 1.44876 -5.95993 22
392 1 6.03277 4.84977 -6.07042 14
393 1 2.75113 4.46021 -4.62636 21
394 1 4.94722 2.03016 -4.99942 21
395 1 1.89859 1.31911 -3.02578 20
396 1 5.85999 4.50327 -2.73665 22
397 1 2.58444 4.26468 -1.29593 20
398 1 4.45183 1.56346 -1.40333 22
399 1 0.36882 8.12434 -9.03831 9
400 1 3.65192 6.95733 -7.94353 8
401 1 0.946909 7.40119 -6.08824 20
402 1 -0.718118 10.031 -5.81104 11
403 1 4.29931 7.09201 -4.93778 16
404 1 1.54723 6.8862 -3.26639 21
405 1 2.60775 10.0061 -3.89033 12
406 1 4.11417 7.8112 -2.20498 17
407 1 7.82326 1.95437 -7.26005 12
408 1 8.82075 3.72408 -4.93192 11
409 1 8.15028 4.1999 -1.17229 19
410 1 7.67614 1.98504 -3.25533 18
411 1 9.76048 6.09907 0.555063 9
412 1 10.3627 2.45046 -0.682547 14
413 1 7.02191 7.42137 -2.1977 11
414 2 -0.01338 -2.55588 -10.9962 14
415 2 1.49712 3.64212 -9.38389 10
416 2 5.19238 -0.80979 -8.16313 15
417 2 2.71581 -1.65706 -9.51548 16
418 2 3.1279 1.7095 -8.61025 14
419 2 1.62473 3.3613 -6.42514 20
420 2 5.68509 1.44842 -6.6031 19
421 2 3.15306 1.3646 -4.64671 20
422 2 4.94262 4.09724 -4.75189 19
423 2 1.60394 4.56055 -2.97469 20
424 2 5.58208 1.68669 -3.0984 20
425 2 2.57182 2.08543 -1.22294 21
426 2 4.59247 4.16371 -1.54437 19
427 2 2.03631 7.60166 -8.15505 11
428 2 5.04684 6.34754 -6.73179 11
429 2 2.42738 6.36715 -5.23923 22
430 2 -0.247529 8.83893 -7.0943 10
431 2 0.779745 9.27475 -4.34435 15
432 2 5.39809 6.58273 -3.04532 17
433 2 2.37494 7.01023 -1.6081 22
434 2 3.67759 8.50999 -3.97891 13
435 2 8.37346 -0.239425 -7.44454 11
436 2 7.62727 3.82545 -6.44896 10
437 2 8.77525 1.7566 -5.28003 13
438 2 8.14013 4.43129 -3.27341 17
439 2 11.1911 1.18061 0.322861 10
440 2 8.48085 2.05075 -1.41716 19
441 2 9.74391 4.21973 -0.203807 13
442 2 8.18909 6.61423 -0.931309 13
443 1 1.7987 1.45591 0.391479 23
444 1 5.13878 4.21577 0.413612 20
445 1 2.58911 3.94634 2.12427 21
446 1 4.78415 1.10991 1.91971 22
447 1 1.96992 1.82994 3.91744 20
448 1 5.48148 3.7475 4.10295 20
449 1 2.84979 3.97288 5.5033 21
450 1 4.57118 1.22967 5.53731 23
451 1 1.60415 1.63489 7.24458 21
452 1 5.55813 4.23928 7.42045 16
453 1 2.92976 4.46207 8.80308 15
454 1 4.49586 1.6539 8.92805 15
455 1 1.64841 0.77757 10.6287 11
456 1 1.72992 7.00254 0.242166 19
457 1 2.50299 10.3541 -0.428289 11
458 1 2.53848 9.74951 2.28211 13
459 1 5.82389 9.15055 0.842208 12
460 1 1.79037 7.63827 3.86088 17
461 1 1.16035 9.72946 5.98696 11
462 1 4.17749 6.78911 2.63523 18
463 1 3.13587 7.24836 6.45289 13
464 1 7.34494 1.71196 0.788929 21
465 1 8.00275 4.17693 2.48485 18
466 1 10.4742 1.15119 2.26111 13
467 1 7.73686 1.3784 3.89385 17
468 1 8.18168 3.9996 5.78307 10
469 1 7.01378 1.87361 7.37345 11
470 1 6.82926 6.55892 0.511855 18
471 1 7.25546 6.83388 3.38861 13
472 2 1.59589 4.40237 0.448848 21
473 2 5.43098 2.02802 0.230906 24
474 2 2.70749 1.85939 2.14834 23
475 2 4.48468 4.86544 2.28403 21
476 2 1.7408 3.9498 3.85305 20
477 2 5.61401 1.93763 3.46834 22
478 2 2.67271 1.19089 5.72996 21
479 2 4.63545 3.3499 5.84373 22
480 2 1.69196 3.51211 6.90238 24
481 2 5.60206 0.735737 7.69944 15
482 2 2.95998 0.68652 9.1273 17
483 2 4.43432 3.42124 8.69598 14
484 2 1.33277 5.61492 9.44816 12
485 2 1.17828 9.87206 1.04727 14
486 2 5.75956 8.05104 -0.749221 11
487 2 2.49397 7.57815 2.09777 18
488 2 3.89466 9.87896 0.88576 11
489 2 1.6083 9.60262 4.16653 13
490 2 5.98682 7.61424 1.98528 14
491 2 3.50733 6.94112 4.50151 18
492 2 3.39029 5.68938 7.3553 12
493 2 7.0209 4.19377 0.463834 21
494 2 10.9458 -0.601452 2.25793 13
495 2 7.37849 -0.234089 0.608112 22
496 2 8.74248 2.06784 2.11995 19
497 2 7.26602 4.83462 4.09766 16
498 2 7.53299 2.22527 5.43917 14
499 2 7.50567 3.85023 7.67151 9
500 2 8.38426 6.1909 1.93696 10
