ITEM: TIMESTEP
151000
ITEM: NUMBER OF ATOMS
500
ITEM: BOX BOUNDS pp pp pp
-30.0 30.0
-30.0 30.0
-30.0 30.0
ITEM: ATOMS id type x y z Coordination
1 1 -4.58862 -7.13929 -6.83463 11
2 1 -7.76515 -7.18875 -5.3357 10
3 1 -6.6662 -7.128 -2.28247 19
4 1 -5.9344 -1.85261 -9.5009 11
5 1 -6.38776 -4.6438 -7.34038 11
6 1 -7.17582 -2.11911 -6.23009 17
7 1 -9.38637 -2.74294 -3.57937 14
8 1 -6.90696 -4.22457 -4.18118 18
9 1 -9.3365 -5.70382 -2.36252 12
10 1 -6.17671 -0.935921 -2.64665 22
11 1 -8.30804 -1.43195 -0.880211 19
12 1 -6.34433 -4.06694 -1.19887 22
13 1 -3.82921 -4.40427 -9.5044 12
14 1 0.510309 -5.72667 -7.24862 15
15 1 -2.24512 -7.8134 -4.97705 15
16 1 -1.18544 -9.93037 -3.61695 12
17 1 -4.95438 -8.93571 -4.09674 12
18 1 -0.748666 -6.59373 -3.02038 21
19 1 -3.41073 -7.72849 -1.39121 17
20 1 0.483821 -9.58312 -0.570203 13
21 1 -2.78038 -1.43175 -10.6723 14
22 1 1.20012 -0.816922 -8.12704 20
23 1 -3.06488 -1.82321 -7.74711 21
24 1 -0.622315 -3.22377 -9.11498 16
25 1 -2.3202 -4.81605 -6.66506 19
26 1 -1.33508 -0.772501 -5.95705 22
27 1 -4.11861 -2.10903 -4.42456 20
28 1 -1.0549 -3.89724 -4.38517 20
29 1 -3.77966 -5.023 -3.14609 21
30 1 0.0208016 -1.1096 -2.98642 21
31 1 -3.07832 -2.16638 -1.16076 21
32 1 -0.688617 -3.75568 -1.20374 22
33 2 -5.77234 -8.10967 -5.61276 12
34 2 -8.19515 -6.69971 -3.44314 13
35 2 -6.52157 -2.79877 -8.04727 14
36 2 -8.84502 -2.09127 -5.24905 12
37 2 -6.89631 -5.6958 -5.84654 13
38 2 -8.35114 -4.00052 -2.97148 16
39 2 -6.24338 -2.19117 -4.45144 21
40 2 -9.61132 -1.14093 -2.42857 14
41 2 -5.69765 -5.17201 -2.58748 22
42 2 -9.51384 -5.11816 -0.458793 12
43 2 -6.53073 -2.07236 -1.0602 21
44 2 -2.41773 -3.58382 -8.21139 16
45 2 -2.86663 -6.56588 -6.33803 17
46 2 -3.07711 -9.35745 -4.12027 12
47 2 -0.31847 -8.14085 -4.3922 15
48 2 -2.6352 -6.75687 -2.87813 19
49 2 0.252778 -10.2798 -2.37702 12
50 2 -5.08698 -8.16893 -2.34107 13
51 2 0.279248 -7.55795 -0.950568 21
52 2 -0.865859 -1.82194 -10.6345 14
53 2 -3.98282 -2.50525 -9.80328 13
54 2 0.904877 -4.46892 -8.79668 15
55 2 -4.76712 -5.61732 -8.19326 10
56 2 -0.51221 -1.63573 -7.57315 24
57 2 -3.60427 -1.15613 -6.10118 21
58 2 -0.480964 -4.45733 -6.14196 19
59 2 -2.99762 -3.70282 -4.59564 20
60 2 -0.629922 -2.04337 -4.58194 21
61 2 -3.99758 -0.994774 -2.65457 17
62 2 0.00253737 -4.73201 -2.71153 23
63 2 -2.99945 -4.12359 -1.57912 20
64 2 -1.12011 -1.90661 -1.27171 20
65 1 -9.91586 1.26712 0.584366 17
66 1 -8.17045 -6.20043 0.830561 12
67 1 -5.66271 -6.60819 4.1242 20
68 1 -7.36497 -6.08984 7.02786 9
69 1 -9.91431 -3.84314 0.896653 10
70 1 -5.86712 -1.12118 0.533436 22
71 1 -8.51219 -1.34832 2.43378 20
72 1 -6.56843 -3.78913 1.99583 21
73 1 -8.81904 -4.30904 4.01219 15
74 1 -5.83789 -1.53172 3.87122 20
75 1 -8.77932 -1.43492 5.85799 13
76 1 -6.36285 -3.82201 5.53861 21
77 1 -5.85223 -1.00502 7.39609 16
78 1 -4.58998 -3.99064 8.48312 14
79 1 -5.48646 -7.31573 0.683729 16
80 1 -0.0526629 -6.60902 0.755743 19
81 1 -2.97228 -7.03435 2.1335 19
82 1 -4.62454 -9.58659 3.28243 11
83 1 0.182372 -6.49097 3.59063 21
84 1 -4.78596 -8.52904 6.81755 11
85 1 -2.45881 -8.00649 4.8454 19
86 1 0.317689 -6.52572 6.70586 18
87 1 -3.58964 -4.74827 0.238867 20
88 1 -0.334791 -0.991456 0.347578 19
89 1 -3.12091 -1.44685 1.95954 21
90 1 -0.841071 -3.68046 1.93523 23
91 1 -3.78734 -4.16615 3.66161 18
92 1 -0.0110889 -0.9575 3.52365 21
93 1 -2.96138 -1.92663 5.33446 23
94 1 -0.609407 -3.76354 5.12111 23
95 1 -3.63335 -5.37538 6.31412 21
96 1 -0.0975762 -1.11957 6.98272 21
97 1 -1.30893 -3.97945 8.02839 20
98 1 -2.15354 -6.87613 8.3571 13
99 1 -0.367695 -2.13751 10.1379 11
100 2 -6.88042 -6.87751 -0.469903 16
101 2 -8.16674 -4.96014 5.76645 11
102 2 -9.06979 -2.00136 0.837336 16
103 2 -5.62953 -4.47947 0.470672 20
104 2 -8.39169 -4.95016 2.25474 15
105 2 -6.62973 -1.7998 2.11936 22
106 2 -8.9608 0.437017 5.22137 14
107 2 -5.89326 -4.38651 3.64328 20
108 2 -8.96611 -2.39403 3.95333 16
109 2 -6.86568 -2.01123 5.6362 19
110 2 -5.85705 -4.89842 7.10658 15
111 2 -4.73787 -1.93259 8.86171 12
112 2 -3.64135 -6.82762 0.249537 18
113 2 0.138271 -9.7811 1.21343 13
114 2 -5.6039 -7.7726 2.53819 15
115 2 -0.999097 -7.54042 2.27955 19
116 2 -3.48144 -6.18124 4.02357 21
117 2 -2.85058 -9.26174 2.7427 13
118 2 -4.13496 -8.97272 4.98537 13
119 2 -0.594534 -7.371 5.21127 20
120 2 -6.08101 -7.38068 6.09942 14
121 2 -0.253198 -6.5432 8.52399 13
122 2 -3.80659 -1.09193 0.280396 23
123 2 -0.175907 -4.52003 0.386658 20
124 2 -2.94102 -3.66152 2.00642 21
125 2 -1.10633 -1.77512 1.89715 21
126 2 -3.92337 -1.27679 3.78894 21
127 2 0.0128874 -4.57828 3.40855 22
128 2 -2.72027 -3.86106 5.4489 20
129 2 -0.716887 -1.73042 5.23052 21
130 2 -4.00481 -1.07723 6.6864 19
131 2 -3.32407 -7.30629 6.73716 15
132 2 -3.08802 -5.20906 8.35402 12
133 2 0.124974 -4.40197 6.73196 22
134 2 -1.46932 -1.73587 8.41252 21
135 2 -0.234654 -4.06481 9.77236 12
136 1 -6.58702 0.840984 -7.64007 13
137 1 -9.54523 -0.388088 -5.61193 11
138 1 -5.83942 3.80431 -5.94549 18
139 1 -9.00045 3.00431 -4.09036 16
140 1 -7.09034 0.767511 -4.86382 18
141 1 -10.0013 0.790216 -2.3831 13
142 1 -5.94686 4.12439 -2.69185 22
143 1 -8.33604 4.53598 -1.66755 16
144 1 -6.82039 1.53616 -1.14434 21
145 1 -7.09994 6.04827 -4.33308 13
146 1 -6.18411 7.14778 -1.26593 18
147 1 -0.907693 1.18342 -10.3439 15
148 1 -4.10594 1.19535 -9.34302 13
149 1 -0.487072 4.54754 -9.59657 14
150 1 -3.1046 3.89244 -7.60252 16
151 1 -1.0589 1.6213 -7.53514 22
152 1 -3.98205 0.830964 -6.15777 22
153 1 -0.219513 4.07336 -6.09227 23
154 1 -3.01022 3.5674 -4.37534 21
155 1 -0.944802 1.71276 -4.33097 20
156 1 -4.09849 0.900269 -2.82812 22
157 1 -0.110303 4.4463 -2.83583 22
158 1 -2.91391 3.80274 -1.15348 21
159 1 -1.25837 1.62232 -1.13208 21
160 1 -1.3785 7.11524 -7.66846 17
161 1 -4.4732 6.58933 -6.2502 14
162 1 -2.99681 8.97133 -4.94968 12
163 1 -1.0337 6.69146 -4.73195 24
164 1 -3.85985 6.35701 -2.84478 21
165 1 -1.0533 9.97133 -2.70768 12
166 1 -3.4657 9.11094 -1.23776 15
167 1 -1.17055 7.13379 -1.35734 22
168 2 -5.39582 -0.0869816 -8.88896 14
169 2 -5.86746 1.77058 -6.03726 18
170 2 -7.74742 -0.160715 -6.47089 12
171 2 -9.12359 1.06953 -4.42701 14
172 2 -7.41393 3.89325 -4.32859 15
173 2 -9.79533 3.73418 -2.40213 15
174 2 -6.03335 0.986661 -3.001 22
175 2 -11.0361 1.68874 -0.761766 8
176 2 -6.84462 3.43286 -1.09699 21
177 2 -6.21138 5.94379 -5.98757 10
178 2 -5.79288 6.08764 -2.93974 17
179 2 -8.34269 6.42754 -1.03397 15
180 2 -5.42742 8.79573 -1.05349 13
181 2 -2.64326 0.477206 -10.2077 12
182 2 0.25866 0.659344 -8.71518 19
183 2 -3.2642 1.87518 -7.77164 19
184 2 -0.998677 3.61079 -7.93768 18
185 2 -3.92706 4.35031 -5.95569 21
186 2 -0.203789 0.738439 -5.86757 22
187 2 -3.00331 1.52415 -4.64818 21
188 2 -1.01432 3.52746 -4.45892 22
189 2 -3.95125 4.31882 -2.77084 22
190 2 -0.243326 0.967654 -2.66429 20
191 2 -3.16585 1.88034 -1.34768 19
192 2 -0.87004 3.93803 -1.2469 21
193 2 -0.224759 6.38743 -9.11422 13
194 2 -3.07054 6.04928 -7.51257 15
195 2 0.292627 5.94295 -6.15023 23
196 2 -2.95571 6.88172 -4.71631 18
197 2 -1.63476 8.88264 -6.38002 14
198 2 -2.99641 9.59264 -3.17077 13
199 2 -0.389766 6.45165 -2.89607 21
200 2 -3.1595 6.74855 -1.07645 20
201 2 -1.13733 8.99178 -1.20908 14
202 1 -10.9201 3.58092 -0.795352 11
203 1 -6.00362 4.25478 0.656162 24
204 1 -8.85239 4.21838 2.38013 16
205 1 -6.95255 1.47979 2.18568 21
206 1 -9.92789 1.48342 3.90856 14
207 1 -5.95493 5.12065 3.82772 18
208 1 -8.63292 4.10266 5.42109 12
209 1 -7.20043 1.23752 5.48979 18
210 1 -5.81237 4.69989 7.09536 13
211 1 -7.07534 2.28872 8.46081 11
212 1 -9.39283 6.18731 0.510336 12
213 1 -5.85376 9.79699 0.56287 10
214 1 -6.7762 7.22475 2.20493 17
215 1 -5.73597 9.20926 4.19938 9
216 1 -3.99688 1.09362 0.423732 21
217 1 -0.163216 4.40478 0.382902 21
218 1 -3.067 3.67275 2.2483 19
219 1 -1.206 1.71558 2.19924 20
220 1 -4.21768 0.870188 3.69125 21
221 1 -0.0505803 4.40273 3.335 21
222 1 -3.1001 4.04311 5.2736 20
223 1 -1.18334 1.72267 5.44077 19
224 1 -4.03761 0.964238 6.89001 20
225 1 0.447537 4.4707 6.06768 22
226 1 -3.76504 3.64041 8.6124 13
227 1 -1.35404 1.39375 8.52908 16
228 1 -3.0974 -0.773625 8.87137 13
229 1 -0.344483 4.24113 9.3696 13
230 1 -4.05528 6.34485 0.726863 23
231 1 -0.0408399 9.08534 0.357055 17
232 1 -3.03814 9.28013 2.19717 16
233 1 -1.15762 6.87539 2.11799 22
234 1 -3.8017 7.17634 4.12209 19
235 1 -0.231484 8.97148 3.45782 17
236 1 -2.45541 9.37382 5.6805 10
237 1 -0.656577 7.17051 5.46082 18
238 1 -2.48508 6.09683 7.51773 13
239 1 1.41418 6.72728 8.18518 12
240 2 -8.90816 0.740129 2.16893 20
241 2 -9.73308 4.13209 0.451342 15
242 2 -5.97318 0.806481 0.560109 23
243 2 -8.68185 0.71233 -0.850236 22
244 2 -7.02906 3.56906 2.31109 21
245 2 -9.56068 3.38274 3.84582 13
246 2 -6.13708 0.521878 3.94032 21
247 2 -8.40073 2.84255 6.96486 10
248 2 -6.79597 4.68123 5.64422 14
249 2 -5.96147 0.931292 7.1898 18
250 2 -5.82641 3.81902 8.78079 10
251 2 -6.01447 6.30721 0.720235 21
252 2 -8.40722 6.24224 2.2424 13
253 2 -6.20336 9.06295 2.14479 14
254 2 -5.73503 7.14252 4.11418 15
255 2 -3.81321 9.48593 4.26805 12
256 2 -3.92938 4.32956 0.473084 20
257 2 -0.526434 0.993636 0.624649 20
258 2 -3.27434 1.69762 2.00383 20
259 2 -1.11223 3.82472 1.80201 20
260 2 -4.02619 4.59454 3.67697 22
261 2 -0.115687 1.11601 3.82584 21
262 2 -3.14894 1.62382 5.21424 20
263 2 -1.12876 3.81621 5.11168 20
264 2 -3.90978 4.76335 6.86987 15
265 2 -0.235273 1.26844 6.93865 22
266 2 -3.1988 1.55272 8.46783 17
267 2 -1.96137 4.56367 8.49742 14
268 2 -0.0103707 2.44912 9.78707 12
269 2 -3.72834 10.0037 0.619564 13
270 2 -0.12381 6.25821 0.448951 23
271 2 -3.07791 7.00741 2.17603 21
272 2 -1.15138 9.00845 1.80799 17
273 2 -0.568642 9.22789 5.35593 12
274 2 -0.208387 6.34311 3.77377 22
275 2 -2.60187 7.44447 5.94878 16
276 2 2.09872 8.152 6.66077 10
277 2 -0.109107 6.07385 7.02532 17
278 1 3.26784 -4.79645 -5.9529 18
279 1 4.54805 -6.34282 -3.50703 19
280 1 1.47722 -7.40196 -4.62227 19
281 1 4.44883 -9.16807 -4.93686 7
282 1 2.02875 -10.1738 -3.00443 12
283 1 6.78361 -8.31633 -2.05512 10
284 1 2.18314 -7.53782 -1.18246 22
285 1 4.22552 -9.53825 0.0540407 12
286 1 1.04485 -1.20119 -11.0455 14
287 1 2.59716 -3.47438 -9.07994 14
288 1 6.76394 -1.44638 -7.07935 14
289 1 4.14801 -0.711755 -9.65619 13
290 1 5.67823 -4.58447 -7.56314 9
291 1 0.884837 -2.79577 -5.98799 23
292 1 4.11677 -0.824421 -6.47377 22
293 1 2.81242 -1.69895 -4.3373 20
294 1 5.97915 -3.28356 -4.31813 20
295 1 2.0115 -4.63015 -2.92042 22
296 1 5.45956 -0.893241 -2.78805 19
297 1 2.45637 -1.78066 -0.994226 20
298 1 4.59767 -3.76922 -1.22763 20
299 1 9.57154 -6.48082 -0.839014 9
300 1 8.67542 0.374097 -5.18076 13
301 1 8.61894 -3.02813 -5.559 11
302 1 8.91021 -2.24047 -2.86935 15
303 1 7.41077 -5.14083 -2.37879 17
304 1 11.6319 -0.558989 -0.882655 12
305 1 8.37481 -0.7522 -0.771521 23
306 1 10.4353 -3.53984 -0.429121 16
307 2 2.04477 -6.18984 -6.16202 14
308 2 2.64079 -9.06931 -4.5222 11
309 2 5.59713 -8.20161 -3.72958 9
310 2 2.72356 -6.47636 -2.98933 22
311 2 2.62746 -9.51747 -1.23479 14
312 2 5.5125 -8.24319 -0.454414 13
313 2 2.41847 -1.62504 -9.52529 16
314 2 3.95291 -4.3254 -8.06373 12
315 2 7.19381 -3.34714 -6.79635 11
316 2 2.2956 -1.12994 -6.27779 21
317 2 5.16187 -4.53227 -5.41602 17
318 2 2.05913 -3.67764 -4.52283 20
319 2 4.65797 -1.2635 -4.42755 17
320 2 1.97634 -0.988096 -2.81526 20
321 2 5.46708 -4.80847 -2.74395 18
322 2 2.48027 -3.70682 -1.20103 20
323 2 4.63104 -1.77925 -1.22386 20
324 2 8.21035 -7.04101 -2.05088 10
325 2 8.98335 -1.35154 -4.63669 12
326 2 7.86623 -3.65556 -3.7312 13
327 2 10.1425 -1.77941 -1.24819 17
328 2 7.18731 -1.49424 -2.4765 21
329 2 8.97354 -4.70629 -0.714686 15
330 2 11.1376 -3.58555 1.45165 12
331 1 1.81611 -10.3111 2.36661 10
332 1 5.09089 -6.34651 0.128329 21
333 1 3.07301 -7.31496 1.97122 21
334 1 5.72237 -7.71232 3.59431 11
335 1 -0.949347 -9.38498 2.70369 14
336 1 3.41451 -6.23726 5.04044 16
337 1 0.745596 -8.79011 5.5494 12
338 1 7.37255 -6.62625 5.66101 8
339 1 1.96682 -4.47742 0.42392 22
340 1 5.5524 -1.15205 0.332672 20
341 1 2.85066 -1.49634 2.13761 21
342 1 4.81631 -4.67529 2.25356 22
343 1 1.97872 -3.94021 3.65326 22
344 1 5.4697 -1.25463 3.99093 21
345 1 2.65657 -1.23918 5.42221 22
346 1 4.89264 -3.71522 5.73423 20
347 1 1.79729 -3.59737 7.06131 24
348 1 5.5745 -1.31128 7.43323 16
349 1 2.33665 -0.894906 8.82697 18
350 1 4.23732 -3.66232 8.96786 12
351 1 1.00966 -5.37798 9.54942 10
352 1 8.77929 -7.43053 2.39899 8
353 1 7.5787 -3.84794 0.642982 20
354 1 11.4237 -1.81603 2.25662 12
355 1 8.32897 -1.51311 2.25955 22
356 1 10.3147 -4.95084 2.42035 13
357 1 7.49223 -3.82095 3.89602 18
358 1 9.19145 -1.30465 5.27122 12
359 1 7.48028 -3.6097 7.21288 10
360 2 3.08697 -6.35733 0.212031 21
361 2 3.30413 -9.52006 1.52634 14
362 2 5.04051 -6.6567 2.18162 16
363 2 2.25857 -6.1998 3.16385 20
364 2 0.903237 -9.71484 3.93018 13
365 2 5.40203 -6.56606 5.11005 15
366 2 1.9488 -7.40883 5.8896 12
367 2 1.62797 -0.847723 0.582391 22
368 2 5.78025 -4.60766 0.214321 18
369 2 2.90404 -3.74721 1.95642 22
370 2 4.62001 -0.978599 2.04363 19
371 2 1.80593 -1.85588 3.71475 21
372 2 5.50626 -3.4538 3.73568 21
373 2 2.96207 -4.41571 5.54653 22
374 2 4.49802 -1.7751 5.86356 21
375 2 1.67954 -1.6372 7.17012 22
376 2 7.73797 -4.74544 5.72556 11
377 2 2.38569 -4.19159 8.81068 15
378 2 4.02226 -1.68692 8.76733 14
379 2 0.825147 -0.719728 10.187 13
380 2 9.58333 -6.70001 0.980269 10
381 2 7.89842 -7.53015 4.00089 10
382 2 7.49359 -1.83789 0.525367 21
383 2 8.62302 -4.46607 2.48763 17
384 2 9.82681 -1.69746 3.47974 14
385 2 7.55202 -0.812905 4.09769 18
386 2 8.13633 -1.86515 6.68186 14
387 2 5.63006 -3.48421 7.63848 13
388 1 1.72987 1.847 -10.1391 16
389 1 2.10982 4.43476 -8.01033 19
390 1 3.88392 2.48295 -7.9177 19
391 1 1.81488 1.08186 -6.27707 22
392 1 5.32809 4.58026 -6.0277 17
393 1 2.6342 3.70231 -4.56511 22
394 1 4.55799 1.60979 -4.34211 22
395 1 1.83782 1.06698 -2.70503 20
396 1 5.54995 5.03827 -2.83859 23
397 1 2.83849 4.33686 -1.33261 20
398 1 4.89292 1.99442 -1.30293 22
399 1 1.28412 7.59088 -8.95763 11
400 1 4.30922 6.39628 -7.80937 10
401 1 1.81761 7.02771 -6.04878 22
402 1 0.094297 9.67117 -6.00244 12
403 1 4.69876 7.65446 -4.42555 14
404 1 1.59817 6.58851 -2.88474 21
405 1 2.13629 9.72336 -3.7634 12
406 1 4.05087 8.13417 -1.79281 16
407 1 6.52018 1.85824 -6.88036 14
408 1 8.28086 3.98942 -4.47682 12
409 1 10.1311 1.85146 -2.39267 15
410 1 7.41181 2.03269 -2.56389 21
411 1 8.87682 4.82614 -1.61423 17
412 1 11.763 2.93269 -0.264752 10
413 1 6.96549 7.60185 -1.98329 12
414 2 0.614312 0.562492 -11.1767 11
415 2 1.32367 3.7639 -9.77665 15
416 2 5.18772 -1.14672 -8.13247 15
417 2 3.3016 1.17967 -9.2131 17
418 2 4.29949 4.33438 -7.69649 14
419 2 2.05877 3.21456 -6.48753 24
420 2 4.62158 1.35447 -6.40227 20
421 2 2.51427 1.45875 -4.37425 21
422 2 4.57775 3.83702 -4.30177 23
423 2 1.93445 4.57201 -3.1439 21
424 2 5.77635 1.18214 -2.87585 22
425 2 2.98065 1.98916 -1.26419 20
426 2 4.78226 4.45 -1.03013 20
427 2 2.36684 6.41138 -7.92433 16
428 2 4.64015 6.51388 -5.92173 12
429 2 2.63393 7.89537 -4.38228 17
430 2 1.03163 8.47036 -7.04613 13
431 2 0.19175 9.64906 -4.13848 15
432 2 5.27798 7.04601 -2.72279 16
433 2 2.70337 6.89779 -1.40074 22
434 2 3.04156 9.94634 -2.22831 11
435 2 7.51758 0.32949 -6.65574 13
436 2 7.18425 3.38861 -5.99216 14
437 2 8.69226 2.07678 -3.88927 14
438 2 7.37963 4.46645 -2.75149 19
439 2 11.532 1.01068 -1.51232 11
440 2 8.54903 1.17487 -1.11607 23
441 2 10.3873 3.64272 -1.59263 14
442 2 8.53584 6.7283 -1.12046 12
443 1 1.6953 1.35993 0.427781 21
444 1 6.00712 4.8606 0.483405 23
445 1 3.06597 3.72558 1.9041 21
446 1 4.89817 1.16694 1.95323 20
447 1 1.69428 1.52492 3.77532 23
448 1 5.91613 3.84129 3.89963 18
449 1 2.90751 4.42602 5.18142 22
450 1 4.72355 1.51988 5.60754 23
451 1 1.68425 1.60215 7.14388 22
452 1 5.59434 4.30905 7.34121 16
453 1 2.81203 4.11769 8.53865 17
454 1 4.60261 1.47597 8.77571 15
455 1 1.19521 1.19999 10.52 11
456 1 1.95183 6.56824 0.343936 19
457 1 2.91493 10.709 -0.408999 9
458 1 2.76093 9.18934 2.1428 15
459 1 5.93409 9.15669 1.32796 11
460 1 1.83585 7.01351 3.83998 20
461 1 1.45291 9.53661 5.70233 11
462 1 4.48312 6.23992 2.95062 18
463 1 3.85172 7.17584 6.64328 11
464 1 7.64273 1.68667 0.541172 20
465 1 9.12536 4.22201 1.52417 15
466 1 10.4318 1.13887 1.8273 14
467 1 7.60902 1.17624 3.99331 17
468 1 8.3438 3.97041 5.34522 11
469 1 7.43995 1.49874 7.30604 15
470 1 8.70888 7.65623 0.435923 10
471 1 7.64207 6.60819 3.05571 12
472 2 1.96811 4.50522 0.477132 20
473 2 5.85306 0.89457 0.0564043 20
474 2 3.02784 1.6876 1.87638 17
475 2 4.85882 4.48863 2.16087 18
476 2 1.61089 3.5954 3.60777 22
477 2 5.78246 1.82493 3.71646 20
478 2 2.98237 0.881966 5.29634 22
479 2 4.74088 3.5463 5.50046 24
480 2 1.84935 3.34066 6.66219 24
481 2 5.614 0.774144 7.26799 18
482 2 2.61111 1.22516 8.96393 16
483 2 4.54493 3.21793 8.52056 14
484 2 1.3576 5.16808 9.55916 10
485 2 1.63252 9.82567 0.567981 14
486 2 6.96395 8.28267 -0.0942401 11
487 2 2.83292 7.076 1.97709 19
488 2 4.23525 9.67578 0.63331 11
489 2 1.64474 9.10643 3.7458 14
490 2 6.08194 7.52572 2.55988 14
491 2 3.35958 6.39056 4.86319 21
492 2 3.37959 5.96309 7.93941 13
493 2 7.5701 3.59627 0.194537 18
494 2 11.4916 -0.426633 0.959527 14
495 2 8.44699 0.827917 1.93464 19
496 2 10.4489 3.0159 1.19147 13
497 2 7.51787 4.75735 3.85929 15
498 2 8.14749 1.88038 5.6023 15
499 2 7.29222 3.86969 7.01809 10
500 2 8.82206 6.05167 1.56776 11
