ITEM: TIMESTEP
458000
ITEM: NUMBER OF ATOMS
500
ITEM: BOX BOUNDS pp pp pp
-30.0 30.0
-30.0 30.0
-30.0 30.0
ITEM: ATOMS id type x y z Coordination
1 1 -9.68228 -5.23416 1.48393 12
2 1 -2.54384 -5.09805 -7.80424 15
3 1 -8.49637 -6.09876 -7.31164 6
4 1 -6.72264 -2.85928 1.57706 19
5 1 0.0306706 -6.60282 -7.42844 16
6 1 -4.82201 -8.2063 -4.08179 12
7 1 -1.90926 -4.83739 -2.57166 19
8 1 0.970094 -9.31113 -4.40888 15
9 1 -5.90093 -5.69038 -6.59165 15
10 1 0.273896 -5.95304 -10.306 11
11 1 -6.44598 -6.24949 2.00762 11
12 1 -2.74299 -3.27189 3.65782 22
13 1 -7.80859 -4.3286 -4.29486 14
14 1 -2.83829 -6.85004 -5.26031 17
15 1 6.50205 -5.56716 -0.228769 20
16 1 -1.49833 -1.50016 -8.53536 19
17 1 2.69342 -5.64193 -7.46849 20
18 1 1.23605 1.75196 -10.9399 9
19 1 -6.71468 -8.67255 -6.35519 8
20 1 3.58678 -0.127393 0.945043 17
21 1 -3.83435 -0.387427 -4.07136 22
22 2 -3.54115 -5.79612 0.231867 14
23 2 -3.35159 10.4362 -2.86351 11
24 2 -5.90406 -4.67926 0.404225 14
25 2 -9.87 -0.751226 4.08624 12
26 2 -9.45129 0.489553 -3.55431 14
27 2 -7.67994 -5.23988 -5.8805 13
28 2 -4.87021 -7.1843 -5.82772 14
29 2 -0.907876 -6.68262 0.600354 17
30 2 -8.13975 -6.35511 1.29072 9
31 2 -6.28797 -3.31646 -4.08689 15
32 2 -8.79418 -5.66536 -2.61851 10
33 2 -8.18246 -1.72715 1.22172 20
34 2 -2.73223 -0.503358 -9.86986 12
35 2 4.04102 -6.14953 -5.90899 17
36 2 -6.88369 1.50426 1.46895 19
37 2 -2.08718 -1.46011 0.369082 21
38 2 -2.58062 -9.01814 -4.97603 10
39 2 -1.17276 -6.58483 -1.84468 20
40 2 0.317956 -3.77449 0.0169697 23
41 2 4.12449 -6.9562 3.42801 18
42 2 0.34703 -9.1494 0.104307 12
43 2 8.00909 -4.42119 -0.769251 18
44 2 -4.37077 -4.75418 -7.49629 14
45 2 0.289189 -9.04145 -6.58131 11
46 2 -0.503938 5.97413 -8.25268 12
47 2 -3.27263 -7.99752 -2.66542 13
48 2 2.00157 -6.70669 -1.09645 19
49 2 5.57937 -9.65376 -4.1578 13
50 2 -2.43179 -2.88655 -7.40903 17
51 2 2.85936 -2.86256 -4.79837 17
52 1 -8.57223 -2.57183 3.61086 14
53 1 -1.96265 -9.31127 -3.22496 11
54 1 -6.57448 -2.04079 6.49299 20
55 1 -3.85715 -3.71637 0.0882366 17
56 1 -5.6427 -4.41773 4.54481 14
57 1 -7.67125 -5.33973 -0.533499 15
58 1 -9.03156 6.09833 -0.11412 14
59 1 -4.36672 -6.52247 -1.56435 15
60 1 -2.44071 -6.24253 5.24161 12
61 1 -6.97073 4.51395 4.49874 20
62 1 -10.2631 -4.2198 -2.15581 9
63 1 -1.25817 -8.12676 -0.695403 15
64 1 -4.53359 -3.61797 -4.20073 19
65 1 -2.29892 -6.20971 1.58642 18
66 1 -3.57214 -2.60642 10.2354 10
67 1 -2.51379 -1.66658 -1.71188 21
68 1 0.294092 -6.14107 -3.08582 20
69 1 6.42735 -9.86576 2.66805 11
70 1 -0.0235561 -1.0624 3.74199 18
71 1 -1.50731 -0.740423 11.1741 10
72 1 -2.248 -4.51685 8.85171 11
73 1 -9.94886 -2.27056 0.168214 15
74 1 -9.9773 -0.471512 6.10343 12
75 1 -8.89099 -2.10471 8.84079 6
76 1 -6.56455 3.69548 7.84126 15
77 1 0.436187 -7.75848 1.94389 14
78 1 1.49675 -10.8042 -1.95358 9
79 1 -1.37718 -3.19637 0.594232 21
80 1 6.17423 -4.29628 5.73482 17
81 1 5.03843 -3.08695 1.15432 21
82 1 -8.0712 0.677101 7.91868 13
83 1 1.17184 7.00165 3.81705 20
84 1 0.717322 -5.70586 0.0726116 21
85 1 -6.97829 1.13136 -2.98108 20
86 1 2.4833 -1.73433 5.60018 20
87 1 -0.0641424 -2.28769 -2.96026 21
88 1 -3.79565 -3.74337 6.35011 18
89 1 6.54646 -7.80576 5.76411 10
90 1 3.5817 1.35506 7.19784 20
91 1 -8.91734 5.35528 6.72026 8
92 1 0.056229 -4.92149 3.45374 23
93 2 -8.86832 4.30949 0.7987 14
94 2 -9.66992 -4.08321 -0.464125 13
95 2 -3.65017 0.894015 2.81761 17
96 2 -6.6864 3.98307 2.54407 18
97 2 -4.26141 2.17751 -3.06883 20
98 2 -1.63188 -4.05854 2.32163 19
99 2 -9.75699 1.72527 3.40352 15
100 2 -6.69724 0.168205 -1.23261 18
101 2 -1.85506 -3.06491 10.296 12
102 2 -6.6195 -3.67362 3.23607 17
103 2 -7.06334 -8.02438 -4.56999 11
104 2 -2.46014 -3.45722 -1.17505 22
105 2 1.06223 -1.14604 -1.5775 18
106 2 1.36523 -8.29158 3.77849 12
107 2 -8.77256 1.01704 6.03549 15
108 2 1.52729 -0.0607197 4.6761 17
109 2 -5.98444 1.07604 4.23368 17
110 2 -5.07341 2.16937 -5.92301 20
111 2 0.0929308 0.525024 11.2624 10
112 2 -0.897207 -2.67507 4.31779 21
113 2 4.44574 -7.62958 6.50846 13
114 2 2.70055 -10.3475 -4.18881 11
115 2 -2.50107 -5.05872 6.95433 13
116 2 6.64228 -8.434 3.96716 11
117 2 -4.05953 -2.15479 4.40946 22
118 2 -3.57743 -5.1539 4.31048 16
119 2 -0.58459 -1.64225 -5.23192 20
120 2 3.97254 1.5293 -0.646968 22
121 2 -3.35502 2.88138 8.60593 14
122 2 -7.19391 5.70099 6.66326 10
123 2 4.21534 -0.812937 6.75601 20
124 2 4.0474 -5.65811 -3.29279 16
125 1 -6.53678 -1.86927 -2.87105 15
126 1 -9.54933 2.73764 5.36318 13
127 1 -5.88284 0.310529 -6.09115 18
128 1 -9.46542 -1.23411 -2.85214 15
129 1 -7.62474 -7.75027e-04 0.585273 18
130 1 -10.926 0.14188 2.69042 13
131 1 -5.77309 9.47741 -6.34097 8
132 1 -4.33455 -2.8471 -7.13193 15
133 1 -9.96125 2.22526 -3.15849 11
134 1 -3.05491 5.90505 -3.9942 21
135 1 -7.32446 1.58656 -8.22274 9
136 1 -4.0875 0.594587 -8.44447 18
137 1 1.24727 -1.32234 -6.25884 17
138 1 0.672727 -3.82091 -8.32154 19
139 1 -0.584608 7.5233 -5.18153 14
140 1 -8.53788 -0.242838 -5.22573 12
141 1 -5.85578 5.81326 -6.66511 16
142 1 -1.83709 2.50354 -8.78048 18
143 1 -1.78898 0.497848 -11.1596 8
144 1 4.49898 5.47175 2.86931 20
145 1 3.36234 -7.18731 -4.45534 21
146 1 3.33759 3.00729 -2.43354 19
147 1 -2.12389 5.31284 -7.54981 15
148 1 5.08408 6.75575 -5.3047 11
149 1 8.19615 -0.279958 -2.66628 18
150 1 -1.46965 4.97082 -1.36621 18
151 1 -1.15135 11.6009 1.31363 8
152 2 -7.14768 -1.58237 4.71549 18
153 2 -11.5366 0.323965 1.11995 9
154 2 -5.00497 -1.00519 -7.22065 15
155 2 -3.72804 -2.00498 -4.99283 17
156 2 -7.7812 7.0448 0.79675 15
157 2 -5.86553 3.86867 -0.425378 21
158 2 -5.52991 8.77945 -3.89416 15
159 2 -8.87582 -3.23025 -3.1653 14
160 2 -6.89432 -0.287826 -4.1592 18
161 2 -10.1433 -0.717112 -1.0509 14
162 2 -0.52858 6.6647 2.87451 17
163 2 -9.46202 -3.71913 2.32213 12
164 2 -6.02531 7.57219 -6.132 11
165 2 2.12104 5.71655 -7.66431 12
166 2 -8.18515 0.667464 -6.90948 9
167 2 -10.034 4.36846 -3.12787 10
168 2 -2.57025 10.4137 1.77847 10
169 2 -0.443917 3.15927 -7.54926 18
170 2 -2.22286 7.15853 -6.60401 14
171 2 1.03568 4.14593 0.926434 20
172 2 -5.37729 6.55011 0.148498 18
173 2 -3.40453 4.07992 -8.39939 15
174 2 -0.633139 1.50981 -9.84544 15
175 2 -7.6315 2.75731 -3.65373 19
176 2 -6.40835 5.05033 -8.36919 6
177 2 1.5987 -7.02834 -11.4007 8
178 2 3.53433 6.44614 -0.978655 17
179 2 -2.46948 1.25346 -7.16707 20
180 2 1.48565 2.95734 3.97105 18
181 2 -1.43917 -0.710539 -2.75726 20
182 2 7.10563 3.21651 -4.94742 14
183 2 -0.120303 6.52056 -1.72944 19
184 2 2.66448 -2.26932 -10.2451 11
185 2 -3.05479 6.12548 -1.96541 14
186 2 -0.710061 11.0753 -0.645283 9
187 2 7.16839 6.34911 -4.42414 11
188 1 -10.8126 4.32927 -1.41402 9
189 1 -6.7459 8.28681 -0.360189 14
190 1 -2.65873 -0.952558 5.53854 17
191 1 -2.62042 8.59506 -7.76936 9
192 1 -2.42346 2.3249 -3.17592 20
193 1 -5.27032 -0.845421 -0.612129 19
194 1 -11.2758 0.749083 -0.616558 10
195 1 -1.44199 7.18746 9.30767 9
196 1 -5.31564 5.16118 1.47886 20
197 1 -3.76334 4.25697 4.49241 19
198 1 -5.3113 9.89887 -2.45905 12
199 1 -9.96864 6.72383 -3.15839 8
200 1 -8.00207 0.342836 4.07839 18
201 1 -4.91042 0.993072 5.69156 22
202 1 -8.42021 4.35308 -4.32038 13
203 1 -5.31911 3.53223 -4.11446 17
204 1 -5.37238 2.10524 2.59838 19
205 1 -2.0517 1.41887 0.0923012 20
206 1 -8.32396 6.50825 2.45075 13
207 1 2.50787 4.31669 5.27925 21
208 1 -6.2985 -4.3017 8.34694 8
209 1 -9.29829 3.56038 2.62614 13
210 1 -5.63799 6.4434 7.30017 11
211 1 -6.62426 7.04292 -4.05604 14
212 1 -2.30777 1.73671 3.76638 21
213 1 -4.41317 9.76304 1.19951 12
214 1 -2.18464 6.26722 3.82182 18
215 1 -7.20834 3.28008 0.799859 17
216 1 4.49907 2.72653 0.833271 20
217 1 0.541141 3.27742 -3.265 18
218 1 -0.0819335 0.872115 -3.22666 21
219 1 0.558421 5.9389 1.50115 20
220 1 -5.69321 5.4647 -1.5745 18
221 1 3.00407 2.47234 9.81929 14
222 1 8.39274 -2.62777 7.46113 10
223 1 -3.90728 4.5273 9.56848 10
224 1 1.73256 -0.336115 11.8775 11
225 1 6.34821 -3.12412 10.2829 9
226 1 -2.96239 9.74128 3.51782 11
227 1 -2.14505 10.3415 -1.45459 13
228 1 0.658537 2.8675 7.61167 19
229 1 -3.81798 7.21894 -0.662346 19
230 1 -5.22232 7.24174 3.66166 19
231 1 -0.457017 9.07014 6.36104 10
232 1 -3.04579 7.92224 6.58651 12
233 2 -6.19144 -6.25417 -1.30679 13
234 2 -10.839 2.36805 -1.44667 10
235 2 -3.79065 0.194973 6.77886 19
236 2 -3.74305 5.0067 2.69708 19
237 2 -10.4817 6.17519 -1.47656 10
238 2 -8.02671 -7.76952 -7.30298 6
239 2 -5.84825 -3.94433 6.3379 13
240 2 -5.1207 9.49213 -0.572065 13
241 2 -8.29758 6.13901 -4.28004 13
242 2 1.24897 3.64953 -4.98816 21
243 2 -2.58285 5.70367 10.0837 8
244 2 -0.69267 2.50208 6.21847 22
245 2 -1.79866 3.52735 0.101136 15
246 2 -7.23319 -2.48503 8.25157 9
247 2 -8.4934 3.4505 7.43437 10
248 2 -4.92412 8.36021 7.47666 8
249 2 -3.65372 6.49948 4.91752 15
250 2 -8.85513 4.32994 4.58621 12
251 2 2.27292 5.35338 3.30066 17
252 2 1.76145 1.31149 8.04924 18
253 2 -7.16267 6.37282 3.81795 14
254 2 -1.51632 7.27459 7.35529 14
255 2 3.69206 -1.1998 3.59264 20
256 2 -5.30408 5.3376 -4.27114 16
257 2 -1.88979 8.88539 5.0099 15
258 2 4.70029 4.59133 1.27004 19
259 2 3.11292 -3.50371 8.56694 18
260 2 1.63712 -2.38732 11.6027 9
261 2 -3.90473 2.56025 5.64154 20
262 2 -0.970894 -0.37303 9.15878 17
263 2 2.0968 7.84952 1.62863 17
264 2 -4.29523 -0.906094 9.65009 11
265 2 -4.63064 8.77963 2.71921 14
266 2 -2.45689 8.4847 -0.987608 15
267 2 6.64508 -2.57071 8.43696 14
268 2 -6.30431 1.44232 8.24 13
269 1 3.50485 -5.69388 -1.44663 16
270 1 -7.80383 -7.33195 -2.92458 9
271 1 1.53913 -0.954467 -9.70031 15
272 1 2.70907 1.94431 -5.19571 21
273 1 6.35161 -0.318291 -7.21041 12
274 1 4.48387 -2.40239 -9.26128 11
275 1 3.52073 -5.55261 2.17832 19
276 1 4.21743 -10.9067 0.741997 10
277 1 2.80594 0.0623081 -2.00315 20
278 1 4.14346 -10.6798 -5.52668 10
279 1 3.00442 -6.82722 -10.0787 12
280 1 5.87236 -5.82348 -3.21325 19
281 1 5.60654 -5.40823 -9.86991 10
282 1 7.08737 -8.86642 -4.88038 8
283 1 2.41218 -3.77318 -11.2873 11
284 1 8.70567 -7.34845 0.933468 13
285 1 5.74377 0.840898 -3.90533 22
286 1 9.54979 -0.462191 -5.87742 10
287 2 -0.829288 -5.33631 -8.86424 14
288 2 3.33828 -3.6971 -1.76883 20
289 2 1.76195 -4.96431 -9.87229 17
290 2 3.18427 -9.39667 -6.97893 14
291 2 5.07792 -3.964 -8.15548 13
292 2 4.88145 -0.534544 -8.33713 12
293 2 1.15 -4.67594 -6.73734 18
294 2 -2.68865 4.21046 -5.00307 21
295 2 1.41125 -7.2281 -4.23665 18
296 2 1.75927 1.54761 -2.83612 18
297 2 -2.81216 -4.95008 -4.35172 20
298 2 4.03324 -1.81339 0.417954 22
299 2 3.33974 -9.92435 -1.33321 13
300 2 -1.09543 3.66545 -2.49316 19
301 2 4.09564 -4.69067 -11.2934 9
302 2 6.06503 -7.84206 -6.32754 12
303 2 2.27113 0.816368 -9.83113 12
304 2 3.2106 -3.69022 2.86255 17
305 2 0.0105718 -4.22821 -3.49835 19
306 2 9.87655 -1.61636 -1.88047 14
307 2 -0.254277 -9.6887 -2.84795 15
308 2 8.2826 -6.92389 -0.656201 11
309 2 9.42402 4.32991 0.0529235 14
310 2 11.3478 2.21843 1.42988 11
311 2 5.54201 -10.4525 -0.501989 8
312 2 8.96731 -2.20824 -5.13615 12
313 2 6.12113 -4.51721 -4.81445 14
314 1 8.76742 -6.51877 -2.6397 12
315 1 -1.50026 -9.3167 -6.53561 9
316 1 5.59208 -5.10374 -6.52617 14
317 1 2.55136 -4.04257 6.78311 17
318 1 3.6774 -6.15785 5.42266 16
319 1 0.0852745 -3.05015 10.0432 15
320 1 -1.7471 -3.05043 -5.53904 22
321 1 2.12935 -2.61128 -0.803542 20
322 1 7.15992 -9.43192 -0.660823 12
323 1 4.15198 -3.67844 -3.58325 16
324 1 2.14814 -2.36524 2.32632 19
325 1 3.24652 -8.68103 3.23639 13
326 1 0.73705 -7.21303 5.51555 14
327 1 -0.706874 -3.31524 6.17572 21
328 1 -4.51972 1.21421 9.02369 12
329 1 1.24696 -5.9665 9.20756 10
330 1 4.94141 -9.92221 -2.29278 12
331 1 1.58886 -8.98803 -7.89116 11
332 1 4.70291 -8.15072 -7.48154 14
333 1 3.4475 -7.46137 7.95334 10
334 1 6.94189 4.20102 1.53631 19
335 1 9.69601 -2.98496 -3.33345 12
336 1 1.96289 -8.43813 -0.637006 18
337 1 7.75613 -4.15764 2.23089 18
338 1 1.63142 5.26094 8.87421 11
339 1 -5.427 -1.12155 3.84716 21
340 1 6.40835 -6.59519 3.46675 20
341 1 9.39548 0.396469 5.84726 10
342 1 -2.40039 -0.959657 8.02888 19
343 1 8.94943 -5.44309 5.54726 11
344 1 4.39761 -6.15635 10.633 7
345 1 3.76674 -1.15241 -4.96798 16
346 1 5.51801 3.62109 4.90869 19
347 1 10.9795 4.27501 1.3304 8
348 1 7.74741 -2.36286 4.64038 17
349 1 9.88232 -4.93407 -0.725279 13
350 1 8.08357 1.99066 3.32837 19
351 1 4.71307 0.487719 3.23173 19
352 1 2.49379 3.74631 2.19902 16
353 2 -0.655433 -5.8996 4.96433 15
354 2 -1.70767 -6.78925 -6.78669 13
355 2 4.34536 -9.79577 2.42489 10
356 2 -0.277541 -4.98572 9.10452 11
357 2 1.85284 -5.89177 6.51782 16
358 2 -4.93949 -1.97345 0.881612 19
359 2 0.664964 -1.45257 1.85431 18
360 2 7.93909 -6.10032 2.13691 16
361 2 1.08005 -3.00035 6.31076 16
362 2 -4.64527 -3.94443 9.49524 10
363 2 -9.41981 -0.649975 7.82631 9
364 2 8.57116 -3.8522 6.22226 9
365 2 -5.32121 5.12121 8.58192 9
366 2 1.77567 -7.22325 -8.35721 16
367 2 2.90188 -6.6277 9.47452 10
368 2 7.13997 -8.81592 1.19557 11
369 2 9.60622 -4.82623 -2.84535 11
370 2 2.2138 0.0504417 -5.47212 20
371 2 6.48865 -0.387297 3.88033 20
372 2 4.40235 1.39134 8.8358 13
373 2 10.6143 -0.828224 0.946969 13
374 2 6.9259 -6.0166 5.82988 13
375 2 5.74984 -0.0297721 1.66518 16
376 2 7.20707 -7.22944 -3.50721 13
377 2 6.42409 -3.79346 3.70403 19
378 2 10.5172 -3.90944 0.78883 13
379 2 4.21458 -4.44126 5.72003 19
380 2 0.354458 -2.17378 -8.98352 16
381 1 0.702352 1.55368 -8.11877 21
382 1 -1.32884 0.0363943 -5.9407 21
383 1 -5.20537 3.79611 -8.78622 10
384 1 -3.31561 9.47291 -4.41057 14
385 1 2.2039 1.1804 3.49136 18
386 1 1.89928 5.91954 -1.61307 18
387 1 -0.632846 3.50292 -5.74951 20
388 1 10.6685 -0.314035 -0.922894 14
389 1 7.07346 7.66145 0.472382 11
390 1 1.09059 4.89954 -9.08469 13
391 1 1.51098 -4.34636 -4.81172 18
392 1 10.3183 2.03957 -3.17214 13
393 1 3.7822 0.958012 -8.69584 13
394 1 1.32984 7.31064 -7.40441 10
395 1 7.06064 -2.64571 -5.19864 15
396 1 8.20395 -2.6981 -0.468587 19
397 1 10.5755 -2.41048 1.79708 12
398 1 3.52537 4.41498 -7.21057 14
399 1 8.21755 5.33315 -0.950412 15
400 1 5.00504 5.17444 -0.785515 21
401 1 5.22292 -1.79971 -1.65608 20
402 2 1.92887 4.00808 -1.69085 20
403 2 -4.78975 -1.18267 -2.44507 18
404 2 7.99083 0.555304 -6.7099 10
405 2 1.81114 3.36555 -10.274 10
406 2 4.15086 -0.966387 -2.94474 18
407 2 -4.02021 0.832217 -0.320622 21
408 2 4.25091 2.29913 -3.95884 22
409 2 -0.311044 -0.0355997 -7.70754 20
410 2 9.7778 1.196 -1.54123 15
411 2 -5.62581 1.97486 -8.89288 13
412 2 -1.63556 3.3627 3.32944 18
413 2 -1.2053 1.5812 -4.81729 20
414 2 -3.65686 9.50461 -6.4758 9
415 2 3.40015 2.37475 -7.54083 15
416 2 5.42997 8.63143 1.3849 9
417 2 6.56258 2.76785 0.337863 20
418 2 7.10596 -1.71666 -1.71679 17
419 2 6.92826 3.88967 3.50459 18
420 2 6.53108 6.42552 -0.981849 18
421 2 3.61737 1.66595 2.12321 19
422 2 5.27793 3.89111 -2.27956 22
423 2 7.06948 1.20826 -2.54422 20
424 2 7.469 6.27011 1.64138 14
425 2 3.94294 5.05727 -5.50047 16
426 2 1.23218 6.79868 -5.57764 13
427 2 9.57148 1.37604 -4.71431 11
428 2 5.8898 -0.974092 -5.45489 17
429 2 9.97415 4.97726 2.93733 10
430 2 2.4219 9.45781 -1.51422 9
431 2 8.33529 2.17622 5.38036 12
432 2 8.51496 1.25383 1.40382 18
433 1 -3.47591 3.1104 -6.27389 20
434 1 7.02812 2.94395 -1.8257 23
435 1 4.59982 -3.02745 4.16988 21
436 1 -0.231121 3.53314 4.56997 23
437 1 -3.47847 -0.48876 1.34116 16
438 1 8.10381 4.12268 6.19753 11
439 1 3.40114 -2.83481 10.5689 13
440 1 -4.88368 2.29304 -1.18987 18
441 1 -2.54829 2.48912 6.90911 19
442 1 4.8985 4.83494 8.63037 11
443 1 1.51688 9.45376 2.6678 13
444 1 8.27726 5.64074 3.4995 14
445 1 2.0487 5.39753 -4.84266 18
446 1 1.0659 10.5773 -1.0717 10
447 1 0.703368 2.99166 -0.377037 20
448 1 -1.23472 7.98713 -2.33486 14
449 1 0.186533 0.637996 5.97674 19
450 1 8.25154 4.67939 -4.50213 12
451 1 8.36198 2.13245 -6.09672 10
452 1 10.7232 0.695351 2.48705 12
453 1 5.73054 6.05386 5.53112 13
454 1 -0.0756103 -0.804236 0.270709 19
455 1 4.59716 0.117746 10.2385 12
456 1 7.38682 -1.10436 2.45504 20
457 1 0.322813 1.31269 9.77694 13
458 1 3.53417 8.26221 -2.38615 10
459 1 -1.90741 4.54446 1.88841 15
460 1 4.54424 8.88671 3.25802 11
461 1 3.64814 8.35443 0.438996 14
462 1 -1.49904 4.1973 9.51037 14
463 1 5.17204 3.56462 -4.90505 17
464 1 6.65106 7.17833 -2.76699 12
465 1 9.624 2.13654 0.138197 18
466 1 4.80488 -2.25421 8.04984 18
467 1 0.0339892 6.08977 6.46871 20
468 1 6.92759 0.703732 0.396405 22
469 1 5.95345 -0.167403 6.09715 17
470 1 2.88926 8.64955 5.69632 10
471 2 1.36987 -5.91064 2.13133 19
472 2 3.18742 1.08709 11.1651 13
473 2 -6.99888 7.11777 -2.11857 16
474 2 4.42745 7.70836 4.70848 14
475 2 5.01923 -4.36914 10.7403 8
476 2 -2.36804 -2.36619 6.81408 19
477 2 -1.01541 5.15691 5.01225 25
478 2 9.92639 0.354549 4.19976 13
479 2 -0.253998 5.58313 8.57305 13
480 2 1.33847 4.58023 7.02721 20
481 2 -1.6451 8.52665 -4.05624 14
482 2 0.564749 11.0258 1.77718 7
483 2 0.323768 3.37764 9.6209 15
484 2 -1.37786 0.344741 4.9804 19
485 2 6.89134 -2.52131 1.25863 20
486 2 -0.172735 1.19528 -0.269617 18
487 2 2.73056 9.71203 4.14775 9
488 2 4.87685 -7.1888 -9.179 14
489 2 6.06366 4.44298 7.24856 12
490 2 4.90416 -1.66829 10.1979 12
491 2 3.17076 4.28022 9.12202 13
492 2 9.14182 -2.55095 3.12866 16
493 2 4.7752 2.14049 5.73319 18
494 2 4.36567 5.04447 5.09673 17
495 2 4.9209 7.73387 -3.66515 10
496 2 0.998046 7.95507 5.47932 15
497 2 7.72422 -0.923344 6.4617 13
498 2 8.34818 4.64312 -2.59539 15
499 2 7.57382 6.12958 5.468 10
500 2 4.54919 -5.55702 0.143819 19
