ITEM: TIMESTEP
341000
ITEM: NUMBER OF ATOMS
500
ITEM: BOX BOUNDS pp pp pp
-30.0 30.0
-30.0 30.0
-30.0 30.0
ITEM: ATOMS id type x y z Coordination
1 1 -6.97702 -3.5673 -6.00301 16
2 1 -5.58097 -5.81548 -7.7704 13
3 1 -7.28254 -6.73332 -5.56421 11
4 1 -8.76605 -2.02307 -4.39683 13
5 1 -1.783 -9.7502 -5.68706 12
6 1 -6.911 -8.50318 -2.5782 11
7 1 -5.00631 -7.75542 -5.35159 16
8 1 -3.70228 -8.59472 -8.13234 11
9 1 -5.55142 -0.796136 -5.80969 19
10 1 -4.00601 -4.16589 -5.85764 20
11 1 -4.33211 -5.94487 -2.82225 22
12 1 -5.91452 -2.85022 -2.91738 22
13 1 -2.26171 -6.73974 -5.01187 22
14 1 -0.4507 -7.77434 -7.65089 16
15 1 -3.48363 -8.77753 -2.62325 14
16 1 -2.56367 -5.41797 -9.16766 12
17 1 -0.333359 -3.24241 -7.88516 17
18 1 -2.51425 -1.64664 -5.78441 22
19 1 -0.5489 -4.49758 -5.51517 18
20 1 -0.563508 -5.93229 -2.5331 24
21 1 -2.58808 -3.06707 -3.29338 22
22 2 -6.75505 -5.31698 -6.4916 13
23 2 -2.6204 -1.9945 -8.47133 15
24 2 -7.52692 -3.35919 -3.83708 16
25 2 -9.27639 -2.08341 0.135919 15
26 2 -7.92527 -2.02231 -6.22492 13
27 2 -5.21955 -2.83451 -6.59352 20
28 2 -7.65895 -6.8376 -3.70172 11
29 2 -5.25141 -8.4348 -3.53592 14
30 2 -6.26602 -7.88656 -0.965393 13
31 2 -4.52897 -5.84439 -4.87918 20
32 2 -5.50326 -7.77843 -7.23306 10
33 2 -2.14097 -7.51845 -8.47748 13
34 2 -4.25228 -4.78362 -8.38944 14
35 2 -4.40813 -5.50044 -0.0607167 19
36 2 -5.79051 -2.56991 -0.951345 21
37 2 -5.64088 -0.953751 -3.6462 23
38 2 -4.07932 -4.08423 -2.97479 20
39 2 -3.1019 -8.33689 -5.60382 15
40 2 0.665258 -8.95554 -1.38608 15
41 2 -2.99723 -8.7791 -0.571168 15
42 2 -2.46997 -6.89769 -2.87998 20
43 2 -0.82567 -9.51036 -3.97867 14
44 2 -0.546735 -6.48783 -5.8596 23
45 2 -2.30349 -3.64042 -5.86089 21
46 2 0.547979 -1.65527 -8.85012 15
47 2 -0.780236 -4.66452 -9.09025 14
48 2 -0.7128 -5.76992 -0.627381 19
49 2 -2.41555 -2.83272 -0.929914 20
50 2 -2.68101 -1.14321 -4.0226 24
51 2 -0.402005 -4.02255 -3.45989 23
52 1 -10.4533 1.11212 -3.24243 12
53 1 -8.31215 -5.11632 -3.0588 11
54 1 -9.30241 -0.0594604 -0.661239 15
55 1 -8.03332 -3.16201 -0.57639 14
56 1 -7.5354 -5.25502 2.84706 12
57 1 -9.98871 -1.97919 1.86641 10
58 1 -9.3742 -0.540727 4.08891 14
59 1 -8.05421 -6.76744 5.64144 8
60 1 -7.66011 -3.15962 4.59326 17
61 1 -8.70832 -1.32844 7.52363 10
62 1 -6.37052 -5.95825 0.0695642 16
63 1 -4.8144 -8.25678 0.244658 15
64 1 -5.04413 -7.80902 3.60518 15
65 1 -4.20266 -6.18357 5.82481 19
66 1 -2.58589 -9.14697 6.0277 14
67 1 -5.69657 -0.509467 -0.613776 20
68 1 -3.90719 -3.87082 -0.721837 21
69 1 -3.8599 -5.62123 1.91628 21
70 1 -5.84989 -2.70176 1.64939 22
71 1 -5.8835 -0.809682 4.48657 21
72 1 -4.13896 -3.32968 4.19595 19
73 1 -5.28527 -7.9505 7.66341 8
74 1 -5.8245 -3.14417 6.5989 17
75 1 -5.67817 -1.50995 9.73382 13
76 1 -3.9153 -4.61094 8.30084 15
77 1 -2.39875 -6.94482 -0.596879 18
78 1 0.549889 -8.85761 -3.26407 15
79 1 -2.58398 -9.52388 1.31512 11
80 1 -2.00891 -7.18326 3.41284 19
81 1 -0.223554 -9.69492 3.52881 13
82 1 -2.23561 -7.38914 8.63017 12
83 1 -2.30734 -1.09642 -0.363491 24
84 1 -0.638617 -3.80648 -0.487871 23
85 1 -0.466701 -5.82048 1.40618 20
86 1 -2.32117 -2.79918 2.11267 19
87 1 -2.09131 -0.442922 4.77265 22
88 1 -0.429267 -3.71389 4.15023 20
89 1 0.698484 -8.88396 7.23717 9
90 1 -1.96577 -3.47766 6.20437 20
91 1 -2.58078 -1.96214 8.73179 16
92 1 -0.625716 -4.4401 8.65744 16
93 2 -9.59031 3.26578 1.37314 12
94 2 -7.43982 -5.15202 -1.38113 15
95 2 -7.78793 -5.10742 4.77709 11
96 2 -9.02704 -2.34088 3.62086 15
97 2 -10.008 -0.0102923 2.38862 12
98 2 -7.35721 -4.01546 1.2755 18
99 2 -7.22122 -0.444048 8.70114 14
100 2 -4.93899 -1.44424 6.12746 21
101 2 -1.87657 -8.94908 4.16771 16
102 2 -6.13741 -6.50676 2.58553 15
103 2 -4.24457 -8.94667 2.0507 13
104 2 -6.87936 -7.49484 6.81833 7
105 2 -3.69679 -6.29416 3.92162 15
106 2 -5.8913 -2.61008 3.65477 19
107 2 -5.81933 -0.640142 1.42389 20
108 2 -4.06958 -3.66813 1.81043 21
109 2 -3.79388 -6.54317 8.1524 13
110 2 -7.67189 -2.6606 6.49612 13
111 2 -5.38827 -3.39365 8.57231 12
112 2 -3.77057 -4.35413 6.00789 17
113 2 -1.24429 -8.90846 7.68727 9
114 2 -2.09621 -6.84033 1.65754 22
115 2 -0.846043 -9.87901 1.67596 12
116 2 -4.19531 -8.06085 6.11434 12
117 2 -0.371587 -6.05244 4.03412 20
118 2 -2.12674 -2.81266 4.17255 21
119 2 -2.35321 -0.90037 1.66052 23
120 2 -0.67266 -3.91401 1.62214 22
121 2 -0.799357 -6.25387 7.9527 16
122 2 -2.38795 -3.82831 9.08307 15
123 2 -1.85885 -1.54737 6.78512 23
124 2 0.00102852 -4.25861 6.1833 18
125 1 -7.80353 -0.281963 -7.14003 11
126 1 -4.18725 -2.61882 -8.21896 13
127 1 -8.12407 5.23514 -5.83893 11
128 1 -9.67629 2.41527 -6.13912 10
129 1 -7.57631 0.663375 -3.702 23
130 1 -8.5909 3.72623 -3.3145 17
131 1 -6.71561 6.96485 -4.21816 13
132 1 -1.342 -0.516884 -8.78206 13
133 1 -6.52995 2.46043 -5.54797 20
134 1 -1.95375 7.3926 -6.70895 14
135 1 -2.98575 1.0225 -4.77817 20
136 1 -4.06678 -0.404038 -2.85289 23
137 1 -5.01981 3.29676 -2.9008 22
138 1 -3.36508 1.37432 -7.87225 13
139 1 -3.0884 4.10031 -5.8552 20
140 1 -3.40432 6.14474 -3.89257 20
141 1 -4.95269 5.70636 -7.0865 12
142 1 0.69192 -5.32006 -10.0996 10
143 1 0.313659 2.20855 -8.79298 17
144 1 -1.96235 5.30773 -8.93091 10
145 1 -0.468728 1.5049 -5.70249 24
146 1 -0.825299 -0.283357 -3.34116 25
147 1 -2.02493 2.99438 -2.98816 22
148 1 4.09468 2.16573 -8.53559 12
149 1 2.6532 10.3447 -6.02715 9
150 1 -0.710244 5.94322 -3.73823 19
151 1 -1.4166 9.23235 -4.26441 14
152 2 -9.05767 -0.414637 -3.32913 15
153 2 -9.3265 0.674861 -6.96992 11
154 2 -4.97082 3.66611 -6.43559 18
155 2 -6.84984 0.638379 -5.61751 17
156 2 -7.27273 0.66558 -0.751826 21
157 2 -9.64874 2.69043 -4.16202 15
158 2 -6.5922 6.38758 -6.06398 12
159 2 -6.76372 2.22193 -2.94691 21
160 2 -8.03393 5.63062 -3.72905 15
161 2 -9.94586 1.44784 -1.4748 13
162 2 -7.0142 8.35983 -3.10139 9
163 2 -3.8436 -0.0258372 -6.41296 20
164 2 -3.7172 5.52988 -8.56488 9
165 2 -8.05313 3.44509 -5.84899 13
166 2 -3.71338 0.152184 -0.84995 21
167 2 -5.3336 3.4589 -0.754327 20
168 2 -5.39283 5.4705 -3.13859 22
169 2 -3.64009 1.98503 -3.41595 21
170 2 -0.576841 6.67003 -8.06588 11
171 2 -3.68291 5.9397 -0.665342 21
172 2 -6.4503 8.56182 2.52664 13
173 2 -3.41406 6.53091 -6.15419 16
174 2 -0.877669 -0.618053 -6.63943 22
175 2 -2.09133 2.38523 -5.75102 17
176 2 -1.55647 1.61005 -8.51406 14
177 2 2.2714 1.76185 -8.8486 12
178 2 -0.85286 -0.179402 -1.29502 23
179 2 -1.81382 3.15277 -1.04958 20
180 2 -2.16619 4.69078 -4.09555 23
181 2 -0.738653 1.76298 -3.65014 21
182 2 1.97833 5.83309 -6.92284 15
183 2 -0.715477 7.83144 -5.33997 15
184 2 -0.216337 5.80422 -1.75387 22
185 2 1.47036 11.719 -5.15516 7
186 2 -2.23607 8.16043 -2.81979 16
187 2 -0.0432226 10.0029 -3.19328 13
188 1 -9.88053 2.97244 -0.440241 13
189 1 -10.3611 2.10508 2.4532 12
190 1 -9.1112 1.72682 6.01508 11
191 1 -8.20522 5.76165 -1.71745 13
192 1 -7.06862 2.69452 -1.06776 19
193 1 -7.35956 0.654221 1.83647 21
194 1 -8.42899 4.10615 2.75808 14
195 1 -5.41546 6.3863 6.53141 14
196 1 -7.05938 2.09923 4.48731 17
197 1 -7.18181 1.5175 8.78382 12
198 1 -6.76895 8.88123 -1.42753 10
199 1 -7.05757 6.85221 1.43832 15
200 1 -7.4941 7.64269 3.95013 10
201 1 -5.23163 4.13676 9.45573 13
202 1 -5.37272 5.50705 -1.07872 20
203 1 -3.70589 2.12986 -0.568527 22
204 1 -4.01545 0.208784 1.76216 19
205 1 -5.30572 3.20245 1.52215 21
206 1 -5.37777 5.09649 3.80235 21
207 1 -3.56957 2.11119 4.47754 20
208 1 -3.82563 -0.239964 7.07859 20
209 1 -5.47624 3.00042 6.74534 17
210 1 -4.1267 1.19843 10.2466 14
211 1 -0.135131 9.32905 -1.25448 14
212 1 -3.66843 6.43999 1.36332 21
213 1 -5.16474 8.99911 1.2051 14
214 1 -3.76005 7.71859 4.18891 17
215 1 -3.42726 5.41561 8.36524 16
216 1 -2.03062 5.27497 -0.733076 18
217 1 -0.489365 1.6485 -0.734405 22
218 1 -0.597547 0.204353 2.00452 20
219 1 -1.97391 3.26062 1.94144 21
220 1 -1.92981 4.78603 5.04274 22
221 1 -0.179996 2.33032 5.04314 22
222 1 -0.152749 -0.388331 7.32551 21
223 1 -2.2488 2.70682 7.63796 22
224 1 -2.13948 4.19762 10.8505 11
225 1 -0.630168 1.49421 9.57266 13
226 1 -3.30889 9.0233 -1.59152 13
227 1 0.805226 11.7555 -3.32525 7
228 1 -0.128064 5.96557 2.14421 20
229 1 -1.73676 8.98143 1.55698 14
230 1 -0.629115 7.78322 4.31383 17
231 1 -0.344711 5.3055 7.91004 19
232 1 -2.25035 8.2763 7.35227 11
233 2 -9.26611 -0.260035 6.14279 14
234 2 -8.55534 3.86003 -1.39578 16
235 2 -7.56527 0.316951 3.75181 19
236 2 -9.5531 2.47721 4.19587 12
237 2 -7.77527 5.89178 2.89647 11
238 2 -7.26674 2.69627 2.41604 19
239 2 -7.31574 2.09179 6.71993 14
240 2 -5.98854 6.78196 4.83134 14
241 2 -6.83332 6.84388 -0.487887 17
242 2 -3.92044 0.0539455 4.00338 21
243 2 -5.27502 3.10335 4.70982 20
244 2 -5.31466 5.32202 1.84211 22
245 2 -3.68427 2.37155 1.48483 20
246 2 -4.12401 -0.621691 8.90454 15
247 2 -5.60628 2.25629 9.81489 12
248 2 -5.15794 4.70047 7.52976 16
249 2 -3.46561 1.71119 6.48086 20
250 2 -3.61129 5.61073 4.53105 21
251 2 -3.49142 8.19762 2.19834 18
252 2 -0.314527 8.15791 2.47121 18
253 2 -3.67571 4.96988 10.3852 11
254 2 -3.80843 7.13838 7.4871 14
255 2 -0.2826 0.13013 4.231 23
256 2 -1.79455 2.93835 4.0474 22
257 2 -1.95516 5.28106 1.20324 20
258 2 -0.0880593 1.79637 1.14712 23
259 2 -0.607391 -0.53992 9.41779 18
260 2 -2.29944 2.42778 9.90636 16
261 2 -2.08821 4.60214 7.16292 25
262 2 -0.475048 1.78806 7.3119 21
263 2 -0.415738 5.39728 4.02024 20
264 2 -2.38545 8.11517 5.33757 15
265 2 -5.14608 9.05881 -0.545533 13
266 2 -1.78233 9.31653 -0.330039 14
267 2 -0.373736 4.57041 9.82485 15
268 2 -0.558434 7.38682 8.00884 12
269 1 1.64311 -9.41129 -6.80888 12
270 1 1.17397 -7.03484 -4.99646 20
271 1 6.03948 -0.271023 -8.53494 11
272 1 3.62291 -7.11577 -8.61435 11
273 1 5.86373 -4.53503 -9.76791 8
274 1 0.935299 -1.37621 -5.99604 21
275 1 2.58103 -4.5283 -7.19783 20
276 1 2.95834 -6.10236 -2.42727 19
277 1 1.28774 -2.99707 -3.26654 21
278 1 6.14177 -6.46462 -7.98716 7
279 1 3.79031 -7.35469 -5.20519 14
280 1 6.12835 -3.20762 -6.34338 15
281 1 3.95965 -1.21826 -5.91285 22
282 1 3.97192 -4.25425 -4.69364 20
283 1 7.17914 -4.54352 -3.14447 17
284 1 4.92524 -2.54789 -3.03734 23
285 1 7.52009 -0.375343 -5.59944 16
286 1 8.9063 -2.09701 -3.51617 14
287 2 -0.176908 -9.6063 -6.74195 13
288 2 1.24933 -6.41248 -2.84526 22
289 2 4.71654 -7.09536 -6.92984 14
290 2 4.23392 -7.24821 -3.28593 15
291 2 1.89301 -7.83659 -7.98166 14
292 2 0.972641 -3.43862 -6.51069 21
293 2 4.09275 -0.889829 -9.11085 12
294 2 1.99727 -5.61818 -9.01601 12
295 2 2.63648 -5.83057 -0.605464 18
296 2 0.885039 -2.75195 -1.04743 20
297 2 0.97187 -1.1872 -3.81226 19
298 2 3.48585 -3.7544 -2.42336 20
299 2 6.78761 -7.09958 0.893227 14
300 2 2.17668 -8.70286 -4.95893 15
301 2 2.72294 -5.66181 -5.26367 20
302 2 3.85427 -3.1685 -6.46135 16
303 2 5.82512 -2.88335 -10.4549 6
304 2 8.46484 -4.83367 -0.268222 15
305 2 5.64748 -2.37636 -1.19729 21
306 2 4.26714 -0.907521 -3.90876 25
307 2 4.85393 -6.08068 -9.44082 9
308 2 6.53379 -5.9191 -1.99436 16
309 2 6.10865 -1.26145 -6.55287 16
310 2 9.70081 1.78591 2.40141 15
311 2 6.03524 -3.89386 -4.47495 19
312 2 6.58151 -4.51215 -7.66924 10
313 2 8.60417 -3.48886 -2.36967 16
314 1 1.02034 -7.05111 -0.654836 15
315 1 4.04233 -10.3315 -0.726054 8
316 1 0.5943 -9.73836 0.381046 12
317 1 1.25964 -7.14193 3.52237 20
318 1 3.25431 -10.0533 2.66478 10
319 1 0.0597908 -6.27746 6.04725 18
320 1 0.978194 -0.803037 -0.3125 22
321 1 2.30745 -3.93657 -0.734238 25
322 1 2.90096 -5.77143 1.36768 18
323 1 0.958116 -2.7554 1.95681 22
324 1 1.29774 -0.796804 4.50174 22
325 1 2.92039 -4.21534 4.34409 23
326 1 2.7949 -6.05822 6.73771 15
327 1 1.50199 -3.2103 6.98178 20
328 1 -0.0446017 -1.8006 10.8985 11
329 1 2.48898 -2.8128 10.0684 14
330 1 5.8097 -7.76537 -2.3638 11
331 1 7.9166 -6.7014 -0.580031 13
332 1 5.72111 -8.61456 0.950568 10
333 1 4.76727 -7.18167 3.88727 16
334 1 4.48832 -0.784041 -0.470114 24
335 1 5.16788 -4.5096 -1.36501 24
336 1 6.73618 -5.66621 2.09499 18
337 1 4.29932 -3.04743 1.813 22
338 1 4.54058 -1.34982 4.70858 23
339 1 6.14194 -3.71172 4.24508 20
340 1 6.17355 -6.13504 6.00875 10
341 1 4.31519 -3.37502 7.19278 18
342 1 5.3646 -1.16735 8.75006 12
343 1 10.0021 -3.80347 -0.999916 12
344 1 8.98097 -2.98862 3.33089 10
345 1 7.17806 -1.17658 -1.18976 21
346 1 9.85893 0.851282 -4.16969 11
347 1 9.93443 -1.10438 1.0698 13
348 1 7.21267 -3.60629 0.336304 19
349 1 11.3329 -0.642629 -1.32836 11
350 1 11.2421 2.10309 1.15197 10
351 1 7.80264 -3.34566 7.36475 9
352 1 8.10545 4.74246 4.57173 13
353 2 1.56234 -9.25442 3.38507 13
354 2 1.23471 -6.82515 1.2979 19
355 2 3.6009 -10.6494 0.958197 7
356 2 1.53339 -7.31131 6.94468 11
357 2 2.98972 -6.19339 3.29546 20
358 2 1.32376 -2.84472 3.89185 19
359 2 1.08731 -0.721252 1.6617 21
360 2 2.46462 -3.48939 1.30234 21
361 2 2.8846 -4.27639 6.38841 20
362 2 0.890566 -3.28851 9.36651 14
363 2 1.37092 -1.0702 6.56411 21
364 2 4.55936 -1.53636 6.91159 20
365 2 4.74029 -8.70524 2.59425 14
366 2 5.45419 -9.04927 -1.01968 9
367 2 4.36581 -6.81493 5.776 13
368 2 6.25641 -6.05786 4.02272 13
369 2 4.41916 -3.10111 3.78315 23
370 2 4.52914 -1.02939 1.54555 20
371 2 5.22369 -4.20378 0.542123 21
372 2 4.15437 -2.76482 9.27991 13
373 2 6.0519 -0.312623 4.17425 18
374 2 6.02477 -4.34368 6.27299 18
375 2 10.6259 -0.788217 -3.40907 12
376 2 7.77701 -4.14443 2.79401 14
377 2 10.7038 -2.27421 -0.227901 12
378 2 9.58965 -1.19553 2.97923 13
379 2 7.88162 -2.58471 5.06777 15
380 2 8.75917 1.18659 -5.68716 14
381 1 2.05997 -0.470366 -8.61298 17
382 1 0.951245 5.5511 -8.75 12
383 1 0.909823 4.45615 -5.81335 21
384 1 2.79661 1.59576 -6.06898 21
385 1 2.38813 0.0439974 -3.09825 23
386 1 1.20629 3.15754 -3.31777 23
387 1 0.825014 7.48587 -6.65798 15
388 1 3.77106 4.86659 -6.35897 21
389 1 2.97998 5.63538 -3.24775 22
390 1 3.50508 7.23316 -7.58841 9
391 1 4.69072 -1.54218 -10.8869 5
392 1 6.20486 2.57692 -6.25916 16
393 1 6.91602 5.52491 -6.81261 14
394 1 5.60194 5.64134 -3.73658 20
395 1 5.84612 0.460302 -3.43673 19
396 1 4.23488 2.78714 -3.51795 21
397 1 7.51955 7.83747 -4.24195 11
398 1 4.33531 8.81021 -3.38535 12
399 1 9.27718 3.02863 -6.21602 11
400 1 10.0172 4.19346 -3.03131 13
401 1 10.1353 6.37037 -5.58924 10
402 2 2.36436 -0.23869 -6.69492 21
403 2 0.966705 2.66721 -6.51022 20
404 2 -0.315707 4.10766 -9.19467 10
405 2 4.01323 3.13873 -7.01642 17
406 2 2.67218 -0.124875 -0.926012 22
407 2 1.35441 2.58337 -1.30354 22
408 2 0.904143 4.9864 -4.09502 20
409 2 2.39712 1.95502 -4.09917 24
410 2 7.49778 3.6467 -6.82117 12
411 2 2.39538 8.64485 -6.9379 11
412 2 2.91324 5.6061 -1.22591 21
413 2 2.94341 9.5787 -4.43406 11
414 2 2.82789 7.50555 -3.11166 19
415 2 5.15076 6.36596 -7.28192 11
416 2 10.1105 2.22403 -2.83738 12
417 2 9.8942 4.29272 -4.96313 11
418 2 7.25869 -0.816908 -3.74885 18
419 2 5.92146 0.561186 -1.50447 19
420 2 4.40926 2.98624 -1.56521 25
421 2 4.27233 4.59114 -4.33814 21
422 2 5.68724 2.31004 -4.55464 18
423 2 5.53272 1.32154 -7.59875 14
424 2 6.17639 5.73846 -1.89696 22
425 2 5.22669 8.07399 -0.61517 19
426 2 5.65698 7.55351 -4.22225 15
427 2 8.00609 6.47493 -5.79071 11
428 2 8.03384 3.14165 -0.560288 19
429 2 7.77 5.94208 0.614974 16
430 2 8.36634 7.8845 -2.44852 13
431 2 10.425 6.95556 -3.84063 8
432 2 8.29686 -1.67989 0.110649 17
433 1 1.13113 4.85433 -0.888174 23
434 1 3.03031 1.98927 -0.555611 24
435 1 2.92017 0.444624 2.1881 23
436 1 1.34565 2.96064 2.14547 23
437 1 1.19097 5.00387 5.01118 22
438 1 3.1485 1.8368 4.91999 22
439 1 2.98022 -0.363113 7.31938 17
440 1 1.39595 2.39668 7.59632 22
441 1 1.42925 3.7308 10.268 12
442 1 2.38747 0.293218 10.335 16
443 1 1.41874 8.70885 -3.77382 19
444 1 3.07023 7.66266 -0.741268 19
445 1 3.02727 5.79896 1.74629 21
446 1 1.18257 8.82286 1.38608 13
447 1 2.60423 7.43975 4.85648 18
448 1 3.1146 4.87029 7.51469 16
449 1 1.12971 7.54933 7.48149 11
450 1 4.63255 4.85399 -0.742416 24
451 1 6.04751 2.25667 -0.783399 19
452 1 6.13348 -0.134694 2.26654 22
453 1 4.81217 2.97341 2.10505 21
454 1 4.89808 4.63158 4.99206 23
455 1 6.57063 1.83594 4.39987 20
456 1 8.21103 2.08056 6.8688 10
457 1 4.43347 2.20897 8.51637 14
458 1 6.82616 7.60041 -1.46142 16
459 1 6.21768 6.06913 1.73055 18
460 1 4.64613 8.70883 1.10992 11
461 1 5.89532 7.5362 4.24254 11
462 1 4.70157 7.39423 7.13644 10
463 1 7.70165 5.001 -1.12089 19
464 1 10.3738 7.46218 -2.06762 9
465 1 9.74591 2.13087 -0.946912 16
466 1 8.16015 2.53967 1.44833 17
467 1 6.62707 4.47429 7.74802 10
468 1 9.52068 0.580908 4.00033 14
469 1 7.35953 -1.06985 5.78398 16
470 1 9.67782 5.21317 0.576554 13
471 2 3.35747 0.0582173 4.00982 22
472 2 1.50288 2.85371 4.35379 21
473 2 1.15748 4.86762 1.15591 23
474 2 3.05151 2.21742 1.27685 23
475 2 1.90826 -1.3865 11.201 8
476 2 1.05978 1.82502 10.3077 14
477 2 1.26303 4.43488 7.00466 23
478 2 2.85565 1.65058 6.65454 21
479 2 2.68417 5.84451 3.6459 20
480 2 0.898877 7.92138 5.56073 14
481 2 1.31778 8.56319 -0.456196 17
482 2 2.9911 7.65975 1.38447 16
483 2 3.01952 3.48411 9.17752 13
484 2 2.85913 6.93184 7.68217 12
485 2 10.7954 0.528402 -0.022984 13
486 2 4.8046 2.9536 4.3669 19
487 2 4.83649 4.92755 1.24442 24
488 2 6.25772 1.87187 1.40052 18
489 2 6.97874 -1.59582 7.71888 13
490 2 3.69722 0.323077 8.94408 15
491 2 5.07602 5.40716 6.89051 16
492 2 6.43906 2.41677 7.62192 13
493 2 6.62614 5.76541 4.29092 17
494 2 4.40282 8.12089 5.20544 10
495 2 5.89936 7.99966 2.39548 11
496 2 7.76538 3.29523 3.343 19
497 2 8.29821 0.592787 5.52759 13
498 2 9.70083 5.60192 -1.66349 14
499 2 8.28747 4.06206 6.66501 10
500 2 10.4385 3.57088 0.340214 12
