ITEM: TIMESTEP
431000
ITEM: NUMBER OF ATOMS
500
ITEM: BOX BOUNDS pp pp pp
-30.0 30.0
-30.0 30.0
-30.0 30.0
ITEM: ATOMS id type x y z Coordination
1 1 -8.06041 -3.05546 -5.49737 13
2 1 -5.60297 -5.52754 -6.1862 13
3 1 -7.47439 -6.88751 -4.6796 9
4 1 -12.0197 -4.78141 -0.87548 10
5 1 -0.938294 -10.0902 -5.90634 9
6 1 -5.74613 -7.29383 -1.20263 15
7 1 -1.99145 -10.4604 -3.53354 10
8 1 -4.7079 -8.86885 -4.11979 11
9 1 -6.74645 0.089887 -6.77094 13
10 1 -2.94432 -4.10957 -4.41104 21
11 1 -3.47365 -5.41011 0.39977 20
12 1 -1.11493 -3.88315 -2.2163 21
13 1 -3.27936 -6.51256 -2.14604 20
14 1 -2.68866 -2.14252 -6.22739 18
15 1 -0.59038 -9.19733 3.25845 11
16 1 -2.52549 -5.24529 -7.96049 12
17 1 1.93127 -8.62745 -7.38488 9
18 1 1.64337 -0.831867 -6.76695 19
19 1 -0.0308754 -6.95595 -6.22177 17
20 1 4.19013 -1.64282 -0.844958 21
21 1 -4.78247 -0.576385 -1.54407 18
22 2 -4.65659 -5.74015 -1.15081 17
23 2 -1.35933 7.53039 -2.53778 16
24 2 -8.80337 -2.48961 -3.95867 15
25 2 -9.56257 -2.0883 2.93344 16
26 2 -6.77362 -2.06037 -6.56054 15
27 2 -4.31987 -4.70678 -7.54236 12
28 2 -4.30538 -2.95861 -5.27267 20
29 2 -4.67542 -8.57109 0.426739 13
30 2 -7.24147 -6.57415 -0.0614398 17
31 2 2.40085 -2.68574 -5.75707 18
32 2 -8.4674 -7.18109 -3.06287 9
33 2 -7.50806 -5.10483 -5.74401 12
34 2 -2.60891 0.893137 -9.59223 12
35 2 1.15003 -5.30966 -5.42192 20
36 2 -7.07163 0.0265191 -1.8223 18
37 2 -2.94137 -2.97964 -2.94112 21
38 2 -1.3392 -6.04243 -2.00907 17
39 2 -0.307804 -10.2672 -4.13083 10
40 2 -0.501109 -9.60654 1.36913 10
41 2 -2.2275 -7.98162 3.32928 13
42 2 -2.52789 -10.2608 -1.60005 12
43 2 2.49902 -6.41793 -2.76595 19
44 2 -3.82374 -1.36967 -7.60113 17
45 2 -2.96098 -5.89282 -3.94245 16
46 2 -0.911519 4.22609 -8.83117 14
47 2 -5.15739 -7.28665 -5.20728 13
48 2 0.292971 -8.84624 -1.33189 15
49 2 0.848015 -3.69016 -2.97815 19
50 2 -2.34439 -0.323667 -5.10843 23
51 2 3.42962 -5.0061 2.91935 18
52 1 -11.3526 -1.33255 -2.07012 13
53 1 -5.80934 -1.89251 -4.34154 22
54 1 -10.9655 -2.10326 1.41094 12
55 1 -10.7153 -5.46495 1.40119 12
56 1 -7.64535 -4.80946 3.12316 16
57 1 -7.26935 -4.61803 0.30101 21
58 1 -9.79357 3.53524 3.02529 11
59 1 -6.78945 -7.77951 1.30655 14
60 1 -5.58678 -7.65904 4.59829 14
61 1 -10.2148 -1.75713 4.53816 9
62 1 -8.98376 -7.12868 -1.37667 12
63 1 -4.18164 -9.71098 -1.03309 10
64 1 -5.29496 -5.09766 2.75357 20
65 1 -4.57348 -7.47086 7.38466 12
66 1 -2.23342 -8.31754 9.00501 13
67 1 -1.99001 -1.2093 -3.50789 23
68 1 -4.31148 -3.50028 -1.60201 20
69 1 2.58833 -6.24275 -0.887516 18
70 1 -3.47536 -2.35153 4.02826 21
71 1 -2.71932 0.40552 5.90638 19
72 1 -0.153706 -6.45545 6.93815 22
73 1 -9.52872 -3.66091 -2.64002 14
74 1 -5.72789 -4.66583 5.96358 16
75 1 -9.50111 -0.850162 7.9809 10
76 1 -4.28211 -2.51727 10.9242 12
77 1 -2.20791 -7.76682 5.51775 15
78 1 0.954997 -9.45423 -3.13857 13
79 1 -3.35779 -7.73582 1.62066 16
80 1 1.54846 -3.74306 6.24092 17
81 1 1.52466 -6.00617 4.23557 20
82 1 -2.4354 -4.25632 6.50012 19
83 1 -0.965347 3.76214 -1.99661 23
84 1 0.025373 -4.86816 1.04315 18
85 1 -5.04495 -2.40941 1.24909 21
86 1 -1.21656 -2.32053 0.941094 19
87 1 -1.61346 -0.0764135 -1.11245 22
88 1 -1.04818 -1.43803 6.95098 19
89 1 5.59956 -6.13746 6.72097 12
90 1 -0.309764 0.05678 1.75306 16
91 1 -7.09984 -3.21293 8.65674 13
92 1 -3.68997 -5.18694 9.10191 16
93 2 -10.8104 2.56644 1.77143 9
94 2 -10.6025 -6.43122 -0.343124 11
95 2 -4.36994 -4.29219 4.26908 20
96 2 -8.73638 2.51638 4.27319 14
97 2 -6.52378 1.36877 1.70816 17
98 2 -6.13583 -6.86848 6.31414 9
99 2 -9.45466 -1.06724 6.19434 10
100 2 -7.43939 -0.911174 3.74474 19
101 2 -0.798304 -7.68003 10.1783 11
102 2 -8.94289 -5.14292 1.88103 16
103 2 -2.87913 -9.03014 -4.49282 14
104 2 -3.78658 -6.08447 2.05768 16
105 2 -0.244544 -3.50944 -0.367669 20
106 2 -0.788656 1.26247 3.25743 18
107 2 -7.15786 -4.20808 4.82292 16
108 2 -3.84215 -3.56584 0.191946 20
109 2 -4.03412 -8.4082 5.55527 10
110 2 -0.214379 -0.857736 -2.66841 22
111 2 -0.821399 1.76151 8.90476 14
112 2 -3.62916 -7.08475 8.85179 14
113 2 1.41818 -9.29896 7.65175 13
114 2 1.07731 -6.12901 0.114817 17
115 2 -1.88352 -8.92728 7.182 13
116 2 3.61133 -8.54201 4.64563 15
117 2 -1.85828 -5.80847 5.67858 19
118 2 -6.5331 -6.6091 3.16565 16
119 2 -1.00253 2.09068 -0.650561 19
120 2 2.74158 -1.59486 -2.01682 20
121 2 -6.18858 -2.03746 7.05655 17
122 2 -3.17531 -1.33377 11.4146 15
123 2 0.523075 -1.74189 2.44977 17
124 2 -1.96103 -3.89648 2.23495 17
125 1 -9.58271 -0.498992 -4.57516 12
126 1 -6.80883 0.863576 -3.56692 20
127 1 -7.9594 4.27015 -4.68593 9
128 1 -10.0529 1.99983 -2.86202 13
129 1 -7.76618 -2.07268 -2.10031 18
130 1 -10.3343 0.859213 0.440404 14
131 1 -1.77582 10.0882 -4.46199 11
132 1 1.46647 0.505205 -11.6001 7
133 1 -3.89733 0.515333 -5.76802 22
134 1 -1.58995 8.64161 -6.95128 9
135 1 -1.04306 0.312041 -6.54455 21
136 1 1.18891 3.72483 -3.69002 18
137 1 -2.87205 2.04643 -2.94967 19
138 1 -0.964932 0.142181 -9.77933 13
139 1 1.40091 8.54241 -6.36968 11
140 1 -3.97536 5.42941 -7.0943 14
141 1 -4.87535 2.85149 -6.29564 16
142 1 1.22603 2.77704 -7.29638 22
143 1 -2.28287 2.54572 -8.70867 17
144 1 4.16793 4.01224 -5.19479 17
145 1 0.498127 -3.52993 -5.07826 21
146 1 3.07653 0.588151 -2.22322 21
147 1 1.57943 5.51172 -5.73366 18
148 1 0.563409 3.18143 -9.92522 13
149 1 10.8095 3.13356 -4.06866 10
150 1 -1.53286 3.22378 -5.31559 22
151 1 -2.77714 11.9568 -1.47208 9
152 2 -11.8195 -3.98577 0.944757 8
153 2 -11.2709 -1.06161 -0.112238 11
154 2 -5.17194 1.08786 -7.37898 15
155 2 -8.0017 0.0331748 -5.32778 14
156 2 -8.92896 0.238462 1.52792 18
157 2 -3.55526 2.8659 -4.77971 23
158 2 -2.80672 8.77887 -5.55434 11
159 2 -10.7213 0.0314851 -3.19244 13
160 2 -8.7791 3.36659 -3.30682 11
161 2 -5.48425 0.0549706 -4.74346 21
162 2 -5.10337 8.44902 -3.65748 11
163 2 -11.0567 -3.29127 -1.59349 12
164 2 -4.09867 6.12239 -4.99965 16
165 2 -0.120124 9.64897 -5.74212 10
166 2 -3.15601 0.325442 -2.04758 22
167 2 -6.11481 4.61038 -2.74871 16
168 2 -2.50378 10.9573 0.349367 11
169 2 0.0429691 4.25703 -5.38575 19
170 2 0.377237 7.23936 -7.54913 11
171 2 -3.65268 6.03456 -2.4413 15
172 2 -6.99906 6.58484 4.47625 11
173 2 -2.48081 6.71812 -7.31837 10
174 2 0.441458 1.36506 -10.2983 13
175 2 -6.20582 3.7526 -5.15633 14
176 2 -3.99328 3.66338 -7.91064 16
177 2 -1.0051 -2.76481 -5.90878 22
178 2 0.804877 4.39273 -1.98564 21
179 2 -6.17296 3.79425 -0.054176 13
180 2 -0.0272927 9.80907 0.0585395 17
181 2 -3.01212 3.42401 -1.37938 18
182 2 5.79409 8.08136 -7.65592 11
183 2 1.60945 9.2409 -2.03758 15
184 2 2.01553 1.91353 -3.36353 20
185 2 4.09937 10.0044 -3.45043 12
186 2 -1.85412 10.5023 -2.72209 13
187 2 8.15649 8.4415 -5.85228 11
188 1 -7.87862 4.22887 -1.8214 14
189 1 -8.06159 1.22565 2.87376 16
190 1 -5.90577 0.188747 7.50731 23
191 1 -2.37039 6.5902 -4.01364 19
192 1 -3.82523 -0.0114451 1.43166 20
193 1 -8.05568 -1.52358 1.93982 20
194 1 -10.6947 3.46896 0.0433825 11
195 1 -5.44136 7.1063 5.51736 12
196 1 -5.38005 2.81175 1.52768 18
197 1 -7.03872 2.25393 9.29282 12
198 1 -5.5728 9.79288 -2.67007 9
199 1 -7.51084 4.96808 0.754566 16
200 1 -7.75616 7.1573 2.85599 9
201 1 -7.08688 -2.1989 5.33328 20
202 1 -5.71829 6.59345 -2.61878 17
203 1 -4.74122 4.266 -1.22722 17
204 1 -5.66751 0.162353 3.63498 24
205 1 -6.87197 0.20222 0.199511 19
206 1 -6.92946 4.59738 4.3987 18
207 1 1.57225 7.45303 3.72498 16
208 1 -4.18253 -2.0196 7.35004 20
209 1 -7.72219 1.81007 5.82443 15
210 1 -6.81705 -0.830337 10.2292 14
211 1 -4.46895 7.88615 -5.33414 12
212 1 -3.94625 5.08848 3.13115 20
213 1 -6.19107 8.36763 0.578873 10
214 1 -3.49874 8.38726 2.88851 12
215 1 -6.3085 4.39293 7.59241 13
216 1 -2.47314 6.51827 -1.1119 15
217 1 -2.22509 3.21266 0.357684 20
218 1 0.733322 2.13289 0.0225069 20
219 1 -0.548377 8.06888 1.43328 17
220 1 -4.76418 2.47383 5.23194 19
221 1 0.135562 1.92589 7.17919 14
222 1 0.685992 1.53219 4.61073 19
223 1 -5.18579 1.9093 11.4432 9
224 1 0.341644 -0.923212 10.6274 16
225 1 -1.6694 -0.995879 12.6463 11
226 1 -1.07386 10.9898 1.76817 13
227 1 2.69847 10.8401 -2.16998 11
228 1 2.39771 11.1783 2.31835 10
229 1 -4.03646 9.93829 0.266205 11
230 1 -0.306279 9.528 3.65059 12
231 1 -3.17031 5.26464 6.69436 13
232 1 -0.809146 8.02748 6.50986 6
233 2 -6.27137 -3.83961 1.65698 22
234 2 -10.0034 2.12082 -1.04876 13
235 2 -7.57455 1.34761 7.71494 16
236 2 -8.90222 5.2624 3.0057 11
237 2 -9.06851 4.58281 -0.503997 12
238 2 -8.27886 -3.72063 -1.2086 18
239 2 -2.91617 -1.59583 5.81317 18
240 2 -7.00733 6.71995 1.12688 13
241 2 -6.07031 8.00586 -1.40229 13
242 2 -5.39971 -0.827874 0.289307 19
243 2 -5.97458 0.857897 5.53752 19
244 2 -1.7677 4.15622 3.04896 17
245 2 -5.59877 3.99239 3.06943 21
246 2 -4.3349 -4.00982 7.49704 20
247 2 -8.18102 -1.63576 9.02872 10
248 2 -3.84613 6.82859 4.1456 13
249 2 -5.04184 5.77304 6.63555 12
250 2 -6.4399 3.59743 5.96124 17
251 2 -4.85802 9.2273 1.68557 10
252 2 0.17416 8.16666 4.94007 11
253 2 -6.56934 1.00619 10.7938 11
254 2 -1.71118 6.18923 5.71107 13
255 2 2.29749 0.633399 5.05399 20
256 2 -3.44266 1.9379 1.30894 22
257 2 0.752476 10.8683 2.90272 12
258 2 1.063 3.70401 1.4749 21
259 2 -0.15952 -2.1367 12.1576 11
260 2 -3.55273 1.84033 10.4207 11
261 2 -5.65802 3.46713 9.02507 13
262 2 -3.97271 0.304334 7.91283 23
263 2 3.46128 7.23088 4.46955 12
264 2 -3.23032 1.66345 4.52008 18
265 2 -1.87794 9.20855 2.55566 13
266 2 -4.45524 10.8421 -1.77881 10
267 2 2.28604 -2.15583 10.3017 11
268 2 -4.46547 -1.23511 2.72482 22
269 1 2.14638 -4.88684 -3.81025 20
270 1 -5.24438 -2.83709 -7.33239 16
271 1 1.06941 -6.08995 -9.54176 7
272 1 6.43361 -2.16844 -3.85142 19
273 1 5.42258 -4.01905 -8.72325 11
274 1 2.53233 -3.59304 -7.5444 18
275 1 2.78973 -6.01332 -6.5413 20
276 1 -0.886883 -10.1783 -0.333054 11
277 1 4.97708 -4.56053 -1.94293 17
278 1 3.82482 -9.27611 -1.02041 13
279 1 6.98646 -7.36519 -4.75354 8
280 1 9.38304 -1.45134 -4.77078 14
281 1 5.09848 -4.20062 -5.73694 18
282 1 9.62978 -3.49166 -2.64322 11
283 1 3.01986 -2.08167 -4.10879 22
284 1 5.63476 -8.32776 4.6786 11
285 1 5.4485 0.558282 -4.63662 17
286 1 7.74375 -2.13185 -7.12326 13
287 2 -1.8969 -6.31746 -6.61961 16
288 2 10.608 -2.3402 -3.65422 11
289 2 1.4641 -6.85927 -7.91559 11
290 2 5.4712 -8.35771 -4.04663 10
291 2 6.57011 -2.86262 -5.65652 18
292 2 2.06539 0.876761 -7.59754 18
293 2 0.74911 -4.18995 -8.48132 16
294 2 -0.867222 2.08454 -7.51041 22
295 2 7.70171 -7.27907 -2.88572 10
296 2 3.87149 -0.466552 -4.52852 18
297 2 -0.970596 2.49628 -3.52783 19
298 2 1.22264 -5.80027 6.03036 21
299 2 5.62907 -9.54584 -0.858845 10
300 2 8.16365 -3.17499 -3.78203 19
301 2 2.88065 -7.86336 -5.81392 13
302 2 8.99777 -3.83773 -6.82044 9
303 2 -0.729769 -0.8493 -8.04689 16
304 2 3.86333 -5.11823 -0.33971 13
305 2 3.96826 -3.86286 -3.76366 22
306 2 8.89565 -4.48212 -1.05008 12
307 2 0.120081 -8.89859 -6.76036 12
308 2 7.42672 -7.26593 0.266319 11
309 2 7.15035 5.07783 -2.89091 15
310 2 11.6983 2.80704 0.774634 9
311 2 3.3092 -8.1529 0.515638 15
312 2 4.06971 -4.9015 -7.35063 15
313 2 8.58261 -0.20887 -5.97637 17
314 1 6.30896 -9.02009 0.809998 9
315 1 -3.09684 -6.96235 -5.391 15
316 1 6.57744 -8.9713 -2.32521 10
317 1 -0.31078 -10.2001 6.8 10
318 1 1.73663 -8.64055 4.30235 14
319 1 -0.596601 -5.67927 9.82442 14
320 1 0.0685458 0.857319 -3.53327 22
321 1 0.987487 -2.18401 -1.88297 18
322 1 1.18871 -7.949 0.759222 15
323 1 3.37473 -4.17625 1.33028 16
324 1 -0.244018 -3.03877 3.66352 17
325 1 2.95845 -5.84808 8.55922 15
326 1 0.923044 -8.57931 9.68408 10
327 1 -1.50771 2.14236 10.5558 10
328 1 -1.72395 -3.279 9.50148 19
329 1 1.51018 -3.21248 11.6634 11
330 1 0.354143 -6.96283 -1.81524 17
331 1 3.56468 -7.79006 -3.92261 16
332 1 4.03076 -6.97019 1.74772 20
333 1 2.8881 -8.44421 6.68454 14
334 1 7.0105 2.44394 1.6402 18
335 1 8.38451 -6.31202 -1.44745 11
336 1 7.22994 -6.69946 2.12717 11
337 1 8.55765 -3.80406 0.755549 12
338 1 2.67685 -0.927532 6.22072 17
339 1 -2.26291 -5.40946 3.4491 15
340 1 5.10935 -5.09076 4.01863 18
341 1 4.27028 -3.24574 7.74669 17
342 1 -3.1501 -0.207369 9.94377 20
343 1 7.62721 -3.17346 3.41438 13
344 1 6.9136 -3.28942 6.38179 15
345 1 9.77917 -1.00811 1.16862 12
346 1 7.65762 4.05435 -1.44784 17
347 1 12.0011 1.02483 0.636911 10
348 1 8.74627 -1.05136 6.27248 8
349 1 13.2213 1.68959 -2.60733 8
350 1 10.3717 3.65448 1.63148 11
351 1 4.41225 -2.00341 4.17321 22
352 1 7.59827 5.19679 2.72193 12
353 2 0.162752 -9.53833 5.02114 13
354 2 -4.58156 -8.32285 -2.38377 15
355 2 1.26596 -7.56772 2.90339 15
356 2 1.20287 -6.71503 8.65676 15
357 2 3.28199 -2.57573 5.70514 18
358 2 -2.15411 -0.791844 0.665242 20
359 2 1.20313 0.381266 0.779801 20
360 2 5.88136 -3.18582 4.04886 17
361 2 -0.627483 -1.62357 8.94894 20
362 2 -3.07577 -4.09754 10.6245 14
363 2 -5.67727 -2.17859 9.8716 14
364 2 -0.14546 -2.70578 5.82647 18
365 2 -1.29597 -4.66058 8.1934 19
366 2 2.99744 -9.21665 -2.84023 13
367 2 3.82453 -6.51007 7.2066 16
368 2 5.71153 -7.74351 2.20895 12
369 2 6.13509 -6.55654 4.9172 14
370 2 5.70825 -2.64963 -1.96386 17
371 2 9.13728 0.242717 5.00254 7
372 2 3.27553 1.03467 9.94779 8
373 2 9.3531 -1.47885 -0.756236 16
374 2 5.58058 -4.3842 7.10099 14
375 2 6.48185 1.04288 -7.90839 13
376 2 8.03282 -4.92976 2.23995 12
377 2 7.73224 -2.01548 1.10617 15
378 2 12.1229 0.581651 -1.42264 12
379 2 8.10878 -2.66662 5.18593 10
380 2 3.79098 -3.02135 -8.94553 14
381 1 3.7778 -1.40391 -10.1632 10
382 1 -4.11723 0.132349 -8.60427 15
383 1 -4.64254 4.45318 -4.26089 16
384 1 -0.746 5.76406 -7.8321 14
385 1 4.17155 1.60458 1.19929 22
386 1 0.48916 6.88424 -2.55065 18
387 1 2.86371 1.36397 -5.2495 17
388 1 5.7403 -0.716635 -8.01623 15
389 1 2.73193 8.08459 -3.52424 19
390 1 3.66591 1.43904 -8.35416 16
391 1 0.0868628 -2.56001 -7.89528 15
392 1 8.2197 4.76185 -4.71706 14
393 1 6.25122 2.6892 -6.86755 17
394 1 4.4176 7.2661 -6.78561 15
395 1 8.01566 -4.53174 -5.46926 13
396 1 7.15238 -1.59967 -0.857956 15
397 1 8.53284 1.15222 -7.15861 9
398 1 3.96108 4.44631 -8.35408 13
399 1 8.98617 6.53092 -2.58098 15
400 1 9.48937 7.26828 -5.80875 8
401 1 8.26369 0.972496 -4.44391 16
402 2 2.49385 3.31445 -5.8426 17
403 2 -5.71524 -2.41754 -2.26135 19
404 2 4.30752 0.0151501 -9.20473 11
405 2 3.52699 5.66512 -6.75442 17
406 2 5.85114 -0.548522 -0.0948088 17
407 2 3.08003 2.85827 3.69235 17
408 2 5.79904 4.46719 -8.34651 13
409 2 0.701848 -0.140001 -5.30914 22
410 2 8.01061 2.75542 -5.80432 16
411 2 1.99171 -1.36923 -11.4404 6
412 2 3.6952 5.08862 -0.269679 15
413 2 1.40397 7.0047 -0.601031 21
414 2 1.33498 6.8547 -4.35322 17
415 2 2.45753 3.15529 -8.9437 13
416 2 8.88053 7.83422 -1.23105 11
417 2 9.05561 3.2632 -3.30199 13
418 2 6.67068 0.744001 -2.92301 18
419 2 4.80135 2.25702 -5.64512 19
420 2 4.62545 7.50642 -2.57614 17
421 2 4.16978 4.22006 -3.278 19
422 2 3.74037 1.75481 -0.918894 17
423 2 6.25018 -2.48015 -8.20292 14
424 2 9.77203 6.02801 -4.28501 11
425 2 6.03176 10.4744 -5.66649 10
426 2 3.18228 8.54233 -5.93465 13
427 2 8.03696 5.88202 -6.30407 13
428 2 6.19982 2.98765 -0.271442 17
429 2 9.50081 4.81032 -0.562212 15
430 2 7.25114 9.99128 -2.64497 12
431 2 10.6085 0.513071 1.94294 11
432 2 10.1021 0.319639 -3.84973 16
433 1 -0.558907 9.44592 -1.80669 16
434 1 6.58892 1.00352 -1.10713 18
435 1 2.31637 -1.05034 1.72233 15
436 1 -0.436878 4.90729 1.64328 19
437 1 -2.30677 2.25105 3.15205 19
438 1 4.92712 3.72372 3.9566 16
439 1 1.27647 -3.01742 8.93542 20
440 1 1.71975 4.00905 3.14496 21
441 1 -3.61186 2.35388 8.45443 16
442 1 3.53037 -0.793118 9.81497 11
443 1 1.81196 8.96161 0.104479 20
444 1 5.26015 9.34898 -2.23846 17
445 1 3.7123 7.07966 -0.769819 20
446 1 5.29384 10.3373 0.760846 13
447 1 4.65099 6.13748 5.30942 10
448 1 1.55544 5.03566 -0.131 17
449 1 -0.588162 5.27538 4.33401 16
450 1 5.55299 6.04807 -3.01298 12
451 1 6.97236 5.94008 -7.90567 12
452 1 6.47002 -0.691724 1.81387 19
453 1 3.65547 8.1336 2.71733 15
454 1 4.58799 4.82707 1.33204 19
455 1 3.56246 0.989136 3.73042 21
456 1 9.15433 0.640265 3.16627 12
457 1 3.08103 2.82001 9.33092 7
458 1 4.05471 10.1384 -5.38177 12
459 1 4.35099 3.64337 -1.38007 18
460 1 8.50226 9.62048 -1.10001 9
461 1 6.51957 7.66328 0.986169 15
462 1 2.04393 3.65728 6.21368 16
463 1 6.98337 9.34637 -7.15303 9
464 1 7.69846 9.76385 -4.64032 10
465 1 10.5111 3.23929 -1.33374 14
466 1 6.37312 0.666825 4.46954 18
467 1 4.62709 3.07829 6.65907 14
468 1 11.0159 -0.851526 -2.47407 11
469 1 5.31902 -0.251726 7.04707 17
470 1 9.30003 6.62392 0.254406 12
471 2 0.578687 -4.73054 3.00266 17
472 2 4.70427 3.38993 8.39568 8
473 2 -1.5349 5.08046 0.133886 20
474 2 5.48178 3.40796 2.13674 19
475 2 2.67003 -3.93058 8.05903 18
476 2 0.518756 -4.44359 10.5994 14
477 2 -3.47496 3.41498 6.72821 16
478 2 -0.647406 0.271233 6.30123 14
479 2 3.52739 4.62437 5.38909 15
480 2 1.60559 8.65646 2.11221 17
481 2 4.30539 10.2928 -0.881619 15
482 2 3.90603 10.0842 1.99689 12
483 2 1.71828 3.03872 8.00854 11
484 2 0.876675 3.56401 4.76688 18
485 2 12.0498 3.38272 -2.73731 9
486 2 3.39279 -2.40903 0.858096 16
487 2 4.68289 7.56803 1.06708 17
488 2 6.52782 -5.73799 -5.61924 14
489 2 4.18553 -1.2734 8.10068 13
490 2 -1.50466 0.307647 11.1889 11
491 2 5.45177 2.22485 5.22567 16
492 2 4.51945 -0.490747 5.32377 16
493 2 4.11741 -0.0792537 2.06663 18
494 2 0.114496 6.48029 2.90285 18
495 2 7.10481 9.37433 0.439593 11
496 2 7.90041 6.56011 1.56963 12
497 2 6.82439 -1.31891 6.87952 13
498 2 7.49011 0.762692 2.71315 16
499 2 6.06155 5.57339 3.85002 14
500 2 8.66792 3.53867 1.92069 15
