ITEM: TIMESTEP
26000
ITEM: NUMBER OF ATOMS
2000
ITEM: BOX BOUNDS pp pp pp
-30.0 30.0
-30.0 30.0
-30.0 30.0
ITEM: ATOMS id type x y z Coordination
1 1 -15.6917 1.37072 -8.36036 17
2 1 -6.90464 -12.0803 -11.9075 9
3 1 2.6227 11.2349 13.9666 12
4 1 4.03948 -11.0454 12.2393 9
5 1 -19.4598 6.92225 3.45946 13
6 1 7.19355 -6.81123 -5.33658 22
7 1 -16.1147 3.77927 -1.43921 19
8 1 -0.881618 -6.54062 11.599 19
9 1 -9.53832 -1.28286 -6.52526 18
10 1 -18.2774 -9.77503 10.7699 12
11 1 10.0619 3.06466 -4.64416 12
12 1 -8.67673 -12.9487 7.84466 19
13 1 -19.6209 -7.90206 8.55981 15
14 1 6.42696 2.0558 17.9328 13
15 1 4.71162 -4.85333 4.50194 16
16 1 -2.21304 -0.608268 10.0843 20
17 1 12.3996 5.0168 1.21355 14
18 1 -6.20508 6.99048 -5.44014 19
19 1 -2.12856 -2.67068 14.7309 20
20 1 -7.71908 -1.92631 -15.8077 12
21 1 -16.3002 -0.717202 14.4756 19
22 1 10.0949 -0.427451 8.83742 18
23 1 -5.14431 6.96703 -8.25322 17
24 1 -1.25377 5.4106 -9.76495 17
25 1 14.0818 -2.01164 8.46513 12
26 1 -13.6286 -11.4463 3.61654 19
27 1 -14.5081 -1.17849 -7.00925 21
28 1 -4.4367 -5.42203 -5.34075 20
29 1 -9.72694 8.25781 4.4975 18
30 1 2.10979 -14.7749 5.89641 12
31 1 -0.628454 -3.23622 11.3904 22
32 1 -2.10383 -16.8291 -11.4049 10
33 1 3.74142 -6.47843 7.65435 23
34 1 -11.298 -12.0291 5.85958 18
35 1 -18.1549 -3.37692 14.9289 12
36 1 1.73449 -7.44018 -6.56265 22
37 1 7.69287 -12.0888 -6.44033 11
38 1 -13.2268 3.56629 -13.1923 10
39 1 -3.01659 -0.406529 19.3073 12
40 1 -1.62812 -9.82362 10.9271 17
41 1 -0.547424 -4.87444 14.4382 17
42 1 -16.8161 -2.61647 8.72978 19
43 1 -17.874 -0.841237 6.26736 17
44 1 -12.5665 -0.319408 0.725697 19
45 1 -10.6441 13.1839 4.08002 15
46 1 -0.663884 -14.4899 -5.52849 19
47 1 2.87536 0.277092 -2.7859 23
48 1 0.33837 -10.5177 -0.331489 17
49 1 -7.38168 -5.76148 15.993 13
50 1 -18.6256 9.40138 8.22609 9
51 1 -6.09464 13.2843 -7.71533 8
52 1 -6.13592 7.42413 14.3515 19
53 1 -15.6268 4.65351 -4.59014 18
54 1 -1.71627 13.3589 14.0553 11
55 1 0.844307 -18.7416 2.55882 11
56 1 -0.711671 -7.98679 -5.03871 19
57 1 -2.63557 0.455182 -11.4257 16
58 1 -16.3349 5.25422 12.3582 19
59 1 -12.5621 -8.18409 -6.39772 18
60 1 7.12319 -3.73242 4.34865 18
61 1 -7.44472 -0.0527726 -5.54968 22
62 1 -4.18332 -11.0133 14.6543 12
63 1 -9.86057 11.0525 15.0013 12
64 1 -12.1364 4.63821 -4.93506 18
65 1 -9.85416 7.05815 18.3195 10
66 1 -4.08162 0.19097 -0.567135 22
67 1 -7.34674 -12.365 13.8358 14
68 1 2.99122 -0.962097 8.9473 20
69 1 3.0027 -16.9076 -1.90113 13
70 1 -4.80103 4.95049 16.0797 20
71 1 -11.6594 -2.00758 -8.70466 17
72 1 -15.1755 6.93293 -1.93755 21
73 1 -2.90582 7.44159 20.3708 9
74 1 6.76234 -11.007 -3.13833 20
75 1 4.0852 -13.3236 3.93285 14
76 1 -16.3808 -4.62403 5.9681 18
77 1 -10.3608 -3.61972 2.31329 18
78 1 3.27203 10.652 5.18631 17
79 1 7.14713 -3.37598 16.1373 22
80 1 -12.6319 -12.3487 12.3361 16
81 1 -14.7215 -2.05962 1.84044 18
82 1 12.5964 -3.33351 7.03548 17
83 1 6.03302 -3.31956 1.79141 21
84 1 -4.91986 5.08132 19.6603 11
85 1 -9.30455 -0.0944306 7.69597 17
86 1 -5.53948 -5.86869 5.19165 16
87 1 -6.77718 -7.65852 -4.64461 20
88 1 -19.6835 5.36242 7.69043 15
89 1 -11.1055 6.0965 2.38379 21
90 1 -4.48496 1.70686 -9.01158 18
91 1 1.24018 -4.69219 -2.30443 21
92 1 3.31824 5.18605 -3.71194 20
93 1 -0.530161 -8.27545 1.7592 18
94 1 1.11115 -11.0175 12.7164 11
95 1 -12.5905 11.8 1.95918 13
96 1 -12.1846 10.8173 8.48311 18
97 1 -9.93422 -7.20161 6.64667 20
98 1 -9.60696 10.1595 6.92143 20
99 1 -12.3576 -9.25742 12.356 20
100 1 4.12519 -7.06601 -1.17523 18
101 1 -16.8086 3.90132 1.97462 22
102 1 -14.4392 -12.0021 7.75281 14
103 1 7.13303 -14.5312 -0.834583 10
104 1 1.29703 0.991063 -6.84157 19
105 1 -9.4357 -3.5712 -14.5422 14
106 1 -11.0745 10.7321 -3.74455 16
107 1 -10.5902 -4.56437 -6.54275 19
108 1 -0.690813 4.85916 19.5984 12
109 1 -3.46551 11.0153 0.431641 25
110 1 -12.4945 12.3518 -1.03676 11
111 1 8.00334 5.54907 3.37578 23
112 1 0.146591 -7.21107 17.614 13
113 1 15.3627 1.41146 10.1707 9
114 1 -1.62736 -5.27473 -5.20466 18
115 1 1.94484 -13.2121 -7.43795 17
116 1 -5.62214 4.3486 10.8036 20
117 1 3.17316 -0.94948 14.2854 21
118 1 -14.7609 -6.60346 7.61222 18
119 1 4.77967 -3.77045 8.64822 21
120 1 -17.7422 -15.3319 3.60348 7
121 1 6.8421 -12.5746 4.8267 13
122 1 -12.5351 8.14319 7.92924 20
123 1 -2.44333 5.24243 -13.6805 16
124 1 3.7286 15.1207 4.95657 9
125 1 -16.8717 -6.21584 12.9832 17
126 1 -15.3136 -10.1866 13.4246 14
127 1 -0.520668 -14.0399 -11.4649 14
128 1 0.307608 8.28801 -5.94494 18
129 1 4.78263 -10.2549 3.66852 19
130 1 -2.43034 -14.562 6.95927 21
131 1 -14.8936 -14.3709 2.94103 18
132 1 13.2747 2.60881 12.5013 12
133 1 11.6109 -7.72094 -3.80474 10
134 1 -19.658 -6.40587 1.1968 11
135 1 9.93149 8.96424 8.45993 16
136 1 8.99824 8.24024 3.97395 21
137 1 -14.0269 3.80489 19.5843 13
138 1 5.56284 11.1362 -0.516556 19
139 1 -11.3796 5.33357 12.5857 19
140 1 -8.90803 10.7273 1.89139 21
141 1 -2.80246 -10.527 -6.43829 18
142 1 -4.03165 -9.07864 -4.29572 22
143 1 -2.75114 13.2087 -5.8606 15
144 1 5.87588 -4.87358 18.6141 11
145 1 -2.76189 -3.43697 -14.9317 8
146 1 -5.64752 5.81347 0.0301258 21
147 1 9.00108 -9.38687 -7.97971 11
148 1 -10.4791 9.1547 -8.24726 12
149 1 -13.5366 10.1816 -6.17768 8
150 1 3.57464 4.28017 -9.47999 16
151 1 8.88867 -7.60839 13.5566 10
152 1 -9.32614 3.5357 -10.4359 17
153 1 -12.9216 8.60869 12.3189 15
154 1 6.05445 13.627 2.33795 15
155 1 -2.24236 5.88186 3.01281 21
156 1 -8.12552 15.3241 8.39567 15
157 1 2.87435 6.92528 10.5983 17
158 1 -10.3102 1.97536 -4.12041 19
159 1 -1.4787 10.8904 -4.91149 20
160 1 -4.86897 10.4439 -9.6867 14
161 1 -8.61134 -7.14795 9.6914 19
162 1 -17.0066 8.9805 -1.66915 13
163 1 1.26791 -3.78844 -10.1519 17
164 1 -4.47817 -6.57085 -14.9642 11
165 1 3.80427 10.0828 8.49348 19
166 1 -2.24895 13.9656 10.8397 13
167 1 -13.7081 2.31747 -3.41221 19
168 1 -11.1173 13.7546 6.93119 16
169 1 9.58809 -4.88462 -4.01681 15
170 1 -17.5515 -1.07671 -8.37153 11
171 1 9.8587 -1.85819 15.1565 16
172 1 4.02646 13.989 8.07314 12
173 1 -3.77519 7.3335 11.3324 23
174 1 -0.970104 -4.85111 -12.6612 13
175 1 -7.16264 10.597 9.82799 17
176 1 -8.22967 10.1953 -5.95689 19
177 1 -1.05125 -4.88827 16.9215 21
178 1 -15.4668 -9.28066 5.46219 19
179 1 -1.7894 -12.3463 -9.00994 19
180 1 -8.6221 12.6814 -4.49952 10
181 1 -6.87687 -12.6725 10.2383 19
182 1 -5.53109 -17.6523 -5.82123 12
183 1 -6.34738 8.17749 -10.8551 16
184 1 -18.1262 2.20743 9.34124 18
185 1 -5.05694 3.08288 0.395411 20
186 1 6.60381 7.76825 -6.15596 16
187 1 -10.0147 3.62273 15.5744 19
188 1 2.35143 -9.00872 15.3735 12
189 1 -14.1554 1.12611 5.7212 21
190 1 -5.67027 13.6071 10.7632 14
191 1 -13.6734 3.26741 16.4348 19
192 1 10.8061 2.86327 13.9775 13
193 1 -4.56002 11.4919 7.78125 17
194 1 8.78827 -4.00631 -0.50336 21
195 1 -11.7883 7.85044 15.3673 16
196 1 -5.27349 2.14922 -6.43885 18
197 1 9.28854 -4.9879 2.32829 16
198 1 -11.663 -7.83743 9.12062 19
199 1 -18.8452 -2.47904 -1.6109 10
200 1 -16.8604 -10.9897 2.39357 18
201 1 4.88177 2.17274 14.8597 21
202 1 -16.6786 -3.85444 -3.70372 19
203 1 -5.492 -17.1845 9.38439 12
204 1 -1.03256 -13.6272 -2.20639 17
205 1 -9.93336 8.3733 9.66305 19
206 1 -14.9261 -1.82478 5.94161 23
207 1 7.84069 10.3291 13.0646 14
208 1 -11.0833 -3.43066 -0.917798 17
209 1 -15.6175 7.54121 -7.50695 9
210 1 -12.2297 -4.76445 -11.1241 15
211 1 -11.0816 2.06068 13.6008 16
212 1 -5.82906 -4.72693 9.33106 19
213 1 -0.978427 -12.4258 9.72483 16
214 1 -14.6608 9.78421 3.11805 15
215 1 8.7995 2.03691 3.85142 20
216 1 3.73222 -2.45386 -3.54118 21
217 1 -7.49944 -7.36148 -9.91591 18
218 1 -4.75266 -4.13892 15.437 20
219 1 2.92546 -16.9706 1.08393 12
220 1 -9.45013 6.75455 -10.6794 13
221 1 -0.0113827 -7.82951 -12.9797 14
222 1 9.1882 0.381712 -3.47837 15
223 1 3.46543 8.38646 -8.06136 18
224 1 -12.6587 -8.03939 -2.9933 21
225 1 -9.28453 12.587 -0.788742 15
226 1 -18.2191 -9.55388 13.4274 10
227 1 -1.47581 12.6131 2.81355 21
228 1 -17.8445 4.65978 15.6731 11
229 1 -11.6782 9.25333 1.73561 20
230 1 2.42215 -4.0807 13.2218 21
231 1 -8.72044 -12.3878 -6.83216 17
232 1 -14.2387 6.49187 1.6874 20
233 1 -5.00891 7.36771 -2.43246 18
234 1 -16.4536 -12.9688 5.76379 16
235 1 -16.2344 0.561421 7.52472 25
236 1 -16.3036 3.93255 7.35585 22
237 1 -8.64555 -10.6666 -3.48638 21
238 1 -8.42161 -19.2795 -0.960351 10
239 1 -1.53175 -10.2213 -2.61462 18
240 1 1.28971 -6.62539 0.240262 21
241 1 8.98393 1.81521 16.109 15
242 1 4.69198 5.52475 -6.69665 22
243 1 -5.79427 13.1337 3.73099 18
244 1 -11.1637 -4.0798 5.70711 19
245 1 -12.5858 10.8841 5.28651 19
246 1 -1.02896 8.69304 12.2762 19
247 1 -0.772755 -12.7487 1.81353 19
248 1 9.11335 -1.61765 2.35906 23
249 1 1.91464 2.40831 9.60286 20
250 1 -17.1048 1.14541 4.47565 21
251 1 -15.5854 -9.0531 -2.93299 17
252 1 -1.79666 10.8008 -7.72449 15
253 1 1.09718 -5.03526 8.5143 22
254 1 6.14521 5.56526 -10.0575 9
255 1 -2.56098 -10.9573 -0.243207 20
256 1 -1.56005 1.67424 -8.29523 18
257 1 -2.07483 -17.7006 8.51412 9
258 1 6.97945 -6.39883 -2.04757 16
259 1 -13.1667 2.81415 7.72308 21
260 1 -7.5335 -17.2019 -2.74752 16
261 1 -13.8756 -5.05388 -7.13894 15
262 1 -4.27113 13.4618 1.16935 17
263 1 -1.97882 -6.11849 -10.0907 19
264 1 8.44899 5.0663 16.3732 14
265 1 14.467 2.93424 1.52996 8
266 1 -6.18864 -11.9095 2.97842 19
267 1 8.62903 -6.32265 -9.0944 12
268 1 -5.5991 -5.16422 12.3226 17
269 1 -11.1332 -10.2621 -7.88995 14
270 1 -10.3739 1.30104 -13.1428 19
271 1 -13.4053 -10.9382 15.5055 10
272 1 10.2152 -3.64453 10.4131 18
273 1 4.88686 -9.31445 14.6538 8
274 1 -15.0816 -13.5572 -4.70028 12
275 1 -0.270164 -2.37381 7.8045 23
276 1 0.0385845 10.2833 -12.0148 8
277 1 3.63322 7.41988 0.26417 19
278 1 -5.46022 -0.929258 8.77257 22
279 1 -4.55383 14.7461 8.21173 11
280 1 -10.3011 -4.65735 8.40298 19
281 1 -14.9426 -11.5851 -7.63343 6
282 1 -8.17649 -9.33154 -6.25714 19
283 1 -2.98365 7.56844 -4.80226 19
284 1 -3.46521 -13.6899 2.18195 19
285 1 -6.80262 -8.38491 6.65994 18
286 1 4.23985 -3.79706 -11.9458 10
287 1 14.5307 -3.27796 3.75233 11
288 1 13.6004 4.0128 9.42311 13
289 1 -11.8509 -5.90829 -4.29888 19
290 1 -9.65108 -1.89324 11.0563 16
291 1 -8.62617 -6.94896 3.61093 21
292 1 7.92575 -0.768339 17.5642 14
293 1 -11.0218 -16.8221 6.98882 9
294 1 -5.77652 -14.7854 7.48232 21
295 1 0.488145 14.0436 9.23189 12
296 1 6.42593 -4.60174 -10.7799 10
297 1 -5.96431 -2.93408 -7.22269 20
298 1 -21.8971 -2.39932 9.09318 8
299 1 -5.18097 7.28878 17.7835 15
300 1 -6.58479 -14.6499 -4.67582 17
301 1 -14.0389 -10.3538 -5.26958 18
302 1 -16.9789 4.47368 -7.08382 12
303 1 8.74858 -3.31045 8.07321 20
304 1 -6.9752 -0.362772 -8.68469 18
305 1 -7.90022 3.18792 -4.69863 16
306 1 -8.99923 -4.4836 10.8248 20
307 1 -5.77857 -15.9545 -11.5789 9
308 1 -11.0291 16.3188 4.97598 7
309 1 -4.91593 8.57386 2.17142 20
310 1 14.3473 7.47563 1.4955 9
311 1 -7.90506 -2.34283 8.0622 21
312 1 -14.6809 -2.49788 13.3026 21
313 1 -15.303 9.78934 9.5409 13
314 1 2.5435 -12.4389 -10.3836 13
315 1 8.6988 12.5531 0.510882 13
316 1 4.88343 -11.4348 -0.281419 14
317 1 -8.51196 -1.88796 20.0326 8
318 1 -19.3644 -0.91263 9.18848 18
319 1 -2.44068 -16.0968 -1.20554 17
320 1 -13.1778 6.71577 17.9948 12
321 1 -15.3169 5.53148 16.8468 16
322 1 -11.0279 -6.50164 11.7778 16
323 1 -19.8163 -3.31645 6.33629 13
324 1 12.3165 -8.06128 -0.338615 11
325 1 -13.8313 -7.3621 11.2001 18
326 1 5.48619 -3.61748 -5.42476 22
327 1 5.99296 -15.487 -2.91707 11
328 1 -6.51485 9.8648 5.44716 17
329 1 -14.5423 9.83695 -0.376497 15
330 1 7.07415 8.58371 10.3176 18
331 1 -12.1628 -1.27251 7.17005 20
332 1 6.81811 -12.0575 1.5148 15
333 1 -10.151 9.54053 -1.73438 21
334 1 -6.14292 5.79305 5.61598 18
335 1 1.03422 -11.0353 9.72778 14
336 1 15.8999 -3.5426 6.81275 8
337 1 -7.77933 1.21407 16.5407 19
338 1 -11.2847 -10.2369 -4.35157 21
339 1 -5.85733 -0.745787 20.5701 10
340 1 -4.784 13.2285 13.1404 15
341 1 2.41629 5.97162 18.2742 14
342 1 -18.49 5.82761 -0.174822 17
343 1 -5.62521 -8.76034 -7.59851 20
344 1 -9.79898 -3.35561 -3.62774 19
345 1 3.64202 -10.0261 -8.34352 17
346 1 -12.2619 -1.35849 18.6244 13
347 1 -18.5603 -8.36449 -1.66593 10
348 1 -9.34922 -7.25835 -4.11628 22
349 1 -7.4874 1.37266 1.74731 19
350 1 7.23164 -1.4478 9.48836 21
351 1 -19.5048 -12.2206 3.7883 11
352 1 3.63258 -11.1485 6.42691 18
353 1 -20.0236 -6.61649 12.0071 12
354 1 -17.3491 7.03333 6.32895 17
355 1 -7.83657 2.30438 6.24852 23
356 1 0.419611 -18.2349 -8.2813 7
357 1 -4.36612 -0.546621 -5.69116 21
358 1 4.00193 1.39316 -8.46031 18
359 1 -8.46583 18.1714 6.30767 5
360 1 -14.2504 -5.38799 -1.8986 20
361 1 5.23924 -14.7443 -6.3089 12
362 1 6.83175 3.24818 -7.93364 12
363 1 -7.56465 -17.451 -8.80481 10
364 1 -15.9081 -7.46787 -0.206023 14
365 1 -8.01794 -17.1322 6.99632 15
366 1 11.6798 -2.95228 12.6972 12
367 1 10.6387 -0.382825 -0.287496 16
368 1 -4.69048 -4.92122 -9.62552 20
369 1 -2.69873 15.1575 3.07606 12
370 1 -18.321 3.06177 -3.86054 13
371 1 -12.9436 7.92802 4.5014 20
372 1 -8.29187 15.4118 4.92587 15
373 1 -9.1835 3.76103 11.6846 19
374 1 4.96681 -1.52714 11.3716 21
375 1 4.48519 -8.95408 -3.3861 20
376 1 9.65905 -5.6649 14.8074 13
377 1 11.4425 -2.80421 0.736168 14
378 1 -12.3314 -15.536 -0.356038 17
379 1 -8.07605 4.04598 1.84709 21
380 1 -3.17468 -12.461 -3.96882 17
381 1 -2.75141 4.24745 9.13329 22
382 1 -12.0249 6.40131 -0.625747 20
383 1 0.173986 -16.4745 -3.28144 16
384 1 7.49919 -8.2483 5.09111 15
385 1 -17.8686 -6.43574 -4.35937 12
386 1 -9.64085 -10.5139 11.4689 19
387 1 -23.2816 -5.27236 11.668 4
388 1 -4.04615 10.9198 3.93999 24
389 1 -15.3157 -16.5018 0.519885 12
390 1 4.76098 5.44149 15.7179 20
391 1 -14.4369 10.2397 -3.34735 13
392 1 -6.81032 4.31205 -7.80586 15
393 1 0.359264 8.66936 7.72886 19
394 1 -19.668 -9.15872 2.65868 10
395 1 -9.45717 -16.5499 -5.68342 11
396 1 -19.3239 -0.562429 12.9753 15
397 1 -20.8131 5.11643 1.63009 12
398 1 -1.60208 -10.4649 7.52031 17
399 1 -4.25784 -13.2466 5.27604 21
400 1 2.24493 3.98824 11.895 21
401 1 -2.92708 10.8817 -10.938 9
402 1 -10.8328 4.98366 -7.95889 15
403 1 -5.66503 12.1796 -5.04296 16
404 1 -9.32109 -0.84344 -3.17819 20
405 1 -6.31832 -9.16507 12.1775 18
406 1 11.1544 10.8177 6.32455 12
407 1 -3.59552 6.0353 -11.3818 20
408 1 -7.43001 1.32175 9.56409 16
409 1 -12.7731 3.72219 2.84726 17
410 1 -11.8789 5.05513 5.8817 18
411 1 -11.9438 -13.8606 8.81959 17
412 1 4.20763 -6.03311 -4.11983 21
413 1 2.58111 -9.30496 -11.2985 15
414 1 -5.97125 0.942145 14.1573 16
415 1 -17.826 -1.76961 -5.67165 12
416 1 -17.4721 2.29168 13.12 17
417 1 -20.3747 7.17087 10.3252 12
418 1 -6.11227 -2.42034 12.2424 19
419 1 -11.0315 2.92847 -15.2445 12
420 1 8.48066 -13.0541 -3.27024 12
421 1 0.617135 -10.4569 -8.6157 20
422 1 -12.981 -5.8721 13.7888 20
423 1 4.08133 -14.2272 -0.215739 14
424 1 -1.29075 7.61736 -12.3635 16
425 1 1.96587 -17.5091 4.8627 11
426 1 -2.08289 13.1259 6.37195 18
427 1 -14.7756 4.32897 5.08092 22
428 1 -14.2807 0.296401 9.55284 18
429 1 -10.6766 -6.68741 -8.72869 16
430 1 -16.8666 -7.15557 10.2825 17
431 1 5.25274 -3.00254 14.1658 18
432 1 5.01488 1.88897 0.601292 23
433 1 0.0311908 -2.24443 -7.44335 17
434 1 1.82515 -8.94235 6.93587 21
435 1 6.74202 10.7395 -5.49736 13
436 1 -13.5262 0.223763 16.5293 19
437 1 0.547216 13.3159 4.75344 16
438 1 9.04911 -7.00096 10.3266 16
439 1 -8.0065 -8.17092 -1.50909 23
440 1 0.379566 3.28733 17.072 17
441 1 -8.98241 6.64888 15.2558 19
442 1 -13.8586 -18.0568 -1.83056 10
443 1 6.53939 13.9678 5.17266 12
444 1 -0.163936 6.70181 10.2908 18
445 1 -12.1352 -1.53761 4.13169 20
446 1 -10.8217 -17.2757 -2.3451 16
447 1 -19.7286 6.02735 13.3338 9
448 1 -15.0431 -15.0999 -2.24012 14
449 1 -14.0552 6.12812 7.47968 19
450 1 -12.5787 -15.9242 -4.30971 13
451 1 -5.84062 -11.4868 -4.90313 19
452 1 -8.98889 -10.6275 4.98991 18
453 1 -11.7662 -3.37847 12.7128 21
454 1 6.45331 -8.15097 8.15181 17
455 1 -15.8583 -2.01078 17.501 11
456 1 -11.9784 3.64886 -10.6425 16
457 1 5.0252 1.45887 11.7118 21
458 1 -11.2244 -9.32465 3.31552 16
459 1 -2.43074 2.43285 -1.28248 23
460 1 -7.68836 7.52488 2.77732 21
461 1 -7.23069 3.70913 -1.67534 17
462 1 -3.97302 2.14734 20.8947 9
463 1 -17.793 0.502856 -2.58973 15
464 1 -1.27336 15.107 -3.74169 9
465 1 4.44446 9.062 -3.21552 19
466 1 -13.057 -11.9815 -2.1339 20
467 1 1.68294 0.644452 15.9308 19
468 1 -3.92157 -13.6038 -6.7206 19
469 1 -0.424698 -5.23587 -7.49858 22
470 1 1.5721 -15.1675 2.55084 18
471 1 -15.8328 6.81207 4.20364 19
472 1 5.76714 5.09749 18.5979 11
473 1 8.47083 3.40563 -1.36628 19
474 1 -1.437 8.8747 2.02533 21
475 1 -14.1418 4.40818 -8.01828 20
476 1 0.573481 0.370982 -1.57181 20
477 1 2.15474 -8.31081 3.80372 20
478 1 -12.6251 -9.57543 6.37056 18
479 1 -3.93413 11.2888 15.7364 13
480 1 0.416346 8.48979 -9.80497 19
481 1 9.70046 9.48776 1.61135 17
482 1 1.31543 14.3624 -3.04842 11
483 1 3.53245 -6.10435 2.46537 21
484 1 11.4141 1.53718 1.66611 18
485 1 -1.31211 5.54423 -6.34268 18
486 1 -0.850308 -14.6713 4.53639 22
487 1 -3.96651 -10.8267 10.7579 21
488 1 6.67691 -9.30768 11.5628 12
489 1 -14.1886 -2.44361 -12.3481 11
490 1 -18.8221 -12.2039 8.01121 7
491 1 -2.81781 -7.54524 -7.29347 20
492 1 6.11951 12.0541 10.7651 14
493 1 -5.53972 6.81443 -13.647 13
494 1 4.49541 -0.815591 17.2745 16
495 1 -14.7028 2.05538 13.3424 21
496 1 -1.34997 -16.2302 2.31059 19
497 1 -14.5378 -12.4917 0.358081 17
498 1 10.4664 -10.3218 -2.19982 16
499 1 7.26214 -9.32077 2.32927 17
500 1 -8.816 7.0584 0.325967 21
501 1 -8.19468 -11.6868 -0.145918 18
502 1 1.32981 6.18287 -7.78916 21
503 1 10.6372 -7.21814 -6.48272 11
504 1 -11.9056 2.30506 20.3856 9
505 1 8.78124 11.5044 10.2289 13
506 1 -1.65498 -2.7458 -10.0092 21
507 1 -0.321245 1.13353 -12.5629 14
508 1 -12.4035 -0.434705 12.5924 17
509 1 -10.0044 14.2568 1.56044 13
510 1 -10.7797 -6.34419 -14.4157 10
511 1 -16.5096 -3.83395 -0.453319 15
512 1 -3.1415 -3.77271 -7.23827 19
513 1 -10.7666 -5.0955 16.1207 13
514 1 -2.72767 5.24892 0.449554 20
515 1 15.3043 2.73269 6.98246 10
516 1 12.6681 10.5084 -0.181679 8
517 1 -7.66988 -17.605 1.40427 15
518 1 -8.77688 -15.692 -1.06647 20
519 1 -3.06485 -7.6639 -11.8404 18
520 1 -14.1636 6.66392 10.615 16
521 1 0.426523 -7.56828 -9.63162 19
522 1 0.894411 9.88054 4.09258 18
523 1 6.29538 -6.13221 0.894777 18
524 1 6.98543 13.5692 -1.14825 11
525 1 4.6442 -7.93241 5.50097 20
526 1 8.62211 5.9747 -0.53578 17
527 1 -0.103996 7.78739 18.4294 11
528 1 -19.4108 1.81361 6.40538 18
529 1 7.64657 4.89908 10.2736 18
530 1 9.35207 -3.52056 17.7358 10
531 1 -6.64556 -2.17363 -10.6672 18
532 1 -10.8152 -10.4011 -1.13795 21
533 1 -10.6411 -1.11598 15.306 18
534 1 9.85988 2.47416 9.75895 15
535 1 0.679901 4.42996 -12.7855 15
536 1 -6.71905 12.0592 -1.36934 21
537 1 -8.87354 5.06887 4.05667 16
538 1 6.36955 -5.81643 14.1566 17
539 1 9.27248 -1.32768 -8.74549 7
540 1 7.11844 -8.77155 -1.19371 19
541 1 9.75872 8.2267 11.3788 15
542 1 -20.752 -4.7954 9.59952 9
543 1 -11.794 4.12854 -2.14618 18
544 1 -4.14127 -0.368813 16.6182 19
545 1 -15.06 7.97692 15.1091 9
546 1 -7.58969 8.65986 -2.84729 19
547 1 -5.46835 -15.6134 -8.39102 18
548 1 5.71633 -1.3761 -7.63165 17
549 1 -10.8926 14.8025 10.2749 9
550 1 -9.04378 -4.88434 -11.1301 22
551 1 0.305537 -15.4545 7.6857 14
552 1 -8.37767 -6.30703 1.2671 20
553 1 -4.56383 9.78263 -6.32876 20
554 1 -16.8881 0.509688 1.61614 18
555 1 -2.14942 5.19015 12.4215 25
556 1 -20.7357 -6.98684 5.22423 12
557 1 5.54577 1.4504 -2.24468 19
558 1 1.77047 -10.506 -5.55329 17
559 1 3.75155 -6.75606 17.464 15
560 1 8.09299 1.04722 2.04437 20
561 1 -19.5741 2.44919 2.50465 18
562 1 -2.17816 5.39971 16.0323 19
563 1 -1.67539 14.345 -0.601564 14
564 1 12.3269 -11.1051 0.734283 9
565 1 -3.62308 2.96342 14.1341 20
566 1 -7.55057 4.48206 -15.2675 11
567 1 -12.4128 -8.4286 15.9243 10
568 1 -2.55957 3.28837 -5.15745 20
569 1 3.02775 1.44653 -11.7332 14
570 1 -0.808841 10.1636 14.9591 17
571 1 1.57781 10.9612 -3.4781 18
572 1 -5.71186 -4.019 -15.7112 11
573 1 -8.33273 -10.3939 -9.23903 16
574 1 -8.98972 -3.5869 -8.65541 21
575 1 5.93336 3.56639 3.51797 18
576 1 4.7394 4.25107 -1.47248 20
577 1 6.5331 -4.21312 -7.93794 18
578 1 8.97893 5.86276 13.5339 18
579 1 -5.29432 -15.2791 -1.24707 19
580 1 -3.68221 -0.985305 -8.72847 21
581 1 9.25843 11.9774 -3.29964 9
582 1 -11.8921 5.25656 9.88766 19
583 1 9.63361 8.43883 14.8933 9
584 1 7.48512 3.89742 6.28173 20
585 1 12.6996 4.37051 6.61202 14
586 1 2.80752 6.56891 -11.0431 14
587 1 3.70501 7.34447 13.1107 18
588 1 12.8931 0.679908 8.61924 17
589 1 -2.84303 -6.37676 14.2916 19
590 1 3.50156 12.7737 2.73778 18
591 1 -0.378698 3.36289 14.2252 20
592 1 10.9527 7.08583 1.60568 21
593 1 6.88494 1.41602 9.14831 18
594 1 -17.0158 -4.4138 -7.13524 11
595 1 10.3871 2.13241 6.97182 17
596 1 -0.562278 -7.3849 8.12505 18
597 1 -17.852 6.15218 9.48875 18
598 1 -2.64375 7.83306 14.8832 24
599 1 9.17309 -0.510141 5.52216 19
600 1 -7.27669 7.3826 11.6196 18
601 1 -1.95532 9.72221 17.7563 10
602 1 2.40474 -3.08474 10.434 22
603 1 -0.7587 -8.18749 4.88692 20
604 1 -13.75 4.13706 -0.086363 16
605 1 7.31045 9.82916 -2.07449 18
606 1 9.28678 -4.45815 -7.18277 14
607 1 -2.20531 6.93644 7.82267 19
608 1 -2.54926 -8.94067 -14.6203 8
609 1 3.53347 -7.01273 -11.5251 12
610 1 -16.9496 -2.433 3.68203 18
611 1 -9.53967 0.132831 -10.7489 15
612 1 -6.37466 -14.9212 12.0722 12
613 1 -10.2535 -2.29489 -12.1095 20
614 1 -13.2095 2.46134 -6.30298 19
615 1 5.94429 -10.7763 7.9411 13
616 1 4.30647 6.87232 3.18089 20
617 1 -3.97029 -7.54785 11.236 16
618 1 -14.7847 -3.18468 -9.39082 14
619 1 -3.84038 -2.65325 -12.2162 16
620 1 -8.4141 1.38459 19.6472 12
621 1 -4.12543 10.2117 -3.28538 20
622 1 13.3098 -4.49929 9.80705 12
623 1 6.89962 3.86414 -4.2073 23
624 1 8.00791 11.3202 6.94789 17
625 1 -1.71573 -16.1258 -8.43036 20
626 1 -15.5677 -4.85544 15.3993 12
627 1 12.087 -6.77335 9.65827 13
628 1 -2.62892 2.65507 17.6746 17
629 1 7.23839 8.97414 -9.01763 6
630 1 -9.58517 7.55689 -4.8269 19
631 1 9.68534 4.18597 1.80027 19
632 1 -12.2877 -16.4179 3.17992 10
633 1 9.71996 -6.86085 7.24855 19
634 1 1.69271 9.60214 10.6464 21
635 1 -10.4484 2.31144 8.60535 16
636 1 -7.76752 -5.18123 6.31683 19
637 1 -14.8058 -6.25413 -4.6162 20
638 1 8.01809 -2.55512 12.9408 20
639 1 -8.09126 -9.38487 14.7571 12
640 1 0.723845 8.32191 15.7912 16
641 1 -11.8879 7.56374 -3.03937 18
642 1 -0.0277095 7.42683 5.14631 22
643 1 4.44175 2.5193 6.91127 19
644 1 -5.47336 -6.25133 -12.0248 18
645 1 -16.7669 -0.126821 11.1307 23
646 1 0.0238416 -0.0396885 -9.75211 20
647 1 -7.00498 -3.48494 -4.70272 18
648 1 9.04916 -9.87006 -5.21385 16
649 1 1.6448 1.45752 13.1911 20
650 1 3.81657 -0.709034 5.67212 18
651 1 -20.6081 3.06775 12.5937 11
652 1 12.2604 7.53506 6.87088 14
653 1 -3.51826 -3.57798 19.0643 11
654 1 -5.38334 2.46052 17.6199 20
655 1 -1.22304 -7.52628 -2.22205 21
656 1 -7.46811 3.41701 14.4305 21
657 1 4.02796 4.23362 9.65706 18
658 1 -16.9668 -10.0355 8.22397 19
659 1 0.660113 7.07339 -3.44997 17
660 1 3.46681 -11.7778 -2.5855 14
661 1 -10.8511 1.04742 -1.45926 19
662 1 -0.821275 4.63951 6.29825 19
663 1 5.69373 8.93519 6.10963 17
664 1 1.92705 -1.64399 -11.5892 11
665 1 -8.6829 5.75096 10.0067 16
666 1 -0.176877 8.09142 -0.450392 18
667 1 6.09622 5.10565 1.08072 19
668 1 -17.6619 -13.722 0.988402 13
669 1 -2.54698 2.27609 -14.6573 10
670 1 -17.0219 8.34684 -5.41997 9
671 1 6.07636 -9.1638 -6.1072 19
672 1 2.24071 5.11426 4.60642 20
673 1 2.56058 7.71681 -5.10999 20
674 1 0.808129 6.52184 1.86995 17
675 1 -5.60989 6.84653 8.77207 19
676 1 -10.3697 1.15137 2.40405 20
677 1 5.91794 6.56231 -3.19937 19
678 1 3.646 -4.05052 16.2476 22
679 1 8.79472 0.544407 11.8096 19
680 1 -8.55272 -4.1653 13.7182 17
681 1 -7.06577 4.89186 -11.7613 17
682 1 0.413169 6.49501 13.9358 21
683 1 -0.328462 -10.8107 -11.859 16
684 1 -3.29291 -6.32587 17.147 13
685 1 1.7033 14.7963 2.38923 11
686 1 -4.29402 10.0178 10.0183 16
687 1 9.54813 -11.744 0.100091 13
688 1 3.81876 8.33725 17.6504 9
689 1 -13.8463 -3.48516 7.83719 20
690 1 -1.56768 -17.8083 -5.44247 10
691 1 -1.93843 -0.00719356 -3.0195 19
692 1 -9.44595 12.2465 8.78142 19
693 1 0.745946 0.00739844 7.3137 22
694 1 1.46304 -2.18858 -1.27212 19
695 1 -8.06627 7.54474 6.83521 17
696 1 -14.2346 -7.95071 2.75639 17
697 1 0.417182 -1.60843 18.6432 11
698 1 -3.76463 9.21959 -12.838 12
699 1 -12.7897 7.39739 -6.5635 18
700 1 9.59768 -11.6582 2.85708 14
701 1 1.23937 3.09619 -9.96653 19
702 1 3.64266 -9.3636 9.82351 16
703 1 -2.32101 10.0443 6.75477 17
704 1 -21.3626 3.84955 9.42836 10
705 1 5.06073 -0.770357 -10.6544 9
706 1 -1.81769 -10.5184 13.9679 12
707 1 0.114121 11.8283 12.0768 17
708 1 -6.10144 -3.45547 17.8551 15
709 1 -10.2486 -7.38534 -11.8491 11
710 1 -7.5399 -7.13954 -13.2389 15
711 1 -9.97948 -14.8661 -7.74739 10
712 1 -7.05076 14.8971 0.909083 12
713 1 1.81361 -4.87623 -5.47912 22
714 1 -9.22616 5.13066 7.28072 16
715 1 0.677804 -17.018 -10.7641 9
716 1 1.31603 -7.83908 -3.00648 19
717 1 -0.373538 -8.07236 14.6326 17
718 1 10.0655 5.29586 -2.7704 13
719 1 -7.11022 -13.2358 -2.27203 18
720 1 -12.3137 -2.50856 10.0787 16
721 1 -3.36857 -2.62157 -3.40682 17
722 1 -8.13261 -13.6481 5.01743 16
723 1 -6.17722 -16.0017 4.29422 19
724 1 -15.7527 2.91455 10.7148 18
725 1 -13.6396 -14.5365 5.76013 13
726 1 2.40816 11.0539 -9.28184 8
727 1 -8.58159 12.9552 12.0303 15
728 1 -12.766 2.6219 11.3375 18
729 1 -19.2451 -0.71556 2.7381 12
730 1 7.47385 -0.644557 -0.825815 19
731 1 -15.5202 -0.139955 -11.0274 12
732 1 -6.58212 8.94643 -0.327268 20
733 1 8.19424 1.33512 -6.58119 14
734 1 7.0231 7.33418 16.0026 15
735 1 13.0528 -7.77447 2.54464 11
736 1 -13.5145 -3.5089 -4.31775 19
737 1 -16.0109 -8.45384 -6.23976 11
738 1 -1.45357 0.252322 16.1829 19
739 1 -2.17676 7.77288 -8.05346 19
740 1 7.08399 13.855 8.2613 9
741 1 -7.18087 -1.64905 15.5752 19
742 1 -4.58151 -18.2077 6.63085 11
743 1 -8.59374 -16.1439 9.7657 14
744 1 -5.63646 -7.98564 14.9068 17
745 1 11.8305 5.48418 11.9878 11
746 1 -3.40808 -15.677 -4.20356 18
747 1 -14.3303 1.22695 2.77722 21
748 1 1.05621 11.4618 7.35065 20
749 1 -14.8102 -4.80888 10.6744 20
750 1 0.366059 13.0139 -5.70443 12
751 1 -5.44816 -9.61721 -11.8648 16
752 1 -4.60947 -16.4053 1.37586 17
753 1 0.427051 -17.5541 -0.360247 14
754 1 2.26582 4.09575 -6.35084 20
755 1 3.9685 9.93528 2.21389 18
756 1 -7.89739 1.42536 -15.3992 12
757 1 -3.60868 -0.234821 13.0117 17
758 1 -3.48409 4.40321 -7.96936 20
759 1 -12.1655 -2.99809 -15.2651 10
760 1 -12.8455 -8.81842 0.598184 16
761 1 0.584661 11.1779 1.64667 18
762 1 6.64844 -0.387105 3.99597 20
763 1 -6.99609 -4.23973 -12.72 18
764 1 -8.6743 -9.42977 1.39889 21
765 1 9.85156 8.64439 -1.27286 14
766 1 13.5709 -5.43002 1.03833 11
767 1 -15.0232 1.27815 18.8993 16
768 1 0.765164 -12.2797 6.2825 20
769 1 9.83436 -8.54678 1.22227 19
770 1 13.7718 -0.550354 11.9049 11
771 1 -5.31504 9.35528 12.6814 21
772 1 -16.3234 2.59849 15.7926 17
773 1 -18.1432 4.461 4.78393 20
774 1 -9.43398 -13.0099 10.6034 15
775 1 7.1371 0.442469 6.65933 20
776 1 3.315 2.23667 18.023 13
777 1 -19.2585 -5.44159 -1.65009 12
778 1 1.28669 -13.1895 0.233657 13
779 1 -8.20782 7.2994 -8.04986 18
780 1 -1.308 1.7499 8.11379 21
781 1 -3.50114 -14.9171 9.91143 16
782 1 6.43227 -0.229799 14.4081 24
783 1 -2.63461 10.8899 12.1419 23
784 1 1.24272 -10.8301 2.96377 19
785 1 -13.1016 -4.99294 0.86919 21
786 1 -1.23001 2.2606 11.7588 21
787 1 -20.6784 -3.68923 1.25166 8
788 1 -9.88112 8.16067 13.1637 20
789 1 -1.27461 11.0503 9.59485 21
790 1 -18.9065 -9.76727 5.48714 19
791 1 -3.71168 -12.1251 8.37228 20
792 1 7.3498 -6.31791 16.8634 12
793 1 11.7887 -7.23275 12.108 9
794 1 1.69798 5.46713 8.08226 18
795 1 -6.49836 11.5919 1.7636 18
796 1 -10.194 -13.5125 -2.4758 21
797 1 -13.4867 0.230794 -14.0769 13
798 1 -16.0945 -8.18193 15.7429 9
799 1 -4.84122 14.9281 5.38493 12
800 1 12.0852 -0.886273 3.59476 12
801 1 -1.65915 5.45206 -2.47049 22
802 1 -7.65774 4.45607 17.7122 20
803 1 7.01994 7.08284 13.0196 20
804 1 -5.11715 -11.4785 -8.2154 20
805 1 -9.31679 -9.67086 8.26225 20
806 1 -7.24937 -5.72763 -7.13235 20
807 1 14.405 -0.537637 5.81228 13
808 1 3.28726 -4.57983 -8.3369 15
809 1 0.668006 -2.1813 15.6727 19
810 1 4.56088 -11.8667 -5.40045 18
811 1 -5.51921 3.10833 -13.5636 18
812 1 -7.48576 -14.5116 1.76744 18
813 1 8.74591 5.8092 -6.03583 11
814 1 11.4402 -4.95162 -1.4062 13
815 1 2.1759 -4.68029 19.231 9
816 1 -2.49793 -10.0763 -9.76575 19
817 1 2.57033 8.03434 6.16263 21
818 1 -4.7405 -9.8766 5.76305 17
819 1 -21.2792 4.49472 4.57469 10
820 1 6.82065 8.67685 1.22749 20
821 1 10.6828 5.8217 8.74544 18
822 1 2.96236 -1.19085 -6.0579 21
823 1 -15.2925 9.34394 6.45906 16
824 1 10.3433 5.38874 4.85559 18
825 1 3.90386 13.7967 -0.514964 13
826 1 1.10744 6.66771 -14.1575 7
827 1 8.77196 -10.3565 6.19756 13
828 1 -18.1826 6.28712 -3.05869 15
829 1 5.06288 5.69828 5.83188 20
830 1 -17.0283 -7.02215 3.14135 15
831 1 -8.83171 5.84506 -2.41016 17
832 1 -3.80802 -2.62747 10.8802 14
833 1 -16.7465 1.49146 -5.85219 20
834 1 -13.8434 -4.11849 4.11453 20
835 1 -10.6994 -0.438322 -15.3838 14
836 1 6.06288 -8.56159 -9.65186 13
837 1 -15.9407 -12.0589 -1.88043 12
838 1 10.099 -7.64325 4.46893 18
839 1 -20.3775 4.01656 -1.57048 9
840 1 -9.31119 -16.5605 4.07548 15
841 1 7.83583 2.88774 12.653 19
842 1 -10.4023 -11.0116 14.5811 12
843 1 11.2367 -0.0813392 13.8759 13
844 1 13.043 -8.15832 6.05264 8
845 1 9.96554 -4.26909 5.11589 15
846 1 -19.94 0.197883 -0.337484 12
847 1 -7.62491 9.06993 16.1153 13
848 1 -3.01557 8.34523 -0.616502 19
849 1 -3.16071 -11.4301 -12.3675 15
850 1 -7.09909 11.5001 14.0712 11
851 1 -15.3346 -10.8107 10.6232 16
852 1 2.71578 10.3508 -0.586858 20
853 1 2.22375 4.51638 14.9367 19
854 1 8.19478 -1.90101 -5.87934 19
855 1 2.10735 -6.42175 14.3552 17
856 1 -3.96803 13.2695 -2.00847 15
857 1 3.81245 11.3192 -6.08549 15
858 1 -8.52619 0.990306 13.0074 15
859 1 13.5836 5.8516 4.13899 15
860 1 -1.3576 -0.20616 -5.75766 18
861 1 6.68779 10.6999 3.70066 20
862 1 -18.8069 2.4825 0.13651 19
863 1 -3.87339 -12.9931 12.8597 14
864 1 -0.723864 11.1591 -1.30261 14
865 1 4.31372 -5.89361 11.0837 15
866 1 -4.85434 -18.3595 -1.668 10
867 1 -7.67541 12.8043 6.62002 21
868 1 -15.422 -0.661456 -4.32882 17
869 1 9.31853 -2.12544 -2.91352 15
870 1 -3.99915 -14.0067 -10.2275 19