ITEM: TIMESTEP
30000
ITEM: NUMBER OF ATOMS
2000
ITEM: BOX BOUNDS pp pp pp
-30.0 30.0
-30.0 30.0
-30.0 30.0
ITEM: ATOMS id type x y z Coordination
1 1 -13.5233 3.02935 -13.624 12
2 1 -10.353 -12.4912 -10.2287 16
3 1 -2.23743 8.82306 16.0231 10
4 1 5.13235 -10.6881 2.56317 15
5 1 -11.3342 9.1034 -5.93462 18
6 1 14.5065 -8.37038 -9.67966 9
7 1 -15.5652 7.85438 -7.94469 9
8 1 -3.76841 -7.59165 12.2999 10
9 1 -8.05381 -4.4308 -10.2336 15
10 1 -14.4779 -11.2794 0.538577 13
11 1 7.7275 6.22097 -10.494 16
12 1 -7.94256 -12.5253 -1.11239 22
13 1 -16.4108 -8.19161 1.6996 18
14 1 -2.76554 0.32773 14.2002 17
15 1 1.04648 3.42813 7.42123 20
16 1 -3.99037 12.017 -11.1726 16
17 1 1.05024 -2.75195 10.5891 21
18 1 -7.93354 -1.72224 -18.2757 11
19 1 -17.6015 0.0851987 9.96348 13
20 1 9.20697 2.83124 5.17761 14
21 1 -2.39055 11.0542 -13.8806 15
22 1 -4.12632 6.77968 -17.3762 16
23 1 13.4907 3.19902 11.3593 7
24 1 -12.6137 5.06575 -11.1237 17
25 1 -10.6954 8.9928 7.602 14
26 1 4.8238 -14.3286 2.26663 10
27 1 0.204195 -10.5207 -10.0462 19
28 1 7.97482 -12.4278 -2.69343 16
29 1 -7.71393 -16.2367 -9.85586 9
30 1 -17.9835 -5.1841 7.93995 17
31 1 0.134664 -7.28245 -10.169 20
32 1 9.43692 -11.5317 -11.0133 11
33 1 -0.710093 5.95032 -18.6581 12
34 1 1.57755 1.7996 14.6426 15
35 1 -2.3765 -13.1087 5.29506 19
36 1 6.67055 -6.04546 11.2084 8
37 1 -13.9598 0.528572 -0.798461 18
38 1 -13.1103 -0.982723 8.99023 20
39 1 -10.945 -0.964195 -2.61364 24
40 1 -5.15308 15.2304 -2.43919 19
41 1 0.703151 -11.5556 -13.9423 11
42 1 3.22138 0.0133499 -17.1068 13
43 1 2.9759 -5.77811 -11.5911 18
44 1 -6.03122 -5.01823 12.3866 14
45 1 -9.74833 7.38047 -3.5382 18
46 1 0.869369 13.969 -14.2375 12
47 1 -4.11253 12.2365 3.06204 18
48 1 -7.23652 8.71701 -9.00622 19
49 1 -1.43885 13.6509 -2.52245 18
50 1 0.0669619 -14.5621 0.830548 19
51 1 1.71471 -10.3168 -7.87688 18
52 1 4.69327 -7.55848 -16.634 8
53 1 -11.4383 6.7756 13.0583 9
54 1 -14.0869 -5.06566 -5.64075 19
55 1 -5.04278 10.1589 -5.44348 20
56 1 -9.826 -13.0785 5.13349 21
57 1 -5.73046 11.3301 14.0852 5
58 1 -9.93696 3.23325 -15.1784 18
59 1 -8.55685 6.34775 11.4794 15
60 1 -6.85089 -15.074 5.98146 14
61 1 3.45788 3.77981 6.12444 20
62 1 4.37571 -15.9333 -3.75051 10
63 1 3.35495 9.64475 9.72408 17
64 1 -15.1484 0.169768 -10.5339 15
65 1 -14.5312 10.8531 -8.14782 10
66 1 5.74915 9.66745 7.99688 18
67 1 14.3441 -4.516 -9.18657 12
68 1 5.7293 -10.7704 -1.15933 23
69 1 -17.4686 0.286133 3.86919 17
70 1 3.00348 12.764 1.056 19
71 1 3.1266 -5.09662 11.2734 12
72 1 -7.99137 -10.0076 4.22283 21
73 1 -9.80346 1.7057 -4.26791 22
74 1 8.59218 0.822179 7.26296 17
75 1 -1.78035 12.7649 5.43596 18
76 1 3.49592 -1.63371 5.76956 20
77 1 -2.44187 -6.82267 -8.05425 19
78 1 -11.547 6.76573 8.6925 18
79 1 -9.36703 10.8886 -5.90393 18
80 1 -5.33491 7.56502 -10.9071 22
81 1 5.87919 -2.59899 -6.48228 22
82 1 4.47694 13.7921 -9.06315 15
83 1 5.66439 -5.83705 2.25133 21
84 1 4.14955 -8.28373 3.75431 19
85 1 -4.31801 12.9198 -4.01049 20
86 1 -6.24499 10.2821 3.45395 17
87 1 -10.3779 -2.50627 13.9275 11
88 1 -5.08911 6.29866 6.45209 19
89 1 -9.503 -3.65077 9.86723 21
90 1 14.4598 -2.56286 -6.86589 13
91 1 -15.0982 3.19211 -0.399906 17
92 1 -15.1081 -10.2826 3.84238 17
93 1 10.0257 -7.45856 -6.90991 17
94 1 0.889893 -0.327827 -15.2035 16
95 1 -2.95643 0.128243 -18.6418 13
96 1 -1.29147 10.7645 -0.579307 22
97 1 -9.13361 9.68097 -14.3085 11
98 1 0.213321 5.3581 16.0554 17
99 1 -3.58122 17.4921 -4.28245 13
100 1 -9.95891 9.91413 -2.02788 21
101 1 1.4566 9.63036 1.25922 23
102 1 -11.3195 -5.99247 10.4732 17
103 1 10.3715 -2.61897 8.46867 17
104 1 2.22682 -3.57698 -9.56153 21
105 1 3.30533 -8.43772 -10.1798 18
106 1 -5.06528 3.30291 7.59927 22
107 1 6.0917 -4.37066 13.1985 10
108 1 -12.8229 -6.10504 -2.61011 20
109 1 -15.5989 -7.64709 -3.69135 16
110 1 11.3982 -5.98393 1.11766 20
111 1 -7.26817 8.378 1.27109 20
112 1 1.85522 7.97901 -17.283 13
113 1 5.2759 17.5108 -2.36232 16
114 1 -15.4055 -13.0294 6.15376 11
115 1 -12.6043 -14.4322 5.18145 15
116 1 3.39144 -9.5936 -13.4039 13
117 1 2.75504 7.30291 -9.36423 15
118 1 13.6208 -9.1141 -3.02322 12
119 1 -6.60151 -17.4622 4.60193 12
120 1 -8.06283 -9.29297 -2.5869 22
121 1 12.8268 8.4364 3.64774 15
122 1 13.9318 0.196768 -6.72413 10
123 1 -15.5134 3.69545 -3.32315 17
124 1 8.76028 10.1127 3.01895 20
125 1 14.7489 5.68664 3.26042 11
126 1 -9.03524 1.96745 17.0816 9
127 1 2.83005 6.97832 7.75479 20
128 1 -5.66005 12.6922 -6.94624 18
129 1 -5.09389 -8.14011 -8.88306 19
130 1 5.80073 -10.6456 -11.2568 12
131 1 -1.89618 14.3331 -8.59257 16
132 1 5.25447 -5.87154 5.81633 22
133 1 -0.890772 -4.05804 -15.1622 20
134 1 -4.79769 10.3685 -8.89752 21
135 1 11.4752 0.35547 -4.75899 17
136 1 -15.2319 8.86063 -4.73097 11
137 1 -7.93574 14.5942 -1.38231 19
138 1 -0.0460408 6.59871 -10.2024 19
139 1 3.2898 -12.6274 0.496097 20
140 1 -8.26608 5.92918 -9.97567 20
141 1 -3.87939 8.87547 4.31995 16
142 1 9.93314 7.19387 -8.63604 10
143 1 1.16137 12.5959 -4.53865 22
144 1 -5.87946 15.9133 0.970126 16
145 1 5.79948 9.24859 -2.34717 19
146 1 -2.74944 11.5683 -6.95793 22
147 1 -2.97919 16.9212 -12.1208 11
148 1 -0.747823 12.5767 -15.8326 14
149 1 -18.1692 -9.29082 4.18429 11
150 1 -13.0518 9.04921 -3.41254 20
151 1 -6.36709 -4.53134 -13.4769 18
152 1 1.96127 -12.8818 -10.612 10
153 1 10.5128 16.3662 1.16345 9
154 1 -3.73343 17.6383 2.64309 17
155 1 -15.1701 1.4139 -7.15367 21
156 1 -12.9158 11.6564 -2.01241 14
157 1 14.0314 3.8783 -4.46088 18
158 1 -13.7183 6.58386 -13.6311 11
159 1 4.03851 -1.64787 13.7009 13
160 1 5.0294 17.591 1.27854 13
161 1 -3.96877 8.56028 13.3644 19
162 1 1.78367 -8.54553 -15.7914 14
163 1 -4.85085 8.63778 9.55912 17
164 1 -5.04489 15.8316 -6.01862 16
165 1 1.56951 -7.08478 9.28267 13
166 1 -14.4481 -4.63418 6.28444 21
167 1 -1.94199 -10.3325 -13.0017 18
168 1 -8.33071 11.5391 -10.3582 16
169 1 -5.39607 -7.53284 3.83252 21
170 1 1.77958 -16.2596 -5.95089 15
171 1 -5.14127 8.35657 -19.1903 9
172 1 -17.3858 3.32129 10.0795 10
173 1 6.53305 15.1818 -3.7528 16
174 1 -5.52572 0.110792 13.0131 17
175 1 -6.47854 -10.3294 9.01798 13
176 1 -10.4048 4.54736 -5.69109 23
177 1 -5.32981 18.9928 1.22174 9
178 1 0.480133 8.6921 8.44628 20
179 1 9.90587 3.24668 9.14121 18
180 1 -9.85078 14.9363 1.24132 9
181 1 8.65885 -1.38886 -8.18712 20
182 1 -11.0759 9.34663 11.0149 7
183 1 -7.44204 2.02337 -9.25493 19
184 1 13.5674 -6.0557 -1.40799 13
185 1 -8.44809 -3.75421 3.68568 21
186 1 -18.9209 -0.137677 1.47473 13
187 1 -10.6462 -7.66521 3.66215 20
188 1 6.3329 11.7348 10.1689 13
189 1 -12.7555 0.0219922 -5.10876 19
190 1 -4.76439 -16.928 -1.66301 12
191 1 2.27799 -6.72959 -5.03621 20
192 1 -7.93626 11.3081 -0.273353 18
193 1 3.3487 12.411 8.58128 15
194 1 -12.8187 2.4284 -10.3307 17
195 1 -10.9899 9.73794 -8.75974 18
196 1 -12.6413 -0.360003 -8.35728 20
197 1 -10.5642 -1.09273 7.8209 23
198 1 -3.39827 -9.83771 4.01129 21
199 1 -3.65999 -9.93659 7.29849 16
200 1 -14.0059 3.29513 2.10682 19
201 1 13.0943 3.53594 4.68318 19
202 1 3.42814 4.31921 -7.6633 19
203 1 -9.7922 -9.26884 -16.588 6
204 1 1.22314 2.6225 11.017 22
205 1 1.63685 -16.4798 3.26492 13
206 1 -6.33419 10.0109 -12.5568 16
207 1 5.89962 -6.84474 -10.4064 18
208 1 3.30207 4.80557 -10.9725 21
209 1 -0.967064 2.92179 -17.499 18
210 1 -11.997 -7.04107 -5.52117 19
211 1 -7.38732 16.9069 -7.86624 9
212 1 -16.553 -7.98761 7.16314 19
213 1 9.07923 13.1094 -5.85912 13
214 1 -10.2504 1.18465 13.9198 19
215 1 -9.03618 13.1779 -12.3418 7
216 1 2.93675 0.872545 7.44046 17
217 1 -7.15544 -9.31378 -14.0612 15
218 1 -1.82263 18.5404 -9.40229 8
219 1 -1.14465 1.94218 -14.7291 17
220 1 -11.8666 -11.9852 6.67918 23
221 1 -9.71964 4.41818 8.24351 23
222 1 -10.3474 3.82988 11.2972 18
223 1 -0.605552 -10.9557 -5.60162 22
224 1 -5.97769 -14.7089 -11.4464 12
225 1 11.132 -7.33912 -3.65966 20
226 1 11.0819 9.30046 10.1672 12
227 1 1.33352 14.3218 -10.9034 13
228 1 -1.66442 11.0308 -3.86828 19
229 1 -13.7599 1.15415e-04 2.46062 16
230 1 -10.0936 7.22797 0.0420939 21
231 1 3.81598 3.14794 9.38268 19
232 1 0.00548752 -17.5278 -0.167278 12
233 1 8.13709 1.33573 -2.92336 22
234 1 3.56346 6.52076 4.47494 22
235 1 -10.1026 3.79378 4.37609 19
236 1 -17.7037 -5.4372 -3.77753 12
237 1 3.45176 3.40171 -14.2777 20
238 1 0.550509 -2.39022 7.27553 16
239 1 6.81864 11.6468 -11.1836 12
240 1 2.60791 -9.98355 -5.20187 21
241 1 -6.70462 -0.378973 -15.6306 19
242 1 -5.35426 -17.0296 1.83806 16
243 1 5.70899 0.797517 -7.58752 22
244 1 -10.0223 -1.40897 0.597248 19
245 1 1.04454 -16.817 -3.43115 12
246 1 -12.194 -7.22303 -12.3705 9
247 1 2.45973 15.7128 1.07572 17
248 1 -3.0258 -1.14005 -15.2319 20
249 1 0.765376 -1.64262 15.6558 9
250 1 11.7838 1.86581 1.94556 17
251 1 10.7878 -4.11381 -9.05218 20
252 1 -7.6292 -0.891243 -11.2794 19
253 1 -10.6412 -2.54867 -9.60355 16
254 1 -10.7292 -14.501 7.51898 12
255 1 6.2794 -3.15295 7.15834 19
256 1 2.49856 -4.38032 7.00263 19
257 1 -9.11533 -6.05387 -12.9799 17
258 1 -1.18546 6.72991 -15.6698 17
259 1 3.40697 10.4054 -0.943997 18
260 1 -11.0311 -7.37956 0.513828 20
261 1 2.37686 17.2129 -1.44596 16
262 1 -12.7634 -3.43454 11.5433 18
263 1 -15.4984 -6.96742 -6.52856 14
264 1 -8.01289 -10.0073 -9.00214 15
265 1 -4.0361 5.57198 -20.4458 10
266 1 -8.94253 -8.52464 -5.5541 19
267 1 -5.49242 -10.5117 2.11521 21
268 1 8.35997 -2.99645 -13.8376 13
269 1 7.9528 3.27134 -11.5505 13
270 1 8.83772 4.10785 2.22071 21
271 1 -12.1841 -4.14855 8.71517 20
272 1 -5.04697 -11.3633 -1.68693 24
273 1 4.70249 2.87978 15.9724 9
274 1 -8.27742 -15.0059 2.11778 20
275 1 -2.949 -12.9887 -1.10517 20
276 1 -1.49202 19.474 1.46544 9
277 1 4.67002 2.87773 -17.4384 14
278 1 -9.45313 -5.87272 -16.4284 11
279 1 -15.8488 -2.10916 7.5746 20
280 1 4.632 7.30902 13.8665 14
281 1 0.377466 -11.6882 8.82811e-04 20
282 1 -5.52146 -12.8084 -14.1622 9
283 1 -9.32954 8.48153 -11.4304 21
284 1 5.68514 6.09826 2.39465 20
285 1 -5.73331 4.60915 -12.0586 21
286 1 -6.00343 9.36626 -16.8525 11
287 1 10.4599 -10.9511 -3.98847 15
288 1 -6.96654 17.1893 -4.56815 15
289 1 3.22533 12.8729 4.91879 19
290 1 7.60537 0.930563 3.91363 18
291 1 -10.7817 1.10062 2.48116 20
292 1 -6.15123 -7.64244 10.3939 15
293 1 -9.11834 10.0827 1.69679 18
294 1 -0.134493 -4.33731 -11.4109 20
295 1 8.4149 10.5077 -3.23462 18
296 1 5.84322 -14.225 -0.503897 13
297 1 -4.99467 -1.9796 11.2235 20
298 1 -16.5279 -4.73586 1.21119 19
299 1 4.3927 -14.5243 -7.18527 15
300 1 -9.30964 5.95423 16.1516 8
301 1 -16.8182 7.01498 6.35929 12
302 1 -19.4622 -4.16962 6.05493 13
303 1 -14.3403 -7.40833 4.47133 18
304 1 15.2125 -5.58586 -5.83403 10
305 1 -19.2548 -7.57976 6.05709 13
306 1 5.33765 -3.92538 -11.7937 21
307 1 10.922 -10.815 -1.20258 11
308 1 0.201361 17.459 -4.5003 20
309 1 -10.2055 15.1332 -6.15435 11
310 1 5.51911 11.8496 2.94992 17
311 1 -11.1608 -3.82322 2.21647 15
312 1 7.89632 -6.98897 -4.69503 19
313 1 -3.32412 14.6379 2.50142 19
314 1 -7.12159 4.48265 6.20783 19
315 1 2.88654 -9.76145 0.674108 20
316 1 10.0699 -4.73431 6.09072 18
317 1 -1.54253 3.71514 9.31826 20
318 1 -8.18011 -3.78352 -5.77472 17
319 1 0.637093 4.94402 12.6658 22
320 1 -4.1521 9.51994 1.11 21
321 1 8.15213 9.92443 9.73045 16
322 1 -7.1931 14.453 -9.51383 15
323 1 -0.89909 -4.95991 -18.5056 14
324 1 11.6528 -8.53441 -12.4593 10
325 1 -8.27358 1.37369 11.2254 19
326 1 -17.8181 2.94228 1.80796 14
327 1 -9.02379 -11.5889 -6.25425 17
328 1 -7.0256 8.23668 -1.96364 20
329 1 9.12572 -6.72502 2.7588 17
330 1 -16.1502 -9.923 -1.32392 13
331 1 7.7909 -9.24634 4.06773 13
332 1 -14.2653 -6.88852 9.03226 16
333 1 -14.3836 11.4617 1.12003 9
334 1 -3.26172 -4.21701 7.45214 20
335 1 2.50785 -12.9409 -5.38917 20
336 1 -3.08972 -3.39734 -9.24375 21
337 1 5.20812 -2.28233 -15.2073 14
338 1 3.4452 9.92573 2.9267 20
339 1 -9.99287 -1.55737 -5.95204 19
340 1 6.20491 -7.55769 -13.2898 17
341 1 8.77415 0.359383 -13.0643 12
342 1 -1.73249 -16.8529 -7.49707 12
343 1 -16.9267 -6.78415 -0.737992 15
344 1 -8.11278 -9.66677 0.559984 18
345 1 8.61911 6.55325 11.323 13
346 1 11.1362 2.93321 -3.26352 18
347 1 -10.3938 5.86832 -12.7658 21
348 1 0.277211 15.5303 -2.151 20
349 1 -17.1781 -1.37018 -7.94399 13
350 1 -12.7689 3.05784 5.29832 20
351 1 -5.3704 11.7213 -1.32676 18
352 1 -2.47328 6.72351 7.99592 21
353 1 8.29384 7.22608 8.52222 18
354 1 8.4095 1.19359 -6.08717 20
355 1 6.45265 -0.255931 15.9999 8
356 1 10.8905 5.62665 -6.29168 15
357 1 -9.20714 -15.0708 -7.15049 14
358 1 -0.367192 -7.98824 -6.7324 19
359 1 1.15637 9.52648 4.98253 22
360 1 -15.6638 2.80698 -11.8591 12
361 1 4.76777 -7.6901 -3.19597 19
362 1 9.49173 -1.69711 5.12633 18
363 1 -7.07665 -7.88498 -10.8334 20
364 1 -8.13948 -6.5197 2.21198 18
365 1 -12.9318 -0.79099 13.1068 15
366 1 -3.89658 9.68406 -2.30236 21
367 1 -13.0671 -9.40927 -3.76954 19
368 1 6.28499 14.0117 8.54314 12
369 1 -10.3887 1.41376 -7.37722 24
370 1 -2.42597 9.30014 -11.169 19
371 1 1.22054 11.824 6.80956 18
372 1 -13.8461 -7.86595 -0.103429 19
373 1 -2.4096 -9.75666 -7.48967 21
374 1 -17.7989 1.86837 6.91658 13
375 1 -14.671 6.09496 -5.425 20
376 1 12.2656 -8.08108 3.44273 11
377 1 -2.24852 -13.4645 -3.71806 20
378 1 12.0146 10.9036 5.57568 15
379 1 3.78403 9.16339 -15.5676 12
380 1 -14.0984 -0.228786 -13.0643 11
381 1 -4.25294 15.2452 -9.49251 18
382 1 -10.3666 3.78686 -9.33236 18
383 1 -3.15749 -12.8177 1.74307 20
384 1 8.91993 4.78303 7.20557 15
385 1 0.112632 9.65708 -15.3709 16
386 1 -5.03719 -2.00667 7.54065 23
387 1 -15.394 0.829401 -3.52971 21
388 1 -11.1827 1.1359 6.11372 20
389 1 -9.44374 -12.3323 1.62869 18
390 1 5.15037 -8.21766 -6.28316 18
391 1 -17.5002 6.25026 3.35795 10
392 1 -18.7187 -1.05336 6.78146 12
393 1 -15.0692 8.84604 3.97037 12
394 1 -2.29218 -7.30511 5.63532 21
395 1 -9.31549 1.01366 -17.2741 14
396 1 7.7571 -11.8644 -6.06495 12
397 1 -1.77505 -7.28193 -14.4021 15
398 1 -6.29759 -4.1446 8.8609 21
399 1 -6.7696 3.20931 -20.4644 12
400 1 5.97756 -8.16728 0.0906234 19
401 1 -0.144443 12.0002 -7.5323 18
402 1 -12.5681 8.96158 2.61974 17
403 1 -6.32799 -4.1677 16.0084 7
404 1 -12.35 -10.4172 -10.7077 15
405 1 -11.8246 -9.37492 5.39387 20
406 1 9.90708 -8.2424 6.14656 11
407 1 -1.14143 1.38671 -11.2242 21
408 1 10.6069 -10.2848 2.84378 10
409 1 12.8237 7.80274 -4.22572 17
410 1 -5.65792 0.957504 9.59436 21
411 1 1.33879 12.898 -1.35478 20
412 1 11.3327 -2.57958 3.24863 18
413 1 -7.2515 -15.975 -3.73221 14
414 1 -6.71469 -0.935294 17.6854 7
415 1 -7.99631 7.86289 5.76603 16
416 1 -11.947 -9.85298 -7.08542 20
417 1 8.1259 13.2124 -2.17334 12
418 1 0.441535 5.59223 9.66977 20
419 1 -8.04394 1.40333 7.67251 25
420 1 -8.96694 -6.23923 -3.86564 20
421 1 -10.6311 1.32746 9.59023 19
422 1 -1.8764 -13.5216 -13.6519 10
423 1 -9.07358 7.49977 3.34332 19
424 1 -9.50085 -14.4756 -12.2091 11
425 1 0.955864 -6.15372 -16.9425 14
426 1 -12.1098 -10.2926 1.64997 16
427 1 5.34927 0.330182 6.15448 20
428 1 -14.7448 -6.08238 11.8705 10
429 1 -13.0134 8.05736 -10.2331 14
430 1 5.19108 6.39797 -1.00952 21
431 1 -11.7499 -15.1768 -6.16156 11
432 1 -7.65634 16.1129 2.85324 8
433 1 -2.55109 5.56775 -11.1308 19
434 1 -2.00205 8.95542 10.3784 18
435 1 -17.6987 0.829588 -5.15854 14
436 1 -6.8936 18.0637 -1.17686 12
437 1 3.81226 13.4345 -6.12423 19
438 1 -11.7291 -15.4054 -9.24807 11
439 1 3.34423 4.87444 14.3157 20
440 1 -1.09105 -14.8436 -10.2744 14
441 1 -4.05247 1.61528 -16.1256 20
442 1 2.67712 -15.7361 0.334168 14
443 1 -12.2989 5.94857 2.18611 20
444 1 -1.61059 2.99664 12.3248 21
445 1 3.35993 10.5264 -4.25088 22
446 1 0.757235 9.74565 -2.46279 21
447 1 -9.58958 7.30002 -8.09507 19
448 1 -0.50045 3.9669 -9.27289 18
449 1 -0.651372 -7.90196 3.53158 21
450 1 -14.9166 -2.52549 1.30012 19
451 1 2.7698 16.647 4.28488 14
452 1 -11.2868 -1.1515 -14.8098 11
453 1 7.88196 8.46784 -0.0897122 17
454 1 4.78067 16.5874 -6.35183 14
455 1 7.70075 -4.25943 -2.79981 19
456 1 12.6439 3.73333 -1.07254 19
457 1 -2.07154 4.38 -13.6734 18
458 1 -2.83537 -10.0165 0.54641 23
459 1 -6.9868 -12.8983 3.05968 18
460 1 -0.415398 -8.64651 6.86144 17
461 1 -9.14649 3.28986 -11.9009 20
462 1 -17.3382 -7.76058 9.90427 8
463 1 -3.05433 -12.6654 -10.6425 19
464 1 9.69189 12.2532 0.698556 14
465 1 -4.3202 6.93485 -13.8587 21
466 1 0.908672 -3.4325 13.2984 15
467 1 -18.3841 -2.64981 9.26822 11
468 1 -4.89648 -14.3868 3.74067 20
469 1 -12.5162 -3.27769 -0.374639 18
470 1 11.8857 -1.51759 -9.02507 15
471 1 16.2547 -0.270266 -1.77447 7
472 1 -5.43378 7.33335 -7.44745 19
473 1 2.57157 -6.97095 -7.813 20
474 1 0.698567 4.82447 -12.2835 21
475 1 8.43805 -1.65746 -4.67722 22
476 1 -7.84486 0.585516 14.8755 14
477 1 5.90499 17.2043 4.54036 18
478 1 -3.65303 -4.77141 -16.3308 17
479 1 -4.0265 -4.97997 -19.8284 11
480 1 -9.23945 -3.73589 6.8343 22
481 1 -3.32087 13.3725 -0.615387 21
482 1 -5.28997 -1.00256 -13.075 16
483 1 -16.1384 0.547277 1.08725 22
484 1 -4.8268 -11.7727 -8.17634 18
485 1 -11.8456 -9.24967 8.73219 18
486 1 -0.905867 8.8149 -8.40875 18
487 1 13.8265 1.45446 6.74856 15
488 1 8.18156 4.09719 -4.67901 21
489 1 -12.4577 -12.481 -4.9785 18
490 1 -2.74031 -9.94197 -2.81835 23
491 1 -7.66029 -5.44691 -19.1029 10
492 1 -8.2013 7.09792 8.38887 20
493 1 -0.484053 -1.76507 -12.9898 19
494 1 11.0623 -2.64145 -0.0829593 20
495 1 0.686575 19.1413 -7.93731 11
496 1 2.19845 -7.04907 2.14397 20
497 1 13.5667 5.38941 -6.90025 9
498 1 1.81555 8.09767 11.8372 17
499 1 -10.7974 -1.23823 11.2781 19
500 1 6.85876 13.9884 4.77041 20
501 1 6.43791 -1.00684 12.5092 18
502 1 -3.68505 2.46951 -19.2414 15
503 1 -8.01296 -7.31904 -7.36573 15
504 1 -0.164376 -6.02647 12.1127 14
505 1 11.9579 14.4608 4.72179 9
506 1 3.15484 12.6847 -13.0618 11
507 1 -9.83475 12.864 -3.49251 20
508 1 -1.26794 14.2136 -5.54016 18
509 1 7.97525 -6.31907 7.62545 17
510 1 6.5415 4.09215 -14.4977 12
511 1 15.01 -9.14865 -6.19303 7
512 1 12.4306 12.7589 8.03442 11
513 1 -18.2563 -1.73306 -0.961375 12
514 1 -8.90329 8.106 -17.7736 9
515 1 -2.9651 0.991989 7.67292 21
516 1 -13.9255 3.41378 10.593 14
517 1 -5.49658 12.999 -14.1398 10
518 1 -0.399024 -11.175 -3.08668 18
519 1 2.25508 -0.791987 -11.1594 19
520 1 2.87309 20.5455 -2.47919 8
521 1 -11.5095 -4.26838 -12.7644 11
522 1 -0.232153 -11.2146 5.48324 16
523 1 -13.5957 -2.46461 -3.10356 18
524 1 -0.14772 12.5439 -11.9384 18
525 1 -5.57163 5.88701 12.6226 23
526 1 -11.2451 -6.62511 7.24797 21
527 1 8.42909 7.34335 -5.89783 18
528 1 1.07179 -13.261 -7.55164 20
529 1 2.55371 -9.79681 7.13745 9
530 1 -12.7992 8.57946 -0.075697 21
531 1 3.49616 5.32263 11.1449 19
532 1 -1.72724 16.724 -6.77343 15
533 1 10.5336 -2.54272 -2.8251 21
534 1 -0.97902 8.05242 13.2332 15
535 1 -6.92921 2.64005 -16.9136 19
536 1 -12.8839 -12.4187 9.3732 11
537 1 -3.70468 2.25616 -13.4007 19
538 1 2.07497 4.83671 -18.174 14
539 1 -1.9098 17.4863 4.96227 9
540 1 4.99292 8.27895 -10.6463 21
541 1 -6.40615 -6.64129 -15.7897 14
542 1 -6.68904 -11.2494 -4.22282 21
543 1 -13.3031 -7.70458 -8.67774 13
544 1 8.14842 4.67817 -1.17635 23
545 1 14.9632 6.42064 -1.68528 13
546 1 12.4223 -4.78448 -4.09961 19
547 1 13.362 9.27969 7.6698 11
548 1 6.64349 -9.22374 -8.37293 16
549 1 -0.875385 1.11103 -20.3392 10
550 1 5.10614 15.261 -0.786858 20
551 1 -10.1825 4.27911 1.21715 17
552 1 9.55861 14.1934 6.86913 16
553 1 10.9278 5.85176 -3.32463 21
554 1 11.1888 0.734672 5.02024 18
555 1 5.51982 6.50523 -7.46207 18
556 1 6.49408 5.14616 12.7337 16
557 1 13.4337 4.13407 7.92822 13
558 1 -1.15024 -6.27559 8.43474 18
559 1 8.56388 9.97171 -6.00933 17
560 1 -2.47536 6.2023 11.1061 23
561 1 10.5968 1.33117 -10.5541 11
562 1 6.94156 -2.17498 9.97407 16
563 1 -10.1208 0.499778 -10.6591 20
564 1 15.6909 3.10524 -2.00468 11
565 1 12.7993 -4.9443 3.79459 12
566 1 -13.7242 9.06221 6.47278 13
567 1 9.44403 16.3242 4.52641 15
568 1 9.1288 -0.342929 10.4706 16
569 1 0.528522 6.12957 6.16738 21
570 1 4.1506 15.2065 6.66943 15
571 1 5.24157 2.96683 3.82425 22
572 1 -2.84515 -15.995 0.127256 15
573 1 -7.88094 14.2602 -4.99793 25
574 1 7.23201 9.12704 -8.59821 22
575 1 6.43322 -1.08237 -12.1637 17
576 1 0.938358 20.8078 -4.88349 9
577 1 -4.21299 -15.239 -8.83316 17
578 1 12.3367 -6.47643 -10.1561 15
579 1 -14.227 6.11124 5.95771 19
580 1 -7.75874 5.4166 -15.3881 21
581 1 -9.44167 -15.4027 -0.716463 14
582 1 -9.01446 0.213498 -14.1981 19
583 1 -16.7911 3.41709 -6.17513 13
584 1 8.63734 -3.70436 0.680484 20
585 1 14.8868 9.65417 -2.09135 9
586 1 -2.1573 -9.09851 9.82308 11
587 1 -15.4113 -4.41515 -8.65511 12
588 1 -0.447601 -1.65321 -18.0586 15
589 1 -4.86021 -2.62088 14.2849 15
590 1 3.34036 16.1398 -9.66374 9
591 1 8.84753 0.224011 13.2833 14
592 1 8.79365 7.31681 -2.656 18
593 1 9.75804 8.34761 5.41299 19
594 1 9.47404 -10.5396 -7.68646 15
595 1 -15.7421 -2.29841 11.6743 13
596 1 9.55711 -0.682978 1.08022 21
597 1 -3.31021 11.3047 11.7532 11
598 1 0.710482 17.8442 -11.3737 10
599 1 -12.4058 6.36302 -7.75633 21
600 1 8.52271 17.2556 -1.70539 8
601 1 -11.6584 -13.9164 -1.87919 11
602 1 12.7518 -1.66897 5.94351 16
603 1 7.64469 16.4813 1.83676 19
604 1 -5.42906 5.93374 9.67462 20
605 1 -16.2367 -3.42343 -1.46945 16
606 1 -5.4439 -11.0732 -11.4843 20
607 1 5.75127 0.215405 9.33882 21
608 1 -9.29327 -8.82892 10.8046 12
609 1 3.98034 1.76798 12.4715 19
610 1 -7.14965 10.9384 -3.31606 21
611 1 10.3678 6.10963 -0.207004 21
612 1 4.92837 3.42567 0.554767 22
613 1 1.09155 3.68647 -15.5036 21
614 1 -14.4447 1.45081 7.47461 17
615 1 5.48617 -1.75326 -9.64219 23
616 1 12.333 -5.60582 -6.99762 22
617 1 6.37448 4.94668 9.37666 22
618 1 -15.07 1.00484 11.5146 15
619 1 11.5142 6.57561 8.09262 17
620 1 -2.08337 -1.74595 12.0145 20
621 1 -1.83235 2.96745 15.9533 16
622 1 -3.56894 -3.6043 -13.0481 18
623 1 -7.50841 3.90125 9.82241 22
624 1 6.83528 2.13264 11.1778 22
625 1 -12.9449 -12.3951 3.60142 18
626 1 15.9933 6.37696 -4.28349 9
627 1 6.0456 -10.525 -3.9398 19
628 1 4.86598 12.557 -2.58954 18
629 1 4.81235 15.1336 2.71729 22
630 1 1.62604 2.27737 -18.8082 11
631 1 1.29525 15.356 -6.5934 18
632 1 7.60866 10.8186 5.36018 14
633 1 -10.5202 -10.7744 -3.92752 22
634 1 -5.78358 -3.1053 -20.8278 9
635 1 -9.52637 16.1886 -2.67168 13
636 1 7.62812 -4.30721 -9.83889 15
637 1 4.39227 10.0997 -13.1696 15
638 1 11.4567 9.97218 -6.3228 11
639 1 -10.3687 4.77559 -1.99976 20
640 1 2.98523 7.66639 -6.06457 23
641 1 11.5957 1.44803 12.2147 12
642 1 7.24679 2.56684 14.6979 13
643 1 -9.67527 -11.856 9.44725 16
644 1 -12.1082 8.64284 -12.7549 12
645 1 0.644662 14.9443 5.60435 14
646 1 9.16992 -6.03085 -13.2054 12
647 1 0.373653 0.122898 9.38968 22
648 1 4.58438 19.9908 -4.82226 9
649 1 9.3463 13.6487 3.29542 19
650 1 14.8509 -2.54485 -4.11844 12
651 1 7.08293 10.0577 13.0364 5
652 1 -11.5978 -5.06219 4.93674 21
653 1 0.268153 -14.5539 -1.93853 16
654 1 -4.92509 0.794634 -10.2068 20
655 1 -11.3714 13.8943 -1.00145 14
656 1 6.67891 13.2312 -0.279027 15
657 1 -18.7804 -3.09964 1.48215 13
658 1 -4.24698 0.947861 16.9885 11
659 1 -6.64911 5.60601 -18.4589 16
660 1 -10.5729 6.83084 -15.3582 15
661 1 2.68343 -11.1513 -2.39028 18
662 1 3.11572 10.563 -7.48635 21
663 1 -12.9724 2.57904 13.7155 9
664 1 5.39146 0.748799 -14.3526 15
665 1 1.77435 -9.94167 3.98108 19
666 1 2.7387 15.4249 -3.76097 22
667 1 -2.04333 -3.7514 14.4474 11
668 1 -10.4229 -8.9538 -9.79036 15
669 1 -9.97358 -8.91118 -12.9728 15
670 1 -12.7632 -13.9178 -12.0406 8
671 1 -3.47658 18.745 -1.01195 14
672 1 4.90165 -4.90866 -8.61285 19
673 1 -1.2263 10.1699 2.79636 21
674 1 8.48777 -9.09219 -13.0199 10
675 1 5.40725 -13.4849 -3.94717 15
676 1 1.6762 -7.34527 5.89783 21
677 1 11.8127 2.62271 -7.49703 14
678 1 -0.658743 -14.5227 -5.4218 17
679 1 -17.3966 -2.16449 4.2626 18
680 1 -5.74284 -14.0141 -3.21886 22
681 1 -9.18124 -13.8354 -3.65447 19
682 1 -13.5933 -1.16055 5.56148 17
683 1 -8.34311 -18.0233 1.61428 10
684 1 10.2215 2.82114 -0.160429 18
685 1 -1.94174 16.5811 -0.0229855 18
686 1 -14.8438 1.4648 4.50446 18
687 1 7.33697 -1.48989 2.48213 19
688 1 -13.7275 -2.93089 -10.7941 11
689 1 0.571702 6.83372 -7.2945 22
690 1 4.26047 1.32814 -11.2873 18
691 1 7.5739 16.4144 6.97252 11
692 1 5.89983 6.30823 -4.36272 21
693 1 -17.4614 2.32162 -8.95359 9
694 1 -17.7081 -4.19587 -6.86224 13
695 1 -5.25915 3.78302 17.8577 8
696 1 2.40226 8.11581 -11.9387 16
697 1 12.5727 11.575 -0.61587 10
698 1 -2.27904 -1.82667 8.97233 21
699 1 -6.65974 -16.6288 -6.67574 14
700 1 -14.1581 -10.3174 6.82549 19
701 1 -4.54687 -6.85818 8.42189 21
702 1 9.36558 12.8267 9.44374 13
703 1 0.836751 -9.02801 -12.6961 19
704 1 -7.83884 8.29383 -5.60491 19
705 1 9.16681 7.24618 2.5079 19
706 1 -14.76 -3.19773 4.16415 17
707 1 4.42251 5.77065 -16.6832 14
708 1 2.43921 -15.6617 -9.24598 11
709 1 -2.01649 -16.0199 3.05022 18
710 1 -4.32485 -19.2267 -5.44335 5
711 1 5.96913 3.57168 -9.32916 17
712 1 6.40604 11.8795 -7.68923 18
713 1 -6.25104 0.225424 -18.796 14
714 1 0.274872 0.104055 13.0292 17
715 1 -3.23199 10.4061 -16.5727 10
716 1 -12.0312 0.985277 -15.5026 11
717 1 -14.9974 -1.65405 -6.13286 18
718 1 -0.947856 19.1416 -2.1203 13
719 1 -4.36426 -5.65878 -10.9756 19
720 1 -8.12769 -6.45834 -0.972265 22
721 1 9.38103 3.54674 -8.27619 19
722 1 8.4526 -8.67158 0.81497 16
723 1 -5.8505 5.76504 15.1402 16
724 1 9.52505 -5.80498 -1.58141 19
725 1 14.2124 -3.64158 1.13482 12
726 1 9.2141 -3.96497 11.3721 10
727 1 -6.29803 13.3879 1.48109 20
728 1 -14.5105 6.29124 9.26487 13
729 1 -10.5464 3.9854 15.1835 13
730 1 -7.78685 -12.4479 7.12519 15
731 1 7.4813 2.02278 0.747841 20
732 1 0.471382 11.2036 10.8013 11
733 1 -18.2026 1.44224 -1.81728 14
734 1 7.19383 -5.92379 -7.40642 19
735 1 -12.8715 11.7886 -5.34321 15
736 1 -0.248477 -14.8556 5.2936 11
737 1 2.93422 -0.412475 10.9226 20
738 1 1.10517 12.2382 3.00653 17
739 1 -1.19706 -10.9995 2.80793 20
740 1 -11.5002 -4.1853 -3.94473 20
741 1 -2.72446 0.937086 10.7462 22
742 1 -18.2114 -2.11369 -4.40953 12
743 1 0.0310166 7.99736 17.9564 8
744 1 -1.06177 13.3947 0.912697 21
745 1 -14.5052 -12.257 -2.97077 10
746 1 -9.73078 -16.4965 4.75473 14
747 1 5.82276 -8.708 6.15571 10
748 1 10.9486 -5.72417 9.01161 11
749 1 3.81649 9.70092 6.06595 17
750 1 -2.89478 -9.15045 -11.0309 17
751 1 -6.66588 1.93231 -13.8793 22
752 1 -7.63982 -1.21146 8.80909 24
753 1 -0.393458 16.252 3.09187 15
754 1 14.419 0.369033 3.51829 13
755 1 -1.83037 11.8452 -9.97883 16
756 1 -7.0191 8.27509 14.6722 10
757 1 5.30532 7.66589 10.2027 22
758 1 7.48653 -5.99581 -15.3778 10
759 1 -11.3841 -10.4195 -0.892771 18
760 1 11.7603 -0.242149 8.9002 14
761 1 1.65463 1.12675 -13.2437 21
762 1 -2.96148 5.88313 17.7038 12
763 1 12.118 -9.82835 -8.99395 16
764 1 2.58999 11.6699 -16.3422 10
765 1 -5.6182 -8.24035 -5.85852 19
766 1 5.68441 6.46775 -13.259 18
767 1 13.1389 -0.325934 0.246429 18
768 1 -2.68996 -4.49108 10.7896 18
769 1 -3.69569 -11.4756 -5.13047 21
770 1 2.62972 18.1096 -5.73294 16
771 1 -16.4941 3.80815 4.54587 18
772 1 6.31253 3.19539 -6.51324 20
773 1 10.9396 5.43034 4.28755 20
774 1 1.00153 -5.95103 -13.5166 19
775 1 -11.575 10.7081 4.84223 8
776 1 13.5562 7.66809 0.687964 14
777 1 8.99462 11.7071 -8.73594 14
778 1 2.11107 6.56441 -14.6146 23
779 1 5.5991 -5.15086 -4.78838 20
780 1 -13.2207 5.07474 -0.869743 21
781 1 6.22666 8.38638 4.45786 18
782 1 -19.0738 -6.70555 2.01793 11
783 1 -11.79 12.4776 -7.54438 12
784 1 6.54701 2.84564 7.29709 21
785 1 -11.8109 -3.80884 -6.95619 15
786 1 -15.9927 4.12343 7.32217 19
787 1 -5.23072 4.39477 -8.72352 21
788 1 9.423 -7.20216 -9.60791 21
789 1 -14.8904 -10.3186 -5.88319 13
790 1 13.7728 -2.71962 -1.34023 15
791 1 -12.3703 2.71935 -2.93254 24
792 1 -11.0368 -7.80907 -2.40913 22
793 1 14.2174 6.85159 5.81364 13
794 1 -8.34763 -6.88413 5.80256 22
795 1 9.79109 3.71168 12.7561 14
796 1 13.1063 -4.4156 7.44617 11
797 1 4.90581 -2.98638 3.83025 19
798 1 -11.041 1.64837 -0.800059 20
799 1 -1.57601 9.72149 6.8152 18
800 1 -0.957031 7.84862 -12.9622 19
801 1 -2.04879 -7.20706 -17.2185 11
802 1 -3.81242 11.0815 8.28499 12
803 1 -17.5046 -10.7007 7.59723 10
804 1 7.16051 14.9136 -7.24666 12
805 1 -2.72547 5.482 14.417 22
806 1 11.4338 -2.26562 -6.20871 23
807 1 4.70352 -5.76332 8.59306 17
808 1 -6.11265 15.5221 -12.7265 10
809 1 3.06103 11.4129 -10.2083 18
810 1 -7.98371 -0.950991 5.90216 20
811 1 16.2479 3.18485 4.98587 7
812 1 -4.69112 -7.69119 -12.843 17
813 1 11.4224 9.73739 -2.53879 16
814 1 -12.7085 3.06668 -5.81889 20
815 1 -5.52875 -11.4712 5.66624 19
816 1 -0.741615 16.7554 -14.6611 7
817 1 3.46265 -2.06509 8.58591 20
818 1 -3.86616 -16.4493 -4.63731 17
819 1 -11.2473 11.6907 1.13639 19
820 1 -15.2825 6.85963 -2.22468 14
821 1 7.59981 0.870524 -10.1149 22
822 1 4.71955 -11.5194 -7.41101 18
823 1 -15.0407 6.61349 1.15894 16
824 1 7.78113 8.88013 -11.7658 11
825 1 -10.6149 -1.81376 4.67248 20
826 1 1.81939 -3.33227 -16.1872 16
827 1 -8.00405 -11.9793 -12.4835 14
828 1 -2.294 -13.3789 -7.32698 23
829 1 -7.47463 10.2252 6.91102 8
830 1 8.69699 -9.11537 -2.36703 17
831 1 -2.39427 14.2112 -13.0356 20
832 1 13.983 1.44726 -2.94533 15
833 1 5.35519 9.03128 1.17155 18
834 1 -2.01641 -18.6644 -2.57111 9
835 1 4.0978 -5.70943 -14.7198 18
836 1 7.65377 -1.38308 -1.38603 23
837 1 -4.84521 4.32368 -15.0342 18
838 1 -5.76716 -8.63475 6.55673 22
839 1 5.60826 9.20173 -5.75497 20
840 1 1.64003 1.73444 -9.43473 17
841 1 -12.1581 6.06842 -3.93965 20
842 1 -12.4738 3.59114 8.27264 23
843 1 3.70278 6.74404 16.875 8
844 1 -9.35972 -9.47552 6.98702 22
845 1 6.24348 5.40267 5.71033 18
846 1 -5.82046 -13.9739 0.386606 20
847 1 0.159319 9.8847 -5.59186 23
848 1 -7.92429 3.04159 13.2443 21
849 1 -4.72675 3.67296 11.3613 22
850 1 -11.3346 6.40612 6.01106 22
851 1 5.53633 3.98056 -2.88134 20
852 1 -8.31877 -6.62238 8.65953 19
853 1 1.81656 -13.0319 3.2749 16
854 1 10.0881 9.89642 7.59804 18
855 1 9.7356 -4.34995 -5.70249 20
856 1 6.69275 -12.7103 -9.24511 11
857 1 -6.89878 -3.77151 -16.4725 14
858 1 -2.25633 -2.45903 -20.3169 11
859 1 8.67052 19.0204 2.77741 8
860 1 -15.115 -3.8338 9.48808 20
861 1 -8.57712 13.0487 -7.58689 16
862 1 -14.8817 4.92203 -8.45444 17
863 1 11.0541 9.19847 0.994087 21
864 1 -11.7251 -14.9517 2.02717 14
865 1 -1.3778 7.37669 4.31448 20
866 1 11.9192 11.9981 2.71925 14
867 1 -13.1533 -12.4787 -7.91657 13
868 1 -0.724139 12.765 8.45846 13
869 1 -7.66458 -2.57326 12.3117 17
870 1 -6.56485 -13.7715 -6.19414 20