ITEM: TIMESTEP
5000
ITEM: NUMBER OF ATOMS
2000
ITEM: BOX BOUNDS pp pp pp
-30.0 30.0
-30.0 30.0
-30.0 30.0
ITEM: ATOMS id type x y z Coordination
1 1 -10.8941 4.14996 -11.0252 16
2 1 -4.95465 -11.0477 -6.57634 20
3 1 1.42018 14.8738 12.0724 12
4 1 4.75616 -8.78185 6.39765 16
5 1 -11.0898 8.79115 -0.187689 21
6 1 11.6211 -7.43051 -9.42911 7
7 1 -16.2848 4.08576 -4.18759 12
8 1 1.21615 -0.54051 10.9163 18
9 1 -8.61315 -1.36404 -10.3833 20
10 1 -14.2071 -9.55293 5.03909 18
11 1 14.1002 4.70788 -8.31958 17
12 1 -5.37784 -10.6724 2.19281 22
13 1 -16.3944 -8.14326 6.35496 10
14 1 -1.22607 4.24604 17.2987 12
15 1 -1.20331 6.16926 8.73867 21
16 1 -2.75213 12.3461 -8.54524 17
17 1 4.01281 5.51311 16.8659 16
18 1 -10.6157 -3.71827 -13.8159 10
19 1 -16.0384 -3.28747 12.4153 11
20 1 12.5003 4.50371 5.1415 21
21 1 -1.32435 11.5078 -11.7664 16
22 1 3.55651 7.97574 -12.2783 15
23 1 12.7078 5.42541 12.5572 15
24 1 -14.3505 4.38839 -6.82515 13
25 1 -4.49108 -3.22852 -5.21688 20
26 1 -12.061 7.14792 11.0543 13
27 1 5.46662 -11.9078 6.71645 10
28 1 2.00551 -12.9334 -10.1077 15
29 1 9.41851 -9.10287 1.21509 13
30 1 -8.55228 -11.1461 -5.0137 13
31 1 -14.7017 -8.02396 11.4991 8
32 1 -0.120248 -7.225 -8.20977 22
33 1 7.72592 -9.84811 -8.79393 17
34 1 -4.57342 5.28306 -13.7082 12
35 1 6.20979 7.71709 15.9529 19
36 1 -1.50807 -12.133 6.815 23
37 1 3.65004 -3.06508 13.6547 16
38 1 -14.6709 1.4565 3.01947 19
39 1 -16.5751 4.83169 6.8697 14
40 1 -11.3367 3.24826 -0.221481 21
41 1 -6.14862 16.4306 3.01612 17
42 1 -1.17773 -13.854 -9.87038 14
43 1 -0.227835 3.0293 -10.152 20
44 1 4.41772 -1.81106 -7.79134 21
45 1 -1.73132 -3.21125 15.9607 15
46 1 -12.1177 10.3455 2.22663 19
47 1 2.49062 13.4974 -7.1154 17
48 1 -0.0725465 17.3411 7.09646 10
49 1 -12.0895 5.67178 -5.34689 18
50 1 -4.33546 17.4748 0.782872 14
51 1 1.98734 -10.7833 1.36777 17
52 1 6.60017 -5.71512 -2.51898 20
53 1 7.77035 -6.03743 -13.9497 12
54 1 -10.9056 4.6675 13.4685 17
55 1 -13.3272 -2.76742 -6.78592 21
56 1 6.93511 -1.07853 6.03313 20
57 1 -11.257 12.6421 -3.73544 16
58 1 -8.34885 -8.20629 5.77639 17
59 1 -8.19829 17.9276 9.37971 5
60 1 -13.8574 8.06355 -7.19088 9
61 1 -6.11885 10.5236 14.792 12
62 1 -9.80603 -11.2655 5.6599 18
63 1 2.06123 6.26156 8.36065 22
64 1 6.48125 -12.9664 -5.25277 16
65 1 5.43445 14.1115 13.314 10
66 1 -13.0476 2.22353 -9.26563 15
67 1 -12.1451 6.63612 -8.43272 14
68 1 3.0671 10.4752 11.2138 17
69 1 13.3948 -1.32913 -9.51725 13
70 1 5.09218 -10.4349 3.99152 18
71 1 -18.1046 -0.621815 6.16518 11
72 1 6.37503 19.8183 6.2206 8
73 1 1.15597 -1.12464 16.5724 16
74 1 -15.2131 -12.6049 5.84732 9
75 1 -12.8867 0.113909 0.022124 19
76 1 9.92056 4.29104 7.14935 18
77 1 -9.29695 14.8749 10.35 10
78 1 5.01206 -1.27425 8.74764 21
79 1 -3.42646 -7.93367 -7.65688 19
80 1 -13.2485 5.11531 12.8945 13
81 1 -10.1586 11.8076 -0.0979998 17
82 1 -0.986553 6.9929 -7.78124 18
83 1 7.49974 -0.193795 -5.11081 19
84 1 9.10402 12.0244 -10.0002 11
85 1 9.53723 -2.97434 6.13104 16
86 1 1.54835 -10.6922 10.0582 14
87 1 -8.57905 15.2344 -5.13546 16
88 1 -9.87262 8.87203 10.2191 16
89 1 -9.07862 -4.64442 17.3385 7
90 1 -4.58689 8.64071 5.53875 23
91 1 -6.61165 -5.00297 10.2247 19
92 1 12.0674 -5.854 -5.25133 14
93 1 -9.45151 3.80219 7.9503 20
94 1 -13.0706 -12.7993 3.83959 13
95 1 8.91219 -5.1103 -4.06011 16
96 1 4.07646 0.148914 -10.641 18
97 1 -7.76465 -0.135402 -12.6409 19
98 1 -1.04646 12.8393 2.13421 18
99 1 -12.6692 8.72024 -3.40838 18
100 1 1.16346 10.3571 15.9466 15
101 1 -3.4344 15.2824 -4.3386 18
102 1 -14.9551 12.2337 3.27611 9
103 1 0.996228 11.1257 0.396456 21
104 1 -6.02907 -5.60694 6.62136 17
105 1 13.5128 2.27768 10.7137 13
106 1 -0.954383 -4.36829 -7.87415 19
107 1 0.429625 -3.4407 -10.723 22
108 1 -4.44891 6.43454 7.78184 19
109 1 0.275709 -2.10177 18.9513 5
110 1 -12.9092 -6.11827 -0.458414 19
111 1 -8.84133 -6.45224 -5.33054 20
112 1 7.50474 -7.91101 3.54816 20
113 1 -2.50094 9.592 2.95225 21
114 1 10.228 5.33601 -17.6294 4
115 1 5.41714 18.9113 -1.05845 7
116 1 -11.54 -11.818 11.069 12
117 1 -8.51664 -13.1752 9.97701 9
118 1 5.36802 -8.90433 -14.1841 11
119 1 4.23033 6.32285 -4.74716 18
120 1 7.60116 -6.23629 1.00054 22
121 1 -7.03387 -17.0166 6.07302 11
122 1 -14.9567 -8.65234 0.337608 15
123 1 17.5707 10.0747 9.9046 9
124 1 14.5598 -0.945955 -6.42953 12
125 1 -18.7135 -3.0651 4.42839 9
126 1 10.7316 10.0357 8.834 20
127 1 15.5117 12.112 4.07384 12
128 1 -2.82711 0.186914 16.4241 15
129 1 -6.65581 10.125 11.5332 18
130 1 -5.82818 15.4374 -2.20579 21
131 1 -3.1065 -6.00834 -9.76918 19
132 1 9.60266 -13.1901 -6.54282 9
133 1 -0.979807 14.6735 -10.8774 11
134 1 3.86161 -3.28968 16.6744 9
135 1 0.552618 3.56274 -15.4518 13
136 1 -2.30759 9.56843 -2.80064 21
137 1 10.8745 2.79116 -2.13978 17
138 1 -15.2734 6.57821 -2.57003 14
139 1 -10.6274 15.0016 0.530621 16
140 1 10.8407 0.649024 -7.17093 17
141 1 5.58733 -6.11326 7.49744 18
142 1 -7.23581 2.62341 -4.96139 23
143 1 -10.2575 11.6963 10.6946 11
144 1 13.466 12.849 -6.23917 12
145 1 6.07091 12.7531 -1.42451 19
146 1 -7.20952 16.9548 5.76068 8
147 1 11.0057 10.5816 0.555248 19
148 1 -2.58461 14.6211 -0.854173 21
149 1 0.273677 16.1854 -8.00182 10
150 1 0.962533 6.86365 -14.1599 12
151 1 -14.1571 -5.44181 2.67619 16
152 1 -17.0877 9.61618 2.36125 10
153 1 -7.72559 -2.89094 -13.2957 15
154 1 1.63236 -8.63784 -13.9734 11
155 1 9.02684 12.7394 7.7087 18
156 1 2.64592 18.0077 3.36746 12
157 1 -12.7689 -0.623205 -4.40149 20
158 1 -13.003 13.2912 1.34488 13
159 1 16.4723 0.986283 -0.527463 11
160 1 -9.96943 3.21416 -13.263 12
161 1 6.26438 5.80794 18.9705 17
162 1 5.42651 16.4988 5.98853 21
163 1 2.00815 12.1363 8.74685 19
164 1 4.50843 -6.56977 -13.3565 14
165 1 -5.28427 10.4482 8.39002 18
166 1 -2.99636 12.3078 -2.66899 19
167 1 1.57113 1.15774 13.6167 19
168 1 -13.1377 -4.961 5.44179 19
169 1 -2.49028 -11.505 -10.9512 16
170 1 -10.4372 12.1755 -6.24801 12
171 1 -5.05558 -8.09588 4.84428 22
172 1 4.61954 -13.8808 -7.26288 19
173 1 -1.30712 12.4127 -5.12601 17
174 1 -13.8213 0.708866 9.45766 19
175 1 11.3027 11.3397 -4.82886 20
176 1 -6.96273 4.82695 17.1321 13
177 1 -2.0885 -8.77856 11.6513 11
178 1 -12.5368 5.65781 0.211645 19
179 1 -2.79893 16.5475 5.01706 12
180 1 0.198996 9.20548 8.8875 22
181 1 13.3339 7.55184 14.7371 12
182 1 -8.5289 14.4218 5.0308 14
183 1 13.4453 -3.70168 -7.6878 11
184 1 -6.17444 15.0615 10.3479 12
185 1 -6.30111 4.30849 -7.44144 22
186 1 13.6715 -6.82395 3.28583 9
187 1 -9.97775 -5.2669 5.2863 17
188 1 -17.8104 2.61182 4.78536 14
189 1 -12.4845 -7.82831 3.07845 19
190 1 8.82701 7.26443 16.1429 21
191 1 -16.1117 4.22444 -1.17187 13
192 1 -3.1114 -12.8838 0.509559 23
193 1 4.82887 -8.16664 -2.01387 19
194 1 -2.95851 11.0197 6.13246 21
195 1 4.69816 15.0137 10.7114 14
196 1 -9.1983 0.0317738 -5.25375 18
197 1 -8.68835 13.3702 -7.61192 11
198 1 -18.9495 -2.25862 -3.94957 8
199 1 -7.98838 -1.82376 10.1659 18
200 1 -1.47823 -9.2594 5.15459 19
201 1 1.87168 -11.9857 6.93429 16
202 1 -12.0627 11.9595 5.12009 11
203 1 15.6733 5.27613 3.0426 14
204 1 5.48915 2.88654 -5.05484 23
205 1 -8.14707 -8.37699 -12.8284 10
206 1 3.76711 0.957749 10.6903 21
207 1 4.59585 -12.9498 4.75017 14
208 1 -4.59823 10.6593 -11.7325 14
209 1 3.6404 -10.6717 -12.0243 15
210 1 9.42831 3.21028 -11.3934 20
211 1 0.649836 8.59487 -11.3192 18
212 1 -10.9263 -3.61027 -5.23389 20
213 1 -5.62829 16.5126 -5.51197 14
214 1 -11.8654 -8.7948 11.1798 16
215 1 7.98425 19.0828 -3.60837 7
216 1 -8.04534 2.44173 18.6146 9
217 1 -10.4033 17.4717 -2.4116 10
218 1 9.93173 1.90551 9.09554 22
219 1 -5.98324 -5.66341 -12.5227 16
220 1 -4.49459 8.28202 -5.61305 18
221 1 2.81075 2.8319 -12.153 15
222 1 -10.3925 -10.3787 8.65864 17
223 1 -9.20897 5.19711 10.8435 20
224 1 -7.68815 6.96838 12.8248 16
225 1 1.78139 -9.78845 -9.28722 21
226 1 -10.114 -14.3467 -0.818083 11
227 1 6.77231 -11.0567 -1.75856 16
228 1 11.3497 9.78949 13.9689 16
229 1 7.78823 13.6574 -7.16171 16
230 1 -5.3927 9.61609 -3.18232 18
231 1 -9.38584 5.82512 5.22918 21
232 1 -15.8334 11.6714 0.158198 10
233 1 1.94105 7.83801 11.1864 18
234 1 4.23566 -15.9358 2.95393 15
235 1 8.7927 2.26641 0.908031 21
236 1 1.9052 8.28862 5.42593 19
237 1 -11.122 6.36663 7.8144 13
238 1 -17.8432 -5.24456 -1.36508 12
239 1 7.40955 6.11437 -10.3726 14
240 1 3.70923 -1.95325 11.2168 22
241 1 12.417 10.8019 -10.7521 8
242 1 2.21267 -8.22383 -0.561026 22
243 1 -5.61731 -0.36208 -10.5058 22
244 1 -3.4861 -16.7038 5.87482 12
245 1 10.7116 0.619924 -4.18808 17
246 1 -7.94601 1.14094 7.88455 17
247 1 5.14797 -13.6108 -2.88778 11
248 1 -11.9282 -9.25493 -8.642 12
249 1 3.62413 15.5726 -1.36748 18
250 1 -1.27642 -1.1499 -12.7943 19
251 1 3.3561 5.55159 20.4889 8
252 1 16.4567 3.51117 0.905786 13
253 1 10.1811 -4.51706 -7.88436 16
254 1 -9.75531 -3.56494 -7.64663 19
255 1 -12.5684 -1.0534 -9.77869 17
256 1 -7.31205 -10.9209 8.37247 18
257 1 8.82963 3.29611 11.5269 19
258 1 3.58342 -3.59262 8.41606 21
259 1 -7.85375 -10.9826 -10.6295 15
260 1 -0.150918 -8.64219 7.77448 22
261 1 -2.12974 9.44892 -9.48457 18
262 1 4.11818 9.19433 3.02685 18
263 1 -8.25462 -4.73196 2.47638 18
264 1 -1.48673 13.7376 5.47195 18
265 1 -4.55929 -2.57296 10.6077 19
266 1 -15.2793 -5.74632 -7.59854 11
267 1 -6.04455 -7.90085 -9.93753 22
268 1 -3.61921 8.14253 -13.0372 13
269 1 -5.57463 -10.2392 -3.9491 19
270 1 -3.33143 -8.14907 2.28283 24
271 1 6.60835 -5.23306 -10.6163 18
272 1 16.6629 3.60898 -8.34626 8
273 1 13.4169 7.21097 4.69809 18
274 1 -9.88687 -4.78232 10.6633 14
275 1 -7.65607 -9.28268 -0.283853 18
276 1 9.04687 7.85171 19.4174 11
277 1 -7.56364 -14.7742 4.23557 16
278 1 -1.52569 -10.4943 1.96931 21
279 1 -1.15973 19.313 -0.914622 9
280 1 8.46357 0.887691 -13.1857 18
281 1 -4.76114 -1.14482 -13.6768 16
282 1 -12.4421 -8.31277 14.4376 7
283 1 1.35328 9.21703 19.2875 8
284 1 3.08584 -10.7959 -2.12717 21
285 1 -5.15952 -12.7235 -10.4052 13
286 1 -9.63524 4.00293 -7.38124 19
287 1 12.1374 6.89284 7.69927 21
288 1 -8.03207 9.1379 -4.58154 18
289 1 1.60783 5.75941 -10.6443 17
290 1 8.09549 -12.8616 -9.32479 10
291 1 -7.53283 17.643 -3.34151 11
292 1 1.53819 12.85 3.69061 17
293 1 13.5478 1.40567 6.33094 13
294 1 -11.5943 -2.10716 5.10088 20
295 1 -4.08107 -6.44872 11.4945 17
296 1 -7.7655 8.88997 7.67889 20
297 1 3.53386 -3.75399 -10.2212 20
298 1 17.127 13.5799 1.19879 6
299 1 2.66623 -13.4081 2.69854 17
300 1 -2.57962 -3.1947 13.0032 18
301 1 -16.4862 -4.91906 4.87679 15
302 1 -0.407577 -15.6395 -2.50385 12
303 1 -6.02589 6.5594 15.1963 15
304 1 -9.5029 1.7551 16.3995 16
305 1 -16.3725 -0.911659 9.16551 10
306 1 -13.9139 -7.84988 8.44166 17
307 1 12.5018 -2.88757 0.245572 22
308 1 -14.1687 -10.5481 9.04315 12
309 1 9.55076 -2.39729 -5.6255 17
310 1 9.07978 -10.8648 -4.23678 15
311 1 5.27566 14.5354 -3.70141 18
312 1 -12.841 15.1644 -1.72314 10
313 1 8.30236 9.51173 14.0018 18
314 1 -11.4475 0.444536 3.03392 21
315 1 8.33483 -8.63565 -1.74871 19
316 1 -4.67675 14.1249 1.20112 17
317 1 -7.78721 5.60458 7.99982 19
318 1 3.16015 -9.40091 8.49031 15
319 1 11.4366 -4.73622 6.05805 11
320 1 -3.09463 8.68533 8.11783 18
321 1 -8.28605 -4.75289 -3.00051 21
322 1 -4.27504 -0.869344 13.9713 23
323 1 -4.35934 13.6723 4.62398 17
324 1 9.07506 10.535 16.5373 15
325 1 -9.41078 14.4363 -2.25312 20
326 1 3.49042 -3.81291 -15.2215 7
327 1 7.06499 -10.8278 -11.7448 10
328 1 -8.38363 0.187695 13.4405 19
329 1 -15.2487 4.81951 4.37206 16
330 1 -7.65615 -4.32656 -10.0408 22
331 1 -5.44006 9.45311 2.76307 20
332 1 8.1214 -0.851336 8.51679 18
333 1 -16.6665 -7.89413 2.68305 16
334 1 6.41039 -7.74444 10.0913 15
335 1 -9.43136 -9.76861 13.6276 9
336 1 -17.0651 9.62605 5.09154 7
337 1 1.12531 -4.38006 10.6922 21
338 1 1.81762 -12.501 -7.43358 22
339 1 -4.35655 1.11703 -8.03629 20
340 1 10.9023 -1.21647 -12.3242 14
341 1 4.96152 16.4728 1.12443 19
342 1 -10.9274 1.21425 -2.25908 20
343 1 5.30313 -4.89377 -7.99321 19
344 1 11.05 5.06103 -13.0313 11
345 1 -5.84143 -13.4696 -3.95659 15
346 1 -16.3116 -2.49871 -6.30493 13
347 1 -4.50692 -8.80358 -0.710996 22
348 1 11.5891 8.39617 17.1781 11
349 1 8.42906 6.34826 -2.18767 19
350 1 -7.63152 7.23861 -7.53759 23
351 1 8.53256 16.663 2.41409 11
352 1 -16.3062 0.25742 -4.46469 15
353 1 -10.2891 10.274 7.24299 17
354 1 -6.47787 12.809 2.8605 17
355 1 -5.72907 3.45122 8.12161 21
356 1 6.35999 4.65013 15.5352 19
357 1 9.27029 2.93537 -4.93367 19
358 1 3.84634 -0.766429 18.5602 9
359 1 11.6644 3.36001 -6.72084 18
360 1 -8.54909 -11.4139 -1.74683 16
361 1 -0.0898589 -8.5352 -3.24734 21
362 1 0.702859 9.42329 2.84031 20
363 1 -11.5645 1.86904 -4.96537 19
364 1 5.79921 -11.8117 1.64602 17
365 1 12.455 -0.713908 8.99164 10
366 1 -14.2772 -3.40016 -3.60017 17
367 1 -9.99633 -7.63917 0.68755 18
368 1 -10.1008 -6.38763 13.9757 14
369 1 -1.75462 11.5259 -0.414839 21
370 1 -13.583 -8.32712 -2.88627 14
371 1 6.28574 11.9408 15.9013 15
372 1 -11.1793 7.00507 -2.75108 18
373 1 0.125575 13.1084 -8.77187 18
374 1 6.02503 13.7268 6.59453 19
375 1 -16.7319 -7.73732 -2.5518 9
376 1 -1.35928 -10.7777 -7.81032 27
377 1 -15.875 0.972059 6.66663 17
378 1 -14.5236 8.73553 -0.337121 16
379 1 4.03658 -6.72204 5.04493 19
380 1 -5.32211 -12.0241 -1.15743 20
381 1 14.5656 14.1572 10.0053 9
382 1 4.5188 10.4552 -11.0373 14
383 1 -15.5511 3.10163 -9.90257 9
384 1 -2.58829 15.7081 -7.66755 13
385 1 -8.74343 6.09086 -5.2015 20
386 1 -3.64969 -11.4725 3.98801 22
387 1 13.6791 3.76508 7.92131 16
388 1 -0.802967 9.75538 -13.552 10
389 1 -3.5928 1.97066 10.819 20
390 1 -16.6131 3.58026 1.92564 14
391 1 -6.82019 3.6357 11.4158 20
392 1 -6.86576 -11.2442 4.4853 19
393 1 2.33508 -5.14149 -8.3238 21
394 1 -10.7934 2.8021 5.54773 21
395 1 -13.2792 -2.27667 10.1782 18
396 1 -15.1731 7.69672 10.9651 11
397 1 -0.841092 -5.54694 8.25877 19
398 1 -9.84996 -1.53525 -15.4917 9
399 1 6.99331 -6.77404 -7.12975 16
400 1 -2.17119 -8.48864 -10.6908 23
401 1 -2.05448 -4.81526 10.4384 18
402 1 -7.50148 4.15651 -13.0009 16
403 1 5.56629 -17.982 3.83465 7
404 1 1.67784 11.5302 -4.96178 21
405 1 -13.5265 10.3927 11.3471 8
406 1 -7.37191 -5.45092 14.674 12
407 1 -13.0031 -6.71434 -10.4984 10
408 1 -9.46172 -3.26598 7.37854 19
409 1 8.27709 -5.17881 11.6206 12
410 1 0.781532 4.07739 -7.83001 21
411 1 7.64194 -8.20987 6.87166 12
412 1 15.098 10.7135 -6.3277 9
413 1 -6.35982 1.00178 16.8359 18
414 1 0.367329 14.3902 -0.368202 20
415 1 6.42362 -3.76594 9.82365 21
416 1 -3.06972 -12.5744 -4.92016 24
417 1 -4.29405 2.88583 18.0924 10
418 1 -6.76332 13.7903 7.76271 19
419 1 -9.44461 -10.6263 -7.96153 15
420 1 9.93157 13.9893 1.21383 18
421 1 3.09249 9.06271 8.21522 21
422 1 -10.7454 1.71456 13.7844 17
423 1 -7.07224 -7.77628 -2.81212 19
424 1 -11.2633 2.98866 10.6808 19
425 1 -11.9706 -6.16991 -6.47821 22
426 1 -6.05721 6.61284 10.1319 20
427 1 -1.90345 -9.18374 -5.37624 21
428 1 -3.97302 -7.71167 -12.9289 17
429 1 -4.95129 -17.4056 0.0488795 9
430 1 -8.01966 -2.69764 5.09405 19
431 1 8.85466 2.31819 5.51578 17
432 1 -5.61689 -4.19643 13.4235 16
433 1 -6.01239 8.81458 -10.0354 19
434 1 7.16051 4.98484 0.887693 25
435 1 -10.8227 -13.0929 2.3636 14
436 1 1.15092 17.5032 -0.180109 16
437 1 -1.58017 6.44372 -10.6266 16
438 1 -2.6041 7.68442 11.1619 18
439 1 -15.5928 -1.26517 -2.00414 18
440 1 1.33328 18.2566 -3.1489 10
441 1 8.24253 10.4317 -6.37891 21
442 1 -6.11298 -5.61455 -7.73351 22
443 1 1.56737 1.80776 18.9318 7
444 1 2.12358 -15.1185 -8.20255 14
445 1 -2.09795 -1.96121 -9.63172 18
446 1 8.0019 -12.1168 3.52552 9
447 1 -8.34707 10.0969 1.6719 22
448 1 4.0017 9.24239 13.7652 18
449 1 9.32517 7.8628 -0.22606 17
450 1 4.2499 10.7306 0.512424 19
451 1 -10.1299 8.56893 -6.67396 18
452 1 6.5826 2.40556 -11.6529 19
453 1 0.34559 -8.27636 1.96138 21
454 1 -15.6563 -1.73425 1.34439 18
455 1 5.86912 18.7407 3.14883 12
456 1 -6.98033 5.75581 -10.3635 18
457 1 10.9086 8.98869 -2.44847 19
458 1 7.71891 16.3346 -5.97707 12
459 1 8.75021 -5.2179 3.71833 21
460 1 13.9931 6.7331 -2.46495 15
461 1 -2.70649 1.2386 -10.8412 21
462 1 -0.174859 -11.7342 -0.424568 19
463 1 -2.87762 -14.294 8.11326 11
464 1 0.445598 -6.93006 10.5835 20
465 1 -7.21808 1.30839 -7.94015 20
466 1 -12.4741 -11.5339 6.80717 16
467 1 -3.93894 -13.5347 -8.10528 21
468 1 6.92005 15.5165 8.86667 13
469 1 -4.35055 6.44345 -7.9768 21
470 1 3.82868 2.62059 14.3653 17
471 1 -15.4326 2.7058 14.0205 9
472 1 -2.18642 -15.7149 -0.498324 17
473 1 -13.0673 -2.64577 2.48786 19
474 1 13.0569 -0.671704 -1.66055 16
475 1 8.46536 0.57564 -2.2298 20
476 1 -9.49309 10.184 -2.52662 14
477 1 0.63248 -6.20186 -5.38146 24
478 1 2.06533 7.55429 -8.56532 15
479 1 10.7781 -2.70566 -2.40547 21
480 1 -8.79462 -0.989461 17.5049 12
481 1 9.90626 12.4182 -2.15748 22
482 1 -4.91102 -3.01608 -11.3625 19
483 1 6.99124 5.93781 -16.4863 11
484 1 -5.99693 -3.05169 7.83648 18
485 1 -8.18274 17.4658 0.201406 12
486 1 -9.35735 -5.81066 -11.4398 17
487 1 -17.4606 0.100017 2.9118 15
488 1 -1.79552 -9.48047 -13.7689 13
489 1 -8.09879 -9.99388 10.5634 17
490 1 -0.552601 8.56513 -4.81629 19
491 1 15.6642 4.8953 9.55327 8
492 1 16.1447 9.5198 -1.42 12
493 1 -12.01 -10.1838 1.07858 14
494 1 -1.5255 -8.5746 -0.694333 22
495 1 -1.91735 -3.24369 -13.9122 16
496 1 -7.90861 12.5426 12.3882 13
497 1 1.53065 -2.08706 -7.86169 20
498 1 12.2646 -0.634646 2.28974 17
499 1 4.75062 14.9121 -6.98095 16
500 1 5.43976 -5.22552 3.13435 20
501 1 15.3034 7.10176 -7.87544 13
502 1 -0.316036 13.8893 14.9662 9
503 1 -12.6387 -1.49942 7.56365 19
504 1 7.53833 9.57371 8.14852 18
505 1 4.48566 2.73557 18.2903 11
506 1 7.51905 5.23498 -13.0789 16
507 1 -6.06669 -6.3466 -4.84763 19
508 1 -0.115431 2.30621 10.9516 21
509 1 10.7106 10.7253 5.7794 19
510 1 5.88505 8.76226 -4.99347 17
511 1 -7.25816 12.7505 -3.63923 17
512 1 3.48441 12.7099 -1.37385 16
513 1 9.32832 0.63669 13.8588 9
514 1 12.4255 3.78147 -10.8032 17
515 1 10.5195 -7.85673 -2.92496 13
516 1 12.0125 11.5035 11.6681 13
517 1 -18.9696 -6.70463 4.15877 9
518 1 -8.83848 10.3666 -9.19478 14
519 1 -0.176509 4.91209 11.882 18
520 1 -15.2367 -0.203163 12.4147 13
521 1 -4.52376 12.1219 -4.8649 18
522 1 2.64674 -13.527 -4.80271 18
523 1 5.21827 1.53247 -7.62941 17
524 1 -3.5281 17.5583 -2.60277 13
525 1 -10.5615 -9.14139 -11.4518 11
526 1 -0.288906 -14.0866 1.10269 20
527 1 -18.5274 -2.60841 -0.423098 11
528 1 1.49933 11.2206 -10.7796 15
529 1 -3.24412 12.2656 15.1263 11
530 1 -14.4497 -4.99697 10.433 13
531 1 6.05325 8.037 0.276541 22
532 1 1.08827 -9.73793 -6.05461 21
533 1 1.565 -6.09594 13.1568 14
534 1 -10.5504 7.03988 2.27286 20
535 1 5.85613 8.32194 20.0772 10
536 1 5.3101 12.0868 -5.42055 18
537 1 10.0057 -5.59306 -0.92265 20
538 1 5.10679 11.5738 8.54479 21
539 1 3.72237 5.02584 -16.8563 9
540 1 -4.85867 -10.4749 7.29957 18
541 1 -1.20746 1.39183 -8.23806 17
542 1 9.6104 3.59315 -15.2933 14
543 1 2.73133 14.8673 6.42744 19
544 1 9.6569 5.42382 -9.31773 16
545 1 -2.32003 -4.229 -11.3212 21
546 1 -2.70576 -10.6293 -2.49706 21
547 1 -10.6056 -3.92775 -10.0545 16
548 1 9.91203 5.02793 0.469851 18
549 1 13.1146 4.79452 -0.390239 16
550 1 7.66038 -2.97397 -8.55421 17
551 1 14.528 9.93077 12.5055 15
552 1 6.63048 -9.08903 -5.20753 18
553 1 4.24033 6.55446 -14.8577 13
554 1 9.82975 14.3459 4.69664 14
555 1 -9.28999 3.56826 2.04991 22
556 1 8.74006 12.5252 13.6206 12
557 1 12.6655 7.96355 -4.51775 15
558 1 10.6924 2.6428 3.33983 20
559 1 12.0378 6.19011 -7.07622 16
560 1 3.79652 5.95062 13.4058 22
561 1 14.4144 8.17897 9.57893 17
562 1 3.31923 -8.178 11.6351 12
563 1 14.9924 14.7606 -1.18078 9
564 1 0.248843 2.14803 15.6774 17
565 1 16.378 1.52552 -5.29397 12
566 1 7.33327 4.69288 9.43941 18
567 1 -7.00772 -2.0061 -8.10368 17
568 1 12.8127 7.55908 0.043803 15
569 1 10.5084 -2.84872 3.1737 19
570 1 -10.2142 5.1489 16.8996 9
571 1 8.83932 10.0878 11.1846 21
572 1 9.57811 6.78519 12.6963 19
573 1 3.74119 11.1005 5.56709 21
574 1 -2.7584 10.5914 11.3537 19
575 1 6.59104 1.77622 9.70629 19
576 1 -2.08132 -16.3124 2.11602 14
577 1 -7.8697 13.2531 0.250685 19
578 1 10.2824 13.978 -4.98854 16
579 1 7.27552 -0.828016 -10.537 16
580 1 -0.972525 16.1539 -2.61227 17
581 1 -0.793891 -13.7432 -7.1236 21
582 1 9.82475 -4.84665 -11.3311 14
583 1 -13.615 3.1306 7.92577 17
584 1 -5.39222 10.0852 -7.4237 18
585 1 -5.03942 -17.6016 2.90129 11
586 1 -8.02407 2.6815 -10.0825 22
587 1 -14.1005 1.88285 -2.38902 19
588 1 10.3321 -7.57303 5.69188 11
589 1 13.5371 10.4201 2.9092 17
590 1 -1.89622 -5.67331 13.6582 12
591 1 -13.9112 0.527294 -7.16959 19
592 1 3.30681 1.77246 -15.4779 9
593 1 -2.05719 2.18137 13.4725 21
594 1 7.89505 9.16723 -11.6558 9
595 1 11.2731 2.09042 12.4868 12
596 1 6.89982 7.07767 -7.17148 16
597 1 11.9913 13.0182 3.75172 13
598 1 5.64375 -15.6348 -9.47932 8
599 1 -13.6172 -1.95195 13.7867 14
600 1 15.1558 -0.313153 3.53977 11
601 1 -1.93899 12.9058 12.264 17
602 1 5.54653 12.888 -9.02679 16
603 1 -15.8907 9.83614 -3.13059 11
604 1 8.8379 12.1133 2.97058 18
605 1 -11.0289 -16.0522 2.06296 9
606 1 13.9651 -3.38517 2.80687 13
607 1 8.47626 16.7823 5.93721 12
608 1 -4.63819 4.32049 13.128 15
609 1 -11.4215 -5.17918 2.23433 21
610 1 -11.1017 -1.14921 -7.10775 19
611 1 6.77071 6.13604 12.3712 19
612 1 -4.74077 -9.83026 10.4512 14
613 1 6.13109 8.96265 10.6429 19
614 1 -5.21489 12.046 -1.0298 17
615 1 8.83613 7.36641 6.06143 23
616 1 6.63294 4.68275 6.26716 21
617 1 5.73512 2.97603 -14.5412 17
618 1 -10.9838 0.556692 8.28798 19
619 1 11.7154 1.50578 -13.5219 11
620 1 10.362 -10.3124 -7.56651 10
621 1 9.33797 7.06416 9.60083 23
622 1 5.45906 7.22173 7.17131 21
623 1 -10.1935 -2.1179 15.4813 15
624 1 15.9661 7.38225 12.0927 10
625 1 -0.940321 -0.616752 13.9587 21
626 1 -1.35655 5.17816 14.0923 14
627 1 1.19737 -6.50945 -11.0684 15
628 1 -5.93853 1.36673 13.8286 17
629 1 5.8568 2.88005 12.6111 21
630 1 -8.22307 -14.1361 7.10782 15
631 1 13.4041 10.7988 -2.38295 19
632 1 3.11497 -8.41312 -4.29457 20
633 1 3.77097 10.1567 -2.8118 21
634 1 12.5027 12.7688 7.28509 14
635 1 5.266 -0.398318 -13.5061 12
636 1 3.22951 13.8564 1.47659 21
637 1 16.8946 10.0966 1.65143 12
638 1 -10.9803 -11.2219 -2.95498 11
639 1 0.375388 -2.40734 -15.6168 7
640 1 -7.77663 8.37737 5.02732 19
641 1 10.445 -1.86838 -8.97467 18
642 1 13.3712 9.19585 -7.49116 19
643 1 10.9794 15.2126 -1.74972 12
644 1 -7.49877 6.40917 2.63757 20
645 1 5.57692 6.60758 -1.88672 21
646 1 12.0662 5.17138 15.9878 11
647 1 9.25711 4.20266 14.4683 16
648 1 -0.994417 -10.2643 9.55637 14
649 1 -6.01835 12.396 -9.75885 14
650 1 2.28525 16.0871 8.83696 15
651 1 7.60624 -7.57708 -11.8347 15
652 1 2.77278 4.08451 10.9024 20
653 1 8.21711 15.5921 -3.79536 17
654 1 6.07766 11.8978 3.35377 21
655 1 12.9517 -5.76628 -2.11565 15
656 1 6.68298 10.6008 18.9356 10
657 1 -13.3213 0.739037 5.56658 21
658 1 3.6225 -14.5037 0.0021131 12
659 1 1.29958 -0.573413 -10.69 20
660 1 -9.49249 12.45 3.1691 17
661 1 4.27906 15.437 3.93935 18
662 1 -18.8472 -5.24275 2.03258 12
663 1 -3.6574 6.05627 17.3832 11
664 1 -6.62138 7.77857 -13.0579 10
665 1 -9.23173 7.36301 -9.74288 13
666 1 1.63232 -13.3681 -2.61748 17
667 1 10.2133 8.04808 -5.38619 19
668 1 -12.2337 -0.155975 16.3868 11
669 1 2.49622 -1.83926 -13.4709 17
670 1 0.0735045 -13.5545 9.30581 10
671 1 0.984359 15.1093 2.78906 17
672 1 -4.98572 -2.39917 17.0974 10
673 1 -8.83635 -7.17734 -8.06837 18
674 1 -5.28182 -10.6893 -12.9698 13
675 1 -7.29512 -12.3228 -8.08726 14
676 1 -1.08574 17.725 -5.29353 12
677 1 6.23144 -3.14533 -5.46852 21
678 1 -3.61105 13.2711 9.35512 19
679 1 4.52136 -6.27134 -5.2342 18
680 1 6.58719 -14.8835 2.02273 12
681 1 2.44336 -5.97437 7.80273 21
682 1 14.9751 4.30265 -5.51609 17
683 1 0.854833 -16.0442 -5.51918 10
684 1 -14.8834 -4.0734 7.61481 18
685 1 -6.97052 -15.5224 -1.86934 14
686 1 -10.2241 -7.94233 -2.45582 19
687 1 -11.5934 -0.270574 11.3164 16
688 1 -8.50303 -15.4617 1.18869 14
689 1 16.7146 7.05084 -4.21316 7
690 1 -1.27922 18.4363 2.59624 9
691 1 -16.3323 10.0292 8.72755 8
692 1 8.76802 0.0251586 3.15163 22
693 1 -13.7332 -4.0318 -9.6553 10
694 1 0.28812 12.4893 -2.34391 23
695 1 14.0432 1.69416 -7.97825 16
696 1 7.17412 13.0924 9.96099 16
697 1 8.2867 5.42407 -4.48501 18
698 1 -16.9448 2.42335 -7.22082 8
699 1 -14.4109 -3.58135 -0.38627 18
700 1 -0.823743 7.95352 16.4112 16
701 1 6.73702 9.71162 -9.13019 16
702 1 15.9627 11.872 7.68552 13
703 1 -2.1229 -0.318931 11.1176 19
704 1 -4.17639 -15.4305 -2.66164 15
705 1 -7.846 -18.0277 2.51645 9
706 1 -3.67534 -5.33954 7.69864 21
707 1 14.0334 11.1619 9.57488 20
708 1 3.04421 -8.13112 -7.04164 19
709 1 -7.20221 9.04749 -0.862932 17
710 1 7.66821 8.82056 3.00252 21
711 1 -9.62933 -2.04939 2.49686 20
712 1 9.8318 8.87407 -9.29338 17
713 1 -2.94739 -15.41 -5.67457 14
714 1 0.698128 -15.4499 3.88271 14
715 1 -2.55626 -14.3924 4.08357 21
716 1 3.79897 4.97457 -7.45964 17
717 1 7.21955 16.1977 -1.18109 18
718 1 -4.73926 1.51838 -13.2708 16
719 1 1.35803 4.68883 14.9834 20
720 1 -1.93824 6.2145 -15.2845 9
721 1 -11.3533 -1.15292 -13.1326 14
722 1 -11.8665 -4.49569 -2.94044 19
723 1 1.62607 14.8547 -4.70532 19
724 1 -3.8738 -4.53178 -14.4708 13
725 1 -9.95416 -5.38594 -1.25798 20
726 1 11.2866 11.2666 -8.11556 14
727 1 11.1843 -5.36396 2.04725 20
728 1 -3.08191 4.91107 10.8261 20
729 1 3.65542 -8.32608 2.41285 17
730 1 15.1463 -5.15615 0.679234 10
731 1 11.72 -0.683637 11.626 9
732 1 0.162819 11.0469 6.64803 20
733 1 -15.8944 -0.57635 15.1506 8
734 1 -12.5379 3.36102 15.3035 14
735 1 -6.23648 -15.1085 8.52778 9
736 1 9.03681 5.05419 3.87857 20
737 1 2.37547 12.9644 14.5551 7
738 1 -16.1054 0.818002 -0.314735 16
739 1 8.82522 -3.792 0.537961 24
740 1 -14.3688 12.1723 -2.90989 11
741 1 -5.13118 -13.0967 5.995 21
742 1 5.84055 -0.0678428 12.984 15
743 1 -1.70141 11.6352 8.85787 22
744 1 -0.00852933 -12.0234 3.96614 17
745 1 -9.51083 -1.6051 -2.67771 21
746 1 4.69471 6.50283 9.68675 17
747 1 -16.8225 -3.75242 -3.59688 15
748 1 -1.37592 9.75036 13.9869 17
749 1 6.87378 14.2639 1.11997 20
750 1 -15.1862 -10.2631 2.64968 13
751 1 -5.36017 -14.0377 2.51843 20
752 1 6.06879 -4.9281 14.3642 11
753 1 9.32154 -5.87576 8.53055 14
754 1 7.75102 11.1461 5.84083 19
755 1 -2.91242 -5.59387 -5.51766 22
756 1 -5.07168 3.36099 -10.3728 22
757 1 -6.95665 -2.0733 14.7369 18
758 1 -1.80508 15.9872 1.67706 16
759 1 12.2009 5.27913 2.19472 20
760 1 2.65704 8.8176 -5.91587 19
761 1 -3.84769 9.1695 16.2858 13
762 1 5.88207 11.41 12.3681 19
763 1 8.73983 1.35073 -9.41991 16
764 1 -9.17076 -9.57273 2.85575 17
765 1 14.8921 2.9124 4.38968 14
766 1 2.28562 1.2794 -8.68293 20
767 1 1.07375 7.45617 14.2754 16
768 1 4.36456 -11.2861 -5.83717 20
769 1 5.88776 9.255 -14.7132 8
770 1 -3.62245 -7.7015 -3.32456 21
771 1 12.4572 7.39253 -10.2383 15
772 1 14.5109 -1.08187 0.757186 15
773 1 0.843861 -3.26785 13.4416 17
774 1 -4.41066 -9.81636 -9.49658 23
775 1 7.675 10.8506 0.45573 21
776 1 -15.1737 7.11182 7.75393 11
777 1 11.6199 4.82607 -4.14372 19
778 1 15.8272 7.93608 3.71171 14
779 1 5.32491 -8.22225 -9.73362 19
780 1 -7.87341 11.7914 8.76725 17
781 1 17.6189 13.2499 11.4965 4
782 1 13.2066 13.6636 -3.04933 17
783 1 4.538 5.06855 -10.9064 13
784 1 9.8631 -0.964491 -0.223164 18
785 1 -12.6201 4.04264 2.7938 18
786 1 10.9755 7.92839 3.98378 13
787 1 -18.4501 -8.47587 0.404682 8
788 1 -13.4757 10.5042 -5.84666 12
789 1 4.40526 3.40585 8.23999 22
790 1 -10.1411 1.32904 -8.29869 20
791 1 -12.8989 5.23796 6.22575 17
792 1 -5.58547 5.8292 -4.81182 23
793 1 10.0408 -7.20052 -6.79558 13
794 1 -14.8709 -6.12269 -4.5929 16
795 1 12.7765 -7.42889 -0.160775 11
796 1 -13.4735 7.53811 2.44551 18
797 1 -10.8984 -9.01494 -5.90633 16
798 1 17.2677 10.0789 6.11845 10
799 1 -7.02337 -12.8289 0.750461 19
800 1 9.35717 4.87553 17.3049 11
801 1 10.0525 -3.02034 9.32621 15
802 1 10.4626 0.187035 6.34934 15
803 1 -12.9213 8.85431 5.77922 17
804 1 0.0999017 14.3785 9.38541 18
805 1 3.48903 10.6635 -8.00057 20
806 1 -0.972259 -6.3063 -12.8866 15
807 1 -6.36759 11.1224 5.53516 20
808 1 -11.3915 -8.17682 6.26594 19
809 1 7.37495 9.51996 -2.24203 18
810 1 0.262586 11.5846 10.9563 16
811 1 15.7996 -0.631459 -3.17406 12
812 1 3.95037 -5.38747 11.1649 19
813 1 -5.88331 13.5092 -7.0806 15
814 1 0.26666 10.2903 -7.9587 22
815 1 -6.16685 0.0501412 10.9424 19
816 1 15.3805 6.82308 6.45676 16
817 1 -4.35133 -3.54803 -8.68219 20
818 1 14.4584 11.6679 0.315037 19
819 1 -16.5156 6.88305 0.723497 13
820 1 -6.46003 -7.79101 8.36917 20
821 1 3.05359 13.6927 -10.3464 13
822 1 6.78682 -2.34873 13.0364 15
823 1 -2.13158 -13.2664 -2.15328 20
824 1 -9.65677 16.5726 2.92632 9
825 1 -17.8405 6.30393 3.96724 11
826 1 13.7242 -3.20285 -4.28062 12
827 1 0.409824 -11.0504 -11.7855 16
828 1 -10.8004 9.03218 4.09321 20
829 1 16.3494 12.9936 -4.01116 7
830 1 -9.95797 -0.0780672 5.64949 21
831 1 8.62767 -2.81637 -12.9334 14
832 1 -6.6749 -9.05597 -6.9892 22
833 1 0.162336 -11.9325 -4.2376 23
834 1 -5.04536 12.6911 12.4923 14
835 1 8.58793 -11.7904 0.416759 11
836 1 -3.47882 13.0408 -12.7707 8
837 1 13.7484 2.73995 -2.89059 17
838 1 5.43947 6.25988 3.2903 23
839 1 0.996092 -16.9558 1.05485 10
840 1 5.63054 -3.57131 -12.991 17
841 1 13.8042 2.19622 1.24738 20
842 1 -1.12187 3.65787 -12.7073 15
843 1 -2.80343 -8.45717 8.12241 22
844 1 7.77787 12.0268 -4.05552 19
845 1 7.75195 3.7534 -7.56129 14
846 1 -9.31758 3.74594 -2.86269 21
847 1 -15.1305 4.70536 10.1891 11
848 1 1.36077 6.73429 17.4216 15
849 1 -9.33041 -7.5116 9.00476 20
850 1 5.76224 9.51204 5.23537 19
851 1 -0.650408 -15.3334 6.66461 11
852 1 1.17966 9.35464 -2.91082 20
853 1 -4.58222 8.07852 12.7914 17
854 1 -8.77695 1.70934 10.7116 23
855 1 -13.0987 11.228 8.82407 12
856 1 7.5844 3.5485 -2.30014 25
857 1 -6.75779 -7.48161 11.9409 16
858 1 1.79903 -9.39038 4.67752 20
859 1 11.8363 8.4769 10.9694 21
860 1 7.76072 -2.04043 -2.62232 22
861 1 4.42704 -10.8235 -8.70252 20
862 1 -10.4302 0.645309 -11.0373 20
863 1 -2.1081 1.41776 -14.416 13
864 1 4.59223 18.0972 8.99222 11
865 1 -12.3348 -4.36748 13.4561 11
866 1 -7.5761 6.41178 -2.66711 22
867 1 -13.068 4.45007 -2.95013 18
868 1 12.2164 12.6524 0.0607274 18
869 1 -11.1331 -14.3823 5.43455 10
870 1 -1.346 7.98385 5.79375 21
871 1 13.7213 9.544 6.6311 22
872 1 -14.1096 -8.76849 -6.30608 10
873 1 3.40354 18.2929 6.41896 15
874 1 -9.09798 -2.97174 12.7321 17
875 1 -2.11666 -16.9119 -8.70817 8