ITEM: TIMESTEP
13000
ITEM: NUMBER OF ATOMS
1000
ITEM: BOX BOUNDS pp pp pp
-30.0 30.0
-30.0 30.0
-30.0 30.0
ITEM: ATOMS id type x y z Coordination
1 1 -3.84262 -11.6771 -4.55906 10
2 1 1.43961 -9.45318 12.2493 19
3 1 -10.8111 6.25939 1.91723 13
4 1 -10.8947 1.25998 -6.86658 12
5 1 -4.62763 -8.77937 14.0617 22
6 1 -9.16419 -0.931122 -6.15934 23
7 1 -6.0878 -14.8994 10.205 12
8 1 9.33962 -4.41863 9.49509 17
9 1 -1.87744 2.73474 14.8875 18
10 1 7.94584 -2.47015 5.53352 20
11 1 -4.83321 7.75699 -6.50749 8
12 1 -4.88373 -3.74234 17.1246 17
13 1 -10.5843 -0.800481 5.10353 19
14 1 -5.2028 -3.95383 -2.6155 19
15 1 -0.345119 0.229206 11.1579 19
16 1 -4.62663 2.19648 16.6877 14
17 1 -6.33166 -12.5215 8.47169 19
18 1 -14.3401 -2.00558 6.54594 12
19 1 -11.8401 1.66891 1.01045 18
20 1 -5.5423 9.52031 1.41206 12
21 1 -1.78464 2.67228 -4.40286 21
22 1 2.87968 -8.57124 -7.2177 10
23 1 -5.59814 -2.14374 20.3549 9
24 1 -13.625 3.65296 6.05206 14
25 1 -2.83599 10.9842 2.20247 13
26 1 1.54547 -13.3016 7.4876 17
27 1 3.79486 -8.89941 -1.31452 18
28 1 5.25178 0.161105 10.1782 20
29 1 -5.76995 4.78397 -0.850076 20
30 1 0.458418 4.38167 2.08388 21
31 1 1.96345 -0.629639 12.6064 17
32 1 -10.8296 -3.97418 6.76322 17
33 1 0.803826 -3.26484 17.703 11
34 1 -11.5763 -3.7916 3.69695 19
35 1 12.1091 -2.3314 9.00718 7
36 1 5.37822 -1.27882 -1.479 19
37 1 5.24668 -1.22028 13.1273 20
38 1 -9.19799 -5.90551 3.35225 20
39 1 -4.43747 -9.58866 -6.13413 13
40 1 -10.1724 8.26988 4.12288 12
41 1 -5.28563 5.40628 -4.33833 20
42 1 5.99901 -3.62931 -3.49312 18
43 1 9.37077 -7.87474 13.648 11
44 1 -2.15512 -11.3978 13.268 18
45 1 -3.59352 5.0576 15.7201 14
46 1 -9.79699 -7.5539 14.6739 14
47 1 -12.9417 0.748511 10.6233 13
48 1 6.19997 -7.202 1.47546 20
49 1 0.269877 -0.726774 -8.20593 12
50 1 -0.325503 10.4186 6.48356 11
51 1 -8.54512 4.80877 0.0962272 15
52 1 1.27578 6.62829 7.14565 21
53 1 -5.71582 -11.8947 14.7317 13
54 1 -2.18345 -5.82785 -6.4409 18
55 1 0.319338 -6.51768 -4.62016 21
56 1 -4.93041 2.03343 13.4555 19
57 1 -12.8728 -8.91427 1.14298 10
58 1 5.95401 -6.78211 9.54082 17
59 1 -11.562 -9.96085 3.44204 15
60 1 9.92331 -10.2041 10.6986 12
61 1 -4.42918 4.50689 8.60858 21
62 1 2.84067 5.21461 -2.98187 20
63 1 11.1941 -8.61258 5.08015 12
64 1 -12.2631 -6.17588 8.55698 17
65 1 8.69708 6.07494 6.28234 14
66 1 6.26019 4.80069 4.95322 21
67 1 -3.43336 10.2111 -1.31556 12
68 1 -1.31925 -9.4434 -5.66988 15
69 1 -1.39035 7.3276 -0.593509 22
70 1 10.9369 -5.06101 -1.21443 10
71 1 3.33155 0.793394 -6.70923 11
72 1 6.86336 -5.86799 12.5094 19
73 1 -8.43231 2.41032 -4.90449 18
74 1 2.63159 9.33217 4.99971 16
75 1 6.42486 9.43224 1.4413 12
76 1 -0.56478 6.99114 4.96586 23
77 1 -6.70506 -10.4852 -3.6582 13
78 1 -12.2968 -5.53059 -1.81892 15
79 1 -8.79238 7.76174 11.7608 14
80 1 -1.7262 7.91013 2.17654 20
81 1 1.62256 -6.68938 16.73 12
82 1 -10.8909 -6.48854 11.8113 16
83 1 -4.11807 -11.9399 6.30948 16
84 1 1.78342 6.76104 3.39901 21
85 1 5.80761 4.35682 -1.69868 21
86 1 -4.0964 -13.2751 12.464 13
87 1 -10.409 1.86635 3.62716 18
88 1 -1.25244 1.49345 18.7409 11
89 1 -6.31259 0.12989 -5.05547 17
90 1 -7.97385 -5.51577 10.1404 21
91 1 -9.1336 -12.7618 10.2251 13
92 1 2.21826 -9.55054 5.77093 20
93 1 -11.6571 7.20195 10.502 11
94 1 -10.4349 -0.72975 8.10641 19
95 1 -10.8455 -1.35629 2.10674 23
96 1 -1.28968 -14.1486 6.67327 13
97 1 4.01854 1.95886 2.1041 23
98 1 -0.670644 -0.233483 16.5296 21
99 1 -4.69759 2.01967 -6.32279 17
100 1 -12.368 -4.91755 -5.0629 13
101 1 -6.48095 9.15976 4.56173 18
102 1 4.17839 3.0907 16.0533 12
103 1 -6.23409 8.25319 -2.53388 10
104 1 3.42455 7.18237 -4.68983 12
105 1 -10.5113 -0.933539 11.6164 21
106 1 -13.0569 -0.540068 14.1331 10
107 1 2.55159 -12.0225 0.126836 13
108 1 3.53078 -11.4937 3.51132 21
109 1 3.47347 4.64081 0.267482 22
110 1 1.12805 9.02621 9.68474 10
111 1 -13.6935 0.408484 4.17722 18
112 1 -3.84683 0.296624 18.884 14
113 1 5.76891 -4.14251 -0.167433 21
114 1 1.0773 2.9737 11.4434 19
115 1 -11.6798 8.99881 7.16196 10
116 1 -8.90729 -8.71985 1.22018 21
117 1 2.82215 -3.16106 14.1838 20
118 1 0.0771935 -10.0924 3.60245 24
119 1 -4.55092 -3.84757 -6.82839 17
120 1 9.13356 -1.97386 -3.02921 9
121 1 -14.6735 -4.49793 9.32691 8
122 1 -10.6343 -7.69814 -3.99357 12
123 1 -9.82179 -10.4196 7.02179 18
124 1 -6.1671 -9.98177 6.74603 21
125 1 -10.3111 -3.54664 -6.70314 14
126 1 -11.5811 -0.0450178 -4.0296 18
127 1 6.53384 1.18341 14.2788 11
128 1 3.07725 -2.41475 10.9131 21
129 1 -1.02143 -9.50018 10.054 18
130 1 4.30712 7.0809 5.4837 21
131 1 -11.7116 -12.2445 9.56852 8
132 1 3.85746 7.62271 8.35168 17
133 1 -8.40277 -6.09455 0.462566 22
134 1 -5.67976 -12.1908 -1.64851 14
135 1 -7.27083 -12.5967 5.2687 16
136 1 8.64755 -0.919011 2.96063 17
137 1 -2.78119 -6.17747 -3.06021 20
138 1 -7.52306 -2.89771 15.5034 16
139 1 -1.9251 -12.4366 3.71061 13
140 1 0.899028 -12.5283 4.99645 21
141 1 1.43919 -15.9134 5.07512 8
142 1 -10.7874 3.28175 -3.85118 14
143 1 5.97464 5.50085 8.12993 22
144 1 -8.53543 -1.0006 -8.89595 10
145 1 0.462686 4.73806 -6.63244 14
146 1 -0.697092 -6.23216 10.7923 20
147 1 2.53193 7.72487 11.9632 15
148 1 9.00154 0.620465 9.0521 16
149 1 -10.1494 2.10693 10.6909 21
150 1 -7.53972 -9.20261 15.76 15
151 1 -9.64315 5.8584 14.2418 12
152 1 -0.0344801 -6.54258 -7.87383 15
153 1 4.31088 -14.3742 9.13084 12
154 1 8.06461 -4.98785 -6.63309 11
155 1 -13.573 -2.38896 12.3344 10
156 1 8.50469 -10.0915 4.39161 14
157 1 -6.32526 8.73568 8.49399 14
158 1 -9.458 5.05205 9.25321 23
159 1 -0.312575 -13.557 13.2791 8
160 1 -0.493512 5.74936 13.1262 20
161 1 -11.3143 -1.31253 -0.917383 23
162 1 -1.40252 8.24294 7.95854 17
163 1 -8.94584 -0.812069 0.313568 21
164 1 -13.1927 1.0703 7.24253 14
165 1 -9.03093 -6.10966 -5.53073 14
166 1 -4.48274 7.6408 6.68949 18
167 1 6.3131 -8.4223 15.2912 12
168 1 4.48233 -4.68484 11.8881 19
169 1 -2.89235 -5.61026 13.8456 20
170 1 3.29246 -14.4681 3.19671 13
171 1 -7.44208 -2.97603 -4.60259 19
172 1 -13.5227 -4.23451 1.22678 14
173 1 -6.61747 -10.0363 3.33842 18
174 1 8.28181 3.30976 -1.09908 15
175 1 -7.63442 5.36926 -6.39143 12
176 1 -12.6223 3.70084 9.55903 15
177 1 -13.0625 6.85834 4.41187 12
178 1 -8.58067 3.20794 14.7219 16
179 1 4.38202 -8.87949 -4.25473 18
180 1 8.68355 -6.16705 0.481914 24
181 1 -5.37722 4.48874 5.59471 20
182 1 -2.22331 -9.44325 -1.59733 16
183 1 -1.54538 5.72087 9.99829 16
184 1 -12.925 1.71004 -1.76681 13
185 1 7.13189 -12.2942 9.49504 14
186 1 10.5288 -1.47581 11.3852 11
187 1 -8.44081 -5.43743 -3.00449 23
188 1 -10.3784 -13.1598 6.84918 12
189 1 -5.30971 11.516 4.47113 8
190 1 -13.0086 3.97316 3.18222 13
191 1 -5.36667 -7.27294 -1.34863 20
192 1 4.4286 -11.0025 10.4222 19
193 1 -11.686 -13.6461 3.79917 7
194 1 -11.6254 4.92206 -1.22973 12
195 1 -0.0318711 -13.7205 9.7755 11
196 1 -5.38601 -0.55849 11.8002 19
197 1 -4.42379 4.74646 12.1777 21
198 1 0.0716784 -6.2784 -1.47991 21
199 1 -4.86517 -3.40086 13.6097 21
200 1 -12.8172 -1.93312 8.4236 15
201 1 -7.59508 -8.03244 12.1353 24
202 1 -8.13572 -6.50313 17.2815 11
203 1 3.05967 -9.12157 1.53129 21
204 1 7.52258 -13.9435 7.14235 9
205 1 -0.629001 9.83486 -3.34454 13
206 1 -9.54276 -7.49881 8.92897 21
207 1 6.92181 -10.1335 12.8024 12
208 1 5.29063 -2.35056 4.95357 18
209 1 -0.226771 -0.291696 -4.56975 18
210 1 9.00144 -7.15142 10.3018 17
211 1 -9.57465 2.18187 17.5203 10
212 1 0.332323 9.85374 2.96515 13
213 1 3.40005 -9.19646 15.2254 12
214 1 -4.61245 -13.2048 1.7817 11
215 1 -1.02122 6.41751 16.7161 10
216 1 -8.05728 0.678163 13.3321 19
217 1 -4.70649 -10.4975 0.39957 17
218 1 -11.0907 -8.16783 -0.945765 15
219 1 -10.9519 4.38337 12.0905 15
220 1 -7.23568 -12.8494 1.49039 15
221 1 -10.2949 -3.70353 9.85596 18
222 1 7.55727 -2.5841 11.8856 19
223 1 7.02152 1.54369 2.70393 16
224 1 -1.82419 2.49442 -0.913637 23
225 1 -3.00754 4.97456 -2.26371 20
226 1 -3.59504 4.24007 18.4448 10
227 1 -11.8211 -6.2545 1.61692 18
228 1 1.76027 7.95995 -2.57556 19
229 1 -5.95062 -7.20178 -4.38824 17
230 1 -3.16639 -5.95193 -9.26668 11
231 1 6.2088 4.35241 1.34327 22
232 1 5.59298 8.10451 11.2034 11
233 1 1.2844 2.84917 -3.13883 19
234 1 -0.600222 -10.1942 7.0972 21
235 1 -8.06499 2.18519 -7.83428 13
236 1 8.89959 4.3073 3.46867 16
237 1 7.58454 -8.04572 6.80975 20
238 1 -2.17382 -1.13258 -6.7127 19
239 1 4.25666 -11.5401 7.38058 22
240 1 -1.05147 -7.53806 14.9477 17
241 1 -8.74287 -0.431893 -2.97486 21
242 1 -2.09566 2.40434 -8.4245 12
243 1 -11.9276 -9.44949 6.69999 14
244 1 10.1572 -4.01207 1.74318 16
245 1 -4.55524 7.05097 0.464737 18
246 1 2.8938 -6.00694 -3.15861 22
247 1 0.165968 1.93296 -6.88377 14
248 1 8.54422 -5.26998 -3.30867 16
249 1 -5.67389 -5.87655 15.0494 20
250 1 -3.47188 9.99449 5.62408 15
251 1 -2.96647 7.67829 -3.71118 18
252 1 7.3971 6.48592 -0.257087 17
253 1 0.251077 -9.47862 0.265423 18
254 1 2.72784 -2.17704 -5.09748 18
255 1 11.5492 -6.58876 1.89707 16
256 1 2.28167 -10.0374 8.87007 22
257 1 -10.5044 -2.81923 13.798 14
258 1 -8.96011 -11.184 -1.03644 12
259 1 -2.20662 -3.0564 15.4165 19
260 1 5.5103 5.29071 -5.14441 14
261 1 -7.86898 5.44056 6.97821 22
262 1 -0.0405233 10.2483 -0.446793 13
263 1 0.430828 -1.51902 14.5759 21
264 1 6.21885 -13.1261 4.21185 12
265 1 0.762125 -3.74353 -6.63796 18
266 1 -15.7019 -4.34082 4.18491 8
267 1 -7.63878 2.18799 1.32589 20
268 1 -9.91507 -9.82764 11.6282 15
269 1 3.651 4.50523 3.6318 21
270 1 2.10563 -10.6294 -4.61651 9
271 1 -2.89417 -9.7178 15.8267 13
272 1 2.9714 -3.09205 -1.55333 20
273 1 -10.7736 4.78582 4.82188 21
274 1 6.89516 -9.35528 -0.695118 13
275 1 0.483881 8.02613 14.6414 13
276 1 -3.25061 -0.0845219 -4.02732 16
277 1 3.3906 3.99593 -6.78787 10
278 1 -2.29119 -9.50624 -8.78216 7
279 1 -6.30621 -15.8166 3.44529 7
280 1 8.59477 -2.60881 -0.248953 21
281 1 5.70269 -6.34064 -5.08597 20
282 1 6.3305 -10.6994 2.42569 15
283 1 5.58814 9.80078 4.48965 14
284 1 -9.98516 2.21992 7.17739 22
285 1 10.0687 5.10256 0.971415 11
286 1 -2.25696 -8.49179 12.1637 20
287 1 7.95591 0.596126 11.2834 15
288 1 -10.6564 -3.0377 -3.43245 24
289 1 10.6335 1.46268 1.67178 10
290 1 5.18735 -5.64277 3.79845 17
291 1 2.16398 5.38701 16.0499 12
292 1 8.03152 3.28888 12.5633 9
293 1 -4.49666 7.16419 3.64642 19
294 1 -2.67789 -13.8574 -2.50658 7
295 1 -8.60631 5.38297 -3.33849 17
296 1 -7.6257 -3.50696 -7.69755 13
297 1 -14.1354 -0.882381 0.536062 13
298 1 6.96111 -9.48128 9.25235 20
299 1 4.67815 -8.45054 12.285 22
300 1 7.97317 3.99794 -4.37826 10
301 1 6.95692 -4.97312 6.76574 18
302 1 7.18329 5.56432 11.4718 15
303 1 8.27473 -6.70324 3.90444 23
304 1 -5.94481 -0.522544 15.8964 16
305 1 -11.9074 -9.27166 9.74617 13
306 1 -12.7882 -1.69598 -5.81511 14
307 1 -2.54695 -5.55791 17.1084 15
308 1 -8.66802 10.338 6.345 10
309 1 8.7428 4.38455 9.17126 14
310 1 7.0846 0.0693587 6.85296 20
311 1 -8.31191 -5.49207 13.7347 19
312 1 4.85866 -3.33727 -6.96543 12
313 1 1.19695 -8.78402 -2.77088 21
314 1 6.39399 2.99915 8.73081 19
315 1 3.63916 2.27586 13.0071 20
316 1 -5.53683 -7.89544 17.2479 14
317 1 -6.8607 4.64528 16.7588 11
318 1 -9.35603 -0.333266 15.4253 17
319 1 -7.46691 2.5216 -2.05099 22
320 1 8.01205 7.40661 3.50216 16
321 1 -2.49814 -0.51869 13.3256 22
322 1 3.33285 9.94081 1.71664 13
323 1 -9.23748 -11.1691 4.21906 20
324 1 3.37121 4.43945 6.73179 23
325 1 -7.0896 2.74249 8.27191 23
326 1 -7.94874 3.26003 4.85549 19
327 1 4.70634 7.36642 -0.852057 19
328 1 3.035 0.250627 15.7098 21
329 1 4.92545 5.57012 13.2586 18
330 1 0.260984 -3.83891 -3.80885 21
331 1 -1.85628 2.77986 11.4282 23
332 1 3.26055 -6.13529 0.302606 21
333 1 2.53852 5.09808 13.2349 17
334 1 -14.993 -6.80035 6.66948 9
335 1 4.50183 -14.3794 5.81576 14
336 1 6.93835 7.61499 -3.60475 9
337 1 3.00266 -6.9418 10.2376 21
338 1 -3.8414 7.97455 10.005 16
339 1 3.17398 -5.67676 -6.31906 19
340 1 5.64579 -6.50195 -1.74424 21
341 1 -5.68175 8.61713 12.2991 11
342 1 2.16445 -6.70145 13.3603 23
343 1 -10.5861 -11.6197 1.23146 12
344 1 -7.35846 3.22495 11.3028 20
345 1 6.53224 -2.5997 8.87322 18
346 1 -2.30725 5.14761 0.817069 22
347 1 5.97944 2.18782 -6.59141 10
348 1 6.69704 1.08776 -0.036054 21
349 1 -0.419973 5.95986 -3.9077 21
350 1 -5.98414 -5.31103 19.5991 7
351 1 -5.37763 -6.48708 11.84 22
352 1 -4.20231 -2.40429 -0.713066 16
353 1 -7.88324 6.08728 3.87804 18
354 1 8.44615 7.81188 9.16411 12
355 1 -8.38101 -6.22412 6.86114 21
356 1 5.81345 -0.715962 -5.3587 14
357 1 -7.20021 0.691677 19.221 12
358 1 -14.3459 -7.71474 4.13533 11
359 1 7.45935 -3.91322 2.59913 22
360 1 -8.54727 -8.73196 4.83062 19
361 1 10.8522 -7.94688 8.18737 14
362 1 5.25923 -8.56998 4.26054 20
363 1 -1.02789 8.72729 11.5634 14
364 1 -11.5024 2.5495 14.8706 11
365 1 9.17002 -2.0373 8.37131 19
366 1 10.598 -8.98298 2.31557 12
367 1 0.645982 3.95457 8.75161 19
368 1 4.2078 3.89882 10.1829 18
369 1 -3.56322 -14.6392 8.85717 13
370 1 -10.2986 -4.12993 -0.0838223 22
371 1 -2.4576 -2.1771 18.8442 13
372 1 6.08682 9.26863 7.59614 14
373 1 4.21082 -5.74582 15.2463 15
374 1 9.6033 -4.786 12.7585 14
375 1 2.19976 0.576354 19.1514 7
376 1 -2.55658 4.82003 3.93734 19
377 1 -0.524595 -11.2159 -3.29813 13
378 1 -5.07053 -1.19109 -8.04937 11
379 1 -9.06269 -1.38536 18.5902 9
380 1 12.6252 -1.19441 1.77128 6
381 1 0.390521 5.05203 -1.07 20
382 1 6.00271 -6.48225 -8.22055 10
383 1 -6.35466 -16.3586 6.84865 5
384 1 -7.80106 -3.11917 -1.16968 23
385 1 -2.18387 -3.43078 -4.20524 19
386 1 -2.47342 -9.23194 2.20027 21
387 1 -0.0246026 -4.73871 14.1902 19
388 1 -3.42205 -8.80493 8.20103 21
389 1 6.95886 1.38246 -3.30061 15
390 1 -9.16579 7.7151 8.14479 17
391 1 9.96253 -8.23111 -1.26233 11
392 1 -14.2394 -2.35028 3.15446 13
393 1 10.4852 -0.385862 6.20765 11
394 1 0.57921 1.66266 14.0525 19
395 1 -13.6942 -2.69661 -2.51406 12
396 1 -4.30698 2.23068 -2.85508 20
397 1 12.3496 -6.01778 5.18212 8
398 1 -8.06971 -8.23235 -2.16146 17
399 1 -7.20053 -9.58609 9.14307 19
400 1 9.7639 -5.06362 6.38632 17
401 1 -11.634 6.09265 7.5961 18
402 1 0.160656 7.91463 -5.72983 10
403 1 0.423575 -10.2611 14.9206 11
404 1 -7.99122 -2.67547 11.8932 21
405 1 -5.97867 -6.63982 -7.5436 11
406 1 -6.9068 -12.1631 11.519 16
407 1 5.36271 -2.23917 15.8691 11
408 1 1.01964 -13.2636 2.03761 13
409 1 8.12474 -7.89242 -5.69581 10
410 1 -6.69334 6.40256 9.87357 21
411 1 -8.07887 0.1533 9.60259 22
412 1 -1.31059 -12.0498 0.40711 18
413 1 8.48668 9.47066 6.23424 9
414 1 9.99057 0.353968 -0.728751 13
415 1 -3.06802 -12.0412 9.54506 17
416 1 5.18635 6.88389 2.35364 23
417 1 2.3586 -0.216013 -2.9319 19
418 1 -9.78276 1.74036 -0.956602 21
419 1 3.99133 1.71246 -1.46604 20
420 1 0.869967 2.77121 17.3123 13
421 1 2.12101 7.38881 0.290797 20
422 1 -6.5318 5.63964 13.2999 18
423 1 5.74663 -1.13054 1.93185 20
424 1 2.04737 -12.4343 11.2021 12
425 1 8.19854 2.91093 6.37607 16
426 1 7.18053 -9.37727 -3.36655 11
427 1 -5.33524 4.40338 -7.79038 12
428 1 -3.29671 7.38534 13.7642 15
429 1 -1.97651 5.29309 6.99731 20
430 1 -4.9905 -9.52495 10.5372 21
431 1 9.51278 -10.6357 7.38271 13
432 1 -1.78038 -3.3259 -8.43734 14
433 1 -11.3557 -6.8952 5.25907 18
434 1 -5.22861 4.41513 1.99725 20
435 1 7.32835 -5.1765 15.5746 10
436 1 -8.96281 -10.8614 13.8784 13
437 1 11.3368 -2.63219 4.332 12
438 1 -2.23684 5.1798 -5.99828 19
439 2 -13.046 -1.91097 -4.07569 12
440 2 -7.91696 7.80062 4.13275 16
441 2 -1.67822 -5.31835 -8.23545 14
442 2 -10.3304 4.13771 14.0647 12
443 2 -9.56249 -3.86351 -2.05 22
444 2 -4.04487 -1.2206 20.1486 10
445 2 -9.85207 0.155207 10.1793 21
446 2 6.86229 4.06082 7.17059 16
447 2 -7.86444 -6.46677 -1.45126 23
448 2 -9.54507 -9.45951 -1.16697 18
449 2 -8.43707 2.17088 3.15235 18
450 2 -2.20436 -10.5522 8.16738 18
451 2 -0.760758 1.74956 16.5452 19
452 2 6.2834 -4.27218 -7.09636 13
453 2 5.84255 -4.4444 8.08974 19
454 2 -7.06058 4.99571 5.21803 20
455 2 8.57385 2.59332 8.65308 16
456 2 -11.3223 -8.55085 11.3342 13
457 2 -4.33966 -14.1096 10.693 13
458 2 7.81856 -8.84106 14.023 10
459 2 -12.5106 7.36256 6.12738 12
460 2 -4.14738 5.09708 0.238077 19
461 2 -4.47973 5.84306 13.9116 17
462 2 3.95943 -7.29431 1.79614 22
463 2 -5.35125 -0.234287 -3.28469 19
464 2 1.22786 -6.89336 -2.85496 19
465 2 6.23012 -5.58805 -3.32426 21
466 2 6.18789 8.36406 3.1057 16
467 2 -5.7771 8.24045 10.4167 15
468 2 -7.40433 -11.4155 -2.24123 11
469 2 -1.05786 -9.46466 15.5967 13
470 2 6.32001 -4.27056 4.67965 19
471 2 -14.4681 -0.429224 2.6292 12
472 2 8.55405 7.82155 5.18557 14
473 2 2.51679 -10.4197 10.7973 17
474 2 1.97903 3.16269 13.6597 21
475 2 4.42507 7.11528 12.1723 15
476 2 0.916873 4.95818 -3.10344 21
477 2 -8.97896 -1.60059 16.7427 14
478 2 2.07344 -4.11611 -2.87196 21
479 2 -10.7143 -1.10306 -2.66796 24
480 2 -13.9711 -3.7398 10.9671 11
481 2 -11.8574 -10.778 7.95439 13
482 2 0.432318 -9.33529 8.82133 19
483 2 -6.44299 -6.76718 18.4433 12
484 2 -1.39741 7.98258 13.5746 12
485 2 -10.8865 0.387946 6.65294 21
486 2 3.75325 -6.57364 -1.51058 22
487 2 6.72231 -1.85845 0.131725 20
488 2 1.4277 -14.9144 3.24686 9
489 2 3.99566 4.10507 12.1284 16
490 2 9.09698 -8.4183 3.384 18
491 2 3.00888 -4.20901 10.5129 20
492 2 -5.17826 -15.9659 8.6537 8
493 2 8.75805 -2.35446 1.77778 19
494 2 -4.47731 -12.9002 8.22653 16
495 2 11.1232 -4.47178 4.98788 15
496 2 -4.8028 -6.40006 -2.90246 17
497 2 -7.95524 -6.70072 8.62093 19
498 2 -6.73331 -8.99847 4.9528 19
499 2 -9.91659 -6.87579 1.44925 18
500 2 -4.28127 8.45867 5.06369 17
501 2 0.623265 -1.07969 -2.78878 19
502 2 9.01746 5.96719 2.72473 15
503 2 3.58243 5.12526 -5.05936 15
504 2 -9.42681 1.79775 15.5394 14
505 2 -11.9476 7.44201 2.72877 10
506 2 -7.0357 2.4595 13.0511 20
507 2 -13.0897 2.9258 7.72753 14
508 2 -11.9334 2.92911 -0.571963 14
509 2 9.49547 -1.29044 -1.48759 10
510 2 11.7778 -7.43619 6.47328 10
511 2 6.78567 1.8062 5.52767 16
512 2 -1.97694 9.43407 6.50803 13
513 2 -6.12244 5.49163 11.554 20
514 2 10.5357 3.42902 1.66798 10
515 2 1.69937 4.65804 3.69327 24
516 2 -2.80756 7.51237 0.481401 19
517 2 -1.2739 1.86405 13.2336 21
518 2 3.32869 -5.0689 13.6064 22
519 2 0.686612 -2.60853 -5.3211 18
520 2 -8.47482 3.8319 17.3862 10
521 2 1.43228 0.23421 -7.01868 13
522 2 -8.82938 -8.04989 16.3371 12
523 2 0.995998 -8.98868 2.1901 23
524 2 -1.78206 -7.21991 -1.52752 22
525 2 3.88346 -12.8351 10.5535 14
526 2 6.43092 5.09105 -3.41159 19
527 2 -8.16149 4.35729 -4.93844 16
528 2 -3.63368 8.15921 11.9837 14
529 2 -11.7327 -5.69951 3.44494 18
530 2 3.72258 4.15121 -1.75293 21
531 2 1.30779 9.35476 0.885666 16
532 2 -4.94387 4.3637 17.0088 11
533 2 2.1942 -11.1789 4.6586 21
534 2 -5.68277 0.825322 17.3228 12
535 2 10.2501 -7.95393 0.618494 14
536 2 2.44392 7.02324 5.61376 22
537 2 -7.20756 3.86102 -7.71174 11
538 2 0.981392 -4.90477 17.4702 9
539 2 -5.32986 -8.33968 11.8924 17
540 2 5.94473 -9.681 11.1427 16
541 2 -1.70395 6.42806 -2.33644 21
542 2 -6.15176 -14.3614 2.26676 9
543 2 -2.95431 -4.25379 -5.76802 19
544 2 -2.42453 -11.3259 -3.56015 14
545 2 6.56677 5.04311 13.1727 12
546 2 -12.3245 -7.52196 0.0471893 14
547 2 -13.1292 2.37009 4.65589 15
548 2 6.20234 -3.86352 12.4999 22
549 2 -7.10753 -12.0172 3.26783 16
550 2 -1.79566 -1.27802 -4.86115 21
551 2 -6.98105 -4.1609 -3.23465 17
552 2 -12.0387 -3.49193 -6.13507 11
553 2 -4.84939 -3.9459 19.2571 11
554 2 -6.28004 -2.91482 -6.2028 18
555 2 3.60055 -6.66114 -4.8056 19
556 2 6.69742 -6.08308 -0.133299 21
557 2 -8.03161 -9.85821 7.47555 23
558 2 -1.14425 -5.08139 -4.27167 18
559 2 -1.46601 -9.74857 0.668128 19
560 2 -0.463103 6.12298 -5.8989 14
561 2 2.47705 3.66297 17.0497 12
562 2 11.5796 -2.67221 2.36826 13
563 2 -14.1969 -5.85767 8.01914 9
564 2 -1.50792 -13.7749 8.50503 15
565 2 -2.52985 2.3477 -2.63107 17
566 2 -1.14894 7.96549 9.90725 18
567 2 -8.96558 -6.81986 5.02759 17
568 2 -3.52506 5.40914 10.3698 22
569 2 -8.88678 -8.86944 13.6779 16
570 2 -2.71546 -13.0088 5.46083 17
571 2 -14.5238 -2.86852 8.27535 9
572 2 -5.99185 -11.9442 6.48827 15
573 2 -10.2095 -3.11154 11.6687 20
574 2 -0.306659 -11.4824 13.6803 13
575 2 1.74181 8.0391 -4.63701 13
576 2 5.01029 5.96787 4.10608 21
577 2 7.99557 3.00054 -2.92067 13
578 2 -1.57764 9.39977 -1.4456 16
579 2 -10.2991 0.375121 0.60707 21
580 2 -14.7374 -3.99673 2.61839 13
581 2 -5.69177 -12.2301 0.392546 14
582 2 3.44122 -9.57503 7.32827 17
583 2 8.38361 -6.05541 13.8007 13
584 2 -5.17297 7.78584 2.04624 17
585 2 6.66966 -1.84608 3.49952 19
586 2 3.71625 -1.54952 15.3086 15
587 2 -3.33709 -3.92676 -2.68781 18
588 2 4.463 5.8993 7.14126 19
589 2 0.748495 6.66572 16.0942 11
590 2 3.47596 -1.59481 12.5179 22
591 2 -7.98395 1.93823 6.48463 23
592 2 3.13392 6.83397 -1.86633 20
593 2 -8.43473 -7.22484 -4.11462 15
594 2 -10.3795 -2.28597 0.393316 20
595 2 -8.6503 -3.46227 14.062 17
596 2 3.81277 9.65863 3.47598 17
597 2 5.4484 5.8754 0.229276 21
598 2 5.74997 -8.09009 6.35831 18
599 2 -13.3994 -8.09581 5.99455 14
600 2 -4.39007 8.50699 8.27027 15
601 2 -4.80624 4.32715 -2.76122 21
602 2 -0.131368 1.79195 -4.42529 20
603 2 -9.83509 3.21062 5.18702 20
604 2 -10.5246 -5.89985 9.78554 19
605 2 7.4345 -11.3966 3.92442 11
606 2 3.11094 -12.7403 1.94849 15
607 2 -11.3041 7.90864 8.75739 13
608 2 -4.35048 -9.536 6.18815 18
609 2 -13.0233 0.47931 -0.169156 14
610 2 0.479321 -11.9227 6.87106 20
611 2 -1.63481 5.18223 14.7649 16
612 2 -3.55369 -2.50726 -8.0747 15
613 2 -3.75944 6.74435 -5.04722 16
614 2 4.24477 2.35291 -7.06384 11
615 2 -5.71665 10.3278 3.01359 12
616 2 -7.58821 -5.74945 15.5314 18
617 2 -4.88263 -5.33312 13.3923 20
618 2 -5.36162 -8.49641 8.7754 19
619 2 -12.0552 -4.79924 0.325365 20
620 2 -2.76491 -3.58638 13.493 19
621 2 -1.04252 3.77263 -7.36326 12
622 2 5.77376 -4.30079 1.76079 22
623 2 -0.0612477 -4.61364 11.9188 21
624 2 -0.107629 -2.54995 -7.94966 14
625 2 4.32677 3.53318 5.16253 18
626 2 1.98711 1.0858 17.2835 14
627 2 -11.6936 -5.69049 6.60986 17
628 2 -4.21062 8.80761 -2.57497 14
629 2 -3.53421 2.17907 18.4138 13
630 2 6.41493 -13.8388 8.55167 12
631 2 -7.44927 -13.8376 10.2105 11
632 2 6.36487 -0.924512 14.7713 12
633 2 5.33951 7.42007 -4.5678 10
634 2 0.167965 7.81889 3.47259 16
635 2 -2.97103 -9.86323 10.7882 16
636 2 4.41083 -12.8323 4.41804 15
637 2 -3.3201 1.58274 -5.1425 21
638 2 1.01992 -3.01936 14.0823 22
639 2 1.39007 1.05033 11.9368 19
640 2 4.19182 -6.95868 8.90547 18
641 2 -6.7873 -1.86563 -8.79001 10
642 2 9.55914 -6.27745 -1.9043 13
643 2 -10.2117 9.17468 5.79024 14
644 2 -1.14863 -7.47128 -5.68128 17
645 2 -7.14216 -1.41824 19.1449 13
646 2 -10.2997 5.65069 0.360059 11
647 2 11.6114 -7.51501 3.58469 12
648 2 5.15175 8.36782 9.39749 13
649 2 7.10647 3.5048 2.88028 23
650 2 8.83507 0.903925 2.47237 16
651 2 -10.5389 0.025723 3.39161 20
652 2 -6.73168 4.5015 0.84742 17
653 2 -9.34919 1.91673 -2.94349 20
654 2 7.50641 8.02717 0.697111 13
655 2 -9.7149 5.51768 7.33294 19
656 2 -6.25836 -11.1205 10.0692 21
657 2 1.39493 0.0739424 14.3695 19
658 2 0.61321 -11.8731 0.362642 15
659 2 -2.93 -7.9104 -9.18945 11
660 2 4.40271 8.77695 6.41607 14
661 2 6.78569 10.0503 5.86248 10
662 2 -6.4446 -8.57918 -2.93031 15
663 2 -8.93785 -12.2558 6.01392 16
664 2 6.45778 -1.81738 6.48324 18
665 2 -4.2704 5.64168 6.72638 21
666 2 3.526 -13.4403 7.47176 18
667 2 3.09151 -7.30473 15.7712 14
668 2 -5.16189 -5.69727 10.1287 19
669 2 -7.23652 -7.57029 0.934255 17
670 2 -1.93553 -0.29654 18.4414 11
671 2 1.54874 4.17919 0.38592 25
672 2 -11.5576 5.3493 9.63233 15
673 2 -6.00676 -8.28225 15.0448 22
674 2 -3.32348 11.1223 4.12726 11
675 2 -0.135587 -12.2905 3.22797 19
676 2 -2.52989 -6.81676 11.3817 22
677 2 5.49057 -4.14061 15.7937 12
678 2 -9.59058 3.25267 8.63529 22
679 2 -4.62268 5.13372 3.5394 19
680 2 -1.64779 -1.16329 14.9731 18
681 2 -5.41817 -10.9309 -4.92362 11
682 2 11.4562 -0.0145757 0.84035 10
683 2 5.73512 0.63892 -2.1192 20
684 2 -7.09823 7.15897 7.62952 20
685 2 -9.20654 0.884598 18.6753 9
686 2 -8.28866 2.66016 -0.435064 21
687 2 8.3472 -8.90769 -1.94438 13
688 2 1.50253 4.62727 7.00809 19
689 2 -3.90361 2.56066 14.8435 19
690 2 -4.3396 0.388741 13.0342 21
691 2 -3.9834 3.11258 -8.1946 10
692 2 -13.4353 -2.49426 -0.565255 17
693 2 -10.7413 -5.74175 -5.20667 14
694 2 -1.67727 4.38665 -0.779931 23
695 2 -9.52065 -3.05 -4.87005 23
696 2 5.48034 -8.88148 -2.08685 15
697 2 -1.88346 -10.0862 3.80262 19
698 2 -2.9894 -7.7059 14.212 21
699 2 10.6295 -3.02733 9.84125 13
700 2 8.68497 -6.06775 -5.0755 11
701 2 1.71028 -12.7915 9.45506 15
702 2 8.79778 -0.429504 7.37504 16
703 2 -8.8823 6.72689 10.0216 21
704 2 -13.6312 -8.99296 2.98514 12
705 2 7.99359 -3.27561 -3.50989 14
706 2 5.56188 -10.9119 8.70449 19
707 2 -8.23831 9.45924 8.00233 13
708 2 5.1897 -3.2445 -1.84357 19
709 2 4.74996 1.86767 9.03655 17
710 2 -12.238 -0.0847173 8.92971 17
711 2 0.349362 6.91324 -0.249406 22
712 2 3.1154 -3.49366 -6.79884 11
713 2 -7.65282 -0.75174 11.834 20
714 2 -7.56599 -0.313933 15.061 18
715 2 9.78544 -2.9356 12.5484 10
716 2 3.83365 -0.311567 -5.20542 14
717 2 -8.45569 -4.18311 0.641247 19
718 2 6.25981 -8.29996 -4.88188 14
719 2 -0.805794 6.56216 6.99075 21
720 2 2.92109 -9.60311 -5.8277 11
721 2 -11.959 2.54843 11.0003 15
722 2 -11.173 -2.64464 8.50129 21
723 2 6.42876 -14.3982 5.68901 10
724 2 -1.77793 -13.1237 -1.09971 10
725 2 -2.76405 -12.6707 1.97221 15
726 2 11.6743 -5.41485 0.477884 11
727 2 -5.83607 5.99395 -6.53565 10
728 2 3.58981 5.5305 14.7493 15
729 2 -4.47404 -13.0061 -2.81034 9
730 2 4.58165 1.92494 14.7587 15
731 2 -7.57858 4.89402 14.9383 12
732 2 -7.82016 5.13523 -1.67709 16
733 2 0.190526 -10.3363 -4.838 11
734 2 -8.65176 -11.497 12.2302 14
735 2 -12.9174 5.00012 4.85624 13
736 2 6.37487 7.34439 -1.90254 13
737 2 -6.78866 2.03914 -5.54846 19
738 2 3.0746 1.49919 0.52143 22
739 2 -7.81215 -5.68099 -7.11567 14
740 2 -0.206641 -9.79185 -1.95606 16
741 2 -12.2605 -4.30987 -3.12143 18
742 2 7.20851 1.73431 12.7338 13
743 2 -9.45867 -2.29991 -7.72937 15
744 2 -11.4277 -8.05607 8.16237 17
745 2 9.52905 -0.0612329 10.8187 14
746 2 6.55084 -0.634683 11.6337 16
747 2 6.89883 3.86213 -5.82289 10
748 2 -4.41654 10.5604 0.221136 10
749 2 0.778077 10.5299 4.90206 10
750 2 8.61451 -3.69456 7.27467 18
751 2 -7.73808 -0.434103 -1.14954 21
752 2 4.74903 8.88298 0.67692 14
753 2 -2.95315 -3.30601 17.4499 16
754 2 -4.03895 -9.28552 -0.903555 16
755 2 0.364214 -2.04751 16.5288 18
756 2 -0.507682 4.43967 11.4737 21
757 2 10.2591 -9.49579 9.00552 13
758 2 7.58638 -6.84696 -7.178 8
759 2 -7.05125 7.49315 12.8065 14
760 2 1.85714 -9.54502 14.2993 15
761 2 -2.25251 6.85174 3.55657 21
762 2 0.934493 8.8121 11.6429 11
763 2 -5.54105 1.77828 -1.48623 19
764 2 0.961155 9.58799 -1.9946 11
765 2 -11.1233 -9.78275 1.41947 16
766 2 0.93099 -5.6885 -6.44579 18
767 2 -7.35805 1.99396 10.2113 20
768 2 9.07014 -5.49259 2.30452 21
769 2 -6.89324 6.72667 -3.42509 12
770 2 -12.5604 -2.17915 13.8468 9
771 2 -8.96864 -12.1855 0.763929 13
772 2 0.566124 1.53673 19.2192 8
773 2 -2.71574 -9.95604 -6.99801 10
774 2 -9.95231 2.58866 -5.84794 16
775 2 0.261614 2.24391 -1.46261 20
776 2 -4.78996 0.0441757 -6.80687 17
777 2 -6.48371 4.51127 8.48846 20
778 2 -9.23124 3.85051 11.3705 22
779 2 -1.3428 8.63473 -4.42177 13
780 2 -11.0714 -11.8637 3.43103 13
781 2 6.29327 1.12225 -5.06121 11
782 2 5.20536 -2.68335 -4.94652 14
783 2 -10.0235 -13.0918 8.71995 11
784 2 -9.7931 6.00521 3.39241 17
785 2 -10.6426 -11.1437 10.4651 12
786 2 -2.41131 4.42472 -4.35669 20
787 2 -2.38019 -13.2904 13.3723 9
788 2 5.94164 4.58595 9.73094 22
789 2 5.25245 -6.67681 11.4185 19
790 2 -7.49681 -5.99908 11.8286 23
791 2 1.62785 3.44634 -6.93909 11
792 2 -2.30078 5.22186 17.4014 10
793 2 -10.6122 -9.72039 5.15145 18
794 2 -7.41335 -10.8721 14.6334 12
795 2 -13.1398 -0.537555 12.0227 14
796 2 -10.5358 4.83592 -2.74365 15
797 2 -11.3442 -6.98311 -2.42507 16
798 2 0.320662 9.44858 7.97645 15
799 2 4.93703 -8.94151 14.0367 15
800 2 8.58755 6.06802 8.12407 16
801 2 -6.08817 -15.4732 5.3489 6
802 2 -15.0828 -2.79051 5.01024 11
803 2 -13.9411 -0.283511 6.07376 14
804 2 -5.20956 -2.52268 11.8943 19
805 2 -1.61894 -5.04753 15.2411 21
806 2 0.763319 -14.5213 6.13836 16
807 2 6.88859 0.0400218 9.13878 18
808 2 6.78063 -9.22004 1.19092 20
809 2 -1.41772 4.38345 8.45192 20
810 2 -5.31162 -7.99775 -6.23091 13
811 2 -8.09906 -3.63636 10.0443 19
812 2 2.80025 -7.95586 12.0756 19
813 2 -5.59861 -2.43531 15.9286 17
814 2 0.404368 -6.60873 14.3562 20
815 2 2.77131 1.7662 -2.79574 15
816 2 7.19738 7.36376 10.6471 14
817 2 4.43772 -7.29002 -7.36253 13
818 2 8.33375 -5.49033 11.1461 16
819 2 8.68628 4.85762 -0.222625 15
820 2 9.36444 -4.37231 -0.314699 19
821 2 1.25465 6.6632 13.2746 16
822 2 11.4345 -1.6138 7.43528 11
823 2 -3.71122 -10.9586 14.592 14
824 2 -3.99865 -8.91744 17.0831 12
825 2 -8.38503 -8.9201 10.7439 23
826 2 3.40315 -15.6981 4.80934 9
827 2 8.383 -10.9965 10.1364 14
828 2 10.1647 -6.23275 8.69516 14
829 2 -5.71831 -12.5012 12.9033 14
830 2 8.22842 -6.13891 5.88506 20
831 2 -12.8437 1.03926 14.8758 7
832 2 -3.86297 2.72594 11.5926 23
833 2 3.00925 -1.21221 -1.35345 16
834 2 1.24344 -7.80557 -7.91327 10
835 2 2.93755 -9.65858 -3.01702 15
836 2 -1.44239 0.491846 -7.80235 16
837 2 -9.01558 0.580731 -7.76342 13
838 2 8.44412 4.09261 10.9971 11
839 2 -12.3488 -2.40604 2.66915 18
840 2 6.42759 3.14407 -0.219604 21
841 2 -10.6598 -2.67733 5.15378 18
842 2 7.50936 -7.60458 8.88435 21
843 2 2.89347 6.80623 2.07989 23
844 2 8.27795 1.00033 -1.28131 15
845 2 4.44214 3.98909 2.12159 20
846 2 0.360139 -13.7883 11.6077 9
847 2 -15.7796 -6.31235 4.61337 8
848 2 6.0364 -6.54277 15.508 12
849 2 9.93496 -8.59316 11.6224 14
850 2 3.07022 -8.18097 4.69562 19
851 2 8.11043 9.32761 8.03328 9
852 2 -10.1751 -0.828615 13.5435 19
853 2 -11.8377 2.85867 2.56823 17
854 2 9.79104 -1.64199 4.72327 18
855 2 8.47495 -12.263 7.76034 11
856 2 -5.01058 -9.70463 2.04561 19
857 2 2.04329 7.30761 8.96402 16
858 2 9.81836 -9.62844 5.7656 14
859 2 2.2716 3.32133 9.84256 16
860 2 -11.6748 -13.808 5.64838 7
861 2 -0.479412 -9.18376 12.0765 19
862 2 -10.5842 6.41487 12.2534 11
863 2 -4.31226 -5.81194 -7.87333 12
864 2 -12.0268 1.93726 -3.4162 14
865 2 -9.77988 -6.14738 13.2411 15
866 2 -4.31434 -5.6557 16.6743 19
867 2 -11.2133 -0.472173 -5.99966 17
868 2 8.08383 -2.46335 10.0789 21
869 2 5.46599 0.710509 1.86944 21
870 2 -7.96166 -0.928561 -4.61022 20
871 2 8.34657 4.61024 5.15928 13
872 2 -8.59946 -9.47873 3.12249 19