ITEM: TIMESTEP
2000
ITEM: NUMBER OF ATOMS
1000
ITEM: BOX BOUNDS pp pp pp
-30.0 30.0
-30.0 30.0
-30.0 30.0
ITEM: ATOMS id type x y z Coordination
1 1 -5.39394 -10.2397 -8.36107 11
2 1 3.56972 -9.76526 10.2101 13
3 1 -8.09223 9.70935 -2.27935 13
4 1 -8.9304 3.0703 -10.2965 12
5 1 -2.77479 -8.41571 12.0373 12
6 1 -7.40708 0.14491 -9.60483 16
7 1 -3.48208 -12.7342 5.42128 15
8 1 9.51206 -2.20982 6.36762 13
9 1 -1.04495 4.1059 11.1882 25
10 1 10.4322 -0.943523 3.18793 15
11 1 -2.95167 10.0832 -9.40365 11
12 1 -1.69553 1.27143 12.266 21
13 1 -10.1206 1.14353 1.05976 23
14 1 -3.41137 -2.53203 -6.86891 19
15 1 1.55627 0.685847 8.17706 23
16 1 -3.84384 4.05881 13.3193 16
17 1 -1.32794 -10.6706 6.653 19
18 1 -12.4615 -0.741625 2.63574 20
19 1 -11.7804 2.62677 -1.17637 16
20 1 -4.17895 14.9468 -2.31742 9
21 1 -0.627599 4.49519 -8.57771 22
22 1 1.67849 -4.39791 -12.4871 11
23 1 -4.18659 -1.58098 14.3733 10
24 1 -11.6624 4.56237 1.0898 14
25 1 -2.0709 15.9267 -0.616015 8
26 1 1.93288 -13.9951 4.8741 12
27 1 5.61972 -6.57901 -5.8395 13
28 1 4.61778 0.439958 6.273 20
29 1 -3.80246 6.13423 -5.3931 21
30 1 1.862 6.3767 -2.49229 21
31 1 2.27114 3.97755 9.67061 21
32 1 -9.71257 -1.72098 2.60475 22
33 1 2.20001 -1.84424 13.1505 14
34 1 -9.25606 -2.64764 0.0797428 19
35 1 10.0776 0.306503 6.44803 14
36 1 6.58182 0.316372 -5.75256 18
37 1 4.02502 0.93221 9.88944 22
38 1 -6.50791 -3.98572 -0.266484 19
39 1 -3.81498 -8.09543 -9.60948 12
40 1 -7.44122 11.8259 -0.436794 13
41 1 -4.44259 7.53152 -8.64093 14
42 1 5.91257 -1.1122 -8.17503 18
43 1 8.69432 -6.62096 8.57424 14
44 1 0.363944 -10.3164 11.4365 15
45 1 -4.49412 8.38725 9.31158 18
46 1 -7.50729 -6.81396 11.8875 9
47 1 -11.8125 3.98717 7.61752 12
48 1 6.15962 -6.30393 -2.49338 16
49 1 1.28631 1.87169 -13.1622 11
50 1 -1.14371 13.2974 5.01807 10
51 1 -6.09922 7.84536 -3.47621 19
52 1 0.918481 9.08826 2.65616 18
53 1 -5.15005 -9.03509 10.0791 14
54 1 -3.07052 -5.25532 -9.1735 18
55 1 1.6522 -4.66244 -9.09082 18
56 1 -2.94632 4.99268 8.90412 23
57 1 -9.80706 -8.19344 -1.38577 18
58 1 6.76377 -3.54009 4.7824 19
59 1 -10.0158 -8.20047 1.34655 15
60 1 9.96381 -8.39119 6.16129 14
61 1 -4.11105 6.09627 4.16505 19
62 1 4.29408 6.05101 -7.31635 20
63 1 11.3646 -8.80409 0.366793 10
64 1 -9.64138 -6.30508 4.24772 18
65 1 9.83895 5.76529 2.196 18
66 1 6.57772 6.78179 1.52656 20
67 1 -2.5891 13.3255 -4.30717 13
68 1 -0.373205 -6.81719 -10.1626 15
69 1 -1.14202 10.1836 -5.66217 14
70 1 7.36964 -3.3563 -6.19632 18
71 1 5.06527 2.6022 -11.5898 12
72 1 6.90205 -9.67714 7.26678 14
73 1 -6.52822 3.5982 -8.1617 19
74 1 1.30136 11.7895 -1.40805 19
75 1 9.68362 8.70767 -1.79633 13
76 1 -1.61676 10.471 0.837424 15
77 1 -7.26209 -7.89932 -9.89622 12
78 1 -11.1469 -4.66017 -5.35333 15
79 1 -7.76823 9.52383 9.04646 13
80 1 -0.761541 10.4134 -2.31654 21
81 1 1.93044 -6.15051 13.6541 15
82 1 -9.86808 -3.99036 6.62081 16
83 1 -0.846065 -9.94648 4.11843 22
84 1 2.02524 8.79172 -0.324178 19
85 1 6.84567 6.18058 -5.47603 21
86 1 -1.96196 -10.2829 9.8294 11
87 1 -8.80027 4.37645 -0.527376 19
88 1 -1.70678 6.01935 14.0287 11
89 1 -4.54141 1.43811 -8.56922 17
90 1 -6.79895 -5.07233 6.16578 20
91 1 -7.52353 -10.1226 7.51222 13
92 1 4.30859 -7.28803 1.41261 21
93 1 -7.70637 10.7901 5.4941 14
94 1 -10.4715 0.990053 4.27163 24
95 1 -9.79247 0.261824 -2.00786 23
96 1 2.32699 -11.2086 4.7596 16
97 1 4.88085 4.09074 -2.2482 22
98 1 1.66397 0.906279 14.195 13
99 1 -3.83785 3.89361 -10.2228 20
100 1 -11.0794 -3.33642 -8.30638 11
101 1 -5.20259 11.7753 -2.29252 14
102 1 5.37257 3.76108 11.1144 15
103 1 -4.40848 9.08161 -6.20244 15
104 1 5.02948 9.18311 -6.1404 17
105 1 -8.88128 4.28308 9.51655 18
106 1 -9.44459 7.61209 10.2738 11
107 1 2.41654 -9.15989 -5.41995 14
108 1 5.7232 -9.32992 -0.52761 15
109 1 4.23838 7.41964 -3.93335 21
110 1 -0.85732 9.62539 4.97983 21
111 1 -13.3474 2.21755 2.30428 12
112 1 -0.0618202 3.49929 14.2381 13
113 1 9.38294 -1.84022 -3.9481 22
114 1 1.77391 6.49242 7.42264 23
115 1 -10.1542 9.32145 3.46496 14
116 1 -8.79119 -5.48593 -2.42562 22
117 1 2.31247 -1.78929 10.4328 17
118 1 1.48727 -8.29614 -0.134094 18
119 1 -2.56775 -0.399527 -9.25267 17
120 1 7.64608 1.11864 -8.20279 13
121 1 -12.2673 -1.6856 5.439 16
122 1 -7.26747 -8.76744 -6.66071 19
123 1 -6.64025 -6.55034 2.86207 21
124 1 -3.96006 -8.03288 3.28813 21
125 1 -9.11891 -4.93556 -10.3846 11
126 1 -11.5479 2.24589 -7.32694 11
127 1 7.04188 0.895816 10.9157 14
128 1 4.21223 -1.84321 8.21619 18
129 1 1.32227 -4.85449 8.03919 19
130 1 6.57654 10.5001 1.92685 11
131 1 -8.81976 -9.54019 4.05705 16
132 1 1.87952 10.9435 5.92051 14
133 1 -3.6414 -5.7035 -5.23704 19
134 1 -6.26851 -11.9695 -5.90024 9
135 1 -2.78814 -11.6342 2.49455 16
136 1 11.0987 2.22225 3.86012 12
137 1 -1.1137 -4.98011 -7.05834 22
138 1 -9.30198 -0.968805 11.6518 15
139 1 -1.62501 -9.52935 1.18152 17
140 1 0.918415 -11.8319 2.19735 19
141 1 3.09887 -13.8246 1.16746 11
142 1 -9.13252 4.15339 -6.45095 15
143 1 6.98798 5.33863 4.80224 21
144 1 -7.82791 1.27208 -12.1961 10
145 1 0.253139 9.8754 -10.5631 8
146 1 -1.55032 -3.95694 9.74739 21
147 1 1.18429 9.34892 8.46114 19
148 1 8.13386 2.59877 5.97023 20
149 1 -8.9092 3.3305 6.27167 24
150 1 -4.49974 -6.11976 10.8684 18
151 1 -8.10687 6.26309 7.86822 19
152 1 -0.972874 -1.68836 -12.4527 14
153 1 5.21299 -12.4699 5.52241 13
154 1 8.8474 -2.32456 -12.6636 6
155 1 -11.7109 1.33093 7.34835 17
156 1 8.48382 -8.75288 0.410663 18
157 1 -5.36402 10.3343 3.6314 17
158 1 -9.81405 6.06427 5.437 16
159 1 0.968536 -12.2019 9.6096 9
160 1 0.18782 6.71625 10.3855 24
161 1 -9.82739 0.278633 -5.18029 19
162 1 -3.22701 11.5216 5.40324 16
163 1 -7.13791 1.39126 -3.57001 21
164 1 -11.9735 3.72479 4.53117 17
165 1 -9.47319 -6.41628 -7.80353 13
166 1 -2.94173 9.00286 2.62911 20
167 1 7.22063 -4.7688 11.2348 13
168 1 4.90391 -4.8915 9.78519 20
169 1 -3.37562 -3.58682 11.9004 21
170 1 3.31544 -11.3782 -1.03524 14
171 1 -5.52 -2.43641 -9.23771 19
172 1 -11.437 -2.06436 -3.0585 16
173 1 -4.67851 -7.99713 0.145006 21
174 1 10.684 4.6986 -5.32937 12
175 1 -7.20914 5.93286 -9.96998 13
176 1 -12.1855 7.34769 5.32947 10
177 1 -10.2823 10.4683 0.418564 11
178 1 -5.77945 4.90149 10.5044 24
179 1 7.10921 -5.50383 -8.83716 14
180 1 6.85658 -3.27697 -2.79223 23
181 1 -4.11999 6.2815 0.773643 19
182 1 -1.06436 -7.51934 -4.43151 22
183 1 -1.17553 6.39175 5.87254 21
184 1 -11.4176 4.03494 -4.5963 11
185 1 7.77234 -10.9275 5.10286 12
186 1 9.35644 -0.461875 9.57391 11
187 1 -7.75192 -4.65514 -5.90413 19
188 1 -7.09746 -12.3637 5.30004 9
189 1 -5.49494 14.6553 0.340569 10
190 1 -9.86994 7.92516 -2.1512 12
191 1 -3.94733 -8.56975 -6.35815 21
192 1 4.3012 -9.79244 7.08002 18
193 1 -9.61861 -11.1073 0.516098 11
194 1 -8.86258 6.39301 -4.77541 16
195 1 -0.606717 -14.1809 7.09428 11
196 1 -4.68722 0.336449 8.00121 23
197 1 -5.43585 5.95733 7.25938 19
198 1 1.56638 -5.77272 -5.50232 21
199 1 -2.99544 -1.08669 10.3327 19
200 1 -13.9668 1.27377 5.55849 9
201 1 -3.87857 -5.67554 7.69592 16
202 1 -6.3228 -3.21996 13.2353 11
203 1 3.70623 -7.58427 -2.75275 19
204 1 9.00486 -11.4404 1.87667 12
205 1 0.4722 12.8822 -4.57441 16
206 1 -6.41791 -8.06968 5.30582 22
207 1 6.07359 -7.9687 9.62796 15
208 1 6.95358 0.870149 0.912339 18
209 1 1.45883 1.97416 -8.48491 19
210 1 9.13206 -5.43152 5.43975 16
211 1 -7.43819 3.6871 14.5604 11
212 1 -0.298546 13.1015 1.53117 9
213 1 4.36937 -7.01083 12.1043 17
214 1 -1.95402 -10.1876 -1.98811 18
215 1 0.956556 7.44063 13.2156 10
216 1 -7.19651 1.71919 9.9156 21
217 1 -4.54889 -8.43569 -2.86092 23
218 1 -9.75897 -7.34137 -4.45329 18
219 1 -9.47735 9.02069 6.8447 14
220 1 -6.08521 -12.6042 -3.05683 9
221 1 -9.8329 -1.01379 5.84042 19
222 1 6.87943 0.30151 7.9574 22
223 1 7.66973 3.69956 0.015088 18
224 1 -0.32113 3.80291 -5.18513 23
225 1 -1.63938 6.93976 -7.05765 19
226 1 -2.75136 7.22395 11.442 18
227 1 -11.3727 -4.95343 -2.24817 14
228 1 3.06754 11.7698 -5.77792 13
229 1 -5.4782 -5.80998 -7.61432 19
230 1 -3.79358 -1.94246 -12.3838 13
231 1 6.9645 6.14554 -1.8559 18
232 1 5.36344 10.5585 5.41287 13
233 1 2.52517 3.35928 -6.60149 20
234 1 1.90444 -8.47406 3.12453 23
235 1 -6.37551 3.66832 -12.8023 10
236 1 11.8715 7.28585 -0.23188 10
237 1 7.38694 -6.05249 2.85582 20
238 1 -0.880087 2.04108 -10.6318 21
239 1 4.06897 -10.9153 2.04741 19
240 1 0.168486 -7.60997 11.2629 18
241 1 -7.66999 1.33107 -6.87706 20
242 1 -1.11096 4.19462 -12.4336 13
243 1 -11.4101 -4.29325 3.23969 19
244 1 11.7338 -0.806193 -2.6295 11
245 1 -3.16437 9.00643 -3.68469 20
246 1 1.74177 -7.49486 -8.3615 16
247 1 1.93658 3.87081 -10.9579 15
248 1 9.60239 -4.82479 -10.6634 9
249 1 -7.95218 -3.79204 10.5163 16
250 1 -4.16433 13.8124 3.59795 9
251 1 0.0890273 11.5222 -8.24418 9
252 1 10.3068 8.77821 -5.32548 9
253 1 1.35894 -9.12476 -2.66592 18
254 1 3.08267 -2.3795 -9.89787 18
255 1 13.3527 -2.80935 -0.845267 8
256 1 3.94048 -7.34723 4.72196 21
257 1 -10.6505 1.49402 10.0747 12
258 1 -7.92824 -10.0165 -3.72277 14
259 1 -0.319961 -1.53096 11.4163 18
260 1 6.81962 7.73267 -8.68953 12
261 1 -6.80438 8.4776 0.959285 19
262 1 -0.797779 13.2575 -1.53903 18
263 1 1.1136 1.63694 10.9147 20
264 1 6.85522 -11.8548 -0.777957 10
265 1 3.48608 0.557977 -10.415 18
266 1 -12.1569 -3.57215 0.0783751 19
267 1 -5.8862 3.89314 -2.10741 20
268 1 -10.1378 -5.73238 9.40765 10
269 1 4.20609 6.85344 -0.432337 18
270 1 1.35424 -10.819 -7.48447 11
271 1 0.148246 -8.92009 14.4049 10
272 1 4.51462 -2.08222 -5.32632 21
273 1 -9.99898 7.07626 0.94592 16
274 1 8.5983 -5.05191 -4.24096 18
275 1 -1.18139 9.60477 10.5325 14
276 1 -1.48107 1.29019 -7.06001 19
277 1 4.69464 5.79755 -10.4819 13
278 1 -1.69003 -4.76187 -11.5392 13
279 1 -4.31577 -11.507 -0.219849 14
280 1 9.52539 1.18165 -1.53429 19
281 1 4.11893 -5.66624 -10.5755 12
282 1 5.51886 -9.29226 -3.87614 10
283 1 4.08096 11.4009 0.120217 11
284 1 -9.22369 3.86309 2.91983 18
285 1 12.2866 6.90726 -3.16181 8
286 1 -0.918173 -6.6615 8.29098 16
287 1 8.37334 2.98908 9.32161 11
288 1 -8.57695 -1.76585 -7.59141 18
289 1 11.0539 4.07155 -0.90137 16
290 1 6.49012 -4.33347 0.495544 20
291 1 2.57411 8.43277 11.2087 11
292 1 5.47789 3.38096 8.05932 20
293 1 -3.66682 9.47065 -0.708207 18
294 1 -3.36269 -11.3211 -4.75138 13
295 1 -6.73083 7.32549 -6.8122 16
296 1 -7.05785 -2.21803 -11.7626 11
297 1 -12.4756 1.02084 -3.9816 13
298 1 6.29164 -7.0155 6.35717 22
299 1 3.09137 -7.21942 8.06721 21
300 1 9.89894 6.74035 -7.9201 10
301 1 7.65267 -2.33488 2.39993 20
302 1 7.37559 8.18499 6.95465 16
303 1 10.137 -3.64818 -1.19117 20
304 1 -3.91437 2.37499 10.1634 20
305 1 -9.47013 -7.57564 7.11446 15
306 1 -10.7049 -0.0778391 -10.1054 13
307 1 -2.04394 -3.54931 15.1377 9
308 1 -4.884 11.8508 1.37509 17
309 1 10.0558 7.27681 4.94275 11
310 1 5.25358 2.7892 4.41093 21
311 1 -10.9328 -2.18086 8.96799 12
312 1 6.80823 -0.422123 -11.2031 13
313 1 -0.630377 -8.64403 -6.86521 19
314 1 7.90856 5.42266 7.20476 17
315 1 4.34291 6.46399 5.5566 22
316 1 -2.19689 -6.48967 13.7925 13
317 1 -5.51104 6.28546 13.8315 11
318 1 -8.97581 2.43861 12.7062 16
319 1 -6.22043 4.36681 -5.2024 21
320 1 6.65162 9.18993 -0.535295 16
321 1 -1.55305 1.48133 8.81001 21
322 1 2.66945 13.6711 -2.94866 9
323 1 -7.18964 -9.29815 1.63329 22
324 1 4.14673 5.70244 3.07233 20
325 1 -6.34274 4.32819 4.72759 21
326 1 -6.55505 4.69236 1.48933 18
327 1 7.42415 8.98873 -3.8697 18
328 1 3.76562 2.34046 13.1402 11
329 1 7.66928 7.51562 10.3601 6
330 1 1.50378 -2.84319 -7.02916 18
331 1 -0.541107 3.94188 7.83898 27
332 1 3.44441 -4.93172 -3.77765 19
333 1 4.19661 9.08111 8.08251 17
334 1 -14.2125 -3.12273 2.30656 7
335 1 6.42803 -12.8949 2.20802 12
336 1 8.34077 9.82054 -6.94762 8
337 1 4.37419 -4.28891 6.67845 20
338 1 -3.59326 8.56884 6.03612 21
339 1 1.79604 -0.878976 -12.6497 13
340 1 4.02734 -4.93171 -7.49789 20
341 1 -4.8345 11.1607 8.1778 12
342 1 2.11023 -4.72409 10.9363 19
343 1 -7.32708 -10.2997 -1.10023 18
344 1 -6.01169 3.21821 8.11918 21
345 1 7.24578 0.473952 4.31346 21
346 1 -0.963258 7.34516 -4.19255 21
347 1 7.40145 4.70732 -9.77414 12
348 1 8.36957 3.79411 -3.01449 18
349 1 1.36672 6.34371 -9.19269 16
350 1 -6.22722 -1.35846 10.9244 21
351 1 -4.88834 -3.18707 8.94853 18
352 1 -0.977336 -3.18922 -9.24498 22
353 1 -7.19013 6.62197 -0.943428 19
354 1 7.35479 8.2239 4.09609 17
355 1 -8.3801 -4.02611 4.00577 19
356 1 5.02014 2.95579 -8.48665 19
357 1 -5.60126 2.04304 12.0956 18
358 1 -11.8843 -6.43415 1.21035 13
359 1 7.52414 -1.64023 -0.412659 18
360 1 -6.97056 -7.14794 -0.718461 21
361 1 11.6241 -6.64061 3.47229 11
362 1 6.1112 -8.73981 3.53952 17
363 1 -1.19848 11.8002 7.83348 12
364 1 -8.88276 5.85719 13.0868 11
365 1 7.60448 3.8524 2.61163 19
366 1 9.56495 -6.27775 -1.60455 13
367 1 1.19839 6.09968 3.95289 20
368 1 2.57476 8.5167 5.22517 21
369 1 -0.531579 -12.9354 4.5422 15
370 1 -8.35152 -2.49119 -4.1763 19
371 1 -1.21757 -0.146138 14.4446 10
372 1 3.92815 10.4061 2.97558 12
373 1 4.83737 -3.60052 13.2116 14
374 1 7.46903 -3.32995 8.20946 17
375 1 3.91707 6.07343 11.083 13
376 1 -1.57984 7.14773 -0.766113 24
377 1 -2.1776 -11.467 -7.29199 11
378 1 -4.07663 1.16553 -12.165 12
379 1 -7.17829 0.18615 13.4539 13
380 1 11.9966 1.38872 1.22499 10
381 1 1.50763 6.46534 -5.62858 21
382 1 5.66267 -3.19115 -11.073 15
383 1 -6.42968 -12.623 1.71083 11
384 1 -6.16912 -1.49267 -5.51975 18
385 1 0.546523 -0.861975 -9.83467 16
386 1 -1.80824 -7.31633 -1.078 21
387 1 0.0173467 -4.15706 12.8331 16
388 1 -0.571524 -6.76679 4.9784 20
389 1 8.01472 3.66562 -6.73126 18
390 1 -7.66978 11.3664 2.61622 14
391 1 11.5524 -4.33911 -4.32921 11
392 1 -11.9794 -0.45923 -0.360188 15
393 1 12.2166 4.51161 2.05893 10
394 1 2.14 4.68375 12.766 14
395 1 -11.4622 -0.793422 -7.09508 12
396 1 -3.3655 3.41483 -6.6909 20
397 1 11.7712 -5.77692 0.537471 12
398 1 -6.7374 -6.8788 -4.22491 19
399 1 -5.43056 -10.441 4.08329 18
400 1 9.77415 -4.31022 2.33631 17
401 1 -12.6548 7.92516 1.9813 9
402 1 2.3866 9.04677 -8.01692 13
403 1 2.77612 -9.13503 13.1253 12
404 1 -6.883 -2.13239 7.48891 19
405 1 -6.12975 -4.8046 -10.8611 13
406 1 -4.55869 -11.0021 7.58315 15
407 1 5.2759 -0.43632 13.5916 12
408 1 0.616683 -11.7422 -1.0005 15
409 1 8.522 -2.02961 -9.20918 16
410 1 -6.73393 7.88572 5.33631 19
411 1 -7.04175 0.947453 6.21348 19
412 1 -0.388541 -11.6244 -4.09372 15
413 1 9.58795 8.82995 1.46104 14
414 1 9.45361 1.29271 -4.5654 13
415 1 1.24932 -8.47265 6.23682 19
416 1 4.45988 10.4659 -2.92582 18
417 1 3.79094 0.508313 -7.15114 18
418 1 -9.07594 3.2159 -3.37372 23
419 1 5.01455 3.9425 -5.25953 18
420 1 5.14827 6.36695 8.68519 20
421 1 1.56621 9.39908 -3.61776 21
422 1 -6.38194 7.86917 11.7183 14
423 1 6.55555 0.063012 -2.68952 20
424 1 2.10272 -11.7385 7.33962 17
425 1 10.3398 4.09522 5.38531 14
426 1 9.79562 -4.77852 -7.33649 11
427 1 -3.90796 6.50659 -11.8656 11
428 1 -1.55946 7.78542 8.23611 21
429 1 -1.37813 6.55345 2.60464 21
430 1 -3.1782 -7.93202 5.88333 19
431 1 9.24565 -8.60329 3.13424 18
432 1 -1.63922 0.563039 -13.6833 13
433 1 -8.82797 -5.27044 1.05523 23
434 1 -3.9008 6.10063 -2.24158 20
435 1 6.02858 -1.94525 10.3875 20
436 1 -7.10411 -6.74405 8.96132 17
437 1 10.9461 -1.50912 0.441302 17
438 1 -1.58478 6.57504 -10.4669 15
439 2 -11.4432 1.17027 -8.76458 9
440 2 -7.15757 11.361 -2.17455 11
441 2 -2.95029 -0.47245 -12.7123 13
442 2 -7.18241 6.88842 13.1988 12
443 2 -7.79786 -2.69131 -6.13263 18
444 2 -2.3453 -1.4531 15.2604 9
445 2 -9.54526 1.3925 5.97998 22
446 2 8.15357 5.32114 1.43057 20
447 2 -3.31272 -4.96528 -7.08672 20
448 2 -7.87636 -8.37402 -4.8636 18
449 2 -6.84743 3.7033 -0.598616 21
450 2 -0.701754 -8.65879 5.61825 18
451 2 1.63502 2.84882 13.6574 15
452 2 7.07453 -2.03672 -11.9934 10
453 2 6.88383 -1.65974 4.03732 19
454 2 -6.16622 6.33855 0.703346 19
455 2 10.0967 2.02832 5.61455 14
456 2 -9.34432 -5.76856 7.46703 16
457 2 -2.44974 -12.7271 3.93533 15
458 2 6.97652 -7.70432 7.9763 17
459 2 -10.4406 8.8853 1.66128 14
460 2 -3.66165 7.27104 -3.90953 21
461 2 -4.7779 7.75422 7.48574 21
462 2 4.27381 -5.66681 -2.19903 20
463 2 -3.45134 1.38441 -7.25979 20
464 2 0.990012 -4.69711 -7.07741 20
465 2 7.59647 -0.418201 -9.31497 15
466 2 7.98537 9.17133 -2.04456 14
467 2 -6.0353 9.62541 5.31205 17
468 2 -6.77232 -10.6789 -7.05511 11
469 2 0.897772 -10.1408 13.1943 9
470 2 6.57456 -2.43562 1.0291 19
471 2 -11.7007 0.571634 -2.03304 17
472 2 7.38369 8.88584 1.4983 14
473 2 2.39091 -10.0528 6.13593 20
474 2 0.477412 7.4656 8.53946 20
475 2 5.71527 9.20171 6.84186 15
476 2 2.5197 7.06946 -7.47931 20
477 2 -8.93354 0.626371 12.6885 15
478 2 5.80402 0.981493 -7.83175 17
479 2 -9.14071 -0.0363525 -7.05914 21
480 2 -12.6509 0.0760962 6.28241 14
481 2 -9.13309 -8.02339 5.25761 16
482 2 1.99689 -7.02717 5.15761 21
483 2 -3.42971 -3.50191 13.8036 14
484 2 -2.5246 8.38962 9.82871 19
485 2 -9.23879 1.60592 2.76349 23
486 2 3.79107 -6.06173 -5.61408 19
487 2 7.9597 0.127126 -4.02071 17
488 2 1.87945 -12.4194 0.484398 12
489 2 3.70581 7.22486 7.14372 17
490 2 9.83817 -7.66666 -0.3465 12
491 2 4.31679 -1.41704 6.25219 22
492 2 -6.43104 -8.61088 3.25899 19
493 2 11.3898 0.365372 -0.310672 14
494 2 -3.05174 -9.70555 2.97679 22
495 2 10.1462 -5.0099 0.592632 19
496 2 -4.09075 -7.26391 -8.00567 18
497 2 -8.25125 -5.67554 2.89412 20
498 2 -3.47809 -7.11537 1.49514 22
499 2 -6.80778 -6.00777 -2.35833 23
500 2 -5.17233 12.2995 3.25493 14
501 2 1.84925 1.65086 -6.54809 20
502 2 6.07034 7.31806 -0.50041 16
503 2 5.11858 6.90324 -8.87135 16
504 2 -9.03895 4.20812 13.8086 9
505 2 -11.9046 6.43154 1.07262 9
506 2 -5.79865 3.00052 10.3615 21
507 2 -13.1532 8.17219 3.7677 7
508 2 -9.82814 4.80338 -4.24231 15
509 2 8.08275 1.7641 -6.09344 15
510 2 11.8526 -7.39639 1.71384 12
511 2 6.43069 3.037 1.36022 21
512 2 -0.601362 12.8915 3.3032 12
513 2 -6.68778 5.2542 8.90765 22
514 2 11.5323 5.91988 -1.73683 11
515 2 1.9807 6.96489 -0.529985 18
516 2 -0.510424 9.31518 -3.89339 21
517 2 -2.30101 3.19958 9.11783 19
518 2 1.39013 -2.9531 11.9646 18
519 2 3.24137 1.80158 -8.9246 17
520 2 -5.80303 4.22476 13.5405 14
521 2 2.77799 2.04395 -11.9332 15
522 2 -6.80331 -4.8554 12.3704 15
523 2 2.28892 -7.14502 -1.64602 19
524 2 -1.71403 -5.72792 -5.12285 19
525 2 5.59148 -11.1675 7.13298 14
526 2 10.0838 8.43405 -7.16385 9
527 2 -6.13462 6.88494 -8.63867 14
528 2 -3.12174 11.4176 7.70258 16
529 2 -8.44232 -4.32883 -0.91012 20
530 2 5.23645 6.87293 -5.68759 18
531 2 -1.02515 14.5292 0.219575 9
532 2 -3.54456 6.18566 13.4489 14
533 2 5.07258 -9.36935 1.65571 20
534 2 -0.547465 1.59866 13.9427 14
535 2 10.1115 -4.93509 -2.94489 16
536 2 5.88116 6.22438 3.53509 19
537 2 -5.43717 5.05435 -11.7979 11
538 2 1.73717 -7.93983 14.1649 12
539 2 -2.30406 -6.30852 6.71933 19
540 2 4.62974 -8.83855 8.85701 16
541 2 -1.37811 11.8127 -4.38775 14
542 2 -5.82101 -11.4748 -1.57341 14
543 2 -1.39477 -1.63145 -10.385 20
544 2 -3.77552 -10.2837 -7.44794 15
545 2 7.51332 7.08782 8.44194 11
546 2 -10.3774 -6.79925 -2.79696 16
547 2 -12.2027 3.83153 2.58996 16
548 2 4.121 -1.09385 10.061 22
549 2 -2.89306 -10.2655 -0.0207209 19
550 2 -0.194691 0.673679 -9.16911 22
551 2 -7.94322 -3.8196 -11.4203 10
552 2 -11.1262 -1.59512 -8.87004 10
553 2 -5.88106 -1.28093 13.6807 15
554 2 -4.03438 -1.57956 -8.25922 18
555 2 3.0717 -5.81185 -9.00261 18
556 2 3.60312 -3.224 -6.8386 21
557 2 -5.64705 -6.31712 4.72827 20
558 2 1.16944 -2.72064 -8.86429 19
559 2 -0.994526 -8.42647 -2.70652 21
560 2 1.4527 10.2706 -9.0781 10
561 2 6.02281 6.74875 10.5385 12
562 2 11.3558 0.754973 2.73619 13
563 2 -12.7722 -2.40426 3.77814 15
564 2 -1.97866 -12.7171 6.64607 12
565 2 -1.17168 3.38531 -6.79391 21
566 2 -1.7437 8.39267 6.25432 20
567 2 -6.00417 -6.57782 0.966515 20
568 2 -5.60847 6.28361 5.20379 16
569 2 -8.27167 -5.78927 10.1733 14
570 2 0.201123 -11.2793 5.19656 22
571 2 -12.8078 1.08482 3.81686 16
572 2 -9.23263 -9.78776 2.24594 14
573 2 -7.71619 -0.982769 6.1785 19
574 2 1.94097 -8.87618 11.1829 19
575 2 3.62337 10.0057 -6.79341 14
576 2 5.32851 10.3692 -0.920511 15
577 2 9.34558 5.05322 -6.97663 12
578 2 -2.06792 14.4335 -2.51966 11
579 2 -9.08871 1.23507 -3.7341 22
580 2 -11.576 -2.4777 -1.25429 14
581 2 -3.45972 -10.1285 -3.20715 18
582 2 4.47073 -6.38977 6.9707 21
583 2 7.77786 -4.92292 9.44268 13
584 2 -4.15438 10.4028 -2.74097 18
585 2 7.73816 0.551775 -0.861087 19
586 2 3.95946 -2.05544 13.4869 13
587 2 -1.61765 -3.08162 -7.17172 19
588 2 2.91254 6.89634 4.23417 18
589 2 0.616181 8.632 10.8083 15
590 2 1.11204 -0.216872 10.9501 21
591 2 -7.28745 3.62286 3.22132 17
592 2 5.1915 9.20391 -4.11966 18
593 2 -8.44758 -7.89983 -7.97966 15
594 2 -6.4533 -1.79829 -3.74568 17
595 2 -10.2315 -0.464661 9.88643 11
596 2 3.10517 12.4587 -1.40953 13
597 2 7.25576 6.71342 -3.66404 17
598 2 7.56824 -7.81331 2.27445 17
599 2 -12.9068 -4.52123 1.99305 11
600 2 -3.56602 9.8317 4.33292 19
601 2 -3.46599 6.95567 -7.00139 20
602 2 1.04159 3.82298 -9.14314 19
603 2 -8.92957 4.83763 1.40602 19
604 2 -10.6535 -2.29663 6.97161 16
605 2 7.52178 -10.0723 -0.633669 12
606 2 1.59645 -10.4214 -1.08821 17
607 2 -8.79694 10.5368 3.97852 13
608 2 0.0325166 -8.09851 3.04274 20
609 2 -12.2269 2.778 -3.13593 11
610 2 2.46061 -10.454 3.00302 20
611 2 0.871752 4.82736 10.4975 22
612 2 -2.03434 2.17058 -12.6455 13
613 2 -1.11912 10.7131 -9.51797 9
614 2 5.52549 4.21392 -10.6038 14
615 2 -3.7431 15.4659 -0.497677 9
616 2 -7.66432 -2.51215 11.9938 14
617 2 -3.42371 -4.70998 9.40327 20
618 2 -2.57346 -6.60448 4.02339 20
619 2 -11.6309 -3.97219 -3.68432 14
620 2 -1.50455 -2.00167 9.33808 20
621 2 -0.0811814 7.8162 -10.3453 14
622 2 6.04582 -1.84447 -1.88676 19
623 2 2.16892 -1.35862 8.42185 19
624 2 0.309485 0.227547 -13.0906 14
625 2 4.23786 5.79092 1.15902 16
626 2 4.00697 4.12352 12.4361 14
627 2 -9.85588 -3.513 1.98901 23
628 2 -4.17727 13.1733 -3.16513 10
629 2 -1.75123 4.04425 13.5127 14
630 2 6.48135 -12.1841 4.19487 13
631 2 -5.06785 -11.7234 5.72286 16
632 2 5.12072 1.75545 11.7889 14
633 2 6.56668 8.91256 -7.29463 13
634 2 2.60213 9.5689 1.46924 17
635 2 0.873532 -13.3558 7.86007 12
636 2 4.94826 -11.2017 -0.563194 14
637 2 -1.96657 3.9355 -9.85331 20
638 2 0.672055 -0.759923 14.1199 14
639 2 1.64579 4.48315 7.56304 21
640 2 4.89886 -4.01346 4.65973 22
641 2 -3.55398 1.25372 -10.3214 18
642 2 8.93916 -5.66985 -9.12279 9
643 2 -8.57103 11.4582 0.924578 14
644 2 -0.947959 -5.11288 -9.49817 16
645 2 -3.68612 2.57403 12.1653 18
646 2 -8.46313 7.92046 -3.4231 14
647 2 12.7351 -4.14488 0.506975 9
648 2 3.6221 9.99335 4.89945 15
649 2 11.344 6.04102 1.1525 11
650 2 11.8678 3.23653 0.782656 12
651 2 -9.15509 1.56184 -0.654221 18
652 2 -6.17266 5.8861 -2.73524 22
653 2 -7.26007 3.18001 -6.2869 20
654 2 10.4898 7.83517 -3.3814 13
655 2 -6.76722 8.70796 -0.968797 19
656 2 -4.56445 -8.89749 5.3544 19
657 2 2.37998 1.92266 9.51304 21
658 2 1.27505 -10.1767 -4.27549 17
659 2 -2.20472 -3.20665 -12.2982 12
660 2 5.00133 11.4374 1.87792 11
661 2 5.91282 9.52855 3.81314 14
662 2 -6.53789 -6.09211 -6.09779 19
663 2 -10.5831 -9.44059 -0.207421 12
664 2 7.71737 1.16146 2.60703 21
665 2 -3.31583 7.14436 2.60795 20
666 2 3.25131 -12.846 5.93841 14
667 2 3.79097 -5.35211 13.0856 17
668 2 -3.69728 -4.10401 6.08777 21
669 2 -4.36166 -7.3444 -4.48625 19
670 2 0.720494 5.49255 13.7343 13
671 2 1.95243 7.56734 -3.98688 19
672 2 -10.6052 8.25331 5.09602 14
673 2 -3.77414 -6.56696 12.6571 14
674 2 -4.64165 14.611 1.95011 8
675 2 -0.753805 -11.0019 2.18014 16
676 2 -0.518383 -4.67847 8.31876 19
677 2 6.50491 -0.603899 11.8706 13
678 2 -10.0702 4.11823 4.75345 18
679 2 -3.69971 7.3852 -0.920451 21
680 2 -0.708563 2.13931 10.7877 23
681 2 -5.60967 -8.88221 -9.79008 12
682 2 11.6524 -2.19426 -1.26196 15
683 2 6.38694 -1.62361 -6.2566 21
684 2 -3.54483 10.4682 0.86638 17
685 2 -7.38773 2.12633 13.5712 13
686 2 -7.25643 3.56171 -3.64514 19
687 2 10.2006 -4.90641 -5.65845 10
688 2 0.423498 7.08022 2.39811 22
689 2 -1.93007 5.70179 10.8727 24
690 2 -3.35578 0.558019 9.36869 21
691 2 -2.36642 5.62173 -11.9333 12
692 2 -11.9004 0.758152 -5.70857 14
693 2 -10.0286 -4.8722 -8.57602 13
694 2 -0.460789 6.05786 -5.50474 20
695 2 -7.33127 -1.64201 -9.06868 19
696 2 6.20116 -5.15525 -7.16064 16
697 2 -0.479453 -8.24107 0.320502 23
698 2 -1.23171 -7.68777 10.068 18
699 2 10.1811 -1.3211 7.91655 9
700 2 9.00388 -3.2563 -11.2462 11
701 2 0.112954 -14.5496 5.38585 10
702 2 11.441 3.92041 3.50929 12
703 2 -7.97826 10.2338 7.31862 12
704 2 -10.692 -6.75409 2.6791 16
705 2 10.4727 0.488657 -2.87952 14
706 2 5.36049 -8.84014 5.37497 21
707 2 -6.15937 9.91185 2.00354 18
708 2 4.42504 -0.0186682 -5.43607 18
709 2 4.703 3.42964 6.25063 21
710 2 -12.2465 2.62995 5.99104 15
711 2 0.276894 11.7551 -6.31809 16
712 2 2.36232 -0.996942 -10.8932 19
713 2 -6.47219 1.23457 8.18325 19
714 2 -6.47763 0.49612 11.3629 20
715 2 7.49748 -1.41921 9.28701 18
716 2 5.35157 0.744561 -11.2184 16
717 2 -8.76236 -4.31185 -4.32558 18
718 2 8.63645 -3.16662 -7.63715 15
719 2 -0.963095 9.48437 2.43674 15
720 2 -0.0636063 -7.86957 -8.57058 16
721 2 -12.0179 5.54412 6.02924 12
722 2 -10.4224 -0.84328 4.13625 20
723 2 7.43778 -12.3993 0.772667 13
724 2 -1.67439 -12.0553 -5.5061 13
725 2 -0.802566 -11.6198 -2.21047 12
726 2 11.103 -2.47287 -3.93847 12
727 2 -3.35817 7.6164 -10.3339 15
728 2 3.74733 7.61655 9.79843 17
729 2 -4.96288 -12.0914 -4.57948 11
730 2 4.31158 4.25409 9.38879 20
731 2 -5.08306 6.82474 10.652 18
732 2 -5.6453 7.90847 -5.40149 17
733 2 -0.514519 -10.8168 -7.76025 10
734 2 -5.91295 -10.0515 8.46588 12
735 2 -9.83627 9.43903 -1.19337 13
736 2 8.64604 9.59626 -5.10905 12
737 2 -4.71089 3.49265 -8.37406 18
738 2 4.0497 3.28429 -3.74645 17
739 2 -7.43058 -6.13448 -10.2116 10
740 2 0.789558 -7.60845 -5.58943 18
741 2 -11.6122 -2.7937 -6.51171 15
742 2 7.06779 3.28476 10.3198 15
743 2 -7.72758 -0.476761 -11.8389 11
744 2 -10.3579 -4.61573 4.68557 20
745 2 7.15537 0.923573 6.26787 22
746 2 8.14112 1.11969 9.32306 16
747 2 8.32803 6.18352 -9.11451 12
748 2 -2.93625 9.84188 -5.50646 17
749 2 -0.448925 11.5844 -0.34131 16
750 2 9.72019 -2.07434 1.66245 18
751 2 -6.27098 0.675092 -5.19221 22
752 2 2.84168 10.719 -3.9351 19
753 2 -1.9499 -0.503602 12.1477 19
754 2 -2.22572 -8.60345 -5.83711 20
755 2 3.59827 0.462618 13.9088 11
756 2 -1.81278 5.88878 7.7746 23
757 2 10.4472 -7.82656 4.45663 13
758 2 5.85437 -4.83954 -10.3163 13
759 2 -5.72605 9.86353 9.1562 13
760 2 4.57259 -8.89404 12.5187 11
761 2 -1.70429 9.21309 -0.825857 17
762 2 -0.292597 10.5803 8.62254 13
763 2 -4.24746 4.11162 -4.95282 21
764 2 0.752872 12.8925 -2.68825 17
765 2 -8.48654 -9.34009 -2.08115 19
766 2 1.17434 -2.58531 -12.8785 12
767 2 -6.94528 3.30462 6.40649 21
768 2 7.73834 -5.82926 -1.75069 16
769 2 -4.46 9.58671 -8.28379 10
770 2 -11.5527 2.53984 8.80808 11
771 2 -7.41489 -11.6652 -4.02665 10
772 2 2.56663 6.78359 12.3046 13
773 2 -2.55166 -6.49115 -10.7106 13
774 2 -7.80145 4.31876 -9.20855 15
775 2 1.7152 4.5087 -5.38314 20
776 2 -5.90685 1.70844 -12.4082 13
777 2 -8.32436 7.03303 6.06594 22
778 2 -8.85237 7.87062 8.3958 15
779 2 2.33962 13.2441 -4.96926 9
780 2 -7.73315 -11.5125 0.670139 12
781 2 7.57554 3.01249 -9.10569 12
782 2 5.02152 -2.30616 -9.46045 21
783 2 -7.2732 -10.3301 5.40139 16
784 2 -9.29053 6.61455 -0.8191 19
785 2 -7.98208 -8.25765 8.17244 14
786 2 -0.809248 6.3884 -8.45629 15
787 2 -0.421416 -11.2224 10.2036 13
788 2 7.51981 3.69444 7.6568 19
789 2 5.57889 -3.63972 8.25672 19
790 2 -6.67645 -2.68093 9.39865 17
791 2 2.73849 5.59131 -10.4733 12
792 2 -1.02489 7.67195 12.8241 13
793 2 -8.61747 -7.25702 0.202697 23
794 2 -6.06393 -7.38506 10.6573 13
795 2 -9.67995 4.37968 7.81663 19
796 2 -7.7198 5.91362 -6.16504 17
797 2 -10.3288 -6.3994 -5.97034 15
798 2 -3.12447 13.3323 4.9935 11
799 2 5.87029 -6.37188 10.7617 15
800 2 8.94536 5.55056 5.09868 19
801 2 -4.40082 -12.6032 1.18342 10
802 2 -12.8418 -1.94911 0.969082 13
803 2 -12.2401 1.0344 0.978975 16
804 2 -4.95566 -1.5612 7.69246 20
805 2 -1.21201 -3.44572 11.5423 17
806 2 1.58981 -13.8478 2.94116 13
807 2 7.21881 3.22828 4.3836 19
808 2 6.75754 -6.58995 -4.36301 16
809 2 -1.61121 5.44837 4.29998 19
810 2 -5.55391 -4.6346 -9.0748 19
811 2 -8.03787 -3.58592 5.94396 17
812 2 2.92384 -5.23756 9.34261 18
813 2 -4.54129 -2.23405 11.3277 21
814 2 1.05626 -5.97588 11.7937 18
815 2 4.11024 3.84363 -7.06362 21
816 2 6.36528 6.43018 6.30831 18
817 2 3.20397 -4.04224 -11.1014 14
818 2 8.22856 -3.46338 6.22521 17
819 2 12.2488 5.48816 -4.35335 8
820 2 8.02353 -3.14641 -4.18626 19
821 2 2.6801 9.82517 7.42454 14
822 2 10.0984 -0.873949 5.07018 14
823 2 -3.41843 -9.74864 10.9104 13
824 2 -1.34273 -8.26193 13.2364 14
825 2 -5.89518 -5.99001 7.76393 21
826 2 4.45072 -12.6856 1.46708 13
827 2 8.46737 -9.57865 6.49766 14
828 2 10.2566 -5.20936 3.78994 16
829 2 -2.70544 -10.1116 7.81976 16
830 2 7.64 -4.27178 2.6163 18
831 2 -9.28723 5.70166 11.1838 14
832 2 -4.44987 4.33897 7.93071 19
833 2 6.86846 4.36873 -4.78831 17
834 2 0.422236 -5.49308 -11.3202 15
835 2 2.29465 -9.11472 -7.27741 12
836 2 0.329857 2.97383 -11.926 15
837 2 -7.93816 3.18154 -11.8541 11
838 2 8.59376 8.44589 5.47847 12
839 2 -9.81786 -1.21078 -3.69428 18
840 2 9.28115 3.23049 -1.22018 16
841 2 -10.2382 -0.946867 0.783165 20
842 2 7.39256 -6.35274 4.88433 21
843 2 1.2043 9.79825 -1.58592 19
844 2 9.75277 3.40119 -4.31689 13
845 2 4.21129 5.89729 -2.7822 22
846 2 2.6279 -11.2532 9.17615 12
847 2 -11.4815 -5.50987 -0.381505 17
848 2 5.7803 -3.6179 11.4843 17
849 2 9.68753 -6.62093 6.88135 12
850 2 5.13163 -6.88158 3.21756 19
851 2 9.406 7.53905 2.98561 13
852 2 -8.9166 2.65724 10.4807 19
853 2 -10.6339 3.71184 -0.189362 20
854 2 8.39911 -2.75761 -1.46819 21
855 2 8.67859 -10.4135 3.60861 13
856 2 -3.76862 -7.26716 -1.57191 21
857 2 1.06865 9.56161 4.68938 17
858 2 9.99424 -10.0237 1.15992 11
859 2 0.902796 6.70037 5.73559 24
860 2 -6.68842 -11.8038 3.35634 13
861 2 1.21182 -6.98506 7.79689 19
862 2 -7.87064 8.66777 10.7308 12
863 2 -5.13621 -2.89989 -11.1595 13
864 2 -10.9123 3.70434 -6.51019 12
865 2 -10.5674 -3.92962 9.72657 10
866 2 -1.08053 -4.90969 14.2394 12
867 2 -9.1094 1.07653 -10.219 16
868 2 5.21323 0.882032 7.98074 23
869 2 6.74438 4.12516 -1.56342 16
870 2 -6.41199 1.29308 -8.45081 18
871 2 10.5543 8.74852 -0.0443957 11