ITEM: TIMESTEP
2000
ITEM: NUMBER OF ATOMS
2000
ITEM: BOX BOUNDS pp pp pp
-30.0 30.0
-30.0 30.0
-30.0 30.0
ITEM: ATOMS id type x y z Coordination
1 1 -7.78098 6.4852 -13.4837 13
2 1 -5.79678 -13.4432 -6.50717 17
3 1 3.05085 12.3379 9.63955 17
4 1 7.29631 -10.3087 6.8117 18
5 1 -11.3172 6.84257 -1.81409 18
6 1 12.2558 -8.69522 -10.514 10
7 1 -12.2357 1.48554 -8.49599 21
8 1 -1.46967 -6.38802 10.9433 20
9 1 -5.34956 3.64229 -13.4199 21
10 1 -11.8061 -11.3989 3.70433 23
11 1 16.0642 3.75013 -7.56393 14
12 1 -5.89171 -15.4105 1.58137 15
13 1 -14.3411 -11.0956 1.72756 16
14 1 2.2607 3.20497 19.7141 11
15 1 -1.96403 14.4849 -9.0058 13
16 1 5.05067 -1.18636 14.0131 16
17 1 -8.5677 -1.51054 -12.0388 22
18 1 -12.5919 -3.21844 10.1992 18
19 1 13.1164 1.93411 10.0908 16
20 1 3.29705 11.8188 -9.9977 20
21 1 5.96094 4.22492 -13.6506 20
22 1 13.5902 4.4938 8.47397 15
23 1 -14.5755 1.96074 -11.2081 12
24 1 -11.7378 10.464 5.90744 11
25 1 7.31541 -11.2914 9.88032 9
26 1 0.662952 -13.4037 -12.4266 11
27 1 9.97559 -13.2146 1.93188 12
28 1 -11.1573 -12.5245 -7.15506 11
29 1 -14.2801 -5.34009 8.02072 10
30 1 -0.0839056 -9.46286 -11.7808 20
31 1 5.11892 -11.8498 -12.8491 15
32 1 -1.98468 6.40563 -16.8481 12
33 1 -0.560679 -0.93124 17.1888 11
34 1 -3.5647 -10.4817 6.43979 20
35 1 5.57807 -4.20261 12.7452 10
36 1 -11.6915 -0.447775 -0.178658 20
37 1 -12.8755 0.267646 9.05198 17
38 1 -3.1133 12.7143 0.147492 22
39 1 -2.16276 -13.8559 -10.6433 12
40 1 5.17603 -3.4405 -11.895 20
41 1 -0.881789 -3.41859 11.8806 18
42 1 -11.1214 4.51382 -0.0343077 21
43 1 8.44363 12.2886 -11.2221 12
44 1 2.03819 13.1372 6.57932 21
45 1 -8.78861 8.24609 -6.73054 23
46 1 -0.337732 13.9438 -1.36475 18
47 1 4.2875 -11.458 1.81586 18
48 1 10.6885 -9.71659 -7.84955 17
49 1 5.3147 -6.8624 -16.6301 11
50 1 -9.32284 8.88945 9.61371 13
51 1 -11.0112 -5.58882 -8.77524 17
52 1 -6.23458 7.81345 -5.39833 20
53 1 -8.82933 -7.30827 5.13489 19
54 1 -4.48141 14.952 5.87767 15
55 1 -13.4307 4.33298 -8.78458 14
56 1 -8.28934 10.5792 6.56979 16
57 1 -5.52135 -12.3538 6.37056 17
58 1 9.60125 -14.8155 -3.71973 11
59 1 5.64989 12.8416 12.3845 15
60 1 -14.0277 -1.01407 -9.04127 11
61 1 -9.99732 6.48795 -8.8924 19
62 1 4.20003 7.69129 12.0124 19
63 1 12.1592 -3.85736 -11.8967 14
64 1 7.53789 -9.22835 3.80342 16
65 1 -18.3054 -3.80323 3.1007 7
66 1 4.8019 17.1121 2.96438 17
67 1 8.22434 -0.496404 15.9474 14
68 1 -6.35253 -9.49464 4.74942 21
69 1 14.2103 1.42685 7.27692 14
70 1 -0.402728 10.7052 10.3068 23
71 1 -5.27279 -7.42298 -6.38427 20
72 1 -11.8285 7.90541 8.32533 12
73 1 -5.40077 13.5358 -1.67635 20
74 1 0.248553 9.53039 -10.5529 20
75 1 8.08439 17.4903 -4.41057 10
76 1 8.68279 -8.28591 8.35799 14
77 1 -2.86678 14.7179 -5.82318 15
78 1 -10.1151 8.82706 0.864253 21
79 1 -10.2491 -2.04161 14.3605 18
80 1 -2.99951 10.0041 4.96915 22
81 1 -5.78424 -3.84968 11.6932 18
82 1 13.5241 -7.82352 -7.54881 11
83 1 -8.30213 4.94734 4.63156 22
84 1 -9.3219 -12.8669 1.32991 20
85 1 11.0983 -6.49027 -6.65803 20
86 1 5.85001 -1.07586 -15.9572 16
87 1 -5.87476 1.49081 -15.9333 12
88 1 -0.179835 13.6244 1.85946 19
89 1 -4.66158 8.52725 -8.93645 18
90 1 1.9989 7.79757 16.69 12
91 1 -1.83619 11.9197 -6.30144 18
92 1 -15.8843 10.1938 -1.89234 5
93 1 -6.04718 -6.7517 10.507 19
94 1 14.4543 -3.69325 11.0935 8
95 1 4.49446 -5.8325 -10.6788 20
96 1 8.94287 0.945017 19.2791 10
97 1 -8.16694 -7.56607 -1.38259 21
98 1 -10.4856 -10.068 -2.3667 18
99 1 9.16048 -11.2047 4.32305 13
100 1 7.64518 1.51233 -13.7738 21
101 1 3.19573 20.5587 -1.36768 12
102 1 -7.4051 -12.2225 9.8504 13
103 1 -9.69878 -11.5429 8.85277 14
104 1 5.95216 -8.91358 -14.4004 11
105 1 11.2414 -7.23299 -3.19054 19
106 1 -3.67501 -13.7289 4.78328 15
107 1 -9.06015 -10.4919 -0.119297 21
108 1 16.2851 5.93729 6.61664 11
109 1 13.8068 1.25806 -9.59958 15
110 1 -11.8606 -6.1062 2.54817 21
111 1 10.3933 7.22403 5.01308 21
112 1 11.6557 9.30655 6.94691 17
113 1 -6.25365 2.16083 11.3162 20
114 1 -7.80099 10.8236 12.1088 8
115 1 -4.17236 12.3758 -7.89932 19
116 1 -0.200285 -3.52045 -11.3893 22
117 1 8.28622 -12.4819 -11.8393 12
118 1 -0.0777582 15.3166 -10.9332 10
119 1 7.96901 -2.07113 12.0503 16
120 1 -2.35858 0.722653 -16.9422 10
121 1 -2.36414 10.1218 -8.66187 21
122 1 11.283 -1.189 -6.6627 19
123 1 -11.3368 9.86851 -4.90168 17
124 1 -3.46554 15.1761 -2.44977 18
125 1 8.80288 3.46108 -8.02048 19
126 1 8.84059 -6.66186 2.2154 18
127 1 -4.21198 12.1252 10.2721 18
128 1 13.8053 8.96325 -5.11052 18
129 1 8.09007 12.0096 -6.65237 17
130 1 -6.83271 16.6096 2.3419 12
131 1 11.1103 10.4127 0.835225 20
132 1 -3.68522 9.43208 -5.41944 23
133 1 1.87718 15.0911 -8.29609 15
134 1 5.60357 8.30625 -13.6203 11
135 1 -13.426 -8.58397 3.59809 16
136 1 -12.4688 8.28666 -7.21151 14
137 1 -5.79845 -3.76545 -11.8196 21
138 1 -0.0459137 -9.4274 -15.7162 14
139 1 6.94788 15.2781 7.76754 14
140 1 -0.592277 13.861 8.09107 22
141 1 -12.7271 -5.16276 -4.36551 15
142 1 -13.9032 9.5766 1.22648 12
143 1 14.8128 -0.696383 -1.32589 15
144 1 -12.0432 2.22589 -14.1571 12
145 1 6.41148 -0.486878 18.6727 10
146 1 4.24622 20.3413 1.90085 11
147 1 -2.82653 9.80945 8.65502 21
148 1 2.36229 -6.70864 -18.4833 9
149 1 -2.31024 16.9492 6.22828 15
150 1 0.413212 12.6409 -8.97117 20
151 1 2.90007 -5.43407 13.9884 10
152 1 -9.28496 -4.56015 3.42873 20
153 1 -1.57743 -11.6841 -13.4063 13
154 1 -8.47787 11.4627 -11.4264 9
155 1 -3.73288 -10.2059 2.83791 20
156 1 0.51836 -15.0407 -3.18893 19
157 1 -6.1612 8.56548 -14.7497 10
158 1 -12.9203 2.7683 5.77791 17
159 1 7.93028 11.9235 0.0126195 20
160 1 -11.5416 6.77457 11.5831 8
161 1 -0.798885 -9.77083 11.3801 16
162 1 2.46698 15.2738 4.96607 20
163 1 -1.30304 7.49583 8.63509 23
164 1 12.2011 6.02429 13.1946 18
165 1 -8.56457 13.929 2.60298 16
166 1 10.5847 -4.16998 -8.76723 19
167 1 -4.19712 15.1604 8.6126 12
168 1 9.07498 -7.20609 -0.957089 18
169 1 -17.22 -0.240109 -1.13266 12
170 1 -6.34668 -12.7964 0.168967 20
171 1 9.44875 6.86589 12.7539 16
172 1 -14.2927 -1.08451 -1.86891 19
173 1 -3.2557 -13.0952 -1.45796 22
174 1 -0.0637954 10.5275 3.70353 21
175 1 1.3864 14.6152 10.6332 11
176 1 -6.69927 13.4879 -8.5792 13
177 1 -19.1418 -5.91808 -2.84878 5
178 1 -8.6998 0.645072 12.94 23
179 1 1.63195 -10.5657 3.27678 24
180 1 4.55843 -10.1521 10.767 13
181 1 -11.1635 11.7435 2.70367 14
182 1 13.81 -1.25837 9.02333 14
183 1 -5.49761 -7.13115 -13.4495 15
184 1 5.65518 2.40237 11.9964 16
185 1 6.35826 -13.3448 6.93261 11
186 1 -2.72625 3.42514 -11.5642 24
187 1 2.29918 -10.3429 -13.173 17
188 1 10.801 0.386231 -13.922 13
189 1 3.52188 6.7666 -13.3288 19
190 1 -8.52512 -4.39937 -10.5086 20
191 1 -6.54416 15.7526 -5.97486 11
192 1 -9.87636 -9.8898 11.6499 13
193 1 6.49421 18.4038 -1.556 17
194 1 -8.73734 3.22266 15.2472 11
195 1 -5.26483 13.1874 -5.16582 23
196 1 7.55292 1.42337 10.1087 20
197 1 -3.20454 -7.97391 -12.2826 18
198 1 -3.1505 9.08682 -11.4127 20
199 1 2.91433 6.89492 -9.98616 25
200 1 -9.56462 -9.33485 6.55296 18
201 1 -8.07487 7.32769 6.95259 18
202 1 -6.51859 9.60395 9.67637 17
203 1 -0.129722 -9.30941 -8.1514 19
204 1 -7.81515 -16.5415 -0.838195 11
205 1 8.84228 -12.3926 -1.50601 17
206 1 10.5045 9.19483 13.8393 16
207 1 5.17548 7.1372 -7.97223 22
208 1 -14.4947 10.0837 -5.17299 8
209 1 -0.18627 4.76874 9.97113 20
210 1 9.63539 -16.4302 2.59337 11
211 1 13.7228 1.21465 -6.74222 20
212 1 -11.1327 5.11569 3.13501 19
213 1 -10.7973 -7.30218 -3.55791 18
214 1 8.39274 3.99481 -11.2275 21
215 1 2.30038 -2.35466 12.5691 21
216 1 8.20738 11.442 -3.18057 21
217 1 -2.88054 -1.9186 -11.7176 23
218 1 1.6718 -15.7886 2.71458 11
219 1 7.78983 1.28183 -9.82933 23
220 1 -11.4124 -0.455571 3.2592 20
221 1 2.16845 -16.2925 -6.2008 14
222 1 -9.23862 -4.36366 -6.53251 17
223 1 6.69638 15.5211 -2.71722 18
224 1 -0.0799125 -0.839521 -12.6687 23
225 1 7.02541 5.92108 17.6361 14
226 1 16.1423 2.15973 1.15831 11
227 1 8.49817 -5.75508 -15.0727 12
228 1 -5.54207 -1.44639 -10.2276 21
229 1 -8.51925 3.86627 -12.511 18
230 1 -7.4954 -14.5687 7.93081 12
231 1 11.1132 -3.56965 12.1701 11
232 1 -7.38206 -7.27042 -11.2979 18
233 1 3.21598 9.22151 -11.533 21
234 1 2.32934 12.7001 0.455294 18
235 1 -7.49104 -3.07289 13.6949 15
236 1 -11.6339 -9.15622 -8.33801 14
237 1 -5.11291 -7.09488 -9.84346 21
238 1 -2.94352 9.15972 -14.6994 15
239 1 -6.22685 -9.85292 -5.12374 19
240 1 7.42316 -6.70434 -12.1185 21
241 1 10.8935 1.68769 -11.2934 19
242 1 11.7082 3.71462 0.378793 22
243 1 -8.29549 -4.9901 10.1633 17
244 1 -3.52696 -10.1645 0.10576 19
245 1 8.8717 4.13581 12.6945 19
246 1 -9.81454 -12.5863 5.96028 19
247 1 -0.534748 -11.9847 0.277013 20
248 1 -2.19392 17.7049 -1.30876 12
249 1 2.98631 -1.81154 -14.3204 23
250 1 -5.76972 -1.2741 -13.5375 22
251 1 -12.3908 -8.17859 9.76797 9
252 1 -1.16548 7.98433 11.9112 22
253 1 2.9071 -13.0456 -1.27433 15
254 1 -5.81173 -12.7842 -9.90481 15
255 1 -11.069 3.05163 -10.7284 22
256 1 11.5669 4.18438 3.69753 17
257 1 -5.78362 4.2465 -10.4895 19
258 1 5.13526 5.91916 -11.3131 25
259 1 5.27108 -14.9818 -8.01555 13
260 1 -8.17302 15.7966 -0.686238 13
261 1 2.21948 10.1317 5.18142 19
262 1 10.0136 0.843193 5.35837 19
263 1 -10.5243 0.296897 6.93363 21
264 1 -3.0495 -4.88107 13.3905 13
265 1 -7.9092 11.1357 1.37568 18
266 1 2.58321 -4.46938 -13.351 18
267 1 13.5841 13.2775 -3.36286 12
268 1 7.06077 -11.7679 1.22945 18
269 1 -0.402971 -0.991197 13.375 21
270 1 -13.1232 -2.72357 4.08088 20
271 1 2.10682 -17.988 -3.49128 10
272 1 -6.732 4.71617 13.0374 16
273 1 -9.46944 4.12565 11.7325 19
274 1 -11.3615 -2.44656 6.96791 22
275 1 -12.5539 -8.26978 6.40314 15
276 1 14.2193 -2.87902 -3.16188 17
277 1 -11.1536 -6.08414 7.42165 17
278 1 8.59916 -2.03084 -8.09554 24
279 1 9.65102 -11.9823 -6.03301 13
280 1 2.03666 16.6986 -5.57919 11
281 1 -8.51666 14.2946 -3.49062 13
282 1 12.2191 8.33046 10.7772 18
283 1 6.22189 -11.9764 -3.28239 18
284 1 -5.49121 11.2618 3.26963 16
285 1 3.47467 -7.46388 8.04037 20
286 1 11.482 -5.3623 4.29492 13
287 1 1.95029 -1.55857 15.5386 17
288 1 -1.03879 13.4098 5.17931 19
289 1 7.84889 9.49597 15.754 12
290 1 -8.69789 13.1394 -6.2597 16
291 1 -0.050739 -6.56717 -16.8943 13
292 1 5.87732 -14.8511 -12.0136 9
293 1 -12.2022 2.50135 10.389 13
294 1 -16.0758 2.13735 -3.14359 14
295 1 -4.76577 10.8473 0.26714 21
296 1 8.50668 -1.67021 8.4128 18
297 1 -12.187 -12.1903 -1.20535 17
298 1 6.01611 -6.70065 7.07445 19
299 1 -9.28781 -8.10429 14.3776 10
300 1 -13.559 7.82165 -3.73324 15
301 1 2.14214 -9.53513 -6.31839 19
302 1 -6.1278 -4.73344 -8.09595 20
303 1 8.99716 -2.16698 -15.393 10
304 1 5.18795 13.3266 5.39088 18
305 1 -11.3788 -1.25881 -3.57412 18
306 1 4.66012 -12.1195 -10.1791 21
307 1 9.86628 3.91319 -13.8589 11
308 1 -4.27693 -16.3175 -5.61605 9
309 1 -12.7303 -8.97164 -4.69846 15
310 1 10.5018 3.88205 18.4592 9
311 1 10.5634 1.3155 -5.0381 22
312 1 -5.38797 6.86983 -11.8487 19
313 1 0.0839733 19.708 0.00608581 9
314 1 -15.0528 -3.46472 -4.59778 11
315 1 -12.2962 8.37032 3.11239 15
316 1 -9.45613 9.55525 -1.9204 16
317 1 -8.64135 10.1535 3.80234 21
318 1 14.0983 3.01589 13.313 10
319 1 13.0123 -4.33463 -7.80969 16
320 1 9.12951 2.0932 15.6857 18
321 1 10.4967 1.31885 -8.28696 21
322 1 -5.5627 -15.0667 -1.83548 16
323 1 5.29829 -9.46054 -0.924638 19
324 1 11.727 -0.635593 7.25568 18
325 1 -8.44097 -8.10192 -4.99204 17
326 1 -6.39222 -9.2649 1.20355 23
327 1 -10.0829 -4.82032 12.6769 18
328 1 -4.11265 17.1077 3.92137 10
329 1 -16.1885 -9.37125 1.2141 9
330 1 5.85268 10.2734 13.9946 17
331 1 -8.73416 6.99756 -3.50823 23
332 1 2.9502 12.8013 -6.66731 18
333 1 5.24127 10.4392 6.92405 20
334 1 -15.8802 -9.67666 -3.65101 10
335 1 -2.55447 -7.61014 -7.90173 23
336 1 -14.3324 1.32221 0.661228 16
337 1 -11.1994 6.20197 -5.74081 20
338 1 4.13053 -9.02176 5.14427 21
339 1 -5.28358 -12.7344 -3.48844 20
340 1 11.1451 13.5355 8.19936 9
341 1 7.69902 6.37002 -13.6336 12
342 1 -13.0449 4.2614 -11.9585 11
343 1 0.233062 14.3842 -5.08701 15
344 1 -10.9385 3.1577 -6.78993 21
345 1 -0.824113 -12.5942 3.61082 21
346 1 10.7751 4.84857 6.65379 19
347 1 5.41948 11.8446 -11.7625 13
348 1 -17.2018 -1.66279 -3.28711 11
349 1 -5.99705 -12.3717 3.05618 19
350 1 4.75016 -8.98091 -11.2345 22
351 1 -13.0301 -0.459204 5.9005 19
352 1 -14.8564 1.25808 3.78383 15
353 1 -15.1584 7.0881 2.95997 10
354 1 -9.02717 1.11233 -13.9523 15
355 1 8.36837 -9.52197 -2.81429 17
356 1 0.523639 -11.9512 -9.70165 17
357 1 -3.3754 -4.69785 9.74368 19
358 1 -5.60056 5.32657 -15.849 12
359 1 5.75193 -11.8608 4.28187 24
360 1 5.43378 10.2499 -6.46073 20
361 1 -13.3294 8.09388 6.17024 11
362 1 -5.80116 -0.672987 13.4439 17
363 1 -12.307 -7.55362 -10.5018 11
364 1 -9.87128 -6.85059 11.3095 13
365 1 6.90325 -4.66999 10.2258 17
366 1 8.52501 -7.13721 5.2679 15
367 1 11.868 8.30763 -1.35075 20
368 1 -3.85393 3.85479 11.3653 18
369 1 2.2796 12.735 -3.14687 18
370 1 -2.10053 -13.5346 -4.69411 20
371 1 -2.61362 6.07515 17.5469 8
372 1 -0.655872 17.4331 3.45959 11
373 1 -9.25571 -10.4397 -7.23283 15
374 1 9.61947 17.4311 -0.580824 14
375 1 4.53296 7.98168 8.54014 20
376 1 -6.9509 1.33549 7.64879 22
377 1 -11.0682 2.94537 7.97802 20
378 1 -7.98183 -7.1522 -7.96219 19
379 1 -6.361 8.31448 4.58902 22
380 1 -3.53514 -10.6463 -6.67245 22
381 1 0.356225 -6.60738 -13.3314 22
382 1 -10.7541 -15.2251 -0.292928 13
383 1 10.2246 2.02266 8.07776 20
384 1 -7.99278 -5.06112 15.4564 10
385 1 -10.4807 4.55467 -14.4568 11
386 1 10.203 6.17406 -1.40155 21
387 1 -11.1052 -13.289 -3.72616 13
388 1 1.85663 18.3 3.21806 15
389 1 -5.30607 11.6357 13.5587 9
390 1 -14.1833 -5.02763 -1.37868 19
391 1 1.20947 17.9073 -2.30256 16
392 1 10.2929 14.8684 -9.58221 9
393 1 -5.44988 -10.6084 -8.34307 19
394 1 2.38038 -0.395666 18.6174 10
395 1 0.112445 -14.8732 -8.44112 12
396 1 1.63162 -4.6838 -9.63017 23
397 1 8.482 -14.2196 5.04549 15
398 1 -12.2326 6.45439 1.16539 19
399 1 4.6767 3.37952 16.9792 18
400 1 8.73335 9.2149 -1.30744 20
401 1 -6.81641 6.26092 -8.85705 20
402 1 -17.5019 -6.24482 0.420792 13
403 1 0.717433 16.6083 6.5038 17
404 1 -3.70021 0.859225 -13.4537 21
405 1 10.7558 7.16995 1.80121 22
406 1 7.97942 15.4938 -7.23638 13
407 1 17.5063 1.26531 -2.17721 9
408 1 2.04795 1.33938 -13.4352 23
409 1 -1.70144 -12.3652 6.80917 21
410 1 1.74948 -8.15284 11.7975 14
411 1 -8.27323 3.36563 -8.92743 19
412 1 -12.5885 -13.3262 1.89825 14
413 1 -4.80456 -12.7522 -12.8452 10
414 1 7.36897 17.4011 5.07756 11
415 1 2.71199 3.90573 -11.6233 20
416 1 4.22232 -0.0255708 16.5317 17
417 1 -14.052 -2.78097 7.58245 16
418 1 -0.560746 -14.9688 1.95306 14
419 1 -12.1223 -3.16838 1.67961 18
420 1 15.3328 -2.59448 -6.51505 11
421 1 11.3844 -1.81144 -3.20202 20
422 1 2.80508 -7.14478 -7.90807 20
423 1 4.87216 2.12118 -11.5946 23
424 1 10.7287 -6.24699 -13.0004 14
425 1 -5.91129 2.3059 14.6826 18
426 1 9.27121 15.0866 1.00167 18
427 1 -2.69807 -2.10309 -14.7535 21
428 1 2.40191 2.71414 -19.1292 8
429 1 -6.14472 -3.9478 8.36383 22
430 1 -5.37876 16.8235 -0.0906384 13
431 1 -8.28179 -3.89609 -13.907 17
432 1 -17.4728 -3.93435 -0.573728 15
433 1 -3.22549 -10.3793 -15.0163 11
434 1 -6.91765 -9.49927 11.9161 14
435 1 0.515836 10.4045 -6.87481 18
436 1 14.2421 9.23576 5.78184 14
437 1 16.6426 4.61771 3.6906 11
438 1 -7.89012 -14.9569 -4.13045 13
439 1 -5.40084 -4.23623 -14.9353 14
440 1 -3.08997 12.2274 6.88061 22
441 1 11.053 -1.58937 0.0513102 20
442 1 5.24525 15.9574 -9.10584 9
443 1 13.5214 5.97846 -6.46476 23
444 1 4.76025 9.50875 16.8486 11
445 1 -8.06786 3.60899 7.92416 22
446 1 5.30032 10.6688 10.3398 20
447 1 7.13403 3.01137 18.3386 21
448 1 2.36749 4.11855 -14.9252 19
449 1 -3.18284 0.582776 12.3189 21
450 1 8.15038 9.23975 5.3181 20
451 1 8.63902 8.90365 -4.98481 20
452 1 -8.20597 10.7218 -4.75139 20
453 1 -2.65612 12.1107 -3.08567 19
454 1 10.6014 -1.21188 14.071 12
455 1 11.3347 -1.34819 -10.0804 21
456 1 11.0356 -9.5206 -1.61306 13
457 1 12.2715 10.6974 12.7219 10
458 1 -14.0823 -7.33152 0.9974 17
459 1 -3.12033 6.2567 -10.3179 23
460 1 -16.1861 -1.88824 4.77063 13
461 1 -3.12724 12.5692 -11.1418 14
462 1 6.27181 -16.3363 -4.87717 10
463 1 5.77079 -0.76979 -9.68406 21
464 1 -1.10237 17.3626 -4.65363 10
465 1 -8.39903 -7.12246 -14.9022 8
466 1 2.78537 -13.5126 4.41579 20
467 1 -11.4959 -6.09129 -0.825368 20
468 1 1.15613 12.4045 -11.9687 16
469 1 -0.657406 6.50577 15.3121 20
470 1 -8.89924 -4.35652 6.4571 21
471 1 2.24819 -10.1402 -10.0526 22
472 1 4.15714 -6.25363 10.5753 17
473 1 -8.477 6.98451 -0.33629 22
474 1 4.85586 3.97052 20.9095 10
475 1 4.50897 18.0727 -3.71446 17
476 1 10.5507 -3.97647 -5.49125 20
477 1 1.58257 6.88577 10.2561 23
478 1 1.84513 6.80732 -16.2763 13
479 1 -4.10508 -13.2291 8.61989 15
480 1 3.83916 -4.27232 -17.2965 13
481 1 4.31947 17.1159 6.36445 12
482 1 10.8174 5.57281 -11.3527 14
483 1 -2.55671 -4.71469 -13.0878 25
484 1 -3.48962 -10.3021 -3.5988 20
485 1 -10.6297 -5.63184 -12.6977 14
486 1 14.5013 3.11218 -1.27745 20
487 1 16.0947 6.28783 -5.23544 12
488 1 11.9287 -6.40153 -9.88084 16
489 1 14.8459 8.15596 12.8218 9
490 1 5.36617 -9.29609 -4.35011 21
491 1 4.40745 4.42221 -16.664 13
492 1 8.65089 12.6437 3.35163 21
493 1 8.97023 11.9158 13.1913 13
494 1 14.3572 11.9759 -0.112702 12
495 1 12.9721 0.726123 0.656528 22
496 1 11.5064 3.72598 -5.95411 23
497 1 6.96674 4.4111 15.1167 21
498 1 13.8413 6.03491 11.3551 13
499 1 10.7309 11.538 -1.55757 22
500 1 1.07109 3.95686 14.877 20
501 1 14.6569 -1.68633 -9.32201 12
502 1 6.25867 1.16115 15.1398 21
503 1 -8.33868 -1.83826 -8.76533 20
504 1 14.0884 3.59981 5.56027 20
505 1 -9.66777 5.66579 9.19396 19
506 1 7.5345 9.45349 8.62176 21
507 1 6.80686 6.7233 13.1955 23
508 1 2.25967 9.85295 8.38109 19
509 1 -0.202272 16.5645 9.37807 11
510 1 -0.506201 -14.9896 5.54064 12
511 1 -5.24184 10.7312 -3.26051 18
512 1 15.5107 8.5855 -7.73987 10
513 1 8.6448 -3.34019 -12.6124 20
514 1 0.436461 16.9091 0.614622 18
515 1 0.598897 -12.7346 -6.14017 20
516 1 9.93629 -9.3334 -11.3515 16
517 1 -10.8212 5.45055 6.38642 21
518 1 -2.52118 6.37177 -13.6626 23
519 1 -3.07302 -13.3635 1.90359 18
520 1 -6.51424 1.14652 -11.7046 22
521 1 -12.1013 0.783444 -5.21224 19
522 1 10.8276 -3.77815 2.01782 20
523 1 13.4779 6.13971 0.105259 16
524 1 -1.14951 -9.64883 4.83304 21
525 1 -12.4202 -3.32646 -6.87312 13
526 1 1.25444 1.33937 -16.289 17
527 1 -1.47456 4.87133 13.0956 20
528 1 7.98938 9.37889 -11.515 15
529 1 13.3893 -0.359837 12.0684 14
530 1 10.9105 5.61591 -8.35471 16
531 1 11.5087 13.3696 2.71128 15
532 1 2.70603 -13.5714 -8.25453 16
533 1 -13.215 0.00262211 14.3966 12
534 1 14.2805 -1.85765 2.19006 15
535 1 -1.97971 11.4057 13.4725 16
536 1 7.71611 14.6055 -11.7859 7
537 1 -12.1403 11.7343 -7.04094 10
538 1 11.1616 10.1191 3.72121 18
539 1 -16.3617 -11.8114 -0.911602 6
540 1 13.8586 -5.36513 1.44209 11
541 1 7.63717 18.6945 1.35836 16
542 1 -3.71712 7.1279 10.2784 17
543 1 -13.5058 -8.56891 -1.78049 20
544 1 -9.49216 0.876321 -10.0044 19
545 1 8.65537 0.862259 12.8315 19
546 1 -3.58181 -8.18443 12.5871 12
547 1 9.26339 6.58404 15.538 16
548 1 -5.8801 14.0438 1.17711 20
549 1 0.138259 -1.10224 -16.0308 19
550 1 -8.56422 -2.17717 8.37462 21
551 1 8.43448 -1.04149 -11.2133 20
552 1 8.69536 -7.59864 -8.63915 19
553 1 8.25607 4.36508 8.43069 20
554 1 -7.98088 -0.619989 16.2571 11
555 1 10.3744 7.2693 8.56861 20
556 1 0.0618314 -3.61385 14.598 13
557 1 -4.35468 6.36431 13.5615 18
558 1 -0.0317832 -3.66166 -14.6117 20
559 1 -9.47118 0.478055 9.70157 20
560 1 2.11835 0.886612 13.7052 21
561 1 -12.5154 -13.6045 6.02393 12
562 1 13.6347 5.93631 -3.00322 22
563 1 4.83962 -11.9663 -6.50572 22
564 1 6.12743 9.66095 -3.09043 18
565 1 9.85313 17.0471 3.14614 10
566 1 2.69858 -0.858847 -17.8394 15
567 1 3.22981 15.457 -1.70814 21
568 1 14.3233 8.52058 1.28704 16
569 1 -6.15313 -9.7131 -1.71799 21
570 1 -1.08904 2.09742 -14.0641 20
571 1 -9.20112 12.4827 -0.902428 12
572 1 7.36181 -9.61728 -9.95835 21
573 1 10.5999 9.83021 -7.057 20
574 1 11.151 16.1365 -3.70618 10
575 1 11.2797 3.97692 15.155 14
576 1 11.8149 1.36217 13.544 15
577 1 -0.91745 -10.075 8.20227 21
578 1 -5.11461 11.2398 -13.5875 12
579 1 0.507063 12.7302 12.9412 14
580 1 2.4807 -16.4504 -12.443 6
581 1 11.216 14.7053 -6.81202 10
582 1 7.88144 12.6384 6.85011 22
583 1 13.4668 -5.27982 -4.88765 16
584 1 4.96069 6.57328 15.5786 18
585 1 -15.148 -4.4 1.86769 19
586 1 7.2753 -15.098 -2.09512 14
587 1 -6.14171 16.9846 -2.82619 12
588 1 5.14793 10.5359 0.279808 21
589 1 -12.823 -5.38796 4.9737 17
590 1 -0.851846 3.74239 17.7761 16
591 1 -7.93217 8.32311 -10.5745 20
592 1 -5.87224 11.2929 -10.7891 17
593 1 6.86727 -16.7451 0.39003 12
594 1 10.5262 6.6143 -4.68541 21
595 1 -11.7842 -0.624622 11.7468 21
596 1 5.95995 -3.78255 -14.9364 18
597 1 1.96718 -11.1451 9.52055 15
598 1 5.24494 12.6952 -1.77121 18
599 1 -0.818797 1.52567 15.0019 23
600 1 -9.58273 -8.57338 -11.7285 13
601 1 -5.27177 -9.74867 -11.855 18
602 1 -8.3566 -13.6962 -8.11097 12
603 1 5.95007 13.2914 -8.14582 14
604 1 -2.97568 12.7709 3.13474 19
605 1 4.72472 -9.78161 -8.27563 19
606 1 9.96116 -15.1197 -0.34486 12
607 1 0.72963 -7.48555 9.13559 23
608 1 17.6973 3.00637 -5.35787 10
609 1 -2.80979 -16.1492 -3.17427 14
610 1 -9.29971 -2.2183 11.1575 20
611 1 -1.6741 -15.9323 -0.380142 12
612 1 -8.0184 -12.1581 -4.63881 17
613 1 -15.1121 -1.71309 11.2301 9
614 1 -8.96019 -16.1031 2.24644 13
615 1 14.6638 9.03369 -1.80553 11
616 1 -2.64076 15.7287 1.78441 16
617 1 -14.8321 3.90087 1.63721 14
618 1 11.2752 -1.18748 3.47901 18
619 1 -11.3475 -2.77407 -10.4453 18
620 1 12.643 3.49366 -8.71206 20
621 1 8.24722 12.8693 10.1711 16
622 1 -11.1384 -0.955859 -7.15316 20
623 1 -11.0655 -6.76288 -6.54801 16
624 1 0.756318 6.32523 19.7061 7
625 1 7.99806 6.59798 -10.01 18
626 1 9.22359 14.7318 5.40678 15
627 1 -4.16625 1.1913 9.84654 15
628 1 2.02164 -13.1402 1.81078 21
629 1 -9.69606 -16.0459 5.91952 10
630 1 10.449 10.9403 9.33039 15
631 1 1.86192 -7.38954 -11.3819 23
632 1 5.68645 10.6299 3.5367 19
633 1 -8.27045 -7.70639 8.34601 18
634 1 7.8177 9.79265 -8.07881 20
635 1 -0.669227 -16.9271 -5.61721 12
636 1 7.19714 -17.102 3.87081 9
637 1 4.33953 -16.1073 -1.54739 12
638 1 5.90996 3.97746 -9.66843 18
639 1 6.21288 21.2863 -0.0839873 9
640 1 -3.35265 3.56472 -15.095 19
641 1 -0.3466 2.26399 11.9625 23
642 1 1.92614 9.81236 -14.2791 11
643 1 -10.8902 -1.34505 -13.906 14
644 1 -8.98183 -5.08465 -2.982 18
645 1 5.56075 16.4292 -5.54885 13
646 1 -1.93256 -4.34921 -16.6796 15
647 1 11.5583 3.66666 -2.82595 22
648 1 12.4437 -9.48745 -5.10593 12
649 1 -3.18582 3.39417 15.2368 16
650 1 5.13147 -8.91033 2.44228 23
651 1 14.3113 -5.98841 -1.87793 12
652 1 9.46328 -5.35987 9.84252 14
653 1 -0.25057 10.874 7.04155 21
654 1 -11.5803 2.72973 13.9736 12
655 1 -6.35512 4.89004 9.65285 18
656 1 -1.00432 -12.9384 9.84787 14
657 1 7.54347 9.75673 11.882 20
658 1 -15.5565 -1.39764 1.51389 19
659 1 8.87427 -6.97624 -4.57469 19
660 1 -9.25033 10.8362 -8.21239 16
661 1 1.60556 -13.7304 7.26535 14
662 1 1.86559 1.50712 16.8454 19
663 1 3.42123 17.9591 -0.070981 23
664 1 1.48672 -10.0691 6.40978 23
665 1 2.62009 3.86575 11.7233 18
666 1 -15.8592 -6.42889 -2.76615 15
667 1 1.07142 9.5347 14.789 15
668 1 6.11874 13.6925 2.26271 15
669 1 -8.95682 -10.5115 3.4025 19
670 1 -7.10163 -14.9704 4.62622 15
671 1 7.66256 -4.32739 7.0034 20
672 1 10.5439 -5.99795 7.2488 14
673 1 7.31248 6.99202 7.05096 19
674 1 -1.34269 -6.87779 -10.3427 24
675 1 -0.942856 1.55366 -11.2277 21
676 1 -3.8858 -2.00913 11.6533 19
677 1 2.80903 15.1411 1.47431 20
678 1 13.1691 1.20004 3.47413 20
679 1 3.00855 9.43337 -8.01111 21
680 1 -6.23589 8.63158 14.01 12
681 1 7.16245 6.98147 10.2659 19
682 1 7.46532 -3.63384 -10.1523 16
683 1 -8.72225 -13.1153 -1.82519 23
684 1 14.6089 -0.330571 5.47988 11
685 1 2.78265 -1.93423 -11.396 23
686 1 4.00463 4.82245 13.8647 16
687 1 9.84437 -11.8541 -9.83169 12
688 1 5.0021 1.57246 -18.4392 9
689 1 13.6782 6.15024 -8.82397 14
690 1 13.4723 -2.8988 -0.407514 17
691 1 1.71971 -4.7788 10.2198 19
692 1 -2.78398 -10.5554 -10.0482 21
693 1 6.21869 16.1724 0.219003 18
694 1 -10.6218 2.40126 4.70178 21
695 1 11.7098 9.85065 -4.12056 20
696 1 13.3762 6.33539 3.73057 20
697 1 0.908372 -3.26277 -18.2362 12
698 1 -5.44641 9.63604 6.77707 18
699 1 15.0108 8.80158 9.27939 9
700 1 10.9738 12.6539 -4.78548 19
701 1 4.73256 1.34762 -15.0773 20
702 1 11.0124 -4.43663 -1.70222 21
703 1 -12.6864 1.98119 -2.0222 21
704 1 14.2976 3.89617 1.88221 19
705 1 -11.8863 -9.64025 1.04845 20
706 1 -10.9599 9.15865 -9.86364 13
707 1 5.05456 5.10552 10.1063 22
708 1 -8.97581 0.727203 -6.9064 21
709 1 -14.6805 5.45652 5.13176 10
710 1 7.69024 -10.1641 -6.47991 22
711 1 -13.3869 -11.9447 -5.10715 9
712 1 11.5026 -6.77178 0.560665 16
713 1 -13.9211 4.83738 -1.49291 15
714 1 13.5445 6.78983 7.07105 20
715 1 -5.96694 -6.11278 6.38057 20
716 1 8.5531 4.40492 20.5803 9
717 1 12.1746 -4.29213 8.79186 12
718 1 -12.2295 2.52875 1.97289 20
719 1 1.55275 9.78319 11.953 18
720 1 10.4735 11.491 -9.33766 14
721 1 -2.70934 -7.45833 -15.1655 14
722 1 -6.3884 12.8841 7.25386 15
723 1 -12.4868 -10.949 7.42357 14
724 1 13.3221 9.53676 -9.09385 8
725 1 1.32734 6.561 13.1099 20
726 1 16.4331 0.489135 -7.45077 13
727 1 6.55881 -8.01365 10.3345 15
728 1 -1.27415 11.3167 -13.444 15
729 1 5.66525 8.91839 -10.197 21
730 1 -6.23504 -0.968643 10.0129 20
731 1 16.1339 7.81389 3.48043 9
732 1 -3.81663 -4.41845 -9.54804 21
733 1 12.2211 14.6691 -0.57529 14
734 1 -14.9216 -0.0562447 -4.27015 17
735 1 -3.73605 -10.6744 9.98395 19
736 1 3.46713 14.4119 -11.2608 14
737 1 4.68906 -0.852167 10.5222 18
738 1 0.350784 -12.0728 -3.17089 16
739 1 -7.31254 15.845 5.45645 10
740 1 -13.8582 4.19993 -4.91639 17
741 1 13.7313 -0.92975 -12.2134 11
742 1 3.2593 -13.9057 -13.6593 10
743 1 -9.0363 7.13105 2.77206 18
744 1 12.9542 11.8287 -7.20905 12
745 1 4.57759 -6.36997 -13.4022 19
746 1 -8.1578 -11.4974 -11.3079 10
747 1 2.6529 -10.1677 -3.14224 17
748 1 -2.65898 8.87353 15.3541 15
749 1 3.72987 -13.2998 -4.1191 18
750 1 -0.47987 8.10902 -15.0147 16
751 1 15.9953 0.0486024 -4.37827 15
752 1 7.88584 9.21846 1.87123 22
753 1 1.12836 -16.7486 -0.640594 11
754 1 2.86841 -8.12224 -15.4186 15
755 1 14.563 3.15265 -4.24085 22
756 1 0.248116 4.91736 -13.3711 22
757 1 -3.14606 -7.72173 8.25481 19
758 1 8.1794 6.29632 -6.69609 19
759 1 -11.1592 4.54722 -3.60855 21
760 1 -13.4728 4.77842 7.885 14
761 1 3.59765 6.80522 19.0102 12
762 1 -6.50203 -9.96131 8.41105 17
763 1 3.17394 12.2231 3.29302 19
764 1 5.09557 -14.9447 2.17834 18
765 1 5.16683 12.7411 -4.94562 19
766 1 -3.5176 9.36913 11.8989 21
767 1 -3.45423 0.0189692 15.7126 12
768 1 -9.43934 13.3224 5.2728 13
769 1 -6.35029 -6.98123 14.0264 13
770 1 4.29272 -11.8615 7.62956 16
771 1 10.968 3.99518 10.1946 18
772 1 7.71559 -4.36056 -6.5908 20
773 1 7.25774 -12.8708 -8.37823 19
774 1 -7.76667 -1.41085 -15.4486 12
775 1 -2.64365e-04 4.00966 -16.5474 16
776 1 5.17394 13.2727 8.51577 18
777 1 -12.794 -3.43398 13.593 11
778 1 -6.26302 10.378 -6.93865 21
779 1 -14.6358 1.9608 -6.8195 14
780 1 9.22007 14.5571 -1.9307 17
781 1 -10.9839 -14.7714 3.65905 17
782 1 11.3146 12.0395 5.59618 16
783 1 -11.4478 -11.1854 -10.6175 9
784 1 3.14605 15.5723 8.426 16
785 1 -10.4717 0.856642 16.2048 11
786 1 -3.13779 -13.99 -7.51525 14
787 1 10.567 -0.00841074 10.3947 19
788 1 5.34964 -15.3626 5.34942 13
789 1 3.24157 11.3373 14.8765 11
790 1 11.863 -2.92427 -14.6819 11
791 1 9.84584 -10.0669 0.835697 15
792 1 5.86678 -0.783551 -12.9717 21
793 1 -12.4499 0.0476182 -12.0163 14
794 1 -10.539 6.53695 -12.0584 14
795 1 -7.87862 7.49559 12.2371 17
796 1 10.2786 -3.15281 5.91534 18
797 1 -9.28757 -7.77247 1.77995 19
798 1 13.3709 0.479095 -3.23954 21
799 1 0.272646 7.07725 -11.6343 21
800 1 13.5517 10.9116 3.19419 13
801 1 -1.8659 13.5872 10.7229 14
802 1 -14.6656 -11.0863 5.21978 10
803 1 7.4096 -13.9572 -5.58116 18
804 2 -11.2965 1.08087 -10.14 23
805 2 -5.33804 12.5832 -0.0882815 18
806 2 2.05954 -0.831159 -12.686 22
807 2 -6.12002 7.03994 12.9706 15
808 2 3.40099 -15.1178 -7.28702 13
809 2 -11.6086 -7.41851 -8.5331 14
810 2 1.23414 -0.654377 17.2495 14
811 2 6.91458 1.26042 18.9986 18
812 2 -11.0763 -10.3139 -0.440841 19
813 2 -11.9851 4.02071 -5.4758 20
814 2 1.89448 13.6287 2.09591 16
815 2 -12.3541 1.32856 0.153259 21
816 2 5.94597 15.1102 -7.5603 14
817 2 10.7449 3.762 2.12774 19
818 2 -1.13206 11.4689 -8.00971 20
819 2 6.46866 17.7531 -3.52031 15
820 2 -11.8453 -2.05249 -12.3459 12
821 2 -14.2331 -10.3744 -4.73916 10
822 2 1.82695 4.77701 10.0408 21
823 2 8.69449 -3.83553 -8.58303 21
824 2 3.21762 -14.6213 2.78564 17
825 2 -4.72338 9.89679 -1.57941 20
826 2 -14.067 3.80406 -7.02044 13
827 2 10.1552 4.30444 4.9899 22
828 2 10.8056 -10.2401 -9.79251 16
829 2 -12.2006 -8.94913 -2.88581 16
830 2 -8.31655 -3.59587 4.67829 23
831 2 -5.2566 -13.5621 1.68599 20
832 2 9.83987 -5.87116 5.34177 16
833 2 -1.82634 -14.0594 -8.72328 13
834 2 6.01898 -1.0546 15.9313 14
835 2 3.73779 9.91884 -9.99574 20
836 2 1.35942 -14.1795 5.53974 15
837 2 -16.3566 -10.934 -2.53099 6
838 2 2.32168 5.04361 13.4618 19
839 2 -8.31916 8.06981 1.2305 22
840 2 -0.809312 3.26081 14.101 20
841 2 -8.83583 14.2383 -1.48923 11
842 2 9.47817 -13.2471 3.72259 12
843 2 2.56129 12.8394 -8.48132 20
844 2 10.9284 13.8859 6.24759 12
845 2 7.98139 17.9453 3.0729 14
846 2 6.97986 -3.8204 -12.0953 20
847 2 -7.80954 9.11238 10.9207 13
848 2 5.08364 3.23846 -15.0348 16
849 2 -3.39121 7.2748 -11.9649 18
850 2 13.3124 9.62671 -3.21946 17
851 2 -9.29427 -4.03233 14.4556 14
852 2 -14.2485 7.34294 4.69233 11
853 2 13.1475 -1.04622 -10.3516 14
854 2 -10.1533 -6.5719 13.6234 13
855 2 4.85884 -13.4694 -11.4422 18
856 2 -0.736217 -1.85148 -14.2747 21
857 2 -13.6512 -10.6518 3.55496 18
858 2 10.6813 9.76935 -1.11227 20
859 2 -3.45322 10.8431 3.08424 20
860 2 -7.91118 -12.7207 -9.67119 12
861 2 -3.15585 13.3416 5.17048 18
862 2 8.69386 0.564184 17.2773 13
863 2 2.15933 -6.69622 10.5374 16
864 2 16.4866 6.81801 5.04627 10
865 2 6.69522 15.5062 -10.4406 12
866 2 -11.5847 1.38331 -3.34692 22
867 2 12.8843 4.79033 10.1701 18
868 2 10.954 -10.7082 -6.38133 12
869 2 7.17891 -13.1989 -2.07058 18
870 2 -2.51271 11.6602 9.54818 21
871 2 5.43232 -9.82551 4.05881 24
872 2 11.0268 -3.5387 4.07831 14
873 2 12.8227 10.4943 4.93137 15