ITEM: TIMESTEP
1000
ITEM: NUMBER OF ATOMS
2000
ITEM: BOX BOUNDS pp pp pp
-30.0 30.0
-30.0 30.0
-30.0 30.0
ITEM: ATOMS id type x y z Coordination
1 1 -10.5379 5.07039 -15.523 11
2 1 -4.37981 -10.2207 -9.2774 19
3 1 2.96492 12.1785 12.4746 16
4 1 6.78061 -11.3829 6.31493 14
5 1 -10.9792 8.6765 -3.01454 17
6 1 11.2469 -10.585 -11.5302 10
7 1 -11.4041 2.9672 -7.82708 22
8 1 -1.01764 -7.44025 10.4905 16
9 1 -9.48285 -0.790231 -12.2562 22
10 1 -13.3972 -9.77305 5.81762 14
11 1 12.8722 1.21091 -10.3271 15
12 1 -4.10783 -14.0345 2.27986 18
13 1 -14.2911 -8.71516 3.22466 13
14 1 1.14687 4.30637 16.9167 15
15 1 -0.733144 5.22419 9.45708 19
16 1 -1.17459 11.4581 -9.23537 22
17 1 3.06516 -0.365599 12.6782 20
18 1 -9.02217 -0.793059 -17.4379 9
19 1 -14.4406 -3.46964 14.164 11
20 1 15.1314 5.30364 8.3234 13
21 1 2.38671 9.25115 -12.2317 18
22 1 3.14307 5.77276 -14.0015 18
23 1 15.2429 3.01261 13.0818 13
24 1 -14.2252 3.99002 -8.74692 13
25 1 -11.4622 11.2194 9.9723 12
26 1 6.47018 -14.7907 5.79064 13
27 1 2.64626 -14.3492 -11.2456 15
28 1 9.57943 -13.1939 0.904306 12
29 1 -7.74998 -14.078 -5.09109 13
30 1 -13.4482 -4.88949 12.1401 17
31 1 0.904892 -8.34189 -14.9646 21
32 1 9.73157 -10.6827 -14.1207 9
33 1 -3.25292 5.16323 -17.7452 12
34 1 0.954072 4.93811 13.515 19
35 1 -1.10344 -11.9171 6.8747 20
36 1 6.12637 -4.63311 11.9192 14
37 1 -12.6706 -2.10281 2.10891 16
38 1 -17.4862 -2.13796 8.54802 12
39 1 -11.0543 1.18494 -4.3291 18
40 1 -3.74042 13.3446 -2.73722 18
41 1 -0.39422 -14.6413 -11.6672 11
42 1 1.66483 1.8284 -10.7108 17
43 1 5.10709 -6.44537 -12.3607 17
44 1 -2.64553 -2.57859 13.217 16
45 1 -12.7723 6.26921 -1.38664 19
46 1 3.22594 12.2945 -12.5833 15
47 1 1.58661 13.5002 8.6914 20
48 1 -9.16972 9.25 -8.14142 14
49 1 -1.64418 13.9475 -0.907544 21
50 1 1.35545 -11.7015 2.437 21
51 1 6.06226 -8.63505 -6.52281 15
52 1 6.3102 -6.49057 -17.1764 11
53 1 -10.285 10.3862 12.9985 11
54 1 -12.9944 -4.63814 -10.5643 14
55 1 -8.41515 9.50546 -4.19173 15
56 1 -8.96728 -10.5992 7.04429 19
57 1 -2.81513 13.5659 12.1967 14
58 1 -11.2895 5.94734 -7.34102 17
59 1 -6.55048 9.86704 14.2636 15
60 1 -6.67573 -15.5866 8.38043 15
61 1 0.811419 6.24068 7.5948 15
62 1 5.94645 -16.3956 -3.25257 11
63 1 4.37086 12.9249 15.2787 9
64 1 -14.1017 1.60825 -11.3772 11
65 1 -13.757 7.12795 -11.6748 6
66 1 6.00833 6.95498 11.5663 18
67 1 12.6559 -4.289 -10.2241 13
68 1 8.68244 -12.654 4.28087 15
69 1 -17.1903 -2.64538 5.80708 9
70 1 5.78243 16.2205 6.48662 18
71 1 5.30411 -2.39953 14.2359 15
72 1 -6.00507 -12.4589 6.96571 19
73 1 -10.555 -2.60448 -0.295625 18
74 1 12.7513 3.35035 7.05252 22
75 1 -1.91862 11.3156 9.89591 21
76 1 5.97468 -0.903269 7.88828 13
77 1 -3.77465 -7.02804 -9.09252 18
78 1 -12.7282 8.69143 8.56763 9
79 1 -8.17385 11.7933 -1.84234 16
80 1 -2.69262 8.6647 -10.1143 17
81 1 6.47878 -3.67314 -6.13631 13
82 1 8.84798 13.19 -7.33201 10
83 1 8.27573 -7.55281 3.4061 16
84 1 5.63808 -9.14144 9.31522 15
85 1 -5.38025 16.024 -4.61518 12
86 1 -11.0705 12.2995 4.28275 15
87 1 -10.2347 -4.96184 12.6619 19
88 1 -6.0604 10.2462 6.1109 16
89 1 -6.54372 -5.90978 10.1407 16
90 1 14.2529 -8.73163 -4.71455 12
91 1 -10.9749 3.96086 4.75044 14
92 1 -12.0269 -15.4395 2.9491 7
93 1 9.25546 -8.76202 -5.59774 16
94 1 3.69744 1.28838 -13.644 16
95 1 -5.59957 -0.509703 -15.6479 19
96 1 -0.947734 13.225 2.49011 21
97 1 -6.24934 7.94407 -9.03941 16
98 1 1.2801 9.36728 19.176 11
99 1 -0.353426 15.6439 -6.87059 16
100 1 -14.2112 12.2538 0.274519 11
101 1 1.08302 13.4843 0.432491 19
102 1 -6.64866 -9.62791 9.59962 21
103 1 15.0608 -0.539788 9.67786 11
104 1 0.00797301 -5.7415 -8.75662 15
105 1 4.80833 -7.4106 -9.46808 16
106 1 -3.25898 5.73043 7.43456 16
107 1 5.38089 -0.313338 16.5682 12
108 1 -11.3413 -6.65943 -1.59193 18
109 1 -9.02754 -7.81427 -3.97627 19
110 1 9.61962 -10.0001 0.561975 14
111 1 -4.74452 8.67358 1.84075 18
112 1 5.66372 1.96477 -15.6254 17
113 1 5.84246 18.4385 -1.11863 12
114 1 -9.60704 -13.5849 11.8498 14
115 1 -11.4832 -14.8758 9.82511 13
116 1 4.34884 -9.13367 -15.712 13
117 1 2.85654 7.23055 -7.51215 15
118 1 12.4456 -11.0922 0.209315 9
119 1 -1.43066 -16.3075 4.81147 13
120 1 -8.40767 -10.5184 1.29531 15
121 1 17.4768 7.96957 10.7854 11
122 1 14.6786 -3.33406 -7.02991 13
123 1 -15.6358 -4.92466 3.51332 12
124 1 10.8462 9.15855 6.16472 18
125 1 15.1565 9.51995 4.82833 11
126 1 -6.69988 4.00553 16.8134 10
127 1 -4.89411 11.329 11.6852 22
128 1 -5.77293 13.0122 -7.20251 16
129 1 -1.19638 -6.10961 -11.2829 19
130 1 8.04586 -12.0992 -11.9297 14
131 1 1.32492 15.2616 -12.0873 11
132 1 8.06791 -2.30569 12.5534 17
133 1 0.514248 -1.62125 -19.2715 9
134 1 -2.71566 9.45087 -6.15936 16
135 1 11.4458 -0.343044 -5.05011 13
136 1 -10.7636 9.27719 -6.11105 15
137 1 -8.6735 14.9983 -0.592531 12
138 1 9.93685 1.86557 -11.248 22
139 1 9.58223 -9.22865 5.39754 12
140 1 -5.35557 4.61691 -6.39807 16
141 1 -7.24658 14.2454 10.365 12
142 1 14.9406 8.08953 -8.7303 10
143 1 4.10826 12.9679 -1.87925 21
144 1 -4.22624 17.0539 1.7006 13
145 1 9.36432 10.6854 -0.412769 18
146 1 -2.11681 10.2546 -3.24544 13
147 1 1.35106 16.0231 -9.38269 16
148 1 4.84347 11.5558 -15.3165 6
149 1 -13.6309 -11.5344 2.72102 10
150 1 -15.048 9.35726 -2.04851 11
151 1 -4.219 -2.92776 -12.8034 18
152 1 1.32042 -10.7605 -16.4315 14
153 1 9.75277 14.0993 9.97736 12
154 1 0.710282 16.4742 8.93539 13
155 1 -12.5989 -3.02916 -4.58274 18
156 1 -13.7265 13.4668 3.66112 8
157 1 17.0073 -1.07562 -3.7275 9
158 1 -11.2607 1.77089 -16.6586 9
159 1 6.52112 2.84693 16.9179 15
160 1 4.31038 16.9698 4.17732 18
161 1 -4.53378 9.79052 9.1208 23
162 1 2.71202 -7.86574 -17.7751 14
163 1 -4.31747 13.5974 9.72127 17
164 1 -3.08389 13.048 -5.97409 23
165 1 2.85496 -3.44322 12.4885 17
166 1 -12.5277 -6.27132 3.96788 19
167 1 -3.00412 -12.6943 -13.6928 13
168 1 -9.93705 10.89 -10.8874 7
169 1 -3.62955 -12.0266 5.32569 19
170 1 3.3907 -15.2046 -5.25012 15
171 1 -2.94353 10.8727 -12.2164 17
172 1 -15.5315 0.730179 9.9279 12
173 1 11.3422 9.4869 -5.17666 17
174 1 -7.16002 7.08234 15.9657 11
175 1 -0.634637 -10.2827 9.77612 15
176 1 -10.4125 2.58354 -1.02441 10
177 1 1.27573 17.2297 4.91144 11
178 1 0.226505 7.52175 11.3867 19
179 1 14.2503 5.41899 15.2723 13
180 1 -5.94429 12.9993 4.03953 16
181 1 12.5923 -7.28984 -7.60665 12
182 1 -5.9948 12.9099 13.3871 11
183 1 -6.44734 3.56152 -11.6177 19
184 1 13.5136 -7.16855 0.645856 14
185 1 -6.42541 -6.31772 5.80117 13
186 1 -15.5981 0.68418 6.48323 10
187 1 -8.53589 -11.1713 4.16676 16
188 1 6.4413 7.15352 15.5728 19
189 1 -13.8858 0.62284 -2.84137 16
190 1 -2.52718 -15.4712 -1.01372 19
191 1 6.76283 -9.49716 -3.66848 15
192 1 -3.15328 9.18936 4.6852 17
193 1 5.40386 14.6271 12.6128 10
194 1 -8.94973 -1.03362 -5.78233 15
195 1 -7.25262 11.8602 -9.24476 15
196 1 -13.3343 -4.53542 -7.10691 17
197 1 -9.19147 -1.49866 11.8397 17
198 1 -0.630834 -9.84276 4.63688 21
199 1 3.11674 -14.2877 6.65271 13
200 1 -13.4396 10.5842 3.44696 15
201 1 13.7344 2.85915 4.42667 15
202 1 6.94765 6.81642 -6.56098 14
203 1 -6.18323 -7.20488 -15.3793 12
204 1 5.98514 0.235313 12.3433 21
205 1 5.80423 -16.761 2.73281 15
206 1 -2.46354 7.35573 -13.3653 21
207 1 3.12355 -11.933 -13.5807 16
208 1 9.62187 0.738992 -14.494 12
209 1 2.91018 7.05288 -16.97 14
210 1 -7.62914 -4.20248 -8.12177 14
211 1 -3.61118 15.9037 -7.09793 13
212 1 -12.1936 -11.9138 11.1988 13
213 1 8.60434 16.4722 -0.992248 10
214 1 -9.92194 2.29879 15.8357 9
215 1 -6.66412 13.4712 -4.50029 18
216 1 6.97098 2.16785 9.08115 16
217 1 -3.66072 -6.22023 -13.6708 17
218 1 -4.34538 10.3394 -8.29481 21
219 1 2.0234 4.86237 -9.91496 12
220 1 -8.48817 -12.9746 9.33528 20
221 1 -8.51906 5.61951 8.49024 14
222 1 -7.47173 8.22692 10.9784 17
223 1 -0.221162 -12.175 -8.12063 13
224 1 -5.60099 -15.2786 -0.107932 20
225 1 9.82526 -12.8354 -2.50814 15
226 1 12.1085 7.97794 14.5326 16
227 1 6.56098 9.68085 -7.67682 18
228 1 0.699745 10.3228 -1.99801 17
229 1 -9.89149 -1.19006 2.09146 17
230 1 -13.2916 12.1949 -2.71212 11
231 1 2.56227 6.30382 10.2463 17
232 1 4.35027 -18.8654 0.474034 13
233 1 13.9822 0.850424 -2.9913 20
234 1 2.06075 8.99637 5.75997 18
235 1 -9.49391 5.18663 2.75707 12
236 1 -11.3111 -6.10122 -4.95873 19
237 1 6.38435 5.06475 -13.6523 17
238 1 3.52023 -1.58178 9.80845 19
239 1 8.96725 10.8724 -9.98074 15
240 1 1.80959 -11.3397 -5.52249 16
241 1 -2.71103 -0.538544 -11.0701 16
242 1 -0.0729743 -19.3369 4.66229 10
243 1 9.43897 1.55315 -7.34492 17
244 1 -11.4518 -4.30666 6.99092 16
245 1 3.0064 -16.1817 -2.13785 15
246 1 -10.143 -5.62062 -9.6529 20
247 1 4.54961 15.7952 -1.80257 20
248 1 0.371898 -3.41054 -17.2795 16
249 1 4.3855 4.46369 15.9327 19
250 1 14.888 3.53371 1.31121 13
251 1 10.5191 -6.64414 -10.066 17
252 1 -8.53243 -3.91396 -12.3315 20
253 1 -11.0419 0.961399 -9.99144 22
254 1 -8.55558 -16.4609 10.8253 12
255 1 9.70508 1.88466 8.82029 18
256 1 4.53734 -4.0551 7.87032 15
257 1 -5.1284 -8.13319 -11.9053 20
258 1 0.447066 7.38068 -14.2547 20
259 1 4.21174 9.18717 1.92159 13
260 1 -6.67218 -5.51693 1.9139 14
261 1 2.44467 11.9064 3.17454 21
262 1 -7.76607 -3.64033 12.6736 15
263 1 -10.1857 -8.95107 -9.72162 13
264 1 -5.45597 -4.90901 -10.7733 16
265 1 -2.32633 8.2084 -16.4336 14
266 1 -5.9897 -9.92643 -6.90178 19
267 1 -4.03167 -10.7541 1.55971 17
268 1 9.21599 -5.16743 -15.525 13
269 1 13.7913 -1.27298 -8.48045 14
270 1 11.1931 3.57816 4.1935 21
271 1 -10.3916 -6.28427 9.88246 17
272 1 -4.15537 -12.8394 -1.05386 20
273 1 8.29838 5.2188 16.7948 17
274 1 -6.70805 -16.965 5.18943 14
275 1 -1.48293 -12.7054 0.546474 16
276 1 -2.30074 18.6506 -1.0411 7
277 1 6.65878 -0.776132 -13.6803 13
278 1 -5.62018 -4.20581 -14.9513 17
279 1 -12.3318 -8.44919 12.3961 16
280 1 4.22849 7.54301 20.9127 8
281 1 1.39122 -11.7912 -2.62769 16
282 1 -4.89258 -11.3248 -11.9921 11
283 1 -11.6576 5.11786 -10.2458 18
284 1 9.77293 5.88603 6.35422 22
285 1 -6.04146 4.04656 -9.04869 13
286 1 -0.345821 9.56974 -11.7582 18
287 1 8.09953 -14.4173 -9.9589 12
288 1 -5.0162 14.6346 -0.99198 16
289 1 2.82575 11.95 6.34451 23
290 1 11.1055 0.833692 5.50869 20
291 1 -10.0769 1.45397 6.25614 16
292 1 -3.50186 -5.351 12.3431 11
293 1 -6.21254 9.89083 3.52988 18
294 1 2.06194 -5.87036 -12.8574 17
295 1 15.2116 9.70163 -3.67595 12
296 1 4.47556 -11.4727 1.85816 21
297 1 -2.35197 -0.351899 14.7979 13
298 1 -16.137 -5.12712 7.79139 15
299 1 0.667039 -17.1068 -4.50076 12
300 1 -9.24962 8.23221 13.9628 12
301 1 -12.0601 6.87813 13.8056 12
302 1 -16.0177 -4.03584 10.7032 12
303 1 -15.1762 -8.24567 8.2719 10
304 1 14.9085 -3.63239 -2.62757 14
305 1 -12.8167 -9.41188 9.06903 14
306 1 9.06835 -3.76079 -8.85766 19
307 1 9.84754 -14.0772 -5.18149 12
308 1 2.84008 18.1349 -3.2635 13
309 1 -9.96736 13.3166 -3.71228 14
310 1 11.4933 7.03407 11.1843 17
311 1 -10.0422 -3.36228 4.02442 15
312 1 8.00125 -11.4114 -6.06922 19
313 1 -3.91185 11.3839 2.40319 19
314 1 -7.03334 6.9794 5.90602 14
315 1 4.23052 -11.0347 7.22917 20
316 1 13.1589 -4.44514 4.88923 13
317 1 -2.42658 8.22086 9.83458 22
318 1 -7.20755 -5.37396 -4.7543 17
319 1 -1.01361 2.0326 16.1054 13
320 1 -2.41301 13.3215 4.68651 21
321 1 9.49095 7.79722 16.6233 14
322 1 -8.30415 14.4874 -6.73805 11
323 1 0.875671 -5.98358 -19.0379 10
324 1 6.37591 -9.99362 -12.9967 15
325 1 -11.6043 3.76707 13.3645 14
326 1 -15.5064 3.69131 2.57768 12
327 1 -7.39897 9.68752 0.144585 15
328 1 9.08846 -3.54117 6.80469 12
329 1 -10.2665 -13.0342 2.54411 17
330 1 8.15033 -9.40055 8.36653 10
331 1 -10.2119 -10.5086 13.0161 13
332 1 -13.5833 8.74288 0.544516 15
333 1 -1.0851 -4.44331 10.7438 16
334 1 2.43284 -13.3724 -7.90693 19
335 1 -4.78475 -2.05693 -9.36164 15
336 1 7.79814 -2.41248 -15.2657 16
337 1 3.78317 13.9121 4.43595 22
338 1 -10.5633 -1.08351 -3.45227 20
339 1 3.60551 -9.24649 -12.139 16
340 1 8.94716 3.61898 -14.5096 13
341 1 -4.2551 -15.4732 -6.70103 14
342 1 -13.733 -7.76682 -5.57369 13
343 1 -3.71211 -9.50464 -1.30038 14
344 1 11.9684 5.90131 17.0998 12
345 1 11.1916 2.47799 -3.55281 18
346 1 -9.16688 2.79298 -11.5711 20
347 1 3.4888 17.0391 0.6545 16
348 1 -14.5445 -1.23378 -6.10195 14
349 1 -8.14562 9.21435 8.50449 17
350 1 -9.86449 11.2186 1.42869 13
351 1 -5.77765 6.97478 8.47794 14
352 1 12.1111 5.32393 13.7399 18
353 1 13.042 -2.92808 -4.32522 18
354 1 8.8425 -2.36365 15.2597 8
355 1 13.4337 1.08725 -6.46456 22
356 1 -5.47736 -15.9553 -3.23674 17
357 1 -2.01007 -6.58054 -5.82539 18
358 1 -0.0201032 10.7205 4.33153 21
359 1 -8.84702 1.95019 -6.99686 19
360 1 4.53404 -10.8954 -4.27266 18
361 1 12.0642 0.338579 7.89613 18
362 1 -9.69787 -3.80752 -5.93803 19
363 1 -6.32183 -8.64652 3.16031 14
364 1 -9.49129 -7.89592 14.5755 10
365 1 -3.18468 10.724 -0.719027 17
366 1 -11.4794 -9.46629 -2.51707 13
367 1 6.5309 10.0171 16.7399 14
368 1 -10.1885 5.79672 -2.99349 15
369 1 0.189867 13.2742 -8.02171 20
370 1 5.78994 12.7167 6.57471 22
371 1 -14.4874 -7.51567 -2.13296 13
372 1 -2.64876 -9.52628 -7.2434 18
373 1 -12.9606 -0.354138 7.33703 16
374 1 -12.8722 7.00046 -4.59312 18
375 1 5.60629 -8.43509 5.29679 17
376 1 -6.08691 -12.0753 -2.64921 25
377 1 12.4636 12.7414 10.351 12
378 1 5.66438 8.10232 -14.9789 14
379 1 -13.0472 4.34147 -13.5435 10
380 1 -1.69018 14.8884 -9.9257 17
381 1 -8.23501 5.5126 -6.49654 17
382 1 -1.44744 -12.7487 3.73737 20
383 1 12.4498 6.05877 5.96932 21
384 1 0.57188 9.41445 -16.6878 12
385 1 -5.2769 0.795504 10.0565 17
386 1 -14.7501 2.21225 0.0766061 14
387 1 -8.03731 3.75341 5.86064 13
388 1 -4.24889 -14.9653 5.25626 16
389 1 7.02073 -9.12048 -10.3805 17
390 1 -11.7878 -0.10395 4.4617 18
391 1 -14.8583 -1.63282 11.1757 15
392 1 -13.2121 8.01845 5.87705 13
393 1 -0.251296 -5.58902 7.61264 19
394 1 -8.65043 2.54053 -16.8542 10
395 1 9.24865 -11.4692 -9.28163 16
396 1 0.252396 -10.7895 -12.7648 19
397 1 -3.46299 -2.23434 10.4059 15
398 1 -4.82019 2.92948 -15.557 19
399 1 6.07773 -13.8103 1.94392 23
400 1 2.78353 11.6424 -4.83904 20
401 1 -12.5488 11.4879 6.72946 12
402 1 -7.69416 -3.03346 15.8735 10
403 1 -10.9068 -6.60293 -12.1687 13
404 1 -8.39364 -7.73762 8.02249 18
405 1 10.0354 -4.18021 11.1986 12
406 1 3.23388 -0.727155 -8.47593 19
407 1 9.92332 -6.53118 6.05108 14
408 1 15.1675 6.96432 -5.97112 14
409 1 -1.79551 3.2609 13.0384 19
410 1 1.64673 12.7815 -2.46536 22
411 1 7.27608 -6.71421 7.40445 18
412 1 -3.24406 -14.0784 -4.51822 18
413 1 -3.88911 6.15837 16.9933 13
414 1 -2.47556 16.1589 7.21894 12
415 1 -8.78586 -11.5955 -8.27687 12
416 1 9.25517 16.0859 1.80558 13
417 1 5.08508 7.55351 8.99459 17
418 1 -8.10747 1.89307 9.98661 13
419 1 -5.7503 -8.48042 -3.63492 19
420 1 -12.9559 4.44893 10.974 16
421 1 -8.05711 -6.95554 -7.17056 18
422 1 -6.57842 11.9451 8.13824 20
423 1 -5.60001 -12.8138 -6.43719 19
424 1 -2.36253 -8.01059 -15.6335 17
425 1 -7.18616 -14.5842 3.35345 17
426 1 8.57484 2.4772 5.80531 22
427 1 -6.97214 -5.94363 13.4391 13
428 1 -9.63259 5.40107 -12.7644 15
429 1 6.5251 7.23638 -2.71247 14
430 1 -7.63077 -14.817 -1.9442 14
431 1 -0.669174 16.2091 0.969864 17
432 1 -0.257282 6.37768 -8.55555 13
433 1 -1.67652 9.35026 12.4452 20
434 1 -14.1148 -1.98297 -2.68187 15
435 1 -0.431336 18.0917 -3.7398 13
436 1 5.82223 12.9647 -5.213 17
437 1 -6.98057 -7.31717 -9.32893 21
438 1 3.65665 2.26933 17.4573 15
439 1 1.36305 -16.0095 -9.00525 12
440 1 -0.20574 -3.59296 -11.7257 16
441 1 8.34137 -15.6267 2.92341 11
442 1 -11.074 8.69421 3.29598 16
443 1 3.11298 6.48447 13.8943 20
444 1 9.53336 8.80621 -2.7609 17
445 1 3.28618 10.9687 0.115448 17
446 1 -8.09986 8.67003 -11.3307 13
447 1 4.48006 2.89345 -8.77657 17
448 1 3.21406 -9.65055 4.24204 23
449 1 -15.3831 -4.47455 -0.399019 12
450 1 3.14408 18.4789 7.58855 9
451 1 -3.38582 4.59754 -12.6477 22
452 1 12.2247 8.33359 -0.803217 21
453 1 5.88539 14.9533 -7.33269 13
454 1 7.68092 -7.15923 -1.7078 13
455 1 14.4793 3.65048 -1.79237 13
456 1 -1.11519 2.49611 -15.0471 22
457 1 2.98514 -9.78784 -0.341912 18
458 1 0.597568 -14.8092 5.77707 15
459 1 2.2572 -9.43275 10.1207 14
460 1 -8.6247 3.90339 -8.87302 16
461 1 -11.6124 -15.126 6.29209 12
462 1 -1.90252 -11.8726 -10.7622 18
463 1 8.35615 13.8612 7.22576 15
464 1 1.9056 3.10185 -14.6474 17
465 1 2.26828 -0.597522 15.7082 14
466 1 -13.7907 1.65781 12.4455 17
467 1 -1.37719 -18.4792 -0.468714 12
468 1 -12.0589 -5.00819 1.2549 19
469 1 14.518 -5.76815 -5.29962 16
470 1 10.6092 -2.59858 -2.67647 14
471 1 -6.01574 8.06955 -5.70011 20
472 1 3.82993 -10.0539 -7.85766 15
473 1 3.94113 3.8348 -11.8029 16
474 1 11.8409 -4.17815 -7.38346 17
475 1 -6.68627 0.462668 15.7525 13
476 1 6.51914 15.4103 0.643827 19
477 1 -3.4556 -2.28918 -16.2616 16
478 1 5.33569 2.50152 -18.5078 13
479 1 -8.16494 -4.21461 7.89865 13
480 1 -3.417 14.1004 1.24812 20
481 1 -8.27681 -1.53376 -14.8604 16
482 1 -14.6061 0.321404 2.83557 13
483 1 -1.34678 -10.7354 -15.4295 15
484 1 -7.41365 -11.3467 12.2982 14
485 1 1.15096 10.1964 -8.75735 16
486 1 17.6411 4.58579 10.959 9
487 1 14.443 5.9549 0.0634992 14
488 1 -9.60845 -12.2874 -1.04011 16
489 1 1.1354 -8.66956 -3.29468 15
490 1 -1.9945 -3.57955 -18.9576 12
491 1 -8.44152 11.7388 10.8095 17
492 1 2.64562 -4.38903 -10.0169 17
493 1 12.6796 -4.54784 -0.877062 19
494 1 3.23774 13.8814 -7.63939 19
495 1 5.10114 -8.24249 2.10653 20
496 1 15.8341 5.27882 -9.8611 9
497 1 4.33835 8.51745 15.666 16
498 1 -10.2142 3.1328 8.49789 18
499 1 6.48176 10.6617 10.0991 17
500 1 8.71723 1.24 16.3751 12
501 1 -0.627513 3.11657 -18.0296 15
502 1 -5.28717 -6.98108 -5.83672 20
503 1 0.175535 -2.07523 11.2315 18
504 1 8.9136 11.4472 8.20075 19
505 1 7.85927 7.87726 -10.0905 21
506 1 -7.34283 11.063 -6.13936 17
507 1 -0.611544 13.97 -4.29476 17
508 1 11.2187 -1.63861 12.6916 16
509 1 11.7363 2.38371 -13.7523 11
510 1 13.3803 -11.7523 -3.12088 10
511 1 12.5766 10.3832 12.5916 15
512 1 -16.0337 -6.87698 1.32856 10
513 1 -5.95922 10.4827 -11.3949 15
514 1 -1.80527 2.63461 10.0598 13
515 1 -13.8718 -0.369729 15.1014 9
516 1 -4.07845 12.6445 -10.6156 15
517 1 3.90724 -13.3499 -2.44145 16
518 1 6.00709 -2.77919 -9.80066 16
519 1 -2.69299 16.3056 -3.62121 13
520 1 -8.95063 -5.02037 -14.7599 13
521 1 3.19789 -14.7297 3.582 20
522 1 -13.3491 -8.86644 0.160823 12
523 1 1.29347 12.0113 -14.4457 13
524 1 -1.02641 8.8882 15.0031 17
525 1 -13.1416 -6.1335 9.72253 17
526 1 4.17929 9.86289 -2.21284 16
527 1 2.22077 -10.8928 -10.3442 16
528 1 4.10545 -7.01147 11.6848 13
529 1 -10.2589 7.54466 0.537492 18
530 1 5.67799 4.7434 19.3049 10
531 1 4.97296 17.3644 -5.0458 11
532 1 11.7091 -7.76963 -5.38486 18
533 1 3.63754 8.72925 11.193 17
534 1 0.528502 5.16491 -19.7289 9
535 1 -6.05433 -13.5747 10.5926 16
536 1 -1.16361 1.90047 -11.5841 19
537 1 8.67875 1.89121 -17.8893 7
538 1 2.96053 15.3001 6.83618 21
539 1 10.0653 5.05294 -11.7329 18
540 1 -0.676537 -2.26638 -14.2493 21
541 1 -3.90051 -11.0372 -4.9123 21
542 1 -11.1935 -3.78239 -13.0746 14
543 1 11.6795 2.88915 -0.525913 14
544 1 13.2671 4.32911 -4.41887 23
545 1 8.38218 -6.69253 -8.09842 18
546 1 14.9108 7.89959 13.0089 14
547 1 5.06156 -12.5014 -6.85057 17
548 1 2.58946 4.00854 -18.288 17
549 1 7.25877 12.609 1.44473 22
550 1 -10.8363 2.21166 2.39664 14
551 1 9.59703 10.0886 14.1026 19
552 1 11.0718 6.41259 -3.98783 16
553 1 15.8208 0.430282 1.45885 8
554 1 12.6755 4.83531 -9.96272 20
555 1 9.63749 3.04068 14.2626 22
556 1 17.1948 5.53207 13.6112 10
557 1 2.05017 -5.60271 10.0695 18
558 1 14.394 12.2676 -3.18579 9
559 1 1.85064 2.70377 14.6416 19
560 1 16.1964 -0.335453 -5.99661 15
561 1 9.2785 3.51871 11.4185 15
562 1 -7.89957 -0.329143 -9.25676 15
563 1 13.5469 5.94737 3.41346 17
564 1 10.3053 -6.86746 0.180223 14
565 1 -12.6408 8.9289 11.8695 10
566 1 9.17493 11.6325 11.5126 16
567 1 11.7661 2.13155 12.1305 20
568 1 3.22951 10.5777 8.56508 22
569 1 0.265259 14.3393 11.6814 11
570 1 7.10103 4.42706 6.86171 16
571 1 -1.97661 -20.0599 2.16806 9
572 1 -4.74777 10.2701 -4.18413 17
573 1 10.9536 11.1436 -7.42348 12
574 1 10.1388 -3.20996 -12.6171 14
575 1 1.66706 16.2655 -1.48021 18
576 1 -2.77802 -12.4394 -7.70175 17
577 1 11.4315 -7.47166 -13.2734 11
578 1 -13.2761 2.23429 4.81739 17
579 1 -5.65584 6.43518 -11.8473 18
580 1 -4.56438 -18.6137 1.41218 13
581 1 -6.01833 -0.291772 -11.8464 19
582 1 -13.9019 1.64751 -5.88924 19
583 1 11.0444 -6.98681 3.12918 11
584 1 12.3167 11.4472 4.27542 15
585 1 1.07918 -8.62196 7.35143 21
586 1 -13.6187 -1.47257 -9.42 15
587 1 1.86198 1.73248 -19.7459 9
588 1 -1.16699 5.44719 15.4907 22
589 1 6.42965 10.0579 -12.315 18
590 1 13.8685 0.161895 12.5792 12
591 1 9.78564 5.67525 -8.70515 21
592 1 12.0238 14.193 3.51724 10
593 1 4.77004 -15.3301 -8.58227 13
594 1 -11.0972 -2.71178 14.3601 18
595 1 13.5412 -0.854577 3.90917 18
596 1 -0.0894003 12.3699 13.9967 17
597 1 5.82544 12.3479 -9.95518 16
598 1 -13.3192 10.0393 -5.07049 12
599 1 9.73187 10.6311 2.64248 20
600 1 -9.1676 -15.2408 0.73393 15
601 1 13.386 -4.038 2.26818 13
602 1 6.5606 14.94 3.88097 20
603 1 -3.67206 5.46185 10.9371 19
604 1 -9.87845 -7.12662 2.019 15
605 1 -10.1828 -2.40038 -9.42205 19
606 1 9.20691 0.471729 11.6815 16
607 1 -3.9848 -10.3229 11.5156 15
608 1 9.02863 6.35639 13.4667 21
609 1 -6.56015 12.6272 0.869646 20
610 1 10.9531 5.38786 0.933929 16
611 1 8.8181 5.39324 3.68584 17
612 1 2.31083 -1.21389 -15.7659 17
613 1 -9.62814 -0.43914 9.01654 15
614 1 8.59377 -1.17158 -10.7808 17
615 1 11.8701 -11.6562 -5.17326 15
616 1 7.51737 5.37337 9.22032 19
617 1 -10.7752 0.363165 13.7732 17
618 1 10.8763 9.96649 9.51029 21
619 1 0.537939 -2.59688 14.0659 14
620 1 -2.00483 6.36525 12.9785 21
621 1 -0.267216 -5.61216 -14.8506 19
622 1 -5.65592 2.77495 12.5287 16
623 1 6.55196 3.98108 13.3382 20
624 1 -10.5985 -17.5326 8.19799 10
625 1 13.9188 7.14507 -2.79197 17
626 1 6.75681 -13.4105 -4.00955 19
627 1 7.12465 11.3773 -2.07633 18
628 1 9.4142 13.482 4.07341 17
629 1 4.94081 -1.10259 -18.234 11
630 1 3.0527 14.6198 -4.57259 22
631 1 12.3423 11.2045 1.2666 15
632 1 -8.55951 -9.15765 -1.75316 18
633 1 -1.10399 -0.548898 -16.9272 19
634 1 -10.9229 13.0894 -0.932673 12
635 1 8.806 -6.19251 -12.939 18
636 1 11.4326 7.95264 -10.1048 15
637 1 11.3128 11.4881 -1.83061 16
638 1 4.32543 7.85483 -5.06793 18
639 1 12.6842 2.53038 15.5208 15
640 1 10.8988 0.311374 14.8441 14
641 1 -2.43019 -12.8148 10.5964 9
642 1 -4.88173 9.71452 -14.8109 12
643 1 4.68567 13.4783 9.67913 17
644 1 8.88514 -8.24899 -15.3148 11
645 1 3.98192 1.40416 9.94486 15
646 1 6.77655 15.2178 -3.77823 16
647 1 7.95557 10.7449 5.54406 18
648 1 15.4481 -6.71846 -2.24775 12
649 1 7.19287 7.63821 18.9009 14
650 1 -14.128 -3.02514 8.28977 18
651 1 2.93587 -16.6043 1.01678 19
652 1 0.526038 -1.016 -11.3701 18
653 1 -10.5062 14.5912 1.87161 10
654 1 5.72403 11.6556 3.74355 22
655 1 -13.9488 -3.18533 4.90732 14
656 1 -1.24956 4.49056 18.5821 11
657 1 -4.70031 6.52521 -15.0662 18
658 1 -7.93639 7.57247 -14.5625 11
659 1 3.49201 -13.695 0.342857 17
660 1 9.35514 8.2544 -7.13999 18
661 1 -14.9752 6.19773 12.9239 8
662 1 4.41973 -3.34741 -13.788 15
663 1 1.54387 -12.8862 8.74174 15
664 1 1.9326 16.0071 2.38266 20
665 1 -4.24107 2.56035 15.2659 14
666 1 -7.84028 -6.67886 -12.4472 20
667 1 -4.88602 -9.95248 -14.7119 12
668 1 -7.59598 -14.9541 -8.51665 6
669 1 -1.1162 17.891 -8.54127 9
670 1 7.20035 -5.08473 -10.5168 17
671 1 -3.16142 11.3408 6.96774 20
672 1 5.94852 -12.3327 -9.54618 17
673 1 6.99907 -16.953 0.0819299 10
674 1 3.49507 -7.71844 7.22556 19
675 1 15.4587 1.91388 -8.23718 14
676 1 0.314601 -14.3599 -5.61112 17
677 1 -11.7145 -3.18086 10.1804 18
678 1 -6.95687 -18.2284 -0.781921 8
679 1 -7.41492 -10.7141 -4.85015 18
680 1 -11.0039 1.34276 11.0845 17
681 1 -7.20078 -17.5086 2.42074 13
682 1 14.8538 4.63634 -7.39023 18
683 1 -4.59189 15.6814 4.20037 15
684 1 -14.7553 8.00591 2.90573 12
685 1 11.9305 -1.49792 0.570576 14
686 1 -12.847 -1.56125 -11.859 16
687 1 -0.124716 11.7992 -5.75637 17
688 1 7.90959 3.25907 -8.75443 17
689 1 6.89594 12.3188 14.0282 11
690 1 9.44566 5.02395 -5.64745 17
691 1 -14.9974 1.43162 -8.37119 11
692 1 -12.361 -7.14538 -8.77387 14
693 1 -1.42965 7.80743 18.0518 13
694 1 4.97209 6.9867 -11.8894 17
695 1 11.4517 12.9371 6.97213 17
696 1 -2.46713 0.0781551 11.3248 16
697 1 -2.53481 -17.302 -3.85287 12
698 1 -7.87643 -18.3356 7.61813 9
699 1 -4.29135 -7.72506 10.0983 15
700 1 14.6216 9.52688 10.3542 15
701 1 1.87801 -7.747 -9.71783 16
702 1 -8.33085 8.01269 -1.81191 14
703 1 7.32814 9.44675 2.40506 16
704 1 -9.53399 -5.86382 4.92875 14
705 1 8.44781 7.09908 -12.7298 16
706 1 -1.37425 -17.0259 -6.85273 13
707 1 1.01287 -19.6888 1.38007 13
708 1 0.803238 -13.9976 -0.736229 16
709 1 7.25299 4.38354 -10.7467 17
710 1 6.3339 18.0174 2.36583 11
711 1 -3.15505 -0.143955 -14.2863 23
712 1 0.224717 0.693001 12.8364 18
713 1 0.395258 5.97994 -16.8462 20
714 1 -11.2459 -0.985954 -14.7802 14
715 1 -12.3959 -4.17563 -1.9954 21
716 1 1.58588 17.4113 -6.34142 12
717 1 -3.06891 -5.80024 -16.8201 14
718 1 12.2889 6.52612 -7.01408 22
719 1 11.3479 -6.54975 -2.8893 14
720 1 -7.73028 5.61708 12.9488 10
721 1 7.27126 -10.2413 3.20416 19
722 1 16.1282 -5.56371 0.813807 8
723 1 13.5477 -3.13557 10.6361 13
724 1 0.116034 11.6677 7.37486 20
725 1 -13.6926 3.2101 15.4612 7
726 1 -10.0123 5.78561 10.9655 15
727 1 -3.34369 -13.9024 8.27811 13
728 1 9.27071 -0.063884 2.80968 18
729 1 6.62049 9.24091 12.887 18
730 1 -15.7977 -0.953425 -0.235114 9
731 1 9.93278 -9.0497 -2.45325 17
732 1 -11.6731 12.7691 -5.54195 10
733 1 1.5275 -17.4854 6.49055 8
734 1 4.92391 1.65408 14.882 19
735 1 1.00634 14.0179 4.65468 20
736 1 1.8947 -11.8452 5.72884 21
737 1 4.00474 3.64706 12.1203 19
738 1 -14.949 -5.48068 -4.03753 15
739 1 1.99924 10.6051 15.7823 15
740 1 3.92829 13.9706 1.29042 22
741 1 -11.1349 -12.092 5.00784 15
742 1 -3.95702 -18.4711 4.51406 12
743 1 9.48284 -5.59098 8.82282 14
744 1 12.6681 -5.70449 7.97745 9
745 1 7.86885 8.00052 7.25871 16
746 1 -1.42305 -9.03893 -9.88022 16
747 1 -4.23496 1.80589 -13.1372 19
748 1 -5.49101 -0.95269 12.6872 17
749 1 -1.63685 16.4721 4.04977 13
750 1 12.745 0.93406 2.13021 17
751 1 3.641 10.8828 -7.54026 21
752 1 -3.8479 8.18964 15.0284 21
753 1 8.65602 8.3056 10.8404 19
754 1 7.12156 -3.87104 -13.0323 20
755 1 -6.87036 -12.4045 0.295822 20
756 1 14.7349 0.369232 6.79819 14
757 1 3.01443 -2.20571 -11.7414 16
758 1 1.25811 7.57987 16.4096 20
759 1 10.6754 -13.7454 -8.04099 10
760 1 5.3692 5.06141 -16.4226 13
761 1 13.1981 5.47656 -12.6712 9
762 1 16.3899 -2.40633 -0.543256 7
763 1 0.929015 -5.61323 12.8069 13
764 1 -1.91465 -8.7844 -12.8332 20
765 1 8.56121 13.724 -1.19017 18
766 1 -14.2164 5.33525 4.51501 13
767 1 11.7003 3.20524 -7.60739 18
768 1 16.2256 6.86524 5.22859 11
769 1 3.0391 -5.61111 -15.7815 17
770 1 -8.66273 11.2691 5.69899 13
771 1 16.8073 9.34062 7.87671 11
772 1 11.7801 12.074 -4.69097 12
773 1 2.99727 0.951837 -16.9129 18
774 1 7.87626 -3.9248 -3.05943 13
775 1 -11.4924 0.0444121 -0.613832 20
776 1 11.0233 7.80829 3.6626 19
777 1 -11.56 -10.996 0.0238616 14
778 1 -11.5972 8.33698 -9.21608 11
779 1 4.76604 4.34783 9.12246 14
780 1 -11.6426 -0.713602 -7.11096 25
781 1 -12.1961 5.11806 7.53041 12
782 1 -3.08401 4.38044 -9.86109 14
783 1 10.0366 -9.19919 -8.36915 17
784 1 -10.8991 -8.9944 -6.28537 14
785 1 12.58 -8.80434 -1.77433 20
786 1 -15.4874 5.72456 0.0180612 14
787 1 -8.39415 -3.68237 -3.26583 18
788 1 12.8033 7.48472 8.19495 17
789 1 -6.40739 -9.82803 6.31436 19
790 1 10.4611 3.35145 17.5873 9
791 1 13.0362 -2.40846 7.32282 16
792 1 11.0112 -2.35668 4.53789 15
793 1 -12.4915 5.50459 1.54833 20
794 1 1.1849 10.5095 10.7038 17
795 1 4.42371 9.35305 -10.1209 19
796 1 -0.791598 -8.39545 -18.1532 12
797 1 -5.03237 14.5518 7.18377 15
798 1 -11.6497 -11.9573 7.89007 16
799 1 8.73174 11.0466 -4.85844 17
800 1 1.47312 8.84224 13.4605 22
801 1 17.6803 -3.6817 -6.17608 8
802 1 7.59199 -6.94873 11.1383 11
803 1 -0.288518 12.6717 -11.7467 19
804 1 2.28309 12.2903 -10.0437 25
805 1 -6.27068 -2.13898 10.2443 15
806 1 17.9924 6.20174 8.02912 10
807 1 -1.93815 -2.89161 -8.98065 15
808 1 15.0303 9.62145 -0.28961 11
809 1 -14.2239 3.74774 -3.04148 16
810 1 -3.5096 -10.9374 8.45442 20
811 1 4.46739 15.112 -10.608 10
812 1 5.95226 -2.29719 10.5094 15
813 1 -1.66144 -12.3365 -2.87651 16
814 1 -7.01458 15.8484 1.57668 12
815 1 -15.8991 6.02774 -3.35341 9
816 1 10.6432 -0.568069 -8.60108 20
817 1 0.386009 -13.5432 -14.4089 12
818 1 -7.46384 7.42814 2.19145 12
819 1 14.4023 10.4886 -6.42524 12
820 1 -6.2435 0.49885 7.38636 13
821 1 7.52043 -3.36862 -18.2706 8
822 1 -7.51387 -10.0259 -10.8965 12
823 1 -1.18627 -10.1058 -4.61535 14
824 1 -3.35445 11.4068 14.432 14
825 1 6.82131 -12.5144 -1.15426 14
826 1 -1.24579 10.1338 -14.2024 16
827 1 15.8542 2.36851 -4.47314 14
828 1 9.48665 7.80054 0.865401 18
829 1 1.97893 -18.6461 -1.57747 10
830 1 4.01882 -4.33313 -18.3241 12
831 1 8.35805 5.31192 -1.0561 15
832 1 -1.83507 5.14266 -15.1123 22
833 1 -2.07278 -8.5451 7.59543 20
834 1 5.44773 10.3594 -4.72323 16
835 1 7.04828 0.203211 -9.10617 15
836 1 -11.0098 4.15256 -4.86263 20
837 1 -16.0842 4.27952 10.6145 6
838 1 1.27312 6.09893 19.6413 12
839 1 -9.80279 -9.68387 10.1724 23
840 1 5.08134 9.2867 5.99441 15
841 1 0.0252586 -14.7079 2.25017 15
842 1 1.50433 8.63572 -4.27765 16
843 1 -4.39515 7.98112 11.9074 19
844 1 -7.85855 0.603916 12.7982 15
845 1 -9.8745 13.0734 7.74982 11
846 1 8.16479 2.55182 -3.16551 15
847 1 -7.24371 -8.9129 12.0115 17
848 1 5.13682 -12.4879 4.48773 20
849 1 11.1304 4.5558 9.31869 18
850 1 9.94583 -4.55623 -5.3031 15
851 1 5.60433 -13.5859 -12.7351 10
852 1 -7.61427 1.47406 -13.6809 20
853 1 -3.58253 1.28885 -17.2018 13
854 1 7.39499 16.0404 9.79211 11
855 1 -12.2977 -6.01756 14.4524 11
856 1 -3.62735 6.45201 -8.18899 18
857 1 -13.807 4.23281 -5.54349 15
858 1 10.4028 13.5067 0.986888 17
859 1 -9.84954 -17.446 4.91483 11
860 1 -1.28816 8.55424 7.24719 18
861 1 13.6633 10.7228 7.39341 15
862 1 -10.0932 -11.5369 -3.88696 13
863 1 4.40435 16.297 9.12728 16
864 1 -9.54352 -0.796157 16.6472 9
865 1 -1.52728 -15.496 -8.99276 12
866 1 14.0722 2.29343 9.93703 15
867 1 3.13021 -18.3929 3.66394 13
868 1 4.51997 9.59563 19.2553 9
869 1 -4.13955 -8.81499 4.75238 15
870 1 11.8541 -0.856793 -11.8913 17
871 1 5.18006 -9.8867 -1.11632 16
872 1 0.865573 0.736938 -13.6048 22
873 1 -11.4661 2.14479 -13.6531 19