ITEM: TIMESTEP
31000
ITEM: NUMBER OF ATOMS
5760
ITEM: BOX BOUNDS pp pp pp
-0.1484873162 32.9484873162
-0.0955737915 34.2355737915
0.0791712016 63.5208287984
ITEM: ATOMS id type x y z Coordination
1 1 8.56957 2.94416 1.84343 20
2 1 1.88257 0.889374 61.5973 20
3 1 29.6983 4.50358 1.94269 20
4 1 23.9613 8.62388 6.80506 22
5 1 29.1692 13.71 14.064 21
6 1 1.15797 32.3119 15.6065 22
7 1 3.48757 3.84719 9.35406 21
8 1 15.4302 29.2956 0.830861 20
9 1 25.3154 10.2238 14.7613 23
10 1 29.5633 8.1182 8.62885 19
11 1 32.1485 1.66652 8.23337 22
12 1 1.11236 32.9565 18.7075 24
13 1 26.5418 11.9785 61.6944 22
14 1 5.51174 4.43669 3.4321 23
15 1 11.1735 11.1035 4.96961 21
16 1 3.15285 14.9556 59.7771 19
17 1 4.70648 21.1689 9.08468 22
18 1 29.2517 13.0486 7.58578 21
19 1 20.7988 10.544 13.372 21
20 1 25.7416 4.52003 6.13256 19
21 1 6.5591 9.75525 10.9598 20
22 1 4.54761 9.84964 13.3822 21
23 1 29.7079 1.53934 21.1168 18
24 1 4.42305 8.79469 19.9842 18
25 1 26.1071 18.4129 9.54581 22
26 1 31.4511 15.1795 12.3912 22
27 1 1.466 6.26316 10.4 20
28 1 2.7849 9.40667 3.01168 22
29 1 3.08448 18.9345 11.6742 21
30 1 32.3193 7.58536 6.00554 22
31 1 19.0543 17.4369 3.93317 21
32 1 30.8561 19.0648 4.7113 20
33 1 30.7729 17.4412 11.2586 20
34 1 20.6321 6.07884 11.2397 24
35 1 32.7768 10.397 16.4613 20
36 1 4.98471 16.2742 8.10753 20
37 1 7.51519 6.92301 4.65538 20
38 1 7.44362 0.915564 7.34122 21
39 1 7.44239 6.55168 1.28686 20
40 1 27.4146 1.0351 0.726552 22
41 1 0.272483 17.3556 6.12836 23
42 1 4.75214 32.5264 10.9991 21
43 1 17.5027 30.5985 4.18907 16
44 1 5.27413 3.49463 60.5915 21
45 1 5.70645 7.17776 11.8736 22
46 1 2.94266 2.78874 12.9454 24
47 1 6.08239 33.8214 17.5532 18
48 1 30.5319 32.1451 20.9797 19
49 1 6.74645 14.5788 4.46807 18
50 1 1.61308 12.745 57.4942 20
51 1 5.66656 8.63372 2.51219 19
52 1 32.6782 21.6556 13.5999 21
53 1 4.46295 16.4257 1.02855 22
54 1 0.66654 3.68071 62.2168 19
55 1 31.3808 0.941707 5.52856 22
56 1 12.5768 10.86 9.88545 21
57 1 14.44 16.2129 7.40896 22
58 1 9.0804 18.1961 17.9762 15
59 1 15.4274 27.2527 4.35748 20
60 1 3.99635 12.8334 8.96522 21
61 1 3.49998 5.94733 1.91055 19
62 1 0.566136 9.95462 4.53631 19
63 1 16.4714 18.9489 4.32626 22
64 1 11.941 6.26068 9.61109 25
65 1 2.41532 19.7654 7.92786 22
66 1 0.539286 20.6186 16.3456 22
67 1 5.12252 9.14194 6.01336 21
68 1 3.48625 22.3269 3.17749 21
69 1 11.1939 9.62803 13.5219 18
70 1 9.93913 30.6632 17.5822 24
71 1 27.5435 7.20467 9.95766 24
72 1 6.50719 7.77483 15.174 25
73 1 3.65168 7.65133 62.9833 20
74 1 9.33026 7.25522 62.9029 20
75 1 8.44871 32.343 61.6993 23
76 1 5.17207 32.6322 60.6703 20
77 1 10.2253 3.89168 12.8984 20
78 1 22.9014 9.15439 3.80218 21
79 1 32.4311 2.9784 2.19885 16
80 1 28.2296 0.849567 7.65339 23
81 1 6.84072 1.91422 17.1101 23
82 1 3.05877 26.5971 21.2477 17
83 1 5.5269 0.607523 23.9471 20
84 1 5.0936 9.03283 25.5457 20
85 1 12.1715 14.9017 2.63115 22
86 1 5.20915 9.05598 60.1539 24
87 1 32.9707 33.8684 0.318289 21
88 1 7.37289 8.06938 61.5056 22
89 1 3.75878 12.7621 0.992561 19
90 1 6.80223 3.09378 0.449259 22
91 1 12.4609 1.46842 5.02659 23
92 1 4.12305 6.4466 4.7518 21
93 1 10.8484 3.40821 10.1205 20
94 1 29.178 3.63667 9.77103 24
95 1 11.087 6.01521 28.9492 22
96 1 6.01904 5.65189 17.4145 23
97 1 2.95365 18.5653 3.04231 22
98 1 17.7941 17.6873 6.57229 18
99 1 9.84746 9.61742 7.89289 20
100 1 9.17315 18.8124 12.365 22
101 1 16.3159 12.5017 3.94654 22
102 1 3.80753 15.2893 3.51524 20
103 1 19.2473 15.4851 0.628802 25
104 1 3.78221 13.989 16.3114 22
105 1 14.3682 10.6205 13.6562 22
106 1 14.3075 18.3227 9.98522 21
107 1 6.01562 12.2172 11.5021 22
108 1 11.7656 2.91197 58.3654 17
109 1 7.19963 0.493585 59.5191 16
110 1 20.19 3.70382 4.66237 21
111 1 4.76513 32.6208 6.42917 20
112 1 18.6284 1.94454 5.49097 20
113 1 26.8012 4.41735 8.67674 17
114 1 22.8896 1.02935 62.9236 19
115 1 9.93316 28.3556 4.36443 20
116 1 7.02634 8.20401 7.83558 24
117 1 16.7314 31.9617 8.03442 19
118 1 22.0287 27.7008 19.1534 25
119 1 6.89336 4.92548 7.13756 22
120 1 2.36179 30.5663 1.72043 20
121 1 14.2121 18.8267 60.432 23
122 1 9.27753 7.25632 59.7403 21
123 1 9.59969 13.0035 4.01931 21
124 1 14.6056 21.2128 1.71877 21
125 1 6.50445 29.6975 11.5674 16
126 1 17.9757 11.4654 18.299 22
127 1 16.3242 5.93774 3.61536 21
128 1 12.1709 4.31963 6.82892 20
129 1 5.38869 1.81773 10.564 20
130 1 8.68872 1.55412 12.818 24
131 1 11.3051 6.38315 12.3958 20
132 1 10.8011 6.2538 20.2994 23
133 1 4.20366 21.1279 5.72709 21
134 1 6.09302 23.4571 4.60603 20
135 1 6.57927 14.5758 1.2107 23
136 1 8.6068 24.5689 54.2031 23
137 1 17.4017 25.0883 5.57972 21
138 1 13.6793 23.9195 0.783033 16
139 1 17.7776 4.80928 0.902473 20
140 1 11.0306 16.6286 7.8251 21
141 1 8.99373 9.1965 5.63975 19
142 1 1.05608 10.409 10.495 18
143 1 22.2261 16.2944 20.557 23
144 1 14.631 22.2997 13.1433 23
145 1 5.39239 0.3635 63.1675 19
146 1 19.9422 30.4964 1.76683 20
147 1 11.4133 29.7934 62.7174 22
148 1 10.4847 13.0191 7.5404 24
149 1 22.0781 10.5586 8.68647 24
150 1 21.5906 4.11575 62.0816 21
151 1 16.6851 22.7778 17.1559 19
152 1 4.75518 1.74276 6.37641 20
153 1 16.6215 2.25949 11.4426 19
154 1 10.5015 29.5994 12.1524 21
155 1 3.93694 11.3129 23.0779 22
156 1 17.5197 29.2449 14.6809 22
157 1 8.39824 19.9808 3.51337 22
158 1 8.46531 13.9905 62.3836 21
159 1 13.0413 10.4003 63.0315 20
160 1 12.8537 18.3713 63.6217 23
161 1 14.8757 5.14584 1.47464 21
162 1 16.1687 26.4802 62.2849 21
163 1 12.3973 33.0501 5.16884 19
164 1 9.81251 4.80289 4.45992 21
165 1 7.92791 29.9145 2.62126 21
166 1 13.021 32.5414 7.79801 19
167 1 9.76813 32.83 12.6558 22
168 1 14.2246 13.9631 22.9242 19
169 1 23.3748 15.2753 1.27548 21
170 1 21.9999 14.4318 62.1482 22
171 1 15.564 8.55326 5.75408 22
172 1 11.1972 18.0831 3.35481 25
173 1 24.676 11.0879 6.29867 23
174 1 29.9626 13.6017 4.75084 18
175 1 13.5425 7.42772 19.6075 23
176 1 6.5634 20.5096 12.2556 19
177 1 15.1419 12.1051 10.9155 20
178 1 16.9197 25.7156 8.7715 19
179 1 8.21944 6.47527 10.0189 22
180 1 25.0987 22.4142 16.5682 22
181 2 16.7198 12.1623 12.0079 22
182 2 1.31741 28.7846 2.82315 23
183 2 0.0553278 1.12182 59.6583 20
184 2 30.98 31.3516 57.1202 21
185 2 10.7161 5.73296 18.3201 20
186 2 30.7876 8.67061 12.0567 20
187 2 4.44996 14.4344 0.818952 21
188 2 29.924 29.4715 62.2532 19
189 2 27.3148 28.3474 24.5428 18
190 2 5.12658 11.9593 17.15 20
191 2 31.8358 30.9225 32.0913 22
192 2 5.61583 5.34241 12.4083 22
193 2 6.20296 15.4704 60.9767 23
194 2 27.8376 2.76841 8.60842 21
195 2 31.5098 17.3901 18.5649 22
196 2 8.81907 1.30272 5.8828 22
197 2 9.34907 3.01345 3.89487 17
198 2 29.9247 4.60821 5.27522 20
199 2 8.56999 14.4832 4.44887 24
200 2 7.89399 8.41249 24.3761 21
201 2 31.6359 1.03327 9.98204 20
202 2 32.2425 6.50628 9.82799 18
203 2 4.51584 6.29074 22.2749 21
204 2 20.9972 4.67412 18.2113 17
205 2 32.9172 19.1056 15.1625 21
206 2 26.2576 23.64 3.05817 19
207 2 3.78823 4.29073 3.10095 19
208 2 1.71086 7.7136 59.8195 22
209 2 1.02284 18.5966 10.8118 23
210 2 3.1191 11.642 14.0419 20
211 2 29.8285 15.1419 16.8847 25
212 2 9.31477 24.1233 5.14617 17
213 2 25.1628 12.4962 19.4492 20
214 2 28.1905 16.475 24.5306 22
215 2 18.8355 9.35052 10.6623 24
216 2 5.1043 4.87076 0.376843 19
217 2 21.7981 33.9851 12.1356 21
218 2 4.17098 23.5847 19.1278 21
219 2 5.65145 15.7372 3.52354 21
220 2 8.80281 27.0582 62.6893 22
221 2 1.62677 9.89286 24.3856 24
222 2 24.0415 5.67966 13.1644 18
223 2 5.48443 8.73746 8.84784 19
224 2 30.9748 3.62497 10.8552 20
225 2 0.583355 29.7406 20.1901 21
226 2 22.258 5.65541 7.73636 22
227 2 12.3823 28.7741 11.5963 19
228 2 6.29233 5.88561 2.74309 20
229 2 8.74748 11.2455 0.952756 20
230 2 3.42207 23.762 61.4273 20
231 2 5.62343 7.98804 4.3539 23
232 2 11.9316 5.95198 7.78869 23
233 2 8.72052 29.2658 11.2497 19
234 2 27.9451 11.7714 1.04556 22
235 2 3.65691 4.72159 16.7891 21
236 2 24.0663 5.46314 17.6024 21
237 2 12.4481 10.8228 14.8085 18
238 2 2.42036 10.5142 11.6025 21
239 2 3.99908 9.28101 15.1639 22
240 2 6.948 2.23005 20.2644 21
241 2 7.13562 15.6807 8.21095 21
242 2 0.601987 4.43433 7.86179 23
243 2 11.5936 25.2143 62.7615 20
244 2 0.849923 18.4163 61.8775 21
245 2 29.8881 15.6052 13.2721 22
246 2 17.0157 14.8946 10.3754 20
247 2 28.542 32.3813 11.6846 20
248 2 23.1486 11.6799 61.4495 19
249 2 5.89245 29.2845 4.00115 21
250 2 10.4779 5.5016 14.2189 19
251 2 10.9717 12.2738 19.3832 16
252 2 2.88959 1.28315 19.9954 21
253 2 8.86338 32.1921 16.8263 24
254 2 3.4511 5.88742 9.76092 19
255 2 9.95558 3.43489 61.4061 16
256 2 3.48922 13.2333 6.43003 18
257 2 3.95136 30.1433 14.625 18
258 2 0.0130204 1.52334 62.5499 19
259 2 21.0222 8.3749 4.28961 20
260 2 16.0328 0.698257 3.45338 23
261 2 15.0929 24.1936 30.4899 20
262 2 11.653 2.96362 33.4195 21
263 2 13.9126 31.8307 15.6038 18
264 2 29.5743 31.0535 26.3567 23
265 2 4.89085 30.4306 12.0595 19
266 2 1.151 30.8123 14.4202 21
267 2 5.17137 14.9962 12.3595 20
268 2 20.1551 11.6791 1.34444 18
269 2 15.1284 7.10657 20.7504 19
270 2 4.41345 10.5135 4.59077 19
271 2 2.29217 8.82335 4.89729 22
272 2 31.1229 7.94298 60.0181 23
273 2 17.3176 18.4501 12.3473 23
274 2 7.74601 6.16191 21.8171 19
275 2 11.2802 10.9696 21.6705 19
276 2 16.6562 0.270184 6.37854 16
277 2 15.5588 12.6453 8.85382 25
278 2 21.2586 23.4672 3.01149 23
279 2 27.0074 15.4326 18.13 23
280 2 15.3058 24.5469 13.6974 20
281 2 8.90482 12.3689 7.80867 23
282 2 2.41861 2.23666 16.1091 21
283 2 8.61414 14.15 1.72614 18
284 2 3.87505 13.509 60.9097 20
285 2 3.08831 4.89045 13.5909 24
286 2 1.11191 7.43495 7.69454 21
287 2 8.08331 10.0892 9.17426 22
288 2 11.761 18.6301 7.41717 19
289 2 4.71897 8.92893 11.3811 19
290 2 9.24511 7.6419 7.48411 20
291 2 6.41259 10.3298 2.27268 20
292 2 6.64473 32.2598 10.2594 22
293 2 8.55732 31.1049 23.5903 23
294 2 7.72951 4.73148 10.7008 22
295 2 0.175094 31.3058 61.6996 21
296 2 6.83537 -0.0409093 12.8268 22
297 2 15.6564 3.59451 19.5285 20
298 2 2.63979 33.5877 17.0922 23
299 2 14.5443 26.611 12.1848 24
300 2 17.3807 33.336 9.20001 16
301 2 16.4298 6.79257 5.68489 21
302 2 0.832848 22.9707 0.423265 24
303 2 1.95988 12.7607 8.31191 22
304 2 13.1539 11.3479 4.32 21
305 2 11.157 2.86281 14.1397 21
306 2 20.5529 13.6083 22.627 20
307 2 13.3219 15.8516 5.86988 21
308 2 18.3644 13.4209 20.6967 23
309 2 16.3302 15.4367 7.03153 21
310 2 9.24313 3.27336 19.6653 23
311 2 4.7272 0.180539 10.5374 21
312 2 15.632 11.9849 14.4969 23
313 2 6.11943 20.5788 10.3941 20
314 2 16.8096 14.4271 4.02556 20
315 2 15.0266 28.1167 62.2918 21
316 2 23.602 23.7012 3.05379 18
317 2 16.7217 27.0975 19.3771 20
318 2 12.2252 24.3447 3.8046 21
319 2 26.7973 1.01167 13.2638 18
320 2 14.2477 23.3223 16.2524 21
321 2 17.7343 21.2836 19.4125 19
322 2 12.2296 10.5902 17.7885 20
323 2 2.7966 20.694 10.6145 20
324 2 12.7108 13.8121 14.3144 19
325 2 6.51888 3.0876 2.52302 20
326 2 12.9335 25.8508 6.51839 20
327 2 9.29755 10.7419 4.28477 22
328 2 8.12041 20.9699 17.5951 23
329 2 5.71957 33.7427 1.77381 20
330 2 15.8224 6.78468 12.3088 17
331 2 5.86191 26.937 58.1719 24
332 2 8.40195 24.5658 0.668114 21
333 2 10.1139 15.5567 23.8623 22
334 2 3.95848 3.57128 23.1214 21
335 2 15.5229 26.6169 22.7837 23
336 2 21.0171 4.41086 27.1822 21
337 2 24.7663 8.13699 10.9676 22
338 2 2.72058 33.6807 60.7102 19
339 2 7.52038 17.7315 6.4647 19
340 2 23.1787 5.83634 58.5761 20
341 2 14.8849 12.9902 5.14661 22
342 2 22.9419 11.5781 12.0676 24
343 2 15.9778 17.2597 9.72184 20
344 2 13.3849 7.55918 63.5329 20
345 2 13.0303 8.83915 21.9662 21
346 2 6.83322 24.7847 9.3482 19
347 2 11.4814 4.96383 11.3452 22
348 2 18.5262 2.19572 20.6903 19
349 2 25.45 16.5448 9.89249 18
350 2 15.4964 28.2479 2.24691 18
351 2 3.83395 23.3026 4.85877 25
352 2 1.75259 30.9696 11.0847 22
353 2 26.0124 4.39494 22.886 18
354 2 14.1967 4.20264 7.14787 19
355 2 15.4703 12.3326 2.08023 24
356 2 24.4136 4.06845 20.1304 20
357 2 23.2268 9.27058 22.3655 19
358 2 29.6462 17.8673 21.7383 23
359 2 6.71986 20.0485 14.2109 19
360 2 9.53251 11.5462 15.6544 21
361 1 1.37556 10.3001 13.8775 20
362 1 6.92031 11.3177 18.1369 21
363 1 2.68767 30.9721 20.9335 20
364 1 2.38932 8.42437 6.61629 25
365 1 1.15551 8.28558 22.2277 25
366 1 21.972 6.17014 27.919 19
367 1 6.68301 0.432006 26.0675 20
368 1 1.15623 0.435942 20.1316 19
369 1 28.5665 6.76627 26.7513 18
370 1 0.889676 16.2388 27.1026 23
371 1 1.38455 6.11606 31.9985 22
372 1 2.15861 3.31403 23.6914 22
373 1 0.88729 11.2264 7.41397 24
374 1 9.31255 1.84121 18.3125 17
375 1 11.7181 12.7272 21.0935 22
376 1 21.111 15.6752 17.5705 19
377 1 27.1314 16.4971 19.7212 23
378 1 4.91913 14.1622 21.5169 21
379 1 28.9744 5.37805 24.7371 21
380 1 31.5236 5.57719 29.1309 20
381 1 30.9528 15.0753 27.3856 19
382 1 27.9943 2.11764 26.1396 22
383 1 0.0652091 11.0867 23.0293 27
384 1 32.5003 13.0828 28.7763 21
385 1 32.3217 27.7354 10.9319 22
386 1 28.1125 26.6331 17.678 22
387 1 6.59595 17.3972 3.16985 21
388 1 5.01976 16.9738 22.2783 20
389 1 26.4041 12.6542 11.6902 23
390 1 5.75011 3.30896 22.2966 22
391 1 8.21636 5.2281 20.2526 22
392 1 7.54669 24.0752 14.7298 19
393 1 6.8553 10.3269 20.5953 21
394 1 28.4087 10.2578 27.3074 23
395 1 32.0701 20.4467 24.4636 19
396 1 26.3335 11.9725 22.4618 22
397 1 30.602 8.61707 17.5164 23
398 1 11.1081 27.6308 24.2947 18
399 1 11.8975 30.511 3.98455 23
400 1 10.2867 15.7821 18.5185 20
401 1 19.7305 11.4911 11.0378 18
402 1 31.551 3.56161 25.0824 20
403 1 30.3058 1.07974 26.6213 22
404 1 32.2235 4.79237 31.783 21
405 1 30.3041 21.6524 21.5601 23
406 1 5.10599 6.15848 26.1205 21
407 1 7.8893 2.39686 37.406 21
408 1 30.0564 30.0655 33.4128 22
409 1 5.93735 11.4306 15.0048 21
410 1 1.36203 12.8319 14.8261 19
411 1 30.7845 5.73584 10.9658 22
412 1 0.164795 6.05395 26.316 19
413 1 11.3653 14.1415 24.0001 22
414 1 12.4199 29.6841 29.6177 23
415 1 8.73836 0.55202 23.353 23
416 1 3.1423 2.60609 21.3042 23
417 1 12.6769 1.75905 31.8814 22
418 1 2.42711 18.6983 33.6806 18
419 1 27.7671 12.8398 25.6938 24
420 1 3.35906 15.5006 33.3579 21
421 1 32.6407 7.87986 8.40307 23
422 1 8.77791 21.9635 13.0096 23
423 1 15.7344 11.6873 28.718 20
424 1 16.8923 25.8144 20.8804 22
425 1 2.6893 10.6386 20.1038 20
426 1 9.19186 5.75105 30.9953 18
427 1 3.89387 13.372 31.2794 21
428 1 4.33261 14.28 24.51 19
429 1 29.9518 19.3846 38.0353 18
430 1 2.8021 16.2265 24.0714 22
431 1 0.684362 10.2166 27.8739 22
432 1 4.19757 13.4833 13.1181 20
433 1 10.3781 15.0802 14.0423 21
434 1 3.41914 33.5318 21.4906 20
435 1 7.22125 31.1764 16.7291 23
436 1 13.535 4.22347 27.8382 22
437 1 15.6257 7.36166 24.7894 21
438 1 6.47808 0.648086 28.9485 23
439 1 8.07368 30.1639 19.3264 21
440 1 1.95585 0.691373 29.155 23
441 1 1.26297 7.19394 28.8545 20
442 1 9.5339 6.62588 15.374 21
443 1 5.8279 0.627345 20.6459 21
444 1 4.78666 22.5866 32.7956 21
445 1 2.47118 0.479645 23.8911 25
446 1 7.94855 5.32908 12.4253 24
447 1 14.2931 31.5789 25.0835 20
448 1 10.5824 31.929 29.9998 23
449 1 5.16768 9.02839 16.9944 23
450 1 3.69263 6.12799 23.9946 22
451 1 12.4137 4.24999 31.0848 20
452 1 10.1104 28.9168 28.1785 22
453 1 10.2308 11.6292 30.4941 21
454 1 3.86246 9.71459 28.2024 20
455 1 12.7864 5.51244 25.4358 21
456 1 31.07 10.9385 29.6171 19
457 1 26.255 9.37806 12.0678 22
458 1 19.0435 20.6674 3.07133 23
459 1 8.23123 6.38388 26.4349 21
460 1 16.4426 28.442 22.2655 19
461 1 6.22401 25.689 16.0581 22
462 1 3.67318 6.60637 29.8958 18
463 1 7.97708 3.41431 9.54659 20
464 1 11.3441 12.4095 14.7439 19
465 1 0.451711 19.3027 27.6831 21
466 1 13.9678 5.88659 33.0503 19
467 1 10.5326 8.58326 28.2715 21
468 1 15.2422 11.4017 26.2716 20
469 1 5.2254 31.9289 19.5733 20
470 1 11.6971 34.2742 27.6572 22
471 1 4.6165 33.1151 29.3858 23
472 1 7.60146 4.146 14.9963 21
473 1 9.28832 4.58179 17.5805 23
474 1 8.95165 33.4003 18.4653 21
475 1 6.68937 5.76296 29.2959 20
476 1 15.336 12.0012 19.3007 22
477 1 12.8183 30.1075 32.6175 21
478 1 4.41454 3.42495 29.1385 20
479 1 8.24661 1.72064 34.5993 20
480 1 10.889 3.46712 20.4008 21
481 1 13.539 10.8713 22.3352 21
482 1 3.20021 5.93883 11.8487 18
483 1 17.5912 13.1589 9.94981 22
484 1 0.405396 4.90323 20.5159 23
485 1 4.26363 3.16362 24.9658 24
486 1 11.0738 7.15823 6.27034 20
487 1 7.34635 9.01131 27.1215 22
488 1 17.7221 14.3049 27.7271 21
489 1 15.1351 5.37498 29.818 23
490 1 18.2777 14.0939 18.7961 20
491 1 11.9019 8.17372 34.0169 21
492 1 7.97462 11.6768 35.2116 22
493 1 13.6713 9.69615 16.7273 20
494 1 2.4897 10.9335 25.5888 22
495 1 0.192022 7.35253 15.9576 21
496 1 9.22112 16.5672 24.9644 20
497 1 7.0654 12.5732 22.843 18
498 1 9.67229 8.65423 24.7917 17
499 1 17.981 10.0452 21.4269 20
500 1 9.13109 16.6465 10.811 21
501 1 24.5129 23.5532 22.4546 23
502 1 10.3175 19.1561 20.3253 20
503 1 1.87821 18.403 29.6999 17
504 1 0.680984 20.1077 31.3678 20
505 1 24.2873 4.49665 21.8311 18
506 1 18.4208 2.29316 14.3452 18
507 1 7.56723 20.0775 15.9212 19
508 1 10.3631 28.9142 15.6949 20
509 1 3.39822 0.47046 18.4011 24
510 1 20.2578 8.55398 27.4218 18
511 1 12.5326 34.1041 24.9122 23
512 1 12.6353 8.92585 24.9902 24
513 1 10.6631 8.15482 30.9242 18
514 1 12.9548 29.6068 19.9822 23
515 1 11.77 26.6599 28.0008 21
516 1 4.0009 31.1342 23.7498 20
517 1 12.9166 15.7082 13.6519 20
518 1 15.0206 6.15665 10.5488 18
519 1 15.3973 34.2355 22.0879 20
520 1 11.9251 2.7679 28.9585 22
521 1 14.2415 20.929 19.4491 25
522 1 14.6024 4.92418 20.5818 22
523 1 15.9864 22.8555 29.3418 21
524 1 23.7145 13.6563 19.9148 17
525 1 17.2362 12.6357 22.0454 22
526 1 20.6225 7.71001 24.2505 19
527 1 15.789 10.2237 23.5859 20
528 1 16.2004 5.9127 36.2621 22
529 1 11.433 21.6292 11.9701 22
530 1 7.19636 11.9308 9.12207 21
531 1 24.2893 18.9744 20.3588 21
532 1 8.18113 2.15234 21.5189 23
533 1 5.88931 6.29749 20.9638 21
534 1 26.516 29.3233 17.0622 20
535 1 4.3927 8.60849 22.7277 23
536 1 9.59806 12.9939 10.7589 22
537 1 14.1752 15.1513 20.3191 18
538 1 24.6235 10.8038 26.8392 21
539 1 23.446 10.9291 23.8735 19
540 1 10.9172 22.9382 14.3198 21
541 2 1.88958 31.6754 25.2779 19
542 2 1.50681 15.3138 19.4437 19
543 2 32.2237 8.16598 25.237 20
544 2 17.8483 3.06868 0.967411 19
545 2 32.5363 9.06468 22.7045 22
546 2 28.8846 10.4549 22.4837 22
547 2 3.99802 4.94317 25.5377 26
548 2 3.0017 2.97519 30.7733 20
549 2 30.7746 13.1552 29.3004 20
550 2 16.182 32.9499 23.7806 20
551 2 23.4177 8.37624 30.2537 23
552 2 31.4896 4.86361 26.7401 22
553 2 12.3729 7.07025 24.2229 21
554 2 3.63222 10.162 21.5579 21
555 2 3.51639 18.5839 17.9001 19
556 2 1.04079 3.54099 1.84781 21
557 2 32.9311 10.5224 29.446 23
558 2 30.0088 10.7296 24.8263 23
559 2 5.74786 7.78025 18.2513 23
560 2 5.37078 30.9755 25.2464 23
561 2 1.42831 7.58935 30.8737 20
562 2 0.74218 14.1919 27.0043 20
563 2 2.13129 1.00105 33.148 21
564 2 9.7461 1.83243 36.1749 20
565 2 31.3267 20.2213 31.6012 20
566 2 31.9764 31.6692 12.1033 21
567 2 25.2745 18.0091 19.0878 24
568 2 27.432 23.7694 27.3284 19
569 2 5.77752 8.5162 21.462 21
570 2 30.5237 6.03958 24.1501 19
571 2 8.85155 9.20031 19.5067 23
572 2 2.98163 6.97658 19.5941 26
573 2 0.248542 21.5826 23.1515 19
574 2 32.2749 23.7859 21.6926 17
575 2 2.11967 19.65 35.4006 21
576 2 27.7783 19.3317 23.035 18
577 2 26.8822 1.51904 17.186 19
578 2 6.34755 28.0242 15.9363 20
579 2 11.1409 1.9878 27.2215 23
580 2 1.32027 1.05378 7.15157 20
581 2 5.5841 2.04607 29.9867 25
582 2 14.3586 12.9525 32.3524 17
583 2 25.8874 32.8259 33.814 20
584 2 5.15543 33.438 37.8986 20
585 2 4.75747 29.3109 23.1055 19
586 2 33.0345 27.1708 28.8867 19
587 2 8.14382 10.6887 22.2979 20
588 2 3.50474 8.61646 26.2805 22
589 2 2.94726 5.14449 5.79948 21
590 2 10.9504 27.0839 26.4956 21
591 2 32.381 1.61546 19.8154 21
592 2 11.3356 18.9498 17.3119 18
593 2 29.2693 1.54828 31.6794 20
594 2 2.13939 14.5485 23.3866 22
595 2 3.25568 17.6087 28.5019 19
596 2 8.03517 13.1354 21.3943 23
597 2 7.63947 17.1697 25.6353 22
598 2 4.99693 10.2617 24.0684 21
599 2 0.427384 14.4696 21.4833 25
600 2 30.9446 15.9365 22.7489 22
601 2 21.9292 13.5482 16.9523 22
602 2 28.9068 16.1029 19.9121 22
603 2 19.6371 11.815 13.1831 20
604 2 7.98277 20.4434 20.013 24
605 2 8.67899 11.808 18.8226 25
606 2 2.44979 10.9903 27.379 20
607 2 13.9797 20.7401 21.6493 20
608 2 31.4917 11.7904 22.4776 20
609 2 3.80363 6.7266 35.4863 19
610 2 11.2993 19.3925 28.087 23
611 2 27.3866 12.4975 23.8041 22
612 2 10.1798 14.1917 29.3718 19
613 2 13.4383 6.38949 35.0194 21
614 2 10.3978 17.5009 19.3377 18
615 2 32.7044 7.21607 13.8336 20
616 2 7.51836 0.211359 22.0251 22
617 2 9.87293 4.66506 35.1321 20
618 2 0.614231 24.3509 30.3283 22
619 2 12.0572 9.03712 27.2412 19
620 2 18.4052 5.47004 21.311 19
621 2 0.747521 30.0958 33.994 21
622 2 24.4921 12.1129 28.1075 16
623 2 4.46912 34.1738 25.4848 21
624 2 8.28175 4.67616 29.4047 20
625 2 29.6722 8.36376 21.2032 21
626 2 6.52219 1.93605 24.7969 23
627 2 24.3487 8.87975 13.528 23
628 2 12.0487 1.0795 23.4965 18
629 2 13.3775 5.64759 29.9867 20
630 2 13.1233 23.4991 22.199 20
631 2 9.14547 30.5189 4.58221 21
632 2 4.38076 32.073 22.1739 22
633 2 10.4273 3.65935 31.0845 18
634 2 2.11895 6.80221 22.9983 24
635 2 8.57506 25.7167 11.5991 17
636 2 7.57935 7.09403 31.1487 18
637 2 27.4143 25.0663 14.7557 21
638 2 5.97432 23.515 16.2397 21
639 2 -0.0859495 20.8991 26.5106 20
640 2 24.0599 7.38218 18.8349 19
641 2 18.2911 16.5573 21.3395 18
642 2 9.90428 9.65445 32.0014 21
643 2 31.6721 18.7372 24.9265 22
644 2 7.03465 5.50686 25.012 20
645 2 6.81654 11.4782 33.7061 23
646 2 31.999 8.75971 32.5223 21
647 2 17.1102 14.3995 31.8551 19
648 2 4.28212 19.6928 33.7208 18
649 2 13.3975 3.87087 16.4955 18
650 2 6.1491 33.6944 27.8271 23
651 2 9.05702 27.5806 15.2159 22
652 2 7.2338 25.6629 37.5145 23
653 2 20.9866 9.13097 25.6275 21
654 2 14.3698 10.696 20.8335 26
655 2 12.0819 13.0217 10.2961 19
656 2 14.9262 7.25477 29.2517 19
657 2 8.48177 1.22763 28.3361 28
658 2 15.2274 1.10733 36.0364 20
659 2 13.2845 12.3305 37.2861 20
660 2 22.6389 6.55492 25.6048 15
661 2 8.42547 3.42763 13.4289 22
662 2 25.0889 34.2972 26.0799 22
663 2 16.1757 8.95908 10.0801 22
664 2 29.0047 34.0932 26.6278 25
665 2 6.61685 4.99453 19.4681 22
666 2 17.2072 11.1614 22.8453 22
667 2 3.51054 13.1156 20.2802 21
668 2 10.973 10.0322 24.444 21
669 2 14.1956 3.71839 25.8328 23
670 2 5.92414 10.1638 31.4934 19
671 2 12.312 6.04372 27.2288 19
672 2 10.9686 7.35103 35.5173 21
673 2 15.2202 8.72899 18.2281 22
674 2 7.26382 6.41088 34.7721 23
675 2 14.5471 4.20917 10.8107 20
676 2 7.13209 16.5088 10.5426 18
677 2 22.7522 10.4973 18.6504 23
678 2 10.3515 16.6105 27.0859 18
679 2 12.8751 5.65068 20.3125 20
680 2 8.61229 8.34867 14.6898 20
681 2 14.0697 14.261 34.4549 20
682 2 6.57099 28.1675 21.6122 20
683 2 0.607934 18.5545 32.8788 21
684 2 13.3162 15.1463 30.1752 21
685 2 5.37154 31.9551 17.1767 22
686 2 17.5645 2.45022 9.61264 19
687 2 15.1849 5.95401 17.7861 20
688 2 18.7249 4.15082 14.6973 17
689 2 23.5936 26.5325 19.321 21
690 2 22.0146 9.32473 34.4675 23
691 2 14.7718 30.0004 10.8115 25
692 2 13.2842 3.94072 22.8114 22
693 2 9.27058 29.5427 33.4283 20
694 2 1.26344 10.5718 32.4242 18
695 2 8.18806 28.0621 27.6674 19
696 2 6.80601 0.486657 35.1028 20
697 2 5.12413 33.8048 19.3941 23
698 2 6.98992 1.75298 9.52748 24
699 2 9.66267 3.81277 8.85724 22
700 2 14.8553 1.62007 11.6989 21
701 2 13.0111 7.17259 32.0987 21
702 2 3.828 14.9215 17.9853 21
703 2 10.9783 4.57674 24.8452 21
704 2 4.60695 25.1845 21.8083 21
705 2 13.1075 9.79463 29.6864 19
706 2 23.2337 13.5372 33.9711 20
707 2 8.77873 25.8973 29.0922 19
708 2 1.16716 13.8329 29.3609 16
709 2 17.8861 24.0222 18.7431 22
710 2 17.6614 8.4639 30.1808 20
711 2 19.9846 20.4183 16.0246 23
712 2 4.66451 6.84824 15.7092 21
713 2 12.2915 8.35047 18.6622 21
714 2 15.0159 14.94 15.6884 20
715 2 1.74855 22.2166 29.1281 23
716 2 17.4625 17.9648 32.9664 24
717 2 19.3816 18.9451 27.5194 22
718 2 14.3426 9.27495 24.5033 23
719 2 1.8295 25.6628 27.2302 23
720 2 1.62251 16.9814 16.9298 22
721 1 20.4497 23.1283 1.02339 23
722 1 3.83116 24.7101 1.25244 26
723 1 31.6732 12.6391 1.82405 21
724 1 7.67717 17.3821 8.44803 20
725 1 6.05075 25.5391 10.957 17
726 1 26.5539 28.0232 2.13654 20
727 1 28.8072 30.7362 7.41554 19
728 1 6.80545 23.0185 10.4793 20
729 1 1.47049 24.9879 12.3254 18
730 1 8.03666 20.3492 9.83305 18
731 1 0.0503301 24.5742 20.1855 19
732 1 26.7387 1.5243 9.59257 22
733 1 27.9156 19.7962 61.4999 24
734 1 0.413279 23.8409 2.95753 21
735 1 30.5638 24.8688 0.613317 22
736 1 26.2671 29.8713 10.3818 23
737 1 1.85469 28.8506 4.49645 21
738 1 32.5427 27.8251 5.89164 20
739 1 4.21951 27.6123 8.86901 20
740 1 27.4123 34.0348 11.8012 21
741 1 1.71133 32.3162 9.55104 21
742 1 22.0291 31.1873 13.84 20
743 1 3.36828 29.948 11.2009 21
744 1 6.91866 15.9151 12.3393 22
745 1 2.27431 31.9891 3.66228 21
746 1 1.13842 33.9473 59.0026 19
747 1 32.15 22.4166 0.130151 23
748 1 27.9326 2.2559 12.7655 18
749 1 32.1752 32.2138 60.3137 23
750 1 32.2904 24.6872 61.0139 23
751 1 8.6279 18.307 1.21523 22
752 1 31.3738 31.9902 17.2636 22
753 1 32.0902 33.0488 10.8011 22
754 1 28.7926 23.2323 62.4732 21
755 1 5.46177 31.3541 13.4862 18
756 1 10.5463 21.5817 24.535 19
757 1 32.4407 27.58 62.3983 24
758 1 5.26502 13.3401 6.38444 21
759 1 1.72501 12.3658 11.9409 18
760 1 27.3566 21.9895 20.3336 20
761 1 27.9257 15.5995 13.4673 19
762 1 0.757474 20.8004 11.4683 18
763 1 1.34008 18.7162 18.1975 21
764 1 7.41419 11.253 61.0327 24
765 1 30.1787 31.2081 12.4173 19
766 1 9.69667 33.9582 6.75174 23
767 1 23.23 15.603 13.3961 17
768 1 16.5236 22.9126 20.1628 20
769 1 1.06964 25.0739 63.2295 20
770 1 6.78417 27.3273 3.63896 20
771 1 5.69573 23.8623 7.73824 21
772 1 2.11093 27.4623 7.07999 20
773 1 7.10695 -0.116459 10.8753 21
774 1 28.6671 30.8719 15.2896 24
775 1 7.28386 20.8709 6.20232 20
776 1 4.64096 30.2451 8.57488 25
777 1 7.53334 27.018 20.7121 25
778 1 2.94671 7.55386 14.7347 25
779 1 0.876511 33.8102 6.4417 22
780 1 4.93759 29.4423 19.0841 21
781 1 31.6138 23.1528 6.15931 20
782 1 30.3377 1.55765 0.890244 20
783 1 0.84278 5.64215 13.5365 21
784 1 22.8031 3.72829 11.9158 23
785 1 21.9326 8.91473 62.092 23
786 1 2.21364 34.0011 12.3558 21
787 1 30.1052 3.06334 6.3647 16
788 1 12.0017 31.3877 14.49 25
789 1 12.1237 23.2162 17.2369 23
790 1 32.8833 29.5733 1.86139 20
791 1 23.5315 24.8273 27.5967 18
792 1 0.465748 5.41167 23.0528 23
793 1 12.442 17.9191 5.82518 18
794 1 2.64289 22.6734 6.8381 21
795 1 12.8795 23.7588 10.4487 19
796 1 5.39281 18.6147 6.88178 19
797 1 12.9204 30.6756 10.657 21
798 1 4.61932 24.1102 13.1647 18
799 1 32.2859 4.39619 9.18876 22
800 1 20.7706 18.091 22.4235 23
801 1 2.34501 21.7719 14.6085 19
802 1 14.9594 15.1487 5.22262 19
803 1 8.74044 25.1241 9.27043 19
804 1 2.75064 8.48866 11.5803 18
805 1 0.58343 27.2331 14.1035 21
806 1 8.85401 20.7758 62.4775 22
807 1 4.84078 19.6557 3.25252 18
808 1 3.4196 22.2828 11.132 18
809 1 2.14501 30.8006 6.33943 19
810 1 32.1595 17.9265 13.8638 23
811 1 14.1037 21.6204 5.1643 19
812 1 30.662 32.9904 7.87438 21
813 1 13.7421 33.8214 15.7497 20
814 1 9.0597 30.9834 14.8362 20
815 1 4.92593 26.9282 5.95842 22
816 1 7.17904 27.8361 7.77734 22
817 1 3.38027 33.4093 0.880137 20
818 1 12.7115 27.4364 5.49811 19
819 1 7.66182 28.705 57.8026 24
820 1 5.1876 31.2368 2.84764 19
821 1 4.74213 33.9715 14.3955 22
822 1 3.88507 3.57274 63.3276 22
823 1 6.48618 3.26392 12.483 20
824 1 22.3663 6.13547 0.300231 20
825 1 3.41944 31.5626 17.1308 24
826 1 24.0327 31.3943 6.52442 16
827 1 9.75546 5.65291 8.06462 22
828 1 15.2389 27.4362 16.1628 24
829 1 5.20615 20.1112 58.9365 20
830 1 6.41534 21.8636 2.01191 23
831 1 17.683 20.9208 5.91292 18
832 1 8.20021 25.8153 6.35179 22
833 1 10.1784 18.2051 61.9975 21
834 1 24.1036 24.8394 4.50143 21
835 1 13.2547 13.4988 5.8455 23
836 1 4.0096 15.4187 10.6569 22
837 1 8.8782 26.3966 1.30654 23
838 1 13.363 13.23 8.90086 21
839 1 7.77149 16.804 20.4512 23
840 1 12.7904 10.1634 7.24372 21
841 1 2.85745 27.4582 63.4053 22
842 1 8.9035 22.4822 4.87695 18
843 1 7.06304 16.9209 62.2472 23
844 1 10.6937 23.9409 0.145891 25
845 1 1.51157 2.97906 6.74585 19
846 1 6.50897 33.1444 3.92899 21
847 1 12.7614 20.9398 8.54663 17
848 1 18.9532 23.523 61.5326 21
849 1 10.5133 27.5922 7.1063 22
850 1 32.4185 14.7839 15.7276 24
851 1 14.2308 12.9549 15.5137 22
852 1 26.8407 20.5945 14.6964 24
853 1 10.7031 28.4968 1.79863 21
854 1 14.7939 32.0351 3.35572 19
855 1 0.76615 29.7689 62.6028 20
856 1 3.49246 0.192429 4.40358 20
857 1 0.739254 0.474399 3.1273 21
858 1 14.0459 0.644633 9.96848 22
859 1 4.10961 34.1377 8.79702 20
860 1 8.70711 30.2007 25.5019 25
861 1 30.4553 25.9156 25.6335 22
862 1 15.6208 27.4309 13.6592 22
863 1 17.5393 28.8138 8.59694 17
864 1 18.6168 26.4935 15.2366 22
865 1 9.07813 22.2501 1.24434 21
866 1 17.7575 17.6761 61.1555 21
867 1 19.2298 15.221 3.52925 20
868 1 16.5763 30.2505 11.6854 22
869 1 17.1618 24.0339 13.2624 20
870 1 20.1642 16.868 61.8388 22
871 1 6.76346 14.7485 9.93247 22
872 1 8.52166 17.6175 4.90944 22
873 1 4.49469 27.0812 12.6603 18
874 1 20.6613 28.732 13.8688 21
875 1 11.1971 7.39291 17.3963 21
876 1 0.727247 31.8893 23.8742 23
877 1 11.2527 31.309 59.558 22
878 1 19.9746 17.8638 9.70016 19
879 1 19.6414 23.0741 4.27255 22
880 1 5.58583 27.229 0.277821 23
881 1 10.6348 26.3188 61.8181 20
882 1 10.5755 30.0941 9.44887 18
883 1 5.23785 29.6987 5.68081 20
884 1 9.51379 25.0035 3.49131 19
885 1 17.2996 33.0638 11.3394 19
886 1 12.4355 32.2393 18.0786 25
887 1 12.1417 26.0794 18.8775 22
888 1 14.8041 27.8668 10.6051 21
889 1 12.8165 6.8478 4.2586 23
890 1 13.7125 29.0697 3.09518 21
891 1 7.88409 30.8238 9.85034 21
892 1 18.9084 28.556 55.9656 23
893 1 20.5241 0.952266 61.0615 20
894 1 19.1719 31.6393 9.46754 20
895 1 17.755 27.8163 11.7228 23
896 1 4.50621 3.79928 5.59351 20
897 1 7.62673 34.2391 14.7711 23
898 1 10.67 3.73403 26.7304 21
899 1 27.9447 18.63 13.2696 20
900 1 13.9271 25.7133 8.25943 20
901 2 30.9915 7.4631 7.19673 19
902 2 30.9348 24.5984 58.1069 22
903 2 10.5795 32.9225 5.36043 22
904 2 10.6137 30.0499 13.8986 20
905 2 16.543 28.8968 13.0165 19
906 2 31.9553 13.7234 11.1762 20
907 2 28.284 20.107 7.69361 22
908 2 32.1166 17.4568 7.7304 23
909 2 32.2623 21.6043 10.6321 19
910 2 2.97954 2.19617 4.50014 20
911 2 3.35198 29.1199 5.84322 23
912 2 7.50784 21.9334 0.589933 23