ITEM: TIMESTEP
29000
ITEM: NUMBER OF ATOMS
1500
ITEM: BOX BOUNDS pp pp pp
-30.0 30.0
-30.0 30.0
-30.0 30.0
ITEM: ATOMS id type x y z Coordination
1 1 -3.48775 -16.4345 -7.85329 13
2 1 5.23858 -17.3306 5.55873 12
3 1 -14.2115 3.12184 -8.72957 11
4 1 -12.6529 0.473565 -8.75301 17
5 1 -1.50036 -13.3181 9.01428 15
6 1 -14.6397 -7.22566 -17.0232 7
7 1 -8.72077 0.575567 -4.57159 17
8 1 -9.49444 -15.8875 1.88057 16
9 1 -14.3536 -12.1725 3.48702 13
10 1 -3.88193 -2.71061 7.01124 21
11 1 6.65687 -5.99045 5.80676 19
12 1 -3.85008 -0.56667 12.0485 14
13 1 -0.0781332 -8.86234 1.12663 19
14 1 -7.46428 3.51129 -5.97958 18
15 1 -0.805372 -3.08703 5.88715 19
16 1 12.9787 -1.63035 3.04858 16
17 1 -3.03491 5.33502 -13.2376 10
18 1 0.10113 -1.72116 -13.4491 16
19 1 -8.66802 -7.8097 -0.256318 20
20 1 -4.18206 -5.80215 -14.1164 21
21 1 5.40501 -16.7708 2.40425 13
22 1 1.23959 -8.48373 7.11609 18
23 1 4.49831 -12.0885 0.8978 20
24 1 -5.67192 -16.2331 -13.2576 8
25 1 -0.0988158 -8.36709 -7.33206 22
26 1 -4.69477 -5.13395 -19.3229 14
27 1 2.08603 -0.820438 12.0848 14
28 1 -4.92881 -16.5363 4.25488 19
29 1 1.32724 -8.44555 10.4815 14
30 1 -10.1849 -5.36222 -0.788046 17
31 1 -12.9902 -5.03324 -5.08724 17
32 1 -3.58906 7.51838 -2.01292 20
33 1 -1.99796 -1.37495 -9.82756 19
34 1 3.09392 -6.62515 -16.6994 12
35 1 -8.19199 -1.71797 12.3997 12
36 1 -15.3119 2.94252 -5.56672 13
37 1 -0.611539 10.1393 3.15389 16
38 1 -11.0457 1.05669 -6.33453 19
39 1 1.35307 7.7156 -0.821569 17
40 1 2.57385 -15.0674 1.55846 21
41 1 1.16674 -13.1389 -11.9265 13
42 1 -16.1757 -1.71219 8.01016 8
43 1 -9.82032 -9.09389 -14.3259 18
44 1 5.46458 -0.84964 2.92416 17
45 1 -11.7348 5.50713 -2.36817 17
46 1 -7.64777 -16.3249 4.57883 15
47 1 -12.1257 3.58242 -11.3355 13
48 1 2.54725 -3.10115 -8.96411 17
49 1 1.98817 -1.24779 3.2804 19
50 1 4.66743 -0.240842 6.93157 17
51 1 4.40064 -16.217 -3.01562 16
52 1 4.11063 0.944265 10.2213 18
53 1 -0.0548795 -6.79604 -10.6016 18
54 1 6.76164 -13.4073 2.14945 18
55 1 -8.73154 -10.8012 2.52446 17
56 1 3.89362 -7.16168 11.9594 15
57 1 -5.26034 -11.6239 1.89291 20
58 1 -8.47199 -6.2205 -2.80493 19
59 1 14.3055 -3.57051 5.63717 7
60 1 4.73312 -6.83919 -6.52283 22
61 1 3.4058 8.49008 3.262 16
62 1 7.70702 -1.63638 1.93589 22
63 1 -11.6994 -10.2876 1.83419 18
64 1 -5.77422 -4.24892 -16.4473 20
65 1 -10.6569 3.94915 -4.66737 15
66 1 -5.45581 0.852374 -6.43072 18
67 1 3.12274 -4.00154 -5.22076 19
68 1 4.90512 -4.55593 -9.73335 18
69 1 7.38404 -9.85083 -0.0177241 20
70 1 7.25798 -14.9942 5.07445 13
71 1 -8.78289 6.05142 -9.9212 12
72 1 -13.9162 6.063 -1.02275 16
73 1 -3.47355 8.43007 8.16502 8
74 1 -8.68291 -4.1399 9.85454 19
75 1 9.98689 -7.80611 -11.1595 16
76 1 -14.3758 -0.615896 4.48058 17
77 1 -0.0391441 -11.7125 -8.75313 23
78 1 -2.48313 3.621 -17.8149 10
79 1 -2.6519 -3.00223 -14.752 23
80 1 3.16407 6.6235 -3.74118 19
81 1 -7.12539 3.1572 -9.2381 19
82 1 -2.11679 7.49336 -10.5584 11
83 1 -3.73243 5.72653 0.467137 22
84 1 -5.87694 -15.9492 7.24677 12
85 1 -7.30332 -7.6458 -12.2633 20
86 1 2.46128 -10.2716 -9.43563 17
87 1 -2.98117 0.67436 6.9949 18
88 1 -15.5563 -11.7127 -7.4981 10
89 1 10.5451 -4.343 -1.12629 22
90 1 -9.53737 -14.968 -9.06862 16
91 1 8.37944 -11.9406 4.08103 16
92 1 -9.01462 2.59392 1.02231 16
93 1 3.14337 1.01805 -16.4453 15
94 1 2.92516 3.86237 -16.5377 12
95 1 5.97863 -14.13 -3.81662 16
96 1 0.884773 -19.473 3.64801 14
97 1 -9.16403 -16.6501 -5.74925 15
98 1 -13.5582 -7.47545 2.52174 17
99 1 9.64555 2.35831 4.89009 17
100 1 2.20462 0.970643 -2.44341 21
101 1 -10.3467 6.13962 2.364 18
102 1 -7.98502 5.43201 -3.79273 15
103 1 -4.32479 -9.08338 -14.0495 19
104 1 5.93474 -4.65032 13.6017 12
105 1 -4.1149 3.17406 -7.73334 17
106 1 7.86433 -6.79232 -5.78112 21
107 1 -13.262 4.88101 -6.01203 16
108 1 -8.81346 8.40882 0.898869 13
109 1 8.19801 -4.38683 -15.3582 13
110 1 2.68548 -10.3372 2.76212 22
111 1 -12.0432 -0.625218 -12.2113 18
112 1 1.26165 4.63116 -6.20077 16
113 1 6.52698 4.49334 -3.41564 19
114 1 -6.96728 5.75284 1.04473 19
115 1 -6.82926 -4.70148 -11.3249 15
116 1 4.96346 9.65925 0.870037 15
117 1 -15.5687 -6.0397 -7.25336 14
118 1 12.4144 -8.13421 -6.03929 10
119 1 -1.65701 4.13155 5.49898 20
120 1 -2.58371 4.72343 -9.91102 15
121 1 5.30563 -3.80271 7.27598 20
122 1 -14.0754 -13.2844 0.00872623 11
123 1 -7.49625 -13.6364 -0.275751 17
124 1 -0.0816204 -17.1082 -7.25901 15
125 1 -6.07178 5.00542 -11.7515 13
126 1 -4.54173 5.24176 -4.22619 19
127 1 11.4315 5.59527 -6.41926 10
128 1 0.345622 -15.328 9.55755 11
129 1 -9.11251 -1.60996 -1.65084 19
130 1 3.85206 12.8121 1.20265 8
131 1 3.89896 1.13103 4.79373 19
132 1 1.91488 10.2686 0.0676134 17
133 1 -6.9079 -1.91448 -10.2003 20
134 1 7.33409 -12.6812 -0.793009 16
135 1 -4.15496 -6.92868 8.51929 17
136 1 -16.5212 -3.66047 2.3089 15
137 1 -10.176 -14.9304 5.12978 11
138 1 -13.5323 -4.15884 -1.93376 19
139 1 -2.67219 -17.6105 -3.47374 17
140 1 -7.43016 -8.94455 -3.51007 21
141 1 4.06723 -14.1379 -1.41784 21
142 1 -4.21258 11.1672 3.07327 11
143 1 -10.5104 -9.10226 4.25619 16
144 1 -9.171 -2.12851 -6.12775 21
145 1 -11.9332 5.6029 -8.93925 14
146 1 -16.0669 -8.63102 -8.60535 12
147 1 -14.5252 -4.22718 7.29815 16
148 1 -5.77615 -13.254 5.25967 22
149 1 2.70112 -11.5044 6.07228 19
150 1 8.88448 -5.4749 -3.51193 18
151 1 5.6517 -2.34846 -4.67931 22
152 1 9.52624 2.9051 10.185 11
153 1 -2.20964 0.508209 -19.2911 8
154 1 2.93783 -1.20669 -14.1483 19
155 1 -12.376 -10.6045 -12.7091 17
156 1 -4.92088 -0.0802676 -14.4929 19
157 1 -7.8476 8.92492 -6.84942 10
158 1 3.69309 -6.75002 9.01378 17
159 1 -3.88455 -13.7378 -14.9022 7
160 1 -5.10961 3.62245 -14.8398 12
161 1 5.15936 5.93447 -12.6084 12
162 1 -8.21237 -3.53247 2.3297 21
163 1 -6.79386 4.52691 7.98999 12
164 1 -1.91052 -9.9036 -15.5313 16
165 1 -6.62518 -19.0185 -2.85715 11
166 1 4.5438 -12.3752 -5.6862 19
167 1 3.95019 -9.71821 -0.355433 21
168 1 8.21575 5.50172 -6.20795 16
169 1 -2.41633 4.4102 -2.2104 21
170 1 -11.1753 -8.1431 7.23593 14
171 1 -0.788225 -0.0536921 12.9822 12
172 1 11.408 -2.93619 -3.86241 14
173 1 1.31706 2.02228 11.197 13
174 1 -11.7722 -0.591322 3.71916 18
175 1 -14.4328 -11.6815 -4.71796 15
176 1 4.44613 1.01084 -13.1389 17
177 1 -1.70248 -6.05379 13.9811 7
178 1 10.2467 3.92198 -11.8137 12
179 1 -1.09172 -12.3058 -3.95854 19
180 1 -4.56588 -2.22747 -17.4158 17
181 1 3.99385 -1.43834 -7.73617 24
182 1 -11.1098 -5.2198 4.24426 18
183 1 -1.73783 -19.958 -5.41175 10
184 1 -14.7023 -8.17721 -12.5227 11
185 1 -1.14252 10.0214 -2.54716 18
186 1 2.27538 -1.69007 -17.7881 14
187 1 7.99081 -2.93091 5.04018 21
188 1 12.9174 -5.51044 -3.32106 12
189 1 -6.44092 -8.9127 1.30693 18
190 1 4.87656 -9.26917 -15.1093 10
191 1 -4.56151 -16.3773 -1.53148 16
192 1 -12.8549 -3.40127 -14.8387 20
193 1 -10.8992 -6.2087 -12.4538 16
194 1 9.5485 -1.51174 8.16031 19
195 1 7.85668 -7.78974 2.27598 22
196 1 -8.77379 -11.1911 -11.5782 21
197 1 1.51833 -7.4847 3.83131 19
198 1 -0.169715 3.21857 -12.6721 15
199 1 3.11941 4.10296 -1.30552 22
200 1 -10.4237 -12.8577 0.20417 19
201 1 -0.474482 7.20135 -2.92142 19
202 1 -7.95384 -1.72623 8.59734 18
203 1 -12.4765 -8.72868 -15.5157 12
204 1 -10.5822 -5.60585 -9.91876 18
205 1 -9.82122 -11.7377 -9.03121 16
206 1 1.32426 -14.3705 -1.08673 17
207 1 9.10426 -0.921336 -0.992033 21
208 1 -4.57929 -8.43005 -7.85422 18
209 1 -11.7849 -4.96042 7.72786 16
210 1 2.9909 -19.5362 -2.78284 11
211 1 -1.67555 -11.4785 2.02039 21
212 1 -3.1521 12.4758 -2.25682 9
213 1 0.728704 0.0551005 -11.1459 18
214 1 -6.70617 -7.23221 -15.9554 22
215 1 -1.09362 -16.6986 -1.20877 20
216 1 -5.4169 -9.99118 -17.1587 12
217 1 -13.0508 -3.66308 -11.7644 19
218 1 13.0581 0.515441 -2.51626 13
219 1 -3.85852 -0.873486 -11.8641 18
220 1 -8.16319 0.00207047 -7.97844 20
221 1 -4.96475 -7.60492 3.90261 19
222 1 -8.90052 6.24123 -7.30619 17
223 1 0.598443 7.69281 2.25464 21
224 1 10.8231 -6.42602 2.18626 16
225 1 -6.95368 -3.64809 6.70661 21
226 1 5.70057 -9.30897 11.3472 14
227 1 -12.3311 4.53326 4.72385 11
228 1 -0.301081 -6.61253 -16.2127 14
229 1 0.0310369 -17.3143 1.68388 19
230 1 -5.44548 -4.23479 9.20908 20
231 1 -10.0364 -11.0395 6.11125 16
232 1 7.51966 -14.5694 -6.917 12
233 1 2.70799 -7.18658 -9.68153 19
234 1 4.91666 -15.6419 -6.82729 14
235 1 -6.86729 -10.8457 5.0354 17
236 1 -11.4447 7.8121 -6.56833 12
237 1 7.31425 0.671991 11.659 14
238 1 8.4328 3.6379 7.11597 16
239 1 -13.6435 -8.42856 -3.17597 17
240 1 1.05344 -14.3359 -6.62613 19
241 1 -12.0348 7.95941 -0.20849 10
242 1 -16.3386 4.71217 -0.864459 10
243 1 5.66034 -11.4423 6.53717 19
244 1 10.5335 -9.37626 3.21349 15
245 1 -3.01923 1.93548 3.57098 19
246 1 -7.00383 -7.7766 -6.05032 22
247 1 -2.00379 -3.12459 13.9532 9
248 1 -3.73206 10.8915 0.171023 15
249 1 -9.7767 0.921962 -10.6278 18
250 1 -13.8615 -0.644612 10.4785 10
251 1 -16.9428 -0.464063 2.42127 13
252 1 -7.96947 -6.51927 -8.78477 17
253 1 -11.7792 4.10221 1.36447 18
254 1 8.28265 -4.35153 7.47725 20
255 1 -11.8119 -15.8275 -0.340981 13
256 1 3.66254 -13.1312 3.57225 19
257 1 -15.5628 5.30546 -3.78087 14
258 1 -1.90657 -8.47274 11.7887 12
259 1 4.49862 -13.6043 -10.8525 15
260 1 -5.76629 -2.73826 -13.5185 23
261 1 4.62841 -3.44876 -18.7079 10
262 1 6.67508 6.68589 2.39927 17
263 1 -9.77499 -10.6211 -1.55142 19
264 1 1.75328 -7.52111 -13.0892 21
265 1 -3.47565 -14.7215 -4.36279 20
266 1 -14.8267 -14.6116 -8.53303 8
267 1 -4.80479 -10.1502 -2.14702 17
268 1 6.34004 -3.58141 -13.3121 18
269 1 -12.0841 -2.32584 -17.9749 12
270 1 -15.3487 -3.09387 -9.84526 12
271 1 -12.9996 -0.213307 7.76325 17
272 1 -9.58898 8.20807 -4.28184 15
273 1 -8.08553 7.72197 3.87852 17
274 1 8.76719 -11.141 -7.52199 14
275 1 6.96546 -7.07999 -8.85254 20
276 1 -7.28743 1.05018 -0.927274 20
277 1 0.336202 -11.7312 -6.38417 20
278 1 -0.0795954 2.07058 3.023 20
279 1 -11.6694 -1.42151 -3.50485 20
280 1 2.05443 -17.1536 -1.13319 20
281 1 11.3619 -4.71272 7.33841 12
282 1 -10.4272 -9.38703 -7.4659 19
283 1 -10.9198 -12.5412 -6.09648 19
284 1 -1.79084 7.69303 0.4116 21
285 1 -12.2346 -15.304 -8.85505 11
286 1 -15.6656 0.189145 -0.0530065 17
287 1 0.304059 8.53019 -9.45714 14
288 1 9.18926 4.09172 1.72464 21
289 1 -13.9957 -15.1541 -5.73404 9
290 1 -3.61912 -12.8588 -9.59746 19
291 1 -15.837 -8.96474 4.53095 13
292 1 -15.4457 -0.213379 -7.68638 13
293 1 -3.27626 -17.3911 1.46713 20
294 1 -2.55837 -20.8459 -2.52776 11
295 1 2.6709 6.49618 -14.7488 8
296 1 -12.9309 2.44214 -3.56776 21
297 1 -1.04385 -20.6377 1.04358 13
298 1 12.834 0.0652576 -8.1782 11
299 1 -1.7218 -3.72179 9.11903 14
300 1 -11.0208 -3.09845 0.608132 20
301 1 -9.59046 2.13136 4.07064 18
302 1 -8.44488 -17.1434 -0.738726 14
303 1 -2.64452 -11.017 -6.86356 18
304 1 7.17937 -12.5949 -11.8148 10
305 1 -1.77469 -8.75342 6.63001 20
306 1 -9.59798 -3.73862 6.62156 20
307 1 -3.92929 -10.119 4.31678 21
308 1 3.32616 -12.151 -7.87755 18
309 1 -6.89082 -10.4307 -14.3495 18
310 1 -5.09849 -8.77476 6.99688 20
311 1 -0.368353 -9.43883 -4.35462 20
312 1 -9.61944 -1.35011 -18.6225 12
313 1 4.27459 -19.3725 2.80162 10
314 1 -3.30897 10.7575 -5.09507 12
315 1 -9.58732 1.32374 12.9046 8
316 1 -9.04306 -8.67699 8.69224 12
317 1 5.36754 -12.5087 9.58185 13
318 1 7.51077 -2.112 -2.95402 19
319 1 -9.98115 -0.353336 1.47439 20
320 1 0.0801846 -2.22989 -7.74461 19
321 1 4.76481 -14.3709 6.81687 17
322 1 9.49144 0.57357 -7.80857 18
323 1 -4.84118 3.07694 5.77369 20
324 1 0.438393 4.0132 -3.38555 22
325 1 7.81376 -9.96991 8.94842 14
326 1 -0.399414 -14.8313 -9.30511 14
327 1 -6.53925 10.1863 2.56809 13
328 1 -7.02591 -19.0913 -11.3813 5
329 1 -2.07549 2.50419 10.9233 14
330 1 -5.74852 -4.53196 4.36141 23
331 1 -8.02632 -13.9528 -6.00934 19
332 1 -12.0628 -2.31796 6.13031 18
333 1 -12.9081 -10.5981 -9.93048 17
334 1 -11.685 1.88519 9.87173 11
335 1 -8.08294 -13.6909 -13.0591 14
336 1 -3.65131 -7.36704 -16.8124 17
337 1 -3.47347 -19.5466 -0.356433 13
338 1 -6.85344 -6.91525 7.5392 18
339 1 10.4767 -3.6937 3.89835 18
340 1 -6.75418 -6.98295 10.6914 16
341 1 -10.469 -0.545655 -15.0862 18
342 1 7.74247 2.19196 -5.61009 18
343 1 -5.05695 -20.8209 -4.28816 7
344 1 -1.87103 0.417418 -7.00888 22
345 1 0.717557 12.7716 -2.72799 10
346 1 0.842061 5.84823 -8.78417 18
347 1 -0.338113 6.47144 7.40098 15
348 1 -15.9468 -5.87753 -3.93045 14
349 1 5.71126 4.31936 -6.56658 19
350 1 -10.1792 -11.8182 -14.2906 14
351 1 -5.96169 -15.0532 -10.0222 15
352 1 -1.85978 -0.143088 -15.8279 20
353 1 -9.22748 4.51964 -0.901363 17
354 1 2.78433 4.05047 9.05547 16
355 1 7.05496 6.37409 -9.26994 12
356 1 3.76128 3.43117 -4.37116 18
357 1 -8.27822 2.57931 -12.5336 15
358 1 4.69264 4.75217 -9.52682 17
359 1 -4.20194 -14.6107 1.26611 17
360 1 -14.9279 -7.4884 -0.816545 16
361 1 -8.10666 -0.773891 -13.6366 18
362 1 13.5453 3.11248 -4.36012 10
363 1 1.26202 -11.889 0.211862 23
364 1 11.3009 2.23137 -5.92463 18
365 1 -0.0988847 -5.31789 -8.03725 19
366 1 -1.11555 -14.3826 1.81452 23
367 1 -3.37166 -18.2366 6.47858 11
368 1 2.32748 -12.9108 9.11137 19
369 1 -14.3333 -6.13972 -10.2049 16
370 1 -0.575474 -12.4432 -14.3664 10
371 1 -4.6964 0.0659714 -8.96309 21
372 1 1.69919 -4.29287 11.0667 13
373 1 -11.5756 -8.25417 -1.59039 18
374 1 8.80577 -6.30713 -12.914 13
375 1 11.1971 -8.59341 0.427731 15
376 1 -5.60323 4.72559 -1.41631 20
377 1 -2.30058 -11.1618 -12.0761 16
378 1 1.28079 1.37944 -14.4583 21
379 1 4.74162 -2.16826 -11.7172 20
380 1 -11.5444 -2.48853 9.06559 18
381 1 3.73058 6.56326 0.928929 21
382 1 -8.54469 -5.58921 -18.5307 18
383 1 -3.63155 -5.52824 5.83698 21
384 1 -6.3665 9.22727 -3.57474 12
385 1 -7.11321 -2.87889 -19.3323 12
386 1 -13.2856 -5.11087 1.0411 22
387 1 -6.09786 -13.0111 8.5178 13
388 1 3.30327 3.83966 -12.5249 22
389 1 13.3682 -1.07179 -5.18955 11
390 1 -9.84716 -18.0346 -2.67235 9
391 1 -7.38665 -19.3608 -6.27626 10
392 1 -10.6984 2.94627 6.8026 15
393 1 -1.98587 -9.31524 -9.57593 18
394 1 1.18175 2.19961 0.0574373 21
395 1 6.8114 -4.60806 2.35558 18
396 1 2.95943 9.96727 -7.49593 11
397 1 -1.97627 -13.1358 4.81249 18
398 1 -5.91645 -0.11743 6.70303 21
399 1 2.23689 1.25295 7.84715 21
400 1 -1.32233 -1.8179 -17.8183 15
401 1 -13.0011 -6.36918 -14.4336 19
402 1 -0.214911 -11.9154 11.1246 13
403 1 4.50556 4.49621 3.58682 21
404 1 8.15461 4.9425 -12.8697 12
405 1 -10.0057 3.05056 -8.94616 18
406 1 -5.37969 8.0985 -6.16631 13
407 1 12.4405 -1.73494 7.59185 11
408 1 10.4833 -3.31888 -13.2807 14
409 1 -11.2516 -10.5315 -4.27521 23
410 1 3.35195 -5.84421 5.66827 22
411 1 -1.70112 10.5439 -8.13648 10
412 1 -1.67939 -14.3349 -6.74217 21
413 1 7.47676 -2.09735 -17.7707 10
414 1 -5.90074 6.92387 -8.88735 13
415 1 -9.586 -6.23058 -15.4293 18
416 1 2.54864 -16.4469 7.81978 14
417 1 -15.7976 -8.7664 -5.58779 13
418 1 -10.3627 -4.35719 -3.77563 19
419 1 -4.99477 -9.9902 10.4119 13
420 1 0.23832 1.64852 -4.87828 22
421 1 1.7495 -10.1292 -14.7451 13
422 1 6.85892 -6.71949 9.57541 18
423 1 5.7213 -4.09448 -7.07639 20
424 1 -15.258 -1.59104 -2.51097 16
425 1 5.27757 -11.2582 -2.77894 21
426 1 5.57357 5.7424 7.34962 12
427 1 -2.73865 -4.08707 -11.6019 21
428 1 -0.535229 12.1887 0.419572 12
429 1 6.17036 4.09786 -15.1021 13
430 1 3.95981 -3.49873 -15.7424 17
431 1 -7.07249 -17.1363 -8.75654 13
432 1 -11.9434 -5.52171 -17.382 19
433 1 9.97427 -1.80401 -9.16991 17
434 1 7.12523 2.63206 -9.61725 18
435 1 5.47712 -7.17574 -11.4364 17
436 1 2.26622 -12.9918 -3.58273 20
437 1 6.831 1.90479 2.82514 20
438 1 -7.81797 1.78547 7.72107 16
439 1 9.66986 2.86818 -3.47248 17
440 1 8.28695 -9.66052 5.50723 18
441 1 11.9264 -1.3294 -11.5691 13
442 1 7.26897 -2.38292 9.9423 18
443 1 2.79877 -10.7603 11.328 13
444 1 7.12177 0.623589 -3.26351 23
445 1 0.996061 -3.45835 13.7098 9
446 1 12.7482 -6.72328 -9.20227 11
447 1 10.5967 -0.660769 5.29088 20
448 1 -15.0386 -3.78725 -16.59 11
449 1 13.6279 3.29341 -1.23321 12
450 1 9.79254 -10.1521 -1.79374 17
451 1 -1.36729 -10.3485 -1.38949 20
452 1 10.4495 0.337113 2.10775 21
453 1 1.34117 9.26615 5.25813 14
454 1 3.50186 2.71063 1.6111 20
455 1 -7.53175 7.49228 -1.59704 17
456 1 7.2586 -0.67456 -6.98969 21
457 1 5.49368 -6.0428 -14.7245 16
458 1 1.16858 12.1386 -6.49077 8
459 1 -7.94378 -10.5756 -6.27898 19
460 1 -15.3749 -5.99043 4.68132 17
461 1 -11.0662 2.81505 -14.1688 9
462 1 -2.57187 -19.7326 3.72484 13
463 1 -13.3007 1.36292 -13.6957 11
464 1 -14.8651 0.301146 -10.6535 12
465 1 8.46127 -12.4268 7.43112 11
466 1 12.3945 4.78995 1.29847 15
467 1 -3.94878 -11.7161 7.13936 22
468 1 -15.3591 -5.20806 -13.4029 13
469 1 0.314481 -10.6293 4.83093 19
470 1 -5.3781 2.29367 11.189 14
471 1 13.4405 1.71528 -11.1772 9
472 1 4.1934 1.45339 -10.2859 21
473 1 2.24851 -15.8047 -9.77658 13
474 1 6.23495 -7.38992 14.3097 7
475 1 9.64596 7.57071 1.48414 10
476 1 8.22 -11.8077 -4.14745 15
477 1 -7.69263 4.72219 3.95984 19
478 1 -12.3343 -13.8224 -2.95048 17
479 1 -9.72024 -3.33795 -12.4863 20
480 1 10.341 -3.23655 10.2052 11
481 1 -2.55811 -10.1516 9.39267 19
482 1 6.14633 3.50455 9.69655 15
483 1 -5.35632 8.84422 0.0384981 17
484 1 4.67431 0.68002 -4.6871 21
485 1 7.76484 1.21897 0.168662 19
486 1 7.01578 1.19637 -17.1331 13
487 1 -13.328 -10.4676 -1.43542 18
488 1 11.451 0.22813 -13.9291 9
489 1 -4.57925 -7.00462 -11.1877 20
490 1 6.30565 -9.95248 -6.13274 18
491 1 10.1869 -3.05482 1.34869 19
492 1 4.78679 2.18111 -1.47011 19
493 1 13.3457 0.30971 0.47037 11
494 1 -1.0709 -6.61412 9.1639 15
495 1 -0.817988 1.06731 9.01111 17
496 1 -0.849795 -5.29778 -13.5028 21
497 1 -6.85513 7.10614 6.69558 14
498 1 5.36861 -1.71845 12.1136 16
499 1 12.8538 5.90842 -1.97028 10
500 1 0.351173 -18.3699 -4.67938 13
501 1 -5.92996 -2.55809 -7.11054 20
502 1 5.95639 4.3573 0.968708 21
503 1 9.85147 4.73056 -0.785395 17
504 1 -0.398421 -5.86191 5.78925 20
505 1 0.466484 7.96145 -6.64093 21
506 1 11.0944 2.01187 -0.314905 20
507 1 -13.0891 -10.2319 -6.80281 16
508 1 1.29921 -4.5334 -17.8673 14
509 1 -13.4171 7.73821 -3.92643 13
510 1 6.58674 -9.16224 -12.13 16
511 1 8.59172 -3.17738 -5.60404 14
512 1 8.83174 2.1659 -14.7732 13
513 1 9.57541 6.55233 -3.74253 14
514 1 -1.38844 -1.08082 3.70481 21
515 1 -13.5173 3.05077 -0.82743 21
516 1 1.55175 0.574629 -8.06312 19
517 1 -3.12453 -14.8566 6.61625 19
518 1 -8.18736 1.95681 -15.3704 13
519 1 4.3541 11.0903 4.0679 11
520 1 5.25605 -3.31742 4.29353 20
521 1 6.44331 7.31134 -4.46183 15
522 1 6.33478 8.34591 4.87336 9
523 1 11.8386 -10.031 -9.36397 11
524 1 -15.8304 -10.4801 1.24343 13
525 1 1.71154 -19.7778 0.484645 16
526 1 -1.92935 -7.97667 -12.7982 19
527 1 1.69374 6.27095 5.45652 16
528 1 2.50849 -9.32998 -6.71885 20
529 1 4.98071 9.94162 -1.99098 12
530 1 -16.3752 -6.88976 1.71938 15
531 1 4.70761 -18.6983 -0.262946 12
532 1 5.5832 1.79762 -7.38191 16
533 1 0.971859 -13.1217 3.59667 21
534 1 -1.51817 5.1004 2.46725 20
535 1 3.82227 -9.75348 -12.2581 21
536 1 -0.52715 -16.8151 7.35003 15
537 1 5.49167 6.02655 -1.4305 18
538 1 -4.36384 -0.578931 9.34432 18
539 1 -8.73201 -9.66061 -17.0034 13
540 1 2.6467 -4.46687 -12.6487 22
541 1 -5.17719 9.56469 5.67149 12
542 1 5.94107 -15.9032 -9.70655 9
543 1 -0.284208 -11.4489 7.57714 20
544 1 2.93985 -16.9363 -5.45956 14
545 1 -13.8815 -7.87564 6.86402 12
546 1 -4.29977 -3.53361 -9.28343 19
547 1 -4.97479 -13.3071 -6.54756 16
548 1 -13.4797 -3.47198 3.5781 19
549 1 11.8504 2.81793 -8.77101 15
550 1 -6.53978 1.16098 4.02052 21
551 1 -15.8574 2.87035 1.52883 11
552 1 5.96016 -7.20641 -0.855606 21
553 1 -2.62131 8.08353 -5.37543 16
554 1 7.99078 -0.992304 -12.1915 21
555 1 7.66258 -3.94033 -9.734 18
556 1 -14.6682 -1.8163 -13.2467 15
557 1 -13.835 -14.1848 -11.8125 6
558 1 -2.32063 6.51789 -7.73019 22
559 1 -10.0053 -6.68774 10.6169 10
560 1 -4.34604 -6.02494 12.2666 13
561 1 0.439904 -10.3737 -11.5584 23
562 1 -10.259 -2.22308 -9.62685 17
563 1 8.19672 10.345 -0.445618 6
564 1 -9.69319 -6.57293 2.08053 17
565 1 6.30027 -1.13772 -14.5056 19
566 1 -0.31441 -19.2622 -1.89275 18
567 1 4.85612 -0.496132 -19.1854 10
568 1 -1.79158 -4.66499 -16.9165 19
569 1 1.37396 3.50868 5.90418 19
570 1 -1.60849 1.69926 -10.4047 17
571 1 -10.3284 -8.75189 -10.6462 20
572 1 3.73107 -8.12016 -3.36582 20
573 1 -6.21037 -11.96 -4.04635 17
574 1 10.0591 -0.248877 -4.24161 20
575 1 9.47 -9.11928 -4.82359 19
576 1 -9.09243 2.48033 10.0959 12
577 1 9.86572 -11.7535 1.10411 13
578 1 11.5391 -7.68795 -2.8731 18
579 1 5.80406 -10.4667 2.85242 22
580 1 2.11225 7.29171 8.21289 11
581 1 -7.1794 0.119187 10.4014 16
582 1 -5.91531 -19.3192 5.57466 9
583 1 5.88915 -1.12802 -0.924785 19
584 1 7.17527 1.08251 8.7081 19
585 1 -13.3461 1.08741 1.63829 19
586 1 1.80915 -10.6463 -2.95562 19
587 1 7.73138 4.83295 4.45836 18
588 1 4.79574 -4.54983 10.4767 20
589 1 -2.59495 7.90315 3.44505 18
590 1 1.97227 -16.2113 4.41798 21
591 1 -10.3528 -7.58669 -5.01949 19
592 1 0.325659 -1.80652 8.06762 17
593 1 -0.141245 4.91319 -0.212976 22
594 1 -9.04337 -13.3953 7.36703 10
595 1 8.18777 -2.51548 12.7279 11
596 1 8.72154 -7.35387 -0.836498 20
597 1 7.21047 0.274926 5.43967 19
598 1 -6.21149 2.29602 -3.63441 18
599 1 -6.85299 -12.4905 -9.03224 20
600 1 -9.70807 -2.9318 -15.8872 23
601 1 -7.64673 -4.9632 12.8132 10
602 1 3.47606 12.1259 -4.24762 8
603 1 13.6085 -4.23721 2.1765 12
604 1 3.80145 6.53056 -6.99044 18
605 1 -3.5942 3.17217 8.6628 20
606 1 5.38856 3.05733 6.96787 20
607 1 4.40089 -12.6422 -13.7703 9
608 1 -9.03559 -13.1367 -3.26673 19
609 1 -8.27117 -4.75371 -6.46476 19
610 1 9.84512 -6.3277 5.30075 17
611 1 0.542678 -3.60385 -11.1422 17
612 1 -7.53846 -9.21613 -9.32536 21
613 1 13.4927 -5.90441 -0.00324578 12
614 1 4.50239 -9.48279 8.58174 20
615 1 -6.3646 -8.196 -19.324 9
616 1 4.05974 9.40896 -4.69826 12
617 1 -6.69698 -6.23883 2.01235 21
618 1 -14.8054 -2.48296 0.61164 22
619 1 9.33252 0.979089 -10.525 20
620 1 9.2371 -1.39573 -15.3245 15
621 1 -14.0058 5.4186 1.83271 13
622 1 -0.0534343 1.62443 -17.2308 15
623 1 6.72916 -8.49013 -3.37383 21
624 1 -14.8173 -3.22498 -5.94882 15
625 1 11.436 5.1133 3.74995 10
626 1 -11.3815 -15.1971 -4.92447 14
627 1 3.58611 -1.9266 8.88945 19
628 1 -10.6874 -4.2634 -7.25618 18
629 1 -13.7303 1.98613 5.14435 9
630 1 1.35008 3.07892 -9.95877 16
631 1 6.50353 -12.7981 -9.16412 18
632 1 -11.0646 -12.9579 -11.545 14
633 1 10.3997 -8.33267 -7.80251 18
634 1 -15.6235 2.00658 -2.60602 15
635 1 -12.7442 -7.0322 -7.82489 19
636 1 -12.9889 -15.1072 2.34892 11
637 1 9.22631 -7.16522 7.77173 14
638 1 3.17856 -4.55096 2.98943 18
639 1 -9.43312 -0.460963 6.56322 18
640 1 1.06655 11.8926 3.31026 11
641 1 0.109787 4.15621 -15.4373 14
642 1 -9.42128 6.06434 6.01752 11
643 1 10.0916 5.10344 -9.54296 12
644 1 -0.017965 4.19354 8.61791 17
645 1 4.91923 -9.07106 5.36963 17
646 1 2.41813 6.40355 -11.4819 12
647 1 -11.268 -0.670508 12.5626 10
648 1 -4.73921 -10.2552 -10.9046 19
649 1 -16.3436 -4.57111 -0.712684 14
650 1 -6.3608 -17.4566 1.89829 15
651 1 2.19321 -4.4069 7.91574 21
652 1 0.152839 -15.1558 -4.28471 20
653 1 -16.3801 -2.71712 4.99008 14
654 1 11.4076 -4.49401 -10.1211 12
655 1 -10.4633 1.80236 -2.36417 19
656 1 -8.40224 -6.28766 4.68561 19
657 1 -5.48724 -12.7019 -12.2442 19
658 1 -2.02381 -13.6573 -1.05466 19
659 1 6.39252 -15.8122 -0.48665 14
660 1 -2.47931 2.53404 -14.6645 18
661 1 10.0717 -5.48516 -8.0056 18
662 1 13.4246 -2.67849 -1.17815 13
663 1 13.0302 -3.94987 -6.95907 9
664 1 -7.25829 -1.01698 -16.557 20
665 1 -7.29842 -14.1712 2.66618 19
666 1 6.95843 2.22864 -12.5959 22
667 1 6.52135 -0.39182 -9.78117 21
668 1 -12.4295 -0.220043 -1.02749 20
669 1 -0.938423 3.25836 -7.54748 20
670 1 -13.033 -10.401 5.37669 14
671 1 1.59021 4.49107 2.75113 19
672 1 2.64936 -19.1601 5.93025 10
673 1 -1.5382 5.0431 -5.24691 19
674 1 -1.73559 9.27187 6.00266 12
675 1 -4.78493 -3.34972 13.8777 8
676 1 5.51189 -5.18114 -3.31486 23
677 1 -7.22588 -10.7154 8.05869 16
678 1 0.32714 -13.9077 6.68264 25
679 1 -8.51078 -1.71671 4.17755 20
680 1 11.1749 1.69752 7.73811 14
681 1 5.23054 -9.94321 -8.82603 22
682 1 -10.2831 -4.17395 -20.2024 9
683 1 -6.48139 0.977714 -11.5624 15
684 1 -12.5192 -1.89298 -7.06707 17
685 1 8.16762 7.14573 -1.14467 14
686 1 -4.65278 5.70544 3.90393 18
687 1 -9.59475 -18.2315 -8.84004 10
688 1 -5.53817 2.77086 1.42058 21
689 1 10.7517 0.288259 10.7645 10
690 1 -6.3322 -15.9344 -3.65414 15
691 1 8.36196 -9.70604 -9.957 17
692 1 -1.08268 -16.422 4.43022 23
693 1 0.772989 -3.14639 -15.3051 20
694 1 -7.54393 -4.71675 -14.5531 17
695 1 -4.88858 -13.6378 -1.63007 18
696 1 -13.6661 -0.260054 -4.87111 18
697 1 -3.90077 5.44857 7.06439 15
698 1 8.17267 -4.55604 15.7917 5
699 1 -11.3272 -12.8333 3.70099 18
700 1 7.60162 -4.34301 -0.350419 20
701 1 -4.27072 1.45358 -16.6186 16
702 1 12.5717 1.88155 3.12325 14
703 2 -13.1751 -3.42944 -16.9376 15
704 2 -6.06006 3.41535 -7.53417 16
705 2 -3.88863 -5.2859 -10.4283 17
706 2 -7.15167 -3.73724 8.77878 18
707 2 -14.9647 -6.26559 -12.1159 14
708 2 -0.946217 -7.05094 7.29356 19
709 2 -13.8199 -14.8303 -9.98342 9
710 2 -14.3545 1.3102 -8.91944 14
711 2 -2.29401 11.9139 -0.578304 11
712 2 -6.57197 -4.2451 1.37728 24
713 2 10.1565 -2.70302 -0.537869 20
714 2 -9.32692 -5.29683 -8.14911 18
715 2 -13.9217 -8.18639 -14.3359 12
716 2 -9.54645 -4.4397 0.633257 20
717 2 -6.21036 -11.4707 6.64197 21
718 2 5.9024 1.64182 10.4611 16
719 2 4.16411 -9.05736 -10.1724 21
720 2 3.6093 -17.7167 6.52758 11
721 2 4.82474 -4.21114 2.15532 19
722 2 -12.6595 4.36117 -3.8881 23
723 2 -15.1279 -1.17381 -9.37828 13
724 2 13.6131 -3.24817 3.8184 9
725 2 7.9614 -12.8955 -8.00304 13
726 2 -9.85305 -14.6687 -6.17798 18
727 2 -7.6008 -3.66882 4.80632 21
728 2 2.76982 -19.7849 4.1507 11
729 2 9.50461 -10.4248 4.09389 14
730 2 -0.288245 -11.8247 -12.57 16
731 2 3.3861 -5.6967 10.63 17
732 2 -3.88193 6.51897 -8.99385 16
733 2 -13.2269 -15.0462 -7.36071 11
734 2 -0.472922 -1.7891 13.4241 10
735 2 -15.684 6.08424 -1.9978 12
736 2 -5.09601 0.371811 10.971 15
737 2 -12.7541 1.56988 -2.02592 20
738 2 8.65833 -11.3492 -0.607815 16
739 2 -5.02429 3.99861 7.72035 17
740 2 -2.83889 5.93911 -11.3543 11
741 2 1.36147 -11.4586 -10.4863 20
742 2 -9.38464 -2.12416 -14.1335 19
743 2 -5.26432 -6.15312 -15.9996 19
744 2 7.24925 -2.20372 -9.90966 22
745 2 -7.57642 5.39701 6.31204 19
746 2 6.20967 -3.90617 -11.4747 21
747 2 -3.39992 3.49764 -16.0337 14
748 2 10.7874 6.2616 -2.29972 13
749 2 -8.08245 1.69769 11.7365 12
750 2 -13.2704 6.78022 0.776616 12
751 2 8.94625 -5.17885 -5.52264 16
752 2 3.54552 -11.0677 -14.6551 10
753 2 -14.4891 -6.47351 0.852737 18
754 2 10.8773 3.73668 0.521201 19
755 2 -6.37663 6.28718 3.20265 17
756 2 -7.0008 -12.7832 -7.25676 18
757 2 -7.08979 7.8727 0.658019 16
758 2 4.11145 -10.2076 6.94487 20
759 2 6.55245 -6.70194 2.91181 19
760 2 -12.3525 -3.92445 -0.362378 19
761 2 10.6571 -8.58343 -5.94666 16
762 2 2.99617 -13.5051 -6.61408 18
763 2 3.93149 2.53055 3.43281 19
764 2 3.11779 -14.7914 8.47987 15
765 2 6.45642 -10.4902 4.81372 20
766 2 -6.27682 -6.18127 12.334 11
767 2 12.3079 -7.02053 -4.42106 12
768 2 0.100517 0.0509261 2.70198 20
769 2 9.98738 2.76941 6.81317 15
770 2 -7.09861 0.105225 8.55996 20
771 2 8.95727 8.74738 -8.7147e-04 10
772 2 9.79037 -10.8246 -3.62915 12
773 2 -0.185674 1.38339 -7.64398 22
774 2 -11.1419 -7.24881 -10.6012 20
775 2 -4.33288 -2.8694 3.58636 20
776 2 4.31838 -3.53662 -8.13148 20
777 2 -12.6103 -2.12227 -13.2799 17
778 2 -12.7391 -13.9597 -1.04079 13
779 2 -13.3244 -14.677 -4.3401 12
780 2 11.5262 -4.5597 2.4231 18
781 2 -0.186685 -9.87576 6.45596 18
782 2 -3.24463 -4.63145 13.9234 9
783 2 4.64984 -5.23358 -16.7153 13
784 2 1.12144 5.67396 8.75956 14
785 2 4.86853 9.37966 4.17785 11
786 2 -9.24906 -5.10094 3.31946 19
787 2 -0.923802 -8.60587 -11.0287 23
788 2 7.30052 -4.19349 -3.22862 19
789 2 -10.5788 4.52615 5.76654 13
790 2 -2.32708 -13.1273 1.21575 20
791 2 4.7081 -12.301 -9.25412 21
792 2 4.02031 -2.29734 -5.92288 21
793 2 0.195765 5.12847 5.96951 18
794 2 1.75856 -8.47221 -8.37514 23
795 2 2.05853 -7.19597 5.82448 20
796 2 -5.51291 -9.38055 4.68819 20
797 2 9.70612 -4.03858 -9.55577 14
798 2 -5.91856 -17.9002 6.65771 10
799 2 8.65797 3.20501 -13.33 14
800 2 -6.66808 -12.4592 3.58412 16
801 2 11.6256 -8.65821 -10.884 9
802 2 -0.19943 -13.3935 -7.79359 24
803 2 10.6604 -8.56179 -1.24279 16
804 2 -1.90425 8.43804 -1.695 20
805 2 11.4331 -3.13621 -11.516 10
806 2 -7.19032 -2.81244 -15.6097 22
807 2 -8.13715 -5.37448 6.56419 20
808 2 -0.618803 -10.7566 0.432984 20
809 2 -7.11808 -10.6076 1.38844 22
810 2 -4.01203 7.66307 0.124778 20
811 2 -12.3523 5.29196 3.06515 13
812 2 -0.951685 -3.86343 -6.74147 17
813 2 8.13136 3.52927 -4.1237 19
814 2 -1.47033 -1.26334 -7.98277 21
815 2 -13.0937 0.718605 9.58201 11
816 2 -3.05401 -1.14869 -18.2655 14
817 2 -15.6918 0.108525 -2.04047 17
818 2 -3.32717 -0.0685122 3.03004 21
819 2 -11.3414 -4.11167 5.7912 19
820 2 -5.51278 -3.77215 -1.08639 20
821 2 13.2667 4.97355 -0.347215 12
822 2 9.1019 2.97614 -10.5313 16
823 2 6.39927 -13.9596 -5.72821 14
824 2 -9.89659 -7.29024 4.42613 15
825 2 4.16195 -1.96476 -0.211734 19
826 2 1.43319 2.82348 1.86182 21
827 2 -9.24126 3.08877 -14.1011 11
828 2 -12.2193 4.60366 -0.650481 21
829 2 6.40815 -8.39431 12.7607 10
830 2 -11.6515 -10.3628 -14.5722 14
831 2 3.50934 0.537787 -14.6477 16
832 2 9.90934 5.92037 -5.57956 13
833 2 -8.95436 -10.1331 4.40831 19
834 2 1.11789 4.00539 -1.39343 21
835 2 -6.6715 3.05347 -11.0706 17
836 2 -12.7398 7.50905 -2.05263 13
837 2 7.15289 -1.22516 11.755 14
838 2 -3.13548 9.76436 3.30698 16
839 2 6.88695 -10.3583 -8.444 17
840 2 -5.05605 -4.15971 6.26732 22
841 2 -4.81257 -8.73841 8.96397 18
842 2 -9.7288 -0.128527 -2.9978 17
843 2 -5.03063 -6.90847 -18.9372 13
844 2 0.974246 -16.5466 -8.68874 12
845 2 2.34591 1.14509 -9.99211 17
846 2 11.7272 -0.955978 -3.75814 16
847 2 -0.246308 2.64023 10.3434 17
848 2 6.43176 0.46163 -13.1695 21
849 2 -10.2071 -3.77313 8.71195 19
850 2 -2.66493 -4.71591 -13.5779 21
851 2 -3.62786 -12.5937 -7.62085 18
852 2 -3.91462 -8.06168 -9.68571 18
853 2 6.19544 -14.9585 3.16343 18
854 2 6.52347 0.864884 -1.56887 20
855 2 -3.35741 0.849631 -14.6732 18
856 2 -1.16203 8.45608 2.22475 16
857 2 -10.9271 -11.7685 -2.74003 17
858 2 -8.05553 -5.7325 -16.5033 17
859 2 1.65534 5.29244 -15.4621 11
860 2 -2.01586 9.57569 -4.18605 13
861 2 -2.95537 -19.4426 1.49636 14
862 2 13.5343 -3.83349 0.243968 14