ITEM: TIMESTEP
28000
ITEM: NUMBER OF ATOMS
2000
ITEM: BOX BOUNDS pp pp pp
-30.0 30.0
-30.0 30.0
-30.0 30.0
ITEM: ATOMS id type x y z Coordination
1 1 -8.90242 4.26034 -13.8674 15
2 1 -4.65571 -10.7063 -8.74075 18
3 1 3.46073 11.8242 11.8243 20
4 1 9.473 -13.0929 4.411 9
5 1 -9.52887 7.41516 -1.76645 21
6 1 11.972 -8.56816 -10.2443 13
7 1 -11.8254 4.57518 -6.69585 16
8 1 1.95953 -6.85264 9.39919 18
9 1 -7.13367 1.89176 -11.6514 19
10 1 -12.3442 -8.6287 6.53289 15
11 1 14.0908 4.07232 -9.1882 14
12 1 -2.77088 -11.9405 1.60218 22
13 1 -12.5988 -5.68354 1.97541 20
14 1 2.59406 6.82827 13.639 21
15 1 -2.63033 10.1911 -11.1098 14
16 1 4.1226 -0.558516 11.6193 18
17 1 -6.07768 -0.516429 -17.2075 10
18 1 -10.0139 -2.84447 10.8427 17
19 1 13.89 5.28615 6.33981 23
20 1 3.61869 10.291 -11.0809 18
21 1 5.10108 4.30987 -11.7955 24
22 1 16.2676 1.83603 10.3616 9
23 1 -12.406 5.10604 -10.1529 12
24 1 -9.55599 10.4586 8.2253 15
25 1 6.4185 -13.4756 6.56636 10
26 1 4.93785 -13.9489 -11.0152 15
27 1 8.7138 -12.9097 -1.84868 17
28 1 -6.5078 -12.6446 -6.25112 18
29 1 -11.3701 -5.8203 9.98037 17
30 1 -0.0331072 -10.7814 -11.5689 21
31 1 11.0819 -10.6991 -12.9578 10
32 1 1.96298 5.13891 -17.0329 13
33 1 -0.830762 4.94913 9.32093 21
34 1 -1.01259 -11.2361 6.73095 23
35 1 6.71443 -5.34637 12.5156 11
36 1 -14.5121 2.12179 2.70042 16
37 1 -15.4274 -1.16628 7.93703 13
38 1 -6.22587 11.5133 -3.47713 20
39 1 -1.11969 -13.695 -10.9688 17
40 1 3.58566 -6.01761 -9.4674 24
41 1 -1.41624 -6.89378 9.45042 17
42 1 -13.2728 2.38875 -0.38083 20
43 1 6.70986 11.472 -8.96081 19
44 1 0.772122 11.1984 6.45989 19
45 1 -10.0498 5.87595 -8.30608 16
46 1 0.144621 13.6526 -0.98676 20
47 1 0.383751 -12.0109 1.47469 21
48 1 6.85335 -9.4462 -6.77109 22
49 1 8.29342 -5.24224 -15.062 21
50 1 -7.76148 9.72263 10.4578 16
51 1 -11.4591 -2.98426 -9.87789 16
52 1 -8.00066 8.36189 -3.91734 20
53 1 -9.04036 -8.72834 7.49257 23
54 1 -3.2176 14.6765 12.2273 10
55 1 -15.1904 4.35623 -5.40382 12
56 1 -7.03279 10.6309 13.8587 12
57 1 -6.7501 -12.9991 5.60215 18
58 1 4.63564 -15.5388 -4.00137 20
59 1 4.69796 12.7486 14.6585 12
60 1 -13.3906 1.90965 -11.0997 11
61 1 -10.496 7.18707 -12.3686 12
62 1 7.57523 7.2285 8.91465 21
63 1 14.9839 -1.20599 -8.72253 18
64 1 9.95119 -12.3725 1.14442 13
65 1 -16.774 -1.51068 4.73817 12
66 1 5.93354 14.3658 5.49825 19
67 1 7.45938 -0.366812 11.5392 21
68 1 -7.88217 -14.1876 2.90382 20
69 1 12.2616 4.27482 3.51793 23
70 1 -0.964657 13.1843 8.39298 17
71 1 -1.47833 -9.05599 -9.11911 25
72 1 -10.6731 7.55924 9.18599 15
73 1 -8.28701 10.4013 -1.61734 19
74 1 -1.07513 8.32383 -9.06281 20
75 1 10.3347 13.4372 -7.07655 18
76 1 5.29714 -6.85021 9.45401 18
77 1 -4.517 14.1151 -4.35377 18
78 1 -8.42204 10.2777 3.78686 20
79 1 -6.41466 -3.97183 14.2265 12
80 1 -7.11301 -5.13017 6.9631 19
81 1 14.2565 -7.20392 -7.88623 13
82 1 -7.54689 4.77835 4.72154 20
83 1 -10.229 -13.5048 4.8932 16
84 1 8.70832 -9.02027 -4.68005 21
85 1 7.69742 -0.914478 -12.0157 20
86 1 -3.64548 -1.98155 -16.9573 15
87 1 0.763575 11.4793 1.60277 21
88 1 -3.79227 9.13183 -8.64194 19
89 1 1.2966 8.59003 16.1823 15
90 1 0.387784 13.1562 -6.42346 23
91 1 -11.7267 7.87186 1.01116 18
92 1 -5.37349 -8.28606 7.15348 20
93 1 15.5955 -1.2465 8.55696 14
94 1 5.39719 -8.80392 -9.3512 21
95 1 6.76717 -2.02499 14.4321 12
96 1 -9.31767 -9.98747 -0.823145 20
97 1 -7.93509 -8.44927 -3.80905 21
98 1 8.68073 -6.88143 4.05823 21
99 1 10.2953 2.8191 -15.0529 11
100 1 7.38803 16.9447 -2.47112 13
101 1 -6.90971 -12.8716 11.7247 9
102 1 -9.82748 -14.1763 9.90198 10
103 1 6.77657 -8.03767 -14.933 18
104 1 8.51848 -9.33259 0.898208 20
105 1 -0.174692 -17.0027 6.16529 13
106 1 -11.0379 -8.73989 2.31549 17
107 1 16.7156 8.0336 8.8495 10
108 1 16.4545 -2.54138 -6.39097 18
109 1 -15.3535 -4.16324 2.70181 15
110 1 10.7375 7.20277 3.80953 22
111 1 15.5705 10.5599 3.42878 14
112 1 -2.68185 2.84228 13.4919 19
113 1 -4.91312 10.1249 10.0281 20
114 1 -7.80145 10.3358 -6.67914 21
115 1 0.938118 -7.65133 -11.6963 20
116 1 8.16395 -12.3908 -12.0209 14
117 1 1.95587 13.27 -11.2486 14
118 1 10.5172 -3.97118 9.57365 14
119 1 -1.4091 0.0341028 -17.1235 14
120 1 -4.47839 10.6841 -6.06903 17
121 1 14.2146 -0.781543 -4.20024 22
122 1 -9.59832 5.19431 -4.29699 21
123 1 -8.77762 15.9121 -1.30571 10
124 1 6.74786 -0.238736 -9.15093 21
125 1 9.95103 -7.80514 6.81942 11
126 1 -3.88301 11.6786 7.29928 18
127 1 13.4472 8.90295 -7.52125 15
128 1 7.32285 11.3401 -3.63687 22
129 1 -3.35133 15.4377 0.764065 15
130 1 12.3384 9.96859 -1.28404 22
131 1 -3.19478 11.0843 -3.7238 23
132 1 2.47518 14.6197 -8.38489 19
133 1 6.31953 9.96232 -12.8959 10
134 1 -13.6454 -8.84004 3.07733 14
135 1 -13.1973 8.70957 -0.731839 14
136 1 -3.329 -4.08268 -11.962 21
137 1 1.53623 -11.0743 -15.0817 16
138 1 11.3924 11.6779 7.87643 16
139 1 0.975623 15.5941 7.26332 12
140 1 -11.3602 -2.95603 -3.76349 22
141 1 -11.003 10.7476 1.7018 15
142 1 15.9707 -3.33691 -3.50199 18
143 1 -8.25906 1.57932 -15.2743 15
144 1 7.71554 2.01782 14.3608 17
145 1 4.18254 16.8023 1.77036 14
146 1 -2.80745 12.1034 11.207 21
147 1 4.76904 -10.3542 -16.0491 12
148 1 -3.98613 14.6797 9.30154 14
149 1 -1.13952 10.5222 -6.91965 20
150 1 5.26616 -2.85624 11.9678 20
151 1 -12.1209 -4.15006 4.9232 22
152 1 -1.13953 -12.6226 -13.9925 14
153 1 -10.6108 9.08024 -9.26259 9
154 1 -2.88654 -10.0273 4.28994 22
155 1 2.986 -16.3167 -6.73441 18
156 1 -1.71232 9.38615 -13.7281 10
157 1 -13.798 1.65373 8.1354 16
158 1 11.8476 10.5823 -5.64335 18
159 1 -6.60438 5.68585 15.567 13
160 1 -0.05559 -9.85342 9.34564 15
161 1 1.88063 17.4669 4.22384 11
162 1 0.461712 7.4737 9.64298 23
163 1 13.8287 5.01225 12.0938 15
164 1 -4.60735 13.4639 2.60032 19
165 1 16.4318 -4.48136 -8.28017 12
166 1 -5.9974 12.7926 11.753 13
167 1 13.3376 -6.44016 1.82818 14
168 1 -15.5792 1.55466 5.69541 15
169 1 -8.87826 -10.7645 4.32974 22
170 1 5.99064 6.61312 14.4738 23
171 1 -13.7294 -1.89369 -0.982488 16
172 1 -3.21113 -15.2586 -1.35278 23
173 1 -1.07684 10.184 3.45967 19
174 1 4.93331 14.6115 11.335 13
175 1 -6.15687 13.1561 -7.23016 14
176 1 -13.0501 -4.09887 -6.7447 14
177 1 -7.81626 -0.325206 10.0954 20
178 1 0.369665 -9.7851 4.21963 23
179 1 3.15528 -14.7355 6.29305 11
180 1 -10.9562 7.6699 3.55243 19
181 1 15.8124 2.20038 6.56742 19
182 1 -3.31427 -9.70897 -13.6845 13
183 1 5.70849 -1.02882 9.35449 20
184 1 6.36661 -17.665 0.734545 12
185 1 0.5906 7.81738 -11.7641 15
186 1 4.71945 -11.956 -13.6837 15
187 1 10.322 0.285459 -13.3418 17
188 1 5.39815 7.06891 -14.4719 15
189 1 -8.34225 -3.12657 -8.94854 22
190 1 -2.89857 13.2795 -6.90543 14
191 1 -9.08443 -11.0748 10.2219 16
192 1 11.0892 13.3421 -1.05681 17
193 1 -7.13976 2.43065 15.0359 13
194 1 -7.35292 14.8973 -3.95085 15
195 1 9.0626 2.39299 6.20016 23
196 1 -4.21614 -6.51795 -13.24 19
197 1 -5.9284 10.5496 -11.6101 12
198 1 3.48537 5.54102 -9.08456 21
199 1 -8.40957 -12.2064 7.74859 19
200 1 -5.9539 5.46265 7.0064 23
201 1 -6.79184 9.6613 6.47239 24
202 1 0.903637 -11.7898 -9.1988 23
203 1 -5.85917 -16.0149 -1.7246 16
204 1 10.1477 -11.8778 -4.58277 12
205 1 11.5302 8.0245 12.5874 17
206 1 7.20937 7.4179 -6.45905 20
207 1 -11.6583 10.7921 -1.87069 16
208 1 2.26756 4.58374 9.20994 21
209 1 4.54389 -18.7948 -2.0162 12
210 1 12.0317 2.23442 -3.97582 22
211 1 -8.80237 7.68062 5.78736 23
212 1 -7.79419 -7.02422 -1.21483 20
213 1 7.45352 4.80547 -13.4759 13
214 1 7.35215 -4.41645 9.50087 19
215 1 10.0254 11.83 -9.65653 13
216 1 -1.7437 -0.999771 -12.0153 23
217 1 1.8094 -18.3124 4.12255 12
218 1 12.2166 -1.14569 -7.33186 21
219 1 -12.4258 1.19025 4.62555 22
220 1 3.61248 -15.7617 -1.44309 20
221 1 -10.7196 -5.67797 -8.64316 16
222 1 1.92238 13.8067 -3.67468 22
223 1 1.11564 -3.74956 -15.1536 18
224 1 4.6932 3.75129 14.1244 20
225 1 15.3157 2.4315 1.06425 19
226 1 13.4091 -3.48859 -8.80141 21
227 1 -6.68421 -4.25062 -11.7188 21
228 1 -9.83518 -0.126432 -8.59612 22
229 1 -5.47974 -15.8779 10.2649 8
230 1 13.4128 -0.631613 6.49603 22
231 1 -6.58757 -7.26331 -11.3531 16
232 1 2.11207 6.5523 -14.5327 20
233 1 3.82757 11.0632 1.06035 19
234 1 -4.37192 -1.01665 9.84528 19
235 1 -11.2216 -8.38963 -10.0201 9
236 1 -3.30061 -5.79683 -9.32395 21
237 1 -1.20405 5.84188 -15.2197 14
238 1 -4.50405 -8.59061 -3.90249 23
239 1 11.3056 -5.06285 -14.8163 12
240 1 15.7004 1.48731 -9.60841 13
241 1 10.728 1.37382 3.61719 21
242 1 -6.52083 -3.26708 9.72268 18
243 1 -1.34216 -12.8155 -1.53252 20
244 1 8.50996 5.27417 15.568 16
245 1 -5.93987 -15.9758 4.1926 15
246 1 -1.16718 -14.6094 1.30359 19
247 1 -1.39331 16.0435 -1.59698 15
248 1 4.0978 -2.63906 -16.7187 16
249 1 -4.84438 -4.76475 -16.1682 13
250 1 -9.34546 -7.81778 11.0203 16
251 1 3.97082 7.61651 17.7188 12
252 1 1.78412 -12.8843 -1.17959 23
253 1 -4.52516 -13.939 -10.0215 12
254 1 -7.91611 2.66929 -8.93481 24
255 1 10.5349 5.27352 6.44306 24
256 1 -6.45379 5.62467 -9.25419 19
257 1 3.66236 7.09713 -11.8473 22
258 1 7.16394 -14.9388 -9.93678 12
259 1 -5.28837 16.4563 -1.90936 12
260 1 2.21113 10.13 3.95664 21
261 1 13.9616 1.03231 3.89728 24
262 1 -8.99529 1.49047 4.25673 21
263 1 -3.10393 -7.75756 12.2754 12
264 1 -4.25944 10.6296 4.10225 22
265 1 5.2159 -5.07503 -14.8709 19
266 1 15.5233 10.3946 -2.23699 14
267 1 3.54278 -11.8751 1.71783 22
268 1 -0.811753 -0.34306 14.7845 15
269 1 -15.2343 -4.0667 6.33582 15
270 1 -0.122065 -17.1619 -6.05166 19
271 1 -8.33137 8.15536 14.1654 13
272 1 -9.69513 4.39725 14.6293 12
273 1 -13.3776 -3.30437 9.35608 14
274 1 -12.9364 -5.81714 7.37015 16
275 1 12.0028 -3.72798 -4.17102 20
276 1 -11.9364 -8.75164 9.69423 12
277 1 8.52805 -3.15267 -9.5002 22
278 1 8.53882 -13.1257 -7.40417 16
279 1 4.12891 17.4347 -3.55761 12
280 1 -10.233 13.7047 -3.16873 11
281 1 10.9684 7.1595 9.20901 20
282 1 5.9903 -11.4693 -5.35796 20
283 1 -2.836 11.2281 1.47038 21
284 1 5.64293 -10.8247 8.91719 11
285 1 13.7108 -4.2025 4.11097 16
286 1 1.63621 1.62209 15.1788 16
287 1 -1.55484 12.987 5.03386 20
288 1 9.95663 7.9 15.1055 12
289 1 -8.81776 13.1959 -6.03106 11
290 1 4.57364 -7.1661 -17.2093 11
291 1 8.27667 -10.7314 -14.921 13
292 1 -5.47486 4.38114 13.1082 19
293 1 -16.4499 4.58571 1.65552 8
294 1 -4.87444 10.198 -1.08809 21
295 1 10.3999 -0.380895 6.40253 23
296 1 -10.4113 -12.0791 1.72 15
297 1 8.39313 -10.9041 6.86133 14
298 1 -6.11625 -9.45471 11.7316 12
299 1 -14.6194 5.7448 -0.010317 16
300 1 2.60277 -13.3128 -6.24407 17
301 1 -5.2542 -1.03944 -11.7225 22
302 1 9.85973 -2.5691 -14.4275 17
303 1 4.23371 13.0252 3.63602 19
304 1 -9.56332 -0.0284525 -3.70581 21
305 1 8.25207 -7.25458 -12.9261 20
306 1 11.0955 3.43246 -11.5329 13
307 1 -4.84378 -15.6291 -7.52607 13
308 1 -12.3495 -6.73067 -4.32182 14
309 1 12.0065 5.53141 15.102 12
310 1 12.4308 4.14981 -1.58208 22
311 1 -10.1658 1.84561 -11.5115 21
312 1 4.91093 16.0148 -0.581714 17
313 1 -14.2113 -1.23824 -5.17582 14
314 1 -5.87424 7.5942 4.60472 21
315 1 -6.19343 11.1492 1.38017 21
316 1 10.6739 5.09161 12.087 22
317 1 12.0606 -6.23104 -6.50668 18
318 1 8.97579 -2.69201 12.1433 19
319 1 13.7636 1.49683 -6.39329 23
320 1 -3.54647 -16.9785 -4.34618 17
321 1 6.73804 -11.8389 0.683977 17
322 1 11.923 -1.71782 3.75456 21
323 1 -9.87376 -3.67505 -6.41979 20
324 1 -7.79181 -8.91253 1.81113 24
325 1 -6.58738 -6.29247 11.7732 16
326 1 -3.45844 13.25 -1.48969 20
327 1 -11.9451 -9.55246 -3.30071 12
328 1 7.05381 9.87741 14.9985 17
329 1 -13.5124 4.14241 -2.90461 19
330 1 0.426964 11.3219 -9.19778 19
331 1 4.08694 11.2376 6.29312 19
332 1 -14.5278 -7.4755 -2.16337 12
333 1 -3.06248 -9.51186 -6.26432 23
334 1 -12.5678 -0.726009 6.77824 23
335 1 -14.5327 9.91152 -4.06218 9
336 1 3.76769 -9.82785 3.95039 19
337 1 -4.92289 -12.4989 -1.48899 23
338 1 13.9837 11.9427 5.96237 12
339 1 7.01085 7.08216 -11.8365 19
340 1 -12.235 4.52848 -12.8557 13
341 1 -0.728025 14.1464 -9.53053 12
342 1 -7.839 4.72473 -6.39314 19
343 1 -0.975329 -12.6855 3.71251 19
344 1 13.9458 7.09221 4.08732 22
345 1 4.10514 9.60891 -15.6444 9
346 1 -16.6124 0.76018 -0.833468 11
347 1 -4.52433 -12.844 3.83801 16
348 1 8.96744 -8.4219 -9.67002 22
349 1 -13.1458 4.04399 5.67336 17
350 1 -12.8213 -0.563071 10.0553 15
351 1 -12.3184 7.36803 6.41104 16
352 1 -5.5039 2.75744 -14.34 18
353 1 7.06282 -11.0837 -9.03762 23
354 1 -1.64705 -11.9595 -8.292 22
355 1 -2.66617 -3.89491 9.73905 22
356 1 -2.64926 3.07955 -14.1428 20
357 1 5.61362 -14.7453 1.10341 20
358 1 3.94823 13.0605 -5.74611 23
359 1 -11.2963 10.0653 5.2683 12
360 1 -3.70455 -1.93352 14.599 17
361 1 -9.15196 -5.80032 -10.9859 17
362 1 -7.58325 -7.3864 4.31996 21
363 1 10.4928 -4.45725 3.58588 21
364 1 7.62482 -8.43832 9.05091 13
365 1 16.0222 8.84575 -5.4938 11
366 1 -2.63917 -0.0569121 12.3695 18
367 1 1.96118 10.458 -1.10039 20
368 1 -1.71511 -14.5315 -3.87461 23
369 1 -3.29174 4.93939 15.278 14
370 1 -2.36509 16.0234 6.67899 16
371 1 -9.08783 -10.9164 -7.8478 13
372 1 8.64035 14.6434 0.627504 16
373 1 4.08017 5.80322 11.7254 21
374 1 -7.121 4.57138 10.0964 23
375 1 -8.25151 6.05478 12.2874 20
376 1 -8.14323 -6.39226 -6.15498 21
377 1 -4.14505 8.73716 6.95933 21
378 1 -6.70265 -9.45351 -6.43443 24
379 1 -0.682093 -8.75819 -14.5017 21
380 1 -4.72788 -14.4582 1.09872 21
381 1 12.2846 2.38445 6.35092 23
382 1 -4.10416 -4.68826 12.5243 17
383 1 -9.20491 4.76835 -11.0945 19
384 1 10.7503 7.21874 -1.48017 24
385 1 -7.89904 -13.9622 -3.68941 15
386 1 -0.628896 17.7329 1.3354 10
387 1 -2.71624 9.14676 12.3241 18
388 1 -12.4495 0.0764545 1.00507 20
389 1 0.902017 17.2493 -4.2098 13
390 1 8.94745 14.4856 -3.08309 15
391 1 -8.78476 -8.07932 -8.59304 20
392 1 4.92072 1.29019 15.9502 10
393 1 0.592424 -16.8965 -9.14541 11
394 1 0.289013 -3.92433 -11.8539 24
395 1 8.82012 -14.9771 1.27623 11
396 1 -8.07554 8.4775 1.37713 17
397 1 2.48412 8.81024 11.7042 22
398 1 9.14052 10.1749 -1.21742 25
399 1 -7.68175 8.61683 -9.97368 19
400 1 -15.8499 -4.0393 -0.745157 11
401 1 5.12646 17.4802 4.78372 12
402 1 -1.5587 4.06262 -11.5961 19
403 1 10.5811 5.35995 0.931031 21
404 1 8.32631 14.7732 -8.991 11
405 1 15.7492 4.31264 -1.70428 18
406 1 1.76635 -1.3498 -12.2489 21
407 1 0.266757 -13.9745 6.88429 17
408 1 3.01165 -9.29932 10.0774 13
409 1 -9.71402 1.93072 -6.24832 25
410 1 -10.8364 -14.8369 7.29255 11
411 1 1.56933 -14.3881 -9.66027 19
412 1 9.03685 13.8993 6.64703 13
413 1 3.43193 1.86795 -11.8189 25
414 1 3.53537 -1.21535 14.9702 11
415 1 -12.3528 2.57288 10.9679 14
416 1 -1.67326 -18.5578 -0.239539 15
417 1 -10.8734 -3.04529 2.40933 21
418 1 17.0128 -5.95764 -5.76063 11
419 1 12.2836 -1.73781 -1.68925 21
420 1 3.33787 -10.0269 -6.78375 23
421 1 6.69956 1.39527 -13.5346 20
422 1 10.3068 -3.80812 -6.82149 24
423 1 -3.56302 0.658462 16.1035 13
424 1 3.41335 13.6553 -1.58048 21
425 1 -1.96363 -4.70855 -17.4166 13
426 1 7.89205 2.04122 -17.2706 13
427 1 -9.10967 -0.35975 7.42404 19
428 1 -1.14162 14.1398 1.65418 23
429 1 -6.25954 -2.48293 -14.2912 18
430 1 -17.2874 1.45064 2.75725 11
431 1 -0.260171 -10.5308 -17.1851 9
432 1 -6.50954 -10.7076 8.69403 20
433 1 2.34684 8.51918 -9.10251 23
434 1 15.5187 4.20973 8.27795 14
435 1 17.1148 5.81133 0.612297 11
436 1 -10.5368 -12.4161 -1.78138 10
437 1 -0.583163 -7.17629 -18.2487 11
438 1 -6.95502 12.1286 8.35538 16
439 1 15.4533 -1.34405 -1.02268 18
440 1 5.51989 15.6306 -6.57438 17
441 1 14.9617 6.22809 -7.06759 16
442 1 3.97442 9.85679 14.7831 18
443 1 -9.51236 5.09794 7.34404 22
444 1 5.81588 10.5488 9.44685 20
445 1 9.95786 -0.795491 14.6387 11
446 1 -0.0116625 0.150677 -14.4766 22
447 1 3.85089 -3.86338 9.22931 21
448 1 7.5869 11.1361 6.87072 23
449 1 8.92739 4.80487 -6.59962 20
450 1 -10.1201 7.51939 -5.95413 18
451 1 -1.22053 10.6316 -1.37508 19
452 1 12.3909 -2.82313 12.1623 11
453 1 12.7471 1.52264 -9.44998 18
454 1 12.0523 -9.10614 -5.28509 11
455 1 11.9859 10.7699 11.2541 12
456 1 -16.0137 -6.76042 1.2212 11
457 1 -8.21178 11.7333 -9.24093 12
458 1 -10.1365 0.031478 11.775 16
459 1 -4.83145 12.4342 -9.73352 11
460 1 1.41496 -14.6906 -3.7689 23
461 1 4.70997 -1.12191 -12.3768 21
462 1 -1.23556 14.6089 -4.19374 18
463 1 -7.39259 -5.55461 -14.2958 12
464 1 6.77517 -15.4569 4.6931 8
465 1 -12.4274 -4.64478 -1.33439 22
466 1 2.78678 12.3806 -13.7647 9
467 1 -1.5664 10.2617 15.5377 12
468 1 -9.68735 -6.15078 7.17253 19
469 1 3.78957 -11.3711 -10.3058 20
470 1 3.46436 -5.98902 11.7776 14
471 1 -11.4905 5.14419 -1.4011 19
472 1 5.24608 4.62295 17.3679 11
473 1 5.76082 14.5462 -3.36856 20
474 1 9.93358 -6.10802 -4.31736 21
475 1 3.99903 7.69953 9.13306 23
476 1 1.99768 1.86611 -16.9921 17
477 1 -5.24493 -13.559 8.56556 17
478 1 10.1671 -0.155531 -16.6434 10
479 1 3.13046 14.6588 5.56119 17
480 1 9.8431 3.53961 -9.05897 21
481 1 -0.70375 -5.82637 -14.0363 20
482 1 -3.12952 -11.774 -3.87878 22
483 1 -10.1496 -3.31987 -13.2393 12
484 1 12.1685 2.27066 1.12395 23
485 1 16.4683 7.48809 -2.56545 15
486 1 6.91392 -6.37865 -9.80005 21
487 1 14.5741 8.57041 11.6769 11
488 1 3.53089 -11.4027 -3.99299 22
489 1 4.83841 3.82884 -17.8553 12
490 1 8.07159 13.0268 3.17124 21
491 1 9.55478 10.546 12.819 15
492 1 11.9496 8.80512 -3.93076 18
493 1 13.519 -0.42614 1.22043 22
494 1 11.8681 4.3326 -6.50478 20
495 1 8.93718 2.38788 12.0098 20
496 1 14.2162 6.65403 9.09725 20
497 1 12.9894 12.4009 -2.97617 15
498 1 2.67825 2.83072 12.0817 21
499 1 17.4158 0.264889 -6.65993 13
500 1 10.5257 1.57028 9.07977 23
501 1 -6.50037 -0.0993719 -8.94482 23
502 1 15.5319 4.17 4.05661 20
503 1 -10.1088 9.60998 11.9426 10
504 1 9.14564 11.8679 9.47675 16
505 1 12.7381 2.36632 11.7139 19
506 1 2.13267 8.31438 6.51184 21
507 1 1.69115 14.515 11.4011 12
508 1 -1.15095 -18.9341 3.11627 11
509 1 -4.54752 8.1647 -3.62837 23
510 1 13.1141 12.1682 -8.70221 11
511 1 11.2648 -2.78546 -11.6596 17
512 1 1.54253 16.484 -1.04537 16
513 1 -3.57702 -13.2009 -6.74507 20
514 1 11.7599 -7.34447 -12.6683 15
515 1 -10.9811 2.22457 6.71397 19
516 1 -3.23709 5.6299 -9.00201 21
517 1 -3.29526 -16.706 2.17675 16
518 1 -3.61358 1.54711 -11.68 23
519 1 -12.3081 0.211172 -2.93677 21
520 1 10.1167 -9.95868 4.30353 15
521 1 12.8935 10.1926 3.42879 22
522 1 1.69191 -8.50808 6.92583 21
523 1 -13.1484 -0.273152 -8.56015 14
524 1 -1.02237 3.12838 -17.2225 13
525 1 -0.302734 2.92504 11.8313 18
526 1 8.47949 9.13701 -9.99367 16
527 1 14.504 -0.130658 11.828 16
528 1 10.6328 5.47033 -3.99396 22
529 1 12.2247 14.2295 1.62828 12
530 1 4.03573 -16.6309 -9.55196 10
531 1 -9.48101 -2.27066 14.1035 11
532 1 15.2562 -1.57284 3.00519 13
533 1 -0.42879 13.4213 13.6195 11
534 1 6.9994 13.3155 -6.52121 24
535 1 -11.471 8.31911 -3.23379 20
536 1 9.16885 10.0824 3.82199 21
537 1 -7.75635 -13.0172 -0.667861 19
538 1 15.149 -3.81743 0.619439 13
539 1 7.47497 16.4706 2.79302 14
540 1 -2.26395 1.73088 9.67985 21
541 1 -9.59537 -6.00921 1.04726 21
542 1 -8.20968 -0.765972 -12.7465 19
543 1 10.7376 0.277588 12.0263 23
544 1 -3.21385 -9.71851 9.67937 17
545 1 8.65085 7.50249 12.4987 22
546 1 -6.77426 13.2304 -0.787884 17
547 1 2.37336 -5.04412 -17.4275 14
548 1 -7.64591 2.47971 7.37813 22
549 1 10.0171 -0.208755 -10.1253 21
550 1 10.1121 -9.98547 -7.48641 17
551 1 9.06879 4.29841 9.29837 25
552 1 -7.79708 2.49019 12.0065 22
553 1 9.28187 8.42252 6.38042 17
554 1 2.22456 -2.94413 12.2091 16
555 1 0.846163 5.50375 12.0977 21
556 1 2.51571 -6.26958 -13.6956 15
557 1 -4.14046 4.65649 9.72399 22
558 1 7.30917 5.05281 12.3375 21
559 1 -8.43667 -16.8897 8.31397 9
560 1 13.9408 7.24701 -1.48202 21
561 1 7.20062 -13.7223 -4.54985 18
562 1 5.68205 10.4121 -1.06096 24
563 1 10.1848 14.9846 3.83922 10
564 1 7.15197 -1.09004 -18.0915 12
565 1 0.287831 11.4557 -3.69471 23
566 1 12.2344 8.04383 1.23543 23
567 1 -6.18822 -9.78882 -1.21517 22
568 1 1.48726 -1.28918 -16.7016 16
569 1 -10.3753 13.2643 -0.358004 11
570 1 9.63146 -5.16958 -11.7998 20
571 1 11.8904 9.30821 -10.3228 10
572 1 10.405 11.8469 -3.80437 20
573 1 13.8716 2.35487 14.812 10
574 1 12.5359 -0.423769 14.6136 11
575 1 -2.09888 -12.6556 9.01798 14
576 1 -4.56718 7.91359 -10.7322 18
577 1 3.43848 13.747 9.05645 15
578 1 10.4139 -8.35666 -15.3702 11
579 1 9.16198 15.9608 -5.4412 11
580 1 7.41309 7.58645 3.91415 23
581 1 14.3928 -5.79832 -4.14866 16
582 1 7.28669 7.55968 17.0359 14
583 1 -10.6024 -1.56672 5.07684 22
584 1 1.1062 -17.6051 1.48931 20
585 1 -8.4325 12.8147 2.18391 16
586 1 5.89332 10.471 3.90936 22
587 1 -13.5539 -1.98745 3.4022 19
588 1 -0.0614853 4.72172 14.5625 21
589 1 -3.34601 6.79131 -13.1213 12
590 1 -7.0958 7.07552 -12.5983 14
591 1 4.04465 -16.5587 2.27774 20
592 1 9.00743 8.25605 -3.9303 23
593 1 -11.0383 6.86211 12.9163 11
594 1 6.63863 -2.08767 -14.5129 19
595 1 2.72706 -11.2782 7.51608 17
596 1 2.5002 14.3766 1.31905 20
597 1 -1.01284 2.6615 16.446 12
598 1 -6.51657 -5.81971 -8.94792 24
599 1 -2.68686 -11.3307 -11.1018 18
600 1 -5.13667 -14.4353 -4.6744 19
601 1 -0.352912 16.5105 -7.34498 11
602 1 -1.81109 10.0924 8.68256 21
603 1 5.36561 -13.2012 -7.62653 19
604 1 6.80321 -15.8539 -1.92703 17
605 1 4.90075 -8.80728 6.67767 21
606 1 16.7954 3.17594 -7.17602 12
607 1 0.103696 -13.9405 -6.08408 20
608 1 -10.5513 -3.41146 7.7617 20
609 1 -4.53135 -17.9771 -0.834132 12
610 1 -6.34776 -11.3224 -3.75929 22
611 1 -9.25778 2.36079 9.52925 18
612 1 -7.07091 -16.7563 1.22484 11
613 1 17.1898 5.37096 -5.02845 13
614 1 -3.81504 15.8909 3.58697 14
615 1 -13.8324 6.27532 3.58694 11
616 1 12.1613 -3.39941 0.931485 22
617 1 -11.6539 -0.657648 -12.0939 15
618 1 10.4455 1.47214 -6.54604 23
619 1 6.75689 12.0653 11.9491 17
620 1 -11.6366 2.43052 -8.65431 18
621 1 -9.85627 -5.57686 -2.99921 21
622 1 -1.17549 7.3525 16.2998 13
623 1 6.6858 5.59837 -9.39445 18
624 1 11.0545 12.1736 4.70225 17
625 1 -0.809615 -5.30774 11.8067 15
626 1 -0.880596 -18.7061 -3.73436 13
627 1 -5.90905 -16.9505 7.44803 13
628 1 13.6656 9.67866 8.87225 18
629 1 4.81931 -7.16717 -12.0709 19
630 1 -8.93295 -4.45102 4.19368 22
631 1 9.98365 6.55643 -11.1182 14
632 1 -2.30464 -17.9866 -7.18212 10
633 1 1.03499 -19.4975 -1.59638 12
634 1 -0.0581139 -16.0258 -1.11606 22
635 1 8.0913 2.08832 -11.314 18
636 1 5.78116 13.9748 1.37994 23
637 1 -1.36656 -2.58215 -14.8167 22
638 1 0.753314 -0.23386 11.9808 21
639 1 3.80922 3.68906 -14.9026 25
640 1 -9.35238 -0.74666 -15.8104 10
641 1 -9.42102 -3.60128 -0.676313 22
642 1 2.92505 15.9742 -6.06417 16
643 1 -3.42745 -7.78625 -16.5122 10
644 1 10.5187 7.59121 -6.62399 19
645 1 10.3778 -6.30233 1.25385 23
646 1 -5.31356 7.03745 10.9439 17
647 1 6.78155 -9.94955 3.48165 16
648 1 13.6899 -4.83594 -1.41424 19
649 1 12.3137 -1.35355 9.30037 20
650 1 -0.746088 8.17294 6.82005 22
651 1 -10.5909 1.46066 14.0122 11
652 1 -7.42496 7.79051 8.52927 19
653 1 -2.99507 -15.3431 7.58074 12
654 1 5.79486 8.76702 11.8581 21
655 1 -15.4679 -1.05739 1.64941 17
656 1 11.6319 -9.13971 0.667227 12
657 1 -9.61519 10.3787 -4.48047 17
658 1 0.935141 -15.4144 3.99362 20
659 1 5.81865 2.42254 11.4932 21
660 1 1.01591 13.4715 3.59777 19
661 1 1.99872 -12.3654 4.73242 23
662 1 7.12386 1.7587 8.95765 21
663 1 -13.8523 -4.55901 -3.76954 14
664 1 1.27451 11.4326 13.6575 18
665 1 7.55376 10.8517 1.21608 22
666 1 -11.8175 -11.2091 4.35836 13
667 1 -3.42637 -17.6453 5.24268 11
668 1 8.68152 -3.03119 6.73092 22
669 1 11.8655 -7.21125 4.00307 15
670 1 7.51235 5.5128 6.54291 21
671 1 1.97136 -8.79241 -9.1929 22
672 1 -0.270945 1.7059 -11.6291 22
673 1 -1.15545 -2.69255 12.5899 18
674 1 -0.944855 16.3892 3.83568 12
675 1 17.0791 1.53655 3.11895 11
676 1 2.0545 10.4057 -6.26929 23
677 1 -4.77988 8.39035 15.0625 14
678 1 8.64548 9.37885 10.0502 22
679 1 7.12807 -4.0056 -12.288 24
680 1 -6.53796 -11.9114 1.71194 21
681 1 17.1286 -0.312324 5.47186 12
682 1 3.47231 -3.90892 -12.1761 19
683 1 0.104957 8.35483 13.1912 24
684 1 10.3032 -11.2535 -10.0051 14
685 1 7.63127 4.98995 -16.5527 9
686 1 11.7938 6.47319 -9.01178 15
687 1 18.4841 -1.76144 -2.21768 7
688 1 0.334944 -3.92025 9.70603 22
689 1 -4.21458 -8.50749 -10.3626 17
690 1 7.1909 13.2086 -1.2109 21
691 1 -10.6153 4.7702 4.69967 20
692 1 13.9688 4.66103 -3.88912 19
693 1 16.6371 7.30941 3.55768 13
694 1 3.05889 -9.73198 -12.8288 21
695 1 -6.16394 12.6732 4.68268 19
696 1 15.2374 8.75112 6.12742 21
697 1 12.79 14.5057 -5.80199 11
698 1 4.78523 0.637157 -16.7872 17
699 1 11.782 -7.39237 -2.31483 15
700 1 -10.9873 -1.22806 -0.717294 21
701 1 13.7578 5.18325 1.07853 24
702 1 -12.2024 -7.87505 -0.259332 15
703 1 -13.4443 7.24442 -5.60641 13
704 1 5.7144 4.56533 9.42084 23
705 1 -11.5456 -1.01237 -5.97784 21
706 1 -10.4806 4.31356 11.1775 18
707 1 11.1253 -5.59419 -9.31 20
708 1 -10.4928 -8.76076 -6.28168 17
709 1 10.3314 -10.1398 -1.69925 17
710 1 -16.4795 3.95158 -1.88385 13
711 1 12.404 8.24582 6.61662 21
712 1 -5.73216 -9.89529 4.10796 23
713 1 10.7213 2.67078 15.0443 17
714 1 15.9721 -3.53869 5.94094 9
715 1 -11.4249 2.84267 2.09014 18
716 1 2.65678 10.3435 8.89838 19
717 1 5.5281 8.47078 -8.9411 22
718 1 1.79953 -8.41683 -16.9965 12
719 1 -5.28653 14.5773 6.37071 12
720 1 -11.3822 -11.5768 7.53939 16
721 1 8.93606 10.4099 -6.71162 20
722 1 0.00386035 11.4149 11.2632 17
723 1 18.8545 -2.90828 -5.53785 11
724 1 7.09589 -5.97356 6.73398 21
725 1 -0.673752 12.5753 -13.0511 9
726 1 3.74476 11.7973 -8.73455 22
727 1 -5.56357 1.96082 10.022 23
728 1 17.3078 6.44486 6.59556 13
729 1 -1.91666 -7.14093 -11.6721 20
730 1 14.1686 11.7143 0.393992 17
731 1 -15.2151 1.6234 -3.46093 13
732 1 -4.13164 -11.5335 6.62547 20
733 1 4.95905 14.4215 -9.40917 11
734 1 8.98784 -1.24498 9.21518 23
735 1 0.0708749 -11.5832 -4.00365 22
736 1 -6.51557 15.4703 0.98505 13
737 1 -15.244 6.84486 -2.85182 14
738 1 13.6694 -3.33563 -6.20418 21
739 1 2.0374 -12.8859 -12.504 17
740 1 -9.70107 5.52326 1.27398 18
741 1 14.6294 11.6268 -5.32551 15
742 1 9.06702 -3.20631 -17.1882 12
743 1 -6.86448 -10.7938 -10.188 12
744 1 0.0668544 -9.57566 -6.49961 21
745 1 -3.84134 11.1971 13.4857 17
746 1 5.05936 -12.7656 -2.04028 21
747 1 1.94364 9.27364 -13.7537 15
748 1 15.6323 2.25242 -4.02129 19
749 1 8.81465 7.96781 1.57226 24
750 1 2.49627 -18.2963 -4.18324 15
751 1 5.7668 -4.42872 -17.9049 12
752 1 13.8194 1.4148 -1.45983 23
753 1 0.465826 3.52931 -14.5873 22
754 1 -1.72915 -8.70437 6.87625 22
755 1 5.32505 10.4529 -6.20882 23
756 1 -11.2616 2.59074 -3.23228 21
757 1 -12.5969 4.80814 8.48845 15
758 1 2.11546 5.22265 16.4645 15
759 1 -8.44156 -5.71965 9.6713 20
760 1 5.47122 8.1726 6.59 23
761 1 2.1807 -14.6594 1.10981 19
762 1 3.9778 11.1876 -3.33866 24
763 1 -2.76397 7.10427 9.6079 21
764 1 -5.50301 0.71048 12.9612 19
765 1 -9.22746 12.5938 6.03541 12
766 1 -4.85833 -5.69239 8.97544 18
767 1 4.35075 -13.6513 3.99231 19
768 1 12.0558 4.18911 9.13602 23
769 1 8.52047 -6.99661 -7.16576 23
770 1 6.40339 -9.94788 -12.1843 20
771 1 -3.67104 -0.237042 -14.5254 21
772 1 -3.99266 1.89467 -16.9604 13
773 1 6.87705 14.1002 8.81693 16
774 1 -9.41696 -5.20734 12.7347 14
775 1 -6.12476 7.56734 -6.60285 22
776 1 -13.2115 1.55794 -5.71624 21
777 1 10.9005 10.7572 1.1971 21
778 1 -8.85209 -16.4353 4.85136 13
779 1 13.9028 13.4115 3.59789 12
780 1 -9.62511 -11.5014 -4.49198 16
781 1 4.45758 16.1673 7.6993 13
782 1 -6.67015 -0.991564 15.2086 13
783 1 -1.67532 -15.0132 -8.28039 19
784 1 13.8457 1.4738 8.70434 23
785 1 3.52123 -19.6783 1.0427 11
786 1 5.0802 10.0943 17.1614 10
787 1 13.2045 -0.999087 -11.3721 11
788 1 6.8858 -9.88585 -2.11198 20
789 1 3.27109 0.51727 -14.6495 20
790 1 -11.4318 1.68751 -14.1182 14
791 1 -4.89723 4.3771 -11.7678 19
792 1 -2.37542 6.06091 12.5687 21
793 1 12.3413 -3.23938 6.80226 17
794 1 -10.3051 -7.1988 4.28392 21
795 1 17.1077 1.3068 -0.82725 13
796 1 1.81401 4.52144 -11.7485 20
797 1 15.6963 8.4518 0.468274 16
798 1 -1.08101 16.2795 9.53344 11
799 1 -14.9724 -6.67358 4.5719 14
800 1 6.48151 -16.0681 -7.01416 12
801 2 -8.10242 -1.08626 -9.06487 20
802 2 -6.8973 13.8295 -5.51544 13
803 2 1.88407 -3.25781 -12.5882 19
804 2 -3.49079 7.69155 11.4963 18
805 2 5.27844 -12.6987 -9.60498 19
806 2 -10.791 -6.7026 -10.4395 11
807 2 4.15424 1.46592 11.0295 23
808 2 9.14451 1.01248 13.6132 18
809 2 -12.6465 -7.85242 1.71732 17
810 2 -11.2108 4.60107 -3.23402 20
811 2 4.08118 13.0318 5.73498 21
812 2 -9.11719 -0.431404 4.0014 20
813 2 4.00525 15.4104 -7.55348 15
814 2 10.818 5.47569 3.00456 23
815 2 2.08123 14.1481 -6.25327 22
816 2 10.9019 15.2926 -5.63492 12
817 2 -9.66003 -1.76321 -14.2471 12
818 2 -10.7174 -8.5027 -8.12677 13
819 2 5.41683 3.05508 8.49294 22
820 2 10.099 -3.90401 -10.4504 21
821 2 2.1908 -16.5434 3.02756 19
822 2 -7.76816 10.323 -3.37169 18
823 2 -11.6687 2.4037 -6.37435 20
824 2 14.113 5.17162 3.28205 22
825 2 9.36447 -11.7393 -8.37592 17
826 2 -9.30326 -11.7783 -0.174634 16
827 2 -11.6388 -4.52674 6.71171 22
828 2 -2.84341 -11.8103 3.73124 22
829 2 11.9881 -3.42657 2.91641 25
830 2 -3.65488 -16.8966 -6.31173 14
831 2 5.66774 -0.621219 15.057 14
832 2 -1.38225 10.2544 -9.23719 16
833 2 2.11947 -19.0929 2.2835 11
834 2 -10.5681 -10.878 -2.86299 13
835 2 1.21059 7.29982 11.9814 20
836 2 -9.86255 7.56828 1.70661 17
837 2 0.633855 3.21624 15.8632 14
838 2 -6.45672 7.45086 -4.73057 22
839 2 8.33899 -13.1392 0.185853 16
840 2 0.687211 11.2536 -7.05394 21
841 2 12.0983 12.1953 6.18868 16
842 2 6.89225 17.6525 4.02132 9
843 2 8.67631 -3.15636 -7.38616 22
844 2 -6.67536 8.66701 14.6795 12
845 2 5.00357 1.82268 -14.6355 20
846 2 -7.22583 9.02532 -11.9601 14
847 2 12.2058 10.609 -3.59479 21
848 2 -4.55332 -3.58384 14.0562 12
849 2 -12.6044 7.17686 2.71761 16
850 2 12.6364 3.34133 -10.0905 15
851 2 -7.40306 -8.07051 12.2291 14
852 2 1.35648 -10.8502 -12.8828 22
853 2 -2.12441 -6.5245 -17.3257 12
854 2 -15.1946 -7.79152 2.92939 11
855 2 12.6094 9.98826 0.71625 20
856 2 -4.51101 8.56658 3.56914 23
857 2 -4.6786 -8.85771 -7.3261 22
858 2 -4.43269 15.7516 7.745 10
859 2 8.66864 -1.93303 13.9775 14
860 2 3.27347 -7.57233 10.7099 11
861 2 15.0423 3.68438 5.8707 20
862 2 6.71224 15.1755 -9.89227 9
863 2 -13.2379 2.15258 -3.17397 20
864 2 16.2367 6.14468 8.05409 14
865 2 10.8782 -7.85724 -4.09098 18
866 2 8.75802 -12.9198 -5.5201 16
867 2 -5.62944 11.9118 13.5448 13
868 2 5.61573 -15.3238 3.091 14
869 2 13.9293 -4.18825 6.31478 10
870 2 15.046 10.6683 1.72463 14
871 2 -1.80149 -1.77735 14.1509 15
872 2 13.2716 -6.13808 -2.74762 16
873 2 -0.754641 10.3031 7.12496 22
874 2 10.6519 5.1817 8.34648 25