ITEM: TIMESTEP
16000
ITEM: NUMBER OF ATOMS
5760
ITEM: BOX BOUNDS pp pp pp
-0.2797405249 33.0797405249
-0.332489549 34.472489549
0.9964456828 62.6035543172
ITEM: ATOMS id type x y z Coordination
1 1 -0.247878 5.13079 62.2803 21
2 1 1.78511 2.83538 62.4699 22
3 1 3.79926 0.52723 2.46466 20
4 1 2.04916 11.8906 10.8733 21
5 1 -0.240092 11.8051 9.27548 17
6 1 -0.129426 3.05833 3.67617 22
7 1 4.86614 34.4783 8.54585 23
8 1 7.73589 0.322068 12.5449 21
9 1 6.38066 8.22089 12.2411 20
10 1 6.91118 32.5795 9.92993 21
11 1 4.54674 7.73822 16.303 23
12 1 2.46926 2.68986 13.5815 23
13 1 1.17065 11.9641 4.40654 24
14 1 1.29856 8.01615 1.23909 23
15 1 31.5371 11.6124 3.82324 21
16 1 26.2627 13.1035 7.99037 22
17 1 27.7582 11.2879 10.4222 23
18 1 3.71035 7.3612 10.5582 21
19 1 32.4585 6.5731 6.06105 23
20 1 25.8973 12.088 5.01294 21
21 1 3.15537 14.1747 14.8713 22
22 1 11.9325 6.37235 8.67438 22
23 1 31.5754 5.64435 10.896 19
24 1 5.81506 5.6728 13.4526 22
25 1 1.74143 20.274 1.6941 22
26 1 0.749954 16.7585 1.40412 22
27 1 0.0219281 10.6751 1.58033 23
28 1 32.143 14.7454 3.52394 24
29 1 29.2958 15.9411 4.20817 20
30 1 1.01214 13.5057 12.943 16
31 1 6.51327 5.15184 6.74336 22
32 1 3.57529 10.3461 12.6968 18
33 1 5.69612 16.335 11.947 21
34 1 2.71825 26.6763 6.69198 18
35 1 2.81087 22.8058 14.4727 20
36 1 0.168298 15.3364 15.7289 20
37 1 3.33304 5.49827 62.5528 21
38 1 5.18614 2.6495 61.8273 20
39 1 6.3803 1.6393 3.09636 23
40 1 9.55096 6.53842 8.17954 21
41 1 32.0934 3.80413 9.2674 18
42 1 29.9619 32.1647 7.81465 21
43 1 8.90696 30.9133 10.1613 17
44 1 1.79619 3.10398 9.19515 21
45 1 3.82407 10.7469 19.3346 20
46 1 10.0867 1.99418 20.6554 18
47 1 3.60647 1.39551 11.1533 25
48 1 0.419335 3.18986 11.5998 23
49 1 3.61236 11.0448 1.21464 22
50 1 4.75241 8.47517 1.16555 20
51 1 4.42458 6.72898 4.81911 22
52 1 2.90614 9.86826 4.07254 21
53 1 3.12478 15.5004 9.50048 19
54 1 1.80511 8.07275 6.38547 21
55 1 6.54778 7.97762 8.97258 23
56 1 5.6953 10.4107 4.16264 22
57 1 2.81464 10.1224 16.1161 23
58 1 6.86638 11.5253 5.96586 21
59 1 11.6952 9.35258 9.91249 19
60 1 0.720806 11.8749 14.7699 20
61 1 4.27287 20.3706 1.01166 20
62 1 4.94057 14.3811 62.4747 23
63 1 4.18303 12.2883 4.42211 22
64 1 3.70553 17.8923 1.75959 23
65 1 -0.0208805 10.8137 6.98256 25
66 1 4.63881 9.41346 7.00446 21
67 1 10.2719 12.7517 12.2221 20
68 1 3.7966 14.376 6.25129 23
69 1 4.60236 18.536 8.99229 21
70 1 12.7597 12.81 20.3256 17
71 1 1.0766 18.5509 15.568 22
72 1 3.25068 23.969 10.9085 27
73 1 6.36505 5.47832 1.96746 24
74 1 8.1314 2.76103 1.63374 22
75 1 9.58819 4.69633 3.12729 21
76 1 12.5605 5.58913 1.49954 17
77 1 2.03648 9.63028 8.90346 20
78 1 8.32877 3.36404 7.99974 20
79 1 13.4172 10.208 14.9908 22
80 1 3.55123 4.8414 11.3494 23
81 1 14.3233 9.03059 8.80003 22
82 1 12.2656 7.79984 13.4639 21
83 1 5.77115 3.12379 13.158 21
84 1 10.2709 4.00263 18.1754 17
85 1 6.98553 11.1687 1.35771 23
86 1 7.9254 8.33133 2.14916 21
87 1 8.05068 6.19844 3.86768 20
88 1 3.62315 6.32363 7.58812 22
89 1 12.7109 5.12562 6.37263 22
90 1 9.58362 12.8151 5.1577 23
91 1 11.0037 4.34594 10.135 17
92 1 20.0354 8.65997 4.42758 23
93 1 10.8158 13.4299 17.7612 22
94 1 8.21188 5.10913 12.1064 21
95 1 14.0112 32.118 16.0069 23
96 1 9.37845 9.17008 21.5161 21
97 1 6.60765 16.6247 2.14824 21
98 1 8.65519 14.4345 2.10239 24
99 1 7.09796 7.87343 6.11643 20
100 1 1.02315 13.8748 7.73379 25
101 1 1.69788 13.8024 1.79492 24
102 1 11.7042 18.4592 5.02795 20
103 1 6.92027 17.6627 7.37215 22
104 1 4.07043 13.8168 11.9874 19
105 1 3.40521 7.67138 13.4995 22
106 1 16.703 8.2894 10.6395 22
107 1 4.8269 10.2382 10.2031 19
108 1 5.66573 12.4276 16.551 25
109 1 9.279 5.98804 62.0591 21
110 1 11.3477 1.53266 1.40287 22
111 1 21.4567 32.1886 6.90032 22
112 1 14.6787 1.74287 6.6276 22
113 1 16.2205 4.47227 4.89812 19
114 1 5.80382 2.69331 10.1816 20
115 1 9.33029 1.51838 3.79379 21
116 1 18.7506 1.91107 9.1981 21
117 1 11.846 5.02099 13.4722 17
118 1 19.3357 0.129734 5.51247 24
119 1 13.1846 34.2349 8.19385 21
120 1 10.1384 32.2069 17.4337 20
121 1 9.90955 11.8266 1.56265 19
122 1 10.6917 8.68137 2.09585 19
123 1 8.9182 10.1713 4.13683 23
124 1 8.87386 16.817 4.18096 22
125 1 21.3133 0.42588 3.4141 22
126 1 7.84233 7.02566 20.5876 20
127 1 4.78982 2.52259 7.91304 24
128 1 19.7108 2.62655 3.90187 17
129 1 12.1533 15.7054 15.8253 19
130 1 5.9396 9.70517 15.091 21
131 1 9.27769 2.46827 12.2034 21
132 1 12.4635 32.5213 19.5229 25
133 1 12.1677 19.9649 1.51713 19
134 1 11.9216 14.5273 1.13393 19
135 1 11.8408 11.847 4.28145 19
136 1 9.95126 17.5172 1.40999 21
137 1 11.5683 15.8523 3.8639 22
138 1 9.97139 15.7806 6.7365 24
139 1 19.0664 7.76824 8.61596 22
140 1 11.81 10.6666 6.99954 20
141 1 4.92842 12.4243 13.6522 18
142 1 7.94344 10.8805 9.9017 21
143 1 8.15549 15.1454 17.789 23
144 1 8.51392 17.3633 13.0943 20
145 1 16.6132 9.70887 4.08094 22
146 1 14.8256 2.3466 1.50857 20
147 1 16.7312 1.2955 4.39794 19
148 1 11.2504 33.1633 3.76589 23
149 1 16.1832 5.39272 1.33197 20
150 1 13.8946 32.993 5.95003 22
151 1 20.6222 -0.170754 7.71073 21
152 1 20.1705 3.83677 12.0871 21
153 1 17.1879 4.56686 8.76459 22
154 1 17.7434 26.4422 14.2219 22
155 1 17.6386 31.3825 22.5762 18
156 1 15.8137 0.468833 12.4086 25
157 1 13.2098 11.5205 62.5212 21
158 1 14.5567 8.61381 1.35071 20
159 1 10.5666 7.28737 5.01252 17
160 1 12.5947 3.21014 3.39204 16
161 1 15.1633 7.3898 14.0166 21
162 1 16.6039 11.2859 1.21718 22
163 1 22.4881 7.96063 8.85479 21
164 1 23.4942 11.0475 1.29446 18
165 1 11.4729 14.0608 6.41929 22
166 1 18.8729 4.58301 14.5367 20
167 1 12.1008 1.66333 6.73972 19
168 1 13.7575 3.20943 9.28037 23
169 1 13.6745 17.44 1.08432 20
170 1 14.4806 15.0279 1.8358 23
171 1 18.3299 11.4971 11.6203 22
172 1 8.43588 13.0326 7.4833 21
173 1 6.64439 13.3658 3.36061 23
174 1 17.1355 14.9445 4.44192 22
175 1 11.2201 17.1497 12.5473 20
176 1 11.3467 12.1631 9.37434 20
177 1 11.5766 18.3803 9.11467 21
178 1 17.3757 20.6505 8.54495 20
179 1 13.5603 17.7687 10.8056 17
180 1 13.3791 8.2085 6.01193 17
181 2 0.712734 27.5197 3.10793 20
182 2 0.44703 1.82922 10.0801 21
183 2 29.7699 9.4917 1.44854 22
184 2 -0.158033 3.08627 7.91043 19
185 2 2.32853 5.53935 15.4288 21
186 2 25.8233 30.5397 13.8208 19
187 2 7.43061 34.011 13.9855 20
188 2 4.54733 0.812368 4.05466 20
189 2 29.3328 30.9502 22.8609 21
190 2 -0.231013 4.77696 11.0006 25
191 2 27.2326 15.4653 13.3275 24
192 2 0.975359 11.7051 22.784 22
193 2 5.33567 4.22811 8.40053 22
194 2 32.7976 12.2049 4.95315 21
195 2 30.8294 10.1013 4.51978 25
196 2 31.7262 11.9382 1.85059 24
197 2 12.9636 9.91191 17.3425 17
198 2 2.45983 13.2828 3.75033 23
199 2 0.797908 18.4104 6.11989 23
200 2 0.829693 10.2234 10.3933 19
201 2 3.66745 33.7484 6.90141 23
202 2 4.63088 15.5822 24.6822 18
203 2 2.44412 8.95489 14.6651 21
204 2 29.4036 16.6532 14.5445 21
205 2 2.80619 5.84569 5.90593 21
206 2 1.58898 12.0973 8.50077 17
207 2 30.9143 16.6163 3.18951 21
208 2 23.4129 9.57586 6.53359 23
209 2 32.9136 7.20645 10.5364 20
210 2 4.70304 16.2299 1.75805 23
211 2 32.6929 22.291 59.3561 19
212 2 4.8463 15.0724 7.74423 22
213 2 31.8179 17.3905 19.5279 20
214 2 28.9495 16.7913 8.91704 20
215 2 7.12219 23.5597 16.2441 22
216 2 32.139 12.0934 13.4059 20
217 2 11.7163 31.0323 2.92688 21
218 2 10.0196 1.87391 6.59027 18
219 2 32.6154 30.1108 5.33191 21
220 2 1.6357 6.43296 61.9251 23
221 2 31.6127 28.0679 3.08525 20
222 2 31.5028 2.88386 21.3387 19
223 2 1.93263 10.1026 6.2182 21
224 2 2.24513 6.29758 11.8061 20
225 2 13.1794 31.3316 17.4983 21
226 2 7.64427 3.38918 21.4395 22
227 2 5.21252 14.1717 21.6366 17
228 2 2.85736 34.3941 11.3408 25
229 2 27.403 5.50827 9.64981 19
230 2 29.7718 5.2318 3.69065 24
231 2 7.40286 15.1818 3.30526 21
232 2 3.62482 1.30835 9.17984 21
233 2 5.07523 16.6064 16.1582 22
234 2 8.88913 9.71179 13.0944 22
235 2 11.5247 11.1036 11.1639 23
236 2 13.1739 5.14274 9.54024 18
237 2 1.4731 1.9509 17.1556 21
238 2 5.24148 20.1286 23.3305 17
239 2 1.37655 7.82797 8.42592 22
240 2 3.09414 17.1971 19.4658 20
241 2 3.90437 9.07422 8.73958 22
242 2 7.49083 13.3662 5.61861 26
243 2 5.25649 18.9143 62.3584 20
244 2 5.26573 14.1044 4.08922 24
245 2 4.35907 11.6698 17.6014 21
246 2 1.72347 15.4289 8.48194 21
247 2 3.55443 17.1324 8.58574 21
248 2 9.11418 8.24189 3.74607 21
249 2 6.70517 17.9393 24.3365 18
250 2 8.16537 15.1537 10.1923 21
251 2 31.5539 24.1474 6.34284 22
252 2 11.3076 8.55125 11.4946 19
253 2 8.77569 33.0379 10.0238 19
254 2 1.0747 2.04386 5.53197 23
255 2 1.87092 1.89776 3.05476 19
256 2 13.5398 4.99531 3.58194 18
257 2 9.89435 8.04464 9.20045 20
258 2 6.76194 11.7556 14.7912 19
259 2 1.23067 33.1985 5.76006 23
260 2 3.50223 8.77158 11.6196 21
261 2 5.3817 7.94108 14.2339 21
262 2 6.0895 0.404545 20.475 21
263 2 6.59115 13.8271 17.9596 20
264 2 9.57946 2.91016 16.0214 16
265 2 11.6925 4.18256 11.9715 18
266 2 7.39893 11.4312 3.35397 22
267 2 4.10357 10.7443 3.04094 19
268 2 31.6289 7.56255 3.30476 21
269 2 7.48963 6.51761 8.07294 20
270 2 2.9496 16.181 5.41889 19
271 2 7.36358 9.46965 11.1791 18
272 2 5.49336 6.92291 10.5425 22
273 2 8.80912 15.5201 23.6811 19
274 2 31.4888 8.59384 13.6829 17
275 2 11.9419 12.4712 7.54751 25
276 2 11.6645 0.516272 8.46708 19
277 2 6.94784 9.50289 5.65348 22
278 2 2.55936 14.3029 12.9606 21
279 2 12.7648 15.9588 2.172 19
280 2 10.4433 9.98706 1.16019 22
281 2 14.1776 16.3993 17.181 19
282 2 21.6883 11.6631 19.0035 21
283 2 9.7562 18.745 12.3065 18
284 2 9.097 11.5052 6.53463 21
285 2 0.661354 25.6327 13.3039 22
286 2 1.24664 15.3792 18.6994 21
287 2 4.42681 20.0719 14.0918 19
288 2 10.3184 18.8099 16.7999 20
289 2 10.4821 2.97423 4.15211 17
290 2 2.78166 32.1905 62.3295 19
291 2 6.44222 6.57763 4.32078 24
292 2 11.294 32.826 5.54097 24
293 2 7.7126 3.44572 6.2135 23
294 2 13.9222 32.5422 10.3606 20
295 2 14.2658 8.28052 4.15906 19
296 2 9.48822 5.61045 5.15969 20
297 2 18.7816 30.6111 16.7043 22
298 2 6.73555 3.97436 11.3343 21
299 2 3.85663 12.6652 23.942 17
300 2 12.903 3.85315 15.0569 20
301 2 5.41294 3.42166 3.03175 23
302 2 17.1364 4.72115 6.64853 20
303 2 16.4561 5.74292 3.78319 22
304 2 15.8659 12.75 5.24613 21
305 2 10.0605 2.06405 10.6544 20
306 2 2.33977 9.87406 17.8803 19
307 2 4.76372 11.219 5.85023 22
308 2 9.17633 7.80105 6.89818 21
309 2 12.9311 33.8609 20.9135 22
310 2 13.8412 1.66906 10.3185 25
311 2 14.7451 2.25502 19.2327 19
312 2 17.2637 1.50852 10.9727 22
313 2 14.1016 6.9288 1.01812 20
314 2 10.2249 14.552 4.93389 22
315 2 18.5318 12.0228 7.59498 22
316 2 5.48848 16.648 4.92435 21
317 2 16.4953 6.54026 9.60831 22
318 2 10.5162 13.6513 10.4386 17
319 2 8.72766 16.071 15.8399 21
320 2 12.8686 20.8922 8.936 19
321 2 15.2332 8.99054 17.7409 22
322 2 13.3492 7.47284 9.26038 19
323 2 6.47131 21.7604 18.9641 22
324 2 8.05692 19.3967 8.10495 19
325 2 17.6251 34.0624 5.33363 20
326 2 11.8817 7.20098 6.34412 23
327 2 12.3133 3.77703 62.5186 20
328 2 4.8551 3.96818 5.961 22
329 2 13.7937 6.60996 12.7538 21
330 2 9.01647 2.21925 18.7596 20
331 2 19.654 3.80918 2.26917 23
332 2 19.0702 4.0217 16.5754 22
333 2 16.5222 30.1355 23.6193 20
334 2 17.3328 1.7894 16.8909 18
335 2 10.5671 6.80157 14.533 23
336 2 14.2801 32.466 23.0693 24
337 2 16.4279 1.18714 6.35287 21
338 2 18.1565 7.03187 16.1237 22
339 2 24.1043 11.6025 8.50118 21
340 2 20.0339 7.09225 3.30846 20
341 2 17.4321 33.0671 10.8891 27
342 2 17.9358 2.40484 4.719 22
343 2 13.5883 17.7656 8.96558 21
344 2 25.7604 14.2499 16.6257 20
345 2 20.9856 4.16475 10.3932 22
346 2 6.9741 11.5346 20.1847 20
347 2 8.8967 10.7566 16.8761 22
348 2 19.9753 10.5936 11.9838 15
349 2 17.3255 17.3174 8.34262 18
350 2 12.5544 10.474 5.41403 21
351 2 12.7665 13.4061 4.74061 22
352 2 15.7563 10.7531 2.7622 20
353 2 13.2075 0.0883653 6.32506 20
354 2 15.1534 3.32707 5.59917 22
355 2 21.698 14.1037 13.2575 20
356 2 5.68432 18.8823 6.57432 20
357 2 18.8463 7.47514 10.7083 21
358 2 14.5124 12.4288 20.5344 21
359 2 14.1706 1.3557 12.8066 18
360 2 18.7626 5.97335 8.39579 21
361 1 26.7427 33.0156 9.87777 25
362 1 31.6664 8.2701 11.844 19
363 1 5.24209 0.460152 14.1896 21
364 1 0.405213 1.51239 15.5611 19
365 1 0.824366 7.87542 21.4504 22
366 1 3.36984 1.9612 16.4659 19
367 1 10.7105 4.8616 28.3108 19
368 1 32.7706 0.0634029 18.3228 23
369 1 1.12294 12.9323 29.3271 23
370 1 4.53897 5.8233 29.145 24
371 1 7.55307 5.01111 27.3354 22
372 1 30.9799 4.54117 26.584 20
373 1 4.14107 17.6378 5.96221 22
374 1 3.58391 17.3875 15.1669 22
375 1 -0.255456 8.56513 27.2872 22
376 1 8.19852 12.2127 18.7532 20
377 1 3.48014 13.1277 22.1455 21
378 1 30.2725 6.95994 23.948 21
379 1 4.95905 9.71551 24.673 20
380 1 31.0541 9.3684 24.7491 19
381 1 1.09912 6.72301 28.9616 22
382 1 0.940168 14.2708 27.2868 20
383 1 29.7966 9.3289 29.4843 23
384 1 27.1561 10.8203 18.5579 23
385 1 6.99356 17.8398 16.4143 20
386 1 5.33051 15.1963 17.5667 23
387 1 29.2893 14.519 14.1255 22
388 1 -0.140234 16.1352 19.6668 20
389 1 29.1088 14.4429 19.6754 20
390 1 4.30769 13.0412 29.2272 19
391 1 32.6103 16.4654 24.9449 21
392 1 2.76456 15.302 20.2781 22
393 1 21.2851 17.2014 29.4195 20
394 1 1.70349 18.3119 24.1624 21
395 1 1.28704 11.072 27.5792 22
396 1 4.13749 23.8033 29.5818 23
397 1 2.64468 8.31936 18.9968 20
398 1 8.02493 1.92894 17.2073 17
399 1 0.394269 5.96271 26.0716 23
400 1 4.02377 31.5556 21.4473 20
401 1 10.1907 6.96936 22.6592 21
402 1 4.80379 27.4459 20.4855 22
403 1 9.63113 4.92395 25.2663 17
404 1 9.33849 1.08128 23.6447 22
405 1 5.9441 16.5614 25.6262 20
406 1 5.39087 3.18165 27.3457 23
407 1 4.50922 0.686722 29.0226 23
408 1 12.5609 6.42068 30.6555 23
409 1 5.21185 24.2134 13.4502 19
410 1 7.20675 7.90316 26.6575 21
411 1 2.26502 10.2305 22.092 19
412 1 0.414478 10.2726 17.6216 22
413 1 2.36444 18.633 20.6734 22
414 1 5.91357 13.3294 19.7668 21
415 1 10.8517 10.3119 17.6227 20
416 1 7.40633 3.74094 19.636 17
417 1 5.76096 8.24741 29.4666 20
418 1 6.35065 14.8408 28.5039 21
419 1 7.34231 11.7544 26.7985 19
420 1 31.2446 12.3623 29.42 22
421 1 5.96442 23.5616 19.0777 22
422 1 10.7618 10.0589 12.6325 21
423 1 5.99236 15.5097 14.5293 25
424 1 2.78677 12.9869 17.9892 22
425 1 3.54856 18.4821 27.2864 21
426 1 9.80302 12.2685 21.1326 19
427 1 3.57205 15.2216 27.0439 19
428 1 2.39266 21.6304 20.3856 19
429 1 5.13356 17.7179 29.082 20
430 1 9.28315 16.1277 27.2034 21
431 1 8.62418 7.04346 29.5178 20
432 1 0.907718 19.8252 27.1055 22
433 1 2.13856 33.8921 13.2158 23
434 1 7.15526 33.2732 16.1963 22
435 1 5.78469 0.00877595 18.0009 22
436 1 10.2695 33.6879 9.00104 19
437 1 4.63016 8.06835 22.2658 21
438 1 15.569 28.6572 22.7778 17
439 1 15.1785 4.81507 22.721 22
440 1 12.1557 2.52337 31.3166 24
441 1 11.9112 32.7587 28.2881 21
442 1 9.35995 2.76179 29.5073 22
443 1 17.7007 4.45847 21.0416 21
444 1 6.98837 4.34386 30.0366 20
445 1 7.37854 17.425 19.9998 19
446 1 10.9468 7.03539 16.3196 20
447 1 6.56924 2.47476 24.3687 20
448 1 6.12831 9.89861 20.9731 19
449 1 13.2384 7.94041 17.7201 21
450 1 11.8073 9.79341 20.9415 25
451 1 17.1987 3.38655 26.8957 23
452 1 11.5328 15.3208 19.473 24
453 1 29.5555 16.8957 26.4521 25
454 1 2.32344 12.0424 24.9794 23
455 1 12.9514 9.886 26.4887 20
456 1 5.34581 12.9702 25.1369 21
457 1 9.4333 10.0017 15.1057 20
458 1 14.4176 6.50416 3.85663 19
459 1 5.30838 7.31909 19.1932 21
460 1 4.55178 10.6204 27.369 19
461 1 7.8084 20.5044 18.3764 22
462 1 13.0256 4.65213 24.4105 18
463 1 3.72818 7.36366 26.8571 21
464 1 4.78183 19.0149 21.8003 21
465 1 2.91477 9.23686 29.4056 22
466 1 8.49366 16.6806 29.8126 23
467 1 6.958 13.6383 22.1795 19
468 1 10.9856 17.4799 25.6202 20
469 1 5.98394 4.87629 22.0588 20
470 1 6.02324 2.11521 21.5271 19
471 1 12.2597 29.434 18.0707 24
472 1 18.1936 34.0186 23.3603 22
473 1 12.5787 2.01989 22.8071 20
474 1 20.7571 32.0884 21.9518 22
475 1 4.24816 2.59525 19.5015 22
476 1 18.5104 33.0969 29.1202 20
477 1 2.85169 5.89303 23.6836 24
478 1 14.1738 2.89019 25.7466 22
479 1 15.6258 32.6123 28.0884 22
480 1 10.1669 30.8612 26.5989 19
481 1 15.1177 8.94678 19.5636 23
482 1 15.1282 5.3832 12.3304 23
483 1 11.7691 12.5832 14.2263 18
484 1 7.63596 11.0718 12.7116 19
485 1 9.034 4.18116 22.7451 20
486 1 13.1564 7.33471 23.843 21
487 1 11.2579 19.6519 13.781 19
488 1 12.6869 13.1276 23.5008 20
489 1 10.3195 11.3429 26.7838 18
490 1 8.26216 12.594 15.5902 23
491 1 13.2533 8.24954 32.4731 21
492 1 11.1759 8.26193 28.6499 21
493 1 15.061 18.1264 17.6322 20
494 1 16.4857 16.427 12.6988 24
495 1 13.4862 15.1691 13.2337 19
496 1 13.385 20.8645 10.878 21
497 1 16.1598 12.4748 19.6574 24
498 1 10.2862 17.9573 20.3621 20
499 1 13.9452 11.443 28.8155 23
500 1 32.1222 20.1446 14.423 22
501 1 7.28264 19.7068 26.9599 22
502 1 7.41876 10.2927 24.2319 17
503 1 8.53773 13.0906 29.3146 19
504 1 10.6314 14.8554 23.8577 23
505 1 12.426 -0.312361 17.0684 18
506 1 13.0293 2.7545 12.1843 20
507 1 9.76358 27.2091 13.0885 22
508 1 16.4247 7.55162 16.9366 20
509 1 16.9465 8.67762 28.931 20
510 1 6.82875 33.5951 23.4985 21
511 1 26.5735 0.239527 21.6938 19
512 1 8.02185 33.5855 25.9258 20
513 1 14.151 8.41806 29.9122 23
514 1 12.8639 6.94734 21.0587 22
515 1 12.2375 3.60636 21.2323 18
516 1 14.0069 4.02229 29.191 18
517 1 20.5833 13.5216 14.6829 21
518 1 18.497 33.1263 26.3665 20
519 1 15.7709 7.63297 22.0882 22
520 1 20.2478 12.8006 16.7518 22
521 1 17.7546 15.2161 10.445 20
522 1 15.9819 7.98264 32.439 19
523 1 19.5264 4.7675 18.4982 22
524 1 17.7462 13.6086 13.7758 21
525 1 12.1723 17.0409 22.5339 22
526 1 17.6327 3.21132 30.8142 22
527 1 19.6076 2.1751 32.8594 20
528 1 17.6053 12.2134 28.9512 22
529 1 15.1272 13.1125 14.8408 23
530 1 15.5424 15.7765 15.3595 20
531 1 18.444 2.64228 18.2057 20
532 1 20.3314 15.6799 21.1178 23
533 1 22.9452 17.887 17.2934 22
534 1 14.6981 10.8294 21.9949 19
535 1 18.9865 15.1738 24.2596 22
536 1 19.812 14.2423 29.1295 20
537 1 10.0375 20.112 26.5114 20
538 1 16.8831 16.6462 26.0557 22
539 1 17.5503 10.9314 21.9951 24
540 1 14.1703 12.6865 25.6643 19
541 2 28.872 29.7218 29.8148 20
542 2 28.6336 8.02309 28.4096 21
543 2 32.4963 0.270093 16.47 20
544 2 1.88648 4.04954 19.6639 21
545 2 5.55779 7.88093 25.6995 22
546 2 32.0176 6.9815 25.4204 19
547 2 8.31458 6.06527 22.9682 20
548 2 3.43696 1.05347 19.4946 22
549 2 2.70116 -0.233318 28.4105 22
550 2 30.5441 5.79725 28.1616 21
551 2 1.93134 31.9197 29.5029 18
552 2 1.59263 7.40465 26.961 22
553 2 -0.0584169 6.00141 17.1207 20
554 2 2.33195 12.4262 15.9207 23
555 2 4.66466 9.05092 20.0154 21
556 2 3.9577 14.299 18.9873 23
557 2 26.5072 5.25635 25.4229 19
558 2 31.6331 11.2863 24.1375 18
559 2 0.605366 9.99149 20.9361 17
560 2 0.91797 12.1566 18.551 21
561 2 6.71528 6.26172 29.977 19
562 2 32.9479 5.80721 29.5748 21
563 2 4.47126 6.95337 31.143 21
564 2 5.85809 10.8937 25.8273 19
565 2 6.72963 18.7287 18.4141 21
566 2 22.9135 5.84046 20.1577 23
567 2 31.4103 24.6665 13.3707 19
568 2 0.487973 22.0706 13.9523 21
569 2 28.2867 18.2407 27.2935 20
570 2 26.6245 10.6287 16.5332 22
571 2 1.04338 22.7198 23.9554 18
572 2 30.1645 18.3814 25.0758 21
573 2 30.9188 12.8169 31.4708 23
574 2 32.6978 16.0954 31.4436 23
575 2 0.118645 15.654 28.4569 21
576 2 3.80212 5.52943 25.8622 22
577 2 16.1356 27.6901 14.4195 22
578 2 9.17185 1.05379 29.2681 24
579 2 5.97286 2.8447 18.632 21
580 2 5.65237 4.22929 15.0419 25
581 2 6.86538 13.3901 24.1317 17
582 2 31.5606 8.39751 28.3841 22
583 2 28.829 0.848417 28.0298 22
584 2 5.914 4.15052 23.8421 22
585 2 3.04596 3.6006 30.9499 20
586 2 3.50104 9.08679 23.6485 21
587 2 2.50156 10.2475 26.145 22
588 2 1.40652 6.9626 24.3374 25
589 2 31.7635 9.18994 23.0172 23
590 2 30.2686 11.0163 18.1358 22
591 2 4.39434 15.5621 10.7957 18
592 2 10.7974 16.2381 14.0392 21
593 2 16.2573 11.9157 23.2964 21
594 2 7.4489 8.70331 28.3083 21
595 2 28.8625 23.9197 24.1746 22
596 2 3.16761 11.9569 20.6651 19
597 2 2.80094 5.64755 33.7111 22
598 2 1.63759 6.38198 30.7774 23
599 2 6.24365 9.23848 22.906 17
600 2 7.23194 2.84659 28.335 20
601 2 8.03635 28.5975 17.3954 20
602 2 13.451 13.0555 13.637 21
603 2 33.0192 20.0224 16.1751 21
604 2 2.19542 15.5345 15.7669 20
605 2 -0.0131717 21.0878 26.1739 22
606 2 14.2341 5.93036 25.0033 22
607 2 3.32609 25.1957 17.5562 22
608 2 0.178408 9.66096 25.4128 22
609 2 2.68965 9.70912 31.1934 19
610 2 2.54123 16.0119 31.2359 27
611 2 4.76791 15.6048 28.6836 20
612 2 32.542 8.21741 31.005 20
613 2 5.17711 31.5277 12.5898 25
614 2 4.62803 3.0905 21.293 21
615 2 6.42865 6.76246 21.6695 21
616 2 11.9884 11.5926 24.8766 20
617 2 4.79142 31.9439 29.4026 23
618 2 0.794193 9.50523 28.7342 22
619 2 11.0409 6.0311 27.0136 21
620 2 11.9807 0.653335 26.7431 21
621 2 0.979264 0.602874 36.374 24
622 2 2.84122 5.77316 28.5929 22
623 2 3.49645 3.58882 17.1042 20
624 2 6.58303 4.007 31.9626 26
625 2 15.795 5.86878 15.8522 22
626 2 5.5358 17.5799 20.6001 20
627 2 11.3302 8.35638 18.1045 22
628 2 16.5966 11.5255 17.9319 23
629 2 13.8065 8.20605 27.6601 24
630 2 30.9214 13.5695 23.1909 21
631 2 11.3999 8.83494 22.8683 20
632 2 11.0105 9.09445 26.7271 21
633 2 8.49675 7.32645 31.8072 22
634 2 5.91656 9.78216 31.064 23
635 2 9.17409 11.3116 28.1516 19
636 2 8.32166 13.8444 21.1614 21
637 2 5.24222 30.3256 17.1061 24
638 2 31.3657 14.7164 15.7481 20
639 2 30.3432 8.19375 16.3061 20
640 2 1.67035 11.2047 12.9032 21
641 2 8.85219 10.6404 22.6183 21
642 2 9.26503 15.3197 30.9567 20
643 2 5.08192 17.153 13.7564 23
644 2 2.73085 11.5458 28.8052 18
645 2 7.62747 12.6811 30.9654 22
646 2 5.40593 15.4121 31.4061 21
647 2 3.99559 12.4502 31.4569 23
648 2 17.5003 12.186 30.9973 19
649 2 32.2367 31.397 28.8168 19
650 2 14.0723 1.02562 30.365 19
651 2 11.4599 5.71019 20.8016 23
652 2 9.71142 7.54132 20.732 19
653 2 9.06291 4.91373 29.4423 21
654 2 32.0603 4.06716 24.8766 23
655 2 14.0585 29.8955 28.8234 22
656 2 11.393 0.903917 32.0336 24
657 2 9.80693 32.7221 31.1563 22
658 2 10.5617 3.71862 31.322 21
659 2 13.6976 3.67238 22.8036 23
660 2 12.1091 3.42792 25.5369 20
661 2 15.8442 14.934 13.5279 18
662 2 14.1492 -0.0968071 17.9354 20
663 2 6.46065 2.03489 16.0426 20
664 2 9.67523 32.5525 14.1792 20
665 2 26.9428 7.89084 16.8951 19
666 2 8.19713 8.78873 25.2741 22
667 2 5.9501 12.5017 28.2174 20
668 2 8.36528 6.00526 26.2532 20
669 2 10.8019 7.03283 29.8059 20
670 2 9.19472 9.85982 30.8056 21
671 2 1.16407 12.8855 31.5892 21
672 2 16.5426 7.73299 27.1952 21
673 2 16.9829 15.5532 24.4039 19
674 2 11.3336 16.4042 27.4086 21
675 2 8.51839 12.1525 11.4146 18
676 2 23.7391 21.8667 16.0638 20
677 2 11.8339 11.0072 28.0405 20
678 2 9.20753 19.6623 19.838 22
679 2 7.50708 32.1408 21.8198 21
680 2 8.62121 11.8139 25.4598 19
681 2 10.8779 12.2948 31.164 20
682 2 11.3017 19.1649 29.6234 18
683 2 8.16702 14.7788 28.7661 20
684 2 14.7723 10.8649 26.1376 20
685 2 11.2885 0.256239 23.5767 25
686 2 13.9309 1.1895 24.6859 20
687 2 14.898 3.47854 27.6949 23
688 2 17.3041 25.4092 29.2753 19
689 2 20.8736 2.50851 28.4871 20
690 2 21.9725 10.4524 30.2094 22
691 2 8.92297 13.404 17.1917 19
692 2 22.1904 3.63354 25.9115 21
693 2 16.2985 4.79553 30.0551 19
694 2 11.8184 6.30097 32.6143 21
695 2 14.0003 14.2126 24.387 22
696 2 16.7167 7.19456 30.0471 20
697 2 12.1911 1.87931 20.7816 21
698 2 16.1657 9.92361 21.3666 20
699 2 7.34014 8.12561 19.1417 17
700 2 19.5505 16.631 16.3213 22
701 2 17.3963 29.2527 26.5169 20
702 2 20.4169 6.57627 30.7192 17
703 2 15.4274 20.1029 27.0081 21
704 2 30.3676 32.0352 19.7497 20
705 2 14.4533 7.01534 31.3367 25
706 2 12.493 9.09557 30.4731 21
707 2 5.56307 20.4017 27.2385 21
708 2 17.6273 20.2724 28.4649 20
709 2 16.4966 11.677 14.0917 22
710 2 12.7409 11.1304 22.1868 22
711 2 4.14694 10.8694 14.5782 23
712 2 4.41164 21.9132 24.8914 21
713 2 11.1328 6.35338 24.1312 22
714 2 14.5189 24.7893 22.989 20
715 2 21.4327 19.7453 20.4214 25
716 2 10.8766 13.1294 22.8836 21
717 2 15.1962 9.5668 32.0156 22
718 2 13.2048 13.2466 30.1094 20
719 2 19.5312 16.0516 28.5864 20
720 2 18.7885 11.7637 27.5094 18
721 1 2.87161 23.256 1.51332 22
722 1 3.31999 20.8198 3.79807 21
723 1 5.89837 18.6534 4.63339 23
724 1 1.9556 20.3327 6.59103 24
725 1 26.0571 28.8021 6.64382 21
726 1 4.61757 25.9721 62.5813 22
727 1 29.2136 14.0355 10.9808 23
728 1 31.0341 30.0418 10.5159 21
729 1 -0.101173 25.1216 10.3706 18
730 1 6.06608 25.257 3.2874 23
731 1 0.61765 22.7646 8.94918 22
732 1 27.3038 17.3999 20.6495 23
733 1 31.5546 31.8818 1.03192 20
734 1 1.16924 25.647 62.5855 21
735 1 32.855 20.4056 4.79695 18
736 1 30.8247 25.8977 6.42271 23
737 1 0.195452 25.4905 6.60953 22
738 1 0.472909 22.3766 60.9468 20
739 1 31.7895 20.039 1.26778 21
740 1 33.0556 28.1091 1.58748 23
741 1 28.8225 33.8477 5.11233 21
742 1 32.7261 26.1062 3.48943 25
743 1 30.4955 23.6392 14.8993 21
744 1 5.1061 25.5204 7.61803 21
745 1 32.8915 0.0608763 1.20974 25
746 1 29.6873 32.8748 2.40839 24
747 1 1.18403 0.107096 10.5653 22
748 1 4.2359 30.216 5.49934 20
749 1 27.4989 31.7234 7.13043 22
750 1 1.86309 29.5224 8.41476 26
751 1 30.1944 26.7045 9.81953 18
752 1 -0.198788 32.2606 9.14994 24
753 1 7.14941 0.885987 6.96035 21
754 1 4.76193 33.2645 11.9052 20
755 1 31.9666 29.802 22.6942 22
756 1 32.7024 34.2527 12.2072 22
757 1 4.64617 23.357 4.66457 18
758 1 6.95179 15.2396 5.52173 23
759 1 4.36865 15.4643 3.49036 23
760 1 9.04423 23.3026 8.86949 23
761 1 1.9209 29.0557 3.29367 21
762 1 5.54194 20.9922 6.60817 24
763 1 1.89069 16.9632 7.33125 23
764 1 1.49969 17.9368 4.33484 20
765 1 29.0978 31.2462 18.2849 18
766 1 14.8239 21.9814 7.8287 20
767 1 9.53455 14.859 14.6692 18
768 1 32.6596 26.8809 14.3648 21
769 1 3.06555 28.7095 62.3873 22
770 1 8.23959 25.1979 1.04244 19
771 1 32.5897 22.6956 2.52893 21
772 1 5.9763 31.7185 3.27305 20
773 1 10.4957 31.5729 1.52108 24
774 1 2.26079 26.209 3.51573 22
775 1 4.98648 27.686 4.33189 20
776 1 2.23569 26.3862 9.40574 24
777 1 3.50774 31.3303 10.2462 23
778 1 17.277 29.085 13.2312 23
779 1 1.31963 22.0742 11.9962 21
780 1 7.86718 23.8185 14.0273 20
781 1 2.26358 34.2865 62.1991 22
782 1 4.40507 31.5459 61.9445 20
783 1 2.7831 32.0238 2.69184 21
784 1 3.57181 3.95091 3.20091 22
785 1 29.0363 3.44015 14.5144 24
786 1 1.40939 0.465293 4.36613 21
787 1 5.42977 -0.283099 5.20938 20
788 1 32.2865 2.73761 6.3218 22
789 1 9.45258 7.92488 11.1652 22
790 1 10.695 6.76805 19.094 21
791 1 6.18766 30.2237 11.3433 23
792 1 23.0695 31.5192 17.7885 17
793 1 5.85537 23.0629 62.4602 18
794 1 6.86968 19.3545 1.4922 21
795 1 11.8303 21.6612 4.8746 22
796 1 5.5071 12.9349 9.46503 19
797 1 6.95112 24.2247 5.87083 27
798 1 6.69502 21.7535 3.08708 21
799 1 -0.149437 24.0464 13.7814 20
800 1 3.88528 28.511 10.5319 22
801 1 8.46089 17.4878 10.2089 19
802 1 12.6849 14.901 9.83217 21
803 1 32.4526 18.2092 17.6628 23
804 1 32.0614 21.2597 10.0244 17
805 1 6.29006 28.9212 1.39078 20
806 1 11.0515 26.3482 2.97309 20
807 1 8.94507 22.0682 5.41149 21
808 1 9.20084 24.196 3.54709 20
809 1 11.3662 25.6884 8.92534 22
810 1 11.5282 29.0257 4.40443 21
811 1 32.2788 27.3972 8.59987 20
812 1 5.22953 28.5317 7.94794 25
813 1 0.530678 31.4169 11.3743 23
814 1 8.00284 26.9581 6.52764 23
815 1 9.51088 17.6803 15.6592 19
816 1 10.087 25.3779 15.4958 18
817 1 6.72502 34.3852 62.4466 19
818 1 7.53856 31.656 62.1325 20
819 1 9.63635 30.9643 5.01531 22
820 1 8.07244 33.4227 3.70271 22
821 1 5.40672 31.206 8.11108 21
822 1 0.866942 31.3261 6.04465 25
823 1 0.941091 23.5599 4.34345 22
824 1 6.28326 3.26842 4.91413 24
825 1 3.12159 5.10081 18.0389 21
826 1 3.09566 33.1967 5.17317 19
827 1 10.5302 2.0465 8.68978 20
828 1 7.48476 9.26394 17.6685 20
829 1 9.65442 22.4692 2.02888 20
830 1 13.0744 23.8987 6.09131 19
831 1 6.31786 19.6987 10.3814 21
832 1 11.582 22.3303 7.60834 19
833 1 9.36911 19.726 3.34831 22
834 1 12.8517 23.5129 9.59396 23
835 1 10.0553 28.5131 16.0107 20
836 1 15.9941 10.2697 16.5261 22
837 1 7.74244 21.0488 8.45495 19
838 1 8.08654 20.8492 12.5482 20
839 1 13.5718 11.6619 11.9235 24
840 1 12.4152 21.8247 14.9785 21
841 1 8.38197 29.6492 2.43051 22
842 1 11.5293 25.5925 62.0594 18
843 1 13.1004 16.4515 7.44049 20
844 1 8.33609 27.2149 3.93504 23
845 1 9.52626 30.5332 12.726 19
846 1 7.6806 33.1858 6.6619 21
847 1 14.2327 27.3328 5.46529 18
848 1 17.0028 30.8144 15.6128 22
849 1 12.8717 0.403547 14.1198 20
850 1 10.6405 28.639 9.8286 21
851 1 9.72167 15.0422 9.34533 20
852 1 10.1912 20.0881 10.4763 21
853 1 9.66401 -0.329542 0.992575 21
854 1 12.9917 33.8435 62.4478 23
855 1 7.67969 29.9884 7.5913 19
856 1 9.86476 3.74701 5.78884 19
857 1 9.27639 9.62327 7.19751 24
858 1 3.62813 2.48318 5.21269 20
859 1 7.22493 29.6817 5.29186 23
860 1 11.8208 31.384 6.75625 22
861 1 8.66881 7.42635 14.2548 22
862 1 15.5726 32.9425 9.64526 24
863 1 7.18197 27.3127 12.9163 20
864 1 15.2482 29.4224 11.0305 24
865 1 12.2397 23.16 2.36699 19
866 1 14.5559 20.6748 1.62938 21
867 1 14.5827 17.182 4.39183 19
868 1 10.9239 22.7378 12.3297 22
869 1 19.7074 25.8918 5.99584 21
870 1 17.655 23.0694 7.10576 20
871 1 15.6111 13.5584 11.5992 22
872 1 16.0948 21.5412 10.7232 20
873 1 11.8692 25.1087 13.0492 20
874 1 15.6506 28.1617 16.4232 22
875 1 16.7795 20.4559 5.40601 22
876 1 17.6186 21.289 18.4468 22
877 1 11.168 28.8794 1.20162 17
878 1 14.4964 26.8441 61.7861 18
879 1 10.1718 25.3876 6.46331 22
880 1 16.4726 27.3187 10.0099 24
881 1 12.2508 29.1843 12.4839 18
882 1 13.1766 28.3627 8.30463 21
883 1 17.5413 24.9462 4.51646 19
884 1 14.5967 29.6796 14.2467 19
885 1 15.2778 33.1028 18.1743 23
886 1 16.3109 32.2229 12.6741 21
887 1 21.8627 21.5571 23.6484 25
888 1 16.095 21.2121 16.0443 21
889 1 15.6209 34.2374 1.16909 23
890 1 13.6429 31.7648 2.84048 23
891 1 10.1745 28.2603 6.83314 20
892 1 15.2787 30.0685 4.60882 19
893 1 6.34839 5.37478 9.66352 22
894 1 20.2566 23.3512 8.34267 22
895 1 12.7022 31.3463 9.5024 19
896 1 18.4655 26.9057 18.7585 21
897 1 13.0836 -0.134474 10.7702 22
898 1 17.86 2.81482 6.47885 22
899 1 18.5361 24.5278 20.4739 20
900 1 21.0169 33.5464 16.4268 23
901 2 0.87599 16.5563 3.17005 21
902 2 31.0229 27.4502 13.7081 17
903 2 28.8131 20.1055 4.09127 18
904 2 3.05355 21.5869 1.87127 23
905 2 4.25248 11.9311 8.75312 20
906 2 30.8985 17.6226 16.907 22
907 2 30.78 0.500964 18.2046 20
908 2 0.309818 26.5278 17.0305 20
909 2 32.7401 23.1128 10.8474 17
910 2 2.94968 30.0298 24.4532 19
911 2 7.09037 30.0523 19.2994 15
912 2 0.0464533 28.8017 14.8176 18