ITEM: TIMESTEP
24000
ITEM: NUMBER OF ATOMS
2000
ITEM: BOX BOUNDS pp pp pp
-30.0 30.0
-30.0 30.0
-30.0 30.0
ITEM: ATOMS id type x y z Coordination
1 1 -9.93694 3.45036 -13.4677 9
2 1 -8.62452 -17.0044 -4.86686 14
3 1 0.881587 3.8945 22.9153 17
4 1 4.00865 -9.62624 10.5445 19
5 1 -11.4308 9.60993 4.1077 18
6 1 4.80034 -10.1278 -7.44338 19
7 1 -14.16 2.89001 0.0620909 18
8 1 -4.8866 -10.9225 16.3133 17
9 1 -11.0641 -8.69662 -5.76253 19
10 1 -11.3079 -12.9486 11.7228 18
11 1 3.55678 -7.73716 -13.2042 11
12 1 -6.90086 -14.4308 5.66068 17
13 1 -16.5062 -12.8246 6.48196 11
14 1 -2.80293 1.49049 24.6474 14
15 1 1.56581 -12.9618 17.5255 9
16 1 -2.39313 1.0291 12.3386 20
17 1 4.14019 -5.86241 10.1726 20
18 1 -3.86417 6.81919 -5.78429 20
19 1 -2.46076 3.43576 11.5184 20
20 1 -12.4988 -6.43039 -11.2507 11
21 1 -14.186 -5.03541 16.1856 16
22 1 7.2401 7.0365 14.0787 21
23 1 -2.98609 1.28048 -8.48371 23
24 1 -0.6974 0.128026 -7.08735 21
25 1 9.75989 2.97805 15.9704 13
26 1 -9.93314 -3.12263 6.07424 17
27 1 -14.3637 6.41877 -4.4555 10
28 1 -5.94438 -5.17525 -5.49419 22
29 1 -13.3692 5.0201 13.043 16
30 1 1.64125 -14.7513 9.53744 15
31 1 -2.33433 -2.55452 12.2862 18
32 1 -1.52592 -16.001 -7.01978 17
33 1 1.09105 -10.9541 6.27495 18
34 1 -6.947 -17.2072 0.0747882 16
35 1 -16.4255 -5.83359 10.908 16
36 1 -1.85286 -10.8932 -12.5212 14
37 1 6.68069 -9.95928 -10.3089 12
38 1 -2.18503 2.8177 -11.2061 20
39 1 5.02925 1.86573 14.2488 21
40 1 -6.07575 -17.4813 10.9606 19
41 1 -2.33394 -12.031 17.3273 14
42 1 -12.9686 2.68167 6.3195 19
43 1 -14.6921 -2.08642 16.8272 11
44 1 -9.81317 -1.26541 4.12917 15
45 1 0.523091 13.7854 0.388985 16
46 1 -3.01142 -13.5079 -4.40304 19
47 1 -0.773076 -3.36736 -5.31936 17
48 1 1.36052 -6.31848 -11.4198 16
49 1 -7.15879 -12.2926 15.786 20
50 1 -17.618 3.7772 -0.502284 9
51 1 1.10199 6.76666 -7.99042 16
52 1 -1.90869 12.2024 12.1083 20
53 1 -7.05515 7.10222 -5.80965 20
54 1 -11.3806 15.1225 0.339526 8
55 1 -0.41749 -15.253 7.30151 19
56 1 3.15511 -8.00762 0.464609 20
57 1 -7.808 -13.6017 -11.8833 10
58 1 -11.2199 2.41243 18.7669 12
59 1 -15.3622 -5.59618 -8.66597 9
60 1 3.76012 -0.288434 9.31571 21
61 1 -15.7284 6.05577 4.7175 14
62 1 -14.0436 -13.571 12.2949 12
63 1 -4.38994 10.0512 15.871 20
64 1 -16.5563 7.62972 -0.789698 6
65 1 -5.42211 7.37184 15.6271 21
66 1 -0.406252 -0.668152 -1.50978 18
67 1 -6.02872 -15.3708 9.1044 23
68 1 0.465274 1.40756 12.2237 17
69 1 4.16957 -16.9473 -5.7357 14
70 1 1.57306 6.20465 20.9826 19
71 1 -13.5602 -0.887114 -8.01363 15
72 1 -10.4205 6.71131 -8.79048 13
73 1 -2.79421 6.40887 13.2925 21
74 1 4.94472 -3.202 -7.92493 19
75 1 0.33586 -16.9251 3.88491 20
76 1 -18.7351 0.330479 9.4358 9
77 1 -10.3284 -7.00944 4.38735 18
78 1 1.02699 9.90429 10.4785 18
79 1 -2.64861 -5.93919 16.1715 17
80 1 -8.85415 -13.3865 9.67399 20
81 1 -12.9657 -7.80364 11.5668 21
82 1 2.34741 0.0316719 16.6514 15
83 1 3.32006 -2.66869 1.24708 18
84 1 -0.256147 8.10219 15.5604 19
85 1 -0.369872 -7.60886 11.9816 21
86 1 -8.68203 -6.82782 10.2976 20
87 1 -8.5622 -11.013 -5.59111 16
88 1 -12.0881 8.17143 12.2835 14
89 1 -10.1956 6.28692 4.14819 17
90 1 -6.48639 -2.20518 -6.39881 19
91 1 5.0935 -2.5616 -1.51382 20
92 1 1.81883 8.95255 -0.559497 19
93 1 4.38063 -8.27791 8.18661 21
94 1 3.40117 -11.8602 8.74496 20
95 1 -7.24187 11.9484 2.98265 20
96 1 -12.1284 13.6407 5.46062 15
97 1 -5.61599 -5.87962 16.8572 19
98 1 -8.72665 8.71698 13.9579 19
99 1 -10.0753 -7.51858 14.1657 20
100 1 8.32297 -9.24426 2.42177 23
101 1 -9.6721 -0.978933 8.56637 18
102 1 -8.59793 -15.8506 7.80441 15
103 1 5.47451 -11.2766 -4.21277 17
104 1 0.853442 -1.51781 -11.1611 21
105 1 -10.3945 -7.78695 -11.0964 15
106 1 -4.59182 11.0919 6.56327 19
107 1 -5.16973 4.97964 -1.49531 22
108 1 2.56852 8.85867 19.7088 17
109 1 -3.61317 11.2647 -2.99774 15
110 1 -14.3423 7.12292 1.62619 12
111 1 -1.70062 5.99062 6.18266 20
112 1 -9.57845 -2.82253 18.7986 17
113 1 6.70368 -6.11318 17.3252 10
114 1 -0.776062 -11.5834 -4.13797 19
115 1 2.13433 -9.10202 -8.1732 14
116 1 1.22047 -2.10895 12.0483 20
117 1 -1.13648 -7.2852 19.117 18
118 1 -15.8026 -12.068 1.60077 15
119 1 2.22754 -8.10655 6.25487 20
120 1 -17.6074 -9.54838 2.16534 11
121 1 6.9247 -6.47526 3.11785 19
122 1 -9.68143 5.5451 8.90246 21
123 1 4.05582 -0.456879 -11.6969 14
124 1 1.26805 15.5867 5.37098 11
125 1 -5.09806 -16.8548 13.9779 15
126 1 -8.94299 -17.6449 14.0985 15
127 1 2.263 -12.471 -4.30028 17
128 1 1.44098 1.89837 -2.11083 22
129 1 6.74768 -11.6657 4.36504 19
130 1 1.32181 -17.347 9.47825 14
131 1 -14.7892 -14.916 0.335059 16
132 1 9.48693 3.32692 19.7685 12
133 1 10.6552 0.57355 -1.64708 15
134 1 -17.0375 -7.20166 8.04304 13
135 1 4.61196 11.5518 14.6407 15
136 1 6.69219 9.82696 15.2551 14
137 1 -4.68302 -2.92266 21.4512 15
138 1 5.19347 2.41666 2.9637 23
139 1 -4.61082 11.4141 13.0253 20
140 1 -9.9493 14.2585 2.91626 18
141 1 3.43617 -8.52469 -10.0757 18
142 1 5.27308 -13.3099 -6.10176 18
143 1 1.78713 5.03355 -5.97652 19
144 1 0.132154 -9.81131 17.4511 14
145 1 1.34207 -0.95661 -14.2234 12
146 1 -6.93457 2.93424 1.28497 22
147 1 5.57158 -3.48605 3.58404 22
148 1 -15.9863 1.2562 -2.02508 18
149 1 -8.34188 16.9452 2.70749 7
150 1 4.8393 -3.65833 -4.42154 21
151 1 4.1799 -10.3962 5.52442 19
152 1 -8.62006 -1.93245 -9.52608 19
153 1 -10.8793 11.2727 15.2372 10
154 1 4.29935 8.25576 1.96306 21
155 1 1.27202 5.95882 1.15576 21
156 1 -7.51957 10.1196 5.42831 20
157 1 5.13286 6.41727 5.57434 20
158 1 -3.80495 7.64969 -1.55643 19
159 1 0.198896 9.80342 -7.16294 13
160 1 -1.5084 6.03806 -6.31801 21
161 1 -15.727 -13.9251 3.79731 11
162 1 -12.8459 7.49807 -6.95392 12
163 1 -8.38144 -9.50687 -2.64384 18
164 1 -4.30038 -13.6392 -12.2234 10
165 1 4.82143 10.4826 18.0328 16
166 1 -1.58394 11.5125 8.38545 19
167 1 -15.1023 -0.376702 0.127073 17
168 1 -12.1281 9.07053 1.49437 16
169 1 10.4806 -2.25672 0.482141 15
170 1 -11.3714 -3.27587 -8.34251 18
171 1 3.13377 -1.71933 20.4659 11
172 1 -1.76529 14.1793 10.1502 15
173 1 -4.14791 4.13192 14.7539 20
174 1 2.28297 -13.4212 -11.9473 9
175 1 -11.4146 9.31949 18.1061 8
176 1 -1.64956 7.96686 -9.59066 17
177 1 -5.38052 -1.08543 19.1077 19
178 1 -18.731 -3.26978 4.10505 11
179 1 -4.12735 -13.2374 -8.37491 20
180 1 -8.44574 9.76818 -3.84679 22
181 1 3.43311 -16.0853 6.86015 14
182 1 2.78631 -15.8916 -1.83309 18
183 1 -7.90421 4.54342 -8.39296 20
184 1 -13.2347 6.38776 10.0616 16
185 1 -3.78899 4.60696 4.26819 22
186 1 4.63868 5.59861 0.456948 18
187 1 -7.2065 3.67702 14.7036 16
188 1 -1.74378 -12.3398 12.1603 20
189 1 -8.62963 1.69643 2.9807 20
190 1 -4.25885 14.5298 7.5335 12
191 1 -2.97707 -0.26607 15.3084 20
192 1 5.59823 -2.02667 14.7626 14
193 1 -12.8938 9.85381 9.09998 15
194 1 10.1504 -5.25638 -4.095 15
195 1 -3.24404 9.51435 20.0622 12
196 1 -8.12447 -3.28364 -2.72154 17
197 1 8.81748 -9.15697 9.12878 15
198 1 -11.0296 -8.2172 9.02669 21
199 1 -18.5995 0.218011 5.73003 12
200 1 -5.02964 -12.3697 11.2591 20
201 1 -3.58502 4.61546 22.3771 15
202 1 -11.6569 -0.53341 1.29073 17
203 1 1.70615 -13.971 4.78887 20
204 1 1.28376 -9.15934 -2.07302 20
205 1 -4.22849 7.05778 9.81126 22
206 1 -6.48896 -1.33851 9.56223 20
207 1 5.5377 7.93936 20.7347 15
208 1 -11.4211 -3.73261 2.28491 17
209 1 -8.11358 10.2738 -0.630709 19
210 1 -17.3385 -3.98325 -4.06412 13
211 1 -11.2816 -5.3923 10.5959 20
212 1 -2.65214 -11.978 8.7379 23
213 1 8.84919 -16.0011 6.46397 9
214 1 -13.0469 6.96383 4.63134 16
215 1 8.83704 2.98779 9.36968 19
216 1 4.89144 0.194825 0.629112 21
217 1 -8.2454 -12.644 -8.36795 17
218 1 -3.30527 3.13722 17.2969 16
219 1 6.07072 -16.4673 -0.920633 16
220 1 -6.45171 2.58989 -7.15526 19
221 1 2.23509 -12.008 -7.42976 19
222 1 2.22909 -4.02581 -9.39059 18
223 1 -2.29293 5.94132 -12.2744 13
224 1 -12.221 -13.7396 -2.1941 22
225 1 -5.14478 14.0764 -0.772186 12
226 1 -13.4577 -7.82019 18.2232 12
227 1 -2.08956 13.6501 -2.58404 12
228 1 -0.0428517 -0.732908 14.2698 16
229 1 -2.49586 15.1601 0.321507 11
230 1 5.72598 -0.456198 17.0126 16
231 1 -0.555351 -13.2005 -6.65793 21
232 1 -5.86935 4.11777 -3.76569 18
233 1 -1.76281 0.0831131 -4.21166 16
234 1 -7.54146 -20.5314 10.4241 10
235 1 -14.4098 2.34044 13.7545 15
236 1 -11.3432 11.2134 11.5603 10
237 1 -5.44917 -14.872 -3.71952 18
238 1 -5.16043 -23.1038 5.018 7
239 1 4.80466 -13.8022 0.461494 15
240 1 -1.14939 -10.8694 0.944601 22
241 1 4.53577 11.2691 20.7369 7
242 1 3.19368 5.27378 -1.99058 18
243 1 -3.02816 7.36999 2.67163 20
244 1 -10.3431 1.07338 6.51268 18
245 1 -13.5457 7.95258 -1.30825 14
246 1 -1.8014 6.51173 21.0863 14
247 1 3.26156 -17.7751 0.655729 14
248 1 11.4831 -2.32304 3.89974 11
249 1 -5.47862 1.75885 12.9451 19
250 1 -10.4096 8.68614 6.67511 19
251 1 -13.3243 -1.19059 -2.93762 17
252 1 2.29549 1.75521 -7.157 20
253 1 -0.755761 -7.81814 15.2738 21
254 1 6.82757 3.20193 -4.67451 17
255 1 -2.33949 -16.195 1.42684 17
256 1 -3.52676 -4.69364 -7.89995 19
257 1 -0.994805 -19.4186 8.03421 15
258 1 9.42135 -8.49893 -5.0504 12
259 1 -12.8979 -10.6108 10.6087 20
260 1 -0.745271 -19.7117 4.38078 14
261 1 -17.1202 -4.60723 -0.894009 15
262 1 2.42427 9.68798 4.96812 19
263 1 -7.94923 -10.2859 -13.1693 10
264 1 1.46322 -4.26219 19.2428 12
265 1 11.9546 4.96989 10.4543 15
266 1 -7.01241 -8.33543 1.21085 19
267 1 6.90436 -4.8898 -6.00675 22
268 1 -5.30811 -12.045 6.07619 21
269 1 -10.4821 -11.0102 -0.199056 16
270 1 -11.5158 1.1492 -9.70702 16
271 1 -3.67993 -19.7878 11.899 11
272 1 8.57137 -12.0415 10.379 10
273 1 2.47644 -4.89472 12.0576 18
274 1 -6.02455 -12.2677 -2.72328 17
275 1 -2.77932 -7.09732 8.50347 20
276 1 -0.258634 3.62816 -7.89625 22
277 1 1.4212 6.34108 5.20028 17
278 1 -12.4225 -9.44472 6.66885 21
279 1 0.496578 8.15143 3.0781 22
280 1 -11.8266 -5.14067 13.5065 22
281 1 -13.3037 -2.81949 -5.75906 20
282 1 -8.91036 -12.6107 -3.03146 17
283 1 -3.26997 3.00626 -13.871 13
284 1 -8.88818 -14.3665 -5.60992 19
285 1 -7.57889 -10.8314 3.57985 20
286 1 7.90694 -5.71164 -9.67861 12
287 1 11.3041 2.17344 -4.70329 13
288 1 4.82138 -2.73665 12.0975 23
289 1 -9.1457 -6.81265 -1.06431 18
290 1 -12.8525 -8.19068 15.2405 19
291 1 -2.16849 -17.4341 5.66717 18
292 1 -0.248423 3.81876 25.6422 6
293 1 -3.45838 -17.5904 8.56054 18
294 1 -1.80046 -15.1686 3.87315 22
295 1 -1.3787 14.2081 3.35626 16
296 1 5.98787 -6.73883 -11.5843 10
297 1 -12.4297 -10.0706 -9.70031 11
298 1 -10.0218 -12.8342 18.29 12
299 1 -1.3146 2.03134 21.7589 15
300 1 -3.39344 -18.4 3.55245 18
301 1 -6.14185 -16.8617 -6.61302 9
302 1 -9.79722 12.2412 -4.96534 9
303 1 4.70418 4.85576 13.6283 19
304 1 -9.01961 1.34387 -9.15144 19
305 1 -3.1525 3.49168 -6.19417 20
306 1 -4.33774 -10.1133 13.5877 20
307 1 6.88143 -16.9048 -5.02584 11
308 1 -4.77805 10.1317 9.57538 19
309 1 -1.38249 6.36161 9.75579 17
310 1 9.19776 0.663827 11.7501 20
311 1 -9.55953 -3.9221 8.86474 23
312 1 3.0351 -13.3823 14.4931 12
313 1 -7.61731 7.60757 11.0729 15
314 1 1.02371 -8.92809 -13.4149 12
315 1 10.697 8.6728 0.893391 11
316 1 3.79139 -12.2165 2.85593 20
317 1 -5.17707 -10.6907 21.2667 8
318 1 -15.7361 -8.88915 10.4506 15
319 1 1.60324 -18.0547 -4.15147 16
320 1 -8.92814 3.51095 19.0063 16
321 1 -14.1124 1.06066 16.5006 11
322 1 -16.9097 -2.38058 11.4594 14
323 1 -11.5363 -11.5159 8.08714 17
324 1 11.4565 -9.80208 3.65571 11
325 1 -11.7188 -10.8905 17.1704 13
326 1 2.46782 -3.70487 -6.8231 16
327 1 8.80333 -16.9997 -2.96248 9
328 1 2.53208 11.8649 -2.1446 14
329 1 -7.14599 7.34977 -0.505433 17
330 1 0.522815 4.07103 12.1385 19
331 1 -14.1024 -7.40028 8.58511 20
332 1 1.97585 -11.4772 0.635682 21
333 1 -4.81714 10.1458 3.49862 22
334 1 -8.66543 1.74379 8.91232 20
335 1 0.327707 -12.9815 14.2357 17
336 1 9.12949 -9.38538 5.91297 20
337 1 -11.404 4.05182 10.285 21
338 1 -9.10424 -5.82223 -4.07195 19
339 1 -5.22636 8.56886 12.6798 23
340 1 -3.92878 14.571 12.379 11
341 1 2.45301 3.22258 20.5379 20
342 1 -10.3227 12.8261 -2.31531 15
343 1 -0.793671 -14.4552 -12.5183 10
344 1 -9.54274 -2.75754 0.160473 17
345 1 4.80456 -12.3672 -9.91323 12
346 1 -7.79696 0.666837 18.2084 18
347 1 -14.4793 3.46069 10.4461 17
348 1 -6.49312 -6.59119 -2.27014 21
349 1 -12.8578 12.3797 2.38588 13
350 1 7.301 -6.64437 8.12315 20
351 1 -11.374 -14.5628 9.05935 17
352 1 1.88353 -7.79881 14.8031 19
353 1 -9.0052 -19.5161 16.1651 6
354 1 -15.9879 4.413 2.09398 13
355 1 -2.66955 -9.81741 19.2317 15
356 1 -2.16988 -18.0147 -1.38207 19
357 1 -6.3284 -10.1708 -7.95212 18
358 1 8.05484 -7.77418 -7.62801 15
359 1 -1.5514 9.35242 4.74682 20
360 1 -14.5076 -4.62053 2.38954 17
361 1 -1.81298 -8.94259 -3.79513 20
362 1 6.93037 -1.35589 -5.75824 21
363 1 -5.17485 -15.7692 2.10502 20
364 1 -13.8028 -9.02298 -1.38962 18
365 1 -3.63349 -14.6748 6.70651 22
366 1 -0.949507 4.0072 19.788 18
367 1 11.4264 1.21223 5.12924 12
368 1 -13.74 1.87475 -7.28095 14
369 1 -4.0354 12.4959 1.99217 20
370 1 -13.2677 1.69674 -2.41925 19
371 1 -14.5812 7.93555 6.8632 12
372 1 -6.43225 8.76937 7.35493 18
373 1 -12.3587 1.35525 8.86209 16
374 1 6.66075 7.83288 17.914 22
375 1 8.74756 -10.6714 -0.692939 13
376 1 2.41881 -10.3217 16.2177 17
377 1 6.88167 -2.13073 1.08939 22
378 1 -8.55409 -18.5754 -1.47627 11
379 1 -7.25389 4.55894 4.05218 21
380 1 -5.43788 -13.7682 -0.316263 22
381 1 -3.46986 4.11168 8.34038 18
382 1 -10.1608 0.339922 -2.08281 21
383 1 2.0671 -15.0761 1.75962 21
384 1 9.40724 -4.3511 15.6295 6
385 1 -12.7299 -12.4532 1.09254 19
386 1 -9.78218 -12.652 2.66495 22
387 1 -14.9121 -6.70969 13.2168 13
388 1 -5.24013 9.09282 1.11562 19
389 1 -11.1253 -15.3936 -0.242874 21
390 1 2.00147 5.66349 14.8181 20
391 1 -10.0147 7.73906 -1.3013 18
392 1 -1.5085 8.96354 -4.36026 19
393 1 -2.13823 9.38837 10.6577 20
394 1 -16.3347 -9.27928 -0.717802 15
395 1 -2.81992 -12.1696 -1.89815 21
396 1 -16.4789 -1.90915 5.80754 15
397 1 -15.8163 2.58129 5.18216 17
398 1 -4.17796 -14.941 11.2364 22
399 1 -10.8653 -13.976 5.78517 19
400 1 8.76663 6.99457 19.6497 12
401 1 0.149406 1.28597 -9.91118 21
402 1 -10.4884 4.12609 -10.6021 14
403 1 -5.71627 9.68723 -6.49432 15
404 1 -11.0439 3.56492 -2.37387 16
405 1 1.20587 -16.1464 12.6505 11
406 1 11.2624 -0.666177 12.7104 12
407 1 -2.70973 4.94644 -9.19751 24
408 1 -8.21365 -5.01366 15.2167 21
409 1 -18.3683 -1.29384 -1.72082 12
410 1 -12.2762 3.95476 15.7887 15
411 1 -5.98349 -12.5338 8.72948 23
412 1 0.0460623 -6.33807 -1.52647 22
413 1 2.99926 -9.26806 -4.74235 18
414 1 -4.64371 -4.64997 13.679 18
415 1 -17.899 -5.41452 1.98587 17
416 1 -11.9063 -2.80604 16.4798 17
417 1 -10.432 5.5795 13.1464 15
418 1 -3.29524 -5.03674 10.7532 20
419 1 -12.4652 1.4142 -12.9517 9
420 1 4.93336 -8.82668 -2.23791 18
421 1 -3.22991 -7.70721 -6.55853 21
422 1 -7.62349 -8.56301 15.5267 20
423 1 0.232736 -13.1792 -1.66026 20
424 1 -6.30301 -6.59797 -8.04772 21
425 1 0.10252 -16.3229 -0.71545 17
426 1 0.62876 6.78434 -3.79445 15
427 1 -13.8639 11.3078 5.97618 12
428 1 -5.47405 -7.98695 19.2701 16
429 1 -14.3628 -3.54058 -10.2321 10
430 1 -12.9259 -10.5613 13.6751 14
431 1 7.34278 -9.71223 12.427 12
432 1 6.23665 0.927401 11.4277 22
433 1 -2.63539 -5.13853 -5.05676 21
434 1 5.7278 -12.0806 11.4423 14
435 1 9.86092 -2.00324 6.43598 19
436 1 -9.76714 2.8067 16.5391 19
437 1 0.334971 12.5503 5.21558 19
438 1 1.08097 -9.34335 9.63724 17
439 1 -3.43317 -17.2508 -4.57539 17
440 1 -6.19964 3.29533 23.95 9
441 1 -0.943602 14.5568 13.6547 12
442 1 -12.0293 -15.8864 -5.11194 11
443 1 8.3827 8.77493 3.41615 20
444 1 0.393287 13.4342 16.6734 10
445 1 -10.7876 5.73502 18.1959 14
446 1 -11.7418 -7.42902 -2.85698 15
447 1 -15.6128 -4.02461 14.1913 13
448 1 -12.7854 -15.4359 2.64141 17
449 1 -12.0737 13.0179 8.70766 13
450 1 -7.5331 -11.0938 0.0685669 19
451 1 -14.3557 -10.5088 -6.7111 12
452 1 -5.66436 -17.0244 5.57139 20
453 1 -7.31072 -9.64867 12.5376 20
454 1 -0.122669 -5.32301 10.6276 19
455 1 -14.32 -3.00611 11.2014 18
456 1 -10.8953 3.45324 -7.64711 16
457 1 6.76076 -0.27557 3.61411 25
458 1 -5.90174 -13.2679 3.16854 17
459 1 -1.7572 2.26645 -1.40189 21
460 1 -0.871614 15.1332 6.97956 14
461 1 -5.14051 2.14426 -1.2096 19
462 1 -0.777725 4.80486 16.7804 19
463 1 -18.9128 -7.40263 0.059337 11
464 1 -1.03391 11.8086 -4.58617 14
465 1 3.53958 8.17213 -6.42159 13
466 1 -13.4354 -7.75993 -8.01395 13
467 1 -2.17337 -4.43888 22.2961 8
468 1 -2.54697 -14.7551 -9.93336 14
469 1 -4.60556 -6.87747 -10.5017 17
470 1 8.36679 -15.8867 0.848883 13
471 1 -14.7823 4.87473 7.81404 16
472 1 -0.166792 -1.82738 20.4249 19
473 1 6.42676 5.5607 2.71817 18
474 1 -0.603736 5.09391 3.76584 20
475 1 -7.95443 0.578365 -5.92009 20
476 1 2.08568 -3.85261 -1.67725 20
477 1 -1.36892 -13.4539 0.600434 20
478 1 -16.968 -0.244548 3.67235 15
479 1 -9.1043 12.2847 5.90657 22
480 1 -11.4087 -1.56562 -14.0673 9
481 1 6.78745 3.7099 5.66434 21
482 1 1.83142 10.8662 2.43323 22
483 1 4.02198 -6.5739 3.67619 19
484 1 10.0989 4.07135 5.48893 19
485 1 -8.82685 -5.09378 -10.167 20
486 1 -1.65293 -12.1641 5.62114 21
487 1 5.74721 -17.5984 7.15612 10
488 1 -0.761098 -14.5115 16.2655 10
489 1 -5.5251 3.12998 -10.0733 19
490 1 -11.5006 -16.6566 15.8637 8
491 1 -6.27543 -14.9785 -9.6827 14
492 1 5.88116 10.3204 9.23794 16
493 1 -2.27288 -1.28826 -9.97289 19
494 1 -5.10326 1.43275 22.4187 16
495 1 -18.7775 -4.35734 9.23954 10
496 1 -3.34417 -21.9824 3.3252 11
497 1 -18.1065 -7.48604 4.08892 10
498 1 7.70587 -11.002 -6.17358 14
499 1 6.00993 -5.76141 -2.57918 19
500 1 -8.98741 4.86167 0.135924 15
501 1 -0.679844 -12.0097 -9.35758 20
502 1 2.3895 -0.68473 -8.79618 19
503 1 2.62162 -5.72887 -4.76224 16
504 1 -3.13785 -8.56714 21.8048 8
505 1 4.16469 13.6784 0.574519 9
506 1 -9.64691 -9.62765 -8.24686 21
507 1 2.22988 1.73465 -11.7972 17
508 1 -9.04149 -4.5862 12.4627 19
509 1 -7.01373 16.3234 6.26853 10
510 1 -11.5687 -5.44088 -5.82787 17
511 1 -17.7044 1.3715 0.591399 12
512 1 -7.51902 -8.48363 -10.5927 21
513 1 -7.27086 -13.0193 19.5656 10
514 1 -3.15749 4.56091 -3.22448 21
515 1 12.4395 1.58208 10.5385 12
516 1 8.37946 1.31649 5.69327 17
517 1 -10.0625 -16.303 3.27763 13
518 1 -3.3603 -13.1722 2.8951 22
519 1 -7.91504 -2.60906 -13.1337 15
520 1 -7.05705 11.2622 15.1968 12
521 1 -0.496307 -4.05936 -11.352 19
522 1 -0.350552 2.95443 0.851641 21
523 1 6.49395 -2.2026 6.42056 21
524 1 4.47545 9.82521 -3.65405 13
525 1 1.68208 -9.57248 3.3686 22
526 1 8.4894 0.437628 0.903999 20
527 1 0.252035 7.37965 19.0592 17
528 1 -10.7844 -0.183979 17.976 16
529 1 8.44823 6.02388 10.7532 22
530 1 1.5934 -6.76437 17.3661 15
531 1 -9.44591 0.607682 -13.4372 10
532 1 -10.1129 -8.90111 2.14998 21
533 1 -3.63314 -8.55909 16.3052 21
534 1 5.49684 8.1253 11.1479 16
535 1 0.415317 4.38314 -11.1792 19
536 1 -11.6416 9.91233 -3.58216 15
537 1 -0.776159 11.2779 2.68325 19
538 1 4.47842 -10.6081 14.0546 16
539 1 6.37525 -3.36468 -11.1389 12
540 1 5.52134 -10.6364 -0.00597194 17
541 1 7.51692 5.24432 7.97477 20
542 1 -13.8439 -14.177 7.36591 15
543 1 -4.66241 7.97491 -10.2096 11
544 1 -4.84445 -3.06536 16.2412 18
545 1 -14.4112 -1.01508 13.72 16
546 1 -4.12579 12.2557 -5.0407 10
547 1 1.69676 -20.1767 -1.17855 9
548 1 1.20299 -0.102427 -4.53223 19
549 1 -8.41963 13.7067 0.340355 18
550 1 -15.9004 -9.14195 -3.99307 12
551 1 4.97279 -19.3926 5.26176 11
552 1 -14.735 -7.03061 1.46974 16
553 1 -0.734891 11.6776 -1.3504 17
554 1 -10.288 6.65357 -5.09439 18
555 1 -0.145406 9.16155 21.6567 12
556 1 -7.98568 -12.2964 12.6292 19
557 1 4.91673 1.87125 -1.88908 19
558 1 -0.322057 -9.37511 -7.20397 24
559 1 -3.5905 -7.56966 13.1204 20
560 1 3.40616 -0.598538 -2.83402 16
561 1 -8.24215 6.14611 -2.93014 20
562 1 4.53607 0.880867 21.1366 13
563 1 4.52771 10.5921 -0.222725 18
564 1 6.44465 -8.00892 -0.0431937 22
565 1 1.79178 10.6102 16.6365 22
566 1 -3.05349 -1.98605 -7.11811 22
567 1 -6.85674 -15.6659 15.5696 16
568 1 -4.68726 -3.12721 -3.29744 18
569 1 -2.12664 -8.60888 -13.9681 11
570 1 -5.6462 13.3116 10.0134 17
571 1 8.58179 1.17274 -4.94963 19
572 1 -4.80159 -7.86064 -3.98888 17
573 1 -13.2854 -17.5554 0.046742 11
574 1 -15.0659 -6.09037 -5.33647 14
575 1 7.49196 -0.0769686 8.45184 21
576 1 8.201 9.5379 6.40697 12
577 1 -0.00671057 -5.98348 -6.77309 19
578 1 10.1011 7.66577 15.9754 12
579 1 3.28801 -12.5373 -1.84348 16
580 1 7.93487 1.61122 -7.65771 20
581 1 5.25083 11.4572 2.63972 17
582 1 -12.3732 -3.21817 8.57691 16
583 1 4.2221 4.46565 21.9721 17
584 1 7.84737 6.51016 0.851888 23
585 1 10.5041 1.0354 7.90096 16
586 1 9.54223 4.96542 -4.02441 15
587 1 6.17807 -2.83428 18.6738 11
588 1 8.38361 -2.48731 12.954 17
589 1 -1.22993 -9.98919 13.8566 20
590 1 6.06576 7.95548 -1.62237 18
591 1 -2.84519 -3.00904 19.0427 20
592 1 8.54609 3.09032 2.78558 21
593 1 7.48058 2.02985 17.5329 18
594 1 -11.1339 0.892215 -4.51625 21
595 1 7.58751 -2.06105 10.1418 20
596 1 5.12637 -5.459 6.4197 22
597 1 -16.1519 0.495074 11.2911 16
598 1 3.34485 13.2458 17.7346 11
599 1 6.8766 4.31698 19.3764 23
600 1 2.31055 13.3138 14.1916 14
601 1 -5.55261 8.34191 18.2961 16
602 1 3.22095 0.0319015 12.6079 17
603 1 -5.46032 -22.4493 11.2028 8
604 1 -5.68301 8.51979 -3.03899 17
605 1 9.05782 4.334 -11.2221 5
606 1 2.92325 -3.55436 -12.3062 13
607 1 -5.89916 13.6408 5.01914 18
608 1 -3.20075 -10.7953 -6.50443 18
609 1 11.0927 -9.50815 -7.36981 7
610 1 -13.6632 -4.6861 4.99321 15
611 1 -8.92353 3.41059 -5.16673 19
612 1 -0.490226 -22.0203 6.91632 8
613 1 -10.7145 -0.623008 -7.30285 20
614 1 -13.4719 -3.09845 -0.0902278 20
615 1 8.74252 -6.73978 11.5861 16
616 1 5.69223 9.86046 5.0043 19
617 1 0.338677 -12.0478 9.21434 18
618 1 -14.5343 -4.10128 -3.34384 16
619 1 -0.935312 0.485162 -13.253 16
620 1 -9.41496 3.87469 22.6213 8
621 1 3.70363 5.14323 -9.32649 14
622 1 3.95982 -3.55925 17.7701 16
623 1 8.19821 2.52012 -2.41837 21
624 1 6.2541 8.05164 7.97404 17
625 1 -3.08142 -15.0269 -1.81461 21
626 1 -7.66063 -1.49858 20.7289 13
627 1 11.5401 -1.52519 9.69619 12
628 1 -6.72285 4.5527 21.3255 17
629 1 1.41246 9.97298 -3.80811 17
630 1 -8.47532 8.98214 2.74997 20
631 1 6.10344 3.84749 10.7923 17
632 1 -10.4039 -17.7873 1.05073 14
633 1 11.8051 -4.74626 6.55992 12
634 1 1.10728 15.1046 8.84526 9
635 1 -5.50613 0.818037 15.5775 20
636 1 -14.6742 -10.3884 4.62838 20
637 1 -10.1929 -1.57283 -4.35652 17
638 1 4.29281 -5.33916 14.7743 20
639 1 -7.8922 -10.0598 17.7122 21
640 1 7.23335 1.98229 22.4492 10
641 1 -7.64195 11.1205 8.67203 19
642 1 7.94502 3.34518 13.0281 21
643 1 4.88644 2.23348 8.38972 20
644 1 -6.39132 -5.30561 -12.1995 15
645 1 -15.2139 -4.08068 7.90859 20
646 1 2.71401 4.98953 -12.8837 10
647 1 -5.47081 -8.92768 -1.15101 22
648 1 7.64592 -13.9119 -1.08812 16
649 1 -0.046626 0.935512 19.3535 19
650 1 1.83989 1.61618 7.50852 21
651 1 -7.78828 -6.89945 18.5034 17
652 1 3.42093 2.78321 11.6776 21
653 1 -1.49312 -2.14315 23.6741 12
654 1 1.94045 3.33083 17.7709 17
655 1 -3.51742 -9.88459 -9.4657 17
656 1 -10.7321 7.78266 15.6947 16
657 1 0.119647 -1.6704 17.236 16
658 1 -8.96869 -16.8222 10.2996 15
659 1 10.7665 7.42793 5.62997 11
660 1 8.29651 -14.3658 -4.61636 12
661 1 -6.64877 -0.634569 -3.09167 19
662 1 6.71849 3.25814 0.438872 22
663 1 8.33272 6.52364 4.8354 18
664 1 -0.315924 -2.8136 -8.43174 23
665 1 -8.2255 -0.652366 11.7653 15
666 1 -1.14741 7.45527 -1.5912 18
667 1 10.6621 5.73911 2.53875 14
668 1 -11.0315 -10.7608 4.02089 22
669 1 -4.89034 -9.47212 -12.2306 13
670 1 -10.7984 11.1551 7.2666 22
671 1 6.15911 -8.26096 -5.20933 20
672 1 3.33393 3.32434 5.18723 20
673 1 12.1429 -2.37881 -1.68886 8
674 1 3.47127 10.4143 7.68676 16
675 1 -6.56713 4.62845 9.07769 19
676 1 -9.09351 3.89451 6.45479 20
677 1 3.32513 2.60723 -4.39634 23
678 1 6.55461 5.34574 22.1734 12
679 1 4.31941 -7.77365 16.3331 12
680 1 -4.23397 -14.218 17.177 11
681 1 -5.07495 5.54613 -7.63173 20
682 1 0.740018 10.8178 13.5656 18
683 1 4.31407 -10.9596 -12.8441 11
684 1 -2.73112 -0.0679533 18.3168 18
685 1 6.27514 7.03037 -4.65302 14
686 1 3.39244 7.51524 9.11281 17
687 1 10.3331 -7.58378 0.618149 14
688 1 -4.22398 -1.49045 24.1302 10
689 1 -16.7755 -9.17579 6.06824 12
690 1 -4.41039 -19.8875 5.63994 18
691 1 -3.45049 -5.6869 -2.29956 20
692 1 -10.3046 11.6406 1.22481 18
693 1 -6.74465 -3.32426 13.2422 20
694 1 -0.170646 -8.17505 1.08657 20
695 1 0.656647 8.71955 7.15914 18
696 1 -19.8506 -3.94323 0.499174 9
697 1 -2.80889 7.01717 16.6338 19
698 1 -4.27241 0.354553 -11.9621 17
699 1 -4.89514 5.39733 -11.587 17
700 1 -3.25016 -20.1892 -3.18392 9
701 1 6.28205 5.16106 -2.37985 23
702 1 0.00838892 -12.1782 3.15165 22
703 1 -6.57729 2.85291 7.13673 20
704 1 -16.3238 -1.46964 8.5413 18
705 1 -0.264693 -6.20479 -14.203 11
706 1 4.90928 -13.1638 5.98699 18
707 1 -5.6809 15.0536 2.25697 13
708 1 -9.99862 -5.84832 20.373 9
709 1 -12.0578 -10.914 -3.38222 18
710 1 -9.84367 -10.8574 -11.3486 16
711 1 -8.55885 -15.3852 -2.19246 21
712 1 -7.12205 12.6948 -2.48251 14
713 1 -1.47442 -6.54233 -9.14366 20
714 1 -2.39812 9.42647 13.647 22
715 1 9.75673 -12.6826 1.09538 10
716 1 6.30855 -18.3898 2.32492 12
717 1 2.49856 -12.7627 11.8586 18
718 1 9.60363 -1.20975 -3.5299 18
719 1 1.25342 -18.0145 -7.58337 11
720 1 -15.5805 1.48407 7.98657 18
721 1 2.29296 -19.1948 6.16527 13
722 1 -11.3038 -16.7652 -2.7152 14
723 1 -13.0877 -4.59713 18.778 13
724 1 -6.52038 -21.4702 7.77678 11
725 1 9.49086 4.43987 -0.327836 17
726 1 -8.73391 14.2873 8.1652 16
727 1 -11.635 -2.14847 11.1285 18
728 1 -7.98371 3.77479 11.4079 17
729 1 5.65326 -3.41932 8.52002 22
730 1 -16.2615 -3.12171 -6.94137 13
731 1 -5.50853 5.99656 1.65839 20
732 1 7.19671 -0.0915493 -10.6714 10
733 1 3.32552 7.54617 17.2287 20
734 1 10.9605 2.20012 -8.91338 6
735 1 -15.4744 4.69202 -6.19346 11
736 1 -14.9268 -12.0884 -1.76966 18
737 1 -5.24268 7.3469 21.4787 11
738 1 5.25152 1.15577 -6.16969 17
739 1 8.57323 8.67195 10.1753 15
740 1 -10.6385 0.139485 14.8576 17
741 1 -2.0355 -24.6684 4.75944 5
742 1 -6.02907 -18.175 8.29751 18
743 1 -4.62887 -13.8511 14.1095 22
744 1 9.13185 5.07053 17.4352 17
745 1 -2.52593 -9.0146 -1.17519 21
746 1 -8.19665 6.90135 6.09638 20
747 1 3.22931 5.23424 3.48651 20
748 1 -13.7478 -7.37968 4.72786 19
749 1 6.47376 4.40379 -9.42977 10
750 1 1.33753 -15.3213 -5.88844 18
751 1 0.0115719 -20.6682 -3.14697 11
752 1 4.80752 -17.8136 -2.73679 14
753 1 3.65402 -1.0259 -5.73104 18
754 1 -2.16379 9.58352 0.674359 19
755 1 -5.93895 -0.559134 -8.53896 21
756 1 -3.85747 -5.72769 19.5109 17
757 1 -5.64658 -1.9815 -11.1774 17
758 1 -10.0534 -6.89997 -7.98396 20
759 1 -15.9506 -0.860145 -5.08036 15
760 1 -3.21752 9.29656 -7.34453 15
761 1 2.80406 -2.38915 14.7417 16
762 1 -7.41361 -7.79401 -5.65539 21
763 1 -11.8889 -5.89834 7.22241 20
764 1 10.3463 -0.213309 -6.84844 14
765 1 8.73888 -7.41693 -1.77706 16
766 1 -8.126 9.34622 17.0674 17
767 1 6.4431 -10.6979 8.04038 21
768 1 10.0999 -6.80048 3.8881 16
769 1 10.9512 -6.73893 9.49847 13
770 1 -2.75672 8.61467 7.80234 20
771 1 -9.72075 1.20045 21.7827 9
772 1 -7.8841 5.94841 17.1938 21
773 1 -1.45736 -17.6079 10.6323 16
774 1 4.97577 0.851389 6.24706 23
775 1 -0.0707652 7.63333 12.5211 19
776 1 -17.139 -2.30575 0.971436 17
777 1 4.41988 -9.00226 2.88859 23
778 1 -11.8468 10.8244 -0.78657 17
779 1 1.10152 4.47656 9.22585 18
780 1 6.44182 -14.6743 8.71519 13
781 1 -1.01559 -4.42066 17.5913 19
782 1 -2.52235 12.1666 5.3554 18
783 1 -2.42387 -9.97717 10.8372 18
784 1 -13.6961 -1.70575 3.05289 18
785 1 1.93148 2.67775 15.1103 20
786 1 -16.0025 -6.74585 -2.59683 16
787 1 -0.287543 10.4784 18.8478 13
788 1 3.62995 12.9096 10.0744 10
789 1 -14.1109 -15.7675 10.7558 9
790 1 -3.20347 -20.8266 9.17186 15
791 1 6.82255 -4.84416 11.1176 20
792 1 11.2522 -7.65929 6.67279 12
793 1 2.44388 5.79667 11.2413 17
794 1 -6.33453 7.33545 4.30198 20
795 1 -0.706359 -15.3272 -3.56306 20
796 1 -11.928 -1.55378 -10.8916 17
797 1 -7.40608 -2.04095 16.8077 20
798 1 -9.60495 15.5983 5.02816 13
799 1 10.3001 -3.93873 11.7936 17
800 1 0.102376 4.68598 -2.05801 21
801 1 -5.52821 5.28367 18.7226 21
802 1 4.5474 2.73863 17.2692 18
803 1 4.78058 -6.49294 -8.18305 18
804 1 -8.44584 -11.7109 6.29685 22
805 1 -8.7483 -4.8051 -7.0002 19
806 1 8.26956 0.222664 14.7372 17
807 1 5.09222 1.87935 -9.82606 16
808 1 -2.82539 -0.412656 21.4906 19
809 1 7.61728 -15.1533 3.59574 15
810 1 1.63148 2.46714 -14.5446 8
811 1 -4.56656 -11.4878 0.62991 20
812 1 7.82988 -2.05309 -8.3399 17
813 1 10.5646 -0.0199025 2.55488 12
814 1 -1.62325 -14.4523 9.77583 17
815 1 -11.444 -12.1321 -5.57892 14
816 1 3.54418 12.6887 4.82941 17
817 1 -8.15103 -9.48306 9.12809 21
818 1 -13.9692 -0.21845 5.90132 17
819 1 8.70405 -3.39205 3.00726 18
820 1 11.6963 7.90635 9.48863 10
821 1 -3.11245 -5.21561 -14.1257 11
822 1 -7.26438 10.5469 11.6468 17
823 1 10.9683 2.80098 12.857 12
824 1 8.6368 7.71228 -2.04993 14
825 1 -3.18407 -4.22907 -11.1546 17
826 1 8.60664 -4.94672 5.53152 19
827 1 -11.6122 5.64221 6.83749 20
828 1 9.53944 8.9434 13.1555 14
829 1 -15.9154 -12.5879 9.92267 12
830 1 -7.64382 5.43893 -11.4061 14
831 1 -0.25233 -4.96501 13.7526 16
832 1 -11.5069 -6.02792 0.538532 16
833 1 -12.8276 1.03872 11.804 17
834 1 -4.79316 0.732909 -6.00549 17
835 1 7.8505 -3.45232 -3.05682 19
836 1 -14.94 -15.3071 -2.46522 12
837 1 9.60313 -12.5341 3.88568 14
838 1 -13.2196 4.68782 2.89095 18
839 1 -13.1909 -9.81592 1.6925 20
840 1 4.6373 8.13703 15.069 20
841 1 -7.16284 -14.9835 11.8199 21
842 1 1.12323 0.30845 22.0853 15
843 1 7.03267 -5.92782 14.2845 15
844 1 6.69921 -8.33193 5.79061 22
845 1 -8.04026 0.233907 14.2362 20
846 1 2.17471 8.32796 13.8625 18
847 1 0.0365572 3.00072 -4.90879 20
848 1 -6.47897 -11.2916 -10.5323 21
849 1 -7.42837 15.1881 11.2986 5
850 1 -9.90731 -13.7402 15.1733 18
851 1 2.1878 14.2084 2.85885 14
852 1 -3.61399 11.7884 18.3499 11
853 1 11.4074 -5.35212 -1.01629 10
854 1 -6.473 -19.7167 13.2578 13
855 1 -9.40543 9.01569 -6.85349 12
856 1 4.73292 4.99663 -6.38773 14
857 1 -9.81332 -10.508 14.9897 21
858 1 10.0354 5.48856 13.8835 15
859 1 -6.33184 -13.5158 -6.0887 19
860 1 6.85017 12.4831 4.97417 8
861 1 -12.4111 4.43404 -4.92586 19
862 1 -1.78821 -15.4429 13.0478 14
863 1 1.63487 7.40605 -11.0173 8
864 1 1.52244 -10.1526 12.9459 21
865 1 -1.75463 -21.0591 -0.0238864 10
866 1 -10.8437 15.9917 7.50772 9
867 1 -15.0586 2.55915 -4.41026 15
868 1 9.36809 -3.31788 -6.40642 15
869 1 3.49205 -15.08 -8.74867 14
870 1 -10.9946 3.59779 4.38844 19