ITEM: TIMESTEP
34000
ITEM: NUMBER OF ATOMS
5760
ITEM: BOX BOUNDS pp pp pp
-0.182517363 32.982517363
-0.3184286628 34.4584286628
0.6643056412 62.9356943588
ITEM: ATOMS id type x y z Coordination
1 1 31.2612 5.62466 6.88554 22
2 1 0.605407 6.44928 3.135 20
3 1 32.5135 0.988451 2.26027 23
4 1 31.3021 2.42906 0.881193 19
5 1 7.58913 28.218 3.13905 22
6 1 8.69555 33.3451 12.3416 24
7 1 5.68799 28.0194 12.3724 20
8 1 7.39826 5.66867 17.1437 21
9 1 2.91615 2.23101 13.2511 24
10 1 25.3848 5.55487 5.8012 20
11 1 -0.0951948 33.704 8.21918 21
12 1 8.31135 27.3454 21.0508 18
13 1 4.42196 4.7266 5.39257 20
14 1 1.21554 8.14101 0.726235 21
15 1 5.16191 11.9568 6.40822 19
16 1 2.04303 12.9374 4.00083 20
17 1 5.02135 3.09001 11.1004 20
18 1 1.02746 4.0016 11.6945 24
19 1 29.1521 14.2948 4.33846 19
20 1 23.8557 9.81269 15.4646 24
21 1 2.61776 8.9575 17.7179 24
22 1 1.24563 -0.0100922 18.2499 21
23 1 -0.10363 0.111195 24.97 20
24 1 2.24271 11.9197 18.5007 20
25 1 -0.0168902 22.7805 4.3137 22
26 1 4.37333 14.5632 5.21485 23
27 1 1.2995 11.1597 12.5526 21
28 1 1.58501 16.0686 1.96226 22
29 1 1.64535 14.2021 13.3116 21
30 1 6.79506 7.86416 5.74531 22
31 1 2.71458 6.20377 13.4027 20
32 1 32.2364 14.0452 15.8473 21
33 1 31.1913 31.2448 4.00262 20
34 1 4.54797 19.8279 23.9932 19
35 1 4.20223 11.3521 11.6079 20
36 1 4.43612 23.3125 11.2788 21
37 1 10.165 0.63346 1.84438 18
38 1 7.88103 2.82596 1.12127 22
39 1 14.4087 3.89582 1.12564 22
40 1 2.02412 0.665632 4.08974 20
41 1 13.7048 29.5586 9.87839 20
42 1 2.25747 3.70107 4.75593 22
43 1 5.16738 1.74028 5.23283 23
44 1 8.12269 31.5914 0.854246 20
45 1 1.80654 0.944935 7.3009 22
46 1 3.98585 25.2957 12.8869 24
47 1 7.49576 30.69 14.5514 21
48 1 2.68878 17.9952 12.6116 21
49 1 2.9327 10.9419 1.70531 23
50 1 5.01262 8.30335 1.36101 22
51 1 1.88231 9.69751 9.37304 18
52 1 22.7179 4.62336 3.38692 24
53 1 29.3916 10.7753 12.4585 24
54 1 1.31562 20.7106 11.2999 21
55 1 17.9693 30.2817 14.986 20
56 1 7.75787 0.369021 9.67114 23
57 1 3.83397 8.50264 10.8779 22
58 1 5.10815 12.4677 23.6178 21
59 1 9.09345 14.0192 19.2318 23
60 1 32.8201 12.0327 30.4643 22
61 1 4.1871 15.3526 61.4608 22
62 1 0.344696 13.1836 1.65629 22
63 1 1.22758 15.3157 5.14165 20
64 1 3.23112 7.26871 7.15482 18
65 1 32.8703 17.6753 3.95545 22
66 1 6.71884 20.425 10.6869 22
67 1 25.4673 3.05378 7.52948 20
68 1 3.75408 22.7736 14.4083 18
69 1 3.3187 18.3981 5.00787 21
70 1 0.188555 17.1506 12.4274 22
71 1 6.70761 10.4068 10.7393 20
72 1 32.2226 12.8484 5.61277 23
73 1 6.34308 4.6966 62.805 23
74 1 11.3288 3.59089 1.78985 23
75 1 16.6181 7.02646 8.35678 22
76 1 14.0875 4.38712 12.0824 19
77 1 8.50755 1.96152 6.64755 23
78 1 1.45385 6.76791 9.27221 20
79 1 13.634 29.9281 13.7426 15
80 1 2.8901 34.1117 1.76901 21
81 1 5.36095 5.35397 18.8991 21
82 1 7.63561 10.679 7.26601 22
83 1 10.0733 29.632 7.64899 18
84 1 15.9321 10.8701 13.8739 20
85 1 4.76572 11.8057 61.3679 23
86 1 7.7614 8.30042 62.7912 21
87 1 10.6824 32.0599 10.7513 20
88 1 11.5085 5.47193 9.06995 19
89 1 7.07867 18.7069 8.05278 24
90 1 20.6238 7.04678 7.48475 22
91 1 11.9488 27.9811 7.58684 19
92 1 5.27458 2.29766 8.71067 23
93 1 29.9069 9.47599 7.53759 20
94 1 10.8641 0.336082 7.57867 23
95 1 5.43622 5.87176 21.4057 21
96 1 6.79291 13.9822 11.3531 19
97 1 2.13676 20.1167 7.9863 22
98 1 6.10052 3.69504 3.55052 21
99 1 10.9784 9.21931 1.31751 20
100 1 32.5083 8.74589 5.53184 22
101 1 1.09228 6.38183 5.94277 22
102 1 11.6323 8.83909 3.49972 21
103 1 30.7667 14.3178 8.50583 19
104 1 9.29238 12.8027 13.693 21
105 1 4.78362 20.7328 6.78783 20
106 1 0.497971 10.4483 4.16027 21
107 1 12.7411 9.90005 14.317 21
108 1 31.604 16.6845 26.8001 24
109 1 14.1469 7.0383 3.44633 20
110 1 16.2848 1.87439 1.76236 22
111 1 16.4035 2.90405 8.25129 18
112 1 11.7736 8.33303 9.56517 22
113 1 4.77907 7.3047 4.03201 19
114 1 9.27972 31.1908 3.03502 21
115 1 21.4931 30.1938 6.21438 23
116 1 21.0415 14.6995 15.0133 17
117 1 6.48522 33.6121 13.9542 16
118 1 12.828 1.72385 12.9561 20
119 1 10.5591 27.5156 4.04543 19
120 1 0.457399 29.2805 21.9564 22
121 1 8.38268 8.85013 4.1782 22
122 1 9.36422 5.5787 0.780625 21
123 1 16.4288 -0.236585 7.48714 21
124 1 12.3983 11.4859 9.13545 23
125 1 8.41375 15.6275 9.67775 25
126 1 17.2405 9.65795 3.50687 24
127 1 14.7103 18.7271 4.63562 19
128 1 32.108 11.6513 14.1826 23
129 1 11.0674 6.04019 3.71259 24
130 1 21.7826 0.081651 10.8112 21
131 1 16.6277 32.9757 10.6036 21
132 1 7.93742 0.0181552 17.8929 21
133 1 6.33323 12.6209 8.90348 18
134 1 9.84359 17.0862 62.6818 20
135 1 17.9114 10.3852 8.67071 23
136 1 9.78972 20.9261 60.4943 20
137 1 19.2306 23.6772 11.3294 17
138 1 13.8461 13.8125 10.8223 23
139 1 11.9446 11.9226 4.14982 19
140 1 26.6092 9.26977 6.64394 18
141 1 7.87571 18.8777 19.2208 25
142 1 21.2264 23.2508 9.73278 21
143 1 12.9218 9.81644 6.24662 21
144 1 15.9502 12.9195 16.9046 19
145 1 12.8467 6.57991 62.944 22
146 1 16.9583 5.89414 0.903652 22
147 1 15.4602 8.51127 5.64141 22
148 1 15.3364 8.55835 62.7602 20
149 1 9.85307 6.75657 6.12395 21
150 1 18.3981 8.14937 6.24942 21
151 1 20.9736 1.96894 16.796 23
152 1 13.0226 32.8224 2.41498 22
153 1 12.9174 0.492142 18.5178 21
154 1 17.2125 1.26512 11.0792 20
155 1 17.6598 5.18401 6.68133 23
156 1 15.4811 2.70492 20.0864 23
157 1 12.7043 11.8543 1.03085 21
158 1 19.9089 14.5361 3.88013 23
159 1 18.1729 15.4214 10.9174 21
160 1 15.6293 16.7918 1.83401 21
161 1 11.86 18.313 11.9506 23
162 1 9.6929 8.88276 7.72126 24
163 1 7.42655 6.28276 2.98524 22
164 1 10.4833 4.90995 12.096 26
165 1 6.95349 21.3863 5.44225 23
166 1 15.1086 1.37029 5.29498 21
167 1 21.0563 6.90185 23.0266 23
168 1 9.89983 25.4824 15.1043 22
169 1 13.4529 15.3398 3.82968 21
170 1 16.5931 15.0882 9.05759 22
171 1 5.75671 16.8189 11.1281 21
172 1 11.7987 14.2249 1.74731 22
173 1 14.1982 19.0188 11.0856 21
174 1 24.6677 12.5861 2.25823 18
175 1 16.3962 19.9819 14.6454 21
176 1 8.19369 3.82855 13.6982 22
177 1 7.73289 12.6183 15.9601 21
178 1 12.3759 18.5166 19.9673 22
179 1 19.3669 2.57868 14.3091 20
180 1 19.4524 20.7735 13.1539 23
181 2 10.5913 2.12156 6.3394 22
182 2 3.30282 5.38424 9.02554 23
183 2 14.0282 6.37263 7.79489 25
184 2 26.2576 11.1909 60.2264 21
185 2 11.7089 29.9821 6.7594 17
186 2 28.294 7.1493 12.6432 24
187 2 2.86371 13.5031 15.5467 22
188 2 19.2613 4.54545 14.0359 25
189 2 27.4912 26.9693 19.4502 21
190 2 14.2065 10.4682 26.3601 20
191 2 6.91761 11.9339 22.831 24
192 2 30.8879 12.619 17.058 21
193 2 27.6921 12.7522 6.23661 20
194 2 32.433 6.06888 8.5635 20
195 2 2.46575 9.63789 26.0315 21
196 2 1.31905 5.9847 11.7706 20
197 2 0.552436 5.07305 4.53067 22
198 2 28.8787 14.3885 19.7014 21
199 2 1.56893 2.67199 8.0634 19
200 2 2.29797 32.1372 11.6759 18
201 2 5.96141 30.7344 9.64343 23
202 2 30.0782 10.822 20.8645 21
203 2 28.5512 9.40596 10.9193 23
204 2 32.4387 4.12784 12.9873 21
205 2 29.3465 5.53135 7.04045 19
206 2 29.5562 15.9236 5.28679 23
207 2 30.1387 12.6884 13.5671 19
208 2 4.52093 11.8061 1.17055 22
209 2 6.44344 6.97811 7.50922 27
210 2 -0.120615 8.24835 10.2646 20
211 2 4.94586 13.6959 60.9646 22
212 2 25.5217 20.785 8.03947 21
213 2 2.1301 27.3876 25.4227 22
214 2 1.63201 16.1111 13.3886 18
215 2 1.08638 18.9996 12.3212 22
216 2 8.37395 9.44985 9.1588 22
217 2 25.5863 1.70959 9.09004 20
218 2 9.73688 7.59689 0.858292 22
219 2 1.89089 2.38413 3.17988 19
220 2 6.74804 2.02087 10.3499 19
221 2 32.0447 2.92296 7.16767 23
222 2 29.9929 17.5223 19.4011 23
223 2 1.16624 29.4401 6.89898 19
224 2 4.10195 4.06949 12.5416 23
225 2 11.7376 25.3582 14.7744 20
226 2 5.95351 15.0168 2.15732 21
227 2 13.6239 5.31867 17.9759 24
228 2 15.9847 3.97282 12.3587 21
229 2 31.4096 7.82408 6.70953 21
230 2 27.8593 21.2616 17.2668 23
231 2 29.6864 3.29884 13.2449 17
232 2 8.27642 4.48072 61.8433 19
233 2 31.7547 31.6221 12.3359 23
234 2 8.77524 32.3377 10.333 17
235 2 -0.0919399 5.03593 18.8274 20
236 2 24.0196 12.9106 21.3259 21
237 2 4.36354 2.94547 4.13146 19
238 2 32.4786 15.993 8.07596 20
239 2 1.2278 6.11526 22.996 20
240 2 30.6548 19.3966 22.565 23
241 2 6.61784 8.07187 3.78147 20
242 2 4.25108 7.07766 11.7986 21
243 2 31.3707 18.2965 7.76015 22
244 2 5.47916 13.8199 7.27639 19
245 2 9.66826 14.8089 10.6411 23
246 2 8.30059 9.23387 6.05456 22
247 2 0.383639 21.4213 17.1338 22
248 2 7.43356 12.2139 1.30169 18
249 2 3.28626 15.7765 0.963078 18
250 2 2.00639 18.5456 9.08951 19
251 2 13.1178 23.8754 20.9233 20
252 2 31.6611 10.985 12.0439 22
253 2 6.70392 3.87971 12.5014 20
254 2 4.6299 7.72181 5.99675 21
255 2 8.01238 32.8266 14.6138 19
256 2 9.10505 30.7028 61.6294 19
257 2 23.6809 3.14513 13.8158 23
258 2 9.88616 32.1467 1.71636 23
259 2 11.7088 34.249 1.68812 19
260 2 6.77702 32.8386 62.8529 20
261 2 13.0969 23.8613 9.8233 20
262 2 10.4248 27.1719 16.7149 21
263 2 15.7655 8.20572 3.68813 21
264 2 2.59481 12.5304 26.2335 23
265 2 16.0121 3.66777 6.6097 22
266 2 2.55814 10.3815 11.1825 19
267 2 -0.112944 15.0249 1.38957 24
268 2 27.3565 6.12728 10.0965 21
269 2 17.6484 20.0915 8.40798 19
270 2 1.13227 -0.0916558 2.70285 23
271 2 0.0162344 11.6971 2.83466 22
272 2 20.7206 11.4976 5.43387 21
273 2 14.1113 11.9915 7.84325 21
274 2 14.4264 33.3038 10.8501 24
275 2 3.85207 11.4828 18.6742 20
276 2 6.41021 14.7825 5.0644 20
277 2 1.30343 17.7013 0.839715 23
278 2 0.650094 10.8388 14.236 21
279 2 5.38352 10.1031 12.939 19
280 2 14.9293 20.2201 13.1999 20
281 2 8.75126 18.0952 8.6253 22
282 2 6.57308 24.3304 15.3218 22
283 2 4.28507 22.861 20.8836 22
284 2 5.92027 10.6841 7.67832 21
285 2 3.91099 7.02821 14.4783 23
286 2 15.3095 9.44171 12.5925 22
287 2 11.9604 17.0939 21.1967 20
288 2 15.9488 30.4834 14.4995 20
289 2 14.9607 5.9181 0.689935 20
290 2 14.9251 5.32694 4.16598 22
291 2 7.91377 6.70431 10.0449 23
292 2 10.3782 0.596755 3.78415 25
293 2 11.214 28.136 23.0032 21
294 2 8.61976 31.1733 7.43579 22
295 2 14.8278 9.85272 1.83656 19
296 2 10.0384 32.0256 12.5983 21
297 2 15.0634 12.5252 11.2635 24
298 2 32.8989 32.5404 23.1319 21
299 2 16.5303 19.3951 18.4652 23
300 2 18.3411 3.0608 17.4209 21
301 2 16.204 11.3282 3.06048 22
302 2 4.48873 29.0014 3.63485 23
303 2 0.84169 10.6793 8.44794 21
304 2 8.14616 10.4558 2.99039 19
305 2 21.9244 8.47819 24.0735 20
306 2 11.7371 2.87099 20.278 22
307 2 6.07008 5.4979 4.49223 19
308 2 8.70516 18.0013 25.7814 19
309 2 19.7148 30.1192 5.35991 22
310 2 4.31289 17.7981 13.9032 18
311 2 7.89064 9.44435 12.4233 24
312 2 3.29034 3.02826 9.80399 22
313 2 3.60869 10.3799 6.25789 19
314 2 10.3273 -0.306349 12.2693 21
315 2 0.150757 16.9212 10.5515 21
316 2 23.961 17.6422 7.57768 22
317 2 12.2487 21.2504 15.7171 23
318 2 14.863 12.0964 15.3393 20
319 2 8.10213 12.1534 10.1253 20
320 2 3.71798 9.2823 2.49029 19
321 2 19.1996 31.8565 25.2202 24
322 2 3.85387 15.9406 26.7169 23
323 2 22.2261 28.2215 10.0567 19
324 2 13.299 17.643 12.7393 22
325 2 12.912 10.9465 12.8084 21
326 2 11.9882 30.8534 9.95045 21
327 2 24.1417 4.0415 11.2042 20
328 2 9.74568 10.588 62.6515 20
329 2 18.5877 9.66912 11.2051 21
330 2 6.4071 26.9079 2.41776 20
331 2 12.02 8.45879 13.0628 23
332 2 11.9621 10.6092 2.6969 22
333 2 25.5123 28.1741 16.2167 19
334 2 16.3744 31.3505 9.42074 22
335 2 20.4253 23.2346 21.319 21
336 2 12.3505 27.2799 20.4923 19
337 2 11.488 8.66499 6.99239 21
338 2 7.73967 20.479 3.19069 21
339 2 19.689 14.1823 7.45487 22
340 2 20.5549 8.30817 2.30854 21
341 2 12.8414 29.8412 3.82945 18
342 2 11.8746 32.0477 3.64388 21
343 2 20.0465 8.24429 14.4312 24
344 2 10.6199 13.02 7.63276 23
345 2 22.0381 0.68869 23.0415 23
346 2 8.21957 16.7917 15.1472 20
347 2 10.4258 12.121 17.9212 22
348 2 27.499 9.50058 22.043 22
349 2 12.0616 20.0413 12.0163 21
350 2 15.0073 14.3247 60.4804 21
351 2 7.4018 17.976 2.95652 23
352 2 32.3494 15.9003 4.83709 22
353 2 27.4076 34.3308 15.598 18
354 2 18.0156 14.124 60.0631 24
355 2 10.3786 22.1145 2.10472 20
356 2 23.1062 14.6743 18.4709 20
357 2 12.3146 14.0934 16.0371 24
358 2 3.78322 34.1682 14.8124 17
359 2 21.7156 22.5449 17.9079 24
360 2 21.6818 0.668957 15.6919 20
361 1 6.49457 13.3553 21.4544 24
362 1 6.61991 10.5415 21.5236 20
363 1 1.88435 3.0886 29.5799 20
364 1 28.1579 6.65325 19.723 24
365 1 31.169 3.38749 21.46 20
366 1 4.55129 34.2098 18.0602 21
367 1 8.40248 31.8385 28.1326 22
368 1 30.1668 1.24176 18.8179 19
369 1 -0.0809563 8.05277 22.2963 22
370 1 32.0167 31.7473 26.1979 20
371 1 1.56243 15.0223 30.2658 23
372 1 24.2446 10.5332 27.2655 22
373 1 1.04778 18.9124 17.0172 15
374 1 9.16143 27.1153 9.6012 20
375 1 4.46725 10.5009 16.8647 21
376 1 17.0739 12.1676 11.3305 22
377 1 5.36648 25.0178 24.9912 22
378 1 2.39991 20.7267 27.7451 25
379 1 0.242065 0.346327 28.6765 19
380 1 0.540247 22.8796 21.2248 23
381 1 11.3245 6.42958 34.878 24
382 1 3.96777 10.7064 20.4783 23
383 1 27.3586 13.4602 19.0329 22
384 1 25.5999 1.14077 32.6377 21
385 1 7.23376 16.6656 23.0426 18
386 1 5.84261 15.6846 8.05183 23
387 1 5.6552 16.4808 13.6766 20
388 1 25.181 24.2486 18.9377 21
389 1 22.8172 23.5188 21.4645 21
390 1 7.15418 8.37066 23.541 19
391 1 1.83178 15.8747 27.2618 25
392 1 3.572 14.0197 26.5082 21
393 1 30.1416 24.158 22.6992 20
394 1 32.5993 14.2629 32.0623 21
395 1 13.9013 5.60062 27.5734 20
396 1 17.5191 10.2906 23.1276 20
397 1 3.74749 5.33544 11.1075 22
398 1 8.67226 28.8028 15.9273 21
399 1 6.6409 11.3206 13.7412 22
400 1 10.7848 6.28863 27.6483 20
401 1 5.60336 0.289761 24.454 22
402 1 12.4204 2.85027 22.0259 21
403 1 1.05011 31.9258 24.3485 22
404 1 2.31979 0.252523 21.0391 22
405 1 16.4201 9.45608 29.4986 22
406 1 4.05051 1.63831 27.2716 20
407 1 0.126038 11.4411 19.8992 21
408 1 9.73967 34.4279 28.0554 21
409 1 10.2064 19.3843 21.9769 23
410 1 6.59652 19.0519 13.7471 21
411 1 29.1176 8.23844 22.5272 23
412 1 29.4528 9.25756 29.1033 20
413 1 11.0158 12.6413 23.9875 26
414 1 0.0633017 5.3383 24.2731 25
415 1 3.74823 10.9042 26.5327 24
416 1 25.9238 12.4105 28.938 21
417 1 11.3271 24.9512 31.7282 22
418 1 5.23363 8.13654 19.1817 22
419 1 10.5908 11.6325 15.8921 23
420 1 10.5013 13.368 32.3456 22
421 1 30.4831 20.5302 15.0956 22
422 1 23.2865 14.2595 9.55817 23
423 1 24.0244 13.7002 6.60764 21
424 1 12.1321 21.5933 24.6444 23
425 1 31.905 14.0987 25.6371 21
426 1 2.25827 17.032 18.4904 19
427 1 11.9792 9.02946 28.6478 25
428 1 8.64828 10.0808 29.0288 24
429 1 5.68329 11.6286 29.1806 21
430 1 2.84037 19.4598 30.5073 20
431 1 7.7157 7.74079 26.4271 21
432 1 28.4551 12.0335 28.7259 23
433 1 12.748 14.9448 21.2826 22
434 1 4.77689 3.01818 23.7124 20
435 1 12.9314 25.4579 19.8966 20
436 1 10.135 16.5231 20.689 22
437 1 8.86496 31.2139 25.2179 20
438 1 5.26496 24.7753 30.6034 24
439 1 7.58317 14.9484 28.6898 23
440 1 1.43014 9.06467 24.2659 22
441 1 14.2507 12.5402 22.3275 20
442 1 12.1595 -0.305124 15.9808 21
443 1 12.7632 6.43729 24.6576 20
444 1 4.3482 4.12445 32.3153 23
445 1 12.5528 11.4959 26.4982 21
446 1 11.6282 33.4088 13.4087 20
447 1 5.74488 32.6083 19.7441 21
448 1 4.62242 30.3433 17.8057 21
449 1 10.3649 13.4766 9.45423 18
450 1 3.1165 9.19271 29.0946 21
451 1 3.18283 17.3427 25.0936 22
452 1 8.37246 33.5455 21.5904 20
453 1 10.2163 7.59631 24.4176 21
454 1 0.306932 3.12926 19.9252 21
455 1 11.8621 9.88942 23.8718 20
456 1 8.77469 7.8219 29.7243 23
457 1 0.873168 16.1455 24.1635 21
458 1 16.4743 5.50008 20.4747 18
459 1 22.0598 14.6627 25.6994 20
460 1 4.24172 15.0227 23.593 23
461 1 2.44964 17.7186 21.7186 22
462 1 4.20404 15.5965 20.5146 22
463 1 22.7991 11.0205 21.2208 21
464 1 16.6007 18.3967 24.3465 20
465 1 8.66024 16.2012 32.1177 23
466 1 14.5062 10.9407 28.1908 23
467 1 4.09404 24.0191 27.4166 21
468 1 1.89094 12.3069 28.0528 23
469 1 3.50224 32.2944 15.3776 19
470 1 20.7644 33.591 23.9297 22
471 1 12.3374 6.15454 16.9442 20
472 1 7.43639 1.04792 20.606 18
473 1 7.1679 34.2853 6.7651 20
474 1 14.35 14.088 19.5352 19
475 1 13.8536 31.2646 29.6174 22
476 1 9.19425 3.6987 21.7665 22
477 1 16.6753 34.0991 32.5201 19
478 1 32.6109 9.09883 29.5751 20
479 1 11.7174 5.70744 30.1927 24
480 1 24.0961 15.6874 24.1525 21
481 1 13.9986 5.47201 14.5032 22
482 1 0.526717 7.6972 12.7391 25
483 1 9.87349 5.39599 16.4124 21
484 1 14.4721 9.48243 8.96374 22
485 1 10.1241 10.025 26.1407 23
486 1 9.19457 9.75095 14.1904 22
487 1 28.0339 14.3911 31.6556 21
488 1 12.0775 29.4952 24.2304 22
489 1 8.80832 15.301 12.8271 20
490 1 14.7403 4.58595 22.9431 19
491 1 16.4603 13.1644 25.1498 20
492 1 8.40856 12.4763 30.3735 22
493 1 0.587671 20.1032 14.2146 20
494 1 7.81767 19.8662 16.3657 22
495 1 4.44738 1.08224 15.5615 19
496 1 19.0357 13.9207 18.5505 19
497 1 11.0795 16.1807 23.474 22
498 1 7.01091 8.0023 9.03515 23
499 1 32.9413 11.3411 25.5111 22
500 1 6.56518 13.719 26.3104 22
501 1 10.8425 27.0704 25.1539 23
502 1 10.9983 12.7497 28.792 23
503 1 12.8689 17.5719 27.8099 20
504 1 3.30435 11.6502 30.7155 23
505 1 13.174 4.46014 19.5187 22
506 1 26.2505 1.04002 14.7675 18
507 1 8.74018 30.7098 19.8824 22
508 1 11.0824 9.96154 18.4493 20
509 1 14.9399 33.9765 30.5533 23
510 1 15.9898 6.62124 25.1097 20
511 1 13.7759 2.86627 25.2403 20
512 1 16.3886 3.95999 27.3286 22
513 1 18.8524 9.06069 20.5289 21
514 1 9.45053 32.4684 15.5841 22
515 1 5.87448 3.14888 29.6435 23
516 1 3.57781 6.10287 30.2598 24
517 1 6.11876 9.06355 29.3352 18
518 1 9.58979 20.5064 12.7628 23
519 1 23.7616 34.3139 22.8211 23
520 1 5.90682 16.412 26.2609 22
521 1 22.3404 4.96919 20.6913 20
522 1 10.44 5.88138 19.1364 24
523 1 21.9642 30.8989 18.4451 20
524 1 9.72406 0.764291 15.3604 22
525 1 4.6045 10.9971 33.9388 25
526 1 8.09886 12.2955 24.0533 22
527 1 19.574 9.12765 28.7827 22
528 1 19.3409 5.78558 20.5081 22
529 1 4.32679 20.5998 11.0473 21
530 1 11.0751 7.31263 14.3596 20
531 1 13.4211 32.1153 11.7165 22
532 1 17.035 18.2303 12.2293 19
533 1 9.67824 10.0484 21.7156 21
534 1 4.68332 25.584 15.7219 23
535 1 12.8648 21.2793 21.4202 22
536 1 6.83185 25.4136 13.6142 22
537 1 1.6087 20.0278 23.2648 22
538 1 11.8723 12.8458 12.921 23
539 1 13.7962 8.57661 26.3129 21
540 1 16.4285 20.9322 22.8323 22
541 2 32.4994 5.17131 15.4694 20
542 2 4.4261 0.346075 22.8675 20
543 2 28.2264 8.49279 27.7688 24
544 2 31.2691 8.03921 22.5631 21
545 2 1.10422 6.29165 31.3928 19
546 2 3.16571 6.29787 21.0963 19
547 2 3.64997 13.7186 31.2297 24
548 2 24.2812 5.66093 31.4294 24
549 2 0.597292 2.3222 32.0001 21
550 2 0.149245 0.568415 26.8236 18
551 2 25.3348 2.44222 26.237 25
552 2 3.03255 2.28811 22.3338 21
553 2 31.8296 12.7683 19.6814 23
554 2 0.878054 11.6952 23.896 24
555 2 4.22428 15.2169 13.1804 16
556 2 12.6048 6.67138 21.1408 21
557 2 2.38177 4.11446 24.5517 18
558 2 31.9352 9.96845 19.0677 18
559 2 1.37313 13.9186 21.6872 23
560 2 8.75114 6.65958 18.0412 22
561 2 0.371304 11.2188 27.3278 23
562 2 24.434 8.64573 26.5232 27
563 2 24.9002 7.37865 23.5998 21
564 2 25.7583 23.0422 34.2621 21
565 2 15.7662 14.8966 15.2806 18
566 2 30.5331 13.2394 6.80113 23
567 2 11.5902 22.3269 26.1508 21
568 2 9.96023 6.90635 8.31812 23
569 2 31.9645 17.2417 25.0955 22
570 2 5.10879 13.8312 25.0822 21
571 2 22.4887 27.0246 31.99 22
572 2 7.62778 11.8197 25.7493 22
573 2 30.0392 8.77378 31.0139 24
574 2 2.64476 17.7735 34.9676 19
575 2 25.5963 21.9635 31.7443 19
576 2 2.56482 14.157 28.4674 20
577 2 24.8321 5.35202 25.5199 22
578 2 6.72769 30.1393 29.2417 19
579 2 4.30031 14.2099 18.3387 21
580 2 22.3267 25.4057 21.5152 19
581 2 9.23634 -0.151779 34.0022 19
582 2 14.8498 3.42333 28.5873 21
583 2 0.461055 7.38906 20.3232 21
584 2 5.55559 1.5781 19.8922 22
585 2 0.139324 32.6339 28.3465 19
586 2 4.49197 6.49494 32.268 20
587 2 6.92918 23.3256 21.213 19
588 2 1.20523 8.51359 28.8909 23
589 2 32.6678 14.688 23.7396 20
590 2 7.53436 2.78511 21.837 20
591 2 4.13409 25.2542 23.3829 24
592 2 5.44992 18.9798 16.1442 20
593 2 6.02228 2.22714 25.0929 22
594 2 30.8949 7.72908 28.8254 20
595 2 2.26642 19.7919 15.4885 22
596 2 5.12946 13.452 33.7641 22
597 2 11.2861 1.9834 15.7092 20
598 2 29.7958 13.2429 30.0907 22
599 2 -0.0679007 15.9898 28.3744 22
600 2 24.5418 2.92063 29.0464 22
601 2 12.0391 13.3247 25.3733 22
602 2 31.1804 26.5571 18.8634 18
603 2 0.681425 14.5711 26.4355 24
604 2 16.9044 14.7428 12.3368 20
605 2 3.14849 11.6919 22.8673 25
606 2 7.90962 28.6477 23.4419 21
607 2 7.27463 3.99599 18.3649 21
608 2 6.78895 6.51122 22.8113 20
609 2 9.94615 6.18387 29.9298 20
610 2 7.38204 10.4669 30.1543 21
611 2 5.36589 25.5895 32.1692 22
612 2 6.06415 18.2039 34.0369 23
613 2 11.2778 -0.267485 24.5554 23
614 2 4.63647 7.89359 29.488 22
615 2 5.58045 11.8746 20.7234 20
616 2 7.12476 34.1216 24.4758 20
617 2 2.34742 5.68902 28.6925 21
618 2 5.39585 5.03232 28.967 21
619 2 4.22078 2.74854 28.8007 19
620 2 11.0091 16.4595 16.8998 23
621 2 -0.136023 6.11158 26.7525 20
622 2 1.51664 7.24948 17.5263 20
623 2 4.82568 7.10437 26.7651 22
624 2 29.1696 22.8983 21.6205 19
625 2 1.47344 1.90027 11.9481 24
626 2 7.58189 14.8164 23.5837 23
627 2 8.67468 19.5573 14.1619 20
628 2 7.88651 8.14582 15.4343 22
629 2 20.5828 25.419 24.2016 22
630 2 10.0724 14.5737 28.1659 21
631 2 16.7516 18.7215 33.1666 22
632 2 7.30198 3.50117 27.6368 18
633 2 9.96408 8.69518 28.2012 21
634 2 4.61677 9.21566 33.5355 19
635 2 9.46086 13.6805 25.2229 23
636 2 11.6645 8.48606 34.4438 22
637 2 8.13822 8.77236 21.4283 21
638 2 1.07841 10.8639 16.633 22
639 2 2.3647 16.8379 16.5783 19
640 2 5.0546 10.8624 25.0223 21
641 2 12.9535 11.6632 23.4706 17
642 2 1.00348 20.307 35.2414 20
643 2 1.23333 25.0678 21.1911 21
644 2 7.22444 15.7589 17.9518 20
645 2 11.9927 9.25692 30.6429 22
646 2 0.603886 12.8281 32.3458 22
647 2 23.3591 21.0932 24.9445 18
648 2 3.96107 16.6727 33.321 24
649 2 8.44943 33.0232 17.5542 21
650 2 6.79389 31.3752 33.942 25
651 2 7.82714 0.84056 13.1464 20
652 2 11.0503 8.92653 22.767 22
653 2 10.0901 5.61585 20.7572 22
654 2 12.325 5.2379 28.2894 20
655 2 5.70894 5.40349 16.1486 20
656 2 9.21499 16.4095 22.2953 23
657 2 9.76113 2.42507 31.3675 20
658 2 9.75842 6.57699 22.9734 22
659 2 14.617 6.53936 29.8015 23
660 2 14.2708 29.6718 18.2469 22
661 2 16.3985 8.80112 23.8871 19
662 2 3.16247 3.89591 17.1938 21
663 2 5.46115 31.665 14.0556 20
664 2 19.3712 6.15934 22.3248 22
665 2 13.3728 3.37396 13.7111 19
666 2 16.0238 5.92166 27.027 21
667 2 6.69496 7.71127 30.9763 23
668 2 18.6621 4.03502 20.3921 20
669 2 7.95097 6.82448 27.984 22
670 2 8.50639 11.9332 32.2651 21
671 2 4.41281 10.4449 28.4636 22
672 2 16.6937 8.81822 27.6725 25
673 2 4.91707 4.31088 20.4947 20
674 2 14.551 7.7341 24.7438 22
675 2 4.49622 20.8011 19.0712 22
676 2 11.0472 14.576 22.51 23
677 2 17.9953 3.02543 10.1413 20
678 2 3.3649 22.47 27.8879 20
679 2 7.58356 18.0229 31.8137 21
680 2 11.4282 18.4672 14.6683 23
681 2 4.52233 11.0919 36.1199 23
682 2 10.8579 11.7548 30.2449 21
683 2 10.0879 20.0524 27.1374 20
684 2 7.54955 13.0237 28.5734 22
685 2 20.8408 33.0912 28.1902 22
686 2 14.0738 2.06567 23.7873 24
687 2 17.3605 34.2353 11.9772 17
688 2 2.77069 1.09999 17.7009 22
689 2 17.3572 24.3856 20.989 19
690 2 22.9983 8.32672 18.9564 21
691 2 24.2801 29.2976 21.1434 20
692 2 11.5274 24.1753 18.3128 22
693 2 17.5131 32.4027 33.1993 19
694 2 11.324 4.44106 33.9004 21
695 2 15.9309 3.74932 31.4894 19
696 2 13.982 1.11202 26.0218 23
697 2 11.1099 33.3041 9.24761 21
698 2 13.6515 16.3615 15.2073 22
699 2 10.183 3.99924 17.7849 23
700 2 15.3374 1.11893 11.8899 22
701 2 13.012 4.35248 31.4101 21
702 2 7.16259 9.72851 27.8924 23
703 2 13.6595 14.6153 27.226 21
704 2 9.04525 0.860599 26.65 24
705 2 14.6197 3.0235 34.2239 20
706 2 12.2836 2.15683 32.938 18
707 2 19.2246 27.115 21.575 21
708 2 11.7506 11.0701 32.7444 22
709 2 17.3173 17.3699 21.3059 23
710 2 13.1515 15.7849 23.8749 18
711 2 9.15126 11.6181 20.5401 22
712 2 8.75335 19.7163 23.2136 17
713 2 15.6174 14.9634 25.1828 21
714 2 10.7333 14.4473 13.3078 21
715 2 11.2812 20.5468 30.1196 19
716 2 13.7277 23.0647 34.818 15
717 2 17.8953 16.3466 31.1088 18
718 2 19.7049 8.21271 32.1138 20
719 2 6.96979 15.4616 32.5808 23
720 2 22.9046 16.5648 25.1738 19
721 1 2.06872 25.5203 62.815 23
722 1 32.1187 16.0698 62.2938 20
723 1 31.3369 7.95888 2.05743 19
724 1 29.377 19.8494 5.86727 23
725 1 3.02997 30.5635 3.67956 21
726 1 28.5569 16.9421 6.43262 22
727 1 9.00198 16.3675 17.2827 23
728 1 30.8826 33.4864 12.7865 19
729 1 28.1314 29.4408 5.17963 21
730 1 6.41108 17.1094 16.6103 19
731 1 29.2356 25.3696 11.0007 24
732 1 31.932 28.8379 16.7229 20
733 1 6.48109 28.7488 62.9395 19
734 1 3.70798 23.0372 1.0804 19
735 1 6.11095 13.4438 3.54736 21
736 1 0.618424 22.4292 1.14984 22
737 1 3.66387 28.0336 10.0657 24
738 1 1.93456 31.2875 0.927968 21
739 1 31.6849 16.709 6.39598 20
740 1 -0.0328572 0.448237 11.6868 28
741 1 5.35819 31.2092 7.73813 17
742 1 28.7335 20.8086 2.27363 18
743 1 28.6531 27.9358 8.75435 23
744 1 29.4355 30.9396 7.70461 18
745 1 29.8445 34.2407 1.35164 16
746 1 1.24074 2.96725 1.48954 23
747 1 31.1655 16.3278 10.587 23
748 1 22.7761 2.33406 5.96237 22
749 1 0.496992 4.18406 8.51673 24
750 1 30.0831 -0.222258 3.84549 19
751 1 5.49107 20.0323 17.7822 18
752 1 9.9924 29.1944 62.5078 23
753 1 0.55812 32.2217 12.6295 18
754 1 1.41725 10.9512 6.38439 21
755 1 3.52852 3.0898 20.4693 23
756 1 2.41343 31.5772 20.8313 23
757 1 4.95972 23.8442 60.5641 21
758 1 4.42611 18.2647 60.9316 18
759 1 3.03075 5.46197 1.45534 23
760 1 4.51728 19.9051 0.971722 20
761 1 0.379776 25.1257 7.97896 22
762 1 7.99268 13.9235 6.16675 23
763 1 6.01939 22.6707 22.512 23
764 1 1.03851 19.3951 5.62846 22
765 1 27.4158 2.64404 9.46244 19
766 1 14.7463 9.60907 16.7727 20
767 1 8.86474 14.4549 22.177 20
768 1 32.9052 1.84201 5.73841 25
769 1 4.17772 28.1739 1.70299 22
770 1 6.81044 26.1349 61.0235 20
771 1 6.20855 34.3807 1.67042 19
772 1 31.9239 24.3555 10.5103 21
773 1 5.34342 5.85826 8.58507 25
774 1 6.45655 25.4438 10.4436 21
775 1 31.8633 26.9606 62.6294 22
776 1 4.38268 30.1189 13.4453 20
777 1 5.73382 4.75357 14.0219 23
778 1 22.0642 33.8337 16.5884 20
779 1 10.3652 19.3875 18.402 24
780 1 6.30512 28.6161 9.28268 20
781 1 5.1613 31.5679 1.68552 22
782 1 2.23195 25.2733 5.85969 23
783 1 3.24064 27.9924 5.02864 23
784 1 0.658249 32.9433 3.59878 22
785 1 31.6111 32.4661 1.59582 24
786 1 17.5482 24.9142 12.6971 22
787 1 2.06055 32.6178 9.63278 17
788 1 8.18207 3.10174 9.82284 22
789 1 11.2649 2.69205 9.65221 21
790 1 15.3217 20.4447 19.9947 20
791 1 8.79327 22.5462 18.1276 23
792 1 28.7509 30.6657 13.3842 21
793 1 11.6636 23.6265 60.5409 23
794 1 6.32056 23.2958 2.04584 22
795 1 8.94887 18.1971 11.0882 24
796 1 6.11328 10.9694 1.68149 22
797 1 31.8069 19.8169 6.80993 17
798 1 9.47635 14.9404 3.44764 19
799 1 4.15066 19.6989 14.8677 21
800 1 11.0292 14.2919 5.45415 22
801 1 31.939 21.2759 9.61331 20
802 1 14.5426 23.9782 10.9937 19
803 1 9.8208 17.5845 14.5556 21
804 1 32.4604 25.8285 5.26812 20
805 1 12.2703 29.6719 1.92142 20
806 1 1.50711 27.4043 2.49086 20
807 1 4.85216 24.1095 5.54956 22
808 1 9.02829 18.9297 3.85605 21
809 1 7.21475 32.8423 4.24338 22
810 1 0.189746 30.3987 8.71643 20
811 1 32.7641 32.2776 16.538 18
812 1 9.68151 22.3869 6.73397 21
813 1 15.5396 34.3937 16.3545 21
814 1 31.7912 34.1154 6.14127 21
815 1 3.52273 15.3403 11.3637 26
816 1 4.12316 33.3045 4.38219 20
817 1 8.46741 1.34216 4.09245 20
818 1 11.7733 1.75359 4.96005 26
819 1 10.4602 33.4278 3.82743 19
820 1 28.309 6.93423 6.21399 20
821 1 11.3712 3.94735 6.17658 23
822 1 0.385532 28.4847 5.28746 22
823 1 13.3568 20.7749 6.10687 20
824 1 7.23625 30.5165 6.13258 20
825 1 16.9884 31.9334 18.1282 20
826 1 5.46632 17.7322 5.73914 23
827 1 12.4126 20.972 17.6986 23
828 1 2.79912 33.4763 12.9718 22
829 1 32.1449 25.463 2.26839 21
830 1 14.4553 17.8405 60.7386 22
831 1 12.782 17.0216 0.726121 18
832 1 3.90884 16.856 2.41271 20
833 1 11.5324 22.9839 8.50539 21
834 1 7.117 20.8497 1.18076 23
835 1 6.04553 19.1088 3.48411 20
836 1 10.2734 25.8367 6.74091 21
837 1 27.6092 21.6561 15.3922 22
838 1 9.08834 23.2724 10.0956 24
839 1 12.3015 16.2462 13.5235 22
840 1 10.6371 18.6462 25.3773 20
841 1 15.8589 28.7127 62.5304 19
842 1 7.36018 27.7996 6.52845 20
843 1 8.82489 22.0822 3.10703 19
844 1 31.2329 32.8046 9.89748 21
845 1 7.65666 24.4471 7.06597 21
846 1 6.33051 22.5728 8.8819 23
847 1 9.1081 16.6524 6.89413 22
848 1 7.91141 24.8313 4.33132 22
849 1 15.42 29.7282 19.6655 19
850 1 10.5415 17.625 8.81802 22
851 1 8.41774 21.0495 8.62318 21
852 1 1.68585 27.889 16.6687 25
853 1 11.1476 32.2002 62.7055 21
854 1 13.5229 1.79079 61.6028 20
855 1 13.5196 3.70206 4.03218 20
856 1 13.4569 28.5707 61.8518 20
857 1 12.7632 7.3381 6.58014 22
858 1 8.9848 32.9259 8.56956 21
859 1 11.9985 29.1439 59.6765 21
860 1 14.7685 22.7487 14.0139 20
861 1 8.06442 29.5706 12.0818 21
862 1 14.0828 19.7899 1.40467 19
863 1 15.2864 23.8422 20.2513 24
864 1 10.8079 24.23 3.28383 22
865 1 6.50297 17.9004 0.960592 24
866 1 9.70242 20.2137 1.40108 18
867 1 31.5205 9.41198 10.9702 23
868 1 10.2054 19.5211 6.66861 20
869 1 14.3564 25.7869 2.33577 21
870 1 12.7942 14.8436 60.8922 23
871 1 15.6059 11.3092 6.37966 21
872 1 4.91634 25.8007 1.584 22
873 1 14.7186 26.4968 11.4775 26
874 1 4.26321 21.5715 3.67691 21
875 1 12.7039 16.8563 6.23656 22
876 1 31.0834 16.555 18.0306 17
877 1 14.1293 25.7278 7.89077 22
878 1 15.0373 22.7957 60.6445 20
879 1 16.6732 20.2584 3.39312 18
880 1 14.1264 28.6196 3.58354 18
881 1 14.2757 21.9356 9.05844 23
882 1 21.1759 19.3391 3.34296 20
883 1 23.203 27.2984 14.2532 21
884 1 4.06462 13.8532 1.38109 19
885 1 17.877 23.013 14.9029 22
886 1 10.56 20.2435 15.1365 21
887 1 16.871 28.1126 17.5299 23
888 1 17.7949 15.6792 20.4258 24
889 1 13.4486 0.677837 2.35369 21
890 1 14.4505 23.2148 3.66404 19
891 1 9.76456 32.5795 6.07404 21
892 1 14.2856 1.86418 10.6 24
893 1 18.5125 31.2659 8.00273 21
894 1 20.9745 0.3648 3.57932 17
895 1 6.66956 16.1468 3.59919 19
896 1 8.1427 25.8174 1.21407 21
897 1 10.3083 33.2819 17.9589 21
898 1 16.1871 27.8827 14.7519 20
899 1 18.5569 32.2399 5.6071 21
900 1 19.8663 31.2612 21.3961 21
901 2 4.13429 13.124 3.7975 24
902 2 27.1434 21.5974 3.48593 20
903 2 2.80915 21.8719 11.6598 19
904 2 3.36566 16.3752 8.80347 20
905 2 7.19932 26.1434 21.7229 22
906 2 7.18105 20.5891 20.4199 22
907 2 12.1944 18.9531 17.9941 21
908 2 26.2139 11.7249 2.97478 16
909 2 3.95134 22.0087 16.2307 23
910 2 2.5062 16.4454 20.2027 21
911 2 29.1148 17.7557 13.59 19