ITEM: TIMESTEP
257000
ITEM: NUMBER OF ATOMS
5760
ITEM: BOX BOUNDS pp pp pp
0.2421359846 32.5578640154
-0.1138136159 34.2538136159
-0.4205833604 64.0205833608
ITEM: ATOMS id type x y z Coordination
1 1 10.9636 0.472235 44.2439 22
2 1 9.42088 23.6397 8.09082 25
3 1 30.5349 4.11982 10.4481 22
4 1 8.45131 18.9989 46.019 22
5 1 11.8524 26.5419 5.47439 23
6 1 3.53131 27.2134 29.3315 21
7 1 28.4967 26.3161 27.3641 24
8 1 13.5569 27.3002 21.7627 20
9 1 10.437 18.0408 18.4844 16
10 1 25.9699 18.2204 45.9493 24
11 1 18.9293 5.15072 55.6958 23
12 1 10.554 22.0079 31.3837 20
13 1 0.855722 26.127 12.7031 23
14 1 11.4309 3.09184 53.4385 22
15 1 21.1476 1.21069 62.0299 18
16 1 16.7336 4.31239 58.7977 24
17 1 22.7906 13.1207 1.36838 22
18 1 29.882 14.4945 56.9809 20
19 1 10.7799 22.6729 2.56648 20
20 1 0.392591 28.9112 18.7024 21
21 1 6.57195 23.9299 15.5158 19
22 1 32.4062 3.46238 28.8125 22
23 1 20.0483 26.7942 45.2451 20
24 1 26.3415 23.1165 6.33544 21
25 1 3.88311 16.4066 6.18739 18
26 1 14.55 17.4017 11.9153 22
27 1 16.5675 12.1346 56.6643 22
28 1 18.641 15.9008 62.967 22
29 1 3.19543 5.375 4.97003 22
30 1 5.71205 1.64432 50.0203 24
31 1 14.6937 22.1673 4.47501 19
32 1 4.49857 2.42054 15.4685 20
33 1 3.72628 1.79651 3.40848 20
34 1 8.81884 0.0182461 31.4514 19
35 1 29.5156 20.1124 10.6004 21
36 1 11.8471 22.2783 58.7808 22
37 1 22.4499 21.221 52.7562 23
38 1 12.6947 23.0369 53.9939 19
39 1 29.5384 4.02483 30.1293 23
40 1 20.0363 27.3793 62.4402 22
41 1 12.7858 33.121 8.51842 21
42 1 18.4187 18.7167 61.6037 22
43 1 10.4542 23.3859 61.2915 20
44 1 2.61471 15.6909 18.0972 20
45 1 30.3077 11.5671 0.69086 21
46 1 28.194 14.8939 12.8525 23
47 1 11.2293 5.5444 17.3586 20
48 1 10.5569 12.6408 1.74718 16
49 1 6.53799 30.8566 3.74799 18
50 1 23.9731 13.7532 62.876 24
51 1 3.95776 0.184371 11.3935 22
52 1 15.9187 24.7384 12.488 21
53 1 1.26793 13.518 55.4207 20
54 1 8.13729 22.667 10.631 21
55 1 18.3543 14.7677 18.1789 18
56 1 4.07855 31.5963 42.3209 24
57 1 14.7773 2.13764 6.11186 23
58 1 12.4993 8.14748 25.8749 22
59 1 19.1966 12.726 23.4614 21
60 1 16.0249 9.71165 30.4226 21
61 1 28.8287 2.54562 56.1701 23
62 1 25.2733 29.2968 55.9182 21
63 1 32.6209 20.2959 5.11191 21
64 1 9.68781 8.89923 2.19334 19
65 1 6.99902 31.7016 14.9106 21
66 1 20.2503 30.6675 51.2189 22
67 1 1.3895 12.1398 37.192 20
68 1 19.9953 32.1694 17.4258 19
69 1 2.92112 23.7884 11.887 20
70 1 6.4586 11.6441 23.2392 22
71 1 30.2971 8.70833 17.3932 17
72 1 30.5163 22.7741 10.4788 21
73 1 7.10398 8.40227 8.80894 22
74 1 14.7997 5.40472 15.2561 22
75 1 27.3026 10.2937 1.8438 17
76 1 8.36527 8.56689 20.0541 22
77 1 2.65447 29.4977 52.3062 22
78 1 11.7651 1.41613 26.7582 23
79 1 29.6092 9.51112 55.9291 21
80 1 15.9803 9.20939 58.9388 22
81 1 26.7158 11.7808 22.2931 19
82 1 22.7391 20.2947 0.223229 21
83 1 9.93323 27.5871 0.589033 21
84 1 22.5356 22.7564 2.76281 24
85 1 5.11236 34.1165 13.912 22
86 1 19.0717 17.4781 8.25917 23
87 1 19.1844 33.9024 8.95803 23
88 1 11.4209 11.752 57.987 20
89 1 11.3411 0.618769 6.83981 23
90 1 11.3129 6.93443 0.318543 20
91 1 23.4515 24.1723 52.8815 21
92 1 20.5001 2.7255 8.65448 20
93 1 2.46311 14.0654 4.30906 18
94 1 2.44901 6.68638 11.3459 24
95 1 11.1284 20.0261 60.968 21
96 1 6.40263 22.5166 18.4698 21
97 1 27.0724 25.6029 49.5772 23
98 1 1.24174 0.171464 1.678 23
99 1 29.9216 0.615577 29.4108 22
100 1 16.5244 6.10104 35.5706 20
101 1 8.25284 34.1987 7.87618 24
102 1 13.6295 7.90121 8.79215 16
103 1 8.00507 15.5851 50.5222 23
104 1 10.5254 20.4451 5.49331 22
105 1 19.3867 14.0906 27.2581 20
106 1 31.546 1.17126 54.8308 25
107 1 32.3448 3.5244 24.6665 21
108 1 3.43551 4.80932 28.8879 19
109 1 17.1962 32.2354 6.52087 22
110 1 27.4921 1.77964 2.22234 22
111 1 24.6613 21.7543 60.9496 23
112 1 7.57727 6.43762 12.6002 23
113 1 32.8638 14.0322 38.5315 20
114 1 17.8461 9.69754 48.7606 23
115 1 13.3345 1.04036 18.3834 23
116 1 1.38737 10.2127 31.6528 23
117 1 25.5976 24.9887 9.5312 20
118 1 23.8378 3.43829 24.9042 22
119 1 29.4707 7.8959 61.3651 23
120 1 10.2676 27.2782 8.15504 24
121 1 13.6752 0.481414 3.02423 20
122 1 21.4458 12.8241 7.53984 22
123 1 3.63668 21.9153 45.7033 20
124 1 22.6759 1.61684 16.7647 22
125 1 22.4241 8.3823 28.0657 20
126 1 21.7581 11.6106 3.79499 19
127 1 14.3538 13.0993 51.4286 23
128 1 30.0128 28.8305 16.66 21
129 1 12.3164 12.7102 14.3633 22
130 1 18.6207 19.5863 1.02135 21
131 1 13.9736 13.8482 32.4868 21
132 1 2.9757 9.20056 25.4738 18
133 1 30.7409 29.0442 7.92943 22
134 1 31.2383 20.8089 16.9673 20
135 1 27.1517 22.3821 9.43279 21
136 1 14.9005 20.5247 49.0255 22
137 1 9.79223 8.45415 10.6954 21
138 1 1.71916 29.6276 1.59132 24
139 1 13.4501 29.0991 51.3075 20
140 1 16.5138 9.95133 61.2153 22
141 1 30.1264 0.901434 24.2668 19
142 1 21.5005 16.0137 13.1252 22
143 1 13.578 24.2899 22.2461 20
144 1 12.5849 14.5029 35.1138 19
145 1 16.1441 19.5429 51.7674 22
146 1 26.0215 9.56042 12.9931 23
147 1 32.0519 26.7688 1.80745 20
148 1 8.42343 12.3375 62.8912 21
149 1 15.536 1.72478 47.6933 19
150 1 3.74294 20.8695 12.0794 21
151 1 1.86134 28.705 27.404 25
152 1 10.2492 1.87494 15.5991 19
153 1 22.7123 8.44176 31.1907 21
154 1 7.53251 3.16067 62.357 23
155 1 14.1672 12.2743 62.5111 23
156 1 9.29965 9.95595 25.458 22
157 1 20.7547 10.2002 5.71399 22
158 1 18.6105 12.3729 15.1238 20
159 1 3.5343 12.9526 10.1191 19
160 1 14.0464 29.6957 57.2004 17
161 1 14.5252 30.89 18.827 21
162 1 17.8241 15.8812 30.0128 21
163 1 7.22578 12.7506 48.7102 21
164 1 28.0313 1.67457 14.374 21
165 1 16.0859 19.6821 4.46841 23
166 1 22.6022 22.8482 63.3793 25
167 1 30.9117 10.737 14.8715 22
168 1 17.3919 1.53755 13.4023 21
169 1 14.8296 7.21322 19.9885 19
170 1 7.54748 11.4311 32.7597 23
171 1 19.6554 25.2878 59.9406 21
172 1 28.8683 32.5416 21.9457 20
173 1 19.6007 21.6291 29.2594 20
174 1 23.8625 19.8267 2.88949 22
175 1 31.9186 31.9593 2.39075 21
176 1 20.6094 25.7615 42.4666 22
177 1 18.1393 17.0253 16.5005 21
178 1 3.7869 25.9307 14.9412 21
179 1 25.0747 26.4515 17.8746 23
180 1 29.0366 27.6587 6.87257 18
181 2 10.0521 13.084 57.761 21
182 2 14.0138 16.3954 54.5978 21
183 2 20.9791 7.20579 49.6044 25
184 2 12.1899 8.11968 62.9071 22
185 2 5.61593 30.3685 41.3895 21
186 2 27.9382 28.3939 25.151 22
187 2 15.2948 31.6041 12.1159 23
188 2 19.3132 30.1229 21.8477 20
189 2 26.7188 6.28243 15.0274 23
190 2 13.0589 3.02412 18.8933 20
191 2 0.789515 9.66662 33.1779 24
192 2 12.6978 22.3143 6.83312 21
193 2 16.2234 22.6447 58.5225 20
194 2 23.7296 26.3688 0.572941 24
195 2 29.7029 6.6626 2.72998 21
196 2 5.94229 9.27178 10.6632 21
197 2 30.8994 24.3071 4.0907 18
198 2 6.07373 11.3036 8.04394 23
199 2 14.8413 13.7017 60.9712 22
200 2 17.9671 11.9344 13.3661 19
201 2 31.7092 9.89508 60.302 18
202 2 30.5427 3.22387 25.4295 21
203 2 30.1597 12.5658 10.0041 19
204 2 20.397 11.2373 30.3964 22
205 2 24.9769 14.3412 5.66353 22
206 2 22.1475 6.33345 7.44327 19
207 2 31.9017 5.00025 54.3226 26
208 2 28.9859 23.4907 5.79053 20
209 2 26.2504 11.1633 56.4702 22
210 2 15.0993 1.95243 31.7001 18
211 2 23.0665 15.9654 53.6587 21
212 2 8.42374 12.5095 8.75211 21
213 2 26.5194 21.6251 7.42723 20
214 2 16.335 11.8503 62.2675 17
215 2 7.0592 24.1863 1.38082 22
216 2 31.1788 34.1014 30.6182 20
217 2 1.61046 32.3777 46.4723 22
218 2 11.3396 18.9512 32.835 21
219 2 14.9103 18.508 3.17313 21
220 2 9.90338 0.928785 27.1515 21
221 2 24.8713 21.3966 45.1667 21
222 2 31.5427 21.2008 10.2005 20
223 2 4.39403 17.5314 18.2343 20
224 2 14.1294 3.21068 22.1172 22
225 2 22.0687 31.7887 14.48 20
226 2 17.1082 15.2658 17.0182 19
227 2 12.8962 6.18293 16.9634 23
228 2 26.6839 23.0646 56.4321 21
229 2 30.8784 4.49431 28.469 22
230 2 9.21873 2.73349 14.1116 23
231 2 31.8631 21.6802 6.37451 20
232 2 10.2236 22.2557 59.54 18
233 2 12.7492 5.41644 58.2479 18
234 2 8.42763 1.768 12.2068 22
235 2 13.3116 11.2406 54.7728 22
236 2 23.4689 19.521 53.5355 21
237 2 0.223902 6.09805 8.51649 21
238 2 17.786 27.1399 56.3818 19
239 2 28.0356 17.9359 27.1511 18
240 2 16.5078 11.8387 52.8938 22
241 2 10.2608 0.0248835 0.51716 18
242 2 25.6463 31.8996 17.2245 18
243 2 6.93621 8.24491 29.4456 21
244 2 1.31762 12.0721 45.8623 22
245 2 28.6622 4.98992 11.532 18
246 2 27.4291 8.62821 61.8926 19
247 2 25.3212 25.2753 24.0885 18
248 2 11.2669 0.964494 18.7203 20
249 2 12.0257 4.5676 44.854 21
250 2 21.0441 33.3689 9.60972 24
251 2 15.5886 12.9854 37.5656 19
252 2 28.8946 13.0776 61.9052 18
253 2 22.4322 7.40693 10.3329 19
254 2 5.8608 4.37084 55.8796 22
255 2 21.4906 29.38 6.40482 20
256 2 9.27308 18.4957 5.25701 20
257 2 20.4819 12.1618 14.0047 20
258 2 8.84276 17.6673 62.042 22
259 2 17.2885 11.6498 24.4532 23
260 2 6.54924 12.6112 58.2537 16
261 2 29.277 18.3007 11.7685 21
262 2 5.27701 10.1891 22.2951 19
263 2 9.46321 21.722 6.55611 23
264 2 13.7744 7.70222 30.1027 23
265 2 18.2938 16.9085 40.8012 21
266 2 4.93108 27.0558 5.46556 21
267 2 13.2862 16.219 7.61088 18
268 2 15.1272 32.8926 63.0899 19
269 2 30.0247 16.0998 16.9857 24
270 2 25.2069 0.862229 61.9488 22
271 2 7.64917 20.4803 11.8759 20
272 2 7.72341 5.94674 30.0409 22
273 2 26.183 15.8424 39.4303 22
274 2 28.5819 31.8898 20.0258 22
275 2 1.43282 25.1134 53.4849 19
276 2 14.5303 20.5784 5.45851 21
277 2 23.2932 32.1463 10.8102 21
278 2 26.3655 15.0847 35.7736 20
279 2 7.52177 7.00682 17.9239 20
280 2 15.479 16.9506 9.94342 19
281 2 13.1962 0.384583 7.22454 20
282 2 24.2229 4.65784 2.22473 21
283 2 20.4334 1.29585 10.1259 20
284 2 19.4223 21.1746 9.46169 24
285 2 19.0794 14.7035 22.7298 22
286 2 0.569001 3.01836 10.6071 21
287 2 14.073 13.4776 30.0478 21
288 2 10.2173 22.2172 33.3205 19
289 2 19.7877 3.88711 1.84659 20
290 2 4.62403 7.48951 56.5151 19
291 2 15.4892 8.9721 23.1964 22
292 2 4.34003 5.18374 47.563 21
293 2 21.5881 15.7099 21.0458 21
294 2 23.3002 1.14482 -0.306045 21
295 2 16.3249 30.0993 60.8098 16
296 2 14.6179 26.9792 50.7223 20
297 2 17.9515 23.116 52.6645 22
298 2 20.0208 27.1661 22.3756 22
299 2 3.13873 21.4906 55.7341 20
300 2 26.148 8.98924 28.5619 23
301 2 26.4863 14.183 16.3036 21
302 2 0.983658 29.6145 45.7816 17
303 2 17.0519 2.66369 46.4695 19
304 2 27.8835 0.225414 1.03513 18
305 2 6.19061 21.1951 29.1407 18
306 2 32.1733 7.36517 23.018 20
307 2 11.0944 14.521 52.1558 23
308 2 16.0826 5.27711 16.638 20
309 2 10.6339 17.7981 2.96278 24
310 2 32.001 17.2107 48.0586 21
311 2 11.3214 6.24781 23.4095 22
312 2 20.0038 23.6855 26.4998 19
313 2 4.4172 5.41022 2.01202 21
314 2 17.0965 0.742459 15.1811 19
315 2 5.76764 21.8879 0.352371 19
316 2 31.2809 3.90899 19.542 22
317 2 14.7632 24.9522 23.566 23
318 2 31.9296 6.66035 5.4294 25
319 2 4.76307 33.9811 22.3128 23
320 2 11.9709 26.5928 59.2319 19
321 2 16.758 31.6236 24.4898 20
322 2 18.4058 14.5012 57.3493 19
323 2 18.3343 32.3019 0.881385 20
324 2 9.22073 21.2148 2.87992 21
325 2 14.639 19.1729 12.4665 21
326 2 25.7999 9.6718 63.7417 19
327 2 11.0659 11.5351 36.2788 22
328 2 19.4569 1.58406 63.0349 22
329 2 14.0779 15.1534 46.1005 22
330 2 23.4689 3.96258 13.181 21
331 2 10.6025 12.1224 22.8307 20
332 2 0.880783 16.8467 51.2211 22
333 2 13.518 10.3656 62.1434 20
334 2 11.4147 19.9791 11.1831 22
335 2 7.25726 11.7182 16.2976 21
336 2 6.58316 6.92308 1.03263 24
337 2 13.3411 31.4232 59.1598 20
338 2 11.7722 32.3809 55.2649 20
339 2 16.6394 28.0143 4.93219 20
340 2 11.4483 21.5556 4.05629 21
341 2 29.4333 16.843 61.9963 21
342 2 28.1034 16.7765 53.0999 20
343 2 17.2007 15.6231 -0.223006 20
344 2 4.83518 31.0353 23.4583 21
345 2 21.221 33.1477 41.3521 20
346 2 27.3516 1.77758 49.0305 20
347 2 9.31115 26.6526 37.0155 21
348 2 16.0937 20.4483 21.5097 20
349 2 22.7219 25.8323 13.3577 23
350 2 22.1314 13.0857 39.7131 23
351 2 9.90493 8.13557 29.5087 22
352 2 13.9634 28.6433 60.0074 19
353 2 25.1906 13.19 26.9654 19
354 2 10.1173 18.3851 49.1674 18
355 2 12.1094 13.1223 62.0392 19
356 2 18.4206 18.4508 10.0035 25
357 2 15.5619 22.9951 55.4108 21
358 2 16.7867 19.7789 0.791605 19
359 2 8.38939 32.3527 7.23469 21
360 2 5.76383 4.39759 24.6279 21
361 1 9.06066 11.6508 15.4583 23
362 1 8.31154 3.86939 11.3174 22
363 1 5.69341 3.85361 32.236 19
364 1 20.2613 14.0415 2.75606 23
365 1 13.3139 3.43253 -0.191589 19
366 1 9.86871 0.832447 38.9216 23
367 1 14.3842 25.1022 16.098 25
368 1 8.13932 8.22144 23.063 21
369 1 24.9762 2.49971 27.4544 17
370 1 5.55319 17.1448 16.4184 24
371 1 14.1966 28.3339 15.7536 20
372 1 19.7983 0.627541 27.6725 20
373 1 15.8249 3.16957 61.8176 17
374 1 6.72612 23.4199 64.0087 23
375 1 1.78204 21.6577 62.4581 26
376 1 24.8174 22.9554 30.8902 19
377 1 30.6359 34.0253 34.7559 18
378 1 23.1027 20.4931 45.0889 21
379 1 6.00601 17.4796 31.6321 21
380 1 21.5241 25.146 0.718387 21
381 1 21.0787 2.18262 59.3303 17
382 1 5.52402 30.2744 1.35086 22
383 1 30.0396 2.81436 4.80005 21
384 1 21.3298 17.9117 5.8433 23
385 1 5.90023 8.27834 17.8965 22
386 1 13.3371 20.0922 3.88382 19
387 1 22.2231 26.1071 57.6783 20
388 1 13.9913 18.1204 24.3708 18
389 1 9.94602 31.7967 21.536 22
390 1 30.3154 1.765 12.1876 20
391 1 1.44803 21.7186 22.6256 21
392 1 10.1232 14.375 16.7972 23
393 1 23.4756 8.56332 41.307 22
394 1 18.4202 6.80775 25.3474 21
395 1 15.703 8.11265 50.5878 23
396 1 2.90804 12.5377 18.165 25
397 1 6.77581 27.581 1.25957 18
398 1 4.07904 23.2889 54.6622 22
399 1 27.0228 25.4839 19.9105 21
400 1 4.32929 15.9594 42.0046 19
401 1 24.6403 31.6865 27.5368 22
402 1 29.7356 26.7682 24.8889 21
403 1 13.0526 24.3631 42.1088 19
404 1 0.999119 16.8375 36.4791 20
405 1 23.7806 31.7268 21.7839 17
406 1 15.9617 15.6766 8.64702 25
407 1 9.4031 30.9447 6.21389 20
408 1 15.4036 31.5067 29.0023 18
409 1 26.9003 5.56894 23.3454 21
410 1 25.1949 1.8483 34.4756 23
411 1 11.9736 25.9742 33.5653 21
412 1 5.57673 27.9407 26.5601 21
413 1 2.07262 27.534 21.2234 21
414 1 27.2737 31.3828 10.5188 17
415 1 16.0547 12.3151 12.7335 21
416 1 0.597358 26.0169 29.9059 21
417 1 27.9442 13.3592 44.4033 18
418 1 10.8464 13.6136 5.53915 22
419 1 19.572 26.2623 20.1636 21
420 1 10.1688 19.3673 15.6828 23
421 1 17.0405 24.6683 18.3328 23
422 1 5.96166 4.83693 14.5828 20
423 1 24.3569 16.0349 2.28702 22
424 1 12.6766 10.9539 35.119 21
425 1 28.4318 17.141 48.8038 20
426 1 21.458 15.7809 32.0735 21
427 1 19.342 12.7703 5.17645 23
428 1 5.82656 14.5605 5.5332 16
429 1 7.05626 2.79327 13.8204 22
430 1 3.82381 15.9558 44.5313 20
431 1 25.0743 11.7405 15.2131 20
432 1 21.8263 2.11363 36.0609 21
433 1 5.8023 14.1922 63.6591 21
434 1 25.0849 9.36161 34.9513 18
435 1 6.64904 1.58129 39.2438 25
436 1 16.6106 21.3114 25.6716 20
437 1 30.337 14.3429 2.24849 23
438 1 15.9453 33.6386 47.8395 22
439 1 31.3629 28.0965 4.28134 24
440 1 23.2152 24.2063 14.6179 22
441 1 19.3876 9.12784 18.2269 21
442 1 15.5179 11.9657 22.9829 26
443 1 21.0842 17.3672 37.3933 25
444 1 6.14268 33.0126 47.8251 21
445 1 0.591006 22.8209 28.4853 22
446 1 25.0001 6.56395 14.0637 20
447 1 15.0706 22.572 18.3126 21
448 1 26.2905 19.1918 49.4694 24
449 1 16.2062 22.3369 15.6938 20
450 1 2.71122 14.0047 23.9228 18
451 1 5.35821 20.3642 34.1243 20
452 1 8.74835 1.00262 10.5901 24
453 1 7.69111 31.0131 50.2896 21
454 1 8.27697 14.9481 61.602 21
455 1 31.38 25.7949 10.75 19
456 1 8.7528 23.7549 19.6967 20
457 1 13.4555 9.1771 22.6228 25
458 1 18.3497 27.3577 31.0951 22
459 1 21.6318 10.9735 15.6026 18
460 1 23.1735 17.9146 22.9404 24
461 1 0.374022 14.7468 51.8142 21
462 1 1.85508 12.1882 26.1125 22
463 1 21.7126 11.0468 39.1751 23
464 1 16.2912 9.52076 20.4963 22
465 1 25.902 24.3046 57.7786 21
466 1 24.7774 6.22243 53.5469 21
467 1 1.43009 8.02425 8.65765 22
468 1 15.9308 2.13037 33.4652 23
469 1 21.3947 18.5092 57.1537 22
470 1 23.6838 22.6358 35.8938 22
471 1 23.91 14.4058 8.96653 20
472 1 16.0401 6.88091 23.0651 21
473 1 14.4567 28.2682 4.9457 20
474 1 31.4494 21.1691 8.12568 21
475 1 14.0519 3.37859 25.1865 23
476 1 20.7596 23.1857 15.9723 23
477 1 20.9241 9.16008 48.7673 20
478 1 27.7187 32.0797 38.7512 20
479 1 21.7036 15.9013 8.78146 19
480 1 16.3942 25.8493 29.1025 20
481 1 2.36844 4.68538 21.369 21
482 1 29.2568 14.8433 18.1345 24
483 1 16.7074 28.8988 10.1095 25
484 1 17.8977 8.64609 1.90003 21
485 1 21.6226 14.1466 10.7529 22
486 1 14.8048 33.5786 6.03755 21
487 1 21.8204 9.04684 36.7062 21
488 1 10.6075 24.9799 36.6669 19
489 1 16.5895 7.49343 54.4788 19
490 1 18.3675 1.93331 61.2591 23
491 1 12.2265 20.7079 37.247 23
492 1 10.1218 29.4501 19.4495 22
493 1 29.42 11.0616 28.903 20
494 1 23.1616 13.9039 30.6355 21
495 1 7.73894 33.9996 16.7663 21
496 1 2.6853 12.8557 31.9864 24
497 1 2.6807 15.3039 27.0241 22
498 1 22.4596 32.7531 12.3758 20
499 1 29.729 2.2995 32.5886 22
500 1 4.52205 16.727 61.1222 19
501 1 3.46309 18.9726 58.3724 23
502 1 0.267332 31.8258 35.2211 20
503 1 12.904 34.2498 14.5595 19
504 1 22.4153 3.67018 38.2787 18
505 1 24.6284 29.1969 10.2062 22
506 1 13.284 1.46243 30.9969 21
507 1 23.7839 23.2092 10.7036 24
508 1 25.164 12.902 12.6696 19
509 1 18.5517 34.1667 21.8286 20
510 1 31.7486 14.5811 28.0486 21
511 1 27.4334 22.3308 36.0026 20
512 1 1.27684 29.163 55.3177 20
513 1 13.3088 26.6578 28.3123 23
514 1 8.08854 16.9027 16.2841 23
515 1 20.6571 23.3142 32.1944 21
516 1 11.7007 24.4911 27.0802 23
517 1 18.3139 13.7288 8.62873 21
518 1 22.3224 28.1575 12.2015 20
519 1 27.91 12.6502 10.27 21
520 1 31.5872 9.28644 40.7124 19
521 1 27.9918 17.4786 10.6399 21
522 1 4.71657 11.3372 63.3702 22
523 1 4.87854 32.905 50.6474 20
524 1 2.94432 29.1481 8.89551 19
525 1 28.5367 22.782 0.226442 22
526 1 31.0384 18.9205 33.8373 19
527 1 13.3123 8.11745 34.4231 21
528 1 14.4057 22.3158 13.3032 21
529 1 1.77481 32.0685 19.5841 24
530 1 0.283717 9.56937 27.6482 21
531 1 31.9605 26.7275 43.0927 22
532 1 16.6985 11.5802 6.25729 22
533 1 20.2709 14.1212 20.9043 19
534 1 26.5551 16.8297 34.9405 22
535 1 18.6253 31.1778 8.7311 21
536 1 19.4751 8.84925 26.7081 19
537 1 4.56346 5.70765 23.0017 21
538 1 6.74719 15.3639 8.55277 20
539 1 4.64706 15.4044 34.8659 21
540 1 16.9903 18.1697 10.8943 24
541 2 11.7796 18.4775 63.5379 23
542 2 28.8047 12.1618 43.4504 22
543 2 15.1093 31.4639 21.8039 18
544 2 16.7329 14.9751 53.1588 20
545 2 1.31228 20.0727 30.5423 19
546 2 24.645 33.1237 36.4824 24
547 2 21.514 25.1633 24.2396 20
548 2 13.2028 3.459 30.9273 21
549 2 17.3801 4.39357 21.8852 24
550 2 25.9475 29.1431 63.4156 25
551 2 10.4374 27.3238 4.19065 22
552 2 0.481831 15.6991 34.9914 23
553 2 23.3185 4.43003 30.8003 20
554 2 22.5418 13.2724 24.0197 22
555 2 28.3674 1.63084 42.0953 21
556 2 3.81609 30.524 53.3587 20
557 2 3.93734 2.20247 31.5228 17
558 2 18.7905 24.0375 37.3957 22
559 2 18.9473 25.5743 18.7811 21
560 2 6.32775 13.8052 1.03266 20
561 2 1.93901 3.57334 25.2838 23
562 2 4.6531 7.31538 42.0526 27
563 2 5.49856 18.6053 30.3318 19
564 2 26.2976 13.9397 46.914 24
565 2 2.35332 25.597 16.3942 22
566 2 1.71474 14.5774 9.31656 18
567 2 1.51216 30.2193 26.2831 22
568 2 3.26448 29.8328 41.442 18
569 2 23.3528 26.4734 4.69637 21
570 2 3.84014 8.54915 34.2063 21
571 2 9.80475 9.96139 16.5117 21
572 2 14.9826 26.8574 44.5592 21
573 2 28.9225 25.6051 23.5395 21
574 2 21.9093 24.7395 34.6607 21
575 2 11.7889 29.6804 43.2074 19
576 2 2.75981 18.8752 43.8507 23
577 2 11.6136 27.9714 24.3928 20
578 2 7.4796 29.8161 53.0534 20
579 2 27.2866 17.1607 46.9369 22
580 2 22.6781 18.651 24.8071 21
581 2 22.4801 15.5166 29.9356 19
582 2 24.0621 21.3979 29.9584 20
583 2 17.4554 14.3536 11.4008 20
584 2 17.5485 15.5786 25.8068 20
585 2 13.6039 11.2507 22.2426 23
586 2 1.01335 16.0941 26.9976 18
587 2 28.7136 27.4636 48.9576 19
588 2 15.8408 4.48867 39.0047 24
589 2 16.5859 19.9643 23.9753 18
590 2 11.3932 14.7433 26.6515 23
591 2 26.1744 4.09389 40.8317 21
592 2 4.70417 30.1323 16.2966 17
593 2 20.2602 3.31688 22.798 19
594 2 22.9503 31.2395 26.822 22
595 2 19.5266 2.54145 12.9767 21
596 2 1.35392 12.2041 30.8106 20
597 2 0.309657 20.4738 34.1844 17
598 2 14.4361 4.69379 27.8589 22
599 2 28.8443 24.082 31.6893 20
600 2 26.6424 22.7105 32.1146 20
601 2 3.52981 21.9591 13.7115 19
602 2 19.5205 6.451 20.5741 21
603 2 29.4527 27.7844 26.8802 20
604 2 20.215 0.0143373 4.22681 21
605 2 7.76024 26.4867 34.2768 19
606 2 30.4912 33.5528 41.5086 21
607 2 10.791 20.3426 13.7905 19
608 2 20.7474 13.4316 36.809 22
609 2 17.6108 4.76642 7.68698 19
610 2 10.8538 21.6799 24.277 20
611 2 28.0906 4.57361 51.2396 24
612 2 13.6579 8.19247 57.6467 20
613 2 12.1569 2.48137 28.4973 22
614 2 28.8601 29.9457 15.1147 19
615 2 13.3959 33.3796 18.8868 20
616 2 22.3893 30.9189 54.0172 22
617 2 27.0785 23.4332 16.8284 19
618 2 23.4308 0.671318 30.9991 21
619 2 5.18844 7.60083 8.24386 19
620 2 17.9504 19.2199 35.1778 22
621 2 11.383 11.2596 8.64526 22
622 2 15.0372 17.8108 40.3574 20
623 2 5.64664 12.2122 11.403 23
624 2 15.4281 9.31393 32.2954 20
625 2 32.3596 20.3173 55.3939 20
626 2 31.3103 31.7761 11.3339 22
627 2 24.7842 12.3047 18.4703 23
628 2 29.4568 29.6791 6.62843 19
629 2 27.8502 29.3888 17.5139 20
630 2 27.472 9.2702 38.6915 20
631 2 13.8487 17.6145 37.1218 20
632 2 28.925 28.3701 31.4835 21
633 2 9.0852 9.73831 39.8766 22
634 2 16.2213 33.4022 17.6685 23
635 2 13.1315 4.43508 41.6963 22
636 2 9.5348 20.587 21.8639 24
637 2 8.01383 17.1096 45.8648 20
638 2 22.6963 18.8877 16.103 17
639 2 21.2802 4.87911 28.36 19
640 2 23.3918 15.8858 23.838 19
641 2 25.4857 31.2456 21.3878 19
642 2 17.0004 7.66146 28.3811 24
643 2 2.3709 16.4781 42.1432 19
644 2 1.0414 10.1237 22.2945 20
645 2 16.7746 5.62206 12.4906 21
646 2 1.78447 33.1801 53.4677 22
647 2 31.3826 24.0861 15.0409 20
648 2 16.4378 23.894 26.5376 22
649 2 28.6847 32.2955 9.49633 19
650 2 16.2265 20.4492 36.3724 22
651 2 18.4068 5.41703 18.5946 22
652 2 2.49774 17.2566 30.4666 23
653 2 21.9828 33.3363 33.1074 22
654 2 26.6277 14.5604 22.4474 21
655 2 3.55868 22.48 52.985 21
656 2 32.1712 7.3853 57.2763 25
657 2 9.68857 5.23048 31.5917 20
658 2 11.4973 5.55901 19.7311 21
659 2 14.6536 1.71508 4.22997 21
660 2 25.0614 3.4786 8.40982 18
661 2 25.8825 27.3826 49.6084 22
662 2 27.1472 2.03794 35.9683 17
663 2 25.0805 28.5095 1.9306 21
664 2 31.754 15.8086 10.8336 15
665 2 9.32455 5.85471 34.9663 22
666 2 12.8757 17.2891 25.6649 18
667 2 12.683 9.65989 24.5033 22
668 2 26.2117 15.3124 31.501 18
669 2 20.1982 10.343 35.1255 18
670 2 21.8015 33.2692 45.8033 19
671 2 19.0653 -0.0890257 38.8041 19
672 2 0.371347 33.1801 33.8154 20
673 2 4.45028 19.1161 12.5692 21
674 2 31.648 24.0786 10.8956 20
675 2 21.4835 9.80594 10.26 22
676 2 14.3037 33.5286 44.897 24
677 2 17.0992 23.1947 40.3478 21
678 2 1.31119 18.0216 22.8054 23
679 2 1.96612 30.6183 23.6711 21
680 2 14.9235 20.5998 18.2727 21
681 2 21.536 23.2452 52.4951 21
682 2 10.6236 14.4435 35.2341 18
683 2 24.9959 25.7679 19.8407 22
684 2 27.2747 20.3451 35.4967 19
685 2 14.3289 32.8465 15.0295 19
686 2 17.8836 24.5157 28.9674 23
687 2 14.398 3.41599 16.4183 20
688 2 18.8287 31.36 50.39 18
689 2 12.7836 23.0688 9.58771 22
690 2 20.8295 9.57023 19.4675 21
691 2 17.6617 21.2839 38.0584 22
692 2 31.9982 20.6751 21.6188 20
693 2 2.35317 3.83978 8.41531 20
694 2 21.5148 18.5581 47.9009 24
695 2 24.169 2.96555 16.7332 23
696 2 25.5432 30.181 28.1805 17
697 2 5.58424 24.4068 62.4939 22
698 2 24.971 24.3314 14.1654 23
699 2 30.7399 0.369077 10.817 19
700 2 8.35259 18.6762 8.10838 20
701 2 17.3547 11.1148 30.6877 20
702 2 31.3359 22.2981 29.3836 19
703 2 32.4591 5.6006 25.6969 24
704 2 1.21768 2.10456 55.2324 23
705 2 26.4192 22.902 25.7062 18
706 2 25.6182 28.3066 23.2166 23
707 2 13.0434 21.4633 14.3666 20
708 2 27.5929 31.0466 26.8511 19
709 2 8.25571 33.2597 60.6953 20
710 2 32.0332 19.0207 12.8352 20
711 2 12.1475 17.8938 19.8571 19
712 2 16.5546 0.21854 2.54222 20
713 2 4.7511 11.6959 52.0021 19
714 2 25.4679 4.58343 52.4976 19
715 2 21.9448 20.5145 38.7882 20
716 2 1.70857 18.5862 54.3755 22
717 2 7.8803 17.2012 41.9078 18
718 2 15.0835 34.2621 10.0884 21
719 2 8.37178 13.0241 36.024 23
720 2 1.81631 5.65083 51.9856 24
721 1 25.1617 30.743 -0.23034 21
722 1 29.7911 19.0952 4.69076 20
723 1 9.36314 9.96134 57.1931 22
724 1 10.3592 3.27623 9.49792 21
725 1 29.8722 15.8886 20.9148 21
726 1 3.25247 13.7951 1.49966 20
727 1 13.8074 15.8172 59.0606 20
728 1 17.6393 16.1518 13.5356 19
729 1 11.52 33.6047 1.89061 22
730 1 23.9972 19.1566 17.3797 20
731 1 10.2843 27.1043 13.913 20
732 1 31.0904 24.9296 22.4101 17
733 1 20.8709 16.4809 51.0605 20
734 1 26.4894 6.80567 47.7695 19
735 1 30.8828 13.6006 15.002 24
736 1 1.23099 8.75845 3.33396 21
737 1 0.395799 30.4902 21.5992 22
738 1 23.932 10.357 0.48428 22
739 1 18.654 15.1155 6.25669 22
740 1 8.45935 12.8299 6.86037 24
741 1 23.4264 29.4579 4.99692 22
742 1 15.8806 22.6537 10.0059 21
743 1 12.0656 2.60179 4.77958 21
744 1 5.01065 20.2144 21.4438 15
745 1 26.4201 3.69542 17.4391 18
746 1 1.3604 25.7258 48.2338 21
747 1 26.2156 17.5633 60.6608 21
748 1 31.2218 6.11827 62.6902 21
749 1 16.6153 -0.136235 61.3157 19
750 1 1.38337 33.2587 48.7046 20
751 1 6.99758 26.5881 7.848 22
752 1 3.29264 13.3636 12.935 24
753 1 9.68064 7.82845 7.37053 18
754 1 20.3519 21.8169 35.22 24
755 1 15.3907 6.61567 38.5615 19
756 1 14.2539 15.3576 13.7159 19
757 1 10.1019 10.2775 5.3593 20
758 1 11.1357 25.75 3.10477 22
759 1 22.614 8.41414 54.3767 21
760 1 9.92278 18.7961 63.6721 23
761 1 11.297 0.470682 10.3045 24
762 1 19.0732 20.6651 7.58181 25
763 1 31.9272 8.90277 21.429 22
764 1 27.3686 31.7163 42.7612 22
765 1 30.2463 27.2338 31.8726 20
766 1 3.46926 6.39792 43.0834 28
767 1 2.34555 14.3439 20.4031 19
768 1 24.0723 26.5222 48.3695 23
769 1 1.41152 23.9323 41.3621 21
770 1 1.30166 27.8962 6.84463 22
771 1 15.7303 18.0795 62.3985 24
772 1 17.1598 19.1826 14.5782 21
773 1 1.22548 0.985164 19.2299 25
774 1 22.0516 32.8915 4.77873 21
775 1 16.9739 27.7528 0.0177942 19
776 1 19.7506 30.5598 26.3094 20
777 1 23.6497 25.8637 23.8755 20
778 1 28.9531 28.2068 50.5725 24
779 1 23.8773 17.4929 43.6816 22
780 1 16.4635 12.7233 60.3686 21
781 1 31.1028 23.4447 13.0122 27
782 1 15.5912 26.5174 10.0922 20
783 1 6.17602 25.6996 49.0058 21
784 1 1.9543 13.1742 7.23892 18
785 1 0.948565 16.4149 56.9306 23
786 1 6.9587 17.9686 62.9245 19
787 1 11.3294 22.3601 14.4727 17
788 1 31.5199 9.96247 5.63365 20
789 1 13.4403 24.7228 10.1024 23
790 1 31.2378 0.983856 42.1255 20
791 1 6.26701 8.5665 42.7985 24
792 1 9.78032 17.017 13.8183 21
793 1 28.2105 0.829712 63.1877 23
794 1 1.58565 30.8308 57.7 17
795 1 3.67695 9.04932 44.7344 20
796 1 11.9003 15.269 11.7997 22
797 1 28.6779 20.6209 13.2134 21
798 1 20.3323 15.4033 57.7871 19
799 1 11.1251 17.9023 11.2456 21
800 1 10.1861 10.3885 21.7236 23
801 1 24.6427 16.6706 25.3068 19
802 1 6.13957 28.9121 9.84101 20
803 1 5.03953 10.4904 20.0755 21
804 1 14.3689 25.8747 52.1102 21
805 1 13.3223 11.7775 29.8257 22
806 1 8.78595 19.0789 26.655 17
807 1 3.08397 18.5309 22.0852 21
808 1 17.2406 14.3007 1.73421 23
809 1 31.2567 21.3755 42.3679 23
810 1 9.44404 0.916289 54.81 23
811 1 10.4774 1.5705 29.0909 19
812 1 6.59803 5.1915 43.1404 25
813 1 16.2055 19.52 17.3111 23
814 1 11.9369 0.943449 51.971 22
815 1 20.0055 28.4262 8.81956 19
816 1 12.2397 20.2909 63.9422 18
817 1 11.8224 11.347 62.0768 20
818 1 2.00525 19.1847 61.5397 21
819 1 26.4989 29.1834 59.336 19
820 1 4.41611 12.3128 57.7927 21
821 1 18.7574 12.6094 61.9073 21
822 1 3.33962 8.81249 57.1592 23
823 1 14.8914 28.5024 24.4614 23
824 1 14.678 14.9034 0.103477 20
825 1 3.5613 15.7455 8.98495 19
826 1 25.6104 6.69339 16.8995 21
827 1 18.9377 16.6436 22.3522 21
828 1 24.0254 11.7455 28.2606 22
829 1 5.83051 24.1177 52.2884 23
830 1 5.07113 33.7153 2.6453 19
831 1 10.543 29.5637 49.9396 21
832 1 1.72756 6.19972 57.2542 23
833 1 25.1578 0.329119 5.06277 22
834 1 4.96776 31.6045 17.7654 23
835 1 9.21659 25.5355 5.57219 24
836 1 20.0511 0.342929 49.9839 15
837 1 24.0991 4.85037 35.7029 20
838 1 15.1519 6.46032 32.887 18
839 1 32.6398 5.68698 22.4649 20
840 1 15.3917 16.7831 30.968 25
841 1 3.24153 23.1626 3.79201 21
842 1 10.1622 22.4253 54.9028 18
843 1 31.5175 19.6064 63.7397 22
844 1 14.2915 22.6156 7.76035 21
845 1 8.01114 4.78624 0.420327 23
846 1 8.0568 10.0094 17.3274 25
847 1 32.2474 13.783 31.7979 24
848 1 1.6626 20.0546 35.6671 20
849 1 29.1572 15.1045 61.1244 18
850 1 24.225 1.89005 1.21239 21
851 1 21.4834 26.6217 22.8861 19
852 1 5.60047 18.246 19.6141 22
853 1 26.9921 25.8605 7.23259 19
854 1 4.47624 19.5171 40.2764 19
855 1 16.6822 20.0026 8.04831 21
856 1 28.8097 5.25204 48.3151 23
857 1 8.60608 9.69416 28.5579 21
858 1 27.2854 6.04923 13.1611 20
859 1 30.1556 4.64306 13.2666 15
860 1 13.6402 8.42927 31.7554 21
861 1 17.9761 11.1938 51.0919 20
862 1 14.4802 18.2652 29.1896 22
863 1 0.270931 14.8541 24.0216 21
864 1 8.09161 19.6918 9.81945 21
865 1 16.3082 31.7233 62.2305 18
866 1 15.7991 16.7283 3.71121 20
867 1 26.363 10.1609 10.1772 23
868 1 27.4396 19.5569 8.26518 19
869 1 22.0908 28.3432 20.1969 21
870 1 23.8259 3.58285 59.5783 21
871 1 15.8395 32.8917 3.5251 18
872 1 11.66 30.1713 1.31343 21
873 1 24.7363 25.0468 4.79745 19
874 1 23.0318 12.5838 18.0685 22
875 1 22.5968 4.21764 56.531 21
876 1 2.80686 19.8636 6.55481 22
877 1 1.6664 18.5998 12.8609 22
878 1 1.47123 0.907715 60.2808 22
879 1 10.5844 16.3377 1.68864 21
880 1 29.3901 14.1411 53.6078 23
881 1 6.66519 7.87826 27.6548 20
882 1 9.02913 7.36859 39.8537 22
883 1 8.05778 12.0213 38.7054 21
884 1 8.63598 8.67949 51.6082 23
885 1 22.8095 6.04369 8.8789 19
886 1 19.9052 25.3496 25.5085 24
887 1 23.9098 22.0164 28.1562 22
888 1 21.7812 4.3896 23.4699 24
889 1 1.79105 22.5776 14.0563 19
890 1 15.2617 24.0091 59.2897 20
891 1 7.81454 21.1949 62.2038 25
892 1 6.87672 1.43948 30.2383 19
893 1 29.5914 27.8715 59.2505 19
894 1 9.74687 33.8417 4.47791 20
895 1 25.136 15.9542 13.5502 21
896 1 25.7138 29.0647 50.5468 22
897 1 12.934 19.5597 12.9315 21
898 1 16.2769 5.73037 27.9199 20
899 1 22.2869 0.689033 9.74074 20
900 1 10.6901 18.7118 8.18493 21
901 2 1.49257 32.7749 16.3769 19
902 2 20.1469 2.33111 26.3586 26
903 2 3.17928 33.7033 14.0231 20
904 2 9.97041 8.56819 24.4534 20
905 2 12.5895 7.42825 10.6705 21
906 2 13.9764 33.0508 4.39756 23
907 2 22.9496 6.2535 52.567 20
908 2 15.6117 34.0798 58.0435 19
909 2 8.85806 26.5725 29.188 24
910 2 2.0375 22.026 11.4358 20
911 2 12.4243 33.4593 10.6692 21
912 2 25.9525 4.26944 62.4978 20
913 2 4.07384 12.136 0.852756 19