ITEM: TIMESTEP
79000
ITEM: NUMBER OF ATOMS
5760
ITEM: BOX BOUNDS pp pp pp
0.0074794133 32.7925205867
-0.6535919786 34.7935919786
0.9008233504 62.6991766496
ITEM: ATOMS id type x y z Coordination
1 1 3.44075 2.43537 4.67314 23
2 1 30.7326 32.8087 4.50571 21
3 1 29.7313 33.2898 57.2188 22
4 1 30.2136 11.6753 58.44 19
5 1 4.58263 30.1123 58.2395 23
6 1 11.0811 31.3973 21.7173 20
7 1 3.24838 -0.62865 10.4644 22
8 1 11.9468 -0.110544 18.2557 20
9 1 8.30595 2.71332 16.4595 22
10 1 25.0798 13.1128 56.7007 24
11 1 6.54976 3.36624 7.51257 22
12 1 7.23664 26.3083 17.364 24
13 1 9.3384 4.85741 6.37652 21
14 1 7.42027 13.6203 61.9319 23
15 1 6.11711 8.49772 17.6 20
16 1 7.64013 9.13645 2.61087 16
17 1 28.3332 9.68889 5.06522 21
18 1 4.33986 21.1619 12.4884 21
19 1 6.0801 12.9582 2.80449 19
20 1 2.62363 2.77518 12.8837 19
21 1 6.36411 -0.331163 17.3325 24
22 1 3.07293 7.73095 16.5348 21
23 1 26.4936 2.56306 30.5447 23
24 1 8.6501 13.7016 16.3631 20
25 1 1.25525 28.5075 1.71163 19
26 1 32.2295 14.4722 5.71748 21
27 1 7.5855 10.6616 13.3503 18
28 1 26.3988 18.5922 7.73615 19
29 1 28.7204 16.9609 9.0126 23
30 1 4.16445 6.20051 4.32165 21
31 1 32.882 9.34713 11.802 23
32 1 2.64973 13.4103 9.29359 23
33 1 0.416721 32.159 7.50604 23
34 1 31.5842 23.8666 25.2955 21
35 1 23.2989 14.988 11.9814 25
36 1 32.1808 22.2181 13.8161 20
37 1 15.5842 30.8973 61.7743 21
38 1 9.20226 21.53 58.5432 21
39 1 18.0075 7.06806 54.4961 26
40 1 2.26736 25.7417 61.5392 19
41 1 7.31376 30.1542 16.3855 21
42 1 6.81562 9.87074 7.20581 22
43 1 13.0652 -0.286056 59.8522 23
44 1 10.6829 0.0313103 6.54669 18
45 1 11.5156 1.27458 1.54118 21
46 1 6.69614 4.02313 4.62088 18
47 1 1.55229 28.0359 19.1738 20
48 1 0.412695 12.2242 7.27046 23
49 1 7.15384 18.3461 1.88631 22
50 1 12.3993 3.06991 60.305 18
51 1 3.23928 12.4721 62.3793 22
52 1 2.58845 6.57235 1.00434 22
53 1 2.69845 9.77763 61.6631 23
54 1 27.8157 19.9998 9.84607 20
55 1 22.3145 33.4905 13.508 22
56 1 18.9487 9.75738 13.0123 23
57 1 27.6324 1.33279 7.04008 16
58 1 14.3469 4.69105 19.5161 21
59 1 14.5144 1.67574 18.5737 19
60 1 0.901512 12.8612 27.1269 21
61 1 15.5754 14.1548 7.41553 21
62 1 4.60003 8.75747 5.92181 18
63 1 32.0819 26.9908 4.40181 22
64 1 3.31636 4.3236 2.03943 20
65 1 27.8034 11.6889 3.02179 20
66 1 6.10621 18.2244 8.24527 20
67 1 18.2824 7.43547 5.07351 22
68 1 9.312 18.2396 21.5781 22
69 1 5.76302 1.81264 10.2615 17
70 1 1.79198 23.1118 11.2123 23
71 1 8.18191 11.6477 10.5695 20
72 1 29.1598 2.20039 13.1782 22
73 1 18.3167 13.763 6.23104 21
74 1 11.8262 33.7514 62.181 20
75 1 17.2567 -0.127912 3.61915 21
76 1 9.91886 5.81961 2.0891 17
77 1 7.93102 27.0345 60.113 16
78 1 3.99387 15.7454 56.4266 25
79 1 17.8536 15.9009 8.37847 23
80 1 30.5933 27.5091 58.4844 26
81 1 1.60486 5.57134 19.4718 18
82 1 5.72453 21.0641 62.5236 24
83 1 2.89298 1.52885 1.52451 23
84 1 10.686 13.1037 8.41099 21
85 1 4.75954 17.8977 54.276 20
86 1 5.73847 0.189662 7.45687 18
87 1 8.14145 1.78064 4.84049 19
88 1 7.27849 0.854837 58.7062 23
89 1 9.42294 26.9459 10.319 24
90 1 26.718 5.02667 59.5669 17
91 1 12.0937 27.0354 2.93259 21
92 1 12.9369 3.5706 13.2372 22
93 1 2.98857 17.1371 61.852 20
94 1 9.42753 25.7026 19.3762 22
95 1 4.05607 4.11266 10.435 22
96 1 10.8153 10.0328 18.4961 21
97 1 26.6889 24.6521 60.448 20
98 1 6.31291 5.2458 55.8448 22
99 1 21.7712 12.8241 1.89503 20
100 1 30.7078 6.87531 58.0873 20
101 1 2.64226 17.836 7.61384 23
102 1 19.8826 0.748318 8.45459 22
103 1 28.3907 20.7907 5.3815 24
104 1 7.42914 17.2639 11.5088 26
105 1 4.29125 26.0317 13.0259 20
106 1 30.0592 -0.539045 2.76006 20
107 1 14.0294 13.0564 12.6437 24
108 1 7.10202 10.5969 31.6617 20
109 1 21.8827 34.3294 10.4513 23
110 1 14.6406 27.9745 51.673 23
111 1 2.01756 32.7485 14.6416 21
112 1 11.2499 16.4721 8.59906 24
113 1 7.61766 18.7438 58.4552 20
114 1 13.1929 34.0196 8.84651 22
115 1 15.2427 3.92471 9.00342 21
116 1 17.4413 7.77543 14.5652 20
117 1 27.0254 32.5697 9.45742 19
118 1 4.03973 15.3534 19.9316 22
119 1 13.1349 4.17657 2.00044 26
120 1 3.94964 15.909 16.3016 21
121 1 10.3619 19.2643 56.96 20
122 1 2.88968 14.4459 3.01314 20
123 1 11.1821 4.75439 4.30043 22
124 1 3.4533 6.80591 8.26694 18
125 1 3.58986 18.0801 12.1515 21
126 1 15.3989 6.54552 7.13974 20
127 1 12.7286 23.7155 7.27036 23
128 1 24.2212 11.962 7.72789 23
129 1 6.83682 7.50574 4.73306 20
130 1 17.1965 1.61186 7.98493 20
131 1 20.2184 34.2253 20.3626 20
132 1 13.9674 28.9017 28.5647 20
133 1 8.42511 13.6084 12.5994 19
134 1 4.85509 31.6373 61.9094 23
135 1 22.5373 10.0548 9.22775 25
136 1 11.228 18.5012 59.8643 21
137 1 30.7525 17.1838 11.793 21
138 1 6.97284 15.9049 4.03349 23
139 1 16.2949 14.9433 61.8651 19
140 1 23.3734 10.423 59.7323 19
141 1 16.5873 29.4764 22.5961 23
142 1 16.5906 19.2929 7.90517 22
143 1 15.7963 10.7353 14.825 21
144 1 12.9499 15.4772 30.7837 23
145 1 11.5306 11.8824 3.33723 20
146 1 14.1716 9.31857 7.94803 22
147 1 20.08 9.96549 62.7177 23
148 1 4.57759 15.7164 5.31813 23
149 1 10.1463 17.0481 11.6983 23
150 1 24.6468 8.66483 7.52478 18
151 1 13.1535 -0.403376 13.8148 19
152 1 16.0467 33.6686 7.70286 22
153 1 9.65754 34.3391 26.8317 21
154 1 18.2552 30.1441 11.5093 22
155 1 24.9622 13.3656 61.534 23
156 1 20.9885 11.9881 11.7851 26
157 1 16.5298 12.4327 1.24964 22
158 1 16.4235 6.32663 1.72132 21
159 1 18.2022 21.1068 23.0054 20
160 1 10.972 22.2486 61.0485 21
161 1 11.7758 14.9662 16.2108 19
162 1 15.572 3.39737 11.7304 21
163 1 1.72241 12.4618 60.0577 23
164 1 32.716 13.0205 10.6025 22
165 1 3.92689 27.6038 7.8236 17
166 1 19.8126 7.68695 8.28553 22
167 1 27.5946 3.66424 18.1079 21
168 1 13.1611 25.5996 20.042 24
169 1 19.0508 20.568 12.5167 19
170 1 10.5529 14.2819 10.7386 19
171 1 4.13501 21.8328 16.1773 21
172 1 5.06858 15.5657 1.37017 22
173 1 21.2449 15.0395 23.3626 18
174 1 24.2315 27.1654 58.5236 23
175 1 13.8539 21.9455 12.2785 18
176 1 16.5457 3.09817 21.7419 21
177 1 12.8448 19.455 10.033 19
178 1 12.191 19.0159 18.3828 21
179 1 17.0128 8.76839 7.80198 21
180 1 17.2498 18.4051 14.6349 18
181 2 6.91599 12.9376 11.7069 22
182 2 0.978586 5.75919 7.30875 20
183 2 17.7114 31.0981 10.0636 21
184 2 31.2295 14.9737 49.2451 21
185 2 29.4902 0.928686 5.52699 19
186 2 -0.0264667 14.0097 19.5076 21
187 2 32.4806 25.8415 12.3803 19
188 2 20.0628 9.85567 18.371 21
189 2 9.66219 17.4854 19.4344 21
190 2 2.82564 8.25903 26.619 22
191 2 18.0534 14.7164 42.2354 19
192 2 32.5047 27.2875 18.4908 21
193 2 31.9301 13.4713 62.2825 21
194 2 6.33025 6.25973 19.294 20
195 2 1.70471 13.8865 23.3675 21
196 2 16.8943 34.2299 17.6611 23
197 2 4.70551 15.7263 3.21295 22
198 2 0.845131 3.65153 12.021 23
199 2 0.620123 28.655 3.92085 22
200 2 17.8561 7.48877 22.1311 19
201 2 2.80845 30.7223 17.4011 21
202 2 25.8395 16.6981 12.1753 23
203 2 19.0017 8.28169 3.05368 22
204 2 4.69281 15.0459 18.1119 22
205 2 22.0955 7.86445 7.39905 19
206 2 23.7647 22.1665 2.77521 21
207 2 23.3409 10.725 15.9228 21
208 2 1.83982 9.65948 59.6498 23
209 2 3.33622 7.16692 6.28161 21
210 2 9.96573 1.40725 21.9941 17
211 2 9.02199 14.3129 58.0248 20
212 2 28.822 20.907 7.14395 20
213 2 3.55009 21.4716 14.2703 22
214 2 30.5707 16.9513 7.24514 19
215 2 26.8972 21.5824 18.3129 18
216 2 4.34385 13.6195 9.90788 22
217 2 24.3909 13.2259 12.9016 23
218 2 3.11501 10.1066 55.9238 24
219 2 29.9943 4.9599 57.9903 21
220 2 23.9934 10.0713 3.80135 20
221 2 10.4701 31.4423 17.4198 18
222 2 2.24337 19.9627 10.8829 22
223 2 29.5652 6.72385 3.30066 23
224 2 29.1533 1.0721 14.7083 22
225 2 11.4256 20.4499 61.4136 22
226 2 1.14634 14.6545 2.6505 22
227 2 16.1427 6.19187 15.6929 22
228 2 14.2455 8.30385 5.9979 21
229 2 31.819 4.05384 15.6362 17
230 2 22.4947 24.893 19.8677 21
231 2 23.5366 15.4791 9.95743 24
232 2 10.718 3.5912 2.97159 18
233 2 4.25437 -0.112812 8.78995 21
234 2 32.7092 29.8082 17.2905 21
235 2 30.5873 9.99402 4.16988 22
236 2 24.6082 7.4501 16.8009 24
237 2 10.2799 6.58215 4.21338 18
238 2 3.99786 21.5964 2.62551 22
239 2 26.8116 12.1306 20.4014 20
240 2 17.4105 21.5299 17.4879 20
241 2 12.7636 6.18621 58.227 19
242 2 21.2173 13.2479 18.4026 21
243 2 31.266 18.3248 19.9521 18
244 2 16.0044 13.2234 5.83671 22
245 2 28.324 14.5846 5.20636 19
246 2 4.82244 12.5396 5.01589 20
247 2 12.2533 12.7163 21.3336 20
248 2 8.29685 9.05314 4.62552 19
249 2 32.1097 6.5576 59.1798 21
250 2 12.1951 13.3809 60.5929 23
251 2 11.6725 19.6013 31.8977 22
252 2 4.45748 18.5132 14.2711 23
253 2 9.18916 10.9507 18.5959 19
254 2 9.26061 9.7119 61.3231 24
255 2 7.50807 28.7356 23.5738 20
256 2 32.2952 29.2305 1.15277 19
257 2 19.2951 4.01502 11.6168 20
258 2 8.13626 1.34624 55.6148 19
259 2 15.2803 31.0271 4.56026 19
260 2 2.89992 6.24299 3.01598 19
261 2 18.2185 27.528 5.49129 22
262 2 17.2337 28.5896 21.084 22
263 2 26.9106 32.0195 61.4377 22
264 2 2.52009 12.4273 26.1009 19
265 2 9.24407 30.9379 62.5616 21
266 2 4.40689 19.1107 1.78744 19
267 2 8.77912 15.667 60.8201 18
268 2 10.627 14.1721 12.6986 17
269 2 21.6167 19.0328 13.8642 20
270 2 26.1852 28.7276 2.98458 24
271 2 4.74985 8.18348 15.4018 22
272 2 9.21811 28.8004 11.6124 25
273 2 25.274 3.84894 18.0567 19
274 2 9.46386 32.6007 7.87393 22
275 2 6.73736 1.61441 17.6286 20
276 2 2.22286 24.5023 60.0233 21
277 2 3.46376 20.5699 57.0738 21
278 2 0.997871 8.03542 23.2857 21
279 2 0.603299 18.8457 9.32878 25
280 2 8.32992 22.4206 7.69209 18
281 2 13.2861 26.1189 10.0673 22
282 2 5.69257 28.1714 1.37832 20
283 2 4.06774 13.193 12.8163 21
284 2 8.09861 14.8716 14.3228 21
285 2 11.7645 10.5992 16.9814 17
286 2 23.7543 20.5096 12.1218 18
287 2 17.3616 6.23475 27.5305 22
288 2 18.2022 25.2971 21.1275 19
289 2 29.1725 7.11895 61.6561 23
290 2 14.9962 11.3809 13.1395 19
291 2 2.80851 15.4833 4.79344 22
292 2 16.0117 0.459771 4.90496 21
293 2 20.3076 20.8128 16.3622 18
294 2 0.19867 2.25034 1.01282 21
295 2 8.8952 9.48913 7.54085 21
296 2 7.5384 8.94819 12.5229 20
297 2 25.596 10.3236 8.28724 20
298 2 31.8421 0.376032 22.1044 20
299 2 14.2462 11.7106 16.318 17
300 2 18.2858 4.22267 18.1043 22
301 2 21.1193 12.8997 59.4143 20
302 2 2.44541 26.8922 10.811 20
303 2 28.5051 4.93532 50.8363 23
304 2 6.1711 5.94488 3.82689 19
305 2 24.7787 2.51694 23.9038 22
306 2 4.44345 32.4038 19.3454 20
307 2 9.43636 9.23382 2.16419 18
308 2 6.38777 6.27255 24.739 22
309 2 8.69598 28.5544 2.29393 21
310 2 5.14392 26.8681 32.344 20
311 2 4.16984 9.12894 17.9645 22
312 2 16.7755 2.54281 9.70005 22
313 2 23.9703 7.13589 3.00952 22
314 2 5.10098 3.99921 23.3012 19
315 2 29.3627 15.7478 12.9071 20
316 2 27.1497 20.9346 15.1208 18
317 2 17.6559 21.525 26.5226 20
318 2 9.57406 2.40219 11.5907 20
319 2 13.4465 7.30756 11.4733 18
320 2 16.828 16.1575 4.49265 21
321 2 21.7528 5.63271 26.4685 23
322 2 4.66743 8.69802 23.5722 23
323 2 12.7473 26.6897 12.8718 20
324 2 7.08656 18.574 9.95225 21
325 2 17.8402 9.60047 9.13209 20
326 2 8.08327 3.35085 6.16857 19
327 2 11.4522 2.97129 20.2442 23
328 2 12.6579 8.71687 9.28705 21
329 2 26.143 11.3336 1.98427 22
330 2 4.72469 19.3883 11.3706 22
331 2 10.4114 12.2736 7.01217 20
332 2 17.3592 1.03233 54.6929 22
333 2 4.24093 24.5356 19.6573 24
334 2 10.2567 2.30139 5.37757 19
335 2 15.568 17.539 11.5423 20
336 2 12.2703 18.1385 20.2422 21
337 2 17.1291 0.379573 19.9013 20
338 2 13.1445 2.05262 2.41604 21
339 2 12.3845 5.55565 2.97354 19
340 2 18.3655 3.73659 56.9944 20
341 2 17.975 34.4184 60.707 20
342 2 22.668 0.107907 7.38607 23
343 2 23.7535 8.5051 13.3077 21
344 2 22.0257 4.90391 9.25942 23
345 2 27.0836 1.4746 18.1801 24
346 2 3.94306 16.2505 7.28813 23
347 2 15.9522 5.74231 19.0918 20
348 2 29.353 12.9091 9.79989 22
349 2 21.2783 13.1572 23.8233 21
350 2 15.5586 10.5988 7.30062 24
351 2 16.1923 21.2649 11.9723 18
352 2 32.8666 16.2752 5.4824 19
353 2 31.4265 1.37322 17.1878 18
354 2 15.9369 19.3046 55.4752 18
355 2 11.0639 17.2708 4.14781 22
356 2 10.2092 10.0244 15.078 21
357 2 4.09498 10.9147 10.7826 21
358 2 2.8066 8.09268 9.34453 18
359 2 18.1338 25.3518 15.9585 18
360 2 20.3739 2.22168 14.0614 20
361 1 13.0638 20.6308 15.7716 20
362 1 1.08553 19.5472 12.1912 27
363 1 30.1944 -0.110369 21.2672 22
364 1 8.06801 14.601 9.28125 21
365 1 3.26161 7.95189 13.7417 22
366 1 10.04 1.38176 20.0633 21
367 1 7.99046 -0.520211 30.4781 18
368 1 27.0077 -0.183508 22.563 21
369 1 32.1465 7.31273 24.2142 20
370 1 24.0747 26.4975 21.3083 23
371 1 1.21071 9.15972 25.9658 21
372 1 24.2847 3.0496 28.3544 21
373 1 5.78874 21.4984 18.5337 21
374 1 19.1283 13.5888 8.62718 23
375 1 8.92228 10.8184 16.8415 21
376 1 23.4452 11.8085 17.3509 21
377 1 5.16345 18.5075 29.9851 22
378 1 30.4369 26.7246 29.8231 24
379 1 2.51388 16.6731 31.0777 21
380 1 32.0652 32.9737 13.9783 21
381 1 11.3851 1.69896 27.1619 21
382 1 4.33344 5.21856 19.0741 21
383 1 25.0301 16.639 13.943 21
384 1 29.1814 7.57196 24.2834 20
385 1 6.0405 22.7359 27.8456 23
386 1 2.55984 22.6761 3.8644 18
387 1 3.33406 19.8257 5.69918 20
388 1 21.9582 16.2165 15.1171 19
389 1 19.9876 26.9763 14.1298 20
390 1 8.8239 3.81487 30.5363 18
391 1 0.353166 8.19859 35.5338 22
392 1 0.0483302 8.07043 21.5782 20
393 1 26.6052 16.8163 24.2412 21
394 1 27.7591 9.29887 31.9205 20
395 1 15.791 11.5679 28.3957 22
396 1 15.0437 15.6715 21.8195 18
397 1 1.54494 17.0356 4.42753 24
398 1 6.87705 28.4766 19.0898 21
399 1 18.1776 13.0222 11.7927 25
400 1 14.4951 4.71174 31.1596 25
401 1 10.5788 31.7071 25.8698 20
402 1 20.5755 12.3382 28.161 19
403 1 12.9516 21.9068 24.8886 23
404 1 6.2071 32.9374 29.4217 19
405 1 11.9486 10.6041 21.6559 20
406 1 2.53968 7.39379 11.1319 19
407 1 8.8466 15.7114 20.5868 21
408 1 16.8678 28.7148 27.7924 25
409 1 8.22871 22.3797 22.4627 19
410 1 7.87298 11.9203 22.571 23
411 1 1.33434 5.51635 15.3856 21
412 1 19.6904 3.2744 28.6077 23
413 1 16.0159 10.5977 24.8223 22
414 1 28.2657 14.1341 36.0796 20
415 1 1.27517 14.7792 15.2124 16
416 1 27.3834 10.4545 21.4318 20
417 1 7.83675 18.3159 30.5941 22
418 1 11.7864 1.9546 15.6226 22
419 1 9.28922 0.185152 16.8999 23
420 1 18.5273 11.8336 30.3887 19
421 1 2.63497 23.7459 18.4403 22
422 1 19.6168 4.78408 3.95033 21
423 1 15.4507 8.60507 4.68183 22
424 1 18.346 24.4094 19.5043 20
425 1 32.1357 20.9389 27.027 23
426 1 5.07099 22.904 21.2035 24
427 1 9.93515 32.5882 28.765 21
428 1 4.14967 17.7242 23.6822 24
429 1 28.7674 8.46552 19.0891 18
430 1 5.29186 14.0323 27.5479 19
431 1 10.2779 7.60833 20.8286 22
432 1 24.5521 18.5755 24.9918 23
433 1 14.5697 13.7172 16.4085 19
434 1 4.43446 31.5009 21.9573 21
435 1 12.8421 14.0002 23.023 26
436 1 11.9229 20.572 28.4474 24
437 1 0.302454 5.24302 32.1095 22
438 1 15.4672 27.5503 35.2579 23
439 1 18.6393 15.1126 14.8493 22
440 1 23.0903 8.23194 17.6449 22
441 1 15.4764 18.4912 23.3571 19
442 1 15.3881 0.770975 9.82481 17
443 1 16.9599 5.85159 33.8824 22
444 1 27.4214 2.38689 28.0685 25
445 1 16.4373 10.1159 35.4097 20
446 1 2.07398 4.92347 5.97287 20
447 1 5.36143 28.1343 23.8317 20
448 1 8.02957 33.8518 14.7963 22
449 1 11.2616 9.53828 8.63074 21
450 1 5.4133 10.2117 19.9622 21
451 1 13.7361 8.25142 22.9704 21
452 1 10.1729 33.5059 19.3869 22
453 1 9.14783 8.57324 26.2562 24
454 1 3.50513 30.7447 15.6851 20
455 1 7.33629 34.2979 20.2259 23
456 1 4.37725 7.3212 28.4809 18
457 1 10.141 9.36536 23.4705 22
458 1 21.416 8.85744 27.9227 22
459 1 25.1118 7.97654 19.7356 23
460 1 2.49755 11.6881 23.3906 23
461 1 12.5669 15.3106 6.13451 20
462 1 6.74151 15.3434 18.281 24
463 1 20.0117 10.4409 16.5158 21
464 1 14.7409 17.3583 29.8013 19
465 1 1.01832 11.0077 19.7604 18
466 1 15.3797 10.7007 32.9613 22
467 1 6.15498 10.2484 23.3326 21
468 1 30.2734 20.0143 29.1972 21
469 1 10.8199 5.55705 18.9649 19
470 1 16.7775 15.9568 16.7532 23
471 1 15.3294 6.02423 21.9889 19
472 1 30.6746 26.0494 33.2743 22
473 1 9.74673 31.3429 14.3326 20
474 1 17.1794 11.4522 19.5795 21
475 1 18.3974 27.1278 21.361 22
476 1 3.46127 33.0631 17.3755 19
477 1 12.009 0.293494 35.644 18
478 1 1.70439 0.118194 25.311 19
479 1 19.1251 2.73516 22.8882 24
480 1 22.9708 7.54904 30.3794 23
481 1 7.56263 7.37956 23.5347 21
482 1 30.1278 8.74883 21.5669 18
483 1 12.4634 0.770379 11.0803 18
484 1 16.354 10.7782 12.1481 21
485 1 21.3031 5.06514 31.0348 23
486 1 9.22314 30.8709 6.64042 21
487 1 23.5769 14.5939 37.4495 22
488 1 16.7743 26.9099 23.7146 19
489 1 5.72585 23.6773 11.7874 23
490 1 18.6973 12.3938 14.6918 20
491 1 6.844 20.2811 32.4433 24
492 1 0.738516 19.8229 35.7525 21
493 1 11.1482 22.7 19.2388 19
494 1 0.955298 17.1741 25.4285 22
495 1 1.54129 28.2663 16.4959 23
496 1 7.90452 11.191 25.5247 24
497 1 3.24329 10.3629 29.8755 20
498 1 1.56858 2.14328 10.1073 23
499 1 30.5088 13.8412 28.7132 21
500 1 3.21843 12.106 20.7229 22
501 1 10.1953 25.069 27.3839 21
502 1 10.3787 9.81572 30.6055 24
503 1 19.0324 0.279573 29.16 22
504 1 29.7228 2.06548 38.7424 21
505 1 4.53222 10.1624 15.214 23
506 1 22.2135 6.48495 20.1551 21
507 1 13.4213 34.1469 20.5275 20
508 1 16.0739 14.4658 13.8759 24
509 1 21.6672 27.4699 22.7604 21
510 1 15.5926 16.7539 26.0098 17
511 1 8.3401 32.8796 22.7877 19
512 1 23.2715 32.8006 34.4537 20
513 1 18.852 1.33813 26.2132 18
514 1 12.1448 32.2624 17.9884 21
515 1 30.9228 33.8142 37.1438 20
516 1 6.75786 31.5675 26.9888 23
517 1 30.9513 3.93193 28.0128 23
518 1 10.5774 22.4169 13.7897 22
519 1 21.7243 25.65 26.6263 19
520 1 10.3127 13.2194 21.9094 22
521 1 21.8042 5.15544 23.0659 22
522 1 7.40702 34.5321 11.6394 20
523 1 31.5364 0.61741 11.6341 23
524 1 20.2442 3.97801 18.0076 19
525 1 7.77186 3.85072 36.2407 23
526 1 15.4925 23.2316 23.9949 21
527 1 20.03 34.3244 26.1523 20
528 1 16.1698 1.89776 24.0868 22
529 1 6.72609 28.9887 7.72169 20
530 1 8.85235 14.2433 27.3575 23
531 1 30.9696 25.1606 13.3315 21
532 1 30.8467 5.31334 13.5213 23
533 1 12.1514 12.5013 17.5309 21
534 1 30.8417 18.2439 25.6238 20
535 1 20.0111 3.77431 20.5782 20
536 1 30.2424 2.98983 15.8253 20
537 1 10.5826 11.9517 13.9819 22
538 1 23.6207 7.40519 11.7155 23
539 1 13.0377 11.8896 29.2743 22
540 1 15.2065 19.2382 20.4432 19
541 2 29.3038 33.1474 2.93759 20
542 2 9.15625 31.8257 32.849 21
543 2 21.1941 33.229 29.7494 22
544 2 0.265736 7.67175 11.5571 20
545 2 0.530107 9.00053 40.6854 21
546 2 31.0529 11.3581 29.1285 23
547 2 1.87669 9.13545 33.2729 22
548 2 29.9513 0.568432 29.9869 20
549 2 28.8774 10.4617 36.6719 22
550 2 30.3295 1.39028 25.1389 18
551 2 25.1842 30.6368 19.8966 22
552 2 5.22385 29.8845 23.059 19
553 2 2.43597 10.0124 15.4338 18
554 2 2.0 10.3659 24.6131 20
555 2 4.90801 19.7737 23.6552 24
556 2 10.7105 11.5351 23.0003 21
557 2 10.6281 5.20922 27.1958 25
558 2 32.4104 10.7878 13.1663 21
559 2 6.07704 9.43778 33.5084 23
560 2 4.22926 18.813 7.67765 24
561 2 2.33363 12.3305 18.7356 23
562 2 32.1586 6.26978 29.112 20
563 2 0.843271 23.9495 23.4357 18
564 2 31.534 17.4542 41.2364 19
565 2 0.967692 19.2193 14.3284 23
566 2 31.3794 11.9389 6.43792 16
567 2 11.3635 14.704 34.0235 22
568 2 12.4092 6.81974 14.7199 22
569 2 30.0691 24.269 26.8989 23
570 2 11.4208 16.2324 25.9524 25
571 2 19.8924 30.8561 28.9082 22
572 2 13.0268 14.5578 17.7969 18
573 2 23.279 1.50198 25.6516 20
574 2 7.35116 18.1906 27.9172 19
575 2 19.4221 28.412 34.1916 22
576 2 26.0312 18.3987 35.0966 20
577 2 17.3928 -0.296935 26.7553 19
578 2 0.0976612 27.7188 21.0165 21
579 2 4.73526 2.05047 7.7224 19
580 2 25.9358 28.5815 21.8579 19
581 2 32.4061 6.57081 36.2712 22
582 2 20.6617 0.0465672 32.602 19
583 2 30.7879 14.5017 7.0486 22
584 2 27.814 34.1725 28.5823 22
585 2 1.8904 28.0085 29.9606 23
586 2 3.1107 1.56886 35.1409 20
587 2 2.31117 16.9857 23.6213 20
588 2 7.04849 1.46434 27.2058 21
589 2 32.3321 14.6612 9.65928 21
590 2 17.9465 7.48252 29.8495 19
591 2 18.6544 27.4795 23.1839 22
592 2 19.4815 16.3216 7.01215 23
593 2 14.5911 3.7613 26.0572 23
594 2 3.33835 8.80752 36.0947 21
595 2 13.9895 2.03346 11.8853 18
596 2 12.3526 33.3574 25.7741 23
597 2 2.69916 25.4988 14.2722 21
598 2 30.7483 17.9299 29.3108 19
599 2 3.66265 17.6089 16.6748 21
600 2 27.4295 28.5559 19.8129 20
601 2 3.09366 15.423 14.6844 21
602 2 16.8051 17.8765 29.9162 16
603 2 20.421 15.9911 31.0822 20
604 2 17.7242 25.48 13.259 18
605 2 15.3808 17.3927 21.0878 20
606 2 13.7682 30.474 26.7591 20
607 2 10.7805 30.0024 26.5131 21
608 2 5.53186 10.7074 13.6458 22
609 2 16.2295 5.66254 32.3163 19
610 2 2.67752 6.37941 28.9085 19
611 2 30.1046 31.1934 31.8425 22
612 2 2.29278 11.0534 41.8045 23
613 2 4.37183 0.0647423 24.1362 23
614 2 4.51644 30.3307 25.8152 20
615 2 14.2126 4.96483 12.7995 19
616 2 15.4608 33.76 20.8123 21
617 2 22.6693 9.09001 31.5126 23
618 2 2.11714 31.653 28.6308 23
619 2 7.0738 22.746 17.9892 23
620 2 29.8924 27.6508 27.9444 18
621 2 11.2339 4.92105 17.3336 22
622 2 4.18176 4.98692 20.8813 23
623 2 1.57343 7.50116 14.8536 24
624 2 29.2419 14.1291 20.4273 21
625 2 18.8505 13.7804 13.4409 24
626 2 23.1561 17.2794 31.8261 19
627 2 4.49151 25.2059 11.25 23
628 2 11.2608 3.66583 14.3651 20
629 2 24.9832 20.2016 26.1568 17
630 2 31.9816 9.16141 34.5684 20
631 2 17.0072 20.04 36.4306 19
632 2 6.01916 28.4483 27.8795 24
633 2 25.2231 34.1357 23.1386 19
634 2 2.59266 10.1928 38.1278 20
635 2 8.30865 34.6197 25.0941 19
636 2 14.115 6.71061 34.234 21
637 2 13.0772 10.232 19.4676 19
638 2 24.4901 26.2624 17.2401 20
639 2 1.94771 0.260107 23.2991 24
640 2 0.903905 9.53455 17.8025 20
641 2 11.5839 10.7754 25.9195 20
642 2 6.39121 7.19689 30.4696 23
643 2 30.712 0.152017 13.2147 20
644 2 7.4534 17.9968 13.4505 21
645 2 15.3869 4.96674 36.4859 22
646 2 7.37029 5.21709 34.8216 22
647 2 26.3638 21.0106 22.9784 18
648 2 31.4225 9.72041 15.6591 21
649 2 17.2898 23.0648 14.7678 21
650 2 10.899 5.71035 35.5286 25
651 2 3.26279 2.99896 24.0215 20
652 2 18.3316 3.1623 25.0853 20
653 2 13.4472 1.9448 22.4831 24
654 2 8.22828 2.38319 34.588 19
655 2 31.5384 12.6611 14.8619 19
656 2 17.2766 10.9692 17.42 21
657 2 9.90631 22.0689 23.4341 22
658 2 14.7466 34.3029 28.1561 19
659 2 14.9446 0.880609 25.3725 21
660 2 7.18915 1.9159 8.72703 17
661 2 17.8702 26.439 36.702 22
662 2 14.4069 3.60506 17.7588 23
663 2 3.25963 27.0229 3.18585 18
664 2 18.1135 2.65433 28.3905 17
665 2 4.90573 28.8031 18.9157 19
666 2 22.8931 12.0749 31.2951 20
667 2 6.8491 14.294 28.8255 16
668 2 15.7117 6.64999 24.041 21
669 2 12.8798 0.344871 30.8485 17
670 2 31.5917 15.7855 29.2817 19
671 2 4.46524 14.6951 24.0922 21
672 2 17.071 14.7287 21.7851 18
673 2 7.45922 10.2056 15.8803 19
674 2 14.4112 9.73056 25.446 21
675 2 7.16915 12.7892 15.2795 20
676 2 14.488 9.72275 35.5761 20
677 2 18.3601 18.0884 16.5422 22
678 2 15.6476 18.4648 27.0645 19
679 2 1.52308 12.1973 34.7421 23
680 2 16.2708 13.0458 14.9232 20
681 2 27.0787 8.67646 28.2502 23
682 2 8.81033 25.0177 31.9757 18
683 2 18.3358 20.0604 28.262 19
684 2 4.96521 13.2809 33.9609 20
685 2 22.9296 6.70386 23.7366 22
686 2 19.9128 6.03053 31.6849 20
687 2 21.6666 3.03841 22.1575 19
688 2 1.36019 0.858858 4.85921 22
689 2 17.4097 31.2854 21.3625 19
690 2 24.3346 23.296 19.1026 25
691 2 24.0313 29.3323 37.9339 20
692 2 10.2688 22.9005 26.8645 20
693 2 22.3476 33.1807 32.7349 21
694 2 6.79628 24.2821 37.3925 19
695 2 20.5908 31.0293 38.2063 21
696 2 21.4151 24.5095 29.0088 21
697 2 13.6137 32.8937 2.05252 18
698 2 14.8859 32.4565 11.487 20
699 2 17.6428 31.0109 17.6413 21
700 2 10.7574 6.04557 7.4418 22
701 2 13.9776 6.88808 27.0513 23
702 2 8.81707 27.9329 32.4902 24
703 2 6.19104 15.0947 32.093 18
704 2 6.48403 -0.128091 34.8291 19
705 2 0.920004 5.88173 33.7739 21
706 2 8.71894 34.7227 33.5433 20
707 2 23.1865 32.5296 25.5193 21
708 2 9.71363 12.7727 35.7513 21
709 2 27.0935 22.0195 30.1856 23
710 2 9.16892 7.5791 24.598 21
711 2 15.6672 14.216 17.838 21
712 2 9.28456 32.8387 20.7451 21
713 2 21.2227 7.28755 29.388 23
714 2 8.88102 15.2256 5.10643 22
715 2 1.83992 21.533 28.7351 16
716 2 15.8109 22.5287 28.6133 20
717 2 15.5863 12.1594 35.6379 20
718 2 23.3325 4.42792 29.0996 23
719 2 20.6235 8.97486 39.7727 21
720 2 23.6473 15.1477 31.0432 18
721 1 7.26804 31.1146 60.4771 19
722 1 29.8613 15.8403 5.7298 19
723 1 0.680067 7.78673 56.4432 22
724 1 17.5441 17.8675 2.68422 21
725 1 2.41786 22.4081 6.82853 19
726 1 27.9451 15.0901 14.6805 23
727 1 32.7779 12.6682 13.0401 21
728 1 5.85427 32.0432 7.03637 22
729 1 22.9558 26.191 6.00991 19
730 1 2.39674 21.4646 20.6048 23
731 1 20.4083 23.7399 7.51859 22
732 1 3.08481 29.4346 13.1872 23
733 1 4.24861 0.639788 57.5296 18
734 1 5.02424 20.7617 58.859 20
735 1 5.31246 11.7671 12.2196 23
736 1 0.713204 26.746 7.07713 20
737 1 30.408 31.8363 7.04055 19
738 1 30.9018 27.9577 1.73057 20
739 1 27.006 15.2455 11.7802 23
740 1 25.3782 2.83283 22.279 20
741 1 31.7399 30.1789 3.03269 20
742 1 30.2425 19.7532 3.03623 19
743 1 26.2135 33.7905 6.2518 19
744 1 23.8539 29.6338 1.41119 19
745 1 21.4665 31.4998 2.67934 20
746 1 15.2367 29.8789 56.4904 19
747 1 29.0524 15.031 59.4117 24
748 1 27.6572 4.26145 4.12944 20
749 1 31.7448 4.71121 5.52937 22
750 1 30.3308 0.597578 61.7112 21
751 1 6.48313 5.89882 6.93237 21
752 1 16.0413 28.8525 1.9542 21
753 1 0.729521 21.212 17.3328 23
754 1 30.7388 8.00757 4.06132 21
755 1 8.66698 7.92216 17.5617 24
756 1 25.1523 31.9494 15.6398 17
757 1 8.45043 22.7468 62.1831 22
758 1 0.370981 20.1814 6.3946 21
759 1 0.0599765 32.4583 58.5278 20
760 1 4.96802 21.207 4.12105 26
761 1 5.6258 21.3334 7.34542 22
762 1 7.66447 15.6884 7.14098 22
763 1 4.62375 19.58 26.0799 18
764 1 8.48362 17.9681 8.69914 23
765 1 1.71918 6.45021 24.343 22
766 1 19.2499 25.4825 10.97 20
767 1 10.9491 12.2504 24.8673 22
768 1 7.5223 30.5095 1.78269 20
769 1 8.96052 7.30952 61.6161 21
770 1 13.0087 29.739 58.1953 18
771 1 13.853 31.9352 5.9654 18
772 1 23.4707 17.0839 6.5709 22
773 1 9.34016 3.50229 13.2991 21
774 1 2.81601 31.4767 9.20541 23
775 1 17.1603 31.5572 3.64206 23
776 1 3.31917 29.9676 24.5267 19
777 1 4.61045 1.03738 12.4496 23
778 1 17.4175 26.0461 6.45384 26
779 1 11.4219 14.3179 25.8645 19
780 1 9.83441 32.5389 1.5823 22
781 1 2.73883 1.75773 14.8877 21
782 1 29.5082 18.9094 6.62654 19
783 1 2.54366 -0.505746 4.48449 22
784 1 27.4869 26.8677 58.7715 23
785 1 21.0153 25.4432 3.09306 20
786 1 10.5276 33.3154 11.6996 21
787 1 32.6464 3.50841 13.7159 20
788 1 14.7286 7.53697 15.4637 20
789 1 11.8688 4.96099 8.20238 21
790 1 15.7225 19.6268 37.8891 19
791 1 17.974 7.68355 26.4209 16
792 1 32.8145 8.1411 15.2102 24
793 1 11.8285 18.2489 54.381 22
794 1 5.3016 18.8593 61.2646 24
795 1 8.37224 20.0302 60.8393 21
796 1 3.95675 7.40237 59.9049 21
797 1 0.173389 23.2924 8.12987 23
798 1 13.2837 19.6795 60.8886 21
799 1 9.65125 25.0477 15.4139 21
800 1 31.1699 10.1645 8.45327 20
801 1 24.6131 14.9849 8.44304 22
802 1 16.4434 21.0235 13.9744 19
803 1 7.36133 16.8079 15.483 19
804 1 6.71814 23.1227 59.9098 20
805 1 10.2021 10.4155 6.29923 21
806 1 0.593763 22.0764 24.3644 19
807 1 28.4051 26.178 9.46755 23
808 1 4.34561 23.7952 5.59872 21
809 1 24.6715 0.0308545 13.7577 15
810 1 26.2615 28.4065 5.23119 21
811 1 31.5102 7.69061 6.98098 19
812 1 3.71909 11.0492 3.31773 18
813 1 14.8979 18.5443 16.7956 20
814 1 32.1761 0.427266 14.8617 24
815 1 8.08197 22.4303 12.6717 20
816 1 10.4879 29.3924 1.95418 20
817 1 31.7736 2.01274 8.20118 21
818 1 3.09799 0.904097 7.2208 20
819 1 16.3259 33.3621 12.8644 19
820 1 1.30729 8.18943 6.45946 18
821 1 5.40914 0.171172 4.05772 19
822 1 4.089 27.0921 19.125 20
823 1 10.6593 28.6823 7.95204 25
824 1 12.4862 33.7351 3.18069 21
825 1 22.5493 25.5378 9.78056 24
826 1 6.10167 14.228 14.5668 22
827 1 23.386 21.8544 25.0342 23
828 1 2.57659 10.671 17.3064 21
829 1 29.703 15.895 62.3243 20
830 1 13.8623 26.805 6.84222 19
831 1 9.25015 26.7894 62.6827 21
832 1 8.0206 15.7099 59.0075 20
833 1 13.6663 30.0432 8.5308 23
834 1 29.2258 26.5359 61.4557 18
835 1 6.1122 24.6952 8.00244 21
836 1 11.3573 27.1162 60.0056 22
837 1 26.785 17.2373 17.3868 18
838 1 14.0366 31.0231 20.3845 23
839 1 13.8513 21.8728 19.5809 23
840 1 7.31555 16.5987 32.2348 22
841 1 15.0012 19.8481 1.79615 18
842 1 9.7551 26.3514 6.78815 23
843 1 7.77191 21.9777 9.51224 23
844 1 3.65136 25.8195 16.0509 19
845 1 11.5937 33.5228 15.8224 25
846 1 6.52962 13.0044 20.0645 21
847 1 30.901 28.1025 14.2355 21
848 1 7.70075 20.9227 16.4412 20
849 1 17.4347 21.0727 10.4041 19
850 1 7.10669 31.8491 11.8063 21
851 1 10.7679 20.529 21.3392 23
852 1 6.02342 24.4636 19.0913 21
853 1 6.35644 27.7868 56.2398 20
854 1 11.7542 6.88767 6.01654 22
855 1 16.1281 32.2748 10.1049 21
856 1 17.7187 27.8722 61.1138 23
857 1 22.6284 4.82927 1.05125 20
858 1 8.98207 27.6255 16.4421 20
859 1 10.6701 23.9738 56.7444 24
860 1 14.7187 16.807 8.532 22
861 1 1.05998 32.4066 4.87067 22
862 1 16.0961 24.8752 11.6342 23
863 1 3.58719 25.2829 28.0072 21
864 1 10.7819 22.6946 2.34806 20
865 1 1.37206 11.7264 2.35952 22
866 1 11.1754 31.6927 8.60239 19
867 1 4.30027 16.354 10.1573 22
868 1 6.49054 20.0298 10.8819 23
869 1 11.6172 25.8518 9.00427 21
870 1 13.1217 12.1932 6.39803 24
871 1 16.8944 11.7564 8.73883 24
872 1 7.61664 24.7019 57.2397 22
873 1 4.47059 -0.350885 14.7733 21
874 1 31.1802 25.6608 8.97284 19
875 1 13.2542 1.69813 8.69466 20
876 1 24.8414 0.872423 10.4525 19
877 1 3.26108 25.7434 9.43775 20
878 1 20.269 23.7874 57.7743 22
879 1 9.39389 23.7879 7.10242 20
880 1 14.2972 12.0762 3.51457 18
881 1 6.41952 19.3716 14.3254 21
882 1 18.6728 15.1488 55.5883 20
883 1 21.9377 18.8377 19.6638 21
884 1 7.72918 8.69035 59.3984 22
885 1 18.9182 18.4521 23.8021 17
886 1 11.6725 16.6769 27.7623 20
887 1 12.5807 24.7186 13.8097 22
888 1 30.8879 13.7133 18.7495 21
889 1 5.98186 30.0992 4.6366 19
890 1 7.16934 27.4964 2.24911 21
891 1 11.8915 2.29817 4.30884 20
892 1 22.4203 17.7343 12.6321 22
893 1 23.6966 33.9762 7.41957 20
894 1 17.3771 28.5692 9.33304 22
895 1 7.75176 8.31787 14.9852 23
896 1 9.86604 29.6163 60.7823 25
897 1 15.753 24.4561 20.6329 22
898 1 13.7465 20.9415 6.41134 19
899 1 21.6749 31.4452 11.0093 21
900 1 25.7241 28.6741 19.2042 25
901 2 6.21968 20.6081 8.97844 20
902 2 18.3899 22.2114 2.95956 19
903 2 28.1226 28.3634 9.80002 20
904 2 22.1739 16.0103 17.0291 21
905 2 19.5211 27.0923 12.2786 23
906 2 12.7185 15.3108 14.6841 20
907 2 7.52124 13.8101 22.9704 23
908 2 32.4114 10.8492 2.34366 21
909 2 3.64204 21.7279 5.55654 20
910 2 4.85162 13.5626 20.6625 22
911 2 26.9013 7.82514 1.45977 17
912 2 28.0907 23.204 13.0468 21