ITEM: TIMESTEP
252000
ITEM: NUMBER OF ATOMS
5760
ITEM: BOX BOUNDS pp pp pp
0.0669024805 32.7330975195
-0.2936905247 34.4336905247
0.22532972 63.3746702803
ITEM: ATOMS id type x y z Coordination
1 1 11.3952 32.1682 43.5668 25
2 1 9.50675 25.1461 6.77083 21
3 1 29.6933 4.42133 8.85773 19
4 1 5.06021 19.9527 44.0143 21
5 1 12.6704 30.333 5.98978 23
6 1 3.54062 28.3439 28.37 23
7 1 27.4198 26.5988 27.2023 20
8 1 15.777 29.4909 22.9271 23
9 1 10.0124 14.3319 18.5642 19
10 1 29.1086 18.73 45.4516 23
11 1 16.4901 4.94545 60.7533 23
12 1 12.3764 21.8589 28.7947 21
13 1 1.50329 25.1859 16.176 22
14 1 10.7105 1.69431 53.2922 22
15 1 20.7072 2.70703 60.2714 24
16 1 15.8665 2.07204 59.4631 20
17 1 23.0873 13.4756 4.78425 21
18 1 30.611 14.3636 56.1938 23
19 1 9.59338 21.6627 2.68675 23
20 1 29.7458 28.5009 21.0926 22
21 1 5.25431 26.1155 15.6521 23
22 1 3.34076 5.01049 29.3732 21
23 1 25.3536 26.1307 42.3315 23
24 1 22.8394 23.3671 5.69333 25
25 1 0.0914748 18.5463 6.75827 17
26 1 12.8602 15.2829 12.7857 23
27 1 13.4673 16.105 57.5895 23
28 1 17.4379 15.0765 61.3876 22
29 1 32.145 5.51285 4.11915 21
30 1 8.80545 34.4194 48.9873 21
31 1 14.1977 22.3699 5.31104 23
32 1 3.41001 -0.308153 16.3925 20
33 1 1.39553 0.0353545 7.18563 21
34 1 6.94364 34.234 31.4723 24
35 1 30.2157 22.2529 11.1867 23
36 1 9.63136 21.0119 58.8493 21
37 1 22.0205 24.199 52.1398 22
38 1 12.6147 23.5618 49.8958 20
39 1 0.0728665 1.74557 31.2554 16
40 1 19.1433 25.0227 61.5419 23
41 1 15.8368 33.6593 9.78749 21
42 1 17.035 16.4429 0.841106 22
43 1 7.22172 23.8528 59.9249 23
44 1 5.07549 17.6475 18.664 20
45 1 31.2682 11.2671 3.49411 21
46 1 28.4795 13.0702 12.8013 24
47 1 13.795 5.2759 19.2807 14
48 1 10.0587 11.9074 0.703113 22
49 1 7.19636 34.0105 5.39355 22
50 1 24.0197 13.9996 62.9829 20
51 1 2.88502 32.9838 12.6693 21
52 1 13.2631 21.0622 10.4007 19
53 1 5.17121 11.5717 53.6112 21
54 1 9.02004 21.2554 10.8346 20
55 1 18.6986 18.8717 19.4415 20
56 1 3.34968 31.1123 40.3286 20
57 1 14.2594 3.77831 4.66795 22
58 1 12.5075 5.55684 26.8039 19
59 1 18.0604 9.69605 23.9125 16
60 1 19.3164 10.3906 29.4955 25
61 1 28.4006 34.3729 53.0559 22
62 1 24.7757 30.9914 55.6332 26
63 1 30.1725 22.6732 8.22374 19
64 1 7.40225 7.22332 5.44647 20
65 1 6.88497 32.9164 15.6904 21
66 1 17.6152 32.5869 51.4476 20
67 1 2.0603 10.3401 37.9116 22
68 1 17.9666 28.5338 14.6435 22
69 1 3.01458 23.9374 13.1157 21
70 1 2.9568 9.61349 22.3701 22
71 1 32.3005 6.17935 18.8395 21
72 1 30.2586 24.0962 13.739 20
73 1 5.23688 7.97523 7.82532 19
74 1 14.1329 0.937431 11.6952 19
75 1 25.2786 10.4425 3.86414 21
76 1 11.2721 10.1612 20.3057 18
77 1 1.90156 31.5685 53.3492 21
78 1 11.3497 1.29883 23.9285 17
79 1 30.299 7.90707 54.6203 21
80 1 13.0042 10.399 59.6517 20
81 1 31.5725 11.0197 20.7884 19
82 1 19.2077 19.4629 1.11478 24
83 1 9.06837 29.5155 1.96182 24
84 1 21.2328 21.821 2.94929 18
85 1 4.93944 33.8667 13.2218 23
86 1 18.2242 15.8311 7.87702 21
87 1 20.0994 32.8708 9.07321 19
88 1 6.83651 12.4752 59.1517 19
89 1 10.4297 34.5028 4.84222 21
90 1 5.86617 3.08887 1.00659 22
91 1 19.731 25.6824 53.2878 22
92 1 17.9594 4.50743 9.80235 19
93 1 3.82203 12.9316 1.61167 24
94 1 1.9228 1.35406 10.0509 20
95 1 12.3849 18.805 58.9277 20
96 1 5.93712 22.8829 15.2368 23
97 1 26.676 26.5959 53.5716 19
98 1 1.74822 1.02679 2.02138 25
99 1 30.7654 1.83799 24.3163 19
100 1 15.8518 5.22711 37.3524 20
101 1 9.04648 -0.142915 7.71929 20
102 1 15.9064 9.62151 8.36543 27
103 1 7.32335 11.9928 49.93 20
104 1 9.29415 19.2376 5.8079 21
105 1 17.2613 13.1642 28.3139 24
106 1 0.640182 34.0233 54.8492 23
107 1 1.81209 1.42931 21.216 19
108 1 4.97512 8.08232 29.3111 21
109 1 18.9565 31.3764 3.78493 21
110 1 28.8563 0.941121 0.465137 21
111 1 22.1537 23.4931 60.5632 20
112 1 10.1537 3.50981 12.9441 20
113 1 30.9435 12.9533 39.5223 22
114 1 16.6642 12.1787 51.062 22
115 1 13.5456 3.51993 16.9783 20
116 1 3.02513 13.064 29.2336 23
117 1 26.3854 21.5356 10.7906 20
118 1 27.8979 8.14128 27.0752 21
119 1 26.8342 8.33595 59.995 21
120 1 10.1715 30.1101 8.8126 24
121 1 13.9985 0.693401 1.86624 21
122 1 19.8199 12.7946 9.60979 21
123 1 5.64335 22.164 46.2835 26
124 1 21.9472 4.64108 17.5555 23
125 1 24.8713 9.19763 29.3925 23
126 1 20.5244 13.5683 3.22567 22
127 1 17.7816 13.7783 53.6977 24
128 1 32.2569 28.9434 16.1779 20
129 1 12.5186 12.4164 12.68 21
130 1 15.2237 21.1143 1.9659 22
131 1 14.5017 13.8568 30.3785 24
132 1 3.07509 6.62246 24.331 22
133 1 0.9564 29.2095 7.1875 19
134 1 32.3621 21.7272 16.6959 19
135 1 25.6603 23.8887 16.17 19
136 1 14.5513 21.8222 51.8317 23
137 1 6.64101 7.94427 10.6004 21
138 1 1.58079 31.8444 2.54632 23
139 1 15.7472 28.1502 47.7794 19
140 1 15.8776 10.35 60.5856 24
141 1 32.2147 33.9236 21.9888 19
142 1 21.2605 15.92 15.6948 22
143 1 15.2082 22.7025 23.931 23
144 1 13.1224 12.5024 37.0907 22
145 1 17.2804 22.578 53.5308 22
146 1 25.7429 11.5398 13.4304 22
147 1 30.434 27.1291 2.52004 21
148 1 7.64237 13.9858 1.14741 21
149 1 13.5084 2.84717 49.9394 23
150 1 6.35942 22.3751 11.2726 19
151 1 2.06849 30.8574 29.6164 22
152 1 12.8327 29.2589 15.0804 21
153 1 26.5093 6.54675 28.6309 22
154 1 5.43325 5.60231 61.4003 25
155 1 15.2095 12.9661 62.7274 23
156 1 9.48403 6.66267 24.4462 20
157 1 19.4685 10.3978 7.8473 24
158 1 16.7059 9.25544 14.6954 23
159 1 3.488 9.92387 9.8911 19
160 1 12.1583 27.0684 59.0853 20
161 1 17.4373 30.5941 17.1076 24
162 1 20.6386 18.363 30.3925 20
163 1 7.20368 10.7135 45.8799 24
164 1 31.3014 34.3554 16.0168 21
165 1 14.0757 21.1452 7.67112 21
166 1 21.0401 24.1166 0.740515 25
167 1 29.6036 6.72409 11.7777 21
168 1 20.62 3.18218 15.4125 19
169 1 15.4492 5.50089 26.3773 17
170 1 8.63575 14.3042 30.1245 23
171 1 17.9684 24.3375 59.4339 20
172 1 26.9286 30.1126 20.6394 24
173 1 17.0809 21.017 31.0582 22
174 1 22.2354 19.9781 5.91296 21
175 1 30.871 30.5962 2.06856 19
176 1 20.8603 25.7301 43.7297 24
177 1 18.2606 14.3018 15.4544 20
178 1 4.56416 24.2074 17.664 19
179 1 22.4301 28.8779 17.1725 20
180 1 26.3389 25.9181 13.4271 23
181 2 8.81298 12.9887 58.503 22
182 2 7.47984 15.3445 53.483 23
183 2 22.2041 5.81852 51.2885 21
184 2 17.382 7.82831 58.2876 22
185 2 7.75226 28.9162 38.2114 22
186 2 25.2381 30.3201 29.1235 24
187 2 19.9894 33.84 14.7732 23
188 2 18.9611 31.0444 24.3684 22
189 2 29.4494 3.09268 16.5837 23
190 2 15.3185 1.33777 21.1869 17
191 2 0.990113 7.47257 32.407 22
192 2 11.1945 20.8477 10.5648 22
193 2 14.9453 20.3083 58.0691 21
194 2 19.4142 22.5512 3.10908 20
195 2 29.3925 10.162 2.50925 24
196 2 6.52096 8.18298 12.4981 18
197 2 32.6037 25.7403 7.06214 21
198 2 4.79929 8.44195 10.0324 19
199 2 12.4222 12.1071 58.6303 20
200 2 18.4969 13.7581 17.0056 22
201 2 30.1296 9.4127 62.6909 20
202 2 32.3649 2.61884 24.9711 19
203 2 31.8222 11.37 11.0676 22
204 2 21.9628 12.8906 33.7102 19
205 2 23.7372 11.642 11.8653 21
206 2 21.5045 8.81975 9.25159 20
207 2 1.90072 2.91932 52.7946 20
208 2 23.6971 27.4524 5.61555 23
209 2 22.7111 9.02098 56.9271 20
210 2 12.7347 33.2803 34.5133 19
211 2 25.0217 16.0304 54.8116 23
212 2 7.88861 14.312 6.51864 20
213 2 28.5877 18.3639 8.49578 25
214 2 14.0172 8.29383 0.923724 25
215 2 6.46041 24.7832 2.07568 22
216 2 0.221915 32.6008 30.1017 16
217 2 0.637886 32.595 47.0977 20
218 2 12.3347 17.4366 36.6632 23
219 2 8.12246 19.1994 1.30758 22
220 2 6.99196 1.84486 28.4372 22
221 2 26.8621 22.9398 45.8898 20
222 2 32.439 26.1466 10.5701 19
223 2 3.37417 20.8618 19.5707 21
224 2 12.7722 1.39692 19.8163 20
225 2 22.6115 33.0779 20.4351 22
226 2 15.0903 17.0972 18.5531 22
227 2 14.7836 7.37212 19.1097 17
228 2 28.3367 27.1807 54.8126 23
229 2 32.6957 7.34088 28.5066 18
230 2 9.08228 0.0967731 12.062 18
231 2 29.9387 22.9799 4.7796 20
232 2 8.33664 19.6476 59.4143 21
233 2 10.1904 4.36162 59.8323 19
234 2 8.57069 4.42312 8.27256 20
235 2 12.783 11.207 56.0067 22
236 2 23.9432 19.437 50.0636 20
237 2 1.8158 34.381 9.16854 21
238 2 18.2453 26.3098 54.8674 18
239 2 26.9813 16.7176 28.2604 20
240 2 16.0026 10.6221 55.3372 21
241 2 11.3719 3.21328 1.59882 20
242 2 24.7848 32.8 22.9188 19
243 2 5.84222 9.45394 31.9749 22
244 2 31.2856 11.1163 44.4052 19
245 2 30.3352 2.9149 12.9469 22
246 2 27.9152 9.77823 60.107 19
247 2 23.278 26.7125 26.6 24
248 2 12.3388 31.0569 14.4866 20
249 2 12.5141 3.38684 44.4201 22
250 2 21.767 0.374193 7.65811 19
251 2 15.3239 16.3315 37.8408 23
252 2 30.0755 15.734 1.40154 24
253 2 20.4475 7.00013 13.0686 21
254 2 7.06674 4.223 54.7494 21
255 2 25.1145 29.98 7.36515 22
256 2 8.1741 18.2604 7.38727 19
257 2 22.6868 14.3221 15.8331 19
258 2 6.02134 15.6734 61.1425 19
259 2 17.3482 9.87644 26.2435 24
260 2 4.8314 10.2801 55.096 21
261 2 28.9376 24.1433 12.6467 21
262 2 4.7658 6.19525 23.6685 23
263 2 7.0748 20.5798 6.62512 22
264 2 12.0363 6.88146 31.7442 18
265 2 17.3509 16.0168 43.082 20
266 2 6.40702 27.9749 7.44631 20
267 2 14.4279 17.492 8.86111 20
268 2 14.2258 33.07 62.5593 23
269 2 30.7119 17.9756 17.682 23
270 2 26.2816 3.04419 2.2867 23
271 2 4.6735 22.8741 10.2534 18
272 2 8.42972 5.15087 29.0342 21
273 2 29.0984 15.5391 38.0306 23
274 2 28.2948 29.2746 19.6237 21
275 2 1.01653 27.0759 54.7108 25
276 2 10.6394 18.0819 5.20637 20
277 2 22.3425 30.5023 10.7748 18
278 2 28.803 17.3141 34.8517 24
279 2 13.0424 11.8086 16.3675 21
280 2 15.9477 16.4765 11.277 23
281 2 13.3803 0.814305 6.58723 20
282 2 26.9165 5.99682 1.22577 23
283 2 23.1859 2.61675 6.30972 25
284 2 17.4108 21.6374 9.98818 21
285 2 18.2688 12.9298 19.7999 22
286 2 2.06524 2.70737 14.5675 22
287 2 15.9426 14.1339 33.4399 22
288 2 7.9247 20.6944 31.2322 23
289 2 18.8226 9.26644 3.44485 24
290 2 2.96889 8.90614 56.3291 18
291 2 16.5303 7.29486 27.2108 17
292 2 4.09253 1.83854 45.997 22
293 2 23.2622 13.3289 25.372 22
294 2 24.4381 0.320563 62.9097 20
295 2 12.2318 28.6605 60.958 20
296 2 15.9456 29.9854 48.147 21
297 2 12.8863 24.0955 55.253 22
298 2 19.5316 27.8572 22.7923 22
299 2 1.97211 21.2411 55.4765 21
300 2 25.7986 5.96568 26.8592 24
301 2 26.9182 12.4879 17.5099 19
302 2 1.80804 27.9503 45.3165 21
303 2 15.6947 3.47332 46.9532 19
304 2 28.5934 1.17227 61.6871 19
305 2 6.29592 20.0758 28.8065 22
306 2 28.9999 5.53056 25.1257 21
307 2 11.026 17.2087 48.1939 22
308 2 18.2305 5.06008 15.2879 22
309 2 6.61003 20.3474 62.2062 23
310 2 31.5126 15.4846 47.9487 24
311 2 12.8886 3.71661 22.2559 22
312 2 22.6595 21.7775 27.8972 23
313 2 1.31404 8.40812 6.7974 19
314 2 18.8628 2.22248 14.8761 22
315 2 0.974123 23.076 59.765 21
316 2 30.5738 5.75756 17.7794 23
317 2 12.7824 26.4929 21.5503 18
318 2 28.6514 9.82714 8.92088 21
319 2 6.55266 32.5316 20.8138 23
320 2 10.2613 26.7123 58.9025 23
321 2 17.9444 33.7794 24.1586 21
322 2 18.6578 13.0007 55.1579 20
323 2 18.6785 0.855651 62.0164 24
324 2 7.89506 22.5101 3.31123 22
325 2 11.5204 14.4328 11.7423 22
326 2 24.4805 12.1267 4.50464 21
327 2 11.7245 10.8324 36.0023 20
328 2 23.5695 5.7449 62.655 19
329 2 15.021 17.1445 44.4625 20
330 2 24.547 2.08997 14.4699 21
331 2 9.24409 12.9039 22.9134 19
332 2 5.48112 16.4666 49.832 21
333 2 11.7234 10.9561 0.58731 21
334 2 8.75669 18.7387 12.3732 21
335 2 9.30962 13.0458 19.9934 20
336 2 3.08294 10.2783 4.9482 20
337 2 12.035 31.4382 60.3066 24
338 2 9.95551 31.0017 55.1322 19
339 2 16.7393 27.4494 4.25848 21
340 2 10.9805 23.247 5.43927 22
341 2 28.057 18.6549 60.5012 21
342 2 26.6836 17.7783 51.674 21
343 2 12.6671 15.867 3.99746 19
344 2 5.83703 29.8993 21.6394 23
345 2 21.7068 2.87543 42.8996 21
346 2 28.6176 3.49427 46.9179 18
347 2 14.2806 26.6088 34.2305 22
348 2 16.676 21.8592 22.6425 23
349 2 17.8763 24.6848 15.1995 21
350 2 23.7399 12.1952 35.3552 19
351 2 8.62752 6.99437 27.2117 19
352 2 9.13254 27.7177 62.3918 21
353 2 27.4774 7.96725 25.0534 21
354 2 12.8054 20.1443 48.1781 22
355 2 14.2301 12.9176 1.06847 23
356 2 19.0276 19.2591 13.4274 21
357 2 10.7828 22.7422 54.733 24
358 2 13.3327 18.8838 63.1348 22
359 2 8.69637 30.7754 3.36047 18
360 2 5.53872 3.76298 22.5902 22
361 1 8.18432 12.2681 18.6949 14
362 1 9.90884 3.05353 8.18212 18
363 1 4.96423 3.96192 33.789 20
364 1 23.4745 16.6785 5.3885 19
365 1 11.3039 2.18141 62.9077 23
366 1 10.5623 2.29904 40.1019 20
367 1 16.1818 25.4876 12.445 20
368 1 8.09112 10.1509 24.8503 19
369 1 28.6567 1.79986 26.6632 19
370 1 3.65299 17.2143 16.1628 19
371 1 15.1068 28.4988 16.6364 19
372 1 21.2273 33.2794 28.3789 18
373 1 15.0468 2.51404 62.7806 22
374 1 6.02108 24.4529 4.23915 21
375 1 32.6175 24.4999 60.9188 21
376 1 23.1512 25.7944 29.8503 24
377 1 1.05708 2.06032 34.4917 21
378 1 25.8943 20.3952 41.7562 20
379 1 7.84693 18.4218 28.8885 23
380 1 20.5745 26.4757 63.0635 18
381 1 20.517 2.97519 57.1917 21
382 1 4.13645 29.6485 2.27638 21
383 1 29.3771 1.00486 4.95911 21
384 1 17.2212 17.2827 4.89742 22
385 1 9.35536 5.9504 14.2687 19
386 1 11.2737 21.4411 5.80714 22
387 1 20.9957 28.0258 58.5017 20
388 1 16.7184 18.2413 25.6154 18
389 1 12.8867 0.267279 21.5185 22
390 1 32.0362 2.3812 12.4 20
391 1 32.4829 21.6201 24.1626 23
392 1 8.89126 11.72 21.4462 19
393 1 25.0282 4.79664 44.8926 20
394 1 21.4733 9.45053 26.7983 22
395 1 17.443 4.95004 48.9598 19
396 1 4.66641 14.882 18.0449 23
397 1 8.49294 26.4018 0.492872 23
398 1 3.43307 21.3825 57.298 26
399 1 26.9123 27.2215 19.9076 20
400 1 1.82421 18.3875 43.675 23
401 1 25.0907 30.536 31.0517 19
402 1 26.81 28.0332 25.2927 26
403 1 14.5945 21.6657 41.082 20
404 1 1.16662 16.7617 37.8506 21
405 1 23.162 32.7722 22.4772 19
406 1 14.9267 12.3876 10.8943 24
407 1 11.0574 32.1272 7.47392 20
408 1 14.603 27.5586 26.4598 20
409 1 25.7295 3.33709 22.3826 22
410 1 24.1492 0.240424 32.3561 21
411 1 15.5628 28.163 33.6434 20
412 1 1.44282 30.0672 26.5035 20
413 1 4.58701 25.4973 23.9601 21
414 1 27.382 0.37363 11.9249 23
415 1 15.6743 14.7306 13.0649 21
416 1 32.2273 26.5897 31.8718 19
417 1 26.73 12.0127 40.0127 20
418 1 10.0352 11.7302 9.90955 20
419 1 19.7067 29.3477 21.2216 22
420 1 10.1539 17.7997 17.3179 22
421 1 13.6226 23.445 15.31 23
422 1 6.55139 2.66387 13.0369 24
423 1 25.0039 19.4504 4.2023 21
424 1 13.3342 10.4608 34.6781 21
425 1 28.2518 15.3341 49.8454 22
426 1 22.3453 14.458 32.7734 22
427 1 21.9734 10.0257 8.08877 20
428 1 3.01236 15.4044 8.62409 17
429 1 8.73449 1.43723 13.7278 18
430 1 4.87441 16.5514 44.9758 21
431 1 27.0258 13.4283 15.7018 21
432 1 22.1652 1.03422 34.4261 22
433 1 4.97123 16.5568 62.5415 19
434 1 23.2286 8.58938 37.3825 19
435 1 5.37989 33.3796 40.2603 19
436 1 17.7012 20.0701 22.6675 21
437 1 30.4427 19.3827 2.61557 20
438 1 13.1721 33.9821 46.4245 22
439 1 30.8781 27.7582 6.94243 22
440 1 19.8211 26.1703 15.6417 21
441 1 18.457 12.644 22.1475 21
442 1 16.3327 11.7125 23.5023 21
443 1 21.6956 16.6019 37.5408 20
444 1 4.58817 30.5934 46.1401 25
445 1 31.7442 22.0111 29.6184 21
446 1 26.9388 5.76106 12.1292 22
447 1 10.9723 20.0639 18.5924 21
448 1 30.3956 17.4616 47.9966 21
449 1 14.9961 23.5644 18.1077 24
450 1 0.387234 13.7222 22.9534 19
451 1 8.76109 17.3403 34.9285 23
452 1 7.40985 0.793568 10.8611 22
453 1 6.74332 27.7247 45.2442 22
454 1 7.87754 15.7657 60.7194 22
455 1 30.8066 26.6448 15.0326 20
456 1 7.38735 19.3334 18.8321 24
457 1 12.1195 8.12638 24.9124 21
458 1 16.4696 27.1315 29.3012 19
459 1 24.8978 11.631 17.4507 22
460 1 24.8889 15.1943 24.0427 20
461 1 2.09021 12.0158 53.7196 21
462 1 0.513063 11.0345 23.9926 21
463 1 21.5209 8.4005 39.2675 20
464 1 16.0032 8.61327 20.1106 19
465 1 24.4697 26.77 58.149 19
466 1 28.195 9.71261 54.8627 16
467 1 1.98407 4.36537 9.93646 23
468 1 19.5672 3.25151 30.487 22
469 1 21.9214 17.5514 55.8735 24
470 1 24.0191 27.3527 33.0629 21
471 1 21.9789 15.6903 12.6898 23
472 1 18.056 5.43686 24.9059 22
473 1 15.7878 31.152 4.57941 26
474 1 31.2528 24.9353 8.82285 19
475 1 14.929 1.01702 23.1536 23
476 1 17.7637 21.0765 17.0909 21
477 1 20.965 7.55733 50.8655 20
478 1 26.409 0.729928 39.3025 22
479 1 21.751 17.1715 7.62794 19
480 1 16.7057 24.1962 31.3314 19
481 1 0.733025 4.51852 23.2608 23
482 1 29.6219 17.3625 16.1613 23
483 1 15.1511 28.9422 7.87515 21
484 1 18.0414 11.1023 2.59725 24
485 1 21.5098 13.0263 15.1568 21
486 1 14.223 33.4976 6.77912 20
487 1 18.9694 6.70237 37.5038 22
488 1 15.1768 25.0665 34.245 20
489 1 13.3932 7.64058 53.464 20
490 1 17.9359 1.01991 57.3804 20
491 1 11.3015 19.404 35.8946 26
492 1 8.86504 25.5905 18.6489 23
493 1 29.983 13.1669 28.3267 24
494 1 25.1406 15.0637 30.6577 24
495 1 10.9519 31.1919 11.8735 20
496 1 3.19607 14.2519 31.9688 21
497 1 3.22081 19.5799 26.2115 19
498 1 20.1644 32.5822 16.5808 17
499 1 31.6858 1.98039 36.3439 25
500 1 0.316076 17.6565 60.2086 19
501 1 1.50465 19.3917 55.6774 17
502 1 2.10899 33.2893 35.054 20
503 1 12.3762 28.4261 11.4801 21
504 1 21.4582 3.90662 38.1582 23
505 1 23.4093 28.8688 10.8635 21
506 1 12.871 33.0319 29.588 19
507 1 19.5995 21.2124 12.6632 23
508 1 25.5793 14.1329 11.9774 20
509 1 16.8011 1.81494 19.8906 20
510 1 2.36295 12.8953 25.8122 25
511 1 25.5358 22.0395 32.9321 21
512 1 0.604998 27.0645 53.0929 21
513 1 12.3484 27.5792 25.7903 21
514 1 7.24073 16.6224 15.7062 22
515 1 22.0874 22.8476 34.2816 20
516 1 12.5998 22.0718 25.7685 21
517 1 17.4618 11.5379 10.9263 23
518 1 20.3746 27.0479 9.97443 21
519 1 27.0078 15.5538 14.5779 21
520 1 31.7003 10.016 37.254 21
521 1 28.8501 19.3776 11.1296 22
522 1 6.89303 11.7678 2.0507 22
523 1 6.45649 32.4082 48.9999 22
524 1 2.16989 30.415 12.4659 20
525 1 26.1431 26.0343 3.40005 21
526 1 1.40409 17.1482 32.6171 19
527 1 12.4739 7.40484 33.6442 19
528 1 12.4177 21.7411 17.091 18
529 1 1.98099 28.2093 21.5794 19
530 1 0.454156 8.24721 24.7953 23
531 1 32.0589 30.601 44.6428 23
532 1 13.1462 14.12 4.48187 22
533 1 20.7109 15.7059 22.9613 22
534 1 29.451 16.4717 33.0214 22
535 1 23.7127 34.1907 8.34838 22
536 1 23.3889 7.49641 28.1001 24
537 1 5.97613 4.88685 24.2065 24
538 1 5.5198 16.5207 9.69102 22
539 1 4.98873 17.0238 33.9714 22
540 1 21.3495 17.9899 13.7628 20
541 2 12.51 20.863 59.9794 23
542 2 27.4379 8.52378 47.5051 23
543 2 15.6144 33.3946 22.3925 23
544 2 15.7879 13.5385 54.3099 22
545 2 0.152696 18.7152 32.9461 19
546 2 19.2653 2.85666 35.0225 21
547 2 20.3147 26.1917 25.0347 21
548 2 13.2675 33.8165 27.9448 21
549 2 18.0892 1.23295 21.643 20
550 2 26.9537 0.681043 1.10723 22
551 2 10.815 28.8684 2.79781 20
552 2 1.61428 15.5957 31.6305 22
553 2 21.4572 3.09162 30.7411 21
554 2 24.1876 16.3547 25.4719 23
555 2 31.2473 0.650852 41.104 22
556 2 0.744311 31.8484 51.8225 22
557 2 5.36611 4.36953 29.2052 21
558 2 18.5308 24.9182 35.5253 23
559 2 14.9441 24.3145 22.8972 22
560 2 7.96663 9.99008 2.35485 21
561 2 3.22626 2.64232 24.3806 25
562 2 4.39588 7.33415 40.89 19
563 2 9.69349 19.0791 28.5817 25
564 2 26.3469 13.4463 48.7594 22
565 2 4.22758 22.5872 16.9746 20
566 2 2.87859 15.6239 13.6741 19
567 2 3.79832 31.7006 26.1704 22
568 2 5.27203 28.7166 36.9169 21
569 2 21.083 26.1504 4.30871 20
570 2 5.57011 5.80981 33.2775 23
571 2 10.6574 5.28183 12.345 16
572 2 18.9628 26.481 42.645 23
573 2 27.836 24.5503 25.686 21
574 2 22.5351 27.6314 38.3908 21
575 2 7.42707 28.8778 43.9662 23
576 2 1.13482 19.0191 41.8849 22
577 2 11.9135 29.2946 20.426 21
578 2 5.53402 31.4555 47.7278 21
579 2 25.7094 19.5317 46.4191 24
580 2 24.0927 17.8817 23.5863 20
581 2 21.8527 16.57 30.1543 19
582 2 24.0178 22.8895 33.7385 21
583 2 17.2414 18.8406 16.1272 21
584 2 18.3056 14.1318 29.6855 22
585 2 15.9793 12.0919 21.4149 21
586 2 31.5902 13.2616 27.566 18
587 2 26.2426 27.5875 49.1356 21
588 2 14.075 -0.272978 37.9019 22
589 2 22.3516 19.8289 21.848 19
590 2 13.0339 14.2582 29.1039 21
591 2 25.3379 4.11234 38.0632 21
592 2 6.07797 29.3504 14.6273 23
593 2 21.0477 5.27594 23.5841 22
594 2 21.3233 31.4461 28.8401 18
595 2 20.6791 3.95687 13.4522 21
596 2 3.68243 8.40347 30.5225 21
597 2 31.534 19.4183 36.3627 20
598 2 17.0806 5.7544 31.3438 19
599 2 27.657 20.1127 26.3518 19
600 2 26.6659 19.2669 29.4742 21
601 2 4.28039 18.2986 14.6505 23
602 2 23.7445 8.46225 26.447 22
603 2 27.7365 28.0687 28.7649 21
604 2 21.6918 0.921965 5.32405 22
605 2 10.0756 21.0755 32.9146 22
606 2 0.887237 34.0125 41.8478 19
607 2 9.86266 20.4262 15.6235 21
608 2 21.6733 10.0007 38.0096 20
609 2 15.1949 5.11033 12.395 23
610 2 10.5504 19.258 23.6102 18
611 2 25.3731 5.43308 54.143 18
612 2 14.1494 6.25629 56.7734 23
613 2 13.0032 1.93122 29.2814 23
614 2 31.7952 30.1327 14.6221 21
615 2 14.9186 33.1313 17.4653 19
616 2 19.0095 28.7098 57.1185 19
617 2 22.1545 26.2254 18.7899 23
618 2 22.8241 -0.109017 30.8624 20
619 2 5.59646 1.95169 3.304 22
620 2 19.9635 16.7371 36.1809 21
621 2 11.6649 7.99705 11.0959 18
622 2 16.9512 17.3113 40.6767 18
623 2 5.25922 8.37375 6.00141 17
624 2 15.3878 7.61248 30.3243 24
625 2 30.3382 20.1837 53.6458 18
626 2 25.983 34.3319 13.1392 19
627 2 25.7142 11.2624 21.1723 24
628 2 24.509 26.6654 8.29693 22
629 2 28.828 27.0025 19.6418 20
630 2 29.4677 8.50435 38.8298 20
631 2 14.3971 19.0922 36.7427 22
632 2 30.6128 29.0362 33.2606 21
633 2 9.92667 10.2211 38.5218 22
634 2 20.2124 -0.12059 18.1419 19
635 2 15.7772 3.47035 38.5227 20
636 2 13.1612 17.5293 23.2003 22
637 2 7.52151 18.7603 48.0422 21
638 2 25.2321 22.5391 17.5829 21
639 2 22.05 6.34021 30.9514 24
640 2 27.4005 14.2295 26.3019 23
641 2 27.5717 33.5718 23.6752 19
642 2 19.9913 8.83487 30.5971 21
643 2 6.43731 17.9727 42.5394 21
644 2 4.48537 7.67788 18.3362 20
645 2 17.7344 4.13518 11.5686 20
646 2 4.78224 32.5538 53.2003 21
647 2 30.2271 24.6263 15.6127 17
648 2 13.3879 19.9992 28.5474 20
649 2 25.8781 31.9689 11.8091 24
650 2 17.0369 23.0686 37.3586 19
651 2 19.794 8.85419 18.0121 20
652 2 2.72475 18.8442 30.2231 21
653 2 23.9097 34.2345 33.9883 22
654 2 26.9562 16.1678 24.0278 21
655 2 5.29604 23.3241 54.6428 20
656 2 2.46088 2.50261 57.443 24
657 2 10.2071 1.86967 28.7341 21
658 2 12.2705 6.99955 20.6609 21
659 2 15.3763 3.4384 6.61255 20
660 2 25.1193 0.110357 7.10644 22
661 2 22.9856 28.9833 49.4323 21
662 2 23.6939 33.8242 37.0548 21
663 2 24.5862 31.0505 5.19685 21
664 2 29.8174 13.7869 11.6704 26
665 2 8.74971 5.86556 34.5699 18
666 2 10.0451 15.257 28.0925 22
667 2 13.1487 4.19279 25.455 19
668 2 24.8799 17.3151 31.0612 22
669 2 18.3212 10.6977 37.5037 24
670 2 21.479 34.165 45.4238 21
671 2 18.8079 32.8398 38.1427 24
672 2 32.6692 -0.270608 32.2612 20
673 2 2.33012 17.9797 11.811 19
674 2 31.4751 26.0053 13.3227 17
675 2 20.5668 13.968 11.0132 19
676 2 16.4945 27.9401 43.0402 20
677 2 20.7138 24.7366 45.3519 20
678 2 0.267334 17.8003 25.4399 18
679 2 3.31237 26.7246 23.1848 22
680 2 9.78159 23.7041 15.636 23
681 2 23.8083 23.6043 52.3197 18
682 2 10.2047 12.1228 34.0697 24
683 2 24.5882 27.0548 20.3321 20
684 2 27.4442 22.2881 33.7789 23
685 2 15.2346 1.33944 13.4473 23
686 2 18.9184 25.4463 32.2951 19
687 2 15.0861 4.28244 18.0743 19
688 2 18.6832 32.5592 49.787 19
689 2 8.93572 23.4133 10.9937 19
690 2 19.8449 14.5884 19.221 19
691 2 22.303 21.6835 36.3482 19
692 2 0.736447 18.3172 19.8401 20
693 2 30.6887 -0.24198 9.06352 18
694 2 24.3429 17.3822 45.3153 21
695 2 26.7559 4.57529 15.5486 24
696 2 23.0071 30.8089 30.9801 19
697 2 5.92497 22.7826 59.2374 21
698 2 22.954 29.8197 15.674 19
699 2 0.491337 3.73743 11.5488 22
700 2 9.83771 15.8218 4.23278 19
701 2 17.8749 14.4052 36.0471 20
702 2 30.4124 22.9649 29.0965 19
703 2 31.7335 6.00951 26.5513 19
704 2 0.220363 1.19615 55.2096 20
705 2 26.7065 22.695 28.1663 19
706 2 24.8678 28.7581 24.4834 21
707 2 11.8572 19.114 16.8684 17
708 2 28.1316 31.9304 27.9928 22
709 2 5.25972 33.9034 60.4593 20
710 2 31.1255 23.5728 10.1502 20
711 2 15.3877 15.4922 22.2051 20
712 2 17.4522 2.78985 1.01553 21
713 2 4.16941 13.5399 49.5995 21
714 2 25.2466 3.36075 55.0446 21
715 2 22.1549 24.5559 35.8227 18
716 2 2.80105 16.2237 52.8783 19
717 2 7.97844 20.6029 40.6013 20
718 2 13.8476 33.7901 11.7479 19
719 2 4.61344 14.4481 33.6118 22
720 2 32.7771 5.0953 52.5181 19
721 1 20.8703 31.009 0.327083 25
722 1 27.913 18.8026 5.49856 23
723 1 6.64966 8.11145 58.0148 21
724 1 11.5542 0.891337 7.60672 20
725 1 31.2555 15.4789 22.5213 22
726 1 1.05047 12.9851 3.86877 23
727 1 11.4936 15.9666 59.9981 21
728 1 19.0718 14.9055 12.5603 22
729 1 12.84 32.374 3.44249 22
730 1 24.1927 19.2084 20.5894 22
731 1 10.6498 25.4563 15.3105 21
732 1 32.7182 24.8238 23.8094 20
733 1 21.0129 21.4914 49.2013 21
734 1 28.5833 5.09486 50.8463 19
735 1 31.6454 12.9627 12.1831 24
736 1 4.69407 10.4548 3.31733 24
737 1 1.96292 25.565 22.0807 22
738 1 20.5374 11.7386 0.727624 24
739 1 18.1799 12.4803 5.21513 22
740 1 6.24009 13.37 6.97795 17
741 1 24.1058 28.3657 7.71408 23
742 1 17.0756 19.897 9.71858 21
743 1 11.0382 2.62022 3.48322 23
744 1 1.77523 19.9514 20.449 21
745 1 26.4202 7.80066 17.8466 21
746 1 2.31565 22.7864 48.0818 24
747 1 26.8809 19.38 62.1475 22
748 1 29.8517 5.77353 1.35208 22
749 1 20.3429 0.0798838 62.4409 22
750 1 6.64288 32.7346 46.4265 22
751 1 6.79435 29.2559 8.8059 24
752 1 1.54387 13.808 13.8667 21
753 1 10.1414 9.39916 6.23016 20
754 1 21.5229 20.1934 35.3433 18
755 1 16.5774 7.4841 41.7562 21
756 1 10.3519 15.607 14.6501 20
757 1 8.37459 12.4545 5.99216 20
758 1 14.8297 28.1393 5.10567 19
759 1 18.0008 9.80212 52.2539 24
760 1 8.60893 20.6185 63.0522 21
761 1 12.7116 33.6915 10.0112 22
762 1 16.9245 20.9042 5.88264 22
763 1 1.0554 6.95307 22.3849 24
764 1 27.1215 33.665 43.1107 22
765 1 31.2908 28.6942 34.9133 24
766 1 3.26711 5.92981 42.0119 22
767 1 2.9647 11.4655 18.2331 20
768 1 24.7452 28.5105 49.8634 25
769 1 4.07485 21.3102 39.2383 18
770 1 32.5305 29.1431 4.23489 20
771 1 11.9228 17.9429 62.3393 22
772 1 16.2406 17.1278 15.085 21
773 1 4.4317 1.07371 19.5666 21
774 1 23.3736 33.3718 3.56097 22
775 1 19.3239 28.9566 1.32746 21
776 1 14.3038 30.2742 25.5722 20
777 1 26.3568 25.283 24.5004 22
778 1 30.4476 29.4517 50.2259 17
779 1 24.1342 17.6851 42.1117 21
780 1 16.561 12.7584 59.3611 22
781 1 31.4648 24.9792 17.2173 19
782 1 12.0209 25.5215 12.7611 20
783 1 5.18727 23.8629 48.9045 23
784 1 0.711426 12.0684 6.61949 26
785 1 29.742 21.7365 54.7772 19
786 1 2.68577 17.2975 59.8924 20
787 1 9.19026 17.7789 13.898 20
788 1 31.448 11.156 9.36297 24
789 1 10.4082 19.353 11.9457 22
790 1 31.2007 2.1469 39.8831 24
791 1 5.46535 8.10052 42.694 19
792 1 7.05827 15.1593 13.0552 21
793 1 27.0502 4.00976 0.714433 22
794 1 32.4229 31.7871 55.1806 23
795 1 2.91223 8.14526 44.6513 22
796 1 8.7214 15.084 10.9909 20
797 1 27.0686 20.7294 16.5033 23
798 1 18.8212 15.066 55.6041 23
799 1 9.78292 17.3055 8.31992 19
800 1 11.21 10.8238 23.4898 23
801 1 25.3227 16.4643 27.0631 22
802 1 4.57701 31.0219 10.6933 24
803 1 9.18935 6.65912 19.1003 20
804 1 14.7831 26.2324 49.5477 23
805 1 16.4827 11.1659 31.3974 21
806 1 9.36232 19.1237 25.9962 20
807 1 31.9304 20.6588 21.2626 22
808 1 12.5354 15.5808 2.04889 25
809 1 1.03671 17.0086 41.1489 24
810 1 10.4111 -0.0136193 55.5948 24
811 1 6.8968 2.14123 30.2375 20
812 1 4.95892 5.25148 44.2887 17
813 1 16.4283 18.3156 17.8838 21
814 1 11.4707 -0.134954 51.1951 23
815 1 13.9265 24.1426 12.3383 18
816 1 11.0434 21.1771 61.0124 21
817 1 13.1826 7.8467 60.1148 21
818 1 3.62225 19.9553 60.1886 22
819 1 26.4537 29.39 58.4031 21
820 1 8.25634 10.7684 53.6267 21
821 1 14.8988 15.9888 60.7554 19
822 1 1.78332 14.5165 58.4836 21
823 1 17.6808 27.0717 22.1563 23
824 1 14.4112 15.6558 63.366 19
825 1 2.58325 11.8344 11.1963 17
826 1 23.6637 6.23398 16.4867 20
827 1 22.8613 15.4196 26.2839 23
828 1 27.7308 13.2338 30.3803 18
829 1 7.24182 22.7464 51.7867 25
830 1 3.608 33.3563 0.672213 23
831 1 10.4388 30.108 49.0323 21
832 1 1.48927 8.32168 55.1666 17
833 1 23.1223 3.63193 4.63602 22
834 1 5.3477 32.3263 18.6382 24
835 1 9.01038 27.8724 7.48356 23
836 1 16.4069 0.199731 49.5871 20
837 1 28.2245 2.52508 30.7593 20
838 1 15.3423 7.50808 35.4978 20
839 1 30.888 5.59778 24.6884 23
840 1 14.3859 16.91 31.775 24
841 1 4.21984 22.6294 5.45008 23
842 1 8.55595 20.3509 55.833 23
843 1 30.4487 19.4274 60.7761 23
844 1 12.9932 21.2513 13.0654 20
845 1 7.84722 5.67701 63.2025 24
846 1 14.184 11.1142 21.1751 19
847 1 32.4175 11.9151 29.8874 20
848 1 31.6017 18.1268 38.1438 21
849 1 29.153 16.7089 60.2415 24
850 1 24.3316 1.87349 1.63111 25
851 1 19.9524 28.4896 25.0108 22
852 1 1.8898 18.7593 18.3168 22
853 1 25.0982 26.0617 6.43873 23
854 1 6.62929 17.5686 40.2008 22
855 1 20.6067 20.3892 10.1237 19
856 1 26.9844 2.55586 50.8144 20
857 1 9.72746 8.81108 27.2395 19
858 1 23.8733 4.61234 11.7359 22
859 1 28.6293 3.07775 11.7192 20
860 1 15.2856 5.96444 32.5575 16
861 1 15.0781 11.5011 53.5552 20
862 1 9.99095 17.2771 29.6566 24
863 1 2.44911 16.5437 21.5086 20
864 1 5.72412 20.2267 10.0188 18
865 1 13.3834 0.278251 62.0313 18
866 1 16.1026 14.4554 5.86986 20
867 1 26.5256 8.15938 11.2272 20
868 1 25.3723 18.3492 11.6432 21
869 1 21.9016 29.9044 22.7951 24
870 1 23.5997 4.34506 58.0094 20
871 1 21.009 34.0571 6.21434 21
872 1 10.6001 32.4434 0.735332 23
873 1 23.2603 26.3992 3.77382 22
874 1 24.2157 15.6809 16.6706 19
875 1 23.7713 4.84838 55.0483 23
876 1 31.6842 19.3842 10.6924 19
877 1 1.01701 19.6822 12.3133 20
878 1 32.1665 3.59533 60.8571 19
879 1 5.41898 15.4532 2.20665 20
880 1 31.6333 13.2168 53.4334 24
881 1 7.54404 5.92613 25.8559 19
882 1 7.87767 7.65155 41.3408 20
883 1 6.18446 11.7409 38.2221 22
884 1 7.79371 7.51098 51.9542 24
885 1 22.1733 8.2372 5.6997 16
886 1 18.3073 23.4455 28.9509 19
887 1 22.5363 23.0274 29.2999 20
888 1 26.1466 2.50859 25.3977 22
889 1 1.85462 19.4974 15.2668 21
890 1 13.2668 21.6351 58.1618 21
891 1 5.99905 22.2004 62.3598 23
892 1 5.19722 1.53215 27.575 23
893 1 28.0023 31.5569 62.319 18
894 1 7.54828 1.56888 2.77741 21
895 1 26.6446 14.7373 18.3311 23
896 1 25.3451 29.0505 52.7446 25
897 1 11.1831 17.0255 10.5996 24
898 1 17.8252 5.48524 28.3067 21
899 1 24.9972 1.19748 10.3589 20
900 1 11.185 20.3326 8.83981 23
901 2 1.20024 30.6623 16.0881 21
902 2 24.9649 2.69462 26.998 22
903 2 1.5047 33.9915 17.4106 18
904 2 9.3298 13.0588 25.8028 20
905 2 14.4239 7.97196 11.5072 20
906 2 19.1336 -0.0270894 4.3068 18
907 2 20.2198 7.05067 54.0096 21
908 2 13.9757 33.0836 58.136 19
909 2 7.96725 24.7741 29.7196 25
910 2 32.6064 20.7602 10.9103 17
911 2 12.6269 31.7041 11.1862 21
912 2 27.9796 4.70274 61.3646 20
913 2 2.99445 12.8489 3.63192 24