ITEM: TIMESTEP
5000
ITEM: NUMBER OF ATOMS
500
ITEM: BOX BOUNDS pp pp pp
-30.0 30.0
-30.0 30.0
-30.0 30.0
ITEM: ATOMS id type x y z Coordination
1 1 -3.78331 0.105283 -6.84735 20
2 1 10.4463 -3.57338 2.87508 10
3 1 0.2908 3.44828 8.71113 13
4 1 10.267 -0.700672 3.58801 12
5 1 -5.8483 1.47426 -1.57858 22
6 1 0.674053 -3.05187 -10.8933 12
7 1 -0.552715 -1.97717 6.85331 23
8 1 4.3257 -7.85225 -4.29437 15
9 1 -11.7713 -3.16754 1.16006 9
10 1 4.72326 2.16385 -10.0094 12
11 1 7.22815 -8.9556 -3.70939 10
12 1 3.69511 1.66758 5.25428 21
13 1 3.29771 4.9736 -4.52841 23
14 1 1.00385 3.40916 4.85664 21
15 1 3.64394 5.00288 5.72815 21
16 1 -5.92525 -1.65107 3.43426 21
17 1 -9.0987 -1.72095 1.81265 18
18 1 7.32073 -2.09423 -1.85975 18
19 1 3.95317 -0.608996 9.0965 13
20 1 -9.94715 -5.26786 1.22734 12
21 1 -2.82298 -5.2874 -6.41184 19
22 1 4.21856 1.49428 -5.07652 22
23 1 5.79963 -2.66395 -6.48431 17
24 1 5.45011 -9.46512 4.19989 13
25 1 -4.51213 8.36262 3.90973 10
26 1 5.75294 -1.38883 6.79064 16
27 1 1.05071 5.92381 0.611759 21
28 1 1.89223 -5.9135 -9.10199 11
29 1 -2.2358 4.69736 7.26902 11
30 1 4.88528 -0.779875 3.76786 20
31 1 -4.6342 8.7347 0.278526 14
32 1 -3.67395 5.9609 -0.755965 20
33 1 5.49402 5.54354 -9.00667 11
34 1 5.87468 7.28189 -2.78061 16
35 1 -0.749565 7.31957 -7.87793 11
36 1 -5.01288 2.91394 -6.79233 15
37 1 -2.89712 9.50022 -2.21942 13
38 1 1.10493 5.93653 -3.00226 24
39 1 -8.49593 3.37749 -1.50928 11
40 1 2.91859 5.98225 8.85885 8
41 1 -2.70053 1.63642 -9.02985 12
42 1 -5.79312 -5.45229 5.84605 15
43 1 -6.42989 -4.55224 -1.69772 23
44 1 7.88539 -10.9431 -0.864629 9
45 1 -9.38802 -1.37572 5.19063 14
46 1 -8.83148 0.0850777 -0.568654 15
47 1 -2.82719 -11.6477 3.29513 14
48 1 6.09556 4.39718 -6.3569 17
49 1 -5.43124 -7.34005 -6.26147 13
50 1 2.09526 1.7146 -9.71081 16
51 1 -0.136709 -7.30859 0.235531 22
52 1 -0.582921 9.5239 0.0351459 15
53 1 -11.3652 -0.0461383 2.45657 11
54 1 2.39805 8.38307 5.70185 12
55 1 1.13618 -2.37074 9.01855 15
56 1 2.18077 -8.3226 -1.53533 19
57 1 7.31894 0.119312 -6.85979 12
58 1 -5.65333 -7.16015 0.731726 18
59 1 -3.02126 -8.54939 1.53539 22
60 1 4.44132 -3.77151 8.64931 13
61 1 5.47809 -3.85445 5.46422 19
62 1 5.09946 9.318 -0.258438 13
63 1 -7.88405 -7.67072 2.03567 14
64 1 -3.41595 -11.2087 -0.049058 14
65 1 -3.33032 -5.54391 -2.88941 20
66 1 1.55686 3.24815 -5.10496 22
67 1 5.22879 -3.93765 2.09852 17
68 1 -3.06413 -3.07267 4.99184 20
69 1 -8.68278 -4.41004 6.38717 9
70 1 2.4548 -11.2309 0.143969 14
71 1 -3.59246 -6.14123 3.23227 19
72 1 1.85326 0.566663 7.05466 19
73 1 -11.3962 -3.35074 4.36853 11
74 1 -2.87587 10.3219 1.59646 11
75 1 -8.432 3.89963 1.38043 13
76 1 -1.50165 6.95482 4.88612 14
77 1 -8.01733 -4.90105 -7.08873 10
78 1 -5.57845 1.1097 -4.56821 20
79 1 -5.32323 -4.88266 -8.27181 13
80 1 8.36696 -3.57394 4.72068 11
81 1 -0.693614 -5.13693 8.20946 13
82 1 -3.22739 -2.39708 -8.56555 13
83 1 -10.6899 -2.27248 -1.63597 10
84 1 -6.62964 -9.93534 -0.186895 13
85 1 -5.6712 3.75975 6.82587 9
86 1 5.55011 1.41036 7.43791 13
87 1 -2.54494 6.36595 -4.20904 21
88 1 -0.26408 -10.2348 -5.08935 8
89 1 2.09017 9.05285 1.54701 16
90 1 5.49871 3.42642 -3.02646 22
91 1 -8.22853 0.0321832 -6.3369 12
92 1 -8.97223 0.252362 -3.50538 16
93 1 -2.80124 -8.09686 -4.31248 16
94 1 2.5469 -11.0344 3.64675 15
95 1 -7.71082 3.03207 -5.59708 10
96 1 -5.88369 -1.89055 9.41554 8
97 1 -5.52103 1.04472 4.71776 18
98 1 2.28288 -8.44417 -6.6987 12
99 1 0.250543 -4.5496 5.04622 18
100 1 -0.555853 -7.89634 6.60702 16
101 1 4.9177 -10.6776 -2.08755 10
102 1 5.36541 3.7077 0.333956 21
103 1 -6.56388 1.36891 1.3679 18
104 1 4.32794 -0.17029 -7.90588 18
105 1 5.01452 -6.7911 6.57682 11
106 1 -5.69671 -7.54218 -2.88787 18
107 1 -9.08861 -7.9281 5.28726 7
108 1 9.82716 2.27583 3.86031 12
109 1 9.02664 5.92182 -2.26666 8
110 1 -0.4757 4.44425 -9.17326 14
111 1 1.30424 5.52931 -6.68046 18
112 1 1.9202 8.61942 -1.79388 19
113 1 2.87384 4.80967 -10.5022 12
114 1 -0.00499682 -13.2738 1.68182 8
115 1 7.61046 -8.62028 1.62834 13
116 1 -0.509537 -10.4693 1.36348 21
117 1 -6.22744 1.23561 -8.61257 11
118 1 8.90715 -0.170568 -1.67052 15
119 1 -2.79464 8.8121 -6.26206 7
120 1 7.0689 -5.62503 -5.85066 14
121 1 -7.59967 -7.22754 7.58967 8
122 1 -0.677239 -10.2282 -1.47161 14
123 1 4.5779 -6.31437 -7.45772 12
124 1 4.21942 6.87836 1.61401 20
125 1 2.1825 -8.53448 2.02004 21
126 1 -5.62327 -4.57866 -4.93107 23
127 1 -2.18606 -1.30602 10.38 9
128 1 -1.39412 1.19409 8.10991 15
129 1 5.42918 -1.46724 -10.2847 7
130 1 -6.00474 5.27781 -1.45717 14
131 1 3.87423 5.83189 -1.5301 21
132 1 7.04226 0.69219 -3.82536 21
133 1 -0.728575 -0.827358 -8.67408 17
134 1 -8.83392 1.34085 4.08155 14
135 1 2.17946 -5.3396 7.01088 16
136 1 6.6654 2.16459 2.76611 22
137 1 -6.07234 -2.20228 -6.8971 18
138 1 5.17869 -6.89554 2.78842 16
139 1 -3.06527 -8.55183 -1.27637 19
140 1 7.95983 -0.0378456 5.11079 15
141 1 -0.251137 -11.3251 4.97471 11
142 1 2.6286 -2.57379 5.34804 23
143 1 8.49541 3.94119 1.19922 15
144 1 7.40188 -5.79614 0.0460536 14
145 1 7.07186 5.12867 3.58948 17
146 1 -0.400525 -7.25845 -6.51718 14
147 1 6.83853 3.10231 5.46995 17
148 1 -2.02544 4.26669 -6.5229 19
149 1 -4.05 6.07007 -8.30828 7
150 1 -3.35472 -0.493015 6.22491 22
151 1 -8.03847 -7.17145 -1.05357 15
152 1 4.0228 4.02059 3.37512 23
153 1 -4.96668 4.84685 3.99058 14
154 1 -6.94879 6.58904 1.23624 11
155 1 8.23 5.68915 -4.83413 13
156 1 0.991495 0.393382 10.0009 11
157 1 0.539178 -0.529238 -11.8767 8
158 1 0.661806 6.23172 6.75514 15
159 1 7.74005 -5.42994 -2.91889 15
160 1 3.55464 8.9148 3.33214 13
161 1 2.65525 -5.57204 3.73537 23
162 1 -1.51737 6.92034 1.9636 19
163 1 3.93197 -4.8345 -4.65207 20
164 1 2.70684 -8.93999 5.5005 13
165 1 1.51685 0.74122 -6.82766 18
166 1 -3.542 2.77259 4.85634 19
167 1 10.4093 1.40848 0.623592 13
168 1 2.0084 8.29842 -5.68171 15
169 1 8.80866 2.91253 -5.44192 9
170 1 -3.28397 -3.43685 8.11543 17
171 1 -3.45362 -6.55406 6.83072 15
172 1 -5.06615 7.86333 -3.09934 11
173 1 5.47786 6.92827 5.24333 13
174 1 -5.32858 -9.0219 6.43868 9
175 1 7.37146 -1.3957 1.63321 22
176 1 -6.7738 -4.54529 1.65385 17
177 1 10.6396 -1.69725 0.595984 12
178 1 9.06733 -8.45643 -1.11152 9
179 1 1.33914 6.17916 3.61406 23
180 1 -8.3121 -2.93655 -4.36948 18
181 1 -0.368385 9.2491 -4.14331 14
182 1 2.67202 7.58355 -8.70122 10
183 1 -6.22486 -1.58764 -3.26592 20
184 1 3.51384 -2.36623 -12.5662 5
185 1 0.217485 -7.70984 -3.52021 18
186 1 -0.562528 -7.411 3.33376 20
187 1 9.48026 -3.67947 -0.855748 12
188 1 -11.3286 2.60114 0.327262 7
189 1 0.0686923 2.43985 -11.248 9
190 1 -8.01359 -6.23431 -4.21071 14
191 1 7.93039 -5.65666 3.20587 14
192 1 0.321948 -4.11857 -7.92238 19
193 1 -7.22951 5.942 4.09856 8
194 1 -7.14991 0.349379 6.77782 11
195 1 7.24451 6.43511 0.147072 14
196 1 8.68381 3.10198 -2.05862 15
197 1 -2.86565 -9.11854 4.62197 16
198 1 3.88896 3.18131 -7.14989 20
199 1 5.13616 7.73815 -6.30855 15
200 1 5.93101 4.87508 7.38394 10
201 1 3.64142 8.85606 -3.73804 15
202 1 6.86571 1.10132 -0.370728 23
203 1 -6.14657 -2.12882 6.31545 19
204 1 8.30845 -2.3905 -4.74729 14
205 1 3.32313 -3.17597 -7.90792 17
206 1 -0.087221 9.7054 3.63038 13
207 1 -1.03929 7.0703 -1.6785 20
208 1 -5.44779 -9.88461 2.99023 15
209 1 4.90271 -10.0493 0.804634 15
210 1 -10.1473 -4.99138 -2.00857 11
211 1 -4.89391 4.41453 -4.06248 19
212 2 -9.90206 -3.24639 5.66105 10
213 2 7.47054 5.51269 1.90942 15
214 2 2.02205 -4.56908 5.0412 18
215 2 -1.10663 -2.53945 -7.57979 18
216 2 -7.78208 1.37452 -1.58719 18
217 2 -4.94643 -9.29385 4.69276 15
218 2 2.3167 -1.13053 9.91054 12
219 2 10.3547 -0.211637 1.62743 14
220 2 -2.48412 8.66077 4.6678 11
221 2 -0.961066 5.77775 3.3573 20
222 2 5.56665 -8.98451 -3.14779 13
223 2 -2.63155 -0.305824 -8.81406 13
224 2 1.15653 -7.03109 -7.62341 11
225 2 -7.01098 -5.57633 -0.261573 20
226 2 -4.22311 8.9188 2.07465 11
227 2 9.65404 -5.02896 3.82811 7
228 2 6.35059 7.85391 -0.931693 14
229 2 0.845975 7.82658 4.62688 17
230 2 4.04923 8.84783 1.36186 13
231 2 3.40472 8.29862 -7.08651 12
232 2 4.83774 -2.01185 -7.90861 15
233 2 -6.48664 -0.205847 -7.19671 16
234 2 0.587615 -9.22623 5.84265 12
235 2 -11.1651 -1.41558 1.05676 13
236 2 7.09072 -7.09986 -4.49586 13
237 2 -2.11981 -9.88714 -0.110404 17
238 2 4.54599 -2.88747 -5.17206 20
239 2 1.73422 5.232 5.48778 20
240 2 2.3575 -4.04076 8.5406 14
241 2 -5.33608 -6.02896 2.26869 17
242 2 -1.42031 -11.9919 2.21201 12
243 2 -6.19053 -9.06532 1.44364 16
244 2 -5.20004 -11.0429 -0.445983 9
245 2 -6.20368 -8.43382 -1.24517 16
246 2 -2.55774 10.1856 -0.282191 10
247 2 2.79791 1.07904 -8.11247 17
248 2 7.64837 6.9532 -3.39341 11
249 2 3.31148 2.89719 -10.6629 12
250 2 -5.76368 2.78465 -5.04229 18
251 2 6.90008 2.8152 0.908014 22
252 2 1.39771 9.48942 -0.123721 14
253 2 -6.22053 5.01562 5.41438 9
254 2 2.02449 6.43413 -1.29459 23
255 2 5.16759 8.10462 -4.62845 14
256 2 -1.12721 6.12596 6.74919 15
257 2 -0.735258 -3.16967 8.47754 17
258 2 4.21023 -2.5402 -11.0089 10
259 2 2.22056 -7.44016 -3.34679 17
260 2 -0.775051 -5.31113 -6.20977 18
261 2 -9.15659 -6.5108 -2.6039 13
262 2 7.79918 -6.94293 -1.49179 15
263 2 4.39981 6.05289 3.27614 19
264 2 -0.214273 -1.52388 -10.5141 11
265 2 1.63646 -2.04145 -12.3108 7
266 2 -3.57743 -7.26092 -5.88882 16
267 2 3.89697 -7.58685 -6.17338 13
268 2 7.59322 -1.91489 -6.40869 13
269 2 -8.67288 -3.8628 1.99838 18
270 2 3.28376 -5.04668 -8.21138 15
271 2 4.5193 3.54234 -5.03566 18
272 2 -0.849179 -8.30867 -4.88023 16
273 2 -0.317889 0.234945 -6.73065 19
274 2 -1.62542 2.7916 4.82016 21
275 2 -8.36451 -8.34602 3.57535 8
276 2 -5.39053 0.836103 2.89834 19
277 2 -5.47428 6.86436 0.0578477 13
278 2 -7.57595 -8.93477 6.68946 7
279 2 -9.93432 -0.613424 -2.04422 12
280 2 3.02441 -7.28896 3.09215 18
281 2 7.7223 -0.971063 -3.49721 17
282 2 1.92448 -2.08936 -7.44084 17
283 2 4.57605 3.14892 4.90675 24
284 2 2.61511 7.22904 7.26699 11
285 2 -0.919308 -0.136152 9.69225 14
286 2 -8.06021 2.20877 2.38052 15
287 2 -5.48991 -2.52669 -4.83932 21
288 2 8.2446 4.87827 -0.819293 16
289 2 -11.5004 -4.02501 2.69636 9
290 2 -2.55558 7.21159 -7.75355 11
291 2 4.99424 0.447193 -10.0236 12
292 2 -7.44172 4.49416 -0.375654 15
293 2 4.48269 -2.03427 5.48559 21
294 2 8.64008 -9.95898 -2.32172 9
295 2 0.467538 -11.1175 -0.143982 16
296 2 -5.31576 6.81852 3.48017 12
297 2 -2.36469 -7.93148 3.30553 22
298 2 3.19129 -10.2496 1.66946 16
299 2 4.19287 5.13166 7.54325 13
300 2 -0.726897 9.17825 -2.35232 14
301 2 -5.55687 -7.15412 6.90869 12
302 2 -3.66974 -7.38349 0.167964 21
303 2 -3.85484 -2.08081 9.44865 10
304 2 0.918465 3.98348 -10.4537 10
305 2 8.20155 -4.42756 -4.63264 11
306 2 1.18583 -1.22308 6.54431 24
307 2 -5.80537 -2.60448 -1.6926 20
308 2 4.95522 5.87976 0.272782 20
309 2 6.41869 5.23156 5.42221 13
310 2 10.0354 -3.7087 0.937862 11
311 2 -10.7078 -4.06698 -0.409728 13
312 2 1.31222 4.94114 8.45347 12
313 2 4.95556 -1.98507 8.52569 14
314 2 1.31359 1.09128 -11.2259 12
315 2 6.75254 0.24386 3.38803 23
316 2 0.871993 1.75171 8.54337 14
317 2 6.30588 -4.59005 3.70449 18
318 2 -7.72712 -1.06033 -4.68995 16
319 2 -3.78205 8.12029 -4.67673 14
320 2 -7.07839 2.55105 -7.55464 10
321 2 -2.38456 -8.15207 6.42114 15
322 2 1.82749 9.86095 3.36911 11
323 2 -6.38218 -5.87977 -7.40053 12
324 2 9.92354 -1.85704 -1.16852 13
325 2 -5.64702 5.98648 -3.26632 14
326 2 7.22468 -6.85412 1.83189 14
327 2 -6.74508 -3.94186 6.45099 15
328 2 -6.26717 -7.17939 -4.64011 16
329 2 1.67096 9.11055 -3.92454 14
330 2 -7.98792 5.58216 2.52266 9
331 2 4.77173 2.94559 2.04398 21
332 2 0.194634 -5.84021 6.534 17
333 2 -9.45351 -0.605209 3.42772 14
334 2 -0.756175 6.20284 -3.4848 20
335 2 -1.58325 3.1592 8.16102 12
336 2 -5.34551 0.0753609 -2.90847 20
337 2 3.95495 9.05339 -1.87194 14
338 2 -3.75832 4.52184 6.21591 14
339 2 -1.63641 -0.200826 6.52116 21
340 2 -3.70889 -4.14148 -8.23753 13
341 2 3.55661 6.05811 -9.41355 13
342 2 0.270732 -8.38255 -1.38569 20
343 2 -3.84024 4.47609 -7.47 14
344 2 7.30489 -2.63958 6.10749 12
345 2 8.74947 4.2965 -3.61354 13
346 2 0.939796 -11.8058 3.30414 14
347 2 5.37562 0.55433 -6.49611 20
348 2 6.31053 3.13201 7.40084 11
349 2 -5.05617 3.26024 -2.5074 18
350 2 -3.58225 0.843644 4.83466 20
351 2 -7.81312 -4.5782 -5.29108 17
352 2 -0.0594843 -8.5585 1.926 20
353 2 -1.19812 6.00848 0.13163 18
354 2 -8.79493 0.312541 5.76239 11
355 2 -7.71811 -0.884613 0.692565 17
356 2 -0.649895 -10.8571 -3.37929 10
357 2 3.84693 0.754512 7.25114 17
358 2 -3.08184 4.46251 -4.54913 18
359 2 -0.454305 5.04571 -7.33553 17
360 2 5.33148 6.03816 -7.25389 14
361 2 1.01021 -9.62851 -6.25053 9
362 2 9.83743 0.621484 4.70403 10
363 2 6.66249 0.449839 6.23312 16
364 2 0.947032 7.1837 -8.10458 14
365 2 -4.04057 -1.83829 -6.68686 20
366 2 1.09266 -4.30694 -9.8024 11
367 2 -1.32611 9.0961 2.03732 17
368 2 -0.96468 8.76356 -6.04945 13
369 2 -8.57109 1.49481 -4.96818 11
370 2 -6.14683 2.10734 6.49347 14
371 2 2.25466 3.94808 -6.61386 20
372 2 1.92343 -4.02695 -4.46031 20
373 2 -9.91995 2.66959 -0.73667 10
374 2 -1.26784 2.6369 -9.65571 13
375 2 4.93297 -5.02378 7.09565 14
376 2 -6.64875 -1.00655 8.01439 11
377 2 -3.49173 -4.57735 -4.81365 21
378 2 -6.30918 -0.587224 5.08322 17
379 2 5.43486 -7.67964 4.76263 15
380 2 -11.6382 1.6586 1.98135 8
381 2 -3.98055 -2.27472 6.51917 19
382 2 -2.02693 -11.0687 4.69274 12
383 2 9.87929 2.58042 1.99411 12
384 2 3.37271 -9.90377 -1.06384 13
385 2 -4.82056 9.13669 -1.67505 11
386 2 -7.27047 -3.34445 -7.74825 13
387 2 -8.52697 -6.25397 5.81071 9
388 2 3.17665 -7.514 6.44191 13
389 2 7.85901 4.17591 -6.07621 10
390 2 5.47641 3.55978 -8.16404 16
391 2 8.24828 3.12354 4.11606 15
392 2 -2.86541 7.18116 -2.14116 21
393 2 9.08027 -2.27937 3.47089 15
394 2 5.09019 -5.67232 -2.84916 20
395 2 -5.74537 -5.43063 -3.08969 21
396 2 5.4209 -5.17963 -6.23196 14
397 2 5.83138 -9.34806 2.35246 13
398 2 7.52409 -0.726615 -0.217283 20
399 2 5.57699 -4.74347 0.348032 18
400 2 1.62422 1.64022 5.21437 19
401 2 7.90026 1.29629 -5.49328 14
402 2 -9.71655 -3.40682 -3.2137 12
403 2 -5.6326 -2.75436 1.71111 18
404 2 3.71535 -10.2323 4.49556 12
405 2 1.85849 6.50583 -4.83646 22
406 2 9.51079 1.71245 -1.03589 15
407 2 4.6237 5.68763 -3.20175 20
408 2 -4.01139 -5.08762 5.13145 17
409 2 1.75701 -6.89664 0.436174 19
410 2 7.80279 -4.20804 -1.31059 15
411 2 6.07864 -11.1319 -0.461226 11
412 2 -3.5289 -7.44583 -2.73138 16
413 2 1.85371 7.09509 1.79496 21
414 2 4.09089 8.24664 4.9963 13
415 2 -3.61426 -10.3348 2.16238 17
416 2 -2.60996 -5.07934 8.08266 15
417 2 -3.90757 3.51336 3.04375 18
418 2 3.72149 0.643389 3.48133 20
419 2 7.00082 1.97212 -2.23253 18
420 2 -4.38943 1.9696 -8.51778 12
421 2 -8.92625 -6.84971 0.679264 14
422 2 8.60386 -9.60582 0.515536 9
423 1 -1.21635 -1.40255 -5.96773 21
424 1 -3.33751 -2.68139 -4.8326 23
425 1 -0.0105172 -4.38249 -4.71661 19
426 1 -0.929808 -1.72216 -3.0306 21
427 1 -3.9595 -2.88461 -1.33081 23
428 1 -0.435703 -4.84876 -1.49022 20
429 2 -1.04754 -2.67667 -4.73619 20
430 2 -3.00412 -1.93064 -2.70581 20
431 2 -0.0622634 -5.66009 -3.27779 21
432 2 -3.20382 -4.75725 -1.12228 21
433 2 -0.25882 -2.6961 -1.51526 23
434 1 -6.10895 -1.68321 0.208179 21
435 1 -2.77975 -5.60874 0.363224 19
436 1 -1.37993 -1.71459 0.203498 24
437 1 -3.65748 -3.11799 2.01274 20
438 1 -0.652187 -4.40507 2.03088 21
439 1 -0.326502 -1.87109 3.72622 21
440 2 -3.39551 -1.86815 0.281221 20
441 2 -0.675373 -5.46918 0.287415 18
442 2 -2.61989 -4.6532 1.96141 20
443 2 0.146736 -2.65449 1.89681 22
444 2 -4.08043 -1.7742 3.49008 20
445 2 -0.186718 -5.54823 3.40489 21
446 2 -1.09372 -3.12618 5.49293 22
447 1 -1.28111 1.25582 -5.05713 18
448 1 -3.41629 -0.105974 -3.19724 23
449 1 -1.177 4.07871 -3.46112 19
450 1 -3.43126 2.76418 -1.43709 18
451 1 -0.613068 1.34853 -1.57273 23
452 2 -3.41929 0.631306 -5.09066 21
453 2 -0.571424 3.14819 -5.0352 20
454 2 -0.403073 0.170615 -3.72118 22
455 2 -2.55705 0.67227 -1.61938 22
456 2 -1.26771 3.16828 -1.53491 23
457 1 -3.41429 -0.0615631 -0.0353672 23
458 1 -0.922825 4.13517 0.1228 20
459 1 -3.68723 2.92608 1.3601 19
460 1 -0.736879 0.92733 1.74577 20
461 1 -3.36724 0.0740278 3.17454 26
462 1 -1.53928 3.88139 3.28001 20
463 1 -0.641104 1.27826 5.17753 20
464 2 -4.92727 1.56684 0.262283 19
465 2 -3.7551 4.19743 -0.30613 19
466 2 -0.380584 -0.109011 -0.0785881 22
467 2 -2.74247 0.851633 1.5303 22
468 2 -0.912174 2.75372 1.775 23
469 2 -0.484876 0.047763 3.8218 20
470 1 2.24051 -2.41538 -5.33555 19
471 1 2.29871 -5.30974 -2.80911 19
472 1 4.4232 -1.84084 -3.52639 20
473 1 1.7943 -2.35587 -1.48893 21
474 1 5.13728 -4.37455 -1.54 17
475 2 2.49053 -1.65987 -3.17152 20
476 2 2.38209 -4.3561 -1.27164 22
477 2 5.44499 -2.54612 -1.69302 17
478 1 2.31375 -5.08715 0.492977 20
479 1 4.53678 -1.28113 -0.0433967 22
480 1 2.1076 -2.5268 1.80974 22
481 2 2.55126 -1.58891 0.0909164 20
482 2 3.29132 -4.47282 2.30064 19
483 2 5.28486 -1.90436 2.27532 18
484 2 1.8672 -1.90808 3.80959 21
485 1 1.56999 0.196134 -3.46346 21
486 1 1.99237 3.47069 -1.75313 23
487 1 4.05714 1.29592 -1.61933 20
488 2 2.53791 1.55144 -4.75395 21
489 2 1.89852 4.21078 -3.4882 21
490 2 4.82891 0.505922 -3.43172 21
491 2 1.93625 1.46206 -1.86776 21
492 2 4.39335 3.29682 -1.44402 20
493 1 1.44877 0.368435 -0.294728 22
494 1 1.25961 3.04943 1.46509 22
495 1 4.12348 1.26658 1.60105 22
496 1 1.75314 -0.0114954 3.79752 19
497 2 1.12915 4.08868 -0.295708 20
498 2 4.8998 0.537537 -0.0316306 21
499 2 1.94977 1.2544 1.42103 23
500 2 1.68913 4.00329 3.01057 22
