ITEM: TIMESTEP
24
ITEM: NUMBER OF ATOMS
1500
ITEM: BOX BOUNDS pp pp pp
-30.0 30.0
-30.0 30.0
-30.0 30.0
ITEM: ATOMS id type x y z Coordination
1 1 -8.98291 -8.97858 -8.96273 16
2 1 2.81405 -13.1717 -1.28035 20
3 1 -10.7505 5.35276 -5.06597 20
4 1 -10.4312 -0.396826 -5.41166 24
5 1 2.14881 -4.71035 4.69556 25
6 1 -9.9664 3.04186 -10.1405 13
7 1 -2.39897 -1.01912 -10.3001 25
8 1 -3.64112 -11.8563 4.27245 14
9 1 -7.82492 -4.25659 11.6523 10
10 1 2.49111 -2.23649 9.80857 20
11 1 4.92719 1.94948 6.74661 24
12 1 0.0309502 1.36515 13.4962 15
13 1 5.01817 -0.71824 1.63482 26
14 1 0.766157 8.4197 -9.79964 22
15 1 2.8617 0.769342 8.4221 23
16 1 12.8975 7.31156 5.75197 10
17 1 1.0398 11.4647 -11.3655 23
18 1 3.31732 10.9702 -16.1433 10
19 1 -8.04592 1.18061 4.76951 22
20 1 -2.2025 -0.882618 -13.6099 22
21 1 4.65701 -6.80411 7.58886 22
22 1 2.11852 -1.96114 6.51604 23
23 1 10.0936 -12.0728 5.24369 11
24 1 -7.76898 -12.4542 -5.01385 12
25 1 5.3825 -3.17854 -6.77153 26
26 1 0.800337 -8.46117 -13.7907 14
27 1 -0.444454 7.57029 6.84872 24
28 1 1.77184 -11.0942 7.37457 18
29 1 4.43678 -9.79993 6.00243 23
30 1 -10.7078 -0.797587 1.19674 23
31 1 -5.00181 -2.84628 -10.455 26
32 1 -5.39762 8.13911 -3.28283 23
33 1 3.35758 4.72333 -9.81268 23
34 1 3.10387 -3.84709 -11.9087 26
35 1 -2.75895 -2.28061 9.61341 18
36 1 -10.4604 4.78155 1.36733 22
37 1 -2.64012 12.6227 5.33646 21
38 1 -11.3011 5.24397 -8.15864 13
39 1 -4.56748 14.1204 -6.13406 12
40 1 7.54601 -7.49925 2.93804 25
41 1 7.92627 -4.32107 -5.08478 25
42 1 -6.17187 9.98341 11.7834 12
43 1 -7.75603 -6.59321 -7.39412 21
44 1 7.73575 3.64497 10.3576 16
45 1 -10.0629 11.3934 -4.59605 8
46 1 -9.8708 -3.73743 6.22591 15
47 1 -10.6593 2.48114 -6.88234 20
48 1 3.2971 10.2553 -6.16238 21
49 1 5.05154 7.75839 3.75061 26
50 1 5.00485 4.85551 5.33354 26
51 1 4.69001 -12.6177 4.14103 17
52 1 4.35179 7.74715 13.3752 13
53 1 11.8302 7.05243 -12.4702 15
54 1 7.71939 -10.4782 4.45417 21
55 1 -5.44498 -0.728626 1.34126 25
56 1 4.94781 -1.58275 11.6706 19
57 1 -6.14032 -6.40756 7.80076 23
58 1 -8.02822 -1.58476 -0.435879 26
59 1 10.1597 2.16644 3.41169 25
60 1 10.6253 -6.16002 -1.72943 21
61 1 -0.0613808 13.443 3.71315 24
62 1 5.03297 7.55164 7.07436 23
63 1 -5.38328 -3.54757 -0.463999 26
64 1 -2.719 -9.87012 -5.96674 20
65 1 -13.0585 9.30047 -1.30135 12
66 1 0.841527 5.76544 -11.5584 22
67 1 8.07179 -1.30815 -6.59341 25
68 1 7.92459 1.55816 -4.78804 26
69 1 10.8812 -9.30868 3.17807 14
70 1 11.1575 -9.2122 6.30473 12
71 1 -1.58981 15.9137 -6.10942 12
72 1 -8.08968 4.02626 3.16825 23
73 1 -7.96896 9.74152 0.0510436 22
74 1 -0.739013 -6.94218 7.777 24
75 1 7.95792 -12.5503 -4.10129 11
76 1 -11.8093 6.82699 2.63419 13
77 1 8.36313 -3.94477 -11.5959 21
78 1 5.68852 0.0684336 -14.8335 21
79 1 -5.01711 -2.66636 -17.3112 10
80 1 2.57891 12.3106 5.38264 21
81 1 -10.1558 6.7679 -10.1444 11
82 1 3.02684 13.1881 -7.78534 18
83 1 -0.141063 7.91328 0.227439 25
84 1 -0.856401 -10.0071 8.91094 15
85 1 0.301878 -2.95134 -10.2899 26
86 1 5.47103 -0.222853 -8.23069 25
87 1 2.25886 3.79428 6.87763 24
88 1 -7.96406 -7.50058 -0.694141 20
89 1 12.4874 -3.4422 4.88662 14
90 1 -8.03264 -7.4603 2.74254 24
91 1 7.91299 -12.952 -0.619091 12
92 1 -5.39011 5.15549 -1.7613 25
93 1 7.68172 11.0034 -12.6523 12
94 1 3.83844 10.4258 -13.002 21
95 1 8.6859 -10.1481 -2.04331 20
96 1 8.42774 -10.2851 1.24139 19
97 1 -10.0233 -10.974 2.53038 9
98 1 -10.7809 -6.52697 4.28916 15
99 1 4.54258 13.2366 7.46847 15
100 1 13.7241 7.09999 -4.09378 14
101 1 0.251351 10.1364 8.656 20
102 1 -4.51844 11.3943 -11.442 12
103 1 -1.68043 -6.31004 -14.0773 14
104 1 7.90927 -2.93987 11.8715 10
105 1 -1.84021 10.3932 -9.8521 25
106 1 9.61342 8.04707 -10.4759 21
107 1 -13.2905 6.30708 -3.20435 14
108 1 -7.51242 10.1558 -3.22248 19
109 1 6.75969 5.59221 -14.6807 16
110 1 7.57202 -1.7218 3.28669 24
111 1 -4.61933 2.71072 -10.2679 21
112 1 3.61137 16.2384 -7.32581 12
113 1 10.3847 11.1351 1.4544 15
114 1 -2.69538 9.83492 0.192282 23
115 1 -8.07398 -6.19481 -10.6367 21
116 1 -1.81626 15.6939 0.300076 18
117 1 -7.87159 -1.20726 -7.15514 24
118 1 14.2129 3.28622 0.657316 15
119 1 -2.81024 9.72147 3.56026 25
120 1 -7.34898 12.5065 -0.609039 17
121 1 7.02435 -7.81361 5.9883 19
122 1 -9.74981 -9.62686 5.8987 10
123 1 0.0924202 -9.52391 2.37075 20
124 1 5.94945 -9.06609 -3.69166 20
125 1 -7.3059 7.52115 -11.8024 15
126 1 2.61203 7.26301 -4.73474 23
127 1 8.95766 12.7283 -4.1079 14
128 1 2.029 -4.99593 8.07864 22
129 1 -5.35433 2.36275 -3.53975 25
130 1 3.13945 12.878 -0.987124 24
131 1 2.2298 6.56174 8.62309 22
132 1 -5.31331 10.797 1.72927 22
133 1 -1.79158 1.94496 -11.8509 23
134 1 12.9877 -3.58221 -1.33616 17
135 1 -5.73994 -6.48893 4.41923 22
136 1 -11.0432 7.56387 5.78071 11
137 1 -8.568 -6.59958 9.63492 12
138 1 -13.6099 0.689359 0.333471 14
139 1 2.48925 -13.6792 -6.79875 15
140 1 -7.962 -4.38599 -2.2256 26
141 1 10.6281 -6.35633 -5.20492 20
142 1 0.384861 16.9043 2.24455 13
143 1 -8.1144 1.22496 8.26437 21
144 1 -7.60675 -1.12056 -13.7829 14
145 1 -7.44617 7.42087 -8.4894 18
146 1 -13.1805 -2.12388 -4.62522 18
147 1 -11.0584 -0.814009 7.69575 15
148 1 3.19175 -10.3157 -2.25537 21
149 1 4.50307 -12.6969 7.31587 13
150 1 12.9914 0.93846 -1.58844 19
151 1 5.24911 5.39267 -4.6997 24
152 1 10.3312 1.86718 6.70162 19
153 1 -1.83065 13.3238 -11.1201 13
154 1 9.89389 5.00052 -14.9325 12
155 1 -2.26708 -3.74137 -12.1162 24
156 1 -2.50399 13.2473 -7.93514 16
157 1 -7.4573 10.045 -6.44972 14
158 1 10.3199 4.93478 5.51454 23
159 1 -1.28028 2.20465 -18.3639 14
160 1 -7.26754 10.739 -13.5629 5
161 1 5.02013 11.9514 -10.9895 15
162 1 -3.50638 10.1168 13.1375 11
163 1 -5.53527 7.60567 6.75435 20
164 1 4.1483 -12.3719 -10.6846 14
165 1 -5.1947 -9.39005 2.60298 19
166 1 5.10982 -12.5786 0.86483 19
167 1 7.76606 -4.41431 -1.78533 26
168 1 11.425 11.5134 -1.77815 11
169 1 -2.17642 10.1196 -3.13673 23
170 1 -8.04605 1.20666 1.36964 26
171 1 -0.510902 4.24968 11.9422 17
172 1 15.6168 -3.009 0.415091 9
173 1 2.00343 12.2738 8.97077 14
174 1 -2.95413 1.07266 4.9445 24
175 1 -7.92288 -4.07195 -5.55782 23
176 1 3.82341 7.61459 -14.9229 15
177 1 5.33188 -1.17336 8.3907 21
178 1 9.04335 10.0791 -5.91169 20
179 1 3.03532 -9.60496 -8.87137 21
180 1 0.79241 5.98918 -14.8572 19
181 1 8.07982 1.74135 -7.98111 24
182 1 -10.732 -3.48284 -0.475596 22
183 1 8.81879 -9.9597 -8.47969 16
184 1 -8.40689 -9.53794 -5.97573 19
185 1 5.50253 11.3557 -7.71137 17
186 1 0.96851 -2.5077 -16.8153 13
187 1 4.93323 4.7112 8.60545 23
188 1 12.7785 4.07386 3.94389 16
189 1 -2.92814 -7.4543 -0.616628 25
190 1 9.50197 -3.49089 -14.7506 11
191 1 -3.6536 -8.25865 8.89543 17
192 1 -4.88102 -2.65467 -13.8527 25
193 1 -13.1734 -2.21613 -8.09516 11
194 1 7.56329 3.97887 3.67156 26
195 1 2.31185 -1.74458 3.20644 26
196 1 -7.17121 -4.38993 -15.2563 12
197 1 -0.503291 -6.60911 4.50925 23
198 1 0.300732 8.77778 -13.1437 19
199 1 5.19691 8.10817 -2.96571 22
200 1 -5.47463 -3.60768 2.87472 24
201 1 0.427007 10.9833 -1.32804 23
202 1 -5.23903 1.42967 13.3422 14
203 1 -10.5392 -6.05545 -8.97432 15
204 1 -4.94985 -5.47965 -12.2586 23
205 1 -5.10573 -12.0856 -3.10939 15
206 1 1.63842 -12.2245 -4.28938 18
207 1 12.7258 0.873823 5.18238 16
208 1 -5.11387 -9.4304 -0.792893 21
209 1 -10.5585 1.96211 9.75893 10
210 1 2.15394 -13.4261 1.82457 14
211 1 2.40406 -7.33846 -0.521597 23
212 1 2.5174 15.7296 0.961407 16
213 1 6.24157 2.98905 -13.0511 21
214 1 -1.30866 -0.624268 -16.9503 19
215 1 4.82592 -15.2553 -0.323776 11
216 1 2.98308 -6.83922 -10.3685 24
217 1 -7.16215 4.61742 -10.2999 22
218 1 5.71457 10.2812 11.8592 14
219 1 -6.95048 1.87212 -15.3785 12
220 1 -1.80951 10.7319 -13.0352 17
221 1 -5.6028 2.02385 6.56847 23
222 1 -2.02762 13.0581 -4.56379 25
223 1 -1.8358 12.3537 8.65059 17
224 1 7.63091 1.02095 5.15624 24
225 1 -5.86054 4.79664 8.39085 22
226 1 -0.06247 -9.66108 5.69844 19
227 1 -5.39552 7.88097 0.0444193 24
228 1 3.23387 -6.68917 -13.5449 19
229 1 5.15152 -6.3429 -1.97214 24
230 1 -5.03595 -0.976783 11.5825 16
231 1 -13.2839 6.0597 0.0405043 16
232 1 13.9179 1.8633 -11.1495 12
233 1 8.22282 -1.03492 -9.81269 24
234 1 5.75485 -5.82368 -11.7774 21
235 1 -2.89906 -4.60722 1.21765 24
236 1 -5.01707 11.2608 -8.10325 16
237 1 2.35903 3.9582 3.52977 26
238 1 2.42983 5.72589 15.3067 8
239 1 -10.7529 -3.67249 2.85398 21
240 1 10.2566 -12.085 -6.85555 9
241 1 -2.46246 12.6899 1.94475 22
242 1 -7.98677 4.10416 -0.279457 26
243 1 9.60747 -11.2656 8.43703 10
244 1 13.1049 -1.80138 -3.9861 20
245 1 -5.4373 10.8423 4.93503 19
246 1 -2.63746 -4.25892 -5.47354 26
247 1 -2.34875 1.20581 11.9186 19
248 1 -7.4414 14.955 1.9988 11
249 1 -5.21331 5.54385 -8.35653 22
250 1 -5.17911 7.5333 10.2228 20
251 1 -8.13822 6.90473 1.56783 24
252 1 -2.44031 -3.9837 -8.79096 26
253 1 -4.82214 10.9737 -1.46951 23
254 1 12.8757 -4.21484 1.87626 15
255 1 -6.92036 -11.685 3.69428 11
256 1 11.9949 -6.03887 7.22979 10
257 1 -13.1725 3.24361 -1.60582 18
258 1 -0.400576 -4.16546 9.65823 20
259 1 5.53457 -5.5587 -15.1467 14
260 1 -4.9938 -5.86959 -9.00797 23
261 1 9.65522 -0.464401 -15.8906 11
262 1 2.43658 9.65919 3.6536 23
263 1 -7.85834 -1.42791 -3.78775 26
264 1 5.72304 -8.78544 -9.78607 19
265 1 -2.63255 -13.1248 -1.15059 13
266 1 -11.7004 -8.41099 2.00717 12
267 1 0.132389 -8.9937 -7.38757 22
268 1 10.5294 2.54198 -3.07427 26
269 1 -7.93129 1.71873 -8.67179 23
270 1 -13.0767 3.34794 1.91163 16
271 1 -7.33889 9.72539 6.54238 17
272 1 -10.2859 10.8568 -1.48917 15
273 1 -4.5045 14.6138 9.36735 10
274 1 10.6392 -3.20103 -6.29892 25
275 1 10.8344 2.64961 -9.68115 22
276 1 -2.72729 7.25087 -4.90442 23
277 1 2.60927 -6.91395 -7.03848 22
278 1 -0.216765 7.74331 3.56906 25
279 1 -7.9306 1.55697 -5.34059 26
280 1 5.2792 -6.16237 -5.28604 24
281 1 14.2875 -1.39934 2.83271 12
282 1 -5.18801 -0.176846 -8.65241 25
283 1 -8.51382 -7.15974 6.18178 19
284 1 -2.12611 12.9022 -1.37789 23
285 1 -7.60914 -10.6273 0.58527 15
286 1 -8.12492 4.48655 -6.91039 27
287 1 1.47428 16.886 -4.77553 14
288 1 -0.283738 16.703 5.65205 12
289 1 -13.2034 -1.87677 -1.03246 17
290 1 -7.79787 -9.62646 -11.4547 9
291 1 -0.0185657 7.40485 10.2351 20
292 1 -13.2632 3.39168 -4.90239 15
293 1 10.0424 -3.70127 3.28782 25
294 1 -4.89235 -12.2338 1.27632 16
295 1 6.05448 8.65948 -12.6388 17
296 1 -4.74992 5.76286 -11.9073 20
297 1 2.87525 -10.3641 0.809603 22
298 1 12.8505 3.89362 6.81559 11
299 1 -2.65808 0.951442 8.39061 21
300 1 -10.6883 2.12604 -0.287607 23
301 1 -2.91853 6.83049 5.1467 26
302 1 -8.10189 -1.52433 6.36545 20
303 1 2.83018 -4.05525 -8.59018 26
304 1 8.29488 -6.52182 -13.4484 10
305 1 -0.378325 -0.892751 4.84537 24
306 1 -8.3938 3.98614 6.46813 24
307 1 -2.47558 -7.65007 2.71937 19
308 1 8.18093 -7.12227 -10.0906 16
309 1 0.463936 -5.69504 -12.0429 25
310 1 -5.48374 -0.812509 4.72585 25
311 1 3.04851 -9.99679 -5.62143 22
312 1 1.45389 0.514813 -18.3837 15
313 1 7.55864 -13.1078 6.06517 13
314 1 0.178729 11.3722 -7.99764 21
315 1 -3.11473 -1.42665 13.7624 12
316 1 -8.48643 -1.53882 9.56143 17
317 1 10.1925 -3.58075 6.86686 19
318 1 10.1196 4.98401 2.1366 24
319 1 -5.47561 4.99964 1.60916 25
320 1 7.20917 0.309103 -17.6332 13
321 1 7.42155 -4.75458 4.82869 25
322 1 10.7216 2.58129 -6.26037 25
323 1 -0.22028 -1.07565 8.26703 20
324 1 7.75169 9.73106 3.70372 20
325 1 4.90904 -3.65856 3.14258 25
326 1 -4.71485 -11.4386 -9.60634 11
327 1 -2.31878 15.6223 3.55894 17
328 1 -2.49578 -10.2269 -2.51819 22
329 1 2.74568 3.65347 10.2876 22
330 1 -0.0940348 10.2682 11.8297 13
331 1 0.296812 -9.30196 -4.08454 21
332 1 -8.71386 4.14842 9.78606 20
333 1 -4.77571 -11.9072 -6.36336 17
334 1 3.21001 12.8137 2.24534 21
335 1 -4.95116 -8.41576 -10.9968 20
336 1 -4.62417 -5.45007 -15.8978 12
337 1 -5.64368 -6.83601 11.001 13
338 1 -5.4679 2.08986 3.16455 23
339 1 7.48504 0.854842 8.40262 19
340 1 -1.31733 -12.3874 6.53171 13
341 1 -4.40428 5.94895 -15.2693 13
342 1 10.2317 8.04598 0.590382 23
343 1 -7.66355 -10.1501 -2.68106 17
344 1 0.104315 5.52465 -8.23201 22
345 1 -4.86121 13.6999 -2.8537 15
346 1 -2.03994 7.52712 -8.23104 22
347 1 -3.05263 6.72105 8.50936 24
348 1 -7.96661 -7.13577 -4.02891 25
349 1 8.86121 7.43665 -7.59177 22
350 1 -5.26895 -6.12287 -5.65795 25
351 1 3.6648 -9.62473 -12.2102 14
352 1 0.498969 -2.77625 -13.6136 24
353 1 -10.8116 8.21113 -3.37788 20
354 1 -2.83355 3.75851 13.6432 14
355 1 7.73109 9.94985 0.564163 22
356 1 2.48668 7.09853 -1.39918 25
357 1 -7.29714 1.86475 -12.0717 17
358 1 5.5168 2.68546 -9.73734 22
359 1 7.5492 -4.56692 1.49174 26
360 1 -13.2402 -4.90116 -2.2824 13
361 1 -3.42471 -0.291656 -19.4568 5
362 1 13.5605 4.06041 -5.15216 20
363 1 7.99012 -7.13847 -3.55444 26
364 1 13.2488 1.45333 -4.53302 22
365 1 3.49532 1.86736 -11.6753 23
366 1 4.92417 -6.47004 1.24566 23
367 1 0.100354 -12.1801 0.107589 19
368 1 2.07998 -7.72439 6.01663 24
369 1 -4.41559 2.84698 -13.6482 25
370 1 -1.65835 -9.44597 -12.5521 13
371 1 3.52063 4.92141 -13.2111 23
372 1 1.52509 -4.70379 11.8038 17
373 1 -10.4319 -6.20719 -2.18083 20
374 1 10.715 5.67047 -4.69346 21
375 1 15.4662 0.255706 0.0610252 12
376 1 -2.07395 10.2626 -6.41069 24
377 1 5.41298 -5.97443 -8.45411 24
378 1 3.68909 13.4206 -13.521 13
379 1 10.8219 -0.0564445 -7.98077 21
380 1 -3.22477 3.90374 10.1939 21
381 1 5.36816 13.4983 4.14963 14
382 1 -4.13264 3.01843 -16.8619 15
383 1 -5.48171 -0.893366 8.18603 21
384 1 -4.57177 16.7239 2.39838 9
385 1 -4.18976 0.105947 -15.3912 19
386 1 -10.6676 1.7313 6.44091 18
387 1 -5.70941 -3.64011 9.74038 21
388 1 2.99278 10.2913 -9.51865 17
389 1 12.1778 5.88545 0.515308 20
390 1 -5.58416 -6.48079 1.04568 23
391 1 2.54207 -7.10262 -3.76223 25
392 1 -7.91553 12.791 5.13134 14
393 1 5.89112 -2.87056 -13.3751 24
394 1 -0.0864989 8.10054 -3.11227 23
395 1 7.80963 -1.46703 -3.33923 25
396 1 7.8203 15.2193 -4.35214 11
397 1 4.65446 -6.63172 4.38217 23
398 1 -8.62422 6.88052 8.02408 20
399 1 -2.2013 15.0839 7.73326 14
400 1 1.16224 9.10057 -16.2571 10
401 1 -5.43292 -6.35093 -2.26977 24
402 1 -0.537281 -3.89235 6.34693 24
403 1 7.78675 6.74663 5.26978 23
404 1 11.773 8.20251 -6.22738 17
405 1 -4.62441 8.53498 -9.90751 22
406 1 -2.69271 15.9372 -2.89177 12
407 1 11.8266 -1.16235 7.69014 10
408 1 12.9497 -1.04155 -10.4882 10
409 1 -11.7173 -8.04897 -3.64258 14
410 1 2.27278 1.02007 5.05937 25
411 1 5.21359 14.0635 -5.71814 18
412 1 5.50273 -14.3321 -5.92548 12
413 1 5.88306 -0.0807068 -11.5587 21
414 1 0.566503 13.9461 -2.84454 24
415 1 -6.90155 -7.18384 -13.4696 12
416 1 -0.298443 -12.4299 3.62646 17
417 1 -10.3472 -6.33799 0.973412 20
418 1 -5.3181 2.58777 -6.86651 25
419 1 -13.2868 -1.87749 2.47377 12
420 1 8.00221 10.6947 -9.51129 20
421 1 -2.57496 -9.65727 -9.25757 20
422 1 4.2609 -10.1313 9.45567 14
423 1 5.90938 5.47541 -7.9703 20
424 1 -10.6356 7.82661 -0.0878248 22
425 1 15.6769 2.33937 -2.7632 14
426 1 2.92789 10.7004 13.494 8
427 1 0.956298 3.0277 -13.3136 22
428 1 0.475243 13.7675 0.429161 22
429 1 11.5968 5.30504 -7.55806 22
430 1 -2.20576 -3.46646 -15.4893 18
431 1 1.227 -11.9253 -8.99729 17
432 1 -7.54919 -11.7139 -8.34863 13
433 1 14.4338 6.20318 -7.31927 12
434 1 14.6781 6.5829 -0.614946 10
435 1 11.5014 -8.89908 -6.85621 11
436 1 5.96779 -9.12813 -6.75251 19
437 1 5.88216 13.8351 0.565321 18
438 1 -5.40691 2.19089 -0.20364 26
439 1 7.81989 4.36732 -3.07066 25
440 1 12.6248 8.23538 2.26515 12
441 1 15.1604 -0.0720529 -8.64391 12
442 1 3.92011 2.5755 16.1275 9
443 1 -3.08437 -4.69077 4.55203 23
444 1 5.12834 5.22833 -1.40845 26
445 1 3.9628 -7.21755 10.9123 16
446 1 12.8842 4.94091 -10.1227 17
447 1 7.8166 0.579908 11.7283 14
448 1 -5.2222 -3.15612 -7.15532 26
449 1 13.1589 4.56677 -2.2536 22
450 1 16.848 -0.16095 -3.1715 11
451 1 -0.209158 -6.39317 -2.24483 23
452 1 10.2883 4.64253 8.7492 13
453 1 0.447941 13.5847 6.75918 18
454 1 7.57941 6.9413 1.99282 25
455 1 -10.2064 8.11495 -6.84591 14
456 1 10.2258 5.2275 -1.35661 24
457 1 9.22544 8.1042 -13.7941 13
458 1 3.26861 12.9371 -4.11289 20
459 1 -0.611004 -12.0085 -6.27922 14
460 1 -8.20699 7.16409 11.2754 12
461 1 -7.06027 4.68435 -13.7097 13
462 1 -3.95155 -10.9851 7.66878 11
463 1 -5.09692 -0.0193566 -11.9942 24
464 1 -13.0211 -4.90975 -5.666 15
465 1 7.84355 -7.33055 -0.332002 25
466 1 7.50439 9.82705 7.3394 19
467 1 0.214747 -7.40116 11.0444 12
468 1 -10.6365 -0.231318 -8.68985 18
469 1 7.88107 -5.49167 7.82128 19
470 1 2.99022 -2.84717 13.7731 13
471 1 10.9494 8.10843 -2.60714 18
472 1 8.53984 2.16645 -11.312 20
473 1 6.9115 -13.0793 -9.01548 10
474 1 15.6364 -1.61857 -5.83032 13
475 1 6.0024 11.1555 -4.43016 23
476 1 13.1242 -2.64234 -7.58614 15
477 1 -3.0742 3.92612 6.76682 23
478 1 -10.2589 -5.90984 -5.56662 21
479 1 -10.6784 -3.13941 -7.06529 24
480 1 8.78257 -1.95144 9.47371 16
481 1 -2.53305 -5.76638 10.882 18
482 1 2.71112 -0.125242 14.5703 14
483 1 -4.79154 11.1237 -4.83239 21
484 1 7.59499 1.25792 1.75183 25
485 1 4.99698 4.98165 1.95355 25
486 1 3.95333 -0.700686 -16.9322 17
487 1 -11.1767 4.90449 7.86037 12
488 1 7.09032 2.67712 -16.175 14
489 1 1.12209 -11.5289 -12.0701 13
490 1 7.5691 -10.9768 -10.8209 9
491 1 5.55435 7.52682 10.4269 20
492 1 4.9703 2.03906 3.47685 26
493 1 4.55737 10.3624 8.76811 21
494 1 -0.00386607 -1.48975 11.6284 22
495 1 0.206911 1.78218 9.93635 22
496 1 1.56263 -5.55415 -15.4452 14
497 1 -2.30766 6.63935 11.9043 16
498 1 5.47556 -0.0337983 14.2617 14
499 1 8.04864 7.32847 -4.36878 22
500 1 -0.00951163 -14.0169 -2.83551 10
501 1 -4.79379 8.35308 -6.63152 22
502 1 5.77277 10.9151 -1.1963 21
503 1 0.288145 16.8772 -1.27998 14
504 1 -3.03347 -1.91626 6.39891 25
505 1 1.01855 13.9783 -6.00305 20
506 1 10.3319 7.61981 3.84763 20
507 1 -2.58795 -6.99563 -7.32778 25
508 1 3.79316 2.21759 -14.9359 22
509 1 -11.1507 10.6974 1.28382 10
510 1 11.1339 0.696446 -12.6142 15
511 1 2.5104 9.90427 0.43861 23
512 1 8.97271 4.86071 -9.37621 22
513 1 3.02904 15.8923 -2.30816 17
514 1 -2.89955 4.0032 3.3926 25
515 1 -8.03092 4.28087 -3.58524 26
516 1 3.4254 7.47013 -8.0194 23
517 1 0.142737 -2.73986 14.8026 10
518 1 -5.18644 8.80127 -13.2971 16
519 1 -0.261788 10.5083 5.31954 24
520 1 5.10848 -4.82221 12.4958 12
521 1 5.99496 13.9156 -2.3381 21
522 1 5.14889 10.4736 5.49349 26
523 1 12.8105 -5.14125 -3.94762 14
524 1 -8.4744 9.92036 9.59652 11
525 1 -1.89159 -13.6515 1.7484 12
526 1 0.394087 -0.0458716 -11.8276 23
527 1 2.37738 9.40294 6.9318 24
528 1 10.4176 -3.40304 -3.24932 26
529 1 -0.12801 10.7007 1.99854 24
530 1 -13.1292 0.91448 4.75649 10
531 1 1.85391 -13.6243 5.33146 15
532 1 10.8815 10.2937 -11.4521 14
533 1 10.1008 -6.43234 4.7876 21
534 1 -2.78503 6.91138 1.77268 25
535 1 4.32547 2.32035 -18.0238 14
536 1 2.41317 -10.7057 4.01363 20
537 1 2.45202 15.3671 4.49171 14
538 1 2.85079 3.17717 13.4451 19
539 1 -7.77205 -3.90417 -8.97359 22
540 1 5.59503 -3.03955 -10.0479 25
541 1 -3.90658 16.6179 6.09652 9
542 1 10.8263 -5.70864 -8.28888 15
543 1 6.60987 -7.14364 9.83649 16
544 1 4.5388 -11.7804 -7.59987 20
545 1 -11.0766 4.4654 4.59396 19
546 1 0.691956 2.80293 -10.0193 22
547 1 -2.30883 -12.924 -4.41089 14
548 1 -5.13318 1.81278 10.0168 21
549 1 11.2991 10.5165 -8.43698 14
550 1 -0.319539 4.80214 5.16475 24
551 1 -8.89761 9.85521 3.86794 16
552 1 7.65078 4.19123 0.267114 26
553 1 0.443056 14.2816 -9.43561 15
554 1 11.6226 3.71604 -12.7093 17
555 1 8.03671 4.53074 -6.20187 25
556 1 -10.4868 -3.14822 -10.3311 13
557 1 -11.4743 -8.26616 -6.77996 13
558 1 0.956563 14.6786 -12.338 11
559 1 -6.30811 4.4695 11.7525 20
560 1 -0.346534 -3.66929 2.99052 24
561 1 3.1801 -0.949369 -13.3474 23
562 1 -8.10598 7.24575 -5.05514 23
563 1 7.01972 12.224 9.58012 11
564 1 -8.01762 -4.46723 1.07776 25
565 1 6.23898 5.41433 -11.4 21
566 1 -6.18528 -9.22179 5.97151 18
567 1 3.65562 7.55985 -11.3745 24
568 1 1.38084 0.257451 -15.1345 23
569 1 -0.412009 1.9127 6.64993 24
570 1 0.877003 12.0941 -14.4373 14
571 1 -13.0896 -4.97868 0.982994 11
572 1 10.2661 -3.47736 0.0778021 25
573 1 -2.80939 -7.2459 -3.95979 24
574 1 6.50665 7.96517 -9.46259 20
575 1 11.0875 -9.10517 -0.155808 12
576 1 -2.61352 9.52729 10.3365 18
577 1 7.70968 -13.1175 2.70605 13
578 1 11.4876 -8.66417 -3.35457 13
579 1 7.46723 -2.09352 6.56237 21
580 1 2.35331 6.70534 5.28891 26
581 1 -5.26776 13.6158 6.831 17
582 1 6.72291 -10.0076 7.9218 19
583 1 10.246 -0.634151 1.69353 22
584 1 7.73508 6.68334 8.84084 18
585 1 -10.7023 -3.25611 -3.6635 24
586 1 8.0789 -4.16635 -8.35538 25
587 1 2.42562 6.91053 1.93351 26
588 1 5.31986 1.72246 10.2405 22
589 1 5.12523 10.7533 2.14744 25
590 1 2.08865 -7.51163 2.72862 25
591 1 -5.28376 -3.40061 -3.7989 26
592 1 -5.81133 7.35093 13.4317 12
593 1 6.04398 8.35961 -6.22557 22
594 1 -4.77384 -4.25254 12.7919 15
595 1 9.36718 -8.45623 9.16802 13
596 1 15.7424 -3.32763 -3.10073 11
597 1 7.80373 12.6591 2.49035 15
598 1 0.602389 8.36537 -6.48719 22
599 1 0.172271 -5.95309 -8.8227 24
600 1 -1.80555 4.92228 -16.5688 15
601 1 -4.81067 11.2455 9.5551 17
602 1 -4.70464 13.8989 0.437684 19
603 1 10.2231 -0.921958 4.98144 24
604 1 0.55751 11.0977 -4.62848 23
605 1 -0.498497 4.65335 8.50128 22
606 1 5.26146 4.67623 12.0184 16
607 1 9.46834 2.08572 -14.8822 16
608 1 -2.51899 -10.4686 0.892573 23
609 1 -2.52897 1.70763 -8.48049 24
610 1 12.868 1.2928 1.98378 18
611 1 2.96507 -1.09543 -10.0679 25
612 1 -0.0839539 -6.1984 -5.46542 25
613 1 16.0075 1.66389 -6.06907 13
614 1 -1.42259 -4.32764 13.3011 13
615 1 3.47467 -3.45861 -15.2912 18
616 1 8.65189 12.8539 -0.960319 17
617 1 0.249655 -9.29234 -0.801411 21
618 1 -10.688 5.15658 -1.8748 26
619 1 8.9524 5.35489 -12.3704 22
620 1 8.47844 -0.858221 -13.022 19
621 1 -8.33339 12.2875 2.19349 15
622 1 1.26609 3.2472 -16.5934 20
623 1 10.324 -6.38976 1.55438 21
624 1 -8.03761 1.33112 -1.99774 26
625 1 10.3864 2.36359 0.13899 25
626 1 -10.3302 -9.35452 -0.767885 18
627 1 6.62074 2.81707 13.6162 14
628 1 -7.83813 -1.01846 -10.425 20
629 1 -7.33492 12.4144 8.58652 10
630 1 -2.48193 4.72781 -10.0582 22
631 1 10.6934 -2.95059 -9.5236 17
632 1 -5.5311 -8.81175 -7.68206 24
633 1 8.94342 -9.80767 -5.22829 20
634 1 -10.6608 1.89386 3.03573 21
635 1 -5.28047 -9.13088 -4.3208 21
636 1 -7.08329 -9.20292 8.57662 13
637 1 10.3995 -0.571452 -1.67195 25
638 1 5.04716 -3.50566 -0.191004 26
639 1 -8.16367 6.96975 4.87556 21
640 1 2.67045 9.248 10.5984 20
641 1 9.84319 12.7689 -10.2182 9
642 1 -5.25631 13.6489 3.4935 22
643 1 8.0812 13.2755 -7.23306 13
644 1 2.68651 0.570544 11.6304 21
645 1 5.26244 -4.13108 9.71919 21
646 1 4.88795 17.1277 -4.67832 10
647 1 -3.30013 -4.9622 7.85777 23
648 1 -2.27489 -6.69897 -10.6675 23
649 1 -10.6021 -0.647913 -2.1684 23
650 1 -3.40991 -7.54894 5.9498 21
651 1 9.85981 -5.20653 9.87229 12
652 1 3.1827 -15.1516 -3.7198 14
653 1 -13.4555 0.423393 -3.22809 15
654 1 10.5288 -0.334426 -4.77846 25
655 1 -8.04357 7.06821 -1.80707 25
656 1 -5.63862 4.91113 4.97142 26
657 1 0.31735 -8.76957 -10.5218 24
658 1 -1.57544 -12.8638 -10.2313 7
659 1 4.71233 -11.8195 -4.44683 21
660 1 3.67592 14.9452 -10.4689 11
661 1 12.816 8.04111 -9.46023 17
662 1 7.54129 12.342 5.98969 14
663 1 7.7816 1.39821 -1.54592 26
664 1 -2.33669 7.85641 -14.767 14
665 1 1.83464 -8.23156 8.9873 18
666 1 8.63556 10.2148 -2.76861 20
667 1 3.83777 5.19318 -16.3535 14
668 1 -10.6879 2.33505 -3.59778 22
669 1 3.14856 10.0949 -2.88601 23
670 1 -10.8162 -0.875378 4.55759 20
671 1 5.06571 7.95114 0.369175 25
672 1 5.36379 -9.58407 2.66239 22
673 1 12.8668 9.26531 -0.23906 14
674 1 -3.1978 9.70695 6.90497 21
675 1 -6.16276 3.92586 14.4865 8
676 1 7.80569 7.23511 -1.31441 22
677 1 -7.7076 1.63819 11.7468 14
678 1 5.76282 -9.36039 -0.408338 21
679 1 -2.88236 -1.75 3.05631 25
680 1 8.53237 9.39459 10.6023 10
681 1 8.04674 -7.08162 -6.92769 25
682 1 -7.52469 -3.76068 -12.2112 19
683 1 -1.82897 4.82155 -13.3187 22
684 1 -13.4121 0.67021 -6.71794 13
685 1 5.23209 16.9965 -1.01966 8
686 1 -5.42889 7.85 3.35764 23
687 1 -10.4468 -10.6315 -4.06238 12
688 1 -2.76594 7.06807 -1.60023 25
689 1 7.64963 3.80963 7.05127 22
690 1 -5.84326 -3.67625 6.29461 23
691 1 13.4398 2.65003 -7.94617 19
692 1 5.5453 -13.559 -2.48633 16
693 1 6.84342 -2.56353 -16.5153 14
694 1 -1.46151 2.04064 -15.1094 25
695 1 -8.12385 -4.55391 4.33407 23
696 1 -5.41484 5.34146 -5.07677 25
697 1 1.71731 6.28604 12.1585 16
698 1 4.89036 -0.869865 4.97858 24
699 1 -10.5055 -3.8665 9.79422 9
700 1 7.68197 -1.56333 -0.0419305 26
701 1 -1.96076 7.60543 -11.5513 23
702 1 10.1755 8.23067 7.03702 14
703 2 -7.45259 2.82606 -13.7777 13
704 2 -4.90768 10.4892 -9.80946 14
705 2 6.17453 -1.14877 -9.84587 25
706 2 -2.33904 4.8901 5.14024 26
707 2 -4.45985 -3.92339 -8.85989 26
708 2 -0.770906 0.1249 12.2336 16
709 2 -12.318 -6.6866 1.35633 12
710 2 -10.0106 1.73109 -8.64425 20
711 2 2.08225 16.1502 2.81233 13
712 2 -10.6246 3.79182 9.25991 13
713 2 5.74813 6.74959 5.37146 24
714 2 -1.85508 -0.186441 -8.54595 25
715 2 -9.53333 -5.70796 -7.37988 21
716 2 -7.36477 2.59809 -6.96733 24
717 2 0.00837285 -7.74252 6.07613 22
718 2 5.63793 3.80101 6.97003 24
719 2 7.71745 3.8673 -12.0421 21
720 2 4.53843 -10.5846 4.1686 21
721 2 5.59123 1.02253 5.11781 26
722 2 -8.34125 10.7582 -4.95554 16
723 2 -13.5852 -0.260255 -5.07283 13
724 2 7.41671 1.72988 10.156 17
725 2 5.068 -9.99204 -8.31225 21
726 2 -3.09383 -9.50385 -0.758032 21
727 2 -10.1243 0.887004 8.20529 17
728 2 -2.76841 -6.94526 7.67323 20
729 2 10.6019 -7.42555 3.18953 16
730 2 3.19345 -12.1773 -8.98919 17
731 2 2.8545 3.93205 15.4062 8
732 2 3.03942 11.0992 -11.2772 20
733 2 -9.98188 -7.34524 -0.656079 22
734 2 3.26676 -4.43823 12.6901 16
735 2 -7.40928 7.84127 -0.0756839 23
736 2 -0.28531 3.61691 10.1444 21
737 2 -12.7431 8.08623 -2.81646 14
738 2 4.34063 -15.1703 -2.19601 11
739 2 3.11433 10.3942 5.39421 24
740 2 0.988927 13.1796 -7.86445 19
741 2 11.5379 -3.89081 -8.02252 16
742 2 -1.67236 -0.0666655 -11.8904 22
743 2 3.56818 -3.02268 -10.1293 25
744 2 8.49913 -0.359985 -4.85652 25
745 2 -2.47292 7.77792 6.9178 21
746 2 6.09964 11.1748 -9.55726 17
747 2 -7.00859 5.55967 -12.0168 15
748 2 13.5533 7.61543 0.592515 12
749 2 -8.56656 2.10257 10.1134 16
750 2 -12.0469 10.7535 -0.476433 10
751 2 8.85591 6.30804 -10.7157 21
752 2 8.6365 -2.00317 -16.2392 13
753 2 -7.53048 -0.705112 8.10405 23
754 2 10.081 11.641 -3.04895 13
755 2 -2.89906 13.9496 -2.9225 22
756 2 -7.95949 -10.5873 -9.81279 13
757 2 -2.67833 13.8849 0.248094 20
758 2 8.60959 -6.67415 9.46689 13
759 2 8.42951 -3.38997 -3.38031 25
760 2 -10.1233 -1.76205 2.87236 24
761 2 9.09107 -11.8472 -5.41271 12
762 2 8.26985 -11.7382 -9.09309 12
763 2 7.79143 10.9566 -1.15771 22
764 2 5.45835 -7.55277 2.82581 23
765 2 8.2442 -3.52655 -0.0637487 26
766 2 -3.74173 0.234262 12.9336 15
767 2 7.7978 -9.36451 -0.422715 22
768 2 4.49297 9.68236 13.2381 10
769 2 7.15598 3.8962 12.1247 11
770 2 -4.29693 15.2703 7.46424 13
771 2 0.416921 9.64455 3.62309 25
772 2 10.9182 -7.19889 -0.120517 16
773 2 5.66566 9.66461 3.69916 25
774 2 -9.71718 -1.39728 -10.0474 16
775 2 -2.72689 4.7468 11.9517 16
776 2 10.8357 5.53954 -13.1107 17
777 2 -7.209 -0.11943 -8.73118 25
778 2 -7.88046 4.93747 8.15888 23
779 2 -10.0474 -10.5065 4.3166 10
780 2 13.3805 3.23028 2.34411 15
781 2 -2.5745 -6.66696 4.44593 20
782 2 -3.18875 7.5452 10.4063 19
783 2 9.91605 0.191093 -14.0576 14
784 2 2.05486 -1.01935 8.26322 22
785 2 0.149004 6.56046 8.45361 22
786 2 -12.5127 5.18821 1.62366 16
787 2 3.01304 -11.3923 -11.8541 13
788 2 11.2372 4.40011 -2.8197 24
789 2 -8.13919 10.7434 7.9236 13
790 2 0.591188 -7.26448 -3.89646 23
791 2 8.00958 -9.10119 -6.87325 22
792 2 6.02965 -1.28995 -6.62185 26
793 2 2.42585 10.302 8.81876 20
794 2 4.96329 -9.56593 -2.14711 20
795 2 8.80855 -3.7749 10.4202 13
796 2 -2.36499 -6.53962 1.07808 23
797 2 13.7742 -3.64588 -3.13934 15
798 2 -6.01801 -4.98823 11.4533 16
799 2 14.2473 5.86393 -5.45119 14
800 2 0.342903 -7.28141 -0.543441 22
801 2 10.5912 -10.3846 -7.64248 10
802 2 3.61636 -14.7022 -5.54087 14
803 2 8.64525 -3.28821 -6.64602 25
804 2 -9.79312 11.0384 2.60421 12
805 2 14.1853 2.38825 -6.10001 17
806 2 -8.53125 -8.02292 -10.6495 14
807 2 -7.74808 -6.48339 4.48072 23
808 2 -2.71262 -11.9341 -6.01092 17
809 2 -3.03342 -9.22867 -4.10251 22
810 2 -4.51468 12.5942 2.00084 23
811 2 -9.90721 9.61383 0.172811 20
812 2 5.45053 4.6627 -9.73579 25
813 2 2.47474 10.9991 -1.25687 22
814 2 0.110048 7.63832 -11.5003 23
815 2 -5.10858 6.67635 8.47336 21
816 2 4.06336 8.4458 -13.1359 18
817 2 -10.1102 1.28112 -2.00173 27
818 2 0.236296 3.80237 6.82922 24
819 2 -7.50526 10.8673 4.8723 20
820 2 -4.67318 4.49889 -6.748 25
821 2 3.01557 7.72482 3.68601 26
822 2 8.85357 8.22466 -2.76253 22
823 2 11.6975 -6.70883 -3.4183 16
824 2 -6.47608 8.02428 11.6393 15
825 2 5.5681 1.20992 1.74792 26
826 2 -2.15402 7.90075 0.122873 25
827 2 -10.4505 4.84472 -9.88337 12
828 2 -2.54519 4.80628 8.51701 21
829 2 11.8161 0.63079 7.10333 12
830 2 -2.85831 -5.38254 -15.1963 14
831 2 2.76723 5.91154 -14.8259 20
832 2 10.3868 12.0395 -0.230115 14
833 2 -10.0156 0.997034 4.65776 25
834 2 5.98985 7.23231 -4.53064 22
835 2 -1.52915 14.0572 -9.37763 14
836 2 -0.0213926 10.2537 -6.33353 24
837 2 10.2346 -2.03334 8.2421 15
838 2 2.88872 1.90146 6.75445 24
839 2 15.879 -0.0603469 -6.89245 13
840 2 2.17565 1.742 10.0424 19
841 2 -5.17245 -12.3475 3.161 14
842 2 -9.88144 -1.27789 -7.06556 24
843 2 -4.28697 -6.59659 -10.7999 21
844 2 4.87294 -10.5599 0.944287 22
845 2 3.8671 -2.79416 -13.4369 24
846 2 10.7724 4.32127 0.36361 21
847 2 2.88039 4.70094 8.55509 22
848 2 6.14059 1.90838 -17.7302 12
849 2 -7.47244 -2.87207 10.3803 15
850 2 -2.04406 0.411485 -18.5253 13
851 2 2.29524 -9.3135 -0.782203 22
852 2 0.569829 -6.98905 -7.17061 24
853 2 5.95352 -7.04379 -3.65684 23
854 2 7.97199 10.9843 -4.56966 18
855 2 -4.96401 1.91615 -15.4807 16
856 2 -0.0622538 12.6851 1.94199 18
857 2 -4.83708 -7.12425 -3.99287 23
858 2 -7.4531 0.105598 -15.1194 11
859 2 8.06329 8.40978 -6.05543 19
860 2 -1.53714 16.3922 -1.50563 13
861 2 -8.0487 -9.10779 6.82943 14
862 2 13.4459 -3.07278 3.31412 12
863 2 -0.588175 9.28049 10.178 19
864 2 -5.85393 -12.4843 -4.79743 14
865 2 -0.745506 -13.3106 -1.25303 16
866 2 2.10907 -7.40958 10.8353 14
867 2 -1.59008 13.4053 6.84434 18
868 2 11.2104 9.05153 -9.78313 18
869 2 3.01126 7.51712 7.04069 24
870 2 9.02722 11.2568 -11.2906 14