ITEM: TIMESTEP
34000
ITEM: NUMBER OF ATOMS
500
ITEM: BOX BOUNDS pp pp pp
-30.0 30.0
-30.0 30.0
-30.0 30.0
ITEM: ATOMS id type x y z Coordination
1 1 4.08842 -6.70873 0.428512 18
2 1 1.34139 -1.89637 1.99226 14
3 1 -3.59801 -8.69559 -14.4708 17
4 1 -9.81261 -5.20887 -10.1035 13
5 1 -0.717904 -2.0384 -16.4062 14
6 1 7.52227 -12.6065 -10.6131 9
7 1 6.24181 -8.11982 -0.00458841 16
8 1 4.39962 -1.08337 0.324447 19
9 1 -8.94454 -7.15925 -4.74194 21
10 1 7.67771 -7.46027 -7.85546 20
11 1 8.04138 -2.96887 -0.97763 12
12 1 -6.88813 -12.7486 -1.9995 18
13 1 -1.88075 -10.9738 -14.3503 9
14 1 8.47237 -7.80784 -10.618 15
15 1 7.56057 -13.8918 -4.50119 9
16 1 -7.24382 4.32312 -3.0093 9
17 1 -1.16733 3.71756 -5.81964 13
18 1 -0.980159 -7.77131 -15.7431 16
19 1 -0.857544 -0.918681 0.32767 17
20 1 -3.74656 0.32694 -3.31618 24
21 1 1.90867 -2.78376 -14.6932 18
22 1 -2.79031 2.90514 -11.2437 17
23 1 -5.92379 -1.49516 -13.4687 22
24 1 -3.88156 3.12457 -7.95082 17
25 1 -10.1062 0.606646 -10.5058 8
26 1 1.6915 0.962397 0.325728 13
27 1 -5.64109 -0.970246 -16.1794 14
28 1 -7.28065 -14.5842 0.658756 7
29 1 4.75224 -13.3069 -9.52638 14
30 1 -9.28663 -8.11593 -11.5109 15
31 1 -2.77123 -15.824 -4.64844 12
32 1 4.77401 -1.81561 -13.188 14
33 1 -8.95389 -8.94633 -14.7183 12
34 1 1.1408 0.28365 -16.4642 7
35 1 -1.3462 4.37161 -9.29075 11
36 1 -9.49506 -7.49168 -1.02846 11
37 1 1.33294 3.41222 -1.96579 14
38 1 1.01335 -11.2117 1.50398 11
39 1 1.50182 -14.9459 -10.3887 12
40 1 7.31369 -6.88996 -14.053 10
41 1 3.90379 -9.76103 2.14559 13
42 1 3.62325 -12.6822 0.564369 14
43 1 3.66071 0.473973 -7.6644 20
44 1 -8.43823 -11.2513 0.151727 10
45 1 -3.6332 -16.5322 -8.34099 11
46 1 -4.22446 -7.94195 1.89795 17
47 1 -9.70813 -4.46847 -3.08312 13
48 1 4.93156 -12.7735 -6.1223 19
49 1 -6.58121 -9.62115 -0.944803 20
50 1 -7.17227 3.63284 -6.79872 11
51 1 -7.48599 1.13741 -1.81844 13
52 1 -4.7057 2.65867 -1.4925 14
53 1 -7.80987 -10.262 -11.9065 16
54 1 -5.92668 -8.11179 -16.8247 11
55 1 6.72999 -1.80974 1.87839 10
56 1 -2.98198 -10.988 0.799025 17
57 1 -5.91085 -4.45224 -14.9363 24
58 1 -9.07592 -7.43376 -8.03863 19
59 1 -6.86061 -14.9131 -8.5322 10
60 1 -6.32239 0.0511952 0.628541 11
61 1 -1.07182 -14.1052 -12.1416 11
62 1 -1.79808 1.44662 -0.439769 16
63 1 -8.23998 -6.36418 -16.3943 11
64 1 -9.37027 2.32248 -4.32998 11
65 1 -4.30088 -11.3917 -12.3414 16
66 1 6.51045 -11.1909 0.849458 10
67 1 -8.77238 -2.23177 -12.1617 16
68 1 -6.08447 -3.27122 -0.0362774 17
69 1 -9.11229 -1.63571 -1.29039 11
70 1 -3.22448 0.0366244 -12.824 21
71 1 -0.755727 -13.0968 0.21711 15
72 1 4.16168 -13.8353 -12.6112 9
73 1 4.21047 -8.08263 -15.8784 12
74 1 6.71809 -9.42566 -2.52573 17
75 1 -6.65227 -13.3569 -12.1506 11
76 1 -6.64718 -6.90333 0.344512 16
77 1 6.84008 -5.22091 1.20623 13
78 1 6.61553 -1.10856 -7.11841 18
79 1 -3.01086 -2.72295 -14.6365 25
80 1 -2.8733 0.487384 -16.173 13
81 1 1.09295 2.90783 -7.90262 18
82 1 3.6271 -5.3249 -15.0101 14
83 1 2.30279 -13.6477 -4.37677 15
84 1 6.98187 -10.1017 -5.55016 20
85 1 -0.965117 -15.7425 -7.30535 12
86 1 -6.33285 -4.86255 -17.9256 11
87 1 10.6893 -6.23281 -9.07847 10
88 1 -7.09788 0.732247 -11.706 12
89 1 4.08049 -10.8878 -14.102 14
90 1 -5.67796 -10.7901 2.04267 11
91 1 -1.41248 -16.4716 -10.6385 11
92 1 1.43378 -8.71209 -14.04 21
93 1 4.69275 -12.5852 -2.82071 21
94 1 -5.86878 -10.5946 -14.5092 14
95 1 -1.75762 -6.68999 3.55394 11
96 1 -1.59641 -3.58069 2.33486 15
97 1 4.77301 -8.15267 -13.026 20
98 1 4.22788 0.481631 -11.4023 16
99 1 8.41901 -4.84051 -11.2983 13
100 1 -3.48599 -2.8404 -17.4774 14
101 1 -9.0632 -1.87538 -9.03871 17
102 1 1.48449 -7.78786 2.17693 11
103 1 -8.52436 -2.9308 -15.5178 10
104 1 7.85809 -7.57917 -4.58764 18
105 1 6.76863 1.2713 0.342818 9
106 1 1.76212 -14.2682 -1.17135 11
107 1 8.71617 -2.50215 -4.95458 14
108 1 7.00286 2.95167 -2.51418 11
109 1 4.18097 2.05634 -1.70444 17
110 1 -5.29905 1.68117 -14.3461 11
111 1 -7.70076 -12.4515 -9.3851 15
112 1 -9.27962 0.869332 -7.218 14
113 1 6.45436 1.16885 -8.70469 12
114 1 4.04449 -3.83491 2.22614 13
115 1 -1.06313 -5.17671 -17.8142 11
116 1 4.63834 3.57895 -7.08315 10
117 1 7.24763 -9.83705 -12.5782 14
118 1 6.5463 -14.0552 -1.18459 7
119 1 -3.67237 -1.39932 1.67077 12
120 1 6.22262 -4.30513 -3.3112 20
121 1 -0.857807 0.672639 -11.1389 19
122 1 7.28094 -1.85686 -10.7333 13
123 1 -2.25788 -9.96679 3.69883 8
124 1 -4.38938 -13.4516 -0.569653 17
125 1 -6.56047 0.637731 -4.98109 22
126 1 5.1406 1.50888 -4.70094 21
127 1 -9.16194 -10.4514 -2.49766 14
128 1 9.61665 -4.59996 -3.36968 12
129 1 -3.75835 -13.5106 -3.7465 19
130 1 8.01442 -0.396146 -2.72871 12
131 1 7.37752 -12.3953 -7.51097 14
132 1 2.17026 3.05615 -4.87071 18
133 1 -9.92245 -10.0148 -9.15278 13
134 1 -0.818671 1.66844 -14.2643 15
135 1 -6.12278 -7.36421 -13.1144 24
136 1 1.25911 -7.06637 -17.1156 12
137 1 -4.10043 -14.2998 -10.4404 15
138 1 9.67558 -9.92551 -7.82951 12
139 1 -9.34999 -4.31533 -6.42642 16
140 1 -3.24197 -5.86848 -13.3064 22
141 1 -6.93803 -12.6587 -5.49134 17
142 1 8.2793 -6.63242 -1.65212 15
143 1 -3.50599 -5.76384 -16.3115 17
144 1 -9.44888 -1.23111 -4.72687 15
145 1 -7.64172 -5.04495 -1.27839 17
146 1 8.19209 0.856053 -5.34768 12
147 1 11.1452 -4.32614 -6.28075 8
148 1 -1.93549 -15.3579 -1.52483 11
149 1 6.50628 -3.87257 -13.6454 12
150 1 1.89122 0.295375 -12.9802 18
151 1 4.40059 4.84254 -3.5145 10
152 1 0.868506 3.05907 -11.4064 11
153 1 8.6913 -3.7999 -8.07034 16
154 1 6.76449 -9.87891 -9.42728 23
155 1 -1.99854 3.66426 -2.74516 12
156 1 -4.57633 3.63128 -4.78814 16
157 1 -6.14628 -15.3326 -2.82074 10
158 1 10.0897 -10.3305 -4.47955 6
159 1 -9.46087 -9.78738 -5.87226 13
160 1 -6.50365 1.04408 -8.38249 18
161 2 -9.35732 -5.74668 -1.79176 12
162 2 8.43505 -0.732118 -4.56457 13
163 2 -6.72127 -2.62553 -11.5941 22
164 2 -6.79632 -14.9787 -1.0694 9
165 2 5.09057 -2.35417 1.78232 13
166 2 -7.46013 -2.87411 -1.53766 18
167 2 7.51526 -10.7434 -10.9904 14
168 2 -3.94767 -4.46452 -14.665 21
169 2 0.730352 -8.00174 -15.5894 16
170 2 -2.90798 2.4291 -1.66831 14
171 2 7.00477 -7.47884 -2.79542 19
172 2 4.86388 0.186534 -6.16448 21
173 2 -0.259935 2.88855 -2.7148 15
174 2 4.3026 4.20006 -5.32709 9
175 2 1.15068 1.08092 -14.6691 12
176 2 5.76931 -7.72921 -14.7939 12
177 2 -6.84842 -6.66213 -17.6483 10
178 2 1.45437 -13.0359 0.403549 13
179 2 -8.95671 -5.18854 -4.91579 19
180 2 5.20058 -10.0173 -12.646 18
181 2 -7.2897 -13.7083 -7.08827 12
182 2 4.94619 0.933392 -0.20637 16
183 2 5.05936 -8.0964 1.55708 14
184 2 -7.88227 -13.0551 0.641618 9
185 2 3.32357 -14.3395 -10.5453 13
186 2 -7.63019 -11.1084 -1.64134 15
187 2 -1.74076 -16.8419 -8.84075 11
188 2 -8.81498 -10.8521 -10.2415 14
189 2 -9.88764 0.491045 -5.33761 13
190 2 6.29619 -0.798232 -9.24624 15
191 2 1.56326 -4.76678 -14.5233 20
192 2 -2.65971 3.65196 -4.41188 15
193 2 -8.36043 2.59357 -2.58481 11
194 2 -1.80918 3.47391 -7.60163 15
195 2 -0.974558 2.65473 -11.6652 14
196 2 -0.206173 0.845328 0.396327 14
197 2 -0.702673 -11.0251 0.64173 16
198 2 3.32303 -9.27043 -14.7443 15
199 2 0.416307 -13.457 -11.1075 15
200 2 -8.88105 -10.383 -7.52536 15
201 2 6.72709 -8.4171 -6.36941 21
202 2 7.01227 2.08052 -4.06401 13
203 2 -1.76207 -3.51453 -17.3959 14
204 2 0.019925 -6.43542 -18.3988 8
205 2 -4.12389 -10.5355 -14.1267 14
206 2 1.17364 -7.62368 -12.4408 21
207 2 7.42461 -5.29753 -13.0357 13
208 2 -1.72635 -6.16567 -16.0412 19
209 2 -4.85295 -12.9726 -11.4116 12
210 2 -1.09904 -2.88908 -14.5342 21
211 2 -7.03947 -13.5724 -3.62816 13
212 2 -7.52127 -0.156472 -3.45273 19
213 2 -7.28331 -9.99543 0.992368 13
214 2 -9.37941 -5.35663 -8.22031 18
215 2 6.84581 -14.1141 -2.93501 9
216 2 2.45 4.30603 -3.34319 10
217 2 -3.49257 -3.3374 1.88794 16
218 2 -9.68063 -2.60216 -3.07557 13
219 2 -8.571 -7.10324 -14.5361 15
220 2 10.5302 -3.4309 -4.80165 10
221 2 -8.60029 -10.0978 -4.37467 16
222 2 -3.96296 -1.5699 -13.2142 22
223 2 2.91868 -6.49479 -16.3257 13
224 2 -6.49771 -0.135165 -6.94862 23
225 2 5.60396 -13.1352 -11.5446 12
226 2 0.0908338 -15.8231 -11.3688 9
227 2 -8.02288 3.60511 -4.87721 12
228 2 3.98532 -12.7205 -4.46309 17
229 2 5.14219 3.54097 -2.16811 13
230 2 -3.2766 3.76642 -9.5153 11
231 2 -3.21952 -6.45105 1.98351 16
232 2 -0.978359 0.0466591 -16.3652 13
233 2 1.98192 -6.69674 0.714177 19
234 2 7.54181 0.920967 -7.17991 12
235 2 4.25462 0.402207 -3.24528 20
236 2 -5.52949 -9.36356 -2.73995 19
237 2 2.011 -0.811321 0.415792 15
238 2 7.49823 -3.53527 0.759055 12
239 2 1.0998 -1.67705 -15.9691 12
240 2 2.25059 -3.54796 1.67084 16
241 2 6.67761 -9.90558 -0.613894 16
242 2 -9.54592 -6.13656 -11.7939 15
243 2 -6.05751 0.694584 -10.184 16
244 2 -5.24416 0.904239 -16.0308 10
245 2 -0.239635 -14.3412 -1.12782 11
246 2 4.77344 2.06009 -8.25749 13
247 2 -6.86509 -2.11365 -15.2158 17
248 2 10.2887 -4.85628 -7.71212 11
249 2 -8.84437 -0.19411 -11.6816 12
250 2 9.28196 -6.51524 -3.54761 10
251 2 -4.8333 -12.1239 0.851807 16
252 2 -6.9262 -9.14884 -15.2115 15
253 2 -3.19093 1.04225 -11.2651 20
254 2 -7.94176 2.15331 -7.86977 12
255 2 -0.37499 -7.17487 2.30965 13
256 2 -8.95883 -2.50479 -6.14716 18
257 2 -0.604105 -2.13119 1.78471 14
258 2 -6.21205 -5.41187 -13.3223 19
259 2 0.385681 3.67894 -9.65543 13
260 2 -2.70813 0.0578917 0.713915 13
261 2 -4.80678 -4.24801 -17.1157 15
262 2 -4.78915 -14.9534 -8.71131 13
263 2 4.877 -5.11496 0.874777 17
264 2 8.05124 -2.54848 -6.70933 15
265 2 3.66425 -13.3088 -1.40437 15
266 2 -5.25816 -1.48092 0.562262 14
267 2 -9.35627 -9.6422 -12.9624 13
268 2 -8.17172 -0.048144 -0.350373 10
269 2 -9.89301 -8.88744 -1.86079 9
270 2 -2.55179 -14.978 -11.3354 11
271 2 -3.1348 1.47065 -14.4896 14
272 2 3.84598 -0.251821 -13.1398 13
273 2 3.19243 -12.1179 -13.1876 11
274 2 7.4223 -6.7882 0.10352 13
275 2 7.11198 -0.0428433 1.49896 8
276 2 -1.34307 0.065655 -13.0742 21
277 2 -4.29366 -7.43493 -15.7667 18
278 2 -5.6417 3.61187 -2.96518 14
279 2 -6.25598 0.432389 -13.3493 15
280 2 -9.58103 -3.10964 -10.4491 15
281 2 -5.75169 1.56477 -0.44886 12
282 2 8.04975 -7.88249 -12.5029 12
283 2 -9.97428 0.0263086 -8.82403 11
284 2 -3.72659 -1.40602 -16.2771 18
285 2 4.20544 -10.8632 0.674313 16
286 2 -7.3994 -7.61138 -1.38875 19
287 2 -3.07893 -10.065 -1.26888 23
288 2 6.01238 -12.5704 -0.27512 11
289 2 -9.74048 -7.92709 -6.41671 14
290 2 -6.04539 -5.09963 0.40686 14
291 2 -4.3779 -15.4474 -3.8379 12
292 2 7.57013 -4.21234 -4.42937 21
293 2 3.81736 -13.2247 -7.76693 17
294 2 -5.42157 3.70742 -6.43931 15
295 2 -7.70711 -4.47982 -16.253 11
296 2 -3.66911 -9.87833 2.31058 13
297 2 1.90197 -9.70515 2.14498 13
298 2 4.4856 -3.58933 -14.162 16
299 2 7.63117 1.05059 -1.57935 13
300 2 8.87201 -4.68893 -1.52154 12
301 2 9.73764 -7.86416 -8.29544 12
302 2 7.79665 -10.6066 -7.51512 19
303 2 6.62088 -2.2159 -12.4291 13
304 2 -9.75765 -8.18078 -9.65459 14
305 2 8.28165 -9.99986 -4.16278 14
306 2 1.27927 1.11186 -11.3563 19
307 2 9.44004 -6.06229 -10.4203 13
308 2 3.63343 -0.165309 -9.74538 18
309 2 10.4942 -9.88105 -6.19473 7
310 2 6.72384 -13.3546 -5.95388 11
311 2 -6.76311 -11.5463 -12.9022 14
312 2 0.656938 3.36533 -6.10971 16
313 2 2.43138 1.90822 -1.27066 15
314 2 -2.92984 -15.979 -6.58316 11
315 2 -2.13955 -8.29462 4.46526 6
316 2 7.08347 -2.08525 -2.41124 17
317 2 7.93139 -3.68917 -9.94732 14
318 2 -9.18571 -3.25466 -13.6712 14
319 2 -7.52457 -14.0423 -10.5302 10
320 2 6.64567 -13.1939 -8.96563 12
321 1 -6.44992 -7.47199 -9.76762 20
322 1 -6.98723 -10.2668 -7.57644 22
323 1 -0.647225 -13.2601 -8.97361 20
324 1 -3.77731 -13.8634 -6.92392 17
325 1 -0.593025 -7.54168 -12.7034 21
326 1 -3.28099 -8.49542 -11.1781 21
327 1 -1.16045 -10.87 -11.1289 18
328 1 -4.25865 -10.8507 -9.5115 16
329 1 -0.998508 -7.60541 -9.38417 22
330 1 -3.70099 -8.08064 -7.75405 19
331 1 -1.56588 -10.5202 -7.69597 20
332 2 -7.11934 -8.20363 -11.6758 21
333 2 -6.13783 -11.2398 -9.15038 23
334 2 -7.24164 -8.31633 -8.11792 23
335 2 -1.66542 -13.8088 -7.14304 18
336 2 -1.51974 -8.69846 -14.2365 19
337 2 -4.21452 -7.61487 -12.7792 20
338 2 -0.918864 -11.8434 -12.7671 13
339 2 -3.27408 -10.3661 -11.0895 18
340 2 -1.19877 -8.47151 -11.1176 21
341 2 -4.47046 -7.80798 -9.44511 20
342 2 -0.560803 -11.2647 -9.12125 21
343 2 -3.58468 -10.162 -7.78484 19
344 2 -1.68879 -8.60491 -7.50259 23
345 1 -6.37394 -7.23181 -6.614 21
346 1 -6.69096 -9.64513 -4.32866 21
347 1 -6.31461 -7.37512 -2.98633 21
348 1 -0.676676 -12.7297 -5.80952 22
349 1 -0.756174 -12.9197 -2.57743 20
350 1 -4.15955 -10.9294 -5.94811 22
351 1 -0.809552 -7.5289 -6.10899 22
352 1 -3.83533 -8.07914 -4.46779 23
353 1 -1.2844 -9.89142 -4.24446 19
354 1 -4.17371 -10.8752 -2.70035 22
355 1 -1.25262 -6.97128 -2.59502 20
356 1 -3.83558 -8.20864 -1.2915 21
357 1 -0.85823 -9.75475 -0.827312 18
358 1 -1.42138 -6.50619 0.673413 19
359 2 -6.20842 -10.8249 -5.71996 19
360 2 -7.09999 -7.76838 -4.85674 20
361 2 -4.02592 -12.6445 -5.46045 19
362 2 -2.05625 -14.372 -3.31832 16
363 2 -4.3662 -7.03828 -6.29292 21
364 2 -0.702686 -10.8757 -5.84414 20
365 2 -3.30687 -10.1677 -4.46969 23
366 2 -1.54198 -7.92403 -4.18905 20
367 2 -4.31938 -7.02256 -2.76794 22
368 2 -0.834602 -10.8792 -2.50939 20
369 2 -4.67475 -12.6449 -2.28737 21
370 2 -1.68779 -7.95082 -0.589764 18
371 2 -4.92382 -8.00079 0.198771 18
372 1 -8.6687 -5.30457 -13.3597 17
373 1 -6.34265 -1.48095 -9.91549 20
374 1 -7.30173 -4.73879 -8.33166 21
375 1 -0.357752 -4.99146 -14.7242 24
376 1 -6.5984 -4.52082 -11.5507 20
377 1 -0.472386 -1.95651 -12.8598 23
378 1 -3.50101 -2.53763 -11.2736 21
379 1 -1.39227 -4.89911 -11.4877 19
380 1 -4.00683 -5.08218 -9.67726 20
381 1 -1.0113 -1.83649 -9.25508 20
382 1 -3.69197 -2.51564 -8.01741 22
383 1 -1.2309 -4.42248 -7.7452 20
384 1 -4.12182 0.35978 -9.71088 20
385 1 -1.71079 1.3919 -7.87835 24
386 2 -6.07406 -5.39362 -9.69793 19
387 2 -7.19797 -2.50132 -8.39067 19
388 2 -1.11247 -5.79436 -13.1771 24
389 2 -3.5324 -4.90216 -11.6702 20
390 2 -1.58953 -2.93805 -11.0833 22
391 2 -4.26667 -1.74668 -9.82636 22
392 2 -0.698853 -5.37985 -9.39077 21
393 2 -3.48512 -4.73244 -7.97906 19
394 2 -1.68635 -2.47389 -7.68479 21
395 2 -0.956583 0.100563 -9.15787 24
396 2 -3.60419 1.25168 -7.90928 18
397 1 -7.04333 -1.91187 -6.54032 21
398 1 -6.8113 -4.48306 -4.75327 22
399 1 -6.38313 -1.9414 -2.97222 23
400 1 -3.83466 -5.2783 -6.19254 20
401 1 -1.42843 -1.54429 -5.96473 22
402 1 -3.90895 -2.47761 -4.73028 22
403 1 -1.59996 -4.27409 -4.34495 21
404 1 -4.61428 -4.75373 -2.83767 21
405 1 -0.787692 -1.34188 -2.68234 21
406 1 -3.49492 -1.90686 -1.32157 19
407 1 -1.51206 -3.95418 -1.06728 20
408 1 -4.19537 -4.95847 1.21615 15
409 1 -4.03507 0.247931 -6.52876 21
410 1 -0.748739 1.26018 -4.17927 20
411 2 -6.45341 -5.04728 -6.4623 20
412 2 -6.01619 -2.50992 -4.85846 23
413 2 -6.50403 -5.29465 -2.87074 20
414 2 -3.18906 -1.56542 -6.42471 25
415 2 -0.827265 -5.25189 -6.0336 21
416 2 -3.66816 -4.34276 -4.5253 21
417 2 -1.03341 -2.49665 -4.19226 22
418 2 -4.4367 -1.55994 -2.90887 19
419 2 -0.831936 -5.02079 -2.70012 21
420 2 -3.90674 -3.98397 -1.06825 22
421 2 -1.60681 -2.02306 -1.20486 22
422 2 -0.919911 -4.67201 0.596704 21
423 2 -1.0558 0.462761 -6.24049 23
424 2 -4.72753 0.957064 -4.74274 20
425 2 -1.8181 -0.0368901 -3.5246 22
426 1 1.97494 -14.0151 -7.45896 16
427 1 1.68749 -12.1032 -12.0588 14
428 1 2.08953 -8.19082 -10.9445 22
429 1 4.06843 -10.4884 -11.1016 21
430 1 1.32906 -10.7139 -9.22161 22
431 1 4.97405 -7.59436 -9.32636 20
432 1 1.98049 -7.91046 -7.56387 21
433 1 4.09052 -10.1152 -7.74312 21
434 2 0.634329 -14.7576 -8.4341 14
435 2 3.97443 -6.07243 -13.0078 20
436 2 2.04374 -10.3448 -10.999 19
437 2 4.12582 -8.36636 -11.1818 21
438 2 1.06974 -7.56716 -9.11582 21
439 2 5.06877 -10.6813 -9.30596 21
440 2 1.99002 -10.1245 -7.62108 20
441 2 3.92385 -8.11592 -7.9172 24
442 2 6.81849 -7.81651 -9.90914 20
443 1 1.28503 -10.6351 -5.98704 21
444 1 4.98034 -7.14313 -6.33134 22
445 1 2.17859 -7.8939 -4.04278 21
446 1 3.95908 -10.1346 -4.36705 20
447 1 1.40976 -11.3011 -2.20077 24
448 1 4.93115 -7.00569 -2.70064 22
449 1 1.91388 -7.78542 -1.14214 18
450 1 3.849 -9.95104 -1.0735 22
451 2 1.1441 -13.0568 -6.10731 17
452 2 1.11885 -13.0682 -2.8017 16
453 2 1.35551 -7.43002 -5.78338 20
454 2 4.95467 -10.7509 -6.0132 20
455 2 2.09907 -9.97915 -4.35154 23
456 2 3.95238 -6.99342 -4.65977 22
457 2 1.14656 -7.07017 -2.62883 19
458 2 5.06821 -10.5611 -2.83501 21
459 2 1.9327 -9.7651 -1.45745 20
460 2 4.23156 -7.84929 -1.08644 21
461 2 -2.66466 -13.8521 -0.177623 12
462 2 7.09792 -5.79287 -7.402 20
463 1 1.82231 -5.8267 -12.9496 21
464 1 2.04349 -2.80486 -11.1805 23
465 1 4.05804 -5.00033 -11.3346 20
466 1 1.29667 -5.5179 -9.43266 19
467 1 4.5931 -1.9558 -9.70297 22
468 1 1.72927 -2.54146 -7.64679 21
469 1 4.01018 -4.56557 -7.75366 21
470 1 1.25377 -0.258094 -9.62959 20
471 1 6.25501 -4.9541 -9.06079 20
472 2 1.41661 -1.99552 -12.7548 21
473 2 2.07397 -4.77655 -11.267 19
474 2 4.12473 -2.79388 -11.4181 20
475 2 1.11967 -2.13353 -9.39716 23
476 2 4.42037 -5.72891 -9.232 21
477 2 2.1895 -4.60119 -7.50546 22
478 2 4.0008 -2.41781 -7.8451 21
479 2 1.59511 1.05122 -7.94968 18
480 1 1.10887 -5.45409 -6.01211 21
481 1 3.85058 -1.59473 -5.9478 21
482 1 1.08901 -2.39337 -4.46544 23
483 1 3.68051 -4.60004 -4.61814 23
484 1 1.02474 -5.16621 -2.74766 23
485 1 5.25458 -1.43727 -2.88594 21
486 1 1.94713 -2.12978 -1.16264 20
487 1 4.06963 -4.15077 -0.92258 22
488 1 1.29144 -4.81846 0.64937 20
489 1 0.979479 0.252943 -6.19018 22
490 1 2.39684 0.190202 -3.0574 22
491 1 6.63501 -4.45062 -6.11603 19
492 2 1.82371 -1.41413 -6.12056 21
493 2 4.91956 -5.05959 -5.95027 20
494 2 1.73284 -4.40565 -4.4875 22
495 2 4.70558 -2.93352 -4.4425 19
496 2 1.12486 -1.46725 -2.77496 20
497 2 4.67099 -5.1145 -2.38282 19
498 2 1.76114 -4.14511 -1.14528 22
499 2 3.9423 -2.15472 -1.29355 18
500 2 1.56982 0.912454 -4.54359 22
