ITEM: TIMESTEP
38000
ITEM: NUMBER OF ATOMS
500
ITEM: BOX BOUNDS pp pp pp
-30.0 30.0
-30.0 30.0
-30.0 30.0
ITEM: ATOMS id type x y z Coordination
1 1 11.7828 -10.3413 -3.67086 12
2 1 3.16033 -0.464123 -1.29296 13
3 1 -1.81746 -3.51814 -6.10908 23
4 1 1.94947 -5.97166 -19.8947 16
5 1 -3.60418 -6.26489 -11.3601 16
6 1 4.86956 -4.33625 -21.4376 8
7 1 13.9611 -13.3387 -15.2658 6
8 1 6.36475 -1.72776 -3.55154 22
9 1 6.79847 -0.694043 -16.9529 23
10 1 6.72906 -0.00404017 -1.26922 12
11 1 -3.24212 -8.60464 -9.23575 17
12 1 15.4454 -8.02832 -15.4659 9
13 1 6.88683 -5.79138 -1.52476 14
14 1 -3.04922 -11.1865 -10.2846 14
15 1 1.57722 -11.8496 -18.0441 13
16 1 11.9139 -3.35462 -16.4636 20
17 1 11.7344 -8.8812 -6.53724 17
18 1 4.79495 2.98869 -6.57223 15
19 1 3.08932 3.2832 -9.40877 15
20 1 4.98142 -12.3581 -18.642 12
21 1 2.98555 -2.17849 -3.70698 21
22 1 13.7035 -7.8302 -4.4853 8
23 1 -0.976642 2.52962 -5.70194 11
24 1 7.87276 0.0287615 -19.6672 13
25 1 13.9159 1.75389 -13.5348 9
26 1 5.18685 4.12693 -17.444 8
27 1 -2.07996 -1.8533 -19.0606 8
28 1 3.38054 3.41519 -14.8906 12
29 1 4.66409 2.37555 -11.9197 19
30 1 -3.35399 -2.53492 -9.10492 17
31 1 4.58503 1.04967 -3.41676 17
32 1 0.446417 -3.1347 -20.4235 12
33 1 0.0853015 -11.7967 -5.97056 19
34 1 10.7612 -11.3191 -11.7926 19
35 1 -1.38722 -9.19142 -5.81142 21
36 1 -1.79554 -5.73593 -14.4076 18
37 1 5.0106 -14.2101 -6.04707 16
38 1 9.82764 -2.35663 -20.9195 9
39 1 -0.00736783 -13.2705 -15.1739 12
40 1 4.87053 -0.584451 -20.6469 13
41 1 6.44456 3.31143 -9.22005 18
42 1 -4.7916 -5.7584 -4.4443 13
43 1 7.00714 2.17204 -3.64794 16
44 1 8.60875 -4.75367 -3.72845 19
45 1 11.3335 -13.7692 -13.154 13
46 1 12.2842 -1.1144 -18.745 11
47 1 1.35435 -14.6028 -6.72037 11
48 1 10.8078 -9.09768 -0.840885 7
49 1 5.43466 -10.788 -3.45904 21
50 1 11.501 3.16011 -12.3175 12
51 1 -0.723624 -13.1887 -8.77619 14
52 1 6.09755 -13.4194 -9.26351 21
53 1 1.30797 -5.37809 -3.69116 21
54 1 -1.87942 -5.46532 -3.29255 18
55 1 7.38795 -16.2535 -10.3496 15
56 1 -5.02046 -8.41528 -6.52946 10
57 1 1.19103 0.388177 -3.8006 16
58 1 -3.43167 -0.254729 -6.7068 11
59 1 -0.588515 -0.681218 -1.39277 9
60 1 -0.945861 -10.8363 -16.3755 14
61 1 -3.3589 -2.7561 -15.5842 10
62 1 0.175285 -8.9764 -18.7966 14
63 1 10.5277 -5.48845 -1.6921 12
64 1 5.2646 -9.15056 -0.820036 12
65 1 -1.0266 -5.68917 -19.7961 12
66 1 -5.16946 -9.34896 -12.011 9
67 1 4.28582 -15.5684 -8.89843 11
68 1 -0.0649169 -0.45737 -6.35843 20
69 1 6.4746 -12.9175 -16.1284 17
70 1 9.15295 4.92855 -4.00605 9
71 1 -3.54257 -1.15757 -12.5096 11
72 1 0.0235589 0.182207 -16.9717 15
73 1 5.20533 -15.8187 -14.7475 9
74 1 10.0102 -11.9907 -6.21956 16
75 1 -1.80847 0.0229632 -14.3966 15
76 1 0.0702034 -6.15373 -0.803383 12
77 1 -3.53654 -2.31751 -3.82497 12
78 1 8.87173 -11.9136 -18.1214 10
79 1 3.51238 -11.8605 -0.925783 9
80 1 11.5813 -11.5533 -15.4889 15
81 1 13.4162 -1.92926 -8.68359 15
82 1 8.32499 -5.59632 -19.1692 16
83 1 7.97634 -14.2349 -7.26461 15
84 1 2.04291 -13.6363 -9.92241 14
85 1 -1.83734 -11.8537 -3.51975 10
86 1 11.6725 -2.49222 -2.57961 13
87 1 14.0677 1.06284 -7.6727 11
88 1 6.82272 -3.14995 -19.6693 20
89 1 4.98052 1.57731 -18.3853 16
90 1 7.24725 5.04892 -6.23677 12
91 1 11.1681 -4.23936 -19.2925 15
92 1 9.37829 -13.3035 -10.135 20
93 1 11.3824 -10.4601 -8.93294 18
94 1 6.76295 -11.6159 -5.88847 22
95 1 -2.26783 -4.43299 -17.4514 12
96 1 13.5586 -5.46773 -10.6621 16
97 1 1.81877 2.57898 -17.1773 13
98 1 10.2561 -14.1044 -15.6477 13
99 1 -3.44381 -8.54447 -3.40616 11
100 1 8.60012 -16.1809 -13.4213 11
101 1 9.64996 -9.08771 -16.9577 15
102 1 10.5605 -16.8512 -10.6566 8
103 1 7.82119 -13.5347 -13.1392 22
104 1 3.40193 -6.09661 -1.47255 16
105 1 1.63152 -3.23806 -0.692885 15
106 1 10.2452 -5.88013 -16.5486 20
107 1 -1.81227 2.26707 -11.9604 14
108 1 8.13051 2.52719 -12.0057 19
109 1 13.3386 -1.96401 -14.5314 18
110 1 3.42672 -2.83576 -19.4433 20
111 1 -5.09779 -2.93922 -6.29222 12
112 1 7.06262 -7.83755 -3.48207 21
113 1 -2.00421 -7.67765 -17.0587 15
114 1 13.6016 -7.86852 -8.4971 13
115 1 8.59408 -2.70939 -1.94769 14
116 1 7.13479 -13.7927 -3.60681 9
117 1 14.1006 -0.973439 -5.07405 10
118 1 11.9206 1.59362 -5.00882 12
119 1 3.53104 -13.3013 -15.7714 15
120 1 9.00915 -0.0609161 -3.4276 18
121 1 3.27062 -0.732661 -17.0188 21
122 1 2.29159 -14.4269 -13.1004 15
123 1 11.6126 0.706675 -9.85553 17
124 1 -1.84966 0.627747 -9.0352 16
125 1 11.4901 0.451379 -13.8775 21
126 1 5.11416 -3.14462 -1.42384 17
127 1 5.21863 -6.26843 -19.1376 19
128 1 13.6298 -10.1502 -13.5377 14
129 1 9.82938 6.27958 -6.79379 8
130 1 1.69705 2.69902 -6.28456 16
131 1 12.4659 -8.29861 -16.8171 13
132 1 8.71927 -10.8564 -3.37356 15
133 1 -1.91518 -3.17814 -0.949554 10
134 1 10.3702 -7.78597 -3.66155 19
135 1 6.71576 3.66457 -14.4164 13
136 1 13.6446 -0.605767 -11.3788 15
137 1 1.87813 -8.79405 -0.752827 13
138 1 3.44432 -8.16909 -3.81491 23
139 1 -0.0517505 3.36264 -9.10268 15
140 1 12.5158 3.64806 -6.95014 12
141 1 -3.18751 -11.4951 -7.07837 15
142 1 13.4034 -5.74235 -6.60149 13
143 1 -0.0827071 -12.0577 -11.9708 20
144 1 11.8964 -2.79382 -6.06056 17
145 1 15.9632 -4.6827 -15.7738 11
146 1 9.80846 3.39608 -9.18308 18
147 1 -3.89149 -8.42566 -14.1266 11
148 1 8.20581 1.98292 -17.2425 19
149 1 0.42199 -6.13959 -16.9307 21
150 1 7.00468 -9.47585 -19.2277 12
151 1 5.16249 -14.4827 -11.8632 17
152 1 3.56458 -13.7217 -3.68781 12
153 1 14.6501 -6.75962 -13.2684 12
154 1 -3.73421 -5.75914 -7.53423 16
155 1 1.48534 -0.0191037 -19.2487 13
156 1 -1.97421 -11.0468 -13.7595 15
157 1 13.4056 -4.41419 -3.3421 11
158 1 3.38519 -9.44662 -19.0154 14
159 1 -0.115045 -2.7134 -3.71523 21
160 1 0.015469 -8.44341 -3.43625 20
161 1 13.1398 3.08332 -10.154 12
162 1 14.7986 -3.52423 -13.0099 15
163 1 1.48176 -11.0573 -3.04213 19
164 1 10.1288 -0.69184 -17.066 20
165 1 11.8681 2.36415 -16.9353 8
166 1 9.78907 0.202105 -6.23623 17
167 1 9.60274 3.63919 -14.9528 11
168 1 15.0113 -2.47317 -17.1769 9
169 1 13.7326 -5.71136 -17.9141 12
170 1 8.89197 2.81663 -6.38456 21
171 1 1.44523 2.48614 -12.1606 16
172 1 3.23874 -11.7619 -5.85967 21
173 1 11.5688 -14.6354 -7.86366 9
174 1 -1.31069 -8.95501 -11.4113 23
175 1 -0.307989 3.20803 -14.9026 11
176 2 -4.11857 -8.99483 -5.01085 11
177 2 13.5241 0.983666 -5.77573 11
178 2 -3.37422 -6.57604 -9.45933 17
179 2 3.02247 -13.8846 -5.67286 14
180 2 5.04676 -5.17784 -1.69878 15
181 2 0.0413206 -1.00737 -4.60097 19
182 2 13.9655 -11.5907 -14.7505 10
183 2 1.52874 -2.9136 -18.9038 20
184 2 6.90566 -12.4349 -18.0853 12
185 2 0.718405 2.25408 -4.74067 11
186 2 13.5553 -7.78549 -6.51897 11
187 2 11.1979 2.83558 -10.3129 16
188 2 5.68308 2.52278 -5.0184 14
189 2 9.66785 3.52999 -12.726 13
190 2 8.34967 0.00414256 -17.7015 18
191 2 12.1039 -4.85357 -17.5447 19
192 2 -1.39079 -3.87133 -19.2375 13
193 2 5.30046 -14.3875 -4.06792 11
194 2 -1.80709 -5.3963 -6.98634 21
195 2 11.975 -13.5557 -14.9264 10
196 2 5.63185 -15.6926 -10.2632 12
197 2 5.92338 -0.150282 -4.23299 20
198 2 6.34341 -7.74876 -1.35235 14
199 2 0.011439 -13.201 -7.12704 14
200 2 8.30706 -14.4637 -8.98661 18
201 2 -2.2882 -12.1232 -8.7966 13
202 2 6.89821 -13.412 -11.2543 22
203 2 3.31233 -13.7504 -11.4706 16
204 2 3.17672 2.77907 -7.55819 17
205 2 10.1987 -2.80152 -17.2166 21
206 2 11.6011 -0.0388165 -11.8392 21
207 2 5.98072 0.62545 -19.777 13
208 2 13.2009 -1.68464 -6.86927 14
209 2 9.17206 4.49591 -7.58967 15
210 2 -3.45459 -0.573158 -8.73556 13
211 2 6.32905 3.02247 -12.6291 15
212 2 9.97437 3.175 -16.939 10
213 2 3.05578 -0.134012 -4.24471 22
214 2 5.29956 -8.8875 -4.23529 24
215 2 8.70442 -9.8935 -18.4027 9
216 2 7.22281 -12.1651 -14.4147 19
217 2 3.18065 -12.6598 -17.4718 15
218 2 -1.66779 -10.7798 -11.6617 19
219 2 16.1361 -6.33044 -14.6525 10
220 2 11.6263 5.31703 -6.93028 9
221 2 3.7942 -8.64264 -17.215 18
222 2 6.56827 -4.88869 -20.3224 15
223 2 1.82102 -13.1791 -14.665 16
224 2 9.98468 -12.6393 -16.7624 13
225 2 13.2705 -1.85271 -17.1704 15
226 2 -1.86477 -11.5933 -5.57701 13
227 2 5.2649 -10.3402 -19.3584 10
228 2 5.08888 -14.3045 -15.8485 15
229 2 3.86583 -5.31794 -20.0808 17
230 2 1.58216 0.0967382 -7.51628 25
231 2 0.202191 -13.1384 -10.44 15
232 2 -1.43305 2.29147 -10.1113 13
233 2 -1.79969 -9.76384 -3.84103 15
234 2 -4.0816 -7.79532 -12.4148 12
235 2 8.46233 -10.9086 -6.5962 23
236 2 13.7698 -5.07726 -13.3227 15
237 2 8.08045 1.20491 -6.95131 23
238 2 0.454821 -7.83565 -1.50105 15
239 2 -4.03323 -1.34993 -5.44461 11
240 2 -2.98356 -7.19286 -15.3253 14
241 2 13.5296 2.51064 -11.8251 12
242 2 -4.77762 -6.56638 -6.13987 12
243 2 3.59558 2.79732 -17.6118 12
244 2 9.49806 -4.4145 -20.0294 13
245 2 -3.40411 -2.79456 -11.5518 12
246 2 11.5679 -9.87164 -16.2938 16
247 2 10.4651 -13.7493 -11.4778 16
248 2 0.0181422 3.00504 -7.37283 13
249 2 8.86975 -16.5911 -11.3735 12
250 2 7.82484 1.03486 -2.48772 14
251 2 3.12159 2.8832 -12.9381 17
252 2 -0.0739559 -11.9862 -3.59921 12
253 2 3.05597 -0.433242 -19.9761 13
254 2 15.0574 -4.33732 -17.449 9
255 2 4.8531 -3.12272 -3.79267 18
256 2 13.3169 2.70349 -8.43147 12
257 2 10.4495 0.401212 -4.56231 17
258 2 -4.32529 -9.81794 -10.3421 13
259 2 4.81661 0.476482 -1.47123 13
260 2 10.6958 -7.50994 -1.73458 12
261 2 4.94458 -2.6069 -20.6984 14
262 2 3.21629 -2.34519 -1.72385 18
263 2 10.6941 -11.5477 -4.51357 13
264 2 -1.71951 -4.18724 -15.485 17
265 2 -0.0725691 -0.871331 -15.2677 18
266 2 -2.89379 -2.56653 -17.4013 10
267 2 1.72581 -9.06671 -3.98001 22
268 2 8.6894 5.95674 -5.29271 8
269 2 0.251748 -12.2574 -16.7719 13
270 2 13.3948 -5.95991 -8.82442 13
271 2 -0.328619 3.13496 -12.8889 13
272 2 13.8016 -7.09063 -11.5941 15
273 2 1.73638 -10.7622 -6.89869 23
274 2 -0.881751 -12.7878 -13.6145 13
275 2 5.09494 3.76823 -15.6349 14
276 2 -1.70534 0.847716 -6.48551 16
277 2 4.97896 -10.9212 -1.57789 13
278 2 -4.55329 -3.83184 -4.23202 12
279 2 1.21477 -0.177274 -1.82919 14
280 2 -1.97421 0.287538 -12.3808 15
281 2 11.414 2.48196 -14.1134 15
282 2 -0.00871689 -2.49766 -0.521461 11
283 2 3.63128 -8.22912 -1.47229 17
284 2 0.392586 -7.21877 -19.5358 13
285 2 5.08124 0.155035 -16.8062 19
286 2 4.71407 -11.6693 -15.4312 16
287 2 9.89603 -6.03771 -3.96954 20
288 2 13.5377 -0.207102 -9.36277 15
289 2 9.91275 -13.8016 -7.0332 12
290 2 11.9812 -3.21622 -14.3274 20
291 2 6.67107 -1.80125 -1.60035 17
292 2 1.75695 -5.22509 -1.17144 16
293 2 -0.523753 -10.0251 -14.6548 20
294 2 4.9134 2.47884 -9.90279 19
295 2 -2.02327 -3.88218 -4.21211 19
296 2 -3.60715 -9.73017 -7.4683 13
297 2 2.46023 -15.0393 -8.42341 12
298 2 8.64733 -4.79362 -1.78601 17
299 2 1.81756 0.562417 -17.2994 16
300 2 11.69 0.500059 -17.6517 11
301 2 9.36323 -14.6692 -14.0088 14
302 2 11.9385 -8.74282 -4.51176 17
303 2 9.95165 -1.38201 -2.15988 13
304 2 6.48281 2.68511 -17.5142 13
305 2 1.49335 -10.1505 -18.7878 10
306 2 6.17472 4.06484 -7.53413 14
307 2 1.5198 3.0972 -15.5285 12
308 2 -3.17854 -1.34742 -14.4034 13
309 2 -1.94847 -1.96551 -2.43053 13
310 2 8.23119 -1.79696 -20.4083 16
311 2 10.7231 -7.62658 -17.3461 13
312 2 -1.15621 1.57078 -15.6066 13
313 2 -0.389478 -0.638397 -18.8161 11
314 2 10.2513 -10.2669 -2.34137 9
315 2 -1.48234 -5.10836 -1.36873 13
316 2 -3.31415 -6.56156 -3.41405 11
317 2 7.05685 -11.6697 -3.91108 18
318 2 -4.03488 -3.82098 -7.70731 15
319 2 1.96744 -10.6049 -0.844441 11
320 2 6.91558 -13.4274 -5.65773 17
321 2 11.8728 -4.29456 -2.17884 11
322 2 10.5451 -11.6521 -13.8035 18
323 2 1.54299 2.81369 -10.2318 18
324 2 -1.33212 -6.06102 -17.8057 16
325 2 -0.0551625 -6.66837 -4.23285 23
326 2 8.51204 -8.76292 -4.1203 21
327 2 11.3667 -2.3478 -19.7525 11
328 2 10.8637 2.43224 -6.30732 14
329 2 13.3659 -5.96515 -4.20959 14
330 2 14.1152 -7.21374 -16.7181 11
331 2 11.2766 -10.6343 -7.01998 16
332 2 13.6243 -0.0301874 -13.9576 13
333 2 -3.65085 -10.341 -13.6223 12
334 2 -1.39943 -9.03525 -9.56852 20
335 2 10.259 -11.6056 -9.70611 19
336 2 8.36564 2.30376 -14.961 17
337 2 13.8046 -2.49923 -11.8789 16
338 2 10.0144 -0.5521 -14.8366 23
339 2 14.11 -8.45785 -14.1059 13
340 2 11.189 -15.9331 -9.22052 8
341 2 6.71297 -15.7269 -13.641 13
342 2 8.06231 2.60769 -9.93991 18
343 2 8.59706 3.19007 -4.2329 15
344 2 5.61311 -14.5714 -7.78963 15
345 2 3.29102 -11.7974 -3.60343 18
346 2 13.0254 -2.53685 -4.20651 12
347 2 15.0751 -2.97532 -14.9115 13
348 2 0.622677 -4.86792 -21.1364 9
349 2 3.92382 -15.1646 -13.4272 9
350 2 12.3227 -9.99703 -12.194 15
351 1 1.61193 -11.1866 -14.2114 20
352 1 0.255094 -8.40196 -14.068 22
353 1 3.46632 -6.64977 -16.8645 21
354 1 4.89102 -9.85488 -16.2995 19
355 1 5.65119 -11.2562 -13.9252 19
356 1 3.63398 -8.47796 -13.8635 21
357 2 1.91451 -11.161 -12.1508 22
358 2 0.279522 -8.32293 -12.1937 23
359 2 0.201199 -6.33473 -14.8946 20
360 2 1.98269 -9.24609 -14.5854 18
361 2 -1.38446 -9.3662 -17.312 13
362 2 5.373 -10.9936 -11.9453 24
363 2 3.42434 -8.17432 -11.7671 22
364 2 3.60302 -6.52489 -14.8233 24
365 2 5.58088 -9.07938 -14.6739 19
366 1 0.0284879 -6.37432 -11.5767 22
367 1 1.89548 -9.24078 -11.4179 23
368 1 1.81652 -10.6857 -8.75474 22
369 1 0.190446 -8.08766 -8.77992 22
370 1 -0.248607 -6.33343 -6.30247 21
371 1 1.75675 -8.89803 -5.97315 22
372 1 3.681 -11.6999 -11.2878 22
373 1 3.40579 -6.23919 -11.1583 25
374 1 5.47253 -8.94078 -11.13 24
375 1 5.02303 -10.7098 -8.50738 23
376 1 3.44065 -7.74313 -8.50577 25
377 1 3.18165 -6.01143 -5.94725 24
378 1 5.10427 -8.94601 -6.24912 20
379 2 0.130653 -8.3851 -6.78004 21
380 2 0.0407248 -6.24972 -9.70793 24
381 2 1.90995 -8.8771 -9.34232 23
382 2 3.23989 -11.7386 -9.51711 19
383 2 4.78408 -10.8114 -6.6425 22
384 2 3.21921 -7.89876 -6.5 24
385 2 3.37901 -5.99035 -8.95824 19
386 2 4.93729 -8.65059 -9.20862 23
387 2 3.21075 -6.17286 -3.94669 19
388 1 1.89025 -3.76008 -17.2896 20
389 1 1.97485 -5.45692 -14.127 23
390 1 -0.242445 -2.85146 -14.6435 21
391 1 1.56268 -0.110998 -14.2994 22
392 1 5.22875 -3.77746 -16.9799 24
393 1 5.25056 -5.58005 -14.0736 21
394 1 3.69198 -2.62728 -14.2435 21
395 1 4.9161 -0.13391 -14.6497 17
396 2 -1.92384 -5.4534 -12.4821 20
397 2 1.94711 -5.71488 -17.8101 22
398 2 1.57392 -5.14997 -12.077 21
399 2 -0.496884 -2.27072 -12.7161 21
400 2 1.67795 -3.62438 -15.0134 21
401 2 1.36275 0.115453 -12.4133 19
402 2 5.17347 -5.6683 -17.359 21
403 2 3.82177 -2.51672 -17.3115 22
404 2 5.03741 -5.50081 -11.6919 21
405 2 3.23464 -2.53181 -11.8532 21
406 2 3.18018 -0.807391 -15.0159 17
407 2 5.30585 -3.52913 -14.698 23
408 2 4.73351 0.231546 -12.6366 20
409 1 -1.83887 -3.57694 -11.9227 19
410 1 -1.64106 -5.5032 -9.28223 21
411 1 -0.281874 -0.654982 -11.7347 25
412 1 1.41226 -3.40319 -11.606 22
413 1 1.65787 -5.23171 -8.56447 24
414 1 -0.258169 -2.4157 -8.97879 22
415 1 1.60375 -3.3543 -6.3683 20
416 1 1.31969 0.685247 -9.3211 20
417 1 3.12499 -0.399805 -11.6352 22
418 1 4.97203 -3.5059 -11.7421 20
419 1 4.94324 -4.86207 -8.26739 24
420 1 3.09819 -2.21922 -9.07838 22
421 1 3.19521 -0.447965 -6.38169 20
422 1 4.90858 -3.06456 -6.07522 23
423 1 4.74339 -5.0713 -3.76453 22
424 1 4.86154 0.693607 -8.91517 22
425 2 -1.76118 -3.627 -9.90139 21
426 2 1.58196 -5.31015 -6.64927 22
427 2 -0.304656 -2.74504 -7.10748 22
428 2 -0.28929 -0.432184 -9.4385 21
429 2 1.49466 -3.31185 -9.49721 24
430 2 5.00099 -5.1095 -6.30443 20
431 2 3.25269 -2.36721 -6.82621 21
432 2 2.99562 -0.5033 -9.78918 24
433 2 4.90783 -3.36238 -9.82347 23
434 2 1.58492 -3.64949 -4.37167 21
435 2 4.95615 0.716149 -6.95168 22
436 1 6.89442 -6.36774 -16.8893 21
437 1 8.85655 -10.9331 -14.0054 20
438 1 6.9155 -8.14936 -13.8966 19
439 1 10.3929 -8.01414 -13.6036 24
440 2 6.40151 -7.80714 -18.7826 15
441 2 8.7805 -11.0627 -11.672 23
442 2 7.09126 -8.00038 -11.6589 22
443 2 6.96352 -6.40261 -14.8472 20
444 2 8.70765 -8.96175 -13.9293 17
445 2 10.3365 -7.81001 -11.494 20
446 2 10.5112 -5.96768 -14.5256 20
447 1 6.85148 -11.5419 -11.2102 22
448 1 6.79756 -5.9478 -11.1153 23
449 1 8.63337 -9.07022 -11.3048 23
450 1 8.45482 -10.8639 -8.75514 22
451 1 6.94352 -7.92496 -8.52071 21
452 1 6.72272 -5.95645 -6.06356 22
453 1 8.69565 -8.89315 -6.26071 23
454 1 9.96781 -5.87585 -11.3171 22
455 1 12.3172 -8.37533 -11.2175 18
456 1 10.2113 -7.88084 -8.81084 22
457 1 10.0319 -5.64614 -5.98971 21
458 2 6.7125 -11.2578 -9.23137 22
459 2 6.81304 -7.94235 -6.44102 21
460 2 6.75852 -6.19912 -8.99512 22
461 2 8.39417 -8.98343 -9.30493 22
462 2 6.78634 -5.87694 -3.71131 19
463 2 10.2679 -7.62248 -6.83736 24
464 2 9.92815 -5.88004 -9.20691 23
465 2 11.9666 -8.55841 -9.156 19
466 1 8.41837 -3.58058 -16.7429 25
467 1 8.4765 -5.39961 -14.0635 22
468 1 6.8553 -2.44672 -14.1148 22
469 1 8.41127 0.53652 -14.3959 22
470 1 11.8612 -4.95557 -13.7008 23
471 1 10.1301 -2.40886 -13.9564 23
472 2 8.50692 -5.45444 -17.2088 21
473 2 6.81423 -2.92336 -17.6799 23
474 2 8.35718 -5.02872 -12.1503 24
475 2 6.90717 -2.3095 -11.7187 20
476 2 7.05469 -0.704818 -14.6824 21
477 2 8.69106 -3.40324 -14.7585 23
478 2 8.34681 0.586994 -12.1591 22
479 2 11.6985 -4.87858 -10.9848 21
480 2 10.1202 -2.51605 -12.1561 22
481 1 6.65123 -0.202309 -11.7269 20
482 1 8.41243 -3.34255 -11.4334 22
483 1 8.46275 -4.84899 -8.53578 22
484 1 6.59093 -2.12268 -9.20548 19
485 1 6.5582 0.311089 -5.89135 22
486 1 8.28229 -2.71887 -6.17074 19
487 1 8.23572 0.741274 -9.06479 22
488 1 9.6645 -0.723237 -11.5981 20
489 1 11.7998 -3.08387 -11.2636 23
490 1 11.6944 -4.71238 -8.7654 21
491 1 9.87394 -1.90877 -8.72817 22
492 2 8.34681 -4.61961 -6.36237 20
493 2 6.54078 -2.62333 -7.12288 21
494 2 6.51565 -0.104646 -9.49049 22
495 2 8.46989 -3.16877 -9.58709 24
496 2 8.12917 -2.62298 -4.15456 20
497 2 11.4835 -4.59993 -6.77725 20
498 2 10.1298 -1.72525 -6.78484 20
499 2 9.99271 -0.179296 -9.51498 20
500 2 11.6928 -2.78791 -9.33115 23
