ITEM: TIMESTEP
1868000
ITEM: NUMBER OF ATOMS
1000
ITEM: BOX BOUNDS pp pp pp
-3.0000000000000000e+01 3.0000000000000000e+01
-3.0000000000000000e+01 3.0000000000000000e+01
-3.0000000000000000e+01 3.0000000000000000e+01
ITEM: ATOMS id type x y z 
1 1 -4.16824 -6.28736 -5.99437 
2 1 6.68937 -9.85255 6.71463 
3 1 -10.9468 7.85626 4.34134 
4 1 -9.49264 -0.40476 -10.4258 
5 1 2.50073 -6.83726 10.3848 
6 1 -5.18533 6.64653 -11.1777 
7 1 -2.44987 2.26483 -5.622 
8 1 -5.08096 -11.9778 2.79719 
9 1 7.07032 -2.50633 12.6676 
10 1 -0.608113 1.83865 10.189 
11 1 6.01536 0.898036 2.04942 
12 1 0.576556 12.6479 -6.8244 
13 1 1.82704 0.0236335 12.0781 
14 1 -9.67679 2.43574 -0.803616 
15 1 -2.10062 -1.30028 -8.46498 
16 1 3.97134 1.98528 10.5356 
17 1 3.33506 -2.39822 -7.44868 
18 1 1.63181 3.43273 12.0116 
19 1 -1.00707 -13.9967 7.27822 
20 1 -10.7614 1.53464 8.66088 
21 1 -11.7375 6.51484 -3.99501 
22 1 -7.80995 10.5952 -1.00972 
23 1 0.41472 -2.28324 -6.41157 
24 1 4.06058 -8.94008 -8.77089 
25 1 -0.330822 -1.69909 10.6018 
26 1 -13.4698 5.82752 2.97045 
27 1 -0.318157 11.7275 -0.999882 
28 1 0.00266586 -12.9437 4.08229 
29 1 10.8878 -9.44654 -3.43388 
30 1 5.6595 -0.430031 4.85567 
31 1 -8.82399 6.71214 -4.6054 
32 1 1.53352 6.17687 -5.82716 
33 1 0.131857 5.53104 3.25552 
34 1 4.89329 6.66292 6.96967 
35 1 -6.65924 -2.30451 1.5411 
36 1 6.38823 0.733 12.6148 
37 1 -11.4356 0.467119 0.974126 
38 1 9.96979 0.779591 8.72822 
39 1 7.95915 -1.58572 -3.54166 
40 1 5.42507 -0.118167 8.06891 
41 1 -8.86698 -3.8793 3.52914 
42 1 -3.70202 -10.5665 -8.48781 
43 1 -6.83041 8.68881 -2.83871 
44 1 -1.33645 10.3982 -8.40276 
45 1 2.39819 -0.406662 -4.6985 
46 1 7.58937 1.1123 -7.31408 
47 1 5.65246 -6.76316 6.26305 
48 1 0.222709 -9.13822 11.8652 
49 1 -2.94238 5.78811 7.01171 
50 1 -2.26733 -7.38767 10.1903 
51 1 -8.2845 3.25683 6.63141 
52 1 8.12898 -7.96934 -2.30114 
53 1 6.40513 3.1586 -12.7133 
54 1 3.08904 1.33645 6.10177 
55 1 -1.10702 10.7004 4.72849 
56 1 -7.64061 4.45819 -9.80213 
57 1 2.90578 7.3183 1.7095 
58 1 -0.357118 0.869091 -3.76901 
59 1 -1.76356 -10.6367 10.4291 
60 1 -2.23725 -4.67044 -8.55935 
61 1 8.99467 -8.35552 -6.07691 
62 1 -2.62378 2.14851 4.89146 
63 1 -11.5845 -2.91336 -1.33629 
64 1 5.28117 -3.56699 5.98239 
65 1 -6.77368 -5.02586 -7.81568 
66 1 11.4018 -10.2911 -0.877807 
67 1 -5.20593 6.75686 2.11383 
68 1 -4.11056 4.52709 -0.231234 
69 1 5.33092 2.52236 -9.61778 
70 1 12.0763 -7.86769 1.66693 
71 1 -6.13284 -8.91544 3.12032 
72 1 9.65295 7.03427 7.36831 
73 1 6.49056 3.67025 -1.83636 
74 1 -6.90863 11.8911 -6.54738 
75 1 0.918959 -4.30749 -8.17346 
76 1 -1.71381 10.9728 -5.39266 
77 1 5.64543 -0.780512 -9.10471 
78 1 2.55235 -3.48408 -1.45396 
79 1 3.14495 3.44542 -11.437 
80 1 7.57249 -11.9842 3.97529 
81 1 -5.47651 6.74225 -8.21096 
82 1 -1.52183 2.96811 -1.35043 
83 1 6.84828 8.11866 -5.39239 
84 1 8.29557 9.33092 -1.02519 
85 1 -4.1908 7.61389 -4.10532 
86 1 -3.31732 -2.36494 -12.6098 
87 1 -10.4775 -1.83419 -4.29614 
88 1 -3.65727 10.1062 9.67121 
89 1 -3.75286 12.1515 -7.38393 
90 1 1.88422 -3.55736 10.3851 
91 1 -8.20958 -3.10435 7.64208 
92 1 -3.73132 -9.28879 5.24006 
93 1 0.397046 8.32462 -0.228784 
94 1 13.7717 3.66767 -2.54198 
95 1 1.13779 -11.9273 9.34996 
96 1 -7.46403 8.68549 3.53703 
97 1 -0.671836 7.49518 5.5431 
98 1 -2.23209 2.18928 -9.00919 
99 1 -6.83247 -4.84275 6.04288 
100 1 -6.58014 -7.87699 6.23093 
101 1 -1.19316 0.102388 2.42228 
102 1 -1.89136 -1.18138 5.19151 
103 1 -5.64242 -1.00356 -4.81404 
104 1 5.06593 -8.64535 -1.60643 
105 1 -2.03227 7.29349 11.6308 
106 1 -6.94292 1.04181 0.996718 
107 1 -8.26822 0.0272385 -6.13307 
108 1 -4.88652 -10.8358 0.205541 
109 1 9.88096 3.04568 -5.69769 
110 1 7.25413 2.29253 9.56372 
111 1 -4.2063 -3.1796 3.5563 
112 1 -2.97627 8.57344 -9.92076 
113 1 -3.70277 -7.62425 -9.66862 
114 1 -8.57948 10.6438 -4.07178 
115 1 8.24317 3.01969 3.34425 
116 1 -5.42654 10.2358 -9.16266 
117 1 0.31116 1.81255 -10.1229 
118 1 -1.50939 3.3089 1.69322 
119 1 -6.2643 5.46569 7.83044 
120 1 -8.49188 7.54633 9.23013 
121 1 -0.889582 -12.6977 -8.29982 
122 1 -0.0892486 1.12085 6.82613 
123 1 -4.72247 -0.0248105 3.28253 
124 1 2.33896 -6.63184 -0.433763 
125 1 8.38913 6.02415 -10.2226 
126 1 0.920292 9.54088 -3.34022 
127 1 -9.39201 3.00162 2.22098 
128 1 3.52964 5.08961 9.8371 
129 1 12.325 -0.701069 -2.81288 
130 1 2.22893 7.69847 4.72803 
131 1 -8.76 6.95654 6.21685 
132 1 -6.19314 -6.03393 -10.7742 
133 1 3.10552 -5.60163 7.61192 
134 1 0.299802 -8.55836 -1.95931 
135 1 -2.08775 0.00408718 -11.0353 
136 1 9.63934 7.58882 -7.10874 
137 1 -10.8686 1.61477 5.59903 
138 1 -8.9823 -4.1564 -9.70032 
139 1 -2.9914 -8.87081 -0.967014 
140 1 1.57651 -8.04586 2.58196 
141 1 -4.72114 -3.31748 -9.96 
142 1 -10.0687 -1.86188 -8.04951 
143 1 9.43822 3.97664 7.97895 
144 1 5.49665 -6.45652 9.36675 
145 1 3.30631 -6.01212 4.43448 
146 1 5.93583 7.5948 0.964271 
147 1 -10.9353 -6.16947 3.26056 
148 1 -0.578093 12.0842 2.12559 
149 1 -0.479855 -6.41065 -10.3436 
150 1 -2.2719 -11.6706 -5.94888 
151 1 -5.32054 -7.13648 0.226051 
152 1 -3.28217 -5.32288 1.66849 
153 1 1.19723 -3.91735 4.81226 
154 1 13.49 3.44215 4.07627 
155 1 -5.56811 -4.35501 -4.26802 
156 1 -5.8699 -3.97235 9.89323 
157 1 -7.17441 -9.1613 -1.92955 
158 1 2.04744 2.74828 -5.38787 
159 1 -2.08177 -11.7631 2.27252 
160 1 5.75539 -6.8747 -4.3532 
161 1 2.12669 -13.9976 -2.77625 
162 1 -8.4848 3.60299 -6.53747 
163 1 9.91395 8.78163 4.95473 
164 1 -5.12393 3.54899 -7.73906 
165 1 -2.88507 11.6461 -10.7007 
166 1 -2.36027 -3.98264 9.11943 
167 1 -1.11099 8.23554 8.94346 
168 1 10.6636 4.61735 1.96653 
169 1 -10.8001 5.36846 7.89913 
170 1 -3.8372 -5.03865 12.6655 
171 1 -2.0286 12.2808 6.91788 
172 1 1.46941 -7.88079 -8.2926 
173 1 3.18298 -13.4338 0.343274 
174 1 5.73855 -3.71519 -8.23436 
175 1 1.14612 -7.33075 5.93385 
176 1 -2.51048 -0.537392 8.28566 
177 1 -9.15074 -0.762336 2.79793 
178 1 7.33642 -9.52075 0.468402 
179 1 -2.14736 9.9135 0.945679 
180 1 -5.31004 7.32263 5.43112 
181 1 0.612903 2.44918 3.85017 
182 1 4.31789 -12.0177 8.29285 
183 1 -0.292209 4.22158 6.47507 
184 1 -14.4806 1.37395 -0.0848033 
185 1 3.69693 -2.46728 3.49131 
186 1 -4.59761 11.0737 -1.02733 
187 1 -5.84496 2.04194 -5.26248 
188 1 -14.9142 3.86348 0.980244 
189 1 -7.03923 -1.72199 -8.60439 
190 1 -4.3543 8.02296 -0.890314 
191 1 7.37747 -0.912321 10.0421 
192 1 4.03975 -9.03458 4.60857 
193 1 -3.90863 1.35143 0.439103 
194 1 -3.94573 -6.328 4.61555 
195 1 6.65184 -10.1944 -7.04117 
196 1 -7.27326 1.57177 -8.94697 
197 1 -12.0517 -0.0289252 -1.83891 
198 1 -8.5456 -7.45405 1.42981 
199 1 -3.38973 -2.14539 -2.59482 
200 1 11.8113 1.98994 -4.40903 
201 1 -5.14487 2.6028 -10.5964 
202 1 3.13638 0.924379 3.13884 
203 1 -3.44062 12.189 3.38339 
204 1 -12.4275 7.24045 -0.363263 
205 1 -6.03644 3.83704 11.5832 
206 1 10.8107 -3.211 -4.894 
207 1 11.7009 5.48724 -4.24354 
208 1 2.66342 4.60556 5.45723 
209 1 -6.36552 5.56568 -2.08665 
210 1 -0.220057 -5.32552 -2.49843 
211 1 -0.00797606 8.81626 2.54928 
212 1 4.32579 1.5179 -3.38968 
213 1 -8.22753 3.78625 -3.59925 
214 1 8.32314 -11.7312 -2.00485 
215 1 11.1157 -0.804409 5.63094 
216 1 -10.2659 -5.08018 -6.5133 
217 1 -3.09015 -8.47854 2.32131 
218 1 -1.88113 9.36599 -2.30167 
219 1 -12.1132 3.9961 0.70153 
220 1 -1.94598 -7.74604 -3.9425 
221 1 -0.589527 -9.60056 1.07396 
222 1 -4.67795 -11.0572 -3.05117 
223 1 -10.5219 5.47336 -7.41535 
224 1 -3.11387 -12.4016 5.17525 
225 1 -10.3945 -1.27243 8.9774 
226 1 1.89076 -0.19563 -1.34508 
227 1 -7.27042 1.62443 4.36675 
228 1 4.44947 -1.75655 -2.86496 
229 1 0.165255 -2.32674 7.58007 
230 1 -12.7042 2.37476 2.96619 
231 1 0.605823 -8.7106 8.76378 
232 1 -5.74818 -1.04727 9.1711 
233 1 5.01575 -5.24695 -2.34254 
234 1 4.88278 -10.9078 2.10114 
235 1 3.19808 11.3292 -5.08975 
236 1 -8.18988 -5.88186 8.48045 
237 1 8.82707 -7.07042 5.64845 
238 1 8.51919 2.56622 0.289886 
239 1 -4.90946 3.27364 2.72321 
240 1 0.998595 -1.0899 -9.45174 
241 1 4.78504 -3.29829 9.41225 
242 1 0.534635 4.99901 0.184204 
243 1 -1.71653 3.79923 12.4241 
244 1 3.32098 11.4661 -2.17474 
245 1 6.29598 -5.39257 3.40838 
246 1 0.661638 -15.1144 -5.86413 
247 1 4.66511 7.78397 9.66395 
248 1 -12.5264 -0.718808 3.59443 
249 1 -4.73397 -9.54554 -5.3548 
250 1 -7.43489 -6.54732 -5.47123 
251 1 -6.23822 8.7851 7.86474 
252 1 -1.27547 -10.9101 -3.44462 
253 1 -4.62646 -2.69181 6.92199 
254 1 5.82491 4.05252 11.7585 
255 1 9.55217 3.68747 -2.61559 
256 1 2.61211 7.30514 -9.21924 
257 1 -0.628585 7.0963 -8.09739 
258 1 -3.61978 4.5384 10.2541 
259 1 -10.4538 1.4166 -4.2814 
260 1 6.78564 7.52782 -8.79382 
261 1 -5.86907 -7.94537 -8.2083 
262 1 0.788936 -1.44241 -12.6253 
263 1 8.92781 7.14672 -3.27426 
264 1 3.29035 8.20068 -1.30366 
265 1 2.65896 4.10657 -8.3016 
266 1 2.00198 -11.1639 2.81871 
267 1 3.93452 2.21031 -0.0709682 
268 1 -4.89162 4.37082 -13.1221 
269 1 10.4309 7.79405 0.801671 
270 1 8.99722 -6.73103 2.46254 
271 1 -2.0754 3.19035 -11.6887 
272 1 0.490118 -12.0253 -0.582177 
273 1 5.947 -8.13053 11.6807 
274 1 -4.66232 0.404582 -7.66472 
275 1 2.92581 4.23991 2.27348 
276 1 2.12012 6.76182 -12.0498 
277 1 -11.166 -2.93571 1.62242 
278 1 14.5764 0.993089 -2.18224 
279 1 1.57543 6.397 -2.85924 
280 1 -6.78637 8.74005 -6.47572 
281 1 2.4911 -7.19285 -3.74689 
282 1 3.20456 0.369887 -10.8704 
283 1 8.90832 -4.9591 -6.81376 
284 1 4.7944 -4.06499 0.875028 
285 1 -4.63429 -6.02256 8.00305 
286 1 -10.1358 9.57167 1.32861 
287 1 2.93143 10.0748 -12.1028 
288 1 11.6597 2.38337 -0.406238 
289 1 2.48554 -10.4557 -2.88181 
290 1 -0.846049 -9.8336 -9.71749 
291 1 3.7899 5.19084 -0.734515 
292 1 10.2088 -6.2817 -0.710103 
293 1 4.37706 -7.44803 1.81945 
294 1 6.89683 -2.77613 -0.927337 
295 1 -6.03148 2.45971 8.8396 
296 1 -5.5001 -4.01852 -0.783627 
297 1 -8.11418 -6.31468 -1.72488 
298 1 0.0674786 -5.59547 8.51087 
299 1 4.27935 9.30648 -7.51047 
300 1 -4.77783 10.4798 -4.27639 
301 1 -2.87273 12.8539 -2.7309 
302 1 -0.887643 -3.71811 13.209 
303 1 6.50199 -10.1638 -4.31998 
304 1 5.4099 -0.603478 -5.79791 
305 1 -8.34514 -4.25359 0.0307915 
306 1 -6.22841 2.35038 -1.72882 
307 1 -6.65197 -1.50998 4.68399 
308 1 6.19538 6.63337 -2.50208 
309 1 1.92395 -11.09 -7.79509 
310 1 6.51603 -10.1218 9.56194 
311 1 6.46434 0.528615 -1.09924 
312 1 1.18088 -1.61701 1.4885 
313 1 -10.9224 4.82374 4.6637 
314 1 12.432 -4.4239 -2.31809 
315 1 1.56394 7.47769 10.7488 
316 1 -0.061341 0.73923 -6.75772 
317 1 4.97249 10.6263 -10.1217 
318 1 -0.702912 -3.02797 -10.7851 
319 1 0.587176 -9.27362 -5.45074 
320 1 11.4316 8.47044 -2.46951 
321 1 6.32287 -6.83176 -7.57859 
322 1 4.85253 -11.7528 -2.19495 
323 1 9.06789 10.1224 -4.39354 
324 1 -7.15636 4.68474 0.87769 
325 1 8.33807 2.52521 -10.1442 
326 1 3.74705 -8.87481 7.67079 
327 1 8.74691 0.11959 3.91607 
328 1 10.5658 5.09787 4.88945 
329 1 -8.31892 -3.02311 -5.66739 
330 1 11.6406 5.81954 -1.09451 
331 1 12.0687 -4.1712 1.01933 
332 1 -0.756541 -6.66927 0.476854 
333 1 1.01571 9.93358 6.90692 
334 1 7.45352 5.10528 5.90543 
335 1 -6.6269 12.7977 -3.13738 
336 1 -2.08642 -8.18777 -7.09198 
337 1 -2.92137 5.05928 -9.80316 
338 1 -4.2482 0.781363 -13.3043 
339 1 -12.7652 3.12872 -2.09947 
340 1 9.84624 -9.96828 2.2519 
341 1 3.22802 -10.0476 10.7629 
342 1 0.882508 1.76113 0.653571 
343 1 2.96822 -2.10033 6.68153 
344 1 6.07224 11.5061 -5.35162 
345 1 7.36287 1.51699 -4.08532 
346 1 13.3591 0.385415 3.78251 
347 1 5.41424 10.8955 0.23586 
348 1 11.3031 -1.85446 2.52027 
349 1 -3.61455 1.4321 11.0193 
350 1 -11.1322 -5.64025 -0.12931 
351 1 -7.53568 2.02268 -12.1269 
352 1 7.62727 -4.26624 7.9788 
353 1 -8.85393 10.0518 6.34628 
354 1 11.0033 1.42421 2.32853 
355 1 8.66469 -3.53781 5.05574 
356 1 5.39566 3.04488 4.23466 
357 1 -8.83621 4.0972 9.58636 
358 1 3.32304 -2.67461 -10.5151 
359 1 -1.91757 -4.10567 -5.0854 
360 1 3.54218 5.67109 13.2018 
361 1 5.03245 6.28294 3.71996 
362 1 1.99963 -0.203452 8.8914 
363 1 -0.745588 4.87462 9.49393 
364 1 -8.24325 1.19046 10.6008 
365 1 -3.87708 4.18474 -3.36865 
366 1 -2.94705 5.4941 -6.57461 
367 1 6.00493 9.94997 -2.73861 
368 1 -1.77716 -4.26733 5.89436 
369 1 0.348592 12.5143 -3.68689 
370 1 -0.848829 -3.3135 -0.497562 
371 1 -5.22636 -7.49761 -2.92005 
372 1 6.20523 4.37442 1.41631 
373 1 -2.84563 5.5298 4.00986 
374 1 -7.7389 7.67384 0.434673 
375 1 7.26117 4.69526 -4.89976 
376 1 1.66253 3.0844 8.44368 
377 1 6.91945 8.3564 5.22038 
378 1 -5.8584 -1.09928 -1.32764 
379 1 -3.08821 -5.39913 -12.0219 
380 1 1.68552 6.58506 7.82211 
381 1 8.01556 -4.83528 -3.29686 
382 1 4.63372 9.79721 3.33172 
383 1 -14.3208 -1.67941 0.00486133 
384 1 6.36923 -12.6176 0.637911 
385 1 5.07419 5.73932 -10.1943 
386 1 6.9222 -6.15633 0.137071 
387 1 -2.11202 6.72404 1.06715 
388 1 1.89171 -7.90368 -11.4565 
389 1 -3.31155 -1.85045 0.671359 
390 1 3.46238 -5.94704 -6.57059 
391 1 4.38086 -0.861225 0.611613 
392 1 -5.63629 7.36176 10.635 
393 1 7.70061 -4.97811 10.8103 
394 1 2.79107 0.643529 -7.70135 
395 1 0.940003 -12.4486 -5.2914 
396 1 0.148345 -2.10172 -3.18771 
397 1 -7.48202 5.08581 3.97729 
398 1 11.1994 2.22478 5.99082 
399 1 -0.872288 7.54562 -4.81835 
400 1 10.5084 0.800167 -8.0397 
401 1 1.01503 -0.693772 4.34609 
402 1 9.66925 0.452571 -1.92954 
403 1 5.40169 8.05281 -11.4176 
404 1 -3.39939 -2.27049 11.2153 
405 1 -1.9031 -7.73741 6.95488 
406 1 0.237157 -5.86541 -5.67811 
407 1 -10.3035 8.85424 -1.81739 
408 1 8.22559 6.55465 3.16753 
409 1 -10.7534 -4.59179 6.45464 
410 1 7.23049 4.58856 -7.86737 
411 1 -1.59425 0.0447799 12.5578 
412 1 -10.6523 -5.27335 -3.52872 
413 1 8.98512 -3.89958 1.69535 
414 1 -9.00152 -9.30145 3.37865 
415 1 10.1264 -2.70638 -1.5468 
416 1 4.5693 -12.3253 5.11688 
417 1 -3.10626 9.12576 6.88911 
418 1 -10.0735 -1.49912 5.57776 
419 1 6.90066 -2.15484 2.89174 
420 1 13.055 -7.42951 -1.89162 
421 1 1.52593 3.20464 -2.2766 
422 1 1.96085 11.0091 4.24446 
423 1 -5.12449 3.74723 5.78273 
424 1 1.63751 -10.5616 5.98818 
425 1 -8.10495 0.355545 -3.27596 
426 1 4.02952 2.29462 14.0958 
427 1 2.04465 10.8893 1.03449 
428 1 4.57171 -4.79335 11.9163 
429 1 10.8561 -5.12948 3.8471 
430 1 6.99776 8.50777 8.07627 
431 1 -0.570437 4.48071 -4.19427 
432 1 3.67831 -9.21149 -5.81659 
433 1 0.180362 5.10444 -10.2904 
434 1 -2.68962 2.63308 7.94342 
435 1 14.3344 1.99545 0.934471 
436 1 1.63463 10.3642 -9.23054 
437 1 3.60597 -5.93273 -9.80363 
438 1 -7.87102 -11.0528 1.01084 
439 1 -4.55078 -2.97233 -6.96587 
440 1 1.6995 -4.72548 -12.3938 
441 1 -3.14035 -5.56302 -1.78292 
442 1 -0.530087 -5.79856 11.723 
443 1 -1.33384 -0.156138 -0.557709 
444 1 -0.854791 -9.66253 4.17394 
445 1 10.1463 0.192041 -5.44787 
446 1 -5.33759 9.79255 1.50904 
447 1 8.20904 -1.20711 7.17028 
448 1 -15.4907 0.352817 2.55823 
449 1 7.93682 9.78964 2.20788 
450 1 4.89125 3.31662 7.52261 
451 1 -10.565 1.91502 -8.01553 
452 1 -0.339334 4.04689 -7.48805 
453 1 6.98326 -8.65599 3.7147 
454 1 -8.0497 -3.09919 -2.90878 
455 1 -6.29752 -5.56736 2.76423 
456 1 7.61402 1.751 6.46167 
457 1 -5.40591 10.4676 5.17231 
458 1 1.24634 9.41296 -6.49314 
459 1 8.30754 -7.54134 8.81029 
460 1 1.54087 -4.61048 1.78637 
461 1 -12.5799 -1.25864 6.72664 
462 1 -5.71251 -0.519164 -10.9359 
463 1 -4.20974 -9.26513 8.20012 
464 1 4.38822 -1.36837 11.3262 
465 1 -2.47957 -12.0694 -0.396427 
466 1 8.49859 -1.9799 -7.14558 
467 1 -9.81805 5.92036 -1.53194 
468 1 -8.0822 0.251045 7.31549 
469 1 -2.56762 -1.09263 -5.28376 
470 1 3.94966 -12.1968 -5.16584 
471 1 8.30133 5.8346 -0.171065 
472 1 9.00805 -0.712362 0.80895 
473 1 -1.40977 -10.8943 7.26302 
474 1 4.75408 6.12626 -6.72683 
475 1 4.94664 2.76949 -5.93468 
476 1 -11.7273 4.06415 -5.1912 
477 1 3.81709 4.85842 -3.91982 
478 1 4.28784 9.57313 6.55318 
479 1 3.95686 8.23822 -4.59622 
480 1 -10.0867 6.24526 1.78338 
481 1 5.69793 -3.76589 -5.08638 
482 1 -1.04517 -2.94136 2.98273 
483 1 1.89756 -14.0097 6.97868 
484 1 -5.18963 0.484029 6.29978 
485 1 6.86824 5.5418 9.16597 
486 1 10.5115 -6.32863 -3.93657 
487 1 2.72074 -3.836 -4.49371 
488 1 -3.54512 8.73051 -6.89488 
489 1 -3.11228 8.95846 3.53061 
490 1 -3.69731 0.874022 -2.75445 
491 1 -1.77465 6.2325 -2.00639 
492 1 -0.925799 -6.37941 3.9548 
493 1 2.59392 -9.93707 0.151537 
494 1 -2.27581 6.35919 -12.4091 
495 1 -9.11453 -0.768823 -0.582484 
496 1 -6.09718 5.62133 -5.49219 
497 1 9.74729 -2.45795 9.97676 
498 1 -8.83614 -6.83406 4.78059 
499 1 12.5181 -0.921428 0.129493 
500 1 0.0725797 8.84007 -11.137 
501 2 -10.4724 -0.0439788 -8.88962 
502 2 -7.69651 10.3247 -5.84287 
503 2 2.2609 1.94324 -10.5811 
504 2 -4.5947 2.92227 10.2384 
505 2 -5.94465 -3.13965 -8.38201 
506 2 2.65201 3.36321 10.3073 
507 2 -8.69477 1.15247 2.99167 
508 2 8.48963 4.86398 4.27603 
509 2 1.12956 -2.12428 9.22498 
510 2 -3.99792 -4.26784 -5.63892 
511 2 -8.70564 -2.11027 -9.59107 
512 2 -10.7204 3.88715 -1.01682 
513 2 0.234378 -7.992 4.42214 
514 2 5.23921 1.66799 8.87335 
515 2 2.85005 -4.39899 -10.7077 
516 2 8.0843 -2.56263 0.640117 
517 2 -8.1673 11.696 -2.54195 
518 2 10.4892 7.05679 5.56624 
519 2 -6.42833 -7.25617 1.88336 
520 2 -9.27159 -4.65698 7.62162 
521 2 -4.22509 -11.1631 4.34925 
522 2 4.36976 -6.95482 7.79983 
523 2 -11.2079 8.78064 0.105401 
524 2 -5.34385 8.79571 -7.96883 
525 2 -2.1364 7.38918 7.66652 
526 2 -6.27253 4.95256 2.43223 
527 2 2.73224 -1.66622 -0.141873 
528 2 9.18718 -6.33362 -2.51312 
529 2 -4.34509 -1.06112 -6.30621 
530 2 -0.513281 -4.6524 -9.42527 
531 2 -1.85124 -2.3434 -4.04469 
532 2 4.60872 3.35706 -12.7149 
533 2 2.5916 -4.2182 3.36721 
534 2 7.28567 6.63043 -4.24451 
535 2 -4.90557 12.7486 -2.23076 
536 2 -1.20989 -5.70493 -4.36773 
537 2 6.25896 -4.60864 9.42114 
538 2 9.181 -1.46018 5.28207 
539 2 -12.4401 4.62909 -3.36872 
540 2 3.927 -3.8018 -2.75717 
541 2 0.253219 -0.00128352 0.873426 
542 2 7.1496 7.46912 -0.675747 
543 2 8.81573 -10.6155 3.70209 
544 2 -2.55977 4.69146 8.58696 
545 2 3.14876 11.1018 2.76021 
546 2 0.645909 4.41373 -5.70546 
547 2 -7.14611 3.78406 8.07652 
548 2 4.0219 4.0898 -9.77468 
549 2 -8.35955 -1.64084 -6.98939 
550 2 -11.1747 2.30449 1.54314 
551 2 -10.0472 -7.7106 3.1364 
552 2 3.41375 -11.0803 4.04781 
553 2 0.425988 -4.04613 11.8702 
554 2 -1.37458 5.73216 5.63226 
555 2 -8.02395 2.67721 0.900268 
556 2 -0.31091 -7.6308 -6.60592 
557 2 10.5066 -0.870473 -0.644228 
558 2 1.48051 -10.5375 -1.34816 
559 2 5.86655 -1.91411 -4.3102 
560 2 0.74816 8.35574 7.79702 
561 2 9.8705 -8.14397 -4.38063 
562 2 6.62857 -4.30773 12.2665 
563 2 -3.26665 -2.71516 5.39767 
564 2 13.5653 -0.378486 -1.49174 
565 2 1.29545 -2.25532 5.72167 
566 2 -1.04297 -8.38483 -0.455551 
567 2 6.26845 -4.58704 -0.933197 
568 2 1.53572 -2.33566 -4.48374 
569 2 2.30039 -5.7593 -4.92938 
570 2 -5.58546 -7.51435 -9.91712 
571 2 -11.3225 -4.82328 1.64587 
572 2 -2.05829 -6.69747 2.15775 
573 2 -3.41592 -11.0229 -4.52624 
574 2 -4.07971 9.67387 0.237138 
575 2 6.18948 2.61743 -7.61719 
576 2 7.30569 10.6616 -4.27882 
577 2 3.2036 2.57961 -7.01446 
578 2 -5.2634 5.54656 11.1474 
579 2 -2.59351 1.31953 -1.19822 
580 2 -11.6743 2.99903 4.58286 
581 2 -6.72735 0.577543 9.05054 
582 2 -6.92107 3.44096 5.29112 
583 2 -4.90316 2.3998 -3.04646 
584 2 9.40765 -4.73814 -4.98321 
585 2 12.724 -6.85449 -0.0345005 
586 2 6.61706 2.79669 2.23047 
587 2 1.54981 8.54767 1.21829 
588 2 -4.38178 7.48927 3.67083 
589 2 -0.269148 3.27975 0.0901943 
590 2 9.77167 5.58092 -2.12232 
591 2 1.33513 8.02726 -1.82017 
592 2 8.7769 8.78966 -5.7501 
593 2 0.669465 4.99828 8.24714 
594 2 -3.51261 0.285996 4.61888 
595 2 7.50865 -7.38839 10.5356 
596 2 3.6278 -0.658785 -6.38764 
597 2 -0.193735 3.31367 11.3197 
598 2 4.69418 9.78172 -12.0589 
599 2 -5.43415 -6.07313 5.97679 
600 2 -2.66937 -11.9534 -7.8457 
601 2 -0.239727 -4.07105 -6.53199 
602 2 7.67652 -11.477 -0.214805 
603 2 -2.25218 -1.80891 -0.922582 
604 2 8.82056 7.06444 -8.62058 
605 2 -3.74777 3.41059 -9.2304 
606 2 -4.83853 10.2991 3.37991 
607 2 -3.55789 3.15997 1.15446 
608 2 -7.40457 -4.43467 -1.78584 
609 2 -0.0753006 10.1369 -9.82442 
610 2 1.27354 11.1658 -2.53007 
611 2 2.89006 3.72513 13.4503 
612 2 4.08258 -10.2755 -1.14841 
613 2 8.46162 1.69508 4.86407 
614 2 11.1714 -9.43154 0.894739 
615 2 6.50835 6.28118 2.27119 
616 2 -1.67744 8.16536 -11.6663 
617 2 5.19322 -9.6634 10.9437 
618 2 0.514227 -13.5323 8.39891 
619 2 6.31926 -11.4437 5.47193 
620 2 -2.03602 8.56331 -8.16728 
621 2 -1.12386 -11.8722 -1.82462 
622 2 -3.2167 -2.99422 -8.47098 
623 2 -2.24671 -6.72443 -10.8014 
624 2 8.36693 8.38687 6.58592 
625 2 -9.62513 -0.227251 -4.51194 
626 2 -9.65571 5.1661 6.18194 
627 2 8.73365 -4.03413 9.58227 
628 2 -3.91944 -12.2624 1.12927 
629 2 0.891513 0.469311 -8.5405 
630 2 3.44924 -0.243854 -3.13773 
631 2 -3.06969 -0.462049 -12.6124 
632 2 -7.52861 -5.34638 -9.63647 
633 2 -6.93833 -2.51278 8.94495 
634 2 -8.23919 -4.9476 -6.37006 
635 2 5.78392 -8.777 -7.97259 
636 2 8.40606 -3.05596 -2.29296 
637 2 -4.44166 -5.48543 -0.0628138 
638 2 0.625459 -3.13618 -12.2614 
639 2 5.07275 -2.38613 2.09443 
640 2 3.09657 3.07269 -3.79616 
641 2 -7.5812 -5.11082 4.12552 
642 2 0.0132818 10.867 -7.0198 
643 2 2.57184 9.77163 5.75463 
644 2 12.0771 1.71298 4.24461 
645 2 -11.6658 -2.88144 6.21684 
646 2 -2.08385 -12.8061 6.66551 
647 2 0.45393 3.47482 -9.22401 
648 2 -1.6214 5.24305 2.54422 
649 2 -0.0399371 -3.3032 1.28515 
650 2 -5.74785 1.55064 2.82452 
651 2 -7.19887 7.04242 4.81093 
652 2 -6.54464 -2.97396 6.17659 
653 2 -1.802 -12.9434 3.79764 
654 2 -13.8205 0.62975 3.26152 
655 2 -6.54755 -7.44637 -1.35718 
656 2 -5.0192 -8.71693 6.75016 
657 2 6.28336 -12.1803 2.56312 
658 2 2.43329 8.96174 -7.91483 
659 2 -0.659047 -4.33608 4.19274 
660 2 6.64268 10.638 -1.11994 
661 2 11.0684 1.67442 -6.53896 
662 2 -1.01176 12.9082 -2.29385 
663 2 -10.3815 -4.05667 -8.16926 
664 2 -11.8584 1.49499 -3.04304 
665 2 -0.106828 -13.6785 -6.80154 
666 2 5.86128 -8.553 5.54892 
667 2 7.39435 -6.67244 7.33532 
668 2 -5.56712 8.76858 -4.61988 
669 2 7.52033 0.512297 0.471592 
670 2 5.7212 -1.23113 12.6313 
671 2 -1.14154 -1.02 -6.71552 
672 2 3.93717 4.44886 3.92284 
673 2 3.8155 7.89558 3.41039 
674 2 -2.34391 1.9645 12.5204 
675 2 -9.48117 1.83032 6.92566 
676 2 -1.17283 -0.626256 6.7639 
677 2 5.18636 8.16293 -6.23586 
678 2 -5.93341 -6.39196 -4.35562 
679 2 -6.85041 0.691679 -4.92167 
680 2 -9.20044 -1.45388 7.45282 
681 2 5.11126 8.16119 -2.8614 
682 2 0.713466 -3.62644 -1.97363 
683 2 11.6141 4.29705 0.185622 
684 2 11.026 -6.74212 2.68252 
685 2 -13.4971 -0.104215 -0.556447 
686 2 -0.245644 7.17464 10.607 
687 2 -4.89697 5.33277 -6.83901 
688 2 4.29811 0.581834 -9.17857 
689 2 -11.2227 7.06623 -2.07688 
690 2 1.67369 -5.11913 9.45853 
691 2 2.0188 4.89817 -1.57775 
692 2 -7.85203 -0.623159 1.2863 
693 2 6.68363 -8.23526 -3.37198 
694 2 1.77294 -13.6311 -0.976423 
695 2 -4.12558 6.70896 0.596844 
696 2 0.676944 -11.22 4.5252 
697 2 -8.90829 4.45078 -8.35318 
698 2 -0.58947 -11.5847 1.02193 
699 2 4.93059 5.16794 8.49942 
700 2 0.768153 6.99369 -9.50886 
701 2 0.300769 7.68138 -6.18169 
702 2 8.01172 4.33821 -9.5783 
703 2 -0.887718 9.9316 -0.670093 
704 2 -2.55666 8.80675 10.6123 
705 2 -10.3526 -5.47077 4.82271 
706 2 -2.00094 -9.83465 2.61433 
707 2 -1.10884 1.9724 3.15111 
708 2 -11.5846 -1.72003 -2.83088 
709 2 -4.33405 -3.99346 8.29998 
710 2 1.55142 4.96198 -11.9081 
711 2 2.44451 -1.09462 3.0985 
712 2 7.72165 0.130902 -2.61693 
713 2 3.34412 -0.228092 7.35621 
714 2 -9.85109 -2.88114 -0.155467 
715 2 2.13037 -1.41301 -11.0887 
716 2 7.47046 3.968 -0.152446 
717 2 8.3797 5.57047 7.70274 
718 2 5.98592 -5.00089 -3.97689 
719 2 -7.32422 -4.07023 1.66929 
720 2 -5.53942 11.8967 -7.98748 
721 2 3.04302 6.35088 6.03053 
722 2 -2.42127 0.813404 -4.21027 
723 2 3.47515 -11.8478 1.36249 
724 2 -2.78793 -10.4242 8.75509 
725 2 -4.71323 -0.887372 -3.11014 
726 2 10.5591 3.98847 6.5563 
727 2 2.98509 10.9797 -10.2818 
728 2 0.531461 12.0088 0.589429 
729 2 1.86136 2.49031 2.41836 
730 2 1.32053 -9.73921 1.65541 
731 2 3.46725 -12.0902 -3.41617 
732 2 6.74881 6.50528 -10.8376 
733 2 4.34633 1.50352 4.63576 
734 2 4.68227 5.55476 11.7531 
735 2 2.98949 3.22889 7.02236 
736 2 5.15265 -5.30225 5.25914 
737 2 -1.39808 4.78886 -11.0895 
738 2 11.4283 -2.7218 -3.1212 
739 2 -6.5853 8.45343 1.76717 
740 2 2.62074 -9.27355 -7.5363 
741 2 0.0632417 0.152004 11.4627 
742 2 2.07596 -5.59157 5.8494 
743 2 -5.73948 0.650665 -0.435141 
744 2 -6.60627 6.17993 -9.92141 
745 2 12.4034 -6.27173 -3.40925 
746 2 0.267636 10.6267 3.28874 
747 2 11.3343 7.83567 -0.755627 
748 2 12.5262 1.0892 0.962743 
749 2 -11.3632 -4.74837 -1.84327 
750 2 -3.43164 10.4903 -6.37052 
751 2 -6.99806 3.56361 -5.29141 
752 2 -5.19513 -2.33932 0.028447 
753 2 7.57642 3.58308 -3.38085 
754 2 -8.80445 9.0587 -3.00721 
755 2 -2.13922 -6.13424 5.36842 
756 2 5.48853 -1.59785 9.45834 
757 2 1.40359 -14.2112 -4.39419 
758 2 2.10925 -5.86771 -8.10714 
759 2 4.6338 11.2261 -3.4983 
760 2 3.47068 10.6716 -0.345302 
761 2 -3.19375 0.35357 -8.80816 
762 2 -0.44971 -11.1048 -5.2871 
763 2 10.0119 -0.528776 2.44109 
764 2 -6.64875 7.3188 -1.17493 
765 2 5.02729 -13.0261 -0.502855 
766 2 7.4879 -3.11729 6.52704 
767 2 -4.44328 -5.16317 3.22235 
768 2 -6.08363 -6.61016 -6.92521 
769 2 2.51641 6.74958 12.2204 
770 2 -0.295469 6.15467 -3.33536 
771 2 -12.2395 5.92453 0.993527 
772 2 4.23066 4.07421 0.766829 
773 2 -0.140234 -7.39157 7.59772 
774 2 -6.1277 10.163 -1.69052 
775 2 -6.67159 -10.4971 -0.502107 
776 2 -2.03433 -9.65523 5.98416 
777 2 7.30373 0.870878 10.8752 
778 2 -9.41158 4.77773 3.27182 
779 2 -3.11657 7.76848 -2.482 
780 2 0.750286 1.33233 8.555 
781 2 -5.8369 -9.46589 -3.35251 
782 2 10.734 -3.93624 2.49367 
783 2 8.15758 -6.78829 -6.80706 
784 2 -3.55807 10.5167 -2.61432 
785 2 -2.31918 1.39199 9.31404 
786 2 -8.32313 2.19806 -2.48092 
787 2 7.25012 -7.95913 -0.698283 
788 2 3.97763 7.20268 0.0807785 
789 2 -4.85601 5.66408 6.66796 
790 2 -4.58046 -0.735045 7.60912 
791 2 2.14637 1.73321 -0.95173 
792 2 -1.52801 5.4553 -8.10322 
793 2 -11.2033 3.5937 -7.12771 
794 2 0.36784 -0.226517 -2.50554 
795 2 -0.860909 -1.25979 -10.2197 
796 2 1.09924 0.92928 -5.28401 
797 2 -4.94818 -2.26425 -11.6374 
798 2 5.16331 -5.6133 -8.63684 
799 2 -3.59554 -10.7425 -1.46367 
800 2 2.44206 -8.83458 9.49571 
801 2 -2.43213 4.21851 -5.00579 
802 2 3.0882 0.151525 10.6042 
803 2 0.800028 4.38172 4.59269 
804 2 7.57303 -3.78807 -7.51454 
805 2 3.59326 -12.9628 6.82941 
806 2 6.95824 7.4248 9.54954 
807 2 -2.59897 12.2209 4.93209 
808 2 -12.5243 -2.39794 0.378399 
809 2 12.6734 5.36715 -2.54124 
810 2 3.02616 -11.6103 9.7052 
811 2 -10.1206 8.1024 2.5986 
812 2 8.64634 1.51553 -5.30616 
813 2 6.01227 6.56862 5.32558 
814 2 -15.6353 2.10559 1.44492 
815 2 1.67975 12.5156 -5.22331 
816 2 -8.05998 5.74406 -3.04941 
817 2 -0.0962737 2.87181 -3.25586 
818 2 4.78394 -2.36312 -9.01055 
819 2 -4.53036 2.26114 6.99175 
820 2 -4.4831 -3.76074 11.2253 
821 2 10.6931 0.567389 6.93775 
822 2 9.90801 -1.01276 -8.12328 
823 2 -6.91704 -2.73416 -4.46063 
824 2 1.09589 -6.56833 1.25818 
825 2 9.34317 -1.8154 -5.40093 
826 2 -0.607698 6.561 -0.12907 
827 2 -4.92741 -9.47195 -7.32148 
828 2 -10.5487 3.5308 8.89798 
829 2 -5.4115 -1.7926 3.25094 
830 2 5.25623 -10.9617 -5.73077 
831 2 0.128587 -11.079 -8.48921 
832 2 -4.08295 -8.16523 3.76493 
833 2 10.995 0.307921 -3.71337 
834 2 -4.08767 10.3832 -10.4096 
835 2 5.56045 9.75654 5.2807 
836 2 -3.30787 -7.92766 -2.66707 
837 2 6.66449 -0.166838 6.64632 
838 2 -9.36484 6.01957 8.92092 
839 2 -2.66724 4.56675 -1.52488 
840 2 -3.90247 6.7711 -9.5682 
841 2 1.66299 -2.58111 -8.10461 
842 2 -8.25662 -7.15786 6.86358 
843 2 -8.76126 6.10728 0.188507 
844 2 5.86479 5.82838 -8.23139 
845 2 -2.72398 7.29778 -5.53311 
846 2 5.43691 4.83568 -5.38157 
847 2 -1.45027 1.68097 -10.978 
848 2 4.11787 -7.1024 -2.7796 
849 2 -9.75955 3.25492 -4.96993 
850 2 5.10023 8.30221 7.93455 
851 2 -6.37568 3.757 -11.9931 
852 2 -11.0438 -0.973268 2.33632 
853 2 9.08848 -0.967534 8.8125 
854 2 5.39971 2.41946 12.7993 
855 2 8.47348 4.2956 -6.26136 
856 2 4.54949 10.7074 -6.31295 
857 2 -1.05377 9.49023 -4.17937 
858 2 13.9022 2.7843 -0.847871 
859 2 -4.241 2.04854 -6.43011 
860 2 5.53039 8.93731 -9.18365 
861 2 2.94264 0.933097 13.4329 
862 2 -4.76143 -5.00763 -11.0149 
863 2 -1.39186 -5.23892 -0.802664 
864 2 8.55906 -2.06875 11.2348 
865 2 -1.75348 8.23031 2.1342 
866 2 12.0125 -8.9262 -1.95061 
867 2 2.33362 -9.23688 -4.55922 
868 2 -2.94023 10.9254 7.97494 
869 2 7.83603 -9.37336 8.20442 
870 2 -5.00481 5.68711 -3.5126 
871 2 -8.91589 9.27769 -0.179247 
872 2 -7.41413 7.03941 -5.85498 
873 2 -0.747018 12.6495 -5.35104 
874 2 -9.15555 -6.27117 -3.36279 
875 2 0.957056 -6.33947 -11.705 
876 2 -7.64051 3.05506 10.6452 
877 2 11.0875 -4.45204 -0.745925 
878 2 -2.51282 11.9764 -8.88719 
879 2 -9.69549 0.219214 9.82611 
880 2 3.0108 -4.65839 0.115276 
881 2 -2.80609 -6.43714 -7.66834 
882 2 2.83881 6.88518 9.26976 
883 2 0.465321 -8.30788 -9.96596 
884 2 -6.34364 3.22454 -9.20889 
885 2 5.66777 1.08637 -4.90533 
886 2 -3.98341 5.82939 -12.3662 
887 2 -4.91567 9.11061 6.37023 
888 2 -8.22497 8.71635 7.60796 
889 2 2.43612 9.46866 -4.62196 
890 2 -8.55862 -9.37493 1.39 
891 2 6.58655 2.31944 -11.0902 
892 2 6.69478 -0.924224 -7.42231 
893 2 -2.89319 -3.11181 2.05443 
894 2 -7.61901 -8.41711 4.27467 
895 2 -10.4495 6.00147 -5.3966 
896 2 -11.5736 -0.331393 5.16064 
897 2 2.98807 5.99375 -7.57843 
898 2 6.92883 -0.284893 3.32848 
899 2 5.19094 -10.3576 8.11264 
900 2 6.85632 4.08717 10.2582 
901 2 3.7771 -3.82056 7.80586 
902 2 -6.76226 6.95592 8.92501 
903 2 3.73375 7.04001 -10.758 
904 2 -2.35416 5.29348 11.5436 
905 2 -0.56441 -9.04064 -3.75301 
906 2 -9.0065 -6.14641 0.111133 
907 2 -1.70598 -8.85686 11.0205 
908 2 -7.02955 0.15073 5.67636 
909 2 4.26217 0.913704 1.54219 
910 2 -1.31928 2.22374 -7.18452 
911 2 -10.149 -3.79835 -4.82659 
912 2 -1.98201 8.97193 5.14896 
913 2 9.66834 -5.14607 5.36601 
914 2 8.416 8.45708 3.71058 
915 2 -4.23658 -8.93889 0.66444 
916 2 -8.6846 -2.14816 4.36637 
917 2 -13.6063 2.94895 -0.416953 
918 2 -2.10445 -2.03917 9.47472 