ITEM: TIMESTEP
1512000
ITEM: NUMBER OF ATOMS
1000
ITEM: BOX BOUNDS pp pp pp
-3.0000000000000000e+01 3.0000000000000000e+01
-3.0000000000000000e+01 3.0000000000000000e+01
-3.0000000000000000e+01 3.0000000000000000e+01
ITEM: ATOMS id type x y z 
1 1 -4.16455 -6.49838 -6.50296 
2 1 6.61971 -10.3502 6.68835 
3 1 -10.8322 7.58724 4.38597 
4 1 -10.4601 -1.25592 -10.0374 
5 1 2.44958 -6.95149 10.3753 
6 1 -5.55332 6.19449 -11.2803 
7 1 -2.44328 2.24 -5.74525 
8 1 -6.57155 -11.1253 4.63492 
9 1 6.9243 -2.60853 12.504 
10 1 -0.108311 1.45074 9.69181 
11 1 6.4452 1.1186 1.87456 
12 1 1.52662 13.6755 -6.59866 
13 1 1.83353 0.314143 11.9951 
14 1 -9.41185 2.05035 -0.978646 
15 1 -2.25072 -2.01599 -8.55876 
16 1 4.42158 1.68615 10.3352 
17 1 3.46266 -2.30797 -7.29113 
18 1 1.52648 3.86469 11.4961 
19 1 -1.25628 -13.6449 7.63812 
20 1 -12.9944 2.91801 6.23349 
21 1 -12.1521 6.68483 -3.52796 
22 1 -2.79144 13.3246 0.0524704 
23 1 0.172607 -2.58518 -6.36771 
24 1 3.80092 -9.16216 -8.99992 
25 1 -0.250387 -1.7372 10.1098 
26 1 -12.7151 5.62777 2.27744 
27 1 -0.141281 11.5584 -0.786201 
28 1 -0.137369 -12.9929 4.38602 
29 1 10.7968 -9.40375 -3.47721 
30 1 5.69105 -0.0797396 4.58985 
31 1 -8.90436 7.18505 -4.19613 
32 1 1.52013 6.02524 -5.72376 
33 1 0.191661 5.70421 3.54026 
34 1 4.88446 6.75817 7.00108 
35 1 -6.67741 -2.28773 1.37541 
36 1 6.2096 0.731865 12.3959 
37 1 -11.8502 0.369269 0.49887 
38 1 10.3218 0.777995 8.26594 
39 1 8.01675 -1.33659 -3.6961 
40 1 5.48601 0.189071 7.88226 
41 1 -8.74512 -3.71492 3.16729 
42 1 -3.70949 -10.4583 -6.60599 
43 1 -6.57515 8.93746 -2.62227 
44 1 -0.974996 10.1999 -8.53736 
45 1 2.25475 -0.730704 -5.07467 
46 1 7.74429 1.36632 -7.423 
47 1 6.07828 -6.98327 6.16709 
48 1 0.116844 -9.21949 11.6873 
49 1 -3.24017 5.53507 7.36888 
50 1 -2.06054 -7.91432 9.74783 
51 1 -8.48872 3.23377 6.43624 
52 1 8.06425 -8.17661 -2.32067 
53 1 8.3252 1.12205 -10.3935 
54 1 3.06378 1.34653 6.00543 
55 1 -1.75681 10.8019 5.18606 
56 1 -7.85448 4.39233 -9.45311 
57 1 2.53787 7.36183 1.97618 
58 1 -0.492096 0.991627 -3.90814 
59 1 -1.695 -11.1769 9.67873 
60 1 -1.93331 -4.88951 -8.15745 
61 1 8.86856 -8.49586 -6.2135 
62 1 -2.63499 2.11827 4.97989 
63 1 -11.283 -3.60125 -1.62075 
64 1 5.83376 -3.47862 5.43935 
65 1 -8.98024 -6.37245 -7.34563 
66 1 10.4574 -8.71437 -0.427424 
67 1 -5.22213 6.76763 2.33641 
68 1 -4.52143 4.55172 -0.202246 
69 1 5.53997 2.1723 -9.71057 
70 1 12.4785 -7.17779 1.56307 
71 1 -6.28246 -8.4478 2.76764 
72 1 9.16281 7.23063 7.9401 
73 1 6.16829 3.75693 -1.87292 
74 1 -4.95452 13.6323 -4.70621 
75 1 1.23857 -4.64606 -8.7546 
76 1 -1.57595 10.8759 -5.15129 
77 1 5.69085 -0.623915 -9.07084 
78 1 2.62328 -3.23327 -1.30585 
79 1 2.65397 3.45803 -11.0268 
80 1 7.0268 -12.6143 4.03587 
81 1 -5.38762 6.54585 -8.47701 
82 1 -1.41581 3.06119 -1.46013 
83 1 6.50359 8.43836 -5.35545 
84 1 7.82426 8.82736 -1.05868 
85 1 -4.22453 7.08341 -3.82019 
86 1 -3.61116 -2.43493 -12.3801 
87 1 -10.5693 -2.04661 -4.50209 
88 1 -4.01678 9.66928 10.4681 
89 1 -1.95124 14.2497 -5.7905 
90 1 1.85567 -3.43842 9.71852 
91 1 -7.66725 -2.88849 8.17769 
92 1 -3.93131 -10.0802 4.87909 
93 1 0.277709 8.37669 -0.166603 
94 1 13.9598 4.3205 -2.48868 
95 1 1.19502 -12.693 10.5479 
96 1 -7.83819 8.444 3.74417 
97 1 -0.722259 7.2956 5.83613 
98 1 -2.62071 1.70131 -8.54669 
99 1 -6.74535 -5.05952 5.72921 
100 1 -6.85952 -8.19496 6.05212 
101 1 -1.70481 0.36654 2.23519 
102 1 -2.03521 -0.788972 5.0601 
103 1 -5.76467 -1.39571 -4.46786 
104 1 4.81584 -8.30095 -1.29934 
105 1 -2.14843 6.84841 11.7028 
106 1 -6.91434 1.02424 1.05831 
107 1 -8.40696 -0.107975 -6.15942 
108 1 -5.37976 -12.7199 2.57556 
109 1 9.55049 3.53829 -5.76861 
110 1 7.57066 2.47329 9.58281 
111 1 -4.31419 -3.10995 3.65537 
112 1 -2.86749 8.16307 -10.0595 
113 1 -3.36326 -7.91777 -8.88451 
114 1 -7.34457 11.7699 -3.2917 
115 1 8.68238 3.33812 3.40641 
116 1 -3.6142 12.1401 -7.55603 
117 1 0.739726 2.00571 -10.0624 
118 1 -1.77822 3.53877 1.79458 
119 1 -6.08627 5.33497 8.11795 
120 1 -9.29278 7.44292 9.30192 
121 1 -1.00772 -12.0389 -6.5034 
122 1 0.0947045 0.961757 6.79449 
123 1 -4.64263 -0.109495 2.95671 
124 1 2.58931 -6.24942 -0.346224 
125 1 7.92617 4.67596 -11.11 
126 1 0.998754 9.63324 -3.14079 
127 1 -9.58114 2.49205 2.15064 
128 1 4.17882 5.11928 10.2668 
129 1 12.3547 -0.975496 -3.31191 
130 1 2.20653 7.7503 5.24663 
131 1 -8.62852 6.29015 6.32219 
132 1 -6.37816 -5.92922 -8.83822 
133 1 3.33462 -5.44282 7.15495 
134 1 0.618465 -8.44647 -1.87998 
135 1 -1.71446 -0.0847713 -11.1555 
136 1 10.2484 8.53389 -6.31513 
137 1 -10.4949 1.39167 5.25646 
138 1 -8.99707 -4.27404 -9.95797 
139 1 -2.60007 -9.25983 -1.2331 
140 1 1.69891 -7.47986 2.5764 
141 1 -5.02355 -3.68062 -9.81114 
142 1 -12.5552 -0.618868 -7.21183 
143 1 9.64651 3.94027 7.76134 
144 1 5.50778 -6.28672 9.16903 
145 1 3.94366 -5.54208 4.1618 
146 1 5.6444 7.7046 0.795622 
147 1 -12.1022 -4.34361 4.25271 
148 1 -0.4559 12.0376 2.43979 
149 1 -0.645043 -6.98047 -10.4686 
150 1 -3.40149 -10.9054 -3.52485 
151 1 -5.06891 -7.37024 0.0533442 
152 1 -3.37868 -5.17288 1.99829 
153 1 1.06576 -3.99167 4.94868 
154 1 13.1884 3.58224 3.17494 
155 1 -5.14216 -4.64781 -3.8595 
156 1 -5.5317 -4.74024 10.1276 
157 1 -6.69567 -9.78001 -2.04562 
158 1 2.00353 2.67353 -5.61648 
159 1 -2.12532 -12.1037 1.95194 
160 1 5.88326 -6.89504 -4.50486 
161 1 2.72357 -13.9601 -2.44281 
162 1 -8.53016 3.16758 -6.76024 
163 1 9.41994 8.57111 5.29422 
164 1 -5.3736 3.17023 -7.6757 
165 1 -0.411325 13.0702 -8.62121 
166 1 -2.55304 -4.17625 9.09599 
167 1 -1.38953 8.01497 9.15436 
168 1 10.6507 4.69766 1.72475 
169 1 -11.0994 4.85683 7.62898 
170 1 -3.28298 -5.1214 12.3865 
171 1 -2.41081 11.8732 7.56507 
172 1 1.49589 -7.86738 -7.93793 
173 1 3.23251 -13.0322 0.348085 
174 1 5.69549 -4.14342 -8.14769 
175 1 1.44118 -7.21391 5.59729 
176 1 -2.53313 -0.782974 8.28491 
177 1 -9.4935 -0.620964 2.72241 
178 1 7.03168 -9.52373 0.457519 
179 1 -2.60675 9.89457 1.03661 
180 1 -5.72623 7.08794 5.74237 
181 1 0.765972 2.3256 3.83596 
182 1 4.16733 -12.0434 8.05 
183 1 -0.402252 4.22674 6.44005 
184 1 -14.5773 1.37588 -1.33372 
185 1 3.71852 -2.31413 3.17093 
186 1 -4.71382 11.1095 -1.23925 
187 1 -6.41966 2.00775 -4.54116 
188 1 -14.7324 3.44654 0.87768 
189 1 -7.31807 -2.1688 -8.67631 
190 1 -4.43539 8.09441 -0.57085 
191 1 7.65334 -0.802898 9.89749 
192 1 3.95204 -8.96378 4.80817 
193 1 -3.65644 1.32294 0.169296 
194 1 -4.15235 -6.80173 4.5626 
195 1 6.49037 -10.6926 -7.39255 
196 1 -7.68746 0.952357 -9.11048 
197 1 -11.6673 -0.122518 -2.24359 
198 1 -7.96319 -7.53094 0.313094 
199 1 -3.23038 -2.28336 -2.50912 
200 1 11.9026 2.22392 -4.54894 
201 1 -5.43932 2.62567 -10.4908 
202 1 3.16777 0.975236 2.64185 
203 1 -3.69951 12.479 3.61211 
204 1 -9.36574 9.44948 1.70798 
205 1 -8.63469 4.14052 9.41657 
206 1 10.3038 -2.93675 -4.84202 
207 1 11.2081 5.61585 -4.12821 
208 1 2.74642 4.69325 5.41723 
209 1 -6.34802 5.74792 -2.34611 
210 1 0.010013 -5.33895 -2.46782 
211 1 -0.448241 8.81449 2.86617 
212 1 4.45678 1.58055 -3.54597 
213 1 -8.86523 3.6407 -3.38056 
214 1 8.26197 -11.406 -1.62261 
215 1 11.2904 -1.01086 5.30672 
216 1 -10.1068 -3.18337 -7.30544 
217 1 -3.10764 -8.52961 2.20981 
218 1 -2.27227 9.57161 -2.40283 
219 1 -11.9572 3.75735 -0.264183 
220 1 -1.81601 -7.79135 -3.97709 
221 1 -0.46006 -9.86569 0.982691 
222 1 -4.5217 -10.7435 0.105061 
223 1 -9.13514 6.5939 -7.23642 
224 1 -3.3253 -12.969 4.98518 
225 1 -10.4501 -1.83344 8.72081 
226 1 1.88913 -0.0664795 -1.95352 
227 1 -7.17451 1.60695 4.08762 
228 1 4.76575 -1.56784 -2.80194 
229 1 0.165157 -2.28812 6.88505 
230 1 -12.7346 2.38509 2.91918 
231 1 0.617242 -9.00664 8.43587 
232 1 -5.57049 -0.926103 9.18482 
233 1 5.06982 -4.90862 -2.00966 
234 1 4.908 -11.1285 2.09215 
235 1 2.93805 11.5112 -4.52386 
236 1 -8.10026 -5.81606 8.69421 
237 1 9.10663 -6.72812 5.54156 
238 1 8.48612 2.43667 0.0990127 
239 1 -4.98928 3.36549 2.6619 
240 1 0.886033 -1.42821 -9.67769 
241 1 5.43238 -3.0124 8.65068 
242 1 0.423947 5.26085 0.187154 
243 1 -1.96733 3.34198 12.0397 
244 1 2.82006 12.1009 -1.54231 
245 1 7.026 -5.55206 3.49205 
246 1 1.56562 -13.7247 -5.87206 
247 1 3.91107 8.29691 9.85324 
248 1 -13.0392 -1.2465 2.97309 
249 1 -6.3311 -10.8413 -4.68607 
250 1 -8.43353 -8.31651 -4.74491 
251 1 -6.79305 8.83332 8.39564 
252 1 -0.684459 -11.1511 -4.00188 
253 1 -4.60243 -2.75128 6.68784 
254 1 6.28493 4.16028 12.4602 
255 1 9.38222 3.97846 -2.69576 
256 1 2.27748 7.38058 -8.14481 
257 1 -0.972431 7.01888 -7.91985 
258 1 -4.01205 4.25562 10.1235 
259 1 -10.9215 1.42964 -4.82549 
260 1 7.55024 7.68941 -9.06294 
261 1 -6.67481 -8.65849 -7.45573 
262 1 1.03618 -2.23237 -12.3406 
263 1 8.98244 7.36217 -3.50175 
264 1 3.18984 8.82645 -0.855359 
265 1 2.79821 4.10246 -8.41305 
266 1 1.94679 -10.6618 2.91749 
267 1 3.86928 2.16324 -0.111628 
268 1 -4.69081 4.11966 -13.5002 
269 1 10.2276 8.18585 1.13841 
270 1 9.36797 -7.56532 2.40043 
271 1 -2.36071 3.0674 -11.1861 
272 1 0.39481 -11.6651 -1.24385 
273 1 5.53516 -7.78521 11.5936 
274 1 -5.42463 0.312261 -6.92361 
275 1 2.79386 4.25207 2.25475 
276 1 2.50627 6.61889 -12.1343 
277 1 -11.3471 -2.75411 1.47378 
278 1 14.5203 1.72633 -2.37232 
279 1 1.34863 6.39092 -2.56861 
280 1 -6.51446 8.45692 -5.9197 
281 1 2.71059 -6.76399 -3.57698 
282 1 3.36398 0.130893 -11.163 
283 1 8.06798 -5.21818 -5.93418 
284 1 4.64899 -4.4461 1.40415 
285 1 -4.62006 -6.22477 7.63381 
286 1 -7.91103 11.248 -0.404219 
287 1 3.50242 9.0567 -11.0475 
288 1 11.7794 2.94469 -0.548489 
289 1 3.29369 -10.3412 -3.07028 
290 1 -0.898466 -10.1082 -8.88 
291 1 3.40486 5.50008 -0.966646 
292 1 10.3281 -5.83745 -0.935834 
293 1 4.65591 -7.8476 1.96155 
294 1 7.14873 -2.81605 -0.974365 
295 1 -6.13188 2.13985 8.57237 
296 1 -5.1099 -4.26408 -0.747468 
297 1 -7.23217 -6.42409 -2.39444 
298 1 0.0920635 -5.69109 7.92259 
299 1 4.17142 9.60153 -7.12592 
300 1 -4.87333 10.4187 -4.60933 
301 1 -2.88723 12.5598 -2.93701 
302 1 -0.606642 -3.36042 12.6284 
303 1 6.83592 -10.2228 -4.45125 
304 1 5.431 -0.184951 -5.8695 
305 1 -8.57873 -4.41734 -0.129385 
306 1 -6.2098 2.57136 -1.72936 
307 1 -6.82064 -1.75309 4.68677 
308 1 5.86485 6.93283 -2.41423 
309 1 1.94395 -10.9753 -6.87927 
310 1 6.0709 -10.2433 9.4691 
311 1 6.57337 0.572489 -1.46717 
312 1 1.34488 -1.2377 0.846827 
313 1 -10.688 4.44267 4.28217 
314 1 12.404 -4.35837 -2.43773 
315 1 0.93162 7.06603 10.8651 
316 1 -0.0219067 0.295143 -6.97838 
317 1 5.91969 10.2262 -9.7606 
318 1 -1.0673 -3.74051 -11.0649 
319 1 0.841176 -9.00856 -4.89114 
320 1 10.876 9.46047 -1.5829 
321 1 5.80397 -7.39324 -7.93089 
322 1 5.43692 -12.1272 -2.19151 
323 1 8.60414 10.3473 -4.13482 
324 1 -7.49102 4.39385 0.760001 
325 1 9.38803 5.76584 -7.56132 
326 1 3.89332 -8.78003 7.68191 
327 1 8.81983 0.0337696 3.83299 
328 1 10.6331 5.17952 5.04314 
329 1 -7.43658 -4.07996 -6.15392 
330 1 11.3768 6.01231 -1.02605 
331 1 12.6565 -3.89782 0.750063 
332 1 -0.401553 -6.87426 0.569761 
333 1 0.658808 9.96865 7.51349 
334 1 7.54141 4.95307 5.77108 
335 1 -5.89964 13.9909 -1.55927 
336 1 -1.75767 -8.15793 -6.65905 
337 1 -3.09881 5.02856 -9.3571 
338 1 -4.46236 0.859113 -12.737 
339 1 -12.5454 3.22249 -2.79339 
340 1 9.23122 -10.9359 1.8213 
341 1 2.98902 -10.2851 10.4101 
342 1 0.810096 1.8317 0.605669 
343 1 3.51323 -2.02269 6.34219 
344 1 8.00862 9.95797 -7.57918 
345 1 7.45029 2.02265 -4.18419 
346 1 13.4676 0.464917 3.11293 
347 1 5.18655 10.522 0.100348 
348 1 11.3192 -1.90636 2.34779 
349 1 -3.56233 1.0013 10.8441 
350 1 -10.6312 -6.17748 1.82557 
351 1 -7.23722 -1.40862 -11.345 
352 1 8.1613 -4.82084 7.68023 
353 1 -8.94073 9.50876 6.59785 
354 1 10.9936 1.29838 2.02327 
355 1 8.94124 -3.23245 4.63493 
356 1 5.41217 3.05654 4.22491 
357 1 -10.7688 1.54224 8.32816 
358 1 3.51768 -3.02447 -10.3415 
359 1 -2.21342 -4.1884 -4.73456 
360 1 3.54488 6.61023 12.9698 
361 1 4.9478 6.27032 3.99912 
362 1 2.33935 -0.327306 8.73538 
363 1 -0.831083 4.95162 9.33355 
364 1 -8.542 0.409851 10.2268 
365 1 -3.95197 4.22823 -3.51813 
366 1 -3.20162 5.63535 -6.21775 
367 1 5.48622 10.2253 -2.95399 
368 1 -2.11158 -4.37128 5.69146 
369 1 0.315458 12.7763 -3.59362 
370 1 -0.853104 -3.62268 -0.557732 
371 1 -4.72058 -8.15114 -3.91271 
372 1 5.82864 4.41762 1.23924 
373 1 -3.2254 5.36446 4.25941 
374 1 -7.5267 7.74737 0.210828 
375 1 7.02922 5.17419 -5.02499 
376 1 1.98162 3.41258 8.52271 
377 1 6.53266 8.44933 5.21667 
378 1 -5.93968 -0.94146 -1.67961 
379 1 -3.83474 -6.03128 -11.4494 
380 1 1.67445 6.55185 8.03643 
381 1 7.96576 -4.77163 -2.82086 
382 1 4.53617 9.4609 3.60731 
383 1 -13.8502 -1.7692 -0.528564 
384 1 6.46101 -12.7755 0.637607 
385 1 4.86832 5.68578 -10.1724 
386 1 7.20705 -6.22353 0.268415 
387 1 -2.40773 6.63635 1.52281 
388 1 1.45411 -8.68309 -11.1209 
389 1 -3.63449 -1.85454 0.645261 
390 1 3.62362 -5.6307 -6.51812 
391 1 4.7027 -1.0154 0.371632 
392 1 -5.58836 7.35288 10.9379 
393 1 7.6861 -4.87434 10.7735 
394 1 2.81185 0.778487 -7.81486 
395 1 -0.443958 -13.9806 -3.63996 
396 1 0.0425744 -2.241 -3.20656 
397 1 -7.60566 4.96534 3.66543 
398 1 11.0082 1.96324 5.23592 
399 1 -1.03165 7.67289 -4.55487 
400 1 10.9311 2.32026 -8.09865 
401 1 1.01788 -0.878102 4.17185 
402 1 9.88144 0.87219 -2.23405 
403 1 6.03712 7.44846 -11.9887 
404 1 -3.40029 -2.27759 11.3799 
405 1 -1.84975 -7.87162 6.58007 
406 1 0.192831 -5.96993 -5.72131 
407 1 -10.1993 8.82434 -1.81399 
408 1 8.05546 6.55147 3.03708 
409 1 -10.8417 -4.25308 7.43326 
410 1 7.02279 4.52745 -8.13868 
411 1 -1.18597 0.172603 12.4935 
412 1 -10.0878 -5.49084 -4.35893 
413 1 9.04801 -4.01063 1.54044 
414 1 -9.00081 -8.6094 3.43602 
415 1 10.2998 -2.33527 -1.76769 
416 1 3.88849 -12.39 5.18351 
417 1 -3.52623 8.71354 7.31372 
418 1 -9.99246 -1.76568 5.80079 
419 1 7.00289 -2.14921 2.1515 
420 1 12.8127 -7.68697 -1.98207 
421 1 1.63072 3.26077 -2.36314 
422 1 1.51534 10.8206 4.69417 
423 1 -5.40684 3.65987 5.6488 
424 1 1.16569 -10.423 5.89018 
425 1 -8.64315 0.0103994 -3.05516 
426 1 3.61647 3.33302 12.899 
427 1 2.2327 10.6526 1.699 
428 1 4.32917 -4.60491 11.5744 
429 1 11.3305 -5.12671 3.64038 
430 1 6.7515 8.90076 8.73754 
431 1 -0.663237 4.6258 -4.28394 
432 1 4.00746 -8.97504 -5.81655 
433 1 0.350681 5.28353 -10.245 
434 1 -2.75508 2.30804 8.05006 
435 1 14.537 2.20823 0.409604 
436 1 2.14239 11.0708 -9.02498 
437 1 3.45547 -6.25632 -9.49036 
438 1 -7.86944 -10.6452 1.26774 
439 1 -4.53023 -3.29206 -6.96548 
440 1 1.91259 -5.32605 -11.9685 
441 1 -2.90382 -5.97355 -1.34951 
442 1 -0.175537 -5.6985 10.9237 
443 1 -1.13818 -0.400499 -0.93827 
444 1 -0.722021 -9.46176 4.21722 
445 1 10.1323 0.527915 -5.66644 
446 1 -5.73983 9.99887 2.04918 
447 1 8.09938 -1.27257 6.9681 
448 1 -15.1656 0.192547 1.74863 
449 1 7.53006 9.85046 2.24064 
450 1 5.05906 3.64564 7.5992 
451 1 -10.5811 1.50365 -8.19734 
452 1 -0.437436 3.95043 -7.37671 
453 1 6.63044 -9.35584 3.49178 
454 1 -8.03767 -3.36464 -2.74653 
455 1 -6.46411 -5.26775 2.5989 
456 1 7.56518 1.93328 6.30761 
457 1 -5.59707 10.326 5.66034 
458 1 1.16064 9.57843 -6.17835 
459 1 8.08562 -7.57924 8.79906 
460 1 1.18803 -4.31819 2.14354 
461 1 -12.8376 -1.39368 6.19753 
462 1 -4.76627 -0.580849 -9.93824 
463 1 -4.66396 -9.61466 7.82644 
464 1 4.511 -1.48086 10.8853 
465 1 -2.10113 -12.5264 -0.785569 
466 1 7.71489 -1.83566 -6.90354 
467 1 -9.64831 5.62855 -1.47052 
468 1 -7.86095 0.28596 7.12456 
469 1 -2.48767 -1.09619 -5.45555 
470 1 4.17805 -12.193 -4.90819 
471 1 8.36717 5.8388 -0.141379 
472 1 9.06147 -0.620412 0.511933 
473 1 -1.89418 -10.6285 6.94438 
474 1 4.74525 6.32285 -6.82768 
475 1 5.09205 2.84062 -6.42087 
476 1 -11.0408 4.68786 -5.4913 
477 1 3.93255 4.88113 -4.00779 
478 1 3.98263 9.78665 6.81114 
479 1 3.72116 7.9849 -4.47975 
480 1 -10.0872 6.05083 1.67687 
481 1 5.64886 -3.64002 -5.08048 
482 1 -1.17293 -2.87925 2.60839 
483 1 1.12099 -12.5409 7.76162 
484 1 -4.99197 0.352316 6.10187 
485 1 7.11941 5.48917 9.29025 
486 1 10.4659 -6.43493 -4.10342 
487 1 2.723 -3.68549 -4.29904 
488 1 -3.28231 8.8716 -6.81903 
489 1 -3.35228 8.64904 3.96777 
490 1 -3.6811 1.0246 -2.98045 
491 1 -2.0683 6.3998 -1.66729 
492 1 -0.981588 -6.29443 3.749 
493 1 2.72806 -9.63624 -0.0788377 
494 1 -2.22709 6.34224 -12.1959 
495 1 -9.02321 -1.33439 -0.326461 
496 1 -6.37206 5.14732 -5.52238 
497 1 9.74754 -2.44572 9.83532 
498 1 -9.51047 -6.06408 5.31433 
499 1 12.6966 -0.217763 -0.229204 
500 1 0.286832 8.5379 -10.7606 
501 2 -11.3689 -0.0833755 -8.6407 
502 2 -6.0069 12.0916 -4.66909 
503 2 2.26699 1.69912 -11.3196 
504 2 -4.46525 2.41941 9.83205 
505 2 -6.24248 -4.05414 -7.75091 
506 2 3.29231 3.24145 10.2603 
507 2 -9.17103 1.08866 3.69523 
508 2 8.51468 5.03734 4.16369 
509 2 0.979499 -2.10915 8.68165 
510 2 -3.92976 -4.83599 -5.55604 
511 2 -7.33678 -3.06743 -10.3601 
512 2 -10.448 3.55423 -1.66178 
513 2 0.2506 -7.65362 3.98178 
514 2 5.58776 2.05644 8.6485 
515 2 2.68255 -4.69673 -10.4109 
516 2 8.41409 -2.40058 0.595516 
517 2 -6.65789 10.59 -1.83105 
518 2 10.2247 6.9985 5.87122 
519 2 -6.38826 -7.01535 1.59729 
520 2 -9.22613 -4.18896 8.24565 
521 2 -4.81248 -11.9542 4.31633 
522 2 4.5467 -7.08998 7.60428 
523 2 -9.27232 9.05778 -0.209865 
524 2 -5.21377 8.12859 -7.4295 
525 2 -2.44057 7.1328 8.00496 
526 2 -6.16949 4.95858 2.38433 
527 2 2.69578 -1.38352 -0.646901 
528 2 9.07139 -6.38652 -2.42549 
529 2 -4.34296 -1.44148 -6.30775 
530 2 -0.476351 -5.18947 -9.5868 
531 2 -1.80411 -2.27503 -4.01145 
532 2 7.38616 2.88558 -10.6994 
533 2 3.13798 -4.22462 2.95237 
534 2 7.08535 6.95076 -4.07373 
535 2 -7.6539 12.9668 -1.49784 
536 2 -0.980252 -5.89626 -4.04804 
537 2 6.42891 -4.68599 8.87885 
538 2 9.29892 -1.35653 5.16641 
539 2 -12.2729 4.83409 -3.76982 
540 2 4.01054 -3.29296 -2.75796 
541 2 -0.294905 -0.0465559 0.952347 
542 2 6.96574 7.13665 -0.738627 
543 2 7.889 -11.0507 3.23874 
544 2 -2.39775 4.06391 8.56894 
545 2 2.99492 10.5394 3.38855 
546 2 0.590313 4.16422 -5.64005 
547 2 -7.2629 3.74824 8.19985 
548 2 4.09535 3.84667 -9.92898 
549 2 -8.40151 -2.23133 -6.8695 
550 2 -11.6028 2.50294 1.24398 
551 2 -10.1154 -7.23314 3.40965 
552 2 3.66482 -10.8421 3.95225 
553 2 0.566252 -3.38001 11.0682 
554 2 -1.89196 5.4777 5.78546 
555 2 -8.28777 2.53666 0.648641 
556 2 0.0470855 -7.87618 -6.37522 
557 2 10.4637 -0.544499 -0.772743 
558 2 1.4995 -10.1776 -1.83422 
559 2 5.9995 -1.75188 -4.74403 
560 2 0.243173 8.15729 7.59537 
561 2 10.3223 -8.2727 -4.90295 
562 2 6.16776 -4.33758 11.7526 
563 2 -3.27143 -2.84749 5.26141 
564 2 13.4875 0.0106265 -2.13985 
565 2 1.72346 -2.20034 5.4722 
566 2 -0.858204 -8.6187 -0.559757 
567 2 6.71204 -4.8406 -1.12527 
568 2 1.40967 -2.53271 -4.66469 
569 2 2.30291 -5.47952 -4.95148 
570 2 -5.246 -7.48844 -7.89578 
571 2 -10.9351 -4.26464 2.60211 
572 2 -2.0348 -6.6118 1.92462 
573 2 -4.93589 -9.94251 -3.36794 
574 2 -4.43332 10.0099 0.331891 
575 2 6.47296 2.88528 -7.7273 
576 2 9.29171 10.0856 -5.91288 
577 2 3.28089 2.72811 -7.07327 
578 2 -5.51623 5.5958 9.94887 
579 2 -2.39211 1.18928 -1.2491 
580 2 -11.6914 2.92168 4.81508 
581 2 -6.98145 0.38873 9.0281 
582 2 -7.13372 3.48337 5.19846 
583 2 -4.93183 2.59452 -3.12001 
584 2 9.80136 -4.7354 -4.93358 
585 2 11.6724 -7.35951 -0.086914 
586 2 6.70498 3.28373 2.73917 
587 2 1.09742 8.88456 1.5254 
588 2 -4.45607 6.92591 4.03534 
589 2 -0.398595 3.476 0.149133 
590 2 9.39281 5.75903 -2.00115 
591 2 1.41249 8.41812 -1.72409 
592 2 6.77017 10.1126 -4.43702 
593 2 0.699639 4.73498 8.09074 
594 2 -3.44746 0.404851 4.69156 
595 2 6.92637 -7.20773 10.332 
596 2 3.51573 -0.573246 -6.51614 
597 2 -0.483381 3.72178 10.773 
598 2 6.69415 8.62242 -10.5368 
599 2 -5.34949 -6.64671 5.83647 
600 2 -2.36463 -11.3411 -5.18216 
601 2 -0.779524 -4.31156 -6.39114 
602 2 7.7444 -11.4596 0.240915 
603 2 -2.12112 -2.10535 -0.949411 
604 2 8.91287 8.19588 -7.80167 
605 2 -3.66191 3.14966 -9.49482 
606 2 -4.54546 10.5077 3.75469 
607 2 -3.7271 3.12391 1.07792 
608 2 -7.04862 -4.72815 -1.44013 
609 2 0.517353 10.2781 -9.78504 
610 2 1.15629 11.6429 -2.33274 
611 2 1.80596 5.88598 11.9839 
612 2 4.28814 -10.167 -1.48127 
613 2 8.94595 1.79693 4.6894 
614 2 11.1667 -7.02511 3.01815 
615 2 6.14602 6.40963 2.22551 
616 2 -1.46854 7.91725 -11.281 
617 2 4.85537 -9.61638 10.7704 
618 2 -0.501484 -12.8946 9.35847 
619 2 5.99238 -12.0075 5.62801 
620 2 -2.05289 8.47134 -8.41068 
621 2 -0.953214 -12.4268 -2.53677 
622 2 -3.3295 -3.59937 -8.58021 
623 2 -2.59924 -7.49451 -10.7483 
624 2 8.09049 8.53084 7.04079 
625 2 -9.76604 -3.78509 -3.56901 
626 2 -9.91794 4.7639 6.05216 
627 2 9.05524 -4.22593 9.64501 
628 2 -3.94504 -12.3154 1.29963 
629 2 0.977565 0.347398 -8.67834 
630 2 3.54355 -0.213623 -3.55875 
631 2 -3.29433 -0.517915 -12.1797 
632 2 -8.2586 -5.71307 -8.99823 
633 2 -6.24406 -3.05479 9.37581 
634 2 -9.42888 -4.78284 -6.19722 
635 2 5.4958 -9.36504 -8.26056 
636 2 8.44317 -2.86354 -2.53601 
637 2 -3.89371 -5.65735 0.268159 
638 2 0.528546 -3.98143 -12.0715 
639 2 5.07535 -2.47258 1.46797 
640 2 2.98283 3.02288 -3.94155 
641 2 -8.03957 -5.38502 4.25991 
642 2 -0.483919 10.3378 -6.71382 
643 2 2.16581 10.2094 6.45675 
644 2 12.1462 1.7629 3.7807 
645 2 -11.8318 -2.60999 7.48004 
646 2 -2.38891 -12.6103 6.6549 
647 2 0.867148 3.90785 -8.81349 
648 2 -1.78079 5.25957 2.93901 
649 2 0.0790073 -2.73291 1.07796 
650 2 -6.02216 1.45752 2.56053 
651 2 -7.68463 6.64327 4.63472 
652 2 -6.54706 -2.94785 5.96141 
653 2 -1.92706 -12.3145 3.89264 
654 2 -13.4985 0.579349 2.57367 
655 2 -6.79395 -7.93639 -1.18045 
656 2 -5.73474 -9.91941 6.11835 
657 2 5.75424 -12.6921 2.56876 
658 2 2.53905 9.32496 -7.86925 
659 2 -0.28713 -4.38407 3.45228 
660 2 6.32543 10.0095 -1.39963 
661 2 10.2303 4.09832 -7.66271 
662 2 -1.47834 12.7719 -1.18058 
663 2 -10.3643 -3.21956 -9.36145 
664 2 -12.0388 1.47207 -3.27812 
665 2 -0.37054 -13.6592 -5.76247 
666 2 5.86949 -8.98748 5.36329 
667 2 7.81034 -6.64716 7.07687 
668 2 -5.49939 8.65032 -4.3112 
669 2 7.63974 0.622226 0.351685 
670 2 5.74432 -1.19416 12.354 
671 2 -1.25574 -1.29245 -6.97956 
672 2 4.0332 4.51481 3.82357 
673 2 3.50073 7.61199 3.70969 
674 2 -2.41741 1.74221 12.4557 
675 2 -9.33154 1.43763 7.09962 
676 2 -1.15178 -0.660617 6.83323 
677 2 4.82493 8.00636 -6.12937 
678 2 -5.8312 -6.6318 -3.6859 
679 2 -6.57901 0.171202 -5.27428 
680 2 -8.96984 -1.67505 7.38839 
681 2 4.38051 8.29459 -2.66148 
682 2 0.62191 -3.59511 -1.88195 
683 2 11.9863 4.82509 0.37156 
684 2 13.1845 -5.45319 1.61531 
685 2 -13.3159 0.129196 -0.967058 
686 2 -0.821296 6.65368 10.3241 
687 2 -4.91891 5.13471 -6.92308 
688 2 4.11075 0.893453 -9.47407 
689 2 -10.7498 7.16201 -2.49626 
690 2 1.63956 -5.32663 9.1779 
691 2 1.59409 4.77266 -1.3121 
692 2 -7.75726 -0.766912 0.948566 
693 2 7.03611 -8.34193 -4.03324 
694 2 1.75334 -13.0253 -0.971453 
695 2 -4.25565 6.57531 0.564349 
696 2 0.439335 -11.0678 4.08996 
697 2 -9.2255 4.5996 -7.8525 
698 2 -1.0506 -11.7421 0.460113 
699 2 5.28884 5.45211 8.69768 
700 2 0.675953 7.2099 -9.28728 
701 2 0.444015 7.61621 -6.12616 
702 2 8.12668 5.76804 -9.46913 
703 2 -1.12538 9.79534 -0.479747 
704 2 -3.55929 8.0364 11.2 
705 2 -10.9625 -4.90095 5.68256 
706 2 -1.66442 -9.64293 2.56756 
707 2 -1.18529 2.24183 3.07943 
708 2 -11.6882 -1.92763 -2.75849 
709 2 -3.49075 -4.53637 7.3858 
710 2 1.80677 5.03748 -11.5214 
711 2 2.27205 -0.839155 2.41299 
712 2 7.94295 0.529644 -3.03966 
713 2 3.66154 -0.155248 7.11605 
714 2 -9.9949 -3.17228 -0.273951 
715 2 2.34408 -1.51543 -10.9834 
716 2 7.28525 4.07242 -0.275415 
717 2 8.19797 5.37964 7.61596 
718 2 6.8349 -5.08008 -4.27859 
719 2 -7.44726 -3.90085 1.71428 
720 2 -3.72094 13.6353 -6.26119 
721 2 2.9868 6.50967 6.51999 
722 2 -2.35372 0.667068 -4.69813 
723 2 2.95116 -11.3836 1.23974 
724 2 -3.15555 -10.7217 8.53336 
725 2 -4.53848 -0.803753 -3.09124 
726 2 10.6907 3.59033 6.30325 
727 2 3.99739 10.3484 -9.74777 
728 2 0.55947 11.5154 0.961152 
729 2 1.87952 2.44097 2.20025 
730 2 1.32165 -9.15085 1.5865 
731 2 3.54843 -12.3221 -3.09749 
732 2 6.24856 5.58548 -11.5874 
733 2 4.43966 1.40077 4.21818 
734 2 4.68107 5.1764 12.5452 
735 2 3.1864 3.27093 6.83547 
736 2 5.83769 -5.46395 4.89586 
737 2 -1.4828 4.80918 -10.8398 
738 2 11.471 -2.81124 -3.29114 
739 2 -6.44542 8.14447 2.0671 
740 2 2.8058 -9.23027 -7.41618 
741 2 0.212719 0.22261 11.2604 
742 2 2.30788 -5.42289 5.57655 
743 2 -5.6209 0.918942 -0.612553 
744 2 -6.79537 5.84038 -9.75509 
745 2 11.9537 -6.15649 -2.91701 
746 2 -0.325186 10.77 3.84449 
747 2 11.2714 7.98946 -0.555157 
748 2 14.2301 2.19078 2.17811 
749 2 -9.7019 -0.354765 -4.59676 
750 2 -3.64093 10.7271 -6.18427 
751 2 -6.89798 3.41441 -5.70643 
752 2 -5.27013 -2.37699 -0.389509 
753 2 7.49806 3.80674 -3.61028 
754 2 -8.60387 8.64736 -3.10084 
755 2 -2.29695 -6.20026 5.16706 
756 2 5.88225 -1.20928 9.21836 
757 2 1.48393 -13.9809 -3.87515 
758 2 2.24033 -5.97872 -7.70547 
759 2 3.96873 11.3724 -2.96895 
760 2 3.30767 10.6543 -0.188093 
761 2 -2.91707 -0.357602 -9.34288 
762 2 0.5073 -10.8181 -5.54668 
763 2 9.83144 -0.266524 2.19426 
764 2 -6.21642 7.49694 -1.39519 
765 2 5.00196 -12.9677 -0.616997 
766 2 7.54787 -3.25187 6.49375 
767 2 -4.67463 -5.0519 3.37852 
768 2 -8.0739 -7.80028 -6.66326 
769 2 4.06413 7.98636 11.7566 
770 2 -0.574794 6.40615 -3.09609 
771 2 -11.6347 5.69146 0.675843 
772 2 3.96206 4.04482 0.664182 
773 2 -0.081132 -7.5125 7.2538 
774 2 -4.61411 12.9681 -0.288106 
775 2 -6.43249 -10.4673 -0.262332 
776 2 -2.70863 -9.37731 5.78943 
777 2 7.40464 1.06567 10.9364 
778 2 -9.20669 4.3452 2.71296 
779 2 -3.40402 7.85996 -2.24694 
780 2 1.37804 1.34574 8.40214 
781 2 -7.51333 -9.65895 -3.95267 
782 2 12.5703 -1.78851 1.00932 
783 2 7.65091 -7.14834 -6.9595 
784 2 -3.95906 10.7683 -2.88966 
785 2 -2.02226 0.985616 9.20647 
786 2 -7.72351 2.06597 -2.82821 
787 2 6.80651 -8.1553 -0.801433 
788 2 3.81535 6.94742 0.18523 
789 2 -4.94866 5.48587 6.54212 
790 2 -4.42785 -0.851779 7.53833 
791 2 2.00307 1.5863 -1.07126 
792 2 -1.84349 5.39048 -7.62664 
793 2 -9.7184 3.26491 -5.21786 
794 2 0.0298861 -0.242967 -2.55915 
795 2 -0.613221 -1.61897 -11.2867 
796 2 1.16245 0.773102 -5.61541 
797 2 -5.08804 -2.13287 -11.1417 
798 2 5.12795 -5.86022 -8.83327 
799 2 -3.34928 -11.2338 -1.60335 
800 2 2.37535 -8.83852 9.10373 
801 2 -2.65337 4.03441 -5.04808 
802 2 3.26098 0.0341019 10.6574 
803 2 0.844712 4.26394 4.72551 
804 2 7.00775 -4.04702 -6.85869 
805 2 2.69694 -12.0665 6.61156 
806 2 7.63173 7.29844 9.39357 
807 2 -3.29874 11.8851 5.50302 
808 2 -12.5526 -3.19387 -0.274554 
809 2 12.3681 5.30221 -2.7759 
810 2 2.73211 -12.0486 9.3113 
811 2 -9.53851 8.06693 2.87579 
812 2 8.73361 1.76632 -5.82198 
813 2 6.07932 6.45998 5.59863 
814 2 -15.239 1.71144 0.643494 
815 2 1.65972 12.8732 -5.02453 
816 2 -8.47933 5.56737 -3.15397 
817 2 -0.246279 2.85687 -3.13332 
818 2 4.86193 -2.56016 -8.91053 
819 2 -4.71604 2.25068 6.80524 
820 2 -4.02899 -4.14777 10.9909 
821 2 10.8751 0.402909 6.57829 
822 2 11.4388 1.90663 -6.32756 
823 2 -6.697 -3.17679 -4.17321 
824 2 1.48707 -6.07408 1.22007 
825 2 9.20303 -1.63901 -5.60396 
826 2 -0.931942 6.61835 0.206485 
827 2 -5.43354 -9.99861 -6.35656 
828 2 -11.6561 3.10625 7.59373 
829 2 -5.67809 -1.83492 3.00116 
830 2 5.38364 -10.9814 -5.67385 
831 2 0.200951 -11.2051 -7.81385 
832 2 -4.38854 -8.55527 3.61006 
833 2 10.8032 0.529583 -3.80044 
834 2 -1.97118 11.9717 -8.31634 
835 2 5.29017 9.72613 5.41888 
836 2 -3.00977 -7.6632 -2.41186 
837 2 6.62293 0.133171 6.2249 
838 2 -9.77435 5.69576 8.94055 
839 2 -3.1318 4.70942 -1.61452 
840 2 -4.08393 6.66762 -9.9136 
841 2 1.70366 -2.75461 -8.33835 
842 2 -8.01565 -6.65984 6.74818 
843 2 -8.80038 6.09331 0.11122 
844 2 5.76701 6.39133 -8.4396 
845 2 -2.93907 7.47482 -5.39895 
846 2 4.98064 4.68338 -5.64702 
847 2 -0.944072 1.70445 -10.761 
848 2 4.53634 -6.61453 -2.87611 
849 2 -11.7565 1.19322 -6.60287 
850 2 4.96382 8.63891 8.31943 
851 2 -5.92066 4.15979 -11.8935 
852 2 -11.2185 -0.761138 2.02536 
853 2 9.22893 -0.752873 8.74604 
854 2 5.29701 2.41425 12.4467 
855 2 8.04012 5.01851 -6.51887 
856 2 1.4736 12.8681 -8.2709 
857 2 -0.859664 9.63531 -3.80937 
858 2 14.205 3.29934 -0.941375 
859 2 -4.01971 1.49812 -7.209 
860 2 6.08514 10.1549 -7.68264 
861 2 2.36744 2.16976 12.2139 
862 2 -4.88876 -5.57073 -9.98227 
863 2 -0.921687 -5.59643 -0.763616 
864 2 8.28839 -2.13203 11.24 
865 2 -2.42126 8.36084 2.27847 
866 2 11.8953 -9.28563 -1.84251 
867 2 2.77005 -8.84925 -4.14768 
868 2 -3.07142 10.4089 8.48095 
869 2 7.5462 -9.4958 8.27006 
870 2 -5.37615 5.5542 -3.8786 
871 2 -7.66308 10.4788 1.34431 
872 2 -7.50526 6.81654 -6.0404 
873 2 -1.57157 12.6311 -4.38314 
874 2 -8.73763 -6.65315 -3.76335 
875 2 0.908984 -7.01336 -11.873 
876 2 -9.1271 2.33931 9.63116 
877 2 11.455 -3.94468 -0.853499 
878 2 -0.379728 14.0002 -6.91208 
879 2 -10.3271 -0.0893012 9.62184 
880 2 3.96738 -4.70716 -0.460132 
881 2 -2.36147 -6.62199 -7.6705 
882 2 2.61795 6.72386 9.76037 
883 2 0.333225 -8.66425 -9.34481 
884 2 -6.71664 2.65934 -9.09096 
885 2 5.93216 1.53097 -5.14172 
886 2 -4.03835 5.96978 -12.7094 
887 2 -5.45448 8.84743 6.91516 
888 2 -8.72 8.96794 8.37539 
889 2 2.45321 9.412 -4.74801 
890 2 -8.33761 -8.86217 1.71064 
891 2 9.27181 1.77532 -8.76145 
892 2 6.60097 -0.36033 -7.45279 
893 2 -2.99279 -3.28878 1.92368 
894 2 -7.57317 -9.02386 4.56314 
895 2 -10.1091 6.45733 -5.68843 
896 2 -13.0088 -2.61759 4.5328 
897 2 2.73466 5.84324 -7.24133 
898 2 6.95477 -0.515416 3.2201 
899 2 4.98293 -10.4137 8.02832 
900 2 7.15095 4.16147 10.839 
901 2 4.41022 -3.72253 7.02529 
902 2 -7.33264 6.96924 7.61512 
903 2 4.28262 7.47065 -11.3742 
904 2 -2.78913 5.03139 11.6461 
905 2 -0.696185 -9.36986 -3.44086 
906 2 -9.21117 -6.11387 0.360901 
907 2 -0.841233 -9.36493 9.97147 
908 2 -6.83804 0.137257 5.40651 
909 2 4.49087 0.815725 1.20384 
910 2 -1.01782 2.047 -7.29309 
911 2 -11.3894 -1.90766 -6.49229 
912 2 -2.5763 8.84047 5.61585 
913 2 9.90148 -4.89773 5.24135 
914 2 7.90271 8.67404 3.89056 
915 2 -3.99192 -8.86246 0.372377 
916 2 -8.82587 -1.79531 3.96658 
917 2 -13.6642 3.01586 -1.01175 
918 2 -2.21829 -2.28129 9.52899 
919 2 4.2565 -6.48651 10.9902 