ITEM: TIMESTEP
1299000
ITEM: NUMBER OF ATOMS
1000
ITEM: BOX BOUNDS pp pp pp
-30.0 30.0
-30.0 30.0
-30.0 30.0
ITEM: ATOMS id type x y z Coordination
1 1 -4.50186 -6.36638 -6.5284 21
2 1 6.63436 -9.84906 6.73312 17
3 1 -10.8252 8.73862 3.40769 12
4 1 -10.0002 -1.22084 -9.87574 14
5 1 2.41283 -6.49932 10.4115 21
6 1 -5.11608 5.88564 -11.3268 14
7 1 -2.83594 2.03509 -5.72644 22
8 1 -5.37869 -12.1442 2.23336 11
9 1 7.22242 -2.37011 12.6517 12
10 1 -0.712011 1.56352 9.93127 23
11 1 6.15842 1.01343 2.07585 23
12 1 0.840385 12.3723 -7.03201 16
13 1 2.08094 0.782477 12.4674 13
14 1 -9.30052 2.17248 -0.930389 20
15 1 -1.90894 -1.6805 -8.45041 22
16 1 4.08745 2.13685 10.6088 23
17 1 3.78747 -2.56129 -7.683 24
18 1 1.44175 3.78027 11.6249 19
19 1 0.592793 -12.3804 8.78365 12
20 1 -12.6907 -1.05829 7.19967 14
21 1 -12.5156 5.55824 -1.62684 10
22 1 -3.14185 12.8669 0.524507 15
23 1 0.524608 -2.72478 -6.81168 21
24 1 3.79212 -9.45738 -9.36865 14
25 1 -0.342594 -1.4493 10.5627 22
26 1 -12.6892 5.81775 3.19088 13
27 1 -0.452425 11.8682 -1.15731 17
28 1 -0.143805 -12.8836 5.04424 17
29 1 10.6413 -9.81977 -3.35836 11
30 1 5.55887 -0.396075 4.89031 24
31 1 -8.99276 7.08313 -4.07283 17
32 1 1.70763 5.95505 -6.12215 24
33 1 0.161538 5.86227 3.39992 23
34 1 4.5801 6.84693 7.25621 23
35 1 -6.50183 -2.01735 1.93641 22
36 1 6.70824 1.01747 12.4327 13
37 1 -11.6189 0.266313 0.930532 21
38 1 9.58713 0.828489 8.41881 15
39 1 7.70069 -1.42292 -3.84036 22
40 1 5.40546 0.384264 8.03684 22
41 1 -9.03539 -3.90771 3.37941 21
42 1 -3.54626 -10.7072 -8.18104 14
43 1 -7.22495 9.21836 -2.66574 18
44 1 -1.26717 10.3569 -8.32176 18
45 1 2.24032 -0.553018 -5.15694 22
46 1 8.18303 1.50031 -7.7142 22
47 1 6.05207 -6.83328 6.28397 21
48 1 0.156251 -8.36681 12.0902 12
49 1 -3.08784 5.50292 7.6185 22
50 1 -1.92637 -7.41259 9.72491 16
51 1 -8.32791 3.28995 6.88816 22
52 1 8.22497 -7.74844 -2.18394 19
53 1 7.96234 1.1036 -11.5748 11
54 1 2.8082 1.25816 6.12806 22
55 1 -1.35095 10.3403 5.38954 20
56 1 -7.53697 4.47544 -9.21246 15
57 1 2.30473 7.36817 1.81838 22
58 1 -0.38935 0.740392 -3.90449 22
59 1 -1.6251 -10.7137 10.0011 13
60 1 -1.94534 -4.97466 -8.30379 18
61 1 8.37148 -8.70375 -5.1729 15
62 1 -2.68282 1.95039 4.73301 24
63 1 -11.9731 -2.57881 -1.00796 14
64 1 5.52066 -3.73965 5.96105 22
65 1 -7.26669 -5.23396 -7.64884 19
66 1 11.4497 -10.2626 -0.745195 10
67 1 -5.50717 6.54079 2.30456 21
68 1 -4.09827 4.6511 -0.391123 23
69 1 5.1512 2.42703 -9.75638 18
70 1 12.4111 -7.78304 1.35077 10
71 1 -6.09844 -9.01217 2.96615 19
72 1 9.02917 7.06723 7.48155 15
73 1 6.21495 3.69629 -1.8415 24
74 1 -4.51176 14.3568 -4.80427 12
75 1 1.11022 -4.85491 -8.69347 21
76 1 -1.4149 11.1061 -5.0785 23
77 1 6.00485 -0.864439 -9.47029 18
78 1 2.43554 -3.2217 -1.54706 21
79 1 2.76101 3.59168 -11.6567 13
80 1 8.18427 -12.0413 4.22483 9
81 1 -5.04713 6.59004 -8.49919 17
82 1 -1.71534 3.00899 -1.43238 21
83 1 6.87004 8.38111 -5.45272 18
84 1 8.15021 9.16719 -0.800127 19
85 1 -4.24923 7.6614 -4.01995 23
86 1 -3.79857 -2.39287 -12.6792 12
87 1 -10.8142 -1.66366 -4.12826 18
88 1 -3.7398 9.8931 9.92959 10
89 1 -1.53396 14.6376 -5.92456 12
90 1 1.97523 -3.12623 10.183 18
91 1 -7.75031 -3.24699 8.06533 18
92 1 -4.07894 -10.1998 4.9931 20
93 1 -0.123301 8.35198 -0.236284 23
94 1 14.1457 3.84044 -2.7855 10
95 1 1.13178 -11.8864 12.3188 6
96 1 -7.76244 8.37939 3.63221 21
97 1 -0.796878 7.4108 5.90376 25
98 1 -2.48759 1.96532 -9.01366 21
99 1 -6.93855 -5.39217 5.72965 20
100 1 -6.926 -8.50272 6.31424 14
101 1 -1.18314 0.301851 2.30948 24
102 1 -2.62935 -1.15862 5.66104 20
103 1 -5.25878 -0.87957 -4.70171 23
104 1 4.95737 -7.98315 -1.4001 22
105 1 -2.33562 6.87292 11.6686 14
106 1 -6.81166 1.43769 1.2923 22
107 1 -8.79494 0.28009 -6.27563 20
108 1 -2.41347 -11.5359 2.3412 20
109 1 9.31772 3.53149 -6.07766 18
110 1 7.03778 2.64629 9.6814 19
111 1 -4.33907 -3.36721 3.90071 21
112 1 -2.65146 8.40227 -10.0848 16
113 1 -3.53328 -7.50834 -9.72651 16
114 1 -7.34243 12.5074 -3.35574 9
115 1 8.37596 3.2829 3.63502 22
116 1 -3.81151 12.4034 -7.19738 14
117 1 0.765215 2.15169 -9.94243 19
118 1 -1.5627 3.4397 1.73543 24
119 1 -6.98116 5.26117 8.98732 16
120 1 -9.74912 7.7584 8.65843 11
121 1 -0.849717 -12.5162 -7.39612 12
122 1 -0.298561 0.808479 6.877 22
123 1 -4.60175 0.176172 3.17167 23
124 1 2.45632 -6.47211 -0.307905 22
125 1 7.05687 4.09611 -11.6555 13
126 1 0.950004 9.81256 -2.99025 22
127 1 -9.52437 2.48484 2.23225 24
128 1 3.59072 5.15253 10.1599 23
129 1 12.1569 -1.12315 -3.61397 14
130 1 2.18731 7.85055 5.05483 25
131 1 -8.4872 6.32447 6.232 25
132 1 -6.4775 -6.41319 -10.6563 11
133 1 3.35773 -5.00338 7.28614 21
134 1 0.334509 -8.70571 -2.03406 20
135 1 -1.53792 -0.104762 -10.8953 18
136 1 9.33799 7.16821 -6.72201 15
137 1 -10.4348 0.876939 5.39113 25
138 1 -8.79415 -3.951 -10.1201 13
139 1 -2.80136 -8.6317 -1.13562 21
140 1 1.65122 -7.75658 2.71247 24
141 1 -5.89468 -3.7569 -10.3466 16
142 1 -12.3917 -0.634837 -7.15756 11
143 1 9.39026 4.07441 8.14987 15
144 1 5.36563 -5.86735 9.06273 23
145 1 3.78624 -5.47549 4.07577 21
146 1 5.76812 7.57252 0.9549 24
147 1 -12.3988 -4.09171 4.14634 13
148 1 -0.783874 11.7693 2.51927 17
149 1 -0.741616 -6.98473 -10.8214 17
150 1 -3.48757 -12.6688 -5.4453 11
151 1 -5.51576 -7.35212 0.447591 22
152 1 -3.50466 -5.29905 1.8093 21
153 1 0.693398 -4.13961 5.23755 20
154 1 12.8778 3.37939 3.66821 13
155 1 -5.18145 -4.3956 -3.73471 22
156 1 -5.49185 -4.30599 10.4056 13
157 1 -5.59237 -10.4729 -2.84228 10
158 1 2.02927 2.63451 -5.40456 21
159 1 -0.169864 -13.3427 1.91896 14
160 1 5.84231 -7.06927 -4.29996 20
161 1 1.8394 -13.6385 -2.67752 10
162 1 -8.7553 3.0903 -6.47105 19
163 1 10.0483 8.411 4.61477 12
164 1 -4.97453 3.20443 -7.93911 22
165 1 -0.827305 13.1964 -9.10111 10
166 1 -2.55773 -4.17463 9.47298 21
167 1 -1.24285 7.79784 9.15858 20
168 1 10.5456 4.77115 1.91047 15
169 1 -11.7236 7.29111 6.46507 13
170 1 -3.18608 -4.31427 12.6561 10
171 1 -2.10081 11.8501 7.3659 9
172 1 1.44464 -7.92425 -7.9938 22
173 1 2.78024 -12.5864 0.396428 14
174 1 6.36936 -4.11252 -8.7589 14
175 1 1.58581 -7.17403 5.56518 20
176 1 -2.93126 -0.721541 8.58858 22
177 1 -9.21078 -0.444722 2.91037 24
178 1 7.2476 -9.3601 0.388984 22
179 1 -2.70063 9.91309 0.844684 25
180 1 -5.43815 6.5887 5.25729 24
181 1 0.391414 2.42404 3.90125 22
182 1 3.83433 -12.1616 7.71359 13
183 1 -0.477044 4.0609 6.33879 23
184 1 -15.0954 0.423895 -0.0792334 10
185 1 3.50211 -2.40934 3.31463 23
186 1 -4.70062 11.2597 -1.15601 22
187 1 -6.10899 1.97137 -5.07735 21
188 1 -14.5149 3.54258 0.690751 12
189 1 -7.15076 -1.89309 -8.25232 22
190 1 -4.71878 8.07023 -0.879786 22
191 1 8.06437 -0.832451 9.95407 18
192 1 3.97557 -8.86166 4.88921 20
193 1 -3.72848 1.17858 0.48183 23
194 1 -4.48247 -6.8733 4.68036 24
195 1 6.449 -10.6029 -7.10977 11
196 1 -7.61314 1.271 -8.80904 20
197 1 -12.1759 0.328476 -1.91417 15
198 1 -8.56261 -7.39616 0.0783881 13
199 1 -3.1763 -2.4259 -2.6775 23
200 1 12.0461 1.97351 -4.43549 17
201 1 -5.19761 2.51704 -11.06 19
202 1 3.01597 0.832176 2.74185 20
203 1 -3.72261 11.9067 3.89112 13
204 1 -9.10274 10.5554 1.29181 10
205 1 -10.7016 4.72926 8.25308 15
206 1 10.3354 -3.03298 -5.25962 15
207 1 11.937 5.4007 -4.73917 12
208 1 2.60441 4.56934 5.55074 25
209 1 -6.41952 5.96013 -2.33346 23
210 1 -0.0828615 -5.49796 -2.37202 21
211 1 -0.380333 8.73612 3.1132 24
212 1 4.29108 1.44952 -3.19971 21
213 1 -8.45964 3.74659 -3.67619 24
214 1 8.22363 -11.9058 -1.83146 9
215 1 11.3306 -1.23407 5.82694 13
216 1 -10.0096 -2.92384 -7.0856 16
217 1 -2.91417 -8.35276 2.2328 24
218 1 -2.14919 9.71449 -2.20472 20
219 1 -11.886 3.69528 0.744007 22
220 1 -2.32962 -7.57808 -3.73261 22
221 1 -0.340043 -9.9538 1.09322 22
222 1 -4.98677 -10.2675 0.151086 18
223 1 -9.06422 6.52168 -6.87444 11
224 1 -3.09711 -13.3694 4.507 10
225 1 -8.94217 1.93675 9.21867 14
226 1 1.96335 0.114175 -1.7214 22
227 1 -7.13461 1.49924 4.46479 25
228 1 4.74037 -1.81471 -2.85484 20
229 1 -0.13522 -2.32212 7.65791 21
230 1 -12.6629 2.32948 3.21386 19
231 1 0.653 -8.78267 8.86721 23
232 1 -6.26088 -0.941787 9.77863 16
233 1 4.6069 -4.99221 -2.02032 21
234 1 4.78517 -10.8273 2.2358 20
235 1 3.16269 10.9212 -4.57491 15
236 1 -8.01491 -6.34575 8.58794 12
237 1 8.99631 -6.84087 5.53338 14
238 1 8.56206 2.57096 0.306927 23
239 1 -4.91355 3.36561 2.67758 23
240 1 1.22325 -1.27172 -9.82405 22
241 1 5.226 -2.69251 9.07144 20
242 1 0.248056 5.36496 0.0119626 21
243 1 -1.96073 3.22087 12.3701 15
244 1 3.09366 11.7967 -1.51395 15
245 1 7.06244 -5.61648 3.43652 21
246 1 1.27251 -12.921 -5.14643 12
247 1 4.27945 8.00122 10.0121 13
248 1 -12.6677 -0.855225 3.87417 21
249 1 -4.88994 -9.63486 -5.58509 16
250 1 -7.19205 -7.25303 -4.85994 15
251 1 -6.68159 8.54233 7.69413 16
252 1 -2.50572 -10.7072 -3.13009 21
253 1 -4.7375 -3.1184 7.1964 20
254 1 6.55532 4.19176 12.5557 11
255 1 9.40918 3.98119 -2.71656 22
256 1 2.42648 7.66749 -8.89445 19
257 1 -0.750368 7.36795 -8.04522 25
258 1 -4.05589 4.29004 10.4663 17
259 1 -11.1126 1.64216 -4.63615 18
260 1 9.13601 6.36932 -10.1582 12
261 1 -6.03251 -8.36553 -7.88149 14
262 1 1.53037 -1.7955 -12.8524 10
263 1 8.82623 7.2243 -2.95116 21
264 1 3.02248 8.72929 -1.0039 23
265 1 2.68401 4.03879 -8.23261 20
266 1 1.88646 -10.9158 3.15972 22
267 1 4.05518 2.09065 -0.0132505 25
268 1 -3.67184 4.26313 -13.8977 9
269 1 10.3347 7.71581 0.863694 16
270 1 8.97911 -7.22068 2.36963 20
271 1 -1.45698 3.13004 -12.0988 18
272 1 0.223688 -11.8195 -1.01168 20
273 1 5.7013 -7.67271 11.2731 14
274 1 -4.37058 0.0207297 -7.47284 23
275 1 2.71499 3.98299 2.4163 23
276 1 1.40882 5.39121 -13.8152 8
277 1 -11.2388 -2.99759 1.48988 19
278 1 14.4832 0.974503 -2.18939 10
279 1 1.07189 6.38471 -2.69566 24
280 1 -6.65422 8.6253 -5.94928 14
281 1 2.73167 -7.40421 -3.78968 19
282 1 3.01958 0.428731 -11.1569 14
283 1 8.28743 -5.26331 -6.15607 16
284 1 4.52509 -4.44133 1.03129 20
285 1 -4.67651 -6.23513 7.7808 19
286 1 -6.85223 13.2188 0.199748 10
287 1 3.81291 8.98776 -11.3745 11
288 1 11.5468 2.86793 -0.779483 22
289 1 2.72643 -10.571 -2.87324 21
290 1 -0.72095 -9.88109 -9.53873 16
291 1 3.55882 5.30899 -0.724355 25
292 1 10.4854 -6.06743 -0.545961 20
293 1 4.54516 -7.38844 1.8554 24
294 1 6.93694 -2.89144 -1.11155 21
295 1 -5.81896 2.41167 8.77683 20
296 1 -5.64627 -3.9175 -0.756617 24
297 1 -7.87762 -5.91003 -2.29788 17
298 1 0.184302 -5.40273 8.26328 22
299 1 4.34096 9.35713 -7.76607 16
300 1 -4.96699 10.9407 -4.69613 19
301 1 -2.44343 13.3706 -2.98319 17
302 1 -0.250126 -3.01161 13.172 10
303 1 5.94385 -10.026 -3.81073 19
304 1 5.23108 -0.360072 -5.9876 20
305 1 -8.59871 -4.13488 0.222094 19
306 1 -6.29289 2.38824 -1.88002 23
307 1 -6.91161 -1.96116 5.17448 23
308 1 5.57704 7.10782 -2.37033 21
309 1 1.628 -11.4789 -7.84771 14
310 1 5.87691 -10.3761 9.58795 11
311 1 6.87802 0.619316 -1.29496 23
312 1 1.31413 -1.34955 0.992508 24
313 1 -10.8566 4.22344 5.31181 22
314 1 12.3065 -4.24958 -2.47016 14
315 1 1.19623 6.84594 11.1211 16
316 1 -0.115574 0.864176 -6.91185 23
317 1 6.3423 7.95403 -9.3453 14
318 1 -0.843453 -3.43284 -11.009 20
319 1 0.417217 -9.44123 -5.24079 18
320 1 11.4974 9.09955 -2.20226 11
321 1 6.2993 -7.49364 -7.5695 16
322 1 5.43368 -11.4287 -0.990349 15
323 1 9.18632 10.0172 -4.18145 13
324 1 -7.20034 4.31431 0.607282 24
325 1 9.66891 3.3142 -9.99951 11
326 1 3.62272 -8.62166 7.9294 22
327 1 8.83059 -0.119534 3.81085 24
328 1 10.4101 5.21694 5.28099 16
329 1 -7.29806 -2.72337 -5.59089 19
330 1 11.7605 5.90746 -1.11088 16
331 1 12.1487 -3.48936 0.621313 14
332 1 -0.896546 -6.92854 0.684332 24
333 1 1.00013 9.73436 7.62398 16
334 1 6.91583 4.96688 6.0202 24
335 1 -5.30251 14.7496 -1.52444 12
336 1 -1.86113 -7.99562 -7.26566 19
337 1 -2.84673 4.85214 -9.60683 23
338 1 -3.88295 0.749725 -13.2724 12
339 1 -13.1175 3.10343 -2.62563 12
340 1 10.4101 -10.4781 1.97394 11
341 1 3.02089 -9.64351 11.2008 14
342 1 0.792957 1.91308 0.504702 23
343 1 3.03129 -1.81452 6.61919 20
344 1 11.1956 8.82821 -5.75291 9
345 1 7.42265 1.84116 -4.16291 22
346 1 13.5749 0.429826 3.42101 12
347 1 5.24454 10.3618 0.252884 17
348 1 11.4003 -1.47495 2.75509 18
349 1 -3.79596 0.953764 11.0226 17
350 1 -10.5772 -5.93615 1.77678 14
351 1 -6.99818 -0.948327 -11.3973 13
352 1 8.22478 -4.46139 7.79404 18
353 1 -9.44175 9.45535 5.89245 14
354 1 10.7769 1.63499 2.42118 22
355 1 8.87734 -3.54767 4.69531 19
356 1 5.28888 3.02605 4.38284 24
357 1 -13.5919 1.74882 5.76123 11
358 1 3.81841 -3.0142 -10.736 15
359 1 -2.31011 -4.51434 -4.95623 22
360 1 3.42825 6.50845 13.0638 10
361 1 4.70553 6.41353 3.83157 23
362 1 1.98725 -0.0275093 9.01574 22
363 1 -0.924875 4.79072 9.49942 22
364 1 -11.7015 1.55708 8.69817 11
365 1 -4.04092 4.13066 -3.72075 23
366 1 -2.96879 5.63501 -6.54185 24
367 1 5.74043 10.4114 -2.9941 17
368 1 -2.33792 -4.58906 6.1432 19
369 1 0.656491 12.9153 -3.78045 16
370 1 -0.843411 -3.47926 -0.381452 21
371 1 -5.27997 -7.46484 -2.46552 21
372 1 5.78318 4.46408 1.34371 23
373 1 -2.71556 5.21469 4.49223 22
374 1 -7.78434 7.68303 0.101236 22
375 1 6.71038 5.43736 -4.80569 21
376 1 1.62055 3.25848 8.33285 23
377 1 7.07493 8.26386 5.6428 18
378 1 -5.8237 -0.770135 -1.26917 24
379 1 -3.46289 -5.373 -12.1734 11
380 1 1.66452 6.57799 7.91539 24
381 1 8.33611 -4.84005 -3.38912 22
382 1 4.23121 9.48359 3.21736 17
383 1 -14.5756 -2.45016 1.73317 11
384 1 7.48761 -12.4223 1.57914 13
385 1 4.47218 5.54262 -13.215 9
386 1 6.93333 -6.04496 0.257218 21
387 1 -2.45043 6.84025 1.28629 21
388 1 1.84187 -8.19025 -11.5204 11
389 1 -3.53448 -1.95309 0.841937 21
390 1 3.61951 -5.86456 -6.50522 21
391 1 4.37925 -0.956862 0.247743 23
392 1 -4.77032 7.41699 10.0699 15
393 1 7.63642 -4.75709 10.8593 14
394 1 3.037 0.73674 -8.19158 24
395 1 -1.79257 -13.9366 -3.06564 9
396 1 -0.184796 -2.29885 -3.48075 21
397 1 -7.58482 4.57838 3.82023 23
398 1 10.5899 1.92499 5.61327 19
399 1 -0.725588 7.57596 -4.61657 23
400 1 9.80831 -0.210938 -9.61033 10
401 1 0.950901 -0.729812 4.40942 21
402 1 9.91107 0.8199 -2.44727 23
403 1 6.80924 7.27843 -12.3664 10
404 1 -3.16374 -1.91894 11.0919 19
405 1 -1.83064 -7.63372 6.58354 24
406 1 0.284823 -6.26628 -5.49543 21
407 1 -10.1693 8.43861 -1.2905 12
408 1 7.82908 6.62496 3.1309 22
409 1 -10.6995 -4.40269 7.50554 11
410 1 7.34857 4.9317 -8.04109 19
411 1 -1.09635 0.238797 12.937 12
412 1 -9.79495 -5.13382 -5.14509 12
413 1 8.93456 -3.85964 1.5148 22
414 1 -9.3265 -9.0302 2.52701 11
415 1 9.67985 -2.7137 -1.42433 22
416 1 5.14735 -12.0264 4.72964 16
417 1 -3.62901 8.83839 7.14143 23
418 1 -10.1695 -2.16465 5.5887 23
419 1 6.72445 -2.35197 2.31228 23
420 1 13.0841 -7.73629 -1.98891 11
421 1 1.44379 3.37937 -2.30718 22
422 1 1.73825 10.9921 4.64144 15
423 1 -5.13936 3.50838 5.91223 25
424 1 1.47939 -10.8647 6.34894 22
425 1 -8.23213 0.474212 -3.27885 22
426 1 4.06321 3.19348 13.8073 10
427 1 1.89157 10.6254 1.21233 18
428 1 4.64377 -4.55469 11.8123 14
429 1 11.4511 -4.97599 3.38377 12
430 1 6.57229 9.16654 8.8089 10
431 1 -0.84514 4.24038 -4.37756 23
432 1 3.70304 -9.49721 -6.45831 20
433 1 0.38792 5.25038 -10.2539 21
434 1 -2.93104 2.38641 8.04262 24
435 1 14.073 2.45723 0.704543 12
436 1 1.78067 10.4272 -9.4677 14
437 1 3.90288 -6.14841 -9.8222 16
438 1 -7.74661 -10.7576 0.279885 10
439 1 -4.17544 -3.18026 -6.86151 20
440 1 1.63337 -5.07828 -12.4811 13
441 1 -3.09032 -5.39335 -1.25763 23
442 1 -0.159461 -5.14876 11.5677 17
443 1 -1.07541 -0.209865 -1.11256 23
444 1 -0.539532 -9.50431 4.43667 25
445 1 9.57702 0.266805 -5.81574 18
446 1 -5.91181 10.2002 1.855 20
447 1 8.21838 -1.40022 6.7016 20
448 1 -15.1796 0.797865 2.79019 12
449 1 7.69575 9.56284 2.53489 15
450 1 4.77023 3.59557 7.57459 25
451 1 -11.1466 1.75982 -8.0346 11
452 1 -0.579417 3.93697 -7.44588 20
453 1 6.69768 -8.89934 3.65746 20
454 1 -8.02823 -2.87293 -2.50172 19
455 1 -6.62287 -5.51954 2.75887 21
456 1 7.44913 1.746 6.32853 24
457 1 -5.82963 10.307 5.40903 15
458 1 0.843205 9.27028 -6.46184 22
459 1 7.98878 -7.56753 8.64772 14
460 1 1.33752 -4.51474 1.87036 21
461 1 -10.1796 -1.73578 8.91776 15
462 1 -4.57984 -0.611716 -10.2416 20
463 1 -3.86481 -9.30158 7.74176 14
464 1 4.77822 -0.934415 11.1516 19
465 1 -2.58974 -12.4435 -0.372877 14
466 1 7.84017 -1.81139 -6.95216 18
467 1 -9.46168 5.55563 -1.0262 21
468 1 -8.07378 -0.30996 7.11284 22
469 1 -2.0392 -1.21338 -5.77759 23
470 1 4.10423 -12.4057 -5.46932 13
471 1 8.10236 5.77334 -0.0796816 23
472 1 8.85724 -0.546369 0.486995 23
473 1 -1.71478 -11.2664 6.9093 16
474 1 4.61549 6.54318 -6.97317 20
475 1 5.01134 2.84294 -6.48725 21
476 1 -11.342 4.96535 -4.72342 11
477 1 3.95235 4.86726 -3.82698 22
478 1 4.23613 9.81552 6.71483 15
479 1 3.36356 8.01979 -4.45818 24
480 1 -9.65543 5.7069 2.49758 21
481 1 5.36039 -3.56105 -4.91382 19
482 1 -0.996071 -3.12803 2.68861 23
483 1 3.11399 -14.3192 5.56615 7
484 1 -4.97016 0.471378 6.42128 23
485 1 6.60217 5.62308 9.48613 18
486 1 10.6193 -6.61557 -3.87351 18
487 1 2.47016 -3.79588 -4.64221 21
488 1 -3.33658 8.74001 -6.64849 21
489 1 -3.56906 8.47728 3.6652 22
490 1 -3.29011 0.844319 -2.89598 22
491 1 -2.20747 6.3775 -2.21661 22
492 1 -1.14737 -6.13198 3.75321 22
493 1 2.59641 -9.68284 0.192816 24
494 1 -1.44801 6.39769 -12.4006 14
495 1 -8.91787 -0.891399 -0.457833 24
496 1 -6.09312 5.26219 -5.71117 24
497 1 9.94053 -2.48821 9.90506 10
498 1 -9.11808 -7.06643 4.74112 14
499 1 12.0393 -0.386539 -0.441736 18
500 1 0.354057 7.98266 -11.0373 15
501 2 -11.161 -0.100942 -8.71392 12
502 2 -5.86661 12.7361 -4.78027 13
503 2 1.75299 1.92521 -11.6163 17
504 2 -4.91759 2.5352 10.5058 16
505 2 -6.11455 -3.39251 -7.62597 20
506 2 2.52322 3.43977 9.96166 21
507 2 -8.99382 1.04547 3.93482 24
508 2 8.33768 5.12757 4.55479 24
509 2 1.04092 -1.80667 8.84827 20
510 2 -4.22648 -4.5395 -5.48421 22
511 2 -7.39203 -2.69281 -10.1538 16
512 2 -10.4651 3.71243 -0.810612 20
513 2 0.118838 -7.70734 4.27352 22
514 2 5.07857 2.14668 8.86001 23
515 2 3.12841 -4.90456 -11.0605 14
516 2 8.00223 -2.3904 0.464484 20
517 2 -6.3295 10.9867 -2.54334 14
518 2 10.1188 7.13607 5.94478 13
519 2 -6.2253 -7.18926 2.14356 22
520 2 -9.03385 -4.76207 8.23613 13
521 2 -4.12965 -11.7042 3.74903 15
522 2 4.48233 -6.87097 7.45383 24
523 2 -9.08319 9.10882 -0.0133208 15
524 2 -5.33548 8.12595 -7.30051 16
525 2 -2.71861 7.39233 8.15925 19
526 2 -6.40195 4.69127 2.39147 23
527 2 2.68686 -1.54424 -0.61639 19
528 2 9.23595 -5.99676 -2.09773 19
529 2 -4.07212 -1.24635 -6.20417 24
530 2 -0.707019 -5.17519 -9.91579 20
531 2 -2.03435 -2.65424 -4.57829 23
532 2 6.50582 2.16313 -11.2725 14
533 2 3.22505 -4.28756 2.50448 20
534 2 6.96189 7.15684 -3.89577 22
535 2 -6.83379 13.6746 -1.74153 10
536 2 -1.12279 -5.63666 -4.0529 19
537 2 6.39596 -4.25408 9.36022 23
538 2 9.44859 -1.65434 4.95331 18
539 2 -12.1892 4.51456 -3.17005 12
540 2 3.93213 -3.34344 -3.37066 19
541 2 0.0172709 0.217229 0.475614 22
542 2 6.89555 7.24071 -0.708053 23
543 2 9.32951 -11.887 2.37934 9
544 2 -2.62946 4.14115 8.92841 24
545 2 2.54028 10.4168 3.08399 17
546 2 0.504278 4.42782 -5.86145 23
547 2 -7.59714 3.39675 8.74666 16
548 2 3.65096 3.36324 -9.99542 19
549 2 -8.48399 -1.50661 -6.84876 21
550 2 -11.3554 2.0254 2.01039 22
551 2 -10.0952 -7.25022 3.04266 12
552 2 3.71067 -10.5715 3.90835 20
553 2 0.381831 -3.34687 11.3503 19
554 2 -1.7995 5.47625 6.16544 24
555 2 -8.29282 2.48667 0.665114 23
556 2 -0.0114532 -8.1248 -6.52367 22
557 2 10.3294 -0.929208 -1.05911 23
558 2 1.40138 -10.3452 -1.36739 20
559 2 5.82911 -1.50796 -4.53252 21
560 2 0.0483299 8.00968 7.69391 19
561 2 9.93559 -8.32222 -4.22864 15
562 2 6.36888 -3.97797 12.2259 13
563 2 -3.26962 -3.08476 5.44132 19
564 2 13.2301 -0.412839 -1.95448 14
565 2 1.29013 -2.28744 5.79479 21
566 2 -0.877349 -8.50098 -0.465331 24
567 2 6.15256 -4.60129 -0.89925 22
568 2 1.20251 -2.2795 -5.05533 21
569 2 2.40252 -5.90045 -4.88199 21
570 2 -5.51533 -7.70117 -9.53187 13
571 2 -10.8868 -4.1674 2.85729 18
572 2 -2.09146 -6.61036 2.30721 23
573 2 -4.44636 -11.2137 -4.58729 12
574 2 -4.65953 9.79107 0.269734 23
575 2 6.05032 3.34407 -8.12113 21
576 2 11.2617 9.36974 -3.95907 8
577 2 3.1422 2.39358 -7.2268 22
578 2 -5.23224 5.60195 9.46968 16
579 2 -2.51644 1.1308 -1.129 24
580 2 -11.8882 2.42647 5.06692 18
581 2 -7.36425 0.457008 8.89831 18
582 2 -7.06692 3.33214 5.3706 22
583 2 -4.81242 2.13256 -3.68681 23
584 2 9.76118 -4.97203 -4.68559 15
585 2 12.4415 -7.19908 -0.33924 13
586 2 6.48414 2.83067 2.96826 23
587 2 0.697872 8.54863 1.50964 23
588 2 -4.0542 6.64332 3.90077 21
589 2 -0.43689 3.38229 0.0943675 22
590 2 9.30587 5.7801 -1.78979 23
591 2 1.15751 8.19777 -1.74642 24
592 2 7.21648 10.0458 -4.12511 13
593 2 0.542623 4.93485 8.08635 23
594 2 -3.69282 0.351419 4.8934 25
595 2 7.24597 -6.77787 10.244 15
596 2 3.37734 -0.844476 -6.58969 24
597 2 -0.439755 3.45584 11.0306 21
598 2 7.59753 7.60551 -10.7437 11
599 2 -5.70049 -6.95959 6.30227 22
600 2 -2.80623 -12.1518 -7.18419 11
601 2 0.0411275 -4.79251 -6.97859 21
602 2 7.39812 -11.4455 -0.0238881 15
603 2 -2.40932 -2.1009 -0.85315 23
604 2 9.31965 7.01959 -8.46496 12
605 2 -3.84356 3.11009 -9.62767 23
606 2 -4.86618 10.2358 3.80291 19
607 2 -3.67422 3.0338 1.0634 23
608 2 -7.41092 -4.18139 -1.2538 21
609 2 1.88387 8.98317 -10.7856 12
610 2 1.28287 11.9137 -2.25256 18
611 2 1.96832 5.52745 12.1847 12
612 2 4.5622 -9.92837 -2.1777 19
613 2 8.72333 1.59107 4.79923 23
614 2 11.4325 -9.32406 0.973991 12
615 2 6.10152 6.03753 2.37335 22
616 2 -1.56566 7.99157 -11.5437 13
617 2 4.89129 -9.30312 10.8002 12
618 2 0.517941 -12.1885 10.6956 9
619 2 7.09969 -11.4065 5.59583 12
620 2 -2.11267 8.66394 -8.36583 18
621 2 -1.83035 -12.081 -2.03032 15
622 2 -2.6159 -3.32525 -7.93556 20
623 2 -2.59652 -7.00387 -11.1872 15
624 2 7.87168 8.47735 7.654 15
625 2 -9.57515 -3.35012 -4.04323 16
626 2 -9.50464 4.74679 6.60061 19
627 2 9.55217 -4.27884 9.21022 11
628 2 -3.8807 -12.1074 0.900109 14
629 2 1.2877 0.455742 -9.28207 20
630 2 3.39621 -0.386217 -3.02571 21
631 2 -2.56684 -0.854242 -12.7847 12
632 2 -7.80372 -5.55595 -9.72183 12
633 2 -6.43038 -2.93945 9.34771 17
634 2 -8.32117 -4.28862 -6.16862 19
635 2 5.39614 -9.3169 -8.2157 12
636 2 8.11204 -2.87305 -2.59305 21
637 2 -4.42425 -5.62827 0.0917041 22
638 2 0.714543 -3.4854 -12.2331 12
639 2 4.94814 -2.46768 1.75332 22
640 2 3.12301 3.04014 -3.62277 21
641 2 -8.0851 -5.46507 4.23558 20
642 2 -0.313729 10.7088 -6.64842 23
643 2 2.26 9.9334 6.20881 17
644 2 12.0264 1.61967 3.96677 17
645 2 -11.7921 -2.61571 8.06362 10
646 2 -1.89975 -12.8346 6.04393 15
647 2 0.841317 3.90028 -9.01004 24
648 2 -1.62523 5.44605 2.55555 23
649 2 0.360065 -2.9408 0.997085 20
650 2 -5.87776 1.71774 3.045 25
651 2 -7.36241 6.54387 4.53249 19
652 2 -6.65524 -3.56482 6.33589 24
653 2 -1.54872 -13.125 3.3663 14
654 2 -13.6528 0.842613 3.9443 16
655 2 -6.93297 -7.10295 -0.988534 19
656 2 -5.3668 -9.66427 6.51073 13
657 2 6.33795 -11.9973 3.10651 14
658 2 2.33489 9.21682 -7.69886 21
659 2 0.188527 -4.43554 3.49321 23
660 2 6.35006 10.1534 -1.10252 16
661 2 9.06744 3.16582 -8.19939 14
662 2 -1.91746 13.0237 -0.998798 17
663 2 -9.98896 -2.89917 -8.94208 13
664 2 -12.5591 1.42481 -3.2859 13
665 2 -2.9356 -14.1971 -4.66587 8
666 2 5.89416 -8.66941 5.37243 21
667 2 7.97756 -6.45449 7.06732 19
668 2 -5.70396 8.99827 -4.50016 19
669 2 7.55459 0.884901 0.459337 23
670 2 6.11186 -0.729617 12.6911 11
671 2 -0.559398 -0.977843 -6.96472 23
672 2 3.92318 4.59934 3.88326 22
673 2 3.3037 7.6494 3.59484 24
674 2 -2.38153 1.38234 12.233 14
675 2 -9.39549 1.61404 6.93219 21
676 2 -1.43772 -0.744444 7.14826 23
677 2 4.78604 8.3965 -6.08683 20
678 2 -6.09518 -6.02178 -3.43952 20
679 2 -7.16945 0.278883 -5.04723 22
680 2 -8.98096 -1.92414 7.25103 20
681 2 4.13983 8.17623 -2.72981 24
682 2 0.748817 -3.67233 -2.1302 20
683 2 11.5144 4.75725 0.18455 19
684 2 11.0805 -6.7693 2.64174 15
685 2 -13.1988 0.322818 -0.288252 18
686 2 -0.624311 6.42456 10.7803 16
687 2 -4.68215 4.98904 -7.07156 22
688 2 4.42967 0.503066 -9.81689 20
689 2 -11.184 6.71392 -1.10775 14
690 2 2.03562 -5.04295 9.29327 21
691 2 1.70807 5.18323 -1.27377 21
692 2 -7.86902 -0.369009 1.31737 23
693 2 7.13335 -8.403 -3.66538 20
694 2 1.64599 -13.1578 -0.855228 13
695 2 -4.18269 6.4761 0.642969 23
696 2 0.442911 -11.1194 4.52198 20
697 2 -8.51377 5.01267 -7.7837 15
698 2 -0.850576 -11.9742 0.635013 16
699 2 4.76414 5.31356 8.59791 23
700 2 0.668015 6.95662 -9.41575 21
701 2 0.289459 7.38934 -6.39708 24
702 2 8.66117 4.69244 -10.7594 13
703 2 -1.19367 10.1569 -0.501242 23
704 2 -3.37402 8.22779 11.1538 10
705 2 -11.2655 -4.04915 5.59176 15
706 2 -1.63355 -9.6886 2.71163 21
707 2 -1.59159 2.06004 3.07194 22
708 2 -11.9869 -1.6948 -2.55019 12
709 2 -3.75995 -4.53531 7.88928 21
710 2 0.613098 6.28626 -12.1894 13
711 2 2.18529 -1.08474 2.91431 23
712 2 8.18354 0.526816 -3.0124 22
713 2 3.41933 -0.0716317 7.56152 23
714 2 -9.94258 -2.52735 -0.134662 19
715 2 2.47662 -1.537 -11.3084 16
716 2 7.11033 4.11227 -0.05342 23
717 2 8.10209 5.37794 7.54693 20
718 2 6.71947 -5.15722 -4.46403 22
719 2 -7.58574 -3.61319 1.87649 22
720 2 -3.27408 14.0103 -6.10669 13
721 2 2.93156 6.51561 6.40814 22
722 2 -2.30277 0.423182 -4.57762 22
723 2 1.517 -12.4504 1.92813 17
724 2 -2.6918 -10.7747 8.48141 14
725 2 -4.54093 -0.634966 -2.79822 23
726 2 10.4464 3.68686 6.56448 17
727 2 4.60988 9.09771 -9.62589 14
728 2 0.290295 11.8774 0.940759 16
729 2 1.55086 2.32967 2.30184 22
730 2 1.31059 -9.48345 1.64999 24
731 2 2.77538 -12.3501 -3.78852 15
732 2 6.52851 5.4878 -12.7889 9
733 2 4.15497 1.34225 4.47949 26
734 2 4.57616 4.86072 13.2068 11
735 2 2.8665 3.28931 6.89417 22
736 2 5.78203 -5.24067 5.0147 20
737 2 -1.49973 4.77042 -10.8831 23
738 2 11.4615 -3.02597 -3.76635 14
739 2 -6.57539 8.24144 1.98197 20
740 2 2.40509 -9.69757 -7.83303 18
741 2 0.315635 0.29789 11.7981 17
742 2 2.435 -5.3785 5.55935 25
743 2 -5.63144 1.11618 -0.398855 25
744 2 -6.39339 5.74272 -10.0876 13
745 2 12.2159 -6.15791 -2.94149 11
746 2 -0.0247477 10.474 3.91154 19
747 2 11.4285 7.78253 -0.77539 13
748 2 13.9273 2.34721 2.598 8
749 2 -9.87874 0.1445 -4.44054 19
750 2 -3.34623 10.7359 -6.13279 18
751 2 -7.13492 3.42947 -5.47517 23
752 2 -5.37103 -2.00727 0.0373954 23
753 2 7.46617 3.73578 -3.47521 23
754 2 -9.14905 8.63816 -2.88186 15
755 2 -2.29004 -6.27387 5.36785 24
756 2 6.08125 -0.971094 9.4304 20
757 2 0.0983052 -13.6106 -3.59503 10
758 2 2.55678 -6.30837 -8.07857 22
759 2 4.03943 11.2832 -2.95463 15
760 2 3.35996 10.5375 -0.00648724 19
761 2 -2.91357 -0.0366375 -9.29883 20
762 2 0.125151 -11.386 -5.97476 16
763 2 9.89688 -0.221712 2.22191 22
764 2 -6.48187 7.75237 -1.49646 21
765 2 4.04842 -11.0898 0.397108 19
766 2 7.47697 -3.13419 6.34901 19
767 2 -4.84676 -5.23864 3.55552 22
768 2 -6.56239 -6.74179 -6.52624 18
769 2 4.14772 7.55485 11.7174 11
770 2 -0.740005 5.91429 -3.32143 24
771 2 -11.1435 6.93821 2.88252 14
772 2 4.09367 3.81441 0.856622 22
773 2 0.158018 -7.47329 7.43737 21
774 2 -4.97685 12.9851 -0.052081 15
775 2 -6.6561 -11.2212 -1.23736 9
776 2 -2.24669 -9.68059 5.84936 22
777 2 7.67923 1.05693 10.567 16
778 2 -9.42681 4.05031 3.39448 24
779 2 -3.35324 8.21327 -2.37538 22
780 2 0.787121 1.44461 8.43467 22
781 2 -5.61368 -8.72969 -3.82912 19
782 2 12.5669 -1.74889 0.903377 13
783 2 7.94444 -7.05751 -6.59587 17
784 2 -3.36094 11.6749 -2.65036 21
785 2 -2.65331 1.16262 9.61801 23
786 2 -8.17681 2.18773 -2.54371 22
787 2 7.05759 -7.68188 -0.747591 20
788 2 3.79074 7.28923 0.0659488 22
789 2 -4.69916 5.27714 6.38791 21
790 2 -4.49215 -1.19092 7.44652 22
791 2 2.13462 1.90744 -1.05877 22
792 2 -1.83547 5.28961 -8.05763 22
793 2 -10.1016 3.45364 -4.87177 20
794 2 0.281682 -0.59242 -2.52222 23
795 2 -0.627401 -1.6406 -10.1597 18
796 2 1.09551 1.04864 -5.2126 22
797 2 -5.17327 -2.02357 -11.3052 15
798 2 5.47778 -5.93466 -8.51482 16
799 2 -3.86226 -10.3736 -1.53314 17
800 2 2.48188 -8.34872 9.55176 20
801 2 -2.61026 4.14829 -5.18258 21
802 2 3.16025 0.291135 10.6492 19
803 2 0.713867 4.32607 4.75518 24
804 2 7.60739 -3.59692 -7.55058 15
805 2 4.31093 -12.9361 5.92224 11
806 2 6.19739 7.42357 9.75493 13
807 2 -2.72603 12.0099 5.51582 12
808 2 -13.2363 -2.9022 0.481642 13
809 2 12.6156 5.11769 -2.96504 13
810 2 2.03577 -12.2562 7.72187 15
811 2 -9.13269 9.42421 2.84185 14
812 2 8.42246 1.76089 -5.8326 22
813 2 5.94891 6.68885 5.50826 23
814 2 -15.1994 1.94126 1.25015 12
815 2 1.81559 12.4406 -5.18596 13
816 2 -8.31296 5.60672 -2.80568 23
817 2 -0.478343 2.63562 -2.90621 23
818 2 5.14768 -2.72683 -9.30988 16
819 2 -4.72996 2.14153 7.32865 23
820 2 -3.71656 -3.98495 10.9696 13
821 2 10.6718 0.367651 6.88011 13
822 2 9.55386 -0.0201432 -7.78672 12
823 2 -6.29486 -2.66929 -3.98484 22
824 2 0.88431 -6.32487 1.43898 22
825 2 9.10086 -1.5266 -5.32194 20
826 2 -1.0183 6.54279 -0.338692 23
827 2 -4.81608 -9.69955 -7.4635 15
828 2 -13.051 0.821303 7.27654 12
829 2 -5.48239 -1.72633 3.59682 21
830 2 5.05968 -10.8728 -5.67581 16
831 2 -0.0477602 -11.36 -8.64792 13
832 2 -4.15848 -8.67838 3.8416 24
833 2 10.9002 0.218117 -4.28236 17
834 2 -2.37324 12.0249 -8.51923 14
835 2 5.25751 9.39482 5.08307 18
836 2 -3.31826 -7.04508 -2.23564 22
837 2 6.70266 -0.0437337 6.39207 21
838 2 -10.9504 6.6663 8.0619 12
839 2 -2.83753 4.74036 -1.76692 23
840 2 -3.54338 6.73717 -9.8695 17
841 2 1.78874 -2.92681 -8.34698 22
842 2 -8.33839 -6.86302 6.7016 13
843 2 -8.74081 5.8421 0.80669 22
844 2 6.19969 6.54779 -8.11274 16
845 2 -2.53939 7.36029 -5.45774 21
846 2 4.88469 5.17486 -5.52712 23
847 2 -1.03292 1.75696 -10.8611 18
848 2 4.50335 -6.9335 -2.91499 20
849 2 -12.0329 1.19763 -6.52162 12
850 2 4.76276 8.59717 8.12258 17
851 2 -4.96449 4.34817 -12.3415 14
852 2 -11.0917 -1.0151 2.39409 25
853 2 9.30716 -1.24269 8.46837 15
854 2 5.65483 2.556 12.792 13
855 2 8.5621 5.24845 -6.27307 19
856 2 0.349149 11.7324 -9.0991 10
857 2 -0.779834 9.54017 -3.93304 24
858 2 13.7596 2.8724 -1.11481 13
859 2 -4.77014 1.82565 -6.46111 22
860 2 9.12204 8.89446 -5.85074 12
861 2 2.83588 2.43501 12.513 12
862 2 -5.31011 -5.21753 -11.6765 11
863 2 -1.15544 -5.64745 -0.850229 21
864 2 8.58845 -2.33524 11.4002 12
865 2 -2.13081 8.54354 2.14845 21
866 2 12.3661 -9.54612 -2.29048 9
867 2 2.19207 -9.19144 -4.18098 21
868 2 -2.96355 10.624 8.40593 12