ITEM: TIMESTEP
139000
ITEM: NUMBER OF ATOMS
5760
ITEM: BOX BOUNDS pp pp pp
-0.1279358694 32.9279358694
-0.2591421333 34.3991421333
0.7911718625 62.8088281375
ITEM: ATOMS id type x y z Coordination
1 1 4.04378 14.9477 6.49124 22
2 1 29.8636 33.9984 13.5921 20
3 1 9.31583 0.426557 11.879 21
4 1 25.6722 24.5687 3.38515 24
5 1 0.428139 20.905 14.6314 19
6 1 30.4704 9.15321 59.7604 21
7 1 9.29469 20.2979 16.6567 18
8 1 6.85797 3.24712 3.29048 19
9 1 22.1527 33.1507 11.2927 21
10 1 28.5577 4.04246 16.7724 22
11 1 15.4419 12.3741 0.798128 19
12 1 11.9993 11.6755 4.97574 22
13 1 2.76256 1.82132 8.22902 21
14 1 23.409 14.9613 4.99236 19
15 1 6.7401 1.77846 27.6385 20
16 1 24.3781 10.1772 61.2839 22
17 1 26.2621 9.59148 11.0058 23
18 1 1.16641 30.7136 27.2521 21
19 1 29.1133 28.2352 5.55188 23
20 1 20.3904 27.2357 9.20291 21
21 1 16.88 1.10082 19.558 21
22 1 0.275054 6.96862 2.64176 24
23 1 6.2057 4.26046 17.5953 21
24 1 32.8741 12.626 8.10375 22
25 1 29.9102 19.2512 59.8752 21
26 1 30.5466 14.536 15.3967 17
27 1 11.7017 21.9642 13.1296 22
28 1 1.49633 19.4299 10.2019 23
29 1 12.5261 24.5865 3.25564 22
30 1 24.7416 14.3565 11.4276 24
31 1 6.31626 18.2818 8.93497 21
32 1 4.63247 11.0149 18.9334 23
33 1 0.473953 20.1107 17.8762 20
34 1 30.4593 24.4504 11.6629 19
35 1 24.6613 0.0583793 9.64484 20
36 1 5.25049 19.619 21.3321 16
37 1 26.746 33.3899 58.2795 25
38 1 6.40369 3.64156 8.61859 21
39 1 4.51631 5.03984 61.7337 19
40 1 4.58861 8.75328 57.015 21
41 1 22.8552 8.11546 2.24882 21
42 1 1.68033 5.70593 57.3559 24
43 1 14.993 32.7248 27.1094 21
44 1 29.1368 12.7025 3.49986 19
45 1 3.88825 -0.108028 19.9227 21
46 1 19.2721 23.8336 10.2461 20
47 1 10.0444 15.4603 22.8569 19
48 1 29.2094 7.64216 6.54645 18
49 1 7.05677 12.0426 2.51199 19
50 1 8.76921 4.21062 57.2206 20
51 1 2.03152 32.2912 12.47 23
52 1 31.012 28.3835 51.156 22
53 1 15.3218 5.22716 15.586 19
54 1 28.5477 7.74757 2.03502 19
55 1 2.18523 4.39631 1.53598 22
56 1 25.9158 4.64445 18.8237 23
57 1 5.38005 9.57721 21.219 18
58 1 4.01798 23.9009 16.7724 23
59 1 7.22458 8.9867 3.43646 20
60 1 15.6469 6.72143 60.2594 20
61 1 19.2362 11.5432 7.52746 20
62 1 2.68084 23.4942 5.54656 22
63 1 5.73806 12.3244 16.3784 19
64 1 3.45989 15.6644 3.27197 20
65 1 6.26841 32.4321 20.1278 22
66 1 6.81613 14.7547 4.41453 20
67 1 1.63455 23.9908 28.2625 23
68 1 31.5097 9.01851 7.89958 24
69 1 9.48513 26.6834 3.05735 21
70 1 14.2785 15.5412 17.9137 21
71 1 12.3712 16.0119 20.3037 23
72 1 7.29096 25.4066 27.6615 23
73 1 3.3739 31.9207 53.1653 17
74 1 12.7163 14.2622 6.02083 23
75 1 32.5854 13.2112 27.8615 21
76 1 24.9877 12.8687 58.8489 22
77 1 12.434 14.1178 28.2544 19
78 1 32.7814 2.25513 2.67691 19
79 1 32.3343 28.4463 15.9954 22
80 1 31.4422 32.6994 7.80625 21
81 1 24.816 17.1343 11.208 22
82 1 19.3793 10.6463 3.89751 22
83 1 13.36 9.58673 10.3732 24
84 1 16.6321 8.35102 10.8205 23
85 1 1.35483 8.59831 15.0423 20
86 1 21.5737 0.782809 5.4273 20
87 1 3.34503 6.02597 18.223 20
88 1 19.8151 11.4905 0.745026 22
89 1 19.107 21.6836 60.1511 21
90 1 30.1774 10.4623 14.8332 18
91 1 30.5185 6.53478 9.05777 21
92 1 24.8133 17.7405 1.08881 23
93 1 15.9932 4.44635 39.7485 20
94 1 25.8595 10.2209 19.0099 22
95 1 17.1306 18.9196 11.3451 22
96 1 16.4992 14.3877 57.4633 17
97 1 14.7501 25.5018 5.44323 19
98 1 18.6271 24.6802 2.76681 19
99 1 2.36301 2.59014 51.5137 23
100 1 32.3635 0.826769 8.80445 17
101 1 7.5013 15.8761 6.94316 21
102 1 14.4257 26.5661 2.46654 23
103 1 31.6849 33.8195 16.7656 20
104 1 1.56326 20.9442 54.6447 20
105 1 8.95237 10.3141 5.5911 19
106 1 1.62241 3.61892 13.2827 24
107 1 11.2684 12.6113 62.7913 18
108 1 2.39339 13.682 5.54305 23
109 1 11.5041 30.8299 8.35669 21
110 1 13.5455 29.0074 55.4708 20
111 1 20.5924 31.4493 20.5552 18
112 1 11.2985 1.39175 4.53114 24
113 1 12.6313 5.92089 60.2871 24
114 1 5.66176 19.3255 14.6338 22
115 1 10.0017 6.42616 5.54132 21
116 1 5.6557 33.8425 2.15459 24
117 1 26.9986 30.7303 25.942 20
118 1 20.0804 33.0287 5.94758 21
119 1 14.3405 15.295 9.22419 23
120 1 6.43706 22.1165 39.453 27
121 1 12.6007 11.8109 60.3962 21
122 1 9.99465 13.7598 10.7948 22
123 1 7.5651 21.9476 12.2464 22
124 1 0.0197562 16.8735 13.1453 18
125 1 29.8759 26.3761 59.377 19
126 1 20.5653 16.6164 19.5746 24
127 1 16.1005 14.4508 11.5738 24
128 1 12.2468 28.0605 1.94552 22
129 1 2.03695 22.7551 62.4171 24
130 1 31.4354 30.8276 60.9939 20
131 1 15.3921 31.2889 22.1125 20
132 1 17.0969 9.82689 2.21453 22
133 1 22.1274 21.2499 9.5921 23
134 1 0.017555 18.0206 3.0325 22
135 1 24.3377 11.4202 9.6356 22
136 1 6.55737 22.2449 53.0342 18
137 1 11.6688 21.5185 3.59539 23
138 1 20.4589 14.0725 1.3533 19
139 1 14.0471 19.792 5.51931 25
140 1 7.52378 23.4132 9.22754 20
141 1 10.7755 5.67382 29.2694 21
142 1 13.3696 10.1066 2.05295 21
143 1 4.10923 7.86398 9.70837 22
144 1 10.9364 11.3008 23.6055 20
145 1 25.2106 21.0974 3.20359 20
146 1 3.79173 3.47248 54.8484 24
147 1 18.7155 5.45057 58.0476 21
148 1 14.5589 30.5238 7.33664 19
149 1 4.43848 34.2084 10.5889 22
150 1 8.51975 33.045 14.38 22
151 1 29.7216 16.1584 14.1569 24
152 1 27.3664 1.40858 56.5976 23
153 1 19.1774 27.6515 20.0738 23
154 1 14.2385 27.429 16.3449 23
155 1 24.8093 1.50357 28.9499 21
156 1 16.2564 6.02443 5.48129 21
157 1 8.89406 11.3778 8.94502 21
158 1 6.65668 16.2806 11.1709 24
159 1 18.754 21.2738 8.94345 23
160 1 31.9195 33.7993 11.0637 23
161 1 12.8398 23.2495 9.19965 20
162 1 11.1996 14.8699 8.33514 21
163 1 19.1869 15.5207 11.7231 22
164 1 -0.0295727 17.4274 18.9674 20
165 1 3.85922 20.4037 7.07365 21
166 1 32.6098 34.2962 23.5003 22
167 1 20.0061 21.6197 12.2562 23
168 1 12.6989 15.4586 11.7658 25
169 1 2.0727 5.10452 60.4664 22
170 1 28.0658 8.13881 15.6381 20
171 1 2.61995 3.66154 41.2544 26
172 1 8.671 19.3108 10.9242 24
173 1 25.6739 9.16507 16.5113 26
174 1 11.3097 19.3749 62.4519 22
175 1 12.7946 10.0389 25.0731 21
176 1 8.65328 14.0503 12.8109 22
177 1 18.0456 23.135 21.9021 20
178 1 19.8103 0.309105 11.9036 21
179 1 2.71659 28.2646 11.652 20
180 1 18.5909 12.0727 12.2928 20
181 2 0.106187 24.4413 56.4284 21
182 2 0.37185 8.02843 24.6605 20
183 2 29.1869 10.2988 60.9162 21
184 2 30.3389 18.9723 12.1334 23
185 2 13.4695 15.3986 1.3701 22
186 2 21.1229 4.31749 20.7979 21
187 2 29.0787 6.61117 27.3956 17
188 2 27.8185 2.66737 11.4159 19
189 2 24.0104 24.5197 16.0535 25
190 2 17.9453 32.5056 9.42922 19
191 2 5.16927 5.67454 25.348 21
192 2 30.3748 8.95561 23.5786 22
193 2 10.9164 11.136 13.9732 21
194 2 23.3731 23.054 13.1559 24
195 2 1.17189 27.6801 10.8034 16
196 2 19.4317 23.6644 6.80174 22
197 2 1.70527 34.0083 61.4442 20
198 2 14.8284 21.1167 57.998 23
199 2 2.79157 13.2278 62.2789 20
200 2 6.62158 -0.132874 23.9884 20
201 2 3.09044 8.92159 25.1376 21
202 2 32.4798 5.40835 32.2002 23
203 2 0.298633 3.9229 11.7537 21
204 2 28.5963 14.4539 24.05 22
205 2 9.45834 4.21392 55.3177 21
206 2 5.68855 28.9954 15.1469 21
207 2 25.2028 15.5093 52.0612 21
208 2 20.5317 31.2123 9.47525 21
209 2 20.8468 19.4444 17.7931 23
210 2 30.3735 2.81832 59.1294 23
211 2 7.10102 20.4654 59.5598 18
212 2 31.0729 20.167 1.98017 22
213 2 24.498 22.4772 30.7537 22
214 2 11.5806 29.0573 3.39968 19
215 2 7.40706 21.6917 4.34223 21
216 2 29.9835 27.8225 23.4207 21
217 2 12.6201 25.4572 8.52903 23
218 2 24.8631 4.21368 3.64553 23
219 2 27.28 20.9483 52.036 22
220 2 17.3424 16.5365 3.21297 20
221 2 23.9465 11.2129 59.5791 21
222 2 13.9071 15.191 20.8557 21
223 2 0.759002 28.5646 6.80533 20
224 2 30.9739 29.1708 59.058 23
225 2 30.9159 10.9328 18.0282 22
226 2 25.3921 9.3379 31.3087 22
227 2 10.5433 12.0612 37.6894 22
228 2 19.9673 8.51246 56.2621 20
229 2 29.1165 19.5088 15.8458 21
230 2 16.0656 23.4422 52.7452 19
231 2 6.12008 23.5199 6.21198 28
232 2 2.35165 31.8785 7.94535 21
233 2 4.18609 6.39083 27.6038 22
234 2 22.4373 16.4719 20.5216 20
235 2 23.0672 8.17651 31.3151 18
236 2 17.2693 30.4223 11.195 21
237 2 29.6995 9.10698 8.91155 22
238 2 27.8827 25.8005 25.3415 18
239 2 17.6556 32.8355 2.78458 21
240 2 18.9479 12.1489 26.0565 21
241 2 14.1772 31.8246 17.8085 22
242 2 11.4983 29.4982 62.5604 23
243 2 25.6946 26.4351 59.1166 19
244 2 1.71384 17.6619 9.82338 24
245 2 20.8054 19.0132 27.9744 17
246 2 6.54759 1.48803 2.23156 19
247 2 6.1025 24.5916 8.67216 18
248 2 18.447 14.0797 56.1324 17
249 2 13.1947 30.9936 31.2946 20
250 2 11.183 30.1275 16.2926 17
251 2 31.4138 33.1103 62.0812 22
252 2 7.49066 8.76337 8.69767 19
253 2 15.9156 19.3709 1.67649 16
254 2 30.8489 4.26049 19.8132 22
255 2 32.7166 5.95685 4.2664 20
256 2 12.0669 20.7985 1.77647 19
257 2 17.4371 1.8432 5.63363 17
258 2 28.7246 1.02973 14.1103 24
259 2 22.7984 25.1057 22.5865 24
260 2 0.476277 32.092 23.6891 23
261 2 31.1272 10.4736 11.7304 19
262 2 15.1434 20.2802 18.1632 23
263 2 0.303549 12.7609 18.6758 20
264 2 15.2707 1.99949 18.8981 21
265 2 3.09564 3.99594 12.0287 20
266 2 3.97058 12.5591 10.0709 21
267 2 4.46188 7.09587 61.3676 21
268 2 26.6189 9.44536 4.2113 17
269 2 0.98483 11.7131 9.84127 22
270 2 1.73998 11.0399 4.11174 22
271 2 21.2903 9.00236 4.79124 21
272 2 10.9453 33.1826 20.8451 21
273 2 4.1665 14.3978 30.0743 18
274 2 29.4001 18.9095 18.9391 22
275 2 4.32082 13.4314 5.68166 19
276 2 16.621 15.3619 22.3293 23
277 2 3.88426 0.690253 12.1142 21
278 2 0.303226 17.3109 59.5783 21
279 2 14.7959 7.02043 56.0138 21
280 2 31.1302 11.6381 59.2336 21
281 2 18.1888 16.6434 20.1051 21
282 2 28.3123 32.2131 17.676 23
283 2 12.2299 16.9335 35.2539 17
284 2 8.35246 13.4788 2.85951 19
285 2 4.51539 -0.251983 14.923 18
286 2 20.6339 12.5233 22.969 20
287 2 6.11088 22.1628 30.4141 24
288 2 21.1936 14.5445 19.2673 22
289 2 14.2443 17.6835 17.1144 19
290 2 16.3081 1.71191 9.48887 19
291 2 22.8846 19.8161 14.6941 21
292 2 3.81845 5.03506 59.6074 23
293 2 8.57224 7.75986 57.8486 17
294 2 15.6322 23.4568 39.7471 23
295 2 10.0845 18.3033 10.2318 23
296 2 21.0362 28.147 2.59218 21
297 2 28.4548 0.0992032 5.90828 23
298 2 20.5104 6.50917 24.8729 18
299 2 24.3489 19.7912 34.2792 20
300 2 9.98199 0.404468 31.5099 19
301 2 17.3913 19.4656 57.0451 21
302 2 13.2046 31.6269 7.99769 19
303 2 29.7939 31.2537 49.9411 21
304 2 23.0572 23.184 9.89022 20
305 2 9.42167 20.9242 11.5278 21
306 2 5.29411 9.65548 27.3817 21
307 2 20.1068 19.2941 21.2558 23
308 2 10.7647 23.6304 2.81567 21
309 2 7.88565 27.9831 10.2692 19
310 2 3.58331 24.8135 6.6506 21
311 2 8.10987 24.4538 29.1593 22
312 2 10.4103 8.21926 11.6042 19
313 2 22.5477 10.8901 25.4722 19
314 2 18.7737 27.5266 12.9645 22
315 2 19.2643 10.723 19.7704 22
316 2 28.7164 19.9317 7.13193 21
317 2 8.0922 0.816334 21.6313 21
318 2 18.162 7.98257 18.4817 21
319 2 18.1871 18.8449 40.0966 25
320 2 14.4345 16.1112 51.8065 18
321 2 24.3867 31.7983 14.9139 23
322 2 15.816 28.252 11.8447 20
323 2 2.13637 10.0465 13.7455 22
324 2 30.6534 4.09443 62.415 18
325 2 25.0977 29.8881 59.8979 22
326 2 25.2034 10.9253 16.6343 23
327 2 18.2518 13.9791 12.2249 22
328 2 8.96326 9.05355 2.00971 20
329 2 14.5333 0.488757 16.2192 19
330 2 9.73235 18.8988 12.5171 20
331 2 13.1369 0.813542 53.8004 23
332 2 26.0566 5.37352 26.5283 18
333 2 17.6217 0.11181 31.5817 21
334 2 23.1239 10.163 10.3613 24
335 2 8.62665 10.2534 10.9115 24
336 2 4.67774 17.9241 30.4599 17
337 2 14.0338 25.9626 13.2627 24
338 2 29.3833 13.3151 55.1461 20
339 2 15.1792 12.9073 22.2043 19
340 2 6.28666 0.514166 5.22562 22
341 2 25.6643 30.1486 1.27606 23
342 2 10.6284 32.1579 14.7651 19
343 2 6.36067 14.5015 10.6391 20
344 2 18.7137 32.3903 24.4102 21
345 2 1.81444 33.7791 4.74631 17
346 2 6.85252 12.7557 13.1527 20
347 2 30.243 27.1079 10.5405 22
348 2 6.97045 11.5108 28.9307 19
349 2 13.9491 28.7227 17.9976 23
350 2 14.9122 18.8474 7.46844 22
351 2 20.3659 17.5075 4.25337 21
352 2 11.0996 20.2433 60.5835 19
353 2 31.4504 11.6539 6.96232 20
354 2 28.5493 29.8169 9.59358 18
355 2 8.86303 12.3391 11.8922 21
356 2 10.9056 14.1792 6.31521 21
357 2 19.5364 10.0871 8.776 21
358 2 23.604 19.8077 22.9496 21
359 2 15.1459 4.37414 17.2989 19
360 2 28.1775 4.71028 2.83822 20
361 1 29.4507 1.64742 10.4003 20
362 1 0.426011 16.9272 24.744 24
363 1 8.0599 11.2167 52.9147 22
364 1 10.2889 1.55023 17.8479 20
365 1 28.4703 29.0531 27.739 23
366 1 31.8437 27.2089 24.0421 25
367 1 13.7053 0.3306 28.6158 22
368 1 2.49425 31.74 24.484 19
369 1 1.81312 12.0506 31.7306 21
370 1 21.2776 10.4314 27.1844 22
371 1 10.0046 11.3368 34.8009 16
372 1 25.512 6.89356 25.4295 19
373 1 1.45571 9.86597 8.8848 21
374 1 31.9532 10.2368 22.9181 22
375 1 24.1726 20.0904 13.3436 23
376 1 4.56452 14.8531 21.1838 19
377 1 19.3786 5.74586 23.2684 22
378 1 0.189957 13.9349 22.3141 26
379 1 8.70948 33.0888 21.3634 20
380 1 4.40256 2.12651 22.8177 19
381 1 2.3523 3.47207 16.6732 18
382 1 20.9935 10.6924 13.2601 20
383 1 28.2227 31.0929 20.7198 22
384 1 28.897 31.6481 9.99571 21
385 1 19.8406 29.4114 13.1962 20
386 1 15.9712 16.3479 36.7248 22
387 1 15.6342 23.4352 20.9412 21
388 1 4.61568 12.3912 22.4877 20
389 1 23.6283 29.7897 18.0941 24
390 1 10.8856 28.9707 27.5775 18
391 1 0.0711521 16.9868 21.9859 21
392 1 5.32813 8.35103 12.7037 26
393 1 11.3348 6.92826 20.6519 22
394 1 24.073 30.8696 25.9709 22
395 1 3.2247 17.6257 33.851 19
396 1 31.9135 24.0815 23.0712 19
397 1 25.955 3.34064 11.7283 21
398 1 17.2398 20.3052 18.1491 22
399 1 0.00623016 15.7996 39.204 20
400 1 31.5036 4.48103 17.708 22
401 1 12.8361 7.63891 35.5927 21
402 1 1.35978 30.1009 14.7901 19
403 1 12.9127 19.9 7.99534 22
404 1 31.8509 19.219 26.6011 22
405 1 26.6386 15.502 21.9592 21
406 1 32.0826 22.3344 30.1971 20
407 1 23.8373 9.87985 45.7978 20
408 1 26.0243 3.03719 43.8118 23
409 1 32.3656 22.3482 11.0666 20
410 1 9.13221 0.494326 23.6135 23
411 1 32.6387 6.14902 35.9981 22
412 1 4.57987 26.8963 25.0151 25
413 1 14.0928 34.1914 5.50131 20
414 1 4.44051 4.87883 3.39486 21
415 1 5.94201 14.3168 14.443 23
416 1 21.7907 32.2108 31.5376 22
417 1 10.1424 3.02133 36.8834 25
418 1 23.5465 30.848 20.6559 23
419 1 20.2892 22.7006 24.3057 24
420 1 31.3655 3.7452 31.2132 22
421 1 18.4535 13.9368 26.1111 22
422 1 29.7022 22.3238 8.26399 21
423 1 30.5499 15.7266 3.40912 20
424 1 5.64028 29.3976 30.9718 18
425 1 11.7374 18.9732 34.906 19
426 1 17.2784 12.8673 30.5514 21
427 1 20.0599 4.69687 28.3303 20
428 1 12.3895 15.4996 37.2602 19
429 1 8.05867 14.3239 24.1613 19
430 1 4.173 15.5797 32.1648 21
431 1 12.4179 26.6157 29.8489 22
432 1 2.27759 -0.191949 24.4785 19
433 1 6.94656 2.28332 62.572 19
434 1 4.12592 2.8082 10.9526 22
435 1 11.9796 3.92684 9.23276 21
436 1 3.89469 2.15066 60.914 21
437 1 4.69435 34.5195 24.8064 17
438 1 10.1069 16.4234 11.4592 21
439 1 25.0559 28.1985 28.1398 23
440 1 14.4487 22.6174 23.949 22
441 1 17.9444 29.1399 27.0254 22
442 1 5.92398 33.5572 36.0905 23
443 1 17.7208 33.5567 22.566 24
444 1 3.60099 2.75892 26.308 23
445 1 32.6949 26.3825 10.2781 20
446 1 14.2466 28.858 22.7106 23
447 1 19.8777 0.647008 38.9941 23
448 1 1.35702 11.0207 28.7638 21
449 1 18.8181 14.7969 19.2587 24
450 1 28.7073 7.88624 24.5303 20
451 1 15.3396 15.9977 20.8023 22
452 1 7.06535 30.1518 14.5891 23
453 1 3.46916 4.93701 8.5046 22
454 1 6.15463 30.6706 28.4152 19
455 1 9.28828 17.4658 8.67492 21
456 1 28.9613 21.1928 18.623 21
457 1 29.5375 8.01825 22.0437 21
458 1 24.3152 4.89779 60.291 21
459 1 12.0416 0.806054 13.5023 24
460 1 7.46049 10.2818 39.6607 23
461 1 0.489205 14.075 16.2053 20
462 1 23.4063 23.0834 17.0679 24
463 1 7.99361 23.8844 33.4673 23
464 1 11.6884 1.43441 23.8509 20
465 1 28.9224 31.6745 26.9908 25
466 1 21.95 3.10178 22.3544 24
467 1 31.0911 -0.244422 34.9586 21
468 1 15.2176 30.4095 15.6447 23
469 1 1.9379 22.6533 21.8717 24
470 1 8.49835 22.7311 27.1481 21
471 1 17.4921 33.0663 16.9215 23
472 1 24.57 9.23229 27.6301 23
473 1 17.455 28.2183 36.531 19
474 1 11.0095 25.7277 15.3256 22
475 1 11.8176 12.4267 32.8382 21
476 1 17.0467 2.88715 13.2646 20
477 1 4.68995 13.6126 18.7596 20
478 1 11.3292 3.48851 18.8776 20
479 1 15.5261 17.2531 28.3544 18
480 1 19.2194 0.602846 42.423 22
481 1 15.0834 2.82645 25.8038 20
482 1 1.30056 2.68846 59.1245 20
483 1 10.3411 9.04007 9.93674 19
484 1 20.8181 13.8689 24.4428 20
485 1 9.9882 29.8018 38.2034 19
486 1 13.6478 4.98421 18.3015 19
487 1 7.74801 13.4347 58.7004 22
488 1 12.9877 13.4149 25.5943 19
489 1 9.31854 8.57324 30.9356 22
490 1 5.96195 16.1721 1.34701 21
491 1 13.8893 1.53385 37.7843 21
492 1 28.7778 23.7132 38.3588 19
493 1 15.2656 21.1343 19.766 18
494 1 31.5022 4.12947 8.81778 21
495 1 26.5451 10.0582 23.773 20
496 1 29.7925 33.747 24.5121 21
497 1 21.6658 19.8029 22.8685 22
498 1 20.4073 21.5136 40.685 21
499 1 4.55657 15.8895 8.61984 24
500 1 27.889 16.0968 11.2417 24
501 1 32.475 11.538 10.5709 21
502 1 15.3724 15.2909 25.1709 21
503 1 3.76176 17.6672 10.5912 19
504 1 9.2749 26.5251 22.4917 21
505 1 1.562 28.824 18.0958 24
506 1 11.8646 4.19258 3.46477 22
507 1 13.9078 17.4534 26.4618 22
508 1 24.0675 8.07942 9.13809 21
509 1 11.6723 34.1482 19.0387 21
510 1 31.2755 9.27448 19.4068 19
511 1 31.0998 29.1915 22.1074 21
512 1 11.9902 23.3787 29.2748 22
513 1 0.262221 4.44026 25.9619 20
514 1 23.6986 4.2328 36.2436 20
515 1 17.447 21.0782 42.3662 21
516 1 2.37858 8.3244 23.7987 20
517 1 14.7115 1.75502 14.6825 23
518 1 14.6406 33.0485 38.9337 22
519 1 0.390227 6.01098 23.936 20
520 1 18.3722 30.4596 22.2398 22
521 1 5.67448 11.4595 58.48 19
522 1 22.5362 4.03051 18.8037 21
523 1 9.07922 32.9275 9.08883 20
524 1 23.5451 26.5228 3.213 24
525 1 0.998175 27.1471 29.773 21
526 1 27.0399 31.195 33.0696 23
527 1 14.1289 -0.0175206 32.425 22
528 1 19.7304 19.1228 32.3155 21
529 1 3.268 5.41364 24.9661 20
530 1 23.1472 19.9963 2.10757 23
531 1 13.4703 8.6803 18.4481 18
532 1 28.1334 28.584 22.8977 25
533 1 19.4199 4.29806 18.8138 22
534 1 2.10229 21.037 12.2448 20
535 1 18.976 19.4406 23.7513 22
536 1 13.7292 13.536 30.6348 24
537 1 30.3658 15.6617 23.6343 19
538 1 27.5866 19.4555 20.0946 19
539 1 14.931 11.4996 23.6333 22
540 1 20.8035 12.8275 18.7024 22
541 2 28.1518 17.6849 13.962 20
542 2 30.894 28.3622 26.6179 23
543 2 12.8424 8.19846 8.98107 20
544 2 25.1992 9.10706 22.7106 17
545 2 8.20678 6.25104 12.097 22
546 2 29.5901 19.5012 29.9173 20
547 2 2.39258 33.0639 10.7405 20
548 2 17.6962 25.2312 6.48624 23
549 2 20.0369 0.138537 32.1932 20
550 2 20.5837 23.4732 18.0409 22
551 2 4.3634 16.9597 24.6219 23
552 2 11.7362 11.598 26.1263 22
553 2 13.2955 10.4777 15.6186 19
554 2 7.16085 33.7799 19.1639 21
555 2 28.4766 9.46896 42.4312 22
556 2 17.1328 8.29036 21.731 22
557 2 22.4564 7.53486 10.3841 23
558 2 7.41924 3.90108 42.3619 23
559 2 29.9148 1.18793 20.3246 21
560 2 5.10526 5.71784 13.7463 19
561 2 7.33456 11.7963 44.0385 19
562 2 17.6856 31.6826 33.1009 22
563 2 9.68915 2.39869 19.2528 21
564 2 9.09798 4.47647 25.48 23
565 2 19.1859 25.4256 26.2879 22
566 2 15.5687 5.59774 19.9183 17
567 2 7.83971 22.3401 57.2718 20
568 2 30.8018 27.9608 20.4322 23
569 2 6.78707 4.2175 15.7182 20
570 2 18.7727 22.8986 14.7682 22
571 2 29.7771 24.6135 22.2088 21
572 2 25.6765 15.6614 12.3945 22
573 2 20.486 2.02831 34.0305 19
574 2 9.6786 6.30487 27.7685 21
575 2 7.47407 17.3724 17.0094 24
576 2 21.0634 11.9087 28.0202 23
577 2 11.3592 8.84451 20.4732 19
578 2 2.14354 30.2394 31.1239 20
579 2 14.9566 6.96827 10.8963 18
580 2 3.32355 19.6015 11.2987 19
581 2 2.93172 9.4383 16.5182 19
582 2 5.3413 17.8679 34.6008 24
583 2 27.7009 6.69052 36.7574 22
584 2 2.33566 22.3134 10.8653 20
585 2 16.4816 7.12844 13.8168 22
586 2 20.7017 15.0021 33.0711 22
587 2 28.8589 32.9001 20.5103 19
588 2 2.64011 19.4297 39.1221 21
589 2 4.12278 31.4843 4.97235 21
590 2 27.3718 27.7872 32.0378 22
591 2 14.2917 24.0644 56.4192 21
592 2 8.28621 2.0398 11.7904 19
593 2 3.0144 18.3737 36.3633 20
594 2 25.4627 10.407 25.4237 17
595 2 7.06758 15.3471 32.8528 19
596 2 17.732 19.2693 25.1452 20
597 2 20.3827 30.3634 21.8495 23
598 2 7.90623 27.1206 24.3673 23
599 2 5.87756 14.881 19.5526 21
600 2 19.3821 9.9401 28.654 21
601 2 3.57057 2.83454 18.1654 20
602 2 3.37701 15.337 9.90509 23
603 2 15.6326 25.9854 17.1501 21
604 2 21.1932 17.5581 14.0838 21
605 2 1.40535 13.9887 39.0454 24
606 2 10.4574 30.8531 27.8186 20
607 2 15.2818 16.8643 18.9691 22
608 2 12.2437 12.6576 29.7749 21
609 2 11.0193 13.0247 34.5699 23
610 2 12.3966 34.2152 15.2821 24
611 2 6.77804 7.92681 11.7358 24
612 2 12.0237 3.48737 23.2998 22
613 2 30.275 25.4912 17.0013 20
614 2 11.7267 1.8538 32.6706 21
615 2 19.817 0.195434 44.0315 20
616 2 24.4938 19.9916 20.2274 19
617 2 14.6466 29.5097 28.9943 25
618 2 32.0495 14.8816 25.9025 21
619 2 12.8127 33.4632 29.4723 22
620 2 18.1188 22.7554 34.9309 19
621 2 24.591 2.24436 26.4787 18
622 2 8.2604 18.0476 44.8699 21
623 2 15.7292 17.082 61.6083 21
624 2 26.2891 19.4543 25.8595 24
625 2 14.7788 29.6363 5.56524 22
626 2 6.02999 -0.154686 11.8485 21
627 2 12.6811 23.772 13.3199 24
628 2 22.8906 18.0923 0.902041 21
629 2 20.6093 32.1142 45.0924 21
630 2 15.1566 14.1769 19.1336 23
631 2 9.82862 4.58305 4.50762 22
632 2 0.856126 8.90973 38.1815 19
633 2 13.9256 8.94303 34.4517 24
634 2 8.07053 1.92743 33.0085 23
635 2 8.177 26.7931 30.6741 20
636 2 23.5713 10.7372 29.7916 19
637 2 6.09427 30.3438 62.1727 23
638 2 6.03251 20.8943 12.6953 23
639 2 29.2783 14.0735 7.66508 23
640 2 0.324019 13.1948 58.2694 21
641 2 10.0936 18.6078 29.0184 18
642 2 10.0247 22.4375 37.9196 21
643 2 0.462651 23.7242 61.1687 20
644 2 29.4661 29.0637 41.4329 20
645 2 32.3219 26.3011 33.8977 20
646 2 12.2409 4.3062 17.3528 20
647 2 26.6692 10.2541 38.8215 19
648 2 25.3601 26.737 21.015 23
649 2 2.95411 12.4825 36.9958 19
650 2 12.0718 2.16002 37.9182 20
651 2 7.68503 13.333 6.0284 24
652 2 15.157 9.41392 18.4745 18
653 2 14.6521 23.0134 26.8004 20
654 2 2.57644 22.3665 20.0035 23
655 2 7.45711 34.1937 31.176 20
656 2 4.2339 26.1463 14.9716 21
657 2 12.1552 19.7619 30.8431 22
658 2 5.64368 27.4483 34.8981 20
659 2 19.321 28.035 40.6343 17
660 2 16.3718 1.87627 14.9491 18
661 2 19.9046 15.3202 16.4148 20
662 2 29.2688 4.30129 14.5286 22
663 2 10.3177 28.2896 11.4825 21
664 2 15.1991 18.8543 27.1696 20
665 2 29.5742 8.7374 17.1743 25
666 2 24.235 29.1665 19.6649 20
667 2 32.1135 6.55836 22.4417 21
668 2 7.16201 16.9802 40.3793 20
669 2 10.4546 32.0953 30.5263 19
670 2 25.1179 33.1901 23.1724 22
671 2 25.8431 13.4766 3.18518 20
672 2 16.7483 33.0117 12.5904 20
673 2 15.8518 8.74875 9.28556 21
674 2 5.1728 2.92591 27.8612 24
675 2 4.6102 5.85657 1.61389 21
676 2 2.70355 20.1147 24.9421 23
677 2 12.5313 5.46067 24.8238 23
678 2 12.7733 18.7303 6.28955 22
679 2 30.0072 16.9618 26.297 21
680 2 15.725 34.1878 39.6931 21
681 2 11.3145 14.0365 20.4275 22
682 2 20.4108 27.1328 24.1926 21
683 2 27.0855 20.718 42.146 18
684 2 18.4439 28.1969 9.95856 20
685 2 3.10908 34.1326 22.8134 21
686 2 19.9403 11.888 16.9543 21
687 2 19.7287 0.0241058 9.98398 19
688 2 32.6468 23.9239 18.5625 24
689 2 31.3601 12.7618 15.2926 21
690 2 2.20314 14.0224 15.1444 21
691 2 4.0502 16.7226 4.93114 24
692 2 2.66142 26.4146 29.1162 23
693 2 10.7916 4.00603 27.4665 19
694 2 7.32695 31.437 6.04618 22
695 2 7.13545 2.03348 14.1389 22
696 2 24.5778 7.07314 38.7523 21
697 2 21.9765 33.0789 24.2153 25
698 2 15.2851 21.3386 12.824 21
699 2 26.4744 19.3054 22.705 20
700 2 0.756105 14.9003 12.3917 20
701 2 26.9872 25.4238 30.1244 21
702 2 24.0702 8.11421 15.6137 23
703 2 21.7623 3.99327 35.2364 21
704 2 13.3495 20.9891 25.1472 20
705 2 22.2742 5.60239 32.7443 18
706 2 5.81559 32.6668 38.0132 22
707 2 32.9051 28.8083 29.5759 23
708 2 10.5191 26.3579 29.0761 22
709 2 23.7925 7.74605 7.22578 23
710 2 16.803 29.8555 14.5506 21
711 2 7.86018 14.1649 29.4073 22
712 2 9.36027 13.3442 9.05431 24
713 2 9.58527 23.3588 12.9583 19
714 2 13.8284 14.9896 29.3216 22
715 2 17.7152 2.58562 17.5291 19
716 2 6.74295 21.6687 26.9479 23
717 2 26.5668 2.94433 24.4188 18
718 2 9.90789 22.5108 25.167 20
719 2 14.7365 23.0211 19.2487 21
720 2 20.4849 32.787 33.8158 19
721 1 1.20582 33.3931 9.17765 22
722 1 3.11274 16.8341 56.736 20
723 1 2.87296 17.8007 1.90366 22
724 1 13.4062 24.6904 11.8457 20
725 1 26.8581 12.4926 11.0315 24
726 1 4.84817 33.513 58.4105 20
727 1 16.1609 10.8182 12.7733 24
728 1 15.7882 33.8182 46.3753 23
729 1 20.9297 30.4715 17.8029 17
730 1 28.4715 17.1017 5.33918 22
731 1 11.7189 13.3279 13.7635 24
732 1 22.5657 20.4253 5.80088 25
733 1 3.0528 6.81421 6.2855 20
734 1 4.54454 22.3291 60.1104 20
735 1 1.37902 28.0502 8.79883 17
736 1 20.8352 3.49622 10.2875 19
737 1 7.00849 33.3367 5.73854 20
738 1 0.174977 34.2385 51.3615 22
739 1 7.95771 32.9552 59.3293 20
740 1 27.2131 25.9172 5.90701 21
741 1 0.737399 25.5571 3.83898 20
742 1 29.4075 2.30752 4.38222 22
743 1 9.46204 28.6666 9.45755 22
744 1 13.8703 30.467 13.1351 24
745 1 9.64579 3.4168 3.05675 23
746 1 2.07808 28.1509 2.39649 21
747 1 5.89158 6.43477 7.11768 22
748 1 4.16303 30.0494 13.5399 21
749 1 18.5505 5.59955 8.36164 20
750 1 9.33426 2.42667 14.2723 21
751 1 6.11864 4.6552 23.1607 24
752 1 20.0551 14.7006 7.64273 19
753 1 22.9567 32.7843 13.8853 19
754 1 20.4012 5.64131 15.5697 19
755 1 18.8131 4.69423 25.2513 18
756 1 16.5501 14.5316 6.46734 23
757 1 5.53573 19.5794 11.4938 19
758 1 25.8831 9.46509 2.16433 20
759 1 3.19468 17.3835 22.4874 22
760 1 9.12682 25.2179 12.045 22
761 1 31.7986 1.0495 58.6274 23
762 1 31.6626 25.2948 28.8436 20
763 1 29.015 0.461688 58.7306 22
764 1 32.2123 8.66431 11.076 22
765 1 7.7801 32.453 34.4775 20
766 1 7.00332 29.2284 2.01345 21
767 1 9.04691 11.5283 14.6188 22
768 1 6.45865 20.9626 8.24823 22
769 1 5.49213 11.5286 13.5084 22
770 1 27.2487 7.30088 8.38349 22
771 1 30.4769 18.834 4.73147 25
772 1 31.7293 22.7538 60.089 20
773 1 15.8028 4.74752 61.8918 22
774 1 8.37596 0.851149 5.59665 21
775 1 28.7748 24.0617 13.4991 21
776 1 11.719 32.4255 56.8989 25
777 1 3.15492 5.15933 21.6963 19
778 1 11.629 31.1519 4.45041 19
779 1 16.7205 28.9322 9.98591 22
780 1 1.18985 15.3708 7.7708 22
781 1 8.23956 21.0305 2.53295 22
782 1 15.2647 1.35989 61.8089 21
783 1 32.2116 30.6711 58.1328 16
784 1 18.7456 4.98456 3.31176 24
785 1 13.1935 28.6507 4.96533 22
786 1 19.0965 29.2946 1.76285 24
787 1 6.96577 31.9214 61.8242 22
788 1 18.1172 8.37254 8.05392 21
789 1 12.8009 17.4598 4.68267 21
790 1 23.6092 2.53404 10.6923 22
791 1 31.3657 8.50776 16.5715 21
792 1 3.11066 32.3459 21.587 20
793 1 27.7596 6.87287 12.7248 19
794 1 29.2521 20.6992 2.82768 19
795 1 6.64128 11.4412 61.7966 19
796 1 1.15334 17.4615 16.3498 21
797 1 20.1582 27.0632 14.8068 21
798 1 31.765 25.2457 15.6477 22
799 1 4.35489 19.2559 60.8523 20
800 1 3.24039 20.379 19.5135 16
801 1 5.95283 0.906322 13.4307 25
802 1 17.04 31.6465 58.5468 22
803 1 21.1783 25.9497 22.9764 22
804 1 1.63538 23.9507 10.5183 21
805 1 1.55156 28.503 56.6519 20
806 1 20.8324 22.1812 3.64155 20
807 1 2.556 26.43 54.6416 21
808 1 2.35459 8.75366 12.3252 22
809 1 8.12482 19.1606 55.8332 19
810 1 21.2465 0.0500313 60.811 20
811 1 2.11113 0.725217 21.7554 19
812 1 10.5383 33.7218 3.66835 22
813 1 27.5476 5.39365 24.9318 19
814 1 6.85475 32.6836 11.8787 19
815 1 16.686 8.24499 24.5544 24
816 1 24.1834 2.02595 14.2431 21
817 1 14.1567 3.52667 58.5158 24
818 1 16.2281 28.0081 59.2559 20
819 1 30.2941 30.4737 15.4671 17
820 1 6.74703 1.469 58.1986 20
821 1 16.5056 16.3198 14.4217 26
822 1 32.2024 20.6395 3.53319 24
823 1 8.20905 32.0036 2.49035 23
824 1 32.5429 17.2451 9.09275 20
825 1 12.2174 12.507 9.36488 25
826 1 25.0644 4.50827 9.04145 21
827 1 14.5238 8.92307 4.18529 22
828 1 6.53283 9.9034 7.7237 20
829 1 5.86683 12.9332 9.82568 24
830 1 28.7927 23.2973 61.0728 19
831 1 3.47516 6.11964 14.7115 23
832 1 12.2205 20.7761 21.7065 23
833 1 31.9107 12.5623 1.87641 22
834 1 16.9875 2.73474 2.15328 21
835 1 15.3437 28.0925 6.69382 18
836 1 14.458 19.1952 15.8249 19
837 1 3.93956 16.0858 26.5748 22
838 1 7.25641 2.53796 21.5883 21
839 1 24.049 7.62906 59.8134 20
840 1 10.2643 15.6743 5.23617 25
841 1 3.66211 31.4667 18.1652 23
842 1 10.2143 28.7002 17.187 20
843 1 24.2909 25.8488 6.69955 23
844 1 26.9375 21.7227 9.41739 21
845 1 9.51301 20.2692 34.1523 22
846 1 5.90363 30.0359 11.3031 22
847 1 11.1041 28.3018 60.7989 23
848 1 9.69298 31.1317 15.8327 19
849 1 13.0922 6.30264 5.72157 21
850 1 21.9928 4.57911 7.65465 21
851 1 2.85315 7.41928 62.3044 23
852 1 30.0954 5.18152 2.86485 22
853 1 1.61326 27.7513 5.33526 23
854 1 9.4654 29.7418 58.6487 22
855 1 19.5946 27.6494 6.00033 18
856 1 18.6373 29.7544 4.99677 25
857 1 -0.0523609 11.3456 5.7329 19
858 1 19.7521 33.3757 53.2398 22
859 1 27.4191 5.16005 0.79697 22
860 1 28.2026 28.4477 8.38263 23
861 1 10.8005 33.0013 12.6753 22
862 1 31.0858 15.7851 27.3686 21
863 1 4.69987 19.3787 28.4674 22
864 1 4.21792 30.9313 7.44434 18
865 1 1.93692 12.5979 19.8031 20
866 1 6.36662 20.9331 57.7038 17
867 1 15.3146 21.2155 2.66687 22
868 1 8.95316 25.7826 5.67076 20
869 1 25.3653 -0.0477834 12.5057 26
870 1 19.6608 14.9593 57.4111 21
871 1 10.5186 11.1075 12.1039 23
872 1 5.79782 13.9942 61.1854 21
873 1 5.01543 27.567 13.5111 21
874 1 5.77309 0.562547 7.43093 21
875 1 14.2307 33.3314 8.53616 22
876 1 12.7082 6.28245 31.2924 23
877 1 14.8521 28.8472 62.56 24
878 1 18.7879 3.90817 61.9444 21
879 1 14.3685 30.8158 59.76 20
880 1 17.9441 20.9625 1.57375 21
881 1 6.32579 1.97819 25.1003 22
882 1 2.87022 12.7947 8.32821 24
883 1 32.3838 19.4129 13.0888 21
884 1 19.7381 9.90635 60.6787 21
885 1 0.90039 19.5837 24.1127 23
886 1 20.4031 15.8983 14.4667 24
887 1 28.9145 4.36084 19.8207 19
888 1 29.1989 18.2925 31.432 21
889 1 3.85833 28.5813 7.79553 18
890 1 -0.0315671 30.9908 10.35 23
891 1 19.1088 22.9047 56.8764 22
892 1 25.3838 28.7263 7.00842 22
893 1 0.435825 25.1417 17.3187 22
894 1 6.21919 3.67384 59.6638 22
895 1 11.6181 22.8221 6.23353 23
896 1 14.8726 11.0403 16.7257 24
897 1 16.1374 28.3198 3.53581 22
898 1 16.5471 -0.193563 2.61719 23
899 1 21.2663 13.4631 4.13074 20
900 1 24.0686 33.7842 24.8361 21
901 2 4.31605 11.5291 15.2611 20
902 2 30.6957 29.4534 4.45747 23
903 2 3.09715 17.3243 15.4747 21
904 2 30.6916 20.8891 9.08035 20
905 2 7.15547 19.5367 9.81757 22
906 2 30.5549 22.9227 23.9237 19
907 2 29.6765 31.9206 11.499 22
908 2 31.3519 31.9288 15.7074 22
909 2 20.61 29.3134 5.45342 22
910 2 -0.0103592 11.7025 36.7881 20
911 2 29.7925 12.3134 26.1249 22
912 2 5.08822 5.45603 22.0721 22