ITEM: TIMESTEP
28000
ITEM: NUMBER OF ATOMS
1000
ITEM: BOX BOUNDS pp pp pp
-30.0 30.0
-30.0 30.0
-30.0 30.0
ITEM: ATOMS id type x y z Coordination
1 1 3.8765 -12.2756 -1.86896 10
2 1 8.70464 -9.63525 15.4119 16
3 1 -5.77527 7.07507 6.07029 12
4 1 -4.55337 0.766938 -2.3565 12
5 1 5.54497 -4.99805 19.3234 15
6 1 -1.02985 -2.29909 -4.90648 11
7 1 -2.23701 -9.76304 12.8004 12
8 1 13.9718 -6.34751 14.7835 11
9 1 6.22692 6.31673 20.5731 9
10 1 3.29836 10.4068 0.884093 17
11 1 8.66357 3.70072 20.1395 14
12 1 -6.60098 2.23862 16.7093 11
13 1 2.90613 2.25479 -2.0213 19
14 1 10.0494 -5.67238 10.9452 19
15 1 3.66589 3.70529 19.6044 18
16 1 4.0861 -8.5013 10.9813 20
17 1 -8.25306 0.0301503 9.98571 12
18 1 -4.13378 -1.79618 5.81965 19
19 1 5.16938 13.9982 9.57302 12
20 1 8.83067 0.0641504 -4.3858 15
21 1 9.59464 -8.19735 -2.98349 12
22 1 0.504962 -3.8505 19.178 13
23 1 -6.91014 5.89429 3.21594 11
24 1 2.51782 13.4209 9.9508 11
25 1 8.22994 -12.7238 13.3251 11
26 1 11.6456 -9.75589 -0.463946 11
27 1 10.7056 0.110346 12.416 18
28 1 -3.86176 7.81057 3.19131 15
29 1 6.6083 7.89567 3.7847 21
30 1 6.23361 1.35136 13.1622 19
31 1 9.77168 -4.25137 14.2399 18
32 1 -6.19303 -0.777199 8.1111 17
33 1 14.3116 3.20362 15.8184 13
34 1 11.0064 -4.64986 0.547108 18
35 1 7.81216 -1.56275 14.0245 22
36 1 -3.32592 -6.71799 8.21213 22
37 1 -1.91172 -2.14702 0.940052 21
38 1 1.01115 10.8134 8.21037 15
39 1 2.88582 8.31855 -3.92636 10
40 1 9.49134 -1.7841 0.533716 23
41 1 11.5349 -7.48187 7.42015 18
42 1 9.9398 -7.89453 17.4779 11
43 1 1.1125 4.96366 13.4702 19
44 1 -0.54684 -6.95236 12.3574 21
45 1 -3.55424 2.29959 13.7311 19
46 1 13.4353 -9.67616 2.37852 14
47 1 6.30163 2.09335 -5.76054 10
48 1 4.65192 10.7554 8.48966 18
49 1 2.15621 -3.5023 -7.08477 9
50 1 6.32925 7.35116 8.83835 23
51 1 4.18032 -3.28215 21.1873 10
52 1 3.55501 -7.14064 -1.42209 21
53 1 13.0326 -3.82126 -3.98011 12
54 1 0.0991077 1.54745 14.4503 18
55 1 -6.41442 -6.05357 8.7473 15
56 1 12.4861 -4.17613 8.97352 21
57 1 -1.60736 -12.7277 7.4245 12
58 1 12.2584 -10.0035 9.92918 16
59 1 0.844997 7.26429 11.7961 20
60 1 9.85686 3.87693 0.526259 23
61 1 16.8019 -6.94536 12.9361 8
62 1 1.12164 -13.1978 7.81507 13
63 1 13.2438 6.87161 9.91667 20
64 1 13.0048 4.05773 6.65348 21
65 1 9.15673 12.3787 1.34504 11
66 1 3.11304 -9.61489 -3.70986 14
67 1 2.67839 8.63048 3.3795 21
68 1 17.8206 2.17847 -1.05394 8
69 1 9.44528 1.6726 -2.26559 20
70 1 14.1446 -8.63788 13.1809 11
71 1 -1.93428 5.1844 3.37817 22
72 1 14.7663 6.63961 6.74846 21
73 1 15.6622 7.45555 9.67821 16
74 1 4.64991 12.9339 6.59038 13
75 1 5.84038 -5.68478 -6.59553 9
76 1 -5.64061 -6.90313 2.64069 10
77 1 1.38238 6.88161 15.9583 13
78 1 1.01583 10.873 3.94085 13
79 1 7.39783 -4.46611 16.9653 17
80 1 -8.09089 -9.2972 11.9011 9
81 1 6.46553 -9.1934 7.85699 18
82 1 6.43193 9.57991 6.18076 19
83 1 14.7774 10.1984 4.24726 12
84 1 4.12199 -9.56213 14.1195 16
85 1 -7.44072 3.949 5.18321 12
86 1 1.05057 -1.056 13.5891 21
87 1 -0.31913 4.3366 0.279667 21
88 1 -2.31222 -5.02336 10.4569 22
89 1 -6.72265 -11.5594 9.09511 7
90 1 7.32268 -4.7176 0.411326 22
91 1 4.02931 8.70011 15.1298 13
92 1 -2.48948 1.43079 10.5229 18
93 1 -2.78663 -0.327965 3.4099 21
94 1 1.98959 -9.54554 8.83061 21
95 1 9.96872 7.57333 3.62379 22
96 1 7.53181 -2.8258 19.8075 14
97 1 5.13554 5.00809 -3.63569 12
98 1 -0.821108 -7.87369 0.753169 20
99 1 6.80689 15.2915 6.77968 9
100 1 9.7441 0.161239 19.3436 15
101 1 2.36209 9.90898 -1.74917 14
102 1 8.16502 6.6756 0.810791 21
103 1 0.747848 -3.04491 16.3723 20
104 1 -1.02634 7.54943 14.1873 17
105 1 1.12611 -7.61453 -3.41477 13
106 1 8.63815 9.20048 -0.826916 13
107 1 8.07446 10.3891 8.9499 18
108 1 -7.62301 6.82847 12.2292 8
109 1 6.06878 4.21343 18.6819 21
110 1 18.0539 3.1494 4.09051 10
111 1 4.63925 4.15662 14.1653 17
112 1 -2.30287 6.35142 16.2401 13
113 1 -3.91757 -7.70998 5.02809 19
114 1 2.52816 -1.21157 18.8863 19
115 1 10.0006 -9.47056 2.33003 19
116 1 9.79941 -2.77666 -4.95231 14
117 1 14.3816 -1.4416 -3.16025 9
118 1 -6.47568 -1.3264 17.0597 12
119 1 -2.04505 -12.2708 3.61451 15
120 1 -0.893147 -7.32569 5.93135 21
121 1 0.95869 -8.60556 14.269 17
122 1 -3.93735 -2.95659 -2.43767 14
123 1 -5.74756 -0.64571 2.16344 16
124 1 13.2291 1.5871 13.7382 20
125 1 13.3227 -4.25926 12.1546 15
126 1 6.12354 -4.3565 13.5065 22
127 1 10.0877 7.67536 9.09722 20
128 1 -3.62305 -10.4798 9.83095 14
129 1 6.46785 9.17951 11.4719 15
130 1 -0.0292801 -5.42785 -4.93524 13
131 1 1.1095 -11.3563 1.13665 18
132 1 2.09763 -11.0159 11.7555 16
133 1 18.0258 2.92098 10.9838 13
134 1 -7.24989 -6.98862 14.8809 10
135 1 -0.441391 -11.4592 9.8936 16
136 1 3.65937 -14.2363 10.5387 13
137 1 8.97463 -12.0712 4.03893 22
138 1 -1.59937 5.99783 -3.60655 9
139 1 14.7182 10.0364 7.88741 11
140 1 4.4792 6.86318 -2.03394 17
141 1 5.70431 9.92004 -2.18581 13
142 1 -1.25762 -3.38906 13.5943 19
143 1 6.66689 7.74955 17.2307 12
144 1 12.6295 -7.08607 10.6926 20
145 1 -2.1707 -0.719304 14.101 20
146 1 1.46334 -0.371659 21.74 10
147 1 -2.53605 6.97085 11.7719 18
148 1 6.46439 -8.667 -4.71317 13
149 1 8.7577 -14.2273 7.99318 12
150 1 14.1179 -4.81065 -0.916957 14
151 1 -8.81213 -6.0916 11.6567 10
152 1 9.97347 -14.8395 4.77363 13
153 1 2.93843 8.10967 8.9499 21
154 1 -4.40446 4.17525 10.944 19
155 1 6.3324 -7.80589 12.8513 17
156 1 3.02389 1.62924 13.6967 21
157 1 -3.80652 -3.77414 3.02765 20
158 1 3.51793 9.32204 11.4657 18
159 1 -4.27431 4.21201 4.89687 18
160 1 -6.84241 0.872119 13.5819 15
161 1 7.39388 -5.02505 -4.49765 19
162 1 -0.808676 8.14405 8.93344 20
163 1 11.7826 -1.68139 14.6203 23
164 1 11.1282 -7.34689 14.2545 14
165 1 3.91765 -4.82597 16.5107 20
166 1 9.32488 -7.37093 0.302709 15
167 1 -0.512876 -3.86369 -2.21697 22
168 1 -6.23284 0.340186 4.9417 18
169 1 2.73456 -9.60874 3.15452 20
170 1 17.4211 4.71487 1.58903 11
171 1 -2.26618 2.70931 -4.1066 11
172 1 -5.4273 1.53214 10.7106 21
173 1 -4.1238 7.98111 8.7434 17
174 1 -2.07196 4.49199 13.52 19
175 1 16.1531 1.64437 1.89841 16
176 1 14.3338 0.690857 -1.08408 19
177 1 6.39989 -9.43463 3.38263 21
178 1 5.96786 13.8924 12.2325 7
179 1 -3.93472 -0.810679 -0.027815 24
180 1 11.3725 -12.8745 7.76568 14
181 1 13.1614 3.89595 12.2252 21
182 1 -3.10376 -9.50218 2.16591 12
183 1 0.606695 -14.319 10.5381 8
184 1 2.78049 9.50898 6.57641 20
185 1 -2.20739 7.22506 6.00095 20
186 1 4.18541 -10.5827 0.471081 21
187 1 9.4914 -8.56673 9.91503 16
188 1 3.59047 -13.753 1.40598 15
189 1 -4.27416 5.09455 1.61347 16
190 1 5.34564 -12.2074 12.867 14
191 1 0.768602 -5.63833 14.5313 20
192 1 -4.26466 2.3866 7.7257 20
193 1 5.85399 -7.49815 0.759685 20
194 1 -7.80627 3.35162 11.2187 13
195 1 2.49126 -5.91598 19.4843 11
196 1 -5.60814 -3.7914 16.1544 14
197 1 10.504 -12.6148 1.45201 12
198 1 9.38343 -11.4319 10.3645 13
199 1 9.2887 15.1466 6.41365 10
200 1 -4.5166 -5.93835 14.1246 19
201 1 16.2419 2.5953 13.4644 14
202 1 14.1541 1.51714 4.73313 21
203 1 7.44856 -1.29696 -2.14339 23
204 1 17.4469 -7.0452 9.14024 9
205 1 -0.842156 1.54172 20.1446 15
206 1 9.28062 11.9117 6.33434 17
207 1 15.323 -8.05491 6.64552 12
208 1 5.65071 -14.696 -0.835316 6
209 1 11.3983 3.27874 19.1097 10
210 1 2.10578 2.39774 22.3337 12
211 1 0.861163 -6.62926 3.41859 23
212 1 -1.69022 -11.4407 0.261322 10
213 1 -4.8031 5.78715 14.3926 14
214 1 -0.7 -9.4238 3.74163 22
215 1 -4.2601 -1.41763 10.9083 21
216 1 11.8501 1.93231 10.4791 20
217 1 14.5955 4.17485 9.03218 23
218 1 5.89571 4.23663 -0.338539 16
219 1 4.79376 7.12119 0.95619 19
220 1 6.51351 2.93166 15.7247 16
221 1 -7.38554 -3.21313 10.7091 15
222 1 12.9423 15.2505 6.00926 6
223 1 -0.387036 -6.44731 -1.43435 15
224 1 10.4307 -5.80862 -5.21655 9
225 1 17.4236 8.21714 6.71656 11
226 1 8.14905 6.61525 6.3635 22
227 1 12.2514 5.99501 1.04298 18
228 1 7.31662 -11.3552 6.25901 18
229 1 0.110019 2.62862 -2.4529 19
230 1 11.6953 10.8599 2.81342 14
231 1 11.0604 -4.58987 6.04051 18
232 1 3.64467 -0.887042 -6.15582 10
233 1 4.79795 -11.2289 9.41313 17
234 1 8.22174 -6.46419 13.9364 17
235 1 -1.83731 1.37782 0.00649907 23
236 1 8.00661 4.5767 -2.21757 16
237 1 -8.4041 -8.83486 9.20473 10
238 1 15.9774 -1.15165 5.94691 14
239 1 1.16466 5.62626 3.46169 23
240 1 7.43505 -11.2849 0.93859 14
241 1 6.34619 1.69129 -2.37394 21
242 1 14.5882 -0.931066 3.06148 14
243 1 -3.83558 -2.50856 14.926 20
244 1 -1.6152 9.8307 11.9082 14
245 1 4.45341 11.19 4.09214 16
246 1 18.503 5.76565 5.94238 11
247 1 4.26998 -10.416 6.15239 19
248 1 6.69685 -0.937938 -6.30684 9
249 1 13.5703 -10.8951 7.07573 16
250 1 8.31981 -8.3893 5.85437 19
251 1 -3.79709 0.838396 15.8161 21
252 1 0.772915 -4.74055 0.989346 23
253 1 1.72328 1.48951 17.9626 18
254 1 10.2559 6.37162 -1.09666 18
255 1 -0.19878 10.1628 0.629854 14
256 1 8.02133 13.5995 9.2403 11
257 1 4.69858 1.38141 17.4184 19
258 1 7.4371 -13.7875 2.31481 16
259 1 9.09739 -4.15972 -2.32076 18
260 1 -5.38356 -5.03051 5.87462 14
261 1 -4.153 2.23618 2.32263 18
262 1 -5.5399 -1.38795 13.2438 20
263 1 11.3969 6.73215 6.57769 19
264 1 12.3644 -6.6304 -2.95073 13
265 1 9.84824 -5.00317 19.2569 11
266 1 12.519 2.18925 2.36172 18
267 1 -6.42026 6.85235 9.66303 11
268 1 14.9574 -6.94877 1.85599 11
269 1 3.95689 7.17722 18.5355 11
270 1 4.35592 -0.542131 -1.53887 22
271 1 11.0714 4.84055 -3.56529 13
272 1 2.29803 -6.94225 -7.03527 8
273 1 0.683731 -10.1256 6.13872 21
274 1 16.2321 3.908 6.5859 16
275 1 14.3538 -8.48378 -1.07894 9
276 1 12.5281 -13.1185 4.1066 11
277 1 4.23893 10.9658 13.5282 12
278 1 -5.02719 9.33198 11.333 10
279 1 16.5135 7.16382 3.50839 14
280 1 5.62903 -1.76282 17.292 20
281 1 8.12908 4.7596 14.0021 21
282 1 -1.78223 -0.541747 -2.56901 22
283 1 19.7714 2.60105 8.91006 8
284 1 12.6911 -1.57274 11.4521 19
285 1 2.81646 13.404 12.9857 8
286 1 9.20138 1.3207 14.3427 21
287 1 1.41368 7.25001 0.899228 23
288 1 -0.226587 -14.0087 1.69462 11
289 1 -0.535539 8.5465 -2.28666 12
290 1 1.27392 -0.574285 -3.07122 21
291 1 -7.67438 2.18801 2.763 11
292 1 15.5911 -5.37891 10.7337 15
293 1 2.47189 -7.68992 16.4044 15
294 1 12.9668 7.93851 3.61332 20
295 1 15.3543 -4.62491 7.74218 16
296 1 16.1096 5.37039 15.364 9
297 1 17.9968 -3.21776 8.10879 8
298 1 -4.32921 3.7721 16.482 17
299 1 -5.3064 -8.77061 7.98284 14
300 1 -6.46589 -0.776051 -1.10109 12
301 1 12.304 -2.34366 18.6654 10
302 1 0.0572075 12.7005 10.6057 9
303 1 16.2226 0.954116 8.56892 18
304 1 11.0892 5.70366 11.861 21
305 1 -3.67783 1.0704 19.0887 12
306 1 14.6025 3.64597 -3.45907 12
307 1 0.901261 -10.1833 -1.55962 15
308 1 9.77142 5.98725 17.3601 13
309 1 9.37947 3.26841 11.5436 22
310 1 5.91765 -7.43495 16.6305 19
311 1 7.35265 0.0821495 16.6562 20
312 1 -2.37116 4.5164 19.206 9
313 1 3.00412 4.2598 0.821242 20
314 1 11.1549 11.2521 8.41299 13
315 1 6.93988 13.461 3.91481 12
316 1 -0.459649 -14.4261 4.89383 12
317 1 11.2451 4.63089 9.05822 25
318 1 -2.61363 5.09138 8.16653 19
319 1 11.2268 4.71206 3.5701 21
320 1 6.98339 0.788991 20.0412 17
321 1 11.817 9.45298 13.8519 9
322 1 5.66869 -4.13206 -1.7634 20
323 1 9.16195 7.14928 14.573 15
324 1 11.5046 -7.2344 3.96665 15
325 1 13.2718 10.0807 10.822 11
326 1 -7.50317 -4.13586 13.8137 12
327 1 6.67625 -14.9644 5.517 14
328 1 14.5638 8.47302 1.32504 12
329 1 10.0926 -10.3855 7.33763 20
330 1 4.34803 6.6895 11.5655 21
331 1 3.71706 -6.18886 -4.32669 22
332 1 11.0048 -1.30803 -2.51981 18
333 1 1.21346 9.61009 13.9731 14
334 1 3.57156 -6.62824 13.8304 24
335 1 1.71545 -12.4057 3.62042 20
336 1 -0.603393 4.45375 11.2355 19
337 1 12.9671 1.4452 8.04969 23
338 1 8.1938 10.3492 3.80827 19
339 1 12.6593 3.68537 -1.31804 22
340 1 14.6202 4.60388 4.03936 21
341 1 7.70815 7.60784 -3.31675 9
342 1 -2.70363 -2.12315 17.8692 17
343 1 -0.25642 -7.06662 17.6545 12
344 1 6.9879 -7.02572 -1.77912 19
345 1 -0.660505 10.4582 6.22844 13
346 1 14.105 7.39314 12.9609 15
347 1 -4.47259 -3.81104 12.3633 19
348 1 13.6294 6.48239 -1.39408 11
349 1 5.53666 3.26372 21.8131 13
350 1 -2.86995 -4.86138 0.135645 18
351 1 13.098 -1.48696 6.38312 20
352 1 -2.58685 -10.0773 6.55837 18
353 1 11.7644 -10.161 5.01302 19
354 1 9.93651 -10.0051 12.7499 11
355 1 0.304208 4.78145 17.3118 14
356 1 2.59977 -0.739953 16.3944 19
357 1 14.7651 0.863095 11.0896 20
358 1 15.6313 -9.71994 4.3127 10
359 1 8.24999 6.53567 11.2598 21
360 1 5.64525 7.24481 13.9501 17
361 1 4.11425 -5.10963 10.8388 20
362 1 -2.34174 -4.78365 5.92185 23
363 1 4.46378 -0.073878 21.7569 12
364 1 10.0285 9.16464 6.16655 19
365 1 14.3341 -0.320943 16.5059 11
366 1 14.2098 -3.37672 14.7362 12
367 1 13.029 6.63421 15.5267 12
368 1 1.01791 7.37393 6.03749 22
369 1 6.23411 -9.71343 -2.1371 15
370 1 4.29525 -3.33467 -4.24827 16
371 1 -0.896727 -1.2066 19.6702 12
372 1 18.8249 -0.0487686 9.00466 9
373 1 6.57682 10.0381 1.17916 19
374 1 12.2195 1.26195 -3.46856 16
375 1 3.35379 -14.685 4.77244 11
376 1 0.545012 -1.73399 -0.568129 18
377 1 2.59828 -3.39351 -1.89802 18
378 1 2.19841 -7.71531 1.15224 21
379 1 7.70796 -8.13846 18.964 8
380 1 6.42527 -11.1248 15.7024 10
381 1 15.4297 3.55665 -0.683858 14
382 1 -2.68434 10.9534 9.16279 13
383 1 13.7715 -5.35918 4.68988 15
384 1 -8.44094 1.11157 6.08954 9
385 1 16.9074 5.63908 12.3917 13
386 1 8.83905 2.7456 17.6855 20
387 1 -5.32909 -3.69876 0.695712 14
388 1 -2.75232 4.24785 -1.09612 16
389 1 14.9393 -9.00027 9.8624 12
390 1 -2.45009 -6.5256 2.95921 21
391 1 -2.26715 -4.91046 15.9828 18
392 1 15.2987 -0.577407 13.5567 13
393 1 -7.14774 2.72494 8.4434 16
394 1 10.8936 8.83086 1.34694 18
395 1 11.9384 -4.95989 16.6574 16
396 1 -0.927573 0.144331 16.7329 18
397 1 0.467472 0.476061 -5.29887 12
398 1 -2.38334 -8.22183 15.329 13
399 1 9.416 -2.53897 17.0814 21
400 1 5.33979 -13.4831 7.51734 16
401 1 15.7972 -1.69688 0.396156 11
402 1 -7.48488 4.01021 14.3448 10
403 1 0.443487 -4.79819 10.9275 22
404 1 5.2106 -12.124 3.89154 21
405 1 18.6424 5.8847 9.32022 11
406 1 14.6308 -1.71552 8.83555 17
407 1 -5.36461 -9.73836 14.2454 9
408 1 12.1623 13.5233 3.1108 8
409 1 11.193 0.858826 -0.149185 20
410 1 -5.67335 2.32062 -0.205304 14
411 1 7.87108 5.10748 3.67737 20
412 1 9.58765 9.13502 11.7379 15
413 1 12.9652 11.7915 5.87295 13
414 1 0.960679 4.16148 20.1853 13
415 1 12.5686 -2.22844 0.366206 18
416 1 6.78085 -13.2989 10.3518 14
417 1 11.1441 3.75053 15.2073 21
418 1 12.8668 -3.68114 3.15882 18
419 1 -1.70456 7.36114 0.578667 17
420 1 2.79951 3.94796 16.5586 19
421 1 4.43581 7.30699 6.05597 20
422 1 1.73466 -7.5899 11.4832 26
423 1 7.93798 -6.43842 3.1485 20
424 1 3.59746 1.20909 -4.47944 13
425 1 -4.46688 -3.44015 8.59307 21
426 1 -0.979479 8.43757 3.20676 18
427 1 11.3181 0.673892 16.7992 19
428 1 -4.08124 -7.55733 11.3902 19
429 1 18.7351 0.741662 6.01883 11
430 1 1.42133 5.73104 -2.33164 17
431 2 -6.08917 1.22762 1.8389 18
432 2 2.82223 10.632 3.0214 16
433 2 4.05589 -6.27335 -6.25363 14
434 2 1.88267 1.52151 15.8586 20
435 2 -5.38027 -5.13317 1.92855 12
436 2 5.86995 -3.27598 20.4762 11
437 2 -3.9589 -3.50805 10.4831 20
438 2 16.7915 3.86123 12.1042 15
439 2 -1.74301 -9.61898 0.356486 15
440 2 -4.02084 2.86091 5.96707 18
441 2 -0.809006 -8.57566 13.8299 15
442 2 5.70166 1.41817 21.2995 15
443 2 12.669 -2.32577 -2.94876 16
444 2 14.3894 -4.5709 9.40608 17
445 2 -0.563687 8.44221 5.2826 21
446 2 14.5487 5.42339 16.1697 10
447 2 -8.04717 -5.99721 13.554 10
448 2 -2.46536 -9.6977 11.0433 14
449 2 15.0489 -5.06328 12.4067 13
450 2 -6.40623 8.00295 11.2064 9
451 2 -5.28982 6.57207 2.34318 13
452 2 -3.46976 5.2422 17.4189 12
453 2 9.52242 -7.10062 2.21046 18
454 2 -1.19682 -3.63847 -0.100836 22
455 2 7.27371 -4.9559 -2.26126 17
456 2 15.0245 -1.7606 -1.29721 12
457 2 13.3415 11.2884 3.68308 13
458 2 -0.947085 7.42551 10.6374 19
459 2 1.70371 -13.1368 1.76294 16
460 2 4.98738 -13.4968 9.51911 13
461 2 12.6668 -2.22546 8.15087 21
462 2 -8.25194 3.03269 6.76516 9
463 2 15.9571 8.60988 7.85626 13
464 2 10.467 -9.79206 10.9883 14
465 2 4.59096 5.95296 13.307 19
466 2 12.1196 6.65353 8.48078 21
467 2 8.41249 7.0238 2.85727 21
468 2 2.78313 0.648025 22.459 9
469 2 13.7539 0.302699 -2.8158 15
470 2 -2.37204 1.37995 2.36125 21
471 2 -5.90176 -1.9384 15.3199 17
472 2 -2.5632 -11.0549 8.19634 16
473 2 4.45083 -5.03189 12.7841 20
474 2 7.71745 -5.10819 15.2435 19
475 2 1.34571 4.73946 15.5102 18
476 2 -6.04705 3.21722 10.139 15
477 2 10.6925 -13.3432 3.36917 14
478 2 17.1718 3.98598 -0.17747 9
479 2 2.08987 -14.0648 9.37271 13
480 2 6.7046 3.59843 13.9864 19
481 2 15.3254 -8.36051 3.04795 12
482 2 10.6166 -0.80932 17.9215 17
483 2 0.252145 -6.97231 10.4053 19
484 2 16.8666 0.212269 6.59949 16
485 2 5.6429 -8.86044 9.86261 16
486 2 16.0461 -8.05788 8.35915 13
487 2 0.331702 -8.20989 -1.80334 16
488 2 -0.825854 -9.28307 5.75953 21
489 2 3.64229 -10.967 4.40945 20
490 2 -2.55495 -6.5802 5.2127 22
491 2 6.70335 9.15156 8.17342 20
492 2 9.7092 1.92635 0.126738 21
493 2 14.4425 10.6514 6.09995 12
494 2 11.0335 12.4793 1.94128 10
495 2 -0.535571 4.87776 19.1888 11
496 2 -7.651 5.40875 10.5469 11
497 2 -0.306738 3.34367 13.3149 19
498 2 -6.05635 3.75289 15.5431 14
499 2 -1.12005 2.99983 -0.894316 20
500 2 12.8548 1.82194 -0.710912 20
501 2 14.5835 -9.70373 5.89878 13
502 2 15.675 6.63417 13.7357 11
503 2 10.1918 9.39002 8.1644 19
504 2 -2.80977 5.05789 11.748 17
505 2 18.5507 6.96879 7.70792 10
506 2 6.45216 7.55664 5.69266 23
507 2 5.05526 12.8028 4.68674 11
508 2 2.90828 3.90354 13.1361 22
509 2 11.4732 -4.05397 18.2781 11
510 2 9.45622 -3.72911 -0.240996 19
511 2 7.0055 4.48532 20.6324 15
512 2 9.6037 3.75924 -3.10165 18
513 2 3.10965 -6.4644 17.6549 16
514 2 10.785 -10.6404 1.10543 15
515 2 3.87785 -6.76316 0.694567 19
516 2 8.36795 -8.90952 7.98522 20
517 2 16.0967 5.49859 2.89604 16
518 2 -2.15334 7.07742 2.44812 19
519 2 2.52291 10.151 12.804 13
520 2 -4.07736 -8.90168 6.55237 15
521 2 8.79381 6.3271 -2.23193 15
522 2 8.52539 14.8403 7.97507 10
523 2 9.90448 4.65388 18.8137 12
524 2 8.64158 -12.6151 1.7729 13
525 2 7.49378 3.9527 17.1184 20
526 2 13.0402 -3.33568 5.2245 22
527 2 11.6511 4.03229 10.8152 19
528 2 1.39571 3.86451 -2.46404 16
529 2 9.17365 -6.52305 18.7039 12
530 2 0.852076 -12.5166 11.1871 12
531 2 15.4378 -7.33148 14.055 9
532 2 -0.913255 8.7367 -0.363088 13
533 2 -1.04979 -14.8139 3.17737 8
534 2 9.33093 -4.49204 -4.28179 13
535 2 5.69348 -11.008 1.65595 18
536 2 13.1262 8.28454 14.3722 11
537 2 -5.72383 -6.51936 4.62801 11
538 2 -7.36373 -1.68246 9.36204 14
539 2 14.6264 -1.17827 11.083 14
540 2 6.50025 -14.2873 0.753977 10
541 2 4.46791 -2.23629 -2.53168 19
542 2 0.78241 -2.33511 -2.62315 19
543 2 -4.43814 -1.17766 -1.95202 15
544 2 -0.334346 -0.107247 21.3102 11
545 2 -0.0616231 -5.63745 -3.20322 16
546 2 11.7144 -4.48571 -5.43534 8
547 2 11.1963 -1.03569 -0.368309 21
548 2 -2.71966 -4.80904 8.13081 21
549 2 8.083 -1.77595 -5.36146 13
550 2 2.00508 -3.9274 -0.156822 20
551 2 6.28135 7.99982 0.605043 20
552 2 4.66741 12.6703 13.2639 10
553 2 18.5259 -1.72474 8.71473 11
554 2 -6.42735 -0.122614 11.8666 19
555 2 2.38459 -9.72349 13.3852 17
556 2 2.24617 -1.155 -0.616361 15
557 2 1.11469 4.73409 10.5247 20
558 2 -1.46874 -7.26628 8.02634 21
559 2 -2.33584 7.19221 7.97723 19
560 2 -6.0799 -4.90827 14.8654 15
561 2 6.517 -13.5122 12.3521 10
562 2 -6.41446 -9.56006 12.732 8
563 2 -0.523231 -13.4572 8.76952 10
564 2 -4.59532 -7.4681 9.42831 17
565 2 13.9391 -4.75911 15.8668 14
566 2 8.28587 10.8282 0.592775 14
567 2 11.5431 9.61061 11.6112 16
568 2 16.0793 2.58289 -2.45254 10
569 2 5.3438 14.4819 7.59082 12
570 2 -6.70891 -1.38898 0.620559 11
571 2 -5.22058 0.953608 8.64265 20
572 2 3.91022 -13.5365 -0.467769 11
573 2 10.0736 -9.05317 14.1894 13
574 2 17.003 -7.01939 11.0933 11
575 2 1.31459 10.6342 6.23054 16
576 2 13.0414 2.03413 6.11754 21
577 2 8.50601 -3.66464 18.4152 16
578 2 8.10846 4.56638 10.7956 22
579 2 3.3003 0.147099 17.8035 15
580 2 -3.86895 2.26484 11.7506 19
581 2 12.7949 9.18981 1.95539 14
582 2 -1.98505 -6.39186 -0.209116 15
583 2 -7.64162 1.70819 4.5224 10
584 2 -4.73537 1.68175 17.2272 14
585 2 10.1934 9.45778 3.31756 20
586 2 14.5813 4.67555 5.96513 18
587 2 14.8345 -6.33954 6.1929 15
588 2 -5.18561 -10.4229 8.96024 12
589 2 2.67627 7.80489 11.0765 19
590 2 -0.570856 4.44467 2.18772 23
591 2 8.02483 0.411296 -2.45452 18
592 2 -3.9297 4.19086 8.99114 17
593 2 -7.57864 -5.14862 10.1971 15
594 2 10.2713 -14.0548 6.74502 14
595 2 6.28099 -9.83235 5.6911 18
596 2 -4.03051 9.73145 9.35857 13
597 2 -6.21231 1.06818 -1.53504 10
598 2 11.2095 -9.00363 6.3161 18
599 2 9.86258 3.85377 13.3927 17
600 2 7.52723 0.786355 -5.69152 9
601 2 3.96551 8.89548 -2.51885 14
602 2 11.869 5.93213 -2.09736 14
603 2 2.82919 8.02844 5.16826 23
604 2 -3.34549 -0.606131 18.7561 14
605 2 -3.8595 -3.2498 16.8052 13
606 2 -7.08526 -0.125724 6.53666 13
607 2 1.56413 -7.10395 13.2107 21
608 2 7.52281 9.33172 -2.49833 12
609 2 12.9874 -1.91143 2.37526 19
610 2 6.10417 0.016805 18.3068 20
611 2 5.16236 0.305524 -5.81691 12
612 2 12.8331 3.32834 8.70625 21
613 2 7.7437 6.56097 13.2933 19
614 2 -8.51145 -7.71508 10.7049 9
615 2 0.912088 7.76927 2.9492 20
616 2 9.08521 0.990451 16.8673 19
617 2 8.32793 -14.6191 3.99133 13
618 2 -5.47281 -7.8323 14.629 11
619 2 11.0968 2.90163 17.1629 17
620 2 13.7979 7.06573 0.360026 14
621 2 9.05348 12.0839 8.37011 14
622 2 5.81867 -10.6051 13.9411 13
623 2 12.1779 -8.70091 3.30511 17
624 2 2.28188 0.242689 -5.48163 11
625 2 8.95035 1.83588 19.5985 17
626 2 2.91946 -4.85647 14.8243 19
627 2 7.04066 -7.95241 14.821 17
628 2 0.280394 -3.59281 -5.80719 11
629 2 17.4366 2.94858 2.41215 13
630 2 -0.853054 10.0823 8.30117 18
631 2 10.0826 -8.83929 -1.13124 13
632 2 0.870461 2.30636 20.9835 13
633 2 -2.8445 1.1084 -3.12221 16
634 2 14.0408 -10.0693 8.59779 14
635 2 10.0629 8.29674 13.4037 12
636 2 14.3036 3.06194 10.8038 22
637 2 14.7844 6.08887 8.79778 19
638 2 -4.23735 -2.251 1.22159 20
639 2 -1.99528 5.3717 5.46637 20
640 2 -2.61549 5.75947 0.0413846 17
641 2 17.3621 7.21584 5.3245 12
642 2 0.0652783 10.0902 2.57767 16
643 2 0.678151 -7.24242 16.017 18
644 2 0.578745 -1.26774 15.8355 22
645 2 0.72263 -6.5165 0.459369 21
646 2 2.97175 -7.8883 -3.07606 15
647 2 13.1127 13.7286 4.95499 10
648 2 13.1177 10.8461 9.08858 10
649 2 1.5367 -5.27847 -7.44837 8
650 2 -1.60687 -12.9613 5.41312 15
651 2 14.514 0.257469 8.41876 23
652 2 -1.44874 11.3319 10.7088 12
653 2 8.4055 -12.8296 9.43873 17
654 2 11.48 -5.5639 7.82724 19
655 2 -0.909986 -1.46453 12.9513 20
656 2 -3.75812 -7.8833 2.78228 15
657 2 4.42388 3.28992 15.9116 20
658 2 8.36749 10.3542 5.92738 20
659 2 -3.35538 4.34137 14.8304 16
660 2 5.27497 -4.09186 17.6192 18
661 2 4.09503 13.7612 11.1873 11
662 2 6.85137 -12.7453 4.87292 21
663 2 9.15381 -2.87013 13.3259 21
664 2 8.16653 -0.762104 20.0412 13
665 2 -7.16672 2.85779 12.8499 15
666 2 5.22905 6.96793 3.12859 18
667 2 2.47203 6.54677 17.6156 14
668 2 0.036696 -11.3093 -0.478876 11
669 2 15.4613 -2.72974 6.96004 16
670 2 13.399 -9.33238 0.382364 12
671 2 3.992 12.5925 8.62505 13
672 2 3.61855 3.31251 21.6204 13
673 2 -3.47632 3.89588 3.067 20
674 2 14.0516 -5.3426 2.70839 15
675 2 9.8372 7.27722 5.58657 22
676 2 0.0756615 0.286804 18.4669 21
677 2 1.71409 -2.66325 18.1897 17
678 2 3.18587 2.25633 0.0410919 19
679 2 -7.66932 4.04464 2.98638 10
680 2 4.122 -5.1515 -2.48065 18
681 2 4.43334 5.42105 0.172081 20
682 2 5.58113 -4.64301 -4.95827 13
683 2 13.5186 -4.96022 -2.64582 12
684 2 2.75946 -7.5549 3.58633 21
685 2 3.86285 -12.4794 11.6889 14
686 2 9.0862 -4.01494 10.2041 21
687 2 16.0776 -0.52215 1.81165 10
688 2 5.75319 -11.3641 7.81067 17
689 2 13.072 5.92608 11.7505 19
690 2 1.43288 13.3424 11.7983 8
691 2 -6.88909 -7.97879 8.28743 12
692 2 13.053 3.782 3.24963 16
693 2 6.83467 -6.03318 12.4874 19
694 2 -6.66427 5.67653 13.825 11
695 2 11.0976 1.04772 2.54558 22
696 2 10.059 7.11204 10.8689 20
697 2 -4.89566 0.980295 14.3239 22
698 2 6.38129 9.85331 3.19674 21
699 2 10.5088 0.672428 -3.48381 18
700 2 2.8912 -2.1539 13.1989 22
701 2 4.32439 5.5013 19.465 14
702 2 15.1718 1.11126 13.2211 15
703 2 9.08841 -1.9886 -3.09941 17
704 2 -2.22861 -4.89569 2.14135 24
705 2 16.0424 1.46362 -0.202568 14
706 2 4.44441 6.85785 8.10196 23
707 2 7.69261 -8.68337 -3.26737 13
708 2 -2.2689 -1.33354 15.9109 20
709 2 -2.70981 -0.373165 10.7908 20
710 2 12.507 -12.3166 6.32109 14
711 2 0.893609 -10.3107 3.61939 20
712 2 1.61962 -13.9036 4.77341 14
713 2 19.8737 1.27828 7.56107 9
714 2 1.14483 9.39448 -2.89702 10
715 2 8.07109 9.78848 10.8957 16
716 2 5.48652 -10.9994 -1.0754 14
717 2 8.39894 0.547797 12.8416 18
718 2 6.26648 7.2341 18.9649 9
719 2 -0.0813243 6.76258 -2.68384 15
720 2 4.27059 -13.8739 3.23503 14
721 2 -8.06797 -10.3884 10.2113 8
722 2 -5.62466 7.29445 8.01296 13
723 2 15.1458 8.61544 3.33214 12
724 2 1.32551 5.35162 0.444477 18
725 2 9.48107 4.16469 3.02229 22
726 2 -1.97661 -2.56031 -2.98937 19
727 2 2.38598 -9.62328 1.07144 18
728 2 -4.84514 -0.300524 3.96642 18
729 2 11.1192 5.76557 15.933 13
730 2 -1.88029 -0.970282 -0.642242 21
731 2 -2.05919 -7.06223 11.2137 20
732 2 12.7084 3.4289 14.2808 20
733 2 4.99897 2.71148 18.8217 17
734 2 14.3809 4.77254 -1.90189 13
735 2 4.9209 10.397 -0.3535 15
736 2 4.5987 10.5125 6.39647 18
737 2 13.735 1.08258 15.5039 16
738 2 10.9823 15.7281 5.98013 7
739 2 3.95456 -5.07525 20.4878 11
740 2 5.0022 -9.66553 -3.76487 13
741 2 13.3041 -1.39704 17.5579 12
742 2 -0.420582 9.0175 13.0884 14
743 2 11.517 -7.89623 9.42696 17
744 2 14.6212 -6.6172 -0.4585 10
745 2 2.11737 8.32197 15.0164 18
746 2 10.9997 -6.55554 16.4258 17
747 2 3.06248 8.15697 1.17969 21
748 2 1.88701 3.50081 18.566 19
749 2 -4.50962 4.04124 0.0772137 13
750 2 8.29953 12.2773 3.39576 13
751 2 2.65229 -10.8223 -2.29787 15
752 2 6.43667 -7.16343 -5.55676 9
753 2 1.12141 0.761179 13.1119 19
754 2 17.3699 -4.95425 8.61916 10
755 2 1.56704 10.354 -0.0420183 13
756 2 -7.29994 0.419362 17.1774 8
757 2 -0.870846 -12.1835 1.98251 15
758 2 5.31952 7.75083 15.7771 12
759 2 1.59536 -6.77971 -5.20288 12
760 2 3.38101 -2.89924 -5.88866 13
761 2 8.1744 4.74873 0.0936605 18
762 2 4.48166 1.07337 -2.69202 19
763 2 -0.183031 6.22948 13.047 20
764 2 -3.3095 8.92394 11.927 14
765 2 7.76906 14.3997 5.41494 12
766 2 0.518484 -11.9842 6.61432 19
767 2 12.2794 3.31282 -3.56743 12
768 2 12.9307 -4.06488 0.0234952 16
769 2 -3.49546 -9.56174 14.2419 10
770 2 -6.12936 5.42254 5.11001 13
771 2 -3.29856 -4.51966 14.2816 22
772 2 0.873146 -1.0527 1.44929 19
773 2 4.28162 -8.19294 15.6728 17
774 2 5.14492 9.28483 13.3263 17
775 2 8.09822 -11.8207 14.943 10
776 2 4.27617 -1.29168 15.8151 22
777 2 6.02068 6.81198 -3.46773 11
778 2 8.34124 6.88528 16.1266 12
779 2 -2.07065 -10.4346 3.33383 17
780 2 -0.100732 -4.9161 12.9002 19
781 2 -2.06131 1.12338 14.8459 17
782 2 2.85978 6.7031 -3.1732 12
783 2 -4.07762 -4.13258 -1.07762 14
784 2 0.923382 12.3719 9.09948 11
785 2 10.1453 -5.87069 13.2798 18
786 2 14.2997 8.44668 11.156 15
787 2 4.79768 -14.5166 5.86654 11
788 2 -4.1872 -5.76415 12.1531 13
789 2 -4.35365 -1.53921 7.76065 19
790 2 7.30838 1.23055 15.0478 17
791 2 7.58875 -1.74418 16.2054 20
792 2 11.1814 -11.3606 8.70358 18
793 2 15.7921 2.95897 8.01256 18
794 2 6.12793 -7.44523 2.45491 20
795 2 1.22798 7.31696 8.00086 23
796 2 -2.17381 4.35432 -2.98263 13
797 2 -3.63932 -1.77714 12.8801 19
798 2 10.8081 -3.07713 15.7183 21
799 2 3.20979 -1.57763 20.7938 12
800 2 13.0744 -2.62532 13.1912 17
801 2 11.4005 4.76946 0.040373 23
802 2 11.2576 11.8554 6.68546 14
803 2 10.5446 -6.84539 -3.79065 12
804 2 14.4819 -1.5444 15.0542 11
805 2 19.2291 2.0418 4.72875 8
806 2 11.2478 -4.4731 2.72637 20
807 2 4.94679 9.99682 10.1381 19
808 2 12.2185 -5.12247 10.7562 17
809 2 4.43496 -7.95466 12.8546 18
810 2 0.637902 -5.72027 18.9277 11
811 2 -1.05243 -2.94324 18.5151 15
812 2 7.05594 -14.6022 7.43745 13
813 2 12.7305 -11.2474 3.67378 16
814 2 12.8398 -7.98285 14.0976 11
815 2 8.11571 -8.91084 17.2365 11
816 2 11.4314 -6.17712 5.33321 17
817 2 -3.17258 6.73441 14.4274 14
818 2 11.4655 6.79954 2.66086 21
819 2 5.3665 -8.02812 -1.20342 19
820 2 12.945 -8.34836 -2.26294 10
821 2 5.9996 3.92239 -2.29308 15
822 2 -0.393597 1.90797 -4.44152 12
823 2 17.1069 6.31292 10.3873 13
824 2 -4.07783 -3.73291 5.08692 20
825 2 17.6915 1.53993 9.7322 14
826 2 -8.35414 1.86826 9.8708 13
827 2 3.12048 -10.3936 10.1631 20
828 2 9.68063 7.77959 0.191072 19
829 2 17.354 4.40141 5.38066 15
830 2 11.2751 4.79993 6.08409 22
831 2 6.25179 -6.8817 18.3045 15
832 2 -5.61281 -4.76906 7.72522 16
833 2 16.1201 3.66838 14.9539 11
834 2 9.27058 -11.6838 12.1623 12
835 2 19.0651 4.02237 9.76024 10
836 2 -2.36828 2.63916 19.5778 12
837 2 -4.10875 7.66631 5.20552 15
838 2 14.4159 -0.451252 4.9376 17
839 2 8.09962 -10.3789 2.69913 19
840 2 -0.929953 -7.71164 2.93976 21
841 2 8.52656 6.49415 8.36185 22
842 2 13.6878 -8.67949 11.3226 14
843 2 6.41419 7.32815 10.943 22
844 2 2.66575 -9.45542 6.62321 21
845 2 -1.87351 -6.75568 16.3279 12
846 2 -0.430976 7.11375 16.0116 15
847 2 4.88215 3.13034 -4.79512 10
848 2 -3.86519 1.28106 -0.239904 19
849 2 -6.30144 -3.17786 12.5439 19
850 2 10.8523 0.00753048 14.3474 19
851 2 -0.696166 -0.56947 -4.13307 16
852 2 12.6367 0.802138 11.8085 21
853 2 14.2965 1.5665 2.45279 17
854 2 1.29132 1.07708 -1.96051 20
855 2 13.3287 7.03518 5.30605 20
856 2 0.186827 -9.58361 9.56503 20
857 2 6.78924 13.5596 10.5648 11
858 2 2.70479 10.0758 8.3953 18
859 2 8.97825 -10.8888 5.71501 19
860 2 7.56533 -6.61176 0.0902023 18
861 1 -1.0352 -3.66855 3.29561 23
862 1 2.9675 -1.96053 0.849819 19
863 1 3.77113 -4.9024 0.84965 21
864 1 4.28086 -6.64404 3.02844 20
865 1 2.46601 -3.55044 3.35647 21
866 2 0.608028 -6.39148 5.61967 22
867 2 -0.956089 -3.59405 5.53025 20
868 2 -2.02148 -2.10772 3.10856 21
869 2 0.793714 -4.68019 3.14216 20
870 2 4.17713 -6.53524 5.32249 22
871 2 2.21877 -3.42203 5.36377 21
872 2 3.17063 -1.55983 3.27308 20
873 2 4.32248 -4.04544 2.50258 22
874 1 -0.903627 -1.64208 5.42704 20
875 1 0.845676 -4.44242 5.96306 22
876 1 -1.25512 -8.1677 9.87141 18
877 1 -0.989875 -3.47931 8.29603 22
878 1 -1.13982 -1.65752 10.7148 20
879 1 0.613539 -6.75995 8.58137 25
880 1 2.37813 -7.52405 5.81928 22
881 1 2.73957 -1.54043 5.84876 22
882 1 3.81768 -4.50264 5.76587 23
883 1 4.19717 -6.41759 8.7048 23
884 1 2.21646 -3.51678 8.39372 24
885 1 2.653 -1.72308 11.2801 22
886 1 2.66711 -4.18401 12.9786 19