ITEM: TIMESTEP
17000
ITEM: NUMBER OF ATOMS
2000
ITEM: BOX BOUNDS pp pp pp
-30.0 30.0
-30.0 30.0
-30.0 30.0
ITEM: ATOMS id type x y z Coordination
1 1 -9.96184 4.51412 -11.7726 16
2 1 -1.55948 -8.34751 -10.0412 21
3 1 3.27257 12.5659 14.5378 17
4 1 8.15031 -11.3596 7.89224 11
5 1 -8.91381 10.1418 -1.71058 23
6 1 13.5511 -7.36975 -7.04337 14
7 1 -13.0813 5.81341 -7.10247 14
8 1 0.504109 -8.56702 13.4887 12
9 1 -9.345 0.34534 -8.28273 20
10 1 -13.5147 -11.0547 7.28481 11
11 1 12.2327 0.0451165 -11.6804 14
12 1 -5.50655 -12.0194 1.92039 22
13 1 -11.3988 -5.15402 3.14165 20
14 1 3.5265 1.28011 17.5816 12
15 1 9.41064 -2.95406 6.37024 18
16 1 1.00798 3.61826 10.6522 22
17 1 -0.061314 9.31874 -11.5547 18
18 1 2.64912 1.02069 10.5598 21
19 1 -6.71645 2.55721 -15.5918 14
20 1 -11.4965 -3.01451 13.1874 13
21 1 14.5798 4.47591 5.74047 26
22 1 1.09828 11.6531 -10.8161 13
23 1 4.68886 2.94009 -13.117 20
24 1 14.493 2.27018 11.7863 15
25 1 -8.29554 -1.76425 3.30164 22
26 1 -10.319 7.63245 -8.9599 19
27 1 -2.36211 -3.36638 -9.196 21
28 1 -8.25478 7.93912 10.2241 21
29 1 8.40078 -12.0811 4.71003 18
30 1 4.00741 -1.47303 9.74481 20
31 1 -0.526112 -12.1484 -8.78783 14
32 1 10.8088 -10.7733 -0.215972 11
33 1 -6.18969 -12.3681 -6.09923 13
34 1 -11.4337 -6.33009 12.2335 18
35 1 3.80456 -7.03719 -17.2639 12
36 1 11.8512 -8.4563 -12.1324 13
37 1 1.92041 5.10956 -13.1703 21
38 1 0.155461 2.00302 12.559 18
39 1 3.96075 -13.1667 9.29377 14
40 1 6.71064 -5.54963 12.3816 13
41 1 -14.2138 -0.335438 6.12681 15
42 1 -13.4965 1.09175 9.30978 13
43 1 -6.27471 0.659186 -3.22575 19
44 1 -1.7523 11.5318 -1.25446 20
45 1 -2.07776 -11.3241 -10.8121 15
46 1 -0.477146 0.466728 -6.41353 20
47 1 4.65391 -5.04676 -11.0759 20
48 1 -0.145132 -4.04266 13.4076 18
49 1 -11.9295 0.665998 -0.576899 21
50 1 6.49718 11.123 -11.5137 15
51 1 4.12414 14.3482 9.53402 15
52 1 -7.61502 6.92608 -7.26984 20
53 1 1.17759 13.6977 -0.784973 21
54 1 5.6785 -9.64796 3.2714 19
55 1 8.72049 -4.94817 -2.41346 20
56 1 9.69142 -5.28199 -15.784 13
57 1 -5.04154 8.40599 11.8916 21
58 1 -13.4221 -1.69603 -4.07445 19
59 1 8.93542 4.5863 5.78555 19
60 1 -3.44376 5.69774 -1.65391 17
61 1 -7.84061 -7.09724 6.48992 19
62 1 -0.14295 12.2004 13.0967 16
63 1 -10.0188 4.92675 -5.35438 20
64 1 -3.23939 11.337 11.3765 16
65 1 2.21092 5.87551 -6.4626 20
66 1 -3.2593 -17.7218 8.62798 12
67 1 1.99592 5.71708 7.50458 20
68 1 6.7898 -14.4248 -3.18511 14
69 1 7.7133 9.15885 16.3881 18
70 1 -14.3625 2.86813 -8.43043 11
71 1 -7.98369 11.2993 -13.2499 7
72 1 6.43167 3.67546 10.8082 22
73 1 11.5267 -3.57582 -6.61851 20
74 1 10.0894 -13.1778 1.86765 12
75 1 -14.5127 -1.82462 8.8063 15
76 1 4.59405 17.2403 5.08903 13
77 1 7.38989 -3.40522 15.776 8
78 1 -7.7284 -8.01802 9.57511 20
79 1 -8.04875 -2.02137 -0.228747 21
80 1 14.055 1.17444 6.30459 17
81 1 8.93011 -4.87602 1.05429 19
82 1 -0.368505 11.241 10.2216 21
83 1 6.50358 1.30629 12.2594 20
84 1 -6.18089 -4.91956 3.52309 20
85 1 -4.84024 -3.92657 -7.80982 22
86 1 -12.1542 10.8709 6.64106 11
87 1 -6.48936 8.27896 -2.95229 19
88 1 -5.1328 7.56522 -12.1019 19
89 1 5.79554 -0.855692 -5.39786 23
90 1 8.55734 14.3884 -5.97528 18
91 1 11.4092 -10.5696 3.24074 14
92 1 5.51825 -7.8499 10.5652 17
93 1 -2.29408 13.4521 -4.19186 18
94 1 -9.08153 14.7647 3.70241 12
95 1 -6.28752 -4.79347 16.3596 15
96 1 -3.19341 5.76326 4.65728 19
97 1 -4.59585 -7.71268 15.0717 14
98 1 15.7664 -7.20413 -4.51871 13
99 1 -10.4714 4.93466 4.26653 20
100 1 -6.20141 -10.7068 4.33378 22
101 1 13.6842 -9.02351 -3.58693 12
102 1 5.46825 2.31649 -7.0406 21
103 1 -4.42966 -0.904241 -16.1636 12
104 1 3.23208 11.9223 0.872525 18
105 1 -7.93124 9.63558 -11.2732 16
106 1 0.829898 6.01913 16.628 17
107 1 2.54272 12.2402 -8.30687 19
108 1 -13.8156 12.7538 1.07741 7
109 1 0.40945 10.8201 0.318883 17
110 1 -7.34326 -7.63336 14.7732 14
111 1 16.4938 0.724658 9.35584 14
112 1 0.199254 -4.30193 -6.90303 24
113 1 4.94712 -6.89562 -5.72323 20
114 1 0.797268 2.86865 7.81574 23
115 1 7.24276 -0.578876 14.5642 18
116 1 -7.83894 -7.15293 -1.20247 22
117 1 6.47037 -7.00085 5.13245 17
118 1 -9.3736 -10.3598 -1.54168 16
119 1 13.1531 -9.15639 0.0586722 12
120 1 -0.0823056 6.8361 5.81349 21
121 1 8.79737 7.90629 -11.6671 19
122 1 6.28069 18.7595 -3.17614 10
123 1 -7.7514 -13.2774 12.0399 15
124 1 -8.25372 -11.1891 9.60596 21
125 1 9.84322 -8.02969 -14.8576 11
126 1 6.07536 4.2852 -2.51233 22
127 1 14.6435 -7.02087 -0.795476 18
128 1 -0.619243 -17.3872 7.78535 13
129 1 -11.256 -13.7846 0.92586 7
130 1 14.6611 7.96939 9.59745 18
131 1 15.668 -0.672818 -8.81075 13
132 1 -15.8832 -7.76089 3.88637 11
133 1 9.75575 10.5244 6.98387 19
134 1 16.0329 7.5065 1.48397 15
135 1 -8.21712 0.637925 15.3463 16
136 1 8.19036 9.119 -1.58547 19
137 1 -2.71958 11.8185 7.86427 18
138 1 -4.2711 13.9834 -1.85487 18
139 1 3.63508 -6.21445 -13.8667 20
140 1 9.67748 -9.86912 -9.49526 16
141 1 -2.00802 12.275 -12.015 9
142 1 6.35618 -1.72238 11.1199 22
143 1 4.1017 -0.30452 -16.8763 12
144 1 -0.0919625 10.9272 -5.87533 19
145 1 13.5169 1.95374 -6.46414 15
146 1 -8.5717 8.08572 -4.59445 19
147 1 -8.1347 16.1951 -0.483035 12
148 1 7.66847 -0.558619 -8.02427 19
149 1 9.34083 -9.05779 6.2589 15
150 1 -5.43412 2.87401 -4.91244 21
151 1 -9.46476 12.2948 7.80161 15
152 1 13.7494 10.992 -8.15053 13
153 1 5.49546 13.4629 -6.40528 17
154 1 -2.16975 17.8312 0.464122 13
155 1 12.0415 9.05416 1.80689 19
156 1 -2.6207 8.37696 -4.04681 17
157 1 3.32016 16.9256 -8.96621 9
158 1 9.53649 10.5701 -13.4242 13
159 1 -12.0828 -11.9239 4.13394 11
160 1 -11.533 11.421 -1.13021 13
161 1 -0.771043 0.104235 -13.377 20
162 1 5.90589 -8.89893 -15.2737 13
163 1 7.37066 13.0235 8.24355 15
164 1 1.51971 16.9678 0.0529297 13
165 1 -10.8583 -3.92381 -4.97844 22
166 1 -9.28389 13.7211 -1.69489 19
167 1 17.6768 0.607114 -1.30221 10
168 1 -8.3792 1.07164 -12.4609 14
169 1 6.76559 1.98386 16.3129 15
170 1 4.23247 18.1813 1.91815 12
171 1 -4.09816 8.4099 2.70601 20
172 1 8.33054 -3.33203 -17.4311 11
173 1 -5.71416 12.2679 6.62731 17
174 1 -2.39398 14.5625 -7.12045 13
175 1 3.91362 -5.16994 10.7403 23
176 1 -8.6447 -4.02505 5.11045 24
177 1 -3.7039 -9.90622 -15.0349 5
178 1 -7.86486 13.9661 -7.092 11
179 1 -4.4741 -12.9299 6.79983 19
180 1 2.85191 -14.6366 -0.405812 19
181 1 -2.53424 9.48568 -13.6177 13
182 1 -13.2571 -1.15562 11.9804 13
183 1 2.39918 8.74011 -1.15458 17
184 1 12.8207 11.1776 -0.58832 21
185 1 -0.430898 3.07991 15.5802 16
186 1 -1.30109 -10.8748 11.7129 16
187 1 -9.23948 -0.0218648 -1.81587 23
188 1 -1.90642 14.0548 0.562574 20
189 1 3.06855 6.21991 10.5626 21
190 1 12.2156 3.79136 13.8131 19
191 1 -5.90357 12.1054 3.33902 18
192 1 14.6358 -3.82474 -7.9181 13
193 1 -7.45918 14.0162 6.99416 14
194 1 -2.91134 2.83403 -6.79147 22
195 1 16.5121 -5.59099 1.24505 11
196 1 -5.86586 -4.94732 7.13191 23
197 1 -11.8653 3.33871 10.4136 13
198 1 -9.16117 -9.6636 6.69999 21
199 1 7.1521 7.41861 11.2019 21
200 1 -15.8298 0.487522 0.668407 11
201 1 0.577572 -13.5535 3.67195 18
202 1 6.42898 -7.05347 1.65126 20
203 1 -0.888174 9.34289 3.42487 15
204 1 -9.47691 1.08849 4.81166 20
205 1 6.69862 13.854 13.8682 15
206 1 -9.1618 1.58376 -4.18159 19
207 1 -5.12547 12.7762 -5.64582 17
208 1 -12.6268 -4.8228 -2.48084 16
209 1 -9.12297 -4.30541 11.6698 15
210 1 2.24524 -10.1484 4.94875 20
211 1 4.05953 -15.9617 7.02765 12
212 1 -11.2099 14.1396 0.230638 14
213 1 16.6971 0.425617 1.55458 12
214 1 8.02365 1.60784 -5.62845 20
215 1 -5.06724 -4.35037 -14.2972 13
216 1 3.81937 3.54967 12.6006 20
217 1 8.52769 -15.3892 2.77958 10
218 1 -3.16041 5.5399 -8.96033 22
219 1 5.98914 -11.7257 -13.7409 7
220 1 6.86371 5.53099 -12.585 19
221 1 5.73719 8.66965 -13.3989 14
222 1 -7.78203 -3.78744 -5.79227 20
223 1 -0.00197847 15.9378 -4.95822 12
224 1 -13.7679 -10.4411 10.4435 12
225 1 9.47394 18.4569 -1.63987 8
226 1 -3.99234 4.06577 15.5017 12
227 1 -6.63852 12.3433 -2.9078 22
228 1 8.66171 1.94026 7.3737 19
229 1 -5.42483 -3.89336 -11.3965 20
230 1 -5.6002 9.2672 -9.52331 17
231 1 2.40892 7.49115 -9.30973 20
232 1 -2.72492 -10.6132 14.0426 13
233 1 -9.20879 4.69938 9.03119 18
234 1 -6.10397 5.17855 10.393 14
235 1 -0.679476 -9.49578 -7.36654 22
236 1 -2.16492 -11.7515 2.81562 20
237 1 8.0598 -11.6738 -5.53111 13
238 1 13.8953 7.93907 14.751 9
239 1 7.87203 10.231 -8.41679 20
240 1 -0.242488 9.74246 -2.71853 21
241 1 -9.04611 0.640635 1.35904 21
242 1 -7.5804 15.285 -3.95802 12
243 1 5.37083 6.76987 9.09131 21
244 1 0.455265 -19.638 4.9386 8
245 1 15.2545 -1.45577 -1.44266 16
246 1 1.8655 9.42097 4.61267 19
247 1 -7.98256 3.12098 6.17354 19
248 1 -9.63759 -4.12655 -1.63341 21
249 1 9.62555 7.53739 -9.19911 20
250 1 5.75504 1.08267 9.45178 22
251 1 10.1569 13.0244 -9.04158 14
252 1 3.51044 -8.45294 0.643096 23
253 1 0.0671071 -2.40592 -11.7808 21
254 1 2.01051 -13.0464 6.77904 20
255 1 10.7823 1.61264 -4.713 19
256 1 -10.5461 -1.86937 8.28471 19
257 1 1.86267 -16.2279 1.72952 20
258 1 -11.2095 -5.63303 -7.2256 11
259 1 9.29004 13.3757 -0.908624 17
260 1 2.04892 -1.40323 -13.9947 24
261 1 4.57924 6.76246 13.3404 21
262 1 12.3 3.93059 2.84773 20
263 1 -5.14804 -7.27634 5.21404 22
264 1 11.1835 -1.54022 -9.03906 22
265 1 -2.60544 -13.1364 9.55929 21
266 1 -8.19767 -1.6752 -11.1148 13
267 1 -8.24628 3.3978 -6.92554 24
268 1 -5.95561 -12.8021 9.81153 21
269 1 8.83154 -3.46625 12.3165 19
270 1 6.14778 -4.49188 6.25915 19
271 1 -4.01522 -7.20767 -12.982 16
272 1 3.41203 -3.62029 8.30309 19
273 1 4.15227 6.31256 -11.261 22
274 1 8.14965 6.30389 3.52732 23
275 1 -12.1384 -8.48461 7.46504 21
276 1 1.51702 12.6671 5.69233 20
277 1 -6.239 -3.81843 13.1793 16
278 1 -10.1543 -8.93083 -7.88058 8
279 1 -2.80793 -1.73406 -11.3551 18
280 1 -3.27807 5.28801 -12.6306 23
281 1 -6.89762 -9.01517 -9.82407 14
282 1 -1.91259 -6.76509 3.97437 20
283 1 10.1738 -2.41334 -12.1925 17
284 1 16.0884 2.37377 -8.22116 11
285 1 11.0091 -0.0888289 8.04687 20
286 1 -11.3309 -9.66435 10.0605 20
287 1 -3.7993 -9.01794 2.23275 20
288 1 9.3876 5.37003 14.9905 24
289 1 -6.19224 -15.9714 2.38379 14
290 1 0.664388 -12.9528 1.0726 22
291 1 0.857429 12.4675 -3.71253 19
292 1 11.1606 3.17479 -12.4329 16
293 1 -2.80042 -2.48108 -14.2562 18
294 1 -14.1402 -7.59081 12.7078 9
295 1 6.28067 5.67978 16.3088 18
296 1 2.65235 -10.8533 1.98136 18
297 1 -3.85846 -9.31387 -8.3542 23
298 1 -13.2726 7.24064 -9.53369 7
299 1 7.88307 7.1138 7.16425 19
300 1 -5.42905 0.469267 -10.7105 18
301 1 -0.0530972 6.31276 -10.7239 25
302 1 -2.99126 -4.42787 8.41572 21
303 1 5.18957 -12.2211 -9.63779 11
304 1 -4.49162 16.7154 -1.78537 12
305 1 -0.629988 14.9466 4.71678 15
306 1 15.9768 -2.5823 4.12193 12
307 1 -8.01421 -1.18178 6.49229 20
308 1 -2.98025 -4.08933 11.5379 23
309 1 -2.9791 10.8893 4.70155 18
310 1 7.12755 -7.07989 -17.3221 10
311 1 15.916 8.73237 -2.71981 16
312 1 6.43033 -12.5456 2.35487 20
313 1 -0.861757 -2.94539 16.55 14
314 1 -16.4497 -5.29202 5.12036 15
315 1 -2.00917 -15.1465 -5.60599 12
316 1 -7.88945 10.6175 10.3696 13
317 1 -10.6169 2.57617 15.9212 6
318 1 -14.0316 -4.30592 10.7861 13
319 1 -13.8265 -7.30109 9.85276 16
320 1 7.88902 -2.64124 -4.28271 18
321 1 -12.231 -3.92086 7.70802 17
322 1 9.5829 -0.856577 -6.03448 20
323 1 10.3619 -10.6514 -3.74879 12
324 1 5.95608 15.5252 -4.50115 19
325 1 -9.4526 12.1563 -4.29658 11
326 1 11.9099 6.79255 13.0724 18
327 1 -12.4758 0.442903 3.39011 17
328 1 8.13789 -8.61913 -7.1335 21
329 1 -5.56667 9.97114 -0.112435 18
330 1 -4.97942 3.27673 4.93244 22
331 1 6.84725 -13.6743 7.72132 9
332 1 15.4812 -4.09034 7.02511 10
333 1 -0.906213 5.65513 8.8418 21
334 1 -8.83332 -6.38189 -4.96687 20
335 1 1.97642 -1.79004 18.3272 8
336 1 0.471055 13.2419 2.51134 20
337 1 7.77148 7.22121 14.2739 24
338 1 -4.98966 15.6749 -5.22089 12
339 1 1.05928 -2.06937 -17.5275 11
340 1 -6.21831 1.84477 -8.09401 20
341 1 8.81124 -9.89327 -12.6447 14
342 1 -6.89041 3.67697 13.9794 12
343 1 -12.7368 6.44873 2.20491 17
344 1 -2.31331 -2.46019 -5.96998 21
345 1 -4.05351 10.9725 -2.85978 17
346 1 10.8534 -0.548869 5.24733 18
347 1 -8.90375 -11.4582 4.16945 19
348 1 10.6536 -6.05617 7.31123 12
349 1 -10.7278 -12.1793 11.2254 12
350 1 -10.7416 3.44577 -2.17813 23
351 1 -2.07061 -1.79909 9.4134 19
352 1 2.97549 -11.0529 -4.66424 17
353 1 -7.37773 -1.17111 -7.50642 18
354 1 13.3111 1.85517 -13.536 8
355 1 5.94431 14.7422 3.43658 20
356 1 -12.9656 -2.71801 -6.66965 14
357 1 6.01728 -7.57408 -11.982 18
358 1 11.8591 4.09351 -8.84403 18
359 1 -4.58989 -14.2779 -4.25168 14
360 1 -10.4786 -7.2567 -2.00894 17
361 1 -1.77187 -7.34009 0.438386 17
362 1 12.2005 5.7658 17.0394 13
363 1 15.1052 2.43218 -1.65026 20
364 1 -3.77175 2.09142 -13.3317 18
365 1 4.63808 16.6979 -0.884995 15
366 1 -14.6378 0.528989 -2.4115 12
367 1 -7.98643 10.2114 7.07066 23
368 1 -8.30541 8.27922 0.491347 21
369 1 -5.39424 8.39816 5.49857 20
370 1 12.1204 3.75075 10.6648 24
371 1 7.91033 -5.34251 -5.55024 20
372 1 11.3389 -1.59108 14.2296 13
373 1 13.3799 1.06144 -9.40775 20
374 1 -4.3234 -16.7582 -3.07802 10
375 1 -0.362731 -7.35314 -4.44522 21
376 1 -2.66955 10.5771 1.61941 18
377 1 -13.734 3.37969 -1.90886 13
378 1 6.80277 -9.66768 0.192546 14
379 1 17.1179 1.16044 5.74514 8
380 1 -8.11022 -2.06212 -3.30373 21
381 1 -4.90498 -7.33675 8.74094 20
382 1 -10.8958 -7.97702 15.0172 9
383 1 -7.30967 9.48395 3.45435 19
384 1 -7.82532 -10.491 1.32487 19
385 1 9.90768 10.3501 18.2053 9
386 1 -6.82716 6.08208 -4.69374 20
387 1 -2.83643 9.89677 -7.10969 19
388 1 8.27781 12.7369 5.10104 16
389 1 -12.8172 -8.18278 1.87528 13
390 1 -0.252401 -10.4419 -3.715 20
391 1 -10.7133 0.100175 10.7292 19
392 1 -9.3049 6.53979 -1.62488 23
393 1 3.56938 -10.2066 7.65018 17
394 1 -4.37472 -14.524 0.23955 16
395 1 12.7638 14.2424 10.7959 8
396 1 11.7279 8.54245 -12.575 12
397 1 -10.577 5.87001 -14.7412 9
398 1 -0.698117 12.2087 -8.60832 16
399 1 -6.1594 4.20226 -10.2111 22
400 1 -1.01782 -12.074 6.43972 19
401 1 13.3931 7.59115 5.69709 20
402 1 2.45214 8.04217 -12.4957 18
403 1 -3.28816 0.799844 7.84031 23
404 1 -15.8016 1.35264 3.13237 10
405 1 -8.12148 3.22713 3.04544 20
406 1 -7.14445 -12.1885 6.67412 22
407 1 2.63145 -5.27529 -4.85306 20
408 1 8.45879 -7.07568 -10.5975 21
409 1 -12.9457 2.81415 4.63966 17
410 1 -11.1877 -0.176907 14.9867 13
411 1 -8.92455 7.6233 6.4544 18
412 1 0.00799419 -3.02709 10.424 18
413 1 -9.82326 2.76459 -14.3442 12
414 1 10.311 -6.24403 -7.37336 20
415 1 0.819649 -7.27743 -7.93039 22
416 1 -3.0882 -4.78639 14.8086 17
417 1 4.04999 -8.45356 -2.80152 16
418 1 -6.47954 4.50653 -13.0544 22
419 1 5.26036 -16.2275 1.30224 14
420 1 5.35227 10.1527 -3.30249 19
421 1 -12.2591 7.40704 8.32337 12
422 1 -3.72806 -4.22478 18.1049 9
423 1 -10.0357 -2.88022 -8.39656 18
424 1 -8.6456 -4.18175 8.16491 20
425 1 12.7951 -1.84438 7.04982 15
426 1 8.9839 3.05448 -1.12074 22
427 1 5.70622 -3.24539 -8.03504 18
428 1 11.6514 -7.70315 4.64351 15
429 1 13.2209 9.6549 -3.24322 19
430 1 -1.94235 3.87158 13.0216 17
431 1 5.95862 10.555 -0.129912 21
432 1 7.30672 -4.86841 9.37964 20
433 1 -3.7174 -11.4231 -3.10165 19
434 1 -1.29846 9.05978 18.0753 12
435 1 -3.67429 14.8371 6.63773 14
436 1 -6.90619 -9.45438 -6.8322 15
437 1 9.10901 14.398 2.78186 17
438 1 2.81293 8.42236 7.68298 19
439 1 -3.3205 5.53578 11.337 18
440 1 -5.93054 -10.7106 -0.752492 16
441 1 -9.04657 5.13824 11.8979 14
442 1 -5.55929 -6.5628 -6.12294 20
443 1 -4.76131 9.9106 9.05881 17
444 1 -3.1824 -8.78623 -5.6373 22
445 1 3.04326 -10.0941 -13.7043 15
446 1 -5.19076 -14.152 3.98098 22
447 1 -5.26649 -1.90431 7.99437 22
448 1 9.34658 2.43869 10.1853 21
449 1 -9.14294 -8.4866 12.2055 21
450 1 -7.63951 7.65125 -13.9003 19
451 1 7.91704 5.95559 0.124531 22
452 1 -8.91341 -13.0251 -0.715404 14
453 1 0.20815 3.19793 -5.58341 21
454 1 -0.18287 16.6845 2.28108 15
455 1 -1.0553 5.88211 -7.46367 20
456 1 -1.24757 9.3782 12.4854 22
457 1 -11.133 -2.1092 1.70594 20
458 1 3.02357 15.1233 -3.10932 17
459 1 8.83677 11.6726 -6.33498 20
460 1 -8.65252 -6.55744 -8.38583 19
461 1 3.22616 4.18888 15.8829 17
462 1 2.43118 -11.0237 -8.02059 20
463 1 6.93344 -5.36991 -14.8571 20
464 1 5.25204 -12.339 -0.214306 16
465 1 -12.6971 10.1547 3.36703 13
466 1 1.57484 8.44302 12.4365 17
467 1 10.9413 8.38719 -1.6521 19
468 1 5.03824 14.2634 0.722683 20
469 1 -4.9961 11.6147 -11.8661 11
470 1 2.17236 2.28197 -7.28513 20
471 1 0.401485 -9.45651 7.92815 17
472 1 -14.1675 -2.41616 -0.178789 16
473 1 2.35463 14.8139 7.01874 13
474 1 -0.727905 2.93634 -12.107 22
475 1 10.1627 8.30553 5.71291 18
476 1 5.8961 15.7931 -8.15549 15
477 1 8.93813 -4.41256 4.49771 18
478 1 18.2664 6.64036 -0.758332 12
479 1 0.601202 -1.76185 -8.75862 19
480 1 -0.411364 -9.57933 4.26042 17
481 1 0.593542 -14.9766 8.56503 16
482 1 2.26972 -10.2685 10.9212 16
483 1 -7.51047 6.65766 -9.8884 19
484 1 -9.33961 -13.6932 5.63349 13
485 1 -2.54998 -11.8413 -5.90542 21
486 1 10.2515 12.6368 8.86872 18
487 1 4.61911 0.204413 -8.46165 20
488 1 5.32299 -3.33811 13.7874 19
489 1 -11.3038 4.15907 7.26889 17
490 1 -1.59717 -17.125 -2.32302 13
491 1 -10.93 -2.38193 4.79896 19
492 1 15.0407 -4.46912 -1.91148 18
493 1 9.16934 -2.59194 -1.22331 20
494 1 -5.27167 2.94883 -1.81183 22
495 1 2.29147 -8.58206 -5.98936 20
496 1 6.77128 2.45602 -9.43052 18
497 1 10.626 -5.55506 -4.20236 22
498 1 -2.02109 -0.934037 13.3371 16
499 1 7.03565 17.885 3.02518 12
500 1 0.181495 -3.65324 -15.2252 19
501 1 9.83312 1.9004 -16.9936 9
502 1 -6.21739 -4.73486 9.91014 20
503 1 -4.95814 13.4865 0.673016 16
504 1 -7.92008 -0.321587 -15.4575 10
505 1 -11.3866 1.06523 7.09798 17
506 1 -0.293943 -10.5761 -14.296 11
507 1 -5.50122 -11.3019 14.8491 10
508 1 0.0324136 9.19309 -8.75545 21
509 1 17.8037 4.40234 6.99049 8
510 1 13.4432 7.69646 -0.499335 19
511 1 -7.50346 -15.1126 -3.42501 8
512 1 -0.147163 -10.0665 0.667901 20
513 1 -2.28628 -5.149 -11.4613 21
514 1 -10.7666 14.4185 6.71176 11
515 1 2.8379 -4.75142 -8.41668 20
516 1 11.6739 -2.66648 -3.64381 21
517 1 7.24172 12.1635 -3.5184 23
518 1 8.1932 -9.28915 3.66279 18
519 1 15.1702 10.7903 -5.46945 14
520 1 5.13258 10.1861 14.3744 19
521 1 -9.15511 1.53785 8.49347 20
522 1 9.63346 13.8928 12.6128 12
523 1 9.52278 -0.34949 16.6718 12
524 1 4.70354 0.43872 -11.1456 17
525 1 -2.83155 -5.26425 -5.05577 20
526 1 2.47245 -2.9436 11.7174 20
527 1 5.04621 11.8871 8.80291 20
528 1 4.20594 5.11742 -8.15478 19
529 1 -7.08065 12.1893 -9.55171 12
530 1 3.16167 12.4363 -5.50705 22
531 1 11.7521 -2.3014 10.92 18
532 1 15.7378 1.51388 -11.3282 8
533 1 10.0362 -7.52469 -1.11477 18
534 1 11.7119 11.0182 14.979 14
535 1 -14.5458 -5.02523 2.17441 16
536 1 -4.27746 12.8675 -8.51121 12
537 1 -0.272064 0.548343 9.7672 22
538 1 -8.70164 -1.77271 13.0957 21
539 1 -2.81259 8.18805 -10.316 20
540 1 7.12911 -10.4282 -2.45593 16
541 1 8.58138 -3.10575 -7.63015 18
542 1 -0.974832 16.3486 -1.52996 13
543 1 -6.02542 -1.04442 -13.1995 18
544 1 4.94296 -11.5889 4.83891 16
545 1 -12.3652 -4.9758 0.362795 19
546 1 3.41692 10.0104 -10.6793 20
547 1 -8.28374 2.96698 -0.395616 23
548 1 1.33772 5.5258 13.8938 20
549 1 -13.5741 -6.19502 5.20584 23
550 1 5.29619 6.99046 -0.55713 21
551 1 5.31736 -10.0661 -7.07188 19
552 1 3.165 -7.95323 13.0089 11
553 1 8.48759 0.196615 -2.78671 22
554 1 -10.1036 8.03246 3.10331 19
555 1 3.58986 10.4051 16.9618 11
556 1 4.91206 17.6511 -6.21604 10
557 1 14.2853 -4.59958 -5.01822 20
558 1 4.99267 9.24122 11.2296 22
559 1 4.74581 5.60284 -14.4064 16
560 1 -5.03099 -15.6821 10.8769 12
561 1 -0.375517 3.55561 -8.98695 20
562 1 10.7457 -1.63495 -15.5751 12
563 1 4.94599 14.0012 6.25679 19
564 1 11.4852 4.7718 -5.57344 18
565 1 3.36827 -2.35794 -10.718 22
566 1 -2.85205 -11.8 -0.258701 19
567 1 -15.1128 -5.23601 -4.67837 6
568 1 12.2951 4.13856 -0.108983 19
569 1 17.3997 6.66112 -4.55256 12
570 1 7.16127 -5.81702 -8.22456 19
571 1 13.9867 5.77848 12.0439 18
572 1 8.04688 -8.10017 -3.95268 19
573 1 5.92871 2.42759 -16.6863 13
574 1 6.60125 11.713 2.42776 19
575 1 -11.2364 3.07639 1.51809 20
576 1 10.7315 8.52569 15.4747 20
577 1 10.8517 7.34562 -4.535 18
578 1 14.3228 -3.07826 1.32795 19
579 1 15.0296 5.39921 -9.01324 13
580 1 9.33128 2.26463 13.7873 22
581 1 15.4329 4.51999 9.36438 18
582 1 0.456352 -12.2073 9.61059 17
583 1 15.2472 12.0544 -2.42542 15
584 1 3.89436 -0.747712 13.0428 18
585 1 15.6437 -1.87442 -4.54123 8
586 1 11.0839 7.02809 9.95858 22
587 1 -9.92535 -1.0417 -5.47311 20
588 1 13.9156 6.3528 2.57682 22
589 1 12.3011 -4.43695 5.43121 18
590 1 -9.06448 8.4425 13.3348 9
591 1 8.00474 10.3702 9.93527 21
592 1 11.9531 1.06631 12.9248 17
593 1 2.49648 11.3511 8.70225 21
594 1 2.77154 11.0004 11.4644 21
595 1 6.13322 3.59889 7.66677 20
596 1 -2.66719 -19.2514 3.02202 10
597 1 -5.30835 9.75799 -5.06982 16
598 1 11.6536 12.7602 -6.31309 13
599 1 9.94368 0.26608 -13.6886 20
600 1 3.13042 15.6388 2.93788 15
601 1 0.483944 -12.8125 -5.74346 15
602 1 13.6723 -2.72901 -10.6522 13
603 1 -13.374 5.29121 5.73764 10
604 1 -3.63521 3.04012 -10.6243 20
605 1 -3.61341 -10.1603 4.80252 19
606 1 -3.68928 -0.389101 -7.84597 22
607 1 -14.6167 2.90918 -5.15555 14
608 1 13.895 -7.63473 2.77164 12
609 1 15.5396 9.9634 6.93021 13
610 1 1.0718 -5.57835 8.23454 22
611 1 -11.7515 2.54361 -9.43969 13
612 1 3.05481 3.27137 -15.7114 14
613 1 0.337415 0.295147 16.1767 16
614 1 9.25547 10.8489 -10.5964 19
615 1 14.5894 -1.04284 12.332 13
616 1 7.81715 7.72519 -6.67327 20
617 1 12.3721 10.4824 5.28576 17
618 1 4.13852 -9.4355 -10.9195 17
619 1 -8.70092 -2.09168 15.944 13
620 1 12.536 -2.19416 3.00681 20
621 1 -2.40546 10.3661 14.9663 16
622 1 6.92955 13.1273 -8.74829 17
623 1 -11.3316 7.87318 -6.0845 14
624 1 7.5293 8.9145 1.46172 20
625 1 -7.8359 -13.768 2.4663 17
626 1 14.1441 -5.27653 3.91179 16
627 1 7.62513 16.1724 4.8332 12
628 1 -1.79522 3.00842 9.51063 23
629 1 -9.75299 -7.98964 0.997283 18
630 1 -7.67562 -4.39965 -9.1584 16
631 1 9.2882 -0.310703 11.6107 20
632 1 -2.62263 -7.84936 12.7918 18
633 1 9.31608 5.04255 11.9739 23
634 1 -7.2391 11.5618 -0.573814 18
635 1 9.37765 3.45708 1.89487 21
636 1 11.4732 5.90879 4.40698 20
637 1 8.54306 3.62183 -14.9236 15
638 1 -8.06377 -1.83941 10.0074 20
639 1 6.79945 -1.14908 -11.054 19
640 1 -2.11807 -6.14791 -7.40102 24
641 1 11.1533 -8.7411 -6.08636 16
642 1 11.1424 5.70853 7.33836 22
643 1 6.48326 3.99483 4.27285 20
644 1 -6.08044 -1.43169 17.4081 14
645 1 10.8318 11.3086 11.2723 17
646 1 3.00666 -5.44666 13.5801 14
647 1 -0.209343 6.01178 12.1234 21
648 1 -0.0199866 -5.21528 -9.99607 21
649 1 -6.42178 0.178467 13.4317 17
650 1 6.72963 4.20661 13.8426 17
651 1 -8.44371 -14.6378 8.60132 12
652 1 17.135 9.91269 0.0326398 10
653 1 4.88315 -13.0359 -6.19467 13
654 1 -4.48463 7.56559 -7.01049 18
655 1 10.4777 10.6416 -2.7824 19
656 1 11.3477 13.4904 5.35679 14
657 1 7.67625 -0.0745329 -16.5707 14
658 1 4.22137 12.2786 -2.15816 19
659 1 10.1085 11.3669 3.61881 22
660 1 -8.6328 -6.85999 3.62153 17
661 1 1.17621 0.910915 -15.9413 14
662 1 -9.45349 11.2487 1.70945 22
663 1 8.11612 -4.37404 -12.3663 17
664 1 11.5955 2.57541 5.36977 21
665 1 12.7593 7.16146 -7.7637 19
666 1 14.1799 14.2736 -0.237543 10
667 1 -6.27996 6.1582 3.26094 20
668 1 7.22926 7.05338 -3.14778 20
669 1 12.7082 2.41555 18.781 5
670 1 13.0492 -0.340709 16.5575 6
671 1 -4.33638 -13.8839 12.7271 12
672 1 -4.55067 8.59616 -16.0588 8
673 1 5.47904 12.5487 11.8329 22
674 1 14.2246 -6.26496 -10.4192 11
675 1 3.82675 3.92794 9.23334 22
676 1 8.70385 17.8935 -4.86012 8
677 1 6.59566 9.78062 4.35028 21
678 1 17.7323 -5.66674 -2.23275 8
679 1 8.86864 6.83605 17.7951 12
680 1 -13.5788 -3.0517 5.00998 20
681 1 3.3811 -13.6753 3.01937 23
682 1 3.12052 -2.32052 -6.33874 19
683 1 -8.24849 14.097 1.14754 19
684 1 2.83093 6.22358 4.28463 21
685 1 6.40603 -7.3176 -1.14956 20
686 1 4.16739 9.14962 2.2674 20
687 1 -16.6563 -2.35856 6.20694 10
688 1 0.549552 11.8939 16.3192 12
689 1 -5.72905 5.94511 -15.4588 16
690 1 -2.36502 5.89809 -16.2508 12
691 1 3.76684 -16.4396 -2.89241 12
692 1 11.1436 9.82163 -7.76208 19
693 1 3.81009 -6.84149 6.91114 18
694 1 -0.0150342 6.32031 3.22417 17
695 1 -12.2262 1.20545 12.6477 12
696 1 5.13164 -3.08145 -13.3432 20
697 1 5.81928 -10.5106 9.64528 14
698 1 3.62635 12.2523 3.71153 19
699 1 -2.35345 2.30148 17.7495 9
700 1 -6.70599 -6.78156 -11.5839 14
701 1 -2.06152 -6.00843 -14.8691 15
702 1 -5.34812 -11.8573 -9.39146 12
703 1 0.388187 15.2485 -8.33443 11
704 1 5.60977 -4.58087 -3.20177 19
705 1 -0.25967 14.0522 7.89823 16
706 1 6.7759 -9.31571 -9.84057 21
707 1 7.74036 -14.785 -0.356035 13
708 1 2.56518 -7.5932 9.70073 21
709 1 15.9208 3.91693 -4.98696 14
710 1 3.49082 -13.7402 -2.96829 15
711 1 -15.1439 -4.70066 7.68715 16
712 1 -3.40412 -17.5411 0.462739 14
713 1 -5.85485 -9.14748 -3.68599 17
714 1 -8.39538 1.94065 12.1312 18
715 1 -6.86084 -16.1209 -0.729585 12
716 1 15.9147 8.44934 -7.23411 13
717 1 -5.69366 15.1833 4.72957 13
718 1 -4.93784 4.20041 8.16857 18
719 1 -11.0446 8.70846 0.824536 18
720 1 13.9286 0.284529 0.499181 18
721 1 -14.266 0.144525 -6.43071 15
722 1 2.18967 9.20578 -4.47651 22
723 1 8.65595 4.59284 -7.54782 20
724 1 9.04531 11.6749 15.6087 14
725 1 9.05803 4.04537 -4.35131 21
726 1 -11.5564 2.01741 -6.75962 24
727 1 -12.1741 -7.12714 -4.19284 15
728 1 1.67974 8.05705 18.3817 13
729 1 6.8557 5.38239 -9.23006 17
730 1 13.1868 12.6299 7.82768 13
731 1 -3.12062 1.74943 11.6107 16
732 1 -0.68898 -12.6783 -1.56269 15
733 1 -5.61534 -16.0031 7.60449 15
734 1 -5.41882 -6.80762 11.8269 17
735 1 13.3656 9.22229 12.127 17
736 1 4.2194 -7.72325 -8.74562 20
737 1 -6.34744 5.52442 -0.607497 21
738 1 5.27052 7.25228 5.73715 20
739 1 -10.7763 -6.27813 6.15249 20
740 1 12.3876 11.0094 -11.028 12
741 1 0.925558 -15.5084 -4.08862 10
742 1 -2.82254 -19.5072 5.84488 9
743 1 -0.448427 -18.5601 0.813219 13
744 1 9.22324 3.81577 -10.7579 17
745 1 6.38223 19.5077 0.092058 10
746 1 1.87578 1.70533 -13.0021 21
747 1 2.22311 -2.60252 15.3367 15
748 1 2.29339 4.17805 -10.2996 19
749 1 -10.835 7.63692 -12.004 11
750 1 -6.40275 -5.29301 -3.23081 21
751 1 2.95986 15.0287 -6.41121 18
752 1 9.03313 -1.85831 2.59144 22
753 1 0.391871 -5.64926 -17.3992 9
754 1 -6.33241 -8.21806 2.20526 20
755 1 14.1741 6.92911 -4.5247 19
756 1 11.2612 -4.98943 2.09842 21
757 1 -5.39378 9.99696 13.9625 12
758 1 6.19719 -8.12313 7.87798 18
759 1 11.4922 -1.92916 0.0806067 20
760 1 13.3853 0.273398 10.1208 22
761 1 -0.18588 10.333 7.1059 21
762 1 -4.85426 1.36662 16.0074 16
763 1 -6.10702 6.83655 14.794 11
764 1 -1.34475 -15.5118 10.7762 11
765 1 8.88272 0.868768 4.12237 19
766 1 7.83438 10.8718 13.0421 21
767 1 -15.6944 -2.33172 2.69682 14
768 1 10.3528 -8.08629 1.70723 17
769 1 -9.05339 10.5788 -7.22491 12
770 1 5.75086 6.70581 2.56832 19
771 1 1.34453 -15.9805 5.36871 15
772 1 4.72779 -0.949307 16.1485 17
773 1 -2.36989 13.895 9.73581 11
774 1 -2.26534 -9.78453 8.73021 18
775 1 -6.16571 -4.66616 -0.0373309 21
776 1 2.25813 1.3031 14.3822 17
777 1 -11.449 -2.03883 -1.56527 22
778 1 1.27565 10.9739 19.2865 8
779 1 8.10604 16.3206 0.817299 17
780 1 -10.9555 -12.1157 8.08955 15
781 1 -4.04038 -16.7656 5.04664 15
782 1 9.98566 -5.62639 10.435 11
783 1 14.9042 -2.21194 9.52116 13
784 1 6.61487 9.54393 7.83888 18
785 1 0.234208 8.12141 -6.00244 17
786 1 2.00382 -7.18288 -11.634 20
787 1 -1.46935 0.715522 -10.0463 17
788 1 -4.5148 -0.982782 10.9821 20
789 1 -3.07731 17.3068 3.8278 11
790 1 17.0651 -2.26777 0.908009 12
791 1 2.80908 9.43091 -7.50119 22
792 1 -4.68848 9.63871 16.9443 8
793 1 9.83145 8.5526 12.7157 19
794 1 11.3904 -5.76771 -12.8753 14
795 1 -2.01148 -15.3278 2.93927 16
796 1 -5.09042 -2.3185 -4.86516 21
797 1 14.2727 1.77971 3.33853 18
798 1 7.41009 1.79829 -12.8126 17
799 1 -0.0775185 8.49744 15.5682 16
800 1 11.6982 -7.88562 -9.14299 15
801 1 12.028 6.22871 -10.75 15
802 1 -2.26707 -8.22747 -2.56867 19
803 1 14.5875 8.53752 -10.5062 12
804 1 12.2304 3.57576 -2.86067 18
805 1 0.342421 -6.11424 11.7331 20
806 1 -0.375048 -7.20503 -12.9876 19
807 1 13.8086 14.4379 3.13449 8
808 1 0.911346 -6.42183 5.1828 19
809 1 -12.1071 8.03838 5.55011 17
810 1 14.9024 5.87623 -2.16921 19
811 1 18.1086 3.81144 0.998577 9
812 1 2.02845 -4.64887 -13.0388 21
813 1 -8.80598 11.6361 4.77047 21
814 1 16.184 6.6835 7.04917 16
815 1 12.2518 13.3122 -3.06083 16
816 1 9.06654 7.24876 -14.593 11
817 1 11.5616 -4.77003 -0.881785 22
818 1 -12.2737 0.682876 -4.03685 21
819 1 15.1155 8.83387 3.87651 16
820 1 -11.5327 -10.9407 0.721094 13
821 1 -5.65167 4.81893 -7.70073 23
822 1 8.59402 4.97768 9.29855 21
823 1 -12.8895 0.0357758 -9.13407 10
824 1 -10.6568 9.58031 9.10479 14
825 1 -3.10088 5.79188 -5.06677 21
826 1 13.8185 -1.12408 -6.58299 16
827 1 -10.2623 -9.94993 -4.29778 11
828 1 12.9143 -6.47369 -3.09588 17
829 1 -12.4255 5.8789 -0.556953 17
830 1 -5.00358 -7.64414 -0.589306 17
831 1 12.3868 9.88279 9.46157 16
832 1 -5.82563 -9.75582 7.52065 23
833 1 10.3114 3.29012 16.8923 16
834 1 16.8055 -1.71671 7.29161 9
835 1 11.4238 0.890313 2.35282 22
836 1 -9.10682 5.67148 1.48679 23
837 1 3.84008 7.50784 16.1271 17
838 1 5.7765 8.15488 -8.94174 22
839 1 1.34785 -7.73399 -15.5688 13
840 1 -3.07339 14.129 3.68241 17
841 1 -10.3412 -6.93889 9.07823 18
842 1 9.08486 14.9053 -3.19384 14
843 1 -2.19052 7.90457 10.1822 20
844 1 13.7556 0.420614 -3.29501 18
845 1 9.05149 -8.29032 9.29706 13
846 1 -0.723735 6.90994 -13.9954 18
847 1 5.43384 10.2547 -6.28957 22
848 1 -6.09406 1.19931 10.0831 17
849 1 16.9919 5.37747 3.80599 14
850 1 -4.27705 -6.22606 -9.24461 22
851 1 14.9026 11.0984 1.85927 13
852 1 -13.788 3.36754 1.28646 14
853 1 -4.33905 -10.12 10.7234 20
854 1 4.15455 13.8853 -10.8096 12
855 1 6.75929 -1.61718 7.87778 20
856 1 -1.09451 -15.0448 0.0257622 20
857 1 -4.82361 15.9945 1.17713 16
858 1 -11.5446 8.58475 -2.38476 14
859 1 9.85689 1.4927 -8.44276 19
860 1 0.875216 -10.5175 -10.8887 16
861 1 -6.27871 5.93774 6.3209 17
862 1 14.4713 14.0655 -4.71122 8
863 1 -5.92185 0.759963 6.55979 23
864 1 7.68723 -1.98803 -14.3811 21
865 1 -4.61394 -9.62429 -11.919 14
866 1 2.77825 -11.1059 -1.29981 19
867 1 0.621493 8.23017 9.3738 20
868 1 9.7934 -13.2551 -2.69551 11
869 1 1.30003 6.13135 -15.9254 11
870 1 18.1552 4.0064 -2.45207 14
871 1 9.80174 11.041 0.40499 17
872 1 3.00702 -18.6436 0.329794 9
873 1 3.40923 -3.5945 -16.1797 16
874 1 10.1836 5.53038 -2.2252 18