ITEM: TIMESTEP
6000
ITEM: NUMBER OF ATOMS
1000
ITEM: BOX BOUNDS pp pp pp
-30.0 30.0
-30.0 30.0
-30.0 30.0
ITEM: ATOMS id type x y z Coordination
1 1 -7.64785 -9.01927 -8.46941 10
2 1 3.92954 -11.4757 6.66001 17
3 1 -9.07791 5.48163 0.941454 21
4 1 -8.839 2.82098 -7.0217 16
5 1 -2.60889 -6.37087 13.0381 10
6 1 -8.51943 -2.76026 -8.3985 14
7 1 -4.43037 -14.1542 4.08012 14
8 1 5.99703 -2.71545 6.7171 18
9 1 -0.829935 5.08266 8.23977 19
10 1 -2.87156 10.9404 -6.59016 12
11 1 1.27449 1.03485 12.4074 12
12 1 -9.22165 -2.62974 1.84769 19
13 1 -3.04513 -0.512432 -11.1724 19
14 1 -0.325998 4.7191 12.0803 7
15 1 -2.33127 -12.1205 5.98649 14
16 1 -12.3186 -2.37311 2.61701 13
17 1 -8.40831 -3.29482 -0.632763 18
18 1 -0.357518 11.8989 -1.71147 12
19 1 0.472488 -1.49338 -16.2158 9
20 1 5.34218 -6.6225 -7.43637 18
21 1 -6.36476 -9.31978 11.8001 9
22 1 -12.1133 3.2094 -0.13884 13
23 1 2.30797 12.8918 -3.20264 9
24 1 -0.188644 -11.8294 4.06808 19
25 1 8.23539 -8.96911 -8.19694 12
26 1 7.50073 0.10109 6.47436 18
27 1 -8.54477 10.7749 -4.30799 7
28 1 2.09505 4.8193 7.05723 19
29 1 2.82314 -3.61132 11.5172 18
30 1 -9.97427 -5.78057 0.471835 18
31 1 10.1187 3.71358 6.91151 13
32 1 8.83046 -5.36833 -5.32176 20
33 1 5.0709 -0.297821 8.41699 18
34 1 -7.25647 -5.52639 1.62161 21
35 1 -5.3026 -8.43412 -10.4878 11
36 1 -9.60828 10.53 -1.37021 12
37 1 -5.85194 6.57712 -9.1239 13
38 1 7.82934 -0.978702 -6.53696 15
39 1 7.26374 -10.1745 7.00988 13
40 1 5.11906 -11.1223 9.19368 10
41 1 -6.23909 6.06221 5.36105 17
42 1 -8.92744 -8.20527 9.48726 13
43 1 -10.1323 -0.122962 6.85182 17
44 1 11.0785 -8.20834 -6.13114 12
45 1 3.46131 0.86182 -16.9626 5
46 1 -1.1189 10.8524 1.96817 16
47 1 -7.17308 6.18281 -6.43625 14
48 1 2.43989 8.91936 1.54084 18
49 1 -6.43399 -10.6754 8.88385 13
50 1 3.38859 -10.4372 -9.91022 11
51 1 2.10617 -6.35673 -9.1383 21
52 1 -0.508162 2.259 6.92822 20
53 1 -10.8337 -11.2601 -1.08012 11
54 1 11.6622 -4.54101 4.0214 12
55 1 -9.36805 -12.1977 -3.85551 12
56 1 7.01989 -6.85499 2.42039 21
57 1 -3.69815 5.72373 3.6196 23
58 1 1.75226 1.90714 -8.79298 20
59 1 5.6061 -7.56577 -1.05513 19
60 1 -7.9386 -13.5668 -1.05181 13
61 1 11.0769 7.73365 2.08054 11
62 1 8.53153 3.00646 -1.46812 17
63 1 -2.14817 9.72616 -3.75807 16
64 1 1.25839 -8.42247 -11.6412 14
65 1 -0.443849 8.1193 -6.42802 20
66 1 13.4352 -2.96482 -5.40102 11
67 1 4.42334 2.5925 -13.9215 14
68 1 6.21167 -12.1353 4.19408 12
69 1 -5.9779 3.58113 -6.93215 21
70 1 8.43828 12.2245 -2.85843 7
71 1 12.7903 5.25655 -2.27138 11
72 1 -4.06617 7.40887 -5.76819 21
73 1 -1.82323 -5.45901 -12.4504 13
74 1 -12.015 -6.34301 -5.32253 13
75 1 -7.0431 10.0294 6.81479 9
76 1 -0.0425403 11.5359 -5.11011 15
77 1 1.52914 -1.27445 13.7811 8
78 1 -13.8349 -7.02054 4.2465 10
79 1 -5.88789 -11.3991 5.618 21
80 1 2.57839 7.61017 -1.43882 19
81 1 7.33751 3.85818 -7.25259 19
82 1 -3.29394 -9.19137 10.7531 10
83 1 -9.00556 -0.362046 -0.393971 17
84 1 -3.51698 2.9978 11.8562 10
85 1 -7.67893 0.132705 -7.85484 17
86 1 -5.81768 -8.56404 3.42494 22
87 1 -9.44412 -13.3535 1.86873 12
88 1 4.80637 -7.71213 -3.70203 19
89 1 -3.15161 8.41129 1.24624 22
90 1 -6.76089 -0.23966 5.47563 20
91 1 -13.2737 0.432492 -1.95967 10
92 1 1.07575 -14.5522 2.43988 10
93 1 4.28639 2.76048 -8.0781 21
94 1 4.36135 -0.240501 11.3188 16
95 1 -0.603814 2.53957 -10.2314 21
96 1 -4.75626 -5.78197 -12.3625 9
97 1 -6.61329 8.90748 -0.588095 22
98 1 8.48748 3.9075 9.88707 10
99 1 -0.027928 12.2396 -7.75901 11
100 1 2.125 4.81461 -9.86735 22
101 1 -8.28676 4.29825 8.12622 13
102 1 -3.71032 4.99762 7.37363 15
103 1 0.660093 -12.0115 -7.29126 11
104 1 7.21674 6.55328 -9.11043 11
105 1 0.740383 8.26158 -3.31094 19
106 1 -12.6243 0.378731 1.82478 13
107 1 2.53985 5.43893 10.1383 13
108 1 14.3759 -0.342783 -3.41905 12
109 1 1.11829 7.56023 6.31145 18
110 1 -11.578 5.33263 5.46647 9
111 1 -10.1526 -5.26605 -2.79491 20
112 1 2.58872 -3.60041 8.54149 22
113 1 3.74256 -14.9956 -3.99235 9
114 1 -1.97022 -1.04408 -15.0369 11
115 1 14.1458 0.853125 -6.12586 9
116 1 -12.1521 -6.34446 6.74461 11
117 1 -6.78306 -5.06184 -7.66211 18
118 1 -5.81331 -2.82517 -10.7842 14
119 1 -10.785 0.00898215 -5.85753 9
120 1 9.46151 -2.38034 10.1113 8
121 1 4.96804 -5.59195 7.55094 22
122 1 2.06699 -6.21314 6.43812 22
123 1 4.66724 10.9341 2.69589 13
124 1 -3.41369 -10.6403 3.87006 22
125 1 1.67321 11.2611 3.7792 14
126 1 -2.50696 -8.38061 -11.8886 12
127 1 -5.33772 -7.83147 -6.8104 15
128 1 -3.08173 -7.82649 1.57996 21
129 1 8.92904 1.5448 5.52288 17
130 1 -8.49915 -4.06793 11.4975 12
131 1 -4.04661 -11.8391 -7.27388e-04 15
132 1 1.79337 -12.7307 0.261637 20
133 1 5.01101 -14.0944 -1.3553 15
134 1 -8.33805 4.93415 -8.71523 12
135 1 11.1409 5.46564 4.74356 13
136 1 -6.05376 0.550257 -4.71251 20
137 1 -1.19786 9.60052 -9.40039 17
138 1 -4.20826 -5.69162 6.90669 19
139 1 3.08451 10.356 6.2809 9
140 1 13.4431 -0.598309 3.50621 13
141 1 -8.74318 -3.29308 5.90122 22
142 1 -6.24684 -8.08853 7.11637 18
143 1 -5.11852 10.6127 1.42482 14
144 1 3.96722 -6.38889 -11.0532 14
145 1 4.5558 -10.0265 -0.946221 20
146 1 10.3373 -0.878142 -9.10612 10
147 1 -9.93828 -4.74691 3.75998 16
148 1 8.54859 -10.5376 -5.11247 14
149 1 -4.05843 7.643 -1.77884 18
150 1 -6.16906 3.366 3.34468 22
151 1 2.03271 -11.9481 9.7026 11
152 1 -2.58835 8.05514 4.91117 18
153 1 -5.51587 -4.97935 -4.9249 21
154 1 -7.76251 10.3524 3.58875 13
155 1 -11.0522 2.29862 -3.08765 12
156 1 -12.5019 -0.612998 5.47844 13
157 1 -3.54614 -5.78549 -6.47885 19
158 1 -5.94443 6.6881 2.04493 21
159 1 9.34302 -3.90008 7.01604 18
160 1 4.63485 -8.40651 6.09021 21
161 1 -0.141365 -4.12752 10.2107 21
162 1 3.25527 -11.7037 -5.53801 16
163 1 -3.1303 -3.23912 -14.5158 9
164 1 -12.9892 -5.51923 -1.23999 13
165 1 -2.82422 -9.44746 -1.59236 18
166 1 12.7103 3.10111 -4.94916 12
167 1 -6.65756 2.31562 -10.1627 16
168 1 -6.36218 7.08414 7.75321 10
169 1 -7.13851 12.1292 0.448461 9
170 1 -5.98746 2.92972 6.60907 19
171 1 10.8256 -2.78679 -3.86371 20
172 1 9.64175 2.44933 -9.77018 13
173 1 0.922486 -10.092 -4.79171 22
174 1 0.414437 8.53135 3.6698 22
175 1 -10.7273 -2.51895 -2.63616 16
176 1 2.93967 -12.2023 -2.60868 20
177 1 10.9393 -1.01312 8.04624 11
178 1 -10.102 -8.55057 -3.771 15
179 1 -1.44516 -10.5958 0.972959 21
180 1 -6.42668 11.4424 -2.31831 12
181 1 -10.2635 7.77392 -3.57335 9
182 1 -2.13141 -10.0524 -8.93574 13
183 1 4.47598 -6.27122 4.23177 22
184 1 -3.1878 -15.4785 0.539947 10
185 1 -8.8788 4.52657 -4.48187 15
186 1 -2.09924 -13.5061 1.76634 15
187 1 -3.87453 -0.289257 6.93728 22
188 1 -9.36534 3.92731 4.13601 18
189 1 1.23586 -5.53001 -6.8762 19
190 1 -11.6904 -3.25765 6.89944 14
191 1 -2.78318 -3.70024 8.60874 21
192 1 -5.78397 -2.85119 6.89909 20
193 1 2.71439 -7.92867 -5.73514 18
194 1 3.22845 -12.0641 3.88712 17
195 1 6.10713 6.88041 -5.93827 17
196 1 -8.22283 -10.3408 4.03811 17
197 1 7.00778 -9.06463 4.23731 20
198 1 11.4341 -1.23791 -1.62623 17
199 1 0.765252 -0.97281 -11.0958 16
200 1 9.46144 -7.31368 4.57082 14
201 1 -7.49078 -5.24152 7.85277 19
202 1 1.78298 12.1945 0.61435 11
203 1 7.15992 -6.17899 6.07214 20
204 1 -0.827223 -14.01 -1.68611 14
205 1 5.11271 5.11963 9.00817 14
206 1 -7.08748 -0.399111 11.7232 12
207 1 -2.90796 -12.037 -2.97777 15
208 1 -10.6416 -9.78665 -6.28968 10
209 1 -8.76761 7.89447 5.26027 13
210 1 -0.401614 -10.6812 -1.41714 21
211 1 -6.96273 -5.58868 4.41388 20
212 1 12.1465 0.987093 5.74629 13
213 1 11.2336 2.61326 3.1151 17
214 1 1.88035 2.01942 -12.0428 21
215 1 -0.908584 6.03881 -8.35227 20
216 1 -2.21034 7.77431 9.17726 5
217 1 -12.6051 -7.50352 1.63301 13
218 1 4.61583 8.54518 -7.65617 15
219 1 -7.66372 -6.15064 -10.0867 11
220 1 0.981345 -4.92593 -11.8876 19
221 1 10.6337 8.07876 -3.40165 7
222 1 4.3153 5.4344 -1.44002 21
223 1 5.02525 -0.313083 -12.8294 14
224 1 1.92563 -10.2981 1.06294 22
225 1 -3.75948 2.66698 -12.2023 11
226 1 10.3268 5.79076 -0.799896 17
227 1 7.23195 -5.14884 -0.452181 20
228 1 -0.866059 1.04402 -13.2361 15
229 1 3.04062 -7.47573 0.898378 20
230 1 -0.063258 -6.59609 11.4561 14
231 1 -9.81748 1.96089 -9.56246 11
232 1 1.13065 1.50478 -15.1149 12
233 1 -14.6639 -4.49948 1.64845 11
234 1 13.5476 -3.36416 -1.8767 17
235 1 -3.36293 4.90808 -6.8899 19
236 1 0.887849 -9.07893 -7.9682 21
237 1 1.82043 4.8927 -13.5865 15
238 1 8.6503 -3.20019 -10.55 9
239 1 -8.78907 -7.27179 5.699 21
240 1 -3.2224 10.4022 3.75069 13
241 1 1.75872 5.4245 -6.71792 20
242 1 12.8388 4.89647 1.20954 12
243 1 2.20896 -8.60396 -2.31725 20
244 1 3.824 -3.96367 -9.85618 17
245 1 13.1424 -5.79417 -0.105068 13
246 1 2.533 -8.92323 4.39192 20
247 1 -11.4156 2.38233 7.19291 11
248 1 -7.23888 -7.68771 -4.63682 19
249 1 -3.34336 -5.69619 10.0195 17
250 1 2.76285 7.54036 -11.5172 14
251 1 -5.63487 9.63423 -5.28154 13
252 1 3.14592 12.2768 -5.49888 11
253 1 -0.309827 2.6228 9.9723 19
254 1 5.91272 -11.9846 -4.00578 14
255 1 5.00007 -2.0095 -6.77825 16
256 1 -10.7684 -10.4627 1.92915 13
257 1 -8.32965 3.26624 -1.26697 19
258 1 -11.1145 -8.97412 4.59366 12
259 1 8.24545 4.2396 -4.61974 14
260 1 5.32545 -8.53136 -9.5861 14
261 1 2.2208 -6.47915 9.88017 20
262 1 11.4508 -0.38157 -4.94966 18
263 1 -11.6791 2.93247 2.96699 15
264 1 13.0105 -6.10463 -4.01792 10
265 1 3.79681 7.31515 7.44474 12
266 1 -1.20646 -0.207951 -8.57453 21
267 1 4.87829 5.00001 -12.0416 15
268 1 -3.87676 -3.00062 -8.60652 17
269 1 -6.26138 -13.1173 -4.00272 9
270 1 13.8004 2.4974 -2.08627 11
271 1 9.55908 -5.9721 -8.51931 11
272 1 5.28535 -9.89853 -6.79567 17
273 1 8.30515 8.19601 -0.448442 14
274 1 -9.0466 2.54645 1.31121 19
275 1 12.0925 2.30646 -7.71102 12
276 1 -8.50146 -6.80447 12.4586 8
277 1 8.68733 0.463532 10.4771 8
278 1 -9.41504 -6.332 -7.14385 15
279 1 14.3459 2.70048 3.32273 6
280 1 9.8524 -5.68477 1.43821 18
281 1 4.08281 8.04795 4.13629 19
282 1 2.89685 1.83596 8.76079 22
283 1 -3.87443 4.92511 -3.22038 21
284 1 -1.78173 -11.3001 -6.04761 15
285 1 -3.05047 7.05446 -10.8702 10
286 1 -7.75038 -0.398758 -11.2704 10
287 1 -13.2165 -3.41757 -3.3128 12
288 1 7.42311 -9.58522 0.964714 14
289 1 -1.06781 -10.1823 9.12554 14
290 1 10.1998 4.914 -7.39176 10
291 1 14.5222 -3.47995 1.83039 9
292 1 8.15215 9.62907 2.37239 12
293 1 10.3672 -1.67538 4.99896 18
294 1 -6.14488 2.30942 10.1097 15
295 1 -5.54599 -9.23534 0.830444 18
296 1 -8.56527 -0.512738 -4.35583 19
297 1 5.81377 -3.14044 10.0259 16
298 1 -3.55516 10.4414 -1.15685 14
299 1 8.77879 2.1578 1.75984 20
300 1 6.14485 2.93138 7.15674 21
301 1 -10.5089 -5.36734 9.33644 12
302 1 5.42111 -3.47767 -12.6457 9
303 1 -1.28071 -7.78321 -6.44467 22
304 1 6.81659 6.17464 6.48814 16
305 1 4.65608 4.64656 4.66321 18
306 1 -1.91375 -0.265802 13.1491 8
307 1 -5.7765 -2.61935 10.2653 18
308 1 -3.71208 0.142976 10.5548 16
309 1 -1.29683 5.42995 -4.87915 20
310 1 6.50511 11.3589 -0.0146951 12
311 1 4.88699 11.3274 -8.43522 8
312 1 -6.37246 -15.0826 1.75432 12
313 1 6.17498 1.95928 3.35913 23
314 1 -6.23982 6.03304 -1.08353 20
315 1 4.46073 4.65668 -5.68078 19
316 1 1.47834 -0.921506 9.71502 19
317 1 6.85091 6.61343 3.38063 16
318 1 -1.5075 -2.94755 -10.5586 16
319 1 7.05555 -7.68724 -5.42348 19
320 1 5.186 8.85775 0.0431022 16
321 1 -14.5062 -3.62482 5.10196 10
322 1 3.75752 -14.3764 1.52446 12
323 1 6.82207 3.99113 -10.1558 16
324 1 2.59342 -2.79326 -13.241 12
325 1 7.71499 -4.10014 -7.17251 16
326 1 -5.49496 8.81591 4.86653 20
327 1 0.643362 -9.80341 11.2156 11
328 1 -7.53728 -10.5778 -5.98171 13
329 1 -3.03466 2.19501 8.67982 21
330 1 8.78074 -3.08142 1.02014 18
331 1 3.87216 7.02105 -4.35436 17
332 1 4.82149 1.66996 -10.9916 18
333 1 9.49622 1.59492 -6.06683 16
334 1 -0.18185 7.04787 -11.6758 14
335 1 -1.15191 -0.842385 8.40143 20
336 1 -3.81596 -9.4569 7.18211 19
337 1 4.16837 -9.23902 -13.1018 7
338 1 -11.0675 7.76412 -0.0582109 11
339 1 8.25316 4.28792 3.85006 20
340 1 -8.62309 -7.84071 2.45608 19
341 1 4.31689 5.6759 -8.7624 20
342 1 -2.90828 -3.42245 12.0941 14
343 1 -11.2941 -8.09914 -0.952728 14
344 1 7.87299 -3.15214 -2.59351 19
345 1 -7.48037 -7.3315 -0.167473 18
346 1 9.99003 -8.03934 -0.36266 12
347 1 5.04664 -9.76018 2.40171 23
348 1 -3.53349 10.5761 7.11706 9
349 1 -8.81892 1.21476 9.10019 15
350 1 7.81403 -0.724233 3.2614 19
351 1 7.73683 -9.83472 -2.29367 20
352 1 4.16853 6.26768 1.63588 20
353 1 -0.650221 10.9869 5.84107 13
354 1 1.60687 -9.04511 7.77688 22
355 1 -8.17984 -4.33002 -5.15049 19
356 1 3.67516 3.02152 11.7479 11
357 1 7.17195 5.70101 -2.30483 19
358 1 7.70026 -5.12052 9.26294 17
359 1 6.27935 -8.50361 9.16719 16
360 1 9.28384 7.82157 5.06343 14
361 1 -0.666218 -7.14667 -9.75843 20
362 1 -5.12149 -0.448347 -13.6881 11
363 1 -5.72752 -4.31427 12.6287 10
364 1 13.9886 -0.561629 -0.173238 13
365 1 1.59005 7.8456 -8.66364 21
366 1 7.37792 -0.673055 -11.1424 11
367 1 -4.97565 -14.5459 -1.81234 10
368 1 -6.22736 -1.87451 -6.05531 20
369 1 1.58859 -2.31635 -8.55467 19
370 1 -3.92198 -9.12311 -4.8569 16
371 1 0.973099 -4.94051 13.7834 8
372 1 -0.774151 -9.50054 6.19949 20
373 1 7.33312 2.50183 -12.5342 12
374 1 -8.9498 8.68301 1.54724 15
375 1 10.5703 -4.83963 -1.26625 22
376 1 -13.3486 -2.22039 -0.451066 13
377 1 11.6624 2.36331 -0.31958 17
378 1 6.15159 2.16804 9.73227 15
379 1 -11.5947 -3.27354 -5.85355 13
380 1 -4.08698 1.80204 -8.81046 16
381 1 10.6701 -8.45462 -3.59751 13
382 1 -5.56022 -8.46511 -2.5462 16
383 1 -8.80905 -10.5563 6.98574 16
384 1 8.09022 -4.03601 4.15974 21
385 1 -9.85296 0.130394 3.56606 19
386 1 1.91632 10.4485 -10.092 11
387 1 3.53414 -9.19603 11.2112 12
388 1 -8.83362 -2.48872 8.97316 17
389 1 -0.876118 -4.5682 -8.48805 20
390 1 -7.78428 -13.2931 4.47628 13
391 1 5.30135 -5.88588 11.2726 15
392 1 1.7603 -15.3804 -1.24589 12
393 1 10.4432 -3.04476 -6.91768 16
394 1 -10.6863 6.49546 3.25894 13
395 1 -6.66821 -0.504533 8.55381 21
396 1 0.237142 -13.0023 -4.00231 15
397 1 7.2851 9.19812 -2.75094 16
398 1 10.288 -0.272999 1.67614 19
399 1 -0.754405 -6.22813 7.87944 20
400 1 6.94904 10.2383 -5.78478 10
401 1 3.79429 -0.471646 -9.06116 15
402 1 -9.59673 5.32482 -1.98303 15
403 1 3.99965 10.0212 -2.92515 14
404 1 7.48185 4.9383 0.54989 17
405 1 2.31289 10.2279 -7.30301 17
406 1 -8.64352 2.14078 5.80135 18
407 1 8.34459 0.0575597 -3.61706 18
408 1 1.16709 -12.2507 6.7866 14
409 1 10.0452 6.67115 8.02903 9
410 1 8.48238 -6.92651 -2.75206 19
411 1 -3.4293 8.35536 -8.22883 16
412 1 -0.790381 5.487 4.97852 19
413 1 -0.319662 7.86929 0.16836 17
414 1 -3.35536 -7.51388 4.8293 18
415 1 6.1308 -12.0437 0.611509 13
416 1 0.163875 -4.10721 -15.0426 9
417 1 -8.17168 -10.0642 -1.78491 16
418 1 -6.89618 7.0509 -3.74926 20
419 1 9.24445 -7.65364 7.66282 10
420 1 -6.2025 -12.0936 2.37539 21
421 1 12.0206 -2.84708 1.21668 20
422 1 -1.28685 4.13358 -12.7904 11
423 2 -12.4265 -4.60561 -4.55606 12
424 2 -1.88626 10.9284 -1.93731 17
425 2 -1.05072 -2.66393 -15.1322 10
426 2 -3.00393 0.96383 12.1386 12
427 2 -6.89174 -3.81386 -9.42866 15
428 2 4.70937 1.52008 10.9702 15
429 2 -10.7506 -3.45058 2.72639 14
430 2 10.3383 3.8213 4.26842 16
431 2 -10.9327 -7.92845 -5.53098 13
432 2 -8.39442 1.35796 -0.873853 18
433 2 -5.47116 -10.2734 7.20412 16
434 2 4.16623 4.19303 10.283 15
435 2 11.0446 0.937935 -8.95717 10
436 2 -8.13281 11.5386 -1.10687 11
437 2 12.7677 3.71606 2.55605 10
438 2 -12.6212 -8.47261 3.39718 11
439 2 -2.95369 -11.7541 1.75749 21
440 2 8.26946 -8.06612 5.74199 16
441 2 -6.98214 8.00973 1.20506 18
442 2 -6.04145 7.8469 -5.6057 16
443 2 -2.65719 5.09927 5.30462 22
444 2 9.10347 -7.19649 -4.5533 17
445 2 -2.8987 0.374522 -8.60538 19
446 2 2.06558 -6.41522 -11.2484 17
447 2 8.91489 -0.839183 -10.424 10
448 2 11.3832 6.56649 -2.73655 9
449 2 -6.9923 11.2097 2.01514 12
450 2 -5.80661 -8.37227 -8.54252 14
451 2 1.36462 -7.98706 10.9142 14
452 2 7.40849 -2.69899 2.93529 19
453 2 -13.5144 -1.4403 -2.24466 9
454 2 4.53132 8.80574 1.90384 18
455 2 4.52195 -12.5734 5.12167 13
456 2 -0.599135 7.54917 5.00575 16
457 2 3.89013 9.3219 -1.14661 17
458 2 2.7556 5.33054 -4.64797 20
459 2 -8.71228 -0.456722 8.52341 19
460 2 3.75768 1.28393 -12.6067 17
461 2 -10.5165 0.63889 -4.04739 12
462 2 -13.256 -2.38661 5.95317 11
463 2 -8.07082 -14.3755 0.726084 11
464 2 -0.930123 -8.81872 1.83378 24
465 2 -2.41005 -1.67619 11.9886 13
466 2 -2.55622 6.05676 8.55039 12
467 2 -8.87447 0.599682 1.54187 17
468 2 6.81827 -7.72294 -8.37469 15
469 2 10.1029 -0.92194 -3.71286 18
470 2 -0.284457 -13.4301 2.98905 16
471 2 2.78703 5.04589 5.04935 23
472 2 10.2428 -9.67851 -5.24459 12
473 2 3.0002 -5.32234 8.21749 24
474 2 -4.03429 -8.90571 3.16857 23
475 2 11.1332 -1.49456 0.0843161 18
476 2 0.160741 -11.4265 0.314031 23
477 2 11.1632 -6.43745 -0.252815 14
478 2 -6.40958 -6.1574 -11.5669 9
479 2 -6.72712 -8.04866 1.95674 19
480 2 -1.84561 -10.6977 5.01542 18
481 2 -2.23244 -11.185 -0.98868 18
482 2 -3.12227 5.79079 -1.40663 25
483 2 1.74873 -0.140029 -9.16461 20
484 2 9.25644 3.75265 -6.12362 13
485 2 1.35216 6.45072 -12.504 13
486 2 -7.7168 1.0418 10.7828 10
487 2 -12.5246 1.9696 -1.57197 9
488 2 -6.8856 2.80102 8.43399 16
489 2 -7.99092 6.09867 7.68639 11
490 2 11.444 1.20778 -5.80651 16
491 2 9.48865 -8.98296 -1.90189 14
492 2 8.48852 0.110282 1.55549 19
493 2 -3.39636 8.00153 3.09328 20
494 2 -5.79403 5.65851 3.58832 17
495 2 12.9608 4.10369 -0.605565 12
496 2 0.135768 9.38457 1.13711 18
497 2 0.912758 8.97681 -7.31394 20
498 2 0.304975 5.48325 6.60012 17
499 2 1.20928 -2.93292 9.67317 17
500 2 4.214 -2.51917 -8.73891 13
501 2 -5.37011 -0.439447 10.6123 16
502 2 3.57622 4.52918 -13.3306 15
503 2 -7.67014 -7.26711 8.17673 18
504 2 1.52542 -10.9298 -2.48103 23
505 2 1.53373 -7.29418 -7.32994 20
506 2 2.68465 -13.2689 2.61268 15
507 2 8.44095 2.72652 -11.2307 12
508 2 -1.66127 5.76855 -12.0792 12
509 2 -5.13248 9.85139 3.31829 18
510 2 -6.70974 -8.93361 -0.873302 17
511 2 1.73656 8.65732 -10.6917 14
512 2 2.06982 12.3151 -1.44305 9
513 2 -1.74023 3.39377 11.391 14
514 2 2.49729 -10.063 -5.50707 19
515 2 7.50236 1.77426 7.15878 18
516 2 10.4861 -4.01854 1.24195 19
517 2 8.08464 2.18292 3.75482 21
518 2 -4.73991 2.24082 -10.8127 12
519 2 3.89708 -7.25878 10.8817 13
520 2 0.279119 -5.61793 6.49069 21
521 2 7.44637 -10.994 5.098 13
522 2 -1.73922 11.2228 -5.16316 13
523 2 -7.42827 -11.8611 -4.71415 11
524 2 -1.24016 -1.06717 -11.4165 17
525 2 -3.13019 -9.41116 -10.1383 9
526 2 8.08712 5.32857 2.3432 18
527 2 -8.79942 -11.9971 -1.89447 13
528 2 -11.7106 0.728008 6.49414 14
529 2 7.7413 -8.66773 8.11218 15
530 2 -4.57907 -13.2438 -3.05886 11
531 2 0.590346 0.642083 -12.0946 16
532 2 -5.99474 -1.28186 -12.1797 11
533 2 -3.45603 -4.72098 -13.1363 13
534 2 -3.98133 -5.0754 12.9884 10
535 2 -3.37386 -7.86525 -6.32204 19
536 2 1.64142 -4.43521 -8.44882 19
537 2 6.76887 -2.63751 -6.80062 17
538 2 -6.09602 -4.55205 3.31409 24
539 2 1.43347 -3.05254 -11.1516 20
540 2 -0.659786 -8.91428 -5.10471 21
541 2 -1.43771 8.04488 -10.3108 15
542 2 6.75613 5.03145 4.96611 17
543 2 11.3766 -0.769716 6.19898 14
544 2 -13.7871 -5.53887 5.57356 10
545 2 -4.15657 -12.1507 4.99912 16
546 2 -0.053989 1.39572 -8.74734 17
547 2 -6.31125 -10.8066 4.02261 20
548 2 -5.44831 5.63798 0.551405 22
549 2 -8.17429 -8.72596 11.2065 9
550 2 -2.35164 -10.1322 8.05368 13
551 2 -14.2344 -3.32408 3.16275 13
552 2 -6.76499 -14.1297 -2.18076 9
553 2 -5.92665 -5.09664 6.87507 20
554 2 6.37167 -6.50121 9.53684 16
555 2 3.78594 9.96564 -8.84481 14
556 2 6.53568 10.8165 2.07539 11
557 2 13.3912 4.06644 -3.46255 10
558 2 3.75796 11.5505 -3.85812 12
559 2 -8.38809 -6.87343 -8.61596 14
560 2 -9.87722 -1.90474 -1.138 19
561 2 -2.01213 -14.3014 -0.159377 15
562 2 2.68378 -8.16772 6.28516 19
563 2 7.61798 -9.62074 2.66919 15
564 2 -6.81649 10.4132 -3.99776 13
565 2 7.81633 1.10422 -1.94777 17
566 2 2.5417 -0.939315 11.9842 14
567 2 2.30705 7.77336 3.31405 19
568 2 0.809287 1.1808 10.5961 17
569 2 -9.93288 2.1456 3.27194 18
570 2 4.01946 7.38152 -6.2598 18
571 2 -8.94158 -9.79426 -7.0979 13
572 2 -5.44104 -5.96694 -6.72461 21
573 2 -8.77237 -5.11941 5.63192 19
574 2 6.84336 9.42528 -0.749212 15
575 2 10.6012 1.75172 1.52692 18
576 2 8.51578 -7.69697 0.895964 19
577 2 -14.1446 -4.15317 -0.568224 10
578 2 -1.79839 7.01726 0.837596 18
579 2 -3.30233 5.47266 -5.11402 20
580 2 1.71539 2.98036 -10.3783 21
581 2 -11.5286 4.61284 3.41593 14
582 2 -8.27473 -6.0106 3.13012 20
583 2 6.58962 -10.6376 -0.623069 18
584 2 4.21338 -8.288 -1.98315 17
585 2 -6.17891 7.6791 -2.08 19
586 2 -8.13682 4.47447 -6.2711 17
587 2 2.58085 -10.201 2.74071 19
588 2 6.66227 3.88559 8.83646 13
589 2 -0.191439 0.06957 -14.9731 12
590 2 0.316651 11.2443 -9.31434 11
591 2 3.33744 1.73776 -15.2376 11
592 2 0.201844 7.79733 -1.70306 17
593 2 -9.01013 -4.28638 8.93321 17
594 2 -2.68688 -5.56289 8.04019 19
595 2 -11.7847 -4.14912 -2.20617 17
596 2 3.20041 4.55956 -7.4355 20
597 2 7.16299 -1.76668 -3.39125 18
598 2 2.99076 -0.36912 8.57792 17
599 2 1.56587 -2.62051 -14.8944 11
600 2 7.42972 2.95692 0.296938 21
601 2 5.51114 5.41438 0.338814 20
602 2 -9.21206 -7.49179 0.718445 18
603 2 0.392184 12.7593 -3.80419 10
604 2 -4.19453 2.41661 10.0801 15
605 2 1.8863 -14.748 0.646091 13
606 2 -9.24853 -9.30696 5.44687 15
607 2 7.74574 -3.39247 9.95897 14
608 2 8.43064 5.5495 -8.14151 13
609 2 2.685 7.1437 0.662968 19
610 2 3.6043 -12.0564 8.45557 12
611 2 7.47547 -9.65718 -6.50899 17
612 2 -1.45114 2.3624 -11.9085 15
613 2 0.730898 4.63629 10.2425 16
614 2 1.59761 3.22907 7.73026 18
615 2 7.66898 -5.95871 4.09851 19
616 2 -3.75586 -1.3816 -14.5537 10
617 2 11.7052 -2.30122 -5.53724 13
618 2 -4.59614 8.85121 -0.348502 20
619 2 1.28107 -8.2334 -9.66288 18
620 2 1.87491 2.81321 12.7665 12
621 2 -9.46527 3.59317 -8.60217 12
622 2 11.9817 -7.10936 -5.03756 10
623 2 2.91341 11.7191 2.09353 11
624 2 11.5512 6.60439 0.692141 12
625 2 10.7212 1.91056 6.61599 16
626 2 -6.31583 -3.32026 -4.82831 20
627 2 -10.5602 7.15424 -1.6435 12
628 2 -5.66343 2.42313 -5.05529 20
629 2 10.3373 3.97982 -0.9004 18
630 2 -9.31875 4.73272 2.55607 18
631 2 -4.24891 -7.71032 6.72744 17
632 2 5.60671 -3.84645 8.2727 19
633 2 2.51858 -13.2252 -4.32646 17
634 2 -0.976866 -2.53721 -8.5733 22
635 2 7.47463 10.7186 -3.77628 11
636 2 7.5694 12.3059 -1.22863 6
637 2 -2.8392 -4.36487 -7.64222 18
638 2 -6.28009 -9.22792 -5.54696 16
639 2 13.2486 1.18084 4.30208 11
640 2 -5.76649 5.45308 -3.2701 21
641 2 1.96177 -11.2048 5.43166 19
642 2 7.69067 -4.97644 1.47298 19
643 2 -7.88213 -9.54517 8.49965 14
644 2 -5.71153 -6.22198 -3.31349 24
645 2 3.08014 5.83258 8.46907 13
646 2 2.78747 8.53969 -3.55044 14
647 2 -8.73913 8.59917 3.42114 15
648 2 -7.14805 -5.52411 12.285 10
649 2 -0.110784 12.0383 0.389449 10
650 2 1.23347 -13.8169 -2.27905 18
651 2 0.240132 -5.81314 9.65611 21
652 2 5.33547 -1.34891 10.1601 17
653 2 -12.4519 2.18412 1.39927 13
654 2 -1.45459 3.35258 8.45438 19
655 2 -1.10106 -11.337 -7.84527 12
656 2 13.1163 -5.49318 -2.12573 10
657 2 9.76576 -7.91136 -8.03184 12
658 2 -3.69091 8.39442 -3.51103 18
659 2 -7.66417 -2.46558 11.6688 14
660 2 -9.36087 3.55462 -2.74925 15
661 2 13.2735 -4.58032 -4.73737 10
662 2 7.33971 3.74542 -3.03307 16
663 2 -3.93985 3.19848 6.71129 21
664 2 0.937153 6.07979 -9.09194 18
665 2 -9.68508 -3.55514 -3.85371 19
666 2 -3.70252 -2.08138 -10.365 16
667 2 -1.19275 3.98408 -8.74278 19
668 2 -7.90856 -3.61122 -6.9275 18
669 2 4.20495 -6.70273 -9.06227 17
670 2 -3.78084 -8.25413 -2.91632 18
671 2 -2.98168 -7.27671 11.2461 14
672 2 7.4958 -3.91877 6.15255 18
673 2 8.41197 -4.36575 -9.15132 14
674 2 -0.624607 -12.5076 6.20821 11
675 2 9.46898 8.52035 1.42058 13
676 2 -5.19661 10.1667 6.46031 12
677 2 -11.1352 -9.92679 0.0501245 12
678 2 6.36569 4.39898 -5.60364 21
679 2 2.40351 -7.72815 2.86812 21
680 2 -10.041 7.04853 1.42392 13
681 2 3.92994 -0.183082 -7.0023 20
682 2 5.05496 2.86736 4.52673 19
683 2 -11.6597 -0.690912 3.74517 16
684 2 -0.0126208 6.2007 -6.42771 19
685 2 4.36782 -2.07478 -12.9737 11
686 2 -5.74139 0.0692171 7.10458 21
687 2 -1.86403 -4.14185 10.8481 16
688 2 11.2934 -0.623427 3.41763 18
689 2 2.01459 -0.127066 -16.7287 6
690 2 -8.46944 -6.31329 -5.13368 22
691 2 9.52694 -1.50365 -7.53117 16
692 2 2.70638 -9.71071 -12.0723 10
693 2 -10.7714 3.74108 5.87806 14
694 2 -7.07852 -2.59561 5.21361 20
695 2 4.85685 -13.427 -2.96767 13
696 2 0.384738 -11.7342 -5.54988 16
697 2 3.71916 -15.4693 -1.71825 12
698 2 13.6243 -1.32644 -1.95213 17
699 2 -2.76266 6.62812 -7.40305 19
700 2 4.96781 6.46373 3.63978 19
701 2 -1.25591 -12.7967 -3.12498 15
702 2 5.92398 -0.880264 6.80472 17
703 2 -2.64276 9.36214 8.32461 7
704 2 -7.67352 6.86305 -8.35663 10
705 2 1.75621 -10.9915 -8.77816 12
706 2 -6.16439 -13.9069 3.3241 14
707 2 -8.11054 5.47532 -0.856263 24
708 2 5.94028 5.48144 -10.475 16
709 2 -4.36374 7.4507 -9.55262 13
710 2 5.89232 3.67964 -8.59538 18
711 2 -3.97531 -7.3275 -11.7573 11
712 2 -1.2656 -8.30742 -8.40682 18
713 2 -11.0422 -4.86703 -6.7497 12
714 2 8.43343 6.93691 6.78201 13
715 2 -8.36259 1.2389 -10.5876 12
716 2 -9.50973 -9.65709 2.8994 18
717 2 10.3235 -3.85845 5.25099 15
718 2 4.84447 1.89651 8.05644 19
719 2 6.38638 0.751258 -12.3093 13
720 2 -0.703145 8.76945 -4.56966 15
721 2 1.36398 11.7256 -6.5629 13
722 2 13.1435 -4.09545 2.84821 12
723 2 5.78715 7.10563 -8.01119 17
724 2 0.00327817 -0.122125 13.1904 10
725 2 -1.04212 -5.27973 -10.6497 18
726 2 8.13475 2.17666 10.4301 9
727 2 -8.20016 10.4488 5.29873 9
728 2 5.69386 -11.6122 2.31998 18
729 2 9.95445 -4.9757 -6.94707 15
730 2 -2.12334 9.80894 5.60305 15
731 2 5.10372 -9.5619 10.088 12
732 2 -2.18692 10.1275 -8.24236 12
733 2 1.28131 11.0495 6.01769 9
734 2 -9.48918 9.66684 -3.02682 13
735 2 4.07691 12.592 -7.09093 8
736 2 -10.5727 -10.8432 -4.49789 11
737 2 4.47506 -4.68565 -11.7422 13
738 2 -7.25187 3.55877 5.00659 19
739 2 13.6331 -3.89453 0.187885 15
740 2 -3.95646 9.50496 -6.52301 15
741 2 -10.0902 -2.41521 7.23984 16
742 2 -2.90823 -10.7586 -4.44806 18
743 2 5.17022 6.14454 7.30621 16
744 2 -0.631195 -8.23451 -11.9035 14
745 2 -7.07686 4.32985 -10.0432 13
746 2 3.47596 6.17205 -10.422 18
747 2 -3.80532 0.669203 -12.3945 14
748 2 -9.76244 9.31393 0.141011 13
749 2 -10.269 6.75283 5.24257 11
750 2 6.03612 10.2622 -7.27459 12
751 2 -5.09797 -15.0816 0.252364 14
752 2 13.8581 2.57094 -6.63216 8
753 2 6.89658 -5.65671 -5.96435 18
754 2 -8.28872 -12.2041 2.95795 15
755 2 -8.82422 6.43094 -3.95987 14
756 2 -10.7843 -7.41098 5.89124 14
757 2 -4.14933 3.06964 -7.3321 17
758 2 0.807006 -10.7733 8.27547 16
759 2 9.82063 4.79866 8.72028 9
760 2 5.08826 -6.68614 6.09744 20
761 2 -6.67222 -2.48443 8.61255 20
762 2 5.84408 3.31821 -12.1187 13
763 2 2.57061 8.51115 6.87963 14
764 2 -10.7602 -12.3183 0.549058 9
765 2 -6.60029 -7.82407 5.23532 24
766 2 -8.81632 0.154789 5.63028 19
767 2 -5.64254 5.36466 -7.34143 17
768 2 -10.8414 -7.19943 -2.62393 15
769 2 -5.4597 11.3957 -0.620915 11
770 2 5.22036 -10.2264 7.36974 17
771 2 10.9635 7.3535 4.20816 11
772 2 -3.38764 -14.8746 2.58041 11
773 2 -13.581 -6.20054 2.43004 11
774 2 -12.9024 -1.36414 1.16711 13
775 2 -2.71712 0.123773 8.3404 18
776 2 1.52196 -3.23737 14.0852 7
777 2 -1.44838 -8.00675 4.61442 18
778 2 8.70969 -0.353163 4.9349 21
779 2 4.80611 -7.87572 -5.74373 19
780 2 -2.79538 4.80653 1.91866 23
781 2 -7.55336 -0.407211 -5.86749 18
782 2 -3.71895 -2.47756 6.75684 22
783 2 -0.384054 -8.31601 7.66355 18
784 2 -9.79927 -5.78658 11.1839 10
785 2 1.83222 -5.31846 12.0241 15
786 2 4.34901 1.34628 -9.25015 19
787 2 10.6373 5.65236 6.55592 11
788 2 7.13251 -2.83727 -11.6759 10
789 2 8.85955 -5.74424 7.72281 15
790 2 13.4961 1.36442 -3.85156 12
791 2 8.87866 -5.24889 -1.36508 19
792 2 3.3162 9.98005 4.26796 15
793 2 14.054 -1.42975 1.78033 12
794 2 -5.08473 -10.1191 10.5035 10
795 2 -0.668871 -6.0634 13.46 12
796 2 -4.6238 -4.00212 10.4453 17
797 2 3.49173 -11.8267 -0.458166 23
798 2 5.06756 -9.31322 4.33364 23
799 2 10.4012 -5.78757 3.65517 13
800 2 -1.33135 -9.6868 10.9193 11
801 2 -5.28308 5.77533 7.06981 15
802 2 7.71501 0.846738 -5.80181 18
803 2 4.94383 -8.3937 -11.5412 11
804 2 4.58855 -10.106 -8.5344 16
805 2 0.708047 2.99026 -13.8056 15
806 2 -8.03864 -1.23886 -9.20976 14
807 2 7.95001 8.33737 3.86008 14
808 2 -8.75412 -5.39395 -1.32654 19
809 2 13.0625 1.05174 -0.939939 12
810 2 -8.64418 -4.35366 0.873999 19
811 2 5.21647 -6.11075 2.55349 21
812 2 6.51005 8.40907 -4.92552 14
813 2 13.9977 -1.11853 -5.07756 11
814 2 10.6363 3.6458 -8.48458 11
815 2 2.30136 -10.6836 11.3861 10
816 2 -11.8883 -6.51991 0.251629 15
817 2 10.1105 -2.78274 8.37383 11
818 2 5.15502 -8.84928 0.568762 22
819 2 8.54987 6.1698 -1.06657 18
820 2 -9.2628 2.42508 7.79336 17
821 2 -10.2472 3.12246 0.073369 18
822 2 11.2806 -2.998 -1.85101 19
823 2 5.22115 -13.8636 0.477394 11
824 2 -8.0989 -9.14757 -3.58939 18
825 2 5.28808 5.92519 -3.08527 20
826 2 7.42414 -11.0349 -3.63011 12
827 2 3.23732 4.71432 1.97017 20
828 2 -7.64985 -12.0574 5.84888 13
829 2 -1.2204 -2.83977 7.80529 21
830 2 -6.68259 8.0091 6.07728 14
831 2 -0.164724 -4.69434 -13.3768 13
832 2 -9.60823 1.14904 -7.29456 13
833 2 -11.6708 -5.00198 7.93163 12
834 2 4.57021 -4.03481 11.2125 17
835 2 -11.4022 -1.60979 -6.37412 11
836 2 9.93962 -0.348431 9.45245 10
837 2 9.26444 -3.82124 -4.24242 18
838 2 -7.0608 1.8246 -7.5746 18
839 2 9.15524 8.67451 -2.69111 11
840 2 -5.44645 -11.1422 1.0431 14
841 2 -2.9003 10.3671 1.73635 17
842 2 -0.145841 10.5402 3.73529 16
843 2 6.84142 -7.99997 -3.33197 20
844 2 5.155 -11.4621 -5.65285 12
845 1 -5.74601 -2.40641 -3.20197 22
846 1 -6.89888 -5.11861 -2.01064 22
847 1 -0.350616 -7.84576 -3.34251 20
848 1 -0.488369 -2.01086 -6.52444 25
849 1 -3.43452 -3.25156 -5.19667 22
850 1 -1.11069 -5.09607 -4.76088 22
851 1 -3.66999 -6.27149 -3.14557 19
852 1 -0.432553 -2.41503 -3.23683 25
853 1 -3.281 -3.01145 -1.3931 21
854 1 -1.15106 -5.39956 -1.51172 19
855 2 -6.75011 -3.32511 -1.63278 22
856 2 -0.50428 -8.72375 -1.66482 20
857 2 -4.40834 -2.36538 -6.83473 24
858 2 -0.596736 -5.64827 -6.62258 23
859 2 -3.24606 -4.96058 -4.7716 21
860 2 -1.43311 -2.99978 -5.09395 24
861 2 -3.78577 -2.14089 -3.03854 22
862 2 -0.475852 -5.92344 -3.17621 21
863 2 -3.05621 -5.16522 -1.6315 17
864 2 -1.21136 -3.1839 -1.53314 24
865 1 -5.95181 -2.61547 0.481136 22
866 1 -5.73381 -2.24389 3.87582 19
867 1 -0.0988143 -7.95289 0.0465109 21
868 1 -0.281805 -7.80047 3.19706 22