ITEM: TIMESTEP
7000
ITEM: NUMBER OF ATOMS
2000
ITEM: BOX BOUNDS pp pp pp
-30.0 30.0
-30.0 30.0
-30.0 30.0
ITEM: ATOMS id type x y z Coordination
1 1 -8.37885 6.4287 -13.233 9
2 1 -3.22151 -11.8173 -9.14727 16
3 1 0.398941 9.11477 13.0143 17
4 1 9.54352 -8.54796 3.28029 12
5 1 -8.97484 11.7809 -5.04167 19
6 1 9.85009 -11.8722 -6.78819 9
7 1 -12.1178 -0.57653 -5.61827 19
8 1 -1.37261 -6.54653 9.9178 21
9 1 -8.78656 -1.74036 -10.9025 15
10 1 -13.1158 -10.8212 4.53103 18
11 1 12.4365 3.89891 -10.9943 13
12 1 -3.1309 -11.1449 2.17733 20
13 1 -15.1183 -9.49096 2.12068 14
14 1 -0.63087 3.44686 18.2504 14
15 1 0.823546 4.40486 9.69901 17
16 1 -0.677698 8.1547 -11.2739 22
17 1 2.66946 -1.18656 12.6535 18
18 1 -10.2914 0.719155 -15.011 12
19 1 -12.5204 -0.708123 13.2381 13
20 1 13.2916 5.30607 8.32169 19
21 1 0.695867 9.12047 -8.6523 21
22 1 3.24346 4.76262 -11.7393 22
23 1 16.8088 1.48037 13.1746 7
24 1 -13.6074 5.02961 -9.02887 10
25 1 -8.56764 7.00974 13.2831 17
26 1 5.28067 -12.4414 4.48682 18
27 1 2.018 -13.2372 -14.658 11
28 1 9.28469 -11.8292 -0.493139 14
29 1 -4.49755 -12.4614 -5.87751 19
30 1 -14.74 -6.53735 9.77751 11
31 1 2.48627 -6.73677 -13.9337 18
32 1 10.0445 -9.39476 -10.8404 13
33 1 -1.96833 4.36844 -13.2999 15
34 1 -1.33846 3.16512 13.2708 18
35 1 -3.60849 -9.98218 8.70602 18
36 1 6.17746 -5.22038 12.468 13
37 1 -11.8287 -0.387222 0.0175141 21
38 1 -16.8983 -1.42335 7.81702 11
39 1 -2.01905 14.9743 -3.64244 18
40 1 0.903564 -15.1692 -11.7593 14
41 1 -1.06836 1.91892 -11.3323 20
42 1 6.41992 -5.54826 -8.62099 21
43 1 -1.73147 -2.49048 12.9528 17
44 1 -12.2799 2.82655 1.07842 20
45 1 4.98662 10.5916 -12.0517 18
46 1 0.271263 12.2662 7.26341 16
47 1 -12.2793 4.90855 -6.23948 18
48 1 -0.377625 14.0502 -0.77474 20
49 1 1.85505 -11.9663 3.8889 21
50 1 2.0051 -10.2502 -5.78938 20
51 1 3.9918 -5.42806 -16.3179 15
52 1 -6.09951 9.5137 12.4819 19
53 1 -12.3967 -6.07424 -8.22155 16
54 1 -4.00839 7.51831 -5.86892 21
55 1 -8.17496 -9.49714 7.16472 19
56 1 -2.18519 14.1888 11.9364 10
57 1 -10.4548 7.66202 -5.80206 23
58 1 -4.38974 9.77256 14.9166 14
59 1 -8.0709 -13.5493 8.91207 21
60 1 3.31191 -15.5966 -4.35552 18
61 1 4.05964 10.1277 15.237 14
62 1 -12.7341 -0.344595 -10.9015 15
63 1 -11.8812 7.18053 -8.57659 12
64 1 4.62176 4.34634 13.6707 18
65 1 13.8239 -4.88318 -8.56227 9
66 1 8.14583 -12.27 4.36987 9
67 1 -16.689 -3.14224 4.31665 10
68 1 6.62052 14.2458 4.40997 16
69 1 6.87261 -0.632696 11.9951 20
70 1 -8.03074 -13.2006 4.92763 22
71 1 11.1744 2.84749 8.0622 21
72 1 -2.96296 10.5987 8.43341 17
73 1 -1.44204 -8.67821 -8.90828 24
74 1 -12.7732 7.63713 7.28585 11
75 1 -6.80989 11.6088 -2.75151 18
76 1 -3.98453 6.14156 -8.32122 22
77 1 10.5456 11.3597 -9.52297 14
78 1 7.47572 -8.06203 8.02212 11
79 1 -5.36667 15.122 -3.30554 15
80 1 -10.5219 13.5497 5.39138 8
81 1 -6.11198 -4.44302 15.7143 7
82 1 -4.99444 10.8512 4.93727 18
83 1 -4.68156 -6.40998 10.1814 23
84 1 13.2852 -6.33964 1.90205 14
85 1 -8.36061 5.16049 4.51244 24
86 1 -9.72275 -14.6847 6.99024 15
87 1 8.3038 -5.76176 -5.85205 20
88 1 4.22114 -0.837067 -11.7301 22
89 1 -6.92807 -0.971279 -16.1371 13
90 1 0.0936255 11.6341 2.29401 22
91 1 -10.0746 2.94285 -7.87077 21
92 1 2.9425 10.4938 21.1852 5
93 1 -0.112073 13.5623 -6.44648 20
94 1 -15.0691 8.70122 0.405847 12
95 1 -6.16925 -9.11163 10.3848 18
96 1 15.1051 0.146235 10.8614 14
97 1 2.9862 -5.54039 -8.56632 23
98 1 6.65571 -4.14581 15.3461 9
99 1 -8.39776 -6.67062 -0.626261 23
100 1 -8.84942 -8.54087 -3.03312 23
101 1 7.7621 -10.366 1.81667 19
102 1 8.58821 3.07973 -14.373 15
103 1 7.48556 15.5413 -1.18067 18
104 1 -8.78741 -11.4036 12.5287 10
105 1 -9.67203 -14.2846 11.5731 12
106 1 4.59202 -8.18171 -14.527 16
107 1 11.3649 -9.55589 0.956407 12
108 1 -2.59055 -15.8799 7.28455 11
109 1 -13.0658 -12.6983 2.28036 11
110 1 16.7944 6.43429 9.11673 12
111 1 12.9242 -1.03235 -8.10498 14
112 1 -13.9871 -3.51853 3.18467 15
113 1 8.8669 7.46171 5.84407 23
114 1 13.4473 10.6723 7.25129 16
115 1 -5.23158 7.94815 18.4322 8
116 1 -5.61204 10.3194 9.35665 21
117 1 -6.07429 10.9599 -5.64279 18
118 1 1.22708 -7.00814 -11.0421 21
119 1 7.87448 -10.5194 -8.21417 15
120 1 3.61935 13.5822 -11.2846 12
121 1 8.69455 -5.56738 10.7686 14
122 1 1.02741 -1.77634 -16.5901 18
123 1 -1.20601 11.3764 -9.75142 18
124 1 11.1577 -0.103509 -5.85959 24
125 1 -10.7558 10.381 -7.16532 12
126 1 -7.18631 16.7986 0.351003 11
127 1 6.27745 2.15977 -11.3209 24
128 1 8.56789 -6.1311 5.20953 19
129 1 -6.74269 14.3892 9.8903 13
130 1 14.1834 6.67366 -6.5327 16
131 1 4.37949 11.0309 -1.28792 21
132 1 -4.22987 18.9083 0.295622 8
133 1 10.5745 12.7997 -3.20632 15
134 1 -2.02612 10.9716 -0.413731 20
135 1 3.94444 17.076 -7.37217 10
136 1 3.95671 8.45004 -14.0255 18
137 1 -8.36104 -8.81462 1.91402 20
138 1 -15.4923 8.07514 -2.95417 13
139 1 -4.77603 -1.96248 -13.7331 19
140 1 0.80841 -10.8682 -16.9861 10
141 1 8.02224 13.9106 8.61078 11
142 1 -0.030218 16.0537 6.34608 15
143 1 -11.53 -7.58784 -4.87969 18
144 1 -9.89402 11.5111 1.47531 18
145 1 18.223 -0.0691137 -0.529585 10
146 1 -10.5467 3.7577 -15.5752 11
147 1 7.82535 1.4712 17.3531 15
148 1 5.55404 17.6933 4.70069 11
149 1 -1.68235 8.26778 7.09639 19
150 1 2.76552 -8.06235 -17.2519 10
151 1 -3.64455 13.4193 9.96939 17
152 1 -2.74834 10.6621 -5.67128 21
153 1 3.77206 -5.90572 13.6719 10
154 1 -11.3536 -7.67365 4.60246 20
155 1 -2.09374 -14.1711 -12.6394 11
156 1 -7.42482 11.4685 -8.14462 14
157 1 -3.16254 -9.40534 4.8002 24
158 1 2.01065 -17.2251 -6.43965 14
159 1 -2.5135 12.071 -11.992 11
160 1 -15.3922 1.89805 7.44618 10
161 1 7.64481 8.39811 -5.36891 21
162 1 -8.34773 5.49114 16.1901 14
163 1 -0.701454 -10.2939 10.5147 14
164 1 2.86691 16.3497 4.45119 14
165 1 3.1121 6.4256 10.8522 18
166 1 14.4197 3.37597 13.579 12
167 1 -8.38 14.851 2.35708 15
168 1 13.1618 -3.23417 -5.86506 14
169 1 -5.60993 12.5001 12.2732 14
170 1 14.2614 -3.90879 1.92695 15
171 1 -13.3718 0.602093 3.11837 18
172 1 -9.97008 -10.5362 3.82254 19
173 1 7.65827 4.24815 15.5279 21
174 1 -14.1741 -0.948045 -2.65926 13
175 1 -3.83066 -12.9725 0.064308 17
176 1 -1.36405 10.814 5.14603 19
177 1 3.8917 12.3182 12.1148 12
178 1 -4.34012 12.0846 -8.10196 17
179 1 -11.5421 -9.86517 -7.05954 12
180 1 -9.66101 -2.10572 13.6174 15
181 1 0.262386 -9.41956 4.64251 21
182 1 3.47496 -11.9673 7.11623 18
183 1 -12.1255 10.2716 -0.885049 19
184 1 15.7469 5.6075 3.72262 17
185 1 -5.93967 -7.14739 -10.7944 16
186 1 2.96918 1.99868 9.29769 17
187 1 3.68508 -14.9546 1.5151 17
188 1 -3.03298 6.09535 -10.9395 21
189 1 1.69163 -10.3014 -13.4756 17
190 1 11.9267 2.31128 -13.7931 9
191 1 3.49897 4.65535 -14.902 16
192 1 -6.80862 -5.81032 -8.38566 21
193 1 -2.73339 13.5205 -6.10923 18
194 1 -11.7484 -11.8456 10.3587 14
195 1 8.84458 15.4165 -3.67261 12
196 1 -6.32162 3.63077 16.0635 13
197 1 -3.94847 11.9378 -3.66642 20
198 1 8.20012 -0.807526 8.78098 20
199 1 -3.28299 -4.48551 -13.3814 20
200 1 -2.55602 9.08998 -8.50645 21
201 1 2.3458 6.09121 -9.04684 21
202 1 -10.4466 -11.6678 6.7796 22
203 1 -7.26881 5.35968 7.24174 21
204 1 -7.35365 7.5849 9.82013 19
205 1 0.52945 -11.6707 -8.23086 20
206 1 -6.9017 -14.7373 -0.147476 17
207 1 8.10395 -8.69099 -3.7123 18
208 1 13.8591 6.03337 14.5705 13
209 1 9.4017 8.2423 -11.3399 14
210 1 1.0616 10.6552 -0.648118 22
211 1 -8.7614 2.66269 7.123 22
212 1 -14.3547 11.1048 -2.29791 11
213 1 1.51887 3.55044 13.1051 20
214 1 3.20791 -17.9689 -0.516608 12
215 1 12.947 -0.118194 -3.31295 21
216 1 -9.11219 7.91888 6.78256 18
217 1 -10.2937 -5.41954 -3.23292 18
218 1 6.15679 4.23284 -13.3386 19
219 1 3.11024 -3.6073 10.0912 22
220 1 7.19242 9.55287 -10.1655 22
221 1 1.48952 -13.7206 -3.52822 23
222 1 -4.61163 -2.11708 -11.1419 19
223 1 -2.17155 -18.0356 4.50067 8
224 1 5.90858 0.331492 -8.73979 23
225 1 -8.67772 -3.16803 7.46405 24
226 1 3.43908 -18.6736 -3.17263 11
227 1 -8.09665 -6.79996 -5.61749 20
228 1 4.58709 16.2477 -0.943937 17
229 1 -0.458868 -2.87817 -13.8968 21
230 1 6.39017 3.9166 18.4817 13
231 1 13.8613 2.60254 3.02635 19
232 1 9.81103 -2.75164 -6.59875 19
233 1 -6.97978 -4.44715 -12.7645 14
234 1 -12.7156 -3.34173 -8.35858 20
235 1 -6.10033 -13.6101 12.2698 15
236 1 13.0846 -0.549248 8.96129 18
237 1 -3.79762 -9.70584 -11.2743 16
238 1 2.12178 7.673 -11.3902 22
239 1 -8.3072 -7.53636 4.77552 23
240 1 3.3831 11.4254 1.52346 21
241 1 -6.77926 -1.34153 12.6886 22
242 1 -8.09633 -8.62752 -10.0378 14
243 1 -4.05329 -4.58911 -9.50774 20
244 1 -1.97753 7.34005 -14.0792 16
245 1 -5.05923 -6.75892 -5.93291 22
246 1 8.4941 -3.47653 -15.4406 12
247 1 11.9825 1.57434 -8.18073 17
248 1 11.6015 5.27902 4.17667 19
249 1 -7.0843 -4.67597 12.6441 17
250 1 -4.49808 -11.5031 -2.76882 18
251 1 9.79443 3.96415 17.359 15
252 1 -5.53861 -15.1531 6.51971 20
253 1 -2.4987 -14.4982 2.63921 20
254 1 -2.89457 17.3891 -2.33396 11
255 1 6.22353 -2.63303 -13.8401 18
256 1 -8.19847 -0.718799 -13.4925 17
257 1 -11.3286 -6.89176 9.93075 17
258 1 3.82425 6.26854 18.8243 16
259 1 -0.271695 -11.3686 2.2046 21
260 1 -4.95606 -13.2864 -11.2004 12
261 1 -12.6326 2.07617 -9.51144 15
262 1 10.1672 5.30183 6.68612 22
263 1 -5.58185 2.83071 -8.40453 22
264 1 -0.969679 6.04233 -8.60996 24
265 1 8.30606 -14.3316 -8.72887 10
266 1 -4.0148 14.431 -0.695806 14
267 1 1.73199 10.906 4.63384 21
268 1 10.1442 2.21659 4.64082 23
269 1 -10.4284 -0.192259 7.29295 16
270 1 -2.43802 -5.57479 12.8216 15
271 1 -8.9539 10.7769 4.55708 16
272 1 4.50754 -6.97925 -11.2648 22
273 1 14.2254 8.65048 -1.57425 17
274 1 4.0653 -11.6465 1.48206 20
275 1 -1.49171 1.26462 15.7519 15
276 1 -15.3214 -4.23998 6.66453 17
277 1 0.561624 -16.7708 -3.697 18
278 1 -7.08788 7.92798 15.851 13
279 1 -11.021 3.72564 16.743 9
280 1 -15.8631 -3.86031 10.1016 11
281 1 -13.2781 -6.76163 6.92012 18
282 1 14.3468 -0.928965 -0.360564 20
283 1 -15.1 -9.42133 5.95161 10
284 1 8.07537 -2.92615 -8.99915 20
285 1 9.32661 -12.128 -3.43093 13
286 1 1.77608 16.7139 -0.909681 16
287 1 -9.00983 14.6864 -3.50415 12
288 1 12.4891 6.51305 11.9301 22
289 1 -9.70067 -4.29026 4.4812 20
290 1 4.51205 -8.26116 -3.54469 24
291 1 -3.03888 11.9056 2.32272 18
292 1 6.68895 -11.421 7.79181 10
293 1 13.2241 -4.34767 4.83738 13
294 1 -2.26485 4.86081 9.67143 18
295 1 -3.009 3.9685 16.2327 19
296 1 -4.22668 13.377 5.1255 16
297 1 10.9971 6.30014 15.6354 16
298 1 -7.56086 14.1671 -5.77868 11
299 1 -1.06423 -3.94387 -17.5228 16
300 1 7.04674 -8.58345 -12.6799 17
301 1 -7.55357 3.6666 12.8986 16
302 1 -10.6448 2.39694 3.85975 20
303 1 -8.84741 8.86629 0.670252 16
304 1 10.222 -0.329052 6.9856 20
305 1 -9.61289 -15.4908 2.22288 9
306 1 6.37941 -5.76403 7.16337 19
307 1 -8.0282 -7.90307 12.9314 13
308 1 -15.8128 5.49702 -0.83049 11
309 1 3.39168 -12.7308 -6.06862 24
310 1 -6.34282 -2.4054 -8.87039 18
311 1 9.83667 -0.524299 -13.4641 13
312 1 3.90272 13.6767 3.30901 17
313 1 -10.452 -0.236641 -3.0445 18
314 1 8.16013 -6.44427 -11.0775 22
315 1 11.1168 5.27685 -13.5555 10
316 1 -3.70184 -16.8209 -8.32916 10
317 1 -11.5069 -9.15244 -2.24117 13
318 1 13.4516 3.42564 16.6249 11
319 1 14.5541 3.48546 -3.1117 20
320 1 -7.40601 3.58385 -10.188 20
321 1 3.03097 17.6842 2.05865 12
322 1 -14.9579 -2.58171 -5.15648 15
323 1 -6.85202 8.09118 4.76115 19
324 1 -7.30539 13.7813 -0.238887 21
325 1 -5.29027 8.08533 7.28756 23
326 1 11.1638 3.90918 14.1518 21
327 1 10.9877 -2.34724 -3.46195 19
328 1 9.42757 -4.23158 13.8479 12
329 1 9.40021 2.42078 -6.33474 24
330 1 -5.23339 -15.9465 -5.56876 11
331 1 -10.4165 1.84477 -5.44898 23
332 1 4.46488 -13.1475 -1.19277 18
333 1 14.0627 2.46814 8.55894 21
334 1 -8.71682 -1.24524 -5.76361 23
335 1 -6.71728 -10.1164 4.2783 18
336 1 -11.3826 -7.18347 13.0826 6
337 1 -4.85489 11.0732 -0.364829 20
338 1 -9.73427 -10.219 -0.255008 18
339 1 6.8034 9.43938 16.89 14
340 1 -12.5843 6.98938 -3.05003 18
341 1 2.25477 11.7008 -8.68825 19
342 1 7.30776 10.5287 7.3294 18
343 1 -13.7807 -10.4628 -0.354175 8
344 1 -0.40479 -9.44151 -6.24962 20
345 1 -15.415 -0.67034 5.66114 13
346 1 -13.8607 8.96308 -4.91073 13
347 1 4.67879 -8.80012 7.88215 19
348 1 -6.30227 -14.8182 -3.27448 15
349 1 11.6643 10.1609 11.1756 14
350 1 5.66157 7.37592 -11.9359 21
351 1 -12.4424 6.52363 -11.8695 7
352 1 1.3013 14.9843 -8.73857 14
353 1 -8.84476 4.7942 -5.51553 24
354 1 -3.22706 -12.9545 7.48375 18
355 1 13.2074 8.8082 4.02085 19
356 1 0.707739 8.54199 -15.7851 11
357 1 -14.9581 0.377855 -0.105498 14
358 1 -4.86493 -12.3513 4.5772 20
359 1 7.554 -11.9604 -11.1079 12
360 1 -12.0367 -1.26993 4.03034 17
361 1 -16.4667 -0.891401 10.9951 6
362 1 -14.7167 4.77305 5.77403 9
363 1 -7.90837 1.93966 -16.4387 13
364 1 4.98109 -9.61277 -6.59745 18
365 1 1.91841 -10.0523 -10.4156 19
366 1 -3.32898 -3.84926 9.99084 23
367 1 -5.30978 2.62014 -16.8195 10
368 1 7.05401 -13.4327 1.36679 12
369 1 3.41883 13.8137 -6.30468 21
370 1 -11.6642 10.0568 5.83471 12
371 1 -4.0893 -0.970668 15.3839 12
372 1 -12.1811 -5.41743 -11.7192 10
373 1 -8.03638 -6.93072 9.97214 21
374 1 8.59072 -3.64018 7.4619 21
375 1 10.8678 -5.20504 7.44721 13
376 1 15.9726 6.48289 -3.89302 14
377 1 -4.67339 3.42936 12.742 18
378 1 2.80897 13.4596 -0.569117 20
379 1 -1.55609 -12.4543 -6.81211 18
380 1 -3.17356 7.44269 15.9277 19
381 1 -2.94927 16.093 9.45785 9
382 1 -8.90656 -11.6049 -8.68619 13
383 1 10.5273 14.5214 3.34467 13
384 1 4.90617 4.61438 9.95698 18
385 1 -7.08252 1.65637 9.99204 23
386 1 -11.1682 5.09406 11.2323 13
387 1 -6.76403 -9.07053 -7.42255 21
388 1 -7.89428 13.6842 5.1354 18
389 1 -3.33998 -9.70269 -6.07341 22
390 1 -3.99996 -7.74497 -13.5288 15
391 1 -6.92263 -11.5382 0.928707 17
392 1 8.20446 2.18449 7.23509 24
393 1 -4.40733 -2.84892 12.8642 21
394 1 -9.64464 5.92199 -10.4545 16
395 1 12.1298 4.3372 -0.321786 19
396 1 -8.03043 -13.1133 -6.11474 16
397 1 -0.0548702 16.1962 3.23207 14
398 1 -1.11658 9.00399 10.4452 18
399 1 -9.9608 -3.47979 -1.10924 22
400 1 -0.0909398 17.8294 -3.19117 13
401 1 7.5807 12.0562 -4.15235 20
402 1 -3.6121 -7.32837 -8.11621 20
403 1 1.30472 0.562968 18.0223 11
404 1 3.01326 -16.4072 -9.57649 13
405 1 -1.51053 -3.75032 -11.0219 21
406 1 8.17307 -14.8392 -1.79917 9
407 1 -12.584 9.44452 1.99644 13
408 1 2.17966 4.75366 15.6692 21
409 1 9.16604 9.21707 0.0132635 18
410 1 -5.87926 8.75888 -8.87272 20
411 1 -13.0326 -5.10177 -3.48743 13
412 1 6.41113 15.4162 7.19738 15
413 1 -2.3473 3.80739 -15.8498 14
414 1 9.58211 5.75854 0.93203 19
415 1 8.25438 13.37 -7.61129 15
416 1 17.4702 5.38707 0.455102 10
417 1 1.38306 -1.95691 -11.222 20
418 1 1.13839 -14.4362 8.25757 9
419 1 2.31598 -9.28773 10.4232 10
420 1 -9.63995 1.31246 -10.6296 21
421 1 -13.2652 -14.38 5.74018 12
422 1 0.682795 -12.4271 -11.9305 20
423 1 8.12809 16.627 5.65946 11
424 1 1.06915 2.96984 -13.6693 21
425 1 3.41371 -1.76805 15.9284 10
426 1 -15.3661 2.5869 11.0423 8
427 1 -0.747067 -16.5011 -0.988866 15
428 1 -11.4358 -3.08866 2.04084 19
429 1 14.7075 -3.33787 -2.89815 12
430 1 11.1405 -0.388195 -0.510701 22
431 1 2.24139 -8.03242 -8.07606 22
432 1 2.35145 1.72885 -11.4906 23
433 1 12.2404 -5.82786 -1.87433 14
434 1 -3.77242 1.60984 17.5198 10
435 1 6.1581 16.0919 1.99807 18
436 1 -2.42785 -1.53633 -15.4496 17
437 1 4.39585 -0.715387 -16.3356 17
438 1 -6.65313 -5.98383 7.38846 22
439 1 -2.88525 15.8265 2.95591 15
440 1 -12.4442 -1.58155 -13.5076 11
441 1 -16.7659 0.341032 2.90504 8
442 1 -2.98804 -8.98939 -16.2368 11
443 1 -5.96454 -10.6122 13.0874 12
444 1 0.88917 10.839 -6.10122 21
445 1 17.5595 3.25347 8.17316 9
446 1 15.7318 7.77027 1.33698 15
447 1 -10.1817 -12.9457 0.779078 16
448 1 -4.34348 -2.64363 -17.4798 13
449 1 -8.33229 11.6535 10.7946 11
450 1 11.3938 -2.77764 1.61482 16
451 1 6.36502 14.6671 -5.79922 19
452 1 16.9057 6.7253 -6.84692 8
453 1 4.62523 6.66036 16.3656 24
454 1 -10.8706 2.10143 9.20088 18
455 1 7.49976 10.8014 10.3009 14
456 1 8.76379 -1.14878 15.1864 17
457 1 -0.00379872 2.23951 -17.9835 14
458 1 -0.048362 -3.90303 9.6967 21
459 1 10.4308 9.53044 8.54757 21
460 1 7.70989 7.30151 -8.27441 18
461 1 -8.61136 9.04366 -2.93816 19
462 1 0.8629 14.8094 -3.85125 18
463 1 12.411 -3.66363 12.4471 12
464 1 9.46785 1.7579 -11.4383 19
465 1 10.3995 -8.70815 -1.93091 17
466 1 12.293 8.89954 13.7058 13
467 1 -11.8057 -8.75115 1.619 19
468 1 -5.6884 11.148 -11.3699 8
469 1 -12.8396 1.78549 11.0753 15
470 1 -2.32411 14.8226 -9.10309 14
471 1 2.50742 -15.2686 -1.43928 22
472 1 6.22076 -3.72567 -11.3124 20
473 1 -4.6307 16.0094 -6.8047 9
474 1 -10.1676 -3.89153 -13.1256 11
475 1 2.71733 -14.7989 4.87372 13
476 1 -14.0504 -6.95702 0.932629 12
477 1 1.98865 10.2832 -12.8486 17
478 1 -1.11567 8.9788 16.2236 15
479 1 -10.112 -4.09151 10.2836 21
480 1 2.73324 -13.7536 -9.42221 20
481 1 0.655733 -6.47944 12.4573 13
482 1 -12.0043 7.24401 0.242988 14
483 1 2.66194 3.51129 18.5575 13
484 1 5.83712 17.2381 -4.11074 10
485 1 9.84009 -3.464 -0.92751 21
486 1 6.59079 7.68181 11.8826 22
487 1 0.574492 5.04912 -16.3149 13
488 1 -4.72413 -13.0077 9.80602 17
489 1 7.4854 -0.298622 -15.0375 16
490 1 2.65814 13.5957 6.30794 20
491 1 7.27344 3.24368 -8.62691 23
492 1 3.22805 -3.34808 -14.0441 20
493 1 -5.07051 -8.55186 -3.42506 20
494 1 -9.87288 -7.03227 -7.81955 21
495 1 11.0643 3.13777 2.14059 21
496 1 14.525 5.46899 -1.25399 19
497 1 5.62589 -8.39002 -9.20177 21
498 1 14.9127 7.48348 12.0546 11
499 1 3.62839 -11.3853 -3.31422 22
500 1 2.14418 1.57309 -16.0625 21
501 1 8.39443 13.3228 1.62091 20
502 1 9.91099 9.87253 14.5494 11
503 1 12.4934 5.75599 -3.89493 19
504 1 13.1462 -0.152974 1.97542 19
505 1 10.8405 4.6054 -8.33811 20
506 1 8.96277 1.02314 13.907 21
507 1 15.6442 4.41154 11.073 16
508 1 12.852 11.0013 -3.80865 13
509 1 2.52929 1.62048 15.1626 19
510 1 14.4737 0.759073 -5.90996 12
511 1 7.32156 3.14946 12.8254 18
512 1 -7.76667 0.31965 -7.9394 23
513 1 12.8551 6.38444 1.59844 19
514 1 -11.0803 7.02141 15.7287 9
515 1 9.27119 9.01107 11.5439 20
516 1 11.7063 1.28042 11.3502 15
517 1 4.64523 8.85475 9.7378 20
518 1 2.53398 13.2981 9.74417 18
519 1 -5.42284 -17.5413 2.23493 10
520 1 -5.23225 8.55949 -3.16794 22
521 1 10.8658 8.489 -9.10648 14
522 1 10.9819 -3.17734 -10.0808 15
523 1 -1.03867 17.2075 0.133716 15
524 1 -1.96495 -14.414 -9.84704 15
525 1 11.2612 -6.3806 -10.6418 14
526 1 -12.0298 2.25279 6.03032 17
527 1 -7.91628 5.97829 -8.19789 20
528 1 -5.65566 -14.5079 2.42946 17
529 1 -6.25134 0.331621 -10.7707 21
530 1 -16.446 0.303107 -3.53012 6
531 1 9.74969 -5.37766 2.19762 17
532 1 10.9372 10.822 5.56461 18
533 1 1.95208 -8.69657 6.90092 17
534 1 -15.5339 -3.52035 -8.24374 8
535 1 5.92049 2.32302 -16.3398 13
536 1 -0.575715 5.48686 15.1774 20
537 1 7.31471 9.90711 -13.4017 11
538 1 14.9113 -1.79071 13.289 11
539 1 5.37509 8.06197 -6.51235 22
540 1 12.5984 14.1398 5.81642 8
541 1 5.42379 -14.1947 -9.72454 14
542 1 -10.5757 0.0196651 16.0555 10
543 1 14.057 0.925476 5.41887 20
544 1 0.2159 11.7241 10.855 15
545 1 7.15481 12.431 -10.5483 15
546 1 -11.7886 10.6907 -4.05021 19
547 1 8.47177 10.3305 4.13837 17
548 1 -9.51756 -14.7417 -2.04203 9
549 1 15.829 -1.63899 4.99568 10
550 1 8.63726 17.5389 2.76869 10
551 1 -3.65452 2.03486 10.0744 21
552 1 -10.3854 -5.94415 1.73398 18
553 1 -9.06334 -3.78065 -8.5019 19
554 1 9.75543 -1.62187 11.6223 23
555 1 -3.5908 -8.74159 11.2509 18
556 1 9.30979 5.91357 13.4529 14
557 1 -6.79922 11.514 2.04335 20
558 1 -1.86986 -0.702501 -18.2829 11
559 1 -8.71619 -1.25683 10.2503 21
560 1 7.65782 -1.28922 -11.3408 21
561 1 10.2622 -8.4493 -5.64971 12
562 1 6.74641 4.82896 7.07127 20
563 1 -12.6868 1.68713 15.66 8
564 1 11.0354 6.73702 9.232 20
565 1 0.431916 -1.24955 15.2303 14
566 1 -0.433539 6.0992 11.3167 20
567 1 -1.31319 -6.28427 -14.0338 19
568 1 -5.8349 6.66181 13.0589 19
569 1 5.06373 2.23317 15.7509 17
570 1 -12.1435 -14.464 8.92372 12
571 1 11.2311 6.96186 -1.38425 19
572 1 6.32327 -11.0036 -3.84117 16
573 1 10.1987 9.54063 -3.21947 19
574 1 8.9917 13.0059 5.41456 22
575 1 3.26192 0.601709 -18.7961 9
576 1 5.13886 14.6677 -3.20006 20
577 1 11.7256 10.5182 -0.727451 19
578 1 -6.73805 -9.37094 -1.29651 22
579 1 -4.19338 0.254543 -16.1299 16
580 1 -9.66998 11.9584 -1.85139 20
581 1 9.32063 -8.02326 -8.35068 16
582 1 8.74226 4.89326 -10.7912 19
583 1 10.2809 11.753 -5.96604 17
584 1 14.105 0.110852 16.1373 8
585 1 11.8239 -1.41488 14.359 16
586 1 -2.98819 -11.9774 12.2755 10
587 1 -4.08347 8.78908 -12.0248 16
588 1 5.54527 12.6166 9.30046 17
589 1 9.5202 -6.91927 -13.8101 12
590 1 8.52975 12.0636 -0.812283 22
591 1 5.41894 8.30309 6.58579 19
592 1 15.6885 -4.98149 -0.632187 11
593 1 7.26908 6.68041 17.9066 13
594 1 -12.9923 -4.53293 8.99714 18
595 1 0.61192 -14.364 1.71255 20
596 1 -10.1116 14.4851 -0.239864 10
597 1 5.09737 10.7617 4.32849 19
598 1 -12.0957 -4.06531 5.82706 17
599 1 -2.00321 6.60623 18.8413 13
600 1 -4.93216 6.23252 -13.5293 15
601 1 -6.13315 6.06122 -10.7939 18
602 1 1.73397 -12.2904 -0.066554 20
603 1 7.54118 8.97038 -2.54084 18
604 1 -10.7262 5.09246 14.0344 14
605 1 6.70415 -5.59774 -14.0044 19
606 1 2.48013 -12.1034 9.6132 11
607 1 1.60847 14.7099 1.71569 19
608 1 -5.32801 4.90486 18.3603 9
609 1 -8.87492 -5.99124 -10.9441 16
610 1 -3.64601 -11.5785 -13.7701 13
611 1 -6.40335 -14.7082 -8.29391 11
612 1 -1.03153 16.4707 -6.70226 14
613 1 -5.64034 12.1185 7.49932 19
614 1 4.22267 -11.2843 -8.88858 21
615 1 5.61527 -16.3134 -1.14908 12
616 1 1.96647 -6.75125 9.40599 17
617 1 12.5586 3.59808 -5.72189 18
618 1 0.64617 -14.7078 -6.56094 25
619 1 -11.9044 -1.31594 10.0974 16
620 1 -3.79615 -16.0888 0.298641 17
621 1 -6.93531 -11.3302 -4.21831 22
622 1 -9.59704 0.983555 12.1571 20
623 1 -7.75545 -16.6235 4.35716 11
624 1 17.5794 3.79689 -5.31272 7
625 1 -5.97042 17.7144 3.08653 10
626 1 -14.4698 6.12435 1.94527 11
627 1 11.6992 -1.07488 4.28007 19
628 1 -13.9472 -3.09831 -11.4904 9
629 1 -0.692425 11.928 -3.03777 22
630 1 7.94916 5.19093 -6.30964 22
631 1 6.08386 10.1931 13.0908 17
632 1 9.52269 6.08988 -3.56489 21
633 1 -14.4138 -0.294399 -7.82568 15
634 1 -11.655 -8.22965 -10.0924 12
635 1 0.858442 6.59404 18.2154 15
636 1 5.60843 5.91023 -9.90219 20
637 1 11.263 12.576 8.40443 13
638 1 -5.30191 -1.06458 9.89058 22
639 1 -3.15997 -16.7333 -3.31921 11
640 1 -7.4664 -16.3282 10.9075 9
641 1 13.7339 8.32152 9.45423 19
642 1 4.61635 -10.0022 -11.9776 15
643 1 -9.73043 6.27246 -3.1829 18
644 1 8.03091 4.71091 4.77354 21
645 1 -10.1822 -6.2503 7.07786 22
646 1 8.3358 6.97369 -13.6046 13
647 1 -1.49928 -16.4239 -6.16539 14
648 1 -1.35516 -17.3303 1.77034 15
649 1 -1.90679 -14.0838 -4.07992 20
650 1 3.7505 3.15872 -8.56927 20
651 1 10.0329 15.8111 0.0335751 12
652 1 -3.9097 0.654214 -13.1771 18
653 1 -0.209899 0.372662 12.7482 20
654 1 1.56293 6.92419 -13.9404 20
655 1 -12.1324 1.69785 -13.0768 12
656 1 -10.4175 -3.80884 -6.14219 22
657 1 3.01896 17.1427 -3.66148 13
658 1 -3.05003 -5.74086 -16.3592 13
659 1 10.8362 7.14585 -6.23973 17
660 1 13.5846 -7.7846 -0.348089 9
661 1 -5.40817 4.62478 10.249 23
662 1 6.96369 -9.70747 5.26061 18
663 1 16.845 -2.28679 1.4097 12
664 1 14.1633 -2.74886 10.0289 12
665 1 1.9798 8.09599 8.0245 20
666 1 -13.043 3.42601 13.5884 12
667 1 -8.919 4.43175 9.58698 18
668 1 -1.95905 -14.5799 10.3844 11
669 1 7.26415 7.82176 14.8932 20
670 1 -13.2836 -2.89094 -0.311641 13
671 1 8.33561 -6.19979 -1.62483 18
672 1 -11.7856 13.3433 -3.59144 11
673 1 -0.180009 -16.0258 4.90866 15
674 1 6.19306 -0.856406 14.9357 14
675 1 -0.0388909 13.5746 4.37273 20
676 1 0.00980969 -11.2916 7.09716 20
677 1 4.20982 1.14389 13.1673 18
678 1 -14.2917 -5.74355 -5.9396 12
679 1 3.92117 9.31647 18.5108 15
680 1 5.6025 13.5304 0.791865 21
681 1 -11.159 -13.6881 4.20388 17
682 1 -4.94021 -15.8097 9.506 15
683 1 6.77529 -3.06292 10.1144 19
684 1 12.9879 -2.69987 7.04857 17
685 1 7.40618 7.28752 8.61289 20
686 1 -0.379866 -5.75024 -8.77752 23
687 1 -4.44004 2.95179 -11.0903 19
688 1 -3.60348 -0.063222 12.469 17
689 1 -3.00542 16.3328 5.72241 11
690 1 13.1589 3.77585 5.9243 21
691 1 5.0882 11.4143 -5.17307 18
692 1 -2.51585 8.47266 13.0971 21
693 1 8.36264 4.91275 9.62101 20
694 1 9.45532 -4.02859 -12.5184 17
695 1 -7.91031 -12.4378 -2.02668 19
696 1 16.1321 3.07902 4.99379 15
697 1 2.90727 -4.28997 -11.2283 19
698 1 1.76123 7.94689 15.8984 17
699 1 6.731 -13.3263 -6.80402 16
700 1 4.26581 1.93872 -13.8548 21
701 1 14.6315 4.57012 -9.14249 6
702 1 17.3962 3.15518 1.74574 12
703 1 1.50177 -3.52297 13.5686 13
704 1 -0.988448 -9.64783 -11.7925 20
705 1 6.9286 10.3888 1.34013 23
706 1 -12.1136 5.16116 3.73617 20
707 1 11.0428 2.44296 -3.09867 22
708 1 16.1094 9.28472 4.26329 12
709 1 0.716286 -5.25593 -16.2171 20
710 1 -8.87143 13.1669 8.25682 12
711 1 16.4265 10.4887 8.15131 7
712 1 12.5333 10.1012 -6.66553 11
713 1 2.01164 -0.399635 -13.7562 21
714 1 10.2261 -3.50839 4.8266 21
715 1 -10.0973 1.94558 -0.523255 18
716 1 10.1662 7.99953 3.23079 19
717 1 -11.6434 -6.46827 -0.981909 16
718 1 -9.18358 8.9448 -9.17833 14
719 1 6.48972 1.61154 9.91711 21
720 1 -10.7778 -0.645455 -8.26763 22
721 1 -10.3815 5.19421 6.32489 20
722 1 10.9683 -5.4402 -7.70961 18
723 1 -9.20663 -9.79868 -5.90184 19
724 1 8.1062 -8.08003 0.437283 18
725 1 -14.9806 3.22585 1.79462 13
726 1 12.1974 7.43045 6.42674 20
727 1 -4.83758 -8.44252 6.40928 20
728 1 10.8932 1.01572 16.4386 15
729 1 16.0634 0.237177 7.96305 11
730 1 -10.3298 5.97863 2.01251 17
731 1 2.35752 9.73781 11.02 17
732 1 3.92542 8.80846 -9.35522 19
733 1 -0.499275 -7.85789 -17.4388 13
734 1 -5.40085 15.3598 7.50143 13
735 1 -13.6789 -12.1296 7.80327 13
736 1 7.86073 10.3681 -7.2034 19
737 1 3.7222 7.28072 13.3797 18
738 1 15.9379 -0.218892 -2.75209 13
739 1 5.45287 -6.2767 10.1599 17
740 1 0.0619887 13.8024 -11.6325 11
741 1 5.09507 11.1987 -8.13008 21
742 1 -6.65447 -3.92216 9.91815 22
743 1 17.0479 6.09203 5.90777 13
744 1 -2.6242 -6.80129 -11.3658 20
745 1 11.9267 13.174 0.10137 13
746 1 -14.5127 2.68643 -1.72717 15
747 1 -6.31279 -12.1547 6.98869 15
748 1 5.51395 14.5763 -9.07731 13
749 1 4.66018 -0.743034 10.1081 22
750 1 -1.4319 -12.1593 -1.5176 16
751 1 -5.73639 14.8658 2.20151 18
752 1 -15.1701 5.03992 -4.33452 11
753 1 9.03478 0.916521 -8.89193 21
754 1 -0.946123 -11.7508 -14.9908 14
755 1 -10.3161 7.71955 4.35219 19
756 1 15.36 9.23583 -4.50489 11
757 1 6.19126 -4.28624 -17.225 10
758 1 -6.47553 -11.9248 -8.12461 17
759 1 0.0664749 -11.566 -4.2498 20
760 1 -3.32091 11.4341 11.8131 18
761 1 5.48383 -13.9125 -3.79472 16
762 1 -0.739067 10.0956 -13.0642 13
763 1 16.6058 2.58257 -1.62031 12
764 1 6.41128 7.78729 4.02847 20
765 1 0.642698 -19.4549 -0.428647 8
766 1 2.83773 -2.98937 -18.5038 9
767 1 13.5473 2.13397 -0.401783 17
768 1 -1.03514 1.09703 -14.492 22
769 1 -1.51041 -8.41898 7.52133 21
770 1 4.37814 8.85309 -3.22962 22
771 1 -11.486 3.64196 -2.91898 16
772 1 -13.399 4.24163 8.55418 15
773 1 -0.169283 9.37842 19.7801 7
774 1 -9.37336 -10.0262 9.70658 16
775 1 3.59893 10.8637 7.53389 19
776 1 -1.56951 -12.3535 4.60115 19
777 1 2.55407 12.2524 -3.31747 21
778 1 -3.99946 7.42288 10.3509 24
779 1 -7.9091 0.953871 14.218 12
780 1 -10.1396 9.7143 8.89776 10
781 1 -5.42027 -6.67339 12.7203 18
782 1 3.90016 -9.48263 4.4532 22
783 1 8.95316 1.95311 10.6755 20
784 1 10.068 -5.11133 -3.58525 20
785 1 3.53844 -13.7676 -12.238 12
786 1 -7.27583 2.07868 -13.1712 19
787 1 -2.37742 3.42038 -18.4333 7
788 1 5.1821 15.4149 10.3551 10
789 1 -12.539 -4.22559 11.7921 14
790 1 -7.28846 7.84505 -6.02524 19
791 1 -13.5869 2.65853 -6.73745 14
792 1 10.3777 11.4667 2.18201 18
793 1 -6.31625 -17.6751 7.41786 7
794 1 15.2289 8.07486 6.81343 18
795 1 -10.0583 -11.2731 -3.79242 17
796 1 2.89805 16.6639 7.95123 12
797 1 -7.21142 -1.07623 16.1103 11
798 1 -0.180881 -16.7613 -8.99241 12
799 1 12.2593 3.62307 10.9545 18
800 1 1.46066 -17.4154 2.5635 14
801 1 6.28105 9.48779 20.3891 7
802 1 11.4905 -0.375468 -10.9143 13
803 1 6.15274 -9.91041 -1.30149 21
804 1 -1.83652 -0.845811 -11.4303 21
805 1 -10.1106 4.27499 -12.695 15
806 1 -7.4076 5.53386 -15.6779 8
807 1 -2.70287 5.76774 13.3957 19
808 1 11.0975 -3.32386 9.07005 18
809 1 -11.6405 -9.21771 7.90743 17
810 1 16.3328 0.332054 2.44038 15
811 1 0.235028 5.07026 -11.3522 25
812 1 13.8444 10.7002 1.51243 11
813 1 -0.217664 15.3713 9.09753 12
814 1 -14.9522 -6.34044 4.15454 13
815 1 4.81557 -15.3775 -7.23951 17
816 2 -11.2072 -5.01836 -7.37989 17
817 2 -6.37983 7.30843 -4.16852 22
818 2 3.16458 -2.58799 -12.1515 18
819 2 -3.92189 6.97276 12.3599 23
820 2 7.27535 -13.3411 -9.95787 13
821 2 -6.83035 -7.66024 -8.97832 18
822 2 4.42223 0.445188 15.004 16
823 2 7.70638 -0.0325421 16.3739 13
824 2 -13.3528 -11.8652 0.802586 11
825 2 -13.3934 6.33537 -7.44362 15
826 2 3.09919 11.3677 3.44969 21
827 2 -10.1211 -0.194546 3.95081 22
828 2 4.14781 16.9514 -5.42605 12
829 2 9.66828 5.75627 4.78314 21
830 2 -2.93088 16.4338 -6.01467 13
831 2 11.2956 11.2998 -7.57338 12
832 2 -13.9785 -1.35447 -12.3612 10
833 2 -9.92956 -10.6927 -7.46836 17
834 2 3.10648 2.59287 13.651 17
835 2 9.12348 -2.84392 -11.09 19
836 2 -0.646398 -15.7202 1.01262 17
837 2 -8.40496 8.98228 -1.19389 20
838 2 -12.2451 -0.679557 -3.61787 16
839 2 10.6036 2.6027 10.1346 16
840 2 10.1065 -11.7718 -4.95743 9
841 2 -11.1421 -13.979 2.18101 12
842 2 -11.9047 -3.17048 9.76898 17
843 2 -3.52486 -10.9171 3.90563 22
844 2 12.2946 -4.69024 6.46459 13
845 2 0.186134 -16.7874 -6.94408 15
846 2 5.20871 -2.16863 15.8604 11
847 2 0.625298 11.0442 -9.37876 21
848 2 -0.386117 -17.4438 3.57706 14
849 2 -9.70933 -12.8657 -2.66728 14
850 2 3.14262 3.22028 16.584 20
851 2 -11.1451 10.7117 -2.4161 18
852 2 -1.07062 5.23849 17.8625 16
853 2 -7.46296 5.8511 -6.42752 21
854 2 8.19703 -10.4883 -3.32394 15
855 2 -3.97503 5.76665 9.60414 22
856 2 1.71672 13.788 -10.7701 13
857 2 11.5916 11.1419 9.55037 13
858 2 6.90737 17.2534 3.49813 12
859 2 7.99248 -2.63048 -6.99606 19
860 2 -2.86025 9.51667 11.6688 19
861 2 2.77135 3.15561 -12.9418 22
862 2 -3.90969 10.7608 -11.8747 12
863 2 13.0566 10.4646 -2.06541 15
864 2 -5.86947 -2.58672 16.3026 10
865 2 -13.5496 7.67818 1.40777 17
866 2 8.58376 0.218743 -12.3183 18
867 2 -7.42025 -6.34 11.8177 19
868 2 3.70895 -9.79459 -9.9374 19
869 2 -3.13856 -3.98566 -17.6425 13
870 2 -15.4501 -7.035 2.55117 9
871 2 10.3236 9.86588 3.49382 17
872 2 -5.0623 9.02246 4.31671 21
873 2 -3.15633 -11.3102 -7.16249 19
874 2 -4.67161 15.1231 9.58507 14