ITEM: TIMESTEP
4000
ITEM: NUMBER OF ATOMS
500
ITEM: BOX BOUNDS pp pp pp
-30.0 30.0
-30.0 30.0
-30.0 30.0
ITEM: ATOMS id type x y z Coordination
1 1 -4.70043 2.22302 -5.49838 19
2 1 4.19126 -0.677019 5.40075 20
3 1 -2.16698 5.72424 7.24248 19
4 1 7.93044 -2.80194 2.72814 20
5 1 -9.36646 -1.83651 2.26921 16
6 1 -4.05898 -2.27288 -8.24394 16
7 1 0.230154 0.96696 7.7653 22
8 1 1.81552 -4.70362 -4.91141 22
9 1 -9.18555 -0.328486 -0.769802 17
10 1 0.367957 0.054279 -7.52529 15
11 1 2.07383 -5.84693 -2.496 23
12 1 5.80945 -0.198004 2.63695 19
13 1 0.524521 4.20783 -5.42446 21
14 1 0.472825 4.81465 4.94792 17
15 1 1.68572 7.43575 7.16978 14
16 1 -10.3407 -5.58019 -0.0911599 10
17 1 -11.7678 -2.36809 -0.409894 12
18 1 7.30658 -1.39803 0.224426 20
19 1 2.63781 -0.184721 10.6983 9
20 1 -7.57314 -6.02783 0.217622 15
21 1 -4.30583 -4.32339 -5.5894 22
22 1 4.45666 -0.81746 -5.67893 18
23 1 4.68477 -6.21709 -4.1416 18
24 1 7.82575 -5.32779 4.98633 16
25 1 -6.81652 6.10186 6.89589 13
26 1 3.22607 2.01597 8.30324 16
27 1 -0.635576 7.81104 -0.870598 20
28 1 -2.59317 -5.15119 -8.6105 12
29 1 -0.704306 5.88522 9.98051 12
30 1 6.03201 -5.84403 1.79707 24
31 1 -4.84699 8.87245 1.89836 12
32 1 -3.48127 6.16836 2.46458 18
33 1 0.375092 6.37629 -7.59337 18
34 1 6.16041 9.24395 -0.709137 9
35 1 -1.08103 10.9602 -6.36287 11
36 1 -6.99395 4.73911 -8.00586 10
37 1 -1.64331 10.336 0.559911 12
38 1 -0.631967 6.11933 -2.95844 20
39 1 -8.87847 5.30131 0.426201 14
40 1 -1.15828 8.72546 7.52089 10
41 1 -4.12186 3.76213 -8.01411 16
42 1 -6.23575 -6.70357 4.3035 10
43 1 -5.99923 -2.55569 -3.04856 20
44 1 3.23159 -8.89993 -3.31815 15
45 1 -6.89185 -0.00472613 2.67892 22
46 1 -7.03768 0.167125 -2.90743 22
47 1 -0.105028 -10.4164 1.103 15
48 1 6.06062 1.90963 -5.94487 10
49 1 -7.72068 -4.60384 -5.62221 15
50 1 3.20729 4.01116 -6.65659 14
51 1 0.535246 -6.70364 0.201703 21
52 1 1.10684 11.6263 -1.00058 13
53 1 -10.5577 1.32461 3.22247 13
54 1 1.79337 10.3586 6.67643 12
55 1 2.16224 -1.61652 8.10244 22
56 1 0.880414 -7.83705 -4.90844 18
57 1 7.50143 -1.64574 -5.66594 10
58 1 1.8183 -8.23199 3.03298 20
59 1 2.00048 -11.1648 3.73986 10
60 1 5.34566 -0.661437 8.18048 13
61 1 2.80333 -3.43905 5.187 19
62 1 3.66943 7.42249 -0.398698 19
63 1 -5.74154 -7.99948 1.27475 15
64 1 -4.15108 -9.71451 -0.574469 16
65 1 -2.80551 -7.06746 -0.136767 19
66 1 2.58727 5.73629 -3.44903 20
67 1 2.63811 -5.50666 1.67682 20
68 1 -3.32335 -2.86345 6.49866 15
69 1 -11.0983 -1.19625 4.92231 13
70 1 5.18418 -8.78339 1.87917 15
71 1 -2.71853 -8.4505 2.55657 13
72 1 -1.80644 3.12384 9.18852 20
73 1 -11.9936 -3.19958 1.98395 10
74 1 -1.85689 8.94014 2.94404 13
75 1 -6.93348 6.02053 3.10015 17
76 1 -7.41688 3.09099 8.87193 11
77 1 -8.82884 -2.11108 -4.68543 18
78 1 -7.98445 0.828347 -5.41704 22
79 1 -7.48416 -2.07157 -7.66943 14
80 1 7.46518 -0.432121 5.57905 19
81 1 0.232613 -2.93456 10.6478 9
82 1 -5.83134 1.01601 -8.31591 14
83 1 -10.8313 -0.00535967 -3.22559 15
84 1 -6.71354 -8.00332 -2.05218 14
85 1 -7.98425 3.35658 5.53434 17
86 1 -1.92507 3.43122 5.96448 19
87 1 -4.08183 6.25746 -2.48908 20
88 1 -1.89991 -10.3072 -4.37275 13
89 1 0.663431 7.94116 4.60056 18
90 1 4.38299 2.85239 -3.95209 20
91 1 -10.5799 -0.312171 -6.48058 10
92 1 -8.6758 2.65996 -2.21 17
93 1 -1.97536 -11.7106 -1.68348 11
94 1 5.40515 -6.1122 7.10665 12
95 1 -5.04385 5.77352 -5.2125 16
96 1 -4.88539 -1.30557 9.74067 11
97 1 -8.26331 0.732051 5.62715 17
98 1 -1.70944 -6.8629 -5.80599 16
99 1 -0.893867 -1.91644 7.92562 19
100 1 0.460136 -6.49989 5.24391 16
101 1 3.70612 -3.091 -2.82166 22
102 1 4.52173 4.37934 -1.25205 23
103 1 -5.45344 3.08958 2.54431 23
104 1 0.701117 -1.43825 -5.04792 23
105 1 7.16827 -3.56029 7.18849 13
106 1 -6.58384 -6.98618 -5.08739 10
107 1 -8.41482 -3.6568 4.50757 14
108 1 5.6632 2.37867 6.45807 13
109 1 7.13433 6.47485 -1.21056 14
110 1 -1.01981 3.35507 -8.16798 16
111 1 -1.68671 8.80488 -9.1208 9
112 1 3.91914 11.3457 -2.17671 12
113 1 5.48918 6.10891 -4.21148 15
114 1 4.79856 -9.63248 5.47497 10
115 1 8.02803 -7.56344 -0.157791 14
116 1 2.49258 -9.34445 0.414782 17
117 1 -8.90524 3.96431 -4.84655 12
118 1 9.22564 1.29274 -0.908361 13
119 1 -2.28244 5.14517 -5.61193 22
120 1 -3.25971 8.46084 -4.89886 14
121 1 -1.37302 -5.57551 -2.72456 26
122 1 3.82451 -6.83069 -0.347933 21
123 1 -6.22831 -3.78364 7.28096 12
124 1 0.716665 -10.7596 -1.61689 10
125 1 0.499977 -4.58332 -7.71649 14
126 1 2.47953 6.35057 2.62499 16
127 1 7.53874 -8.30376 3.18254 11
128 1 9.11765 -1.54559 -2.49049 10
129 1 -2.44464 -1.64838 -5.4816 21
130 1 0.747746 2.70927 10.8316 11
131 1 -4.45339 5.20827 9.08646 14
132 1 4.86608 -4.125 -6.71489 10
133 1 -10.6819 2.52769 -0.259475 10
134 1 1.86967 8.73033 -2.49716 23
135 1 7.91053 0.700793 -4.29101 13
136 1 -2.42857 0.652139 -8.55347 16
137 1 -8.70088 2.88329 2.39565 16
138 1 1.78606 -5.32927 8.39362 11
139 1 7.35908 2.30882 3.42513 20
140 1 -8.73966 2.686 -7.67683 9
141 1 9.83363 -5.27483 2.83389 11
142 1 -0.87024 -8.37599 -2.52975 21
143 1 4.08985 5.40038 7.16009 12
144 1 1.59449 -9.24912 5.93649 12
145 1 5.74462 -3.81206 4.37354 19
146 1 8.56523 5.53829 2.23174 10
147 1 5.03078 -3.66974 -0.32522 22
148 1 5.41152 5.40929 4.17365 14
149 1 -3.73463 -8.10368 -3.31306 19
150 1 4.30978 11.5705 4.63578 9
151 1 -5.62502 3.21548 -2.99714 23
152 1 -4.4586 6.89234 -7.83634 12
153 1 -3.06493 0.267945 7.68112 23
154 1 -7.89165 -3.22178 -0.538941 18
155 1 4.80146 8.3969 5.77908 10
156 1 -4.87617 4.79891 5.20743 20
157 1 -6.76829 1.79006 -0.0962811 21
158 1 4.63394 9.32719 -4.12326 10
159 1 0.855978 4.34163 7.76106 21
160 1 -6.29993 -1.79145 5.52651 17
161 1 -0.918593 -2.35763 -9.11786 13
162 1 -4.73674 1.46284 10.4105 13
163 1 6.08134 -1.61046 -2.73757 21
164 1 4.28486 11.5781 0.933166 14
165 1 4.02324 -6.62998 4.28037 20
166 1 -4.03504 8.12445 5.67712 11
167 1 3.06282 -7.00076 -6.49317 11
168 1 4.35712 -3.57767 8.16642 13
169 1 -1.27173 1.64633 -5.61693 22
170 1 -6.26124 0.882556 7.49527 21
171 1 9.33346 -0.0413492 2.81397 15
172 1 -0.101394 7.97308 -4.8835 21
173 1 7.48728 3.32803 -2.89165 16
174 1 -1.69617 -0.00800255 10.6391 13
175 1 -0.775769 -4.81139 8.06238 11
176 1 -5.57485 4.85689 0.157698 24
177 1 4.40854 9.24041 2.51539 15
178 1 -8.59456 -6.59633 2.97202 9
179 1 10.1921 2.38884 2.02872 10
180 1 -4.76201 -5.52325 -2.38028 20
181 1 10.2978 0.854129 5.36201 9
182 1 6.89341 -8.16987 -3.79567 9
183 1 1.45985 8.77274 1.08382 22
184 1 -11.9797 -2.79588 -4.6094 8
185 1 -1.24049 10.0545 -3.0643 15
186 1 1.16641 9.87066 -7.59506 11
187 1 -5.43239 -1.13469 -5.76781 21
188 1 2.28867 -2.1606 -7.33229 15
189 1 -4.96044 -10.9205 -3.39656 10
190 1 -1.2864 -10.235 4.24206 10
191 1 9.19213 -4.10962 -0.312268 10
192 1 -13.1941 -0.133317 2.20335 8
193 1 -2.31798 6.11151 -9.46758 11
194 1 -9.27615 -4.98037 -3.05898 11
195 1 9.65891 -2.62146 5.42542 11
196 1 -5.86494 -5.13456 -8.14996 11
197 1 -6.78493 7.8314 0.141282 12
198 1 -8.61804 -1.75121 7.51568 11
199 1 5.26365 5.81472 1.2589 16
200 1 7.49703 3.38492 0.63501 18
201 1 -4.2208 -4.25267 4.24079 17
202 1 2.3384 1.37389 -5.74562 20
203 1 2.71462 7.42935 -5.80988 17
204 1 1.76919 10.946 3.44713 14
205 1 1.72179 11.5918 -4.71574 11
206 1 5.93906 1.70767 -1.18477 19
207 1 -4.96325 1.20085 5.01156 24
208 1 6.54779 -5.47562 -1.64402 18
209 1 -1.11822 -4.28303 -5.35202 21
210 1 -4.90225 3.24783 7.42276 23
211 1 -3.78505 8.8793 -1.45345 14
212 1 -2.87896 -7.03551 4.85788 10
213 1 5.34526 -8.85777 -1.57135 16
214 1 -6.0419 -2.99915 1.97319 19
215 1 -7.33438 5.73917 -2.39457 15
216 2 -10.8981 -2.2654 3.36477 14
217 2 6.73163 5.815 2.85093 13
218 2 1.68421 -1.78863 10.4144 11
219 2 -5.81884 -1.10988 -7.75902 15
220 2 -9.93941 1.29052 -1.65569 14
221 2 -2.34756 -8.7239 4.52358 11
222 2 1.64578 2.18676 7.39713 18
223 2 7.66916 -0.950564 2.0195 17
224 2 -6.40316 4.58389 8.3227 15
225 2 -5.20714 7.01615 6.35195 12
226 2 3.70012 -6.68126 -2.56898 23
227 2 -3.82558 1.78466 -7.70033 16
228 2 -2.45515 -5.2032 -6.46683 18
229 2 -1.58612 -10.0658 2.34061 12
230 2 -3.34129 7.83751 3.74567 14
231 2 9.85266 -0.926257 4.47782 11
232 2 3.16714 7.96795 1.75389 18
233 2 0.499904 8.78974 6.20931 12
234 2 3.4976 11.1009 2.71783 11
235 2 1.15442 8.50213 -6.50087 16
236 2 6.29919 -3.13709 -6.01571 12
237 2 -9.38359 1.49089 -6.53341 11
238 2 2.08605 -7.57808 4.92569 16
239 2 -8.87832 0.118829 2.45134 19
240 2 0.131975 -6.10336 -5.1559 20
241 2 -3.67231 -11.1676 -1.76593 11
242 2 3.83526 -1.26657 -3.83928 20
243 2 2.95733 8.61318 6.33225 13
244 2 5.90103 -2.55257 8.05449 14
245 2 -4.53653 -6.11592 4.69767 13
246 2 1.9165 -10.1017 2.16606 16
247 2 -6.74737 -7.36127 2.72308 10
248 2 -5.67798 -9.53373 -2.075 11
249 2 -7.24403 -2.91626 -4.89437 20
250 2 -3.14117 9.51902 1.70562 13
251 2 1.99782 -0.496047 -6.08651 17
252 2 5.62363 7.20181 -0.458242 15
253 2 2.64336 5.82806 -6.96711 13
254 2 -5.46227 5.2123 -3.37599 19
255 2 8.53153 3.43628 2.51432 14
256 2 0.458653 10.5882 0.554777 17
257 2 -6.99231 5.35556 5.12702 15
258 2 0.825307 10.7087 -2.99174 17
259 2 3.35588 10.7125 -4.16198 13
260 2 -3.57158 4.47906 6.72175 20
261 2 2.39752 1.71243 10.2243 12
262 2 4.12533 -2.42399 -6.71828 14
263 2 -0.926005 -10.4935 -2.77149 16
264 2 0.756625 -3.20587 -5.99768 21
265 2 -6.41103 -4.29144 0.415437 19
266 2 6.53649 -6.35911 -3.65846 13
267 2 4.10897 5.11889 2.83328 15
268 2 -2.60969 -1.16938 -8.91806 15
269 2 0.655013 -1.75087 -8.29035 13
270 2 -2.5665 -6.44998 -3.83439 22
271 2 2.03516 -5.8811 -7.69784 11
272 2 7.78005 -1.25086 -3.73508 14
273 2 -9.26944 -6.18434 1.28002 11
274 2 -0.908435 -4.14902 -8.71862 11
275 2 0.912139 4.70828 -3.52185 23
276 2 -3.71395 -9.8084 -4.31275 14
277 2 -0.612017 1.46458 -8.36058 14
278 2 -4.45117 1.56284 6.85318 21
279 2 -6.41541 -7.40519 -0.248418 17
280 2 -6.52534 0.107055 4.74482 22
281 2 -5.07022 5.0132 2.3085 19
282 2 -7.94399 -5.4716 4.3193 12
283 2 -12.7078 -1.43205 1.08854 9
284 2 5.13481 -7.91779 6.33487 12
285 2 6.08147 -0.222554 -1.19025 22
286 2 -4.11075 -2.40102 -6.14924 22
287 2 0.512799 6.27268 3.83048 18
288 2 2.55946 11.4683 5.23397 10
289 2 -0.856496 1.78281 10.7182 11
290 2 -6.82189 2.22714 1.69189 22
291 2 -9.19113 0.10491 -4.19736 19
292 2 7.75777 5.33798 0.263034 12
293 2 -11.5108 -4.08422 0.213642 11
294 2 -4.02016 7.35594 -6.08356 14
295 2 -1.08557 -0.361653 -6.04911 20
296 2 -7.63029 6.40374 -0.655618 14
297 2 3.99087 -4.76225 4.48915 19
298 2 -0.417356 5.92701 -0.938988 23
299 2 2.83428 -8.11307 -5.00228 14
300 2 2.39241 -9.65721 -1.84869 17
301 2 -6.42477 7.61417 2.04356 13
302 2 0.910155 -6.67321 2.39921 17
303 2 5.74703 -8.96988 3.8002 11
304 2 2.18656 5.57013 7.52139 16
305 2 0.751811 11.4188 -6.29054 9
306 2 -1.69919 -3.64617 6.9363 17
307 2 -2.00373 -6.85921 1.46839 19
308 2 -2.20514 -1.03506 6.56069 19
309 2 -0.543304 7.10353 -9.16128 10
310 2 9.31293 0.578585 -2.7718 12
311 2 0.591958 -0.727853 7.16947 20
312 2 -6.34819 -2.15347 -1.31125 20
313 2 5.39062 10.1622 0.829163 11
314 2 4.74178 9.64272 4.30352 12
315 2 8.20412 -5.84845 -0.632223 13
316 2 -8.77648 -5.05315 -1.30922 13
317 2 0.225961 7.30319 8.49162 14
318 2 3.72168 -0.543531 9.13008 13
319 2 1.59707 2.95099 -6.16449 19
320 2 9.34103 -4.14991 4.53916 12
321 2 -0.0930058 4.0579 9.56824 14
322 2 6.61357 -4.70164 3.08689 19
323 2 -11.4114 -1.05383 -4.9258 10
324 2 -5.36606 3.12863 -0.853871 25
325 2 -8.22574 4.27253 -6.54745 10
326 2 -1.19866 -5.83931 4.66629 17
327 2 3.1193 11.8955 -0.506845 12
328 2 -9.05547 -1.44127 -6.96134 15
329 2 9.08468 -3.91666 1.6752 13
330 2 -5.29238 8.72997 -0.140597 11
331 2 6.75051 -7.755 1.45047 15
332 2 -5.0511 -3.37072 5.72568 19
333 2 -8.22778 -6.13392 -4.29291 9
334 2 -0.628587 8.11337 -2.83463 19
335 2 -8.28472 4.92074 2.22882 15
336 2 5.39385 3.99379 0.562635 22
337 2 0.565647 -4.222 9.43977 10
338 2 -10.5174 2.32579 1.51975 13
339 2 -3.8885 7.94686 -3.21582 14
340 2 -2.55375 5.76417 9.2207 13
341 2 -7.04808 2.08152 -3.28089 19
342 2 5.037 9.62766 -2.32869 13
343 2 -6.37094 1.57385 9.29444 12
344 2 -1.35824 1.86498 7.50941 22
345 2 -7.38751 -3.95322 -7.58719 13
346 2 -0.385866 6.30075 -5.90052 20
347 2 -2.79016 -8.35969 -1.58013 24
348 2 -4.12225 4.41201 -6.15998 18
349 2 5.12953 -1.85025 4.04816 20
350 2 -0.585651 4.79964 6.35402 20
351 2 6.87078 5.48382 -2.79998 12
352 2 3.09459 -10.4145 5.16953 10
353 2 6.40037 0.04555 -5.73023 12
354 2 5.07579 6.50623 5.84786 11
355 2 -7.19913 0.133518 -0.912861 20
356 2 -6.79003 -0.999917 7.36494 16
357 2 -10.2335 -3.47809 -4.02625 12
358 2 0.650864 -8.64791 0.204661 22
359 2 -0.885206 8.05987 1.14281 20
360 2 -8.82118 2.00352 4.17621 17
361 2 -7.39428 -2.70529 3.1158 17
362 2 -0.633471 -11.6636 -0.267747 11
363 2 4.29104 3.37751 7.24808 12
364 2 -2.23639 5.03914 -3.65408 23
365 2 -3.14733 7.70194 -8.87118 9
366 2 4.53877 7.46336 -4.98903 12
367 2 -0.985626 -8.54138 -4.81683 13
368 2 5.61665 0.360377 6.35574 18
369 2 6.47248 3.25361 4.91737 14
370 2 -0.987715 10.0325 -7.9814 10
371 2 -6.10306 1.00092 -6.04471 22
372 2 -4.19958 -4.16423 -8.73883 12
373 2 -5.61544 -0.648926 -3.95575 23
374 2 -2.5076 7.56569 6.86612 13
375 2 -1.84436 9.58519 -4.99184 14
376 2 -8.73129 4.50646 -3.14282 11
377 2 -7.80097 2.47768 7.16806 16
378 2 -1.24286 3.44736 -6.13971 20
379 2 3.56466 -5.22328 -5.47216 18
380 2 -9.13943 3.66807 -0.538125 15
381 2 -2.52024 4.24018 -9.02174 14
382 2 2.11447 -5.83862 -0.280764 22
383 2 3.34505 -2.50635 6.79765 19
384 2 -4.94202 -2.69263 8.2733 13
385 2 -4.44295 -3.8039 -3.574 22
386 2 -9.60437 -0.520163 6.05817 15
387 2 6.42821 -4.88932 6.10017 16
388 2 -12.1446 0.0752044 3.88733 11
389 2 -3.5777 0.112922 9.91107 15
390 2 0.465668 -10.5243 4.90448 10
391 2 10.6732 1.37422 3.57729 8
392 2 0.464436 -6.84237 -2.64409 22
393 2 -2.004 9.69085 -1.16551 13
394 2 -6.98071 2.66116 -8.61927 11
395 2 -8.11275 -2.99864 6.2567 13
396 2 3.90824 -5.34252 7.99238 13
397 2 7.83416 2.56397 -1.28626 16
398 2 4.30896 2.64244 -5.88934 12
399 2 8.25479 0.970693 4.57035 17
400 2 -3.96737 5.79757 -0.559598 21
401 2 7.96941 -2.07926 6.19224 15
402 2 2.05942 -3.92618 -3.13718 22
403 2 -3.87484 -5.84692 -0.856736 22
404 2 5.61459 -3.51295 -2.27011 19
405 2 4.43449 -8.89219 0.182507 19
406 2 5.93589 -2.80365 1.04739 22
407 2 5.18768 -5.47497 -0.0397156 25
408 2 -4.03311 3.20582 9.34554 17
409 2 4.17041 4.76926 -3.72436 19
410 2 -11.436 -1.43465 -2.07055 12
411 2 -9.0141 -1.83927 0.337709 21
412 2 8.54857 -6.7343 3.54389 11
413 2 1.7161 7.44451 -3.90116 20
414 2 9.65268 0.800978 0.965922 14
415 2 3.06236 5.79442 -1.17414 20
416 2 0.699999 -5.98269 6.87379 12
417 2 3.74541 -6.85752 2.3028 19
418 2 8.66999 -2.34228 -0.93537 17
419 2 5.10668 -9.01675 -3.55352 10
420 2 -5.80063 -5.48387 -5.99595 13
421 2 1.94366 8.77113 -0.739138 16
422 2 -0.0800781 9.57736 3.66663 14
423 2 -4.06363 -9.0501 1.31724 13
424 2 -1.30148 -1.91242 9.8203 15
425 2 -5.82466 3.03363 4.872 22
426 2 5.71571 1.73058 2.61652 18
427 2 6.28438 2.2181 -4.06977 18
428 2 -5.47311 5.39085 -8.28654 11
429 2 -5.55084 -7.04576 -3.35944 16
430 2 7.22038 -8.41669 -1.60368 11
431 1 -3.12641 -2.88464 -2.70778 22
432 2 -0.836988 -5.58572 -0.796815 22
433 2 -2.90418 -2.82475 -0.723481 24
434 2 -2.63514 -1.0662 -3.60021 22
435 2 -1.32118 -3.7237 -3.42492 23
436 1 -5.62243 -0.818059 -0.332529 24
437 1 -4.38204 -4.21306 0.0173429 21
438 1 -2.55069 -0.917703 -0.271464 21
439 1 -1.1483 -3.82657 -0.155411 22
440 1 -0.764868 -5.72037 2.45275 22
441 1 -2.48154 -2.85755 2.28369 19
442 1 -2.18549 -0.982247 4.50906 21
443 1 -0.604216 -3.71277 4.94045 20
444 2 -5.49607 -0.828132 1.63396 23
445 2 -4.25778 -3.86242 2.31035 18
446 2 -2.35238 -2.92174 4.14601 20
447 2 -2.35245 -0.887859 1.69658 22
448 2 -0.770541 -3.61331 1.84243 22
449 1 -4.14201 0.194673 -3.02625 22
450 1 -0.944131 0.129814 -2.84605 24
451 1 -2.32261 3.20832 -2.8964 26
452 2 -4.01281 0.35101 -0.993519 24
453 2 -4.10684 2.02529 -3.61602 19
454 2 -0.903431 0.19044 -0.657629 19
455 2 -2.19194 3.0718 -0.893261 22
456 2 -0.63207 2.00491 -3.70785 21
457 1 -3.69742 2.04807 -0.357974 24
458 1 -3.91576 0.153393 2.24371 19
459 1 -2.23468 4.95803 -0.406435 22
460 1 -0.567519 2.06379 -0.355117 22
461 1 -0.691328 -0.157483 1.90585 21
462 1 -2.17614 3.27579 2.26423 18
463 1 -0.271984 1.79692 3.76123 20
464 1 -0.579835 6.02007 1.99361 20
465 2 -3.40851 0.5198 4.00751 21
466 2 -3.86385 2.09538 1.74244 25
467 2 -0.410095 -0.144472 4.16724 21
468 2 -1.71898 3.00893 4.16605 19
469 2 -2.15294 5.00512 1.61902 20
470 2 -0.312947 2.38477 1.64921 23
471 1 0.358904 -3.22093 -2.72049 24
472 2 0.590419 -2.82913 -0.699483 25
473 2 0.529927 -1.01093 -3.24031 22
474 2 3.44555 -2.63095 -0.953417 23
475 1 1.14095 -0.789636 -0.510687 22
476 1 2.10363 -3.70063 -0.105583 22
477 1 0.749869 -2.63735 2.43183 23
478 1 1.06873 -0.942979 5.00179 20
479 1 4.15466 -0.949829 -0.377528 23
480 1 4.34985 -2.63535 2.43697 24
481 2 1.00661 -2.91258 4.81569 21
482 2 1.22506 -0.871064 1.73605 23
483 2 2.38261 -3.52077 1.96852 23
484 2 4.12455 -0.954152 1.72161 22
485 1 2.48772 -0.142694 -2.97308 23
486 1 1.10824 2.64042 -3.06419 24
487 2 2.94167 0.131711 -1.16429 21
488 2 1.05318 2.74044 -1.13733 22
489 2 2.62007 1.62802 -3.83182 22
490 2 4.38369 2.55124 -1.47087 20
491 1 1.18785 4.82473 -0.606275 20
492 1 2.70342 1.96512 -0.515698 22
493 1 2.7441 0.299719 2.18479 23
494 1 1.40123 3.42264 2.09232 20
495 1 2.41821 2.20545 5.53674 19
496 1 4.47803 3.17357 2.11631 19
497 2 2.59805 0.0457676 4.59862 21
498 2 1.05599 3.05033 4.63437 18
499 2 1.23102 5.28163 1.42289 21
500 2 2.74618 2.19056 1.35701 22
