ITEM: TIMESTEP
65000
ITEM: NUMBER OF ATOMS
2000
ITEM: BOX BOUNDS pp pp pp
-30.0 30.0
-30.0 30.0
-30.0 30.0
ITEM: ATOMS id type x y z Coordination
1 1 -10.9226 6.35389 -2.33114 13
2 1 -7.91395 -15.4939 3.01825 9
3 1 -0.0111934 12.894 21.4524 21
4 1 7.71311 -9.80986 17.0086 13
5 1 -14.2401 8.15536 9.73507 19
6 1 9.97059 -8.72598 0.793353 12
7 1 -14.0923 1.84991 3.38147 22
8 1 -2.75021 -6.37068 21.9364 23
9 1 -8.04849 4.75996 -1.48845 20
10 1 -12.6967 -12.142 14.429 19
11 1 12.314 2.96542 3.29336 15
12 1 -7.32331 -15.3109 14.1185 15
13 1 -16.5633 -10.4061 12.1509 17
14 1 -0.565532 4.37931 -29.7971 17
15 1 -5.54168 14.4561 2.49779 13
16 1 2.42276 -1.01575 25.5751 19
17 1 -10.7134 -1.98939 0.0962532 24
18 1 -13.3806 -3.64579 20.6354 19
19 1 11.6181 1.15062 22.4205 14
20 1 0.535238 12.1535 1.89727 20
21 1 3.14795 3.91733 -1.62851 22
22 1 11.3484 3.82721 20.1768 14
23 1 -16.6184 0.601821 2.10933 14
24 1 -12.7759 11.6243 17.6647 10
25 1 7.39918 -9.21125 20.2741 13
26 1 -0.350721 -13.3485 0.126362 16
27 1 7.50573 -9.98064 13.7307 15
28 1 -10.9768 -15.805 4.80059 9
29 1 -19.605 -8.7345 13.7341 6
30 1 -5.51478 -10.2234 1.46943 23
31 1 4.86345 -10.9829 -1.21561 14
32 1 -5.55287 6.45648 -5.52226 9
33 1 -3.15462 -1.34997 28.8391 12
34 1 -5.5993 -10.194 18.4921 22
35 1 1.95134 -3.55469 23.6639 17
36 1 -12.9662 -1.20878 11.9793 20
37 1 -13.2902 2.20232 19.9023 20
38 1 -5.63538 12.6121 11.787 21
39 1 -5.18347 -13.4474 -0.39665 11
40 1 3.33023 -4.1343 0.252071 23
41 1 -2.59132 -3.64111 23.4544 21
42 1 -13.3876 5.03466 11.4552 21
43 1 7.76321 11.5343 0.0655061 12
44 1 0.215893 12.2781 18.1068 24
45 1 -11.0232 6.86917 5.0334 22
46 1 -2.68888 13.0067 10.1248 20
47 1 2.34974 -12.0582 14.8082 17
48 1 7.38717 -10.623 4.1505 14
49 1 2.64671 -6.3086 -5.08883 14
50 1 -11.0816 7.57197 21.28 16
51 1 -15.1292 -6.18551 0.211835 11
52 1 -8.15121 7.7193 6.6147 20
53 1 -10.9775 -7.5031 16.7977 22
54 1 -4.97836 15.1913 17.609 23
55 1 -17.2575 3.19098 3.87206 12
56 1 -10.4313 10.1587 19.9641 16
57 1 -7.28144 -12.5431 18.2581 18
58 1 5.54789 -15.3296 8.33408 12
59 1 1.51224 13.9844 23.1614 12
60 1 -13.3477 -1.16404 1.75956 21
61 1 -14.0707 7.8969 2.71882 16
62 1 2.75209 7.84113 23.2655 22
63 1 8.53266 -4.30203 0.110543 17
64 1 5.53393 -6.51992 20.5344 23
65 1 -18.7335 -6.42241 11.4235 12
66 1 2.61453 16.6577 14.4139 20
67 1 5.57991 -1.14635 27.9082 13
68 1 -8.45734 -9.18288 16.9049 22
69 1 10.1381 0.931262 18.9379 18
70 1 -2.61106 10.7957 21.7422 20
71 1 -8.39494 -6.61873 5.09959 22
72 1 -11.4859 6.96978 18.2979 19
73 1 -8.17328 13.8157 10.1695 20
74 1 -2.06454 10.3859 1.67056 19
75 1 7.20369 16.1252 7.25368 12
76 1 8.98202 -6.97878 18.6303 18
77 1 -4.09367 15.1024 5.91552 15
78 1 -13.0936 10.3028 11.6947 16
79 1 -9.78156 -1.03073 27.2207 11
80 1 -5.01293 9.72351 16.3931 22
81 1 -8.55135 -3.59017 23.5282 20
82 1 10.7191 -6.77773 2.84389 13
83 1 -10.7108 4.03279 16.5695 22
84 1 -10.6952 -13.2948 12.9856 20
85 1 11.6015 -4.44584 5.48261 16
86 1 2.90704 -1.72371 -5.10406 14
87 1 -8.78171 1.73276 -3.25113 17
88 1 -2.91167 13.4055 13.2491 23
89 1 -8.17658 7.54061 3.26713 20
90 1 -0.80804 9.25899 27.8249 12
91 1 -2.81702 12.6592 6.5468 20
92 1 -15.0669 11.3939 8.95995 9
93 1 -8.37259 -6.49656 21.7436 24
94 1 10.2391 -4.33324 23.0511 13
95 1 2.13846 -7.15308 1.79687 22
96 1 1.33546 -1.09047 -27.9145 5
97 1 -10.3055 -7.50781 10.1362 22
98 1 -10.6018 -10.4616 8.18132 21
99 1 4.5845 -9.37891 15.7008 21
100 1 5.17938 0.775389 -1.3253 21
101 1 1.1804 17.7504 8.09586 15
102 1 -11.1634 -10.3738 22.1179 14
103 1 -13.5377 -9.36044 20.0985 18
104 1 1.94657 -9.19917 -3.31344 11
105 1 7.71992 -7.27618 8.47998 23
106 1 -5.4429 -13.3817 16.4832 17
107 1 -10.7891 -10.5613 11.7716 22
108 1 13.2881 6.83417 17.8665 13
109 1 10.858 0.568407 1.74663 14
110 1 -13.1485 -6.35588 11.6571 20
111 1 7.99937 6.4652 16.4108 22
112 1 8.95341 8.84818 18.564 21
113 1 -8.60793 2.38597 23.4969 22
114 1 -10.8867 9.7306 23.4477 10
115 1 -5.57593 12.6192 4.87399 19
116 1 -2.48331 -3.68149 -0.199864 22
117 1 4.80576 -8.30268 -2.87832 16
118 1 -3.28802 13.5361 0.32442 10
119 1 4.88588 -1.73357 24.1871 19
120 1 -5.56905 2.17297 -5.43623 15
121 1 -4.67214 9.64807 3.36336 17
122 1 8.37427 -2.18914 5.20981 21
123 1 -12.9725 10.8508 4.39113 13
124 1 -4.52726 15.303 10.2914 19
125 1 5.90082 3.65344 3.28903 22
126 1 5.45491 -7.12284 13.7088 22
127 1 -7.3643 13.6685 23.3812 12
128 1 13.9166 7.38208 6.6814 10
129 1 6.10635 11.635 4.82147 18
130 1 -7.48224 16.7176 18.869 9
131 1 8.58029 11.644 13.7276 19
132 1 -5.07048 9.68824 6.83717 22
133 1 0.801477 14.8669 3.25672 15
134 1 2.8354 9.04469 -2.27458 14
135 1 -13.6417 -6.42275 15.063 22
136 1 -15.9623 6.33069 5.20663 12
137 1 -7.90156 -4.07972 -0.0160298 24
138 1 -2.29462 -8.96574 -3.50439 13
139 1 3.27576 16.2622 17.7756 18
140 1 -2.61606 13.7421 19.687 24
141 1 -16.293 -5.7139 3.19692 13
142 1 -16.7233 9.73508 6.50138 7
143 1 11.4224 -2.2405 10.8159 19
144 1 -14.294 1.56332 -0.0689846 17
145 1 0.769857 2.36868 -28.4757 13
146 1 2.6343 19.0301 17.2689 12
147 1 -5.12579 9.6892 20.0959 23
148 1 -0.0979162 -3.92599 -5.29255 16
149 1 -4.10312 18.0776 18.7407 14
150 1 -2.49472 13.0642 3.47292 20
151 1 -0.366583 -7.43549 23.744 15
152 1 -11.2362 -4.54325 15.3426 22
153 1 -3.09852 -11.5585 -1.42213 16
154 1 -11.0003 12.7252 4.77172 14
155 1 -5.75223 -10.2956 15.1489 23
156 1 -2.83707 -14.7462 10.2989 19
157 1 -7.99769 7.50239 -3.44058 13
158 1 -16.0882 1.00396 18.4122 13
159 1 5.52379 11.9405 11.5314 19
160 1 -10.9425 6.84885 24.8804 12
161 1 -3.00565 -9.34947 23.3824 15
162 1 0.854871 15.0373 16.1912 25
163 1 -3.10316 7.60549 20.1984 19
164 1 10.2791 7.26521 25.8111 13
165 1 -10.5792 12.8152 15.1476 17
166 1 8.77142 -4.46239 3.43939 21
167 1 -4.95948 15.639 20.6437 17
168 1 4.96791 -7.4818 10.1794 23
169 1 -16.198 -1.96013 7.33247 18
170 1 -7.99418 -12.6332 11.9555 22
171 1 7.37474 5.89405 24.0645 23
172 1 -15.5947 -4.80975 8.85683 21
173 1 -5.41824 -13.3281 9.94794 20
174 1 -2.13425 10.6753 14.9352 22
175 1 -1.50043 16.21 22.1 15
176 1 -8.28889 13.3368 3.0416 17
177 1 -16.6427 -8.04625 5.70272 12
178 1 -14.0947 1.81205 26.1554 10
179 1 -0.20457 -10.2807 15.2568 20
180 1 5.32082 -10.8668 18.7351 15
181 1 -13.1862 10.8692 14.6967 13
182 1 10.311 -1.32796 21.0554 18
183 1 -7.92008 -6.6856 -2.18543 19
184 1 2.55812 2.52638 23.8012 20
185 1 4.68546 -10.5308 22.2077 10
186 1 -5.1196 3.74972 -0.001053 22
187 1 -2.99046 -9.06464 -0.0161431 25
188 1 7.73612 0.34638 -3.03311 11
189 1 1.14098 6.25513 -2.56837 16
190 1 -10.8033 -4.75587 1.73918 20
191 1 -6.96948 15.9343 4.97595 14
192 1 -13.8842 -6.70848 21.7426 19
193 1 3.80539 18.7521 9.11601 13
194 1 -9.00643 4.96938 28.2896 10
195 1 -8.01653 13.3146 6.68347 23
196 1 4.72833 1.06849 22.2824 20
197 1 -5.80234 -7.63078 -0.203266 23
198 1 -4.651 11.8359 -2.40313 10
199 1 -0.341036 6.93331 1.70035 20
200 1 -11.0076 -10.2855 18.4393 19
201 1 -8.32467 8.16559 20.0252 21
202 1 -7.87199 10.9722 22.191 18
203 1 -3.05474 -9.39753 3.15962 26
204 1 -9.12603 -15.8531 11.358 14
205 1 7.14581 -10.139 10.534 19
206 1 7.83686 8.97706 24.7554 18
207 1 2.68419 7.25217 3.2592 22
208 1 -12.8978 9.90182 7.8697 20
209 1 -3.11751 5.18697 21.8009 20
210 1 6.56101 -12.8977 13.1352 13
211 1 10.378 1.41354 5.10801 22
212 1 -13.8325 5.18478 14.8051 24
213 1 -13.5541 -6.86609 8.37544 21
214 1 5.94715 3.50673 0.0186351 23
215 1 -0.523193 -1.70802 24.0765 19
216 1 5.9308 11.7893 8.03018 19
217 1 -5.12931 -2.03844 -0.450123 23
218 1 2.67623 -15.1795 13.0735 18
219 1 5.25276 0.930049 1.87156 20
220 1 -13.5723 -0.545119 15.1634 22
221 1 0.298361 -15.3595 4.91968 16
222 1 -10.3972 -4.67248 5.14872 23
223 1 4.2563 15.4173 8.89778 22
224 1 -2.44543 -0.800967 -1.80835 21
225 1 3.7791 6.60638 28.313 18
226 1 12.9053 1.76619 13.2605 10
227 1 7.0045 -6.30439 -3.30821 13
228 1 -8.07363 -1.2864 1.40938 21
229 1 -11.0082 3.56564 0.17629 20
230 1 -10.4762 -13.4247 19.0135 10
231 1 7.45403 -4.09947 24.5351 11
232 1 -8.04264 -9.33168 -3.93569 10
233 1 -0.0695634 9.42566 -0.18613 17
234 1 0.0492877 12.1754 11.636 20
235 1 -10.7204 1.19732 25.4044 22
236 1 -11.9576 -9.86957 2.88821 17
237 1 -8.14785 -6.5412 1.55842 22
238 1 -5.20136 9.28541 -3.89372 13
239 1 -7.87487 -9.4653 6.4713 23
240 1 5.1084 -7.47542 -0.240918 24
241 1 7.92635 1.86582 0.219235 18
242 1 8.65905 3.16237 11.8564 23
243 1 -11.0452 -4.99366 21.9882 23
244 1 -5.70974 -10.6943 11.5035 22
245 1 8.26556 2.46254 24.0855 21
246 1 -13.4321 -12.0935 17.9248 15
247 1 -2.88388 -11.9175 11.6828 25
248 1 -4.19842 17.7393 12.8839 13
249 1 0.238332 -1.70341 -3.30731 22
250 1 -7.835 -0.96792 -1.75578 20
251 1 -15.824 -4.6024 18.9898 13
252 1 -2.4789 7.94491 23.5653 20
253 1 -0.216919 -13.0559 9.98192 22
254 1 -8.18124 -12.3941 1.25625 16
255 1 -13.8026 4.8657 1.77401 17
256 1 8.62631 3.37366 15.2363 25
257 1 -8.18992 4.68127 1.62215 23
258 1 2.71414 7.06324 0.123611 22
259 1 3.59605 -14.712 3.11943 11
260 1 -10.497 12.6404 11.6019 15
261 1 0.359839 9.6684 16.703 22
262 1 7.64003 1.19539 16.8808 21
263 1 -11.0485 1.10496 18.5949 23
264 1 -5.83571 -4.58546 25.2894 16
265 1 -10.6194 9.90281 13.0183 20
266 1 0.0698719 -4.40921 -1.73794 23
267 1 10.5864 11.8039 8.2241 12
268 1 2.45654 -12.2329 11.4628 20
269 1 -6.26366 -1.80126 27.2354 14
270 1 -16.0925 -1.67817 13.7439 16
271 1 -0.0315144 -15.8219 8.39258 17
272 1 -8.84128 5.15054 25.1343 22
273 1 -11.1689 4.14126 23.2349 18
274 1 -13.6651 -3.536 17.0157 25
275 1 -13.8848 -9.35817 16.5165 25
276 1 11.34 -4.00311 8.2244 19
277 1 -13.4202 -6.53534 18.4662 20
278 1 5.73463 -2.06004 3.65901 23
279 1 7.22403 -13.1161 8.72909 12
280 1 1.88898 17.39 5.01745 12
281 1 -7.07155 15.9062 7.97912 14
282 1 10.5653 11.0896 20.2114 14
283 1 2.98247 -12.1867 7.96472 20
284 1 -8.03478 10.6915 14.8612 22
285 1 2.74159 -9.20518 20.2887 20
286 1 8.20713 -6.93102 15.3821 17
287 1 0.505739 1.54897 28.3814 18
288 1 -2.27664 13.4387 16.6877 23
289 1 5.43293 9.82871 26.798 13
290 1 -10.2132 15.1593 5.83057 12
291 1 -2.81138 -5.89346 -4.93913 16
292 1 2.36914 -12.4668 1.26049 20
293 1 -15.2714 2.00481 21.8423 14
294 1 -15.945 4.28485 9.89828 17
295 1 -7.8232 10.7264 11.7074 23
296 1 4.90088 -1.53421 20.8419 21
297 1 -13.3083 -12.4677 11.2608 17
298 1 2.18266 -6.47209 18.6936 25
299 1 -14.4931 -9.50775 23.0453 8
300 1 -16.651 7.23588 8.2246 13
301 1 -0.250828 -10.3056 4.89897 26
302 1 -7.85177 -3.97797 3.17677 22
303 1 5.58552 -1.77847 -3.38005 15
304 1 2.95783 12.88 16.6466 21
305 1 -13.2246 -0.818874 8.51299 24
306 1 0.956861 -15.4722 1.81833 11
307 1 5.23603 3.12224 -3.24225 12
308 1 -6.46087 -15.8474 5.76361 12
309 1 -13.47 -9.51928 6.25286 21
310 1 5.97822 4.23412 29.5434 14
311 1 7.80597 0.325646 7.0302 24
312 1 -8.75873 7.62698 0.138322 20
313 1 1.81854 19.6529 13.9941 13
314 1 -16.3044 -2.22694 4.20166 16
315 1 -13.8921 8.25557 16.4223 17
316 1 -10.3896 10.1471 9.76832 19
317 1 -10.862 9.55175 16.6646 22
318 1 10.6118 4.06384 24.2136 15
319 1 11.8099 -3.55304 2.84475 11
320 1 10.3435 1.36788 25.6541 13
321 1 7.98576 0.570122 3.50133 22
322 1 -5.55346 -16.1636 11.8964 13
323 1 2.47108 -9.37552 10.155 21
324 1 7.61023 -1.58207 19.0746 24
325 1 -10.732 -7.72457 6.89968 22
326 1 -8.14672 -9.48226 13.434 21
327 1 -10.9993 -4.78683 25.2924 16
328 1 -5.23887 17.7626 15.9156 14
329 1 -16.2259 -9.39718 8.41736 17
330 1 3.67277 12.1345 25.3808 8
331 1 -11.1102 7.16777 8.12627 22
332 1 0.277552 12.2077 5.04506 22
333 1 2.92647 10.2824 18.5599 21
334 1 -15.8963 -11.5597 6.70922 11
335 1 -5.86893 -7.46963 3.21327 24
336 1 -15.8431 1.20956 11.8216 17
337 1 -13.742 7.75237 6.27477 19
338 1 2.32678 -9.57557 17.099 20
339 1 -7.84024 -12.1387 8.25126 20
340 1 5.78242 15.1055 18.8767 16
341 1 4.99918 6.33061 -1.48306 16
342 1 -16.1306 3.46327 0.488994 12
343 1 -1.46557 15.5883 4.88214 14
344 1 -13.2822 4.99088 4.93119 19
345 1 -3.07387 -12.0749 14.8074 23
346 1 8.66001 3.96421 18.5206 21
347 1 4.70002 11.809 -1.33708 14
348 1 -17.1075 -4.80815 5.90208 14
349 1 -8.35024 -12.4207 15.1175 23
350 1 2.47844 -9.63521 -0.161235 24
351 1 -13.4247 -0.915242 18.7929 22
352 1 -16.2631 1.21066 15.1487 16
353 1 -16.8316 6.79073 14.7801 12
354 1 -11.5089 1.42789 -1.59675 16
355 1 4.91013 -10.239 8.63134 22
356 1 -3.07883 -11.9841 1.61603 22
357 1 -5.80504 -4.68998 21.8072 24
358 1 -8.56077 4.92206 -4.69884 11
359 1 1.18208 -15.1435 18.1641 11
360 1 3.39137 9.97933 4.95797 23
361 1 -15.5582 6.8864 17.8633 12
362 1 -7.96116 -0.654705 25.0524 19
363 1 -13.3773 -8.98043 -0.0608129 14
364 1 -11.1938 -7.81581 23.4573 20
365 1 4.5034 -4.3228 22.5391 19
366 1 5.23279 -6.93621 17.2713 23
367 1 9.47187 8.60375 11.5453 23
368 1 -5.98172 4.16428 23.353 21
369 1 0.119588 12.3103 8.32321 21
370 1 -5.16045 -13.034 6.5958 19
371 1 -5.65069 6.79099 28.5755 14
372 1 -2.31315 19.0491 16.3844 14
373 1 -10.5102 -10.5917 4.91772 20
374 1 6.33447 17.5453 9.67053 13
375 1 2.20805 7.61325 20.2353 20
376 1 -8.38661 2.27135 19.9612 22
377 1 -15.6859 -0.109558 23.9257 10
378 1 -10.6078 -7.3885 3.28241 19
379 1 -8.6026 8.01105 16.7997 19
380 1 -5.36005 -10.5203 4.82615 22
381 1 -3.15423 -6.4256 -1.55313 24
382 1 -13.7829 -14.7294 13.8863 12
383 1 7.6489 1.28005 20.5841 23
384 1 -8.64617 -6.89347 24.8747 15
385 1 -13.6664 4.51486 -1.66811 11
386 1 8.15661 5.89947 9.95688 21
387 1 -13.3603 -12.2622 8.1233 16
388 1 0.240546 17.706 16.5057 18
389 1 -8.58911 11.1925 25.2352 11
390 1 -15.551 -7.78082 10.8899 20
391 1 -1.5977 16.1468 11.1104 17
392 1 8.35295 13.4692 2.95628 11
393 1 -8.08515 -9.39762 2.95637 21
394 1 -0.693664 -1.38854 27.4942 13
395 1 -2.43275 -15.2927 3.27332 11
396 1 0.484887 -4.54508 1.73874 22
397 1 6.80125 -12.5648 16.2036 13
398 1 -14.0274 7.78369 13.2248 19
399 1 2.18234 4.29636 28.3345 21
400 1 6.37219 8.83522 9.77076 23
401 1 -11.2746 6.76677 1.71055 21
402 1 -17.9089 -6.6453 8.30737 13
403 1 -2.21786 16.0302 18.1906 22
404 1 -5.80467 0.829717 -1.92647 21
405 1 8.37616 6.14587 13.434 24
406 1 5.6272 15.0446 4.53006 17
407 1 13.4115 -0.235195 10.1235 13
408 1 -0.331935 1.0679 -1.62374 19
409 1 -3.35564 -12.228 18.208 19
410 1 2.65998 -9.52646 24.129 9
411 1 -10.9153 3.78994 3.25672 19
412 1 -16.4676 -13.2826 13.2733 10
413 1 -7.27316 -12.2145 -1.99363 9
414 1 5.80543 18.1309 17.0465 9
415 1 0.547555 3.94435 -0.0351515 22
416 1 2.46011 -1.29235 28.9215 13
417 1 -16.3291 -1.56919 20.6796 13
418 1 -0.23783 -16.1749 14.8812 14
419 1 -13.5435 -3.67556 13.4818 19
420 1 11.1796 -1.5645 7.1149 25
421 1 8.4249 -2.13274 8.79531 22
422 1 -0.507348 -7.30498 3.26644 24
423 1 2.39525 1.56375 0.0625983 20
424 1 9.544 -6.52736 -1.61213 10
425 1 -5.53689 1.49297 25.3402 21
426 1 4.88972 14.4789 15.3449 19
427 1 -5.27947 -1.31942 -3.92393 20
428 1 -0.055252 2.8693 -6.396 15
429 1 -8.22437 -3.64455 20.1379 22
430 1 -5.58965 15.245 13.945 20
431 1 -10.5373 -4.86888 -1.6686 18
432 1 -18.2454 -3.84985 8.96533 13
433 1 -5.2054 -9.96107 -2.21838 17
434 1 -8.37539 -9.60395 23.4859 17
435 1 -1.9865 10.0124 4.92551 20
436 1 11.9092 9.54046 17.1293 18
437 1 13.6622 5.16272 14.7957 13
438 1 -8.80723 -16.2237 7.80138 10
439 1 -8.05452 -3.5605 -3.40883 15
440 1 -4.89385 12.3488 18.1944 24
441 1 8.36464 -2.21589 12.437 21
442 1 3.82132 15.9986 2.45137 11
443 1 10.7011 5.30866 5.01137 22
444 1 2.14628 8.66268 26.7158 19
445 1 -11.0119 4.22609 20.1483 21
446 1 2.46827 10.7949 21.6168 18
447 1 7.48807 1.79407 27.5826 14
448 1 -0.0826703 3.53262 -3.57362 21
449 1 -3.37715 -0.907799 25.2541 22
450 1 5.98286 9.36885 16.6981 23
451 1 6.67961 9.39671 6.30858 20
452 1 -10.245 10.0826 6.43684 21
453 1 -5.423 12.3954 8.44384 21
454 1 8.01737 -0.730953 25.8606 17
455 1 8.7496 -1.73663 1.97577 16
456 1 7.46947 -9.82437 7.14135 17
457 1 8.09985 10.9541 22.2002 15
458 1 -16.5524 -7.51122 13.7403 17
459 1 -5.90318 6.76612 1.73266 19
460 1 -16.2579 -1.63303 16.8899 16
461 1 -6.3695 12.3962 0.203043 11
462 1 3.13986 -14.7201 6.43764 16
463 1 3.092 -1.07788 1.72252 20
464 1 -1.5853 14.9094 8.24506 19
465 1 -12.8313 -6.81283 -2.13374 11
466 1 2.73619 -17.0277 15.6476 9
467 1 -13.0538 -3.53255 9.97762 22
468 1 1.48057 11.6652 -1.56689 13
469 1 -3.31728 7.86141 26.6747 19
470 1 -10.9922 -4.60458 18.7294 21
471 1 -0.212167 -10.3333 1.56785 26
472 1 2.38406 -6.48649 21.9772 19
473 1 -11.5028 7.1725 11.625 24
474 1 2.86787 5.04131 -28.7137 12
475 1 4.07431 16.7008 6.5459 14
476 1 8.70848 -4.57082 6.74117 22
477 1 0.0583998 6.84825 22.226 22
478 1 -0.523522 6.01458 -5.02838 14
479 1 -7.71501 -12.3482 21.1301 11
480 1 2.17351 -3.84655 -3.3946 22
481 1 -0.488105 18.2311 19.2506 11
482 1 8.23857 5.6569 -0.26895 13
483 1 -5.06387 -4.57572 -2.28235 24
484 1 -5.54069 -10.1922 8.2602 22
485 1 -12.9975 -3.71439 -0.509583 14
486 1 11.7548 2.93386 10.117 18
487 1 14.7155 4.29035 5.72178 11
488 1 8.01249 -6.9217 1.92146 17
489 1 10.9996 9.88468 23.6392 12
490 1 2.10159 -9.22784 6.85095 23
491 1 2.77048 4.14477 -5.16789 13
492 1 6.00869 11.6307 14.8358 24
493 1 5.26502 9.8637 23.4567 19
494 1 12.1204 8.70652 9.71193 13
495 1 10.4493 0.278259 12.3049 19
496 1 8.23989 3.17493 5.22858 20
497 1 5.20887 4.20231 26.4045 21
498 1 10.7247 6.94523 22.7567 16
499 1 8.28379 11.4834 9.75856 22
500 1 -0.437826 4.21699 26.9274 20
501 1 12.5753 -0.213546 4.12341 12
502 1 3.46457 1.46118 27.2436 20
503 1 -10.6526 -1.8577 3.69075 22
504 1 11.2029 3.84 16.8345 17
505 1 -15.6951 3.98708 24.0513 7
506 1 5.91337 9.59155 20.1864 22
507 1 4.75395 3.92764 23.6309 22
508 1 0.162149 9.61122 20.1422 21
509 1 -4.35344 15.3178 23.6395 10
510 1 -2.0462 -14.7772 16.7179 12
511 1 -7.63383 10.791 8.27871 21
512 1 13.8121 6.18013 3.34038 12
513 1 5.13325 -4.67188 -1.83809 21
514 1 -1.04588 18.2162 13.1872 15
515 1 -2.69956 -12.1654 4.85101 23
516 1 7.6445 -9.2554 -1.43275 14
517 1 -13.4097 5.12368 17.9376 19
518 1 -5.40513 6.45573 -1.47506 21
519 1 -5.573 -13.503 13.393 21
520 1 -8.42266 1.57901 0.0994184 22
521 1 -13.6731 1.95091 6.75372 21
522 1 10.9953 -2.46801 14.2912 14
523 1 10.9411 5.95184 11.5276 18
524 1 -3.0776 -9.61464 16.588 23
525 1 -13.0319 -3.79346 6.98562 22
526 1 0.408908 -1.00753 -6.87234 12
527 1 -3.09655 4.68217 25.1105 21
528 1 5.83939 8.85456 -0.621888 15
529 1 10.0464 -2.79138 26.2384 7
530 1 7.97373 5.95754 3.1869 22
531 1 7.47123 14.4725 13.1424 19
532 1 -0.311046 -13.0981 3.1994 24
533 1 -13.0525 -1.1353 25.5879 11
534 1 10.5304 -4.92003 16.3533 13
535 1 -5.26456 12.4949 25.1898 14
536 1 5.64721 13.6384 1.24138 15
537 1 -13.8396 13.3957 6.48359 10
538 1 8.85917 9.12854 15.3542 20
539 1 -16.2923 -12.1693 9.86191 11
540 1 9.55438 -5.03736 12.8917 15
541 1 4.68337 19.141 12.6079 14
542 1 -5.95798 6.97377 21.7236 21
543 1 -13.3267 -9.52804 10.1303 24
544 1 -11.4605 0.93595 1.94641 20
545 1 5.48295 1.05367 25.402 21
546 1 -3.04385 -6.28059 25.1115 14
547 1 7.13882 7.09793 27.2305 16
548 1 -8.33036 13.9551 13.1926 16
549 1 -2.21433 -1.85412 -5.42568 15
550 1 -10.8461 -1.83328 20.5794 21
551 1 5.90903 -1.80357 0.198289 23
552 1 8.09707 -7.4794 5.29149 21
553 1 5.93427 3.86025 20.1821 23
554 1 -8.26842 2.28333 27.0199 17
555 1 7.47505 6.49762 19.9164 20
556 1 -3.36324 -3.64125 26.9922 14
557 1 -5.49833 6.71942 24.9268 23
558 1 -2.43451 -3.64056 -3.22646 24
559 1 -11.1231 1.21656 21.8076 20
560 1 0.564706 1.03125 25.4177 19
561 1 -16.6698 -9.96217 15.179 16
562 1 11.2128 6.28854 8.18148 20
563 1 2.26708 -11.8669 4.50812 22
564 1 3.63125 10.0713 8.508 23
565 1 7.26603 17.1117 14.3384 10
566 1 -2.45881 1.02 -6.59723 13
567 1 1.07409 15.0912 10.0024 19
568 1 12.9178 7.86658 12.9208 13
569 1 -8.45076 -9.32566 9.87945 24
570 1 -3.20159 1.87259 -3.59598 20
571 1 -11.3089 12.9695 8.32726 15
572 1 5.22964 -7.71378 3.01721 20
573 1 9.04012 8.24714 4.76093 20
574 1 8.71499 16.7284 11.142 9
575 1 8.50657 4.09672 26.8548 17
576 1 11.5922 -1.32498 24.1191 11
577 1 -2.70816 -9.3276 20.1001 21
578 1 -7.77119 10.6214 -1.97268 12
579 1 -1.86747 13.3164 23.4676 19
580 1 2.02267 -13.007 -1.723 10
581 1 8.16397 13.1748 6.10923 15
582 1 5.56998 12.4242 17.9515 20
583 1 10.3516 -7.1219 7.36796 15
584 1 4.47282 6.89281 24.963 24
585 1 -16.0433 -4.51699 12.0792 20
586 1 2.7406 -15.0007 9.8526 21
587 1 -7.08287 16.4338 11.2889 10
588 1 3.66238 10.0908 11.5999 20
589 1 -15.9447 -4.60599 15.3456 16
590 1 -3.04979 4.19255 28.5479 17
591 1 -11.1587 9.74855 -0.256009 13
592 1 -8.97392 10.8012 1.25772 15
593 1 5.42761 -15.7826 11.7144 13
594 1 8.12329 6.19852 6.76548 20
595 1 -13.5755 -0.841314 22.1987 19
596 1 5.61134 -4.26324 -5.28528 12
597 1 -0.0394174 -10.46 21.4076 16
598 1 2.893 12.7379 10.1574 20
599 1 -2.80531 2.02495 26.7864 21
600 1 -10.0683 -7.65387 -0.271136 21
601 1 -8.11624 -9.52457 -0.363408 20
602 1 -10.4345 -13.3723 3.30421 16
603 1 3.10409 12.3874 3.4806 21
604 1 -4.9935 12.4319 15.2213 21
605 1 2.4183 -9.57817 3.1954 23
606 1 5.14686 -12.6171 10.3668 21
607 1 -0.0734298 -7.14237 20.2729 21
608 1 13.4502 0.739521 7.00253 14
609 1 -5.14923 -15.9895 8.41898 12
610 1 -10.6686 -1.77103 23.7332 20
611 1 -2.86969 -14.6849 13.3029 19
612 1 -10.0881 -13.4982 6.6548 19
613 1 -13.3975 -3.81304 23.7708 13
614 1 -10.7728 -16.3088 14.0607 11
615 1 13.6754 5.00192 8.70785 11
616 1 -2.24948 15.9702 14.847 23
617 1 -16.2316 3.87488 13.4826 17
618 1 8.58571 -1.37817 15.6852 17
619 1 -13.3064 -4.00068 3.78479 18
620 1 9.13855 3.42886 1.96613 22
621 1 5.31559 12.4373 21.0351 16
622 1 -13.4719 -0.945102 5.30935 22
623 1 -12.8759 -6.78896 5.20637 18
624 1 -2.8075 7.33866 29.8962 10
625 1 5.32107 6.42809 1.56229 22
626 1 7.97085 14.0194 16.3804 15
627 1 -5.99043 1.14674 21.9787 20
628 1 -0.184415 -13.1887 13.283 21
629 1 -11.6535 -13.879 16.0857 17
630 1 8.02386 13.1357 19.4452 12
631 1 -0.0206554 -7.4587 -0.0976048 23
632 1 3.02307 10.1108 15.0006 20
633 1 -10.9521 -7.42091 20.3524 22
634 1 6.24044 8.68184 3.08727 20
635 1 -2.64132 -14.92 6.65092 16
636 1 5.39033 -14.9686 14.8201 13
637 1 -0.051777 -16.1552 11.7289 15
638 1 3.22316 4.46528 1.62188 19
639 1 4.92414 20.1904 15.4569 8
640 1 -5.95704 3.91837 -3.33646 21
641 1 -3.38701 1.83584 23.5145 21
642 1 -0.416744 9.04168 -3.34156 13
643 1 -13.6042 -1.48715 -1.41871 14
644 1 -10.2363 -4.82567 8.77013 23
645 1 1.26493 14.8951 6.84522 20
646 1 -5.64369 -4.15307 -5.52547 11
647 1 9.06233 3.09164 8.25933 25
648 1 10.2907 -9.97927 3.78411 9
649 1 -5.83088 4.29032 26.8206 20
650 1 2.25208 -9.41511 13.6543 22
651 1 9.64453 -8.60625 10.2493 11
652 1 8.50705 -6.66345 22.0601 13
653 1 -2.29654 10.1312 18.2935 23
654 1 -12.6164 4.1833 26.101 11
655 1 -8.60503 5.27429 21.7626 20
656 1 -4.74067 -13.1051 20.7396 11
657 1 8.36266 8.30797 21.9884 24
658 1 -15.7918 -1.70536 10.3927 19
659 1 4.85886 -7.30531 6.7906 22
660 1 -10.4262 9.64261 3.07672 19
661 1 -1.06147 -13.411 19.8552 12
662 1 -2.25268 1.63124 29.6421 14
663 1 1.51021 17.8302 11.5043 18
664 1 -0.249135 -10.4806 18.6865 17
665 1 -0.20631 4.05854 23.458 22
666 1 -14.5142 -7.92317 2.91949 13
667 1 -2.89038 10.6973 25.3559 17
668 1 2.82362 13.0219 13.4312 23
669 1 -11.0373 -10.183 15.0079 24
670 1 -8.69475 -15.1348 16.6573 13
671 1 5.07411 -4.11344 18.9647 22
672 1 7.72072 -3.96521 21.0428 22
673 1 4.79708 6.82487 18.6682 22
674 1 -3.21412 -6.51503 1.63307 22
675 1 -3.17249 1.83428 -0.144572 21
676 1 -5.79342 -1.80277 23.6147 23
677 1 0.121752 15.1433 12.9985 22
678 1 10.5862 0.733214 15.6699 20
679 1 0.771048 9.59417 3.17168 19
680 1 -8.34442 8.10031 26.81 14
681 1 5.10961 6.91606 21.8607 22
682 1 5.89229 -4.73272 1.93325 21
683 1 -9.95188 -13.364 9.93458 16
684 1 11.0931 -1.89388 17.7136 13
685 1 0.180038 -1.77603 -0.148806 21
686 1 2.22361 5.37794 25.3405 22
687 1 7.70495 -10.9728 1.28339 12
688 1 2.383 1.32749 -7.05769 8
689 1 10.8726 5.87256 1.74867 15
690 1 11.6712 -6.31839 10.5055 11
691 1 -0.362401 -4.4548 22.0041 21
692 1 -7.87642 -12.2604 4.56571 21
693 1 4.18725 15.8615 11.6902 22
694 1 -13.263 2.34425 16.8636 21
695 1 9.33824 8.74842 8.3019 20
696 1 11.0057 6.3309 14.985 23
697 1 -5.1212 -1.08178 -6.88348 10
698 1 -7.754 10.4872 18.1401 21
699 1 11.9337 8.88725 20.4609 13
700 1 10.2523 11.3069 4.8566 12
701 1 2.40662 1.584 -3.39561 20
702 1 8.84057 -4.70627 10.2024 26
703 1 -13.7242 2.34747 10.1808 21
704 1 10.943 3.89371 13.8156 21
705 1 -13.5572 -9.48889 13.1542 22
706 1 -13.2723 10.6341 1.49512 10
707 1 2.84162 4.71419 21.7927 22
708 1 -11.3537 1.00718 5.04982 22
709 1 -16.0611 4.07126 16.9576 15
710 1 4.88963 -9.98693 5.35772 22
711 1 -13.3512 -12.8069 4.54057 12
712 1 7.74519 -7.13693 12.1733 21
713 1 -16.2845 6.71267 11.5832 15
714 1 10.2816 6.23137 19.4217 19
715 1 -8.2178 -6.53233 18.4342 22
716 1 3.88738 1.81018 29.9007 14
717 1 10.0658 -4.13955 19.7318 16
718 1 -13.0235 2.3609 13.4479 20
719 1 0.175952 9.92301 23.7011 21
720 1 9.57098 9.97509 2.4416 13
721 1 -5.02857 -7.24956 -3.94831 16
722 1 -7.59774 13.3717 19.7093 19
723 1 -16.4936 -10.5696 18.435 10
724 1 8.23494 7.98954 1.17048 16
725 1 0.0471787 7.12488 25.4963 21
726 1 13.9023 -2.51695 5.70797 12
727 1 5.49788 -7.6268 23.3033 14
728 1 -2.3028 10.6671 -1.83944 16
729 1 4.06345 10.3673 1.51401 21
730 1 -8.17041 -0.647587 22.0047 19
731 1 14.3802 8.67931 14.9111 11
732 1 -5.16096 -4.76751 1.26647 24
733 1 10.1468 13.3101 11.2935 11
734 1 -16.4338 1.33522 8.52736 14
735 1 -5.51027 -10.0092 21.8006 18
736 1 2.99641 13.6149 0.593667 15
737 1 2.08133 -0.791617 22.1308 23
738 1 -2.84314 -12.0821 8.13092 23
739 1 -7.50252 13.5931 16.8894 20
740 1 -16.1352 4.13156 6.84546 16
741 1 8.94942 -1.17094 -0.956835 13
742 1 -0.165173 -10.3565 -1.58608 19
743 1 -11.221 6.8998 15.0797 21
744 1 12.3421 8.59691 3.89559 10
745 1 2.61315 -6.57606 -1.67782 22
746 1 -11.1306 -9.69777 -2.26238 12
747 1 -0.175267 -10.0812 8.34462 21
748 1 -5.74898 9.6962 27.1857 14
749 1 -0.224747 -12.867 6.67504 23
750 1 -2.95767 7.16794 -3.54828 17
751 1 13.9246 -3.45601 9.17767 11
752 1 6.53956 9.11766 13.1835 21
753 1 1.48419 -18.8054 8.22837 6
754 1 -0.308709 -7.01257 -3.45207 21
755 1 12.1368 3.63568 6.6874 19
756 1 -2.49497 4.64041 -1.86384 22
757 1 -5.26822 -7.42106 20.1921 19
758 1 5.19205 6.07978 5.04711 22
759 1 -13.2078 4.95529 8.12789 20
760 1 -14.8357 4.97329 20.3931 12
761 1 0.704753 7.12747 29.214 14
762 1 -8.38333 -9.39053 20.0478 24
763 1 0.220447 12.5023 14.9327 24
764 1 3.92563 -18.2044 10.8526 7
765 1 3.3227 12.6688 6.72458 19
766 1 -5.18673 9.73045 23.3156 21
767 1 -5.20021 1.12749 28.3154 15
768 1 -10.1175 12.849 17.8269 15
769 1 -5.90294 -7.72441 23.9127 17
770 1 2.12031 -12.2602 19.2685 14
771 1 8.80639 4.07391 21.8062 23
772 1 5.63184 -4.70584 5.20478 22
773 1 4.72433 -10.5771 2.05785 19
774 1 -10.7543 -1.08475 -3.33242 12
775 1 -2.96609 4.1926 -5.26004 16
776 1 2.8836 13.3894 19.7462 20
777 1 -13.2554 -6.92719 25.2995 9
778 1 -7.37816 10.5073 4.55598 19
779 1 -16.5378 1.02399 5.61109 15
780 1 7.27304 14.4016 9.69774 18
781 1 -15.7446 -12.7365 16.0121 13
782 1 9.31117 11.2036 16.9696 17
783 1 -11.0312 -11.315 0.18959 13
784 1 0.67237 15.2437 19.3869 20
785 1 -11.0907 1.87882 28.4399 10
786 1 -5.22276 -13.3587 3.39426 19
787 1 7.56975 -0.423354 22.8795 18
788 1 4.09335 -14.6162 17.2992 10
789 1 0.761087 11.9416 25.4726 12
790 1 7.75764 -3.19446 -2.76294 16
791 1 4.73343 -9.95343 12.2234 24
792 1 3.16571 -1.1217 -1.68989 18
793 1 -16.0083 -3.12203 1.2776 13
794 1 -13.3322 7.69203 -0.52427 13
795 1 -8.18974 8.24531 23.4291 22
796 1 7.41636 -4.60843 17.5998 21
797 1 -11.013 -7.6369 13.3213 22
798 1 10.7845 0.846166 8.30222 17
799 1 -2.84262 7.46599 -0.0863153 18
800 1 11.5961 11.0517 13.7955 14
801 1 -4.94375 12.8197 21.8363 22
802 1 -16.4226 -7.49743 16.965 14
803 1 6.10253 -13.7764 5.24681 11
804 2 -13.5584 0.794292 1.85232 20
805 2 -7.75308 12.7131 11.5732 21
806 2 -0.547361 -0.874599 -1.63729 22
807 2 -8.85107 7.21186 24.9007 18
808 2 0.688536 -14.7068 6.82844 19
809 2 -12.7549 -8.05336 3.56568 17
810 2 -1.83547 -0.0292877 29.0312 12
811 2 1.17518 0.679557 -27.6009 6
812 2 -12.7906 -10.5655 11.5571 24
813 2 -16.8182 5.37719 8.33249 14
814 2 3.94497 15.0128 13.6199 19
815 2 -13.2988 1.0002 11.7111 21
816 2 2.18444 15.0636 1.87635 15
817 2 8.25045 4.1979 13.5791 21
818 2 -1.84845 12.1549 5.04834 24
819 2 5.88983 16.2222 5.9119 12
820 2 -13.5499 -5.45312 -0.924445 14
821 2 -12.3798 -11.0874 4.44382 16
822 2 0.457058 4.94736 21.9671 22
823 2 4.8743 -4.00532 3.54697 22
824 2 3.74457 -16.0509 14.6784 13
825 2 -8.56179 9.84939 9.93141 22
826 2 -16.4249 1.32119 3.7614 15
827 2 7.85677 4.64299 16.6731 25
828 2 5.98306 -7.0212 1.39817 20
829 2 -12.6091 -10.4697 8.34753 20
830 2 -10.5515 -3.82233 17.041 21
831 2 -7.7309 -13.4521 13.564 23
832 2 8.92968 -5.89532 17.0518 15
833 2 -5.04096 -12.3483 1.63838 19
834 2 2.21837 -1.77857 -29.3043 5
835 2 -0.185816 10.4285 1.35467 17
836 2 -0.775933 -14.434 18.283 12
837 2 -16.788 -11.7371 8.23539 9
838 2 0.14536 4.94532 25.266 20
839 2 -10.6983 7.82352 13.1686 21
840 2 -2.37502 3.9101 26.6289 18
841 2 -10.1269 13.3479 9.7969 17
842 2 5.80078 -9.04669 17.3712 19
843 2 -2.39768 12.2036 1.70057 16
844 2 7.09318 14.0591 18.0477 14
845 2 6.02868 18.3672 15.207 11
846 2 5.35869 -4.03233 0.0325114 19
847 2 -11.389 9.82367 21.5123 10
848 2 3.44599 3.52069 -3.64768 15
849 2 -4.74468 7.31562 0.358073 16
850 2 10.7667 9.92682 8.9264 13
851 2 -10.6464 -6.69389 24.968 14
852 2 -15.8771 7.59986 16.3153 14
853 2 9.96906 -0.736348 0.716331 13
854 2 -13.2715 -7.27477 23.4358 18
855 2 0.24705 -12.2792 -1.36796 15
856 2 -3.24443 -1.63805 -3.47006 22
857 2 -15.4634 -9.03196 13.1106 19
858 2 8.21735 9.46253 9.91606 22
859 2 -6.03042 10.5584 14.8649 24
860 2 -10.418 -12.3477 1.73654 16
861 2 -5.58765 13.6326 16.6439 21
862 2 4.28853 0.225979 28.6753 14
863 2 0.173219 -6.33187 22.149 17
864 2 10.7866 4.50771 18.5929 18
865 2 1.22113 12.8215 3.52943 21
866 2 -13.1358 1.18484 8.50697 20
867 2 10.6806 4.33884 22.0145 15
868 2 8.54048 -9.38313 5.43397 16
869 2 3.45097 -13.0956 9.70878 23
870 2 -5.76336 10.8285 21.9126 24
871 2 2.99583 -10.188 15.2351 17
872 2 10.581 -1.54266 15.9184 15
873 2 10.7437 10.0311 15.6061 16
874 2 -5.64997 -0.459397 25.02 21
875 2 10.767 -5.36499 6.95379 19
876 2 -5.70397 10.4145 18.305 23
877 2 11.548 -0.723307 22.3674 11
878 2 4.36026 19.3492 17.0866 9
879 2 -7.92527 7.25886 21.712 20
880 2 10.9363 -7.84298 9.03149 12
881 2 5.91796 5.90083 28.057 15