ITEM: TIMESTEP
4000
ITEM: NUMBER OF ATOMS
1500
ITEM: BOX BOUNDS pp pp pp
-30.0 30.0
-30.0 30.0
-30.0 30.0
ITEM: ATOMS id type x y z Coordination
1 1 -5.41105 -8.00908 -10.0891 20
2 1 4.73039 -12.6619 8.57275 15
3 1 -9.3953 10.1859 -1.07978 20
4 1 -15.5453 0.70766 -8.40715 10
5 1 -2.12811 -9.25005 12.3216 15
6 1 -11.9326 -0.146373 -9.36763 11
7 1 -5.60619 -15.5106 -0.906879 11
8 1 -11.9424 -11.3096 5.61428 14
9 1 1.17819 0.322938 17.2482 11
10 1 -1.12359 4.26624 10.631 22
11 1 -2.13612 10.4041 -8.54117 15
12 1 2.49505 -2.49919 12.4025 21
13 1 12.0785 6.13033 12.0519 12
14 1 1.15935 11.6123 -9.13352 13
15 1 3.77864 4.29295 -13.6537 12
16 1 6.39234 -13.5167 6.18006 11
17 1 6.14961 -12.0553 3.23383 14
18 1 -4.72197 -15.595 -7.2019 11
19 1 4.62497 -10.0494 -10.8761 13
20 1 2.16778 5.34433 13.5439 16
21 1 -2.96213 -8.14515 5.57767 19
22 1 6.31677 -6.11192 14.6545 10
23 1 -13.4475 -5.00463 4.56485 17
24 1 -7.16249 12.6497 -0.601695 21
25 1 1.49705 0.630926 -9.33154 21
26 1 4.85929 -7.27739 -15.4441 13
27 1 2.76969 -5.57926 14.1736 19
28 1 -11.5885 4.48448 -2.56762 20
29 1 0.659403 11.1339 8.87858 18
30 1 -10.0193 5.89236 -5.71955 18
31 1 1.48196 11.728 0.514764 21
32 1 1.58884 -14.6953 1.62931 19
33 1 4.47111 -7.01652 -5.38594 23
34 1 -8.78729 5.23906 11.1594 13
35 1 -16.4096 -3.83762 -6.5801 9
36 1 -6.50679 7.54608 -4.21442 18
37 1 -8.56442 -11.5273 6.82588 13
38 1 -12.0474 8.20722 -4.82661 12
39 1 5.04359 4.48858 7.44745 20
40 1 4.74793 -12.7823 -6.38234 15
41 1 2.56022 8.93036 12.888 11
42 1 12.3015 -4.46158 -6.42454 11
43 1 7.22902 -10.5133 7.51045 14
44 1 5.63763 -2.96847 14.7935 12
45 1 -4.59353 -11.2953 3.67035 15
46 1 -12.0682 -1.23826 0.687956 20
47 1 12.774 3.16422 9.65647 16
48 1 -3.39971 8.77657 9.43413 18
49 1 -1.57969 -6.9622 -12.6402 20
50 1 -9.65873 11.4877 1.50499 15
51 1 -5.34287 10.6825 -9.75388 10
52 1 7.47055 -5.55699 4.11586 23
53 1 6.05349 -9.75243 10.2067 14
54 1 -7.83445 15.5591 -0.50932 13
55 1 -9.41352 8.13385 4.58097 14
56 1 -6.44074 6.80877 5.65303 21
57 1 -6.45655 -6.12328 10.0121 14
58 1 10.0169 -9.08104 -6.1155 11
59 1 -10.3555 0.904646 7.29629 24
60 1 7.38618 -8.32078 -4.20146 21
61 1 5.21426 -2.45564 -15.1838 15
62 1 -3.91933 -1.95781 -14.1397 16
63 1 -2.94311 12.0921 4.52578 21
64 1 -7.61825 8.04335 -9.99551 13
65 1 -1.41333 13.2417 -3.86094 16
66 1 -5.01228 -8.17296 12.6998 11
67 1 -1.4471 -4.66822 -10.7063 19
68 1 3.24334 -7.7505 -12.3985 17
69 1 -9.16381 -8.61394 -3.24574 20
70 1 -6.34334 -9.30865 -4.41704 22
71 1 7.11698 -9.49509 4.29261 18
72 1 7.72853 0.337383 -15.3233 11
73 1 1.05569 5.99924 -9.60126 21
74 1 10.3559 -12.8503 -0.0818328 10
75 1 -1.05206 -12.512 7.89651 15
76 1 -9.75396 -11.4755 -2.03009 16
77 1 -14.1849 -8.7029 4.78954 12
78 1 9.64218 7.69221 8.06278 20
79 1 -1.22659 10.894 11.9603 13
80 1 -8.59127 12.7465 -5.04413 9
81 1 -3.37313 -8.67693 -13.1197 21
82 1 8.48434 -5.31909 11.7459 15
83 1 -3.16122 9.2771 -4.1819 20
84 1 7.72172 -1.97133 -4.07919 22
85 1 -12.1417 11.0426 -1.4044 9
86 1 -8.79982 14.5141 2.29657 12
87 1 9.20204 3.07079 -13.1812 10
88 1 8.80424 -8.13904 6.14364 14
89 1 -6.9288 6.40005 -7.17642 19
90 1 7.16141 9.23355 -1.28657 20
91 1 13.0473 8.84988 -1.47061 10
92 1 -1.5858 12.6867 -0.57266 19
93 1 -6.08645 -4.38647 -14.7238 11
94 1 1.98331 15.4333 6.5701 13
95 1 -12.1204 -3.9708 -3.8236 18
96 1 13.0056 0.15835 -3.05 13
97 1 -3.72587 6.22511 7.19745 22
98 1 -3.80748 12.1219 -5.34139 14
99 1 4.65976 -4.36948 12.369 18
100 1 -9.08922 -8.20336 -0.722307 21
101 1 -0.277519 -9.90861 5.70423 21
102 1 2.59931 -14.7809 -5.4631 12
103 1 -3.08478 8.81501 -11.2409 13
104 1 9.3009 6.8186 -4.69483 20
105 1 2.76588 -10.7649 11.0971 13
106 1 -12.7103 2.07548 -4.36945 16
107 1 4.07116 16.4367 4.3849 7
108 1 -0.579854 7.65564 9.27726 19
109 1 -3.57192 14.5743 2.69139 15
110 1 -4.4312 0.928236 -9.25214 22
111 1 13.0418 -4.13147 2.93592 19
112 1 -15.3243 0.288777 6.66104 10
113 1 -8.94279 -13.6146 3.83775 11
114 1 -14.5762 -2.08933 -0.977346 16
115 1 -1.16169 -12.4409 2.28439 22
116 1 4.12221 -9.70538 2.44645 21
117 1 -6.00598 11.661 6.58809 16
118 1 -9.22971 15.4803 -3.46481 9
119 1 -16.139 -4.39455 -2.97849 8
120 1 -8.28014 -3.63437 14.2548 11
121 1 2.03181 -8.01193 5.87946 20
122 1 3.97976 -14.9436 6.68938 16
123 1 13.52 4.07988 2.66289 14
124 1 7.06967 0.889119 10.8419 20
125 1 -3.63878 5.93533 -13.087 12
126 1 8.16192 1.04963 -11.8277 16
127 1 -7.38063 -4.62634 -7.51369 21
128 1 -4.6246 14.4617 -0.367768 18
129 1 -6.24571 13.9227 -3.02934 13
130 1 4.35603 1.19759 8.94396 22
131 1 -6.69636 -6.80165 -12.5846 17
132 1 -9.05509 9.72389 -4.59502 12
133 1 -0.338749 3.69143 -9.28188 22
134 1 -6.70777 3.43396 10.7876 17
135 1 -6.13366 6.48937 9.22914 20
136 1 -0.505091 -12.5421 -10.0475 14
137 1 -6.76664 -15.3215 2.45614 9
138 1 6.02714 -15.6152 -1.13797 15
139 1 7.31005 9.99267 -7.92631 15
140 1 -0.504722 10.4063 -2.26756 20
141 1 -9.91881 0.504236 3.99098 21
142 1 1.22878 5.73185 10.5931 20
143 1 12.2788 -4.35067 -3.1485 20
144 1 1.48529 6.3106 7.41715 20
145 1 -11.8545 5.2654 9.50977 9
146 1 -11.5444 -7.01403 -5.35887 15
147 1 6.48822 2.29065 -13.4551 15
148 1 2.10405 0.611248 11.3362 21
149 1 9.23528 8.70398 -9.3489 9
150 1 1.91528 -11.1404 -5.6472 19
151 1 -3.79156 -2.46501 -10.809 22
152 1 7.58239 -1.66171 -10.5963 19
153 1 -8.78617 -2.37134 5.72929 22
154 1 2.52792 -15.9363 -2.09388 13
155 1 -8.92965 -9.26454 -6.64031 18
156 1 7.81608 11.9065 -2.89709 13
157 1 2.36988 -4.63967 -16.3605 12
158 1 6.7116 2.11376 14.2957 9
159 1 12.7813 1.84293 4.39156 15
160 1 6.85524 -5.36783 -11.5571 17
161 1 -9.30846 -1.8034 -8.11743 15
162 1 -14.6121 -1.77571 -8.08034 14
163 1 10.292 0.69681 12.812 11
164 1 4.53686 -4.49408 9.07483 18
165 1 -7.68193 -9.93319 -13.1384 8
166 1 1.94626 6.68822 -13.1366 11
167 1 6.97801 8.86457 2.24306 19
168 1 -6.18859 -13.1768 5.35552 13
169 1 1.43145 8.89425 2.51298 22
170 1 -9.22975 -4.15509 11.4501 15
171 1 -7.8993 -10.3434 -9.7047 16
172 1 -7.49176 -4.49049 -10.6498 12
173 1 -3.7259 -10.871 -5.58364 20
174 1 -1.43998 -9.75722 2.78098 19
175 1 7.59688 3.36507 5.84098 20
176 1 -11.0419 -5.84189 12.9955 5
177 1 -4.52804 -11.4649 0.558497 18
178 1 -1.45707 -10.2657 -0.716404 20
179 1 -0.829235 14.887 3.96675 14
180 1 5.81711 -5.08341 -13.93 17
181 1 -3.75809 -6.7814 -15.3236 13
182 1 0.53535 -13.9453 -0.473912 16
183 1 -5.19216 -10.2596 -10.9667 19
184 1 -13.2284 3.11894 -8.61694 11
185 1 10.9101 6.73985 5.92056 19
186 1 -5.77868 4.22403 -9.45756 20
187 1 1.58311 9.11422 -7.41917 20
188 1 -5.93531 15.8829 1.56837 11
189 1 2.86715 12.0194 5.9379 20
190 1 12.5818 1.22795 7.54539 16
191 1 -11.6816 -2.08302 3.82304 18
192 1 -2.13038 -8.50916 15.5259 10
193 1 -5.83674 9.83109 4.31191 21
194 1 0.492245 -8.9345 -13.843 18
195 1 1.30341 -10.9821 0.740149 21
196 1 -1.40196 -5.08149 16.1438 9
197 1 -10.3943 -8.71183 7.52609 16
198 1 14.2428 -3.20964 -1.88509 15
199 1 7.33953 -4.77571 -8.8639 19
200 1 9.38416 -10.6138 -2.65043 15
201 1 -10.2595 13.6367 -0.793849 17
202 1 9.45471 7.04024 13.2433 12
203 1 -9.38609 -4.94973 3.71232 22
204 1 6.21261 -11.7248 -1.09269 18
205 1 -3.79784 8.91871 2.40124 21
206 1 -8.72682 3.28148 5.69718 19
207 1 1.54612 -13.2808 9.25584 12
208 1 10.381 -5.42656 5.56695 19
209 1 -3.8363 3.1982 8.97693 20
210 1 -0.0673513 -2.25267 17.5284 12
211 1 -3.13783 14.1022 6.94893 10
212 1 -9.17222 1.97001 12.0941 14
213 1 -12.8987 0.554473 5.09126 20
214 1 -6.80785 9.91793 1.11313 24
215 1 7.967 -2.46909 9.55375 21
216 1 -9.79707 -13.4619 1.07948 13
217 1 7.45705 -8.23543 12.9368 8
218 1 -11.4124 3.18599 4.58739 19
219 1 -1.31243 -4.7342 8.83654 23
220 1 4.54325 -12.7884 -9.34387 10
221 1 -6.54658 -1.79686 -9.29607 19
222 1 7.41587 -8.19927 -13.3098 8
223 1 5.19021 12.8859 3.87685 15
224 1 -13.1534 1.63789 -0.88549 19
225 1 1.84347 -11.6268 -11.7218 13
226 1 -2.6775 -17.3888 -2.63688 8
227 1 -13.725 -7.22403 -3.68851 13
228 1 10.598 0.402338 -1.15373 17
229 1 -10.7999 5.68641 -10.1493 12
230 1 -15.4584 0.104731 -2.73582 12
231 1 -9.73862 5.63635 2.92672 16
232 1 -8.69081 11.4297 4.45545 12
233 1 -9.3048 6.15983 7.73008 18
234 1 9.56644 -4.67118 -4.58432 18
235 1 11.0111 3.78127 -5.03136 19
236 1 -0.808457 -10.5743 -7.59829 20
237 1 -1.3244 9.69623 0.752794 21
238 1 -10.0024 1.99657 -6.09677 21
239 1 3.97165 -9.85439 -0.817676 21
240 1 11.1814 -1.56219 8.34629 20
241 1 -8.94257 -0.946707 -4.2188 20
242 1 -5.92677 -6.90204 4.12764 18
243 1 -4.27368 9.36427 -0.856889 18
244 1 -13.0655 -10.1068 -1.46336 13
245 1 -7.07312 7.34475 -1.18027 21
246 1 -1.0695 12.9973 -7.20439 12
247 1 6.03275 12.0204 9.43112 14
248 1 -13.9964 -8.58886 1.05343 16
249 1 -3.13971 -8.55583 -7.16652 19
250 1 -14.6853 -3.25383 7.81582 10
251 1 -14.0204 5.07564 -0.0971973 10
252 1 2.05683 -11.993 6.6068 20
253 1 -2.37863 -14.4554 -0.752072 20
254 1 4.65817 6.10936 -11.338 17
255 1 -8.89596 4.08529 -4.17672 19
256 1 -2.45942 -14.3924 5.03183 11
257 1 11.8336 6.28992 8.66041 16
258 1 -3.41023 0.934997 11.0328 16
259 1 -16.1589 -0.0798004 0.868439 11
260 1 -6.2752 3.86979 7.32765 22
261 1 -4.23647 -14.1787 2.10254 14
262 1 7.3421 -7.46443 -7.36729 19
263 1 -11.1063 -2.01414 9.38753 15
264 1 4.68358 -9.73133 -6.79012 20
265 1 -2.40028 -9.17712 -10.4848 23
266 1 -3.18386 -4.23407 11.2404 21
267 1 -4.50395 0.693557 -15.9024 9
268 1 6.58648 -17.0006 5.85594 7
269 1 4.49341 13.0622 -4.60083 14
270 1 -4.23378 -6.17074 15.3326 14
271 1 -8.22965 -8.2568 5.61865 19
272 1 8.44 -7.36249 8.89233 14
273 1 5.07372 -7.02647 7.17297 19
274 1 13.0648 6.18206 -2.99423 12
275 1 -3.2521 -2.82712 16.657 12
276 1 2.3453 13.6872 3.68626 16
277 1 3.51026 -9.63197 8.16453 20
278 1 -1.52593 -14.7075 -8.62836 10
279 1 -1.32931 13.3733 10.1625 8
280 1 -6.47556 -10.9642 -7.67743 21
281 1 4.65151 7.01046 8.94174 20
282 1 -7.5479 -0.395932 14.3975 12
283 1 -5.65425 -13.0543 -5.5324 20
284 1 -10.0355 -1.22363 12.5272 13
285 1 -8.04559 -6.41739 -5.16508 20
286 1 -4.7209 9.92825 12.138 8
287 1 -5.50154 -13.2894 -9.57069 15
288 1 -0.928903 -11.0842 -12.6598 13
289 1 -5.14868 -12.2817 -2.44242 18
290 1 6.97715 0.393579 7.4883 22
291 1 -2.04228 -6.41461 13.3608 21
292 1 -13.2217 6.48111 -8.17805 8
293 1 6.9609 5.98114 0.552078 20
294 1 -4.71175 -14.8046 -3.56634 16
295 1 -0.964412 12.4565 2.50447 22
296 1 -1.25223 7.07561 -7.85732 18
297 1 -2.68277 7.89509 12.4036 18
298 1 -15.568 -7.73034 -1.29804 10
299 1 2.31462 11.4675 -3.00942 19
300 1 -8.53238 -7.07298 -9.09796 15
301 1 -3.69211 -11.7676 -8.56295 21
302 1 -0.645394 -2.4981 -12.3552 20
303 1 -11.8268 3.91271 1.0427 18
304 1 4.75449 4.84206 14.1027 14
305 1 6.9396 6.48798 -2.87527 22
306 1 1.67121 8.77969 -0.882471 21
307 1 -10.0803 7.83781 -8.1314 13
308 1 -15.6791 -6.94918 2.24812 9
309 1 -8.18448 4.92376 -10.8822 12
310 1 9.48581 6.36401 -0.723183 20
311 1 8.08108 -8.08861 2.12588 19
312 1 15.3027 -0.409996 -1.00408 10
313 1 -1.48606 0.966099 -11.0838 17
314 1 0.765377 -13.9189 5.26147 16
315 1 1.45149 -8.0602 15.8658 8
316 1 -9.10945 3.96629 -7.87439 19
317 1 -3.4085 -12.5293 -12.0863 13
318 1 -0.576481 2.99411 -12.8795 12
319 1 2.90012 -1.47516 15.6232 14
320 1 -11.5373 -6.56891 1.28103 18
321 1 12.9569 -7.41178 -5.10879 11
322 1 10.9119 -1.89912 -2.5794 21
323 1 -4.10056 6.35481 -5.94258 21
324 1 1.6072 -8.27288 -6.80844 20
325 1 1.42016 0.757763 -12.4518 17
326 1 9.73703 -6.04555 -7.7088 12
327 1 -6.53328 2.76994 14.1627 11
328 1 8.43217 11.6995 0.383023 14
329 1 -0.562427 -6.21687 -16.4151 10
330 1 -7.61898 -3.87836 8.79578 17
331 1 -4.09616 11.566 1.53927 20
332 1 -7.53185 0.999439 -14.1636 8
333 1 -14.3393 -1.48168 3.89672 16
334 1 -5.70953 -9.62837 6.35145 17
335 1 -0.747595 10.6734 -5.2445 18
336 1 10.2905 3.16116 0.850464 22
337 1 -7.84459 -13.8777 -2.2174 9
338 1 0.934415 -11.1899 -2.13655 20
339 1 -6.93454 9.87769 9.50629 9
340 1 1.24661 -4.98685 -8.96334 19
341 1 12.2072 -4.47044 2.27739e-05 21
342 1 2.37016 14.124 -7.0936 9
343 1 -9.54023 3.24691 9.05757 20
344 1 7.17129 8.98546 9.34636 18
345 1 -1.47552 -0.414944 -14.085 17
346 1 -5.94107 -7.56538 -7.34925 22
347 1 0.0399412 -2.20373 10.4661 23
348 1 7.41878 10.5357 12.0166 10
349 1 10.3273 5.8204 -7.66454 16
350 1 -12.1507 13.4322 -3.91048 6
351 1 0.79761 14.4417 -1.36914 12
352 1 8.56523 -1.97719 12.6794 14
353 1 10.2066 -0.799785 -8.99616 15
354 1 -12.0543 -13.8024 3.1091 11
355 1 1.61037 3.19524 9.071 20
356 1 -5.42335 9.31171 -6.56983 19
357 1 3.55183 -12.6304 -1.92934 20
358 1 4.97716 -1.54051 -9.01227 21
359 1 -1.83261 15.6185 0.687035 12
360 1 -6.39831 -2.86623 -12.4573 18
361 1 5.94299 -16.7333 2.30839 13
362 1 -11.5314 -6.70246 -1.23456 19
363 1 -10.6666 -6.97482 9.83206 13
364 1 4.39508 7.49729 -4.55415 21
365 1 0.631676 -8.73164 -10.7738 19
366 1 4.03181 -8.55678 13.6172 13
367 1 -10.3549 7.29574 -2.48465 16
368 1 10.8467 -7.33249 -2.70838 19
369 1 2.31533 8.9001 9.38001 17
370 1 4.69259 14.4355 7.17642 14
371 1 9.38138 2.96072 -9.55422 16
372 1 -4.42144 -5.33173 -12.2209 24
373 1 -3.54052 -9.66195 -2.85262 22
374 1 -11.4672 -0.938104 -6.33051 18
375 1 9.70041 0.834268 2.52054 17
376 1 13.1176 3.1757 -1.49618 14
377 1 4.02482 -4.79034 -10.3827 22
378 1 4.05112 -10.154 -3.94984 23
379 1 8.11463 11.9816 3.9385 12
380 1 -8.79868 3.00062 2.56452 19
381 1 10.1946 4.76358 -2.54538 22
382 1 14.9799 0.865434 2.01995 10
383 1 8.22254 4.06503 -7.26404 22
384 1 10.0715 4.26891 10.5452 21
385 1 1.89794 -4.87465 10.6555 25
386 1 3.12325 2.30119 15.5186 13
387 1 14.9617 -5.65274 -4.42589 8
388 1 10.1683 0.845934 9.4978 22
389 1 -7.32136 0.970329 -7.56535 20
390 1 13.1959 10.2272 3.95333 11
391 1 10.0785 -5.20175 2.30477 22
392 1 10.8345 3.95013 14.4734 7
393 1 4.63049 10.0918 7.53023 21
394 1 -3.76634 12.1197 -2.74852 16
395 1 11.7356 2.64683 -7.41246 11
396 1 10.5457 -3.90429 -9.59598 9
397 1 3.97864 12.9094 -1.36193 13
398 1 -0.604676 -9.98171 -4.34648 22
399 1 -13.5976 -0.605071 8.79637 13
400 1 -4.77617 7.35399 -9.36721 18
401 1 -1.12532 -15.3413 2.46643 11
402 1 -7.62202 1.44158 -10.7821 19
403 1 -14.1477 -1.87566 -4.14604 18
404 1 11.3752 -7.72793 3.47023 13
405 1 12.7852 8.57156 6.77142 11
406 1 -0.502152 -7.07346 7.41985 19
407 1 -12.1671 -0.807607 -2.72015 21
408 1 -2.09912 0.299084 16.2971 15
409 1 7.59707 6.08529 -9.45637 21
410 1 5.71339 3.96332 -8.22819 21
411 1 5.65128 -13.6328 -3.57054 16
412 1 14.0769 -0.599281 6.72482 11
413 1 10.3917 10.4036 5.72594 14
414 1 15.0418 -2.03754 4.21671 9
415 1 -3.87718 2.83721 13.443 17
416 1 -14.1739 -10.8152 3.33986 12
417 1 -10.1605 -4.0413 -6.21867 19
418 1 6.0105 -1.11763 12.6408 16
419 1 -3.59296 -7.12588 10.1345 19
420 1 5.60793 7.07809 11.9223 16
421 1 -6.67814 12.7289 2.95755 18
422 1 10.4553 3.36025 4.39054 20
423 1 6.8217 5.81971 4.21017 25
424 1 1.85296 -1.78987 -14.2075 19
425 1 -11.7675 -2.8473 6.93059 19
426 1 5.16293 -2.10257 -12.3027 22
427 1 7.51942 -11.0111 -5.39382 15
428 1 7.77559 3.3685 9.06419 19
429 1 10.2523 9.07893 10.74 11
430 1 3.04546 -3.67984 17.3737 8
431 1 -1.2712 5.09785 13.4 23
432 1 -2.6063 -4.25477 -14.3718 18
433 1 -1.02861 1.55247 13.3889 20
434 1 7.43846 4.63197 12.3475 15
435 1 13.0104 5.72119 -0.0110078 16
436 1 8.83687 -14.3677 -1.94564 11
437 1 7.24476 9.54036 -4.5847 21
438 1 10.6611 11.7839 2.49174 14
439 1 1.17767 14.2519 -4.7446 12
440 1 13.7461 10.9128 1.2111 9
441 1 -6.68127 -9.67076 -1.30634 19
442 1 -0.5641 -2.79031 -15.5516 15
443 1 -9.30514 7.71165 0.893863 13
444 1 5.80989 -7.4826 -10.1441 17
445 1 6.43206 3.93841 -10.9232 21
446 1 9.90212 8.69812 -2.84734 18
447 1 7.60208 3.46975 -3.95815 21
448 1 -3.2595 -11.3086 10.3612 11
449 1 -0.934225 7.62899 -13.5111 11
450 1 3.99181 14.5042 9.94695 6
451 1 7.00339 12.3942 -6.20083 12
452 1 7.01416 12.4877 7.06625 10
453 1 14.1795 -6.19963 -1.66193 14
454 1 -10.6306 -5.5833 6.51782 18
455 1 3.6083 -16.2636 0.640072 13
456 1 3.61603 9.93899 3.76275 21
457 1 -11.3508 -7.90202 4.11282 23
458 1 4.64211 -12.9963 1.13563 22
459 1 6.45537 6.8811 -6.32616 23
460 1 1.04019 -5.77447 -11.8575 20
461 1 -0.467348 -12.4192 12.1164 7
462 1 6.15534 12.77 0.79362 9
463 1 -4.57136 -0.0786866 14.65 15
464 1 -6.2233 -8.24534 -15.375 11
465 1 3.76382 -4.32008 -7.31005 23
466 1 -1.10278 9.725 7.3359 19
467 1 3.08773 -7.49759 -8.82224 19
468 1 2.1591 -7.76682 9.44769 19
469 1 2.01064 -13.7102 -7.70736 14
470 1 -13.3814 -6.62858 7.14165 13
471 1 -2.49717 -15.1062 -5.37152 14
472 1 -12.5815 -4.77354 9.37432 14
473 1 13.2977 5.64376 -6.42664 9
474 1 -11.8144 6.0805 5.66403 11
475 1 10.5216 -2.31301 4.36964 18
476 1 1.6405 8.92552 -4.54885 19
477 1 7.15351 0.96945 -8.82019 24
478 1 6.65593 1.1879 -5.54154 23
479 1 -16.6998 -0.426709 -6.01596 9
480 1 -13.1321 -4.67587 -7.21664 8
481 1 2.98475 3.71448 -10.6502 17
482 1 -2.5778 -1.83531 12.8375 18
483 1 -0.443147 -6.83896 10.8082 19
484 1 2.95834 -10.3306 -14.2741 12
485 1 -6.37503 10.2307 -2.41475 17
486 1 6.98667 9.12018 5.71891 24
487 1 -8.74291 -8.06996 2.37252 19
488 1 7.03052 5.54555 -13.0687 10
489 1 -0.165753 -15.3188 -3.45109 15
490 1 5.34711 8.72514 -9.28319 17
491 1 -5.02403 0.465635 -12.4642 23
492 1 0.124406 -1.24153 13.8089 18
493 1 -1.02819 5.61518 -15.3481 8
494 1 -12.4786 -3.87812 -0.758319 19
495 1 11.9097 8.24271 -5.85179 13
496 1 10.4637 -7.61116 0.498596 18
497 1 -3.60836 6.33168 14.6185 10
498 1 4.29557 -10.1611 5.52824 21
499 1 13.503 -7.18231 1.28329 11
500 1 10.2367 -4.99052 9.04062 13
501 1 1.84723 9.42105 6.22004 21
502 1 -5.696 5.83411 12.4529 13
503 1 -3.92758 -11.9619 6.7991 14
504 1 4.44568 9.79836 10.8138 17
505 1 -15.1007 -3.42821 1.96007 12
506 1 7.77846 -8.27233 -0.886479 20
507 1 4.58605 1.20489 12.788 17
508 1 -0.292585 9.95493 4.20603 20
509 1 1.53381 -11.4699 3.71546 22
510 1 1.24155 3.00466 12.5552 19
511 1 4.6822 9.98628 0.805672 21
512 1 -11.347 -9.58759 1.11203 22
513 1 7.64037 -4.90515 7.15208 18
514 1 8.15021 -2.30262 6.01267 20
515 1 7.28136 6.5543 7.13494 21
516 1 -0.772673 -7.20174 -8.70754 20
517 1 -6.29628 3.84018 -12.6977 12
518 1 -5.47247 -5.18983 12.7474 16
519 1 -0.21727 13.0331 6.00656 18
520 1 13.1128 4.52411 6.15337 16
521 1 4.24906 7.07335 -7.69551 22
522 1 -2.43984 3.56455 16.3369 11
523 1 7.7307 6.38651 10.4061 20
524 1 7.96952 -2.72507 -13.8399 10
525 1 -8.05247 -10.8489 0.900639 15
526 1 13.7751 0.141198 10.3952 11
527 1 2.19511 -2.3327 -10.8266 20
528 1 14.2217 -2.33339 1.51692 15
529 1 1.41728 -8.21816 12.7382 17
530 1 -4.68797 -10.5065 -14.8741 10
531 1 11.6133 8.30094 1.126 19
532 1 -12.9062 2.55959 7.93111 14
533 1 9.77451 1.42515 -3.95618 18
534 1 2.25453 -7.83252 -16.6343 9
535 1 -7.86151 9.08033 6.88945 14
536 1 4.02524 1.04572 -14.9428 10
537 1 9.64438 -5.17913 -1.38374 21
538 1 -12.875 1.30379 2.27375 22
539 1 9.0379 8.01168 4.13624 16
540 1 -12.8987 -12.1543 1.06202 12
541 1 4.05875 4.25201 10.8637 21
542 1 -9.60185 1.43237 -2.59917 22
543 1 -11.0924 1.14115 10.3509 15
544 1 -2.65129 5.87168 -9.52283 19
545 1 7.10024 -10.481 -8.93503 10
546 1 -12.0374 -10.1902 -4.36 12
547 1 11.8734 -10.2249 -0.220669 10
548 1 -14.1735 4.4577 3.54874 11
549 1 -9.51605 -5.06484 -2.75535 22
550 1 -5.91512 -6.65076 7.33392 19
551 1 12.5929 -3.57029 6.06831 11
552 1 9.93626 0.682213 5.84751 22
553 1 -15.5878 1.26354 3.14943 11
554 1 1.70174 12.0568 11.1693 12
555 1 2.54331 8.14047 -10.4617 13
556 1 -3.68317 11.5954 8.24319 14
557 1 9.7543 10.2339 -6.00377 11
558 1 0.0241638 7.78312 13.5693 13
559 1 4.94176 -7.01586 10.2444 20
560 1 4.32676 12.1363 -8.24546 11
561 1 -8.62162 -1.06331 9.23043 17
562 1 -4.39501 -5.04266 -8.74708 21
563 1 -15.9033 3.22685 -6.57262 9
564 1 -2.56434 -9.60215 8.1949 17
565 1 4.99506 -1.49882 10.3432 20
566 1 -2.05639 -12.6621 -3.33407 19
567 1 -14.7189 4.47509 -3.47724 11
568 1 7.74025 -1.91783 -7.29051 21
569 1 -6.65486 6.96244 2.4742 21
570 1 -7.24676 1.47642 8.58592 18
571 1 -7.83858 -13.4769 -8.117 10
572 1 -0.051547 -12.68 -5.96492 18
573 1 7.33782 -14.317 0.836407 14
574 1 -0.157244 8.88742 -10.711 16
575 1 10.5309 -2.08741 -5.72715 15
576 1 9.60086 5.79239 2.16649 18
577 1 10.3877 -2.40075 0.909266 21
578 1 -3.06831 3.32486 -14.3983 15
579 1 0.383877 -10.2758 9.67962 23
580 1 4.83659 9.84243 -5.99945 22
581 1 4.61669 1.13063 -10.59 18
582 1 -13.5357 7.65567 -2.04359 11
583 1 -8.04291 -9.25369 9.31804 11
584 1 4.28089 7.33893 5.51962 22
585 1 3.69048 -17.3337 3.75425 10
586 1 4.6512 9.90866 -2.48501 21
587 1 -3.43634 6.11909 10.5224 19
588 1 -5.21472 -3.0918 14.5739 13
589 1 -0.170461 -4.50689 12.256 18
590 1 3.74157 -14.109 3.91685 19
591 1 10.2729 3.84324 7.67008 23
592 1 6.59172 -4.43116 -5.78003 19
593 1 -9.43277 -0.87469 -11.511 11
594 1 -7.79032 10.4402 -7.43694 14
595 1 -13.2218 5.59177 -5.38073 16
596 1 11.306 10.7164 -0.832934 11
597 1 -3.48452 9.22384 5.94017 22
598 1 -9.08893 -12.4614 -5.22178 11
599 1 12.9086 2.50651 12.7387 11
600 1 9.59867 0.807556 -6.96343 19
601 1 8.43721 -11.3054 1.23399 14
602 1 3.24989 -4.31481 -13.5729 16
603 1 -10.0897 1.98549 -9.3703 17
604 1 -9.11927 -4.65613 0.48525 24
605 1 0.297396 2.26669 15.1623 18
606 1 11.0304 -2.21116 11.1709 12
607 1 -10.156 -10.647 3.58429 19
608 1 12.8903 1.46154 0.593903 16
609 1 -3.62514 3.36109 -11.0598 22
610 1 12.7207 6.74989 3.67887 16
611 2 -8.6756 0.968198 -4.27713 22
612 2 -10.5804 14.183 -4.64534 7
613 2 1.07109 -1.14651 -12.3115 20
614 2 -3.07462 4.57778 13.3429 20
615 2 -7.861 -6.71871 -7.14246 17
616 2 0.358526 1.19984 12.1669 21
617 2 -13.4995 -12.5715 2.87423 10
618 2 -11.7129 6.81032 -9.10386 10
619 2 2.85343 17.1723 5.60038 6
620 2 -9.58481 -1.58563 4.35908 20
621 2 12.5797 3.41634 7.5979 18
622 2 -9.66798 -7.66326 -5.39794 18
623 2 -4.10844 -6.41265 8.34661 18
624 2 2.80504 1.98971 12.7852 19
625 2 7.44325 -4.50181 -13.182 13
626 2 4.12185 -17.3861 1.85418 12
627 2 -6.55008 9.20758 -0.616808 20
628 2 -13.3272 4.68475 -7.67292 12
629 2 9.81405 2.88492 9.23445 16
630 2 6.46903 -12.6573 -5.14775 12
631 2 -8.78947 -12.7843 -0.51237 12
632 2 -8.81376 -4.50759 5.58836 17
633 2 -2.61823 -14.5359 3.20853 13
634 2 7.25868 -1.40894 7.8321 19
635 2 -0.0159508 -13.6431 -8.29491 14
636 2 4.42394 -2.82793 16.0867 9
637 2 -0.678427 11.4691 -8.51111 13
638 2 -8.75029 -12.7631 -3.4014 11
639 2 3.11837 4.1481 14.617 15
640 2 -8.45442 6.98617 2.45235 16
641 2 -0.610815 -0.568106 17.2332 13
642 2 -9.04318 6.68903 -7.06747 20
643 2 5.39994 -13.3648 4.30031 15
644 2 -3.27665 7.06382 5.47299 22
645 2 0.540902 13.6323 -6.47366 12
646 2 0.600948 -7.58855 -15.5905 13
647 2 6.79304 -2.54866 -9.09303 22
648 2 -3.66956 4.97367 15.9919 8
649 2 4.43817 2.67702 -14.2874 10
650 2 -1.49046 8.92054 -12.2841 10
651 2 9.76903 6.64043 -2.88642 22
652 2 -5.23495 -6.67935 13.8183 12
653 2 -11.7483 2.03565 6.22512 16
654 2 9.99949 -1.04318 -7.12775 16
655 2 -1.50142 -12.662 -11.5745 14
656 2 -13.722 -10.3468 5.35566 11
657 2 12.4886 11.5532 2.68276 11
658 2 -2.91838 9.84446 7.90906 20
659 2 -7.13507 -12.1577 -9.2251 13
660 2 -2.6925 12.9174 8.94591 12
661 2 2.4744 -7.5976 14.5572 12
662 2 -12.9569 4.0176 -3.826 17
663 2 10.3497 -11.2058 0.629364 12
664 2 9.26664 -12.4999 -2.35503 14
665 2 7.6966 7.15276 5.43082 21
666 2 5.31711 -10.3773 3.94003 19
667 2 9.99236 -1.47201 6.01841 20
668 2 -4.03992 -4.36131 15.8311 13
669 2 13.568 -5.77479 0.0117672 17
670 2 0.430336 9.16572 8.64758 19
671 2 10.7823 7.5289 11.8568 13
672 2 -6.81939 5.76727 10.8059 16
673 2 8.00031 9.66947 4.10664 15
674 2 12.8229 -6.39952 3.05387 15
675 2 2.1152 6.82322 -8.00646 21
676 2 -9.0722 -3.71463 -8.14613 15
677 2 -5.86415 -1.35235 14.422 13
678 2 5.31327 0.551585 -8.84656 22
679 2 -9.82705 3.99664 -5.92413 21
680 2 -15.0212 -1.43697 7.22451 13
681 2 -11.6917 -10.6731 -2.59576 11
682 2 14.9598 -0.743083 2.90092 15
683 2 2.17906 -4.77809 15.888 12
684 2 7.04426 -1.72554 -12.3806 19
685 2 4.87944 1.7119 14.6205 11
686 2 -2.01541 7.70253 10.5577 22
687 2 1.09132 -7.94273 -8.81283 18
688 2 10.6008 -5.42642 -2.99998 20
689 2 -9.02231 9.89707 5.24877 11
690 2 -1.10478 -10.8033 1.13217 21
691 2 6.38837 -10.445 -7.01967 17
692 2 6.14262 -8.05723 -5.77428 19
693 2 4.42657 -2.41243 9.01526 22
694 2 -5.53991 -11.3644 5.51672 13
695 2 12.2924 -2.87866 1.37869 17
696 2 -8.22879 -12.886 5.49998 10
697 2 6.25047 5.84694 -7.93227 21
698 2 11.6778 -8.47084 -6.01253 8
699 2 1.79605 -13.0662 -5.92222 16
700 2 9.89139 -7.4274 2.37672 19
701 2 -4.08181 12.4046 6.51913 15
702 2 10.9252 0.983923 -8.76341 12
703 2 -4.38407 -7.16182 -8.33727 20
704 2 -9.72638 -10.4433 1.51004 18
705 2 -3.3132 9.98815 0.646104 21
706 2 -10.3988 6.58386 4.58869 12
707 2 8.0145 7.09444 2.49986 20
708 2 4.12646 7.40405 -9.79728 17
709 2 -2.57837 1.73033 12.5919 17
710 2 -1.76156 -2.4955 -13.986 18
711 2 -12.6908 3.70744 -0.655695 15
712 2 -1.69907 -0.461187 13.9583 18
713 2 -11.5491 2.9532 9.20062 15
714 2 6.94833 12.311 5.16286 15
715 2 9.61004 3.44282 -3.68277 17
716 2 9.45503 -7.33335 -1.36244 20
717 2 -11.2906 -5.71136 11.0758 10
718 2 1.75607 9.91251 4.17573 19
719 2 -9.17216 16.2056 -1.45232 7
720 2 -5.72189 5.71204 7.53812 20
721 2 8.41325 -4.33468 8.89548 17
722 2 -8.98536 -9.0484 -8.66919 13
723 2 5.16676 5.73372 -13.6352 10
724 2 12.5836 9.72355 0.221617 12
725 2 -9.72719 -8.52525 9.38236 10
726 2 5.15979 8.90088 -0.89152 22
727 2 -11.8753 12.2241 -2.70786 8
728 2 3.03312 14.219 -4.91983 10
729 2 9.97156 -1.03097 12.3538 14
730 2 -0.416332 6.42757 7.66773 21
731 2 12.2207 -8.33231 0.644274 14
732 2 -1.45601 -3.32158 16.9138 9
733 2 1.9243 -1.41614 10.6882 21
734 2 -16.0102 -0.512284 -1.08999 12
735 2 -7.14441 -8.19172 -13.4624 15
736 2 7.20758 -14.5179 -2.61446 12
737 2 3.14084 -5.46092 -8.79768 21
738 2 12.7522 3.92563 4.24928 16
739 2 -3.35127 -0.832062 15.8641 13
740 2 6.05136 1.48631 -11.7426 21
741 2 -1.81968 -5.46806 11.7967 22
742 2 -4.66496 -1.40358 -12.3223 21
743 2 -1.33632 -11.1843 -5.7694 21
744 2 6.4856 -15.9814 0.805701 14
745 2 12.9769 6.80493 -4.946 12
746 2 -6.3936 6.00217 -9.66244 19
747 2 -0.911457 11.7683 4.3185 19
748 2 -6.98512 -7.76426 -0.629935 21
749 2 -11.0462 -1.10375 -8.18991 17
750 2 5.52433 8.48849 -7.08257 19
751 2 2.57086 9.4121 -2.38524 22
752 2 -5.53983 -15.2868 0.992864 11
753 2 13.104 0.665502 5.72911 16
754 2 0.460041 4.01452 14.152 19
755 2 -4.8993 -15.1235 -5.35074 12
756 2 1.39223 -10.2904 -3.85285 20
757 2 1.56297 1.88632 16.4738 12
758 2 4.73333 13.0959 5.89897 19
759 2 10.2675 1.98934 -5.76866 17
760 2 4.59468 5.28729 12.22 19
761 2 9.29299 9.68697 -7.75814 12
762 2 -14.0787 -5.16607 8.32165 12
763 2 6.74049 -7.24933 -2.41012 18
764 2 0.6193 13.7801 3.20837 16
765 2 -3.67004 6.97385 -11.1105 17
766 2 5.68898 -7.93648 14.043 10
767 2 -8.72281 12.6558 2.8586 14
768 2 -1.1814 -6.51396 9.17225 22
769 2 7.09246 -8.969 8.70626 15
770 2 -6.04153 -14.4567 -8.21734 12
771 2 -8.60303 11.2762 -5.99907 10
772 2 -5.91676 -9.76189 -9.20092 21
773 2 -2.05241 -16.2761 -3.93836 12
774 2 -6.11618 1.93802 -13.0266 15
775 2 -4.05491 -8.70369 -11.3123 20
776 2 5.89706 11.0351 10.9595 12
777 2 -9.97947 -6.96248 -2.38777 21
778 2 -14.558 1.46829 1.14655 17
779 2 10.3974 -2.98214 9.46102 17
780 2 -11.1734 5.86724 7.75606 11
781 2 -3.39621 -13.2657 -1.91964 18
782 2 -1.58823 2.31732 15.3949 18
783 2 1.39284 -1.57516 -8.81001 20
784 2 -6.30479 0.909635 -9.59619 20
785 2 4.79555 3.68066 -9.87506 20
786 2 14.0824 -1.33215 -2.44471 11
787 2 -7.51635 -2.14131 -11.1306 17
788 2 -13.3913 4.81858 1.89125 11
789 2 -8.06069 11.2944 -1.61543 18
790 2 -2.91406 -0.975078 11.086 15
791 2 5.88178 -5.35917 -9.8265 16
792 2 6.61985 10.5308 8.2547 16
793 2 4.22148 -7.73897 8.75727 20
794 2 -1.77273 -2.60356 -10.8993 21
795 2 12.3326 4.28464 12.968 11
796 2 6.91698 -1.78719 -15.0686 10
797 2 -1.92092 -7.2115 -6.89497 22
798 2 1.10033 7.51856 -11.2183 15
799 2 5.56574 13.4564 8.39421 12
800 2 9.52572 3.8608 5.87606 21
801 2 -9.82708 -7.37811 6.02692 18
802 2 -15.0973 0.385766 4.73554 14
803 2 -0.419847 -11.1132 3.88238 17
804 2 -6.22265 -7.76792 5.71658 19
805 2 0.503735 -11.8618 10.6598 13
806 2 -8.70305 13.3875 0.559606 17
807 2 1.14569 -10.649 -13.4007 14
808 2 -13.4415 -3.00677 4.00612 14
809 2 5.42311 -5.0718 7.34932 20
810 2 -6.28308 -10.8159 -0.0120854 13
811 2 -6.25271 -4.90155 7.85192 16
812 2 9.58557 -6.40094 9.97189 11
813 2 0.153865 9.44443 -6.32812 20
814 2 7.51039 9.53757 0.592804 17
815 2 9.38752 5.29105 -5.89556 21
816 2 -0.778886 14.7376 -0.580619 14
817 2 -9.7775 -1.94006 -5.92457 19
818 2 9.82484 11.0543 4.07582 14
819 2 -10.3588 -10.4454 6.71405 15
820 2 -11.9828 1.31948 0.5577 18
821 2 -6.45943 14.4309 -1.21544 17
822 2 -1.06214 -13.8501 -4.61597 17
823 2 1.38931 -7.09163 7.63132 24
824 2 10.3145 -7.34884 5.2542 15
825 2 -5.51012 14.3452 2.88399 13
826 2 -14.7213 -3.02528 -2.583 15
827 2 10.4905 11.7287 0.618553 12
828 2 -12.9324 -7.50521 5.35923 16
829 2 -7.38518 9.09336 -3.7044 17
830 2 0.221047 -1.14803 -15.3508 12
831 2 -4.29484 -16.5635 -2.02995 10
832 2 4.06121 -5.51397 10.9521 16
833 2 2.48885 10.8864 7.54005 19
834 2 -0.229165 -2.30722 12.348 17
835 2 3.0429 9.01683 -5.76439 18
836 2 -5.00345 -6.70839 -5.66244 23
837 2 12.4632 9.9513 5.70976 10
838 2 -6.99363 -1.91325 8.8285 16
839 2 7.7295 10.6291 -6.00201 17
840 2 9.39155 3.92198 2.80896 19
841 2 9.14317 -3.66621 11.9024 12
842 2 7.0427 -7.49486 3.7768 20
843 2 -10.956 -6.13324 3.05088 19
844 2 -0.847275 -13.346 5.93315 16
845 2 -3.89219 10.458 3.89315 21
846 2 -3.86215 -9.48024 6.75662 17
847 2 -12.8981 -2.7118 8.54465 14
848 2 -5.92724 7.41114 -6.07928 20
849 2 -5.47093 -10.3615 -3.00105 21
850 2 -2.82443 -11.7408 8.45358 13
851 2 -1.84883 6.94949 13.9952 14
852 2 2.5877 1.54464 -10.9506 22
853 2 -8.49089 -3.81206 2.27627 21
854 2 4.66033 -11.0424 -2.37319 18
855 2 2.17693 -15.809 -3.8254 10
856 2 1.80335 -10.0359 -0.871428 20
857 2 -5.73729 8.79157 2.43058 20
858 2 -11.2531 0.908014 -5.2255 17
859 2 -5.72798 -6.24133 -15.2898 12
860 2 3.55246 -14.3853 1.89038 22
861 2 -10.5167 11.7032 -0.236666 11
862 2 5.35342 6.66482 6.99181 21
863 2 -0.612976 0.975755 -12.8634 17
864 2 14.4531 -4.74309 -2.99685 14
865 2 -11.9025 -0.266122 9.40217 17
866 2 -1.26813 8.68183 -8.84203 20
867 2 9.13464 3.08448 -11.2586 15
868 2 -10.5173 8.66453 -3.83704 15
869 2 -1.27089 -14.27 0.958359 14
870 2 -1.33823 -9.09537 -12.8645 17
871 2 -1.77437 12.1195 -2.50609 18
872 2 -6.63912 -4.12981 13.6998 14