ITEM: TIMESTEP
3000
ITEM: NUMBER OF ATOMS
2000
ITEM: BOX BOUNDS pp pp pp
-30.0 30.0
-30.0 30.0
-30.0 30.0
ITEM: ATOMS id type x y z Coordination
1 1 -7.79389 3.69499 -14.6119 12
2 1 -0.206716 -10.8149 -4.61148 20
3 1 5.76845 5.76746 14.6881 22
4 1 7.92688 -10.9253 6.52486 11
5 1 -8.46706 8.51424 1.76323 19
6 1 13.0 -9.54498 -7.64232 12
7 1 -10.4678 2.5087 -6.78026 22
8 1 2.78983 -7.43142 9.02909 23
9 1 -7.28471 2.31148 -11.2293 16
10 1 -14.4292 -7.35545 6.24522 13
11 1 13.3075 4.73982 -11.0485 12
12 1 -1.52905 -12.0098 4.43802 19
13 1 -9.55882 -6.47805 5.7349 19
14 1 4.41274 0.0807911 17.7311 11
15 1 1.97944 4.04054 11.1234 20
16 1 -2.57939 9.63119 -7.898 18
17 1 1.46986 -2.9938 16.5385 11
18 1 -5.68455 -5.71161 -10.6589 20
19 1 -12.3271 -2.83443 12.3875 16
20 1 11.6957 6.761 7.27676 18
21 1 1.18087 10.6673 -10.8194 20
22 1 3.49172 -0.156006 -14.8351 20
23 1 17.2878 0.497542 2.64974 13
24 1 -10.1433 4.60673 -9.281 21
25 1 -1.52732 -1.98966 -8.49324 23
26 1 -12.2636 11.4997 10.2167 7
27 1 6.49965 -13.8335 4.98199 15
28 1 5.54631 -13.3322 -7.34137 18
29 1 4.31452 -12.4813 -2.40426 19
30 1 -5.76647 -11.4795 -8.42737 16
31 1 -13.2641 -6.34366 11.4197 11
32 1 2.0648 -8.66675 -13.6684 17
33 1 7.974 -8.78489 -8.63583 18
34 1 -1.56339 5.12173 -17.116 8
35 1 3.71827 4.0678 13.881 20
36 1 1.13118 -10.1717 9.54343 17
37 1 4.85248 -6.1114 12.1056 17
38 1 -17.4713 4.49113 2.54263 11
39 1 -16.8283 -2.3258 8.62301 11
40 1 -10.853 0.016659 1.14428 18
41 1 -2.93828 12.5276 -2.98061 22
42 1 -1.1754 -15.3777 -11.588 12
43 1 2.78506 -3.46908 -11.4604 22
44 1 1.47174 -6.52385 -11.4432 19
45 1 -0.992214 -0.769752 16.235 13
46 1 -10.1982 5.46767 1.80678 19
47 1 3.70079 10.634 -13.5696 11
48 1 -0.366526 11.8315 6.87982 17
49 1 -6.39636 5.234 -9.60149 19
50 1 -1.13816 13.7654 -0.355339 16
51 1 7.81932 -11.6871 0.892298 18
52 1 6.54175 -5.10897 -3.54605 21
53 1 4.20141 -5.65845 -14.1434 19
54 1 -11.0423 9.81626 11.9874 13
55 1 -12.7977 -2.93257 -8.18707 17
56 1 8.6138 -2.0901 1.72097 19
57 1 -8.80107 10.5633 -1.61345 22
58 1 -9.3921 -10.0429 4.93239 21
59 1 -1.89981 10.5161 11.2098 19
60 1 -12.241 7.30044 -8.46193 11
61 1 -7.12647 10.4616 13.4296 12
62 1 -8.06142 -12.5818 4.84577 22
63 1 3.88893 6.2149 5.76698 24
64 1 3.23689 -14.7416 -7.19387 18
65 1 5.48048 13.3 12.7209 15
66 1 -14.2066 0.977189 -7.88156 12
67 1 -11.2748 6.80912 -11.9156 12
68 1 7.01412 7.99639 16.5996 11
69 1 13.2397 -1.39036 -12.505 10
70 1 9.69785 -10.3077 3.7432 15
71 1 -16.5602 -1.88221 1.17408 15
72 1 7.70584 15.2277 8.03599 17
73 1 7.82904 -0.737051 16.7313 9
74 1 -10.5047 -13.1515 6.33761 14
75 1 -13.9554 0.529879 -4.3244 16
76 1 13.3352 0.639674 8.54627 20
77 1 8.35808 -2.11431 -3.53796 21
78 1 -5.49197 10.4703 10.5112 18
79 1 7.06264 -0.132772 6.99644 19
80 1 -3.35464 -4.72215 -8.69724 23
81 1 -13.1276 8.251 9.53597 16
82 1 -9.51104 13.7883 -1.98457 17
83 1 -4.86414 8.99714 -9.53174 19
84 1 8.53454 0.0913657 -6.06889 18
85 1 7.75737 13.5716 -5.98283 15
86 1 7.17844 -5.15203 1.48326 21
87 1 5.50941 -8.488 6.67138 19
88 1 -5.83469 12.3994 -3.40336 18
89 1 -9.04679 15.6882 0.830269 11
90 1 -11.2551 -4.35082 7.40834 19
91 1 -3.61558 7.84343 5.17153 22
92 1 -4.38192 -7.00095 9.35048 17
93 1 15.1621 -9.91189 -4.73305 14
94 1 -10.9291 0.964327 5.9669 20
95 1 -11.9021 -11.1335 4.1199 12
96 1 9.91062 -9.97821 -6.61636 21
97 1 5.38517 -0.0327577 -11.1784 17
98 1 -7.35373 -7.44585 -14.7844 12
99 1 0.311203 13.6016 4.54899 20
100 1 -8.93683 7.56377 -14.2899 11
101 1 5.30371 6.00675 18.5274 9
102 1 0.0386529 12.1494 -3.01822 19
103 1 -11.0784 9.97191 0.72014 15
104 1 -0.0757652 12.1624 1.94239 18
105 1 -3.55959 -6.21414 11.9054 14
106 1 16.5432 4.62301 5.75181 9
107 1 -1.99876 -6.15342 -6.16815 19
108 1 7.67949 -5.32363 -8.31294 19
109 1 -1.48283 4.62675 10.8479 18
110 1 9.21766 1.71115 14.5271 17
111 1 -8.0222 -6.56824 -0.478455 23
112 1 -7.37943 -7.93198 -4.93536 21
113 1 11.8076 -8.44417 2.56464 15
114 1 -1.4553 8.78956 2.28806 23
115 1 2.13016 -0.425495 -11.3711 20
116 1 2.18531 16.5665 -1.42556 15
117 1 -7.82476 -14.4807 7.38746 13
118 1 -10.3049 -16.1611 4.92189 10
119 1 5.36042 -9.14682 -14.1558 12
120 1 1.99216 9.07774 -8.75432 19
121 1 11.1186 -10.5898 0.876624 11
122 1 -1.73849 -17.1803 4.42162 16
123 1 -7.85351 -6.62453 3.28557 19
124 1 14.4042 7.17648 10.183 14
125 1 14.9999 -4.70034 -7.9578 12
126 1 -15.1403 -4.00112 3.10516 17
127 1 6.95589 7.97273 4.90804 18
128 1 13.3863 5.67375 2.39934 20
129 1 -6.44586 5.77503 16.7222 12
130 1 -4.14716 8.69219 12.6851 16
131 1 -2.91682 12.8056 -8.49898 18
132 1 -0.421832 -5.88329 -8.90777 21
133 1 8.09922 -9.19654 -12.0351 11
134 1 1.61846 13.5491 -11.2112 17
135 1 7.7711 -5.32358 11.0103 15
136 1 -2.6359 -2.73748 -16.8596 14
137 1 -3.23472 8.13141 -5.55082 21
138 1 8.43107 5.15287 -5.89577 19
139 1 -8.08185 11.1386 -6.15972 18
140 1 -7.72702 16.7445 -2.52734 10
141 1 6.54808 0.643708 -8.69139 20
142 1 10.2284 -8.37808 5.71731 15
143 1 -11.3529 5.36519 -6.33118 19
144 1 -9.07771 13.8269 6.45195 14
145 1 15.5399 7.01284 -6.59893 8
146 1 6.52434 12.3627 -3.26935 17
147 1 -3.09739 17.3877 1.41892 12
148 1 10.2955 11.0996 -1.69127 13
149 1 -1.69208 9.15533 -2.77929 23
150 1 -1.49431 16.4388 -12.0449 8
151 1 3.48889 8.01118 -11.2838 19
152 1 -11.0503 -8.02116 3.00473 19
153 1 -11.3867 9.64987 -2.64564 17
154 1 -7.02788 -4.81928 -13.4304 16
155 1 6.11634 -11.0989 -10.2176 18
156 1 11.7041 12.4843 10.2563 11
157 1 1.81622 11.9136 11.861 15
158 1 -14.0735 3.14847 -5.96509 10
159 1 -9.71189 13.2655 1.76114 14
160 1 16.7096 -1.02014 -3.71845 16
161 1 -8.55774 0.577167 -16.1897 7
162 1 5.43104 1.31302 15.1919 17
163 1 10.8376 12.9822 1.29636 15
164 1 -2.7963 7.76906 10.5108 20
165 1 3.65117 -11.8125 -12.6815 14
166 1 -6.76765 15.9265 5.48596 12
167 1 0.442847 12.1974 -8.33765 21
168 1 2.9289 -3.73825 12.6615 20
169 1 -9.36069 -6.95439 8.79954 18
170 1 1.49786 -14.3187 -12.7842 9
171 1 -7.40685 10.6313 -9.63779 17
172 1 -2.95647 -9.52413 3.59001 18
173 1 2.11514 -14.3221 -4.18277 20
174 1 -3.3533 13.9515 -12.1825 14
175 1 -15.3409 3.63376 10.6928 15
176 1 12.1795 8.3127 -4.30159 15
177 1 -8.8191 8.53852 16.0254 11
178 1 1.4308 -6.73028 11.8862 10
179 1 -6.47775 6.32227 -3.41792 22
180 1 2.88202 16.4821 4.68763 15
181 1 0.120314 5.68657 6.78088 19
182 1 16.2307 2.09106 11.2841 11
183 1 -9.07005 16.4564 4.05531 12
184 1 10.6025 -7.10942 -6.85744 16
185 1 -8.69903 11.1045 10.4981 15
186 1 -8.19665 5.38637 -6.50348 18
187 1 14.9816 -7.75638 2.51207 10
188 1 -7.58931 -8.9443 7.90571 21
189 1 -16.4588 2.46675 4.89522 17
190 1 -9.58043 -8.25172 0.601162 19
191 1 10.7405 4.28731 16.5225 12
192 1 -13.4668 1.98267 -1.23307 17
193 1 -0.11689 -14.6898 0.339922 17
194 1 4.96228 -8.22347 -4.05147 23
195 1 -1.58658 10.6627 4.31098 18
196 1 4.62404 10.8088 9.79482 20
197 1 -8.04483 -0.858451 -5.92294 21
198 1 -1.66611 11.8591 -10.7478 19
199 1 -11.899 -2.51075 -4.42541 19
200 1 -10.0533 -2.58601 10.2188 21
201 1 -0.329481 -14.3353 5.75594 16
202 1 3.09256 -14.3861 6.12511 16
203 1 -12.3627 11.3122 3.5451 12
204 1 16.757 3.01902 -2.95014 15
205 1 8.68104 3.46783 -3.33326 22
206 1 -5.91499 -10.4133 -14.5369 11
207 1 3.26886 -1.66251 10.0012 19
208 1 7.43122 -16.3286 3.88188 9
209 1 -2.4151 8.51242 -11.0576 20
210 1 6.26852 -10.2487 -6.44783 21
211 1 11.0265 -0.562263 -15.0172 11
212 1 1.63519 4.21078 -16.0917 11
213 1 -6.45817 -3.27641 -6.13689 23
214 1 -1.54443 14.5443 -6.02531 18
215 1 -8.68249 -11.4464 7.98621 15
216 1 8.71265 16.6921 -0.858175 12
217 1 -9.27603 4.98795 15.4654 15
218 1 -5.21614 10.9748 -6.50928 23
219 1 12.4415 0.242587 6.08677 21
220 1 -1.54871 -6.86842 -13.9509 22
221 1 -4.17699 11.4413 -11.3216 18
222 1 3.24705 2.81022 -11.1237 20
223 1 -6.40543 -9.75603 5.17365 19
224 1 -13.5776 6.73717 6.15054 15
225 1 -8.35853 7.95828 8.29918 19
226 1 3.68586 -10.8569 -9.11909 19
227 1 -6.64628 -10.6724 2.2498 19
228 1 10.0579 -10.6538 -1.92424 19
229 1 12.883 6.56645 15.1245 9
230 1 5.43126 8.84473 -8.45842 20
231 1 -1.55225 10.7707 -0.43013 23
232 1 -12.6736 -4.8342 4.45742 23
233 1 -12.9129 13.0276 -3.97396 9
234 1 2.63212 5.55075 8.50808 20
235 1 4.64663 -17.0809 0.322474 13
236 1 11.6897 -0.26476 -1.89655 18
237 1 3.53799 9.28138 3.97326 20
238 1 -8.5357 5.25524 9.60472 21
239 1 -12.8885 -5.15632 -6.13334 15
240 1 6.31142 0.899104 -15.077 16
241 1 5.34048 -1.74547 12.317 16
242 1 7.87215 9.43398 -10.0988 15
243 1 2.73701 -11.0918 -4.94608 21
244 1 -5.23411 1.36945 -14.0598 20
245 1 1.20374 -17.1748 4.90293 13
246 1 15.656 1.35333 -5.40385 19
247 1 -7.90277 -3.78378 7.74465 21
248 1 4.21445 -17.7873 -2.87586 9
249 1 -9.80602 -3.30615 -6.39675 20
250 1 3.29509 13.552 0.261013 18
251 1 3.14506 -3.24277 -16.0388 20
252 1 6.68436 2.7585 12.5724 16
253 1 12.164 2.71787 -3.53606 17
254 1 11.4423 0.431941 -7.67768 19
255 1 -8.604 -2.50517 -8.85985 20
256 1 -10.6525 1.19166 -9.60591 16
257 1 -7.40949 -16.3352 4.60822 13
258 1 12.2489 -1.71705 9.60076 18
259 1 5.26721 -2.72486 6.96561 19
260 1 -2.54521 -7.10239 -11.3234 20
261 1 1.77291 -8.54299 6.12706 22
262 1 2.53737 5.20662 -13.5538 16
263 1 2.86073 11.6312 2.17272 20
264 1 -6.157 -5.57497 1.85243 22
265 1 -2.12853 14.2387 6.4921 19
266 1 -8.39483 -2.3444 12.5571 16
267 1 -12.3318 -5.37971 -10.3091 10
268 1 -7.60634 -8.54529 -11.8644 13
269 1 -1.16918 12.0454 -16.2081 11
270 1 -3.54277 -9.50374 -6.34513 20
271 1 -5.00331 -11.8624 4.51576 17
272 1 7.48398 -7.22219 -14.2994 13
273 1 13.4776 0.800615 -10.4104 16
274 1 13.6299 2.14834 3.8066 20
275 1 -11.3005 -8.87481 11.84 7
276 1 -1.35048 -8.21009 1.47269 20
277 1 12.7252 0.117324 14.906 14
278 1 -6.40787 -16.1774 0.103331 14
279 1 2.17334 -15.9155 -1.44348 18
280 1 -4.88902 15.4514 -3.52569 17
281 1 7.71642 2.26377 -11.7016 21
282 1 -4.16183 -8.24898 -15.9391 15
283 1 -10.3012 -5.37224 11.9558 13
284 1 8.08195 4.89773 19.0962 6
285 1 1.24265 -13.2104 3.61039 16
286 1 -2.48927 -10.9412 -10.4342 19
287 1 -8.16641 7.46513 -9.98088 17
288 1 11.3331 3.41484 7.78503 19
289 1 -8.2694 3.15733 -8.41074 17
290 1 -0.222036 4.71619 -10.801 17
291 1 4.69931 -16.1676 -4.99086 17
292 1 -7.87697 13.929 -4.44086 13
293 1 -0.767947 13.7425 9.44968 13
294 1 13.7116 2.85624 6.86889 19
295 1 -8.80879 -1.53077 5.95874 16
296 1 -0.278133 -3.42161 13.6943 15
297 1 -6.88786 5.83318 1.39162 21
298 1 4.88981 -7.8168 -8.25529 20
299 1 12.8398 9.62354 -6.71409 10
300 1 1.94595 -9.01144 0.736385 16
301 1 -0.960163 2.69302 16.2154 13
302 1 -17.0578 0.963766 1.85347 17
303 1 -0.524595 -15.1488 -3.38104 20
304 1 -10.3221 6.56061 11.2627 20
305 1 -11.1972 6.47066 14.0606 14
306 1 -15.5061 -2.31073 11.068 11
307 1 -15.5342 -5.54119 8.83337 13
308 1 16.7726 -4.42414 -5.3118 13
309 1 -11.4456 -9.69139 7.93768 15
310 1 7.25741 -2.66463 -10.0976 19
311 1 9.11642 -11.7036 -9.66547 12
312 1 -0.327754 18.5741 0.266125 10
313 1 -10.0056 11.9756 -4.1918 22
314 1 8.86588 5.69779 9.42388 20
315 1 -12.7993 -1.67357 3.87666 21
316 1 11.7718 -8.42953 -1.22224 17
317 1 -5.01162 8.83415 2.08217 18
318 1 -5.84742 9.97281 5.3157 18
319 1 3.61706 -10.4851 8.61367 17
320 1 13.0543 -4.40889 7.57412 18
321 1 -3.18378 5.67796 7.9806 22
322 1 -6.57572 -5.52574 -3.80403 19
323 1 -4.01655 1.02335 15.8705 15
324 1 -4.81596 13.0788 5.28459 16
325 1 9.43662 6.19391 14.5074 16
326 1 -6.29714 12.9078 -8.69563 12
327 1 0.588213 -3.81932 -16.6259 14
328 1 3.30718 -8.95906 -11.2843 18
329 1 -8.5093 7.8528 12.8961 19
330 1 -9.14258 0.656231 3.46528 17
331 1 -5.24975 -2.33906 -8.87394 23
332 1 -5.28239 10.9185 -0.653582 20
333 1 10.3272 -2.39417 6.49763 15
334 1 -9.47473 -11.2605 -1.03817 22
335 1 9.02625 -6.05695 3.40252 16
336 1 -3.05944 -12.583 11.3064 9
337 1 -12.7323 7.60738 -0.527949 12
338 1 -1.62743 -4.31157 10.6351 19
339 1 8.07277 -14.2107 -5.41675 16
340 1 -4.08656 3.6627 -10.9947 18
341 1 9.85321 -3.11121 -13.9022 12
342 1 6.60608 16.4728 1.07063 12
343 1 -10.0396 0.645567 -4.27297 21
344 1 8.28201 -4.76977 -16.9042 10
345 1 5.60195 4.91196 -11.7151 17
346 1 -4.27027 -16.9314 -6.44658 11
347 1 -12.1922 -8.21212 -4.77206 13
348 1 -6.87239 -9.2486 -0.816941 23
349 1 13.4642 3.00724 13.1974 16
350 1 10.6332 2.75722 -6.28251 22
351 1 -8.59137 5.25508 -12.2905 18
352 1 -0.0857565 16.2923 4.62598 17
353 1 -15.4117 -1.41655 -1.90863 16
354 1 -8.6014 10.9087 5.48057 14
355 1 -6.93871 12.7111 0.53896 16
356 1 -6.52544 5.90693 7.14869 19
357 1 11.3118 4.10326 13.5827 21
358 1 14.5259 -2.07742 -6.09942 17
359 1 7.0831 -5.07468 14.5999 9
360 1 16.7491 0.962151 -8.16387 10
361 1 -7.97234 -13.9688 -8.3349 8
362 1 1.82535 -8.16884 -4.42584 19
363 1 1.79242 10.8546 5.43173 20
364 1 -5.98604 1.75497 -6.10002 21
365 1 7.55061 -8.85024 -1.42237 21
366 1 14.2785 -3.86963 4.94587 20
367 1 -8.63631 -2.53979 -3.42778 23
368 1 -4.90158 -8.31198 2.02578 19
369 1 -7.34069 -7.2836 11.0296 13
370 1 -3.45653 12.0582 1.87042 19
371 1 -11.5212 -6.86259 -1.58785 16
372 1 8.13142 5.275 12.2362 18
373 1 -8.60286 4.73463 -1.03775 21
374 1 4.87332 14.9002 -9.80987 11
375 1 1.55454 14.7043 7.06506 18
376 1 -12.5511 -9.86619 -1.87412 11
377 1 1.4385 -6.0315 -6.46367 20
378 1 -14.5208 -2.99986 6.41926 22
379 1 -9.77535 7.87163 -0.959094 21
380 1 6.34766 -10.0845 3.55102 20
381 1 -3.98106 -14.8697 -1.81068 16
382 1 7.46281 11.0069 10.8226 19
383 1 1.63227 8.84493 -13.9606 14
384 1 -11.5398 3.21841 -12.2191 10
385 1 2.68484 15.2085 -8.48974 18
386 1 -9.46053 6.2028 -3.54968 20
387 1 -3.1756 -11.6014 6.74847 16
388 1 13.8322 0.62949 1.31025 22
389 1 -6.46059 6.36277 -15.136 11
390 1 -4.52596 0.948246 9.9616 21
391 1 -14.1111 0.265237 1.11613 19
392 1 -8.41327 2.70198 7.39916 18
393 1 -10.2325 -11.1894 1.89816 18
394 1 12.6064 -8.41967 -4.70886 23
395 1 -13.0609 1.82661 3.93862 20
396 1 -15.9149 0.584089 10.5509 13
397 1 -16.4887 5.33211 5.55058 13
398 1 0.206768 -5.87109 7.12516 20
399 1 -5.28824 2.83017 -16.8219 10
400 1 10.6191 -12.7102 -4.27864 13
401 1 0.56229 -12.1608 -10.383 18
402 1 -3.22483 -1.77977 9.97602 23
403 1 -5.16459 -0.308489 -18.0634 8
404 1 4.82185 -12.7139 2.93076 21
405 1 2.15553 10.7954 -5.58586 21
406 1 -12.3611 9.31851 6.06254 16
407 1 -4.90511 -0.635298 13.2352 19
408 1 -9.69445 -6.9792 -6.77268 18
409 1 -6.27971 -6.07295 7.51286 19
410 1 8.67434 -7.27469 8.36548 14
411 1 3.26901 0.401775 -8.78604 22
412 1 10.8055 -5.59911 5.91322 16
413 1 12.7274 5.55417 -5.30468 17
414 1 -1.01064 4.5437 14.2007 20
415 1 -0.192999 14.957 -3.35129 17
416 1 10.8801 -5.55102 0.739906 21
417 1 -1.66874 -12.9158 -2.92551 15
418 1 -7.13566 4.6784 12.6417 18
419 1 -3.74004 15.1818 8.76333 9
420 1 -4.23085 -8.22555 -9.47938 18
421 1 10.4105 16.5642 1.64622 8
422 1 5.9552 5.55709 7.96432 18
423 1 -6.97345 2.29349 9.85018 23
424 1 -4.7618 -8.41902 -3.62186 19
425 1 -10.7888 1.92467 8.74405 20
426 1 -9.71463 -5.71615 -3.45803 23
427 1 -7.20099 11.3598 7.98661 17
428 1 -4.07262 -11.4276 -4.70911 18
429 1 -2.82956 -10.0566 -13.478 18
430 1 -6.66893 -12.7322 -0.495468 16
431 1 -4.72744 -6.64031 4.92074 21
432 1 9.00435 -0.365002 4.24343 18
433 1 -2.81191 -3.02904 13.4002 10
434 1 -9.07093 9.5035 -12.0166 12
435 1 8.67172 3.22197 1.7316 21
436 1 -9.04498 -12.8564 -5.27371 13
437 1 -4.14198 18.2872 -1.89503 10
438 1 -0.713758 6.9783 -8.55548 17
439 1 0.357772 6.99846 10.1307 17
440 1 -11.6249 2.9931 1.52206 21
441 1 -3.02029 17.2208 -5.46154 11
442 1 6.73225 15.8731 -3.7023 15
443 1 -7.61608 -5.57156 -7.98866 16
444 1 2.23533 -1.08763 13.0253 20
445 1 4.54587 -14.0016 -10.1851 13
446 1 -0.575896 -3.98552 -11.3692 20
447 1 5.44907 -14.0231 0.248334 20
448 1 -10.2379 4.69512 6.25087 18
449 1 2.31291 5.38149 16.2367 16
450 1 10.2779 8.58881 -1.09642 15
451 1 1.63281 11.1267 -0.30674 21
452 1 -5.56145 7.23161 -12.2342 18
453 1 1.48925 3.27308 -8.84016 19
454 1 3.63879 -9.5233 3.52516 20
455 1 -18.5328 0.144787 -0.716834 9
456 1 4.50017 15.6523 8.19565 15
457 1 -2.55048 1.26953 -15.9324 17
458 1 8.56796 5.54171 -0.797279 22
459 1 4.5786 13.7054 -6.80739 19
460 1 8.58009 -5.72211 -1.40293 19
461 1 19.1721 1.03114 -2.59929 11
462 1 -2.90919 -0.712625 -13.7851 18
463 1 0.586684 -9.71311 3.18795 17
464 1 -0.85835 -12.7474 8.46555 17
465 1 3.89499 -9.72546 11.5855 10
466 1 -6.67304 0.335392 -8.97796 22
467 1 -11.3901 -13.7237 2.95674 12
468 1 -3.64341 -16.5821 -10.2188 10
469 1 11.4237 14.8847 7.59976 11
470 1 0.735667 1.61452 -13.8582 23
471 1 4.12921 -1.45569 15.364 17
472 1 -13.3583 2.0965 9.64172 17
473 1 -2.10109 -17.2472 -4.70918 13
474 1 -11.8438 -0.875186 -2.07424 20
475 1 15.2041 -7.10763 -6.1708 16
476 1 17.9066 -4.03022 -2.57078 11
477 1 -6.00012 7.80052 -6.64355 19
478 1 4.93923 -5.70565 -5.67633 22
479 1 3.92212 2.75666 -13.7596 17
480 1 8.75959 -4.74778 -6.03219 19
481 1 -9.13314 2.21524 14.7579 17
482 1 3.41125 13.7518 4.07799 21
483 1 -4.78722 -5.00566 -15.7523 15
484 1 8.41978 -1.08319 -13.295 22
485 1 -5.82379 -4.02073 10.5673 16
486 1 -5.50865 17.7656 4.00045 9
487 1 -9.15598 -5.83894 -10.8231 16
488 1 -18.1164 3.78867 -0.0925441 9
489 1 0.00877056 -11.3352 -13.5134 17
490 1 -4.56316 -14.7709 8.73581 13
491 1 0.504788 7.5384 -12.0007 15
492 1 16.1261 4.22359 8.57094 13
493 1 10.5716 5.24645 -3.2793 20
494 1 -10.6249 -11.1629 -4.32469 16
495 1 3.53958 -9.28335 -2.00763 21
496 1 1.55168 -6.6996 -16.324 14
497 1 -11.6848 11.9296 6.16584 12
498 1 4.62699 -2.47702 -8.4919 18
499 1 12.2565 -2.11315 0.996169 20
500 1 1.45809 13.918 -5.85118 22
501 1 5.40804 -6.6936 3.8088 18
502 1 10.6962 4.93544 -8.80116 20
503 1 7.00682 8.51217 13.137 20
504 1 -11.0841 0.146135 11.2993 23
505 1 9.75782 10.6312 9.47171 18
506 1 8.8794 -3.89411 17.4781 5
507 1 1.15789 -1.89679 -13.6138 21
508 1 -4.92978 -6.64823 -6.45716 21
509 1 1.91418 1.28255 9.90465 23
510 1 12.7239 9.12596 12.4731 11
511 1 8.64127 6.85623 -9.18153 22
512 1 -8.06786 9.33882 -3.83365 22
513 1 2.97716 12.304 -3.02645 18
514 1 8.82137 -2.84889 11.9249 14
515 1 12.9122 2.13868 -13.5164 12
516 1 13.4137 -10.5036 -2.43444 11
517 1 12.1683 8.81437 9.36418 16
518 1 -12.9173 -6.12778 1.06096 17
519 1 -6.45824 12.558 -12.0576 11
520 1 -1.46153 1.2709 10.0771 21
521 1 -13.2511 0.680812 13.2489 13
522 1 -1.45856 9.91519 -13.5016 19
523 1 4.92223 -10.8164 0.773733 20
524 1 9.56609 2.0118 -14.2216 15
525 1 -3.95308 13.5092 -5.8 16
526 1 -5.0645 -7.45665 -13.0625 24
527 1 2.3305 -13.4352 0.80041 20
528 1 -14.5965 -3.8209 -0.0212591 12
529 1 1.14991 11.0626 -15.8722 10
530 1 -0.255931 8.7237 12.7542 19
531 1 -12.3319 -7.2938 8.56779 17
532 1 7.05892 8.81487 -0.887026 19
533 1 3.5845 -9.20379 -6.82689 20
534 1 4.85961 -4.52954 9.53829 20
535 1 9.95953 1.22119 -3.73097 20
536 1 -9.7123 8.00749 5.35619 18
537 1 7.77814 3.30591 16.8791 13
538 1 4.30961 16.4216 -6.35136 12
539 1 13.7252 -6.48088 -3.09749 16
540 1 9.54273 13.7474 10.1045 18
541 1 -0.0182318 2.51605 -17.6369 11
542 1 -4.46742 -17.367 6.40962 10
543 1 -0.00442443 0.781229 -8.67195 24
544 1 11.696 -5.38849 -12.4542 9
545 1 3.28199 14.4329 10.499 15
546 1 7.83117 3.65419 -8.81897 25
547 1 -1.30417 -3.13719 -14.3888 19
548 1 -3.20099 -9.33419 -0.957206 18
549 1 -11.0473 -2.694 -11.1645 13
550 1 16.7924 -0.0945625 -0.086517 16
551 1 14.3066 5.52161 -2.81987 14
552 1 9.77489 -2.20683 -8.08288 16
553 1 14.3462 5.49237 12.2767 14
554 1 7.32062 -10.6099 -3.90567 19
555 1 3.48198 1.71661 -16.9648 13
556 1 8.04395 11.8997 4.09817 17
557 1 -8.54173 2.91146 1.73931 23
558 1 9.36125 11.6076 13.1364 15
559 1 8.19969 9.70037 1.9304 17
560 1 16.9564 -5.04732 3.94409 10
561 1 11.1612 5.02791 -13.3653 11
562 1 14.6547 -1.18617 11.0643 17
563 1 16.032 1.19349 8.08921 11
564 1 1.33757 -4.65597 9.8289 21
565 1 12.5665 11.6197 -0.669571 11
566 1 1.58197 -0.139479 17.2691 14
567 1 14.7968 0.665874 -2.14557 17
568 1 5.48811 0.239374 9.90092 19
569 1 -4.85843 3.04713 -8.46293 19
570 1 12.3755 3.53287 1.21978 21
571 1 11.5032 -3.90368 2.96861 17
572 1 -11.2923 6.63838 7.83722 22
573 1 8.37573 10.756 15.219 9
574 1 13.1567 3.37325 10.5005 20
575 1 1.90094 8.44975 7.34945 20
576 1 1.30049 11.0162 9.20811 17
577 1 8.18403 2.59081 8.66002 18
578 1 -2.90677 -16.9201 0.946636 15
579 1 -1.46729 11.0971 -5.21916 20
580 1 8.88954 10.6718 -7.04654 17
581 1 13.0252 -2.42425 -9.35845 15
582 1 -0.566406 18.6174 -3.17336 11
583 1 -3.19488 -14.3385 -5.32189 20
584 1 12.4794 -7.04045 -9.73056 8
585 1 -13.5905 -1.01393 9.23882 20
586 1 -3.35084 6.05532 -8.39056 22
587 1 -2.37876 -14.5071 2.81379 18
588 1 -5.34592 -0.661691 -11.8867 19
589 1 -8.18406 3.21475 -4.13875 21
590 1 13.4525 -7.36611 5.50144 12
591 1 13.5317 11.6586 2.65428 12
592 1 -0.911541 -9.04298 7.4468 20
593 1 -14.852 -2.80814 -4.8301 12
594 1 2.85884 -1.1038 -18.6743 8
595 1 -0.976844 5.59866 17.4879 11
596 1 4.58748 11.3018 -10.934 17
597 1 15.1705 -1.82038 7.79061 17
598 1 5.0971 5.19512 -6.77896 20
599 1 10.7453 11.0247 3.78239 20
600 1 0.455772 -13.3538 -6.45855 21
601 1 -10.5242 -0.852795 14.5728 14
602 1 15.111 -0.624856 4.95297 17
603 1 -0.856662 12.4353 13.8445 10
604 1 6.55259 12.5177 -8.48831 15
605 1 -11.0626 12.3659 -6.72932 10
606 1 7.18413 12.3932 7.61382 23
607 1 -10.999 -14.4184 -2.84069 9
608 1 14.2377 -4.42064 1.74915 17
609 1 11.6577 14.7812 4.01293 16
610 1 -5.15712 4.76677 9.85378 21
611 1 -9.76064 -5.39683 1.79531 19
612 1 -15.9977 -2.06638 -8.00519 7
613 1 8.04069 0.00322043 10.5507 18
614 1 -2.65184 -9.40371 10.6771 15
615 1 11.5473 0.797593 11.7402 20
616 1 -3.84609 14.1308 -0.627608 16
617 1 10.3151 6.77165 1.89244 24
618 1 8.66317 5.221 3.95366 17
619 1 5.29081 -0.816472 -17.3424 14
620 1 -6.48524 -0.331147 7.46613 22
621 1 9.54717 -3.72543 -10.5676 18
622 1 12.6823 -11.3624 -5.71229 12
623 1 4.55239 6.29523 11.1811 22
624 1 1.87044 8.43917 2.35011 21
625 1 -11.937 2.30679 15.2459 10
626 1 12.3226 5.14179 5.04417 18
627 1 -2.24305 0.0418795 13.3305 18
628 1 1.63034 6.13832 12.6077 19
629 1 -0.274448 -9.22677 -11.399 21
630 1 -9.61373 3.2526 12.0412 20
631 1 3.93833 1.18078 12.3932 23
632 1 -8.63009 -15.9444 1.96547 12
633 1 15.1032 6.32547 0.173249 11
634 1 5.15834 -12.4532 -4.82053 17
635 1 5.25331 11.5158 -0.5118 20
636 1 12.9586 12.8014 5.19442 10
637 1 8.16665 -1.70114 -16.622 11
638 1 3.35581 15.808 -4.00759 16
639 1 5.82035 13.0934 2.41222 19
640 1 -7.08363 -10.969 -6.01491 21
641 1 0.962502 -5.25587 -13.7575 21
642 1 -11.6702 12.3327 -1.19774 13
643 1 9.27172 -8.15882 -3.92515 18
644 1 9.35313 8.04044 -11.9785 11
645 1 9.13535 13.9811 -3.33588 14
646 1 -7.92544 4.74204 3.95934 17
647 1 6.75127 6.3941 -3.30689 20
648 1 15.7868 0.150771 13.9213 8
649 1 13.9135 -2.10883 16.3216 5
650 1 -1.43502 -16.9754 7.30272 9
651 1 -4.57172 12.5516 -14.9893 10
652 1 4.4339 12.7638 7.65106 21
653 1 8.90741 -6.49746 -10.6143 16
654 1 1.50189 2.00775 15.1847 22
655 1 5.19919 17.5217 -1.46492 10
656 1 9.50309 8.13433 4.68479 17
657 1 16.9195 -7.09069 -3.32029 14
658 1 10.0357 2.78604 11.1605 20
659 1 -11.4963 -1.67298 7.4802 22
660 1 6.47903 -15.7906 -2.03344 13
661 1 1.44533 -2.48707 -8.92076 25
662 1 -6.01189 17.0831 -0.266659 12
663 1 6.20456 14.835 5.28482 20
664 1 -15.5725 -0.90458 3.98648 19
665 1 -4.18914 4.38318 16.0076 17
666 1 -1.45564 8.74069 -16.4887 12
667 1 -3.99011 4.42106 -14.3255 16
668 1 8.20919 -13.3238 2.50551 12
669 1 7.22292 7.69692 -6.40913 20
670 1 -14.0754 6.72943 12.2453 13
671 1 4.83565 -2.65483 -13.5174 16
672 1 2.02412 -12.6417 10.8552 7
673 1 -1.81443 13.9073 2.90735 19
674 1 -6.68467 2.52613 16.8056 12
675 1 -6.95374 -2.84096 -11.0707 18
676 1 -3.28361 -13.2923 -11.5974 15
677 1 -4.56316 -14.4918 -8.3403 20
678 1 0.136282 15.8307 -8.58101 13
679 1 6.42641 -3.38569 -6.2774 21
680 1 -4.99963 8.28692 8.1037 22
681 1 6.89757 -7.60054 -6.23872 21
682 1 7.95749 -17.4681 0.580646 7
683 1 3.54539 -5.5367 6.59214 21
684 1 13.9643 2.38757 -8.27219 18
685 1 0.67624 -10.6057 -7.82551 19
686 1 -13.9336 0.740525 6.28053 20
687 1 -4.55172 -17.8181 -2.24767 9
688 1 -7.03431 -8.4381 -8.60124 18
689 1 -8.30495 0.542705 12.1647 21
690 1 -5.62359 -14.1723 2.20372 20
691 1 15.3705 4.06345 -6.02007 15
692 1 -2.80379 17.4016 6.08803 10
693 1 -5.25169 2.66164 7.44851 23
694 1 -12.1366 7.84809 2.56764 15
695 1 10.3464 0.776887 1.45775 20
696 1 -13.2728 -0.553282 -10.0734 13
697 1 -0.182217 8.32907 -5.75873 22
698 1 10.8795 2.46847 -10.2259 21
699 1 7.28878 13.9387 14.1542 8
700 1 12.6337 8.77135 1.24745 16
701 1 -12.67 3.95302 -9.18707 17
702 1 -12.3836 -7.16902 -7.85229 10
703 1 2.48522 3.1619 18.7536 10
704 1 7.54622 3.86868 -14.3284 13
705 1 9.77987 13.165 6.375 21
706 1 0.0338334 -1.85375 10.4036 22
707 1 -6.56234 -14.2381 -5.39841 14
708 1 -4.53526 -16.7889 3.23107 15
709 1 -2.842 -5.79842 7.20979 21
710 1 8.24383 8.31424 8.17297 17
711 1 5.92551 -5.38769 -11.1668 17
712 1 -6.79022 7.89874 -0.923088 21
713 1 5.26032 9.31635 1.43974 16
714 1 -6.39856 -3.82595 4.4057 19
715 1 5.96723 8.28128 -12.4007 14
716 1 -1.47828 -16.4752 -8.04807 15
717 1 -0.911545 -17.4378 -1.02434 13
718 1 1.24551 -12.5071 -1.78758 19
719 1 4.90716 2.73002 -8.71637 20
720 1 3.22177 17.0351 0.950001 13
721 1 -4.85318 -2.25708 -15.5643 13
722 1 0.395676 1.86619 12.6857 19
723 1 -0.893244 4.36931 -13.9164 17
724 1 -9.52577 -0.478315 -11.3752 17
725 1 -10.3295 -3.80392 -0.943676 18
726 1 0.647952 17.0908 -5.30187 13
727 1 -1.88199 -5.92267 -16.7663 14
728 1 -9.31733 -8.67197 -2.75314 22
729 1 9.01521 4.67304 -11.6086 19
730 1 13.0741 -3.82244 -1.65527 20
731 1 -6.20736 7.61328 10.4701 19
732 1 6.04905 -8.18878 1.19767 19
733 1 15.2283 -2.4909 -0.66225 17
734 1 11.9956 -1.82018 12.6357 15
735 1 -1.83848 8.75256 7.69245 20
736 1 -13.5728 4.30425 13.6823 10
737 1 -12.1382 4.92334 10.5012 22
738 1 -4.38796 -14.4296 5.42809 22
739 1 10.8357 2.6267 4.05334 19
740 1 9.27634 8.81264 11.6482 22
741 1 -16.3621 1.39461 -0.969181 16
742 1 10.38 -5.19404 -3.30669 20
743 1 -13.0985 10.3388 -5.01483 11
744 1 1.20389 15.7233 1.96982 17
745 1 4.40108 -17.3002 6.06315 8
746 1 3.95174 -4.64592 15.0598 10
747 1 -3.82329 11.3999 7.75824 18
748 1 1.23033 -11.7109 6.85284 17
749 1 -8.89425 -0.928012 -0.687446 19
750 1 5.02828 3.56664 10.1954 20
751 1 -13.3075 -4.30208 -2.17943 16
752 1 1.70169 10.2846 14.653 10
753 1 4.90745 9.16897 -3.14118 21
754 1 -15.2232 -6.88322 2.88595 10
755 1 -3.84468 -12.1114 0.576258 15
756 1 7.75227 -2.87073 8.34506 19
757 1 13.3502 -4.44746 10.3831 11
758 1 6.36958 8.09065 10.0277 20
759 1 -1.52792 -9.35859 -8.10684 17
760 1 -3.28576 0.344837 -9.92791 17
761 1 -5.76272 2.32325 13.8725 20
762 1 -1.29745 19.0767 3.68491 7
763 1 17.8391 2.61494 0.539508 12
764 1 3.38931 8.15875 -6.15529 22
765 1 -5.90617 8.09878 15.145 13
766 1 5.14702 9.27301 6.99226 20
767 1 9.60109 0.0950344 -10.2549 15
768 1 -7.14408 -11.1081 -3.44704 20
769 1 17.2237 -2.28865 4.7332 13
770 1 1.85034 -8.08892 -8.64992 20
771 1 0.355639 7.54624 15.5345 13
772 1 8.36656 -14.7997 -9.15666 9
773 1 -3.53578 7.73105 -13.7773 16
774 1 -1.64805 -8.40153 -3.83652 19
775 1 13.1199 5.12565 -8.10762 15
776 1 15.57 -5.69715 -0.365264 15
777 1 5.54006 -7.32807 9.65736 17
778 1 -2.68774 -11.6902 -7.49442 21
779 1 7.47684 13.9453 -0.51048 20
780 1 -16.3325 2.94226 8.04085 14
781 1 10.0812 7.68524 -6.45949 19
782 1 15.2655 3.23627 0.259787 17
783 1 7.21341 -4.60622 -13.4905 19
784 1 -11.2033 14.5084 4.29409 10
785 1 15.1951 6.78752 4.54526 12
786 1 10.8024 12.1994 -4.87014 11
787 1 -1.09165 -0.875287 -11.2849 19
788 1 10.1066 -3.01749 -0.926144 20
789 1 -10.4481 2.17085 -1.269 21
790 1 12.6074 8.60612 3.82164 19
791 1 -12.4068 -12.5944 -0.167893 11
792 1 -10.025 9.84418 -8.54065 14
793 1 5.56146 2.87266 6.72066 18
794 1 -11.4748 -0.0133531 -7.11967 19
795 1 -13.3316 3.80454 6.86492 23
796 1 -1.85009 3.31105 -8.76901 21
797 1 12.6098 -5.17962 -5.26955 18
798 1 -10.8538 -8.48569 -10.1384 10
799 1 15.4672 -8.37569 -1.32724 14
800 1 -14.0095 4.07962 3.27016 16
801 1 -11.6388 -2.94942 1.86597 21
802 1 15.3165 7.54942 7.7402 10
803 1 -5.98048 -11.9645 7.6675 20
804 1 10.3543 -2.03324 15.1642 12
805 1 17.2683 -4.30557 7.25677 7
806 1 6.972 -3.6535 3.99518 19
807 1 -11.8458 5.26473 4.5637 17
808 1 3.0453 8.49947 10.2119 18
809 1 5.6298 6.64054 -9.58477 19
810 1 -0.669781 -9.22855 -15.9256 12
811 1 -7.01451 12.9339 3.6686 17
812 1 -12.4979 -8.18863 5.28129 16
813 1 8.07968 9.04683 -3.57957 19
814 1 4.36663 8.8788 12.6674 16
815 1 17.815 -1.39893 -6.5991 12
816 1 6.60139 -5.9178 6.86305 17
817 1 -0.20545 13.7221 -13.5701 14
818 1 3.81185 11.4979 -8.13014 24
819 1 -6.53507 -1.41282 10.6445 20
820 1 16.0204 3.92159 2.65256 16
821 1 -3.8099 -4.16954 -12.0102 21
822 1 9.22206 16.0766 5.67006 11
823 1 -14.9103 4.55492 0.201162 15
824 1 -1.79851 -15.4436 10.5147 7
825 1 1.66613 16.4443 -11.622 9
826 1 10.0348 -4.08137 9.35123 19
827 1 -0.599204 -11.191 0.628162 17
828 1 -5.06339 14.8803 2.69244 17
829 1 -11.9472 4.86994 -1.01969 18
830 1 12.7319 0.433583 -4.64443 16
831 1 1.15555 -15.2304 -9.44488 13
832 1 -6.83979 7.53759 4.16849 17
833 1 11.7621 8.26172 -9.63731 9
834 1 -4.51095 -3.05792 7.84999 22
835 1 5.63867 -6.07643 -16.5066 12
836 1 -5.44696 -11.0805 -11.5642 15
837 1 0.277112 -9.40267 -1.59512 18
838 1 -3.03335 7.25502 15.2869 14
839 1 7.45732 -12.5736 -2.01433 18
840 1 -3.85504 10.2108 -16.4919 11
841 1 18.6458 4.08451 -4.65448 5
842 1 7.00598 6.50024 1.88612 20
843 1 1.19584 -17.0912 -5.09171 12
844 1 5.90553 -3.90077 -18.3495 9
845 1 12.0954 -0.63995 3.25586 18
846 1 -2.23446 2.16763 -12.7228 18
847 1 -0.697004 -7.05066 10.0209 20
848 1 6.0509 10.8524 -5.53477 22
849 1 6.70552 2.50463 -5.81584 22
850 1 -10.3909 8.52232 -5.46165 17
851 1 -14.9813 6.15415 8.98391 16
852 1 4.91635 3.69687 16.9069 15
853 1 -5.47285 -10.0341 10.0812 16
854 1 5.2769 11.3292 4.91373 19
855 1 1.32387 -17.2662 1.89241 14
856 1 1.97589 9.04274 -2.97271 23
857 1 -3.9101 5.28598 12.7915 16
858 1 -8.90176 -0.254142 8.65651 22
859 1 -10.1003 11.0005 7.9322 19
860 1 10.3018 2.87566 -0.667055 23
861 1 -4.67432 -9.52283 13.0918 8
862 1 4.78077 -11.6784 5.89099 16
863 1 11.2344 5.97366 11.0008 23
864 1 11.3013 -2.54435 -5.09176 20
865 1 6.36892 -16.2961 -8.10643 11
866 1 -7.38537 -1.40983 -14.1781 15
867 1 0.381797 -0.818062 -16.4536 17
868 1 6.6031 16.1669 11.1633 10
869 1 -13.2096 -3.98524 9.48794 19
870 1 -5.4343 4.78581 -5.51821 20
871 1 -11.7283 3.44839 -3.61501 16
872 1 8.64006 14.5576 2.60202 16