ITEM: TIMESTEP
282000
ITEM: NUMBER OF ATOMS
1000
ITEM: BOX BOUNDS pp pp pp
-30.0 30.0
-30.0 30.0
-30.0 30.0
ITEM: ATOMS id type x y z Coordination
1 1 -11.5791 -1.10248 -6.49119 13
2 1 -10.3604 -3.63513 -5.86576 16
3 1 -9.81781 -5.68833 -3.99189 17
4 1 -13.1596 -3.42534 -4.64599 10
5 1 -8.98816 -6.86931 -6.77467 13
6 1 -7.30488 -9.21001 -7.22142 16
7 1 -4.79559 -11.3031 -7.52155 15
8 1 -8.48399 -8.544 -3.77922 14
9 1 -8.12473 -1.22287 -11.657 13
10 1 -6.78501 -4.44382 -11.3946 13
11 1 -6.93112 -6.08633 -8.86737 18
12 1 -8.61465 -2.97047 -9.07412 17
13 1 -8.80268 -1.12822 -6.63942 22
14 1 -7.0861 -4.17188 -6.03743 24
15 1 -6.69071 -5.9838 -3.23925 23
16 1 -8.41275 -2.85534 -3.81897 20
17 1 -4.79855 -7.73927 -11.1028 13
18 1 -4.93428 -8.52472 -8.60066 20
19 1 -5.43696 -6.79255 -5.98252 23
20 1 -3.54581 -9.44536 -5.9186 24
21 1 -3.21124 -11.748 -4.40206 17
22 1 -5.29916 -8.77398 -3.44822 23
23 1 -5.10181 -1.22228 -12.8211 14
24 1 -3.62751 -4.18546 -11.7798 17
25 1 -3.50045 -5.60021 -8.80211 23
26 1 -5.60955 -2.9302 -8.91985 23
27 1 -5.75757 -0.900714 -6.36823 21
28 1 -3.88621 -3.84021 -6.48943 24
29 1 -3.78575 -5.6464 -3.56471 22
30 1 -5.18879 -2.98535 -3.7751 21
31 1 -3.34004 -10.6718 -10.5717 8
32 1 -2.18054 -6.92978 -11.483 15
33 1 -1.69383 -11.8301 -7.76218 13
34 1 -2.07926 -8.64214 -8.74184 23
35 1 -1.90334 -6.88478 -6.31171 24
36 1 -0.206571 -9.80705 -6.21049 21
37 1 0.186876 -11.7244 -4.28166 15
38 1 -1.73204 -8.87971 -3.3611 22
39 1 -2.31577 -1.04103 -11.3022 21
40 1 0.999808 -0.90803 -11.6112 18
41 1 -0.301413 -5.80353 -9.00436 21
42 1 -2.24717 -2.77792 -9.06335 21
43 1 -2.10033 -0.893843 -6.36083 23
44 1 -0.441667 -3.82693 -6.58022 21
45 1 -0.455175 -5.69902 -3.64938 19
46 1 -2.21501 -2.88972 -3.88302 24
47 2 -12.1403 -2.79613 -0.79755 20
48 2 -12.8914 -4.49578 -2.99491 12
49 2 -6.3746 -10.7512 -6.36857 15
50 2 -9.98467 -5.53287 -5.93294 14
51 2 -11.987 -2.70444 -5.8239 14
52 2 -7.96372 -3.12116 -11.5512 10
53 2 -10.4637 -5.4004 -1.10217 17
54 2 -14.1072 -4.95866 -0.563986 9
55 2 -12.0696 0.176578 -4.85449 15
56 2 -10.292 -3.7783 -3.76779 18
57 2 -8.52593 -8.42112 -5.56301 15
58 2 -7.86177 -7.74658 -8.18816 12
59 2 -5.37787 -12.6832 1.86665 15
60 2 -6.98807 -9.95856 -3.33261 16
61 2 -8.43775 -6.86702 -3.17404 17
62 2 -5.14706 -8.55245 -6.73239 22
63 2 -6.98129 -5.87621 -6.80758 20
64 2 -8.9128 -2.93963 -7.0045 20
65 2 -8.5753 -1.00366 -9.65126 16
66 2 -7.12188 -4.23158 -9.27606 17
67 2 -6.92646 -5.71764 -1.01868 18
68 2 -8.60966 -2.96094 -1.6365 22
69 2 -8.70297 -1.13451 -4.48227 24
70 2 -7.02589 -4.31284 -4.09781 23
71 2 -5.07734 -12.4355 -3.78412 14
72 2 -1.93908 -10.5074 -9.14115 14
73 2 -4.6894 -10.2233 -9.20849 15
74 2 -5.29523 -6.91479 -9.45877 20
75 2 -3.11563 -8.89683 -11.4928 11
76 2 -1.66082 -12.2213 -3.42519 14
77 2 -5.35168 -8.51047 -1.56317 21
78 2 -5.09642 -6.81236 -4.20956 23
79 2 -3.5625 -9.69691 -3.80013 21
80 2 -4.13733 -6.04256 -11.6537 14
81 2 -5.37217 -3.11706 -12.376 14
82 2 -3.78814 -6.01953 -6.91854 22
83 2 -5.64468 -2.88144 -6.82163 21
84 2 -5.59902 -1.23149 -8.96862 22
85 2 -4.04801 -3.78463 -9.87284 23
86 2 -3.98188 -5.64252 -1.60984 22
87 2 -5.34112 -2.88995 -1.74809 23
88 2 -5.28527 -0.93141 -4.45972 24
89 2 -3.70725 -3.86748 -4.42839 25
90 2 -3.80594 -12.002 -0.996586 17
91 2 -3.14637 -11.4639 -6.36874 18
92 2 -0.0264347 -11.3387 -7.32022 14
93 2 -2.09553 -8.73159 -6.70953 22
94 2 -1.97043 -6.79983 -9.59049 22
95 2 2.94775 -9.74642 -9.09401 10
96 2 -0.519939 -11.659 -0.696099 13
97 2 -1.98269 -8.74017 -1.28624 21
98 2 -2.06855 -6.75522 -4.03741 22
99 2 -0.317457 -9.76134 -4.24089 21
100 2 -0.62513 -5.93682 -12.1814 13
101 2 -2.09137 -2.97762 -11.8956 17
102 2 -0.314607 -6.00617 -7.07505 21
103 2 -2.18572 -2.7224 -7.20503 22
104 2 -2.17257 -0.677287 -9.17664 20
105 2 -0.596328 -3.87221 -9.19864 20
106 2 -0.439061 -5.54952 -1.597 23
107 2 -2.03776 -2.79338 -1.29324 23
108 2 -2.11249 -0.876025 -4.39465 23
109 2 -0.545927 -3.8406 -4.5556 24
110 1 -13.9499 -3.2109 -1.51869 13
111 1 -12.3116 -5.68025 -1.45079 13
112 1 -6.22941 -11.3577 -4.69387 16
113 1 -10.5766 -3.84755 4.02994 19
114 1 -12.095 -0.711349 -0.717806 17
115 1 -10.5472 -3.34454 -2.01458 20
116 1 -10.3225 -5.37735 1.05669 18
117 1 -13.6276 -5.2933 1.414 10
118 1 -11.7839 -0.596292 4.56869 17
119 1 -11.7983 -2.80172 1.23068 22
120 1 -10.0066 -5.70237 6.57792 11
121 1 -11.6865 -2.95148 6.8054 10
122 1 -8.94065 -6.62476 -1.14191 17
123 1 -6.90539 -9.72403 -1.27578 17
124 1 -6.89378 -11.6804 0.914859 14
125 1 -8.58247 -8.45062 1.6501 14
126 1 -8.33071 -6.89745 4.32767 17
127 1 -6.80207 -10.1566 4.45275 17
128 1 -8.79998 -9.0161 7.01909 8
129 1 -8.91466 -1.25398 -0.864795 22
130 1 -6.98146 -3.89784 -1.14304 24
131 1 -7.12379 -5.63403 1.83574 21
132 1 -8.31838 -2.74846 1.83588 21
133 1 -8.67785 -0.962256 4.51363 22
134 1 -6.85441 -3.93228 4.72026 23
135 1 -7.00774 -5.97246 7.15399 20
136 1 -8.2874 -2.7926 7.31076 20
137 1 -8.57007 -1.21857 10.4008 14
138 1 -6.97302 -3.90691 9.78112 15
139 1 -5.17267 -12.6902 -1.88357 14
140 1 -5.3156 -13.0585 3.61707 11
141 1 -5.25325 -6.71376 -0.617902 24
142 1 -3.88758 -9.85046 -0.918668 23
143 1 -3.80809 -12.026 1.10028 17
144 1 -5.65258 -9.04184 1.19783 21
145 1 -5.30348 -7.36385 4.28792 21
146 1 -3.72334 -9.86804 4.59203 23
147 1 -4.17518 -12.4206 6.0486 11
148 1 -5.39367 -8.56832 7.35468 17
149 1 -5.30139 -6.77301 9.92527 14
150 1 -3.54742 -9.59527 9.9818 13
151 1 -5.41065 -0.895096 -1.07256 22
152 1 -3.73144 -3.65508 -0.881382 23
153 1 -3.66967 -5.69539 1.98272 22
154 1 -5.29414 -2.81201 1.92547 23
155 1 -5.49407 -0.753911 4.76734 21
156 1 -3.59367 -3.60353 4.5296 21
157 1 -3.74447 -5.67252 6.54492 21
158 1 -5.24182 -2.65975 7.40381 21
159 1 -5.30948 -0.944907 10.179 22
160 1 -3.73782 -3.85827 10.1555 20
161 1 -3.56694 -5.68819 12.5411 10
162 1 -5.15877 -2.47764 12.7845 11
163 1 -1.91889 -12.4324 -1.65599 15
164 1 -1.98482 -13.0504 3.69355 13
165 1 -2.34098 -6.66683 -0.887477 22
166 1 -0.200538 -9.63367 -0.77619 19
167 1 -0.339053 -11.8588 1.40247 14
168 1 -2.4428 -9.04977 1.83332 21
169 1 -2.19157 -6.59017 4.51155 23
170 1 -0.619039 -9.64815 4.46936 21
171 1 -2.21519 -12.8282 9.0247 7
172 1 -2.24007 -8.95016 7.35948 22
173 1 -2.02725 -6.79307 9.92781 19
174 1 -0.365473 -9.91967 9.35059 14
175 1 -1.95083 -0.828107 -0.780216 24
176 1 -0.431732 -3.96253 -0.577843 23
177 1 -0.438457 -5.67774 1.75176 22
178 1 -1.80845 -2.64214 1.84979 23
179 1 -1.47529 -0.668428 4.50509 20
180 1 -0.31113 -3.79708 4.1479 19
181 1 -0.529327 -5.7247 7.46793 24
182 1 -1.77388 -2.76664 6.96526 20
183 1 -1.66241 -0.907907 10.011 20
184 1 -0.07933 -4.08594 10.0607 22
185 1 -0.127387 -5.95443 12.0592 12
186 1 -1.98867 -2.72848 12.3563 17
187 2 -13.4159 -3.26735 2.17474 15
188 2 -12.0755 -5.95272 1.2221 12
189 2 -6.36564 -11.7046 -0.776913 14
190 2 -9.84625 -5.88906 4.59781 15
191 2 -11.9399 -3.12858 4.95963 15
192 2 -11.803 -0.776556 1.12586 19
193 2 -10.0309 -3.69802 1.96504 21
194 2 -11.3867 -1.01717 6.67083 14
195 2 -9.87448 -3.78406 6.97729 16
196 2 -5.63556 -11.6294 5.07627 11
197 2 -8.45365 -8.78877 3.57837 14
198 2 -8.74978 -6.62803 0.826845 18
199 2 -7.24285 -9.76192 0.75667 15
200 2 -8.64845 -7.04107 7.09276 13
201 2 -6.99961 -9.18104 6.55998 14
202 2 -6.76784 -5.80929 3.86408 22
203 2 -8.48988 -2.84297 3.96797 20
204 2 -8.40733 -0.965947 1.07362 22
205 2 -6.89561 -3.85371 1.31056 22
206 2 -6.63561 -5.66461 9.04309 15
207 2 -7.88667 -2.48218 9.1972 16
208 2 -8.48599 -0.830892 6.61316 24
209 2 -6.70898 -3.89114 6.89116 21
210 2 -6.91086 -1.27917 11.5628 13
211 2 -2.13703 -12.5188 1.86096 14
212 2 -3.66559 -13.1647 4.46395 11
213 2 -5.33901 -9.17523 3.38159 22
214 2 -5.30458 -7.02492 1.28597 21
215 2 -3.95355 -9.95835 0.925394 19
216 2 -4.85107 -8.32237 9.1961 15
217 2 -5.38422 -6.88816 6.3682 21
218 2 -3.87614 -9.55664 6.63461 21
219 2 -3.74434 -5.61642 4.19978 20
220 2 -5.49767 -2.73816 4.16143 19
221 2 -5.10311 -1.03852 0.804771 24
222 2 -3.4419 -3.62072 1.61382 21
223 2 -3.78613 -5.72552 10.4171 16
224 2 -5.34627 -2.84306 9.3557 21
225 2 -5.38427 -0.792243 6.82832 21
226 2 -3.42525 -3.60764 6.70977 20
227 2 -4.31222 -0.931354 13.3047 12
228 2 -3.85955 -3.5279 12.0959 14
229 2 -0.443633 -11.9503 4.35579 15
230 2 -3.19478 -11.4881 9.54366 11
231 2 -2.60388 -12.3995 6.9072 13
232 2 -2.42173 -8.87045 3.71373 19
233 2 -2.13709 -6.3772 0.945023 22
234 2 -0.629683 -9.53745 1.28603 20
235 2 -1.76415 -8.53603 9.29554 17
236 2 -2.16467 -7.07339 6.56692 22
237 2 -0.571902 -9.55977 6.50719 21
238 2 -2.00055 -6.58214 11.8975 14
239 2 -0.395218 -5.78288 3.60809 25
240 2 -1.85117 -2.54727 3.89663 22
241 2 -1.7764 -0.667092 1.43887 21
242 2 -0.251593 -3.79685 1.45166 19
243 2 -0.467287 -5.80523 9.29034 21
244 2 -1.8573 -2.93334 9.89746 20
245 2 -1.7631 -0.562911 6.39889 20
246 2 -0.398374 -3.95475 6.59705 23
247 2 -1.4159 -0.902324 12.0205 18
248 2 -0.283834 -4.00356 12.3691 14
249 1 -13.7537 -0.179367 -3.81916 12
250 1 -9.86013 0.423987 -9.23924 13
251 1 -12.6157 5.00078 -5.84445 8
252 1 -10.4751 1.89852 -6.86824 17
253 1 -10.305 -0.00830258 -3.6241 22
254 1 -11.9823 2.23521 -4.35874 18
255 1 -10.1368 7.68212 -5.9694 11
256 1 -10.6919 5.67998 -4.07717 17
257 1 -7.08872 1.61165 -12.0851 14
258 1 -6.98227 0.124841 -9.27459 22
259 1 -8.94884 3.38874 -10.1193 12
260 1 -8.52991 4.56813 -7.1386 21
261 1 -6.99729 1.71648 -6.58492 24
262 1 -7.19452 0.109607 -4.06233 20
263 1 -8.61586 3.16921 -4.56059 19
264 1 -7.01547 5.86865 -9.70581 14
265 1 -7.03166 7.74779 -6.96534 18
266 1 -6.93263 5.575 -4.10821 22
267 1 -8.43169 8.69395 -4.14241 17
268 1 -7.12054 12.0475 -2.88593 9
269 1 -5.35555 4.57232 -12.2022 11
270 1 -3.84124 1.93067 -11.805 19
271 1 -4.21583 0.0809091 -8.94132 22
272 1 -5.79845 2.8149 -9.18553 21
273 1 -5.16938 4.6527 -6.42464 22
274 1 -3.91106 1.842 -6.29129 22
275 1 -3.71045 -0.0309631 -3.51623 24
276 1 -5.37943 2.85755 -3.78407 19
277 1 -3.68561 7.64867 -12.3668 12
278 1 -3.81929 5.72506 -9.2849 20
279 1 -5.07949 8.61345 -9.74402 13
280 1 -5.3886 10.5839 -7.14725 13
281 1 -3.61845 7.59406 -6.26107 21
282 1 -3.55396 5.91963 -3.73445 21
283 1 -5.13002 8.86424 -4.01704 24
284 1 -3.77058 11.9316 -3.70748 11
285 1 -2.04351 0.57364 -13.6322 12
286 1 -2.06926 4.64275 -11.8742 21
287 1 -0.475363 1.79537 -11.3013 25
288 1 -0.212351 0.17868 -8.82674 21
289 1 -2.28123 2.88317 -9.02948 21
290 1 -2.08657 4.65705 -6.27512 23
291 1 -0.433682 1.85008 -6.10572 24
292 1 -0.498952 -0.0902457 -3.6259 22
293 1 -2.1656 2.94129 -3.60997 25
294 1 -0.722044 6.91494 -14.0415 9
295 1 -0.595401 5.71383 -8.88567 24
296 1 -2.44029 8.73015 -8.97036 15
297 1 -2.47003 10.4216 -6.16897 14
298 1 -0.441066 7.73675 -6.13902 24
299 1 -0.170687 6.06901 -3.7648 23
300 1 -1.83833 8.73458 -3.51219 23
301 1 -0.515178 8.53238 -11.6403 13
302 1 -0.190904 11.6221 -3.70971 17
303 2 -14.4372 -1.89029 -3.57082 9
304 2 -13.146 0.385424 -2.1603 15
305 2 -10.272 0.119331 -7.54964 17
306 2 -11.7475 3.13725 -6.16416 13
307 2 -10.1928 2.27378 -8.9211 12
308 2 -10.5633 0.00806267 -1.68047 20
309 2 -11.9445 3.00472 -0.885814 16
310 2 -12.5952 4.50004 -3.91109 10
311 2 -9.99122 2.05848 -3.53096 21
312 2 -11.2038 6.14565 -5.94025 10
313 2 -11.3712 5.98957 -1.96734 11
314 2 -10.0494 7.83551 -3.89603 14
315 2 -6.65104 -0.238782 -12.1944 12
316 2 -7.33348 -0.0326803 -7.10238 24
317 2 -8.71168 2.69706 -6.43338 20
318 2 -8.57597 4.93343 -8.98672 11
319 2 -7.46263 1.98414 -9.93094 21
320 2 -7.19232 -0.197118 -1.62058 22
321 2 -8.47231 3.11701 -0.881597 17
322 2 -8.87056 5.04293 -3.49388 23
323 2 -6.98496 2.07758 -4.45657 21
324 2 -6.98539 5.59149 -6.77624 21
325 2 -8.4713 8.57522 -6.11974 13
326 2 -6.52502 7.63139 -9.01396 13
327 2 -6.89382 5.82155 -0.959299 22
328 2 -9.01895 8.57756 -1.0118 17
329 2 -8.29321 10.446 -3.13781 13
330 2 -6.85187 7.37539 -3.39804 21
331 2 -7.11214 11.6546 -1.03838 13
332 2 -3.64891 -0.0538543 -12.7527 16
333 2 -5.55083 2.4963 -12.094 13
334 2 -3.79513 0.0723703 -7.01553 24
335 2 -5.42604 2.82261 -7.25691 24
336 2 -5.56364 4.82208 -10.2554 22
337 2 -4.0879 2.00279 -9.78091 24
338 2 -3.67206 -0.174318 -1.63042 23
339 2 -5.43295 3.00892 -1.47029 21
340 2 -5.15632 4.73778 -4.3601 22
341 2 -3.70627 1.89458 -4.32133 24
342 2 -3.99151 5.78698 -12.0618 15
343 2 -3.66831 5.84736 -7.05888 23
344 2 -5.38609 8.59433 -6.10115 19
345 2 -3.44256 7.78592 -10.2542 16
346 2 -3.46729 5.8505 -1.88038 21
347 2 -5.41373 8.53834 -0.880519 19
348 2 -4.18818 11.6244 -5.89737 9
349 2 -3.40524 7.74211 -4.37669 20
350 2 -4.23463 9.77569 -8.47885 11
351 2 -3.45587 11.3902 -1.73893 17
352 2 -5.52091 10.5642 -3.30836 16
353 2 -0.750512 -0.181365 -12.1682 17
354 2 -0.563821 1.59861 -14.398 10
355 2 -0.291723 -0.0385564 -6.90547 22
356 2 -1.91361 2.91331 -7.02698 23
357 2 -1.7889 2.70397 -12.4812 17
358 2 -0.551548 2.04938 -9.38921 20
359 2 -0.350377 0.140646 -1.52101 22
360 2 -1.9439 2.9376 -1.63506 24
361 2 -1.9878 4.80722 -4.35421 24
362 2 -0.289484 1.84984 -3.99509 20
363 2 -0.581858 5.35982 -13.0401 15
364 2 -0.340092 5.87939 -7.01548 22
365 2 -2.06071 8.60083 -6.98238 18
366 2 -1.95814 7.8179 -12.9022 9
367 2 -2.03137 4.82966 -9.85731 20
368 2 -0.284137 5.85848 -1.64935 25
369 2 -2.13771 8.62049 -1.42568 22
370 2 -1.87546 10.9709 -4.45169 17
371 2 0.105678 7.94601 -4.21085 21
372 2 -0.416207 8.63961 -9.72855 14
373 2 -0.25087 11.4458 -1.39184 19
374 2 -0.749299 13.4057 2.47837 10
375 2 0.95811 13.2054 -3.074 10
376 1 -13.4657 1.8746 -0.842688 12
377 1 -13.542 -2.53964 3.84795 11
378 1 -13.8042 -0.176435 1.79805 11
379 1 -12.5077 4.55459 -2.00487 11
380 1 -10.2282 1.96947 -1.47791 20
381 1 -10.1276 0.166962 1.89878 22
382 1 -12.1198 2.88381 1.8957 15
383 1 -11.8319 5.0069 4.53085 12
384 1 -10.0046 2.00794 4.2231 19
385 1 -10.0015 -0.0986242 7.52482 18
386 1 -11.7881 3.21097 6.97233 11
387 1 -9.81472 1.84452 9.54216 13
388 1 -10.2314 7.47351 -2.05457 15
389 1 -10.3353 5.79441 1.70166 14
390 1 -9.96539 7.97196 3.79182 17
391 1 -9.66177 6.32021 6.65146 17
392 1 -8.35998 4.99638 -1.70661 20
393 1 -6.94135 1.95525 -0.971159 23
394 1 -6.94282 0.377669 1.92424 22
395 1 -8.71353 3.12403 1.35603 21
396 1 -8.46741 5.05521 4.3003 24
397 1 -7.03328 2.07555 4.77751 24
398 1 -7.07146 0.172265 7.60641 23
399 1 -8.75619 2.96459 6.76896 19
400 1 -8.24232 4.88356 9.1437 15
401 1 -6.88982 2.32179 10.3239 19
402 1 -6.28312 0.109086 13.1061 11
403 1 -8.89623 10.6115 -1.10097 11
404 1 -7.11201 7.94009 -1.70588 22
405 1 -7.05037 5.86395 1.12949 21
406 1 -8.59773 8.44519 0.714306 19
407 1 -8.53083 10.5161 3.16283 11
408 1 -6.71213 7.80605 3.68441 24
409 1 -6.77599 5.57988 6.77161 22
410 1 -7.87095 9.19541 6.2651 13
411 1 -7.52842 7.94126 8.70189 10
412 1 -6.76656 11.8617 1.24365 11
413 1 -5.23463 4.80666 -0.844991 24
414 1 -3.83847 1.94968 -0.935078 21
415 1 -3.66295 0.0168468 1.72172 20
416 1 -5.37268 2.9618 2.14682 22
417 1 -5.16618 4.94016 4.59138 22
418 1 -3.65158 2.06221 4.54335 21
419 1 -3.66229 -0.0417893 7.47675 22
420 1 -5.40634 2.66249 7.60103 26
421 1 -5.19157 5.1779 10.1027 18
422 1 -3.61068 1.88957 9.92108 21
423 1 -2.73981 0.268034 13.1629 14
424 1 -4.91287 3.20226 12.5996 11
425 1 -5.20893 10.4483 -1.27131 18
426 1 -3.60331 7.49936 -0.879709 23
427 1 -3.80441 5.89169 1.96305 21
428 1 -5.32736 8.68511 1.19872 20
429 1 -5.06368 10.9816 4.03447 17
430 1 -3.35897 7.51054 4.55963 21
431 1 -3.6228 5.85698 7.16424 22
432 1 -4.76997 9.33607 6.44407 17
433 1 -3.25986 7.51365 9.38916 15
434 1 -2.92686 6.02508 12.4909 11
435 1 0.0425657 13.5968 -1.46333 11
436 1 -3.19747 11.4262 1.53856 16
437 1 -3.26284 12.5003 6.8158 11
438 1 -1.92815 4.93473 -1.15018 22
439 1 -0.327286 2.12986 -0.960499 22
440 1 -0.055657 0.188212 1.76259 23
441 1 -2.06139 2.51967 1.59761 21
442 1 -1.71985 4.66332 4.40113 21
443 1 -0.256614 2.21859 4.59581 22
444 1 -0.0664589 0.32007 7.16232 21
445 1 -2.061 2.77198 7.34568 24
446 1 -1.41146 4.59641 9.90919 23
447 1 -0.0979226 1.74769 9.84438 22
448 1 0.00365956 0.155332 12.9997 15
449 1 -1.18024 3.02758 12.8407 16
450 1 -1.8057 10.3679 -1.12464 20
451 1 -0.334253 7.8533 -1.02833 22
452 1 -0.231052 5.82768 1.80263 23
453 1 -1.96026 8.50313 1.74422 23
454 1 -2.45912 10.2174 4.55601 22
455 1 -0.278386 7.39219 4.47905 22
456 1 -0.218112 5.84019 7.02894 20
457 1 -1.83731 9.11219 7.15622 18
458 1 -1.07978 8.82006 10.6912 9
459 1 0.188101 6.18104 12.1712 13
460 1 2.96016 13.8983 -0.279042 10
461 1 -0.306813 11.5691 1.71563 20
462 1 -1.80953 13.1703 4.08235 14
463 1 -0.423377 12.0812 6.56705 12
464 2 -13.457 -0.682809 3.59428 11
465 2 -13.5753 1.62686 1.27525 11
466 2 -10.0827 0.0446374 3.80271 21
467 2 -10.3861 1.9527 7.77628 16
468 2 -11.432 4.73326 2.59771 15
469 2 -10.4328 2.00288 2.17723 20
470 2 -9.76549 -0.0373337 9.66262 13
471 2 -11.6753 3.00727 4.8666 14
472 2 -11.4963 5.03781 6.68837 11
473 2 -10.0927 6.14571 4.68384 17
474 2 -9.68995 7.58463 1.93431 14
475 2 -8.91104 8.00328 7.11085 13
476 2 -7.25483 0.326185 3.86477 22
477 2 -8.72366 3.30286 4.51544 24
478 2 -8.39988 4.98238 2.16365 22
479 2 -6.99803 2.29596 1.39548 21
480 2 -6.54605 0.561577 9.46981 21
481 2 -8.64413 3.26971 9.85188 14
482 2 -8.44939 4.81464 7.26496 20
483 2 -7.00579 2.0306 6.90521 23
484 2 -6.37712 1.91527 12.2753 12
485 2 -6.72503 6.06409 4.89262 23
486 2 -8.33706 8.9285 4.44601 17
487 2 -8.49143 10.6681 1.26805 13
488 2 -6.92728 7.53753 1.84073 23
489 2 -6.64015 5.91155 9.19254 17
490 2 -6.23748 8.67609 7.44438 14
491 2 -6.80461 11.1208 3.573 14
492 2 -3.76823 0.0305275 3.95287 24
493 2 -5.57295 3.22331 3.95435 22
494 2 -5.2241 4.81779 1.1968 22
495 2 -3.96967 1.8621 1.21259 22
496 2 -3.55067 -0.0625448 9.49498 22
497 2 -5.1276 3.20545 9.5696 21
498 2 -4.98653 4.58098 6.77609 19
499 2 -3.97526 1.83863 6.7117 22
500 2 -4.48283 5.09017 11.9664 14
501 2 -3.47068 1.96849 12.1854 17
502 2 -3.36112 5.69239 3.88544 23
503 2 -4.9175 8.87477 4.42792 21
504 2 -5.12497 10.8432 0.951972 16
505 2 -3.62506 7.95449 1.27667 21
506 2 -0.00619283 5.30753 8.82149 20
507 2 -3.10877 5.4203 9.28525 20
508 2 -4.25543 11.2622 5.90156 14
509 2 -3.56284 7.76472 6.56914 22
510 2 -3.15779 11.7184 3.36715 17
511 2 1.02916 14.2542 0.127361 11
512 2 0.0881287 0.504252 3.84701 21
513 2 -1.95142 2.71424 3.87628 22
514 2 -1.92619 4.91475 1.30325 23
515 2 -0.249062 2.22999 1.05392 23
516 2 -0.0806197 -0.0951624 9.30601 22
517 2 -1.81524 2.68302 9.26072 20
518 2 -1.81324 5.0481 6.395 24
519 2 -0.225876 2.02397 6.74871 23
520 2 -1.31569 5.12935 12.6872 13
521 2 -1.43606 1.39068 13.977 8
522 2 -0.20229 5.66248 3.74769 23
523 2 -1.87295 8.31547 3.65928 22
524 2 -1.67403 10.559 0.866633 18
525 2 -0.340138 7.71671 1.00525 25
526 2 0.2555 1.81666 11.952 20
527 2 -1.90955 9.02617 9.08842 12
528 2 -1.99244 10.7372 6.38429 19
529 2 -0.422168 8.08412 6.34478 20
530 2 -2.36392 7.50984 11.2305 11
531 2 -2.24424 13.7983 5.98012 9
532 2 -0.429561 11.6356 4.54214 18
533 1 1.68581 -11.1743 -8.24055 11
534 1 1.01821 -6.75908 -12.0336 12
535 1 1.55681 -8.39993 -9.04741 19
536 1 1.29599 -6.54657 -6.13705 24
537 1 3.17143 -9.27583 -6.00736 22
538 1 3.37186 -12.4811 -5.21445 9
539 1 1.50154 -8.53859 -3.62296 21
540 1 -0.65886 -4.15435 -11.236 18
541 1 1.34273 1.1641 -14.5408 9
542 1 2.85411 -3.68327 -11.7769 16
543 1 3.11545 -5.51263 -9.09387 23
544 1 1.20297 -2.65515 -9.05898 20
545 1 1.30715 -1.05137 -6.02572 22
546 1 3.12256 -3.55415 -6.24838 22
547 1 3.01722 -5.54626 -3.63668 21
548 1 1.06818 -3.10283 -3.54773 22
549 1 4.43921 -6.70242 -11.7137 12
550 1 4.5554 -8.71944 -8.73114 15
551 1 4.6108 -6.35846 -6.4971 23
552 1 6.28756 -9.44791 -6.06258 14
553 1 6.41269 -11.1636 -3.49825 14
554 1 4.86534 -8.09562 -3.47147 24
555 1 4.03427 -1.08096 -12.2725 14
556 1 6.00738 -3.60276 -11.7457 12
557 1 6.56875 -6.01809 -9.75747 14
558 1 4.54945 -2.42985 -8.96976 20
559 1 4.77772 -0.705499 -6.26865 20
560 1 6.35824 -3.49494 -6.41679 21
561 1 6.42239 -5.65517 -3.40879 22
562 1 4.78541 -2.7091 -3.69193 22
563 1 8.13604 -6.57039 -7.0282 16
564 1 8.56968 -8.46487 -4.21761 17
565 1 8.17303 5.2497 -10.9735 11
566 1 9.82962 -5.83963 -9.46983 7
567 1 8.24706 -2.99448 -9.18207 16
568 1 7.88249 -0.715654 -6.62421 23
569 1 10.0616 -3.76461 -6.72915 16
570 1 9.76643 -5.86899 -4.10657 17
571 1 8.41107 -3.11866 -4.13405 20
572 1 11.1044 -8.96535 -2.82399 11
573 1 11.0147 -0.816226 -6.25614 13
574 1 11.7935 -3.0843 -4.40907 13
575 2 1.67462 -12.3113 1.84052 13
576 2 1.95433 -12.2733 -4.00127 13
577 2 2.88305 -11.2107 -6.70181 15
578 2 1.52095 -8.32228 -7.01447 22
579 2 1.36609 -6.88765 -9.8808 19
580 2 4.68898 -6.66414 -9.50608 16
581 2 3.46872 -10.9826 -0.759405 17
582 2 1.34666 -8.75638 -1.74038 20
583 2 1.27738 -6.61569 -4.13493 22
584 2 3.31706 -9.05508 -4.04298 23
585 2 2.83749 -5.57263 -12.3042 13
586 2 0.839788 -2.83954 -11.3025 18
587 2 2.90088 -5.66862 -7.04215 22
588 2 1.28245 -3.06058 -7.02067 22
589 2 1.25211 -0.671913 -9.5472 22
590 2 3.21972 -3.64481 -9.79256 23
591 2 3.01161 -5.75212 -1.51749 23
592 2 1.18487 -3.21512 -1.23505 21
593 2 1.13515 -1.28985 -4.11171 21
594 2 3.05883 -3.57424 -4.32508 23
595 2 4.71881 -11.8467 -3.98986 13
596 2 4.73751 -8.4155 -6.92982 19
597 2 5.93441 -5.64384 -11.6531 11
598 2 6.74613 -10.8021 -1.46572 15
599 2 4.52212 -8.33822 -1.50581 23
600 2 4.36926 -6.64946 -4.62016 22
601 2 6.37246 -9.24225 -3.8862 19
602 2 4.52605 -2.90393 -12.2285 11
603 2 6.24946 -5.40796 -6.83134 19
604 2 4.60658 -2.46752 -6.7262 22
605 2 4.51889 -0.596706 -10.2252 21
606 2 6.23755 -3.41628 -9.76382 19
607 2 6.43175 -5.47451 -1.45911 21
608 2 4.79608 -2.92148 -1.62618 22
609 2 4.84253 -0.543333 -4.18681 22
610 2 6.61436 -3.71151 -4.35534 22
611 2 7.88308 -8.2972 -6.05228 13
612 2 8.17024 -6.39678 -8.82675 12
613 2 8.47285 -8.79142 -0.598316 19
614 2 8.02776 -6.72536 -3.33439 22
615 2 9.63282 -9.78928 -3.18605 14
616 2 9.51151 -5.35161 -5.87222 19
617 2 8.22758 -2.81049 -6.41113 18
618 2 8.13708 -1.10275 -9.30198 14
619 2 9.81438 -4.07069 -8.87403 11
620 2 9.58204 -5.78222 -0.391565 24
621 2 8.24718 -2.77006 -1.45449 19
622 2 8.25532 -0.863823 -4.15716 19
623 2 10.4926 -4.16112 -3.2942 18
624 2 11.5228 -8.5023 -0.95665 14
625 2 11.0622 -7.12957 -3.3428 14
626 2 11.5527 -2.71085 -6.29766 12
627 2 12.5397 -5.35269 -0.688445 15
628 2 11.1198 -2.64676 -0.620674 18
629 2 11.2397 -0.47549 -4.49315 16
630 2 13.1844 -2.60653 -3.21139 11
631 1 3.19176 -11.7927 -2.47799 14
632 1 1.43038 -12.4287 3.73636 11
633 1 1.18266 -6.70302 -1.17495 21
634 1 3.05388 -9.01886 -0.561696 22
635 1 3.13176 -11.3824 1.10251 15
636 1 0.941957 -8.55204 1.68806 22
637 1 1.22679 -6.76969 4.38691 22
638 1 2.82709 -9.6118 3.67537 20
639 1 -0.767299 -11.7266 6.63897 16
640 1 1.08668 -8.62768 6.96814 24
641 1 1.66021 -6.99029 9.71132 21
642 1 2.87365 -9.96865 8.94041 11
643 1 1.34547 -0.915612 -1.01542 20
644 1 3.13111 -3.95551 -0.815072 25
645 1 2.84596 -5.90909 1.79962 23
646 1 1.44138 -2.80297 1.70322 24
647 1 1.27694 -0.900239 4.51285 24
648 1 2.91443 -3.91956 4.4083 24
649 1 2.91593 -5.99987 6.78689 19
650 1 1.25892 -3.18318 7.21497 23
651 1 1.45186 -1.20433 9.73972 24
652 1 2.93986 -4.25332 9.66339 22
653 1 3.41062 -6.13591 11.9222 13
654 1 1.38149 -3.10314 12.7391 15
655 1 5.25449 -11.7119 -0.624681 15
656 1 3.56793 -11.5938 6.00726 10
657 1 4.76859 -6.39036 -0.913416 21
658 1 6.40153 -9.01313 -1.10622 22
659 1 6.64003 -10.8556 2.07176 14
660 1 4.83449 -8.71836 1.80544 22
661 1 4.59615 -6.64514 4.25063 20
662 1 6.32192 -9.42132 4.89747 16
663 1 4.40193 -8.74168 6.82307 19
664 1 4.91739 -7.06756 9.44205 15
665 1 4.68286 -0.834625 -0.747433 22
666 1 6.52142 -3.76136 -0.876234 21
667 1 6.29725 -5.93686 1.9287 21
668 1 4.69923 -2.82013 1.66677 22
669 1 4.71581 -1.01978 4.38977 22
670 1 6.09618 -3.9288 4.52597 22
671 1 6.55669 -6.33289 6.75367 20
672 1 4.66454 -3.1733 6.84296 21
673 1 4.7446 -1.16489 9.61041 23
674 1 6.26775 -3.93058 9.73106 22
675 1 4.62389 -3.00968 12.0431 16
676 1 8.31664 -6.92404 -1.3914 23
677 1 8.76038 -10.5047 -1.60037 13
678 1 8.63472 -8.34294 1.16624 19
679 1 8.2751 -6.63281 4.1685 23
680 1 9.57687 -9.58003 3.72938 13
681 1 9.13719 -8.39937 6.55326 11
682 1 6.72226 -5.78801 12.0529 10
683 1 7.8546 -0.845578 -0.810739 23
684 1 9.78195 -3.77767 -1.6406 21
685 1 9.80658 -5.49293 1.51551 22
686 1 8.0337 -2.85028 1.92964 21
687 1 8.14339 -1.06553 4.41951 22
688 1 9.44391 -3.6665 4.24855 23
689 1 10.1287 -5.42321 6.89005 14
690 1 8.07352 -2.97192 7.47382 20
691 1 8.36708 -3.18549 11.6093 10
692 1 8.36879 -5.55736 9.26246 15
693 1 11.2907 -6.68187 -1.41103 17
694 1 11.5599 -8.78173 0.796311 13
695 1 11.1065 -7.09631 3.74715 16
696 1 11.1318 -0.726619 -1.03948 20
697 1 12.5847 -3.79264 -1.80025 14
698 1 13.1407 -5.84366 1.01343 12
699 1 11.5577 -2.87454 1.3159 19
700 1 11.3697 -0.815517 4.26993 18
701 1 12.9019 -3.41182 3.78569 10
702 1 11.4635 -2.32515 6.66561 11
703 2 2.45688 -11.2329 4.64685 16
704 2 -0.596095 -11.7631 8.69018 12
705 2 5.23351 -10.5036 6.45184 12
706 2 0.988144 -8.6791 3.78469 21
707 2 1.08566 -6.64034 0.862457 23
708 2 2.90845 -9.42009 1.50841 20
709 2 1.07015 -8.9085 8.89117 17
710 2 1.03542 -6.71169 6.64016 20
711 2 2.91127 -10.153 7.11414 13
712 2 1.5685 -6.22947 11.5908 14
713 2 2.7703 -5.86854 3.87844 23
714 2 1.24017 -2.74683 3.90675 22
715 2 1.49519 -1.08658 0.878276 23
716 2 2.99024 -3.89843 1.23409 21
717 2 2.75506 -5.95436 8.66616 23
718 2 1.41979 -3.09102 9.21134 24
719 2 1.31036 -1.05765 6.58705 21
720 2 2.98499 -4.01715 6.5275 21
721 2 1.50936 -1.34078 12.5672 15
722 2 2.97725 -3.9899 11.6713 20
723 2 5.11918 -11.5154 1.49678 14
724 2 7.7446 -9.8498 3.46507 15
725 2 4.69371 -8.65735 3.84522 22
726 2 4.65682 -6.70192 1.36941 21
727 2 6.36552 -9.43359 0.754095 21
728 2 4.03146 -8.65914 8.89072 14
729 2 4.64456 -6.85116 6.41282 22
730 2 7.32916 -7.98264 5.61591 16
731 2 5.19363 -6.61608 11.3335 15
732 2 6.34532 -5.93544 4.04895 20
733 2 4.54397 -3.06149 4.0542 21
734 2 5.11594 -1.16751 1.13195 23
735 2 6.36787 -4.11342 1.14869 21
736 2 6.38134 -5.95519 9.08459 18
737 2 4.46863 -2.96052 9.49185 21
738 2 4.50722 -1.13735 6.36896 23
739 2 6.52707 -4.05949 6.63976 21
740 2 4.82231 -1.07929 11.8814 18
741 2 6.11311 -4.05986 11.7943 16
742 2 10.4613 -8.57787 4.99093 11
743 2 8.27591 -6.62422 2.2184 21
744 2 10.2452 -9.14632 2.09591 13
745 2 8.97368 -6.85993 7.74036 13
746 2 9.75577 -5.65555 4.85 17
747 2 7.71543 -2.96007 3.92743 21
748 2 7.87502 -0.949082 1.19384 23
749 2 9.86352 -3.76685 2.21847 23
750 2 8.36916 -5.06863 11.1627 10
751 2 7.87304 -2.56339 9.35114 18
752 2 8.24501 -1.14857 6.63494 22
753 2 10.094 -3.58053 7.29095 13
754 2 8.03455 -1.36826 11.9959 12
755 2 11.7371 -6.95323 1.82967 16
756 2 11.416 -2.78672 4.88953 16
757 2 11.0979 -0.630318 1.13793 19
758 2 12.6217 -4.3939 2.2264 12
759 2 11.159 -0.300573 6.31982 15
760 1 9.18183 6.73503 -8.82917 11
761 1 -0.291136 3.59354 -13.5368 11
762 1 1.289 5.1192 -11.6333 20
763 1 2.60313 2.10873 -11.7867 20
764 1 2.97121 0.136332 -9.1943 22
765 1 0.984008 3.14013 -8.86964 24
766 1 0.943751 4.95867 -6.21189 23
767 1 3.09037 2.40466 -6.2344 23
768 1 2.98023 0.0290714 -3.85638 21
769 1 1.1796 2.82763 -3.53796 23
770 1 2.6891 7.79252 -11.8467 10
771 1 2.99485 5.81077 -9.02359 22
772 1 1.42396 8.45945 -9.04168 18
773 1 1.68035 10.3522 -6.28512 15
774 1 2.62541 7.53048 -6.30104 21
775 1 3.19786 5.24624 -3.46044 24
776 1 1.54081 9.11765 -3.36713 19
777 1 2.65097 12.3705 -3.4382 15
778 1 4.97135 5.02715 -11.5713 15
779 1 5.89915 2.10681 -11.8 13
780 1 6.26774 -0.14679 -9.47972 18
781 1 4.51473 2.77274 -9.35782 20
782 1 4.75461 4.83719 -6.25368 22
783 1 6.42297 2.06664 -6.21985 23
784 1 6.58219 -0.0856687 -3.36339 23
785 1 4.83554 2.83911 -3.78406 22
786 1 5.66975 6.46238 -9.03493 16
787 1 4.39834 10.2483 -7.68351 12
788 1 4.66659 12.5237 -6.26335 9
789 1 6.01401 7.59154 -6.28628 21
790 1 6.62387 5.76412 -3.71323 22
791 1 4.59037 8.44038 -3.5869 21
792 1 6.23793 11.7452 -3.2306 13
793 1 9.59405 0.0693442 -9.00843 14
794 1 7.75061 2.38561 -9.20465 20
795 1 8.13013 5.04554 -6.3188 26
796 1 9.77675 1.98876 -6.62183 18
797 1 9.65528 0.455988 -3.63442 19
798 1 8.07493 3.18172 -3.6179 23
799 1 7.65245 10.5355 -6.27742 13
800 1 9.58023 8.0947 -5.86512 14
801 1 9.6119 5.94243 -3.62319 19
802 1 7.69352 8.85098 -3.50439 17
803 1 11.1879 4.77142 -6.44415 14
804 1 10.7626 3.47584 -9.61727 11
805 1 12.9687 -0.602352 -3.43291 12
806 1 11.4156 3.35959 -3.34437 16
807 2 2.14996 0.336137 -12.7577 14
808 2 1.11351 3.11284 -12.1502 17
809 2 3.02226 0.21473 -6.02198 19
810 2 1.05454 2.98005 -6.76521 20
811 2 1.10455 5.05523 -9.53288 20
812 2 2.84671 1.98734 -9.41462 21
813 2 3.01321 -0.0674619 -1.48029 21
814 2 1.29973 3.20362 -1.55102 21
815 2 1.26943 4.71506 -4.15942 23
816 2 2.9108 2.38894 -4.08265 20
817 2 3.27735 5.88182 -11.6207 12
818 2 3.02769 5.74177 -6.75278 22
819 2 1.26495 8.63356 -7.07784 19
820 2 0.759261 7.99338 -12.9067 10
821 2 2.54985 7.50393 -10.034 17
822 2 3.15188 5.82153 -1.29109 20
823 2 1.32322 8.79864 -1.5685 24
824 2 1.36399 10.8951 -4.50628 17
825 2 2.63201 7.72619 -4.12234 20
826 2 3.1634 11.3518 -6.93641 11
827 2 2.98532 11.7737 -1.5434 21
828 2 3.13305 13.2888 1.4059 11
829 2 6.12558 11.1686 -1.38388 13
830 2 6.81502 3.88952 -11.8825 10
831 2 4.13629 3.24245 -11.6814 13
832 2 6.08894 0.270768 -7.13238 24
833 2 4.81638 2.93336 -6.66147 20
834 2 4.5694 4.71779 -9.48636 22
835 2 6.17088 1.77779 -9.85637 18
836 2 6.1532 0.103572 -1.5211 22
837 2 4.77593 2.82607 -1.81922 24
838 2 5.02619 4.7863 -4.18392 23
839 2 6.55633 1.87654 -4.03404 21
840 2 5.90364 5.99672 -7.16471 19
841 2 4.44577 8.47249 -6.84678 19
842 2 6.05917 11.289 -6.88754 10
843 2 6.36011 5.54795 -1.63489 23
844 2 4.80635 8.75877 -1.52824 21
845 2 4.73622 12.0147 -4.41679 14
846 2 6.28359 7.60217 -4.13131 22
847 2 9.79168 7.45216 1.02684 18
848 2 9.66557 0.129227 -7.14437 19
849 2 7.97301 3.13943 -7.18798 22
850 2 7.46154 6.86194 -9.76866 12
851 2 9.76132 5.12029 -9.87701 12
852 2 9.62184 0.436957 -1.57777 23
853 2 8.23847 2.99613 -1.48586 26
854 2 8.07258 4.91367 -4.48797 24
855 2 9.85524 2.35692 -4.57405 21
856 2 9.65244 6.15712 -7.10944 16
857 2 7.70011 8.67282 -6.41692 16
858 2 10.0787 5.8958 -1.71602 18
859 2 7.83256 8.63197 -1.16555 17
860 2 7.57884 10.684 -4.25252 13
861 2 9.15817 7.81981 -4.03263 16