ITEM: TIMESTEP
5000
ITEM: NUMBER OF ATOMS
500
ITEM: BOX BOUNDS pp pp pp
-30.0 30.0
-30.0 30.0
-30.0 30.0
ITEM: ATOMS id type x y z Coordination
1 1 -3.49125 1.64408 -4.08611 23
2 1 4.95485 -1.37963 6.86959 22
3 1 -1.18211 3.89485 8.24531 21
4 1 8.72072 -3.36124 3.42482 17
5 1 -7.87399 -2.93267 3.77137 21
6 1 -3.45887 -2.37852 -6.37929 18
7 1 1.44659 0.764649 9.28534 22
8 1 3.81811 -5.53993 -3.55272 20
9 1 -8.1565 -1.15871 0.892398 18
10 1 1.30042 1.09275 -6.82173 14
11 1 3.0511 -6.48035 -1.06854 19
12 1 6.85692 -0.391002 2.88397 22
13 1 1.19952 3.53288 -4.12625 21
14 1 2.00956 4.49399 6.7379 20
15 1 3.09118 6.16241 10.5539 12
16 1 -8.90192 -5.12644 1.84792 13
17 1 -11.0456 -3.05168 0.944516 12
18 1 8.4965 -1.66056 0.728567 19
19 1 4.77243 -0.830843 11.4526 10
20 1 -7.49988 -7.22097 0.86939 11
21 1 -2.60282 -5.27194 -4.12731 17
22 1 4.21711 -2.74511 -4.06858 22
23 1 7.05242 -4.62398 -3.38692 16
24 1 8.37186 -7.74344 8.17851 11
25 1 -4.93697 4.90229 8.5998 14
26 1 5.09634 1.34541 9.61846 16
27 1 0.0712102 7.36992 0.66926 19
28 1 -0.826227 -4.78952 -6.463 11
29 1 0.399285 4.7547 11.2406 12
30 1 6.6886 -5.77172 3.59039 22
31 1 -3.30675 9.31662 3.87687 9
32 1 -2.93728 6.31753 3.52689 19
33 1 2.24639 6.12706 -6.41186 13
34 1 6.71256 8.77458 0.834939 14
35 1 -0.942319 9.6602 -4.59649 11
36 1 -6.41711 4.21883 -6.10785 15
37 1 -0.59957 10.0824 1.63764 16
38 1 0.28807 5.34156 -1.48783 23
39 1 -7.90568 4.97577 1.58466 15
40 1 0.205145 6.56822 8.42728 14
41 1 -3.58753 3.6319 -6.92365 18
42 1 -4.72705 -7.25492 6.14286 12
43 1 -4.14984 -2.70091 -2.78536 20
44 1 5.13418 -9.097 -2.89171 12
45 1 -6.45571 -0.0479963 3.81882 23
46 1 -6.44994 0.0977052 -1.44631 23
47 1 0.352577 -11.6121 2.92711 14
48 1 6.48575 0.830281 -4.1716 12
49 1 -6.68231 -4.18909 -4.30495 15
50 1 3.98253 3.25639 -5.74632 10
51 1 1.38458 -7.36565 1.19651 20
52 1 2.02116 10.744 0.400365 15
53 1 -9.86367 -0.220323 3.59821 16
54 1 2.71054 8.96031 8.61414 10
55 1 2.81692 -2.14129 9.16182 19
56 1 1.25129 -8.75272 -2.47351 19
57 1 8.22678 -2.34204 -5.29141 9
58 1 0.788479 -8.81948 4.25115 16
59 1 2.59192 -11.4529 5.66415 10
60 1 6.95509 -1.4972 9.01381 15
61 1 3.00783 -4.30713 6.89041 24
62 1 4.10099 6.91669 0.906857 18
63 1 -5.48828 -8.28674 2.81547 15
64 1 -3.39303 -10.6095 1.22292 14
65 1 -2.1751 -7.88067 1.3838 24
66 1 3.26103 5.00736 -2.15002 20
67 1 3.24431 -5.95587 4.57156 20
68 1 -3.4763 -4.13033 6.59599 19
69 1 -11.0472 -1.87961 5.7107 13
70 1 5.59119 -8.76267 3.90051 15
71 1 -2.775 -9.04159 4.12019 17
72 1 -0.680519 1.70717 10.6399 19
73 1 -11.9427 -3.80627 3.39501 9
74 1 -0.644099 8.66493 4.38754 17
75 1 -7.90886 5.84208 4.42063 10
76 1 -7.46703 2.93388 9.95324 7
77 1 -7.43845 -2.34296 -2.25 21
78 1 -7.1847 1.59679 -4.02246 20
79 1 -6.7384 -2.2767 -6.8081 10
80 1 8.18699 -0.983746 5.72623 19
81 1 2.20236 -3.3719 11.5413 11
82 1 -5.39641 0.858687 -6.65273 13
83 1 -9.95578 1.20118 -2.80366 13
84 1 -5.01251 -8.97214 -0.623528 15
85 1 -6.72048 3.17434 6.75081 19
86 1 -3.45097 3.15135 6.97718 22
87 1 -3.25172 5.39181 -1.35314 22
88 1 -0.142023 -11.4222 -2.93219 9
89 1 2.22154 7.95761 5.84293 20
90 1 4.9723 2.13781 -2.71024 16
91 1 -9.16593 -1.28221 -4.51517 13
92 1 -8.00928 3.04431 -1.39245 18
93 1 -0.859881 -13.1183 0.105586 11
94 1 6.21703 -6.95952 9.59681 12
95 1 -4.35409 5.01098 -4.07189 18
96 1 -3.65676 -2.10653 9.00857 16
97 1 -7.91809 -0.197718 7.13126 13
98 1 -1.3739 -7.71327 -4.05843 13
99 1 -0.441358 -1.54064 9.25576 19
100 1 1.12984 -7.31403 6.85868 16
101 1 6.01219 -6.37881 -1.10492 20
102 1 4.8443 3.92177 -0.37517 23
103 1 -4.79405 2.67451 3.93384 20
104 1 1.38026 -2.1749 -4.22237 20
105 1 8.54325 -4.31323 9.10331 11
106 1 -5.69475 -6.45914 -3.51579 12
107 1 -9.61951 -4.59818 5.93847 11
108 1 6.73925 1.31122 6.84984 18
109 1 7.70364 6.25386 0.347778 13
110 1 -0.544153 3.25841 -6.7656 17
111 1 -0.607821 6.73023 -5.7661 16
112 1 5.05739 11.4734 -0.622571 9
113 1 6.18982 5.96074 -1.90056 15
114 1 5.52374 -9.53471 6.83107 14
115 1 8.93411 -7.46596 2.22682 13
116 1 2.97842 -10.1703 2.29597 15
117 1 -8.52853 4.08325 -3.62209 12
118 1 9.45805 0.504284 -0.365574 13
119 1 -1.44105 4.40059 -4.16299 23
120 1 -3.77413 8.4726 -2.98501 10
121 1 -0.387432 -6.35599 -0.908292 24
122 1 4.822 -7.18952 1.93889 18
123 1 -6.55667 -4.3048 6.37384 13
124 1 1.78201 -11.7801 -0.396554 13
125 1 2.15167 -4.44458 -6.34781 17
126 1 3.64609 5.42844 4.14001 20
127 1 8.63063 -8.89642 5.03586 11
128 1 9.79863 -2.85216 -1.92681 12
129 1 -1.77481 -1.62321 -3.9194 21
130 1 2.47543 1.91647 11.9151 12
131 1 -3.13116 3.71281 11.2987 10
132 1 5.67215 -4.37665 -6.30822 12
133 1 -9.76688 2.20757 0.933666 13
134 1 2.0468 8.01685 -1.25867 19
135 1 6.93231 -1.72961 -2.56477 17
136 1 -2.04875 0.444743 -7.45881 16
137 1 -8.45217 2.49429 4.13243 16
138 1 2.75808 -6.33972 9.64716 14
139 1 8.63644 2.17701 4.3755 19
140 1 -9.18544 2.74225 -6.16074 7
141 1 8.76157 -5.8615 5.6701 16
142 1 0.274311 -9.97287 0.386792 21
143 1 5.59784 4.30649 8.59155 12
144 1 2.63533 -9.68118 7.87834 10
145 1 5.84212 -4.09037 6.86302 20
146 1 9.19172 5.03212 3.49012 9
147 1 6.85345 -4.26149 1.09335 22
148 1 6.38399 4.28122 5.73989 15
149 1 -2.31845 -9.12223 -1.53844 20
150 1 4.46432 9.94573 5.79282 11
151 1 -4.70355 2.64489 -1.32201 27
152 1 -4.05475 6.81001 -6.42595 11
153 1 -1.808 0.551672 8.1667 21
154 1 -6.55511 -3.84903 0.430003 17
155 1 4.85725 7.01017 7.49475 16
156 1 -5.28708 5.58081 4.97685 17
157 1 -6.31794 1.74134 1.28343 24
158 1 5.39176 9.28967 -2.35636 11
159 1 2.31862 3.59826 9.26568 22
160 1 -5.39225 -1.97917 5.93373 20
161 1 -0.193378 -1.64716 -6.89737 16
162 1 -3.77572 -0.0145186 11.6967 11
163 1 4.8923 -3.36422 -1.04536 21
164 1 4.85607 11.0336 2.51353 12
165 1 5.30644 -6.77088 7.06604 22
166 1 -2.75457 6.71325 6.46044 13
167 1 2.57335 -7.78797 -4.87408 10
168 1 4.93352 -4.09566 9.79412 19
169 1 -0.28908 0.860358 -4.00569 23
170 1 -6.42214 -0.658285 10.1878 11
171 1 10.1573 -0.828149 3.25624 17
172 1 0.849487 7.13154 -3.52119 22
173 1 7.9717 3.36584 -1.83729 14
174 1 -0.0326472 -0.740587 12.1104 9
175 1 0.429135 -4.97829 9.13571 13
176 1 -4.61543 4.72167 1.30538 23
177 1 5.39289 8.04571 3.87421 16
178 1 -6.64603 -5.58271 3.87561 18
179 1 10.5409 1.79832 2.25767 11
180 1 -3.6445 -6.27269 -1.33555 18
181 1 10.5211 0.66195 5.80317 10
182 1 7.46213 -9.31461 -0.796808 11
183 1 2.20174 8.50832 2.64303 21
184 1 -10.175 -2.08281 -1.88585 11
185 1 -0.679955 9.00371 -1.76666 18
186 1 1.99587 9.50657 -5.81715 9
187 1 -5.38446 -1.03157 -4.16509 20
188 1 3.21321 -1.58575 -7.01169 12
189 1 -3.34288 -12.1305 -1.05562 9
190 1 -0.48849 -10.1635 6.55857 12
191 1 10.6411 -4.55416 0.853727 9
192 1 -12.7772 -0.535109 2.9219 7
193 1 -1.03663 5.67907 -8.33103 8
194 1 -8.60912 -5.40996 -1.90687 11
195 1 10.48 -2.92938 6.1506 10
196 1 -4.44492 -5.26426 -6.454 10
197 1 -5.4423 7.28791 2.13243 13
198 1 -8.84387 -2.59536 8.17468 9
199 1 5.89953 5.38292 2.32545 17
200 1 7.97173 3.00881 1.38198 21
201 1 -2.90987 -5.98295 4.12815 23
202 1 3.22298 0.723117 -4.39731 20
203 1 4.06572 7.04277 -4.33802 13
204 1 1.98382 10.9029 3.61906 12
205 1 2.19092 10.9054 -2.8698 11
206 1 6.733 1.09509 -0.46955 21
207 1 -4.64171 0.755041 6.53088 21
208 1 9.38789 -6.34588 -0.99108 14
209 1 0.978982 -5.22384 -3.54298 22
210 1 -4.72882 1.57869 9.44594 17
211 1 -2.81004 7.80369 0.241315 20
212 1 -2.20733 -7.52907 7.24555 12
213 1 4.57514 -9.50955 0.069942 15
214 1 -4.83143 -2.99488 2.92512 21
215 1 -6.3478 5.77868 -1.28571 16
216 2 -11.1741 -3.57871 5.13739 12
217 2 8.17385 4.21819 4.89328 13
218 2 3.88755 -2.38019 10.7579 13
219 2 -5.21741 -1.0518 -6.31131 14
220 2 -9.7811 2.06841 -1.06386 14
221 2 -0.55913 -8.29998 6.63402 15
222 2 3.03357 1.8817 8.60669 21
223 2 8.30984 -1.37455 3.30682 22
224 2 -6.48103 3.93273 8.59821 11
225 2 -4.26089 5.52398 6.75365 15
226 2 4.57612 -7.4864 -1.82734 17
227 2 -3.61848 1.55943 -6.94289 16
228 2 -0.671729 -5.90701 -4.75351 17
229 2 -0.647131 -10.1786 4.25431 16
230 2 -2.33598 7.71576 4.93077 14
231 2 10.1038 -1.12603 5.5198 12
232 2 4.43812 6.81629 2.89059 18
233 2 1.33676 7.9079 7.6264 15
234 2 3.85541 10.5997 4.1217 12
235 2 2.68848 7.9174 -5.54197 12
236 2 7.43704 -3.53402 -6.2681 8
237 2 -9.23835 2.20794 -4.23253 14
238 2 2.32498 -7.80163 8.31661 16
239 2 -8.37168 -1.03279 2.81383 18
240 2 2.16787 -6.8878 -2.85481 19
241 2 -2.47835 -12.2755 0.681346 11
242 2 4.98649 -1.63136 -2.51629 23
243 2 3.87319 7.30751 9.23496 12
244 2 6.71729 -3.47601 9.1863 16
245 2 -3.22091 -8.43864 5.7344 13
246 2 1.89432 -11.2262 3.99899 11
247 2 -4.84831 -6.79867 4.14741 19
248 2 -3.70871 -10.2663 -1.13048 14
249 2 -5.98339 -2.6935 -3.5039 20
250 2 -1.56671 9.93908 3.38607 12
251 2 3.14477 -1.27781 -5.01417 19
252 2 5.95201 7.19404 0.0316227 18
253 2 3.58154 5.12333 -5.55303 14
254 2 -4.72205 4.54122 -2.09395 19
255 2 9.48032 3.49836 2.13782 13
256 2 1.29677 10.1127 2.07204 15
257 2 -7.32507 4.68688 5.83243 14
258 2 1.35065 9.84559 -1.49825 17
259 2 3.89745 10.7899 -1.93407 10
260 2 -3.48191 3.70946 9.30414 16
261 2 3.90731 0.94596 11.084 13
262 2 4.07923 -3.47042 -6.63292 13
263 2 1.16985 -10.6332 -1.67162 13
264 2 2.46353 -3.78782 -4.32027 20
265 2 -4.64557 -3.4589 0.939097 17
266 2 7.79477 -7.18804 -1.23377 14
267 2 5.09774 4.24001 4.18187 16
268 2 -2.08493 -1.47689 -7.21513 13
269 2 1.5412 -0.77906 -7.13556 15
270 2 -1.86726 -7.25992 -1.88353 21
271 2 3.00245 -6.11883 -5.64336 13
272 2 8.21491 -3.01843 -3.60662 12
273 2 -7.66811 -6.53347 2.66633 12
274 2 0.508084 -3.45865 -6.40084 16
275 2 1.66106 3.95788 -2.14814 21
276 2 -1.39607 -12.4192 -1.6454 13
277 2 -0.376147 1.38819 -7.28323 13
278 2 -3.47232 1.26575 7.95023 23
279 2 -6.05804 -8.22013 0.84727 13
280 2 -6.21016 -0.283376 5.99382 18
281 2 -4.26828 4.80392 3.54983 22
282 2 -8.21262 -4.94013 4.76044 13
283 2 -12.425 -2.2121 2.39296 9
284 2 6.17326 -8.15958 8.00849 14
285 2 6.82926 -0.679466 0.73177 22
286 2 -3.51125 -2.12246 -4.3672 20
287 2 2.1409 6.03634 5.70744 19
288 2 3.52248 9.97516 7.28826 9
289 2 0.972731 0.799124 11.3153 15
290 2 -6.46664 1.76079 3.36596 22
291 2 -7.91 -0.37009 -3.0493 20
292 2 7.79128 5.8545 2.27579 13
293 2 -10.4022 -4.08038 2.45259 14
294 2 -4.23729 7.05408 -4.4231 14
295 2 -0.206515 -0.985492 -4.77295 20
296 2 -6.32967 5.5689 0.824071 18
297 2 4.246 -5.46031 6.24061 21
298 2 0.254625 5.33541 0.530711 21
299 2 3.6288 -9.26273 -4.57635 8
300 2 3.09353 -10.718 0.339438 15
301 2 -6.41619 6.54167 3.51121 11
302 2 1.32775 -7.10926 4.61465 18
303 2 6.73117 -9.30015 5.27638 13
304 2 4.03525 4.49913 9.58214 15
305 2 1.30742 10.6001 -4.44081 10
306 2 -0.0948682 -3.24555 8.48911 17
307 2 -1.64713 -7.6147 3.6466 22
308 2 -2.10443 -1.26426 8.01454 19
309 2 0.421248 5.50639 -7.09826 14
310 2 8.58487 -1.40083 -1.26775 14
311 2 1.3974 -0.931491 8.37373 20
312 2 -6.63347 -2.14558 -0.49603 20
313 2 5.94541 9.43111 2.62986 13
314 2 4.7787 8.04014 5.80567 15
315 2 9.96322 -6.42759 0.974444 10
316 2 -7.9251 -5.25965 -0.055873 16
317 2 1.29924 6.23827 10.1831 14
318 2 5.77039 -0.505498 9.97403 14
319 2 2.2535 2.10495 -5.6574 13
320 2 9.78334 -4.30298 4.87428 14
321 2 1.72163 3.41793 11.1534 14
322 2 6.97106 -5.82725 6.52002 22
323 2 -10.6116 -0.774535 -3.11477 10
324 2 -4.60438 2.7347 0.793895 21
325 2 -8.09314 4.35168 -5.33757 8
326 2 -2.79793 -5.92837 6.42911 15
327 2 3.85959 11.1321 0.879311 13
328 2 -8.17915 -2.2924 -5.71216 11
329 2 9.09149 -3.52591 1.32838 18
330 2 -3.68636 7.9982 2.32976 17
331 2 8.23315 -7.10159 3.99016 16
332 2 -5.12793 -5.41454 6.92579 15
333 2 -7.19865 -5.683 -3.32286 10
334 2 0.0909008 7.29154 -1.39555 19
335 2 -8.46419 4.23213 3.26377 13
336 2 6.36061 4.14118 0.763476 21
337 2 1.93523 -4.73966 10.3393 13
338 2 -9.46257 1.52736 2.59387 16
339 2 -3.44471 7.3355 -1.4452 15
340 2 -1.10072 3.62009 11.0059 13
341 2 -6.47061 2.17979 -2.04001 20
342 2 5.95185 9.86802 -0.638558 10
343 2 -4.58146 -0.929569 10.306 12
344 2 -0.30872 1.56016 8.74473 22
345 2 -5.87431 -3.95336 -6.3978 13
346 2 0.194897 5.34255 -4.12608 18
347 2 -1.52104 -9.48964 0.348504 24
348 2 -3.40314 3.50867 -4.67965 19
349 2 6.07008 -2.48709 5.5963 19
350 2 0.683331 4.43674 8.26227 20
351 2 7.8161 5.09736 -1.23672 12
352 2 3.88399 -10.2646 6.37277 10
353 2 7.24805 -0.785345 -4.7227 10
354 2 5.69368 5.43448 7.06536 12
355 2 -6.88854 0.22334 0.372222 22
356 2 -7.7749 -1.30628 9.00805 10
357 2 -9.06789 -3.66145 -2.25624 15
358 2 1.19094 -9.09789 2.26468 19
359 2 0.289769 7.32277 2.69761 20
360 2 -8.26823 1.84359 6.27723 15
361 2 -5.70179 -3.43828 4.64765 20
362 2 0.494761 -12.1434 1.09095 13
363 2 6.1938 2.55133 8.3394 13
364 2 -1.74463 4.4757 -2.03122 21
365 2 -2.17898 6.86582 -6.7655 14
366 2 5.64226 7.52741 -3.25435 12
367 2 -0.755222 -9.39329 -3.17492 14
368 2 6.76602 -0.718733 7.29862 16
369 2 5.17802 1.65168 5.81831 21
370 2 0.41462 8.26371 -5.24822 16
371 2 -5.26175 1.29535 -4.51735 18
372 2 -2.68203 -4.4772 -6.01532 14
373 2 -4.77619 -0.948241 -2.18772 21
374 2 -1.2837 6.39019 7.4852 14
375 2 -2.01525 9.08236 -3.2486 13
376 2 -7.73978 4.8496 -2.12164 14
377 2 -6.73703 1.25138 10.0761 11
378 2 -0.374236 2.67283 -4.88701 22
379 2 5.38956 -4.37359 -4.25484 18
380 2 -7.95172 3.0545 0.64608 18
381 2 -2.06809 4.10603 -7.67582 14
382 2 3.18981 -6.75193 0.843814 23
383 2 4.2424 -3.19136 8.06868 21
384 2 -4.51258 -2.52052 7.36934 17
385 2 -2.92904 -4.39593 -2.21134 21
386 2 -9.64011 -1.28085 6.97713 11
387 2 7.97173 -6.09717 9.42149 13
388 2 -11.5741 -0.582595 4.42805 9
389 2 -1.86274 0.0403626 11.8736 12
390 2 1.24112 -10.4922 6.95202 10
391 2 10.5237 1.07005 3.96136 11
392 2 0.67552 -7.99451 -0.73124 20
393 2 -1.52999 9.3474 -0.0753126 15
394 2 -7.03786 2.35611 -6.27038 12
395 2 -8.27909 -4.00854 7.0882 14
396 2 4.55772 -6.0928 9.69025 15
397 2 8.3263 2.07085 -0.358091 16
398 2 4.94336 1.81072 -4.70671 11
399 2 8.43637 1.04369 5.97446 16
400 2 -3.09244 5.60065 0.516767 21
401 2 9.74478 -3.46552 7.7019 10
402 2 3.41234 -4.59561 -1.42789 21
403 2 -3.03641 -6.39161 0.383955 20
404 2 6.57608 -4.58105 -1.43451 20
405 2 4.82726 -9.08802 2.09885 14
406 2 6.82084 -3.96015 3.38802 20
407 2 6.22397 -6.18749 1.19095 26
408 2 -3.57452 1.8946 11.2974 12
409 2 4.88696 4.33384 -2.32058 19
410 2 -9.74363 -2.01107 0.0717642 17
411 2 -7.47339 -3.64978 2.0216 19
412 2 9.0418 -7.81663 6.47569 11
413 2 2.61401 6.73366 -2.83218 20
414 2 9.93242 0.122971 1.48609 16
415 2 3.47435 5.11046 0.294329 22
416 2 1.19415 -5.44249 7.30373 17
417 2 5.02842 -6.90616 3.8636 18
418 2 9.90189 -4.37085 -0.84553 12
419 2 5.96593 -9.78931 -1.40228 10
420 2 -4.37522 -6.0271 -4.62737 15
421 2 2.23635 7.95405 0.573573 19
422 2 1.28569 8.94076 4.53438 16
423 2 -3.73585 -9.29372 2.48574 15
424 2 0.889262 -2.18701 11.8061 12
425 2 -4.98414 2.66174 5.85132 22
426 2 7.04512 1.62503 3.3499 25
427 2 6.98566 2.08793 -2.79948 14
428 2 -4.68491 5.12161 -6.20129 12
429 2 -5.22695 -7.38928 -1.76159 14
430 2 8.11269 -8.66051 0.909865 13
431 1 -1.38837 -3.35161 -1.47287 22
432 2 -0.317298 -6.14005 1.45338 20
433 2 -1.50646 -3.08319 0.655496 23
434 2 -1.41824 -1.38694 -2.17008 19
435 2 0.118414 -4.66441 -1.90842 20
436 1 -5.00719 -1.24963 0.497516 21
437 1 -2.95643 -4.62316 1.0731 17
438 1 -1.47455 -1.22663 1.1697 23
439 1 0.193669 -4.2805 1.55481 22
440 1 -0.308463 -6.11658 3.89676 21
441 1 -1.49447 -3.13714 3.83528 21
442 1 -1.99525 -1.21247 6.11544 21
443 1 -0.169969 -3.82467 6.63398 19
444 2 -4.94021 -0.956955 2.77596 24
445 2 -2.9917 -4.33382 3.07617 21
446 2 -2.1085 -3.12143 5.81246 22
447 2 -1.43974 -1.16114 2.97569 22
448 2 0.0160257 -4.04343 3.74525 19
449 1 -2.94662 -0.35748 -1.55631 21
450 1 0.286498 -0.618956 -1.52426 22
451 1 -1.49808 2.63205 -1.22443 24
452 2 -3.3596 -0.266877 0.463603 24
453 2 -2.96973 1.62839 -2.1633 22
454 2 0.200683 -0.479617 0.694715 24
455 2 -1.31104 2.72488 0.77179 24
456 2 0.0671202 1.19617 -2.16913 20
457 1 -2.88496 1.61125 1.18907 21
458 1 -3.19411 -0.197177 3.31796 21
459 1 -1.47567 4.6999 1.28012 23
460 1 0.101633 1.52282 1.33438 23
461 1 0.0786733 -0.372988 3.81728 21
462 1 -1.59461 2.75103 4.28572 22
463 1 0.1717 1.68071 6.66443 23
464 1 0.425911 5.71157 3.74141 18
465 2 -3.58369 -0.456084 5.36822 26
466 2 -3.00665 1.76949 3.48771 23
467 2 -0.0584253 -0.0374005 5.78581 25
468 2 -1.56459 2.72225 6.29785 19
469 2 -1.33401 5.36219 3.00654 20
470 2 -0.00899244 1.73331 3.32297 22
471 1 1.74859 -3.70651 -1.25078 23
472 2 1.74376 -3.2362 0.90657 23
473 2 1.7018 -1.78436 -1.90933 24
474 2 5.0326 -3.29323 0.828335 22
475 1 1.92916 -1.38453 1.40775 24
476 1 3.34961 -4.37328 1.33259 21
477 1 1.87783 -3.22814 4.1295 22
478 1 1.47462 -1.07295 6.44124 23
479 1 5.17258 -1.41 1.10174 21
480 1 5.17561 -3.05588 3.43952 22
481 2 1.73267 -2.96978 6.1361 21
482 2 1.91927 -1.31359 3.47545 23
483 2 3.33271 -4.41221 3.24878 21
484 2 5.11123 -1.08352 3.27693 22
485 1 3.45418 -0.947339 -1.55351 22
486 1 1.59108 2.14294 -1.50765 23
487 2 3.3873 -1.03224 0.298461 22
488 2 1.72075 2.3125 0.361814 23
489 2 3.34682 1.26695 -2.21994 23
490 2 5.18098 2.06643 0.0187441 20
491 1 1.76061 4.30595 1.50927 23
492 1 3.52048 1.42615 1.03998 21
493 1 3.59734 -0.149153 3.98673 21
494 1 1.90738 2.54519 3.83274 22
495 1 3.4889 1.40912 6.71859 20
496 1 5.40037 2.28507 4.01652 19
497 2 3.44259 -0.454558 6.20013 22
498 2 1.81893 2.69546 5.99523 22
499 2 1.85268 4.31153 3.37486 19
500 2 3.74385 1.56927 3.06531 21
