ITEM: TIMESTEP
22000
ITEM: NUMBER OF ATOMS
500
ITEM: BOX BOUNDS pp pp pp
-30.0 30.0
-30.0 30.0
-30.0 30.0
ITEM: ATOMS id type x y z Coordination
1 1 -0.609117 -1.6376 -0.00371682 24
2 1 8.61098 -3.80095 9.28705 19
3 1 2.14724 1.81871 9.25108 19
4 1 11.5914 -6.25838 7.41453 15
5 1 -4.7642 -6.08744 7.55877 21
6 1 -1.31418 -5.442 -4.45912 10
7 1 4.1115 -3.15906 12.7204 22
8 1 5.76375 -7.48541 -0.13416 20
9 1 -5.49508 -6.43632 3.92082 19
10 1 2.62622 -2.40662 -2.85472 17
11 1 6.52616 -9.31306 2.18554 18
12 1 10.3003 -3.63094 6.78333 20
13 1 4.15206 0.484614 -2.6438 12
14 1 5.27112 1.56659 10.3491 23
15 1 6.17132 2.50206 13.4867 14
16 1 -5.69535 -9.09288 6.01096 14
17 1 -9.32101 -5.11719 6.49629 10
18 1 11.5944 -5.11449 4.38509 17
19 1 5.7756 -4.35149 15.6858 14
20 1 -3.6637 -9.75056 4.06161 16
21 1 -1.75206 -7.34792 0.478182 14
22 1 7.36325 -4.394 -0.857291 22
23 1 8.29543 -9.18725 -2.47385 11
24 1 9.70272 -11.9957 11.4951 11
25 1 -3.3387 2.36842 12.1019 11
26 1 7.05485 -1.89802 13.4478 15
27 1 3.79548 4.61302 4.16066 21
28 1 1.05304 -7.74994 -3.34126 12
29 1 2.68841 2.02201 14.5147 11
30 1 10.3939 -9.18916 7.09626 16
31 1 -0.55357 5.74195 7.11693 13
32 1 -0.133506 2.90184 7.43522 23
33 1 6.6657 2.9992 -1.96517 8
34 1 10.7051 5.45592 3.96537 13
35 1 0.0480585 5.14194 -1.55654 10
36 1 -4.83783 1.89164 -2.72537 10
37 1 2.18733 7.31135 5.61424 12
38 1 2.89279 2.37521 1.44996 14
39 1 -3.65737 2.12122 7.32121 17
40 1 3.33794 3.33296 12.0299 18
41 1 -2.75461 -0.327202 -2.86658 17
42 1 -1.17774 -10.7194 9.97268 11
43 1 -2.02422 -6.59229 3.13341 20
44 1 7.22522 -12.3585 1.89731 14
45 1 -2.92612 -3.41628 7.91171 20
46 1 -4.15525 -4.00886 3.42682 18
47 1 2.38668 -15.3078 7.44808 11
48 1 9.12117 -1.91794 -1.28422 12
49 1 -5.24463 -7.8064 -1.59552 11
50 1 7.56297 0.520834 -2.75384 8
51 1 5.10007 -10.5316 4.86412 19
52 1 5.06492 7.64728 4.84752 15
53 1 -6.17869 -3.3492 6.15517 20
54 1 6.28765 5.54996 12.3729 12
55 1 4.47013 -6.14152 12.9024 24
56 1 4.28733 -11.9832 1.05987 16
57 1 9.51185 -5.97955 -1.21753 13
58 1 5.81377 -10.2267 9.07904 19
59 1 4.38762 -13.4454 10.0059 13
60 1 8.13033 -4.76626 12.8365 17
61 1 6.52623 -7.02245 10.7265 22
62 1 6.00301 4.94473 6.87006 23
63 1 -0.699764 -11.227 5.10684 17
64 1 0.394969 -14.3033 4.94509 14
65 1 1.94004 -10.2893 5.28644 19
66 1 6.34611 2.17611 1.6319 19
67 1 6.71505 -9.12012 6.66651 21
68 1 -0.0557513 -7.64465 10.8615 16
69 1 -8.06114 -5.31988 9.4745 12
70 1 7.8845 -12.2244 8.1378 14
71 1 0.453416 -12.3088 7.44246 18
72 1 1.7797 -1.37934 13.6094 16
73 1 -8.52213 -7.97864 7.66585 9
74 1 2.53025 5.17396 7.9104 20
75 1 -4.92994 2.0218 9.49346 12
76 1 -5.11732 -0.33198 12.0603 10
77 1 -4.21622 -5.15103 0.917235 20
78 1 -3.94507 -1.36862 1.3671 21
79 1 -3.16998 -6.16695 -2.25964 17
80 1 13.1816 -2.50819 11.9281 5
81 1 3.6111 -6.72384 15.4022 12
82 1 -3.85642 -3.22867 -3.57015 12
83 1 -6.33993 -2.94215 0.840499 17
84 1 -1.57944 -12.4784 2.58451 12
85 1 -3.11137 -0.671137 9.52686 24
86 1 -1.34548 1.60102 10.0535 23
87 1 -0.911984 2.63329 2.06546 17
88 1 3.68845 -14.389 1.79458 11
89 1 3.23658 6.08949 10.9132 11
90 1 9.53932 -3.54121 1.16939 20
91 1 -6.06383 -4.3541 -2.0168 16
92 1 -5.56948 -0.939108 3.3981 17
93 1 2.83397 -16.16 4.04701 10
94 1 7.78786 -9.85808 12.643 15
95 1 -3.11112 1.31729 0.615063 18
96 1 -2.00268 -5.7057 12.2373 13
97 1 -5.7239 -2.67961 9.02713 19
98 1 2.60121 -10.2856 -1.41909 11
99 1 0.547231 -6.31364 13.7854 12
100 1 4.98612 -9.55799 11.4575 20
101 1 9.0563 -10.8227 0.404637 14
102 1 7.64833 -0.862733 1.49202 23
103 1 -1.36162 -0.307279 7.41016 21
104 1 4.09826 -4.68441 -0.732338 23
105 1 10.1192 -7.92749 13.0696 11
106 1 -0.16755 -9.4065 2.72485 19
107 1 -6.36348 -8.46899 9.55058 10
108 1 9.70504 -1.75501 10.9955 16
109 1 8.11907 0.994888 3.52369 18
110 1 0.585149 -0.0660406 -2.72549 15
111 1 1.79272 3.1722 -2.58883 10
112 1 8.53266 7.88682 3.52143 9
113 1 9.09811 2.28908 0.105467 14
114 1 6.52092 -13.1579 12.157 10
115 1 11.4626 -11.4533 5.20928 12
116 1 5.52286 -13.2608 6.99885 14
117 1 -6.21884 0.541329 0.658581 12
118 1 12.8973 -2.72095 3.03741 12
119 1 0.215396 1.26673 -0.399768 18
120 1 -0.831531 5.83249 1.15246 10
121 1 3.09335 -8.96379 2.33062 19
122 1 8.7861 -10.2857 4.26542 21
123 1 -3.44985 -7.79166 9.52689 16
124 1 3.06299 -13.0736 4.89622 20
125 1 4.20184 -6.89755 -3.24364 14
126 1 7.05183 1.98916 7.88673 19
127 1 10.9767 -11.5612 8.93516 12
128 1 11.0841 -8.5643 -0.196731 12
129 1 0.824513 -4.39414 -0.408971 18
130 1 4.05687 -0.904274 15.3014 12
131 1 0.345294 1.5128 12.4772 16
132 1 7.39122 -6.58516 -3.57796 12
133 1 -7.40197 -3.90715 3.45303 15
134 1 6.85037 3.86848 4.08085 17
135 1 11.7918 -6.20556 1.62844 14
136 1 -0.977682 -3.02258 -3.18999 17
137 1 -5.14099 -0.620103 6.9349 17
138 1 5.09722 -9.72167 14.3906 13
139 1 11.3938 -1.25075 8.03741 17
140 1 -5.8437 -1.06732 -2.01833 13
141 1 11.4324 -9.36585 10.8011 13
142 1 5.93815 -13.8929 3.81327 13
143 1 8.27773 0.712707 12.1107 15
144 1 3.30249 -12.2431 12.4632 10
145 1 9.96835 -6.37131 10.4254 20
146 1 12.1519 1.974 7.11799 11
147 1 9.85087 -7.17912 4.78263 18
148 1 10.0167 1.53189 9.0259 14
149 1 1.17552 -11.8813 1.42541 15
150 1 7.62961 6.42674 9.15029 13
151 1 -2.01337 -0.631538 2.83017 20
152 1 -2.81766 3.63601 -0.80013 13
153 1 -0.78052 -3.40106 14.2247 12
154 1 -8.56388 -6.99477 4.22351 13
155 1 8.10051 3.53105 11.0794 15
156 1 -2.96344 4.5136 9.10799 13
157 1 -3.24404 -1.43469 5.23123 25
158 1 11.3036 3.14756 1.69646 11
159 1 4.54506 0.0173389 12.5844 20
160 1 -1.17899 -6.14563 8.29196 21
161 1 1.86741 -4.74143 -4.67388 12
162 1 -1.4885 -0.553275 12.6859 17
163 1 7.87034 -6.46173 1.87523 21
164 1 8.20174 7.14402 6.36143 14
165 1 8.814 -9.56993 9.84395 21
166 1 0.164593 4.62013 10.1468 15
167 1 5.97081 -10.7298 -1.0947 13
168 1 6.92142 -7.23942 14.3347 16
169 1 2.37243 -1.55178 -0.144677 21
170 1 -3.57481 -2.80333 11.7125 15
171 1 13.4738 -3.51671 6.38364 13
172 1 5.08248 4.57678 1.14345 17
173 1 10.7941 -0.378234 1.40265 15
174 1 2.42881 -3.95146 15.2848 12
175 1 2.63523 -8.49268 13.1599 14
176 1 -1.15339 1.5091 4.94605 22
177 1 10.579 5.59851 7.54886 9
178 1 -2.83709 -10.4743 7.53056 16
179 1 13.2475 -0.223236 4.20868 9
180 1 -0.30202 -9.94469 -0.307385 12
181 1 11.8125 -3.78629 9.61035 17
182 1 9.94678 -13.2674 2.97908 11
183 1 5.2095 4.51888 9.75984 21
184 1 -7.3673 -6.01155 0.683053 14
185 1 2.30762 6.61364 2.22075 14
186 1 2.83803 6.06488 -0.590589 10
187 1 -2.76376 -3.4469 -0.67784 21
188 1 5.30474 -3.90143 -3.68185 15
189 1 0.53531 -14.788 1.86861 9
190 1 1.02358 -13.2381 10.3741 10
191 1 11.8542 -8.87485 3.3067 12
192 1 -8.54315 -2.22521 7.42621 10
193 1 -1.3572 2.56494 -3.24393 13
194 1 -6.2414 -8.59525 1.85514 10
195 1 12.5894 -6.12447 10.7205 12
196 1 -1.70871 -8.34889 -2.84421 12
197 1 -3.00693 4.15128 5.49914 15
198 1 -5.40732 -5.4994 11.0773 14
199 1 9.32118 3.07055 6.24578 19
200 1 11.336 2.1448 4.35469 13
201 1 0.451961 -9.1819 8.03755 21
202 1 5.62081 -1.84656 -0.994314 20
203 1 8.50953 5.27653 1.8264 13
204 1 4.89676 8.12601 8.10476 14
205 1 5.23701 7.45606 1.72661 13
206 1 10.0217 -1.79365 4.54706 21
207 1 -0.96865 -3.61261 10.8251 20
208 1 12.2452 -11.3161 1.62449 8
209 1 2.73712 -7.34803 -0.647 17
210 1 0.540236 -0.757199 10.3558 22
211 1 0.0475577 4.94713 4.27615 16
212 1 2.23103 -10.7277 9.66508 17
213 1 8.7077 -13.5886 5.43298 9
214 1 -3.07327 -7.69172 6.03329 20
215 1 -4.16959 1.6574 3.56517 16
216 2 -7.94876 -7.21 9.32307 11
217 2 11.3784 0.561571 8.08377 13
218 2 5.2483 -6.02863 14.8726 18
219 2 -4.97822 -5.84765 -2.18583 13
220 2 -6.11004 -2.60407 2.67833 18
221 2 4.00335 -9.56523 9.45715 19
222 2 5.89744 -2.57862 12.0406 20
223 2 12.3459 -5.0201 6.11688 15
224 2 -4.8988 1.2956 11.1888 10
225 2 0.396809 2.68644 9.98152 19
226 2 8.17758 -10.4114 2.31868 17
227 2 -2.82316 -2.26085 -2.25362 19
228 2 2.14295 -8.59048 -1.91443 13
229 2 1.31595 -13.918 8.53875 11
230 2 -0.930364 4.40782 8.30116 16
231 2 13.1838 -4.27558 10.9756 8
232 2 7.43683 3.61972 6.52514 21
233 2 4.53288 4.99346 11.8962 16
234 2 6.50666 6.79694 7.36006 15
235 2 5.78629 3.45218 -0.512188 13
236 2 8.7785 -7.10885 -2.52544 12
237 2 -6.04092 -1.40999 -0.275548 16
238 2 4.45131 -10.7613 12.9985 14
239 2 -4.71416 -4.22902 7.55785 17
240 2 4.27867 -11.1486 -0.837829 10
241 2 2.04189 -15.802 2.41519 9
242 2 8.34263 -4.43194 2.17794 21
243 2 7.27553 3.73871 12.6507 12
244 2 8.92481 -6.61368 13.808 13
245 2 0.47513 -11.6426 9.39024 12
246 2 5.94265 -12.2865 9.08283 15
247 2 -0.977599 -10.9815 7.02757 15
248 2 -0.3782 -13.7717 3.23401 12
249 2 -0.732383 -7.5603 2.11754 17
250 2 1.25164 6.17432 6.97772 12
251 2 5.75379 -3.67055 -1.58141 19
252 2 11.4288 3.84303 3.37049 12
253 2 8.23312 1.70464 -1.50403 12
254 2 -2.38328 1.94543 3.40641 19
255 2 12.6857 1.22194 5.27727 11
256 2 3.59998 8.0253 6.50273 12
257 2 -3.17315 2.9173 10.1584 15
258 2 4.02208 7.20997 3.27117 14
259 2 7.06111 7.66489 2.20709 11
260 2 0.344362 -0.439459 12.5961 18
261 2 5.6023 -0.797184 14.2408 17
262 2 5.69861 -5.93301 -3.69277 13
263 2 4.18583 -14.6369 3.93605 13
264 2 4.46557 -6.72331 -1.12412 18
265 2 -1.60814 -7.03487 4.92325 19
266 2 10.3175 -11.9153 1.41354 15
267 2 8.47117 0.813707 7.64336 18
268 2 0.119968 -4.31732 -4.01894 13
269 2 3.42635 -3.64215 -3.97289 12
270 2 1.2045 -11.0243 -0.40937 13
271 2 6.44662 -9.46226 -2.29805 13
272 2 10.5274 -6.52615 0.206583 14
273 2 -3.95317 -9.55071 6.2592 15
274 2 2.36849 -6.41227 -3.8136 13
275 2 4.58614 1.58557 1.56145 17
276 2 2.11657 -13.5108 1.69825 16
277 2 0.688451 -1.98944 -3.34591 17
278 2 -1.37156 -2.88906 12.3264 17
279 2 -2.42004 -11.4364 4.09221 12
280 2 -2.85705 -2.92124 9.90662 22
281 2 -1.60612 1.58226 7.23934 23
282 2 -6.80448 -8.75851 7.52306 9
283 2 -8.39798 -3.65702 5.70593 12
284 2 8.04454 -11.9736 12.4787 11
285 2 10.0699 -3.96581 4.36198 19
286 2 -2.5175 -4.63007 -3.25875 15
287 2 6.49466 3.01395 9.78224 23
288 2 6.81815 5.7307 10.6196 14
289 2 3.89209 -2.82156 14.646 18
290 2 -3.16185 -1.53693 7.18204 21
291 2 -3.94117 -3.30772 1.08154 20
292 2 10.945 3.68504 7.11333 14
293 2 -8.97164 -6.90377 6.23648 12
294 2 -1.69697 2.40644 0.197029 17
295 2 0.791536 -0.458967 -0.847634 20
296 2 -3.88254 2.23797 5.33977 13
297 2 6.82558 -9.21717 10.8709 19
298 2 3.80644 2.78343 5.18164 20
299 2 7.10455 -11.3584 0.249741 13
300 2 4.05978 -14.6712 8.34162 11
301 2 -3.48226 4.23337 7.40641 12
302 2 4.92924 -9.97771 6.82209 19
303 2 9.09346 -12.0701 9.5925 17
304 2 6.26742 0.930353 12.131 18
305 2 3.92498 6.31581 0.802371 13
306 2 0.972786 -7.77006 12.3873 14
307 2 1.97047 -10.0134 7.16846 20
308 2 -1.06975 -5.3987 13.8339 11
309 2 5.76212 1.40937 -2.77697 9
310 2 12.4023 -4.62451 2.69859 11
311 2 3.63661 -4.96299 11.5639 18
312 2 -3.95471 -5.9585 2.73996 19
313 2 9.96499 6.41696 5.68121 12
314 2 9.33706 6.27166 8.58264 11
315 2 12.1081 -11.2486 3.467 10
316 2 -4.70647 -9.49107 2.54786 10
317 2 4.2944 2.85619 13.5297 13
318 2 7.21861 -3.85969 14.3603 14
319 2 3.51345 -1.16638 -1.63079 18
320 2 11.3069 -5.76302 9.11283 18
321 2 2.55264 0.148057 14.5631 12
322 2 10.7122 -9.20324 9.09118 18
323 2 -6.5668 -4.39033 -0.227986 16
324 2 -1.49187 -0.485268 4.71465 18
325 2 -4.89121 1.54575 -0.382267 13
326 2 -0.270329 -9.18837 9.87001 15
327 2 7.30415 8.10759 5.04783 13
328 2 -2.79348 -5.62694 -0.336592 19
329 2 11.2379 -7.07004 3.30528 14
330 2 -1.43592 5.2116 5.43719 13
331 2 11.409 -11.1328 7.14951 11
332 2 -2.67205 -9.72046 9.22475 15
333 2 -6.16804 -7.98255 0.0872253 9
334 2 3.68425 3.93734 2.5051 21
335 2 -4.28044 0.582458 8.21361 18
336 2 9.39998 2.13557 4.66763 18
337 2 3.69478 -8.45294 14.7768 13
338 2 -5.81003 -4.51481 4.61632 17
339 2 -0.607494 4.51684 2.44918 14
340 2 1.62252 2.84361 13.0964 12
341 2 -3.52996 -1.54972 3.3245 19
342 2 9.48656 6.47986 2.68368 12
343 2 -3.32596 -0.649265 12.4617 13
344 2 3.63235 -1.25126 11.8563 23
345 2 -3.43004 -8.02985 -2.20581 10
346 2 -1.65441 5.42863 -0.487028 10
347 2 1.4456 -9.89312 2.38743 19
348 2 -2.3069 -0.613811 0.665281 22
349 2 8.18267 -7.04898 9.43651 20
350 2 3.43813 1.83597 10.7165 24
351 2 10.7655 1.46654 1.12973 14
352 2 4.74885 -13.384 12.3012 8
353 2 9.20156 -3.83126 -0.9543 11
354 2 9.2511 1.94661 10.7078 12
355 2 -2.35197 -4.467 3.92703 17
356 2 -3.76126 -4.93997 11.8831 12
357 2 -7.03999 -7.80461 3.26506 14
358 2 4.85609 -12.547 5.12172 16
359 2 4.31943 4.36413 8.20004 22
360 2 -6.77973 -1.75057 7.53498 12
361 2 -3.00314 -6.68632 7.89358 16
362 2 1.86567 -15.5009 5.68641 11
363 2 8.43525 -1.10348 12.2694 14
364 2 1.0406 1.50697 1.51741 18
365 2 -0.237188 3.73917 -2.61413 12
366 2 9.64698 4.06051 0.83558 11
367 2 5.4065 -13.1647 1.98415 15
368 2 8.9083 -4.70436 10.8804 21
369 2 9.65142 -1.44814 9.14868 21
370 2 2.13507 4.84211 -1.9084 7
371 2 -5.55394 -2.87108 -2.97608 12
372 2 -0.692286 -7.17268 -4.04171 11
373 2 -0.88768 -3.62104 -0.496683 20
374 2 1.89984 4.90997 9.76512 17
375 2 1.23517 6.15197 0.51111 10
376 2 -4.9235 0.513583 2.2459 16
377 2 -5.22726 -1.55402 10.5665 16
378 2 2.21675 1.41157 -2.87722 13
379 2 7.24562 -6.14056 -0.286941 21
380 2 -5.4772 -1.46869 5.38167 18
381 2 -1.22645 0.803063 -2.43474 19
382 2 6.77363 -9.39897 4.80804 19
383 2 6.49308 -5.83591 12.3913 19
384 2 -1.16519 -6.28805 10.3326 20
385 2 2.445 -3.50472 -0.959275 21
386 2 -6.36379 -4.38954 9.70671 16
387 2 9.54467 -9.6475 11.9806 16
388 2 -8.84885 -4.12448 8.30562 11
389 2 1.03475 -2.88159 14.5681 13
390 2 2.79371 -12.1743 10.6543 14
391 2 12.2675 -3.11232 7.80376 13
392 2 4.64765 -10.2975 2.11417 19
393 2 1.70958 6.1328 4.02966 17
394 2 -4.67722 0.0814349 -2.91116 11
395 2 -5.14593 -7.07384 10.1721 12
396 2 6.89161 -9.18544 14.2855 13
397 2 11.8696 -0.939097 3.18415 13
398 2 7.45143 -1.26548 -1.85221 14
399 2 11.5249 -2.33802 10.8022 13
400 2 0.337596 2.73319 4.55206 18
401 2 11.4879 -7.3525 11.6922 11
402 2 6.07445 -7.30822 1.98516 17
403 2 -0.113247 -9.46442 4.89106 22
404 2 9.3401 -9.35142 -0.958723 13
405 2 7.44314 -13.5109 6.80023 11
406 2 10.008 -7.28872 6.71558 18
407 2 10.2798 -9.25415 4.94913 14
408 2 -1.58504 1.50113 12.0196 14
409 2 7.9337 1.13854 1.52937 19
410 2 -8.13755 -5.46211 2.61648 12
411 2 -5.03015 -7.22423 5.83522 15
412 2 11.4614 -11.3816 10.9242 9
413 2 6.66048 4.47845 2.26861 19
414 2 13.6096 -2.06523 4.8608 12
415 2 6.39983 2.07422 3.83908 21
416 2 3.96336 -7.958 11.7728 21
417 2 7.72513 -10.0149 8.23979 18
418 2 12.0079 -9.30992 1.31708 10
419 2 7.87876 -13.7465 3.51887 12
420 2 -1.03135 -8.37516 -1.07491 13
421 2 5.40781 5.4751 5.07992 20
422 2 4.16047 7.07364 9.67973 13
423 2 1.04009 -12.5433 5.42219 16
424 2 2.34615 -5.61937 14.5813 16
425 2 -1.21201 -0.381455 9.5497 22
426 2 10.2564 -1.80572 6.53692 19
427 2 9.16332 -1.7305 0.759173 16
428 2 -3.30372 2.7834 -2.67813 11
429 2 -0.708875 -11.0463 1.31374 15
430 2 9.531 -11.9301 4.97561 15
431 1 1.18531 -6.52907 2.29104 19
432 2 3.42052 -9.26446 4.58593 21
433 2 1.87689 -6.35845 4.70778 23
434 2 1.04388 -4.60849 1.86335 20
435 2 2.49061 -7.27199 1.14814 19
436 1 -1.31173 -4.66628 5.29027 20
437 1 0.247024 -7.30846 5.17643 22
438 1 1.89418 -4.49196 5.12867 23
439 1 3.35632 -7.49609 5.18428 22
440 1 3.61059 -8.8964 7.54585 17
441 1 1.55249 -6.04606 7.80439 23
442 1 2.24157 -4.32842 10.1617 19
443 1 3.25676 -6.86498 10.3159 19
444 2 -1.28999 -4.29024 7.15039 24
445 2 0.00994308 -7.12579 7.13399 21
446 2 1.58037 -6.13967 9.68698 19
447 2 1.72875 -4.13376 7.23085 22
448 2 3.40045 -6.89068 7.3828 24
449 1 -0.67078 -3.58234 2.69217 21
450 1 2.88245 -3.4512 2.19654 23
451 1 1.24121 -0.229876 2.32686 23
452 2 0.175717 -3.64001 4.4327 20
453 2 -0.214322 -1.49915 2.20212 19
454 2 3.34869 -3.43341 4.23638 21
455 2 1.54781 -0.0486865 4.47604 20
456 2 2.78228 -1.41181 1.74228 21
457 1 0.413784 -1.5386 4.72088 21
458 1 0.264292 -3.13542 7.81432 23
459 1 1.91242 1.77013 5.21489 20
460 1 3.48949 -1.32459 4.60161 20
461 1 3.3019 -3.04556 7.54081 23
462 1 2.00344 -0.012046 7.15791 21
463 1 3.43153 -1.28204 9.84669 20
464 1 4.10264 2.77755 7.12435 19
465 2 0.703477 -2.90094 9.93657 20
466 2 0.355576 -1.31396 6.83405 23
467 2 3.64938 -3.18671 9.50766 24
468 2 1.96932 -0.00116461 9.12888 22
469 2 2.05172 2.23655 7.13024 21
470 2 3.72898 -1.16244 6.51272 23
471 1 4.41337 -6.3658 2.39852 24
472 2 4.88973 -6.38259 4.46456 21
473 2 4.7294 -4.58328 1.4015 23
474 2 8.104 -6.61162 4.10057 19
475 1 4.86517 -4.34153 5.14224 23
476 1 6.39234 -7.34392 4.7928 21
477 1 5.13135 -5.98094 7.71078 22
478 1 5.38535 -4.25002 10.3356 22
479 1 8.27018 -4.53876 4.22742 20
480 1 8.3246 -6.43272 7.55978 23
481 2 5.07808 -6.16488 9.62494 22
482 2 4.91305 -4.1291 7.04324 21
483 2 6.46023 -7.1763 6.75354 22
484 2 8.44225 -4.39783 7.46614 21
485 1 6.36949 -3.34577 1.89677 23
486 1 4.67048 -0.40747 1.85191 18
487 2 6.41559 -3.50598 4.13775 22
488 2 4.89212 -0.423525 3.83094 23
489 2 6.08098 -1.81174 1.01152 23
490 2 8.64874 -0.855291 3.47917 21
491 1 5.00642 1.34481 4.70756 22
492 1 6.71775 -1.55304 4.52781 20
493 1 6.72016 -3.26243 7.3052 23
494 1 5.40058 -0.482165 7.35144 22
495 1 6.4752 -1.46714 10.4416 21
496 1 8.45826 -1.09684 7.79314 19
497 2 6.72258 -3.12987 9.2918 20
498 2 5.18723 -0.415012 9.52523 24
499 2 5.30804 1.55601 7.44072 20
500 2 7.16649 -1.55209 6.29686 23
