ITEM: TIMESTEP
156000
ITEM: NUMBER OF ATOMS
5760
ITEM: BOX BOUNDS pp pp pp
1.0247481797 32.6352518203
-0.4667406018 34.1267406018
-0.4293586129 66.2293586129
ITEM: ATOMS id type x y z Coordination
1 1 2.92274 0.528822 -0.378771 24
2 1 5.47012 4.20139 -0.270674 22
3 1 2.85135 0.0352499 3.07932 22
4 1 5.62986 33.2723 -0.263192 20
5 1 29.3407 6.4133 9.44783 24
6 1 5.21624 1.49697 1.59935 21
7 1 5.67286 30.1014 4.52388 24
8 1 5.53239 33.3628 2.7712 22
9 1 2.52702 6.18142 6.13079 21
10 1 5.40601 4.2156 3.35216 20
11 1 29.6294 29.2292 16.4848 24
12 1 13.4959 9.09992 11.3635 23
13 1 31.9314 30.0353 4.58182 21
14 1 2.95999 0.0724401 19.4987 20
15 1 5.75219 32.8754 9.51677 22
16 1 11.157 4.31304 9.82046 23
17 1 8.31118 11.9233 20.0502 24
18 1 5.766 12.8262 21.5241 24
19 1 19.0338 0.234166 16.1592 22
20 1 5.95816 30.0836 10.667 22
21 1 3.07773 0.220867 6.14996 22
22 1 2.63101 11.6971 65.8832 21
23 1 5.69034 4.20178 6.59944 22
24 1 29.2347 0.0621703 3.5719 21
25 1 5.17933 7.2511 1.0114 21
26 1 8.50218 9.43473 4.72077 21
27 1 8.03599 31.8998 4.49263 24
28 1 3.07163 6.00592 9.33521 25
29 1 10.9956 7.17303 8.341 21
30 1 31.1526 16.0716 2.82199 22
31 1 2.0592 6.05311 66.039 22
32 1 2.84559 18.2296 9.56334 21
33 1 10.5113 18.5515 14.8399 21
34 1 3.51217 21.0095 21.2484 22
35 1 5.71643 10.0917 9.19694 23
36 1 5.58293 4.12366 16.7664 21
37 1 5.4674 15.8433 16.2782 23
38 1 2.77517 6.00314 12.7889 22
39 1 2.92444 20.5089 14.6156 24
40 1 8.01243 20.4746 17.8479 23
41 1 5.41088 15.7624 3.16845 21
42 1 2.82515 20.6354 4.28441 23
43 1 5.48351 21.3928 -0.00420133 22
44 1 31.8987 12.8059 1.35251 22
45 1 29.1236 8.6829 4.27409 23
46 1 5.06769 15.2696 -0.0554434 23
47 1 2.65539 14.9334 11.0014 21
48 1 7.89904 14.5747 4.67551 23
49 1 31.7722 18.6804 4.61271 22
50 1 5.51644 18.693 14.4334 22
51 1 10.6386 18.6408 17.9259 22
52 1 7.71558 17.5851 -0.440498 20
53 1 13.1225 29.1339 16.0829 21
54 1 8.03697 17.6162 2.65533 21
55 1 13.5645 23.6953 19.5661 24
56 1 2.76068 14.8374 4.3539 22
57 1 5.36387 6.84545 21.2292 20
58 1 2.78307 17.663 12.9695 23
59 1 11.0523 30.1102 4.69439 23
60 1 32.199 12.6231 24.563 24
61 1 5.29112 1.38661 64.8008 21
62 1 13.5163 5.78067 65.8458 22
63 1 31.9029 10.0968 6.28604 23
64 1 7.94443 6.30152 3.02053 19
65 1 8.30702 31.7683 1.13766 23
66 1 10.5589 3.94665 -0.201473 23
67 1 7.92424 9.01127 1.24896 23
68 1 5.44027 15.7823 9.43352 22
69 1 5.17395 9.94754 2.94263 21
70 1 15.856 7.4861 14.4197 23
71 1 11.324 1.27043 8.41234 22
72 1 2.85213 0.0239523 16.2531 20
73 1 7.78158 3.73213 1.36701 21
74 1 13.7407 6.79298 9.63697 22
75 1 10.6276 15.6354 2.80341 21
76 1 5.70869 30.1659 1.45528 24
77 1 28.9837 8.97832 17.6861 22
78 1 3.11125 9.34712 21.3051 22
79 1 3.1911 12.173 19.8289 23
80 1 11.0768 1.2593 14.5685 24
81 1 7.97204 14.4926 1.30746 22
82 1 10.8203 7.2138 4.59948 22
83 1 11.1565 15.461 13.3805 23
84 1 5.66655 9.77077 6.1687 22
85 1 5.30748 9.78412 65.8891 24
86 1 5.29266 12.6191 0.967781 23
87 1 10.6373 9.69026 2.50172 22
88 1 10.7759 4.3291 6.57183 23
89 1 8.02494 0.446466 66.1451 23
90 1 10.7868 1.50043 1.67154 23
91 1 7.97779 14.8808 8.02054 20
92 1 8.36725 11.7906 2.81228 25
93 1 10.8137 9.95865 19.626 22
94 1 18.2973 6.23812 13.1054 22
95 1 5.7585 30.0466 14.3849 22
96 1 8.21395 11.9986 6.37668 22
97 1 10.7983 13.5304 7.39842 19
98 1 8.03234 23.4351 16.1666 23
99 1 2.84674 3.14807 14.5946 23
100 1 31.881 6.71708 1.05663 23
101 1 8.04739 11.7187 65.934 23
102 1 13.5363 14.7235 1.36856 22
103 1 2.71697 14.8615 1.14441 22
104 1 10.9754 12.5594 1.22402 22
105 1 11.0448 21.2025 5.9319 23
106 1 18.6154 17.9875 9.73221 23
107 1 13.512 32.1492 1.40958 20
108 1 13.3927 6.39704 6.27673 22
109 1 29.3588 3.57086 14.7285 22
110 1 18.6631 14.988 21.6055 22
111 1 11.0996 24.2761 17.75 25
112 1 7.77328 23.6127 19.194 21
113 1 11.0974 12.6878 11.4933 20
114 1 28.9345 15.0746 11.3603 20
115 1 10.8137 10.0184 9.72071 21
116 1 13.0841 17.6228 16.1549 24
117 1 26.5743 21.8803 16.5571 23
118 1 12.9866 9.42654 4.59389 21
119 1 5.50779 18.6248 10.9668 22
120 1 21.304 12.9469 11.3112 23
121 1 10.7283 1.22173 64.7806 21
122 1 13.3779 2.97515 64.5133 26
123 1 13.1341 6.02271 62.634 23
124 1 23.94 0.118435 2.61734 24
125 1 13.7298 3.54495 7.87667 24
126 1 13.0207 8.96534 0.826724 21
127 1 5.24116 15.7262 12.7116 21
128 1 23.8246 0.436569 9.19413 21
129 1 10.4811 4.15327 2.99388 20
130 1 21.0123 15.5467 3.22997 20
131 1 2.60485 6.27769 2.72623 23
132 1 15.973 33.1347 6.3514 19
133 1 18.7438 3.44673 11.3365 22
134 1 18.489 3.31617 0.810665 22
135 1 21.3984 27.5871 22.9626 22
136 1 21.235 4.27695 6.1105 20
137 1 5.36999 1.22345 11.5151 21
138 1 21.4814 33.4494 16.2436 22
139 1 18.4967 8.95882 14.6156 23
140 1 8.59032 29.1181 6.00971 25
141 1 7.41416 5.87936 -0.209888 21
142 1 15.66 9.95053 66.2205 24
143 1 18.1843 12.3653 65.9391 21
144 1 21.0824 7.04834 18.0377 21
145 1 13.2906 12.3436 2.80192 23
146 1 13.4767 12.0992 16.4565 23
147 1 20.9728 6.90897 1.5341 22
148 1 26.961 12.6441 11.0599 23
149 1 10.4847 9.82873 65.7833 20
150 1 18.3906 12.0888 6.12168 20
151 1 13.1828 6.15623 12.4801 21
152 1 2.93943 9.1003 4.91572 21
153 1 13.1801 9.21314 17.8557 21
154 1 11.1363 24.3395 11.049 23
155 1 21.2397 10.0628 22.6655 21
156 1 26.5257 1.22036 11.3036 24
157 1 21.2276 0.883401 4.55551 23
158 1 3.38235 31.8335 17.402 21
159 1 13.357 9.26492 15.0403 22
160 1 21.2303 1.27044 7.71637 21
161 1 13.1982 11.578 66.0125 22
162 1 15.969 16.0836 65.8923 23
163 1 10.6025 10.2041 6.35671 22
164 1 18.3739 8.68024 0.660056 22
165 1 10.9598 18.2842 4.40116 24
166 1 31.9851 18.9517 7.72033 20
167 1 21.5085 13.4157 7.69405 20
168 1 20.9026 12.8301 1.3631 23
169 1 8.38146 14.6839 11.2425 23
170 1 10.5939 18.5996 11.2713 22
171 1 21.6529 18.3774 4.64087 22
172 1 18.7831 5.97813 2.30801 21
173 1 16.0504 10.3456 6.1259 23
174 1 21.3105 12.6367 4.37483 23
175 1 24.3316 23.9741 19.6398 21
176 1 8.34435 17.6546 9.53746 22
177 1 5.62537 10.2002 15.8605 21
178 1 8.73188 0.483582 22.8299 24
179 1 2.9675 11.896 16.4916 21
180 1 10.8336 15.6834 6.07885 22
181 2 31.2276 3.40251 4.96734 21
182 2 31.4719 32.2325 64.4615 20
183 2 5.15142 5.94494 6.08219 23
184 2 4.81753 6.17161 2.67041 22
185 2 2.5531 1.37327 1.50146 20
186 2 4.78755 0.337907 3.46395 22
187 2 2.21274 27.4394 -0.307263 24
188 2 10.2941 32.1986 11.5054 22
189 2 31.1452 12.2834 15.9931 23
190 2 13.4736 21.4097 6.10169 20
191 2 15.3624 6.63154 6.47529 23
192 2 25.9455 20.6709 17.9301 22
193 2 2.58569 4.43438 16.4687 22
194 2 7.62223 1.53496 18.0592 24
195 2 29.3813 30.2732 18.0791 22
196 2 7.59543 33.1303 19.6027 23
197 2 18.0425 30.172 14.904 24
198 2 10.3622 32.1381 7.67803 25
199 2 7.74799 7.2863 14.7512 22
200 2 28.3135 18.5541 15.2376 23
201 2 2.34324 9.82532 -0.241827 22
202 2 2.41807 4.25514 6.62723 20
203 2 1.87305 7.2079 64.382 22
204 2 5.58974 6.25888 -0.268267 22
205 2 5.19229 11.7828 2.61044 19
206 2 4.7556 9.19123 1.17618 23
207 2 4.73068 17.8113 13.0517 23
208 2 2.27591 1.39719 7.65387 22
209 2 10.5238 9.17797 14.6516 21
210 2 28.5748 30.3938 7.55415 22
211 2 28.6833 15.3157 5.96119 22
212 2 7.39145 18.7278 18.0548 24
213 2 15.3481 2.63068 14.5068 24
214 2 30.9101 6.10673 6.32121 24
215 2 21.3525 31.9371 21.247 20
216 2 4.84894 3.26573 14.6946 24
217 2 2.54348 15.9736 9.29773 20
218 2 28.7228 7.38337 20.8455 23
219 2 23.3343 1.18514 10.9119 22
220 2 15.3751 3.0725 17.5825 23
221 2 28.2254 9.9274 9.56191 23
222 2 4.61743 11.813 65.8993 21
223 2 4.9181 17.6585 9.47897 22
224 2 7.55956 15.6809 12.6127 23
225 2 7.28377 4.79901 13.1159 23
226 2 4.94931 17.2254 6.05952 22
227 2 31.2658 12.0709 66.1325 22
228 2 28.444 4.47593 9.03474 21
229 2 10.1824 20.4215 7.67706 23
230 2 7.82885 10.0541 6.36136 23
231 2 31.4717 14.7951 1.25387 22
232 2 2.30741 6.93865 0.956259 22
233 2 7.55176 7.34474 7.84398 21
234 2 31.9621 14.625 18.1593 21
235 2 31.478 6.52527 19.571 23
236 2 7.82186 10.2782 9.86937 21
237 2 5.49175 29.2035 15.993 22
238 2 10.1184 29.6188 12.7946 21
239 2 2.36773 15.3567 16.073 22
240 2 4.97942 20.4642 11.3 24
241 2 7.66412 7.23005 1.3174 18
242 2 5.11431 0.254535 6.19591 21
243 2 13.0863 30.0678 7.94106 24
244 2 10.0551 8.94169 0.690125 23
245 2 28.7005 4.19247 2.90857 23
246 2 6.97931 1.27288 1.90279 21
247 2 10.0976 29.2715 9.4672 24
248 2 18.2794 7.4939 11.3143 22
249 2 28.3301 7.33402 7.81053 23
250 2 10.2679 0.00741322 3.36015 20
251 2 18.1061 4.39809 22.5727 24
252 2 23.6233 3.72554 15.8828 22
253 2 14.8633 9.61693 4.81347 20
254 2 2.66496 27.1185 6.46085 20
255 2 10.8539 0.545505 13.0179 19
256 2 12.8804 7.364 7.82637 24
257 2 12.643 3.92171 19.6247 24
258 2 7.70703 30.5589 21.3441 23
259 2 10.095 26.2221 4.50178 25
260 2 18.3119 30.4006 4.47179 19
261 2 2.51895 9.74732 3.11448 21
262 2 2.27779 12.8787 1.16244 24
263 2 15.4076 14.9504 7.83162 21
264 2 17.8791 1.20697 4.51749 22
265 2 4.84985 8.82551 4.71869 23
266 2 15.7389 0.601663 -0.327265 21
267 2 4.98574 14.7693 14.5201 23
268 2 12.9547 13.0606 1.03418 22
269 2 7.25773 15.5289 2.9103 25
270 2 20.8847 12.3892 9.34085 20
271 2 7.5075 7.29632 10.9841 23
272 2 28.5232 1.16502 11.351 22
273 2 31.4598 8.91805 1.00073 22
274 2 10.1936 32.1261 1.27423 22
275 2 13.6198 4.62451 9.20061 22
276 2 31.314 14.6751 4.49346 22
277 2 15.857 18.0331 19.8781 21
278 2 20.4901 3.30057 14.2247 23
279 2 15.5756 12.281 6.03457 21
280 2 9.92888 15.2388 7.8427 24
281 2 7.14801 15.5356 66.1721 24
282 2 10.0762 14.3596 1.33289 22
283 2 4.86267 14.4282 4.47432 24
284 2 10.0529 14.7293 64.3582 22
285 2 2.62966 13.1577 8.18676 19
286 2 23.0269 9.95794 3.08548 24
287 2 18.3925 18.7103 7.68044 21
288 2 18.1829 12.8801 4.48096 22
289 2 7.65977 12.8721 7.84144 24
290 2 10.3181 9.11824 4.38078 22
291 2 2.49209 16.0778 22.9015 23
292 2 12.7065 13.214 4.46032 24
293 2 23.0044 18.8762 10.9183 20
294 2 10.3538 17.6747 13.0997 21
295 2 20.6678 6.28487 22.9051 23
296 2 15.8438 0.162597 12.5725 21
297 2 15.3027 0.584948 6.22076 23
298 2 21.1171 0.728714 22.5767 22
299 2 31.1024 3.11105 7.64096 22
300 2 15.1209 9.24772 27.9474 24
301 2 10.0424 5.68911 63.1007 21
302 2 12.4119 4.33145 2.71791 21
303 2 9.97195 5.85551 3.12965 23
304 2 31.2642 8.87044 4.60211 23
305 2 21.4594 11.6549 66.2156 21
306 2 25.9722 0.220461 6.31952 22
307 2 12.6325 4.02484 65.9759 23
308 2 23.6487 1.08978 64.4158 21
309 2 18.3739 1.32098 64.2569 21
310 2 13.3304 1.63739 8.19826 20
311 2 8.17166 4.20648 19.5119 21
312 2 13.0532 33.1867 6.11771 24
313 2 31.7242 6.30443 2.98558 20
314 2 23.3848 32.8672 16.0492 23
315 2 31.4826 0.284644 10.0316 23
316 2 15.5306 12.389 9.6013 24
317 2 18.6625 1.66358 21.1155 21
318 2 31.9636 14.7936 14.6913 19
319 2 18.1013 1.52808 8.14341 21
320 2 15.6257 29.2624 2.77526 22
321 2 12.3647 9.71774 65.9261 24
322 2 13.3609 0.903582 64.5091 19
323 2 15.0168 15.5405 0.722912 21
324 2 20.5488 9.17828 64.6972 20
325 2 7.59297 18.4987 14.536 24
326 2 12.778 6.92572 0.92254 22
327 2 21.1701 6.65273 9.88576 23
328 2 15.5819 3.54171 7.8372 24
329 2 10.2251 11.3749 2.92314 22
330 2 15.9763 9.48333 7.73093 21
331 2 4.86754 20.4433 7.89946 22
332 2 18.3013 16.1399 6.24144 20
333 2 10.4155 17.6776 6.09499 21
334 2 12.6187 9.78441 2.63612 21
335 2 16.0551 0.241152 16.057 18
336 2 28.5861 18.4011 21.1209 24
337 2 4.7417 0.277955 9.6267 26
338 2 28.7224 13.2036 11.1249 21
339 2 15.4348 15.2613 11.2107 22
340 2 20.5003 25.8809 7.74631 24
341 2 25.7782 2.87374 7.99762 24
342 2 15.2776 15.085 17.857 24
343 2 20.9198 15.038 8.02104 22
344 2 15.0277 11.7656 66.1098 24
345 2 20.6333 0.449033 9.2424 22
346 2 15.7062 20.9021 8.07629 24
347 2 9.62311 26.237 64.2812 23
348 2 15.7082 0.820496 3.25645 22
349 2 5.26456 23.1674 23.0043 22
350 2 31.2302 12.111 6.34412 22
351 2 20.5431 11.9138 6.32825 22
352 2 25.8962 14.629 4.05808 23
353 2 18.5843 32.9856 16.1812 22
354 2 20.5608 8.93096 1.15847 24
355 2 10.0567 14.7065 4.60426 23
356 2 15.5783 12.2334 16.1542 23
357 2 15.6078 17.7617 10.2318 22
358 2 20.6212 3.0309 4.6874 22
359 2 18.2201 1.56975 10.9397 23
360 2 23.0791 19.1614 15.3062 22
361 1 26.8344 33.0871 6.0271 25
362 1 29.1847 3.1643 11.0732 23
363 1 10.8918 13.015 24.6486 20
364 1 5.79334 7.12384 14.4403 23
365 1 10.7932 27.0226 19.3718 23
366 1 32.3541 32.9968 26.2295 22
367 1 18.7416 0.324298 9.25649 22
368 1 5.80448 33.1326 29.8967 22
369 1 31.704 1.54632 14.8621 18
370 1 13.192 3.14449 1.3652 22
371 1 5.69171 6.69053 31.4458 22
372 1 5.90763 4.03347 19.6109 24
373 1 5.67798 4.19973 22.6606 24
374 1 21.2694 33.3658 26.2295 20
375 1 3.289 5.9972 22.8538 23
376 1 11.1117 4.42743 22.9469 23
377 1 32.2476 4.19408 29.5329 24
378 1 8.60995 17.9148 23.0133 25
379 1 7.82895 2.95221 30.9871 21
380 1 2.88901 0.0561894 29.6204 22
381 1 7.8399 11.9584 16.5762 21
382 1 16.5005 7.11138 24.2899 22
383 1 13.6364 14.3547 14.7811 22
384 1 32.2293 6.8443 24.5522 21
385 1 31.9882 1.70343 17.9066 22
386 1 5.39647 4.55892 25.8891 23
387 1 16.4888 21.9617 19.4164 23
388 1 8.0792 11.9948 12.921 23
389 1 18.3189 6.47512 19.2609 22
390 1 13.7352 12.1367 19.7047 25
391 1 5.5404 10.023 19.4767 23
392 1 5.76394 1.57071 24.4636 23
393 1 31.7967 4.06682 25.8563 21
394 1 8.28638 21.1861 27.7551 20
395 1 2.9124 9.00223 31.2657 21
396 1 31.9358 12.8496 21.2489 25
397 1 2.93731 29.249 26.414 23
398 1 29.5203 9.27914 31.0367 22
399 1 5.75711 6.91663 27.9371 23
400 1 32.436 13.1864 31.1558 21
401 1 2.85242 14.886 27.8475 20
402 1 13.6168 15.0455 11.433 24
403 1 8.03924 20.788 11.6235 22
404 1 8.01022 9.12977 17.957 21
405 1 13.4688 12.5672 9.61276 22
406 1 10.5581 24.1793 4.29386 22
407 1 5.81733 13.0863 18.0706 24
408 1 5.85612 1.25991 27.9849 24
409 1 15.6476 10.2663 22.9356 22
410 1 16.2105 10.0124 19.2433 24
411 1 26.7628 13.0169 27.8045 22
412 1 3.23003 14.8284 24.5805 24
413 1 29.3537 14.6688 24.2451 23
414 1 32.2176 21.2919 22.968 24
415 1 3.65757 18.1226 29.1893 22
416 1 10.8498 10.2635 16.5042 24
417 1 5.98948 19.0129 28.0539 24
418 1 5.35625 10.0198 26.0906 20
419 1 29.3872 11.6811 26.2426 22
420 1 3.24073 15.2541 31.1493 22
421 1 3.18765 32.2104 24.8448 23
422 1 15.7707 4.26881 13.2098 21
423 1 7.92463 26.1897 7.72024 22
424 1 24.3807 26.9514 21.2335 21
425 1 21.3911 7.56124 11.8705 22
426 1 8.33162 32.3812 11.3527 20
427 1 13.7236 11.9366 12.8527 24
428 1 21.1627 27.6585 19.3668 21
429 1 10.827 7.17768 14.9022 21
430 1 13.8289 0.121716 9.57728 23
431 1 10.9267 32.6446 23.1276 22
432 1 18.7587 9.07519 17.5011 23
433 1 21.2578 21.9934 19.6706 22
434 1 8.18087 3.04112 21.0117 22
435 1 11.1092 30.4969 30.992 24
436 1 24.1099 0.602332 26.2697 24
437 1 11.4257 29.9151 24.2026 23
438 1 10.8948 3.86718 29.2719 23
439 1 15.8588 10.1599 26.2773 20
440 1 13.5278 3.29625 24.5885 23
441 1 26.2656 4.02331 9.42118 20
442 1 8.16417 6.46938 12.9496 23
443 1 13.3331 9.24823 7.51683 20
444 1 11.1129 10.1784 26.3142 23
445 1 26.7107 32.8174 9.5009 26
446 1 10.7109 16.0602 23.0433 20
447 1 3.21517 8.69566 27.7809 21
448 1 29.0305 17.8652 16.6694 21
449 1 32.1002 7.40888 21.3113 21
450 1 13.7398 15.0075 21.0727 24
451 1 13.86 5.82768 23.133 22
452 1 13.4973 9.03089 21.1521 22
453 1 13.6522 3.20737 27.6586 22
454 1 16.0707 16.0387 29.687 24
455 1 10.2869 4.40441 26.2467 22
456 1 16.0846 1.45647 24.2494 22
457 1 8.54092 3.06067 17.7939 23
458 1 31.5674 6.91293 28.0902 23
459 1 7.79113 5.83319 29.4915 20
460 1 10.7034 3.84085 32.7407 23
461 1 8.61996 12.3453 22.9549 21
462 1 5.37099 7.1878 11.3043 21
463 1 13.1858 18.1346 29.7252 20
464 1 18.7317 6.45429 9.89852 21
465 1 8.28546 8.69891 27.8669 23
466 1 16.2093 24.4465 17.8083 21
467 1 16.0434 13.3002 28.2842 22
468 1 13.5071 6.0868 26.2392 23
469 1 6.0723 10.4533 22.9332 24
470 1 3.15972 6.14011 15.9903 24
471 1 29.3159 8.94832 24.6768 23
472 1 13.5578 26.9614 24.2009 23
473 1 13.3245 6.40828 19.5383 20
474 1 8.32121 17.8754 19.4894 24
475 1 16.0323 13.1251 31.2756 23
476 1 7.99227 3.21653 27.7958 22
477 1 5.52842 9.53336 29.6924 23
478 1 7.96595 17.9904 26.2423 20
479 1 10.9129 18.9975 27.6334 21
480 1 11.2737 16.0705 26.094 22
481 1 19.0714 29.1329 9.5536 24
482 1 16.1931 4.44762 9.50725 25
483 1 11.0565 1.31607 17.8972 22
484 1 10.7904 33.1146 13.1854 23
485 1 8.21423 29.125 19.6235 20
486 1 20.9747 10.3076 13.4136 20
487 1 13.2221 12.238 22.8318 18
488 1 18.7155 0.321883 12.5019 22
489 1 13.2968 3.35337 4.83041 24
490 1 18.6259 3.41665 24.4744 21
491 1 8.12986 31.9882 14.6967 21
492 1 18.7748 0.701362 26.2889 23
493 1 21.5394 1.64449 24.3779 20
494 1 9.93312 6.74278 31.2019 22
495 1 24.0326 6.45359 25.9255 23
496 1 21.3947 1.45159 28.0712 23
497 1 16.0311 33.2031 30.0491 22
498 1 5.47274 4.13422 29.2877 20
499 1 13.4491 3.33077 30.9659 23
500 1 15.9215 1.67528 31.4364 19
501 1 5.88681 33.2243 15.9403 22
502 1 20.9277 9.94525 16.2826 22
503 1 8.03677 6.14447 19.7145 22
504 1 8.24571 32.362 21.3743 23
505 1 32.3629 7.34906 10.8494 23
506 1 13.6572 14.9614 27.8597 22
507 1 10.4611 4.19013 19.7827 22
508 1 3.32077 6.18094 19.4984 25
509 1 8.08124 32.0711 31.4125 22
510 1 18.8143 11.9675 23.4188 20
511 1 16.2523 12.9901 17.7877 25
512 1 10.8397 30.2681 17.9599 23
513 1 19.0654 32.3077 27.8778 23
514 1 21.4253 10.3769 26.0241 21
515 1 16.3046 30.7531 27.9331 23
516 1 15.7498 7.5083 27.6474 26
517 1 11.0156 9.93191 33.0538 25
518 1 13.144 9.09154 31.5274 20
519 1 7.56999 11.5067 29.2936 21
520 1 13.2713 6.05125 29.1088 20
521 1 3.08959 3.33858 11.0974 21
522 1 18.607 12.0407 12.9243 21
523 1 16.3419 12.8042 24.5602 23
524 1 3.42613 14.8505 20.947 24
525 1 21.5651 33.0119 19.6798 23
526 1 2.95597 23.2761 9.60372 22
527 1 13.3871 17.7257 12.7405 26
528 1 11.0472 4.24923 13.1355 22
529 1 13.008 20.5546 14.4671 23
530 1 2.84455 6.3988 26.0813 20
531 1 5.87687 15.875 29.5561 21
532 1 16.3667 15.518 26.2535 23
533 1 13.8169 11.4964 25.5983 20
534 1 18.6992 14.8709 28.0927 23
535 1 31.9523 9.96413 26.3215 22
536 1 16.6177 4.25696 29.6983 25
537 1 10.4562 18.7922 31.5999 24
538 1 18.456 26.3949 11.0934 21
539 1 10.3909 13.0482 31.3892 21
540 1 5.65837 13.0066 30.9043 19
541 2 28.5813 21.4279 6.02293 21
542 2 10.8059 29.0418 26.1285 20
543 2 15.2492 27.1972 21.0011 20
544 2 7.30811 19.0397 11.7791 20
545 2 7.63457 32.907 26.1081 23
546 2 4.98315 3.06451 11.2835 24
547 2 31.2187 32.2259 21.2002 24
548 2 12.9849 1.11787 11.155 23
549 2 28.7961 1.37368 31.2374 23
550 2 5.17913 32.2141 14.3684 22
551 2 5.26329 6.15724 29.8137 23
552 2 2.45135 15.7729 19.769 22
553 2 7.32366 33.044 32.9574 22
554 2 7.83243 30.0151 27.8825 22
555 2 7.5307 24.367 21.3316 23
556 2 31.4981 23.1851 26.271 23
557 2 10.0854 0.614546 29.1988 23
558 2 31.4168 31.9512 27.5107 22
559 2 5.84331 5.97137 33.08 19
560 2 31.755 6.09543 32.8711 20
561 2 2.75654 15.9546 26.0349 21
562 2 25.6373 8.42024 8.13952 20
563 2 15.6289 6.11841 15.7683 22
564 2 31.2888 23.499 16.2065 26
565 2 4.98761 3.07533 27.7561 22
566 2 18.9158 10.1506 22.7362 19
567 2 28.7257 4.07676 26.3409 22
568 2 4.99866 17.7677 19.0794 21
569 2 13.0143 13.0195 24.7183 23
570 2 15.6958 6.44724 25.7182 23
571 2 7.69115 27.3156 29.405 22
572 2 10.5342 31.7581 25.035 22
573 2 12.8838 24.7051 21.3203 24
574 2 10.2594 5.78734 29.6315 24
575 2 2.19361 7.01215 34.48 25
576 2 8.29086 12.9703 24.5884 22
577 2 7.59714 9.47675 29.5185 25
578 2 4.88785 12.0651 9.47371 23
579 2 32.3792 3.17191 24.2466 18
580 2 2.53017 10.3327 23.009 23
581 2 7.47949 27.4633 22.6721 22
582 2 28.701 7.14014 14.7066 22
583 2 12.2495 21.8354 19.5826 23
584 2 15.3392 25.9793 10.7956 22
585 2 5.3145 6.07978 23.3823 20
586 2 7.47681 10.0471 16.1276 25
587 2 10.5636 26.6337 14.5031 21
588 2 2.28048 12.8002 14.7291 20
589 2 20.6779 17.8707 26.5045 26
590 2 12.6777 15.6861 22.987 24
591 2 30.8577 3.35644 17.8709 24
592 2 31.2257 9.48856 24.7163 21
593 2 28.4791 10.1976 15.8193 21
594 2 25.8403 5.97732 29.4692 22
595 2 31.4561 0.58344 26.1285 22
596 2 31.3985 11.8003 26.0846 23
597 2 31.3249 9.17638 21.3095 22
598 2 5.29018 9.078 21.4142 24
599 2 4.7618 6.50328 26.4354 24
600 2 10.4609 12.0298 22.8973 21
601 2 10.2472 6.49237 6.35712 19
602 2 9.9995 26.361 7.83753 22
603 2 7.4461 18.6973 21.4483 23
604 2 7.96062 6.74654 27.8157 23
605 2 20.7123 31.9119 11.0219 24
606 2 5.11311 0.487388 13.486 23
607 2 31.6876 0.541732 16.4687 21
608 2 18.3137 27.219 16.3971 21
609 2 10.0127 32.0028 17.9974 24
610 2 13.1338 1.10168 14.4396 23
611 2 2.42072 32.7074 19.7457 23
612 2 10.453 8.94903 31.3582 21
613 2 23.4049 12.7652 24.4533 25
614 2 7.77797 27.2028 26.0901 22
615 2 15.3416 3.46984 31.0983 22
616 2 12.7233 9.97709 29.836 22
617 2 10.2435 32.1979 31.197 24
618 2 21.0733 23.4475 13.1589 19
619 2 17.713 4.25374 13.1898 25
620 2 12.707 1.47681 27.5187 22
621 2 10.3248 12.0365 19.9901 20
622 2 7.67439 29.7426 4.56004 23
623 2 12.7853 10.0467 12.838 21
624 2 5.04332 3.26728 24.3744 20
625 2 2.59635 32.7492 26.5892 22
626 2 13.031 3.90368 22.6571 22
627 2 12.728 7.43059 15.1728 23
628 2 10.3541 20.5295 21.0527 23
629 2 13.0659 4.21603 26.1605 25
630 2 12.7797 30.0797 17.7968 23
631 2 18.1601 24.7694 24.141 22
632 2 10.2004 23.6649 29.4907 21
633 2 15.5748 23.2409 16.2714 21
634 2 10.6343 6.04613 32.8648 19
635 2 18.8283 33.4777 26.4862 20
636 2 13.0283 33.2607 29.8157 22
637 2 5.36122 14.8219 28.0805 22
638 2 10.1896 32.2666 21.2783 23
639 2 4.85382 3.41286 34.2126 23
640 2 10.0824 12.0938 29.7128 22
641 2 5.07086 32.1358 7.93321 22
642 2 18.0093 10.2111 16.2508 24
643 2 15.6311 9.44535 20.8758 20
644 2 4.58376 14.7286 11.1051 25
645 2 4.97959 12.1058 16.5216 22
646 2 31.5528 32.1334 17.8809 21
647 2 9.98616 9.34838 17.9421 23
648 2 9.98188 17.6869 16.4894 24
649 2 31.4592 20.3257 21.0833 22
650 2 13.125 7.01055 24.5928 20
651 2 15.4608 14.9606 34.0354 23
652 2 12.6436 7.28864 27.8184 20
653 2 5.16381 14.8515 31.1476 23
654 2 17.9809 4.14611 19.4513 22
655 2 5.53144 20.8852 31.6729 21
656 2 10.3927 23.8249 25.848 23
657 2 2.63012 21.4827 26.3106 23
658 2 26.1061 8.97808 28.0563 22
659 2 2.429 9.86515 32.9153 23
660 2 12.3788 13.2014 31.4375 23
661 2 12.7664 33.1549 12.8379 25
662 2 18.4594 15.7238 23.54 21
663 2 12.7165 7.42855 11.1854 22
664 2 13.3615 10.1726 22.8777 19
665 2 13.2177 1.38276 24.7412 21
666 2 21.4071 9.24238 21.031 18
667 2 10.4732 0.214857 22.8407 23
668 2 20.7844 32.3622 17.8117 22
669 2 2.65697 4.25952 29.7095 21
670 2 25.8214 3.30906 27.3692 23
671 2 26.4042 11.809 19.9492 20
672 2 12.6884 12.6485 14.3458 23
673 2 20.6042 8.88434 14.4516 23
674 2 20.8128 9.28561 27.5265 20
675 2 15.705 0.668445 26.5512 19
676 2 20.6067 6.65183 28.9254 22
677 2 18.1171 1.38722 31.0399 24
678 2 16.0039 6.12334 32.7002 19
679 2 18.1412 30.5605 27.6744 22
680 2 12.836 4.22845 29.2943 22
681 2 2.88236 1.18637 21.2054 21
682 2 18.1766 1.16242 18.0518 23
683 2 15.4425 9.30087 14.4265 23
684 2 17.6728 7.24959 14.6861 25
685 2 9.90335 3.25538 30.9792 23
686 2 18.373 27.1545 3.0826 21
687 2 10.6186 2.94708 8.03019 19
688 2 23.327 13.0388 11.3318 21
689 2 2.12389 18.7281 14.447 23
690 2 18.0405 1.36937 24.4807 25
691 2 10.2644 3.24846 24.3087 24
692 2 7.39005 12.9194 14.763 23
693 2 30.9488 5.66213 12.8508 23
694 2 13.086 9.87494 26.2413 23
695 2 2.34878 18.3243 24.7047 23
696 2 20.8094 14.8357 27.7461 22
697 2 18.5642 33.0351 29.7121 21
698 2 28.5532 9.78787 22.9871 24
699 2 12.7594 3.94206 32.6406 19
700 2 20.4511 9.41256 31.0011 23
701 2 20.7343 11.9583 26.1393 22
702 2 7.64733 33.0602 2.67664 23
703 2 5.16634 2.96367 8.29596 23
704 2 23.2545 10.0932 9.73251 21
705 2 2.50923 24.1736 21.1939 21
706 2 15.4593 12.1194 26.273 22
707 2 10.6073 8.91038 21.4839 21
708 2 15.5706 3.55849 24.2774 23
709 2 14.8038 20.6057 17.7857 21
710 2 18.2684 12.9476 28.4739 26
711 2 18.3169 32.759 20.1313 23
712 2 7.67928 15.894 16.4373 23
713 2 20.8744 23.9496 16.4897 21
714 2 10.0418 15.197 21.2305 25
715 2 7.9595 10.1215 22.978 20
716 2 13.0663 18.6203 24.5799 23
717 2 12.9993 21.6674 22.3717 22
718 2 12.8792 9.97043 33.2037 23
719 2 13.0065 13.0123 28.1542 22
720 2 18.2431 7.33189 24.569 20
721 1 2.62478 17.6072 66.2203 23
722 1 13.6848 17.743 5.90901 21
723 1 5.26711 18.5058 1.3988 25
724 1 4.91314 18.401 7.65443 21
725 1 5.37222 24.1891 4.66971 22
726 1 16.1802 30.3639 7.96856 22
727 1 29.3341 14.3598 4.34524 21
728 1 31.4193 15.8504 6.05817 21
729 1 10.9166 30.2272 14.2964 22
730 1 31.6742 18.5245 1.04388 24
731 1 5.67422 1.47702 14.8342 24
732 1 8.2085 17.7308 12.9486 24
733 1 2.6118 17.7266 6.0218 23
734 1 13.4495 23.3511 9.18494 23
735 1 3.11167 15.0267 7.76141 24
736 1 10.6035 24.2091 7.796 21
737 1 10.6905 21.8059 2.66845 21
738 1 29.6524 29.3139 22.8655 24
739 1 2.98243 9.16338 7.87719 23
740 1 8.29525 23.4948 22.8403 23
741 1 28.981 20.126 1.00034 21
742 1 29.1123 23.1306 2.79497 23
743 1 29.425 26.3209 1.38198 23
744 1 8.10369 23.205 -0.40783 21
745 1 5.0536 21.4292 3.06578 21
746 1 31.2144 21.6092 12.9553 22
747 1 31.9457 4.38107 6.40391 24
748 1 28.8651 20.4893 4.21709 23
749 1 29.2129 32.3975 1.40422 23
750 1 5.99996 27.3913 12.9217 24
751 1 32.151 33.1176 16.0598 21
752 1 2.79996 20.9161 7.74408 21
753 1 10.9394 21.6899 22.7085 23
754 1 31.676 15.9993 13.171 21
755 1 2.87217 29.0401 6.42967 23
756 1 2.9797 20.6222 24.643 21
757 1 5.43803 21.3338 16.2363 24
758 1 5.63137 24.3889 27.8169 23
759 1 21.5717 15.864 16.4051 23
760 1 5.16307 24.6818 17.6082 20
761 1 31.9351 33.2341 66.17 23
762 1 2.92835 32.2438 64.2881 22
763 1 8.31563 0.275861 2.85781 22
764 1 3.24565 26.1949 1.39538 22
765 1 8.41314 29.3506 2.97766 26
766 1 5.3916 29.9177 7.73861 23
767 1 31.6745 30.054 1.35178 20
768 1 28.7854 29.2124 6.20115 19
769 1 27.0276 24.0835 1.20115 23
770 1 3.45996 26.4138 11.1008 25
771 1 2.69312 32.0762 4.19473 22
772 1 8.37638 31.7282 7.84089 23
773 1 12.9579 23.5112 6.45351 21
774 1 8.02513 26.3405 4.58077 21
775 1 23.912 28.7117 9.42614 22
776 1 10.9806 30.3268 11.1247 23
777 1 5.59937 0.840547 21.1332 23
778 1 8.10154 0.066582 9.64767 21
779 1 31.6376 4.66165 19.4604 20
780 1 32.1478 33.2282 22.9002 22
781 1 10.3327 18.621 0.769125 20
782 1 15.7651 27.0268 -0.380147 23
783 1 13.7613 20.5778 4.39699 24
784 1 10.5499 15.661 66.1515 21
785 1 16.3504 19.0863 7.73253 22
786 1 5.71142 24.218 11.2954 23
787 1 15.8156 13.1056 4.28315 21
788 1 13.5964 31.8886 7.74348 22
789 1 10.5125 13.0091 14.776 22
790 1 8.2849 20.4244 7.82027 23
791 1 8.35314 17.5807 6.13825 24
792 1 8.28408 23.3087 9.77624 21
793 1 5.95284 27.0957 9.28889 24
794 1 13.5033 26.6898 7.80495 23
795 1 21.236 16.1238 19.5676 21
796 1 13.6254 3.54062 11.0285 24
797 1 23.906 17.6759 5.99779 22
798 1 31.7416 4.22176 3.04531 22
799 1 16.7217 27.7856 19.5454 24
800 1 8.09226 9.12731 11.4404 20
801 1 10.5909 27.2712 -0.132852 22
802 1 13.4369 26.5486 1.10235 23
803 1 3.01975 26.1537 4.70914 22
804 1 11.2815 27.1813 3.11756 25
805 1 11.048 32.8648 6.0005 24
806 1 11.1095 30.2447 7.81446 23
807 1 18.408 29.0665 66.185 22
808 1 8.37396 19.9918 4.3542 23
809 1 11.2341 24.7943 24.4175 23
810 1 13.5619 28.6054 65.5218 22
811 1 13.1563 32.0003 11.2503 24
812 1 13.5695 29.3573 2.74472 21
813 1 29.0221 14.7209 18.4329 22
814 1 8.03595 23.5101 2.70334 23
815 1 8.30789 29.3654 9.37168 23
816 1 8.0201 31.993 17.8077 22
817 1 16.3279 1.70654 7.86934 23
818 1 5.70453 33.0882 26.1534 23
819 1 31.9713 24.6862 14.3631 25
820 1 8.22156 29.5239 22.8037 21
821 1 10.8727 32.7157 2.91613 22
822 1 10.6396 27.085 9.43171 21
823 1 13.1147 0.383445 3.13499 20
824 1 18.5079 0.370493 2.67962 23
825 1 11.2763 30.0474 1.33478 25
826 1 10.5834 0.866446 5.04772 21
827 1 2.65162 29.3757 -0.368847 21
828 1 18.8376 26.3181 1.38453 21
829 1 12.6858 26.6029 14.5493 19
830 1 8.43882 26.2051 11.3429 23
831 1 8.09253 26.3155 1.48303 21
832 1 5.59965 1.20833 8.13955 23
833 1 7.96819 23.324 6.09742 22
834 1 8.25505 -0.118539 6.73077 23
835 1 2.90484 3.0202 8.17027 21
836 1 13.6064 29.5085 19.2681 24
837 1 31.714 33.0845 6.55292 23
838 1 5.34567 27.3981 -0.237275 23
839 1 10.8484 27.2336 6.30546 20
840 1 3.10971 31.9654 21.3911 20
841 1 10.8658 21.4128 -0.379761 22
842 1 15.8805 18.6682 64.4054 21
843 1 18.8369 17.5137 2.89858 25
844 1 12.9187 23.3728 66.1549 20
845 1 15.885 16.3442 2.58681 21
846 1 16.122 18.9594 4.6024 24
847 1 15.8011 21.6294 9.8018 25
848 1 21.1331 21.0449 9.42249 23
849 1 31.668 21.3253 2.68114 22
850 1 13.6989 26.4751 11.1898 23
851 1 15.7587 15.9516 16.2648 20
852 1 18.6104 9.18569 11.5294 23
853 1 18.5093 20.6725 11.3477 21
854 1 18.6104 32.2029 4.61886 23
855 1 10.9111 10.1005 23.0471 24
856 1 15.8431 7.18446 17.372 23
857 1 15.8852 30.5898 14.7763 21
858 1 18.42 20.6924 4.54132 22
859 1 16.3772 21.689 2.64162 25
860 1 13.7603 0.742686 22.6713 23
861 1 5.7918 18.2332 4.68177 24
862 1 13.3403 25.9402 4.21893 21
863 1 15.874 30.187 0.941649 21
864 1 18.6289 20.5223 1.04181 23
865 1 15.9195 13.0382 7.72522 21
866 1 21.67 27.0511 3.02917 24
867 1 18.7628 18.0079 5.92625 21
868 1 26.1867 21.1304 6.04533 22
869 1 13.3275 17.7722 66.1271 22
870 1 15.9291 4.73636 6.53332 22
871 1 13.1177 17.7661 2.62673 23
872 1 23.9998 26.1099 1.04374 22
873 1 13.58 12.5467 6.28102 23
874 1 18.7765 23.4381 6.19418 23
875 1 13.8385 32.2019 24.3624 22
876 1 15.999 30.7952 24.5997 20
877 1 21.0846 21.3894 2.86888 18
878 1 10.8793 1.28579 11.3882 24
879 1 13.8562 0.316221 15.908 24
880 1 21.2558 21.4982 5.91442 20
881 1 16.1257 30.0774 64.402 23
882 1 18.2631 32.153 64.4272 20
883 1 21.2341 1.55169 10.6786 20
884 1 5.69261 33.0284 5.96728 22
885 1 18.5341 23.5306 65.9743 19
886 1 18.8422 12.1957 19.6314 23
887 1 16.0893 2.13252 4.49835 20
888 1 15.7301 15.8113 9.5156 21
889 1 13.2888 25.984 64.5965 19
890 1 29.3497 2.98695 1.29033 20
891 1 18.6687 3.61674 4.38353 21
892 1 18.7805 14.7843 14.9285 22
893 1 21.2737 1.3131 1.03016 21
894 1 5.4002 1.23193 17.8469 23
895 1 16.3437 1.02641 14.2191 23
896 1 8.30436 29.2545 16.025 23
897 1 15.9805 24.4564 4.44923 23
898 1 21.3919 7.05786 21.2694 22
899 1 8.16591 23.1674 12.8583 24
900 1 8.08362 20.4582 1.4912 22
901 2 4.62186 20.2544 4.71095 23
902 2 4.49406 14.7765 1.55623 24
903 2 5.1265 25.9964 7.69717 24
904 2 2.3418 18.396 1.22856 22
905 2 9.9261 23.5488 2.4062 22
906 2 4.94427 17.6912 2.92607 23
907 2 28.9296 16.1632 13.7787 21
908 2 7.91375 4.37723 7.00036 21
909 2 7.48473 21.6265 13.2443 25
910 2 31.3165 6.43472 9.29565 22
911 2 4.43807 20.5084 1.28417 24
912 2 7.34287 24.3625 1.05298 22