ITEM: TIMESTEP
203000
ITEM: NUMBER OF ATOMS
5760
ITEM: BOX BOUNDS pp pp pp
1.0294390594 32.6305609406
-0.4600078311 34.1200078311
-0.3869562759 66.1869562759
ITEM: ATOMS id type x y z Coordination
1 1 2.86232 0.261631 -0.119309 22
2 1 5.36186 3.90983 0.0939827 22
3 1 2.76879 0.188673 3.29584 23
4 1 5.56634 33.0399 66.2692 23
5 1 29.2214 6.2781 9.4873 21
6 1 5.46471 1.49151 1.53073 23
7 1 5.8957 30.5239 4.61196 23
8 1 5.52032 33.0863 2.82425 23
9 1 2.96009 6.06678 6.29192 24
10 1 5.43351 4.38909 3.40658 23
11 1 29.4687 26.3108 14.5554 19
12 1 13.2354 8.94804 11.1474 23
13 1 32.0563 29.98 4.78738 24
14 1 2.9834 0.380823 19.8683 21
15 1 5.65702 32.7429 9.53615 23
16 1 10.8896 3.84517 9.62954 21
17 1 8.18827 11.737 19.5471 23
18 1 5.66804 12.8401 21.1561 24
19 1 18.619 0.724968 16.3511 22
20 1 5.77235 30.2278 11.566 22
21 1 2.76152 0.0921354 6.69593 22
22 1 2.56355 11.8202 65.9854 20
23 1 5.20939 4.28664 6.19606 20
24 1 29.262 0.203392 3.16601 23
25 1 5.26788 7.33058 1.25002 21
26 1 8.33309 9.09007 4.49955 23
27 1 8.40173 32.407 4.727 21
28 1 2.71896 6.54144 9.7311 20
29 1 10.6209 7.09163 8.05841 23
30 1 31.8073 15.9638 2.48578 23
31 1 2.77911 6.44766 65.9988 21
32 1 3.33627 17.8497 9.37941 24
33 1 10.5821 18.3223 14.4439 20
34 1 3.31923 20.3051 21.2959 25
35 1 5.79604 10.2628 9.78687 23
36 1 5.53853 4.19871 16.5498 22
37 1 5.71004 15.5888 16.4376 23
38 1 2.5788 6.12859 12.8421 20
39 1 3.72142 19.9489 14.8079 21
40 1 8.32247 20.6419 17.8028 22
41 1 5.4123 15.9742 2.44339 22
42 1 2.79096 20.6157 4.61481 23
43 1 5.44755 21.7754 65.3739 21
44 1 32.0171 13.0607 1.31213 24
45 1 29.5285 9.23407 4.46988 24
46 1 5.88686 15.7865 65.9237 21
47 1 2.68616 15.0236 10.9148 20
48 1 8.16282 14.7335 4.16901 24
49 1 31.6633 18.651 4.5271 21
50 1 6.36862 18.316 14.7278 26
51 1 10.7154 18.5059 18.0643 21
52 1 8.28973 17.7328 -0.518726 22
53 1 13.4585 29.2493 16.2286 22
54 1 8.11713 17.765 2.77743 25
55 1 13.6582 23.6437 19.7508 21
56 1 2.65548 14.983 4.32403 21
57 1 5.60098 6.93457 21.1278 24
58 1 3.25248 17.9293 12.6365 21
59 1 10.7385 30.4159 4.59982 20
60 1 32.0209 12.8605 24.6376 24
61 1 5.83445 1.2787 64.792 23
62 1 13.583 5.93917 -0.445403 23
63 1 32.417 10.1085 6.41032 23
64 1 7.98877 6.1187 3.3628 21
65 1 8.31689 32.2413 1.30214 23
66 1 10.7398 4.27727 0.209752 22
67 1 8.11463 8.83565 1.61124 22
68 1 5.54917 15.535 9.1484 22
69 1 5.2026 10.1828 3.09018 21
70 1 16.0826 7.25803 13.9924 21
71 1 10.4305 1.3688 7.91441 19
72 1 2.89853 0.328063 16.3131 23
73 1 8.27227 3.50639 1.30092 25
74 1 12.924 6.05403 9.67334 23
75 1 10.9372 15.7545 3.18107 24
76 1 5.63872 30.2415 0.941828 22
77 1 29.3579 9.24128 17.9046 22
78 1 3.00071 9.11383 21.251 23
79 1 2.94758 11.8001 19.5213 24
80 1 10.6315 1.3421 14.719 19
81 1 7.8894 14.5319 1.16267 20
82 1 10.6009 7.44242 4.50543 22
83 1 10.8576 15.8374 12.8737 21
84 1 5.64049 10.1062 6.3995 25
85 1 5.76187 10.2211 -0.210824 20
86 1 5.35178 12.6195 1.2922 22
87 1 11.0582 10.1618 2.55088 22
88 1 11.0746 4.30349 6.63002 24
89 1 8.08311 0.210645 -0.187802 24
90 1 10.8571 1.64817 1.07577 22
91 1 8.16807 15.4078 7.58223 19
92 1 8.26991 11.7141 3.04727 23
93 1 11.016 9.99403 19.3928 22
94 1 18.8988 6.04654 12.9486 25
95 1 5.43701 30.0773 14.5909 23
96 1 8.10779 11.7289 6.09793 24
97 1 10.2994 13.2031 7.44806 22
98 1 8.28835 23.3175 15.9227 24
99 1 2.71948 3.16958 14.9165 22
100 1 30.8041 7.28207 1.55293 19
101 1 8.29044 11.7944 -0.273208 21
102 1 13.1132 15.0621 1.45616 19
103 1 2.92442 14.9964 0.929601 23
104 1 10.5382 13.2124 1.22139 21
105 1 10.2736 21.6208 6.02466 18
106 1 18.8143 17.5058 9.58666 22
107 1 13.5347 32.0944 1.21071 22
108 1 13.665 6.198 6.11771 22
109 1 29.0203 3.27134 14.8307 23
110 1 18.6376 14.6923 21.4455 22
111 1 11.0812 24.2701 17.8113 25
112 1 8.33225 23.2557 19.3457 22
113 1 10.8752 12.7844 10.8811 21
114 1 29.1636 15.0441 10.9622 21
115 1 10.9903 10.1214 9.77652 24
116 1 13.2061 17.8149 16.0314 21
117 1 26.9156 21.6519 15.963 23
118 1 13.3171 9.16834 4.6491 20
119 1 5.75465 18.669 11.0697 20
120 1 21.0361 12.5316 11.3188 22
121 1 10.6595 1.2973 64.3634 24
122 1 13.0699 3.4096 64.6701 20
123 1 13.3104 6.15321 62.8883 22
124 1 23.7422 -0.0423601 3.10048 23
125 1 13.4623 3.0183 7.81811 20
126 1 13.2229 8.86199 1.2518 22
127 1 5.56822 15.7022 12.9391 24
128 1 23.9313 0.666798 9.53575 22
129 1 10.4369 4.18398 3.40406 22
130 1 21.4201 15.5365 2.87938 21
131 1 2.88235 6.6703 3.00785 20
132 1 16.0584 32.8793 6.14873 25
133 1 18.8972 3.28014 11.2486 22
134 1 18.7338 3.13991 1.64283 21
135 1 21.4145 27.1876 23.0025 22
136 1 21.3575 4.26157 6.85238 22
137 1 5.36953 1.01853 11.1859 21
138 1 21.5354 33.2077 16.558 23
139 1 18.7124 9.11281 14.5547 23
140 1 8.20711 29.1876 6.35895 24
141 1 8.01435 6.35991 -0.166515 22
142 1 15.7922 9.78494 65.9201 23
143 1 18.6177 12.173 -0.273241 21
144 1 21.4679 7.19356 18.1926 22
145 1 13.8077 12.0109 3.19044 24
146 1 13.2843 11.5986 16.0539 20
147 1 21.1121 6.7372 1.68298 22
148 1 26.5191 12.8315 11.244 23
149 1 10.6715 10.1665 66.1094 21
150 1 18.9249 11.9476 5.80075 21
151 1 13.2351 5.87895 12.5148 23
152 1 2.91716 9.25519 4.77488 22
153 1 13.4125 9.06468 17.6575 20
154 1 10.9298 24.5896 11.3582 21
155 1 21.1833 10.2425 22.9115 21
156 1 26.7657 1.58636 11.4418 22
157 1 21.2241 1.26276 4.65267 21
158 1 2.78346 32.0237 17.9187 21
159 1 13.1832 9.06195 14.239 22
160 1 21.1626 0.999987 7.83294 23
161 1 13.5184 11.8894 -0.281236 23
162 1 15.8441 15.9976 -0.14263 23
163 1 10.8411 9.87793 6.35786 23
164 1 18.506 9.04118 1.46924 23
165 1 10.6435 18.5791 4.60813 22
166 1 32.2572 18.8785 7.89257 26
167 1 21.1634 12.8098 8.00725 21
168 1 21.6068 12.8149 0.956321 23
169 1 8.25278 14.5064 11.0372 22
170 1 10.9781 18.5876 11.0075 21
171 1 21.2366 18.6873 4.52641 23
172 1 18.2558 6.14691 2.82039 21
173 1 15.9906 10.1162 6.44811 24
174 1 21.0905 12.9754 4.30787 20
175 1 23.7107 23.4395 19.214 20
176 1 8.15846 18.0046 9.34389 23
177 1 5.74268 9.688 16.2574 23
178 1 8.27066 34.0115 21.5014 18
179 1 3.01413 11.8732 16.3572 24
180 1 10.4046 15.6993 6.111 21
181 2 30.9726 3.51738 4.64008 21
182 2 30.7492 32.3428 63.8846 22
183 2 5.28941 6.38818 6.39875 21
184 2 4.68525 6.08716 3.47093 22
185 2 2.16294 1.16551 1.56611 22
186 2 4.80107 0.459315 3.09299 24
187 2 2.07472 26.8953 66.0743 24
188 2 10.0439 31.7816 11.3507 22
189 2 31.0475 12.3649 16.0231 22
190 2 12.4394 21.4236 5.96692 24
191 2 15.5587 6.23782 6.08853 23
192 2 26.4133 20.4848 17.2857 21
193 2 1.95683 3.93875 16.431 24
194 2 7.37347 1.94103 18.0669 22
195 2 29.059 30.291 18.1245 20
196 2 7.63773 33.6813 19.3901 20
197 2 18.2885 30.6645 14.5611 21
198 2 10.0229 32.2228 7.81368 24
199 2 6.92005 6.72267 14.6773 25
200 2 28.8177 19.0102 14.2316 25
201 2 2.16502 9.87022 -0.282891 21
202 2 2.3798 4.13962 6.54406 22
203 2 1.75018 7.33449 64.4731 22
204 2 4.84335 6.86681 66.0745 19
205 2 4.85223 12.2298 3.13375 22
206 2 5.24162 9.25086 1.36183 21
207 2 5.14407 17.918 13.0012 20
208 2 2.7358 1.37187 8.28045 22
209 2 10.0203 8.66382 14.6052 25
210 2 28.7975 30.0075 8.22457 21
211 2 29.2157 15.9352 6.22076 22
212 2 8.67712 18.28 17.8917 25
213 2 14.9523 3.20562 14.3038 24
214 2 31.5157 5.94049 6.26667 21
215 2 21.0288 32.0626 21.275 24
216 2 4.95797 3.26966 14.9424 23
217 2 2.18615 16.216 9.48328 22
218 2 29.2302 7.30633 21.1864 23
219 2 23.5897 1.54105 11.1135 21
220 2 15.5061 3.06806 17.669 22
221 2 28.5963 10.1766 9.43748 25
222 2 5.15428 11.5455 65.2118 22
223 2 5.16094 17.3973 9.81935 22
224 2 7.41829 15.4638 12.3125 25
225 2 7.31116 3.99258 13.0454 24
226 2 4.72226 17.7879 6.36958 23
227 2 32.2397 11.8536 65.7792 20
228 2 28.5312 4.58357 9.65292 22
229 2 9.66293 21.4613 7.84965 20
230 2 7.87823 9.86499 6.05977 23
231 2 31.0947 14.6046 0.794485 22
232 2 2.89114 7.35971 1.50117 22
233 2 8.37398 7.0527 7.99348 20
234 2 31.2179 14.9587 17.847 24
235 2 31.4101 6.47209 20.0862 21
236 2 8.17636 9.83027 9.45068 23
237 2 4.87931 29.1733 16.1993 23
238 2 10.2337 29.1242 13.1937 22
239 2 2.26128 15.5478 16.4749 24
240 2 4.84049 20.5215 11.2545 23
241 2 7.25723 6.89401 1.88807 22
242 2 4.79728 0.267617 6.32674 24
243 2 13.0974 29.9662 7.93313 20
244 2 10.2915 8.87147 1.14132 23
245 2 28.2951 4.4234 3.14038 21
246 2 7.66194 1.72642 1.41681 21
247 2 10.3507 29.2106 9.37777 20
248 2 17.6021 6.65002 11.7426 23
249 2 29.015 6.96414 7.69686 23
250 2 10.5835 0.729175 2.86753 23
251 2 18.3791 4.3802 23.2777 22
252 2 23.2299 4.22111 16.3299 24
253 2 15.4253 8.77118 4.45842 23
254 2 2.37847 27.2315 6.47681 23
255 2 10.1477 0.206198 13.2604 23
256 2 13.0471 7.01506 8.0708 21
257 2 13.6616 4.03778 19.2327 21
258 2 7.58687 29.9943 21.5372 20
259 2 10.1139 26.0404 4.19151 21
260 2 17.8957 30.0382 4.44035 24
261 2 2.69169 10.3929 3.10931 25
262 2 2.51548 12.905 0.902907 23
263 2 15.426 15.1467 7.99902 24
264 2 18.0427 1.27856 4.25669 21
265 2 4.93759 9.19026 4.88622 21
266 2 15.7883 0.269893 65.8532 21
267 2 5.17588 14.9121 14.5606 22
268 2 12.6192 13.2137 1.26669 24
269 2 7.17639 15.9404 2.95818 23
270 2 20.5866 11.5456 9.59452 22
271 2 7.73808 7.12479 11.0377 23
272 2 28.8708 1.6346 11.375 21
273 2 31.9022 9.17195 1.72113 19
274 2 10.3991 32.3715 1.06423 22
275 2 12.7737 4.0713 9.63035 23
276 2 31.0501 14.9964 4.20734 24
277 2 15.3967 17.9877 19.3372 23
278 2 20.672 3.32729 15.0381 24
279 2 15.4329 12.2565 6.39209 22
280 2 10.0619 15.0855 8.00192 21
281 2 7.86974 15.707 66.0425 23
282 2 9.8089 15.145 1.61564 21
283 2 4.2981 14.8975 4.04899 25
284 2 9.87039 14.5124 64.2453 23
285 2 2.41876 12.9142 7.87034 21
286 2 23.1741 9.83731 2.86644 22
287 2 18.3089 18.3105 7.99168 22
288 2 18.3647 13.2148 4.5089 21
289 2 7.56423 12.9511 7.61075 25
290 2 10.5975 9.46172 4.30091 22
291 2 2.57965 15.8595 22.7323 20
292 2 12.9074 12.805 4.49638 23
293 2 23.5193 19.0372 10.9258 24
294 2 10.6117 17.8417 12.6766 21
295 2 21.0748 5.84159 22.8076 23
296 2 15.172 0.509845 13.0177 22
297 2 15.5826 0.041203 5.93174 20
298 2 20.8479 0.193437 23.0884 22
299 2 31.1695 3.15245 7.81563 22
300 2 15.2874 8.74433 27.9952 21
301 2 10.0749 6.04146 63.0809 22
302 2 12.8578 4.14814 3.13728 23
303 2 10.156 6.15443 3.00113 23
304 2 31.6676 9.30165 4.79911 23
305 2 20.7742 11.7206 -0.332526 24
306 2 26.0713 0.308585 6.41762 23
307 2 12.9997 4.13592 0.110851 21
308 2 23.0404 1.24132 65.1081 22
309 2 17.9805 1.13817 64.4931 21
310 2 12.839 0.890944 7.66373 22
311 2 7.3966 4.55549 19.2864 21
312 2 13.0993 33.0055 6.30684 21
313 2 31.5162 6.46746 3.02769 19
314 2 23.3628 33.169 16.1798 22
315 2 30.721 0.278587 9.43423 22
316 2 15.6532 11.834 9.48446 23
317 2 18.4043 1.34943 21.3482 24
318 2 31.5256 14.7035 14.5197 23
319 2 18.0986 1.16573 7.78368 23
320 2 15.3595 28.9484 2.61454 23
321 2 12.8491 10.1047 66.1297 21
322 2 12.85 1.52202 64.6387 23
323 2 15.133 14.9865 1.27406 24
324 2 21.0679 8.88748 64.5825 22
325 2 8.0663 17.4058 14.4259 21
326 2 12.6066 7.22495 1.07425 23
327 2 20.2556 5.93759 10.0223 23
328 2 15.4272 2.90204 7.80981 23
329 2 10.3633 11.9893 3.19711 22
330 2 15.7759 8.98676 8.08065 22
331 2 5.00976 20.7802 7.69699 22
332 2 18.4761 15.6624 6.45649 20
333 2 9.99509 17.5117 6.32978 21
334 2 12.9294 9.87746 2.86502 21
335 2 15.5559 0.494387 16.6713 23
336 2 28.8416 17.893 21.1099 22
337 2 5.03966 -0.128583 9.43022 22
338 2 28.5219 13.0514 11.3027 23
339 2 15.5136 14.6897 11.363 22
340 2 20.6884 26.5955 7.94214 22
341 2 25.5453 3.70946 7.93514 23
342 2 15.4699 14.9917 17.9215 19
343 2 20.5409 14.7748 8.28067 23
344 2 15.5626 11.862 -0.0651442 20
345 2 20.5862 0.157592 9.48988 23
346 2 15.6244 20.2862 7.50267 24
347 2 9.70764 26.3205 64.5173 25
348 2 15.2829 0.456291 3.04858 25
349 2 4.96309 23.2522 22.846 22
350 2 31.779 12.2659 6.39788 25
351 2 20.8467 11.5296 6.10413 21
352 2 25.9416 14.8449 4.64202 23
353 2 17.893 33.3637 16.5605 22
354 2 20.6158 8.86458 1.25694 22
355 2 10.1132 14.5214 4.507 21
356 2 15.2908 11.899 16.4657 21
357 2 15.3202 17.6324 9.52756 24
358 2 20.8177 3.27571 5.18779 23
359 2 18.0592 1.52686 11.1835 23
360 2 23.2196 18.5095 14.7153 23
361 1 26.3849 33.0678 6.42357 24
362 1 29.2535 3.58254 11.5915 20
363 1 11.008 13.1412 24.6862 24
364 1 4.92708 6.7753 14.5408 21
365 1 11.2259 27.1712 19.138 23
366 1 31.7007 33.1392 26.023 23
367 1 18.7413 0.464858 9.65304 23
368 1 5.34264 32.8138 29.6443 21
369 1 31.6065 1.49692 14.9857 21
370 1 13.299 2.99203 1.51824 23
371 1 5.95606 6.72683 31.4534 23
372 1 5.32278 4.23079 19.7652 21
373 1 5.59605 4.46855 23.3391 20
374 1 21.4506 32.5962 26.3307 22
375 1 2.9473 6.29651 22.9751 23
376 1 10.9414 4.23808 23.1354 24
377 1 31.9867 4.41274 29.6612 21
378 1 8.41205 17.2831 23.2477 21
379 1 8.54286 3.40903 31.1656 24
380 1 2.97485 0.599627 30.0063 22
381 1 8.37785 11.8429 16.3078 22
382 1 16.4418 7.37417 24.1371 22
383 1 13.4878 14.697 14.4888 25
384 1 32.1197 7.17705 24.9101 23
385 1 31.4716 1.25635 17.9837 21
386 1 5.53958 4.04034 26.766 21
387 1 16.2535 21.7225 19.5418 24
388 1 8.41091 11.7158 13.2279 20
389 1 18.7548 5.67773 19.5453 21
390 1 13.2038 11.9855 19.971 22
391 1 5.52487 9.95966 19.7112 23
392 1 5.63647 1.51571 24.7067 23
393 1 32.1541 3.81098 26.4009 21
394 1 8.40585 20.606 28.0304 26
395 1 3.39288 9.20642 31.4075 24
396 1 31.8459 12.808 21.362 21
397 1 3.11315 29.1243 26.4229 22
398 1 29.9645 8.88233 31.1755 23
399 1 5.79215 7.22019 28.2533 20
400 1 31.7828 12.7967 31.0585 24
401 1 3.17183 14.8408 27.7214 22
402 1 13.7365 14.9103 10.9293 24
403 1 8.3807 20.469 11.4964 23
404 1 7.99117 9.08499 18.0068 21
405 1 13.7521 11.5313 9.61738 23
406 1 11.1199 24.4577 4.6395 22
407 1 5.60627 12.8539 17.7678 24
408 1 5.74327 1.16511 28.2019 23
409 1 16.3796 10.1139 22.6477 22
410 1 15.9854 10.4191 19.4147 23
411 1 27.1181 12.987 28.3696 23
412 1 2.93386 14.7486 24.5906 22
413 1 29.3902 14.9542 24.4018 25
414 1 32.0532 21.4888 22.7819 23
415 1 3.04736 20.5537 30.9787 23
416 1 10.6784 9.70644 16.2286 22
417 1 5.59035 18.879 27.6877 22
418 1 5.87857 9.78625 26.4109 25
419 1 29.5338 12.0175 26.3436 23
420 1 2.70355 14.8344 31.2247 21
421 1 2.54397 31.8215 24.788 21
422 1 16.3018 3.83622 12.7734 25
423 1 8.50966 26.5646 7.90899 23
424 1 24.0351 26.2026 20.9501 23
425 1 21.1694 6.9353 11.7005 22
426 1 7.87277 32.155 11.57 21
427 1 13.3314 12.0205 12.5207 21
428 1 21.341 27.3907 19.9685 21
429 1 10.5509 6.80738 14.7271 23
430 1 12.9569 0.320641 9.38029 22
431 1 11.0471 33.0663 23.4752 24
432 1 18.7173 9.35885 17.7485 19
433 1 21.3643 21.0672 19.4519 20
434 1 8.38058 3.96257 21.1007 22
435 1 10.3323 30.4641 31.124 21
436 1 24.0421 0.319494 26.305 25
437 1 13.4709 32.0691 28.0672 23
438 1 10.8516 4.59773 29.5834 22
439 1 16.5238 10.0664 26.4177 23
440 1 13.5548 3.14587 24.7839 22
441 1 26.6458 4.53591 9.65711 24
442 1 8.04956 6.1365 12.908 24
443 1 13.4742 9.03779 7.79928 23
444 1 11.2388 9.96262 26.0035 25
445 1 26.4833 33.2237 9.51121 20
446 1 11.0831 15.8938 22.9952 24
447 1 3.26164 9.19652 28.1514 24
448 1 29.1319 17.5869 15.821 22
449 1 31.9351 7.68439 21.7197 23
450 1 13.7548 15.0498 21.5771 23
451 1 13.8584 6.3578 23.1653 22
452 1 13.5528 9.09165 21.1077 23
453 1 13.2263 3.22693 27.5158 20
454 1 15.8594 15.8535 29.3916 19
455 1 10.46 4.22896 26.5841 22
456 1 16.3116 1.20713 24.6787 23
457 1 8.18334 3.58918 17.8067 21
458 1 32.3341 6.99344 27.8615 24
459 1 8.04479 6.03503 29.7187 23
460 1 11.1297 4.43241 33.0292 24
461 1 8.33105 12.0492 23.3191 22
462 1 5.68228 6.69429 11.2872 23
463 1 13.4862 17.7965 29.5373 22
464 1 18.2282 6.18326 9.60044 21
465 1 8.40926 9.24597 27.9324 22
466 1 16.4599 24.5461 17.717 22
467 1 16.5276 12.7245 27.8611 24
468 1 13.8036 5.92721 26.093 23
469 1 4.83414 10.0739 22.7345 19
470 1 2.7016 6.17333 16.1938 22
471 1 29.4154 8.79622 24.8927 22
472 1 13.2154 26.3065 24.75 20
473 1 13.7892 6.27303 19.3842 22
474 1 7.97387 17.2928 19.7994 20
475 1 15.7171 12.7539 30.7491 20
476 1 8.08038 3.17643 28.0711 21
477 1 5.55356 9.92686 29.6831 23
478 1 8.41875 17.4319 26.8672 21
479 1 11.2416 18.9356 27.7689 23
480 1 11.0532 15.7017 26.1288 23
481 1 18.7163 29.567 9.7376 22
482 1 16.1546 4.04006 9.53131 22
483 1 10.7229 1.43559 17.8857 22
484 1 10.6422 32.7612 12.9803 22
485 1 8.0249 28.9523 20.0391 21
486 1 21.5627 9.73956 12.9178 23
487 1 13.4167 11.6142 22.8504 22
488 1 18.3275 0.817803 13.0316 23
489 1 13.4495 3.45999 4.78449 24
490 1 18.8469 3.26185 24.7679 23
491 1 7.91308 31.816 14.5529 21
492 1 19.2988 0.555009 26.0317 21
493 1 21.6617 1.10295 24.5442 22
494 1 10.584 7.33255 31.116 23
495 1 24.5411 5.74854 26.1806 22
496 1 21.6782 1.51479 28.0757 24
497 1 16.1042 33.156 29.8782 21
498 1 5.61822 4.04474 30.2046 21
499 1 13.5708 3.24036 30.9244 23
500 1 16.3419 1.50567 31.3156 21
501 1 5.47869 32.6602 16.2942 22
502 1 21.2193 10.1997 16.1206 21
503 1 8.45584 6.21022 19.5057 24
504 1 8.3473 31.5883 22.2491 21
505 1 31.8977 6.85626 11.0997 23
506 1 13.4044 14.5524 27.4111 23
507 1 10.8267 4.24575 19.5304 20
508 1 2.64669 6.15254 19.4763 21
509 1 8.31083 32.0312 31.5264 23
510 1 18.9085 11.7661 22.6096 23
511 1 15.3215 13.1732 17.8812 19
512 1 10.7894 30.1742 18.0518 21
513 1 18.9101 31.9852 27.7655 22
514 1 21.7593 9.80378 26.1819 25
515 1 15.8164 30.3612 28.118 21
516 1 16.3225 7.00971 27.5994 23
517 1 10.8875 9.9051 32.9191 22
518 1 13.3981 9.06703 31.2085 22
519 1 8.33718 12.2166 29.8112 22
520 1 13.5359 6.08744 29.4817 23
521 1 2.6378 3.49539 11.4998 23
522 1 18.6874 11.6098 13.0126 23
523 1 16.1616 13.0348 24.5227 23
524 1 3.06809 14.6785 21.201 23
525 1 21.4546 33.2172 19.7026 21
526 1 3.1649 23.3744 9.30198 24
527 1 13.1251 17.6381 12.5973 22
528 1 10.7047 4.12297 12.7399 23
529 1 13.145 20.3577 14.3032 22
530 1 3.60209 5.95796 26.2495 23
531 1 5.38174 16.1822 29.733 22
532 1 16.6428 15.9593 26.523 25
533 1 13.6684 11.9519 25.8977 23
534 1 19.0848 14.7246 27.7301 23
535 1 31.8215 9.64695 26.2661 22
536 1 16.5219 4.3079 29.7571 23
537 1 11.2917 18.1386 31.4864 22
538 1 18.7302 26.4821 11.3735 24
539 1 11.2728 13.0212 31.4908 23
540 1 5.54354 13.4801 31.4297 24
541 2 28.4161 21.4402 6.3277 21
542 2 9.9334 29.5498 26.3058 24
543 2 15.5331 26.5247 21.4299 20
544 2 7.74874 18.5795 11.406 21
545 2 8.0955 32.9856 26.6909 23
546 2 4.81775 3.06754 11.2643 23
547 2 31.6104 31.9108 21.3784 21
548 2 12.801 1.70466 11.3287 22
549 2 28.4501 1.68851 31.2381 25
550 2 4.91368 31.7998 14.4293 22
551 2 5.39216 6.14568 29.9985 23
552 2 2.39195 15.5325 19.5444 23
553 2 7.37681 32.7339 33.02 25
554 2 7.55272 30.6102 28.0246 22
555 2 7.66428 24.4001 20.891 22
556 2 31.1041 23.7332 26.2393 22
557 2 10.4702 0.542662 30.0557 24
558 2 31.6878 32.1012 27.7644 22
559 2 5.0656 6.26771 32.8879 24
560 2 31.6743 6.07351 33.1001 23
561 2 2.63564 15.9733 26.0564 21
562 2 26.0156 9.26331 7.92259 23
563 2 15.4551 6.47106 15.7116 22
564 2 31.8882 23.3282 16.5793 20
565 2 5.11586 3.07099 28.4384 23
566 2 18.5124 9.94314 22.77 22
567 2 28.7467 4.03685 26.5244 21
568 2 5.80583 17.6827 19.6401 23
569 2 13.0005 13.1311 24.5507 23
570 2 15.9743 6.35675 25.7488 21
571 2 7.66218 27.3096 29.597 21
572 2 9.67619 31.6613 23.8276 20
573 2 12.7826 24.8014 20.9517 21
574 2 10.537 6.31956 29.6059 22
575 2 2.4198 7.26549 35.0044 23
576 2 7.49222 12.6799 24.8387 22
577 2 8.3268 10.3865 29.3817 20
578 2 4.76841 11.8234 9.55519 26
579 2 30.8703 2.81975 24.4462 22
580 2 1.90912 9.87769 22.7884 25
581 2 7.89173 26.865 23.0698 22
582 2 29.0413 7.11272 14.8629 21
583 2 12.9463 21.7515 19.6379 21
584 2 15.8943 26.5795 11.6486 21
585 2 4.89361 6.32949 23.0253 22
586 2 7.43638 10.1694 15.6943 21
587 2 9.83561 26.0463 14.7904 26
588 2 2.89402 13.0812 14.7312 19
589 2 21.0586 17.7303 26.0894 22
590 2 13.2332 15.9791 22.9248 21
591 2 31.2176 3.26495 18.0215 24
592 2 31.2906 8.99262 24.5845 26
593 2 28.899 10.3899 16.3039 23
594 2 26.4724 6.38279 29.7564 20
595 2 31.3153 0.668769 26.1547 22
596 2 31.5627 11.9523 26.4179 22
597 2 31.5153 9.66506 21.0026 22
598 2 5.10325 8.78367 21.3742 21
599 2 5.16297 5.92248 27.0981 23
600 2 10.2054 11.8871 23.0311 23
601 2 10.7279 6.28536 6.24744 20
602 2 10.5756 26.81 7.87712 19
603 2 7.84227 18.3968 21.5265 23
604 2 7.9396 7.36651 28.204 22
605 2 20.7061 32.133 10.9431 23
606 2 4.51584 0.361005 12.9484 23
607 2 31.0582 0.0461572 15.9055 23
608 2 18.2885 27.1389 16.4426 20
609 2 10.271 32.2577 18.4219 19
610 2 12.6791 1.13721 14.5901 23
611 2 2.44463 33.1609 19.7654 22
612 2 10.8287 9.38945 31.2469 19
613 2 23.5419 12.7148 24.4235 24
614 2 7.54321 27.466 26.2274 20
615 2 15.3423 3.27239 31.0413 22
616 2 12.7134 9.6731 29.3448 21
617 2 10.4597 32.2565 31.3116 23
618 2 20.6161 23.7006 12.7264 22
619 2 18.226 4.27872 13.0893 22
620 2 12.8339 1.30931 28.0644 23
621 2 10.3832 11.9616 19.4591 23
622 2 7.8922 30.3538 4.93647 19
623 2 12.3908 9.94489 12.534 23
624 2 4.76075 3.43713 24.9827 23
625 2 2.27718 33.2813 26.0728 22
626 2 13.6257 4.35101 23.0093 19
627 2 12.6662 6.91673 14.2821 24
628 2 10.1472 20.4152 21.3741 23
629 2 12.3082 3.81165 26.0588 23
630 2 12.9654 30.5204 17.8824 21
631 2 17.8875 24.5093 24.6458 25
632 2 10.2857 23.3401 29.8376 22
633 2 15.5755 23.1724 15.8993 23
634 2 10.0123 6.44221 33.159 22
635 2 18.7987 33.1492 26.1395 19
636 2 13.0951 33.2208 29.6506 21
637 2 5.13205 14.8184 28.0827 22
638 2 10.1255 32.9981 21.5762 20
639 2 5.09983 3.02024 34.8312 23
640 2 10.4423 12.3435 29.5967 21
641 2 4.51524 31.8506 8.13654 24
642 2 18.0743 10.2967 16.0326 22
643 2 15.4873 9.00368 20.9385 26
644 2 4.65306 14.5115 10.8501 21
645 2 5.20225 12.023 16.1812 21
646 2 31.5671 32.4316 17.988 23
647 2 10.0469 9.23195 17.9297 24
648 2 10.2932 17.3469 16.3415 22
649 2 31.1647 20.3578 21.2851 22
650 2 12.9738 6.91711 24.7353 23
651 2 15.6833 14.7896 34.7863 21
652 2 12.9128 7.01557 27.5405 23
653 2 4.53707 15.1692 31.3875 24
654 2 17.9057 4.1849 19.8237 22
655 2 4.91825 20.4544 30.7271 22
656 2 10.241 23.5486 26.4059 21
657 2 2.27094 21.5348 26.4318 23
658 2 26.1173 9.28038 27.7391 22
659 2 2.18125 10.3005 33.0001 24
660 2 13.0882 12.8668 31.238 21
661 2 12.7908 33.1159 12.8277 21
662 2 18.1052 16.3775 23.2901 22
663 2 12.91 7.28928 11.3129 22
664 2 13.0642 9.95646 22.9596 24
665 2 12.9753 1.3225 24.6031 24
666 2 20.9297 8.98969 21.1431 23
667 2 10.292 0.278479 23.1937 22
668 2 20.5405 32.2417 18.1111 24
669 2 2.71398 4.59608 29.927 22
670 2 26.3938 3.6805 27.9974 21
671 2 26.2425 12.0252 19.6825 23
672 2 12.7782 12.5709 14.452 21
673 2 20.8953 8.8487 14.653 23
674 2 21.1198 8.87603 27.7387 21
675 2 15.6726 0.232366 26.5943 23
676 2 21.4178 6.36835 29.3755 21
677 2 18.2763 1.67864 31.4413 22
678 2 15.8671 6.36235 32.6046 23
679 2 18.0604 30.3689 28.0895 21
680 2 12.7936 4.01349 29.3083 24
681 2 2.59467 1.61147 21.3378 20
682 2 18.1712 1.78956 18.3208 23
683 2 15.4674 9.0506 14.1836 22
684 2 18.1549 7.26404 14.5796 19
685 2 10.4109 3.71413 31.5854 23
686 2 18.2007 27.3946 2.58005 23
687 2 9.73003 3.31361 7.96228 25
688 2 23.4351 13.1584 10.9579 21
689 2 2.51308 18.1703 14.4357 22
690 2 18.2964 1.05164 24.4346 24
691 2 9.88368 3.21966 24.9537 22
692 2 8.06884 12.9498 14.6604 22
693 2 31.1345 6.09824 13.0581 23
694 2 13.1618 9.99156 25.9481 21
695 2 2.83166 18.7896 24.225 22
696 2 21.4861 14.6783 27.4098 24
697 2 17.8738 33.2336 29.371 22
698 2 29.119 9.97472 23.1809 23
699 2 13.2518 4.52782 32.4438 21
700 2 20.8149 9.17962 31.1275 23
701 2 21.0182 11.5216 26.4783 22
702 2 7.69191 33.4416 2.98295 23
703 2 4.88602 3.35043 8.03906 22
704 2 23.2065 10.2404 9.76781 21
705 2 2.15748 24.1307 20.9999 21
706 2 15.6215 12.1496 26.1742 21
707 2 10.0919 8.84676 21.0547 24
708 2 15.8621 3.04456 24.2516 22
709 2 15.6936 20.6939 17.8515 20
710 2 18.4241 12.8346 27.5822 22
711 2 18.4282 33.417 19.8241 23
712 2 7.66387 15.5032 16.1898 24
713 2 20.5033 23.1868 16.0528 20
714 2 10.4113 14.4016 20.9538 24
715 2 7.6318 10.0953 22.9144 24
716 2 13.174 18.7589 24.5489 22
717 2 12.9225 21.5247 22.7761 24
718 2 13.0546 10.0486 32.7258 22
719 2 12.5719 12.8062 27.5945 24
720 2 18.4404 7.07538 24.7308 23
721 1 2.74906 17.6791 65.8151 22
722 1 13.5008 17.4225 6.28598 24
723 1 5.63271 18.6596 0.693153 22
724 1 5.62565 18.4971 7.99225 23
725 1 5.59557 24.5305 4.32162 23
726 1 16.0138 29.8823 8.0375 21
727 1 29.0721 15.0832 4.48548 20
728 1 31.4805 15.9287 6.16886 22
729 1 10.6343 29.95 14.8756 21
730 1 32.1712 19.2465 1.0804 23
731 1 5.54956 1.30685 14.6196 22
732 1 8.39731 17.3924 12.6434 21
733 1 2.81842 17.3894 6.36215 20
734 1 13.6709 23.4191 9.44912 22
735 1 3.01926 14.6158 7.54579 26
736 1 10.6922 24.2698 8.02745 23
737 1 10.9719 21.7185 3.04176 21
738 1 29.5251 28.9198 23.111 21
739 1 3.34021 8.98716 7.96649 24
740 1 8.06332 23.4624 22.6255 22
741 1 29.3778 20.515 1.42331 25
742 1 28.9776 23.6815 2.89974 20
743 1 29.4171 26.3488 1.06984 24
744 1 7.99257 23.9916 65.9445 21
745 1 5.38033 21.0631 2.9376 22
746 1 32.1894 21.7427 12.6962 20
747 1 31.814 4.05381 6.37987 21
748 1 29.3312 20.6029 4.77502 24
749 1 29.1543 32.0228 1.45251 22
750 1 5.65127 27.1726 12.8432 25
751 1 31.813 33.1681 16.2492 24
752 1 3.17445 20.7574 7.32653 23
753 1 10.6949 21.2967 22.8669 23
754 1 32.0472 15.9803 13.2049 20
755 1 2.79723 29.2206 6.40759 21
756 1 2.93631 20.6513 24.8436 23
757 1 5.72868 21.7446 16.6149 22
758 1 5.51746 24.3694 28.0075 22
759 1 21.6993 16.1253 16.1353 22
760 1 5.86607 23.9977 18.0506 23
761 1 31.1333 32.9525 65.818 22
762 1 2.87713 32.199 64.5225 22
763 1 8.57189 0.520545 2.73577 24
764 1 3.24137 26.3208 1.13606 23
765 1 7.96988 29.4286 3.05757 21
766 1 4.91731 29.8442 8.03045 21
767 1 32.0001 30.2317 1.03761 21
768 1 29.3938 29.1144 6.65382 23
769 1 26.4441 24.5687 1.20011 25
770 1 3.05739 26.1188 11.6851 23
771 1 2.82159 32.1725 4.68868 25
772 1 8.10462 31.9068 7.74548 22
773 1 13.19 23.1125 6.34635 23
774 1 8.34986 26.3367 4.53236 23
775 1 24.0825 29.3508 9.74829 23
776 1 10.7843 30.1189 11.3919 23
777 1 5.6948 1.46708 21.7878 24
778 1 7.87505 0.41128 9.50211 22
779 1 31.8666 4.16933 19.836 22
780 1 32.2256 33.0023 22.9409 23
781 1 10.9537 18.855 1.39307 22
782 1 16.2064 26.3859 -0.466056 20
783 1 13.4215 20.518 4.71864 23
784 1 10.3896 15.9422 0.0475879 21
785 1 16.2063 18.1977 8.12417 22
786 1 5.25896 24.1501 11.1024 24
787 1 16.3598 13.0468 4.90953 22
788 1 13.4276 31.9761 8.11715 23
789 1 10.861 12.7604 14.5894 22
790 1 7.24894 20.7616 7.78818 19
791 1 8.24433 17.9934 5.80883 22
792 1 8.25537 23.2941 9.54856 23
793 1 5.58582 27.39 9.67241 23
794 1 13.4202 26.1311 7.88963 21
795 1 21.5745 15.8914 19.4787 22
796 1 13.6604 3.28697 11.281 20
797 1 24.2215 17.6936 6.06732 26
798 1 31.9198 4.61843 3.43968 20
799 1 16.137 27.3014 19.8471 19
800 1 8.08976 9.05852 11.2457 24
801 1 10.8166 27.4084 -0.509324 22
802 1 13.3445 26.2572 1.16348 22
803 1 2.6542 26.4767 4.52453 22
804 1 10.929 27.4278 2.75072 24
805 1 10.94 33.0128 6.31328 22
806 1 10.9124 30.3026 7.87645 22
807 1 17.9375 28.9891 65.9696 20
808 1 8.06432 20.2349 4.45518 22
809 1 10.749 24.139 24.8666 21
810 1 13.2872 29.1347 65.9671 21
811 1 12.9485 32.0178 11.2746 21
812 1 13.2898 29.0784 2.51435 22
813 1 29.2009 14.8335 17.4055 23
814 1 8.19262 23.3777 2.80501 23
815 1 8.03813 29.3853 9.77451 22
816 1 8.44675 31.7316 17.9171 17
817 1 15.994 0.804566 7.85873 21
818 1 5.97479 33.0098 26.5702 25
819 1 31.8261 24.5119 15.2477 22
820 1 8.11297 28.8855 23.2759 22
821 1 10.85 33.334 2.86076 21
822 1 11.039 27.4139 9.43481 24
823 1 13.4641 0.663466 2.89681 22
824 1 18.9858 0.252374 2.86327 26
825 1 10.8773 30.4439 1.21926 22
826 1 10.5831 1.50751 4.87229 21
827 1 2.75319 29.1402 66.0603 22
828 1 18.6827 26.052 1.28674 20
829 1 13.4291 26.606 14.5815 21
830 1 8.05987 26.1799 11.1871 22
831 1 8.16975 26.465 1.41406 24
832 1 5.61987 1.16224 7.92944 22
833 1 8.11998 23.9875 6.42801 20
834 1 8.14401 0.222854 5.92199 23
835 1 2.87586 3.60017 8.29424 22
836 1 13.384 29.3532 19.5004 20
837 1 32.0333 33.0037 5.87512 24
838 1 5.34884 27.3609 -0.327293 23
839 1 10.8135 27.3016 5.71777 22
840 1 3.42552 31.9407 20.9733 21
841 1 10.845 21.3165 65.7376 22
842 1 15.8069 18.5128 64.6174 21
843 1 18.5188 17.6532 2.81262 23
844 1 13.1306 23.3154 66.2538 22
845 1 15.6542 15.6276 3.12022 23
846 1 16.1758 18.7108 4.77449 24
847 1 16.3061 21.4164 9.14445 23
848 1 21.4308 21.1637 9.78255 21
849 1 31.8817 21.577 2.89334 23
850 1 13.7269 26.5878 11.1756 22
851 1 15.7694 15.7077 16.2066 22
852 1 18.7969 8.83413 10.9068 22
853 1 18.5667 20.7466 10.8448 20
854 1 18.7318 31.8815 4.79367 22
855 1 10.8618 10.0502 22.8974 22
856 1 16.2733 7.59961 18.026 21
857 1 16.1412 30.2563 14.7189 21
858 1 18.7739 20.2968 4.37554 20
859 1 16.2378 21.302 2.7977 25
860 1 13.5901 0.522149 22.8181 22
861 1 5.45165 18.5033 4.53679 24
862 1 13.6842 26.1629 4.73949 24
863 1 15.9196 30.2246 1.31982 20
864 1 18.626 20.7084 1.2598 21
865 1 15.7518 13.2319 8.10992 20
866 1 21.175 27.331 2.69151 22
867 1 19.0127 17.3916 6.29666 22
868 1 26.6095 21.5821 5.96644 23
869 1 13.2072 17.5727 65.9891 21
870 1 15.9968 4.21782 6.32674 21
871 1 13.6036 17.9442 3.13356 22
872 1 23.8731 26.592 0.94621 23
873 1 13.7657 11.8815 6.7543 22
874 1 18.6745 23.5639 6.18798 22
875 1 14.1638 32.5513 24.6945 24
876 1 16.4061 30.3352 24.951 24
877 1 21.3301 21.4942 3.04984 22
878 1 10.7199 1.14118 11.5453 21
879 1 13.3187 0.276702 16.4261 21
880 1 21.4059 21.4117 6.31272 22
881 1 15.7573 30.055 64.3821 21
882 1 18.7227 31.9796 64.7418 22
883 1 21.1967 1.02769 11.1244 23
884 1 5.38346 33.0601 6.35992 23
885 1 18.5081 23.6841 66.0144 22
886 1 18.9658 11.8658 19.7138 23
887 1 16.165 1.32713 4.61276 23
888 1 15.6113 15.889 9.57948 21
889 1 13.3636 26.0112 64.5011 24
890 1 28.9201 3.34658 1.53043 21
891 1 18.8022 2.96819 4.87079 23
892 1 18.5835 14.7715 14.6491 23
893 1 21.3911 1.24028 1.73141 21
894 1 5.32323 1.29708 17.8104 20
895 1 15.5297 1.55516 14.8027 22
896 1 8.09261 28.9793 16.3193 22
897 1 16.2706 24.3599 4.51313 25
898 1 21.4599 7.15323 21.292 23
899 1 8.20171 23.4638 12.888 25
900 1 8.1733 20.8003 1.40516 24
901 2 4.69983 20.4641 4.62205 20
902 2 4.98502 14.6221 0.898833 21
903 2 5.03154 26.4727 7.98134 23
904 2 2.59417 18.7015 0.961375 20
905 2 9.98923 23.3078 2.88344 22
906 2 4.83458 17.9839 2.64836 22
907 2 28.7193 15.4249 12.7831 23
908 2 7.1579 4.27349 5.63888 21
909 2 7.85411 21.5865 13.1591 19
910 2 31.2727 6.40316 9.47517 22
911 2 5.11488 20.5354 0.393244 22