ITEM: TIMESTEP
374000
ITEM: NUMBER OF ATOMS
5760
ITEM: BOX BOUNDS pp pp pp
1.0457257828 32.6142742172
-0.441757469 34.101757469
-0.4367024633 66.2367024633
ITEM: ATOMS id type x y z Coordination
1 1 3.02977 0.0750862 66.0058 22
2 1 5.28768 4.15339 66.0602 21
3 1 3.15056 0.0801779 3.00924 22
4 1 5.56781 32.67 -0.351481 21
5 1 29.5635 6.74789 9.08535 22
6 1 5.66389 1.10754 0.904014 21
7 1 5.46722 30.3713 4.55919 23
8 1 5.77133 32.5502 2.90051 23
9 1 2.89509 5.78464 6.28287 23
10 1 5.93367 3.80223 2.2229 23
11 1 29.3392 26.3425 14.5432 22
12 1 13.3088 8.69108 10.6274 22
13 1 31.8629 30.1609 4.4883 22
14 1 3.02933 0.820698 19.7095 22
15 1 6.2341 33.0347 9.73666 24
16 1 11.3417 4.62698 9.78905 24
17 1 8.21941 11.8685 19.5042 21
18 1 5.2491 13.0415 20.868 22
19 1 18.841 0.616134 16.5074 24
20 1 6.14614 30.2432 11.2107 24
21 1 2.85348 0.597874 6.05634 22
22 1 3.21255 11.6993 -0.481008 23
23 1 5.81301 4.31033 5.713 24
24 1 28.905 0.46499 2.48982 20
25 1 5.79398 7.05465 1.55598 22
26 1 8.1661 9.08887 4.59133 22
27 1 7.87215 31.869 4.87557 21
28 1 2.96022 6.31304 9.31311 22
29 1 10.9532 7.27972 7.8715 23
30 1 32.0622 15.7407 2.98267 21
31 1 2.88413 6.28554 -0.305459 21
32 1 2.78814 17.6672 9.43218 19
33 1 11.1395 18.4844 14.3768 23
34 1 2.71002 20.5421 21.3495 24
35 1 5.28162 10.0266 9.7743 23
36 1 5.75518 4.29661 16.5711 23
37 1 5.29698 15.7317 15.9986 20
38 1 3.13673 5.96342 12.7508 25
39 1 3.1464 20.7063 14.2411 23
40 1 8.40874 20.9594 18.2949 23
41 1 5.27788 15.6593 2.71653 21
42 1 2.93428 20.4058 4.48135 23
43 1 5.824 21.1804 66.1916 24
44 1 31.6962 12.7314 1.24152 21
45 1 29.5964 9.24604 4.51577 26
46 1 5.12661 15.4949 65.7694 21
47 1 3.0455 14.698 11.2481 24
48 1 8.15685 14.7914 4.78368 22
49 1 31.9518 18.5214 4.56413 24
50 1 5.71568 18.7351 14.2756 22
51 1 10.8721 18.695 17.6812 23
52 1 7.9439 17.172 66.0463 21
53 1 13.6424 29.1299 16.2217 24
54 1 8.17469 17.8166 2.74361 21
55 1 13.6931 23.343 19.4297 24
56 1 2.79367 14.6095 4.3538 22
57 1 5.26227 7.27227 21.1775 21
58 1 3.34181 17.6363 12.8836 24
59 1 10.5889 30.5969 4.44247 22
60 1 31.6511 13.0979 24.4975 23
61 1 5.0836 1.79731 64.535 22
62 1 13.7684 6.33351 -0.29423 22
63 1 32.2263 10.0288 6.1867 24
64 1 8.31967 5.93299 2.95409 22
65 1 8.22254 32.0604 1.13803 24
66 1 11.3807 4.43206 65.8097 23
67 1 8.29374 8.66708 1.50581 25
68 1 5.55254 15.4764 9.53154 24
69 1 5.64707 10.1136 3.04473 24
70 1 16.1135 7.00365 14.3047 21
71 1 10.9917 1.01163 7.7316 21
72 1 3.20924 0.441569 16.0834 23
73 1 8.68968 3.08507 1.01058 24
74 1 13.7311 6.09121 9.15792 25
75 1 10.7882 15.8493 2.68407 23
76 1 5.24314 29.8707 1.26181 20
77 1 29.3038 8.97561 17.6311 21
78 1 3.24295 9.32773 21.1432 25
79 1 2.36327 12.066 19.7531 21
80 1 10.9158 1.40529 14.4789 22
81 1 8.08324 14.4241 1.49819 21
82 1 10.4244 7.34766 4.44198 22
83 1 10.8601 15.6502 12.921 22
84 1 5.68138 9.74926 6.3992 22
85 1 5.46957 9.6601 -0.33519 22
86 1 5.4947 12.5783 1.10881 22
87 1 11.0006 10.1409 2.60731 25
88 1 10.972 4.19515 6.24039 25
89 1 8.20613 0.0444703 65.9852 21
90 1 11.0361 1.30185 1.25058 22
91 1 8.23536 14.2826 7.7147 24
92 1 8.34235 11.7873 3.21326 22
93 1 11.0533 10.4937 19.3258 23
94 1 18.7216 6.27972 12.4791 20
95 1 5.83027 29.8159 14.4146 20
96 1 7.9439 12.1455 5.96155 22
97 1 11.0504 12.8937 7.47913 24
98 1 8.3149 23.3206 16.238 22
99 1 32.045 1.41818 11.1619 23
100 1 32.1804 6.90997 1.05795 24
101 1 8.43382 11.179 0.236352 19
102 1 13.6699 14.7681 1.41904 23
103 1 3.44291 14.554 0.961864 24
104 1 10.9127 12.7672 0.913238 23
105 1 10.7183 21.464 6.27218 23
106 1 18.7124 17.6442 9.8488 22
107 1 13.5038 32.4025 1.46397 22
108 1 13.8977 6.05387 5.77602 21
109 1 29.2771 3.24957 14.349 22
110 1 18.7679 14.5938 21.2049 22
111 1 10.8347 24.2366 17.9041 23
112 1 8.054 23.4844 19.8285 21
113 1 10.7558 12.8766 11.0467 23
114 1 29.4078 15.294 11.4924 21
115 1 10.7736 9.89079 9.38118 22
116 1 13.4702 17.6735 15.9488 23
117 1 27.1077 21.357 16.2878 21
118 1 13.2175 9.03772 4.31822 20
119 1 5.32883 18.1677 11.0446 21
120 1 21.3878 12.9103 10.8845 22
121 1 10.8239 1.58332 64.0743 21
122 1 13.9416 2.84667 64.6449 25
123 1 13.3619 5.8818 62.8848 24
124 1 23.5026 0.297435 2.72187 23
125 1 13.7513 3.07081 7.83583 25
126 1 13.506 9.33391 0.902523 21
127 1 5.73185 15.4171 13.1169 21
128 1 24.1069 0.147048 9.41459 23
129 1 11.1281 4.04317 2.84879 22
130 1 21.6563 15.6388 2.97359 25
131 1 3.08601 5.99196 2.89526 24
132 1 16.2526 33.1662 5.8331 23
133 1 19.0231 3.9548 11.2778 24
134 1 18.7238 2.70573 1.32233 22
135 1 20.9923 27.1937 22.9484 22
136 1 24.109 9.27447 7.53432 23
137 1 5.77531 1.45065 11.4281 23
138 1 21.336 33.1855 16.5583 21
139 1 19.0368 8.95064 14.2856 22
140 1 7.93874 29.0563 6.22441 19
141 1 8.26939 6.10476 -0.321022 23
142 1 15.9784 9.70211 65.9478 22
143 1 21.4981 9.69483 66.0943 23
144 1 21.4711 7.20542 17.8973 22
145 1 13.7704 11.6759 2.59541 21
146 1 13.7795 11.9835 16.2881 24
147 1 18.9772 6.26647 -0.319572 25
148 1 26.7569 12.7858 10.7389 24
149 1 10.7225 9.63843 66.0327 21
150 1 18.9889 11.7211 6.34444 24
151 1 13.4415 6.26101 12.5123 22
152 1 3.08583 8.60283 4.12297 21
153 1 13.453 9.28236 18.0572 22
154 1 10.9921 24.5885 11.66 21
155 1 20.9414 10.0052 23.1321 24
156 1 27.044 1.25143 11.366 26
157 1 21.2995 1.42603 4.81716 24
158 1 3.11575 32.4636 18.0927 19
159 1 13.8578 9.20999 14.4932 25
160 1 20.9192 1.63548 8.25534 21
161 1 13.579 12.1505 5.99663 22
162 1 16.1283 15.5178 66.1307 23
163 1 10.577 10.2004 6.11383 21
164 1 18.9578 8.67225 1.23635 22
165 1 10.5137 18.6553 4.59308 23
166 1 31.566 18.8788 8.0526 22
167 1 21.7274 13.0055 7.71336 23
168 1 21.1169 12.7617 1.03564 21
169 1 8.13493 14.605 10.9456 21
170 1 10.9346 18.7033 11.0593 23
171 1 21.7026 18.5355 4.37519 23
172 1 19.0099 6.21823 2.83794 23
173 1 15.9913 10.298 6.2893 21
174 1 21.4814 13.1843 4.59054 23
175 1 24.2009 23.3557 19.1436 21
176 1 8.04595 17.2795 9.12621 22
177 1 5.66544 9.85916 16.0525 23
178 1 8.14416 32.3605 21.4182 24
179 1 2.85139 11.9022 16.186 22
180 1 10.7027 15.9427 6.27324 22
181 2 30.8096 3.37853 4.61271 24
182 2 31.1309 31.5264 63.911 19
183 2 4.73736 6.17325 6.05941 24
184 2 5.22117 5.31464 3.19914 20
185 2 2.16117 1.06303 1.22605 23
186 2 5.05732 -0.0856805 2.20314 22
187 2 2.24208 26.8543 66.1187 24
188 2 10.4676 31.7273 11.2017 21
189 2 31.3155 11.8613 16.3839 22
190 2 12.6947 21.4793 6.33057 26
191 2 15.8484 6.06593 6.61228 19
192 2 26.3343 20.5163 17.7874 23
193 2 2.27269 4.00584 16.0215 24
194 2 7.46212 1.55675 17.5117 24
195 2 29.3025 30.143 17.8891 20
196 2 7.55435 33.3859 20.0836 23
197 2 18.2782 30.6569 14.3848 21
198 2 10.104 32.2604 7.57954 24
199 2 7.30477 7.16921 14.6532 24
200 2 28.6965 18.638 14.7947 21
201 2 2.08672 9.49997 66.0609 24
202 2 2.0854 4.08284 5.9326 24
203 2 2.28796 6.52377 64.5447 22
204 2 5.16204 6.03146 -0.161229 22
205 2 4.21755 12.7276 2.53345 19
206 2 5.02452 8.92662 1.39894 23
207 2 5.27745 17.4772 12.951 22
208 2 2.30271 1.72354 7.80804 23
209 2 10.5919 8.91347 14.4022 22
210 2 28.7199 30.025 7.59435 25
211 2 28.5619 15.654 6.2162 25
212 2 7.63936 19.0709 17.8301 21
213 2 15.4367 3.5212 14.9468 23
214 2 31.3095 6.41348 6.06402 23
215 2 20.6014 32.0449 21.507 22
216 2 4.96832 3.02017 14.9676 24
217 2 2.2421 15.97 8.76617 20
218 2 29.1443 7.47626 21.6041 20
219 2 23.433 1.74868 10.6352 23
220 2 15.4428 4.32322 18.0975 21
221 2 29.141 9.50339 9.3146 23
222 2 5.00563 11.6103 -0.422508 24
223 2 4.82644 17.1736 9.46354 22
224 2 7.5432 15.7625 12.5607 23
225 2 7.57406 4.44928 12.9555 23
226 2 4.81962 17.2474 5.89015 22
227 2 31.2851 11.6017 -0.264447 22
228 2 28.7836 4.19002 9.75165 22
229 2 9.8891 20.7458 7.68441 24
230 2 7.61211 10.1643 6.13263 22
231 2 31.3407 14.8121 1.26904 21
232 2 2.50084 7.06991 1.33287 22
233 2 7.40031 7.20427 7.80918 23
234 2 31.4274 14.9424 18.0721 23
235 2 31.9198 6.11509 19.7239 21
236 2 7.46802 10.2891 8.96884 22
237 2 5.69683 28.9797 16.3113 22
238 2 10.6989 28.935 13.1026 21
239 2 2.40409 15.8825 16.3643 21
240 2 4.9571 20.3457 11.1069 23
241 2 7.68981 6.83082 1.40442 24
242 2 4.9179 0.625484 6.04973 22
243 2 13.2254 30.893 7.77697 21
244 2 10.3817 8.69218 1.25343 22
245 2 28.6221 4.46757 2.73545 23
246 2 7.57703 0.699962 0.988671 23
247 2 10.6792 29.4094 9.10308 23
248 2 18.5507 7.35647 11.0752 21
249 2 28.671 7.31411 7.41289 23
250 2 10.5353 0.127748 2.65362 23
251 2 17.5519 4.37809 22.3522 23
252 2 23.9321 4.21994 16.4494 20
253 2 15.3364 8.47804 4.62616 22
254 2 3.16756 27.4003 5.78833 21
255 2 10.783 0.789942 12.5474 21
256 2 13.2066 6.99915 7.59365 23
257 2 12.5999 4.39592 19.8041 24
258 2 7.68037 30.43 21.2772 23
259 2 10.201 26.0796 4.76094 22
260 2 17.9933 30.1217 4.5822 24
261 2 2.20773 9.87438 2.62727 24
262 2 2.15635 12.9495 0.915614 24
263 2 15.473 14.8707 7.6797 24
264 2 18.0054 1.62079 4.32206 22
265 2 5.01204 8.70711 4.32298 21
266 2 15.5772 0.336346 -0.365156 23
267 2 4.89329 14.5233 14.6082 23
268 2 13.0503 12.667 1.01289 22
269 2 7.83483 15.9494 3.27017 20
270 2 20.6828 11.9329 9.26168 22
271 2 7.7787 7.43176 10.7221 22
272 2 26.2588 0.709326 9.49839 21
273 2 31.3869 8.65708 1.17363 21
274 2 10.2813 32.3345 1.1835 22
275 2 13.2981 4.12235 9.23701 22
276 2 31.4232 15.0279 4.56494 19
277 2 16.4571 18.1307 19.5479 22
278 2 20.8564 3.06729 14.6187 24
279 2 15.6175 11.9704 6.06896 20
280 2 10.3435 14.6109 7.75021 25
281 2 7.96411 15.1371 -0.242017 18
282 2 10.3995 14.5821 1.36124 20
283 2 5.00682 14.9378 4.37151 22
284 2 10.2992 14.8024 64.5919 22
285 2 2.29266 13.1084 7.79672 24
286 2 23.0853 10.0949 2.77496 25
287 2 18.0797 18.5167 8.05966 23
288 2 18.5487 12.8615 4.84809 20
289 2 7.33249 12.5613 7.57035 25
290 2 10.2798 9.28745 4.22324 20
291 2 2.41507 15.9493 23.0038 25
292 2 12.6906 12.637 4.04924 23
293 2 22.9631 18.6584 10.4581 24
294 2 10.3718 17.9648 12.7443 22
295 2 20.5674 6.35172 22.9943 24
296 2 15.2283 0.563791 13.2389 23
297 2 15.6298 0.364434 5.83361 24
298 2 20.8471 0.148483 22.8375 21
299 2 31.0608 3.46188 7.72424 23
300 2 15.0447 9.29151 28.0864 25
301 2 9.96863 6.0528 62.6869 24
302 2 13.2108 4.3751 2.99983 21
303 2 10.2913 5.89517 2.90134 23
304 2 31.6244 8.98514 4.63086 24
305 2 20.786 11.8742 65.8727 23
306 2 26.1346 0.269958 5.85894 23
307 2 13.3216 4.48305 66.184 20
308 2 23.2754 1.42573 64.2758 23
309 2 18.247 1.27281 64.3328 22
310 2 13.3338 1.14833 7.81353 22
311 2 7.73258 4.26161 19.5388 22
312 2 13.2341 32.8914 6.34967 22
313 2 31.2266 5.91426 3.08071 24
314 2 23.3464 32.9324 16.4536 22
315 2 31.2503 0.557557 9.47473 20
316 2 15.8273 11.8064 9.48674 20
317 2 18.0255 1.57354 21.1862 23
318 2 31.1383 14.7347 14.828 26
319 2 18.6625 1.43486 8.40081 19
320 2 15.6374 29.105 3.0104 22
321 2 13.074 9.96947 65.8983 26
322 2 12.8848 1.23887 64.1992 22
323 2 15.5227 14.574 1.25538 22
324 2 20.1328 8.98722 64.6933 23
325 2 7.88947 18.7116 14.3801 18
326 2 13.1554 7.49156 1.08854 22
327 2 20.8797 6.25279 9.60277 24
328 2 15.7792 3.27215 8.06511 21
329 2 9.94947 12.0122 2.45576 22
330 2 15.2506 9.13532 8.01409 23
331 2 5.21097 20.6982 7.8222 20
332 2 18.4403 15.5087 6.35758 22
333 2 9.90285 17.6748 6.6012 24
334 2 13.2375 9.9421 2.66701 19
335 2 15.7843 0.981151 16.779 23
336 2 28.7652 18.3361 21.1806 26
337 2 5.12011 0.666129 9.49163 22
338 2 28.5453 12.9714 11.0332 23
339 2 16.0455 15.2437 11.2787 22
340 2 20.4037 26.2736 7.89717 25
341 2 26.0049 2.78084 7.89109 23
342 2 15.2581 14.836 17.8592 23
343 2 21.3927 14.8568 8.17024 24
344 2 15.9159 11.9651 66.1505 23
345 2 20.7867 0.280024 9.72568 21
346 2 15.3112 20.541 7.94698 23
347 2 10.6795 26.8359 64.6059 21
348 2 15.5709 0.532764 2.73691 24
349 2 4.618 23.4417 22.9011 23
350 2 31.3347 11.742 6.0242 20
351 2 20.9543 12.2431 6.18521 22
352 2 25.9447 14.9288 4.86716 24
353 2 18.075 33.4316 16.1913 23
354 2 20.9389 9.06709 1.08459 23
355 2 10.3117 14.8632 4.39588 23
356 2 15.9469 11.7637 15.9938 19
357 2 15.7312 17.5388 9.44785 22
358 2 20.218 3.8348 4.37363 23
359 2 18.0749 1.9602 11.5421 22
360 2 23.4447 18.7421 14.6036 22
361 1 26.5167 32.9377 6.10382 21
362 1 29.634 3.80566 11.3878 22
363 1 10.8788 12.6812 24.0123 23
364 1 5.13862 6.8889 14.5649 22
365 1 10.8296 27.5264 19.5627 22
366 1 32.0027 33.3795 26.3268 23
367 1 18.648 0.732815 10.1327 21
368 1 5.72998 33.0618 29.9352 21
369 1 31.9331 1.39483 14.0749 22
370 1 13.4376 3.59662 1.0112 22
371 1 5.27895 6.69753 31.379 21
372 1 5.78672 4.55847 19.2227 22
373 1 5.47236 4.3469 22.6659 24
374 1 21.3804 33.1468 26.4954 23
375 1 2.84744 6.22929 22.8289 23
376 1 10.8542 4.52746 22.9963 23
377 1 2.93493 6.58146 29.4885 23
378 1 7.83821 17.4034 22.5552 20
379 1 8.05814 3.33813 31.0322 23
380 1 2.80225 0.405386 29.7162 22
381 1 8.03983 11.9483 15.8717 22
382 1 15.7435 7.02671 24.7336 21
383 1 13.3944 14.4816 14.4924 21
384 1 32.3613 4.51313 22.1705 21
385 1 32.1116 1.6638 17.6779 24
386 1 5.23207 4.35126 25.7301 23
387 1 16.1564 21.4439 19.6019 22
388 1 8.61939 11.8068 12.7206 23
389 1 18.7491 5.9001 19.3874 22
390 1 13.8985 11.7193 19.5283 24
391 1 5.30513 10.1019 19.5474 21
392 1 5.5218 1.62183 24.6098 23
393 1 31.6221 4.13065 26.1764 20
394 1 7.74846 20.5299 27.6665 20
395 1 2.51972 9.32507 27.8551 19
396 1 31.7443 13.3102 21.0331 22
397 1 3.03713 29.581 26.3133 24
398 1 29.083 8.82827 31.4708 20
399 1 5.03004 7.2651 27.7489 23
400 1 31.8059 13.1066 31.0456 22
401 1 2.87728 15.0978 27.9609 22
402 1 13.4815 15.0647 11.1257 22
403 1 8.20421 20.0489 11.0371 22
404 1 8.17647 9.11454 17.6122 23
405 1 16.0995 12.9094 7.79705 23
406 1 10.761 24.2477 4.4496 25
407 1 5.49723 12.4141 17.6903 22
408 1 5.58948 1.91627 28.2496 23
409 1 15.9898 9.97712 23.1734 23
410 1 16.1558 10.0577 19.6093 23
411 1 26.7385 12.9312 27.9303 24
412 1 2.97924 14.7761 24.4902 23
413 1 28.9221 14.7921 24.6376 22
414 1 31.5808 21.4617 23.3036 23
415 1 3.0091 20.4831 31.292 22
416 1 11.2505 9.83772 16.0597 24
417 1 4.89176 18.6978 27.7326 20
418 1 5.6047 10.2373 26.1816 21
419 1 29.2877 12.4387 26.2299 22
420 1 2.67272 15.0253 31.0231 20
421 1 2.87295 32.637 24.6282 20
422 1 16.3479 4.41967 13.0625 23
423 1 8.87326 26.1007 8.39157 21
424 1 23.6188 26.2882 20.8773 21
425 1 21.4062 7.11532 11.3928 20
426 1 8.67028 32.233 11.0511 22
427 1 13.6718 11.6451 12.6311 23
428 1 21.2933 27.086 19.6019 20
429 1 11.0896 7.1805 13.9977 22
430 1 13.6075 0.409618 9.94645 23
431 1 11.0537 33.502 26.3608 25
432 1 18.8767 9.18713 17.8458 22
433 1 21.8415 21.7914 19.7402 24
434 1 7.94316 3.54134 21.3693 20
435 1 10.5947 30.1223 31.7149 22
436 1 24.1479 0.589971 26.3163 24
437 1 13.5769 31.9318 27.9762 23
438 1 10.98 4.75874 29.4691 22
439 1 16.1765 9.82524 26.317 25
440 1 13.8666 3.3232 24.5477 25
441 1 26.9221 3.76456 9.72927 22
442 1 7.9427 6.34689 12.56 22
443 1 13.2704 8.9745 7.71428 20
444 1 10.7878 10.6212 26.1207 22
445 1 26.5322 32.8533 9.32958 22
446 1 10.7985 15.7714 22.6404 22
447 1 31.9647 7.60014 24.3449 24
448 1 29.504 17.4762 16.3531 23
449 1 32.1275 7.31295 21.1489 22
450 1 13.4247 14.6013 21.1783 24
451 1 12.9333 6.26231 23.0287 20
452 1 13.4503 9.29831 21.4487 23
453 1 13.2233 3.2837 28.073 21
454 1 16.32 15.8769 29.5896 23
455 1 11.3051 4.26959 26.3328 24
456 1 16.0177 1.56958 24.7282 22
457 1 8.26711 3.4864 17.9046 22
458 1 31.7891 6.92598 28.0835 20
459 1 8.08657 6.12827 29.3982 24
460 1 10.5123 4.54661 32.5526 22
461 1 8.16175 11.9446 22.5932 22
462 1 5.67968 7.13104 10.6668 22
463 1 13.5791 17.2978 29.7397 24
464 1 18.7144 6.43619 9.34679 23
465 1 7.96436 8.993 28.5762 23
466 1 15.9339 24.3825 17.9855 22
467 1 16.2201 12.6969 27.833 22
468 1 13.6439 6.30493 26.0338 23
469 1 5.76104 10.2134 22.8888 22
470 1 2.44544 5.89212 16.3803 22
471 1 29.2895 9.59625 24.8488 21
472 1 13.4474 26.2111 24.6383 22
473 1 13.6084 6.51825 19.5013 24
474 1 8.22137 17.7352 19.0053 21
475 1 16.1925 13.3404 31.1939 23
476 1 8.11665 3.57377 27.8569 23
477 1 5.28407 10.1581 29.7619 23
478 1 8.23151 17.8395 25.8618 22
479 1 10.5542 18.4652 27.8469 20
480 1 10.6465 15.4304 26.0082 21
481 1 18.4659 29.6157 9.27713 21
482 1 16.1889 3.92624 9.69349 21
483 1 10.8126 1.6105 17.9015 21
484 1 10.8186 33.3216 13.0782 23
485 1 7.97991 29.3704 19.4889 23
486 1 21.8129 10.041 12.8191 21
487 1 13.3441 11.707 22.7503 22
488 1 18.6892 0.804751 13.2175 21
489 1 13.6004 3.3449 4.70186 23
490 1 18.8434 3.54383 24.8897 24
491 1 8.55464 32.0109 14.2492 21
492 1 19.0527 0.681843 25.6761 21
493 1 21.5547 1.30799 24.2927 22
494 1 10.515 7.50701 31.1373 23
495 1 24.3932 6.7109 26.5465 22
496 1 21.5762 1.40764 27.8327 24
497 1 16.0509 32.8677 29.8483 23
498 1 5.2271 4.26945 29.0927 23
499 1 13.5654 3.39966 31.297 25
500 1 15.8598 1.45742 31.265 21
501 1 5.65604 33.1373 16.144 20
502 1 21.4537 10.2383 15.9904 22
503 1 8.18624 6.07971 19.183 22
504 1 10.8104 33.2125 22.8692 24
505 1 31.6969 7.05646 11.3591 23
506 1 13.4197 14.7013 28.188 23
507 1 10.9355 4.4401 19.8645 22
508 1 2.87554 6.19798 19.5598 24
509 1 8.11914 32.0591 31.2076 22
510 1 19.0492 11.5745 22.2735 23
511 1 16.27 13.0523 18.083 23
512 1 10.5982 30.4306 18.149 21
513 1 18.5931 31.7121 28.4581 18
514 1 21.1799 9.64507 26.6536 23
515 1 16.0302 30.1095 27.9966 22
516 1 16.0067 7.46212 27.7474 22
517 1 10.6636 10.3844 32.8073 21
518 1 13.2772 9.12483 31.1773 22
519 1 8.02744 11.7824 29.7091 22
520 1 13.4564 6.14337 29.554 23
521 1 3.11505 3.50276 10.9086 22
522 1 19.018 11.7955 12.5617 20
523 1 16.3223 12.915 24.7598 23
524 1 2.77706 14.9002 21.3181 22
525 1 21.4478 33.1075 19.7296 24
526 1 3.15733 23.5667 9.07155 21
527 1 13.8853 17.6336 13.0906 24
528 1 10.8574 4.43157 13.176 23
529 1 13.3323 20.6968 14.4441 23
530 1 2.55693 6.32834 26.198 21
531 1 5.29707 16.1274 29.52 23
532 1 16.5215 15.6635 26.6543 22
533 1 13.6442 12.0198 25.7714 24
534 1 19.0536 14.7667 27.4712 23
535 1 31.929 10.1841 26.3757 20
536 1 16.2222 4.40365 29.4687 22
537 1 10.6733 18.2704 31.1321 22
538 1 18.6685 26.5026 11.0062 24
539 1 10.5499 13.4428 31.2582 22
540 1 5.55438 13.0065 31.4195 21
541 2 28.7665 21.318 6.00382 22
542 2 9.74539 28.937 26.2481 24
543 2 15.3328 25.6132 21.1687 23
544 2 7.43206 18.4345 10.8827 24
545 2 7.56957 33.2238 26.4244 22
546 2 4.72209 3.47963 11.6524 20
547 2 31.6533 31.7436 21.2741 20
548 2 13.0121 1.49594 11.3997 23
549 2 29.0846 1.10396 31.2026 19
550 2 5.40954 31.8332 14.5723 20
551 2 4.7155 6.32492 29.4129 23
552 2 2.46211 16.1785 19.214 21
553 2 7.42897 33.3865 32.5337 24
554 2 7.96668 30.4706 27.7418 21
555 2 7.28727 24.5279 21.6969 24
556 2 30.9789 23.9885 26.3263 23
557 2 10.0709 0.341077 29.2779 22
558 2 31.2702 32.0499 27.6796 22
559 2 5.3666 5.98509 33.2772 21
560 2 31.7355 6.19038 33.0493 20
561 2 2.18637 15.6795 25.9404 23
562 2 26.1199 8.76366 7.56949 23
563 2 15.9041 6.59065 15.9863 20
564 2 31.1355 23.809 15.993 22
565 2 4.63244 3.27566 27.4438 22
566 2 17.9258 9.35707 22.9248 23
567 2 28.6518 4.38282 26.1652 24
568 2 4.90726 18.0192 19.4556 23
569 2 12.8098 13.2879 24.5774 24
570 2 15.4832 6.24637 26.3895 24
571 2 7.54202 27.3694 29.3043 22
572 2 10.3862 32.1724 24.4305 22
573 2 12.7343 24.0857 21.0108 23
574 2 9.96837 6.48328 29.3477 24
575 2 2.4914 6.76903 34.7124 22
576 2 7.5739 12.8188 24.3911 22
577 2 7.58188 9.97675 29.9977 21
578 2 4.98976 12.0657 9.59678 21
579 2 31.3254 3.14621 24.3545 22
580 2 2.51029 10.2001 22.7527 22
581 2 7.53283 27.5804 22.9454 24
582 2 29.2074 7.17255 14.7465 22
583 2 13.0904 21.5256 19.5069 22
584 2 15.4853 26.4034 10.9356 21
585 2 4.75143 6.189 22.848 23
586 2 7.52855 9.94984 15.8171 22
587 2 9.76477 26.3748 14.1227 22
588 2 2.33973 12.9463 14.4425 22
589 2 21.227 17.4268 26.2261 22
590 2 12.7155 15.9047 23.1899 21
591 2 31.5171 3.61395 17.5721 21
592 2 31.2715 9.45056 24.694 23
593 2 28.4761 9.68389 16.285 24
594 2 26.2248 5.69051 29.8158 23
595 2 31.2984 0.687157 26.3753 22
596 2 31.1432 11.921 26.3187 22
597 2 31.6521 9.36022 21.5158 20
598 2 5.01456 9.22709 21.1693 22
599 2 4.7349 6.18019 26.1602 22
600 2 10.2143 12.2511 22.4264 23
601 2 10.4821 6.37884 6.31899 22
602 2 10.8985 26.0197 7.9237 21
603 2 8.15712 18.8892 20.5585 23
604 2 7.36326 7.04814 27.8033 22
605 2 20.768 32.0401 11.3277 22
606 2 5.24499 0.304334 12.8488 23
607 2 31.393 0.784346 16.0588 22
608 2 18.1268 27.82 16.1379 22
609 2 10.0021 32.145 18.0287 22
610 2 12.889 1.20083 14.8219 22
611 2 2.42822 33.0741 19.8048 21
612 2 10.0265 9.18823 31.3255 23
613 2 23.5432 12.9046 24.1549 23
614 2 7.31922 27.346 26.6156 22
615 2 15.5349 3.34758 31.1261 24
616 2 12.8496 10.2943 29.2005 20
617 2 9.86207 32.0586 31.507 23
618 2 20.5719 24.1316 13.0681 24
619 2 18.4349 4.40692 13.0506 22
620 2 13.157 1.30838 27.92 23
621 2 10.5851 12.327 19.1749 21
622 2 7.47149 30.0382 4.56551 23
623 2 12.8904 9.89846 12.4082 23
624 2 4.71002 3.40626 24.0774 22
625 2 2.51035 33.4002 26.4564 23
626 2 13.305 4.00356 23.0341 21
627 2 13.1248 7.42909 14.1795 22
628 2 10.6143 20.4495 21.4415 22
629 2 13.1795 4.23216 26.1188 21
630 2 13.308 30.2444 18.0131 22
631 2 17.7472 24.4646 24.6039 22
632 2 10.2889 23.3533 29.6572 24
633 2 15.7374 23.4007 16.1865 23
634 2 9.96183 6.31174 32.9579 22
635 2 18.434 33.3244 25.7101 21
636 2 12.9738 33.1823 29.7537 24
637 2 4.78129 14.8117 27.6062 22
638 2 10.4948 31.9858 21.3536 20
639 2 4.97727 3.63387 34.5935 22
640 2 10.1981 12.1246 29.6625 22
641 2 4.93103 32.4436 8.01342 21
642 2 18.9008 9.76294 15.9058 19
643 2 15.4408 9.07911 20.9398 22
644 2 5.00633 14.7015 11.2697 22
645 2 4.95251 11.9341 16.0015 21
646 2 31.109 32.682 18.0189 21
647 2 10.259 9.80757 17.6746 21
648 2 10.4841 17.9789 16.1779 20
649 2 31.0591 20.3932 21.7581 22
650 2 12.6939 7.3482 24.8504 23
651 2 15.6297 15.1873 34.2177 22
652 2 12.5369 6.77361 27.9646 23
653 2 4.47594 15.2886 31.4698 21
654 2 18.1775 3.9975 19.4512 20
655 2 4.75376 20.8619 31.1917 23
656 2 10.3918 23.6768 26.3324 22
657 2 2.32175 21.9961 26.2056 21
658 2 26.0995 9.31914 27.6989 21
659 2 2.92918 10.0592 33.0805 19
660 2 12.412 12.8914 31.4268 25
661 2 12.8431 32.5645 12.8608 22
662 2 18.1074 15.8939 22.8516 23
663 2 12.5185 6.68604 10.5349 25
664 2 12.4205 9.87044 22.6957 27
665 2 12.6897 1.20253 24.7094 22
666 2 20.5768 9.72801 21.3155 21
667 2 9.73405 0.278326 22.9113 25
668 2 20.514 32.2869 18.1583 23
669 2 2.28344 4.75427 29.4084 22
670 2 26.0498 3.7934 27.605 21
671 2 26.0274 12.2199 19.4458 23
672 2 13.2493 12.5665 14.4123 20
673 2 21.272 9.11258 14.4952 19
674 2 20.1304 8.75504 27.9107 23
675 2 15.6891 0.313859 26.2226 22
676 2 20.9543 6.08033 29.7801 23
677 2 17.9975 0.96634 31.0224 22
678 2 15.4583 6.61484 32.5873 24
679 2 18.118 29.9451 28.1965 21
680 2 12.8155 4.15059 29.789 23
681 2 2.2331 1.41052 21.203 23
682 2 17.9749 1.61508 17.6937 23
683 2 15.8299 9.21524 14.259 21
684 2 18.1079 7.09298 14.2427 21
685 2 10.1136 3.59173 30.7528 21
686 2 18.4021 27.3074 3.00168 23
687 2 10.5143 3.12713 8.21395 21
688 2 23.5404 12.9988 10.9267 24
689 2 2.47723 18.7247 14.3773 23
690 2 17.876 2.04374 24.3815 21
691 2 10.3661 3.30601 24.2813 22
692 2 7.70557 12.7531 14.1085 22
693 2 30.9145 6.10005 12.9184 24
694 2 12.6724 10.5366 26.2268 21
695 2 2.35597 18.6828 24.5513 24
696 2 21.1627 14.4129 27.4231 24
697 2 17.9315 33.0468 29.8127 22
698 2 28.68 10.2538 22.9243 23
699 2 12.3463 4.32266 32.6872 26
700 2 20.8546 9.2062 31.2727 21
701 2 20.8169 11.5774 26.0186 23
702 2 7.74482 32.3982 2.87474 22
703 2 5.1058 3.70118 7.64895 20
704 2 23.2517 10.2871 8.89951 22
705 2 2.17352 24.1197 21.4667 21
706 2 15.5968 11.7098 26.2296 22
707 2 10.0496 9.45103 20.6637 21
708 2 16.0884 3.69699 24.8908 22
709 2 15.6417 20.4564 17.6397 23
710 2 18.3344 12.5393 27.4643 21
711 2 18.2904 33.1526 19.7326 23
712 2 7.14393 15.083 16.1272 19
713 2 20.5835 23.8591 16.2906 22
714 2 9.82636 14.9941 20.96 25
715 2 8.04708 9.99796 23.0607 21
716 2 12.7642 18.6257 24.4842 23
717 2 12.6636 21.4891 22.9001 22
718 2 12.7716 10.0454 32.6716 22
719 2 13.031 13.0237 27.6086 21
720 2 17.7 6.95863 24.7146 26
721 1 5.68865 15.7461 62.47 22
722 1 12.7813 17.5186 6.60883 22
723 1 5.37188 18.4847 1.08926 20
724 1 5.34735 18.3662 7.96934 24
725 1 5.11228 24.4735 4.65175 23
726 1 15.7087 30.664 7.68664 22
727 1 29.3548 14.7483 4.84155 21
728 1 31.8203 15.8292 6.70796 22
729 1 11.2676 30.0273 14.8711 21
730 1 2.98293 17.8488 -0.521794 22
731 1 5.99937 1.56449 14.4819 23
732 1 8.4184 17.6284 12.5324 24
733 1 2.80097 17.8557 6.35796 22
734 1 13.3251 23.5347 9.63536 27
735 1 3.04034 14.896 7.68178 22
736 1 10.7121 24.1365 7.77234 23
737 1 11.1255 21.5187 2.95194 26
738 1 29.4534 29.0404 23.0443 21
739 1 2.82473 9.16822 7.78112 21
740 1 7.92624 23.3973 22.951 23
741 1 31.6804 18.7144 0.969215 22
742 1 29.3966 23.2852 2.79987 23
743 1 29.2886 26.1178 1.28244 24
744 1 8.26614 23.2385 65.9026 21
745 1 5.59635 21.6066 2.96177 25
746 1 31.6955 21.5253 12.929 21
747 1 31.7363 4.56165 6.00302 23
748 1 29.1485 20.4736 4.31624 24
749 1 29.4282 32.0702 1.37288 22
750 1 5.64166 27.1529 13.0991 21
751 1 31.9581 33.2746 15.7731 22
752 1 2.61325 20.8521 7.63364 21
753 1 10.9479 21.7408 23.1045 22
754 1 31.9322 15.6509 12.8053 21
755 1 2.94254 29.2589 6.15144 22
756 1 2.97478 20.7169 24.7233 22
757 1 5.29602 21.5809 16.1947 22
758 1 5.06264 24.5919 27.6044 23
759 1 22.1424 16.0052 15.5732 23
760 1 5.79142 24.2291 18.1956 21
761 1 31.4446 33.0669 65.925 21
762 1 2.73528 31.5059 64.0802 23
763 1 8.43844 0.410445 2.74687 23
764 1 2.94292 26.0869 1.20437 22
765 1 8.30613 29.285 3.01979 22
766 1 5.56512 30.3172 7.94013 21
767 1 31.4615 30.154 1.49295 22
768 1 29.2647 29.2244 6.0602 24
769 1 26.7972 24.1534 1.13911 26
770 1 2.92179 26.1901 10.8798 22
771 1 2.55448 31.8468 4.80607 22
772 1 7.97239 32.5031 7.6739 21
773 1 13.3777 23.2543 6.35806 24
774 1 8.08079 26.0297 4.92936 20
775 1 24.0457 29.2923 9.21355 23
776 1 10.9046 30.0555 11.5803 22
777 1 5.81664 1.54045 21.2156 22
778 1 8.72532 0.614018 9.50789 24
779 1 2.93757 3.20854 17.5805 22
780 1 31.6454 32.82 22.8594 20
781 1 10.6552 18.999 1.57186 23
782 1 16.4782 27.2167 66.3444 25
783 1 13.2938 20.4369 4.74768 24
784 1 10.7683 15.5922 -0.369244 23
785 1 15.8464 18.5525 7.81529 21
786 1 5.59884 24.5323 11.6328 21
787 1 16.2021 15.6339 2.8438 21
788 1 13.8083 32.7283 8.10957 23
789 1 10.7802 12.8257 14.4739 23
790 1 7.81517 20.6365 8.09333 22
791 1 8.02246 17.9695 6.27443 23
792 1 8.6174 23.4751 10.0309 24
793 1 5.82475 27.1783 9.40788 23
794 1 13.0399 26.5137 7.98451 22
795 1 21.3143 15.9149 19.6698 23
796 1 13.6289 3.47849 11.3859 22
797 1 24.0707 17.5524 6.18526 25
798 1 31.845 4.02955 2.73942 24
799 1 15.9314 27.4119 19.4285 22
800 1 8.17808 9.4011 10.9676 24
801 1 10.7971 26.9284 -0.14054 23
802 1 13.233 26.1989 1.54971 24
803 1 3.33505 26.3863 4.1107 23
804 1 10.5724 27.16 3.24372 22
805 1 11.1128 33.1251 5.9098 23
806 1 10.9532 30.3689 7.49844 21
807 1 18.9671 29.0538 66.213 23
808 1 8.30075 20.4989 4.34363 26
809 1 10.7848 24.4718 24.4833 25
810 1 13.391 28.9685 -0.266042 26
811 1 13.6779 32.3034 11.0467 23
812 1 13.4863 28.9472 3.02031 23
813 1 29.0455 14.7857 17.7394 22
814 1 8.16508 23.2838 2.8661 25
815 1 8.55573 29.5873 9.66139 22
816 1 8.01012 32.2164 18.0981 23
817 1 18.9937 3.57681 8.18431 23
818 1 5.49895 33.4289 26.5712 22
819 1 31.9732 24.5328 13.8613 21
820 1 8.21567 29.126 22.4377 23
821 1 10.4309 32.7573 2.92092 21
822 1 10.9652 27.3304 9.42887 22
823 1 13.4906 0.0901339 2.63986 23
824 1 18.8052 0.154818 3.473 23
825 1 11.0412 30.4491 1.20875 22
826 1 10.8335 1.23485 4.34001 21
827 1 2.84329 28.7547 -0.381024 24
828 1 18.8537 25.7977 1.45848 22
829 1 13.3542 26.3696 14.9129 20
830 1 8.41215 26.1977 12.0381 22
831 1 8.00384 26.1828 1.58401 20
832 1 5.47352 1.36223 7.69079 24
833 1 7.8592 23.3057 6.19204 22
834 1 8.14456 0.421649 6.09111 22
835 1 3.05692 3.55667 7.63303 22
836 1 13.6298 29.1941 19.5884 24
837 1 31.543 33.2136 6.2581 20
838 1 5.67174 27.1746 -0.277822 22
839 1 10.8427 27.4692 6.02267 23
840 1 2.43165 31.8437 21.4666 20
841 1 10.6123 21.3144 -0.398243 21
842 1 16.011 19.0726 64.3441 21
843 1 18.4748 17.7679 3.17942 23
844 1 13.4314 23.4623 -0.397422 22
845 1 18.7956 11.8531 -0.242167 25
846 1 16.0398 18.5108 4.39168 21
847 1 16.026 21.5009 9.5077 23
848 1 21.3805 21.4423 9.6729 20
849 1 31.4489 21.2224 2.65513 21
850 1 13.546 26.4882 11.145 22
851 1 16.0944 15.8013 16.1178 23
852 1 19.2936 9.09209 10.5267 23
853 1 18.4794 20.9322 11.6669 21
854 1 18.5395 32.0232 4.83522 19
855 1 10.3718 9.75148 22.5707 23
856 1 16.4208 7.1287 17.9693 23
857 1 16.1051 30.5741 14.6554 22
858 1 18.877 20.5346 4.78198 25
859 1 15.917 21.5115 3.01943 22
860 1 13.4044 0.495399 23.1511 22
861 1 5.40898 18.1768 4.3002 21
862 1 13.3444 26.3284 4.71808 24
863 1 16.0334 30.0433 1.45584 23
864 1 18.3031 20.611 1.11101 21
865 1 16.4229 12.9546 4.60459 22
866 1 21.4448 27.0606 2.89105 24
867 1 18.6275 17.7396 6.31142 23
868 1 26.7212 21.352 6.37621 23
869 1 13.0276 17.5887 -6.12928e-04 21
870 1 15.8779 4.26686 6.39164 23
871 1 13.1687 17.8526 3.00673 22
872 1 23.7455 26.1548 1.03222 23
873 1 13.7259 11.967 9.77358 22
874 1 18.5493 23.2675 6.45077 21
875 1 13.5943 32.0556 24.6714 25
876 1 15.7276 30.2388 24.4313 20
877 1 20.9987 21.2855 2.94024 21
878 1 11.0092 1.78493 10.7795 23
879 1 13.9394 0.358547 16.6994 22
880 1 21.3681 21.1824 6.21077 20
881 1 16.0355 29.8561 64.9507 23
882 1 18.7132 31.6416 64.7424 23
883 1 21.5663 1.23175 11.2869 23
884 1 5.15363 33.3211 6.50064 21
885 1 18.9685 23.3069 66.1659 22
886 1 18.695 12.038 19.6472 24
887 1 16.0392 1.55716 4.55641 22
888 1 16.1064 15.8356 9.57007 23
889 1 13.5292 26.3505 64.557 22
890 1 28.8955 3.45073 1.27397 22
891 1 18.3069 3.23355 4.63774 20
892 1 19.0749 14.5774 14.5466 22
893 1 20.9205 1.26123 0.93617 20
894 1 5.5053 1.19938 18.111 23
895 1 16.0566 1.64914 14.6457 24
896 1 8.39488 29.206 15.8107 21
897 1 16.1272 24.1151 4.36981 21
898 1 21.2544 7.26182 21.4689 23
899 1 8.01689 23.4328 13.0675 22
900 1 8.22798 20.4556 1.19108 25
901 2 4.88334 20.4052 4.65831 21
902 2 5.46067 14.4907 0.77875 23
903 2 4.5925 26.3337 8.10235 21
904 2 1.92926 19.0795 1.04185 23
905 2 10.2823 23.1448 2.96018 21
906 2 4.7724 17.7656 2.5026 22
907 2 28.655 15.8762 13.1533 24
908 2 7.8331 4.00561 6.14776 22
909 2 7.64714 21.4988 12.8841 23
910 2 31.3166 6.43509 9.42522 24
911 2 4.75264 20.3383 1.02009 25
912 2 7.33529 24.3636 1.4072 25