ITEM: TIMESTEP
1000
ITEM: NUMBER OF ATOMS
500
ITEM: BOX BOUNDS pp pp pp
-30.0 30.0
-30.0 30.0
-30.0 30.0
ITEM: ATOMS id type x y z Coordination
1 1 -4.66454 2.31899 -5.55081 21
2 1 3.58502 -0.518263 6.02219 20
3 1 -2.09665 6.27619 7.41517 21
4 1 7.56048 -2.93717 2.71533 21
5 1 -8.32718 -1.98851 2.46818 19
6 1 -4.16619 -1.5281 -7.9091 17
7 1 0.0684719 1.84672 7.94491 23
8 1 2.6257 -3.70487 -5.05319 22
9 1 -8.8966 0.0366608 0.512315 19
10 1 0.987765 1.77638 -8.27987 13
11 1 1.93723 -5.99688 -3.00903 23
12 1 6.02388 0.489235 2.62122 19
13 1 0.4868 5.19374 -5.19546 20
14 1 0.00199055 4.86555 5.19475 19
15 1 2.1066 7.83022 7.97855 12
16 1 -9.50397 -3.74944 0.166622 15
17 1 -11.984 -1.57712 0.282767 10
18 1 7.99102 -0.585274 0.243745 18
19 1 2.61957 0.137315 12.1818 9
20 1 -7.64829 -5.92552 -0.617723 13
21 1 -3.54453 -3.70188 -5.43947 21
22 1 4.56322 -1.15862 -5.22688 20
23 1 4.98412 -6.21592 -3.97711 16
24 1 7.5226 -5.97834 5.94761 16
25 1 -5.52838 6.34647 7.11675 13
26 1 3.00165 2.27253 8.87252 16
27 1 -0.351742 8.01532 -0.603702 23
28 1 -1.94495 -4.06749 -7.93519 13
29 1 -1.39058 6.47926 10.5509 12
30 1 6.29218 -6.02687 2.71353 22
31 1 -3.80724 9.83246 2.20889 11
32 1 -3.43853 6.61349 2.78662 20
33 1 1.361 6.62698 -7.61478 14
34 1 4.97933 9.23813 -0.729799 17
35 1 -1.30521 10.9488 -5.90949 9
36 1 -7.13413 4.75532 -7.42202 13
37 1 -1.59871 11.1164 -0.251848 13
38 1 -0.790265 6.47195 -2.94041 21
39 1 -8.21372 5.9756 0.457149 16
40 1 -1.03573 9.36897 7.99228 12
41 1 -4.42275 4.13921 -8.31965 16
42 1 -6.85142 -7.27403 5.06366 8
43 1 -5.4067 -2.17137 -3.20538 21
44 1 3.7946 -9.05789 -2.84467 14
45 1 -7.1879 0.768129 2.5508 23
46 1 -7.096 0.351695 -2.17818 21
47 1 0.533726 -10.7557 1.75363 14
48 1 6.03854 2.47418 -5.65391 9
49 1 -7.09446 -3.92659 -5.42822 16
50 1 3.12445 4.07586 -6.56349 12
51 1 0.822665 -6.74195 -0.28574 20
52 1 1.57528 12.1771 -1.33899 12
53 1 -10.2489 1.31085 3.37771 14
54 1 2.13258 10.5412 7.22083 10
55 1 1.9479 -0.693167 9.00019 21
56 1 0.722483 -8.52168 -3.91905 16
57 1 7.19579 -1.37058 -6.12912 9
58 1 -0.471976 -8.36019 2.07242 19
59 1 3.19209 -11.1374 3.98046 9
60 1 5.15212 -0.0519256 8.70793 14
61 1 2.66374 -3.02629 6.37116 19
62 1 2.96174 7.48276 0.177364 23
63 1 -6.1784 -8.47528 1.43503 10
64 1 -3.51254 -9.77014 0.462346 16
65 1 -2.29845 -6.60768 0.147035 20
66 1 2.06741 5.78973 -2.65123 24
67 1 2.31997 -5.68546 2.47247 18
68 1 -3.19488 -3.61378 7.15914 14
69 1 -10.0628 -1.17988 4.9577 15
70 1 4.42225 -8.16409 2.98234 16
71 1 -3.39086 -8.10951 3.00843 14
72 1 -1.78607 3.56616 9.67506 21
73 1 -11.4919 -3.43437 3.00339 10
74 1 -1.2762 9.12379 2.36827 18
75 1 -7.10871 6.33573 3.52516 17
76 1 -7.29142 3.77689 9.14088 9
77 1 -8.71859 -1.25804 -4.59566 18
78 1 -8.0004 1.95757 -4.32271 21
79 1 -7.49392 -1.60155 -7.06046 13
80 1 7.42501 -0.189497 6.29159 16
81 1 0.74782 -2.71345 11.3322 11
82 1 -6.55173 1.41638 -7.61494 14
83 1 -10.9126 2.07963 -3.73072 11
84 1 -6.08966 -8.50471 -1.62233 13
85 1 -7.02808 4.0794 5.92991 18
86 1 -3.46807 3.60673 7.03176 19
87 1 -3.75172 6.24335 -2.27963 21
88 1 -1.28552 -10.9182 -3.89084 11
89 1 0.0204225 7.73378 5.70341 19
90 1 4.17975 3.16509 -3.60801 17
91 1 -10.4696 0.391693 -5.84103 11
92 1 -8.56929 4.37795 -2.44579 17
93 1 -1.02075 -11.5829 -0.797717 12
94 1 5.13558 -5.55134 8.05894 13
95 1 -5.51717 5.93271 -5.16426 19
96 1 -4.53461 -0.908862 8.74759 17
97 1 -8.33654 1.45746 6.01967 16
98 1 -1.48198 -7.0152 -5.04367 10
99 1 -0.834794 -1.76176 8.52394 20
100 1 0.364261 -6.77567 6.30115 13
101 1 4.14103 -3.29716 -2.49796 21
102 1 4.18884 4.93692 -0.304078 24
103 1 -5.68414 3.45481 2.90448 22
104 1 0.904952 -1.02586 -5.05791 22
105 1 6.85215 -2.82375 8.22318 14
106 1 -6.14712 -6.36509 -4.80067 10
107 1 -7.9762 -3.69226 4.99815 16
108 1 5.10555 2.25129 6.12881 15
109 1 7.43086 6.39248 -0.24329 12
110 1 -1.30024 4.35751 -7.902 18
111 1 -1.26501 7.63327 -6.82116 17
112 1 4.75837 12.0792 -2.36666 10
113 1 5.31342 6.79842 -2.56348 17
114 1 6.21181 -9.00909 5.40491 11
115 1 7.69142 -6.67587 0.140827 15
116 1 2.74569 -9.99366 0.383199 15
117 1 -9.33227 6.48005 -5.00067 7
118 1 8.8842 1.70829 -1.1015 12
119 1 -2.56573 4.87754 -5.05522 21
120 1 -4.27222 8.88739 -4.43457 11
121 1 -1.15594 -5.60944 -2.51729 24
122 1 4.0856 -6.21069 -0.643274 24
123 1 -6.02962 -3.91597 7.48246 11
124 1 1.39457 -11.215 -2.066 12
125 1 1.22651 -3.7465 -7.88528 14
126 1 2.80829 6.07858 3.10451 18
127 1 8.78894 -7.95828 3.42117 10
128 1 9.15786 -1.46238 -3.08543 11
129 1 -2.27975 -0.677121 -5.13574 19
130 1 0.793874 3.17914 11.4421 9
131 1 -3.15106 4.16944 12.4674 7
132 1 4.76885 -4.06137 -6.74081 11
133 1 -9.88882 3.26618 -0.182053 12
134 1 1.69881 9.09066 -2.36562 22
135 1 7.63813 0.791451 -4.02672 15
136 1 -2.80241 1.50271 -8.75693 12
137 1 -8.5816 3.60151 3.09435 18
138 1 2.06709 -5.16736 8.77028 13
139 1 7.3972 2.67762 4.10038 17
140 1 -9.24908 3.59944 -6.59751 11
141 1 9.4562 -5.1379 2.79301 14
142 1 -0.526847 -8.64357 -1.17203 24
143 1 3.44977 4.98615 7.09913 15
144 1 2.82276 -9.24483 5.58998 12
145 1 5.65006 -3.4832 5.6968 20
146 1 8.35732 5.54036 2.71381 12
147 1 6.05115 -3.77932 0.0302779 22
148 1 6.14776 5.51018 5.47607 11
149 1 -3.04937 -8.60948 -3.12528 19
150 1 2.99175 11.0872 4.12738 11
151 1 -5.32722 3.83069 -2.7946 23
152 1 -4.59733 7.34377 -7.64605 11
153 1 -3.12934 1.12283 8.30575 22
154 1 -7.01432 -2.75593 -0.383734 17
155 1 4.37822 8.2591 6.18035 12
156 1 -4.06667 4.89191 4.64014 20
157 1 -6.9603 2.99552 -0.0118108 21
158 1 4.75424 9.7416 -3.78308 12
159 1 0.580974 5.36705 8.51001 17
160 1 -6.03156 -1.26329 5.14527 22
161 1 -0.475779 -1.0733 -8.6974 13
162 1 -4.70514 1.67961 11.1295 13
163 1 6.30792 -1.2577 -2.66218 20
164 1 4.33166 12.0399 0.546218 11
165 1 3.78867 -6.3425 5.2671 17
166 1 -3.25047 8.05949 5.12119 14
167 1 2.41029 -6.73179 -6.03856 13
168 1 3.99815 -2.58769 9.73955 14
169 1 -0.824593 2.14346 -4.84903 21
170 1 -6.40099 1.61908 8.06022 18
171 1 9.5911 -0.843338 2.69846 13
172 1 0.559632 8.50293 -4.74105 20
173 1 7.26629 3.95724 -2.36961 15
174 1 -1.44062 -0.071136 10.6782 16
175 1 -0.69177 -5.11081 9.1908 9
176 1 -5.26619 5.46821 0.677702 25
177 1 4.52872 9.53735 2.59003 13
178 1 -7.69341 -5.95638 2.76005 11
179 1 9.73556 2.17902 1.96081 14
180 1 -4.28071 -5.73043 -2.45405 18
181 1 9.9906 0.582053 5.0751 9
182 1 6.64434 -8.04947 -2.52519 11
183 1 1.54243 10.0023 1.08874 20
184 1 -10.539 -0.80196 -2.73418 13
185 1 -2.04598 9.43367 -3.17468 16
186 1 1.60908 9.75835 -6.47591 12
187 1 -5.61846 -0.437655 -5.52639 22
188 1 2.65308 -1.24882 -7.65196 14
189 1 -4.10152 -11.2415 -1.961 10
190 1 -0.521172 -10.0815 5.03496 9
191 1 9.33774 -3.47173 -0.342012 12
192 1 -13.4795 -0.753119 3.80419 6
193 1 -1.70835 6.33684 -9.58946 8
194 1 -9.16169 -4.26891 -3.11214 10
195 1 8.99067 -2.93253 5.43434 14
196 1 -5.44484 -4.39276 -7.57516 12
197 1 -6.28539 8.46064 1.5179 13
198 1 -8.14324 -1.2107 7.73674 11
199 1 5.4915 6.17991 2.48617 17
200 1 6.85892 3.54095 1.11899 20
201 1 -4.64012 -4.75756 4.03245 18
202 1 2.30854 1.22399 -5.53142 18
203 1 3.14656 6.96838 -5.12447 17
204 1 -0.121574 10.5616 4.69225 11
205 1 2.07253 11.8376 -4.46114 11
206 1 5.57521 1.48484 -0.908495 21
207 1 -5.15599 1.463 5.57863 21
208 1 7.47891 -4.51122 -2.47114 15
209 1 0.00361524 -4.70284 -5.4184 20
210 1 -4.34072 5.26931 10.1255 13
211 1 -3.73112 8.25741 -0.609948 21
212 1 -2.36763 -6.67562 5.52889 13
213 1 5.34393 -8.66658 0.172959 11
214 1 -5.43845 -2.10894 2.41083 18
215 1 -6.90374 6.84529 -2.20667 16
216 2 -9.73994 -2.83874 3.85115 16
217 2 6.86081 6.27668 3.83629 13
218 2 2.22569 -1.19005 10.9365 14
219 2 -5.74274 -0.380601 -7.78767 15
220 2 -10.4555 3.44803 -2.33184 10
221 2 -1.13147 -8.21522 5.57355 13
222 2 1.41665 3.03775 8.08337 20
223 2 7.75813 -0.136003 2.48109 19
224 2 -5.69542 5.28763 8.84411 15
225 2 -3.984 6.4719 5.8614 17
226 2 4.21881 -5.28514 -2.34811 19
227 2 -4.45094 2.01157 -7.53097 16
228 2 -1.98558 -5.33023 -6.14734 15
229 2 -0.943554 -10.1824 3.2803 11
230 2 -2.96939 8.37989 3.30171 19
231 2 9.50883 -1.20696 5.48481 10
232 2 3.64484 7.79925 2.13395 21
233 2 0.762337 8.97503 7.11941 16
234 2 3.04762 11.0882 1.93188 14
235 2 2.13549 8.07526 -6.61034 13
236 2 5.7688 -2.59004 -6.188 13
237 2 -10.1525 2.50377 -5.43358 13
238 2 2.11805 -7.33327 5.55713 15
239 2 -8.97895 -0.0660666 2.54439 19
240 2 0.755937 -6.49229 -4.84125 17
241 2 -2.77702 -11.2515 -0.42705 14
242 2 4.59047 -0.991051 -3.42936 20
243 2 3.46269 9.17925 7.62666 8
244 2 5.72493 -1.95559 9.32067 14
245 2 -3.6549 -6.54911 4.07276 13
246 2 2.56293 -10.8476 2.16305 12
247 2 -6.54305 -7.70022 3.1229 10
248 2 -4.98644 -9.93827 -1.12192 11
249 2 -6.82266 -2.05134 -5.05929 22
250 2 -2.18574 10.6478 1.57792 13
251 2 2.64064 -0.574021 -5.77586 17
252 2 4.3456 7.42968 -1.20864 18
253 2 2.26509 5.60542 -6.08415 16
254 2 -5.49442 5.82445 -3.21954 19
255 2 8.67354 3.52381 2.49682 14
256 2 0.21545 11.3967 0.118332 13
257 2 -6.64877 6.01433 5.32682 14
258 2 1.54253 10.8946 -2.94561 15
259 2 3.9175 11.3721 -4.16326 11
260 2 -3.12601 4.87334 8.50168 19
261 2 1.85732 1.67921 11.7848 10
262 2 3.05258 -3.01207 -7.0357 15
263 2 -0.537725 -10.5812 -2.27556 15
264 2 0.976473 -2.83491 -5.64126 21
265 2 -5.33653 -2.76672 0.591257 19
266 2 6.84488 -6.17467 -3.14531 11
267 2 4.2803 5.02377 3.07926 16
268 2 -2.54448 -0.371452 -8.73383 11
269 2 1.57611 -0.194622 -8.88489 11
270 2 -2.60959 -6.46518 -3.26558 22
271 2 1.60895 -5.14698 -6.91159 13
272 2 7.74005 -1.33297 -4.26618 12
273 2 -8.60132 -4.9664 1.2809 15
274 2 -0.516464 -3.04347 -8.28144 13
275 2 0.892006 4.57695 -3.38872 22
276 2 -3.11808 -10.6086 -3.43396 10
277 2 -0.82792 2.49944 -8.38504 13
278 2 -4.60203 2.08605 7.63188 22
279 2 -7.08299 -7.43498 -0.0706904 11
280 2 -6.84758 0.608328 4.7942 26
281 2 -4.89291 5.24823 2.51781 24
282 2 -7.31177 -5.42285 4.63793 12
283 2 -12.836 -2.198 2.34931 7
284 2 6.20767 -7.37918 6.31477 16
285 2 6.09285 -0.488485 -0.625575 21
286 2 -3.85504 -1.59866 -5.81156 19
287 2 1.0148 6.31227 4.29472 17
288 2 1.50559 11.2469 5.34454 9
289 2 -1.0467 1.69268 9.84915 17
290 2 -7.24307 2.64051 1.9051 23
291 2 -8.28477 0.22804 -3.57989 19
292 2 8.63789 6.66422 1.22428 8
293 2 -11.074 -3.34016 1.03494 9
294 2 -4.73726 7.66909 -5.86521 12
295 2 -0.448502 0.455006 -5.42486 17
296 2 -6.63192 7.10491 -0.140298 17
297 2 3.4309 -4.8841 6.26422 16
298 2 -0.515146 5.98445 -0.746041 22
299 2 3.01331 -7.99618 -4.3108 11
300 2 2.06127 -9.9074 -3.02804 13
301 2 -6.8558 8.2729 3.2212 11
302 2 0.586085 -6.61264 2.1903 18
303 2 7.5214 -9.04133 4.12346 9
304 2 2.34032 5.92635 8.35405 13
305 2 0.750501 11.2013 -5.63039 9
306 2 -1.34078 -3.527 8.22784 16
307 2 -2.09563 -7.24689 1.95541 20
308 2 -2.85327 -0.739243 7.69828 21
309 2 -0.212877 6.53272 -8.54492 12
310 2 8.44779 0.218686 -2.27702 14
311 2 0.327702 -0.382856 7.96918 22
312 2 -6.3757 -1.40599 -1.69284 19
313 2 5.05074 10.3355 0.726188 12
314 2 4.21853 9.44366 4.55807 10
315 2 7.75557 -4.76131 -0.315284 16
316 2 -7.95993 -4.10541 -1.3849 13
317 2 -1.32916 8.02637 9.36048 12
318 2 3.33059 0.540561 8.84853 18
319 2 2.1039 2.66268 -7.00667 14
320 2 9.45066 -3.5288 3.77477 12
321 2 -0.166442 4.5523 10.4223 16
322 2 6.67297 -4.77197 4.57828 20
323 2 -11.4987 0.22699 -4.22492 11
324 2 -5.41328 3.88843 -0.552228 23
325 2 -8.44712 5.28002 -6.26183 12
326 2 -0.748968 -5.61966 5.0548 16
327 2 3.45617 12.4954 -0.970528 13
328 2 -8.83146 -0.471259 -6.25404 17
329 2 8.70316 -2.08266 1.09876 14
330 2 -4.68191 8.93089 0.802232 14
331 2 8.3117 -6.44391 2.05635 15
332 2 -4.58984 -4.90168 6.34571 12
333 2 -7.87648 -5.41933 -4.21951 10
334 2 -0.280906 8.48588 -2.779 16
335 2 -8.29158 5.70351 2.34332 16
336 2 6.12237 5.24881 0.735725 20
337 2 0.913515 -4.20767 10.0835 12
338 2 -9.8552 2.50223 1.62708 13
339 2 -3.95089 8.23703 -2.73178 16
340 2 -2.86924 5.60308 11.4951 9
341 2 -7.15833 3.17955 -3.24617 23
342 2 5.76125 10.3376 -2.32812 10
343 2 -6.25514 2.27305 10.0014 12
344 2 -1.66848 2.3577 6.86217 21
345 2 -6.98309 -3.36851 -7.47739 13
346 2 -0.758983 6.66833 -5.18773 21
347 2 -2.60759 -8.02622 -0.778805 24
348 2 -4.43039 4.25245 -5.57515 18
349 2 4.35936 -2.25268 5.35815 18
350 2 -0.357882 5.62628 7.03788 24
351 2 7.02015 5.98648 -2.13855 11
352 2 4.24009 -9.4581 4.28663 12
353 2 6.34035 0.379791 -5.62847 12
354 2 4.47056 6.36838 6.0617 14
355 2 -7.80081 1.26052 -0.740076 23
356 2 -6.37095 -0.374158 7.98981 18
357 2 -9.71522 -2.47865 -3.46857 14
358 2 0.0467758 -9.33916 0.433264 19
359 2 0.193599 8.40172 1.2567 23
360 2 -8.36952 3.13865 4.82826 16
361 2 -7.06142 -2.13217 3.8948 18
362 2 1.02374 -11.6523 -0.202235 10
363 2 3.68299 3.07973 7.22051 16
364 2 -2.32383 5.03943 -3.04336 20
365 2 -2.77408 7.20988 -7.99479 12
366 2 4.7917 7.65625 -4.23911 14
367 2 -1.36515 -8.97903 -4.55145 12
368 2 5.93308 0.737168 7.14657 15
369 2 6.10858 3.51406 5.23747 16
370 2 -0.395358 9.28827 -6.63821 13
371 2 -6.55815 1.83174 -5.67293 21
372 2 -3.76561 -3.37716 -7.55412 13
373 2 -5.30469 0.240813 -3.55027 20
374 2 -1.80973 8.25479 6.42729 11
375 2 -2.71003 10.0535 -4.8588 12
376 2 -8.58389 6.24753 -3.23531 11
377 2 -7.79893 2.77166 7.3926 13
378 2 -1.03889 3.95994 -6.07059 18
379 2 3.85414 -5.56163 -5.43328 16
380 2 -8.17214 4.37264 -0.439439 17
381 2 -2.69463 4.75354 -9.34776 11
382 2 2.34622 -5.71481 0.207835 18
383 2 3.21817 -1.83279 7.92187 20
384 2 -4.51657 -2.79414 8.4089 11
385 2 -4.39245 -3.75419 -3.12517 21
386 2 -9.27934 -0.488432 6.31098 15
387 2 6.50945 -4.52372 7.23999 13
388 2 -11.5787 -0.152965 3.94408 10
389 2 -3.61576 0.431287 10.1811 15
390 2 1.59795 -10.6773 4.95882 9
391 2 10.3628 0.801281 3.27089 10
392 2 0.766617 -7.48539 -2.13114 22
393 2 -2.10306 9.76173 -1.29388 16
394 2 -7.73813 3.04104 -7.7706 13
395 2 -7.2529 -2.68939 6.57459 14
396 2 3.83395 -4.50058 9.19641 11
397 2 7.39198 2.78522 -0.957271 18
398 2 4.45537 3.32737 -5.5526 11
399 2 8.36865 1.50333 5.16434 14
400 2 -3.61272 6.24314 -0.16174 23
401 2 7.09448 -2.04046 6.55503 14
402 2 2.0143 -4.24287 -3.33243 22
403 2 -3.91161 -5.66439 -0.625631 19
404 2 6.14497 -3.19355 -2.30027 18
405 2 3.78712 -8.74381 1.41226 18
406 2 5.87311 -3.55474 2.063 20
407 2 5.8627 -5.88998 0.733554 20
408 2 -3.51746 3.14945 10.8115 16
409 2 4.07851 4.9047 -2.55421 19
410 2 -10.6823 -0.636837 -0.751199 12
411 2 -8.26837 -1.9794 0.718452 20
412 2 9.01909 -6.30022 4.6294 11
413 2 1.98248 7.59213 -3.56648 22
414 2 9.25261 0.860556 0.538949 13
415 2 2.21314 5.7541 -0.720414 21
416 2 0.579145 -5.9147 7.96735 13
417 2 3.9112 -6.49302 3.32576 19
418 2 9.35107 -3.19354 -2.09703 11
419 2 4.4542 -8.28333 -1.45464 17
420 2 -5.21824 -4.8934 -5.64144 15
421 2 2.15167 9.25253 -0.475562 19
422 2 -0.347937 8.91119 4.21549 15
423 2 -4.2857 -8.99033 1.91312 14
424 2 -0.373067 -1.4438 10.5229 13
425 2 -5.44993 3.33453 5.10383 23
426 2 6.02817 2.37354 2.42386 19
427 2 6.9136 2.57302 -3.803 12
428 2 -5.38856 5.61535 -7.56823 13
429 2 -5.30074 -7.23392 -3.10994 13
430 2 6.99069 -8.34536 -0.74636 11
431 1 -2.63157 -2.57035 -2.46781 22
432 2 -0.958674 -5.50706 -0.602458 24
433 2 -2.34154 -2.15123 -0.359736 22
434 2 -2.49705 -0.616062 -3.24673 21
435 2 -0.945603 -3.60608 -2.96275 22
436 1 -5.29833 -0.80227 -0.0102769 21
437 1 -4.02891 -4.091 0.200361 15
438 1 -2.52291 -0.337423 0.288901 21
439 1 -0.972716 -3.73787 0.429875 22
440 1 -0.698957 -5.56864 2.99713 19
441 1 -2.3909 -2.37493 2.87154 21
442 1 -2.49551 -0.647243 5.6529 20
443 1 -0.742522 -3.69248 4.93527 16
444 2 -5.6237 -0.221362 1.96867 25
445 2 -4.07177 -3.3972 2.63596 16
446 2 -2.26492 -2.46058 5.0999 19
447 2 -2.60905 -0.409982 2.33149 22
448 2 -0.802956 -3.7066 2.53584 19
449 1 -3.92285 0.604444 -2.4656 21
450 1 -0.693216 -0.147708 -2.18886 23
451 1 -1.93966 3.27286 -2.03083 23
452 2 -4.15599 0.505358 -0.473116 24
453 2 -3.55898 2.5057 -2.84739 19
454 2 -0.764316 0.236162 -0.329108 23
455 2 -2.2988 3.16876 -0.0584264 21
456 2 -0.634771 2.05125 -2.87351 18
457 1 -3.95145 2.39569 0.0273356 24
458 1 -4.05224 0.73055 2.84542 22
459 1 -2.03035 5.18834 0.469282 24
460 1 -0.698672 2.16482 0.290161 21
461 1 -0.771248 0.438156 2.87957 22
462 1 -2.49937 3.71594 2.7564 22
463 1 -1.11164 2.26446 5.15184 21
464 1 0.0831715 6.68903 2.57958 20
465 2 -4.05613 0.193903 4.86673 22
466 2 -3.9715 2.51579 2.4647 26
467 2 -0.95437 0.167428 4.77247 21
468 2 -2.13877 4.29482 4.95801 20
469 2 -1.81039 5.65755 2.12494 21
470 2 -0.724567 2.2883 2.3562 24
471 1 0.786267 -2.8257 -2.25987 21
472 2 0.75517 -3.02031 -0.230807 20
473 2 1.37697 -1.11606 -3.15268 21
474 2 4.13932 -2.74542 -0.580976 21
475 1 0.405996 -1.26666 0.492778 21
476 1 2.49417 -3.76403 0.140773 23
477 1 1.1175 -2.76161 2.9791 21
478 1 0.322105 -0.646489 5.81963 22
479 1 4.52011 -1.18867 0.532679 22
480 1 4.21003 -2.65381 2.94807 21
481 2 0.991158 -2.83531 5.10789 19
482 2 1.32008 -0.838183 2.12563 21
483 2 2.73778 -3.51617 1.98227 20
484 2 4.39338 -0.73149 2.4314 19
485 1 2.7845 -0.192461 -2.25962 22
486 1 1.26496 2.92537 -2.52115 19
487 2 3.1777 -0.104337 -0.367321 19
488 2 1.01798 2.83474 -0.373591 23
489 2 2.54226 2.02329 -3.74454 18
490 2 4.19811 2.46232 -0.0151743 19
491 1 0.842087 4.63792 0.203851 23
492 1 2.45748 1.67453 0.297689 19
493 1 2.72145 0.174478 2.98029 19
494 1 1.13107 3.12833 3.10074 22
495 1 2.34089 2.2191 5.56636 18
496 1 4.42397 3.43842 2.1768 17
497 2 2.24612 0.464373 5.0011 22
498 2 0.648164 3.07608 4.79511 19
499 2 1.18877 5.13424 2.26584 21
500 2 2.83903 2.21249 2.44681 19
