ITEM: TIMESTEP
16000
ITEM: NUMBER OF ATOMS
2000
ITEM: BOX BOUNDS pp pp pp
-30.0 30.0
-30.0 30.0
-30.0 30.0
ITEM: ATOMS id type x y z Coordination
1 1 -7.2794 0.788195 -17.3816 8
2 1 -6.6916 -16.1411 -9.9545 13
3 1 1.73012 12.9228 8.02622 13
4 1 7.08849 -12.2823 2.65756 20
5 1 -12.5518 5.88272 -4.17362 17
6 1 11.6654 -11.2167 -10.2104 15
7 1 -11.9923 1.4909 -8.3647 21
8 1 -4.88592 -7.21878 13.0235 14
9 1 -5.30839 3.34514 -15.5825 14
10 1 -11.6619 -15.1946 7.13694 13
11 1 12.663 -2.0134 -8.54523 15
12 1 -4.95278 -21.6442 -0.428285 6
13 1 -13.9169 -15.6368 -0.47998 14
14 1 -4.46433 -1.31641 15.1325 10
15 1 -2.96481 11.5706 -6.71776 20
16 1 5.35068 -8.93851 10.5755 13
17 1 -9.37339 -4.38663 -9.97795 17
18 1 -12.3331 -1.97224 9.93634 18
19 1 8.62043 2.11346 12.8383 18
20 1 2.48287 10.1452 -12.2769 17
21 1 7.81302 0.296545 -12.9997 18
22 1 13.5409 2.40149 6.66296 11
23 1 -13.0015 1.70057 -11.2648 13
24 1 -10.8425 4.68901 4.30805 18
25 1 2.27116 -11.6642 6.51675 16
26 1 2.37062 -11.8007 -13.4489 17
27 1 8.30929 -17.2663 -2.22599 7
28 1 -13.5644 -14.0011 -6.44943 13
29 1 -16.4392 -10.9171 2.46207 12
30 1 1.78758 -14.3427 -11.9838 17
31 1 5.81157 -11.1854 -17.7942 10
32 1 -2.54098 3.38904 -14.5033 17
33 1 3.1704 1.06625 12.7589 22
34 1 -6.44322 -11.8193 6.64123 17
35 1 6.2903 -8.65775 7.8787 21
36 1 -12.5001 -4.88492 -1.54861 22
37 1 -14.2686 -6.42681 6.53426 18
38 1 -4.52067 8.96353 -1.65043 18
39 1 2.18819 -18.9029 -10.999 10
40 1 3.81086 -7.03484 -12.7591 24
41 1 1.18347 -4.60739 10.107 20
42 1 -12.3119 1.02669 -1.75609 21
43 1 7.77266 12.4763 -12.3411 9
44 1 1.83988 9.06922 4.34245 16
45 1 -8.98957 6.53197 -7.21583 17
46 1 2.24108 8.15863 -2.5721 18
47 1 3.81871 -14.4585 -1.05801 18
48 1 12.4627 -13.7628 -11.3829 9
49 1 6.51045 -7.62125 -18.4835 10
50 1 -8.39357 8.09498 8.72373 12
51 1 -13.7248 -8.76835 -12.5629 16
52 1 -6.40456 4.6178 -7.10373 20
53 1 -9.64922 -8.7721 3.72546 19
54 1 -3.68766 12.6061 3.41127 17
55 1 -13.433 4.35812 -8.64795 17
56 1 -7.0842 10.3937 6.85085 7
57 1 -6.2582 -18.9144 0.904277 13
58 1 8.1094 -18.1508 -6.83289 12
59 1 7.4076 9.05359 11.9432 16
60 1 -15.4962 -4.05203 -10.0301 9
61 1 -9.67353 2.74023 -12.1822 18
62 1 7.79511 5.6783 12.3764 19
63 1 13.4651 -8.06847 -13.9792 7
64 1 8.33415 -13.2481 6.02364 12
65 1 -16.6827 -1.7105 -6.00825 13
66 1 5.14192 12.3387 0.780952 19
67 1 2.56425 -4.42884 15.7893 11
68 1 -5.80046 -13.5348 3.97482 20
69 1 11.0724 1.38671 8.33417 16
70 1 -1.57165 8.57234 7.57767 16
71 1 -6.27489 -10.4636 -8.2687 21
72 1 -9.97988 6.04304 6.76502 13
73 1 -5.17657 9.45401 -5.36855 14
74 1 -0.433342 8.54907 -10.0524 20
75 1 2.94947 13.9511 -4.37336 15
76 1 7.64037 -10.9944 8.59809 13
77 1 -3.38768 14.7307 -5.19533 11
78 1 -12.6187 5.66506 -1.65177 19
79 1 -12.6707 -1.20727 12.9935 10
80 1 -5.05646 6.55272 2.74129 21
81 1 -9.60434 -6.29833 8.74079 23
82 1 11.9368 -13.76 -8.0074 11
83 1 -9.27203 1.80029 3.12632 19
84 1 -10.1358 -17.5269 -2.33078 15
85 1 12.7928 -11.1471 -5.88391 17
86 1 4.7838 0.690987 -15.4107 18
87 1 -9.19839 -1.72886 -15.9978 9
88 1 -1.11038 9.58325 -3.89077 17
89 1 -3.18756 6.47134 -10.1275 20
90 1 2.83238 4.67572 13.3979 21
91 1 -0.0752677 10.0452 -6.91118 17
92 1 -15.865 5.70412 -3.21816 10
93 1 -11.6462 -12.5759 9.40866 10
94 1 8.87863 -4.34359 8.72434 17
95 1 5.37385 -10.931 -11.3633 17
96 1 4.90945 -6.8509 16.5207 4
97 1 -9.30813 -10.8276 -2.60678 21
98 1 -11.9467 -11.949 -4.38736 18
99 1 7.11817 -10.9046 5.00868 21
100 1 7.22398 -1.77407 -14.6588 16
101 1 4.91629 13.39 -1.86598 13
102 1 -9.19053 -14.9453 9.32978 7
103 1 -14.6067 -12.1429 4.94753 15
104 1 1.16499 -10.1568 -20.0952 10
105 1 15.417 -11.423 -3.4793 9
106 1 -3.44783 -13.1887 6.53967 17
107 1 -13.8796 -12.4525 0.907544 21
108 1 14.7757 4.7171 2.60624 11
109 1 11.2917 -5.13207 -10.6139 17
110 1 -14.1912 -9.43546 5.05587 14
111 1 9.4749 3.89268 3.50688 21
112 1 7.75218 9.13886 4.46878 22
113 1 -7.5031 1.4683 9.81449 17
114 1 -4.12592 9.69888 12.1358 13
115 1 -2.35507 11.0549 -10.3419 17
116 1 -2.13246 -7.48579 -13.2716 20
117 1 7.99052 -11.3643 -14.4922 11
118 1 -1.17619 9.79976 -13.0217 16
119 1 6.85858 -6.08498 9.47901 19
120 1 -4.80453 -1.37848 -18.6623 12
121 1 -4.69703 9.35455 -8.40552 22
122 1 11.3006 -6.07696 -7.61328 18
123 1 -11.7898 8.43019 -6.76878 13
124 1 -3.57127 14.955 -1.60978 15
125 1 8.08376 0.720919 -9.70119 21
126 1 7.56533 -10.1416 0.208721 21
127 1 -3.49423 10.3796 8.71464 12
128 1 12.6447 7.09407 -7.89326 16
129 1 6.84663 10.234 -8.88632 18
130 1 -10.0064 13.3127 1.16417 6
131 1 12.2887 11.472 -0.272854 13
132 1 -3.48627 6.08735 -6.7102 23
133 1 1.39841 14.8439 -8.5514 9
134 1 4.13141 4.36834 -16.2213 15
135 1 -10.888 -11.7727 2.68116 17
136 1 -13.4558 7.51219 -10.2003 10
137 1 -7.46363 -8.96939 -13.3018 17
138 1 -0.621155 -13.3182 -14.7092 13
139 1 3.49248 15.114 3.28899 17
140 1 2.84232 12.2096 3.14043 16
141 1 -12.9503 -8.4901 -6.62384 20
142 1 -16.3175 4.53054 0.637783 8
143 1 13.1269 -4.86353 -2.48845 17
144 1 -13.2604 -2.36545 -12.3484 9
145 1 5.06931 -1.64787 16.6367 11
146 1 7.24349 14.9946 1.86447 15
147 1 -3.8967 7.77275 5.95536 17
148 1 -0.274917 -6.85629 -20.9804 10
149 1 0.896986 15.0654 5.84517 11
150 1 3.19235 10.5619 -5.13459 18
151 1 -0.36911 -9.17126 13.0204 14
152 1 -11.1422 -8.28614 1.40025 18
153 1 -4.92691 -16.1297 -12.8394 11
154 1 -4.0591 9.08504 -12.2113 18
155 1 -3.8627 -11.2039 3.63891 20
156 1 -1.40821 -15.6418 -2.45433 21
157 1 -6.75503 10.7316 -13.9359 10
158 1 -17.233 0.925995 4.40963 6
159 1 6.64318 8.66478 1.83451 19
160 1 -10.3185 1.57012 12.9865 14
161 1 1.96678 -16.8112 7.4734 8
162 1 3.27472 15.2579 -0.299953 16
163 1 -1.54751 5.23035 6.14587 18
164 1 12.7154 2.28496 10.2208 13
165 1 -9.68563 10.0581 2.04674 11
166 1 10.8474 -9.88377 -7.82653 24
167 1 -1.57218 13.5347 6.58146 12
168 1 10.3053 -10.4609 -4.13636 22
169 1 -18.0394 -4.32013 -1.20645 14
170 1 -11.8994 -13.1838 -1.76317 18
171 1 7.24723 3.20474 15.4476 20
172 1 -15.4074 -4.38733 -3.33805 21
173 1 -2.13725 -16.5301 -7.57023 14
174 1 -0.786215 7.43249 1.06636 16
175 1 4.97227 14.2992 9.47278 9
176 1 -4.34967 13.3367 -8.459 12
177 1 -17.5623 -10.1539 -4.46974 15
178 1 -7.11639 -1.33157 9.64349 19
179 1 1.98403 -13.0414 1.38614 18
180 1 2.03916 -10.0475 11.2004 14
181 1 -13.1901 5.46056 1.47555 15
182 1 11.9457 -1.97416 8.35037 12
183 1 -6.49472 -12.8218 -17.5391 11
184 1 2.85433 -1.62755 11.5158 19
185 1 1.75385 -12.3612 9.55131 16
186 1 -3.71833 0.549383 -13.5135 17
187 1 3.24617 -6.64329 -20.5109 10
188 1 4.13369 3.092 -13.6167 21
189 1 6.87247 3.22075 -15.3354 13
190 1 -10.0356 -8.40049 -11.6521 20
191 1 -7.60783 12.0763 -8.14935 10
192 1 -11.6879 -12.3304 5.86857 18
193 1 6.03537 17.3943 -4.28478 7
194 1 -9.61477 5.0345 12.586 11
195 1 -8.4801 9.67601 -7.76545 18
196 1 5.16773 -0.73063 9.85679 18
197 1 -4.43579 -10.4149 -13.7164 20
198 1 -1.56941 5.85569 -12.3141 18
199 1 1.82097 3.60234 -11.967 17
200 1 -9.56932 -9.95178 6.81076 17
201 1 -12.1955 3.40633 10.6099 8
202 1 -4.18672 6.27432 11.3097 20
203 1 -2.14844 -12.4185 -9.63799 20
204 1 -4.02616 -16.6623 -3.60864 15
205 1 8.08712 -15.2341 -6.04322 17
206 1 5.87778 6.29911 10.2429 16
207 1 4.85773 3.89042 -9.97344 19
208 1 -14.7371 6.66058 -6.6731 11
209 1 -0.903876 2.32364 8.01369 19
210 1 9.87213 -14.9029 2.91519 11
211 1 14.9059 5.87346 -8.89358 8
212 1 -12.4681 1.27342 2.15183 19
213 1 -12.859 -9.4834 -3.57699 20
214 1 7.33477 2.84313 -11.579 21
215 1 3.57994 -6.35961 9.68681 19
216 1 7.98237 9.45865 -5.88294 18
217 1 -3.64427 -4.77472 -13.9535 27
218 1 0.835247 -19.3392 0.700261 9
219 1 6.57915 -2.36774 -11.3594 21
220 1 -12.8364 -4.15605 2.10504 24
221 1 5.37737 -20.8028 -7.42891 8
222 1 -10.4273 -7.95674 -8.31441 22
223 1 12.4633 11.1034 -3.76591 18
224 1 -0.380893 -4.16754 -15.5807 18
225 1 5.20142 8.64241 9.25193 19
226 1 14.4806 6.30911 -0.4491 17
227 1 6.7969 -7.02162 -14.3185 18
228 1 -6.22035 -5.11745 -11.6714 20
229 1 -8.50998 1.47241 -14.9324 10
230 1 -5.74131 -15.9412 2.29799 17
231 1 10.0828 -10.2415 10.3217 6
232 1 -9.21451 -13.3932 -15.0108 9
233 1 -0.979521 4.63259 -17.1698 14
234 1 -1.71195 11.6053 -0.738735 20
235 1 -10.0077 -4.13844 11.0344 17
236 1 -11.5976 -14.1168 -9.53205 11
237 1 -6.17477 -10.3084 -16.4364 18
238 1 -6.25443 8.3129 -15.2334 14
239 1 -7.03098 -13.0059 -5.8654 21
240 1 8.55864 -10.1498 -9.82193 21
241 1 10.3275 -2.02751 -12.553 13
242 1 10.8975 1.41477 -1.21716 20
243 1 -11.1889 -7.16229 6.78865 23
244 1 -3.77084 -13.5426 -1.44091 20
245 1 5.72955 0.325212 13.2978 18
246 1 -10.7161 -20.0937 3.9557 7
247 1 2.32716 -15.1142 -3.74636 17
248 1 0.138569 12.6944 -4.55757 17
249 1 2.5511 -4.43491 -16.9984 18
250 1 -6.80919 -4.53693 -15.0904 18
251 1 -17.3152 -10.7959 -0.346959 11
252 1 -1.60866 2.3968 11.8656 22
253 1 0.255305 -15.9675 -5.8894 15
254 1 -6.47793 -14.8326 -3.56163 18
255 1 -13.5055 -1.13576 -10.0569 15
256 1 11.0364 1.2194 2.24751 21
257 1 -6.26596 0.654794 -11.317 20
258 1 2.00843 6.40601 -16.7014 14
259 1 5.42665 -16.1543 -7.88217 18
260 1 -7.7129 8.70262 -3.46702 18
261 1 1.3341 6.47645 2.60399 17
262 1 9.33887 -1.61562 3.23733 22
263 1 -10.2667 -1.67471 4.95601 21
264 1 -4.33807 -4.41445 13.4654 17
265 1 -9.57982 6.49235 -1.1416 22
266 1 1.05745 -7.03838 -15.3348 18
267 1 13.485 12.2354 -6.44361 9
268 1 7.10306 -14.4815 -2.35223 19
269 1 -4.10983 -1.75608 11.7793 19
270 1 -14.4069 -4.58538 4.69637 17
271 1 0.0431136 -20.9571 -4.22364 8
272 1 -7.00125 7.10679 11.5239 14
273 1 -15.2913 -2.17147 11.9178 9
274 1 -14.396 -8.95366 1.71468 20
275 1 -15.6335 -14.0926 2.50338 13
276 1 14.6375 -8.15113 -3.10125 12
277 1 -12.9036 -10.0101 7.35911 15
278 1 8.03378 -4.64636 -9.19467 19
279 1 7.36541 -12.5096 -4.97534 19
280 1 0.810834 13.0825 0.856887 18
281 1 -7.87838 12.0928 -2.40358 11
282 1 13.6823 4.92725 7.92621 12
283 1 5.59309 -18.6908 -5.14244 12
284 1 -6.81465 7.87578 1.17464 23
285 1 0.0988223 -7.86662 10.2248 19
286 1 11.0246 -9.17391 0.966359 15
287 1 0.297826 -6.48346 14.9138 13
288 1 -0.815668 10.9275 2.05621 18
289 1 5.6229 6.08304 15.0884 17
290 1 -9.62671 10.9141 -5.21257 11
291 1 -2.02699 -9.27718 -19.5881 13
292 1 -0.750834 -11.6212 -17.6788 11
293 1 -15.7334 -2.20636 8.78137 10
294 1 -14.716 0.161037 -4.42142 17
295 1 -6.27851 6.85872 -1.80417 23
296 1 10.5231 -3.20606 5.71344 20
297 1 -12.7466 -18.8519 -0.213503 8
298 1 3.38005 -9.28718 5.38377 19
299 1 -9.17758 -10.3825 11.4656 9
300 1 -15.419 3.68915 -5.7601 14
301 1 1.47898 -12.2481 -9.30612 20
302 1 -7.74672 -7.66782 -9.66047 21
303 1 7.75711 -4.92116 -16.261 13
304 1 5.61229 12.4063 4.25406 22
305 1 -12.4261 -3.48767 -5.05415 18
306 1 2.31984 -14.7049 -15.046 11
307 1 10.283 2.39304 -12.9431 11
308 1 -5.26723 -16.0989 -6.85978 15
309 1 -16.1905 -13.3531 -8.92253 11
310 1 10.341 4.25538 15.095 12
311 1 10.3324 -2.38247 -6.18852 18
312 1 -8.76288 6.08703 -11.3339 15
313 1 3.75368 17.1541 -3.31742 10
314 1 -14.8378 -5.52767 -6.5832 19
315 1 -14.1342 2.4289 5.13349 14
316 1 -12.9287 9.01988 -3.97373 10
317 1 -10.302 6.58342 2.01369 19
318 1 5.68503 3.34209 12.3542 19
319 1 15.7111 -9.22645 -6.01965 10
320 1 9.45776 -1.35011 13.7681 13
321 1 9.77957 -1.44586 -9.44428 18
322 1 -4.08988 -16.5036 -0.879109 19
323 1 4.48299 -12.7632 -3.52644 21
324 1 12.3866 -5.32022 3.16737 14
325 1 -9.28665 -10.5063 -6.50769 19
326 1 -6.27664 -12.2003 0.68359 17
327 1 -11.3941 -9.63816 9.72175 16
328 1 -4.66602 14.9353 1.57466 11
329 1 -14.9205 -10.7241 -2.28522 21
330 1 5.10403 10.6131 11.8749 14
331 1 -8.66643 3.3635 -5.62204 19
332 1 2.36588 9.86721 -8.45523 19
333 1 4.59209 9.95294 2.58426 22
334 1 -17.0625 -13.0696 -6.10528 13
335 1 -3.59726 -9.21113 -10.2876 21
336 1 -15.4983 -2.84962 -0.336855 19
337 1 -11.3409 4.37145 -6.35128 19
338 1 4.50661 -12.0288 4.82784 17
339 1 -9.35985 -14.3155 -3.71853 16
340 1 7.14858 10.6983 6.91295 18
341 1 6.50791 6.64475 -15.4567 10
342 1 -13.8022 6.39767 -13.5008 5
343 1 -0.840087 13.0287 -7.87183 13
344 1 -10.2587 4.80157 -9.04554 16
345 1 0.816837 -15.4768 -0.396865 21
346 1 8.68661 3.20941 6.95774 21
347 1 5.78098 10.1037 -13.6559 13
348 1 -19.2958 -3.29943 -4.27662 10
349 1 -7.63101 -15.9685 -0.548824 17
350 1 8.76663 -9.86054 -12.5273 20
351 1 -13.1696 -1.54091 3.81708 19
352 1 -16.0832 -2.19605 2.50241 16
353 1 -16.6274 2.8668 -1.98106 11
354 1 -11.5884 -2.94614 -14.4967 12
355 1 7.2687 -11.3862 -2.16657 21
356 1 4.96837 -18.2572 -10.0793 12
357 1 -5.59555 -9.92628 10.4323 14
358 1 -7.55669 4.74996 -14.0693 16
359 1 8.25208 -13.8136 0.24155 20
360 1 7.08255 7.319 -8.6638 16
361 1 -9.66292 2.97193 6.73454 19
362 1 -7.97556 -5.26138 13.086 9
363 1 -12.4146 -9.72871 -10.6124 20
364 1 -12.2968 -6.57482 10.3755 17
365 1 9.15354 -7.70802 8.62127 18
366 1 6.56408 -7.65896 4.75632 19
367 1 10.7853 6.98233 -0.909623 19
368 1 -4.63484 0.687282 10.5836 19
369 1 5.66491 8.93418 -3.2253 20
370 1 -3.6067 -15.8303 -9.90813 17
371 1 -4.53623 1.75795 14.2753 14
372 1 -1.39811 15.1396 3.50401 12
373 1 -11.9028 -11.4128 -8.01996 17
374 1 8.73189 12.2949 -3.60291 18
375 1 4.14169 6.76317 7.15553 18
376 1 -7.22467 -1.83842 6.5088 21
377 1 -12.2725 -1.41265 6.84784 20
378 1 -9.4532 -10.4833 -9.56057 17
379 1 -7.52972 4.80981 3.29306 21
380 1 -4.52723 -13.4521 -8.01665 20
381 1 -1.27357 -9.48457 -15.3585 17
382 1 -10.475 -16.8086 -5.72971 10
383 1 10.789 0.852216 11.6488 14
384 1 -9.95927 -7.0885 12.1103 13
385 1 -10.8481 4.69433 -14.4778 10
386 1 9.24059 4.48506 -1.94838 20
387 1 -12.2822 -15.8495 -3.40047 13
388 1 -0.186577 16.1238 -0.744618 12
389 1 -2.25942 7.75804 14.1317 12
390 1 -16.06 -8.50952 -6.9401 16
391 1 -1.82342 14.3438 1.15608 18
392 1 6.27618 13.1701 -9.07021 9
393 1 -4.6962 -12.444 -11.3631 18
394 1 -1.25886 2.26806 15.3511 11
395 1 3.48738 -19.0008 -7.79312 15
396 1 0.936217 -7.1178 -11.7949 20
397 1 6.89633 -15.371 4.36005 10
398 1 -13.3151 3.08009 -0.139587 19
399 1 8.13772 -0.979512 16.7241 9
400 1 9.3373 8.64949 -3.29364 19
401 1 -7.25414 3.6304 -9.95509 17
402 1 -17.7578 -6.44999 -4.30486 15
403 1 1.51712 15.9828 1.99937 13
404 1 -4.16947 -4.90161 -17.1706 21
405 1 9.34624 3.47838 0.65945 18
406 1 9.63069 11.8662 -6.45668 15
407 1 15.1242 -0.843863 -4.10231 15
408 1 1.09391 -1.38446 -15.0702 20
409 1 -2.57484 -15.0416 4.3389 14
410 1 -3.36674 -9.97715 12.246 12
411 1 -8.75658 0.38147 -9.8136 18
412 1 -12.7055 -17.4036 2.24474 15
413 1 -6.88593 -12.9569 -9.5348 15
414 1 6.70073 15.901 4.86921 11
415 1 2.09428 0.777553 -13.4275 23
416 1 1.66849 -4.08071 12.9409 20
417 1 -16.6771 -5.14611 7.00667 11
418 1 -1.67638 -15.3193 0.833061 18
419 1 -13.6966 -7.51093 -0.748653 19
420 1 13.2045 -7.62539 -5.77265 19
421 1 11.7752 -4.91235 -4.9101 16
422 1 2.33931 -9.7046 -10.8651 19
423 1 4.15141 -2.17975 -13.3892 22
424 1 11.7137 -10.954 -13.6653 12
425 1 -7.08895 0.0549585 12.8349 15
426 1 8.11636 11.5015 2.59001 18
427 1 -7.44375 -6.74206 -17.413 15
428 1 3.59413 -2.59994 -19.5826 11
429 1 -8.39066 -6.67936 5.74608 22
430 1 -6.92088 14.4354 -0.348167 12
431 1 -13.6362 -5.45565 -14.2206 9
432 1 -18.3428 -7.32708 -2.03132 11
433 1 -4.12815 -13.4005 -15.0047 16
434 1 -7.86452 -8.91265 8.4382 18
435 1 -0.272949 5.89807 -8.58805 21
436 1 11.1864 8.92869 3.96751 15
437 1 14.1017 1.26943 1.67831 12
438 1 -6.4788 -18.2588 -4.83961 12
439 1 -12.0627 -10.4989 -14.4113 13
440 1 -5.81799 9.41325 3.3987 18
441 1 10.815 -4.44812 -1.35459 22
442 1 5.67325 11.9109 -4.83545 14
443 1 11.9623 5.29406 -10.8224 14
444 1 1.289 6.79945 10.6349 15
445 1 -7.81641 4.40819 9.62338 19
446 1 1.87313 9.3795 7.05798 15
447 1 2.39653 6.80402 15.7828 14
448 1 2.04264 2.27639 -16.2025 19
449 1 -1.22107 -5.96901 12.161 25
450 1 9.28734 6.85262 2.00033 21
451 1 9.68134 6.21029 -8.62092 20
452 1 -9.48151 6.33011 -3.6098 22
453 1 -3.18898 11.5108 -3.58528 19
454 1 5.69163 -6.59195 12.957 14
455 1 10.0589 -7.50486 -9.34433 20
456 1 12.5585 -13.733 -4.58661 11
457 1 9.96925 11.62 5.42293 13
458 1 -14.6091 -11.3224 -5.51781 20
459 1 -4.39463 3.80095 -11.9962 22
460 1 -15.9106 -6.67885 3.61823 16
461 1 0.509424 11.3526 -10.4923 14
462 1 2.55417 -15.2609 -7.80495 16
463 1 5.12178 -5.03006 -11.4273 20
464 1 0.0144687 15.87 -5.15914 9
465 1 -12.8209 -7.63055 -15.3313 9
466 1 1.36595 -16.1143 2.71196 12
467 1 -13.0212 -6.33314 -3.95352 22
468 1 1.48387 9.53056 -15.6041 12
469 1 -3.33892 4.3469 13.64 13
470 1 -13.1368 -6.9207 3.52619 22
471 1 2.33674 -12.5745 -18.5091 9
472 1 1.8632 -6.80109 12.5336 18
473 1 -10.2987 3.5972 -2.24811 25
474 1 6.89526 1.5046 17.9804 10
475 1 3.63518 13.0997 -7.53812 14
476 1 9.94425 -7.66523 -5.36058 22
477 1 1.59024 3.90154 7.714 19
478 1 1.83078 3.69749 -18.7665 10
479 1 -5.20383 -16.5731 5.38109 11
480 1 5.18485 -5.04857 -18.0148 15
481 1 2.13949 18.8508 -0.645093 7
482 1 9.34759 5.31626 -12.1531 17
483 1 -5.26937 -7.17066 -15.3627 21
484 1 -3.7167 -12.732 -5.06451 20
485 1 -13.846 -12.071 -11.5579 13
486 1 15.5852 2.07589 -5.1728 12
487 1 14.2525 5.26219 -5.52572 22
488 1 11.7656 -8.70545 -11.1102 18
489 1 12.4087 5.67075 10.6774 17
490 1 4.21557 -12.6194 -7.19735 22
491 1 0.647925 -2.40657 -18.0003 18
492 1 6.20665 6.73965 4.15664 25
493 1 12.9144 8.19027 8.69562 9
494 1 15.2305 9.33459 -1.5439 10
495 1 12.7563 -1.63217 -1.33371 19
496 1 10.9797 0.607736 -7.55266 19
497 1 4.15326 -2.1423 13.8321 17
498 1 12.5576 5.84041 4.86442 14
499 1 11.3903 8.87756 -5.60859 18
500 1 1.24672 2.01917 14.7066 14
501 1 13.6488 -5.01184 -8.85878 8
502 1 4.71411 -4.47353 11.3544 19
503 1 -12.0002 -6.14859 -11.2936 18
504 1 12.6941 -0.45343 4.61635 16
505 1 -11.303 6.07301 9.75336 11
506 1 6.33545 3.93491 4.94151 18
507 1 9.59311 3.62585 10.1193 16
508 1 2.78316 5.50568 4.77172 18
509 1 4.02225 11.1806 8.56702 16
510 1 1.39573 -18.0972 -2.50969 19
511 1 -6.29763 6.86054 -5.27854 17
512 1 13.4845 10.0313 -9.09523 10
513 1 10.6078 -6.82001 -13.189 15
514 1 -4.59864 12.0778 -0.829657 18
515 1 0.133996 -14.9934 -9.53346 19
516 1 9.61813 -13.4709 -13.3678 9
517 1 -9.09179 0.185715 7.12347 21
518 1 -3.86777 5.61081 -14.928 16
519 1 -3.55917 -13.5839 1.31171 19
520 1 -5.07906 -2.14613 -15.0651 18
521 1 -13.1515 -1.0112 -6.78001 18
522 1 9.37659 -6.88705 0.667211 18
523 1 15.6391 4.22306 -2.99573 12
524 1 -0.86797 -12.8511 2.76537 18
525 1 -14.2503 -7.39021 -9.05462 17
526 1 -6.23251 -4.52437 -19.4401 9
527 1 -1.8221 -0.353782 13.3658 20
528 1 6.08334 5.46756 -12.5124 17
529 1 9.00613 -1.25284 10.4613 13
530 1 9.8785 2.91325 -9.33288 19
531 1 10.4218 14.5189 -2.22249 10
532 1 4.44879 -16.1664 -13.0847 12
533 1 -15.5608 -5.10678 10.3302 13
534 1 9.85448 -6.87519 3.97461 17
535 1 -0.863805 10.359 12.7933 14
536 1 4.52317 11.0773 -10.3334 14
537 1 -10.3779 8.72526 -9.76318 14
538 1 9.76076 9.7252 0.998984 20
539 1 -17.8485 -13.1731 -2.85108 9
540 1 12.4301 -7.22483 -0.62211 17
541 1 7.55674 16.1214 -1.22267 10
542 1 -5.01392 6.29876 8.48078 14
543 1 -15.7425 -8.42066 -3.75124 18
544 1 -7.92651 -2.23982 -13.2893 16
545 1 6.87591 -3.21827 14.0768 14
546 1 -2.37605 -15.1524 10.1069 7
547 1 12.1184 6.02595 13.8478 8
548 1 -10.3858 9.61844 -2.32635 14
549 1 -4.07683 -8.51482 -17.676 19
550 1 -11.2721 -4.43958 5.08576 24
551 1 8.2605 -5.08129 -12.6811 20
552 1 7.63887 -12.3727 -8.37974 16
553 1 9.10184 -0.678816 7.02568 19
554 1 -7.91189 2.44946 14.4855 10
555 1 8.96058 6.03652 5.2485 19
556 1 -2.36046 -7.26284 14.8119 11
557 1 -4.29385 3.18915 9.77337 18
558 1 -2.01731 -6.47316 -17.1071 19
559 1 -9.97239 -2.99549 7.95158 21
560 1 -0.953963 -2.84526 12.1455 22
561 1 -13.9523 -15.4953 5.00298 11
562 1 12.1309 4.42177 -2.40181 21
563 1 6.68655 -15.2316 -10.3875 13
564 1 5.2464 5.6734 -4.50078 17
565 1 11.7542 12.0647 2.52134 13
566 1 0.841544 -4.39714 -20.1226 10
567 1 1.2205 10.9172 -2.08098 14
568 1 13.1011 4.06085 0.54654 19
569 1 -6.00556 -11.7476 -2.36123 19
570 1 -2.14526 -2.73035 -16.6929 22
571 1 -12.4301 8.58797 -0.178879 13
572 1 9.44176 -14.9096 -10.2227 13
573 1 10.3089 9.23739 -8.6349 19
574 1 11.4591 14.2249 -5.18893 9
575 1 12.998 2.87349 13.1272 9
576 1 8.55243 -7.09372 11.2934 11
577 1 -3.15261 -9.96335 7.18249 22
578 1 -5.85705 11.2303 -10.2559 14
579 1 -0.0134128 11.2938 9.33455 14
580 1 3.51977 -12.328 -16.0448 16
581 1 9.48519 12.4887 -9.63761 12
582 1 5.64183 4.72235 7.20379 19
583 1 14.9981 -3.70077 -6.07757 9
584 1 4.91293 8.71264 14.7867 15
585 1 -15.1252 -5.10604 0.741207 19
586 1 10.1384 -16.2437 -4.14251 10
587 1 -6.18692 15.6512 -3.4263 6
588 1 7.90587 6.34946 -3.17342 18
589 1 -17.3057 -7.70846 0.538236 15
590 1 -0.422493 5.26803 13.61 17
591 1 -5.56022 6.44231 -12.5301 16
592 1 -2.25294 8.11979 -7.03673 18
593 1 4.94452 -17.5921 -1.91338 16
594 1 9.83356 2.54971 -5.15057 20
595 1 -16.2211 -1.73787 5.51206 9
596 1 4.40519 -7.03779 -15.8996 22
597 1 0.975957 -13.6318 11.815 6
598 1 4.6784 6.57288 -1.4132 18
599 1 0.588032 0.0754891 11.221 22
600 1 -9.98054 -11.4496 -12.6052 17
601 1 -8.42339 -15.0501 -12.2111 11
602 1 -8.7602 -14.1998 -7.92455 15
603 1 4.98303 8.36002 -6.56315 16
604 1 -3.5789 9.67861 1.35669 22
605 1 3.77662 -14.3228 -10.2081 18
606 1 12.0031 -14.0033 0.295323 10
607 1 -3.11993 -7.70309 10.017 22
608 1 11.8689 4.516 -7.28776 21
609 1 -1.17641 -18.1997 -4.42007 14
610 1 -12.4208 -4.31982 8.37092 23
611 1 -3.35165 -19.3254 -2.82839 14
612 1 -7.68576 -16.5577 -6.45178 15
613 1 -14.4584 -7.62164 8.9708 14
614 1 -6.90319 -19.0325 -1.99973 14
615 1 16.4197 7.19589 -3.50142 11
616 1 -6.97229 10.2341 -0.250594 18
617 1 -15.8263 0.675587 0.0304736 13
618 1 10.7434 -4.14041 1.68581 21
619 1 -8.76186 -6.1694 -12.5192 16
620 1 13.4622 7.48612 -2.96754 20
621 1 7.59204 11.8275 10.556 10
622 1 -12.5852 -4.34009 -8.21674 19
623 1 -14.9006 -10.2288 -9.27862 19
624 1 0.877321 -1.11314 14.416 17
625 1 8.08185 8.2166 -11.2092 17
626 1 7.28032 7.0912 7.30154 18
627 1 -4.38824 -1.90972 8.24031 23
628 1 -1.21502 -18.2533 -1.16666 18
629 1 -10.8382 -17.476 5.24294 13
630 1 9.50782 9.18727 8.7373 12
631 1 2.51404 -9.00218 -14.7033 16
632 1 4.51011 7.03279 1.79608 19
633 1 -5.84648 -7.08927 7.67922 23
634 1 8.10857 9.23748 -14.2789 9
635 1 1.03785 -20.9113 -7.87688 6
636 1 5.26776 -15.5912 0.967293 13
637 1 3.15636 -19.7841 -4.39558 11
638 1 4.91952 0.535872 -11.7055 20
639 1 5.07276 16.874 1.51963 10
640 1 -3.79763 0.612911 -16.6359 16
641 1 -1.83592 -0.0694626 9.75002 19
642 1 0.589394 3.79804 -14.2198 23
643 1 -10.7992 -5.41996 -16.8091 9
644 1 -10.4437 -7.82546 -4.95719 18
645 1 3.43791 16.7629 -6.7677 11
646 1 -6.61859 -10.1271 -19.6836 6
647 1 11.6069 0.0228122 -3.93305 21
648 1 9.7679 -12.1707 -6.63341 19
649 1 -6.32593 4.07178 12.7118 13
650 1 5.08131 -11.9689 0.0557572 17
651 1 12.7614 -10.5496 -1.84746 16
652 1 9.76178 -9.96691 6.10413 13
653 1 -2.28934 8.12566 3.89583 20
654 1 -10.4886 -0.174435 9.87092 18
655 1 -7.0931 4.95622 6.48545 14
656 1 -3.86546 -12.4991 9.26275 15
657 1 8.31059 7.36351 15.0391 9
658 1 -17.9869 -4.89444 1.39103 10
659 1 7.61717 -9.994 -6.42958 22
660 1 -7.81567 9.53572 -10.7159 16
661 1 0.828955 -16.0839 10.1331 7
662 1 4.06276 0.673811 16.0684 14
663 1 8.67589 12.774 -0.260626 16
664 1 0.560703 -14.2941 5.95511 14
665 1 1.40423 2.9875 10.8149 18
666 1 -17.6331 -11.2385 -9.15976 7
667 1 2.67284 10.4625 14.6326 11
668 1 4.05256 9.60847 -0.46654 19
669 1 -8.46382 -14.56 2.32816 16
670 1 -9.33813 -18.1696 0.83735 18
671 1 7.76067 -5.37714 6.30253 19
672 1 9.84478 -11.8852 2.73422 17
673 1 5.84728 1.00727 7.07764 18
674 1 -0.751998 -10.0712 -12.0487 18
675 1 -1.67274 -1.65039 -13.6532 19
676 1 -4.26951 -4.98306 10.4824 20
677 1 -1.05744 13.806 -2.40531 19
678 1 12.4252 -1.91809 2.88282 17
679 1 2.42166 7.23264 -10.2695 17
680 1 -5.74467 9.44128 9.45876 13
681 1 10.1154 6.98013 10.9956 16
682 1 7.07413 -8.06863 -11.3596 20
683 1 -10.8789 -15.4653 0.890251 17
684 1 13.4008 -3.64139 5.81604 11
685 1 1.96512 -4.36798 -13.7258 22
686 1 3.79973 4.69379 10.182 18
687 1 5.47166 -13.4578 -13.3899 17
688 1 2.55388 0.212496 -17.8977 12
689 1 11.2601 0.119405 -10.9906 16
690 1 13.9511 -3.87312 0.271762 11
691 1 -1.43534 -10.7897 9.74266 18
692 1 -1.8831 -14.4151 -12.4297 18
693 1 7.08556 10.7466 -1.59668 18
694 1 -11.2229 1.12679 5.25046 19
695 1 11.2574 5.62055 -4.73597 20
696 1 12.4869 3.05887 3.6683 17
697 1 -4.33106 -6.59372 -19.8382 13
698 1 -8.32313 7.68479 4.15778 16
699 1 10.0367 14.8459 3.89214 7
700 1 14.5281 8.97708 -5.50951 14
701 1 4.74916 -2.25522 -16.7787 17
702 1 11.4211 -7.05597 -2.91692 19
703 1 -13.9168 -1.8891 -2.87936 18
704 1 14.2159 1.62062 -2.0246 16
705 1 -11.9422 -10.6111 -0.46975 22
706 1 -12.0495 4.51476 -11.637 15
707 1 2.88187 1.03949 8.51825 21
708 1 -10.5239 -1.81882 -8.59561 20
709 1 -15.5844 3.94275 3.62248 11
710 1 10.0009 -13.4845 -2.97522 18
711 1 -15.2075 -15.208 -3.68047 12
712 1 8.87169 -8.82436 -2.15332 20
713 1 -13.7881 3.23492 -3.77386 21
714 1 10.291 1.38837 5.19968 20
715 1 -6.00959 -9.19655 5.89177 19
716 1 9.80706 1.42537 16.0936 9
717 1 11.8674 -5.85173 6.80912 10
718 1 -13.3669 -1.11741 0.373424 20
719 1 3.62226 7.8 12.3361 21
720 1 11.1639 11.4495 -11.635 9
721 1 -3.47624 -11.6991 -17.1706 15
722 1 -4.31478 11.0241 6.07961 16
723 1 -11.7516 -14.3 3.40959 22
724 1 10.88 8.29356 -12.7351 9
725 1 -1.47965 4.87472 9.85691 18
726 1 13.8055 2.06648 -8.17986 11
727 1 4.39349 -10.6791 8.50399 15
728 1 -3.64788 10.067 -15.4321 9
729 1 4.79807 7.81907 -10.3558 19
730 1 -7.0105 -4.29777 8.46388 18
731 1 10.7628 6.15017 8.25921 18
732 1 -5.14856 -7.44231 -12.0032 20
733 1 13.0547 8.90185 0.995858 16
734 1 -17.2269 -1.36562 -2.47609 13
735 1 -8.17193 -15.0907 6.48885 15
736 1 4.12167 7.71794 -14.4784 14
737 1 4.84112 -3.65581 8.43625 16
738 1 -1.36993 -17.451 -11.3496 11
739 1 -7.11854 12.3492 2.33009 14
740 1 -14.6129 1.25906 -7.60959 15
741 1 13.6038 -8.43896 -8.51335 15
742 1 3.61317 -9.2844 -17.8801 17
743 1 -10.0409 3.58435 1.14861 23
744 1 17.7713 6.29299 -6.758 6
745 1 5.51387 -9.98545 -14.3957 19
746 1 -6.88766 -12.0149 -14.0318 16
747 1 1.35603 -12.2608 -4.98368 17
748 1 0.580511 8.37061 13.776 19
749 1 4.39109 -15.9255 -5.35378 15
750 1 -1.12035 7.22695 -15.4587 16
751 1 14.2986 -0.447869 -6.99425 15
752 1 7.85967 7.65183 -1.02792 17
753 1 -1.59727 -21.3261 -1.0086 8
754 1 -2.28093 -4.07529 -19.4323 15
755 1 12.7653 1.9308 -5.0824 24
756 1 -0.85592 0.816771 -15.3797 20
757 1 -5.53168 -14.9233 8.78909 11
758 1 7.27573 3.88907 -8.16356 19
759 1 -12.2646 1.60581 -5.14197 21
760 1 -13.5895 4.37073 7.29805 9
761 1 4.25019 3.40203 16.3932 14
762 1 -8.74473 -12.2804 4.50043 19
763 1 1.53579 9.47798 0.837986 21
764 1 2.77226 -17.2281 0.447776 13
765 1 8.95893 5.34155 -6.00801 16
766 1 -1.64352 8.72184 10.7766 18
767 1 -2.05748 -3.52858 14.7533 14
768 1 -13.0467 6.11754 4.90197 10
769 1 -6.62825 -6.75062 10.234 17
770 1 -0.880882 -12.7634 7.16519 15
771 1 8.75183 -4.09089 11.5865 11
772 1 7.15602 -7.18722 -7.97676 22
773 1 8.97387 -18.1323 -10.5679 8
774 1 -9.68427 -7.91695 -15.412 13
775 1 -1.52656 1.73263 -18.6648 9
776 1 4.65393 9.85346 5.45833 19
777 1 -13.0378 -4.45551 12.0256 16
778 1 -6.19538 7.07632 -8.66866 19
779 1 -17.203 -4.23309 -6.72657 11
780 1 12.9061 13.0992 -2.25862 9
781 1 -7.94583 -17.9536 3.8307 13
782 1 7.59589 13.908 7.21776 12
783 1 -11.4321 -14.8804 -12.8214 9
784 1 4.17134 14.0289 6.28092 15
785 1 -9.6099 -1.44581 12.5631 14
786 1 0.850271 -16.8237 -12.6967 13
787 1 6.26352 2.7306 9.73238 17
788 1 4.37566 -14.4835 6.3506 11
789 1 2.12549 10.1442 10.6865 19
790 1 12.7924 -4.75631 -13.5141 8
791 1 10.5108 -11.6534 -0.587629 18
792 1 5.08937 -4.39306 -14.4898 23
793 1 -10.5508 -0.621854 -11.7689 15
794 1 -9.1655 7.96674 -13.43 10
795 1 -12.2831 1.67954 8.29822 14
796 1 8.60972 -9.23261 3.03516 21
797 1 -9.34703 -10.8879 0.186399 17
798 1 13.0803 -2.49118 -4.31647 17
799 1 1.16634 6.9664 -13.0823 20
800 1 11.8401 6.55305 1.98225 20
801 1 -1.10227 10.7748 5.42756 18
802 1 -16.2172 -13.6512 -0.450538 13
803 1 10.4493 -17.0902 -7.56353 10
804 2 -10.0341 -1.73818 -13.875 13
805 2 -6.67689 9.83102 1.64793 20
806 2 1.38363 -5.17397 -15.4815 21
807 2 -4.93211 7.99334 11.9879 15
808 2 6.84529 -19.5555 -6.2886 9
809 2 -12.745 -10.704 -12.574 15
810 2 -1.32837 -5.42544 15.1618 14
811 2 8.51899 -2.96041 13.1146 10
812 2 -13.4392 -11.5672 -0.995697 20
813 2 -13.0105 0.913411 -6.53927 19
814 2 2.20617 9.78184 -0.849916 14
815 2 -12.8639 -1.10773 -1.6192 21
816 2 5.06264 9.88247 -5.09306 14
817 2 10.3414 1.28603 0.484996 17
818 2 -2.4394 8.76432 -8.83359 20
819 2 4.26754 13.7205 -0.0584237 16
820 2 -13.0376 -3.80882 -13.5413 11
821 2 -15.8184 -11.6365 -9.97831 9
822 2 -1.25948 -1.36023 8.242 21
823 2 5.30703 -7.63602 -8.21043 22
824 2 1.03208 -15.4034 4.39988 14
825 2 -9.45554 7.8909 -2.56622 17
826 2 -13.5191 0.853345 -9.53656 16
827 2 9.17916 0.310014 3.18023 20
828 2 10.4324 -13.9378 -11.7913 12
829 2 -13.5578 -11.234 -3.8513 19
830 2 -8.62161 -7.68371 2.08955 20
831 2 -7.76181 -18.5517 1.99903 12
832 2 7.72013 -6.5697 7.79067 20
833 2 1.94174 -19.6878 -9.32172 10
834 2 3.39096 -5.76952 16.4335 6
835 2 2.08945 5.94307 -8.52439 19
836 2 -1.63812 -13.7159 5.60868 15
837 2 -17.2667 -15.0864 -2.53636 7
838 2 4.25693 6.81994 13.9118 15
839 2 -9.41125 4.20484 -0.537919 22
840 2 -1.25042 -0.933253 11.6719 20
841 2 -6.50008 12.0432 -1.01966 15
842 2 6.32492 -15.4505 2.49547 12
843 2 0.490872 13.0293 -9.20257 14
844 2 10.9312 13.0622 3.87931 9
845 2 8.67856 14.5074 -1.51562 12
846 2 10.8843 -10.3955 -6.14086 19
847 2 -7.18893 8.18066 10.2024 14
848 2 2.0932 2.85496 -14.1677 17
849 2 -2.9675 4.64388 -13.0788 20
850 2 17.2774 6.61155 -5.12675 9
851 2 -8.29197 -6.41259 11.3576 17
852 2 -15.8496 2.05486 3.98547 10
853 2 12.8466 -6.65477 -8.43798 16
854 2 -11.4321 -5.96737 8.7472 24
855 2 5.51372 -9.20753 -17.7931 13
856 2 -1.95974 -4.59015 -17.0117 17
857 2 -14.7291 -14.7352 0.873292 16
858 2 8.8766 7.85817 -9.5028 18
859 2 -4.64938 7.66443 1.3931 24
860 2 -7.78658 -9.35287 -9.15588 20
861 2 -4.0903 10.6926 2.9469 18
862 2 5.85053 -6.50149 14.8807 7
863 2 -0.0870441 -9.30639 9.03201 19
864 2 15.3266 5.84455 1.22773 10
865 2 7.45051 11.9466 -8.55473 16
866 2 -13.1779 -1.57373 -4.75254 20
867 2 10.7627 2.21645 10.1663 18
868 2 8.41042 -10.8931 -4.81645 20
869 2 4.39619 -14.6682 -3.95781 16
870 2 -1.60956 9.85714 9.24727 15
871 2 6.10109 -12.1771 4.02517 22