ITEM: TIMESTEP
14
ITEM: NUMBER OF ATOMS
1500
ITEM: BOX BOUNDS pp pp pp
-30.0 30.0
-30.0 30.0
-30.0 30.0
ITEM: ATOMS id type x y z Coordination
1 2 -4.57094 -12.2031 -3.34135 20
2 2 -6.71865 -10.2117 -3.32868 21
3 2 -7.47913 -12.9551 -1.71922 14
4 1 -4.71995 -10.215 -3.32694 22
5 1 -6.69232 -12.3606 -3.36159 17
6 2 -9.92803 -12.3742 -0.0577382 13
7 2 -10.0974 -12.2371 -3.20094 13
8 2 -12.282 -9.93199 -3.30939 13
9 1 -10.3381 -10.36 -3.30914 17
10 1 -9.40008 -13.1467 -1.7224 10
11 1 -6.67188 -12.388 -0.0678808 19
12 2 -3.76141 -15.0647 -1.44029 13
13 2 -0.849004 -15.5586 -3.33176 15
14 1 -1.82468 -15.1307 -1.66882 17
15 1 -4.7996 -15.8069 -0.0756301 9
16 2 -1.08833 -10.2419 -0.0533444 21
17 1 -1.11743 -12.3031 -0.033174 21
18 2 -1.06281 -10.166 -3.33288 21
19 2 -1.78014 -13.0266 -1.72847 21
20 1 -3.86735 -13.0953 -1.74125 20
21 1 -1.0791 -12.2141 -3.34428 21
22 1 -4.62524 -10.3891 -9.87152 16
23 2 -6.55631 -9.90425 -9.90264 14
24 2 -4.29018 -12.2578 -9.73339 11
25 1 -1.05119 -12.2703 -9.89041 12
26 2 -1.06476 -10.2602 -9.95965 18
27 1 -1.85501 -15.0436 -4.84665 11
28 2 -3.70605 -14.926 -5.08868 11
29 1 -10.0627 -10.4393 -6.60577 12
30 1 -6.59626 -12.257 -6.7729 13
31 2 -4.60557 -12.3357 -0.0655265 21
32 2 -7.11298 -12.8465 -5.12256 13
33 2 -6.70454 -10.2566 -6.62707 19
34 2 -4.58953 -12.2211 -6.72094 17
35 1 -3.73047 -13.1614 -8.1984 12
36 1 -1.04125 -12.2002 -6.61059 19
37 1 -3.93021 -13.0083 -5.01328 17
38 2 -1.82925 -12.8342 -8.25377 14
39 2 -1.72071 -13.0466 -5.0049 19
40 1 -1.8885 -15.148 1.65397 17
41 2 -3.8134 -15.0828 1.33611 12
42 2 -0.922893 -15.578 3.31883 14
43 1 -9.42844 -13.1158 1.64104 10
44 1 -10.3123 -10.3242 3.36229 15
45 2 -12.1722 -9.93813 3.22667 13
46 2 -10.0613 -12.1915 3.12166 13
47 1 -6.72557 -12.358 3.22255 17
48 1 -4.64362 -10.2943 3.27375 22
49 2 -7.50306 -12.9493 1.56797 15
50 2 -6.62583 -10.2091 3.26112 22
51 2 -4.6024 -12.2919 3.25939 20
52 1 -3.91098 -13.1123 1.62074 20
53 1 -1.12067 -12.3137 3.29628 21
54 2 -1.83248 -13.031 1.63521 21
55 2 -1.06266 -10.2638 3.27146 21
56 1 -1.89769 -15.1401 4.8797 10
57 2 -3.75514 -15.0401 5.07285 10
58 1 -10.253 -10.3029 6.5628 11
59 1 -6.68058 -12.2776 6.62277 12
60 1 -4.65916 -10.2766 6.52562 22
61 2 -7.19416 -12.8427 4.96636 12
62 2 -6.68692 -10.2681 6.53537 19
63 2 -4.66774 -12.3079 6.62381 17
64 1 -4.00893 -13.1304 4.93209 17
65 1 -1.10109 -12.2755 6.56554 19
66 2 -1.78033 -13.1339 4.96263 19
67 2 -1.03618 -10.2145 6.56763 21
68 1 -4.71016 -10.3997 9.80864 16
69 2 -6.64598 -9.91102 9.85461 13
70 2 -4.41094 -12.2722 9.67653 11
71 1 -3.80583 -13.1568 8.15175 12
72 1 -1.10628 -12.2715 9.87115 13
73 2 -1.90005 -12.8277 8.235 14
74 2 -1.09583 -10.2595 9.8955 20
75 2 -0.867767 -10.1823 12.8763 11
76 2 -12.2252 -9.94952 0.0916408 16
77 1 -10.3107 -10.4367 0.0473921 20
78 1 -4.674 -10.3146 -0.0291432 21
79 2 -0.905379 -15.5702 0.0112679 17
80 2 -6.66451 -10.2774 -0.0494367 22
81 2 -1.0276 -10.1406 -6.59576 21
82 1 -4.65696 -10.1952 -6.62048 22
83 2 -1.86135 9.467 -1.59324 21
84 2 -3.91689 7.4259 -1.58564 21
85 2 -1.07597 6.64727 -3.22086 21
86 1 -1.82407 7.41671 -1.58929 21
87 1 -6.65177 -6.56894 -13.1728 11
88 2 -4.74714 -6.58034 -12.9385 14
89 1 -1.09075 -6.58435 -13.0995 15
90 2 -0.89973 -7.41071 -14.8294 7
91 1 -4.62444 -4.58255 -13.1421 17
92 2 -6.60683 -4.67582 -12.8772 14
93 1 -1.77224 -3.83124 -14.7504 14
94 2 -3.67577 -3.64599 -14.5195 11
95 2 -0.991699 -4.56893 -13.1435 19
96 2 -10.2128 -0.724448 -12.7772 11
97 1 -10.3984 1.03812 -13.065 11
98 1 -6.58892 -1.15579 -13.0755 17
99 2 -7.33063 -0.781944 -14.7959 9
100 2 -4.57614 -0.978662 -13.108 19
101 1 -7.30212 1.06684 -14.9385 8
102 1 -4.61352 1.03384 -13.0593 19
103 2 -6.647 1.22593 -13.1317 16
104 1 -0.98504 -1.03802 -16.416 11
105 1 -3.77492 -1.7322 -14.6996 14
106 1 -0.963657 -1.00848 -13.1292 21
107 2 -1.75875 -1.81177 -14.8103 16
108 1 -1.7866 1.81621 -14.7864 16
109 2 -0.89714 0.894833 -16.2115 11
110 2 -3.80692 1.92074 -14.5526 14
111 2 -0.978264 1.01917 -13.1152 21
112 1 -6.56106 4.58756 -12.9648 13
113 2 -4.58065 4.63994 -13.1218 18
114 1 -3.7734 3.84362 -14.7003 11
115 1 -0.957968 4.6531 -13.0781 19
116 2 -1.8635 3.80826 -14.538 14
117 1 -4.56924 6.6448 -13.0682 13
118 2 -6.48647 6.50336 -12.8859 11
119 1 -0.974214 7.59781 -14.8687 8
120 2 -1.16657 6.66465 -13.189 16
121 1 -9.41851 -7.20996 -11.6032 11
122 2 -9.90248 -6.66242 -9.91243 13
123 1 -6.95722 -9.40405 -11.6332 11
124 1 -6.65503 -6.61705 -9.9219 21
125 2 -7.51755 -7.55355 -11.694 14
126 2 -4.60194 -6.60223 -9.90368 22
127 1 -3.81192 -7.4373 -11.5295 18
128 1 -1.87617 -9.46788 -11.5142 13
129 1 -1.05567 -6.59995 -9.8724 21
130 2 -3.79793 -9.39581 -11.3343 13
131 2 -1.70785 -7.49942 -11.5063 18
132 1 -10.3462 -4.72332 -9.86674 16
133 2 -12.2072 -4.38822 -9.66703 12
134 2 -9.3703 -3.83147 -11.2633 14
135 1 -7.43212 -3.75496 -11.4394 18
136 1 -4.5775 -4.57662 -9.87842 21
137 2 -6.59416 -4.57007 -9.81769 22
138 1 -1.76847 -3.78677 -11.4935 21
139 2 -3.78889 -3.7523 -11.4895 21
140 2 -1.02539 -4.56012 -9.84498 21
141 1 -12.2335 -0.995076 -9.88702 13
142 1 -9.4954 -1.89023 -11.5063 15
143 2 -10.2307 -0.991265 -9.8388 20
144 1 -10.1348 1.01122 -9.88166 20
145 2 -12.1334 0.977723 -9.70682 13
146 2 -9.54568 1.95288 -11.5971 14
147 1 -6.62719 -1.00398 -9.77344 20
148 2 -7.41807 -1.68894 -11.4166 19
149 2 -4.58211 -0.973006 -9.80208 21
150 1 -7.41569 1.7508 -11.4417 20
151 1 -4.56851 1.04895 -9.7746 21
152 2 -6.62023 1.06258 -9.78067 21
153 1 -3.78984 -1.73307 -11.4423 21
154 1 -0.962036 -0.999359 -9.80308 21
155 2 -1.74025 -1.74191 -11.4617 21
156 1 -1.76243 1.79393 -11.4863 21
157 2 -3.82814 1.82866 -11.418 21
158 2 -0.987728 1.04122 -9.82485 21
159 1 -12.2769 4.36248 -9.93669 10
160 1 -9.39227 3.88093 -11.3697 14
161 2 -10.3691 4.66088 -9.861 16
162 1 -6.60844 4.59828 -9.79457 21
163 2 -7.44409 3.8134 -11.4324 18
164 2 -4.59201 4.59186 -9.77545 21
165 1 -3.78338 3.85208 -11.4285 21
166 1 -0.974517 4.58161 -9.805 21
167 2 -1.77527 3.83992 -11.4419 21
168 1 -10.1749 6.63024 -9.77736 13
169 2 -9.35839 7.14183 -11.3226 11
170 1 -7.52319 7.54309 -11.6389 15
171 1 -4.60006 6.62995 -9.80261 22
172 2 -7.20856 9.38201 -11.2954 11
173 2 -6.65208 6.62355 -9.81492 21
174 1 -3.95395 9.41736 -11.3595 13
175 1 -1.75117 7.41511 -11.4746 18
176 2 -3.89853 7.43774 -11.463 18
177 2 -2.08395 9.33741 -11.1273 17
178 2 -1.04125 6.60034 -9.80898 21
179 1 -13.1204 -9.33889 -4.84074 9
180 2 -12.7885 -7.50415 -4.99009 13
181 1 -12.2952 -6.538 -6.52454 13
182 1 -9.48656 -7.4123 -8.19344 16
183 1 -9.55701 -7.48605 -4.8926 21
184 2 -9.39539 -9.37892 -7.98392 11
185 2 -10.3146 -6.65025 -6.55333 19
186 2 -9.59125 -9.50826 -5.01112 19
187 1 -7.40978 -9.41888 -8.26547 17
188 1 -6.71109 -6.64539 -6.57095 21
189 1 -7.50934 -9.50543 -4.96538 21
190 2 -7.40779 -7.35533 -8.26689 20
191 2 -7.50685 -7.43912 -4.9566 21
192 2 -4.65637 -6.61406 -6.62706 21
193 1 -3.8755 -7.4135 -8.26074 21
194 1 -1.82042 -9.44151 -8.27527 21
195 1 -1.06633 -6.61969 -6.58282 21
196 1 -3.92482 -7.38938 -4.96218 21
197 1 -1.88937 -9.42488 -4.9661 21
198 2 -3.83265 -9.42759 -8.23361 22
199 2 -1.8085 -7.38468 -8.2389 21
200 2 -3.91061 -9.4143 -4.96546 21
201 2 -1.86888 -7.37621 -4.95327 21
202 1 -13.0751 -3.70519 -8.17802 12
203 1 -13.0267 -3.82639 -4.93175 17
204 2 -14.9483 -3.6887 -5.1178 10
205 1 -10.2281 -4.62026 -6.57158 21
206 2 -12.2837 -4.56953 -6.60612 17
207 2 -9.47296 -3.85306 -8.19809 22
208 2 -9.5063 -3.81897 -4.91485 21
209 1 -7.45827 -3.83284 -8.22121 21
210 1 -7.46679 -3.85593 -4.9069 21
211 1 -4.66114 -4.58874 -6.6069 21
212 2 -6.69494 -4.5832 -6.55823 21
213 1 -1.79383 -3.79805 -8.1967 21
214 1 -1.87486 -3.84526 -4.92121 21
215 2 -3.82568 -3.78747 -8.21235 21
216 2 -1.04409 -4.57375 -6.54905 21
217 2 -3.91325 -3.84871 -4.92869 21
218 1 -15.119 -1.83787 -4.86343 10
219 2 -12.8015 -1.79111 -8.24836 14
220 2 -13.1078 -1.66549 -4.948 19
221 1 -13.021 1.77819 -8.24655 13
222 1 -13.0514 1.74841 -4.93598 19
223 2 -15.0351 2.02797 -4.61942 13
224 1 -12.2626 -1.00136 -6.57308 19
225 1 -9.4963 -1.83724 -8.21241 22
226 1 -9.48499 -1.80646 -4.90999 21
227 2 -10.212 -0.97283 -6.54659 21
228 1 -10.2012 1.02758 -6.58631 21
229 2 -12.276 1.09267 -6.5943 19
230 2 -9.43332 1.85645 -8.22576 22
231 2 -9.46113 1.81665 -4.91694 21
232 1 -6.64291 -1.03343 -6.52163 21
233 2 -7.45282 -1.76021 -8.15379 21
234 2 -7.44681 -1.78957 -4.89071 21
235 2 -4.60461 -1.00913 -6.53409 21
236 1 -7.38144 1.79691 -8.13393 20
237 1 -7.40201 1.7763 -4.86583 21
238 1 -4.56474 1.01272 -6.49998 21
239 2 -6.61289 1.0357 -6.4947 21
240 1 -3.79923 -1.76165 -8.17048 21
241 1 -1.02663 -1.00413 -6.48697 21
242 1 -3.89198 -1.82309 -4.88321 21
243 2 -1.75668 -1.75202 -8.15962 21
244 2 -1.85918 -1.796 -4.87953 21
245 1 -1.73887 1.79767 -8.16734 21
246 1 -1.79946 1.79099 -4.85373 21
247 2 -3.79494 1.82059 -8.12571 21
248 2 -1.02328 1.04123 -6.49244 21
249 2 -3.85571 1.78888 -4.82392 21
250 1 -15.1036 3.76403 -5.29811 8
251 2 -12.7973 3.69695 -8.2672 13
252 2 -13.2073 3.97498 -4.95348 18
253 1 -12.214 4.51329 -6.61222 17
254 1 -9.42808 3.86247 -8.20966 21
255 1 -9.45239 3.82533 -4.88546 21
256 2 -10.1747 4.59979 -6.5456 21
257 1 -6.59796 4.59495 -6.50735 21
258 2 -7.41328 3.86188 -8.1471 21
259 2 -7.43422 3.84831 -4.87563 21
260 2 -4.57707 4.61668 -6.46918 21
261 1 -3.78262 3.8516 -8.12449 21
262 1 -1.00254 4.59362 -6.48667 21
263 1 -3.84227 3.81404 -4.82163 21
264 2 -1.76132 3.84024 -8.14576 21
265 2 -1.82397 3.83884 -4.84629 21
266 1 -13.0327 7.33 -5.01163 11
267 1 -9.48087 9.47848 -8.18924 13
268 1 -10.1667 6.63246 -6.56018 19
269 1 -9.49631 9.48854 -4.8201 17
270 2 -12.1498 6.48589 -6.37491 12
271 2 -9.48184 7.48186 -8.19263 17
272 2 -9.50652 7.46173 -4.86267 21
273 1 -7.39859 7.42999 -8.21246 21
274 1 -7.43135 7.42488 -4.92997 21
275 1 -4.56567 6.64276 -6.50667 21
276 2 -7.49222 9.49563 -8.18647 17
277 2 -6.64109 6.65762 -6.54693 21
278 2 -7.47668 9.48607 -4.85934 21
279 1 -3.84531 9.45861 -8.20016 21
280 1 -1.7672 7.41898 -8.17999 21
281 1 -3.82276 9.4538 -4.84531 21
282 1 -1.78391 7.42515 -4.8816 21
283 2 -3.85415 7.43151 -8.15863 22
284 2 -1.84217 9.46545 -8.14894 22
285 2 -1.03944 6.63654 -6.51141 21
286 2 -3.86632 7.43733 -4.83284 21
287 2 -1.81546 9.48105 -4.88027 21
288 1 -3.85942 9.44353 -1.58927 21
289 2 -6.75918 6.63085 0.0130284 21
290 1 -12.8795 -9.40191 -1.57775 13
291 2 -12.8449 -7.47222 -1.61586 16
292 1 -12.3522 -6.60904 -3.26227 18
293 1 -9.58978 -7.52387 -1.59065 23
294 2 -10.2585 -6.64156 -3.2523 22
295 2 -9.57694 -9.52522 -1.63813 22
296 2 -7.56322 9.49267 -1.63157 22
297 2 -6.7324 6.64539 -3.25634 21
298 1 -6.76632 -6.7054 -3.2759 21
299 1 -7.55578 -9.57702 -1.65661 22
300 2 -7.51671 -7.47624 -1.63235 21
301 2 -4.71089 -6.65558 -3.31068 21
302 1 -6.7248 -6.70376 -0.00447854 21
303 1 -4.64259 6.61491 -3.234 21
304 1 -1.09484 -6.64464 -3.29918 21
305 1 -3.95367 -7.45432 -1.67098 21
306 1 -1.91621 -9.48593 -1.68076 21
307 2 -3.92807 -9.47163 -1.66502 21
308 2 -1.89147 -7.43399 -1.68198 21
309 1 -1.12507 -6.68928 -0.0284333 21
310 1 -7.49838 7.41384 -1.63176 21
311 2 -9.59671 7.49357 -1.61087 22
312 2 -12.3319 6.73715 -3.33269 16
313 1 -13.028 -3.83104 -1.61488 20
314 2 -15.0017 -3.78094 -1.36012 12
315 1 -15.8077 -4.783 -5.02669e-04 9
316 1 -10.2303 -4.64361 -3.2569 21
317 2 -12.2533 -4.55088 -3.28158 20
318 2 -9.50011 -3.85928 -1.58975 21
319 1 -9.57323 9.5065 -1.61731 22
320 1 -10.2225 6.60466 -3.26777 21
321 1 -7.46938 -3.88688 -1.59485 21
322 1 -4.69845 -4.63639 -3.28979 21
323 2 -6.73108 -4.63078 -3.25726 21
324 1 -4.64213 -4.65972 0.0184736 21
325 2 -12.7505 9.30487 -1.66618 12
326 1 -1.88458 -3.87238 -1.64525 21
327 2 -1.08063 -4.59818 -3.28461 21
328 2 -3.91823 -3.86489 -1.64575 21
329 2 -1.09834 -4.64644 -0.0173007 21
330 1 -12.9291 7.3752 -1.62037 15
331 1 -15.132 -1.85008 -1.64192 17
332 2 -15.5827 -0.880288 -3.29324 13
333 2 -13.0263 -1.74508 -1.64813 21
334 2 -15.5905 -0.889109 0.0119632 17
335 1 -15.8175 0.967508 -3.27419 12
336 1 -13.05 1.77901 -1.65217 21
337 2 -15.1489 1.86054 -1.64968 16
338 1 -15.7593 0.962022 -0.0293848 16
339 1 -12.2818 -1.02211 -3.28599 21
340 1 -9.5278 -1.85277 -1.60632 21
341 2 -10.2386 -1.00798 -3.2561 21
342 1 -10.2082 0.993038 -3.27965 21
343 2 -12.2393 1.10015 -3.29146 22
344 2 -9.503 1.78303 -1.60248 21
345 2 -12.28 1.07139 0.00138739 22
346 1 -6.68736 -1.06864 -3.23259 21
347 2 -7.48581 -1.81092 -1.59403 21
348 2 -4.65492 -1.05731 -3.22997 21
349 1 -6.68061 -1.04546 0.0230273 21
350 2 -4.64952 -1.03322 0.0570545 21
351 1 -7.44884 1.75054 -1.58758 21
352 1 -4.61747 0.962411 -3.20705 21
353 2 -6.67143 0.998455 -3.21635 21
354 1 -1.08364 -1.05587 -3.22356 21
355 1 -3.90194 -1.84393 -1.58484 21
356 2 -1.86833 -1.82506 -1.58164 21
357 1 -1.82793 1.76379 -1.57293 21
358 2 -1.07742 0.987774 -3.20905 21
359 2 -3.88325 1.76321 -1.55746 21
360 1 -15.1283 3.82107 -1.65704 14
361 2 -13.1338 3.91137 -1.67222 19
362 1 -12.2957 4.57774 -3.32008 21
363 1 -9.53012 3.7853 -1.59986 21
364 2 -10.2884 4.60893 -3.23917 21
365 2 -1.86359 3.81352 -1.57668 21
366 1 -3.87962 3.78426 -1.56756 21
367 1 -6.68098 4.58067 -3.21681 21
368 2 -7.51431 3.82882 -1.58926 21
369 2 -4.66931 4.59558 -3.18743 21
370 1 -1.05255 4.60335 -3.20164 21
371 2 -4.68505 4.58216 0.067777 21
372 1 -13.0919 -9.4096 1.70615 10
373 2 -12.9797 -7.47063 1.66321 14
374 1 -12.3315 -6.73424 3.32328 16
375 1 -9.52674 -7.54322 1.68378 23
376 2 -9.46356 -9.53681 1.64623 22
377 2 -10.2061 -6.64437 3.3051 21
378 1 -7.47008 -9.5664 1.60544 22
379 1 -6.68879 -6.67699 3.27789 21
380 2 -7.44028 -7.46899 1.65184 21
381 2 -4.62102 -6.65464 3.27465 21
382 1 -3.92065 -7.49465 1.62815 21
383 1 -1.87206 -9.52553 1.61856 21
384 1 -1.07954 -6.67494 3.24757 21
385 2 -3.88136 -9.51622 1.6102 21
386 2 -1.85097 -7.47429 1.62629 21
387 1 -13.0992 -3.88046 1.71902 20
388 2 -15.0622 -3.79447 1.40077 13
389 1 -10.2321 -4.66045 3.33903 22
390 2 -12.2296 -4.5519 3.33796 20
391 2 -9.4469 -3.83292 1.70549 21
392 1 -7.42188 -3.84447 1.67947 21
393 1 -4.6015 -4.64262 3.29445 21
394 2 -6.6224 -4.58959 3.31468 21
395 1 -1.83167 -3.85995 1.62819 21
396 2 -3.8637 -3.84091 1.64526 21
397 2 -1.04584 -4.62756 3.26335 21
398 1 -15.1706 -1.8633 1.66324 17
399 2 -13.0696 -1.77213 1.70296 21
400 2 -15.6352 -0.903716 3.32595 14
401 1 -13.0646 1.71096 1.66761 20
402 1 -15.8845 0.933874 3.23526 12
403 2 -15.1547 1.80088 1.62899 16
404 1 -12.2632 -1.10975 3.32946 21
405 1 -9.48634 -1.83494 1.68696 21
406 2 -10.2259 -1.01697 3.34595 21
407 1 -10.2063 0.977108 3.327 21
408 2 -12.2295 1.0474 3.30619 22
409 2 -9.47599 1.78505 1.67422 21
410 1 -6.64009 -1.00818 3.30873 21
411 2 -7.44833 -1.75376 1.68789 21
412 2 -4.60625 -0.982245 3.32882 21
413 1 -7.42298 1.77002 1.69699 21
414 1 -4.58747 1.03101 3.3732 21
415 2 -6.63825 1.07119 3.35567 21
416 1 -3.87177 -1.82267 1.6901 21
417 1 -1.05278 -1.02906 3.30101 21
418 2 -1.8369 -1.81192 1.67644 21
419 1 -1.80625 1.79784 1.70989 21
420 2 -3.86665 1.82315 1.72437 21
421 2 -1.04963 1.01674 3.34753 21
422 1 -15.1226 3.75567 1.66024 14
423 2 -13.1333 3.84697 1.72192 20
424 1 -12.2909 4.49844 3.35805 21
425 1 -9.49792 3.78732 1.68554 21
426 2 -10.2858 4.60617 3.33164 21
427 1 -6.65016 4.58739 3.33774 21
428 2 -7.48172 3.85251 1.71699 21
429 2 -4.63559 4.62536 3.37355 21
430 1 -3.86189 3.83956 1.70841 21
431 1 -1.04663 4.60276 3.34 21
432 2 -1.84848 3.84945 1.70312 21
433 1 -12.9939 7.32374 1.69387 14
434 2 -12.7718 9.2424 1.76097 13
435 1 -9.55022 9.50803 1.67145 21
436 1 -10.2373 6.60172 3.30942 22
437 2 -12.3482 6.65924 3.39324 17
438 2 -9.55582 7.49607 1.68841 22
439 1 -7.46113 7.42429 1.66073 21
440 1 -4.61131 6.63946 3.33034 21
441 2 -7.53977 9.50948 1.66675 22
442 2 -6.69644 6.66236 3.30095 21
443 1 -3.89757 9.44127 1.68453 21
444 1 -1.84034 7.4025 1.66289 21
445 2 -3.94363 7.4249 1.66206 21
446 2 -1.90617 9.45155 1.67683 21
447 2 -1.1184 6.6448 3.31824 21
448 2 -12.8403 -7.028 5.09352 13
449 1 -12.2597 -6.57061 6.75861 12
450 1 -9.52935 -7.45278 4.96535 21
451 2 -9.4952 -9.46708 5.02961 17
452 2 -10.261 -6.60442 6.63502 19
453 1 -7.47679 -9.49643 4.87325 21
454 1 -6.68411 -6.64883 6.56084 21
455 2 -7.46342 -7.40819 4.93498 21
456 2 -4.62745 -6.63964 6.54902 21
457 1 -3.88043 -7.45664 4.91238 21
458 1 -1.83838 -9.48489 4.91298 21
459 1 -1.07744 -6.67115 6.55172 21
460 2 -3.85029 -9.47661 4.90936 21
461 2 -1.81781 -7.43509 4.90333 21
462 1 -13.1055 -4.01453 5.0018 17
463 2 -14.9967 -3.70712 5.1686 11
464 1 -10.2089 -4.59497 6.62128 22
465 2 -12.2427 -4.5348 6.71766 16
466 2 -9.43219 -3.82062 4.97597 21
467 1 -7.40323 -3.83296 4.94407 21
468 1 -4.61105 -4.62569 6.56111 21
469 2 -6.64032 -4.56508 6.60276 21
470 1 -1.80142 -3.84237 4.90322 21
471 2 -3.8427 -3.80779 4.92853 21
472 2 -1.04746 -4.61925 6.55348 21
473 1 -15.1272 -1.87373 4.86507 11
474 2 -13.1431 -1.68138 4.98201 19
475 1 -13.1141 1.62392 4.93046 20
476 2 -15.0698 1.97203 4.59187 13
477 1 -12.232 -1.09265 6.57129 19
478 1 -9.44548 -1.82125 4.96771 21
479 2 -10.1775 -0.984356 6.62141 21
480 1 -10.225 1.00097 6.61589 21
481 2 -12.2887 1.03711 6.59914 19
482 2 -9.47291 1.82098 4.98328 21
483 1 -6.6265 -1.01856 6.60513 21
484 2 -7.41388 -1.73901 4.96397 21
485 2 -4.59717 -0.984334 6.61415 21
486 1 -7.41275 1.79635 4.99019 21
487 1 -4.56869 1.02675 6.64615 21
488 2 -6.62578 1.0794 6.64345 21
489 1 -3.83999 -1.79013 4.96192 21
490 1 -1.03279 -1.03529 6.5992 21
491 2 -1.8077 -1.7889 4.95654 21
492 1 -1.77525 1.79525 4.99284 21
493 2 -3.84214 1.84503 5.01467 21
494 2 -1.04556 1.01283 6.6437 21
495 1 -15.1343 3.69941 5.27705 8
496 2 -13.2319 3.93467 5.00281 17
497 1 -12.2403 4.48571 6.62872 17
498 1 -9.47723 3.82295 4.96073 21
499 2 -10.193 4.63274 6.64211 21
500 1 -6.64693 4.57385 6.64544 21
501 2 -7.46777 3.88502 5.00263 21
502 2 -4.63774 4.60388 6.68979 21
503 1 -3.82585 3.85919 5.01087 21
504 1 -0.990088 4.56221 6.64566 21
505 2 -1.81523 3.8477 5.00029 21
506 1 -13.1084 7.20831 5.0547 11
507 1 -9.49263 9.48459 4.84964 15
508 1 -10.1704 6.65735 6.60903 19
509 2 -12.1479 6.49572 6.46456 12
510 2 -9.50178 7.45521 4.92403 21
511 1 -7.42448 7.41477 4.95497 21
512 1 -4.57854 6.62217 6.62672 21
513 2 -7.46804 9.47441 4.92346 21
514 2 -6.66576 6.6437 6.60227 21
515 1 -3.86249 9.46093 4.98614 21
516 1 -1.79427 7.41547 4.97829 21
517 2 -3.89723 7.44279 4.98621 21
518 2 -1.8664 9.46661 5.00791 21
519 2 -1.06071 6.5983 6.60083 21
520 1 -9.45836 -7.43808 8.22316 17
521 1 -9.4553 -7.33152 11.556 10
522 2 -9.40276 -9.40003 7.97063 11
523 2 -9.91623 -6.62926 9.91669 14
524 1 -7.41834 -9.46121 8.16901 17
525 1 -6.66089 -6.71872 9.92538 21
526 1 -7.08724 -9.52478 11.599 10
527 2 -7.39889 -7.3714 8.23974 20
528 2 -7.55337 -7.63191 11.6978 15
529 2 -4.62263 -6.6582 9.83084 22
530 1 -3.90285 -7.48103 8.19262 21
531 1 -1.8813 -9.51114 8.22969 21
532 1 -1.09376 -6.68121 9.83412 20
533 1 -3.84358 -7.47909 11.4792 18
534 1 -2.00177 -9.53427 11.5451 15
535 2 -3.89389 -9.48855 8.15376 22
536 2 -1.83699 -7.45168 8.18958 21
537 2 -3.9551 -9.41 11.2876 14
538 2 -1.7961 -7.43733 11.491 19
539 1 -13.1308 -3.71764 8.23765 12
540 1 -10.3506 -4.71787 9.88089 16
541 2 -12.1905 -4.22088 9.77014 13
542 2 -9.43484 -3.80218 8.26525 22
543 2 -9.3713 -3.82448 11.3073 13
544 1 -7.41692 -3.87282 8.27079 21
545 1 -7.4302 -3.88759 11.5406 18
546 1 -4.60177 -4.65457 9.88919 21
547 2 -6.6328 -4.63947 9.90638 22
548 1 -1.82946 -3.86481 8.19179 21
549 1 -1.81051 -3.88932 11.4929 21
550 2 -3.87246 -3.84387 8.22748 21
551 2 -1.04813 -4.62269 9.83546 21
552 2 -3.84401 -3.84978 11.5312 21
553 2 -12.7943 -1.79891 8.26802 14
554 1 -13.0523 1.70646 8.2412 13
555 1 -12.2195 -1.03344 9.88642 12
556 1 -9.45517 -1.81233 8.26648 22
557 1 -9.4233 -1.953 11.4363 15
558 2 -10.2024 -0.964354 10.0057 19
559 1 -10.1521 1.00598 9.90242 19
560 2 -12.1366 0.95815 9.73955 13
561 2 -9.45347 1.84709 8.27681 22
562 2 -9.48286 1.8008 11.689 15
563 1 -6.6195 -1.06518 9.90408 20
564 2 -7.41605 -1.75572 8.25969 21
565 2 -7.50642 -1.66815 11.5638 20
566 2 -4.60694 -1.0528 9.92089 21
567 1 -7.39402 1.7811 8.28734 21
568 1 -7.31296 1.75442 11.6191 19
569 1 -4.56296 0.9555 9.92682 21
570 2 -6.64766 1.02764 9.94229 21
571 1 -3.85825 -1.82823 8.24407 21
572 1 -1.00986 -1.06831 9.86891 21
573 1 -3.81874 -1.84631 11.5493 21
574 2 -1.8314 -1.80783 8.23331 21
575 2 -1.7911 -1.82979 11.5211 21
576 1 -1.77022 1.77584 8.29606 21
577 1 -1.75833 1.77785 11.5839 21
578 2 -3.8522 1.8123 8.31661 21
579 2 -1.03357 0.978512 9.93763 21
580 2 -3.87746 1.79017 11.5619 21
581 2 -12.7641 3.63071 8.28714 13
582 1 -12.3097 4.28169 9.96912 10
583 1 -9.48583 3.82344 8.25531 21
584 1 -9.39814 3.71634 11.3814 13
585 2 -10.3914 4.71478 10.0366 15
586 1 -6.63081 4.6065 9.93804 21
587 2 -7.49518 3.90042 8.33994 21
588 2 -7.48928 3.88856 11.6259 17
589 2 -4.65037 4.61591 9.9919 22
590 1 -3.82977 3.82216 8.32193 21
591 1 -1.00114 4.58991 9.92759 21
592 1 -3.80983 3.79237 11.6101 22
593 2 -1.8288 3.83061 8.28979 21
594 2 -1.82847 3.81799 11.5396 21
595 1 -9.47682 9.47394 8.21213 11
596 1 -10.18 6.59894 9.83345 12
597 2 -9.45381 7.47887 8.34742 15
598 1 -7.36908 7.42282 8.23258 19
599 1 -7.20936 7.46707 11.6434 14
600 1 -4.53253 6.60231 9.91175 21
601 2 -7.49063 9.48379 8.35766 15
602 2 -6.74931 6.71776 9.95841 18
603 1 -3.81442 9.49148 8.26516 21
604 1 -1.76323 7.42486 8.21752 19
605 1 -3.78398 9.45434 11.4071 14
606 1 -1.72068 7.49466 11.4781 19
607 2 -3.92263 7.48907 8.29244 21
608 2 -1.84201 9.45982 8.26728 22
609 2 -1.10232 6.62237 9.85338 21
610 2 -3.95877 7.53623 11.5639 16
611 2 -1.89525 9.56262 11.6015 15
612 1 -6.63211 -6.69924 13.1688 11
613 2 -4.73392 -6.62269 12.9197 14
614 1 -1.21244 -6.64132 13.1469 17
615 2 -0.999583 -7.24649 14.9647 8
616 1 -4.61683 -4.66964 13.2307 18
617 2 -6.62074 -4.77037 12.9973 13
618 1 -1.76547 -3.86972 14.8072 14
619 2 -1.04461 -4.60292 13.1704 19
620 2 -3.68379 -3.70966 14.6046 11
621 1 -10.1842 0.763122 13.1355 11
622 1 -6.54916 -1.23513 13.1757 16
623 2 -7.44055 -0.973399 14.8505 8
624 2 -4.56389 -1.03979 13.2286 19
625 1 -7.01017 1.00001 15.1874 8
626 1 -4.53376 0.948235 13.2118 19
627 2 -6.65097 1.15866 13.3137 15
628 1 -1.00227 -1.06848 13.1733 21
629 1 -3.78982 -1.81482 14.8317 14
630 2 -1.7899 -1.83135 14.8833 16
631 1 -1.77951 1.83456 14.8612 16
632 2 -1.0323 0.962665 13.2125 21
633 2 -3.8798 1.93928 14.7045 14
634 1 -6.53655 4.56992 13.1751 13
635 2 -4.58452 4.60174 13.3177 16
636 1 -0.991812 4.6488 13.2074 19
637 1 -3.78733 3.84623 14.9484 11
638 2 -1.91734 3.80664 14.6423 14
639 1 -4.38575 6.58305 13.208 14
640 2 -6.36692 6.49842 12.9515 11
641 2 -1.0315 6.59173 12.9537 15
642 1 -0.987533 -0.995521 16.4409 11
643 2 -0.91093 0.945828 16.3148 11
644 2 -1.07863 6.61901 0.0413745 21
645 1 -12.3279 -6.64239 0.0605824 19
646 1 -4.66595 6.59909 0.0268314 21
647 2 -10.2295 -6.64532 0.0648535 22
648 2 -4.65774 -6.67201 -0.00464985 21
649 2 -12.2946 6.63566 0.0433052 19
650 1 -10.2122 6.60146 0.0387048 21
651 1 -10.2388 -4.65955 0.0748391 21
652 2 -12.2629 -4.56703 0.0589057 21
653 2 -6.66555 -4.61838 0.042089 21
654 1 -12.3224 -1.06961 0.0393471 22
655 2 -10.2716 -1.04143 0.0512472 21
656 1 -10.2392 0.954931 0.0339484 21
657 1 -4.61203 0.983882 0.0957778 21
658 2 -6.66055 1.02925 0.0581755 21
659 1 -1.0642 -1.03928 0.0342963 21
660 2 -1.07124 1.00634 0.0763807 21
661 2 -15.5978 4.45282 0.0194013 9
662 1 -12.3246 4.54043 0.0310106 20
663 1 -1.04677 4.57809 0.0495583 21
664 2 -10.293 4.60289 0.0607761 21
665 1 -6.69644 4.55878 0.0439627 21
666 1 -6.68147 10.2416 -9.77717 13
667 1 -4.32399 12.296 -9.89271 10
668 2 -4.72983 10.4054 -9.81108 16
669 1 -0.971371 10.2026 -9.85793 19
670 2 -0.957629 12.1873 -9.58008 12
671 2 -10.0765 10.0719 -6.51302 11
672 1 -6.63683 10.1731 -6.54921 19
673 1 -7.26793 13.1021 -4.98041 11
674 1 -4.5068 12.1891 -6.54607 17
675 2 -6.49079 12.1442 -6.32924 12
676 2 -4.60904 10.1533 -6.50625 20
677 1 -0.995872 10.2225 -6.54531 21
678 1 -1.80318 13.026 -8.14496 13
679 1 -1.72513 13.0462 -4.85039 20
680 2 -3.72801 12.8178 -8.19096 13
681 2 -1.07412 12.2926 -6.50626 19
682 2 -3.97096 13.1833 -4.88637 18
683 1 -3.74023 15.0628 -5.29409 8
684 2 -2.03951 15.0268 -4.54042 13
685 1 -12.3502 10.1347 -3.29527 11
686 1 -10.0803 12.3524 -3.2905 11
687 2 -10.4429 10.4535 -3.25341 16
688 2 -9.26836 12.7707 -1.65785 13
689 1 -6.66196 10.2251 -3.24902 22
690 1 -7.34632 13.0209 -1.61631 14
691 1 -4.56903 12.2476 -3.27345 21
692 2 -6.73486 12.34 -3.30687 17
693 2 -4.67086 10.2462 -3.20807 21
694 1 -6.68601 10.186 3.91435e-04 22
695 2 -6.66969 12.2584 0.0180721 19
696 1 -0.992956 10.1939 -3.22891 21
697 1 -1.76444 13.0442 -1.60076 22
698 2 -1.06301 12.2243 -3.2208 22
699 2 -3.8997 13.0837 -1.62959 20
700 2 -4.571 15.5477 -0.0087403 9
701 1 -0.975834 15.8094 -3.2045 12
702 1 -3.83185 15.0752 -1.64594 14
703 2 -1.87814 15.1416 -1.58337 16
704 1 -1.00197 15.7958 0.0271478 15
705 1 -12.3596 10.1119 3.35769 11
706 1 -10.1304 12.3449 3.33657 11
707 2 -10.4545 10.4372 3.33435 16
708 2 -9.28176 12.7447 1.72848 13
709 1 -6.65898 10.2216 3.28851 22
710 1 -7.36069 12.9772 1.65855 14
711 1 -4.54823 12.2508 3.37559 21
712 2 -6.73161 12.3174 3.36101 17
713 2 -4.66795 10.2439 3.34795 21
714 1 -1.0782 10.1952 3.32096 21
715 1 -1.78377 13.0702 1.69422 22
716 2 -3.93165 13.1065 1.73546 20
717 2 -1.16244 12.2155 3.33317 22
718 1 -3.84894 15.0917 1.63497 14
719 1 -0.996063 15.8657 3.24934 12
720 2 -1.8982 15.1637 1.64333 16
721 2 -10.0501 10.0453 6.55898 11
722 1 -6.68485 10.1958 6.59345 19
723 1 -7.22159 13.1527 5.00547 12
724 1 -4.55838 12.26 6.66082 17
725 2 -6.56888 12.1623 6.42051 12
726 2 -4.67116 10.2021 6.66333 20
727 1 -1.00428 10.2499 6.61653 21
728 1 -1.71663 13.1243 4.94567 20
729 2 -4.06488 13.2453 5.00816 17
730 2 -1.1171 12.309 6.59745 19
731 1 -3.81414 15.1462 5.23708 9
732 2 -2.08117 15.0685 4.57545 13
733 1 -6.60677 10.325 9.77637 12
734 1 -4.18998 12.3272 10.0507 10
735 2 -4.73384 10.4262 10.0181 15
736 1 -0.961231 10.2077 9.90645 20
737 1 -1.79019 13.1051 8.22052 13
738 2 -3.73121 12.8166 8.31202 13
739 2 -0.97486 12.1872 9.65142 12
740 1 -0.939464 10.0459 13.2398 9
741 1 -12.3636 10.014 0.0571028 13
742 1 -10.0236 12.3132 0.0240049 14
743 2 -10.4212 10.3788 0.0499833 20
744 1 -4.56577 12.2563 0.0448602 21
745 2 -4.69428 10.228 0.0484461 21
746 1 -1.04412 10.2111 0.0524254 21
747 2 -1.12311 12.247 0.0618161 21
748 2 10.251 -10.385 -0.0908887 20
749 1 12.2047 -10.0117 -0.0932055 14
750 1 9.94582 -12.3207 -0.0589423 13
751 2 10.3949 -10.3681 -3.33881 16
752 2 9.21258 -12.7671 -1.77552 12
753 1 12.2866 -9.94054 -3.41744 12
754 1 10.1251 -12.2705 -3.3255 11
755 2 6.57936 -12.2491 -0.0429697 19
756 2 4.55871 -10.216 -0.0420168 21
757 1 6.57297 -10.1581 -0.0483422 21
758 1 4.50713 -12.2421 -0.0123979 21
759 2 6.62712 -12.3057 -3.35081 17
760 2 4.57352 -10.1906 -3.319 21
761 1 6.57794 -10.1792 -3.32858 21
762 1 7.30113 -12.9708 -1.67274 14
763 1 4.51708 -12.1963 -3.31879 21
764 2 0.999243 -12.2522 -0.0307777 22
765 1 0.917322 -10.2111 -0.0540186 21
766 2 3.82846 -13.0649 -1.69831 20
767 2 1.02867 -12.1741 -3.30884 22
768 1 0.946055 -10.145 -3.32473 21
769 1 1.71831 -13.0085 -1.68178 22
770 1 0.95961 -10.2317 -9.878 18
771 2 0.890818 -12.2206 -9.64003 12
772 1 4.2577 -12.2974 -9.98625 11
773 1 6.56533 -10.1839 -9.88979 13
774 2 4.59831 -10.3997 -9.97105 16
775 1 3.81473 -15.0063 -5.23746 8
776 2 2.07264 -14.9751 -4.57745 13
777 1 1.75595 -13.0399 -8.18371 13
778 1 1.74133 -12.993 -4.92465 20
779 2 3.66641 -12.7907 -8.27914 13
780 2 1.04715 -12.2271 -6.57555 19
781 2 3.93064 -13.0898 -4.9753 18
782 1 4.5055 -12.1619 -6.65083 17
783 1 7.28219 -13.0055 -5.00468 11
784 1 6.64646 -10.1624 -6.65375 19
785 2 4.60365 -10.1226 -6.65774 22
786 2 6.47237 -12.1412 -6.40356 12
787 2 10.004 -10.0949 -6.61843 11
788 1 0.994347 -15.7848 -3.26648 12
789 1 3.78677 -15.0498 -1.62058 14
790 2 1.82766 -15.1094 -1.62144 16
791 1 3.7818 -15.0735 1.67031 14
792 1 0.924971 -15.7802 3.24427 12
793 2 1.82174 -15.13 1.62415 16
794 1 1.71833 -13.029 1.61135 22
795 1 0.944068 -10.2428 3.2505 21
796 2 3.82339 -13.0809 1.6606 20
797 2 0.998918 -12.2762 3.26204 22
798 1 4.51391 -12.2574 3.3087 21
799 1 7.29908 -12.9267 1.61051 14
800 1 6.57095 -10.1932 3.26504 21
801 2 4.55668 -10.2504 3.24497 21
802 2 6.6182 -12.3301 3.3076 17
803 1 10.1494 -12.3622 3.20973 10
804 1 12.2416 -10.1604 3.24006 11
805 2 9.21719 -12.8043 1.64231 12
806 2 10.2464 -10.4571 3.20339 17
807 1 3.74005 -15.0935 5.26615 8
808 2 2.00022 -15.0412 4.59964 13
809 1 1.70102 -13.0525 4.90244 20
810 1 0.966429 -10.2495 6.5729 21
811 2 3.90618 -13.1893 4.94026 18
812 2 0.991941 -12.3174 6.56273 19
813 1 4.47105 -12.2412 6.61359 17
814 1 7.27913 -13.0091 4.96927 11
815 1 6.60407 -10.1811 6.58218 19
816 2 4.53648 -10.2026 6.57888 21
817 2 6.4292 -12.1686 6.36344 13
818 2 9.76122 -10.1539 6.55112 12
819 1 1.68508 -13.0784 8.20372 13
820 1 0.915344 -10.2058 9.88987 19
821 2 3.60335 -12.8648 8.23967 13
822 2 0.860866 -12.1941 9.66029 13
823 1 4.28136 -12.3689 9.91157 9
824 1 6.52374 -10.2453 9.85209 13
825 2 4.54176 -10.4553 9.90125 16
826 1 0.910032 -10.3782 13.1057 10
827 1 0.948031 -15.735 -0.00469385 15
828 2 4.47285 -15.5555 0.0214899 9
829 1 0.976736 -10.1653 -6.59918 21
830 2 6.59314 10.1736 -0.0227006 22
831 1 4.61361 10.2122 -3.28291 21
832 1 1.02041 -7.41191 -14.9593 7
833 2 1.13757 -6.62333 -13.2016 15
834 1 4.55931 -6.57318 -13.1618 13
835 2 6.47321 -6.4624 -13.0306 11
836 1 3.86007 -3.73892 -14.8283 11
837 1 1.02717 -4.58723 -13.0999 19
838 2 1.95238 -3.78589 -14.5682 14
839 1 6.60517 -4.55028 -13.147 13
840 2 4.6055 -4.57601 -13.2449 16
841 1 1.84665 -1.77357 -14.8011 16
842 2 0.95381 -0.941083 -16.282 11
843 2 3.85174 -1.82727 -14.6156 14
844 2 1.06799 -0.960607 -13.1314 21
845 1 1.03703 1.00633 -16.4646 11
846 1 3.84578 1.82177 -14.7882 14
847 1 1.06594 1.08472 -13.1843 22
848 2 1.83253 1.84603 -14.9079 16
849 1 4.62473 -0.933293 -13.1046 19
850 1 7.51861 -0.924339 -14.9185 7
851 2 6.64435 -1.0715 -13.2021 15
852 1 6.57948 1.23983 -13.1503 15
853 2 4.57251 1.08224 -13.1551 19
854 2 7.44398 0.938168 -14.8335 8
855 1 1.81109 3.89586 -14.8233 14
856 2 3.71793 3.7238 -14.577 12
857 2 1.04536 4.61363 -13.1948 19
858 1 4.62239 4.6795 -13.1757 18
859 2 6.61366 4.74472 -12.8984 13
860 1 1.14514 6.65094 -13.1504 17