ITEM: TIMESTEP
1000
ITEM: NUMBER OF ATOMS
500
ITEM: BOX BOUNDS pp pp pp
-30.0 30.0
-30.0 30.0
-30.0 30.0
ITEM: ATOMS id type x y z Coordination
1 1 6.20217 -1.72565 6.86909 13
2 1 0.310367 3.72424 11.3439 11
3 1 8.29769 -0.728807 2.41298 17
4 1 -9.5454 0.678742 0.691409 18
5 1 -2.88886 -0.202114 -7.52142 17
6 1 0.015973 -1.16234 6.8154 20
7 1 -9.75077 0.709511 -2.34007 17
8 1 2.60143 3.14773 -11.6999 8
9 1 6.36045 -9.00311 -4.68562 9
10 1 6.11504 1.10489 5.48184 15
11 1 0.719268 6.88971 -4.41552 17
12 1 1.97664 5.33336 8.65723 15
13 1 -8.46366 -1.86712 0.870179 17
14 1 -11.1236 -2.13654 -0.294687 12
15 1 8.65757 -2.67259 -3.27016 11
16 1 4.10944 3.86986 8.0344 12
17 1 -8.79622 -5.4293 1.8534 10
18 1 -3.95924 -5.95517 -8.93681 9
19 1 8.08823 -1.93515 -8.11023 7
20 1 7.11047 -9.5197 2.36063 10
21 1 -3.49832 8.9776 5.39613 11
22 1 0.709743 9.02092 1.52317 17
23 1 -1.07305 -3.0963 -8.67806 11
24 1 -1.99907 3.92664 9.57998 15
25 1 8.93644 -5.43075 5.0011 8
26 1 -5.37498 7.88291 1.99528 14
27 1 2.05229 5.76556 -7.36447 20
28 1 8.75065 7.04923 -2.28537 11
29 1 -2.7155 9.60557 -6.49103 7
30 1 -6.60685 4.28094 -9.36722 6
31 1 -2.51139 9.14257 -2.97805 11
32 1 2.91073 8.81785 -3.6197 11
33 1 -9.1387 3.40815 -0.605889 15
34 1 -0.138656 6.6781 10.2579 9
35 1 -3.56913 2.29773 -9.71122 11
36 1 -4.75735 -4.48402 6.38911 14
37 1 4.99138 -7.06342 -2.41186 15
38 1 -9.34469 1.11802 4.06192 17
39 1 -8.67563 0.389851 -5.23768 16
40 1 -0.44966 -12.2904 1.28599 11
41 1 7.17932 3.28287 -6.46117 12
42 1 -6.39099 -3.35337 -8.7609 12
43 1 1.11057 5.2508 -11.0615 13
44 1 1.88357 -8.64774 0.126334 16
45 1 0.762436 10.3798 -1.52134 10
46 1 -12.0294 3.92521 1.25944 5
47 1 1.36247 8.39948 7.41844 11
48 1 3.46801 0.635216 6.73338 17
49 1 2.64104 -8.5996 -3.2387 14
50 1 9.98529 -0.42864 -5.42743 8
51 1 -4.0971 -8.75798 1.59218 14
52 1 -1.35338 -9.67937 0.551027 20
53 1 5.24247 -4.71114 6.54537 11
54 1 3.65419 -6.16673 7.91545 9
55 1 5.57347 10.0269 2.68014 11
56 1 -6.08247 -6.15773 2.53471 14
57 1 -3.40188 -11.4699 1.68099 12
58 1 -5.00492 -8.14227 -2.38872 14
59 1 -6.63537 1.16726 5.8135 18
60 1 -9.97612 -1.92257 4.97821 10
61 1 4.37186 -9.71908 1.85754 13
62 1 -3.9108 -4.5728 3.77827 21
63 1 -11.6956 -0.88413 2.15936 10
64 1 -6.19498 9.92449 3.2624 10
65 1 -5.51837 4.86084 3.67011 17
66 1 -3.27251 6.30864 7.71892 13
67 1 -7.04385 -2.97465 -5.07758 15
68 1 -5.17943 1.79409 -4.75137 18
69 1 -4.63148 -4.28476 -5.79532 17
70 1 9.21812 0.355424 5.95525 8
71 1 -3.67135 -4.8132 9.61713 7
72 1 -5.5201 -0.494981 -9.28853 11
73 1 -11.3633 1.70951 -4.46393 9
74 1 -5.95657 -10.2117 -0.0513621 10
75 1 -5.8067 6.49646 6.44925 12
76 1 -3.52039 6.71881 -0.0986534 18
77 1 0.365492 -7.77181 -5.57322 10
78 1 -0.15545 9.65854 4.39646 12
79 1 -10.7502 1.67818 -8.06683 5
80 1 -8.48806 5.94472 -1.16835 13
81 1 -2.36186 -9.46786 -4.54835 11
82 1 4.74385 -9.75858 4.44178 9
83 1 -7.36241 6.88114 -4.26621 11
84 1 -5.20988 -0.446734 7.76606 13
85 1 -7.58624 4.11946 4.98306 16
86 1 1.79693 -4.77143 -6.54469 14
87 1 -2.53405 -1.59223 8.99065 16
88 1 0.106915 -6.63174 9.01909 7
89 1 3.89558 -5.34245 -4.67325 16
90 1 8.79279 3.81309 -0.968876 17
91 1 1.66375 0.35989 -9.8027 17
92 1 6.60189 -7.71212 6.73254 9
93 1 -2.88477 -10.853 -1.44193 17
94 1 -7.31564 -3.29778 3.38198 18
95 1 7.31397 5.95507 7.06988 6
96 1 10.3707 6.15017 0.623982 11
97 1 -0.299086 4.56322 -6.31962 19
98 1 -0.816951 7.36973 -8.35073 13
99 1 3.46595 10.1503 -0.502992 12
100 1 2.9838 2.9541 -8.7202 16
101 1 1.66446 -9.78728 2.72374 15
102 1 6.70439 -5.57932 0.275041 17
103 1 2.27861 -11.2797 -0.863118 9
104 1 -6.75688 4.48584 -6.16306 14
105 1 9.07624 -1.72868 -0.0375972 14
106 1 -3.93187 6.96904 -4.88969 14
107 1 3.41249 -7.82149 -6.57193 10
108 1 -7.52679 -2.3997 6.72102 13
109 1 0.0717145 -9.02025 -2.32833 16
110 1 2.24241 -2.21073 -7.86819 17
111 1 4.17498 7.98548 1.11377 17
112 1 3.72677 -6.77472 0.757357 20
113 1 -6.53068 -6.04491 -6.96123 10
114 1 1.4182 -0.814776 8.95707 13
115 1 -2.05973 1.10197 11.8369 8
116 1 5.3065 -1.2212 -9.79918 10
117 1 -8.21919 3.43694 -3.88427 17
118 1 5.34064 7.36898 -3.07069 10
119 1 7.36121 0.605091 -6.27585 15
120 1 -0.701805 2.32202 -11.1883 13
121 1 -8.37176 4.11343 1.91199 17
122 1 0.264954 -2.95183 9.62944 11
123 1 -7.34258 1.76054 -7.32989 16
124 1 7.92793 -3.93733 2.28075 17
125 1 5.96454 3.43656 4.15225 17
126 1 0.127182 -10.9747 4.7457 9
127 1 8.01044 4.7799 2.31439 15
128 1 8.83221 3.37198 5.47732 8
129 1 -3.2531 -7.14984 -5.48587 14
130 1 4.17144 6.15675 5.82243 15
131 1 -3.55738 5.1307 -7.64854 14
132 1 -0.527122 1.43094 8.80788 18
133 1 -5.09526 -13.5009 -0.967962 6
134 1 7.2503 7.27282 1.20979 17
135 1 -2.95087 3.95548 5.3038 22
136 1 -5.77932 5.0152 0.670487 20
137 1 7.229 5.41851 -4.80253 10
138 1 2.80782 2.11012 9.85352 9
139 1 -0.423374 -0.718686 -10.9984 10
140 1 -0.698964 4.2775 7.23573 21
141 1 6.99514 -5.44331 -4.20047 12
142 1 2.84833 11.0737 2.68784 13
143 1 6.27112 -6.96871 3.67935 17
144 1 -2.53556 8.91362 2.69714 12
145 1 4.84547 -3.10013 -7.87673 10
146 1 3.15198 -4.11867 9.72747 8
147 1 -0.135309 1.74345 -7.94185 19
148 1 -4.90036 3.56444 7.25705 15
149 1 10.4304 2.2423 1.31456 12
150 1 0.689046 8.5398 -6.60366 13
151 1 9.61434 2.84248 -4.20674 13
152 1 -4.19594 -1.74154 11.0986 7
153 1 -2.68006 -6.46163 6.87103 12
154 1 -6.34465 8.08305 -1.24144 12
155 1 4.85285 5.80185 2.90642 18
156 1 -7.13793 -5.25534 5.45462 12
157 1 7.56701 0.657036 -3.10074 17
158 1 -7.57506 -7.09982 -0.813126 10
159 1 7.52933 1.52181 0.471294 20
160 1 9.42669 -7.8505 -0.0916712 7
161 1 2.45238 8.0725 3.54652 17
162 1 -10.0011 -2.49701 -3.56878 10
163 1 -0.799618 6.93483 -1.2855 17
164 1 3.35295 7.83535 -9.07492 9
165 1 -5.672 -0.87438 -6.38285 18
166 1 2.50185 -2.73515 -10.6673 9
167 1 -2.48192 -7.79585 -1.68093 19
168 1 -1.09203 -8.33399 3.53379 14
169 1 9.28066 -4.67224 -1.0908 10
170 1 -12.2021 1.14075 -0.806511 12
171 1 -1.01872 4.5982 -9.23797 17
172 1 -7.81666 -5.34111 -3.94831 9
173 1 8.10013 -2.56937 5.02242 12
174 1 -3.477 -2.80498 -10.0649 12
175 1 -8.02198 7.18303 3.57014 10
176 1 -8.89352 0.783439 7.00292 10
177 1 6.75265 9.31886 -0.622237 12
178 1 11.5481 4.41285 -1.15734 9
179 1 -0.241066 -7.51638 5.8432 12
180 1 6.04844 2.08045 -9.32391 10
181 1 5.22067 5.09952 -7.88841 13
182 1 3.76543 9.7437 5.77865 11
183 1 3.60173 7.42151 -5.99576 14
184 1 10.3339 1.43732 -1.79866 14
185 1 -3.22004 1.08709 7.2688 20
186 1 8.97878 -7.5894 -6.23603 3
187 1 -1.23181 7.48768 5.9193 15
188 1 -2.53913 9.70222 -0.0260637 11
189 1 -3.97853 -7.36808 4.66504 14
190 1 6.41089 -8.86887 -0.726728 13
191 1 -7.99843 -3.76325 -1.27432 16
192 1 -5.30866 5.37026 -2.7173 20
193 2 -11.4446 -1.96793 3.68869 7
194 2 8.81694 6.20473 1.55693 13
195 2 -3.7581 -0.839444 -5.77543 22
196 2 -8.55889 1.40039 -0.893775 21
197 2 -2.00109 -7.33238 4.94774 15
198 2 1.1154 0.94526 9.87769 15
199 2 7.40909 -1.00326 0.551467 16
200 2 -4.04059 7.54076 6.55247 11
201 2 5.18175 -5.11921 -3.33208 17
202 2 -4.04769 0.628203 -8.82007 14
203 2 0.516178 -3.2665 -7.58212 16
204 2 -4.28592 9.09039 3.64863 12
205 2 7.15977 -2.08504 3.2823 18
206 2 6.90221 9.14128 1.43226 10
207 2 0.092436 8.87308 6.12368 12
208 2 4.26608 10.7009 4.13404 9
209 2 3.93119 6.49212 -7.7241 14
210 2 5.57731 0.557788 -10.1939 9
211 2 -9.33967 1.16921 -6.98743 9
212 2 0.0768144 -9.23132 5.11542 10
213 2 -8.90049 1.22641 2.25596 17
214 2 4.96053 -8.46497 -5.70112 10
215 2 -2.1232 -11.468 0.156566 14
216 2 7.4309 1.913 -8.1135 11
217 2 0.779594 7.04277 8.61916 13
218 2 4.06383 -4.3121 8.03923 10
219 2 -5.1988 -5.95795 5.0155 14
220 2 0.802802 -11.7934 0.185667 11
221 2 -7.76311 -5.17581 3.63872 13
222 2 -2.34259 -9.30793 2.46589 17
223 2 -6.31176 -8.54458 -1.08946 12
224 2 -6.32604 11.8537 3.06253 3
225 2 1.84959 1.47583 -7.89091 15
226 2 9.80766 5.58821 -1.26771 12
227 2 2.44705 4.41171 -10.0771 16
228 2 -7.96176 5.12087 -4.8284 11
229 2 7.85124 3.54645 0.813493 19
230 2 1.57775 10.4604 0.284918 11
231 2 -7.09987 6.94564 5.1495 12
232 2 2.55995 9.84194 -2.11636 10
233 2 2.12638 7.98495 -7.75142 13
234 2 -0.623281 5.11833 8.9568 16
235 2 2.12191 -2.62919 9.379 9
236 2 3.71975 -2.1753 -9.2217 11
237 2 0.775051 -8.56806 -3.98976 11
238 2 -4.2673 -6.30341 -6.93057 11
239 2 -7.77171 -5.62772 -2.08128 11
240 2 8.43485 -6.28925 -0.519343 10
241 2 5.78414 6.08242 1.09828 15
242 2 -0.281021 0.943026 -9.92131 17
243 2 0.971122 -1.68833 -10.3609 11
244 2 -5.80845 -5.26369 -8.67967 10
245 2 3.50055 -4.2133 -7.24405 14
246 2 8.49246 -0.830328 -6.53548 10
247 2 -5.40175 -3.17219 4.10285 17
248 2 -1.90147 -1.86145 -10.6949 10
249 2 -1.51342 -7.90254 -5.53849 10
250 2 -0.149176 3.58322 -7.88555 20
251 2 -1.71586 5.78096 6.41687 17
252 2 -7.34934 -6.35424 1.18051 11
253 2 -5.90396 6.11219 2.23223 20
254 2 -6.60189 -4.28174 7.02644 11
255 2 -11.7505 1.11109 -2.64515 8
256 2 5.47824 -8.87437 5.75916 9
257 2 8.43099 1.91006 -1.54685 19
258 2 -1.44219 -1.37876 -7.63397 18
259 2 4.48427 7.67231 3.09107 17
260 2 2.70092 9.89362 7.35011 6
261 2 -2.90149 -0.333075 11.2181 8
262 2 -7.04677 3.19607 3.21722 17
263 2 -6.78458 -1.06646 -4.71213 17
264 2 10.7219 4.14439 0.634691 13
265 2 -9.96908 -1.41346 1.52719 15
266 2 -3.59279 5.20116 -5.62163 14
267 2 2.82014 1.68246 -10.5162 15
268 2 -7.54814 4.54182 0.222495 16
269 2 6.09344 -8.74403 -2.68714 11
270 2 1.90488 -9.53529 -1.47917 14
271 2 -7.1349 8.42735 2.44237 10
272 2 0.119487 -8.62806 2.02757 17
273 2 2.92588 -10.0031 0.827565 15
274 2 2.93666 5.07163 7.01494 14
275 2 -0.952581 10.0553 -2.18434 10
276 2 -3.72365 -5.26308 7.85414 11
277 2 -4.57295 -7.42764 2.79049 14
278 2 -3.29858 -1.17169 7.13243 16
279 2 0.138127 6.20846 -9.75887 15
280 2 7.34677 -1.38891 -3.28799 15
281 2 1.99185 -1.26183 6.90744 17
282 2 7.89428 7.77813 -0.865614 11
283 2 3.11292 7.81097 5.50873 16
284 2 8.05807 -4.45571 -2.82256 11
285 2 -8.83637 -3.90443 0.522259 13
286 2 -0.245726 5.36044 11.4278 8
287 2 5.03371 -0.61084 6.08167 15
288 2 0.543602 3.51352 -11.9757 10
289 2 1.85477 3.64731 9.87636 15
290 2 6.46545 -5.27326 2.55544 16
291 2 -9.55228 -0.75049 -3.76924 13
292 2 -5.52165 6.76547 -3.98771 12
293 2 -7.16482 3.59092 -7.791 9
294 2 -0.84599 -6.96855 7.51182 9
295 2 4.34553 9.88657 1.06439 16
296 2 -5.93741 -2.8507 -6.79914 16
297 2 9.0595 0.916012 1.51576 13
298 2 -5.21406 6.4529 -1.03816 16
299 2 8.89465 -3.95331 3.9248 10
300 2 -2.75979 -4.04085 5.56822 16
301 2 -6.44705 -5.01217 -5.35162 13
302 2 1.8877 8.52286 -5.11662 12
303 2 -8.82561 5.45237 3.22042 12
304 2 0.33199 -4.92547 9.67265 8
305 2 -10.1705 3.72659 0.976929 13
306 2 -2.59645 7.92868 -1.43835 15
307 2 -1.11264 2.45137 10.7306 11
308 2 -9.49972 1.94612 -4.34939 13
309 2 5.41575 8.52174 -1.60251 14
310 2 -3.63023 4.43493 8.19421 14
311 2 -0.639268 -1.51877 8.817 15
312 2 -5.20895 -2.33156 -9.50793 12
313 2 0.312779 6.52594 -6.24837 17
314 2 -3.49779 -9.02837 -0.345422 17
315 2 6.67864 -3.67409 6.2109 13
316 2 10.5092 3.17064 -2.61895 11
317 2 3.2618 -10.2643 3.74244 11
318 2 6.19565 1.9852 -5.49283 15
319 2 4.50749 4.47209 4.62854 17
320 2 -5.25554 1.62839 7.03418 17
321 2 -8.54602 -3.73019 -4.0997 12
322 2 -0.688 -8.03466 -0.839216 17
323 2 -1.24645 9.42286 1.35104 16
324 2 -8.37235 2.41997 5.60691 12
325 2 -6.92348 -1.95687 2.03307 20
326 2 -1.72493 -9.82122 -2.59802 15
327 2 3.82875 1.93596 8.29487 14
328 2 -2.10482 6.10717 -8.23678 13
329 2 6.06872 5.03434 -6.25355 12
330 2 1.8333 -6.67081 -6.24695 13
331 2 11.106 0.0478255 6.2596 3
332 2 5.56352 5.30874 7.43863 11
333 2 -1.16902 8.76042 -7.01143 11
334 2 -6.74561 2.64858 -5.31993 15
335 2 -2.50624 -4.47422 -9.12051 10
336 2 -1.81727 8.52052 4.3613 11
337 2 -3.28033 8.9551 -4.79057 8
338 2 -7.77328 7.33554 -2.27438 9
339 2 -5.8229 4.42903 5.81876 15
340 2 2.39934 4.4647 -6.08943 20
341 2 6.37816 -2.26802 -8.55325 8
342 2 -8.63426 4.48002 -2.26966 13
343 2 -1.96692 3.10889 -10.1079 13
344 2 5.32568 -6.5611 7.22333 9
345 2 -7.26323 -0.433462 6.89746 14
346 2 -3.85006 -6.56228 -2.35288 13
347 2 -9.55197 -0.140362 5.5451 10
348 2 7.49506 -6.67603 5.23986 10
349 2 -12.6985 2.67631 0.0450417 7
350 2 -4.97178 -0.744945 9.62201 9
351 2 -0.00469628 -11.2912 2.90143 13
352 2 7.8701 1.60822 5.71648 11
353 2 3.51505 -7.0697 -3.50845 17
354 2 -4.00182 8.50965 0.862973 13
355 2 -6.6594 0.177742 -7.78463 15
356 2 -8.0958 -2.46663 4.83698 15
357 2 1.78934 -6.55656 8.0766 8
358 2 4.8191 3.31169 -8.57905 15
359 2 8.3424 4.36144 6.8794 6
360 2 7.88301 -1.10152 6.24058 12
361 2 7.64836 -6.761 -5.41889 7
362 2 8.34179 -8.69453 1.17135 9
363 2 8.83599 -4.08143 0.674038 13
364 2 -2.02817 2.64663 8.07124 16
365 2 8.40021 3.98497 -5.01623 11
366 2 -10.182 -2.93524 -1.7861 12
367 2 -11.294 -0.215525 -0.114952 12
368 2 5.5731 -8.53655 3.1706 14
369 2 4.45644 8.03578 -4.50593 12
370 2 11.5452 1.42572 -0.202671 8
371 2 7.2702 6.62087 -3.47266 10
372 2 4.64476 -5.07387 0.406344 16
373 2 9.7416 -2.4972 -1.60418 8
374 2 5.79018 -10.0605 0.655369 11
375 2 -3.93039 -8.47018 -4.16537 12
376 2 2.29815 7.91133 1.64144 16
377 2 1.30844 9.95697 3.22224 14
378 2 -4.95035 -10.6527 1.59427 12
379 2 -3.48788 -3.09164 10.1367 10
380 2 7.67626 3.90467 4.01988 13
381 2 9.13396 0.957598 -4.50051 13
382 2 -4.55135 3.94013 -8.84457 11
383 2 -4.87339 -11.6574 -1.21522 10
384 2 5.42013 -7.29957 -0.0516716 20
385 1 -5.79911 -1.18911 -2.84 18
386 1 -0.189113 -1.18911 -6.13 19
387 1 -2.99411 -1.95589 -4.485 20
388 1 -0.955887 -3.99411 -4.485 15
389 1 -3.76089 -4.76089 -2.84 16
390 1 -0.189113 -1.18911 -2.84 21
391 1 -2.99411 -1.95589 -1.195 21
392 1 -0.955887 -3.99411 -1.195 19
393 2 -6.56589 -1.95589 -1.195 17
394 2 -2.99411 -3.99411 -4.485 16
395 2 -0.955889 -1.95589 -4.485 19
396 2 -3.76089 -1.18911 -2.84 20
397 2 -0.189111 -4.76089 -2.84 16
398 2 -2.99411 -3.99411 -1.195 17
399 2 -0.955889 -1.95589 -1.195 21
400 1 -5.79911 -1.18911 0.45 18
401 1 -5.79911 -1.18911 3.74 18
402 1 -0.189113 -6.79911 0.45 17
403 1 -3.76089 -4.76089 0.45 15
404 1 -0.189113 -1.18911 0.45 21
405 1 -2.99411 -1.95589 2.095 21
406 1 -0.955887 -3.99411 2.095 19
407 1 -0.189113 -1.18911 3.74 21
408 1 -2.99411 -1.95589 5.385 19
409 1 -0.955887 -3.99411 5.385 17
410 2 -3.76089 -1.18911 0.45 21
411 2 -0.189111 -4.76089 0.45 18
412 2 -2.99411 -3.99411 2.095 18
413 2 -0.955889 -1.95589 2.095 21
414 2 -3.76089 -1.18911 3.74 19
415 2 -0.189111 -4.76089 3.74 16
416 2 -0.955889 -1.95589 5.385 19
417 1 -6.56589 1.61589 -1.195 18
418 1 -2.99411 3.65411 -4.485 16
419 1 -0.955887 1.61589 -4.485 19
420 1 -3.76089 0.849113 -2.84 19
421 1 -0.189113 4.42089 -2.84 18
422 1 -2.99411 3.65411 -1.195 20
423 1 -0.955887 1.61589 -1.195 21
424 2 -5.79911 0.849111 -2.84 19
425 2 -0.189111 0.849111 -6.13 19
426 2 -2.99411 1.61589 -4.485 18
427 2 -0.955889 3.65411 -4.485 19
428 2 -3.76089 4.42089 -2.84 17
429 2 -0.189111 0.849111 -2.84 21
430 2 -2.99411 1.61589 -1.195 21
431 2 -0.955889 3.65411 -1.195 21
432 2 -0.189111 6.45911 -2.84 16
433 1 -6.56589 1.61589 2.095 20
434 1 -3.76089 0.849113 0.45 21
435 1 -0.189113 4.42089 0.45 19
436 1 -2.99411 3.65411 2.095 19
437 1 -0.955887 1.61589 2.095 21
438 1 -3.76089 0.849113 3.74 21
439 1 -0.189113 4.42089 3.74 17
440 1 -0.955887 1.61589 5.385 19
441 2 -5.79911 0.849111 0.45 20
442 2 -5.79911 0.849111 3.74 18
443 2 -3.76089 4.42089 0.45 17
444 2 -0.189111 0.849111 0.45 21
445 2 -2.99411 1.61589 2.095 21
446 2 -0.955889 3.65411 2.095 19
447 2 -3.76089 4.42089 3.74 17
448 2 -0.189111 0.849111 3.74 20
449 2 -2.99411 1.61589 5.385 21
450 2 -0.955889 3.65411 5.385 19
451 2 -0.189111 0.849111 7.03 20
452 2 -0.189111 6.45911 0.45 14
453 1 2.61589 -1.95589 -4.485 20
454 1 1.84911 -4.76089 -2.84 19
455 1 5.42089 -1.18911 -2.84 16
456 1 2.61589 -1.95589 -1.195 21
457 1 4.65411 -3.99411 -1.195 20
458 2 1.84911 -1.18911 -6.13 21
459 2 2.61589 -3.99411 -4.485 18
460 2 4.65411 -1.95589 -4.485 15
461 2 1.84911 -1.18911 -2.84 21
462 2 2.61589 -3.99411 -1.195 21
463 2 4.65411 -1.95589 -1.195 19
464 1 1.84911 -4.76089 0.45 19
465 1 5.42089 -1.18911 0.45 20
466 1 2.61589 -1.95589 2.095 19
467 1 4.65411 -3.99411 2.095 17
468 1 1.84911 -4.76089 3.74 11
469 1 5.42089 -1.18911 3.74 19
470 1 2.61589 -1.95589 5.385 18
471 2 1.84911 -6.79911 0.45 17
472 2 1.84911 -1.18911 0.45 21
473 2 2.61589 -3.99411 2.095 17
474 2 4.65411 -1.95589 2.095 20
475 2 1.84911 -1.18911 3.74 20
476 1 1.84911 0.849113 -6.13 18
477 1 2.61589 3.65411 -4.485 14
478 1 4.65411 1.61589 -4.485 15
479 1 1.84911 0.849113 -2.84 21
480 1 2.61589 3.65411 -1.195 17
481 1 4.65411 1.61589 -1.195 19
482 2 2.61589 1.61589 -4.485 18
483 2 1.84911 4.42089 -2.84 16
484 2 5.42089 0.849111 -2.84 17
485 2 2.61589 1.61589 -1.195 21
486 2 4.65411 3.65411 -1.195 16
487 1 1.84911 0.849113 0.45 21
488 1 5.42089 4.42089 0.45 18
489 1 2.61589 3.65411 2.095 20
490 1 4.65411 1.61589 2.095 20
491 1 1.84911 0.849113 3.74 20
492 1 2.61589 3.65411 5.385 19
493 1 1.84911 6.45911 0.45 15
494 2 1.84911 4.42089 0.45 18
495 2 5.42089 0.849111 0.45 21
496 2 2.61589 1.61589 2.095 20
497 2 4.65411 3.65411 2.095 20
498 2 1.84911 4.42089 3.74 17
499 2 5.42089 0.849111 3.74 19
500 2 2.61589 1.61589 5.385 20
