ITEM: TIMESTEP
14000
ITEM: NUMBER OF ATOMS
1500
ITEM: BOX BOUNDS pp pp pp
-30.0 30.0
-30.0 30.0
-30.0 30.0
ITEM: ATOMS id type x y z Coordination
1 1 -12.1896 -6.60237 -5.44193 17
2 1 2.80325 -12.882 1.87755 9
3 1 -13.7678 7.11942 0.578905 19
4 1 -13.9379 0.932032 -15.0319 16
5 1 -0.764686 -4.45157 10.6814 17
6 1 -11.5463 -1.15091 -15.5563 12
7 1 -11.0098 -9.77622 5.61514 18
8 1 -17.6198 -5.69648 0.522408 14
9 1 -3.8629 1.7658 13.9721 15
10 1 2.99494 -0.0735569 5.19727 19
11 1 -0.757389 9.78654 9.26659 16
12 1 5.01816 -0.31754 0.654216 23
13 1 -8.06029 9.38142 -8.33543 18
14 1 2.25956 -3.83256 11.3251 20
15 1 8.44977 1.80277 8.90006 18
16 1 -5.71444 10.7346 -9.399 24
17 1 -1.26589 9.09542 -13.0229 15
18 1 -10.687 1.7923 -4.13182 17
19 1 -6.01944 -1.33364 -9.64195 20
20 1 0.82672 -7.35975 1.64197 18
21 1 -2.62019 0.899353 8.01182 23
22 1 1.86482 -11.3453 -3.25777 18
23 1 -12.9753 -11.539 -8.30762 12
24 1 -0.468731 -3.71188 -4.50387 20
25 1 -0.566103 -4.62362 -12.4842 18
26 1 -1.99889 4.51491 15.2661 11
27 1 -7.10094 -11.1578 0.144801 16
28 1 2.54107 -6.46289 12.5725 9
29 1 -13.7512 1.44321 1.23935 19
30 1 -10.5283 3.73352 -7.78162 19
31 1 -12.6046 12.437 -1.42405 14
32 1 -4.1591 3.98041 -12.6541 18
33 1 -0.559356 -8.50977 -12.6785 12
34 1 -0.950926 1.14569 14.6098 18
35 1 -17.5455 4.02221 -6.02708 11
36 1 -7.40659 12.2654 12.0671 7
37 1 -14.608 9.25107 -2.09885 14
38 1 -1.37852 13.872 -4.59763 21
39 1 -6.10263 -11.2754 5.77575 15
40 1 1.12085 -4.28911 -6.97554 21
41 1 -10.0594 2.27504 13.0625 10
42 1 -17.3772 -2.40367 -6.55825 17
43 1 6.90203 1.60829 5.94364 20
44 1 -10.493 8.7062 -10.0617 22
45 1 -15.4219 -7.50342 -0.716999 16
46 1 -12.5568 10.6538 -9.78867 13
47 1 -5.27341 5.22208 -10.0359 21
48 1 -3.51673 5.70484 6.13277 19
49 1 -3.71549 8.86579 12.5024 14
50 1 3.86695 -8.19989 -3.99913 17
51 1 1.86219 9.88814 13.3564 10
52 1 1.24802 -2.21115 -12.5934 16
53 1 1.97903 -11.5426 5.04341 10
54 1 -12.3316 -2.21647 1.21959 22
55 1 3.73647 -8.56492 10.3738 9
56 1 -3.54517 -7.64726 7.37726 17
57 1 -12.3868 4.13862 -4.99168 22
58 1 9.20367 -0.0959156 7.09165 17
59 1 3.67673 -1.65594 -2.4308 23
60 1 -9.6292 10.9589 10.5612 8
61 1 -1.10698 3.96333 6.51109 22
62 1 -14.188 -3.2574 3.1019 19
63 1 -8.96936 -2.38697 -9.48678 20
64 1 -13.527 10.5304 1.40528 14
65 1 -13.1559 8.6027 -12.16 12
66 1 2.70678 4.183 -7.56469 25
67 1 3.67223 -3.49111 -5.27133 23
68 1 7.44153 -5.29676 4.23921 13
69 1 -3.29157 -10.4375 8.50081 14
70 1 -6.49406 16.4328 -3.66878 14
71 1 -11.1765 6.94939 5.79813 17
72 1 -8.27735 3.96583 6.67175 20
73 1 -11.3636 -9.1469 14.2419 7
74 1 8.53098 -5.48506 -4.95185 14
75 1 -14.8335 -0.650553 3.73858 20
76 1 9.3186 -3.17595 -7.15486 14
77 1 -2.00499 3.32436 -14.7512 21
78 1 -9.30756 -4.78188 -17.6551 9
79 1 -6.51387 11.3947 -0.34653 21
80 1 -9.59669 3.1563 -19.7304 9
81 1 -1.54105 14.4206 -10.1317 13
82 1 -3.44274 12.4009 1.02717 17
83 1 -6.62115 -5.30106 3.97512 19
84 1 -4.31023 -4.13554 -9.81823 19
85 1 4.45037 -10.0984 -7.34421 11
86 1 -6.4547 5.38046 8.98607 17
87 1 -10.462 -4.33604 -3.52652 17
88 1 3.1554 -2.57712 3.3045 20
89 1 -15.5238 -5.1141 -8.3647 14
90 1 -2.59024 -7.06718 4.31906 19
91 1 -9.12068 9.89088 1.15728 18
92 1 -0.0254267 2.65673 -17.7928 11
93 1 -2.26595 6.9036 -7.58146 18
94 1 0.725183 -7.49937 -1.76002 19
95 1 -11.7547 -9.34251 8.36258 15
96 1 -9.46578 -8.78784 -6.05762 20
97 1 -18.746 -2.46266 5.96945 9
98 1 7.20589 5.19769 9.066 17
99 1 6.83831 7.91209 0.562092 17
100 1 -9.18461 14.7537 4.21404 14
101 1 -10.9598 13.3775 -3.93781 13
102 1 -6.92964 -4.45214 -12.1922 16
103 1 10.8016 -3.94009 11.2261 7
104 1 -8.55871 11.4498 -4.99695 18
105 1 8.80475 -3.84603 -10.8415 9
106 1 -11.4327 9.04 -7.25808 18
107 1 -3.51522 15.9482 0.347734 13
108 1 -1.54227 6.02759 -13.6822 19
109 1 0.6449 -8.32521 4.8045 17
110 1 -12.0404 9.21701 -1.1598 22
111 1 0.944022 11.0033 -5.12035 20
112 1 5.78951 3.71158 3.83895 17
113 1 -14.3748 9.17716 -7.94812 13
114 1 -14.0685 -2.70621 -14.9881 14
115 1 -7.43582 12.1681 8.21535 18
116 1 -16.3633 0.970863 -6.85735 17
117 1 9.02498 5.4928 -0.989439 18
118 1 -8.76236 15.1531 7.66693 8
119 1 -8.48686 14.5747 -6.24837 16
120 1 0.768001 -3.29981 8.22137 19
121 1 -18.1106 -7.76812 2.23659 12
122 1 -8.32773 -7.35528 4.45233 19
123 1 -7.07574 -13.6475 -5.92895 14
124 1 -11.068 10.4931 -13.5784 10
125 1 -3.34914 12.5235 -7.75705 23
126 1 9.2348 7.62565 -6.05127 13
127 1 -8.85857 -5.89234 10.0409 19
128 1 -10.1786 3.74494 -2.22969 20
129 1 -1.46882 16.1703 -1.74606 13
130 1 -1.14028 11.1201 12.6793 15
131 1 -4.98458 17.7553 -0.792578 14
132 1 -9.98369 -2.2867 -6.55901 19
133 1 6.46555 -5.65743 -0.0405616 15
134 1 -9.42979 -3.38853 3.69621 19
135 1 -17.7513 -2.29421 2.43498 20
136 1 -12.4988 -8.39659 3.93054 25
137 1 -13.4873 -0.640747 -1.45029 21
138 1 -4.3138 -10.8294 2.56008 21
139 1 -8.48398 -1.25121 -4.30758 21
140 1 4.84781 -4.98089 -2.86523 21
141 1 -7.76605 8.24261 4.37089 19
142 1 -11.0077 2.5808 2.94991 18
143 1 -9.05628 8.17366 -12.6712 16
144 1 -15.439 6.7286 -16.6641 6
145 1 -14.1685 -8.46343 -8.53348 15
146 1 -15.494 -2.28994 6.52611 18
147 1 -6.50008 -8.05293 1.96789 19
148 1 -5.36961 -12.6755 8.35628 7
149 1 10.4291 2.80795 5.69599 16
150 1 2.68082 2.29465 -10.3462 22
151 1 0.840434 1.7117 12.6021 22
152 1 -4.08345 6.24676 -17.6729 10
153 1 5.80095 0.769855 -11.8123 20
154 1 -12.2654 -2.68558 -10.8101 20
155 1 -10.9706 11.8918 -6.93465 12
156 1 -9.41558 13.6635 -1.76703 16
157 1 2.19394 2.13453 8.67696 18
158 1 -4.26153 -9.44103 -13.1602 11
159 1 -15.6682 8.90591 -10.8895 11
160 1 -4.03809 7.34903 -11.7939 18
161 1 -9.00899 4.51168 10.9818 14
162 1 -10.5491 12.4882 6.85453 11
163 1 -0.962414 -7.06973 -6.39472 19
164 1 -10.9853 -14.2624 -6.25186 11
165 1 6.87135 -7.30554 -2.50552 13
166 1 1.47761 -4.4471 -2.10851 20
167 1 4.30112 7.18894 -5.4162 21
168 1 -5.98477 10.4304 -3.81368 24
169 1 -16.7171 1.81531 2.63376 18
170 1 -2.9983 9.2505 6.81967 17
171 1 6.24357 2.0794 0.739334 20
172 1 -1.58485 6.36957 3.18683 20
173 1 -16.1132 5.41085 3.54442 19
174 1 -8.33532 -8.09372 -9.28766 20
175 1 1.43738 10.2691 -12.3408 13
176 1 -0.0353887 0.777718 6.54785 22
177 1 3.4533 7.83653 -8.97341 18
178 1 1.06682 -10.5051 -6.31017 15
179 1 -4.16851 -6.59061 -11.6845 19
180 1 4.64263 1.29633 -7.65879 22
181 1 -10.1614 -4.14998 7.04049 22
182 1 -9.74865 -14.344 -3.90012 12
183 1 -11.6243 -8.5959 -7.37679 19
184 1 4.68471 12.5811 -6.58882 14
185 1 1.07925 -0.949437 -15.4824 13
186 1 1.58073 1.94235 15.4386 11
187 1 9.32382 2.21326 -0.422393 15
188 1 -8.64815 -4.60028 -0.949287 18
189 1 5.3545 -3.28685 -11.0782 15
190 1 -6.5914 -4.94386 0.655472 20
191 1 -10.4025 -1.22291 -12.1765 16
192 1 -11.3052 1.33743 -9.76551 20
193 1 6.16739 8.06604 9.13784 15
194 1 5.73685 2.24275 10.7033 17
195 1 -5.56554 -8.67767 -7.60832 18
196 1 -0.968074 -4.22961 4.32293 21
197 1 -5.49849 7.90806 -14.9204 15
198 1 -1.43386 8.58164 -0.142153 18
199 1 -16.9288 -8.14224 5.53462 12
200 1 -3.75603 15.1576 3.76626 14
201 1 -4.81013 -1.86016 8.67473 16
202 1 -12.3982 -8.78151 -13.8681 10
203 1 -11.7427 -3.59347 -13.5764 18
204 1 -12.1327 -4.46573 -8.0734 17
205 1 -3.71502 -7.11367 1.36879 20
206 1 11.1188 0.691459 1.2499 12
207 1 -7.2891 -4.01536 -4.73935 20
208 1 -12.215 -6.21132 9.98391 20
209 1 -6.83923 -7.76282 -1.07029 17
210 1 -3.14916 -10.6189 0.0737667 17
211 1 -2.63287 15.6481 -7.37275 15
212 1 -4.74621 0.933412 -14.4109 22
213 1 -12.9124 -5.90431 -13.8606 15
214 1 -8.54446 -13.3019 -0.645048 9
215 1 -9.26162 -10.0948 -11.1838 15
216 1 -14.6914 4.22469 -19.1636 5
217 1 4.37732 5.54263 10.3181 22
218 1 -8.93614 4.36368 -13.6928 21
219 1 -4.98922 12.8844 -14.0649 7
220 1 -6.01236 -2.38614 3.14899 24
221 1 -3.45273 17.4088 -3.42011 11
222 1 -1.2859 12.1208 3.63803 17
223 1 6.87381 0.112332 3.23559 19
224 1 -18.6287 3.9895 4.39521 10
225 1 -8.99441 -7.31773 13.2517 12
226 1 -10.8629 12.0463 1.05572 19
227 1 -1.56207 -7.06148 -14.6227 14
228 1 -1.31916 -9.85878 2.24422 17
229 1 -4.0096 -1.22146 15.1287 9
230 1 -16.7791 -4.66157 4.31301 16
231 1 10.9813 2.96698 -10.0982 8
232 1 2.71263 -1.68954 -7.16135 20
233 1 4.10449 -11.4459 -4.86659 9
234 1 -10.2426 -6.96217 -0.819063 18
235 1 -17.2013 7.77186 -2.91542 9
236 1 -0.43906 2.99443 9.17215 21
237 1 3.47545 9.25104 8.62259 19
238 1 -11.0301 0.709029 -0.0697571 19
239 1 9.68338 -5.64144 -1.74642 11
240 1 -5.66756 10.0338 2.462 20
241 1 -7.87824 7.2439 1.37243 21
242 1 -0.91609 -12.662 6.81102 8
243 1 8.99545 -2.27877 5.01279 19
244 1 -4.47533 7.59252 9.72237 18
245 1 -14.8314 2.15981 -9.32781 14
246 1 -5.33 2.8502 7.89682 19
247 1 -6.32006 15.4627 2.17774 15
248 1 -7.73732 6.8163 -10.0814 19
249 1 -13.1252 2.43729 9.11787 12
250 1 -17.8835 4.15672 1.00288 15
251 1 -7.05198 -1.9532 -6.95474 20
252 1 -16.1592 5.36358 -1.28578 20
253 1 1.47087 4.50382 11.2848 19
254 1 -14.5185 -10.1576 2.24845 16
255 1 2.80219 -8.14887 7.07267 12
256 1 -16.3764 7.9528 0.19942 14
257 1 -1.58981 -1.7353 13.2549 14
258 1 -3.41607 -9.37111 -6.16134 20
259 1 -12.6502 1.48198 -6.53844 18
260 1 -0.657635 6.14995 -16.8398 10
261 1 1.4653 16.0951 1.04211 8
262 1 -16.3422 5.44949 -10.8684 11
263 1 3.07875 2.22292 -15.7183 14
264 1 -14.4155 -10.4535 5.22995 12
265 1 -20.4172 -1.96362 0.333284 11
266 1 -5.78014 -5.63813 -2.48999 22
267 1 6.33282 2.42201 -9.51728 17
268 1 -7.6557 0.93666 -15.2307 19
269 1 -15.3709 3.16067 -12.8289 12
270 1 -9.63944 9.79062 7.12364 16
271 1 -12.6134 10.1162 5.15977 10
272 1 -13.3935 5.26621 8.0736 14
273 1 5.41204 -1.74488 -8.30417 19
274 1 2.99983 3.30641 -12.9063 21
275 1 -7.62717 7.84091 -3.96233 20
276 1 -3.49464 -6.53373 -4.55656 20
277 1 -5.90727 13.5454 5.16087 18
278 1 -9.17031 5.07645 -5.0329 20
279 1 5.1052 -6.9053 2.58891 14
280 1 11.5645 1.01354 8.22018 13
281 1 -15.6843 -1.19473 -4.27153 17
282 1 -9.99318 -9.22299 2.16671 19
283 1 -5.12405 13.6928 -4.84068 20
284 1 -15.0502 -4.27144 -5.52168 19
285 1 -12.393 5.97516 -8.3149 19
286 1 -5.96855 14.2227 -8.30033 17
287 1 1.15337 13.8498 3.50144 15
288 1 -17.0266 -3.33291 -1.12295 17
289 1 -3.63286 -7.14495 -8.30864 19
290 1 -14.8528 -6.66149 2.57968 20
291 1 -15.4564 6.44467 -8.04083 17
292 1 -0.465784 -6.15936 6.94042 16
293 1 -11.7674 -11.2816 2.77505 13
294 1 -1.11559 11.6332 -10.8559 18
295 1 -9.10915 4.03974 -10.4319 20
296 1 -10.8294 -10.4322 -0.80832 16
297 1 9.08011 7.41471 8.93026 11
298 1 -6.8761 0.913393 7.31023 19
299 1 -17.9281 1.58758 -4.08349 16
300 1 -10.0345 6.0651 8.26527 18
301 1 -10.4163 -10.7521 11.271 10
302 1 -3.8765 -1.65525 -7.73082 20
303 1 3.32738 -7.63404 -9.87504 12
304 1 -6.06486 -5.64262 7.46304 20
305 1 -10.7758 -0.589202 3.46996 15
306 1 -4.46773 -3.97225 5.81008 22
307 1 1.56981 -6.58744 -4.72154 20
308 1 -4.70481 -7.05728 -14.8361 14
309 1 -7.86746 -3.36984 8.96414 18
310 1 -1.06885 -9.44528 -4.09095 18
311 1 -9.88575 6.78331 -18.0196 9
312 1 4.19166 -10.6628 2.37664 9
313 1 -3.96649 16.8034 -9.71473 9
314 1 -5.79586 -1.61944 12.7557 14
315 1 -9.35293 -7.7165 7.72409 21
316 1 3.60464 -0.33789 10.4341 16
317 1 6.68115 3.95767 -2.20355 17
318 1 -9.25399 4.82423 3.44729 19
319 1 -1.14745 0.87888 -12.1983 19
320 1 4.33046 -5.18858 5.52998 20
321 1 10.2482 4.70428 -4.62674 16
322 1 -9.85759 -0.908098 7.52344 22
323 1 -2.58241 10.999 -4.68416 18
324 1 5.18659 -6.78552 7.80043 13
325 1 -12.1383 -12.1916 -3.14702 12
326 1 -5.1642 14.9358 7.81253 12
327 1 -11.4529 -8.94365 -10.6828 17
328 1 4.67136 11.1759 10.9598 8
329 1 -12.0058 -2.24204 5.49839 18
330 1 -9.96288 -5.61155 -7.74332 15
331 1 -14.7758 7.66338 5.81324 11
332 1 -9.33688 -4.26618 -12.5111 14
333 1 -8.54266 14.0014 0.72102 17
334 1 -10.3163 -11.4036 -8.5984 16
335 1 -4.34586 -2.28436 -15.6272 19
336 1 -8.10909 -10.5259 -2.7793 18
337 1 -10.9355 -5.72577 4.94924 16
338 1 6.84922 -1.44598 9.13351 18
339 1 -12.1724 -6.64072 13.2117 9
340 1 -13.5298 4.43595 -16.4856 15
341 1 5.84864 9.60159 5.59015 18
342 1 -17.4826 -10.7645 -0.604716 7
343 1 -2.40094 5.32599 -10.4148 20
344 1 -0.504785 16.8674 -5.24963 11
345 1 -7.66757 11.3831 -12.3436 12
346 1 -0.933488 11.1052 6.42557 21
347 1 -14.8664 1.61598 -3.8667 21
348 1 5.45598 13.5128 -9.9022 8
349 1 -10.2408 -6.81336 -12.1654 20
350 1 -5.98089 -9.83054 -10.5106 14
351 1 -1.47058 -6.55136 -10.7777 18
352 1 -16.1178 8.78975 2.77748 11
353 1 1.68222 11.0829 10.4249 16
354 1 5.9988 10.897 2.21536 19
355 1 -3.80632 9.96704 -1.15872 19
356 1 -8.41454 6.80658 -15.6303 17
357 1 -0.284358 2.59796 -9.29099 20
358 1 -3.98735 -4.83339 2.77242 19
359 1 -15.4791 -1.40139 0.734184 20
360 1 -3.37962 0.281072 -19.3072 9
361 1 10.536 7.15333 0.925931 13
362 1 -0.239603 -10.316 -0.621615 19
363 1 12.2738 -0.936926 -3.33737 8
364 1 -1.92682 -1.37053 -13.5442 18
365 1 -4.42169 -8.68524 -2.72683 20
366 1 -6.51931 -12.4332 2.48388 13
367 1 -2.41457 -4.51462 8.00774 22
368 1 -14.5311 6.3986 -13.6197 15
369 1 -2.60346 -9.63608 -9.94139 18
370 1 -2.0362 0.238579 -15.6258 20
371 1 -0.153956 -4.21446 13.7159 10
372 1 -18.7212 -5.26333 -5.85192 9
373 1 6.00016 -3.08877 -13.7593 8
374 1 7.64411 2.5551 -5.45734 19
375 1 -7.82637 12.232 3.229 17
376 1 -2.36079 -4.34802 -6.83747 22
377 1 0.126861 3.84557 -11.8344 19
378 1 7.48058 -1.46934 -12.3122 14
379 1 -10.9688 -3.62271 10.6825 15
380 1 5.21064 10.6338 -1.23326 16
381 1 -7.54485 -7.11778 -15.8861 12
382 1 -7.39431 -2.39121 6.36694 22
383 1 -5.25372 14.4876 -1.10619 19
384 1 -12.717 1.64494 -18.1729 11
385 1 -13.2173 2.85809 -1.94236 20
386 1 -7.87207 -8.59495 10.6469 13
387 1 -4.58152 9.59381 -6.61548 20
388 1 7.70766 5.2032 2.00245 21
389 1 -17.0568 -8.12455 -3.79935 10
390 1 -4.74046 -11.8338 -2.25586 13
391 1 -7.73816 16.6797 -0.832097 11
392 1 -2.37582 -0.807686 -10.5822 20
393 1 -0.786498 7.93886 -4.72565 21
394 1 10.5226 -0.0228363 -6.17269 13
395 1 1.16548 10.8636 -9.0819 16
396 1 -1.36288 -5.84252 1.30152 15
397 1 -6.54958 1.23917 13.4011 16
398 1 -1.32445 12.7075 9.73445 15
399 1 -10.5709 4.77708 -16.5007 18
400 1 -9.52454 1.61745 -12.5609 18
401 1 0.865531 -1.01078 10.999 19
402 1 4.29432 12.2621 4.48588 16
403 1 -0.786924 9.86679 -7.41285 17
404 1 -17.8215 7.69894 -6.19519 8
405 1 -9.01465 10.4649 -2.09334 26
406 1 10.3623 0.354715 4.87351 16
407 1 7.65734 5.31337 -10.3039 13
408 1 -19.5995 -4.38259 2.65436 9
409 1 -3.23491 4.35085 9.50871 24
410 1 -8.42219 12.2243 -9.22618 12
411 1 2.60749 -14.3183 -5.48438 8
412 1 6.19809 0.547587 -14.9021 10
413 1 -5.41462 16.7683 -6.24462 12
414 1 -12.3547 -4.33921 -17.147 11
415 1 -0.482671 -12.6027 3.35808 16
416 1 -11.0928 -8.90254 -3.75519 19
417 1 -7.27165 3.76518 -7.85901 24
418 1 -12.9831 -9.45958 11.3488 9
419 1 -0.676739 10.2043 -2.33064 21
420 1 -1.22053 -11.7863 -8.03237 10
421 1 1.15533 -6.53348 9.56841 16
422 1 2.99092 2.26055 -4.76807 22
423 1 -13.9176 2.83928 3.95578 17
424 1 6.67392 -2.52334 -2.03091 19
425 1 -1.21005 7.86499 14.6807 13
426 1 -6.84226 2.84342 -11.696 19
427 1 -2.16504 15.1637 9.54905 9
428 1 1.56109 6.7333 -12.4282 15
429 1 -1.81967 -5.13036 -16.5988 11
430 1 -7.43033 -7.6536 -12.3624 18
431 1 -15.1333 -3.97762 -12.0756 13
432 1 11.2969 4.49374 2.55933 12
433 1 10.5064 1.77063 -3.64011 13
434 1 -0.915437 -1.73548 -18.2025 8
435 1 7.193 -8.71936 -5.91567 9
436 1 0.679491 8.03828 2.0411 19
437 1 -11.0981 5.32018 0.555745 21
438 1 8.95989 7.36405 -3.10554 11
439 1 9.39043 -4.33249 1.64867 13
440 1 1.34996 4.50681 -15.6616 18
441 1 6.07592 5.43233 12.2589 9
442 1 -2.24298 -1.93148 8.69031 17
443 1 1.4175 -1.11608 13.9337 15
444 1 8.43073 2.14103 -11.8517 12
445 1 2.13843 5.68067 8.19221 21
446 1 -10.8393 5.70797 -11.5586 17
447 1 9.09379 7.5981 3.32261 15
448 1 3.29008 -8.43102 4.31778 15
449 1 -2.23219 -5.03789 -2.52623 16
450 1 10.1743 -2.53333 8.46436 14
451 1 -4.08732 12.1806 13.4828 7
452 1 3.3346 4.82065 3.95793 19
453 1 -7.16809 13.3142 -3.02845 20
454 1 3.88281 10.5404 -10.6189 17
455 1 4.07442 5.55601 -14.4671 10
456 1 0.643613 12.9785 -2.60595 24
457 1 -7.98992 -16.5119 -5.71933 6
458 1 -12.1567 5.39473 3.07592 16
459 1 -6.35083 8.46148 -17.6786 10
460 1 -11.8744 -6.57335 6.98507 20
461 1 -7.89532 1.07006 -9.3758 22
462 1 -15.4476 4.81856 -3.88531 18
463 1 2.33721 -3.44964 5.98028 20
464 1 8.41111 9.21473 6.37677 9
465 1 -1.92942 -7.85572 -1.05368 19
466 1 -15.0287 -1.05425 -12.5171 14
467 1 2.03509 2.96337 6.0459 20
468 1 -1.86531 0.671073 10.9909 18
469 1 6.63768 9.79603 -11.0078 8
470 1 1.13331 5.25962 -9.62691 16
471 1 -6.47022 -14.1907 -3.00248 11
472 1 8.56682 2.4207 3.19746 22
473 1 -0.496897 11.3154 0.313005 18
474 1 6.23325 -2.8669 2.93467 18
475 1 -5.07875 4.5118 14.2941 13
476 1 -17.4789 -4.77631 -3.44102 14
477 1 -13.982 -0.65465 -9.54198 16
478 1 7.76434 -3.01926 12.1042 10
479 1 -5.97769 -6.00963 13.2518 8
480 1 -1.15567 14.587 12.9167 6
481 1 -13.7507 7.38592 -5.53922 17
482 1 6.50821 5.17459 5.6353 18
483 1 5.85949 7.40102 3.6088 20
484 1 -5.5081 0.476883 -17.0402 17
485 1 -18.8172 0.336205 3.75297 9
486 1 0.871864 -0.602727 -9.83379 19
487 1 -5.54857 -5.05726 -6.54866 21
488 1 6.83391 -4.38135 -7.87941 14
489 1 1.54127 7.82435 10.87 20
490 1 0.910133 6.16471 5.31922 21
491 1 3.30118 8.47694 4.23277 20
492 1 -3.27784 -3.88819 13.0255 13
493 1 -8.84939 -0.798681 12.7549 11
494 1 -4.6509 -2.48405 -12.3193 19
495 1 -11.1682 -0.242976 10.3797 14
496 1 -1.97018 3.35171 12.2433 25
497 1 11.9471 6.35368 -2.59082 10
498 1 0.265976 -9.01573 -9.25382 13
499 1 -9.43143 0.499843 -6.94689 19
500 1 3.68264 8.34713 0.756549 19
501 1 2.69794 12.5821 -0.538131 14
502 1 -4.30293 -0.753855 5.90227 23
503 1 -0.0728753 13.4511 -7.80255 18
504 1 8.90764 10.4406 1.04165 8
505 1 -9.07751 -6.85333 -3.46689 21
506 1 -5.84047 3.20117 -18.8235 11
507 1 -12.368 10.3614 -3.98041 15
508 1 4.20501 -7.7651 -13.1053 5
509 1 4.72356 7.12465 -2.06806 21
510 1 4.22067 4.80752 -10.5677 21
511 1 8.73591 9.31081 -8.34367 10
512 1 -6.45718 5.5511 3.94077 15
513 1 -9.11436 6.72183 -1.13012 22
514 1 2.51575 8.44132 -3.5098 23
515 1 -4.81899 -4.79349 10.1971 15
516 1 -7.49071 9.80635 -14.3459 13
517 1 0.941663 13.5217 6.66256 10
518 1 -3.45317 2.20921 5.56743 19
519 1 4.13823 13.5227 -2.98605 12
520 1 3.861 13.3621 2.08889 11
521 1 8.96826 -0.0892582 -9.74732 15
522 1 -16.7671 -0.406114 -2.17156 20
523 1 -0.99873 -12.9409 -0.930182 14
524 1 -7.19396 -1.44838 -13.2524 16
525 1 -6.23262 10.0125 9.67109 15
526 1 -0.684899 -1.57043 -6.89124 19
527 1 2.86606 10.6974 1.96899 20
528 1 -19.8572 -0.506006 -1.94519 11
529 1 -0.659383 -13.2625 -5.06888 14
530 1 6.49389 9.0407 -4.59728 14
531 1 0.967675 -3.26698 1.08812 21
532 1 -2.51293 13.0776 -1.9353 18
533 1 3.56618 0.227407 -13.178 18
534 1 -1.853 -7.44578 10.1889 14
535 1 1.99237 14.2076 -5.52062 16
536 1 -3.47679 5.86597 12.3191 18
537 1 -9.13349 -9.47536 -13.8649 12
538 1 1.1436 1.15475 -7.25211 23
539 1 -6.99114 7.2975 6.78757 19
540 1 5.3894 -6.2224 -5.3064 19
541 1 -0.999044 -2.11785 6.06728 20
542 1 -3.76592 -13.0944 -6.54192 11
543 1 -17.146 -2.15334 9.209 6
544 1 -4.16642 1.8864 -9.52418 22
545 1 -14.1402 -10.4542 -1.11025 13
546 1 -12.9937 -0.583817 6.98987 15
547 1 9.7641 5.55697 -7.92165 12
548 1 -10.6017 1.53329 5.80688 17
549 1 -18.9621 7.12844 2.47577 9
550 1 5.8252 -2.15349 5.58129 25
551 1 -6.35941 11.9934 -6.84253 20
552 1 3.71818 -0.933442 -10.5965 18
553 1 4.77168 4.12187 -4.95117 17
554 1 -13.4907 4.28488 -10.3368 18
555 1 -13.2367 -6.48512 -10.9141 17
556 1 -4.12276 13.6804 -10.5948 15
557 1 -5.71554 3.92919 11.3055 21
558 1 -12.4252 -8.31357 0.736687 20
559 1 -7.03039 -4.899 -8.58132 18
560 1 -12.6939 6.2973 -2.3401 22
561 1 1.86393 11.1473 4.94033 19
562 1 -14.3175 -4.7224 0.108205 18
563 1 3.65974 7.77515 -11.9827 14
564 1 -8.57406 -10.687 3.8173 17
565 1 -0.635794 4.20793 -6.78105 21
566 1 -5.99312 -4.82332 -17.0779 12
567 1 1.92807 -0.861667 8.31048 20
568 1 -8.02379 3.40622 -17.0718 20
569 1 -14.4994 -3.42554 -2.67658 17
570 1 4.96015 1.00874 -2.54614 23
571 1 -10.3987 -2.10676 -1.85771 18
572 1 6.38156 6.22333 -7.50408 18
573 1 5.19945 -0.601261 -5.18703 21
574 1 -11.7672 4.85033 10.7706 12
575 1 3.19463 -6.17726 -0.022454 18
576 1 9.78409 -2.54973 -3.89177 16
577 1 7.73608 -5.49814 9.89545 9
578 1 -2.25131 14.5474 6.6885 17
579 1 -15.3211 1.10091 7.05715 10
580 1 -8.74537 -10.5294 8.24902 13
581 1 5.136 4.82477 0.432088 20
582 1 2.81777 6.45734 13.1369 12
583 1 -20.1675 -4.16798 -2.62572 8
584 1 6.77982 -2.89013 -5.06236 22
585 1 -1.91118 9.83289 2.77007 22
586 1 4.0862 0.704629 13.2818 12
587 1 -3.98215 11.6704 4.96918 20
588 1 -4.75684 -7.96404 10.0114 15
589 1 -12.2732 -1.42726 -4.38249 18
590 1 0.490463 4.97945 14.3508 15
591 1 1.07333 15.5211 -2.59752 14
592 1 -14.3749 -8.20637 7.49127 13
593 1 1.4143 -5.38952 3.61857 16
594 1 4.42639 -3.12538 8.53794 21
595 1 1.16874 8.82096 7.46816 20
596 1 -5.94129 6.81563 -7.18721 22
597 1 0.917908 -5.97743 -9.30582 15
598 1 -6.92651 6.4955 -12.4148 20
599 1 -7.73679 -0.546443 10.0719 19
600 1 -1.41127 16.2023 3.38074 9
601 1 7.86879 -0.340026 0.611351 17
602 1 -4.4592 7.83569 -9.31915 17
603 1 -6.27747 6.97352 12.0693 16
604 1 4.06212 11.8809 7.46428 13
605 1 1.40317 -7.10657 -15.3504 9
606 1 -6.45089 -10.8629 -5.24222 19
607 1 -12.296 3.63929 -13.3494 21
608 1 10.689 4.73962 8.36155 9
609 1 -3.10505 -4.67094 -13.7386 16
610 1 -6.37233 -7.67478 -5.02706 20
611 1 7.73525 -0.320939 -2.88384 18
612 1 -2.30985 -9.8087 5.19087 18
613 1 -7.23214 -11.407 -8.24891 14
614 1 4.64983 11.0273 -4.2064 15
615 1 -11.7377 -5.79021 1.38094 20
616 1 -14.705 4.10729 1.27185 20
617 1 3.06512 10.2367 -6.88757 18
618 1 3.16083 -4.93872 -13.0745 10
619 1 -10.2577 11.2214 4.11227 15
620 1 -2.80165 8.09005 -16.2197 11
621 1 4.20959 -3.32706 0.154093 21
622 1 -10.5612 8.10732 -3.93255 20
623 1 7.30774 12.0023 4.51222 9
624 1 -17.3389 -10.5906 3.09586 10
625 1 -1.04441 6.76166 8.54364 20
626 1 -18.5243 -2.16638 -12.1133 5
627 1 -11.5432 3.93491 6.04569 20
628 1 -9.06784 6.59645 -7.24134 20
629 1 3.30975 -6.75723 -7.38154 16
630 1 -16.4803 -7.50347 -6.28836 13
631 1 2.21556 -9.84348 -0.225382 14
632 1 -17.3205 -1.31659 -9.07811 10
633 1 -13.6676 -2.5284 -7.16648 16
634 1 -12.6849 -3.18346 8.57072 19
635 1 11.1768 -1.791 2.56883 10
636 1 7.37652 -4.20365 6.99105 16
637 1 -18.9825 3.02505 -1.34525 13
638 1 -4.18277 12.1966 7.98552 19
639 1 -2.504 9.18646 -10.2602 16
640 1 -6.3741 10.3459 5.96372 21
641 1 5.4098 9.74888 -7.85414 18
642 1 -0.886455 6.466 11.4044 19
643 1 5.00079 -5.14873 11.5512 11
644 1 2.03189 13.7089 -10.4913 12
645 1 -4.41332 1.19209 10.5571 20
646 1 -4.86708 0.509483 -11.584 19
647 1 -18.1845 0.425925 0.573871 17
648 1 -6.23657 -8.6245 7.26895 19
649 1 5.03768 3.37569 7.46664 19
650 1 -9.60684 -11.7496 -5.6344 20
651 1 -16.0277 2.36814 -1.14956 22
652 1 6.6676 3.94681 -13.5618 13
653 1 -11.0726 8.32308 1.94691 21
654 1 -15.597 4.49641 6.18639 11
655 1 -10.9502 -7.16462 -15.9154 13
656 1 -2.8734 -14.4044 -3.71195 10
657 1 0.0932074 -15.08 0.830704 9
658 1 -4.0174 10.5998 -12.2535 17
659 1 10.1621 2.34877 -7.12289 16
660 1 4.36767 6.45801 6.44053 20
661 1 7.77927 -0.0101997 -6.79535 18
662 1 -7.65876 -1.80134 -16.5164 14
663 1 -5.25703 -8.48919 4.60969 21
664 1 3.81389 14.9982 -8.19978 7
665 1 0.517794 1.70682 -14.5597 19
666 1 -19.5716 5.72905 -4.10547 8
667 1 1.16201 7.05802 -6.78711 18
668 1 -14.5115 -5.8687 5.50551 19
669 1 -0.174611 8.72417 5.40237 22
670 1 -3.39524 -14.299 1.88717 10
671 1 2.26521 10.3748 -1.31078 19
672 1 -8.88421 7.20738 10.1643 15
673 1 -14.5895 -3.63114 10.7475 9
674 1 7.02316 5.66838 -4.35201 21
675 1 -8.11178 -4.0852 12.5825 12
676 1 -4.18484 -12.9854 4.59556 14
677 1 -8.13638 -0.257283 4.25743 19
678 1 3.94088 3.35828 12.9895 14
679 1 -0.899057 -3.32461 -9.54642 21
680 1 -9.15046 0.814243 -18.352 12
681 1 -12.176 7.35857 -15.0884 14
682 1 -12.9239 0.922534 -12.1174 22
683 1 9.29516 5.63817 5.40551 17
684 1 -4.35134 7.90864 4.4712 20
685 1 -13.9942 -9.72463 -5.25249 14
686 1 -6.91831 8.83936 -0.9004 20
687 1 9.6132 -0.591038 10.9855 12
688 1 -8.9485 -5.5997 2.16402 21
689 1 3.96288 -4.3506 -8.63843 15
690 1 0.909343 -14.4333 -2.86336 10
691 1 -3.29633 -3.21892 -18.6446 8
692 1 -10.8458 1.73284 -15.4214 23
693 1 -12.9926 -6.9144 -2.59514 17
694 1 -14.6852 3.37372 -6.54682 18
695 1 -9.63249 2.15742 9.02344 17
696 1 4.96223 0.346582 7.89988 22
697 1 -15.3998 -5.08714 8.42341 13
698 1 11.5404 -2.61106 -0.727828 10
699 1 -5.12162 3.5655 -15.9897 15
700 1 12.3694 3.90866 -0.0912438 11
701 2 -13.0559 1.92069 -10.1165 19
702 2 -11.1933 13.4412 -1.86411 14
703 2 -3.55705 -2.44093 -13.945 20
704 2 -9.16477 9.14316 10.4475 14
705 2 -11.1112 -5.15174 -12.6025 15
706 2 3.78022 -4.34594 10.216 16
707 2 -15.419 -3.13122 -0.321615 20
708 2 -13.2186 7.7143 -7.41349 17
709 2 -6.84706 13.9354 7.90858 14
710 2 -20.0076 -0.220418 -0.149151 11
711 2 2.68082 6.61045 10.2006 20
712 2 -5.66124 -0.770893 -7.20593 21
713 2 -12.9361 -7.91327 -9.78893 15
714 2 -17.5212 4.28841 -0.738129 15
715 2 -6.09007 -4.92662 5.66663 16
716 2 -0.715174 1.34902 8.36117 21
717 2 2.47509 1.60582 -13.8121 19
718 2 -2.55075 -13.1889 5.76377 12
719 2 2.14314 1.59902 4.622 16
720 2 -5.77798 15.0769 4.0781 15
721 2 -13.5135 3.28565 -17.9591 12
722 2 11.2681 0.961004 6.37583 12
723 2 7.36387 -7.13869 -4.57179 14
724 2 -14.1124 -9.34043 0.542014 20
725 2 -11.2457 -10.32 12.9368 10
726 2 -10.06 -9.59447 7.16421 17
727 2 5.68937 -3.43946 6.89899 22
728 2 -5.38682 -12.6075 -5.97612 15
729 2 1.08737 -4.78571 12.4178 13
730 2 -4.38296 9.59016 -9.70197 18
731 2 -14.0907 -4.50799 -7.27246 15
732 2 1.35744 3.94465 9.22514 20
733 2 -16.3947 8.60513 -1.54484 11
734 2 -5.09155 0.0442979 14.1022 12
735 2 -18.691 7.70526 -4.18597 7
736 2 2.56451 -13.0388 -3.94681 13
737 2 -8.0759 6.52607 3.19591 15
738 2 -1.98067 13.8667 -8.17691 18
739 2 0.650372 -4.95029 -5.39628 20
740 2 -6.12787 1.34231 -10.2909 20
741 2 -3.42671 -5.92814 -9.86661 16
742 2 5.17059 -0.776438 -3.14906 21
743 2 -8.99654 0.96557 13.779 8
744 2 -0.508382 10.6981 -12.4684 13
745 2 -7.75876 7.66443 -14.2606 15
746 2 8.1178 8.31004 -4.67911 13
747 2 -7.61677 -2.28677 12.9764 14
748 2 -13.0698 8.24911 5.88658 12
749 2 1.95329 -1.19008 -11.245 19
750 2 -3.84038 -8.738 -8.6443 15
751 2 -18.7762 -6.05641 2.01123 11
752 2 6.32839 3.70308 1.89166 18
753 2 -13.0817 12.1732 0.318298 10
754 2 -8.78809 -11.4515 -9.75511 14
755 2 -5.43521 16.0201 0.285302 16
756 2 -5.29601 -10.3646 8.06865 17
757 2 10.3084 -1.76186 6.26834 15
758 2 -19.6404 4.45976 -2.67416 11
759 2 1.23136 -10.596 -1.7538 15
760 2 7.77751 -6.00024 -1.36976 14
761 2 2.57511 8.86195 2.42195 18
762 2 1.06023 -13.8699 2.3192 11
763 2 0.204184 -4.81014 1.95189 17
764 2 -11.9426 -1.98162 9.79466 15
765 2 9.52097 0.677547 -7.82947 16
766 2 -3.09476 13.4024 9.09819 13
767 2 7.92915 8.6692 8.06424 12
768 2 -13.0375 4.27647 9.63656 12
769 2 -1.42986 12.182 1.68798 15
770 2 7.98913 -1.99443 -3.6791 19
771 2 -4.08196 7.66095 -6.74133 19
772 2 -10.9552 0.297203 -11.4375 17
773 2 -15.3589 -3.06074 9.2401 10
774 2 1.68988 2.65905 -8.37699 22
775 2 -12.4296 4.68437 -11.7535 19
776 2 -18.9079 -1.01077 4.84729 9
777 2 -15.8617 -11.3109 -1.06471 8
778 2 10.0501 -4.04 -0.153325 11
779 2 -10.9354 -4.52489 8.86012 18
780 2 -2.967 4.36255 13.3985 21
781 2 -1.71757 2.1256 -16.3917 17
782 2 3.03467 1.56214 14.4731 10
783 2 -5.81822 11.0508 7.75425 18
784 2 -7.93065 4.23908 4.64109 19
785 2 3.22118 -7.19095 -5.5012 21
786 2 7.5706 0.887215 -10.7437 15
787 2 -10.9772 10.8215 5.95107 13
788 2 -8.02799 -9.44779 2.02741 22
789 2 5.05968 -5.57816 -7.18532 15
790 2 2.80102 4.27918 -5.46758 21
791 2 0.542143 4.04203 5.84395 23
792 2 5.5236 -4.14388 -4.56441 22
793 2 0.143109 -2.64981 4.5771 21
794 2 -7.46413 -7.92751 5.96973 20
795 2 6.57162 3.71707 -4.38564 15
796 2 -15.021 -6.44746 7.29803 15
797 2 0.0512055 5.61472 -12.3901 18
798 2 -4.75722 -7.85862 2.82464 20
799 2 8.6664 -1.78805 -10.7775 14
800 2 -10.7494 -13.0005 -4.47816 12
801 2 6.22794 -0.96799 1.76243 17
802 2 -4.49366 9.97044 4.96588 19
803 2 7.87084 4.10869 -11.9392 13
804 2 -8.25431 -2.96096 -13.0306 17
805 2 -17.5095 -6.49198 -5.04356 12
806 2 -5.73245 -4.36243 2.53865 24
807 2 -6.60126 -2.40827 -3.94196 22
808 2 -8.03925 10.273 -0.421705 24
809 2 -15.1674 5.78133 0.533122 23
810 2 -2.55425 0.701873 -9.63491 18
811 2 2.8782 6.6177 -10.5166 17
812 2 -0.865928 10.0952 -9.5089 18
813 2 -13.6976 1.04244 7.93981 13
814 2 -2.99327 -5.86768 -15.2683 17
815 2 -16.2643 6.1077 -2.78926 17
816 2 -7.89815 5.66143 7.69259 19
817 2 -15.9165 7.41198 4.07735 13
818 2 -8.54489 8.4668 -10.6327 20
819 2 2.46806 13.9592 -2.06902 16
820 2 8.03963 5.93285 -2.73062 18
821 2 5.50274 -3.80981 -1.25884 19
822 2 -17.3735 -2.17475 7.39729 11
823 2 6.20972 1.75854 3.69682 18
824 2 -3.06779 12.9483 3.80606 20
825 2 -14.3102 6.25704 -15.417 12
826 2 -13.8322 4.42616 3.07628 21
827 2 8.16952 -3.22908 8.35996 22
828 2 -10.8772 -9.04776 -15.012 11
829 2 -4.84126 4.40757 -17.7633 10
830 2 10.5615 6.8257 -1.10228 11
831 2 -12.9967 -8.43932 12.7885 9
832 2 -2.16367 11.3666 -1.25242 20
833 2 -4.98025 17.2662 -4.5158 12
834 2 0.608759 11.0424 -7.2488 17
835 2 10.1985 -0.580817 8.76711 14
836 2 -2.4253 13.3018 13.6651 6
837 2 9.61349 -1.67523 -6.11984 15
838 2 -1.96163 5.12373 11.1303 18
839 2 -0.532689 -0.180479 12.2449 17
840 2 -18.8317 -1.89334 -10.1711 6
841 2 -9.41097 -15.3307 -5.62932 10
842 2 -3.03437 -11.2763 -7.07021 14
843 2 3.7344 0.957219 -11.3883 19
844 2 10.6862 3.04576 3.61867 15
845 2 -5.98445 3.38914 13.0145 17
846 2 -0.58096 2.53121 -13.0731 22
847 2 -9.27425 -7.4805 11.0881 19
848 2 -4.4324 -3.48626 -17.334 13
849 2 -2.38135 -13.8855 -5.43394 10
850 2 -4.24192 -3.6948 -7.59527 21
851 2 -1.72944 -14.6412 1.35052 9
852 2 10.4476 3.74864 -8.50898 9
853 2 -6.59355 9.30735 -16.0079 11
854 2 -9.40092 11.3613 8.34159 15
855 2 -10.3668 -4.40653 -1.6141 18
856 2 -10.8839 1.87244 -19.0433 11
857 2 0.335712 13.3911 -9.80608 14
858 2 -4.94795 13.8565 -6.60434 19
859 2 -7.51545 -6.46691 2.9528 20
860 2 8.97352 7.42945 5.36571 15
861 2 -5.72244 2.23764 10.0136 19
862 2 -13.0892 -10.1981 3.50466 15
863 2 2.95962 -11.1093 -6.25696 13
864 2 -2.27564 2.47226 14.7867 15
865 2 -0.677802 13.8571 7.64536 14
866 2 7.68808 5.55358 -8.57677 14
867 2 -0.47732 11.1823 10.781 14
868 2 5.37596 7.63576 -8.42369 20